/*--------------------------------*- C++ -*----------------------------------*\
| =========                 |                                                 |
| \\      /  F ield         | OpenFOAM: The Open Source CFD Toolbox           |
|  \\    /   O peration     | Version:  2306                                  |
|   \\  /    A nd           | Website:  www.openfoam.com                      |
|    \\/     M anipulation  |                                                 |
\*---------------------------------------------------------------------------*/
FoamFile
{
    version     2.0;
    format      ascii;
    arch        "LSB;label=32;scalar=64";
    class       volScalarField;
    location    "2.7";
    object      gradTz;
}
// * * * * * * * * * * * * * * * * * * * * * * * * * * * * * * * * * * * * * //

dimensions      [0 -1 0 1 0 0 0];

internalField   nonuniform List<scalar> 
5712
(
7046.43
23164.7
5586.02
23760.4
4201.5
24605.1
6650.97
38020.1
8179.27
52296.5
8108.02
38037.7
7810.49
31537.2
8116.41
28158.8
4909.59
3016.71
13124.2
7760.38
4820.63
2595.06
14409.2
7149.5
5345.25
3844.33
17155.2
11996.1
4040.04
2877.88
16879
12192.7
9469.71
3998.14
8155.38
3620.63
3729.67
8802.57
32959.4
8946.3
11783.6
4004.2
42549.9
11573.9
11075.7
3854.72
23475.8
7293.18
12035.1
4208.24
20354.4
6480.68
5528.02
2740.68
8348.4
3235.42
5976.7
3235.9
8151.88
3108.38
7643.34
4344.47
7023
3031.04
10480
3750.86
3611.18
1255.85
11835.4
8150.27
7351.11
5348.76
13404.9
11015.9
7332.21
6347.52
6901.97
4614.66
9648.2
6380
4863.36
3561.98
2492.71
2038.2
4742.6
4098.25
2480.95
2387.89
4629
3007.19
2389.4
1519.61
6122.55
3314.47
4546.41
5533.59
8312.82
5907.14
6532.94
9420.85
4075.71
1921.24
2692.57
3182.04
2036.41
840.052
1167.53
1180.54
7160.3
12869.9
4879.45
14398
8437.21
12624.4
6021.36
15121.9
9643.04
11471.2
7799.98
14836.3
11754.3
14257
8637.11
8259.42
9089.18
14219.9
12892.5
12447.5
12648.5
18367.1
11549.3
8701.47
7392.85
8254.42
13085.5
14839.8
13187.7
17243.2
16482.5
13587.1
12539.4
17062.5
16165.7
11774.2
11428.4
16048
15612.9
10344
8061.72
9392.76
8091.56
10133
8918.43
10783.9
10225.3
14857.1
15065.1
9681.8
8301.69
9051.38
8523.04
9204.42
9562.77
10298.4
11373.9
13465.2
15358
7938.45
6220.34
5478.21
7010.47
10901.1
13354.9
7583.46
12045.6
4579.36
6069.63
6786.75
5573.04
1295.69
4663.05
690.06
1680.84
3882.5
8123.58
1447.51
2825.26
567.15
3911.27
335.974
1371.02
4468.99
4547.31
5075.74
3111.22
7047.84
5598.75
8290.37
5652.63
993.867
2486.47
2509.04
1398.31
1413.71
1847.01
2014.91
1516.67
10435.8
6308.71
1970.69
11840.3
6757
2205.33
10003.3
6241.98
2093.29
11675.8
6769.7
2203.43
9207.67
5725.73
1873.97
11421
6817.07
2271.97
5188.2
2750.86
724.912
6499.73
4256.69
1482.04
7653.8
5276.45
1817.45
8787.67
5656.23
1871.64
11333.3
7022.19
2456.47
6208.29
3429.81
1067.87
6039.71
4325.58
1624.67
7084.44
5229.45
1910.29
8873.6
6207.4
2209.01
11450.4
7089.64
2504.13
294.539
1993.25
2803.17
4067.91
2125.3
2456.33
5351.45
5096.26
598.823
1040.9
639.552
1084.66
485.091
1416.46
868.205
1859.88
3212.44
1575.7
4073.68
2355.47
2180.26
3795.53
3378.99
971.088
5959.57
1487.34
-1826.92
777.597
1819.97
1376.77
1272.82
1204.95
9928.44
4683.82
2719.89
1731.49
10087.1
4876.21
3408.04
2181.1
9969.71
5258.39
4957.94
3561.36
3536.37
2594.66
1795.54
1735.9
12542
11173.4
5918.23
6157.53
13319.1
12518.9
6575.51
6646.23
5347.56
5523.73
10920.1
9175.01
3552.74
3718.69
2020.73
2278.06
4069.16
4048.52
2266.82
2418.37
3155.97
3399.3
1807.63
2188.62
4847.86
3504.84
4875.94
3598.01
7530.68
4647.42
7240.11
4980.41
2947.68
2535.59
3093.12
2332.4
1685.77
1606.12
1972.34
1368.52
11908.6
8617.75
6214.13
6529.5
11862
8784.86
6256.89
6498.84
12276.9
9039.03
6347.42
6300.27
13764.7
14647.4
12733.1
8710.99
5189.4
13886.2
13096.9
12420.3
10518
7173.1
13019.5
11951.2
9731.65
7691.29
5065.1
7615.54
6999.25
7291.88
8580.8
7766.49
6807.41
7325.29
8426.16
7959.43
6624.18
7337.34
8237.25
10488.6
7391.69
10010.4
7023.89
8113.35
6668.16
7822.93
6868.42
6774.2
8102.92
8704.17
7553.13
7873.22
6932.84
6917.58
6377.97
6344.68
6459.03
5375.4
7726.77
7035.4
4776.29
4679.48
2785.38
9016.6
6952.12
6284.04
5032.54
3925.13
2397.52
5700.46
4287.79
4743.32
2244.61
1752.71
1011.93
4949.32
3569.25
1745.63
1443.46
4179.78
1904.15
1657.44
884.466
3415.41
3248.14
3166.84
4741.15
4760.95
4646.81
4066.1
6118.1
3395.81
2291.34
2254.47
3181.64
1058.94
535.564
297.701
637.864
4903.01
2041.51
599.792
5745.07
1475.24
390.875
4910.55
2186.15
669.134
5701.9
1526.65
423.648
4494.41
2123.38
546.779
5553.2
1540.76
359.017
4525.27
2252.59
479.995
4266.59
2036.02
466.521
4372.42
2087.47
559.187
4513.38
2110.46
439.412
5493.49
1499.1
222.712
5792.5
2872.52
746.3
5413.5
2680.47
723.849
5109.94
2521.19
730.021
5044.89
2140.1
519.139
5931.94
1386.65
335.684
1867.61
677.394
131.749
-223.038
775.453
297.73
80.1098
-45.5214
1981.68
744.722
190.166
-138.629
984.216
415.06
197.629
92.5077
2134.44
831.761
288.694
-10.5368
1689.85
804.099
325.658
80.468
1290.07
746.796
292.656
4.347
1223.08
824.473
503.881
310.721
1776.33
800.204
256.361
-187.487
1532.03
679.162
302.178
-194.068
2103.61
823.567
265.29
-144.118
1911.79
750.892
299.143
-323.547
1428.72
750.475
314.625
-54.4469
1179.64
605.11
330.604
7.03329
1062.45
668.622
412.177
262.012
816.115
516.623
354.537
216.313
2395.43
818.429
126.597
-442.176
2400.31
757.595
174.029
-608.043
2394.52
831.682
150.045
-419.868
2326.19
737.801
183.228
-588.551
2351.58
837.05
229.792
-301.235
2170.3
699.444
228.554
-483.447
2060.52
774.899
321.38
-46.8481
2379.93
784.836
326.093
-566.191
1852.81
696.55
325.839
-132.905
1924.73
536.533
157.678
-414.959
771.575
195.47
44.9144
-87.5412
1980.84
572.243
178.863
-394.988
800.945
211.125
58.3091
-72.018
2005.63
612.4
224.746
-346.82
810.259
228.78
76.5693
-52.4922
1805.05
578.391
259.933
-274.244
783.202
236.352
105.196
-17.982
1649.81
576.558
288.55
-159.888
696.332
249.237
144.698
29.712
1157
471.146
234.292
-43.8944
653.599
328.877
205.831
112.638
1335.42
475.583
229.38
-112.928
658.627
283.948
175.283
71.458
933.074
459.405
262.904
46.4368
589.374
349.787
230.883
152.743
660.503
420.654
295.632
189.888
495.333
351.839
255.277
198.117
-19.5494
9.46944
9.66339
6.98534
5.47186
-2.72138
6.29151
5.44368
3.8634
3.02786
11.6219
26.4542
19.6016
13.3607
10.3104
31.0921
25.6246
16.9364
11.2411
8.61601
46.1599
47.2452
32.2259
21.6531
16.6704
127.192
86.7565
54.8909
36.1129
27.6162
153.633
102.703
64.8855
42.768
32.794
222.799
136.151
83.654
54.6783
41.8715
81.8128
69.1318
45.5629
30.3343
23.2132
86.9433
65.0952
41.9893
27.889
21.3513
56.1856
55.2578
37.1162
24.9298
19.1674
101.695
67.1709
41.9572
27.6889
21.1406
106.634
82.6931
53.849
35.7862
27.4534
116.156
77.9707
49.2506
32.5258
24.9101
177.201
109.718
67.5599
44.1841
33.8173
147.982
90.571
55.6795
36.4065
27.818
-36.609
5.04577
7.18595
5.3662
4.23636
-20.0616
1.64273
2.82286
2.15011
1.72006
-16.1874
15.691
13.3351
9.31034
7.25801
-12.7676
5.41628
4.96808
3.50525
2.76189
9.53267
28.0463
20.3105
13.834
10.7586
14.6654
17.9336
11.9083
7.86732
6.09686
66.4507
54.307
35.1957
23.5191
18.1771
44.0897
34.2484
21.7316
14.4158
11.1474
121.988
71.04
43.0678
28.1469
21.4992
1526.95
3495.28
1530.8
3452.77
1659.32
3417.31
1979.7
3557.16
2075.24
3682.04
819.681
1297.87
1362.08
2199.78
428.124
627.35
146.918
204.19
8009.79
1909.06
436.467
97.2348
24.083
2178.25
585.744
155.543
35.2887
7.64404
7935.1
1875.42
428.278
94.5946
23.5994
2215.74
653.256
160.715
37.2823
9.23313
7612.36
1785.87
406.152
89.5672
22.3661
2150.64
632.113
155.122
35.8074
8.89967
7016.04
1630.63
369.578
81.4056
20.3283
2093.87
602.66
145.96
33.3904
8.25284
5918.6
1367.99
310.114
68.3822
17.0937
1986.83
556.228
133.204
30.2743
7.45852
2835.96
685.31
157.952
35.0677
8.77557
970.385
276.026
65.5335
14.6272
3.59312
4202.71
1001.29
229.035
50.6107
12.648
1428.67
401.174
96.1043
21.8272
5.41286
1670.03
406.846
94.1979
21.0123
5.26709
541.111
160.243
37.7753
8.42231
2.08769
576.406
139.553
32.3709
7.24203
1.81542
215.677
57.5781
12.4749
3.52431
0.67069
154.207
515.012
4474.68
-809.169
740.729
793.852
2314.25
2962.08
1857.97
3491.42
2923.58
4512.02
3519.86
4369.55
1830.54
2467.08
1958.05
2322.26
1018.9
1059.38
2287.45
1682.42
505.462
-472.759
-771.653
-926.411
-287.938
12766.3
3014.46
4164.2
2673.34
-191.315
-59.5748
2936.43
-1434.39
-808.599
-1104.46
-564.622
7011.64
3685.75
1246.04
1037.07
3646.68
2006.74
637.417
1378.87
-1506.71
-878.375
691.154
545.345
8629.48
4292.73
5282.66
2838.53
4079.71
4411.9
1531.33
-908.47
913.595
1632.7
1353.24
1183.49
1086.54
855.811
1338.61
1085.73
858.066
612.291
267.148
445.726
372.894
286.01
183.923
64.5177
-422.132
-352.098
-262.636
-161.319
-54.3157
-689.614
-576.089
-430.739
-265.211
-89.3883
-829.124
-693.932
-519.933
-320.723
-108.217
-250.516
-200.394
-140.818
-80.816
-25.7875
9341.51
8217.49
7145.7
6704.49
6378.08
2728.93
2447.57
2331
1983.88
1067.36
3204.83
2581.53
2210.66
1766.43
941.838
2078.04
1706.35
1513.18
1188.62
506.174
-25.0023
28.0698
147.214
164.939
83.4362
43.5157
131.895
180.236
163.208
70.5623
2508.98
2117.43
1689.57
1193.19
496.497
-873.924
-429.177
-170.291
-31.629
6.58776
-644.636
-459.837
-279.278
-133.859
-34.9546
-782.474
-488.649
-254.716
-101.398
-21.6392
-510.841
-424.369
-310.013
-184.519
-60.0631
5247.14
4812.97
4230.64
3993.65
3827.03
2847.9
2266.7
1907.93
1474.9
734.008
1163.99
1065.57
916.157
666.406
266.541
919.509
794.748
647.128
449.822
172.895
3051.43
2475.59
1902.22
1277.51
497.302
1785.84
1525.68
1209.08
809.84
295.497
558.195
471.31
371.424
248.76
91.6368
1220.51
1026.71
792.394
513.066
181.518
-1307.78
-1056.14
-763.437
-457.144
-151.327
-772.613
-630.326
-456.86
-272.128
-89.4014
623.401
544.062
443.23
304.851
113.989
494.475
434.026
354.954
243.764
90.2493
5607.6
4139.2
3621.41
3407.29
3060.82
3291.58
2577.33
2012.15
1454.36
665.154
3909.89
3232.67
2649.35
2093.97
1040.75
2276.97
1869.21
1470.19
1044.43
461.473
3484.73
2865.07
2203.8
1459.01
544.306
3351.88
2494.81
2050.27
1564.36
674.383
1342.73
1122.52
866.221
564.498
201.884
-806.137
-665.492
-489.273
-295.653
-98.1842
811.212
700.374
568.759
392.907
148.005
-26893.3
-44098.8
-22290.8
-35704.9
-23931.1
-50239.5
-28649.4
-63783.7
-17021.5
-11626.7
-19182
-11923.8
-15722
-10093.2
-19491.2
-10233
-22204.5
-16695.1
-32386.4
-23291.5
-19068.5
-15164.7
-27079
-20311.3
-15304
-15612.6
-12554.5
-12045
-14754.2
-13923.2
-37475.5
-10335.2
-14238.1
-5307.61
-45882.8
-12707.5
-12734.6
-4716.39
-27839.7
-8766.53
-14576.9
-5577.36
-24724.4
-7689.78
-11429.8
-4592.93
-14588.1
-5281.15
-10843.7
-4762.52
-12683.4
-4585.33
-11246
-5445.4
-10132.7
-4015.95
-13015.5
-4590.16
-4569.07
-1602.91
-9721.16
-6431.37
-8389.84
-5098.86
-8599.82
-6905.7
-7374.82
-5256.07
-8519.97
-4826.52
-9967.44
-6182.41
-5746.04
-3418.1
-3093.15
-1894.51
-4960.39
-3416.21
-2572.58
-1827.17
-5834.48
-3158.78
-3227.85
-1613.28
-7500.81
-3803.64
-4831.7
-5635.71
-9507.97
-6381.16
-6794.97
-9503.46
-5091.6
-2281.1
-2894.96
-3258.51
-2756.32
-1108.66
-1310.97
-1239.07
-11207.2
-13608.4
-6307.43
-15375.3
-11654.6
-12988.6
-7243.76
-15724.6
-11784.8
-11837.9
-8634.86
-14973.3
-8089.34
-6542.16
-8834.02
-9775.58
-9745.69
-8975.65
-10321.7
-11938
-12800
-18171.7
-6148.82
-6308.25
-6845.52
-8279.97
-12971.7
-12906
-8999.33
-16361.3
-12575.8
-11964.9
-8860.46
-16120.7
-12524.2
-10595.3
-8274.38
-15046.6
-12396.1
-7373.4
-5874.49
-7550.96
-6026.27
-8404.02
-6768.22
-9154.36
-7739.36
-13716.2
-12460.2
-6932.59
-5969.34
-6912.63
-5950.61
-7568.44
-7015.43
-9076.42
-8944.29
-12682.5
-13003.8
-6337.21
-5060.3
-4664.46
-6145.33
-7988.78
-11103.4
-6042.19
-10252.5
-4259.5
-5654.25
-6084.03
-4974.14
-787.071
-4048.42
-225.523
-1192.02
-2893.85
-7051.68
-628.435
-1961.38
-369.194
-3606.92
-129.833
-1117.27
-4373.79
-4365.02
-5036.86
-3020.04
-6771.82
-5259.32
-8148.59
-5345.02
-940.938
-2357.38
-2476.66
-1337.1
-1343.6
-1730.17
-1973.11
-1452.52
-5455.38
-1876.76
-7375.63
-2517.7
-5577
-1958.07
-7550.64
-2712.09
-5532.95
-1927.99
-8001.33
-3090.53
-3447.22
-962.291
-4264.24
-1641.68
-4786.55
-1862.99
-5743.56
-2179.43
-8443.58
-3369.16
-4403.46
-1326.46
-3885.72
-1940.74
-4666
-2243.57
-6306.3
-2773.42
-8739.69
-3308.24
-5968.34
-5611.74
-4450.58
-4400.01
-9961.17
-7626.48
-8062.54
-6695.17
-4090.42
-3606.14
-1665.73
-1217.58
-3849.23
-3771.85
-1524.21
-1608.56
-2859.84
-4552.36
-3430.13
-4918.85
-3744.75
-2396.31
-3091.98
-434.014
-6555.06
-1676.55
2604.58
503.197
-859.581
-212.698
301.056
751.874
-2511.81
-1837.94
-927.277
-579.534
-2654.92
-1944.54
-1362.42
-658.154
-2953.95
-2325
-1784.17
-891.553
-1104.96
-35.4093
717.193
1143.46
-4995.97
-5400.29
-3829.82
-3611.49
-6674.29
-6704.36
-5520.38
-4650.37
-2537.37
-2873.97
-3843.54
-4453.94
-2291.05
-2005.43
-934.13
-865.721
-3525.76
-2773.57
-1767.08
-1389.37
-1290.31
-1476.42
-187.195
-547.145
-1720.31
-1278.29
-2517.64
-1911.87
-2739.63
-2339.49
-3906.96
-3140.59
-597.955
-380.783
-1212.44
-755.557
420.993
549.385
-289.865
156.595
-3708.92
-4734.32
-3246.73
-4879.64
-3663.58
-4703.94
-3323.44
-4873
-3837.3
-4330.24
-3502.57
-4629.49
-2788.9
-4607.97
-2441.99
-2238.86
-2540.98
-6956.41
-4988.45
-4688.07
-5000.67
-5345.99
-5574.24
-4739.17
-4095.38
-3920.44
-3234.05
-5689.39
-5773.9
-7593.53
-11736.6
-5365.39
-5180.36
-7282.92
-11176.2
-4894.97
-4730.7
-6720.2
-10288.8
-6811.6
-5239.02
-6215.49
-4748.28
-5532.93
-4438.08
-5777.74
-5373.35
-6216.12
-9517.63
-5523.16
-5225.59
-4750.69
-4794.84
-4369.9
-4657.87
-4632.68
-5574.65
-4430.93
-8401
-3888.84
-2792.56
-2650.46
-959.943
-5518.38
-4851.46
-4271.3
-3138.64
-2099.31
-789.833
-3234.79
-2628.16
-3191.19
-967.056
-427.499
127.696
-3554.04
-2318.49
-613.107
-348.053
-2664.06
-739.519
-280.284
184.206
-1998.92
-2132.84
-2261.1
-4269.2
-3110.53
-3587.16
-3243.61
-5965.59
-2074.3
-1374.86
-1228.93
-2580.94
237.067
377.456
798.898
86.9618
-4140.91
-1204.77
-7908.2
-816.591
-3861.34
-1293.38
-7682.66
-847.063
-2941.64
-779.89
-6987.51
-674.755
-2878.43
-638.352
-2694.07
-622.608
-2989.97
-910.102
-3207.98
-603.952
-6574.74
-857.915
-4031.87
-781.202
-3778.98
-607.692
-3919.3
-777.561
-4444.77
-670.823
-6902.8
-835.59
-808.838
-161.059
192.986
474.645
-270.954
-39.0872
76.0763
150.759
-796.393
-123.761
212.667
448.611
-182.929
40.0067
83.9323
93.5922
-814.24
-80.312
217.349
399.776
-3.96115
263.529
411.129
458.073
580.744
513.468
585.379
616.461
1054.22
763.171
595.683
444.759
-352.164
138.395
422.385
712.846
-290.203
193.481
340.97
717.87
-881.176
-64.0882
280.888
595.723
-678.86
69.8022
307.588
879.332
142.025
338.097
452.735
607.799
61.0535
300.526
343.772
519.845
613.961
522.477
443.938
358.582
429.575
409.355
344.87
330.196
-1291.53
-281.146
229.403
772.539
-1618.52
-335.94
96.8233
966.942
-1238.89
-241.915
249.285
786.971
-1556.05
-309.897
98.5067
956.041
-1152.16
-182.331
206.367
684.11
-1411.72
-260.391
66.9679
871.266
-767.581
-30.0237
192.633
501.012
-1461.48
-219.68
75.1828
1083.74
-717.128
30.1149
219.759
684.783
-1511.36
-258.798
23.1334
682.748
-659.451
-99.1783
29.6785
173.894
-1411.77
-221.035
42.9108
685.337
-627.531
-86.734
33.7737
171.801
-1210.02
-147.533
53.5699
666.145
-534.311
-55.91
48.2694
179.492
-992.494
-86.5166
38.9874
598.403
-437.465
-24.5269
50.1866
172.768
-726.289
12.3789
89.5809
513.618
-227.053
47.1101
67.8253
168.968
-323.691
146.403
239.868
475.587
104.121
222.084
201.652
237.144
-596.955
42.0787
157.163
489.499
-23.8349
142.426
134.174
203.35
6.63192
257.579
288.163
429.893
231.258
284.592
248.402
250.799
333.851
349.729
295.606
309.732
358.711
328.778
260.641
230.619
107.17
31.4956
13.213
7.52939
5.56134
45.4602
15.102
6.75427
3.91847
2.8951
125.832
46.0036
22.727
13.8582
10.4512
72.7855
33.3754
18.3106
11.5626
8.8047
155.184
64.5443
34.2949
21.3589
16.1873
184.619
96.9234
56.2639
36.0834
27.5987
204.726
111.894
65.6751
42.1591
32.1807
229.393
137.384
83.4415
54.2072
41.4782
185.505
85.1996
47.4284
30.0155
22.9394
157.513
75.2532
42.4877
26.9317
20.5825
167.448
70.0172
37.7955
23.5886
17.9165
138.836
70.1992
40.6482
25.8902
19.8281
199.528
97.8111
55.5345
35.3103
26.9445
161.427
85.0908
49.5428
31.7149
24.2758
191.011
111.71
67.4691
43.76
33.4723
159.111
92.3558
55.6148
36.0243
27.5667
116.112
27.8482
10.6296
5.85592
4.27982
53.8422
11.1971
4.02312
2.15021
1.54144
125.473
36.3084
16.3029
9.63297
7.16968
57.2454
14.2809
6.11423
3.55943
2.61525
129.785
44.0783
21.9424
13.3811
10.0101
65.1272
24.0706
12.8664
8.11839
6.10634
144.963
61.9621
34.1259
21.3412
16.0984
86.0633
37.2308
20.9102
13.1795
9.93474
123.153
69.2448
41.3154
26.5789
20.3372
-1740.93
-3272.5
-1783.85
-3273.44
-1931.78
-3289.74
-2111.76
-3369
-2038.28
-3381.32
-794.013
-1245.19
-1326.15
-2075.26
-395.147
-587.809
-107.337
-164.582
-8331.14
-1968.04
-447.118
-99.1205
-24.4441
-2240.18
-603.086
-159.588
-36.0366
-7.76646
-8190.14
-1922.71
-436.995
-96.1534
-23.9051
-2283.72
-672.872
-164.764
-38.0455
-9.38253
-7750.52
-1813.52
-411.6
-90.5926
-22.5749
-2209.87
-648.189
-158.424
-36.432
-9.02395
-7039.88
-1638.74
-371.668
-81.8597
-20.429
-2123.2
-611.921
-148.016
-33.7977
-8.33718
-5882.2
-1364.39
-309.93
-68.4108
-17.1075
-1978.92
-558.161
-133.952
-30.4542
-7.50023
-2816.27
-680.949
-157.085
-34.9049
-8.74138
-953.525
-272.802
-64.9935
-14.5397
-3.57749
-4170.14
-995.385
-228.058
-50.4535
-12.6193
-1408.47
-398.981
-95.935
-21.8259
-5.4175
-1657.95
-404.054
-93.5934
-20.89
-5.23957
-526.634
-156.853
-37.0777
-8.28856
-2.05909
-567.539
-137.558
-31.9249
-7.14754
-1.79326
-201.699
-54.1757
-11.7165
-3.3677
-0.63542
210.589
-1017.46
-5261.65
898.199
-6313.61
-2768.36
-6109.36
-2799.27
-11089.6
-5905.87
-12436.9
-6587.47
-135.326
-538.12
-845.244
-996.059
-895.149
-368.466
-221.844
-833.842
-1265.67
-1397.18
-1126.38
-387.118
-115.018
-123.34
-431.849
-435.07
-617.874
-611.021
-596.077
-563.29
-533.823
-508.903
-418.971
-372.399
845.566
2199.22
3563.53
2524.98
2323.48
1120.56
801.904
2304.47
3724.9
4310.97
3595.91
1639.68
-122.043
-103.171
-78.1857
-48.7238
-16.5447
-485.994
-411.593
-312.52
-195.067
-66.2957
-763.325
-646.421
-490.802
-306.345
-104.118
-899.243
-761.246
-577.776
-360.533
-122.517
-807.973
-683.727
-518.645
-323.435
-109.864
-334.195
-283.76
-215.244
-133.798
-45.2862
-199.965
-168.946
-127.966
-79.72
-27.0662
-752.661
-637.043
-483.442
-301.649
-102.504
-1142.16
-966.475
-733.329
-457.553
-155.489
-1260.04
-1065.51
-808.065
-504.057
-171.282
-1015.05
-857.684
-650.053
-405.366
-137.739
-349.845
-296.26
-224.669
-139.949
-47.4859
-103.798
-87.8225
-66.611
-41.5375
-14.1089
-111.374
-94.2997
-71.5759
-44.6598
-15.1745
-390.148
-330.554
-251.083
-156.761
-53.2825
-393.12
-333.126
-253.078
-158.026
-53.7162
-558.167
-472.863
-359.146
-224.214
-76.2071
-551.945
-467.553
-355.085
-221.666
-75.3398
-538.439
-456.091
-346.328
-216.154
-73.4531
-508.569
-430.545
-326.771
-203.886
-69.2764
-482.037
-408.021
-309.463
-192.889
-65.4856
-458.885
-387.864
-293.87
-183.092
-62.1588
-378.427
-319.964
-241.911
-150.119
-50.7853
-335.436
-282.987
-213.823
-132.829
-45.0026
752.368
629.588
476.199
298.719
102.325
1948.82
1626.45
1230.15
774.019
266.502
3122.78
2590.92
1964.4
1250.46
438.597
2197.85
1819.79
1384.15
886.067
312.081
2054.21
1705.76
1290.98
811.169
263.634
1021.44
865.788
664.123
417.993
132.344
714.361
597.894
451.541
282.445
96.4927
2048.02
1711.49
1292.61
809.996
277.48
3291
2740.02
2070.09
1303.19
449.494
3784.42
3138.62
2372.64
1501.21
521.657
3156.63
2618.19
1981.32
1254.99
434.461
1454.77
1219.11
930.367
591.893
204.56
298.901
699.018
1000.51
1142.89
1029.98
505.599
448.138
1053.05
1467.95
1568.39
1252.79
470.558
244.163
232.447
556.006
540.223
730.577
705.749
689.245
635.672
616.435
521.826
556.602
415.838
-689.154
-1961.39
-3151.33
-1972.5
-1646.49
-378.668
-732.487
-2191.55
-3475.01
-3861.77
-2950.17
-870.283
270.415
229.509
174.656
109.214
37.1543
632.045
536.046
407.626
254.743
86.638
904.419
766.826
582.958
364.243
123.867
1032.94
875.627
665.552
415.799
141.392
931.163
789.551
600.201
374.963
127.496
459.776
391.928
298.828
186.714
63.4131
405.34
343.935
261.678
163.608
55.6567
951.768
806.851
613.326
383.207
130.317
1326.16
1123.69
853.815
533.332
181.353
1416.12
1199.25
910.859
568.866
193.434
1130.63
957.058
726.714
453.843
154.336
426.204
361.977
275.41
172.055
58.4811
220.907
187.502
142.693
89.2262
30.354
210.301
178.487
135.822
84.9235
28.8888
502.809
426.518
324.388
202.741
68.9524
488.541
414.414
315.178
196.981
66.993
660.553
560.208
425.974
266.186
90.5216
638.054
541.067
411.375
257.044
87.4097
623.251
528.624
401.971
251.177
85.412
574.565
487.098
370.245
231.297
78.645
557.745
473.298
359.963
224.892
76.4542
471.568
399.666
303.678
189.645
64.4676
504.818
429.212
326.644
203.925
69.2488
376.069
318.873
242.254
151.182
51.3559
-609.379
-506.659
-381.436
-238.892
-81.8814
-1731.78
-1440.25
-1087
-683.961
-235.837
-2743.68
-2262.49
-1709.56
-1089.13
-383.624
-1674.75
-1352.52
-1009.63
-641.259
-226.085
-1406.59
-1123.2
-819.798
-498.859
-151.393
-309.895
-223.778
-143.003
-71.2277
-7.7382
-651.27
-544.063
-410.377
-256.631
-87.7038
-1945.81
-1624.7
-1226.62
-768.853
-263.541
-3062.5
-2543.51
-1918.61
-1207.65
-416.901
-3368.57
-2775.85
-2088.62
-1319.37
-458.895
-2553.55
-2087.27
-1561.44
-983.277
-339.7
-733.41
-581.334
-423.644
-262.507
-89.3503
-1390.52
-878.705
-204.009
728.872
1031.6
1312.59
630.584
-10645.5
-1613.14
-3056.05
-1466.61
297.289
-3942.02
886.889
2524.07
1215.24
-5760.69
-2595.74
-381.426
-495.953
-3302.69
-1206.02
-207.93
-976.024
2221.75
1416.12
-468.838
-111.414
-7599.82
-3530.2
-4160.78
-1999.01
-3473.53
-3219.55
-1019.77
1439.49
-318.693
-668.238
-444.947
-401.044
-525.695
-624.835
-538.514
-343.999
-238.649
-185.916
-106.138
-167.767
-131.529
-98.0815
-64.3454
-23.485
659.348
559.191
424.838
265.114
90.0823
930.672
786.825
596.034
371.119
125.912
1184.24
1001.45
758.989
472.879
160.511
571.695
484.384
365.815
225.968
76.0048
-7674.82
-6930.88
-6331.83
-6526.27
-6938.63
-1032.9
-709.57
-871.342
-1048.08
-756.93
-2143.39
-1589.5
-1408.8
-1268.29
-802.035
-939.197
-624.314
-591.909
-547.353
-251.976
272.706
221.167
145.104
66.3274
11.9128
-3294.6
-2710.13
-2101.26
-1443.96
-587.838
802.265
671.263
494.958
295.487
95.0745
2197.98
1799.26
1333.42
823.339
279.343
1091.61
916.084
687.498
423.916
142.424
-4043.61
-3800.33
-3496.06
-3643.93
-3931.91
-1775.92
-1275.97
-1107.33
-966.237
-574.771
-294.207
-251.175
-244.363
-224.195
-114.051
-397.718
-321.617
-265.858
-202.573
-88.1151
-2758.35
-2239.82
-1734.8
-1184.32
-472.269
-1014.83
-827.673
-646.555
-443.368
-168.076
-155.49
-115.066
-89.2958
-67.0839
-29.0034
-843.844
-694.972
-531.201
-345.914
-124.153
1985.24
1661.59
1248.19
772.9
261.284
1276.5
1075.98
810.381
500.664
168.607
-391.891
-319.765
-253.026
-177.12
-69.287
-79.1694
-59.4924
-53.7196
-47.8378
-22.4081
-4635.11
-3257.88
-2911.8
-2970.64
-2984.09
-2562.23
-1917.24
-1476.56
-1101.05
-540.726
-2769.52
-2195.11
-1795.31
-1531.72
-824.33
-1473.58
-1141.66
-881.776
-659.345
-329.278
-2917.78
-2364.6
-1810.11
-1208.47
-459.374
-2219.65
-1455.34
-1219.68
-1036.44
-497.901
-867.314
-706.227
-540.081
-356.584
-130.723
1299.5
1097.74
829.043
513.701
173.431
-242.858
-188.951
-158.527
-126.87
-56.1222
0.222675
43.9723
105.451
141.421
109.308
5.52218
-18991.6
-16761.6
-16024.4
-18261.8
-13913.2
-11011.4
-12571.2
-9547.02
-16411
-14349.1
-15118.8
-14188.9
-13263.3
-11289.9
-13927.9
-15609.8
-13947.6
-12865.6
-14510.8
-11720.8
-9928.72
-10516.4
-8439.75
-14699.4
-13021.1
-13539.7
-12301.1
-11719.6
-10955.3
-11274.9
-12241.2
-11215.8
-10184.2
-11141.5
-9730.75
-8353.14
-8788.54
-7559.53
-12288.9
-11116.2
-11437.5
-10389.8
-9945.15
-9203.05
-9428.48
-8533.25
-8026.76
-7190.61
-7623.83
-7200.25
-6456.8
-6535.63
-5992.49
-8825.47
-8895.58
-8325.6
-8375.23
-7419.36
-6703.54
-7427.98
-5451.37
-5209.55
-4632.73
-4833.17
-4821.77
-4365.6
-4319.24
-3997.83
-5838.77
-5819.63
-5578.82
-5436
-5075.92
-4584.41
-4944.57
-1961.62
-1891.65
-1677.48
-1736.79
-1781.75
-1666.52
-1584.28
-1479.17
-2217.2
-2205.03
-2072.66
-1967.07
-1908.38
-1751.84
-1869.56
-7320.59
-7226.75
-10843.3
-11682.2
-6912.76
-6152.96
-9525.66
-7759.19
-5843.21
-4481.92
-5804.92
-4439.05
-5846.2
-5582.57
-4498.99
-7315.94
-6952.08
-9654.88
-10525.1
-6467.93
-5872.65
-8407.69
-7261.62
-5852.37
-4036.57
-5753.25
-4238.4
-5275.61
-5066.93
-4590.19
-6717.34
-6415.61
-8203.25
-8790.16
-6044.77
-5642.99
-7353.75
-6529.04
-4914.31
-4457.08
-4902.31
-4665.05
-4598.66
-4588.29
-4794.17
-5473.72
-5281.99
-6171.72
-6475.57
-5028.36
-4717.59
-5725.87
-5242.25
-4781.15
-4090.93
-4702.46
-4327.4
-4413.29
-4363.12
-4364.38
-3809.7
-3698.1
-4096.14
-4247.92
-3442.95
-3196.34
-3866.49
-3559.98
-3399.1
-3186.57
-3320.57
-3318.91
-3113.49
-3041.58
-3130.33
-1424.65
-1383.99
-1500.34
-1548.68
-1281.81
-1180.46
-1424.17
-1314.34
-1118.45
-1174.57
-1192.72
-1263.92
-1158.11
-1118.32
-1147.08
7014.44
22685.7
5555.16
23758.2
4185.52
24606.9
6646.84
38028.1
8174.47
52307.9
8091.86
38034.3
7777.16
31520.2
8093.33
27547.3
4902.57
3015.05
13124.9
7760.5
4819.14
2594.88
14412.3
7150.64
5311.78
3818.39
16811.1
11770.9
4019.84
2869.45
16893
12209.6
9475.58
3991.61
8155.8
3618.33
3725.03
8810.1
32968.3
8947.54
11785.6
4004.25
42559.9
11576.1
11077.9
3855.38
23488
7295.4
12038.6
4208.79
20370.4
6483.56
5473.42
2714.09
8200.55
3180
5977.38
3236.36
8165.64
3113.57
7642.41
4344.61
7027.45
3033.17
10488.7
3754.12
3613.26
1256.66
11834.4
8149.59
7350.94
5348.56
13403.3
11014.6
7332.34
6347.36
6902.09
4614.62
9647.45
6379.71
4863.73
3562
2492.37
2038.03
4743.23
4098.38
2481.02
2387.89
4629.76
3007.26
2389.18
1519.42
6123.34
3314.99
4546.57
5533.87
8312.68
5907.42
6533
9421.23
4076.99
1921.79
2692.74
3182.23
2036.55
840.146
1167.43
1180.55
7116.32
12864.2
4848.59
14388.4
8439.08
12620.2
6024.37
15118.9
9643.18
11470.2
7800.69
14835.6
11753.3
14254.9
8636.67
8259.81
9089.88
14218.1
12891.3
12446.7
12648.1
18367
11547.7
8700.6
7392.45
8254.42
13085.9
14861.4
13223.8
17247.7
16464.3
13580.3
12534.3
17054.8
16160.8
11771.6
11425
16046.6
15611
10342.7
8060.71
9391.7
8090.52
10131.9
8917.11
10782.4
10223.5
14856.4
15064
9680.69
8300.69
9050.57
8522.06
9203.75
9561.79
10297.8
11373
13465.2
15357.5
7937.96
6220.09
5478.01
7010.43
10900.2
13354.2
7583.06
12045.2
4579.31
6069.71
6786.52
5572.94
1295.56
4663.04
689.976
1680.81
3882.38
8123.41
1447.51
2825.23
567.058
3911.32
335.866
1370.99
4469.08
4547.42
5075.94
3111.3
7047.84
5598.77
8290.61
5652.69
993.858
2486.53
2509.13
1398.34
1413.69
1847.02
2014.95
1516.69
10461.5
6321.62
1978.4
11846
6765.81
2208.35
9999.75
6240.88
2093.17
11672.6
6768.04
2203.19
9205.22
5724.49
1873.65
11419.2
6815.77
2271.61
5187.44
2750.36
724.745
6498.8
4256.05
1481.83
7652.55
5275.61
1817.17
8786.01
5655.19
1871.32
11332.1
7021.2
2456.12
6207.5
3429.28
1067.67
6038.79
4324.88
1624.4
7083.42
5228.64
1909.98
8872.55
6206.52
2208.67
11449.6
7088.77
2503.77
299.877
1995.32
2817.24
4072.32
2127.65
2457.41
5359.29
5098.81
582.047
1028.21
620.504
1067.64
489.373
1416.14
872.571
1859.11
3224.46
1580.88
4078.26
2356.77
2183.97
3803.4
3383.64
974.948
5962.37
1489.33
-1815.12
785.841
1825.62
1381.88
1282.4
1212.6
9940.15
4679.45
2708.62
1723.19
10078.4
4876.19
3406
2181.01
9964.9
5257.48
4959.36
3561.07
3540.35
2595.19
1800.42
1737.68
12538.4
11171.4
5919.21
6157.61
13316.6
12517.1
6576.07
6646.23
5348.61
5523.75
10916.6
9173.32
3554.88
3719.28
2022.48
2278.65
4070.47
4048.9
2267.67
2418.67
3158.4
3399.89
1809.9
2189.31
4848.29
3504.88
4875.86
3597.94
7528.36
4646.77
7238.91
4979.86
2949.47
2536.17
3093.57
2332.65
1687.88
1607.15
1972.98
1368.98
11938.3
8623.5
6216.03
6530.14
11853.9
8784.22
6255.68
6498.79
12269.3
9035.66
6345.77
6299.09
13759.9
14643.9
12728.1
8707.54
5188.37
13883.4
13093.1
12416.1
10514.5
7171.73
13017.1
11948.5
9729.24
7689.54
5064.37
7615.81
7004.44
7287.79
8574.7
7764.39
6807.04
7322.78
8425.09
7957.26
6622.67
7336.5
8236.62
10486.8
7390.53
10008
7022.49
8110.97
6666.68
7820.82
6866.97
6773.17
8102.02
8702.63
7551.94
7871.31
6931.47
6915.75
6376.63
6343.22
6457.86
5374.6
7725.86
7033.84
4775.31
4678.98
2784.93
9015.21
6951.19
6283.56
5032.07
3924.71
2397.15
5699.15
4286.92
4743.32
2244.49
1752.97
1012.04
4949.27
3569.1
1745.77
1443.51
4179.77
1904.06
1657.75
884.598
3415.1
3247.77
3166.64
4740.77
4760.02
4646.07
4065.62
6117.46
3395.82
2291.24
2254.51
3181.5
1059.26
535.707
297.992
637.985
4908.94
2047.15
602.553
5751.23
1484.22
393.149
4909.08
2186.31
669.152
5699.53
1525.06
423.685
4493.34
2123.03
546.754
5552.39
1540.11
358.88
4524.52
2252.16
479.855
4265.77
2035.6
466.39
4371.54
2087.05
559.068
4512.43
2110.02
439.28
5492.8
1498.74
222.598
5791.67
2872.04
746.135
5412.61
2680
723.697
5109.05
2520.74
729.88
5044.08
2139.69
519.003
5931.28
1386.43
335.614
1860.21
673.104
129.143
-224.038
767.814
293.82
78.2249
-46.3337
1982.02
744.805
190.131
-138.835
984.364
415.108
197.563
92.358
2134.38
831.742
288.66
-10.658
1689.74
804.085
325.643
80.3689
1290.18
746.864
292.713
4.35601
1223.67
824.746
504.025
310.78
1776.36
800.243
256.391
-187.497
1532.08
679.216
302.22
-194.027
2103.46
823.54
265.291
-144.155
1911.69
750.881
299.154
-323.523
1428.94
750.599
314.703
-54.4105
1179.82
605.223
330.678
7.08502
1062.9
668.849
412.304
262.076
816.397
516.791
354.642
216.38
2394.52
817.373
124.972
-443.39
2402.92
758.213
173.374
-609.883
2394.05
831.456
149.991
-419.983
2325.69
737.61
183.285
-588.445
2351.21
836.921
229.777
-301.243
2169.84
699.289
228.562
-483.36
2060.22
774.789
321.34
-46.9026
2379.53
784.72
326.081
-566.129
1852.62
696.498
325.817
-132.956
1930.4
538.625
157.985
-417.614
775.267
196.658
45.0559
-88.5738
1978.15
571.404
178.705
-394.559
799.802
210.802
58.2216
-71.8279
2005.03
612.173
224.742
-346.691
809.943
228.668
76.5558
-52.409
1804.68
578.259
259.911
-274.181
783.019
236.282
105.179
-17.9549
1649.58
576.483
288.528
-159.859
696.223
249.194
144.678
29.7138
1157.01
471.183
234.323
-43.8589
653.623
328.901
205.844
112.649
1335.32
475.57
229.384
-112.901
658.58
283.932
175.272
71.4559
933.187
459.493
262.965
46.4891
589.475
349.858
230.928
152.775
660.701
420.788
295.72
189.956
495.497
351.954
255.352
198.172
-20.8069
8.64498
9.14223
6.62825
5.18523
-3.56091
5.71934
5.06149
3.58802