/*--------------------------------*- C++ -*----------------------------------*\
| =========                 |                                                 |
| \\      /  F ield         | OpenFOAM: The Open Source CFD Toolbox           |
|  \\    /   O peration     | Version:  2306                                  |
|   \\  /    A nd           | Website:  www.openfoam.com                      |
|    \\/     M anipulation  |                                                 |
\*---------------------------------------------------------------------------*/
FoamFile
{
    version     2.0;
    format      ascii;
    arch        "LSB;label=32;scalar=64";
    class       volVectorField;
    location    "2.3";
    object      flux;
}
// * * * * * * * * * * * * * * * * * * * * * * * * * * * * * * * * * * * * * //

dimensions      [0 1 -1 1 0 0 0];

internalField   nonuniform List<vector> 
5712
(
(-0.262617 0.464893 0.287222)
(-0.335652 0.268068 0.943913)
(-0.624229 0.753979 0.227844)
(-0.911064 0.494093 0.968023)
(-0.929183 0.822469 0.171255)
(-1.60423 0.608772 1.00184)
(-0.71491 1.2916 0.270722)
(-1.82145 1.60015 1.54637)
(-0.582585 1.69766 0.332778)
(-1.28001 2.07671 2.12668)
(-0.871054 1.09771 0.33007)
(-1.32473 0.953609 1.54781)
(-0.782016 0.697378 0.318156)
(-1.02475 0.552569 1.2839)
(-0.343768 0.34999 0.330644)
(-0.392886 0.236718 1.14675)
(-0.584735 0.781194 0.200064)
(-0.669647 0.799667 0.123313)
(-0.756715 0.672596 0.534752)
(-0.750418 0.790445 0.316738)
(-0.596112 1.05527 0.196256)
(-0.737106 0.942938 0.105705)
(-0.878888 1.21682 0.58629)
(-0.788992 0.985434 0.290954)
(-0.213189 0.328526 0.218211)
(-0.1598 0.236939 0.157511)
(-0.265258 0.184495 0.700017)
(-0.178013 0.137048 0.49091)
(-0.493858 0.393449 0.164991)
(-0.394026 0.320587 0.118104)
(-0.844046 0.238452 0.688624)
(-0.610313 0.192538 0.498753)
(-0.654371 0.712999 0.386803)
(-0.679621 0.741063 0.163527)
(-0.725428 0.729227 0.333569)
(-0.690199 0.617077 0.14836)
(-0.253112 0.569326 0.152994)
(-0.19896 0.443913 0.360155)
(-1.55058 0.445719 1.34167)
(-2.07597 0.505894 0.363945)
(-1.00148 0.718453 0.480086)
(-1.22971 0.714629 0.162855)
(-2.08734 1.5055 1.73035)
(-2.70821 1.55599 0.470325)
(-1.07981 1.06785 0.450443)
(-1.23613 1.0995 0.156354)
(-1.1485 0.607932 0.956817)
(-1.62271 0.512642 0.297112)
(-1.0018 0.662957 0.490821)
(-1.3283 0.472902 0.171497)
(-0.585384 0.308344 0.830688)
(-0.944565 0.316337 0.264314)
(-0.111909 0.251584 0.230204)
(-0.037687 0.348679 0.114135)
(-0.117948 0.13154 0.343331)
(-0.0424808 0.157607 0.133393)
(-0.338002 0.345127 0.248998)
(-0.1363 0.468656 0.134715)
(-0.464264 0.205241 0.335024)
(-0.170617 0.238522 0.12813)
(-0.329624 0.383191 0.317174)
(-0.126571 0.637859 0.180527)
(-0.351725 0.26521 0.288697)
(-0.112708 0.432169 0.124997)
(-0.600044 0.10124 0.428811)
(-0.190799 0.257312 0.153775)
(-0.7744 0.0842289 0.147658)
(-0.261106 0.192171 0.0514479)
(-0.950935 0.70583 0.484757)
(-0.471426 0.871365 0.334959)
(-0.870552 0.727051 0.300527)
(-0.516108 0.86695 0.219212)
(-0.893241 0.863964 0.54515)
(-0.577616 0.873 0.448274)
(-0.785517 0.878589 0.298134)
(-0.591472 0.860965 0.258021)
(-0.683236 0.617866 0.283538)
(-0.405679 0.836519 0.190639)
(-0.682812 0.63623 0.398047)
(-0.347273 0.826743 0.26484)
(-0.898087 0.715529 0.198468)
(-0.574932 0.860521 0.145651)
(-0.900011 0.714908 0.101308)
(-0.580461 0.858225 0.0830087)
(-0.829517 0.885058 0.192571)
(-0.626523 0.84939 0.166368)
(-0.839529 0.881592 0.100222)
(-0.629565 0.840983 0.0965803)
(-0.738117 0.570454 0.1897)
(-0.469044 0.839741 0.123871)
(-0.764573 0.550457 0.0975827)
(-0.480759 0.842555 0.0623907)
(-0.697327 0.693764 0.252477)
(-0.301394 0.811227 0.136967)
(-0.321558 0.876183 0.188462)
(-0.390815 1.21808 0.228335)
(-0.700229 0.73437 0.344209)
(-0.329257 0.934289 0.244777)
(-0.280025 0.867958 0.27191)
(-0.395286 1.31982 0.38973)
(-0.738627 0.658021 0.167563)
(-0.30022 0.715242 0.0791783)
(-0.364894 0.879951 0.111404)
(-0.394192 1.17266 0.13103)
(-0.775335 0.651122 0.0834794)
(-0.307588 0.66982 0.0345568)
(-0.397134 0.889545 0.0482572)
(-0.412125 1.16453 0.0486175)
(-0.145032 0.204272 0.300861)
(-0.158284 0.266039 0.540155)
(-0.0486268 0.52001 0.204537)
(-0.0946372 0.902481 0.603655)
(-0.425213 0.25441 0.353592)
(-0.449295 0.288382 0.529349)
(-0.163728 0.672137 0.25198)
(-0.289158 1.03062 0.633026)
(-0.544522 0.31852 0.402892)
(-0.605768 0.321434 0.480148)
(-0.26105 0.855692 0.325461)
(-0.443364 1.15732 0.619487)
(-0.490699 0.970805 0.482781)
(-0.0452684 1.04544 0.580213)
(-0.53957 0.818786 0.359351)
(-0.663174 0.788212 0.345019)
(-0.358681 1.13376 0.378536)
(-0.0317521 1.05369 0.579186)
(-0.299251 0.993041 0.530698)
(-0.483806 0.836459 0.517303)
(-0.778314 0.723408 0.528333)
(-0.536026 1.29198 0.764692)
(-0.391637 0.959632 0.470647)
(-0.474324 0.945475 0.358826)
(-0.41311 0.840206 0.308015)
(-0.355208 0.831319 0.344578)
(-0.556492 1.48248 0.54299)
(-0.139795 0.0795828 0.624053)
(-0.115601 0.0953298 0.555793)
(-0.0797281 0.16942 0.724401)
(-0.0791596 0.381518 0.694307)
(-0.394613 0.113321 0.571403)
(-0.334009 0.127687 0.528349)
(-0.236645 0.235533 0.716146)
(-0.225281 0.430558 0.680414)
(-0.493405 0.169941 0.494859)
(-0.419703 0.143713 0.481401)
(-0.309175 0.322152 0.672669)
(-0.277672 0.497915 0.65644)
(-0.23483 1.04615 0.422055)
(-0.298268 1.0389 0.330009)
(-0.483775 0.941845 0.388537)
(-0.500663 0.931599 0.336599)
(-0.558249 0.803842 0.421907)
(-0.508261 0.741052 0.374325)
(-0.629218 0.607434 0.451426)
(-0.548847 0.539518 0.430679)
(-0.422776 0.425782 0.620972)
(-0.355678 0.587577 0.632631)
(-0.361051 0.951104 0.394776)
(-0.382028 0.922872 0.340223)
(-0.476051 0.956518 0.373275)
(-0.378708 0.9451 0.355186)
(-0.432899 0.829123 0.382487)
(-0.31796 0.780082 0.401499)
(-0.373939 0.683615 0.429261)
(-0.260142 0.614281 0.478144)
(-0.433699 0.454769 0.560484)
(-0.285279 0.595743 0.643866)
(-0.408421 0.945568 0.325153)
(-0.194325 1.0661 0.255073)
(-0.350029 0.9422 0.223817)
(-0.381111 1.09128 0.285559)
(-0.501131 0.915949 0.442625)
(-0.655685 0.950571 0.540555)
(-0.551088 0.893298 0.307427)
(-0.803456 0.955816 0.487176)
(-0.278054 0.857399 0.188504)
(-0.310548 0.872839 0.248758)
(-0.361418 0.85062 0.280099)
(-0.119738 0.847943 0.23052)
(-0.311706 0.934461 0.0537056)
(-0.602093 1.09545 0.189766)
(-0.295579 0.929828 0.0282701)
(-0.644928 1.09402 0.0683654)
(-0.545479 0.866685 0.157272)
(-0.991408 0.966813 0.328052)
(-0.554935 0.859152 0.0584279)
(-1.05149 0.964139 0.113979)
(-0.235031 0.860689 0.0247386)
(-0.516301 0.870888 0.160127)
(-0.213333 0.860251 0.0142502)
(-0.549639 0.870182 0.0561897)
(-0.32421 0.719889 0.184664)
(-0.246905 0.684638 0.187729)
(-0.449913 0.463527 0.209812)
(-0.179735 0.514484 0.129624)
(-0.334852 0.714621 0.291752)
(-0.0708482 0.666154 0.23268)
(-0.392954 0.456171 0.343144)
(-0.0342541 0.515017 0.235492)
(-0.311116 0.730208 0.0423337)
(-0.368435 0.682952 0.102778)
(-0.471169 0.473819 0.103969)
(-0.218522 0.517287 0.0586525)
(-0.257027 0.733199 0.0583074)
(-0.433889 0.676156 0.0758313)
(-0.416635 0.488633 0.0827025)
(-0.286263 0.517924 0.0623865)
(-0.0924888 0.0654683 0.441177)
(-0.081881 0.0449792 0.267338)
(-0.0737793 0.0315749 0.0838246)
(-0.0663299 0.0383637 0.499956)
(-0.0611147 0.0268828 0.286113)
(-0.0549786 0.0251644 0.0935219)
(-0.274442 0.0907945 0.423042)
(-0.227048 0.0554309 0.264533)
(-0.197863 0.0424535 0.0889964)
(-0.175523 0.0760301 0.492608)
(-0.142533 0.061822 0.286571)
(-0.124515 0.0538095 0.0934519)
(-0.338059 0.106617 0.3893)
(-0.293591 0.0905561 0.242792)
(-0.272098 0.0916033 0.0796301)
(-0.211597 0.134102 0.481303)
(-0.174271 0.11092 0.288293)
(-0.165384 0.100236 0.0961909)
(-0.263661 1.00034 0.214208)
(-0.235127 0.911218 0.114938)
(-0.230021 0.847563 0.0307516)
(-0.438155 0.918443 0.271641)
(-0.33646 0.858349 0.178384)
(-0.284783 0.8086 0.062014)
(-0.410796 0.65789 0.322112)
(-0.306839 0.615758 0.222067)
(-0.250534 0.592784 0.0765164)
(-0.4317 0.44477 0.371258)
(-0.343811 0.38999 0.239644)
(-0.300338 0.367006 0.0794269)
(-0.265456 0.204116 0.477167)
(-0.17687 0.15266 0.296592)
(-0.138912 0.130261 0.103713)
(-0.630536 0.902955 0.255261)
(-0.549802 0.84368 0.142425)
(-0.478848 0.791064 0.0448256)
(-0.403501 0.924099 0.254248)
(-0.338685 0.849895 0.182537)
(-0.283507 0.790499 0.0687067)
(-0.35639 0.682587 0.3002)
(-0.279811 0.592768 0.221623)
(-0.225545 0.541414 0.0811752)
(-0.29764 0.444092 0.3755)
(-0.217271 0.359842 0.263068)
(-0.168778 0.325589 0.0938494)
(-0.303457 0.217352 0.482402)
(-0.170426 0.15216 0.299877)
(-0.0973497 0.123015 0.106162)
(-0.412237 1.07262 0.0119319)
(-0.559097 1.05191 0.080238)
(-0.325584 1.16658 0.113341)
(-0.421381 1.04894 0.163812)
(-0.442354 1.20041 0.086449)
(-0.650643 1.04944 0.0994933)
(-0.394773 1.4471 0.217378)
(-0.575659 1.10346 0.206471)
(-0.0018249 0.832911 0.0240675)
(-0.0293778 0.84812 0.0415006)
(0.0200238 0.821849 0.0256998)
(-0.00410292 0.764158 0.0432351)
(-0.118409 0.934513 0.0195257)
(-0.1343 0.882531 0.0567387)
(-0.0489197 0.916503 0.0348478)
(-0.0263283 0.784553 0.0744368)
(-0.0275271 0.906968 0.12907)
(-0.0961263 0.901977 0.0631546)
(-0.374468 0.836722 0.163245)
(-0.547414 0.896982 0.0943391)
(-0.265773 1.11841 0.0871321)
(-0.145192 1.00193 0.152038)
(-0.392954 1.10357 0.135965)
(-0.389988 1.11976 0.0382446)
(-0.604204 1.19684 0.24151)
(-0.665418 1.237 0.0596727)
(0.0241213 0.919216 -0.0750252)
(0.163867 0.953364 0.0301078)
(-0.301251 0.823875 0.0721659)
(-0.284056 0.799451 0.0543289)
(-0.285032 1.0026 0.0504203)
(-0.21992 1.02781 0.0471844)
(-0.0410882 0.655339 0.395077)
(-0.02194 0.350252 0.183396)
(-0.0264087 0.611415 0.108081)
(-0.0105018 0.388189 0.0678555)
(-0.079762 0.664815 0.401298)
(-0.00872441 0.353376 0.190782)
(0.014107 0.609278 0.135837)
(0.0342336 0.385557 0.0857607)
(-0.36869 0.656379 0.39629)
(-0.0967399 0.355386 0.20552)
(-0.248647 0.60806 0.197378)
(-0.0653545 0.40205 0.140155)
(-0.35911 0.590878 0.141397)
(-0.109915 0.420775 0.102836)
(-0.434762 0.597717 0.0708953)
(-0.140714 0.417306 0.0682176)
(-0.350841 0.843605 0.50359)
(-0.475524 0.723795 0.448159)
(-0.324775 0.837136 0.237453)
(-0.464182 0.721717 0.246716)
(-0.562027 0.930072 0.538291)
(-0.596369 0.841963 0.505579)
(-0.536784 0.93765 0.26577)
(-0.565257 0.832495 0.268268)
(-0.225926 0.820818 0.212859)
(-0.37816 0.604013 0.219461)
(-0.260551 0.858051 0.435704)
(-0.375432 0.59702 0.365104)
(-0.344702 0.854538 0.142213)
(-0.447453 0.717633 0.148834)
(-0.380352 0.864751 0.0802834)
(-0.452407 0.709285 0.0908914)
(-0.559351 0.960542 0.164195)
(-0.555509 0.824922 0.163252)
(-0.585827 0.960595 0.090889)
(-0.558167 0.814035 0.097165)
(-0.228135 0.811743 0.125212)
(-0.366296 0.605291 0.134947)
(-0.248324 0.808853 0.0710708)
(-0.373436 0.601426 0.0867736)
(0.00274324 0.538782 0.19145)
(-0.0573874 0.356752 0.136305)
(-0.301004 0.478388 0.191794)
(-0.193146 0.301978 0.138949)
(0.0255895 0.503005 0.297603)
(-0.0407026 0.319378 0.179966)
(-0.278887 0.460344 0.285053)
(-0.170962 0.281831 0.192146)
(-0.0154576 0.551438 0.116032)
(-0.0674782 0.379335 0.0988538)
(-0.308028 0.485736 0.121665)
(-0.210351 0.311277 0.0900591)
(-0.0337687 0.55186 0.0657463)
(-0.0784406 0.393333 0.0624544)
(-0.310096 0.484357 0.0776387)
(-0.218184 0.313475 0.0529941)
(0.0274401 0.101726 0.470646)
(0.0317338 0.0523729 0.333562)
(-0.0070056 0.183627 0.241333)
(-0.00112856 0.0939126 0.249104)
(0.116359 0.108921 0.468681)
(0.11817 0.0651671 0.340964)
(0.00782131 0.195999 0.242809)
(0.0140131 0.114514 0.247922)
(0.0227122 0.134964 0.485804)
(0.0789122 0.1001 0.352954)
(-0.0699173 0.218 0.246293)
(-0.0441565 0.153561 0.240742)
(0.410185 0.527331 0.552496)
(0.380781 0.813981 0.591969)
(0.222805 0.379799 0.507804)
(0.170064 0.363928 0.343955)
(0.0154721 0.253927 0.200469)
(0.417962 0.798949 0.560935)
(0.432382 0.558855 0.524304)
(0.173333 0.328183 0.492533)
(0.255785 0.329482 0.412574)
(0.0309181 0.207885 0.274411)
(-0.407019 0.828648 0.526048)
(-0.321181 0.654973 0.479392)
(-0.288361 0.522136 0.387121)
(-0.273515 0.406016 0.302458)
(-0.170552 0.246362 0.194499)
(0.0327226 0.0273194 0.288637)
(0.0307365 0.0208591 0.260793)
(0.000911582 0.0495829 0.272979)
(-0.00355299 0.0346584 0.31652)
(0.103463 0.0402315 0.296246)
(0.103117 0.0278998 0.255168)
(0.00256963 0.0746015 0.275109)
(-0.00793759 0.0585403 0.311803)
(0.103973 0.0719736 0.306641)
(0.127985 0.0573085 0.251327)
(-0.030856 0.113485 0.276945)
(-0.0451427 0.0918629 0.306507)
(0.205507 0.814443 0.423383)
(0.0945333 0.795019 0.298462)
(0.328267 0.55544 0.399689)
(0.207643 0.538701 0.279187)
(0.146638 0.362564 0.319581)
(0.112488 0.371507 0.260507)
(0.165273 0.305119 0.304001)
(0.144996 0.286199 0.263693)
(-0.0218707 0.176995 0.256489)
(-0.0615426 0.145363 0.302877)
(-0.149919 0.762179 0.351558)
(-0.094772 0.699322 0.304968)
(-0.0412837 0.59435 0.314576)
(0.0417083 0.528513 0.275814)
(-0.0417325 0.464952 0.272755)
(0.0302128 0.42003 0.249533)
(-0.0725602 0.353339 0.245874)
(-0.0182679 0.325893 0.247474)
(-0.0914365 0.217789 0.202712)
(-0.105186 0.221116 0.288443)
(-0.21003 0.607055 0.281217)
(-0.19274 0.498605 0.190337)
(-0.399159 0.609534 0.187066)
(-0.24147 0.485074 0.111318)
(-0.324022 0.725445 0.363866)
(-0.327448 0.607864 0.280391)
(-0.49206 0.722275 0.253399)
(-0.399408 0.597191 0.203268)
(-0.318178 0.513399 0.154954)
(-0.188917 0.423938 0.0936122)
(-0.159805 0.49892 0.224842)
(-0.159522 0.426792 0.167509)
(-0.470387 0.608896 0.189567)
(-0.208524 0.47659 0.0895051)
(-0.517466 0.604917 0.0698238)
(-0.233822 0.475588 0.0402374)
(-0.548792 0.71868 0.199153)
(-0.407624 0.607286 0.14376)
(-0.585711 0.711432 0.0699955)
(-0.436742 0.605087 0.0579283)
(-0.38543 0.52211 0.16568)
(-0.154407 0.416557 0.0745567)
(-0.431723 0.521116 0.0655669)
(-0.178801 0.422076 0.0347283)
(-0.256243 0.400289 0.132093)
(-0.206212 0.345981 0.123556)
(-0.203929 0.258967 0.119624)
(-0.302827 0.280864 0.177313)
(-0.167326 0.386269 0.183911)
(-0.18986 0.339406 0.176744)
(-0.174939 0.246679 0.152944)
(-0.280874 0.266749 0.227822)
(-0.295066 0.417181 0.132804)
(-0.204514 0.352516 0.0877766)
(-0.23013 0.265575 0.0860797)
(-0.347421 0.297903 0.119799)
(-0.357298 0.427325 0.0408439)
(-0.222327 0.352595 0.0201755)
(-0.285947 0.276374 0.0102971)
(-0.358951 0.302318 0.0232316)
(0.0319556 0.0779745 0.181554)
(0.034584 0.069038 0.0756557)
(0.0390924 0.0573514 0.0222885)
(0.000577366 0.341691 0.210892)
(0.0120621 0.182533 0.0543726)
(0.013657 0.149381 0.0144442)
(0.116724 0.0753617 0.182953)
(0.125285 0.0749418 0.0814318)
(0.125739 0.0667915 0.0249711)
(0.00813623 0.368941 0.210016)
(0.0346125 0.215246 0.0564452)
(0.0350082 0.182811 0.0157237)
(0.147178 0.102942 0.169382)
(0.166167 0.116375 0.0799853)
(0.171343 0.119785 0.0206323)
(-0.0262707 0.405184 0.205673)
(0.0334693 0.268594 0.0572574)
(0.0458394 0.239955 0.0133786)
(0.0515889 0.757253 0.183356)
(0.0443731 0.715022 0.0920078)
(0.0323329 0.68293 0.0200481)
(0.15496 0.524859 0.169267)
(0.159329 0.514695 0.0810451)
(0.149157 0.507232 0.0187813)
(0.127047 0.387887 0.169842)
(0.144925 0.387702 0.0810604)
(0.143097 0.389505 0.0217825)
(0.157196 0.338114 0.17202)
(0.170982 0.330309 0.0803911)
(0.167635 0.323721 0.0168414)
(-0.0582871 0.458832 0.20444)
(0.0146072 0.330955 0.0560448)
(0.0203739 0.300209 0.0083289)
(-0.137522 0.644462 0.233564)
(-0.0778843 0.60099 0.116488)
(-0.040666 0.570519 0.0306576)
(0.0425824 0.487125 0.214373)
(0.0895171 0.459368 0.106146)
(0.114614 0.442937 0.0287873)
(0.040346 0.411378 0.19878)
(0.100988 0.386849 0.0979776)
(0.12751 0.371995 0.0283979)
(0.0170268 0.402229 0.192487)
(0.0832549 0.360635 0.0818628)
(0.102449 0.335577 0.0199591)
(-0.098994 0.556914 0.221272)
(0.0209779 0.373204 0.0522113)
(0.0353675 0.336784 0.0127011)
(0.00107636 0.190687 0.0723088)
(0.00165075 0.120665 0.0260786)
(0.00219869 0.0886052 0.00512757)
(0.00334904 0.0788697 -0.00827341)
(0.0109201 0.216254 0.030095)
(0.00630913 0.132019 0.0114734)
(0.00533943 0.0938433 0.00311404)
(0.00527258 0.0807468 -0.00165806)
(0.000210261 0.191477 0.0766983)
(0.00324302 0.120356 0.0286499)
(0.00766479 0.0887473 0.00737172)
(0.0120469 0.0794788 -0.00509407)
(0.017759 0.221051 0.0382627)
(0.0116514 0.134769 0.0159899)
(0.0132264 0.0956142 0.00768957)
(0.0144744 0.0815413 0.00359009)
(-0.00947857 0.190458 0.082514)
(0.00129164 0.118615 0.031954)
(0.0109337 0.0884593 0.0112132)
(0.0214275 0.0787606 -0.000199215)
(0.00648027 0.225399 0.0656825)
(0.00957556 0.136302 0.0309059)
(0.0125597 0.0972867 0.0121935)
(0.0144921 0.0810279 0.00282775)
(0.00152283 0.243393 0.0502305)
(0.00579468 0.144925 0.0286366)
(0.00613462 0.100054 0.0105244)
(0.00609857 0.0849057 -0.000319949)
(-0.00876569 0.250976 0.0474147)
(-0.000194615 0.15086 0.0314362)
(0.0050889 0.103597 0.0186436)
(0.00872933 0.0884237 0.0112152)
(-0.0391077 0.203532 0.0686031)
(-0.00795927 0.12657 0.0306613)
(0.00435677 0.0918807 0.00950236)
(0.0132129 0.0795492 -0.00730597)
(-0.0613023 0.162046 0.0589022)
(-0.0142176 0.108637 0.0259657)
(0.000450953 0.083228 0.0114347)
(0.0226076 0.0764682 -0.00739)
(-0.0273503 0.176563 0.0810272)
(-0.0032979 0.113441 0.0315704)
(0.00772627 0.0850673 0.0101865)
(0.0192798 0.0736165 -0.00535173)
(-0.0504546 0.147751 0.0734549)
(-0.0108047 0.101758 0.0287627)
(-0.000318654 0.0796328 0.0114707)
(0.0198074 0.0732209 -0.0121776)
(-0.0416079 0.221544 0.0552111)
(-0.00954792 0.136458 0.028682)
(0.00540816 0.0967737 0.0116439)
(0.0165988 0.0834869 -0.00230247)
(-0.0687133 0.170532 0.0453646)
(-0.0169325 0.11366 0.0230638)
(0.000372303 0.085548 0.012435)
(0.0265643 0.0790593 0.000127161)
(-0.0464594 0.231673 0.0410259)
(-0.0127256 0.143141 0.0254465)
(0.00492254 0.100192 0.0153335)
(0.019729 0.0862039 0.00953357)
(-0.0740439 0.174144 0.0314146)
(-0.0194156 0.117223 0.0196165)
(-0.000522208 0.0874195 0.0132468)
(0.027785 0.0804263 0.00789608)
(0.000265823 0.14037 0.0922538)
(0.00096144 0.101799 0.0314369)
(0.00190932 0.0798704 0.00499373)
(0.00419851 0.0746092 -0.0164172)
(0.00146259 0.0843958 0.0916909)
(0.00131596 0.0789331 0.0289887)
(0.00116551 0.0691565 0.00714615)
(0.00384788 0.0700573 -0.0224359)
(0.00269319 0.140466 0.0922236)
(0.00329564 0.101069 0.0319435)
(0.00588231 0.079625 0.00587094)
(0.0113291 0.074376 -0.015617)
(0.00656727 0.0885932 0.0888786)
(0.00446892 0.0800579 0.0282318)
(0.0035989 0.0695666 0.00749189)
(0.0104054 0.0704468 -0.0217396)
(-0.016941 0.143665 0.090563)
(-0.00200571 0.100682 0.0321365)
(0.00649266 0.0797404 0.0090414)
(0.0193723 0.0745539 -0.0110896)
(-0.00790217 0.101947 0.0830018)
(0.00120715 0.083965 0.0267676)
(0.00480283 0.0710987 0.0093072)
(0.018385 0.0722263 -0.0177748)
(-0.00371614 0.140859 0.0794693)
(0.00494913 0.0974378 0.0297849)
(0.009572 0.0777927 0.0126043)
(0.0193506 0.0758679 -0.00144156)
(-0.00119089 0.11328 0.0910689)
(0.00396599 0.0865646 0.0300408)
(0.00412905 0.0729369 0.0132022)
(0.0185525 0.0715866 -0.0207759)
(-0.043539 0.128529 0.0712064)
(-0.00825969 0.0937133 0.026725)
(0.00131515 0.075505 0.0127042)
(0.0258852 0.0720485 -0.0049039)
(0.00342949 0.0260257 0.0729442)
(0.00185657 0.0601452 0.0204689)
(0.00138909 0.0538089 0.00645646)
(0.00291195 0.0161486 -0.0152078)
(0.00665207 -0.0414771 0.0291064)
(0.00272046 0.0495046 0.00744704)
(0.00145521 0.0473518 0.00177662)
(0.00135535 0.0173533 -0.00317277)
(0.00694824 0.0361029 0.0753063)
(0.00441002 0.0634413 0.0218784)
(0.00308537 0.055083 0.00725488)
(0.00750895 0.0170843 -0.0144788)
(0.0169398 -0.0285528 0.0303109)
(0.0072301 0.0532147 0.00806206)
(0.00367739 0.0484779 0.0022984)
(0.00348977 0.0177382 -0.00258403)
(0.00380075 0.0549314 0.0766035)
(0.00489809 0.0692564 0.0234786)
(0.00430611 0.0571093 0.00904609)
(0.012368 0.017036 -0.0126835)
(0.0212861 -0.00679535 0.0308324)
(0.0101588 0.0594454 0.008767)
(0.00555273 0.0501801 0.00299369)
(0.00550847 0.0179636 -0.00185759)
(-0.00444213 0.0777685 0.0690784)
(0.00444732 0.0760849 0.0221884)
(0.00543528 0.0598767 0.0104559)
(0.0171963 0.0185473 -0.0099786)
(0.016402 0.0159936 0.0299229)
(0.0109695 0.0662642 0.00907467)
(0.00661776 0.0525485 0.00412757)
(0.00701613 0.0187623 -0.000562849)
(-0.0230364 0.0923643 0.0632833)
(0.000555934 0.0822028 0.0221374)
(0.00295852 0.0632768 0.0114598)
(0.0165433 0.0217886 -0.00576543)
(0.00423536 0.0210143 0.0267686)
(0.00945621 0.071264 0.00959957)
(0.00615247 0.0547304 0.00566417)
(0.00721018 0.019456 0.00120815)
(-0.0506057 0.0985429 0.0443005)
(-0.00501954 0.0887173 0.0180008)
(0.00246622 0.0648903 0.00885944)
(0.0191501 0.0206219 -0.00171078)
(-0.0164628 0.00560307 0.0252527)
(0.00239566 0.0761599 0.0126296)
(0.00397019 0.0586959 0.00776303)
(0.00675176 0.0206567 0.00414938)
(-0.0393005 0.0961273 0.0510967)
(-0.00146822 0.0858301 0.0182103)
(0.00291976 0.0636701 0.00891029)
(0.0178538 0.0206482 -0.00415689)
(-0.0100722 0.00447186 0.0254379)
(0.00554753 0.0738747 0.0109459)
(0.0052551 0.0567116 0.00672904)
(0.00729724 0.019946 0.00269809)
(-0.0610424 0.0990227 0.035781)
(-0.009426 0.090764 0.0174987)
(0.000993734 0.0660155 0.00980559)
(0.0207809 0.0191505 0.00158492)
(-0.0222687 0.00255986 0.0227386)
(-0.000733879 0.078157 0.0133539)
(0.00261075 0.0600999 0.00859368)
(0.00631967 0.0207954 0.00556886)
(-0.0688994 0.101271 0.0253807)
(-0.013836 0.0929747 0.0159568)
(-0.00108013 0.0679245 0.0110013)
(0.0205165 0.0196128 0.00690238)
(-0.027671 0.00676873 0.0190712)
(-0.00416768 0.0804636 0.0133476)
(0.000807031 0.0618014 0.00947161)
(0.00546403 0.0213392 0.00722031)
(0.0014863 0.0751047 -0.000743873)
(0.000665384 0.058368 0.000321446)
(0.000348263 0.0407842 0.000328741)
(0.0002079 0.0239659 0.000232183)
(0.000152068 0.00789392 0.000178002)
(0.00196006 0.0742407 -0.000111187)
(0.00102289 0.0582475 0.000216732)
(0.000572859 0.040814 0.000185441)
(0.000351336 0.0239972 0.00012831)
(0.000258961 0.00790477 9.83845e-05)
(0.00354931 0.0760205 0.000386855)
(0.00154956 0.0588244 0.000921977)
(0.000809067 0.04101 0.000670713)
(0.000485626 0.024072 0.000445178)
(0.000358011 0.007925 0.000335912)
(0.00444442 0.0753461 0.00111253)
(0.00229438 0.0588319 0.000899329)
(0.00128683 0.0411169 0.000580709)
(0.000793517 0.0241428 0.000374792)
(0.000587071 0.00794794 0.000280775)
(0.00470752 0.0777435 0.00162945)
(0.00194138 0.0594778 0.00165628)
(0.001001 0.0413039 0.00110593)
(0.00060031 0.0242065 0.00072328)
(0.000443813 0.00796418 0.000544546)
(0.00598522 0.0767085 0.00455334)
(0.00304593 0.0595333 0.0030522)
(0.00171275 0.0414752 0.00188573)
(0.00106232 0.0243154 0.00120655)
(0.000788908 0.00799956 0.000901978)
(0.00314481 0.0779113 0.00548207)
(0.00156213 0.0603405 0.00360658)
(0.000874638 0.0419503 0.00222599)
(0.000543549 0.024558 0.00142727)
(0.000403957 0.00807371 0.00107008)
(0.00222602 0.0797517 0.00797589)
(0.000914171 0.0615096 0.00477971)
(0.000468524 0.0426311 0.00286538)
(0.000282942 0.0249054 0.00182069)
(0.000208223 0.00817991 0.0013629)
(0.00474033 0.0795207 0.00288658)
(0.00198913 0.0602664 0.00242437)
(0.00104537 0.0417288 0.00156415)
(0.000634643 0.0244168 0.00101389)
(0.000467815 0.00802786 0.000758791)
(0.00226111 0.084941 0.00308863)
(0.000813657 0.0612421 0.00228668)
(0.00040277 0.0420076 0.00144278)
(0.000239275 0.0245216 0.00093295)
(0.000175042 0.00805675 0.000698579)
(0.00499295 0.0798967 0.00198283)
(0.00231408 0.0600643 0.0019414)
(0.00127237 0.0415232 0.00127638)
(0.000784336 0.0242995 0.0008347)
(0.000581713 0.00799058 0.00062772)
(0.00213415 0.0848222 0.00365099)
(0.000809415 0.0608918 0.00237043)
(0.000413033 0.04178 0.00144526)
(0.000247366 0.0244028 0.000927858)
(0.000180779 0.0080198 0.000692649)
(0.00364554 0.0802686 0.00377071)
(0.00129877 0.060978 0.00289698)
(0.000632474 0.0421551 0.0018462)
(0.000374601 0.0246359 0.00119442)
(0.000274436 0.00809519 0.000896185)
(0.00214191 0.0864827 0.00414469)
(0.00072681 0.0619325 0.0027381)
(0.000352743 0.0423957 0.00169022)
(0.000209469 0.0247194 0.00108627)
(0.000153594 0.00811762 0.000813645)
(0.00315941 0.0820613 0.00634016)
(0.000831686 0.0621114 0.00385112)
(0.000325955 0.0427956 0.00231432)
(0.000176233 0.02496 0.00147166)
(0.000124454 0.0081943 0.00110116)
(0.00174464 0.0883876 0.00529796)
(0.000392775 0.0629428 0.00317965)
(0.000140316 0.0429503 0.00190777)
(7.2796e-05 0.0249996 0.00121304)
(5.04562e-05 0.00820363 0.000906192)
(0.00123845 0.077224 -0.00137193)
(0.000501833 0.0586625 0.000164884)
(0.000252993 0.0407824 0.000243858)
(0.000147895 0.0239408 0.000178323)
(0.00010722 0.00788441 0.000137812)
(0.000893708 0.0812598 -0.000749314)
(0.000397815 0.05899 5.22533e-05)
(0.000209709 0.0407913 9.56416e-05)
(0.000124301 0.0239262 7.13151e-05)
(9.04283e-05 0.00787867 5.58428e-05)
(0.00302468 0.0780811 -0.000629951)
(0.00126063 0.0590222 0.000541725)
(0.000651938 0.0409503 0.000455302)
(0.000386724 0.0240177 0.000309802)
(0.000282965 0.00790657 0.000236156)
(0.00230793 0.0819374 -0.000484326)
(0.00104881 0.0592604 0.000185766)
(0.000562644 0.0409193 0.000169292)
(0.000336711 0.0239853 0.000116365)
(0.000245955 0.00789579 8.96329e-05)
(0.00424384 0.0798216 0.000306211)
(0.00155464 0.0596259 0.000980147)
(0.000770928 0.0412152 0.000696075)
(0.000450752 0.0241383 0.00046143)
(0.000328853 0.0079414 0.000350901)
(0.00313615 0.0834302 0.000516623)
(0.0014471 0.0597525 0.000629193)
(0.000784871 0.0411475 0.000407744)
(0.000471418 0.0240912 0.000261496)
(0.000346757 0.00792647 0.000197923)
(0.00382761 0.0826956 0.00238181)
(0.00177938 0.0603236 0.00191514)
(0.000983593 0.041484 0.00121149)
(0.000603603 0.0242568 0.000787145)
(0.000448095 0.00797531 0.000594876)
(0.00213586 0.085219 0.00158821)
(0.00110292 0.0602827 0.00120958)
(0.000618626 0.0414088 0.000748084)
(0.000376309 0.0242141 0.000482122)
(0.000279549 0.00796173 0.000364431)
(0.00198776 0.0854352 0.00441335)
(0.00097893 0.0606835 0.00251265)
(0.000553668 0.0416367 0.00148378)
(0.000343508 0.0243275 0.000942161)
(0.000255136 0.00799604 0.000703307)
(-0.0135217 0.37585 0.0643833)
(-0.018348 0.576506 0.147223)
(-0.0304592 0.394958 0.0648851)
(-0.0449237 0.588757 0.145636)
(-0.0318343 0.42334 0.0707322)
(-0.0562357 0.605005 0.144371)
(-0.011121 0.443443 0.0842915)
(-0.0457671 0.616037 0.15021)
(0.0146549 0.427252 0.0880852)
(-0.00871377 0.594173 0.155118)
(-0.0292294 0.398641 0.0353462)
(-0.0487117 0.448604 0.0549707)
(0.00721067 0.398101 0.058099)
(0.00412019 0.468399 0.0928045)
(-0.045401 0.401477 0.0187831)
(-0.0717338 0.445724 0.0268737)
(-0.0573111 0.408755 0.00669364)
(-0.0817862 0.451618 0.00896398)
(-0.0243459 0.33213 0.336208)
(-0.00564547 0.0567912 0.0802253)
(-0.00127022 0.0121114 0.0183665)
(-0.000280246 0.00271112 0.00409769)
(-7.02039e-05 0.000479313 0.00101668)
(-0.00832753 0.36914 0.0915554)
(-0.00368888 0.104957 0.0246389)
(-0.000524136 0.0254431 0.00654868)
(-0.000137982 0.005762 0.00148771)
(-5.95288e-05 0.00101837 0.000322907)
(-0.0747892 0.336046 0.332663)
(-0.0172651 0.0564129 0.0787267)
(-0.00389793 0.0119408 0.0180046)
(-0.000855739 0.00266238 0.003983)
(-0.000214647 0.000469385 0.000995476)
(-0.0199383 0.372968 0.0931633)
(-0.00532836 0.104644 0.0274739)
(-0.00128685 0.0252647 0.00676604)
(-0.000270013 0.00569358 0.00157159)
(-7.23059e-05 0.000997552 0.000389851)
(-0.125759 0.340142 0.318391)
(-0.0290925 0.0562992 0.0748118)
(-0.00658514 0.011812 0.0170424)
(-0.00145028 0.00262158 0.00376481)
(-0.000362957 0.000461151 0.00094195)
(-0.0315543 0.376536 0.0904273)
(-0.00899911 0.104462 0.0265737)
(-0.00216987 0.0250767 0.00652728)
(-0.000500708 0.00562903 0.0015086)
(-0.000125297 0.000984638 0.000375574)
(-0.168971 0.338297 0.29253)
(-0.0392042 0.054781 0.0681122)
(-0.00890922 0.0113871 0.0154665)
(-0.00196782 0.00252026 0.00341325)
(-0.000493008 0.000442966 0.000854133)
(-0.0366145 0.373384 0.0879384)
(-0.011292 0.102587 0.0253039)
(-0.00281135 0.02453 0.00613462)
(-0.000656367 0.0054958 0.00140523)
(-0.000163967 0.000960199 0.000347937)
(-0.211435 0.322153 0.245875)
(-0.0495414 0.0508503 0.0569455)
(-0.0113352 0.0105456 0.0129356)
(-0.00251594 0.00234067 0.00285825)
(-0.000632885 0.000412274 0.000716071)
(-0.0402549 0.354885 0.0832472)
(-0.0136685 0.0976614 0.0233042)
(-0.00350567 0.023424 0.0055875)
(-0.000829593 0.00526211 0.00127176)
(-0.000209707 0.00092064 0.000313921)
(-0.251316 0.288766 0.117082)
(-0.060707 0.0473948 0.0283524)
(-0.0140815 0.0101483 0.00654954)
(-0.0031515 0.00228891 0.00145742)
(-0.000796161 0.000406197 0.000365622)
(-0.0617622 0.295468 0.0406468)
(-0.0189011 0.0852546 0.0115605)
(-0.0046639 0.0209841 0.00274911)
(-0.00106987 0.00479079 0.000614741)
(-0.000267538 0.000846031 0.000151354)
(-0.23367 0.298304 0.173982)
(-0.0562365 0.0481723 0.0415394)
(-0.0129872 0.0101928 0.0095225)
(-0.00289469 0.00228454 0.00210883)
(-0.000729035 0.000404118 0.000528256)
(-0.0482268 0.312123 0.0598157)
(-0.0160567 0.0898894 0.0167936)
(-0.00408024 0.021931 0.00402816)
(-0.000954246 0.00496759 0.000916255)
(-0.000238896 0.000872661 0.000227672)
(-0.259479 0.285248 0.0688387)
(-0.062783 0.0472728 0.0168038)
(-0.0145913 0.0101701 0.00389965)
(-0.00327073 0.00229943 0.000871944)
(-0.000827515 0.000408466 0.000219141)
(-0.0698294 0.290149 0.0227304)
(-0.0206959 0.0832455 0.00672656)
(-0.00503322 0.0205095 0.00158944)
(-0.00113877 0.00469734 0.000355196)
(-0.000284062 0.000831852 8.82701e-05)
(-0.270577 0.284421 0.0237874)
(-0.0649229 0.0469482 0.00577168)
(-0.0151104 0.0100933 0.00134237)
(-0.00338563 0.00228312 0.000301142)
(-0.00085609 0.000405236 7.57202e-05)
(-0.0723687 0.290771 0.00910891)
(-0.0215248 0.0828367 0.00243995)
(-0.0052825 0.0203579 0.000532579)
(-0.00111047 0.00467381 0.000149766)
(-0.000293131 0.00082637 2.89017e-05)
(-0.0203443 1.33044 0.00511483)
(-0.275176 1.88347 0.0201808)
(-0.251132 1.84111 0.181607)
(-0.0900227 1.29168 -0.0333374)
(0.0652249 0.762551 0.0299813)
(0.111278 0.802061 0.0321309)
(0.310285 1.12438 0.0937244)
(0.453529 1.17357 0.119986)
(0.06984 0.878819 0.0755253)
(0.333025 0.984003 0.141664)
(-0.064108 1.39605 0.118873)
(0.10366 1.9022 0.183339)
(0.0996806 1.7639 0.143199)
(0.196469 2.33442 0.177729)
(0.370398 1.15267 0.0744385)
(0.524096 1.31275 0.100272)
(0.560473 0.90546 0.0794715)
(0.703294 0.966633 0.0942622)
(0.228814 0.491836 0.0413362)
(0.296308 0.539001 0.0429794)
(-0.79175 0.197288 0.0921338)
(-0.573229 0.131161 0.0674198)
(-0.192734 0.036182 0.0210505)