/*--------------------------------*- C++ -*----------------------------------*\
| =========                 |                                                 |
| \\      /  F ield         | OpenFOAM: The Open Source CFD Toolbox           |
|  \\    /   O peration     | Version:  2306                                  |
|   \\  /    A nd           | Website:  www.openfoam.com                      |
|    \\/     M anipulation  |                                                 |
\*---------------------------------------------------------------------------*/
FoamFile
{
    version     2.0;
    format      ascii;
    arch        "LSB;label=32;scalar=64";
    class       volScalarField;
    location    "0.4";
    object      gradTx;
}
// * * * * * * * * * * * * * * * * * * * * * * * * * * * * * * * * * * * * * //

dimensions      [0 -1 0 1 0 0 0];

internalField   nonuniform List<scalar> 
5712
(
-9902.12
-12730.5
-22687.4
-33935.2
-34865.4
-59891
-25960.3
-65320.7
-20579.1
-45076.9
-30777.4
-47329.1
-27072.2
-36533.8
-12098.2
-14127.3
-23745.9
-27063.4
-29773.3
-29743.9
-22434.5
-26603.5
-32660.7
-29038.2
-8601.66
-6966.73
-10674.9
-7675.88
-20284.7
-17174.3
-34052.5
-25963.7
-26144.5
-27285
-30747.5
-30338.7
-11994.6
-8999.67
-59045.5
-78891.3
-39248.4
-47905.1
-75553.9
-98368.5
-39842.5
-45744
-45745.6
-64505.7
-41379.3
-54116.4
-24999.3
-39440
-5197.48
-1813.65
-5429.9
-2015.99
-15569.1
-6501.8
-20967.6
-7996.51
-15908.1
-6183.99
-16042
-5389.39
-26621.5
-8838.66
-34309.7
-12029.6
-34327.1
-18087.5
-32335.4
-19337.4
-29753.7
-19091.3
-27151.4
-19226.4
-27938.9
-17580
-27781.4
-15569
-33992.3
-21117.1
-34400.7
-21250.7
-29304.8
-20217.4
-29886.8
-20168.3
-30303
-19724.9
-31485.7
-20195.4
-29699.6
-14124.1
-16029.5
-21016.9
-29365.5
-15497.6
-14254
-21308.5
-31639
-13949.4
-17796.2
-21150.1
-33376.6
-14259.1
-19101
-21952.1
-6592.14
-7137.77
-2332.82
-4893.82
-18756.1
-19592.3
-7901.44
-14858.8
-23647.3
-25118.5
-13225.7
-22748.5
-12144.6
804.386
-17885.5
-25923
-16498.9
1581.34
-5389.19
-16155.8
-29146.1
-25858.6
-12508
-17260.5
-17943.9
-18088.8
-29931.1
-5644.15
-4056.89
-3441.46
-3125.42
-15347.7
-11170.9
-10494.8
-9149.8
-18313.1
-12935.8
-13985.9
-11360
-4384.41
-5603.55
-10496.3
-10610.8
-17472.9
-14492.9
-21443.9
-16420.9
-18796.9
-14654.1
-9327.41
-7649.42
-13704.7
-8023.52
-14878.2
-8183.56
-15342
-8280.55
-20881.3
-11800.8
-12291
-3246.79
-11617
-9213.8
-12959.5
-13294.3
-14532.1
-17194.4
-11370.7
-8894.18
-12854.1
-1860.23
-10700.8
-14931.1
-10294.7
-16179.1
-14465.2
-21483
-14619.6
-23067
-10322.5
-14953.1
-9819.72
-16076.6
-15284
-8789
-22504.8
-7853.07
-14430.6
-1226.08
-19666.6
-747.147
-15029.8
-12921.1
-23409.9
-9655.59
-13332
-15110.2
-21545.7
-12222.4
-2620.06
-1848.22
-1169.2
-2023.89
-1482.99
-1002.06
-7320.6
-4226.54
-2490.45
-5507.06
-3087.22
-1838.93
-7676.48
-4526.93
-3182.51
-6560.96
-3546.14
-2467.8
-3769.6
-2031.53
-1482.36
-7752.12
-3558.31
-2039.64
-9266.7
-4293.93
-2242.91
-10117.7
-5200.37
-3214.72
-9060.69
-4077.75
-2175.28
-10228.1
-5861.09
-3312.73
-8254.38
-4686.77
-2366.02
-9278.18
-4872.32
-2260.49
-9533.37
-4761.02
-2122.4
-12244.6
-5272.43
-1871.76
-12282.6
-15744
-10361.2
-12727.7
-15394.5
-21018.1
-14546.7
-19583.9
63.6487
-563.486
506.492
-194.064
-2935.84
-2857.75
-1479.28
-869.212
-1578
-3086.31
-10089.7
-13668.7
-5797.95
-3810.01
-12342.6
-12523.4
-20967.5
-23296.1
4.65257
3843.56
-8528.89
-7999.92
-6884.05
-5200.68
-944.248
-478.967
-789.386
-421.818
-2124.39
-336.222
-406.167
164.947
-8446.81
-1829.41
-6327.86
-1633.37
-8491.15
-2311.7
-10006.1
-2658.5
-10982.4
-11788.7
-10111.6
-11541.7
-18393.7
-17006.7
-17650.5
-16157.5
-6234.89
-7891.24
-7120.67
-7805.41
-10601.9
-11207.1
-11410.4
-11158.6
-18532.8
-15966.2
-19321.4
-15874
-6210.19
-7663.73
-6515.28
-7638.44
-154.156
-614.665
-4832.17
-1886.42
53.6442
-402.216
-4431.16
-1641.08
-414.386
-760.523
-4909.4
-2039.39
-578.753
-817.415
-4816.17
-2035.26
304.627
347.802
-155.888
-4.9994
1508.96
1367.4
11.2379
203.713
-14.0538
733.605
-903.784
-391.585
7519.29
9061.65
3370.05
2259.34
289.348
9797.86
8144.43
2428.01
3198.68
540.078
-10864.8
-7717.53
-5596.62
-4057.54
-1549.06
246.962
160.253
31.8868
32.3049
869.305
586.694
127.972
106.082
890.549
813.969
-106.2
-23.0775
3698.85
890.138
4888.4
2120.57
1476.7
698.054
1523.71
929.04
41.8888
-94.6236
-4131.52
-2236.57
-1764.82
-13.3798
-1164.52
-0.570456
-911.329
-136.34
-393.384
-247.578
-4700.3
-3353.51
-8127.5
-4315.01
-7989.86
-6271.88
-11600.1
-7903.43
-5232.27
-2632
-2849.52
-2119.29
-9352.64
-3885.21
-10043.8
-4246.56
-12738.8
-8165.16
-13375.4
-8759.87
-6226.28
-2284.37
-6772.76
-2547.5
-3004.76
-1722.41
-1109.36
-1252.87
-1906.97
-1492.74
-917
-1143.51
-3420.93
-1674.25
-1214.83
-1428.16
-4092.94
-1780.96
-1718.08
-1439.9
88.7851
56.0456
48.8642
9.06969
18.1413
16.0727
344.048
229.119
173.193
36.0683
56.5936
45.795
546.401
369.774
265.352
-54.9523
59.7927
61.3111
115.118
133.099
-4.08921
770.509
633.283
444.997
449.53
402.546
316
570.116
413.168
302.295
-170.757
11.7133
26.8534
-2623.17
-1212.38
-550.235
-234.296
107.338
203.533
-137.267
150.182
205.611
-100.69
121.613
147.439
-329.1
8.05124
40.432
-14.5431
-4.408
-1.30538
0.11042
49.8465
14.0068
6.50954
2.88781
-55.4302
-16.4283
2.48582
3.77899
53.0883
14.4296
16.8636
8.61721
-159.517
-40.4127
3.03614
8.46336
-87.6519
-19.3699
2.44816
3.5626
-102.046
-19.8619
-5.35422
-1.49275
-143.994
-32.5026
-1.65863
1.91755
-410.449
-100.516
-24.9467
-4.58288
-487.05
-114.973
-33.9866
-2.82838
-295.912
-70.1804
-12.469
3.11515
-401.586
-92.9192
-32.4123
-4.59012
-427.76
-104.813
-19.1296
-0.378666
-536.5
-128.88
-36.0283
-1.69668
-435.867
-108.906
-17.0035
1.76682
-558.443
-136.57
-38.1901
-2.26308
-10.904
-4.0519
-0.791484
0.488971
6.06849
0.953335
-1.09408
0.287818
-10.067
-6.08606
1.34098
2.74319
35.0653
7.41503
-0.991283
1.28591
-171.626
-46.6676
-8.53325
1.94807
-85.8103
-22.911
-8.46107
1.27824
-81.925
-17.4263
-0.202297
4.63253
-31.97
-6.88266
-8.07518
0.86929
-341.534
-78.5616
-28.0449
-0.726218
15.2697
4.26971
0.829499
0.736481
30.9327
8.87485
2.24311
0.701186
29.0865
8.47023
0.00990647
1.28192
81.9318
23.547
5.20834
1.62768
4.37126
3.68857
-2.48992
1.41722
109.88
32.3073
7.13483
2.22099
-50.8724
-5.68824
-5.27327
1.76247
92.2193
31.9559
6.83784
2.18757
-169.18
-29.0199
-16.0745
-1.08494
30.0135
21.733
3.23446
1.33029
-357.462
-69.5952
-25.4095
-2.90943
-113.29
-15.0361
-4.79269
-0.912627
-279.085
-49.6624
-22.0835
-2.8655
-62.2487
0.398603
-1.1151
0.183157
-411.807
-84.7659
-28.4446
-3.33933
-147.207
-25.3726
-6.70829
-1.54257
-440.867
-94.3328
-30.6617
-4.23822
-168.587
-32.1233
-8.15247
-1.99788
0.258621
0.0788455
0.0214746
0.00566932
0.00174902
0.50111
0.13014
0.0342852
0.00898448
0.00277055
0.610806
0.17001
0.0465268
0.0124124
0.00385993
0.914692
0.250348
0.0688528
0.0184744
0.00578071
0.712451
0.193972
0.0541606
0.0146637
0.00460491
0.986367
0.300941
0.085382
0.0232408
0.00733753
0.295508
0.118686
0.0363754
0.0102741
0.00332224
0.148522
0.0503353
0.0164346
0.00490956
0.0016482
0.39972
0.165775
0.050109
0.0139635
0.00445852
0.0881709
0.0549831
0.0180396
0.00518374
0.00168079
0.82734
0.242349
0.0672932
0.0180934
0.00566712
0.18859
0.0728538
0.0214604
0.00589258
0.00186314
0.12423
0.0727509
0.025096
0.00745051
0.00246562
0.0653072
0.0375884
0.0132313
0.00397574
0.00132646
0.051608
0.0252304
0.0104741
0.00348351
0.00122935
-0.00568445
0.00751292
0.0040015
0.00141696
0.000513337
0.206859
0.0643288
0.0173504
0.00450738
0.00137069
0.236515
0.065209
0.0165688
0.00414418
0.00122806
0.621663
0.167247
0.0436117
0.0112424
0.00341598
0.68049
0.171977
0.042688
0.0106446
0.00316288
0.626052
0.176194
0.0475815
0.0125634
0.0038799
0.918746
0.223779
0.0556278
0.0140256
0.00421578
0.85248
0.222287
0.0583553
0.0152483
0.00469715
0.721751
0.17009
0.0421536
0.0106721
0.00322435
0.426388
0.11738
0.0313502
0.00825679
0.00255703
-63.083
-365.848
63.1353
-858.2
504.31
-1042.32
1403.63
-704.987
2113.12
608.761
-645.991
-1896.94
1303.83
867.472
-1428.25
-3017.93
-1929.62
-3407.51
-1532.85
-437.779
-147.32
-67.5773
-44.1441
-411.368
-245.837
-56.6637
-28.3543
-19.0597
-4728.74
-1343.89
-454.03
-208.205
-136.249
-996.38
-388.375
-151.075
-70.1357
-46.0823
-7967.04
-2274.78
-773.006
-355.95
-232.972
-1733.92
-686.141
-259.692
-123.016
-78.7469
-10753.9
-3092.68
-1060.75
-491.497
-322.475
-2230.16
-911.723
-348.981
-165.719
-106.179
-13596.3
-3963.6
-1376.44
-643.399
-424.388
-2742.51
-1164.3
-450.922
-216.21
-140.088
-16498.4
-5002.86
-1776.76
-841.094
-557.865
-4279.84
-1622.14
-604.827
-286.409
-185.989
-15216.6
-4568.01
-1606.51
-755.357
-499.654
-3382.21
-1382.03
-526.997
-251.08
-162.852
-17121.7
-5223.41
-1865.29
-886.067
-588.236
-4783.44
-1759.48
-647.958
-305.294
-198.563
-17884.2
-5428.36
-1943.92
-924.336
-613.758
-4969.19
-1830.35
-676.534
-309.836
-205.032
-1233.51
-10281.2
-9312.89
-3273.78
1828.1
3101.64
8227.08
12472.8
959.807
8855.37
-4279.29
843.53
1723.33
5012.74
10781.7
16059.9
16389.3
21184.2
6714.34
8870.7
-15703
-10008.9
-887.724
-380.026
-242.107
-270.823
-435.493
-8849.25
-5952.14
-5290.89
-4124.77
-2274.69
-1719.64
-2942.08
-1188.72
-973.321
-967.538
-636.442
-14491.5
-5300.52
-911.862
-1777.33
-3476.87
-1940.26
-1755.75
-1067.62
-415.941
-535.775
-869.671
-975.127
-15092.3
-8366.62
-7724.41
-4707.05
-3622.01
-4844.03
-1045.9
-880.634
-1890.75
-9342.08
-6542.38
-4175.43
-2636.85
-1462.13
-5767.14
-3466.92
-2163.63
-1238.82
-474.91
-714.596
-528.455
-349.99
-196.205
-63.1529
-313.44
-237.457
-160.435
-91.026
-29.36
-199.137
-150.18
-100.868
-56.8939
-18.2754
-225.547
-172.526
-117.47
-66.9444
-21.6127
-356.515
-267.687
-179.249
-100.991
-32.455
-4810.86
-2968.17
-1777.92
-1110.38
-744.138
-2680.13
-1551.12
-817.921
-473.557
-241.491
-3016.63
-1686.64
-992.538
-544.696
-210.019
-1845.98
-1022.89
-537.547
-280.243
-115.538
-940.2
-495.854
-248.943
-121.116
-42.5018
-1224.07
-806.471
-484.564
-254.724
-80.7254
-1847.22
-1105.59
-643.724
-337.061
-110.897
-709.796
-398.832
-217.935
-107.004
-33.0623
-728.315
-499.83
-309.412
-165.152
-52.0442
-697.585
-461.92
-276.435
-143.471
-44.4532
-483.263
-335.721
-209.465
-112.044
-35.1433
-8221.41
-5149.2
-3216.73
-1967.99
-1186.5
-3426.78
-2166.36
-1329.54
-733.603
-271.267
-685.566
-474.505
-297.069
-160.583
-51.4104
-1355.03
-953.325
-606.877
-332.823
-107.854
-2543.73
-1742.14
-1093.11
-599.572
-200.912
-1485.53
-1051.11
-673.525
-371.632
-120.847
-1367.53
-982.246
-636.488
-353.09
-114.303
-844.373
-613.186
-399.718
-221.781
-71.2356
-328.547
-237.235
-153.116
-83.9242
-26.6245
-433.77
-321.764
-213.012
-119.008
-38.1086
-673.086
-477.421
-304.255
-165.854
-52.7949
-768.434
-555.652
-360.561
-199.257
-63.8597
-8884.54
-5977.52
-3823.51
-2336.39
-1291.47
-5109.97
-3183.34
-1991.61
-1132.49
-441.939
-4952.56
-3343.21
-2043.74
-1143.17
-433.478
-3280.26
-2159.49
-1354.72
-753.062
-262.603
-2689.32
-1868.18
-1185.53
-655.107
-218.688
-3348.38
-2195.92
-1371.28
-759.045
-261.46
-807.417
-573.595
-367.691
-202.353
-65.2845
-712.062
-527.882
-349.675
-195.686
-62.7783
-1472.52
-1055.32
-681.658
-376.887
-121.542
-8842.47
-18129.5
-18460.1
-51429.2
-17258.5
-65069.6
-9626.35
-23311.8
-17766.9
-14015.9
-30290.5
-25424.4
-16586.7
-14805.2
-32244.4
-24911.2
-6760.36
-5248.73
-13350.7
-9640.77
-15203
-11749.2
-41279.7
-31753.8
-24299.2
-17823.2
-26317.3
-15986.9
-2191.89
-6731.57
-62571
-80441
-38167.3
-47831.9
-78565
-99716.4
-38558.8
-45464.8
-48605
-66005.7
-40459.8
-54256
-28147.7
-41021
-3629.21
-1047.37
-6352.1
-2227.29
-12258.5
-5780.22
-24615.3
-9171.83
-6247.71
-3617.64
-13470.3
-4496.74
-26992
-8844.13
-34795.5
-12172.9
-22743
-12992.9
-27915.9
-16778.8
-18539.9
-13621
-22696.9
-16604.4
-24808.6
-15514.9
-19287.6
-11594.5
-32365.8
-19982.3
-34018.6
-20944.1
-27542.5
-19047.9
-29417
-19850.4
-29278.3
-18797.8
-31278.5
-19943.1
-28555.3
-13888.1
-14716.1
-20746.8
-25298.2
-14467.3
-11777.5
-20724.3
-31577.9
-13988.5
-17211.7
-21042.6
-33471.4
-14307.8
-18950.7
-21927.7
-2161.56
-2138.17
-704.203
-2974.02
-8631.33
-9313.02
-5902.27
-12478
-6683.86
-7913.87
-9982.42
-18970.2
-13904.4
-8759.21
-14060.7
-18986.1
-14885.9
-6012.69
-8121.84
-11197.2
-21213.6
-23944.7
-14813.7
-15214.3
-13514
-13689.1
-28518.2
-2368.57
-1690.74
-1590.13
-1692.33
-8062.08
-5925.43
-7580.52
-6516.3
-3468.93
-1448.2
-9712.31
-7504.05
-8496.03
-8278.15
-8803.19
-7767.81
-9981.56
-6973.92
-13552.9
-9977.25
-16273.6
-12136.3
-11403.8
-9141.78
-11710.6
-6569.65
-10865.7
-5336.49
-11687.3
-5739.78
-19629
-10428.4
-10457.8
-3016.72
-10172.3
-8643.35
-12338.1
-13439.1
-13382.3
-16660.9
-9992.25
-8367.72
-10754.4
-1508.69
-9906.91
-14525.6
-10050.3
-16045.8
-13711
-21006.9
-14373.9
-22888.5
-9604.92
-14648
-9604.4
-15980.2
-14428.2
-8489.87
-22335.6
-7794.39
-12944.5
-1162.45
-19422.8
-1224.53
-14605.5
-12746.1
-23337.2
-9598.61
-13194.2
-15057.2
-21522.3
-12215
-1460.95
-1303.29
-1327.37
-1446.45
-4349.2
-3270.33
-4541.43
-4087.77
-552.016
-1241.55
-5349.75
-5229.75
-7247.67
-5591.6
-6856.09
-4670.02
-5287.03
-3672.71
-7612.19
-5719.72
-9664.79
-6556.23
-12117.3
-8067.77
-6915.42
-3964.27
-6979.91
-3406.93
-7227.29
-2983.29
-9355.58
-2519.56
-6058.4
-9241.79
-5259.32
-10274.5
-10597
-12217.9
-12471
-16463.4
-857.663
-435.216
-383.51
-186.864
-3279.49
-1763.66
-2316.63
-651.289
-823.875
-1490.77
-7842.79
-7863.3
-3133.68
-2569.09
-10780.5
-11985.1
-19228.8
-22733.3
597.278
4047.43
-7108.93
-7446.46
-5995.12
-4887.61
-674.698
-490.364
-641.151
-441.035
-1216.02
-432.51
-163.924
60.9699
-5921.32
-1847.42
-5183.12
-1529.96
-7513.83
-2152.31
-9577.63
-2570.3
-5640.03
-9232.51
-7832.74
-10030.1
-10109.6
-12518.3
-14195
-13939.4
-4888.68
-7036.41
-4059.56
-6704.47
-9415.16
-10442.3
-11030
-10933.6
-16951.1
-14934.8
-18849.9
-15585.2
-5447.56
-7176.19
-6247.65
-7485.46
95.116
-601.788
-4524.14
-1868.16
136.667
-550.835
-4293.01
-1719.5
-169.298
-720.394
-4678.44
-2002.76
-461.209
-793.688
-4736.92
-2019.46
-635.88
-606.015
-458.401
-392.047
-1293.71
-1162.12
-501.713
-405.869
-5546.89
-4591.53
-1625.26
-1374.44
-2701.1
-3768.81
-2877.03
437.674
-262.497
-98.3849
-775.52
-3177.59
1689.71
95.2053
-14546.1
-10533.1
-7538.73
-4909.01
-1888.28
-517.03
-366.386
-347.807
-314.151
-1027.83
-713.904
-445.365
-469.278
-3946.18
-3079.42
-1241.4
-1213.05
-3684.55
-4662.81
-1930.41
-3084.16
-3156.5
-2887
-292.904
-514.126
-538.105
-730.944
-8348.5
-5508.27
-5605.97
-3233.43
-3778.38
-2183.51
-2333.36
-1319.51
-847.964
-692.237
-5671.18
-4580.28
-7927.21
-4498.55
-8606.61
-7473.49
-11010.2
-7941.55
-5267.08
-2819.18
-3687.37
-3002.6
-9015.7
-3868.56
-9907.31
-4209.69
-12176.2
-8013.04
-13173.2
-8674.56
-6074.32
-2316.56
-6698.59
-2535.38
-3114.34
-1855.87
-1218.48
-1357.1
-2478.52
-2031.63
-1188.37
-1417.01
-3391.31
-1712.94
-1243.24
-1465.07
-4064.57
-1780.49
-1718.48
-1445.02
-233.105
-198.114
-217.036
-184.358
-590.266
-612.286
-329.961
-295.025
-2465.83
-1993.71
-725.658
-346.984
-4757.19
-3601.89
-3336.93
-2318.04
-2323.91
-1671.07
-667.21
-591.314
-647.063
-324.457
-5119.32
-3243.06
-2516.79
-1563.52
-1664.29
-1006.57
-926.696
-509.02
-623.074
-52.8112
-40.4657
-12.8704
-3.94221
-0.618862
3.19804
-1.6178
1.9792
1.68338
-118.974
-37.1184
-2.81354
2.55361
-26.3839
-14.4398
8.74997
6.48477
-237.693
-66.5945
-3.03053
7.56684
-155.979
-48.8782
-7.48144
0.383224
-131.522
-35.5315
-11.1583
-3.33613
-150.645
-38.0095
-3.87598
1.18247
-432.849
-113.908
-30.4448
-6.69861
-500.896
-122.575
-36.9299
-3.50631
-374.045
-96.3284
-20.2719
0.848935
-438.294
-105.497
-36.5618
-5.31918
-435.651
-112.886
-22.4541
-1.44074
-540.163
-133.005
-37.9587
-2.26701
-437.29
-111.756
-18.2444
1.36257
-558.838
-137.874
-38.8531
-2.4621
-43.4221
-12.8006
-2.96288
0.0668981
-33.8864
-8.85131
-3.83807
-0.247924
-105.645
-31.1717
-4.51465
1.5529
-78.0532
-20.5622
-8.55022
-0.222111
-267.633
-71.695
-14.1484
1.01218
-223.418
-56.3684
-17.4531
-0.399297
-252.458
-62.4775
-11.1767
2.32951
-189.011
-44.8571
-17.4595
-0.239918
-425.891
-100.067
-33.8609
-0.94805
-22.7977
-5.5221
-1.56164
0.176588
-6.59588
-1.54478
-0.310419
-0.0327938
-71.7155
-17.1514
-6.77682
-0.424542
-22.9557
-5.14581
-2.01232
-0.428161
-139.612
-31.8843
-11.8295
-0.92177
-53.0172
-10.9645
-3.39518
-0.71636
-218.615
-47.5675
-15.8347
-0.607985
-101.516
-19.033
-5.18006
-1.08786
-297.025
-63.0659
-25.7395
-3.68612
-137.32
-24.5603
-8.23539
-1.93771
-404.42
-87.0642
-31.2335
-4.69557
-161.001
-31.8206
-9.74952
-2.50371
-373.524
-78.9343
-30.8785
-5.40079
-162.285
-30.48
-9.398
-2.34771
-429.138
-92.8925
-31.4888
-4.31124
-164.365
-32.5702
-9.02669
-2.30446
-444.377
-96.4689
-31.5386
-4.53008
-171.829
-33.8013
-8.75042
-2.20571
0.0346727
0.00543804
-7.43437e-05
-0.000335661
-0.000191089
0.103586
0.00659044
-0.00131296
-0.000896779
-0.000427066
0.105501
0.00360665
-0.0022873
-0.00120862
-0.00055164
0.0802793
-0.0132983
-0.00794227
-0.00301965
-0.00122196
0.112874
-0.00744213
-0.00507386
-0.00189767
-0.000771132
-0.115577
-0.042704
-0.0144926
-0.00475121
-0.00180493
-0.232983
-0.0459453
-0.0119802
-0.00342885
-0.00119666
-0.100749
-0.0293465
-0.00736352
-0.0019169
-0.000624268
-0.2834
-0.0421694
-0.00992363
-0.00281385
-0.00101091
-0.166947
-0.0233558
-0.00465809
-0.00117447
-0.000395215
-0.0762781
-0.0263812
-0.00886624
-0.00296761
-0.00115686
-0.105036
-0.0140745
-0.00321657
-0.000932217
-0.000345953
-0.245289
-0.0426326
-0.00874042
-0.00211139
-0.00067737
-0.138798
-0.0260443
-0.0053999
-0.0012956
-0.000410594
-0.103169
-0.024535
-0.00437636
-0.000764675
-0.00018032
-0.0695863
-0.0131103
-0.00215826
-0.000346892
-7.27078e-05
0.0356059
0.00716228
0.000785898
-5.26692e-05
-8.85525e-05
0.0417923
0.00981367
0.0015333
0.000130026
-3.54739e-05
0.146468
0.0167415
0.000881788
-0.000443427
-0.000320608
0.151683
0.0245365
0.00289297
1.77451e-05
-0.000191009
0.113185
0.00603023
-0.00146026
-0.000955937
-0.000466057
0.189733
0.0223091
0.00115175
-0.000597315
-0.000426402
0.0575242
-0.00391309
-0.00411758
-0.00178227
-0.000772897
0.128989
0.0114457
-0.000426955
-0.000761251
-0.000414765
-0.0347054
-0.00882807
-0.00324039
-0.00117189
-0.000476609
157.062
-204.523
569.953
-478.267
1091.06
-595.748
1847.49
-364.5
2314.18
682.335
-534.591
-1857.76
1367.45
711.701
-1352.73
-2974.26
-1905.64
-3391.7
-1538.21
-441.963
-148.424
-67.8045
-44.1853
-389.237
-244.233
-56.1581
-28.3064
-19.0878
-4756.91
-1357.7
-457.595
-208.969
-136.424
-945.127
-380.801
-149.891
-69.962
-46.0893
-8023.79
-2297.47
-778.731
-357.197
-233.276
-1680.67
-678.667
-258.524
-122.87
-78.7498
-10840.6
-3120.88
-1067.55
-492.932
-322.806
-2203.16
-907.475
-348.224
-165.605
-106.167
-13723.4
-3996.55
-1383.88
-644.939
-424.75
-2758.26
-1165.16
-450.812
-216.183
-140.091
-16613.4
-5028.57
-1782.07
-842.136
-558.095
-4285.11
-1623.92
-605.115
-286.461
-185.994
-15360.9
-4600.35
-1613.34
-756.715
-499.963
-3408.39
-1384.76
-527.189
-251.086
-162.855
-17193.3
-5239.43
-1868.55
-886.705
-588.376
-4782.99
-1760.38
-648.147
-305.338
-198.575
-17909.6
-5433.97
-1945.08
-924.58
-613.828
-4969.06
-1830.75
-676.645
-309.859
-205.048
-945.627
-9982
-8439.2
-2506.75
-1868.5
-852.597
-4266.01
-2661.97
-8633.31
-7983.04
-4275.83
-3079.31
-4.48333
-9.93919
-24.5507
-57.5224
-126.917
-263.92
-4.08213
-12.77
-36.5917
-89.6815
-194.025
-375.156
-2.72811
-1.09375
-6.62217
-3.67735
-17.4535
-11.744
-42.8644
-33.4247
-92.7258
-73.8539
-196.02
-141.913
-496.712
-844.943
-1368.21
-3020.36
-4503.62
-5672.7
-645.723
-984.078
-1327.48
-1638.56
-1898.24
-2045.79
-3.85944
-3.07207
-2.17817
-1.28194
-0.421121
-8.52195
-6.74961
-4.76043
-2.78952
-0.914128
-20.9565
-16.5076
-11.5767
-6.75252
-2.20717
-48.8329
-38.2138
-26.6208
-15.4455
-5.03411
-106.969
-83.0036
-57.3442
-33.0599
-10.7393
-220.245
-169.005
-115.539
-66.1008
-21.394
-3.50489
-2.78083
-1.96494
-1.15318
-0.378215
-10.9142
-8.61079
-6.04869
-3.53286
-1.1556
-31.1296
-24.4226
-17.0579
-9.91769
-3.23603
-75.8664
-59.1245
-41.0212
-23.7268
-7.72057
-163.002
-126.016
-86.7541
-49.8857
-16.1844
-312.48
-239.268
-163.253
-93.2726
-30.1697
-2.35416
-1.87957
-1.33695
-0.788948
-0.259563
-0.945086
-0.755852
-0.538629
-0.318336
-0.10482
-5.69375
-4.52523
-3.20321
-1.88262
-0.617962
-3.16794
-2.52403
-1.79135
-1.05511
-0.346745
-14.944
-11.8158
-8.31858
-4.8673
-1.59368
-10.0771
-7.989
-5.64005
-3.30745
-1.08424
-36.5068
-28.6783
-20.0553
-11.6712
-3.81007
-28.5276
-22.4665
-15.7502
-9.18332
-3.00085
-78.4249
-61.0968
-42.369
-24.4944
-7.96792
-62.6349
-48.9446
-34.0372
-19.7167
-6.41981
-164.088
-126.314
-86.5831
-49.617
-16.0688
-119.24
-92.1423
-63.3594
-36.3775
-11.7887
-408.855
-309.176
-208.64
-118.328
-38.1694
-681.981
-505.825
-335.977
-188.766
-60.7916
-1073.63
-776.583
-506.336
-282.004
-91.1443
-2267.99
-1587.86
-1014.94
-562.886
-185.726
-3164.15
-2129.53
-1337.55
-745.319
-258.823
-3824.94
-2519.04
-1567.23
-877.026
-314.581
-532.104
-402.785
-272.041
-154.369
-49.7968
-799.788
-597.027
-398.594
-224.596
-72.3197
-1058.85
-776.702
-511.667
-286.318
-92.2309
-1271.27
-911.052
-590.669
-328.519
-106.483
-1407.8
-976.232
-621.202
-344.596
-114.077
-1463.75
-990.156
-621.602
-344.688
-116.378
-4.48717
-9.96201
-24.6431
-57.8341
-127.809
-265.666
-4.0867
-12.7943
-36.6697
-89.8658
-194.282
-375.136
-2.73279
-1.09833
-6.65428
-3.71691
-17.6036
-11.9734
-43.4508
-34.4485
-94.8861
-79.012
-200.998
-155.878
-498.965
-847.062
-1367.97
-2998.4
-4461.93
-5649.69
-644.679
-981.258
-1322.57
-1630.05
-1886.74
-2040.09
-3.86427
-3.07754
-2.18337
-1.2857
-0.422494
-8.54823
-6.77755
-4.78593
-2.80752
-0.920626
-21.0558
-16.6075
-11.6642
-6.81274
-2.22865
-49.1566
-38.5289
-26.8897
-15.6272
-5.09834
-107.883
-83.8806
-58.0823
-33.5533
-10.9129
-222.121
-170.87
-117.143
-67.1861
-21.7776
-3.51089
-2.7878
-1.97166
-1.15808
-0.380006
-10.9447
-8.64521
-6.08127
-3.55631
-1.16414
-31.2267
-24.5312
-17.16
-9.99075
-3.26256
-76.1059
-59.3987
-41.2816
-23.914
-7.78862
-163.415
-126.541
-87.2784
-50.2717
-16.3261
-312.868
-239.981
-164.068
-93.9074
-30.4079
-2.35915
-1.88457
-1.34134
-0.791977
-0.260645
-0.949537
-0.759936
-0.541969
-0.320537
-0.105589
-5.726
-4.55578
-3.22884
-1.89979
-0.624012
-3.20493
-2.5566
-1.81699
-1.07153
-0.352402
-15.0886
-11.9471
-8.42467
-4.93652
-1.61774
-10.2866
-8.16849
-5.77754
-3.39371
-1.11362
-37.061
-29.1704
-20.4446
-11.9212
-3.89623
-29.4554
-23.253
-16.3461
-9.55381
-3.12643
-80.4215
-62.8245
-43.7018
-25.3336
-8.25435
-67.193
-52.6928
-36.79
-21.3864
-6.97829
-168.755
-130.407
-89.772
-51.6364
-16.7594
-131.539
-102.214
-70.7194
-40.8203
-13.2696
-411.651
-312.228
-211.415
-120.26
-38.8609
-685.613
-510.383
-340.4
-191.94
-61.9435
-1077.07
-782.502
-512.716
-286.789
-92.9185
-2258.08
-1587.04
-1019
-567.45
-187.698
-3139.31
-2117.49
-1333.9
-745.53
-259.436
-3810.3
-2510.92
-1563.66
-875.974
-314.466
-531.955
-403.397
-273.022
-155.216
-50.1265
-798.586
-597.222
-399.57
-225.578
-72.7198
-1056.43
-776.386
-512.575
-287.393
-92.6878
-1266.44
-909.286
-590.816
-329.266
-106.861
-1400.52
-972.426
-619.779
-344.365
-114.129
-1460
-988.01
-620.603
-344.348
-116.319
-15616.8
-9957.84
-895.952
-390.293
-283.797
-301.799
-460.885
-8962.87
-7761.33
-5800.58
-5969.53
-2132.54
-4075.14
-1352.13
-1483.98
-900.49
-14347.9
-5459.09
-1072
-1898.41
-3555.12
-1979.97
-1780.13
-1116.08
-520.064
-612.309
-1059.81
-1063.84
-14836.1
-8258.5
-7671.54
-4666.14
-3625.44
-4838.66
-1097.77
-924.892
-1944.85
-9287.23
-6508.88
-4160.04
-2632.65
-1463.37
-5738.33
-3452.8
-2157.91
-1237.53
-474.935
-724.605
-539.065
-359.363
-202.595
-65.4185
-323.269
-246.228
-167.349
-95.4321
-30.8712
-235.608
-179.781
-122.288
-69.718
-22.5309
-252.784
-194.787
-133.704
-76.7279
-24.8707
-380.068
-288.005
-194.766
-110.645
-35.7219
-5336.7
-3519.22
-2221.47
-1400.68
-886.656
-4697.84
-3217.83
-2039.26
-1229.56
-540.122
-3637.27
-2243.12
-1409.16
-794.226
-290.045
-3650.56
-2430.9
-1538.13
-885.023
-332.13
-1604.75
-1124.49
-717.417
-393.832
-126.523
-2823.44
-1855.74
-1165.2
-638.125
-208.467
-1057.81
-762.885
-495.745
-274.608
-87.9966
-1155.54
-829.972
-537.597
-297.194
-95.1738
-715.156
-522.148
-342.202
-190.359
-60.9509
-8385.2
-5407.98
-3464.8
-2146.3
-1272.66
-3654.18
-2396.36
-1515.75
-851.98
-312.736
-831.771
-596.735
-386.991
-214.742
-69.4145
-1474.69
-1060.4
-689.959
-384.752
-125.509
-2650.45
-1854.49
-1188.38
-662.104
-222.926
-1532.68
-1098.76
-713.598
-397.965
-130.054
-1397.03
-1012.92
-663.03
-370.915
-120.595
-891.9
-655.985
-433.35
-243.056
-78.5033
-420.369
-312.065
-207.288
-116.318
-37.3714
-501.481
-377.359
-253.649
-143.515
-46.2757
-841.66
-615.179
-404.021
-225.439
-72.5366
-850.739
-626.11
-413.715
-231.955
-74.8674
-8744.15
-5907.26
-3800.53
-2339.26
-1303.84
-5055.57
-3162.02
-1988.12
-1136.17
-444.384
-5024.06
-3450.5
-2152.28
-1221.79
-464.644
-3278.25
-2180.25
-1382.23
-775.024
-271.103
-2715.89
-1906.84
-1223.69
-682.355
-228.752
-3387.89
-2254.88
-1429.15
-800.187
-276.919
-859.397
-621.019
-405.217
-226.173
-73.4435
-753.704
-564.24
-377.688
-213.213
-68.729
-1529.98
-1110.01
-726.178
-405.643
-131.482
-77.2683
-239.978
-436.601
-683.935
-975.676
-1295.99
-4031.89
-10564.9
-9336.17
-3664.88
-13107.8
-11730.8
-11949
-12891.1
-3842.07
-2517.05
-9160.1
-4922.13
-15478.5
-13098.3
203.339
-3189.03
-8523.54
-7322.78
-2834.66
-10676.3
-9072.2
-9485.8
-10112.6
-3184.71
-1374.87
-8037.23
-2319.74
-11736.7
-8179.87
2781.76
-2180.55
-5983.82
-4974.97
-1880.91
-7702.13
-4726.65
-6786.03
-6780
-2291.73
-1309.46
-5450.91
-2558.85
-8228.43
-2694.58
2952.97
-1393.94
-4018.45
-3225.95
-1190.92
-4969.88
-2008.44
-4612.12
-4606.5
-1562.34
-1351.12
-3726.79
-2563.35
-6041.66
-258.057
2152.03
-941.361
-2856.72
-2218.36
-805.29
-3131.55
-1073.04
-3302.74
-3590.31
-1070.23
-1493.3
-2305.66
-2449.47
-4525.7
187.903
248.739
-694.931
-2082.86
-1660.59
-592.663
-2376.47
-1322.42
-2476.31
-2939.55
-700.772
-1178.78
-1495.58
-2209.16
-4334.17
-1175.56
-1078.51
-1497.77
-3614.81
-6179.92
-2444.31
-5523.37
-9148.81
-8584.59
-11604.1
-847.401
-395.696
-3327.65
-1369.07
-1061.66
-7594.74
-2887.93
-1325.86
-3199.81
-5149.17
-2021.88
-4808.28
-7744.88
-7260.94
-9161.88
-810.461
-243.634
-3257.9
-1026.17
-199.99
-6764.08
-1465.03
-1040.6
-2509.1
-3741.51
-1450.18
-3876.34
-5810.99
-5440.88
-6815.69
-620.65
-241.626
-2384.35
-909.1
-279.927
-4340.73
-1021.48
-728.477
-1855.5
-2512.14
-958.999
-2914.92
-4070.69
-3930.37
-4885.3
-443.67
-213.731
-1764.65
-782.432
-142.075
-3088.94
-771.147
-518.569
-1346.55
-1760.74
-663.494
-2028.54
-2879.97
-2860.34
-3742.65
-314.567
-248.503
-1220.86
-772.628
-188.268
-2307.49
-796.757
-385.697
-943.173
-1319.71
-491.364
-1501.06
-2511.3
-2141.82
-3076.93
-262.723
-275.283
-864.565
-685.395
-357.916
-2236.97
-1028.44
9005.32
11435.2
22740.6
34053.4
34907.6
59866.5
25972.5
65323.1
20597.1
45083.4
30840.6
47331.1
27105.4
36666.2
10385.3
12031.2
23763.6
27067.1
29765.3
29739.6
22437.6
26601.1
32657
29034.2
7935.26
6475.91
9714.35
7003.08
20288.1
17137.4
34135.1
26009.9
26106.1
27288.9
30733.6
30338
11990
8963.51
59053.2
78901
39249
47907.8
75562.5
98378.8
39842.2
45745.2
45751.7
64514.7
41378
54120.3
25009.2
39448.8
4895.59
1738.87
4985.25
1871.97
15522.9
6476.38
20981.7
7999.84
15897.4
6177.87
16019.7
5380.38
26622.9
8838.59
34314.4
12031.2
34325.8
18085.8
32332.4
19335.3
29750
19088.3
27147.7
19223.6
27934.1
17577.7
27779.2
15566.9
33991
21115.4
34400.3
21249.1
29302.7
20215.1
29885.4
20166.3
30301.7
19723.5
31486
20194.2
29692.6
14121.7
16027
21016.4
29359.8
15495.2
14251.2
21307.7
31638.2
13949.3
17795
21150
33378.3
14259.8
19100.3
21952.3
6200.3
6636.08
2243.73
4600.14
18664.9
19518.5
7854.24
14788
23632.2
25102.4
13218.2
22735.3
12143.8
-803.651
17883.2
25916.3
16495.7
-1580.46
5388.93
16154.2
29138.6
25853.8
12506.2
17258.8
17941.4
18084.9
29929.5
5119.35
3633.24
3074.35
2838.04
15418
11230.2
10617.8
9224.78
18300.5
12932.4
13980.1
11358.5
4384.28
5603.17
10495.4
10609.9
17470.4
14491
21437.2
16417.7
18794.4
14653.7
9326.3
7648.68
13703.3
8022.71
14876.1
8182.43
15339.1
8279.24
20880.6
11800.8
12289.6
3246.27
11615.5
9213.09
12957.7
13292.9
14530.1
17192.8
11369.3
8893.72
12852.5
1859.73
10699.4
14930.4
10293.4
16178.5
14463.3
21481.4
14617.8
23065.5
10321.5
14952.9
9818.77
16076.4
15283.2
8788.82
22505
7853.2
14429.2
1225.72
19666.6
747.247
15029.4
12921.1
23410.4
9655.79
13331.6
15110.3
21546.1
12222.7
2286
1634.47
1055.69
1827.09
1353.04
929.007
7386.8
4253.86
2496.59
5568.92
3113.16
1843.33
7678.58
4529.66
3184.22
6562.03
3549.06
2470.04
3769.38
2031.52
1482.4
7751.65
3558.34
2039.79
9266.06
4294.13
2243.27
10117.5
5201.6
3215.91
9061.02
4078.96
2176.5
10227.3
5860.82
3312.72
8253.91
4686.62
2366.08
9277.77
4872.31
2260.68
9533.15
4761.24
2122.78
12244.7
5272.7
1872.14
12252.3
15724.8
10327.6
12710.8
15380.6
21007.3
14529.4
19574.1
-7.04234
493.538
-411.197
157.322
2929.71
2919.24
1472.15
934.671
1548.78
3057.89
10070.6
13645.5
5780.32
3795.1
12333.9
12519.5
20962.3
23293.6
-11.4428
-3845.65
8517.79
7994.63
6877.69
5198.17
837.664
438.096
694.262
381.401
2164.94
344.202
450.624
-154.377
8434.61
1827.95
6319.15
1632.76
8483.18
2309.73
10001.8
2657.12
10970.8
11782.6
10102.3
11536.7
18385.5
17001.7
17643.9
16153.4
6226.55
7886.68
7110.64
7800.06
10596.1
11203.5
11407
11156
18528.6
15963.1
19318.6
15871.6
6204.9
7660.39
6512.37
7636.1
149.685
613.888
4828.95
1885.24
-58.4797
401.474
4427.71
1639.93
410.971
759.578
4906.85
2038.31
576.912
816.748
4814.36
2034.41
-291.371
-329.179
143.022
1.64847
-1491.72
-1353.09
-7.96072
-198.77
14.5061
-732.76
903.571
391.729
-7519.1
-9060.56
-3370.42
-2259.84
-289.361
-9796.36
-8142.88
-2427.93
-3197.66
-539.74
10862.2
7713.86
5593.02
4054.66
1548.01
-237.178
-152.624
-35.5381
-34.0087
-858.928
-580.801
-121.591
-101.859
-889.591
-813.027
106.415
23.2504
-3698.56
-890.158
-4888.03
-2120.52
-1477.1
-698.242
-1523.47
-928.749
-41.927
94.5573
4130.26
2236.02
1763.17
12.8715
1163.04
0.131944
910.307
136.046
392.949
247.321
4697.68
3352.23
8124.71
4313.59
7987.61
6270.59
11597.5
7901.95
5229.82
2630.83
2847.26
2118.19
9350.34
3883.96
10041.9
4245.47
12736.6
8163.78
13373.4
8758.61
6224.23
2283.37
6771.09
2546.66
3003.05
1721.52
1108.51
1252.2
1905.35
1491.88
916.202
1142.85
3419.5
1673.44