/*--------------------------------*- C++ -*----------------------------------*\
| =========                 |                                                 |
| \\      /  F ield         | OpenFOAM: The Open Source CFD Toolbox           |
|  \\    /   O peration     | Version:  2306                                  |
|   \\  /    A nd           | Website:  www.openfoam.com                      |
|    \\/     M anipulation  |                                                 |
\*---------------------------------------------------------------------------*/
FoamFile
{
    version     2.0;
    format      ascii;
    arch        "LSB;label=32;scalar=64";
    class       volScalarField;
    location    "0.4";
    object      gradTy;
}
// * * * * * * * * * * * * * * * * * * * * * * * * * * * * * * * * * * * * * //

dimensions      [0 -1 0 1 0 0 0];

internalField   nonuniform List<scalar> 
5712
(
15618.9
8997.35
24526.2
16397
26877.8
20218.8
40320.2
52480.6
53830.3
68474.5
35692.3
31712
22622.1
18442.7
11669
7953.97
23787.1
22470
21169.3
23644.3
31588
25995.5
38626.8
28706.6
10669.8
7600.69
6133.72
4840.16
12035.5
10113.2
7620.8
6714.49
25458.6
24845
23729
17638.4
17580.5
14883.4
13868.8
16227.9
21887.6
22224
50156.6
52377.7
32595.4
34256.5
22561.5
18898.1
22111.4
15013.3
10477.2
11223.2
10410
17318.3
5515.05
7514.04
13969.7
22645.7
8602.76
11112.6
14457.3
29868.8
10339
19607.1
3703.82
11508.7
3092.66
8576.75
18811.3
23287.5
20766.4
23932.2
21715.5
20952.7
23531
21333.3
19378.9
27024.9
18779.9
25989.8
21023.4
24199
21291.3
24321.8
24580.8
21432.3
24864.1
21356.5
18252.8
27539.2
17810.6
27825.2
27169.3
36500.2
34269.9
56001.5
28693.4
43022.3
33699.2
61657.5
25861.1
31739.2
34576.8
53566.5
25730.8
29537.6
35134.4
53232.1
10838.7
14717.9
28282.8
51700.3
12828.8
14970.1
35105.1
56666
14926.4
15023.7
42658.6
59919.2
27194.6
24488.8
27457.1
30952.8
53925.4
23767.3
26252.5
27403.2
27059.6
63160.6
21927.7
24595.6
25779.9
31756.1
70922.3
3497.11
4135.93
7543.27
20048.3
4804.93
5403.29
9876.9
21089.8
6628.93
5328.9
12681.1
22305.6
21336.4
17813.7
22293.1
18259.3
23308.6
17551.8
19611.6
15058
15618.3
24338.1
20170.9
16785.9
23155.5
19817.2
23517.2
19393.7
22822.7
18623.2
16185.1
23516
23737.5
25104.2
23731.3
25988.8
20513.7
19619.7
20216
20241.5
24682.9
24060.3
24694.2
23413.3
23489.4
26171.8
23469.2
26273.2
19678.7
20711
19585.3
20763.7
24534.4
23806.2
24582.3
23822.1
23764.7
22021.1
16062.7
19583.3
23944.2
21746.5
15914.3
20068.2
23799.1
21704.7
16389
19489.6
23780.4
21358.7
16867.5
19390.9
2247.24
1072.29
532.956
1138
472.916
353.048
3202.84
1204.93
633.734
2048.97
1145.45
645.753
3092.88
1477.35
1015.58
3395.54
1849.28
1189.88
12877
7810.15
5053.2
13427.6
8433.17
5597.36
10966.9
6768.71
4594.84
9084.17
5004.63
3210.45
5219.61
2353.17
1341.66
12515.9
7711.5
4848.26
14746.9
8849.53
5483.43
12814.2
6958.84
4108.64
9742.69
4745.95
2733.71
5465.84
2247.93
1145.8
28872.5
26315.9
33155.6
27622
34947.6
27989.2
44888.5
31115.6
19971
17971.7
20188.9
16788.7
22830.5
19226.8
23139.5
17759.4
22653.9
21430.6
20715.4
21067.5
24565.1
23227.2
30258.2
31370.6
35241.3
37219.3
23584.6
25162.4
21211.3
21001.6
23881.5
24910.8
12576.7
5853.22
12060.1
6558.33
13063.5
5887.21
12245
6469.73
13272.5
5880.75
12701.4
6830.61
12620.7
7193.33
12931.4
7028.97
19223.7
14749.1
20073.2
15137.7
22633.4
18925.6
24104.2
19279
18333.3
11258.3
18279.2
10817.8
21215.9
15272.3
21764.5
15091.9
25640.8
19434.8
26001
19235.7
18675.5
11406.9
18802.1
11285.5
10339.5
5649.69
7761.97
4338.92
9174.59
4885.56
7270.47
3987.31
10839.1
6078.3
7941.06
4471.08
10900.3
6266.91
7859.2
4445.29
1649.73
722.686
2761
1375.47
1713.76
849.035
2887.98
1593.19
2058.79
1272.97
3160.34
2050.36
9133.94
16226.4
6111.87
5525.49
3558.8
15002.7
9018.22
4520.98
4424.05
2739
16796.1
11843.5
8463.84
5850.67
3330.96
294.872
122.633
731.109
456.194
387.571
153.765
940.853
603.754
685.052
316.099
1326.64
872.531
13879.9
11181.5
7929.07
6052.89
4308.75
3284.31
3336.51
2152.95
2043.65
1340.28
13788.8
10458
9248.01
6388.21
6248.1
4098.83
4165.06
2627.62
2596.68
1853.99
10286.2
6401.75
10711.9
6645.25
14146.7
9910.17
14548.6
10370.9
7710.44
4610.61
7228.53
4343.26
10903.1
6725.3
10825.6
6703.16
14666.9
10841.6
14550.7
10839.1
7974.95
4658.64
7920.29
4674.43
5132.48
3028.03
3104.62
2289.93
4801.63
2806.6
2945.47
2088.38
5397.57
3125.95
3183.62
2405.53
5476.26
3112.98
3305.51
2419.29
148.977
93.2039
57.1202
723.252
248.614
145.133
143.08
109.691
72.3172
839.46
313.956
192.155
257.216
207.906
154.377
1039.23
436.916
278.401
7703.99
4783.37
3215.07
4077.94
2558.3
1768.68
2256.93
1411.61
999.466
1409.79
856.096
587.738
1355.35
608.447
383.442
7094.13
4200.23
2631.18
4003.69
2283.19
1439.29
2467.05
1357.17
857.341
1701.75
904.708
549.985
1842.32
727.582
422.123
2247.97
800.388
277.006
86.8694
2592.49
901.222
303.52
92.9517
2247.93
796.883
276.289
86.6763
2632.91
921.68
315.623
97.9507
2230.59
781.346
285.398
92.913
2688.29
928.535
336.739
109.023
2906.64
986.027
326.873
99.3241
2928.01
1004.63
322.482
96.5113
2319.27
831.444
304.924
98.7065
1817.88
685.413
261.388
87.102
1999.38
732.724
281.028
96.1476
1676.3
641.853
249.562
85.0991
2516.29
897.262
314.774
98.1479
1889.76
712.287
266.025
87.4892
2594.55
929.545
319.684
99.4812
1903.86
725.462
270.157
89.6965
1570.91
636.352
239.827
79.8776
989.273
464.357
195.813
69.4034
1568.79
631.545
239.609
80.2031
1034.28
473.949
198.081
70.1124
1612.39
631.636
245.126
83.1627
1174.17
505.301
206.809
72.2828
1578.54
608.027
240.051
84.4258
1298.88
528.185
218.45
75.9434
1471.54
583.817
233.374
82.36
583.29
346.637
143.171
35.4192
301.001
290.035
123.182
31.4332
651.099
366.961
149.655
37.6781
357.385
310.16
128.627
32.6712
796.004
405.562
158.547
38.6349
471.858
347.022
136.693
34.0003
995.02
455.127
174.306
42.9364
626.56
392.695
148.633
36.6483
1160.34
504.005
193.853
49.7563
735.842
434.056
160.026
39.1287
1295.69
557.734
202.368
49.4237
803.994
486.42
179.098
43.2394
1247.29
536.797
197.922
48.9521
754.2
465.03
170.223
41.1831
1315.39
568.112
200.625
46.8715
819.088
499.308
182.127
43.5219
1339.09
575.296
202.855
47.2512
843.124
506.838
184.844
44.1165
26.8294
9.42485
3.10119
0.944509
0.204705
27.6744
9.57802
3.13155
0.9508
0.205789
27.1873
9.60965
3.15007
0.956727
0.207048
28.6814
9.81861
3.19161
0.966043
0.208758
28.3898
9.82465
3.20174
0.970029
0.209669
30.2342
10.0328
3.24796
0.981323
0.211835
29.6909
10.2242
3.31759
1.0011
0.215861
29.9125
10.4114
3.38782
1.02236
0.220349
29.5527
10.0874
3.27376
0.989246
0.213501
28.9372
10.109
3.296
0.996776
0.215125
29.268
9.93037
3.23133
0.978239
0.211335
28.7189
9.99744
3.26032
0.986857
0.213116
29.5342
10.2444
3.3321
1.00615
0.216975
29.3773
10.2501
3.34393
1.01085
0.218056
30.2497
10.4369
3.39545
1.02516
0.221006
30.0743
10.4262
3.39706
1.02654
0.221388
25.9331
9.24679
3.06645
0.937607
0.203555
24.8801
9.11159
3.04281
0.933072
0.202811
26.3304
9.39452
3.10563
0.947293
0.20539
25.2927
9.2386
3.07562
0.941056
0.204307
27.2428
9.62824
3.16178
0.961098
0.208033
26.2153
9.47549
3.13164
0.954447
0.206823
27.8992
9.80664
3.20795
0.973054
0.210384
27.2098
9.72176
3.18925
0.968511
0.209514
28.3003
9.90054
3.23394
0.979914
0.211742
21570.9
32989.3
21996.5
32805.4
22468.1
32318.4
22284.1
31450.1
20680.2
29383.4
18776.7
21450.9
18880.9
22706.7
18875.1
21185.9
19256.2
21372.6
20359.2
3633.23
855.574
232.601
52.5753
22228.2
6733.05
1807.09
498.516
113.581
20262.6
3570.54
839.249
228.309
51.6163
22040.8
6642.88
1785.41
492.658
112.061
19947.2
3501.29
824.161
225.062
51.0401
21613.8
6522.67
1759.3
487.295
111.226
19276.2
3350.97
791.313
217.729
49.6543
20820.4
6311.91
1714.18
478.329
109.73
18061.7
3088.96
736.187
205.111
47.1236
19472.5
5972.59
1641.42
462.908
106.835
16153.1
2910.7
726.866
207.936
48.1741
16188
5283.75
1512.26
439.49
103.216
16690.1
2940
720.685
203.985
47.1125
17124
5524.64
1554.95
445.255
103.624
15972.2
2916.38
734.808
211.316
49.0088
15893
5191.89
1496.34
438.429
103.567
15953
2904.89
732.964
211.186
48.9573
15901.5
5184.01
1495.75
440.207
104.082
39820.4
61665.7
59602.3
37947.1
19891.9
21386.2
29852.9
32251.6
25196.5
29534.2
42411.5
61185.5
54750.1
75724.7
34571.3
40859.6
25915.9
28572.3
13569
15231.6
3219.68
1736.65
74.9323
32.1414
31.4153
24.1246
47.6548
2678.41
2006.93
1029.09
1125.11
726.747
279.939
525.816
301.194
161.883
191.632
124.955
2564.96
845.701
258.105
216.78
414.988
317.932
183.016
130.134
72.5664
56.5754
134.996
117.09
2907.27
1327.82
1657.74
720.419
458.653
917.522
177.454
76.2187
217.877
5772.9
4439.13
3317.03
2614.37
3215.05
3361.59
2931.85
2324.69
1871.05
1739.32
176.02
205.142
199.24
180.705
167.262
77.0011
92.6863
92.931
86.4677
81.1412
75.55
91.4567
92.1129
85.9207
80.684
58.2156
70.9071
71.9195
67.5265
63.6735
113.454
135.075
133.808
123.155
114.795
4951.85
3963.16
2905.93
2184.16
2657.38
3702.6
2869.67
2019.45
1485.43
1391.83
2066.2
1884.62
1496.05
1172.04
1037.06
2072.33
1645.53
1160.86
841.267
704.656
1324.12
1060.26
752.496
535.964
433.877
612.096
635.256
553.41
459.908
406.158
1091.08
1043.07
850.224
673.322
582.794
636.888
627.268
522.321
417.091
357.973
365.182
397.909
361.318
309.352
276.68
423.879
447.743
395.239
330.433
291.12
285.378
316.909
292.401
253.075
227.298
4823.73
3977.2
2992.03
2312.19
2814.42
1750.24
1680
1393.47
1131
1018.18
574.098
612.51
547.359
464.811
416.328
488.05
531.23
483.955
417.596
377.352
901.288
929.383
811.277
680.498
611.376
708.298
758.981
683.259
585.838
529.436
418.023
465.978
434.508
382.322
349.05
301.123
342.107
323.719
287.288
262.737
170.434
198.204
191.427
172.202
158.261
133.924
157.871
154.705
140.988
130.615
309.239
345.473
321.338
280.803
254.356
270.746
307.203
290.199
256.976
234.595
5322.28
4236.41
3197.69
2514.23
3076.93
2639.81
2398.49
1947.51
1585.99
1463.66
3371.92
3071.3
2430.62
1945.13
1904.63
1529.65
1530.44
1315.22
1099.8
997.779
1004.98
1051.4
930.466
790.372
714.595
1907.44
1848.22
1548.14
1267.34
1147.25
405.472
451.952
420.927
369.659
336.898
178.873
207.964
201.214
181.696
167.624
492.424
539.371
494.386
428.929
388.808
24149.8
16666.6
24487.6
18313.2
30352.2
48080
32487.2
48308.6
24455.4
24611.7
21765.3
24801.3
25813.9
22992.5
36415.4
27165.2
20107.7
21245
9895.57
9456.36
21527.4
21825.2
11184.9
10021.4
28341
29283.6
26935.8
22935.1
29139.9
19104.1
14007.3
16370.6
22417
22420.9
50711.7
52728.9
32255
34251.5
24162.6
19297.9
24010.4
15416.7
12000.1
11635.3
24931.4
29377.5
10315.2
11950.7
26793.2
33079
12677.2
14941.7
24220.8
38109.2
13968.2
23938.5
4578.74
13055.6
3281.45
8895.92
21255.6
23237.5
21525.9
23978.9
20597.7
19924.6
22765
20808.4
22012.6
27749.3
25097
27082.3
21291.2
24244.3
21352.2
24337.2
24257
21190.3
24784.4
21285.3
19268.3
27933.3
18050.7
27946
29536.4
39524.5
35564.9
57720.1
32342.1
47773.9
35727.9
64479.1
27059.7
33290
35272.6
54499.3
26074.7
29992.5
35347.3
53529.4
34513
36481.2
46801.2
72073.3
33715.5
33374.1
49825.7
72458.5
31562.6
29887.6
53001.8
70550.3
20981.6
18952.4
26116.7
33345.2
59588.6
17730.7
18560.2
26834.9
28962.9
69456.1
18419
21877.2
25547.7
33966.7
74912.5
14525.7
11670.5
16485.1
24314.1
16242.7
13147.6
16940.1
24564.5
18393.6
13900.3
17509.3
24518
15751.4
13033.5
16556.4
13840.5
23050.4
18406.3
21377.9
16955.8
18046.9
25155.8
16943.9
14563.2
20375.4
18077.8
22876
19230.2
24258.9
19833.4
17508.7
23806.4
22795.3
24073.4
23398.5
25513.3
19079.6
18385.4
19572.4
19618.2
24854.6
24078.4
24762
23310.9
23356
25969.4
23434.7
26217.8
19393.7
20415.2
19503.8
20678.6
24637.8
23840.1
24611.2
23832.1
24316.5
22380.1
16580.3
19997.1
24823.1
22311
16803.1
20684.4
24090.3
21903.7
16664
19723.3
23872.1
21421.9
16960.9
19467.5
9622.81
9794.24
4879.39
4141.04
10871.5
10004.7
5525.23
4950.15
10349.9
8658.01
6189.6
5504.72
10800.4
8942.34
11946.6
10506.3
13899.6
11569.5
12315.2
9333.22
7671.34
5386.17
12126.1
9683.28
15030.4
11997.2
14223.2
10672.9
12040.9
8217.01
6826.33
3833.04
22281.6
19630.3
30598.2
24411.6
27457.2
22471.7
42254.7
28607.2
18972.8
13514.8
22197.1
15126.9
18633.7
13903.2
22308.2
15613.5
20277.6
16261.5
17725.4
15068.5
17404.4
20237.4
28780.3
30954
34282.1
36994
22274.4
24764.9
19768.3
20601.8
22117.4
24315
9383.25
5642.77
10289.6
6018.49
9773.03
5620.58
10645.4
5963.85
10019.1
5580.33
11154.1
6306.23
11625.8
6777.8
12568.8
6875.52
15038.3
13285.7
17984.3
14216.6
18966.3
17008.4
22232
18230.8
16111.2
10621.7
14082.4
10012
20188.3
14781.2
21464.1
14941.4
24811.2
18922.3
25777.3
19084.7
17502.2
11030.4
18436.5
11165.7
9472.06
5416.96
7446.08
4255.41
8334.9
4914.09
7040.43
4028.03
10288.7
5860.97
7718.59
4390.87
10723.7
6184.64
7784.65
4415.9
8089.41
7080.55
4831.8
3948.49
8287.02
7295.44
4736.72
3925.43
8357.76
7136.07
4633.52
3976.1
11785.1
15584.8
11204.1
7072.05
4354.46
13918.1
11812.7
11468.2
6702.76
3983.47
15698.8
12162.6
9304.24
6612.49
3762.73
5929.63
4706.88
3274.15
2741.79
6076.47
4783.48
3313.78
2778.53
5855.34
4560.71
3332.7
2709.52
12567.3
10048.7
10024.5
7869.91
8668.39
7055.1
5699.66
4556.88
3331.17
2640.69
12817.7
9801.64
9879.46
7092.09
7458.24
5314.14
5260
3750.14
3157.53
2458.42
9917.68
6448.93
10295.5
6498.98
13218.2
9404.58
13947.1
10010.1
7493.69
4596.95
7250.11
4645.23
10645.5
6600.91
10742.3
6659.19
14357.6
10634.8
14457.3
10775.5
7799.96
4593.88
7859.64
4646.95
5071.01
3082.32
3113.36
2349.98
4993.68
3145.75
3113.02
2347.44
5308.43
3104.08
3155.84
2406.3
5441.06
3099.53
3290.8
2413.97
4079.11
3597.91
3826.7
3164.69
4167.29
3635.13
3708
3018.5
3860.26
3391.65
3468.46
2763.15
7995.81
6518.18
6072.11
4874.96
5588.57
4693.58
3736.52
3016.6
3190.48
2367.7
7232.81
5555.86
4962
3831.96
3768.81
3028.96
2894.52
2240
2906.41
1907.74
2449.43
904.919
315.645
99.038
2620.6
963.071
332.9
103.296
2417.66
890.957
310.765
97.3473
2626.87
967.095
339.247
106.648
2361.48
860.422
315.707
102.563
2658.17
959.887
355.46
116.442
2846.38
996.473
336.679
103.5
2900.03
1006.36
325.364
97.8371
2327.97
858.459
319.8
104.6
1831.8
704.742
271.767
91.3156
2115.64
793.822
306.539
105.083
1751.17
685.371
267.48
91.3854
2490.87
906.093
322.115
101.384
1884.13
719.435
271.232
89.8668
2580.93
931.124
321.828
100.506
1899.91
727.104
271.705
90.4488
2142.87
808.959
292.953
95.1318
1761.13
690.073
262.683
87.7072
2094.02
792.091
288.895
94.2282
1740.79
683.232
260.091
87.109
2040.74
767.356
288.308
95.6626
1752.61
679.232
259.367
86.6386
1868.36
713.245
275.47
95.1307
1708.49
664.745
261.288
87.6449
1657.55
661.792
260.958
90.9168
1376.73
590.51
207.948
47.9607
979.609
534.618
190.993
45.3634
1390.65
593.438
210.424
49.7998
999.985
537.336
192.085
45.7989
1428.61
596.518
209.668
48.6578
1039.63
539.965
190.824
45.2158
1422.67
595.578
215.248
51.3528
1035.62
538.878
191.664
45.8219
1375.5
588.66
222.569
56.5015
949.966
529.282
190.805
46.0393
1318.99
576.846
212.229
52.1569
830.956
509.702
189.376
45.9269
1331.06
579.763
215.528
53.3658
844.035
516.32
189.082
45.7183
1317.22
575.31
205.348
48.2427
822.416
507.741
186.73
44.8172
1337.56
576.988
204.204
47.6605
842.186
508.727
186.095
44.4875
30.677
10.7097
3.49777
1.05832
0.22843
31.0599
10.7613
3.50513
1.05927
0.228517
30.5755
10.7472
3.50389
1.05883
0.228403
31.537
10.8197
3.50992
1.05903
0.228315
31.3794
10.8018
3.50597
1.05818
0.228163
32.5945
10.8396
3.50543
1.05692
0.227789
31.1712
10.7543
3.49021
1.05244
0.226772
30.426
10.6027
3.45129
1.04145
0.224429
31.586
10.7988
3.49986
1.05566
0.227535
30.6765
10.7161
3.48956
1.05385
0.227222
32.025
10.8089
3.50376
1.0573
0.227952
31.1295
10.7605
3.49772
1.05603
0.227699
30.7654
10.7034
3.48213
1.0509
0.226504
30.411
10.6365
3.47078
1.04888
0.22618
30.6509
10.5884
3.44599
1.04043
0.22428
30.4083
10.5547
3.44008
1.0396
0.224195
30.5698
10.6673
3.48929
1.05698
0.228277
30.524
10.6459
3.48395
1.05606
0.228162
30.5936
10.6962
3.49527
1.05779
0.228337
30.5484
10.6692
3.48945
1.05694
0.228255
31.0045
10.7576
3.5018
1.05816
0.228274
30.7794
10.7272
3.49791
1.05786
0.228294
31.2172
10.7812
3.50237
1.05759
0.22808
31.0745
10.773
3.50216
1.05783
0.228163
31.3194
10.7745
3.5007
1.05697
0.227922
24368.9
32923
24333.3
32695.4
24230.4
32203
23330.5
31233.6
21333.5
29166.2
19123
21786.1
19412
23119.8
19070.4
21384.5
19318.1
21434.4
21085.8
3724.43
873.548
236.508
53.2345
22409
6854.86
1842.36
506.754
114.991
20893.7
3651.79
855.629
231.903
52.2242
22183.2
6752.13
1817.72
500.251
113.356
20426.8
3567.05
838.051
228.162
51.5669
21703.5
6613.18
1787.14
493.924
112.361
19607.4
3400.95
802.342
220.219
50.0782
20876.6
6384.78
1737.17
483.836
110.674
18322.3
3128.32
744.566
206.952
47.4327
19557.3
6036.33
1660.32
467.329
107.588
16335.4
2936.5
731.678
208.892
48.3267
16381.7
5334.02
1523.56
441.819
103.589
16940.1
2974.71
727.324
205.35
47.3345
17355.8
5588.53
1570.39
448.599
104.176
16080.5
2932
737.712
211.884
49.0986
16010.8
5222.43
1503.04
439.785
103.783
15988.7
2910
733.909
211.369
48.9854
15940
5194.04
1497.93
440.644
104.151
39466.2
61781.4
59532.9
36721
26195.4
33897.9
24822.2
33662.9
32084
57330.8
34885.7
59171.1
0.387638
0.695145
1.53308
3.50261
8.03022
18.3415
0.645292
1.12141
2.37954
5.19611
11.1892
23.4732
0.242028
0.180659
0.470713
0.383107
1.12602
0.994889
2.74919
2.61342
6.56363
6.45312
14.849
13.6104
41.5813
91.2325
191.822
384.295
664.322
881.009
47.5671
91.8151
166.737
278.473
408.273
499.181
0.966671
1.2489
1.35509
1.3542
1.32773
1.7258
2.2116
2.37682
2.35397
2.29491
3.78617
4.80601
5.10831
5.00725
4.85001
8.59887
10.7997
11.341
10.9936
10.5747
19.5687
24.26
25.1109
24.0267
22.927
44.2653
53.968
54.8647
51.675
48.8464
1.60267
2.05541
2.21112
2.19196
2.13826
2.77139
3.52261
3.7504
3.68215
3.5702
5.84656
7.35427
7.73702
7.51301
7.23463
12.6864
15.7802
16.3944
15.7394
15.05
27.1193
33.3049
34.1207
32.3535
30.705
56.3971
68.2282
68.7918
64.3364
60.5647
0.60565
0.787528
0.861079
0.86679
0.853751
0.453196
0.591979
0.650779
0.658453
0.650639
1.1726
1.51219
1.63739
1.63311
1.59916
0.95653
1.23872
1.34791
1.3506
1.32634
2.79061
3.56523
3.81824
3.76906
3.66663
2.47108
3.16971
3.41042
3.38088
3.29767
6.77427
8.56546
9.06412
8.84812
8.54751
6.45333
8.19024
8.70319
8.52727
8.25595
16.0603
20.0537
20.9207
20.1564
19.3137
15.8254
19.8356
20.7752
20.0826
19.2796
36.0123
44.2701
45.3925
43.061
40.8716
33.1326
40.983
42.2824
40.3099
38.3651
99.0571
118.151
117.425
108.514
101.464
213.644
247.775
239.609
216.697
200.342
439.072
491.203
459.803
406.094
371.539
852.32
909.005
818.423
704.722
640.109
1416.55
1425.7
1232.18
1037.56
942.485
1838.79
1792.2
1515.13
1260.9
1146.62
113.08
134.379
133.026
122.528
114.356
215.478
250.691
243.058
220.225
203.763
385.244
437.116
414.091
368.793
338.481
631.626
696.383
643.58
563.581
513.943
908.56
973.352
879.375
759.392
690.054
1098.46
1157.15
1032.11
884.597
802.71
0.387398
0.694522
1.53276
3.50519
8.04183
18.3681
0.644607
1.11893
2.37364
5.18236
11.1541
23.3782
0.242012
0.18075
0.471151
0.38419
1.12946
1.00174
2.76576
2.64839
6.62569
6.58879
15.0755
14.2426
41.5345
90.7149
190.024
379.914
658.392
878.137
47.3054
91.1617
165.38
276.248
405.856
498.101
0.966378
1.24929
1.35658
1.35676
1.33096
1.72552
2.21436
2.38409
2.36558
2.30911
3.78896
4.81838
5.13357
5.04437
4.8941
8.61501
10.844
11.4203
11.1036
10.7024
19.6241
24.3941
25.3378
24.3328
23.2776
44.4029
54.311
55.446
52.4546
49.7359
1.60149
2.05519
2.21268
2.19533
2.14273
2.76729
3.52243
3.75718
3.69591
3.58823
5.83736
7.35585
7.75683
7.55078
7.28326
12.6658
15.7867
16.4451
15.8329
15.1693
27.0648
33.3125
34.2305
32.5614
30.9712
56.2364
68.1983
68.9847
64.7433
61.0981
0.605818
0.788251
0.862561
0.868985
0.856374
0.453585
0.592878
0.652305
0.660543
0.653061
1.17456
1.51691
1.64551
1.64428
1.61211
0.959963
1.24499
1.35725
1.36252
1.33972
2.80196
3.58663
3.85062
3.81064
3.71339
2.4907
3.20128
3.45322
3.43225
3.35363
6.82382
8.64937
9.1818
8.99214
8.70576
6.54885
8.3338
8.88605
8.73701
8.47905
16.24
20.345
21.3138
20.6242
19.8202
16.1902
20.3698
21.4371
20.8248
20.0592
36.648
45.2541
46.6644
44.5262
42.4311
34.7665
43.2261
44.886
43.0786
41.1887
99.1324
118.681
118.526
110.101
103.322
212.836
247.787
240.854
219.04
203.307
435.716
489.222
460.249
408.77
375.5
843.653
902.232
815.6
705.652
643.268
1404.62
1415.55
1226.13
1035.52
942.894
1832.97
1787.1
1511.8
1259.33
1146.14
112.595
134.136
133.234
123.175
115.263
214.19
249.788
242.986
220.976
205.005
382.485
434.897
413.225
369.292
339.797
627.029
692.407
641.409
563.263
514.745
903.529
968.827
876.524
758.285
690.013
1096.21
1155.09
1030.73
883.951
802.508
3203.28
1729.13
75.2003
32.5871
34.8179
25.6281
49.2979
2537.93
1971.39
1022.53
1230.06
307.069
567.794
186.555
236.215
149.005
2463.1
830.938
270.184
221.183
414.465
316.218
181.684
132.215
84.6522
63.1653
146.839
122.519
2860.7
1311.22
1613.14
708.566
451.831
898.119
177.713
78.7023
219.259
5742.23
4415.38
3302.67
2608.1
3214.66
3346.93
2919.68
2316.97
1867.51
1738.38
177.267
208.003
203.776
186.495
173.697
78.3044
94.8006
95.747
89.7609
84.6658
84.0909
102.636
104.46
98.5007
93.1872
62.0735
76.1425
77.9192
73.8287
70.0482
117.91
141.62
141.837
132.007
123.974
4823.5
4076.23
3152.73
2490.73
3037.82
3821.88
3271.82
2557.79
2054.14
1963.36
2103.56
2016.01
1693.04
1397.38
1270.7
2503.1
2274.87
1822.37
1484.43
1318.06
686.283
741.822
676.959
588.002
533.74
1216.02
1234.37
1076.07
907.843
815.145
428.808
483.376
456.206
405.351
371.361
538.045
597.768
556.695
489.544
445.956
346.477
397.463
380.684
341.729
314.492
4677.58
3945.99
3053.17
2427.47
2983.46
1740.46
1712.38
1463.55
1223.87
1121.72
609.4
667.579
615.535
538.898
492.108
502.789
557.494
519.418
458.333
420.238
909.799
958.07
857.943
738.197
674.016
708.805
768.856
702.978
612.541
559.604
416.481
467.624
440.177
391.227
359.692
307.816
353.865
339.818
306.146
282.831
200.59
237.197
233.811
214.711
200.102
150.529
179.705
178.872
165.608
155.067
340.629
389.539
372.459
334.366
308.233
285.816
329.755
317.857
287.175
265.658
5238.81
4177.34
3167.43
2508.51
3092.12
2608.07
2373.52
1933.57
1582.13
1466.13
3296.97
3034.1
2434.52
1979.6
1961.27
1507.66
1515.68
1311.7
1106.03
1009.76
993.825
1048.09
937.623
805.956
734.795
1878.93
1845.78
1574.34
1314.07
1205.01
408.2
459.698
433.758
386.101
355.119
185.841
218.6
214.559
196.563
183.098
499.06
554.22
516.788
456.269
418.428
581.101
642.477
742.891
817.496
758.991
340.253
23439.1
23421.9
24644.5
26173.3
21333.1
21447.7
22385.7
20342.6
20797.5
31887.4
20936.9
31698.5
24033.4
20402.7
38699.1
21386.6
21154.1
22087.7
23209.4
18894.4
19060.1
20359.5
18811.1
20042.3
38254
19996.7
36559.1
23646
26221.6
40922.2
18622.6
18215.2
18559.1
19259.6
16446.5
17304.5
17426
16682.2
22056.1
30918.7
22542
30062
24735.3
28687.2
33832
15629.7
15270.2
14740.7
15157.3
14149.5
15235.9
13922.7
13633.5
18470.4
24373.1
18862.1
22789.5
19983.9
22677.4
25479.4
12831.8
12531.1
11782.4
12048.1
12225.7
13335
11203.9
11152.4
15578.6
17179.2
15958.9
15487.2
15870.8
15556.8
17444.5
11255.4
11039.3
9688.22
9882.6
10622
11161.1
9340.9
9223.55
13359.9
12439.3
13394.5
11382.5
12858.3
10907.6
13317.5
21167.2
19701.3
23978.5
26059.6
18161.9
17186.9
21081
18913
16470.4
9843.49
16140.6
9894.95
13599.5
11915.1
12844.6
18717
17625.3
20755.1
22201.3
16557.3
15892.1
18706.7
16912.7
13787.2
8192.74
13535.3
8284.13
11038.2
9204.14
10175.6
15245.7
14559.6
16586.9
17390.5
13853.6
13257.5
15413.3
14183.9
11150.1
6637.79
10682.3
6484.25
8831.03
6704.12
8358.84
11374.8
10968.2
12647.8
13089.7
10457.5
9867.74
12067
11103.2
8213.98
5134.2
7914.2
5068.69
6625.15
5342.53
6593.15
8685.04
8422.21
9904.8
10178.5
7895.78
7386.29
9595.66
8882.46
6244.9
4492.16
6025.32
4459.5
5299.24
4750.99
5537.44
6752.3
6554.21
8058.19
8255.75
6246.4
6066.41
7787.48
7370.43
5055.99
4045.17
4945.86
4066.12
4487.05
4447.92
4998.37
15399.9
8722.92
24511.2
16402.5
26903.9
20195.5
40354.2
52493.8
53894.8
68502.3
35759
31708.4
22636
18483
11351.8
7602.75
23788.1
22470.9
21163.8
23643.5
31602.7
26001.2
38634.7
28710.5
10460.8
7438.03
5930.34
4691.9
11993
10098.3
7614.89
6734.61
25448.5
24835.3
23724.7
17637.1
17573
14887
13868.7
16229.3
21888.5
22225.6
50164.2
52383.2
32598.6
34258.8
22562
18900
22112.8
15014.9
10478.3
11224.6
10221.7
17063.7
5368.04
7336.21
13974.3
22669
8627.23
11143.3
14460
29880.7
10349.4
19621.4
3706.03
11514.1
3093.38
8578.78
18811.4
23288
20767.1
23932.8
21717.9
20953.6
23532.9
21334
19381
27026.1
18779.3
25990.6
21024.2
24199.7
21292.1
24322.5
24582.2
21432.8
24864.8
21356.7
18254.2
27540.6
17811.8
27826.6
27172.2
36506.8
34272.5
56005.6
28695.7
43029.5
33701.7
61662.5
25863.8
31743.8
34579.2
53570
25733.3
29541.3
35136.6
53235.4
10690.2
14578.5
27961.9
51367.2
12838.1
14975.2
35134.4
56703.1
14930.8
15027.2
42671.8
59933.3
27193.4
24488.7
27455.6
30954.5
53932.9
23766.8
26251
27400.6
27060.2
63168.8
21927.9
24595.2
25779.9
31758.5
70928.5
3439.89
4098.68
7395.2
19886.7
4811.63
5411.19
9899.87
21109.5
6632.27
5330.47
12688.3
22309.8
21335.5
17812.8
22291.6
18258.2
23306.6
17550.6
19612.6
15058.9
15621.9
24340.5
20170.5
16785.3
23154.9
19816.6
23517.2
19393.7
22824.3
18624.3
16187.2
23517.6
23737.5
25103.8
23731.4
25988.5
20513.6
19619.1
20215.9
20241.1
24683.6
24060.7
24694.7
23413.7
23489.5
26171.6
23469.3
26273
19678.6
20710.6
19585.1
20763.2
24535.1
23806.6
24583
23822.5
23765.9
22021.9
16063.9
19584.3
23945.6
21747.5
15915.9
20069.5
23800.3
21705.5
16390
19490.4
23781.4
21359.4
16868.5
19391.7
2224.51
1058.81
524.516
1138.51
470.056
349.339
3216.27
1210.88
635
2059.53
1150.56
647.166
3093.12
1477.75
1016.02
3396.2
1850.41
1190.8
12876.4
7809.96
5053.23
13427.1
8433.26
5597.66
10966.9
6769.24
4595.43
9084.67
5005.27
3211.13
5220.15
2353.75
1342.14
12515.4
7711.28
4848.26
14746.5
8849.48
5483.61
12814.2
6959.07
4108.97
9743.19
4746.33
2734.1
5466.32
2248.26
1146.04
28876.8
26316.6
33158.3
27622.7
34963.7
27994.9
44902.3
31120.5
19773.2
17905.7
19946.6
16708.3
22791.6
19193.9
23097.4
17727.6
22646.8
21424.1
20714.7
21064.8
24544.9
23209.2
30258.6
31370.3
35244.8
37221.1
23581.8
25160.6
21209.7
21000
23872.3
24906.1
12573.5
5858.28
12050.4
6564.79
13043
5881.46
12227.2
6464.78
13258.4
5875.42
12689.1
6825.04
12613.4
7189.05
12927.5
7026.29
19221.1
14748.2
20071.4
15136.9
22635.1
18926
24105.6
19279.1
18326.6
11256.6
18270.8
10815.7
21214.7
15271.5
21763.3
15090.9
25641.7
19434.6
26001.1
19235.2
18671.3
11405.4
18799.3
11284.2
10335.6
5646.78
7759.85
4337.4
9170.46
4882.7
7268.06
3985.64
10836.2
6075.83
7939.31
4469.79
10898.1
6265.02
7857.74
4444.2
1644
716.422
2754.27
1368.12
1713.26
849.215
2886.95
1593.2
2057.44
1272.42
3158.32
2049.41
9134.44
16227.1
6111.31
5523.56
3556.98
15003.1
9018.38
4520.85
4422.63
2737.74
16796.4
11843.1
8462.41
5848.73
3329.5
290.405
119.014
725.219
452.352
387.895
153.615
940.8
603.555
684.924
316.139
1326.2
872.327
13879.7
11181.1
7928.69
6052.43
4308.34
3283.87
3335.62
2152.49
2042.87
1339.88
13788.6
10457.6
9247.58
6387.78
6247.2
4098.26
4163.94
2627.03
2595.71
1853.38
10285.6
6401.25
10711.3
6644.77
14146.6
9909.86
14548.4
10370.6
7709.46
4609.99
7227.44
4342.59
10902.5
6724.84
10825
6702.68
14666.6
10841.3
14550.2
10838.7
7974.07
4658.09
7919.45
4673.9
5131.4
3027.43
3103.72
2289.28
4800.42
2805.95
2944.47
2087.7
5396.63
3125.41
3182.85
2404.93
5475.4
3112.49
3304.81
2418.76
145.975
91.4711
56.0465
718.449
245.99
143.242
142.667
109.553
72.3084
839.009
313.923
192.168
257.237
207.903
154.37
1038.97
436.856
278.377
7703.57
4783.15
3214.98
4077.58
2558.09
1768.56
2256.57
1411.42
999.347
1409.51
855.942
587.643
1354.92
608.314
383.376
7093.72
4200
2631.09
4003.35
2282.99
1439.18
2466.7
1356.99
857.236
1701.36
904.53
549.892
1841.68
727.393
422.034
2248.89
800.386
276.875
86.8104
2593.02
900.784
303.278
92.8721
2246.75
796.577
276.192
86.6501
2631.89
921.419
315.538
97.9249
2229.2
780.971
285.276
92.8762
2686.77
928.132
336.607
108.983
2905.15
985.598
326.741
99.2852
2926.87
1004.26
322.365
96.4764
2318.11
831.047
304.785
98.6629
1817.13
685.103
261.266
87.0607
1998.3
732.352
280.894
96.1034
1675.52
641.537
249.438
85.0571
2515.19
896.873
314.639
98.106
1889.08
712
265.911
87.4504
2593.65
929.206
319.565
99.4436
1903.28
725.208
270.056
89.6613
1570.67
636.392
239.791
79.8449
988.084
464.121
195.76
69.409
1568.1
631.305
239.524
80.1778
1033.92
473.787
198.02
70.0909
1611.52
631.338
245.019
83.1288
1173.61
505.074
206.722
72.253
1577.72
607.717
239.932
84.385
1298.24
527.923
218.345
75.9075
1470.83
583.52
233.256
82.3178
582.494
346.448
143.159
35.4366
300.347
289.647
123.07
31.4101
650.897
366.849
149.603
37.6624
357.26
310.096
128.597
32.6635
795.672
405.387
158.478
38.6179
471.682
346.88
136.637
33.9861
994.564
454.902
174.219
42.9151
626.304
392.504
148.558
36.6296
1159.82
503.749
193.751
49.7302
735.54
433.836
159.94
39.1073
1295.21
557.489
202.27
49.3992
803.726
486.202
179.009
43.217
1246.77
536.537
197.82
48.9267
753.913
464.803
170.133
41.1605
1314.97
567.89
200.537
46.8502
818.853
499.111
182.046
43.5016
1338.72
575.1
202.777
47.2324
842.917
506.666
184.774
44.0986
26.8129
9.41761
3.09894
0.943894
0.204582
27.6492
9.56757
3.12849
0.949978
0.205625
27.1807
9.60718
3.14924
0.956473
0.206993
28.6741
9.81605
3.19072
0.965772
0.2087
28.3795
9.82133
3.20068
0.969714
0.209601
30.2237
10.0294
3.24687
0.980996
0.211765
29.6795
10.2203
3.31635
1.00073
0.215783
29.9016
10.4076
3.3866
1.022
0.220271
29.5401
10.0835
3.27251
0.988878
0.213423
28.9232
10.1046
3.29463
0.996376
0.21504
29.2554
9.92652
3.23013
0.977888
0.21126
28.7048
9.99312
3.259
0.986471
0.213034
29.5217
10.2402
3.33078
1.00576
0.216892
29.3638
10.2457
3.34254
1.01045
0.217969
30.2381
10.433
3.39419
1.02478
0.220926
30.062
10.4221
3.39576
1.02616
0.221306
25.9189
9.24084
3.06457
0.937095
0.203454
24.8721
9.10632
3.04113
0.932618
0.202721
26.3234
9.39229
3.10489
0.947066
0.205341
25.2865
9.23679
3.07498
0.940855
0.204262
27.2325
9.62499
3.16077
0.960797
0.207968
26.2053
9.47243
3.13069
0.954162
0.206762
27.8866
9.80273
3.20675
0.972704
0.210309
27.1973
9.71796
3.18809
0.968173
0.209442
28.2863
9.89636
3.23266
0.979543
0.211663
21488.6
32901.8
22001.5
32810.4
22471.3
32320.7
22286.2
31451.6
20681.6
29384.7
18777.6
21451.8
18882
22707.8
18875.9
21186.7
19257
21373.4
20351.7
3610.79
848.883
230.696
52.1419
22211.5
6721.39
1802.82
497.199
113.269
20257
3572.25
839.609
228.382
51.6296
22037.8
6641.7
1784.88
492.464
112.013
19946