/*--------------------------------*- C++ -*----------------------------------*\
| =========                 |                                                 |
| \\      /  F ield         | OpenFOAM: The Open Source CFD Toolbox           |
|  \\    /   O peration     | Version:  2306                                  |
|   \\  /    A nd           | Website:  www.openfoam.com                      |
|    \\/     M anipulation  |                                                 |
\*---------------------------------------------------------------------------*/
FoamFile
{
    version     2.0;
    format      ascii;
    arch        "LSB;label=32;scalar=64";
    class       volScalarField;
    location    "0.4";
    object      gradTz;
}
// * * * * * * * * * * * * * * * * * * * * * * * * * * * * * * * * * * * * * //

dimensions      [0 -1 0 1 0 0 0];

internalField   nonuniform List<scalar> 
5712
(
11254.9
36608
9116.95
37362
6594.95
37731
9832.31
55143
11964.2
74987.7
12234
56463.3
12153.2
47903.6
12679.6
43404.9
7560.44
4883.36
20516.6
12311.2
7121.2
3750.79
21171.2
10271.5
8982.36
7086.13
28542.9
21645.5
6788.17
5465.04
27938.3
21826.3
16038.5
6921.82
13891.4
6358.39
6927.47
15635.8
50611
13321.7
18253.3
5550.77
62005.6
16285.4
16023.7
4792.97
38032.7
11576.8
19408.9
6435.69
34689.3
10849.9
13226.3
6552.04
16681.8
6772.79
14317.2
7678.57
16125.5
6487.75
17131.1
10026.9
13695.3
6315.04
19227.2
7246.08
6477.54
2366.79
19768.4
13660.8
11683.6
8238.68
18568.8
14653.2
9924.89
7853.29
12524.2
8695.77
18940.2
13084.8
7284
5079.85
3154.19
2504.91
6017.31
4750.14
2488.12
2376.33
7929.48
5237.31
3634.16
2295.04
12259.3
7133.71
9841.28
12445.2
17595
13166
14837.7
21444.5
7725.24
3955.68
5548.35
6993.25
3523.95
1605.78
2149.95
2461.84
18823.2
32716
12470.3
36624.5
21350.4
31434
15046.2
37721.2
23232.9
27538.8
18777.5
35870.1
20145.1
19689.7
18657.9
19127.6
21218.2
18862.2
21795.8
25484.8
28996.7
43093.8
15766.5
15186.7
15512.8
18827.7
30051.2
37345.9
32049.6
43256.2
39954.7
33826.1
30045.5
42244.1
38686.4
28521.7
26764.7
38903.9
36665
13514.1
10262.8
16416.6
14163
20518.3
18739.4
24621.3
23572.8
34855.7
34667.5
12400.5
10769
14842.6
15178.7
17844.9
19805.8
22070.4
25120.4
30050.2
34062.3
11817.1
8527.7
7428.74
8110.05
12887.3
13304.6
8289.39
11410.3
7621.66
8393.27
12179.9
9300.22
2005.54
5014.35
467.976
1430.41
3865.6
7224.44
932.509
2132.48
1690.52
5019.39
330.302
1424.34
8540.47
7497.32
10689.1
6230.28
14138.7
10615
17813.6
11685.9
2705.09
3905.31
5297.17
2774.48
2235.93
2525.88
3224
2216.81
24661.4
14371.3
4509.55
27908.6
15413.9
4913.56
23496.6
14063.7
4696.04
27073.5
15235.5
4850.65
21041.4
12601.3
4044.67
25818.4
14899.9
4790.21
7047.79
4153.09
1280.91
11241
7129.89
2333.59
15452.2
9895.34
3264.51
19539.4
12055.8
3874.05
25120.8
14902.4
4906.43
7955.69
4752.08
1643.45
11618.2
8014.82
2947.02
15547.5
10722.2
3839.29
20039
13253.7
4595.34
25438.6
15247.2
5209.2
289.462
1968.44
2849.07
4049.21
2893.72
2937.12
6985.02
6245.84
534.18
697.771
569.123
724.217
324.657
981.711
658.392
1318.83
2457.37
1249.13
3358.05
2005.31
1556.2
2571.29
3309.56
-179.525
7514.92
986.051
-3142.07
-982.869
928.082
-20.2844
-41.78
-611.466
6485.09
2264.3
1696.01
821.294
6658.58
2320.81
2148.72
1003.77
6743.88
2456.03
2942.65
1473.76
1778.8
875.438
-24.107
105.131
12277.7
10030.5
5481.39
5135.02
15561.6
13573.5
7457.56
6761.82
3952.62
3692.32
8950.59
6670.94
2833.9
2814.13
957.37
1374.4
4195.73
3833.85
1661.95
1903.67
1843.62
2022.4
438.665
1031.74
2803.53
1304.81
2509.19
1146.25
4837.04
1868.08
4032.8
1714.25
1251.12
750.833
1392.06
622.149
166.031
198.927
689.798
239.506
7119.61
3683.66
2672.06
2061.11
7248.77
3985.64
2662.88
2070.06
7970.42
4662.23
2719.85
2116.15
13287.5
16943.6
10130.7
5440.64
2004.71
15230
11762.8
8994.19
5932.05
2436.14
14350.6
10833.9
7142.09
4313.44
1704.59
2098.19
1227.22
1478.75
1091.5
2444.49
1406.12
1595.76
1177.49
3113.49
1850.35
1801.57
1346.69
10824
7135.05
8238.35
5052.52
5209.92
3469
3742.51
2474.77
1830.15
1498.97
9090.22
7257.72
6630.35
5046.54
4536.62
3425.3
2966.96
2298.93
1373.84
1399.21
5987.13
3707.01
3717.71
2186.45
9292.6
6441.97
6021.01
4535.05
2425.7
1375.75
3764.01
2404.82
3280.46
1486.72
796.657
382.31
4144.33
2842.42
975.973
782.852
2311.87
947.672
594.916
246.59
1397.73
1018.16
678.381
789.662
2137.15
1547.26
921.72
1012.46
1385.27
685.993
474.364
522.591
231.6
79.5418
-201.959
-23.9271
652.838
251.961
67.7243
594.806
165.58
41.9109
779.854
315.527
89.3301
657.516
193.092
50.5972
1000.35
426.407
115.379
764.929
234.793
59.1519
4366.76
2362.28
684.006
2837.58
1401.5
403.415
1959.09
914.138
264.547
1340.13
578.495
152.703
872.223
267.685
60.5546
5062.65
2616.09
817.997
3338.88
1571.4
462.99
2223.11
1007.12
288.688
1459.89
611.746
165.063
956.73
269.017
67.1777
622.788
157.621
33.6415
4.44561
255.94
66.2667
15.0249
2.61569
638.757
163.672
36.8329
6.3583
296.167
78.1246
23.5901
6.90136
657.225
170.005
44.6835
11.0119
429.776
116.841
22.6403
3.25383
209.871
63.8102
0.704391
-4.55369
67.7768
30.5441
4.85362
0.721907
447.707
123.954
23.0323
-0.964613
331.549
88.9335
24.9184
2.35139
596.214
157.057
39.082
6.73927
473.895
122.279
34.6104
2.98273
275.47
81.4074
15.8882
0.46028
200.787
56.8176
17.4615
3.08961
102.112
35.437
8.86165
2.43991
74.561
24.2972
8.77586
2.76035
746.136
189.866
42.3954
4.96394
647.19
167.909
49.1336
6.90748
733.815
186.682
41.8213
4.62457
629.711
162.137
48.3444
6.46897
705.378
178.864
46.3732
7.65202
598.91
151.747
49.5513
7.91525
577.597
148.727
45.4931
12.5155
648.128
162.226
59.924
10.6761
475.084
121.18
39.3335
6.90358
435.039
110.158
37.4785
7.39466
157.306
38.4918
11.4508
3.30436
461.463
115.674
38.5042
7.42197
169.213
41.0593
12.3828
3.67334
490.026
120.629
40.5876
7.7938
181.812
43.4237
13.1075
3.99431
455.95
111.312
41.1072
7.95605
184.89
43.5649
14.5009
4.40717
413.529
102.215
38.1829
7.75969
167.177
41.1087
15.3161
4.62097
237.904
59.182
17.5853
3.42943
122.105
32.8721
10.2333
3.1722
314.262
76.5478
25.9521
5.28479
145.821
37.6674
13.1154
4.07215
151.13
39.0834
11.1301
2.38302
79.2041
22.5356
6.40269
2.13753
58.9144
17.3632
6.03448
1.86097
32.9589
10.9757
3.63506
1.36146
0.909084
0.179894
0.0370905
0.00812546
0.00221144
0.428236
0.0857754
0.0181561
0.00407979
0.00113378
1.12333
0.232292
0.0520924
0.0123594
0.00358669
0.707576
0.152687
0.0368743
0.00923922
0.00278194
1.23214
0.273214
0.0666873
0.0168062
0.00508366
1.20141
0.345983
0.0943309
0.0251451
0.00786262
0.879831
0.305173
0.0889204
0.0246017
0.00790066
0.830828
0.289576
0.088152
0.0252961
0.0083725
0.913898
0.271374
0.0742863
0.0198709
0.00624005
0.75161
0.225543
0.0635142
0.017323
0.00551084
1.10735
0.270496
0.0691533
0.0178911
0.00550191
0.879324
0.259864
0.0714163
0.0191178
0.00599056
0.795567
0.253703
0.0726411
0.0200223
0.00643346
0.701584
0.213817
0.0622743
0.01748
0.00569137
0.697318
0.226451
0.0685215
0.0197485
0.0065735
0.593343
0.184
0.0552852
0.0159807
0.00534263
0.855348
0.16058
0.0319988
0.00681876
0.00181381
0.369018
0.0653057
0.0127779
0.00269939
0.000713529
0.9756
0.197041
0.0421967
0.00961969
0.00270861
0.414303
0.0798154
0.0167625
0.00376931
0.00104993
1.01819
0.210833
0.0484604
0.0117608
0.00347167
0.587976
0.124372
0.0290573
0.00711992
0.00211173
1.2016
0.279362
0.0700333
0.0179107
0.00546187
0.81089
0.183979
0.0454697
0.0115305
0.00349464
1.09807
0.300246
0.0800956
0.021101
0.00654013
3514.91
8438.46
3643.58
8359.07
4029.43
8212.47
4530.89
8213.91
4378.75
8060.46
1439.91
2592.86
2632.6
4621.25
649.94
1194.02
110.391
313.501
22530.7
6368.12
2121.04
964.436
625.287
6285.1
2015.81
747.446
334.544
205.083
22117.8
6230.65
2082.05
946.539
616.426
6397.13
2198.73
766.049
345.23
217.514
20881.7
5888.87
1974.33
900.444
587.214
6179.51
2115.55
736.759
331.947
209.629
18913.4
5345.05
1803.12
826.44
539.836
5907.21
1993.92
689.547
309.343
194.451
15778.4
4485.85
1528.72
705.941
462.49
5465.3
1817.55
627.086
281.389
176.785
7608.73
2290.39
802.566
375.425
246.631
2620.16
888.531
306.978
137.996
87.362
11225.9
3310.53
1145.26
532.066
349.078
3885.66
1303.71
453.659
205.473
130.242
4493.35
1370.5
484.489
228.022
150.032
1457.22
511.514
176.258
79.5148
50.8254
1532.94
467.991
166.56
78.8444
52.006
531.465
171.95
56.4316
27.839
16.0945
-1545.73
-542.08
5791.04
-1601.86
866.458
926.956
2567.9
3351.22
2173.42
4184.81
3875.99
5998.45
5065.01
6253.54
2537.98
3377.09
2498.07
2971.86
1300.18
1351.15
1530.82
797.945
261.158
37.6066
9.77049
9.08472
110.243
11764.1
4074.07
3849.95
3075.41
728.282
523.074
2222.83
250.73
292.928
244.331
60.6599
6256.02
3031.27
1311.41
813.364
1964.9
1112.34
385.298
608.257
-15.1474
110.526
579.366
474.94
6782.62
2486.34
3951.16
1619.68
1844.35
3492.92
742.488
83.6849
720.67
843.916
523.106
343.634
226.294
120.074
520.254
339.527
211.65
120.115
43.6903
212.583
159.005
106.388
60.063
19.3665
31.7558
24.6735
17.0653
9.84875
3.1982
7.74579
5.6351
3.69169
2.06542
0.663896
7.182
5.219
3.42566
1.92519
0.622651
91.2242
69.5418
47.3932
27.1309
8.80629
7058.73
4719.95
2990.42
1828.96
1033.63
2749.89
1782.49
1164.43
675.796
264.112
2583.62
1719.92
1099.22
625.056
235.693
1980.9
1219.58
760.441
425.541
145.799
487.013
294.713
187.709
105.755
35.9045
423.045
314.913
210.658
119.687
39.2179
1632.08
1124.91
707.79
390.11
131.677
234.955
188.937
129.742
75.3089
25.2585
234.499
173.803
116.331
66.2968
21.7627
211.881
166.036
115.45
67.3809
22.3757
42.9213
28.3353
17.3613
9.4278
3.0674
3815.17
2636.73
1704.24
1058.88
600.019
2061.99
1381.76
893.624
509.855
187.975
1029.13
749.055
493.462
278.394
91.9334
636.532
461.741
303.061
170.251
55.7975
1473.11
1032.35
660.501
366.522
122.021
881.524
645.148
425.907
239.793
77.9011
303.763
221.665
146.14
82.2346
26.7817
488.415
360.829
239.231
134.483
43.426
-11.572
-7.55834
-3.99122
-1.58573
-0.323762
89.4028
66.6226
44.6128
25.3097
8.21153
460.401
337.08
222.072
124.549
40.3833
381.485
282.202
187.475
105.623
34.1958
3773.06
2231.57
1448.23
901.025
495.518
1642.55
1072.27
668.446
376.847
137.116
2499.72
1681.9
1062.32
610.934
229.66
1121.99
764.65
483.655
273.24
96.9473
1399.58
990.76
639.843
357.335
117.811
2391.4
1563.22
998.685
564
194.299
590.877
433.168
285.644
160.208
51.8104
67.5242
50.1796
33.513
18.9731
6.14534
569.109
415.3
273.559
153.799
50.0529
-47070.9
-74284.6
-39372.7
-59981
-40039.7
-79262.6
-47629.5
-100758
-30356.2
-21194.5
-32931.4
-21208.3
-26908.9
-17446.3
-32084.1
-17646.8
-41127.7
-32784.3
-57923.5
-43883.1
-35492.7
-29960.9
-48091.4
-37933.5
-27736.5
-29353.1
-23014.8
-23044.1
-28615.4
-25844.6
-60923.4
-16839.1
-24319.9
-9363.69
-71146.2
-20038.1
-21208.4
-8444.84
-47525.4
-14981.6
-25290.5
-9947.77
-43915.7
-13517.1
-23355.4
-9708.77
-28563.2
-10609.2
-22354.8
-10219.3
-24782
-9258.01
-22918.7
-11858.3
-19711.5
-8203.52
-24478.8
-8969.2
-8563.35
-3113.21
-17596
-12554.1
-15190.4
-9681.69
-14341.3
-11594.2
-12559.8
-8791.04
-16364.5
-10225
-19560.8
-13546.8
-10525.6
-6610.05
-5868.49
-3965.17
-8742.63
-6009.83
-4910.75
-3671.6
-11199.9
-6702.35
-6261.84
-3647.29
-15239
-8218.44
-11051.7
-13041.4
-19786.6
-14161.2
-15834.7
-22106.6
-10206.1
-4835.57
-6644.91
-7476.6
-5487.75
-2322.42
-3138.97
-2874.14
-24423.1
-31284
-14398.9
-36941.4
-25310.4
-29664.2
-16625.2
-37708.2
-25300.7
-26379.8
-19853.6
-35647
-14966.2
-11463.3
-17909
-21121.8
-22351.6
-15070.8
-19168.2
-24350.2
-28690.1
-43035.6
-10849.8
-12750.7
-15136.4
-19307.5
-30483.4
-30391.5
-21090.1
-39732.9
-30467.5
-27987.8
-20524.9
-39120.9
-30350.3
-24321.8
-19164.8
-36430.5
-30024
-12108.1
-9462.55
-14747.9
-11977.8
-17903.1
-14981.5
-21459.7
-18625.7
-33034.4
-30004.2
-10587.1
-9439.38
-12946
-12620.2
-16064.9
-16498.5
-20643.5
-21534.1
-29331.3
-30470.3
-10654.4
-7933.95
-7579.22
-8121.64
-10800
-12086.3
-7952.87
-10868.6
-8085.25
-8681.35
-11854.4
-9075.21
-2653.57
-5360.41
-1254.53
-1907.11
-4267.73
-7261.18
-1566.34
-2420.92
-2406.42
-5480.81
-1128.46
-1939.84
-9062.88
-7831.99
-11117.5
-6471.12
-14280.3
-10558.2
-18115.1
-11570.3
-3315.9
-4328.96
-5718.06
-3072.86
-2892.09
-2978.39
-3646.78
-2534.54
-12874.4
-4400.18
-17821.9
-5993.9
-13076.1
-4602.01
-18176.3
-6411.57
-12816
-4448.35
-18839.1
-7003.07
-5884.32
-1904.87
-8270.04
-2999.27
-10524.1
-3920.72
-13583.1
-4941.08
-19832.6
-7596.82
-6598.29
-2313.59
-8756.68
-3748.56
-11632.6
-4874.57
-15579.7
-6280.06
-20882.1
-7745.21
-9855.95
-8839.29
-8047.06
-7560.33
-16870.8
-12701.2
-14172.3
-11520.4
-6011.15
-4195.96
-2567.74
-1588.34
-5887.89
-4630.19
-2627.06
-2207
-5000.72
-6638.47
-5551.75
-6922.97
-5082.33
-3991.5
-6068.64
-2472.88
-11329.9
-4212.04
808.249
-1594.26
-2914.04
-2127.95
-1418.41
-1322.75
-2388.72
-1076.98
-973.56
-404.386
-2666.72
-1185.7
-1495.62
-568.569
-3210.03
-1426.29
-2607.09
-1057.12
-2269.77
-815.723
-995.18
-272.701
-7220
-6806.17
-6034.16
-4918.07
-10476.9
-9700.15
-9017.06
-7028.98
-3825.43
-3277.13
-4896.97
-4543.23
-4196.63
-3243.21
-2478.29
-2013
-6233.19
-4663.46
-3659.3
-2884.81
-2623.83
-2156.56
-1487.79
-1369.98
-2214.43
-962.928
-2117.87
-934.275
-2771.64
-1209.5
-2892.34
-1292.62
-1459.81
-675.66
-1376.22
-554.011
-693.575
-264.04
-829.807
-241.299
-2961.12
-2969.39
-1480.82
-1583.1
-3099.11
-3179.18
-1511.56
-1586.63
-3519.59
-3338.17
-1606.81
-1561
-5111.84
-8050.62
-3772.07
-2407.97
-1128.15
-11024.5
-7396.98
-5514.11
-3804
-1800.06
-8629.86
-6283.89
-4283.61
-2832.61
-1199.14
-2666.54
-2030.51
-1643.25
-1841.01
-2831.26
-2126.95
-1654.07
-1839.61
-3113.15
-2470.4
-1646.42
-1837.18
-9633.83
-7169.43
-7373.19
-5335.63
-5135.38
-3759.28
-3499.65
-2654
-1606.23
-1732.29
-7462.87
-6621.73
-5303.17
-4686.84
-3606.27
-3158.21
-2394.66
-2137.99
-1039.32
-1384.44
-4327.4
-2962.9
-3163.18
-1735.27
-7085.76
-5486.04
-5422.8
-3982.42
-1997.92
-1034.99
-2716.18
-1880.74
-3272.98
-1382.57
-1050.4
-442.982
-4288.31
-2772.16
-1411.79
-926.432
-2238.96
-846.772
-713.081
-260.99
-1131.56
-809.057
-554.306
-695.021
-1578.51
-1234.05
-699.711
-887.962
-1303.52
-610.603
-419.785
-479.865
-259.56
-70.0721
212.492
37.1487
-1271.23
-408.138
-1136.39
-148.102
-1383.43
-482.462
-1164.62
-166.576
-1521.36
-499.658
-1128.65
-144.468
-4229.1
-1293.13
-3168.85
-988.45
-2422.98
-815.029
-1595.48
-475.587
-1074.2
-179.326
-4588.11
-1338.76
-3175.94
-833.121
-2172.76
-565.725
-1442.86
-329.979
-1064.61
-184.28
-364.129
-100.7
-20.5109
-0.962836
-146.374
-40.7906
-9.37256
-1.29802
-386.217
-105.542
-23.0015
-2.69467
-168.998
-45.2427
-16.0088
-5.20993
-424.414
-113.041
-30.3902
-7.23503
-273.989
-67.8205
-7.93933
1.24791
-128.23
-26.6719
12.9375
9.16641
-24.7337
2.96337
8.99391
4.02928
-324.621
-84.4878
-10.2507
5.36816
-244.604
-58.3085
-14.4765
1.57257
-422.744
-110.042
-25.8306
-2.6246
-335.13
-80.348
-21.6147
1.96284
-209.375
-52.1693
-5.0914
3.33774
-153.524
-35.5988
-9.13423
0.192426
-69.356
-12.3747
1.0736
1.23691
-47.9397
-8.15561
-1.59668
0.214452
-476.142
-127.975
-26.6977
-0.1327
-484.212
-122.216
-38.4355
-2.21015
-471.745
-125.179
-25.8662
0.353823
-472.49
-118.003
-37.8352
-1.81276
-461.175
-119.741
-31.5304
-3.25225
-446.823
-110.054
-39.9753
-3.5487
-356.503
-90.8914
-30.1466
-7.93039
-480.819
-115.792
-48.5249
-5.44847
-319.887
-75.9161
-25.6724
-1.42029
-375.014
-83.8728
-31.1437
-4.08898
-147.705
-30.1309
-8.36712
-2.11734
-371.025
-82.6212
-30.5905
-3.81068
-147.836
-30.0246
-8.6607
-2.30729
-353.889
-78.1456
-31.1634
-4.01578
-139.857
-28.0618
-8.2521
-2.25432
-317.908
-70.4935
-32.3532
-4.49507
-128.611
-25.8059
-9.19521
-2.45802
-276.773
-61.3971
-28.5601
-4.33269
-99.3793
-20.0206
-9.29047
-2.40362
-180.798
-38.3889
-10.3707
-0.352627
-65.9962
-12.3699
-3.53344
-0.596366
-231.055
-50.0225
-18.0461
-2.06202
-75.4293
-14.592
-6.13914
-1.47587
-115.221
-23.1417
-4.83783
0.392637
-44.8629
-7.54563
-0.854482
0.12208
-36.3815
-4.68087
-0.556608
0.620755
-12.5449
0.18737
0.94511
0.596822
-0.252905
-0.0421828
-0.00594353
-0.000566695
6.07861e-05
-0.139906
-0.0196369
-0.00242683
-0.000155028
6.49222e-05
-0.308728
-0.035238
-0.00240859
0.000569019
0.000470262
-0.191951
-0.0106216
0.0015421
0.0011365
0.000542394
-0.221576
-0.00596011
0.00493892
0.00253776
0.00112716
0.134757
0.0492045
0.018088
0.0061635
0.00236242
0.466933
0.115168
0.0349111
0.0106583
0.00379049
0.72887
0.214271
0.063633
0.0185543
0.00631301
0.212759
0.0539488
0.0179188
0.00586178
0.00219477
0.258101
0.0650571
0.0189584
0.0057618
0.00207969
-0.0446259
0.0157601
0.00905922
0.00349551
0.00141888
0.23996
0.0472604
0.0136447
0.00432023
0.00162685
0.340505
0.0956815
0.0298286
0.00916009
0.00326018
0.297314
0.0951716
0.0288026
0.00856492
0.00298941
0.530373
0.172341
0.0521444
0.0152493
0.00518848
0.395934
0.138373
0.042664
0.0125347
0.00427181
-0.173581
-0.0370136
-0.00594973
-0.000720878
-1.75061e-05
-0.0590123
-0.0144077
-0.00245311
-0.000319937
-1.80788e-05
-0.19984
-0.0364546
-0.00456493
-0.000186904
0.000189045
-0.0698244
-0.0150594
-0.00215588
-0.000170275
4.51323e-05
-0.199769
-0.0200467
-9.14568e-05
0.000946406
0.000544853
-0.108082
-0.011916
-0.000347457
0.000438025
0.000274954
-0.0913344
0.00332679
0.00530678
0.00240037
0.00104655
-0.0968578
-0.00489462
0.0019505
0.00118936
0.000564264
0.124807
0.0290312
0.00987859
0.00344415
0.0013734
-3439.04
-7371.5
-3636.87
-7436.19
-4112.01
-7540.57
-4572.25
-7719.27
-4362.46
-7651.16
-1654.49
-2742.25
-2754.92
-4605.62
-899.46
-1389.37
-370.648
-520.65
-22958.7
-6481.02
-2147.17
-969.891
-626.464
-6353.46
-2049.54
-756.9
-336.59
-205.471
-22515.1
-6335.16
-2106.36
-951.602
-617.541
-6474.4
-2235.75
-775.732
-347.373
-217.988
-21209.6
-5977.08
-1995.05
-904.801
-588.192
-6257.84
-2150.17
-745.735
-333.938
-210.082
-19161.9
-5413.57
-1819.38
-829.88
-540.621
-5975.47
-2023.75
-697.315
-311.063
-194.842
-15959.7
-4534.58
-1540.13
-708.336
-463.036
-5516.92
-1841.5
-633.406
-282.793
-177.109
-7704.54
-2310.91
-806.88
-376.289
-246.826
-2681.35
-904.606
-310.621
-138.743
-87.5319
-11361.9
-3342.71
-1152.39
-533.521
-349.41
-3935
-1321.59
-458.153
-206.443
-130.467
-4557.35
-1383.29
-487.082
-228.542
-150.154
-1523.26
-526.712
-179.442
-80.14
-50.9602
-1579.54
-476.734
-168.277
-79.1762
-52.08
-598.372
-186.639
-59.3995
-28.4265
-16.2289
-1972.38
-3548.42
-10135.5
-1573
-10380.7
-4645.81
-10046.3
-4882.33
-18819.8
-10078
-20959.1
-11002.9
-2.19852
-6.90764
-11.9014
-14.8116
-6.15579
43.94
-5.14712
-16.6675
-30.5966
-43.4236
-40.9011
9.70689
-1.26445
-1.03843
-3.86865
-3.46748
-5.78463
-6.27006
-2.82866
-6.60108
6.39291
-5.92341
33.5939
5.31738
210.415
533.874
1055.1
764.644
648.887
218.284
158.553
452.924
862.511
1125.8
968.68
376.873
-1.88903
-1.50003
-1.06074
-0.622871
-0.204348
-5.93007
-4.7042
-3.32344
-1.95022
-0.639598
-10.1933
-8.06341
-5.68031
-3.32558
-1.08928
-12.6605
-9.99204
-7.02287
-4.10419
-1.34296
-5.36793
-4.33762
-3.1196
-1.85516
-0.612553
36.4008
27.6807
18.7504
10.6507
3.43413
-4.40445
-3.47973
-2.44757
-1.43093
-0.468287
-14.2399
-11.2295
-7.8845
-4.60339
-1.50548
-26.0422
-20.4443
-14.2893
-8.31296
-2.71341
-36.7757
-28.7009
-19.9434
-11.5501
-3.7611
-34.4576
-26.7317
-18.47
-10.652
-3.46149
7.89559
5.86858
3.88221
2.16399
0.69081
-1.09021
-0.869545
-0.617825
-0.364229
-0.119755
-0.897457
-0.717955
-0.511764
-0.302518
-0.0996167
-3.3329
-2.65584
-1.8853
-1.11069
-0.365047
-2.99218
-2.38918
-1.69962
-1.00305
-0.329992
-4.97796
-3.96145
-2.80822
-1.65249
-0.542742
-5.39499
-4.29208
-3.04139
-1.78903
-0.587473
-2.48123
-2.0202
-1.46485
-0.87712
-0.290678
-5.67469
-4.50885
-3.19009
-1.87383
-0.614779
5.2439
3.93215
2.61997
1.4664
0.468779
-5.10671
-4.06762
-2.88203
-1.69337
-0.555463
27.8488
21.1992
14.3774
8.17569
2.63783
4.2925
3.16543
2.08016
1.15505
0.368318
173.243
131.025
88.4305
50.159
16.1789
432.5
322.055
214.715
120.964
38.9881
831.959
605.466
397.324
222.417
72.0118
589.563
422.239
275.653
154.617
50.1469
524.636
379.289
246.296
136.236
41.3806
189.173
139.9
91.8498
50.8054
14.6532
130.401
98.4816
66.3707
37.6047
12.1219
368.274
275.028
183.706
103.556
33.3471
690.977
509.006
336.568
188.777
60.8058
888.852
646.517
423.932
236.98
76.426
764.754
554.407
362.14
201.818
64.7045
299.14
217.418
142.35
79.488
25.4251
2.2208
6.96495
12.0662
15.2666
7.36774
-40.6255
5.17452
16.7233
30.7195
43.6661
41.3974
-8.45911
1.28362
1.05614
3.92287
3.52462
5.94586
6.44824
3.27999
7.00472
-4.96587
5.5221
-28.2514
-3.26626
-202.832
-520.708
-1033.07
-756.168
-666.132
-252.828
-155.53
-447.341
-854.434
-1122.23
-977.553
-395.855
1.91228
1.52288
1.0805
0.63639
0.209161
5.98605
4.7558
3.36575
1.97813
0.649359
10.3476
8.19936
5.78724
3.394
1.11282
13.0748
10.3452
7.29183
4.27206
1.39996
6.44733
5.23336
3.78325
2.26031
0.74849
-33.5171
-25.3559
-17.0794
-9.65565
-3.10478
4.4371
3.51536
2.4807
1.45458
0.476869
14.3028
11.2952
7.94374
4.64488
1.5204
26.1748
20.5778
14.4063
8.39348
2.74212
37.0274
28.9455
20.1519
11.6908
3.81081
34.9372
27.1667
18.8199
10.8791
3.54018
-6.79361
-4.96372
-3.21926
-1.76298
-0.556939
1.10892
0.886799
0.631999
0.373601
0.123037
0.914242
0.732967
0.523766
0.310303
0.102317
3.38344
2.70018
1.92009
1.13292
0.372696
3.04468
2.43447
1.7346
1.02513
0.337543
5.12391
4.08515
2.90199
1.71084
0.562525
5.55563
4.42759
3.14365
1.85243
0.60893
2.87927
2.347
1.70453
1.02233
0.339187
6.03332
4.80599
3.41013
2.0082
0.659875
-3.99753
-2.9217
-1.88893
-1.02856
-0.323424
4.79968
3.86158
2.76522
1.63922
0.540465
-23.233
-17.5088
-11.7472
-6.62003
-2.12486
-2.49713
-1.70743
-1.02396
-0.521908
-0.157908
-166.788
-125.956
-84.887
-48.0983
-15.5065
-421.44
-313.492
-208.812
-117.572
-37.8898
-813.154
-590.55
-386.77
-216.224
-69.9863
-578.432
-410.21
-264.988
-147.35
-47.5401
-532.829
-380.602
-243.738
-133.051
-39.9709
-211.418
-151.528
-95.9961
-51.2759
-14.4119
-127.856
-96.5126
-65.0168
-36.8287
-11.8708
-363.646
-271.509
-181.33
-102.217
-32.9184
-684.054
-503.502
-332.666
-186.483
-60.0525
-884.744
-642.299
-420.264
-234.496
-75.5428
-769.776
-556.107
-361.729
-200.792
-64.2105
-311.858
-224.344
-145.001
-79.953
-25.3702
-1659.28
-862.006
-240.911
-24.5012
11.0301
18.2022
-78.5414
-10673.8
-3077.49
-3269.36
-1619.93
-304.096
-2085.71
-91.2359
409.878
65.7159
-5822.04
-2695.41
-1010.87
-685.353
-1855.74
-992.238
-351.331
-550.48
156.678
-28.0374
-462.339
-382.912
-6702.86
-2482.99
-3806.09
-1573.49
-1770.5
-3245.36
-685.91
-25.5795
-623.167
-911.368
-549.819
-347.958
-221.648
-116.897
-558.96
-358.238
-217.07
-119.526
-42.6692
-195.287
-145.353
-96.7866
-54.4501
-17.5306
-20.2547
-15.3113
-10.277
-5.78135
-1.8485
10.1241
8.55583
6.35126
3.8399
1.27597
16.1439
13.2083
9.55428
5.68133
1.87157
-63.6989
-47.4312
-31.5882
-17.7757
-5.72486
-6453.72
-4362.15
-2793.9
-1752.33
-1055.18
-1990.31
-1225.87
-800.589
-477.941
-200.087
-2163.94
-1420.61
-906.457
-520.772
-204.471
-1030.52
-622.054
-399.844
-231.716
-81.4626
-236.712
-170.562
-111.589
-62.9189
-20.8449
-1541.85
-1076.04
-684.074
-380.204
-129.27
-65.0107
-43.4588
-27.1065
-15.0733
-5.10063
320.826
230.89
149.194
81.9561
25.9526
58.7245
47.1718
32.9927
18.944
6.05652
-3448.46
-2366.45
-1528.21
-967.242
-580.308
-1784.92
-1167.14
-746.134
-426.317
-161.83
-779.073
-557.887
-363.369
-204.461
-68.2275
-530.176
-380.292
-247.461
-138.548
-45.6079
-1395.36
-982.029
-631.649
-352.487
-118.095
-775.151
-558.609
-363.776
-203.069
-65.8238
-274.069
-197.564
-128.73
-71.8517
-23.3526
-439.829
-323.215
-213.325
-119.612
-38.6168
130.543
99.6657
67.5927
38.3006
12.2718
-19.7412
-12.3856
-6.96594
-3.50098
-1.10368
-363.671
-263.851
-172.745
-96.6836
-31.4423
-304.253
-222.563
-146.476
-82.0943
-26.5813
-3697.19
-2165.2
-1395.41
-868.635
-486.462
-1632.89
-1058.73
-654.841
-366.974
-133.463
-2342.66
-1543.37
-956.9
-546.452
-205.75
-1074.45
-720.507
-448.539
-250.952
-89.3222
-1336.15
-940.329
-604.323
-336.659
-111.096
-2185.07
-1400.38
-885.124
-498.759
-173.647
-543.284
-396.22
-260.093
-145.487
-47.0437
-18.054
-11.3028
-6.28692
-3.0979
-0.95572
-485.787
-349.608
-227.518
-127.013
-41.3296
-15.1505
-45.1642
-84.0017
-140.663
-224.075
-342.122
-34601
-30732.8
-27839.4
-31658.5
-25565.2
-20211.3
-21849.2
-16409.8
-31983.6
-29503.1
-29551.1
-29015.8
-26111.1
-22305.8
-28036.6
-29227.6
-26270.2
-22893
-25753.4
-22142.4
-18536.6
-18676.2
-14717.3
-29399.5
-27750.7
-27169.1
-26128.5
-23622.2
-21631
-23813.4
-23621.2
-21703.3
-18409.5
-20175.9
-18813.7
-16067.2
-15712.6
-13078.3
-25155.1
-24747.5
-23412
-23111
-20390
-18544.3
-20782.7
-17047.1
-16016.5
-13168.7
-14062.4
-14287.7
-12658.8
-11731.1
-10246.4
-18980.9
-19894.2
-17861.3
-18771.6
-15927.6
-14325.6
-16678
-11082.4
-10550.6
-8497
-8951.2
-9606.82
-8581.28
-7741.13
-6867.33
-12680.5
-13191.2
-12032.7
-12443.1
-10916.8
-9807.62
-11206.9
-4011.94
-3846.33
-3070.19
-3212.84
-3546.21
-3232.22
-2831.61
-2545.67
-4680.77
-4935.86
-4421.53
-4512.19
-4068.12
-3686.94
-4163.52
-11667.5
-11298.4
-18259.6
-19804.1
-10565.2
-9145.52
-15794.9
-12504.8
-7755.64
-4940.54
-7733.27
-5129.22
-7606.18
-7364.46
-5469.85
-11451.5
-10751.9
-16350.9
-17910.6
-9798.7
-8610.86
-14028.2
-11604.1
-7711.27
-4122.55
-7571.51
-4422.33
-6839.38
-6656.66
-4941.85
-10168
-9550.84
-13776.5
-14899.7
-8733.14
-7791.02
-12068.2
-10209
-6256.07
-3751.47
-6168.77
-4083.47
-5575.37
-5572.33
-4441.59
-7815.73
-7382.58
-10154.5
-10807.4
-6790.94
-6075.12
-9132.7
-7935.7
-5233.83
-2953.02
-5105.34
-3211.12
-4627.25
-4568.13
-3484.09
-5144.91
-4885.88
-6583.92
-6938.04
-4453.52
-3933.68
-6018.08
-5269.74
-3423.46
-1959.14
-3342.12
-2140.93
-3043.91
-2969.97
-2285.83
-1863.83
-1774.49
-2376.84
-2492.34
-1618.3
-1427.85
-2190.7
-1935.07
-1168.47
-701.139
-1180.01
-768.928
-1101.83
-1067.14
-813.899
11208.4
35879.2
9070.49
37363.1
6571.46
37735.3
9825.66
55152.9
11956.3
75000.6
12209.6
56457.2
12103.4
47879
12651.5
42515.1
7549.88
4880.9
20518.3
12311.5
7118.5
3750.33
21175.1
10272.7
8928.2
7038.76
27984.4
21247.7
6756.75
5451.17
27965.4
21858.7
16049.7
6912.17
13892.7
6354.97
6920.71
15650.5
50624.9
13323.3
18256.3
5550.41
62018.7
16287.7
16026.3
4793.16
38053.8
11580.6
19414.8
6436.5
34718.1
10855
13118
6497.49
16404.1
6665.36
14318.1
7680.06
16151.9
6498
17129.8
10027.4
13704.2
6319.34
19243.5
7252.43
6481.47
2368.37
19766.9
13660
11683.4
8238.43
18566.5
14651.6
9924.86
7852.94
12524.7
8695.9
18939.1
13084.7
7284.45
5079.79
3153.29
2504.4
6017.83
4750.1
2487.64
2375.98
7930.9
5237.47
3633.67
2294.64
12261.1
7134.82
9841.76
12445.8
17594.9
13166.7
14838.1
21445.3
7727.78
3956.8
5548.74
6993.61
3524.22
1605.98
2149.76
2461.86
18742.3
32735.3
12407.3
36634.1
21353.6
31426.5
15053.8
37715.8
23233
27537
18779.4
35869.2
20143.8
19687
18657.4
19128.5
21220
18859.7
21794.2
25483.6
28996.2
43094.2
15764.5
15185.7
15512.4
18828.1
30052.1
37428.3
32153.7
43307.4
39950.2
33811.6
30036.4
42227.7
38678.1
28516.6
26758.2
38902.1
36662.8
13512.4
10261.5
16415.2
14161.5
20516.6
18737.3
24618.6
23569.7
34854.9
34666.4
12399.1
10767.8
14841.5
15177.5
17843.9
19804.5
22069.7
25119.3
30050.6
34062.1
11816.4
8527.4
7428.46
8110
12885.9
13303.4
8288.77
11409.6
7621.67
8393.49
12179.6
9300.21
2005.36
5014.32
467.725
1430.29
3865.31
7224.07
932.316
2132.3
1690.46
5019.53
330.084
1424.27
8540.74
7497.64
10689.5
6230.57
14138.8
10615.2
17814.1
11686.2
2705.19
3905.49
5297.41
2774.64
2235.9
2525.93
3224.07
2216.86
24735.2
14413.1
4532.04
27945.3
15446.1
4924.26
23490.7
14063.3
4696.42
27069.2
15233.8
4850.97
21037.4
12599.8
4044.47
25816.1
14898.4
4789.94
7046.9
4152.55
1280.75
11239.8
7129.09
2333.34
15450.3
9894.24
3264.19
19536.8
12054.4
3873.7
25119.5
14901.3
4906.07
7954.73
4751.48
1643.25
11617
8013.96
2946.71
15546.2
10721.2
3838.92
20037.7
13252.6
4594.95
25437.8
15246.3
5208.83
295.621
1970.75
2865.86
4054.25
2896.17
2938.25
6994.27
6248.67
518.408
689.312
551.432
712.95
328.753
980.813
662.767
1317.65
2471.17
1254.6
3363.16
2006.59
1559.4
2579.94
3314.85
-175.37
7518
987.849
-3128.14
-973.401
934.573
-14.5591
-30.6282
-602.67
6494.78
2266.48
1690.86
819.958
6649.53
2319.77
2146.37
1003.16
6738.1
2454.54
2944.18
1473.29
1783.42
876.071
-18.5579
107.004
12273.2
10028
5482.33
5134.94
15558.2
13571.2
7457.99
6761.61
3953.65
3692.21
8946.25
6668.84
2836.18
2814.61
959.056
1374.82
4197
3834.06
1662.46
1903.69
1846.29
2022.92
441.05
1032.32
2803.85
1304.71
2509.02
1146.13
4834.27
1867.2
4031.38
1713.62
1253.06
751.368
1392.45
622.353
168.287
199.912
690.348
239.883
7137.82
3682.35
2675.43
2061.33
7240.2
3984.01
2661.12
2069.24
7961.99
4658.5
2717.8
2114.77
13281.6
16939.1
10124.8
5436.78
2003.47
15226.4
11758.1
8989.29
5928.15
2434.63
14347.6
10830.5
7139.23
4311.46
1703.79
2093.41
1222.89
1478.31
1090.33
2443.54
1406.19
1594.55
1176.98
3111.59
1849.54
1800.55
1346.09
10821.7
7133.72
8235.51
5051.04
5207.29
3467.59
3740.31
2473.58
1829.08
1498.21
9088.32
7256.36
6628.11
5045.07
4534.56
3423.95
2965.4
2297.86
1373.09
1398.5
5985.22
3705.91
3717.04
2185.94
9290.81
6440.84
6020.29
4534.46
2425.17
1375.36
3762.48
2403.92
3280.29
1486.52
796.789
382.337
4144.09
2842.16
975.941
782.794
2311.76
947.54
595.131
246.659
1397.38
1017.83
678.197
789.399
2136.15
1546.59
921.272
1012
1385.21
685.888
474.384
522.502
231.848
79.636
-201.719
-23.837
650.483
251.07
67.5821
594.523
165.871
41.9494
779.868
315.647
89.3712
657.213
192.945
50.594
1000.02
426.32
115.365
764.61
234.681
59.1282
4366
2361.89
683.893
2836.85
1401.18
403.327
1958.41
913.871
264.477
1339.59
578.308
152.66
871.814
267.565
60.5274
5061.76
2615.64
817.859
3338.02
1571.03
462.886
2222.35
1006.81
288.607
1459.28
611.522
165.007
956.28
268.901
67.1511
621.506
157.16
33.5197
4.4139
254.111
65.7146
14.9083
2.58764
638.711
163.664
36.8304
6.3569
296.061
78.098
23.5724
6.8939
656.991
169.959
44.6721
11.0078
429.551
116.78
22.624
3.24798
209.91
63.8053
0.707195
-4.55192
68.1965
30.6445
4.88002
0.728624
447.638
123.937
23.033
-0.962043
331.539
88.9391
24.9222
2.35532
595.979
157.005
39.0718
6.73758
473.747
122.25
34.604
2.98443
275.588
81.4392
15.9005
0.465013
200.879
56.853
17.4738
3.09444
102.41
35.5228
8.88719
2.44691
74.7288
24.3569
8.79638
2.76715
746.46
189.915
42.3458
4.9244
647.951
168.161
49.1808
6.88375
733.491
186.601
41.8064
4.62284
629.477
162.076
48.3347
6.46628
705.006
178.782
46.3557
7.64999
598.596
151.675
49.5323
7.91218
577.283
148.65
45.4705
12.5087
647.777
162.148
59.8982
10.6725
474.883
121.135
39.3181
6.89949