/*--------------------------------*- C++ -*----------------------------------*\
| =========                 |                                                 |
| \\      /  F ield         | OpenFOAM: The Open Source CFD Toolbox           |
|  \\    /   O peration     | Version:  2306                                  |
|   \\  /    A nd           | Website:  www.openfoam.com                      |
|    \\/     M anipulation  |                                                 |
\*---------------------------------------------------------------------------*/
FoamFile
{
    version     2.0;
    format      ascii;
    arch        "LSB;label=32;scalar=64";
    class       volScalarField;
    location    "0.5";
    object      gradTy;
}
// * * * * * * * * * * * * * * * * * * * * * * * * * * * * * * * * * * * * * //

dimensions      [0 -1 0 1 0 0 0];

internalField   nonuniform List<scalar> 
5712
(
14889.5
8586.47
23571.9
15703.7
25845.9
19375.5
39205.1
50433.2
52136.9
65704.8
34364.2
30374.1
21780.9
17645.5
11157.2
7595.23
23249.9
22408.1
20565.3
23300.4
31045.3
26098.2
37447.3
28472.2
10201.7
7195.87
5849.32
4534.33
11678.1
9654.43
7350.27
6332.03
23975.6
23680.6
22884.8
17458.8
16941.8
14196
13544.8
15767.7
21530
21796.9
48110.2
50207.1
31998.3
33513.2
21076.7
17717.4
21246.7
14665.7
10000.4
10633.9
9474.97
15498.6
5016.28
6730.38
12773.9
20294
7833.88
9955.38
13399
26824.4
9546.14
17599.8
3472.39
10323
2906.05
7684.12
19028.5
23697.4
20738.9
24227.4
22344.7
21896.8
23893.9
22195.4
18874.3
26238.5
18461
25371.6
20907
24433.4
21148.6
24552.8
24782.8
22252.8
25017.3
22181.2
17746.8
26664.6
17311.3
26928.1
25105.7
32737.3
31693.5
49774.7
26578.9
38654.2
31286.3
54971.7
23861
28455
31906.3
47516.6
23725.3
26505.8
32382.8
47165.6
9692.37
13203.9
25259.1
46300
11515.8
13491.8
31423.4
50843.4
13494.3
13665.7
38283.3
53882.7
27210.7
25621.5
26373.9
28756
48559.9
25056
26522.4
26434.7
25349.4
56967
23100.5
25100.5
25277.5
29677.1
63485.6
3277.7
3935.55
7249.29
18830
4501.04
5179.32
9449
19872.1
6250.14
5168.78
12123.7
21111.1
23008.3
19911.3
23039.9
19598.1
23050.3
18017.3
18970
15050.5
15034.5
23151.4
21644.5
18593.4
24046.9
21216.5
23519.7
19959.2
22074.3
18455.1
15625.2
22396.1
24657.9
26584.1
24750.4
27591.6
21897.9
21402.1
21632
22078.3
24855.8
24586.2
24725.9
23814
24585.5
27840.5
24585.5
27963.5
21112.7
22608.3
21032.9
22680.5
24826.8
24426.9
24900.4
24474.1
23119.5
21631.3
15534.5
18434.5
23190.2
21291.8
15392.6
18935.7
23248.7
21391.4
15844.7
18328.8
23291.3
21104.6
16321.4
18255.1
2209.24
1124.94
601.363
1122.32
510.762
410.453
3155.63
1285.63
732.214
2039.3
1231.05
776.157
3122.23
1649.9
1248.42
3401.47
2029.54
1438.09
15301.4
10206.1
7299.83
15398.8
10651.2
7802.42
12100.7
8269.13
6205.86
9643.12
5879.5
4190.48
5262.15
2633.59
1678.28
14650.1
9926.6
6957.15
16692.4
11047.5
7650.06
13928.5
8393.47
5583.36
10198.6
5530.95
3604.2
5509.93
2528.78
1467.12
29115.8
27042.3
33004.1
28046.8
34578.2
28329.5
43746.2
31086.1
20727.2
19246.9
20838.1
17849
23583.5
20435
23730.7
18733.1
23292.8
22279.9
21360.9
21972.8
26039.2
24343.1
30440.6
31422.3
34865.5
36678.7
24097.7
25550.4
21681.2
21358.8
24872.4
25840.9
13849.1
6748.23
13218.6
7531.43
14284.8
6789.8
13351.4
7442.96
14383.8
6787.47
13688.9
7819.17
13530
8210.08
13808.7
8044.01
20201.6
15937.8
20874.5
16298.8
23447.1
20029.5
24680
20321.9
19391
12457.4
19515.7
12010.7
21907.5
16423.3
22422.5
16250.2
26047
20446.5
26358.9
20253.8
19635.9
12614.8
19729.6
12503.7
11384.5
6613.45
8912.83
5256.88
10206.1
5778.52
8378.62
4853.26
11877.2
7083.15
9117.8
5418.55
11934.7
7298.99
9046.02
5405.76
1920.98
888.741
3328.11
1746.45
2005.25
1048.31
3494.65
2023.03
2414.73
1560.52
3827.85
2583.57
10236.3
17612.7
6976.16
6423.06
4329.56
16505
10272
5349.57
5282.18
3407.52
18180.2
13138.2
9625.56
6877.78
4116.43
393.583
188.303
985.745
653.708
517.99
234.159
1265.74
863.46
897.267
462.147
1759.94
1227.13
15598.2
13050.1
9280.97
7428.91
5261.51
4250.37
4166.31
2890.37
2651.44
1842.07
15316.1
12074.2
10618.5
7716.31
7410.88
5179.6
5120.65
3478.38
3324.16
2533.76
11618.3
7654.54
12050
7877.54
15523.8
11298.8
15934.1
11745.5
8966.09
5728.91
8448
5449.89
12253.8
7956.77
12186.2
7947
16073.5
12262
15967.5
12276.6
9261.18
5776.79
9216.56
5814.88
6218.6
3972.72
3952.45
3142.42
5843.67
3710.49
3752.62
2879.37
6535.92
4102.83
4058.08
3309.96
6644.86
4090.54
4209.24
3335.38
275.133
189.998
128.34
1270.96
501.568
327.162
267.914
218.678
158.604
1454.69
623.479
423.89
442.986
390.904
321.266
1755.98
843.23
597.313
9603.19
6577.49
4882.66
5385.3
3743.57
2862.75
3176.61
2215.95
1735.52
2129.93
1456.24
1110.61
2215.48
1134.66
799.425
8706.42
5702.93
4003.78
5218.21
3330.12
2363.25
3434.59
2140.35
1525.44
2556.75
1547.83
1067.44
2928.43
1334.08
885.381
2873.37
1175.57
473.345
175.704
3278.91
1304.7
510.753
185.521
2878.98
1173.05
473.323
175.734
3334.93
1333.73
529.443
194.263
2865.44
1157.06
489.008
186.822
3403.36
1346.97
562.336
213.081
3664.65
1424.2
548.183
197.474
3705.95
1455.13
544.327
193.755
3004.66
1232.4
520.217
197.013
2430.95
1052.64
462.133
179.018
2619.99
1102.01
485.662
192.41
2250.17
990.709
443.43
175.038
3244.54
1320.91
535.02
196.557
2526.75
1092.08
470.096
180.277
3346.07
1367.15
543.473
199.428
2551.54
1113.23
477.585
184.642
2080.03
965.494
421.166
164.467
1369.16
738.898
358.503
147.362
2083.03
960.875
421.749
165.176
1428.98
753.014
362.297
148.692
2142.07
963.807
431.817
170.783
1608.67
797.447
376.291
152.807
2116.08
938.168
426.951
174.537
1770.14
831.122
395.812
159.219
1995.29
910.786
419.045
170.779
837.628
578.219
275.106
73.4335
429.571
499.063
243.991
67.8027
931.554
608.002
285.663
77.7594
513.598
529.35
252.865
70.0416
1126.74
663.835
299.844
79.0586
678.117
584.032
265.705
72.1803
1390.59
735.244
325.422
87.0607
892.264
650.945
285.057
76.9456
1607.51
806.017
357.363
100.25
1034.68
711.108
303.603
81.3813
1783.83
885.789
371.127
98.8936
1109.37
788.9
335.849
88.9336
1718.9
853.85
363.429
98.133
1043.83
756.272
320.47
85.0198
1812.43
902.936
369.158
93.7221
1128.96
809.815
341.674
89.4516
1844.54
915.479
373.891
94.5624
1166.63
823.274
347.225
90.7517
65.7634
26.8905
10.2836
3.61108
0.865891
66.9903
27.1354
10.3427
3.62626
0.868949
66.6655
27.3372
10.4147
3.64779
0.873577
69.0817
27.7059
10.5051
3.67272
0.878831
69.3195
27.8839
10.5616
3.6895
0.882453
72.1897
28.247
10.6665
3.72117
0.889381
71.5407
28.7534
10.8634
3.78364
0.903242
72.3549
29.295
11.0787
3.85544
0.919624
71.8698
28.5328
10.7616
3.74934
0.895448
72.4657
28.8297
10.8569
3.77749
0.901515
71.5772
28.2231
10.656
3.71677
0.888292
72.1
28.5613
10.7583
3.74646
0.894647
71.9858
28.9525
10.929
3.80336
0.907528
73.6363
29.2173
10.9986
3.82348
0.911885
73.6727
29.4994
11.1265
3.86856
0.922429
75.3424
29.713
11.1652
3.87788
0.924338
64.8083
26.6437
10.2219
3.59552
0.862821
64.0737
26.4837
10.1819
3.58553
0.860864
65.7768
27.0044
10.3263
3.62427
0.868761
65.0224
26.7861
10.2677
3.60885
0.86564
67.9378
27.5819
10.479
3.66607
0.877472
67.1256
27.3445
10.4144
3.64832
0.87377
70.0036
28.0841
10.6133
3.70375
0.885438
69.4689
27.9258
10.5676
3.69056
0.882618
71.5737
28.3442
10.6878
3.72528
0.890043
19625.6
30420.3
20022.3
30271.2
20458.2
29840.2
20284.5
29031.7
18692.1
26965.7
16616.9
18994.8
16838.1
20338.2
16631.2
18648
16931.7
18793.2
18173.1
3206.74
726.768
179.606
35.7124
20081.4
5947.29
1530.22
382.205
76.1568
18066.8
3145.27
710.924
175.692
34.932
19895.9
5855.36
1507.51
376.234
74.6595
17733.1
3069.55
693.695
171.904
34.2755
19465.4
5723.76
1476.74
369.584
73.5749
17027.1
2911.79
658.902
164.35
32.9574
18657.7
5495.54
1425.17
358.909
71.7993
15748.9
2644.59
603.279
152.378
30.8297
17268.9
5138.45
1347.37
342.867
69.0787
13670.5
2415.21
577.341
150.233
30.8721
13846.8
4390.84
1199.81
315.116
64.8313
14293.8
2471.43
580.082
149.131
30.4492
14868
4667.54
1254.53
324.449
66.0358
13427.1
2402.35
579.217
151.643
31.2575
13479.7
4270.18
1174.26
311.05
64.435
13375.3
2386.05
575.961
151.125
31.1608
13454.2
4246.7
1168.39
310.951
64.4674
39221.6
59475.4
57544.4
37495.7
20198.8
21596.4
30185.6
32340.5
24989.7
28963.7
41504.7
59058.7
53288.5
72925.5
33912.8
39716.1
25716
28125.2
13584.7
15155.7
3722.66
2093.55
129.527
63.3173
65.5556
51.3382
90.3511
3154.66
2499.42
1324.26
1537.98
1105.84
424.037
746.516
483.029
266.99
317.707
217.919
2996.97
1088.61
386.524
327.166
574.749
454.074
278.933
210.89
134.471
106.893
223.475
194.688
3369.21
1629.85
1993.03
937.304
626.033
1164.37
272.956
133.687
326.694
6828.19
5530.32
4398.48
3753.69
4920.88
4154.37
3823.43
3244.41
2828.55
2791.42
312.785
384.404
399.183
387.77
375.889
155.763
197.263
210.867
209.394
205.225
161.702
205.556
220.298
218.954
214.556
127.082
162.555
175.418
175.416
172.518
220.865
276.683
292.348
287.45
280.125
5977.79
5032.13
3919.65
3186.12
4108.76
4730.42
3875.8
2921.88
2327.91
2301.09
2730.3
2629.55
2235.03
1894.21
1773.82
2924.74
2468.2
1875.06
1474.46
1310.03
2090.87
1783.41
1363.99
1056.95
911.955
954.136
1047.62
980.005
878.757
818.254
1593.4
1612.61
1412.23
1209.92
1107.29
1050.85
1095.38
979.681
845.584
767.536
619.462
713.004
694.117
639.564
601.86
722.678
806.543
763.641
688.047
638.982
511.44
598.995
591.631
550.229
519.495
5778.75
5011.19
4005.88
3346.55
4325
2315.04
2346.36
2083.35
1826.19
1736.58
884.361
996.978
955.335
873.695
823.589
757.807
871.6
851.295
790.451
751.008
1284.43
1400.49
1311.25
1186.15
1122.66
1039.83
1175.94
1133.91
1046.3
994.69
655.135
770.857
769.751
727.577
697.433
501.455
600.623
607.933
578.767
555.263
324.349
397.146
409.607
394.45
379.748
259.869
322.486
337.306
328.728
318.68
526.44
620.872
618.569
580.784
552.583
462.833
554.077
560.225
532.425
510.015
6315.1
5291.5
4248.62
3615.02
4709.8
3326.84
3194.16
2778.58
2448.74
2393.28
4158.92
3981.68
3358.31
2904.8
3010.1
2044.87
2159.81
1988.11
1793.88
1716.89
1409.49
1555.7
1474.26
1348.79
1284.11
2484.44
2537.07
2271.96
2008.21
1921.74
641.287
754.423
752.412
709.844
679.311
322.449
395.214
408.825
395.491
382.252
759.319
878.224
862.525
804.799
766.763
23478.6
16053
23885.6
17660.2
29847.1
46190.6
31778.5
46351.1
24035
24509.1
21179.1
24422.2
25736.2
23320.6
35402.6
27036
19262.4
19872.3
9459.69
8839.63
20688.1
20544.2
10716.9
9420.98
26720.5
27957.3
25920.1
22478.8
27720.1
18156.4
13693.5
15906.7
22041
21985.5
48655
50545.4
31683.6
33510.3
22593.2
18096.8
23039
15047.1
11435.3
11023.3
22846.8
26617.5
9451.34
10826.1
24614.8
29934.6
11611.3
13500.3
22454.9
34458
12925.6
21622.9
4290.34
11764.5
3083.32
7982.66
21277.7
23577.8
21438.6
24232.1
21192.4
20801.7
23133.8
21637.1
21343.8
26911.3
24361.4
26390.9
21153.6
24456.9
21204.3
24561.4
24461.2
21993.9
24937.3
22104.5
18702.1
27031.4
17537.7
27040.7
27335.1
35560
32914.3
51377.7
30021.1
43053.8
33196.7
57541.9
24993.1
29912.3
32566
48401.6
24051.1
26935.1
32585.7
47450.5
31648.5
33653.7
42339.7
64961.6
31051.4
30992.4
45043.3
65310.4
29326.4
28043.3
47874
63606.6
21178.3
19791
25481.5
31134.5
53739.5
18622.6
19002.9
26455.4
27369.5
62628.4
19398
22365.8
25107.3
31811.4
67020.3
14449.7
12049.3
15850.6
22810
16053.6
13462.6
16290
23095.3
18067.4
14177.8
16829.8
23104.3
16924.1
14553
17334.4
15080.3
23180.6
19272.5
20909.9
17186.7
17372.5
23725.9
18169.4
16178.2
21231.8
19475.8
22963
19904.6
23518.1
19707.2
16874.4
22486.9
23653.3
25482.5
24376.6
27071
20355
20056.7
20941.2
21405.8
24996.1
24575.3
24768.7
23695.2
24430.8
27616.2
24544.4
27901.7
20805.7
22288.8
20944.8
22588.6
24912.1
24444.9
24923.7
24479.5
23640.9
21966.9
16027.6
18817.6
24031.8
21826.5
16238.4
19472.5
23523.7
21578.9
16108.2
18553.1
23378.2
21164.8
16411.3
18329.8
10239
10445.9
4993.15
4334.19
11503.6
10765.5
5621.56
5135.8
11010
9523.36
6289.26
5741.91
12641
10978.1
13623.5
12493.2
15314.1
13356.8
13053.6
10371.9
7695.76
5654.59
14193.8
11986.6
17044.4
14406.6
15472.3
12367
12594.2
9176.3
6882.37
4186.58
22844.9
20520.6
30568.6
24930.7
27576.6
23066.8
41295.3
28697
19732
14537.4
22727.1
16043.8
19444.6
14921.7
22848.1
16498.4
20947.2
17185.3
18437.6
16003.5
18699.6
21299.6
29005.9
31017.5
33950.6
36463.2
22801.8
25156
20277.9
20968
23096.3
25244.7
10507.1
6684.15
11368.3
7052.54
10891.8
6659.48
11715.5
6992.77
11071.1
6610.23
12118.9
7338.4
12529.7
7813.49
13446.9
7896.21
16001.5
14481.7
18797.5
15382.7
19812.7
18088.2
22842.8
19264.1
17164.5
11844.9
15277.3
11257
20890.7
15933.6
22125.4
16099.8
25233.3
19928.6
26138.7
20100.6
18468.2
12248.1
19367
12386.4
10548.5
6438.24
8641.36
5218.31
9450.97
5934.23
8244.46
4986.82
11337.5
6890.27
8913.93
5358.59
11760.4
7223.3
8976.41
5382.34
9287.22
8387.35
5871.6
4975.33
9479.09
8595.56
5770.97
4946.72
9525.34
8373.77
5652.16
4983.37
12882.9
16671.3
12491.1
8233.48
5375.26
15031.1
12977.1
12948.3
7892.45
4991.08
16881.9
13431.4
10602.6
7853.49
4723.45
7367.75
6293.96
4327.21
3862.87
7492.05
6336.26
4357.93
3887.35
7176.05
5982.17
4335.53
3734.12
13884.2
11582.7
11330.5
9336.16
10170.5
8747.86
6970.57
5942.52
4314.26
3610.9
14149.3
11303.7
11243.2
8522.26
8803.17
6691.29
6494.15
4987.54
4082.28
3392.98
11251.8
7753.93
11633.5
7748.51
14525.9
10752.8
15301.6
11362.8
8779.48
5764.6
8544.74
5882
11993.2
7836.17
12101.5
7903.02
15749.3
12042.4
15869.4
12208.8
9095.19
5727.63
9157.33
5790.15
6208.22
4092.89
4009.15
3263.95
6154.43
4213.61
4022.05
3283.02
6465.48
4102.91
4050.27
3336.85
6614.31
4081.99
4200.42
3336.87
5896.53
5420.38
6016.25
5082.69
5939.52
5421.02
5813.48
4856.84
5436.66
5028.19
5409.57
4469.64
9715.53
8331.45
7643.39
6512.05
7373.29
6566.46
5280.84
4543.69
4971.35
3902.29
8846.39
7229.19
6416.5
5314.31
5181.1
4476.36
4292.21
3578.8
4594.16
3258
3213.99
1356.31
546.572
201.961
3401.71
1426.77
569.814
208.501
3175.84
1337.61
539.258
199.028
3406.92
1429.94
578.383
213.906
3106.88
1297.86
547.493
207.948
3434.63
1418.6
602.223
230.008
3637.97
1458.45
570.884
207.491
3688.69
1464.81
551.451
197.035
3066.51
1291.73
552.196
210.729
2481.34
1095.13
484.938
189.052
2827.27
1213.38
535.866
212.095
2389.75
1072.71
479.74
189.225
3246.19
1347.71
552.315
204.457
2539.3
1111.51
482.462
186.222
3340.47
1374.47
548.875
202.011
2553.01
1118.72
481.464
186.58
2872.71
1238.82
516.48
196.157
2430.77
1089.52
475.833
184.469
2813.62
1216.53
510.618
194.479
2402.49
1079.62
471.743
183.381
2745.77
1183.39
510.604
197.141
2408.6
1072.23
470.368
182.56
2542.81
1113.03
492.836
197.402
2352.63
1051.76
473.774
183.732
2282.91
1044.8
471.545
189.222
1954.87
960.052
389.441
97.3297
1414.77
886.026
364.061
94.5464
1970.12
963.16
393.227
100.949
1444.13
889.055
365.557
95.3422
2011.63
965.278
391.308
98.4283
1496.3
890.971
362.722
94.0053
2001.5
961.929
400.214
103.689
1488.51
887.398
363.571
95.1047
1932.36
949.558
411.911
114.08
1358.66
870.88
361.621
95.4648
1837.21
925.878
392.79
105.189
1160.5
835.334
357.933
95.0432
1861.64
933.226
399.228
107.7
1187.66
848.162
358.039
94.7081
1828.08
920.814
380.36
97.0649
1141.68
829.567
352.49
92.6011
1846.86
920.411
377.272
95.5997
1167.9
828.466
350.364
91.6961
75.4648
30.5141
11.5383
4.01431
0.957258
75.6276
30.5011
11.5315
4.01202
0.956698
75.3292
30.5751
11.5419
4.01148
0.956175
76.4679
30.5819
11.5259
4.00544
0.954712
77.0369
30.6895
11.5377
4.00534
0.95433
78.3435
30.586
11.4984
3.99329
0.951588
75.5047
30.3168
11.4283
3.97023
0.946109
73.7561
29.8672
11.2885
3.92533
0.935747
77.2616
30.6126
11.497
3.98965
0.95042
77.2076
30.6299
11.4924
3.98549
0.949175
78.7297
30.7612
11.5348
4.00126
0.953105
78.5164
30.7923
11.5304
3.99696
0.951821
75.342
30.3209
11.4236
3.96687
0.945136
76.5361
30.3862
11.4208
3.96339
0.944123
74.7885
29.9582
11.2949
3.9248
0.935427
76.2993
30.1077
11.31
3.92628
0.935538
76.3009
30.6033
11.5497
4.01653
0.957729
77.8925
30.7214
11.5598
4.01791
0.95799
76.4449
30.6602
11.5569
4.01573
0.957178
77.995
30.7635
11.5668
4.01786
0.957681
77.4792
30.788
11.562
4.01222
0.955883
78.5755
30.8654
11.5743
4.01576
0.95673
78.556
30.8808
11.559
4.00719
0.954353
79.3536
30.9252
11.5689
4.01034
0.955109
79.4584
30.8739
11.5498
4.00305
0.953263
21999
29754.3
21967.7
29570.6
21878.8
29162.3
21059.7
28307.7
19175.8
26365.1
16938
19292.4
17304.3
20634.5
16818.9
18838.7
16992.3
18854.5
18573.2
3246.61
735.878
182.12
36.214
19888.9
5973.6
1546.66
387.398
77.2153
18389.3
3178.7
719.129
178.018
35.3993
19680.1
5875.03
1522.34
381.047
75.644
17941.8
3093.93
700.635
173.956
34.6915
19230
5735.36
1489.48
373.872
74.4594
17146.1
2930.3
664.804
166.101
33.3101
18444
5505.32
1436.39
362.665
72.57
15876.3
2665.22
608.744
153.84
31.1113
17163.9
5158.77
1358.4
346.191
69.738
13834
2438.7
581.941
151.223
31.043
14015.2
4434.62
1210.16
317.44
65.2363
14488.2
2498.31
585.582
150.394
30.6763
15020.4
4710.67
1266.26
327.361
66.5739
13531.5
2417.76
582.222
152.274
31.3644
13593.2
4300.13
1181.13
312.536
64.6873
13410.8
2391.28
576.977
151.336
31.1962
13492.9
4257.01
1170.73
311.453
64.5518
38880
59589.3
57495.6
36318.2
26452.4
33629.4
25186.5
33416.9
31824.3
55418.5
34411.2
57139.6
1.42443
2.28485
4.47071
9.13855
18.77
38.332
2.13366
3.33436
6.31444
12.4442
24.3445
46.6009
0.989353
0.797757
1.69359
1.46328
3.55124
3.29064
7.68447
7.58165
16.3198
16.583
32.9419
31.6678
77.6272
153.106
292.474
538.626
876.204
1131.87
86.5795
154.277
260.914
410.39
576.085
689.458
3.63693
4.91114
5.62593
5.92764
6.01261
5.81139
7.79411
8.8602
9.27178
9.36635
11.3165
15.0495
16.9469
17.5864
17.6774
23.0051
30.3017
33.7642
34.7174
34.7081
46.9274
61.0853
67.2053
68.3547
67.9056
94.969
121.734
131.791
132.264
130.405
5.42896
7.28659
8.29061
8.68284
8.77576
8.44745
11.2521
12.6948
13.1967
13.2789
15.9112
20.9948
23.4414
24.1475
24.1678
31.1703
40.7058
44.9425
45.8517
45.6325
60.554
78.1408
85.1883
85.9906
85.0599
114.941
146.23
157.092
156.677
153.951
2.53341
3.43883
3.96266
4.1972
4.27077
2.04663
2.7874
3.2242
3.4266
3.49371
4.32007
5.82415
6.65974
7.00538
7.09864
3.73907
5.05646
5.802
6.12183
6.21457
9.01651
12.0559
13.6582
14.2487
14.367
8.36894
11.2232
12.7565
13.3458
13.4789
19.4079
25.7105
28.8286
29.8024
29.8872
19.1785
25.4756
28.6477
29.687
29.8123
40.9497
53.6354
59.3959
60.7405
60.5263
41.6783
54.7365
60.7773
62.2829
62.1325
81.9773
105.855
115.449
116.541
115.265
79.0363
102.537
112.334
113.779
112.726
189.955
238.533
252.946
249.703
244.025
368.469
450.447
465.609
450.958
436.64
688.216
812.354
813.984
771.806
741.039
1228.24
1383.32
1334.82
1237.26
1182.08
1921.53
2045.35
1897.03
1724.03
1650.87
2428.02
2502.06
2269.87
2041.18
1959.61
211.349
264.309
279.115
274.644
267.944
371.865
455.588
471.729
457.398
443.039
619.265
740.406
749.858
715.946
688.92
956.43
1112.02
1099.88
1034.44
990.496
1317.74
1490.21
1442.44
1340.03
1280.19
1559.55
1734.88
1658.68
1530.76
1461.51
1.42769
2.29785
4.50578
9.22589
18.9731
38.7594
2.13751
3.34846
6.3471
12.5107
24.4609
46.7609
0.99226
0.800565
1.70641
1.47683
3.59107
3.33846
7.80087
7.7446
16.6393
17.0679
33.8226
33.3501
78.2587
153.405
291.334
534.222
869.711
1128.67
86.6725
153.993
259.792
408.127
573.448
688.254
3.64647
4.92707
5.64836
5.95543
6.04343
5.84928
7.85689
8.94794
9.3799
9.48593
11.418
15.2159
17.1772
17.8682
17.9879
23.2568
30.7115
34.3273
35.4021
35.4599
47.5147
62.0438
68.5214
69.952
69.6569
96.2229
123.813
134.671
135.772
134.256
5.44068
7.30709
8.32046
8.72058
8.81801
8.49045
11.3275
12.8045
13.3354
13.4342
16.0115
21.1719
23.7001
24.4749
24.5342
31.3779
41.0786
45.4924
46.5505
46.4159
60.9336
78.8512
86.2622
87.3718
86.6159
115.521
147.422
158.985
159.171
156.789
2.54172
3.45225
3.98104
4.21957
4.29537
2.05455
2.79993
3.2411
3.44695
3.51597
4.35633
5.88186
6.73782
7.09955
7.2017
3.77678
5.11511
5.87983
6.21443
6.31522
9.12788
12.2302
13.8904
14.5255
14.668
8.50026
11.4234
13.0171
13.6513
13.8082
19.7304
26.2079
29.4817
30.5722
30.7194
19.6207
26.137
29.4921
30.6618
30.8548
41.8318
54.9869
61.1558
62.7998
62.7428
42.989
56.6823
63.2396
65.1041
65.1361
84.3889
109.498
120.119
121.935
121.029
83.4776
108.882
120.059
122.363
121.714
191.954
242.129
258.188
256.268
251.321
370.109
454.631
472.775
460.654
447.769
687.162
814.931
821.518
783.762
755.58
1220.41
1379.67
1338.04
1246.97
1195.77
1909.08
2036.35
1894.43
1727.74
1658.66
2421.74
2497.11
2267.57
2041.54
1961.72
211.931
265.899
281.95
278.577
272.512
371.784
456.947
475.087
462.585
449.301
617.489
740.418
752.726
721.53
696.131
952.2
1109.6
1100.86
1038.77
996.875
1312.56
1486.39
1441.51
1342.04
1284.05
1557.14
1732.97
1657.92
1531.19
1462.69
3704.48
2085.2
131.574
64.9957
72.6825
54.9455
94.7567
3004.55
2466.39
1329.23
1653.67
467.867
809.921
306.276
378.556
254.7
2889.21
1079.87
409.836
338.694
581.462
456.478
279.491
217.274
155.891
119.806
245.371
206.71
3317.85
1611.68
1945.56
925.198
620.912
1147.14
276.624
140.128
333.1
6795.54
5507.32
4387.29
3753.5
4932.75
4138.59
3811.45
3238.52
2828.6
2795.67
319.047
395.166
414.256
406.103
395.953
160.439
204.482
220.264
220.34
216.964
180.114
230.952
250.133
251.153
247.721
136.552
175.959
191.571
193.2
191.036
232.815
294.412
314.592
312.639
306.727
5868.35
5232.44
4315.59
3695.27
4764.93
4917.92
4455.93
3732.19
3241.12
3265.36
2813.76
2855.55
2573.76
2298.1
2207.94
3476.34
3355.03
2884.72
2535.71
2379.68
1077.21
1233.08
1208.3
1130.11
1078.78
1787.32
1923.71
1802.34
1641.14
1553.47
724.506
863.081
872.935
832.944
800.825
887.23
1041.67
1039.89
982.837
940.44
608.97
737.106
755.439
727.087
701.455
5634.42
5015.64
4139.95
3566.45
4648.84
2328.61
2426.75
2226.85
2013.36
1947.6
952.141
1104.18
1093.03
1030.03
988.41
793.086
930.895
931.095
883.986
851.28
1315.47
1468.47
1413.44
1312.13
1260.95
1053.07
1208.04
1185.3
1112.25
1068.46
659.391
782.605
789.899
754.538
728.179
520.282
631.451
649.306
627.515
607.718
379.541
472.776
497.613
488.568
476.186
293.332
368.798
391.781
387.504
379.19
585.796
707.845
725.091
698.513
675.129
496.182
604.652
624.182
604.826
586.347
6227.73
5238.01
4232.3
3632.9
4768.75
3293.51
3171.35
2771.49
2456.57
2411.49
4085.04
3961.41
3396.87
2990.77
3135.23
2024.52
2152.01
1998.17
1819.92
1752.96
1404.86
1566.09
1503.07
1392.93
1337.13
2466.96
2561.18
2342.09
2113.99
2048.71
653.975
778.534
787.688
753.462
727.333
340.282
422.32
443.363
434.911
424.019
780.623
917.09
917.682
871.607
839.558
1176.18
1236.22
1327.68
1361.33
1194.36
520.01
23050.6
23132
24695.2
26045.5
21372.5
21773.3
22726.9
21002.5
20132
29674.6
20407.4
29699.1
23370
20264.5
36761.1
21287.1
21163.8
22408.8
23383.6
19226.8
19658.3
20925.4
19635
19560.3
35743.8
19673.3
34426
23187
25813.9
39105.7
18951
18655.5
19277.5
19867.2
17140.6
18224.1
18331.4
17788
21785
29523.9
22373.8
28885.7
24573.2
28407.5
33049
16459.9
16200.7
15924.7
16260.8
15259.4
16576.8
15247.8
15115.5
18803.8
23891.1
19306.7
22545.5
20512.9
23169.3
25760.4
14090.8
13879.1
13330.6
13535.4
13683.1
15038.3
12859.1
12936.8
16390.9
17497.4
16888.1
16014
16956.9
16713.2
18509
12789.6
12651.8
11487.8
11634.3
12327.3
13121.3
11219
11206.8
14509.2
13260.6
14674.2
12349.2
14300.4
12464.6
14833.3
21802.4
20455
24343.2
26242.4
19064.5
18317.7
21717
19824.6
17443.1
10952.5
17179.2
11008.1
14692.8
12952.1
14307.8
19565.6
18566.8
21392.7
22700.9
17619.3
17146
19553.3
17976.8
14928.7
9432.28
14728.4
9529.8
12245.6
10352.6
11753.3
16404.4
15779.3
17600.6
18315.4
15157.1
14716
16564.2
15488.7
12515.9
7995.77
12090.3
7827.73
10215.7
7983
10077.3
12861.8
12486.2
14049.9
14439
12025.7
11543.7
13551.1
12680.2
9776.01
6642.38
9503.65
6549.54
8136.89
6772.26
8465.61
10400
10148.2
11587.6
11829.8
9641.17
9204.23
11328.2
10672.2
7954.42
6126.72
7751.07
6082.16
6914.9
6286.69
7497.22
8604
8402.4
9926.57
10106
8093.07
7968.29
9683.61
9295.91
6848.48
5758.15
6746.67
5773.29
6161.75
6068.3
7044.51
14672.7
8321.35
23558.6
15709.8
25871.4
19354.7
39238.3
50447
52199.1
65732.5
34427.8
30371.6
21793.3
17682.7
10846.5
7257.23
23251.5
22409.5
20560.9
23300.1
31059.9
26104.1
37455.6
28476.4
9998.62
7041.97
5653.98
4395.05
11638.7
9640.58
7345.45
6350.75
23966.8
23672.1
22881.3
17458
16935.1
14199.5
13545.1
15769.2
21531.2
21798.6
48117.9
50212.6
32001.6
33515.6
21077.3
17719.3
21248.2
14667.3
10001.6
10635.3
9303.22
15269.9
4882.33
6570.97
12777.8
20314.8
7856.05
9982.85
13401.3
26834.9
9555.58
17612.6
3474.41
10327.9
2906.73
7685.97
19028.8
23698.1
20739.9
24228.3
22347.3
21898
23896
22196.3
18876.4
26239.8
18460.6
25372.4
20908
24434.3
21149.5
24553.6
24784.4
22253.4
25018.2
22181.5
17748.2
26666
17312.5
26929.5
25108.4
32743.3
31696
49778.5
26581
38660.6
31288.8
54976.4
23863.5
28459.3
31908.6
47519.9
23727.7
26509.2
32385
47168.8
9558.09
13076.5
24970
45997.2
11524.3
13496.7
31449.7
50876.9
13498.3
13669
38295.2
53895.3
27209.8
25621.7
26372.7
28757.6
48566.8
25055.8
26521.3
26432.5
25350.1
56974.4
23100.9
25100.4
25277.8
29679.3
63491.3
3223.59
3898.83
7110.85
18676.2
4507.37
5186.76
9470.09
19890.5
6253.25
5170.26
12130.3
21114.9
23007.7
19910.7
23038.8
19597.2
23048.6
18016.3
18971
15051.3
15037.8
23153.6
21644.3
18592.9
24046.5
21216.1
23519.8
19959.3
22075.9
18456.3
15627.2
22397.6
24658.1
26583.8
24750.7
27591.4
21898
21401.7
21632.1
22077.9
24856.5
24586.6
24726.5
23814.4
24585.8
27840.4
24585.8
27963.4
21112.7
22608
21032.8
22680.1
24827.5
24427.3
24901.1
24474.5
23120.7
21632.2
15535.6
18435.5
23191.5
21292.9
15394
18936.9
23249.8
21392.2
15845.7
18329.6
23292.4
21105.4
16322.4
18255.9
2185.74
1110.06
591.478
1122.02
507.277
406.054
3168.71
1291.63
733.597
2049.66
1236.29
777.755
3122.5
1650.35
1248.94
3402.15
2030.74
1439.12
15301
10206
7299.98
15398.5
10651.5
7802.87
12100.8
8269.78
6206.59
9643.66
5880.22
4191.27
5262.7
2634.22
1678.83
14649.7
9926.49
6957.26
16692.1
11047.6
7650.39
13928.7
8393.81
5583.82
10199.1
5531.41
3604.69
5510.41
2529.15
1467.41
29120.2
27043.2
33007
28047.7
34594.2
28335.4
43760
31091.2
20530.3
19183.1
20598.8
17771
23545.9
20402.5
23689.8
18701.7
23286
22273.7
21360.3
21970.3
26019.4
24325.5
30441.2
31422.1
34869.2
36680.7
24095.1
25548.8
21679.8
21357.3
24863.5
25836.4
13848.2
6753.67
13211
7538.49
14264.2
6784.15
13333.7
7438.21
14369.9
6782.17
13676.8
7813.65
13522.9
8205.83
13804.9
8041.33
20199.2
15937.1
20872.8
16298.1
23448.9
20030.1
24681.6
20322.2
19384.5
12455.7
19507.5
12008.7
21906.5
16422.6
22421.5
16249.4
26048
20446.5
26359.1
20253.5
19631.8
12613.4
19727
12502.5
11380.7
6610.54
8910.72
5255.32
10202
5775.66
8376.22
4851.56
11874.3
7080.67
9116.06
5417.22
11932.5
7297.09
9044.57
5404.64
1913.76
880.606
3319.67
1736.9
2004.93
1048.66
3493.81
2023.22
2413.44
1560.02
3825.88
2582.65
10236.8
17613.6
6975.57
6421.11
4327.74
16505.6
10272.2
5349.38
5280.73
3406.25
18180.7
13137.8
9624.16
6875.83
4114.94
387.241
182.754
977.415
648.127
518.466
233.983
1265.76
863.226
897.184
462.241
1759.52
1226.97
15598.2
13049.7
9280.6
7428.44
5261.05
4249.86
4165.39
2889.87
2650.65
1841.65
15316.1
12073.9
10618.1
7715.89
7409.97
5179
5119.51
3477.75
3323.15
2533.11
11617.8
7654.06
12049.5
7877.08
15523.9
11298.5
15934.1
11745.3
8965.12
5728.26
8446.93
5449.19
12253.3
7956.32
12185.6
7946.53
16073.4
12261.7
15967.1
12276.3
9260.32
5776.21
9215.73
5814.31
6217.5
3972.05
3951.5
3141.69
5842.43
3709.79
3751.58
2878.62
6534.95
4102.23
4057.25
3309.28
6643.98
4089.99
4208.5
3334.77
269.769
186.557
126.021
1262.58
496.37
323.069
267.278
218.446
158.593
1453.99
623.433
423.916
443.046
390.921
321.269
1755.68
843.173
597.297
9602.85
6577.32
4882.61
5384.92
3743.34
2862.62
3176.18
2215.69
1735.36
2129.6
1456.04
1110.47
2214.97
1134.49
799.333
8706.08
5702.74
4003.72
5217.86
3329.9
2363.11
3434.19
2140.12
1525.3
2556.3
1547.6
1067.3
2927.64
1333.82
885.247
2874.12
1175.46
473.111
175.583
3279.1
1304
510.356
185.366
2877.79
1172.7
473.197
175.694
3333.96
1333.45
529.337
194.225
2864.03
1156.64
488.852
186.768
3401.83
1346.53
562.171
213.022
3663.12
1423.72
548.015
197.415
3704.77
1454.7
544.174
193.7
3003.45
1231.95
520.038
196.948
2430.14
1052.26
461.966
178.953
2618.86
1101.58
485.488
192.344
2249.33
990.33
443.263
174.973
3243.39
1320.46
534.843
196.493
2526.01
1091.73
469.937
180.214
3345.11
1366.75
543.314
199.368
2550.89
1112.92
477.441
184.583
2079.46
965.464
421.076
164.392
1367.47
738.51
358.402
147.358
2082.32
960.593
421.638
165.137
1428.6
752.82
362.216
148.659
2141.17
963.465
431.678
170.732
1608.09
797.18
376.175
152.761
2115.21
937.807
426.794
174.475
1769.46
830.813
395.672
159.163
1994.52
910.432
418.885
170.713
836.475
577.886
275.075
73.4626
428.677
498.448
243.798
67.7579
931.319
607.867
285.589
77.7341
513.43
529.277
252.823
70.0297
1126.38
663.624
299.75
79.0328
677.924
583.859
265.627
72.1586
1390.1
734.972
325.303
87.0291
891.99
650.711
284.952
76.9171
1606.94
805.705
357.222
100.211
1034.36
710.836
303.482
81.3485
1783.31
885.48
370.988
98.856
1109.08
788.622
335.719
88.8979
1718.33
853.528
363.286
98.0947
1043.52
755.986
320.34
84.9847
1811.96
902.651
369.029
93.6887
1128.7
809.558
341.553
89.4185
1844.12
915.224
373.776
94.5324
1166.4
823.045
347.116
90.722
65.7167
26.8706
10.2772
3.60916
0.865481
66.9272
27.1084
10.3341
3.62371
0.868402
66.6543
27.332
10.4126
3.64706
0.873407
69.0693
27.7004
10.5029
3.67195
0.878649
69.3014
27.8769
10.559
3.68861
0.882243
72.1711
28.2399
10.6637
3.72024
0.889162
71.5198
28.7451
10.8603
3.78259
0.902993
72.3343
29.2867
11.0756
3.85437
0.919371
71.8467
28.5244
10.7586
3.74829
0.895202
72.4387
28.8202
10.8535
3.77635
0.901249
71.5543
28.2151
10.6531
3.71578
0.888059
72.0731
28.5521
10.755
3.74538
0.894393
71.9622
28.9434
10.9257
3.80224
0.907266
73.6096
29.2076
10.9952
3.82231
0.911611
73.6503
29.4906
11.1232
3.86745
0.922168
75.3175
29.7038
11.1619
3.87675
0.92407
64.7655
26.6269
10.2165
3.59394
0.862486
64.0429
26.469
10.1772
3.58415
0.860573
65.7651
26.9997
10.3245
3.62361
0.868607
65.0121
26.782
10.266
3.60826
0.8655
67.9195
27.5751
10.4765
3.66522
0.877272
67.1074
27.3381
10.412
3.64752
0.87358
69.9801
28.0759
10.6104
3.70276
0.885208
69.4455
27.9179
10.5648
3.68961
0.882394
71.5472
28.3354
10.6847
3.72424
0.889799
19547.9
30335.6
20027
30275.8
20461.1
29842.3
20286.4
29033.1
18693.4
26966.9
16617.8
18995.7
16839.1
20339.2
16632
18648.8
16932.5
18794
18165.4
3187.1
721.159
178.155
35.4211
20064.9
5937.2
1526.71
381.22
75.9486
18061.7
3146.72
711.214
175.743
34.9396
19893.1
5854.21
1507.03
376.079
74.6251
17732
3069.75
693.729
171.902
34.2732
19464.7
5723.42
1476.58