/*--------------------------------*- C++ -*----------------------------------*\
| =========                 |                                                 |
| \\      /  F ield         | OpenFOAM: The Open Source CFD Toolbox           |
|  \\    /   O peration     | Version:  2306                                  |
|   \\  /    A nd           | Website:  www.openfoam.com                      |
|    \\/     M anipulation  |                                                 |
\*---------------------------------------------------------------------------*/
FoamFile
{
    version     2.0;
    format      ascii;
    arch        "LSB;label=32;scalar=64";
    class       volScalarField;
    location    "0.5";
    object      gradTx;
}
// * * * * * * * * * * * * * * * * * * * * * * * * * * * * * * * * * * * * * //

dimensions      [0 -1 0 1 0 0 0];

internalField   nonuniform List<scalar> 
5712
(
-9223.3
-11830.7
-21295.9
-31663.9
-32531.9
-55866.7
-24413.1
-61508.5
-19451.5
-42604.8
-29079.1
-44577.4
-25688.1
-34421.8
-11437.4
-13284.7
-21849.6
-25000
-27477.2
-27413.8
-20985.2
-25183.4
-30547.9
-27237.5
-7906.24
-6322.36
-9798.03
-6955.62
-18594
-15598.2
-31240.1
-23577.2
-24031.3
-25137.2
-27918.7
-27564.2
-10771.2
-8058.98
-54849.9
-73404.8
-36211.1
-44277.8
-71043.7
-92536.4
-37299.8
-42801.4
-42048.8
-59369
-37702
-49485.3
-22634.9
-35885.5
-4666.4
-1616.93
-4867.93
-1796.85
-13991.9
-5799.55
-18835.8
-7132.77
-14164.2
-5442.41
-14315.8
-4745.77
-23865
-7831.03
-30767.9
-10679.4
-32385.7
-16845.8
-30198.4
-17971.1
-28663.5
-18466.3
-25825.8
-18538
-25479.6
-15733.3
-25467.9
-13935.6
-31561.6
-19656.2
-31854.7
-19766.4
-27675
-19460.5
-28148.3
-19416.7
-27573.4
-17722.5
-28624.4
-18124.9
-26820.9
-12470.7
-13837.1
-17864.4
-26641.9
-13709.5
-12337.1
-18276.2
-28505.1
-12311.5
-15392.7
-17895.9
-30042.3
-12588.3
-16561.4
-18580.5
-5956.11
-6497.62
-2091.23
-4398.44
-16999.3
-17883
-7067.22
-13331.8
-21573.6
-23150.4
-11793.7
-20354.1
-12155.4
638.406
-16870.4
-23696.7
-14609.1
1269.29
-5785.12
-15553.3
-27205.8
-23222.3
-12400.1
-16540.6
-16497
-16059.3
-26223.9
-5220.15
-3878.74
-3141.52
-2939.69
-14264.4
-10722.1
-9564.1
-8589.33
-17148
-12520.6
-12624.2
-10583.2
-4703.11
-6159.81
-10845.3
-11256.8
-16901.5
-14483.4
-20154.7
-15953.7
-16856.2
-13586.7
-9520.59
-8266.93
-13514
-8325.27
-13939.2
-7945.96
-13712.9
-7585.5
-18205.1
-10650.1
-11749.5
-3186.68
-10900.7
-9390.1
-13137.3
-14422
-14694.9
-18619
-10027.9
-8556.95
-11638.4
-1430.21
-9982.9
-15518.7
-9569.6
-16867.2
-14631.6
-23289.8
-14822.4
-25018.2
-8999.67
-14866.1
-8481.62
-16058.8
-13123.1
-7931.19
-19210.7
-6682.09
-12445.2
-495.631
-16579.2
181.596
-12916.4
-12132.4
-20098.4
-8488.44
-11266
-14363.9
-18342.9
-10976.5
-2613.37
-1956.71
-1337.79
-1982.98
-1546.57
-1119.9
-7346.28
-4576.57
-2975.81
-5369.09
-3244.24
-2128.32
-7839.02
-5064.5
-3871.42
-6345.86
-3750.19
-2856.66
-4387.83
-2659.92
-2124.83
-8611.58
-4414.24
-2819.17
-9758.75
-4983.6
-2919.75
-10366.7
-5856.44
-3995.34
-8764.31
-4251.61
-2503.95
-11749.6
-7382.77
-4667.4
-9007
-5545.27
-3154.48
-9647.54
-5476.44
-2872.05
-9536.93
-5113.63
-2559.01
-11911.3
-5414.43
-2099.77
-12147.1
-15768.9
-10132.6
-12530.3
-14679.7
-20407.2
-13700
-18729.4
16.1138
-634.61
474.702
-218.537
-3063.9
-3083.06
-1545.12
-930.603
-1483.2
-3044.89
-10209
-14062.5
-6189.69
-3988.85
-12021.7
-12086.2
-19925.5
-22060
125.361
4026.91
-8528.07
-7948.11
-7194.91
-5448.88
-1001.99
-514.529
-819.017
-432.543
-2169.88
-317.38
-301.023
273.816
-8878.34
-1987.37
-6550.89
-1720.06
-8899.29
-2510.37
-10504.4
-2927.31
-10765.3
-12138.2
-9850.82
-11822
-17843.4
-17012.9
-16998.8
-16067.7
-6215.07
-8362.8
-7157.62
-8310.55
-10306.8
-11412.9
-11114.8
-11372.7
-17756.6
-15796.1
-18492.9
-15712.1
-6175.31
-8081.53
-6496.43
-8069.13
-28.5231
-686.814
-5382.55
-2279.93
242.071
-430.909
-4958.97
-1988.69
-323.982
-858.936
-5457.33
-2467.94
-524.277
-941.457
-5359.42
-2470.74
394.009
449.796
-160.234
5.99167
1849.25
1723.26
67.7225
280.885
136.504
1015.52
-1018.71
-436.787
8366.67
9578.2
3941.03
2765.4
393.531
10335.8
8967.12
2859.18
3904.43
689.739
-11166.2
-8078.15
-6068.03
-4615.49
-1898.87
347.086
241.144
49.1679
43.4158
1184.9
859.687
182.958
142.226
1216.27
1157.81
-119.297
-52.5886
4158.72
1124.17
5698.03
2635.69
1912.07
992.85
2035.87
1332.12
75.6129
-147.936
-4194.07
-2382.61
-1681.85
133.653
-1138.42
121.116
-986.01
-113.021
-513.898
-385.073
-4896.77
-3750.9
-8706.89
-4822.43
-8207.45
-6903.73
-12075.7
-8693.27
-5813.65
-3043.33
-3058.95
-2458.38
-10100.8
-4290.24
-10911.7
-4719.22
-13334.2
-8967.42
-14063.1
-9643.22
-6977.4
-2585.85
-7643.8
-2912.32
-3504.33
-2143.56
-1477.62
-1814.05
-2187.64
-1874.26
-1217.26
-1657.95
-4021.97
-2071.32
-1637.49
-2074.82
-4861.69
-2211.8
-2283.29
-2096.75
153.188
110.32
103.764
16.7809
37.1627
35.0674
579.23
433.284
356.053
66.5937
112.355
96.2909
867.593
660.65
526.967
-79.6298
116.476
127.962
239.211
219.184
30.9587
1120.67
969.04
742.289
721.682
674.64
568.826
915.383
722.273
575.624
-256.605
34.528
57.0668
-3029.74
-1509.13
-743.574
-183.053
239.092
385.434
-80.7039
304.769
400.987
-75.5388
248.058
297.692
-501.167
35.0766
88.2459
-12.1734
-3.43658
-0.8005
1.10016
74.3475
23.9334
12.4799
6.44783
-54.4413
-15.8647
8.368
10.0596
90.4318
29.9935
32.3142
18.9246
-177.791
-46.0859
11.8806
21.2063
-77.7446
-13.1087
10.3802
10.0662
-102.901
-17.9184
-4.96356
-1.09168
-164.81
-39.2045
0.7137
5.82439
-496.779
-128.812
-33.8669
-4.1472
-618.842
-153.442
-50.1751
1.73061
-351.503
-86.3552
-13.2956
11.1357
-508.619
-122.937
-48.7513
-2.28298
-519.387
-135.663
-24.2692
4.27022
-684.076
-173.207
-53.3008
4.8068
-535.115
-143.561
-20.8418
9.10455
-715.834
-185.031
-56.9088
4.19009
-8.98948
-3.50723
-0.0708723
2.05142
12.0468
3.29229
-1.12862
1.57249
0.786099
-2.42932
5.67442
8.09964
57.9509
16.1504
0.313499
5.17361
-205.466
-57.7501
-8.34368
9.14011
-94.3292
-23.9907
-10.0269
7.44407
-77.1776
-11.7352
6.26226
13.939
-22.8803
-0.697143
-9.98795
6.81812
-431.238
-102.532
-41.4196
6.30089
25.9058
8.2977
2.17897
2.20471
48.6738
15.2181
4.43862
1.71491
52.6506
17.8917
1.86207
4.48666
128.333
40.4631
10.3962
4.06398
24.6625
13.5866
-1.0871
6.14782
172.015
56.0572
14.6193
5.78313
-45.5993
2.36162
-4.284
8.32446
148.732
57.2519
14.9198
6.19886
-206.379
-31.0242
-22.7962
2.85522
59.8888
42.3735
8.83468
4.61668
-461.784
-88.9633
-37.4123
0.194764
-143.059
-14.5768
-4.98984
0.24596
-353.39
-59.0995
-32.209
-0.127428
-70.3872
9.86738
1.56493
2.47194
-540.809
-113.135
-42.6369
-0.0636748
-193.495
-31.8483
-8.58847
-0.995304
-585.26
-129.302
-46.7381
-1.65065
-226.26
-43.7222
-11.4677
-1.96277
0.782085
0.241087
0.0706074
0.0207421
0.00734998
1.27762
0.371968
0.109732
0.032616
0.0116696
1.85941
0.53344
0.155725
0.0459641
0.0163625
2.47563
0.746555
0.226358
0.0683572
0.0247121
2.31275
0.633793
0.185283
0.0550326
0.0196984
2.89146
0.924885
0.285353
0.0869914
0.0316563
1.10201
0.398882
0.128052
0.0399325
0.0147756
0.722467
0.210995
0.0652244
0.0203249
0.00756576
1.72852
0.57437
0.176042
0.0533899
0.0193681
0.673672
0.218989
0.0670055
0.0203423
0.00739168
2.51018
0.74623
0.223581
0.0671866
0.0242408
0.823176
0.250595
0.0745836
0.0222885
0.00801121
1.04782
0.32152
0.0985856
0.0301844
0.0110513
0.606969
0.173214
0.0528919
0.0162834
0.00599742
0.894124
0.19506
0.0530681
0.0157276
0.00570873
0.448974
0.0884975
0.022931
0.00669871
0.00242444
0.654368
0.196367
0.0563312
0.01626
0.0056849
0.631117
0.181853
0.0509341
0.0144402
0.00498238
1.80216
0.496955
0.140356
0.040513
0.0142052
1.74873
0.473931
0.13114
0.0372473
0.0129106
2.12207
0.563683
0.15936
0.0463418
0.0163606
2.35243
0.620721
0.172797
0.0496725
0.0174059
2.34327
0.646244
0.187536
0.0554405
0.0198074
1.75072
0.463399
0.130454
0.03788
0.0133772
1.17009
0.340503
0.100914
0.0301394
0.0108396
-32.4256
-319.828
146.207
-726.013
646.415
-819.531
1599.26
-391.631
2362.23
975.227
-434.921
-1463.78
1563.1
1268.62
-1308.71
-2622.16
-1850.17
-3063.72
-1300.82
-338.576
-91.9362
-29.5669
-14.0186
-322.998
-193.902
-34.2498
-13.0284
-7.42049
-4003.38
-1036.29
-282.575
-90.7604
-43.1768
-756.897
-270.817
-87.0715
-28.912
-14.5195
-6703.64
-1742.42
-478.024
-154.532
-73.6511
-1311.61
-481.357
-150.528
-52.3476
-24.9559
-8953.5
-2342.68
-648.964
-211.738
-101.55
-1641.94
-631.705
-200.921
-70.1941
-33.5033
-11159.1
-2960.14
-830.991
-274.535
-133.006
-1974.73
-800.759
-258.261
-91.031
-44.0048
-13206.8
-3642.11
-1048.29
-353.415
-173.575
-3273.42
-1144.17
-350.546
-120.292
-58.1008
-12300.9
-3364.03
-958.412
-319.86
-156.012
-2486.01
-959.294
-303.698
-105.788
-51.0328
-13625.1
-3775.75
-1093.13
-370.596
-182.674
-3728.4
-1255.33
-378.189
-128.325
-61.9723
-14206.3
-3912.99
-1136.39
-385.908
-190.425
-3894.2
-1310.53
-396.319
-128.474
-63.9816
-1058.2
-9605.59
-8740.26
-3114.94
1805.47
3063.83
8294.89
12447.5
1138.49
8837.05
-3679.61
1318.2
1977.49
5102.23
10621.8
15609.8
16158.1
20719.4
6609.59
8682.52
-17575.7
-11627
-1418.97
-697.845
-459.13
-547.447
-770.549
-9960.74
-7181.57
-6462.16
-5375.12
-3292.23
-2473.5
-3978.31
-1800.4
-1497.76
-1558.11
-1043.57
-16379.1
-6545.99
-1338.78
-2539.4
-4590.09
-2711.28
-2533.6
-1630.69
-704.021
-929.769
-1354.11
-1513.43
-16972.6
-9862.5
-9095.64
-5819.57
-4779.28
-5990.64
-1493.31
-1447.35
-2736.34
-10841
-7909.96
-5308.22
-3601.02
-2174.65
-6904.66
-4281.42
-2786.35
-1679.45
-673.437
-1173.04
-896.957
-616.28
-356.747
-116.959
-589.931
-461.229
-322.663
-188.685
-61.9322
-386.748
-300.782
-209.066
-121.513
-39.7227
-466.388
-367.43
-258.565
-151.666
-49.7996
-646.41
-500.835
-347.272
-201.71
-65.9824
-5616.76
-3620.92
-2276.5
-1527.78
-1127.7
-3387.59
-2065.99
-1156.4
-720.516
-395.267
-3799.96
-2188.17
-1338.67
-768.139
-305.682
-2503.57
-1455.76
-805.964
-449.21
-199.3
-1411.6
-778.126
-410.619
-214.859
-81.0861
-1815.87
-1240.66
-775.803
-422.766
-136.812
-2573.83
-1589.45
-960.356
-521.071
-175.539
-1109.26
-641.898
-363.174
-184.274
-58.186
-1153.02
-819.254
-526.906
-290.952
-93.5057
-1157.63
-794.492
-494.517
-265.82
-84.0729
-814.513
-585.487
-379.333
-209.793
-67.0996
-9605.01
-6264.02
-4102.64
-2687.56
-1768.47
-4382.29
-2871.14
-1834.98
-1056.78
-402.598
-1036.11
-742.637
-483.132
-270.262
-88.223
-1993.16
-1452.27
-960.815
-545.455
-180.277
-3462.06
-2456.79
-1604.25
-913.793
-313.396
-2135.97
-1564.74
-1042.09
-595.466
-197.643
-2030.09
-1509.61
-1016.39
-583.438
-192.632
-1324.93
-995.124
-673.254
-385.988
-126.336
-570.775
-425.967
-285.159
-161.396
-52.1624
-771.963
-591.319
-405.628
-233.769
-76.2129
-1077.19
-790.484
-522.97
-294.636
-95.5712
-1225.46
-916.568
-617.27
-352.438
-115.075
-10342.4
-7250.74
-4870.25
-3191.83
-1922.35
-6218.93
-4004.68
-2612.47
-1559.88
-634.256
-6020.73
-4210.75
-2690.1
-1586.57
-627.105
-4180.24
-2848.3
-1860.82
-1078.88
-386.411
-3657.07
-2632.44
-1739.08
-998.307
-341.182
-4268.57
-2896.51
-1883.38
-1087.42
-384.572
-1184.94
-870.887
-579.79
-330.156
-108.67
-1200.01
-918.588
-630.527
-364.045
-118.927
-2190.21
-1623.92
-1089.25
-622.922
-204.876
-8199.28
-16866.2
-17117.6
-47820.7
-16166.7
-61206.2
-9016.53
-21934.9
-16445.6
-12794.3
-28067.2
-23372.5
-15564.9
-13967.1
-30213.1
-23320
-6208.84
-4770.91
-12285.8
-8781.02
-13916.8
-10673.8
-37976.8
-28971.6
-22354.5
-16440.9
-23823.1
-14299.8
-1793.03
-5980.78
-58175
-74869.5
-35204.7
-44212
-73890.8
-93813.2
-36081
-42535.6
-44743.7
-60783.6
-36865.4
-49624
-25576.3
-37367.6
-3243.54
-912.852
-5728.13
-1994.35
-10986
-5134.4
-22235.6
-8225.69
-5242.92
-3053.5
-11947
-3920.38
-24224.2
-7840.74
-31226.4
-10814.9
-21445.7
-11989.5
-26029.6
-15543.6
-17923.8
-13190.4
-21570.1
-16018.7
-22560
-13789
-17544.7
-10162.1
-30029
-18583.3
-31494.9
-19477.4
-25992.3
-18341.8
-27699.7
-19113.3
-26620.8
-16854.6
-28432.9
-17889.6
-25776.9
-12254.9
-12606.6
-17608.9
-22877.9
-12742.6
-9986.01
-17691.2
-28463.9
-12353.7
-14851.1
-17801.8
-30136.5
-12636.1
-16423.6
-18560.9
-1903.35
-1866.68
-582.373
-2565.8
-7661.19
-8271.12
-5193.46
-10981.2
-5527.44
-6661.9
-8665.87
-16560.8
-13345.4
-8751.24
-12807.3
-17198.3
-13085.4
-6224.54
-7991.32
-10295.7
-19685.9
-21235.9
-14453.2
-14175.2
-11931.3
-11691.6
-24667.9
-2070.64
-1505.44
-1332.76
-1461.42
-7223.6
-5433.28
-6666.31
-5827.4
-2538.58
-765.274
-8338.44
-6541.78
-8863.19
-9009.78
-8835.72
-8040.92
-9216.17
-6564.43
-12539.9
-9483.78
-14322.6
-10926.8
-11615.6
-9944.86
-11328.3
-6801.55
-9870.23
-5066.33
-10153
-5115.65
-16965.1
-9277.98
-10038.6
-3179.66
-9563.5
-8911.05
-12660.4
-14761.4
-13665.7
-18163.8
-8752.73
-8125.29
-9696.72
-1341.19
-9248.46
-15144.5
-9341.9
-16739.1
-13940.8
-22870.5
-14594.2
-24851
-8334.74
-14589.5
-8280.71
-15966.9
-12350.5
-7724.14
-19090.5
-6702.3
-11131.1
-720.325
-16454
-577.125
-12531.2
-11984.9
-20047
-8453.72
-11139
-14315.1
-18324.4
-10971.9
-1345.29
-1214.6
-1160.49
-1290.72
-4050.59
-3042.1
-4120.77
-3751.53
-0.595963
-736.596
-4814.39
-4891.95
-8256.41
-6801.17
-7259.42
-5266.78
-5127.58
-3731.13
-7401.37
-5717.04
-8963.92
-6220.94
-14045.9
-10165
-7495.91
-4771.2
-7104.25
-3843.39
-7020.92
-3168.09
-8795.55
-2583.78
-5908.37
-9278.24
-5043.75
-10092.1
-10111.7
-11874
-11758.3
-15719.1
-853.014
-454.966
-387.93
-210.023
-3310.26
-1860.43
-2330.87
-708.135
-718.613
-1376.51
-7931.35
-8106.08
-3404.56
-2789.48
-10498.5
-11563.4
-18254.7
-21518.7
698.696
4220.29
-7131.19
-7408.26
-6331.21
-5147.53
-725.639
-557.216
-695.284
-500.986
-1233.67
-482.917
-98.5238
80.3449
-6360.17
-2120.95
-5468.44
-1719.45
-7965.66
-2411.89
-10093.5
-2861.42
-5497.79
-9622.73
-7611.97
-10340.5
-9797.25
-12609.1
-13651.8
-13905.6
-4888.62
-7539.19
-4114.68
-7271.55
-9148.31
-10670.2
-10744.1
-11155.3
-16227.6
-14798.9
-18037.3
-15433.9
-5431.32
-7614.22
-6236.31
-7923.13
198.148
-722.053
-5119.92
-2307.13
239.215
-678.239
-4914.29
-2142.15
-100.07
-851.163
-5250.39
-2456.91
-416.331
-930.217
-5287.37
-2463.19
-699.986
-692.562
-537.321
-484.565
-1377.67
-1282.21
-589.63
-510.946
-6102.4
-5159.65
-1923.6
-1678.97
-2689.38
-3790.68
-2989
525.736
-353.855
-52.7722
-692.803
-3282.22
2042.6
101.656
-14823
-11061.8
-8260.32
-5683.44
-2369.77
-617.512
-465.917
-458.64
-450.131
-1173.81
-850.43
-593.866
-677.253
-4653.46
-3865.22
-1606.64
-1698.14
-3855.5
-5162.45
-2030.01
-3495.5
-3444.87
-3350.45
-304.807
-607.915
-722.221
-1047.4
-8751.29
-6127.83
-6041.18
-3712.85
-4267.23
-2614.08
-2812.24
-1689.49
-1159.13
-1033.13
-6182.33
-5334.25
-8667.04
-5140.66
-9076.12
-8428.85
-11633.4
-8861.31
-6004.26
-3348.44
-4191.71
-3647.23
-9833.91
-4351.8
-10793.4
-4700.25
-12838.3
-8893.96
-13878.5
-9575.01
-6894.8
-2685.72
-7587.84
-2916.27
-3740.17
-2368.27
-1677.5
-1999.79
-2996.53
-2643.69
-1639.33
-2090.69
-4052.33
-2163.94
-1710.92
-2156.71
-4850.31
-2226
-2296.9
-2113.34
-313.265
-272.059
-316.693
-266.571
-731.891
-804.091
-466.069
-415.479
-3288.81
-2757.35
-1048.33
-507.167
-5565.12
-4538.22
-3973.34
-3001.39
-2865.09
-2202.76
-842.485
-807.251
-961.648
-489.966
-6081.35
-4251.95
-3081.02
-2116.44
-2098.78
-1368.45
-1221.08
-706.009
-948.647
-72.7394
-54.0436
-18.6263
-6.13268
-0.596872
-2.02113
-4.51867
3.08968
3.52306
-157.76
-53.153
-2.5008
7.13538
-46.954
-24.5328
14.9633
13.5731
-307.416
-93.4603
-0.710257
18.961
-209.879
-71.7322
-11.4543
2.06384
-169.857
-51.2089
-18.2776
-5.83252
-186.387
-52.0507
-4.63277
3.8562
-551.273
-156.659
-45.9067
-9.23993
-653.059
-169.305
-56.5742
0.293421
-483.389
-134.04
-29.405
5.72331
-574.289
-146.287
-57.2286
-3.66994
-548.818
-153.951
-31.8931
1.63246
-700.396
-182.801
-57.7081
3.50246
-544.847
-150.479
-23.7954
8.06668
-720.605
-188.302
-58.4743
3.72418
-57.7652
-18.2906
-4.2743
1.12126
-46.5478
-12.8476
-6.2544
0.458039
-141.831
-44.7829
-5.71755
5.41867
-108.637
-30.1712
-13.9176
1.9759
-349.197
-100.282
-19.3961
7.1367
-296.59
-79.6222
-27.0795
3.98014
-335.149
-89.0783
-15.4627
8.65028
-253.383
-64.1206
-27.8919
4.64679
-560.515
-139.34
-52.7811
6.18987
-31.9041
-8.18806
-2.37802
0.987332
-10.2059
-2.67796
-0.504112
0.0723724
-99.4942
-25.1535
-11.0415
0.799185
-34.9646
-8.64289
-3.54393
-0.527357
-190.029
-46.0375
-18.9276
1.0878
-77.8241
-17.5731
-5.7308
-0.805766
-296.315
-68.341
-24.7531
3.10939
-146.762
-29.6139
-8.47195
-1.2238
-403.547
-90.0235
-41.9933
-3.00611
-199.779
-37.8931
-13.9222
-2.94022
-550.244
-123.916
-50.3034
-4.15368
-227.028
-47.0468
-15.8579
-3.76238
-510.545
-112.9
-50.5198
-6.03444
-233.07
-45.9101
-15.5216
-3.59012
-580.022
-131.015
-49.7958
-2.52105
-227.962
-47.1602
-14.069
-3.02809
-595.25
-134.434
-48.91
-2.41524
-234.13
-47.6835
-12.9858
-2.54521
0.166055
0.0127727
-0.00535686
-0.00353316
-0.00181964
0.173187
-0.0151897
-0.0167454
-0.00764186
-0.0035517
0.454499
0.0123193
-0.0174347
-0.00942043
-0.00459597
0.115533
-0.0910187
-0.0495584
-0.0200214
-0.00886693
0.628595
-0.000696779
-0.0258814
-0.0126041
-0.00593865
-0.239388
-0.172369
-0.0752826
-0.0286321
-0.0123529
-0.431069
-0.13688
-0.0494038
-0.0174283
-0.00720723
-0.0193373
-0.053347
-0.0234229
-0.00858478
-0.0035865
-0.184738
-0.0855012
-0.0399948
-0.0157588
-0.00692143
-0.04012
-0.0300239
-0.014849
-0.00591405
-0.00260312
0.000731344
-0.0991264
-0.0487231
-0.0192314
-0.00846517
0.0188183
-0.0212972
-0.0132991
-0.00562218
-0.00254657
-0.00615658
-0.0501415
-0.0246811
-0.00961429
-0.00417091
0.0199486
-0.0330757
-0.0153627
-0.00576426
-0.00244939
0.441374
0.0317764
-0.0017978
-0.0021467
-0.00117383
0.261871
0.0207189
0.000142002
-0.000730553
-0.000438804
0.193484
0.0218205
-0.00120773
-0.0019598
-0.00114988
0.12718
0.0172626
-0.00034559
-0.00140036
-0.000886927
0.519652
0.0359558
-0.00878239
-0.00644488
-0.00339848
0.36712
0.0320199
-0.00575097
-0.00503606
-0.00278743
0.723108
0.0377799
-0.0130133
-0.00828368
-0.00420002
0.423039
0.0100317
-0.0164936
-0.00902539
-0.00448083
0.180145
-0.0546141
-0.0334149
-0.0138989
-0.00626842
0.171324
-0.0201696
-0.0183291
-0.00825423
-0.003857
-0.0875287
-0.0521253
-0.0219972
-0.0084222
-0.0036795
155.786
-173.144
562.624
-391.005
1089.6
-451.52
1856.58
-167.259
2363.54
884.787
-382.063
-1485.68
1478.15
947.662
-1250.42
-2595.88
-1828.45
-3050.13
-1292.79
-340.213
-92.686
-29.7732
-14.073
-305.762
-191.842
-33.9509
-13.0167
-7.44842
-3991.46
-1042.58
-285.05
-91.4262
-43.3575
-722.172
-266.675
-86.5317
-28.8402
-14.5212
-6701.42
-1754.17
-482.182
-155.63
-73.9489
-1284.43
-478.977
-150.313
-52.3502
-24.968
-8980.65
-2360.1
-654.338
-213.088
-101.904
-1652.21
-634.368
-201.388
-70.2766
-33.5207
-11241.5
-2985.09
-837.522
-276.075
-133.4
-2036.06
-809.543
-259.501
-91.2176
-44.039
-13317.5
-3667.63
-1053.95
-354.624
-173.861
-3296.45
-1149.44
-351.472
-120.45
-58.1261
-12426.7
-3393.01
-965.096
-321.335
-156.373
-2550.82
-968.814
-305.047
-105.981
-51.0636
-13698.5
-3792.79
-1096.83
-371.376
-182.855
-3733.55
-1257.45
-378.626
-128.411
-61.9896
-14232.8
-3919.08
-1137.72
-386.19
-190.494
-3894.85
-1311.11
-396.464
-128.497
-63.9898
-779.466
-9318.76
-7908.28
-2366.48
-1786.15
-794.641
-4092.83
-2515.88
-8161.33
-7489.04
-4029.47
-2881.59
-14.3451
-28.9212
-65.1256
-139.061
-278.381
-522.762
-12.278
-34.8425
-91.7402
-206.259
-408.961
-726.037
-9.32412
-3.90771
-20.6332
-12.1496
-49.4691
-35.2159
-110.011
-89.9912
-214.494
-179.978
-402.475
-308.986
-887.616
-1364.16
-2003.9
-4039.98
-5617.8
-6862.46
-1152.07
-1625.61
-2035.97
-2329.57
-2501.07
-2571.13
-12.5708
-10.2432
-7.45688
-4.4913
-1.49558
-25.2645
-20.5067
-14.8679
-8.92548
-2.96671
-56.6867
-45.8102
-33.0644
-19.7779
-6.56099
-120.498
-96.8567
-69.5322
-41.417
-13.7086
-239.77
-191.377
-136.451
-80.8603
-26.6935
-446.458
-352.978
-249.453
-146.895
-48.3509
-10.7379
-8.72832
-6.33784
-3.80938
-1.26703
-30.3617
-24.5704
-17.7597
-10.6354
-3.5303
-79.6431
-64.1621
-46.1668
-27.5489
-9.12708
-178.225
-142.79
-102.184
-60.7225
-20.0741
-351.284
-279.525
-198.729
-117.525
-38.7592
-618.977
-488.429
-344.587
-202.686
-66.682
-8.18545
-6.68464
-4.87755
-2.94331
-0.981137
-3.43387
-2.80776
-2.05142
-1.23924
-0.413335
-18.0634
-14.7009
-10.6879
-6.43043
-2.14
-10.6526
-8.68607
-6.32762
-3.81318
-1.27011
-43.1656
-34.9883
-25.3309
-15.1887
-5.04519
-30.7807
-25.0016
-18.1393
-10.895
-3.62222
-95.5794
-77.0681
-55.498
-33.136
-10.9813
-78.3118
-63.2645
-45.642
-27.2893
-9.05009
-185.278
-148.367
-106.11
-63.0183
-20.8258
-155.778
-125.024
-89.5949
-53.2836
-17.6197
-344.576
-273.113
-193.407
-114.027
-37.5466
-265.268
-210.839
-149.635
-88.3255
-29.0925
-748.983
-584.622
-408.565
-238.854
-78.4135
-1130.84
-867.345
-597.694
-346.721
-113.73
-1617.57
-1211.56
-820.814
-472.895
-155.864
-3125.53
-2267.91
-1508.66
-868.207
-293.018
-4070.71
-2839.75
-1859.05
-1080.1
-386.465
-4766.28
-3250.08
-2108.78
-1234.66
-459.374
-972.854
-759.885
-531.36
-310.755
-102.017
-1355.67
-1045.65
-723.747
-420.802
-137.979
-1668.84
-1266.65
-866.306
-500.916
-164.443
-1860.2
-1381.16
-931.079
-536.141
-177.351
-1911.55
-1374.43
-910.719
-524.631
-177.847
-1893.18
-1326.22
-867.193
-500.732
-173.946
-14.4218
-29.2374
-65.999
-141.242
-283.373
-531.974
-12.3751
-35.2477
-92.8134
-208.608
-413.114
-731.704
-9.38555
-3.94972
-20.9217
-12.3987
-50.4127
-36.265
-112.819
-93.7111
-222.523
-194.678
-419.145
-344.8
-900.895
-1380.96
-2021.81
-4032.06
-5582.88
-6841.23
-1157.75
-1629.34
-2036.53
-2324.09
-2490.25
-2565.4
-12.643
-10.3075
-7.50808
-4.52444
-1.50706
-25.562
-20.7708
-15.0778
-9.06107
-3.01365
-57.507
-46.5367
-33.6401
-20.149
-6.6893
-122.546
-98.6687
-70.9658
-42.3397
-14.0273
-244.466
-195.536
-139.742
-82.9766
-27.4241
-455.26
-360.89
-255.787
-151
-49.7737
-10.8296
-8.81008
-6.40309
-3.85169
-1.2817
-30.745
-24.9126
-18.0331
-10.8127
-3.59179
-80.6629
-65.0765
-46.8997
-28.0252
-9.29244
-180.475
-144.825
-103.826
-61.7943
-20.447
-355.338
-283.256
-201.784
-119.537
-39.4627
-624.738
-493.929
-349.219
-205.795
-67.7782
-8.24272
-6.73499
-4.91723
-2.96879
-0.989927
-3.47264
-2.84143
-2.07763
-1.25592
-0.419063
-18.3313
-14.9351
-10.8715
-6.54781
-2.18042
-10.8809
-8.8828
-6.47953
-3.90923
-1.30298
-44.0371
-35.7456
-25.9203
-15.5636
-5.17388
-31.736
-25.818
-18.7645
-11.2876
-3.75607
-98.165
-79.3059
-57.2319
-34.2346
-11.3576
-81.6927
-66.1463
-47.8418
-28.667
-9.5191
-192.619
-154.664
-110.943
-66.0571
-21.8624
-168.943
-136.045
-97.8546
-58.3813
-19.3415
-359.938
-286.392
-203.663
-120.501
-39.7594
-297.261
-237.537
-169.567
-100.585
-33.2239
-762.125
-596.818
-418.571
-245.442
-80.7152
-1148.45
-884.436
-612.158
-356.428
-117.157
-1638.67
-1233.6
-840.321
-486.336
-160.688
-3130.82
-2282.2
-1525.91
-881.982
-298.419
-4054.51
-2836.94
-1863.94
-1086.66
-389.672
-4754.36
-3245.05
-2108.2
-1235.92
-460.257
-979.169
-766.367
-537.099
-314.724
-103.437
-1360.95
-1051.89
-729.736
-425.127
-139.559
-1672.05
-1271.77
-871.842
-505.142
-166.029
-1858.86
-1383.06
-934.541
-539.252
-178.611
-1905.52
-1372.2
-910.889
-525.645
-178.41
-1889.63
-1324.44
-866.615
-500.753
-174.049
-17492.4
-11580.1
-1451.07
-729.399
-546.618
-620.033
-833.77
-10225.4
-9508.23
-7237.86
-7774.71
-3155.96
-5623.82
-2107.3
-2289.57
-1455.2
-16379.6
-6864.27
-1615.38
-2779.18
-4771.1
-2808.89
-2613.1
-1739.97
-881.709
-1082
-1686.51
-1689.74
-16727.6
-9771.61
-9130.28
-5816.61
-4832.85
-6052.36
-1614.56
-1550.66
-2861.76
-10792
-7883.65
-5300.89
-3605.53
-2182.87
-6882.25
-4273.91
-2786.66
-1682.79
-675.386
-1205.72
-927.838
-641.84
-373.638
-122.877
-619.333
-486.907
-342.653
-201.367
-66.2783
-464.705
-365.595
-257.244
-151.041
-49.6557
-531.238
-421.551
-298.972
-176.52
-58.1761
-704.72
-551.124
-385.909
-225.959
-74.2394
-6346.81
-4390.93
-2917.01
-1969.21
-1361.87
-6010.47
-4326.99
-2886.59
-1847
-861.414
-4701.91
-3002.96
-1965.26
-1156.34
-432.722
-4972.36
-3478.42
-2307.94
-1400.55
-553.943
-2452.16
-1783.39
-1184.37
-673.759
-221.026
-4031.72
-2747.53
-1794.76
-1019.74
-341.108
-1696.68
-1267.32
-855.654
-490.16
-160.165
-1834.95
-1365.05
-918.744
-525.35
-171.591
-1187.76
-897.274
-610.438
-350.863
-114.505
-9944.39
-6702.11
-4511.22
-2987.88
-1922.89
-4773.25
-3254.05
-2147.04
-1259.25
-474.988
-1291.62
-960.6
-647.737
-371.95
-122.579
-2225.24
-1659.04
-1122.66
-648.067
-215.531
-3672.03
-2665.49
-1778.98
-1029.3
-354.476
-2239.4
-1663.63
-1123.62
-648.998
-216.434
-2112.11
-1587.29
-1080.48
-625.655
-207.443
-1429.51
-1088.16
-746.383
-432.572
-142.346
-731.626
-561.386
-386.691
-223.955
-73.2793
-908.97
-706.4
-491.954
-287.032
-94.2027
-1377.5
-1042.28
-710.811
-409.862
-134.366
-1389.36
-1058.28
-725.97
-420.487
-138.24
-10224.6
-7207.24
-4875.95
-3222.03
-1957.92
-6187.11
-4006.02
-2629.23
-1578.62
-642.938
-6193.85
-4416
-2884.5
-1726.84
-683.46
-4219.36
-2909.72
-1923.51
-1125.41
-404.021
-3735.14
-2720.26
-1818.67
-1053.72
-361.577
-4378.65
-3022.04
-1997.51
-1167.07
-414.456
-1301.82
-975.277
-661.969
-382.542
-126.702
-1296.31
-1002.46
-695.467
-405.025
-132.929
-2315.78
-1739.62
-1182.49
-683.287
-225.836
-132.028
-401.528
-705.131
-1061.9
-1461.14
-1882.12
-3733.04
-9818.84
-8795.71
-3440.62
-12182.7
-10727.8
-11327.9
-12314.6
-3524
-2279.31
-8338.77
-4442.89
-14392.1
-11667.4
459.139
-2959.35
-7953.7
-6944.37
-2674.75
-9980.19
-8324.74
-9066.43
-9783.28
-2917.36
-1234.12
-7297.45
-2037.01
-11057
-7124.98
2828.08
-2040.74
-5652.08
-4805.35
-1802.26
-7307.49
-4322.47
-6641.12
-6756.33
-2110.75
-1166.68
-4960.31
-2253.08
-7923.21
-2153.7
3011.05
-1338.82
-3909.42
-3249.39
-1184.8
-4880.79
-1885.64
-4730.66
-4900.5
-1464.66
-1238.12
-3432.52
-2327.51
-6091.56
29.4939
2232.48
-942.469
-2907.03
-2369.17
-846.222
-3263.61
-1130.58
-3607.51
-4108.55
-1035.1
-1393.82
-2178.77
-2276.83
-4794.45
335.517
369.702
-731.407
-2241.69
-1888.98
-662.401
-2634.46
-1455.19
-2891.87
-3562.08
-702.3
-1104.55
-1485.05
-2111.5
-4687.78
-1040.41
-892.747
-1462.81
-3533.38
-5915.86
-2330.83
-5487.64
-9348.99
-8309.68
-11489.5
-860.388
-429.767
-3425.33
-1502.63
-944.92
-7971.34
-3235.39
-1309.73
-3163.95
-4976.91
-1945
-4837.08
-8017.59
-7117.78
-9189.59
-839.661
-287.134
-3409.53
-1191.63
-82.5239
-7260.83
-1801.6
-1054.65
-2547.5
-3703.46
-1425.92
-4015.28
-6252.59
-5481.36
-7085.77
-663.983
-303.16
-2578.57
-1112.42
-224.759
-4897.17
-1389.76
-777.523
-1984.85
-2613.12
-987.844
-3201.43
-4691.74
-4179.76
-5413.06
-505.813
-282.263
-2019.38
-1020.35
-125.604
-3758.39
-1167.19
-592.454
-1535.46
-1956.56
-728.101
-2411.71
-3601.68
-3251.02
-4447.29
-389.646
-325.344
-1510.24
-1046.03
-236.027
-3052.63
-1197.46
-474.381
-1164.39
-1572.43
-577.706
-1928.9
-3297.96
-2614.47
-3879.66
-351.949
-371.395
-1156.66
-957.226
-456.587
-3038.51
-1464.64
8387.84
10627
21345.6
31773
32572
55844.6
24424.6
61511.2
19468.7
42611.3
29138.7
44579.6
25716.7
34542.8
9821.67
11317
21866.3
25003.7
27470
27410
20987.9
25181
30544.5
27233.8
7293.36
5878.1
8916
6346.54
18597
15563.3
31315.2
23618.1
23996.4
25141.4
27906.3
27564
10767.4
8026.33
54857.3
73414.1
36211.8
44280.4
71052
92546.5
37299.6
42802.7
42054.6
59377.5
37701
49489
22643.8
35893.5
4396.12
1550.46
4469.65
1668.53
13950
5776.89
18848.2
7135.77
14154.8
5437
14295.8
4737.75
23866.3
7831
30772.3
10680.9
32384.7
16844.3
30195.8
17969.2
28660
18463.5
25822.5
18535.4
25475.5
15731.3
25466.1
13933.8
31560.6
19654.8
31854.5
19765.1
27673
19458.4
28147.1
19414.8
27572.4
17721.3
28624.8
18124
26814.7
12468.6
13834.9
17864.1
26636.9
13707.3
12334.6
18275.5
28504.5
12311.4
15391.6
17895.9
30044
12589
16560.8
18580.8
5602.02
6040.61
2011.3
4134.11
16916.9
17816.1
7025.1
13268.7
21560
23135.8
11787
20342.3
12154.8
-637.605
16868.5
23690.9
14606.4
-1268.36
5785.01
15551.9
27199.1
23218
12398.4
16539.1
16494.9
16055.8
26222.6
4735.99
3475.22
2806.47
2669.19
14328.1
10777
9676.24
8659.7
17136.4
12517.3
12619
10581.7
4703.07
6159.5
10844.6
11256
16899.3
14481.8
20148.6
15950.7
16854
13586.3
9519.58
8266.29
13512.8
8324.6
13937.3
7945
13710.4
7584.37
18204.5
10650.1
11748.4
3186.28
10899.3
9389.5
13135.7
14420.8
14693
18617.6
10026.7
8556.6
11637.1
1429.85
9981.7
15518.1
9568.43
16866.7
14629.9
23288.3
14820.8
25016.8
8998.79
14865.9
8480.8
16058.8
13122.5
7931.1
19211.1
6682.28
12444
495.382
16579.3
-181.43
12916.2
12132.5
20099
8488.67
11265.7
14364.2
18343.4
10976.8
2282.6
1732.59
1209.4
1790.44
1411.91
1038.64
7409.86
4603.29
2981.55
5428.83
3269.98
2132.78
7840.91
5067.13
3873.13
6346.91
3753.15
2859.05
4387.67
2659.95
2124.92
8611.2
4414.33
2819.37
9758.2
4983.85
2920.16
10366.5
5857.69
3996.59
8764.65
4252.87
2505.25
11749
7382.59
4667.47
9006.6
5545.17
3154.59
9647.2
5476.48
2872.29
9536.74
5113.87
2559.43
11911.4
5414.73
2100.19
12117.6
15750.2
10099.9
12513.9
14666.1
20396.7
13683.2
18719.9
35.1609
555.189
-383.992
175.887
3059.41
3149.41
1540.04
1001.27
1454.58
3016.83
10190.3
14039.8
6172.01
3974.29
12013.3
12082.4
19920.5
22057.7
-132.008
-4028.98
8517.26
7942.99
7188.69
5446.43
885.885
469.809
716.378
389.389
2215.23
326.456
350.562
-261.709
8866.43
1986.02
6542.73
1719.72
8891.54
2508.49
10500.2
2925.98
10754
12132.2
9841.78
11817.2
17835.4
17008.1
16992.5
16063.8
6206.96
8358.35
7147.81
8305.31
10301.2
11409.4
11111.6
11370.2
17752.5
15793.2
18490.3
15709.8
6170.17
8078.28
6493.62
8066.86
24.229
686.152
5379.39
2278.77
-246.767
430.259
4955.58
1987.56
320.681
858.061
5454.82
2466.85
522.493
940.827
5357.64
2469.88
-376.18
-425.112
146.586
-9.3493
-1829.64
-1706.26
-63.9837
-274.845
-135.666
-1014.36
1018.59
437
-8366.48
-9577.15
-3941.33
-2765.7
-393.457
-10334.3
-8965.6
-2859.07
-3903.22
-689.335
11163.7
8074.55
6064.5
4612.68
1897.85
-332.415
-229.188
-53.8154
-46.3172
-1171.57
-851.433
-174.395
-136.109
-1215.06
-1156.58
119.561
52.7741
-4158.43
-1124.19
-5697.66
-2635.64
-1912.41
-992.996
-2035.46
-1331.68
-75.5989
147.882
4192.86
2382.08
1680.24
-134.151
1136.99
-121.524
985.054
112.768
513.482
384.806
4894.2
3749.62
8704.13
4821
8205.28
6902.49
12073.2
8691.82
5811.21
3042.12
3056.74
2457.27
10098.5
4288.97
10909.8
4718.13
13332.1
8966.05
14061.2
9641.97
6975.34
2584.81
7642.12
2911.44
3502.61
2142.61
1476.73
1813.28
2186.03
1873.37
1216.44
1657.21
4020.5
2070.44
1636.67
2074.05
4860.41
2211.06
2282.53
2096.08
-146.749
-103.623
-96.7694
-20.174
-36.8147
-34.0088
-573.412
-430.736
-354.708
-62.1139
-110.475
-95.3202
-866.731
-660.113
-526.653
79.5179
-116.366
-127.887
-239.219
-219.142
-30.9283