/*--------------------------------*- C++ -*----------------------------------*\
| =========                 |                                                 |
| \\      /  F ield         | OpenFOAM: The Open Source CFD Toolbox           |
|  \\    /   O peration     | Version:  2306                                  |
|   \\  /    A nd           | Website:  www.openfoam.com                      |
|    \\/     M anipulation  |                                                 |
\*---------------------------------------------------------------------------*/
FoamFile
{
    version     2.0;
    format      ascii;
    arch        "LSB;label=32;scalar=64";
    class       volVectorField;
    location    "2.9";
    object      flux;
}
// * * * * * * * * * * * * * * * * * * * * * * * * * * * * * * * * * * * * * //

dimensions      [0 1 -1 1 0 0 0];

internalField   nonuniform List<vector> 
5322
(
(-2.16227e-06 5.52296e-06 -7.35771e-06)
(1.09758e-07 6.40216e-07 -6.85299e-06)
(1.19043e-07 1.4232e-07 -5.99643e-06)
(8.08706e-11 2.35403e-08 -6.48687e-06)
(-8.05631e-09 1.1337e-07 -5.21399e-06)
(-7.33489e-09 1.50735e-07 -4.0941e-06)
(-5.38362e-09 1.45099e-07 -3.14186e-06)
(-3.99193e-09 1.26605e-07 -2.3694e-06)
(-3.19391e-09 1.09016e-07 -1.78011e-06)
(-2.29328e-09 8.89031e-08 -1.37477e-06)
(-1.66805e-09 2.56547e-08 -1.12317e-06)
(1.18847e-08 -2.05848e-07 -1.04242e-06)
(1.75335e-08 -2.16603e-07 -7.59335e-07)
(-2.40311e-07 -1.96602e-07 -1.06173e-06)
(-4.74106e-09 -1.74434e-07 -1.17186e-06)
(4.36436e-07 3.88014e-07 -9.6688e-07)
(-3.41465e-07 5.14925e-07 -1.13695e-06)
(-2.93445e-10 -3.63932e-09 -8.80415e-07)
(-2.72505e-07 3.81362e-07 -1.29483e-06)
(2.16894e-07 -5.11341e-07 -1.43078e-06)
(-2.91831e-07 5.36085e-07 -1.64882e-06)
(3.30625e-07 -6.42664e-07 -1.85891e-06)
(-3.4991e-07 7.06305e-07 -2.17958e-06)
(4.6621e-07 -8.62445e-07 -2.5025e-06)
(-4.81305e-07 9.6738e-07 -2.93564e-06)
(6.0738e-07 -1.12657e-06 -3.32259e-06)
(-6.11761e-07 1.25548e-06 -3.86841e-06)
(8.18969e-07 -1.50366e-06 -4.38336e-06)
(-8.19707e-07 1.66167e-06 -5.03893e-06)
(1.03249e-06 -1.89707e-06 -5.59254e-06)
(-9.81008e-07 2.08883e-06 -6.33843e-06)
(1.37352e-06 -2.37604e-06 -6.99778e-06)
(-1.0181e-06 2.65799e-06 -7.75969e-06)
(1.88281e-06 -2.5453e-06 -8.28085e-06)
(1.3872e-07 2.58067e-06 -8.59106e-06)
(2.70781e-06 -1.43836e-06 -7.48108e-06)
(1.91866e-06 2.88143e-06 -8.7928e-06)
(-7.60827e-07 3.52556e-06 -8.71829e-06)
(2.11265e-06 1.77986e-06 -8.98617e-06)
(-1.24982e-07 1.98878e-06 -6.54935e-06)
(-2.00487e-06 2.60487e-06 -8.33221e-06)
(2.01102e-06 2.18645e-06 -8.60094e-06)
(-1.21816e-07 2.33016e-06 -6.42262e-06)
(-2.13851e-06 2.43423e-06 -8.60584e-06)
(2.12718e-06 2.3217e-06 -8.51944e-06)
(-7.28891e-08 2.37555e-06 -6.53574e-06)
(-2.27272e-06 2.35881e-06 -8.73085e-06)
(1.99914e-06 2.52119e-06 -8.25184e-06)
(-4.77316e-08 2.41713e-06 -6.46574e-06)
(-2.38543e-06 2.23874e-06 -8.58733e-06)
(-2.36661e-06 2.82372e-06 -9.78671e-06)
(-3.40377e-06 1.27594e-06 -6.68366e-06)
(-1.11839e-06 1.48607e-06 -9.3084e-06)
(2.17113e-06 -4.62771e-06 -8.30417e-06)
(-1.4277e-07 -2.28093e-07 -7.45665e-06)
(-3.55224e-06 -2.66055e-06 -7.86412e-06)
(-1.08167e-07 1.45629e-06 -9.68935e-06)
(3.37841e-06 -3.46853e-06 -7.7169e-06)
(-4.09014e-08 -1.6914e-07 -7.47958e-06)
(-3.37778e-06 -3.01387e-06 -7.84799e-06)
(-1.47192e-08 1.47791e-06 -9.79276e-06)
(3.29051e-06 -3.40887e-06 -7.82052e-06)
(-1.75334e-08 -1.50458e-07 -7.47854e-06)
(-3.31737e-06 -2.9918e-06 -7.65598e-06)
(2.71402e-09 1.48446e-06 -9.79237e-06)
(3.24591e-06 -3.53489e-06 -8.09854e-06)
(4.73489e-08 -2.04574e-07 -7.45206e-06)
(-3.28538e-06 -2.90141e-06 -7.28108e-06)
(1.68324e-07 1.50494e-06 -9.60121e-06)
(2.70744e-06 -3.93594e-06 -8.64051e-06)
(1.49761e-07 1.21213e-07 -6.20163e-06)
(-2.63351e-06 3.12159e-06 -9.23203e-06)
(2.98984e-06 1.73329e-06 -8.7867e-06)
(-3.08333e-06 2.42892e-06 -8.65667e-06)
(2.96716e-06 1.80753e-06 -8.74039e-06)
(-3.02283e-06 2.29602e-06 -8.69838e-06)
(3.02571e-06 1.91105e-06 -8.69249e-06)
(-3.02638e-06 2.28889e-06 -8.66937e-06)
(3.44698e-06 1.947e-06 -8.80451e-06)
(-2.52002e-06 2.7252e-06 -8.39543e-06)
(1.19379e-06 2.0907e-07 -8.13751e-06)
(-1.798e-06 1.03772e-06 -6.53543e-06)
(-1.20593e-06 1.52556e-06 -6.77756e-06)
(1.91322e-06 2.44313e-06 -8.76628e-06)
(1.64958e-07 -1.6554e-07 -5.70519e-06)
(-8.8399e-07 -9.02669e-07 -7.79663e-06)
(1.37218e-06 3.18907e-07 -1.12495e-05)
(-3.77737e-06 6.08323e-07 -7.25318e-06)
(-1.22835e-06 1.2753e-06 -7.29218e-06)
(4.20349e-06 1.8011e-07 -6.35397e-06)
(-1.89403e-07 3.41913e-07 -7.87369e-06)
(4.69234e-08 6.18213e-08 -5.81499e-06)
(8.28357e-08 8.77682e-09 -6.12728e-06)
(4.98161e-07 8.65935e-09 -6.11085e-06)
(2.56096e-06 3.08535e-06 -7.8046e-06)
(-5.25569e-07 -1.75539e-06 -7.37326e-06)
(1.5946e-08 5.66312e-08 -7.03969e-06)
(-2.0469e-07 1.77399e-06 -7.4724e-06)
(1.41241e-06 5.36934e-08 -1.14391e-05)
(-3.33812e-06 -8.41317e-08 -7.04275e-06)
(-3.33239e-06 3.09059e-07 -7.12357e-06)
(6.93559e-06 5.58652e-08 -6.44536e-06)
(-2.05267e-07 1.89364e-06 -7.53158e-06)
(1.9804e-06 -3.00155e-06 -7.71935e-06)
(3.23175e-06 2.69268e-06 -8.42396e-06)
(5.08574e-08 5.89352e-08 -6.84623e-06)
(3.20046e-08 -5.865e-08 -7.20469e-06)
(2.65685e-08 -7.66928e-09 -6.5428e-06)
(1.34472e-08 1.44319e-09 -5.2736e-06)
(4.74323e-09 5.66482e-09 -4.15363e-06)
(7.8999e-10 5.35004e-09 -3.18858e-06)
(-8.83235e-10 4.27262e-09 -2.39932e-06)
(-2.12752e-09 3.89373e-09 -1.79223e-06)
(-3.4298e-09 4.03219e-09 -1.37376e-06)
(3.83789e-09 -3.3021e-09 -1.29184e-06)
(-1.85192e-09 1.72463e-09 -1.19618e-06)
(-1.42108e-07 1.45627e-07 -8.4946e-07)
(-1.38447e-07 -5.74661e-08 -9.13054e-07)
(1.6635e-08 -2.21391e-08 -1.26528e-06)
(8.7032e-08 -1.09659e-07 -1.0018e-06)
(4.04735e-09 1.35848e-07 -8.76564e-07)
(1.30027e-07 -7.13819e-08 -1.05056e-06)
(-1.5585e-07 -1.41542e-07 -1.03581e-06)
(-1.19312e-08 -1.9558e-07 -1.45017e-06)
(-3.78837e-08 -2.20122e-07 -1.08494e-06)
(2.42163e-07 -8.69895e-09 -1.42082e-06)
(1.97919e-07 1.62868e-07 -1.02609e-06)
(5.35026e-08 -1.22013e-07 -1.07147e-06)
(1.55252e-07 1.16758e-08 -1.39721e-06)
(9.88632e-08 1.33829e-07 -1.02303e-06)
(7.4577e-08 -1.33079e-07 -1.0498e-06)
(1.66772e-07 5.69465e-09 -1.41037e-06)
(8.24571e-08 1.39035e-07 -1.03907e-06)
(8.86288e-08 -1.42609e-07 -1.03059e-06)
(1.69661e-07 -4.59902e-09 -1.41664e-06)
(7.17932e-08 1.29632e-07 -1.05304e-06)
(1.4082e-07 -1.55739e-07 -1.03633e-06)
(1.92974e-07 -1.25954e-08 -1.45412e-06)
(2.17956e-07 -3.78797e-08 -1.08697e-06)
(9.24475e-09 2.3909e-07 -1.42261e-06)
(-1.61135e-07 1.96819e-07 -1.02963e-06)
(7.94212e-09 -1.32876e-07 -8.80043e-07)
(1.09433e-07 8.75903e-08 -1.00268e-06)
(-1.33878e-07 6.79446e-08 -9.00787e-07)
(-1.45189e-07 -1.42572e-07 -8.51358e-07)
(2.25806e-08 1.73151e-08 -1.26621e-06)
(5.78438e-08 -1.38089e-07 -9.13701e-07)
(3.0862e-08 1.0803e-07 -9.08178e-07)
(-1.13525e-07 1.12011e-07 -8.41089e-07)
(-1.2502e-07 -1.23724e-07 -8.47209e-07)
(2.56019e-08 -1.75536e-09 -1.26812e-06)
(3.49998e-08 -1.14133e-07 -9.09458e-07)
(4.2868e-08 1.14968e-07 -9.06068e-07)
(-1.23537e-07 1.25489e-07 -8.42284e-07)
(-1.16566e-07 -1.11701e-07 -8.48067e-07)
(2.58586e-08 -3.37297e-10 -1.26738e-06)
(2.2125e-08 -1.05742e-07 -9.10483e-07)
(6.91929e-08 1.35613e-07 -8.99964e-07)
(-1.32865e-07 -7.48847e-09 -8.79083e-07)
(1.744e-07 -4.94408e-09 -1.17238e-06)
(-3.86279e-07 4.3669e-07 -9.65999e-07)
(-5.13747e-07 -3.40756e-07 -1.13914e-06)
(4.8544e-07 4.072e-07 -1.43297e-06)
(-6.14146e-07 -4.79317e-07 -1.53996e-06)
(-2.90853e-08 1.90291e-08 -9.23016e-07)
(-3.82805e-07 -2.7002e-07 -1.29645e-06)
(5.9094e-09 -4.78984e-10 -8.81188e-07)
(3.56418e-07 8.3704e-09 -1.15482e-06)
(-8.38575e-08 -4.36119e-08 -7.655e-07)
(3.99284e-07 1.20227e-07 -1.02813e-06)
(1.97208e-07 -2.40216e-07 -1.06363e-06)
(2.95032e-07 2.39503e-07 -9.89611e-07)
(-4.63447e-07 -4.18242e-07 -1.06672e-06)
(1.76181e-07 1.24056e-09 -1.20194e-06)
(-3.99763e-07 4.27839e-07 -1.01976e-06)
(2.89039e-07 -4.56964e-07 -1.35551e-06)
(3.76038e-07 4.75666e-07 -1.34485e-06)
(-5.03528e-07 -5.37205e-07 -1.43404e-06)
(2.67044e-08 2.5533e-09 -1.13404e-06)
(-4.27942e-07 5.29903e-07 -1.43239e-06)
(4.29479e-07 -6.13826e-07 -1.66105e-06)
(5.34089e-07 6.36667e-07 -1.66297e-06)
(-6.46052e-07 -7.25514e-07 -1.88136e-06)
(1.91711e-08 3.14184e-09 -1.46766e-06)
(-5.41514e-07 7.10611e-07 -1.88428e-06)
(5.97728e-07 -8.25868e-07 -2.18994e-06)
(7.30353e-07 8.53611e-07 -2.19152e-06)
(-8.62684e-07 -9.80791e-07 -2.51855e-06)
(2.97148e-08 3.38044e-09 -1.96152e-06)
(-7.20271e-07 9.60497e-07 -2.52188e-06)
(8.14399e-07 -1.11294e-06 -2.93181e-06)
(9.89745e-07 1.1492e-06 -2.93358e-06)
(-1.15902e-06 -1.315e-06 -3.36158e-06)
(4.07486e-08 4.50739e-09 -2.62852e-06)
(-9.6834e-07 1.28883e-06 -3.36732e-06)
(1.07918e-06 -1.48342e-06 -3.88695e-06)
(1.31631e-06 1.53185e-06 -3.89148e-06)
(-1.5454e-06 -1.73045e-06 -4.40906e-06)
(5.25747e-08 6.84217e-09 -3.47204e-06)
(-1.29417e-06 1.69598e-06 -4.41975e-06)
(1.38281e-06 -1.93974e-06 -5.05218e-06)
(1.70454e-06 2.00324e-06 -5.06265e-06)
(-2.02793e-06 -2.21681e-06 -5.64738e-06)
(6.77932e-08 9.72818e-09 -4.48406e-06)
(-1.69609e-06 2.16748e-06 -5.6649e-06)
(1.70411e-06 -2.46707e-06 -6.39674e-06)
(2.13778e-06 2.5452e-06 -6.41708e-06)
(-2.57547e-06 -2.71427e-06 -7.04666e-06)
(9.16245e-08 1.34129e-08 -5.62014e-06)
(-2.12638e-06 2.63865e-06 -7.07533e-06)
(1.978e-06 -3.00962e-06 -7.75008e-06)
(2.4651e-06 3.03515e-06 -7.7708e-06)
(-4.67559e-07 -1.75958e-06 -7.4584e-06)
(1.35101e-06 -1.12705e-08 -1.14405e-05)
(-3.3066e-06 -1.80727e-07 -7.0415e-06)
(-3.37213e-06 8.76602e-08 -7.01911e-06)
(6.96912e-06 -5.83753e-08 -6.46601e-06)
(-2.87076e-07 -2.79591e-09 -8.89358e-06)
(-3.07968e-07 1.73765e-08 -8.87227e-06)
(9.55e-08 2.65943e-08 -6.12769e-06)
(5.40465e-07 1.73168e-09 -6.11716e-06)
(2.54836e-06 3.08933e-06 -7.78714e-06)
(-3.95667e-07 -1.75237e-06 -7.43389e-06)
(4.1811e-08 9.79535e-09 -6.97182e-06)
(-4.63605e-07 2.10173e-06 -7.55195e-06)
(1.2938e-06 -3.15122e-07 -1.14238e-05)
(-3.3637e-06 -1.27254e-07 -7.08566e-06)
(-3.31585e-06 1.09099e-07 -7.01273e-06)
(6.9271e-06 -1.1553e-07 -6.48101e-06)
(-2.61336e-07 1.76405e-06 -7.42842e-06)
(1.97968e-06 -3.04257e-06 -7.75829e-06)
(1.30586e-08 1.88199e-08 -7.03506e-06)
(5.17088e-08 1.36085e-08 -7.05081e-06)
(3.17299e-08 3.80252e-08 -6.5308e-06)
(1.76083e-08 2.13611e-08 -5.27493e-06)
(7.24491e-09 9.32885e-09 -4.15824e-06)
(2.02171e-09 3.12102e-09 -3.19217e-06)
(-3.3356e-10 2.02861e-10 -2.40151e-06)
(-1.89089e-09 -1.73201e-09 -1.79342e-06)
(-3.10878e-09 -3.2999e-09 -1.37434e-06)
(3.81078e-09 3.75767e-09 -1.2923e-06)
(-1.7443e-09 -1.84356e-09 -1.19698e-06)
(1.12106e-07 -1.16771e-07 -8.46908e-07)
(-1.24792e-07 -1.24743e-07 -8.45078e-07)
(1.24696e-07 -1.24926e-07 -8.44459e-07)
(-1.12276e-07 -1.16901e-07 -8.4653e-07)
(3.54529e-10 2.64076e-08 -1.26725e-06)
(1.12156e-07 3.93821e-08 -9.0593e-07)
(-1.05258e-07 2.37947e-08 -9.1029e-07)
(-3.35981e-10 -1.5491e-07 -9.0128e-07)
(-1.29217e-07 7.73801e-08 -1.04987e-06)
(1.48802e-10 -1.60613e-07 -1.50695e-06)
(-1.11853e-07 3.9358e-08 -9.06131e-07)
(1.21464e-10 2.64597e-08 -1.26755e-06)
(1.05339e-07 2.39626e-08 -9.10436e-07)
(4.22494e-09 -1.58719e-07 -1.49809e-06)
(1.20527e-07 5.3362e-08 -1.06926e-06)
(-9.96577e-09 1.51078e-07 -1.39371e-06)
(-1.30642e-07 9.60614e-08 -1.02292e-06)
(3.30958e-10 -1.54886e-07 -9.0168e-07)
(1.29158e-07 7.75834e-08 -1.04994e-06)
(-7.93126e-11 1.64045e-07 -1.39396e-06)
(5.14974e-11 2.29382e-07 -7.48884e-07)
(2.33188e-07 2.45223e-07 -1.02113e-06)
(-4.16859e-07 -4.21578e-07 -1.02037e-06)
(4.16763e-07 -4.20802e-07 -1.01923e-06)
(-4.11576e-07 -4.52392e-07 -1.0672e-06)
(4.69208e-07 3.56769e-07 -1.34439e-06)
(-5.30384e-07 -4.8389e-07 -1.43453e-06)
(6.281e-07 5.06389e-07 -1.66289e-06)
(-7.15727e-07 -6.16432e-07 -1.88174e-06)
(8.41848e-07 6.92417e-07 -2.19213e-06)
(-9.67342e-07 -8.20996e-07 -2.51872e-06)
(1.1333e-06 9.38833e-07 -2.93494e-06)
(-1.29704e-06 -1.10182e-06 -3.36183e-06)
(1.51083e-06 1.24916e-06 -3.89395e-06)
(-1.70659e-06 -1.46893e-06 -4.40922e-06)
(1.97641e-06 1.61904e-06 -5.06745e-06)
(-2.18616e-06 -1.93065e-06 -5.64598e-06)
(2.51367e-06 2.03752e-06 -6.42662e-06)
(-2.67865e-06 -2.46412e-06 -7.03937e-06)
(3.05227e-06 2.46285e-06 -7.82403e-06)
(-1.74263e-06 -4.69237e-07 -7.3676e-06)
(4.23502e-08 1.43687e-06 -1.14437e-05)
(1.76499e-06 -2.88985e-07 -7.50438e-06)
(5.05806e-08 2.38814e-08 -7.03833e-06)
(-2.97299e-06 2.13252e-06 -7.73314e-06)
(2.61018e-06 -2.26815e-06 -7.09443e-06)
(1.52286e-08 9.84321e-08 -5.62422e-06)
(-2.43772e-06 1.84717e-06 -6.39645e-06)
(2.14077e-06 -1.82449e-06 -5.67376e-06)
(9.5744e-09 7.11194e-08 -4.48725e-06)
(-1.9168e-06 1.50029e-06 -5.05598e-06)
(1.67395e-06 -1.39692e-06 -4.42327e-06)
(5.98573e-09 5.41925e-08 -3.47409e-06)
(-1.46592e-06 1.16935e-06 -3.89062e-06)
(1.27168e-06 -1.04629e-06 -3.36854e-06)
(3.65789e-09 4.14631e-08 -2.62969e-06)
(-1.09979e-06 8.8141e-07 -2.93459e-06)
(9.47612e-07 -7.77707e-07 -2.52206e-06)
(2.49674e-09 2.99319e-08 -1.96215e-06)
(-8.16155e-07 6.47162e-07 -2.19243e-06)
(7.01149e-07 -5.8279e-07 -1.88362e-06)
(2.23239e-09 1.91462e-08 -1.46795e-06)
(-6.06804e-07 4.65473e-07 -1.66369e-06)
(5.22531e-07 -4.57096e-07 -1.43107e-06)
(1.9268e-09 2.63752e-08 -1.13392e-06)
(-4.51112e-07 3.12989e-07 -1.35749e-06)
(4.71456e-10 -2.94719e-08 -1.06743e-06)
(4.51616e-07 3.12839e-07 -1.35631e-06)
(-5.21852e-07 -4.57422e-07 -1.43233e-06)
(-1.91693e-09 2.63985e-08 -1.13405e-06)
(-4.67948e-07 3.58461e-07 -1.34561e-06)
(4.11448e-07 -4.50046e-07 -1.06726e-06)
(-8.20404e-10 1.76114e-07 -1.20222e-06)
(-2.34972e-07 2.84995e-07 -9.88024e-07)
(-1.52396e-08 2.09946e-07 -7.57707e-07)
(2.38801e-07 1.98823e-07 -1.06678e-06)
(-4.31744e-07 -3.96284e-07 -9.68057e-07)
(4.50909e-07 2.83517e-07 -1.36059e-06)
(-5.23265e-07 -4.37503e-07 -1.43463e-06)
(5.97906e-07 4.45023e-07 -1.6604e-06)
(-6.92399e-07 -5.55342e-07 -1.8892e-06)
(8.04943e-07 6.24721e-07 -2.19304e-06)
(-9.29631e-07 -7.41367e-07 -2.52545e-06)
(1.08694e-06 8.53183e-07 -2.94164e-06)
(-1.24349e-06 -9.9947e-07 -3.36997e-06)
(1.45455e-06 1.13526e-06 -3.90718e-06)
(-1.63331e-06 -1.34238e-06 -4.42031e-06)
(1.91579e-06 1.46933e-06 -5.09672e-06)
(-2.08178e-06 -1.7682e-06 -5.64453e-06)
(2.45974e-06 1.84141e-06 -6.49107e-06)
(-2.51372e-06 -2.18902e-06 -6.98115e-06)
(3.00146e-06 2.16177e-06 -7.86409e-06)
(-1.7214e-06 -2.7434e-07 -7.4154e-06)
(-4.1145e-07 1.06767e-06 -1.13084e-05)
(7.29117e-07 -9.20469e-07 -7.87187e-06)
(8.33903e-08 6.99711e-08 -6.81556e-06)
(-2.79328e-06 2.9833e-06 -8.41992e-06)
(2.28076e-06 -3.19763e-06 -7.66442e-06)
(2.14932e-08 1.32407e-07 -5.4617e-06)
(-2.2257e-06 2.65952e-06 -6.93117e-06)
(1.92625e-06 -2.49383e-06 -6.09495e-06)
(-5.43766e-09 8.62357e-08 -4.35382e-06)
(-1.69712e-06 2.12783e-06 -5.45193e-06)
(1.49507e-06 -1.86777e-06 -4.73012e-06)
(-1.06091e-08 5.88834e-08 -3.36374e-06)
(-1.28829e-06 1.63456e-06 -4.1811e-06)
(1.12824e-06 -1.3917e-06 -3.59489e-06)
(-9.64172e-09 4.29085e-08 -2.54364e-06)
(-9.67386e-07 1.23124e-06 -3.15023e-06)
(8.41987e-07 -1.03405e-06 -2.69106e-06)
(-9.99236e-09 3.01451e-08 -1.89753e-06)
(-7.1908e-07 9.16234e-07 -2.34987e-06)
(6.29847e-07 -7.72598e-07 -2.01057e-06)
(-1.15471e-08 2.01508e-08 -1.42028e-06)
(-5.35544e-07 6.79366e-07 -1.77953e-06)
(4.79133e-07 -6.0269e-07 -1.54028e-06)
(-1.60602e-08 2.89158e-08 -1.09747e-06)
(-3.98671e-07 4.80732e-07 -1.43272e-06)
(3.38381e-07 -5.06983e-07 -1.13945e-06)
(5.58319e-09 1.74664e-07 -1.17291e-06)
(-1.18044e-07 3.98389e-07 -1.02864e-06)
(1.98904e-07 3.51446e-07 -1.07418e-06)
(3.28246e-07 -1.76096e-07 -9.4881e-07)
(7.76045e-10 3.58307e-07 -1.15804e-06)
(3.83033e-08 -8.34487e-08 -7.63806e-07)
(-6.02883e-08 5.89126e-08 -8.72509e-07)
(1.75245e-07 4.18526e-07 -1.02229e-06)
(-5.41161e-07 -3.64205e-07 -9.45051e-07)
(4.44892e-07 3.65882e-07 -1.38853e-06)
(-6.12571e-07 -3.82245e-07 -1.48995e-06)
(-4.12633e-07 6.13623e-07 -1.43865e-06)
(-5.12279e-07 -5.41211e-07 -1.43236e-06)
(2.87386e-08 -4.61183e-09 -1.1292e-06)
(3.07409e-07 -5.47586e-07 -1.34414e-06)
(3.41366e-07 4.68142e-07 -1.36597e-06)
(-4.52757e-07 -4.42842e-07 -9.83309e-07)
(1.69805e-07 1.19178e-08 -1.2051e-06)
(-4.03922e-07 4.6398e-07 -1.09008e-06)
(-3.34985e-08 1.99542e-08 -1.07289e-06)
(1.82079e-08 6.14582e-09 -1.05047e-06)
(-1.57678e-07 -1.26829e-07 -1.45005e-06)
(1.31173e-08 1.21234e-08 -1.14569e-06)
(-6.47604e-09 -1.0084e-08 -1.08727e-06)
(-1.65048e-07 6.71962e-09 -1.49388e-06)
(1.00974e-08 -2.84489e-09 -1.14141e-06)
(-3.18075e-08 -1.12783e-09 -1.06927e-06)
(-4.12263e-07 4.26128e-07 -1.05556e-06)
(-4.47182e-07 -4.268e-07 -1.02622e-06)
(3.50314e-07 4.62588e-07 -1.35762e-06)
(-4.97194e-07 -5.30673e-07 -1.43142e-06)
(-6.70382e-09 5.01732e-10 -1.28484e-06)
(5.1653e-07 6.21103e-07 -1.66482e-06)
(-6.40762e-07 -7.12634e-07 -1.88381e-06)
(7.17517e-07 8.36278e-07 -2.19344e-06)
(-8.5735e-07 -9.62766e-07 -2.52205e-06)
(-2.68461e-08 2.2131e-09 -2.24024e-06)
(9.78649e-07 1.12862e-06 -2.93696e-06)
(-1.1538e-06 -1.29027e-06 -3.36637e-06)
(1.30348e-06 1.50725e-06 -3.89677e-06)
(-1.54018e-06 -1.69531e-06 -4.41485e-06)
(1.19688e-08 4.24257e-09 -3.88658e-06)
(1.68536e-06 1.97373e-06 -5.06985e-06)
(-2.01362e-06 -2.16407e-06 -5.65146e-06)
(2.10013e-06 2.50617e-06 -6.42138e-06)
(-2.52089e-06 -2.63811e-06 -7.05259e-06)
(5.2165e-07 -4.29124e-09 -6.11994e-06)
(9.4234e-08 4.63392e-09 -6.13016e-06)
(3.19495e-08 7.39572e-09 -4.95703e-06)
(3.69957e-08 2.12798e-08 -4.96131e-06)
(-7.06942e-09 1.11661e-08 -3.90675e-06)
(1.59761e-08 1.07747e-08 -3.89722e-06)
(1.7464e-06 1.99373e-06 -5.09376e-06)
(-2.06685e-06 -2.16282e-06 -5.65633e-06)
(8.07597e-08 1.02356e-08 -4.48634e-06)
(-1.67675e-06 2.56732e-06 -5.71383e-06)
(1.57909e-06 -2.85723e-06 -6.37758e-06)
(2.18989e-06 2.55451e-06 -6.46781e-06)
(-2.53056e-06 -2.61303e-06 -7.0187e-06)
(1.23915e-07 2.50611e-08 -5.61551e-06)
(-2.22462e-06 3.18649e-06 -7.17349e-06)
(1.74713e-06 -3.36577e-06 -7.65815e-06)
(3.50498e-06 2.15894e-06 -8.61854e-06)
(-3.21498e-07 -1.60675e-06 -7.20831e-06)
(1.48836e-07 -2.8896e-06 -1.14271e-05)
(-3.62377e-06 -2.17924e-07 -7.23615e-06)
(-3.36369e-06 -9.57815e-09 -6.87433e-06)
(6.61018e-06 -1.0387e-06 -6.68192e-06)
(-4.41279e-07 -2.77397e-07 -8.6566e-06)
(7.40829e-08 4.94739e-08 -5.80425e-06)
(1.32084e-07 1.58778e-06 -5.25232e-06)
(-1.66481e-06 1.97562e-06 -7.33716e-06)
(3.37686e-07 1.33857e-07 -4.61878e-06)
(1.03854e-06 -2.76349e-06 -6.3547e-06)
(-1.0785e-06 1.90345e-06 -5.75841e-06)
(7.46403e-08 4.98738e-10 -3.62706e-06)
(8.77815e-07 -1.81621e-06 -5.05611e-06)
(-7.85664e-07 1.4938e-06 -4.42237e-06)
(4.53505e-09 -2.04495e-08 -2.78997e-06)
(6.51951e-07 -1.30444e-06 -3.90497e-06)
(-6.09584e-07 1.14526e-06 -3.35764e-06)
(-6.10804e-09 -1.44439e-08 -2.10963e-06)
(4.63192e-07 -9.44668e-07 -2.93198e-06)
(-4.45708e-07 8.53022e-07 -2.49235e-06)
(-1.48261e-08 -1.70052e-08 -1.57342e-06)
(3.60369e-07 -7.02331e-07 -2.19058e-06)
(-3.21986e-07 6.59535e-07 -1.85781e-06)
(-2.26868e-08 -1.83118e-08 -1.17971e-06)
(2.88625e-07 -5.04488e-07 -1.64458e-06)
(-1.9844e-07 5.18116e-07 -1.42113e-06)
(-2.84271e-08 -3.49792e-08 -9.21147e-07)
(2.81046e-07 -3.62046e-07 -1.3004e-06)
(1.02039e-07 1.03013e-07 -9.52632e-07)
(7.35906e-08 1.62082e-07 -9.16831e-07)
(-1.61657e-08 -2.25877e-07 -1.1956e-06)
(-8.19911e-09 -6.01712e-09 -1.08868e-06)
(1.29371e-07 3.88106e-07 -1.27661e-06)
(-5.51975e-08 -3.91458e-07 -1.51002e-06)
(6.43995e-07 4.49464e-07 -1.68914e-06)
(-7.82963e-07 -5.04914e-07 -1.94677e-06)
(8.91349e-07 5.92665e-07 -2.24142e-06)
(-1.04671e-06 -6.7951e-07 -2.59765e-06)
(-6.76879e-07 1.10388e-06 -2.52016e-06)
(-8.81062e-07 -9.68331e-07 -2.52802e-06)
(3.01236e-08 -3.65159e-09 -1.95761e-06)
(5.85181e-07 -9.59946e-07 -2.19738e-06)
(7.36993e-07 8.36902e-07 -2.19618e-06)
(-6.58077e-07 -7.19514e-07 -1.88938e-06)
(1.97944e-08 -4.94536e-09 -1.46462e-06)
(-5.07927e-07 8.17847e-07 -1.88064e-06)
(-1.24053e-08 2.46037e-09 -1.67571e-06)
(-6.70273e-09 -9.0613e-09 -1.5946e-06)
(4.99763e-11 -5.36725e-09 -1.21953e-06)
(-7.43744e-09 -3.32768e-08 -1.07555e-06)
(-7.93557e-09 -3.544e-08 -1.27118e-06)
(3.16604e-08 2.73424e-08 -1.21285e-06)
(2.46686e-08 3.96376e-08 -1.16131e-06)
(2.51655e-08 1.3378e-08 -1.36493e-06)
(-7.34237e-08 1.69757e-08 -1.3697e-06)
(-1.77854e-08 2.96112e-08 -1.12179e-06)
(1.89199e-07 1.79526e-08 -1.04743e-06)
(2.87108e-07 -2.34598e-08 -7.88055e-07)
(2.41755e-07 3.78168e-07 -1.29947e-06)
(8.33299e-08 1.20853e-07 -7.25318e-07)
(3.85352e-07 2.43628e-08 -1.00579e-06)
(1.46884e-07 9.27103e-08 -1.11457e-06)
(9.76664e-08 9.45226e-09 -1.19497e-06)
(5.92242e-08 -1.30334e-08 -1.52169e-06)
(-2.91543e-08 -8.55382e-09 -1.79019e-06)
(-1.00118e-07 1.40259e-08 -1.77553e-06)
(-1.33547e-07 1.81898e-08 -2.36983e-06)
(-6.21461e-08 -1.64151e-08 -2.40658e-06)
(5.3886e-08 -2.84431e-08 -2.02552e-06)
(-9.87035e-08 -5.46303e-07 -2.0054e-06)
(7.58946e-09 -1.60259e-08 -1.88786e-06)
(1.57471e-07 6.17562e-07 -2.28061e-06)
(-1.41737e-07 -7.42829e-07 -2.67517e-06)
(1.21216e-06 7.93984e-07 -3.01906e-06)
(-1.40694e-06 -9.10399e-07 -3.46278e-06)
(1.62079e-06 1.06499e-06 -4.01749e-06)
(-1.88917e-06 -1.19932e-06 -4.54226e-06)
(-1.23694e-06 1.97097e-06 -4.43458e-06)
(-1.5863e-06 -1.7002e-06 -4.42526e-06)
(5.68562e-08 1.50806e-09 -3.47041e-06)
(1.03423e-06 -1.71574e-06 -3.90141e-06)
(1.34525e-06 1.51393e-06 -3.90821e-06)
(-1.18716e-06 -1.29579e-06 -3.37401e-06)
(4.22156e-08 -1.97852e-09 -2.62493e-06)
(-9.14656e-07 1.48468e-06 -3.37061e-06)
(-1.5389e-08 8.09865e-09 -2.98783e-06)
(-5.19726e-09 -8.75013e-09 -2.8397e-06)
(-8.50193e-09 -1.01091e-08 -2.13434e-06)
(-1.24251e-08 4.05683e-09 -1.88871e-06)
(-3.10179e-08 -1.00166e-07 -2.21912e-06)
(7.95859e-10 -4.43485e-08 -2.18014e-06)
(-6.31159e-09 -3.13725e-08 -2.08432e-06)
(-2.17109e-08 -6.91992e-08 -1.65662e-06)
(5.17357e-09 -1.72592e-08 -1.58573e-06)
(3.55759e-09 -1.25512e-08 -1.51995e-06)
(1.35032e-07 4.71237e-07 -1.69489e-06)
(4.38663e-09 -9.60642e-09 -1.41167e-06)
(-1.07916e-08 -1.58796e-08 -1.40867e-06)
(-2.84641e-09 3.43844e-08 -1.5578e-06)
(3.17954e-09 -8.02124e-08 -1.37993e-06)
(1.99292e-09 -2.20205e-08 -1.12827e-06)
(-1.08255e-08 2.07597e-07 -1.04439e-06)
(2.44504e-08 3.92249e-07 -1.00184e-06)
(-2.81043e-07 7.15857e-07 -9.57555e-07)
(-7.47241e-09 6.03146e-08 -1.0257e-06)
(-9.17858e-10 -8.32639e-09 -8.78757e-07)
(-7.18399e-10 1.60436e-08 -1.21479e-06)
(-3.74635e-09 -3.83622e-09 -1.20405e-06)
(5.3145e-07 -4.81131e-07 -1.43414e-06)
(1.46224e-09 -9.87263e-09 -1.28165e-06)
(-6.26634e-07 5.09813e-07 -1.6638e-06)
(6.08064e-07 4.64815e-07 -1.66278e-06)
(-6.99355e-07 -5.82369e-07 -1.88451e-06)
(-1.46274e-09 1.92182e-08 -1.46839e-06)
(7.18603e-07 -6.14729e-07 -1.88207e-06)
(2.78757e-09 -1.66464e-08 -1.67183e-06)
(-8.39724e-07 6.96198e-07 -2.19275e-06)
(8.19137e-07 6.46783e-07 -2.19257e-06)
(-9.43987e-07 -7.76308e-07 -2.5219e-06)
(-5.76168e-11 3.01241e-08 -1.96313e-06)
(9.7289e-07 -8.22064e-07 -2.52128e-06)
(4.33181e-09 -2.4433e-08 -2.23609e-06)
(-1.12974e-06 9.40874e-07 -2.93524e-06)
(1.10586e-06 8.82724e-07 -2.93742e-06)
(-1.26495e-06 -1.04412e-06 -3.36587e-06)
(1.81608e-09 4.18615e-08 -2.63169e-06)
(1.30706e-06 -1.10803e-06 -3.36857e-06)
(6.53664e-09 -1.7966e-08 -2.97444e-06)
(-1.50537e-06 1.24564e-06 -3.89316e-06)
(1.4771e-06 1.17535e-06 -3.89892e-06)
(-1.66225e-06 -1.3954e-06 -4.41422e-06)
(4.86782e-09 5.50936e-08 -3.47762e-06)
(1.72378e-06 -1.48527e-06 -4.42401e-06)
(8.46206e-09 2.9941e-08 -3.88269e-06)
(-1.96844e-06 1.59641e-06 -5.06005e-06)
(1.93504e-06 1.51986e-06 -5.07651e-06)
(-2.12198e-06 -1.83115e-06 -5.64777e-06)
(1.04239e-08 7.29362e-08 -4.49197e-06)
(2.20964e-06 -1.95837e-06 -5.67675e-06)
(3.4327e-09 1.87038e-07 -4.94497e-06)
(-2.4995e-06 1.95498e-06 -6.39464e-06)
(2.45991e-06 1.9026e-06 -6.43875e-06)
(-2.58716e-06 -2.31029e-06 -7.03728e-06)
(1.67035e-08 1.01313e-07 -5.62472e-06)
(2.68757e-06 -2.46626e-06 -7.09422e-06)
(-2.14248e-08 6.19367e-07 -6.1009e-06)
(-3.02464e-06 2.25858e-06 -7.73257e-06)
(2.98221e-06 2.25833e-06 -7.80535e-06)
(-1.75009e-06 -3.57392e-07 -7.44954e-06)
(-3.55061e-09 2.54671e-08 -7.02592e-06)
(1.73595e-06 -4.27627e-07 -7.45256e-06)
(-1.18332e-07 6.9301e-06 -6.51538e-06)
(-2.7198e-07 -3.32251e-06 -7.05632e-06)
(-2.30633e-07 -3.4234e-06 -6.79927e-06)
(-3.21388e-07 5.16305e-06 -6.20768e-06)
(-3.37138e-06 1.35803e-06 -8.58679e-06)
(7.37554e-07 4.98755e-07 -5.76126e-06)
(5.29802e-07 -4.21738e-06 -7.52116e-06)
(-2.66691e-07 -9.58786e-07 -5.81452e-06)
(-5.39079e-07 -5.77516e-07 -5.56642e-06)
(-1.99908e-07 1.89912e-06 -6.87996e-06)
(-2.96268e-06 -1.98935e-06 -6.92162e-06)
(6.62276e-07 -3.7473e-08 -6.13441e-06)
(-1.07732e-06 7.52123e-08 -6.54165e-06)
(-1.52632e-06 -3.37275e-07 -6.58821e-06)
(-3.55606e-07 -3.87447e-07 -5.97301e-06)
(-4.60564e-07 -7.28247e-08 -5.40159e-06)
(-5.77626e-07 1.04729e-07 -5.29252e-06)
(-3.12613e-07 5.93604e-08 -4.12964e-06)
(-1.64316e-07 -1.76979e-08 -4.21942e-06)
(7.69508e-08 -6.47714e-08 -3.60164e-06)
(-9.26077e-08 -1.93694e-08 -3.21349e-06)
(-1.91886e-07 3.06196e-08 -3.15391e-06)
(-1.81849e-07 8.64578e-09 -3.13093e-06)
(-1.26941e-07 4.5542e-09 -2.35792e-06)
(-1.02405e-07 1.75513e-09 -1.77139e-06)
(-8.58763e-08 -1.67578e-09 -1.36884e-06)
(-1.94194e-08 -5.09581e-09 -1.11759e-06)
(2.23527e-07 -1.87419e-08 -1.0354e-06)
(2.48926e-07 -9.5797e-09 -7.61902e-07)
(2.46855e-07 2.47226e-07 -1.05595e-06)
(2.84205e-07 -2.47248e-07 -9.34121e-07)
(3.63041e-07 2.7037e-09 -1.00686e-06)
(3.46043e-07 1.70495e-09 -1.01272e-06)
(2.622e-07 -2.51421e-07 -9.96435e-07)
(2.64003e-07 2.47712e-07 -1.02948e-06)
(1.75966e-07 -5.72935e-10 -1.20518e-06)
(-1.5556e-07 1.01063e-09 -8.9964e-07)
(4.97074e-08 -1.04359e-09 -1.10648e-06)
(-1.80006e-08 -1.86502e-08 -1.07795e-06)
(-1.25622e-08 -1.18199e-08 -1.08717e-06)
(4.51343e-08 4.49427e-08 -1.11783e-06)
(-1.35581e-07 4.02452e-09 -8.77915e-07)
(-3.16649e-10 5.16879e-08 -1.10288e-06)
(-1.63744e-10 -1.8207e-08 -1.08975e-06)
(-3.70994e-10 -2.24048e-08 -1.08717e-06)
(1.50348e-10 -2.63981e-10 -1.20581e-06)
(-8.6085e-08 8.39218e-08 -8.29079e-07)
(-9.85435e-08 -9.80812e-08 -8.35369e-07)
(-9.7827e-08 9.8872e-08 -8.33974e-07)
(-8.69743e-08 -8.31946e-08 -8.31299e-07)
(8.65487e-08 -8.43756e-08 -8.2876e-07)
(-7.23682e-08 -7.14661e-08 -8.24651e-07)
(2.95849e-09 2.95153e-09 -1.27453e-06)
(9.85947e-08 9.81732e-08 -8.32705e-07)
(-8.39237e-08 8.7659e-08 -8.30536e-07)
(-8.41173e-08 -8.71386e-08 -8.3078e-07)
(2.97311e-09 -2.47662e-09 -1.27483e-06)
(9.80928e-08 -9.85285e-08 -8.34022e-07)
(1.10481e-10 1.33593e-10 -1.21396e-06)
(2.53821e-10 2.97651e-10 -1.30217e-06)
(2.92674e-10 5.15663e-09 -1.29689e-06)
(2.68968e-10 1.04621e-08 -1.14207e-06)
(-3.18003e-09 8.89249e-09 -1.13902e-06)
(3.24297e-09 -3.87904e-08 -1.0631e-06)
(-1.49944e-09 -8.88548e-09 -1.28469e-06)
(-6.94156e-10 -1.61087e-08 -1.6801e-06)
(8.46003e-10 -2.05353e-08 -2.249e-06)
(3.37437e-09 -1.93067e-08 -2.99002e-06)
(8.0393e-09 -2.91901e-09 -3.89767e-06)
(1.04052e-08 -9.53118e-10 -3.70523e-06)
(-2.02064e-09 1.21904e-07 -3.29675e-06)
(-4.16223e-08 -2.3946e-07 -3.86567e-06)
(3.43576e-08 -9.5758e-08 -3.79814e-06)
(-3.04441e-08 -5.78555e-09 -3.62941e-06)
(2.41239e-07 1.15367e-06 -4.04397e-06)
(-3.39609e-07 -1.25051e-06 -4.62298e-06)
(2.1474e-06 1.40915e-06 -5.27774e-06)
(-2.48702e-06 -1.56912e-06 -5.75939e-06)
(2.81878e-06 1.81081e-06 -6.86071e-06)
(-3.51863e-08 -7.08408e-08 -5.58721e-06)
(-8.08755e-07 -1.66916e-06 -5.7441e-06)
(-1.45818e-07 -3.81399e-08 -4.57984e-06)
(2.24206e-07 1.58449e-06 -5.28434e-06)
(-3.05903e-10 -3.29091e-08 -4.38152e-06)
(4.01688e-08 -1.34755e-07 -4.69478e-06)
(7.71536e-08 2.29897e-08 -4.7748e-06)
(-2.96815e-07 1.65359e-08 -4.08827e-06)
(-5.2789e-07 3.13449e-08 -5.21818e-06)
(-1.01219e-06 3.64409e-08 -6.49892e-06)
(-2.33185e-06 -3.1137e-08 -8.02754e-06)
(-2.39726e-06 -3.88091e-07 -7.98603e-06)
(-5.5739e-06 1.33217e-06 -7.9921e-06)
(-2.34332e-06 -6.28694e-07 -6.95108e-06)
(-2.01077e-06 -2.30091e-06 -6.45931e-06)
(-4.35926e-08 -3.41573e-07 -6.75275e-06)
(-7.81742e-07 -3.94927e-07 -7.397e-06)
(6.97657e-07 -5.19787e-06 -6.18021e-06)
(-4.81149e-06 -1.46306e-06 -7.00339e-06)
(-2.92186e-06 1.89314e-07 -9.99814e-06)
(-1.40838e-06 -2.17383e-06 -9.02872e-06)
(2.11938e-06 1.57785e-06 -8.92001e-06)
(1.69434e-07 7.73688e-08 -9.20925e-06)
(9.43338e-08 7.39792e-08 -5.90848e-06)
(-2.17918e-06 1.90757e-06 -7.49515e-06)
(2.29653e-06 1.59707e-06 -7.86928e-06)
(1.47649e-08 2.08662e-07 -9.42623e-06)
(-2.82317e-07 -1.83523e-07 -6.08544e-06)
(-2.38113e-06 2.10266e-06 -7.76218e-06)
(2.30527e-06 1.89128e-06 -7.90414e-06)
(4.57029e-09 2.22044e-07 -9.47129e-06)
(-3.12249e-07 -2.19156e-07 -6.11133e-06)
(-2.32437e-06 1.91219e-06 -7.66541e-06)
(2.29865e-06 2.1531e-06 -8.0039e-06)
(1.91569e-08 2.07228e-07 -9.44998e-06)
(-5.0334e-07 -4.93522e-07 -6.25306e-06)
(-2.2184e-06 1.59296e-06 -7.59737e-06)
(1.64053e-06 2.18494e-06 -8.52235e-06)
(-1.38628e-06 -7.75452e-07 -1.17884e-05)
(1.19069e-06 1.23547e-06 -9.27654e-06)
(9.07239e-07 -1.07414e-06 -9.07021e-06)
(2.59144e-06 1.14807e-06 -1.14836e-05)
(-1.21837e-06 -4.50894e-06 -1.12402e-05)
(-6.82877e-07 -2.43851e-06 -8.96529e-06)
(3.82441e-07 4.01004e-07 -6.59594e-06)
(1.48835e-06 -1.11484e-06 -9.30941e-06)
(-4.59986e-06 2.19384e-06 -8.311e-06)
(-2.3075e-07 -1.37129e-07 -7.45329e-06)
(-2.67633e-06 -3.56505e-06 -7.84821e-06)
(2.53517e-06 2.01406e-06 -8.26895e-06)
(2.41636e-06 -3.85496e-08 -6.46927e-06)
(2.23685e-06 -2.38049e-06 -8.57319e-06)
(2.82341e-06 -2.36592e-06 -9.79166e-06)
(1.27428e-06 -3.40637e-06 -6.68206e-06)
(2.2196e-07 1.21041e-06 -8.14293e-06)
(1.03852e-06 -1.80238e-06 -6.53918e-06)
(1.52734e-06 -1.19768e-06 -6.78343e-06)
(2.42861e-06 1.90094e-06 -8.76919e-06)
(-9.01467e-07 -3.46985e-06 -7.62964e-06)
(2.17638e-07 -4.87577e-07 -5.81907e-06)
(1.50122e-06 2.25264e-06 -7.20465e-06)
(-1.03432e-06 -2.40882e-06 -6.32188e-06)
(1.23664e-08 -1.58778e-07 -4.77704e-06)
(1.05215e-06 1.90805e-06 -5.68377e-06)
(-8.39069e-07 -1.72572e-06 -5.02757e-06)
(-2.81807e-09 -7.97347e-08 -3.74426e-06)
(7.94592e-07 1.4907e-06 -4.40039e-06)
(-6.26406e-07 -1.27492e-06 -3.88028e-06)
(1.02269e-09 -6.20855e-08 -2.86986e-06)
(6.02434e-07 1.12843e-06 -3.34093e-06)
(-4.64818e-07 -9.49979e-07 -2.9305e-06)
(1.41187e-09 -4.88979e-08 -2.15445e-06)
(4.50529e-07 8.44245e-07 -2.50016e-06)
(-3.48674e-07 -7.06566e-07 -2.18663e-06)
(-1.58518e-09 -2.98403e-08 -1.61e-06)
(3.26437e-07 6.34181e-07 -1.86523e-06)
(-2.80859e-07 -5.30668e-07 -1.64942e-06)
(-1.85085e-08 4.50366e-09 -1.20411e-06)
(2.15204e-07 5.03152e-07 -1.43381e-06)