/*--------------------------------*- C++ -*----------------------------------*\
| =========                 |                                                 |
| \\      /  F ield         | OpenFOAM: The Open Source CFD Toolbox           |
|  \\    /   O peration     | Version:  2306                                  |
|   \\  /    A nd           | Website:  www.openfoam.com                      |
|    \\/     M anipulation  |                                                 |
\*---------------------------------------------------------------------------*/
FoamFile
{
    version     2.0;
    format      ascii;
    arch        "LSB;label=32;scalar=64";
    class       volScalarField;
    location    "2.9";
    object      gradTy;
}
// * * * * * * * * * * * * * * * * * * * * * * * * * * * * * * * * * * * * * //

dimensions      [0 -1 0 1 0 0 0];

internalField   nonuniform List<scalar> 
5322
(
0.0472048
0.00547193
0.00121641
0.0002012
0.000968975
0.00128833
0.00124016
0.0010821
0.000931758
0.000759856
0.000219271
-0.00175939
-0.0018513
-0.00168036
-0.00149089
0.00331636
0.00440107
-3.11053e-05
0.0032595
-0.00437044
0.00458193
-0.00549286
0.0060368
-0.00737132
0.00826821
-0.00962883
0.0107306
-0.0128518
0.0142023
-0.0162143
0.0178532
-0.020308
0.0227179
-0.0217547
0.022057
-0.0122937
0.0246276
0.030133
0.0152125
0.0169981
0.0222639
0.0186876
0.0199159
0.0208054
0.0198436
0.0203038
0.0201607
0.0215487
0.0206592
0.0191346
0.0241343
0.0109054
0.0127014
-0.0395531
-0.00194951
-0.0227397
0.0124469
-0.0296456
-0.00144564
-0.0257595
0.0126317
-0.0291356
-0.00128596
-0.0255709
0.0126877
-0.0302128
-0.00174849
-0.0247984
0.0128628
-0.0336405
0.00103601
0.0266803
0.0148144
0.02076
0.015449
0.0196241
0.0163337
0.0195632
0.0166411
0.0232923
0.00178692
0.00886941
0.013039
0.0208814
-0.00141487
-0.00771512
0.0027257
0.00519934
0.0109
0.00153941
0.00292233
0.000528387
7.50156e-05
7.40115e-05
0.0263705
-0.0150033
0.000484027
0.0151623
0.000458918
-0.000719075
0.00264153
0.000477481
0.0161849
-0.0256543
0.0230144
0.00050372
-0.000501282
-6.55494e-05
1.23349e-05
4.84172e-05
4.57268e-05
3.65182e-05
3.32798e-05
3.44631e-05
-2.82231e-05
1.47404e-05
0.00124467
-0.000491164
-0.000189223
-0.00093726
0.0011611
-0.000610102
-0.00120976
-0.00167162
-0.00188139
-7.435e-05
0.00139204
-0.00104285
9.97929e-05
0.00114384
-0.00113743
4.86722e-05
0.00118833
-0.00121888
-3.93079e-05
0.00110796
-0.0013311
-0.000107653
-0.000323758
0.00204351
0.00168221
-0.00113569
0.000748635
0.000580723
-0.00121856
0.000147992
-0.00118025
0.000923331
0.000957357
-0.00105747
-1.5003e-05
-0.000975499
0.000982634
0.00107255
-0.000954712
-2.88288e-06
-0.00090378
0.00115909
-6.4004e-05
-4.22571e-05
0.00373239
-0.00291244
0.00348034
-0.00409673
0.000162642
-0.00230786
-4.09388e-06
7.15419e-05
-0.000372752
0.00102758
-0.00205313
0.00204704
-0.00357472
1.06031e-05
0.00365674
-0.00390567
0.00406552
-0.00459149
2.1823e-05
0.00452908
-0.00524638
0.0054416
-0.00620097
2.68534e-05
0.0060736
-0.0070587
0.00729582
-0.00838283
2.88926e-05
0.00820938
-0.00951233
0.00982223
-0.0112394
3.85247e-05
0.0110156
-0.0126788
0.0130927
-0.0147901
5.84801e-05
0.0144956
-0.016579
0.0171217
-0.0189471
8.31469e-05
0.0185255
-0.0210861
0.0217539
-0.0231989
0.00011464
0.0225525
-0.0257232
0.0259415
-0.0150391
-9.63291e-05
-0.00154467
0.000749233
-0.000498935
-2.38967e-05
0.000148517
0.000227302
1.48006e-05
0.0264045
-0.0149775
8.37209e-05
0.0179635
-0.00269335
-0.00108764
0.00093247
-0.000987438
0.0150774
-0.0260049
0.000160853
0.000116312
0.000325002
0.000182573
7.97338e-05
2.66754e-05
1.73385e-06
-1.48035e-05
-2.82042e-05
3.21169e-05
-1.57569e-05
-0.000998043
-0.00106618
-0.00106774
-0.000999155
0.000225706
0.000336599
0.000203373
-0.00132401
0.000661369
-0.00137276
0.000336393
0.000226152
0.000204809
-0.00135657
0.000456085
0.00129126
0.000821038
-0.00132381
0.000663106
0.0014021
0.00196053
0.00209592
-0.00360323
-0.0035966
-0.0038666
0.00304931
-0.00413581
0.00432811
-0.00526865
0.0059181
-0.00701706
0.00802421
-0.00941724
0.0106766
-0.012555
0.013838
-0.0165013
0.0174147
-0.0210608
0.02105
-0.00401057
0.0122809
-0.00246996
0.000204114
0.0182267
-0.0193859
0.0008413
0.0157878
-0.0155939
0.000607858
0.012823
-0.0119395
0.000463184
0.00999444
-0.00894265
0.000354385
0.00753342
-0.00664707
0.000255828
0.0055313
-0.00498111
0.000163643
0.0039784
-0.0039068
0.000225429
0.00267512
-0.000251897
0.00267384
-0.00390959
0.000225628
0.00306377
-0.00384655
0.00150525
0.00243586
0.00179441
0.00169934
-0.00338705
0.00242322
-0.00373934
0.00380361
-0.00474652
0.0053395
-0.00633647
0.00729217
-0.00854248
0.0097031
-0.0114733
0.0125583
-0.0151128
0.0157385
-0.0187096
0.0184766
-0.00234478
0.00912536
-0.00786726
0.000598043
0.0254983
-0.0273302
0.00113168
0.022731
-0.0213148
0.000737057
0.0181866
-0.0159639
0.000503277
0.0139706
-0.0118949
0.000366739
0.0105234
-0.00883802
0.00025765
0.00783106
-0.0066034
0.000172229
0.00580655
-0.0051512
0.000247143
0.00410882
-0.00433319
0.00149286
0.00340503
0.00300381
-0.0015051
0.00306245
-0.000713237
0.000503526
0.00357715
-0.00311286
0.0031272
-0.00326705
0.00524464
-0.00462573
-3.94173e-05
-0.00468023
0.00400122
-0.00378497
0.000101861
0.00396564
0.000170549
5.25283e-05
-0.00108401
0.000103619
-8.61879e-05
5.74326e-05
-2.43153e-05
-9.63954e-06
0.00364212
-0.00364786
0.00395374
-0.00453567
4.28831e-06
0.00530858
-0.00609089
0.00714767
-0.00822877
1.89154e-05
0.00964633
-0.0110279
0.0128825
-0.0144898
3.62613e-05
0.0168695
-0.0184963
0.0214203
-0.022548
-3.66773e-05
3.96062e-05
6.32113e-05
0.000181879
9.54371e-05
9.20915e-05
0.0170404
-0.0184857
8.74837e-05
0.0219429
-0.0244207
0.0218334
-0.0223336
0.000214197
0.027235
-0.0287672
0.0184525
-0.0137329
-0.0246974
-0.0018626
-8.18645e-05
-0.00887779
-0.00237091
0.000422854
0.0135708
0.0168856
0.00114408
-0.0236195
0.0162688
4.26271e-06
-0.0155232
0.0127675
-0.000174782
-0.011149
0.00978853
-0.000123452
-0.00807409
0.00729079
-0.000145343
-0.00600283
0.00563705
-0.000156511
-0.00431186
0.00442834
-0.000298968
-0.00309441
0.000880454
0.00138531
-0.00193057
-5.14283e-05
0.00331714
-0.0033458
0.00384157
-0.00431551
0.00506551
-0.00580778
0.00943487
-0.00827633
-3.12102e-05
-0.00820467
0.00715301
-0.00614969
-4.2268e-05
0.00699015
2.10288e-05
-7.7447e-05
-4.58739e-05
-0.000284417
-0.000302906
0.000233696
0.000338783
0.000114342
0.000145091
0.000253087
0.000153441
-0.000200511
0.0032322
0.00103294
0.000208229
0.000792396
8.07885e-05
-0.000111397
-7.31096e-05
0.00011988
0.000155468
-0.0001403
-0.000243103
-0.00466926
-0.000136973
0.00527831
-0.00634896
0.00678619
-0.00778119
0.00910247
-0.0102506
0.0168459
-0.0145316
1.28894e-05
-0.0146645
0.0129396
-0.0110751
-1.69104e-05
0.0126895
6.92193e-05
-7.47874e-05
-8.64023e-05
3.46738e-05
-0.000856116
-0.000379047
-0.000268141
-0.000591446
-0.000147514
-0.000107275
0.00402767
-8.21062e-05
-0.000135723
0.000293884
-0.000685576
-0.000188209
0.00177434
0.00335256
0.00611844
0.000515509
-7.11658e-05
0.000137124
-3.27882e-05
-0.00411223
-8.43815e-05
0.00435737
0.00397278
-0.00497751
0.000164258
-0.0052541
-0.000142277
0.00595041
0.00552806
-0.00663512
0.000257471
-0.00702619
-0.000208829
0.00804166
0.00754465
-0.00892412
0.000357791
-0.00947034
-0.000153555
0.0106465
0.0100457
-0.0119265
0.000470885
-0.0126946
0.000255906
0.0136445
0.0129902
-0.0156508
0.000623386
-0.0167382
0.00159862
0.0167092
0.0162615
-0.0197461
0.000865924
-0.0210792
0.00529374
0.0193041
0.0193019
-0.00305463
0.000217667
-0.00365493
0.0592316
-0.0283975
-0.0292598
0.0441286
0.0116071
0.00426287
-0.036046
-0.00819475
-0.00493604
0.0162318
-0.017003
-0.000320282
0.00064284
-0.0028827
-0.00331151
-0.000622433
0.000895123
0.000507354
-0.000151264
-0.000553602
-0.00016555
0.000261706
7.38956e-05
3.89248e-05
1.50011e-05
-1.43229e-05
-4.3554e-05
-0.000160187
-8.18778e-05
0.00211304
-0.00211323
2.31085e-05
1.45722e-05
-0.0021489
0.00211719
-4.89688e-06
8.63787e-06
-8.9196e-06
-0.000159403
-0.000101025
0.000384126
3.43976e-05
0.000441777
-0.000155615
-0.000191494
-2.25625e-06
0.000717281
-0.000838301
0.00084506
-0.000711065
-0.000721159
-0.000610822
2.52267e-05
0.000839087
0.000749222
-0.000744774
-2.11677e-05
-0.000842124
1.14182e-06
2.54403e-06
4.40738e-05
8.94193e-05
7.60042e-05
-0.000331542
-7.59443e-05
-0.000137681
-0.000175516
-0.000165015
-2.49488e-05
-8.14631e-06
0.00104191
-0.00204667
-0.000818444
-4.94492e-05
0.0098604
-0.0106881
0.012044
-0.0134112
0.015477
-0.000605477
-0.0142664
-0.000325982
0.0135427
-0.000281275
-0.00115175
0.000196493
0.000141333
0.000267905
0.00031146
-0.000266128
-0.00331702
0.011386
-0.00537345
-0.0196659
-0.00291942
-0.00337544
-0.0444263
-0.0125048
0.00161807
-0.0185798
0.0134859
0.000661272
0.000632301
0.016304
0.0136502
0.00178344
-0.00156858
0.0179715
0.0161648
0.00189781
-0.00187313
0.0163435
0.0184025
0.00177118
-0.00421814
0.0136151
0.0186747
-0.00662779
0.0105596
-0.0091807
0.0098126
-0.038538
-0.020842
0.00342739
-0.00952856
0.0187508
-0.00117204
-0.0304705
0.0172142
-0.000329484
-0.0203461
-0.0202216
-0.0291142
0.0103454
-0.0154049
-0.0102366
0.0162473
-0.0296568
-0.00416733
0.0192533
-0.0205882
-0.00135708
0.0163081
-0.0147497
-0.000681493
0.012741
-0.0108968
-0.000530646
0.00964473
-0.00811948
-0.000417931
0.00721577
-0.00603903
-0.000255045
0.00542035
-0.00453562
3.84929e-05
0.00430045
-0.00325908
0.000791884
0.00302029
-0.00156968
0.00298821
0.00340037
-0.00437589
0.00409748
-0.0052024
0.000251914
0.00241558
-0.00338957
0.00149064
0.00169045
0.00180883
0.00243497
0.00209151
0.00150398
0.00292361
0.00176186
-0.000228586
-0.000763854
-0.000923007
-0.000876148
-0.00113488
-0.0016375
-0.00124124
-0.000553092
-0.000269041
0.00714331
-0.00827504
-0.000221454
-0.000173722
-0.000336154
3.38921e-05
-0.0110145
0.00966374
2.99861e-05
0.00836341
-0.00970507
3.14563e-05
0.0112406
-0.012926
6.33216e-05
0.0148244
-0.0168782
0.000113961
0.0189972
-0.0213916
0.000150943
0.0231014
0.000175398
0.000383561
2.20835e-05
-1.97164e-05
-7.62917e-05
1.14116e-05
3.26905e-05
2.67408e-05
1.73064e-05
8.68196e-06
3.67547e-06
2.63344e-06
1.95288e-05
5.713e-05
-0.00205882
3.30932e-05
0.00010726
-9.57066e-06
-1.05597e-05
-1.52849e-05
-2.20425e-05
-3.68335e-05
-7.16099e-05
-0.000139577
-0.000188396
0.000763455
-0.000222752
-0.000587097
-0.000795618
0.0155699
-0.0166535
0.0199267
2.37784e-05
-0.00276733
0.00231012
0.00725792
3.09072e-05
-0.00650709
0.00610013
0.00623061
1.18048e-05
-0.00693624
0.00648538
0.00559421
-5.91677e-06
-0.00874357
0.00829995
0.00781859
-0.000164949
0.0106998
-0.0112562
0.0109773
-0.0117965
-0.00110184
-0.00604046
0.00860852
-0.000756077
-0.00827079
-0.000190089
-5.88663e-05
0.0288119
-9.33658e-05
-0.0289916
0.0179191
-0.00063693
-0.0185338
0.0185777
-0.000412124
-0.0194702
0.0291925
-0.000282643
-0.0292052
0.0262217
-0.026124
0.0259566
-0.0265962
0.000108548
-0.0288963
0.0285653
-3.57293e-05
-0.0185705
-0.000704315
0.0187289
-0.0159743
0.000107182
0.0283437
0.0102339
0.0279684
0.0103459
-0.0126003
0.0185867
0.00226964
-0.0141793
0.0143163
0.000840485
-0.0118719
0.0110597
0.00056681
-0.00927749
0.00855522
0.000419474
-0.00709277
0.00638288
0.000317336
-0.00533174
0.00479577
0.000139047
-0.00405578
0.00342608
-0.000192869
-0.00332841
0.00206797
-0.00132328
-0.00359227
-0.00104453
-0.00324234
0.0021319
0.000200369
0.000106952
0.00133772
0.000330229
-0.00206393
-0.00168978
-0.000456595
-0.00131136
-0.000837197
-0.000649092
-0.00145333
-0.00071081
-0.000756505
-0.00144307
-0.00211699
-0.00222103
-0.00149877
0.00383216
0.000240513
-0.00244864
-0.000223024
0.00366872
0.00431919
5.83511e-05
-0.00363218
-0.00016563
0.00458352
0.00673991
1.50877e-05
-0.00790429
0.000110478
0.00896443
-4.54853e-05
-0.010629
0.000168872
0.0119361
-6.99691e-05
-0.0141142
0.000137315
0.0156298
-8.85535e-05
-0.0183484
0.000188157
0.019956
-0.000171978
-0.0233127
5.76488e-06
0.0244944
-0.000503481
-0.0289325
-0.000827632
0.000515662
-0.0175861
0.0286692
0.000168306
0.016712
0.000318851
-0.0145422
0.0238516
-3.88276e-05
0.0131859
0.000283424
-0.0115897
0.0189845
-3.42796e-05
0.0102661
0.000233359
-0.00892504
0.0146793
-1.93832e-05
0.00779912
0.000208381
-0.00675987
0.0110973
-1.21587e-05
0.00584729
0.000152425
-0.00504964
0.00828876
-6.37055e-06
0.00433733
0.000112074
-0.00384996
0.0062235
-2.27557e-05
0.00330758
6.95661e-05
-0.00313826
0.00473732
-0.000163879
0.00313394
-0.000496641
0.000720552
-0.00341395
-0.00298808
0.0015568
-0.0030536
-0.000811995
-0.000461565
-0.0061419
-0.0033672
-0.00295402
-0.00203237
-0.00150313
0.00343167
0.00396553
0.000314217
-0.0023201
-0.00024688
0.00526709
0.000129453
-0.00585602
0.000143708
-0.00025754
-0.000109137
3.8393e-05
-0.00321032
-7.70804e-05
0.00136181
-0.000187415
-0.000218797
-0.000363513
0.00133341
-0.000435853
0.000180481
0.000158325
4.74401e-06
1.21948e-05
1.10785e-05
9.29684e-06
7.79849e-06
7.10722e-06
-1.81369e-05
-9.06052e-06
0.0053158
-0.00615259
3.16122e-05
-1.60863e-05
-4.76813e-05
1.51666e-06
-0.00404444
1.20331e-07
0.0045682
-0.00538304
4.02053e-06
0.00617272
-0.0072124
1.38102e-05
1.0842e-05
-4.07918e-06
1.12247e-05
1.38698e-05
4.19711e-05
5.45795e-05
3.59144e-05
2.18203e-05
1.2629e-05
9.70256e-06
2.42072e-05
2.2789e-05
2.736e-06
0.00451354
-0.00515073
0.00466085
-0.00538411
0.00622673
-0.00720813
8.79474e-05
-0.00303837
9.0583e-05
0.00284629
0.000126669
-0.00244666
5.32147e-05
0.00187785
-0.000159268
-8.71423e-05
0.000678572
-1.78672e-05
-0.000988842
0.0067079
5.09514e-05
-0.00491047
-0.000241047
0.00576059
0.00753317
0.000227057
-0.00688997
-0.000318884
0.00804033
0.00973104
0.000366835
-0.0092356
-0.000412752
0.0104374
0.0127726
0.000492314
-0.0121571
-0.000522811
0.0130479
-0.0155266
-0.000636737
0.0152993
-0.0195274
8.01187e-05
-0.000647907
-0.000136473
-3.06496e-05
2.24726e-05
3.24504e-05
3.06589e-05
3.20123e-05
3.66781e-05
-2.86892e-05
1.58587e-05
0.00100038
0.00105915
0.00107089
-0.000297585
0.0013885
-8.50652e-05
-9.2159e-05
0.00142807
-0.000260299
0.00133141
-0.000424385
5.34098e-05
-0.000113642
0.000112783
-2.82095e-05
3.50015e-05
-1.54311e-05
-0.00388739
0.00013159
0.000105777
2.88585e-05
4.16597e-06
9.22407e-07
-0.000744444
0.000742026
2.54283e-05
-0.000621254
0.000974959
-0.00021556
7.47312e-05
5.12401e-05
-6.24944e-06
-0.000159841
0.0013711
-0.00382726
0.000241624
-0.00258237
-0.000244924
0.00357748
0.0044111
6.79346e-06
-0.00369284
-0.000153861
0.00551369
9.73684e-05
-0.00504571
-0.000237376
0.00609105
0.00737462
0.000235572
-0.00696047
-0.000327025
0.00802564
-0.0093081
-0.000421145
0.0104211
0.000333705
0.000273865
0.000209305
0.00014427
7.43141e-05
7.64027e-05
-4.28282e-05
2.05223e-06
2.97904e-05
5.59115e-06
-1.93971e-05
-9.54254e-05
-7.1489e-05
-2.3042e-05
-2.36595e-05
-6.10638e-05
-3.17448e-05
-0.00013186
-0.000104545
-0.00017918
-0.000194914
-0.00113045
-0.0015757
-0.00247256
-0.00268051
-0.0048069
-0.00410649
-0.00237928
-0.0088237
-0.0266337
0.00178885
-0.0421516
-0.0313358
-0.0234349
-0.015631
-0.0138448
0.00528632
-0.0122796
-0.000825525
0.00306701
0.000284491
-0.000249846
0.0149623
-0.0174555
0.0202874
0.000185372
-0.00247943
0.00379741
0.00843257
0.000317238
-0.00584966
0.0078931
0.00788588
0.0003357
-0.00625696
0.00813825
0.00740315
0.000248253
-0.00837798
0.00924866
-0.000424572
0.000327732
0.000767868
0.00430418
-0.0183061
-0.0263977
0.000922392
0.0228174
0.000533459
0.000269677
0.0145013
0.000146426
-0.0237532
0.0266474
2.01497e-07
-0.0279491
0.0164818
-0.0171553
0.0150728
-0.00247441
-0.0182435
0.000689649
-0.0216137
0.0296925
-0.0259992
0.0246816
-5.81207e-05
-0.0247234
3.96473e-05
0.0244938
-7.29411e-05
-0.0246002
1.53673e-05
0.0247123
-8.31441e-05
-0.0248051
0.0264523
-0.0303435
0.00201226
-0.0230417
0.0317249
0.00161891
0.000894439
-0.00983271
0.0105285
-0.010889
2.87243e-05
-0.0083095
0.00764662
0.000547208
-0.00949923
0.00684611
-0.00798312
0.000597578
0.0152493
-0.00862088
0.00515971
0.00114367
-0.0097296
0.00768321
-0.000164019
-0.000149373
-6.58014e-06
0.000267369
0.000140227
5.50433e-05
1.45923e-05
-3.22049e-06
-1.61293e-05
-2.8088e-05
3.20492e-05
-1.40511e-05
0.000616417
0.00071546
1.79605e-06
-0.000165967
-0.000102495
0.00130111
0.00045735
-0.00113438
0.000579505
0.000748876
-0.00119442
3.09926e-05
-0.00133905
-0.000105891
-0.000329135
-0.00110433
0.0016899
0.00206847
0.000107077
0.000385966
-9.29747e-05
5.34678e-05
0.000931271
-0.00100074
-1.07317e-05
-0.00106329
0.0010632
0.00100346
-0.000927859
-4.60786e-06
-0.00123281
-8.59985e-08
0.00123356
9.00343e-07
2.44222e-06
-2.70586e-05
5.28896e-05
6.16317e-05
0.000436001
0.00611339
0.00334896
0.00174158
-0.000230933
-0.000750874
-0.000935407
-0.00116133
-0.00158623
-0.00241854
-0.0040898
-0.00421376
-0.00806187
-0.00881993
-0.0188196
-0.0309806
-0.027919
-0.0280855
0.0117304
-0.0170879
-0.00798426
-0.00863395
-0.0254732
-0.031617
-0.0284221
-0.0284295
-0.0284346
-0.0282692
-0.0322463
0.011888
-0.00205981
-0.00744191
0.0360376
-0.0104255
-0.0233697
-0.0219931
-0.00628267
-0.00768933
-0.0175499
-0.0182236
-0.00299329
-0.0050922
-5.57708e-05
0.000639845
0.000714474
0.000593097
0.000450847
0.000342219
0.00018635
0.000175507
-4.21338e-05
0.000103431
-0.000415486
-0.000678257
-0.000887746
-0.00118406
-0.00173104
-0.00298282
0.000451074
0.000278974
0.00018199
0.000480291
0.000550774
0.00047306
0.000465857
0.000332263
0.000419431
0.000258049
0.00379299
0.0057644
-0.00663428
0.00777593
-0.00883425
0.000259984
0.00531735
-0.00476055
0.000176446
-2.07416e-05
-6.6456e-05
-4.28727e-05
-0.00374938
8.31098e-05
-0.00136541
0.000825973
-0.000300474
-7.12272e-05
-9.54252e-05
0.000146283
-0.00122113
0.00095403
-6.42971e-06
-2.80725e-06
-2.82148e-06
1.31423e-06
0.000615444
-2.02282e-05
3.42386e-06
3.18967e-06
6.50867e-07
-0.00038467
2.67559e-06
0.000159775
9.9245e-05
0.000131136
-0.000105464
9.1303e-05
-1.06811e-06
9.88931e-06
-0.000383646
0.0012205
0.00119635
-0.000743912
-0.000143141
-0.000588924
0.0011419
0.000100836
2.71093e-05
2.68744e-06
1.08418e-06
-2.31942e-05
-1.9774e-05
-1.87275e-05
-4.37033e-05
-7.89417e-05
-7.54785e-05
2.38353e-05
-0.000129604
-0.000103438
-0.00017372
-0.000188199
-0.00634402
0.00725187
0.0104645
-0.0118339
0.0138958
-0.0157354
0.00047616
0.00962878
-0.00852426
0.000358367
2.07614e-05
-8.55644e-05
8.8422e-05
-7.46686e-05
0.000181408
-0.00017789
-0.0001748
-0.000178163
-0.000165611
-5.34014e-05
0.000176487
0.000335707
0.000400809
0.000179438
0.00425832
0.000127198
0.0001473
7.10184e-05
3.13855e-05
6.24744e-06
-1.80542e-05
-1.27908e-05
-7.42774e-06
-1.46626e-05
1.75298e-05
6.25302e-06
4.62263e-07
4.4323e-05
2.10846e-05
2.06683e-05
1.19576e-05
-3.5455e-06
2.40185e-05
2.16478e-05
4.8974e-06
9.8302e-06
1.68671e-05
2.70758e-05
2.18508e-05
8.4664e-05
4.40581e-05
7.04557e-05
0.000166514
8.22549e-05
0.000171644
0.0003356
0.000265293
0.00100172
-0.00240941
-0.00297941
-0.000511751
0.000376727
0.000516904
0.000342278
-0.00720348
-0.000155062
-8.60515e-05
-0.000104322
-0.000739411
-0.000260261
0.0163484
-0.000222861
-0.0205788
-0.00015866
-0.000896102
-0.0191227
-0.000870815
-0.00108764
-0.0125861
-0.0062062
-0.0102601
-0.0247984
0.00254519
0.00623623
0.00038927
-0.000337256
-0.000288931
-0.000527316
0.000104672
-0.014656
0.0197039
0.00013093
-0.00439633
0.00199621
0.00671873
4.61934e-05
-0.00839855
0.00535756
0.0054165
-1.74332e-05
-0.00866509
0.00572083
0.00479923
-7.19804e-05
-0.00796874
0.00191006
-0.0115725
0.00553208
0.00860142
-0.0109206
0.00323537
0.00141336
-0.000650954
-0.000115116
-2.0989e-05
3.19455e-05
3.71414e-05
3.17745e-05
3.1125e-05
3.094e-05
2.14307e-05
3.09836e-05
0.000100841
0.00597503
-0.00691375
9.96713e-05
0.00803266
-0.00930807
0.00835357
-0.00965179
0.0110983
-0.0127432
0.00012542
-0.00546655
0.000127855
0.00525673
9.9986e-05
-0.0040536
0.000117424
0.00393314
1.27628e-05
9.3869e-05
0.00127695
-7.01889e-05
-0.00171732
0.0118935
0.000255075
-0.00880238
-0.000411947
0.0100671
0.0130389
0.000491377
-0.0119717
-0.000516345
0.0158977
0.00078271
-0.0154173
-0.000709884
0.0152804
0.0194411
0.000748901
-0.0233444
-0.000156989
-0.0194117
-0.0230904
0.000888878
0.0188891
0.0156923
-0.0190698
-9.19102e-05
-0.000641297
0.000516621
0.000427308
0.000362923
0.000288
0.000210852
0.000133705
5.8177e-05
9.84064e-05
2.68971e-05
8.52024e-07
3.52687e-05
8.96621e-07
0.0107539
-0.0124008
0.00017082
0.0141462
-0.0162348
0.0145107
-0.016425
0.0186834
-0.0201278
-0.000622036
-0.00903939
-6.26131e-05
0.00915732
4.399e-05
-0.00732701
9.08441e-05
0.00692677
-3.06285e-05
0.000249142
0.00250447
6.53312e-05
-0.00258797
0.0199264
0.000424292
-0.014203
-0.000706439
0.0160118
0.0193228
0.00073618
-0.0239902
-5.46221e-05
-0.0171131
-0.0307039
0.000156282
0.023841
-0.00187675
0.0101029
-0.000149471
0.00697749
0.00551648
0.00289322
0.00184011
0.0130076
-0.00790265
-0.000491043
0.0010892
0.000588826
0.000445569
0.000371754
0.000295827
0.000208941
9.14708e-05
7.98105e-05
0.00247132
-0.00173679
-0.00282151
-0.000656742
0.000539177
-0.00144859
0.00464612
-0.0020445
-0.00247471
-0.00242116
-0.00144507
0.00349237
0.00388555
0.000233209
-0.00260857
-0.000230139
0.00427844
1.96316e-05
-0.00362491
-0.000153362
0.00462162
0.00554528
0.00012025
-0.00509163
-0.000244225
0.00605849
-0.000404467
-0.000312067
-0.00624443
-0.000163871
-0.0045647
0.000826687
0.000834752
0.000226552
-0.00186387
-0.00309412
-0.00209182
-0.00153037
-0.00326294
-0.00108865
-0.000568179
0.000325926
8.04887e-05
0.00525503
-1.50249e-07
-0.00363026
-0.000162841
0.00437417
0.00566332
9.0186e-05
-0.00506457
-0.000234977
0.00733301
0.000233582
-0.00690275
-0.000323342
0.00805012
0.00979646
0.000350204
-0.0112761
-0.000570718
-0.000445751
-0.00846365
0.00105888
0.00106499
0.000960657
-0.000188489
-0.00448202
5.16071e-06
-0.00290925
0.000234726
-0.000692464
-0.000942169
1.93379e-05
0.000749595
-0.000361353
-0.00551333
0.000415585
3.54589e-05
0.000949867
-5.47917e-05
0.00892711
0.000157808
-0.00662609
-0.000325342
0.00765515
0.0100085
0.00035481
-0.00919162
-0.000403937
0.0126562
0.000525037
-0.0120693
-0.00053056
0.0130324
0.0161433
0.000713137
-0.0187248
0.000381719
-6.93792e-05
-2.464e-05
2.41558e-05
2.07971e-05
1.41826e-05
8.76273e-06
4.94605e-06
-8.15052e-06
-1.32755e-05
1.60657e-05
2.08242e-06
-6.3541e-06
6.54985e-06
2.32329e-05
5.01713e-05
7.8011e-05
4.08941e-05
1.65599e-05
4.26573e-06
4.52323e-06
-6.45765e-06
-5.14958e-08
0.00537306
3.25099e-06
-0.00536101
0.00617335
5.89077e-06
-0.00719679
0.0072151
-0.00615505
0.00623174
6.46433e-06
-0.00729351
0.00719261
-0.0061767
0.00536304
-1.15243e-05
-0.00545438
0.00461692
-0.00459037
0.00460134
-0.00461054
1.72382e-05
-0.00535584
0.00547011
1.47011e-05
-0.0062216
4.59737e-06
-0.00718328
0.00731893
1.45906e-05
-0.00841152
-6.35309e-07
-0.00964883
0.00981342
-0.00966219
0.00968886
9.4965e-06
0.00833533
-0.00830839
5.86468e-06
0.00842717
1.86849e-05
-0.00977833
0.00966311
-0.00830944
-3.35666e-05
-0.00824011
0.00505907
1.38185e-05
0.00702687
-4.0569e-05
-0.00619218
0.00385291
2.58327e-05
0.00528747
-0.00465018
0.00404115
-1.56437e-05
-0.00410581
-1.49763e-06
0.00401361
2.18078e-06
-0.00400688
1.10808e-05
0.00411271
1.90927e-05
-0.00403559
0.0046652
-0.00529235
4.48358e-05
5.58911e-05
4.39348e-05
0.000161365
0.000105023
-0.00213689
0.00220805
-0.00217462
0.0021757
5.57853e-08
-5.52413e-06
-5.2549e-06
-0.0022072
0.00213752
-0.000104935
-5.99888e-05
0.00112038
-0.00125379
4.0706e-06
-8.36622e-06
0.00370046
-0.00374473
0.00374993
-0.0036979
0.00382844
-0.00400418
-9.8501e-05
-3.18597e-05
-0.001119
6.07312e-05
0.00125379
-5.23325e-05
3.07891e-05
2.68261e-05
4.41148e-06
7.56947e-06
1.16001e-05
1.50308e-05
1.44438e-05
-0.0111195
1.05207e-05
-0.0127929
0.0128272
-0.0129379
0.0128159
2.79484e-05
0.0112891
-0.0111091
-2.54565e-05
-0.0110332
0.00676086
2.77767e-05
0.00945996
-0.00582745
-0.000141546
-0.00469621
0.00529158
-0.000273791
-0.00630948
0.00709023
-0.000313909
-0.00833094
0.00947813
-0.00025293
-0.0107431
0.0124871
-0.000324306
-0.0138435
-0.00110377
-0.000329375
-0.000560974
-0.000167208
-0.000404837
-0.000170436
-0.000338853
-0.000155333
-0.000273756
-0.000101576
-0.000160638
0.00402306
-0.00433048
-0.000105443
-0.0034129
0.0032887
0.00018294
5.06184e-05
-0.000191412
8.29044e-06
-0.00206577
-6.80867e-05
0.00314291
0.000163713
-0.0047237
-3.67936e-05
-4.73946e-05
0.000254256
0.000147782
-0.000200165
-0.00212979
0.00323919
0.00104852
0.00357502
0.00130484
0.00074248
0.000153712
0.000493587
-0.00313495
0.00400347
-0.00382094
9.94833e-05
1.4764e-05
-0.000174358
-4.37342e-05
-1.42877e-05
0.000145994
0.000125017
0.000149079
0.00019534
5.31995e-05
-0.0146067
0.00895593
-0.00780757
0.012673
2.45503e-05
5.74069e-06
-1.50462e-05
2.61322e-06
1.47004e-05
3.1401e-05
4.43944e-05
5.89693e-05
-6.21397e-06
-0.0145616
3.31361e-05
-0.0167137
0.0166172
-0.018922
0.0116108
9.61964e-05
0.0167003
-0.0103133
-0.000126526
-0.000148659
0.000709341
0.000549
0.000505585
0.000730814
0.0123804
0.0180577
-0.0206799
0.00200866
0.000196601
-4.78778e-06
0.000548258
-7.50063e-05
0.000107489
-0.0113691
0.000265102
0.0010956
-0.0148372
0.000647752
0.000108765
5.55954e-05
0.000112512
0.000221311
0.000320072
0.000155427
6.75663e-05
3.53071e-05
2.95118e-05
2.66233e-05
3.76879e-05
5.00737e-05
3.41838e-05
2.8658e-05
3.37975e-05
2.5441e-05
2.1174e-05
1.5577e-06
1.71886e-05
1.53111e-05
0.000123749
4.21525e-05
3.46069e-05
2.40582e-05
1.96646e-05
8.90837e-06
7.33004e-06
2.83532e-05
4.23042e-05
1.55378e-05
-0.000205087
3.88335e-05
4.01823e-05
3.2673e-05
5.20812e-05
7.75919e-05
8.18143e-05
0.000139052
7.34107e-05
0.000137863
7.07044e-05
0.0181128
-0.0207556
0.000255028
0.0222052
0.000409305
8.21729e-05
0.000225531
0.00130885
-0.004095
0.0127379
-0.010506
0.0221513
0.00321538
0.0139916
-0.0119423
0.0101377
-0.0101402
0.00704688
0.00800003
-0.0110205
0.00250056
-0.0118082
0.00744486
0.0077063
0.0146316
-0.000748768
-0.000271962
-0.0018381
-0.000118526
-0.00763891
-0.000145376
-3.62547e-05
4.12728e-05
5.70828e-05
9.8258e-05
5.63377e-05
4.51078e-05
5.38587e-05
4.39566e-05
-1.1258e-06
4.381e-05
6.16241e-06
0.000276542
0.000191392
0.00014076
-0.0137867
0.0156067
0.000347761
-0.0113899
-0.000526926
0.0129827
0.0163864
0.000692774
-0.0152116
-0.000681486
-0.0185768
0.000431264
0.000367923
-1.79985e-05
1.55149e-05
1.5245e-06
0.000236797
4.65413e-05
2.47225e-05
3.31819e-05
2.68737e-05
-7.498e-06
0.000215461
0.000139493
5.84853e-05
-0.00440772
-0.000156923
0.00462345
3.83423e-05
0.00369809
-0.00298656
-0.00294896
0.00354225
-0.00225978
-0.00210202
-0.00183621
0.000237693
-0.000308646
-0.000348171
-0.00628294
0.000955282
-0.000373473
-0.0012872
0.000585546
0.00114161
-0.000467235
-0.0103092
0.000744904
0.000135338
0.00172357
-4.906e-05
-0.00222051
-0.000547767
0.00101298
0.0016285
0.00136853
-0.000493563
-0.00859851
-0.000445127
-0.00836348
0.00120629
-0.000631404
-0.011501
-0.000570058
0.0104684
0.00128593
-0.000799097
-0.0150333
-0.000409011
-0.0181615
0.00193574
0.000803018
0.00454589
0.000364681
-0.0236569
0.00100933
0.00189486
0.00214486
0.00340507
0.0134289
0.0315782
0.0165357
0.0243498
-0.00193979
-0.00108553
-0.0192095
0.00104635
0.000355462
0.00223244
0.0163037
0.023654
-0.00189847
-0.00101713
-0.000727244
0.0131902
-0.014582
0.0011779
0.00117683
0.00074233
-0.000152374
0.00159544
0.0150092
0.0238499
-0.0019627
-0.00103173
-0.000734057
-0.0146996
-0.000892814
-0.000705157
-0.000564384
0.000836975
0.00065614
0.000393867
-6.75435e-05
0.00023481
0.00100043
0.00111081
0.00107055
-0.00110963
-0.00140946
0.0015033
0.0136933
0.0266746
-0.00471219
0.00514028
0.00227922
0.00214742
0.000335152
-0.00014986
-7.32884e-05
-3.60505e-05
-1.96576e-05
-1.1728e-05
-2.90173e-06
1.85164e-05
2.07852e-06
4.62174e-07
-5.93512e-06
1.67943e-05
9.61286e-06
1.05311e-05
-1.18867e-05
-0.000158627
-0.000258589
-0.000145032
2.81956e-05
5.28056e-05
-0.00703914
0.00620139
2.03701e-05
1.97793e-05
2.12771e-05
3.01097e-05
2.26563e-05
3.05349e-05
5.00599e-05
-5.01229e-05
0.00109733
-0.00415311
0.000257563
8.73189e-05
1.32015e-05
1.68223e-05
1.92885e-05
1.30052e-06
-9.72309e-06
2.23782e-05
1.73271e-05
1.55536e-05
1.1402e-05
1.59003e-05
1.73099e-05
5.18329e-05
4.9631e-05
0.0165713
2.27257e-06
-0.0165389
0.0186494
-2.56651e-05
-0.0207103
0.0207056
-0.018619
0.0189317
1.70374e-05
-0.0208982
0.0208769
-0.0185643
4.3908e-05
0.0215087
-0.0134304
-8.31846e-07
-6.57918e-05
0.00013443
0.000258508
0.000254184
-0.000349967
-0.00144318
-0.00292378
-0.0058725
0.000116497
-0.00232759
-0.000886802
-0.000268945
0.00029722
0.00027107
3.39542e-05
5.08644e-05
6.102e-05
3.46801e-05
0.0148202
-0.0145836
0.0146244
-0.0147898
-1.76681e-05
-0.0165509
0.0167537
1.24013e-06
-0.0189197
-4.86414e-05
-0.0207855
0.0209199
-1.69615e-05
-0.0233362
0.0229805
-0.0264268
-3.08919e-05
-0.000161881
-5.92232e-05
2.1186e-05
3.80669e-05
0.000132977
0.00031214
0.000910067
0.00463123
-0.00228925
0.0597547
-0.00155302
-0.000283048
-0.00112218
-0.0114418
0.00249423
0.00662157
0.000530385
-0.000114376
-0.00601642
-0.000136784
0.00015369
0.000342496
2.826e-05
3.56706e-05
0.000550678
0.000314892
-0.0191142
0.01654
-0.000752572
-0.00047214
-0.000115926
0.0033271
-0.000847968
0.00273636
0.00444816
0.0077278
0.0149935
0.00340528
-0.00871787
0.00350623
-0.0117786
0.00278191
0.00135419
-0.00833622
0.000560445
-0.000146589
1.58281e-05
-2.94345e-05
1.22128e-05
0.000135423
-8.11002e-05
-0.000194752
-5.60519e-05
-0.000217445
-5.33537e-05
8.98615e-06
-2.3137e-06
1.51524e-05
-9.89193e-06
-2.79554e-06
-4.64984e-05
6.4039e-06
7.44533e-05
0.000156169
0.000438734
0.00643001
0.0273993
0.00147969
-0.00400318
0.0175461
0.000494407
-0.00295477
-0.00154801
-0.00248551
0.0593583
-0.00126661
-0.000302393
0.000475422
0.000126121
0.000297259
-0.00547456
-0.000155058
-0.000153014
-0.00118231
-0.0115387
-0.0104359
-0.00661592
-0.02402
0.00253505
0.00588283
0.000271142
-0.000334547
-0.000354936
-0.000205187
-0.00666944
-0.000347404
0.0032454
-0.00208211
0.00347641
-0.000224004
-0.00611532
-0.000374252
-0.000174703
-3.85881e-06
0.000457079
0.00199943
0.000467359
0.000524486
0.00191203
0.00185342
0.000217007
-0.000111482
-2.8419e-05
5.72714e-05
0.000174412
-9.25481e-05
-2.68886e-05
0.00125856
0.0209842
0.00156976
0.000569305
-0.000125443
-0.000173463
-0.000154883
-0.000128534
-0.000116201
1.21541e-05
0.00834492
-0.00947565
4.98896e-05
0.000108398
5.85057e-06