/*--------------------------------*- C++ -*----------------------------------*\
| =========                 |                                                 |
| \\      /  F ield         | OpenFOAM: The Open Source CFD Toolbox           |
|  \\    /   O peration     | Version:  2306                                  |
|   \\  /    A nd           | Website:  www.openfoam.com                      |
|    \\/     M anipulation  |                                                 |
\*---------------------------------------------------------------------------*/
FoamFile
{
    version     2.0;
    format      ascii;
    arch        "LSB;label=32;scalar=64";
    class       volScalarField;
    location    "2.9";
    object      gradTz;
}
// * * * * * * * * * * * * * * * * * * * * * * * * * * * * * * * * * * * * * //

dimensions      [0 -1 0 1 0 0 0];

internalField   nonuniform List<scalar> 
5322
(
-0.87207
-0.890352
-0.919305
-0.996557
-0.988876
-0.986142
-0.985402
-0.986306
-0.989235
-0.997395
-0.986055
-0.988868
-0.744203
-1.02601
-1.1219
-0.895566
-1.05862
-0.792528
-1.11584
-1.126
-1.13306
-1.12793
-1.12841
-1.13432
-1.13416
-1.12785
-1.12814
-1.13334
-1.13364
-1.12796
-1.12763
-1.12969
-1.1218
-1.10384
-1.04942
-0.861496
-0.979842
-0.998649
-1.03085
-0.725917
-0.958644
-0.989333
-0.712904
-0.990798
-0.981113
-0.724744
-1.00452
-0.948205
-0.715087
-0.982126
-1.09992
-0.789346
-1.07418
-1.00928
-0.94636
-0.959568
-1.1382
-0.944703
-0.956269
-0.96059
-1.15209
-0.957432
-0.956662
-0.936901
-1.15128
-0.989612
-0.952098
-0.889813
-1.12392
-1.05059
-0.788615
-1.22903
-1.17052
-1.15388
-1.16613
-1.16046
-1.15986
-1.15578
-1.17084
-1.10858
-1.05453
-0.81055
-0.840167
-1.13576
-0.774629
-1.02985
-1.38972
-0.848838
-0.870235
-0.782072
-0.989022
-0.884626
-0.933366
-0.925975
-1.12409
-0.973344
-0.970016
-0.987316
-1.41437
-0.826135
-0.833061
-0.794851
-0.994793
-1.11086
-1.20844
-0.941376
-0.998715
-1.00111
-0.99796
-0.999458
-0.999931
-0.999695
-0.998651
-1.00217
-1.15397
-1.14278
-0.79972
-0.866597
-1.15426
-0.955104
-0.8466
-1.02972
-1.01528
-1.43036
-1.0655
-1.40059
-1.00563
-1.05007
-1.37656
-1.00138
-1.02772
-1.38899
-1.01689
-1.00858
-1.39533
-1.03127
-1.01483
-1.43262
-1.06628
-1.40069
-1.00813
-0.849484
-0.955198
-0.854467
-0.801205
-1.1544
-0.866635
-0.860543
-0.790567
-0.795776
-1.15211
-0.861719
-0.85839
-0.791016
-0.797686
-1.15182
-0.863449
-0.854063
-0.849188
-1.12173
-0.894249
-1.06001
-1.23261
-1.20476
-0.764321
-1.11605
-0.792601
-1.0736
-0.735097
-0.994137
-1.02725
-0.954223
-0.988107
-1.14688
-0.943363
-1.16178
-1.15366
-1.11415
-0.931163
-1.11221
-1.13838
-1.14073
-1.13031
-0.945693
-1.1316
-1.13509
-1.13654
-1.1327
-0.94903
-1.13373
-1.13502
-1.13601
-1.13264
-0.95036
-1.13409
-1.13552
-1.13703
-1.13123
-0.951372
-1.13353
-1.13655
-1.13911
-1.12879
-0.951951
-1.13207
-1.13601
-1.13988
-1.12702
-0.948824
-1.13169
-1.11586
-1.11954
-0.985097
-1.41516
-0.826452
-0.823524
-0.797594
-1.12346
-1.12038
-0.933442
-0.926224
-1.12063
-0.981073
-0.958124
-0.993556
-1.41014
-0.83086
-0.823371
-0.79906
-0.981513
-1.11721
-0.96965
-0.981023
-0.999375
-0.997782
-0.999889
-1.00033
-0.999937
-0.99875
-1.00213
-1.15392
-1.14307
-0.796195
-0.79373
-0.793113
-0.796146
-1.15167
-0.858325
-0.863148
-0.868432
-1.02746
-1.44335
-0.858566
-1.15172
-0.862882
-1.43526
-1.04694
-1.37193
-1.00067
-0.868641
-1.02737
-1.37224
-0.732614
-0.984221
-0.943945
-0.94285
-0.988408
-1.15281
-1.11434
-1.14004
-1.13033
-1.13621
-1.13258
-1.13592
-1.13257
-1.13718
-1.13114
-1.13967
-1.12844
-1.14116
-1.12586
-1.12656
-0.972456
-1.41454
-0.991103
-0.969659
-1.11326
-1.13439
-0.949312
-1.13564
-1.13346
-0.952386
-1.13703
-1.13408
-0.951681
-1.1362
-1.13418
-0.950534
-1.13573
-1.13353
-0.949098
-1.13606
-1.13095
-0.945676
-1.13995
-1.11102
-0.930907
-1.16336
-0.954294
-1.16206
-1.11227
-0.930914
-1.15399
-0.988165
-1.14662
-0.952149
-0.741543
-1.02946
-0.895748
-1.16707
-1.1166
-1.13786
-1.13693
-1.13554
-1.13679
-1.13674
-1.13568
-1.13864
-1.13367
-1.14301
-1.12714
-1.14856
-1.11524
-1.12939
-0.977759
-1.39391
-1.0322
-0.934277
-1.19868
-1.2179
-0.9186
-1.22033
-1.21564
-0.922118
-1.21967
-1.21434
-0.920446
-1.21655
-1.21381
-0.919059
-1.21593
-1.21468
-0.918264
-1.21661
-1.21459
-0.916393
-1.22158
-1.20518
-0.903656
-1.23243
-1.0598
-1.12135
-0.993779
-1.04991
-0.916009
-1.0771
-0.73301
-0.836609
-0.951614
-0.873577
-1.19429
-1.16307
-1.12048
-1.11292
-0.928621
-1.15426
-1.17103
-0.909248
-1.15151
-1.01141
-0.961912
-0.945525
-1.39365
-1.12454
-1.06616
-1.43088
-1.02573
-0.956237
-0.976594
-0.949121
-1.16329
-1.111
-0.940824
-1.14076
-1.13094
-1.13666
-1.13356
-0.935236
-1.13666
-1.13359
-1.13793
-1.13208
-0.932608
-1.1401
-1.12915
-1.14028
-1.12777
-0.927227
-0.934445
-0.9359
-0.935989
-0.93781
-0.93433
-1.14376
-1.12924
-0.950547
-1.13896
-1.12756
-1.14637
-1.12181
-0.945617
-1.14311
-1.09749
-1.22193
-0.938071
-1.38233
-0.839963
-0.803716
-0.81736
-1.08151
-0.878255
-0.78178
-1.14249
-0.765275
-1.10015
-1.14105
-0.764413
-1.12381
-1.13478
-0.762741
-1.13284
-1.13531
-0.76242
-1.12962
-1.12833
-0.763004
-1.13412
-1.1283
-0.764417
-1.13179
-1.12004
-0.763858
-1.12177
-0.859628
-0.82881
-1.03252
-0.901465
-1.00463
-1.04179
-1.16159
-1.17367
-1.16302
-1.16979
-1.13439
-1.1367
-0.94711
-1.1386
-1.1379
-1.13535
-0.9444
-1.13196
-0.938741
-0.888185
-0.891323
-0.792437
-0.923963
-0.896898
-0.860408
-1.00304
-0.995749
-0.9855
-0.994645
-0.772396
-1.25861
-0.697078
-0.935752
-0.993497
-0.9709
-0.974884
-1.00299
-0.987876
-0.984741
-1.00435
-0.97472
-1.04077
-0.914873
-1.02983
-1.03323
-1.16758
-1.16628
-1.1705
-1.1628
-1.13636
-1.13425
-0.949727
-1.13718
-1.14013
-1.1361
-0.948403
-1.13552
-0.936189
-0.887896
-0.887802
-0.788678
-0.920727
-0.910683
-0.871856
-0.920704
-0.890381
-0.854893
-1.02717
-0.914015
-0.789632
-0.996248
-1.00083
-0.989708
-0.989513
-0.93367
-0.90634
-0.899931
-0.790594
-0.985317
-0.972473
-1.11371
-0.939403
-1.14094
-1.13892
-1.13188
-0.945836
-1.13001
-0.934922
-1.13672
-1.13556
-1.13386
-0.94935
-1.13284
-0.933282
-1.13601
-1.13607
-1.13365
-0.950908
-1.13355
-0.932128
-1.13665
-1.13771
-1.13203
-0.952189
-1.13328
-0.930502
-1.13738
-1.14067
-1.12839
-0.952873
-1.13278
-0.928022
-1.13463
-1.14241
-1.12524
-0.94899
-1.13329
-0.922732
-1.11292
-1.12361
-0.983496
-0.96792
-0.983655
-0.802512
-0.826543
-0.79429
-0.752583
-1.07839
-0.7683
-1.0371
-0.852822
-0.817175
-1.06782
-1.09487
-0.920402
-0.970699
-0.970647
-0.978392
-0.998496
-0.979177
-0.98152
-1.00512
-0.977294
-1.00498
-0.983187
-0.976118
-0.9788
-0.982877
-0.991381
-0.979476
-0.980334
-0.745915
-1.01879
-0.90173
-0.937793
-0.942181
-0.960324
-0.992296
-1.14955
-0.866632
-1.06782
-1.0544
-1.06576
-1.0815
-0.847267
-1.0644
-1.06822
-1.06315
-1.15064
-0.777548
-0.782663
-0.78128
-0.780038
-0.777531
-0.774779
-1.15237
-0.780029
-0.779209
-0.779482
-1.15243
-0.781331
-1.15728
-1.15861
-1.15621
-1.02576
-1.02392
-0.951257
-0.938094
-0.935552
-0.935856
-0.935935
-0.935487
-0.887259
-0.788612
-0.917417
-0.907324
-0.867645
-1.0353
-1.02984
-1.18072
-1.14429
-1.20512
-0.924237
-0.996026
-0.849679
-1.04466
-0.922518
-0.97929
-0.999536
-0.973405
-0.970623
-0.97161
-1.00737
-0.994139
-0.979032
-0.929808
-0.890723
-0.89901
-0.934836
-0.737592
-0.807694
-1.09261
-0.989524
-1.03649
-1.06259
-0.703823
-0.878527
-0.926613
-1.09492
-0.729438
-0.915219
-0.93174
-1.1002
-0.732373
-0.903717
-0.942685
-1.09611
-0.746179
-0.892863
-0.997898
-1.36319
-1.01739
-0.992759
-1.24817
-1.20987
-0.985378
-0.745666
-1.07423
-1.01005
-0.945886
-0.95757
-0.950099
-0.715409
-0.980394
-1.10041
-0.789118
-1.05524
-0.811007
-0.840914
-1.13616
-1.07808
-0.872855
-1.14396
-1.1108
-0.89656
-1.13729
-1.12495
-0.899295
-1.13394
-1.12899
-0.901061
-1.13197
-1.13043
-0.900607
-1.13176
-1.13069
-0.902478
-1.12997
-1.13148
-0.887516
-1.12644
-1.11533
-0.865321
-1.07406
-0.911331
-1.04859
-0.992601
-1.05944
-1.23282
-1.20446
-0.903656
-1.16926
-0.893896
-1.12184
-1.02903
-0.741694
-0.950943
-0.984887
-1.14689
-0.939239
-0.98662
-0.987878
-0.998111
-0.989122
-0.99167
-0.988123
-0.985778
-0.920127
-0.893039
-0.857104
-1.03896
-1.03959
-0.917493
-0.91523
-0.975643
-0.992133
-1.13703
-1.13836
-0.937036
-1.13323
-1.13537
-0.951106
-1.13377
-1.13596
-0.952272
-1.13327
-1.13687
-0.952675
-1.13169
-1.1355
-0.948727
-1.12948
-0.994423
-1.00348
-0.982803
-0.988541
-0.97701
-0.972486
-0.974452
-0.977004
-0.979837
-0.983968
-0.992579
-0.982566
-0.983521
-0.741425
-0.98489
-0.93879
-0.98775
-0.986711
-0.997752
-0.988944
-0.985195
-0.982677
-0.980247
-0.978167
-0.980553
-1.02394
-1.01814
-0.74318
-1.32613
-0.999864
-0.959681
-0.932982
-1.10019
-0.73363
-0.735415
-0.805003
-1.14711
-0.767545
-0.779116
-0.794195
-1.15365
-0.771049
-0.782605
-0.787321
-1.14881
-0.787404
-0.800914
-0.869641
-1.44932
-1.03108
-1.00667
-1.01147
-1.00236
-0.849577
-0.818743
-0.87283
-1.44397
-0.86355
-0.865161
-1.15133
-0.959021
-0.956135
-0.936019
-0.995433
-0.712412
-0.985433
-0.986182
-0.726254
-1.00067
-0.947227
-0.955685
-0.957235
-1.16154
-1.15765
-1.16796
-1.15209
-0.956665
-0.902372
-0.982264
-1.15311
-0.966146
-0.733064
-1.02595
-0.900211
-0.731814
-1.22597
-0.676624
-0.934832
-0.819458
-1.0069
-1.01324
-0.846506
-1.03714
-1.02754
-0.87081
-1.03107
-1.03767
-0.85354
-1.03822
-1.03028
-0.874503
-1.02981
-1.03938
-0.851956
-1.03835
-1.03171
-0.872931
-1.02675
-1.04187
-0.849828
-1.01499
-1.0221
-0.830793
-0.952175
-0.694531
-1.25432
-0.90254
-0.773242
-1.43217
-1.01562
-1.06569
-1.39904
-1.00711
-1.04818
-1.37497
-1.00003
-1.02915
-1.38882
-1.01946
-1.00585
-1.39449
-0.748101
-0.959247
-1.15011
-0.946176
-0.954799
-1.16073
-0.93096
-1.11218
-1.11273
-0.939379
-1.13828
-0.916321
-1.1355
-1.21422
-0.789888
-1.21672
-0.762072
-1.21366
-0.788607
-1.21422
-0.761405
-1.21415
-0.788322
-1.21406
-0.761293
-1.21398
-0.788405
-1.21331
-0.761646
-1.21589
-0.789279
-1.2133
-0.762497
-1.21961
-0.790901
-1.20227
-0.760661
-0.896228
-1.14833
-1.12151
-0.943534
-1.16698
-0.910822
-1.16684
-1.13255
-0.938947
-1.16703
-0.912018
-1.16557
-1.13438
-0.937754
-1.16586
-0.912041
-1.16658
-1.13509
-0.937282
-1.16728
-0.912243
-1.1654
-1.1361
-0.937944
-1.16673
-0.912683
-1.16655
-1.13799
-0.939436
-1.16996
-0.912497
-1.16615
-1.14317
-0.945168
-1.15581
-0.901058
-1.2003
-1.15389
-0.962011
-0.869828
-0.835825
-0.733918
-0.994111
-1.04998
-0.911496
-1.07441
-0.862965
-0.897122
-0.908953
-0.935814
-0.939893
-0.982186
-1.14734
-0.943703
-0.986033
-0.951296
-1.16719
-0.904103
-1.20425
-0.792594
-1.2213
-0.763669
-0.997036
-0.986983
-0.974525
-1.15478
-1.02405
-1.4342
-0.863131
-1.15173
-0.858818
-0.867334
-1.06661
-1.06179
-1.05353
-1.0625
-1.06902
-1.4429
-1.02512
-0.954618
-0.939238
-0.940547
-0.943298
-1.14222
-1.14379
-0.944807
-0.989267
-0.981551
-0.975388
-1.15341
-0.931392
-1.11404
-1.13897
-0.946012
-1.13084
-1.13572
-0.949561
-1.02835
-0.937885
-0.938855
-0.938175
-0.938227
-0.935794
-0.938066
-0.938016
-0.937399
-0.936885
-0.93566
-0.938275
-0.939492
-1.11458
-1.13909
-1.22086
-1.21415
-1.21601
-1.21345
-0.762365
-1.13182
-0.789349
-1.13021
-0.763897
-1.13291
-0.792369
-1.1267
-0.886342
-0.851444
-1.03894
-0.912592
-1.02945
-1.16855
-0.939356
-1.13737
-0.945852
-1.13416
-1.13555
-0.937449
-1.13405
-0.949292
-1.13353
-1.13401
-0.935251
-1.13352
-0.948877
-1.13436
-1.13442
-0.933872
-1.13489
-0.917348
-1.13585
-1.1341
-0.915855
-1.13937
-1.11288
-0.903822
-1.00266
-1.00317
-0.998695
-0.999644
-1.00001
-0.999784
-0.998734
-1.00227
-1.15398
-1.14251
-0.796798
-0.790319
-0.794727
-0.861381
-1.44196
-1.02532
-1.02601
-1.42946
-0.860891
-0.865981
-1.06865
-1.06594
-1.12508
-1.06519
-1.435
-1.0238
-0.951191
-1.16836
-0.904459
-1.00131
-0.982159
-1.15637
-1.15036
-0.779283
-0.776716
-1.15242
-0.774137
-0.789863
-1.15199
-0.982667
-0.940495
-0.89146
-0.945381
-1.3919
-1.20235
-0.962395
-1.15219
-0.928423
-1.12174
-1.11055
-0.943173
-1.13843
-0.945489
-1.12973
-0.937017
-1.13459
-0.948289
-1.13345
-1.13251
-0.934035
-1.13513
-0.917724
-1.13553
-1.13509
-0.917579
-1.13539
-0.93585
-0.935964
-0.935982
-0.935755
-0.938316
-0.982086
-1.15632
-1.15017
-0.960521
-1.00522
-0.982752
-1.00122
-0.981833
-0.960466
-1.00499
-0.938809
-0.940665
-0.936953
-0.936485
-0.937578
-0.934865
-0.985187
-0.982598
-0.980253
-0.983107
-0.980312
-0.9087
-0.88984
-0.893139
-0.900168
-0.734121
-1.01918
-0.750449
-1.35932
-0.981288
-0.958453
-0.960317
-1.11287
-0.986042
-1.03286
-0.981108
-1.34965
-0.967005
-0.958061
-0.931447
-1.09553
-0.731927
-0.74531
-0.812567
-1.14076
-0.764289
-0.790928
-0.804554
-1.14708
-0.767732
-0.792116
-0.80005
-1.14227
-0.785669
-0.805665
-1.16287
-0.998848
-0.933486
-0.92625
-1.13373
-1.2089
-0.918687
-1.2218
-0.763951
-0.915391
-1.18294
-0.935649
-1.12326
-1.14869
-0.936599
-1.10066
-1.18665
-1.134
-1.0516
-0.837417
-0.958378
-0.89023
-1.10833
-1.17189
-1.15382
-1.11857
-0.9405
-1.10888
-0.932094
-1.11458
-0.940277
-1.10907
-0.932836
-1.11559
-0.942874
-1.10947
-1.17468
-1.14798
-0.956565
-0.848273
-1.00936
-1.15415
-0.845356
-1.0129
-1.03052
-0.99103
-0.864384
-0.863352
-0.868613
-1.43526
-0.869719
-0.958352
-1.37618
-1.03425
-0.994279
-0.844793
-0.858436
-1.16006
-0.797234
-0.796727
-1.15673
-0.984709
-1.00573
-1.00125
-0.998122
-0.999621
-1.00006
-0.999792
-0.998708
-1.0022
-1.15398
-1.1428
-0.774117
-0.777298
-1.05763
-1.0535
-1.06536
-1.37166
-1.04732
-0.849044
-0.854273
-0.954857
-0.866696
-0.846958
-1.01537
-1.43264
-1.06576
-1.39174
-1.00665
-1.39828
-1.12514
-1.08246
-1.0662
-1.42989
-0.86099
-0.861546
-1.15211
-0.792806
-0.7923
-0.86172
-0.860888
-0.865364
-1.02087
-1.4071
-1.02144
-1.44135
-1.0247
-1.02573
-0.945454
-0.793066
-0.898903
-0.905874
-0.936178
-0.989465
-0.98909
-1.00071
-0.991993
-0.988392
-0.986024
-0.983748
-0.981754
-0.97855
-0.982934
-0.981795
-1.01442
-0.747737
-0.819752
-0.824399
-1.41515
-0.958616
-0.968831
-0.999073
-1.32253
-0.740611
-0.822707
-0.825201
-0.753031
-0.833028
-0.848246
-1.38988
-0.997423
-1.02982
-0.782503
-0.870316
-0.949036
-0.893306
-0.906693
-0.983889
-1.02571
-1.02331
-0.983208
-0.981589
-1.01212
-1.00627
-1.00017
-0.997386
-0.99657
-0.980691
-0.978374
-0.978093
-0.972625
-0.985921
-0.924242
-0.922123
-0.921174
-0.920228
-0.918401
-0.914079
-1.00698
-0.99123
-0.991835
-0.988847
-0.985457
-0.982854
-0.98231
-0.980251
-0.995146
-0.99512
-1.1398
-1.22093
-1.21391
-1.21619
-1.21333
-0.917429
-1.13636
-1.13498
-0.915847
-1.03982
-0.938119
-0.93941
-1.11396
-1.02416
-1.43441
-1.0007
-0.951397
-0.981843
-1.00131
-1.15422
-0.799885
-0.791319
-1.06967
-1.06106
-1.06901
-1.0572
-0.773401
-1.1525
-1.05763
-1.06583
-0.867946
-1.08252
-1.05807
-1.05278
-1.06504
-1.06807
-1.12532
-1.06592
-1.06848
-1.06996
-1.08324
-0.798799
-0.867001
-0.954771
-1.15415
-0.854762
-0.848639
-1.00142
-0.98301
-1.15649
-1.14987
-0.960528
-0.983005
-0.940683
-0.891491
-0.792572
-0.888298
-0.789633
-0.935497
-0.935065
-0.935703
-0.93335
-1.13574
-1.13608
-1.215
-1.21239
-1.2157
-1.21108
-0.918818
-1.13632
-1.13572
-0.917956
-1.04339
-0.887767
-0.788384
-0.887452
-0.787837
-0.935653
-0.932174
-0.937673
-0.933729
-0.937227
-0.932474
-0.9357
-0.93361
-0.884593
-0.788524
-0.930751
-1.0433
-1.04412
-1.04388
-1.04322
-1.03987
-1.02335
-1.00417
-1.00231
-1.02726
-1.00835
-1.00383
-1.02815
-1.00948
-1.00401
-1.0025
-1.02443
-1.02357
-1.00412
-1.00751
-1.00531
-1.00721
-1.00765
-1.00425
-1.02822
-1.00937
-1.0037
-1.0271
-1.00784
-1.00162
-1.02198
-1.03776
-0.931067
-1.11632
-0.740397
-1.16882
-0.996721
-0.980176
-1.1454
-0.787097
-1.15922
-1.06786
-1.03624
-0.977311
-1.34013
-0.969297
-0.962641
-0.903601
-1.07027
-1.08041
-0.851094
-0.96312
-1.07167
-1.07957
-0.989095
-0.968398
-1.3323
-0.981547
-1.03922
-1.0454
-1.04802
-1.03974
-0.977402
-1.07016
-0.944733
-0.942827
-1.09628
-0.746729
-0.731008
-0.800169
-1.14255
-0.785064
-0.773972
-0.787401
-1.1493
-0.786016
-0.777463
-0.780496
-1.14422
-0.801699
-0.869875
-1.43856
-1.05861
-0.992828
-0.866989
-0.862092
-1.15666
-0.983897
-1.0055
-1.00208
-1.00359
-1.00412
-1.0038
-1.00235
-1.00516
-1.02423
-1.03978
-0.916618
-1.1352
-1.13585
-0.918142
-1.13567
-1.13559
-1.21473
-1.21237
-1.21535
-1.21097
-0.76155
-1.12981
-0.787413
-1.13249
-0.761646
-1.13143
-0.788046
-1.13226
-0.899856
-0.862781
-1.03433
-0.912487
-1.03387
-1.16544
-0.936763
-1.13391
-0.946108
-1.13625
-1.1352
-0.936629
-1.13132
-0.948193
-1.13479
-0.936527
-1.13018
-0.945351
-1.13946
-1.14044
-0.939325
-1.11506
-0.932262
-1.11101
-1.11338
-0.940675
-1.13894
-1.13978
-1.10991
-0.931808
-0.983091
-0.938888
-0.936804
-0.937515
-0.937815
-0.937887
-0.93773
-0.888187
-0.887592
-0.935821
-0.933387
-0.935706
-0.932107
-1.13542
-1.1358
-0.919355
-1.13492
-1.13691
-1.2178
-1.2096
-1.22111
-1.20914
-0.763885
-1.1115
-0.787195
-1.13774
-0.762224
-1.12567
-0.787188
-1.13451
-0.898591
-0.860912
-1.02986
-0.914083
-1.03754
-1.15467
-0.935771
-1.12334
-0.941635
-1.14803
-1.13444
-0.940627
-1.11771
-0.92506
-1.1012
-1.18624
-0.936831
-1.13373
-1.05071
-0.957693
-0.88964
-0.957583
-0.98981
-0.836545
-0.872172
-1.14419
-1.07866
-0.784137
-0.904244
-0.911437
-0.91583
-0.91776
-0.9188
-0.919813
-0.92198
-0.897052
-0.907208
-1.05008
-0.911514
-0.694379
-0.836115
-0.951906
-0.868765
-1.25522
-0.771621
-0.899566
-1.15216
-1.01082
-0.907286
-0.956538
-1.15235
-0.931213
-1.10929
-0.940612
-1.1378
-0.945308
-1.13142
-1.1294
-0.93538
-1.13545
-0.917701
-1.1357
-0.996657
-0.981861
-1.13663
-0.98021
-1.14142
-0.992047
-0.991024
-0.97813
-0.98088
-0.940498
-1.01936
-0.994292
-0.937091
-0.992434
-0.832095
-1.0197
-0.901416
-1.15405
-0.945166
-1.14216
-0.943689
-1.13258
-1.13357
-0.939045
-1.13513
-0.948549
-1.13301
-0.93577
-1.13408
-0.948993
-1.13399
-1.13365
-0.933593
-1.13392
-0.982551
-0.982642
-1.13496
-0.981161
-0.980139
-0.983532
-0.988138
-1.14359
-0.981896
-1.17285
-0.98497
-0.971327
-1.0161
-1.00277
-0.995635
-0.974511
-1.16783
-1.0036
-0.864787
-1.03456
-0.912793
-1.16657
-0.937577
-1.13544
-0.946191
-1.13494
-1.13576
-0.93677
-1.133
-0.949198
-1.13432
-0.935425
-1.13255
-0.948086
-1.13513
-1.13574
-0.935153
-1.13013
-0.935673
-1.02705
-1.02783
-1.00923
-1.00441
-1.00408
-1.0026
-1.00541
-1.00415
-1.02331
-1.02715
-1.04301
-0.938002
-0.938222
-0.938183
-1.04333
-1.02803
-1.02799
-1.0094
-1.0083
-1.02841
-1.02456
-0.945863
-1.14051
-0.940397
-1.13961
-1.1307
-0.937142
-1.13581
-1.13637
-1.13017
-1.13039
-0.939165
-1.13585
-1.13813
-1.13375
-1.14314
-0.943106
-1.1394
-1.11346
-1.11009
-1.11103
-1.11255
-0.943033
-1.14208
-1.14011
-0.945859
-1.12989
-0.939127
-1.13752
-1.13626
-0.948958
-1.13272
-0.937667
-1.13649
-1.13498
-1.13487
-1.13536
-0.935953
-1.13354
-1.1332
-0.94895
-1.133
-0.937672
-1.13463
-1.13711
-1.13568
-0.946492
-1.13756
-1.16697
-0.939162
-1.13271
-0.944285
-1.14233
-1.16841
-0.944858
-1.12167
-1.11101
-1.1718
-0.956317
-1.15338
-0.931737
-1.16321
-0.954944
-1.16175
-0.931696
-1.15473
-0.956241
-1.17038
-1.1119
-1.12062
-0.92889
-0.983042
-0.97504
-0.98031
-0.750725
-1.01577
-0.96558
-0.989035
-0.99071
-0.746714
-0.97757
-0.944134
-0.963892
-1.01696
-0.750581
-1.40018
-1.03111
-1.00465
-0.865616
-1.15027
-0.97613
-0.946405
-0.948055
-0.974438
-0.910006
-1.0089
-1.15209
-0.846456
-1.03098
-1.39977
-1.00528
-1.42966
-1.02581
-0.940741
-0.939515
-0.937736
-0.938389
-1.02913
-0.9497
-1.13404
-0.935408
-1.13398
-1.13472
-1.13345
-1.13693
-0.936958
-1.13405
-1.13583
-0.946902
-1.13563
-1.16697
-0.937444
-1.13443
-1.16678
-0.913415
-1.03529
-1.03483
-0.863899
-1.03512
-1.03487
-0.864035
-1.03425
-1.03592
-0.862001
-1.03084
-1.03851
-0.858179
-1.01195
-0.971548
-0.999947
-0.973465
-1.00298
-0.974012
-1.00353
-0.974083
-1.00387
-0.974129
-1.00428
-0.86548
-1.0307
-1.16849
-0.91316
-1.03913
-1.01703
-0.852733
-1.00321
-0.974832
-0.971378
-1.02008
-0.902029
-1.20255
-0.961923
-1.15242
-0.928985
-0.982995
-0.983643
-0.994531
-0.772369
-0.90123
-1.25473
-0.694521
-0.95278
-0.832273
-0.992123
-0.937171
-0.836496
-0.86905
-1.01023
-0.90882
-1.15211
-0.940567
-0.980025
-0.975119
-0.987805
-0.994236
-0.987194
-0.984253
-0.983046
-0.936659
-1.13414
-1.16782
-1.16579
-1.13529
-0.990658
-0.99016
-0.989682
-0.983959
-0.980691
-0.977336
-0.9759
-0.990917
-0.946867
-1.13517
-0.936816
-1.13154
-1.13736
-1.13116
-1.17159
-0.9362
-1.13669
-1.1634
-0.913646
-0.761555
-0.997707
-0.984597
-0.987592
-1.00155
-1.13733
-1.2183
-1.20966
-0.787716
-0.885943
-0.887015
-0.787642
-0.935271
-0.930966
-1.13549
-0.934137
-0.929727
-1.13441
-0.919974
-1.04263
-0.937891
-0.937132
-1.03856
-1.0226
-1.02706
-1.00793
-1.00929
-1.029
-1.00388
-1.00696
-1.00382
-1.00441
-1.02924
-1.0282
-1.02741
-1.00827
-1.02801
-1.04291
-1.04323
-0.918608
-0.997614
-0.997032
-0.98283
-0.984745
-0.990498
-0.98192
-0.980597
-0.97452
-0.987151
-0.935368
-0.997019
-0.987063
-0.984769
-0.986838
-0.989414
-0.994908
-0.992074
-0.989546
-1.00295
-0.999296
-1.13342
-1.13737
-0.919062
-1.13215
-1.00817
-0.992874
-0.987186
-0.992159
-0.892353
-0.950381
-1.21062
-1.24757
-0.74558
-0.997586
-1.36346
-1.0171
-0.849815
-1.00219
-1.01327
-0.866376
-0.868947
-1.45135
-1.03713
-1.00487
-1.27784
-1.10246
-1.10389
-1.04463
-1.06714
-0.790521
-1.16118
-0.981703
-1.00376
-1.00171
-1.02807
-1.02926
-1.02816
-0.937534
-0.935248
-0.930758
-0.934053
-0.929443
-0.885664
-0.886742
-0.887218
-1.16723
-1.16299
-0.936267
-1.13099
-0.945324
-1.13968
-1.13371
-0.937282
-1.1277
-0.945015
-1.13113
-0.936985
-0.937613
-1.02855
-1.04311
-1.04238
-0.92044
-1.02712
-1.00784
-1.00921
-1.00934
-1.0287
-0.937838
-0.937249
-0.939108
-1.1415
-0.981233
-1.13043
-0.97549
-1.11384
-1.1645
-0.943878
-0.977085
-0.992091
-0.73982
-0.982411
-0.981363
-0.983283
-0.988523
-1.13822
-0.988378
-0.973702
-1.03388
-1.00314
-0.985376
-0.973583
-1.16642
-1.00274
-0.863004
-1.03332
-0.912843
-1.03491
-0.973454
-1.00217
-0.984049
-0.984165
-0.988946
-1.13702
-0.984288
-1.13537
-0.978757
-0.989158
-1.1367
-0.984279
-1.13421
-0.979015
-0.989195
-1.13697
-0.972933
-1.17099
-0.999195
-0.857132
-1.01103
-0.914682
-1.18239
-0.971154
-0.985233
-0.990136
-0.976786
-0.951992
-0.893511
-0.938501
-0.921309
-0.97927
-0.988738
-1.13671
-0.981331
-0.988429
-0.97699
-0.961286
-0.940171
-0.975832
-0.98131
-0.983253
-1.13545
-1.13361
-0.980725
-0.979991
-0.983714
-0.991478
-0.980871
-0.967723
-0.940235
-0.975355
-0.980267
-0.981682
-1.13274
-0.996117
-0.996259
-0.996409
-0.918783
-0.919717
-0.921706
-0.883737
-0.911255
-0.918802
-0.918654
-0.919183
-0.996032
-0.985213
-0.984441
-0.980712
-0.933426
-0.726848
-0.813374
-0.91942
-0.976997
-0.991438
-0.986529
-0.97972
-0.976661
-0.975767
-0.976895
-0.98017
-0.987402
-0.986026
-0.975129
-0.977729
-0.977759
-0.943988
-1.15027
-0.940143
-0.994927
-0.983358
-0.993837
-0.990101
-0.944317
-1.13217
-1.13435
-0.93809
-1.02456
-1.00413
-0.96059
-1.02344
-1.03995
-0.891739
-0.945573
-1.39203
-1.23327
-0.763705
-0.888537
-1.04314
-1.02841
-1.00826
-1.02724
-1.02792
-1.00933
-1.02912
-0.938316
-0.938308
-0.938463
-0.938172
-1.02801
-0.948635
-1.13403
-0.935531
-1.13255
-1.13646
-0.936578
-1.12924
-1.13187
-1.1342
-1.13635
-0.937363
-1.12745
-1.13726
-1.13345
-0.946106
-1.14022
-1.15508
-0.914941
-0.762286
-0.990932
-0.982923
-0.984073
-0.988788
-0.990247
-0.957638
-0.951869
-0.893551
-0.975472
-0.938539
-0.920974
-0.980221
-0.990288
-0.978382
-0.976136
-0.986204
-0.987291
-1.1349
-1.13417
-1.13521
-1.13428
-0.937479
-1.13512
-1.13316
-0.948775
-1.1351
-0.938866
-1.13282
-1.13095
-0.94588
-1.13857
-1.14338
-1.14065
-0.943933
-1.03995
-1.02471
-1.00234
-1.0048
-1.00279
-1.00367
-0.934305
-0.927313
-1.12249
-0.799156
-0.734015
-1.1594
-1.06641
-1.06725
-0.977698
-1.04083
-1.04847
-1.06594
-0.777781
-1.14957
-0.958671
-1.15172
-1.15774
-1.1519
-1.15128
-1.12162
-0.892437
-1.04574
-1.33291
-0.754553
-0.985554
-1.11746
-1.03909
-1.10295
-1.02658
-0.993035
-1.29399
-1.08725
-0.80551
-0.871942
-1.44476
-0.86439
-1.15536
-0.802563
-1.15789
-0.960184
-1.00712
-1.00339
-1.02262
-1.02285
-1.03833
-1.02362
-1.02757
-1.02362
-1.00413
-1.00804
-1.02822
-1.02903
-1.04336
-0.938173
-0.937989
-0.937458
-1.02398
-0.939079
-0.884837
-0.784595
-1.20937
-0.774776
-0.991576
-1.10959
-0.94069
-0.985697
-0.988942
-1.12141
-0.795665
-0.730579
-1.16135
-0.981635
-0.960245
-1.15121
-0.773752
-1.15157
-1.06639
-1.0666
-1.06917
-0.946393
-1.04538
-1.33207
-0.985406
-1.03936
-1.04482
-1.04615
-1.04996
-1.0663
-0.782569
-1.15155
-1.08348
-1.04671
-1.08171
-1.06694
-0.778752
-1.1536
-0.961775
-1.15792
-1.15728
-1.02821
-0.938975
-0.939541
-1.02848
-1.02382
-0.891254
-0.94136
-0.939841
-0.983328
-1.02345
-1.02765
-1.02967
-0.94535
-1.1988
-0.965137
-0.973111
-0.986021
-0.98368
-0.982985
-0.98393
-0.986755
-0.990643
-1.136
-1.13421
-0.946587
-0.888191
-1.04346
-0.946902
-1.13484
-1.13646
-0.937172
-1.13597
-1.13412
-1.13371
-0.949698
-1.1345
-0.98739
-0.97596
-0.979205
-0.98618
-0.986335
-0.984116
-0.987275
-0.974663
-0.975417
-0.978375
-0.983964
-1.14099
-1.13741
-1.14144
-0.984185
-0.986224
-0.987336
-0.949619
-0.990826
-1.13681
-1.13553
-0.94678
-0.88802
-0.887861
-1.04294
-0.946283
-1.13679
-1.13805
-0.990262
-0.973646
-0.973837
-0.974007
-0.974174
-0.97474
-0.971076
-0.936945
-0.992268
-1.00352
-1.005
-1.00403
-0.990959
-1.00431
-1.00383
-1.00429
-0.989468
-0.98193
-0.928695
-0.97843
-0.985262
-0.985152
-0.97382
-0.959923
-0.939577
-0.977707
-0.974225
-0.959843
-0.942938
-0.973487
-0.972072
-0.938588
-0.967834
-0.888238
-0.945351
-1.13361
-0.942301
-1.0006
-0.98008
-1.15523
-1.08428
-1.08713
-1.11722
-1.02627
-1.10258
-1.10388
-1.1024
-1.08458
-1.04404
-1.09946
-1.29265
-1.10266
-1.10495
-1.18417
-1.15461
-1.29923
-1.30044
-1.28024
-1.29648
-1.29441
-0.954792
-0.958585
-1.00347
-1.16289
-0.81943
-0.954729
-0.985675
-0.949615
-0.925531
-1.13787
-0.937887
-1.13455
-0.908684
-0.887807
-0.913097
-0.885902
-0.895887
-0.900379
-1.16643
-1.13269
-1.13668
-0.984387
-1.2945
-1.13737
-0.995866
-0.761578
-0.913206
-0.735066
-1.15391
-0.764285
-0.763736
-0.762235
-0.902234
-0.865032
-0.935165
-0.9001
-0.959487
-0.951344
-0.75468
-0.931252
-1.15208
-0.791276
-1.06473
-0.751492
-1.11502
-0.933954
-0.956159
-0.880039
-0.851011
-0.742463
-0.931214
-0.932376
-0.936956
-0.788336
-0.938401
-1.13616
-0.934498
0.992785
0.98109
0.991975
0.985248
0.979
0.976329
0.975659
0.976809
0.979962
0.986777
0.97331
0.968083
0.720777
1.01663
1.1523
0.905566
1.00645
0.955618
1.19695
0.895831
1.14905
1.01094
0.848223
1.03631
1.02803
0.863603
1.0356
1.03205
0.864981
1.03532
1.03294
0.861094
1.03574
1.03232
0.862659
1.03297
1.03462
0.86176
1.02781
1.03896
0.851672
1.01275
1.02001
0.830733
0.949852
0.693108
1.25211
0.772156
0.900751
1.01448
0.751415
0.963381
0.991578
0.74852
0.984131
0.982275
0.754093
0.995106
0.953804
0.747627
0.984865
1.18285
0.820277
1.09934
1.03597
0.954309
0.95907
1.13678
0.950165
0.95497
0.954867
1.14617
0.956752
0.953367
0.938023
1.14756
0.974827
0.954536
0.905166
1.14993
1.00664
0.960224
0.866845
0.833498
0.731907
0.909296
1.07163
1.11377
1.12373
1.13014
1.12792
1.1296
1.12968
1.12894
1.13096
1.13016
1.13078
1.13024
1.13101
1.12842
1.12908
1.12083
1.10392
1.04914
0.861318
0.977504
0.997274
1.02826
0.956374
0.720965
1.2905
0.997877
1.05672
0.993903
1.03176
1.15464
1.18278
1.10058
1.04947
1.0537
1.05003
1.10046
1.29071
1.05666
0.846405
0.857352
0.957248
0.869852
0.84687
1.01045
1.30114
1.03168
1.37549
0.993775
1.15463
0.977322
0.997338
1.05089
1.22776
1.20234
0.903775
1.16993
0.890806
1.12195
1.02884
0.720347
0.955438
0.98799
1.15416
1.11527
1.14081
1.131
1.13627
1.1335
1.13556
1.13352
1.13667
1.13193
1.13901
1.12936
1.14032
1.12725
1.12499
0.97278
1.41118
0.988658
0.969386
1.11281
1.13403
0.949198
1.1357
1.13298
0.952102
1.13757
1.13316
0.951529
1.13784
1.13257
0.950611
1.13785
1.1319
0.949306
1.13738
1.13061
0.946195
1.14033
1.11244
0.932498
1.16419
0.942681
1.14961
0.984975
0.709756
0.991581
0.947157
1.15209
0.961469
0.719512
1.02052
0.905301
1.17336
1.11214
1.14202
1.13797
1.13419
1.14474
1.12915
1.14792
1.13353
1.13267
1.13917
1.13006
1.14195
1.1202
1.13416
0.979653
1.41583
1.01732
0.960956
1.07394
1.23183
0.917594
1.21517
1.2121
0.918511
1.21365
1.21216
0.918092
1.22907
1.10511
0.948691
1.15979
1.12039
0.947571
1.14696
1.12839
0.94446
1.14396
1.12015
0.928363
1.14893
1.00873
1.15227
0.900379
0.732797
1.22685
0.852151
1.19518
1.15263
0.896366
1.01317
0.93467
0.814291
0.677453
0.8635
0.727406
1.05055
1.10785
0.760985
1.20356
1.11377
0.902902
1.2271
1.17072
0.890392
1.12173
1.05215
0.787189
0.944876
1.37621
0.993562
1.15453
1.03183
1.30119
1.01077
0.847235
0.957485
0.869846
0.805556
1.15998
0.857309
0.868102
0.800858
0.798042
1.15692
0.862954
0.86242
0.797247
0.801025
1.15685
0.868626
0.856921
0.804185
0.870171
1.15971
0.957255
0.846621
1.03199
1.01041
1.30167
1.03189
1.15456
0.992797
1.05703
1.28813
1.00131
1.02712
1.27643
1.02642
1.00206
1.28773
1.05664
0.846726
1.09639
1.18207
1.10053
1.43899
1.02804
0.951608
0.989303
0.945028
1.16525
1.11308
1.11292
1.11619
0.932359
1.16572
1.15346
0.990202
1.15016
0.943718
0.955838
1.03019
1.45199
1.10428
1.10059
1.4386
1.02804
0.951544
0.889069
1.05242
1.22738
1.20291
0.760919
1.10481
0.787692
1.0488
0.727739
0.996187
1.12182
1.03241
0.951064
0.988965
0.987896
1.15007
0.952001
1.03139
0.996492
0.976432
0.867417
0.892668
0.843714
0.813734
0.979409
0.918381
0.971148
0.979036
0.993715
1.00055
0.857608
1.00662
1.03661
1.16335
1.17463
1.15318
1.19149
0.907684
1.05181
1.0293
0.910615
0.762475
1.12751
1.13969
0.759597
1.21213
1.13683
0.915919
1.21157
1.13452
1.13554
0.914913
1.21395
0.788897
0.888732
0.891062
0.94373
0.790809
1.12926
0.893281
1.11633
0.923008
0.924082
0.894936
0.860342
1.00612
0.97454
0.965113
0.980252
0.978113
0.97001
0.936358
0.942375
0.97748
0.956223
1.15425
1.16546
1.1122
0.932897
1.11464
0.943596
1.14092
1.14119
1.13254
0.946742
1.12907
0.93946
1.13975
1.13556
1.13601
0.95008
1.12863
0.937552
1.14136
1.13456
1.13602
0.951504
1.13021
0.934784
1.13935
1.13638
1.13308
0.951795
1.13236
0.930936
1.13718
1.13885
1.12945
0.951731
1.13197
0.929129
1.13484
1.14038
1.127
0.948916
1.13394
0.926681
1.11165
1.1227
0.982479
0.969544
0.987398
0.801954
0.834797
0.80516
0.8357
0.908218
1.41503
0.965679
0.886203
1.15803
0.886445
1.08986
0.76742
1.10491
1.13607
0.759579
1.12998
1.13825
0.767517
1.08297
1.28979
0.987062
1.13047
0.904103
0.907904
0.888419
0.94189
1.10874
1.05895
1.0175