/*--------------------------------*- C++ -*----------------------------------*\
| =========                 |                                                 |
| \\      /  F ield         | OpenFOAM: The Open Source CFD Toolbox           |
|  \\    /   O peration     | Version:  2306                                  |
|   \\  /    A nd           | Website:  www.openfoam.com                      |
|    \\/     M anipulation  |                                                 |
\*---------------------------------------------------------------------------*/
FoamFile
{
    version     2.0;
    format      ascii;
    arch        "LSB;label=32;scalar=64";
    class       volScalarField;
    location    "2.9";
    object      gradTx;
}
// * * * * * * * * * * * * * * * * * * * * * * * * * * * * * * * * * * * * * //

dimensions      [0 -1 0 1 0 0 0];

internalField   nonuniform List<scalar> 
5322
(
-0.0184809
0.000938103
0.00101746
6.91202e-07
-6.88573e-05
-6.26914e-05
-4.60139e-05
-3.4119e-05
-2.72984e-05
-1.96007e-05
-1.42569e-05
0.000101578
0.000149859
-0.00205394
-4.05218e-05
0.00373023
-0.0029185
-2.50808e-06
-0.0023291
0.00185379
-0.00249428
0.00282586
-0.00299068
0.0039847
-0.00411372
0.00519128
-0.00522872
0.00699973
-0.00700604
0.0088247
-0.00838469
0.0117395
-0.00870175
0.0160924
0.00118564
0.0231436
0.0163988
-0.00650279
0.0180568
-0.00106822
-0.0171356
0.0171882
-0.00104117
-0.0182778
0.018181
-0.000622983
-0.019425
0.0170867
-0.000407963
-0.0203883
-0.0202274
-0.029092
-0.00955889
0.0185567
-0.00122025
-0.030361
-0.000924506
0.0288753
-0.000349585
-0.0288699
-0.000125805
0.028124
-0.000149858
-0.0283536
2.31968e-05
0.0277428
0.000404692
-0.0280802
0.00143867
0.0231405
0.00128001
-0.0225086
0.0255542
-0.0263533
0.0253603
-0.0258361
0.0258608
-0.0258665
0.0294614
-0.0215386
0.0102033
-0.0153676
-0.0103071
0.0163523
0.0014099
-0.00755547
0.011728
-0.0322852
-0.0104987
0.0359273
-0.00161882
0.000401055
0.000707997
0.00425779
0.0218885
-0.00449204
0.000136291
-0.00174949
0.0120719
-0.0285309
-0.028482
0.0592785
-0.00175442
0.0169265
0.0276218
0.000434679
0.000273544
0.000227081
0.000114934
4.05404e-05
6.75205e-06
-7.54902e-06
-1.81839e-05
-2.93145e-05
3.28024e-05
-1.58284e-05
-0.00121459
-0.00118331
0.000142179
0.000743864
3.45927e-05
0.00111135
-0.00133205
-0.000101976
-0.000323792
0.00206977
0.00169161
0.000457287
0.00132694
0.000844984
0.00063741
0.0014254
0.000704762
0.000757511
0.0014501
0.000613617
0.00120359
0.00164935
0.00186287
7.90149e-05
-0.00137723
6.78813e-05
0.000935325
-0.00114426
-0.00124093
0.000192997
0.000494392
0.000263778
-0.000970299
-0.00106855
0.00021882
0.000299144
0.000366393
-0.00105587
-0.000996294
0.000221013
0.000189102
0.000591392
-0.00113559
0.0014906
-0.00330153
-0.004391
0.00414906
-0.00524911
-0.000248592
-0.00327184
5.05077e-05
0.00304631
-0.000716731
0.00341268
0.00168553
0.00252164
-0.00396109
0.00150582
-0.00341678
0.00247042
0.003214
-0.00430366
0.000228243
-0.00365762
0.00367076
0.00456486
-0.00552181
0.000163856
-0.00462833
0.00510879
0.00624233
-0.00737337
0.000253973
-0.00615617
0.00696068
0.00845936
-0.00990613
0.000348279
-0.00827641
0.00922376
0.0112505
-0.0132086
0.000449356
-0.0110613
0.0118189
0.0145688
-0.0173327
0.000579429
-0.0144965
0.0145651
0.0182716
-0.0220125
0.000783116
-0.0181742
0.016906
0.0210692
-0.00399623
0.0115471
-0.0282616
-0.0288217
0.0595651
-0.00245364
-0.00263221
0.000816239
0.00461936
0.0217809
-0.00338177
0.000357359
-0.00396244
0.0110581
-0.0287496
-0.0283406
0.059206
-0.00223364
0.0169204
0.000111612
0.000441955
0.000271196
0.000150499
6.19223e-05
1.72796e-05
-2.85094e-06
-1.61614e-05
-2.65708e-05
3.25707e-05
-1.49086e-05
0.000958171
-0.0010666
0.00106578
-0.00095962
3.03016e-06
0.000958601
-0.000899641
-2.87164e-06
-0.00110442
1.27181e-06
-0.000956009
1.03815e-06
0.000900331
3.61106e-05
0.00103015
-8.51775e-05
-0.0011166
2.8287e-06
0.00110391
-6.77885e-07
4.40149e-07
0.00199306
-0.00356289
0.00356208
-0.00351775
0.00401033
-0.00453319
0.00536837
-0.00611733
0.00719528
-0.00826788
0.00968633
-0.0110858
0.0129131
-0.0145863
0.0168924
-0.0186851
0.0214843
-0.0228945
0.0260878
-0.0148943
0.000361967
0.0150854
0.000432313
-0.0254101
0.0223092
0.000130159
-0.0208352
0.0182972
8.18325e-05
-0.0163829
0.0143073
5.11601e-05
-0.0125292
0.0108691
3.12641e-05
-0.00939994
0.00809925
2.13397e-05
-0.00697568
0.00599272
1.90803e-05
-0.00518636
0.00446608
1.64684e-05
-0.00385566
4.02954e-06
0.00385996
-0.00446027
-1.6384e-05
-0.00399955
0.00351665
-7.012e-06
-0.0020083
-0.000130253
0.00204104
-0.00369012
0.00385392
-0.00447235
0.00511031
-0.00591794
0.00687985
-0.00794556
0.00929009
-0.0106281
0.012432
-0.0139599
0.0163743
-0.017793
0.0210235
-0.0214848
0.0256535
-0.0147129
-0.00351667
0.00623177
0.000712737
-0.0238742
0.0194937
0.000183703
-0.0190231
0.0164636
-4.64757e-05
-0.0145053
0.0127783
-9.06765e-05
-0.011011
0.00964305
-8.24079e-05
-0.00826826
0.00719647
-8.54048e-05
-0.00614598
0.00538331
-9.86929e-05
-0.0045773
0.00409515
-0.000137267
-0.00340745
0.00289215
4.77195e-05
-0.00100893
0.00170003
0.00280552
6.63287e-06
0.000327379
-0.000515284
0.00149782
-0.00462531
0.00380249
-0.00523565
-0.00352678
-0.00437845
0.000245629
0.00262743
0.00291765
-0.00386972
0.00145133
-0.00345232
-0.000286312
0.000155623
-0.00134767
0.000112114
-5.53508e-05
-0.00141067
8.63024e-05
-0.000271859
-0.00352362
-0.00382207
0.00299414
-0.00424952
-5.72976e-05
0.00441479
-0.0054766
0.00613262
-0.00732778
-0.000229454
0.00836452
-0.00986153
0.0111409
-0.013164
0.000102298
0.0144048
-0.0172104
0.0179499
-0.021546
0.00445855
0.000805419
0.000273073
0.000316202
-6.04224e-05
0.000136548
0.0149265
-0.0176654
0.000690254
-0.0143312
0.0134965
0.018717
-0.0216287
0.0010591
-0.0190138
0.0149328
0.0299571
-0.00274784
0.0012721
-0.0309724
-0.0287495
0.0564972
-0.00377162
0.000633187
0.00112893
-0.0142291
0.0028862
0.00887644
-0.00921793
0.000637951
0.00750269
-0.00671508
3.87611e-05
0.00557223
-0.00521012
-5.22054e-05
0.0039589
-0.00380947
-0.000126719
0.00308008
-0.00275202
-0.000193905
0.00246688
-0.00169607
-0.000242967
0.0024021
0.000872131
0.000628979
-0.000138168
-7.00779e-05
0.00110574
-0.000471773
0.00550423
-0.00669199
0.00761837
-0.0089462
-0.00578529
-0.00753045
0.000257467
0.00500155
0.00629909
-0.00562459
0.000169183
-0.00434125
-0.000106028
-5.72883e-05
4.27148e-07
-6.35679e-05
-6.78254e-05
0.000270602
0.000210842
0.00021509
-0.000627553
-0.000152012
0.00161709
0.00245391
0.00206628
0.000712221
0.00329361
0.00125542
0.000834756
0.00050619
-0.000249182
-0.000855707
-0.00114143
-0.000531164
0.000460564
-0.00084362
6.48672e-05
0.0013459
-0.00121143
0.0103604
-0.0120251
0.0138529
-0.0161468
-0.0105721
-0.0135581
0.00048595
0.00883956
0.0114978
-0.0101466
0.000360817
-0.00781757
-0.00013153
-4.4421e-05
-7.2666e-05
-0.000106197
-0.00026511
6.80221e-06
-5.39452e-05
-0.000185563
4.42185e-05
3.04068e-05
0.00115412
3.74926e-05
-9.22359e-05
-2.43283e-05
2.71756e-05
1.70335e-05
-9.25259e-05
0.000208978
-0.00240208
-6.38668e-05
-7.84494e-06
-6.14016e-06
-3.20201e-05
0.0045423
1.24978e-05
-0.00535585
0.00519713
-0.00597739
-1.2502e-05
0.00614191
2.38254e-05
-0.00717713
0.00700117
-0.00806826
-4.92451e-07
0.0083153
3.70241e-05
-0.00965591
0.00945184
-0.0108116
1.55221e-05
0.0111714
5.58687e-05
-0.0128665
0.0126248
-0.0142073
4.16053e-05
0.0147332
7.23253e-05
-0.0168243
0.0165388
-0.0181366
8.9093e-05
0.0188858
2.93393e-05
-0.0213633
0.0210249
-0.0221125
0.000142765
0.0229707
-0.000183118
-0.0258516
0.025489
-0.0149581
-3.03471e-05
0.0148372
-0.00101139
-0.00232462
-0.00197123
-0.00274691
-0.0288152
0.00630388
0.00452822
-0.00227941
-0.00460751
-0.00170861
-0.0253221
0.00566048
-0.00920786
-0.0130455
-0.00303937
-0.00393644
-0.00493697
-0.00267191
-0.00140441
0.000657699
-0.000791519
-0.00164005
-0.00155427
-0.00108497
-0.000875255
-0.000733986
-0.000165977
0.00191049
0.00212757
0.00210987
0.00242911
0.00310292
0.00295763
0.00224103
0.00225643
0.00150398
-0.00132957
0.00042485
-0.000153851
-0.000107369
0.000385763
-0.00115881
-2.7064e-06
-1.39953e-06
-3.17089e-06
1.28503e-06
-0.000735769
-0.000842252
-0.000836128
-0.00074337
0.000739732
-0.000618532
2.52862e-05
0.00084269
-0.000717297
-0.000718951
2.54112e-05
0.0008384
9.44282e-07
2.16941e-06
2.50149e-06
2.29887e-06
-2.71798e-05
2.77177e-05
-1.28158e-05
-5.93296e-06
7.2308e-06
2.88407e-05
6.8712e-05
8.89337e-05
-1.72704e-05
-0.000355746
0.000293655
-0.000260206
0.00206187
-0.00290264
0.0183539
-0.0212566
0.0240922
-0.000300737
-0.00691243
-0.0012463
0.00191629
-2.61455e-06
0.000343323
0.000659433
-0.00253688
-0.00451188
-0.00865121
-0.0199303
-0.0204894
-0.0476402
-0.0200283
-0.0171861
-0.000372586
-0.00668156
0.00596288
-0.0411239
-0.0249731
-0.0120374
0.0181144
0.00144816
0.000806272
-0.0186255
0.0196284
0.000126196
-0.00241297
-0.0203516
0.0197031
3.90623e-05
-0.0026688
-0.0198664
0.0196466
0.000163734
-0.00430205
-0.0189607
0.0140216
-0.0118485
0.0101768
0.00775418
0.0221491
-0.0104134
-0.00583655
0.00326873
0.012721
-0.039315
-0.00197222
-0.0228746
0.0216681
0.0206526
0.0191184
0.0241317
0.0108912
0.00189709
0.00887624
0.0130542
0.0207574
-0.00770485
0.00186015
0.012831
-0.00884036
0.000105695
0.00899272
-0.00717153
-2.40861e-05
0.00679138
-0.0053539
8.74096e-06
0.00514901
-0.0039728
1.20673e-05
0.00385067
-0.00298012
-1.35485e-05
0.00279006
-0.0024005
-0.000158192
0.00183935
-0.00227783
-0.000812216
5.6825e-05
-0.00280596
-0.00173081
0.00102199
-0.00289107
0.00345805
-0.00406754
0.000132724
-0.00385845
0.00368669
-3.96449e-05
-0.00203677
0.000131262
0.00201209
-0.00198995
9.54604e-06
1.37795e-05
4.97511e-06
5.31004e-06
1.01594e-05
1.49146e-05
4.06171e-05
6.00949e-05
9.54811e-05
-0.000316243
5.19065e-05
-0.00012995
0.00170227
-0.00175271
7.74996e-05
9.61576e-05
0.000533273
0.000536045
0.00670636
0.00861585
-0.000229086
-0.00613989
0.00696997
0.000351011
-0.00826142
0.00921278
0.00045466
-0.0110814
0.0117752
0.00058935
-0.0146538
0.0144674
0.000785403
-0.0186458
0.000134957
0.000442198
-0.00317093
-0.00316163
-0.00813228
-0.0041876
-0.00243265
-0.0015371
-0.00109518
-0.000900106
-0.000754185
-0.000194638
0.00186629
0.00205688
0.00201983
0.00296108
0.00178997
-0.000193709
-0.000715849
-0.000896817
-0.00112449
-0.00155783
-0.00240743
-0.00411671
-0.00779589
-0.0179834
-0.0188906
-0.0327336
-0.026091
-0.00860835
-0.00859283
0.0164989
0.00179106
-0.00205495
-0.00164132
0.00782963
0.000278767
-0.00634128
-0.0060619
0.00622727
-8.22284e-06
-0.00696375
-0.00665754
0.00548491
-9.9943e-07
-0.00864887
-0.00824669
0.00272985
-0.0117455
0.00798628
0.00775214
0.00810005
0.00708186
-0.0100869
0.000767078
0.0036322
-0.0116819
0.00270988
-0.0109782
0.0126758
-0.0279809
-0.00125309
-0.0269339
0.0200373
0.0212458
0.0206369
0.0202401
0.0205422
0.0201353
-0.0291587
-0.00150615
-0.0263004
0.017213
0.0184598
0.0172879
0.0182268
-0.00125081
-0.0280557
-0.0278725
0.0127096
0.0206905
0.0189532
0.0181583
0.0226508
0.0223355
0.017479
0.00507762
0.0106744
0.00447329
-0.00245862
0.00436571
0.000910288
-0.00320041
0.00259145
0.000295999
-0.00264868
0.00199768
0.000190445
-0.00211113
0.0015008
0.000121186
-0.0015817
0.00117032
0.000104231
-0.00121192
0.000837247
1.95297e-05
-0.000941798
0.000597616
-9.87687e-05
-0.00091933
0.000263618
-0.000573649
-0.00143298
-0.000666836
-0.00203283
-0.00245357
-0.00247694
-0.00166675
-0.00121277
-0.00187591
-7.77617e-05
0.00138455
-0.00103863
0.000102884
0.00114418
-0.00113957
4.86273e-05
0.00119154
-0.00122302
-4.15672e-05
-8.47313e-05
-0.00216103
-7.34615e-06
-0.00364881
5.34005e-06
-0.0039109
2.44829e-05
0.00452358
-0.00458957
-1.6559e-06
-0.00515076
0.000105834
0.0059676
-0.00541792
9.16551e-05
0.0062541
8.55858e-05
-0.00724629
0.000122414
0.00837963
9.70534e-05
-0.00967472
0.000157398
0.0110968
5.80912e-05
-0.0127018
0.000188549
0.0143887
5.18355e-05
-0.0162774
0.000238398
0.0182121
-0.00016543
-0.0200905
0.000414243
0.0222098
-0.00025644
-0.000668977
-0.0277309
-0.0200789
0.000762769
0.0232834
-0.000307053
-0.0223423
-0.0155096
0.000642454
0.0194019
-0.000185049
-0.0175856
-0.0120959
0.000404875
0.0152921
-0.000147277
-0.0135282
-0.00925934
0.000273787
0.0117212
-8.6158e-05
-0.0101543
-0.00695753
0.000174161
0.00880045
-6.45994e-05
-0.00750695
-0.00515297
7.06657e-05
0.00662538
-1.43926e-05
-0.00544571
-0.00380227
2.26314e-05
0.00519542
8.12771e-05
-0.00378462
-0.00268896
0.000260293
0.00460175
0.000534333
-0.000358163
0.00102455
-0.00173461
-0.00281525
6.16858e-05
-0.000824731
7.6467e-05
0.00245404
-0.000201571
3.61365e-05
-0.00205214
1.15648e-05
0.00365755
-0.00357183
-1.68509e-05
-0.00388666
0.00013759
-0.00411988
5.39219e-05
0.00467601
0.000149918
4.10765e-05
1.99567e-05
4.577e-05
0.00406753
3.36409e-05
-3.10325e-05
-0.000903265
-2.53846e-06
0.000982918
8.84996e-07
3.65129e-06
4.805e-06
-0.000154002
-0.000178518
-0.000128107
-0.00138206
8.01172e-05
-0.000269186
-6.2058e-05
-5.76534e-05
-5.76604e-05
0.00449175
0.00370814
-6.48888e-05
0.000228576
2.50873e-05
-1.0788e-05
0.0026402
0.000236034
-0.00368103
0.00375329
0.000165199
-0.00462498
0.00514591
0.000254273
1.77181e-05
-0.000131863
-0.000137353
-0.00018091
-0.00018138
-0.000201537
-0.0001925
-0.000186332
-0.000135323
-0.00013296
-0.000138022
-7.3737e-05
-7.96061e-05
-0.00362491
0.0036634
0.0058432
-0.00670856
0.00788216
-0.00894286
-0.000122336
-0.00608927
2.29244e-06
0.00547756
-0.000131835
-0.00456887
-9.9107e-05
0.00434453
4.11429e-05
0.000173315
-0.0033818
-0.000115278
0.00397326
-0.00428366
6.48813e-06
-0.00817898
-3.59884e-05
0.00937469
-0.00824274
1.23585e-05
-0.00965833
1.16443e-05
0.0111338
-0.0109892
2.9443e-06
-0.0125545
7.28232e-06
0.0143214
-0.01473
-3.19001e-05
-0.0159576
6.33369e-05
0.0179118
-0.0200881
-6.21427e-05
0.022098
-0.0240786
-0.000325529
-0.000667123
-0.000121457
-2.99363e-05
2.03334e-05
3.01242e-05
2.91801e-05
3.03973e-05
3.36881e-05
-2.96953e-05
1.49324e-05
-0.000956936
0.00107187
-0.00105719
-0.000976566
9.5727e-06
7.83567e-06
-2.46383e-05
5.68561e-05
0.000925386
7.74178e-06
-1.05123e-05
-8.48685e-05
0.00010869
-9.78131e-05
-0.00135188
7.5858e-05
-0.000329527
0.00233468
0.000252313
-9.64041e-05
-7.23878e-05
4.60238e-05
-2.06951e-06
0.000712405
0.000723397
-2.14156e-05
0.000611431
0.000958859
-1.63942e-05
-2.03477e-05
-1.97456e-05
-4.88512e-05
4.96056e-05
-0.00109512
0.00312107
0.000161187
-0.00469446
-3.77021e-05
0.0052443
-0.00461344
-1.53776e-05
-0.00538667
3.34155e-06
-0.00608213
-3.79291e-07
-0.00705501
2.20426e-05
0.00817009
-0.0083759
-1.07564e-05
-0.00928685
0.000100599
0.0106985
-0.0123075
9.14491e-05
0.0140255
-2.40916e-06
1.19234e-05
1.64624e-05
2.0233e-05
2.14547e-05
2.8296e-05
3.37048e-06
3.122e-07
-2.39713e-05
-2.35889e-05
-7.03215e-05
-0.000101546
-2.18388e-05
-2.32289e-05
4.60555e-06
4.65435e-06
7.74083e-06
9.13034e-06
1.26826e-05
1.67988e-05
1.93907e-05
2.13036e-05
2.97612e-05
3.45124e-05
0.000150891
0.000198497
-0.000463246
0.000312808
-0.000779666
0.00403797
-0.024026
-0.00644906
0.000140243
-0.00222028
0.0110832
-0.0110942
-0.0342325
-0.0130964
-7.12011e-05
0.00330528
0.000209658
-0.0262565
-0.0114425
-0.00768685
0.015687
0.00176299
-0.00177541
-0.00300674
0.00848996
0.000275595
-0.00591158
-0.00729633
0.00729353
1.28907e-05
-0.00649504
-0.00765924
0.00678731
5.85445e-05
-0.00833806
-0.00868783
0.00169114
-0.000479076
8.3005e-05
9.10161e-05
0.0220465
-0.019964
0.000273655
0.0185592
-0.000589026
0.000381431
-0.023457
0.000424586
-0.0145207
0.0164051
0.000142542
-0.0174091
-0.0304704
0.0236701
-0.00175966
0.00289897
0.00999886
-0.000116537
0.0231672
0.0170198
0.0191208
-0.0234633
0.000695259
-0.0198369
-5.89304e-05
-0.0219491
0.000887463
-0.0210313
-6.73113e-05
-0.0211426
0.000936686
-0.0225771
0.0177936
0.0174296
-0.00117837
-0.0338621
-0.0272084
0.0125341
-0.00884779
0.0120106
0.00687896
0.00811978
-0.0108538
0.00302302
0.00232792
-0.0120236
0.00456548
0.00830936
-0.010222
0.0169553
-0.00906709
0.0014605
-0.00914463
0.00146871
-0.00988504
-0.00773658
0.00138219
-0.000639248
-0.000112081
-6.27735e-05
9.25835e-06
4.35333e-05
4.15192e-05
3.36983e-05
3.14399e-05
3.35767e-05
-3.01937e-05
1.58807e-05
-0.000617561
0.000740265
6.0635e-06
0.000146888
0.000105059
8.49167e-05
-0.0010346
-6.72712e-05
0.00114884
-0.000932735
-0.000502191
0.00115796
-0.00121143
-0.00167241
-0.00188009
0.00135995
0.00138232
-8.03549e-05
-0.000114485
-0.000382067
4.6253e-05
0.00142061
-0.000247762
-0.000324903
-0.000211029
0.00105932
0.0010611
-0.000327511
-0.00024429
0.00133718
-0.000695193
-0.00150692
-0.000699341
0.00139887
-7.82627e-05
-8.89439e-05
-0.000159207
-7.13937e-06
8.01507e-05
0.0024543
-0.000205796
9.97979e-05
-7.6493e-06
-1.03951e-05
-1.54804e-05
-2.25262e-05
-3.60272e-05
-6.64303e-05
-0.000126672
1.33674e-05
-6.19679e-05
9.26149e-05
-0.000781403
-0.000241027
0.000726371
-0.00138177
-0.000528781
-0.000544041
-0.0159631
0.0153393
-0.000450481
-0.000351495
0.000939916
-0.000604559
-0.000354716
0.00274589
0.00517344
0.00272778
0.0161865
-0.00771134
0.00161874
0.0109474
0.0126862
-0.00400728
0.00111829
-0.000158371
0.000806096
-0.000192122
6.7942e-05
-0.00130955
-0.000126275
5.40798e-05
2.13603e-05
3.63079e-07
-1.00526e-05
5.60284e-06
-1.40194e-05
1.82634e-05
2.89969e-05
1.79738e-05
8.73763e-05
0.000201818
0.000288149
0.00036608
0.000445012
0.000602456
0.000438504
0.00013345
0.000243846
0.000142865
6.51901e-05
2.79712e-05
2.5165e-05
1.58296e-05
3.53928e-05
4.06019e-05
-0.00510806
0.00462465
-0.00534275
0.00617548
-0.00715166
0.000100548
-0.00685325
0.00591599
0.000101494
2.95803e-05
2.12926e-05
3.183e-06
0.00447027
3.05671e-05
-3.32722e-05
0.00111866
-1.96251e-05
2.76291e-05
0.000105445
-0.000185153
0.00123802
0.000971662
-0.000417328
0.000167103
-3.01123e-06
-1.17406e-06
0.000623021
-2.09207e-05
-9.20828e-07
0.000435641
-0.00133053
0.000382134
5.31773e-06
0.000153257
0.000111658
1.20348e-05
-0.000113259
4.90958e-05
0.000104166
-0.000418156
-0.000384033
0.00124256
-0.000504132
-0.000930829
-0.000187104
0.00115907
-6.56813e-05
0.000106023
7.53798e-05
-4.52287e-05
1.5569e-06
2.94185e-05
7.55243e-05
5.26088e-05
-4.19503e-06
5.01782e-05
5.96864e-05
8.80625e-05
2.20988e-05
1.10816e-06
2.36554e-05
-8.31586e-07
0.00795278
-0.00922522
0.00828449
-0.00957463
0.0110087
-0.0126383
0.000172744
-0.0122894
0.0106486
0.000124027
1.21519e-05
9.91681e-05
0.000115977
0.000140853
0.000128535
3.10886e-05
-1.59331e-06
2.84788e-05
2.76939e-05
4.31032e-05
3.15549e-05
4.87152e-05
0.000118886
0.000420563
0.000296673
0.00142438
0.000133493
6.2077e-05
2.78327e-05
4.98259e-06
-1.87577e-05
-7.82529e-06
-8.34412e-06
9.0943e-06
4.23853e-06
3.42734e-06
1.61477e-05
1.87717e-05
1.5291e-05
-3.36808e-06
-1.60189e-05
-1.09473e-05
-1.34209e-05
-9.47265e-06
3.98918e-06
7.93509e-06
1.33275e-05
2.07766e-05
2.69588e-05
4.1248e-05
3.37135e-05
3.93224e-05
7.57689e-05
6.45037e-05
4.29724e-05
0.000107476
0.000256158
9.16226e-05
0.000106386
0.00357048
-0.000649821
0.000373773
8.3912e-05
0.000298263
0.00767002
-0.000318314
-0.00111596
0.00601853
0.00200387
-0.0262016
-0.00946544
-0.0173728
0.0167502
-0.0118005
-0.0126569
0.0150963
-0.0185409
-0.00100718
-0.00138503
-0.0170072
0.0151522
-0.000163448
-0.000776809
-5.00961e-05
0.000294312
0.000404221
0.00638001
0.00216224
-0.0116971
-0.0106198
0.0183903
0.0017045
-0.00434762
-0.00132092
0.00730722
0.000199792
-0.00847187
-0.00550672
0.00554549
-1.92795e-05
-0.0088242
-0.0060653
0.00485547
-5.20481e-05
0.00772506
0.00748211
0.000438216
0.0101703
-0.00992773
7.02405e-05
-0.00817131
-5.74961e-05
-0.000156112
-2.41243e-05
5.89071e-06
1.71022e-05
1.55268e-05
1.14315e-05
7.67564e-06
4.01338e-06
-6.82777e-06
-2.14093e-05
0.000175245
-0.0045859
0.00513212
0.000256756
-0.0061083
0.00699312
0.0106034
-0.0119864
0.0140743
-0.0159441
-0.000151565
-0.0110039
0.00016389
0.00973933
-0.000142271
-0.00819535
6.92985e-05
0.00729096
-0.000424644
-0.000289512
-0.00625042
-0.000171662
0.00700149
-0.00772614
4.14805e-05
-0.0144952
-1.56591e-05
0.0165446
-0.0144456
2.20541e-05
-0.0165169
3.0884e-05
-0.0184103
-3.13531e-05
-0.0203667
-6.34258e-05
0.0223968
-0.0232546
-9.68306e-06
0.0246413
-6.12948e-05
-0.0242442
0.0241656
-7.40552e-05
-0.0226584
0.022906
-0.0244764
-1.38159e-05
2.36426e-05
0.000122481
9.24654e-05
4.3917e-05
1.68063e-05
2.8486e-06
-8.47366e-06
-8.17966e-05
-9.29178e-05
-0.000183751
-0.000225594
-0.00019199
-0.00021452
-0.00821065
0.00927356
0.000464447
-0.0109628
0.0119107
0.0182799
-0.0209548
0.0230696
-0.026722
0.000501818
-0.0207738
0.00198505
0.0164575
-7.44106e-05
-0.0148953
0.000529254
0.0128604
-0.000694918
-0.000266602
-0.0106352
-1.99574e-05
0.0123454
-0.0133084
0.00012599
-0.0235871
0.000106428
0.0264114
-0.0226088
-7.49839e-05
0.0244486
0.000183228
-0.0277895
0.0162747
-2.56527e-05
-0.0170332
0.014912
-0.0181077
0.000640827
-0.00294453
-0.00147035
-0.00248081
-0.00419724
0.019419
-0.0298559
0.00638963
-0.00634546
-0.00299468
-0.00171748
-0.00116159
-0.000861091
-0.000649724
-0.000389136
0.000463931
0.00615634
0.00299385
-0.00155218
0.00104983
0.000499152
0.00355486
-0.00310369
0.00322798
-0.000194072
-0.00211835
9.70151e-05
0.00397424
-0.00377912
-1.31425e-05
-0.00405208
1.76248e-06
-0.00453179
-1.84978e-06
-0.00525057
2.67285e-05
0.00605761
-0.00619856
-6.3355e-06
-0.0069109
9.42292e-05
0.00801263
3.14378e-05
1.60488e-05
0.00728171
2.8935e-05
0.00544222
-5.14888e-06
-1.96817e-05
-4.79028e-05
-0.000168158
2.19231e-05
0.00211777
0.000142877
0.000161389
0.000738343
0.0012994
-0.00204594
-7.32012e-05
-0.00326895
2.0117e-05
-0.00614861
-4.12778e-05
0.0069652
-0.00612766
1.51991e-06
-0.00720307
6.62747e-06
-0.00821041
2.82807e-06
-0.00947757
1.6994e-05
0.0109276
-0.0112159
-1.78058e-05
0.0129085
-5.79304e-06
7.18288e-06
0.00976053
-4.1165e-07
2.25724e-05
7.23124e-06
-1.63993e-05
0.00531538
-4.61482e-05
0.00400674
0.000244732
1.07965e-05
0.00325364
4.46377e-05
0.000138793
-0.00019099
0.00381649
-0.000108972
-0.000173718
-0.00465466
-0.000152557
-0.0057658
1.90035e-05
-0.0109496
-3.0951e-05
0.0125575
-0.0110196
2.01786e-05
-0.0127813
1.96249e-05
-0.0144148
-6.056e-06
-0.0162429
-1.69648e-05
0.0182606
-0.0188527
-4.9746e-05
0.0208428
-4.16335e-05
-8.27536e-06
1.23872e-05
1.83762e-05
3.33105e-05
2.9365e-05
2.94504e-05
2.94634e-05
2.0327e-05
2.0806e-05
2.13045e-05
1.50915e-05
0.000134651
0.000210797
0.000287258
1.19961e-05
3.76849e-05
2.81703e-05
2.29823e-05
1.89641e-05
-7.52973e-09
2.06425e-05
-0.000152219
-0.00411468
2.3059e-05
-0.00402757
0.00510383
0.000101159
-0.00559596
-0.00572797
0.00520051
0.00486362
9.78299e-05
-0.00534271
-0.00610777
0.0055167
-0.00435727
1.69649e-05
-0.00389463
0.00385911
0.00405878
0.00400079
0.00390905
2.56755e-05
-0.0042856
-0.00398207
-0.000152075
0.00495021
0.000105821
-0.00599967
-0.00547453
-0.000234027
0.00653578
0.000240744
-0.00820838
-0.00745143
-0.00765004
-0.00783496
0.000242157
0.00675245
0.00689229
-0.000232535
0.00641071
0.000235369
-0.00726783
-0.00836045
0.00732936
-0.000240612
-0.00502937
-0.00753624
5.72444e-05
0.00447753
-0.000162468
-0.0037154
-0.00547339
6.14166e-06
0.0036452
0.00430847
-0.00283212
0.000242978
-0.00275007
-0.000231542
-0.00279137
0.00024076
-0.00274404
-0.000231116
-0.00279855
0.000250689
-0.00279382
0.00425535
0.00368583
-0.00024401
-5.54636e-06
0.000201911
-0.0019011
-0.00216647
-0.00207372
-0.00230284
-0.00219189
-0.00220976
-0.0022443
-0.00193781
-0.00297815
-0.00228174
-0.00208283
-0.00216116
-0.00145718
-0.000612703
-0.000766094
0.00133461
-0.00149782
0.00362984
0.00367063
0.00364327
0.00365477
0.00378909
0.00353814
-0.00144657
0.0011644
-0.000609463
-0.00145787
-0.000770025
0.00142129
-8.71388e-05
5.47551e-05
5.57093e-05
0.000137434
0.000214108
-1.03383e-05
-0.00031777
0.00912851
0.000378766
-0.0102286
-0.0104819
-0.00969328
-0.0111882
0.000362605
0.00848903
0.00973118
-0.000324465
-0.00678897
-0.0102237
0.000165162
0.00590469
0.00884122
-4.64222e-05
0.000919633
-0.00124214
9.82398e-05
0.00123173
-0.00166067
0.000138733
0.00166241
-0.0021475
0.000252449
0.00242666
-0.00249415
0.000808186
0.00444467
0.00100762
0.00195077
-0.000407299
0.00102514
-0.000546244
0.000753506
-0.000465657
0.000594158
-0.000369089
0.000425378
4.19782e-05
-0.000951997
0.00664316
-1.03006e-05
0.000659561
-0.0009138
-8.12559e-05
2.98817e-05
-0.000353192
-0.000685243
0.000317406
8.51403e-05
-0.00380419
0.000246805
-0.00263747
-0.000245776
-3.60687e-07
0.00023144
-0.00152287
-0.00247679
-0.00243668
-0.00203609
-0.000655898
-0.00143765
-0.000563022
-0.00108244
-0.0032672
0.000536208
0.00460474
0.00351902
0.00381309
-0.00144359
-0.00311242
-0.00189321
0.000210858
0.000835423
0.00075153
0.000957242
0.0011418
0.00136864
0.000263458
-0.00901983
-0.0136711
0.0117813
0.00785033
-0.000495123
-0.000349123
-0.000189572
-0.000157762
0.000961426
0.00106059
0.0011986
-0.000631958
-0.000410799
0.0126766
0.00049442
-0.0126094
-0.014634
-0.0116638
-0.0180087
0.000354519
0.0103263
0.0154651
-3.99495e-05
0.000134773
7.37783e-05
4.82501e-05
8.58632e-05
0.000151568
-0.0160853
0.0144006
-0.0162858
-4.18916e-05
0.000280258
0.000192199
9.74978e-05
3.99086e-05
-2.39405e-06
0.0140109
4.30695e-05
8.45907e-06
0.0179532
0.000243199
3.25622e-07
0.000361224
0.000426126
-7.43653e-05
1.09544e-05
3.95254e-05
1.65842e-05
2.71465e-05
-2.2061e-05
2.70024e-05
2.74108e-05
5.47202e-05
1.39523e-05
4.17539e-05
3.6838e-05
1.46809e-05
1.4655e-06
2.607e-06
2.00875e-07
1.6449e-05
0.000352769
0.000589394
0.00043406
0.000349421
0.000353912
0.000393057
0.000196028
0.000194574
-1.78432e-05
0.000120141
0.00336824
0.000274663
0.000485297
0.000478808
0.000552728
0.000557087
0.000648419
0.00047756
0.000490361
0.000715026
0.000709951
-0.0143489
0.0147286
0.000878094
-0.0177956
0.000400906
0.000219287
-0.00310904
-0.00413386
-0.0223351
-0.0233726
-0.038585
0.00973577
0.00333367
0.0185877
-0.00669427
0.0104658
-0.00116434
-0.0118348
0.0107071
-0.000252345
0.0076098
-0.000267578
0.0100709
-0.0110812
-0.000910035
-0.000283336
-0.000344952
0.000141872
-0.00122016
0.00799017
-0.000361562
0.000410898
0.000262882
0.000142335
0.000146657
7.66664e-05
6.86935e-05
-8.3643e-05
-9.83374e-05
6.03823e-05
0.000225039
0.00104078
0.000172462
-1.98132e-05
-8.44597e-05
0.00885073
-0.0102096
8.15796e-05
-0.0187812
2.73568e-05
0.0213101
-0.0184235
4.21449e-06
-0.0206647
3.07209e-05
0.0204382
-7.62124e-06
8.60602e-06
2.07508e-05
4.11915e-05
9.07297e-05
0.000625456
0.000134432
5.0572e-05
2.54403e-05
1.11805e-05
1.03957e-05
9.41507e-06
7.18234e-06
4.71865e-06
0.00530672
7.47991e-06
0.00614996
3.97827e-06
0.0045591
0.00395721
1.45558e-05
0.00364098
0.00210879
5.54857e-05
1.04892e-05
-2.38906e-06
1.15866e-05
3.0467e-06
0.00712582
0.000116558
-0.00027362
0.00522322
-0.000165757
0.000138425
-0.000339988
0.0066846
-0.000183916
-0.000330148
-0.00824898
-0.000141925
0.00936403
-0.000407185
-0.000186011
0.000238635
0.000181015
2.00253e-05
0.00957242
1.67584e-05
0.00956462
3.30413e-05
5.10053e-05
0.012693
2.59173e-05
0.0146133
3.66684e-05
0.000121067
0.0164565
-0.000564997
0.01147
-0.000352304
-0.000341126
-0.0137089
0.000243972
0.0143217
-0.00111054
0.000228465
-0.000372272
-0.00231999
-0.00589628
2.17398e-05
-0.000905689
-0.000387899
0.000249961
0.000245739
0.0206737
1.88313e-05
-3.92734e-05
-7.54544e-05
-6.39414e-05
-0.000349991
-1.66603e-05
4.83903e-05
4.02645e-05
0.0186654
0.016355
-1.35219e-05
-1.82609e-06
-4.57364e-05
-0.000107219
-0.000136643
-0.000595049
-0.000205935
-0.00019666
-9.52273e-05
-3.37947e-05
0.0166691
-4.39821e-05
1.48449e-06
1.64477e-05
0.000289595
0.00019827
8.6396e-05
-0.000162292
-4.22312e-05
0.000373668
0.000460418
0.000607495
-8.97199e-05
0.000266905
0.000272925
-0.000504477
0.00239234
0.00530034
-0.00366611
0.0246076
0.00151408
0.000540577
-0.000307031
0.000666984
0.001139
0.00115696
0.00104482
0.000948129
0.000822218
0.000849187
0.000222365
3.0474e-05
2.86924e-05
-0.00297819
-0.00149886
-0.00311453
-0.00153242
0.000219613
0.000733555
-0.00019464
-0.000161919
0.00455035
0.00543165
0.000135899
2.02354e-05
1.97605e-05
2.91904e-05
2.13283e-05
2.98802e-05
-2.00911e-06
-0.000157181
0.00135789
0.00348511
0.000185283
6.14665e-05
1.13786e-05
-1.18578e-06
1.71114e-05
1.79807e-05
1.74431e-05
1.8766e-05
-1.34644e-05
0.000209896
0.000283511
0.000292382
0.000368891
-5.99556e-05
-0.000515244
-0.0137082
0.00053703
-0.0133429
0.0144766
0.00079137
-0.0169536
-0.0175317
0.0148798
0.0139311
0.000681741
-0.0159718
-0.0187252
0.0159391
-0.000523693
0.0133143
0.0197603
7.62728e-05
6.01621e-05
-0.000792287
0.00163494
0.00191396
0.00217444
0.00555492
0.00698657
0.0134889
0.0316692
0.0034548
0.0165297
0.0244995
-0.00188436
-0.00106414
0.0010422
0.00127902
-0.000725636
-0.00057259
0.0110583
0.0118587
0.0115909
0.0112466
0.00053088
-0.0143123
-0.0130235
-0.000526164
0.0141649
0.000797356
-0.0181918
-0.0167123
-0.000693469
0.0170038
0.0181273
0.0161102
-0.000665328
-0.000159967
-0.00021517
-2.45825e-05
2.2912e-05
0.000104332
2.39285e-05
2.29783e-05
-3.76092e-05
-1.5244e-05
-0.000221897
0.00220962
-0.000248172
-0.000152409
-0.000349108
-0.00030082
-0.000187119
-0.000318282
-0.000143525
0.00600467
-0.000172724
0.000114879
2.49552e-05
7.24528e-06
0.000275758
0.000240093
-0.00258997
0.0134292
-0.00668678
-0.0241242
-0.0287747
0.00239275
-0.0135761
0.00572674
0.00184306
-0.00840722
-0.00927073
-0.000944008
-0.00139773
0.00914982
0.00845829
-0.000839778
-0.0082932
-0.000170406
0.00824267
-2.95614e-05
9.04608e-05
-3.21385e-06
8.51532e-05
0.000279466
0.000291044
0.000187559
4.76324e-05
3.62989e-05
-6.70493e-05
-6.0308e-05
1.24623e-06
-7.43294e-05
-2.94848e-05
-1.30381e-05
0.000357045
0.000435661
0.00043709
-0.000194312
0.000520674
0.000539435
-0.000445901
0.0229011
-0.00137035
0.0013558
-0.0254224
0.000507255
0.000308398
0.00295326
0.000353795
0.000630257
0.00198941
-0.000155597
-3.30274e-05
-0.000154877
0.000569257
0.0053161
-0.000351267
-0.000226153
-0.000132528
0.000114186
-0.0143866
0.0165386
-0.000587116
2.75187e-05
-0.000748729
-0.00174395
-0.00195274
-0.000362474
-0.000177531
0.0064196
-0.000195067
-0.000213284
-0.000403651
-7.50139e-05
-0.000246566
0.00569754
-0.000378238
-0.000180458
0.000577216
0.000461818
-1.65161e-05
-7.24947e-05
-4.88179e-05
-0.000140419
0.000115747
0.000476205
0.000594696
0.000545394
-0.000636148
0.00185625
0.00189084
0.00207647
0.0022182
0.0247129
0.00249651
-0.000312891