/*--------------------------------*- C++ -*----------------------------------*\
| =========                 |                                                 |
| \\      /  F ield         | OpenFOAM: The Open Source CFD Toolbox           |
|  \\    /   O peration     | Version:  2306                                  |
|   \\  /    A nd           | Website:  www.openfoam.com                      |
|    \\/     M anipulation  |                                                 |
\*---------------------------------------------------------------------------*/
FoamFile
{
    version     2.0;
    format      ascii;
    arch        "LSB;label=32;scalar=64";
    class       volScalarField;
    location    "2.9";
    object      gradTz;
}
// * * * * * * * * * * * * * * * * * * * * * * * * * * * * * * * * * * * * * //

dimensions      [0 -1 0 1 0 0 0];

internalField   nonuniform List<scalar> 
5322
(
-0.0628864
-0.0585725
-0.0512515
-0.0554433
-0.044564
-0.0349923
-0.0268535
-0.0202513
-0.0152146
-0.0117502
-0.00959978
-0.0089096
-0.00649004
-0.00907465
-0.0100159
-0.00826393
-0.00971754
-0.00752491
-0.0110669
-0.0122289
-0.0140925
-0.0158881
-0.0186289
-0.0213889
-0.025091
-0.0283982
-0.0330633
-0.0374646
-0.0430677
-0.0477995
-0.0541746
-0.0598101
-0.0663222
-0.0707765
-0.0734278
-0.0639409
-0.0751522
-0.0745153
-0.0768048
-0.0559774
-0.0712155
-0.0735123
-0.0548942
-0.0735542
-0.0728157
-0.0558611
-0.0746227
-0.0705286
-0.0552627
-0.0733959
-0.0836471
-0.0571253
-0.0795589
-0.0709758
-0.063732
-0.0672147
-0.082815
-0.0659564
-0.0639281
-0.0670769
-0.0836988
-0.0668421
-0.0639192
-0.0654357
-0.0836955
-0.0692183
-0.0636928
-0.0622315
-0.0820616
-0.0738505
-0.0530054
-0.0789062
-0.0751
-0.0739886
-0.0747042
-0.0743452
-0.0742948
-0.0740972
-0.0752522
-0.0717558
-0.0695514
-0.0558584
-0.0579279
-0.0749254
-0.0487623
-0.0666378
-0.0961496
-0.061993
-0.0623263
-0.0543074
-0.0672965
-0.0497008
-0.0523699
-0.0522295
-0.066706
-0.0630193
-0.0601683
-0.0638666
-0.0977703
-0.0601945
-0.0608852
-0.0550885
-0.0643725
-0.0659774
-0.0719996
-0.0585147
-0.0615785
-0.0559213
-0.0450735
-0.0355011
-0.0272529
-0.020507
-0.0153182
-0.0117416
-0.0110414
-0.0102237
-0.00726034
-0.00780388
-0.0108144
-0.00856237
-0.007492
-0.00897912
-0.00885304
-0.0123946
-0.00927301
-0.0121438
-0.00877
-0.00915784
-0.011942
-0.00874387
-0.00897268
-0.0120545
-0.00888096
-0.00880848
-0.012108
-0.00900036
-0.00885751
-0.0124284
-0.00929031
-0.012159
-0.00880024
-0.00752173
-0.0085699
-0.00769903
-0.00727656
-0.0108223
-0.00780941
-0.0077622
-0.00718879
-0.00724111
-0.0108387
-0.00777314
-0.00774417
-0.00719901
-0.00724843
-0.0108323
-0.00778191
-0.007692
-0.00751353
-0.0100204
-0.0082564
-0.00973628
-0.0122476
-0.0131621
-0.00788903
-0.0110808
-0.00753152
-0.00987022
-0.00654273
-0.00878746
-0.00909087
-0.00845822
-0.00911723
-0.010273
-0.00871587
-0.0115855
-0.0114945
-0.0122568
-0.00969267
-0.0122426
-0.014197
-0.0142134
-0.01608
-0.0125441
-0.016105
-0.0187174
-0.018731
-0.0215261
-0.0167652
-0.0215545
-0.0250582
-0.0250734
-0.0287314
-0.022466
-0.0287805
-0.0332218
-0.0332605
-0.0376843
-0.0296756
-0.0377756
-0.043181
-0.0432705
-0.0482682
-0.0383253
-0.048418
-0.054673
-0.0548468
-0.0602279
-0.0480354
-0.0604729
-0.06624
-0.0664171
-0.063747
-0.097782
-0.0601838
-0.0599924
-0.055265
-0.0760135
-0.0758314
-0.0523734
-0.0522834
-0.0665568
-0.0635375
-0.0595882
-0.0645466
-0.097639
-0.0605612
-0.0599379
-0.0553933
-0.0634908
-0.0663102
-0.0601288
-0.0602633
-0.0558188
-0.0450849
-0.0355405
-0.0272835
-0.0205258
-0.0153284
-0.0117465
-0.0110453
-0.0102306
-0.00723853
-0.00722289
-0.0072176
-0.0072353
-0.0108312
-0.00774299
-0.00778026
-0.00770325
-0.00897323
-0.0128799
-0.00774471
-0.0108337
-0.0077815
-0.0128042
-0.00913901
-0.011912
-0.00874289
-0.00770667
-0.00897388
-0.0119142
-0.00640072
-0.00872765
-0.00872109
-0.00871135
-0.00912137
-0.0114905
-0.0122609
-0.0142128
-0.0160832
-0.0187362
-0.0215275
-0.0250849
-0.0287336
-0.0332816
-0.0376856
-0.0433116
-0.0482563
-0.0549284
-0.0601656
-0.066872
-0.0629709
-0.0978093
-0.06414
-0.0601566
-0.0660952
-0.0606361
-0.0480702
-0.0546705
-0.0484937
-0.0383525
-0.0432135
-0.0378057
-0.029693
-0.0332531
-0.0287909
-0.022476
-0.025082
-0.0215561
-0.0167705
-0.0187387
-0.0160993
-0.0125466
-0.0142195
-0.0122314
-0.0096916
-0.0116024
-0.00912335
-0.0115924
-0.0122421
-0.00969273
-0.011501
-0.00912184
-0.0102754
-0.00844465
-0.00647613
-0.00911781
-0.00827399
-0.011629
-0.0122618
-0.0141915
-0.016147
-0.0187439
-0.021585
-0.0251422
-0.0288032
-0.0333947
-0.0377804
-0.0435617
-0.0482438
-0.0554792
-0.0596679
-0.0672144
-0.0633795
-0.0966532
-0.0672809
-0.0582527
-0.0719651
-0.0655079
-0.0466812
-0.0592407
-0.0520936
-0.0372122
-0.0465977
-0.0404284
-0.0287499
-0.0357359
-0.0307256
-0.0217405
-0.026925
-0.0230005
-0.0162182
-0.0200844
-0.0171844
-0.0121392
-0.0152096
-0.0131648
-0.00938011
-0.0122455
-0.00973888
-0.0100249
-0.00879176
-0.00918107
-0.00810949
-0.00989774
-0.00652826
-0.00745735
-0.00873754
-0.00807736
-0.0118677
-0.0127346
-0.0122962
-0.0122424
-0.00965127
-0.0114883
-0.011675
-0.00840435
-0.0103
-0.00931693
-0.00916998
-0.00897834
-0.0123936
-0.0097922
-0.00929294
-0.0127682
-0.00975566
-0.00913904
-0.00902191
-0.00877114
-0.0116036
-0.0122343
-0.0109816
-0.0142293
-0.0161009
-0.0187474
-0.021556
-0.0191474
-0.0251022
-0.0287724
-0.0333058
-0.0377337
-0.0332186
-0.0433321
-0.048303
-0.0548836
-0.0602786
-0.0523072
-0.0523945
-0.0423677
-0.0424044
-0.033391
-0.0333096
-0.0435364
-0.0483447
-0.0383447
-0.0488361
-0.0545092
-0.0552805
-0.0599889
-0.0479958
-0.0613119
-0.0654543
-0.0736627
-0.0616095
-0.0976675
-0.0618474
-0.058755
-0.0571104
-0.073988
-0.049609
-0.0448916
-0.0627108
-0.0394767
-0.0543137
-0.0492172
-0.0310005
-0.0432147
-0.037798
-0.0238459
-0.0333758
-0.0286978
-0.018031
-0.0250597
-0.0213021
-0.013448
-0.0187229
-0.0158788
-0.010083
-0.0140562
-0.0121464
-0.00787305
-0.0111145
-0.00814216
-0.00783616
-0.0102188
-0.00930492
-0.0109112
-0.0129062
-0.0144371
-0.016639
-0.0191574
-0.0222021
-0.0215398
-0.021607
-0.0167317
-0.018781
-0.0187708
-0.0161485
-0.0125182
-0.0160738
-0.0143223
-0.013629
-0.0104233
-0.00919272
-0.0108648
-0.0103662
-0.00992569
-0.0116661
-0.0117069
-0.00958796
-0.00895238
-0.00673551
-0.0111066
-0.0061993
-0.00859651
-0.00952622
-0.0102134
-0.0130059
-0.0153007
-0.0151754
-0.020255
-0.020569
-0.0173122
-0.0171402
-0.0161355
-0.0194924
-0.0228647
-0.0258039
-0.0295964
-0.0343376
-0.0388228
-0.0379024
-0.0378228
-0.0296616
-0.0333454
-0.0334035
-0.0288377
-0.0224353
-0.0288086
-0.025537
-0.024271
-0.0182423
-0.0161429
-0.0189668
-0.0186337
-0.0178147
-0.0141592
-0.0135532
-0.0129911
-0.0144862
-0.0120655
-0.0120399
-0.0133145
-0.0117943
-0.00964333
-0.00892637
-0.00856273
-0.00818423
-0.00876671
-0.00751075
-0.0103828
-0.0102911
-0.0122576
-0.0109542
-0.0142206
-0.0142118
-0.0161069
-0.0125503
-0.016086
-0.0142892
-0.0187415
-0.0187399
-0.0215547
-0.0167789
-0.0215494
-0.0191119
-0.0250875
-0.0251062
-0.0287681
-0.0224931
-0.0287912
-0.0254226
-0.0332749
-0.0333241
-0.0377284
-0.0297232
-0.0378121
-0.0331854
-0.0432483
-0.043389
-0.0482715
-0.0383929
-0.0485193
-0.0422647
-0.054655
-0.055032
-0.0601477
-0.0480746
-0.0606344
-0.0521445
-0.0660904
-0.0667124
-0.0636713
-0.0600506
-0.0636971
-0.055687
-0.0603104
-0.0581134
-0.0530571
-0.0733914
-0.0492415
-0.0642834
-0.0496968
-0.0475762
-0.0588031
-0.0591592
-0.0524308
-0.0559116
-0.0563095
-0.0510513
-0.0461674
-0.0452352
-0.0352961
-0.0360634
-0.0307832
-0.0274657
-0.0269565
-0.0267601
-0.0201532
-0.0151401
-0.0116995
-0.00955205
-0.0088496
-0.00651198
-0.00902522
-0.00798394
-0.00860567
-0.00865571
-0.00851654
-0.00879894
-0.0103007
-0.00768923
-0.00945708
-0.00921327
-0.00929203
-0.0095541
-0.00750355
-0.00942635
-0.00931412
-0.00929204
-0.0103061
-0.00708614
-0.00713991
-0.00712799
-0.00710512
-0.00708342
-0.0070483
-0.0108934
-0.00711714
-0.0070986
-0.00710068
-0.010896
-0.00712839
-0.0103757
-0.0111296
-0.0110845
-0.0097613
-0.00973525
-0.00908632
-0.0109803
-0.0143598
-0.0192222
-0.0255557
-0.0333134
-0.0316686
-0.0281773
-0.0330399
-0.0324628
-0.0310206
-0.0345638
-0.0395127
-0.0451089
-0.0492255
-0.0586385
-0.047754
-0.0490949
-0.039144
-0.0451653
-0.0374489
-0.0401263
-0.0408102
-0.0349425
-0.0445998
-0.0555463
-0.0686115
-0.0682567
-0.0683086
-0.0594109
-0.0552078
-0.0577158
-0.0632223
-0.0528223
-0.059858
-0.0854542
-0.0771686
-0.0762394
-0.0787116
-0.0504998
-0.0640611
-0.0672588
-0.0805661
-0.0520123
-0.0663434
-0.0675568
-0.0809512
-0.0522336
-0.0655163
-0.0684094
-0.080769
-0.053445
-0.0649348
-0.0728406
-0.100756
-0.0792866
-0.0775232
-0.0981507
-0.0960699
-0.0766264
-0.0563756
-0.0795676
-0.0710342
-0.0637033
-0.0670787
-0.0706747
-0.0552929
-0.0732751
-0.0836894
-0.0571116
-0.0695977
-0.0558904
-0.0579781
-0.0749503
-0.0652106
-0.0497356
-0.0615782
-0.0540331
-0.0408294
-0.0485792
-0.0429706
-0.0320022
-0.0376102
-0.0331648
-0.0245287
-0.028555
-0.025047
-0.0184141
-0.0213689
-0.0186892
-0.0137607
-0.0159422
-0.0140976
-0.0102915
-0.0122548
-0.0110785
-0.00820838
-0.00987689
-0.00806461
-0.00916223
-0.00877617
-0.00973339
-0.0122542
-0.0131636
-0.00937975
-0.0116482
-0.0082556
-0.0100242
-0.0091094
-0.00647453
-0.00843188
-0.0087322
-0.0102757
-0.00862764
-0.00891748
-0.00964214
-0.0117862
-0.0152477
-0.0152659
-0.0203462
-0.0270365
-0.0252637
-0.0243733
-0.0233684
-0.0263229
-0.0305592
-0.0287023
-0.0216602
-0.0232177
-0.0236097
-0.0251392
-0.0251547
-0.0191886
-0.0215585
-0.0250695
-0.0224945
-0.0287944
-0.0332448
-0.029719
-0.0378023
-0.0432088
-0.0383718
-0.0484486
-0.0546595
-0.0480387
-0.0603857
-0.0511565
-0.051844
-0.0619741
-0.0621466
-0.0557906
-0.0446035
-0.0349358
-0.0267674
-0.0201719
-0.0151614
-0.0117172
-0.00958572
-0.00888407
-0.00647452
-0.00873057
-0.00861946
-0.00890435
-0.0096093
-0.0117558
-0.0152173
-0.0202636
-0.0268977
-0.0351039
-0.044815
-0.055938
-0.0697412
-0.0692743
-0.0557632
-0.105122
-0.0776291
-0.0744593
-0.067617
-0.0809282
-0.0523053
-0.0524453
-0.0570066
-0.0836758
-0.0542677
-0.0550974
-0.0561717
-0.0841422
-0.0545158
-0.0553406
-0.0557852
-0.0839545
-0.0559634
-0.0569385
-0.0625466
-0.1066
-0.080277
-0.0783257
-0.0786787
-0.0779967
-0.0630235
-0.0591696
-0.0628065
-0.106206
-0.0621054
-0.0640671
-0.0836441
-0.0669371
-0.0638767
-0.0653324
-0.0739304
-0.0548576
-0.0731479
-0.0731911
-0.0559862
-0.0743436
-0.0661361
-0.0638947
-0.066836
-0.0744081
-0.0741577
-0.0748079
-0.073822
-0.063939
-0.0630198
-0.0686139
-0.0837938
-0.0717065
-0.0565094
-0.0763098
-0.0670735
-0.0564804
-0.0918877
-0.0497247
-0.0654396
-0.0551149
-0.0646324
-0.0598175
-0.0474123
-0.0550048
-0.0492777
-0.039313
-0.0437878
-0.0393491
-0.0302504
-0.0343945
-0.0301282
-0.0237432
-0.0259957
-0.022945
-0.0173752
-0.0196256
-0.0169906
-0.0132698
-0.0144986
-0.0129315
-0.00981996
-0.011042
-0.0101275
-0.00785613
-0.00873902
-0.00616896
-0.0110516
-0.0079798
-0.00673195
-0.0124042
-0.00885123
-0.00926933
-0.012123
-0.00877762
-0.00913609
-0.0119209
-0.00872675
-0.00897903
-0.012044
-0.00889657
-0.00877807
-0.0120901
-0.00652594
-0.00850159
-0.0102987
-0.00874012
-0.00912305
-0.0115708
-0.00968603
-0.0122374
-0.0122375
-0.0109458
-0.0141805
-0.0121262
-0.0161148
-0.0171659
-0.0120382
-0.0200633
-0.0134232
-0.0229425
-0.0161083
-0.0268223
-0.0179495
-0.030637
-0.0214249
-0.0355204
-0.0236889
-0.0402015
-0.0279583
-0.0460206
-0.0305568
-0.051607
-0.0356375
-0.0581804
-0.0384754
-0.0646303
-0.0442679
-0.0708814
-0.0469553
-0.0552654
-0.0674905
-0.0659338
-0.0527116
-0.0619212
-0.0459637
-0.0558308
-0.0541937
-0.0423582
-0.0496244
-0.0365985
-0.0441127
-0.0429502
-0.0332362
-0.038695
-0.0283932
-0.0340514
-0.0331563
-0.0254633
-0.0295294
-0.0215166
-0.0256809
-0.0250628
-0.0191549
-0.0221145
-0.016089
-0.0191919
-0.0187493
-0.0143224
-0.016583
-0.0120495
-0.0144881
-0.0142323
-0.0109877
-0.0126563
-0.00930794
-0.0119202
-0.0114757
-0.00916422
-0.00803593
-0.00744113
-0.00652782
-0.00878172
-0.00916629
-0.00805901
-0.00986881
-0.00817528
-0.00873612
-0.00819925
-0.00857347
-0.00862615
-0.00870125
-0.010271
-0.00871446
-0.00909402
-0.00907814
-0.0116177
-0.00937629
-0.0131483
-0.00919746
-0.0151982
-0.010075
-0.0133271
-0.0104006
-0.0103107
-0.0115003
-0.00972761
-0.012782
-0.00777494
-0.0108265
-0.0077433
-0.00768818
-0.00943916
-0.00927601
-0.00920114
-0.00928587
-0.00931875
-0.0128764
-0.00975711
-0.00912511
-0.0110032
-0.0110118
-0.0110081
-0.0142447
-0.0142497
-0.0109855
-0.0132547
-0.0103776
-0.0103294
-0.0115018
-0.00970056
-0.0122694
-0.0142013
-0.0125544
-0.0161035
-0.0187262
-0.0167822
-0.0182338
-0.0143969
-0.0143542
-0.0192694
-0.025616
-0.0255178
-0.0255987
-0.0192613
-0.0143908
-0.0143257
-0.0143525
-0.0109772
-0.0109512
-0.0122376
-0.0141964
-0.0152037
-0.0171751
-0.0200659
-0.022953
-0.013435
-0.0186991
-0.0120393
-0.0159362
-0.0100876
-0.0141075
-0.00920284
-0.0122509
-0.0102736
-0.00985228
-0.0129132
-0.0120644
-0.0145523
-0.0165774
-0.014332
-0.0187498
-0.0166923
-0.0215067
-0.0215625
-0.0191672
-0.0250017
-0.0224148
-0.0287141
-0.0287256
-0.0254161
-0.0330785
-0.0295326
-0.0376563
-0.0376715
-0.0330979
-0.0429683
-0.0368147
-0.0482718
-0.0542686
-0.0461883
-0.0603977
-0.0653983
-0.0556473
-0.0618335
-0.0560568
-0.0451026
-0.0354983
-0.0272462
-0.0205021
-0.0153147
-0.0117394
-0.0110386
-0.0102183
-0.00723861
-0.00719031
-0.00722937
-0.00776552
-0.0128607
-0.00975374
-0.00975257
-0.0127473
-0.00775985
-0.00767844
-0.00945922
-0.00928376
-0.00978713
-0.00928065
-0.0127956
-0.00972998
-0.00908144
-0.0116349
-0.00938521
-0.0104367
-0.0102769
-0.0110862
-0.0103035
-0.00710125
-0.00707901
-0.0108955
-0.00704506
-0.00717954
-0.0108316
-0.0102808
-0.0110047
-0.010422
-0.00897262
-0.0123688
-0.0119514
-0.0091753
-0.0114664
-0.00964571
-0.012309
-0.0122144
-0.0110046
-0.0141904
-0.0125402
-0.0160781
-0.0143197
-0.0186984
-0.0167391
-0.0215242
-0.0215063
-0.0190884
-0.0250405
-0.0216575
-0.028726
-0.033152
-0.0285592
-0.0376708
-0.0332409
-0.0255053
-0.0191955
-0.0143463
-0.0109727
-0.0102716
-0.011082
-0.0102981
-0.0101048
-0.0117943
-0.010287
-0.0104409
-0.0102754
-0.0101064
-0.0117916
-0.0109978
-0.0109806
-0.0143851
-0.0143222
-0.0192549
-0.0191452
-0.0202933
-0.0269373
-0.0351675
-0.0353217
-0.0451171
-0.0420813
-0.0410199
-0.0516494
-0.0616026
-0.0524825
-0.0748535
-0.0568749
-0.107681
-0.0761844
-0.0747157
-0.0709819
-0.0864326
-0.0784055
-0.0812722
-0.0780094
-0.107006
-0.0751947
-0.0743526
-0.0675445
-0.0805726
-0.0521649
-0.0532039
-0.0576135
-0.0832204
-0.0540363
-0.0560065
-0.0569785
-0.0836784
-0.0542847
-0.0560866
-0.0567527
-0.0834851
-0.0558451
-0.0573261
-0.0796033
-0.0615887
-0.0523815
-0.0522503
-0.0605478
-0.0645479
-0.0465392
-0.0589691
-0.0389452
-0.04661
-0.0568982
-0.0423467
-0.0538431
-0.0610271
-0.0526067
-0.0648482
-0.0703382
-0.0605343
-0.0565956
-0.0475854
-0.0577762
-0.0558441
-0.0717421
-0.0753269
-0.0739786
-0.0656742
-0.0525014
-0.0650386
-0.0572399
-0.0653486
-0.0524416
-0.0650333
-0.0572932
-0.0654247
-0.0525994
-0.0651045
-0.0753032
-0.0736316
-0.0640304
-0.0590981
-0.0707922
-0.0841301
-0.0628734
-0.0790323
-0.0802609
-0.0770946
-0.0640336
-0.0621026
-0.0625256
-0.105639
-0.0627493
-0.0695773
-0.101948
-0.0809237
-0.0775755
-0.0628847
-0.06197
-0.0797508
-0.0569087
-0.0567303
-0.0790899
-0.0605358
-0.0561337
-0.0559307
-0.0450831
-0.0355096
-0.0272589
-0.0205111
-0.0153206
-0.011743
-0.0110424
-0.0102246
-0.00704546
-0.0070842
-0.00940002
-0.00920158
-0.00928436
-0.0119044
-0.00913689
-0.00751357
-0.00769454
-0.00856139
-0.0078057
-0.0074958
-0.00885462
-0.0124163
-0.0092769
-0.012369
-0.00878123
-0.0121272
-0.00978932
-0.00955735
-0.00928624
-0.0127522
-0.00776153
-0.00776838
-0.0108341
-0.00721282
-0.0072085
-0.0077704
-0.00775707
-0.00767186
-0.00890622
-0.0121994
-0.00891257
-0.0128571
-0.00975104
-0.00975133
-0.00897468
-0.0075384
-0.00876605
-0.00818162
-0.0085862
-0.00892493
-0.00964041
-0.011802
-0.0152781
-0.0203448
-0.0270055
-0.0352449
-0.04499
-0.0449124
-0.0561561
-0.0562291
-0.0691684
-0.0562224
-0.0597364
-0.06005
-0.0978631
-0.069431
-0.0752067
-0.07757
-0.10484
-0.0555645
-0.0599568
-0.0601211
-0.0566096
-0.0608861
-0.0619459
-0.0961638
-0.0645502
-0.0666389
-0.0543374
-0.0623309
-0.071876
-0.0603939
-0.0517037
-0.056128
-0.0698518
-0.0696454
-0.0618767
-0.0621108
-0.0524595
-0.0411312
-0.0314872
-0.0237316
-0.0177102
-0.0174604
-0.0131287
-0.0131299
-0.0102957
-0.0104022
-0.0108916
-0.0141995
-0.0189669
-0.0252034
-0.032891
-0.0418861
-0.0517056
-0.0509495
-0.0510885
-0.0403084
-0.031005
-0.0233959
-0.0233733
-0.0174538
-0.0176912
-0.0133197
-0.0142119
-0.0152117
-0.0171781
-0.0200774
-0.0229581
-0.0161948
-0.0187449
-0.0161229
-0.0121309
-0.0138338
-0.0109773
-0.0109554
-0.0122358
-0.00973427
-0.0127917
-0.0087408
-0.00908691
-0.0102736
-0.0104381
-0.0108152
-0.00726234
-0.00719303
-0.00946911
-0.00926991
-0.00934671
-0.00939777
-0.00704206
-0.0108984
-0.00939964
-0.0094367
-0.00769795
-0.00955682
-0.00940208
-0.00919137
-0.00927396
-0.00930428
-0.00978371
-0.00927979
-0.00930674
-0.00946984
-0.009559
-0.00725007
-0.00780572
-0.00855457
-0.0108087
-0.00769417
-0.00750454
-0.0104335
-0.0102841
-0.0110845
-0.0102962
-0.0101052
-0.010286
-0.0110083
-0.0104247
-0.0092096
-0.0136254
-0.012049
-0.014353
-0.0142902
-0.0192073
-0.0191036
-0.0215623
-0.0250965
-0.0268777
-0.030635
-0.0356421
-0.0402006
-0.0286509
-0.0332649
-0.0287872
-0.0216901
-0.024704
-0.0182216
-0.0161245
-0.0242118
-0.0214521
-0.0255276
-0.0253986
-0.0255924
-0.0254561
-0.0333533
-0.0332269
-0.0423673
-0.0423075
-0.0402563
-0.0361465
-0.0425703
-0.0420275
-0.0326268
-0.0247423
-0.0184888
-0.0138407
-0.0136408
-0.0134098
-0.0153855
-0.0182148
-0.0178888
-0.0206014
-0.0243662
-0.0239209
-0.0206039
-0.0153878
-0.0136558
-0.0136396
-0.0134058
-0.0118359
-0.015435
-0.0206668
-0.0274608
-0.0273791
-0.0321064
-0.0314961
-0.0356556
-0.041313
-0.0404849
-0.0452276
-0.0515826
-0.0525054
-0.0522588
-0.0755891
-0.0528738
-0.0796651
-0.0615033
-0.0602259
-0.0764388
-0.0557332
-0.0788066
-0.0796183
-0.0814178
-0.0777388
-0.10622
-0.0751826
-0.0696686
-0.0654533
-0.082308
-0.0831878
-0.0620051
-0.0698256
-0.0801409
-0.0831317
-0.0768046
-0.0751528
-0.105603
-0.0780755
-0.0816635
-0.0819335
-0.0821443
-0.0817105
-0.0777605
-0.0823639
-0.0733553
-0.0684135
-0.0807732
-0.0534754
-0.0522007
-0.0567628
-0.0835069
-0.0558003
-0.0548281
-0.055796
-0.0839978
-0.0558672
-0.0550773
-0.0553998
-0.0837751
-0.0571014
-0.0626565
-0.105951
-0.0825557
-0.0772867
-0.0642619
-0.0620246
-0.0791034
-0.0605012
-0.0561232
-0.045236
-0.035634
-0.0273599
-0.0205895
-0.0153789
-0.0117891
-0.0136448
-0.013831
-0.012137
-0.0161196
-0.0187279
-0.0162022
-0.0215535
-0.0250756
-0.0268618
-0.030627
-0.0356212
-0.0401899
-0.0237399
-0.0331813
-0.0214345
-0.0285579
-0.017978
-0.0250607
-0.0161116
-0.021368
-0.0183931
-0.0176109
-0.0228551
-0.0215471
-0.0261235
-0.0295082
-0.0254695
-0.0331423
-0.0294592
-0.0377216
-0.0377006
-0.0332021
-0.0427805
-0.0380383
-0.0482467
-0.0422139
-0.054006
-0.047638
-0.0603793
-0.0604764
-0.0524438
-0.0654427
-0.0572809
-0.0651853
-0.0652851
-0.0524752
-0.0603673
-0.060416
-0.0651071
-0.057225
-0.0604107
-0.0525308
-0.0423279
-0.0333055
-0.025562
-0.0192408
-0.0143829
-0.0136205
-0.018214
-0.0192056
-0.0190964
-0.0255239
-0.0253876
-0.0287714
-0.0332388
-0.028661
-0.0377708
-0.0432082
-0.0463534
-0.0515722
-0.0589286
-0.0645609
-0.0389399
-0.0540663
-0.0357999
-0.0485908
-0.0307283
-0.0429927
-0.0280092
-0.0376192
-0.031972
-0.0305842
-0.0392077
-0.036826
-0.0443317
-0.0492617
-0.0423484
-0.0538466
-0.0475129
-0.0609834
-0.0601651
-0.0525066
-0.0656195
-0.0569395
-0.0648779
-0.0703062
-0.0526161
-0.0605195
-0.0565439
-0.057734
-0.0558057
-0.059388
-0.0559518
-0.0475332
-0.0496954
-0.0615873
-0.0652475
-0.044449
-0.0515702
-0.0417609
-0.032789
-0.0251237
-0.0189054
-0.0141518
-0.010855
-0.00874145
-0.00818908
-0.00917241
-0.00806453
-0.00617242
-0.0074495
-0.00874565
-0.00803308
-0.0110671
-0.00672198
-0.00795844
-0.0102982
-0.00930696
-0.00838255
-0.00913859
-0.0114875
-0.00969393
-0.0122126
-0.0109761
-0.0141856
-0.0125326
-0.0160929
-0.0160612
-0.0142807
-0.0187113
-0.0161842
-0.0215343
-0.0176869
-0.0174545
-0.0187179
-0.0131502
-0.0142152
-0.0117142
-0.011703
-0.00954036
-0.00885086
-0.00862887
-0.00902371
-0.00894797
-0.00861165
-0.00952735
-0.00787705
-0.0101163
-0.00932166
-0.0126488
-0.0109973
-0.0142293
-0.0125027
-0.0160764
-0.0161177
-0.0143491
-0.0187037
-0.0167481
-0.0215255
-0.0191319
-0.0250054
-0.0224043
-0.0287143
-0.0287104
-0.02537
-0.0330816
-0.0306351
-0.0232912
-0.025014
-0.0201587
-0.0201397
-0.01515
-0.0132531
-0.0142551
-0.0103907
-0.0116883
-0.00959052
-0.0102407
-0.0110691
-0.0116922
-0.011725
-0.0130314
-0.0145224
-0.0153307
-0.0131607
-0.0170545
-0.0160987
-0.0221264
-0.01916
-0.0250615
-0.0223406
-0.0287158
-0.0287642
-0.025463
-0.0330603
-0.0295445
-0.0376674
-0.0331449
-0.0428313
-0.0380353
-0.0482467
-0.0482998
-0.0421747
-0.0540008
-0.0422774
-0.0412571
-0.0320521
-0.0314793
-0.0273688
-0.0205961
-0.0153835
-0.011793
-0.0134067
-0.0136372
-0.0182079
-0.0184717
-0.0143889
-0.0192499
-0.0255745
-0.0325557
-0.0320898
-0.0243543
-0.0239129
-0.0178836
-0.0182224
-0.0136508
-0.0125467
-0.0142222
-0.0109765
-0.0142063
-0.0160952
-0.0143247
-0.0187131
-0.0187285
-0.0160859
-0.0160924
-0.0143524
-0.0187128
-0.0187587
-0.0161212
-0.0142514
-0.0110044
-0.0142004
-0.0122617
-0.0122229
-0.0122341
-0.0122453
-0.0109982
-0.0142277
-0.014207
-0.012544
-0.0160766
-0.0143452
-0.0187352
-0.0187174
-0.0167538
-0.0215156
-0.0191656
-0.0250497
-0.0250161
-0.0250128
-0.0250315
-0.0191377
-0.0215395
-0.0215305
-0.0167569
-0.0215323
-0.0191737
-0.0250103
-0.0250805
-0.0215663
-0.0167061
-0.0187536
-0.0192202
-0.0143317
-0.0160824
-0.0125123
-0.0142317
-0.0145348
-0.0109955
-0.0123107
-0.0122196
-0.0116789
-0.00913625
-0.0114967
-0.00970039
-0.0115999
-0.00912518
-0.0115821
-0.00969791
-0.0115082
-0.00913141
-0.0116566
-0.0122243
-0.0122878
-0.00964528
-0.0103936
-0.00950229
-0.00883937
-0.0065455
-0.0089871
-0.00855461
-0.00876267
-0.00877886
-0.00651458
-0.0088261
-0.00867006
-0.00854195
-0.00900257
-0.00654719
-0.0121398
-0.00899166
-0.00876726
-0.00767558
-0.0102997
-0.00901425
-0.00874362
-0.0087585
-0.00899507
-0.00840355
-0.00928318
-0.0102918
-0.00748707
-0.00898535
-0.0121305
-0.0087704
-0.0127453
-0.00974824
-0.0110045
-0.011003
-0.0143882
-0.0192522
-0.0243661
-0.0224261
-0.0287266
-0.0254209
-0.0330769
-0.0331076
-0.0330679
-0.0331964
-0.0254703
-0.0287365
-0.0287678
-0.0223605
-0.0250668
-0.0257452
-0.0191608
-0.0215178
-0.022133
-0.0161148
-0.0170721
-0.0195837
-0.0176376
-0.0228781
-0.0261559
-0.0234882
-0.0302981
-0.0344028
-0.0306273
-0.0392493
-0.0443793
-0.0389996
-0.0490377
-0.0494475
-0.0454316
-0.0393136
-0.0356691
-0.0304682
-0.0273176
-0.0231178
-0.020539
-0.0173083
-0.0153449
-0.0131746
-0.0145761
-0.0165788
-0.0120767
-0.0129207
-0.0110838
-0.00987011
-0.0117001
-0.0130385
-0.010243
-0.0101232
-0.00933098
-0.0119563
-0.0091717
-0.0114688
-0.00965241
-0.0104023
-0.00957702
-0.00894992
-0.00672947
-0.00797349
-0.0110647
-0.00617481
-0.00875511
-0.00788017
-0.00952608
-0.00861282
-0.00745405
-0.00803628
-0.0093026
-0.00839657
-0.0102979
-0.00862881
-0.00884106
-0.00950858
-0.0116644
-0.0117091
-0.0151778
-0.020214
-0.0268172
-0.0254706
-0.0331498
-0.0341361
-0.0295195
-0.0287321
-0.0234957
-0.0176047
-0.0132745
-0.0132187
-0.0151069
-0.0200831
-0.0266074
-0.0309384
-0.0294863
-0.0377013
-0.0332107
-0.0427814
-0.0430488
-0.0428747
-0.0444601
-0.033235
-0.0377453
-0.0386725
-0.0284846
-0.0237457
-0.0313137
-0.0309459
-0.040186
-0.0406924
-0.0432346
-0.046383
-0.0515795
-0.0358275
-0.0401397
-0.0315627
-0.0280312
-0.033275
-0.0331497
-0.0377988
-0.0422963
-0.0422532
-0.0484733
-0.0370346
-0.0419276
-0.0333211
-0.0423441
-0.0524561
-0.0516121
-0.0413013
-0.0404846
-0.031487
-0.0320928
-0.0356449
-0.0357523
-0.0356575
-0.0273815
-0.0243902
-0.0243561
-0.0182103
-0.0178821
-0.0182136
-0.0184667
-0.0246963
-0.0216995
-0.0236951
-0.0177102
-0.017487
-0.0175316
-0.0176183
-0.0131824
-0.0131537
-0.0103097
-0.0104066
-0.00857434
-0.0133322
-0.0234873
-0.0234164
-0.0309984
-0.0311104
-0.0313138
-0.040401
-0.0402453
-0.0407388
-0.0313498
-0.0484225
-0.0547653
-0.046554
-0.0604582
-0.0517636
-0.0510156
-0.0620306
-0.0622452
-0.0603452
-0.0719815
-0.0961261
-0.0981049
-0.0563684
-0.0728202
-0.100774
-0.0792683
-0.0630401
-0.077976
-0.078836
-0.0641646
-0.0625173
-0.106775
-0.080792
-0.0781844
-0.101398
-0.0868173
-0.0869072
-0.0819457
-0.079628
-0.0559736
-0.0789911
-0.0603384
-0.056009
-0.0452287
-0.0413467
-0.0321358
-0.0320896
-0.0333578
-0.0332686
-0.0331323
-0.0422873
-0.0422314
-0.0401235
-0.0315485
-0.0242009
-0.0341092
-0.0386566
-0.0332331
-0.0428675
-0.0379572
-0.0485027
-0.0482212
-0.0422764
-0.0538799
-0.0476119
-0.054027
-0.0423185
-0.0332984
-0.032077
-0.0325443
-0.0419133
-0.037047
-0.0412985
-0.0404798
-0.0314831
-0.0239103
-0.024354
-0.0192395
-0.0143789
-0.0109959
-0.0142312
-0.0131792
-0.0160872
-0.0103348
-0.0122623
-0.0116103
-0.00866852
-0.00902167
-0.00879104
-0.00645632
-0.00887153
-0.00957334
-0.0174912
-0.0175738
-0.0187571
-0.0151944
-0.017297
-0.0195587
-0.0205194
-0.0202344
-0.0231017
-0.0257245
-0.0272912
-0.0234561
-0.0302657
-0.028454
-0.0343615
-0.030446
-0.0356348
-0.0350064
-0.0268443
-0.0234526
-0.0250743
-0.0233379
-0.0250285
-0.0266839
-0.0308801
-0.0331849
-0.0306958
-0.0376682
-0.0347555
-0.0397668
-0.043029
-0.0392869
-0.0444267
-0.0453914
-0.0389484
-0.048991
-0.0465709
-0.0568625
-0.0494215
-0.0446414
-0.0555153
-0.0647051
-0.0641884
-0.0635046
-0.0682733
-0.0650984
-0.0598554
-0.0498387
-0.054368
-0.0442476
-0.0549946
-0.0642116
-0.0694623
-0.0662784
-0.0593919
-0.0492596
-0.0394324
-0.048284
-0.0428575
-0.0347877
-0.0267078
-0.0442939
-0.0550843
-0.0643817
-0.0698187
-0.0663268
-0.0593864
-0.0492047
-0.0393613
-0.0428316
-0.0399897
-0.0310747
-0.0236084
-0.0188775
-0.0141394
-0.0108444
-0.0102302
-0.0138755
-0.0250676
-0.0326468
-0.0415088
-0.0501097
-0.0601466
-0.0647353
-0.0710276
-0.0659929
-0.0532974
-0.0595308
-0.0646807
-0.064216
-0.0551501
-0.0547951
-0.0441053
-0.0346369
-0.026586
-0.0200628
-0.0150896
-0.011652
-0.0116475
-0.00951188
-0.0103601
-0.0103573
-0.00866657
-0.0102976
-0.00861869
-0.0089447
-0.00956347
-0.0116891
-0.0132676
-0.0125045
-0.0160597
-0.0161235
-0.0143844
-0.0136481
-0.0134036
-0.010104
-0.0136314
-0.0138272
-0.010419
-0.00896904
-0.0123631
-0.0122457
-0.00787549
-0.0136179
-0.0184626
-0.0182187
-0.0178787
-0.0181968
-0.0243324
-0.0239057
-0.0243616
-0.0192444
-0.0255689
-0.0255759
-0.0333179
-0.0412955
-0.0380561
-0.0428737
-0.0331468
-0.0428098
-0.0483137
-0.0422097
-0.0539312
-0.0540592
-0.0482181
-0.0483324
-0.0422813
-0.0538594
-0.0543985
-0.0482116
-0.0379918
-0.0485348
-0.0492805
-0.0368653
-0.0307353
-0.0398415
-0.0349711
-0.0445957
-0.0554509
-0.055983
-0.0593976
-0.0641841
-0.0635165
-0.0646338
-0.0682951
-0.0650885
-0.0599239
-0.0499243
-0.0441182
-0.0346554
-0.0395493
-0.0307902
-0.0377017
-0.0376612
-0.0376987
-0.0376644
-0.0332175
-0.042931
-0.0428376
-0.0380583
-0.0482621
-0.0423213
-0.0541414
-0.0540157
-0.047653
-0.0603521
-0.0606036
-0.0604571
-0.0475831
-0.0524828
-0.0516686
-0.0452474
-0.0453398
-0.0505
-0.0560079
-0.0523985
-0.0523314
-0.0759719
-0.0553968
-0.0523645
-0.0788335
-0.0795299
-0.082118
-0.0777889
-0.0818034
-0.0821819
-0.0792107
-0.055009
-0.0779251
-0.058611
-0.0768161
-0.0771612
-0.0768233
-0.0769991
-0.0760432
-0.0648972
-0.0812773
-0.105647
-0.0567363
-0.0783886
-0.0862168
-0.0816888
-0.0869266
-0.0814081
-0.0775393
-0.102681
-0.0816358
-0.0573197
-0.0627512
-0.106271
-0.0621652
-0.0789612
-0.0570694
-0.077411
-0.0587389
-0.05614
-0.0505345
-0.0516073
-0.0516175
-0.0524415
-0.0516079
-0.041277
-0.0516189
-0.0505793
-0.0404863
-0.0413028
-0.0320895
-0.0325321
-0.0333211
-0.0423756
-0.042337
-0.0516246
-0.0525413
-0.0497146
-0.0444757
-0.0720565
-0.0487719
-0.0622082
-0.0659013
-0.0584736
-0.0619541
-0.0672929
-0.0760372
-0.0551499
-0.0521802
-0.0790107
-0.0603422
-0.0587427
-0.0769944
-0.0548179
-0.0781136
-0.0793056
-0.0795975
-0.0823049
-0.0734955
-0.0812435
-0.105581
-0.0783794
-0.0817118
-0.0819576
-0.0820708
-0.0822995
-0.0793001
-0.0553443
-0.0781126
-0.0811775
-0.0821214
-0.0811114
-0.0794083
-0.0551738
-0.0783049
-0.0588733
-0.0774068
-0.0775722
-0.069633
-0.0525636
-0.052544
-0.0695109
-0.0691796
-0.0499318
-0.0526806
-0.0525524
-0.0604196
-0.0691495
-0.0694282
-0.0696866
-0.0641936
-0.076946
-0.058942
-0.0490109
-0.0444488
-0.0349053
-0.0267789
-0.0201861
-0.0151534
-0.0175983
-0.0215656
-0.021495
-0.016698
-0.018215
-0.0246891
-0.0223475
-0.0286946
-0.028775
-0.0254656
-0.0331459
-0.0330849
-0.0287139
-0.0224223
-0.0287417
-0.0234062
-0.0200539
-0.0150887
-0.0175455
-0.0175431
-0.0132166
-0.0234104
-0.0265616
-0.0345943
-0.0440412
-0.049389
-0.0604896
-0.0602797
-0.0604869
-0.0493593
-0.0395251
-0.0307792
-0.0295549
-0.0308934
-0.0377421
-0.0376633
-0.0294662
-0.0315505
-0.0241982
-0.0419028
-0.0379683
-0.0483028
-0.0483818
-0.0397137
-0.0391164
-0.0303935
-0.0230845
-0.0172874
-0.0130171
-0.0102246
-0.00860111
-0.00951513
-0.0116855
-0.0153349
-0.0205182
-0.0234822
-0.0272979
-0.0355875
-0.045302
-0.0496817
-0.0597778
-0.0571181
-0.0595059
-0.0547189
-0.05482
-0.064025
-0.0693904
-0.0662416
-0.0595017
-0.0639464
-0.0692404
-0.0664693
-0.0639314
-0.0703024
-0.0662573
-0.0701156
-0.0401498
-0.0476272
-0.0601242
-0.0475493
-0.0558346
-0.065092
-0.0789444
-0.0812246
-0.081627
-0.0862034
-0.0813909
-0.0868988
-0.086903
-0.0867961
-0.081297
-0.0819604
-0.08662
-0.102568
-0.0831067
-0.0870225
-0.0934079
-0.0916248
-0.103112
-0.103168
-0.101582
-0.102855
-0.102715
-0.0693798
-0.069445
-0.0505392
-0.0796031
-0.0592141
-0.0693721
-0.076645
-0.0295588
-0.0569715
-0.0827975
-0.0255594
-0.0330999
-0.0410451
-0.0314881
-0.0248157
-0.0180914
-0.0407955
-0.0245047
-0.0192043
-0.0215187
-0.01873
-0.015164
-0.102699
-0.0547723
-0.0236683
-0.0179821
-0.0215695
-0.00654361
-0.0126489
-0.00789193
-0.0100906
-0.0134383
-0.0137517
-0.00820357
-0.0142851
-0.0652317
-0.0694916