/*--------------------------------*- C++ -*----------------------------------*\
| =========                 |                                                 |
| \\      /  F ield         | OpenFOAM: The Open Source CFD Toolbox           |
|  \\    /   O peration     | Version:  2306                                  |
|   \\  /    A nd           | Website:  www.openfoam.com                      |
|    \\/     M anipulation  |                                                 |
\*---------------------------------------------------------------------------*/
FoamFile
{
    version     2.0;
    format      ascii;
    arch        "LSB;label=32;scalar=64";
    class       volVectorField;
    location    "0.5";
    object      flux;
}
// * * * * * * * * * * * * * * * * * * * * * * * * * * * * * * * * * * * * * //

dimensions      [0 1 -1 1 0 0 0];

internalField   nonuniform List<vector> 
5712
(
(-0.368932 0.595581 0.415201)
(-0.473226 0.343459 1.35349)
(-0.851837 0.942875 0.335)
(-1.26656 0.628147 1.38327)
(-1.30128 1.03384 0.243909)
(-2.23467 0.775019 1.40442)
(-0.976524 1.56821 0.368311)
(-2.46034 2.01733 2.07757)
(-0.778061 2.08548 0.449483)
(-1.70419 2.62819 2.83232)
(-1.16316 1.37457 0.456624)
(-1.7831 1.21496 2.1161)
(-1.02752 0.871235 0.450699)
(-1.37687 0.705821 1.78609)
(-0.457495 0.446287 0.469784)
(-0.531386 0.303809 1.61295)
(-0.873986 0.929997 0.281238)
(-1 0.896325 0.181716)
(-1.09909 0.822614 0.760975)
(-1.09655 0.932015 0.457526)
(-0.839407 1.24181 0.266622)
(-1.00733 1.04393 0.142215)
(-1.22192 1.49789 0.794424)
(-1.0895 1.13889 0.388133)
(-0.31625 0.408066 0.328415)
(-0.252894 0.287835 0.255988)
(-0.391921 0.233973 1.04513)
(-0.278225 0.181373 0.783078)
(-0.74376 0.467124 0.248337)
(-0.623927 0.386177 0.196815)
(-1.2496 0.294011 1.02448)
(-0.943089 0.253281 0.790597)
(-0.961252 0.959023 0.58682)
(-1.00549 0.947223 0.25286)
(-1.11675 0.915391 0.510301)
(-1.10257 0.698354 0.233536)
(-0.430847 0.677674 0.250998)
(-0.322359 0.56784 0.568274)
(-2.194 0.541793 1.88297)
(-2.93619 0.630707 0.496393)
(-1.44844 0.8612 0.677299)
(-1.77111 0.871877 0.206342)
(-2.84175 1.92441 2.33327)
(-3.70146 2.00828 0.613405)
(-1.49199 1.27993 0.601366)
(-1.71206 1.34053 0.180142)
(-1.68195 0.843068 1.39929)
(-2.37476 0.708694 0.425783)
(-1.50808 0.849868 0.715463)
(-1.97941 0.586627 0.236372)
(-0.905396 0.400017 1.26377)
(-1.43542 0.425357 0.395389)
(-0.186656 0.378999 0.471857)
(-0.0646771 0.619944 0.233822)
(-0.194717 0.200651 0.597875)
(-0.0718739 0.269215 0.24184)
(-0.559677 0.510954 0.511592)
(-0.231982 0.81176 0.274357)
(-0.753434 0.313355 0.578328)
(-0.285311 0.398215 0.231742)
(-0.566566 0.535958 0.616069)
(-0.217696 1.07297 0.358828)
(-0.572633 0.381845 0.493695)
(-0.189831 0.70399 0.225966)
(-0.954599 0.138896 0.692078)
(-0.313241 0.412919 0.258776)
(-1.23072 0.116242 0.232676)
(-0.427177 0.307365 0.0842872)
(-1.29543 0.761138 0.743704)
(-0.673834 0.947896 0.521437)
(-1.20794 0.829558 0.438882)
(-0.718843 0.969098 0.316113)
(-1.14654 0.893787 0.721596)
(-0.738653 0.875873 0.580019)
(-1.03303 0.955756 0.383724)
(-0.74152 0.887815 0.313529)
(-1.01918 0.754972 0.460226)
(-0.629333 1.04954 0.322183)
(-1.01871 0.738438 0.695824)
(-0.557424 1.01486 0.485287)
(-1.26247 0.83628 0.272799)
(-0.786248 0.977337 0.194248)
(-1.27419 0.845945 0.117115)
(-0.790657 0.982113 0.0938134)
(-1.107 0.991313 0.231894)
(-0.778419 0.890112 0.188807)
(-1.12593 1.00069 0.0956661)
(-0.776666 0.887247 0.0927782)
(-1.10293 0.709873 0.290383)
(-0.708901 1.06658 0.19336)
(-1.14498 0.692453 0.131406)
(-0.724997 1.07712 0.0826344)
(-1.07284 1.00423 0.443588)
(-0.498827 1.30949 0.254294)
(-0.553482 1.26774 0.353055)
(-0.714577 1.99099 0.433369)
(-1.06567 1.06315 0.639061)
(-0.548379 1.54617 0.470779)
(-0.493483 1.25145 0.536122)
(-0.731047 2.19887 0.754217)
(-1.1402 0.954439 0.278455)
(-0.49246 1.1382 0.140416)
(-0.615706 1.27625 0.197939)
(-0.715834 1.90067 0.241889)
(-1.20169 0.94901 0.125462)
(-0.50353 1.06023 0.0563201)
(-0.662455 1.29531 0.0750444)
(-0.743221 1.88662 0.0844813)
(-0.238244 0.387695 0.674482)
(-0.259905 0.528155 1.18153)
(-0.0836493 1.01036 0.446788)
(-0.175938 1.852 1.31538)
(-0.67997 0.46063 0.767679)
(-0.715322 0.539674 1.13984)
(-0.282689 1.25693 0.539725)
(-0.533273 2.03374 1.35587)
(-0.862943 0.539773 0.839929)
(-0.926016 0.54663 1.00499)
(-0.471747 1.53133 0.67433)
(-0.814164 2.15531 1.29008)
(-0.486214 1.08843 0.764229)
(0.0255362 1.02486 0.772246)
(-0.674816 1.05495 0.690361)
(-0.94787 1.15024 0.700701)
(-0.584366 1.9424 0.763999)
(0.0507716 1.00224 0.756351)
(-0.231405 1.0609 0.840992)
(-0.622132 1.05739 0.957077)
(-1.08823 1.01398 1.0667)
(-0.928892 2.27868 1.54674)
(-0.496003 0.92402 0.625676)
(-0.661624 1.00402 0.583494)
(-0.659881 1.0111 0.582499)
(-0.642372 1.18708 0.690303)
(-1.04895 2.53942 1.06968)
(-0.208806 0.131108 1.36743)
(-0.15515 0.157422 1.20501)
(-0.125661 0.289972 1.57892)
(-0.117588 0.753202 1.50165)
(-0.570578 0.180042 1.24415)
(-0.428886 0.207173 1.13468)
(-0.382564 0.37796 1.54344)
(-0.343573 0.794884 1.45573)
(-0.685921 0.250006 1.05744)
(-0.500823 0.206751 1.01817)
(-0.504967 0.484948 1.42446)
(-0.423326 0.844443 1.38255)
(-0.188124 0.920331 0.552744)
(-0.246393 0.796453 0.434755)
(-0.433812 0.921597 0.642705)
(-0.45027 0.783923 0.571708)
(-0.676059 0.922013 0.781677)
(-0.579338 0.720692 0.732007)
(-0.806186 0.7588 0.917217)
(-0.638146 0.602018 0.901059)
(-0.674248 0.601381 1.27544)
(-0.543468 0.926055 1.30953)
(-0.380824 0.865781 0.507631)
(-0.330677 0.743736 0.45441)
(-0.540561 0.961876 0.585337)
(-0.333011 0.848659 0.612894)
(-0.557567 0.940788 0.683876)
(-0.317838 0.798366 0.778331)
(-0.548517 0.882973 0.825067)
(-0.30342 0.738204 0.967642)
(-0.728202 0.62501 1.09893)
(-0.426003 0.895844 1.29495)
(-0.469981 0.986318 0.463932)
(-0.127467 1.06336 0.349223)
(-0.436028 0.990017 0.295302)
(-0.375604 1.10366 0.339743)
(-0.52549 0.875915 0.527713)
(-0.57688 0.856084 0.572822)
(-0.587795 0.86528 0.343852)
(-0.74476 0.883132 0.496059)
(-0.401114 0.994233 0.291342)
(-0.342278 0.983447 0.339614)
(-0.465534 0.989035 0.462674)
(-0.0572084 0.952559 0.36898)
(-0.399316 0.98342 0.0768308)
(-0.620747 1.11362 0.212226)
(-0.382784 0.983422 0.0187163)
(-0.67469 1.11854 0.0617852)
(-0.585266 0.844507 0.161819)
(-0.93159 0.904333 0.316331)
(-0.592897 0.841318 0.0404375)
(-1.00073 0.907221 0.0946954)
(-0.359987 0.993073 0.0596177)
(-0.594643 0.977075 0.205091)
(-0.339265 0.996016 0.0114928)
(-0.642354 0.978965 0.0591488)
(-0.524924 0.92478 0.31617)
(-0.317248 0.865252 0.294072)
(-0.768428 0.621381 0.383485)
(-0.267284 0.73738 0.236706)
(-0.497806 0.927607 0.522558)
(-0.0198252 0.851674 0.410188)
(-0.663168 0.615702 0.641564)
(0.00726382 0.757426 0.441888)
(-0.516657 0.929948 0.095138)
(-0.485297 0.855655 0.154302)
(-0.803938 0.63379 0.189136)
(-0.339537 0.733152 0.106321)
(-0.450641 0.931652 0.0824037)
(-0.574558 0.844186 0.0987643)
(-0.733718 0.652857 0.119162)
(-0.439059 0.730204 0.0851752)
(-0.104535 0.0883698 0.953812)
(-0.0782684 0.0449978 0.572049)
(-0.0535115 0.0240545 0.182453)
(-0.0793193 0.0448928 1.07506)
(-0.0618626 0.0204305 0.611133)
(-0.044796 0.0164181 0.198434)
(-0.293851 0.126225 0.911986)
(-0.183063 0.0514254 0.562342)
(-0.119032 0.0292886 0.191118)
(-0.214764 0.081572 1.04575)
(-0.12977 0.0492422 0.606521)
(-0.085133 0.0310463 0.196928)
(-0.313561 0.124889 0.82455)
(-0.20258 0.065996 0.509815)
(-0.154857 0.0499368 0.166847)
(-0.253835 0.136059 1.00184)
(-0.150008 0.0811815 0.597529)
(-0.114266 0.0575235 0.196451)
(-0.175513 0.612057 0.307567)
(-0.106397 0.408243 0.185718)
(-0.0849933 0.291993 0.0578339)
(-0.344463 0.615952 0.46873)
(-0.17657 0.426049 0.30681)
(-0.112767 0.312097 0.102677)
(-0.39035 0.484027 0.623488)
(-0.199344 0.330765 0.413579)
(-0.11679 0.248234 0.139564)
(-0.414667 0.385725 0.770957)
(-0.234258 0.23518 0.492118)
(-0.159814 0.167619 0.161633)
(-0.350572 0.210486 0.977715)
(-0.170064 0.105344 0.601174)
(-0.100158 0.0671311 0.203194)
(-0.469985 0.586004 0.345676)
(-0.295311 0.397064 0.212477)
(-0.186696 0.278286 0.0746161)
(-0.36028 0.667697 0.478538)
(-0.221811 0.441901 0.340736)
(-0.126179 0.306002 0.128096)
(-0.385902 0.557141 0.62374)
(-0.219058 0.335739 0.444826)
(-0.114882 0.223334 0.162989)
(-0.381477 0.407943 0.790176)
(-0.204545 0.221238 0.54069)
(-0.10236 0.144168 0.19211)
(-0.476451 0.220397 0.990925)
(-0.216577 0.101151 0.615093)
(-0.0839906 0.0586847 0.21585)
(-0.485884 1.16463 0.00996212)
(-0.630757 1.08169 0.0797844)
(-0.405303 1.32016 0.111119)
(-0.501213 1.12187 0.162525)
(-0.587188 1.38313 0.10914)
(-0.816288 1.13318 0.115222)
(-0.548001 1.74985 0.265475)
(-0.749174 1.24344 0.242237)
(0.000644552 0.829087 0.0219108)
(-0.0253844 0.769878 0.0309763)
(0.0189881 0.833525 0.0233428)
(-0.00874149 0.71396 0.0321493)
(-0.122556 0.94334 0.0136797)
(-0.123323 0.817398 0.0430467)
(-0.0618049 0.949229 0.0274572)
(-0.0372241 0.749324 0.0574429)
(-0.0593279 0.931711 0.10264)
(-0.121796 0.891196 0.0522811)
(-0.408359 0.854437 0.140206)
(-0.5625 0.878913 0.0840764)
(-0.247588 1.04157 0.0672896)
(-0.159554 0.973725 0.11118)
(-0.48087 1.21762 0.12951)
(-0.483447 1.25689 -0.00627806)
(-0.79702 1.39462 0.286733)
(-0.8824 1.46715 0.0366384)
(0.00501442 0.963908 -0.12524)
(0.161076 1.02202 -0.0361619)
(-0.341123 0.867248 0.0388299)
(-0.317925 0.854352 0.00164205)
(-0.287796 0.994897 0.00232613)
(-0.217955 1.03364 -0.0208845)
(-0.0400796 0.553963 0.292611)
(-0.0205812 0.269929 0.107913)
(-0.0327607 0.528744 0.0771581)
(-0.0173017 0.301257 0.0393282)
(-0.0867953 0.571391 0.299152)
(-0.0126952 0.271592 0.110606)
(-0.0120409 0.534055 0.0973037)
(0.0109526 0.297718 0.0482877)
(-0.355134 0.575353 0.300348)
(-0.0794948 0.271499 0.116969)
(-0.262036 0.547558 0.133053)
(-0.0688022 0.312767 0.071735)
(-0.355972 0.5412 0.0816185)
(-0.100415 0.328403 0.043948)
(-0.420175 0.552347 0.00425018)
(-0.117092 0.32176 0.00897049)
(-0.430613 0.808064 0.508896)
(-0.485527 0.637513 0.425996)
(-0.394033 0.834978 0.227068)
(-0.472881 0.651953 0.220223)
(-0.713734 0.937883 0.624188)
(-0.680518 0.801181 0.556828)
(-0.679952 0.987201 0.297883)
(-0.642709 0.812877 0.279804)
(-0.248603 0.775641 0.170724)
(-0.334512 0.498295 0.164728)
(-0.286305 0.780628 0.383527)
(-0.332422 0.480428 0.294484)
(-0.412272 0.8763 0.117749)
(-0.456514 0.656933 0.120781)
(-0.444592 0.896902 0.0410264)
(-0.454908 0.650009 0.058762)
(-0.710264 1.04188 0.167264)
(-0.631845 0.817861 0.158097)
(-0.739718 1.05436 0.0667632)
(-0.628484 0.810151 0.0775659)
(-0.247012 0.785434 0.0809927)
(-0.323261 0.504592 0.0906897)
(-0.259857 0.789185 0.0215113)
(-0.322765 0.50015 0.0464613)
(-0.00114093 0.45538 0.127199)
(-0.0274726 0.264538 0.0643791)
(-0.215302 0.356513 0.117337)
(-0.0911974 0.210275 0.0583939)
(0.00968285 0.408243 0.21708)
(-0.0172364 0.231141 0.091064)
(-0.198359 0.335145 0.186783)
(-0.0795477 0.19413 0.0863642)
(-0.0129593 0.475086 0.0588794)
(-0.0343574 0.283326 0.0382885)
(-0.218293 0.364712 0.0658832)
(-0.0987175 0.216742 0.032378)
(-0.0209711 0.477387 0.0110855)
(-0.0376583 0.29196 0.0121993)
(-0.214377 0.361841 0.0331547)
(-0.0988295 0.216231 0.013213)
(0.0157604 0.0768392 0.325441)
(0.0179918 0.0355496 0.177723)
(-0.00640937 0.133124 0.129607)
(0.000239667 0.0698581 0.104991)
(0.0739701 0.0802099 0.329464)
(0.0689304 0.0419326 0.190553)
(0.0027089 0.139786 0.129192)
(0.0112354 0.0809211 0.105202)
(0.00546015 0.096589 0.357855)
(0.0406208 0.0624208 0.218364)
(-0.0407485 0.153114 0.131468)
(-0.0174715 0.103343 0.10636)
(0.334667 0.409452 0.555085)
(0.383128 0.704506 0.685403)
(0.157641 0.279046 0.438807)
(0.110616 0.256922 0.24675)
(0.0157412 0.173182 0.0989121)
(0.413431 0.6602 0.630156)
(0.358685 0.410879 0.502403)
(0.114367 0.213983 0.398464)
(0.156177 0.211287 0.274498)
(0.0275895 0.136301 0.122395)
(-0.446648 0.727209 0.589516)
(-0.323126 0.525526 0.460972)
(-0.242721 0.385023 0.315837)
(-0.18462 0.275111 0.200076)
(-0.0759546 0.164657 0.0861806)
(0.0138834 0.0157433 0.109375)
(0.00964577 0.00753211 0.0701831)
(0.00196672 0.0394298 0.0814168)
(0.00173663 0.0261483 0.0661873)
(0.0473959 0.0207196 0.124915)
(0.0343875 0.00936636 0.0782941)
(0.0073183 0.0506297 0.0868583)
(0.00568903 0.0345384 0.0701393)
(0.0486509 0.0358907 0.153798)
(0.0463126 0.0184859 0.0981876)
(-0.00477188 0.0703976 0.0960451)
(-0.00210354 0.0490854 0.0778705)
(0.166349 0.623929 0.459027)
(0.0449666 0.522003 0.31579)
(0.227921 0.371239 0.361327)
(0.105428 0.297157 0.233037)
(0.0764828 0.210461 0.237617)
(0.039714 0.170015 0.167536)
(0.0814348 0.166652 0.17874)
(0.0532848 0.115615 0.125916)
(0.00302451 0.106058 0.0957773)
(-0.00591744 0.0736827 0.0846624)
(-0.167763 0.612646 0.384624)
(-0.0953042 0.48297 0.320625)
(-0.0672741 0.42474 0.289997)
(0.00534613 0.308652 0.232127)
(-0.0455366 0.296435 0.206196)
(0.00484463 0.207184 0.164551)
(-0.0394404 0.204826 0.141873)
(-0.00452086 0.139135 0.116929)
(-0.0205559 0.132966 0.0724246)
(-0.0154029 0.10135 0.0793845)
(-0.195871 0.464734 0.259335)
(-0.150036 0.306182 0.168284)
(-0.348275 0.482001 0.162928)
(-0.192897 0.315102 0.0996951)
(-0.328298 0.620954 0.390073)
(-0.276149 0.45195 0.283575)
(-0.483028 0.637365 0.255871)
(-0.347731 0.469821 0.201142)
(-0.232546 0.358644 0.110706)
(-0.121733 0.229157 0.0653108)
(-0.122358 0.33792 0.169801)
(-0.0983353 0.217995 0.114224)
(-0.404032 0.490152 0.146983)
(-0.17161 0.318271 0.0684475)
(-0.436469 0.487447 0.0373271)
(-0.188769 0.31788 0.0186115)
(-0.533366 0.642942 0.179493)
(-0.358697 0.490478 0.127417)
(-0.562524 0.638699 0.0438974)
(-0.385729 0.491065 0.0363293)
(-0.279096 0.370447 0.107741)
(-0.103434 0.231072 0.0453562)
(-0.305752 0.368662 0.0292243)
(-0.116493 0.232595 0.0126088)
(-0.140173 0.248744 0.0679781)
(-0.0857424 0.158909 0.0525248)
(-0.0591048 0.158098 0.03709)
(-0.0725619 0.125697 0.0458352)
(-0.0875054 0.233747 0.102084)
(-0.0749706 0.14842 0.0788723)
(-0.0486902 0.150105 0.0495844)
(-0.0663181 0.115175 0.0584674)
(-0.160879 0.261437 0.0678765)
(-0.0828526 0.164113 0.0355301)
(-0.0654995 0.162323 0.0261865)
(-0.0829928 0.132399 0.0306286)
(-0.194468 0.265795 0.0118186)
(-0.088472 0.163621 0.00405193)
(-0.0913315 0.16837 -0.00870362)
(-0.0838699 0.133415 -0.000214555)
(0.00612754 0.0110053 0.040367)
(0.0044128 0.00759992 0.0164103)
(0.00415056 0.00513362 0.00459715)
(0.000671236 0.0508383 0.0382699)
(0.00148651 0.0200627 0.0108735)
(0.0014027 0.0130865 0.00285078)
(0.0231692 0.0107166 0.0467643)
(0.0173314 0.00874713 0.0200149)
(0.0142421 0.00634416 0.00589284)
(0.00266375 0.0581874 0.0414441)
(0.00449419 0.0249391 0.0124323)
(0.00385164 0.0169556 0.00338559)
(0.0347037 0.0177195 0.0568354)
(0.026426 0.0156361 0.0257443)
(0.0210787 0.0128506 0.00713678)
(-0.00318519 0.0702391 0.0465922)
(0.00465903 0.0337292 0.0146575)
(0.00511849 0.0238925 0.00377389)
(0.00956844 0.384128 0.201193)
(0.00876734 0.263099 0.112184)
(0.00123835 0.195306 0.0325762)
(0.0448266 0.215412 0.13784)
(0.0387616 0.149743 0.0709751)
(0.0296915 0.11451 0.0205915)
(0.0288673 0.127064 0.100228)
(0.0269856 0.0886381 0.0491851)
(0.022753 0.069421 0.014524)
(0.0366153 0.0851973 0.0725613)
(0.0288909 0.0582497 0.0332536)
(0.0230249 0.0444243 0.00889231)
(-0.0102642 0.0886192 0.0516727)
(0.00138112 0.0453864 0.0162646)
(0.00228267 0.031977 0.00364875)
(-0.12119 0.348257 0.233143)
(-0.0603651 0.228117 0.125274)
(-0.029743 0.160151 0.0397436)
(-0.00732211 0.208729 0.161915)
(0.00956369 0.133205 0.0803858)
(0.0154174 0.0945298 0.0242685)
(-0.00322816 0.137384 0.113412)
(0.0121908 0.085614 0.0545339)
(0.0160395 0.0610176 0.016177)
(-0.00302155 0.10227 0.0789716)
(0.00992234 0.0619133 0.0348695)
(0.0119077 0.0426975 0.00967587)
(-0.0200467 0.117137 0.0565133)
(0.00140306 0.0533632 0.0161193)
(0.00352984 0.0354152 0.00416708)
(-0.000486936 0.114935 0.0322619)
(-0.000137463 0.0470227 0.00898083)
(-3.202e-05 0.0189338 0.00209794)
(4.40064e-05 0.00702814 0.00021266)
(0.0029739 0.131156 0.013285)
(0.000957338 0.0521881 0.00378595)
(0.000499196 0.0204301 0.000954165)
(0.000257913 0.00742085 0.000161965)
(-0.00217765 0.115159 0.0332061)
(-0.000634588 0.0469219 0.00936715)
(0.00033472 0.0189329 0.00233153)
(0.000402385 0.00702935 0.000378636)
(0.00361727 0.133397 0.0155809)
(0.00119974 0.0533493 0.0045491)
(0.00129257 0.0211777 0.00156392)
(0.000756984 0.00777051 0.000517891)
(-0.00711165 0.114618 0.034281)
(-0.00184343 0.0462824 0.00977957)
(0.000475226 0.0195603 0.00287287)
(0.000848251 0.0074729 0.000752804)
(-0.00310978 0.136134 0.0230001)
(-0.000524347 0.053879 0.00698819)
(0.000415207 0.0224934 0.00153053)
(0.000402649 0.00852325 0.00023069)
(-0.00411603 0.146586 0.0121188)
(-0.000716738 0.0569681 0.00415949)
(-0.000198542 0.0219273 0.000139642)
(-4.36672e-05 0.00789895 -0.000363216)
(-0.0065924 0.148238 0.00523563)
(-0.00156818 0.058205 0.00242729)
(2.8548e-05 0.0217731 0.000531071)
(0.000232976 0.00775019 0.00012105)
(-0.0198712 0.120186 0.0239564)
(-0.00515249 0.0492961 0.00732625)
(-0.00135468 0.0208087 0.00147584)
(-0.000165888 0.00788051 -0.000191082)
(-0.0247537 0.097238 0.0183057)
(-0.00613766 0.0421055 0.00541962)
(-0.00200701 0.0184853 0.00167806)
(6.92246e-05 0.00716072 4.76358e-05)
(-0.0140601 0.104799 0.0314873)
(-0.00345421 0.0440802 0.00910313)
(-0.000531825 0.0194265 0.00249996)
(0.000445426 0.00769639 0.000386996)
(-0.0203448 0.0900066 0.0257274)
(-0.00491748 0.0396284 0.00728739)
(-0.00195005 0.0177372 0.00228855)
(-9.13192e-05 0.00700153 4.35039e-05)
(-0.0207755 0.129782 0.0152289)
(-0.0054265 0.0528366 0.00501036)
(-0.000970768 0.0214008 0.00107613)
(0.000170809 0.00786228 -3.70256e-05)
(-0.0273631 0.10107 0.0114247)
(-0.00692828 0.0436831 0.00359648)
(-0.00213203 0.0188038 0.00123263)
(0.000192272 0.00721109 0.000183785)
(-0.0214046 0.133843 0.00640941)
(-0.00574245 0.054686 0.00247507)
(-0.00083367 0.0217389 0.000727713)
(0.000364182 0.00797711 0.000231127)
(-0.0286334 0.102061 0.00473266)
(-0.00740124 0.0445294 0.00173743)
(-0.00227635 0.0191034 0.000706977)
(0.000167604 0.00738567 0.000242339)
(-0.000359579 0.0832012 0.0391732)
(-0.000140289 0.0386198 0.0108958)
(-2.83489e-06 0.0168466 0.00263764)
(8.2057e-05 0.0065787 0.000161961)
(0.00048187 0.0547663 0.0349226)
(0.000131692 0.0295559 0.00976662)
(-4.51447e-05 0.0143401 0.00317691)
(6.28995e-05 0.0058945 0.000252715)
(3.1444e-05 0.0833212 0.038597)
(-9.71729e-05 0.038435 0.010743)
(0.000226977 0.01687 0.00261922)
(0.000323986 0.00660702 0.000143386)
(0.00231803 0.0571593 0.0339211)
(0.000646015 0.0301206 0.00942339)
(1.254e-05 0.0144919 0.00313124)
(0.000206944 0.00594769 0.000223935)
(-0.00821862 0.0856828 0.0371648)
(-0.00231 0.0385523 0.0103314)
(-0.000333747 0.0172727 0.00297026)
(0.000365604 0.00683132 0.000406031)
(-0.00377317 0.0643469 0.0320742)
(-0.000959628 0.0318979 0.00879597)
(-0.000401077 0.0150517 0.00324889)
(0.000297763 0.00611228 0.000368809)
(-0.00308711 0.0846432 0.030959)
(-0.00046941 0.0375267 0.008751)
(0.00025049 0.017078 0.00302163)
(0.000557559 0.0069815 0.000867968)
(-0.000915211 0.0708058 0.0347502)
(-2.78857e-05 0.0332449 0.00943397)
(-0.000399518 0.0158325 0.00397576)
(0.000272725 0.00636876 0.000526531)
(-0.0172495 0.0798114 0.0258142)
(-0.00410127 0.0364315 0.00721682)
(-0.00165678 0.0167618 0.00265491)
(0.000252036 0.00683118 0.000421933)
(0.00103623 0.0335051 0.0242644)
(0.000331908 0.0231288 0.00652052)
(8.71589e-05 0.0110042 0.00247406)
(8.81886e-05 0.00293734 0.00037883)
(0.00194695 0.0171828 0.00893862)
(0.000608726 0.0199625 0.00229918)
(0.000177545 0.00975966 0.000740846)
(6.85964e-05 0.00271211 0.000208125)
(0.00210603 0.0372622 0.0256527)
(0.000715669 0.0243201 0.0068627)
(7.44828e-05 0.0114265 0.00254835)
(0.000179466 0.00311038 0.000385935)
(0.00513332 0.0205439 0.00957734)
(0.00161852 0.021174 0.00245822)
(0.000415847 0.0101146 0.000810327)
(0.000162559 0.00280167 0.000242057)
(0.000986498 0.0450694 0.0270725)
(0.000543465 0.0265534 0.00717771)
(-4.3484e-05 0.0119938 0.00271586)
(0.000245913 0.00316234 0.000429117)
(0.00688061 0.0271247 0.0102196)
(0.00224229 0.0233613 0.00261091)
(0.000584774 0.0106282 0.000869302)
(0.000231325 0.00288721 0.000272869)
(-0.00182397 0.0556237 0.0250041)
(9.44646e-05 0.0294098 0.00661468)
(-0.00017136 0.0130169 0.00278264)
(0.000332979 0.00348243 0.00046655)
(0.00594927 0.0356906 0.0103129)
(0.00229008 0.0260378 0.00262507)
(0.000596793 0.0114023 0.000985901)
(0.000247954 0.00307782 0.000317345)
(-0.00825515 0.0643004 0.0226859)
(-0.00124097 0.0322407 0.00612141)
(-0.000911849 0.0142945 0.00260808)
(0.000114209 0.00401 0.000492468)
(0.00239555 0.0413874 0.00935835)
(0.00169494 0.0284443 0.00252403)
(0.000353387 0.0121441 0.00107664)
(0.000184667 0.00325525 0.000352114)
(-0.0184714 0.0713533 0.0132896)
(-0.00355853 0.0354316 0.00364197)
(-0.00149649 0.0148451 0.00120198)
(7.79055e-06 0.00395575 0.000201083)
(-0.00572238 0.0443747 0.00713156)
(-0.000583073 0.031556 0.00216549)
(-0.000199594 0.013434 0.000762773)
(9.83841e-06 0.00355734 0.000262502)
(-0.0141356 0.0687559 0.0172576)
(-0.00236398 0.034154 0.00459059)
(-0.00128836 0.0145372 0.0017567)
(-5.09712e-06 0.00392532 0.000319904)
(-0.00281549 0.0417532 0.00831767)
(0.000394695 0.0302509 0.0023945)
(6.25971e-05 0.0128188 0.000948183)
(9.88774e-05 0.00340079 0.000322613)
(-0.0216323 0.0724972 0.00870359)
(-0.0045254 0.0361174 0.00252382)
(-0.00170548 0.0147663 0.000799031)
(-2.54699e-06 0.00374888 0.000152788)
(-0.0077398 0.0451585 0.00483569)
(-0.00127393 0.0323926 0.00157695)
(-0.000343539 0.013667 0.000510269)
(-3.98122e-05 0.00357806 0.000190559)
(-0.0234104 0.0737814 0.0037443)
(-0.00517208 0.0366191 0.00127862)
(-0.00186952 0.0149556 0.000501228)
(-6.60259e-05 0.0037825 0.000169332)
(-0.00905038 0.0466652 0.00228747)
(-0.00174889 0.032931 0.000887503)
(-0.000458709 0.013889 0.000335589)
(-7.85107e-05 0.00363007 0.00014319)
(3.12834e-05 0.00263054 5.55795e-05)
(9.64349e-06 0.00107562 1.37867e-05)
(2.82429e-06 0.000411346 3.59448e-06)
(8.29686e-07 0.000144443 9.84722e-07)
(2.93999e-07 3.46356e-05 3.3429e-07)
(5.11047e-05 0.00267961 2.83066e-05)
(1.48787e-05 0.00108542 6.92694e-06)
(4.38927e-06 0.000413708 1.83069e-06)
(1.30464e-06 0.00014505 5.09211e-07)
(4.66783e-07 3.4758e-05 1.74901e-07)
(7.43765e-05 0.00266662 7.85815e-05)
(2.13376e-05 0.00109349 2.03602e-05)
(6.22898e-06 0.000416588 5.66882e-06)
(1.83857e-06 0.000145912 1.6363e-06)
(6.54501e-07 3.49431e-05 5.764e-07)
(9.90253e-05 0.00276327 5.64646e-05)
(2.98622e-05 0.00110823 1.49084e-05)
(9.05431e-06 0.000420205 4.33208e-06)
(2.73429e-06 0.000146909 1.28722e-06)
(9.88483e-07 3.51532e-05 4.61934e-07)
(9.25098e-05 0.00277278 9.32146e-05)
(2.53517e-05 0.00111535 2.62314e-05)
(7.41132e-06 0.000422462 7.81154e-06)
(2.2013e-06 0.00014758 2.34743e-06)
(7.87935e-07 3.52981e-05 8.48254e-07)
(0.000115658 0.00288759 0.000111383)
(3.69954e-05 0.00112988 3.77029e-05)
(1.14141e-05 0.000426658 1.19235e-05)
(3.47965e-06 0.000148847 3.68431e-06)
(1.26625e-06 3.55752e-05 1.3534e-06)
(4.40803e-05 0.00286163 8.99908e-05)
(1.59553e-05 0.00115014 3.53497e-05)
(5.12207e-06 0.000434536 1.18111e-05)
(1.5973e-06 0.000151346 3.76746e-06)
(5.91024e-07 3.61297e-05 1.41607e-06)
(2.88987e-05 0.00289419 9.98027e-05)
(8.43978e-06 0.0011718 3.7576e-05)
(2.60898e-06 0.000443148 1.27364e-05)
(8.12997e-07 0.000154218 4.14545e-06)
(3.02631e-07 3.67849e-05 1.58937e-06)
(6.91407e-05 0.00287479 7.50641e-05)
(2.29748e-05 0.00114131 2.84441e-05)
(7.04169e-06 0.000430466 9.2928e-06)
(2.1356e-06 0.000149973 2.91651e-06)
(7.74726e-07 3.58179e-05 1.08203e-06)
(2.69469e-05 0.00289863 6.71462e-05)
(8.75956e-06 0.00115319 2.48511e-05)
(2.68022e-06 0.000434277 8.18435e-06)
(8.13694e-07 0.000151099 2.58945e-06)
(2.95667e-07 3.60606e-05 9.66627e-07)
(0.000100407 0.00286309 8.48742e-05)
(2.98492e-05 0.00112893 2.69923e-05)
(8.94324e-06 0.00042624 8.34926e-06)
(2.68746e-06 0.000148671 2.55222e-06)
(9.69633e-07 3.55317e-05 9.3136e-07)
(3.2927e-05 0.002884 8.48935e-05)
(1.00238e-05 0.00114245 2.91151e-05)
(2.98334e-06 0.00043033 9.13854e-06)
(8.9154e-07 0.000149859 2.80999e-06)
(3.20449e-07 3.57859e-05 1.02889e-06)
(4.19129e-05 0.00287943 6.97464e-05)
(1.28608e-05 0.0011581 2.80039e-05)
(3.94342e-06 0.000437161 9.49716e-06)
(1.20738e-06 0.000152134 3.05711e-06)
(4.4205e-07 3.63011e-05 1.15628e-06)
(2.42788e-05 0.00294545 6.96055e-05)
(6.92855e-06 0.00116869 2.52003e-05)
(2.11568e-06 0.000439945 8.44924e-06)
(6.51337e-07 0.000152939 2.72617e-06)
(2.39897e-07 3.64754e-05 1.03504e-06)
(3.5765e-05 0.00294691 8.05319e-05)
(7.80238e-06 0.00117997 2.94309e-05)
(2.12272e-06 0.000445058 9.98894e-06)
(6.29106e-07 0.000154742 3.26775e-06)
(2.28349e-07 3.68972e-05 1.259e-06)
(1.7959e-05 0.00301369 6.81083e-05)
(3.5399e-06 0.00118852 2.40033e-05)
(9.17241e-07 0.00044661 8.11098e-06)
(2.67948e-07 0.000155115 2.66029e-06)
(9.69776e-08 3.69735e-05 1.02829e-06)
(2.61747e-05 0.00259233 4.5945e-05)
(7.85468e-06 0.00106575 1.15647e-05)
(2.25325e-06 0.000408874 2.97379e-06)
(6.50401e-07 0.000143821 8.00646e-07)
(2.27396e-07 3.45128e-05 2.67949e-07)
(2.52447e-05 0.00256295 1.82263e-05)
(7.27413e-06 0.00105935 4.58597e-06)
(2.03736e-06 0.000407276 1.17494e-06)
(5.77608e-07 0.000143421 3.14595e-07)
(1.99295e-07 3.44346e-05 1.04749e-07)
(7.20866e-05 0.00263107 5.9938e-05)
(1.98782e-05 0.00108018 1.6065e-05)
(5.61423e-06 0.000413053 4.35493e-06)
(1.62052e-06 0.000144971 1.22448e-06)
(5.6821e-07 3.47504e-05 4.23222e-07)
(6.99493e-05 0.00260089 2.34824e-05)
(1.89572e-05 0.00107144 6.33712e-06)
(5.24559e-06 0.000410707 1.70278e-06)
(1.48989e-06 0.000144354 4.73775e-07)
(5.16422e-07 3.46256e-05 1.62394e-07)
(8.48828e-05 0.00271751 6.94508e-05)
(2.25473e-05 0.00110328 1.90059e-05)
(6.37438e-06 0.000419159 5.43452e-06)
(1.85367e-06 0.000146643 1.59212e-06)
(6.54424e-07 3.50989e-05 5.66118e-07)
(9.40974e-05 0.00268502 4.42935e-05)
(2.48288e-05 0.00109378 1.19591e-05)
(6.91188e-06 0.000416575 3.37003e-06)
(1.9869e-06 0.000145933 9.77873e-07)
(6.96237e-07 3.49508e-05 3.45366e-07)
(9.37309e-05 0.00280014 9.92427e-05)
(2.58498e-05 0.00112336 2.86735e-05)
(7.50143e-06 0.000424531 8.50299e-06)
(2.21762e-06 0.00014815 2.54229e-06)
(7.92298e-07 3.54175e-05 9.1528e-07)
(7.00289e-05 0.00277875 6.82021e-05)
(1.85359e-05 0.00111703 1.9051e-05)
(5.21818e-06 0.000422704 5.521e-06)
(1.5152e-06 0.000147622 1.62954e-06)
(5.35086e-07 3.53047e-05 5.81784e-07)
(4.68035e-05 0.00286295 0.000110754)
(1.36201e-05 0.00113377 3.38542e-05)
(4.03655e-06 0.000427512 1.02006e-05)
(1.20558e-06 0.000149011 3.07188e-06)
(4.33583e-07 3.56017e-05 1.1102e-06)
(-0.00129702 0.785023 0.135913)
(-0.0127931 1.21681 0.317498)
(0.00584829 0.800893 0.1419)
(-0.0290405 1.21085 0.315844)
(0.0258566 0.818326 0.158881)
(-0.0327812 1.19361 0.312983)
(0.0639703 0.811381 0.181847)
(-0.0156653 1.16127 0.317065)
(0.0944893 0.747683 0.179175)
(0.0390091 1.07863 0.314302)
(-0.0173969 0.664678 0.0665915)
(-0.0585512 0.759791 0.105603)
(0.0625241 0.673523 0.113508)
(0.050745 0.813526 0.18348)
(-0.0523483 0.665248 0.0326106)
(-0.104886 0.745918 0.0500954)
(-0.0740069 0.677268 0.00672107)
(-0.122549 0.751728 0.0130592)
(-0.052033 0.726925 0.775178)
(-0.013543 0.12827 0.200487)
(-0.00367745 0.0290707 0.0540492)
(-0.00118268 0.00718423 0.0171822)
(-0.000560744 0.00142849 0.0079964)
(-0.0129199 0.803257 0.214912)
(-0.00775609 0.237891 0.062706)
(-0.00136999 0.0612086 0.0192024)
(-0.000521136 0.0152882 0.00607927)
(-0.00029682 0.00304627 0.00260302)
(-0.160135 0.722671 0.759697)
(-0.0414517 0.125811 0.195615)
(-0.011303 0.028437 0.0528708)
(-0.00363042 0.00702768 0.016775)
(-0.00172707 0.00139728 0.0078682)
(-0.0302759 0.795836 0.219048)
(-0.0108327 0.234214 0.0691345)
(-0.00348286 0.0603002 0.0197579)
(-0.00115648 0.0150494 0.00633886)
(-0.000580778 0.00298638 0.00285091)
(-0.268146 0.709324 0.714561)
(-0.0696966 0.122782 0.183916)
(-0.019121 0.0277478 0.0498331)
(-0.00618129 0.00687618 0.015882)
(-0.00294604 0.00137102 0.00748048)
(-0.0524643 0.778615 0.211977)
(-0.0192543 0.228951 0.0665477)
(-0.00602112 0.0590696 0.0189911)
(-0.0020939 0.0147834 0.00608191)
(-0.000998237 0.002943 0.00274589)
(-0.35814 0.681086 0.642801)
(-0.0937072 0.116472 0.165448)
(-0.0259586 0.0263561 0.0450714)
(-0.00846952 0.00657401 0.0144679)
(-0.00406198 0.0013183 0.00685262)
(-0.0656776 0.746307 0.203043)
(-0.0252682 0.219821 0.0626764)
(-0.00803684 0.0570069 0.0177329)
(-0.00280777 0.0143564 0.00565274)
(-0.00134013 0.00287197 0.00254411)
(-0.446364 0.629955 0.530126)
(-0.118406 0.105784 0.137025)
(-0.0332396 0.0241312 0.0376997)
(-0.0109814 0.00609513 0.0122338)
(-0.00532024 0.00123319 0.00584177)
(-0.0789891 0.690758 0.187759)
(-0.0320304 0.205538 0.0569065)
(-0.0103304 0.0538946 0.0160376)
(-0.00364124 0.0137147 0.00511498)
(-0.00176019 0.00276315 0.00230641)
(-0.528272 0.54682 0.248193)
(-0.145684 0.0966085 0.0678986)
(-0.0419316 0.0230936 0.0192617)
(-0.0141366 0.00600932 0.0063868)
(-0.00694302 0.00123488 0.00308793)
(-0.130937 0.553873 0.0897983)
(-0.0457667 0.175634 0.0277204)
(-0.0140218 0.0479922 0.00779428)
(-0.00481169 0.0126047 0.00247488)
(-0.00232403 0.00259325 0.00112779)
(-0.492034 0.571753 0.371183)
(-0.134561 0.0988573 0.0995354)
(-0.0383365 0.0232033 0.0278433)
(-0.0127944 0.00596524 0.00913003)
(-0.00624048 0.00121797 0.004388)
(-0.0994404 0.59472 0.133315)
(-0.0383718 0.186702 0.0406575)
(-0.0121479 0.0501811 0.011521)
(-0.00423152 0.0129779 0.00370156)
(-0.00204131 0.00264143 0.00168982)
(-0.545005 0.537082 0.145186)
(-0.15103 0.0960941 0.040217)
(-0.043725 0.0231687 0.011517)
(-0.0148238 0.00606571 0.00385454)
(-0.00730697 0.0012503 0.001873)
(-0.149136 0.539187 0.0497367)
(-0.0502133 0.170807 0.0159172)
(-0.0151276 0.0469704 0.00445499)
(-0.005133 0.012442 0.00141711)
(-0.00247889 0.0025774 0.000653352)
(-0.568251 0.535011 0.0492002)
(-0.15652 0.0954421 0.0136325)
(-0.0454556 0.0230385 0.00393025)
(-0.0154363 0.006045 0.00132556)
(-0.00761701 0.00124643 0.000647266)
(-0.155768 0.538167 0.017914)
(-0.0524213 0.169868 0.00531548)
(-0.0158527 0.0467355 0.00140438)
(-0.00513898 0.012438 0.00052318)
(-0.00255926 0.0025787 0.000204692)
(-0.0423281 1.56886 -0.0589636)
(-0.384224 2.37902 -0.0217938)
(-0.34961 2.30178 0.216833)
(-0.124597 1.49983 -0.066564)
(0.0722188 0.807952 0.0337374)