/*--------------------------------*- C++ -*----------------------------------*\
| =========                 |                                                 |
| \\      /  F ield         | OpenFOAM: The Open Source CFD Toolbox           |
|  \\    /   O peration     | Version:  2306                                  |
|   \\  /    A nd           | Website:  www.openfoam.com                      |
|    \\/     M anipulation  |                                                 |
\*---------------------------------------------------------------------------*/
FoamFile
{
    version     2.0;
    format      ascii;
    arch        "LSB;label=32;scalar=64";
    class       volScalarField;
    location    "0.5";
    object      gradTz;
}
// * * * * * * * * * * * * * * * * * * * * * * * * * * * * * * * * * * * * * //

dimensions      [0 -1 0 1 0 0 0];

internalField   nonuniform List<scalar> 
5712
(
10380
33837.3
8374.99
34581.8
6097.73
35110.5
9207.78
51939.2
11237.1
70808
11415.6
52902.6
11267.5
44652.3
11744.6
40323.9
7030.95
4542.9
19024.4
11438.2
6665.54
3555.37
19860.6
9703.32
8210.37
6399.7
26128.4
19577
6208.42
4920.38
25612
19764.9
14670.5
6321.49
12757.5
5838.4
6274.95
14206.8
47074.2
12409.8
16932.5
5158.54
58331.7
15335.1
15034.2
4503.55
34982.3
10644.6
17886.6
5909.3
31594.3
9884.73
11796.4
5845.54
14946.9
6046
12789.8
6858.93
14458.2
5793.55
15401.7
8970.71
12342.4
5649.16
17301.9
6469.4
5816.91
2107.18
18592.6
13035.9
10972
7902.82
18039.9
14500.5
9593.11
7838.24
11505.6
8054.57
17395.6
12132.2
6819.97
4856.2
2927.87
2345.34
5797.35
4720.18
2391.65
2319.46
7259.56
4834.01
3285.15
2065.86
11089.7
6357.35
8826.36
10834.2
15976.5
11769.5
13403
18855.4
6961.38
3510.4
4948.48
6047.23
3136.56
1408
1876.11
2112.03
16862
29538.4
11169.7
32884.5
19192
28495.9
13493.1
33896.6
20998.2
25124.8
16858.3
32252
19105.7
19306.2
17259
17517.5
19100
18908.8
21024.8
23926.9
26667.6
38668.4
15641.9
14587.3
14562.5
17257.6
26741.9
34185.7
30125.3
39473.1
37541.2
31103.8
28367
38586.1
36393.2
26436.1
25454.3
35611.5
34563.7
13818.6
10868.9
16067.6
14292.7
19541.9
18300.2
22930.4
22526.5
31885.9
32738.3
12690.8
11360.2
14633.4
15322.3
17096.9
19458.3
20626.7
24191.1
27473.3
32373.8
11598.3
8730.57
7382.56
8493.59
13192.8
14320.5
8596.3
12401.5
7283.54
8490.34
11566.9
9224.49
1920.77
5305.66
467.907
1544.63
4045.49
7908.28
1010.94
2367.39
1490.44
5127.27
287.319
1478.72
7904.26
7351.81
9587.13
5917.66
13064
10254.7
16039.1
11047.2
2378.45
3857.54
4728.4
2658.02
2060.09
2469.11
2979.04
2129.38
23845.3
14301.2
4561.33
26876.5
15278.3
4960.86
22799.7
14058.5
4777.96
26143.8
15163
4923.2
20613.8
12745.4
4171.17
25046.1
14938.2
4911.27
7689.17
4642.94
1445.85
11718.3
7670.25
2566.92
15587.2
10339.5
3489.09
19273.9
12303
4040.84
24442.9
15029.4
5079.84
8641.89
5311.93
1865.4
11963.5
8518.39
3202.41
15593.5
11120.7
4074.72
19754.4
13517.2
4802.76
24773.1
15377.3
5396.24
249.053
1994.61
2777.97
4063.11
2728.51
2880.56
6636.87
6055.93
547.771
774.407
583.57
803.732
341.993
1076.17
686.429
1436.07
2565.99
1307.03
3505.16
2101.91
1682.24
2779.51
3237.75
-156.952
7168.33
915.959
-3131.01
-904.046
970.747
41.0513
58.1533
-522.113
7315.26
2697.83
1928.95
983.206
7478.81
2765.15
2432.59
1207.19
7508.69
2924.23
3326.32
1793.37
2040.46
1098.7
106.255
224.262
12722.4
10649.9
5676.69
5505.57
15604.7
13920.7
7447.08
6995.11
4268.11
4118.2
9588.19
7362.1
2943.72
3019.54
1025.66
1469.05
4181.59
3952.43
1669.08
1939.15
2024.82
2267.24
537.783
1161.53
3179.98
1609.48
2933.42
1459.85
5427
2276.6
4669.58
2159.1
1471.99
957.213
1647.08
809.449
277.137
304.983
828.868
330.325
8136.03
4443.07
3240.17
2624.78
8236.59
4763.82
3229.8
2630.06
8946.38
5459.1
3286.71
2659.01
13877.1
17135.1
10970.2
6168.76
2472.8
15753.9
12560.1
9961.61
6862.45
3059.86
14737.9
11524.3
7895.92
5001.9
2154.52
2734.37
1754.58
2035.42
1654.68
3122.87
1957.35
2171.46
1753.48
3844.95
2454.69
2401.13
1946.76
11475.7
7894.76
9033.18
5825.91
5940.43
4188.41
4468.49
3147.89
2394.43
2116.56
9615.59
8015.62
7249.94
5803.19
5154.91
4113.78
3546.82
2923.22
1810.61
1984.61
6483.39
4207.09
4073.21
2492.38
9751.84
7089.38
6396.77
5028.55
2767.66
1632.77
4245.03
2855.6
3674.57
1711.19
933.177
465.287
4487.33
3185.43
1097.44
908.232
2693.53
1133.9
730.606
315.221
1699.45
1313.12
927.25
1145.88
2552.1
1971.81
1239.61
1461.68
1696.91
888.254
654.662
765.715
295.464
101.298
-217.59
-5.36387
1009.18
410.258
114.929
956.748
271.839
71.2695
1169.11
500.373
147.321
1036.1
310.807
84.6397
1420.88
643.606
178.419
1164.8
366.438
94.3474
5029.83
2804.59
814.406
3446.01
1774.38
514.789
2505.69
1229.63
363.099
1814.03
831.34
222.308
1291.82
406.614
91.2188
5828.59
3131.84
993.59
4047.89
2009.65
606.713
2835.29
1363.35
404.424
1974.29
871.739
241.897
1412.83
402.981
104.177
806.548
224.521
52.4485
5.31651
332.125
94.6488
23.8541
4.04913
830.153
234.179
58.2883
9.46589
389.523
113.728
39.0981
12.9473
857.025
244.489
71.8217
18.8201
575.001
174.705
38.2632
5.76725
302.969
103.987
3.49104
-9.08039
130.891
60.6822
13.2768
3.02625
598.91
183.156
36.8959
-4.77704
457.644
135.49
41.9515
1.1909
787.183
227.578
62.4989
9.67491
643.186
182.185
57.2138
1.0876
380.722
125.259
26.9032
-0.92564
285.618
89.912
30.8158
4.59462
160.235
61.8767
18.1928
5.77817
118.316
43.4356
17.6744
6.05848
979.33
272.395
65.9409
4.04902
873.065
244.165
79.4227
6.31787
964.926
268.575
65.4804
3.58466
848.027
235.585
78.281
5.59837
929.12
258.284
74.2565
10.1508
801.855
219.899
81.2222
9.22023
773.975
218.775
75.5406
21.6992
868.756
235.849
99.3939
13.1633
645.355
180.42
66.3728
10.5483
606.61
163.013
61.8515
9.47074
223.465
57.4795
18.5212
5.20311
641.318
171.568
63.7089
9.64837
239.433
61.4555
20.2582
6.05143
676.813
179.443
67.8965
10.7279
255.49
65.2729
21.7325
6.82173
625.102
165.367
69.5661
11.6638
257.821
65.6268
24.6475
7.93363
567.148
153.035
65.2019
12.3117
233.959
63.1008
26.916
8.80284
332.239
91.0492
30.0494
5.02707
178.289
54.1374
19.0693
6.56255
431.441
114.765
43.9176
7.99759
207.942
59.8625
23.7046
8.06532
217.59
63.0956
19.9758
3.81969
120.892
39.4238
12.7567
4.76396
93.6076
31.9655
12.5307
4.23329
57.1868
22.1876
8.38974
3.57976
1.38949
0.344668
0.089862
0.024618
0.00835725
0.707666
0.173174
0.0457673
0.0127303
0.00437253
1.96454
0.509005
0.14172
0.0409075
0.01441
1.41161
0.37271
0.108302
0.0321806
0.0115483
2.33036
0.655786
0.195288
0.0586858
0.0212063
2.78458
0.942573
0.298087
0.0921077
0.033835
2.24977
0.883742
0.295276
0.0941866
0.0354017
2.49507
0.939401
0.318411
0.103636
0.0397343
1.8766
0.711103
0.23232
0.0729127
0.0270509
1.67865
0.621277
0.204609
0.0647362
0.0241657
2.12186
0.674808
0.208732
0.0638056
0.023284
2.12234
0.727878
0.228463
0.0702498
0.0257223
1.74366
0.700098
0.237429
0.0764276
0.0289071
1.74014
0.630006
0.211231
0.0681543
0.0258761
2.0133
0.735772
0.249724
0.0816937
0.0314749
1.70271
0.600082
0.202775
0.0665072
0.0257073
1.14862
0.289117
0.0743447
0.0200162
0.00669873
0.455657
0.114649
0.0293734
0.00786487
0.00261872
1.49845
0.401626
0.108873
0.0306121
0.0105806
0.587059
0.158428
0.0425695
0.0118444
0.00405984
1.73627
0.475147
0.135863
0.0398029
0.014153
1.10734
0.298977
0.0842509
0.0244468
0.00863415
2.48107
0.716838
0.212575
0.0635573
0.022882
1.70505
0.476274
0.138025
0.0407386
0.0145446
2.76884
0.846354
0.255016
0.0767971
0.0277549
3397.82
7937.44
3547.51
7896.11
3972.02
7824.57
4546.17
7926.61
4479.38
7857.55
1664.79
2640.07
2837.7
4587.01
815.264
1252.39
168.027
326.48
19379.4
5012.18
1351.23
429.556
199.91
5372.8
1567.65
480.059
151.982
65.0756
18992.4
4890.38
1321.77
419.374
196.705
5476.21
1728.36
493.948
158.472
71.2727
17864
4597.9
1245.83
397.051
187.012
5299.43
1663.69
474.776
152.048
68.6471
16070
4136.19
1126.78
361.698
171.316
5076.08
1566.91
443.322
141.319
63.6027
13253.2
3425.62
942.491
305.844
146.044
4693.98
1422.66
400.94
127.875
57.6602
6204.82
1697.47
481.543
159.67
77.1983
2244.96
693.01
194.857
61.872
28.1947
9279.57
2488.39
696.083
228.251
109.7
3332.88
1016.44
288.025
92.5391
42.2454
3629.65
1005.42
287.926
96.3636
46.825
1243.42
397.93
111.375
35.4277
16.3338
1230.01
340.812
98.2562
33.139
16.1817
447.85
132.887
35.1096
13.0795
5.1173
-1474.09
-544.845
5420.83
-1664.1
843.434
902.871
2553.57
3318.16
2120.39
4073.87
3701.26
5733.27
4762.81
5888.23
2395.53
3198.73
2407.16
2862.72
1248.96
1298.28
1748.98
986.175
408.783
57.9008
-8.15459
-10.3185
165.424
13135.6
4603.79
4541.93
3613.42
813.616
665.819
2776.32
205.09
335.456
246.647
48.0896
7012.04
3630.37
1707.81
1093.17
2588.28
1534.77
550.693
896.46
-90.8073
122.999
797.769
673.365
7671.61
3041.03
4650.02
2052.43
2485.01
4178.47
1074.64
90.079
980.902
1007.63
658.065
455.942
320.613
183.439
669.192
456.527
299.166
178.194
67.1029
340.818
262.899
182.072
105.968
34.7836
49.7557
39.5973
28.1679
16.6754
5.49945
-7.67003
-6.59256
-4.9128
-2.94529
-0.96775
-9.54584
-8.08975
-5.97151
-3.56428
-1.16799
140.137
110.133
77.6832
45.8491
15.1535
8206.79
5751.65
3832.82
2502.62
1533.17
3252.56
2213.13
1523.32
932.492
377.885
3162.22
2190.03
1466.21
875.165
342.469
2430.64
1573.79
1033.82
607.143
213.577
577.117
367.979
250.837
149.462
52.5358
557.077
432.166
302.408
178.822
60.0269
2108.43
1512.36
994.836
572.02
198.466
235.179
215.127
161.28
100.121
34.8866
278.893
216.727
152.864
91.2969
30.8583
233.709
198.656
148.674
91.971
31.577
31.1776
18.9282
11.1421
6.21648
2.1654
4450.09
3229.43
2195.34
1459.23
899.245
2558.13
1780.84
1204.13
719.419
274.103
1381.57
1043.81
716.911
420.165
142.034
880.563
661.97
452.198
263.435
88.2483
1999.64
1452.44
967.523
557.523
189.957
1249.62
946.459
649.487
378.742
125.673
446.953
338
231.749
135.006
44.8569
738.61
563.842
387.783
225.213
74.1325
-73.7868
-54.4106
-35.2843
-19.0278
-5.8383
101.538
77.9598
54.2212
31.932
10.6194
651.443
493.649
338.035
196.304
64.9905
555.221
424.667
292.9
170.654
56.3641
4411.14
2718.61
1853.26
1233.94
735.048
2080.64
1413.06
921.807
544.291
204.964
3049.83
2136.78
1414.38
857.526
334.51
1476.73
1049.82
695.479
410.353
150.135
1944.2
1427.62
960.13
556.407
187.569
2948.45
1994.4
1330.85
787.091
278.341
878.155
665.661
455.661
264.221
87.139
73.8141
56.2152
38.8183
22.7524
7.54729
795.91
601.124
411.671
239.791
79.7286
-43729.8
-69155.8
-36575
-55812.6
-37554
-74590.9
-44659.3
-94867.6
-28226.6
-19790
-30598.9
-19756.6
-25259.4
-16526.5
-30100
-16622.6
-37841.8
-29885.3
-53364.8
-40069.5
-32676.4
-27324.7
-44303.5
-34637.2
-25525.6
-27014.2
-21245.4
-21270.9
-26183.5
-23655.2
-56746.9
-15718.2
-22626.3
-8753.38
-66941.2
-18880.3
-19910.3
-7953.67
-43845.2
-13833.9
-23389
-9210.62
-40185.1
-12375.9
-21147.9
-8740.92
-25907.2
-9581.55
-20245.1
-9181.73
-22458.7
-8347.57
-20802.6
-10621.2
-17915.6
-7387.37
-22183.4
-8067.83
-7762.56
-2802.41
-16518.1
-11873.2
-14222.9
-9187.82
-13741.4
-11297.7
-11973.5
-8586.48
-15084.8
-9441.1
-18025.9
-12476.1
-9855.95
-6273.25
-5490.37
-3723.44
-8329.31
-5850.33
-4669.26
-3520.37
-10324.9
-6202.82
-5765.34
-3351.14
-13844.2
-7339.91
-9908.34
-11347.3
-17960.5
-12606.6
-14202.3
-19333
-9278.15
-4326.42
-5969.7
-6492.74
-4985.74
-2081.08
-2817.21
-2503.98
-21999.3
-28021
-12855.1
-32720.3
-22833.3
-26639.5
-14827.2
-33392.1
-22907.2
-23840.8
-17682.2
-31564.1
-14185.8
-11046.8
-16647.3
-19255.4
-19921.7
-14625.3
-18181.3
-22589.9
-26000.3
-38032.8
-10565
-12090.7
-14018.4
-17434.9
-26824.2
-27247.9
-19080.5
-35321.7
-27373.4
-25178.7
-18648.1
-34796.6
-27297.1
-22043
-17508.5
-32456.6
-27072.1
-11822.6
-9376.14
-13942.9
-11447.4
-16545.3
-13969.7
-19413.6
-17010.8
-29430.4
-27162
-10524
-9472.09
-12396.4
-12100.8
-14959.9
-15446.3
-18788.6
-19843.1
-26251.8
-27871.8
-10324.9
-7948.93
-7442.38
-8387.88
-10933.9
-12841.8
-8138.84
-11689.6
-7661.18
-8666.94
-11111.8
-8805.12
-2504.99
-5588.53
-1209.22
-1993.46
-4364.53
-7869.29
-1584.96
-2615.06
-2153.86
-5535.08
-1052.46
-1975.35
-8339.25
-7577.31
-9931.65
-6057.66
-13037.1
-9979.32
-16153.4
-10698.9
-2945
-4235.11
-5114.1
-2918.33
-2693.65
-2908.61
-3390.05
-2440.34
-11711.6
-4015.84
-16097.3
-5436.12
-11937.7
-4210.2
-16454.9
-5834.23
-11794.7
-4110.32
-17168.4
-6438.92
-5849.73
-1871.4
-7996.07
-2929.08
-9899.71
-3718
-12535.9
-4600.21
-18158.2
-7021.8
-6704.6
-2327.29
-8381.75
-3653.11
-10877.3
-4630.24
-14405.3
-5879.47
-19197.9
-7163.34
-9495.01
-8623.48
-7743.93
-7320.95
-16003
-12196.3
-13398.7
-10994.8
-5876.44
-4259.24
-2497.9
-1594.26
-5764.01
-4690.9
-2557.54
-2224.65
-4936.22
-6557.58
-5476.35
-6884.55
-5092.25
-4008.2
-5808.32
-2341.57
-10747.4
-3963.33
936.995
-1523.94
-2787.34
-2045.65
-1378.73
-1259.6
-2495.87
-1211.66
-1012.2
-448.109
-2791.25
-1335.37
-1574.58
-631.507
-3336.7
-1615.29
-2705.37
-1170.8
-2359.09
-883.255
-971.754
-241.761
-7174.51
-7006.07
-5961.86
-5049.98
-10216.4
-9722.6
-8751.26
-7038.5
-3855.17
-3474.66
-4975.29
-4838.65
-4131.41
-3299.12
-2413.62
-1999.67
-6037.31
-4637.95
-3527.79
-2816.15
-2628.09
-2257.4
-1454.8
-1394.45
-2315.09
-1096.09
-2350.5
-1126.71
-2918.6
-1403.09
-3227.67
-1575.62
-1506.1
-750.607
-1504.66
-650.523
-672.969
-258.736
-873.036
-257.253
-3137.87
-3228.03
-1712.2
-1912.8
-3268.47
-3437.56
-1753.29
-1918.81
-3694.28
-3568
-1871.1
-1882.22
-5008.95
-7839.81
-3783.52
-2510.94
-1322.79
-10866.2
-7397.09
-5666.23
-4125.11
-2195.32
-8613.3
-6440.46
-4542.77
-3154.39
-1466.08
-3012.08
-2392.32
-2146.45
-2632.37
-3157.8
-2448.62
-2142.36
-2601.16
-3410.62
-2780.46
-2105.37
-2552.6
-9651.9
-7299.79
-7572.7
-5572.86
-5429.63
-4047.85
-3920.75
-3064.02
-2051.09
-2404.11
-7605.48
-6893.7
-5556.46
-5051.68
-3924.87
-3557.86
-2763.97
-2593.72
-1347.91
-1963.89
-4562.2
-3226.96
-3353.63
-1869.51
-7296.85
-5879.6
-5641.77
-4295.86
-2188.18
-1142.46
-2968.18
-2134.73
-3558.55
-1519.61
-1108.26
-469.79
-4528.4
-3028.42
-1460.53
-998.477
-2518.77
-954.547
-771.887
-277.46
-1316.84
-1000.45
-734.451
-1003.83
-1827.47
-1523.86
-930.86
-1290.59
-1531.07
-753.377
-542.359
-686.923
-255.511
-48.2477
279.274
50.7844
-1540.85
-486.644
-1655.88
-185.708
-1635.04
-569.844
-1675.8
-207.301
-1715.88
-549.808
-1596.19
-168.619
-4316.33
-1285.18
-3321.37
-1009.49
-2637.27
-877.431
-1841.53
-518.399
-1523.2
-225.788
-4877.4
-1376.08
-3516.46
-879.36
-2536.12
-634.826
-1815.2
-384.065
-1549.35
-244.922
-447.309
-133.696
-27.7595
2.70135
-178.151
-53.6593
-13.1086
-0.981695
-473.899
-139.489
-31.6794
-0.833564
-202.733
-58.2134
-23.9797
-8.79396
-520.333
-148.704
-43.4546
-9.60403
-320.178
-83.7261
-6.55116
5.66524
-132.639
-25.4319
28.2756
21.2357
6.77335
19.759
21.088
10.0498
-394.398
-108.419
-8.90406
16.0324
-305.231
-74.7203
-18.2845
9.14522
-526.206
-145.474
-35.2903
0.586229
-423.908
-105.729
-29.726
11.3949
-242.415
-61.9335
-1.17559
11.1486
-184.948
-42.3844
-10.3347
4.48815
-60.0164
-5.14731
7.07697
4.54013
-44.5601
-3.03281
1.15672
2.51931
-594.622
-171.691
-36.3916
7.07681
-619.006
-165.657
-58.4746
4.92986
-589.169
-167.54
-35.1115
7.98823
-604.11
-159.785
-57.6751
5.55365
-576.228
-159.728
-45.4966
0.340467
-570.488
-148.649
-62.3103
1.387
-446.018
-120.217
-45.1753
-10.5284
-615.775
-156.03
-76.6714
-0.28158
-406.085
-100.38
-38.4001
2.9083
-491.929
-114.567
-48.6866
-1.29374
-196.816
-41.3705
-12.2241
-2.29962
-483.874
-112.286
-47.6368
-0.819676
-195.83
-41.0132
-12.7543
-2.74085
-457.742
-105.285
-49.0207
-1.5191
-183.492
-37.9476
-12.0972
-2.67044
-409.839
-94.4752
-51.9206
-3.14772
-167.683
-34.5597
-14.079
-3.26539
-355.067
-81.3323
-45.5118
-3.77691
-127.02
-25.9569
-14.6871
-3.4113
-231.86
-49.3918
-13.4855
3.18897
-80.2815
-13.7673
-3.91659
0.272159
-298.615
-66.1253
-27.0399
0.230478
-93.6073
-17.6088
-8.96594
-1.55416
-142.667
-27.1253
-4.26541
4.01767
-51.4576
-6.25389
1.02025
1.68653
-35.2399
-0.0830595
2.1352
3.12606
-6.46079
5.71167
3.98667
2.3713
0.280235
0.0523299
0.0140645
0.00493594
0.00220839
0.0388287
0.0208366
0.00746627
0.00277265
0.0012381
0.194743
0.0856185
0.0307732
0.0111609
0.0048286
0.00605832
0.0688739
0.0279529
0.0102131
0.00435942
0.447012
0.177427
0.0598269
0.0206808
0.00862046
1.02392
0.324358
0.110038
0.0379829
0.0156645
1.73421
0.503442
0.164188
0.0547338
0.0218718
2.23942
0.755925
0.252983
0.0835695
0.0327693
1.36116
0.340322
0.104931
0.0347092
0.0140005
1.24603
0.323927
0.0987241
0.0322628
0.0129137
0.840459
0.228859
0.0725229
0.024553
0.0101119
1.00978
0.246696
0.078658
0.0268501
0.0110968
1.63945
0.459201
0.144658
0.0473637
0.0187542
1.26701
0.402913
0.130281
0.0428029
0.0169417
1.75937
0.61765
0.207461
0.0684621
0.0268118
1.3774
0.50351
0.170675
0.0564175
0.022106
0.551636
0.0593651
0.0110041
0.00350921
0.00157991
0.310459
0.0273855
0.004184
0.00126237
0.000573712
0.491525
0.0689218
0.0189076
0.00678455
0.00301735
0.284518
0.0286983
0.00651135
0.00231647
0.00105209
0.439716
0.10443
0.0332744
0.0116711
0.00497092
0.158714
0.0407879
0.0156478
0.00602167
0.00267953
0.536095
0.159151
0.0547191
0.0195254
0.00830096
0.213239
0.0736376
0.0289582
0.0109713
0.00480579
0.584342
0.18236
0.0659187
0.0239262
0.0102225
-3224.11
-6705.77
-3424.91
-6787.17
-3904.12
-6933.47
-4404.08
-7178.35
-4283.4
-7193.89
-1813.11
-2716.88
-2842.79
-4428.86
-1036.69
-1420.1
-422.048
-529.826
-19509.2
-5067.88
-1368.25
-433.925
-201.052
-5358.94
-1584.04
-486.115
-153.581
-65.45
-19108
-4941.64
-1337.68
-423.465
-197.788
-5467.93
-1745.32
-500.1
-160.142
-71.7151
-17948.3
-4640.96
-1259.59
-400.634
-187.969
-5292.86
-1679.06
-480.439
-153.602
-69.0648
-16130.7
-4170.94
-1138.03
-364.626
-172.1
-5062.95
-1579.32
-448.207
-142.68
-63.9706
-13316.9
-3454
-951.07
-308.012
-146.616
-4675.01
-1432.49
-405.036
-129.024
-57.9724
-6282.53
-1715.3
-485.684
-160.594
-77.4256
-2281.49
-704.49
-197.913
-62.5972
-28.3789
-9364.39
-2511.84
-702.153
-229.684
-110.067
-3337.11
-1025.65
-291.239
-93.3916
-42.4745
-3689.21
-1017.95
-290.662
-96.9539
-46.9678
-1300.71
-411.872
-114.563
-36.1203
-16.4985
-1276.76
-350.034
-100.203
-33.5479
-16.2784
-514.784
-148.23
-38.4228
-13.7777
-5.27874
-1872.23
-3333.15
-9505.77
-1348.61
-9912.24
-4415.23
-9642.41
-4662.03
-17774.5
-9500.08
-19750.5
-10349.5
-6.8516
-21.1099
-34.9297
-42.7396
-25.7132
68.9273
-14.4686
-45.4175
-78.2352
-103.338
-92.4731
8.89974
-4.36292
-3.82439
-13.0708
-12.1735
-19.2048
-20.4176
-13.3846
-21.0624
3.36101
-19.9935
50.2944
1.26659
357.511
854.74
1567.23
1123.72
969.35
345.206
270.555
740.677
1340.67
1688.4
1433.55
560.506
-5.99442
-4.8744
-3.54045
-2.12834
-0.707954
-18.4635
-15.0095
-10.8999
-6.55198
-2.17938
-30.5021
-24.7488
-17.9378
-10.7661
-3.57815
-37.2736
-30.1973
-21.8537
-13.1008
-4.35119
-22.6319
-18.5331
-13.5513
-8.18597
-2.72938
58.0888
45.1977
31.4395
18.2933
5.98468
-12.6164
-10.2172
-7.38972
-4.42711
-1.46978
-39.5683
-32.0125
-23.1329
-13.8504
-4.59702
-67.9648
-54.7999
-39.4656
-23.5676
-7.81135
-89.4208
-71.7689
-51.4541
-30.6218
-10.1316
-79.7064
-63.69
-45.4729
-26.9812
-8.9141
7.07768
5.10785
3.274
1.7806
0.561739
-3.82765
-3.12336
-2.277
-1.37297
-0.457448
-3.3609
-2.74835
-2.00816
-1.21313
-0.404617
-11.4638
-9.35163
-6.81581
-4.1091
-1.36898
-10.6881
-8.73012
-6.37136
-3.84531
-1.28186
-16.8303
-13.7163
-9.98702
-6.01602
-2.00331
-17.8865
-14.5693
-10.6017
-6.38302
-2.12494
-11.8194
-9.72007
-7.1406
-4.3306
-1.44706
-18.4303
-14.9897
-10.8892
-6.54646
-2.17746
2.50269
1.62115
0.887376
0.403219
0.112088
-17.492
-14.216
-10.313
-6.1902
-2.05676
42.3677
32.9564
22.9244
13.3423
4.36627
0.710304
0.226817
-0.0609263
-0.128025
-0.0563508
301.233
234.725
163.785
95.6551
31.3864
710.438
546.476
377.62
219.49
72.0353
1272.16
959.317
654.357
378.868
125.056
895.914
667.444
453.836
263.44
87.1511
799.136
598.268
404.284
231.441
72.2071
299.58
228.711
156.257
89.5361
26.7973
227.775
177.296
123.582
72.1178
23.6523
617.645
476.357
329.716
191.723
62.8621
1103.44
840.892
577.096
334.344
109.73
1371.65
1033.6
704.301
407.085
133.847
1163.03
873.219
592.899
341.813
111.836
457.018
344.278
234.563
135.623
44.3154
7.1383
21.5796
35.8565
44.6505
29.7153
-59.9516
14.962
46.1385
79.3952
105.062
94.8622
-5.14705
4.55732
3.98047
13.426
12.5087
19.9505
21.1898
14.9241
22.4466
0.619025
19.4266
-37.0229
3.8583
-339.786
-826.271
-1521.65
-1092.02
-969.464
-367.909
-263.712
-729.385
-1323.56
-1674.17
-1432.38
-570.584
6.26102
5.10806
3.72398
2.24595
0.748493
18.8975
15.387
11.194
6.73932
2.24374
31.3516
25.4804
18.5023
11.1227
3.70009
39.0087
31.6747
22.9803
13.8057
4.59102
26.2281
21.5559
15.8253
9.59339
3.20534
-50.1431
-38.641
-26.6011
-15.3456
-4.99643
13.0797
10.6278
7.71548
4.63742
1.54256
40.2454
32.6123
23.6085
14.1572
4.70313
69.054
55.7639
40.2291
24.0594
7.98134
91.0367
73.1955
52.5805
31.3456
10.3813
81.9186
65.6152
46.9716
27.9336
9.24087
-3.72369
-2.3076
-1.18237
-0.493661
-0.127937
4.00703
3.27918
2.39836
1.45023
0.48399
3.50427
2.87224
2.10414
1.274
0.425479
11.789
9.63128
7.03143
4.24527
1.41555
10.9938
8.99188
6.57231
3.97178
1.32504
17.5064
14.2911
10.4248
6.28981
2.09644
18.5859
15.1633
11.0537
6.66541
2.22094
13.1972
10.8733
8.00475
4.8639
1.62712
19.6753
16.038
11.6796
7.03673
2.34348
1.03673
1.31717
1.29535
0.934165
0.337693
17.086
13.9777
10.2114
6.16524
2.05534
-30.6748
-23.3632
-15.8868
-9.07428
-2.93877
3.85924
3.57617
2.89227
1.86574
0.641534
-285.782
-222.209
-154.727
-90.2263
-29.5839
-685.826
-526.714
-363.44
-211.055
-69.2489
-1232.2
-926.61
-630.414
-364.402
-120.246
-862.622
-635.522
-427.217
-245.768
-80.8917
-789.841
-583.001
-387.762
-218.749
-67.3168
-308.719
-227.089
-148.681
-81.7442
-23.4782
-221.863
-172.561
-120.197
-70.1098
-22.9896
-608.008
-468.744
-324.352
-188.582
-61.8342
-1088.4
-828.57
-568.064
-328.877
-107.907
-1357.5
-1020.47
-693.551
-400.024
-131.374
-1157.94
-865.352
-584.456
-335.366
-109.403
-460.208
-341.715
-228.919
-130.332
-42.1719
-1846.58
-1031.44
-363.627
-26.0851
52.5746
69.3333
-97.2561
-11673.5
-3216.51
-3706.86
-1784.35
-340.714
-2654.88
-44.8238
692.891
167.601
-6417.09
-3117.98
-1220.76
-872.015
-2412.35
-1313.41
-478.831
-786.125
336.034
30.5054
-611.438
-508.796
-7532.13
-3007.82
-4397.11
-1950.54
-2352.54
-3779.44
-962.102
26.4465
-801.365
-1037.98
-648.257
-427.998
-292.685
-170.604
-686.588
-453.684
-285.459
-163.94
-60.7949
-301.323
-230.766
-158.706
-91.9074
-30.1059
-21.4487
-16.1129
-10.7563
-6.0321
-1.92539
46.6624
38.4391
28.1659
16.9935
5.65558
61.1094
49.9917
36.4244
21.8993
7.27535
-79.8597
-60.5204
-41.2168
-23.7237
-7.75768
-7297.89
-5166.53
-3484.04
-2355.82
-1569.51
-2125.25
-1340.54
-922.339
-590.666
-265.125
-2518.41
-1702.95
-1134.35
-687.104
-284.614
-1154.13
-712.575
-479.651
-294
-106.588
-270.006
-199.686
-135.258
-79.2193
-27.0628
-2021.07
-1461.37
-967.369
-559.499
-195.409
-24.6892
-11.7484
-5.50568
-3.20007
-1.54705
558.94
417.368
280.725
159.715
51.656
147.542
118.825
84.4685
49.5274
16.1175
-3933.89
-2836.06
-1928.96
-1317.32
-873.89
-2119.59
-1428.36
-952.106
-571.444
-226.949
-962.833
-710.671
-480.255
-280.574
-96.2803
-690.642
-510.608
-344.373
-199.67
-67.3107
-1865.32
-1357.72
-907.693
-525.713
-180.486
-1051.06
-781.449
-527.725
-304.867
-100.989
-382.985
-284.87
-192.348
-110.95
-36.8001
-643.192
-487.298
-332.958
-192.649
-63.3878
285.639
224.201
157.031
91.6186
29.9078
31.4976
29.1049
22.8443
14.1288
4.66615
-492.004
-367.634
-249.125
-144.056
-47.8421
-412.984
-310.685
-211.318
-122.183
-40.3581
-4277.82
-2599.34
-1757.64
-1174.73
-719.84
-2041.72
-1372.49
-885.971
-519.664
-196.091
-2787.99
-1906.04
-1235.29
-745.486
-292.806
-1376.7
-958.973
-623.336
-364.234
-134.355
-1827.84
-1332.4
-890.794
-514.819
-173.826
-2604.94
-1713.15
-1127.32
-666.202
-239.239
-780.681
-587.2
-399.224
-230.584
-76.0263
27.7497
26.0529
20.7581
13.0072
4.34168
-638.651
-473.175
-318.796
-184.068
-61.2476
-18.128
-51.3021
-92.0424
-152.302
-244.887
-379.143
-32101.7
-28532.8
-26118
-29652.8
-23808.8
-18947.6
-20598.6
-15636.2
-29339.9
-26842.3
-27134.8
-26451.1
-24016.8
-20625.4
-25655.3
-27110.9
-24405.1
-21513.6
-24143.1
-20658.8
-17426.3
-17660.2
-14074.9
-26968.6
-25202.1
-24961.7
-23786.3
-21783.2
-20081.4
-21765.3
-21946.7
-20212.2
-17379.7
-18983.9
-17617.2
-15167
-14949.5
-12614.2
-23118.2
-22446.1
-21568.4
-21024.7
-18874.2
-17285.2
-19018.8
-15914.7
-15001.2
-12543
-13337.4
-13473.5
-12049.9
-11276.5
-10004
-17467.6
-18146.2
-16492.3
-17175.8
-14792.9
-13397
-15349.7
-10411.2
-9948.62
-8166.96
-8563.76
-9134.31
-8236.55
-7511.44
-6761.27
-11737.4
-12086.6
-11184.2
-11429.7
-10213.2
-9241.17
-10374.8
-3786.17
-3644.34
-2968.51
-3091.8
-3389.21
-3119.71
-2763.62
-2517.81
-4367.05
-4544.51
-4133.59
-4157.78
-3825.84
-3493.33
-3874.92
-11210.6
-10913.2
-17321.1
-18724.4
-10277.3
-8990.1
-15086.7
-12101.1
-7681.51
-5028.66
-7672.7
-5196.76
-7597.76
-7378.71
-5511.01
-11054.7
-10430.4
-15566.1
-16986.9
-9581.41
-8509.33
-13461.2
-11296.1
-7646.8
-4211.6
-7529.24
-4522.76
-6850.29
-6680.16
-5055.97
-9899.71
-9349.52
-13209.4
-14222.4
-8630.12
-7802.4
-11679.6
-10036.5
-6235.24
-3922.82
-6175.37
-4270.3
-5640.87
-5665.35
-4636.86
-7719.48
-7335.99
-9856.86
-10436
-6818.79
-6185.32
-8958.7
-7912.44
-5335.88
-3142.13
-5226.62
-3426.63
-4789.39
-4760.31
-3712.93
-5152.05
-4923.08
-6465.81
-6776.4
-4528.75
-4058.84
-5973.36
-5314.98
-3539.46
-2135.78
-3467.29
-2335.32
-3192.43
-3138.98
-2472.29
-1882.46
-1803.06
-2351.27
-2452.17
-1658.53
-1483.55
-2189.43
-1963.01
-1205.12
-767.659
-1230.15
-848.308
-1163.37
-1135.38
-885.51
10336
33157.4
8331.63
34582
6075.69
35114.2
9201.65
51948.9
11229.9
70821
11392.8
52897.2
11220.9
44629.1
11716.8
39485.8
7021.09
4540.59
19025.9
11438.4
6663.11
3554.97
19864.4
9704.58
8160.16
6356.61
25614.1
19216.2
6179.34
4907.74
25636.3
19794
14680.5
6312.49
12758.7
5835.22
6268.66
14220
47087.2
12411.4
16935.3
5158.27
58344.3
15337.4
15036.7
4503.87
35001.5
10648
17892
5910.04
31620.4
9889.38
11698.4
5796.41
14697.4
5949.93
12790.7
6860.29
14481.8
5802.66
15400.5
8971.23
12350.3
5652.99
17316.6
6475.06
5820.42
2108.58
18591.2
13035.1
10971.8
7902.57
18037.8
14498.9
9593.12
7837.92
11506.1
8054.65
17394.6
12132
6820.4
4856.15
2927.09
2344.91
5797.92
4720.18
2391.31
2319.2
7260.84
4834.15
3284.7
2065.5
11091.3
6358.34
8826.78
10834.7
15976.5
11770.1
13403.4
18856.2
6963.64
3511.4
4948.82
6047.56
3136.79
1408.18
1875.94
2112.05
16787.1
29551.5
11112.4
32890.7
19195.2
28489.3
13500
33891.9
20998.5
25123.3
16860
32251.3
19104.5
19303.5
17258.6
17518.4
19101.5
18906.4
21023.3
23925.8
26667.2
38668.8
15639.9
14586.3
14562.2
17257.9
26742.8
34254.4
30216.5
39513.2
37529.1
31090.8
28358.6
38571.3
36385.3
26431.5
25448.4
35609.9
34561.6
13816.9
10867.6
16066.2
14291.3
19540.3
18298.2
22928
22523.6
31885.2
32737.3
12689.4
11359
14632.4
15321.1
17096
19457
20626
24190
27473.7
32373.5
11597.7
8730.28
7382.29
8493.53
13191.5
14319.5
8595.7
12400.8
7283.53
8490.52
11566.6
9224.46
1920.59
5305.63
467.693
1544.52
4045.22
7907.93
1010.8
2367.24
1490.36
5127.37
287.121
1478.65
7904.48
7352.07
9587.54
5917.89
13064.1
10254.9
16039.6
11047.5
2378.51
3857.68
4728.6
2658.13
2060.07
2469.14
2979.11
2129.42
23910.3
14338.3
4582.52
26906.5
15306.2
4970.21
22793.8
14057.9
4778.27
26139.3
15161.2
4923.41
20609.9
12743.9
4170.93
25043.7
14936.7
4910.95
7688.25
4642.38
1445.67
11717
7669.45
2566.67
15585.4
10338.4
3488.76
19271.4
12301.6
4040.46
24441.5
15028.2
5079.45
8640.92
5311.31
1865.18
11962.3
8517.53
3202.09
15592.2
11119.6
4074.34
19753.1
13516.1
4802.35
24772.3
15376.3
5395.84
255.124
1996.9
2794.42
4068.1
2730.99
2881.7
6645.96
6058.75
531.902
765.341
565.717
791.536
346.149
1075.25
690.835
1434.84
2579.59
1312.5
3510.21
2103.21
1685.56
2788.05
3243.01
-152.758
7171.42
917.86
-3117.33
-894.668
977.16
46.768
69.1018
-513.413
7326.99
2699.9
1923.12
981.226
7469.55
2764.21
2430.15
1206.61
7502.93
2922.77
3327.75
1792.83
2044.95
1099.24
111.742
226.114
12718
10647.4
5677.65
5505.52
15601.5
13918.4
7447.54
6994.94
4269.13
4118.1
9583.92
7360
2946.02
3020.06
1027.42
1469.54
4182.9
3952.69
1669.7
1939.26
2027.48
2267.79
540.212
1162.17
3180.29
1609.36
2933.23
1459.71
5424.24
2275.7
4668.13
2158.43
1473.9
957.735
1647.49
809.66
279.416
305.992
829.466
330.738
8157.72
4442.3
3244.02
2625.05
8227.93
4762.39
3228.05
2629.29
8937.93
5455.37
3284.64
2657.61
13871.3
17130.7
10964.3
6164.86
2471.52
15750.4
12555.5
9956.72
6858.5
3058.3
14734.9
11521
7893.05
4999.87
2153.66
2728.88
1749.45
2034.5
1652.79
3121.86
1957.49
2170.04
1752.88
3843
2453.81
2400.06
1946.11
11473.4
7893.41
9030.34
5824.38
5937.77
4186.94
4466.25
3146.63
2393.31
2115.72
9613.71
8014.23
7247.69
5801.67
5152.83
4112.38
3545.21
2922.08
1809.8
1983.81
6481.49
4205.96
4072.54
2491.85
9750.08
7088.24
6396.08
5027.95
2767.13
1632.35
4243.49
2854.66
3674.44
1710.99
933.358
465.342
4487.12
3185.17
1097.46
908.204
2693.43
1133.77
730.863
315.315
1699.09
1312.75
927.038
1145.56
2551.07
1971.08
1239.12
1461.14
1696.86
888.137
654.679
765.6
295.747
101.415
-217.322
-5.2585
1006.26
409.168
114.804
956.493
272.478
71.3813
1169.09
500.549
147.381
1035.66
310.572
84.6393
1420.51
643.509
178.408
1164.43
366.285
94.3151
5029.02
2804.16
814.278
3445.22
1774.02
514.686
2504.95
1229.32
363.017
1813.43
831.122
222.255
1291.35
406.464
91.1832
5827.66
3131.35
993.435
4046.97
2009.23
606.59
2834.46
1363
404.327
1973.61
871.473
241.828
1412.31
402.842
104.143
804.711
223.804
52.227
5.25622
329.652
93.8247
23.6542
3.99659
830.149
234.179
58.2867
9.46215
389.427
113.698
39.0716
12.933
856.796
244.44
71.8072
18.8127
574.742
174.624
38.2361
5.75445
302.972
103.967
3.48892
-9.0801
131.32
60.7937
13.3096
3.03569
598.832
183.136
36.8962
-4.77353
457.629
135.497
41.9569
1.19807
786.936
227.521
62.4861
9.67205
643.021
182.149
57.2048
1.09075
380.841
125.295
26.9195
-0.917939
285.722
89.9576
30.834
4.60318
160.56
61.9806
18.228
5.78931
118.514
43.5147
17.7052
6.07033
979.676
272.435
65.835
3.96656
874.12
244.531
79.4908
6.25839
964.576
268.474
65.4607
3.58114
847.769
235.509
78.2718
5.59523
928.726
258.187
74.2337
10.1478
801.514
219.814
81.1982
9.21652
773.629
218.679
75.5077
21.687
868.379
235.758
99.3604
13.1594
645.129
180.363
66.3495
10.5398
608.615
163.697
62.1148
9.4727
224.558
57.8239
18.6298
5.2266
640.402
171.291
63.6236
9.63086
239.071
61.3465
20.2177
6.04355
676.436
179.32
67.8597
10.7191
255.323
65.2169
21.7114
6.8141
624.802
165.282
69.5355
11.658
257.684
65.5844