/*--------------------------------*- C++ -*----------------------------------*\
| =========                 |                                                 |
| \\      /  F ield         | OpenFOAM: The Open Source CFD Toolbox           |
|  \\    /   O peration     | Version:  2306                                  |
|   \\  /    A nd           | Website:  www.openfoam.com                      |
|    \\/     M anipulation  |                                                 |
\*---------------------------------------------------------------------------*/
FoamFile
{
    version     2.0;
    format      ascii;
    arch        "LSB;label=32;scalar=64";
    class       volScalarField;
    location    "200";
    object      p;
}
// * * * * * * * * * * * * * * * * * * * * * * * * * * * * * * * * * * * * * //

dimensions      [0 2 -2 0 0 0 0];

internalField   nonuniform List<scalar> 
12225
(
-2.75957
-4.9168
-6.00941
-6.32318
-6.50001
-6.6788
-6.82694
-6.93862
-7.03029
-7.11332
-7.19075
-7.26366
-7.33373
-7.40298
-7.47389
-7.54598
-7.63381
-7.68775
-5.8898
-6.67747
-6.88239
-6.79444
-6.76943
-6.83375
-6.91689
-6.99125
-7.06079
-7.1301
-7.19878
-7.26592
-7.33205
-7.39839
-7.46663
-7.53805
-7.61749
-7.72057
-6.26982
-6.20377
-6.32325
-6.41033
-6.51873
-6.66127
-6.79612
-6.90662
-7.00068
-7.08639
-7.16622
-7.24104
-7.31239
-7.38205
-7.45204
-7.52359
-7.60148
-7.68446
-6.1425
-6.05507
-6.31432
-6.50646
-6.62899
-6.75029
-6.86393
-6.95835
-7.03956
-7.11482
-7.18643
-7.25485
-7.32105
-7.3863
-7.45195
-7.51871
-7.58775
-7.6537
-6.13408
-6.14863
-6.39565
-6.56068
-6.65366
-6.75216
-6.85445
-6.94494
-7.02505
-7.10019
-7.17213
-7.24102
-7.30752
-7.37258
-7.43713
-7.50135
-7.56481
-7.62373
-6.19513
-6.24018
-6.42671
-6.56673
-6.65694
-6.7531
-6.85369
-6.94416
-7.0245
-7.0994
-7.17073
-7.23879
-7.30414
-7.36758
-7.42968
-7.49032
-7.54867
-7.60184
-6.25773
-6.29998
-6.44402
-6.57439
-6.66851
-6.76232
-6.85838
-6.94609
-7.02471
-7.09801
-7.16778
-7.23433
-7.29808
-7.35959
-7.41916
-7.47646
-7.53054
-7.57907
-6.31325
-6.35044
-6.46796
-6.58883
-6.68241
-6.77159
-6.86213
-6.94662
-7.02344
-7.0952
-7.16349
-7.22861
-7.29082
-7.35046
-7.40763
-7.46193
-7.51246
-7.55747
-6.36501
-6.39886
-6.49644
-6.60531
-6.69544
-6.78009
-6.86561
-6.94691
-7.0218
-7.09193
-7.15861
-7.22214
-7.28266
-7.34034
-7.39515
-7.44668
-7.49421
-7.53648
-6.4141
-6.44471
-6.52611
-6.62274
-6.70835
-6.78886
-6.86967
-6.94753
-7.02015
-7.08838
-7.15324
-7.215
-7.27368
-7.32934
-7.38187
-7.43091
-7.47593
-7.51601
-6.46031
-6.48743
-6.55587
-6.64124
-6.72163
-6.798
-6.87426
-6.94847
-7.01853
-7.08465
-7.14754
-7.20737
-7.26412
-7.31774
-7.36811
-7.41492
-7.4578
-7.49612
-6.49984
-6.52387
-6.58282
-6.65893
-6.73407
-6.80653
-6.87878
-6.94959
-7.01712
-7.08116
-7.14211
-7.20009
-7.25502
-7.3068
-7.3553
-7.40026
-7.44145
-7.47842
-6.53617
-6.55755
-6.60869
-6.67657
-6.74641
-6.81495
-6.88338
-6.95084
-7.01577
-7.07766
-7.13663
-7.19273
-7.24585
-7.29584
-7.34258
-7.38588
-7.4256
-7.4614
-6.57393
-6.5927
-6.63657
-6.69631
-6.76025
-6.82434
-6.8886
-6.95234
-7.01424
-7.07359
-7.13027
-7.18421
-7.23528
-7.28332
-7.32821
-7.3698
-7.40805
-7.44274
-6.61161
-6.62784
-6.66523
-6.71731
-6.77504
-6.83425
-6.89409
-6.95385
-7.01237
-7.06884
-7.12294
-7.17449
-7.22333
-7.2693
-7.31228
-7.35219
-7.38901
-7.42264
-6.64691
-6.66081
-6.69269
-6.73795
-6.7896
-6.84378
-6.89915
-6.95483
-7.00978
-7.06316
-7.1145
-7.16353
-7.21006
-7.25393
-7.29504
-7.33331
-7.3688
-7.40143
-6.67645
-6.68842
-6.71589
-6.75552
-6.80179
-6.85127
-6.90242
-6.95424
-7.00572
-7.05604
-7.10466
-7.15123
-7.19553
-7.23741
-7.27677
-7.31357
-7.34784
-7.37959
-6.69523
-6.70582
-6.73023
-6.76586
-6.80812
-6.85392
-6.9017
-6.95037
-6.99898
-7.04671
-7.09299
-7.13745
-7.17986
-7.22006
-7.25796
-7.29354
-7.32682
-7.35784
-6.69553
-6.70548
-6.72856
-6.76251
-6.80303
-6.84713
-6.89321
-6.94025
-6.9873
-7.03357
-7.07848
-7.12167
-7.16291
-7.20208
-7.23909
-7.27395
-7.30667
-7.33733
-6.67127
-6.68175
-6.70603
-6.74176
-6.78415
-6.8297
-6.8768
-6.92464
-6.97234
-7.01908
-7.06427
-7.10762
-7.14893
-7.18811
-7.22508
-7.25989
-7.29255
-7.32317
-6.63698
-6.64836
-6.67512
-6.71473
-6.76097
-6.80952
-6.85905
-6.90906
-6.95861
-7.00676
-7.05302
-7.09721
-7.1392
-7.17891
-7.21633
-7.25149
-7.28449
-7.31544
-6.59465
-6.60674
-6.63729
-6.68354
-6.73546
-6.78758
-6.84015
-6.89332
-6.94566
-6.99594
-7.04381
-7.08926
-7.13222
-7.17265
-7.2106
-7.24616
-7.27943
-7.31057
-6.54767
-6.55908
-6.59415
-6.65045
-6.71006
-6.76622
-6.82209
-6.87861
-6.93379
-6.98632
-7.03608
-7.08315
-7.12744
-7.16893
-7.20772
-7.24399
-7.27787
-7.30963
-6.49861
-6.50768
-6.54907
-6.61677
-6.68317
-6.74431
-6.80582
-6.86696
-6.92491
-6.97917
-7.0303
-7.07846
-7.12354
-7.16555
-7.20471
-7.24122
-7.27525
-7.30694
-6.44745
-6.44874
-6.51171
-6.59356
-6.65733
-6.71817
-6.78591
-6.85376
-6.91635
-6.974
-7.02798
-7.07843
-7.12519
-7.16839
-7.20835
-7.24541
-7.2799
-7.31229
-6.40117
-6.35271
-6.46862
-6.5903
-6.65306
-6.70592
-6.77078
-6.83771
-6.89965
-6.95735
-7.01207
-7.06357
-7.11142
-7.1557
-7.19671
-7.23478
-7.27013
-7.30289
-6.41826
-6.22026
-6.35358
-6.53184
-6.63731
-6.71812
-6.79782
-6.87034
-6.9336
-6.99098
-7.04442
-7.0939
-7.13931
-7.181
-7.21942
-7.25502
-7.28827
-7.32024
-6.55914
-6.31169
-6.2883
-6.34361
-6.42665
-6.53529
-6.64671
-6.74455
-6.82944
-6.90594
-6.97568
-7.03855
-7.09478
-7.14524
-7.19072
-7.23186
-7.26949
-7.3049
-6.28713
-6.91785
-7.03659
-6.8967
-6.80907
-6.81645
-6.85869
-6.90363
-6.94926
-6.99748
-7.04649
-7.09385
-7.13824
-7.17958
-7.21791
-7.25313
-7.28558
-7.31662
-3.23268
-4.99978
-6.01309
-6.29463
-6.42114
-6.56388
-6.69382
-6.79453
-6.87679
-6.94998
-7.01619
-7.07529
-7.12786
-7.17481
-7.21684
-7.25416
-7.2869
-7.3135
-8.1136
-8.11339
-8.11378
-8.11493
-8.11654
-8.11837
-8.1203
-8.12233
-8.12447
-8.12672
-8.12911
-8.13169
-8.1345
-8.13758
-8.14097
-8.14471
-8.14883
-8.15337
-8.15838
-8.1639
-8.16998
-8.17667
-8.18403
-8.1921
-8.20093
-8.21057
-8.22106
-8.23243
-8.24472
-8.25795
-8.27212
-8.28726
-8.30333
-8.32034
-8.33825
-8.35705
-8.37671
-8.39725
-8.41862
-8.44081
-8.46372
-8.48727
-8.51136
-8.53596
-8.561
-8.58647
-8.6123
-8.63847
-8.66489
-8.69155
-8.71835
-8.74526
-8.77219
-8.7991
-8.82588
-8.85248
-8.87879
-8.90473
-8.93019
-8.9551
-8.9793
-9.00271
-9.02516
-9.04658
-9.06677
-9.08564
-9.10298
-9.11868
-9.13253
-9.14439
-9.15403
-9.16132
-9.16601
-9.16795
-9.16688
-9.16265
-9.15499
-9.14371
-9.12855
-9.10931
-9.08573
-9.05762
-9.02469
-8.98677
-8.94357
-8.89489
-8.84044
-8.78003
-8.7134
-8.64034
-8.56066
-8.47415
-8.38061
-8.27992
-8.17203
-8.05696
-7.93457
-7.80441
-7.66598
-7.51919
-7.36413
-7.20083
-7.02931
-6.84955
-6.66157
-6.46541
-6.26114
-6.04887
-5.82872
-5.60087
-5.36551
-5.12287
-4.87322
-4.61686
-4.3541
-4.08531
-3.81089
-3.53127
-3.24689
-2.95819
-2.66569
-2.36989
-2.07133
-1.77057
-1.46815
-1.16459
-0.86046
-0.556303
-0.252653
0.0499898
0.35112
0.650247
0.946907
1.24065
1.53108
1.81779
2.10045
2.37876
2.65247
2.92134
3.18517
3.4438
3.69713
3.9451
4.1877
4.42495
4.65691
4.8837
5.10545
5.32235
5.53461
5.74248
5.94624
6.1462
6.3427
6.5361
6.72678
6.91517
7.10168
7.28676
7.47087
7.65447
7.83803
8.02202
8.2069
8.39318
8.58128
8.77152
8.96396
9.15865
9.35591
9.55611
9.75937
9.96564
10.1748
10.3866
10.6014
10.8187
11.0487
11.28
-8.1134
-8.11344
-8.11394
-8.11502
-8.11634
-8.11763
-8.11882
-8.11996
-8.12115
-8.1225
-8.1241
-8.12598
-8.12816
-8.13062
-8.13339
-8.1365
-8.14
-8.14393
-8.14833
-8.15325
-8.15874
-8.16487
-8.17169
-8.17925
-8.18761
-8.19681
-8.20689
-8.2179
-8.22985
-8.24277
-8.25666
-8.27153
-8.28736
-8.30414
-8.32183
-8.34041
-8.35984
-8.3801
-8.40116
-8.42298
-8.44549
-8.46863
-8.49233
-8.51655
-8.54123
-8.56634
-8.59182
-8.61764
-8.64372
-8.67005
-8.69653
-8.72313
-8.74978
-8.7764
-8.80293
-8.82928
-8.85537
-8.88112
-8.90642
-8.93118
-8.95528
-8.9786
-9.00103
-9.02243
-9.04266
-9.06159
-9.07904
-9.09489
-9.10894
-9.12103
-9.13097
-9.13859
-9.14368
-9.14605
-9.1455
-9.14181
-9.13477
-9.12415
-9.10973
-9.09129
-9.06858
-9.04139
-9.00947
-8.97261
-8.93055
-8.88309
-8.82995
-8.77093
-8.70579
-8.63434
-8.55637
-8.47169
-8.38008
-8.28136
-8.17533
-8.06178
-7.94043
-7.81117
-7.67407
-7.52909
-7.37607
-7.21492
-7.0456
-6.86807
-6.68235
-6.48847
-6.28649
-6.0765
-5.85863
-5.63304
-5.39992
-5.15948
-4.91198
-4.6577
-4.39697
-4.13013
-3.85758
-3.57972
-3.29698
-3.00983
-2.71874
-2.42423
-2.12683
-1.82708
-1.52553
-1.22271
-0.91916
-0.61543
-0.312067
-0.0095644
0.291571
0.59085
0.8878
1.18198
1.47296
1.76037
2.04383
2.32307
2.59779
2.86777
3.13277
3.39264
3.64726
3.89657
4.14052
4.37915
4.61249
4.84065
5.06376
5.28198
5.49552
5.70462
5.90954
6.1106
6.30811
6.50243
6.69393
6.88304
7.07014
7.25571
7.44016
7.62398
7.80764
7.99161
8.17635
8.36231
8.54986
8.73931
8.93073
9.12431
9.32042
9.51942
9.72145
9.92653
10.1347
10.3457
10.5606
10.7783
11.0118
11.2375
-8.10978
-8.11055
-8.11187
-8.11328
-8.11443
-8.11523
-8.11577
-8.1162
-8.11665
-8.11724
-8.11805
-8.11915
-8.12057
-8.12235
-8.12452
-8.12712
-8.13017
-8.13372
-8.13782
-8.1425
-8.14783
-8.15386
-8.16062
-8.16817
-8.17655
-8.18578
-8.19591
-8.20694
-8.21889
-8.23177
-8.24557
-8.26028
-8.27591
-8.29242
-8.30979
-8.32801
-8.34702
-8.36682
-8.38735
-8.40859
-8.43049
-8.453
-8.47608
-8.49967
-8.52373
-8.54823
-8.5731
-8.59832
-8.62382
-8.64957
-8.6755
-8.70156
-8.72768
-8.7538
-8.77985
-8.80575
-8.83141
-8.85676
-8.88168
-8.9061
-8.92988
-8.95293
-8.97512
-8.99632
-9.0164
-9.03522
-9.05261
-9.06844
-9.08252
-9.0947
-9.10479
-9.11261
-9.11797
-9.12067
-9.12051
-9.11728
-9.11077
-9.10076
-9.08702
-9.06933
-9.04746
-9.02119
-8.99027
-8.95449
-8.9136
-8.86738
-8.81559
-8.75799
-8.69437
-8.62452
-8.54826
-8.46537
-8.37567
-8.27895
-8.17503
-8.06366
-7.94458
-7.81765
-7.68288
-7.54024
-7.38965
-7.23101
-7.06426
-6.88935
-6.70629
-6.51509
-6.31582
-6.10856
-5.89342
-5.67055
-5.44013
-5.20236
-4.9575
-4.70581
-4.4476
-4.18322
-3.91303
-3.63744
-3.35687
-3.07176
-2.78259
-2.48987
-2.1941
-1.89585
-1.59564
-1.29403
-0.991517
-0.68864
-0.385961
-0.0839906
0.216774
0.515849
0.812759
1.10706
1.39832
1.68615
1.97019
2.25013
2.52568
2.79659
3.06264
3.32363
3.57945
3.83002
4.07529
4.31525
4.54995
4.77947
5.00392
5.22346
5.43828
5.64859
5.85466
6.05677
6.25524
6.45039
6.64262
6.83229
7.01983
7.20564
7.39019
7.57392
7.75729
7.94077
8.12486
8.31001
8.49659
8.6849
8.87515
9.06756
9.26248
9.46021
9.66096
9.86483
10.072
10.2824
10.4975
10.7156
10.9519
11.1654
-8.10242
-8.10419
-8.10689
-8.1092
-8.11078
-8.11181
-8.11246
-8.11288
-8.11324
-8.11367
-8.11427
-8.11513
-8.1163
-8.11784
-8.1198
-8.12222
-8.12513
-8.12859
-8.13264
-8.13733
-8.14269
-8.14878
-8.15562
-8.16326
-8.17172
-8.18103
-8.19121
-8.20226
-8.21419
-8.22701
-8.2407
-8.25526
-8.27067
-8.28692
-8.30399
-8.32186
-8.34048
-8.35985
-8.37992
-8.40067
-8.42205
-8.44403
-8.46656
-8.48962
-8.51315
-8.53712
-8.56149
-8.58621
-8.61124
-8.63652
-8.66201
-8.68765
-8.71337
-8.73911
-8.7648
-8.79038
-8.81574
-8.84081
-8.8655
-8.88971
-8.91332
-8.93623
-8.95831
-8.97944
-8.99949
-9.01831
-9.03576
-9.05167
-9.06589
-9.07825
-9.08857
-9.09666
-9.10234
-9.10542
-9.10568
-9.10293
-9.09695
-9.08753
-9.07443
-9.05745
-9.03635
-9.0109
-8.98087
-8.94603
-8.90615
-8.86099
-8.81033
-8.75392
-8.69154
-8.623
-8.54809
-8.4666
-8.37833
-8.28309
-8.18068
-8.07089
-7.9535
-7.82838
-7.69547
-7.55472
-7.40603
-7.24933
-7.08455
-6.91165
-6.73062
-6.54147
-6.34426
-6.13906
-5.92598
-5.70516
-5.47677
-5.24102
-4.99813
-4.74837
-4.49204
-4.22948
-3.96105
-3.68713
-3.40815
-3.12454
-2.83677
-2.54534
-2.25077
-1.95359
-1.65434
-1.35357
-1.05179
-0.749515
-0.447286
-0.145647
0.154908
0.453899
0.750853
1.04532
1.33688
1.62512
1.90969
2.19026
2.46654
2.73827
3.00521
3.26719
3.52406
3.77573
4.02215
4.26329
4.49921
4.72995
4.95562
5.17637
5.39238
5.60384
5.81102
6.01416
6.2136
6.40964
6.60264
6.79298
6.98105
7.16726
7.35204
7.53585
7.71914
7.90235
8.08592
8.27027
8.45577
8.64279
8.83165
9.02263
9.21606
9.41225
9.61139
9.81366
10.0193
10.2283
10.4423
10.6587
10.8931
11.0928
-8.09266
-8.09555
-8.10006
-8.10372
-8.10614
-8.10778
-8.1089
-8.10968
-8.1103
-8.11092
-8.11166
-8.11263
-8.11391
-8.11556
-8.11765
-8.12021
-8.1233
-8.12695
-8.13122
-8.13613
-8.14174
-8.14807
-8.15515
-8.16301
-8.17167
-8.18115
-8.19146
-8.20261
-8.2146
-8.22743
-8.24108
-8.25556
-8.27085
-8.28692
-8.30377
-8.32138
-8.3397
-8.35874
-8.37845
-8.39881
-8.41979
-8.44136
-8.46348
-8.48612
-8.50924
-8.53281
-8.55679
-8.58114
-8.6058
-8.63074
-8.65589
-8.68122
-8.70665
-8.73213
-8.75758
-8.78292
-8.80809
-8.83299
-8.85753
-8.88161
-8.90513
-8.92798
-8.95003
-8.97116
-8.99123
-9.01012
-9.02765
-9.04369
-9.05807
-9.07062
-9.08117
-9.08953
-9.09552
-9.09894
-9.09958
-9.09725
-9.09173
-9.08281
-9.07026
-9.05386
-9.03339
-9.00861
-8.97929
-8.94521
-8.90612
-8.86181
-8.81202
-8.75654
-8.69512
-8.62758
-8.55371
-8.47329
-8.38611
-8.29199
-8.19072
-8.08211
-7.96598
-7.84219
-7.71065
-7.57126
-7.42394
-7.26861
-7.10519
-6.93367
-6.75401
-6.56625
-6.37041
-6.16657
-5.95484
-5.73535
-5.50826
-5.27377
-5.03211
-4.78354
-4.52835
-4.26688
-3.99948
-3.72653
-3.44844
-3.16566
-2.87866
-2.58792
-2.29397
-1.99732
-1.69853
-1.39813
-1.09666
-0.79462
-0.492533
-0.190951
0.109621
0.408701
0.705827
1.00053
1.2924
1.58102
1.86604
2.14711
2.42394
2.69626
2.96383
3.22648
3.48404
3.73644
3.9836
4.22551
4.46217
4.69367
4.92009
5.14158
5.35829
5.57044
5.77824
5.98199
6.18196
6.37848
6.57188
6.76254
6.95083
7.13718
7.32198
7.50568
7.68869
7.87148
8.05444
8.238
8.42253
8.60843
8.79603
8.98571
9.17779
9.37256
9.57026
9.77107
9.97524
10.1828
10.395
10.6089
10.839
11.0261
-8.08253
-8.08642
-8.09277
-8.09788
-8.10134
-8.10378
-8.10557
-8.10691
-8.10801
-8.10904
-8.11015
-8.11145
-8.11305
-8.11502
-8.11742
-8.12031
-8.12373
-8.12773
-8.13235
-8.13761
-8.14356
-8.15022
-8.15761
-8.16576
-8.17468
-8.18439
-8.19488
-8.20617
-8.21826
-8.23113
-8.24478
-8.25922
-8.27441
-8.29036
-8.30704
-8.32444
-8.34254
-8.36132
-8.38075
-8.40082
-8.42149
-8.44275
-8.46456
-8.48689
-8.50971
-8.53298
-8.55667
-8.58074
-8.60513
-8.62982
-8.65475
-8.67986
-8.7051
-8.7304
-8.75569
-8.78091
-8.80597
-8.83078
-8.85526
-8.87931
-8.90282
-8.92568
-8.94777
-8.96896
-8.98913
-9.00813
-9.02581
-9.04202
-9.0566
-9.06938
-9.08018
-9.08883
-9.09512
-9.09888
-9.09989
-9.09795
-9.09286
-9.08438
-9.07231
-9.05642
-9.03649
-9.01227
-8.98355
-8.95009
-8.91166
-8.86802
-8.81894
-8.76418
-8.70353
-8.63677
-8.5637
-8.48411
-8.39777
-8.3045
-8.2041
-8.09638
-7.98118
-7.85835
-7.72778
-7.58936
-7.443
-7.28862
-7.12615
-6.95556
-6.77682
-6.58995
-6.395
-6.19203
-5.98114
-5.76246
-5.53615
-5.3024
-5.06144
-4.81352
-4.55895
-4.29803
-4.03114
-3.75864
-3.48095
-3.19851
-2.9118
-2.6213
-2.32753
-2.03102
-1.7323
-1.43193
-1.13044
-0.828355
-0.526173
-0.224443
0.0763179
0.375632
0.673025
0.968038
1.26024
1.54922
1.83461
2.11608
2.39331
2.66604
2.93402
3.19708
3.45506
3.70785
3.95539
4.19767
4.43468
4.6665
4.8932
5.11495
5.33187
5.5442
5.75213
5.95595
6.15593
6.3524
6.54568
6.73616
6.92419
7.11019
7.29456
7.47774
7.66014
7.84221
8.02437
8.20703
8.39057
8.57538
8.76185
8.95035
9.14124
9.33479
9.53128
9.73087
9.9338
10.14
10.3504
10.5616
10.7876
10.9636
-8.07376
-8.07847
-8.08631
-8.09277
-8.09726
-8.10055
-8.10308
-8.10508
-8.10677
-8.10833
-8.10993
-8.1117
-8.11374
-8.11614
-8.11896
-8.12226
-8.1261
-8.1305
-8.13551
-8.14115
-8.14747
-8.15447
-8.16218
-8.17062
-8.17979
-8.18971
-8.20039
-8.21182
-8.224
-8.23694
-8.25061
-8.26503
-8.28018
-8.29605
-8.31262
-8.32989
-8.34783
-8.36643
-8.38568
-8.40554
-8.42601
-8.44705
-8.46864
-8.49076
-8.51336
-8.53643
-8.55992
-8.58381
-8.60803
-8.63257
-8.65736
-8.68235
-8.70748
-8.7327
-8.75793
-8.78311
-8.80815
-8.83297
-8.85747
-8.88156
-8.90514
-8.92809
-8.95029
-8.97162
-8.99194
-9.01112
-9.029
-9.04543
-9.06024
-9.07327
-9.08435
-9.09329
-9.0999
-9.10399
-9.10535
-9.10378
-9.09907
-9.091
-9.07936
-9.06391
-9.04442
-9.02068
-8.99245
-8.95949
-8.92158
-8.87848
-8.82995
-8.77576
-8.71569
-8.64952
-8.57706
-8.49808
-8.41237
-8.31972
-8.21995
-8.11288
-7.99834
-7.87617
-7.74627
-7.6085
-7.46278
-7.30902
-7.14716
-6.97715
-6.79898
-6.61265
-6.41822
-6.21574
-6.00531
-5.78705
-5.56113
-5.32774
-5.08709
-4.83944
-4.58509
-4.32435
-4.05758
-3.78517
-3.50751
-3.22507
-2.93831
-2.64773
-2.35384
-2.05717
-1.75826
-1.45766
-1.15592
-0.853585
-0.551141
-0.249121
0.0519525
0.351599
0.649336
0.944702
1.23725
1.52659
1.81233
2.09413
2.37168
2.64469
2.91296
3.17626
3.43446
3.68743
3.93514
4.17752
4.41463
4.64648
4.87319
5.09485
5.31167
5.5238
5.73151
5.93501
6.13463
6.33065
6.52343
6.71331
6.90069
7.08595
7.26953
7.45184
7.63331
7.81438
7.99549
8.17703
8.35943
8.54307
8.72835
8.91567
9.10538
9.29778
9.49313
9.6916
9.89337
10.0982
10.307
10.5156
10.738
10.9047
-8.06753
-8.0728
-8.0816
-8.0891
-8.0945
-8.09858
-8.10182
-8.10447
-8.10676
-8.10888
-8.11101
-8.11329
-8.11581
-8.11866
-8.12193
-8.12567
-8.12992
-8.13472
-8.14012
-8.14614
-8.15279
-8.16012
-8.16812
-8.17683
-8.18623
-8.19636
-8.2072
-8.21877
-8.23105
-8.24406
-8.25777
-8.27221
-8.28734
-8.30317
-8.31968
-8.33687
-8.35472
-8.37322
-8.39235
-8.41209
-8.43242
-8.45334
-8.4748
-8.49678
-8.51927
-8.54222
-8.56561
-8.58941
-8.61356
-8.63803
-8.66277
-8.68774
-8.71286
-8.73809
-8.76335
-8.78857
-8.81367
-8.83858
-8.86318
-8.8874
-8.91112
-8.93422
-8.9566
-8.97812
-8.99865
-9.01804
-9.03616
-9.05283
-9.06791
-9.08122
-9.09258
-9.10181
-9.10873
-9.11314
-9.11483
-9.1136
-9.10923
-9.10152
-9.09023
-9.07515
-9.05605
-9.03269
-9.00485
-8.97229
-8.93478
-8.89208
-8.84396
-8.79019
-8.73054
-8.6648
-8.59277
-8.51422
-8.42894
-8.33672
-8.23737
-8.13072
-8.0166
-7.89485
-7.76536
-7.62799
-7.48264
-7.32923
-7.16769
-6.99799
-6.8201
-6.63403
-6.43982
-6.23753
-6.02726
-5.80913
-5.5833
-5.34995
-5.10931
-4.86163
-4.6072
-4.34635
-4.07942
-3.80681
-3.52892
-3.24621
-2.95916
-2.66826
-2.37403
-2.077
-1.77771
-1.47671
-1.17457
-0.871847
-0.569032
-0.266639
0.0348158
0.334842
0.632955
0.928683
1.22158
1.51124
1.79728
2.07934
2.35712
2.63033
2.89874
3.16217
3.42046
3.67349
3.92119
4.16353
4.40054
4.63223
4.85873
5.08013
5.29662
5.50836
5.71559
5.91856
6.11757
6.31291
6.50493
6.69399
6.88048
7.06479
7.24735
7.42857
7.6089
7.78878
7.96865
8.14892
8.33003
8.51239
8.6964
8.88247
9.07096
9.26219
9.4564
9.65374
9.85434
10.0579
10.2649
10.471
10.6903
10.8495
-8.06438
-8.0699
-8.07914
-8.0873
-8.09339
-8.09811
-8.10196
-8.10519
-8.10802
-8.11067
-8.1133
-8.11605
-8.11902
-8.12232
-8.126
-8.13014
-8.13477
-8.13994
-8.14569
-8.15203
-8.15899
-8.1666
-8.17486
-8.18379
-8.1934
-8.20371
-8.2147
-8.22639
-8.23877
-8.25186
-8.26563
-8.28009
-8.29524
-8.31107
-8.32757
-8.34473
-8.36254
-8.381
-8.40007
-8.41976
-8.44004
-8.4609
-8.48231
-8.50425
-8.5267
-8.54963
-8.573
-8.59679
-8.62095
-8.64545
-8.67023
-8.69524
-8.72044
-8.74575
-8.77112
-8.79646
-8.8217
-8.84676
-8.87154
-8.89593
-8.91985
-8.94316
-8.96576
-8.98751
-9.00828
-9.02792
-9.04629
-9.06324
-9.07858
-9.09217
-9.10381
-9.11333
-9.12053
-9.12523
-9.12721
-9.12627
-9.1222
-9.11478
-9.10379
-9.089
-9.07019
-9.04712
-9.01957
-8.9873
-8.95007
-8.90766
-8.85983
-8.80634
-8.74696
-8.6815
-8.60974
-8.53145
-8.44642
-8.35445
-8.25534
-8.14893
-8.03503
-7.9135
-7.7842
-7.64701
-7.50181
-7.34853
-7.1871
-7.01747
-6.83962
-6.65358
-6.45935
-6.25702
-6.04667
-5.82843
-5.60244
-5.3689
-5.12803
-4.88009
-4.62536
-4.36416
-4.09686
-3.82383
-3.54551
-3.26234
-2.97481
-2.68342
-2.38869
-2.09116
-1.79137
-1.48987
-1.18724
-0.884045
-0.580801
-0.277998
0.0238545
0.324262
0.622739
0.9188
1.21199
1.50191
1.78816
2.07041
2.34831
2.62161
2.89006
3.15348
3.4117
3.66462
3.91215
4.15429
4.391
4.62238
4.84846
5.06941
5.28535
5.49651
5.70307
5.90533
6.10354
6.29804
6.48915
6.67724
6.86269
7.04592
7.22732
7.40735
7.58643
7.76502
7.94357
8.12251
8.30228
8.48331
8.66603
8.85084
9.03812
9.22818
9.42126
9.61749
9.81692
10.0191
10.2245
10.4283
10.6448
10.7981
-8.06431
-8.06982
-8.07905
-8.08749
-8.094
-8.09917
-8.10347
-8.10716
-8.11044
-8.11353
-8.11659
-8.11975
-8.12312
-8.1268
-8.13084
-8.13532
-8.14027
-8.14575
-8.15178
-8.15839
-8.1656
-8.17344
-8.18191
-8.19104
-8.20082
-8.21127
-8.2224
-8.2342
-8.24668
-8.25985
-8.27368
-8.2882
-8.30339
-8.31925
-8.33577
-8.35295
-8.37077
-8.38923
-8.40832
-8.42801
-8.4483
-8.46918
-8.49061
-8.51258
-8.53506
-8.55804
-8.58147
-8.60533
-8.62957
-8.65417
-8.67906
-8.70421
-8.72954
-8.75501
-8.78054
-8.80607
-8.8315
-8.85676
-8.88175
-8.90637
-8.93052
-8.95408
-8.97692
-8.99892
-9.01994
-9.03984
-9.05847
-9.07567
-9.09128
-9.10512
-9.11701
-9.12678
-9.13423
-9.13917
-9.14138
-9.14067
-9.13683
-9.12962
-9.11884
-9.10426
-9.08564
-9.06277
-9.0354
-9.0033
-8.96625
-8.924
-8.87632
-8.82298
-8.76375
-8.69842
-8.62678
-8.54861
-8.46368
-8.3718
-8.27278
-8.16643
-8.05259
-7.9311
-7.80182
-7.66462
-7.51941
-7.36607
-7.20456
-7.03482
-6.85684
-6.67063
-6.47621
-6.27365
-6.06303
-5.84449
-5.61816
-5.38425
-5.14297
-4.89458
-4.63938
-4.37767
-4.10983
-3.83624
-3.55734
-3.27358
-2.98545
-2.69346
-2.39813
-2.1
-1.79963
-1.49757
-1.19441
-0.890719
-0.587022
-0.283808
0.0184227
0.319191
0.618003
0.914359
1.20779
1.4979
1.78429
2.06661
2.34453
2.61779
2.88613
3.14939
3.40738
3.66001
3.90719
4.14891
4.38516
4.61599
4.84148
5.06177
5.277
5.48738
5.69311
5.89448
6.09176
6.28526
6.47532
6.66231
6.84662
7.02865
7.20881
7.38757
7.56534
7.7426
7.9198
8.09739
8.27582
8.45553
8.63697
8.82054
9.00664
9.19556
9.38755
9.58269
9.78098
9.9819
10.1857
10.3873
10.6015
10.7501
-8.06704
-8.07232
-8.0812
-8.08957
-8.09622
-8.10163
-8.10621
-8.1102
-8.11381
-8.11724
-8.12063
-8.12411
-8.12779
-8.13176
-8.13609
-8.14084
-8.14605
-8.15176
-8.15802
-8.16484
-8.17225
-8.18026
-8.1889
-8.19818
-8.2081
-8.21868
-8.22991
-8.24182
-8.25439
-8.26763
-8.28154
-8.29612
-8.31137
-8.32728
-8.34386
-8.36109
-8.37896
-8.39748
-8.41663
-8.43639
-8.45675
-8.47769
-8.4992
-8.52127
-8.54385
-8.56694
-8.5905
-8.61449
-8.63888
-8.66363
-8.68869
-8.71402
-8.73954
-8.76521
-8.79096
-8.8167
-8.84236
-8.86785
-8.89308
-8.91795
-8.94234
-8.96614
-8.98922
-9.01147
-9.03273
-9.05286
-9.07172
-9.08914
-9.10496
-9.11901
-9.1311
-9.14105
-9.14868
-9.15378
-9.15615
-9.15558
-9.15187
-9.14478
-9.13411
-9.11963
-9.1011
-9.0783
-9.051
-9.01896
-8.98195
-8.93974
-8.89209
-8.83878
-8.77955
-8.71423
-8.64258
-8.56439
-8.47944
-8.38751
-8.28843
-8.18202
-8.06809
-7.9465
-7.8171
-7.67976
-7.53438
-7.38085
-7.21912
-7.04913
-6.87088
-6.68435
-6.4896
-6.28667
-6.07565
-5.85667
-5.62988
-5.39547
-5.15366
-4.90471
-4.64891
-4.38658
-4.11809
-3.84385
-3.56428
-3.27986
-2.99106
-2.69841
-2.40243
-2.10367
-1.80269
-1.50005
-1.19634
-0.892146
-0.587984
-0.284364
0.018223
0.319305
0.618397
0.914978
1.20858
1.49878
1.78519
2.06745
2.34524
2.61828
2.88635
3.14924
3.40683
3.65897
3.90561
4.14671
4.38229
4.61238
4.8371
5.05653
5.27087
5.48028
5.68503
5.88533
6.08152
6.27388
6.46277
6.64854
6.8316
7.01235
7.19122
7.36864
7.54508
7.72099
7.89684
8.07309
8.25021
8.42865
8.60886
8.79127
8.97625
9.16411
9.35507
9.54919
9.74641
9.94611
10.1484
10.3481
10.5602
10.7052
-8.0721
-8.077
-8.08526
-8.09327
-8.09982
-8.10525
-8.10992
-8.11407
-8.11786
-8.1215
-8.1251
-8.1288
-8.1327
-8.13689
-8.14142
-8.14636
-8.15175
-8.15764
-8.16406
-8.17103
-8.17858
-8.18673
-8.19549
-8.20488
-8.21491
-8.22558
-8.23691
-8.2489
-8.26155
-8.27487
-8.28886
-8.30352
-8.31885
-8.33484
-8.3515
-8.36881
-8.38677
-8.40538
-8.42462
-8.44449
-8.46496
-8.48603
-8.50768
-8.52989
-8.55262
-8.57587
-8.5996
-8.62377
-8.64835
-8.6733
-8.69856
-8.72409
-8.74983
-8.77572
-8.80169
-8.82766
-8.85355
-8.87927
-8.90473
-8.92981
-8.95442
-8.97843
-9.00172
-9.02416
-9.04561
-9.06592
-9.08493
-9.1025
-9.11845
-9.13262
-9.14481
-9.15486
-9.16256
-9.16772
-9.17014
-9.1696
-9.1659
-9.15882
-9.14814
-9.13363
-9.11507
-9.09223
-9.06487
-9.03277
-8.99569
-8.95339
-8.90565
-8.85223
-8.7929
-8.72746
-8.65568
-8.57736
-8.49225
-8.40018
-8.30093
-8.19433
-8.08021
-7.95841
-7.82878
-7.69119
-7.54553
-7.3917
-7.22965
-7.05932
-6.88069
-6.69377
-6.49859
-6.2952
-6.0837
-5.8642
-5.63687
-5.40188
-5.15947
-4.9099
-4.65345
-4.39046
-4.12129
-3.84635
-3.56608
-3.28096
-2.99146
-2.69812
-2.40147
-2.10206
-1.80045
-1.49724
-1.193
-0.888309
-0.583707
-0.279729
0.0231405
0.324443
0.623704
0.920396
1.21403
1.50418
1.79046
2.0725
2.34998
2.62264
2.89024
3.1526
3.40958
3.66104
3.90695
4.14725
4.38198
4.61116
4.83489
5.05331
5.26657
5.47487
5.67845
5.87757
6.07252
6.26362
6.45121
6.63567
6.8174
6.99679
7.1743
7.35036
7.52543
7.69999
7.8745
8.04944
8.22528
8.40251
8.58155
8.76286
8.9468
9.13367
9.32368
9.51686
9.71308
9.91166
10.1126
10.3106
10.5209
10.6633
-8.07897
-8.08337
-8.09083
-8.09826
-8.10448
-8.10974
-8.11433
-8.11846
-8.1223
-8.12601
-8.12971
-8.13352
-8.13754
-8.14185
-8.1465
-8.15156
-8.15706
-8.16306
-8.16958
-8.17665
-8.18429
-8.19253
-8.20137
-8.21084
-8.22095
-8.2317
-8.24311
-8.25518
-8.26792
-8.28132
-8.2954
-8.31015
-8.32556
-8.34165
-8.3584
-8.37581
-8.39387
-8.41259
-8.43195
-8.45195
-8.47257
-8.4938
-8.51562
-8.538
-8.56093
-8.58437
-8.60828
-8.63265
-8.65743
-8.68257
-8.70803
-8.73376
-8.7597
-8.78579
-8.81196
-8.83812
-8.8642
-8.8901
-8.91572
-8.94097
-8.96572
-8.98986
-9.01327
-9.03581
-9.05733
-9.07771
-9.09677
-9.11437
-9.13033
-9.14449
-9.15666
-9.16667
-9.17431
-9.1794
-9.18172
-9.18108
-9.17726
-9.17005
-9.15923
-9.14457
-9.12584
-9.10283
-9.07529
-9.043
-9.00572
-8.96323
-8.91528
-8.86165
-8.8021
-8.73643
-8.66443
-8.58588
-8.50054
-8.40822
-8.30872
-8.20187
-8.08747
-7.96538
-7.83545
-7.69754
-7.55154
-7.39737
-7.23495
-7.06424
-6.8852
-6.69785
-6.5022
-6.29833
-6.08632
-5.86629
-5.63839
-5.40281
-5.15978
-4.90956
-4.65244
-4.38876
-4.1189
-3.84326
-3.56229
-3.27646
-2.98627
-2.69226
-2.39496
-2.09493
-1.79276
-1.48903
-1.18431
-0.879192
-0.574247
-0.270021
0.033007
0.334395
0.633674
0.930326
1.22383
1.51377
1.79973
2.08137
2.35835
2.63043
2.89737
3.159
3.41515
3.66576
3.91072
4.15005
4.38371
4.6118
4.83438
5.05161
5.26363
5.47066
5.67293
5.87073
6.06432
6.25405
6.44026
6.62333
6.80365
6.98165
7.15776
7.33245
7.50616
7.67938
7.85259
8.02627
8.20092
8.377
8.55498
8.73528
8.91828
9.10427
9.29344
9.48577
9.6811
9.87867
10.0785
10.275
10.4836
10.6243
-8.08711
-8.09095
-8.09751
-8.10419
-8.10991
-8.11481
-8.11916
-8.12312
-8.12685
-8.13049
-8.13417
-8.13797
-8.142
-8.14633
-8.15102
-8.15612
-8.16168
-8.16772
-8.1743
-8.18142
-8.18912
-8.19741
-8.20632
-8.21585
-8.22602
-8.23684
-8.24831
-8.26045
-8.27326
-8.28673
-8.30088
-8.31571
-8.33121
-8.34738
-8.36423
-8.38174
-8.39992
-8.41876
-8.43826
-8.45841
-8.47919
-8.50058
-8.52257
-8.54513
-8.56823
-8.59185
-8.61593
-8.64047
-8.6654
-8.69069
-8.7163
-8.74217
-8.76825
-8.79446
-8.82073
-8.847
-8.87316
-8.89913
-8.9248
-8.95008
-8.97484
-8.99897
-9.02235
-9.04483
-9.06629
-9.08657
-9.10552
-9.12298
-9.13879
-9.15278
-9.16476
-9.17456
-9.18199
-9.18684
-9.18892
-9.18803
-9.18395
-9.17647
-9.16536
-9.15042
-9.13141
-9.1081
-9.08027
-9.04769
-9.01013
-8.96734
-8.91911
-8.86519
-8.80535
-8.7394
-8.66713
-8.58829
-8.50268
-8.41007
-8.31029
-8.20314
-8.08845
-7.96605
-7.8358
-7.69756
-7.55122
-7.39669
-7.2339
-7.06279
-6.88334
-6.69556
-6.49946
-6.29511
-6.0826
-5.86204
-5.63359
-5.39744
-5.15382
-4.90297
-4.64521
-4.38088
-4.11036
-3.83406
-3.55243
-3.26596
-2.97515
-2.68053
-2.38266
-2.08212
-1.77948
-1.47532
-1.17023
-0.864803
-0.559655
-0.255326
0.0477046
0.349005
0.648122
0.944542
1.23774
1.52726
1.81271
2.09374
2.37002
2.6413
2.90737
3.16805
3.4232
3.67273
3.91657
4.15471
4.38715
4.61396
4.83523
5.0511
5.26174
5.46736
5.66821
5.86456
6.0567
6.24498
6.42973
6.61135
6.79024
6.96682
7.14153
7.31484
7.48722
7.65915
7.83112
8.00361
8.17714
8.35217
8.52918
8.70857
8.89075
9.07596
9.26439
9.45598
9.65053
9.8472
10.046
10.2412
10.4484
10.588
-8.09604
-8.09931
-8.1049
-8.11073
-8.1158
-8.1202
-8.12413
-8.12777
-8.13124
-8.13467
-8.13818
-8.14187
-8.14581
-8.15007
-8.15472
-8.15979
-8.16534
-8.17139
-8.17797
-8.18512
-8.19284
-8.20116
-8.2101
-8.21966
-8.22986
-8.24072
-8.25223
-8.26441
-8.27726
-8.29079
-8.30499
-8.31988
-8.33545
-8.35171
-8.36864
-8.38626
-8.40455
-8.4235
-8.44312
-8.46339
-8.48428
-8.50579
-8.52789
-8.55056
-8.57376
-8.59746
-8.62162
-8.64621
-8.67119
-8.69652
-8.72214
-8.74801
-8.77407
-8.80026
-8.82648
-8.85267
-8.87874
-8.90459
-8.93013
-8.95524
-8.97982
-9.00375
-9.02689
-9.04913
-9.07031
-9.0903
-9.10895
-9.12609
-9.14157
-9.15521
-9.16684
-9.17627
-9.18332
-9.18779
-9.18949
-9.1882
-9.18373
-9.17586
-9.16437
-9.14904
-9.12965
-9.10597
-9.07777
-9.04483
-9.00691
-8.96378
-8.91521
-8.86096
-8.80082
-8.73457
-8.662
-8.58287
-8.49697
-8.40408
-8.30401
-8.19658
-8.08161
-7.95892
-7.82838
-7.68983
-7.54318
-7.38833
-7.22521
-7.05375
-6.87394
-6.68577
-6.48928
-6.28451
-6.07156
-5.85054
-5.62161
-5.38496
-5.14082
-4.88943
-4.63112
-4.36623
-4.09515
-3.8183
-3.53612
-3.24913
-2.95781
-2.66274
-2.36445
-2.06354
-1.76057
-1.45612
-1.15081
-0.845271
-0.540099
-0.235852
0.0669921
0.367995
0.666735
0.962699
1.25537
1.54425
1.82898
2.10916
2.38452
2.65478
2.91977
3.17928
3.43322
3.68147
3.924
4.16077
4.39182
4.61718
4.83699
5.05137
5.26051
5.46461
5.66393
5.85875
6.04938
6.23614
6.41941
6.59956
6.77701
6.95218
7.12552
7.2975
7.46861
7.63931
7.81012
7.98153
8.15404
8.32815
8.5043
8.68293
8.86439
9.04896
9.23676
9.42774
9.62161
9.81753
10.0154
10.2096
10.4155
10.5546
-8.10574
-8.10843
-8.11307
-8.11796
-8.12224
-8.12595
-8.12929
-8.1324
-8.13543
-8.13849
-8.14169
-8.14513
-8.14886
-8.15297
-8.15749
-8.16247
-8.16794
-8.17394
-8.18047
-8.18759
-8.19528
-8.20358
-8.2125
-8.22205
-8.23223
-8.24307
-8.25458
-8.26675
-8.27959
-8.29312
-8.30733
-8.32223
-8.33781
-8.35407
-8.37102
-8.38866
-8.40696
-8.42594
-8.44557
-8.46584
-8.48671
-8.50819
-8.53024
-8.55284
-8.57595
-8.59955
-8.62359
-8.64804
-8.67286
-8.698
-8.72342
-8.74907
-8.77489
-8.8008
-8.82674
-8.85262
-8.87834
-8.90383
-8.92897
-8.95368
-8.97782
-9.0013
-9.02398
-9.04573
-9.06642
-9.08591
-9.10405
-9.12067
-9.13562
-9.14874
-9.15984
-9.16875
-9.17528
-9.17924
-9.18043
-9.17864
-9.17369
-9.16533
-9.15339
-9.1376
-9.11778
-9.09367
-9.06508
-9.03174
-8.99345
-8.94996
-8.90106
-8.84651
-8.78608
-8.71956
-8.64672
-8.56733
-8.48117
-8.38805
-8.28775
-8.18009
-8.06489
-7.94199
-7.81122
-7.67245
-7.52557
-7.37049
-7.20712
-7.03541