/*--------------------------------*- C++ -*----------------------------------*\
| =========                 |                                                 |
| \\      /  F ield         | OpenFOAM: The Open Source CFD Toolbox           |
|  \\    /   O peration     | Version:  2306                                  |
|   \\  /    A nd           | Website:  www.openfoam.com                      |
|    \\/     M anipulation  |                                                 |
\*---------------------------------------------------------------------------*/
FoamFile
{
    version     2.0;
    format      ascii;
    arch        "LSB;label=32;scalar=64";
    class       volScalarField;
    location    "2.9";
    object      gradTz;
}
// * * * * * * * * * * * * * * * * * * * * * * * * * * * * * * * * * * * * * //

dimensions      [0 -1 0 1 0 0 0];

internalField   nonuniform List<scalar> 
5712
(
6996.46
23003
5545.25
23596.2
4171.41
24439.7
6606.15
37776.2
8125.72
51962.8
8053.66
37788.4
7756.72
31325.9
8060.32
27967.3
4874.99
2992.84
13033.1
7702.67
4787.8
2577.67
14314.9
7103.32
5304.78
3810.72
17028.1
11896.2
4008.81
2851.12
16755.1
12092.9
9396.65
3965.47
8089.07
3589.13
3695.68
8729.96
32741.8
8888.57
11702.4
3977.96
42280.9
11502.7
11005.7
3832.48
23311.8
7243.1
11948.6
4178.36
20203.8
6434.01
5450
2701.93
8265.37
3200.55
5891.59
3190.55
8072.76
3075.13
7544.98
4286.42
6954.36
2998.21
10393.7
3717.57
3582.09
1244.94
11738
8074.56
7293.79
5303.22
13328.2
10951.5
7289.06
6311.78
6836.54
4562.45
9544.27
6298.2
4827.56
3533.64
2477.04
2023.95
4715.89
4076.08
2470.37
2376.96
4588.3
2975.59
2370.55
1504.67
6056.52
3276.35
4489.4
5472.72
8212.17
5833.87
6442.42
9309.23
4035.55
1900.78
2660.18
3149.13
2017.9
831.443
1153.39
1168.05
7037.49
12653.8
4799.62
14161.3
8300.2
12416.7
5926.35
14881.3
9496.92
11289.9
7684.8
14613.5
11647.4
14173.4
8520.13
8134.96
8960.84
14133.6
12765.8
12283.1
12458
18109.6
11477.1
8611.21
7289.07
8131.85
12917
14580.6
12947.3
16947.7
16184.8
13349.7
12312.1
16775.7
15878.4
11571.3
11222.7
15785.8
15341.4
10276.2
8001
9285.44
7983.88
9992.53
8770.43
10613.4
10042.1
14629.1
14809.7
9619.67
8235.5
8956.86
8404.14
9083
9402.94
10150.6
11177.5
13277.5
15106.5
7873.29
6166.75
5437.48
6965.12
10845.4
13300.5
7548.12
11998.6
4533.15
6017.29
6712.73
5508.01
1279.62
4633.9
683.291
1669.84
3865.1
8095.35
1441.63
2815.36
549.674
3878.6
328.231
1358.39
4417.75
4496.65
5016.77
3066.7
6963.08
5523.96
8190.64
5572.18
971.683
2457.4
2477.52
1374.79
1397.67
1829.24
1995.79
1501.1
10234.4
6181.81
1928.46
11616.7
6622.86
2160.4
9809.23
6116.3
2048.81
11458.7
6636.02
2158.48
9030.08
5609.51
1834.56
11213.4
6684.91
2227.04
5135.05
2711.96
711.014
6403.02
4189.43
1459.42
7519.73
5184.04
1785.43
8620.9
5543.31
1833.22
11131
6889.28
2410.34
6152.73
3388.11
1051.08
5934.79
4246.69
1593.85
6943.47
5125.13
1870.4
8700.19
6082.9
2162.81
11243.7
6951.89
2453.51
292.383
1988.11
2788.74
4056.41
2110.83
2444.52
5317.87
5071.17
597.293
1041.54
637.968
1085.44
482.902
1414.16
866.003
1857.81
3203.11
1573.29
4069.04
2353.91
2179.4
3788.78
3369.51
973.042
5928.8
1482.96
-1810.68
780.948
1823.96
1379.18
1272.49
1207.95
9943.88
4722.85
2725.53
1745.14
10104.2
4918.34
3410.2
2194.55
9991.8
5306.06
4962.72
3580.47
3530.13
2598.04
1797.61
1741.35
12528.3
11165.3
5912.35
6154.9
13273
12478.7
6551.13
6625.41
5358.02
5538.83
10933.4
9195.49
3550.75
3717.48
2023.47
2278.43
4055.23
4036.25
2262.83
2412.87
3164.32
3408.38
1816.66
2193.8
4871.54
3542.59
4907.85
3647.4
7567.93
4708.09
7286.04
5052.16
2963.78
2558.23
3112.01
2363.43
1698.82
1619.98
1982.06
1383.58
11962.5
8732.89
6287.69
6655.68
11918.2
8892.83
6333.03
6624.81
12329.2
9128.56
6425.16
6418.55
13752.5
14598.2
12750.7
8757.11
5262.62
13844.1
13101.2
12469.1
10603.8
7304.45
12976.7
11943.1
9755.72
7744.85
5149.08
7783.42
7202.34
7489.07
8863.74
7917.55
6988.86
7513.8
8693.23
8082.67
6769.04
7511.3
8479.85
10460.8
7373.94
10024.9
7049.21
8169.21
6737.15
7917.66
6985.92
6926.73
8326.73
8679.41
7534.69
7883.58
6955.35
6962.91
6440.7
6429.71
6575.65
5506.05
7944.74
7042.92
4790.7
4683.5
2791.99
8992.24
6936.84
6267.76
5018.51
3948.06
2426.22
5736.87
4334.75
4744.52
2249.71
1753.8
1013.64
4938.48
3561.63
1742.7
1440.9
4193.64
1922.74
1662.68
890.407
3463.32
3317.52
3240.26
4870.53
4831.3
4746.1
4168.69
6296.87
3425.23
2332.31
2295.41
3258.46
1073.71
548.885
313.824
661.665
5057.48
2105.36
617.748
5945.91
1524.71
403.54
5053.29
2250.17
688.136
5893.51
1576.06
436.624
4605.33
2176.61
560.372
5727.61
1587.75
369.718
4511.16
2240.52
474.191
4287.78
2045.39
467.407
4429.46
2116.55
566.712
4605.08
2154.62
448.225
5655.44
1541.26
229.527
5782.42
2863.46
741.157
5441.35
2696.01
727.514
5171.53
2553.73
739.433
5143.85
2180.86
528.38
6100.45
1421.29
343.463
1891.37
687.588
134.647
-225.243
784.382
301.947
81.3388
-46.0028
2006.92
755.877
193.548
-139.789
994.334
420.539
199.149
93.2461
2162.39
844.377
292.315
-10.7873
1706.16
814.521
333.385
85.2101
1299.72
755.899
303.869
11.1015
1232.8
835.493
516.012
320.938
1799.01
812.086
264.366
-184.995
1554.3
689.508
308.19
-193.228
2134.24
836.64
270.17
-144.365
1941.19
762.49
304.044
-324.671
1445.18
761.377
323.463
-50.5585
1195.69
614.401
337.191
10.3134
1073.44
678.436
421.394
269.892
825.683
524.601
361.755
222.69
2431.59
831.84
129.651
-447.228
2444.92
771.428
173.636
-616.871
2430.43
845.127
153.465
-424.216
2369.19
751.19
182.87
-596.816
2386.71
850.433
232.401
-304.943
2209.51
711.957
227.408
-490.721
2089.47
786.34
323.575
-48.5135
2422.17
798.5
324.344
-574.916
1881.43
707.062
328.472
-133.075
1966.77
546.962
156.815
-421.785
789.899
199.366
45.5658
-89.0854
2021.35
582.657
178.353
-401.321
818.844
215.063
58.9946
-73.4031
2042.49
622.532
224.179
-352.432
826.399
232.588
77.4619
-53.5039
1836.69
587.63
258.726
-278.912
797.42
239.987
105.868
-18.5356
1676.81
585.168
288.403
-162.457
706.975
252.498
145.343
29.9787
1175.98
478.39
238.792
-42.1367
661.389
332.84
209.516
115.912
1358.47
483.008
231.499
-113.465
667.021
287.204
177.293
73.1577
946.931
466.439
268.905
50.1754
596.172
354.493
236.022
157.41
668.718
427.216
302.057
195.819
500.81
357.161
261.014
203.794
-19.3142
10.0494
10.1807
7.40968
5.84465
-2.49525
6.62592
5.73186
4.10013
3.23641
12.7397
27.6811
20.5948
14.1569
11.005
32.3298
26.7099
17.7772
11.9076
9.19525
48.3801
49.2722
33.8125
22.9188
17.7739
131.785
90.2895
57.5606
38.2176
29.4433
159.264
106.935
68.0695
45.2779
34.9758
230.449
141.732
87.8034
57.9367
44.7018
85.409
72.0449
47.7882
32.0934
24.7381
90.4136
67.7806
44.0211
29.4946
22.7443
58.803
57.5629
38.9078
26.3602
20.414
105.229
69.8138
43.9469
29.2642
22.5082
111.075
86.1906
56.5036
37.8825
29.2735
120.43
81.1782
51.6567
34.4221
26.5548
183.342
114.222
70.9073
46.8111
36.097
153.077
94.2827
58.4326
38.5649
29.6875
-36.7039
5.4582
7.57963
5.69294
4.52519
-20.1762
1.8003
2.98028
2.2836
1.83973
-15.724
16.5044
14.0263
9.87199
7.75256
-12.6824
5.71715
5.23089
3.72114
2.95408
10.648
29.3052
21.3258
14.6535
11.4801
15.4438
18.7023
12.5095
8.34653
6.51902
69.0055
56.488
36.8861
24.8775
19.369
45.6735
35.6013
22.7756
15.2535
11.8839
125.758
73.7725
45.1148
29.7675
22.909
1498.87
3432.25
1499.86
3388.86
1622.52
3352.19
1936.62
3490
2032.34
3615.53
797.972
1271.84
1331.5
2158.89
413.883
612.067
139.584
197.082
7874.78
1876.1
428.726
95.4602
23.6289
2140.51
575.435
152.756
34.64
7.49816
7804.73
1843.74
420.825
92.8964
23.1609
2177.09
641.799
157.839
36.5984
9.05845
7493.41
1756.99
399.349
88.0128
21.9629
2113.11
621.117
152.373
35.1573
8.73292
6913.97
1605.88
363.726
80.0628
19.9783
2058.18
592.436
143.432
32.7967
8.101
5839.87
1348.83
305.553
67.3281
16.8171
1954.58
547.205
130.987
29.7551
7.32562
2804.23
677.151
155.95
34.5958
8.65005
954.681
271.57
64.4381
14.3732
3.52786
4151.82
988.436
225.923
49.885
12.4564
1405.83
394.78
94.5295
21.458
5.31758
1652.2
402.227
93.0542
20.7402
5.19418
531.746
157.511
37.0995
8.26473
2.04672
569.95
137.887
31.9548
7.14203
1.78842
211.416
56.3713
12.1791
3.44693
0.652418
158.892
515.115
4447.55
-802.181
737.025
789.889
2301.86
2946.14
1844.74
3470.33
2904.03
4483.58
3496.61
4341.1
1818.49
2451.38
1946.46
2308.44
1013.05
1053.28
2280.54
1679.97
499.021
-482.575
-782.07
-939.236
-298.1
12714.7
2977.02
4137.11
2646.07
-206.451
-74.3622
2922.1
-1454.18
-825.544
-1122.42
-572.425
6983.68
3665.43
1225.46
1025.34
3639.47
1995.45
630.188
1372.89
-1523.47
-893.365
681.456
535.081
8607.32
4286.75
5264.05
2829.74
4076.39
4390.04
1522.84
-923.495
901.777
1631.2
1356.71
1191.67
1100.88
875.118
1338.34
1087.71
862.145
617.502
270.544
440.615
369.389
284.122
183.231
64.4016
-430.861
-359.339
-268.003
-164.597
-55.4163
-698.953
-583.928
-436.626
-268.845
-90.6137
-840.65
-703.63
-527.238
-325.247
-109.746
-259.29
-207.366
-145.703
-83.6213
-26.6855
9335.52
8252.68
7220.92
6827.54
6549.07
2713.29
2451.74
2352.33
2016.21
1091.88
3191.71
2581.89
2225.37
1790.97
961.707
2065.82
1708.5
1526.59
1207
516.714
-33.8776
24.5254
147.986
167.654
85.2538
32.7646
125.565
177.912
163.387
71.1119
2503.34
2120.94
1700.47
1206.92
504.462
-886.825
-435.343
-172.052
-31.0447
7.26502
-658.139
-469.379
-284.873
-136.311
-35.4935
-795.879
-497.286
-259.156
-102.948
-21.8477
-517.678
-429.887
-313.915
-186.744
-60.753
5243.51
4831.76
4270.41
4060.65
3926.97
2837.49
2265.87
1917.82
1492.15
747.744
1150.1
1059.05
916.366
670.354
269.291
911.442
790.823
647.043
451.895
174.347
3049.68
2479.8
1911.67
1288.67
503.478
1778.88
1523.55
1211.19
813.809
297.64
552.742
467.953
370.121
248.829
91.9398
1216.81
1025.55
793.417
514.976
182.515
-1322.5
-1068.2
-772.264
-462.46
-153.081
-785.642
-640.796
-464.299
-276.453
-90.7914
616.534
540.395
442.503
305.799
114.732
486.736
429.219
352.957
243.609
90.5002
5604.69
4152.7
3653.83
3463.67
3138.72
3291.6
2583.47
2024.39
1470.14
675.872
3903.95
3238.49
2666.71
2120.4
1060.62
2273.08
1870.77
1476.59
1053.53
467.753
3486.23
2871.67
2214.53
1470.33
549.983
3339.94
2491.81
2059.05
1581.46
686.331
1337.05
1120.05
866.655
566.361
202.979
-819.349
-676.282
-497.099
-300.309
-99.7095
802.707
695.685
567.685
394.006
148.933
-26694.9
-43781.9
-22125.6
-35450.8
-23763.5
-49897.8
-28448.8
-63346.2
-16895.7
-11540.4
-19043.7
-11835.9
-15612.7
-10025.6
-19355.5
-10161.1
-22032.3
-16558.9
-32142.6
-23108.9
-18920.1
-15040.3
-26877.7
-20154.2
-15188.6
-15491.3
-12459.2
-11950.2
-14636
-13816.3
-37220.1
-10265
-14137.5
-5269.68
-45579.6
-12622.3
-12646.9
-4681.71
-27643.2
-8705.27
-14472.8
-5537.59
-24544.4
-7635.05
-11333.4
-4553.1
-14470.3
-5237.61
-10751.4
-4720.77
-12581.7
-4547.56
-11152
-5397.49
-10051.9
-3982.71
-12916.6
-4554.28
-4535.35
-1590.88
-9650.78
-6380.74
-8328.46
-5060.01
-8546.26
-6863.13
-7326.3
-5223.31
-8453.29
-4785.09
-9887.79
-6126.65
-5704.22
-3392.48
-3072.29
-1881.65
-4926.7
-3393.99
-2555.53
-1815.2
-5789.84
-3132.89
-3205.57
-1602.18
-7439.2
-3771.17
-4788.16
-5587.07
-9427.58
-6325.06
-6731.33
-9419.09
-5051.36
-2262.47
-2869.99
-3231.57
-2737.05
-1100.77
-1301.9
-1230.16
-11107
-13481
-6248.88
-15226.5
-11550.8
-12867.7
-7176.38
-15573.1
-11681.3
-11730.1
-8554.96
-14830.9
-8027.36
-6498.43
-8758.62
-9687.73
-9655.75
-8921.88
-10244.5
-11837.5
-12682.3
-18001.3
-6107.89
-6255.48
-6781.67
-8200.52
-12852.7
-12782
-8912.36
-16199.9
-12449.7
-11850.4
-8775.51
-15961.8
-12398.3
-10495.2
-8194.55
-14898.4
-12271
-7333.36
-5844.64
-7493.7
-5979.37
-8331.57
-6706.02
-9066.55
-7661.02
-13582.4
-12334.1
-6896
-5937.16
-6860.53
-5897.61
-7501.2
-6943.22
-8990.65
-8850.57
-12563.5
-12873
-6294.46
-5025.78
-4633.98
-6110.6
-7951.07
-11063.1
-6014.25
-10214.1
-4225.93
-5615.54
-6034.79
-4933.27
-777.1
-4026.37
-222.63
-1186.19
-2879.73
-7027.36
-624.027
-1954.04
-360.062
-3583.47
-128.103
-1111.59
-4336.77
-4330.07
-4993.18
-2991.53
-6713.3
-5212.41
-8076.71
-5294.93
-928.544
-2338.84
-2455.33
-1324.09
-1335.17
-1720.44
-1961.94
-1444.99
-5401.82
-1858.4
-7301.19
-2492.55
-5522.39
-1938.82
-7474.49
-2685.05
-5478.88
-1909.11
-7921.71
-3060.63
-3429.02
-956.289
-4231.93
-1630.11
-4742.64
-1846.68
-5685.43
-2158.12
-8358.86
-3336.41
-4382.35
-1318.58
-3848.86
-1925.13
-4614.75
-2222.25
-6237.71
-2745.68
-8648.88
-3274.41
-5942.63
-5592.34
-4419.36
-4376.75
-9898.92
-7583.85
-8003.84
-6651.79
-4087.37
-3617.6
-1662.42
-1220.96
-3846.3
-3780.8
-1519.89
-1607.44
-2844.5
-4549.12
-3418.07
-4914.12
-3753.23
-2385.44
-3071.17
-423.743
-6510.21
-1659.61
2597.62
513.624
-853.992
-203.092
309.675
762.56
-2538.26
-1875.13
-935.257
-592.236
-2678.58
-1983.43
-1365.09
-668.881
-2978.11
-2368
-1784.61
-902.033
-1090.08
-26.8306
728.1
1153.9
-4988.61
-5395.8
-3818.94
-3606.58
-6643.17
-6677.02
-5490.67
-4629.49
-2542.77
-2885.04
-3857.44
-4472.63
-2281.51
-2000.21
-928.436
-861.36
-3504.5
-2758.99
-1755.53
-1380.73
-1290.8
-1480.17
-187.002
-546.363
-1738.59
-1308.34
-2544.24
-1954.58
-2773.87
-2395.28
-3948.72
-3207.42
-605.771
-393.013
-1224.86
-778.594
417.983
547.615
-292.493
150.267
-3759.86
-4815.12
-3315.12
-4997.1
-3713.53
-4778.45
-3394.17
-4991.27
-3883
-4393.03
-3575.43
-4742.47
-2786.29
-4584.32
-2458.24
-2279.28
-2609.68
-6929
-4990.53
-4722.86
-5072.02
-5474.79
-5549.92
-4736.55
-4117.75
-3969.95
-3315.09
-5802.04
-5904.5
-7786.17
-12027.9
-5465.07
-5294.45
-7466.98
-11451.3
-4975.5
-4820.15
-6890.68
-10538.5
-6791.96
-5229.1
-6221.12
-4762.2
-5569.64
-4481.36
-5853.3
-5463.57
-6369.84
-9752.45
-5509.49
-5218.21
-4762.31
-4815.66
-4411.95
-4714.18
-4714.84
-5687.45
-4563.84
-8630.78
-3900.08
-2810.64
-2655.34
-968.855
-5504.48
-4845.16
-4258.92
-3130.13
-2121.07
-818.574
-3271.18
-2675.32
-3190.88
-972.127
-426.221
127.402
-3543.77
-2312.66
-609.511
-345.703
-2674.98
-756.829
-281.859
180.675
-2044.63
-2201.55
-2331.62
-4398.36
-3179.89
-3686.47
-3345.72
-6147.52
-2099.84
-1413.82
-1264.89
-2655.23
226.952
367.192
788.811
67.0764
-4236.7
-1232.75
-8113.25
-847.424
-3948.35
-1321.69
-7879.93
-878.969
-3003.86
-797.594
-7168.85
-706.142
-2874.12
-636.559
-2705.8
-625.735
-3024.02
-921.854
-3271.29
-619.715
-6746.88
-890.408
-4030.83
-780.373
-3801.45
-613.975
-3970.83
-792.617
-4536.07
-691.332
-7082.35
-860.514
-827.791
-165.609
196.217
483.102
-277.415
-40.3827
77.8817
153.967
-815.498
-127.722
217.148
457.809
-188.251
40.0766
88.1882
98.0529
-834.321
-83.6565
223.987
410.532
-7.8309
267.316
418.415
467.953
586.73
521.952
592.183
626.572
1064.83
774.928
606.742
455.619
-363.783
139.437
428.309
724.324
-302.114
195.623
348.601
731.106
-903.635
-67.2883
287.185
608.007
-699.277
69.2596
315.286
895.076
139.24
342.871
460.04
619.037
56.4092
304.785
351.754
531.043
618.419
530.193
452.989
368.016
432.032
415.544
352.905
339.028
-1322.38
-288.788
232.963
785.543
-1658.42
-345.16
102.873
984.49
-1268.9
-248.791
253.423
800.333
-1594.42
-318.497
104.788
973.32
-1180.68
-188.056
212.446
697.659
-1446.48
-267.807
74.5664
888.407
-788.918
-32.5319
200.854
514.806
-1498.33
-226.506
85.7551
1105.91
-738.292
28.9137
228.399
699.459
-1550.12
-266.105
27.959
696.199
-676.656
-101.969
30.4386
177.585
-1448.33
-227.547
48.1182
698.892
-644.042
-89.2738
34.8374
175.694
-1242.01
-152.483
60.0082
679.859
-548.642
-57.7962
49.7455
183.714
-1019.38
-90.019
46.7082
611.497
-449.656
-25.743
52.6026
177.322
-747.584
11.0614
97.8667
525.543
-234.889
47.4208
71.5581
173.931
-335.519
148.158
245.655
485.478
102.588
225.961
206.743
243.355
-614.597
41.6679
163.341
500.062
-27.7868
144.745
138.637
208.971
1.67787
261.491
294.31
439.204
232.183
289.538
253.867
257.256
335.535
355.216
302.386
317.66
361.859
334.199
266.534
236.906
109.633
32.521
13.8191
7.97329
5.94045
46.5827
15.6159
7.06788
4.14819
3.09072
129.143
47.6856
23.8306
14.6941
11.1721
74.9877
34.6848
19.221
12.2637
9.4123
159.576
67.0415
36.0083
22.6692
17.3194
190.486
100.886
59.1209
38.3032
29.5264
211.245
116.47
69.0022
44.7456
34.424
237.185
143.077
87.6481
57.4965
44.3342
190.837
88.5838
49.8317
31.876
24.5571
162.206
78.3035
44.6686
28.6203
22.0499
172.193
72.7909
39.7203
25.0619
19.1904
143.299
73.1657
42.7784
27.5362
21.257
205.426
101.711
58.3341
37.4814
28.8303
166.519
88.5645
52.0621
33.6742
25.9812
197.427
116.321
70.8683
46.4169
35.7792
164.464
96.1634
58.4157
38.2126
29.4679
118.568
28.7046
11.1062
6.1992
4.57082
54.9399
11.5316
4.19982
2.2736
1.64401
128.412
37.5564
17.0745
10.2063
7.65892
58.518
14.7566
6.39802
3.76709
2.79011
133.148
45.7221
23.0235
14.1947
10.7054
66.9261
24.9975
13.4958
8.59898
6.51706
149.329
64.4925
35.8781
22.6717
17.2402
88.7437
38.7788
21.9873
13.9985
10.6362
127.511
72.2245
43.4667
28.2413
21.7775
-1725.88
-3241.5
-1767.53
-3241.79
-1912.63
-3256.92
-2089.6
-3334.43
-2016.25
-3346.23
-783.998
-1231.32
-1310.74
-2053.01
-390.462
-581.256
-108.316
-164.516
-8244.18
-1946.5
-441.994
-97.9309
-24.1356
-2216.34
-596.389
-157.753
-35.6043
-7.66779
-8105.25
-1901.81
-432.016
-95.0053
-23.6049
-2259.36
-665.446
-162.871
-37.5896
-9.2646
-7671.37
-1794.07
-406.969
-89.5233
-22.2943
-2186.24
-641.045
-156.609
-35.9968
-8.91088
-6969.6
-1621.54
-367.565
-80.9102
-20.1791
-2100.58
-605.22
-146.331
-33.3966
-8.23335
-5825.24
-1350.46
-306.594
-67.6355
-16.9026
-1958.11
-552.131
-132.447
-30.0972
-7.40789
-2790.66
-674.397
-155.485
-34.529
-8.64138
-943.432
-269.875
-64.2722
-14.372
-3.53436
-4131.03
-985.521
-225.671
-49.8962
-12.4717
-1393.61
-394.683
-94.8624
-21.5717
-5.35134
-1643.36
-400.293
-92.6705
-20.672
-5.18141
-521.256
-155.257
-36.6909
-8.19965
-2.03623
-563.12
-136.425
-31.6486
-7.08254
-1.77603
-200.582
-53.892
-11.6636
-3.35
-0.633174
221.032
-1001.65
-5219.05
902.297
-6284.75
-2753.75
-6081.22
-2782.88
-11017.6
-5864.91
-12356.2
-6543.13
-137.102
-545.372
-856.522
-1009.23
-907.54
-376.902
-224.622
-844.289
-1281.01
-1413.36
-1139.12
-393.213
-116.582
-125.057
-437.942
-441.27
-626.554
-619.467
-604.703
-570.88
-542.176
-515.623
-427.409
-377.942
844.43
2202.55
3568.28
2526.73
2325.56
1121.57
803.611
2312.81
3736.51
4322.02
3603.73
1642.81
-123.658
-104.552
-79.2448
-49.3905
-16.7724
-492.591
-417.23
-316.842
-197.787
-67.2243
-773.586
-655.193
-497.53
-310.58
-105.564
-911.229
-771.493
-585.636
-365.482
-124.207
-819.223
-693.315
-525.974
-328.036
-111.433
-341.718
-290.016
-219.887
-136.632
-46.2355
-202.497
-171.116
-129.635
-80.773
-27.4263
-762.184
-645.203
-489.717
-305.608
-103.858
-1156.17
-978.495
-742.59
-463.405
-157.491
-1274.82
-1078.24
-817.896
-510.285
-173.417
-1026.72
-867.737
-657.835
-410.305
-139.434
-355.341
-300.904
-228.181
-142.132
-48.2251
-105.22
-89.0365
-67.5406
-42.1219
-14.3083
-112.935
-95.6307
-72.5943
-45.2995
-15.3928
-395.687
-335.281
-254.702
-159.035
-54.0585
-398.753
-337.932
-256.755
-160.336
-54.5045
-566.057
-479.597
-364.301
-227.454
-77.3129
-559.623
-474.109
-360.106
-224.823
-76.4174
-546.272
-462.765
-351.429
-219.355
-74.5447
-515.472
-436.441
-331.288
-206.727
-70.2465
-489.592
-414.424
-314.327
-195.924
-66.5173
-464.992
-393.075
-297.859
-185.599
-63.0144
-385.974
-326.263
-246.609
-153.001
-51.7544
-340.438
-287.215
-217.025
-134.821
-45.6782
751.905
629.845
476.989
299.573
102.697
1953.2
1631.76
1235.69
778.451
268.256
3129.66
2599.81
1974.22
1258.76
442.079
2201.32
1824.95
1390.25
891.421
314.367
2057.69
1710.67
1296.52
815.561
264.86
1023.06
868.013
666.552
419.774
132.66
716.319
600.034
453.609
284.004
97.0835
2056.71
1720.2
1300.49
815.713
279.617
3303.61
2753.21
2082.53
1312.56
453.107
3797.12
3152.6
2386.44
1512
525.948
3166.05
2628.98
1992.27
1263.69
437.875
1458.63
1223.59
934.944
595.519
205.961
303.025
708.336
1013.33
1156.95
1042.54
513.728
453.863
1066
1485.06
1585.51
1265.82
476.615
247.722
235.902
563.779
547.81
740.399
715.013
698.403
643.507
624.545
527.793
564.357
420.568
-688.526
-1965.25
-3156.78
-1974.87
-1648.63
-379.397
-734.229
-2199.7
-3486.2
-3872.13
-2957.06
-872.338
274.165
232.712
177.11
110.756
37.6809
640.519
543.288
413.177
258.235
87.8302
916.084
776.804
590.615
369.065
125.514
1045.75
886.589
673.973
421.107
143.205
942.587
799.316
607.689
379.674
129.104
467.059
398.022
303.382
189.51
64.3525
410.552
348.395
265.102
165.765
56.3938
963.575
816.967
621.103
388.113
131.994
1341.78
1137.1
864.149
539.865
183.589
1431.78
1212.74
921.295
575.483
195.703
1142.57
967.373
734.716
458.93
156.083
431.686
366.629
278.947
174.262
59.2301
224.141
190.259
144.803
90.5516
30.8061
213.438
181.162
137.868
86.2081
29.327
509.873
432.547
329.004
205.642
69.9423
495.435
420.297
319.681
199.81
67.9582
669.486
567.837
431.819
269.862
91.7765
646.481
548.268
416.896
260.517
88.5956
631.577
535.73
407.411
254.596
86.5787
581.701
493.204
374.932
234.249
79.654
565.103
479.558
364.738
227.881
77.4724
477.007
404.324
307.257
191.901
65.239
511.799
435.087
331.065
206.658
70.1716
380.363
322.53
245.046
152.93
51.951
-609.315
-507.192
-382.386
-239.819
-82.2733
-1736.55
-1445.79
-1092.65
-688.424
-237.594
-2751.02
-2271.6
-1719.39
-1097.36
-387.074
-1678.49
-1357.6
-1015.41
-646.28
-228.225
-1409.77
-1127.49
-824.552
-502.572
-152.331
-310.854
-225.042
-144.358
-72.1279
-7.69227
-653.244
-546.197
-412.425
-258.169
-88.2867
-1954.3
-1633.22
-1234.33
-774.456
-265.638
-3074.68
-2556.26
-1930.67
-1216.75
-420.416
-3380.51
-2789.03
-2101.68
-1329.65
-462.998
-2561.9
-2096.91
-1571.32
-991.19
-342.823
-736.003
-584.439
-426.925
-265.179
-90.3928
-1385.25
-876.845
-199.15
737.298
1040.64
1324.35
638.055
-10612.6
-1600.35
-3044.1
-1461.61
302.026
-3941.48
892.912
2532.01
1221.74
-5740.64
-2584.95
-372.712
-490.141
-3299.96
-1200.57
-203.09
-973.298
2234.16
1427.28
-465.258
-105.985
-7580.34
-3525.31
-4147.46
-1992.98
-3473.11
-3205.73
-1014.85
1451.62
-312.023
-667.005
-447.582
-407.777
-538.502
-643.252
-538.142
-345.267
-241.66
-190.102
-109.046
-163.925
-128.93
-96.7442
-63.9262
-23.4482
666.956
565.623
429.705
268.141
91.1098
938.926
793.915
601.493
374.56
127.086
1195
1010.7
766.121
477.384
162.05
578.305
489.806
369.751
228.299
76.7638
-7678.22
-6968.04
-6406.12
-6648.8
-7112.79
-1028.85
-715.519
-888.742
-1075.54
-779.391
-2140.01
-1594.72
-1424.6
-1292.3
-821.675
-938.234
-627.8
-600.194
-558.713
-258.791
276.247
223.215
145.573
65.714
11.3581
-3299.23
-2720.5
-2116.15
-1459.61
-596.356
807.524
675.467
497.803
296.926
95.419
2206.13
1807.22
1340.44
828.31
281.166
1097.71
921.488
691.775
426.644
143.344
-4044.32
-3820.33
-3535.72
-3710.93
-4033.26
-1771.94
-1278.53
-1118.22
-983.428
-588.494
-288.794
-249.687
-246.747
-228.681
-116.838
-394.091
-320.538
-267.228
-205.203
-89.6954
-2760.23
-2246.67
-1745.92
-1196.39
-478.757
-1012.19
-828.226
-649.957
-447.77
-170.296
-151.882
-112.945
-88.6716
-67.4446
-29.3817
-842.69
-695.57
-533.245
-348.301
-125.283
1996.92
1672
1256.52
778.322
263.158
1286.59
1084.53
816.822
504.613
169.918
-389.762
-319.309
-254.103
-178.865
-70.2373
-75.1643
-57.1936
-53.1083
-48.2808
-22.8117
-4633.88
-3271.9
-2943.98
-3026.72
-3062.35
-2562.78
-1923.35
-1488.38
-1116.35
-551.235
-2766.81
-2202.24
-1812.73
-1557.74
-843.913
-1471.55
-1144.15
-888.384
-668.316
-335.468
-2921.42
-2372.53
-1821.46
-1220
-465.099
-2213.46
-1455.7
-1229.81
-1053.88
-509.95
-864.461
-705.738
-541.69
-359.017
-131.984
1310.5
1107.08
836.113
518.066
174.893
-238.259
-186.816
-158.805
-128.519
-57.1835
-0.455823
43.3152
105.867
143.194
112.203
9.45769
-18848.7
-16635.8
-15914.1
-18134.3
-13810.3
-10931.1
-12487.8
-9486.81
-16278.6
-14227.3
-14997.1
-14069.3
-13156.9
-11199.1
-13813.1
-15490.8
-13841.4
-12777.7
-14410.5
-11632.3
-9855.64
-10447
-8387.23
-14578.7
-12907.2
-13428.6
-12194
-11623.4
-10867.6
-11177.6
-12147.2
-11129.8
-10117.2
-11066.9
-9656.99
-8290.65
-8733
-7514.97
-12186.4
-11015
-11342.4
-10295.3
-9862.44
-9128.13
-9343.57
-8467.53
-7965.16
-7146.57
-7576.2
-7145.6
-6408.48
-6497.36
-5960.03
-8748.97
-8814.08
-8253.68
-8298.32
-7355.01
-6645.68
-7359.61
-5409.67
-5169.84
-4606.39
-4805.15
-4785.66
-4333.24
-4295.66
-3977.23
-5787.83
-5765.29
-5530.5
-5384.71
-5031.84
-4544.85
-4898.39
-1946.73
-1877.35
-1668.39
-1727.21
-1768.56
-1654.45
-1576
-1471.75
-2198.4
-2184.66
-2054.92
-1948.44
-1891.97
-1737.02
-1852.41
-7294.08
-7203.05
-10780.5
-11611.8
-6894.01
-6140.16
-9474.76
-7722.39
-5843.16
-4509.28
-5806.53
-4466.14
-5852.06
-5587.16
-4525.55
-7294.68
-6934.36
-9602.33
-10465.6
-6454.56
-5864.31
-8365.38
-7229.63
-5861.13
-4081.07
-5762.87
-4279.26
-5289.3
-5080.02
-4625.45
-6706.6
-6407.74
-8164.47
-8746.51
-6040.03
-5641.75
-7322.17
-6505.16
-4938.1
-4517.16
-4925.77
-4719.91
-4623.83
-4610.47
-4841.71
-5476.15
-5286.09
-6149.72
-6450.96
-5033.78
-4724.9
-5707.69
-5228.41
-4815.03
-4160.25
-4735.53
-4392.68
-4446.16
-4391.87
-4419.68
-3817.93
-3707.05
-4085.66
-4236.22
-3451.98
-3205.89
-3857.72
-3553.42
-3431.39
-3245.97
-3351.45
-3373.77
-3142.86
-3066.94
-3174.97
-1429.06
-1388.54
-1497.37
-1545.36
-1286.18
-1184.81
-1421.64
-1312.4
-1131.34
-1197.93
-1205.46
-1285.38
-1170.12
-1128.6
-1164.38
6964.67
22527.2
5514.59
23594
4155.53
24441.5
6602.05
37784.2
8120.95
51974.2
8037.61
37785
7723.61
31309.1
8037.36
27359.6
4868.01
2991.19
13033.9
7702.78
4786.33
2577.49
14318.1
7104.46
5271.56
3785
16686.3
11672.7
3988.74
2842.75
16769
12109.7
9402.47
3958.98
8089.49
3586.84
3691.06
8737.42
32750.6
8889.8
11704.4
3978.01
42290.8
11504.8
11007.9
3833.13
23323.9
7245.29
11952
4178.9
20219.6
6436.86
5395.95
2675.62
8118.76
3145.62
5892.26
3191
8086.4
3080.27
7544.05
4286.56
6958.76
3000.32
10402.3
3720.8
3584.15
1245.74
11737
8073.88
7293.62
5303.03
13326.6
10950.3
7289.19
6311.62
6836.65
4562.41
9543.52
6297.91
4827.92
3533.66
2476.69
2023.77
4716.52
4076.21
2470.43
2376.97
4589.06
2975.66
2370.33
1504.48
6057.3
3276.86
4489.56
5473
8212.02
5834.14
6442.47
9309.59
4036.82
1901.32
2660.34
3149.31
2018.03
831.535
1153.29
1168.05
6993.94
12647.9
4769.1
14151.5
8302.04
12412.5
5929.31
14878.3
9497.05
11288.8
7685.49
14612.8
11646.5
14171.4
8519.69
8135.34
8961.53
14131.8
12764.7
12282.3
12457.6
18109.6
11475.5
8610.34
7288.66
8131.83
12917.3
14601.7
12982.8
16951.9
16166.7
13343
12307
16768
15873.5
11568.7
11219.3
15784.4
15339.5
10274.8
8000
9284.39
7982.84
9991.46
8769.12
10611.9
10040.3
14628.4
14808.6
9618.57
8234.51
8956.05
8403.17
9082.32
9401.97
10150
11176.6
13277.5
15106
7872.81
6166.51
5437.28
6965.07
10844.5
13299.8
7547.73
11998.2
4533.1
6017.38
6712.5
5507.91
1279.49
4633.89
683.207
1669.8
3864.97
8095.18
1441.64
2815.33
549.581
3878.66
328.123
1358.36
4417.83
4496.76
5016.96
3066.78
6963.07
5523.98
8190.87
5572.23
971.673
2457.46
2477.61
1374.81
1397.65
1829.25
1995.83
1501.11
10259.7
6194.42
1935.98
11622.2
6631.45
2163.34
9805.68
6115.2
2048.68
11455.6
6634.37
2158.22
9027.65
5608.27
1834.24
11211.6
6683.61
2226.68
5134.29
2711.47
710.848
6402.09
4188.8
1459.21
7518.48
5183.21
1785.15
8619.25
5542.27
1832.9
11129.8
6888.29
2409.99
6151.94
3387.58
1050.88
5933.88
4246
1593.58
6942.45
5124.31
1870.08
8699.14
6082.01
2162.47
11242.8
6951.02
2453.15
297.689
1990.17
2802.72
4060.79
2113.16
2445.59
5325.67
5073.7
580.578
1028.83
618.984
1068.39
487.172
1413.87
870.352
1857.06
3215.05
1578.45
4073.59
2355.2
2183.1
3796.61
3374.13
976.877
5931.58
1484.94
-1798.96
789.139
1829.58
1384.27
1282.01
1215.55
9955.24
4718.26
2714.14
1736.69
10095.7
4918.36
3408.19
2194.48
9987.04
5305.17
4964.14
3580.19
3534.08
2598.57
1802.45
1743.12
12524.8
11163.4
5913.33
6154.98
13270.5
12477
6551.68
6625.41
5359.06
5538.86
10929.9
9193.81
3552.88
3718.07
2025.21
2279.01
4056.53
4036.63
2263.67
2413.18
3166.74
3408.97
1818.91
2194.49
4871.97
3542.64
4907.78
3647.33
7565.64
4707.45
7284.85
5051.62
2965.55
2558.81
3112.45
2363.69
1700.91
1621.01
1982.68
1384.03
11991.8
8738.81
6289.43
6656.37
11910.2
8892.21
6331.85
6624.79
12321.7
9125.21
6423.54
6417.39
13747.6
14594.7
12745.7
8753.69
5261.61
13841.3
13097.4
12464.9
10600.3
7303.1
12974.3
11940.4
9753.33
7743.12
5148.36
7784.06
7208.2
7485
8857.66
7915.42
6988.47
7511.29
8692.17
8080.51
6767.51
7510.49
8479.24
10458.9
7372.79
10022.5
7047.81
8166.84
6735.67
7915.55
6984.47
6925.71
8325.84
8677.88
7533.51
7881.68
6953.98
6961.09
6439.36
6428.26
6574.49
5505.26
7943.84
7041.37
4789.73
4683
2791.55
8990.86
6935.92
6267.27
5018.05
3947.65
2425.85
5735.56
4333.88
4744.52
2249.59
1754.06
1013.75
4938.44
3561.48
1742.84
1440.95
4193.64
1922.65
1662.99
890.538
3463.01
3317.16
3240.06
4870.15
4830.38
4745.37
4168.21
6296.23
3425.24
2332.21
2295.45
3258.32
1074.02
549.026
314.114
661.785
5063.95
2111.33
620.633
5952.46
1534.06
405.91
5051.75
2250.33
688.154
5891.09
1574.42
436.661
4604.24
2176.25
560.347
5726.79
1587.08
369.577
4510.41
2240.09
474.051
4286.97
2044.96
467.276
4428.57
2116.13
566.592
4604.12
2154.17
448.091
5654.75
1540.89
229.411
5781.6
2862.99
740.992
5440.46
2695.55
727.362
5170.65
2553.28
739.292
5143.04
2180.45
528.243
6099.8
1421.06
343.392
1883.9
683.251
131.996
-226.274
776.679
297.997
79.4221
-46.8363
2007.28
755.965
193.515
-139.998
994.491
420.591
199.086
93.0968
2162.34
844.362
292.282
-10.9075
1706.06
814.51
333.373
85.1146
1299.82
755.967
303.928
11.1129
1233.39
835.768
516.159
321
1799.05
812.128
264.397
-185.004
1554.35
689.563
308.233
-193.186
2134.1
836.616
270.172
-144.402
1941.09
762.481
304.056
-324.647
1445.41
761.502
323.543
-50.5207
1195.87
614.515
337.266
10.3661
1073.88
678.664
421.523
269.957
825.965
524.77
361.862
222.759
2430.66
830.772
128.011
-448.453
2447.59
772.065
172.97
-618.73
2429.96
844.898
153.406
-424.337
2368.68
750.994
182.92
-596.718
2386.34
850.302
232.384
-304.955
2209.05
711.799
227.412
-490.638
2089.17
786.23
323.535
-48.5688
2421.77
798.383
324.33
-574.858
1881.25
707.011
328.45
-133.124
1972.54
549.094
157.101
-424.488
793.668
200.575
45.7062
-90.1399
2018.59
581.802
178.192
-400.889
817.671
214.732
58.9065
-73.2117
2041.89
622.299
224.17
-352.307
826.076
232.472
77.4465
-53.422
1836.32
587.496
258.703
-278.851
797.236
239.915
105.85
-18.5096
1676.59
585.093
288.382
-162.429
706.866
252.454
145.323
29.98
1175.99
478.427
238.823
-42.1008
661.413
332.863
209.529
115.923
1358.37
482.996
231.503
-113.438
666.974
287.188
177.283
73.1554
947.044
466.528
268.967
50.2284
596.273
354.565
236.067
157.443
668.917
427.351
302.147
195.888
500.974
357.276
261.09
203.85
-20.6075
9.19538
9.63571
7.03239
5.53949
-3.36013
6.03092
5.32975