/*--------------------------------*- C++ -*----------------------------------*\
| =========                 |                                                 |
| \\      /  F ield         | OpenFOAM: The Open Source CFD Toolbox           |
|  \\    /   O peration     | Version:  2306                                  |
|   \\  /    A nd           | Website:  www.openfoam.com                      |
|    \\/     M anipulation  |                                                 |
\*---------------------------------------------------------------------------*/
FoamFile
{
    version     2.0;
    format      ascii;
    arch        "LSB;label=32;scalar=64";
    class       volVectorField;
    location    "2.6";
    object      flux;
}
// * * * * * * * * * * * * * * * * * * * * * * * * * * * * * * * * * * * * * //

dimensions      [0 1 -1 1 0 0 0];

internalField   nonuniform List<vector> 
5322
(
(-2.15136e-06 5.49122e-06 -7.31228e-06)
(1.128e-07 6.4386e-07 -6.77043e-06)
(1.21566e-07 1.51325e-07 -5.85602e-06)
(-2.75254e-10 3.74263e-08 -6.33382e-06)
(-8.30818e-09 1.23923e-07 -5.00877e-06)
(-7.4557e-09 1.56418e-07 -3.85375e-06)
(-5.41908e-09 1.4657e-07 -2.88455e-06)
(-3.96479e-09 1.24549e-07 -2.11023e-06)
(-3.10215e-09 1.03506e-07 -1.52863e-06)
(-2.14391e-09 8.07127e-08 -1.13335e-06)
(-1.39461e-09 2.44531e-08 -8.93921e-07)
(9.365e-09 -1.61668e-07 -8.16386e-07)
(1.36799e-08 -1.68085e-07 -5.90439e-07)
(-1.87201e-07 -1.52946e-07 -8.28159e-07)
(-3.40152e-09 -1.36348e-07 -9.15921e-07)
(3.43163e-07 3.05123e-07 -7.61097e-07)
(-2.68207e-07 4.0422e-07 -8.93959e-07)
(6.49465e-10 -3.29463e-09 -6.9711e-07)
(-2.16018e-07 3.03686e-07 -1.03424e-06)
(1.78817e-07 -4.16785e-07 -1.16265e-06)
(-2.40095e-07 4.44274e-07 -1.3713e-06)
(2.83391e-07 -5.46433e-07 -1.5761e-06)
(-2.99831e-07 6.10094e-07 -1.88924e-06)
(4.1421e-07 -7.61863e-07 -2.20595e-06)
(-4.28461e-07 8.66344e-07 -2.63612e-06)
(5.56923e-07 -1.02774e-06 -3.02538e-06)
(-5.61147e-07 1.15797e-06 -3.57645e-06)
(7.69784e-07 -1.40807e-06 -4.09894e-06)
(-7.71546e-07 1.57044e-06 -4.77103e-06)
(9.91218e-07 -1.81524e-06 -5.34473e-06)
(-9.41884e-07 2.01344e-06 -6.11954e-06)
(1.34045e-06 -2.31327e-06 -6.80696e-06)
(-9.92562e-07 2.60315e-06 -7.60956e-06)
(1.86101e-06 -2.51177e-06 -8.16661e-06)
(1.44608e-07 2.55614e-06 -8.52165e-06)
(2.69978e-06 -1.4344e-06 -7.44804e-06)
(1.91352e-06 2.87684e-06 -8.77127e-06)
(-7.58604e-07 3.5146e-06 -8.68259e-06)
(2.10475e-06 1.77545e-06 -8.94857e-06)
(-1.24762e-07 1.9875e-06 -6.53539e-06)
(-1.9975e-06 2.59693e-06 -8.29588e-06)
(2.00331e-06 2.18043e-06 -8.56355e-06)
(-1.21337e-07 2.32773e-06 -6.40838e-06)
(-2.13021e-06 2.42697e-06 -8.56794e-06)
(2.11912e-06 2.31483e-06 -8.4818e-06)
(-7.25423e-08 2.3731e-06 -6.52163e-06)
(-2.26385e-06 2.35184e-06 -8.69275e-06)
(1.99235e-06 2.51381e-06 -8.2165e-06)
(-4.73394e-08 2.4149e-06 -6.45278e-06)
(-2.37634e-06 2.23268e-06 -8.55296e-06)
(-2.3584e-06 2.81698e-06 -9.75784e-06)
(-3.39003e-06 1.26752e-06 -6.64384e-06)
(-1.11716e-06 1.47985e-06 -9.2661e-06)
(2.15569e-06 -4.59223e-06 -8.2398e-06)
(-1.41945e-07 -2.24899e-07 -7.37801e-06)
(-3.52478e-06 -2.63902e-06 -7.80118e-06)
(-1.07736e-07 1.44817e-06 -9.63472e-06)
(3.35139e-06 -3.4392e-06 -7.65357e-06)
(-4.05509e-08 -1.65975e-07 -7.39711e-06)
(-3.35076e-06 -2.98829e-06 -7.78363e-06)
(-1.45785e-08 1.46963e-06 -9.73662e-06)
(3.26417e-06 -3.37988e-06 -7.7563e-06)
(-1.72837e-08 -1.47602e-07 -7.39581e-06)
(-3.29085e-06 -2.96644e-06 -7.5933e-06)
(2.94193e-09 1.47618e-06 -9.73664e-06)
(3.22026e-06 -3.50528e-06 -8.03298e-06)
(4.73495e-08 -2.01475e-07 -7.37023e-06)
(-3.25917e-06 -2.87735e-06 -7.22213e-06)
(1.68667e-07 1.49698e-06 -9.54914e-06)
(2.68686e-06 -3.906e-06 -8.57329e-06)
(1.5123e-07 1.19151e-07 -6.13544e-06)
(-2.59751e-06 3.07678e-06 -9.10554e-06)
(2.94937e-06 1.708e-06 -8.66597e-06)
(-3.04086e-06 2.39403e-06 -8.53739e-06)
(2.92622e-06 1.78107e-06 -8.61939e-06)
(-2.98117e-06 2.26288e-06 -8.57799e-06)
(2.98387e-06 1.88314e-06 -8.57212e-06)
(-2.98492e-06 2.25605e-06 -8.54978e-06)
(3.39998e-06 1.91932e-06 -8.68459e-06)
(-2.48806e-06 2.68856e-06 -8.28501e-06)
(1.17586e-06 2.03567e-07 -8.04064e-06)
(-1.7865e-06 1.03213e-06 -6.4762e-06)
(-1.20093e-06 1.51471e-06 -6.71641e-06)
(1.8944e-06 2.41967e-06 -8.662e-06)
(1.61319e-07 -1.61391e-07 -5.61938e-06)
(-8.62337e-07 -8.86461e-07 -7.69395e-06)
(1.36557e-06 3.17678e-07 -1.11506e-05)
(-3.7644e-06 6.04861e-07 -7.21404e-06)
(-1.21237e-06 1.27737e-06 -7.24404e-06)
(4.17128e-06 1.82181e-07 -6.29958e-06)
(-1.88445e-07 3.42816e-07 -7.7962e-06)
(4.47628e-08 6.17427e-08 -5.68193e-06)
(7.86757e-08 8.68907e-09 -5.98645e-06)
(4.84968e-07 8.48794e-09 -5.97228e-06)
(2.51344e-06 3.02632e-06 -7.6558e-06)
(-5.10543e-07 -1.72951e-06 -7.27653e-06)
(2.20349e-08 5.6006e-08 -6.92684e-06)
(-1.94235e-07 1.74801e-06 -7.37387e-06)
(1.40546e-06 5.32505e-08 -1.13379e-05)
(-3.32594e-06 -8.56686e-08 -7.00372e-06)
(-3.31975e-06 3.09195e-07 -7.08547e-06)
(6.87862e-06 5.5587e-08 -6.3894e-06)
(-1.95211e-07 1.86697e-06 -7.43246e-06)
(1.94402e-06 -2.94377e-06 -7.57268e-06)
(3.17293e-06 2.6412e-06 -8.26565e-06)
(5.64631e-08 5.93911e-08 -6.73743e-06)
(3.23654e-08 -5.80867e-08 -7.08649e-06)
(2.61173e-08 -7.44403e-09 -6.39023e-06)
(1.30581e-08 1.53952e-09 -5.06684e-06)
(4.48588e-09 5.64359e-09 -3.91004e-06)
(6.51379e-10 5.28653e-09 -2.9274e-06)
(-8.88561e-10 4.1535e-09 -2.1366e-06)
(-1.87826e-09 3.58503e-09 -1.53845e-06)
(-2.7885e-09 3.42322e-09 -1.13148e-06)
(2.82182e-09 -2.3141e-09 -1.02465e-06)
(-1.49698e-09 1.44119e-09 -9.3542e-07)
(-1.11422e-07 1.1421e-07 -6.66392e-07)
(-1.08238e-07 -4.46361e-08 -7.1501e-07)
(1.33333e-08 -1.76096e-08 -9.99203e-07)
(6.78152e-08 -8.55032e-08 -7.8372e-07)
(2.99376e-09 1.06133e-07 -6.83817e-07)
(1.00867e-07 -5.50339e-08 -8.16876e-07)
(-1.20963e-07 -1.09574e-07 -8.05397e-07)
(-9.30875e-09 -1.51759e-07 -1.12599e-06)
(-2.97545e-08 -1.7064e-07 -8.43226e-07)
(1.88045e-07 -6.70967e-09 -1.10335e-06)
(1.53464e-07 1.26537e-07 -7.97867e-07)
(4.1211e-08 -9.46332e-08 -8.33163e-07)
(1.20472e-07 9.10328e-09 -1.08518e-06)
(7.64509e-08 1.03909e-07 -7.95732e-07)
(5.75612e-08 -1.03284e-07 -8.16534e-07)
(1.29427e-07 4.43579e-09 -1.09552e-06)
(6.36833e-08 1.07932e-07 -8.08245e-07)
(6.84807e-08 -1.10718e-07 -8.01649e-07)
(1.31666e-07 -3.59102e-09 -1.10034e-06)
(5.53733e-08 1.00589e-07 -8.18972e-07)
(1.09047e-07 -1.20897e-07 -8.05982e-07)
(1.49775e-07 -9.81538e-09 -1.12936e-06)
(1.69018e-07 -2.97468e-08 -8.45021e-07)
(7.14419e-09 1.85709e-07 -1.10504e-06)
(-1.25208e-07 1.52655e-07 -8.00797e-07)
(5.99926e-09 -1.03756e-07 -6.86624e-07)
(8.53765e-08 6.82832e-08 -7.84552e-07)
(-1.04702e-07 5.29463e-08 -7.055e-07)
(-1.13826e-07 -1.11763e-07 -6.6794e-07)
(1.79975e-08 1.38919e-08 -1.00007e-06)
(4.49654e-08 -1.07964e-07 -7.15627e-07)
(2.38081e-08 8.43957e-08 -7.11449e-07)
(-8.89803e-08 8.76891e-08 -6.60055e-07)
(-9.80361e-08 -9.69064e-08 -6.64962e-07)
(2.04352e-08 -1.35989e-09 -1.00233e-06)
(2.7046e-08 -8.91576e-08 -7.12465e-07)
(3.32543e-08 8.98836e-08 -7.09832e-07)
(-9.69022e-08 9.83616e-08 -6.6112e-07)
(-9.13184e-08 -8.73628e-08 -6.65427e-07)
(2.06475e-08 -2.49936e-10 -1.00167e-06)
(1.6929e-08 -8.25148e-08 -7.13121e-07)
(5.39238e-08 1.06091e-07 -7.04783e-07)
(-1.03753e-07 -5.61965e-09 -6.85757e-07)
(1.36344e-07 -3.56093e-09 -9.16457e-07)
(-3.03784e-07 3.43408e-07 -7.60502e-07)
(-4.03338e-07 -2.67686e-07 -8.95811e-07)
(3.88282e-07 3.25036e-07 -1.14506e-06)
(-4.98507e-07 -3.90035e-07 -1.25276e-06)
(-2.41262e-08 1.59464e-08 -7.4296e-07)
(-3.04894e-07 -2.14066e-07 -1.03577e-06)
(5.11321e-09 4.94218e-10 -6.97844e-07)
(2.81254e-07 8.38326e-09 -9.08287e-07)
(-6.58918e-08 -3.34563e-08 -5.97903e-07)
(3.10922e-07 9.3707e-08 -8.01841e-07)
(1.53441e-07 -1.87151e-07 -8.29753e-07)
(2.29725e-07 1.86695e-07 -7.72293e-07)
(-3.64567e-07 -3.28803e-07 -8.39683e-07)
(1.37807e-07 1.02767e-09 -9.40139e-07)
(-3.14555e-07 3.36475e-07 -8.02952e-07)
(2.31242e-07 -3.65111e-07 -1.08396e-06)
(3.00741e-07 3.80066e-07 -1.07527e-06)
(-4.09678e-07 -4.3733e-07 -1.16808e-06)
(2.38748e-08 2.13979e-09 -9.14343e-07)
(-3.48178e-07 4.31526e-07 -1.16688e-06)
(3.57199e-07 -5.10394e-07 -1.38218e-06)
(4.44176e-07 5.29435e-07 -1.3836e-06)
(-5.48214e-07 -6.15799e-07 -1.59752e-06)
(1.89664e-08 2.74538e-09 -1.23312e-06)
(-4.59537e-07 6.03363e-07 -1.60013e-06)
(5.17636e-07 -7.15283e-07 -1.89804e-06)
(6.32554e-07 7.39498e-07 -1.8993e-06)
(-7.60807e-07 -8.65104e-07 -2.2223e-06)
(2.93286e-08 3.12915e-09 -1.7151e-06)
(-6.35273e-07 8.47541e-07 -2.22538e-06)
(7.30673e-07 -9.98622e-07 -2.63222e-06)
(8.88108e-07 1.03146e-06 -2.63375e-06)
(-1.05577e-06 -1.19799e-06 -3.06337e-06)
(4.0714e-08 4.30679e-09 -2.37739e-06)
(-8.82149e-07 1.17456e-06 -3.06876e-06)
(9.97209e-07 -1.37067e-06 -3.59316e-06)
(1.21644e-06 1.41577e-06 -3.59728e-06)
(-1.44579e-06 -1.61905e-06 -4.12608e-06)
(5.33506e-08 6.61284e-09 -3.2291e-06)
(-1.21079e-06 1.58721e-06 -4.13623e-06)
(1.30933e-06 -1.83613e-06 -4.78382e-06)
(1.614e-06 1.89656e-06 -4.79363e-06)
(-1.93917e-06 -2.12e-06 -5.40141e-06)
(6.96528e-08 9.47171e-09 -4.26682e-06)
(-1.62179e-06 2.07308e-06 -5.41823e-06)
(1.6463e-06 -2.38191e-06 -6.1769e-06)
(2.06509e-06 2.45754e-06 -6.19638e-06)
(-2.50652e-06 -2.64205e-06 -6.85955e-06)
(9.47007e-08 1.31489e-08 -5.4482e-06)
(-2.06919e-06 2.5685e-06 -6.88738e-06)
(1.9415e-06 -2.95185e-06 -7.60255e-06)
(2.4193e-06 2.97683e-06 -7.62249e-06)
(-4.53543e-07 -1.73391e-06 -7.36029e-06)
(1.34446e-06 -1.13511e-08 -1.13389e-05)
(-3.29414e-06 -1.81721e-07 -7.00224e-06)
(-3.35946e-06 8.8717e-08 -6.98015e-06)
(6.91127e-06 -5.79762e-08 -6.40976e-06)
(-2.87624e-07 -2.75881e-09 -8.80272e-06)
(-3.08211e-07 1.68983e-08 -8.78183e-06)
(9.09636e-08 2.61386e-08 -5.98685e-06)
(5.26339e-07 1.7937e-09 -5.97878e-06)
(2.50138e-06 3.03009e-06 -7.63917e-06)
(-3.82698e-07 -1.72682e-06 -7.33649e-06)
(4.74243e-08 9.34007e-09 -6.86132e-06)
(-4.50388e-07 2.072e-06 -7.45459e-06)
(1.28798e-06 -3.1267e-07 -1.13239e-05)
(-3.35072e-06 -1.28449e-07 -7.04657e-06)
(-3.30348e-06 1.10371e-07 -6.97348e-06)
(6.86948e-06 -1.14714e-07 -6.42484e-06)
(-2.50005e-07 1.73794e-06 -7.3305e-06)
(1.94323e-06 -2.98428e-06 -7.61052e-06)
(1.91539e-08 1.8518e-08 -6.92216e-06)
(5.21535e-08 1.3322e-08 -6.93337e-06)
(3.1167e-08 3.72883e-08 -6.37848e-06)
(1.71176e-08 2.07273e-08 -5.06831e-06)
(6.91397e-09 8.89977e-09 -3.91466e-06)
(1.83688e-09 2.87969e-09 -2.93095e-06)
(-3.67373e-10 1.45596e-10 -2.13876e-06)
(-1.66349e-09 -1.49184e-09 -1.53962e-06)
(-2.52892e-09 -2.65057e-09 -1.13206e-06)
(2.79772e-09 2.77525e-09 -1.0251e-06)
(-1.41757e-09 -1.4807e-09 -9.36144e-07)
(8.77435e-08 -9.14952e-08 -6.64594e-07)
(-9.77439e-08 -9.78079e-08 -6.63297e-07)
(9.77323e-08 -9.79749e-08 -6.62817e-07)
(-8.78096e-08 -9.15708e-08 -6.64236e-07)
(3.08819e-10 2.1103e-08 -1.00157e-06)
(8.76838e-08 3.0531e-08 -7.09712e-07)
(-8.21439e-08 1.82519e-08 -7.12989e-07)
(-2.13947e-10 -1.20985e-07 -7.03476e-07)
(-1.00292e-07 5.97629e-08 -8.1664e-07)
(1.3038e-10 -1.24805e-07 -1.17778e-06)
(-8.73844e-08 3.04895e-08 -7.0986e-07)
(1.26871e-10 2.11451e-08 -1.00185e-06)
(8.22743e-08 1.84059e-08 -7.13184e-07)
(3.31006e-09 -1.2333e-07 -1.17079e-06)
(9.3517e-08 4.11258e-08 -8.31631e-07)
(-7.75782e-09 1.17252e-07 -1.08268e-06)
(-1.01431e-07 7.42944e-08 -7.95754e-07)
(2.38316e-10 -1.20973e-07 -7.03823e-07)
(1.0027e-07 5.99288e-08 -8.16734e-07)
(-5.09559e-11 1.27324e-07 -1.08287e-06)
(5.44209e-11 1.78091e-07 -5.82567e-07)
(1.81804e-07 1.90905e-07 -7.96971e-07)
(-3.2777e-07 -3.31671e-07 -8.03432e-07)
(3.2777e-07 -3.31093e-07 -8.02541e-07)
(-3.2356e-07 -3.55852e-07 -8.40089e-07)
(3.74938e-07 2.8539e-07 -1.07498e-06)
(-4.31783e-07 -3.93671e-07 -1.16851e-06)
(5.22354e-07 4.21208e-07 -1.38366e-06)
(-6.07512e-07 -5.23061e-07 -1.59788e-06)
(7.29352e-07 5.99771e-07 -1.89997e-06)
(-8.53268e-07 -7.24021e-07 -2.22249e-06)
(1.01724e-06 8.42505e-07 -2.63513e-06)
(-1.18165e-06 -1.00364e-06 -3.06364e-06)
(1.39641e-06 1.15448e-06 -3.59975e-06)
(-1.59674e-06 -1.37421e-06 -4.12625e-06)
(1.87123e-06 1.53314e-06 -4.79837e-06)
(-2.09067e-06 -1.84611e-06 -5.40007e-06)
(2.42717e-06 1.96835e-06 -6.20577e-06)
(-2.60734e-06 -2.39811e-06 -6.85243e-06)
(2.99395e-06 2.4172e-06 -7.67501e-06)
(-1.71692e-06 -4.55055e-07 -7.27101e-06)
(4.21017e-08 1.4297e-06 -1.13426e-05)
(1.73932e-06 -2.77446e-07 -7.40567e-06)
(5.00335e-08 2.97541e-08 -6.92557e-06)
(-2.91589e-06 2.09303e-06 -7.58598e-06)
(2.5409e-06 -2.2073e-06 -6.90613e-06)
(1.49331e-08 1.01297e-07 -5.45223e-06)
(-2.35357e-06 1.78444e-06 -6.17672e-06)
(2.04762e-06 -1.74466e-06 -5.42685e-06)
(9.32708e-09 7.28489e-08 -4.26994e-06)
(-1.81444e-06 1.42058e-06 -4.78753e-06)
(1.56664e-06 -1.30699e-06 -4.13964e-06)
(5.80046e-09 5.48954e-08 -3.23107e-06)
(-1.35453e-06 1.08058e-06 -3.59665e-06)
(1.15896e-06 -9.53216e-07 -3.06997e-06)
(3.51597e-09 4.13996e-08 -2.37851e-06)
(-9.86865e-07 7.90851e-07 -2.63481e-06)
(8.36191e-07 -6.85979e-07 -2.22562e-06)
(2.33631e-09 2.95544e-08 -1.71571e-06)
(-7.06906e-07 5.60498e-07 -1.90027e-06)
(5.95348e-07 -4.94607e-07 -1.59962e-06)
(1.96915e-09 1.89815e-08 -1.23341e-06)
(-5.04574e-07 3.87171e-07 -1.38443e-06)
(4.25541e-07 -3.71931e-07 -1.16584e-06)
(1.62694e-09 2.36465e-08 -9.14271e-07)
(-3.60437e-07 2.50414e-07 -1.08557e-06)
(4.1305e-10 -2.37014e-08 -8.46429e-07)
(3.60956e-07 2.50318e-07 -1.0847e-06)
(-4.24825e-07 -3.72131e-07 -1.16682e-06)
(-1.50534e-09 2.36668e-08 -9.14404e-07)
(-3.73835e-07 2.86717e-07 -1.07595e-06)
(3.23552e-07 -3.54056e-07 -8.40195e-07)
(-6.55128e-10 1.37792e-07 -9.40453e-07)
(-1.83161e-07 2.2194e-07 -7.71157e-07)
(-1.18788e-08 1.62966e-07 -5.89372e-07)
(1.86101e-07 1.54736e-07 -8.32369e-07)
(-3.3949e-07 -3.11643e-07 -7.62204e-07)
(3.60236e-07 2.26862e-07 -1.08785e-06)
(-4.25816e-07 -3.55565e-07 -1.16823e-06)
(4.97286e-07 3.70291e-07 -1.38168e-06)
(-5.87537e-07 -4.70789e-07 -1.60386e-06)
(6.97494e-07 5.41396e-07 -1.90103e-06)
(-8.19948e-07 -6.53408e-07 -2.22826e-06)
(9.75845e-07 7.66056e-07 -2.64166e-06)
(-1.13285e-06 -9.10052e-07 -3.07107e-06)
(1.34478e-06 1.04981e-06 -3.6128e-06)
(-1.52813e-06 -1.25548e-06 -4.13685e-06)
(1.81452e-06 1.3923e-06 -4.82738e-06)
(-1.9908e-06 -1.69053e-06 -5.39917e-06)
(2.37605e-06 1.78033e-06 -6.26984e-06)
(-2.44693e-06 -2.13022e-06 -6.79638e-06)
(2.94465e-06 2.12281e-06 -7.7158e-06)
(-1.69621e-06 -2.63277e-07 -7.31869e-06)
(-4.083e-07 1.06404e-06 -1.12106e-05)
(7.17153e-07 -8.99668e-07 -7.7721e-06)
(8.15038e-08 7.49886e-08 -6.70874e-06)
(-2.74083e-06 2.93093e-06 -8.26625e-06)
(2.22211e-06 -3.11112e-06 -7.46455e-06)
(2.0253e-08 1.34407e-07 -5.29617e-06)
(-2.14933e-06 2.57249e-06 -6.69754e-06)
(1.84362e-06 -2.38326e-06 -5.83057e-06)
(-5.86613e-09 8.73661e-08 -4.14378e-06)
(-1.60648e-06 2.01759e-06 -5.16487e-06)
(1.39977e-06 -1.74574e-06 -4.42635e-06)
(-1.06492e-08 5.93614e-08 -3.12883e-06)
(-1.19023e-06 1.51283e-06 -3.86662e-06)
(1.02844e-06 -1.2661e-06 -3.27533e-06)
(-9.503e-09 4.2799e-08 -2.30083e-06)
(-8.6783e-07 1.1067e-06 -2.8293e-06)
(7.43e-07 -9.10358e-07 -2.37354e-06)
(-9.44384e-09 2.98121e-08 -1.65914e-06)
(-6.22501e-07 7.94991e-07 -2.03699e-06)
(5.34694e-07 -6.54109e-07 -1.70589e-06)
(-1.02619e-08 1.98453e-08 -1.19309e-06)
(-4.449e-07 5.65838e-07 -1.48039e-06)
(3.8996e-07 -4.89178e-07 -1.25302e-06)
(-1.33334e-08 2.56679e-08 -8.84388e-07)
(-3.1819e-07 3.84544e-07 -1.14488e-06)
(2.65888e-07 -3.98053e-07 -8.96152e-07)
(4.09348e-09 1.36589e-07 -9.1704e-07)
(-9.20039e-08 3.10294e-07 -8.02392e-07)
(1.54659e-07 2.73285e-07 -8.35759e-07)
(2.55436e-07 -1.36866e-07 -7.40223e-07)
(-1.10243e-09 2.82675e-07 -9.10742e-07)
(2.9345e-08 -6.55752e-08 -5.9667e-07)
(-4.69764e-08 4.50713e-08 -6.81716e-07)
(1.37639e-07 3.284e-07 -8.03834e-07)
(-4.25181e-07 -2.86134e-07 -7.44224e-07)
(3.55237e-07 2.91805e-07 -1.10955e-06)
(-4.97958e-07 -3.10969e-07 -1.2126e-06)
(-3.35443e-07 4.99319e-07 -1.17131e-06)
(-4.16787e-07 -4.40612e-07 -1.16672e-06)
(2.55301e-08 -3.82794e-09 -9.10164e-07)
(2.45706e-07 -4.374e-07 -1.07446e-06)
(2.73054e-07 3.74073e-07 -1.09227e-06)
(-3.56272e-07 -3.48302e-07 -7.74317e-07)
(1.32725e-07 9.18357e-09 -9.42313e-07)
(-3.17432e-07 3.64518e-07 -8.57765e-07)
(-2.69526e-08 1.55309e-08 -8.50232e-07)
(1.37012e-08 4.33216e-09 -8.31875e-07)
(-1.22948e-07 -9.89035e-08 -1.13243e-06)
(1.01587e-08 9.3961e-09 -8.90572e-07)
(-5.0746e-09 -7.84929e-09 -8.4537e-07)
(-1.28312e-07 5.24665e-09 -1.16755e-06)
(6.62445e-09 -2.30298e-09 -9.04212e-07)
(-2.5668e-08 -9.3782e-10 -8.47822e-07)
(-3.244e-07 3.35114e-07 -8.31121e-07)
(-3.51892e-07 -3.35628e-07 -8.08084e-07)
(2.80246e-07 3.69714e-07 -1.08572e-06)
(-4.04634e-07 -4.32061e-07 -1.16618e-06)
(-7.49198e-09 4.74535e-10 -1.0574e-06)
(4.2964e-07 5.16647e-07 -1.38537e-06)
(-5.43828e-07 -6.04887e-07 -1.59981e-06)
(6.21464e-07 7.24608e-07 -1.90115e-06)
(-7.56213e-07 -8.49239e-07 -2.2256e-06)
(-2.74149e-08 2.12796e-09 -1.99404e-06)
(8.78172e-07 1.01311e-06 -2.63695e-06)
(-1.05113e-06 -1.17548e-06 -3.06796e-06)
(1.20464e-06 1.39321e-06 -3.60238e-06)
(-1.44102e-06 -1.58615e-06 -4.13173e-06)
(7.06773e-09 4.20968e-09 -3.65902e-06)
(1.59595e-06 1.86885e-06 -4.8007e-06)
(-1.92558e-06 -2.0695e-06 -5.40549e-06)
(2.02885e-06 2.42e-06 -6.2007e-06)
(-2.45343e-06 -2.56793e-06 -6.86542e-06)
(5.07815e-07 -4.21877e-09 -5.98122e-06)
(8.97536e-08 4.54798e-09 -5.98896e-06)
(2.8132e-08 7.2555e-09 -4.76366e-06)
(3.30963e-08 2.07856e-08 -4.7681e-06)
(-9.44688e-09 1.0819e-08 -3.67857e-06)
(1.09054e-08 1.06354e-08 -3.66937e-06)
(1.65414e-06 1.88801e-06 -4.82402e-06)
(-1.97655e-06 -2.06846e-06 -5.41055e-06)
(8.22079e-08 9.70297e-09 -4.26976e-06)
(-1.60349e-06 2.45606e-06 -5.46627e-06)
(1.5266e-06 -2.75992e-06 -6.1606e-06)
(2.11625e-06 2.46713e-06 -6.24651e-06)
(-2.46287e-06 -2.54362e-06 -6.83267e-06)
(1.26287e-07 2.42377e-08 -5.44481e-06)
(-2.16529e-06 3.10275e-06 -6.98496e-06)
(1.71588e-06 -3.30275e-06 -7.51486e-06)
(3.44325e-06 2.11951e-06 -8.46372e-06)
(-3.09014e-07 -1.5847e-06 -7.12058e-06)
(1.52292e-07 -2.8722e-06 -1.13418e-05)
(-3.61061e-06 -2.17916e-07 -7.20073e-06)
(-3.35259e-06 -7.24355e-09 -6.83762e-06)
(6.55872e-06 -1.03203e-06 -6.62738e-06)
(-4.39698e-07 -2.76249e-07 -8.5744e-06)
(7.14672e-08 4.73958e-08 -5.67373e-06)
(1.27962e-07 1.5582e-06 -5.14003e-06)
(-1.63019e-06 1.93199e-06 -7.15668e-06)
(3.27816e-07 1.29433e-07 -4.48393e-06)
(9.99074e-07 -2.67161e-06 -6.14877e-06)
(-1.03776e-06 1.82568e-06 -5.51166e-06)
(7.082e-08 -8.40397e-10 -3.45346e-06)
(8.2751e-07 -1.71905e-06 -4.79267e-06)
(-7.39741e-07 1.40064e-06 -4.13859e-06)
(3.75546e-09 -2.05621e-08 -2.59528e-06)
(5.99091e-07 -1.20421e-06 -3.61232e-06)
(-5.58953e-07 1.04527e-06 -3.05874e-06)
(-6.07496e-09 -1.45389e-08 -1.90813e-06)
(4.12238e-07 -8.46187e-07 -2.63383e-06)
(-3.96374e-07 7.53822e-07 -2.1975e-06)
(-1.35375e-08 -1.6179e-08 -1.37533e-06)
(3.09136e-07 -6.06742e-07 -1.8989e-06)
(-2.75939e-07 5.60592e-07 -1.57506e-06)
(-1.96061e-08 -1.64447e-08 -9.90304e-07)
(2.37345e-07 -4.17852e-07 -1.36753e-06)
(-1.63826e-07 4.22177e-07 -1.15456e-06)
(-2.34856e-08 -2.88713e-08 -7.41274e-07)
(2.22951e-07 -2.88264e-07 -1.03853e-06)
(8.01941e-08 7.97513e-08 -7.5393e-07)
(5.75278e-08 1.26756e-07 -7.25313e-07)
(-1.21022e-08 -1.81119e-07 -9.54634e-07)
(-6.10189e-09 -6.08009e-09 -8.76343e-07)
(1.05736e-07 3.14171e-07 -1.03741e-06)
(-4.49047e-08 -3.2627e-07 -1.25517e-06)
(5.35165e-07 3.7331e-07 -1.40477e-06)
(-6.63941e-07 -4.28546e-07 -1.65228e-06)
(7.71932e-07 5.132e-07 -1.94241e-06)
(-9.22828e-07 -5.99547e-07 -2.29183e-06)
(-5.96657e-07 9.73652e-07 -2.22355e-06)
(-7.77054e-07 -8.54268e-07 -2.2308e-06)
(2.9774e-08 -3.40309e-09 -1.71171e-06)
(5.06982e-07 -8.31699e-07 -1.90464e-06)
(6.38354e-07 7.25053e-07 -1.90357e-06)
(-5.58394e-07 -6.10748e-07 -1.60434e-06)
(1.95294e-08 -4.31505e-09 -1.23045e-06)
(-4.30706e-07 6.93993e-07 -1.5965e-06)
(-1.27769e-08 2.3692e-09 -1.43707e-06)
(-6.68572e-09 -8.67281e-09 -1.36898e-06)
(-6.69543e-10 -5.07915e-09 -1.00417e-06)
(-7.13611e-09 -2.66542e-08 -8.84237e-07)
(-8.92949e-09 -3.5348e-08 -1.04775e-06)
(2.55903e-08 1.87273e-08 -9.96481e-07)
(1.92346e-08 2.98984e-08 -9.5376e-07)
(1.60162e-08 9.51701e-09 -1.12265e-06)
(-6.83724e-08 1.48724e-08 -1.1288e-06)
(-1.82165e-08 2.37318e-08 -8.92697e-07)
(1.48361e-07 1.39313e-08 -8.20112e-07)
(2.22873e-07 -1.82874e-08 -6.12756e-07)
(1.88068e-07 2.94408e-07 -1.01308e-06)
(6.51029e-08 9.40193e-08 -5.66423e-07)
(3.02869e-07 1.86159e-08 -7.9097e-07)
(1.14337e-07 7.25541e-08 -8.843e-07)
(8.11638e-08 5.56936e-09 -9.65474e-07)
(5.33971e-08 -1.37774e-08 -1.28003e-06)
(-3.12311e-08 -9.18435e-09 -1.5353e-06)
(-9.66202e-08 1.33837e-08 -1.5245e-06)
(-1.31769e-07 1.78539e-08 -2.11116e-06)
(-6.26575e-08 -1.65463e-08 -2.14236e-06)
(5.16831e-08 -2.82467e-08 -1.77296e-06)
(-8.44866e-08 -4.74113e-07 -1.73787e-06)
(7.63437e-09 -1.58735e-08 -1.6504e-06)
(1.40394e-07 5.4292e-07 -2.01143e-06)
(-1.26051e-07 -6.68133e-07 -2.40253e-06)
(1.08795e-06 7.12576e-07 -2.71093e-06)
(-1.28151e-06 -8.29671e-07 -3.15584e-06)
(1.49836e-06 9.84412e-07 -3.71489e-06)
(-1.76762e-06 -1.12252e-06 -4.25171e-06)
(-1.15712e-06 1.84457e-06 -4.15052e-06)
(-1.48418e-06 -1.59091e-06 -4.1417e-06)
(5.74878e-08 1.2639e-09 -3.22801e-06)
(9.56192e-07 -1.58598e-06 -3.6074e-06)
(1.24344e-06 1.39943e-06 -3.61335e-06)
(-1.08149e-06 -1.18068e-06 -3.07499e-06)
(4.21652e-08 -1.99405e-09 -2.37436e-06)
(-8.32952e-07 1.35277e-06 -3.07172e-06)
(-1.69405e-08 7.88025e-09 -2.74283e-06)
(-5.87627e-09 -9.15659e-09 -2.6081e-06)
(-8.64424e-09 -1.00585e-08 -1.90118e-06)
(-1.24558e-08 4.66525e-09 -1.6812e-06)
(-3.10441e-08 -9.91151e-08 -1.97755e-06)
(3.7968e-10 -4.50892e-08 -1.94055e-06)
(-6.89125e-09 -3.1907e-08 -1.85479e-06)
(-2.16574e-08 -6.76908e-08 -1.42284e-06)
(3.90059e-09 -1.96986e-08 -1.35953e-06)
(1.7504e-09 -1.42925e-08 -1.30271e-06)
(1.15653e-07 3.98245e-07 -1.43736e-06)
(4.48328e-09 -9.62476e-09 -1.18521e-06)
(-1.04748e-08 -1.2744e-08 -1.208e-06)
(-2.29558e-09 3.35482e-08 -1.31071e-06)
(2.9675e-09 -7.35576e-08 -1.13772e-06)
(1.70828e-09 -2.14842e-08 -8.98152e-07)
(-8.51639e-09 1.63121e-07 -8.18157e-07)
(1.90961e-08 3.07513e-07 -7.876e-07)
(-2.1947e-07 5.6035e-07 -7.50285e-07)
(-7.02446e-09 4.46988e-08 -8.16476e-07)
(-1.56555e-09 -6.11831e-09 -6.95899e-07)
(-7.39062e-10 1.62435e-08 -9.81811e-07)
(-2.91996e-09 -2.92482e-10 -9.739e-07)
(4.32817e-07 -3.91482e-07 -1.16828e-06)
(1.40112e-09 -9.90069e-09 -1.05461e-06)
(-5.2096e-07 4.24005e-07 -1.38438e-06)
(5.05827e-07 3.86673e-07 -1.38377e-06)
(-5.9357e-07 -4.94153e-07 -1.60029e-06)
(-1.13024e-09 1.90485e-08 -1.23382e-06)
(6.1022e-07 -5.21704e-07 -1.59831e-06)
(2.69712e-09 -1.69324e-08 -1.43411e-06)
(-7.27263e-07 6.02986e-07 -1.90049e-06)
(7.09803e-07 5.60263e-07 -1.90055e-06)
(-8.32643e-07 -6.8463e-07 -2.22538e-06)
(7.77627e-11 2.97373e-08 -1.71664e-06)
(8.58561e-07 -7.25106e-07 -2.22502e-06)
(4.22431e-09 -2.49286e-08 -1.99044e-06)
(-1.01373e-06 8.44281e-07 -2.63544e-06)
(9.92755e-07 7.92185e-07 -2.63758e-06)
(-1.15239e-06 -9.51118e-07 -3.06743e-06)
(1.8134e-09 4.1785e-08 -2.38045e-06)
(1.19133e-06 -1.00951e-06 -3.0702e-06)
(6.46165e-09 -2.00588e-08 -2.73051e-06)
(-1.39099e-06 1.1512e-06 -3.59915e-06)
(1.36544e-06 1.08635e-06 -3.60464e-06)
(-1.55521e-06 -1.30546e-06 -4.13109e-06)
(4.75693e-09 5.57756e-08 -3.23454e-06)
(1.61352e-06 -1.38979e-06 -4.14071e-06)
(8.55347e-09 2.44338e-08 -3.65583e-06)
(-1.8633e-06 1.51175e-06 -4.79163e-06)
(1.83235e-06 1.43942e-06 -4.80734e-06)
(-2.02924e-06 -1.751e-06 -5.40196e-06)
(1.01789e-08 7.46465e-08 -4.27466e-06)
(2.11386e-06 -1.87293e-06 -5.43027e-06)
(3.93416e-09 1.76421e-07 -4.75387e-06)
(-2.41321e-06 1.88876e-06 -6.17529e-06)
(2.37552e-06 1.8383e-06 -6.21789e-06)
(-2.51831e-06 -2.24841e-06 -6.85053e-06)
(1.63529e-08 1.0416e-07 -5.45292e-06)
(2.61655e-06 -2.40038e-06 -6.90646e-06)
(-2.06676e-08 6.04115e-07 -5.96339e-06)
(-2.96668e-06 2.21685e-06 -7.58555e-06)
(2.92509e-06 2.2166e-06 -7.65683e-06)
(-1.72457e-06 -3.44993e-07 -7.35175e-06)
(-3.58501e-09 3.12929e-08 -6.91339e-06)
(1.71055e-06 -4.14051e-07 -7.35487e-06)
(-1.1738e-07 6.87317e-06 -6.45932e-06)
(-2.71469e-07 -3.30983e-06 -7.01787e-06)
(-2.26942e-07 -3.41215e-06 -6.76332e-06)
(-3.22063e-07 5.12345e-06 -6.16054e-06)
(-3.34452e-06 1.34852e-06 -8.50223e-06)
(7.25404e-07 4.9145e-07 -5.6817e-06)
(5.1227e-07 -4.14785e-06 -7.40059e-06)
(-2.63269e-07 -9.48976e-07 -5.69629e-06)
(-5.31487e-07 -5.72585e-07 -5.45269e-06)
(-1.92602e-07 1.84983e-06 -6.71238e-06)
(-2.88573e-06 -1.93842e-06 -6.74346e-06)
(6.48085e-07 -3.66645e-08 -5.99964e-06)
(-1.07367e-06 7.58699e-08 -6.40369e-06)
(-1.50618e-06 -3.35385e-07 -6.45217e-06)
(-3.38567e-07 -3.83855e-07 -5.80477e-06)
(-4.54828e-07 -7.3716e-08 -5.19947e-06)
(-5.75473e-07 1.03675e-07 -5.09472e-06)
(-3.11771e-07 5.83475e-08 -3.8921e-06)
(-1.64581e-07 -1.91817e-08 -3.97527e-06)
(7.77432e-08 -6.4716e-08 -3.35387e-06)
(-9.34314e-08 -2.00567e-08 -2.95075e-06)
(-1.91133e-07 3.00979e-08 -2.89754e-06)
(-1.80291e-07 8.47133e-09 -2.87635e-06)
(-1.24412e-07 4.47134e-09 -2.10076e-06)
(-9.72501e-08 1.84076e-09 -1.52151e-06)
(-7.77174e-08 -1.14672e-09 -1.12882e-06)
(-1.93869e-08 -3.98405e-09 -8.89798e-07)
(1.75511e-07 -1.47946e-08 -8.11236e-07)
(1.93258e-07 -7.48765e-09 -5.92586e-07)
(1.92129e-07 1.92694e-07 -8.23949e-07)
(2.21161e-07 -1.92706e-07 -7.28796e-07)
(2.84511e-07 2.04727e-09 -7.91639e-07)
(2.71263e-07 1.34341e-09 -7.96448e-07)
(2.04122e-07 -1.96011e-07 -7.77706e-07)
(2.0554e-07 1.93112e-07 -8.03473e-07)
(1.37636e-07 -4.47553e-10 -9.42748e-07)
(-1.21541e-07 7.82346e-10 -7.02237e-07)
(3.87397e-08 -8.02184e-10 -8.63363e-07)
(-1.4024e-08 -1.45244e-08 -8.38609e-07)
(-9.77909e-09 -9.20773e-09 -8.45341e-07)
(3.51786e-08 3.50361e-08 -8.71724e-07)
(-1.05924e-07 2.98602e-09 -6.84991e-07)
(-2.39918e-10 4.02891e-08 -8.60552e-07)
(-1.18682e-10 -1.41781e-08 -8.47371e-07)
(-2.77351e-10 -1.74586e-08 -8.45834e-07)
(1.39274e-10 -2.63721e-10 -9.43207e-07)
(-6.7318e-08 6.56076e-08 -6.50943e-07)
(-7.71469e-08 -7.67824e-08 -6.5603e-07)
(-7.66155e-08 7.74721e-08 -6.54949e-07)
(-6.79844e-08 -6.4965e-08 -6.5261e-07)
(6.77124e-08 -6.59163e-08 -6.50638e-07)
(-5.64096e-08 -5.57077e-08 -6.47203e-07)
(2.36423e-09 2.35907e-09 -1.00841e-06)
(7.72757e-08 7.69477e-08 -6.53963e-07)
(-6.55598e-08 6.85807e-08 -6.52029e-07)
(-6.56846e-08 -6.81098e-08 -6.52212e-07)
(2.38243e-09 -1.92115e-09 -1.00869e-06)
(7.68579e-08 -7.71581e-08 -6.54985e-07)
(1.07979e-10 1.28843e-10 -9.49791e-07)
(2.43727e-10 2.83852e-10 -1.03369e-06)
(2.76667e-10 3.82878e-09 -1.02908e-06)
(2.52595e-10 6.91286e-09 -9.04841e-07)
(-2.60368e-09 5.73736e-09 -9.0226e-07)
(2.49034e-09 -3.10141e-08 -8.42841e-07)
(-1.14839e-09 -8.7691e-09 -1.05798e-06)
(-5.13038e-10 -1.58737e-08 -1.4424e-06)
(8.46125e-10 -2.07232e-08 -2.00314e-06)
(3.25347e-09 -2.0371e-08 -2.74574e-06)
(7.81105e-09 -5.3817e-09 -3.67008e-06)
(8.7797e-09 -2.00809e-09 -3.48971e-06)
(-3.4803e-09 1.16603e-07 -3.10475e-06)
(-4.34629e-08 -2.39079e-07 -3.64421e-06)
(3.19042e-08 -9.74955e-08 -3.57742e-06)
(-3.03011e-08 -1.07384e-08 -3.41802e-06)
(2.27617e-07 1.07798e-06 -3.78529e-06)
(-3.20042e-07 -1.18658e-06 -4.3813e-06)
(2.03438e-06 1.33451e-06 -4.99991e-06)
(-2.37931e-06 -1.50154e-06 -5.51138e-06)
(2.72527e-06 1.74941e-06 -6.63071e-06)
(-3.21337e-08 -7.04828e-08 -5.42488e-06)
(-7.80636e-07 -1.61732e-06 -5.55728e-06)
(-1.42579e-07 -4.31308e-08 -4.40689e-06)
(2.16571e-07 1.51492e-06 -5.05892e-06)
(1.33671e-09 -3.35153e-08 -4.17231e-06)
(4.51996e-08 -1.33934e-07 -4.47526e-06)
(8.16831e-08 2.26555e-08 -4.54988e-06)
(-2.94871e-07 1.62568e-08 -3.85243e-06)
(-5.24808e-07 3.09354e-08 -5.02089e-06)
(-1.00757e-06 3.60131e-08 -6.35839e-06)
(-2.32428e-06 -3.11059e-08 -7.949e-06)
(-2.39025e-06 -3.85087e-07 -7.91203e-06)
(-5.53415e-06 1.32225e-06 -7.92613e-06)
(-2.30899e-06 -6.26057e-07 -6.85413e-06)
(-1.97875e-06 -2.26792e-06 -6.35571e-06)
(-4.11034e-08 -3.39933e-07 -6.6603e-06)
(-7.68293e-07 -3.97495e-07 -7.32117e-06)
(6.91711e-07 -5.16948e-06 -6.13932e-06)
(-4.79666e-06 -1.45691e-06 -6.97188e-06)
(-2.91555e-06 1.88699e-07 -9.98515e-06)
(-1.40774e-06 -2.16672e-06 -9.01546e-06)
(2.10936e-06 1.57102e-06 -8.87587e-06)
(1.68628e-07 7.73728e-08 -9.16752e-06)
(9.30355e-08 7.28433e-08 -5.87005e-06)
(-2.16641e-06 1.89909e-06 -7.45395e-06)
(2.28264e-06 1.58982e-06 -7.82387e-06)
(1.48035e-08 2.06818e-07 -9.37966e-06)
(-2.81176e-07 -1.82895e-07 -6.04348e-06)
(-2.36642e-06 2.09215e-06 -7.71668e-06)
(2.29111e-06 1.88194e-06 -7.85794e-06)
(4.5746e-09 2.19882e-07 -9.42446e-06)
(-3.109e-07 -2.18331e-07 -6.06929e-06)
(-2.3101e-06 1.9029e-06 -7.62054e-06)
(2.28453e-06 2.14221e-06 -7.95752e-06)
(1.89539e-08 2.05233e-07 -9.40411e-06)
(-5.00713e-07 -4.9106e-07 -6.21173e-06)
(-2.20488e-06 1.58567e-06 -7.55443e-06)
(1.63053e-06 2.17305e-06 -8.47606e-06)
(-1.38285e-06 -7.72335e-07 -1.17334e-05)
(1.19097e-06 1.23475e-06 -9.26254e-06)
(9.07702e-07 -1.07325e-06 -9.05756e-06)
(2.58797e-06 1.14725e-06 -1.14723e-05)
(-1.2168e-06 -4.50402e-06 -1.12354e-05)
(-6.80759e-07 -2.43521e-06 -8.95064e-06)
(3.81703e-07 3.98187e-07 -6.57418e-06)
(1.48214e-06 -1.11369e-06 -9.26714e-06)
(-4.56455e-06 2.17818e-06 -8.24659e-06)
(-2.2747e-07 -1.36399e-07 -7.3747e-06)
(-2.6547e-06 -3.53759e-06 -7.78543e-06)
(2.52774e-06 2.00712e-06 -8.23356e-06)
(2.41412e-06 -3.82758e-08 -6.45634e-06)
(2.23079e-06 -2.37151e-06 -8.53894e-06)
(2.81668e-06 -2.35777e-06 -9.76282e-06)
(1.26587e-06 -3.39267e-06 -6.64227e-06)
(2.16304e-07 1.19225e-06 -8.04599e-06)
(1.03293e-06 -1.79083e-06 -6.47992e-06)
(1.51647e-06 -1.19274e-06 -6.72222e-06)
(2.40531e-06 1.88224e-06 -8.66487e-06)
(-8.78562e-07 -3.40597e-06 -7.49434e-06)
(2.14507e-07 -4.85306e-07 -5.69138e-06)
(1.46806e-06 2.19824e-06 -7.01704e-06)
(-9.9422e-07 -2.32546e-06 -6.10969e-06)
(1.27642e-08 -1.60451e-07 -4.59243e-06)
(1.01141e-06 1.82803e-06 -5.4356e-06)
(-7.90238e-07 -1.6322e-06 -4.76264e-06)
(-1.99436e-09 -8.20709e-08 -3.52481e-06)
(7.47672e-07 1.39692e-06 -4.11621e-06)
(-5.75043e-07 -1.17645e-06 -3.58829e-06)
(1.49153e-09 -6.32468e-08 -2.63401e-06)
(5.52483e-07 1.02973e-06 -3.04272e-06)
(-4.13673e-07 -8.50886e-07 -2.632e-06)
(1.75664e-09 -4.90542e-08 -1.91743e-06)
(4.00556e-07 7.46056e-07 -2.20429e-06)
(-2.98968e-07 -6.10519e-07 -1.89569e-06)
(-9.30104e-10 -3.03451e-08 -1.38059e-06)
(2.79817e-07 5.39356e-07 -1.58185e-06)
(-2.31026e-07 -4.39906e-07 -1.37222e-06)
(-1.46902e-08 -4.44424e-11 -9.89819e-07)
(1.7746e-07 4.10268e-07 -1.1655e-06)
(-2.11274e-07 -3.0373e-07 -1.03564e-06)