/*--------------------------------*- C++ -*----------------------------------*\
| =========                 |                                                 |
| \\      /  F ield         | OpenFOAM: The Open Source CFD Toolbox           |
|  \\    /   O peration     | Version:  2306                                  |
|   \\  /    A nd           | Website:  www.openfoam.com                      |
|    \\/     M anipulation  |                                                 |
\*---------------------------------------------------------------------------*/
FoamFile
{
    version     2.0;
    format      ascii;
    arch        "LSB;label=32;scalar=64";
    class       volScalarField;
    location    "2.6";
    object      gradTy;
}
// * * * * * * * * * * * * * * * * * * * * * * * * * * * * * * * * * * * * * //

dimensions      [0 -1 0 1 0 0 0];

internalField   nonuniform List<scalar> 
5322
(
0.0469335
0.00550308
0.00129338
0.000319883
0.00105917
0.00133691
0.00125274
0.00106452
0.000884667
0.000689852
0.000209001
-0.00138178
-0.00143663
-0.00130723
-0.00116537
0.00260789
0.00345487
-2.81592e-05
0.00259561
-0.00356227
0.00379722
-0.00467037
0.00521448
-0.00651165
0.00740465
-0.00878407
0.00989717
-0.0120348
0.0134226
-0.0155149
0.0172089
-0.0197715
0.0222491
-0.0214681
0.0218474
-0.0122598
0.0245883
0.0300393
0.0151748
0.0169872
0.022196
0.0186362
0.0198951
0.0207433
0.0197849
0.0202829
0.0201012
0.0214856
0.0206402
0.0190827
0.0240767
0.0108335
0.0126483
-0.0392498
-0.00192222
-0.0225558
0.0123775
-0.0293949
-0.00141859
-0.025541
0.0125609
-0.0288879
-0.00126156
-0.0253542
0.0126169
-0.0299597
-0.00172201
-0.0245927
0.0127947
-0.0333846
0.00101838
0.0262973
0.0145983
0.0204618
0.0152228
0.0193409
0.0160952
0.0192825
0.0164044
0.0229792
0.00173989
0.00882163
0.0129463
0.020681
-0.00137941
-0.00757659
0.0027152
0.00516975
0.0109177
0.0015571
0.00293005
0.000527716
7.42656e-05
7.25465e-05
0.0258659
-0.0147821
0.000478683
0.0149402
0.000455133
-0.00073221
0.0026427
0.000475102
0.015957
-0.0251604
0.0225743
0.000507616
-0.000496468
-6.36241e-05
1.31583e-05
4.82358e-05
4.5184e-05
3.55e-05
3.06413e-05
2.92583e-05
-1.97787e-05
1.23178e-05
0.000976155
-0.000381505
-0.000150509
-0.000730796
0.00090712
-0.000470375
-0.000936532
-0.00129709
-0.00145846
-5.73476e-05
0.00108151
-0.00080883
7.78058e-05
0.00088811
-0.000882766
3.79127e-05
0.000922496
-0.000946311
-3.06924e-05
0.000859737
-0.0010333
-8.38922e-05
-0.000254246
0.00158726
0.00130474
-0.000886805
0.000583617
0.000452532
-0.00095524
0.000118735
-0.000922773
0.000721331
0.000749479
-0.000828259
-1.1623e-05
-0.00076203
0.000768236
0.000840697
-0.00074669
-2.1362e-06
-0.000705255
0.000906764
-4.80312e-05
-3.04353e-05
0.00293511
-0.00228791
0.00277809
-0.00333363
0.000136294
-0.00182963
4.22409e-06
7.16518e-05
-0.000285951
0.000800914
-0.00159958
0.00159568
-0.00281028
8.78352e-06
0.00287585
-0.00312061
0.00324842
-0.00373786
1.82888e-05
0.00368826
-0.00436234
0.00452509
-0.00526324
2.34648e-05
0.00515695
-0.00611353
0.00632049
-0.00739405
2.67449e-05
0.00724394
-0.00853523
0.00881592
-0.0102392
3.68102e-05
0.010039
-0.0117151
0.0121006
-0.013838
5.652e-05
0.0135659
-0.0156934
0.0162099
-0.0181196
8.09548e-05
0.0177187
-0.0203582
0.0210046
-0.0225816
0.000112384
0.021953
-0.0252295
0.025443
-0.0148198
-9.70182e-05
-0.00155317
0.000758265
-0.000495523
-2.35796e-05
0.00014443
0.000223406
1.53308e-05
0.0258982
-0.0147591
7.98296e-05
0.0177094
-0.0026724
-0.00109786
0.000943345
-0.000980462
0.0148541
-0.0255067
0.000158273
0.000113863
0.000318704
0.000177156
7.60664e-05
2.46127e-05
1.24441e-06
-1.27508e-05
-2.26544e-05
2.37201e-05
-1.26555e-05
-0.00078201
-0.000835965
-0.000837392
-0.000782657
0.000180367
0.000260949
0.000156
-0.00103406
0.000510794
-0.00106671
0.000260594
0.000180727
0.000157315
-0.0010541
0.000351502
0.00100215
0.000634995
-0.00103396
0.000512212
0.00108824
0.00152215
0.00163167
-0.00283479
-0.00282986
-0.00304147
0.00243923
-0.00336471
0.00360007
-0.00447061
0.00512625
-0.00618821
0.00720089
-0.00857809
0.00986733
-0.0117454
0.0131038
-0.0157787
0.0168235
-0.0204966
0.0206599
-0.00388936
0.0122197
-0.00237134
0.000254309
0.0178891
-0.0188658
0.000865789
0.0152516
-0.0149116
0.00062264
0.0121417
-0.0111709
0.000469191
0.00923571
-0.00814715
0.000353843
0.00675941
-0.00586307
0.000252602
0.00479058
-0.00422741
0.000162235
0.00330915
-0.00317889
0.000202107
0.00214029
-0.000202576
0.00213947
-0.0031806
0.00020228
0.00245057
-0.00302612
0.00117771
0.00189692
0.00139287
0.00132253
-0.00266362
0.00193899
-0.00303902
0.00316488
-0.00402384
0.00462732
-0.00558468
0.00654749
-0.00777822
0.00897275
-0.0107306
0.0119
-0.0144489
0.0152165
-0.018207
0.0181437
-0.00225023
0.00909439
-0.00768947
0.000640928
0.0250507
-0.0265907
0.00114878
0.0219871
-0.0203698
0.000746719
0.0172443
-0.0149209
0.000507362
0.0129301
-0.0108214
0.000365803
0.00945901
-0.00778084
0.000254804
0.00679479
-0.00559067
0.000169618
0.00483622
-0.00418101
0.000219384
0.0032867
-0.00340217
0.00116743
0.00265209
0.00233577
-0.00116979
0.00241603
-0.000560471
0.000385225
0.00280684
-0.00244559
0.00249406
-0.00265786
0.00426769
-0.00376591
-3.27175e-05
-0.00373846
0.0031972
-0.00297694
7.84921e-05
0.00311554
0.000132743
3.7027e-05
-0.000845329
8.03086e-05
-6.70879e-05
4.48431e-05
-1.96836e-05
-8.01556e-06
0.00286422
-0.00286861
0.00315995
-0.00369283
4.05586e-06
0.00441579
-0.00516997
0.00619323
-0.00725845
1.81877e-05
0.00865909
-0.0100468
0.0119078
-0.0135568
3.59802e-05
0.015973
-0.017688
0.0206837
-0.0219482
-3.60578e-05
3.88716e-05
6.20128e-05
0.000177655
9.24705e-05
9.09008e-05
0.0161369
-0.0176792
8.29314e-05
0.020992
-0.0235891
0.0210865
-0.0217403
0.00020716
0.0265192
-0.0282287
0.0181154
-0.0135444
-0.0245487
-0.00186253
-6.19107e-05
-0.0088208
-0.0023611
0.000405093
0.013318
0.0165127
0.00110626
-0.0228343
0.0156041
-7.18288e-06
-0.0146928
0.0119712
-0.000175745
-0.0102924
0.00893393
-0.000124264
-0.00723236
0.00644292
-0.000138282
-0.00518583
0.00479139
-0.000140553
-0.00357138
0.00360835
-0.000246763
-0.0024638
0.000681635
0.00108338
-0.00154803
-5.19666e-05
0.00268522
-0.00278863
0.00319068
-0.00366279
0.00438632
-0.00512434
0.00832181
-0.00730144
-2.90863e-05
-0.00710854
0.00619703
-0.00522007
-3.68807e-05
0.00593157
2.02496e-05
-7.41266e-05
-4.34115e-05
-0.000227814
-0.00030212
0.000160063
0.000255542
8.1342e-05
0.000127114
0.000202836
0.000119071
-0.000156303
0.00251631
0.000803584
0.00015911
0.000620121
4.76014e-05
-0.000117756
-7.84987e-05
0.00011439
0.000152597
-0.000141421
-0.000241425
-0.00405225
-0.000135671
0.00464035
-0.00571054
0.00609039
-0.00709121
0.00841378
-0.00959415
0.0157656
-0.0135975
1.08026e-05
-0.0135554
0.0119609
-0.0100913
-1.70432e-05
0.0115622
6.73525e-05
-7.82614e-05
-8.59699e-05
3.98739e-05
-0.000847137
-0.000385378
-0.000272709
-0.000578554
-0.000168364
-0.000122158
0.0034038
-8.22629e-05
-0.000108923
0.000286737
-0.000628697
-0.000183626
0.0013942
0.00262832
0.00478932
0.000382041
-5.22932e-05
0.000138834
-2.49985e-06
-0.003346
-8.46213e-05
0.00362398
0.0033049
-0.00422353
0.000162807
-0.00445901
-0.000144722
0.00515373
0.00478857
-0.00585154
0.000254165
-0.00619749
-0.000213065
0.00721608
0.00677081
-0.00812922
0.000357137
-0.00862831
-0.000171443
0.0098393
0.00928505
-0.0111578
0.000476715
-0.0118785
0.000208836
0.012921
0.0123027
-0.0149658
0.000638004
-0.016008
0.00150787
0.0161432
0.015712
-0.0192172
0.00089026
-0.0205161
0.00516338
0.0189474
0.0189453
-0.00294866
0.000267461
-0.0035389
0.058745
-0.0282892
-0.0291636
0.0437902
0.0115258
0.00420043
-0.0354517
-0.00811091
-0.00489389
0.0158105
-0.0165677
-0.000313372
0.000648461
-0.00286654
-0.00328081
-0.000630052
0.000886113
0.000498696
-0.000163946
-0.000553128
-0.000171425
0.000257247
7.24045e-05
3.82166e-05
1.5733e-05
-9.80101e-06
-3.40517e-05
-0.000126449
-6.3997e-05
0.00164696
-0.00164706
1.74981e-05
1.14822e-05
-0.00167531
0.00165053
-3.82524e-06
6.68672e-06
-6.85628e-06
-0.00012414
-7.86985e-05
0.000299454
2.55216e-05
0.000344351
-0.00012118
-0.000149218
-2.25402e-06
0.000560749
-0.00065626
0.000662154
-0.000555257
-0.000563387
-0.000476134
2.0163e-05
0.000657673
0.00058616
-0.000582135
-1.64201e-05
-0.000659471
1.10122e-06
2.42609e-06
3.27246e-05
5.90843e-05
4.90373e-05
-0.000265078
-7.49496e-05
-0.000135673
-0.000177121
-0.000174112
-4.59975e-05
-1.71631e-05
0.000996609
-0.00204341
-0.000833295
-9.17813e-05
0.0092135
-0.0101417
0.0114061
-0.0128337
0.0149523
-0.000602417
-0.0138233
-0.000368639
0.012948
-0.000286456
-0.00114474
0.000193637
0.000138947
0.000264405
0.000307804
-0.000265862
-0.00329134
0.0113013
-0.00535092
-0.0193839
-0.00290541
-0.00339739
-0.0441836
-0.0124522
0.00161281
-0.018519
0.0134275
0.000661306
0.000622593
0.0162316
0.0135882
0.00176768
-0.00156321
0.0178816
0.016085
0.00187933
-0.00186607
0.0162641
0.0183095
0.00175412
-0.0041971
0.0135527
0.0185731
-0.00660116
0.0105535
-0.00917307
0.00980558
-0.0384959
-0.0208138
0.00340331
-0.0095187
0.0186169
-0.00116581
-0.0302358
0.0171548
-0.000327143
-0.0202693
-0.0201519
-0.0289972
0.0101902
-0.0153062
-0.0101944
0.0160875
-0.0291109
-0.00414792
0.0187883
-0.0198757
-0.00137137
0.0156242
-0.0139504
-0.000701461
0.0119395
-0.0100551
-0.000540571
0.00880111
-0.00727253
-0.000419266
0.00637654
-0.00521811
-0.00025936
0.00460988
-0.00375988
-3.79849e-07
0.00350657
-0.00259598
0.000611234
0.00238375
-0.00121979
0.0023232
0.00264806
-0.0034354
0.00327788
-0.00422283
0.000223258
0.00193285
-0.00266574
0.00116558
0.00131548
0.00140392
0.0018961
0.00162819
0.00117668
0.00229185
0.00138468
-0.000215806
-0.000690238
-0.000873433
-0.000838295
-0.00111487
-0.00162535
-0.0012384
-0.000562844
-0.000287119
0.00649557
-0.0076608
-0.000225462
-0.000175205
-0.000336947
3.36305e-05
-0.00988737
0.00867428
2.91111e-05
0.00738044
-0.00870849
3.03458e-05
0.010245
-0.0119437
6.13146e-05
0.0138755
-0.0159764
0.00011105
0.0181727
-0.0206523
0.000147804
0.0224889
0.000172404
0.000380593
1.98842e-05
-2.09925e-05
-7.53377e-05
1.17471e-05
3.22462e-05
2.59597e-05
1.64841e-05
8.12181e-06
3.294e-06
2.17855e-06
1.51443e-05
4.45797e-05
-0.00160485
2.62779e-05
8.46079e-05
-8.07476e-06
-1.06328e-05
-1.5768e-05
-2.24708e-05
-3.69976e-05
-7.12069e-05
-0.000138363
-0.000186372
0.000759009
-0.000222262
-0.000585186
-0.000794593
0.0155255
-0.0166088
0.0198024
2.30174e-05
-0.00275535
0.00229928
0.00720372
2.97173e-05
-0.00646252
0.00605607
0.00618425
1.07115e-05
-0.00688728
0.00643735
0.00555437
-6.56959e-06
-0.00868388
0.00824172
0.00776727
-0.000165058
0.0106905
-0.0112462
0.0109676
-0.011784
-0.00110121
-0.00600593
0.00854983
-0.000753921
-0.0082196
-0.000189864
-5.87676e-05
0.0285802
-9.23587e-05
-0.0287595
0.0178494
-0.000635434
-0.0184623
0.0185066
-0.000410902
-0.0193953
0.0289582
-0.000280794
-0.0289722
0.0258588
-0.0257643
0.0255975
-0.0262296
0.000110011
-0.0286632
0.0283374
-3.42575e-05
-0.0185007
-0.000703546
0.0186574
-0.0159169
0.000103971
0.028255
0.0102091
0.0277686
0.0102793
-0.0123954
0.0182394
0.00226484
-0.0137729
0.0138331
0.000852191
-0.0113272
0.0104785
0.000577113
-0.00866134
0.00791872
0.000422888
-0.00644201
0.00573668
0.000317782
-0.00468823
0.00416436
0.000148145
-0.00342631
0.00285492
-0.000134919
-0.00269557
0.00165897
-0.00103398
-0.00281783
-0.000812133
-0.00252309
0.00166127
0.000156306
8.34349e-05
0.00103817
0.000259323
-0.00160243
-0.00131002
-0.000351608
-0.0010174
-0.000647227
-0.00050092
-0.00112771
-0.00054883
-0.000584345
-0.00111964
-0.00164318
-0.00172873
-0.00117202
0.0030155
0.000194411
-0.00195876
-0.000199401
0.00298493
0.00351434
6.41943e-05
-0.00302121
-0.000163123
0.00388599
0.00570626
7.25415e-06
-0.00685591
0.000108481
0.00789122
-4.67825e-05
-0.00954919
0.000166415
0.0108556
-7.1819e-05
-0.013054
0.000142627
0.0146011
-9.23349e-05
-0.0173791
0.000194793
0.0190557
-0.000175399
-0.0225139
2.16739e-05
0.0238081
-0.000500735
-0.0283776
-0.000798551
0.000533381
-0.0172353
0.0281036
0.000164013
0.0162655
0.000332962
-0.0140317
0.0230188
-3.99179e-05
0.0126083
0.000292423
-0.0109662
0.0179677
-3.48368e-05
0.00960555
0.000238286
-0.00824396
0.0135652
-1.97141e-05
0.00710684
0.000207773
-0.00606332
0.00996028
-1.24859e-05
0.00515899
0.000150064
-0.00437066
0.00718131
-6.86815e-06
0.00368168
0.000107964
-0.00319671
0.00517549
-1.93699e-05
0.00269127
6.66494e-05
-0.00250195
0.00378402
-0.000127129
0.00246206
-0.000379517
0.000566133
-0.00265804
-0.00232256
0.00120963
-0.0024092
-0.000626931
-0.000338292
-0.00480614
-0.00263892
-0.00231498
-0.00158155
-0.0011755
0.00270002
0.00311931
0.000251865
-0.00185591
-0.00021858
0.00427513
0.000101681
-0.00487615
0.000130211
-0.000255547
-0.000116157
7.3048e-06
-0.00256716
-4.93413e-05
0.00105808
-0.000143146
-0.000174429
-0.000281656
0.00104161
-0.000339514
0.000140825
0.000123496
3.80533e-06
9.5588e-06
8.67724e-06
7.77838e-06
6.51073e-06
6.57586e-06
-1.3729e-05
-6.05994e-06
0.00442096
-0.00511635
2.70703e-05
-1.15454e-05
-3.83072e-05
1.94278e-06
-0.00323138
7.00239e-07
0.00372074
-0.00447555
4.51497e-06
0.00524183
-0.00624666
1.35294e-05
1.07805e-05
-2.34191e-06
1.16132e-05
1.36234e-05
4.0375e-05
5.32743e-05
3.47545e-05
2.08992e-05
1.19296e-05
9.24535e-06
2.18541e-05
1.91709e-05
1.66802e-06
0.00367382
-0.00428214
0.00387274
-0.00456938
0.00539122
-0.00635811
8.31852e-05
-0.00260536
8.87219e-05
0.00243918
0.000111898
-0.00201266
5.27674e-05
0.00154789
-0.000126544
-6.23531e-05
0.000556327
-2.17047e-05
-0.000848951
0.00568931
6.2442e-05
-0.00425349
-0.000238667
0.00507744
0.00664386
0.000232187
-0.00618009
-0.000319574
0.007323
0.00886355
0.000370627
-0.00853011
-0.000419851
0.00976036
0.0119447
0.000497293
-0.0115064
-0.000538008
0.0124652
-0.0149863
-0.000661152
0.0148737
-0.0191452
2.81347e-05
-0.000642198
-0.000133805
-2.90426e-05
2.29271e-05
3.22476e-05
2.97069e-05
2.91354e-05
3.07715e-05
-2.02884e-05
1.3091e-05
0.000784003
0.000831052
0.000840095
-0.0002297
0.00107913
-5.50789e-05
-6.08604e-05
0.0011102
-0.000200423
0.00104026
-0.000330575
4.19405e-05
-8.79119e-05
8.79048e-05
-2.19317e-05
2.90713e-05
-1.09778e-05
-0.00310466
0.00011004
8.34302e-05
2.39028e-05
3.78297e-06
9.53693e-07
-0.000582052
0.000580818
2.0331e-05
-0.000484447
0.000764439
-0.000171746
5.73963e-05
5.63562e-05
1.64685e-06
-0.000120009
0.00106902
-0.00305602
0.000194957
-0.00206394
-0.000217157
0.00290855
0.00358933
2.27953e-05
-0.00307089
-0.000152698
0.00467999
0.000108878
-0.00436891
-0.000235165
0.00537162
0.00650353
0.000238314
-0.00624609
-0.000327977
0.00730604
-0.00860079
-0.000428124
0.00974204
0.000340312
0.000276418
0.000208895
0.000142553
7.4469e-05
5.86491e-05
-3.10255e-05
2.46862e-06
2.46783e-05
5.3656e-06
-1.49178e-05
-7.40671e-05
-5.39664e-05
-1.81245e-05
-1.89788e-05
-6.3492e-05
-4.21539e-05
-0.00013209
-0.000113596
-0.000182178
-0.000202262
-0.00110508
-0.00156179
-0.00246019
-0.00266548
-0.00478191
-0.00408883
-0.00236399
-0.00878214
-0.0264765
0.00174601
-0.0419631
-0.0312179
-0.0234048
-0.0156136
-0.0138144
0.00526347
-0.0122427
-0.000799963
0.00306962
0.00029453
-0.000235259
0.0149325
-0.017406
0.0201607
0.000183871
-0.00246982
0.0037747
0.00836816
0.000312249
-0.00581181
0.00783309
0.00782442
0.000329679
-0.0062156
0.00807506
0.00734684
0.000243394
-0.00832346
0.00918082
-0.000420394
0.000329367
0.000730489
0.0041911
-0.0178112
-0.0256729
0.000943065
0.0220556
0.000506966
0.00024453
0.0139988
0.000145842
-0.0229264
0.0259255
3.55091e-06
-0.0274016
0.016163
-0.016703
0.0146583
-0.00246941
-0.0179345
0.000657769
-0.0213397
0.0292874
-0.0256436
0.0241895
-5.52099e-05
-0.0242292
3.8315e-05
0.0240032
-7.16803e-05
-0.0241086
1.48484e-05
0.0242179
-8.25354e-05
-0.0243088
0.0260912
-0.0299226
0.00200237
-0.0228609
0.0314873
0.00161562
0.000895759
-0.00983042
0.0105169
-0.0108794
2.99975e-05
-0.00825642
0.00759789
0.000543681
-0.00943939
0.00680749
-0.00794969
0.000609216
0.015243
-0.00858475
0.00512926
0.00112804
-0.00966262
0.00763149
-0.000163932
-0.000147607
-6.8955e-06
0.000262166
0.000135769
5.20194e-05
1.28688e-05
-3.60872e-06
-1.41466e-05
-2.26813e-05
2.35951e-05
-1.13515e-05
0.000481066
0.000559535
1.46491e-06
-0.000129248
-7.98223e-05
0.00100971
0.000352406
-0.000885699
0.00045168
0.000583649
-0.000933694
2.28155e-05
-0.00103927
-8.25458e-05
-0.000258436
-0.0008611
0.00131051
0.0016064
8.29614e-05
0.000300843
-7.23636e-05
4.17659e-05
0.0007273
-0.00078166
-8.19205e-06
-0.000832991
0.000833426
0.000784265
-0.000724113
-3.26569e-06
-0.000956641
2.39891e-08
0.000957427
8.09945e-07
2.22524e-06
-2.19367e-05
3.71905e-05
5.26366e-05
0.000317868
0.00478537
0.00262543
0.00136846
-0.000218155
-0.000682715
-0.000888648
-0.0011374
-0.00157634
-0.00241431
-0.00408436
-0.0041978
-0.00803558
-0.00878561
-0.0187662
-0.0308463
-0.0278181
-0.0279796
0.0116733
-0.0169232
-0.00799674
-0.00864627
-0.0254473
-0.0314753
-0.0283161
-0.0283257
-0.0283078
-0.0281621
-0.0321356
0.0118298
-0.00197022
-0.00725886
0.0357609
-0.0102896
-0.0233045
-0.0218832
-0.00627618
-0.00767543
-0.0175162
-0.0181761
-0.00288307
-0.00494837
3.28327e-05
0.000686754
0.000731331
0.000593916
0.00044336
0.000338158
0.000187981
0.000178787
-1.00198e-05
0.000111842
-0.00039517
-0.000652058
-0.000873995
-0.00118358
-0.0017402
-0.00299276
0.000520414
0.000339488
0.000245843
0.000518974
0.000566073
0.000473937
0.00046714
0.000329281
0.000415318
0.000256343
0.00315588
0.00480146
-0.005617
0.00674659
-0.00777686
0.00025653
0.00460734
-0.00403655
0.000173039
-1.56999e-05
-6.72347e-05
-5.06127e-05
-0.00304777
5.46192e-05
-0.00106088
0.000638851
-0.00024046
-5.37861e-05
-7.41404e-05
0.000117368
-0.000957362
0.000746937
-4.92946e-06
-2.0893e-06
-2.08759e-06
1.09804e-06
0.000480586
-1.56871e-05
2.83663e-06
2.61502e-06
9.55038e-07
-0.000299646
2.23449e-06
0.000124585
7.7432e-05
0.000102323
-8.16018e-05
7.118e-05
-7.61609e-07
7.80011e-06
-0.000298859
0.000957187
0.000935521
-0.000579382
-0.000114512
-0.000458675
0.000891691
7.91255e-05
2.21718e-05
2.49329e-06
1.02678e-06
-1.8305e-05
-1.53772e-05
-1.43845e-05
-4.17358e-05
-5.96776e-05
-7.26599e-05
2.6712e-05
-0.000128955
-0.000111603
-0.000175881
-0.000194958
-0.00559195
0.0065095
0.00940435
-0.0107638
0.0128571
-0.014703
0.000481196
0.00890073
-0.00776181
0.000357696
2.02716e-05
-8.56279e-05
8.58244e-05
-7.8856e-05
0.00017498
-0.000186493
-0.00019125
-0.000188176
-0.0001843
-7.4894e-05
0.000132039
0.000300714
0.000365323
0.000163703
0.00411917
0.000128305
0.000145489
6.95228e-05
3.05874e-05
7.162e-06
-1.32305e-05
-7.71338e-06
-5.36776e-06
-1.27951e-05
1.80382e-05
6.26163e-06
-1.9659e-07
4.33889e-05
2.00503e-05
1.98287e-05
1.13569e-05
-1.80047e-06
2.11394e-05
1.89967e-05
4.6953e-06
9.35335e-06
1.61631e-05
2.61414e-05
1.98048e-05
8.3522e-05
4.23683e-05
6.70098e-05
0.000165447
7.99709e-05
0.00016666
0.000334228
0.000263614
0.000959673
-0.00241439
-0.00296157
-0.000504542
0.000377582
0.000518743
0.00033405
-0.0071536
-0.000156236
-8.66278e-05
-0.00010329
-0.000736503
-0.000257449
0.016305
-0.000222856
-0.0204527
-0.000158346
-0.000887904
-0.0190092
-0.000867737
-0.00107826
-0.0125476
-0.00622346
-0.010266
-0.0247731
0.00255141
0.00622536
0.000386774
-0.000337462
-0.00028944
-0.000527479
0.000101672
-0.0146188
0.0195825
0.000129031
-0.0043732
0.00198793
0.00667
4.62605e-05
-0.00834027
0.00532069
0.0053783
-1.63757e-05
-0.00860342
0.00568066
0.0047672
-7.05507e-05
-0.00791373
0.0019026
-0.0115424
0.00554233
0.00860833
-0.0108734
0.00321649
0.0013942
-0.000647503
-0.000113166
-1.98051e-05
3.2062e-05
3.68551e-05
3.09714e-05
2.85392e-05
2.61562e-05
1.60977e-05
2.55812e-05
9.07262e-05
0.00507151
-0.00598792
9.50645e-05
0.00708665
-0.00835225
0.00749445
-0.0087936
0.0102538
-0.0119238
0.000124111
-0.00501878
0.000131858
0.00482013
9.7497e-05
-0.00360785
0.00011739
0.00349612
1.53738e-05
9.50482e-05
0.0011365
-7.2826e-05
-0.00157877
0.0108311
0.000258766
-0.00813324
-0.000419273
0.00941265
0.0121948
0.000498335
-0.0113264
-0.000531434
0.0151925
0.00078733
-0.0148759
-0.000733076
0.0148559
0.0189045
0.000759089
-0.022881
-0.000205552
-0.0190271
-0.0226303
0.000897092
0.0183673
0.0152573
-0.0186912
-0.000140928
-0.000638008
0.000528522
0.000437679
0.000369464
0.000290895
0.00021157
0.000134583
5.90807e-05
9.85924e-05
2.56527e-05
2.70482e-07
3.42848e-05
4.10036e-07
0.00979906
-0.0114587
0.000169231
0.0132372
-0.0153681
0.0137345
-0.0157093
0.0180381
-0.0195956
-0.000594789
-0.0086898
-4.29485e-05
0.00880208
4.96736e-05
-0.00690123
0.000101458
0.00651699
-2.35912e-05
0.000248983
0.00235913
5.08889e-05
-0.00249246
0.0190496
0.000433381
-0.0137096
-0.00072944
0.0155708
0.0187912
0.000748337
-0.0235166
-0.000104532
-0.0167805
-0.0301176
0.000171893
0.0232003
-0.00184789
0.00991749
-0.000163334
0.00682523
0.0054762
0.00285355
0.00181358
0.0127198
-0.0077031
-0.000462505
0.00111861
0.00061143
0.000458543
0.000376047
0.000294233
0.000206003
9.6738e-05
7.37683e-05
0.0019299
-0.00134999
-0.00219504
-0.000513023
0.000420099
-0.00113794
0.00365062
-0.00159003
-0.00192055
-0.00188362
-0.00112925
0.00274436
0.00305749
0.000188875
-0.00208631
-0.000204839
0.0034823
3.33552e-05
-0.00301451
-0.000152591
0.00392189
0.00470574
0.000127099
-0.00441057
-0.000241691
0.00533949
-0.000401389
-0.000310702
-0.00540717
-0.000168554
-0.00379571
0.000741111
0.000747641
0.000214692
-0.00146329
-0.00242446
-0.00162775
-0.00119997
-0.00256444
-0.000844389
-0.000443477
0.000253525
6.05467e-05
0.00427297
1.28951e-05
-0.00301935
-0.000160671
0.00370941
0.00480604
0.000102513
-0.00438536
-0.000232711
0.00646786
0.000238298
-0.00619141
-0.00032403
0.00733164
0.00892222
0.000353336
-0.0104153
-0.000579842
-0.000446959
-0.0075921
0.00103709
0.0010429
0.00090369
-0.000192313
-0.00372719
-2.05359e-05
-0.00232683
0.000222531
-0.000579004
-0.000771405
5.57513e-05
0.00068533
-0.00033447
-0.00458189
0.000408441
4.04499e-05
0.000814262
-5.60551e-05
0.00787051
0.000162613
-0.00594582
-0.000326155
0.00696938
0.00911611
0.000359306
-0.00848952
-0.000411181
0.0118365
0.000530136
-0.011419
-0.000545433
0.0124527
0.015427
0.000718798
-0.0180668
0.000392347
-7.00216e-05
-2.52044e-05
2.36772e-05
2.00671e-05
1.35507e-05
8.29316e-06
4.65038e-06
-6.07994e-06
-8.19572e-06
1.66087e-05
3.08873e-06
-4.68471e-06
6.43144e-06
2.21618e-05
4.90905e-05
7.69866e-05
4.00486e-05
1.56701e-05
4.33634e-06
4.67458e-06
-4.56527e-06
7.35856e-07
0.00446888
3.16218e-06
-0.00445749
0.00524132
5.67288e-06
-0.00623275
0.00625028
-0.00522448
0.00529123
7.13947e-06
-0.00631646
0.00622993
-0.00524296
0.00445969
-8.19758e-06
-0.00453459
0.00376017
-0.00373732
0.00374723
-0.00375372
1.37877e-05
-0.00445216
0.00454861
1.27136e-05
-0.00528096
3.47822e-06
-0.00621998
0.00633967
1.33648e-05
-0.00741916
-9.39849e-07
-0.00865579
0.00880582
-0.00866862
0.00869436
9.14316e-06
0.00735372
-0.00732844
5.8848e-06
0.00743488
1.83089e-05
-0.008773
0.0086707
-0.00733019
-3.16184e-05
-0.00713876
0.00438031
1.39771e-05
0.00596226
-3.56601e-05
-0.00514926
0.00320042
2.24521e-05
0.00430247
-0.00378576
0.0032288
-1.27671e-05
-0.00328009
-7.67595e-07
0.00320756
2.01753e-06
-0.00320128
9.29481e-06
0.00328618
1.60282e-05
-0.00322329
0.00379848
-0.00430497
3.77872e-05
4.572e-05
3.48758e-05
0.000127519
8.2176e-05
-0.00166488
0.00172116
-0.00169488
0.00169599
1.6491e-07
-4.14971e-06
-3.998e-06
-0.00172038
0.00166574
-8.18881e-05
-4.67387e-05
0.000869176
-0.000973185
3.07409e-06
-6.55947e-06
0.00290987
-0.00294455
0.00294915
-0.00290711
0.00301104
-0.00314454
-7.55351e-05
-2.33205e-05
-0.00086786
4.74827e-05
0.00097329
-4.06813e-05
2.54062e-05
2.19337e-05
4.13258e-06
7.14866e-06
1.10735e-05
1.43539e-05
1.38646e-05
-0.010129
1.03251e-05
-0.0118177
0.0118511
-0.0119516
0.0118409
2.76682e-05
0.0102854
-0.0101207
-2.55878e-05
-0.00990234
0.00606585
2.72128e-05
0.00834214
-0.00514134
-0.000139569
-0.00407706
0.00465295
-0.000277665
-0.00567282
0.0064433
-0.000326596
-0.00771068
0.0088507
-0.00028115
-0.0101841
0.0119241
-0.000359197
-0.0133885
-0.0011173
-0.000342067
-0.000574909
-0.000178652
-0.000413009
-0.000175191
-0.000339032
-0.000154945
-0.000267817
-0.000101648
-0.000166743
0.00340066
-0.00367577
-0.000101678
-0.00284494
0.0026646
0.00012721
2.86729e-05
-0.000184822
-1.12719e-05
-0.00165759
-6.49003e-05
0.00250656
0.000127369
-0.00377314
-3.06583e-05
-3.81365e-05
0.00020399
0.000114498
-0.000156069
-0.00165979
0.00252122
0.000815561
0.00280505
0.00101976
0.000580255
0.000115907
0.000377546
-0.00246315
0.00314482
-0.00300499
7.65407e-05
1.09211e-05
-0.000137368
-3.41103e-05
-9.73774e-06
0.000128098
0.000118666
0.000146263
0.000194996
5.19197e-05
-0.0134978
0.00827468
-0.0071143
0.0115428
2.41709e-05
6.72798e-06
-1.10667e-05
3.22413e-06
1.52007e-05
3.08548e-05
4.41542e-05
5.75571e-05
-8.16203e-06
-0.0136216
3.37358e-05
-0.0158138
0.0157258
-0.0179093
0.0109895
9.4665e-05
0.015621
-0.00965012
-0.000137055
-0.000152325
0.000724896
0.000563846
0.000542057
0.000769612
0.0117255
0.017114
-0.0197552
0.00194458
0.000179431
-1.48794e-05
0.000526681
-9.40399e-05
6.8423e-05
-0.0106325
0.000233578
0.00102214
-0.0141834
0.000659939
0.000107477
5.36876e-05
0.000109854
0.000219871
0.000318935
0.000154489
6.5621e-05
3.38541e-05
2.84135e-05
2.58698e-05
3.66435e-05
4.87612e-05
3.30584e-05
2.75643e-05
3.26776e-05
2.39024e-05
1.996e-05
1.80374e-07
1.54126e-05
1.44583e-05
0.000121295
3.99543e-05
3.13921e-05
2.17044e-05
1.91253e-05
1.02264e-05
7.55454e-06
2.39969e-05
3.42462e-05
1.45265e-05
-0.000159866
3.32033e-05
3.88574e-05
3.07364e-05
4.98693e-05
7.5397e-05
8.02601e-05
0.00013606
7.10559e-05
0.00013368
6.80167e-05
0.0173226
-0.0200393
0.000257817
0.0216152
0.000401096
8.03417e-05
0.000222582
0.00130276
-0.00402024
0.0126949
-0.0104923
0.0221218
0.00320915
0.0139063
-0.0119126
0.0101405
-0.0100992
0.00705555
0.00800843
-0.0109725
0.0024875
-0.0117757
0.00745416
0.00771425
0.0146198
-0.00075265
-0.000277391
-0.00183581
-0.000120574
-0.00758432
-0.000146418
-3.53917e-05
4.02776e-05
5.58612e-05
9.58275e-05
5.45306e-05
4.40703e-05
5.25242e-05
4.30184e-05
-1.72412e-06
4.31039e-05
4.93668e-06
0.000278439
0.000192884
0.000141359
-0.0127381
0.0145966
0.000353592
-0.0107803
-0.000541873
0.0124061
0.0156607
0.000701068
-0.014677
-0.000705072
-0.0179234
0.000441442
0.000374409
-1.88442e-05
1.46181e-05
5.37086e-07
0.000236192
4.57941e-05
2.42917e-05
3.246e-05
2.60859e-05
-8.02649e-06
0.000216112
0.000139855
6.23001e-05
-0.0036657
-0.000162544
0.00392387
7.52998e-06
0.00300937
-0.00238886
-0.0023113
0.00278711
-0.00175901
-0.00163175
-0.00144203
0.000223453
-0.000307672
-0.000346195
-0.00544062
0.000910095
-0.00036473
-0.00114773
0.000581926
0.0011236
-0.000466613
-0.0092494
0.000752506
0.000137018
0.00158199
-5.60913e-05
-0.00209322
-0.000558726
0.00103026
0.00166746
0.00137807
-0.000494824
-0.00771331
-0.000446472
-0.00750188
0.00121497
-0.000641834
-0.0106238
-0.000579456
0.00978985
0.00132787
-0.000820541
-0.0142253
-0.000442705
-0.0171906
0.00194447
0.000789048
0.00437998
0.000342123
-0.0228403
0.000925419
0.00196349
0.00223299
0.0034679
0.0133449
0.0313686
0.0164345
0.0242027
-0.00197156
-0.0011162
-0.0185381
0.00112661
0.000463398
0.00230706
0.0161976
0.0235088
-0.00192495
-0.00104122
-0.00074544
0.0126043
-0.013796
0.00122481
0.00118727
0.000832286
-3.35854e-05
0.00167904
0.0149086
0.0237052
-0.00198851
-0.00105501
-0.000751524
-0.0139077
-0.00091545
-0.000716954
-0.000565333
0.000827063
0.00063217
0.000376816
-2.29992e-05
0.000242483
0.00101076
0.00114675
0.00113425
-0.00114355
-0.001454
0.0015903
0.0136008
0.0265113
-0.00466621
0.00516105
0.00228745
0.00211931
0.000314336
-0.000148892
-7.35429e-05
-3.65545e-05
-2.00306e-05
-1.20034e-05
-3.90332e-06
1.41523e-05
2.21563e-06
6.88971e-07
-4.11951e-06
1.37248e-05
7.86276e-06
8.576e-06
-8.30936e-06
-0.000122776
-0.00020693
-0.000126664
2.30835e-05
4.68855e-05
-0.00597074
0.00526465
1.78648e-05
1.70436e-05
1.85432e-05
2.48498e-05
1.70504e-05
2.48359e-05
4.75918e-05
-3.46133e-05
0.000855602
-0.00332128
0.000213541
8.36726e-05
1.14164e-05
1.5566e-05
1.80949e-05
-1.4713e-07
-1.01824e-05
2.17118e-05
1.66725e-05
1.46007e-05
1.11183e-05
1.53444e-05
1.68559e-05
5.04277e-05
4.81486e-05
0.0156809
2.6214e-06
-0.015649
0.0178265
-2.46017e-05
-0.0199829
0.0199786
-0.0177972
0.0180981
1.92039e-05
-0.0201633
0.0201468
-0.0177463
3.98939e-05
0.0205616
-0.0128446
-2.01389e-05
-7.63203e-05
0.000131902
0.000261405
0.000264185
-0.000324687
-0.00144306
-0.00292574
-0.00582438
0.000102606
-0.00229555
-0.000882585
-0.000267775
0.000292338
0.000267466
3.68686e-05
5.18319e-05
5.96583e-05
3.37218e-05
0.0138645
-0.013641
0.0136803
-0.0138343
-1.78228e-05
-0.0156605
0.0158526
1.05986e-06
-0.0180855
-4.85436e-05
-0.020056
0.0201844
-1.70555e-05
-0.0227017
0.0223562
-0.0257045
-2.64861e-05
-0.000160382
-5.83135e-05
2.06454e-05
3.71857e-05
0.000130277
0.000306671
0.000868925
0.00451083
-0.00229669
0.059261
-0.00154759
-0.000278841
-0.0011146
-0.0114089
0.0024984
0.00660732
0.000526536
-0.000115391
-0.00597658
-0.000138461
0.000150586
0.000333807
2.77817e-05
3.51967e-05
0.000551538
0.000316406
-0.0189982
0.0164878
-0.000756291
-0.000471799
-0.000121229
0.00331225
-0.000850456
0.00272302
0.00443053
0.00773181
0.014981
0.0033837
-0.00865592
0.00348505
-0.0117457
0.00276671
0.00133528
-0.00827712
0.000561654
-0.000144514
1.51747e-05
-2.89457e-05
1.23073e-05
0.00013278
-8.12534e-05
-0.000195134
-5.71534e-05
-0.000217296
-5.24871e-05
8.91044e-06
-2.2187e-06
1.4811e-05
-9.86854e-06
-2.57812e-06
-4.55312e-05
6.25988e-06
7.29268e-05
0.00015374
0.000419154
0.00630643
0.0269005
0.00144723
-0.00386868
0.0172229
0.000540826
-0.00284338
-0.00154113
-0.00248981
0.058871
-0.00126392
-0.000298208
0.000477868
0.00012337
0.000289564
-0.00544005
-0.000156525
-0.000153795
-0.00117488
-0.0115067
-0.0104409
-0.00663697
-0.0239987
0.00253856
0.00587232
0.000268929
-0.000334314
-0.000354941
-0.000206406
-0.00662242
-0.000346402
0.00322469
-0.00207819
0.00345574
-0.000224828
-0.00607398
-0.000372842
-0.000172312
-3.95026e-06
0.00045887
0.00202504
0.000479256
0.000535796
0.00193866
0.00187867
0.000223835
-0.000110056
-2.82495e-05
5.56482e-05
0.000170795
-9.17914e-05
-2.37536e-05
0.00126811
0.0207112
0.00159217
0.000595794
-0.000137055
-0.000179291
-0.000156637