/*--------------------------------*- C++ -*----------------------------------*\
| =========                 |                                                 |
| \\      /  F ield         | OpenFOAM: The Open Source CFD Toolbox           |
|  \\    /   O peration     | Version:  2306                                  |
|   \\  /    A nd           | Website:  www.openfoam.com                      |
|    \\/     M anipulation  |                                                 |
\*---------------------------------------------------------------------------*/
FoamFile
{
    version     2.0;
    format      ascii;
    arch        "LSB;label=32;scalar=64";
    class       volScalarField;
    location    "2.6";
    object      gradTz;
}
// * * * * * * * * * * * * * * * * * * * * * * * * * * * * * * * * * * * * * //

dimensions      [0 -1 0 1 0 0 0];

internalField   nonuniform List<scalar> 
5322
(
-0.0624981
-0.057867
-0.0500515
-0.0541352
-0.04281
-0.0329381
-0.0246543
-0.0180362
-0.0130652
-0.00968679
-0.00764035
-0.00697766
-0.00504649
-0.00707829
-0.00782839
-0.0065051
-0.00764067
-0.0059582
-0.00883966
-0.00993718
-0.0117205
-0.0134709
-0.0161473
-0.0188543
-0.0225309
-0.0258579
-0.0305679
-0.0350336
-0.0407781
-0.0456814
-0.0523037
-0.0581792
-0.065039
-0.0698001
-0.0728346
-0.0636585
-0.0749681
-0.0742102
-0.0764835
-0.055858
-0.0709049
-0.0731927
-0.0547725
-0.0732302
-0.072494
-0.0557404
-0.074297
-0.0702265
-0.055152
-0.0731023
-0.0834004
-0.0567849
-0.0791974
-0.0704256
-0.0630599
-0.0666768
-0.0823481
-0.0654152
-0.0632232
-0.0665268
-0.083219
-0.0662931
-0.0632121
-0.0649
-0.0832192
-0.068658
-0.0629934
-0.0617276
-0.0816166
-0.073276
-0.0524397
-0.0778251
-0.0740681
-0.0729691
-0.07367
-0.0733162
-0.073266
-0.0730751
-0.0742273
-0.070812
-0.0687234
-0.0553522
-0.0574052
-0.0740342
-0.0480289
-0.0657603
-0.0953046
-0.0616585
-0.0619149
-0.0538426
-0.0666342
-0.0485635
-0.0511662
-0.0510451
-0.0654342
-0.0621926
-0.0592038
-0.0630246
-0.0969051
-0.0598608
-0.0605596
-0.0546102
-0.0635253
-0.0647238
-0.0706466
-0.0575849
-0.0605683
-0.0546173
-0.0433063
-0.0334191
-0.0250205
-0.0182615
-0.0131491
-0.00967079
-0.00875767
-0.00799504
-0.00569566
-0.0061112
-0.0085402
-0.00669846
-0.00584459
-0.00698184
-0.00688374
-0.00962386
-0.00720706
-0.00943037
-0.00681938
-0.00712105
-0.00927504
-0.00680113
-0.00697892
-0.00936339
-0.00690808
-0.0068517
-0.0094046
-0.00699976
-0.00688874
-0.00965266
-0.0072224
-0.0094448
-0.00684442
-0.00586858
-0.00670557
-0.00602991
-0.00570889
-0.00854761
-0.00611647
-0.00608076
-0.0056415
-0.00568344
-0.00856693
-0.00608945
-0.00606694
-0.0056506
-0.00568741
-0.00856127
-0.00609505
-0.00602379
-0.00586117
-0.00783296
-0.00650002
-0.00765651
-0.00978687
-0.0107073
-0.00635009
-0.00885275
-0.00596448
-0.00776314
-0.00511029
-0.00685334
-0.0070919
-0.00660079
-0.00717678
-0.00803538
-0.00686283
-0.00926466
-0.00919034
-0.0099836
-0.0078149
-0.00997333
-0.0118135
-0.0118256
-0.013654
-0.0105395
-0.0136763
-0.0162226
-0.0162333
-0.0189941
-0.014659
-0.0190203
-0.0224976
-0.0225107
-0.0261827
-0.0203196
-0.0262287
-0.0307108
-0.030746
-0.0352656
-0.0275991
-0.0353524
-0.0408873
-0.0409712
-0.0461659
-0.0364686
-0.0463096
-0.052794
-0.0529605
-0.0586287
-0.0465658
-0.0588665
-0.0649791
-0.0651495
-0.0629084
-0.0969139
-0.0598482
-0.0596594
-0.0547842
-0.0752369
-0.0750584
-0.0511697
-0.0511007
-0.065292
-0.062705
-0.0586438
-0.0637144
-0.0967855
-0.0602271
-0.0596024
-0.0549131
-0.0626538
-0.0650472
-0.0591637
-0.0592596
-0.0545169
-0.0433189
-0.0334586
-0.0250509
-0.01828
-0.0131591
-0.00967574
-0.00876154
-0.00800123
-0.00568029
-0.00566921
-0.00566511
-0.00567723
-0.00856045
-0.00606591
-0.00609392
-0.00601261
-0.00697983
-0.0100665
-0.00606718
-0.00856284
-0.00609559
-0.0100067
-0.00710796
-0.00925365
-0.00680131
-0.00601558
-0.00698063
-0.00925532
-0.0049792
-0.00681172
-0.00686694
-0.00685933
-0.00718025
-0.00918789
-0.00998726
-0.0118262
-0.0136571
-0.0162391
-0.0189957
-0.0225225
-0.0261849
-0.0307671
-0.0352671
-0.0410117
-0.0461545
-0.0530408
-0.0585678
-0.0655984
-0.0621454
-0.0969454
-0.0632963
-0.0591929
-0.0648374
-0.0590268
-0.0466002
-0.0527925
-0.0463834
-0.0364952
-0.0409191
-0.0353816
-0.027616
-0.0307406
-0.026239
-0.0203291
-0.0225197
-0.0190224
-0.0146642
-0.0162416
-0.013672
-0.010542
-0.0118327
-0.00996448
-0.00781428
-0.00927839
-0.00723444
-0.00927092
-0.00997279
-0.00781542
-0.00919613
-0.00718116
-0.00803806
-0.00659108
-0.00503737
-0.00711427
-0.00651456
-0.00929789
-0.00998488
-0.0118092
-0.0137082
-0.0162481
-0.019045
-0.0225783
-0.0262484
-0.0308786
-0.0353577
-0.0412596
-0.0461467
-0.0535884
-0.0580887
-0.065947
-0.0625529
-0.0958172
-0.0664282
-0.0573396
-0.0706517
-0.0637996
-0.0452664
-0.0572439
-0.0498339
-0.0354169
-0.0441442
-0.037832
-0.0267421
-0.0330481
-0.0279943
-0.0196652
-0.0241821
-0.0202866
-0.0141807
-0.0174102
-0.0145803
-0.0101973
-0.0126529
-0.0107095
-0.00755887
-0.00978526
-0.00765942
-0.00783795
-0.00685805
-0.00714324
-0.00632669
-0.00778412
-0.00509974
-0.00582663
-0.00687038
-0.00636089
-0.00948335
-0.0103641
-0.0100112
-0.009972
-0.00777918
-0.00918343
-0.00933562
-0.0066181
-0.00805396
-0.00733133
-0.00726694
-0.00711004
-0.00967885
-0.00761173
-0.00722538
-0.00997905
-0.0077283
-0.00724634
-0.0071036
-0.0069067
-0.00927965
-0.00996732
-0.00903762
-0.0118408
-0.0136736
-0.0162491
-0.0190222
-0.017043
-0.022538
-0.0262218
-0.0307896
-0.0353139
-0.0312737
-0.0410316
-0.0462008
-0.0529975
-0.0586788
-0.0511215
-0.0511877
-0.0407151
-0.040753
-0.0314408
-0.0313621
-0.041231
-0.046244
-0.0364936
-0.0467202
-0.0526547
-0.053389
-0.0583989
-0.0465368
-0.0597005
-0.0642296
-0.0723395
-0.0608597
-0.0969387
-0.0615447
-0.0584412
-0.0566443
-0.0732854
-0.0484934
-0.0439319
-0.0611682
-0.0383242
-0.0525536
-0.0471082
-0.0295167
-0.040963
-0.0353725
-0.0221819
-0.0308745
-0.0261431
-0.0163088
-0.0225114
-0.0187821
-0.0117549
-0.0162299
-0.013462
-0.00846414
-0.0116883
-0.00986805
-0.00633568
-0.00887631
-0.00644385
-0.00619925
-0.00815926
-0.00749011
-0.00886673
-0.010728
-0.0120065
-0.014122
-0.0166018
-0.0195883
-0.0190047
-0.0190667
-0.01463
-0.0162789
-0.0162698
-0.0137123
-0.0105167
-0.0136453
-0.0122826
-0.0117007
-0.00858265
-0.00755758
-0.0089551
-0.00851693
-0.00815179
-0.00959528
-0.00964788
-0.00762989
-0.0070095
-0.00523723
-0.00865878
-0.00484122
-0.00676042
-0.00755812
-0.00825192
-0.0109405
-0.0131222
-0.0130299
-0.0180441
-0.0183108
-0.0151535
-0.0148536
-0.014106
-0.0171917
-0.0205345
-0.0231703
-0.026973
-0.0317512
-0.0363394
-0.0354746
-0.0353992
-0.0275898
-0.0308324
-0.0308834
-0.026282
-0.0202937
-0.026254
-0.023443
-0.0222914
-0.0162494
-0.0143693
-0.0169021
-0.0165859
-0.0158529
-0.012161
-0.0116199
-0.0111343
-0.0122851
-0.01013
-0.0103248
-0.0112027
-0.00972408
-0.00767651
-0.0069928
-0.00673162
-0.00641269
-0.00697843
-0.00594786
-0.00839154
-0.00832393
-0.00998528
-0.00901373
-0.0118323
-0.0118271
-0.0136777
-0.0105455
-0.0136608
-0.0122573
-0.0162435
-0.016244
-0.0190203
-0.0146721
-0.0190173
-0.0170123
-0.0225251
-0.0225434
-0.0262174
-0.0203457
-0.0262411
-0.0233377
-0.030762
-0.0308089
-0.0353085
-0.0276456
-0.0353907
-0.0312464
-0.0409541
-0.0410884
-0.0461706
-0.0365355
-0.0464126
-0.0406314
-0.0527803
-0.0531444
-0.0585515
-0.0466061
-0.0590296
-0.0509691
-0.0648337
-0.065443
-0.0628354
-0.0590888
-0.0628621
-0.0552079
-0.0599818
-0.0578061
-0.0526541
-0.0726686
-0.0485615
-0.0632529
-0.0486862
-0.0466042
-0.0573708
-0.0576364
-0.051279
-0.0547324
-0.0551468
-0.0496134
-0.0444399
-0.0435446
-0.0332658
-0.0339766
-0.0286656
-0.0252201
-0.0247653
-0.0245842
-0.0179552
-0.0130044
-0.00964803
-0.00760511
-0.00693364
-0.00506484
-0.0070423
-0.00622903
-0.00676615
-0.00680725
-0.00664706
-0.00686729
-0.00805767
-0.00600202
-0.00737917
-0.0071676
-0.00722514
-0.00745063
-0.00585463
-0.00735514
-0.00724248
-0.00722935
-0.00806159
-0.00556362
-0.0056071
-0.00559785
-0.00557786
-0.00556101
-0.00553165
-0.0086189
-0.00558943
-0.0055729
-0.00557446
-0.00862128
-0.00559816
-0.00811787
-0.00883496
-0.00879552
-0.00773368
-0.00771162
-0.00720377
-0.00904253
-0.0123282
-0.0171208
-0.0234679
-0.0313682
-0.0298266
-0.0265363
-0.0311471
-0.0305763
-0.0292139
-0.0323529
-0.037447
-0.0427343
-0.0471059
-0.0566728
-0.0463665
-0.0474981
-0.0376657
-0.0432386
-0.0356608
-0.0382501
-0.0388878
-0.0329268
-0.0429136
-0.0543452
-0.0679401
-0.0676242
-0.0677447
-0.0585823
-0.0543223
-0.0569256
-0.0625741
-0.0524728
-0.0595887
-0.0853431
-0.0770552
-0.0758621
-0.0783549
-0.0501713
-0.063709
-0.0668707
-0.080168
-0.0516536
-0.0659546
-0.0671619
-0.0805509
-0.0518743
-0.0651329
-0.068013
-0.080377
-0.0530917
-0.0645678
-0.0724449
-0.100286
-0.079167
-0.0774151
-0.0980539
-0.0960288
-0.0765012
-0.0561896
-0.0792063
-0.0704837
-0.0630316
-0.0665422
-0.0703723
-0.0551824
-0.0729824
-0.0834429
-0.0567715
-0.0687691
-0.0553839
-0.0574548
-0.0740587
-0.0640542
-0.0486443
-0.0599747
-0.0522196
-0.0392516
-0.0464581
-0.0407063
-0.0301266
-0.0351813
-0.0306692
-0.0225129
-0.0260062
-0.0224957
-0.0163883
-0.0188401
-0.0162025
-0.0117999
-0.0135201
-0.0117284
-0.00845999
-0.00996154
-0.00885161
-0.0064981
-0.00776874
-0.00629096
-0.00712718
-0.00684489
-0.00765458
-0.00979279
-0.0107093
-0.00755836
-0.00931261
-0.00649978
-0.00783642
-0.00710679
-0.00503556
-0.00658071
-0.00681501
-0.00803794
-0.00678498
-0.00698879
-0.00767824
-0.00972067
-0.0130982
-0.0131116
-0.0181278
-0.0248398
-0.0232167
-0.0223771
-0.0214504
-0.0239854
-0.0282633
-0.0267022
-0.0195939
-0.0210226
-0.0213758
-0.0225747
-0.0225869
-0.0170804
-0.0190254
-0.0225085
-0.0203466
-0.0262436
-0.0307333
-0.027641
-0.0353806
-0.0409151
-0.0365144
-0.0463429
-0.0527819
-0.0465698
-0.0587841
-0.049659
-0.0503435
-0.0610539
-0.0612108
-0.0545797
-0.0429106
-0.0329164
-0.0245891
-0.0179713
-0.0130231
-0.00966317
-0.00763254
-0.00696167
-0.00503605
-0.00681345
-0.00677786
-0.00697444
-0.00764853
-0.00969183
-0.0130687
-0.0180514
-0.0247066
-0.0330717
-0.0431104
-0.0547201
-0.069059
-0.0685919
-0.0555544
-0.105067
-0.0774949
-0.0743278
-0.0672199
-0.0805267
-0.0519444
-0.052084
-0.056589
-0.0832177
-0.0538648
-0.0546888
-0.0557557
-0.0836809
-0.0541112
-0.0549301
-0.0553782
-0.0835044
-0.0555666
-0.0565355
-0.0621491
-0.106071
-0.0801512
-0.0782002
-0.0785514
-0.0778719
-0.0627431
-0.0588113
-0.0624094
-0.105679
-0.0617106
-0.0637752
-0.0831646
-0.0663862
-0.0631695
-0.0647949
-0.0736067
-0.054736
-0.0728254
-0.0728676
-0.0558658
-0.0740196
-0.0655933
-0.0631905
-0.0662876
-0.0733779
-0.0731309
-0.0737712
-0.0728014
-0.0632329
-0.0625038
-0.0680526
-0.0833147
-0.0713898
-0.0563878
-0.0759825
-0.0667931
-0.0563627
-0.0915363
-0.0494749
-0.0649126
-0.0545284
-0.0637459
-0.0586541
-0.0463116
-0.0535122
-0.0475693
-0.0377645
-0.0418553
-0.0372515
-0.0284645
-0.0321693
-0.0278487
-0.0217838
-0.0236766
-0.0205995
-0.0154573
-0.0173047
-0.0147229
-0.0113729
-0.0122971
-0.0107517
-0.00806684
-0.00897526
-0.00808797
-0.00621504
-0.00687073
-0.00481611
-0.00861279
-0.00622372
-0.00523245
-0.00963011
-0.00688144
-0.00720319
-0.00941288
-0.00682431
-0.00710316
-0.00925729
-0.00678683
-0.00698274
-0.00935363
-0.00691898
-0.00682686
-0.00938876
-0.00507475
-0.0066344
-0.00805489
-0.00688156
-0.00723325
-0.0092521
-0.00780872
-0.00996814
-0.0099672
-0.00900525
-0.0117973
-0.0101843
-0.0136788
-0.0145621
-0.010322
-0.0173882
-0.0117315
-0.02023
-0.0143341
-0.0240819
-0.0162284
-0.0279027
-0.0196604
-0.0328342
-0.0220248
-0.0375992
-0.0263108
-0.0435681
-0.0290662
-0.0493268
-0.0342358
-0.0561629
-0.0372874
-0.0628726
-0.0432393
-0.0694964
-0.0461858
-0.0543562
-0.0661571
-0.0646326
-0.0514791
-0.0602431
-0.0445456
-0.0538858
-0.0523061
-0.0406884
-0.0474393
-0.034815
-0.0417541
-0.0406554
-0.0312752
-0.0361979
-0.0264009
-0.0314693
-0.0306445
-0.0233644
-0.0269014
-0.0194556
-0.0230509
-0.0224992
-0.0170441
-0.0195065
-0.0140634
-0.0166278
-0.016248
-0.0122807
-0.0140732
-0.0101164
-0.0120475
-0.0118392
-0.00903584
-0.0103
-0.00749333
-0.00952381
-0.00917157
-0.00726105
-0.00632696
-0.00581225
-0.00509782
-0.00684784
-0.00712893
-0.00628536
-0.00776045
-0.0064701
-0.00695332
-0.00642285
-0.0067384
-0.00678247
-0.00678959
-0.00803265
-0.00686089
-0.00715775
-0.00719571
-0.00928664
-0.00755423
-0.0106948
-0.0075615
-0.0126416
-0.00845716
-0.0112129
-0.00840561
-0.00833927
-0.00919402
-0.00770397
-0.00998699
-0.00608884
-0.00855579
-0.00606539
-0.0059999
-0.00736389
-0.00721612
-0.00715734
-0.00722447
-0.00724566
-0.0100639
-0.00773068
-0.00723559
-0.00906272
-0.00906885
-0.00905912
-0.0118532
-0.0118557
-0.00903479
-0.0111563
-0.00839237
-0.00835601
-0.00919774
-0.00782214
-0.00999598
-0.0118169
-0.0105491
-0.0136762
-0.0162304
-0.0146749
-0.0159541
-0.0123601
-0.0123136
-0.0171628
-0.023523
-0.0234244
-0.0235056
-0.0171548
-0.0123549
-0.0122891
-0.0123205
-0.00903913
-0.00901049
-0.00996464
-0.0118116
-0.0126479
-0.0145715
-0.0173925
-0.0202413
-0.0117429
-0.0162101
-0.0103243
-0.0135139
-0.00846921
-0.0117355
-0.0075672
-0.00995743
-0.00844468
-0.00809548
-0.0107392
-0.0101309
-0.0123448
-0.0140705
-0.0122904
-0.0162499
-0.0145932
-0.0189716
-0.0190243
-0.0170577
-0.022443
-0.0202703
-0.0261625
-0.0261729
-0.0233221
-0.0305698
-0.0274598
-0.0352271
-0.0352424
-0.0311454
-0.0406727
-0.0350208
-0.0461446
-0.0523789
-0.0447612
-0.0587571
-0.0641062
-0.0547261
-0.0608198
-0.054751
-0.0433337
-0.0334154
-0.0250132
-0.0182562
-0.0131454
-0.00966846
-0.00875485
-0.00799025
-0.00567937
-0.00564334
-0.00567382
-0.00608265
-0.0100503
-0.00772706
-0.00772482
-0.00996124
-0.00607792
-0.00599269
-0.00737991
-0.00721692
-0.00760602
-0.00721512
-0.0099988
-0.0077067
-0.00719911
-0.00930136
-0.00756234
-0.00841761
-0.00829509
-0.00879689
-0.00805961
-0.00557536
-0.0055581
-0.00862087
-0.00552959
-0.00563372
-0.00856031
-0.00829792
-0.00906192
-0.00858092
-0.0071047
-0.00965784
-0.00955058
-0.00727114
-0.00916554
-0.00777399
-0.0100213
-0.00994873
-0.00905567
-0.011807
-0.0105359
-0.013653
-0.0122827
-0.0162044
-0.0146344
-0.0189903
-0.0189744
-0.0169866
-0.0224791
-0.019584
-0.0261699
-0.0306404
-0.0265546
-0.0352392
-0.0312919
-0.023416
-0.0170933
-0.0123141
-0.00903454
-0.00829004
-0.00879286
-0.00805473
-0.00816463
-0.00971673
-0.00830392
-0.00842195
-0.00829418
-0.00816627
-0.00971448
-0.00905819
-0.00903701
-0.0123501
-0.0122865
-0.0171494
-0.0170417
-0.0180809
-0.0247469
-0.0331369
-0.0332873
-0.0434174
-0.0405198
-0.039475
-0.050577
-0.0610196
-0.0521297
-0.0744757
-0.056696
-0.10762
-0.0760528
-0.0746044
-0.0706508
-0.0862846
-0.0783781
-0.081195
-0.0779818
-0.10695
-0.0750716
-0.0742223
-0.0671506
-0.0801722
-0.0518036
-0.0528408
-0.0571963
-0.0827654
-0.053635
-0.055596
-0.0565614
-0.0832206
-0.0538819
-0.0556754
-0.056343
-0.0830381
-0.0554494
-0.0569237
-0.0788495
-0.0605783
-0.0511778
-0.0510657
-0.0589368
-0.062829
-0.0451172
-0.0569542
-0.0377729
-0.0452038
-0.0549393
-0.0406884
-0.0519752
-0.0593795
-0.0513972
-0.0635786
-0.0689908
-0.0589212
-0.0551212
-0.0465304
-0.056738
-0.0549913
-0.0707987
-0.0743013
-0.0729587
-0.0643724
-0.0512711
-0.0637448
-0.0562824
-0.0640467
-0.0512093
-0.0637385
-0.0563353
-0.0641225
-0.0513643
-0.0638116
-0.074264
-0.0726183
-0.0633297
-0.0586051
-0.0702313
-0.0836653
-0.0626036
-0.0789186
-0.0801366
-0.0769703
-0.0637433
-0.0617086
-0.0621314
-0.105119
-0.0623632
-0.0691757
-0.101487
-0.0808201
-0.0774637
-0.0626181
-0.0615908
-0.0790177
-0.0565208
-0.0563344
-0.078335
-0.0595305
-0.0548212
-0.0546265
-0.0433156
-0.0334274
-0.0250262
-0.0182654
-0.0131514
-0.00967211
-0.00875854
-0.00799585
-0.00552998
-0.00556215
-0.00734045
-0.00715777
-0.00721836
-0.00924667
-0.00710526
-0.0058614
-0.00602586
-0.00669786
-0.00611274
-0.00584762
-0.00688504
-0.00964092
-0.00721029
-0.00965818
-0.00682846
-0.00941802
-0.00760796
-0.00745216
-0.00721883
-0.00996519
-0.00607933
-0.00608508
-0.0085624
-0.00566098
-0.00565763
-0.00608674
-0.00607522
-0.00598732
-0.00692596
-0.00947367
-0.00693115
-0.0100477
-0.00772539
-0.00772401
-0.00710651
-0.0059703
-0.00697925
-0.00641079
-0.00675004
-0.00699141
-0.00767457
-0.00973151
-0.0131226
-0.0181253
-0.0248072
-0.0332058
-0.0432796
-0.0432103
-0.0549392
-0.0550207
-0.0684967
-0.0560189
-0.0594058
-0.0597162
-0.0969994
-0.0690205
-0.0750761
-0.0774362
-0.104785
-0.0553561
-0.0596254
-0.0597876
-0.0564041
-0.0605607
-0.0616114
-0.0953188
-0.0637012
-0.0657614
-0.0538722
-0.0619193
-0.0716466
-0.0597747
-0.0505779
-0.0549059
-0.0691679
-0.0689606
-0.0609495
-0.0612032
-0.0509542
-0.0391979
-0.029318
-0.0214863
-0.0155021
-0.0152865
-0.0110529
-0.0110544
-0.00832808
-0.00840896
-0.00898018
-0.0121972
-0.0169003
-0.0231543
-0.0309897
-0.0402959
-0.0501849
-0.0494549
-0.049598
-0.0384037
-0.0288664
-0.0211825
-0.0211608
-0.0152806
-0.0154855
-0.0112092
-0.0118253
-0.0126556
-0.0145748
-0.0174035
-0.0202465
-0.0141588
-0.0162469
-0.0136879
-0.0101899
-0.0116302
-0.00903946
-0.00901467
-0.0099639
-0.00771023
-0.00999598
-0.00679923
-0.00720401
-0.0082924
-0.00841894
-0.00854101
-0.00569729
-0.00564434
-0.00738773
-0.0072114
-0.00727255
-0.007339
-0.0055279
-0.00862356
-0.00734011
-0.00736278
-0.00600832
-0.0074516
-0.00734174
-0.00714914
-0.00720892
-0.0072333
-0.00760234
-0.00721311
-0.00723496
-0.00738797
-0.00745252
-0.00568724
-0.00611228
-0.00669147
-0.00853484
-0.00602473
-0.00585339
-0.00841426
-0.00830048
-0.008795
-0.00805333
-0.00816505
-0.00830232
-0.00906497
-0.00858338
-0.00757336
-0.0116965
-0.0103332
-0.0123213
-0.0122578
-0.0171059
-0.0170036
-0.0190241
-0.0225333
-0.024136
-0.0279054
-0.0329539
-0.0376073
-0.0266451
-0.0307522
-0.0262316
-0.0196166
-0.0223514
-0.0162283
-0.0143509
-0.0222319
-0.0196895
-0.0234396
-0.0233128
-0.0235002
-0.023367
-0.0314035
-0.0312825
-0.0407153
-0.0406608
-0.0387037
-0.034769
-0.0409394
-0.0399982
-0.030354
-0.0223893
-0.0161762
-0.0116372
-0.0114718
-0.0112809
-0.0132083
-0.0159376
-0.0156536
-0.0183466
-0.0220488
-0.0216458
-0.0183488
-0.0132103
-0.0114845
-0.0114702
-0.011277
-0.00975306
-0.0132512
-0.0184043
-0.025211
-0.0251371
-0.0298678
-0.0292984
-0.0335649
-0.0393132
-0.038521
-0.0434534
-0.0499967
-0.0509006
-0.0510591
-0.0748207
-0.0525145
-0.0788883
-0.0604978
-0.0592237
-0.0755889
-0.0553248
-0.078025
-0.079289
-0.0813336
-0.0777132
-0.106163
-0.0750484
-0.0692533
-0.0650669
-0.0821197
-0.0830033
-0.061661
-0.069417
-0.0798238
-0.0829479
-0.0766726
-0.0750211
-0.105547
-0.0780498
-0.0815796
-0.081837
-0.0820478
-0.0816269
-0.0777357
-0.0821793
-0.0732289
-0.0680167
-0.0803808
-0.0531214
-0.0518453
-0.0563531
-0.0830599
-0.0554048
-0.0544274
-0.0553894
-0.083548
-0.0554712
-0.054675
-0.0550018
-0.0833357
-0.0567041
-0.062264
-0.105434
-0.0824341
-0.0771651
-0.0639727
-0.0616318
-0.0783496
-0.0594976
-0.0548112
-0.0434603
-0.0335428
-0.0251179
-0.0183346
-0.0132016
-0.00971168
-0.0114739
-0.0116276
-0.0101945
-0.0136843
-0.0162313
-0.0141647
-0.0190155
-0.0225136
-0.0241207
-0.0278975
-0.0329337
-0.0375967
-0.0220764
-0.0306838
-0.0196728
-0.0260079
-0.0162567
-0.0225073
-0.0143389
-0.0188382
-0.0163691
-0.0156688
-0.0205214
-0.0194859
-0.0237959
-0.026885
-0.0233724
-0.0306339
-0.0273927
-0.0352888
-0.0352703
-0.031244
-0.0404905
-0.0361838
-0.046122
-0.0405473
-0.0521195
-0.0461634
-0.0587375
-0.0588352
-0.0512155
-0.0641438
-0.0563248
-0.06389
-0.0639852
-0.051243
-0.0587269
-0.0587747
-0.0638124
-0.0562679
-0.0594058
-0.0513124
-0.0406702
-0.0313532
-0.0234688
-0.0171345
-0.0123464
-0.0116919
-0.0162212
-0.0171041
-0.0169963
-0.0234359
-0.0233018
-0.0262164
-0.0307272
-0.0266539
-0.0353436
-0.0409141
-0.0438973
-0.0493132
-0.0569147
-0.0628418
-0.0377678
-0.0522516
-0.0344126
-0.0464688
-0.0292419
-0.0407268
-0.0263672
-0.035189
-0.0300978
-0.0287853
-0.0371312
-0.0350437
-0.0423974
-0.0471063
-0.0406899
-0.0519786
-0.0460469
-0.0593365
-0.0585329
-0.0512762
-0.0643187
-0.055996
-0.0636076
-0.0689591
-0.0514062
-0.0589068
-0.0550708
-0.0566966
-0.0549534
-0.0584389
-0.0546922
-0.0464793
-0.048605
-0.0599834
-0.0640906
-0.0434571
-0.0504478
-0.0401752
-0.0308928
-0.0230799
-0.0168442
-0.0121548
-0.00894856
-0.00695863
-0.00641589
-0.00713466
-0.00629066
-0.00481968
-0.00581984
-0.00687756
-0.00632596
-0.00862626
-0.00522548
-0.00620798
-0.0080511
-0.00732262
-0.00660024
-0.00724533
-0.00918558
-0.00781592
-0.00994903
-0.00903245
-0.0118032
-0.0105288
-0.0136646
-0.013637
-0.0122476
-0.0162154
-0.0141475
-0.0189961
-0.015478
-0.0152775
-0.0162199
-0.0110701
-0.0118259
-0.00966092
-0.00965173
-0.00759591
-0.00693392
-0.00678403
-0.00703992
-0.00700576
-0.00677271
-0.00756071
-0.00623309
-0.00808112
-0.00750602
-0.0102959
-0.00904527
-0.0118383
-0.0105026
-0.0136462
-0.013685
-0.0123077
-0.0162089
-0.0146428
-0.0189925
-0.0170261
-0.0224463
-0.0202604
-0.0261616
-0.0261584
-0.0232798
-0.0305721
-0.0284961
-0.021077
-0.0224532
-0.0179548
-0.0179381
-0.0130123
-0.0111563
-0.0118606
-0.0084042
-0.00934537
-0.00763301
-0.00827715
-0.00899972
-0.00962059
-0.00966527
-0.0109653
-0.0120781
-0.0131497
-0.0112814
-0.0147806
-0.0140731
-0.0195191
-0.0170502
-0.0224998
-0.0202031
-0.0261609
-0.0262079
-0.0233658
-0.0305529
-0.027471
-0.0352385
-0.0311888
-0.0405388
-0.036181
-0.0461208
-0.0461738
-0.0405115
-0.0521143
-0.0406216
-0.0392551
-0.029813
-0.0292815
-0.0251261
-0.0183405
-0.0132057
-0.00971499
-0.0112779
-0.0114683
-0.0159308
-0.0161592
-0.0123516
-0.0171427
-0.0234804
-0.030283
-0.0298513
-0.022037
-0.0216378
-0.0156484
-0.0159423
-0.0114792
-0.0105415
-0.011834
-0.00903309
-0.0118202
-0.0136679
-0.0122872
-0.0162165
-0.0162305
-0.0136599
-0.0136656
-0.0123107
-0.0162163
-0.0162568
-0.013688
-0.0118577
-0.00905561
-0.0118149
-0.00998923
-0.00995755
-0.00996678
-0.00997488
-0.0090497
-0.0118364
-0.01182
-0.0105388
-0.013651
-0.0123036
-0.0162348
-0.0162199
-0.0146475
-0.0189831
-0.0170554
-0.0224851
-0.0224551
-0.0224519
-0.0224694
-0.0170312
-0.0190052
-0.018997
-0.0146507
-0.0189991
-0.0170635
-0.0224502
-0.0225146
-0.0190277
-0.0146054
-0.0162532
-0.016655
-0.0122904
-0.0136517
-0.0105108
-0.0118403
-0.012089
-0.00904397
-0.0100229
-0.0099529
-0.00933793
-0.00724338
-0.00919273
-0.00782122
-0.00927604
-0.00723499
-0.00926122
-0.00781889
-0.00920156
-0.00723885
-0.00931873
-0.00995593
-0.0100025
-0.00777273
-0.00840494
-0.00756423
-0.00692377
-0.00508933
-0.00701045
-0.00667518
-0.0068376
-0.00685046
-0.00506606
-0.0069154
-0.00681779
-0.00666571
-0.00702339
-0.00509116
-0.00942731
-0.0069916
-0.00681833
-0.00599048
-0.00805552
-0.00709685
-0.00688449
-0.00689615
-0.00708115
-0.00661601
-0.00730281
-0.00804503
-0.00584006
-0.00698579
-0.00941911
-0.00682034
-0.00995895
-0.00772092
-0.0090612
-0.0090618
-0.0123514
-0.0171445
-0.0220459
-0.0202806
-0.0261737
-0.0233264
-0.0305669
-0.030596
-0.0305593
-0.0306805
-0.0233725
-0.0261837
-0.0262112
-0.0202213
-0.0225045
-0.0231119
-0.0170512
-0.0189819
-0.0195251
-0.0140877
-0.0147964
-0.0172708
-0.015693
-0.0205426
-0.023826
-0.0215529
-0.0280111
-0.0321849
-0.0288261
-0.037171
-0.0424432
-0.0374841
-0.0473777
-0.0479613
-0.0436678
-0.0374271
-0.0335768
-0.028352
-0.0250727
-0.0209248
-0.0182809
-0.01515
-0.0131623
-0.0112937
-0.0123657
-0.014072
-0.0101418
-0.0107461
-0.00901231
-0.0081105
-0.00962743
-0.0109716
-0.00827925
-0.00808705
-0.00751395
-0.00955485
-0.00726837
-0.00916738
-0.00777947
-0.00841349
-0.00762211
-0.00700719
-0.00523143
-0.00621972
-0.00862465
-0.0048217
-0.00688518
-0.00623574
-0.00755991
-0.00677364
-0.00582355
-0.00632853
-0.0073193
-0.0066112
-0.00805086
-0.00678381
-0.00692583
-0.00757015
-0.00961973
-0.00965209
-0.0130328
-0.0180033
-0.0246234
-0.0233737
-0.0306408
-0.0315524
-0.0268955
-0.0261764
-0.0212637
-0.0154094
-0.0111744
-0.01113
-0.0129752
-0.0178877
-0.0244291
-0.0287823
-0.0274181
-0.0352711
-0.0312521
-0.0404907
-0.0407477
-0.0405881
-0.0420932
-0.031279
-0.0353115
-0.0361826
-0.02649
-0.0220822
-0.029147
-0.0288082
-0.038281
-0.0387587
-0.0409399
-0.0439261
-0.0493203
-0.0344393
-0.038577
-0.0297178
-0.0263884
-0.0313289
-0.0312078
-0.0353705
-0.040647
-0.040613
-0.046359
-0.0352398
-0.0398965
-0.031368
-0.0406857
-0.0508456
-0.050025
-0.039301
-0.0385203
-0.0292892
-0.0298513
-0.0335531
-0.0336539
-0.0335665
-0.0251393
-0.0220704
-0.0220383
-0.0159327
-0.015647
-0.0159345
-0.0161546
-0.0223442
-0.0196246
-0.0214484
-0.0155005
-0.0153081
-0.0153484
-0.015423
-0.0110987
-0.0110731
-0.00833842
-0.00841124
-0.00673999
-0.0112181
-0.0212642
-0.0211983
-0.0288554
-0.0289626
-0.0291553
-0.0384886
-0.0383359
-0.0388021
-0.0291794
-0.0463098
-0.0528851
-0.0451314
-0.0588494
-0.0502411
-0.0495177
-0.0610946
-0.0612992
-0.0597276
-0.071752
-0.0960848
-0.0980083
-0.0561825
-0.0724249
-0.100304
-0.0791491
-0.0627597
-0.0778507
-0.0787096
-0.0638727
-0.0621214
-0.106246
-0.0806681
-0.0780589
-0.10135
-0.0867387
-0.0868272
-0.0818533
-0.0793024
-0.0555635
-0.0782109
-0.0593357
-0.0546986
-0.0434542
-0.0393449
-0.029895
-0.0298507
-0.0314072
-0.0313225
-0.0311907
-0.040638
-0.0405914
-0.0385613
-0.0297041
-0.0222215
-0.0315268
-0.0361676
-0.0312769
-0.0405813
-0.0361095
-0.046371
-0.0460994
-0.0406097
-0.0519973
-0.0461375
-0.052138
-0.0406596
-0.0313455
-0.0298365
-0.0302722
-0.0398827
-0.0352512
-0.0392981
-0.0385157
-0.0292855
-0.0216354
-0.0220348
-0.0171331
-0.0123433
-0.00905575
-0.0118411
-0.0110965
-0.0136606
-0.00836086
-0.00998933
-0.009284
-0.00681677
-0.00710252
-0.00686002
-0.00502113
-0.00695134
-0.00762246
-0.0153109
-0.0153823
-0.0162551
-0.0130469
-0.0151398
-0.0172481
-0.018263
-0.0180214
-0.02091
-0.0230925
-0.0250481
-0.0215232
-0.0279807
-0.0264611
-0.0321457
-0.028331
-0.0335441
-0.032959
-0.0246481
-0.0212246
-0.0225088
-0.0211199
-0.0224666
-0.0244994
-0.0287279
-0.0306696
-0.0285532
-0.0352399
-0.0327163
-0.0378418
-0.0407288
-0.0374013
-0.042061
-0.0436288
-0.0374347
-0.0473325
-0.0451657
-0.0549043
-0.0479357
-0.0429035
-0.0542365
-0.0639543
-0.0635165
-0.0630549
-0.0678884
-0.0646135
-0.0588382
-0.0483029
-0.052473
-0.0425076
-0.0536972
-0.0634333
-0.0690419
-0.065775
-0.058365
-0.0477259
-0.0375153
-0.0461585
-0.0405625
-0.0327441
-0.0245202
-0.0425473
-0.053779
-0.0635957
-0.0693894
-0.0658259
-0.0583614
-0.0476725
-0.037447
-0.0405386
-0.0380494
-0.0289067
-0.0213637
-0.0168161
-0.0121426
-0.00893861
-0.00840695
-0.0118959
-0.0230199
-0.0307372
-0.0398841
-0.0485582
-0.0591195
-0.063953
-0.0706079
-0.0655038
-0.0530222
-0.0592169
-0.064181
-0.0634377
-0.0538478
-0.0534954
-0.0423652
-0.0326014
-0.0244076
-0.0178683
-0.0129592
-0.00960839
-0.00960638
-0.00757334
-0.00838145
-0.00837867
-0.00681467
-0.00805347
-0.00677479
-0.00700158
-0.00760955
-0.00963341
-0.0111668
-0.010503
-0.0136304
-0.0136891
-0.012347
-0.0114765
-0.0112748
-0.00816373
-0.0114622
-0.0116234
-0.00857739
-0.0071009
-0.0096521
-0.00978386
-0.00633799
-0.0116885
-0.0161497
-0.0159387
-0.0156435
-0.0159193
-0.0220149
-0.0216306
-0.0220413
-0.0171369
-0.0234743
-0.023481
-0.0313638
-0.0392916
-0.0362007
-0.0405777
-0.0311902
-0.0405167
-0.0461854
-0.0405426
-0.052045
-0.0521685
-0.0460943
-0.0462053
-0.0406144
-0.0519768
-0.0525025
-0.0460904
-0.0361426
-0.0464022
-0.0471242
-0.0350814
-0.0292488
-0.0379131
-0.032926
-0.04286
-0.0541742
-0.0547231
-0.0584487
-0.0635125
-0.0630673
-0.0638848
-0.0679112
-0.0646044
-0.0589062
-0.0483864
-0.0423834
-0.032622
-0.0376261
-0.0286408
-0.0352719
-0.0352326
-0.0352678
-0.0352355
-0.031257
-0.0406335
-0.0405433
-0.0362024
-0.0461368
-0.0406505
-0.052251
-0.0521266
-0.046177
-0.0587125
-0.0589567
-0.0588142
-0.0461112
-0.0508679
-0.0500758
-0.0434712
-0.0435585
-0.0489391
-0.0546977
-0.0511925
-0.0511465
-0.0751972
-0.0549163
-0.0520051
-0.0780525
-0.0792021
-0.0819327
-0.0777644
-0.0817201
-0.0820854
-0.078867
-0.0546017
-0.0771377
-0.0576158
-0.0759591
-0.0762967
-0.0759659
-0.0761542
-0.0752765
-0.0645302
-0.0811418
-0.105591
-0.056531
-0.0783624
-0.0860358
-0.0816069
-0.086852
-0.0813664
-0.0774308
-0.102633
-0.0813326
-0.0569178
-0.0623552
-0.105744
-0.0617698
-0.0782054
-0.0566666
-0.0765595
-0.057744
-0.0548224
-0.0489727
-0.05002
-0.0500299
-0.0508312
-0.0500166
-0.0392741
-0.050028
-0.0490166
-0.0385217
-0.0392985
-0.0298478
-0.0302587
-0.0313671
-0.0407154
-0.0406771
-0.0500326
-0.0513226
-0.0485771
-0.0434832
-0.0707024
-0.0480383
-0.0612627
-0.0646489
-0.0575444
-0.0610204
-0.0666307
-0.075271
-0.0546713
-0.0518258
-0.0782309
-0.0593399
-0.0577477
-0.0761495
-0.0544177
-0.0773277
-0.0789652
-0.0792726
-0.0821214
-0.0733696
-0.0811078
-0.105525
-0.0783534
-0.08163
-0.081865
-0.0819785
-0.082203
-0.0789598
-0.0549344
-0.0773268
-0.0808654
-0.0820294
-0.0808036
-0.0790712
-0.0547713
-0.0775207
-0.0578787
-0.0765549
-0.0767323
-0.0689262
-0.0513464
-0.0513235
-0.0687961
-0.0684672
-0.0487788
-0.0514595
-0.0513311
-0.059414
-0.0684371
-0.0687125
-0.0689763
-0.0635535
-0.0758904
-0.0579373
-0.0474984
-0.0426999
-0.0328558
-0.0245845
-0.017976
-0.0130095
-0.015402
-0.0190261
-0.0189596
-0.0145971
-0.0162205
-0.0223361
-0.0202081
-0.0261394
-0.0262168
-0.0233672
-0.0306317
-0.0305747
-0.0261617
-0.0202767
-0.0261877
-0.021181
-0.0178614
-0.01296
-0.0153585
-0.0153559
-0.0111276
-0.0211855
-0.0243856
-0.0325613
-0.0423033
-0.0478508
-0.0588468
-0.0586412
-0.0588421
-0.0478189
-0.0376011
-0.0286294
-0.0274804
-0.0287365
-0.0353077
-0.0352308
-0.0273977
-0.0297019
-0.0222168
-0.0398697
-0.0361175
-0.0461733
-0.0462507
-0.037783
-0.037222
-0.0282758
-0.0208913
-0.015129
-0.0109508
-0.00826193
-0.00676279
-0.00754917
-0.00961261
-0.013151
-0.0182596
-0.0212492
-0.0250505
-0.03349
-0.0435171
-0.0481358
-0.0587452
-0.0561684
-0.0584739
-0.0534206
-0.0535271
-0.0632503
-0.0689722
-0.0657388
-0.0584726
-0.0631656
-0.0688141
-0.0659642
-0.0631531
-0.0698807
-0.0657597
-0.0697023
-0.038579
-0.046152
-0.0584934
-0.0460822
-0.0545252
-0.0643464
-0.0781881
-0.0809116
-0.0813239
-0.0860228
-0.0813497
-0.0868243
-0.0868228
-0.0867166
-0.0809867
-0.0818715
-0.0865438
-0.10252
-0.0828169
-0.0869443
-0.0933323
-0.0915825
-0.103065
-0.103119
-0.101535
-0.102805
-0.102667
-0.0689838
-0.0690354
-0.0489773
-0.0788493
-0.0588551
-0.068976
-0.0765194
-0.0274843
-0.0560277
-0.082331
-0.0234658
-0.0305888
-0.039432