/*--------------------------------*- C++ -*----------------------------------*\
| =========                 |                                                 |
| \\      /  F ield         | OpenFOAM: The Open Source CFD Toolbox           |
|  \\    /   O peration     | Version:  2306                                  |
|   \\  /    A nd           | Website:  www.openfoam.com                      |
|    \\/     M anipulation  |                                                 |
\*---------------------------------------------------------------------------*/
FoamFile
{
    version     2.0;
    format      ascii;
    arch        "LSB;label=32;scalar=64";
    class       volScalarField;
    location    "2.6";
    object      gradTx;
}
// * * * * * * * * * * * * * * * * * * * * * * * * * * * * * * * * * * * * * //

dimensions      [0 -1 0 1 0 0 0];

internalField   nonuniform List<scalar> 
5322
(
-0.0183877
0.000964099
0.00103902
-2.3526e-06
-7.10101e-05
-6.37239e-05
-4.63169e-05
-3.38871e-05
-2.65141e-05
-1.8324e-05
-1.19198e-05
8.00427e-05
0.000116922
-0.0016
-2.90728e-05
0.00293301
-0.00229237
5.55098e-06
-0.00184631
0.00152835
-0.00205209
0.00242214
-0.00256266
0.00354026
-0.00366206
0.00476003
-0.00479613
0.00657935
-0.00659441
0.00847194
-0.00805029
0.0114568
-0.00848343
0.0159061
0.00123596
0.0230751
0.0163549
-0.0064838
0.0179894
-0.00106634
-0.0170727
0.0171223
-0.00103706
-0.0182069
0.0181122
-0.00062002
-0.0193492
0.0170286
-0.00040461
-0.0203106
-0.0201573
-0.0289746
-0.00954839
0.0184247
-0.00121321
-0.0301264
-0.000920823
0.0286443
-0.000346588
-0.028639
-0.000124603
0.0278989
-0.000147724
-0.0281269
2.51447e-05
0.0275236
0.000404696
-0.0278561
0.0014416
0.0229647
0.00129257
-0.0222009
0.0252083
-0.0259902
0.0250104
-0.0254801
0.0255032
-0.0255121
0.0290597
-0.0212654
0.0100501
-0.0152693
-0.0102643
0.0161915
0.00137879
-0.0073704
0.0116716
-0.0321743
-0.0103621
0.035652
-0.00161064
0.000382588
0.000672442
0.00414502
0.0214824
-0.00436362
0.000188332
-0.00166013
0.0120125
-0.0284268
-0.0283739
0.0587916
-0.00166847
0.0166156
0.0271191
0.000482591
0.000276628
0.000223224
0.000111608
3.83408e-05
5.56734e-06
-7.59454e-06
-1.60535e-05
-2.38333e-05
2.41181e-05
-1.27947e-05
-0.000952322
-0.000925113
0.00011396
0.000579617
2.55877e-05
0.000862112
-0.00103387
-7.9562e-05
-0.000254312
0.00160723
0.00131166
0.000352231
0.00102967
0.000653427
0.000491976
0.00110621
0.000544301
0.000585305
0.00112535
0.000473276
0.000932023
0.00128013
0.00144459
6.10614e-05
-0.00107016
5.12757e-05
0.000729713
-0.000894887
-0.000972871
0.000153825
0.00038432
0.000203488
-0.000760516
-0.000837916
0.00017466
0.000231162
0.000284224
-0.000828224
-0.000780499
0.000176474
0.000144692
0.000460887
-0.000886781
0.00116533
-0.00259644
-0.00344733
0.00331865
-0.00426075
-0.000206207
-0.00260593
4.37026e-05
0.00240388
-0.000563178
0.00265745
0.00131147
0.00196346
-0.00311595
0.00117784
-0.0026885
0.00197643
0.00257044
-0.00350152
0.000204058
-0.00297588
0.00305298
0.00379637
-0.00468559
0.000162106
-0.00392767
0.00442424
0.00540644
-0.00650262
0.000250672
-0.00542968
0.00624507
0.00759067
-0.00902365
0.000347983
-0.00753973
0.00852316
0.010397
-0.0123572
0.000455988
-0.0103486
0.0111908
0.0137948
-0.0165741
0.000595323
-0.0138615
0.0140709
0.0176503
-0.0214232
0.000809408
-0.0176854
0.016594
0.0206778
-0.00387644
0.0114911
-0.028155
-0.0287134
0.0590707
-0.00245833
-0.00263428
0.000777467
0.00449862
0.0213793
-0.00327093
0.000405336
-0.00384947
0.0110084
-0.0286386
-0.0282349
0.0587135
-0.00213679
0.0166088
0.000163709
0.000445756
0.000266384
0.000146304
5.90937e-05
1.56999e-05
-3.13994e-06
-1.42179e-05
-2.16147e-05
2.39121e-05
-1.2116e-05
0.000749944
-0.000835418
0.000835319
-0.000750509
2.63948e-06
0.000749434
-0.000702085
-1.82861e-06
-0.000857198
1.11436e-06
-0.000746875
1.08437e-06
0.000703199
2.82911e-05
0.00079929
-6.63061e-05
-0.000866936
2.03689e-06
0.000857006
-4.35521e-07
4.65136e-07
0.00155388
-0.00280145
0.00280145
-0.00276547
0.0032046
-0.00369045
0.00446456
-0.00519241
0.00623377
-0.00729289
0.00869437
-0.0100995
0.0119351
-0.0136474
0.0159934
-0.017869
0.0207451
-0.022285
0.0255893
-0.0146745
0.000359844
0.014866
0.000427637
-0.0249222
0.0217171
0.000127633
-0.020116
0.017501
7.97187e-05
-0.015508
0.0133901
4.95766e-05
-0.0115772
0.00990567
3.0051e-05
-0.00843475
0.00714693
1.99685e-05
-0.00604193
0.00508845
1.68304e-05
-0.0043126
0.00363711
1.39054e-05
-0.00308066
3.53034e-06
0.0030851
-0.00363098
-1.28661e-05
-0.00319517
0.0027654
-5.59939e-06
-0.00156548
-0.000101528
0.00159061
-0.00290162
0.00307894
-0.00363945
0.00425031
-0.00502169
0.00596148
-0.0070081
0.00834055
-0.00968252
0.0114939
-0.0130609
0.0155087
-0.0170154
0.0203081
-0.020914
0.025168
-0.0144975
-0.00348974
0.00612951
0.000696614
-0.0234259
0.0189924
0.000173103
-0.0183703
0.0157575
-5.01379e-05
-0.0137306
0.0119638
-9.10191e-05
-0.0101729
0.00879013
-8.12223e-05
-0.00741735
0.00635043
-8.07166e-05
-0.00532052
0.00457003
-8.7709e-05
-0.00380257
0.00333299
-0.00011396
-0.00271957
0.00227255
3.4987e-05
-0.000786358
0.00132187
0.00218321
-9.42249e-06
0.000250812
-0.000401508
0.0011764
-0.00363402
0.00303621
-0.00425605
-0.00286704
-0.00356229
0.000218206
0.00210005
0.0023338
-0.00304506
0.0011344
-0.00271309
-0.000230364
0.000117104
-0.00105084
8.68264e-05
-4.33726e-05
-0.00109668
5.66192e-05
-0.000219385
-0.00277265
-0.00300762
0.00239526
-0.00345841
-6.4034e-05
0.00367214
-0.0046481
0.00531166
-0.00646336
-0.000234316
0.00750575
-0.00898404
0.0102961
-0.0123164
6.0408e-05
0.0136406
-0.0164579
0.0173406
-0.0209695
0.0043403
0.000767125
0.000240444
0.000282874
-8.07426e-05
9.32083e-05
0.0141379
-0.0168936
0.000702632
-0.013705
0.0130478
0.0180876
-0.0210502
0.00107938
-0.0185068
0.0146656
0.0294295
-0.00264115
0.00130164
-0.0308599
-0.0286546
0.0560574
-0.0037581
0.00061083
0.00109369
-0.0139332
0.00280185
0.00853909
-0.00886978
0.000605299
0.00707274
-0.00632257
3.20979e-05
0.00512044
-0.00477738
-5.19227e-05
0.0035234
-0.00338781
-0.000115705
0.00264219
-0.00235845
-0.000167574
0.00202859
-0.00140022
-0.000200732
0.00190556
0.00068542
0.000491691
-0.000103437
-5.21529e-05
0.000903729
-0.000383801
0.00457406
-0.00567471
0.00659771
-0.00788742
-0.00509963
-0.00664149
0.000254479
0.00433318
0.00545602
-0.0047726
0.000166918
-0.00368125
-0.000109204
-5.71429e-05
-5.72259e-06
-6.09924e-05
-7.63204e-05
0.00021872
0.000164398
0.000136891
-0.00058438
-0.000155696
0.00126805
0.00190489
0.00160742
0.000556435
0.00258863
0.000977242
0.000693707
0.000456386
-0.000266933
-0.000825813
-0.00112623
-0.000535534
0.000441736
-0.000722108
6.5251e-05
0.00119995
-0.00107736
0.00929874
-0.0109531
0.0128065
-0.0151079
-0.0098899
-0.0126853
0.000491349
0.00817258
0.0106277
-0.00924353
0.000360387
-0.00711925
-0.00014479
-5.02245e-05
-7.38824e-05
-0.00010646
-0.000265335
3.24513e-06
-5.88996e-05
-0.000185106
3.33383e-05
1.49607e-05
0.000988489
3.83187e-05
-8.95278e-05
-1.96203e-05
2.53633e-05
1.46007e-05
-7.27897e-05
0.000163214
-0.00187581
-6.00381e-05
-1.33808e-05
-6.31677e-06
-2.4957e-05
0.00369929
1.19754e-05
-0.00445265
0.00432331
-0.00507325
-9.6602e-06
0.00521556
2.30523e-05
-0.00621592
0.00606669
-0.0071166
6.64638e-07
0.00733813
3.61052e-05
-0.00866432
0.00848509
-0.00984952
1.54991e-05
0.0101823
5.52278e-05
-0.0118888
0.0116704
-0.0132924
4.06575e-05
0.0137908
7.31066e-05
-0.0159256
0.0156611
-0.0173439
8.69995e-05
0.0180672
3.36253e-05
-0.0206257
0.0203036
-0.0215241
0.000139768
0.0223637
-0.000176646
-0.0253562
0.0250008
-0.0147399
-3.06412e-05
0.0146201
-0.00100325
-0.00232025
-0.00193968
-0.00275267
-0.0285857
0.00620003
0.00437838
-0.00225016
-0.00454263
-0.00164617
-0.0246644
0.00553919
-0.00917667
-0.0128733
-0.00289374
-0.00388742
-0.00491858
-0.00266471
-0.00140668
0.000664472
-0.000798559
-0.00163362
-0.00154095
-0.00106335
-0.000831198
-0.000664251
-0.0001657
0.0015001
0.00165178
0.00164213
0.00189026
0.00243172
0.00231849
0.00174464
0.00175675
0.00117637
-0.00103881
0.000331109
-0.000119864
-8.3582e-05
0.000300672
-0.00090533
-2.05059e-06
-1.01437e-06
-2.37052e-06
1.19037e-06
-0.000575367
-0.000659375
-0.000654833
-0.000581063
0.000578738
-0.000482133
2.02071e-05
0.000660476
-0.00056034
-0.000561407
2.03626e-05
0.000656905
9.22898e-07
2.08314e-06
2.36468e-06
2.15893e-06
-2.22537e-05
2.12849e-05
-9.8153e-06
-4.38494e-06
7.23184e-06
2.78074e-05
6.67611e-05
7.50402e-05
-2.97461e-05
-0.000371478
0.000272685
-0.000258983
0.00194544
-0.0027354
0.0173879
-0.020336
0.0232929
-0.000274647
-0.0066721
-0.00121862
0.00185103
1.14249e-05
0.000386322
0.000698146
-0.00252026
-0.00448554
-0.00861175
-0.0198656
-0.0204295
-0.0473004
-0.0197349
-0.0169124
-0.000351311
-0.0065666
0.00591206
-0.0409971
-0.0249192
-0.0120319
0.0180287
0.00144126
0.000795175
-0.0185163
0.0195097
0.000126525
-0.00240321
-0.0202258
0.0195821
3.90992e-05
-0.00265727
-0.0197445
0.0195259
0.000161999
-0.0042796
-0.0188452
0.0139362
-0.0118192
0.0101792
0.00775814
0.0221194
-0.0104
-0.00581845
0.00326242
0.0126678
-0.0390132
-0.00194419
-0.0226897
0.0216046
0.0206335
0.0190666
0.0240741
0.0108194
0.00184875
0.00882848
0.0129612
0.0205582
-0.00750907
0.00183339
0.0125475
-0.0084976
0.000109096
0.00864455
-0.00675417
-1.70458e-05
0.00639036
-0.0049149
1.27481e-05
0.00472207
-0.00353566
1.5014e-05
0.00342356
-0.00255528
-7.94961e-06
0.0023916
-0.00197458
-0.000125558
0.00151675
-0.00180576
-0.000638058
6.01522e-05
-0.0021829
-0.00134534
0.000796624
-0.0022711
0.00276056
-0.00330997
0.000111004
-0.00308169
0.00289933
-2.83641e-05
-0.00158687
0.000102537
0.00156858
-0.00155117
7.92477e-06
1.11672e-05
4.16545e-06
4.6261e-06
9.07635e-06
1.38834e-05
3.92598e-05
5.8909e-05
9.42978e-05
-0.000322697
4.25939e-05
-0.00013279
0.00156529
-0.00160861
8.39126e-05
9.71544e-05
0.000528013
0.000535929
0.00602009
0.00773214
-0.000233568
-0.0054156
0.00625392
0.000350428
-0.00752653
0.00851378
0.000461031
-0.0103684
0.0111504
0.000605059
-0.0140133
0.0139776
0.000811822
-0.0181458
0.000200581
0.000510141
-0.00305496
-0.00304711
-0.00810266
-0.00417
-0.00242019
-0.00152438
-0.00107193
-0.000852188
-0.000681115
-0.000188646
0.00146583
0.00159692
0.00157209
0.00232091
0.00140598
-0.000188355
-0.000653456
-0.000855189
-0.0011043
-0.00154993
-0.00240347
-0.00410992
-0.00777951
-0.0179461
-0.0188369
-0.0325885
-0.0260632
-0.00862128
-0.0086012
0.016416
0.00177369
-0.00204574
-0.00163395
0.00776925
0.000274012
-0.00629857
-0.00602034
0.00618156
-8.43118e-06
-0.0069141
-0.00660939
0.00544653
4.74825e-07
-0.00858699
-0.00818718
0.00271513
-0.0117123
0.00799413
0.00776037
0.00810785
0.00709069
-0.0100459
0.000766646
0.00361008
-0.0116492
0.0026959
-0.0109297
0.0126052
-0.0277417
-0.00122691
-0.0267044
0.0199798
0.021221
0.0205759
0.0201795
0.0205206
0.0200758
-0.0289116
-0.00147747
-0.0260771
0.0169626
0.0181933
0.0170364
0.017964
-0.00122565
-0.0278185
-0.027636
0.0126391
0.020628
0.0189369
0.0181076
0.0225901
0.022314
0.0174375
0.00505125
0.0105931
0.00444692
-0.00244927
0.00427261
0.000907759
-0.00313346
0.00248911
0.000298636
-0.00254999
0.00187922
0.000194321
-0.00199062
0.00137573
0.000122924
-0.00145561
0.00104093
0.000105296
-0.00108104
0.000716374
2.62617e-05
-0.000809097
0.000488847
-7.17437e-05
-0.000752562
0.000203681
-0.000447678
-0.00112531
-0.000520799
-0.00158069
-0.00190862
-0.00192207
-0.00129317
-0.000938744
-0.00145402
-6.00159e-05
0.00107553
-0.000805447
8.01695e-05
0.000888205
-0.000884325
3.78305e-05
0.000924777
-0.000949401
-3.24956e-05
-6.62658e-05
-0.00168456
-5.83247e-06
-0.0028692
4.38804e-06
-0.00312467
2.02516e-05
0.00368319
-0.00373625
-2.1481e-06
-0.00428192
9.47535e-05
0.00506444
-0.00459767
8.9782e-05
0.0054142
8.1134e-05
-0.0063913
0.000121743
0.00751644
9.47839e-05
-0.0088134
0.000158876
0.0102496
6.12852e-05
-0.0118825
0.000192831
0.013613
5.69007e-05
-0.0155617
0.000245658
0.0175715
-0.000151283
-0.0195467
0.000423181
0.0217683
-0.000237601
-0.000668482
-0.027182
-0.0196839
0.000767622
0.0226463
-0.000309882
-0.0215604
-0.0149674
0.000644241
0.0185418
-0.000188019
-0.016641
-0.0114468
0.000408071
0.0142998
-0.000147889
-0.0124973
-0.00855483
0.000276617
0.0106732
-8.75007e-05
-0.00910919
-0.00624285
0.00017795
0.00775809
-6.47867e-05
-0.00649918
-0.00446319
8.00169e-05
0.00561859
-1.88243e-05
-0.00452468
-0.00316199
3.21788e-05
0.00422385
6.12135e-05
-0.00302124
-0.00214875
0.000210076
0.00361519
0.000416273
-0.000274546
0.000798422
-0.00134812
-0.00218985
6.3885e-05
-0.000647797
7.09543e-05
0.00191603
-0.000157095
2.85734e-05
-0.0015995
9.46988e-06
0.00287603
-0.00280782
-1.21896e-05
-0.00310379
0.000114834
-0.00335208
5.3452e-05
0.00388485
0.000131511
3.48603e-05
1.80785e-05
3.68565e-05
0.00324958
2.79082e-05
-2.41615e-05
-0.00070476
-1.91828e-06
0.000768203
1.10493e-06
2.95268e-06
3.82539e-06
-0.000119967
-0.000139154
-9.99069e-05
-0.00107418
5.15382e-05
-0.000217006
-6.45996e-05
-6.09005e-05
-6.4315e-05
0.00373577
0.00308428
-6.60767e-05
0.00022678
4.51147e-05
1.49502e-05
0.00211182
0.000210099
-0.00299539
0.00312147
0.000163055
-0.00392518
0.00445662
0.00025082
1.8189e-05
-0.000131849
-0.000142539
-0.000183202
-0.000190483
-0.000218345
-0.000201606
-0.000188804
-0.000135323
-0.000139037
-0.000136389
-7.34269e-05
-8.14096e-05
-0.00294629
0.00304765
0.00486632
-0.00567991
0.0068379
-0.00787256
-0.000118544
-0.0052611
7.99437e-06
0.00465776
-0.000120064
-0.003787
-7.64513e-05
0.00354178
1.46619e-06
0.000118959
-0.0028189
-0.0001104
0.00335802
-0.00363621
7.24929e-06
-0.00708606
-3.39827e-05
0.00826637
-0.00727155
1.23978e-05
-0.00866572
1.12762e-05
0.0101434
-0.0100104
3.12318e-06
-0.011598
7.62186e-06
0.0133966
-0.0137785
-3.20043e-05
-0.0151015
6.97126e-05
0.0171221
-0.0193857
-5.07571e-05
0.0214984
-0.0235997
-0.000309803
-0.000660455
-0.000118373
-2.78375e-05
2.12499e-05
3.03337e-05
2.8557e-05
2.79129e-05
2.85078e-05
-2.09902e-05
1.24589e-05
-0.000748564
0.000840164
-0.000828225
-0.000762817
7.44904e-06
6.47656e-06
-2.01095e-05
4.43156e-05
0.000722618
5.90979e-06
-8.14018e-06
-6.60933e-05
8.41542e-05
-7.62732e-05
-0.00105039
4.87093e-05
-0.000263898
0.0018679
0.000223313
-7.50472e-05
-5.48395e-05
3.41819e-05
-2.17844e-06
0.000556813
0.000565684
-1.67257e-05
0.000477088
0.000750614
-1.28478e-05
-1.59259e-05
-1.53638e-05
-4.61455e-05
3.44592e-05
-0.00085398
0.00248889
0.000125161
-0.00374998
-3.15803e-05
0.00426694
-0.00375606
-1.16229e-05
-0.00447863
3.45881e-06
-0.00516271
-2.24307e-08
-0.00611029
2.00949e-05
0.00720732
-0.00738777
-1.07757e-05
-0.00833265
9.96666e-05
0.00974613
-0.0113709
9.43301e-05
0.0131197
-1.64377e-06
1.2021e-05
1.57472e-05
1.80609e-05
1.7872e-05
2.32855e-05
3.03395e-06
4.24625e-07
-1.90258e-05
-1.90937e-05
-5.31911e-05
-7.92951e-05
-1.71558e-05
-1.84056e-05
4.44346e-06
4.46987e-06
7.02599e-06
8.79908e-06
1.19061e-05
1.62747e-05
1.86974e-05
2.04687e-05
2.92556e-05
3.4701e-05
0.000150251
0.000199702
-0.000490586
0.000292755
-0.000816731
0.00397704
-0.0238898
-0.00643499
0.00014941
-0.00220383
0.0110691
-0.0110661
-0.034037
-0.013065
-6.19497e-05
0.00330663
0.000223481
-0.0262314
-0.0114489
-0.00769785
0.015609
0.00174672
-0.00176811
-0.00298866
0.00842573
0.000271693
-0.00587269
-0.0072445
0.00723972
1.25645e-05
-0.00645018
-0.00760333
0.00673833
5.89792e-05
-0.00828002
-0.00862526
0.00167015
-0.000474369
8.23042e-05
8.94875e-05
0.0214611
-0.0194358
0.000276101
0.0179186
-0.000562144
0.000358931
-0.0226474
0.000434503
-0.014016
0.0159537
0.000159189
-0.0170705
-0.0298886
0.0230342
-0.00173376
0.00285936
0.00981534
-0.000130613
0.022856
0.0167782
0.0188467
-0.023
0.000709386
-0.0194424
-0.000107787
-0.0215113
0.000897367
-0.0206122
-0.000116098
-0.0207215
0.000944789
-0.0221287
0.0175362
0.0171796
-0.00115896
-0.0335969
-0.0269937
0.0124681
-0.0088099
0.0120138
0.00688805
0.00812774
-0.0108059
0.00300675
0.00231714
-0.0119889
0.0045411
0.00826122
-0.0101805
0.0169426
-0.00906
0.00146174
-0.00908616
0.00145149
-0.00981665
-0.00768213
0.00136409
-0.000635526
-0.000109653
-6.04883e-05
1.045e-05
4.37217e-05
4.13071e-05
3.29341e-05
2.90197e-05
2.85243e-05
-2.13648e-05
1.3214e-05
-0.000481593
0.000579431
4.89505e-06
0.000114606
8.19082e-05
6.62648e-05
-0.000802467
-5.05831e-05
0.000898824
-0.000727266
-0.00039008
0.000904747
-0.000937802
-0.00129771
-0.00145748
0.0010604
0.00107407
-6.19568e-05
-8.85493e-05
-0.000297604
3.64103e-05
0.00110444
-0.00019055
-0.000251023
-0.000168021
0.000831112
0.000832678
-0.000253243
-0.000187659
0.00104488
-0.000536476
-0.00116924
-0.000539766
0.00108744
-4.95367e-05
-5.82253e-05
-0.000119455
1.9182e-06
7.4003e-05
0.00191691
-0.000160382
7.89679e-05
-6.45089e-06
-1.03226e-05
-1.57844e-05
-2.27292e-05
-3.59926e-05
-6.59177e-05
-0.000125378
1.47229e-05
-5.99919e-05
9.59263e-05
-0.000774452
-0.000235224
0.000740213
-0.00138838
-0.000524191
-0.000540661
-0.0159181
0.0152959
-0.000449918
-0.000350049
0.000948551
-0.000617327
-0.00035494
0.00274656
0.00514425
0.00271741
0.0159593
-0.00757312
0.00163575
0.0109643
0.0126434
-0.00393366
0.0011465
-0.000156415
0.000801527
-0.000190829
6.61924e-05
-0.00129632
-0.000117028
5.56503e-05
2.18324e-05
1.46987e-06
-7.77043e-06
7.08569e-06
-1.00892e-05
1.54553e-05
2.35048e-05
1.64884e-05
9.31481e-05
0.000199603
0.000287087
0.000370535
0.000457729
0.000624202
0.000429405
0.000130416
0.00024005
0.000140396
6.41408e-05
2.7995e-05
2.37683e-05
1.43585e-05
3.19783e-05
3.46289e-05
-0.004247
0.00384306
-0.00453442
0.00534727
-0.00630842
9.58279e-05
-0.00593595
0.00502161
9.12957e-05
2.43289e-05
1.78867e-05
2.05055e-06
0.00363884
2.55341e-05
-2.58446e-05
0.000868638
-1.42861e-05
2.28487e-05
8.31496e-05
-0.000147198
0.000970951
0.000761937
-0.00032505
0.000130433
-2.24724e-06
-8.76427e-07
0.000486449
-1.62913e-05
-6.78433e-07
0.000339504
-0.00103936
0.000297804
4.30532e-06
0.000119544
8.70101e-05
9.40462e-06
-8.76018e-05
3.86204e-05
8.14617e-05
-0.000325689
-0.000299116
0.000974552
-0.00039173
-0.000725616
-0.000148809
0.000906557
-4.9337e-05
8.3549e-05
5.79451e-05
-3.29108e-05
2.11755e-06
2.43572e-05
5.8091e-05
5.75927e-05
3.36376e-06
5.04502e-05
6.0367e-05
8.67834e-05
1.9926e-05
1.38237e-07
2.26127e-05
-1.30735e-06
0.00701636
-0.00827833
0.0074329
-0.00872336
0.0101714
-0.0118256
0.0001711
-0.0113562
0.00970332
0.00012156
1.14763e-05
9.92599e-05
0.000116356
0.000141467
0.000132795
3.03188e-05
-1.91734e-06
2.77878e-05
2.7264e-05
4.23249e-05
3.17864e-05
4.81655e-05
0.000116557
0.000397716
0.000272345
0.00135049
0.000132482
6.11397e-05
2.72211e-05
5.85447e-06
-1.40606e-05
-5.75818e-06
-6.30516e-06
8.76444e-06
4.59305e-06
3.62121e-06
1.56599e-05
1.8172e-05
1.4653e-05
-3.75352e-06
-1.41218e-05
-6.24476e-06
-8.40776e-06
-7.33037e-06
3.8783e-06
7.64062e-06
1.29298e-05
2.03182e-05
2.63097e-05
4.00553e-05
3.26491e-05
3.86219e-05
7.40807e-05
6.31174e-05
4.24692e-05
0.000105595
0.00025511
9.06506e-05
0.000103467
0.00355029
-0.000640927
0.000375106
8.23133e-05
0.000291259
0.00761283
-0.000313246
-0.00110757
0.00600811
0.00201265
-0.0261728
-0.00947465
-0.0172053
0.0166674
-0.0117655
-0.0126207
0.0150281
-0.0183665
-0.000997699
-0.00137316
-0.0169522
0.0151147
-0.000157955
-0.000770267
-4.73103e-05
0.00029303
0.000401803
0.00636727
0.0021686
-0.0116636
-0.0106231
0.0182973
0.00168851
-0.0043248
-0.00131661
0.00725242
0.00019614
-0.00841593
-0.00547067
0.00550677
-1.90446e-05
-0.00876341
-0.00602314
0.00482353
-5.01424e-05
0.00767421
0.00743567
0.000434755
0.0101588
-0.0099194
7.19863e-05
-0.00811794
-5.78802e-05
-0.000153186
-2.3475e-05
6.26145e-06
1.70357e-05
1.52474e-05
1.10631e-05
7.31039e-06
3.84454e-06
-4.98903e-06
-1.6382e-05
0.000171738
-0.00388815
0.00444635
0.000253399
-0.00538388
0.00627676
0.00952828
-0.0109027
0.0130214
-0.0148984
-0.000155115
-0.0101538
0.000158575
0.00888676
-0.000141903
-0.0073402
6.85044e-05
0.0064422
-0.000425772
-0.000292128
-0.00561972
-0.000173855
0.00636213
-0.00704036
4.06304e-05
-0.013395
-1.71803e-05
0.0154747
-0.0135133
2.31029e-05
-0.0156279
3.04448e-05
-0.0175976
-3.01065e-05
-0.0196521
-6.12622e-05
0.0217867
-0.0226224
-1.05832e-05
0.0241504
-5.94909e-05
-0.0237603
0.0236822
-7.267e-05
-0.0220415
0.0222831
-0.0239871
-1.36982e-05
2.32578e-05
0.000121187
9.07205e-05
4.26824e-05
1.61758e-05
3.0161e-06
-6.63855e-06
-7.82696e-05
-9.23753e-05
-0.000185037
-0.000229173
-0.000199669
-0.00022881
-0.00747599
0.00857198
0.000469958
-0.0102523
0.0112805
0.0173238
-0.0200182
0.0222989
-0.0259888
0.000476322
-0.0200551
0.00192158
0.0157668
-8.45785e-05
-0.0140881
0.000508456
0.0120508
-0.000714797
-0.000294609
-0.0100819
-3.90343e-05
0.0117884
-0.0127282
0.000125743
-0.0227662
0.000101114
0.0256957
-0.0219951
-7.15484e-05
0.0239614
0.000177171
-0.027245
0.0159599
-2.19131e-05
-0.0165842
0.0145017
-0.017801
0.000609623
-0.00294556
-0.00147008
-0.00247614
-0.00417773
0.0189498
-0.0293065
0.00626681
-0.00633678
-0.00300328
-0.00172655
-0.00116215
-0.000849568
-0.000626926
-0.00037284
0.000340351
0.00481817
0.00232738
-0.00120623
0.000816427
0.000381602
0.00278899
-0.00243866
0.00251231
-0.000151412
-0.00165094
7.45403e-05
0.00312164
-0.00297225
-1.09693e-05
-0.00323742
1.76433e-06
-0.00368977
-1.33767e-06
-0.00436584
2.29781e-05
0.00514234
-0.00526122
-6.61687e-06
-0.00598521
8.99153e-05
0.00706765
2.81387e-05
1.38925e-05
0.00630697
2.40364e-05
0.00452491
-4.36165e-06
-1.46197e-05
-3.77083e-05
-0.000132872
1.64032e-05
0.00165027
0.000110478
0.000121798
0.000576755
0.00101536
-0.00164171
-6.93728e-05
-0.00266008
1.73902e-05
-0.00511329
-3.64874e-05
0.00590942
-0.00520154
2.62316e-06
-0.00623849
6.4554e-06
-0.00724214
2.91485e-06
-0.00850344
1.63472e-05
0.00995526
-0.0102168
-1.77988e-05
0.0119256
-5.63999e-06
6.43587e-06
0.00875806
-3.10642e-07
2.24877e-05
8.31493e-06
-1.23509e-05
0.00441977
-3.72761e-05
0.00320107
0.000196166
-9.23309e-06
0.0026358
2.33049e-05
0.00012166
-0.000184354
0.00316979
-0.000108546
-0.000178317
-0.00404095
-0.000149701
-0.00508715
1.89091e-05
-0.00982762
-3.08089e-05
0.0114369
-0.0100394
2.02777e-05
-0.0118073
1.91976e-05
-0.0134831
-5.38442e-06
-0.0153696
-1.56609e-05
0.0174549
-0.0180217
-5.01193e-05
0.020111
-4.0022e-05
-7.27138e-06
1.26716e-05
1.84068e-05
3.33931e-05
2.88421e-05
2.71272e-05
2.50043e-05
1.78631e-05
1.83409e-05
2.0135e-05
1.34556e-05
0.000135484
0.000211618
0.000290354
1.12702e-05
3.70789e-05
2.74374e-05
2.25484e-05
1.79889e-05
-1.22908e-06
1.54379e-05
-0.000151081
-0.003422
3.70057e-05
-0.00334911
0.00433238
0.000113125
-0.00484503
-0.00495989
0.0044142
0.00412829
0.000109648
-0.00462596
-0.00528897
0.00468158
-0.00362347
3.1629e-05
-0.00323843
0.00314097
0.00330353
0.00325651
0.00318113
3.88073e-05
-0.00356316
-0.00331128
-0.000151002
0.00420117
0.000116496
-0.00519455
-0.00474031
-0.000231725
0.005764
0.000245005
-0.00736249
-0.0066837
-0.00686118
-0.00702765
0.000247127
0.00595607
0.00607914
-0.000230335
0.0056544
0.000240288
-0.00651872
-0.0074998
0.00646409
-0.000238154
-0.00435637
-0.00652587
6.83245e-05
0.00379743
-0.000160222
-0.00309003
-0.00454889
1.84307e-05
0.00296393
0.00350577
-0.00226515
0.000196966
-0.00219918
-0.000205706
-0.00223279
0.000195339
-0.00219466
-0.000205376
-0.002238
0.000203077
-0.00223407
0.00346235
0.00299634
-0.000216323
-2.91111e-05
0.000194957
-0.00149201
-0.0016815
-0.00161339
-0.00179233
-0.00170584
-0.00171983
-0.00174226
-0.001521
-0.002334
-0.00177598
-0.00162068
-0.00167755
-0.0011306
-0.000472381
-0.000591691
0.00104293
-0.00117108
0.00285635
0.0028886
0.00286722
0.00287553
0.00298146
0.00277998
-0.00113022
0.000909667
-0.000469748
-0.00113102
-0.000594749
0.00110487
-5.67867e-05
5.93085e-05
6.02761e-05
0.000138325
0.000215152
-1.06316e-05
-0.000318285
0.00831472
0.000382957
-0.00944648
-0.00968111
-0.00895248
-0.0103349
0.000367295
0.00773232
0.0088635
-0.000325196
-0.00609186
-0.00917288
0.000169738
0.00520486
0.00779489
-4.83213e-05
0.000788188
-0.00110789
9.91403e-05
0.00109604
-0.00152702
0.000140393
0.00152561
-0.00202476
0.000252394
0.00228563
-0.00240256
0.000794307
0.00428231
0.000923672
0.00195991
-0.000441039
0.00104268
-0.000557252
0.000761256
-0.000465118
0.000590323
-0.000360853
0.000417452
4.62338e-05
-0.00081761
0.00563449
-1.49919e-05
0.000540623
-0.000748316
-5.74356e-05
6.48811e-05
-0.000327573
-0.000573107
0.000246812
6.45713e-05
-0.00303766
0.000199307
-0.00210784
-0.000217684
-2.49273e-05
0.000220013
-0.00119396
-0.00192221
-0.0018957
-0.00158348
-0.000512337
-0.00112928
-0.000439355
-0.000839289
-0.00256761
0.000417959
0.00361818
0.00276551
0.00300049
-0.00112801
-0.00243866
-0.00148597
0.000202179
0.000747816
0.000686979
0.000911821
0.00112381
0.00137828
0.000267132
-0.00833398
-0.0126314
0.0107291
0.00714755
-0.000496186
-0.000346987
-0.000193189
-0.000163339
0.000903744
0.00103827
0.00120717
-0.000642298
-0.000417969
0.011856
0.000502134
-0.0119293
-0.0138475
-0.0110393
-0.0170461
0.000360728
0.00965557
0.0144643
-4.70463e-05
0.000133402
7.08342e-05
4.62173e-05
8.30362e-05
0.000146742
-0.0152267
0.0136307
-0.0155759
-2.26184e-05
0.00028217
0.000193734
0.000108101
3.91614e-05
-2.86961e-06
0.0131109
4.2477e-05
7.32088e-06
0.0171702
0.000242452
-5.76686e-07
0.000368078
0.000436875
-7.45695e-05
1.13555e-05
3.91764e-05
1.67529e-05
2.69035e-05
-2.26085e-05
2.75677e-05
2.70342e-05
5.21629e-05
1.24351e-05
4.10989e-05
3.63427e-05
1.53418e-05
1.74656e-06
2.90603e-06
1.33659e-06
1.62756e-05
0.000352291
0.000589756
0.000428096
0.00034438
0.000348504
0.00038695
0.000196047
0.00019486
9.48975e-06
0.000125209
0.00264019
0.000270264
0.000485274
0.000478974
0.000567446
0.000572258
0.000662965
0.000516636
0.000527763
0.000754599
0.000725431
-0.0137163
0.0142316
0.000900086
-0.0173141
0.000471944
0.000282021
-0.00299444
-0.00399681
-0.0222221
-0.0233075
-0.0385423
0.00972949
0.00331036
0.018487
-0.00666678
0.010461
-0.00116269
-0.011821
0.0106989
-0.00025102
0.00756082
-0.000266979
0.0100628
-0.01107
-0.000907511
-0.000282305
-0.000343141
0.000141092
-0.00121153
0.00792939
-0.000356176
0.000415077
0.00025898
0.000138634
0.000146782
7.61832e-05
6.83229e-05
-0.000103605
-0.000116198
2.28468e-05
0.000195063
0.000968251
0.000156175
-2.92044e-05
-8.8052e-05
0.00817701
-0.00955335
8.03693e-05
-0.0177763
2.39823e-05
0.0203714
-0.0176117
6.79909e-06
-0.0199382
3.04593e-05
0.0197209
-6.90752e-06
8.7962e-06
2.02784e-05
4.06791e-05
9.03487e-05
0.000638437
0.000134615
4.95187e-05
2.46125e-05
1.06795e-05
1.01008e-05
9.08881e-06
6.7502e-06
4.31745e-06
0.00441339
7.1035e-06
0.0052213
3.67295e-06
0.00371267
0.00316219
1.13613e-05
0.00286283
0.00164368
4.32355e-05
7.90896e-06
-2.01437e-06
1.1107e-05
4.23391e-06
0.00617174
0.000110759
-0.000267525
0.00459234
-0.000164924
0.000136021
-0.00033985
0.00599695
-0.000188319
-0.000342002
-0.00763486
-0.000152043
0.00874367
-0.000414904
-0.000197165
0.000241819
0.000181009
1.99525e-05
0.00858897
1.63131e-05
0.00858267
3.32021e-05
5.00604e-05
0.011727
2.55355e-05
0.0136705
3.79873e-05
0.000119167
0.0155736
-0.000578361
0.0108558
-0.000364851
-0.000375955
-0.0132584
0.000219102
0.0138252
-0.0011233
0.000238656
-0.000347011
-0.00228783
-0.00584795
8.99065e-06
-0.000900863
-0.00038522
0.000246257
0.000243009
0.0199507
2.1946e-05
-3.53946e-05
-7.32253e-05
-6.57639e-05
-0.000347487
-1.62868e-05
4.81356e-05
3.99509e-05
0.0178434
0.0154763
-1.28721e-05
-1.65714e-06
-4.43917e-05
-0.000105587
-0.000135792
-0.000592341
-0.000204062
-0.000193752
-9.31557e-05
-3.28165e-05
0.0157728
-4.12994e-05
2.2174e-06
1.5821e-05
0.000288521
0.000196821
9.24811e-05
-0.000128795
-3.36636e-05
0.000377299
0.00047101
0.000624682
-8.56361e-05
0.000270577
0.000269306
-0.000500002
0.00238057
0.00529528
-0.00365255
0.024423
0.00160333
0.00065951
-0.000185685
0.00075891
0.00118728
0.00116834
0.00102406
0.000892267
0.000736813
0.000758591
0.000211301
1.21693e-06
-2.37451e-07
-0.00233394
-0.00117186
-0.00244
-0.0012012
0.000210472
0.000672143
-0.000197498
-0.000159911
0.0038584
0.00460918
0.000136429
1.50254e-05
1.7285e-05
2.41316e-05
1.85513e-05
2.4441e-05
5.12344e-06
-0.000117851
0.00105858
0.00278153
0.00015467
6.17877e-05
9.93142e-06
-2.38186e-06
1.61943e-05
1.68213e-05
1.70921e-05
1.84699e-05
-1.36467e-05
0.000210586
0.000286548
0.000295616
0.000375683
-6.07466e-05
-0.000529942
-0.012969
0.000542922
-0.0126229
0.0138337
0.000797204
-0.0163566
-0.0169148
0.0142195
0.013313
0.00069148
-0.0154098
-0.0180706
0.0152333
-0.000538478
0.0127235
0.0188909
6.19414e-05
6.57329e-05
-0.000813977
0.00167372
0.00198209
0.00226209
0.0055146
0.00683405
0.0134045
0.0314592
0.0035172
0.016429
0.0243517
-0.00191697
-0.00109538
0.00112186
0.00132061
-0.000744102
-0.000582011
0.0103422
0.0110906
0.0108401
0.0105175
0.000536084
-0.0135414
-0.0123212
-0.00054052
0.0135358
0.000802081
-0.017553
-0.016124
-0.000716242
0.0165335
0.0176263
0.015663
-0.000689279
-0.000158151
-0.00021486
-2.29193e-05
2.28775e-05
0.000102777
2.37433e-05
2.29567e-05
-3.6225e-05
-1.45784e-05
-0.000220354
0.00220087
-0.000247398
-0.000151631
-0.000346336
-0.000300219
-0.000186803
-0.000317699
-0.000143517
0.00596262
-0.000173256
0.000113031
2.51672e-05
7.68325e-06
0.000268687
0.000233873
-0.00259237
0.0133685
-0.00670763
-0.0241021
-0.0286469
0.0023974
-0.0135398
0.00571754
0.00184223
-0.00838686
-0.00926198
-0.000938727
-0.00138831
0.00908383
0.0084015
-0.000836674
-0.00824067
-0.000170788
0.0081861
-2.85486e-05
8.89556e-05
-2.92473e-06
8.39828e-05
0.000279905
0.000291466
0.000187391
4.72807e-05
3.57963e-05
-6.50409e-05
-5.87497e-05
1.80349e-06
-7.46889e-05
-2.97612e-05
-1.26627e-05
0.000363683
0.000445689
0.000447535
-0.000194423
0.000532893
0.000538663
-0.000418074
0.0224633
-0.00133535
0.00134877
-0.0249328
0.000511123
0.000304491
0.00296073
0.000355096
0.000626633
0.00198207
-0.000155791
-3.17829e-05
-0.000152086
0.000570277
0.00528059
-0.000349526
-0.000226638
-0.000133878
0.000111778
-0.0143495
0.0164864
-0.000591329
2.22156e-05
-0.000751097
-0.00174149
-0.00194871
-0.00036163
-0.000177258
0.00637335
-0.000195467
-0.000212347
-0.000402396
-7.5365e-05
-0.000246613
0.00565864
-0.00037616
-0.000177308
0.000578668
0.000464112
-1.22757e-05
-7.07316e-05
-4.76438e-05
-0.000138323
0.000113455
0.00047661
0.000605204
0.000556873
-0.000632531
0.00188166
0.00191786
0.00210182