/*--------------------------------*- C++ -*----------------------------------*\
| =========                 |                                                 |
| \\      /  F ield         | OpenFOAM: The Open Source CFD Toolbox           |
|  \\    /   O peration     | Version:  2306                                  |
|   \\  /    A nd           | Website:  www.openfoam.com                      |
|    \\/     M anipulation  |                                                 |
\*---------------------------------------------------------------------------*/
FoamFile
{
    version     2.0;
    format      ascii;
    arch        "LSB;label=32;scalar=64";
    class       volVectorField;
    location    "0.3";
    object      flux;
}
// * * * * * * * * * * * * * * * * * * * * * * * * * * * * * * * * * * * * * //

dimensions      [0 1 -1 1 0 0 0];

internalField   nonuniform List<vector> 
5712
(
(-0.435419 0.665855 0.505378)
(-0.563007 0.382653 1.63711)
(-0.986735 1.03248 0.4116)
(-1.49169 0.693747 1.66537)
(-1.52591 1.12898 0.29618)
(-2.63115 0.854066 1.66815)
(-1.12271 1.6664 0.432265)
(-2.83096 2.20953 2.39445)
(-0.885658 2.23838 0.522839)
(-1.94472 2.88988 3.24459)
(-1.32592 1.49686 0.539892)
(-2.0523 1.34105 2.47221)
(-1.15994 0.949081 0.541362)
(-1.58407 0.781272 2.11454)
(-0.521108 0.494825 0.565753)
(-0.614261 0.337854 1.92674)
(-1.05419 0.97608 0.335834)
(-1.19105 0.89318 0.215606)
(-1.32295 0.876175 0.911761)
(-1.31949 0.956139 0.544795)
(-0.972453 1.28367 0.313762)
(-1.12951 1.02067 0.161741)
(-1.42352 1.6035 0.92626)
(-1.25477 1.14869 0.44492)
(-0.384939 0.454897 0.408453)
(-0.316841 0.331508 0.326873)
(-0.480272 0.262116 1.29403)
(-0.351202 0.213021 0.996373)
(-0.909455 0.501845 0.308837)
(-0.779037 0.434176 0.25327)
(-1.53188 0.31983 1.26192)
(-1.18413 0.291728 1.00141)
(-1.16832 1.1024 0.725834)
(-1.2115 1.05816 0.314198)
(-1.39339 0.992258 0.623733)
(-1.36764 0.710552 0.284993)
(-0.549614 0.740769 0.317319)
(-0.416567 0.634227 0.713187)
(-2.60487 0.568843 2.23459)
(-3.46886 0.670013 0.588323)
(-1.74265 0.886651 0.810143)
(-2.12256 0.903443 0.248837)
(-3.27558 2.11443 2.69381)
(-4.25828 2.20791 0.708968)
(-1.73145 1.32502 0.700916)
(-1.99057 1.39917 0.212991)
(-2.04784 0.987645 1.70584)
(-2.87983 0.822108 0.520481)
(-1.87083 0.928906 0.868314)
(-2.43539 0.613821 0.291696)
(-1.14388 0.444896 1.57704)
(-1.78984 0.480639 0.493347)
(-0.239421 0.476407 0.612526)
(-0.0842915 0.804786 0.303468)
(-0.251658 0.252255 0.774695)
(-0.0941369 0.349452 0.315613)
(-0.715993 0.633844 0.660534)
(-0.302437 1.04963 0.354738)
(-0.96918 0.391702 0.747365)
(-0.373134 0.516169 0.301862)
(-0.737087 0.643291 0.782868)
(-0.292376 1.37941 0.46203)
(-0.744883 0.461695 0.629245)
(-0.254982 0.907739 0.292704)
(-1.23174 0.161674 0.887818)
(-0.41559 0.533171 0.337961)
(-1.5864 0.134103 0.300665)
(-0.564048 0.39737 0.111133)
(-1.46798 0.729042 0.845552)
(-0.786253 0.889078 0.570749)
(-1.40574 0.819791 0.505513)
(-0.844936 0.920599 0.344799)
(-1.23096 0.818105 0.758152)
(-0.784073 0.766681 0.580669)
(-1.14692 0.905093 0.412594)
(-0.79532 0.785339 0.309926)
(-1.25754 0.796483 0.558384)
(-0.810529 1.11106 0.382774)
(-1.23919 0.762778 0.83768)
(-0.716624 1.05972 0.57023)
(-1.49214 0.834407 0.319243)
(-0.92177 0.934243 0.215948)
(-1.51665 0.845809 0.142387)
(-0.928967 0.938708 0.111748)
(-1.25362 0.955873 0.254089)
(-0.839709 0.791028 0.190989)
(-1.28473 0.969511 0.108091)
(-0.838055 0.787341 0.100237)
(-1.36977 0.750743 0.357822)
(-0.905326 1.13656 0.233762)
(-1.42538 0.731836 0.168977)
(-0.928561 1.1486 0.107863)
(-1.35872 1.20601 0.558266)
(-0.667026 1.68861 0.331977)
(-0.777785 1.51532 0.454218)
(-1.04575 2.62092 0.600246)
(-1.33397 1.26836 0.792449)
(-0.729979 1.98335 0.608274)
(-0.689277 1.48125 0.674257)
(-1.04832 2.87242 1.01805)
(-1.45279 1.15007 0.355669)
(-0.659176 1.46928 0.185871)
(-0.861219 1.5335 0.259575)
(-1.05783 2.51298 0.340986)
(-1.5343 1.14445 0.166591)
(-0.673362 1.36478 0.0773392)
(-0.921423 1.56011 0.104879)
(-1.09664 2.49994 0.121855)
(-0.300599 0.50176 0.861184)
(-0.321131 0.675514 1.47987)
(-0.107483 1.31104 0.572169)
(-0.224288 2.37908 1.67576)
(-0.852262 0.590684 0.971515)
(-0.87926 0.682832 1.41186)
(-0.365695 1.62209 0.689187)
(-0.683199 2.60151 1.72382)
(-1.06258 0.680639 1.04801)
(-1.11144 0.677149 1.22358)
(-0.613871 1.96469 0.859074)
(-1.05074 2.74518 1.63809)
(-0.481916 1.06786 0.846574)
(0.0370717 0.895751 0.789219)
(-0.771212 1.14706 0.810763)
(-1.16725 1.35866 0.845742)
(-0.777182 2.47268 0.96801)
(0.0766227 0.858861 0.728121)
(-0.192425 1.01664 0.88985)
(-0.671561 1.13667 1.08236)
(-1.26957 1.17259 1.27304)
(-1.18999 2.88512 1.97656)
(-0.493091 0.792526 0.619574)
(-0.717989 0.935158 0.62438)
(-0.793911 1.04338 0.659641)
(-0.842816 1.38049 0.833542)
(-1.42767 3.28135 1.39921)
(-0.247535 0.146962 1.64678)
(-0.168126 0.16884 1.34087)
(-0.153692 0.297127 1.91855)
(-0.132051 0.834425 1.66846)
(-0.668866 0.203819 1.47966)
(-0.461576 0.218855 1.24785)
(-0.469693 0.397262 1.87135)
(-0.387573 0.876018 1.61392)
(-0.791338 0.280633 1.23053)
(-0.531699 0.213491 1.09865)
(-0.636662 0.516486 1.71776)
(-0.488652 0.924529 1.52639)
(-0.155793 0.742748 0.503029)
(-0.189012 0.586234 0.356753)
(-0.396389 0.833296 0.651354)
(-0.380376 0.644744 0.529284)
(-0.722305 0.930415 0.849283)
(-0.56717 0.663141 0.737412)
(-0.926199 0.806409 1.05603)
(-0.673361 0.586569 0.961182)
(-0.866433 0.63387 1.54309)
(-0.63687 1.00572 1.44125)
(-0.353878 0.705998 0.461599)
(-0.265604 0.558474 0.377027)
(-0.550525 0.854463 0.583432)
(-0.301541 0.696359 0.566196)
(-0.645885 0.919989 0.733002)
(-0.341294 0.723732 0.770986)
(-0.712548 0.935723 0.944505)
(-0.374022 0.731318 1.01149)
(-1.00389 0.655076 1.33557)
(-0.537052 0.972838 1.40251)
(-0.519046 0.871557 0.472556)
(-0.139066 0.889035 0.31547)
(-0.50193 0.863491 0.293605)
(-0.351703 0.913616 0.290886)
(-0.497618 0.720993 0.482945)
(-0.456962 0.662793 0.456568)
(-0.559323 0.705732 0.305866)
(-0.588871 0.681163 0.385849)
(-0.536143 0.950468 0.31995)
(-0.37153 0.899484 0.318053)
(-0.587783 0.961233 0.51217)
(-0.110874 0.883574 0.361033)
(-0.465999 0.848446 0.0859683)
(-0.546749 0.915646 0.17807)
(-0.45114 0.845884 0.0208865)
(-0.588699 0.917605 0.0503447)
(-0.556381 0.682814 0.142343)
(-0.73143 0.694637 0.242335)
(-0.560711 0.678008 0.0342191)
(-0.783976 0.695134 0.0709199)
(-0.493452 0.936296 0.0814426)
(-0.58808 0.883277 0.188627)
(-0.475345 0.935936 0.0182285)
(-0.626777 0.881331 0.0533825)
(-0.747571 0.96317 0.376918)
(-0.402056 0.873365 0.29906)
(-1.11288 0.648708 0.49471)
(-0.388395 0.827185 0.261694)
(-0.705088 0.97807 0.621212)
(-0.108117 0.867142 0.429833)
(-0.991363 0.642413 0.816033)
(-0.105364 0.843488 0.490234)
(-0.733577 0.957648 0.130041)
(-0.555293 0.855936 0.155468)
(-1.14796 0.662403 0.248457)
(-0.455691 0.824588 0.116621)
(-0.665473 0.952381 0.100527)
(-0.635993 0.838613 0.102403)
(-1.06816 0.681039 0.143773)
(-0.559561 0.818987 0.092705)
(-0.101645 0.0878594 0.972987)
(-0.0649856 0.0381488 0.533698)
(-0.0363933 0.0169777 0.161401)
(-0.0805155 0.0445483 1.10832)
(-0.053208 0.0164441 0.576543)
(-0.0320434 0.0108178 0.176685)
(-0.282813 0.125028 0.922023)
(-0.145845 0.0419546 0.518534)
(-0.0732594 0.019617 0.166471)
(-0.220964 0.0798113 1.07121)
(-0.110702 0.0401073 0.566217)
(-0.0561734 0.0188937 0.172855)
(-0.292676 0.117187 0.812808)
(-0.150418 0.0488147 0.455166)
(-0.0915147 0.0289855 0.140033)
(-0.268002 0.132091 1.01514)
(-0.126659 0.0631243 0.547285)
(-0.0754386 0.0346235 0.167858)
(-0.116734 0.386011 0.229152)
(-0.0529225 0.203267 0.127063)
(-0.0330697 0.111945 0.0379168)
(-0.258033 0.428209 0.392633)
(-0.101051 0.232536 0.232794)
(-0.0485261 0.131436 0.0727497)
(-0.33428 0.372699 0.569711)
(-0.134662 0.197569 0.339385)
(-0.0586615 0.113765 0.106704)
(-0.383126 0.324389 0.747197)
(-0.171574 0.154842 0.429329)
(-0.0898087 0.0839914 0.131633)
(-0.368202 0.201194 0.984161)
(-0.148047 0.0783511 0.542538)
(-0.0669069 0.0373513 0.169283)
(-0.31991 0.383176 0.262461)
(-0.160084 0.20523 0.146579)
(-0.0760203 0.108634 0.0485825)
(-0.279706 0.476604 0.413724)
(-0.140869 0.247645 0.266823)
(-0.0594414 0.128617 0.0934184)
(-0.337688 0.441218 0.577395)
(-0.158059 0.206354 0.371484)
(-0.0612172 0.100947 0.126464)
(-0.366674 0.354641 0.766955)
(-0.164531 0.148865 0.472825)
(-0.0617976 0.0706883 0.15553)
(-0.487422 0.211019 0.9956)
(-0.19201 0.0747044 0.555261)
(-0.0594282 0.0310073 0.179264)
(-0.485895 1.12569 0.0165037)
(-0.610839 0.9945 0.0777324)
(-0.415927 1.32043 0.123332)
(-0.507074 1.0648 0.163011)
(-0.64595 1.40489 0.127645)
(-0.857333 1.08429 0.120979)
(-0.622322 1.84844 0.30417)
(-0.819207 1.23111 0.262143)
(0.00739208 0.742076 0.0209698)
(-0.0163288 0.632878 0.02367)
(0.0246924 0.757225 0.0223538)
(-0.00379845 0.598567 0.0245986)
(-0.103215 0.854857 0.0133743)
(-0.0953172 0.68653 0.0345594)
(-0.048422 0.877013 0.0261516)
(-0.0253833 0.642357 0.0467776)
(-0.060449 0.857626 0.096188)
(-0.117099 0.796501 0.0479554)
(-0.38342 0.779067 0.127599)
(-0.507259 0.77716 0.0746794)
(-0.201331 0.882122 0.0560253)
(-0.133869 0.850106 0.0946584)
(-0.501229 1.18423 0.140514)
(-0.517548 1.2365 -0.00195214)
(-0.887624 1.41611 0.323726)
(-0.993469 1.50413 0.0494124)
(-0.00334622 0.902547 -0.117593)
(0.143327 0.972555 -0.0350519)
(-0.330441 0.80925 0.0394416)
(-0.314904 0.808176 0.00219072)
(-0.251549 0.884336 -0.000481235)
(-0.190042 0.929891 -0.0212749)
(-0.0323588 0.422289 0.209361)
(-0.016002 0.182806 0.0669309)
(-0.027367 0.40809 0.0542104)
(-0.014663 0.206055 0.0241421)
(-0.0770958 0.444761 0.217112)
(-0.0122792 0.184221 0.0689187)
(-0.01756 0.419032 0.0699314)
(0.00327735 0.203234 0.0296757)
(-0.302466 0.459376 0.223588)
(-0.0612038 0.184389 0.073404)
(-0.230451 0.443932 0.098083)
(-0.0562843 0.217085 0.0437163)
(-0.307821 0.445908 0.0608357)
(-0.0783006 0.230371 0.025977)
(-0.36482 0.461173 -0.00194328)
(-0.0893568 0.224957 0.00166863)
(-0.436276 0.700896 0.454722)
(-0.438889 0.514006 0.357588)
(-0.406971 0.744625 0.206231)
(-0.433821 0.529971 0.181899)
(-0.748342 0.843842 0.605953)
(-0.66306 0.680282 0.509964)
(-0.728552 0.915833 0.295894)
(-0.636839 0.696656 0.252792)
(-0.241262 0.661466 0.139725)
(-0.281107 0.377982 0.123223)
(-0.271708 0.649347 0.315066)
(-0.275726 0.361622 0.224302)
(-0.430296 0.796378 0.108931)
(-0.42574 0.535547 0.101302)
(-0.464013 0.82029 0.0380149)
(-0.42421 0.528128 0.0515178)
(-0.773275 0.986699 0.169768)
(-0.635205 0.704136 0.146174)
(-0.809224 1.00367 0.0693018)
(-0.631878 0.695782 0.0759297)
(-0.242493 0.681072 0.0659968)
(-0.275615 0.383271 0.068257)
(-0.255097 0.688795 0.0158252)
(-0.274719 0.37825 0.0359065)
(-0.00889011 0.350315 0.0916571)
(-0.0191951 0.173456 0.0375245)
(-0.159194 0.245675 0.0779698)
(-0.0550906 0.125903 0.0314295)
(-0.00363094 0.305911 0.158314)
(-0.0130721 0.147427 0.0539611)
(-0.14475 0.229036 0.12609)
(-0.0476755 0.114811 0.0473572)
(-0.0180396 0.370475 0.0404127)
(-0.0239071 0.188313 0.0212186)
(-0.162682 0.251431 0.0432739)
(-0.059636 0.12978 0.0168875)
(-0.0237069 0.373577 0.00418299)
(-0.0254526 0.194774 0.00478638)
(-0.159897 0.248098 0.0218051)
(-0.0595096 0.128472 0.00635691)
(0.00835486 0.0505928 0.225223)
(0.00927479 0.0203722 0.107311)
(-0.00531648 0.0802573 0.0768769)
(-0.000474299 0.0366369 0.0551253)
(0.0440621 0.0523065 0.23168)
(0.0377596 0.0238613 0.117801)
(-0.00111998 0.0836517 0.076809)
(0.00488701 0.042569 0.0556527)
(-0.0052366 0.0627979 0.260005)
(0.0173405 0.0362849 0.14223)
(-0.028453 0.0916509 0.079244)
(-0.0124254 0.0556687 0.0580232)
(0.250185 0.30136 0.484617)
(0.324857 0.560706 0.648687)
(0.104477 0.196581 0.349839)
(0.065778 0.172102 0.174777)
(0.00732472 0.10258 0.0567339)
(0.352628 0.507 0.561142)
(0.275089 0.289452 0.413315)
(0.0746467 0.137471 0.298898)
(0.0929032 0.1322 0.184286)
(0.0146217 0.0761358 0.0669965)
(-0.40518 0.58238 0.536201)
(-0.279037 0.396099 0.383956)
(-0.191609 0.272687 0.238715)
(-0.129088 0.178759 0.13409)
(-0.0441573 0.0935247 0.0466813)
(0.00565774 0.00733949 0.0545405)
(0.00330558 0.00250222 0.0277006)
(0.000579027 0.0175522 0.0354249)
(0.000724768 0.00991603 0.0227303)
(0.0209684 0.0096468 0.0653893)
(0.0126736 0.00319151 0.0328966)
(0.00275143 0.0227745 0.0388877)
(0.0024403 0.013245 0.0251544)
(0.0213508 0.0176302 0.0874874)
(0.018422 0.00696102 0.0462913)
(-0.00348288 0.0329994 0.0453467)
(-0.000324846 0.0197446 0.0300612)
(0.120006 0.452354 0.382132)
(0.0243977 0.3437 0.23223)
(0.150386 0.242776 0.276902)
(0.0596603 0.172108 0.15498)
(0.0383679 0.123876 0.164943)
(0.0157878 0.0862261 0.099494)
(0.037742 0.092661 0.110604)
(0.0206084 0.0536178 0.0659477)
(0.000224662 0.0529022 0.0474432)
(-0.00215746 0.0316181 0.0346917)
(-0.156543 0.457526 0.322204)
(-0.0781424 0.326292 0.237563)
(-0.0710055 0.291803 0.223795)
(-0.00598625 0.186065 0.155774)
(-0.0447076 0.187816 0.144579)
(-0.00416653 0.111691 0.0992527)
(-0.0308897 0.118412 0.0877844)
(-0.00575378 0.066845 0.0615064)
(-0.0105754 0.0686932 0.0353643)
(-0.00522454 0.0443309 0.0322261)
(-0.171203 0.332594 0.206112)
(-0.109164 0.188895 0.117282)
(-0.284445 0.347708 0.126412)
(-0.140608 0.197994 0.069149)
(-0.298965 0.477282 0.335213)
(-0.210051 0.313595 0.213496)
(-0.425221 0.490732 0.214049)
(-0.264235 0.329968 0.149051)
(-0.17302 0.238371 0.0776638)
(-0.0814778 0.128385 0.041035)
(-0.0988002 0.222102 0.121937)
(-0.0653156 0.119445 0.0712043)
(-0.323498 0.353842 0.108366)
(-0.128652 0.200516 0.046925)
(-0.344749 0.350322 0.0256734)
(-0.139477 0.199158 0.0117099)
(-0.463102 0.493316 0.144072)
(-0.27288 0.34482 0.0926029)
(-0.483338 0.488045 0.0334339)
(-0.291624 0.343713 0.0249793)
(-0.203475 0.246815 0.0720725)
(-0.0727083 0.129902 0.0283144)
(-0.219413 0.244381 0.0178946)
(-0.0801199 0.129753 0.00709994)
(-0.0925969 0.14906 0.0409086)
(-0.0483805 0.0777397 0.0271128)
(-0.0284825 0.0829537 0.0167771)
(-0.0283761 0.0543166 0.0177252)
(-0.0602419 0.13858 0.0637807)
(-0.0414394 0.071358 0.0415755)
(-0.0237597 0.0785598 0.0232014)
(-0.0258825 0.0492414 0.0228442)
(-0.104305 0.156886 0.0402134)
(-0.0475497 0.0801472 0.0183667)
(-0.0307006 0.0849499 0.011692)
(-0.0322058 0.0568299 0.0116087)
(-0.123175 0.15876 0.0069187)
(-0.0503962 0.0797426 0.00251564)
(-0.0442959 0.0884534 -0.00622233)
(-0.03253 0.0570813 -0.00102654)
(0.00147854 0.00226461 0.0128717)
(0.000771214 0.00121392 0.00443967)
(0.000594156 0.000633716 0.00109971)
(0.000115873 0.0119405 0.0111687)
(0.000229403 0.00329891 0.002901)
(0.000185176 0.00160441 0.00068069)
(0.00600191 0.00209059 0.0160428)
(0.00337572 0.001485 0.00576404)
(0.00222975 0.00083735 0.00150725)
(0.000489456 0.0141504 0.012707)
(0.000758902 0.00427024 0.00346857)
(0.00056474 0.00220465 0.000838984)
(0.0104469 0.00437761 0.0221472)
(0.0059868 0.00311267 0.00832177)
(0.00362528 0.00196037 0.0021126)
(-0.00128656 0.0182128 0.0155385)
(0.000828058 0.00623623 0.00439723)
(0.000768019 0.00335285 0.00103755)
(0.000145655 0.214728 0.130818)
(0.0023236 0.115362 0.0658808)
(-0.000694173 0.0660328 0.0185566)
(0.0170757 0.104067 0.0786578)
(0.0131704 0.0562703 0.0353886)
(0.00801803 0.0330853 0.00983295)
(0.00839248 0.0522989 0.0504477)
(0.00729744 0.0279486 0.0211093)
(0.00506785 0.0168411 0.00579561)
(0.0106267 0.0295155 0.0318864)
(0.00694425 0.015049 0.0121467)
(0.00442369 0.00873735 0.00303366)
(-0.00365921 0.0250412 0.0184873)
(-9.80422e-07 0.00920473 0.00522262)
(0.000323893 0.00485773 0.00113185)
(-0.0799303 0.201981 0.153283)
(-0.0327145 0.103305 0.0726969)
(-0.0129232 0.0540198 0.0217019)
(-0.00909279 0.104138 0.0937124)
(0.000912976 0.0504998 0.0395217)
(0.00299351 0.026381 0.0109357)
(-0.00575827 0.0582513 0.0579713)
(0.00185456 0.0267321 0.0232697)
(0.00289068 0.0139356 0.00617586)
(-0.00370795 0.0359688 0.0350372)
(0.00152822 0.0157691 0.0130785)
(0.00196323 0.00783956 0.00327041)
(-0.0067875 0.0355322 0.0204365)
(-0.000156632 0.0113058 0.00538716)
(0.000465701 0.00528691 0.00123391)
(-0.000438408 0.0599473 0.0160771)
(-0.000121727 0.0174215 0.00348382)
(-3.3218e-05 0.00486321 0.000634928)
(-3.54256e-06 0.00121369 8.58303e-05)
(0.00120682 0.0702739 0.00661256)
(0.000282183 0.020066 0.00146947)
(0.000106256 0.00546381 0.000280764)
(3.74479e-05 0.00132678 4.46415e-05)
(-0.00163907 0.0598804 0.0164799)
(-0.00044112 0.0173129 0.0036153)
(8.89982e-06 0.00483706 0.000689731)
(3.79722e-05 0.00120806 0.000111526)
(0.00118739 0.0713561 0.00761358)
(0.000238863 0.0205784 0.00171671)
(0.000273425 0.00571573 0.00042823)
(0.000113834 0.00141201 0.000104022)
(-0.00467008 0.0593079 0.0169762)
(-0.00104839 0.0168482 0.00375189)
(-1.15501e-05 0.00498894 0.000831122)
(9.1217e-05 0.00130816 0.000178693)
(-0.00282229 0.0732127 0.0110601)
(-0.000600567 0.0207145 0.00254099)
(-8.93401e-06 0.00613844 0.000414333)
(3.30358e-05 0.0016033 5.35795e-05)
(-0.00327986 0.0799767 0.00515368)
(-0.000592133 0.0222264 0.00130628)
(-0.000133283 0.00595815 5.2279e-06)
(-3.31682e-05 0.00143493 -6.24104e-05)
(-0.00431916 0.0803813 0.00122483)
(-0.000848233 0.0226279 0.000511481)
(-6.63802e-05 0.00584766 5.27657e-05)
(1.39319e-05 0.00138125 2.79265e-06)
(-0.0114501 0.0608295 0.011342)
(-0.00246461 0.0179163 0.00269284)
(-0.00052863 0.00536899 0.000439841)
(-9.92664e-05 0.00140554 8.76757e-06)
(-0.0128891 0.0451049 0.0080245)
(-0.00272315 0.0138873 0.00185454)
(-0.000674977 0.00432194 0.000445377)
(-9.09547e-05 0.00117908 5.90807e-05)
(-0.00836411 0.0513979 0.0151391)
(-0.00176493 0.0153968 0.00343515)
(-0.000299942 0.00482911 0.000731383)
(1.07157e-05 0.00135446 0.000122824)
(-0.0106335 0.0412765 0.0115972)
(-0.00220948 0.0128825 0.00258548)
(-0.000630681 0.00408582 0.000623233)
(-0.000111659 0.0011468 7.68311e-05)
(-0.0120021 0.0666667 0.00687793)
(-0.00257121 0.0195934 0.0017297)
(-0.000426297 0.0055999 0.000295055)
(-4.00877e-05 0.00139809 2.18782e-05)
(-0.014189 0.04697 0.00476574)
(-0.00304385 0.0144926 0.00115574)
(-0.000715655 0.00441148 0.00030139)
(-8.0648e-05 0.00118293 5.609e-05)
(-0.0121849 0.0689261 0.00232538)
(-0.00264978 0.0203854 0.000681508)
(-0.000391297 0.00570515 0.00013787)
(-1.4435e-05 0.00141956 3.10844e-05)
(-0.0147267 0.0472195 0.00162414)
(-0.00321097 0.0147654 0.000446276)
(-0.000756408 0.00448444 0.000134205)
(-9.26838e-05 0.00121558 3.70625e-05)
(-0.000340952 0.0394941 0.0187964)
(-0.000111446 0.0131299 0.00411833)
(-2.38545e-05 0.0040159 0.000793062)
(2.84204e-07 0.00108055 0.000107096)
(9.12521e-05 0.0230223 0.01556)
(-2.43763e-06 0.00884272 0.00353853)
(-2.39202e-05 0.00304661 0.000873946)
(-2.06586e-06 0.000889485 0.000141858)
(-0.000445508 0.0393127 0.018497)
(-0.000203823 0.0129859 0.00404942)
(-5.96583e-06 0.00399871 0.000780233)
(2.20477e-05 0.00108466 0.000101632)
(0.000682515 0.0241643 0.0152098)
(8.87739e-05 0.00905382 0.00343007)
(-3.25661e-05 0.00308838 0.000861367)
(1.75996e-06 0.000900824 0.000135793)
(-0.00466607 0.0404503 0.0178193)
(-0.00113566 0.0129441 0.00388107)
(-0.000207498 0.00408293 0.000852551)
(-7.32963e-06 0.00112848 0.000141668)
(-0.00250207 0.0278857 0.0146522)
(-0.00062356 0.00977132 0.00323967)
(-0.000186238 0.0032545 0.000877618)
(-1.36065e-05 0.00093504 0.000152258)
(-0.00273612 0.0389974 0.014276)
(-0.00058638 0.0122241 0.00316572)
(-7.34659e-05 0.00392857 0.00080858)
(3.28145e-05 0.00113166 0.00019714)
(-0.00119207 0.0311531 0.0158954)
(-0.000287602 0.010262 0.00346972)
(-0.000174616 0.00345744 0.00105335)
(-2.12817e-05 0.000992723 0.000202177)
(-0.00902165 0.035569 0.0115399)
(-0.0018786 0.0114985 0.00254613)
(-0.000549815 0.00374834 0.000686729)
(-6.28526e-05 0.00109371 0.000118897)
(0.00025778 0.0125944 0.00993128)
(5.82275e-05 0.00606775 0.00225111)
(6.36676e-06 0.00204429 0.00064628)
(5.25868e-06 0.000448368 0.000131964)
(0.000587184 0.0062816 0.00349097)
(0.000147937 0.00478168 0.000774588)
(3.06713e-05 0.0016579 0.000200271)
(7.20096e-06 0.000370966 5.23213e-05)
(0.000420528 0.0141883 0.0106186)
(9.27352e-05 0.00650106 0.00236863)
(-1.81136e-05 0.00216138 0.000665174)
(5.10225e-06 0.000481123 0.000132252)
(0.00156498 0.00747163 0.00378597)
(0.00039111 0.00518958 0.000827539)
(7.03261e-05 0.00175467 0.000215075)
(1.61879e-05 0.000389948 5.66948e-05)
(-0.000306892 0.0177424 0.0114352)
(-5.37468e-05 0.00734068 0.00247973)
(-7.52255e-05 0.00232837 0.000697793)
(-2.41069e-06 0.000500759 0.000136253)
(0.00208826 0.0100171 0.00412642)
(0.000527179 0.0059533 0.000876854)
(9.20322e-05 0.00190329 0.000226034)
(2.03932e-05 0.000413068 6.04713e-05)
(-0.00177544 0.0227217 0.010798)
(-0.000298628 0.00842207 0.00230733)
(-0.000141557 0.0026139 0.000702062)
(-8.50268e-06 0.000565427 0.000135641)
(0.00162344 0.0136278 0.0042619)
(0.000489594 0.00691522 0.000883864)
(7.76499e-05 0.0021179 0.000244993)
(1.64709e-05 0.000453954 6.44787e-05)
(-0.00465686 0.0268661 0.00984974)
(-0.000812212 0.00947489 0.00211693)
(-0.000325071 0.002964 0.000650196)
(-4.88467e-05 0.000663123 0.000127104)
(0.000219602 0.016305 0.00385088)
(0.000274181 0.00778766 0.000820757)
(1.65431e-05 0.00232133 0.000250405)
(4.08982e-06 0.000492441 6.47278e-05)
(-0.00922437 0.0302654 0.00564269)
(-0.00169988 0.010601 0.00121562)
(-0.000500478 0.00312319 0.000307921)
(-8.06817e-05 0.000665863 6.09373e-05)
(-0.0029915 0.0181733 0.00271608)
(-0.000440603 0.00885756 0.00061673)
(-0.000116966 0.00264589 0.000160862)
(-2.6563e-05 0.000554182 4.21488e-05)
(-0.00737629 0.0290884 0.00754015)
(-0.00128755 0.0101745 0.00159899)
(-0.000437154 0.00304666 0.000451075)
(-7.69548e-05 0.000657282 9.02745e-05)
(-0.00186496 0.0169709 0.00330141)
(-0.000149842 0.00843298 0.000727061)
(-5.82701e-05 0.00249952 0.000209467)
(-1.21929e-05 0.000524585 5.54423e-05)
(-0.010441 0.0307005 0.00351451)
(-0.00199569 0.0107956 0.000775319)
(-0.000553559 0.00308589 0.000189846)
(-9.10463e-05 0.000632199 4.12545e-05)
(-0.00371085 0.0185281 0.00170631)
(-0.000624997 0.00909908 0.000403236)
(-0.000146349 0.00269181 9.64672e-05)
(-3.52717e-05 0.000558948 2.71488e-05)
(-0.0110702 0.0313395 0.00127292)
(-0.0021737 0.0109305 0.00030735)
(-0.000590644 0.00311739 8.93646e-05)
(-0.000105424 0.000637474 2.4228e-05)
(-0.00416728 0.019009 0.000637647)
(-0.000742221 0.00923066 0.000170694)
(-0.000168012 0.00273083 4.68468e-05)
(-4.13796e-05 0.000566714 1.44875e-05)
(2.13958e-06 0.000291665 1.4794e-05)
(6.52904e-07 8.31009e-05 2.44731e-06)
(1.61536e-07 2.21985e-05 4.07099e-07)
(3.70921e-08 5.53176e-06 7.02499e-08)
(9.52604e-09 1.03184e-06 1.45785e-08)
(5.52139e-06 0.000306639 6.69014e-06)
(1.21474e-06 8.554e-05 1.12691e-06)
(2.72902e-07 2.26072e-05 1.92526e-07)
(6.03412e-08 5.60071e-06 3.41352e-08)
(1.52244e-08 1.04179e-06 7.267e-09)
(4.95444e-06 0.000295696 1.71276e-05)
(1.33861e-06 8.52234e-05 2.89026e-06)
(3.39021e-07 2.2686e-05 5.15218e-07)
(7.9624e-08 5.63601e-06 9.65137e-08)
(2.07569e-08 1.04946e-06 2.16864e-08)
(9.34083e-06 0.000320815 9.91438e-06)
(2.1958e-06 8.84071e-05 1.72932e-06)
(5.26856e-07 2.32061e-05 3.34662e-07)
(1.2079e-07 5.72922e-06 6.73119e-08)
(3.11423e-08 1.06381e-06 1.59774e-08)
(4.86599e-06 0.000311409 1.80512e-05)
(1.3952e-06 8.75599e-05 3.16095e-06)
(3.77934e-07 2.31635e-05 6.10392e-07)
(9.17971e-08 5.74292e-06 1.22612e-07)
(2.43834e-08 1.0683e-06 2.91148e-08)
(8.7146e-06 0.000343735 1.48267e-05)
(2.50032e-06 9.08002e-05 3.49051e-06)
(6.35674e-07 2.37285e-05 7.8204e-07)
(1.493e-07 5.85143e-06 1.70914e-07)
(3.90165e-08 1.08574e-06 4.28308e-08)
(1.2619e-06 0.000332987 9.86051e-06)
(8.26917e-07 9.27828e-05 2.89008e-06)
(2.47884e-07 2.43885e-05 6.97555e-07)
(6.22271e-08 6.01215e-06 1.58678e-07)
(1.68889e-08 1.11459e-06 4.09047e-08)
(-3.44725e-07 0.000334137 7.45205e-06)
(1.42093e-07 9.45212e-05 2.33067e-06)
(8.09106e-08 2.49907e-05 6.10466e-07)
(2.5409e-08 6.17109e-06 1.47277e-07)
(7.72518e-09 1.14443e-06 3.9702e-08)
(1.03585e-07 0.000326761 1.28217e-05)
(1.02485e-06 9.05264e-05 2.90481e-06)
(3.32424e-07 2.38556e-05 6.32272e-07)
(8.49153e-08 5.90066e-06 1.36233e-07)
(2.31114e-08 1.09609e-06 3.39274e-08)
(-1.77571e-06 0.000305209 9.74201e-06)
(1.87095e-07 8.92665e-05 2.26426e-06)
(1.03264e-07 2.38896e-05 5.16608e-07)
(2.95801e-08 5.94068e-06 1.15121e-07)
(8.44374e-09 1.10556e-06 2.93411e-08)
(6.52992e-06 0.000320522 1.62366e-05)
(1.96606e-06 8.82816e-05 3.02811e-06)
(4.99878e-07 2.33827e-05 6.11231e-07)
(1.16772e-07 5.80218e-06 1.26805e-07)
(3.0363e-08 1.07954e-06 3.08251e-08)
(-7.50981e-08 0.000301444 1.02755e-05)
(4.47895e-07 8.79601e-05 2.49875e-06)
(1.43837e-07 2.35427e-05 5.75516e-07)
(3.62698e-08 5.85917e-06 1.28131e-07)
(9.77459e-09 1.09105e-06 3.24978e-08)
(-3.02902e-06 0.00032575 1.06918e-05)
(9.36118e-08 9.21318e-05 2.59202e-06)
(1.22075e-07 2.43978e-05 5.89933e-07)
(3.95059e-08 6.03593e-06 1.31018e-07)
(1.19012e-08 1.12066e-06 3.34153e-08)
(-1.9801e-06 0.000309593 8.19636e-06)
(8.39874e-09 9.0642e-05 1.98596e-06)
(6.05567e-08 2.43153e-05 4.74447e-07)
(2.06059e-08 6.04963e-06 1.09721e-07)
(6.31487e-09 1.12575e-06 2.88081e-08)
(-4.10218e-06 0.000334616 6.74754e-06)
(-4.11355e-07 9.39749e-05 1.83235e-06)
(-3.8936e-09 2.49267e-05 4.69734e-07)
(1.18647e-08 6.17431e-06 1.13471e-07)
(5.10242e-09 1.1469e-06 3.07661e-08)
(-2.97242e-06 0.000317541 5.75204e-06)
(-2.90518e-07 9.23307e-05 1.47988e-06)
(-1.41713e-08 2.47547e-05 3.75337e-07)
(3.60445e-09 6.16209e-06 9.09541e-08)
(1.98786e-09 1.14711e-06 2.48055e-08)
(1.49754e-06 0.000273685 1.4823e-05)
(5.24266e-07 8.00648e-05 2.27335e-06)
(1.31711e-07 2.17041e-05 3.63412e-07)
(2.99306e-08 5.45185e-06 6.08953e-08)
(7.58034e-09 1.02071e-06 1.23114e-08)
(2.32942e-06 0.00025025 6.64249e-06)
(6.08964e-07 7.7589e-05 9.40425e-07)
(1.36553e-07 2.13565e-05 1.46365e-07)
(2.90713e-08 5.39839e-06 2.42647e-08)
(7.04793e-09 1.01341e-06 4.87355e-09)
(5.37813e-06 0.000278248 1.59721e-05)
(1.42739e-06 8.17174e-05 2.58491e-06)
(3.36924e-07 2.20935e-05 4.38828e-07)
(7.51518e-08 5.53523e-06 7.86326e-08)
(1.89145e-08 1.03469e-06 1.70146e-08)
(7.07213e-06 0.000255215 7.07101e-06)
(1.63736e-06 7.90414e-05 1.06699e-06)
(3.53586e-07 2.16886e-05 1.76662e-07)
(7.45487e-08 5.46833e-06 3.11988e-08)
(1.80678e-08 1.02499e-06 6.67284e-09)
(3.52092e-06 0.000288971 1.58857e-05)
(1.29659e-06 8.42963e-05 2.57277e-06)
(3.41532e-07 2.26389e-05 4.64572e-07)
(8.04651e-08 5.65121e-06 8.91737e-08)
(2.09317e-08 1.05437e-06 2.05114e-08)
(9.58516e-06 0.000266399 8.52498e-06)
(2.11854e-06 8.17846e-05 1.41757e-06)
(4.55505e-07 2.22571e-05 2.65259e-07)
(9.69109e-08 5.58475e-06 5.23678e-08)
(2.37608e-08 1.04423e-06 1.2287e-08)
(8.01176e-06 0.000293048 1.63018e-05)
(1.97561e-06 8.5886e-05 2.98578e-06)
(4.56655e-07 2.30428e-05 6.05619e-07)
(1.01718e-07 5.74567e-06 1.26135e-07)
(2.57323e-08 1.07115e-06 3.07072e-08)
(8.11979e-06 0.000277838 1.0769e-05)
(1.65934e-06 8.46372e-05 1.93482e-06)
(3.48996e-07 2.28331e-05 3.90819e-07)
(7.38977e-08 5.70462e-06 8.12429e-08)
(1.81265e-08 1.06441e-06 1.97414e-08)
(4.01224e-06 0.000293297 1.19158e-05)
(1.04952e-06 8.67425e-05 2.82509e-06)
(2.45547e-07 2.32762e-05 6.4266e-07)
(5.49403e-08 5.80048e-06 1.42037e-07)
(1.394e-08 1.08089e-06 3.58121e-08)
(-0.00503792 0.958204 0.138758)
(-0.0176734 1.42405 0.352453)
(-0.00490205 0.977382 0.142186)
(-0.0434922 1.41596 0.346933)
(0.00663084 0.999631 0.154162)
(-0.0579392 1.39595 0.336319)
(0.0363091 0.994232 0.168153)
(-0.0524343 1.36188 0.329607)
(0.0593977 0.934943 0.156709)
(-0.00733754 1.28721 0.318387)
(-0.0404385 0.877481 0.0395247)
(-0.105519 0.996047 0.0964909)
(0.0287542 0.872562 0.084715)
(-4.90883e-05 1.03615 0.177916)
(-0.0634473 0.887126 0.014449)
(-0.145016 0.991751 0.0429921)
(-0.0800186 0.907376 0.00141575)
(-0.156253 1.00116 0.012293)
(-0.0784653 0.938152 1.13196)
(-0.0274451 0.168644 0.391661)
(-0.0132452 0.0423339 0.18782)
(-0.00867467 0.0139355 0.122795)
(-0.00688121 0.00392214 0.0972554)
(-0.0232469 0.99613 0.320607)
(-0.0143477 0.311807 0.126995)
(-0.00508016 0.0905216 0.0655053)
(-0.00344502 0.0305938 0.0420114)
(-0.00265682 0.00874183 0.0320098)
(-0.242842 0.935644 1.11387)
(-0.0845446 0.166209 0.384528)
(-0.0409049 0.0416645 0.184911)
(-0.0267817 0.0137241 0.120894)
(-0.021257 0.00386211 0.0959496)
(-0.0588858 0.989465 0.325425)
(-0.0271202 0.30857 0.135733)
(-0.0142562 0.089741 0.0667889)
(-0.00920469 0.0303672 0.0429965)
(-0.00718415 0.00868799 0.0334456)
(-0.412525 0.925741 1.05711)
(-0.144131 0.164106 0.365529)
(-0.0699457 0.0412312 0.176121)
(-0.0458498 0.0136292 0.115243)
(-0.0363721 0.00384298 0.0914628)
(-0.102694 0.974553 0.313544)
(-0.047459 0.304927 0.13053)
(-0.0243502 0.0890545 0.0642702)
(-0.0158115 0.0302393 0.0413995)
(-0.0122366 0.00867224 0.0322418)
(-0.564555 0.904001 0.966502)
(-0.198255 0.159037 0.335025)
(-0.0966911 0.0400966 0.161984)
(-0.0634978 0.0133353 0.106108)
(-0.0503985 0.00377222 0.0841811)
(-0.135782 0.946897 0.298833)
(-0.0637783 0.298348 0.123107)
(-0.0328531 0.0877801 0.0602679)
(-0.0213301 0.0300058 0.0386355)
(-0.0165133 0.00863188 0.0299235)
(-0.726748 0.86408 0.818819)
(-0.257737 0.149579 0.285175)
(-0.126572 0.0379841 0.138642)
(-0.0834186 0.0127371 0.0910106)
(-0.0664018 0.00361232 0.0722276)
(-0.170645 0.900517 0.276591)
(-0.0820438 0.286927 0.11267)
(-0.0426456 0.0852909 0.0550323)
(-0.0279217 0.0293716 0.0352335)
(-0.0218114 0.00846781 0.0272377)
(-0.907905 0.804726 0.410445)
(-0.333155 0.146363 0.150192)
(-0.165615 0.0387071 0.0741037)
(-0.109545 0.0131566 0.0487243)
(-0.0873675 0.00370729 0.0385995)
(-0.248615 0.788307 0.133971)
(-0.111242 0.264956 0.0556147)
(-0.0567093 0.0814412 0.0272675)
(-0.0370695 0.0286302 0.0174942)
(-0.0289995 0.00832149 0.0135598)
(-0.828409 0.819062 0.595266)
(-0.300976 0.145679 0.214004)
(-0.148725 0.0378946 0.104857)
(-0.0981337 0.012814 0.0688462)
(-0.0782178 0.00362359 0.054587)
(-0.205295 0.817411 0.19756)
(-0.0961568 0.271717 0.0814318)
(-0.0494799 0.082334 0.0401689)
(-0.03238 0.0286353 0.0259038)
(-0.0253577 0.00828362 0.0201316)
(-0.947826 0.801828 0.245195)
(-0.349924 0.147746 0.0907633)
(-0.174498 0.0393857 0.0450095)
(-0.115534 0.0134146 0.0296556)
(-0.0921195 0.00376922 0.0234926)
(-0.271946 0.781839 0.0754351)
(-0.119348 0.26321 0.0322367)
(-0.0605149 0.0813879 0.0157977)
(-0.0395513 0.0287717 0.0101526)
(-0.0309829 0.00839034 0.00791966)
(-0.991297 0.803017 0.0843906)
(-0.364401 0.147544 0.0312302)
(-0.182023 0.0393801 0.0155505)
(-0.120556 0.013421 0.0102739)