/*--------------------------------*- C++ -*----------------------------------*\
| =========                 |                                                 |
| \\      /  F ield         | OpenFOAM: The Open Source CFD Toolbox           |
|  \\    /   O peration     | Version:  2306                                  |
|   \\  /    A nd           | Website:  www.openfoam.com                      |
|    \\/     M anipulation  |                                                 |
\*---------------------------------------------------------------------------*/
FoamFile
{
    version     2.0;
    format      ascii;
    arch        "LSB;label=32;scalar=64";
    class       volScalarField;
    location    "0.3";
    object      gradTx;
}
// * * * * * * * * * * * * * * * * * * * * * * * * * * * * * * * * * * * * * //

dimensions      [0 -1 0 1 0 0 0];

internalField   nonuniform List<scalar> 
5712
(
-10885.5
-14075.2
-24668.4
-37292.3
-38147.8
-65778.8
-28067.7
-70774
-22141.5
-48618.1
-33148
-51307.4
-28998.6
-39601.8
-13027.7
-15356.5
-26354.7
-29776.4
-33073.9
-32987.2
-24311.3
-28237.8
-35588.1
-31369.1
-9623.49
-7921.03
-12006.8
-8780.06
-22736.4
-19475.9
-38297
-29603.1
-29208.1
-30287.6
-34834.8
-34190.9
-13740.3
-10414.2
-65121.8
-86721.5
-43566.2
-53064
-81889.6
-106457
-43286.2
-49764.3
-51196.1
-71995.8
-46770.7
-60884.6
-28597
-44746
-5985.52
-2107.29
-6291.45
-2353.42
-17899.8
-7560.92
-24229.5
-9328.35
-18427.2
-7309.41
-18622.1
-6374.56
-30793.4
-10389.7
-39660
-14101.2
-36699.5
-19656.3
-35143.4
-21123.4
-30774
-19601.8
-28673.1
-19883
-31438.5
-20263.2
-30979.8
-17915.6
-37303.5
-23044.3
-37916.3
-23224.2
-31340.5
-20992.7
-32118.3
-20951.4
-34244.3
-22633.2
-35634.6
-23214
-33968
-16675.7
-19444.6
-26143.8
-33349.3
-18249.5
-17231.9
-26208
-36319.8
-16479.4
-21530.5
-26445.6
-38357.5
-16834.1
-23035.6
-27416.1
-7514.98
-8028.28
-2687.08
-5607.2
-21306.5
-21981.5
-9142.38
-17080
-26564.5
-27785.9
-15346.8
-26268.5
-12047.9
926.791
-19280.3
-29181.2
-19429.5
1915.57
-4810.64
-16789
-31739.2
-29749.8
-12327.3
-17949.7
-19847.8
-21070.4
-35691.8
-6188.38
-4203.16
-3842.31
-3301.28
-16721.6
-11539.4
-11742.3
-9689.31
-19783.5
-13292.5
-15916.6
-12216.3
-3894.81
-4725.31
-9909.73
-9509.41
-18057.6
-14179.2
-23155
-16834
-21660.8
-15921.7
-8846.95
-6640.11
-13763.1
-7538.53
-16147.1
-8532.35
-17813.7
-9350.56
-25097.2
-13426.3
-12976.2
-3476.66
-12548.2
-8792.58
-12440.5
-11424
-13983.1
-14721.8
-13403.6
-9288.24
-14694.6
-2771.86
-11650
-13668.7
-11278.5
-14717.5
-13909.5
-18285.8
-14017.8
-19599.4
-12336.3
-14702
-11883.6
-15669.4
-18689.3
-10051.4
-27822
-9709.89
-17627.2
-2702.92
-24784.1
-2634.11
-18339.4
-13882.3
-28698.9
-11392.3
-16636.8
-15899.8
-26704.1
-13989
-2541.14
-1624.64
-909.831
-2012.89
-1330.2
-801.085
-7070.33
-3646.11
-1831.48
-5524.1
-2767.54
-1404.33
-7316.9
-3760.45
-2287.87
-6700.04
-3166.48
-1885.97
-2918.34
-1323.06
-826.742
-6450.83
-2526.27
-1213.15
-8357
-3366.54
-1466.54
-9578.16
-4289.36
-2245.22
-9205.05
-3701.19
-1672.67
-7997.74
-4002.1
-1900.51
-6992.64
-3521.73
-1486.03
-8442.21
-3951.48
-1530.43
-9166.86
-4113.28
-1544.94
-12185.6
-4800.25
-1485.7
-12147.4
-15271
-10398.2
-12676.8
-16148.8
-21433.3
-15558
-20480.2
184.802
-408.22
617.31
-94.9613
-2580.37
-2382.93
-1210.55
-634.582
-1511.22
-2927.48
-9585.5
-12681.5
-5033.27
-3346.73
-12530.7
-12938.7
-22190.6
-24836.7
-83.6555
3583.18
-8261.03
-7872.59
-6288.73
-4751.04
-808.971
-400.05
-684.176
-366.574
-1927.4
-306.98
-438.999
81.9337
-7561.66
-1530.09
-5761.27
-1407.11
-7695.51
-1957.52
-9120.5
-2233.92
-10906.9
-10972.2
-10174.3
-10845.5
-18708.5
-16576.5
-18213.8
-15921
-6031.54
-7027.67
-6792.71
-6893.15
-10757.4
-10643.5
-11600.3
-10605.3
-19331.9
-15880.1
-20230.6
-15797
-6062.31
-6890.37
-6377.43
-6867.98
-222.253
-479.878
-3979.86
-1377.27
-90.7734
-326.802
-3618.76
-1191.89
-450.989
-597.678
-4067.05
-1490.9
-592.672
-636.315
-3997.41
-1487.74
208.871
231.87
-132.912
-11.8575
1101.55
943.989
-27.9995
122.175
-130.915
433.512
-711.325
-310.635
6254.63
8121.43
2611.94
1644.45
183.118
8815.71
6877.22
1866.17
2322.58
365.542
-10129.5
-6975.92
-4790.23
-3227.2
-1103.93
141.444
82.6395
14.4757
18.1192
524.21
316.841
68.7858
61.0076
533.77
460.55
-87.072
-8.12116
3000.16
609.943
3759.64
1491.51
959.196
394.696
943.55
515.21
5.61656
-53.9365
-3913.58
-1953.56
-1775.14
-149.656
-1117.69
-104.163
-772.243
-143.844
-264.384
-130.614
-4280.07
-2729.11
-7111.13
-3515.19
-7474.12
-5251.27
-10630.5
-6605.88
-4325.49
-2036.94
-2470.01
-1632.89
-8087.46
-3216.3
-8618.72
-3486.92
-11577.5
-6822
-12083.5
-7290.61
-5086.87
-1817.71
-5485.33
-2003
-2314.92
-1209.51
-712.063
-709.403
-1506.05
-1035.98
-593.993
-647.062
-2607.62
-1188.74
-767.515
-805.146
-3079.37
-1259.9
-1107.4
-813.251
36.9634
19.2804
14.8539
2.89683
5.73507
4.62941
150.048
84.393
55.7439
12.2364
18.9726
14.1185
261.173
149.67
90.632
-32.1639
20.7015
19.2005
3.64137
58.0899
-17.3543
426.893
329.259
200.451
209.812
182.436
126.696
265.668
173.606
110.592
-91.4802
-0.0245105
8.09732
-1998.26
-817.863
-323.081
-227.32
22.8244
74.8377
-143.957
46.3641
72.267
-92.6988
38.2054
49.0806
-169.687
-3.91581
11.6425
-10.9602
-3.04318
-0.830451
-0.088564
30.1705
7.05458
2.6564
0.936197
-40.9767
-11.028
0.222496
0.949306
29.6847
5.97158
6.83563
2.84584
-116.752
-26.2098
-0.288753
2.28043
-70.5572
-15.0142
-0.22335
0.825896
-81.9966
-14.8033
-3.33207
-0.829204
-107.979
-21.2058
-1.6595
0.348297
-286.252
-61.6153
-13.2158
-2.48166
-322.227
-68.0788
-16.8744
-2.27387
-209.103
-44.1233
-7.49854
0.267893
-265.837
-55.2369
-15.767
-2.79147
-300.054
-64.2803
-10.6574
-1.00219
-354.725
-76.0963
-17.8914
-2.0162
-304.623
-66.2445
-9.78242
-0.360874
-368.167
-80.2743
-18.9102
-2.3171
-8.52381
-2.78615
-0.596362
0.00710509
2.2813
-0.0609407
-0.598005
-0.0516465
-11.1377
-5.09558
-0.149146
0.551193
17.0629
2.21935
-0.814152
0.043999
-116.652
-28.3914
-5.18745
-0.183241
-62.5517
-15.589
-4.65595
-0.340163
-68.403
-14.6595
-1.83665
0.820361
-29.8017
-7.19004
-4.3654
-0.532042
-225.541
-46.965
-13.7454
-1.57131
6.44449
1.45569
0.159169
0.131467
14.6796
3.69843
0.766782
0.180024
10.5132
2.31838
-0.452841
0.127556
39.1244
9.77774
1.75815
0.404697
-7.67229
-1.34367
-1.88064
-0.0602671
52.2066
13.1795
2.3008
0.509831
-44.386
-7.46571
-3.53893
-0.212567
40.5861
12.2399
1.94125
0.411772
-116.421
-20.3053
-8.12678
-1.22117
5.49006
6.85453
0.413579
0.102245
-230.609
-42.4969
-12.512
-2.01704
-74.7875
-11.0151
-2.92414
-0.664075
-184.407
-32.1888
-10.9289
-1.92387
-46.624
-3.74604
-1.45675
-0.304823
-261.024
-49.8922
-13.839
-2.27616
-92.7712
-15.6249
-3.65872
-0.881793
-276.754
-54.3425
-14.7661
-2.63559
-104.182
-18.5555
-4.2003
-1.03449
0.0534894
0.0163226
0.00403841
0.000927303
0.000238151
0.138035
0.0303685
0.00682255
0.00150853
0.000380611
0.123861
0.0334653
0.00847553
0.0019906
0.000518922
0.233521
0.054895
0.0131714
0.00301975
0.000778558
0.12165
0.0348801
0.00944834
0.00229493
0.000609584
0.217865
0.0625081
0.0158918
0.0037325
0.000975412
0.0315475
0.0206729
0.00619709
0.00155568
0.000422222
-0.00861812
0.00355233
0.00202277
0.000635224
0.000193129
0.00258962
0.0256211
0.0083106
0.00212288
0.000577784
-0.0443928
0.00467737
0.00258161
0.000739502
0.000211093
0.163248
0.0491514
0.012497
0.0029193
0.000759074
-0.00187745
0.0111974
0.00359592
0.000906745
0.000244365
-0.0757256
0.0023403
0.00305188
0.000987648
0.00029753
-0.0495025
0.000209969
0.00151392
0.000515148
0.000157872
-0.102554
-0.0102839
-9.73401e-05
0.000296618
0.00012756
-0.0743105
-0.00726294
-0.000354283
9.01112e-05
4.96964e-05
0.0374386
0.0131066
0.00329278
0.000748265
0.000189509
0.0582355
0.0152241
0.00341381
0.000726782
0.000176198
0.134453
0.0356846
0.00842311
0.00187879
0.000472862
0.176803
0.0409341
0.00883965
0.00186372
0.000451695
0.0880231
0.0324146
0.00853829
0.00201163
0.000523291
0.239629
0.0529634
0.0113876
0.00242277
0.000594021
0.200294
0.0493903
0.0114164
0.00254294
0.000643307
0.202995
0.0414835
0.00872491
0.00184744
0.000453164
0.100306
0.0262381
0.00613868
0.00137351
0.000348501
-125.948
-441.835
-122.551
-1087.3
165.771
-1448.48
907.727
-1310.86
1484.94
-183.438
-1010.96
-2637.96
718.856
-1.22721
-1586.18
-3625.4
-2000.47
-3906.33
-1961.63
-686.128
-331.131
-216.867
-172.03
-581.173
-358.693
-127.004
-86.1255
-66.4205
-6071.06
-2113.62
-1022.62
-669.543
-531.425
-1472.15
-678.006
-356.405
-230.117
-179.604
-10313.1
-3603.27
-1748.64
-1146.25
-909.301
-2567.34
-1186.48
-608.755
-395.288
-305.914
-14113.9
-4956.38
-2417.28
-1587.45
-1259.96
-3394.56
-1594.46
-821.326
-533.252
-412.832
-18168.7
-6443.43
-3164.3
-2085.46
-1660.05
-4266.13
-2051.09
-1066.14
-698.042
-545.286
-22697.6
-8328.87
-4140.38
-2738.64
-2184.19
-6215.37
-2781.04
-1417.73
-926.737
-724.988
-20710.2
-7524.4
-3718.12
-2453.34
-1955.44
-5132.38
-2403.92
-1237
-809.499
-633.941
-23695.7
-8748.1
-4362.45
-2888.36
-2302.99
-6798.66
-2983.69
-1512.87
-988.784
-774.572
-24782.4
-9110.03
-4550.58
-3013.91
-2402.79
-7029.11
-3098.7
-1577.41
-1014.23
-800.169
-1433.73
-11168.4
-10021.9
-3389.28
1886.76
3187.23
8103.04
12479.1
844.334
8998.86
-5069.71
188.411
1347.82
4876.25
11013
16737.4
16638.3
21790.5
6840.93
9124.16
-12625.1
-7545
-412.236
-144.521
-87.1902
-88.5579
-173.305
-7125.02
-4329.06
-3730.47
-2661.7
-1249.46
-942.822
-1771.23
-608.561
-481.091
-450.074
-285.309
-11536.3
-3676.96
-484.853
-981.135
-2154.76
-1099.34
-951.944
-529.838
-177.797
-220.391
-422.487
-474.232
-12054.1
-6169.13
-5731.88
-3221.13
-2247.44
-3322.32
-576.579
-389.2
-1013.91
-7111.19
-4679.74
-2777.73
-1584.45
-778.498
-4138.03
-2364.35
-1381.63
-731.886
-263.904
-317.48
-222.014
-138.082
-73.1283
-22.7587
-114.351
-82.1025
-52.2074
-28.0491
-8.75762
-68.8864
-49.292
-31.1848
-16.6638
-5.18121
-70.974
-51.6092
-33.1627
-17.935
-5.61008
-136.176
-96.9443
-61.1073
-32.5968
-10.137
-3656.57
-2106.31
-1174.87
-662.59
-386.724
-1806.72
-961.054
-463.529
-241.353
-109.934
-2016.02
-1069.28
-589.449
-301.065
-110.841
-1112.82
-569.414
-275.548
-130.131
-48.3635
-485.644
-238.238
-110.636
-48.49
-15.3543
-636.973
-394.647
-221.464
-109.283
-33.3701
-1054.29
-596.065
-325.01
-159.763
-50.547
-344.626
-183.712
-94.3682
-43.6688
-12.991
-343.088
-221.989
-128.67
-64.6662
-19.6643
-308.61
-192.441
-107.721
-52.577
-15.7014
-206.79
-135.571
-79.2649
-39.9581
-12.0947
-6217.04
-3656.42
-2129.28
-1180.45
-629.158
-2245.34
-1339.15
-769.422
-395.931
-140.127
-347.259
-226.69
-132.954
-67.6734
-20.9247
-712.657
-473.035
-282.168
-145.7
-45.6006
-1498.74
-968.227
-568.639
-292.591
-94.389
-802.913
-536.476
-322.251
-167.39
-52.5218
-707.793
-480.213
-291.842
-152.574
-47.6914
-400.668
-275.046
-168.297
-88.1366
-27.3584
-134.407
-91.7748
-55.6152
-28.7884
-8.82691
-171.001
-120.106
-74.7593
-39.5054
-12.2377
-312.228
-209.129
-124.997
-64.2688
-19.7691
-357.071
-243.937
-148.531
-77.4677
-24.0002
-6730.96
-4251.47
-2531.92
-1399.05
-685.742
-3576.99
-2111.58
-1236.7
-652.118
-240.512
-3492.56
-2228.48
-1272.41
-656.557
-234.586
-2136.86
-1330.56
-781.933
-406.019
-135.825
-1589
-1042.1
-619.129
-320.893
-103.03
-2186.25
-1356.87
-793.918
-410.414
-135.652
-425.598
-285.997
-172.129
-89.3131
-27.8147
-301.794
-211.979
-132.08
-69.9184
-21.6956
-754.657
-511.23
-309.86
-161.532
-50.3009
-9725.36
-19852.9
-20308.6
-56383.9
-18722.7
-70228.8
-10441.1
-25136.3
-19593.7
-15739.6
-33394.4
-28324
-17940.6
-15884.5
-34999.9
-27047.9
-7535.07
-5933.86
-14838.1
-10863.3
-17019.1
-13299.5
-45906.6
-35709.7
-27067.8
-19761.1
-29944
-18445.3
-2852.2
-7881.72
-68701
-88283.2
-42366.3
-52964.4
-84892.6
-107792
-41932.4
-49469.8
-54105.6
-73519.9
-45690.4
-60991.2
-31889
-46383
-4194.47
-1250.61
-7253.94
-2568.57
-14108.9
-6728.82
-28053
-10556.4
-7815.82
-4509.25
-15762.7
-5387.33
-31113.2
-10370.7
-40145.4
-14242.5
-24434.7
-14333.3
-30455.8
-18443.9
-19198.3
-14006.4
-24078.8
-17206.2
-28038.3
-18064.9
-21792.2
-13721.8
-35574.5
-21857.7
-37509
-22904
-29528.7
-19803.4
-31637.5
-20629
-33115.7
-21642.9
-35401.2
-22944.2
-32625
-16374.4
-18023.5
-25810.5
-28823.8
-17088.2
-14594.9
-25555.5
-36179.1
-16488.3
-20889.3
-26296.8
-38431.9
-16874.2
-22867.8
-27378.1
-2536.59
-2512.82
-890.192
-3558.37
-10038
-10754.2
-6937.53
-14594.4
-8403.69
-9713.85
-11910.1
-22437.5
-14762.5
-8870.21
-15938.2
-21659.2
-17651.4
-5805.71
-8393.5
-12352.6
-23234.2
-27824.3
-14962
-16406.3
-15670.8
-16633.1
-34348.2
-2767.56
-1896.69
-1955.6
-1958.69
-9151.39
-6434.45
-8821.2
-7273.29
-4864.59
-2420.25
-11702.6
-8691.84
-7986.33
-7195.24
-8851.6
-7336.23
-11069.3
-7450.71
-14996.2
-10541
-19146.3
-13642.3
-10943.1
-7948.26
-12161
-6299.03
-12344.7
-5852.52
-14104
-6796.73
-23807.3
-12093.6
-11110.8
-3055.46
-11070
-8192.07
-11745.2
-11425.9
-12795.4
-14183.1
-11978.5
-8709.17
-12490.7
-2158.22
-10847.6
-13279.6
-11035.8
-14595.3
-13153.1
-17827.5
-13776.9
-19436
-11606.6
-14399.9
-11668.5
-15580
-17771.8
-9679.44
-27587
-9578.14
-15968.5
-2315.05
-24372.7
-2767.78
-17894.7
-13696.4
-28598.2
-11321.7
-16496.8
-15848.5
-26674.4
-13979.7
-1547.66
-1344.58
-1482.94
-1559.56
-4554.09
-3376.31
-4898.63
-4281.16
-1256.86
-1774.04
-5866.58
-5362.93
-5807.52
-4002.54
-6136.59
-3781.12
-5326.25
-3428.78
-7650.83
-5441.55
-10257.3
-6631.42
-9391.36
-5417.4
-5938.67
-2881.9
-6550.48
-2744.83
-7223.34
-2623.85
-9741.5
-2319
-6201.48
-9061.2
-5549.95
-10410
-11190.9
-12559.5
-13434.4
-17372.7
-857.941
-407.685
-393.273
-171.004
-3201.81
-1621.73
-2304.4
-600.272
-1000.51
-1633.56
-7610.45
-7408.67
-2754.21
-2288.66
-11060
-12434.7
-20466.3
-24285
430.856
3757.51
-6985.38
-7375.87
-5474.95
-4466.67
-601.362
-400.408
-574.352
-365.986
-1172.2
-364.646
-264.469
24.2715
-5263.67
-1486.47
-4750.23
-1280.35
-6816.08
-1797.57
-8735.44
-2151.36
-5737.1
-8502.58
-8007.93
-9399.08
-10404.8
-12133.1
-14775
-13730.3
-4795.71
-6224.25
-3908.46
-5822.02
-9635.74
-9914.42
-11242.1
-10391.3
-17769.8
-14864.2
-19767.8
-15513.3
-5366.1
-6436.73
-6133.59
-6726.29
-33.2031
-458.275
-3686.49
-1343.32
5.03204
-408.545
-3440.36
-1222.61
-249.394
-557.031
-3855.32
-1451.08
-493.077
-613.798
-3925.66
-1471.85
-545.492
-490.555
-357.318
-283.64
-1166.37
-991.393
-393.203
-290.258
-4744.2
-3803.62
-1248.6
-1013.31
-2748.54
-3845.96
-2698.79
296.851
-179.306
-301.599
-947.773
-2948.28
1237.77
68.5653
-13788
-9541.97
-6424.59
-3859.32
-1326.72
-391.405
-250.423
-228.649
-180.812
-827.851
-531.44
-291.546
-269.716
-3046.94
-2157.57
-843.894
-730.865
-3480.43
-3944.54
-1832.17
-2514.82
-2727.97
-2253.81
-278.416
-390.283
-355.912
-430.598
-7658.85
-4618.91
-4931.7
-2588.02
-3107.27
-1641.31
-1750.9
-902.534
-538.032
-382.849
-4928.21
-3572.82
-6809.54
-3584.94
-7849.81
-6112.92
-9962.65
-6548.7
-4253.48
-2124.39
-3013.54
-2202.07
-7735.87
-3152.87
-8485.31
-3444.5
-11009.3
-6637.68
-11886.8
-7205.6
-4911.37
-1806.26
-5410.61
-1984.24
-2336.74
-1270.89
-758.869
-755.734
-1855.52
-1354.88
-740.824
-788.555
-2550.81
-1193.46
-771.688
-815.954
-3047.19
-1252.78
-1102.61
-812.936
-145.144
-117.159
-119.511
-100.527
-405.284
-381.531
-191.109
-166.085
-1556.78
-1166.95
-410.955
-186.168
-3650.38
-2430.46
-2484.49
-1497.37
-1640.08
-1047.14
-448.307
-346.425
-353.654
-166.532
-3818.81
-2040.44
-1789.72
-929.614
-1125.49
-588.037
-583.79
-282.563
-325.666
-27.3075
-25.9998
-7.14742
-1.89711
-0.330841
4.65841
-0.138094
0.933949
0.570395
-77.011
-20.9168
-1.88756
0.551307
-11.8638
-6.89529
3.83179
2.2189
-159.229
-38.5252
-2.66864
1.99213
-102.174
-27.5457
-3.80108
-0.107306
-91.9376
-20.797
-5.29862
-1.35546
-108.285
-23.0507
-2.3662
0.148995
-293.431
-67.1393
-15.2513
-3.14927
-326.003
-71.1262
-17.9762
-2.53149
-249.527
-56.109
-10.5001
-0.442198
-283.84
-61.0177
-17.428
-3.10256
-299.463
-67.2137
-11.8202
-1.32763
-353.433
-77.4913
-18.5624
-2.20957
-303.19
-67.1627
-10.1951
-0.479882
-367.095
-80.6557
-19.13
-2.3826
-27.7021
-7.15275
-1.50619
-0.146688
-20.6285
-4.84461
-1.73409
-0.247718
-66.9118
-17.4099
-2.53921
0.144265
-47.0119
-11.2068
-3.88469
-0.488946
-175.033
-41.1703
-7.57436
-0.551987
-143.108
-32.0632
-8.3691
-0.965145
-164.386
-35.757
-6.09226
0.0789689
-120.755
-25.4387
-8.15943
-0.972663
-274.425
-57.6462
-16.1727
-1.75383
-13.592
-2.96813
-0.759578
-0.0493002
-3.47224
-0.704489
-0.147887
-0.0350725
-43.4073
-9.38156
-3.08617
-0.428693
-12.5933
-2.50007
-0.858774
-0.203707
-87.2205
-17.8644
-5.52467
-0.829036
-31.1433
-5.73909
-1.55254
-0.362878
-137.675
-26.9133
-7.62143
-0.985141
-60.5937
-10.3006
-2.46826
-0.558756
-185.317
-35.7482
-11.7782
-2.04699
-80.4753
-13.2983
-3.72889
-0.849473
-250.043
-49.148
-14.4522
-2.53701
-95.9452
-17.4965
-4.53677
-1.08936
-230.692
-44.5573
-14.0747
-2.69866
-95.3406
-16.6191
-4.3341
-1.0172
-266.113
-52.608
-14.7806
-2.54802
-99.1262
-18.1039
-4.35114
-1.07367
-277.172
-54.9633
-15.0197
-2.71419
-105.01
-19.0561
-4.36372
-1.08408
-0.00456568
0.000575576
0.0001782
3.71503e-05
6.76861e-06
0.0385348
0.00434832
0.000535005
6.19609e-05
3.50523e-06
-0.00489046
-0.00189504
-0.000198171
-1.29596e-05
-3.4388e-06
0.0285264
0.000227362
-0.000205989
-8.84242e-05
-3.86089e-05
-0.029546
-0.00763677
-0.0010139
-0.000127133
-2.35571e-05
-0.0510854
-0.00826199
-0.00138863
-0.000289289
-8.52618e-05
-0.0943154
-0.0124286
-0.00198957
-0.000375821
-9.35999e-05
-0.0660798
-0.0120737
-0.00192497
-0.000310884
-6.27407e-05
-0.168572
-0.0177346
-0.00214739
-0.000297891
-5.85215e-05
-0.108996
-0.0116935
-0.00136963
-0.000176357
-2.99489e-05
-0.0622578
-0.00709636
-0.000838476
-0.000133562
-3.76909e-05
-0.0774804
-0.00725416
-0.000762237
-8.88835e-05
-1.48971e-05
-0.167018
-0.0213787
-0.00276135
-0.000374587
-6.41133e-05
-0.0990513
-0.0127138
-0.0016569
-0.000229913
-4.06846e-05
-0.139605
-0.0202774
-0.00260176
-0.000299446
-3.26669e-05
-0.0895771
-0.0113923
-0.00139089
-0.000157001
-1.6849e-05
-0.0081428
0.000587033
0.000272318
6.19048e-05
1.32228e-05
0.00605537
0.00287436
0.000626994
0.000114461
2.19637e-05
0.0106994
0.0030673
0.000699417
0.000135152
2.53405e-05
0.0374655
0.00848729
0.0015501
0.000260967
4.66775e-05
-0.0460362
-0.00427646
-0.000272248
6.39326e-06
5.54108e-06
0.0504307
0.00921023
0.00153081
0.000242424
3.91422e-05
-0.00108869
0.00138456
0.000346745
5.02126e-05
-2.51494e-07
0.0512445
0.00733581
0.00108139
0.000155218
2.10532e-05
-0.0155816
-0.000359577
5.28056e-05
2.79953e-06
-6.19534e-06
131.789
-259.407
486.698
-648.329
905.015
-910.912
1537.52
-847.039
1872.84
62.6126
-872.779
-2554.18
907.856
15.9006
-1514.79
-3577.39
-1981.08
-3892.74
-1973.75
-690.689
-332
-216.959
-172.002
-550.964
-357.005
-126.238
-86.0067
-66.4162
-6119.21
-2128.61
-1025.66
-670.072
-531.538
-1397.41
-666.672
-354.696
-229.956
-179.709
-10396.1
-3626.91
-1753.5
-1147.21
-909.604
-2479.18
-1173.29
-606.752
-395.084
-305.986
-14217.9
-4983.21
-2422.59
-1588.41
-1260.21
-3321.83
-1582.83
-819.526
-533.031
-412.832
-18292
-6471.45
-3169.73
-2086.5
-1660.36
-4228.97
-2043.72
-1064.87
-697.887
-545.298
-22782.9
-8346.31
-4143.57
-2739.22
-2184.34
-6203.38
-2779.48
-1417.5
-926.73
-724.976
-20827.4
-7548.61
-3722.59
-2454.15
-1955.68
-5116.79
-2400.01
-1236.26
-809.394
-633.95
-23745
-8758.14
-4364.25
-2888.7
-2303.08
-6793.25
-2983.36
-1512.82
-988.8
-774.591
-24799.8
-9113.57
-4551.3
-3014.11
-2402.91
-7028.29
-3098.88
-1577.5
-1014.28
-800.224
-1171.59
-10878.5
-9160.64
-2695.5
-1969.17
-948.753
-4471.64
-2889.02
-9244.99
-8681.04
-4597.05
-3359.57
-0.74395
-1.89888
-5.36721
-14.414
-36.7417
-88.9517
-0.744815
-2.69266
-8.73795
-24.2795
-59.5785
-130.359
-0.408659
-0.153312
-1.14353
-0.583824
-3.46876
-2.15148
-9.8594
-7.1522
-24.8704
-18.258
-62.646
-41.3334
-195.318
-386.805
-723.395
-1827.83
-3029.89
-3992.87
-252.787
-432.094
-652.128
-903.305
-1173.95
-1352.62
-0.620874
-0.474107
-0.320411
-0.180588
-0.0577969
-1.57632
-1.19564
-0.802225
-0.449388
-0.143322
-4.42984
-3.33619
-2.22173
-1.23681
-0.393054
-11.8137
-8.82251
-5.8247
-3.21976
-1.01921
-29.8418
-22.0513
-14.4061
-7.89738
-2.48874
-71.3783
-52.0341
-33.5576
-18.2176
-5.71337
-0.619363
-0.470833
-0.316668
-0.177749
-0.0567527
-2.22572
-1.67939
-1.12061
-0.624863
-0.198756
-7.17977
-5.3783
-3.56199
-1.97403
-0.625746
-19.8104
-14.7163
-9.66449
-5.31991
-1.68016
-48.2056
-35.4638
-23.069
-12.6049
-3.96558
-104.411
-75.9485
-48.8796
-26.4961
-8.30368
-0.342224
-0.262466
-0.178217
-0.100849
-0.0323519
-0.128627
-0.0988916
-0.0673287
-0.0381873
-0.0122658
-0.952786
-0.726051
-0.489574
-0.275397
-0.0880408
-0.487676
-0.372853
-0.252314
-0.142362
-0.0455873
-2.87405
-2.1749
-1.45568
-0.813747
-0.259211
-1.78764
-1.35759
-0.912044
-0.511422
-0.163182
-8.11323
-6.0881
-4.03904
-2.24144
-0.711051
-5.90287
-4.44498
-2.95926
-1.64676
-0.523164
-20.2877
-15.0652
-9.88858
-5.44035
-1.71763
-14.9531
-11.153
-7.35101
-4.05664
-1.28271
-50.4746
-36.9485
-23.913
-13.0121
-4.0848
-33.4844
-24.648
-16.028
-8.74885
-2.74997
-154.209
-110.506
-70.1788
-37.687
-11.767
-298.704
-209.482
-130.666
-69.3677
-21.6015
-541.997
-370.22
-226.362
-118.866
-37.098
-1307.69
-864.076
-517.293
-269.553
-85.6204
-2025.14
-1286.97
-756.476
-394.029
-130.728
-2566.1
-1599.06
-931.071
-485.403
-165.104
-199.968
-143.545
-91.2935
-49.0751
-15.3254
-336.487
-237.78
-149.235
-79.5325
-24.7712
-497.4
-344.819
-213.198
-112.636
-35.0621
-668.83
-452.434
-274.917
-144.037
-45.0454
-829.534
-542.765
-323.376
-168.437
-53.6106
-924.01
-591.085
-347.641
-180.564
-58.3197
-0.742252
-1.89231
-5.35155
-14.3835
-36.6904
-88.7689
-0.742362
-2.68137
-8.70209
-24.1779
-59.3023
-129.663
-0.40795
-0.153267
-1.14166
-0.585922
-3.47053
-2.17561
-9.89394
-7.30244
-25.1188
-19.3179
-63.2785
-44.5796
-194.609
-384.818
-718.26
-1807.72
-2996
-3974.65
-251.257
-429.286
-647.733
-896.477
-1165.05
-1348.23
-0.619681
-0.473435
-0.320151
-0.180544
-0.0578033
-1.57193
-1.19344
-0.801665
-0.449559
-0.143473
-4.42065
-3.33316
-2.22282
-1.23906
-0.394098
-11.8011
-8.82581
-5.83697
-3.2318
-1.02407
-29.8397
-22.0897
-14.4622
-7.94419
-2.50669
-71.3496
-52.1297
-33.7085
-18.3451
-5.76237
-0.617642
-0.469862
-0.316288
-0.177682
-0.0567602
-2.21803
-1.67531
-1.11929
-0.624866
-0.198906
-7.15616
-5.36672
-3.55923
-1.97509
-0.626602
-19.7453
-14.6865
-9.65973
-5.32506
-1.68333
-48.0294
-35.3828
-23.0549
-12.6174
-3.97351
-103.962
-75.7322
-48.8275
-26.5132
-8.31804
-0.341759
-0.262247
-0.17818
-0.100887
-0.0323756
-0.128652
-0.0989763
-0.0674395
-0.0382783
-0.0123007
-0.95193
-0.726132
-0.490222
-0.276075
-0.0883202
-0.489858
-0.374967
-0.254103
-0.14356
-0.0460086
-2.87837
-2.18111
-1.46217
-0.818603
-0.261002
-1.80994
-1.37682
-0.92678
-0.520633
-0.16631
-8.15324
-6.12977
-4.07578
-2.26654
-0.719951
-6.03836
-4.55847
-3.04373
-1.69835
-0.540476
-20.533
-15.2889
-10.0672
-5.55475
-1.75701
-15.8668
-11.8787
-7.863
-4.35636
-1.381
-51.1288
-37.5677
-24.4185
-13.3393
-4.19757
-36.2718
-26.8534
-17.5762
-9.6501
-3.04391
-153.95
-110.614
-70.4689
-37.9543
-11.8721
-297.855
-209.543
-131.191
-69.8893
-21.8107
-539.557
-369.877
-227.125
-119.749
-37.4664
-1296.09
-859.061
-516.296
-270.063
-85.9985
-2003.64
-1275.08
-751.168
-392.296
-130.412
-2554.08
-1591.97
-927.534
-483.973
-164.744
-198.971
-143.044
-91.1431
-49.0817
-15.3449
-334.661
-236.852
-148.934
-79.5179
-24.7957
-494.597
-343.416
-212.747
-112.614
-35.0977
-664.482
-450.185
-274.089
-143.887
-45.0569
-823.647
-539.394
-321.793
-167.863
-53.4856
-921.049
-589.316
-346.739
-180.19
-58.2249
-12549.5
-7502.44
-411.453
-145.93
-100.029
-96.815
-178.903
-7126.23
-5537.71
-3994.12
-3805.69
-1118.24
-2369.62
-651.131
-724.248
-408.883
-11319.7
-3717.3
-548.949
-1019.95
-2170.05
-1105.86
-951.131
-542.239
-220.653
-246.049
-497.875
-503.254
-11827.3
-6075.08
-5643.13
-3173.65
-2229.96
-3286.9
-588.212
-400.221
-1025.93
-7061.61
-4648.78
-2761.99
-1578.03
-777.155
-4112.63
-2350.69
-1375.05
-729.369
-263.299
-318.205
-223.745
-140.034
-74.5835
-23.2907
-115.915
-83.6507
-53.5007
-28.8942
-9.04983
-79.77
-57.7619
-37.024
-20.0104
-6.26304
-78.0289
-57.1588
-37.0355
-20.1783
-6.33952
-141.558
-101.678
-64.7244
-34.8232
-10.8831
-3990.71
-2447.61
-1434.37
-819.488
-456.094
-3140.48
-1992.43
-1169.53
-644.266
-258.504
-2367.61
-1379.31
-810.835
-426.099
-149.762
-2168.68
-1336.06
-784.86
-415.143
-143.666
-798.214
-525.966
-313.592
-161.746
-50.0595
-1552.1
-960.382
-564.137
-289.894
-90.9707
-485.574
-330.218
-201.018
-104.931
-32.4537
-537.533
-364.062
-220.884
-115.039
-35.547
-310.216
-213.872
-131.453
-68.992
-21.3328
-6252.6
-3773.23
-2248.51
-1264
-666.981
-2342.5
-1444.56
-853.936
-447.832
-157.785
-405.271
-273.908
-166.294
-86.8998
-27.1348
-753.852
-510.768
-311.166
-163.395
-51.508
-1536.37
-1012.96
-607.25
-317.485
-102.991
-815.848
-551.812
-335.773
-176.295
-55.6137
-711.642
-486.739
-298.505
-157.314
-49.3949
-413.971
-287.574
-178.231
-94.3583
-29.4618
-170.673
-119.808
-74.7406
-39.6344
-12.3133
-193.06
-137.523
-86.9155
-46.5322
-14.5207
-377.295
-260.229
-160.233
-84.3532
-26.2327
-384.234
-266.97
-165.468
-87.5748
-27.3343
-6599.35
-4180.31
-2500.73
-1390.7
-686.994
-3524.49
-2085.81
-1226.36
-649.584
-240.221
-3501.42
-2268.7
-1319.17
-690.743
-247.971
-2119.12
-1330.7
-789.349
-413.278
-138.786
-1588.96
-1052.1
-631.663
-330.353
-106.556
-2185.71
-1373.62
-814.422
-425.695
-141.438
-439.269
-299.502
-183.103
-96.2693
-30.1816
-312.593
-221.6
-139.486
-74.4933
-23.2322
-770.618
-527.987
-323.932
-170.609
-53.4156
-31.4532
-101.379
-196.164
-328.417
-497.414
-695.189
-4435.31
-11566.2
-10030.4
-3956.09
-14359.8
-13088.7
-12729.1
-13545.7
-4278.91
-2860.99
-10294.4
-5646.35
-16985.2
-15143.3
-297.577
-3492.91
-9271.6
-7790.73
-3035.62
-11602.5
-10086.1
-9990.93
-10460
-3542.78
-1587.8
-9024.56
-2784.69
-12681.3
-9708.32
2514.86
-2354.45
-6390.15
-5152.47
-1967.86
-8193.85
-5320.85
-6912.25
-6759.15
-2522.28
-1521.28
-6080.34
-3042.07
-8655.02
-3602.64
2636.33
-1447.04
-4104.29
-3146.03
-1179.82
-5037.4
-2246.23
-4389.89
-4195.43
-1670.01
-1485.29
-4060.65
-2872.94
-5948.69
-811.126
1855.61
-916.026
-2718.21
-1979.5
-734.359
-2905.66
-1042
-2852.63
-2899.85
-1087.4
-1572.93
-2408.44
-2605.1
-4087.59
-95.5556
40.6813
-621.614
-1807.09
-1331.76
-487.57
-1985.57
-1136.39
-1909.12
-2135.13
-669.485
-1216.38
-1447
-2229.6
-3721.61
-1294.96
-1255.74
-1528.43
-3681.26
-6488.86
-2580.85
-5499.58
-8716.91
-8874.34
-11577.6
-818.228
-350.542
-3144.6
-1195.73
-1208.65
-6957.81
-2429.19
-1330.27
-3204.05
-5331.18
-2107.16
-4704.11
-7248.04
-7374.62
-8986.81
-758.456
-195.217
-2996.79
-833.375
-368.82
-6003.17
-1081.18
-1005.11
-2417.14
-3741.95
-1463.26
-3632.83
-5153.49
-5312.56
-6365.52
-554.633
-174.908
-2091.4
-680.703
-366.564
-3603.35
-635.18
-652.661
-1654.72
-2339.31
-904.782
-2507
-3264.71
-3543.7
-4154.85
-361.59
-138.716
-1422.42
-521.739
-175.867
-2289.25
-381.755
-418.494
-1086.75
-1482.32
-568.589
-1541.32
-2015.85
-2323.66
-2833.24
-225.24
-160.593
-871.738
-477.233
-136.082
-1475.09
-398.914
-274.208
-666.038
-986.022
-374.728
-992.588
-1594.79
-1538.06
-2085.89
-163.7
-167.916
-537.535
-396.711
-232.002
-1344.3
-575.729
9899.62
12642.8
24726.9
37424.8
38192.9
65750.6
28080.7
70775.6
22160.8
48624.3
33216.2
51308.8
29038.7
39752.3
11177.2
13072.1
26373.7
29780.1
33064.7
32982.1
24314.8
28235.3
35583.9
31364.7
8878.26
7361.35
10926.9
8009.55
22740.8
19435.9
38391.5
29657.9
29164.1
30291
34818.6
34189.5
13734.8
10372.6
65130
86731.7
43566.6
53066.7
81898.2
106468
43285.7
49765.3
51202.7
72005.5
46768.9
60888.7
28608.3
44755.8
5637.22
2020.33
5775.87
2185.31
17847
7531.24
24246.3
9332.17
18414.7
7302.22
18596.1
6364.01
30794.9
10389.6
39665.2
14103
36697.6
19654.3
35139.7
21120.9
30769.9
19598.6
28669.1
19879.9
31432.8
20260.4
30976.9
17913
37301.8
23042.2
37915.6
23222.3
31338
20990.2
32116.6
20949.1
34242.6
22631.3
35634.6
23212.5
33959.5
16672.7
19441.6
26143
33342.3
18246.5
17228.5
26206.9
36318.5
16479.1
21528.8
26445.3
38359.1
16834.8
23034.5
27416.1
7068.63
7465.15
2584.72
5271.7
21202.3
21897.6
9087.6
16997.5
26547.2
27767.6
15338
26253.2
12046.7
-926.196
19277.5
29173.4
19425.8
-1914.79
4810.12
16787
31730.5
29744.1
12325.4
17947.8
19844.8
21065.7
35689.9
5612.12
3763.11
3433.25
2998.78
16800.2
11602.7
11878.9
9767.99
19769.5
13289.1
15909.8
12214.9
3894.54
4724.82
9908.48
9508.24
18054.6
14177
23147.2
16830.4
21657.9
15921.2
8845.69
6639.25
13761.4
7537.5
16144.5
8530.93
17810.2
9348.97
25096.2
13426.2
12974.5
3475.97
12546.4
8791.69
12438.5
11422.6
13980.9
14720.2
13401.9
9287.57
14692.6
2771.16
11648.4
13667.9
11277
14716.8
13907.5
18284.1
14015.9
19597.8
12335
14701.6
11882.4
15669.2
18688.1
10051
27822.1
9709.9
17625.4
2702.36
24783.8
2634.1
18338.8
13882.2
28699.2
11392.4
16636.2
15899.9
26704.3
13989.3
2216.48
1435.5
820.437
1818.49
1213.46
742.455
7135.99
3671.87
1837.35
5585.18
2791.73
1408.29
7319.1
3763.06
2289.39
6701.09
3169.13
1887.85
2918.07
1323.01
826.741
6450.23
2526.23
1213.23
8356.21
3366.64
1466.79
9577.87
4290.42
2246.19
9205.34
3702.23
1673.66
7996.89
4001.76
1900.43
6992.07
3521.52
1486.03
8441.69
3951.39
1530.54
9166.56
4113.42
1545.23
12185.7
4800.46
1486
12116.1
15251.3
10363.3
12659.4
16134.4
21422.2
15540
20469.9
-116.801
356.724
-510.695
72.3832
2571.34
2435.89
1200.02
691.051
1481.18
2898.62
9565.91
12657.9
5015.69
3331.22
12521.8
12934.6
22185.1
24834
76.7238
-3585.26
8249.65
7867.16
6282.25
4748.48
720.418
366.732
605.148
332.931
1960.16
313.191
475.223
-73.7667
7549.06
1528.4
5751.71
1406.01
7687.35
1955.44
9116.09
2232.53
10895.1
10966
10164.8
10840.5
18700.1
16571.4
18207
15916.7
6023.03
7023.12
6782.5
6887.79
10751.5
10639.9
11596.9
10602.6
19327.4
15876.9
20227.6
15794.3
6056.93
6887.07
6374.46
6865.67
217.577
478.95
3976.7
1376.14
85.7735
325.924
3615.35
1190.77
447.492
596.674
4064.58
1489.9
590.815
635.638
3995.69
1486.98
-199.704
-219.686
122.412
9.08255
-1087.92
-933.378
30.5026
-118.7
130.738
-433.173
710.917
310.61
-6254.42
-8120.3
-2612.37
-1645.23
-183.284
-8814.16
-6875.66
-1866.13
-2321.89
-365.346
10126.9
6972.27
4786.67
3224.34
1102.9
-136.459
-78.9882
-16.9317
-18.9134
-517.374
-313.42
-64.8604
-58.6835
-533.204
-459.98
87.1661
8.2264
-2999.85
-609.952
-3759.29
-1491.46
-959.65
-394.911
-943.561
-515.107
-5.74201
53.8432
3912.31
1953.01
1773.53
149.18
1116.22