/*--------------------------------*- C++ -*----------------------------------*\
| =========                 |                                                 |
| \\      /  F ield         | OpenFOAM: The Open Source CFD Toolbox           |
|  \\    /   O peration     | Version:  2306                                  |
|   \\  /    A nd           | Website:  www.openfoam.com                      |
|    \\/     M anipulation  |                                                 |
\*---------------------------------------------------------------------------*/
FoamFile
{
    version     2.0;
    format      ascii;
    arch        "LSB;label=32;scalar=64";
    class       volScalarField;
    location    "0.3";
    object      gradTy;
}
// * * * * * * * * * * * * * * * * * * * * * * * * * * * * * * * * * * * * * //

dimensions      [0 -1 0 1 0 0 0];

internalField   nonuniform List<scalar> 
5712
(
16646.4
9566.31
25811.9
17343.7
28224.6
21351.7
41660.1
55238.2
55959.4
72247.1
37421.6
33526.3
23727
19531.8
12370.6
8446.36
24402
22329.5
21904.4
23903.5
32091.7
25516.6
40087.5
28717.3
11372.4
8287.71
6552.9
5325.53
12546.1
10854.4
7995.75
7293.19
27560
26454
24806.4
17763.8
18519.2
15855.7
14221.1
16750.3
22166.3
22586.1
52860.9
55197.8
33125.4
34979.1
24691.1
20552.7
23222.7
15345.5
11122.4
12016
11910.2
20119.6
6306.38
8736.31
15846.1
26240.6
9792.55
12904.2
16082.3
34485.2
11542.4
22693.5
4041.86
13329.3
3352.56
9934.24
18226.1
22227
20494.8
23015
20452.6
19167
22627.3
19633.5
19912.1
27776.4
19069.5
26493
20860.2
23356.1
21145.2
23467.7
23896.8
19775.7
24237.8
19683.5
18768.6
28414.1
18295.9
28714.9
30150.3
42215.3
37883.1
65523.1
31709
49583.7
37031.2
71810.6
28751.7
36731.9
38337.5
62824.6
28611.3
34119.5
39002.9
62498.5
12544
16887.8
32776
59477
14767.1
17070.8
40552.1
65037.7
17016
16928.7
49117.2
68629.6
26696.5
22393.8
28676.4
33966.5
61817.1
21471.5
25416
28416.7
29314.7
72127.9
19813.2
23379
26084.6
34512.2
82033.8
3674.05
4221
7428.17
20860.6
5095.47
5471.39
9931.55
21900.5
7015.82
5337.28
12912.1
23113.2
18568.7
14655.8
20832.4
16118.6
23260.4
16578.5
20160.2
14664.2
15846.7
25143.1
17650
13961.8
21361.6
17409
22999.7
18093.3
23393.1
18282.9
16376.9
24320.9
21788.9
22225.9
21587.3
22840.4
18024.8
16569.8
17643.3
17029.1
23761.7
22487.1
24030.8
22089.3
21211.2
22891.2
21147.1
22940.1
17070.3
17365.9
16950.2
17378.3
23407.4
22081.9
23398.4
22033.3
24079.3
21834.1
16217.7
20679.6
24451.7
21678.5
16060.3
21087.2
23941.2
21398.4
16560.1
20614.7
23809.5
20965.3
17026
20474.7
2196.48
953.72
424.442
1113.71
411.101
270.446
3125.71
1048.87
490.425
1995.28
1002.68
472.343
2929.67
1220.37
724.638
3302.28
1578.11
865.587
9650.28
5081.69
2798.61
10705.2
5813.41
3285.9
9317.47
4939.22
2844.12
8109.73
3871.04
2099.79
5029.85
1958.78
933.781
9579.41
5130.75
2715.85
11915.1
6191.12
3215.43
11030.4
5158.84
2523.67
8866.04
3721.61
1767.21
5275.48
1867.61
775.181
28142.2
24862.5
33010.8
26620.1
35122.2
27107.3
46210.9
30777.7
18551.9
15822
18930.6
14964.2
21371.4
17163.2
21925.3
16058.9
21440.7
19912.5
19476.7
19429
22053.1
21252.7
29605.7
30912.5
35402.7
37603.3
22563.7
24313.9
20231.2
20204.4
22108.4
23247.3
10557.2
4570.15
10202.3
5151.38
11119
4605.53
10475.8
5080.85
11484.4
4609.73
11098.3
5427.12
11147.7
5759.28
11529.3
5623.92
17522.4
12850.2
18615.6
13249.3
21096.1
17007
22895.8
17416.4
16536.6
9449.56
16233.7
9040.56
19909.4
13388.7
20507.3
13203.2
24667.5
17603.4
25091.7
17394.6
17026.8
9581.78
17219.9
9456.24
8757.86
4336.4
6141.87
3147.58
7647.77
3685.67
5725.9
2870.27
9261.88
4707.82
6285.77
3244.51
9339.43
4869.35
6202.46
3211.79
1264.82
509.306
2006.43
915.922
1307.66
596.532
2091.29
1064.22
1569.95
907.123
2291.27
1391.72
7534
14017.6
4914.53
4302.54
2564.49
12675
7236.3
3436.78
3304.99
1903.4
14559.5
9902.47
6817.18
4468.97
2338.12
183.487
62.5556
438.804
247.901
241.17
79.7878
569.363
331.126
440.754
174.025
824.985
493.615
11308.9
8592.5
6069.39
4302.69
3096.89
2155.65
2316.52
1340.45
1322.56
790.453
11438.2
8157.3
7295.07
4651.63
4695.4
2792.27
2960.3
1671.13
1717.33
1108.27
8314.85
4722.38
8692.7
4949.84
11932
7839.86
12268.3
8249.19
5959.29
3209.62
5552.56
2986.12
8846.06
5012.9
8758.06
4978.94
12332.9
8620.51
12201.1
8592.82
6170.36
3247.56
6109.52
3243.83
3726.5
1943.49
2073.84
1357.91
3464.51
1783.95
1964
1231.03
3922.14
2003.68
2123.75
1420.75
3969.01
1993.57
2211.33
1427.03
56.6152
30.348
15.8429
298.513
82.4727
40.1104
52.2647
37.1249
20.9338
353.761
106.756
55.1162
109.44
77.8168
49.0093
455.32
155.906
83.8214
5368.2
2884.06
1650.82
2601.68
1406.76
827.132
1307.47
698.714
421.028
737.886
376.225
218.434
626.029
230.118
121.443
5049.53
2582.62
1350.5
2603.45
1262.49
659.526
1456.28
668.304
348.39
899.22
394.228
195.989
888.306
282.644
132.173
1498.68
435.538
121.58
30.3423
1756.85
501.65
136.595
33.1696
1497.01
432.822
120.926
30.2015
1783.9
514.459
142.893
35.3001
1482.7
421.204
124.723
32.704
1830.32
517.863
153.461
40.0826
1999.42
555.661
148.954
35.8732
2009.53
565.697
146.192
34.5313
1520.74
447.908
134.225
35.1385
1127.62
347.183
108.049
29.477
1284.95
384.919
120.728
33.8615
1031.91
322.062
102.145
28.67
1666.67
489.834
139.997
34.9522
1174.25
362.316
110.287
29.5733
1723.15
509.635
142.629
35.489
1180.49
369.136
112.111
30.3895
987.352
328.248
100.398
27.0138
575.557
221.068
76.1654
22.2371
982.818
324.649
99.9678
27.1164
604.106
226.345
77.2094
22.5206
1011.26
323.602
102.073
28.2119
697.143
244.283
81.3625
23.376
974.935
305.602
98.2143
28.2915
778.829
256.549
86.436
24.8181
889.226
287.463
93.7084
27.3428
314.86
151.694
51.1072
11.2092
157.04
119.542
41.4475
9.27415
354.708
162.527
54.0345
12.0281
186.791
129.739
43.8666
9.74871
443.56
183.517
58.2093
12.519
250.427
148.832
47.5823
10.3267
568.043
210.552
65.3475
14.1357
340.695
172.881
52.9476
11.3489
671.651
236.872
74.0999
16.5781
407.626
194.692
58.0332
12.311
756.634
265.025
78.0796
16.6466
454.331
221.439
66.1473
13.8545
727.211
254.362
76.1665
16.4321
424.272
210.824
62.488
13.1146
767.513
269.889
77.1472
15.805
463.203
227.477
67.2952
13.9737
783.487
273.263
77.9347
15.9369
475.224
230.766
68.2708
14.1679
7.29163
2.07752
0.554962
0.138294
0.0257959
7.66599
2.1385
0.56518
0.140018
0.0260448
7.39239
2.13058
0.567149
0.1409
0.0262365
8.02038
2.21018
0.580154
0.14323
0.0265952
7.78521
2.189
0.579087
0.143573
0.0267075
8.59339
2.27001
0.593211
0.146286
0.0271434
8.32467
2.31957
0.609711
0.150304
0.0278647
8.35342
2.36303
0.624767
0.154277
0.0286108
8.16901
2.26316
0.596389
0.147517
0.0274023
7.63023
2.23166
0.597241
0.148517
0.0276389
8.01306
2.20704
0.584568
0.145054
0.0269884
7.5361
2.199
0.588567
0.146479
0.0272763
8.14376
2.30329
0.609945
0.150898
0.0280165
7.73982
2.26605
0.607882
0.151241
0.0281439
8.36541
2.34937
0.623167
0.154358
0.0286726
7.93852
2.30827
0.618868
0.154052
0.0286777
6.84211
2.00162
0.542603
0.136296
0.0255178
6.25624
1.93972
0.533912
0.13496
0.0253352
6.95619
2.04294
0.552337
0.138381
0.0258672
6.38038
1.97604
0.542214
0.136708
0.0256247
7.22428
2.10741
0.565972
0.14128
0.0263592
6.65997
2.04462
0.556427
0.139619
0.0261058
7.3262
2.14715
0.57607
0.143642
0.0267789
6.94596
2.11593
0.570828
0.142615
0.0266103
7.33243
2.16856
0.581905
0.145012
0.0270222
23955.1
35601.2
24434.6
35399.1
24990.8
34898.8
24855.8
34047.1
23373.6
32180.3
21937
24901.2
21814.1
25903.9
22178.1
24793.8
22684.4
25029.1
23453.8
4216.1
1058.35
348.388
98.0535
24903.3
7795.18
2263.04
764.845
218.546
23391.1
4155.22
1041.61
343.101
96.5528
24736.6
7714.24
2243.53
759.179
217.2
23143.5
4102.65
1030.78
340.729
96.0746
24363.8
7623.16
2226.36
755.982
216.806
22600
3975.94
1002.41
333.382
94.3054
23672.4
7458.71
2194.5
750.144
215.797
21602
3739.47
949.601
318.428
90.308
22512.9
7173.18
2132.27
734.29
211.695
20118.2
3659.08
967.677
328.915
92.6822
19707.7
6623.89
2036.03
715.755
208.037
20476.5
3641.98
947.365
320.35
90.5899
20435.3
6792.93
2058.35
715.883
207.09
20045.7
3693.65
984.642
335.365
94.2305
19546
6580.25
2034.7
719.292
209.758
20075.4
3688.6
984.503
335.525
94.0943
19599.5
6594.54
2041.58
724.037
211.329
40296.6
64406.5
62211.4
38224
19192
20830
28998
31762.2
25276.9
30167.7
43393.4
63982.4
56513.1
79489
35281.3
42319.6
25960
29006.1
13402.6
15202.9
2462.5
1244.66
31.7977
11.2488
9.97505
7.48175
17.5896
2011.13
1388.47
676.477
679.578
371.791
145.034
300.043
142.463
73.785
86.2237
51.9929
1940.45
553.519
135.903
112.737
244.584
177.735
92.9448
60.486
27.6596
21.0311
61.3841
52.7832
2216.84
927.151
1195.07
460.446
273.118
610.762
89.1221
31.7547
113.906
4277.92
3058.5
2097.67
1472.51
1633.64
2327.37
1882.5
1358.77
971.757
817.925
71.8329
77.5585
68.1799
55.3603
47.2073
25.9559
29.0233
26.4123
22.0891
19.17
23.1402
26.0866
23.9049
20.0869
17.4707
17.4149
19.7534
18.231
15.4276
13.4828
40.341
44.6242
40.1214
33.1638
28.5507
3589.22
2668.96
1797.82
1204.55
1331.08
2467.99
1761.81
1123.26
732.776
626.84
1307.62
1102.72
794.235
552.534
444.166
1197.29
868.85
550.548
352.099
266.825
642.13
468.046
297.688
186.244
135.322
304.376
291.194
228.62
168.718
135.963
597.944
526.441
386.876
271.499
213.659
289.074
261.962
196.342
138.866
108.248
159.854
160.839
131.746
100.397
82.1569
183.18
178.565
142.104
105.566
84.8685
114.173
117.314
97.7879
75.4535
62.0784
3521.97
2701.01
1867.21
1286.98
1420.67
1102.07
978.581
736.82
532.194
436.588
290.408
286.312
231.169
174.84
143.339
243.805
245.259
201.888
155.28
128.595
510.151
485.788
383.456
286.27
235.132
380.928
378.122
308.285
235.835
195.275
204.112
210.644
177.717
139.663
117.097
134.704
141.914
121.628
96.5514
81.1905
62.529
67.4518
59.0166
47.5432
40.2335
47.9242
52.4214
46.5614
38.0455
32.5039
135.106
139.561
117.266
91.4108
75.9622
117.342
123.256
105.299
83.3062
69.8793
3926.71
2906.81
2014.52
1411.32
1561.17
1776.54
1493.32
1101.12
796.868
667.863
2343.9
1988.59
1439.96
1026.95
914.623
941.006
871.935
679.637
506.081
419.114
576.02
558.585
448.201
339.567
280.953
1223.96
1100.95
839.291
612.027
504.404
195.815
202.096
170.308
133.581
111.787
71.6966
77.2602
67.6713
54.6962
46.4621
247.496
250.887
208.008
161.018
133.851
24844.9
17387.6
25066
19070.8
30733
50380.2
33159.5
50706.6
24735.9
24367
22360
24993
25587
22157.1
37512.7
26975.8
21115.2
23043.9
10427.9
10276.5
22501.4
23474.4
11747.9
10810.1
30468.8
30891.3
28084.8
23246.7
30879.9
20293.6
14296.2
16876.4
22654.6
22769.8
53281.1
55509
32693.7
34947.5
26310.9
20952.6
25160.3
15752.8
12700.9
12437.2
27776
33205.1
11512.2
13534.7
29768.6
37475.6
14167.9
17004.3
26595.4
43258.6
15405
27281.1
4964.53
14953.3
3548.86
10265.2
20847
22241.2
21278.5
23091.6
19364.9
18239.7
21830.4
19155.4
22665.4
28504.1
25783.8
27598.1
21123.4
23413.3
21203
23486.5
23550.6
19556
24151.7
19619.7
19811.3
28803.9
18538.7
28833
32565.3
45315.1
39161.6
67195.2
35444.6
54515.1
39061.2
74659.7
29959.2
38299.8
39011.7
63706.6
28953.8
34574.3
39205.8
62774.4
38330.8
40120
52864.8
81558
37240.1
36394.9
56352
82017.8
34451.6
32126.6
60060.3
79930.2
20283
17384.5
26559
36163.1
67730.7
16128.2
17580.2
26855.4
30864.4
78793.1
16651
20706.4
25686.8
36644.3
86205.4
14223.1
10691.1
16635.3
25391.5
16098.4
12241.9
17116.7
25588.6
18400.9
13052.2
17753.5
25500.8
13807.2
10743.7
15140.8
11883.7
22330.8
16738.7
21546
16096.3
18284.3
26184.9
14848.8
12059.8
18675
15698.9
22192.5
17731.9
24697.9
19325.9
17709.9
24773.9
20939
21310.8
21309.6
22441.8
16780.2
15534
17087.5
16510
23940
22516.8
24084.2
21971
21106.4
22728.9
21121.3
22896.9
16827.9
17124.7
16881.7
17309.9
23515.7
22122.6
23429.2
22045.7
24609.7
22170
16715.5
21069.4
25291.7
22204.3
16932.7
21715.9
24218.2
21581.1
16818.7
20823
23895.7
21022.2
17112.3
20541
8383.59
8467.78
4504.55
3679.33
9598.06
8553.66
5153.9
4459.03
9091.77
7171.38
5811.66
4925.6
8236.82
6260.69
9496.58
7733.15
11631.9
8909.03
10897.7
7624.21
7355.98
4784.05
9236.22
6677.69
12025.2
8675.11
12124.7
8164.88
10872.1
6658.3
6515.81
3211.47
21218.9
18112.2
30308.5
23356.7
26942.4
21287.7
43209.7
28094.8
17713.9
11993.2
21216.4
13708.8
17297.9
12369.8
21302.8
14220.4
19111.7
14801.1
16506.3
13580.4
15436.4
18517.8
28099
30486.9
34355.3
37352.4
21270.5
23918.2
18801.2
19812.6
20469.9
22688.4
7827.97
4320.91
8755.36
4684.29
8210.68
4299.38
9109.04
4633.53
8522.65
4266.32
9728.31
4952.83
10257.7
5393.56
11202.3
5489.86
13486.3
11445.1
16581
12371.1
17452.2
15176.4
21001.8
16415.2
14446.9
8840.47
12286
8242.68
18904.8
12925.4
20214.3
13062.8
23823.5
17117.3
24864.6
17252.9
15922.1
9229.02
16876.5
9345.48
7933.21
4100.92
5829.07
3050.78
6796.17
3632.09
5447.89
2850.52
8750.11
4507.4
6077.15
3165.9
9176.83
4795.39
6134.08
3184.2
6503.8
5430.12
3558.11
2747.74
6699.97
5641.02
3471.96
2730.07
6794.45
5553.45
3386.39
2786.12
10151.6
13828
9393.33
5543.78
3111.54
12166.4
10089.6
9441.06
5169.73
2784.57
13783.7
10282.3
7516.28
5017.97
2610.05
4232.78
3004.19
2112.38
1594.35
4388.86
3099.27
2154.05
1635.06
4268.37
2998.19
2201.09
1632.58
10587.3
7914.87
8177.18
5950.5
6719.87
5017.51
4149.8
3016.64
2206.59
1606.81
10786.2
7694.33
7958.2
5253.44
5701.89
3687.47
3761.53
2404.54
2086.8
1472.61
7992.62
4751.06
8317.58
4820.07
11146.5
7436.79
11743
7953.9
5748.51
3175.54
5530.12
3181.07
8617.06
4907.52
8684.74
4942.67
12063.4
8452.4
12120.4
8541.84
6011.02
3187.43
6055.64
3220.32
3644.5
1957.75
2057.46
1379.5
3563.32
1983.74
2051.68
1371.52
3835.97
1977.25
2091.82
1411.62
3936.84
1981.13
2196.83
1420.67
2294.95
1873.47
1885.9
1487.24
2397.76
1923.46
1838.83
1415.54
2261.22
1810.76
1738.79
1286.39
5774.01
4297.24
4172.51
3018.85
3594.07
2721.09
2182.78
1573.43
1602.56
1069.04
5170.71
3563.48
3280.27
2243.67
2286.6
1618.76
1572.88
1064.7
1425.65
811.759
1604.69
487.395
138.17
34.661
1746.09
528.383
148.572
36.7654
1580.06
478.426
135.506
33.9249
1750.73
531.903
152.162
38.2637
1538.31
458.106
137.288
36.04
1781.32
527.922
160.469
42.5696
1937.97
555.85
152.196
37.1867
1983.08
564.517
147.041
34.9311
1504.85
456.834
139.55
37.0216
1123.08
353.367
111.539
30.7497
1337.24
412.107
130.879
36.8872
1062.47
340.176
108.877
30.7013
1635.47
490.508
142.285
35.9262
1162.55
363.51
111.833
30.2444
1709.21
508.994
143.22
35.7845
1175.32
369.118
112.527
30.5925
1355.55
420.499
124.126
32.5682
1059.96
340.232
105.833
28.9283
1318.94
409.615
121.789
32.1773
1047.38
336.305
104.536
28.6843
1281.27
393.79
120.842
32.6562
1061.26
334.716
104.197
28.4957
1145.92
357.642
113.077
32.0016
1027.9
325.573
104.681
28.9374
991.633
324.133
104.862
30.251
785.575
275.718
78.8236
15.9686
534.354
240.242
69.8403
14.4216
796.917
277.943
80.0349
16.6166
546.931
242.234
70.4387
14.5914
827.336
280.748
79.9232
16.2805
573.657
244.542
70.1251
14.4346
822.184
280.54
82.3874
17.2245
571.586
244.38
70.5765
14.655
791.955
276.769
85.5369
18.9552
523.504
239.432
70.1943
14.7233
762.523
271.747
81.3385
17.4851
465.209
230.282
69.6099
14.6791
767.293
272.566
82.6103
17.8903
470.018
233.175
69.4718
14.6143
763.772
271.67
78.5418
16.1955
462.383
229.935
68.6645
14.3381
780.941
273.486
78.2984
16.0473
473.823
231.127
68.605
14.2658
8.3823
2.38796
0.63642
0.158158
0.0294464
8.62264
2.42297
0.641544
0.158879
0.0295318
8.33447
2.40218
0.639171
0.158592
0.0295025
8.81413
2.4479
0.644573
0.159267
0.0295751
8.60498
2.41948
0.640386
0.158721
0.0295162
9.2432
2.45931
0.644783
0.159214
0.0295571
8.71833
2.4413
0.643721
0.15897
0.029498
8.48671
2.4062
0.637113
0.157468
0.0292169
8.70847
2.42715
0.641141
0.15877
0.0295098
8.065
2.36769
0.634893
0.158072
0.0294383
8.75994
2.41199
0.63899
0.158548
0.029498
8.15619
2.37305
0.635324
0.158165
0.0294605
8.45924
2.40652
0.639109
0.158379
0.0294323
7.98873
2.35037
0.632097
0.15752
0.0293397
8.4656
2.38272
0.632842
0.156882
0.0291548
8.01667
2.33574
0.626959
0.156185
0.0290873
8.16367
2.34733
0.630001
0.157229
0.0293344
7.85798
2.31518
0.62551
0.156595
0.0292579
8.15576
2.35669
0.632267
0.157639
0.0293918
7.85765
2.32332
0.62759
0.156988
0.0293142
8.26334
2.37584
0.634935
0.158043
0.0294447
7.91805
2.34421
0.631146
0.157555
0.0293895
8.21775
2.37498
0.635056
0.158102
0.0294554
7.98442
2.36312
0.633795
0.157943
0.0294382
8.12495
2.37041
0.634902
0.158111
0.0294574
27177.1
36317.7
27148.6
36031.4
27060.9
35445.9
26124.9
34388
24134.6
32344.5
22257
25211.1
22342.5
26360.6
22349
24960.9
22737.2
25079.2
24472.7
4344
1079.8
352.186
98.5912
25473.6
7987.54
2305.98
772.968
219.72
24290.5
4269.61
1061.02
346.545
97.0396
25242
7887.58
2282.53
766.541
218.252
23845.1
4195.08
1046.85
343.599
96.4779
24766.1
7766.58
2259.22
762.198
217.684
23086.9
4043.27
1014.45
335.554
94.6115
23968.3
7568.99
2220.24
755.036
216.487
21934.7
3785.1
957.685
319.877
90.5113
22741.8
7256.16
2151.44
737.915
212.215
20276.4
3679.87
971.112
329.501
92.7638
19879.5
6665.43
2044.38
717.24
208.244
20724.2
3674.2
952.77
321.288
90.7192
20686.6
6856.46
2071.67
718.296
207.429
20132.3
3705.18
986.542
335.686
94.2755
19639.4
6602.61
2039.1
720.072
209.871
20102.8
3692.19
985.086
335.619
94.1053
19628.6
6601.49
2042.93
724.272
211.362
39917.7
64473.1
61975.9
36921.1
25554.3
33943.4
24030.8
33671.8
32104.3
59570.4
35205.2
61567.4
0.0572826
0.120048
0.310276
0.823667
2.19873
5.88063
0.110464
0.222916
0.550034
1.37758
3.38101
8.05006
0.0308052
0.020393
0.0715312
0.0528807
0.203684
0.166169
0.585096
0.521093
1.64247
1.52201
4.37262
3.69611
15.6551
40.0195
96.6908
219.364
415.836
573.173
18.4225
39.8471
80.2512
146.548
229.571
289.939
0.13809
0.167009
0.166266
0.151681
0.139564
0.287902
0.344839
0.339268
0.305816
0.27907
0.739828
0.876747
0.851615
0.757854
0.685499
1.95117
2.28502
2.18896
1.92155
1.72201
5.1665
5.96396
5.62063
4.85705
4.30688
13.6741
15.4992
14.3181
12.1448
10.6382
0.265043
0.317765
0.313019
0.282518
0.258036
0.531822
0.630958
0.613766
0.547021
0.495312
1.30405
1.52957
1.468
1.29105
1.15842
3.24408
3.75921
3.55798
3.08712
2.74484
7.90047
9.03039
8.41716
7.1983
6.33905
18.6396
20.9697
19.2131
16.1741
14.099
0.074552
0.0908515
0.0913184
0.0841304
0.0779344
0.0495098
0.0607009
0.0614784
0.0570822
0.0531619
0.172191
0.20775
0.206269
0.187665
0.172342
0.127666
0.15489
0.15485
0.141871
0.130909
0.48751
0.581949
0.570355
0.512146
0.466085
0.398856
0.478679
0.472191
0.426735
0.390045
1.39158
1.64193
1.58702
1.40542
1.2669
1.24287
1.47404
1.43323
1.27647
1.15499
3.87682
4.51126
4.29014
3.73905
3.33415
3.60379
4.21637
4.03315
3.53362
3.16155
10.2222
11.6928
10.9058
9.32959
8.21627
8.68419
10.0172
9.42311
8.12096
7.18436
35.9049
39.7549
35.8379
29.7413
25.6961
90.1655
96.9426
84.9114
68.7827
58.5964
212.856
220.545
186.836
147.464
123.984
467.87
461.773
376.155
288.787
240.335
852.409
792.444
619.235
463.829
384.919
1151.31
1037.44
793.788
587.258
487.01
42.192
46.5895
41.8677
34.6472
29.882
90.0639
97.2929
85.5571
69.5221
59.3227
178.52
187.935
161.351
128.647
108.671
319.901
326.916
273.592
214.099
179.33
491.381
487.261
398.27
306.83
255.652
613.66
598.139
482.563
368.682
306.455
0.0571221
0.119409
0.308561
0.819286
2.18708
5.84696
0.110117
0.221517
0.546169
1.36748
3.35472
7.98285
0.0307301
0.0203553
0.0712595
0.0527918
0.203098
0.166404
0.584425
0.524877
1.64354
1.54373
4.3911
3.84721
15.5332
39.5949
95.4853
216.545
411.922
571.255
18.2548
39.4578
79.4593
145.235
228.104
289.277
0.137738
0.166672
0.166051
0.15161
0.139586
0.286527
0.343575
0.338547
0.305712
0.279352
0.736249
0.873729
0.850337
0.758432
0.687211
1.94242
2.27862
2.18795
1.92593
1.72958
5.14438
5.95065
5.62403
4.87617
4.33503
13.6125
15.4675
14.3374
12.2098
10.7288
0.264279
0.317014
0.312508
0.282294
0.257996
0.528762
0.628006
0.611829
0.546271
0.495312
1.29569
1.52172
1.46315
1.28958
1.15905
3.22249
3.73953
3.54659
3.08479
2.74804
7.84484
8.98072
8.38962
7.19422
6.34911
18.4983
20.845
19.1445
16.1637
14.1232
0.0743931
0.0907111
0.0912483
0.0841395
0.0779937
0.0494342
0.0606462
0.0614738
0.0571304
0.0532429
0.171639
0.207333
0.206193
0.187947
0.172842
0.127533
0.154924
0.155151
0.142423
0.131608
0.486496
0.58166
0.571308
0.514271
0.468892
0.399773
0.480618
0.475222
0.430618
0.394376
1.39144
1.64515
1.59456
1.41658
1.28005
1.25343
1.49011
1.45347
1.29915
1.1787
3.88502
4.53366
4.32769
3.78794
3.38881
3.66186
4.29921
4.13107
3.63793
3.26753
10.2868
11.8134
11.0749
9.52921
8.42962
9.06269
10.5044
9.94268
8.62838
7.6743
35.6743
39.6095
35.8451
29.8842
25.9142
89.3265
96.3077
84.6924
68.9393
58.9604
210.445
218.605
185.899
147.432
124.452
462.198
456.985
373.34
287.771
240.332
844.496
785.522
614.652
461.439
383.791
1147.42
1033.97
791.389
585.875
486.217
41.84
46.2775
41.6897
34.6058
29.9211
89.2469
96.5606
85.1148
69.3729
59.3447
176.861
186.437
160.402
128.249
108.592
317.158
324.414
271.931
213.276
178.996
488.319
484.436
396.304
305.732
255.061
612.275
596.849
481.64
368.139
306.133
2450.25
1239.3
31.5778
11.2687
11.0794
7.88413
17.9104
1897.79
1353.23
664.042
748.511
156.754
318.929
84.9881
111.062
63.5901
1859.36
539.281
139.752
113.178
241.202
175.189
91.6377
60.5835
32.4986
23.3366
65.7021
54.2044
2181.66
915.313
1161.36
452.118
267.886
595.202
88.317
32.2147
113.187
4254.65
3039.88
2085.73
1466.1
1629.87
2316.86
1873.6
1352.79
968.421
816.083
71.5329
77.6616
68.7763
56.3196
48.342
26.0672
29.2913
26.8292
22.6025
19.726
25.7999
29.3043
27.1227
23.048
20.2178
18.4136
21.0236
19.5699
16.7187
14.7163
41.242
45.9786
41.758
34.9028
30.3004
3473.98
2723.09
1928.13
1354.08
1505.62
2523.19
1993.39
1414.44
1009.74
882.311
1312.76
1160.56
882.174
646.212
535.002
1454.89
1212.62
877.669
635.473
512.786
335.901
334.407
274.937
212.442
176.542
654.809
611.323
480.179
359.691
294.676
187.528
195.17
166.2
131.712
110.782
242.934
249.262
209.473
164.182
137.14
142.122
150.847
130.581
104.748
88.6442
3403.24
2662.75
1885.9
1333.86
1488.68
1084.71
984.218
761.054
565.332
472.622
302.342
305.328
253.794
197.821
165.616
246.783
252.317
211.948
166.587
140.14
507.631
492.28
397.499
304.026
254.044
377.299
378.279
312.496
242.626
203.169
201.792
209.435
178.08
141.238
119.278
135.603
144.299
125.288
100.896
85.7655
74.0873
81.2156
72.5049
59.6899
51.3325
53.5116
59.242
53.4277
44.3837
38.3876
146.302
154.495
133.307
106.82
90.5302
121.443
129.496
112.723
90.9822
77.4422
3862.31
2858.71
1986.52
1399.46
1558.72
1753.72
1474.78
1089.51
791.309
665.752
2285.9
1954.97
1431.38
1035.14
933.045
925.237
860.155
674.003
505.456
421.202
566.572
552.802
447.431
342.56
285.83
1198.64
1090.14
843.618
625.973
522.748
194.858
202.816
172.83
137.276
115.987
73.1237
79.6176
70.6604
57.9371
49.743
247.355
253.661
213.468
167.985
141.367
190.56
230.245
299.235
365.292
367.939
171.935
23699.5
23525.8
24256.9
26042.7
20955.2
20622.9
21576.3
19071.1
21520.3
34676.3
21453.9
34136
24697.9
20216.9
40893.1
21247.5
20851.4
21335.1
22667
18139.5
17897.8
19254.1
17330.6
20490.3
41242.4
20206.3
38984.3
23956.1
26220.7
42759.7
17904.2
17339.8
17282.2
18137.2
15227.1
15718.4
15887.2
14848.4
22097.5
32194.6
22404.8
31011.7
24485.9
28289.8
34119.8
14229.2
13741.1
12899.2
13418.8
12387.5
13105.4
11905.8
11392.7
17605.7
24304.3
17821.7
22422.2
18761.3
21278.3
24329
10882.2
10481.4
9546.35
9878.78
10037
10786.9
8859.98
8645.14
14026.4
16141.3
14232.8
14230.7
13938.1
13507
15440.5
8944.53
8649.52
7211.85
7447.81
8149.56
8378.35
6801.12
6579.23
11356.4
10837.5
11229.7
9652.68
10527.5
8558.57
10850.1
20053.8
18431.7
23179.2
25510.7
16684.8
15381.7
19904.2
17336.8
14956.7
8337.29
14531.9
8381.23
11957
10375.9
10831.5
17336.5
16123.3
19609.2
21244
14883.9
13945.8
17271.9
15171.1
12109
6623.48
11787.7
6700.09
9335.32
7648.24
8142.34
13495
12733
14979.4
15900.3
11913.8
11121.6
13622.5
12191
9283.86
5019.17
8775.87
4878.99
7016.8
5121.11
6259.55
9324.76
8886.84
10628.7
11132.5
8325.39
7634.51
9945.22
8889.74
6258.41
3472.66
5939.72
3423.81
4796.15
3681.99
4463.48
6489.76
6224.45
7639.87
7941.48
5704.11
5154.88
7278.13
6535.5
4267.03
2770.12
4045.36
2739.24
3469.53
3026.4
3420.4
4530.5
4350.63
5665.57
5869.25
4065.46
3851.64
5382.95
4968.13
3093.03
2296.76
2984.17
2313.33
2674.7
2664.95
2866.96
16426.2
9279.46
25794.4
17348.2
28251.5
21324.3
41694.8
55250.2
56026.9
72274.4
37492.6
33520.7
23743.1
19577
12045.9
8077.02
24401.8
22329.6
21897
23901.6
32106.1
25521.8
40094.5
28720.6
11156.3
8112.53
6338.69
5164.18
12499.1
10837.8
7988.12
7315.49
27547.8
26442.5
24801
17761.7
18510.6
15859.3
14220.4
16751.6
22166.6
22587.4
52868.1
55203.1
33128
34981
24691.3
20554.6
23223.8
15347
11123.4
12017.4
11697.4
19826.5
6139.69
8530.47
15851.5
26267.8
9820.58
12940
16085.5
34499
11554.2
22710.1
4044.34
13335.6
3353.35
9936.56
18225.6
22227
20495
23015.3
20454.5
19167.6
22628.7
19633.8
19914.1
27777.4
19068.4
26493.6
20860.6
23356.5
21145.7
23468.2
23897.8
19775.8
24238.2
19683.4
18769.8
28415.3
18296.9
28716.2
30153.4
42222.8
37885.8
65527.4
31711.4
49591.8
37033.9
71816.1
28754.5
36737.1
38339.9
62828.2
28614
34123.6
39005.2
62501.9
12375
16732.1
32409.1
59101.8
14777.6
17076.1
40585.8
65080
17021
16932.6
49132.4
68645.6
26694.7
22393.2
28674.4
33968.2
61825.7
21470.6
25413.9
28413.5
29315.2
72137.2
19812.9
23378.2
26084.3
34514.7
82040.7
3613.36
4184.21
7269.42
20694.4
5102.62
5479.78
9957.01
21921.5
7019.48
5338.99
12920.2
23117.9
18567.5
14654.6
20830.4
16117.1
23257.9
16577
20161.2
14665.1
15850.7
25145.8
17649.1
13960.9
21360.6
17408
22999.4
18093.1
23394.8
18284.2
16379.2
24322.7
21788.6
22225.2
21587.2
22839.9
18024.4
16569
17643
17028.4
23762.2
22487.4
24031.2
22089.5
21211.1
22890.8
21147.1
22939.8
17070
17365.4
16949.8
17377.8
23407.9
22082.2
23399
22033.6
24080.5
21835
16219
20680.6
24453.2
21679.6
16062
21088.6
23942.3
21399.1
16561.1
20615.5
23810.6
20966
17027
20475.5
2175.69
942.589
418.057
1115.02
409.063
267.677
3138.85
1054.31
491.473
2005.57
1007.3
473.468
2929.9
1220.68
724.965
3302.92
1579.09
866.314
9649.47
5081.38
2798.54
10704.5
5813.33
3286.03
9317.3
4939.57
2844.51
8110.18
3871.55
2100.28
5030.39
1959.27
934.143
9578.65
5130.42
2715.76
11914.4
6190.91
3215.46
11030.3
5158.93
2523.85
8866.5
3721.89
1767.47
5275.95
1867.89
775.354
28146.1
24862.9
33013.2
26620.4
35138.2
27112.7
46224.4
30782.2
18354.9
15753
18686.2
14880.3
21331
17130.1
21881.7
16026.9
21433.3
19905.6
19475.7
19426
22032.7
21234.4
29605.7
30911.8
35405.9
37604.7
22560.6
24311.9
20229.4
20202.5
22099
23242.3
10549.7
4573.82
10188.5
5155.96
11098.8
4599.75
10458.2
5075.7
11470.4
4604.5
11086
5421.63
11140.4
5755.11
11525.4
5621.35
17519.6
12849.1
18613.5
13248.3
21097.3
17007.1
22896.8
17416.2
16529.7
9447.75
16225.1
9038.44
19908
13387.7
20505.8
13202.1
24668
17603
25091.4
17393.9
17022.4
9580.26
17216.9
9454.85
8754
4333.63
6139.83
3146.22
7643.69
3682.94
5723.58
2868.75
9258.95
4705.49
6284.1
3243.37
9337.24
4867.59
6201.07
3210.84
1260.72
505.163
2001.52
911.033
1306.93
596.526
2090.04
1064.03
1568.58
906.552
2289.3
1390.78
7534.39
14018.1
4914.01
4300.71
2562.78
12675.2
7236.39
3436.73
3303.69
1902.22
14559.5
9901.93
6815.77
4467.13
2336.79
180.964
60.7263
435.483
245.869
241.332
79.6799
569.244
330.974
440.596
174.024
824.559
493.414
11308.4
8591.87
6068.98
4302.25
3096.57
2155.32
2315.74
1340.07
1321.86
790.108
11437.8
8156.75
7294.55
4651.18
4694.55
2791.77
2959.28
1670.63
1716.48
1107.79
8314.17
4721.87
8692.03
4949.36
11931.8
7839.43
12267.9
8248.79
5958.33
3209.07
5551.5
2985.54
8845.4
5012.45
8757.33
4978.48
12332.5
8620.11
12200.6
8592.39
6169.51
3247.08
6108.7
3243.37
3725.53
1943.01
2073.08
1357.42
3463.41
1783.43
1963.14
1230.51
3921.3
2003.26
2123.11
1420.31
3968.25
1993.19
2210.76
1426.65
55.4198
29.7587
15.525
296.542
81.5829
39.5556
52.0596
37.0648
20.9289
353.529
106.738
55.12
109.44
77.8086
49.003
455.132
155.866
83.8059
5367.7
2883.82
1650.71
2601.37
1406.59
827.043
1307.22
698.588
420.96
737.69
376.134
218.386
625.745
230.043
121.411
5049.06
2582.38
1350.39
2603.13
1262.33
659.445
1456.01
668.179
348.33
898.953
394.123
195.944
887.879
282.541
132.133
1499.48
435.551
121.519
30.3201
1757.37
501.378
136.466
33.1369
1495.88
432.575
120.863
30.1874
1782.85
514.231
142.833
35.2855
1481.41
420.908
124.644
32.6847
1828.89
517.536
153.373
40.0606
1998.06
555.324
148.869
35.8534
2008.54
565.421
146.121
34.5147
1519.73
447.615
134.139
35.1167
1127.02
346.978
107.982
29.4583
1284
384.645
120.645
33.8391
1031.28
321.848
102.076
28.6506
1665.73
489.552
139.917
34.9321
1173.72
362.131
110.227
29.5563
1722.4
509.397
142.56
35.4717
1180.04
368.976
112.059
30.3746
987.308
328.292
100.388
27.0034
574.861
220.953
76.1443
22.241
982.178
324.464
99.9143
27.1031
603.794
226.228
77.1722
22.51
1010.47
323.376
102.007
28.1946
696.655
244.118
81.3101
23.3614
974.23
305.379
98.1441
28.2719
778.28
256.364
86.375
24.8009
888.641
287.261
93.6419
27.3233
314.439
151.621
51.1068
11.2164
156.676
119.362
41.4027
9.2663
354.546
162.448
54.0059
12.0209
186.707
129.694
43.8503
9.74514
443.283
183.396
58.1711
12.5107
250.288
148.739
47.5519
10.3201
567.673
210.401
65.2997
14.1254
340.493
172.758
52.9084
11.3404
671.236
236.706
74.0456
16.5658
407.393
194.555
57.9894
12.3015
756.277
264.876
78.0308
16.6358
454.133
221.312
66.1052
13.8453
726.811
254.199
76.1137
16.4204
424.054
210.687
62.4435
13.1049
767.205
269.758
77.105
15.7959
463.033
227.366
67.2583
13.9656
783.221
273.15
77.8987
15.9291
475.077
230.672
68.2394
14.161
7.28753
2.07573
0.554452
0.13817
0.0257736
7.65849
2.13565
0.564457
0.139849
0.0260149
7.38941
2.12974
0.566926
0.140845
0.0262264
8.01713
2.20931
0.579917
0.143172
0.0265845
7.781
2.1879
0.578807
0.143505
0.0266952
8.58894
2.2689
0.592926
0.146217
0.0271308
8.32017
2.31835
0.609397
0.150228
0.0278509
8.34942
2.36191
0.624474
0.154206
0.0285977
8.16413
2.26189
0.596068
0.147439
0.0273883
7.62533
2.23032
0.596896
0.148434
0.0276239
8.00809
2.2058
0.584257
0.14498
0.0269749
7.53104
2.19766
0.588228
0.146398
0.0272616
8.13909
2.30201
0.609615
0.150819
0.028002
7.73525
2.26475
0.607545
0.151159
0.028129
8.3613
2.34823
0.622869
0.154285
0.0286593
7.93453
2.30712
0.618566
0.153978
0.0286641
6.83904
2.00022
0.542183
0.136193
0.0254992
6.25551
1.93849
0.533528
0.134866
0.0253185
6.9531
2.04218
0.552142
0.138332
0.0258581
6.37774
1.97545
0.542053
0.136666
0.0256166
7.22013
2.10633
0.565702
0.141215
0.0263473
6.65605
2.04361
0.556174
0.139557
0.0260945
7.3214
2.1459
0.575757
0.143567
0.0267653
6.94132
2.11471
0.570524
0.142543
0.0265971
7.32739
2.16725
0.581576