/*--------------------------------*- C++ -*----------------------------------*\
| =========                 |                                                 |
| \\      /  F ield         | OpenFOAM: The Open Source CFD Toolbox           |
|  \\    /   O peration     | Version:  2306                                  |
|   \\  /    A nd           | Website:  www.openfoam.com                      |
|    \\/     M anipulation  |                                                 |
\*---------------------------------------------------------------------------*/
FoamFile
{
    version     2.0;
    format      ascii;
    arch        "LSB;label=32;scalar=64";
    class       volScalarField;
    location    "0.3";
    object      gradTz;
}
// * * * * * * * * * * * * * * * * * * * * * * * * * * * * * * * * * * * * * //

dimensions      [0 -1 0 1 0 0 0];

internalField   nonuniform List<scalar> 
5712
(
12634.4
40927.8
10290
41634.2
7404.49
41703.9
10806.6
59861.3
13071
81114.6
13497.3
61805.2
13534.1
52863.4
14143.8
48168.5
8395.86
5390.15
22794
13619.9
7844.04
4043.53
23156.5
11123
10211.3
8171.82
32350.6
24909.3
7720.93
6331.74
31547.9
25035.3
18145.8
7854.95
15593.3
7124.83
7932.97
17829.7
55864.6
14708.1
20253.6
6220.93
67345.2
17724.2
17522.9
5324.76
42645.9
13012
21707.8
7292.41
39426
12333.7
15313.1
7586.69
19367.4
7890.33
16513.4
8868.45
18684.1
7546.54
19571.7
11550.7
15731.1
7317.59
22195.5
8449.02
7516.63
2778.33
21138.8
14268.7
12637.8
8619.97
18953.8
14516.7
10314.8
7748.14
13959.6
9569.34
20942
14255.7
7981.08
5398.71
3559.67
2793.7
6352.22
4774.71
2702.27
2505.93
8945.54
5844.05
4224.43
2696.57
13956.6
8299.43
11355.4
15006.2
19811.2
15206.8
16856.4
25451.1
8891.73
4646.78
6489.38
8524.66
4164.78
1933.48
2621.97
3046.38
21529.6
36996.7
14304.2
41894.1
24287.9
35296.6
17229.7
43095.4
26200.3
30589.4
21476.9
40952.2
21164.3
19730.5
20269.1
21143.5
24200.3
18203
22246.3
27059
31826
49414
15489.3
15609.5
16491
20838.6
34980.3
41169.6
33521.7
47963.7
41711.5
36991.5
31196.2
46783.9
40347.9
30763.2
27466.3
42944
38159.7
12575.7
8918.82
16283.9
13232.1
21232.1
18435.3
26400.9
24029.6
38577.3
36031.2
11540
9425.67
14585.8
14154.9
18325.1
19274.6
23612.6
25287.1
33389.2
35062.6
11813.9
7886.75
7340.12
7272.15
12073.6
11414.2
7646.66
9646.22
7998.74
7951.33
12804.2
9025.83
2149.21
4451.75
522.163
1258.62
3558.58
6058.38
855.478
1773
2036.06
4715.66
455.713
1334.56
9422.95
7476.51
12367.8
6542.36
15530.3
10745.8
20400.8
12255.8
3251.03
3886.7
6211.43
2915.51
2513.17
2560.09
3594.34
2317.62
24324.7
13342.5
4035.04
27708
14413.6
4417.13
23050.6
12963.4
4161.77
26780.3
14155.4
4321.38
20320.2
11379.2
3500.83
25378.4
13682.1
4196.45
5728.8
3176.59
947.921
9815.83
5819.84
1818.74
14242.8
8484.63
2667.6
18679.9
10733.2
3290.83
24604
13563.5
4232.09
6561.52
3664.48
1214.56
10343.1
6670.57
2335.46
14434.9
9287.1
3161.61
19173.9
11820.6
3888.26
24890
13881.5
4481.59
412.593
1943.31
3083.29
4075.29
3191.12
3024.48
7604.24
6553.58
524.246
591.749
558.846
614.964
334.357
863.986
653.789
1169.44
2404.7
1198.89
3189.98
1866.98
1400.63
2366.46
3512.85
-48.8034
8093.14
1235.31
-2939.82
-876.298
986.041
54.7679
-12.0309
-531.872
5234.04
1673.27
1355.26
603.553
5427.81
1722.97
1748.28
741.892
5589.69
1835.1
2452.08
1092.91
1520.89
649.425
-48.582
41.7157
11368.1
8939.71
5155.78
4547.48
15148.8
12749.1
7397.36
6319.81
3493.13
3080.58
7876.66
5607.54
2723.28
2532.54
950.373
1287.95
4244.2
3654.34
1732.55
1898.24
1649.92
1706.43
395.63
897.662
2291.43
938.114
1949.25
785.737
3957.86
1349.03
3152.25
1183.93
1010.32
530.465
1081.85
422.188
104.575
119.66
545.128
158.923
5630.59
2682.78
1921.92
1378.13
5792.01
2945.02
1920.23
1391.32
6500.13
3555.75
1981.1
1450.58
12115.4
16217.2
8745.97
4369.42
1418.35
14028.5
10332.9
7472.46
4607.15
1674.91
13405
9598.9
5967.87
3352.24
1167.03
1363.51
692.516
885.622
568.259
1634.73
822.415
972.193
628.859
2187.19
1157.28
1133.67
751.531
9553.29
5805.74
6922.56
3874.5
4123.58
2487.35
2765.11
1648.69
1186.08
867.292
8055.1
5939.08
5594.88
3894.35
3614.48
2481.32
2194.61
1537.66
884.107
805.653
5152.8
2932.06
3160.3
1728.72
8380.33
5337.39
5351.23
3726.28
1941.6
1025.88
3048.43
1780.11
2709.16
1173.12
641.835
292.748
3601.8
2315.07
835.849
624.482
1801.81
707.859
447.364
177.499
1022.72
677.82
419.428
443.13
1594.52
1039.39
580.036
571.105
1005.34
459.168
292.301
290.217
172.968
62.891
-155.558
-25.6636
321.792
110.992
27.4927
279.218
72.525
17.0172
401.071
144.101
37.6811
317.675
86.7141
20.9746
553.68
208.044
52.8151
388.462
109.931
25.9388
3270.46
1647.02
463.916
1966.45
884.715
245.824
1261.19
527.732
144.89
797.161
303.667
75.8414
462.182
130.566
28.2963
3832.07
1817.42
542.547
2342.81
988.044
273.394
1449.28
581.743
154.396
875.93
326.964
81.7602
510.912
134.679
30.8476
401.929
87.0955
15.8732
2.14576
165.314
36.7366
7.01909
1.11604
411.999
90.3824
17.2433
2.78815
190.339
42.9177
10.7057
2.60056
424.405
93.7972
20.7781
4.46733
276.502
63.5248
10.3583
1.33949
128.842
32.6569
0.130697
-1.56026
30.6208
12.787
1.31914
0.0698162
283.55
67.3209
10.996
0.219189
200.612
46.3635
11.1344
1.47702
378.478
85.8787
18.2846
3.07059
289.931
64.6369
15.5808
1.92078
171.948
43.2424
7.37638
0.546955
119.143
28.8935
7.53476
1.40225
58.1345
17.0377
3.44675
0.777109
40.6034
11.1569
3.35512
0.926563
469.909
102.958
19.8265
2.6774
388.999
88.4634
21.8486
3.54645
462.426
101.235
19.5058
2.5408
380.245
85.7518
21.5342
3.39482
445.484
97.0268
21.3138
3.54169
366.305
80.9918
21.9405
3.80646
356.9
79.1429
20.2145
4.9285
397.384
86.7431
26.3337
5.05442
288.497
63.6532
17.1682
2.97243
248.282
56.2778
16.157
3.29911
87.2742
19.3647
5.00677
1.30803
265.465
59.2158
16.6294
3.30629
94.6493
20.6885
5.37687
1.41737
285.88
61.9932
17.4448
3.40633
103.161
21.9214
5.65085
1.51178
269.951
57.6832
17.5516
3.39102
106.547
22.0966
6.12483
1.61197
246.243
52.9232
16.2549
3.1776
96.2719
20.5189
6.26012
1.61819
141.067
30.3906
7.69802
1.52343
67.902
15.4183
4.02154
1.05372
188.504
39.9749
11.2769
2.25686
82.5352
18.1765
5.23668
1.38606
87.8627
19.383
4.74616
1.03136
42.6578
10.0809
2.41168
0.678721
31.823
7.68374
2.23411
0.605699
15.9412
4.26736
1.17117
0.362187
0.369849
0.0611828
0.0101775
0.00175625
0.000364464
0.167254
0.0281728
0.00481315
0.00085338
0.000181675
0.42819
0.0722565
0.0128804
0.00241284
0.000542159
0.247859
0.0432331
0.00836654
0.0016828
0.000399434
0.451279
0.0790237
0.0152598
0.00306531
0.00072787
0.370667
0.0872628
0.019551
0.00427286
0.00107077
0.246513
0.0722521
0.0174389
0.00396696
0.00102262
0.186301
0.0582667
0.0152616
0.00368192
0.00099255
0.320542
0.0726202
0.0158068
0.00340582
0.000848185
0.24355
0.0566066
0.0129152
0.00287802
0.000733527
0.405914
0.0757027
0.0152808
0.00317012
0.000770629
0.256887
0.0624687
0.0143879
0.00320328
0.000812445
0.267296
0.0648005
0.0147483
0.00327544
0.000835382
0.204909
0.0496491
0.0118612
0.00274304
0.000720202
0.168689
0.0458088
0.0117433
0.00283678
0.000769151
0.143801
0.0369971
0.00938343
0.00227385
0.000620137
0.370576
0.0568338
0.0090853
0.00152238
0.000307786
0.166062
0.0235106
0.00365912
0.000606618
0.000121839
0.399303
0.0646229
0.0109707
0.00196582
0.000425365
0.176775
0.0266747
0.00441656
0.00077997
0.000166821
0.397143
0.0643193
0.0116143
0.00222934
0.000512784
0.213125
0.0354392
0.00663148
0.00130919
0.000307174
0.407544
0.0746444
0.0151405
0.00315338
0.000767681
0.269226
0.0483704
0.00977047
0.00203107
0.000493534
0.297896
0.0706274
0.0160665
0.00355092
0.000895302
3468.94
8811.33
3554.66
8673.34
3854.05
8407.97
4203.82
8240.19
3917.72
7959.67
988.118
2412.27
2117.88
4447.89
361.224
1074.8
35.3937
307.326
28299
9791.51
4695.51
3069.88
2431.38
8015.17
3174.88
1637.63
1050.28
800.244
27846.9
9613.19
4622.78
3022.35
2398.74
8135.63
3393.33
1669.72
1074.91
836.141
26427.7
9138.22
4403.02
2881.08
2286.57
7838.6
3263.26
1606.75
1034.99
806.044
24162.6
8375.63
4049.61
2652.7
2104.53
7470.82
3077.68
1506.7
965.888
748.088
20470.5
7129.37
3466.05
2275.27
1805.69
6914.78
2816.76
1375.81
880.837
680.943
10261.1
3754.79
1852.59
1218.11
964.988
3349.28
1390.37
681.689
437.355
338.995
14881.7
5350.11
2621.42
1721.16
1364.68
4939.01
2035.79
1004.22
647.595
503.291
6129.89
2269.08
1125.24
741.39
587.316
1885.88
805.919
394.943
253.815
197.991
2109.77
780.756
388.763
256.847
203.716
699.82
272.081
128.28
84.8007
63.0358
-1415.89
-334.07
6487.12
-1293.31
909.878
972.29
2589.17
3399.32
2287.2
4378.79
4168.03
6416.77
5540.55
6824.09
2773.91
3667.35
2639.62
3140.77
1384.19
1437.66
1214.42
559.655
118.178
14.1039
9.39809
8.94941
49.6795
9442.26
3113.56
2789.59
2184.05
522.407
311.022
1451.22
205.939
186.08
170.065
46.2655
5009.35
2158.42
788.144
469.827
1199.77
624.334
206.496
306.332
15.1416
65.1789
316.393
247.717
5378.09
1744.73
2924.94
1077.97
1099.36
2491.99
386.623
49.1862
407.33
632.412
364.944
222.284
132.598
62.5697
345.135
211.541
122.449
64.4306
22.1772
92.309
65.4661
41.2345
22.0379
6.87608
11.5758
8.63903
5.69216
3.13981
0.990932
7.40304
5.2952
3.36033
1.80521
0.562872
7.04522
5.04197
3.20642
1.72798
0.540894
39.4894
28.5759
18.3515
9.954
3.12769
5317.43
3309.67
1945.22
1082.87
548.665
1959.59
1180.49
713.228
382.092
142.248
1760.35
1099.26
653.148
344.407
123.564
1309.48
743.981
427.747
222.044
73.1247
320.391
178.143
102.966
53.3717
17.2494
239
167.038
104.151
55.4914
17.4944
1007.9
651.396
381.322
196.115
63.4691
167.759
119.674
74.188
39.4922
12.5993
141.085
97.7344
60.6527
32.2614
10.1536
135.612
97.1791
61.7196
33.3249
10.5735
32.5475
21.0188
12.3254
6.32038
1.96067
2876.07
1846.68
1108.62
624.594
314.675
1385.59
873.446
526.721
279.443
98.3741
588.471
403.216
248.189
131.434
41.7933
350.334
239.571
147.128
77.7088
24.5527
855.054
564.653
337.826
175.883
56.3926
473.65
327.893
203.073
107.705
33.7301
155.087
106.64
65.7936
34.8526
10.9573
235.568
164.7
102.574
54.4529
16.9892
11.8815
8.65977
5.71577
3.22215
1.05827
50.718
35.8747
22.5834
12.0851
3.77967
240.169
166.011
102.482
54.1405
16.9372
190.374
133.153
83.0109
44.1231
13.7944
2848.31
1584.99
957.041
539.486
265.131
1092.99
672.039
390.6
204.672
70.6739
1751.42
1108
651.658
345.621
123.146
704.619
450.04
264.68
139.314
47.0912
793.941
529.688
320.023
167.88
53.3012
1624.49
1004.93
599.623
314.909
104.16
294.301
203.977
126.226
66.7851
20.858
38.2623
27.057
17.0274
9.10899
2.84646
307.558
212.1
130.973
69.3348
21.7549
-51346.9
-81127.2
-42900.6
-65555.9
-43079.3
-85352.9
-51320
-108418
-32956.9
-22755.7
-36002.3
-22990.8
-28813.3
-18317.4
-34602.6
-18799.1
-45420.7
-36618.6
-64121.6
-49136.2
-39118.2
-33400.4
-53255.4
-42488.8
-30701.4
-32308.3
-25294.6
-25164.5
-31740.9
-28826.2
-66622.4
-18332.5
-26533.1
-10096.1
-76718.5
-21515.2
-22817.5
-8978.16
-52647.5
-16560.1
-27846.5
-10899.9
-49199.6
-15131.6
-26311.6
-11018
-32256
-12044.8
-25143.9
-11618.3
-28019.4
-10531.4
-25671.3
-13528.2
-22163.7
-9336.65
-27758.2
-10271.2
-9701.89
-3559.65
-18691.4
-13083.6
-16269.5
-10093.7
-14768.9
-11562.5
-13086.3
-8772.29
-17937.7
-11114.4
-21349.3
-14696.3
-11275.9
-6898.64
-6259.75
-4183.96
-9109.35
-6028.73
-5088.26
-3745.33
-12289.6
-7271.38
-6860.22
-3977.88
-17067.9
-9442.9
-12590.1
-15615.2
-22098.5
-16304
-17948.1
-26206.4
-11440.2
-5550.42
-7556.23
-8989.01
-6144.24
-2654.55
-3554.17
-3429.45
-27542.4
-35408
-16448.6
-42626.5
-28453.1
-33402
-19012.1
-43512.6
-28256.2
-29391.7
-22745.2
-41136.4
-15540.3
-11585.4
-19136.6
-23283.4
-25586.4
-15025.4
-19799.7
-26016
-31795.7
-49866.9
-10747.4
-13128
-16170.4
-21545.2
-35676.4
-34143.6
-23127.9
-45295.1
-33704.7
-31231.2
-22336
-44534.7
-33499.8
-26774.6
-20618.3
-41320.2
-32974.6
-11889.7
-8961.13
-15175.4
-11950.9
-19093.5
-15546.1
-23659.7
-19991.3
-37495.1
-32737.5
-10134.3
-8757.2
-13071.6
-12453.2
-16932.7
-16911.9
-22622.6
-22734.9
-33188.3
-32700.7
-10709
-7466.41
-7499.53
-7344.7
-10161.3
-10486.4
-7381.82
-9254.03
-8455.74
-8280.34
-12537.7
-8969.77
-2753.28
-4777.9
-1232.73
-1667.5
-3953.84
-6119.18
-1439.14
-2026.8
-2695.51
-5140.56
-1167.26
-1770.83
-9945.32
-7852.13
-12800.5
-6827.54
-15772.4
-10885.2
-20817.5
-12358.6
-3810.07
-4273.85
-6589.24
-3185.57
-3087.75
-2937.09
-3949.52
-2571.94
-13875.5
-4704.11
-19424
-6478.65
-13999.4
-4891.35
-19716.8
-6884.35
-13508.4
-4639.77
-20207.4
-7393.76
-5447.27
-1768.97
-8012.56
-2853.6
-10658.3
-3908.06
-14203.8
-5082.27
-21078.6
-7929.4
-5952
-2083.2
-8549.59
-3564.23
-11793
-4824.84
-16169.4
-6378.57
-21983.3
-8030.65
-10049
-8825.06
-8244.98
-7656.54
-17714.5
-13030.1
-15011.2
-11984.7
-5974.93
-3936.45
-2578.36
-1513.91
-5827.03
-4353.97
-2624.75
-2097.07
-4898.22
-6493.77
-5451.22
-6708.77
-4852.12
-3803.44
-6239.47
-2488.39
-11931.9
-4397.59
744.441
-1504.03
-2929.42
-2070.67
-1346.69
-1235.71
-2135.17
-860.548
-877.011
-328.313
-2375.26
-945.468
-1327.77
-459.536
-2886.82
-1130.62
-2345.13
-852.041
-2024.02
-663.936
-885.362
-232.411
-6992.94
-6236.59
-5905.7
-4523.5
-10480.7
-9272.09
-9115.91
-6740.48
-3605.76
-2862.36
-4566.84
-3949.1
-4105.62
-3012.35
-2414.43
-1913.22
-6301.6
-4510.19
-3678.85
-2845.06
-2468.92
-1906.39
-1399.29
-1242.44
-1954.94
-744.597
-1724.64
-672.583
-2431.74
-922.073
-2345.41
-923.959
-1286.64
-526.637
-1132.98
-406.122
-616.521
-214.342
-705.193
-188.499
-2590.64
-2504.63
-1144.86
-1160.44
-2723.75
-2695.98
-1163.28
-1160.97
-3112.69
-2867.81
-1230.96
-1145.93
-4964.29
-7968.73
-3520.86
-2113.51
-846.606
-10701.3
-6986.26
-4989.45
-3191.1
-1295.32
-8237.89
-5755.87
-3723.86
-2295.36
-853.159
-2134.7
-1534.81
-1093.91
-1080.17
-2295.61
-1645.3
-1111.49
-1095.11
-2573.35
-1952.96
-1122.09
-1118.19
-9105.93
-6513.98
-6717.91
-4665.83
-4482.16
-3143.96
-2817.74
-2028.51
-1091.66
-1049.81
-6868.26
-5818.72
-4679.06
-3914.9
-3010.45
-2479.21
-1846.82
-1527.72
-686.969
-808.302
-3804.44
-2431.33
-2759.07
-1432.92
-6468.85
-4652.16
-4888.44
-3337.7
-1655.01
-818.73
-2261.91
-1452.96
-2757.05
-1123.83
-895.994
-362.985
-3779.55
-2291.34
-1249.71
-762.323
-1789.41
-659.341
-580.38
-207.932
-860.747
-559.89
-353.114
-391.947
-1215.23
-858.699
-446.703
-498.862
-976.141
-424.091
-272.816
-271.723
-223.182
-70.653
145.47
25.0065
-919.08
-297.677
-646.219
-101.905
-1026.65
-354.83
-672.689
-114.561
-1178.75
-391.527
-665.824
-105.344
-3750.16
-1164.86
-2698.63
-852.457
-1963.91
-659.776
-1194.79
-369.923
-626.043
-118.827
-3869.85
-1148.08
-2522.83
-679.378
-1605.86
-425.842
-968.178
-234.049
-593
-112.3
-251.439
-60.2463
-10.9383
-1.13639
-101.999
-24.622
-4.88592
-0.736926
-266.507
-63.3181
-12.108
-1.7394
-118.87
-27.7116
-7.91989
-2.13362
-292.764
-67.9572
-15.6009
-3.42289
-196.552
-42.5552
-5.24602
-0.0871539
-97.4904
-18.6758
4.31399
2.81351
-28.2191
-2.24703
2.86358
1.15576
-222.768
-51.1747
-6.70571
0.981348
-160.937
-34.7174
-7.83678
-0.473557
-284.875
-65.4457
-13.6512
-1.95298
-219.368
-47.3272
-11.1914
-0.596016
-147.68
-32.8952
-4.04649
0.434593
-102.677
-21.9306
-5.13436
-0.602313
-55.2775
-10.2716
-0.604551
0.134281
-36.0372
-6.70544
-1.45071
-0.232921
-322.242
-75.6061
-14.135
-1.30705
-318.261
-71.2595
-18.5411
-2.34917
-318.845
-74.0512
-13.712
-1.12242
-310.318
-68.8487
-18.2195
-2.18656
-310.916
-70.905
-15.9765
-2.32172
-293.735
-64.3334
-18.8596
-2.67152
-237.384
-53.7547
-14.7163
-3.67576
-313.668
-67.611
-22.5406
-3.68962
-208.451
-44.5702
-12.428
-1.45293
-239.013
-48.4329
-14.6192
-2.5558
-92.4662
-17.3039
-4.17447
-1.04738
-237.789
-47.9062
-14.4092
-2.44682
-93.074
-17.3133
-4.28816
-1.10029
-228.178
-45.5526
-14.5134
-2.4664
-88.6974
-16.2789
-4.08609
-1.0731
-204.741
-41.1326
-14.7417
-2.51528
-81.5813
-15.0178
-4.35602
-1.10466
-178.089
-35.9646
-13.053
-2.29648
-63.5139
-11.8038
-4.22501
-1.03491
-115.419
-22.6965
-5.49705
-0.765096
-42.8354
-7.72403
-1.95536
-0.42308
-147.566
-29.2997
-8.70408
-1.43271
-48.7872
-8.86413
-2.93517
-0.713969
-74.8339
-14.2529
-2.99589
-0.386078
-29.706
-5.15985
-0.872775
-0.169429
-26.556
-4.21536
-0.844713
-0.0616109
-10.4954
-1.18332
-0.0347458
0.0458138
-0.202677
-0.030886
-0.00441816
-0.00060771
-8.95851e-05
-0.0946583
-0.0138138
-0.00194104
-0.000263291
-3.78165e-05
-0.225464
-0.0302956
-0.00400682
-0.000508068
-6.30703e-05
-0.122483
-0.0136546
-0.00163891
-0.000177811
-1.13183e-05
-0.206195
-0.0236665
-0.00279329
-0.000276684
-6.78117e-06
-0.0529218
-0.00721897
-0.000352485
0.000174521
0.000103667
0.0617386
0.0100513
0.00312313
0.000928331
0.000296056
0.160727
0.0381499
0.00947394
0.00231419
0.000644169
-0.0576866
-0.00770643
-0.000254592
0.000211116
0.000112127
-0.0115014
0.000812423
0.000882011
0.000343873
0.00012555
-0.151223
-0.0171105
-0.00181126
-0.000113907
2.74162e-05
0.0130203
0.000381471
0.000230439
0.000138668
6.43571e-05
-0.0123648
0.00273755
0.00210228
0.000744329
0.000250995
0.0148693
0.00936703
0.00298623
0.000820373
0.00024757
0.0980373
0.0293208
0.00770271
0.0019086
0.00053335
0.0651942
0.0227087
0.00621991
0.00155997
0.000437854
-0.194711
-0.0291631
-0.00418672
-0.000582533
-8.80764e-05
-0.085716
-0.0120038
-0.00170099
-0.000237388
-3.63271e-05
-0.201718
-0.0295654
-0.00410099
-0.000551067
-7.84871e-05
-0.0883418
-0.0123603
-0.00172053
-0.000235283
-3.47976e-05
-0.193831
-0.0238472
-0.00302689
-0.000368424
-4.08461e-05
-0.0920896
-0.0112948
-0.00148488
-0.000192989
-2.46399e-05
-0.133462
-0.015399
-0.00192665
-0.000209027
-8.90365e-06
-0.090576
-0.0103829
-0.0013665
-0.000170453
-1.66733e-05
0.00540315
-0.00179388
-0.000337464
-1.81269e-06
2.5849e-05
-3566.16
-8039.95
-3731.03
-8057.44
-4140.28
-8053.92
-4463.39
-8070.61
-4091.93
-7843.71
-1220.71
-2593.12
-2331.92
-4559.25
-580.091
-1248.19
-239.626
-466.61
-28936.5
-9925.48
-4720.7
-3074.19
-2432.16
-8141.09
-3213.97
-1646.88
-1051.97
-800.52
-28437
-9736.31
-4645.96
-3026.33
-2399.51
-8273.11
-3437.76
-1679.21
-1076.67
-836.479
-26913.4
-9240.32
-4422.31
-2884.44
-2287.27
-7976.77
-3304.93
-1615.5
-1036.63
-806.405
-24520.5
-8451.75
-4064.1
-2655.26
-2105.11
-7595.57
-3113.58
-1514.13
-967.257
-748.388
-20704.8
-7179.03
-3475.48
-2276.93
-1806.07
-7012.74
-2844.79
-1381.6
-881.914
-681.194
-10345.6
-3770.73
-1855.49
-1218.64
-965.132
-3413.36
-1404.69
-684.428
-437.846
-339.123
-15023.3
-5378.65
-2626.72
-1722.09
-1364.91
-5011.29
-2054.66
-1008.02
-648.279
-503.461
-6180
-2278.02
-1126.85
-741.721
-587.427
-1940.26
-817.096
-396.976
-254.171
-198.071
-2143.29
-786.319
-389.707
-257.012
-203.761
-747.569
-281.557
-129.996
-85.1575
-63.1605
-1914.93
-3673.27
-10841.4
-1743.01
-10750
-4861.76
-10313.9
-5064.27
-19925.8
-10737.1
-22294.9
-11779.3
-0.381518
-1.25434
-2.32432
-3.0125
-0.28499
17.3496
-1.03162
-3.54553
-7.19771
-11.4233
-11.795
4.86575
-0.190019
-0.140143
-0.608559
-0.507357
-0.937335
-1.02532
-0.0467416
-1.08239
3.15624
-0.73421
13.5588
3.26398
84.872
241.589
543.912
403.669
323.215
96.2741
64.1929
199.257
412.866
571.051
499.311
194.011
-0.317645
-0.241813
-0.162865
-0.0915193
-0.0292393
-1.04237
-0.791739
-0.532039
-0.29843
-0.0952501
-1.92427
-1.45494
-0.973094
-0.543711
-0.173156
-2.48438
-1.87015
-1.24532
-0.693385
-0.220387
-0.262432
-0.223589
-0.166979
-0.101152
-0.0335805
13.8942
10.0992
6.49193
3.51474
1.10051
-0.854462
-0.646276
-0.432277
-0.241495
-0.0768933
-2.92881
-2.20814
-1.47222
-0.820365
-0.260845
-5.91505
-4.43187
-2.93601
-1.62757
-0.516024
-9.32561
-6.93264
-4.55669
-2.51022
-0.793178
-9.55738
-7.04492
-4.59279
-2.51434
-0.791939
3.86677
2.78317
1.77076
0.950729
0.29635
-0.158887
-0.12164
-0.0824349
-0.0465684
-0.014922
-0.117593
-0.090432
-0.0615873
-0.0349386
-0.0112228
-0.507954
-0.388046
-0.262398
-0.147966
-0.0473649
-0.424654
-0.325532
-0.220938
-0.124974
-0.0400763
-0.780802
-0.595077
-0.401404
-0.225885
-0.0722151
-0.854798
-0.651969
-0.440055
-0.247739
-0.0792241
-0.0526857
-0.0532119
-0.04502
-0.0295031
-0.010144
-0.902433
-0.688152
-0.464201
-0.261126
-0.0834542
2.53851
1.85253
1.1942
0.647408
0.202774
-0.623497
-0.484572
-0.33223
-0.188938
-0.0606909
10.8693
7.91229
5.09449
2.76197
0.865471
2.59231
1.86675
1.18927
0.639541
0.199575
67.1608
48.2381
30.7
16.5135
5.15911
187.416
132.07
82.7594
44.0911
13.7468
408.804
280.478
172.394
90.9599
28.4462
294.566
197.634
120.479
63.6667
19.9303
255.688
175.176
106.61
55.6514
16.0476
86.1192
61.0254
37.6736
19.6859
5.26859
50.7474
36.3951
23.1262
12.4239
3.8786
155.333
109.877
69.0304
36.8204
11.471
316.325
220.221
136.688
72.4142
22.5451
430.244
295.207
181.445
95.6871
29.8078
377.503
258.568
158.381
83.2574
25.7407
147.834
101.541
62.3069
32.7979
10.1016
0.378906
1.25312
2.33216
3.05944
0.472847
-16.6608
1.02214
3.53096
7.17456
11.395
11.8035
-4.64143
0.189678
0.140587
0.61121
0.511723
0.953927
1.04683
0.119872
1.1487
-2.8657
0.587286
-12.3057
-2.79401
-82.9054
-237.537
-536.079
-404.254
-339.365
-121.927
-63.3489
-197.349
-409.996
-570.881
-506.511
-206.989
0.315984
0.241095
0.162829
0.0917381
0.0293573
1.04237
0.792797
0.533602
0.299757
0.0957639
1.93311
1.46402
0.981074
0.549162
0.17509
2.52848
1.9087
1.27512
0.712093
0.226752
0.42836
0.358957
0.26491
0.159571
0.0529236
-13.3114
-9.6479
-6.18257
-3.33823
-1.04347
0.847887
0.642661
0.430974
0.241365
0.0769719
2.91924
2.20352
1.47124
0.820941
0.261252
5.90126
4.42698
2.93713
1.6305
0.517411
9.31225
6.93271
4.56467
2.51876
0.796702
9.57867
7.07506
4.62365
2.537
0.800219
-3.6718
-2.62722
-1.66024
-0.885916
-0.275088
0.158857
0.121886
0.0828206
0.0469033
0.0150529
0.11813
0.0910179
0.0621274
0.0353201
0.0113604
0.510716
0.390727
0.264668
0.149487
0.0478995
0.428753
0.329137
0.223756
0.126763
0.0406886
0.795872
0.607828
0.410999
0.231799
0.0742081
0.873971
0.667863
0.451787
0.254866
0.0816072
0.115459
0.102872
0.0799122
0.0498519
0.0167926
0.959902
0.734178
0.496977
0.280463
0.0898159
-2.29254
-1.66145
-1.06262
-0.571986
-0.178366
0.510769
0.40787
0.287242
0.166913
0.0542845
-9.82189
-7.11203
-4.55335
-2.45664
-0.767484
-2.19357
-1.55664
-0.975598
-0.517071
-0.159911
-65.5554
-47.046
-29.9191
-16.0855
-5.02439
-184.18
-129.724
-81.2608
-43.2882
-13.4977
-402.429
-275.711
-169.238
-89.2181
-27.8969
-292.94
-194.783
-117.54
-61.5675
-19.1625
-265.465
-179.94
-108.122
-55.7145
-15.9149
-103.537
-71.2767
-42.644
-21.5763
-5.70738
-50.0668
-35.8988
-22.8081
-12.2531
-3.82542
-153.822
-108.795
-68.3511
-36.4631
-11.3614
-313.962
-218.438
-135.499
-71.7541
-22.3353
-429.624
-294.322
-180.574
-95.0712
-29.5842
-382.26
-261.168
-159.45
-83.5364
-25.7673
-156.968
-107.105
-65.1092
-33.9238
-10.3812
-1323.85
-610.897
-112.598
-11.0072
-3.28457
-0.969954
-40.7519
-8771.35
-2577.06
-2480.94
-1277.82
-205.733
-1354.3
-85.2029
173.201
5.06666
-4732.41
-1986.31
-658.71
-419.161
-1151.71
-579.482
-195.925
-286.603
41.4002
-35.6645
-265.647
-213.492
-5330.92
-1749.71
-2858.34
-1062.96
-1068.78
-2370.61
-367.918
-30.6332
-371.6
-696.008
-396.701
-235.436
-136.12
-63.1261
-378.27
-230.173
-130.928
-67.3134
-22.7479
-87.7414
-62.0552
-38.9826
-20.7946
-6.48337
-8.90752
-6.52723
-4.21494
-2.28465
-0.713167
-2.33846
-1.46405
-0.796156
-0.371276
-0.105758
-0.476709
-0.104148
0.080866
0.103583
0.0418046
-31.9529
-22.7559
-14.3842
-7.70771
-2.40796
-5023.24
-3168
-1884.7
-1068.18
-563.565
-1593.56
-934.981
-567.177
-309.502
-119.684
-1562.8
-972.934
-580.288
-308.76
-113.756
-781.97
-450.266
-269.824
-144.521
-48.5524
-154.105
-105.601
-65.0472
-34.5405
-10.983
-953.134
-627.753
-373.528
-194.46
-63.4407
-61.1896
-40.6045
-24.503
-12.8787
-4.094
128.86
87.1
52.4878
27.0616
8.23545
6.67239
6.30789
4.65594
2.67104
0.826097
-2652.4
-1691.92
-1014.96
-578.954
-303.676
-1252.05
-776.124
-464.403
-246.562
-88.525
-486.319
-330.107
-202.006
-106.931
-34.2745
-310.596
-211.2
-129.208
-68.1833
-21.6238
-825.47
-549.016
-331.074
-173.601
-55.9809
-434.413
-296.923
-181.819
-95.7208
-29.9061
-146.142
-99.6761
-61.0049
-32.1257
-10.0823
-219.762
-153.209
-95.2103
-50.4957
-15.7611
33.5602
24.5413
15.7669
8.47938
2.61943
-26.8531
-18.316
-11.15
-5.82952
-1.80926
-200.515
-138.068
-85.1126
-45.0098
-14.1327
-163.052
-113.364
-70.3517
-37.3137
-11.6763
-2806.01
-1551.28
-931.739
-524.808
-260.749
-1093.51
-669.52
-387.017
-201.818
-69.5759
-1673.31
-1039.86
-601.996
-316.705
-112.554
-687.478
-433.613
-251.754
-131.328
-44.3843
-768.575
-510.466
-307.269
-160.877
-51.1087
-1528.79
-934.069
-553.532
-290.174
-96.6818
-279.389
-193.154
-119.288
-63.0553
-19.7014
-23.0839
-15.7385
-9.56067
-4.9827
-1.54048
-278.229
-190.167
-116.522
-61.3979
-19.2616
-8.97023
-28.2818
-55.8346
-97.8091
-159.737
-247.494
-37589.8
-33292.8
-29715.3
-33933.6
-27488.1
-21436.2
-23066.2
-16967
-35254.4
-32834.8
-32478
-32168.7
-28545.8
-24118.8
-30882.1
-31601.3
-28281.1
-24231.2
-27415.1
-23606.6
-19477
-19509.5
-15047.5
-32247
-30801
-29680.6
-28855.1
-25582.6
-23156.4
-26092.5
-25267.9
-23086.4
-19181
-21171.7
-19779.4
-16619.4
-16121.3
-13090.9
-27320.2
-27313.9
-25289.5
-25340
-21790.8
-19571.9
-22524.1
-17860.2
-16664.1
-13338.1
-14362.9
-14658.3
-12749
-11679.8
-9930
-20323.9
-21592.5
-18990.2
-20219.4
-16718.1
-14824.7
-17730.8
-11357.8
-10730.3
-8371.17
-8896.65
-9614.84
-8427.44
-7494.34
-6480.41
-13326.7
-14094.2
-12540.6
-13199.6
-11218.2
-9925.56
-11697.7
-4050.56
-3852.7
-2970.72
-3136.3
-3494.82
-3127.03
-2693.54
-2365.71
-4838.42
-5214.34
-4541.79
-4739.1
-4123.19
-3679.42
-4291.71
-11917.7
-11441.5
-19095.5
-20843
-10569.8
-8983.67
-16305.9
-12608.1
-7555.4
-4590.99
-7506
-4792.83
-7297.51
-7020.01
-5150.57
-11568.7
-10767.1
-16919.3
-18671.6
-9677.01
-8351.45
-14300.8
-11539.9
-7455.94
-3776.42
-7283.73
-4049.76
-6488.89
-6286.73
-4532.82
-10063.5
-9362.96
-13984.3
-15253.6
-8425.37
-7351.08
-12044.5
-9916.69
-5935.77
-3308.83
-5813.39
-3604.32
-5159.5
-5116.76
-3931.37
-7468.59
-6981.82
-9971.54
-10714.1
-6310.95
-5515.64
-8803.68
-7439.06
-4759.54
-2515.25
-4610.62
-2726.59
-4100.15
-4003.66
-2962.64
-4749.23
-4462.95
-6261.92
-6663.49
-4001.41
-3448.6
-5618.84
-4786.69
-3009.17
-1598.88
-2919.78
-1747.54
-2609.21
-2514.37
-1881.53
-1682.33
-1585.35
-2214.52
-2344.6
-1423.14
-1226.73
-2005.15
-1726.38
-1015.16
-563.293
-1012.29
-613.615
-926.421
-886.149
-658.582
12585.4
40128.2
10238.9
41636.9
7378.87
41709.1
10799.2
59871.3
13062.2
81127.4
13470.5
61798.2
13479.5
52836.8
14116.4
47205
8384.23
5387.45
22796.1
13620.2
7840.92
4042.97
23160.4
11124.2
10152.1
8118.7
31727
24456.5
7685.87
6315.89
31579.5
25072.9
18158.9
7844.29
15595
7121.04
7925.42
17846.8
55879.9
14709.7
20256.9
6220.46
67358.7
17726.3
17525.5
5324.71
42669.9
13016.3
21714.6
7293.36
39459.3
12339.6
15191
7524.53
19047.6
7765.85
16513.9
8870.11
18714.7
7558.53
19570
11551.3
15741.5
7322.61
22214.5
8456.45
7521.26
2780.2
21137.1
14267.9
12637.6
8619.73
18951.4
14515
10314.8
7747.76
13960.2
9569.55
20940.7
14255.6
7981.57
5398.65
3558.6
2793.09
6352.66
4774.62
2701.56
2505.44
8947.22
5844.29
4223.89
2696.13
13958.7
8300.72
11356
15006.8
19811.1
15207.6
16856.9
25452
8894.72
4648.1
6489.87
8525.06
4165.14
1933.74
2621.8
3046.4
21441.7
37027.5
14233.7
41910
24290.9
35287.4
17238.4
43089.1
26200.1
30587
21478.9
40951.1
21162.9
19727.6
20268.4
21144.5
24202.2
18200.5
22244.5
27057.5
31825.3
49414.4
15487.2
15608.4
16490.7
20838.9
34981.4
41274.5
33643.4
48034.9
41722.7
36974.8
31186.1
46764.8
40339
30757.2
27459.2
42941.8
38157.2
12573.9
8917.55
16282.3
13230.5
21230
18433
26397.6
24026
38576.2
36030
11538.5
9424.45
14584.6
14153.6
18323.9
19273.2
23611.8
25285.9
33389.6
35062.4
11813.2
7886.46
7339.85
7272.13
12072.3
11413.1
7646.02
9645.56
7998.78
7951.62
12803.9
9025.84
2149.05
4451.77
521.881
1258.5
3558.28
6058.03
855.225
1772.81
2036.06
4715.87
455.497
1334.52
9423.28
7476.92
12368.3
6542.73
15530.4
10746.1
20401.5
12256.2
3251.2
3886.96
6211.73
2915.74
2513.17
2560.17
3594.44
2317.71
24409.1
13388.6
4057.6
27753.9
14450.2
4429.08
23044.9
12963.3
4162.23
26776.4
14154.1
4321.8
20316.1
11377.8
3500.67
25376.2
13680.9
4196.27
5727.95
3176.1
947.777
9814.55
5819.06
1818.51
14240.8
8483.54
2667.3
18677.2
10731.9
3290.52
24602.7
13562.4
4231.78
6560.59
3663.93
1214.38
10341.9
6669.72
2335.17
14433.4
9286.08
3161.26
19172.5
11819.6
3887.9
24889.2
13880.6
4481.26
418.859
1945.64
3100.51
4080.37
3193.52
3025.57
7613.67
6556.39
508.23
583.814
540.964
604.661
338.373
863.206
658.122
1168.43
2418.73
1204.33
3195.12
1868.25
1403.7
2375.28
3518.1
-44.8608
8096.13
1236.85
-2925.65
-866.935
992.543
60.3225
-0.669647
-523.157
5240.07
1674.96
1350.67
602.722
5419.18
1721.82
1746.15
741.313
5584
1833.64
2453.83
1092.61
1525.68
650.205
-43.1155
43.5344
11363.5
8937.19
5156.69
4547.38
15145.4
12746.7
7397.72
6319.56
3494.16
3080.47
7872.34
5605.51
2725.48
2532.94
951.849
1288.2
4245.36
3654.47
1732.82
1898.1
1652.52
1706.87
397.833
898.1
2291.79
938.069
1949.1
785.65
3955.19
1348.23
3150.94
1183.4
1012.23
530.998
1082.19
422.363
106.681
120.541
545.563
159.214
5643.35
2680.79
1924.24
1378.1
5783.66
2943.15
1918.5
1390.45
6491.89
3552.14
1979.14
1449.29
12109.4
16212.6
8740.1
4365.75
1417.24
14025
10328.3
7467.74
4603.47
1673.55
13402
9595.54
5965.12
3350.41
1166.35
1359.82
689.562
885.483
567.71
1633.84
822.381
971.257
628.473
2185.42
1156.57
1132.76
751.03
9551.06
5804.51
6919.84
3873.18
4121.11
2486.11
2763.05
1647.66
1185.15
866.68
8053.25
5937.81
5592.73
3893.03
3612.56
2480.15
2193.19
1536.76
883.479
805.114
5150.96
2931.08
3159.65
1728.28
8378.56
5336.34
5350.52
3725.75
1941.1
1025.55
3047
1779.33
2708.96
1172.94
641.881
292.736
3601.53
2314.82
835.736
624.392
1801.69
707.741
447.499
177.529
1022.41
677.566
419.292
442.954
1593.62
1038.85
579.677
570.776
1005.28
459.083
292.319
290.163
173.142
62.9469
-155.382
-25.6034
320.365
110.499
27.4035
279.019
72.6114
17.0226
401.076
144.157
37.7005
317.497
86.6411
20.9709
553.421
207.978
52.8032
388.228
109.862
25.9251
3269.8
1646.7
463.827
1965.85
884.475
245.761
1260.65
527.539
144.843
796.736
303.536
75.8125
461.881
130.487
28.2801
3831.29
1817.06
542.439
2342.09
987.763
273.32
1448.67
581.523
154.343
875.465
326.809
81.7251
510.592
134.602
30.8316
401.105
86.8393
15.8192
2.13331
164.136
36.4307
6.96575
1.10499
411.905
90.3656
17.2398
2.78743
190.238
42.8974
10.6963
2.59762
424.183
93.758
20.7702
4.46541
276.35
63.4902
10.352
1.33797
128.933
32.6683
0.136316
-1.55842
31
12.8662
1.33653
0.0734273
283.502
67.3103
10.9967
0.220519
200.605
46.3662
11.1361
1.47838
378.277
85.839
18.2777
3.06967