/*--------------------------------*- C++ -*----------------------------------*\
| =========                 |                                                 |
| \\      /  F ield         | OpenFOAM: The Open Source CFD Toolbox           |
|  \\    /   O peration     | Version:  2306                                  |
|   \\  /    A nd           | Website:  www.openfoam.com                      |
|    \\/     M anipulation  |                                                 |
\*---------------------------------------------------------------------------*/
FoamFile
{
    version     2.0;
    format      ascii;
    arch        "LSB;label=32;scalar=64";
    class       volScalarField;
    location    "0.3";
    object      T;
}
// * * * * * * * * * * * * * * * * * * * * * * * * * * * * * * * * * * * * * //

dimensions      [0 0 0 1 0 0 0];

internalField   nonuniform List<scalar> 
5712
(
514.405
542.467
497.582
531.199
475.247
516.682
441.545
487.983
442.721
479.298
473.62
510.708
493.577
526.61
507.25
537.138
458.91
425.183
492.565
443.571
424.024
391.463
455.531
406.009
525.4
535.894
548.849
554.852
507.567
520.247
538.006
546.522
509.129
481.309
470.185
451.635
498.022
525.081
524.784
524.464
460.64
467.462
492.177
490.534
420.988
425.849
533.662
537.644
489.567
500.133
548.172
553.406
542.965
560.426
560.11
567.905
529.346
554.64
553.414
565.067
502.913
542.21
527.467
555.002
544.666
562.127
551.206
564.588
399.642
380.105
412.203
383.845
366.709
351.705
377.219
354.571
448.362
417.077
434.422
411.887
420.842
385.366
422.704
384.492
384.348
355.682
385.546
354.765
457.782
419.387
460.196
418.87
485.439
537.205
458.242
516.541
470.867
527.925
450.82
509.042
495.263
542.377
461.741
520.409
498.309
544.251
461.821
522.004
524.859
491.215
550.698
525.984
504.731
472.105
541.978
514.567
476.491
448.204
527.177
498.876
373.424
339.136
410.865
449.117
509.253
332.153
364.422
398.764
432.288
485.489
338.884
368.969
402.07
439.496
494.199
432.829
386.157
441.499
396.113
424.603
381.795
439.763
394.642
413.256
374.896
437.459
393.704
319.84
306.278
349.392
329.4
378.708
351.773
406.729
372.918
439.169
398.573
324.928
309.869
353.112
335.044
383.333
359.911
415.278
385.076
447.692
411.934
359.85
348.828
359.055
350.142
331.234
312.97
331.743
314.22
389.018
381
390.312
379.093
356.568
349.852
355.88
349.653
330.773
314.57
330.193
314.309
385.775
380.431
385.103
380.353
422.89
412.803
455.307
443.243
423.474
409.497
455.314
438.808
420.466
412.511
454.449
443.97
418.26
411.092
451.956
441.867
341.48
311.612
297.74
345.565
312.987
298.432
340.539
310.644
296.537
345.317
312.231
297.248
335.993
307.352
293.856
345.355
310.882
295.419
292.789
283.511
279.059
307.932
291.517
283.54
322.474
299.017
287.731
335.126
305.567
291.632
348.392
310.833
293.877
295.238
284.207
278.923
313.946
294.434
284.461
330.112
302.453
288.462
344.73
308.913
291.52
355.956
313.212
293.37
347.11
336.45
353.903
342.406
381.998
360.58
397.429
370.368
324.123
305.747
325.16
306.824
325.619
307.96
327.144
308.965
326.299
322.999
324.75
320.276
310.609
312.786
346.6
348.801
377.575
380.594
328.724
331.755
327.772
329.336
314.576
316.155
290.923
280.631
293.634
281.857
292.255
280.766
294.826
282.07
294.424
280.979
298.29
282.736
300.108
283.699
300.162
283.864
318.501
308.781
324.876
310.861
339.711
327.427
347.826
329.901
308.454
296.769
303.578
295.161
328.249
311.636
328.979
311.256
352.632
330.82
353.526
330.147
310.848
297.41
311.369
297.219
294.201
281.177
287.173
279.003
290.727
279.944
286.004
278.479
296.004
281.982
287.665
279.248
296.501
282.341
287.599
279.264
281.986
277.63
278.129
276.077
282.816
278.426
278.195
276.27
284.58
280.366
278.483
276.843
301.486
316.075
291.904
285.395
278.331
310.939
297.627
287.834
282.615
277.329
315.812
301
290.68
283.783
277.727
275.336
274.156
274.785
274
275.907
274.473
275.019
274.169
277.263
275.266
275.539
274.534
301.103
291.579
290.185
283.403
283.309
279.026
279.396
276.602
276.198
275.02
304.469
292.99
292.586
284.47
285.16
279.909
280.401
277.09
276.626
275.285
295.636
285.095
297.441
286.286
309.343
294.196
311.291
295.515
288.154
281.045
286.839
280.207
298.596
286.774
298.47
286.717
312.12
295.879
311.809
295.737
289.121
281.457
289.062
281.434
281.597
277.529
277.03
275.424
281.085
277.086
276.875
275.285
281.942
277.759
277.09
275.473
282.278
277.835
277.248
275.576
273.454
273.182
273.091
273.303
273.104
273.048
273.621
273.257
273.132
273.381
273.139
273.066
274.006
273.437
273.232
273.534
273.196
273.093
283.318
278.304
276.035
278.348
275.677
274.533
275.971
274.422
273.806
274.626
273.696
273.36
273.71
273.247
273.111
283.798
278.044
275.615
278.687
275.478
274.252
276.264
274.351
273.66
274.804
273.694
273.32
273.762
273.246
273.101
275.323
273.609
273.152
273.035
275.665
273.685
273.165
273.037
275.31
273.605
273.151
273.035
275.731
273.701
273.171
273.039
275.248
273.589
273.155
273.038
275.744
273.702
273.18
273.043
275.948
273.75
273.179
273.04
276.008
273.77
273.18
273.039
275.387
273.626
273.165
273.04
274.869
273.514
273.142
273.037
275.058
273.549
273.153
273.04
274.737
273.481
273.136
273.037
275.608
273.681
273.171
273.039
274.95
273.535
273.145
273.037
275.714
273.71
273.175
273.04
274.986
273.547
273.148
273.038
274.767
273.491
273.132
273.033
274.209
273.365
273.109
273.03
274.749
273.485
273.132
273.034
274.238
273.371
273.11
273.031
274.743
273.48
273.135
273.035
274.332
273.389
273.114
273.032
274.649
273.458
273.132
273.036
274.396
273.402
273.119
273.033
274.556
273.439
273.129
273.036
273.846
273.282
273.082
273.025
273.673
273.243
273.07
273.021
273.903
273.295
273.085
273.026
273.726
273.256
273.073
273.022
274.014
273.319
273.09
273.027
273.828
273.28
273.078
273.023
274.155
273.35
273.098
273.029
273.955
273.31
273.084
273.024
274.292
273.383
273.107
273.031
274.07
273.34
273.091
273.026
274.444
273.427
273.115
273.033
274.216
273.384
273.102
273.029
274.386
273.409
273.112
273.032
274.158
273.366
273.097
273.028
274.474
273.437
273.116
273.033
274.25
273.396
273.105
273.03
274.493
273.443
273.117
273.034
274.268
273.402
273.107
273.03
273.009
273.002
273.001
273
273
273.009
273.002
273.001
273
273
273.009
273.002
273.001
273
273
273.009
273.002
273.001
273
273
273.009
273.002
273.001
273
273
273.01
273.003
273.001
273
273
273.01
273.003
273.001
273
273
273.01
273.003
273.001
273
273
273.01
273.003
273.001
273
273
273.01
273.003
273.001
273
273
273.009
273.002
273.001
273
273
273.009
273.003
273.001
273
273
273.01
273.003
273.001
273
273
273.01
273.003
273.001
273
273
273.01
273.003
273.001
273
273
273.01
273.003
273.001
273
273
273.009
273.002
273.001
273
273
273.008
273.002
273.001
273
273
273.009
273.002
273.001
273
273
273.008
273.002
273.001
273
273
273.009
273.002
273.001
273
273
273.009
273.002
273.001
273
273
273.009
273.002
273.001
273
273
273.009
273.002
273.001
273
273
273.009
273.002
273.001
273
273
453.237
446.272
453.638
446.943
454.868
448.671
457.631
451.75
462.746
457.066
469.689
469.937
468.198
466.642
469.873
470.727
469.678
470.336
545.384
564.364
568.864
570.258
570.804
521.574
555.131
564.622
567.647
568.84
545.782
564.495
568.923
570.296
570.833
522.082
555.285
564.661
567.675
568.859
546.1
564.57
568.948
570.311
570.846
522.621
555.398
564.693
567.691
568.873
546.889
564.78
569.031
570.363
570.888
523.561
555.602
564.755
567.727
568.904
548.369
565.177
569.195
570.465
570.968
525.267
556.022
564.9
567.808
568.963
548.629
564.934
569.007
570.323
570.839
528.481
556.593
565.003
567.822
568.954
548.861
565.148
569.144
570.424
570.928
527.571
556.522
565.057
567.886
569.014
548.335
564.765
568.906
570.249
570.773
528.691
556.546
564.928
567.755
568.894
548.353
564.757
568.895
570.24
570.764
528.501
556.463
564.861
567.704
568.855
362.698
408.54
406.278
358.787
340.834
342.66
344.687
348.102
357.01
362.385
393.3
407.604
404.534
419.91
374.35
381.202
359.712
364.394
351.621
354.412
296.733
286.527
273.544
273.206
273.186
273.141
273.315
292.865
286.144
280.655
279.373
276.418
274.983
276.595
274.777
274.1
274.214
273.804
292.996
279.786
274.961
274.688
276.34
275.603
274.46
273.985
273.47
273.368
273.962
273.854
295.109
283.608
287.033
279.048
276.851
280.642
274.399
273.54
274.73
287.46
281.721
278.194
275.755
273.992
282.17
278.922
276.523
274.846
273.608
273.433
273.312
273.2
273.108
273.034
273.167
273.123
273.08
273.044
273.014
273.151
273.112
273.073
273.04
273.013
273.115
273.085
273.056
273.031
273.01
273.254
273.186
273.12
273.065
273.02
285.259
280.261
277.226
275.202
273.822
280.891
277.469
275.52
274.281
273.424
278.287
276.394
274.979
274.011
273.321
276.833
275.154
274.186
273.584
273.18
275.06
274.153
273.623
273.299
273.089
274.476
273.998
273.602
273.312
273.096
275.545
274.651
273.965
273.49
273.151
274.278
273.838
273.492
273.249
273.076
273.842
273.584
273.359
273.188
273.058
273.912
273.621
273.376
273.195
273.06
273.622
273.436
273.27
273.142
273.044
285.662
280.646
277.519
275.371
273.876
277.849
276.203
274.913
273.993
273.317
274.485
274.022
273.626
273.328
273.102
274.293
273.9
273.557
273.294
273.092
275.484
274.688
274.027
273.537
273.168
274.981
274.371
273.847
273.447
273.139
274.134
273.801
273.502
273.268
273.084
273.773
273.551
273.348
273.186
273.058
273.374
273.269
273.171
273.092
273.029
273.295
273.214
273.137
273.074
273.023
273.747
273.526
273.328
273.174
273.054
273.669
273.476
273.3
273.16
273.05
286.761
281.358
277.985
275.641
273.971
280.363
277.815
275.883
274.511
273.492
282.678
279.134
276.664
274.915
273.641
277.436
275.994
274.82
273.955
273.302
275.895
274.987
274.22
273.642
273.201
278.505
276.665
275.202
274.147
273.366
274.087
273.767
273.48
273.256
273.08
273.429
273.309
273.197
273.106
273.033
274.331
273.93
273.578
273.306
273.095
450.677
519.187
439.512
510.814
410.069
485.2
420.074
493.04
420.324
397.427
476.412
428.922
390.179
368.044
440.63
393.129
473.963
496.486
531.196
541.612
462.909
484.247
524.315
535.569
493.819
445.429
455.72
423.226
466.81
512.364
519.526
523.119
454.02
465.665
486.743
488.987
414.86
424.063
528.355
536.387
483.325
498.529
544.162
552.532
522.282
553.733
552.693
565.442
509.418
548.145
546.843
562.768
483.633
535.902
517.79
551.751
541.101
560.871
550.461
564.309
385.703
372.819
402.933
379.203
355.34
345.66
369.32
350.54
439.172
412.757
420.121
404.938
416.093
382.877
421.333
383.73
380.164
353.458
384.32
354.076
453.141
417.098
458.862
418.172
478.582
534.8
455.08
515.255
460.119
524.059
445.637
506.862
491.804
541.137
460.081
519.74
497.314
543.881
461.316
521.8
492.757
456.445
540.554
514.253
476.158
442.139
532.611
503.891
452.962
424.401
519.106
489.928
368.242
340.836
399.584
436.713
504.239
335.738
360.56
387.035
417.901
479.204
338.298
363.813
394.267
432.383
490.94
404.513
369.377
429.387
392.445
399.389
366.138
429.203
391.342
392.083
360.94
429.056
390.859
324.633
310.945
346.712
327.822
369.002
344.776
394.899
364.732
433.903
396.665
326.337
311.529
349.966
333.395
377.334
356.474
409.418
381.924
444.571
410.796
356.06
346.314
356.364
348.2
329.195
312.512
329.713
313.236
386.238
378.804
385.93
375.823
355.071
348.717
355.406
349.294
329.545
313.848
329.793
314.066
384.275
379.226
384.635
379.981
420.688
410.951
453.988
442.011
419.822
406.656
453.16
436.978
419.28
411.502
453.74
443.305
417.871
410.77
451.731
441.662
348.299
339.229
363.9
351.398
345.553
335.16
362.337
347.74
340.096
328.609
360.465
342.501
300.008
292.856
312.983
303.052
326.367
313.718
341.586
326
362.01
338.151
298.799
290.774
317.261
304.424
333.942
315.963
350.553
326.563
365.255
335.006
331.749
324.135
346.181
335.062
358.259
342.994
386.491
360.312
315.752
300.393
321.177
303.4
315.503
302.038
321.879
305.386
320.859
313.26
319.386
311.805
304.338
308.974
342.397
347.437
372.308
378.956
325.098
330.413
324.448
328.177
311.855
315.108
290.556
281.22
292.277
281.879
291.532
281.246
293.287
281.97
293.322
281.322
296.441
282.53
298.622
283.41
299.594
283.736
313.969
306.881
320.763
309.089
331.797
323.518
341.822
326.985
305.958
295.905
301.535
294.577
325.731
310.51
328.184
310.889
349.246
329.117
352.503
329.608
309.144
296.787
310.801
297.008
293.27
281.125
286.858
278.999
290.695
280.254
286.054
278.664
295.165
281.838
287.378
279.199
296.191
282.274
287.496
279.241
287.601
284.373
279.973
278.493
288.282
285.088
279.915
278.527
289.521
286.706
279.914
278.765
306.759
321.107
296.473
287.901
279.263
318.021
305.293
295.053
286.706
278.681
318.101
303.634
292.701
285.022
278.28
281.376
278.925
277.173
275.942
282.134
279.484
277.309
276.063
283.612
280.604
277.591
276.287
309.343
299.139
298.627
291.139
290.263
285.414
283.573
280.523
277.572
276.285
308.568
296.771
296.573
288.098
287.986
282.459
282.049
278.587
277.27
275.907
296.025
286.147
296.879
286.308
309.013
295.086
310.103
295.244
287.966
281.163
287.376
281.027
298.072
286.592
298.28
286.637
311.255
295.502
311.514
295.593
288.851
281.385
288.956
281.394
281.594
277.643
277.076
275.495
281.523
277.599
277.102
275.533
281.846
277.744
277.08
275.479
282.23
277.819
277.237
275.572
277.497
276.923
274.61
274.379
277.965
277.211
274.678
274.397
278.631
277.411
274.761
274.287
291.174
286.067
285.451
281.963
281.714
279.403
278.162
276.632
274.671
274.024
287.752
282.97
282.037
279.08
278.59
276.775
276.151
275.07
274.224
273.69
275.604
273.697
273.174
273.04
275.816
273.748
273.183
273.041
275.557
273.684
273.171
273.04
275.832
273.75
273.186
273.042
275.448
273.654
273.172
273.042
275.805
273.737
273.192
273.046
275.956
273.767
273.185
273.042
276.004
273.775
273.182
273.04
275.44
273.653
273.174
273.042
274.906
273.532
273.149
273.039
275.207
273.599
273.167
273.043
274.838
273.517
273.147
273.04
275.616
273.693
273.175
273.041
274.959
273.543
273.149
273.038
275.712
273.714
273.177
273.041
274.987
273.549
273.149
273.039
275.254
273.614
273.161
273.039
274.838
273.517
273.143
273.038
275.198
273.599
273.159
273.039
274.818
273.512
273.142
273.038
275.115
273.577
273.157
273.04
274.81
273.508
273.142
273.038
274.927
273.535
273.151
273.04
274.763
273.498
273.141
273.038
274.753
273.498
273.144
273.04
274.505
273.446
273.118
273.034
274.317
273.41
273.108
273.031
274.516
273.447
273.119
273.034
274.327
273.412
273.109
273.031
274.531
273.449
273.119
273.034
274.34
273.414
273.108
273.031
274.529
273.449
273.121
273.035
274.339
273.414
273.109
273.031
274.508
273.447
273.123
273.036
274.314
273.411
273.109
273.031
274.484
273.444
273.121
273.035
274.267
273.404
273.109
273.031
274.488
273.444
273.122
273.035
274.282
273.407
273.109
273.031
274.486
273.444
273.119
273.034
274.265
273.404
273.108
273.031
274.495
273.445
273.118
273.034
274.271
273.404
273.107
273.03
273.01
273.003
273.001
273
273
273.01
273.003
273.001
273
273
273.01
273.003
273.001
273
273
273.01
273.003
273.001
273
273
273.01
273.003
273.001
273
273
273.011
273.003
273.001
273
273
273.01
273.003
273.001
273
273
273.01
273.003
273.001
273
273
273.01
273.003
273.001
273
273
273.01
273.003
273.001
273
273
273.01
273.003
273.001
273
273
273.01
273.003
273.001
273
273
273.01
273.003
273.001
273
273
273.01
273.003
273.001
273
273
273.01
273.003
273.001
273
273
273.01
273.003
273.001
273
273
273.01
273.003
273.001
273
273
273.01
273.003
273.001
273
273
273.01
273.003
273.001
273
273
273.01
273.003
273.001
273
273
273.01
273.003
273.001
273
273
273.01
273.003
273.001
273
273
273.01
273.003
273.001
273
273
273.01
273.003
273.001
273
273
273.01
273.003
273.001
273
273
448.324
443.507
449.294
444.479
451.471
446.692
455.265
450.279
461.128
455.934
468.925
469.151
467.002
465.481
469.455
470.301
469.546
470.203
544.65
564.241
568.842
570.254
570.803
520.466
554.887
564.576
567.64
568.839
545.125
564.383
568.903
570.292
570.833
521.084
555.064
564.619
567.668
568.858
545.569
564.478
568.932
570.308
570.845
521.796
555.211
564.658
567.685
568.872
546.501
564.711
569.019
570.36
570.887
522.925
555.455
564.727
567.722
568.903
548.106
565.13
569.186
570.464
570.968
524.789
555.912
564.879
567.804
568.963
548.51
564.914
569.004
570.322
570.839
528.244
556.545
564.994
567.821
568.954
548.676
565.116
569.138
570.423
570.928
527.207
556.446
565.043
567.883
569.014
548.269
564.754
568.904
570.248
570.773
528.564
556.521
564.923
567.754
568.894
548.332
564.753
568.894
570.239
570.764
528.461
556.455
564.859
567.704
568.855
360.966
406.577
400.163
353.77
338.883
349.37
336.26
348.988
368.844
397.26
374.2
399.52
273.001
273.003
273.006
273.017
273.043
273.111
273.002
273.005
273.011
273.027
273.065
273.15
273.001
273
273.002
273.001
273.004
273.004
273.012
273.011
273.033
273.031
273.084
273.073
273.282
273.679
274.531
276.191
278.501
280.232
273.33
273.682
274.308
275.264
276.368
277.134
273.001
273.001
273.001
273
273
273.002
273.002
273.001
273.001
273
273.005
273.004
273.003
273.002
273
273.014
273.01
273.007
273.004
273.001
273.036
273.027
273.018
273.01
273.003
273.091
273.067
273.044
273.024
273.008
273.002
273.002
273.001
273.001
273
273.004
273.003
273.002
273.001
273
273.009
273.007
273.005
273.003
273.001
273.023
273.017
273.011
273.006
273.002
273.053
273.04
273.026
273.014
273.005
273.122
273.09
273.059
273.032
273.01
273.001
273
273
273
273
273
273
273
273
273
273.001
273.001
273.001
273
273
273.001
273.001
273.001
273
273
273.004
273.003
273.002
273.001
273
273.003
273.002
273.002
273.001
273
273.01
273.008
273.005
273.003
273.001
273.009
273.007
273.005
273.003
273.001
273.027
273.02
273.014
273.008
273.002
273.026
273.019
273.013
273.007
273.002
273.069
273.051
273.034
273.019
273.006
273.06
273.045
273.03
273.016
273.005
273.227
273.166
273.108
273.059
273.018
273.539
273.389
273.248
273.134
273.042
274.192
273.844
273.531
273.283
273.088
275.423
274.678
274.038
273.549
273.172
277.046
275.736
274.668
273.878
273.277
278.225
276.491
275.113
274.11
273.351
273.265
273.194
273.125
273.068
273.021
273.543
273.392
273.251
273.136
273.042
274.027
273.733
273.464
273.248
273.078
274.751
274.231
273.77
273.41
273.128
275.565
274.779
274.103
273.584
273.182
276.119
275.148
274.325
273.7
273.219
273.001
273.003
273.006
273.017
273.043
273.111
273.002
273.005
273.011
273.027
273.065
273.149
273.001
273
273.002
273.001
273.004
273.004
273.012
273.011
273.033
273.032
273.085
273.076
273.281
273.677
274.521
276.164
278.459
280.21
273.328
273.678
274.3
275.249
276.351
277.126
273.001
273.001
273.001
273
273
273.002
273.002
273.001
273.001
273
273.005
273.004
273.003
273.002
273
273.014
273.01
273.007
273.004
273.001
273.036
273.027
273.018
273.01
273.003
273.091
273.067
273.044
273.024
273.008
273.002
273.002
273.001
273.001
273
273.004
273.003
273.002
273.001
273
273.009
273.007
273.005
273.003
273.001
273.022
273.017
273.011
273.006
273.002
273.053
273.04
273.026
273.014
273.005
273.121
273.09
273.059
273.032
273.01
273.001
273
273
273
273
273
273
273
273
273
273.001
273.001
273.001
273
273
273.001
273.001
273.001
273
273
273.004
273.003
273.002
273.001
273
273.003
273.002
273.002
273.001
273
273.01
273.008
273.005
273.003
273.001
273.009
273.007
273.005
273.003
273.001
273.027
273.021
273.014
273.008
273.002
273.026
273.02
273.013
273.007
273.002
273.07
273.052
273.035
273.019
273.006
273.063
273.047
273.031
273.017
273.006
273.227
273.167
273.108
273.059
273.019
273.538
273.389
273.249
273.135
273.042
274.187
273.842
273.531
273.284
273.089
275.406
274.669
274.035
273.549
273.172
277.017
275.719
274.66
273.875
273.276
278.21
276.482
275.109
274.108
273.351
273.264
273.193
273.125
273.068
273.021
273.54
273.391
273.251
273.136
273.042
274.022
273.729
273.462
273.248
273.078
274.741
274.225
273.768
273.409
273.128
275.553
274.772
274.099
273.583
273.182
276.114
275.145
274.323
273.7
273.219
296.61
286.47
273.547
273.209
273.21
273.151
273.327
293.129
287.684
281.133
281.678
275.315
277.239
274.357
274.727
274.053
292.751
279.88
275.117
274.753
276.416
275.621
274.458
274.009
273.573
273.42
274.079
273.907
294.797
283.493
286.845
278.983
276.829
280.612
274.412
273.561
274.762
287.383
281.679
278.173
275.747
273.99
282.133
278.9
276.512
274.842
273.607
273.437
273.317
273.204
273.11
273.035
273.17
273.125
273.082
273.045
273.014
273.172
273.127
273.084
273.046
273.015
273.124
273.092
273.061
273.034
273.011
273.264
273.194
273.126
273.069
273.022
285.952
280.958
277.768
275.529
273.935
282.564
278.852
276.491
274.826
273.594
278.809
276.863
275.327
274.216
273.389
278.869
276.643
275.173
274.125
273.349
274.766
274.229
273.763
273.404
273.126
276.123
275.115
274.289
273.674
273.21
274.06
273.752
273.474
273.253
273.079
274.338
273.942
273.59
273.314
273.098
273.83
273.594
273.377
273.203
273.063
285.724
280.827
277.703
275.498
273.924
277.993
276.357
275.04
274.074
273.344
274.628
274.14
273.712
273.379
273.118
274.357
273.956
273.6
273.32
273.1
275.571
274.772
274.095
273.58
273.182
275.008
274.402
273.873
273.464
273.145
274.137
273.807
273.509
273.273
273.085
273.797
273.572
273.364
273.196
273.061
273.459
273.335
273.216
273.117
273.037
273.338
273.248
273.161
273.088
273.028
273.849
273.607
273.385
273.207
273.065
273.717
273.515
273.328
273.177
273.055
286.582
281.271
277.951
275.633
273.971
280.29
277.774
275.865
274.506
273.491
282.613
279.144
276.702
274.95
273.655
277.401
275.982
274.82
273.96
273.304
275.891
274.995
274.233
273.653
273.205
278.529
276.719
275.258
274.188
273.381
274.103
273.784
273.495
273.265
273.083
273.448
273.326
273.209
273.114
273.036
274.366
273.963
273.605
273.323
273.101
273.135
273.436
273.826
274.334
274.922
275.524
415.356
405.539
378.672
387.42
390.438
376.809
364.881
350.784
440.978
463.332
430.046
448.789
413.895
400.524
429.121
396.781
389.06
364.385
371.089
376.821
365.554
353.587
342.33
420.172
432.251
410.909
420.211
396.203
384.757
404.126
370.546
365.348
344.34
348.68
356.803
348.75
337.109
329.081
389.172
396.89
382.332
388.516
371.922
363.501
377.139
342.943
339.749
323.578
326.179
334.11
328.308
319.115
313.828
358.335
365.027
353.635
359.095
346.26
339.352
350.708
322.991
320.97
308.832
310.451
317.162
313.177
306.007
302.496
335.032
342.527
331.739
338.364
326.971
321.946
332.352
309.687
308.317
299.075
300.15
305.816
303.387
297.16
294.818
320.173
330.13
317.733
326.407
314.693
311.228
321.056
328.628
325.252
349.631
355.33
320.671
315.495
340.747
330.766
309.893
295.385
309.034
296.441
305.794
305.087
298.143
322.131
319.193
339.886
344.536
315.205
310.778
332.556
324.13
304.499
291.406
303.805
292.463
300.877
300.566
293.878
312.036
309.817
325.515
328.742
306.811
303.393
320.335
314.219
298.216
287.233
297.589
288.039
295.364
295.13
289.156
300.522
299.081
310.019
312.014
296.945
294.277
306.759
302.48
290.923
283.252
290.53
283.758
288.973
288.642
284.556
292.148
291.223
298.968
300.222
289.805
287.934
296.892
294.051
285.54
280.715
285.309
280.98
284.397
284.104
281.519
286.623
286.017
291.695
292.522
285.185
284.094
290.307
288.448
282.323
279.293
282.187
279.432
281.644
281.53
279.805
515.399
543.318
497.625
531.121
475.264
516.649
441.533
487.957
442.71
479.268
473.65
510.683
493.659
526.574
508.358
538.159
458.903
425.169
492.54
443.553
424.006
391.446
455.507
405.99
526.218
536.507
549.502
555.315
507.555
520.211
537.901
546.435
509.088
481.292
470.161
451.619
497.998
525.035
524.774
524.457
460.627
467.45
492.165
490.524
420.973
425.835
533.648
537.637
489.553
500.123
548.158
553.402
543.414
560.606
560.42
568.022
529.302
554.62
553.355
565.044
502.885
542.196
527.433
554.988
544.652
562.122
551.201
564.586
399.63
380.094
412.189
383.835
366.695
351.694
377.205
354.56
448.347
417.067
434.408
411.876
420.83
385.356
422.692
384.482
384.335
355.672
385.533
354.756
457.769
419.379
460.185
418.861
485.423
537.198
458.234
516.537
470.851
527.917
450.81
509.037
495.252
542.372
461.735
520.407
498.3
544.247
461.815
522.002
525.442
491.851
550.947
526.319
504.682
472.053
541.953
514.527
476.464
448.177
527.163
498.859
373.413
339.127
410.851
449.1
509.244
332.145
364.412
398.75
432.27
485.479
338.875
368.958
402.058
439.485
494.193
433.383
386.505
441.904
396.376
424.565
381.785
439.744
394.637
413.233
374.883
437.447
393.699
319.834
306.273
349.383
329.393
378.696
351.764
406.714
372.907
439.16
398.568
324.921
309.864
353.103
335.038
383.322
359.903
415.268
385.068
447.686
411.929
359.842
348.821
359.047
350.136
331.226
312.965
331.736
314.215
389.011
380.994
390.303
379.086
356.561
349.847
355.873
349.648
330.766
314.565
330.187
314.305
385.769
380.426
385.096
380.348
422.884
412.798
455.303
443.24
423.466
409.491
455.309
438.804
420.461
412.506
454.446
443.967
418.255
411.088
451.953
441.864
341.692
311.724
297.809
345.742
313.086
298.49
340.544
310.651
296.542
345.318
312.239
297.254
335.99
307.354
293.858
345.353
310.884
295.422
292.786
283.509
279.059
307.928
291.515
283.54
322.47
299.015
287.731
335.121
305.566
291.633
348.389
310.833
293.878
295.235
284.206
278.922
313.942
294.432
284.46
330.107
302.451
288.462
344.726
308.912
291.52
355.952
313.211
293.37
347.054
336.418
353.847
342.375
381.96
360.557
397.389
370.345
323.996
305.741
324.995
306.799
325.531
307.907
327.058
308.917
326.25
322.948
324.716
320.241
310.566
312.746
346.577
348.784
377.555
380.578
328.692
331.735
327.747
329.319
314.547
316.137
290.942
280.633
293.647
281.859
292.233
280.76
294.806
282.064
294.401
280.972
298.266
282.728
300.089
283.691
300.15
283.859
318.482
308.77
324.857
310.851
339.695
327.415
347.81
329.89
308.436
296.761
303.56
295.151
328.234
311.627
328.966
311.248
352.618
330.811
353.514
330.139
310.834
297.402
311.357
297.213
294.188
281.171
287.166
278.999
290.714
279.939
285.997
278.476
295.993
281.977
287.659
279.245
296.492
282.337
287.595
279.261
281.975
277.614
278.128
276.073
282.81
278.424
278.192
276.268
284.57
280.361
278.478
276.841
301.475
316.066
291.894
285.387
278.328
310.931
297.618
287.826
282.608
277.326
315.803
300.991
290.671
283.777
277.723
275.326
274.15
274.784
273.999
275.906
274.474
275.018
274.169
277.26
275.265
275.538
274.533
301.097
291.575
290.18
283.4
283.305
279.023
279.392
276.6
276.196
275.019
304.463
292.986
292.58
284.467
285.155
279.906
280.397
277.088
276.624
275.283
295.629
285.092
297.435
286.283
309.336
294.192
311.284
295.511
288.149
281.043
286.833
280.204
298.591
286.771
298.465
286.715
312.114
295.875
311.804
295.733
289.117
281.455
289.058
281.432
281.593
277.527
277.028
275.423
281.081
277.084
276.873
275.284
281.939
277.757
277.088
275.472
282.275
277.833
277.246
275.575
273.451
273.18
273.09
273.303
273.104
273.048
273.621
273.257
273.132
273.381
273.139
273.066
274.006
273.437
273.232
273.534
273.196
273.093
283.317
278.303
276.034
278.347
275.676
274.533
275.97
274.422
273.806
274.625
273.696
273.36
273.709
273.247
273.111
283.796
278.043
275.615
278.686
275.478
274.252
276.263
274.35
273.66
274.803
273.693
273.32
273.761
273.246
273.101
275.323
273.609
273.152
273.035
275.664
273.685
273.165
273.037
275.309
273.605
273.151
273.035
275.73
273.7
273.171
273.039
275.246
273.588
273.155
273.038
275.742
273.702
273.18
273.043
275.947
273.75
273.179
273.04
276.007
273.77
273.179
273.039
275.386
273.626
273.165
273.04
274.868
273.513
273.142
273.037
275.057
273.549
273.153
273.04
274.736
273.481
273.136
273.037
275.606
273.681
273.171
273.039
274.949
273.535
273.145
273.037
275.713
273.71
273.175
273.04
274.985
273.546
273.148
273.038
274.767
273.491
273.132
273.033
274.209
273.365
273.109
273.03
274.748
273.485
273.132
273.033
274.237
273.37
273.11
273.031
274.742
273.48
273.134
273.035
274.331
273.389
273.114
273.032
274.648
273.458
273.132
273.036
274.395
273.402
273.118
273.033
274.555
273.439
273.129
273.036
273.846
273.282
273.082
273.025
273.672
273.243
273.07
273.021
273.902
273.294
273.085
273.026
273.726
273.256
273.073
273.022
274.013
273.319
273.09
273.027
273.827
273.28
273.078
273.023
274.155
273.35
273.098
273.029
273.954
273.31
273.084
273.024
274.291
273.383
273.107
273.031
274.07
273.339
273.091
273.026
274.444
273.427
273.115
273.033
274.215
273.384
273.102
273.029
274.385
273.409
273.112
273.032
274.157
273.366
273.097
273.028
274.473
273.437
273.116
273.033
274.249
273.396
273.105
273.03
274.492
273.443
273.117
273.034
274.268
273.402
273.106
273.03
273.009
273.002
273.001
273
273
273.009
273.002
273.001
273
273
273.009
273.002
273.001
273
273
273.009
273.002
273.001
273
273
273.009
273.002
273.001
273
273
273.01
273.003
273.001
273
273
273.01
273.003
273.001
273
273
273.01
273.003
273.001
273
273
273.01
273.003
273.001
273
273
273.01
273.003
273.001
273
273
273.009
273.002
273.001
273
273
273.009
273.003
273.001
273
273
273.01
273.003
273.001
273
273
273.01
273.003
273.001
273
273
273.01
273.003
273.001
273
273
273.01
273.003
273.001
273
273
273.009
273.002
273.001
273
273
273.008
273.002
273.001
273
273
273.009
273.002
273.001
273
273
273.008
273.002
273.001
273
273
273.009
273.002
273.001
273
273
273.009
273.002
273.001
273
273
273.009
273.002
273.001
273
273
273.009
273.002
273.001
273
273
273.009
273.002
273.001
273
273
453.334
446.389
453.663
446.963
454.874
448.676
457.63
451.75
462.743
457.064
469.687
469.934
468.195
466.639
469.871
470.725
469.676
470.334
545.564
564.433
568.898
570.281
570.822
521.675
555.178
564.647
567.664
568.854
545.769
564.492
568.922
570.295
570.833
522.092
555.292
564.665
567.678
568.862
546.098
564.57
568.949
570.311
570.846
522.625
555.401
564.695
567.693
568.874
546.888
564.78
569.031
570.363
570.888
523.561
555.603
564.756
567.728
568.905
548.369
565.177
569.195
570.465
570.968
525.267
556.022
564.9
567.808
568.964
548.629
564.933
569.007
570.323
570.839
528.481
556.592
565.003
567.822
568.954
548.861
565.147
569.144
570.424
570.928
527.57
556.522
565.058
567.886
569.014
548.335
564.765
568.906
570.248
570.773
528.691
556.546
564.928
567.755
568.894
548.352
564.757
568.895
570.24
570.764
528.5
556.463
564.861
567.704
568.855
362.678
408.522
406.252
358.753
340.512
342.237
344.565
347.976
356.924
362.296
393.248
407.547
404.483
419.851
374.263
381.111
359.592
364.269
351.054
353.678
296.73
286.525
273.544
273.206
273.186
273.141
273.315
292.862
286.142
280.654
279.372
276.417
274.983
276.594
274.776
274.1
274.214
273.804