/*--------------------------------*- C++ -*----------------------------------*\
| =========                 |                                                 |
| \\      /  F ield         | OpenFOAM: The Open Source CFD Toolbox           |
|  \\    /   O peration     | Version:  2306                                  |
|   \\  /    A nd           | Website:  www.openfoam.com                      |
|    \\/     M anipulation  |                                                 |
\*---------------------------------------------------------------------------*/
FoamFile
{
    version     2.0;
    format      ascii;
    arch        "LSB;label=32;scalar=64";
    class       volVectorField;
    location    "1.3";
    object      flux;
}
// * * * * * * * * * * * * * * * * * * * * * * * * * * * * * * * * * * * * * //

dimensions      [0 1 -1 1 0 0 0];

internalField   nonuniform List<vector> 
2658
(
(9.90436e-07 9.69785e-07 -8.39935e-06)
(1.45501e-06 5.6526e-07 -8.04217e-06)
(4.71942e-07 1.74797e-07 -5.54639e-06)
(-2.08059e-08 -1.42599e-08 -5.0133e-06)
(-1.86596e-06 -1.83538e-06 -6.36557e-06)
(-1.57486e-06 2.24545e-06 -6.50907e-06)
(1.56151e-06 -1.82249e-06 -5.61718e-06)
(1.54422e-06 1.53682e-06 -5.43052e-06)
(-2.40765e-08 -1.35358e-08 -5.00907e-06)
(2.22967e-06 -1.59489e-06 -6.4902e-06)
(-1.55947e-06 4.8334e-07 -6.72986e-06)
(-1.16681e-06 -3.89793e-06 -5.50662e-06)
(8.06044e-07 2.42103e-06 -7.50499e-06)
(9.44919e-07 2.4601e-06 -7.06623e-06)
(7.18241e-07 2.00169e-06 -7.24611e-06)
(-5.4678e-08 2.05102e-06 -7.44539e-06)
(-3.19873e-08 2.23981e-06 -7.22264e-06)
(-1.82916e-08 2.02009e-06 -7.42874e-06)
(-7.87373e-07 2.04848e-06 -7.23493e-06)
(-1.02755e-06 2.42945e-06 -6.97171e-06)
(-9.89886e-07 2.34544e-06 -7.37886e-06)
(-2.29879e-06 2.05585e-06 -6.64746e-06)
(-2.72471e-06 6.85264e-07 -7.57485e-06)
(2.02373e-06 -4.43252e-07 -5.67723e-06)
(-8.44797e-07 7.38525e-07 -8.94239e-06)
(-1.08732e-06 2.23713e-06 -7.36975e-06)
(-2.33819e-06 -4.81005e-07 -6.6237e-06)
(-3.25744e-07 1.37762e-07 -7.72394e-06)
(-1.71167e-06 1.82468e-06 -7.93252e-06)
(-1.85635e-06 -9.27874e-11 -6.5918e-06)
(-1.71164e-06 -1.82471e-06 -7.93244e-06)
(-2.33824e-06 4.81015e-07 -6.6237e-06)
(-1.08738e-06 -2.23725e-06 -7.36968e-06)
(-2.72486e-06 -6.85252e-07 -7.57476e-06)
(-8.44747e-07 -7.38501e-07 -8.94238e-06)
(2.02371e-06 4.43307e-07 -5.67714e-06)
(-1.02786e-06 -1.01782e-07 -7.14876e-06)
(5.06519e-07 1.93504e-07 -1.02813e-05)
(-2.29842e-06 -2.05647e-06 -6.64738e-06)
(-9.90162e-07 -2.34558e-06 -7.37905e-06)
(-1.02752e-06 -2.42962e-06 -6.9718e-06)
(-7.87323e-07 -2.04856e-06 -7.23494e-06)
(-1.84401e-08 -2.01994e-06 -7.42866e-06)
(7.13454e-08 9.95848e-07 -1.05609e-05)
(-1.28219e-06 -1.18772e-07 -6.51076e-06)
(1.19697e-06 -4.34057e-08 -6.43929e-06)
(-1.55944e-06 -4.8337e-07 -6.72989e-06)
(-6.22982e-08 1.03709e-06 -1.05549e-05)
(-5.49068e-08 -2.05139e-06 -7.4455e-06)
(7.1826e-07 -2.00172e-06 -7.24616e-06)
(9.44967e-07 -2.45993e-06 -7.06617e-06)
(8.06021e-07 -2.42104e-06 -7.50506e-06)
(2.17993e-06 -2.15973e-06 -6.72279e-06)
(-4.56176e-07 4.41656e-07 -1.06714e-05)
(2.43472e-06 -8.06763e-07 -7.51168e-06)
(2.00948e-06 -7.4149e-07 -7.25539e-06)
(-1.05338e-06 5.37677e-08 -1.05551e-05)
(6.39514e-08 -1.2148e-06 -6.46873e-06)
(-3.67926e-06 -1.50885e-11 -5.7337e-06)
(2.02646e-06 -1.13856e-08 -7.43646e-06)
(-1.05332e-06 -5.3742e-08 -1.05553e-05)
(2.00953e-06 7.41453e-07 -7.25549e-06)
(2.43471e-06 8.06815e-07 -7.51175e-06)
(-4.56103e-07 -4.41713e-07 -1.06714e-05)
(4.60514e-07 4.66635e-07 -6.70955e-06)
(-3.90511e-06 -1.13205e-06 -5.5176e-06)
(4.52336e-07 -1.54812e-06 -6.7125e-06)
(-6.00438e-08 -7.51138e-08 -5.92025e-06)
(-1.18159e-06 -2.48787e-06 -6.43399e-06)
(-1.18172e-06 2.48787e-06 -6.43385e-06)
(-3.33745e-08 2.22409e-11 -5.0819e-06)
(1.11962e-06 2.00621e-06 -5.50315e-06)
(-9.46182e-08 -2.62295e-08 -4.1457e-06)
(-1.15246e-06 1.56807e-06 -4.63495e-06)
(3.91922e-08 6.89389e-10 -3.45713e-06)
(-1.21672e-06 -1.19188e-06 -4.58796e-06)
(1.55279e-06 -1.17846e-06 -4.6214e-06)
(-5.04634e-09 4.70625e-08 -3.45223e-06)
(-1.26083e-06 1.07467e-06 -3.81564e-06)
(1.4033e-06 7.02923e-07 -3.73679e-06)
(-1.78823e-06 -7.90839e-07 -4.62169e-06)
(-4.09403e-08 -7.99513e-08 -4.1436e-06)
(2.01234e-06 1.06846e-06 -5.47441e-06)
(-1.83092e-06 1.61153e-06 -5.63516e-06)
(-4.24731e-08 -2.97232e-08 -4.72077e-06)
(-2.34012e-08 -1.48764e-08 -3.24104e-06)
(-7.99161e-10 4.29271e-09 -2.10319e-06)
(6.13947e-09 9.2426e-09 -1.28014e-06)
(6.2918e-09 8.40867e-09 -7.30401e-07)
(4.59896e-09 6.28023e-09 -3.91842e-07)
(2.73217e-09 4.02284e-09 -2.01365e-07)
(-3.33631e-09 -6.07559e-09 -1.39171e-07)
(2.91159e-09 3.04864e-09 -1.0609e-07)
(-2.22704e-08 1.66193e-08 -8.94375e-08)
(1.43399e-08 -6.66763e-09 -9.15708e-08)
(-2.98246e-09 -1.95466e-08 -1.04892e-07)
(-1.77435e-08 -2.46469e-09 -8.97945e-08)
(6.54326e-11 -1.77409e-08 -1.33877e-07)
(1.77525e-08 -2.74606e-09 -8.98154e-08)
(-1.46357e-08 -6.28152e-09 -9.08897e-08)
(7.76662e-09 -1.93223e-08 -1.34448e-07)
(2.00279e-08 -4.82566e-09 -9.20429e-08)
(1.88966e-08 -1.89775e-08 -1.0415e-07)
(1.37729e-08 -8.89472e-09 -1.1034e-07)
(1.43951e-08 -7.65459e-09 -9.36414e-08)
(-3.08847e-08 1.78746e-08 -1.06411e-07)
(-5.44759e-09 -6.30105e-09 -7.75652e-08)
(-3.881e-09 -7.47325e-10 -1.42603e-07)
(-1.97364e-09 2.64073e-09 -8.28774e-08)
(8.1727e-09 -1.82297e-08 -1.19581e-07)
(1.75146e-08 6.06246e-09 -1.10417e-07)
(6.75692e-09 -8.10312e-09 -9.06371e-08)
(1.3766e-08 -1.8956e-13 -1.23027e-07)
(6.75568e-09 8.10341e-09 -9.06338e-08)
(1.75146e-08 -6.06387e-09 -1.10418e-07)
(8.17264e-09 1.82295e-08 -1.19583e-07)
(1.43971e-08 7.65476e-09 -9.36453e-08)
(-3.0885e-08 -1.78762e-08 -1.06412e-07)
(1.8899e-08 1.89762e-08 -1.0415e-07)
(1.37755e-08 8.89374e-09 -1.1034e-07)
(2.00269e-08 4.82186e-09 -9.20375e-08)
(7.76372e-09 1.9322e-08 -1.34439e-07)
(-1.46369e-08 6.28108e-09 -9.08886e-08)
(1.77527e-08 2.74528e-09 -8.98138e-08)
(-2.9551e-08 -1.4176e-08 -9.34745e-08)
(2.94159e-08 -1.36802e-08 -9.39094e-08)
(-2.2271e-08 -1.66209e-08 -8.94347e-08)
(-2.98309e-09 1.9549e-08 -1.04897e-07)
(-1.77433e-08 2.46656e-09 -8.97945e-08)
(1.43384e-08 6.66912e-09 -9.15738e-08)
(-7.99664e-09 1.9026e-08 -1.34589e-07)
(-1.96867e-08 4.48785e-09 -9.1395e-08)
(-1.30053e-08 8.99049e-09 -1.09419e-07)
(-1.18018e-08 8.56933e-09 -9.08289e-08)
(-7.87058e-09 1.71206e-08 -1.18822e-07)
(7.12919e-10 -8.05365e-09 -8.71169e-08)
(-3.95471e-09 9.40406e-10 -8.5449e-08)
(-2.48957e-08 1.3157e-09 -1.06282e-07)
(1.82864e-08 -1.93584e-08 -8.97927e-08)
(1.82772e-08 1.93637e-08 -8.97955e-08)
(-3.95373e-09 -9.41512e-10 -8.54455e-08)
(7.08397e-10 8.055e-09 -8.71165e-08)
(7.66568e-09 -4.56652e-09 -9.44475e-08)
(-8.55261e-09 -4.72046e-09 -9.8563e-08)
(-9.80892e-09 -4.35349e-11 -1.23429e-07)
(-8.53289e-09 4.70574e-09 -9.85175e-08)
(4.22903e-09 9.00545e-12 -1.17092e-07)
(5.14608e-09 1.10887e-11 -1.17437e-07)
(-1.74057e-08 -9.54998e-09 -8.06497e-08)
(-1.81062e-08 9.41116e-09 -8.10456e-08)
(-1.50345e-08 2.35002e-11 -7.56625e-08)
(-1.90533e-08 7.76479e-10 -1.08821e-07)
(-1.87177e-08 5.23819e-09 -1.10755e-07)
(-1.92949e-08 -5.97767e-09 -6.78785e-08)
(-1.56446e-08 2.32772e-08 -9.3629e-08)
(-2.71962e-08 5.2442e-09 -8.95477e-08)
(-2.43225e-08 2.19372e-08 -8.142e-08)
(-1.04119e-08 2.61279e-08 -8.87389e-08)
(-1.22728e-08 2.78708e-08 -8.23135e-08)
(-9.05289e-09 2.16921e-08 -8.73269e-08)
(2.56031e-10 2.18522e-08 -8.99301e-08)
(-3.6551e-11 2.55814e-08 -8.39662e-08)
(-4.87458e-10 2.18862e-08 -8.99718e-08)
(8.45752e-09 2.19675e-08 -8.70917e-08)
(1.20601e-08 2.84136e-08 -8.16079e-08)
(1.03807e-08 2.63461e-08 -8.80092e-08)
(2.44206e-08 2.28297e-08 -8.07894e-08)
(3.14133e-08 7.21197e-09 -9.29215e-08)
(-7.33244e-09 -5.89103e-10 -1.45953e-07)
(2.62978e-08 7.43387e-09 -1.39418e-07)
(-7.1921e-08 -4.67293e-08 -2.16498e-07)
(9.96784e-08 7.24409e-08 -3.15163e-07)
(-1.36228e-07 -9.51361e-08 -4.43569e-07)
(1.9394e-07 1.37739e-07 -6.14024e-07)
(-2.58101e-07 -1.86533e-07 -8.44387e-07)
(3.57402e-07 2.50675e-07 -1.13512e-06)
(-4.62817e-07 -3.41097e-07 -1.5092e-06)
(6.18639e-07 4.29169e-07 -1.96739e-06)
(-7.79247e-07 -5.82364e-07 -2.5268e-06)
(1.00716e-06 6.87915e-07 -3.19476e-06)
(-1.23023e-06 -9.3346e-07 -3.96391e-06)
(1.55161e-06 1.03281e-06 -4.85561e-06)
(-1.82296e-06 -1.41853e-06 -5.83591e-06)
(2.31909e-06 1.45391e-06 -6.74188e-06)
(-2.31324e-06 1.42864e-06 -6.52049e-06)
(2.45746e-06 1.19907e-06 -6.39735e-06)
(-2.5407e-06 1.1398e-06 -6.46195e-06)
(2.22961e-06 1.59496e-06 -6.49011e-06)
(-1.86605e-06 1.83532e-06 -6.36549e-06)
(-2.08131e-08 1.42388e-08 -5.01322e-06)
(-1.57477e-06 -2.2455e-06 -6.50914e-06)
(4.52251e-07 1.54813e-06 -6.7124e-06)
(-3.90503e-06 1.13196e-06 -5.5176e-06)
(4.60522e-07 -4.66653e-07 -6.70956e-06)
(-1.16683e-06 3.89787e-06 -5.50663e-06)
(4.77168e-07 -4.87202e-07 -8.93068e-06)
(-4.24797e-08 2.96928e-08 -4.72076e-06)
(-2.34026e-08 1.48567e-08 -3.24103e-06)
(-8.13875e-10 -4.29901e-09 -2.10318e-06)
(6.12799e-09 -9.25544e-09 -1.28013e-06)
(6.29653e-09 -8.41938e-09 -7.30393e-07)
(4.60257e-09 -6.2789e-09 -3.91833e-07)
(2.73319e-09 -4.02259e-09 -2.01361e-07)
(-3.33664e-09 6.076e-09 -1.39172e-07)
(2.9117e-09 -3.04725e-09 -1.06091e-07)
(4.00209e-10 -7.45461e-11 -7.46639e-08)
(-8.15774e-09 -7.86611e-09 -8.18485e-08)
(-9.64115e-10 3.50868e-09 -1.39689e-07)
(1.09722e-08 -1.00215e-08 -8.40843e-08)
(1.09717e-08 1.00209e-08 -8.40848e-08)
(-8.15845e-09 7.86724e-09 -8.18498e-08)
(4.01588e-10 7.35651e-11 -7.46639e-08)
(-9.60757e-10 -3.51035e-09 -1.3969e-07)
(3.20782e-09 -2.80504e-09 -7.7352e-08)
(2.94159e-08 1.36813e-08 -9.3908e-08)
(-2.9553e-08 1.41753e-08 -9.34751e-08)
(2.12647e-09 -1.9765e-08 -1.04573e-07)
(2.26729e-08 1.6123e-08 -8.99125e-08)
(-1.90463e-09 3.7101e-09 -1.06121e-07)
(2.92835e-10 -1.6034e-10 -7.50269e-08)
(-3.18916e-09 -2.59749e-09 -7.71815e-08)
(-4.71636e-11 2.36286e-09 -1.08675e-07)
(2.03667e-10 -1.37699e-09 -1.40291e-07)
(2.95043e-09 -1.03911e-09 -1.39288e-07)
(2.33692e-09 -5.15292e-14 -1.45348e-07)
(2.9504e-09 1.03814e-09 -1.39287e-07)
(-1.90855e-09 -3.7146e-09 -1.0612e-07)
(-5.44612e-09 6.30028e-09 -7.75639e-08)
(-1.44284e-08 -1.27548e-08 -8.46801e-08)
(-3.87916e-09 7.49208e-10 -1.42603e-07)
(3.14758e-09 -1.38949e-08 -8.92414e-08)
(3.14842e-09 1.38979e-08 -8.92416e-08)
(-1.44294e-08 1.27561e-08 -8.46797e-08)
(-5.1075e-10 5.37949e-13 -1.12498e-07)
(9.11202e-09 -8.86782e-09 -8.27232e-08)
(-1.09838e-08 -9.81257e-09 -8.36018e-08)
(-1.09863e-08 9.81461e-09 -8.36012e-08)
(1.99002e-10 -3.38052e-09 -1.39356e-07)
(9.11447e-09 8.86995e-09 -8.27232e-08)
(-1.71422e-10 -1.36063e-09 -1.02806e-07)
(-1.78772e-09 2.95998e-13 -9.39046e-08)
(-2.36978e-09 -6.49182e-09 -9.213e-08)
(-2.23163e-09 -2.95897e-09 -8.51375e-08)
(1.00358e-08 8.71279e-09 -9.76187e-08)
(-2.25988e-09 -2.2195e-09 -9.23449e-08)
(-6.09089e-10 9.96249e-13 -9.64369e-08)
(-1.65031e-08 7.37919e-13 -1.40111e-07)
(7.63865e-10 -2.7403e-13 -1.30607e-07)
(-7.68388e-09 -1.49692e-08 -9.51466e-08)
(1.24755e-08 1.00225e-08 -1.26614e-07)
(1.18707e-08 2.63515e-08 -8.85651e-08)
(2.56641e-08 -6.66713e-09 -7.53886e-08)
(1.81876e-08 2.08271e-08 -9.30979e-08)
(-5.29138e-08 -3.00679e-08 -1.08195e-07)
(4.10265e-08 4.32072e-08 -1.81868e-07)
(-7.91487e-08 -5.4026e-08 -2.32586e-07)
(-7.91444e-08 5.40229e-08 -2.32586e-07)
(-1.76803e-09 7.76485e-09 -1.78435e-07)
(-9.40241e-08 7.46478e-08 -3.33113e-07)
(2.22677e-09 4.98336e-09 -2.47342e-07)
(1.23822e-07 -1.09297e-07 -4.64283e-07)
(-1.76811e-07 1.4751e-07 -6.47922e-07)
(1.9473e-09 3.12473e-09 -4.75189e-07)
(2.36629e-07 -2.05239e-07 -8.79839e-07)
(-3.2439e-07 2.75578e-07 -1.1913e-06)
(5.28936e-11 -6.07602e-10 -8.62795e-07)
(4.24427e-07 -3.64522e-07 -1.57198e-06)
(-5.60925e-07 4.81539e-07 -2.05662e-06)
(-4.98236e-09 -9.66051e-09 -1.46954e-06)
(7.13666e-07 -6.07496e-07 -2.63377e-06)
(-9.06682e-07 7.87627e-07 -3.32725e-06)
(-1.62792e-08 -3.45021e-08 -2.34634e-06)
(1.13223e-06 -9.47671e-07 -4.13641e-06)
(-1.36279e-06 1.21065e-06 -5.04653e-06)
(-3.36234e-08 -1.04331e-07 -3.51144e-06)
(1.74225e-06 -1.38329e-06 -6.05762e-06)
(-1.86198e-06 1.75044e-06 -7.28595e-06)
(-1.04598e-07 -3.12439e-07 -5.11191e-06)
(2.97265e-06 -2.01696e-06 -7.99612e-06)
(4.89814e-07 -9.55352e-07 -5.58645e-06)
(3.55078e-06 -2.15419e-06 -7.22531e-06)
(3.55077e-06 2.15421e-06 -7.22528e-06)
(-3.25686e-07 -1.37693e-07 -7.72382e-06)
(8.1554e-07 -6.12871e-07 -7.82205e-06)
(-2.85427e-07 1.13005e-06 -6.93918e-06)
(1.14956e-06 1.00738e-06 -6.4211e-06)
(6.28845e-08 -1.27743e-11 -9.30024e-06)
(-7.20707e-07 -7.09377e-07 -6.1293e-06)
(-7.20705e-07 7.09378e-07 -6.12934e-06)
(7.92078e-07 7.44147e-07 -6.17905e-06)
(-3.7657e-08 -8.5253e-12 -9.30973e-06)
(-9.28834e-07 -8.9496e-07 -6.25851e-06)
(-9.28819e-07 8.94956e-07 -6.25853e-06)
(2.49564e-07 3.65027e-07 -5.95741e-06)
(-3.04056e-07 -7.26512e-12 -9.20321e-06)
(-1.33416e-06 -2.35421e-06 -7.61899e-06)
(-1.33417e-06 2.35418e-06 -7.61896e-06)
(4.68885e-07 -1.49711e-06 -8.93684e-06)
(1.91923e-06 1.38703e-11 -1.27119e-05)
(4.689e-07 1.49706e-06 -8.93686e-06)
(7.41205e-07 -1.16971e-06 -9.08351e-06)
(2.0992e-06 7.42253e-07 -1.25673e-05)
(8.92411e-07 1.71052e-06 -9.05918e-06)
(1.20653e-06 1.20191e-06 -1.05359e-05)
(1.51946e-06 1.51489e-06 -9.00908e-06)
(-2.31181e-06 -2.29361e-06 -8.79872e-06)
(-1.34326e-06 1.60717e-06 -7.26241e-06)
(1.28301e-06 2.08216e-07 -8.45642e-06)
(8.69812e-07 1.35831e-07 -1.00071e-05)
(-5.21867e-09 1.67368e-08 -9.2608e-06)
(2.49574e-07 -3.65042e-07 -5.9574e-06)
(-1.49792e-07 -1.33365e-07 -5.69698e-06)
(-3.93757e-07 -3.86349e-07 -9.10092e-06)
(1.60089e-06 -1.31314e-06 -7.29485e-06)
(-1.1869e-06 7.37045e-07 -9.0868e-06)
(7.37801e-07 2.0706e-06 -1.25678e-05)
(1.7122e-06 8.88692e-07 -9.06499e-06)
(9.79226e-07 9.79793e-07 -1.00461e-05)
(-5.24467e-07 -5.12973e-07 -9.1813e-06)
(-7.02511e-07 9.51225e-12 -9.27683e-06)
(-5.24439e-07 5.13e-07 -9.18125e-06)
(-3.93776e-07 3.86348e-07 -9.10091e-06)
(-1.34323e-06 -1.60719e-06 -7.26238e-06)
(-2.31177e-06 2.29356e-06 -8.79875e-06)
(8.92431e-07 -1.71067e-06 -9.05893e-06)
(2.09927e-06 -7.42361e-07 -1.25674e-05)
(7.41258e-07 1.16967e-06 -9.08343e-06)
(1.28301e-06 -2.08268e-07 -8.45652e-06)
(8.6983e-07 -1.35845e-07 -1.00071e-05)
(9.79358e-07 -9.797e-07 -1.00462e-05)
(1.71207e-06 -8.88757e-07 -9.06537e-06)
(7.37683e-07 -2.07057e-06 -1.25676e-05)
(-1.18692e-06 -7.37084e-07 -9.08692e-06)
(1.60084e-06 1.31312e-06 -7.29483e-06)
(1.95477e-07 -1.291e-06 -8.44874e-06)
(1.4763e-06 -5.1101e-07 -8.99564e-06)
(-3.62501e-08 -1.9148e-06 -1.27213e-05)
(-1.53799e-06 -4.53632e-07 -8.9482e-06)
(2.34463e-06 1.23573e-06 -7.64413e-06)
(-3.54501e-08 2.97737e-07 -9.21592e-06)
(-4.14375e-07 -2.79075e-07 -5.9525e-06)
(-2.41018e-06 1.34205e-06 -7.62631e-06)
(-4.03252e-08 -2.77052e-07 -8.51486e-06)
(-2.81654e-07 -3.40333e-07 -8.62495e-06)
(1.85866e-08 -1.34709e-08 -4.99701e-06)
(1.47915e-08 -2.6213e-08 -3.44464e-06)
(7.05576e-09 -3.23511e-08 -2.24019e-06)
(3.72628e-09 -2.72005e-08 -1.36543e-06)
(1.9985e-09 -1.93849e-08 -7.79918e-07)
(8.9007e-10 -1.26107e-08 -4.18664e-07)
(2.62374e-10 -7.61181e-09 -2.15176e-07)
(-2.28095e-09 -7.53093e-09 -2.08311e-07)
(7.37271e-08 -4.35031e-08 -2.11924e-07)
(-8.00433e-08 -3.69319e-08 -2.09799e-07)
(8.00707e-08 -3.30943e-08 -2.10159e-07)
(-7.30867e-08 -5.13997e-08 -2.11583e-07)
(9.56746e-08 8.24732e-08 -2.99796e-07)
(-1.42452e-07 -1.07333e-07 -4.25057e-07)
(1.90626e-07 1.58208e-07 -5.83306e-07)
(-2.69317e-07 -2.10973e-07 -8.09134e-07)
(3.55176e-07 2.88147e-07 -1.07966e-06)
(-4.79983e-07 -3.874e-07 -1.4474e-06)
(6.1961e-07 4.92801e-07 -1.87326e-06)
(-8.0346e-07 -6.66052e-07 -2.42691e-06)
(1.01369e-06 7.88366e-07 -3.04364e-06)
(-1.26074e-06 -1.07468e-06 -3.81564e-06)
(1.5527e-06 1.17852e-06 -4.6213e-06)
(-1.83087e-06 -1.61156e-06 -5.63521e-06)
(-2.40529e-08 1.34724e-08 -5.00898e-06)
(1.54424e-06 -1.53676e-06 -5.43053e-06)
(1.56131e-06 1.82262e-06 -5.61711e-06)
(1.11982e-06 -2.00625e-06 -5.50328e-06)
(-8.37617e-07 1.75345e-06 -4.61513e-06)
(4.10931e-08 -7.61972e-12 -3.52515e-06)
(-8.37454e-07 -1.75344e-06 -4.61518e-06)
(7.47057e-07 1.39332e-06 -3.75268e-06)
(1.03521e-06 -1.25529e-06 -3.80774e-06)
(1.02741e-06 1.01918e-06 -3.70361e-06)
(-7.91665e-07 -7.74799e-07 -2.98928e-06)
(-7.67748e-07 1.02418e-06 -3.0516e-06)
(3.98181e-08 1.19295e-08 -2.23083e-06)
(6.40837e-07 6.3432e-07 -2.36495e-06)
(9.09704e-09 4.55182e-08 -2.22696e-06)
(1.0138e-06 -7.88294e-07 -3.04373e-06)
(-2.11085e-08 -5.60451e-08 -2.78248e-06)
(-1.16528e-06 -5.23179e-07 -3.03532e-06)
(1.13248e-06 -5.97778e-07 -3.02114e-06)
(-3.11867e-09 4.6868e-08 -2.27164e-06)
(-8.96581e-07 4.98419e-07 -2.40012e-06)
(8.27801e-07 5.44551e-07 -2.39764e-06)
(-1.06439e-06 -6.68429e-07 -3.03694e-06)
(-1.43803e-09 -6.09678e-08 -2.78295e-06)
(-1.40534e-06 8.01935e-07 -3.76501e-06)
(-6.29895e-09 4.32982e-08 -3.51194e-06)
(1.73138e-06 -8.86499e-07 -4.58393e-06)
(-2.0271e-06 1.18813e-06 -5.53442e-06)
(-1.14695e-08 -3.08789e-08 -5.06837e-06)
(-2.54071e-06 -1.13979e-06 -6.46194e-06)
(-8.86955e-08 -4.08671e-08 -5.92605e-06)
(1.19697e-06 4.34101e-08 -6.43933e-06)
(-6.23021e-08 -1.03712e-06 -1.0555e-05)
(1.9552e-07 1.29096e-06 -8.44877e-06)
(-2.41021e-06 -1.3421e-06 -7.62625e-06)
(-4.14354e-07 2.79045e-07 -5.95247e-06)
(6.98977e-08 8.98741e-08 -8.63563e-06)
(-3.71498e-08 -1.97867e-08 -6.25578e-06)
(-2.43248e-08 -1.12524e-11 -5.24857e-06)
(-2.08749e-08 5.124e-09 -4.93085e-06)
(-1.22811e-08 -1.16936e-08 -3.40889e-06)
(-5.96502e-09 -2.15986e-08 -2.21668e-06)
(-2.71667e-09 -2.00335e-08 -1.35065e-06)
(-1.22039e-09 -1.48803e-08 -7.71069e-07)
(-5.66734e-10 -9.88052e-09 -4.13807e-07)
(-2.60718e-10 -5.89594e-09 -2.1291e-07)
(2.04453e-10 1.37675e-09 -1.4029e-07)
(-4.52658e-11 -2.36298e-09 -1.08674e-07)
(-3.1857e-09 2.59619e-09 -7.71809e-08)
(1.98696e-10 3.37875e-09 -1.39355e-07)
(2.92467e-10 1.607e-10 -7.5025e-08)
(2.26727e-08 -1.61249e-08 -8.99126e-08)
(2.12501e-09 1.9765e-08 -1.04573e-07)
(-8.53031e-10 -1.13634e-08 -1.57482e-07)
(-3.32958e-08 1.30024e-08 -1.34759e-07)
(3.02267e-08 8.23387e-09 -1.34477e-07)
(-3.07831e-08 7.18403e-09 -1.34003e-07)
(3.17444e-08 1.53584e-08 -1.35776e-07)
(-1.47167e-08 1.13019e-08 -1.24553e-07)
(5.26544e-08 -3.30663e-09 -8.87611e-08)
(-1.82938e-08 -3.62478e-08 -1.45132e-07)
(4.90578e-08 7.16669e-08 -2.13354e-07)
(5.98714e-09 -9.03392e-10 -2.08332e-07)
(-7.91464e-08 -9.78708e-08 -3.06809e-07)
(-7.90981e-08 7.80622e-08 -2.86922e-07)
(5.89569e-08 -5.40746e-08 -2.05831e-07)
(2.82828e-09 -7.50276e-09 -2.05062e-07)
(1.46892e-09 -5.99051e-09 -2.21165e-07)
(-4.58677e-09 1.25421e-08 -1.30627e-07)
(5.56719e-11 1.26133e-08 -1.31285e-07)
(5.11101e-09 1.25474e-08 -1.30224e-07)
(1.08519e-08 8.10194e-09 -1.22044e-07)
(1.49451e-08 9.85576e-09 -1.28043e-07)
(-4.0555e-09 -2.0422e-09 -2.28019e-07)
(-7.59793e-10 2.33396e-09 -2.22511e-07)
(8.06476e-09 6.58807e-09 -1.58917e-07)
(-1.48831e-09 -5.93355e-09 -2.21728e-07)
(-6.57161e-09 -2.14007e-08 -4.36644e-07)
(-8.4067e-09 -6.06525e-09 -4.41288e-07)
(-1.05498e-08 -7.48415e-09 -4.41979e-07)
(-1.97939e-08 -1.53156e-08 -8.22787e-07)
(-1.91542e-08 -1.75671e-08 -8.33174e-07)
(5.53557e-09 5.5383e-09 -6.16839e-07)
(4.79628e-09 5.17141e-09 -3.17634e-07)
(2.72507e-09 7.40565e-09 -3.07246e-07)
(-1.00475e-07 7.16568e-08 -2.97111e-07)
(1.07976e-07 6.30437e-08 -2.98588e-07)
(-1.57652e-07 -7.84306e-08 -4.20833e-07)
(1.57867e-07 -6.82254e-08 -4.2041e-07)
(-2.00287e-09 9.08983e-09 -2.91061e-07)
(-1.10419e-07 5.70921e-08 -2.97632e-07)
(-2.77296e-10 -8.37468e-09 -2.10382e-07)
(-3.79381e-11 -4.66511e-09 -2.22114e-07)
(1.33334e-10 -2.05229e-08 -4.36399e-07)
(4.28027e-10 -4.40437e-08 -8.25981e-07)
(-1.23212e-08 -4.43307e-08 -8.25325e-07)
(-2.08046e-08 -8.03133e-08 -1.45902e-06)
(-3.69684e-08 -3.60791e-08 -1.47312e-06)
(-3.4481e-08 -2.75662e-08 -1.44129e-06)
(-5.61636e-08 -4.56342e-08 -2.36842e-06)
(-6.67848e-08 -6.87087e-08 -2.43887e-06)
(2.82976e-09 1.8016e-09 -1.91831e-06)
(5.67249e-09 5.06054e-09 -1.12429e-06)
(6.72505e-09 1.2781e-08 -1.09252e-06)
(-3.74036e-07 2.42606e-07 -1.07462e-06)
(3.9883e-07 2.20437e-07 -1.0729e-06)
(-5.3499e-07 -2.89314e-07 -1.433e-06)
(5.3646e-07 -2.49894e-07 -1.42752e-06)
(-6.71582e-09 2.57372e-08 -1.02171e-06)
(-4.08711e-07 1.92613e-07 -1.07361e-06)
(3.00192e-07 -1.35117e-07 -7.99159e-07)
(-3.83381e-09 1.59249e-08 -5.61659e-07)
(-2.19742e-07 1.07174e-07 -5.79465e-07)
(-4.84091e-10 -1.43549e-08 -4.13894e-07)
(2.14635e-07 1.21407e-07 -5.80036e-07)
(-2.99456e-07 -1.56495e-07 -8.01343e-07)
(9.58982e-10 1.68391e-08 -5.62751e-07)
(-2.00773e-07 1.34275e-07 -5.79753e-07)
(1.46207e-07 -8.94344e-08 -4.23651e-07)
(7.79407e-10 9.67165e-09 -2.91604e-07)
(2.69157e-10 1.7404e-09 -3.28183e-07)
(-4.63878e-09 -4.86385e-09 -3.15254e-07)
(-9.40116e-08 -7.46362e-08 -3.33111e-07)
(3.10224e-09 9.07451e-10 -1.73502e-07)
(6.15285e-08 5.64222e-08 -2.40378e-07)
(2.57285e-09 -6.63967e-09 -1.29337e-07)
(-5.83844e-08 -3.88594e-08 -1.62628e-07)
(-2.58733e-08 -8.15077e-09 -8.60229e-08)
(1.33302e-08 -3.95541e-09 -1.31382e-07)
(-3.63436e-09 -1.68281e-09 -1.58367e-07)
(-6.78078e-12 1.94066e-09 -1.63447e-07)
(-3.05324e-10 6.61023e-09 -1.51961e-07)
(1.50733e-09 8.42932e-09 -1.56308e-07)
(-2.17881e-09 8.08609e-09 -1.56206e-07)
(6.66504e-10 -1.17183e-08 -1.57059e-07)
(-7.96101e-09 6.66786e-09 -1.62762e-07)
(-8.62302e-09 8.14282e-09 -1.22083e-07)
(-3.69423e-09 4.77724e-09 -1.28285e-07)
(9.73352e-09 -1.40725e-09 -2.2732e-07)
(-1.80649e-09 7.77894e-10 -2.18385e-07)
(-5.87434e-09 5.47435e-09 -3.22191e-07)
(-3.83613e-09 6.88904e-09 -3.06774e-07)
(7.39799e-09 -2.15101e-08 -4.34869e-07)
(1.46752e-08 -4.48732e-08 -8.22628e-07)
(2.56501e-08 -8.20317e-08 -1.45673e-06)
(7.6684e-10 -8.14861e-08 -1.46271e-06)
(9.87124e-10 -1.43075e-07 -2.42167e-06)
(-3.35352e-08 -1.37785e-07 -2.41194e-06)
(-5.58955e-08 -2.37281e-07 -3.73969e-06)
(-1.21276e-07 -1.36438e-07 -3.79248e-06)
(-8.69848e-08 -7.24076e-08 -3.65221e-06)
(-1.62296e-07 -1.44606e-07 -5.27289e-06)
(-2.7582e-07 -3.24021e-07 -5.5847e-06)
(-4.58467e-08 -3.79886e-08 -4.60443e-06)
(-8.31098e-09 -8.94484e-09 -3.06877e-06)
(9.86693e-09 1.27596e-08 -3.00407e-06)
(-1.06436e-06 6.68431e-07 -3.03686e-06)
(1.13242e-06 5.97844e-07 -3.02106e-06)
(-1.40537e-06 -8.01898e-07 -3.765e-06)
(1.40332e-06 -7.0281e-07 -3.73674e-06)
(-2.11554e-08 5.6049e-08 -2.7825e-06)
(-1.16521e-06 5.23199e-07 -3.03528e-06)
(8.9809e-07 -4.32301e-07 -2.38781e-06)
(-1.16551e-08 3.88821e-08 -1.74218e-06)
(-7.12118e-07 3.27175e-07 -1.86468e-06)
(-1.5663e-09 -3.49982e-08 -1.3753e-06)
(6.93848e-07 3.75436e-07 -1.86044e-06)
(-8.96586e-07 -4.98384e-07 -2.4001e-06)
(3.26289e-10 4.18069e-08 -1.74367e-06)
(-6.51814e-07 4.14873e-07 -1.86618e-06)
(4.95352e-07 -3.17633e-07 -1.43467e-06)
(9.19594e-10 2.73735e-08 -1.02325e-06)
(4.55858e-10 4.80881e-09 -1.13769e-06)
(4.37387e-10 2.99224e-09 -6.29162e-07)
(-7.5766e-09 -8.57995e-09 -6.02528e-07)
(-1.76803e-07 -1.47491e-07 -6.4791e-07)
(1.69005e-09 8.06332e-10 -3.4282e-07)
(1.23823e-07 1.09296e-07 -4.64268e-07)
(2.23193e-09 -4.98422e-09 -2.47339e-07)
(9.36575e-09 -2.49929e-09 -2.52427e-07)
(-1.4535e-07 -1.08861e-07 -4.54744e-07)
(1.86415e-07 1.60589e-07 -6.30405e-07)
(-2.70649e-07 -2.08448e-07 -8.57465e-07)
(-2.70649e-07 2.08455e-07 -8.57452e-07)
(-5.89134e-10 5.36577e-09 -6.41973e-07)
(3.48265e-07 -2.93403e-07 -1.15391e-06)
(5.68959e-09 5.26382e-09 -8.77675e-07)
(-4.80225e-07 3.74924e-07 -1.52648e-06)
(-7.10351e-10 3.36549e-09 -1.12638e-06)
(6.06095e-07 -5.04089e-07 -1.98921e-06)
(1.35952e-09 7.79167e-09 -1.49265e-06)
(-7.97731e-07 6.3082e-07 -2.55018e-06)
(-1.11636e-10 -5.26342e-09 -1.85441e-06)
(9.88152e-07 -8.10025e-07 -3.215e-06)
(-1.60865e-08 8.68855e-09 -2.37741e-06)
(-1.22434e-06 9.93084e-07 -3.99578e-06)
(7.60912e-09 -3.84301e-08 -2.86336e-06)
(1.52269e-06 -1.2118e-06 -4.86001e-06)
(-8.68535e-08 -1.58931e-09 -3.54374e-06)
(-1.69384e-06 1.46416e-06 -5.8894e-06)
(5.42866e-08 -1.70219e-07 -4.14403e-06)
(2.28574e-06 -1.64236e-06 -6.75721e-06)
(-3.86108e-07 -1.37917e-07 -4.98951e-06)
(-1.87839e-06 1.92918e-06 -8.29636e-06)
(-2.54014e-07 -3.7286e-11 -6.79012e-06)
(-1.87835e-06 -1.92919e-06 -8.29636e-06)
(4.89806e-07 9.55193e-07 -5.58645e-06)
(2.97268e-06 2.01706e-06 -7.99598e-06)
(-1.04571e-07 3.12305e-07 -5.11186e-06)
(-1.86187e-06 -1.75037e-06 -7.28594e-06)
(-7.47568e-08 -1.90921e-08 -4.14747e-06)
(1.74217e-06 1.38324e-06 -6.05752e-06)
(-3.36112e-08 1.04254e-07 -3.5114e-06)
(-1.36278e-06 -1.21059e-06 -5.0465e-06)
(-3.66499e-08 -4.72524e-09 -2.88187e-06)
(1.13228e-06 9.47785e-07 -4.13636e-06)
(-1.62504e-08 3.44323e-08 -2.34635e-06)
(-9.0654e-07 -7.87539e-07 -3.32726e-06)
(-1.58004e-08 -1.90634e-09 -1.86633e-06)
(7.137e-07 6.07568e-07 -2.63374e-06)
(-4.95716e-09 9.58755e-09 -1.46951e-06)
(-5.60898e-07 -4.81518e-07 -2.05662e-06)
(-6.0083e-09 -4.00059e-10 -1.13199e-06)
(4.24423e-07 3.64543e-07 -1.57193e-06)
(7.48825e-11 5.80316e-10 -8.62779e-07)
(-3.24376e-07 -2.75558e-07 -1.1913e-06)
(-1.02043e-09 4.2842e-10 -6.43086e-07)
(2.3663e-07 2.0525e-07 -8.79809e-07)
(1.9626e-09 -3.12038e-09 -4.7518e-07)
(7.4578e-09 -3.39359e-09 -4.84022e-07)
(-1.3605e-08 -1.3848e-08 -6.24711e-07)
(-9.39073e-09 -7.62048e-09 -3.32897e-07)
(-5.88332e-09 -2.70636e-09 -1.77928e-07)
(1.44894e-08 7.0718e-09 -1.16042e-07)
(7.49868e-10 -4.34464e-12 -1.0672e-07)
(-1.07764e-08 -4.46996e-13 -1.37763e-07)
(-2.06432e-08 -1.36719e-11 -2.40293e-07)
(-3.3128e-08 1.36046e-12 -4.48428e-07)
(-5.19895e-08 1.44987e-11 -8.21222e-07)
(-7.85165e-08 3.2774e-11 -1.42832e-06)
(-1.05562e-07 7.44792e-11 -2.33568e-06)
(-1.03932e-07 2.93335e-10 -3.58027e-06)
(-1.71144e-08 8.91589e-11 -5.1258e-06)
(1.24489e-07 -3.34636e-11 -6.63568e-06)
(-1.6884e-07 -1.14315e-10 -7.80571e-06)
(-1.30144e-06 6.13217e-07 -7.64116e-06)
(-1.30145e-06 -6.13306e-07 -7.64116e-06)
(-1.33905e-06 -8.52312e-07 -7.02172e-06)
(-1.11187e-06 -8.33839e-07 -8.28241e-06)
(-3.76067e-07 -2.21771e-07 -6.42403e-06)
(-1.48386e-07 -4.54483e-07 -5.48255e-06)
(-6.06966e-07 -1.40522e-06 -7.98676e-06)
(9.53609e-07 3.9964e-06 -5.6191e-06)
(1.49398e-06 -3.18685e-07 -6.56596e-06)
(3.17448e-08 5.43619e-08 -5.92604e-06)
(1.09986e-08 -8.24379e-09 -6.06846e-06)
(8.29774e-08 -3.39726e-08 -5.89963e-06)
(-3.86053e-07 1.37919e-07 -4.98949e-06)
(2.2856e-06 1.64245e-06 -6.75712e-06)
(5.43416e-08 1.70116e-07 -4.14396e-06)
(-1.69383e-06 -1.4641e-06 -5.8894e-06)
(-1.64424e-07 -1.4224e-11 -4.85867e-06)
(-7.09783e-08 -1.39843e-11 -5.014e-06)
(-6.48049e-08 -1.55125e-11 -3.45525e-06)
(7.68791e-09 3.84077e-08 -2.86329e-06)
(-1.22433e-06 -9.93074e-07 -3.9958e-06)
(1.52264e-06 1.21182e-06 -4.85989e-06)
(-8.68534e-08 1.58133e-09 -3.54379e-06)
(-7.48196e-09 -2.7049e-08 -4.35196e-06)
(-1.90549e-08 -2.52264e-08 -2.92573e-06)
(-1.61161e-08 -8.71317e-09 -2.3774e-06)
(9.88016e-07 8.10039e-07 -3.21492e-06)
(-7.24982e-11 5.23987e-09 -1.85438e-06)
(-7.97673e-07 -6.30831e-07 -2.55023e-06)
(-2.80173e-08 9.58061e-12 -2.1647e-06)
(-5.08516e-08 -1.1287e-12 -2.24664e-06)
(-3.59483e-08 -4.41437e-12 -1.37047e-06)
(-2.28433e-08 -5.55961e-12 -7.84365e-07)
(-5.71814e-10 -5.39001e-09 -6.41963e-07)
(3.48257e-07 2.93408e-07 -1.15387e-06)
(-4.80223e-07 -3.74919e-07 -1.52652e-06)
(6.0607e-07 5.04119e-07 -1.98915e-06)
(1.36336e-09 -7.77852e-09 -1.49261e-06)
(-1.68252e-08 -1.98497e-08 -1.84268e-06)
(-1.19091e-08 -1.37352e-08 -1.08773e-06)
(1.40685e-09 -5.01822e-12 -8.23242e-07)
(8.39742e-10 -2.59693e-12 -4.42519e-07)
(3.71028e-10 2.57401e-13 -2.29297e-07)
(-6.14158e-09 -5.39317e-13 -2.20041e-07)
(-1.76659e-09 -7.76818e-09 -1.78435e-07)
(9.26396e-08 8.40139e-08 -3.30853e-07)
(4.72778e-09 -1.04476e-12 -2.12582e-07)
(9.26471e-08 -8.40167e-08 -3.30854e-07)
(9.35843e-09 2.50126e-09 -2.52427e-07)
(-1.45343e-07 1.08866e-07 -4.54743e-07)
(-8.16401e-10 6.08714e-09 -3.44918e-07)
(1.86437e-07 -1.60595e-07 -6.30432e-07)
(7.46579e-09 3.39033e-09 -4.84028e-07)
(-7.57674e-09 8.57483e-09 -6.02532e-07)
(-1.28446e-08 1.14598e-12 -4.22976e-07)
(-8.13161e-10 -6.10061e-09 -3.44907e-07)
(9.17404e-10 2.51912e-12 -4.05029e-07)
(-4.63753e-09 4.86222e-09 -3.15254e-07)
(-3.63343e-09 1.68252e-09 -1.58368e-07)
(-5.83871e-08 3.88613e-08 -1.62628e-07)
(2.57297e-09 6.63478e-09 -1.2934e-07)
(6.15275e-08 -5.6422e-08 -2.40385e-07)
(1.33286e-08 3.95583e-09 -1.31386e-07)
(4.10248e-08 -4.32068e-08 -1.81869e-07)
(-7.68361e-09 1.49713e-08 -9.51448e-08)
(-5.29151e-08 3.00678e-08 -1.08195e-07)
(5.2958e-09 1.38414e-12 -1.23004e-07)
(1.81885e-08 -2.0826e-08 -9.31001e-08)
(2.56654e-08 6.67009e-09 -7.53889e-08)
(1.1868e-08 -2.6352e-08 -8.85635e-08)
(3.14135e-08 -7.21283e-09 -9.29208e-08)
(1.24771e-08 -1.0022e-08 -1.26618e-07)
(4.72583e-09 -8.88132e-10 -9.58708e-08)
(-9.38087e-09 -5.60957e-09 -8.80262e-08)
(5.51702e-09 -3.12133e-09 -1.03325e-07)
(-2.25995e-09 2.21906e-09 -9.23426e-08)
(-2.36866e-09 6.49097e-09 -9.21263e-08)
(1.00355e-08 -8.71484e-09 -9.76202e-08)
(-2.23272e-09 2.95963e-09 -8.51294e-08)
(1.52253e-09 -9.02592e-09 -1.00589e-07)
(2.86719e-11 6.49993e-09 -9.32148e-08)
(3.671e-11 9.18877e-14 -9.56529e-08)
(2.83687e-11 -6.50039e-09 -9.32146e-08)
(-1.67102e-11 -3.28583e-09 -8.52694e-08)
(6.4869e-11 1.77401e-08 -1.33875e-07)
(1.52306e-09 9.0257e-09 -1.00591e-07)
(-1.70396e-10 1.36181e-09 -1.02808e-07)
(5.51729e-09 3.12258e-09 -1.03326e-07)
(-1.97595e-09 -2.64099e-09 -8.28768e-08)
(-9.38209e-09 5.61113e-09 -8.80265e-08)
(4.72548e-09 8.87714e-10 -9.58695e-08)
(-4.85345e-11 1.39538e-09 -1.03033e-07)
(2.90114e-09 -6.21392e-09 -9.19025e-08)
(2.48541e-09 -2.74327e-09 -8.52036e-08)
(-1.6897e-09 9.02014e-09 -1.00983e-07)
(-9.96008e-09 8.46569e-09 -9.79712e-08)
(2.87932e-09 -1.83053e-09 -9.25616e-08)
(-5.51568e-09 2.3007e-09 -1.00927e-07)
(1.01548e-08 1.31279e-08 -7.97815e-08)
(3.10028e-08 -1.75823e-08 -1.05695e-07)
(-1.93605e-08 1.83672e-08 -1.05986e-07)
(5.80407e-09 -1.45007e-09 -1.49156e-07)
(2.63294e-09 2.40536e-13 -9.35827e-08)
(1.51954e-09 1.52433e-12 -1.11866e-07)
(1.76627e-09 7.97162e-13 -1.42726e-07)
(1.33018e-11 -2.5527e-13 -1.44756e-07)
(-1.4642e-10 5.86701e-13 -1.14005e-07)
(-3.21679e-10 -1.00455e-12 -2.29223e-07)
(-6.85434e-10 -4.73113e-13 -4.42208e-07)
(-1.3986e-09 1.05967e-12 -8.22906e-07)
(-3.01692e-09 -3.4705e-12 -1.44018e-06)
(2.14159e-09 -2.44424e-12 -1.44061e-06)
(3.6661e-09 9.69698e-12 -2.36292e-06)
(8.609e-09 8.96046e-12 -3.63197e-06)
(2.17188e-08 -9.02073e-12 -5.25775e-06)
(-1.37202e-07 -1.44109e-11 -8.26768e-06)
(-4.06331e-07 5.88249e-13 -7.63863e-06)
(1.5818e-06 -5.25466e-11 -1.175e-05)
(-2.85423e-07 -1.13011e-06 -6.93915e-06)