/*--------------------------------*- C++ -*----------------------------------*\
| =========                 |                                                 |
| \\      /  F ield         | OpenFOAM: The Open Source CFD Toolbox           |
|  \\    /   O peration     | Version:  2306                                  |
|   \\  /    A nd           | Website:  www.openfoam.com                      |
|    \\/     M anipulation  |                                                 |
\*---------------------------------------------------------------------------*/
FoamFile
{
    version     2.0;
    format      ascii;
    arch        "LSB;label=32;scalar=64";
    class       volScalarField;
    location    "1.3";
    object      gradTx;
}
// * * * * * * * * * * * * * * * * * * * * * * * * * * * * * * * * * * * * * //

dimensions      [0 -1 0 1 0 0 0];

internalField   nonuniform List<scalar> 
2658
(
0.00846526
0.012436
0.00403369
-0.000177828
-0.0159484
-0.0134604
0.0133462
0.0131985
-0.000205782
0.019057
-0.0133288
-0.00997273
0.00688926
0.00807623
0.00613881
-0.000467333
-0.000273396
-0.000156338
-0.00672968
-0.00878246
-0.00846056
-0.0196478
-0.0232881
0.0172968
-0.00722048
-0.00929331
-0.0199845
-0.00278414
-0.0146296
-0.0158662
-0.0146294
-0.019985
-0.00929384
-0.0232894
-0.00722006
0.0172966
-0.00878516
0.00432922
-0.0196446
-0.00846292
-0.00878226
-0.00672926
-0.000157608
0.00060979
-0.0109589
0.0102305
-0.0133285
-0.000532464
-0.000469289
0.00613898
0.00807664
0.00688907
0.0186318
-0.00389894
0.0208096
0.0171751
-0.00900326
0.000546593
-0.0314467
0.0173202
-0.00900276
0.0171755
0.0208095
-0.00389831
0.00393601
-0.033377
0.00386612
-0.000513195
-0.010099
-0.0101002
-0.000285252
0.00956937
-0.000808702
-0.00985006
0.000334976
-0.0103993
0.0132717
-4.31311e-05
-0.0107764
0.011994
-0.015284
-0.000349917
0.0171995
-0.0156489
-0.000363018
-0.00020001
-6.83044e-06
5.24741e-05
5.37761e-05
3.93073e-05
2.33519e-05
-2.85155e-05
2.48854e-05
-0.000190345
0.000122563
-2.54911e-05
-0.000151654
5.59253e-07
0.000151731
-0.000125091
6.63814e-05
0.000171179
0.000161509
0.000117717
0.000123035
-0.000263972
-4.65606e-05
-3.3171e-05
-1.68687e-05
6.98521e-05
0.000149697
5.77514e-05
0.000117658
5.77408e-05
0.000149697
6.98516e-05
0.000123052
-0.000263975
0.00016153
0.000117739
0.00017117
6.63566e-05
-0.000125102
0.000151733
-0.000252572
0.000251418
-0.000190351
-2.54965e-05
-0.000151652
0.000122551
-6.83473e-05
-0.000168263
-0.000111157
-0.00010087
-6.72699e-05
6.09332e-06
-3.38009e-05
-0.000212784
0.000156294
0.000156216
-3.37926e-05
6.05468e-06
6.55186e-05
-7.30992e-05
-8.38369e-05
-7.29307e-05
3.61456e-05
4.39836e-05
-0.000148767
-0.000154754
-0.0001285
-0.000162848
-0.00015998
-0.000164913
-0.000133714
-0.000232446
-0.000207885
-8.89903e-05
-0.000104896
-7.73751e-05
2.1883e-06
-3.12401e-07
-4.16631e-06
7.22865e-05
0.000103078
8.87239e-05
0.000208723
0.00026849
-6.26704e-05
0.000224768
-0.00061471
0.000851952
-0.00116434
0.00165761
-0.00220599
0.00305472
-0.0039557
0.00528752
-0.00666023
0.00860822
-0.0105148
0.0132617
-0.0155809
0.0198212
-0.0197713
0.0210039
-0.0217154
0.0190565
-0.0159491
-0.00017789
-0.0134595
0.00386539
-0.0333763
0.00393609
-0.00997288
0.00407836
-0.000363075
-0.000200023
-6.95619e-06
5.2376e-05
5.38165e-05
3.93382e-05
2.33606e-05
-2.85183e-05
2.48863e-05
3.42059e-06
-6.97242e-05
-8.2403e-06
9.37791e-05
9.37756e-05
-6.97303e-05
3.43237e-06
-8.2116e-06
2.74172e-05
0.000251418
-0.00025259
1.81749e-05
0.000193785
-1.62789e-05
2.50286e-06
-2.72578e-05
-4.03108e-07
1.74075e-06
2.52174e-05
1.99737e-05
2.52171e-05
-1.63124e-05
-4.6548e-05
-0.000123319
-3.31552e-05
2.69024e-05
2.69096e-05
-0.000123328
-4.36538e-06
7.78805e-05
-9.38789e-05
-9.38996e-05
1.70087e-06
7.79015e-05
-1.46515e-06
-1.52797e-05
-2.02545e-05
-1.90737e-05
8.57757e-05
-1.93152e-05
-5.20589e-06
-0.000141052
6.52876e-06
-6.56742e-05
0.000106628
0.000101459
0.000219351
0.00015545
-0.000452255
0.000350654
-0.000676485
-0.000676448
-1.51113e-05
-0.000803625
1.90322e-05
0.00105831
-0.0015112
1.66436e-05
0.00202247
-0.00277256
4.52082e-07
0.00362758
-0.00479423
-4.25842e-05
0.00609971
-0.00774942
-0.000139138
0.00967718
-0.0116478
-0.000287379
0.014891
-0.0159143
-0.000893997
0.0254072
0.00418644
0.0303486
0.0303484
-0.00278364
0.00697043
-0.00243955
0.00982531
0.000537474
-0.00615989
-0.00615987
0.0067699
-0.000321855
-0.00793875
-0.00793863
0.00213303
-0.00259877
-0.0114031
-0.0114031
0.00400757
0.0164036
0.00400769
0.00633508
0.0179419
0.00762744
0.0103123
0.0129868
-0.019759
-0.0114809
0.0109659
0.00743429
-4.46041e-05
0.00213311
-0.00128027
-0.00336545
0.0136828
-0.0101444
0.00630599
0.0146342
0.00836945
-0.00448263
-0.00600436
-0.00448239
-0.00336561
-0.0114806
-0.0197588
0.00762761
0.0179425
0.00633554
0.0109659
0.00743444
0.00837058
0.0146331
0.00630498
-0.0101446
0.0136824
0.00167075
0.0126179
-0.00030983
-0.0131452
0.0200395
-0.000302992
-0.00354167
-0.0205999
-0.00034466
-0.0024073
0.00015886
0.000126423
6.03057e-05
3.18485e-05
1.70812e-05
7.60744e-06
2.24251e-06
-1.94953e-05
0.000630146
-0.000684131
0.000684365
-0.000624673
0.000817732
-0.00121754
0.00162929
-0.00230185
0.00303569
-0.00410241
0.00529581
-0.00686718
0.00866399
-0.0107756
0.013271
-0.0156484
-0.000205581
0.0131986
0.0133445
0.00957115
-0.00715912
0.000351223
-0.00715773
0.0063851
0.00884799
0.00878131
-0.00676637
-0.00656195
0.000340325
0.00547724
7.77524e-05
0.00866496
-0.000180415
-0.00995968
0.00967933
-2.66553e-05
-0.00766309
0.00707522
-0.00909737
-1.22909e-05
-0.0120114
-5.38372e-05
0.0147982
-0.0173256
-9.803e-05
-0.0217155
-0.000758081
0.0102305
-0.000532497
0.00167111
-0.0206001
-0.00354149
0.000597416
-0.000317519
-0.000207904
-0.000178418
-0.000104967
-5.09831e-05
-2.32194e-05
-1.04307e-05
-4.84388e-06
-2.22836e-06
1.74746e-06
-3.86887e-07
-2.72282e-05
1.69826e-06
2.49972e-06
0.000193784
1.81625e-05
-7.29086e-06
-0.00028458
0.000258348
-0.000263104
0.000271319
-0.000125784
0.000450037
-0.000156357
0.000419298
5.11721e-05
-0.000676465
-0.000676052
0.000503905
2.41733e-05
1.25548e-05
-3.92032e-05
4.75828e-07
4.36839e-05
9.27517e-05
0.000127736
-3.46624e-05
-6.49396e-06
6.89296e-05
-1.27206e-05
-5.61676e-05
-7.18521e-05
-9.01695e-05
-0.000169178
-0.000163711
4.73125e-05
4.09939e-05
2.32912e-05
-0.000858761
0.000922876
-0.00134745
0.00134929
-1.71186e-05
-0.000943749
-2.37006e-06
-3.24258e-07
1.13961e-06
3.65835e-06
-0.00010531
-0.000177817
-0.000315969
-0.00029471
-0.00048003
-0.00057081
2.4186e-05
4.84828e-05
5.74791e-05
-0.00319689
0.00340881
-0.00457257
0.00458513
-5.74001e-05
-0.00349326
0.00256575
-3.27676e-05
-0.00187814
-4.13753e-06
0.00183449
-0.00255945
8.19643e-06
-0.00171601
0.00124963
6.6616e-06
2.30049e-06
-3.96477e-05
-0.000803518
2.65148e-05
0.000525884
2.19902e-05
-0.000499012
-0.000221139
0.000113934
-3.10629e-05
-5.79554e-08
-2.60961e-06
1.28832e-05
-1.86223e-05
5.69661e-06
-6.80428e-05
-7.3701e-05
-3.15746e-05
8.31925e-05
-1.54401e-05
-5.0208e-05
-3.27875e-05
6.32307e-05
0.000125429
0.000219232
6.55419e-06
8.43696e-06
-0.000286626
-0.000477739
-0.00103655
-0.00074346
-0.00138715
-0.00235743
-0.000391852
-7.10341e-05
8.43327e-05
-0.00909714
0.00967879
-0.0120117
0.0119942
-0.000180816
-0.00995906
0.00767599
-9.96163e-05
-0.00608648
-1.33872e-05
0.00593032
-0.00766313
2.7888e-06
-0.00557106
0.00423378
7.85978e-06
3.89623e-06
3.73835e-06
-6.47573e-05
-0.00151114
1.44449e-05
0.00105832
1.90763e-05
8.00491e-05
-0.0012423
0.00159329
-0.00231324
-0.00231324
-5.03533e-06
0.00297663
4.8629e-05
-0.00410449
-6.07137e-06
0.0051803
1.16198e-05
-0.00681822
-9.54158e-07
0.00844574
-0.000137491
-0.0104644
6.50352e-05
0.0130144
-0.000742338
-0.0144772
0.000463988
0.0195362
-0.00330007
-0.0160546
-0.00217106
-0.0160543
0.00418638
0.0254075
-0.000893771
-0.0159134
-0.000638947
0.0148903
-0.000287275
-0.0116477
-0.000313247
0.00967757
-0.000138892
-0.00774821
-0.000135046
0.0061
-4.23689e-05
-0.004794
-5.1353e-05
0.00362755
6.40021e-07
-0.00277244
-8.72163e-06
0.00202248
1.67743e-05
6.37419e-05
-0.000116282
-8.02626e-05
-5.02848e-05
0.000123841
6.40913e-06
-9.21056e-05
-0.000176437
-0.000283146
-0.000444355
-0.000671081
-0.00090224
-0.00088831
-0.000146277
0.00106401
-0.00144308
-0.0111234
-0.0111235
-0.0114449
-0.0095032
-0.00321425
-0.00126825
-0.00518774
0.00815051
0.012769
0.000271323
9.40049e-05
0.000709208
-0.0032996
0.0195351
0.000464458
-0.0144772
-0.00140534
-0.000606652
-0.000553888
6.57087e-05
-0.0104643
0.013014
-0.000742337
-6.39483e-05
-0.000162862
-0.000137744
0.00844458
-6.19643e-07
-0.00681771
-0.000239464
-0.000434629
-0.000307251
-0.000195242
-4.8873e-06
0.00297656
-0.00410447
0.00518009
1.16526e-05
-0.000143805
-0.000101787
1.20244e-05
7.17728e-06
3.17118e-06
-5.24921e-05
-1.5099e-05
0.000791791
4.04084e-05
0.000791856
7.99866e-05
-0.00124225
-6.97778e-06
0.00159348
6.38101e-05
-6.47585e-05
-0.000109783
-6.9501e-06
7.84106e-06
-3.9637e-05
-3.1055e-05
-0.000499035
2.19912e-05
0.000525876
0.000113919
0.00035064
-6.56719e-05
-0.000452266
4.52633e-05
0.000155457
0.000219362
0.000101436
0.000268492
0.000106642
4.03917e-05
-8.01784e-05
4.7154e-05
-1.93158e-05
-2.0245e-05
8.57737e-05
-1.90831e-05
1.30131e-05
2.45059e-07
3.13761e-07
2.42467e-07
-1.42822e-07
5.54436e-07
1.30176e-05
-1.45638e-06
4.71564e-05
-1.68885e-05
-8.01888e-05
4.03887e-05
-4.14825e-07
2.4796e-05
2.12429e-05
-1.44419e-05
-8.51289e-05
2.46096e-05
-4.71426e-05
8.67931e-05
0.000264981
-0.000165475
4.96074e-05
2.25038e-05
1.29875e-05
1.50963e-05
1.1369e-07
-1.25145e-06
-2.74939e-06
-5.85841e-06
-1.19539e-05
-2.57856e-05
1.83042e-05
3.13342e-05
7.35812e-05
0.000185631
-0.00117266
-0.00347292
0.0135197
-0.00243952
0.00697055
-0.0150853
-0.00704998
-0.0070493
-0.0150863
-0.00767615
-2.83228e-05
-0.0135113
0.0223821
0.00157337
-0.000889688
-0.0160275
-0.00145529
0.00959426
-0.00719906
-0.0156599
-0.013
-0.0131059
-0.00908823
0.000941012
0.001992
0.000941001
0.000313123
-0.0128468
0.000941425
-0.00767537
-0.0135116
-2.7692e-05
0.00433749
0.00157386
-0.0160276
-0.000889422
0.00203247
-0.000302893
0.0200399
-0.0131457
-0.000309378
0.0126188
0.000991832
-0.000547607
0.00199262
0.00160537
-0.00414095
0.0043378
0.00302591
0.000218415
-0.00145788
-0.000547018
-0.000168395
0.000991287
-0.00190895
-4.46864e-05
-0.00128012
0.000597429
-0.000317592
-0.000758328
-0.000351875
-5.24053e-05
-1.01432e-06
7.47574e-05
-0.0138891
0.0147981
-0.0173264
0.0172
-0.000350669
-0.0152836
-5.36781e-05
-0.000303489
0.000627924
0.000367653
-0.000196607
-0.000133146
-8.75451e-05
-5.53988e-05
3.84531e-05
0.002374
-5.24678e-05
-5.42423e-05
-0.00131289
8.73016e-05
-0.00131099
0.0017381
0.000150804
-0.00239159
-0.00241562
0.00176935
7.13207e-05
0.00321031
0.000242135
-0.00409415
-0.00417174
9.00092e-05
0.00547769
0.000339602
-0.00656102
-0.0067668
7.79804e-05
0.00878164
0.00033473
-0.00984927
-0.0104006
-4.24684e-05
0.000649769
0.00141117
0.00459589
-0.000229537
-0.000265559
-5.49396e-05
-0.000423835
0.0027505
0.00298418
0.00403282
0.00211264
0.00120847
0.000699698
0.000393177
0.000203414
4.26346e-05
-7.23877e-05
-0.000150144
-0.00094641
0.000106613
-0.000946033
0.00125176
0.00018221
-0.00173875
-0.00173927
0.00125222
9.86393e-05
6.09327e-05
3.14901e-05
-1.55918e-05
-3.69203e-06
-6.39091e-05
-6.18403e-05
0.000430414
-6.16694e-05
0.000330764
6.14141e-05
-0.000474254
-0.00047464
0.000331157
-4.35933e-05
0.000124789
-2.35865e-05
-2.37645e-05
0.000171332
-1.98865e-05
0.000124916
-0.000156547
0.000450183
-0.00012571
0.00050389
5.11616e-05
-0.000675909
-0.000676842
0.000419792
-6.38848e-05
-1.55893e-05
-6.34919e-08
2.23859e-06
2.64988e-05
-0.000614726
-1.94726e-05
-0.000858824
6.7005e-06
-0.00134756
-4.10835e-06
-0.00187811
-3.27494e-05
0.00256597
-0.00230215
7.1305e-05
-0.00241546
-0.00239217
0.000150593
0.00176935
-0.00131274
-0.00131133
8.71474e-05
0.00092554
4.91745e-05
0.00162956
-0.00121778
0.0013494
-0.000943761
-1.71125e-05
0.00081794
2.41726e-05
-0.000624838
0.000684429
-2.38018e-06
0.000922934
-0.000684172
0.000630151
-0.000284595
-2.59521e-06
0.000258362
2.83988e-06
-0.000263121
-3.67822e-06
0.000271425
0.00015433
-7.73615e-05
2.20347e-06
5.69135e-06
-1.85883e-05
1.28834e-05
6.8911e-05
0.000127742
0.000123877
-5.03017e-05
-8.0292e-05
-3.46439e-05
-9.02044e-05
-0.00011661
-0.000179307
-0.000169241
-0.000294585
-0.000267363
-0.000266253
-0.000178822
4.84827e-05
-0.000312568
-0.000315113
-0.000479534
-0.000743858
-0.00013136
-0.000127676
0.000226986
0.00022661
-0.00138872
-0.0114457
-0.00951149
-0.00321784
0.0198211
6.41597e-05
-0.0197708
0.000271439
-0.0109587
-0.0004238
-0.000344603
-0.00240728
0.000158976
0.000126399
6.04045e-05
3.18104e-05
1.70849e-05
7.61155e-06
1.44448e-05
-0.00116439
-3.70798e-05
-0.00171605
8.16577e-06
-0.0025596
-6.95769e-06
-0.00349346
-5.73479e-05
0.00458534
-0.00410285
8.9836e-05
-0.00417151
-0.00409504
0.000242126
0.00321007
0.00318369
-0.000243585
0.00229369
0.000284472
-0.00297842
-0.00297907
0.0022943
-0.000243504
0.00318305
-0.000100689
0.00040122
0.000207415
9.15935e-05
9.60559e-05
-4.35721e-05
-3.16101e-05
-0.000133586
-0.000165795
-0.000122082
-6.72638e-05
-0.000100905
-0.000111203
-0.000165425
-0.000168276
-6.83393e-05
-0.000104862
-8.89904e-05
4.96757e-05
-0.000207927
-0.000232535
-7.37052e-05
-3.92251e-05
4.75247e-07
4.36579e-05
0.000103082
7.22825e-05
-7.31172e-06
-4.1489e-06
-3.35232e-07
-0.000128188
0.000224779
-0.000221145
-6.27003e-05
8.8759e-05
0.000208665
9.26826e-05
-1.26723e-05
-6.54607e-06
4.09393e-05
0.000851973
2.3311e-05
0.00124966
-5.6218e-05
-7.16103e-05
4.71228e-05
0.00165757
-0.00220629
-5.2372e-05
-0.00319727
7.93193e-06
0.00423374
-0.00457269
-1.3384e-05
-0.00608679
-9.97309e-05
0.00767607
-0.00686749
0.00529636
-0.000132824
7.67982e-05
-0.00557137
2.65237e-06
0.00593065
-2.32355e-05
-1.04565e-05
-4.84776e-06
-2.21246e-06
2.31659e-06
3.81497e-06
3.85854e-06
-0.000101708
-0.000143611
1.24439e-06
1.30424e-06
-2.06782e-06
-1.2242e-05
0.0110523
-9.41467e-06
1.3553e-05
-2.93762e-05
0.0158676
6.40765e-05
-0.000340155
-0.000208359
-0.00013094
-8.11193e-05
-4.83338e-05
-2.66813e-05
-8.88048e-05
0.000890474
0.000646745
0.000646386
0.000890957
-8.87878e-05
-2.66792e-05
-4.83933e-05
-0.000150078
0.00173871
-7.2281e-05
-4.71599e-05
8.32679e-05
0.000203558
0.000393246
-0.000100579
-4.95389e-05
-5.40794e-05
-5.53497e-05
3.86005e-05
0.00237406
-0.000105539
-0.000163182
4.81646e-05
0.00305482
-0.00395588
-6.96798e-05
0.00528767
-0.00666048
-7.36525e-05
0.00860853
-0.0105154
-8.58852e-06
-0.0138893
-2.92193e-05
0.0158664
-0.0155819
-0.000638629
0.0132614
-0.000313758
-0.000391462
-7.15003e-05
2.38178e-05
-0.000315045
-0.000178192
-0.000287734
-0.000567945
-0.000478628
-0.00103065
-0.00126796
-0.00236214
-0.00519034
0.00814996
-0.00878487
0.00432749
-0.0131061
-0.0156597
-0.00719904
0.00959442
-0.00145569
0.000609429
0.0127685
-5.41732e-05
0.021004
-0.000178464
-0.000104965
-5.11057e-05
-5.52552e-05
-0.00011232
1.33317e-05
-6.3761e-05
-0.000162794
-2.20347e-06
-0.000208327
0.000127759
0.000133067
-0.000130945
-8.1066e-05
-0.000373708
0.00547225
0.00395068
0.00038476
-0.00476595
-0.0047667
0.00395153
-0.000373761
0.00547157
-0.000121843
-7.39876e-06
0.000274681
-5.00384e-05
0.000129335
0.000157058
0.000562845
-0.000102727
0.00884637
0.00638631
-0.000551158
1.37313e-05
-0.000154373
0.00239027
-0.000106269
0.00676999
-0.000168739
9.40407e-05
0.00070942
0.00302489
0.00982574
-0.00414146
0.00021801
-0.00145772
-0.00908769
0.0223816
-0.0129996
0.000941306
-0.000168664
-0.000874008
0.0040784
0.000546182
0.0015547
0.00417927
-1.14264e-05
-0.000808865
0.00155404
0.0124352
0.00846796
0.0213431
0.0119626
0.0173208
0.019138
-0.000513293
0.00218906
0.00125006
0.000718412
-0.000121674
0.00069939
0.00120857
-0.000102271
-0.000551293
0.000157852
-7.35915e-06
0.000219167
0.000125459
6.33324e-05
1.25918e-05
-3.49276e-07
1.05499e-06
3.46385e-06
5.76435e-05
0.00340906
6.18436e-06
8.03962e-06
8.48737e-05
0.0110515
7.50296e-05
-0.000302584
-0.000196183
0.000367375
0.000627843
-1.70824e-06
-5.32145e-05
-0.000228938
-0.00035246
0.00141118
0.00459536
0.00275013
0.000649613
-1.05382e-05
0.00211137
0.00123143
0.00298486
0.000563416
-8.75064e-05
0.00303612
-3.27689e-05
-5.01113e-05
-6.79248e-05
-1.53393e-05
4.27153e-05
0.000129794
0.000277325
-0.000340018
0.00122626
-0.000135479
-5.14593e-05
-8.7301e-06
0.00183453
-4.71874e-05
0.000925563
4.91556e-05
2.12452e-05
2.47922e-05
-4.14425e-07
-4.71484e-05
3.04711e-05
2.46086e-05
-8.51332e-05
-1.44419e-05
-1.30414e-07
0.00026496
8.68632e-05
-0.000212808
-0.000158005
0.000170963
-1.99751e-05
6.5454e-05
-0.000121914
7.64321e-05
0.0070751
-7.32708e-05
-9.78963e-05
0.00203255
-0.000168434
-0.00190947
2.74138e-05
0.000160051
-5.7799e-06
-0.000111682
-4.26928e-05
-0.000583209
-6.97573e-05
-2.65186e-05
-3.70283e-05
-7.03982e-06
-0.000128195
2.83746e-06
0.000154413
0.0129875
0.0103126
0.000137014
-0.00131293
0.000136423
0.0186322
0.0213441
-7.36029e-05
-3.15706e-05
8.32672e-05
5.11737e-05
0.000503876
0.000419349
-0.000676517
-0.000675982
2.41763e-05
-0.000624682
0.000271315
0.000154385
-8.9038e-05
-0.000104919
-7.73778e-05
2.19054e-06
-3.11638e-07
-4.16059e-06
7.23262e-05
0.00010308
8.87385e-05
0.000208806
0.000268495
-0.000221123
0.000106649
0.000101485
0.000219377
4.04346e-05
0.000155465
0.000160063
0.00015547
0.000219373
0.000101485
0.000268514
0.000106645
-0.000221121
0.000224764
-6.26784e-05
0.000208769
8.87557e-05
0.00010311
7.23024e-05
-4.17496e-06
-7.29552e-06
0.000258368
-0.000263089
0.000271369
5.67948e-06
2.23092e-06
-7.74004e-05
-0.000104929
-8.90039e-05
-0.000208001
4.96151e-05
-0.00023252
-1.98906e-05
0.000124907
-6.1694e-05
0.000430398
-2.3615e-05
0.000124782
-1.99883e-05
-0.000232423
4.95834e-05
-0.000125795
0.000450041
-0.000156362
-6.39029e-05
0.000331101
0.000330768
6.13756e-05
-0.000474578
-8.88049e-05
0.000890574
8.71988e-05
0.000925555
-0.00121763
4.92225e-05
0.00162928
-0.00187802
0.0013493
-1.71121e-05
-0.000943694
0.000817728
2.33566e-05
3.93274e-05
5.38559e-05
5.25774e-05
-6.73633e-06
-0.0001997
-0.000362656
0.00407854
-0.00336554
0.0136827
-0.0101441
0.00167093
0.0126183
-0.000309733
-0.0131456
0.00959426
-0.00719892
-0.0156593
-0.0131057
-0.0129994
-0.0135114
0.0223817
0.00433746
0.00302567
-2.84167e-05
-0.00767642
-0.015086
-0.00704997
-0.012847
-0.00704956
-0.0150868
-0.00767625
-0.013512
0.0223815
-0.0131056
-0.0129998
-0.0156598
-0.00719897
0.00959419
-0.0131457
0.0200396
-0.0205999
0.0136824
0.0016713
0.0126187
-0.0101442
0.00630442
0.0146325
0.010312
0.00762686
0.0179413
0.00633545
0.00400713
0.0109653
-0.0114036
-0.0114034
0.00400715
0.00633496
0.0179411
0.0076268
0.0103116
0.0129858
0.0146338
0.00630542
0.00807629
0.00688858
-0.00389936
0.0186314
0.020809
0.0213419
0.0171752
0.0173201
0.0191377
0.0173205
-0.0314471
0.000545884
0.000546345
-0.00900424
0.0171749
0.021342
0.0208092
0.0186322
0.00688822
0.00807624
0.00613934
-0.000467148
-0.000273133
-0.000156402
-0.00672968
-0.00878249
-0.00846112
-0.019646
-0.0232877
0.00432803
-0.00878495
0.0198208
-0.0155812
0.0132614
-0.0105153
0.00860803
-0.00666041
0.00528735
-0.00395597
0.00305484
-0.00220608
0.0016576
-0.00116441
0.000851974
-0.000614732
0.000630132
-0.000684108
0.000684393
-0.000624768
0.000503846
5.11186e-05
0.000419728
-0.000156543
0.000450165
-0.000125732
0.000154324
-2.85246e-05
2.33632e-05
3.93817e-05
5.38158e-05
5.23836e-05
-6.96415e-06
-0.000199992
-0.000362945
0.00407833
-0.00336547
-0.00128036
0.00213293
0.000597252
-0.0079386
-0.00793866
0.00213294
-0.00128024
0.00059737
-0.00354157
-0.0206001
0.0200396
-0.00145549
-0.0160276
0.00157331
-0.00088973
0.00203258
-0.000302734
-0.000344641
-0.0024074
-0.00117279
-0.00240735
0.00157301
0.00433735
0.0098252
0.00302579
-0.00243975
-0.00243961
0.00982533
0.000537093
-0.00616
0.00676982
0.00676974
-0.000168671
-0.00615997
0.000217979
0.00160536
0.00199183
0.000941373
-0.00908804
0.000940285
0.000312487
0.0135199
-0.00347323
0.00418614
-0.00722053
-0.0092939
-0.0199861
-0.0146298
0.0303489
-0.0160545
0.019535
0.0195358
0.000464154
0.0148907
-0.000287164
-0.0116478
0.00967739
-0.000138783
-0.0077484
0.00609983
-4.23686e-05
-0.00479393
0.00362763
6.09622e-07
-0.00277265
0.00202254
1.67276e-05
-0.00151116
0.00105833
1.90234e-05
-0.000803566
0.000525901
2.19986e-05
-0.000498964
-6.56439e-05
-0.000452212
-0.000452215
4.04278e-05
-8.01422e-05
2.69102e-05
-0.000123308
-4.3734e-06
7.78966e-05
7.78811e-05
-9.38697e-05
-1.24416e-06
9.37835e-05
9.37784e-05
-6.97329e-05
1.2985e-05
0.000156279
0.000156206
-3.38014e-05
3.61392e-05
-7.29223e-05
-7.31089e-05
-0.000122069
-6.72664e-05
-0.000100935
-0.000111241
-0.000168296
-6.836e-05
0.000122554
-0.000190374
2.48783e-05
8.68535e-05
0.000264947
-0.000165497
-8.51501e-05
-1.4449e-05
-0.000151655
5.70504e-07
0.000151731
-0.000252555
-3.84737e-07
2.74195e-05
0.00025141
-2.55133e-05
1.74651e-06
2.52294e-05
2.24907e-06
7.59794e-06
1.70603e-05
3.18463e-05
6.03723e-05
0.00012654
0.000158969
6.41628e-05
-0.0197713
0.021004
-0.0217154
0.0190564
-0.0156479
0.0132709
-0.0107751
0.00866355
-0.00686686
0.00529558
-0.0041025
0.00303572
-0.00230198
0.00162943
-0.0012177
0.000817897
2.41392e-05
-0.000675887
-0.000676766
-0.000474348
0.000646415
0.000106653
0.000646641
-0.000946247
-0.00131112
-0.00131279
0.00176933
0.0017383
0.00015054
-0.00241551
7.14487e-05
-0.00230207
-3.26908e-05
0.00256581
-0.00255944
-6.94596e-06
0.00340883
-0.00319685
0.00237398
8.23749e-06
0.00183441
-4.08138e-06
-0.00134744
0.000922866
-2.37845e-06
0.000684382
-3.68599e-06
-0.000263095
5.71899e-06
-2.54977e-05
0.000122558
-6.83773e-05
-0.000168291
-0.000111227
-0.000100888
-6.7275e-05
-0.000121892
6.54334e-05
-3.38092e-05
6.10409e-06
-0.000212767
8.67935e-05
3.40606e-06
2.48787e-05
0.000264958
-0.00019034
0.000251405
2.74258e-05
-8.22594e-06
-6.97289e-05
1.51066e-05
3.15001e-05
6.09526e-05
9.86253e-05
0.000133078
0.000127761
1.39445e-05
-0.000154257
0.00239024
-0.00259904
-0.00600447
-0.00448253
-0.00190944
0.000991588
-0.000168856
-0.000309268
-0.00145772
-0.0160275
-0.000889637
0.00203243
-0.000168437
9.39276e-05
0.000271348
-0.0109591
0.0102306
-0.0133286
0.00393588
-0.033377
0.00386518
-0.0134598
-0.000177373
0.013345
0.0131984
-0.0159493
-0.000205513
0.00141099
0.00459591
-0.00022932
-0.00518929
-0.00950492
-0.0114447
-0.00138664
-0.00236643
-0.00321724
-0.00126781
-0.000478485
-0.00102822
-0.000744871
-0.000480874
-0.000567547
-7.12615e-05
-0.000391824
7.50611e-05
0.0158667
-0.0173257
0.0147977
-0.0152836
-0.000350513
0.0171997
-9.82295e-05
-0.000178384
-0.000344758
-0.000302964
-0.00354161
-4.48102e-05
-0.000547201
0.000218329
-0.00414091
-2.83518e-05
0.0069705
-0.0027837
-0.0111237
-0.00144245
0.0010648
-0.000146388
-0.000889258
-0.000902243
-0.000671504
-0.000444407
-0.000283265
-0.000176414
-9.21024e-05
6.45477e-06
0.000123858
0.000123865
0.000127735
-3.46391e-05
-9.02992e-05
-0.000169504
-0.000295292
-0.000314546
2.39753e-05
-0.000287322
-0.000178301
-0.000105571
-0.000162755
4.83316e-05
5.76525e-05
0.00423363
-0.00457268
0.00340876
-0.0034932
-5.73723e-05
0.00458528
-0.00608633
-9.95664e-05
0.00767592
-0.00995937
-0.000180336
0.0119931
-5.32273e-05
-0.0120112
0.009679
-1.2544e-05
0.0110519
-0.0138896
-2.9422e-05
1.35337e-05
-0.000104837
-5.10634e-05
-2.66407e-05
-0.00766296
0.0059302
2.86704e-06
0.00707481
-0.00909704
-7.35035e-05
8.51383e-05
-1.50417e-06
-5.32491e-05
-5.45804e-05
0.0127686
0.000609659
-0.00145557
0.00814946
-0.000351971
-0.000532035
0.00274954
0.00846592
0.0124347
0.00403211
0.00299111
0.000650134
-0.000303497
0.000628093
0.000367706
8.08057e-06
6.38964e-06
3.46608e-06
1.10672e-06
-5.62509e-05
-7.10535e-05
4.72404e-05
3.86069e-05
0.002374
-0.00255951
0.00183447
-0.00187811
-3.27892e-05
0.00256589
-7.05843e-06
-1.04439e-05
-2.32158e-05
-1.33859e-05
3.88515e-06
7.94555e-06
-0.00319712
-5.2489e-05
-0.000101713
0.00362753
-5.13274e-05
-0.00479447
-4.26369e-05
0.00609987
-0.000134626
-0.00774874
-0.000139117
0.00967692
-0.000312895
-0.0116475
-0.000288187
0.0148905
-0.000638952
-0.0159133
-0.000893917
0.025407
0.017296
-0.00330046
0.000709337
0.000709258
0.0254075
-0.000893811
-0.0159133
-0.00330033
-0.0160538
0.00418646
0.0303486
-0.00217055
-0.0146295
-0.0199849
-0.00929348
-0.0232888
-0.00722043
-0.0027835
0.00697053
-0.00414107
0.000940638
0.00199239
-0.00908793
0.000941586
-0.00145784
-0.000547607
-0.000874059
-0.000321918
-0.000106348
-0.000207889
0.000185592
-0.000606881
0.000464145
-0.0144766
0.013015
-0.0104646
0.00844499
0.00844469
-5.55857e-07
-0.00681812
1.18203e-05
0.00517999
-5.89081e-06
-0.00410449
4.87149e-05
0.00297658
-4.96747e-06
-0.00231345
6.38116e-05
0.00159343
-6.9782e-06
-0.00124226
8.00408e-05
0.000791818
-1.50945e-05
-0.000676457
0.000113962
0.00035068
4.52695e-05
0.000350656
-6.5653e-05
-0.000498998
2.19897e-05
0.000525902
2.6521e-05
-0.000803571
1.90375e-05
0.00105831
1.44971e-05
-0.00151121
1.66808e-05
0.00202245
-8.68647e-06
-0.00277268
4.63932e-07
4.8634e-05
0.00297654
-4.25518e-05
-0.00231329
0.00159337
-0.00124222
0.00079182
4.0373e-05
-0.000676452
0.000113918
-3.10483e-05
-3.96291e-05
8.00411e-05
-8.04046e-05
-0.000116663
-0.000179474
-0.000267536
-0.00031442
-0.000129013
0.000227141
0.000227488
-0.0111234
-0.0114445
-0.00138652
-0.000129913
-0.0144759
-0.000742915
0.0130149
6.54381e-05
-0.0104645
-0.00013763
-0.000162792
-0.000554033
6.51453e-05
-0.000582866
-0.000434564
-7.084e-07
-0.006818
0.00518019
-0.00410465
-6.02606e-06
-0.000307037
-0.00011116
-0.000195153
-5.03161e-06
-0.000109762
-6.99866e-06
7.96156e-06
-5.2483e-05
-1.50909e-05
6.54855e-06
-0.000141
2.69225e-05
-8.01292e-05
0.000149737
5.78042e-05
5.77937e-05
0.00014974
6.98883e-05
-1.6861e-05
0.000123053
-0.00026396
-1.63038e-05
2.5168e-06
0.000193781
1.81609e-05
-0.000125088
6.63899e-05
0.000171201
0.000117765
0.000161529
8.57852e-05
-1.90762e-05
-2.02568e-05
-1.92949e-05
-5.18926e-06
0.000117675
-1.92997e-05
6.98948e-05
0.000123079
-1.68606e-05
-4.65454e-05
-1.62738e-05
0.000193794
2.51204e-06
-2.7243e-05
-4.02265e-07
-0.000252565
0.000151739
5.48214e-07
-0.000151656
-1.44445e-05
2.45705e-07
-2.02364e-05
-1.52806e-05
4.71547e-05
-4.65554e-05
-3.31542e-05
-1.45397e-06
1.30118e-05
2.52697e-07
-1.27026e-07
3.16216e-07
-1.4587e-06
4.7163e-05
-0.000123317
-3.31151e-05
-3.10566e-05
3.17685e-06
7.18164e-06
1.20283e-05
1.8283e-05
3.13986e-05
7.35078e-05
-6.39594e-05
-0.000741987
-6.39571e-05
0.000158798
-0.000638605
0.0198212
6.39232e-05
0.0158672
-2.91663e-05
0.0147982
-5.35474e-05
0.0119942
-0.000180527
-0.00995912
0.00866418
7.8191e-05
0.00547713
0.00547183
0.000339747
-0.00676682
0.00878032
0.00884701
0.000334393
-0.0104002
-4.20957e-05
-0.0107764
0.013271
-0.0152837
0.0171994
-0.000349998
-0.0156489
-0.000205037
0.0131975
0.0133455
-0.000177866
-0.0159487
0.0190572
-0.0217154
-9.79876e-05
-0.0173258
0.0210041
-0.0197712
0.012769
0.000271428
-0.010959
-0.000423785
0.0102308
-0.00075826
-0.0133289
-0.0099723
0.00393582
0.00386596
-0.0333779
0.0124353
0.0119618
0.00155384
-0.000513384
-0.0101009
-0.000284725
0.0095692
0.00957054
-0.000807724
-0.00984837
0.000334518
0.008846
0.00878145
-0.0104002
-4.28278e-05
-0.00676686
0.000340046
0.00547153
0.00547758
7.79736e-05
-0.00417172
0.000242099
0.00318294
0.00321028
8.99495e-05
0.00021937
0.000125624
6.33429e-05
1.25859e-05
-3.75134e-07
-1.26869e-05
-6.86801e-06
4.09817e-05
2.33112e-05
0.00124963
-0.00134747
0.00092296
-0.000943776
-1.70674e-05
0.00134938
-4.1355e-06
-4.85873e-06
-2.21137e-06
-2.40758e-06
-6.19923e-08
-2.60407e-06
-0.000284582
-0.000128173
4.36695e-05
9.27626e-05
6.88585e-05
1.29118e-05
4.8141e-07
-3.41485e-07
2.84436e-06
-1.86128e-05
-3.27645e-05
-5.53553e-05
-8.75681e-05
-0.00013314
-0.000196643
0.000158475
0.0012287
0.00211066
0.00120811
0.000566904
-6.98656e-06
-0.000121772
-0.000102499
-0.0065608
-0.00476694
0.000384479
0.00395039
0.00395124
-0.000373779
-0.00297928
0.000284787
0.00229361
0.00229409
-0.000243562
-0.0023917
0.000150728
0.00173834
0.00176951
-0.00241561
7.14519e-05
-4.92696e-05
0.000279201
0.000699064
0.000393081
0.000129912
-5.42568e-05
-7.23528e-05
-0.00131117
8.71806e-05
0.000890746
0.000925612
-0.0013127
4.91651e-05
-5.01596e-05
4.2569e-05
0.000203497
8.32766e-05
-1.56155e-05
-6.79877e-05
-3.92569e-05
-7.38282e-05
-3.15941e-05
-0.000133591
-0.000165776
-0.000148766
-0.000128461
-0.000154749
-0.000164887
-0.000133716
0.000170955
-0.000159954
9.60556e-05
9.15967e-05
-4.71273e-05
-8.8814e-05
-2.66561e-05
2.31226e-06
6.6796e-06
-0.000858837
-1.94874e-05
3.80167e-06
8.24085e-06
-0.00171604
-3.70256e-05
-6.47671e-05
6.38472e-05
-6.47385e-05
-0.000101723
-0.000143676
6.03094e-05
0.000126489
-0.000313361
0.0132617
-9.3495e-06
0.0110524
-1.23188e-05
0.00967895
-2.68157e-05
0.0076764
-9.98107e-05
-0.00608639
0.00529596
9.01084e-05
0.00321001
0.00318324
0.000241921
-0.00417132
-0.00409512
-0.000373929
-0.00297853
-0.000121956
0.00124919
0.00218738
0.00417813
-1.17972e-05
-1.17351e-05
0.00155362
-0.000513263
-0.0134614
-0.0100992
-0.000317522
9.39545e-05
1.34152e-05
-0.000178431
-0.000104983
-0.000112324
-2.16078e-06
-0.000162692
-0.000137743
-0.000143681
1.19178e-05
1.30179e-06
-5.52158e-05
-2.57887e-05
-1.19016e-05
-5.85448e-06
-2.74793e-06
1.17921e-07
1.9974e-05
2.52393e-05
2.24756e-06
7.63077e-06
1.70541e-05
3.17834e-05
-5.09893e-05
0.00528705
-6.96625e-05
0.00423387
8.00711e-06
-0.00457269
-1.33998e-05
0.00458522
-5.73911e-05
-0.00349319
0.00303577
-0.00410274
-8.7745e-05
5.74352e-05
4.85157e-05
-0.000295331
-0.000480863
-0.000743785
-0.00031259
-0.000266498
-0.000178796
-0.000116202
-0.000169665
-9.03708e-05
-8.01031e-05
-5.02683e-05
-3.45757e-05
0.000127755
9.28805e-05
6.89425e-05
-0.000614693
-1.94694e-05
0.000630124
-2.58616e-06
0.000258363
2.83717e-06
1.74835e-06
-2.2159e-06
-4.8569e-06
-1.04477e-05
-2.32936e-05
-5.09855e-05
-2.07224e-06
1.25643e-06
2.71274e-06
-0.00557081
0.00593018
-0.00766319
0.0070754
-0.00666052
-7.36621e-05
0.00860789
-0.000134762
-0.0105154
-7.04603e-05
-0.000391091
-0.0155815
-0.00321622
-0.00878532
0.00815013
-0.00846295
-0.0196444
0.00432828
-0.00950283
-0.00518863
-0.00878198
-0.0067292
0.000609809
-0.00015734
-0.000265427
-0.00046902
-0.000532466
0.00613908
0.00459534
-0.0002287
-5.41814e-05
-0.00126889
-0.00236507
-0.000477913