/*--------------------------------*- C++ -*----------------------------------*\
| =========                 |                                                 |
| \\      /  F ield         | OpenFOAM: The Open Source CFD Toolbox           |
|  \\    /   O peration     | Version:  2306                                  |
|   \\  /    A nd           | Website:  www.openfoam.com                      |
|    \\/     M anipulation  |                                                 |
\*---------------------------------------------------------------------------*/
FoamFile
{
    version     2.0;
    format      ascii;
    arch        "LSB;label=32;scalar=64";
    class       volScalarField;
    location    "1.3";
    object      gradTy;
}
// * * * * * * * * * * * * * * * * * * * * * * * * * * * * * * * * * * * * * //

dimensions      [0 -1 0 1 0 0 0];

internalField   nonuniform List<scalar> 
2658
(
0.00828876
0.00483128
0.00149399
-0.00012188
-0.015687
0.0191919
-0.0155769
0.0131352
-0.00011569
-0.0136316
0.00413111
-0.0333156
0.0206926
0.0210265
0.0171085
0.0175301
0.0191436
0.0172658
0.0175084
0.0207645
0.0200465
0.0175714
0.00585696
-0.00378848
0.00631218
0.0191207
-0.00411116
0.00117745
0.0155956
-7.93054e-07
-0.0155958
0.00411124
-0.0191218
-0.00585685
-0.00631197
0.00378895
-0.000869931
0.00165388
-0.0175767
-0.0200477
-0.020766
-0.0175091
-0.0172645
0.00851152
-0.00101515
-0.000370988
-0.00413137
0.00886405
-0.0175332
-0.0171087
-0.021025
-0.0206927
-0.0184593
0.00377484
-0.00689541
-0.00633752
0.000459553
-0.0103829
-1.28962e-07
-9.73127e-05
-0.000459333
0.0063372
0.00689586
-0.00377533
0.00398833
-0.00967568
-0.0132318
-0.000641998
-0.0212638
0.0212639
1.90093e-07
0.0171471
-0.000224184
0.0134023
5.89221e-06
-0.010187
-0.0100723
0.000402244
0.00918525
0.00600789
-0.00675931
-0.000683344
0.00913211
0.0137737
-0.000254044
-0.000127148
3.66898e-05
7.89965e-05
7.1869e-05
5.36771e-05
3.43832e-05
-5.19281e-05
2.60568e-05
0.000142046
-5.69883e-05
-0.000167065
-2.10657e-05
-0.000151632
-2.34706e-05
-5.36882e-05
-0.000165148
-4.1245e-05
-0.000162201
-7.60232e-05
-6.54238e-05
0.000152775
-5.38551e-05
-6.3874e-06
2.25703e-05
-0.00015581
5.18159e-05
-6.92575e-05
-1.62017e-09
6.92599e-05
-5.18279e-05
0.000155808
6.54253e-05
-0.000152788
0.00016219
7.60149e-05
4.12125e-05
0.000165145
5.36844e-05
2.34639e-05
-0.000121162
-0.000116925
-0.000142059
0.000167086
2.10817e-05
5.7001e-05
0.000162615
3.83577e-05
7.68418e-05
7.32421e-05
0.00014633
-6.88346e-05
8.03766e-06
1.12453e-05
-0.000165457
0.000165502
-8.04711e-06
6.88461e-05
-3.90301e-05
-4.03458e-05
-3.72093e-07
4.022e-05
7.69697e-08
9.47748e-08
-8.16238e-05
8.04373e-05
2.00856e-07
6.63657e-06
4.47709e-05
-5.10912e-05
0.00019895
4.48222e-05
0.000187497
0.000223315
0.000238212
0.000185402
0.000186771
0.000218644
0.000187061
0.000187757
0.000242851
0.00022518
0.000195126
6.16408e-05
-5.03507e-06
6.35373e-05
-0.000399395
0.000619153
-0.000813129
0.00117726
-0.0015943
0.00214252
-0.00291536
0.00366811
-0.00497747
0.00587962
-0.00797829
0.00882741
-0.0121242
0.0124265
0.0122106
0.0102485
0.00974192
0.0136322
0.0156865
0.000121699
-0.0191923
0.0132319
0.00967486
-0.00398848
0.0333152
-0.00416412
0.000253785
0.00012698
-3.67437e-05
-7.91063e-05
-7.19605e-05
-5.36658e-05
-3.43811e-05
5.19317e-05
-2.60449e-05
-6.37146e-07
-6.72317e-05
2.99887e-05
-8.56535e-05
8.56486e-05
6.72413e-05
6.28761e-07
-3.0003e-05
-2.39747e-05
0.000116934
0.000121156
-0.000168931
0.000137803
3.17102e-05
-1.37043e-06
-2.22008e-05
2.01954e-05
-1.17692e-05
-8.88128e-06
-4.4042e-10
8.873e-06
-3.17487e-05
5.38485e-05
-0.000109015
6.40349e-06
-0.00011876
0.000118785
0.000109027
4.59786e-09
-7.57933e-05
-8.38681e-05
8.38856e-05
-2.88933e-05
7.58115e-05
-1.16293e-05
2.5299e-09
-5.54856e-05
-2.52903e-05
7.44683e-05
-1.89701e-05
8.51495e-09
6.307e-09
-2.34214e-09
-0.000127942
8.56628e-05
0.000225226
-5.6984e-05
0.000178009
-0.00025699
0.000369293
-0.00046176
0.000461734
6.63662e-05
0.000638015
4.25928e-05
-0.000934161
0.00126077
2.67071e-05
-0.00175418
0.00235537
-5.19318e-06
-0.00311557
0.00411572
-8.25684e-05
-0.00519227
0.00673185
-0.00029489
-0.00809976
0.0103475
-0.000891714
-0.011823
0.0149611
-0.00267042
-0.017239
-0.0081654
-0.0184118
0.0184121
-0.00117686
-0.00523821
0.00965855
0.00861011
-1.09182e-07
-0.00606305
0.00606306
0.00636023
-7.28658e-08
-0.00764923
0.00764919
0.00311989
-6.2095e-08
-0.0201215
0.0201212
-0.0127958
1.1855e-07
0.0127954
-0.00999748
0.00634405
0.0146198
0.0102727
0.0129477
-0.0196035
0.0137365
0.00177963
0.00116095
0.00014305
-0.00312002
-0.00113987
-0.00330213
-0.0112234
0.00629953
0.0176974
0.00759566
0.0083743
-0.00438439
8.13013e-08
0.00438461
0.00330212
-0.0137367
0.0196031
-0.0146212
-0.00634497
0.00999714
-0.00178007
-0.00116107
-0.00837351
-0.00759622
-0.0176971
-0.00629987
0.0112233
-0.0110342
-0.00436761
-0.0163658
-0.0038772
0.0105618
0.00254476
-0.00238525
0.0114705
-0.00236796
-0.00290883
-0.000115136
-0.000224043
-0.000276505
-0.000232483
-0.000165683
-0.000107784
-6.50582e-05
-6.43669e-05
-0.000371822
-0.000315657
-0.000282857
-0.000439314
0.000704899
-0.000917374
0.0013522
-0.00180319
0.0024628
-0.00331112
0.00421197
-0.00569275
0.00673817
-0.0091853
0.0100729
-0.013774
0.000115149
-0.0131347
0.015578
-0.0171475
0.0149868
-6.51258e-08
-0.0149866
0.0119087
-0.010729
0.0087109
-0.00662221
0.00875364
0.000101962
0.00542154
0.000389044
-0.00673755
-0.000479018
-0.00447162
-0.00510921
0.000400582
0.00425999
0.00465428
-0.00571307
-0.000521093
0.00685414
0.00037007
-0.00757692
0.010155
-0.000263922
-0.0097418
-0.000349291
0.000371027
-0.00886424
0.0110339
-0.0114709
0.002385
0.000768155
-0.000169117
-9.61747e-08
4.37948e-05
-9.99454e-05
-0.000184603
-0.000171226
-0.000127182
-8.44489e-05
-5.03926e-05
1.17671e-05
-2.01964e-05
2.21896e-05
2.88782e-05
1.37351e-06
-0.000137819
0.000168931
-9.71234e-05
0.000111131
7.0375e-05
6.14019e-05
0.000131269
9.65973e-05
-2.82618e-05
-0.000309811
0.000612537
-7.7213e-06
-0.000836503
0.000667199
-0.000462176
-6.41262e-05
-5.12009e-05
0.000107197
0.000107806
0.000107242
6.92473e-05
8.42372e-05
-1.74547e-05
1.99484e-05
5.63083e-05
-5.07141e-05
-0.000182912
-5.18398e-05
-6.39671e-05
-0.000130903
-0.000150146
4.73359e-05
4.42001e-05
6.32962e-05
0.000612451
0.000538835
-0.000670347
-0.000583123
7.76908e-05
0.000487967
-7.15785e-05
-3.98727e-05
-0.00017541
-0.000376442
-0.000378895
-0.000686438
-0.000308368
-0.000235608
-0.000390036
-0.000587254
1.53983e-05
4.32525e-05
0.00010924
0.00207355
0.00188408
-0.00247277
-0.00213584
0.000219976
0.00164627
-0.00115485
0.00013611
0.000916013
-0.000122692
0.00103766
-0.00133757
0.000143924
0.00114765
-0.000764397
8.26637e-05
1.48752e-05
-4.15713e-05
-0.000637916
7.75599e-06
0.000482241
-5.67494e-05
-0.000332131
-6.96647e-05
-3.38069e-05
-1.4383e-05
1.65868e-05
5.64977e-05
7.20455e-05
6.91119e-05
-0.000100157
5.69902e-05
6.95967e-05
4.08311e-05
-1.20277e-05
6.64866e-06
4.67893e-05
5.88807e-05
-0.000183847
-0.000383532
-0.000701126
-0.000696462
-0.00122287
-0.00117765
-0.00202805
-0.00116613
-0.000618868
-0.00123595
-0.00276941
-0.000324689
-7.64516e-05
0.000109056
0.00571309
0.00510978
-0.00685383
-0.00600692
0.000479052
0.00447179
-0.00369488
0.000332326
0.00279636
-0.00029913
0.00320886
-0.0042597
0.000357324
0.00354592
-0.00271481
0.000233961
4.11009e-05
2.55747e-05
-7.33329e-05
-0.0012606
6.89173e-06
0.00093415
-4.26002e-05
-2.13614e-05
-0.000930438
0.00137256
-0.00178161
0.00178167
4.58613e-05
-0.00250772
4.49899e-05
0.00320447
2.87649e-05
-0.00430845
6.65955e-05
0.00539162
-4.49865e-05
-0.00692329
7.42611e-05
0.0084879
-0.000328462
-0.0103573
-1.35838e-05
0.0125142
-0.00145487
-0.0140372
-0.00117877
0.0164888
-3.18684e-07
-0.0164888
0.00816404
0.0172399
0.00266928
-0.0149604
-0.00016318
0.0118226
0.000891061
-0.0103469
-4.03867e-05
0.00810073
0.000294293
-0.0067311
-1.62935e-05
0.00519289
8.19449e-05
-0.00411554
-3.41931e-06
0.00311575
4.95997e-06
-0.0023552
3.66171e-06
0.00175427
-2.66699e-05
-2.9005e-05
-0.000118359
-6.51323e-05
-2.31313e-05
6.04427e-05
-3.71337e-08
-3.82048e-09
-1.16854e-07
1.16279e-08
1.2392e-07
2.8012e-07
6.36574e-07
2.50713e-06
7.62042e-07
-2.86014e-07
-9.77054e-07
0.00524117
-0.00524193
-0.00728472
-0.00712683
-0.00189548
-0.00388447
-0.0120104
0.0341573
-0.0027238
0.000464631
-7.04597e-05
-0.000290364
0.00117879
0.014038
0.00145398
-0.0125137
-1.21572e-07
-1.19524e-07
-1.32585e-07
0.000328271
-0.00848782
0.0103574
1.35156e-05
-0.000231188
-0.00021561
-7.44715e-05
0.00692341
4.47852e-05
-0.00539172
8.18856e-08
-9.64701e-09
-3.77297e-08
-4.7518e-08
-4.60684e-05
0.00250776
-0.00320443
0.00430871
-6.64831e-05
-0.000169656
-0.000117395
-4.28908e-08
-2.2196e-08
2.20001e-09
-4.60954e-09
-6.63947e-05
0.000718068
-8.9296e-09
-0.000718092
2.13783e-05
0.000930478
5.20268e-05
-0.00137261
2.89772e-05
7.32892e-05
9.79474e-09
-5.21419e-05
2.15309e-08
4.15575e-05
1.43805e-05
0.000332148
5.67075e-05
-0.000482239
3.38105e-05
-0.000369289
0.000127959
0.00025699
1.18302e-08
-0.000178
5.70093e-05
-0.000225231
-6.16481e-05
-8.56585e-05
-7.59087e-06
-4.7945e-05
-2.66781e-05
1.89663e-05
5.54784e-05
-7.44858e-05
2.5296e-05
-7.71446e-05
5.5555e-05
7.85365e-10
-5.55589e-05
-2.8084e-05
0.000151625
7.71428e-05
1.16394e-05
2.66887e-05
-2.25725e-05
4.79583e-05
7.5873e-06
1.19263e-05
-5.31104e-05
-2.34467e-05
7.70952e-05
7.23563e-05
-1.56456e-05
1.96641e-05
0.000112204
-0.000150276
0.000156985
-1.23937e-05
2.05586e-09
1.30284e-08
6.81335e-09
-2.1818e-09
5.01454e-09
-8.58588e-09
-4.0437e-09
9.057e-09
-2.96624e-08
-2.0891e-08
8.28801e-08
7.65852e-08
-7.71002e-08
-1.2317e-07
5.02777e-09
-4.49117e-07
-0.00965905
0.00523846
-0.00450753
0.00747974
-0.00747997
0.00450727
-0.0148642
0.00154391
-0.00595817
0.0135534
0.00343758
-0.00029996
0.012656
-0.0110014
-0.00678266
-0.017526
-0.00575989
-0.00858876
-0.0121698
-0.00707748
0.000740258
0.00622503
0.00192374
-1.66861e-06
2.61583e-07
-0.00192293
0.0148639
0.00595799
-0.0015443
0.00454704
-0.00343781
-0.0126565
0.000299615
0.00144742
-0.00254495
-0.0105619
0.00387634
0.0163648
0.00436748
0.00741009
-0.00608513
-0.00622651
8.89653e-07
-0.00220669
-0.00454719
0.000399458
-0.000408254
-0.00719515
0.00608501
0.00126883
-0.00741015
-0.000122162
-0.000143255
0.00113961
-0.000768184
0.000168961
0.000349208
-0.00167493
-0.00418362
-0.00215488
2.46984e-05
0.00869706
0.00757821
-0.0101551
-0.0091312
0.0006835
0.00675932
-0.000370169
-4.9232e-05
-0.00214984
-0.00122413
6.87755e-05
0.000103829
9.47296e-05
7.63834e-05
8.49421e-05
-0.00148643
-0.000172595
4.55294e-05
0.00129162
-4.04715e-05
-0.00165179
0.00228422
-6.99561e-05
-0.00306868
0.00236846
-0.0017386
-0.000178532
-0.00316987
-9.86422e-05
-0.00535043
0.00408402
-0.000276902
-0.0054212
-0.000102105
-0.00875351
0.00662176
-0.000389229
-0.00871067
-5.36207e-06
-0.0134029
0.0101862
-0.000403012
-0.000719587
-0.00409708
-0.0123111
-0.0122985
-0.019149
-0.00163237
0.031228
-0.00279123
-0.00298995
-0.00149391
-0.000672822
-0.000389336
-0.000228857
-0.00012843
-6.20294e-05
-5.66572e-05
4.42804e-05
1.82149e-05
0.00184266
6.76303e-08
-0.0018428
0.00253424
3.10993e-08
-0.00342518
0.00342512
-0.00253423
-2.36803e-08
-1.81957e-08
3.15185e-09
1.7953e-05
5.32422e-05
-3.31484e-06
0.000280934
9.32056e-08
-0.000280988
0.000654235
5.1685e-08
-0.000928033
0.00092794
-0.000654163
1.53091e-05
7.15057e-05
-7.84648e-05
7.84799e-05
-4.0457e-05
-1.89944e-05
-7.1535e-05
0.000309844
2.83153e-05
-9.66446e-05
0.000462323
7.75576e-06
-0.000667318
0.000836527
-0.000612484
3.27744e-06
-1.79501e-05
-1.65898e-05
6.50433e-05
-7.72001e-06
0.000399416
6.44112e-05
-0.000612426
-8.26397e-05
0.000670377
0.00012269
-0.000915951
-0.000136126
0.00115531
0.00180312
0.000178628
-0.00236859
0.0030684
7.00787e-05
0.00173895
-0.00129177
0.0016518
4.04756e-05
0.000897783
0.000110983
-0.00135204
0.000917385
0.000583317
-0.000488026
-7.76712e-05
-0.000704802
6.40895e-05
0.000439301
0.000282919
7.15528e-05
-0.000538805
0.000315675
0.00037187
-0.000111137
-5.64795e-05
-7.03416e-05
0.000454951
-6.1409e-05
-5.32425e-05
-0.000131234
0.000469194
-0.000185405
-0.000186799
0.00010018
-6.9104e-05
-7.20497e-05
-5.62869e-05
-8.42434e-05
-6.04416e-05
2.31136e-05
6.5204e-05
1.74785e-05
6.40947e-05
0.000118292
0.0001956
0.000131115
0.000235897
0.000294068
-0.000294461
-0.000195624
-4.49832e-05
-0.000377717
0.000377059
0.000390253
0.000619246
0.000369366
-0.000370314
-0.000422703
0.000423341
0.00123804
0.00728602
0.0071285
0.0018989
-0.0124262
-0.00030071
-0.0122103
-0.000464727
0.00101501
-0.0312282
0.00236778
0.00290853
0.000114718
0.000223746
0.000276145
0.000232322
0.000165577
0.000107753
-6.85364e-06
0.000813231
0.000110467
-0.00114761
-0.000143997
0.00133758
0.000197503
-0.00164617
-0.000219631
0.00213653
0.00331126
0.000276698
-0.00408441
0.00535028
9.87187e-05
0.00317023
-0.00408119
-3.42202e-05
0.00453506
-1.73269e-08
-0.00596915
0.00596903
-0.00453509
3.41579e-05
0.00408152
7.15601e-05
7.05543e-08
1.08623e-07
3.22145e-08
1.55348e-07
-1.53622e-05
-4.09687e-05
-0.000199192
5.15863e-05
2.92391e-05
-0.000146382
-7.32944e-05
-7.68659e-05
-0.00015702
-3.83456e-05
-0.000162602
-0.000238131
-0.000223281
1.23067e-05
-0.000187565
-4.48462e-05
-6.95729e-05
-0.000107147
-0.000107802
-0.000107233
-0.00024284
-0.000187763
9.71149e-05
-0.000187065
-0.000218746
0.000476357
-6.35473e-05
6.96702e-05
5.00375e-06
-0.000225191
-0.000195176
-6.91672e-05
5.07815e-05
-2.00608e-05
-4.40985e-05
-0.000619086
-6.32425e-05
0.000764571
0.000182939
5.29123e-05
-4.70509e-05
-0.00117716
0.00159456
0.000172722
-0.00207341
-0.000233901
0.00271525
0.00247279
0.00029908
-0.0027966
-0.000332369
0.00369574
0.00569249
-0.00421148
-0.000103684
-0.000127134
-0.00354544
-0.000356953
-0.00320843
0.000171132
0.000127083
8.43915e-05
5.03819e-05
-1.48813e-05
-2.55783e-05
-4.1098e-05
0.000117348
0.000169541
-6.3975e-05
6.38293e-05
9.74381e-05
0.000520857
-0.00752373
-0.000267959
0.000144165
0.000741079
-0.0115231
0.000300318
0.000210159
0.000131972
8.8477e-05
5.7712e-05
3.57888e-05
2.03169e-05
7.71539e-06
0.00120256
-0.00132853
0.00132862
-0.00120243
-7.77554e-06
-2.03026e-05
-3.58057e-05
-1.82822e-05
-0.00228408
-4.43343e-05
-2.50567e-05
1.21621e-05
6.21423e-05
0.000128527
-7.15386e-05
-3.21309e-05
-4.53781e-05
-7.63524e-05
-8.48438e-05
0.00148663
0.000379175
0.000152389
-4.2619e-05
-0.00214229
0.00291575
0.000253351
-0.00366787
0.00497808
0.000324699
-0.00587897
0.00797851
0.000267672
-0.00869757
-0.000741594
0.0115236
0.0121247
0.000163137
-0.00882673
4.06628e-05
0.000325247
7.80149e-05
-1.43775e-05
0.000311546
0.00068687
0.00117839
0.000593246
0.00202811
0.00117636
0.00388512
0.00276491
0.0120102
-0.0341569
0.000869476
-0.00165227
0.0121691
0.00575927
0.0175262
0.00678268
0.0110012
-0.00851137
0.00272427
0.00163198
-0.0102481
-4.4077e-05
9.97311e-05
0.000184434
-1.02486e-07
-1.20735e-07
-0.000144287
0.000231063
0.000215422
-9.7459e-05
-0.000132179
-3.0454e-08
-3.54062e-08
-8.85102e-05
-5.77925e-05
-5.89951e-05
-0.00683852
0.00760419
-2.03975e-08
-0.00976747
0.00976729
-0.00760433
5.90216e-05
0.00683904
0.000106226
-2.28761e-05
-0.000305731
3.23292e-05
-0.000149171
-0.000205993
-0.000602617
0.000146843
0.0107291
-0.0119085
0.000106358
-9.54574e-08
-5.45293e-08
-5.45795e-08
-9.99934e-08
-0.00636064
0.00112616
7.02754e-05
0.000290012
-0.000399317
-0.00861104
0.00220678
0.000407727
0.00719471
0.00707676
-0.0135528
0.00858809
-0.000740521
-0.00126962
-3.01216e-07
0.0041639
0.0103828
-0.000167071
7.70227e-07
0.000208427
0.000224182
0.000167274
-0.00483158
-0.00828946
-0.00817849
3.7973e-08
9.71722e-05
8.24324e-07
0.000641802
6.67088e-07
1.4622e-07
1.2706e-08
-0.000106268
0.000229179
0.000389473
-0.000146937
-0.000106684
0.000206126
2.30471e-05
0.000701534
0.00038367
0.000184027
5.12211e-05
3.99265e-05
0.000175488
0.00037657
-0.00010901
-0.00188389
0.000696612
0.00122315
-0.000108593
0.00752475
-2.36909e-05
4.95923e-05
-6.82039e-05
0.00122487
0.00215139
0.00215573
0.00418501
0.0122984
0.00167482
0.00409697
0.0123105
0.00279041
0.000719612
-0.00020893
0.000672365
0.00126737
0.0029904
0.000604378
-9.47053e-05
-0.00246229
-5.88614e-05
-4.67786e-05
-5.70341e-05
-6.57995e-06
5.6796e-05
0.000150038
0.000305902
-0.000210234
-0.00126551
1.6506e-05
3.48985e-06
-3.59066e-06
-0.00103756
2.50351e-05
-0.00089758
-0.000111001
2.34428e-05
5.31136e-05
-1.19263e-05
-1.96656e-05
-1.91098e-08
1.56508e-05
-7.23588e-05
-7.70953e-05
2.80921e-05
0.000150283
-0.000112213
-1.13068e-05
-4.4833e-05
4.0366e-05
1.90067e-05
3.91432e-05
-2.91278e-05
0.000127466
-0.004653
-0.00032488
0.000263948
-0.00144771
-0.00112643
0.00012228
2.39657e-05
-4.79201e-09
-2.91317e-05
9.87686e-09
5.05229e-08
1.047e-07
-0.000253431
-0.000400344
-0.000110441
-0.000197492
-0.000476338
-0.000454925
-0.000469156
-0.0129474
-0.0102728
0.00182863
-2.44524e-07
-0.00182883
0.0184598
0.00817755
-6.96586e-05
-4.08202e-05
1.20644e-05
7.69461e-06
0.000462128
-0.000612516
0.000836481
-0.000667249
6.41219e-05
0.000439238
-0.000131294
0.000469108
-0.000223326
-0.000238265
-0.000185444
-0.000186804
-0.000218679
-0.000187085
-0.000187785
-0.000242873
-0.000225213
-0.00019521
-6.16861e-05
6.96539e-05
-8.56826e-05
-0.000225241
5.69627e-05
-7.57732e-06
-0.000178008
5.77219e-09
0.000177998
-5.69864e-05
0.000225238
6.16789e-05
8.5678e-05
-6.966e-05
6.35586e-05
-4.97731e-06
0.000195293
0.000225231
0.000242867
0.00018779
0.000187101
-9.70817e-05
7.03833e-05
6.14204e-05
0.00013126
-0.000100134
0.000186845
0.00018544
0.000238222
0.000223331
0.000187637
-1.2261e-05
4.49076e-05
1.90167e-05
7.15658e-05
0.000281024
-8.37053e-08
7.84613e-05
-7.15193e-05
-1.90251e-05
-4.48577e-05
1.2335e-05
-9.6642e-05
2.82417e-05
0.000309775
3.30228e-06
0.000654152
-0.000654201
-7.2671e-08
-0.000927957
-7.7228e-06
-0.00120242
4.04534e-05
0.000897583
0.000917259
0.000111014
-0.00135212
-0.000916053
0.000583158
-7.77374e-05
-0.000488012
-0.000704898
3.43827e-05
5.36857e-05
7.19172e-05
7.89934e-05
3.69335e-05
-0.000126838
-0.000253622
0.00416426
-0.00330183
-0.0112232
0.00629995
0.0110343
0.00436776
0.016365
0.00387681
0.00678304
0.0175269
0.00575984
0.0121693
0.00858836
0.00595755
-0.0135536
0.00454692
-0.000399595
-0.00154413
0.0148641
-0.00450667
0.00747998
3.17812e-08
-0.0074805
0.00450693
-0.0148636
-0.00595748
0.0135536
-0.0121687
-0.0085881
-0.00575959
-0.0175264
-0.00678244
-0.00387656
0.0105623
0.0114705
0.0112233
-0.0110339
-0.00436742
-0.00630005
-0.0176977
-0.00759652
-0.0102728
-0.0146213
-0.0063445
0.00999726
-0.0127959
-0.00177992
0.0201215
-0.0201213
0.012796
-0.00999748
0.00634385
0.0146202
0.010273
0.0129481
0.00759629
0.0176969
0.021026
0.0206927
-0.00377529
0.0184597
0.00689588
0.00817746
0.00633722
-9.67637e-05
1.21397e-06
9.71895e-05
-1.48456e-07
0.0103831
-0.010383
0.000459314
-0.00633743
-0.00817764
-0.00689631
-0.0184599
-0.0206932
-0.0210252
-0.0171084
-0.0175298
-0.0191432
-0.0172655
-0.0175083
-0.0207655
-0.0200461
-0.0175732
-0.0058554
0.00165344
-0.000869627
0.0124265
-0.0121256
0.0088265
-0.00797841
0.00587964
-0.0049779
0.00366789
-0.00291572
0.00214255
-0.00159437
0.00117725
-0.000813211
0.000619094
-0.000399409
-0.000371821
-0.000315642
-0.000282871
-0.000439267
-0.000462239
-7.75496e-06
0.000612524
-0.000309806
-2.8275e-05
9.66726e-05
-0.000469117
5.19481e-05
-3.43721e-05
-5.36609e-05
-7.18573e-05
-7.89732e-05
-3.6665e-05
0.00012689
0.000253586
-0.00416422
0.00330175
0.00113973
0.00311987
-0.000768294
0.00764922
-0.00764912
-0.0031198
-0.00113967
0.000768375
0.00238522
-0.0114708
-0.0105618
0.0110013
-0.0126563
-0.0034377
0.000299855
0.00144755
-0.00254471
0.00236806
0.00290879
3.5014e-08
-0.00290861
0.00343765
-0.00454687
0.00861035
0.000399126
0.00965849
-0.00965887
-0.00861069
-1.14837e-07
0.00606318
0.00636026
-0.00636048
0.00112619
-0.00606309
0.000407782
3.3896e-07
0.00622504
0.000740304
-0.00707663
0.00192367
-3.68286e-07
-5.16003e-07
7.25305e-09
0.00816469
-0.00631226
-0.0191208
0.00411079
-0.0155965
0.0184114
-0.0164883
0.0140372
-0.0140376
-0.00145443
-0.0118223
-0.000891028
0.0103467
-0.00810057
-0.000293934
0.00673106
-0.00519292
-8.16537e-05
0.0041153
-0.00311583
-4.76711e-06
0.00235516
-0.00175429
2.67546e-05
0.00126062
-0.000934164
4.26255e-05
0.000637953
-0.000482287
5.67076e-05
0.000332103
0.000127918
0.000256935
-0.000256964
7.5683e-06
4.79459e-05
-0.000118752
-0.000108996
1.1037e-08
7.5799e-05
-7.5792e-05
-8.3861e-05
9.55063e-09
8.56471e-05
-8.56465e-05
-6.72309e-05
-2.34413e-09
0.000165441
-0.000165482
8.05715e-06
-6.32756e-08
-4.0223e-05
4.0356e-05
-2.92381e-05
0.000146398
7.33076e-05
7.69017e-05
3.84028e-05
0.000162658
5.70284e-05
-0.000142036
-2.60496e-05
0.000112226
-0.00015027
0.000157064
7.23626e-05
7.71183e-05
2.11245e-05
0.000151685
2.35099e-05
-0.000121137
-2.0194e-05
2.39786e-05
-0.000116922
0.000167101
1.17857e-05
8.89731e-06
-6.50417e-05
-0.000107773
-0.000165645
-0.000232375
-0.000276278
-0.000223867
-0.000114827
0.000300928
0.0122093
0.0102491
0.00974134
0.0136326
-0.0137741
0.0100732
-0.00918558
0.00673835
-0.00569281
0.00421191
-0.00331155
0.00246259
-0.00180324
0.00135212
-0.000917401
0.000704864
-6.40984e-05
0.000667292
-0.000836529
0.00092805
-0.00132856
-1.89008e-08
0.00132848
-0.0018428
0.00165175
-0.00129179
0.00173876
-0.0022841
6.99862e-05
-0.0023687
0.000178706
0.00180297
-0.0001361
0.00115503
0.00133732
0.000197569
-0.00188403
-0.00207356
0.00148635
-0.000144009
-0.00103764
0.000122708
0.000670238
-0.000538855
7.15834e-05
0.000282841
-5.32819e-05
-6.14255e-05
0.000100118
-0.000167117
-5.70167e-05
-0.000162653
-3.83835e-05
-7.68835e-05
-7.32774e-05
-0.000146361
2.91225e-05
-3.9156e-05
-8.03962e-06
6.88308e-05
-1.12745e-05
-0.000112222
6.00759e-07
2.60545e-05
0.000150267
0.000142041
0.000116913
-2.39952e-05
-3.00238e-05
6.72403e-05
-1.81515e-09
-5.38022e-09
-3.53756e-09
2.19882e-08
4.1165e-08
4.95011e-08
8.99345e-08
4.3006e-08
3.34921e-08
-2.85769e-09
2.46165e-07
0.00438425
-0.000122244
-0.00740984
0.00126948
-0.0163644
-0.00719456
0.0126559
-0.000299886
-0.00144748
-0.00112637
-7.0419e-05
0.000464707
-0.00101536
-0.000370703
-0.00413152
-0.00398852
0.00967491
0.013232
-0.0191922
0.000121675
0.0155776
-0.0131343
0.0156865
0.000115182
-0.00409638
-0.0123117
-0.0122976
-0.0120088
-0.00712956
-0.00728506
-0.00123805
-0.00276677
-0.00189853
-0.00388564
-0.0020272
-0.00117584
-0.000619257
-0.000390545
-0.000592342
-7.77697e-05
-0.000325399
2.42962e-05
-0.0115231
-0.0101553
0.00757769
0.00675866
0.000683632
-0.00913102
0.000262813
4.39128e-05
-0.00236793
0.00254492
-0.00238524
-0.000143211
0.00608518
-0.000408206
-0.00220699
0.00154426
-0.00523846
-0.00117731
-0.00524123
9.23275e-08
2.82909e-07
8.01745e-07
3.36375e-07
-1.72313e-07
-2.1624e-07
-1.6263e-07
-2.75107e-07
-1.22415e-07
-1.09933e-09
1.31678e-08
-6.04549e-05
6.04493e-05
8.42341e-05
-1.7537e-05
-6.40778e-05
-0.000131121
-0.000235966
-0.000311349
1.44583e-05
-0.00117758
-0.000686508
-0.000379013
-0.000151994
4.27154e-05
0.000109265
-0.00271519
-0.00247304
0.0018839
0.00164606
0.000219786
-0.00213617
0.00279608
0.000332316
-0.00369515
0.00447135
0.000479029
-0.00600682
-0.000370518
-0.00685443
0.00510975
0.000520994
-0.00752375
0.00869663
0.000741141
0.00014419
-9.97781e-05
-0.000184512
-0.000400718
-0.00426006
0.00320861
0.000357001
-0.00465348
0.00571322
-0.00032505
0.000109193
-0.00215462
-0.004184
-0.00163151
-0.00272364
0.00851181
-0.011001
0.0341566
-0.00167514
0.00886426
-0.00279056
-0.00828897
-0.00483166
-0.00149431
-0.00299023
-0.000718965
-4.8954e-05
-0.00214995
-0.00122387
-0.00122235
-0.000696005
-0.000376326
-0.000175368
-0.000182839
-5.27244e-05
4.7048e-05
8.49505e-05
-0.0014865
-0.00133758
0.00103766
0.000915925
0.000136075
-0.00115505
-0.000197582
-0.000127138
-0.000171105
-0.000299339
4.11253e-05
0.000233882
0.0020733
-0.000172753
-0.000117344
0.00311564
-3.73211e-06
-0.00411585
8.21465e-05
0.0051927
-1.63414e-05
-0.0067317
0.000294756
0.00810009
-4.05465e-05
-0.0103471
0.000891263
0.0118222
-0.000163504
-0.0149608
0.0026701
0.0172389
0.00378879
0.00117852
-0.000290253
0.000290255
-0.0172394
-0.00266945
0.0149605
-0.00117876
0.0164884
-0.0081645
-0.0184117
-9.80641e-08
0.0155956
-0.0041108
0.0191219
0.00585576
0.00631221
0.00117719
0.00523878
0.00220678
-0.0019239
-0.00622544
0.00707726
-0.000740434
0.00719474
-0.00608487
-3.52635e-07
7.16517e-08
-4.94064e-09
-2.82095e-08
2.84355e-08
5.84425e-08
0.00145503
-0.0125134
0.0103568
-0.00848792
0.00692357
-0.00692397
-4.49322e-05
0.00539183
6.671e-05
-0.00430839
2.89479e-05
0.00320439
4.5151e-05
-0.00250774
4.59996e-05
0.00178166
2.9008e-05
-0.00137255
5.21038e-05
0.000930454
2.13527e-05
-0.000718123
6.63789e-05
0.000461716
3.37744e-05
-0.000369334
-9.51331e-09
0.000369301
-0.000127911
-0.000332126
-5.67181e-05
0.000482247
7.73209e-06
-0.000637986
-4.26025e-05
0.000934161
6.85072e-06
-0.00126074
-2.67057e-05
0.00175419
3.57321e-06
-0.00235543
4.97389e-06
-4.51623e-05
0.00250766
1.09931e-08
-0.0017818
0.00137258
-0.000930497
0.000718111
-2.93611e-08
-0.000461743
-3.38011e-05
-1.43723e-05
-4.15692e-05
-2.13933e-05
-6.51129e-05
-0.000118384
-0.000195873
-0.000294642
-0.000377592
-0.000369761
-0.000422422
0.000422524
0.0052411
0.00728531
0.00123772
0.000368789
0.0125134
-1.36107e-05
-0.0103572
-0.000328498
0.00848735
7.47058e-05
0.000215568
1.80487e-07
0.000329088
4.99889e-08
-4.17126e-08
4.53171e-05
-0.00539198
0.00430831
-0.00320456
-2.8929e-05
-3.005e-08
-5.11797e-08
-1.56753e-08
-4.60135e-05
-1.33379e-08
-5.20529e-05
-2.27032e-08
2.90083e-09
-6.63377e-05
-7.45009e-09
5.95567e-09
0.000118754
-4.79508e-05
5.18215e-05
-6.92751e-05
6.92623e-05
-5.18218e-05
0.000155814
-2.25589e-05
6.54394e-05
-0.000152755
-3.17418e-05
1.38643e-06
-0.000137808
0.000168988
5.37222e-05
0.00016517
4.12707e-05
7.60785e-05
0.000162225
7.44928e-05
-2.52792e-05
-5.54837e-05
-1.89682e-05
1.54766e-08
-1.45144e-08
1.89472e-05
-0.000155837
-6.54376e-05
2.25376e-05
-5.38764e-05
3.17164e-05
0.000137797
-1.39268e-06
-2.22093e-05
2.01982e-05
0.000121147
-2.34977e-05
-0.000151651
-2.11207e-05
-7.71164e-05
5.55554e-05
5.54819e-05
-2.77432e-09
2.66897e-05
5.38554e-05
6.40977e-06
1.16384e-05
7.71615e-05
-5.55531e-05
-2.80821e-05
5.83794e-11
-1.16375e-05
-2.66951e-05
0.000109012
-6.44909e-06
1.43598e-05
-8.65045e-09
9.85976e-09
1.48906e-08
6.10006e-08
-5.07347e-08
9.17265e-08
-0.000230951
1.39095e-05
0.00023115
0.000115145
0.000163155
-0.0124267
-0.000300386
0.0115232
-0.000741364
-0.00757855
0.000369855
0.00600678
-0.000478812
-0.00447217
-0.00673817
0.000388667
0.00542106
-0.00683862
0.000101895
-0.00662264
0.00871012
-0.0107289
5.84517e-06
-0.0101876
0.000402752
0.00918478
-0.0100724
-0.00676042
0.00913118
-0.000683109
0.0137735
-0.000114449
0.0131346
-0.0155768
-0.000121485
-0.0156873
-0.0136321
-0.00974224
-0.000263184
0.0101543
-0.0102487
-0.0122105
0.0027238
-0.000464765
0.00101516
-0.0312283
0.00037116
-0.000349092
0.00413115
-0.0333152
0.00398876
-0.0132319
-0.00967542
0.00483115
5.04088e-07
0.000167053
0.000641861
0.0212635
-6.1252e-09
0.0171468
-0.0171465
0.000224016
-0.0134032
-5.48941e-06
0.0107296
-0.00871001
0.0101862
-0.000402773
0.00662174
-0.000102068
0.00683905
-0.00542085
-0.000389015
0.00408398
-9.88917e-05
0.00408149
-0.0031698
-0.000277046
-0.000701085
-0.000383429
-0.000183878
-5.1171e-05
-3.98939e-05
-5.07709e-05
2.00622e-05
4.41339e-05
6.32661e-05
-0.00076448
-0.000670426
0.00053882
0.000487959
7.76659e-05
-0.000583237
-0.000122768
-8.44238e-05
-5.03837e-05
-7.15424e-05
1.65923e-05
5.65173e-05
0.00011117
-0.000476275
0.000107295
6.92554e-05
5.62802e-05
7.20686e-05
0.000107853
0.000218809
-0.000454875
6.91426e-05
5.8925e-05
7.6409e-05
9.4858e-05
0.000103971
6.86764e-05
-0.000206155
-0.00126723
-0.000672066
-0.00038941
-0.000604504
-2.32262e-05
0.000106251
0.000146543
-0.00875401
0.00976745
3.40006e-08
0.00760426
-0.00760407
5.90862e-05
0.00596899
-2.18716e-08
0.0045353
-0.00453525
3.42089e-05
-0.00306854
-7.01291e-05
0.00228418
-0.00173878
0.00236838
-0.000178641
3.19521e-05
-0.000305994
-0.000229109
-0.000128511
-0.000150051
4.55555e-05
4.43092e-05
-0.00165185
-4.0512e-05
0.00120247
-0.000897705
0.00129167
-0.000110967
4.68222e-05
-5.67763e-05
-6.20759e-05
-1.20729e-05
6.60764e-06
5.7073e-05
0.000107213
6.96638e-05
4.10196e-05
0.000199226
-5.1573e-05
8.16203e-05
-1.78944e-07
-8.04321e-05
5.10775e-05
-0.000198993
-4.03712e-05
-4.47587e-05
-1.39027e-07
-3.47572e-08
2.50299e-05
7.72316e-06
2.03099e-05
1.48907e-05
8.26147e-05
0.000612426
-6.43819e-05
2.55739e-05
0.000144044
0.00114757
-0.000110482
-7.3279e-05
-2.90031e-05
7.32494e-05
0.000117355
0.000169659
0.000276477
0.000224107
4.05609e-05
-0.0088275
0.000267669
0.0075233
-0.000521212
-0.00510991
0.000400859
0.00369501
-0.000332226
-0.00279682
-0.0042114
0.000277269
0.00316996
-0.0040813
9.88365e-05
-0.00408442
0.00535022
-5.91248e-05
-0.00596886
-0.000106119
-1.20399e-07
1.52229e-08
-5.94011e-07
0.000208898
-0.000208253
-0.000166716
-0.000641755
0.019192
-0.0212636
-0.000168979
7.04074e-05
-0.000144092
-4.36804e-05
0.000100162
-2.07223e-08
9.74918e-05
-0.000215377
-7.45214e-05
-0.000169533
-6.65922e-05
6.39202e-05
5.90741e-08
1.41741e-08
5.38577e-09
-1.22906e-08
-1.00152e-08
1.23426e-09
1.95888e-09
-8.89992e-06
6.50514e-05
0.000107772
0.000165675
0.000232392
3.45787e-06
-0.00366807
0.000253508
0.0027149
-0.000233951
0.00247247
0.000299194
0.00213606
-0.000219802
-0.00164636
-0.00246252
0.00331098
-9.49498e-05
-0.00010941
-4.32955e-05
0.000235627
0.000390023
0.000618477
0.000377689
0.000294629
0.00019597
0.000118462
0.000131
6.40231e-05
6.5143e-05
2.30755e-05
1.74558e-05
-8.42718e-05
-6.93457e-05
-5.6334e-05
0.000399378
6.43914e-05
0.000371794
-5.65318e-05
-7.03886e-05
0.000454886
-1.17833e-05
5.03964e-05
8.44402e-05
0.000127173
0.000171211
0.00018466
-9.73913e-05
-6.3934e-05
-0.000357166
-0.00354563
-0.00320866
0.00425953
0.00465319
0.00497751
0.000324929
-0.00587958
1.62085e-05
0.00797811
7.62792e-05
0.000324719
0.0121237
0.00189642
0.000869698
-0.0341576
0.0200473
0.0175762
-0.00165427
0.00712793
0.0120091
0.0207663
0.017509
-0.0085117
0.0172645
0.0191486
0.0175332
-0.00886417
0.0171088
0.0123103
0.012299
0.00163181
0.00388423
0.00277036
0.00202733
0.00116595
0.00117735
0.000586573
-1.55463e-05
-0.00012784