/*--------------------------------*- C++ -*----------------------------------*\
| =========                 |                                                 |
| \\      /  F ield         | OpenFOAM: The Open Source CFD Toolbox           |
|  \\    /   O peration     | Version:  2306                                  |
|   \\  /    A nd           | Website:  www.openfoam.com                      |
|    \\/     M anipulation  |                                                 |
\*---------------------------------------------------------------------------*/
FoamFile
{
    version     2.0;
    format      ascii;
    arch        "LSB;label=32;scalar=64";
    class       volScalarField;
    location    "1.3";
    object      gradTz;
}
// * * * * * * * * * * * * * * * * * * * * * * * * * * * * * * * * * * * * * //

dimensions      [0 -1 0 1 0 0 0];

internalField   nonuniform List<scalar> 
2658
(
-0.0717893
-0.0687365
-0.0474051
-0.0428487
-0.0544066
-0.0556331
-0.0480101
-0.0464147
-0.0428125
-0.0554718
-0.0575202
-0.0470651
-0.0641452
-0.0603952
-0.0619326
-0.0636358
-0.0617319
-0.0634935
-0.061837
-0.0595872
-0.0630672
-0.0568159
-0.0647423
-0.0485234
-0.0764307
-0.0629893
-0.0566129
-0.0660166
-0.0677993
-0.0563402
-0.0677987
-0.0566129
-0.0629887
-0.0647416
-0.0764306
-0.0485226
-0.0611005
-0.087874
-0.0568152
-0.0630688
-0.059588
-0.0618371
-0.0634929
-0.0902642
-0.0556475
-0.0550366
-0.0575204
-0.0902131
-0.0636367
-0.061933
-0.0603946
-0.0641458
-0.0574597
-0.0912085
-0.0642024
-0.0620119
-0.0902149
-0.0552883
-0.049006
-0.0635595
-0.0902159
-0.0620127
-0.064203
-0.0912088
-0.0573466
-0.047159
-0.0573718
-0.0506005
-0.0549914
-0.0549901
-0.043435
-0.0470355
-0.0354334
-0.0396149
-0.0295481
-0.0392134
-0.0394991
-0.0295063
-0.0326123
-0.0319384
-0.0395016
-0.0354154
-0.0467898
-0.0481638
-0.0403485
-0.0277012
-0.0179759
-0.0109414
-0.00624274
-0.00334907
-0.00172107
-0.0011895
-0.000906751
-0.000764423
-0.000782657
-0.00089651
-0.000767474
-0.00114425
-0.000767653
-0.000776835
-0.00114913
-0.000786691
-0.000890168
-0.000943073
-0.000800354
-0.000909498
-0.00066295
-0.00121883
-0.000708354
-0.00102206
-0.000943739
-0.000774676
-0.00105151
-0.000774648
-0.000943745
-0.00102208
-0.000800387
-0.000909501
-0.000890174
-0.000943079
-0.000786645
-0.00114905
-0.000776825
-0.00076764
-0.000798927
-0.000802645
-0.000764399
-0.000896552
-0.000767475
-0.000782682
-0.00115034
-0.000781154
-0.000935202
-0.000776316
-0.00101558
-0.000744589
-0.000730334
-0.000908397
-0.000767459
-0.000767483
-0.000730303
-0.000744585
-0.000807244
-0.000842418
-0.00105494
-0.00084203
-0.00100078
-0.00100374
-0.000689313
-0.000692697
-0.000646688
-0.000930095
-0.000946627
-0.000580158
-0.000800248
-0.000765365
-0.000695897
-0.000758452
-0.000703535
-0.000746384
-0.000768634
-0.00071766
-0.00076899
-0.000744373
-0.000697504
-0.000752216
-0.000690507
-0.000794201
-0.00124746
-0.00119161
-0.00185041
-0.0026937
-0.00379119
-0.00524807
-0.00721698
-0.00970187
-0.0128991
-0.0168153
-0.0215966
-0.0273056
-0.0338796
-0.0415009
-0.0498795
-0.0576229
-0.0557306
-0.0546782
-0.0552303
-0.055471
-0.0544059
-0.0428481
-0.0556337
-0.0573709
-0.047159
-0.0573466
-0.0470652
-0.0763306
-0.0403484
-0.0277011
-0.0179759
-0.0109413
-0.00624267
-0.003349
-0.00172103
-0.0011895
-0.000906757
-0.000638153
-0.00069956
-0.00119392
-0.000718669
-0.000718674
-0.000699571
-0.000638153
-0.00119393
-0.000661128
-0.000802633
-0.000798933
-0.00089379
-0.000768483
-0.000907014
-0.000641255
-0.000659671
-0.000928849
-0.00119906
-0.0011905
-0.00124229
-0.00119048
-0.000907009
-0.000662939
-0.000723761
-0.00121883
-0.000762747
-0.000762749
-0.000723758
-0.000961519
-0.000707036
-0.000714546
-0.00071454
-0.00119108
-0.000707036
-0.000878688
-0.000802603
-0.000787436
-0.000727671
-0.000834348
-0.000789273
-0.000824247
-0.00119753
-0.0011163
-0.000813219
-0.00108217
-0.000756967
-0.000644347
-0.000795708
-0.000924744
-0.00155443
-0.00198792
-0.00198791
-0.00152508
-0.00284712
-0.00211403
-0.00396823
-0.00553779
-0.00406144
-0.00751999
-0.0101821
-0.00737432
-0.0134357
-0.0175779
-0.0125602
-0.0225108
-0.028438
-0.0200542
-0.0353539
-0.0431328
-0.0300123
-0.0517745
-0.062273
-0.0436915
-0.0683429
-0.0477475
-0.0617548
-0.0617545
-0.0660156
-0.0668552
-0.0593093
-0.0548812
-0.0794892
-0.0523871
-0.0523876
-0.0528124
-0.0795703
-0.0534915
-0.0534917
-0.050918
-0.0786599
-0.0651196
-0.0651193
-0.0763832
-0.108649
-0.0763834
-0.0776369
-0.107413
-0.0774289
-0.0900506
-0.0770007
-0.0752027
-0.0620718
-0.0722771
-0.0855308
-0.0791522
-0.050918
-0.0486922
-0.0777856
-0.0623491
-0.077665
-0.107417
-0.0774785
-0.0858645
-0.0784726
-0.0792892
-0.0784722
-0.0777856
-0.0620717
-0.075203
-0.0774267
-0.107414
-0.0776361
-0.072278
-0.0855309
-0.0858646
-0.0774818
-0.107416
-0.077666
-0.0623489
-0.0722114
-0.0768858
-0.108729
-0.0764803
-0.0653345
-0.0787686
-0.050876
-0.0651822
-0.0727766
-0.0737175
-0.0427095
-0.0294414
-0.0191469
-0.0116704
-0.00666596
-0.00357832
-0.00183912
-0.00178043
-0.00181132
-0.00179315
-0.00179623
-0.0018084
-0.00256236
-0.00363297
-0.00498552
-0.00691568
-0.00922789
-0.0123709
-0.0160107
-0.0207428
-0.026014
-0.0326123
-0.0394983
-0.0481641
-0.0428118
-0.0464147
-0.0480095
-0.0470365
-0.0394456
-0.0301295
-0.039446
-0.0320742
-0.0325448
-0.0316548
-0.0255494
-0.026082
-0.0190669
-0.0202132
-0.0190338
-0.0260147
-0.0237819
-0.0259429
-0.0258217
-0.0194157
-0.0205138
-0.0204927
-0.0259568
-0.0237859
-0.0321796
-0.0300166
-0.0391789
-0.0473028
-0.0433194
-0.0552303
-0.05065
-0.055037
-0.0902134
-0.0722117
-0.0651816
-0.0508758
-0.0738088
-0.0534682
-0.0448596
-0.042144
-0.0291359
-0.018946
-0.011544
-0.00659033
-0.00353681
-0.00181975
-0.00119906
-0.000928835
-0.000659666
-0.00119107
-0.00064124
-0.000768484
-0.000893788
-0.001346
-0.00115179
-0.00114937
-0.00114533
-0.00116048
-0.00106455
-0.000758642
-0.00124044
-0.00182354
-0.00178062
-0.0026223
-0.00245232
-0.00175924
-0.00175267
-0.0018903
-0.00111647
-0.00112209
-0.00111303
-0.00104311
-0.00109439
-0.00194888
-0.0019018
-0.00135827
-0.00189511
-0.003732
-0.00377169
-0.0037776
-0.00703237
-0.00712115
-0.00527212
-0.00271482
-0.00262603
-0.00253941
-0.00255203
-0.00359686
-0.00359325
-0.0024877
-0.00254386
-0.00179814
-0.00189841
-0.00372991
-0.00705967
-0.00705406
-0.0124703
-0.0125907
-0.0123187
-0.0202429
-0.0208451
-0.0163958
-0.00960928
-0.0093378
-0.00918482
-0.00917007
-0.0122478
-0.0122011
-0.00873253
-0.00917618
-0.00683042
-0.0048005
-0.00495269
-0.00353755
-0.00495758
-0.00684908
-0.00480984
-0.00495515
-0.00362095
-0.00249234
-0.00280498
-0.00269448
-0.0028471
-0.00148293
-0.00205451
-0.00110545
-0.00138998
-0.000735239
-0.00112292
-0.00135356
-0.00139698
-0.00129881
-0.00133596
-0.00133509
-0.00134239
-0.00139113
-0.00104344
-0.00109646
-0.0019429
-0.00186654
-0.00275377
-0.002622
-0.00371683
-0.00703101
-0.0124507
-0.0125018
-0.020698
-0.0206149
-0.0319632
-0.0324143
-0.0312155
-0.0450674
-0.0477325
-0.0393541
-0.0262288
-0.0256758
-0.0259561
-0.025821
-0.0321795
-0.031938
-0.023782
-0.0259425
-0.0204086
-0.0148904
-0.0159374
-0.0117547
-0.0159012
-0.0205137
-0.0149031
-0.0159503
-0.0122622
-0.00874572
-0.0097238
-0.00537745
-0.00514981
-0.00553769
-0.00293008
-0.00396811
-0.00211401
-0.0021575
-0.0038867
-0.00538808
-0.00732876
-0.00732865
-0.00548695
-0.00986251
-0.0075015
-0.0130469
-0.00962718
-0.0170018
-0.0127577
-0.0217964
-0.0158496
-0.0274787
-0.0203198
-0.034152
-0.0244731
-0.0415386
-0.0302884
-0.0503368
-0.035419
-0.057754
-0.0426454
-0.0709091
-0.0580352
-0.0709091
-0.0477475
-0.0683417
-0.0436911
-0.062273
-0.0354485
-0.0517736
-0.030012
-0.0431325
-0.0246314
-0.0353535
-0.0200542
-0.0284381
-0.0159516
-0.0225106
-0.0125599
-0.017578
-0.00967513
-0.0134353
-0.00737418
-0.0101821
-0.00549646
-0.00751974
-0.00406136
-0.00413694
-0.00533941
-0.00284528
-0.00152075
-0.000991811
-0.000912141
-0.00117746
-0.00205379
-0.00383272
-0.00701899
-0.0122079
-0.019963
-0.0306006
-0.0438102
-0.0567152
-0.0667155
-0.0653091
-0.0653091
-0.0600147
-0.0707899
-0.0549062
-0.0468594
-0.0682629
-0.0480265
-0.0561193
-0.0506499
-0.0518672
-0.0504242
-0.0426452
-0.0577531
-0.0354185
-0.0503368
-0.0415271
-0.0428547
-0.0295321
-0.0244726
-0.0341521
-0.0415375
-0.0302888
-0.0371962
-0.0250063
-0.0203197
-0.027478
-0.0158494
-0.0217968
-0.0185017
-0.019202
-0.0117134
-0.00670398
-0.00548686
-0.00986213
-0.0130472
-0.0170013
-0.0127573
-0.0157494
-0.00929682
-0.00703625
-0.00378221
-0.0019598
-0.00188069
-0.00152509
-0.0028278
-0.00181694
-0.00282781
-0.0021575
-0.00388669
-0.00294802
-0.00538831
-0.00413699
-0.00514985
-0.00361518
-0.00294792
-0.00346179
-0.00269448
-0.00135357
-0.00138998
-0.00110547
-0.00205457
-0.00112296
-0.00155444
-0.000813203
-0.000924741
-0.00105132
-0.000795727
-0.00064435
-0.000756953
-0.000794195
-0.00108221
-0.000819408
-0.000752361
-0.000883116
-0.000789253
-0.000787405
-0.000834361
-0.000727602
-0.000859734
-0.000796708
-0.000817546
-0.000796706
-0.000728798
-0.00114423
-0.00085975
-0.000878702
-0.000883125
-0.000708348
-0.000752363
-0.000819398
-0.000880625
-0.000785491
-0.000728236
-0.000863101
-0.00083736
-0.000791125
-0.00086262
-0.000681893
-0.000903378
-0.000905867
-0.00127483
-0.000799852
-0.000956117
-0.00121988
-0.00123723
-0.0009744
-0.00195917
-0.00377955
-0.00703338
-0.0123092
-0.0123129
-0.0201959
-0.0310425
-0.044938
-0.070664
-0.0652874
-0.100427
-0.059309
-0.0668565
-0.0928245
-0.0772949
-0.077293
-0.0928249
-0.0983795
-0.0590609
-0.0789375
-0.0765453
-0.0781823
-0.0494616
-0.0633605
-0.0715265
-0.0782391
-0.107828
-0.0784736
-0.0910538
-0.0747516
-0.0846576
-0.0779111
-0.0799825
-0.0803647
-0.0859973
-0.103093
-0.0803673
-0.0983797
-0.078939
-0.0590602
-0.0520486
-0.0781819
-0.0633599
-0.0494613
-0.0502234
-0.0787687
-0.0653357
-0.0764791
-0.108728
-0.0768867
-0.0853763
-0.079625
-0.0799825
-0.0808081
-0.080374
-0.0520482
-0.0766932
-0.0780649
-0.0847968
-0.0796266
-0.0776738
-0.0853762
-0.0768077
-0.0791524
-0.0486923
-0.0738087
-0.0534682
-0.0506499
-0.0540546
-0.0470237
-0.0321216
-0.0387187
-0.0395374
-0.039178
-0.0473035
-0.0467891
-0.0354154
-0.0395013
-0.0300159
-0.0388584
-0.0321002
-0.020634
-0.0257349
-0.0160014
-0.00933393
-0.00509777
-0.00510419
-0.0068733
-0.00660657
-0.00535524
-0.00480858
-0.00348036
-0.00503372
-0.00690944
-0.00653537
-0.00926864
-0.00894465
-0.00677132
-0.00651255
-0.0120847
-0.0115317
-0.0160551
-0.0156038
-0.0115061
-0.0202131
-0.0190667
-0.0260822
-0.0255493
-0.0190337
-0.0316545
-0.0295479
-0.0396154
-0.039213
-0.0295063
-0.0407173
-0.0471867
-0.0687137
-0.0682748
-0.0617335
-0.0538697
-0.0492424
-0.0574571
-0.0476015
-0.0474049
-0.0323183
-0.0207976
-0.0125671
-0.0071209
-0.00379318
-0.00369736
-0.00514498
-0.00480972
-0.00499203
-0.0035851
-0.00499228
-0.00686129
-0.00670574
-0.00920765
-0.00920735
-0.0068615
-0.00656981
-0.00353368
-0.00183519
-0.00143047
-0.00129439
-0.00132291
-0.00121369
-0.000945821
-0.00121381
-0.0018729
-0.00185482
-0.00259103
-0.0025908
-0.00187305
-0.001431
-0.00152487
-0.000911921
-0.000911857
-0.000746124
-0.000844446
-0.00152493
-0.00124049
-0.00075859
-0.00106457
-0.00175923
-0.0017807
-0.00245252
-0.0026222
-0.00182369
-0.00132294
-0.00143048
-0.00139699
-0.00183913
-0.00148294
-0.00185042
-0.00178044
-0.00253944
-0.00249233
-0.00359688
-0.00353768
-0.00495284
-0.00480063
-0.00683047
-0.00691575
-0.00651286
-0.00894508
-0.00926864
-0.00653573
-0.00677142
-0.0048089
-0.00503364
-0.00348053
-0.00356939
-0.00345726
-0.00498568
-0.00363299
-0.00359328
-0.00254392
-0.00248778
-0.00256245
-0.00175275
-0.00180842
-0.00179624
-0.00179815
-0.00255207
-0.00179317
-0.00181133
-0.00115179
-0.0012988
-0.00114936
-0.000723601
-0.00114535
-0.00129438
-0.00116046
-0.000671556
-0.00074638
-0.000768626
-0.00134239
-0.00133514
-0.00133598
-0.00135831
-0.00109441
-0.000991829
-0.00152077
-0.00284532
-0.00194885
-0.00377787
-0.00533953
-0.00957513
-0.0070328
-0.0123194
-0.0161681
-0.0161679
-0.00957489
-0.00750133
-0.0255994
-0.0255997
-0.0202435
-0.0312158
-0.0379238
-0.0379226
-0.0515959
-0.0515967
-0.0450674
-0.0600154
-0.0707974
-0.0549063
-0.0576249
-0.0430443
-0.0557304
-0.05065
-0.0556476
-0.0492423
-0.0727768
-0.0737176
-0.0427097
-0.0294415
-0.019147
-0.0116705
-0.00666603
-0.00357835
-0.00293014
-0.00379123
-0.00351187
-0.00495522
-0.00481
-0.00684911
-0.00665958
-0.00917643
-0.00873255
-0.0122013
-0.012371
-0.0115064
-0.0156041
-0.0160549
-0.0115319
-0.0120847
-0.012359
-0.00874145
-0.0122404
-0.0118086
-0.0159616
-0.0159615
-0.0122406
-0.00874153
-0.0123586
-0.00936916
-0.0071674
-0.0038384
-0.00200338
-0.00113577
-0.00143116
-0.00109629
-0.000799717
-0.000580691
-0.000927535
-0.00101547
-0.000776426
-0.00093525
-0.000905826
-0.00078115
-0.00115031
-0.000703477
-0.000758432
-0.00127477
-0.000695874
-0.000765352
-0.00104332
-0.00111645
-0.00112204
-0.001113
-0.000697498
-0.000744383
-0.00134599
-0.000768984
-0.000717697
-0.000687861
-0.00119162
-0.000735244
-0.00124746
-0.000752217
-0.00069047
-0.00104302
-0.00189514
-0.00190183
-0.00271496
-0.00269376
-0.00262614
-0.00362104
-0.00373216
-0.00377207
-0.00527228
-0.00524829
-0.0072171
-0.0066066
-0.00918506
-0.00874576
-0.0122624
-0.012248
-0.0117551
-0.0159377
-0.0148901
-0.0204091
-0.0207429
-0.0160112
-0.0160016
-0.0159896
-0.0159507
-0.0149034
-0.0159017
-0.011544
-0.00659042
-0.00353686
-0.00181977
-0.002805
-0.00537747
-0.00972384
-0.00929685
-0.0157495
-0.0164895
-0.0164894
-0.026191
-0.0237853
-0.0320516
-0.0297414
-0.0388929
-0.035398
-0.0469916
-0.0430437
-0.0400495
-0.0269594
-0.0169573
-0.00999068
-0.00552066
-0.00287766
-0.00250146
-0.00363102
-0.0036306
-0.00363042
-0.00363131
-0.00250143
-0.00287768
-0.0055207
-0.0048098
-0.00690975
-0.00514522
-0.00268786
-0.00194297
-0.00379328
-0.00712118
-0.00936933
-0.00979288
-0.00535546
-0.00509804
-0.00510441
-0.00687344
-0.00705424
-0.00712161
-0.00960974
-0.00970224
-0.0128993
-0.0116528
-0.0168157
-0.0215966
-0.0192371
-0.0273067
-0.0338799
-0.0297423
-0.0395382
-0.0353982
-0.0469921
-0.0498798
-0.0354489
-0.0415017
-0.0246316
-0.0393552
-0.0262293
-0.0163963
-0.0125918
-0.0124708
-0.020616
-0.0208473
-0.0319649
-0.0324174
-0.0468613
-0.0477307
-0.0682659
-0.0480265
-0.0611004
-0.0878751
-0.0747516
-0.078473
-0.107827
-0.0782396
-0.0715267
-0.0902649
-0.0561204
-0.0538702
-0.0546793
-0.0421441
-0.029136
-0.0189461
-0.0201881
-0.0310157
-0.038893
-0.0371962
-0.0250064
-0.0261911
-0.0269595
-0.0188745
-0.0115011
-0.0169574
-0.00999073
-0.0149031
-0.0207159
-0.0204774
-0.0194916
-0.0259507
-0.0259505
-0.0204775
-0.0149029
-0.0207155
-0.0160345
-0.0167762
-0.0124099
-0.00979273
-0.0069981
-0.026974
-0.0206185
-0.0257743
-0.0325444
-0.0320744
-0.0238017
-0.0290294
-0.0420036
-0.0726557
-0.0695584
-0.0528125
-0.0730765
-0.0518673
-0.0504243
-0.0766937
-0.0548815
-0.0803735
-0.0780649
-0.0847963
-0.0846569
-0.0765472
-0.0910539
-0.077912
-0.0776747
-0.0812185
-0.0763307
-0.0552879
-0.054036
-0.0473067
-0.0388927
-0.0354332
-0.0540355
-0.0687363
-0.0717909
-0.0603263
-0.0683931
-0.0635596
-0.061791
-0.0506003
-0.0323667
-0.0208712
-0.0126272
-0.0160346
-0.0125673
-0.0207973
-0.0257744
-0.0238019
-0.0269742
-0.0167765
-0.012451
-0.00703135
-0.003717
-0.00189036
-0.0018984
-0.00372999
-0.00705982
-0.00933831
-0.00917031
-0.0125022
-0.0206986
-0.0256768
-0.0320518
-0.0387194
-0.038858
-0.0257358
-0.0206343
-0.0321007
-0.032123
-0.0470253
-0.0682768
-0.054054
-0.0471884
-0.0687141
-0.0574578
-0.0407175
-0.0388932
-0.0323185
-0.0321861
-0.0476022
-0.0206202
-0.00933421
-0.00922817
-0.00262216
-0.00275391
-0.00139113
-0.00186674
-0.00369769
-0.00699868
-0.0124121
-0.0400495
-0.0321824
-0.0159518
-0.00967526
-0.00549667
-0.00495768
-0.00268777
-0.00356937
-0.00345713
-0.000728226
-0.000785496
-0.00088063
-0.000862627
-0.000806791
-0.000791142
-0.000837369
-0.000863115
-0.000728775
-0.000903373
-0.000681829
-0.000908393
-0.000947931
-0.000746091
-0.000844465
-0.000807507
-0.000927156
-0.0159889
-0.0204924
-0.019237
-0.0433183
-0.0502234
-0.0730764
-0.0768041
-0.000661115
-0.000620108
-0.00962724
-0.0112428
-0.00641664
-0.0285802
-0.0116523
-0.0194154
-0.00351176
-0.00665943
-0.000687884
-0.000723601
-0.000671508
-0.0770005
-0.0900505
-0.0767565
-0.0774433
-0.0767551
-0.0574603
-0.0603272
0.00104337
0.00109643
0.00194287
0.00178063
0.00175921
0.00182352
0.00262232
0.00245228
0.00175263
0.0018084
0.00116046
0.000671514
0.000758497
0.000703589
0.000746421
0.000768665
0.000717735
0.000769025
0.000744423
0.000697571
0.00075228
0.000690623
0.000794227
0.000735232
0.0010822
0.000756989
0.000644363
0.000819387
0.000795709
0.000620154
0.000795701
0.000644348
0.000756978
0.000794231
0.00108221
0.000735238
0.00119161
0.00124743
0.000690592
0.000752269
0.00069757
0.000744428
0.000769018
0.001346
0.00114933
0.00114531
0.00116043
0.00134235
0.000768668
0.00074641
0.000703577
0.000758494
0.000696008
0.00127478
0.000765382
0.000844453
0.0015249
0.0012138
0.000945793
0.000911902
0.00152484
0.000844453
0.000765347
0.00127483
0.00106452
0.000758602
0.00124042
0.00132294
0.00187307
0.0018729
0.00185481
0.00259076
0.00250143
0.00363099
0.00348039
0.00356934
0.00363294
0.00345708
0.00498539
0.00495259
0.00359318
0.00248769
0.00254384
0.0025623
0.00172102
0.00334898
0.00624262
0.0109412
0.0179757
0.027701
0.0403482
0.0763306
0.0777854
0.0623489
0.0776664
0.0722113
0.0768862
0.108728
0.0764795
0.078239
0.107829
0.0784725
0.0747516
0.0910536
0.0789373
0.0765455
0.0520481
0.0766931
0.0590606
0.0983794
0.0928242
0.0772949
0.103094
0.0772924
0.0928245
0.0983788
0.078938
0.0765454
0.0747516
0.0910537
0.0784725
0.107826
0.0782389
0.0764796
0.0653345
0.065182
0.0623487
0.0722113
0.0768861
0.0776666
0.107415
0.0774813
0.0900509
0.0774263
0.107413
0.0776366
0.0763827
0.0722779
0.0651194
0.0651195
0.076383
0.0776369
0.107412
0.0774287
0.0900504
0.0770003
0.0774788
0.107416
0.0603942
0.0641446
0.0912085
0.0574595
0.0642028
0.0603263
0.0620122
0.0635595
0.0617905
0.0635595
0.049006
0.0552882
0.0552883
0.0902149
0.0620119
0.0603255
0.0642028
0.057461
0.0641456
0.0603938
0.0619326
0.0636354
0.061731
0.0634931
0.0618365
0.059587
0.0630667
0.0568168
0.0647408
0.0878742
0.0611003
0.0576239
0.0498793
0.0415017
0.0338792
0.0273067
0.0215965
0.0168158
0.0128991
0.00970213
0.00721702
0.00524823
0.00379121
0.00269375
0.00185039
0.00181133
0.00179313
0.00179622
0.00180838
0.00175919
0.00178066
0.00182368
0.00124044
0.000758602
0.00106453
0.00067155
0.0011895
0.00172105
0.00334904
0.00624269
0.0109413
0.0179758
0.027701
0.0403482
0.0763305
0.0777853
0.0486922
0.0509177
0.0738086
0.0534917
0.0534913
0.0509178
0.0486921
0.0738086
0.0508757
0.0651814
0.0653348
0.0715265
0.0633595
0.0781818
0.0494613
0.0502233
0.0787684
0.0727766
0.0737174
0.0706637
0.0737173
0.0781818
0.052048
0.0548807
0.076693
0.0593088
0.0593088
0.0548807
0.0794892
0.0523876
0.0528122
0.052812
0.0730763
0.0523871
0.0780645
0.0808086
0.0799819
0.0779105
0.0846574
0.080365
0.0859976
0.100426
0.0652871
0.0477469
0.0764303
0.0629883
0.056612
0.0677989
0.0617539
0.0709083
0.0577531
0.0577527
0.0354188
0.0517734
0.0300113
0.0431323
0.0353535
0.0200542
0.0284379
0.0225106
0.01256
0.0175779
0.0134355
0.00737419
0.010182
0.00751989
0.00406137
0.00553768
0.00396813
0.00211396
0.00284706
0.00205451
0.00110544
0.00138995
0.000813212
0.000924698
0.000924702
0.000819377
0.000752369
0.000762745
0.000723757
0.0009615
0.000707022
0.000707021
0.000714533
0.000974372
0.000718659
0.000718655
0.000699555
0.000956088
0.000767439
0.000767461
0.000730301
0.00100079
0.000842029
0.000842422
0.000927508
0.00101552
0.000776495
0.000935389
0.000781257
0.00115045
0.000782739
0.00076443
0.000906753
0.000681834
0.000903383
0.000905893
0.000837389
0.000863136
0.000767559
0.00114444
0.000767737
0.000798928
0.000928823
0.000661115
0.00080262
0.000896476
0.00119907
0.00119049
0.00183912
0.00357832
0.00666599
0.0116705
0.0191469
0.0294414
0.0427094
0.043044
0.0557304
0.0546787
0.0552301
0.0554708
0.048164
0.039498
0.0326122
0.026014
0.0207427
0.016011
0.0123708
0.00922803
0.00691562
0.0049856
0.00363293
0.00256242
0.0017527
0.0024524
0.00262215
0.00259102
0.00363038
0.00358501
0.00363063
0.00499193
0.00503368
0.00480858
0.0067713
0.00690946
0.00653535
0.00894465
0.00651248
0.00691562
0.00480052
0.00683031
0.006849
0.00665929
0.00916986
0.00918455
0.00687332
0.00480978
0.00495746
0.00353757
0.00359681
0.00255199
0.00179808
0.00179621
0.00129436
0.00114529
0.00134235
0.000896536
0.000782716
0.00115043
0.000781212
0.000935323
0.000776361
0.0010156
0.000927109
0.000807546
0.000730313
0.000744566
0.000908372
0.000681891
0.000638157
0.000906763
0.000903376
0.000764408
0.000802641
0.000661126
0.00119392
0.000699551
0.00121987
0.00183517
0.00353365
0.00656978
0.011501
0.0188745
0.0290293
0.0420034
0.0726557
0.0786597
0.0792888
0.0784721
0.0768055
0.0853754
0.0776759
0.108727
0.0847957
0.0633607
0.0494614
0.0502229
0.0730762
0.0518671
0.0506497
0.0556476
0.0550364
0.0575203
0.0573467
0.0471593
0.0573712
0.0556333
0.0428484
0.0480094
0.0464147
0.0544058
0.042812
0.0471867
0.068714
0.0682758
0.0682659
0.0707976
0.060015
0.0450673
0.0477335
0.0549062
0.0468616
0.0319631
0.0324153
0.0312169
0.0202434
0.0208463
0.0262298
0.0393538
0.0387185
0.046992
0.0473025
0.0391782
0.0395011
0.0354152
0.0467892
0.0433189
0.0421439
0.0727765
0.0787682
0.0508758
0.0791522
0.0796267
0.0780645
0.0803741
0.0590602
0.0668543
0.0660158
0.0653077
0.0667147
0.056715
0.0438099
0.0306003
0.0199632
0.0122081
0.00701913
0.00383269
0.00205378
0.00117742
0.000912111
0.000991789
0.000991787
0.0010944
0.00194888
0.00377774
0.00703265
0.0123192
0.0125913
0.0163965
0.0206157
0.0124706
0.00705416
0.00712129
0.0096097
0.00933798
0.0122623
0.0122478
0.00917018
0.00917623
0.00873245
0.0122011
0.0159375
0.0148902
0.0204088
0.0259423
0.023782
0.0319382
0.0300157
0.0321795
0.0258212
0.023786
0.0320519
0.0395369
0.035398
0.0388927
0.0291357
0.0189459
0.0194155
0.0205137
0.0159014
0.0149032
0.0204927
0.0259561
0.0192372
0.0256763
0.0321222
0.047024
0.0538693
0.0561197
0.0902643
0.0715265
0.0480264
0.054054
0.0902127
0.0574575
0.0717895
0.0687366
0.0474056
0.0476076
0.040716
0.0388574
0.0321001
0.020634
0.0206981
0.0125019
0.00705967
0.00372988
0.00373208
0.00377174
0.00527227
0.00510421
0.00687335
0.00684902
0.00495757
0.00495269
0.00480055
0.00683043
0.00665944
0.00659035
0.011544
0.0117549
0.00972377
0.00874563
0.00918481
0.00660657
0.00929683
0.0134357
0.00967529
0.0175779
0.0125602
0.0225113
0.0159516
0.0284381
0.0200547
0.0353544
0.0246315
0.0431322
0.030012
0.0517741
0.0354488
0.0622725
0.0436912
0.0683415
0.0485225
0.0426454
0.0504241
0.0504241
0.0683414
0.0436911
0.0622725
0.0426452
0.070909
0.0477468
0.061754
0.0580349
0.0677992
0.0566122
0.0629885
0.0647412
0.0764304
0.0660155
0.066856
0.0803739
0.0803659
0.0799833
0.0846569
0.0779087
0.0847955
0.0796249
0.0812186
0.0795701
0.0695582
0.0448595
0.0449378
0.0428546
0.0354189
0.050336
0.0415383
0.0341517
0.0274789
0.0274781
0.0158498
0.0217967
0.0127574
0.0170015
0.00962724
0.013047
0.00750144
0.00986236
0.00548685
0.00732878
0.00413701
0.00538812
0.00294798
0.00388667
0.00215742
0.00282775
0.00152511
0.0019879
0.00112291
0.00155441
0.0010513
0.00155441
0.0008132
0.00138995
0.00110544
0.00205456
0.00148295
0.0028471
0.00211402
0.00396819
0.00293013
0.00553774
0.00406137
0.00751995
0.00549656
0.0101822
0.00737431
0.00750152
0.00986241
0.00641672
0.00732867
0.00538826
0.00388662
0.00282782
0.00181696
0.00198792
0.00112293
0.00135356
0.00269446
0.00215747
0.00284528
0.00533956
0.00957525
0.0161685
0.0256001
0.0379233
0.0515959
0.0515955
0.0653088
0.0600152
0.0450665
0.0379227
0.0503368
0.0302884
0.0415374
0.0244723
0.0341522
0.0203196
0.0250062
0.0295319
0.0244726
0.0285802
0.019202
0.0158498
0.0217964
0.0170019
0.0130469
0.00962727
0.0117134
0.011243
0.00670399
0.0054869
0.00361518
0.002948
0.0034617
0.00188069
0.00152508
0.0011163
0.00119752
0.000762742
0.000752365
0.000943851
0.000774773
0.000774732
0.000943835
0.00102213
0.000708362
0.000800395
0.000909507
0.000907005
0.000641237
0.000768472
0.000893826
0.000776905
0.00114921
0.000786768
0.000943214
0.000890182
0.000834378
0.000727619
0.000787429
0.000789277
0.000824267
0.00105171
0.000789298
0.00102219
0.000800456
0.00070836
0.000662958
0.000907008
0.000768482
0.000641254
0.000659672
0.000928833
0.000798936
0.000767701
0.00114436
0.000767569
0.000863133
0.000796692
0.000787405
0.000802587
0.000883116
0.000662941
0.00121882
0.000878684
0.000859768
0.000796694
0.000728844
0.000817524
0.000878681
0.000883114
0.000723756
0.00121883
0.00135356
0.0019598
0.00378219
0.00703623
0.0123128
0.0201959
0.0310424
0.0371961
0.030289
0.037196
0.0427094
0.035449
0.0576235
0.0430437
0.0469917
0.035398
0.0391776
0.0300157
0.0319378
0.0237815
0.0259422
0.0260137
0.0190336
0.0202128
0.0207155
0.0190666
0.0255488
0.0316542
0.0325442
0.0295475
0.0392125
0.0295057
0.032612
0.0394981
0.0395006
0.0467892
0.0354156
0.0481634
0.0428125
0.0464143
0.0480093
0.042848
0.0544058
0.0554711
0.0552295
0.0433187
0.0473027
0.0546783
0.0557299
0.0561198
0.0506498
0.0556475
0.0492422
0.0550367
0.0506498
0.05752
0.0470651
0.0573467
0.0573716
0.0471586
0.0687364
0.0683928
0.0540359
0.0506003
0.0549902
0.0434353
0.0470356
0.0470359
0.0354326
0.0396148
0.0295472
0.0325444
0.0316544
0.0392122
0.0295061
0.0255491
0.0190669
0.0207157
0.0202129
0.019034
0.015604
0.011532
0.0123589
0.0120845
0.0115063
0.0124508
0.00703114
0.00371687
0.00189028
0.00189839
0.00189509
0.00190183
0.00271498
0.00262608
0.00362102
0.00359684
0.00255207
0.00254385
0.00248767
0.00359327
0.0035376
0.00353681
0.00181975
0.00179809
0.00139698
0.0012988
0.00115175
0.000687883
0.00111299
0.00104303
0.00135826
0.00133591
0.00112204
0.000717781
0.000723596
0.00133509
0.00262202
0.00509787
0.00933398
0.0160014
0.0257351
0.0269744
0.0321858
0.0323184
0.0207964
0.0206185
0.0167764
0.0160341
0.025774
0.0260817
0.0259503
0.0194916
0.0204772
0.0204773
0.0149028
0.0159615
0.0118083
0.0122403
0.0122403
0.00874138
0.00926847
0.00653551
0.00690968
0.00677132
0.008945
0.00651263
0.0097928
0.0124113
0.0125671
0.00712096
0.00699701
0.00535535
0.00514504
0.00503354
0.00348045
0.00363124
0.00356932
0.00480875
0.00345717
0.00275379
0.00369755
0.00379327
0.0019429
0.00186651
0.00139108
0.00111642
0.00104335
0.0010963
0.00079975
0.000580696
0.000689303
0.000646663
0.000692709
0.000580214
0.000800255
0.000746089
0.000946652
0.00113574
0.00200338
0.00268786
0.00250139
0.00287765
0.00280498
0.00249235
0.00253939
0.00178041
0.00537744
0.0048099
0.00495513
0.00351175
0.00514982
0.00413698
0.0051498
0.00929678
0.0157494
0.0191467
0.0294413
0.0246313
0.0415005
0.0297414
0.0320514
0.0237855
0.0258206
0.0194152
0.0204086
0.0148899
0.0159371
0.0160106
0.011506
0.0120845
0.0123587
0.0115316
0.0156037
0.0160548
0.0149028
0.0159614
0.0160343
0.0208708
0.0323664
0.0473064
0.0388918
0.0388928
0.0540347
0.0506003
0.0556328
0.0549907
0.0534682
0.0518672
0.0388928
0.0421439
0.0291357
0.0310156
0.026191
0.0250063
0.0203197
0.0157494
0.0127576
0.0164894
0.020188
0.0123092
0.00703333
0.00377951
0.00195916
0.00123723
0.00124229
0.0011905
0.00183911
0.0035783
0.00666594
0.0116703
0.0096751
0.0168152
0.0116524
0.0122621
0.00874554
0.0122477
0.0117547
0.012201
0.00873243
0.00917604
0.00922773
0.0123708
0.0093336
0.00933757
0.00960911
0.0123191
0.0202432
0.0312159
0.0255993
0.0161681
0.00957503
0.00533944
0.00703263
0.00377769
0.00284529
0.00152073
0.00194878
0.00109436
0.00104311
0.0013582
0.00185039
0.00178041
0.00181129
0.00129877
0.00114934
0.000723588
0.00119907
0.00181973
0.00353679
0.00659029
0.0115439
0.0189459
0.0261909
0.0164894
0.014903
0.0159499
0.015901
0.0205134
0.0204924
0.0215963
0.0192365
0.0273058
0.0159515
0.0338794
0.0262283
0.039353
0.0498791
0.0549071
0.0611003
0.0480263
0.0630685
0.0568149
0.0878741
0.0707915
0.0682624
0.0595866
0.0618369
0.0902642
0.0634928
0.0617335
0.0636366
0.0902127
0.0619328
0.0687133
0.0682745
0.0538704
0.0468594
0.0477327
0.0319625
0.0324159
0.0206144
0.0208454
0.0163956
0.0159885
0.0256757
0.0259557
0.0321794
0.038718
0.0395369
0.0470229
0.0321213
0.0206975
0.0125015
0.01247
0.0125908
0.00705375
0.0066064
0.00721694
0.00524811
0.00351169
0.00362098
0.0024923
0.00253937
0.0026937
0.00148292
0.00379116
0.00293008
0.00271489
0.00527201
0.00712122
0.00510402
0.00495501
0.00373196
0.00377178
0.00189511
0.00190169
0.00111303
0.000687874
0.00119158
0.00124745
0.000890254
0.000786745
0.00114925
0.000776925
0.000893848
0.00134601
0.00115176
0.0013359
0.00179315
0.00262596
0.0026219
0.00509755
0.00705941
0.00372977
0.00189834
0.00112207
0.00133502
0.00189024
0.00371673
0.00703089
0.0124504
0.0206336
0.0320999
0.0471863
0.0540547
0.0574578
0.0474046
0.0323175
0.0257742
0.0320741
0.032074
0.0301292
0.0394448
0.0396143
0.035433
0.0400493
0.0400493
0.0534682
0.0506499
0.0269592
0.0238012
0.0269592
0.0238011
0.0260817
0.0259503
0.0169572
0.0169573
0.00999065
0.00999063
0.00972369
0.00537744
0.00280496
0.00269445
0.00139698
0.00119107
0.000714533
0.00143047
0.00287764
0.00552064
0.00552065
0.00480973
0.00686128
0.00670553
0.00686147
0.00480973
0.00514503
0.00716724
0.00936899
0.00920751
0.00920733
0.0092686
0.00874138
0.00936911
0.0126269
0.0125669
0.0207969
0.0167761
0.0269735
0.0257344
0.0388572
0.0407159
0.0476066
0.0321852
0.0160007
0.0207425
0.0206197
0.0124118
0.00979238
0.00712078
0.00379313
0.00383837
0.00268777
0.00275369
0.00535526
0.00699765
0.00369742
0.00139109
0.00186646
0.00143101
0.00121367
0.00143113
0.00132293
0.00143046
0.00129435
0.00119392
0.000638153
0.000880604
0.000785482
0.000728169
0.000799833
0.000880608
0.00086261
0.000785469
0.000728109
0.000837396
0.000791085
0.000806775
0.000791176
0.000862619
0.000744586
0.000807252
0.000746132
0.000911834
0.00100371
0.000947968
0.000930071
0.000908391
0.00105484
0.000905954
0.00111646
0.00499221
0.00118949
0.039445
0.0717895
0.000859765
0.000834377
0.000909519
0.000943233
0.000727657
0.000728793
0.00549647
0.00970189
0.0128989
0.0485224
0.00152074
0.0902154
0.0722771
0.0620714
0.0752028
0.0858636
0.0784723
0.0791521
0.0855303
0.0774433
0.08553
0.0767565
0.0858633
0.0752029
0.0620717
0.0770001
0.0912082
0.108648