/*--------------------------------*- C++ -*----------------------------------*\
| =========                 |                                                 |
| \\      /  F ield         | OpenFOAM: The Open Source CFD Toolbox           |
|  \\    /   O peration     | Version:  2306                                  |
|   \\  /    A nd           | Website:  www.openfoam.com                      |
|    \\/     M anipulation  |                                                 |
\*---------------------------------------------------------------------------*/
FoamFile
{
    version     2.0;
    format      ascii;
    arch        "LSB;label=32;scalar=64";
    class       volVectorField;
    location    "1.8";
    object      flux;
}
// * * * * * * * * * * * * * * * * * * * * * * * * * * * * * * * * * * * * * //

dimensions      [0 1 -1 1 0 0 0];

internalField   nonuniform List<vector> 
5322
(
(-2.11049e-06 5.37223e-06 -7.14201e-06)
(1.23926e-07 6.57072e-07 -6.46298e-06)
(1.30068e-07 1.8251e-07 -5.34252e-06)
(-1.50371e-09 8.59928e-08 -5.77389e-06)
(-9.01935e-09 1.56723e-07 -4.28115e-06)
(-7.58383e-09 1.68499e-07 -3.03918e-06)
(-5.16412e-09 1.41992e-07 -2.06256e-06)
(-3.45311e-09 1.08103e-07 -1.34062e-06)
(-2.40497e-09 7.85373e-08 -8.41913e-07)
(-1.43608e-09 5.23413e-08 -5.27863e-07)
(-6.41794e-10 1.73559e-08 -3.5499e-07)
(3.5661e-09 -6.01204e-08 -2.99266e-07)
(4.93328e-09 -5.87125e-08 -2.08489e-07)
(-6.67282e-08 -5.4139e-08 -2.97285e-07)
(-6.33873e-10 -4.94691e-08 -3.32271e-07)
(1.28414e-07 1.14249e-07 -2.86338e-07)
(-9.97468e-08 1.49971e-07 -3.34351e-07)
(1.97705e-09 -1.94054e-09 -2.69858e-07)
(-8.3986e-08 1.20776e-07 -4.17503e-07)
(8.31934e-08 -1.84523e-07 -5.08018e-07)
(-1.10484e-07 2.11204e-07 -6.6228e-07)
(1.54674e-07 -2.88804e-07 -8.24114e-07)
(-1.63145e-07 3.4326e-07 -1.07856e-06)
(2.6028e-07 -4.68179e-07 -1.34527e-06)
(-2.70999e-07 5.61461e-07 -1.72758e-06)
(3.95687e-07 -7.15973e-07 -2.09326e-06)
(-3.99039e-07 8.42059e-07 -2.62646e-06)
(6.03056e-07 -1.08708e-06 -3.14815e-06)
(-6.07637e-07 1.25746e-06 -3.84929e-06)
(8.4451e-07 -1.52671e-06 -4.47435e-06)
(-8.02723e-07 1.74352e-06 -5.33421e-06)
(1.21907e-06 -2.08411e-06 -6.11237e-06)
(-8.98915e-07 2.40096e-06 -7.05551e-06)
(1.77948e-06 -2.38668e-06 -7.74142e-06)
(1.66415e-07 2.46439e-06 -8.26175e-06)
(2.66954e-06 -1.41945e-06 -7.32387e-06)
(1.89411e-06 2.85957e-06 -8.69023e-06)
(-7.50364e-07 3.47337e-06 -8.54844e-06)
(2.07501e-06 1.75889e-06 -8.80728e-06)
(-1.23992e-07 1.98266e-06 -6.48285e-06)
(-1.96988e-06 2.56706e-06 -8.15937e-06)
(1.97435e-06 2.15776e-06 -8.42305e-06)
(-1.19512e-07 2.31853e-06 -6.35478e-06)
(-2.09899e-06 2.39966e-06 -8.42552e-06)
(2.08895e-06 2.28894e-06 -8.34042e-06)
(-7.11439e-08 2.36386e-06 -6.4685e-06)
(-2.23042e-06 2.32559e-06 -8.54954e-06)
(1.96695e-06 2.48601e-06 -8.08376e-06)
(-4.5746e-08 2.40647e-06 -6.40398e-06)
(-2.34204e-06 2.20987e-06 -8.42381e-06)
(-2.32747e-06 2.79163e-06 -9.64937e-06)
(-3.33836e-06 1.23596e-06 -6.49451e-06)
(-1.11239e-06 1.45639e-06 -9.10719e-06)
(2.09785e-06 -4.45936e-06 -7.9988e-06)
(-1.38697e-07 -2.13168e-07 -7.08413e-06)
(-3.42182e-06 -2.55838e-06 -7.56558e-06)
(-1.06001e-07 1.4176e-06 -9.42958e-06)
(3.25027e-06 -3.32945e-06 -7.41659e-06)
(-3.91575e-08 -1.54315e-07 -7.0891e-06)
(-3.24948e-06 -2.89248e-06 -7.54272e-06)
(-1.39953e-08 1.43848e-06 -9.52584e-06)
(3.16556e-06 -3.27135e-06 -7.51593e-06)
(-1.63344e-08 -1.37079e-07 -7.08682e-06)
(-3.19149e-06 -2.87145e-06 -7.35869e-06)
(3.77423e-09 1.44507e-06 -9.52738e-06)
(3.12413e-06 -3.39434e-06 -7.78758e-06)
(4.72971e-08 -1.90034e-07 -7.06459e-06)
(-3.16104e-06 -2.78724e-06 -7.0015e-06)
(1.69848e-07 1.46702e-06 -9.35361e-06)
(2.60968e-06 -3.79378e-06 -8.3216e-06)
(1.56525e-07 1.11382e-07 -5.88815e-06)
(-2.46344e-06 2.90992e-06 -8.63481e-06)
(2.79865e-06 1.61377e-06 -8.21674e-06)
(-2.88272e-06 2.26405e-06 -8.09359e-06)
(2.77381e-06 1.68251e-06 -8.16924e-06)
(-2.82604e-06 2.13945e-06 -8.13008e-06)
(2.82818e-06 1.77919e-06 -8.12433e-06)
(-2.83046e-06 2.13364e-06 -8.10483e-06)
(3.22505e-06 1.81615e-06 -8.23842e-06)
(-2.36882e-06 2.55183e-06 -7.87381e-06)
(1.10908e-06 1.83085e-07 -7.67942e-06)
(-1.74331e-06 1.01111e-06 -6.25448e-06)
(-1.18213e-06 1.47398e-06 -6.48757e-06)
(1.8239e-06 2.33177e-06 -8.27307e-06)
(1.48111e-07 -1.46303e-07 -5.30048e-06)
(-7.81875e-07 -8.26239e-07 -7.31169e-06)
(1.34067e-06 3.12968e-07 -1.07808e-05)
(-3.71564e-06 5.91719e-07 -7.06719e-06)
(-1.15258e-06 1.28496e-06 -7.06367e-06)
(4.05068e-06 1.89763e-07 -6.09603e-06)
(-1.84751e-07 3.45982e-07 -7.50692e-06)
(3.70852e-08 6.11175e-08 -5.19462e-06)
(6.39295e-08 8.27547e-09 -5.47066e-06)
(4.36902e-07 7.78607e-09 -5.46368e-06)
(2.33772e-06 2.80825e-06 -7.10671e-06)
(-4.54771e-07 -1.6333e-06 -6.91656e-06)
(4.42223e-08 5.35786e-08 -6.50821e-06)
(-1.55388e-07 1.65116e-06 -7.00714e-06)
(1.37923e-06 5.15081e-08 -1.09591e-05)
(-3.28015e-06 -9.15958e-08 -6.85725e-06)
(-3.27233e-06 3.09565e-07 -6.94261e-06)
(6.66538e-06 5.44358e-08 -6.17999e-06)
(-1.57838e-07 1.76756e-06 -7.06348e-06)
(1.8095e-06 -2.73056e-06 -7.0315e-06)
(2.95533e-06 2.45094e-06 -7.68113e-06)
(7.68837e-08 6.08908e-08 -6.33374e-06)
(3.37267e-08 -5.60435e-08 -6.64874e-06)
(2.44885e-08 -6.71547e-09 -5.83155e-06)
(1.16726e-08 1.73553e-09 -4.33325e-06)
(3.59361e-09 5.38009e-09 -3.08411e-06)
(1.83661e-10 4.87534e-09 -2.0929e-06)
(-9.47499e-10 3.6214e-09 -1.3566e-06)
(-1.2996e-09 2.65643e-09 -8.46036e-07)
(-1.3408e-09 1.91472e-09 -5.24973e-07)
(6.25248e-10 -2.66058e-10 -4.00433e-07)
(-6.60042e-10 7.23295e-10 -3.40449e-07)
(-4.11481e-08 4.22338e-08 -2.46509e-07)
(-3.93415e-08 -1.56319e-08 -2.62046e-07)
(5.43497e-09 -6.93494e-09 -3.82085e-07)
(2.41592e-08 -3.05752e-08 -2.85685e-07)
(7.48694e-10 3.84628e-08 -2.45655e-07)
(3.51552e-08 -1.85303e-08 -2.8843e-07)
(-4.23061e-08 -3.77678e-08 -2.84349e-07)
(-3.35785e-09 -5.29799e-08 -3.94497e-07)
(-1.10749e-08 -5.92428e-08 -2.96952e-07)
(6.59158e-08 -2.25489e-09 -3.86838e-07)
(5.33672e-08 4.44947e-08 -2.81736e-07)
(1.38035e-08 -3.29505e-08 -2.94238e-07)
(4.20725e-08 3.27175e-09 -3.80852e-07)
(2.61959e-08 3.64169e-08 -2.81487e-07)
(1.9511e-08 -3.61066e-08 -2.88813e-07)
(4.52337e-08 1.58099e-09 -3.84727e-07)
(2.16625e-08 3.77806e-08 -2.85991e-07)
(2.33565e-08 -3.87894e-08 -2.83651e-07)
(4.6005e-08 -1.309e-09 -3.86299e-07)
(1.86859e-08 3.51137e-08 -2.89479e-07)
(3.76436e-08 -4.23192e-08 -2.84892e-07)
(5.23583e-08 -3.51809e-09 -3.96242e-07)
(5.87851e-08 -1.10642e-08 -2.98001e-07)
(2.42623e-09 6.51905e-08 -3.88003e-07)
(-4.40624e-08 5.317e-08 -2.83112e-07)
(1.76338e-09 -3.74931e-08 -2.46849e-07)
(3.06239e-08 2.43909e-08 -2.86266e-07)
(-3.81294e-08 1.88823e-08 -2.58755e-07)
(-4.2015e-08 -4.12299e-08 -2.47199e-07)
(7.15626e-09 5.69191e-09 -3.82701e-07)
(1.58144e-08 -3.9252e-08 -2.62486e-07)
(7.98413e-09 3.04998e-08 -2.61218e-07)
(-3.2792e-08 3.20791e-08 -2.44603e-07)
(-3.62292e-08 -3.558e-08 -2.46639e-07)
(8.18631e-09 -4.87136e-10 -3.85035e-07)
(9.17839e-09 -3.22472e-08 -2.61644e-07)
(1.15426e-08 3.26499e-08 -2.60718e-07)
(-3.5866e-08 3.6253e-08 -2.45257e-07)
(-3.35626e-08 -3.1797e-08 -2.46391e-07)
(8.28757e-09 -4.80484e-11 -3.84637e-07)
(5.39711e-09 -2.96416e-08 -2.61577e-07)
(1.92375e-08 3.86934e-08 -2.58345e-07)
(-3.75034e-08 -1.57962e-09 -2.46307e-07)
(4.95108e-08 -6.94574e-10 -3.32714e-07)
(-1.13799e-07 1.28594e-07 -2.86308e-07)
(-1.4973e-07 -9.96252e-08 -3.35299e-07)
(1.57693e-07 1.30884e-07 -4.63305e-07)
(-2.16764e-07 -1.71344e-07 -5.50189e-07)
(-1.15498e-08 8.03189e-09 -3.10875e-07)
(-1.21379e-07 -8.32712e-08 -4.18595e-07)
(2.6884e-09 1.89804e-09 -2.70389e-07)
(1.07083e-07 6.56697e-09 -3.40187e-07)
(-2.4572e-08 -1.08936e-08 -2.16096e-07)
(1.10622e-07 3.35248e-08 -2.87611e-07)
(5.43621e-08 -6.67567e-08 -2.98075e-07)
(8.17124e-08 6.68141e-08 -2.77998e-07)
(-1.36719e-07 -1.22882e-07 -3.15913e-07)
(5.01757e-08 4.9291e-10 -3.42437e-07)
(-1.18151e-07 1.26035e-07 -3.02557e-07)
(9.39719e-08 -1.47641e-07 -4.40234e-07)
(1.22073e-07 1.53765e-07 -4.36379e-07)
(-1.80063e-07 -1.92592e-07 -5.16007e-07)
(1.43654e-08 1.09386e-09 -3.85696e-07)
(-1.53086e-07 1.9041e-07 -5.15817e-07)
(1.72237e-07 -2.46208e-07 -6.69273e-07)
(2.14226e-07 2.55597e-07 -6.69608e-07)
(-2.8754e-07 -3.23229e-07 -8.40586e-07)
(1.51612e-08 1.65753e-09 -6.21298e-07)
(-2.41153e-07 3.17295e-07 -8.42299e-07)
(2.94019e-07 -4.06936e-07 -1.08353e-06)
(3.5956e-07 4.2124e-07 -1.08401e-06)
(-4.64599e-07 -5.28629e-07 -1.36078e-06)
(2.47463e-08 2.30248e-09 -1.01314e-06)
(-3.88125e-07 5.18817e-07 -1.36305e-06)
(4.76726e-07 -6.52332e-07 -1.72429e-06)
(5.79847e-07 6.74619e-07 -1.72513e-06)
(-7.31306e-07 -8.30325e-07 -2.12662e-06)
(3.73245e-08 3.52887e-09 -1.60219e-06)
(-6.11238e-07 8.15255e-07 -2.1308e-06)
(7.30342e-07 -1.00414e-06 -2.63791e-06)
(8.91297e-07 1.03817e-06 -2.64073e-06)
(-1.11204e-06 -1.246e-06 -3.17887e-06)
(5.31587e-08 5.68306e-09 -2.42713e-06)
(-9.31351e-07 1.22266e-06 -3.18709e-06)
(1.05613e-06 -1.47977e-06 -3.86083e-06)
(1.30199e-06 1.52934e-06 -3.86837e-06)
(-1.62664e-06 -1.77938e-06 -4.53649e-06)
(7.41348e-08 8.42531e-09 -3.51085e-06)
(-1.36009e-06 1.74072e-06 -4.55074e-06)
(1.43847e-06 -2.07637e-06 -5.38835e-06)
(1.80378e-06 2.14275e-06 -5.40472e-06)
(-2.25493e-06 -2.37882e-06 -6.17801e-06)
(1.04694e-07 1.20742e-08 -4.82625e-06)
(-1.86048e-06 2.31262e-06 -6.20271e-06)
(1.80658e-06 -2.73869e-06 -7.05822e-06)
(2.24997e-06 2.76141e-06 -7.07525e-06)
(-4.01506e-07 -1.63845e-06 -6.99514e-06)
(1.31973e-06 -1.16628e-08 -1.09589e-05)
(-3.24729e-06 -1.85494e-07 -6.85494e-06)
(-3.31192e-06 9.2584e-08 -6.83402e-06)
(6.69465e-06 -5.65401e-08 -6.19922e-06)
(-2.8942e-07 -2.68327e-09 -8.46347e-06)
(-3.08863e-07 1.51274e-08 -8.44419e-06)
(7.48251e-08 2.44027e-08 -5.47108e-06)
(4.7481e-07 1.96225e-09 -5.47088e-06)
(2.32767e-06 2.81137e-06 -7.09315e-06)
(-3.34492e-07 -1.63168e-06 -6.97399e-06)
(6.78794e-08 7.72042e-09 -6.45137e-06)
(-4.01227e-07 1.96133e-06 -7.09217e-06)
(1.26605e-06 -3.03415e-07 -1.09503e-05)
(-3.30197e-06 -1.32824e-07 -6.89998e-06)
(-3.25699e-06 1.15182e-07 -6.82624e-06)
(6.65378e-06 -1.11623e-07 -6.21462e-06)
(-2.07929e-07 1.64071e-06 -6.96606e-06)
(1.80844e-06 -2.76915e-06 -7.06529e-06)
(4.13641e-08 1.73491e-08 -6.50334e-06)
(5.37634e-08 1.22054e-08 -6.49863e-06)
(2.91006e-08 3.45474e-08 -5.82074e-06)
(1.53298e-08 1.83953e-08 -4.33526e-06)
(5.72588e-09 7.34536e-09 -3.08869e-06)
(1.18216e-09 2.01372e-09 -2.09626e-06)
(-5.36725e-10 -1.2184e-10 -1.35856e-06)
(-1.15482e-09 -9.76889e-10 -8.47072e-07)
(-1.23026e-09 -1.20898e-09 -5.25488e-07)
(6.09387e-10 6.43205e-10 -4.00801e-07)
(-6.41318e-10 -6.34237e-10 -3.40895e-07)
(3.20574e-08 -3.36569e-08 -2.46232e-07)
(-3.58868e-08 -3.61209e-08 -2.46036e-07)
(3.60083e-08 -3.62292e-08 -2.4587e-07)
(-3.19505e-08 -3.36328e-08 -2.45975e-07)
(1.92571e-10 8.50626e-09 -3.8461e-07)
(3.18526e-08 1.05615e-08 -2.60659e-07)
(-2.95185e-08 5.91197e-09 -2.61564e-07)
(2.3669e-11 -4.37696e-08 -2.5347e-07)
(-3.50712e-08 2.03318e-08 -2.88965e-07)
(7.47024e-11 -4.39315e-08 -4.27374e-07)
(-3.16214e-08 1.05017e-08 -2.60694e-07)
(9.0648e-11 8.52472e-09 -3.84815e-07)
(2.96981e-08 6.01272e-09 -2.61797e-07)
(1.20079e-09 -4.3402e-08 -4.24663e-07)
(3.26297e-08 1.38193e-08 -2.94043e-07)
(-2.76776e-09 4.09851e-08 -3.80391e-07)
(-3.55442e-08 2.54778e-08 -2.81714e-07)
(4.06721e-11 -4.37782e-08 -2.53665e-07)
(3.51098e-08 2.04057e-08 -2.89064e-07)
(2.91192e-12 4.45242e-08 -3.80496e-07)
(4.7385e-11 6.23811e-08 -2.06211e-07)
(6.51136e-08 6.7839e-08 -2.87043e-07)
(-1.22645e-07 -1.24487e-07 -3.02749e-07)
(1.22791e-07 -1.24334e-07 -3.02424e-07)
(-1.20914e-07 -1.33414e-07 -3.16118e-07)
(1.51764e-07 1.1596e-07 -4.36439e-07)
(-1.90153e-07 -1.72969e-07 -5.1627e-07)
(2.52287e-07 2.03293e-07 -6.69918e-07)
(-3.18905e-07 -2.74296e-07 -8.4087e-07)
(4.15589e-07 3.41093e-07 -1.08475e-06)
(-5.2143e-07 -4.42067e-07 -1.36099e-06)
(6.65476e-07 5.50278e-07 -1.72646e-06)
(-8.1902e-07 -6.95096e-07 -2.12688e-06)
(1.02418e-06 8.46156e-07 -2.64306e-06)
(-1.22883e-06 -1.05684e-06 -3.17904e-06)
(1.50919e-06 1.2371e-06 -3.87278e-06)
(-1.75468e-06 -1.5484e-06 -4.53533e-06)
(2.1166e-06 1.71965e-06 -5.41349e-06)
(-2.34742e-06 -2.15726e-06 -6.17146e-06)
(2.7785e-06 2.24839e-06 -7.1251e-06)
(-1.62134e-06 -4.02435e-07 -6.9115e-06)
(4.10929e-08 1.40265e-06 -1.09644e-05)
(1.64367e-06 -2.34588e-07 -7.03821e-06)
(4.79111e-08 5.1108e-08 -6.50729e-06)
(-2.70517e-06 1.94699e-06 -7.04298e-06)
(2.2882e-06 -1.9852e-06 -6.22017e-06)
(1.37662e-08 1.10494e-07 -4.83006e-06)
(-2.05161e-06 1.55892e-06 -5.38851e-06)
(1.71963e-06 -1.4635e-06 -4.5585e-06)
(8.34575e-09 7.68481e-08 -3.51367e-06)
(-1.46233e-06 1.14592e-06 -3.86416e-06)
(1.20699e-06 -1.00559e-06 -3.19011e-06)
(5.05901e-09 5.44369e-08 -2.42883e-06)
(-9.92398e-07 7.91562e-07 -2.64076e-06)
(8.04536e-07 -6.60644e-07 -2.13191e-06)
(2.96475e-09 3.78993e-08 -1.60311e-06)
(-6.44733e-07 5.16172e-07 -1.7262e-06)
(5.11943e-07 -4.19222e-07 -1.3634e-06)
(1.80736e-09 2.49772e-08 -1.01363e-06)
(-4.02236e-07 3.18524e-07 -1.08497e-06)
(3.13139e-07 -2.59639e-07 -8.42179e-07)
(1.2535e-09 1.52565e-08 -6.21544e-07)
(-2.43435e-07 1.86798e-07 -6.7047e-07)
(1.87816e-07 -1.63585e-07 -5.1545e-07)
(8.69513e-10 1.43496e-08 -3.85732e-07)
(-1.45751e-07 1.01802e-07 -4.40942e-07)
(2.39293e-10 -9.95959e-09 -3.30141e-07)
(1.46197e-07 1.01812e-07 -4.40722e-07)
(-1.8717e-07 -1.63544e-07 -5.15782e-07)
(-5.87334e-10 1.4363e-08 -3.85854e-07)
(-1.51133e-07 1.16451e-07 -4.36818e-07)
(1.21095e-07 -1.3284e-07 -3.16288e-07)
(-2.73985e-10 5.02441e-08 -3.42751e-07)
(-6.55515e-08 7.90024e-08 -2.77792e-07)
(-4.26482e-09 5.70113e-08 -2.08493e-07)
(6.64821e-08 5.48946e-08 -2.99321e-07)
(-1.27081e-07 -1.1673e-07 -2.87121e-07)
(1.45545e-07 9.22602e-08 -4.41442e-07)
(-1.87377e-07 -1.55574e-07 -5.15522e-07)
(2.40085e-07 1.78911e-07 -6.69098e-07)
(-3.08353e-07 -2.4607e-07 -8.43462e-07)
(3.97526e-07 3.08439e-07 -1.086e-06)
(-5.01263e-07 -3.98145e-07 -1.36438e-06)
(6.38859e-07 5.01388e-07 -1.73215e-06)
(-7.85446e-07 -6.29426e-07 -2.13236e-06)
(9.87467e-07 7.71192e-07 -2.6552e-06)
(-1.17607e-06 -9.64611e-07 -3.18812e-06)
(1.46573e-06 1.1265e-06 -3.90056e-06)
(-1.6708e-06 -1.41715e-06 -4.53638e-06)
(2.07544e-06 1.56045e-06 -5.47591e-06)
(-2.20347e-06 -1.91571e-06 -6.12332e-06)
(2.73489e-06 1.97868e-06 -7.16854e-06)
(-1.60238e-06 -2.22185e-07 -6.95869e-06)
(-3.96407e-07 1.0503e-06 -1.08447e-05)
(6.72717e-07 -8.2234e-07 -7.40056e-06)
(7.46621e-08 9.31939e-08 -6.31231e-06)
(-2.54699e-06 2.73703e-06 -7.69859e-06)
(2.00788e-06 -2.7957e-06 -6.73589e-06)
(1.59495e-08 1.40441e-07 -4.69713e-06)
(-1.87509e-06 2.25892e-06 -5.85846e-06)
(1.55233e-06 -1.99459e-06 -4.90064e-06)
(-7.08355e-09 8.92262e-08 -3.41258e-06)
(-1.29463e-06 1.63673e-06 -4.17656e-06)
(1.08004e-06 -1.33795e-06 -3.40975e-06)
(-1.03705e-08 5.81225e-08 -2.35322e-06)
(-8.7158e-07 1.11528e-06 -2.84322e-06)
(7.14352e-07 -8.72738e-07 -2.27209e-06)
(-8.55896e-09 3.91318e-08 -1.55124e-06)
(-5.66502e-07 7.27656e-07 -1.85596e-06)
(4.54712e-07 -5.52248e-07 -1.45111e-06)
(-7.34966e-09 2.53534e-08 -9.80121e-07)
(-3.53627e-07 4.55332e-07 -1.16365e-06)
(2.80776e-07 -3.39956e-07 -8.94809e-07)
(-6.46768e-09 1.57875e-08 -6.00672e-07)
(-2.13927e-07 2.74723e-07 -7.16026e-07)
(1.71476e-07 -2.12672e-07 -5.50377e-07)
(-6.45494e-09 1.51772e-08 -3.72136e-07)
(-1.28071e-07 1.56248e-07 -4.63311e-07)
(9.90845e-08 -1.47825e-07 -3.35635e-07)
(9.4768e-10 4.96757e-08 -3.33258e-07)
(-3.29155e-08 1.10532e-07 -2.88116e-07)
(5.45747e-08 9.65032e-08 -2.95993e-07)
(9.05307e-08 -4.81921e-08 -2.65932e-07)
(-3.68188e-09 1.07503e-07 -3.40978e-07)
(9.46854e-09 -2.44634e-08 -2.15823e-07)
(-1.68006e-08 1.45105e-08 -2.46832e-07)
(5.11671e-08 1.215e-07 -3.00621e-07)
(-1.58483e-07 -1.06615e-07 -2.80529e-07)
(1.43037e-07 1.16905e-07 -4.48904e-07)
(-2.18017e-07 -1.36649e-07 -5.33671e-07)
(-1.46878e-07 2.19398e-07 -5.16357e-07)
(-1.83246e-07 -1.94251e-07 -5.15508e-07)
(1.50915e-08 -1.90611e-09 -3.83371e-07)
(9.9416e-08 -1.76713e-07 -4.35558e-07)
(1.10858e-07 1.51258e-07 -4.43419e-07)
(-1.33859e-07 -1.30537e-07 -2.91868e-07)
(4.81343e-08 3.05976e-09 -3.42623e-07)
(-1.1845e-07 1.35739e-07 -3.22082e-07)
(-1.13691e-08 5.45229e-09 -3.30535e-07)
(3.86385e-09 6.14973e-10 -3.22517e-07)
(-4.40732e-08 -3.54697e-08 -4.09139e-07)
(3.49511e-09 3.24837e-09 -3.13933e-07)
(-1.8841e-09 -2.79659e-09 -2.98438e-07)
(-4.52776e-08 1.8796e-09 -4.2359e-07)
(-1.25178e-10 -1.02707e-09 -3.51207e-07)
(-1.09503e-08 -4.90525e-10 -3.30531e-07)
(-1.21847e-07 1.25451e-07 -3.13104e-07)
(-1.32221e-07 -1.25662e-07 -3.04568e-07)
(1.13875e-07 1.49712e-07 -4.41068e-07)
(-1.78112e-07 -1.90464e-07 -5.15679e-07)
(-7.59804e-09 3.42014e-10 -4.88443e-07)
(2.07306e-07 2.49639e-07 -6.70926e-07)
(-2.85526e-07 -3.17687e-07 -8.42308e-07)
(3.53271e-07 4.12932e-07 -1.08547e-06)
(-4.62126e-07 -5.19157e-07 -1.36337e-06)
(-2.62534e-08 1.72487e-09 -1.26269e-06)
(5.73382e-07 6.62848e-07 -1.72766e-06)
(-7.28472e-07 -8.14894e-07 -2.13046e-06)
(8.82794e-07 1.02208e-06 -2.64509e-06)
(-1.10875e-06 -1.22069e-06 -3.18397e-06)
(-7.61807e-09 3.92878e-09 -2.88606e-06)
(1.28781e-06 1.50771e-06 -3.87486e-06)
(-1.61554e-06 -1.73682e-06 -4.54059e-06)
(1.77257e-06 2.11054e-06 -5.40907e-06)
(-2.20732e-06 -2.31218e-06 -6.18365e-06)
(4.57381e-07 -4.03824e-09 -5.47206e-06)
(7.38398e-08 4.14387e-09 -5.47189e-06)
(1.54983e-08 6.62619e-09 -4.07759e-06)
(2.01151e-08 1.88839e-08 -4.08253e-06)
(-1.61765e-08 9.44113e-09 -2.90475e-06)
(-4.41718e-09 9.86134e-09 -2.89535e-06)
(1.33606e-06 1.52401e-06 -3.89602e-06)
(-1.65858e-06 -1.73651e-06 -4.54625e-06)
(8.51555e-08 7.8454e-09 -3.51587e-06)
(-1.34544e-06 2.06426e-06 -4.59548e-06)
(1.33758e-06 -2.41045e-06 -5.38188e-06)
(1.85143e-06 2.15333e-06 -5.45251e-06)
(-2.21587e-06 -2.29061e-06 -6.15505e-06)
(1.33677e-07 2.12761e-08 -4.82713e-06)
(-1.94873e-06 2.79723e-06 -6.29793e-06)
(1.60019e-06 -3.06995e-06 -6.98591e-06)
(3.21479e-06 1.97376e-06 -7.89158e-06)
(-2.6247e-07 -1.50247e-06 -6.79372e-06)
(1.65185e-07 -2.80681e-06 -1.10224e-05)
(-3.56115e-06 -2.17772e-07 -7.0678e-06)
(-3.31073e-06 1.69605e-09 -6.69985e-06)
(6.36619e-06 -1.00688e-06 -6.42321e-06)
(-4.33547e-07 -2.71849e-07 -8.2674e-06)
(6.21248e-08 3.9937e-08 -5.19555e-06)
(1.13093e-07 1.44891e-06 -4.72724e-06)
(-1.50246e-06 1.77146e-06 -6.4971e-06)
(2.92141e-07 1.13774e-07 -3.99481e-06)
(8.58216e-07 -2.34107e-06 -5.40757e-06)
(-8.92348e-07 1.55023e-06 -4.64289e-06)
(5.75702e-08 -4.9288e-09 -2.84847e-06)
(6.55825e-07 -1.38481e-06 -3.88463e-06)
(-5.835e-07 1.08705e-06 -3.18887e-06)
(1.33095e-09 -2.00659e-08 -1.95221e-06)
(4.29212e-07 -8.78979e-07 -2.65932e-06)
(-3.97274e-07 7.29695e-07 -2.12074e-06)
(-5.72132e-09 -1.3759e-08 -1.28599e-06)
(2.60533e-07 -5.48997e-07 -1.72911e-06)
(-2.50036e-07 4.6405e-07 -1.34171e-06)
(-9.55451e-09 -1.27043e-08 -8.11333e-07)
(1.69042e-07 -3.41656e-07 -1.08467e-06)
(-1.50554e-07 2.95991e-07 -8.23594e-07)
(-1.12307e-08 -1.05933e-08 -4.97023e-07)
(1.0902e-07 -1.98214e-07 -6.60157e-07)
(-7.6665e-08 1.86702e-07 -5.0412e-07)
(-1.11521e-08 -1.35437e-08 -3.09861e-07)
(8.70083e-08 -1.14586e-07 -4.18986e-07)
(2.98712e-08 2.74868e-08 -2.91183e-07)
(2.08611e-08 4.60931e-08 -2.7955e-07)
(-3.40239e-09 -7.44361e-08 -3.8481e-07)
(-1.67253e-09 -4.98405e-09 -3.66839e-07)
(4.74102e-08 1.34809e-07 -4.53395e-07)
(-1.98246e-08 -1.58884e-07 -6.05057e-07)
(2.57231e-07 1.79186e-07 -6.78512e-07)
(-3.47354e-07 -2.2512e-07 -8.67865e-07)
(4.38661e-07 2.91721e-07 -1.1083e-06)
(-5.6301e-07 -3.67043e-07 -1.40292e-06)
(-3.63671e-07 5.94888e-07 -1.36122e-06)
(-4.74761e-07 -5.22661e-07 -1.36653e-06)
(2.52251e-08 -2.6215e-09 -1.01126e-06)
(2.88493e-07 -4.74023e-07 -1.08776e-06)
(3.62904e-07 4.12897e-07 -1.08697e-06)
(-2.92954e-07 -3.2094e-07 -8.44367e-07)
(1.55388e-08 -2.63042e-09 -6.19702e-07)
(-2.25267e-07 3.63863e-07 -8.39215e-07)
(-1.19489e-08 1.74617e-09 -7.86472e-07)
(-5.96232e-09 -6.87453e-09 -7.53467e-07)
(-1.93652e-09 -3.79684e-09 -4.65418e-07)
(-5.40955e-09 -1.10837e-08 -4.0666e-07)
(-8.95126e-09 -2.85072e-08 -4.87862e-07)
(1.08235e-08 1.25845e-09 -4.57004e-07)
(6.73986e-09 8.46895e-09 -4.36506e-07)
(-1.96398e-09 1.46532e-09 -5.17286e-07)
(-4.74711e-08 8.56288e-09 -5.24993e-07)
(-1.49531e-08 9.67037e-09 -3.54222e-07)
(5.4726e-08 4.82832e-09 -3.00203e-07)
(7.79731e-08 -6.55929e-09 -2.16293e-07)
(6.65494e-08 1.04595e-07 -3.62634e-07)
(2.35535e-08 3.32753e-08 -2.04539e-07)
(1.1301e-07 5.93749e-09 -2.96074e-07)
(4.05166e-08 2.64747e-08 -3.45728e-07)
(3.88815e-08 -1.62237e-09 -4.11392e-07)
(3.43947e-08 -1.28008e-08 -6.49017e-07)
(-3.0726e-08 -9.02294e-09 -8.40586e-07)
(-7.64572e-08 1.01638e-08 -8.39343e-07)
(-1.1537e-07 1.53118e-08 -1.34278e-06)
(-5.78483e-08 -1.52174e-08 -1.35772e-06)
(4.10526e-08 -2.45122e-08 -1.05341e-06)
(-4.60947e-08 -2.71769e-07 -9.917e-07)
(6.70463e-09 -1.37392e-08 -9.74338e-07)
(8.95684e-08 3.27286e-07 -1.22952e-06)
(-7.98152e-08 -4.40368e-07 -1.57588e-06)
(7.11065e-07 4.65892e-07 -1.77687e-06)
(-8.87548e-07 -5.76019e-07 -2.19168e-06)
(1.09949e-06 7.22299e-07 -2.73045e-06)
(-1.36042e-06 -8.65281e-07 -3.2789e-06)
(-8.89721e-07 1.42103e-06 -3.19956e-06)
(-1.1421e-06 -1.22499e-06 -3.19248e-06)
(5.67148e-08 4.85024e-10 -2.4277e-06)
(7.01798e-07 -1.16384e-06 -2.65107e-06)
(9.1182e-07 1.02681e-06 -2.65439e-06)
(-7.49517e-07 -8.19084e-07 -2.13568e-06)
(3.86327e-08 -1.97392e-09 -1.6008e-06)
(-5.76358e-07 9.38159e-07 -2.13288e-06)
(-2.02034e-08 6.81957e-09 -1.95907e-06)
(-7.44657e-09 -9.76993e-09 -1.86793e-06)
(-8.36196e-09 -9.12425e-09 -1.20884e-06)
(-1.14266e-08 5.31422e-09 -1.065e-06)
(-2.82138e-08 -8.72404e-08 -1.26017e-06)
(-6.61812e-10 -4.23088e-08 -1.22921e-06)
(-7.55749e-09 -2.99411e-08 -1.17326e-06)
(-1.8565e-08 -5.51406e-08 -7.84853e-07)
(8.73471e-10 -2.1349e-08 -7.43401e-07)
(-1.92262e-09 -1.54271e-08 -7.11082e-07)
(6.30331e-08 2.05242e-07 -7.52425e-07)
(3.79737e-09 -8.13104e-09 -5.95345e-07)
(-8.5059e-09 -5.3377e-09 -6.61129e-07)
(-1.0518e-09 2.64709e-08 -6.6511e-07)
(2.01294e-09 -4.90383e-08 -5.30231e-07)
(8.74346e-10 -1.60396e-08 -3.57054e-07)
(-3.21911e-09 6.0815e-08 -3.0038e-07)
(6.87042e-09 1.13321e-07 -2.94388e-07)
(-7.9286e-08 2.0488e-07 -2.75703e-07)
(-4.8688e-09 1.1555e-08 -3.24535e-07)
(-2.25428e-09 -1.5873e-09 -2.69618e-07)
(-6.79213e-10 1.31818e-08 -4.19019e-07)
(-1.06968e-09 5.18768e-09 -4.17137e-07)
(1.90959e-07 -1.7213e-07 -5.16369e-07)
(9.68933e-10 -8.30797e-09 -4.86865e-07)
(-2.51259e-07 2.04551e-07 -6.70231e-07)
(2.44482e-07 1.86667e-07 -6.70373e-07)
(-3.11644e-07 -2.59197e-07 -8.42371e-07)
(-4.11244e-10 1.53065e-08 -6.21861e-07)
(3.20943e-07 -2.738e-07 -8.41482e-07)
(2.05575e-09 -1.52968e-08 -7.85716e-07)
(-4.13846e-07 3.42807e-07 -1.08509e-06)
(4.04627e-07 3.18617e-07 -1.08551e-06)
(-5.08924e-07 -4.18125e-07 -1.36305e-06)
(2.96239e-10 2.51239e-08 -1.0144e-06)
(5.25681e-07 -4.43109e-07 -1.36329e-06)
(3.50957e-09 -2.38447e-08 -1.2608e-06)
(-6.62383e-07 5.51329e-07 -1.72689e-06)
(6.49738e-07 5.17455e-07 -1.72864e-06)
(-7.98802e-07 -6.58868e-07 -2.12993e-06)
(1.63577e-09 3.823e-08 -1.6048e-06)
(8.27287e-07 -6.99791e-07 -2.13272e-06)
(5.85768e-09 -2.44703e-08 -1.95019e-06)
(-1.01917e-06 8.43706e-07 -2.64314e-06)
(1.00202e-06 7.96462e-07 -2.64755e-06)
(-1.19678e-06 -1.00413e-06 -3.18334e-06)
(4.22622e-09 5.52279e-08 -2.43203e-06)
(1.24387e-06 -1.06974e-06 -3.19217e-06)
(8.55457e-09 7.43052e-09 -2.88515e-06)
(-1.50166e-06 1.22002e-06 -3.86835e-06)
(1.47874e-06 1.1621e-06 -3.88135e-06)
(-1.70295e-06 -1.46876e-06 -4.53757e-06)
(9.18874e-09 7.85549e-08 -3.51833e-06)
(1.77656e-06 -1.57198e-06 -4.56331e-06)
(5.51638e-09 1.39606e-07 -4.07423e-06)
(-2.10357e-06 1.65067e-06 -5.38841e-06)
(2.07245e-06 1.60705e-06 -5.42551e-06)
(-2.26736e-06 -2.02261e-06 -6.17025e-06)
(1.50058e-08 1.13275e-07 -4.8314e-06)
(2.35747e-06 -2.15995e-06 -6.22238e-06)
(-1.79304e-08 5.48333e-07 -5.4586e-06)
(-2.7527e-06 2.06254e-06 -7.04302e-06)
(2.71415e-06 2.06228e-06 -7.10876e-06)
(-1.62961e-06 -2.98981e-07 -6.98775e-06)
(-3.72675e-09 5.24675e-08 -6.49594e-06)
(1.61604e-06 -3.63652e-07 -6.99127e-06)
(-1.13757e-07 6.66e-06 -6.24951e-06)
(-2.69441e-07 -3.26225e-06 -6.87367e-06)
(-2.12907e-07 -3.36983e-06 -6.62843e-06)
(-3.24325e-07 4.97527e-06 -5.984e-06)
(-3.24376e-06 1.31269e-06 -8.1863e-06)
(6.80589e-07 4.64631e-07 -5.38574e-06)
(4.48034e-07 -3.89029e-06 -6.9541e-06)
(-2.50479e-07 -9.11829e-07 -5.26099e-06)
(-5.03197e-07 -5.53663e-07 -5.03368e-06)
(-1.66013e-07 1.66964e-06 -6.09975e-06)
(-2.60454e-06 -1.75253e-06 -6.09368e-06)
(5.9611e-07 -3.35946e-08 -5.50448e-06)
(-1.0581e-06 7.80835e-08 -5.89726e-06)
(-1.4308e-06 -3.27995e-07 -5.95159e-06)
(-2.78137e-07 -3.69543e-07 -5.19556e-06)
(-4.31253e-07 -7.59068e-08 -4.4794e-06)
(-5.62516e-07 9.91183e-08 -4.39117e-06)
(-3.00805e-07 5.37087e-08 -3.08527e-06)
(-1.60877e-07 -2.29772e-08 -3.14525e-06)
(7.6758e-08 -6.1948e-08 -2.53609e-06)
(-9.03724e-08 -2.06511e-08 -2.11013e-06)
(-1.78595e-07 2.70044e-08 -2.07762e-06)
(-1.66226e-07 7.46001e-09 -2.06213e-06)
(-1.0701e-07 3.75943e-09 -1.33662e-06)
(-7.38641e-08 1.63115e-09 -8.38887e-07)
(-4.99755e-08 -1.52447e-10 -5.26498e-07)
(-1.51574e-08 -1.49473e-09 -3.53985e-07)
(6.51945e-08 -5.67367e-09 -2.98042e-07)
(6.76718e-08 -2.73523e-09 -2.09527e-07)
(6.81713e-08 6.88871e-08 -2.96341e-07)
(7.83979e-08 -6.89117e-08 -2.61937e-07)
(1.04618e-07 5.77826e-10 -2.96039e-07)
(9.99023e-08 4.91509e-10 -2.9827e-07)
(7.25313e-08 -7.01982e-08 -2.80112e-07)
(7.30632e-08 6.9133e-08 -2.89358e-07)
(5.01061e-08 -1.73532e-10 -3.43534e-07)
(-4.40627e-08 2.61522e-10 -2.53098e-07)
(1.38294e-08 -2.71997e-10 -3.1061e-07)
(-5.01915e-09 -5.18522e-09 -2.97036e-07)
(-3.48433e-09 -3.29908e-09 -2.98535e-07)
(1.25632e-08 1.25278e-08 -3.12639e-07)
(-3.83885e-08 7.65611e-10 -2.46308e-07)
(-7.93071e-11 1.43967e-08 -3.09591e-07)
(-2.5119e-11 -5.06392e-09 -2.99318e-07)
(-7.63501e-11 -6.25101e-09 -2.99727e-07)
(9.30625e-11 -2.27797e-10 -3.43795e-07)
(-2.44885e-08 2.38065e-08 -2.41832e-07)
(-2.82471e-08 -2.81086e-08 -2.44026e-07)
(-2.81096e-08 2.84971e-08 -2.43649e-07)
(-2.4675e-08 -2.34301e-08 -2.423e-07)
(2.46944e-08 -2.38304e-08 -2.41611e-07)
(-2.01286e-08 -1.98827e-08 -2.39908e-07)
(9.79578e-10 9.75082e-10 -3.89378e-07)
(2.84669e-08 2.83491e-08 -2.43304e-07)
(-2.36901e-08 2.50065e-08 -2.42116e-07)
(-2.36843e-08 -2.47134e-08 -2.42169e-07)
(9.99978e-10 -6.88356e-10 -3.89568e-07)
(2.82664e-08 -2.82965e-08 -2.43662e-07)
(8.13071e-11 9.3366e-11 -3.46625e-07)
(1.79615e-10 2.03914e-10 -4.05671e-07)
(1.97223e-10 9.41799e-10 -4.03019e-07)
(1.76893e-10 -6.84622e-12 -3.51682e-07)
(-1.21176e-09 -3.26384e-10 -3.50345e-07)
(7.82008e-10 -1.26708e-08 -3.28435e-07)
(-4.46907e-10 -7.18023e-09 -4.90647e-07)
(-2.09442e-10 -1.34579e-08 -7.93807e-07)
(6.73318e-10 -1.93957e-08 -1.27309e-06)
(2.70163e-09 -2.20998e-08 -1.96512e-06)
(6.89081e-09 -1.24757e-08 -2.89822e-06)
(3.70203e-09 -5.07314e-09 -2.75869e-06)
(-7.70873e-09 9.76399e-08 -2.45245e-06)
(-4.76881e-08 -2.31342e-07 -2.89247e-06)
(2.37328e-08 -9.98351e-08 -2.82743e-06)
(-2.90533e-08 -2.49941e-08 -2.69941e-06)
(1.81287e-07 8.25041e-07 -2.91917e-06)
(-2.53715e-07 -9.65215e-07 -3.54875e-06)
(1.64459e-06 1.07758e-06 -4.04345e-06)
(-1.9998e-06 -1.2636e-06 -4.63864e-06)
(2.38866e-06 1.52889e-06 -5.80448e-06)
(-2.14082e-08 -6.86076e-08 -4.83618e-06)
(-6.80112e-07 -1.42976e-06 -4.88508e-06)
(-1.30405e-07 -5.91256e-08 -3.79054e-06)
(1.89313e-07 1.26995e-06 -4.26498e-06)
(6.41464e-09 -3.47249e-08 -3.44337e-06)
(6.01218e-08 -1.29045e-07 -3.71104e-06)
(9.43765e-08 2.11689e-08 -3.7668e-06)
(-2.81041e-07 1.49066e-08 -3.05155e-06)
(-5.09195e-07 2.91939e-08 -4.3196e-06)
(-9.88657e-07 3.43465e-08 -5.84293e-06)
(-2.29573e-06 -3.09461e-08 -7.65569e-06)
(-2.36377e-06 -3.73686e-07 -7.63558e-06)
(-5.38526e-06 1.28516e-06 -7.67919e-06)
(-2.18172e-06 -6.15884e-07 -6.49449e-06)
(-1.86023e-06 -2.14514e-06 -5.972e-06)
(-3.18537e-08 -3.3336e-07 -6.31644e-06)
(-7.18114e-07 -4.06989e-07 -7.038e-06)
(6.69439e-07 -5.06292e-06 -5.98598e-06)
(-4.74099e-06 -1.43375e-06 -6.85364e-06)
(-2.89169e-06 1.8641e-07 -9.93629e-06)
(-1.40513e-06 -2.13998e-06 -8.96553e-06)
(2.07198e-06 1.54553e-06 -8.71041e-06)
(1.65747e-07 7.74846e-08 -9.01084e-06)
(8.84421e-08 6.88229e-08 -5.72581e-06)
(-2.11837e-06 1.86731e-06 -7.29934e-06)
(2.23071e-06 1.56272e-06 -7.65359e-06)
(1.50134e-08 1.99982e-07 -9.20479e-06)
(-2.76756e-07 -1.80372e-07 -5.88608e-06)
(-2.31121e-06 2.05273e-06 -7.54597e-06)
(2.23799e-06 1.84692e-06 -7.6846e-06)
(4.54693e-09 2.11846e-07 -9.2486e-06)
(-3.05817e-07 -2.15116e-07 -5.91162e-06)
(-2.25671e-06 1.86812e-06 -7.45225e-06)
(2.23149e-06 2.10138e-06 -7.78345e-06)
(1.80658e-08 1.97828e-07 -9.2319e-06)
(-4.90909e-07 -4.81724e-07 -6.05674e-06)
(-2.15439e-06 1.55841e-06 -7.39341e-06)
(1.59294e-06 2.1285e-06 -8.30235e-06)
(-1.37001e-06 -7.60557e-07 -1.15272e-05)
(1.19196e-06 1.23218e-06 -9.20992e-06)
(9.09348e-07 -1.06974e-06 -9.00994e-06)
(2.57486e-06 1.14429e-06 -1.14297e-05)
(-1.21097e-06 -4.48542e-06 -1.12172e-05)
(-6.72967e-07 -2.42266e-06 -8.8955e-06)
(3.78752e-07 3.87673e-07 -6.49242e-06)
(1.45867e-06 -1.10922e-06 -9.10832e-06)
(-4.43232e-06 2.11951e-06 -8.00545e-06)
(-2.15423e-07 -1.33532e-07 -7.08102e-06)
(-2.57365e-06 -3.43464e-06 -7.55044e-06)
(2.49975e-06 1.98114e-06 -8.10064e-06)
(2.40563e-06 -3.71502e-08 -6.40765e-06)
(2.20798e-06 -2.33765e-06 -8.41026e-06)
(2.79132e-06 -2.32704e-06 -9.6544e-06)
(1.23433e-06 -3.3412e-06 -6.49305e-06)
(1.95242e-07 1.12457e-06 -7.68447e-06)
(1.01192e-06 -1.74747e-06 -6.25805e-06)
(1.47566e-06 -1.17416e-06 -6.49311e-06)
(2.31799e-06 1.81216e-06 -8.27574e-06)
(-7.94533e-07 -3.16982e-06 -6.9941e-06)
(2.02775e-07 -4.75909e-07 -5.22226e-06)
(1.34591e-06 1.99883e-06 -6.3328e-06)
(-8.51304e-07 -2.0262e-06 -5.34724e-06)
(1.39378e-08 -1.64103e-07 -3.93594e-06)
(8.66233e-07 1.54518e-06 -4.56293e-06)
(-6.23858e-07 -1.31087e-06 -3.85031e-06)
(5.26392e-10 -8.65478e-08 -2.77966e-06)
(5.88229e-07 1.08158e-06 -3.1657e-06)
(-4.10273e-07 -8.57131e-07 -2.63781e-06)
(2.68349e-09 -6.25689e-08 -1.87989e-06)
(3.92842e-07 7.18229e-07 -2.10713e-06)
(-2.61363e-07 -5.51807e-07 -1.72631e-06)
(2.44062e-09 -4.45965e-08 -1.21366e-06)
(2.52392e-07 4.59157e-07 -1.34533e-06)
(-1.63124e-07 -3.43985e-07 -1.08309e-06)
(5.27824e-10 -2.68674e-08 -7.55304e-07)
(1.52784e-07 2.85384e-07 -8.28037e-07)
(-1.06223e-07 -2.09395e-07 -6.63629e-07)
(-5.63091e-09 -7.37396e-09 -4.54902e-07)