/*--------------------------------*- C++ -*----------------------------------*\
| =========                 |                                                 |
| \\      /  F ield         | OpenFOAM: The Open Source CFD Toolbox           |
|  \\    /   O peration     | Version:  2306                                  |
|   \\  /    A nd           | Website:  www.openfoam.com                      |
|    \\/     M anipulation  |                                                 |
\*---------------------------------------------------------------------------*/
FoamFile
{
    version     2.0;
    format      ascii;
    arch        "LSB;label=32;scalar=64";
    class       volVectorField;
    location    "1.8";
    object      flux;
}
// * * * * * * * * * * * * * * * * * * * * * * * * * * * * * * * * * * * * * //

dimensions      [0 1 -1 1 0 0 0];

internalField   nonuniform List<vector> 
5322
(
(-0.00100645 0.00260015 -0.00348786)
(2.28811e-05 0.00024424 -0.00356069)
(2.79134e-05 -1.77705e-05 -0.00367597)
(3.19878e-06 -0.000109214 -0.00398488)
(-5.09132e-07 -6.0526e-05 -0.00395358)
(-6.668e-07 -2.14667e-05 -0.00394211)
(3.52905e-08 -7.23243e-07 -0.00393867)
(5.42254e-07 1.93036e-05 -0.00394187)
(3.33355e-07 5.66282e-05 -0.00395324)
(-8.17138e-07 0.000103368 -0.0039856)
(-4.0234e-06 9.3447e-07 -0.00394014)
(4.39914e-05 -0.000770091 -0.00395134)
(6.77649e-05 -0.000855916 -0.00297371)
(-0.000933278 -0.000768275 -0.00409974)
(-2.4725e-05 -0.000666925 -0.00448292)
(0.00162425 0.00144333 -0.00357853)
(-0.00127631 0.00193059 -0.00423008)
(-2.01415e-05 -2.98093e-06 -0.00316682)
(-0.000973794 0.00133314 -0.00445874)
(0.000627686 -0.00158046 -0.00449942)
(-0.000853406 0.00150313 -0.00452777)
(0.000742216 -0.001527 -0.0045074)
(-0.000785036 0.00149789 -0.0045095)
(0.000789243 -0.001533 -0.00453328)
(-0.000799417 0.00152765 -0.0045329)
(0.000767828 -0.0014986 -0.00450789)
(-0.000769463 0.00149711 -0.00450935)
(0.000798129 -0.00152835 -0.00453036)
(-0.000786202 0.00152405 -0.0045319)
(0.000786295 -0.0015054 -0.00450946)
(-0.000746103 0.00151473 -0.00450849)
(0.000847462 -0.00151475 -0.00451705)
(-0.000636634 0.0015641 -0.00448588)
(0.000970092 -0.0013437 -0.00441438)
(1.3769e-05 0.00128897 -0.00419708)
(0.00121727 -0.000644351 -0.00344568)
(0.000858182 0.00126583 -0.00391919)
(-0.000342223 0.00158901 -0.0039943)
(0.000961967 0.000793672 -0.00412309)
(-5.52209e-05 0.000859305 -0.00290356)
(-0.000912289 0.00117274 -0.00383427)
(0.000917442 0.000979471 -0.00395704)
(-5.55386e-05 0.00101383 -0.00285151)
(-0.000976095 0.00109466 -0.00396289)
(0.000970025 0.00104364 -0.00392414)
(-3.33896e-05 0.0010333 -0.00289887)
(-0.0010375 0.00106027 -0.00401778)
(0.000905987 0.00113273 -0.00379252)
(-2.29137e-05 0.00104947 -0.00286024)
(-0.00108737 0.00100224 -0.00392822)
(-0.00107273 0.00125732 -0.00439942)
(-0.00155792 0.000608806 -0.00315705)
(-0.000486609 0.000681509 -0.00429635)
(0.00104477 -0.00224639 -0.00403655)
(-6.66156e-05 -0.000122595 -0.00378477)
(-0.0017253 -0.00129986 -0.00383775)
(-4.9018e-05 0.000683223 -0.00455237)
(0.00164885 -0.00170469 -0.00377827)
(-1.97901e-05 -9.7054e-05 -0.00382439)
(-0.00164767 -0.00148159 -0.00384184)
(-7.10555e-06 0.00069374 -0.00460789)
(0.0016058 -0.00167644 -0.0038292)
(-9.27406e-06 -8.66541e-05 -0.00382596)
(-0.00161836 -0.00147057 -0.00374708)
(-5.76764e-07 0.00069653 -0.00460465)
(0.00158121 -0.00173483 -0.00395791)
(2.00825e-05 -0.000111599 -0.0038077)
(-0.00160269 -0.00142219 -0.00355874)
(6.89999e-05 0.000703004 -0.00449527)
(0.00131248 -0.00190846 -0.00420178)
(5.20959e-05 6.72207e-05 -0.00315389)
(-0.00140109 0.00167708 -0.00491503)
(0.00158753 0.000934153 -0.00468105)
(-0.00164305 0.00130502 -0.0046145)
(0.00158172 0.00097483 -0.00466353)
(-0.00161074 0.00123464 -0.00464084)
(0.00161387 0.00103023 -0.00463843)
(-0.00161053 0.00122921 -0.0046221)
(0.00183337 0.0010437 -0.00468233)
(-0.0013209 0.00144393 -0.00443338)
(0.000647255 0.000131517 -0.00421729)
(-0.00085501 0.000485476 -0.00324169)
(-0.000552851 0.000733767 -0.00336013)
(0.000959977 0.00122146 -0.00454214)
(9.97771e-05 -0.000103981 -0.00309778)
(-0.000544226 -0.000510389 -0.0041185)
(0.000635811 0.000145192 -0.00555804)
(-0.00171191 0.000285554 -0.00339504)
(-0.000646134 0.00052879 -0.00348053)
(0.00204046 6.06415e-05 -0.00312782)
(-8.77252e-05 0.000138405 -0.00395543)
(3.82102e-05 2.5572e-05 -0.00353733)
(7.05061e-05 4.02872e-06 -0.00373224)
(0.000318402 4.74986e-06 -0.00370269)
(0.00146351 0.00177764 -0.00449508)
(-0.000340298 -0.00094904 -0.00389256)
(-4.16082e-05 2.8591e-05 -0.00387911)
(-0.000167809 0.000956847 -0.00394844)
(0.000655578 2.59757e-05 -0.00565663)
(-0.00151801 -2.49481e-05 -0.00330423)
(-0.00151961 0.000130524 -0.00333193)
(0.00339579 2.55737e-05 -0.00317894)
(-0.000164981 0.00101312 -0.00397834)
(0.00112881 -0.00173312 -0.00444218)
(0.00183736 0.00155091 -0.00483236)
(-2.29172e-05 2.08956e-05 -0.00376457)
(1.10807e-05 -2.96472e-05 -0.00399385)
(1.5179e-05 -5.54607e-06 -0.00400312)
(9.21418e-06 -9.37817e-07 -0.00398991)
(4.52152e-06 1.63401e-06 -0.00399534)
(1.80032e-06 1.86549e-06 -0.00399674)
(-4.74234e-07 2.2999e-06 -0.00399537)
(-4.71463e-06 5.27911e-06 -0.00399086)
(-1.15798e-05 1.06145e-05 -0.00400466)
(1.82184e-05 -1.80266e-05 -0.00461109)
(-6.14233e-06 4.72255e-06 -0.00456636)
(-0.00053627 0.000548941 -0.00319553)
(-0.000529126 -0.000225804 -0.00346276)
(5.60127e-05 -7.75844e-05 -0.00461225)
(0.00033725 -0.000423685 -0.00381643)
(1.91593e-05 0.000521091 -0.00338286)
(0.000514523 -0.000290042 -0.00411458)
(-0.000615433 -0.000565165 -0.00405691)
(-4.61078e-05 -0.000773083 -0.00571552)
(-0.000141734 -0.000873595 -0.00425756)
(0.000954077 -3.51975e-05 -0.00559658)
(0.000784821 0.000640309 -0.00401831)
(0.000218264 -0.00048318 -0.00419591)
(0.000613644 4.5277e-05 -0.00550051)
(0.000396692 0.000527707 -0.00400135)
(0.000301662 -0.000525613 -0.00410661)
(0.000658835 2.21407e-05 -0.00555018)
(0.00033265 0.000548572 -0.00406333)
(0.000356873 -0.000562484 -0.00403012)
(0.000670302 -1.77716e-05 -0.00557554)
(0.000291222 0.000512319 -0.00412079)
(0.000561594 -0.000614573 -0.0040551)
(0.000761953 -4.89334e-05 -0.00572454)
(0.000863744 -0.000141832 -0.00426068)
(3.71075e-05 0.000940899 -0.00559695)
(-0.000633124 0.000779496 -0.0040283)
(3.49108e-05 -0.000510857 -0.00339438)
(0.000421745 0.000338707 -0.0038168)
(-0.000510944 0.000263295 -0.00341429)
(-0.000548167 -0.000538508 -0.00320147)
(7.83633e-05 5.80351e-05 -0.00461279)
(0.000226519 -0.000527641 -0.00346291)
(0.000124643 0.000413882 -0.00343857)
(-0.000429007 0.00042534 -0.00315896)
(-0.00047151 -0.000469001 -0.00317977)
(8.82269e-05 -7.09244e-06 -0.00460365)
(0.000140466 -0.000437656 -0.00344327)
(0.000169287 0.000439266 -0.00342996)
(-0.000465282 0.00047414 -0.00316075)
(-0.000441467 -0.000425952 -0.00318741)
(8.89591e-05 -1.43148e-06 -0.00460247)
(9.23464e-05 -0.000407144 -0.00345018)
(0.000268026 0.000516859 -0.00341268)
(-0.000510681 -3.37195e-05 -0.0033932)
(0.000666324 -2.54994e-05 -0.00448223)
(-0.00143635 0.00162422 -0.00357327)
(-0.00192531 -0.00127297 -0.00423561)
(0.00165932 0.00140758 -0.00492537)
(-0.00194312 -0.00149471 -0.00481415)
(-8.1362e-05 5.05222e-05 -0.00305416)
(-0.00133702 -0.000964607 -0.00445959)
(1.07313e-05 -2.06533e-05 -0.00316711)
(0.00130341 -8.82634e-06 -0.00428992)
(-0.000313037 -0.000180539 -0.00293732)
(0.00155351 0.000466016 -0.0039724)
(0.000770107 -0.000932425 -0.0041047)
(0.00114835 0.000927709 -0.0038129)
(-0.00172093 -0.00155728 -0.00394831)
(0.000671544 3.55307e-06 -0.00458274)
(-0.00148283 0.0015906 -0.00376952)
(0.000986485 -0.00157138 -0.00464234)
(0.00128613 0.00163601 -0.00460988)
(-0.00157303 -0.00167193 -0.00445208)
(3.52438e-05 6.95379e-06 -0.00372085)
(-0.00133738 0.00164713 -0.00444435)
(0.00117708 -0.00168751 -0.00454902)
(0.00146518 0.00175027 -0.00455841)
(-0.00155706 -0.00174493 -0.00451692)
(-9.68089e-06 6.4921e-06 -0.0037791)
(-0.00130503 0.00170618 -0.0045221)
(0.00124204 -0.00171786 -0.00453621)
(0.0015174 0.00177323 -0.00454198)
(-0.00155516 -0.00176589 -0.00452682)
(-3.06596e-06 3.97398e-06 -0.00379271)
(-0.0012977 0.00172474 -0.00453096)
(0.00126412 -0.0017291 -0.00453633)
(0.00153521 0.00178125 -0.00454028)
(-0.00156409 -0.00177369 -0.00452707)
(2.63517e-07 3.33994e-06 -0.00379839)
(-0.00130573 0.00173293 -0.00453286)
(0.00126214 -0.00173853 -0.00453883)
(0.00153836 0.00179049 -0.00454485)
(-0.00158688 -0.00177685 -0.00452194)
(1.80049e-06 4.34265e-06 -0.00380288)
(-0.00132813 0.0017364 -0.00453114)
(0.0012417 -0.00174942 -0.00454353)
(0.00153029 0.00180251 -0.00455376)
(-0.0016218 -0.00177269 -0.00451281)
(4.14246e-06 5.72347e-06 -0.00380569)
(-0.00135658 0.00172985 -0.00452594)
(0.00120195 -0.00175455 -0.00454202)
(0.00150912 0.00180736 -0.0045575)
(-0.00164953 -0.00173629 -0.00450641)
(9.75836e-06 7.36829e-06 -0.00379374)
(-0.00136362 0.00168654 -0.00452508)
(0.00112883 -0.00173639 -0.00446217)
(0.00140922 0.00175088 -0.00447691)
(-0.000307679 -0.000948922 -0.00393957)
(0.000626305 -4.26209e-06 -0.0056598)
(-0.00150681 -6.99283e-05 -0.00330549)
(-0.00153661 2.91073e-05 -0.00329378)
(0.00341669 -2.82026e-05 -0.00318991)
(-0.00011739 -1.73505e-06 -0.0044931)
(-0.000128633 1.11141e-05 -0.00448078)
(7.8887e-05 1.47408e-05 -0.00373255)
(0.000343671 5.18431e-08 -0.00370369)
(0.00145404 0.00178148 -0.00448123)
(-0.000268667 -0.000944598 -0.00392348)
(-2.67463e-05 7.98504e-06 -0.00383156)
(-0.000299474 0.00112603 -0.0039734)
(0.00059659 -0.000152975 -0.00563972)
(-0.00153528 -4.49832e-05 -0.00332312)
(-0.00151006 3.71156e-05 -0.00329317)
(0.00339712 -5.54365e-05 -0.00319578)
(-0.000198852 0.000954015 -0.00392523)
(0.00112914 -0.00175433 -0.00446758)
(-4.28803e-05 1.01746e-05 -0.00387765)
(1.86799e-05 7.81327e-06 -0.0039231)
(1.82075e-05 2.19656e-05 -0.00399619)
(1.17263e-05 1.42241e-05 -0.0039892)
(6.11168e-06 7.60225e-06 -0.00399707)
(2.65811e-06 3.42512e-06 -0.00399832)
(-3.78893e-09 2.41796e-07 -0.00399634)
(-4.35508e-06 -4.68344e-06 -0.00399125)
(-1.05205e-05 -1.18149e-05 -0.00400451)
(1.81811e-05 1.75751e-05 -0.00461088)
(-5.62783e-06 -6.32199e-06 -0.00456748)
(0.000426146 -0.000441899 -0.00318145)
(-0.000473013 -0.000470675 -0.0031716)
(0.000471349 -0.000470887 -0.00316913)
(-0.000428142 -0.000442926 -0.00318125)
(8.58267e-07 9.0484e-05 -0.0046019)
(0.000428604 0.000155952 -0.00342971)
(-0.000405072 9.83237e-05 -0.00344898)
(-2.27608e-06 -0.000595066 -0.0034701)
(-0.000510221 0.000312148 -0.00410557)
(2.83426e-07 -0.000631051 -0.00576738)
(-0.000428707 0.000156317 -0.00343067)
(-3.32864e-07 9.06642e-05 -0.00460207)
(0.000404021 9.85111e-05 -0.00344791)
(1.58841e-05 -0.000623654 -0.00573504)
(0.000476511 0.000217189 -0.00418338)
(-3.89193e-05 0.00059673 -0.00548203)
(-0.000515207 0.000385234 -0.0039985)
(1.68497e-06 -0.000594833 -0.00347093)
(0.000509507 0.000312789 -0.00410519)
(-5.27035e-07 0.000647785 -0.00548327)
(-8.7141e-08 0.000904488 -0.00292741)
(0.000902473 0.000955325 -0.00393277)
(-0.00155124 -0.00156476 -0.00377184)
(0.00154937 -0.00156121 -0.00376747)
(-0.00153244 -0.00168025 -0.00394951)
(0.0016132 0.00121896 -0.0046065)
(-0.00165044 -0.00151222 -0.00445285)
(0.00172602 0.0013878 -0.00455566)
(-0.0017208 -0.00148594 -0.00451702)
(0.00174824 0.00143727 -0.00454067)
(-0.00174095 -0.00148019 -0.00452635)
(0.00175614 0.00145498 -0.00453993)
(-0.00174878 -0.0014871 -0.00452676)
(0.00176543 0.00145863 -0.00454545)
(-0.00175184 -0.00150863 -0.00452159)
(0.00177779 0.00145228 -0.00455601)
(-0.0017479 -0.00154431 -0.00451143)
(0.00178437 0.00143719 -0.00456262)
(-0.00171347 -0.00157849 -0.00450177)
(0.00175814 0.00140686 -0.00450495)
(-0.000942 -0.000309767 -0.00388899)
(1.98137e-05 0.00066754 -0.00565732)
(0.000950861 -0.000212357 -0.00396358)
(2.56317e-05 -3.677e-05 -0.00387768)
(-0.00171514 0.001218 -0.00445177)
(0.00166766 -0.00145362 -0.0045359)
(8.64674e-06 1.41419e-05 -0.0037957)
(-0.00173328 0.00130322 -0.00454055)
(0.00170806 -0.00145859 -0.00453149)
(5.86881e-06 6.47431e-06 -0.00380743)
(-0.00172799 0.00134693 -0.00454544)
(0.00171359 -0.00143297 -0.00453333)
(3.88798e-06 2.98832e-06 -0.00380411)
(-0.00171712 0.00136698 -0.00454157)
(0.00170974 -0.0014102 -0.00453322)
(2.69922e-06 7.02823e-07 -0.00379909)
(-0.00170773 0.0013674 -0.00453917)
(0.00170149 -0.00140042 -0.00453013)
(2.81502e-06 -3.23224e-06 -0.00379298)
(-0.00169683 0.00134405 -0.00454008)
(0.00168327 -0.00140367 -0.00451947)
(4.52623e-06 -1.04006e-05 -0.00377903)
(-0.00166771 0.0012752 -0.00455532)
(0.00162395 -0.00142776 -0.00443958)
(5.14847e-06 3.34068e-05 -0.00371982)
(-0.00155118 0.0010681 -0.00464865)
(9.11719e-07 -9.86299e-05 -0.00381322)
(0.00155065 0.00106716 -0.00464344)
(-0.00162497 -0.00143008 -0.00444459)
(-7.30584e-06 3.34677e-05 -0.00371985)
(-0.00161081 0.00122533 -0.0046112)
(0.00153011 -0.00167057 -0.00394853)
(-2.87652e-06 0.000670488 -0.00458169)
(-0.000910175 0.00110865 -0.00380461)
(-5.91454e-05 0.000828636 -0.00296308)
(0.000925804 0.000775593 -0.00411351)
(-0.0016065 -0.0014738 -0.00357926)
(0.00155112 0.000966827 -0.00466345)
(-0.00163347 -0.00137564 -0.00446189)
(0.00164087 0.00121659 -0.00454696)
(-0.00167033 -0.00134794 -0.00454338)
(0.00166841 0.00129172 -0.004538)
(-0.00167622 -0.00134405 -0.00454319)
(0.00168054 0.00131585 -0.00454322)
(-0.00167832 -0.00135471 -0.00453921)
(0.0016949 0.00131811 -0.00455133)
(-0.00167798 -0.00138303 -0.00453172)
(0.00171665 0.00130822 -0.00456935)
(-0.00166519 -0.00141701 -0.00450622)
(0.00173815 0.00128595 -0.00459222)
(-0.00160679 -0.00140354 -0.00445934)
(0.00172508 0.00122593 -0.00451627)
(-0.00092833 -0.000202281 -0.00391023)
(-0.000199257 0.000483048 -0.00557482)
(0.000403739 -0.000553167 -0.00412796)
(5.09383e-05 -1.03903e-05 -0.0037362)
(-0.00160116 0.00168049 -0.00479341)
(0.00144109 -0.00205642 -0.00486983)
(2.02015e-05 3.54805e-05 -0.00367291)
(-0.00157774 0.0018465 -0.00487917)
(0.00152501 -0.00200967 -0.00486004)
(2.90257e-06 1.78545e-05 -0.00368643)
(-0.00152993 0.00188091 -0.00487582)
(0.00152369 -0.00193845 -0.00485417)
(-1.87435e-06 6.91968e-06 -0.00367926)
(-0.00151144 0.00188195 -0.00486273)
(0.00151308 -0.00190219 -0.00485149)
(-2.64903e-06 1.67787e-06 -0.00367329)
(-0.00150634 0.00188172 -0.00485971)
(0.00151024 -0.00189145 -0.00485447)
(-7.69305e-06 -3.68256e-06 -0.00366976)
(-0.00150202 0.00187865 -0.00486197)
(0.00151269 -0.00189123 -0.00485372)
(-1.94944e-05 -7.80442e-06 -0.00366201)
(-0.00148148 0.00184739 -0.0048815)
(0.00149282 -0.00190778 -0.00481582)
(-4.50135e-05 4.25396e-05 -0.00361093)
(-0.00137907 0.00164277 -0.00492463)
(0.00126268 -0.00189949 -0.00423477)
(2.72225e-05 0.000666512 -0.00448069)
(-0.000457615 0.00154854 -0.00397096)
(0.000778835 0.00137611 -0.00419526)
(0.00128073 -0.000690942 -0.0036602)
(4.08407e-05 0.00131197 -0.00430391)
(0.000159384 -0.000311429 -0.00292898)
(-0.000234118 0.000247225 -0.00334293)
(0.000655254 0.00157201 -0.00380249)
(-0.00202124 -0.00136054 -0.00349066)
(0.00153365 0.00126935 -0.00477224)
(-0.00192318 -0.00119509 -0.00464759)
(-0.00129501 0.00191419 -0.00447737)
(-0.00160119 -0.00168536 -0.00444718)
(4.15861e-05 -1.33491e-05 -0.00371069)
(0.0010544 -0.0018862 -0.0046123)
(0.00116619 0.00160883 -0.00467928)
(-0.00167898 -0.00164587 -0.0036332)
(0.000649319 4.83555e-05 -0.00460123)
(-0.0015068 0.00173282 -0.00404141)
(-0.000111967 7.73571e-05 -0.00384365)
(8.07349e-05 3.3567e-05 -0.00377817)
(-0.00060994 -0.000490392 -0.00556877)
(5.21871e-05 4.80876e-05 -0.00449347)
(-2.46246e-05 -3.93772e-05 -0.00426017)
(-0.000647111 2.57283e-05 -0.00571754)
(6.601e-05 -9.40085e-06 -0.00409866)
(-0.000104482 -3.36777e-06 -0.00382098)
(-0.00152881 0.00158424 -0.0039023)
(-0.00165808 -0.00158734 -0.00379253)
(0.00119629 0.00158848 -0.00464836)
(-0.00155128 -0.00165133 -0.0044395)
(1.99432e-05 2.67427e-07 -0.00375954)
(0.00141534 0.00170364 -0.00455856)
(-0.00154281 -0.00171459 -0.00451943)
(0.00148994 0.00173422 -0.00454249)
(-0.00154411 -0.00173377 -0.00453028)
(1.09644e-05 1.19853e-06 -0.00373776)
(0.00151754 0.00174704 -0.00454287)
(-0.00155563 -0.00174056 -0.00453084)
(0.00152266 0.00175945 -0.00454845)
(-0.00158029 -0.00174124 -0.00452537)
(5.91389e-05 1.41436e-06 -0.00372812)
(0.00151189 0.00177357 -0.00455771)
(-0.00160951 -0.00173119 -0.00451425)
(0.00148147 0.00177833 -0.00455909)
(-0.00161424 -0.00168745 -0.00450941)
(0.000333451 -2.73555e-06 -0.0037077)
(7.79896e-05 2.29876e-06 -0.00373656)
(5.00679e-05 3.80001e-06 -0.00374179)
(5.26654e-05 1.27094e-05 -0.00374215)
(2.53639e-05 7.13797e-06 -0.00374891)
(6.21261e-05 4.60344e-06 -0.003735)
(0.00156271 0.00178952 -0.00457235)
(-0.00165159 -0.00172865 -0.00451462)
(1.28095e-05 9.13258e-06 -0.00380009)
(-0.00133959 0.00204426 -0.0045535)
(0.00110366 -0.0020194 -0.00450825)
(0.00153866 0.00180896 -0.00458347)
(-0.00162019 -0.00167039 -0.0044856)
(2.90237e-05 1.75369e-05 -0.00378093)
(-0.0014225 0.00202891 -0.00457076)
(0.000988884 -0.00192832 -0.00438872)
(0.00197634 0.00122893 -0.00488638)
(-0.000232679 -0.000855054 -0.00375154)
(3.72707e-05 -0.00136575 -0.00552861)
(-0.00164765 -9.27961e-05 -0.00335955)
(-0.00152048 -2.10718e-05 -0.00321456)
(0.00321523 -0.000493688 -0.00326898)
(-0.000199558 -0.000126842 -0.00432536)
(5.35237e-05 3.82647e-05 -0.00351188)
(9.00804e-05 0.000908625 -0.00312614)
(-0.000981252 0.00118601 -0.00456835)
(0.000224558 9.46062e-05 -0.00305989)
(0.000771634 -0.00193242 -0.00439874)
(-0.000798601 0.00146821 -0.00456185)
(6.56476e-05 1.46066e-05 -0.00305598)
(0.000828331 -0.00163904 -0.00449265)
(-0.00075136 0.00149812 -0.00453613)
(1.04163e-05 -3.25231e-06 -0.00304888)
(0.000806448 -0.00154233 -0.00452815)
(-0.000771103 0.00151762 -0.00453773)
(-1.41219e-06 6.83624e-07 -0.00304724)
(0.000771283 -0.00148987 -0.00451475)
(-0.000748502 0.00151244 -0.00450935)
(-1.99525e-05 -1.06592e-05 -0.00304928)
(0.00080285 -0.00148879 -0.00453232)
(-0.000724006 0.00157142 -0.00450887)
(-4.91082e-05 -2.68997e-05 -0.0030547)
(0.000846702 -0.00141985 -0.00452269)
(-0.000569678 0.00160465 -0.00447559)
(-8.21841e-05 -0.000100897 -0.00305231)
(0.00100098 -0.00126674 -0.00448245)
(0.000380091 0.000411149 -0.00343493)
(0.000281101 0.000618188 -0.0033118)
(-7.39065e-05 -0.000762377 -0.00412582)
(-3.84835e-05 6.42427e-06 -0.00360216)
(0.000394056 0.00124535 -0.00401445)
(-0.000173258 -0.00105995 -0.00416305)
(0.00177494 0.00124399 -0.00464179)
(-0.00189639 -0.00121622 -0.00469017)
(0.00185315 0.00123494 -0.0046478)
(-0.00189229 -0.00122195 -0.00467506)
(-0.00122509 0.00198819 -0.0045336)
(-0.00158858 -0.00174274 -0.00454283)
(-3.70537e-06 -4.11425e-06 -0.00378504)
(0.00121258 -0.00199305 -0.0045502)
(0.00152995 0.00173678 -0.00454744)
(-0.00158747 -0.00173172 -0.00453708)
(-8.74528e-06 -1.0406e-05 -0.00377393)
(-0.00123003 0.00197043 -0.0045235)
(1.03923e-05 -9.85987e-08 -0.00375144)
(9.23681e-07 -4.42536e-06 -0.00354941)
(1.34113e-05 -2.89594e-06 -0.00356173)
(-1.28367e-06 -0.000114264 -0.00316657)
(2.63789e-05 2.58666e-05 -0.00369216)
(0.000101827 0.00015946 -0.00358398)
(9.424e-05 0.000173218 -0.00343819)
(0.000171194 7.0537e-05 -0.00400815)
(-5.0024e-05 3.0188e-05 -0.00397902)
(2.70708e-05 9.97535e-05 -0.00393792)
(0.000712916 7.06505e-05 -0.00397442)
(0.00113276 -9.09694e-05 -0.00308637)
(0.00094472 0.00147287 -0.00502918)
(0.000319322 0.000472182 -0.00278539)
(0.00143633 0.000102664 -0.0037391)
(0.000571733 0.000352472 -0.00396986)
(0.000268073 7.52477e-05 -0.00387964)
(7.9939e-05 2.26185e-05 -0.00389575)
(5.1186e-05 1.5771e-05 -0.00400821)
(-2.31322e-05 5.25327e-06 -0.00394781)
(-1.47311e-05 2.94172e-06 -0.00393561)
(1.47478e-05 4.14043e-06 -0.00401397)
(2.40335e-05 4.03859e-06 -0.00389538)
(-0.000225373 -0.00111823 -0.00415926)
(-3.4623e-06 1.21271e-06 -0.0036562)
(0.000259785 0.00114127 -0.00411569)
(-0.000239865 -0.00112816 -0.00412952)
(0.00187655 0.00123177 -0.00466646)
(-0.00190092 -0.00122523 -0.00466149)
(0.00188775 0.00124385 -0.00467866)
(-0.00193809 -0.00122749 -0.00464818)
(-0.00127121 0.00201817 -0.00454247)
(-0.00162776 -0.00174446 -0.00453403)
(4.51241e-06 3.25527e-06 -0.0037963)
(0.00120285 -0.00200289 -0.00454549)
(0.00156909 0.00176689 -0.00455727)
(-0.00160148 -0.00174625 -0.00454087)
(5.81524e-07 -2.23147e-07 -0.00379057)
(-0.00123751 0.00199993 -0.00453856)
(1.80124e-05 3.89509e-06 -0.00374197)
(7.98373e-06 4.02835e-06 -0.00354894)
(2.02692e-06 -4.60367e-07 -0.00354818)
(1.38641e-06 -1.15675e-05 -0.00315202)
(3.47087e-06 -5.5319e-06 -0.00367977)
(6.16438e-06 1.73615e-05 -0.00363962)
(9.78682e-06 1.25769e-05 -0.00348446)
(7.88034e-06 2.287e-06 -0.00367937)
(2.10521e-05 5.39166e-05 -0.00355817)
(3.20621e-05 3.8663e-05 -0.00341637)
(0.000305566 0.00116612 -0.00410473)
(-5.32683e-06 5.67854e-06 -0.0036525)
(-1.98785e-06 -5.3683e-05 -0.00315556)
(-9.82112e-06 -4.63466e-06 -0.00398112)
(1.68421e-06 -7.80432e-05 -0.00399932)
(4.07212e-06 1.00736e-05 -0.00395473)
(-4.03486e-05 0.000774934 -0.00395392)
(9.36418e-05 0.00147973 -0.00373078)
(-0.00107971 0.00271995 -0.00362156)
(-2.69764e-06 0.000285072 -0.003596)
(1.48435e-05 -4.13676e-05 -0.00315909)
(7.00206e-07 -1.92257e-05 -0.00393725)
(-1.46193e-05 -7.37896e-05 -0.00388593)
(0.0016507 -0.00150264 -0.00445034)
(-2.80761e-07 6.57386e-06 -0.00375386)
(-0.00172529 0.00139824 -0.00455925)
(0.00166752 0.00127259 -0.00455121)
(-0.00168341 -0.0014044 -0.00452318)
(-5.92815e-06 -1.0319e-05 -0.00377967)
(0.0017233 -0.00148046 -0.0045157)
(1.91355e-08 1.09693e-05 -0.00373618)
(-0.001748 0.00144625 -0.00454272)
(0.00169805 0.00134183 -0.00453807)
(-0.00170031 -0.00139972 -0.00453146)
(-2.46967e-06 -3.08338e-06 -0.00379399)
(0.00174513 -0.00148012 -0.0045274)
(9.94953e-07 9.51454e-06 -0.00372995)
(-0.00175528 0.00145907 -0.00454029)
(0.00171103 0.00136733 -0.00454051)
(-0.00170647 -0.00140895 -0.00453109)
(1.11365e-07 9.48338e-07 -0.00380058)
(0.00175525 -0.00149281 -0.00453067)
(1.89477e-06 2.53046e-05 -0.00372574)
(-0.00176385 0.00145501 -0.00454335)
(0.00172332 0.00137124 -0.0045476)
(-0.00170718 -0.00143264 -0.00452515)
(2.57713e-06 3.48692e-06 -0.00380614)
(0.00176173 -0.00152221 -0.00453017)
(1.57453e-06 7.10839e-05 -0.0037197)
(-0.00177489 0.00143165 -0.00454687)
(0.00173764 0.00136125 -0.00456002)
(-0.00169728 -0.00146429 -0.00451121)
(6.20107e-06 7.3203e-06 -0.00380938)
(0.00175945 -0.00156342 -0.00452878)
(-3.37761e-06 0.000172972 -0.00371031)
(-0.00177719 0.00137771 -0.00453653)
(0.00174405 0.00133942 -0.0045676)
(-0.00165473 -0.00147981 -0.0044993)
(9.84571e-06 1.54561e-05 -0.00379442)
(0.00171462 -0.0015783 -0.00453149)
(-1.51232e-05 0.000385716 -0.00368973)
(-0.00174371 0.00128909 -0.00445044)
(0.00171903 0.001289 -0.00449316)
(-0.000943411 -0.000248175 -0.00393317)
(-1.15082e-06 -3.57393e-05 -0.00387073)
(0.000936773 -0.000287372 -0.0039338)
(-5.74771e-05 0.00339298 -0.00320958)
(-0.000119569 -0.00151564 -0.00330586)
(-0.000125647 -0.00154756 -0.00317687)
(-0.000131153 0.00250672 -0.00300993)
(-0.00164347 0.000651713 -0.00431286)
(0.000410046 0.000270656 -0.00307253)
(0.000364954 -0.00234017 -0.00414735)
(-0.000139913 -0.000482374 -0.00341025)
(-0.000288378 -0.000282309 -0.00326771)
(-0.000143799 0.00120248 -0.00426978)
(-0.00187698 -0.00125531 -0.00437789)
(0.000395411 -2.19178e-05 -0.00368043)
(-0.000480183 2.61814e-05 -0.00388159)
(-0.000804771 -0.000157211 -0.0038814)
(-0.000294928 -0.000189095 -0.00391205)
(-0.000230896 -1.94291e-05 -0.00399211)
(-0.000241691 5.0153e-05 -0.00391486)
(-0.00010292 2.90466e-05 -0.00392366)
(-4.60024e-05 1.18049e-05 -0.00401802)
(7.61399e-06 -1.54201e-05 -0.00390651)
(-1.8975e-06 6.93834e-06 -0.00401692)
(-3.72973e-05 1.11016e-05 -0.00392983)
(-4.65961e-05 3.26875e-06 -0.00390157)
(-2.73321e-05 3.58286e-07 -0.00391187)
(-5.30045e-05 -3.00368e-06 -0.00392783)
(-0.000105152 -1.03097e-05 -0.00396157)
(1.85867e-05 -1.98018e-05 -0.00391385)
(0.000837203 -6.86577e-05 -0.00391724)
(0.00098167 -3.67832e-05 -0.00298056)
(0.000962652 0.000957815 -0.00407088)
(0.00110913 -0.000958233 -0.00360315)
(0.00137166 1.15166e-05 -0.00374726)
(0.0013059 6.17742e-06 -0.00376479)
(0.00102141 -0.000973289 -0.00383728)
(0.00102814 0.00095898 -0.00396503)
(0.000670794 -2.27206e-06 -0.00459339)
(-0.000596536 3.98495e-06 -0.0034629)
(0.00019256 -4.33694e-06 -0.00426683)
(-6.99956e-05 -7.26422e-05 -0.00421319)
(-4.90237e-05 -4.60315e-05 -0.00425859)
(0.000174775 0.000173897 -0.00432146)
(-0.000520085 1.88511e-05 -0.00338552)
(-1.41843e-06 0.000200119 -0.00425313)
(-8.18072e-07 -7.09761e-05 -0.0042684)
(-1.68111e-06 -8.70323e-05 -0.00424814)
(1.31869e-07 9.90007e-08 -0.00459776)
(-0.000328537 0.000320549 -0.00310694)
(-0.000374296 -0.00037261 -0.00312738)
(-0.000370945 0.000374104 -0.00312185)
(-0.00033256 -0.000319354 -0.00311689)
(0.000329677 -0.000323288 -0.00310687)
(-0.000279859 -0.000276368 -0.00309588)
(1.03873e-05 1.03107e-05 -0.00460467)
(0.000372649 0.00037098 -0.00311685)
(-0.00032157 0.000333856 -0.00311358)
(-0.00032288 -0.000333255 -0.00311467)
(1.03051e-05 -9.93451e-06 -0.00460493)
(0.000371282 -0.000373789 -0.00312205)
(-2.21087e-08 -1.60175e-08 -0.00462426)
(5.92291e-08 5.78696e-08 -0.00462964)
(1.63439e-07 2.37495e-05 -0.00462004)
(1.82778e-07 6.73664e-05 -0.0040988)
(-9.8147e-06 6.02965e-05 -0.00409144)
(1.31539e-05 -0.000133637 -0.00380108)
(-6.72734e-06 2.62091e-06 -0.00374862)
(-3.70052e-06 6.9991e-07 -0.0037387)
(-4.63573e-07 3.9629e-06 -0.00374024)
(2.04406e-06 1.13182e-05 -0.00374095)
(5.09407e-06 2.74387e-05 -0.00373962)
(2.16622e-05 1.18051e-05 -0.00354684)
(1.60074e-05 9.60236e-05 -0.00315249)
(8.71141e-06 -7.54777e-05 -0.00366741)
(3.78583e-05 -8.40278e-06 -0.00362705)
(-1.06395e-05 5.4568e-05 -0.00346844)
(0.000226759 0.0012003 -0.00413851)
(-0.000323546 -0.00109519 -0.00411698)
(0.00191687 0.00126439 -0.00472013)
(-0.0019782 -0.00124578 -0.0045748)
(0.0019687 0.00127761 -0.00481839)
(-4.0954e-05 -3.06676e-05 -0.00369548)
(-0.000578338 -0.0011327 -0.0039824)
(-8.64759e-05 3.29539e-05 -0.00339711)
(0.000159319 0.00126944 -0.00417648)
(-1.7159e-05 -4.64537e-06 -0.00368805)
(-3.82487e-05 -5.55017e-05 -0.00391503)
(-2.01307e-05 1.14112e-05 -0.00399596)
(-0.000110411 7.8676e-06 -0.00389122)
(-0.000231081 1.5692e-05 -0.00388065)
(-0.00046082 1.85867e-05 -0.00388521)
(-0.00105308 -1.33883e-05 -0.00402884)
(-0.00107663 -0.000188043 -0.00397593)
(-0.00268297 0.000644419 -0.00391556)
(-0.00126652 -0.000287469 -0.0037184)
(-0.00110746 -0.00123628 -0.00356199)
(-3.76988e-05 -0.000156665 -0.00359525)
(-0.000436655 -0.000148853 -0.0037387)
(0.000343166 -0.0024354 -0.00295002)
(-0.00216811 -0.000671339 -0.00323051)
(-0.00129553 8.5616e-05 -0.00437033)
(-0.00060594 -0.000982381 -0.00395799)
(0.000982152 0.000726325 -0.00414556)
(7.91102e-05 3.33769e-05 -0.00425004)
(5.12824e-05 4.11376e-05 -0.00281498)
(-0.0010271 0.000879228 -0.00351377)
(0.00108697 0.000737553 -0.00370607)
(6.37593e-06 0.000103391 -0.0043793)
(-0.000128576 -8.24659e-05 -0.00291741)
(-0.00112843 0.000978036 -0.00366051)
(0.00109225 0.000878954 -0.00372659)
(1.90805e-06 0.000111472 -0.00440042)
(-0.000143345 -9.93738e-05 -0.00292915)
(-0.00110121 0.000887462 -0.0036145)
(0.00108865 0.0010024 -0.00377038)
(9.39183e-06 0.000103898 -0.00438407)
(-0.000234973 -0.000229106 -0.00298437)
(-0.00105069 0.000736114 -0.00357108)
(0.000776206 0.00102359 -0.00399119)
(-0.000618346 -0.000354643 -0.00545226)
(0.000506452 0.000533579 -0.00406944)
(0.000383933 -0.000465234 -0.00397094)
(0.00113353 0.000497241 -0.00499259)
(-0.000532602 -0.00196342 -0.00483943)
(-0.000308239 -0.00106644 -0.00394141)
(0.000168461 0.000192844 -0.00298248)
(0.000682498 -0.000484604 -0.00429654)
(-0.00223303 0.00105596 -0.00403961)
(-0.00012437 -6.36768e-05 -0.00378287)
(-0.0013075 -0.00173107 -0.00382975)
(0.00113907 0.000913205 -0.00380009)
(0.00104923 -1.82607e-05 -0.00286152)
(0.00100143 -0.00108456 -0.00392129)
(0.00125719 -0.00107212 -0.00440139)
(0.000608041 -0.00155873 -0.00315613)
(0.000138167 0.000656056 -0.00422007)
(0.000485801 -0.000857263 -0.00324351)
(0.00073468 -0.000548899 -0.00336312)
(0.00121408 0.000953786 -0.0045437)
(-0.000565763 -0.00197892 -0.00431114)
(0.00011665 -0.000221942 -0.00349028)
(0.000900927 0.00139201 -0.00457414)
(-0.000775832 -0.0017139 -0.00444123)
(8.64787e-07 -4.38884e-05 -0.00358451)
(0.000788538 0.00149169 -0.00454679)
(-0.000799631 -0.0015698 -0.00449716)
(-1.00385e-05 3.46436e-06 -0.00359494)
(0.000765198 0.00150381 -0.00453278)
(-0.000781904 -0.00151346 -0.00451274)
(-5.87934e-06 7.80286e-06 -0.00360155)
(0.000760571 0.00149724 -0.00452437)
(-0.00077374 -0.00149851 -0.004518)
(-5.15774e-06 8.53412e-06 -0.00359935)
(0.000758246 0.00149643 -0.00452308)
(-0.000778764 -0.00149507 -0.00451864)
(-1.08959e-05 2.30825e-05 -0.00360652)
(0.00073272 0.00150446 -0.00451557)
(-0.000822177 -0.00148563 -0.00452147)
(-6.48474e-05 9.20775e-05 -0.0035465)
(0.00062216 0.00155195 -0.0045012)
(-0.000952109 -0.0013312 -0.00445674)
(-0.000354597 0.000374555 -0.00345768)
(-1.53797e-05 0.00129122 -0.00429176)
(-0.00128253 -0.000721038 -0.00364151)
(-0.000794064 0.00137001 -0.00419001)
(0.000463305 0.00154735 -0.00396626)
(-0.00126357 -0.00191879 -0.00423334)
(0.00139799 0.00163741 -0.0049262)
(-0.00148367 -0.00192577 -0.00481297)
(4.16598e-05 4.42609e-05 -0.00361093)
(-0.00155482 0.000963706 -0.00467224)
(0.00160396 -0.0014745 -0.00357186)
(-2.43656e-05 0.000665771 -0.00448266)
(-0.000924864 0.000771859 -0.00411183)
(5.90692e-05 0.000835631 -0.00296369)
(0.000911549 0.00110856 -0.0037998)
(-0.000901725 0.000953416 -0.00393543)
(3.19908e-06 0.000670001 -0.00458276)
(5.33073e-06 0.00129084 -0.00375304)
(1.56376e-06 0.000768744 -0.00394236)
(1.25607e-06 -6.37305e-06 -0.00394743)
(1.93612e-06 -0.000111924 -0.00398846)
(1.79259e-06 -6.26759e-05 -0.00395279)
(5.79452e-07 -3.92679e-05 -0.00396297)
(1.29557e-06 -2.36601e-05 -0.00394913)
(3.46631e-06 -4.61749e-05 -0.00394018)
(5.10082e-06 -2.43455e-05 -0.00367777)
(1.53635e-05 6.94288e-06 -0.00356949)
(2.2662e-06 2.47571e-05 -0.00342587)
(0.000246206 0.00114631 -0.00415263)
(-0.00025891 -0.00111088 -0.00415538)
(-7.48083e-06 3.13202e-08 -0.00366745)
(-1.86758e-06 1.95083e-06 -0.00365798)
(1.04944e-05 4.42809e-07 -0.00389945)
(1.10822e-06 8.36825e-08 -0.00396536)