/*--------------------------------*- C++ -*----------------------------------*\
| =========                 |                                                 |
| \\      /  F ield         | OpenFOAM: The Open Source CFD Toolbox           |
|  \\    /   O peration     | Version:  2306                                  |
|   \\  /    A nd           | Website:  www.openfoam.com                      |
|    \\/     M anipulation  |                                                 |
\*---------------------------------------------------------------------------*/
FoamFile
{
    version     2.0;
    format      ascii;
    arch        "LSB;label=32;scalar=64";
    class       volScalarField;
    location    "1.8";
    object      gradTx;
}
// * * * * * * * * * * * * * * * * * * * * * * * * * * * * * * * * * * * * * //

dimensions      [0 -1 0 1 0 0 0];

internalField   nonuniform List<scalar> 
5322
(
-0.251613
0.00572028
0.00697836
0.000799694
-0.000127283
-0.0001667
8.82263e-06
0.000135563
8.33387e-05
-0.000204284
-0.00100585
0.0109979
0.0169412
-0.23332
-0.00618126
0.406062
-0.319076
-0.00503537
-0.243449
0.156921
-0.213351
0.185554
-0.196259
0.197311
-0.199854
0.191957
-0.192366
0.199532
-0.196551
0.196574
-0.186526
0.211865
-0.159159
0.242523
0.00344224
0.304318
0.214545
-0.0855558
0.240492
-0.0138052
-0.228072
0.229361
-0.0138846
-0.244024
0.242506
-0.00834741
-0.259374
0.226497
-0.00572842
-0.271842
-0.268182
-0.38948
-0.121652
0.261193
-0.0166539
-0.431325
-0.0122545
0.412214
-0.00494754
-0.411917
-0.00177639
0.401449
-0.00231851
-0.404591
-0.000144191
0.395301
0.00502063
-0.400672
0.01725
0.328119
0.013024
-0.350271
0.396883
-0.410764
0.395431
-0.402684
0.403468
-0.402631
0.458343
-0.330226
0.161814
-0.213753
-0.138213
0.239994
0.0249443
-0.136057
0.158953
-0.427977
-0.161533
0.510115
-0.0219313
0.00955256
0.0176265
0.0796005
0.365877
-0.0850746
-0.010402
-0.0419523
0.163895
-0.379503
-0.379902
0.848948
-0.0412453
0.282204
0.459341
-0.0057293
0.00277018
0.00379475
0.00230355
0.00113038
0.000450081
-0.000118559
-0.00117866
-0.00289496
0.0045546
-0.00153558
-0.134068
-0.132281
0.0140032
0.0843125
0.00478981
0.128631
-0.153858
-0.0115269
-0.0354336
0.238519
0.196205
0.0545661
0.153411
0.0991729
0.0754154
0.164709
0.0831625
0.0892183
0.167576
0.0728055
0.140398
0.190488
0.215936
0.00927687
-0.158281
0.00872771
0.105436
-0.127736
-0.137042
0.0195908
0.0566297
0.0311608
-0.107252
-0.117877
0.0220567
0.0351164
0.0423217
-0.116321
-0.110367
0.0222398
0.0230866
0.0670065
-0.12767
0.166581
-0.359087
-0.481327
0.414829
-0.48578
-0.0203405
-0.334256
0.00268283
0.325853
-0.0782593
0.388377
0.192527
0.287088
-0.430232
0.167886
-0.370706
0.246621
0.321532
-0.393257
0.00881095
-0.334345
0.294269
0.366295
-0.389266
-0.00242022
-0.326257
0.310511
0.37935
-0.38879
-0.000766489
-0.324426
0.316031
0.383803
-0.391022
6.58792e-05
-0.326433
0.315534
0.384591
-0.39672
0.000450122
-0.332032
0.310425
0.382573
-0.405449
0.00103562
-0.339145
0.300487
0.37728
-0.412383
0.00243959
-0.340906
0.282208
0.352305
-0.0769198
0.156576
-0.376703
-0.384153
0.854173
-0.0293474
-0.0321583
0.0197218
0.0859178
0.363511
-0.0671667
-0.00668658
-0.0748685
0.149147
-0.383821
-0.377515
0.84928
-0.0497129
0.282284
-0.0107201
0.00466997
0.00455188
0.00293156
0.00152792
0.000664528
-9.47232e-07
-0.00108877
-0.00263013
0.00454528
-0.00140696
0.106536
-0.118253
0.117837
-0.107036
0.000214567
0.107151
-0.101268
-0.000569019
-0.127555
7.08565e-05
-0.107177
-8.32159e-05
0.101005
0.00397103
0.119128
-0.00972982
-0.128802
0.000421244
0.127377
-0.000131759
-2.17852e-05
0.225618
-0.38781
0.387342
-0.383109
0.403301
-0.41261
0.431505
-0.4302
0.437061
-0.435237
0.439035
-0.437195
0.441357
-0.43796
0.444448
-0.436974
0.446092
-0.428368
0.439536
-0.2355
0.00495342
0.237715
0.00640792
-0.428785
0.416916
0.00216169
-0.433319
0.427016
0.0014672
-0.431998
0.428397
0.000971995
-0.429279
0.427435
0.000674805
-0.426933
0.425373
0.000703756
-0.424208
0.420817
0.00113156
-0.416926
0.405988
0.00128712
-0.387796
0.00022793
0.387662
-0.406244
-0.00182646
-0.402703
0.382527
-0.00071913
-0.227544
-0.0147864
0.231451
-0.401625
0.38778
-0.408368
0.410219
-0.417583
0.417103
-0.419054
0.420135
-0.41958
0.423725
-0.419495
0.429162
-0.416297
0.434536
-0.401697
0.431269
-0.232083
-0.0498143
0.100935
0.0127346
-0.40029
0.360273
0.00505039
-0.394436
0.381253
0.000725644
-0.382481
0.380922
-0.000468587
-0.377861
0.37827
-0.000662257
-0.376585
0.377559
-0.00192326
-0.375505
0.378172
-0.00487359
-0.370369
0.373204
-0.0112534
-0.344769
0.315671
0.00680563
-0.114404
0.194709
0.320183
0.0102102
0.0398461
-0.0585296
0.163813
-0.50531
0.383411
-0.480795
-0.323752
-0.400297
0.0103965
0.263599
0.291548
-0.419746
0.16233
-0.376699
-0.0279918
0.0201837
-0.152485
0.0130468
-0.00615616
-0.161778
0.0165025
-0.0261204
-0.382201
-0.414519
0.299072
-0.38782
0.0049858
0.353834
-0.385703
0.372485
-0.386028
0.00274111
0.379384
-0.388908
0.380666
-0.395073
0.0147847
0.377972
-0.402376
0.370367
-0.40356
0.0833628
0.0194974
0.012517
0.0131664
0.00634097
0.0155315
0.390679
-0.412897
0.00320237
-0.334898
0.275916
0.384665
-0.405047
0.00725592
-0.355624
0.247221
0.494085
-0.0581696
0.00931768
-0.411913
-0.380119
0.803808
-0.0498896
0.0133809
0.0225201
-0.245313
0.0561396
0.192908
-0.19965
0.0164119
0.207083
-0.18784
0.00260407
0.201612
-0.192776
-0.000353047
0.192821
-0.187126
-0.00498812
0.200713
-0.181001
-0.012277
0.211675
-0.14242
-0.020546
0.250245
0.0950228
0.0702753
-0.0184766
-0.00962088
0.098514
-0.0433145
0.443735
-0.474097
0.463288
-0.473072
-0.306272
-0.397146
-0.000926343
0.303144
0.382488
-0.396869
-0.00218632
-0.307509
0.00259808
0.00023092
0.00335283
-0.000320917
0.00659471
0.0254567
0.02356
0.0427986
-0.012506
0.00676771
0.178229
0.28319
0.23618
0.0798305
0.359083
0.142933
0.0670184
0.0199848
0.0127965
-0.00578306
-0.00368277
0.00368696
0.00600838
-0.0563433
-0.000865575
0.0649464
-0.0599662
0.469137
-0.475229
0.471937
-0.484522
-0.317802
-0.40694
0.0011281
0.300713
0.392273
-0.400369
0.000145381
-0.309378
0.0045031
0.00199593
0.00050673
0.000346601
0.000867717
0.0015411
0.00244671
0.00197008
0.00526302
0.00801552
0.0763915
-0.00133171
-0.000496963
-0.00245528
0.000421053
0.00101803
-0.0100871
0.0234104
-0.269927
-0.000674409
0.00371088
0.000175052
-0.00365482
0.412675
-7.01901e-05
-0.431323
0.416879
-0.420853
-0.00148204
0.430825
4.78387e-06
-0.437001
0.424514
-0.425076
-0.000617418
0.436282
0.000248738
-0.438821
0.427758
-0.426617
2.78413e-05
0.438813
0.000473692
-0.440962
0.430831
-0.426795
0.000644283
0.440432
0.000393631
-0.443722
0.434409
-0.42432
0.00155027
0.439862
-0.000844401
-0.444297
0.436012
-0.413682
0.00246143
0.428656
-0.0037808
-0.435929
0.429759
-0.235853
-0.000287705
0.234193
-0.0143693
-0.0298923
-0.0314117
-0.0327881
-0.410868
0.102512
0.0912384
-0.0349782
-0.0720945
-0.0359497
-0.469245
0.0988528
-0.120046
-0.201193
-0.0737319
-0.0577241
-0.0604227
-0.02573
-0.0115006
0.0019035
-0.000474375
-0.00932431
-0.011649
-0.00683302
-0.0132511
-0.0262879
0.00464667
0.209301
0.245418
0.240663
0.277284
0.342915
0.326475
0.255353
0.257034
0.167698
-0.149134
0.0481399
-0.0174989
-0.0122559
0.0436937
-0.130021
-0.000354606
-0.000204518
-0.000420277
3.29672e-05
-0.0821343
-0.0935741
-0.0927362
-0.08314
0.0824193
-0.0699648
0.00259683
0.0931624
-0.0803924
-0.0807199
0.00257628
0.0928204
-5.52717e-06
1.48073e-05
4.08597e-05
4.56944e-05
-0.00245368
0.00328847
-0.00168184
-0.000925131
-0.000115893
0.000511014
0.00127352
0.00541555
0.00400186
0.00217785
0.00946457
-0.00265988
0.0566898
-0.0808864
0.479219
-0.49455
0.492175
-0.0102385
-0.144584
-0.021619
0.0398297
-0.00428976
-0.00956216
-0.00503267
-0.0276027
-0.0577702
-0.115205
-0.263269
-0.269157
-0.670741
-0.31663
-0.276864
-0.00942471
-0.109164
0.0857915
-0.542029
-0.323882
-0.151485
0.245538
0.0197775
0.0128206
-0.256774
0.271743
0.00159398
-0.0321441
-0.282107
0.273063
0.000477012
-0.0358363
-0.275303
0.272162
0.00234796
-0.0587434
-0.262674
0.194051
-0.154587
0.126613
0.0959834
0.283382
-0.13315
-0.0770597
0.0421154
0.170625
-0.558258
-0.0310924
-0.326876
0.284769
0.262308
0.250356
0.314298
0.15201
0.0345416
0.12145
0.18367
0.303519
-0.141441
0.0291625
0.225232
-0.193958
0.000216197
0.197135
-0.199908
-0.00250963
0.191299
-0.195476
-0.00146983
0.190143
-0.193435
-0.00128943
0.189561
-0.194691
-0.00272397
0.18318
-0.205544
-0.0162119
0.15554
-0.238027
-0.0886494
-0.00384491
-0.320633
-0.198516
0.115826
-0.315892
0.349496
-0.370918
0.0104149
-0.388704
0.400991
-0.00609139
-0.231216
0.0147673
0.227887
-0.225431
0.000799771
0.00133268
0.000390941
0.000314018
0.00048403
0.000448147
0.000144863
0.000323892
0.000866578
0.0012752
0.00384088
0.000566551
0.0615516
-0.0647275
-0.00187021
-0.000466895
0.0026236
0.000277055
0.303103
0.390417
0.00254637
-0.323407
0.316283
0.000194593
-0.325657
0.3149
0.000584348
-0.332347
0.30897
0.00119783
-0.342446
0.298182
0.00243427
-0.34941
-0.0154016
-0.012306
-0.0662101
-0.0657945
-0.106421
-0.0516198
-0.0252589
-0.0113018
-0.00754576
-0.0150347
-0.0278544
0.00180395
0.204184
0.23726
0.230375
0.327043
0.195757
0.00218726
-0.022189
-0.0116123
-0.00599073
-0.0094416
-0.0221703
-0.0477395
-0.0990098
-0.232797
-0.247815
-0.441219
-0.33211
-0.104596
-0.105372
0.224632
0.0263393
-0.0275545
-0.0219059
0.111238
0.00460316
-0.0886174
-0.0848115
0.0878866
-5.50626e-05
-0.0980122
-0.0938067
0.0769039
-0.000398863
-0.121846
-0.116259
0.0372009
-0.154107
0.0980136
0.0950184
0.0994526
0.0864868
-0.135276
0.00948788
0.0501323
-0.153237
0.0367985
-0.14802
0.173964
-0.402739
-0.0216536
-0.38754
0.263091
0.270954
0.271335
0.266275
0.261461
0.264715
-0.419252
-0.0253809
-0.378226
0.271197
0.290406
0.272375
0.286653
-0.0214023
-0.403288
-0.400755
0.174372
0.272338
0.240458
0.238103
0.296442
0.28385
0.227588
0.069277
0.151414
0.0616784
-0.0327776
0.0760147
0.0116234
-0.0554413
0.0576666
0.00249758
-0.0572465
0.0568166
0.000342677
-0.0583905
0.0561104
-0.000168751
-0.0566651
0.0578632
-0.000775176
-0.0581773
0.0560616
-0.00385547
-0.0609444
0.0531883
-0.0142159
-0.0811482
0.0310943
-0.0645731
-0.156806
-0.0748477
-0.232801
-0.280501
-0.286286
-0.192792
-0.141712
-0.217877
-0.00917835
0.159321
-0.120374
0.0117002
0.132073
-0.131717
0.0055608
0.137649
-0.141177
-0.00467164
-0.00949014
-0.244816
-0.000782689
-0.397022
0.000466625
-0.393413
0.00210818
0.411603
-0.417789
0.000496992
-0.4145
0.00484842
0.420667
-0.381395
6.73777e-05
0.38195
0.0019968
-0.381448
7.38475e-05
0.38189
0.00131415
-0.381578
0.000105854
0.381639
-0.000683265
-0.381784
0.000188548
0.38155
-0.00103035
-0.381911
0.000541056
0.381776
-0.00570852
-0.378089
0.00275568
0.378198
-0.00768281
-0.00841202
-0.471678
-0.340929
0.00780466
0.439648
-0.00285873
-0.467151
-0.324085
0.00644183
0.456989
-0.000919714
-0.464954
-0.319474
0.00241291
0.461533
-0.000678166
-0.464018
-0.317057
0.000157158
0.464262
0.000669111
-0.461597
-0.315527
-0.00197434
0.465557
0.000793351
-0.457329
-0.312806
-0.0055166
0.469015
0.0030492
-0.439284
-0.305039
-0.00584307
0.476693
0.010687
-0.381975
-0.270027
0.0250591
0.502897
0.0607414
-0.0434967
0.116241
-0.199074
-0.321879
-0.00326537
-0.0900751
0.00140142
0.275978
-0.0227848
0.00386903
-0.232571
0.00103944
0.398021
-0.389112
-0.00243669
-0.391818
0.0109217
-0.375983
-0.000734408
0.378105
0.00848177
0.00308113
0.000783698
0.00451507
0.409465
0.00281178
-0.00349943
-0.10178
-0.000283144
0.11001
-0.000151743
0.000361202
0.000496133
-0.0175242
-0.0202549
-0.014518
-0.158671
0.0159675
-0.0260031
0.00244526
0.00279169
0.00493632
0.360173
0.297244
0.00171363
-0.00326441
-0.0135197
-0.0161707
0.263905
0.00970883
-0.33614
0.301057
-0.00221884
-0.325768
0.312735
-0.000694973
-0.000705646
0.00114912
0.00415899
0.00129918
0.00275909
0.00570709
0.00272454
0.00139478
0.00118478
0.00460056
0.000365404
0.00100572
0.00247046
-0.333206
0.293189
0.464924
-0.480107
0.473226
-0.478607
-0.0011638
-0.377115
-0.00362509
0.380519
-0.00470946
-0.374411
-0.0120255
0.392416
0.0234457
0.0293812
-0.267639
-0.000910752
0.287373
-0.301488
-0.000697515
-0.496692
-0.000949562
0.494834
-0.433928
-0.000196476
-0.4392
0.000121614
0.43904
-0.433947
-5.44132e-05
-0.431042
-5.48973e-05
0.431032
-0.443396
-0.000224465
-0.422004
-0.00133919
0.421037
-0.420135
-0.00376961
0.416306
-0.410231
-0.00776457
-0.00984373
-0.00227972
-0.000990879
-0.000140608
0.000144588
0.000438023
0.00128971
0.00266874
-0.00462345
0.00121249
-0.106645
0.118463
-0.117101
-0.109559
0.00109681
0.000658071
-0.00227898
0.0064165
0.103899
0.00094501
-0.00123726
-0.00967292
0.0126659
-0.011094
-0.155411
0.0151871
-0.0329371
0.232992
0.0112631
-0.011157
-0.00941872
0.00619689
9.10573e-05
0.0796763
0.0807303
-0.00243531
0.0688655
0.106528
-0.00184067
-0.00232062
-0.00239251
-0.000822284
0.00824273
-0.123859
0.316864
0.0184624
-0.472847
-0.00302362
0.478727
-0.420078
-0.0021019
-0.433549
-0.000215201
-0.427859
-0.000176138
-0.429186
0.000940867
0.429978
-0.441099
0.00018883
-0.421971
0.000627011
0.422424
-0.422179
-0.000402937
0.422243
-0.000273256
8.902e-05
0.000457737
0.00116115
0.0018968
0.00251842
0.000135947
-7.57502e-05
-0.00256022
-0.00244071
-0.00921151
-0.011595
-0.00243155
-0.00249854
3.97293e-05
5.22193e-05
0.000307921
0.000128563
0.000329725
0.00026089
0.000336021
0.000403609
0.000380318
0.000258742
0.00155842
0.00190064
0.00249608
0.00908701
-0.000508349
0.0641889
-0.330274
-0.0835617
-0.000117382
-0.0312237
0.141846
-0.144768
-0.470847
-0.170437
-0.00274646
0.0411876
-0.000219395
-0.333585
-0.141364
-0.093479
0.213451
0.0257623
-0.0235891
-0.0413677
0.120396
0.00438038
-0.0823746
-0.102547
0.103036
0.000229924
-0.0910746
-0.108081
0.0955506
0.000564518
-0.117099
-0.122493
0.0257605
-0.0070746
0.00114313
0.00145968
0.412092
-0.37263
0.00250485
0.385786
-0.0140284
0.0103407
-0.487453
0.00177877
-0.302651
0.310334
-0.00262663
-0.294678
-0.513201
0.443955
-0.0278687
0.044955
0.166839
0.00175403
0.359014
0.266757
0.300323
-0.398902
0.00467699
-0.337935
0.0106497
-0.374168
0.00803628
-0.358498
0.0105389
-0.360275
0.00907841
-0.384469
0.280009
0.273776
-0.0192694
-0.48208
-0.387624
0.171176
-0.119059
0.149368
0.0838981
0.0996919
-0.146349
0.041249
0.0312998
-0.15793
0.0623447
0.114334
-0.136964
0.214627
-0.11498
0.0179085
-0.127197
0.0221623
-0.138739
-0.108728
0.0212888
-0.00880106
-0.00201945
-0.00138491
-0.000306609
0.000311898
0.000382119
0.000518495
0.00126485
0.00260845
-0.00468036
0.00131304
-0.0697142
0.0823108
0.000599644
0.016607
0.0119172
0.00960256
-0.119812
-0.00879016
0.128033
-0.105398
-0.0577022
0.129877
-0.141495
-0.193342
-0.218219
0.153877
0.158893
-0.00952316
-0.0133928
-0.0433865
0.00504499
0.162891
-0.0296219
-0.038159
-0.0215185
0.1166
0.116683
-0.0383349
-0.0293501
0.149902
-0.0823093
-0.17427
-0.0827416
0.160472
-0.0160876
-0.0170658
-0.0208502
-0.00553607
0.00172079
0.275575
-0.0232575
0.0106012
-0.000449239
0.000350993
0.000572535
0.000354302
-4.60051e-05
-0.00070554
-0.00177298
-0.000245056
-0.00126132
0.000329391
-0.0112385
-0.00419384
0.00612385
-0.0157836
-0.00758969
-0.00749787
-0.209465
0.201295
-0.00575467
-0.00471167
0.00981146
-0.00483252
-0.0044754
0.034078
0.0709914
0.0363176
0.253174
-0.127459
0.0163136
0.132973
0.167903
-0.0666361
0.00665428
-0.00242033
0.0110321
-0.00269181
0.00127711
-0.0192168
-0.00381676
0.000133969
-4.56726e-06
-0.000522522
-0.00120604
-0.000829065
-0.00208717
0.00147714
0.00281675
0.000611565
-0.00530569
-0.00111968
-0.000242272
-0.000211922
-0.000380259
0.000555033
0.0075545
0.00234808
0.00387283
0.0022175
0.000842245
1.92155e-05
0.000762483
0.000805675
0.00170234
0.002985
-0.410733
0.373501
-0.375808
0.376642
-0.376195
0.00192764
-0.416578
0.416579
0.00444437
0.00293655
0.00181569
0.000805487
0.407527
0.00246161
-0.00379065
0.128978
-0.00277949
0.00240847
0.0115672
-0.0190134
0.136499
0.10719
-0.0474046
0.0188536
-0.000401843
-0.000170456
0.0699754
-0.00240931
-0.000142541
0.0493742
-0.149365
0.0433094
0.000519607
0.0173444
0.01269
0.00135062
-0.01325
0.00536996
0.0116672
-0.047504
-0.0436244
0.136968
-0.0578385
-0.105292
-0.0191803
0.129338
-0.00861832
0.0116523
0.00931037
-0.00648677
-0.000352984
0.00254664
0.00931025
-0.00368438
-0.00407464
-0.00108721
-0.000636908
-0.000186315
0.00117401
0.000748448
0.000632643
0.000425161
0.418528
-0.418753
0.37684
-0.377181
0.377496
-0.379009
0.00182699
-0.420865
0.419491
0.00136238
0.000557698
3.15672e-05
-0.000369441
0.000540251
-0.00107161
0.000548287
0.000241779
0.000439062
0.000336976
0.000646363
0.000217765
0.000681261
0.0020117
0.0112601
0.0101987
0.0366293
0.00174047
0.000742829
0.000140096
-0.00076038
-0.00272348
-0.00113721
-0.0011408
0.000127052
-0.000263888
-0.000206267
0.000243772
0.000271044
0.000263402
1.85086e-05
-0.00109898
-0.0029201
-0.00305618
-0.00118966
1.54373e-05
0.000110469
0.000196074
0.00030213
0.000414339
0.000733696
0.00063267
0.00058742
0.00130473
0.00111319
0.000607708
0.00176907
0.00339333
0.00138797
0.00205178
0.0491108
-0.0100274
0.0044205
0.00143465
0.00537088
0.108569
-0.00505553
-0.0156815
0.0776745
0.0233015
-0.333732
-0.116092
-0.254122
0.227744
-0.155035
-0.166002
0.203862
-0.270205
-0.0145466
-0.0197846
-0.224609
0.197781
-0.00315406
-0.0110401
-0.00114264
0.00404153
0.00566042
0.0826896
0.0258028
-0.15341
-0.131824
0.250449
0.024952
-0.0592395
-0.0171934
0.103445
0.00337715
-0.118187
-0.0766206
0.0778025
-0.000279612
-0.123733
-0.0850366
0.0676037
-0.00111955
0.107758
0.103655
0.00620548
0.129564
-0.125946
0.000486654
-0.113815
-0.000631459
-0.00262129
-0.000446198
-3.7313e-05
0.000178205
0.000196991
0.000171867
0.000138292
4.06924e-05
-0.00105065
-0.0028622
-0.00150765
-0.325282
0.31092
-0.000680948
-0.323709
0.316342
0.475027
-0.479857
0.475603
-0.485261
0.000280214
-0.382137
0.00258129
0.378263
-0.000364073
-0.378266
-0.000214723
0.378382
0.00204585
0.00229583
-0.278526
0.000793452
0.282613
-0.304319
0.000445379
-0.496204
0.00043554
0.498447
-0.434647
-0.000158442
-0.437628
0.000460752
-0.432957
-0.000689688
-0.426586
-0.00131503
0.422556
-0.438403
0.000110821
0.420008
-0.0011818
-0.413409
0.412408
-0.00121968
-0.427359
0.431931
-0.417514
-0.000152147
0.000427025
0.00186952
0.00157244
0.000811653
0.000270768
-0.000220641
-0.00108578
-0.00118643
-0.000166171
0.000852882
0.00211134
0.0021624
0.00466707
-0.325486
0.316177
0.000949775
-0.330584
0.311957
0.475352
-0.496017
0.472629
-0.505235
0.0127733
-0.432288
0.0398826
0.376493
0.00244457
-0.396323
0.0114233
0.379695
0.000713619
0.00709082
-0.275345
0.00571032
0.293603
-0.31098
0.00154329
-0.492146
0.00273337
0.497398
-0.42592
-0.00169545
0.416842
0.00379505
-0.471361
0.275189
-0.00111417
-0.317555
0.28211
-0.295506
0.0154399
-0.0361061
-0.0180119
-0.0312918
-0.0558589
0.35108
-0.497995
0.107894
-0.0795536
-0.0308993
-0.0117573
-0.00432869
-0.00254216
-0.00414453
-0.00109153
0.0663868
0.684694
0.343299
-0.178236
0.12017
0.0614495
0.390764
-0.338934
0.368187
-0.0219274
-0.2402
0.0116522
0.434544
-0.410869
-0.00109847
-0.407779
-0.000105249
-0.412379
-0.000256717
-0.42215
0.00183262
0.425929
-0.435972
0.000423898
-0.420423
0.00172308
0.422302
0.0016258
0.00110266
0.443057
0.00247083
0.437977
-0.000343688
-0.00280009
-0.00527595
-0.0179312
0.00285485
0.240227
0.0167
0.0208854
0.0827936
0.1455
-0.201204
-0.00056736
-0.298485
0.00102977
-0.494243
-0.00228555
0.491252
-0.431201
-0.000807816
-0.43846
-4.48074e-05
-0.432433
-3.87068e-05
-0.430853
0.000363849
0.431159
-0.442812
-3.19439e-06
0.443032
-6.47375e-05
0.000407053
0.443558
-2.87972e-05
-0.000173019
-0.000865939
-0.00229607
0.427192
-0.00454556
0.403062
0.0240911
0.0123413
0.304065
0.0120624
0.0071699
-0.000531963
0.308923
0.00118309
0.0048587
-0.277883
-0.000360505
-0.303262
-0.000161378
-0.496454
-0.000197187
0.496619
-0.434784
-2.14058e-05
-0.438983
0.000276354
-0.434108
-0.000271942
-0.430096
-0.000574336
0.429358
-0.44306
-0.000444983
0.436696
-0.00094518
-0.000408338
2.6382e-06
0.000140494
0.000225323
0.000423303
0.00125256
0.00235354
0.00127164
0.00125278
0.000623653
0.00110152
-0.00157659
-0.000617385
0.000136444
0.000441543
0.000520594
0.000472855
0.000334282
0.00054736
0.0010412
0.00311277
0.00264034
-0.329948
-0.00858435
-0.323214
0.359038
-0.00738773
-0.340655
-0.348401
0.365985
0.342186
-0.00725105
-0.325185
-0.37139
0.388897
-0.349532
-0.00887298
-0.312673
0.351944
0.370179
0.364777
0.356784
-0.0081415
-0.34418
-0.319618
0.00267229
0.348607
-0.00673861
-0.365225
-0.333086
0.00119733
0.344552
-0.00247327
-0.373534
-0.339022
-0.348347
-0.356483
-0.00281593
0.35555
0.363076
0.00124596
0.337625
-0.00274943
-0.330811
-0.380055
0.386483
0.00115461
-0.305188
-0.458459
-0.00627883
0.316745
0.00214784
-0.297907
-0.440837
-0.00713833
0.334193
0.393609
-0.283078
0.0228037
-0.275183
-0.00971941
-0.278911
0.022478
-0.274346
-0.00967136
-0.280001
0.0236092
-0.279527
0.388861
0.338284
-0.0105639
0.0152635
-0.00139455
-0.208718
-0.250199
-0.236912
-0.262656
-0.250093
-0.252081
-0.258968
-0.212641
-0.329076
-0.260202
-0.237821
-0.249472
-0.168541
-0.0728132
-0.090381
0.149582
-0.167295
0.393621
0.397985
0.39492
0.396595
0.411071
0.386384
-0.162077
0.130666
-0.0725169
-0.168698
-0.090831
0.163032
-0.0168884
-0.00348225
-0.00348707
-0.00163348
-0.000737411
0.000386597
0.000384701
0.360546
-3.68151e-05
-0.351801
-0.360247
-0.333244
-0.383996
-0.000271019
0.335196
0.384519
0.000477079
-0.307782
-0.464118
-0.00229225
0.312518
0.467376
0.00154529
0.0608277
-0.0596833
-0.000676536
0.0606566
-0.06001
-7.26466e-05
0.0614406
-0.0594719
0.00218541
0.0680409
-0.053582
0.0128266
0.0951549
0.0338794
0.0189034
0.0062658
0.00291525
0.000476381
-7.56832e-05
-0.000473161
-3.83618e-05
-0.00125287
-0.000919868
-0.00278071
-0.061745
0.469864
0.00313451
0.058008
-0.0804915
-0.0126502
-0.0219031
-0.00858035
-0.0526726
0.036402
0.0109084
-0.383455
0.0237011
-0.264712
-0.0107691
0.0157564
0.000674801
-0.167964
-0.2861
-0.278426
-0.233007
-0.0735692
-0.157125
-0.0633971
-0.125354
-0.356329
0.0608091
0.502823
0.383948
0.413582
-0.161666
-0.344254
-0.207759
-0.000534017
0.0349358
0.0228049
0.0130502
0.00495428
0.00161546
-0.000182725
-0.308705
-0.468126
0.466222
0.311215
0.000341813
0.00191109
0.00575533
0.006318
0.0196546
0.00719326
0.00129132
-0.000263256
9.57342e-05
0.38195
0.0016336
-0.334278
-0.387064
-0.307667
-0.474678
0.00102594
0.311839
0.465905
0.00240605
0.00153723
0.00164417
0.00113368
0.00174628
0.00303118
-0.42403
0.379893
-0.380312
-0.00589764
0.00247753
0.00118887
-0.00264308
0.000611785
0.000179708
0.420231
0.000607652
0.0004099
0.419536
0.00266854
0.000250856
0.000808861
0.00149784
-0.000904682
-1.78714e-05
0.000485604
8.39674e-05
0.000306756
0.000138541
3.06993e-05
0.000373979
0.00138247
0.000613724
0.00013691
6.05353e-05
-0.000780654
-0.00024841
-0.000262382
-0.000860645
-6.95709e-05
0.000186508
0.000174188
-0.000447813
-0.00034843
-0.000202675
-0.000170579
-0.00372346
-0.00384418
-0.0169859
-0.00649303
0.371919
-0.00243418
0.000221721
0.000134437
-0.00171882
-0.00184285
-0.00102717
-0.00700145
-0.00638521
-0.00483221
-0.000960462
-0.336921
0.303123
0.00463877
-0.334588
-0.0137724
-0.0136723
-0.0651708
-0.0831508
-0.304234
-0.306512
-0.491579
0.123213
0.0468896
0.254636
-0.0896434
0.132021
-0.0148229
-0.150831
0.135731
-0.0033975
0.105894
-0.00345328
0.127668
-0.140897
-0.0118996
-0.00374627
-0.00462547
0.00202791
-0.0170388
0.113395
-0.00567112
0.00419868
0.00424271
0.00272267
0.00154518
0.000671203
0.000574152
0.00604417
0.00519823
0.0129725
0.0112074
0.0320244
0.00662847
0.00299793
0.00101215
0.303782
-0.306347
0.00112224
-0.495733
0.00136247
0.500708
-0.432868
-0.000639927
-0.433182
0.00045937
0.428159
-0.00028008
1.58354e-05
0.000312917
0.000438579
0.00111099
0.00234223
0.00140455
0.000873946
0.000484684
0.000188275
9.3059e-05
0.000142997
0.000166442
0.000155632
0.426195
5.5922e-06
0.431855
3.10414e-05
0.414291
0.397773
0.0016106
0.396236
0.238977
0.00629941
0.00137011
-0.000159495
7.86439e-05
-0.000841025
0.43332
0.00151187
-0.00103662
0.281981
0.000174415
0.000536132
-0.000303786
0.304208
0.00106358
0.00350426
-0.27741
0.00276775
0.286924
0.000161482
0.00215057
0.000971231
0.00064417
-8.30164e-05
0.434932
0.000157192
0.434333
-5.6351e-06
0.000641121
0.435447
0.000294005
0.439482
-0.000139441
0.00182702
0.435251
-0.00155558
0.30308
-0.000373061
0.00605715
-0.278556
0.00955991
0.298499
-0.00967187
-0.000323228
-0.010686
-0.0360599
-0.0844318
0.0031442
-0.0122817
-0.00532111
0.00406022
0.00367354
0.432487
-0.00064735
-0.0013855
-0.00135835
-0.000291377
-0.00486148
-0.000240489
0.000664789
0.000510733
0.438465
0.432858
-0.000329418
-6.66822e-05
-0.000876188
-0.00168259
-0.00186353
-0.00799667
-0.00299185
-0.00310871
-0.00165178
-0.000631881
0.441385
-0.00125354
-0.000214975
0.000396062
-0.000289343
-0.00154192
-0.00550956
-0.0166494
-0.00399404
9.89299e-05
0.000406772
0.00181508
-0.00210702
0.00244685
0.00421443
-0.00733201
0.0324489
0.0671987
-0.0488534
0.348467
-0.00167918
-0.0232651
-0.0341229
-0.0189571
-0.0065493
-3.29888e-05
0.00647197
0.0187974
0.0338682
0.0364361
0.000660758
0.0178989
0.0177394
-0.329141
-0.167439
-0.344689
-0.16917
-0.000470351
0.0212586
0.00540667
0.00226519
0.3223
0.382992
-0.00144599
0.00311484
0.00127721
0.00254447
0.00139406
0.00301844
-0.00388039
-0.020645
0.153778
0.352593
0.0147449
-0.000490886
0.00100161
0.00102612
0.000516982
0.000601915
0.000256537
0.000256478
0.000323936
-0.000578637
0.000117656
8.18948e-05
0.000865193
-0.000416551
-0.000686662
-0.363316
0.00256942
-0.353859
0.341219
0.00686378
-0.355558
-0.367528
0.350609
0.328189
0.00458412
-0.334835
-0.391391
0.375202
-0.000705536
0.313709
0.463578
0.00517129
-0.00106744
-0.00126594
0.00100894
0.0017266
0.00447701
0.0772509
0.122229
0.187082
0.442331
0.0287084
0.228884
0.338874
-0.0156258
-0.00428298
-0.0112757
-0.00306578
-0.00158662
-0.000227338
0.333134
0.357364
0.349251
0.339122
0.00275723
-0.379129
-0.345178
-0.000901086
0.333914
0.00725511
-0.381044
-0.350382
-0.00223422
0.322294
0.343499
0.305762
-0.0015625
-0.00242696
-0.00270702
-0.000825924
0.000259874
0.00166755
0.000323126
0.000266557
-0.000815074
-0.000345728
-0.0031189
0.0294781
-0.00323434
-0.00203503
-0.00492455
-0.00389613
-0.00241227
-0.00411005
-0.00175858
0.0843189
-0.00200284
0.00188052
0.000256584
-8.65644e-06
0.00510826
0.00447183
-0.0315787
0.181393
-0.0788374
-0.306277
-0.387902
0.0290631
-0.177547
0.0737446
0.0233377
-0.109401
-0.117641
-0.0128473
-0.0194272
0.129071
0.118288
-0.0111074
-0.115074
-0.00199096
0.115574
-0.000585567
0.00150615
-0.000114209
0.00135045
0.00330301
0.00343668
0.00236232
0.000690698
0.000550033
-0.00133288
-0.00115429
-0.000188077
-0.000694533
-1.78645e-05
-0.000151324
0.00082671
0.00180564
0.00167951
-0.00235661
0.00307068
0.00657656
-0.0123333
0.385799
-0.0253166
0.0184356
-0.429365
0.00530251
0.00469199
0.0350594
0.0040583
0.00861305
0.0263184
-0.00193188
-0.000738517
-0.00260041
0.00680001
0.0741775
-0.00480008
-0.00276115
-0.00140829
0.0019047
-0.188136
0.218175
-0.00649759
0.00141813
-0.00892283
-0.0224191
-0.0253644
-0.00471429
-0.00223627
0.0904732
-0.00230504
-0.00281598
-0.00530789
-0.000877525
-0.00310132
0.0797337
-0.00520028
-0.00298867
0.00680691
0.00519596
-0.00118932
-0.00133105
-0.000867123
-0.00220085
0.00203199
0.00553592
0.0043951
0.00354351
-0.00874747
0.0173218
0.0173985
0.0201011
0.0268121
0.385788
0.0525625
0.00819438
-0.0130591
-0.00467452
-0.000261486
0.0039273
0.0117225
0.00178521
0.379964
0.318724
0.00115535
-7.74263e-05
0.000352846
0.000357479
0.316685
0.377459
0.000118785
-0.377076
-0.342086
0.3419
0.000341011
0.352789
0.00036117
0.00760722
0.0211986
0.00213898
0.00207112
0.00615954
0.000391376
0.000501522
-0.00614317
-0.0186998
-0.00524336
0.313876
0.335074
0.322181
-0.00590913
-0.00193472
-0.000314677
-9.8797e-05
-0.000295597
0.373736
0.315207
-0.000135946
0.000365454
0.000108622
-0.000733334
-0.000837544
0.312641
0.365102
-0.0017922
0.0010557
7.16829e-05
-0.000441896
-0.00188073
-0.0104462
-0.0552946
-0.357549
-0.129001
-0.0252246
-0.00343011
-0.000499086
0.000277686
-0.000295879
-0.000630249
0.0007888
-0.00523194
-0.013583
0.0127371
-0.0166367
-0.0332869
-0.0223929
0.0125617
0.230052
0.330925
-0.0160903
0.00275866
0.220092
0.33272
0.00189739
0.209542
0.346022
0.165046
0.00103688
-0.0019438
0.356009
-0.00214191
0.0201705
0.12146
0.0209635
0.0448102
0.0474793
0.045105
0.0597261
0.0376778
-0.000989825
-0.00491436
0.0459101
-0.0215911
-0.0100299
-0.00778001
0.0490571
0.00477096
0.0338965
0.0296991
0.207439
0.175099
0.194421
0.185625
0.190169
0.0411385
0.00667502
-0.000798626
-0.00697913
-0.0839426
-0.283789
-0.267942
1.5525e-05
0.0114372
0.171203
0.000112723
0.434291
0.00326862
0.000579524
0.000187139
-0.000648343
-0.0110119
0.00181371
0.305404
0.437205
0.432897
-0.000219254
-0.0107738
-0.427622
0.00120468
0.0015262
0.00141318
-0.0444091
0.477324
0.0126937
0.00675973
0.00226226
0.00586412
0.0948486
0.00333829
0.214771
-0.254329
-0.0316066
-0.449382
-0.000210988
-0.0214832
0.10743
0.000720034
-0.455736
0.411696
0.00560146
0.232753
0.0153715
0.088966
0.216766
0.0347584
0.0370192
0.00177127
0.00151473
-0.00173905
0.293222
0.0132852
-0.0185344
-0.0262638
-0.00841367
0.00214816
0.000459045
0.00019677
0.000350433
0.000411358
0.000131299
-0.000967427
-0.00151306
-0.0135862
-0.00687769
0.243836
0.0197299
-0.408741
0.445355
0.0270007
0.321855
0.00204887
-0.298057
0.30852
0.0302517
-0.27058
0.293076
0.00585295
-0.282151
0.288294
0.00365861
-0.28467
0.288142
0.00261935
-0.28636
0.288032
-0.000612425
-0.289655
0.284853
-0.00721208
-0.29649
0.272337
-0.0335491
-0.311838
0.20332
-0.148408
-0.394798
-0.120257
-0.370218
0.0231176
0.241945
-0.243803
0.0138883
0.252939
-0.25027
0.00519881
0.254072
-0.261223
-0.00294597
0.25328
-0.260098
-0.0215071
0.24456
0.256761
0.395809
0.100156
-0.285704
0.0037312
0.419989
-0.000773169
-0.427976
-0.00190483
0.410352
-0.00250792
-0.414376
-7.11203e-05
0.411959
0.000429429
-0.405781
0.00130447
0.417639
-0.0123354
-0.438917
-0.0190614
0.342428
-0.0608112
0.0786925
0.178517
-0.326785
0.332848
-0.395709
0.372669
-0.38481
0.378642
-0.379062
0.380353
-0.376141
0.381658
-0.374402
0.380219
-0.376429
0.381579
-0.374214
0.3916
-0.332611
0.32168
-0.158571
0.313514