/*--------------------------------*- C++ -*----------------------------------*\
| =========                 |                                                 |
| \\      /  F ield         | OpenFOAM: The Open Source CFD Toolbox           |
|  \\    /   O peration     | Version:  2306                                  |
|   \\  /    A nd           | Website:  www.openfoam.com                      |
|    \\/     M anipulation  |                                                 |
\*---------------------------------------------------------------------------*/
FoamFile
{
    version     2.0;
    format      ascii;
    arch        "LSB;label=32;scalar=64";
    class       volScalarField;
    location    "1.8";
    object      gradTz;
}
// * * * * * * * * * * * * * * * * * * * * * * * * * * * * * * * * * * * * * //

dimensions      [0 -1 0 1 0 0 0];

internalField   nonuniform List<scalar> 
5322
(
-0.871966
-0.890173
-0.918992
-0.99622
-0.988395
-0.985527
-0.984667
-0.985467
-0.98831
-0.996401
-0.985035
-0.987835
-0.743428
-1.02493
-1.12073
-0.894632
-1.05752
-0.791704
-1.11469
-1.12485
-1.13194
-1.12685
-1.12737
-1.13332
-1.13322
-1.12697
-1.12734
-1.13259
-1.13298
-1.12737
-1.12712
-1.12926
-1.12147
-1.10359
-1.04927
-0.861421
-0.979797
-0.998576
-1.03077
-0.72589
-0.958567
-0.989259
-0.712878
-0.990722
-0.981035
-0.724718
-1.00445
-0.948129
-0.715061
-0.982054
-1.09985
-0.789262
-1.07409
-1.00914
-0.946193
-0.959438
-1.13809
-0.944568
-0.956097
-0.960459
-1.15197
-0.957301
-0.956491
-0.93677
-1.15116
-0.989478
-0.951926
-0.889685
-1.12382
-1.05045
-0.788472
-1.22876
-1.17026
-1.15363
-1.16588
-1.16021
-1.15961
-1.15553
-1.17058
-1.10834
-1.05432
-0.810422
-0.840033
-1.13554
-0.774445
-1.02963
-1.38951
-0.848761
-0.870131
-0.781955
-0.988858
-0.884333
-0.933059
-0.925672
-1.12377
-0.97314
-0.969777
-0.98711
-1.41416
-0.826059
-0.832983
-0.794734
-0.994584
-1.11055
-1.20809
-0.941143
-0.998463
-1.00078
-0.997478
-0.998835
-0.999184
-0.998843
-0.997715
-1.00116
-1.15277
-1.14159
-0.798883
-0.86569
-1.15306
-0.954106
-0.845715
-1.02865
-1.01423
-1.42888
-1.06439
-1.39914
-1.00458
-1.04898
-1.37513
-1.00034
-1.02665
-1.38755
-1.01583
-1.00753
-1.39389
-1.0302
-1.01377
-1.43113
-1.06517
-1.39924
-1.00708
-0.848595
-0.954199
-0.853572
-0.800366
-1.1532
-0.865728
-0.859642
-0.78974
-0.794943
-1.15091
-0.860817
-0.857491
-0.790188
-0.796851
-1.15062
-0.862545
-0.853169
-0.848301
-1.12056
-0.893316
-1.0589
-1.23134
-1.20354
-0.76354
-1.1149
-0.791777
-1.07248
-0.73433
-0.993099
-1.02617
-0.953225
-0.987077
-1.14568
-0.94238
-1.16058
-1.15247
-1.11302
-0.930212
-1.11109
-1.13725
-1.1396
-1.12923
-0.944774
-1.13052
-1.13405
-1.13549
-1.13171
-0.948178
-1.13274
-1.13408
-1.13507
-1.13177
-0.949598
-1.13321
-1.13471
-1.13621
-1.13049
-0.950719
-1.13279
-1.13588
-1.13844
-1.1282
-0.951424
-1.13148
-1.13551
-1.13938
-1.1266
-0.948436
-1.13127
-1.11554
-1.11923
-0.984892
-1.41495
-0.826372
-0.823445
-0.797478
-1.12328
-1.12019
-0.933137
-0.925923
-1.12031
-0.98087
-0.957889
-0.993349
-1.40993
-0.830781
-0.823294
-0.798944
-0.981307
-1.1169
-0.969412
-0.980776
-0.999048
-0.997301
-0.999267
-0.99958
-0.999084
-0.997813
-1.00113
-1.15272
-1.14187
-0.795362
-0.792899
-0.792283
-0.795313
-1.15048
-0.857426
-0.862244
-0.867524
-1.02639
-1.44184
-0.857667
-1.15052
-0.861979
-1.43376
-1.04585
-1.37051
-0.999626
-0.867732
-1.0263
-1.37082
-0.731851
-0.983192
-0.94296
-0.941867
-0.987377
-1.15162
-1.11321
-1.13891
-1.12926
-1.13517
-1.13159
-1.13498
-1.13169
-1.13636
-1.1304
-1.139
-1.12786
-1.14065
-1.12544
-1.12624
-0.972248
-1.41433
-0.990896
-0.969419
-1.11294
-1.13397
-0.948926
-1.13514
-1.13287
-0.951857
-1.13636
-1.13333
-0.951027
-1.13539
-1.1333
-0.949772
-1.13479
-1.13253
-0.948245
-1.13502
-1.12987
-0.944757
-1.13883
-1.1099
-0.929956
-1.16216
-0.953305
-1.16086
-1.11115
-0.929962
-1.1528
-0.987134
-1.14542
-0.951153
-0.740771
-1.02838
-0.894814
-1.16586
-1.11547
-1.13674
-1.13584
-1.1345
-1.1358
-1.13581
-1.1348
-1.13783
-1.13293
-1.14234
-1.12655
-1.14805
-1.11484
-1.12907
-0.977557
-1.3937
-1.03199
-0.934051
-1.19835
-1.21746
-0.918228
-1.21979
-1.21501
-0.921608
-1.21896
-1.21354
-0.919815
-1.21568
-1.21287
-0.918322
-1.21493
-1.21362
-0.91744
-1.21549
-1.21343
-0.915502
-1.22038
-1.20395
-0.902732
-1.23116
-1.05869
-1.12017
-0.992741
-1.04881
-0.91505
-1.07598
-0.732244
-0.835733
-0.950621
-0.872666
-1.19306
-1.1619
-1.11934
-1.1118
-0.927671
-1.15307
-1.16982
-0.908299
-1.15031
-1.01035
-0.960913
-0.944543
-1.39219
-1.12337
-1.06504
-1.42938
-1.02466
-0.955245
-0.975575
-0.948132
-1.16209
-1.10987
-0.939885
-1.13964
-1.12986
-1.13562
-1.13257
-0.93444
-1.13572
-1.13271
-1.13711
-1.13134
-0.932029
-1.13943
-1.12856
-1.13977
-1.12735
-0.926925
-0.93414
-0.935449
-0.935538
-0.937227
-0.93375
-1.14309
-1.12866
-0.950021
-1.13838
-1.12706
-1.14587
-1.1214
-0.945232
-1.14269
-1.09718
-1.22159
-0.937886
-1.38215
-0.839888
-0.80364
-0.817244
-1.08134
-0.87797
-0.781534
-1.14209
-0.764973
-1.09969
-1.14046
-0.763994
-1.12316
-1.13403
-0.76222
-1.13204
-1.13443
-0.76181
-1.12869
-1.12734
-0.762319
-1.13308
-1.12722
-0.763674
-1.13067
-1.1189
-0.763077
-1.12061
-0.858731
-0.827949
-1.03145
-0.90054
-1.00361
-1.04076
-1.16045
-1.17254
-1.16195
-1.16876
-1.1334
-1.13571
-0.946259
-1.13755
-1.13686
-1.13427
-0.943481
-1.13087
-0.937861
-0.887353
-0.890432
-0.791642
-0.92304
-0.895996
-0.859548
-1.00204
-0.994755
-0.98448
-0.993606
-0.771593
-1.25729
-0.696349
-0.934775
-0.992466
-0.969909
-0.973937
-1.00205
-0.986951
-0.983903
-1.00349
-0.973846
-1.03982
-0.914049
-1.02892
-1.03238
-1.16661
-1.16537
-1.16966
-1.16204
-1.13562
-1.13351
-0.949076
-1.13637
-1.13932
-1.13522
-0.947643
-1.13464
-0.935492
-0.887234
-0.887046
-0.788005
-0.919943
-0.909905
-0.871115
-0.919842
-0.889543
-0.854092
-1.02618
-0.913124
-0.78889
-0.995281
-0.99983
-0.988684
-0.988479
-0.932696
-0.905389
-0.899
-0.789772
-0.984312
-0.971482
-1.11258
-0.938464
-1.13981
-1.1378
-1.1308
-0.944917
-1.12893
-0.934046
-1.13568
-1.13452
-1.13286
-0.948497
-1.13185
-0.932487
-1.13507
-1.13513
-1.13277
-0.950145
-1.13267
-0.931434
-1.13584
-1.1369
-1.13129
-0.951535
-1.13254
-0.929926
-1.13672
-1.14001
-1.1278
-0.952345
-1.13219
-0.927578
-1.13413
-1.1419
-1.12482
-0.948604
-1.13287
-0.922433
-1.11261
-1.12329
-0.983291
-0.967683
-0.983449
-0.802396
-0.826464
-0.794217
-0.752483
-1.07822
-0.768131
-1.03684
-0.852562
-0.816926
-1.06745
-1.09447
-0.920108
-0.970397
-0.970349
-0.978012
-0.998026
-0.978716
-0.980915
-1.0045
-0.976628
-1.00423
-0.982456
-0.975393
-0.977968
-0.981958
-0.990393
-0.978463
-0.97931
-0.745139
-1.01772
-0.900787
-0.936815
-0.941198
-0.95932
-0.991258
-1.14835
-0.865725
-1.06671
-1.0533
-1.06465
-1.08037
-0.846381
-1.06328
-1.0671
-1.06203
-1.14944
-0.776735
-0.781844
-0.780463
-0.779222
-0.776718
-0.773969
-1.15117
-0.779213
-0.778394
-0.778667
-1.15123
-0.780513
-1.15607
-1.15741
-1.15501
-1.0247
-1.02286
-0.950269
-0.937156
-0.934675
-0.935059
-0.935237
-0.934905
-0.886709
-0.788124
-0.916852
-0.906762
-0.867111
-1.03463
-1.02924
-1.18003
-1.1437
-1.2046
-0.92387
-0.995599
-0.849277
-1.04412
-0.922012
-0.978757
-0.99899
-0.972805
-0.970163
-0.971303
-1.00721
-0.993982
-0.978891
-0.929599
-0.890498
-0.898811
-0.934674
-0.737505
-0.807628
-1.09258
-0.989497
-1.03639
-1.06251
-0.703745
-0.878442
-0.926517
-1.09482
-0.729353
-0.915127
-0.931647
-1.10011
-0.732287
-0.903625
-0.942595
-1.09602
-0.746093
-0.89277
-0.997798
-1.36306
-1.01736
-0.992735
-1.24815
-1.20986
-0.985353
-0.745619
-1.07414
-1.0099
-0.945717
-0.957438
-0.950022
-0.715379
-0.980323
-1.10035
-0.789032
-1.05502
-0.810876
-0.84078
-1.13593
-1.07778
-0.87257
-1.14354
-1.11031
-0.896126
-1.1367
-1.12429
-0.898734
-1.13319
-1.12819
-0.900387
-1.13109
-1.1295
-0.899837
-1.13077
-1.12966
-0.90163
-1.12889
-1.13037
-0.886626
-1.1253
-1.11419
-0.86442
-1.07294
-0.910377
-1.0475
-0.991564
-1.05834
-1.23155
-1.20324
-0.902733
-1.16806
-0.892965
-1.12067
-1.02796
-0.740922
-0.949949
-0.983857
-1.14569
-0.93826
-0.985589
-0.986857
-0.997116
-0.988198
-0.990743
-0.987283
-0.985045
-0.919443
-0.892372
-0.856467
-1.03816
-1.03884
-0.916864
-0.914495
-0.974863
-0.99134
-1.13609
-1.13742
-0.936237
-1.13224
-1.13443
-0.950344
-1.1329
-1.13515
-0.951619
-1.13253
-1.13621
-0.952147
-1.1311
-1.135
-0.94834
-1.12906
-0.994029
-1.00308
-0.982573
-0.988308
-0.976701
-0.972024
-0.97385
-0.976278
-0.979004
-0.983048
-0.99159
-0.98155
-0.982494
-0.740654
-0.98386
-0.937811
-0.986718
-0.98569
-0.996757
-0.988019
-0.984358
-0.981946
-0.979641
-0.977701
-0.980239
-1.02377
-1.01797
-0.74313
-1.32611
-0.999833
-0.95965
-0.932887
-1.1001
-0.733544
-0.735329
-0.804904
-1.147
-0.767451
-0.779022
-0.794099
-1.15354
-0.770955
-0.782509
-0.787226
-1.14871
-0.78731
-0.800819
-0.869546
-1.4492
-1.03105
-1.00664
-1.01144
-1.00234
-0.849509
-0.818658
-0.872731
-1.44384
-0.863457
-0.865093
-1.15122
-0.958889
-0.955964
-0.93589
-0.995359
-0.712384
-0.985359
-0.986104
-0.726225
-1.0006
-0.947091
-0.955512
-0.957105
-1.16128
-1.1574
-1.16771
-1.15184
-0.95649
-0.902242
-0.982129
-1.15299
-0.966069
-0.733036
-1.02588
-0.900141
-0.731787
-1.22588
-0.676563
-0.9347
-0.819309
-1.00667
-1.01294
-0.846221
-1.03675
-1.02708
-0.870388
-1.03053
-1.03706
-0.853009
-1.03754
-1.02954
-0.873851
-1.02901
-1.03852
-0.851231
-1.03744
-1.03076
-0.872114
-1.02577
-1.04084
-0.848979
-1.01396
-1.02104
-0.829931
-0.951182
-0.693804
-1.25301
-0.901597
-0.772438
-1.43069
-1.01456
-1.06458
-1.39759
-1.00606
-1.04709
-1.37354
-0.998987
-1.02808
-1.38738
-1.0184
-1.0048
-1.39305
-0.747323
-0.958244
-1.1489
-0.94519
-0.953809
-1.15953
-0.930009
-1.11106
-1.11161
-0.938441
-1.13716
-0.915431
-1.13442
-1.21306
-0.789146
-1.21561
-0.761389
-1.2126
-0.787934
-1.21322
-0.760795
-1.21321
-0.787732
-1.21319
-0.76077
-1.21318
-0.787912
-1.2126
-0.761223
-1.21525
-0.788895
-1.21276
-0.762183
-1.21915
-0.790635
-1.20192
-0.760465
-0.895995
-1.14798
-1.12118
-0.943216
-1.16654
-0.910444
-1.16632
-1.13205
-0.938491
-1.16642
-0.911509
-1.16488
-1.13371
-0.937169
-1.16509
-0.911413
-1.16575
-1.13427
-0.936582
-1.16637
-0.911509
-1.16444
-1.13516
-0.937145
-1.16571
-0.911862
-1.16548
-1.13694
-0.938556
-1.16884
-0.911608
-1.165
-1.14205
-0.944224
-1.15464
-0.900134
-1.19906
-1.1527
-0.961012
-0.868921
-0.83495
-0.733151
-0.993072
-1.04888
-0.910541
-1.07329
-0.862067
-0.896194
-0.908002
-0.934838
-0.938913
-0.981159
-1.14614
-0.942719
-0.985005
-0.950309
-1.16599
-0.903179
-1.20303
-0.791799
-1.22009
-0.762928
-0.996069
-0.985976
-0.973533
-1.15359
-1.02299
-1.4327
-0.862227
-1.15053
-0.85792
-0.866427
-1.06549
-1.06068
-1.05243
-1.06138
-1.06791
-1.44139
-1.02405
-0.953628
-0.938299
-0.939607
-0.942356
-1.1411
-1.14266
-0.943862
-0.988308
-0.98055
-0.974394
-1.15222
-0.93044
-1.11291
-1.13785
-0.945093
-1.12976
-1.13468
-0.948708
-1.02743
-0.937006
-0.937975
-0.937375
-0.937528
-0.935098
-0.937367
-0.937217
-0.936521
-0.936008
-0.934784
-0.937337
-0.938553
-1.11345
-1.13797
-1.21965
-1.21299
-1.2149
-1.21239
-0.761682
-1.13079
-0.788608
-1.12913
-0.763156
-1.1318
-0.791576
-1.12556
-0.885452
-0.850593
-1.03791
-0.911703
-1.02846
-1.16744
-0.938476
-1.13633
-0.945002
-1.13317
-1.13456
-0.93665
-1.13311
-0.948529
-1.13265
-1.13313
-0.934554
-1.13271
-0.948225
-1.13362
-1.13368
-0.933289
-1.13422
-0.916837
-1.13525
-1.13359
-0.915478
-1.13894
-1.11255
-0.90359
-1.00241
-1.00284
-0.998212
-0.999019
-0.999264
-0.998931
-0.997797
-1.00127
-1.15279
-1.14132
-0.795964
-0.789493
-0.793896
-0.86048
-1.44045
-1.02426
-1.02494
-1.42797
-0.85999
-0.865075
-1.06753
-1.06483
-1.12391
-1.06408
-1.4335
-1.02274
-0.950205
-1.16716
-0.903534
-1.00029
-0.981156
-1.15517
-1.14916
-0.778468
-0.775903
-1.15122
-0.773328
-0.789037
-1.15079
-0.981664
-0.939556
-0.890569
-0.9444
-1.39045
-1.20111
-0.961396
-1.151
-0.927474
-1.12061
-1.10943
-0.942231
-1.13731
-0.944571
-1.12866
-0.936141
-1.13355
-0.947437
-1.13246
-1.13152
-0.93324
-1.13419
-0.916987
-1.13464
-1.13427
-0.916948
-1.13465
-0.935267
-0.935265
-0.935185
-0.934879
-0.937379
-0.981084
-1.15512
-1.14896
-0.95954
-1.00422
-0.981748
-1.00019
-0.98083
-0.959485
-1.00399
-0.937871
-0.939726
-0.936074
-0.935608
-0.936779
-0.93407
-0.98435
-0.981868
-0.979648
-0.982501
-0.97985
-0.908274
-0.889417
-0.892864
-0.900024
-0.734034
-1.01909
-0.750407
-1.3593
-0.981258
-0.958427
-0.960237
-1.11284
-0.986036
-1.03284
-0.981102
-1.34964
-0.966975
-0.958031
-0.931349
-1.09543
-0.731841
-0.745222
-0.812467
-1.14065
-0.764195
-0.790831
-0.804455
-1.14697
-0.767638
-0.792019
-0.799954
-1.14216
-0.785576
-0.805566
-1.16269
-0.998596
-0.93318
-0.925947
-1.13331
-1.20845
-0.918311
-1.22126
-0.763641
-0.915018
-1.18241
-0.935196
-1.12276
-1.14826
-0.936287
-1.10034
-1.1863
-1.13357
-1.05121
-0.837143
-0.958107
-0.890007
-1.1081
-1.17163
-1.15357
-1.11824
-0.940184
-1.10855
-0.931856
-1.11425
-0.939961
-1.10875
-0.932598
-1.11526
-0.942557
-1.10914
-1.17442
-1.14772
-0.956388
-0.848145
-1.00922
-1.15404
-0.845291
-1.01287
-1.03049
-0.990999
-0.864316
-0.863258
-0.868521
-1.43513
-0.869623
-0.958255
-1.37606
-1.03423
-0.994251
-0.844727
-0.858342
-1.15988
-0.79714
-0.796634
-1.15655
-0.984462
-1.0054
-1.00092
-0.99764
-0.998998
-0.99931
-0.998939
-0.997771
-1.0012
-1.15279
-1.14161
-0.773308
-0.776485
-1.05653
-1.0524
-1.06425
-1.37023
-1.04623
-0.848157
-0.853379
-0.95386
-0.86579
-0.846073
-1.01432
-1.43116
-1.06465
-1.39028
-1.0056
-1.39683
-1.12396
-1.08133
-1.06509
-1.42839
-0.86009
-0.860645
-1.15091
-0.791977
-0.791472
-0.860818
-0.859988
-0.864459
-1.01981
-1.40564
-1.02037
-1.43985
-1.02363
-1.02467
-0.944473
-0.792242
-0.897974
-0.904926
-0.935202
-0.988432
-0.988067
-0.999712
-0.991066
-0.987552
-0.985291
-0.983139
-0.981286
-0.978086
-0.982623
-0.981486
-1.01426
-0.747688
-0.819674
-0.824322
-1.41494
-0.958517
-0.968801
-0.999045
-1.32252
-0.740563
-0.822626
-0.825133
-0.752987
-0.832957
-0.848165
-1.38967
-0.997212
-1.0296
-0.782384
-0.870212
-0.948978
-0.893147
-0.9064
-0.983574
-1.02554
-1.02314
-0.982978
-0.981363
-1.01172
-1.00573
-0.999485
-0.996589
-0.995677
-0.979813
-0.977425
-0.977145
-0.971635
-0.984917
-0.92332
-0.921261
-0.920391
-0.919544
-0.917832
-0.913641
-1.00658
-0.990837
-0.991444
-0.988306
-0.984784
-0.982068
-0.981525
-0.979373
-0.994255
-0.994156
-1.13868
-1.21972
-1.21275
-1.21507
-1.21226
-0.916605
-1.13532
-1.13389
-0.914957
-1.03881
-0.937182
-0.938472
-1.11283
-1.02309
-1.43291
-0.999655
-0.95041
-0.980841
-1.00029
-1.15302
-0.799049
-0.790491
-1.06856
-1.05995
-1.06789
-1.0561
-0.772591
-1.1513
-1.05652
-1.06472
-0.867038
-1.08139
-1.05696
-1.05168
-1.06393
-1.06695
-1.12414
-1.06481
-1.06736
-1.06885
-1.08211
-0.797963
-0.866094
-0.953773
-1.15295
-0.853868
-0.847752
-1.00039
-0.982006
-1.15529
-1.14867
-0.959546
-0.982001
-0.939743
-0.890601
-0.791778
-0.887466
-0.788893
-0.93462
-0.934189
-0.934905
-0.932556
-1.13475
-1.13514
-1.214
-1.21145
-1.21483
-1.21028
-0.918187
-1.1355
-1.13484
-0.917221
-1.04256
-0.887012
-0.787711
-0.88679
-0.787249
-0.934955
-0.93148
-0.936974
-0.933033
-0.936643
-0.931895
-0.93525
-0.933162
-0.884169
-0.788148
-0.930307
-1.04273
-1.0434
-1.04305
-1.04229
-1.03886
-1.02235
-1.00319
-1.00137
-1.02634
-1.00744
-1.00298
-1.02733
-1.00867
-1.00316
-1.00156
-1.02343
-1.02257
-1.00315
-1.0065
-1.00437
-1.00635
-1.00689
-1.0035
-1.02752
-1.00867
-1.00307
-1.02653
-1.00728
-1.00114
-1.02156
-1.03734
-0.930763
-1.11614
-0.74031
-1.16864
-0.996472
-0.97993
-1.1452
-0.787001
-1.15903
-1.06778
-1.03622
-0.977306
-1.34011
-0.969265
-0.962543
-0.90351
-1.07023
-1.08036
-0.851012
-0.963022
-1.07159
-1.07952
-0.989065
-0.968366
-1.33228
-0.98154
-1.0392
-1.04538
-1.048
-1.03972
-0.977397
-1.07011
-0.944704
-0.942734
-1.09618
-0.746645
-0.730925
-0.800072
-1.14245
-0.784971
-0.773878
-0.787307
-1.14919
-0.785922
-0.777369
-0.780404
-1.14411
-0.801606
-0.869785
-1.43843
-1.05859
-0.992798
-0.86692
-0.861997
-1.15648
-0.983651
-1.00517
-1.00159
-1.00296
-1.00337
-1.00294
-1.00141
-1.00416
-1.02323
-1.03877
-0.915727
-1.13411
-1.13481
-0.917318
-1.13468
-1.13465
-1.21373
-1.21143
-1.21449
-1.21017
-0.761028
-1.12901
-0.786825
-1.13161
-0.761036
-1.1305
-0.787374
-1.13127
-0.899087
-0.862047
-1.03347
-0.911754
-1.03307
-1.16453
-0.936064
-1.1331
-0.945457
-1.1355
-1.13446
-0.936046
-1.13065
-0.947665
-1.1342
-0.936071
-1.12967
-0.944963
-1.13904
-1.14002
-0.93901
-1.11473
-0.932025
-1.11068
-1.11306
-0.940361
-1.13851
-1.13936
-1.10958
-0.931571
-0.982844
-0.938577
-0.93635
-0.936931
-0.937115
-0.937088
-0.936851
-0.887355
-0.886836
-0.935024
-0.932592
-0.935008
-0.931413
-1.13454
-1.13499
-0.918724
-1.13418
-1.13625
-1.21709
-1.20897
-1.22057
-1.20869
-0.763575
-1.11101
-0.786815
-1.13714
-0.761804
-1.12501
-0.786698
-1.13377
-0.898031
-0.860378
-1.02926
-0.913577
-1.03701
-1.15407
-0.935318
-1.12284
-0.941247
-1.1476
-1.13401
-0.940312
-1.11738
-0.924824
-1.10088
-1.18589
-0.936518
-1.13331
-1.05032
-0.957427
-0.889423
-0.957341
-0.989484
-0.836272
-0.871888
-1.14377
-1.07836
-0.78388
-0.903952
-0.911002
-0.915263
-0.917077
-0.918019
-0.918953
-0.92106
-0.896124
-0.906258
-1.04899
-0.91056
-0.693654
-0.835241
-0.950913
-0.86786
-1.25391
-0.77082
-0.898626
-1.15095
-1.00977
-0.90634
-0.955546
-1.15117
-0.930261
-1.10817
-0.939673
-1.13668
-0.944389
-1.13034
-1.12832
-0.934505
-1.13441
-0.916877
-1.13471
-0.995764
-0.980982
-1.13559
-0.979261
-1.1403
-0.991058
-0.990037
-0.977119
-0.979856
-0.939518
-1.0183
-0.993255
-0.936114
-0.991405
-0.831232
-1.01865
-0.900492
-1.15288
-0.944221
-1.14104
-0.942772
-1.1315
-1.13248
-0.938166
-1.13409
-0.947697
-1.13201
-0.934973
-1.13314
-0.948231
-1.13311
-1.13277
-0.932896
-1.1331
-0.981877
-0.981855
-1.13402
-0.980327
-0.979306
-0.982612
-0.987181
-1.14246
-0.980896
-1.17164
-0.983951
-0.970335
-1.01507
-1.00177
-0.994642
-0.973566
-1.16668
-1.00266
-0.863978
-1.03361
-0.911973
-1.16555
-0.936778
-1.1345
-0.945431
-1.13406
-1.13488
-0.936071
-1.13219
-0.948546
-1.13358
-0.934843
-1.13188
-0.947559
-1.13454
-1.13515
-0.934699
-1.12963
-0.93522
-1.02648
-1.02712
-1.00854
-1.00366
-1.00322
-1.00166
-1.0044
-1.00317
-1.02231
-1.02623
-1.04208
-0.937123
-0.937422
-0.937483
-1.04262
-1.02733
-1.02716
-1.00859
-1.0074
-1.02749
-1.02356
-0.944943
-1.13939
-0.939458
-1.13848
-1.12962
-0.936264
-1.13477
-1.13532
-1.12909
-1.12931
-0.938285
-1.13481
-1.13709
-1.13266
-1.14201
-0.942164
-1.13828
-1.11234
-1.10897
-1.10991
-1.11142
-0.94209
-1.14096
-1.13899
-0.94494
-1.12881
-0.938247
-1.13647
-1.13522
-0.948106
-1.13173
-0.936869
-1.13555
-1.13404
-1.13393
-1.13442
-0.935156
-1.13254
-1.13221
-0.948098
-1.13201
-0.936873
-1.13369
-1.13617
-1.13468
-0.945641
-1.13651
-1.16591
-0.938282
-1.13162
-0.943367
-1.1412
-1.16726
-0.943914
-1.12054
-1.10988
-1.17059
-0.955325
-1.15219
-0.930786
-1.16201
-0.953954
-1.16056
-0.930744
-1.15355
-0.955248
-1.16917
-1.11078
-1.11948
-0.927941
-0.982041
-0.974031
-0.979286
-0.749944
-1.01471
-0.964571
-0.988002
-0.989675
-0.745938
-0.97655
-0.94315
-0.962885
-1.01589
-0.749801
-1.39873
-1.03004
-1.0036
-0.864711
-1.14906
-0.975112
-0.945418
-0.947067
-0.973422
-0.909058
-1.00784
-1.15089
-0.845571
-1.02991
-1.39832
-1.00424
-1.42816
-1.02474
-0.939801
-0.938576
-0.936857
-0.937589
-1.02831
-0.948938
-1.13316
-0.934709
-1.13317
-1.13391
-1.13264
-1.13611
-0.936259
-1.13317
-1.13495
-0.946142
-1.13469
-1.16601
-0.936646
-1.13343
-1.16576
-0.912594
-1.03434
-1.03392
-0.863165
-1.03427
-1.03407
-0.863392
-1.03351
-1.03524
-0.861466
-1.03023
-1.03797
-0.857765
-1.0115
-0.971152
-0.999464
-0.972926
-1.00235
-0.973344
-1.00278
-0.973304
-1.00302
-0.973256
-1.00334
-0.864671
-1.02972
-1.16737
-0.91227
-1.03811
-1.016
-0.851882
-1.0022
-0.973887
-0.970387
-1.01903
-0.901105
-1.20131
-0.960925
-1.15123
-0.928036
-0.981994
-0.982626
-0.993493
-0.771567
-0.900289
-1.25342
-0.693795
-0.951788
-0.83141
-0.991094
-0.936194
-0.835622
-0.868145
-1.00918
-0.907873
-1.1509
-0.939587
-0.979001
-0.97411
-0.98682
-0.993244
-0.986271
-0.983416
-0.982313
-0.93596
-1.13333
-1.16698
-1.16488
-1.13441
-0.989865
-0.989273
-0.988723
-0.983006
-0.979774
-0.976505
-0.975172
-0.990237
-0.946215
-1.13442
-0.936231
-1.13087
-1.1367
-1.13049
-1.17091
-0.935617
-1.13595
-1.16263
-0.913017
-0.761033
-0.997024
-0.983924
-0.98705
-1.001
-1.13666
-1.21759
-1.20903
-0.787335
-0.885514
-0.886462
-0.787151
-0.934688
-0.930388
-1.13474
-0.933686
-0.929279
-1.13382
-0.919462
-1.04206
-0.937306
-0.936678
-1.03814
-1.02218
-1.02649
-1.00737
-1.0086
-1.0283
-1.00326
-1.00634
-1.00319
-1.00366
-1.02841
-1.02737
-1.02649
-1.00736
-1.02709
-1.04197
-1.0424
-0.917871
-0.996816
-0.996139
-0.981951
-0.983863
-0.989611
-0.980969
-0.979647
-0.973527
-0.986145
-0.934393
-0.996053
-0.986275
-0.983982
-0.986164
-0.988739
-0.994229
-0.991531
-0.989003
-1.0024
-0.998612
-1.13283
-1.13687
-0.918685
-1.13173
-1.00777
-0.992479
-0.986952
-0.991919
-0.892197
-0.950329
-1.21061
-1.24755
-0.745533
-0.997487
-1.36334
-1.01707
-0.849747
-1.00216
-1.01324
-0.866307
-0.868853
-1.45123
-1.0371
-1.00484
-1.27783
-1.10244
-1.10387
-1.04461
-1.06707
-0.790425
-1.161
-0.981456
-1.00343
-1.00123
-1.0275
-1.02856
-1.02746
-0.936951
-0.934667
-0.930181
-0.933602
-0.928996
-0.885236
-0.886191
-0.886557
-1.1664
-1.16222
-0.935684
-1.13032
-0.944798
-1.13909
-1.13312
-0.936826
-1.12719
-0.944625
-1.13062
-0.936532
-0.937029
-1.02784
-1.04239
-1.0418
-0.91993
-1.02655
-1.00729
-1.00852
-1.00853
-1.02787
-0.937039
-0.936371
-0.93817
-1.14038
-0.980283
-1.12935
-0.974496
-1.11272
-1.16331
-0.942894
-0.976066
-0.991054
-0.739051
-0.981385
-0.980348
-0.982403
-0.987637
-1.13717
-0.987453
-0.972829
-1.03297
-1.00228
-0.984537
-0.972804
-1.16546
-1.00199
-0.862362
-1.03258
-0.912215
-1.03423
-0.972787
-1.00154
-0.983437
-0.983431
-0.988155
-1.13608
-0.9835
-1.13444
-0.978027
-0.98848
-1.13589
-0.983603
-1.13346
-0.978406
-0.988645
-1.13631
-0.972395
-1.1703
-0.998713
-0.85672
-1.01059
-0.914308
-1.18187
-0.970759
-0.984756
-0.989804
-0.976598
-0.951823
-0.893398
-0.938406
-0.92119
-0.979013
-0.98833
-1.1362
-0.980853
-0.988095
-0.976798
-0.961186
-0.940051
-0.975574
-0.980903
-0.982706
-1.13486
-1.13295
-0.980114
-0.979261
-0.983234
-0.991143
-0.980678
-0.967621
-0.940114
-0.975098
-0.979861
-0.981135
-1.13208
-0.995563
-0.995574
-0.995611
-0.918
-0.918856
-0.920786
-0.88285
-0.910397
-0.918116
-0.918082
-0.918736
-0.99562
-0.984952
-0.984246
-0.980609
-0.933305
-0.726782
-0.813295
-0.919293
-0.9768
-0.991099
-0.986193
-0.979242
-0.976051
-0.975039
-0.976064
-0.979254
-0.986417
-0.985043
-0.974121
-0.976733
-0.976763
-0.943004
-1.14907
-0.939163
-0.993889
-0.98234
-0.992845
-0.989141
-0.943399
-1.13109
-1.13326
-0.937211
-1.02357
-1.00316
-0.959609
-1.02245
-1.03893
-0.890848
-0.944592
-1.39057
-1.232
-0.762925
-0.887704
-1.0422
-1.02748
-1.00735
-1.02632
-1.0271
-1.00852
-1.0283
-0.937517
-0.937608
-0.937762
-0.937586
-1.02744
-0.948108
-1.13336
-0.934946
-1.13188
-1.13586
-0.936122
-1.12873
-1.13136
-1.13361
-1.13576
-0.936907
-1.12695
-1.13675
-1.13285
-0.945579
-1.13963
-1.15448
-0.914433
-0.761864
-0.990381
-0.982311
-0.983596
-0.988457
-0.98992
-0.957393
-0.951695
-0.893435
-0.975282
-0.938441
-0.920854
-0.979962
-0.98988
-0.977906
-0.975528
-0.985654
-0.986612
-1.13416
-1.13343
-1.13446
-1.13353
-0.936894
-1.13445
-1.13249
-0.948246
-1.13451
-0.938409
-1.13232
-1.13044
-0.94549
-1.13815
-1.14295
-1.14022
-0.943544
-1.03953
-1.0243
-1.00185
-1.00432
-1.00238
-1.00334
-0.934
-0.927012
-1.1223
-0.799039
-0.73393
-1.15921
-1.06634
-1.0672
-0.977693
-1.04081
-1.04845
-1.06586
-0.777687
-1.14939
-0.958429
-1.15152
-1.15754
-1.1517
-1.15108
-1.12143
-0.892344
-1.04571
-1.33289
-0.754504
-0.985549
-1.11742
-1.03907
-1.10294
-1.02658
-0.993012
-1.29398
-1.08718
-0.805413
-0.871845
-1.44464
-0.864298
-1.15518
-0.802469
-1.15769
-0.959943
-1.00679
-1.00299
-1.02221
-1.02243
-1.03791
-1.02321
-1.027
-1.02321
-1.00372
-1.00748
-1.02765
-1.02832
-1.04264
-0.937588
-0.937535
-0.937004
-1.02356
-0.938768
-0.884544
-0.784338
-1.20902
-0.774587
-0.991335
-1.10927
-0.940456
-0.985463
-0.988776
-1.12122
-0.795549
-0.730496
-1.16116
-0.981388
-0.960003
-1.151
-0.77366
-1.15139
-1.06631
-1.06653
-1.06913
-0.946366
-1.04536
-1.33206
-0.985401
-1.03934
-1.0448
-1.04613
-1.04994
-1.06622
-0.782475
-1.15137
-1.08341
-1.04669
-1.08164
-1.06686
-0.778659
-1.15342
-0.961534
-1.15772
-1.15708
-1.02804
-0.938665
-0.939232
-1.02831
-1.02364
-0.890957
-0.941049
-0.93953
-0.98308
-1.02328
-1.02748
-1.02949
-0.945191
-1.19854
-0.964878
-0.972707
-0.98554
-0.983066
-0.982251
-0.983092
-0.985831
-0.989756
-1.13501
-1.13322
-0.945736
-0.887435
-1.04262
-0.946142
-1.13396
-1.13557
-0.936473
-1.13515
-1.1333
-1.13283
-0.948937
-1.13362
-0.986599
-0.97513
-0.97829
-0.985297
-0.985452
-0.983162
-0.986485
-0.973936
-0.974808
-0.977897
-0.983556
-1.14056
-1.13698
-1.14101
-0.983776
-0.985674
-0.986658
-0.948966
-0.990145
-1.13606
-1.13478
-0.946128
-0.887467
-0.887199
-1.04236
-0.945756
-1.13619
-1.13746
-0.98971
-0.973103
-0.973168
-0.973227
-0.9733
-0.973794
-0.970085
-0.935968
-0.991238
-1.00252
-1.00405
-1.00318
-0.990166
-1.00356
-1.0032
-1.0038
-0.989057
-0.981668
-0.928457
-0.97817
-0.984928
-0.984818
-0.973628
-0.959821
-0.939458
-0.977448
-0.974033
-0.959743
-0.942817
-0.973293
-0.971969
-0.938465
-0.96773
-0.887808
-0.944962
-1.13319
-0.941913
-1.00026
-0.97989
-1.15505
-1.0842
-1.08706
-1.11718
-1.02626
-1.10257
-1.10386
-1.10238
-1.08451
-1.04402
-1.09944
-1.29265
-1.10259
-1.10493
-1.18416
-1.1546
-1.29922
-1.30043
-1.28023
-1.29647
-1.29439
-0.954699
-0.958488
-1.00306
-1.16271
-0.819345
-0.954633
-0.985646
-0.948962
-0.925293
-1.13776
-0.937187
-1.13374
-0.908241
-0.887252
-0.912413
-0.885144
-0.895455
-0.899705
-1.16536
-1.1317
-1.13564
-0.983467
-1.29449
-1.13687
-0.99507
-0.760969
-0.912473
-0.734299
-1.15274
-0.763505
-0.762995
-0.761552
-0.901385
-0.864131
-0.934289
-0.900008
-0.959389
-0.951247
-0.754631
-0.930806
-1.15088
-0.790449
-1.06362
-0.751446
-1.11389
-0.933259
-0.95516
-0.879742
-0.850855
-0.741691
-0.930767
-0.93193
-0.936158
-0.787747
-0.937423
-1.13549
-0.93392
0.991759
0.980086
0.990995
0.984276
0.978093
0.975506
0.974938
0.976204
0.979486
0.986442
0.973117
0.967979
0.720749
1.01655
1.15219
0.905436
1.00631
0.955441
1.19668
0.895598
1.14871
1.01064
0.847937
1.03591
1.02758
0.863185
1.03506
1.03145
0.864447
1.03464
1.03221
0.860458
1.03494
1.03147
0.861932
1.03207
1.03368
0.860961
1.02684
1.03795
0.850829
1.01174
1.01897
0.82988
0.948872
0.69239
1.25081
0.771361
0.899819
1.01343
0.750642
0.962383
0.990552
0.747749
0.983112
0.981258
0.753317
0.994075
0.952816
0.746857
0.983846
1.18163
0.819428
1.0982
1.0349
0.953327
0.958079
1.1356
0.949184
0.953989
0.95388
1.14499
0.955764
0.952387
0.937054
1.14638
0.97382
0.953555
0.904231
1.14874
1.0056
0.959237
0.86595
0.832634
0.731151
0.908353
1.07052
1.11263
1.1226
1.12903
1.12685
1.12858
1.1287
1.12802
1.13009
1.12936
1.13004
1.12959
1.13042
1.12791
1.12865
1.1205
1.10366
1.04899
0.861243
0.977466
0.997199
1.02818
0.956296
0.720936
1.29049
0.997845
1.0567
0.993875
1.03174
1.15463
1.18277
1.10056
1.04945
1.05368
1.05002
1.10045
1.2907
1.05664
0.846339
0.85726
0.957155
0.869759
0.846807
1.01044
1.30114
1.03167
1.37537
0.993759
1.15463
0.977278
0.997262
1.05074
1.22749
1.20199
0.903546
1.16968
0.89068
1.12184
1.02877
0.720321
0.955366
0.987857
1.15391
1.11495
1.14039
1.1305
1.13568
1.13284
1.13482
1.13271
1.1358
1.131
1.13802
1.12833
1.13924
1.12615
1.12386
0.971786
1.40972
0.987647
0.968402
1.11169
1.13292
0.948283
1.13462
1.13195
0.951253
1.13658
1.13223
0.950772
1.13697
1.13177
0.949963
1.13711
1.13124
0.948782
1.13679
1.13011
0.945808
1.13991
1.11211
0.932263
1.16394
0.942552
1.1495
0.984903
0.709729
0.991508
0.947027
1.15197
0.961395
0.719485
1.02044
0.905173
1.17311
1.11182
1.1416
1.13746
1.1336
1.14407
1.12841
1.14711
1.13265
1.13174
1.13818
1.12903
1.14087
1.11911
1.13302
0.97865
1.41436
1.01628
0.95998
1.07286
1.23063
0.916709
1.21402
1.211
0.917692
1.2126
1.21117
0.917361
1.22812
1.10432
0.948045
1.15904
1.11973
0.947049
1.14636
1.12789
0.944074
1.14354
1.11982
0.928126
1.14867
1.0086
1.15216
0.900309
0.73277
1.22676
0.852025
1.19491
1.15229
0.896136
1.01294
0.934537
0.814212
0.677391
0.863428
0.72734
1.0504
1.10761
0.760791
1.20321
1.11344
0.902672
1.22683
1.17047
0.890269
1.12163
1.05201
0.787048
0.944718
1.37609
0.993536
1.15452
1.0318
1.30118
1.01074
0.84717
0.957389
0.869752
0.805462
1.1598
0.857217
0.868011
0.800765
0.79795
1.15674
0.862861
0.862326
0.797154
0.800932
1.15667
0.868535
0.856826
0.80409
0.870074
1.15953
0.957157
0.846556
1.03196
1.01037
1.30165
1.03186
1.15454
0.992764
1.05701
1.28812
1.00128
1.02709
1.27642
1.02638
1.00202
1.28772
1.05662
0.846661
1.09632
1.18205
1.10051
1.43887
1.02787
0.951438
0.989173
0.944902
1.165
1.11276
1.1126
1.11586
0.932123
1.16547
1.1532
0.990073
1.15005
0.943591
0.955668
1.03002
1.45186
1.10426
1.10057
1.43847
1.02787
0.951375
0.888946
1.05228
1.22711
1.20255
0.760723
1.10456
0.787551
1.04864
0.727674
0.996115
1.12172
1.03234
0.95099
0.988893
0.987823
1.14996
0.951928
1.03132
0.996421
0.976392
0.867318
0.892491
0.84356
0.813586
0.979221
0.918255
0.971047
0.978842
0.99338
1.00022
0.857321
1.00632
1.03622
1.16292
1.17411
1.15259
1.1908
0.907187
1.05127
1.02885
0.910242
0.762164
1.12701
1.1391
0.759181
1.21143
1.13617
0.915414
1.21094
1.13393
1.13503
0.914539
1.21341
0.788518
0.888305
0.890768
0.943414
0.790544
1.12883
0.89298
1.116
0.922698
0.923639
0.894506
0.859931
1.00564
0.974142
0.964857
0.979994
0.977921
0.969908
0.936237
0.942255
0.97735
0.956052
1.154
1.16521
1.11187
0.932662
1.11432
0.943282
1.1405
1.14077
1.13204
0.946356
1.12857
0.939007
1.13916
1.13498
1.13534
0.949555
1.12797
0.936972
1.14062
1.13382
1.13521
0.950855
1.12941
0.934091
1.13847
1.1355
1.13215
0.951037
1.13143
0.930149
1.13619
1.13786
1.12842
0.950882
1.13094
0.928265
1.13376
1.1393
1.12589
0.948001
1.13283
0.925762
1.11054
1.12158
0.981474
0.96856
0.986388
0.801123
0.833929
0.804322
0.834834
0.907287
1.41357
0.964687
0.885299
1.15686
0.88556
1.08879
0.766681
1.10386
1.13504
0.758903
1.129
1.13731
0.766905
1.08213
1.28884
0.986383
1.12968
0.903435
0.907232
0.887872
0.941311