/*--------------------------------*- C++ -*----------------------------------*\
| =========                 |                                                 |
| \\      /  F ield         | OpenFOAM: The Open Source CFD Toolbox           |
|  \\    /   O peration     | Version:  2306                                  |
|   \\  /    A nd           | Website:  www.openfoam.com                      |
|    \\/     M anipulation  |                                                 |
\*---------------------------------------------------------------------------*/
FoamFile
{
    version     2.0;
    format      ascii;
    arch        "LSB;label=32;scalar=64";
    class       volScalarField;
    location    "1.8";
    object      gradTx;
}
// * * * * * * * * * * * * * * * * * * * * * * * * * * * * * * * * * * * * * //

dimensions      [0 -1 0 1 0 0 0];

internalField   nonuniform List<scalar> 
5322
(
-0.0180384
0.0010592
0.0011117
-1.28522e-05
-7.70885e-05
-6.48191e-05
-4.41378e-05
-2.95138e-05
-2.05553e-05
-1.22742e-05
-5.48542e-06
3.04795e-05
4.21648e-05
-0.000570327
-5.41772e-06
0.00109755
-0.000852536
1.68978e-05
-0.000717829
0.000711055
-0.000944311
0.001322
-0.0013944
0.00222462
-0.00231623
0.00338194
-0.00341059
0.00515432
-0.00519348
0.00721803
-0.00686088
0.0104194
-0.00768304
0.0152092
0.00142235
0.0228166
0.016189
-0.00641336
0.0177352
-0.00105976
-0.0168366
0.0168748
-0.00102147
-0.01794
0.0178543
-0.000608067
-0.0190634
0.0168115
-0.000390992
-0.0200174
-0.0198929
-0.028533
-0.0095076
0.0179303
-0.00118544
-0.0292463
-0.000905995
0.02778
-0.000334679
-0.0277733
-0.000119618
0.0270561
-0.00013961
-0.0272777
3.22584e-05
0.026702
0.000404248
-0.0270174
0.00145169
0.0223049
0.00133782
-0.021055
0.0239201
-0.0246386
0.0237077
-0.0241542
0.0241725
-0.024192
0.0275646
-0.0202463
0.00947934
-0.0149001
-0.0101037
0.0155889
0.00126591
-0.00668269
0.0114587
-0.0317576
-0.00985112
0.0346212
-0.00157907
0.000316968
0.000546406
0.0037342
0.0199805
-0.00388693
0.000377969
-0.0013281
0.0117883
-0.0280355
-0.0279686
0.056969
-0.00134905
0.0154658
0.0252593
0.000657126
0.000288263
0.000209303
9.97658e-05
3.07147e-05
1.56975e-06
-8.09828e-06
-1.11077e-05
-1.14598e-05
5.344e-06
-5.64138e-06
-0.000351693
-0.000336252
4.64527e-05
0.000206489
6.39909e-06
0.000300471
-0.000361591
-2.86996e-05
-9.46572e-05
0.000563383
0.00045613
0.000117979
0.000359594
0.000223897
0.00016676
0.000386613
0.000185149
0.000199628
0.000393205
0.000159709
0.00032174
0.000447507
0.000502437
2.0737e-05
-0.000376602
1.50716e-05
0.000261743
-0.000325893
-0.000359102
6.11647e-05
0.000135166
6.82404e-05
-0.000280274
-0.000309651
6.99685e-05
7.84478e-05
9.86544e-05
-0.000306547
-0.00028686
7.08339e-05
4.61291e-05
0.000164423
-0.000320542
0.000423169
-0.000972645
-0.00127975
0.0013478
-0.00185269
-9.87158e-05
-0.00103743
2.29778e-05
0.000915238
-0.000210017
0.000945485
0.000464633
0.000698397
-0.00116854
0.000428852
-0.00100983
0.000803178
0.00104336
-0.001539
0.000122781
-0.00130843
0.00147211
0.00183099
-0.0024576
0.000129583
-0.00206113
0.00251298
0.00307316
-0.00397093
0.000211506
-0.00331731
0.00407458
0.00495596
-0.00625048
0.000319013
-0.00522425
0.00624224
0.00761792
-0.0095046
0.000454348
-0.00796026
0.00902679
0.0111282
-0.0139029
0.00063363
-0.0116247
0.0122946
0.0154169
-0.0192729
0.000894821
-0.0159015
0.0154408
0.0192305
-0.00343168
0.0112797
-0.0277546
-0.028307
0.0572193
-0.00247367
-0.00263985
0.00063953
0.0040582
0.0198946
-0.00285891
0.000580166
-0.00342929
0.0108209
-0.028222
-0.0278375
0.0568699
-0.00177717
0.0154568
0.000353539
0.000459516
0.000248723
0.000131024
4.89391e-05
1.01039e-05
-4.5874e-06
-9.87028e-06
-1.05151e-05
5.20843e-06
-5.48135e-06
0.000273995
-0.000306725
0.000307763
-0.000273081
1.6459e-06
0.000272244
-0.000252295
2.02299e-07
-0.000299754
6.38482e-07
-0.000270269
7.74769e-07
0.00025383
1.02631e-05
0.000278887
-2.36561e-05
-0.000303797
3.47625e-07
0.000300084
2.48882e-08
4.05e-07
0.000556527
-0.00104825
0.00104949
-0.00103346
0.00129713
-0.00162524
0.0021563
-0.00272569
0.00355204
-0.00445667
0.00568783
-0.00700017
0.00875371
-0.0105028
0.0128991
-0.0149973
0.0180906
-0.0200634
0.0237478
-0.0138576
0.000351221
0.0140485
0.000409496
-0.0231212
0.0195573
0.00011766
-0.0175351
0.0146977
7.13312e-05
-0.0124986
0.0103162
4.32394e-05
-0.00848203
0.00687638
2.53397e-05
-0.00551054
0.00437558
1.54475e-05
-0.00343791
0.0026764
1.07137e-05
-0.00208064
0.00160527
7.43174e-06
-0.00124573
2.04524e-06
0.00124955
-0.00159975
-5.01995e-06
-0.00129173
0.001035
-2.34175e-06
-0.000560269
-3.64515e-05
0.000568223
-0.00108617
0.00124398
-0.00160151
0.00205201
-0.0026355
0.00339766
-0.0042843
0.00546033
-0.00671321
0.00843989
-0.0100519
0.0125276
-0.0142804
0.0177388
-0.0188331
0.0233751
-0.0136956
-0.0033881
0.00574972
0.000638137
-0.0217691
0.0171613
0.00013632
-0.0160264
0.0132678
-6.05431e-05
-0.0110652
0.00923112
-8.86368e-05
-0.0074494
0.00610557
-7.31535e-05
-0.0048419
0.00388642
-6.28176e-05
-0.00302245
0.0023998
-5.52793e-05
-0.00182843
0.00146561
-5.51704e-05
-0.00109463
0.000846876
8.09983e-06
-0.000281329
0.000466451
0.000773767
-3.1469e-05
8.09277e-05
-0.000143595
0.000437325
-0.00135456
0.00122254
-0.00186339
-0.00125536
-0.00156621
0.000128987
0.00084971
0.000947501
-0.00114409
0.000411405
-0.0010124
-9.7172e-05
3.30244e-05
-0.000376694
2.98727e-05
-1.61034e-05
-0.000386988
-1.0699e-06
-9.35926e-05
-0.00104142
-0.00113009
0.000973293
-0.00152232
-6.49405e-05
0.00177185
-0.00244039
0.00301941
-0.0039498
-0.000224388
0.0049007
-0.00622626
0.00754525
-0.00947648
-6.51117e-05
0.0110069
-0.013808
0.0151501
-0.0188659
0.00390924
0.00063111
0.000132464
0.000171924
-0.00013826
-3.77537e-05
0.0114193
-0.0141759
0.000727825
-0.0114995
0.0114323
0.0158242
-0.018939
0.00114254
-0.0166558
0.0136769
0.0274768
-0.00224333
0.00141184
-0.0304372
-0.0282969
0.0544119
-0.00370553
0.000530981
0.000966606
-0.0128416
0.00249693
0.00733518
-0.0076269
0.000492053
0.00560534
-0.00498718
1.13756e-05
0.00366848
-0.00339551
-4.89001e-05
0.00222678
-0.00213706
-8.16625e-05
0.00144481
-0.00128679
-9.59888e-05
0.000931797
-0.000655256
-9.53169e-05
0.000743661
0.000255309
0.0001783
-2.90802e-05
-1.42951e-05
0.000405215
-0.000169441
0.00219856
-0.00296884
0.00374924
-0.00481205
-0.0031083
-0.00405778
0.000215599
0.00246575
0.00310174
-0.00250388
0.00013281
-0.00192536
-0.000102127
-5.096e-05
-1.65514e-05
-4.62354e-05
-7.65065e-05
9.25088e-05
5.76056e-05
-1.67861e-05
-0.000405735
-0.000127805
0.000467744
0.000666437
0.000568798
0.000201312
0.000965898
0.000346296
0.00033232
0.000293971
-0.000262615
-0.00065348
-0.000986067
-0.00049443
0.000350877
-0.000393972
5.73045e-05
0.000765542
-0.000682181
0.00607748
-0.00758588
0.00939736
-0.0116276
-0.00760445
-0.00976151
0.000484742
0.00599827
0.00779334
-0.00640613
0.000330194
-0.00492614
-0.000172678
-6.36459e-05
-7.14698e-05
-9.76634e-05
-0.000241144
-5.65651e-06
-6.45939e-05
-0.000158675
7.46556e-06
-1.64327e-05
0.000538744
3.24561e-05
-7.27e-05
-8.98974e-06
1.72046e-05
7.47304e-06
-2.75137e-05
5.87215e-05
-0.000677658
-4.16136e-05
-1.92674e-05
-5.80524e-06
-9.14257e-06
0.00163213
8.28148e-06
-0.00214752
0.00208959
-0.00266363
-3.51491e-06
0.00274311
1.75705e-05
-0.00353714
0.00345835
-0.00434978
2.53196e-06
0.004493
2.99964e-05
-0.0056614
0.00555331
-0.00682737
1.39809e-05
0.00707083
5.00657e-05
-0.00871085
0.00856429
-0.0102289
3.61216e-05
0.0106314
7.3116e-05
-0.0128347
0.0126388
-0.0145551
7.85363e-05
0.0151842
4.71486e-05
-0.0179792
0.0177132
-0.0193792
0.000128255
0.0201493
-0.000153251
-0.0235274
0.0231978
-0.0139283
-3.18526e-05
0.0138123
-0.000972285
-0.00230291
-0.00181972
-0.00277201
-0.0277244
0.005817
0.00382935
-0.00214084
-0.00430083
-0.00141891
-0.022261
0.00509495
-0.00904362
-0.012229
-0.00237724
-0.00368593
-0.00480783
-0.00257099
-0.00137502
0.000656051
-0.000772414
-0.00152646
-0.00142073
-0.000914613
-0.000631317
-0.000427141
-0.000129551
0.000557218
0.000578391
0.00058266
0.000670067
0.000894174
0.000853866
0.000619926
0.000624472
0.000428257
-0.000376604
0.0001182
-4.28987e-05
-2.97806e-05
0.000107378
-0.000328107
-6.77839e-07
-2.14692e-07
-6.52565e-07
7.95406e-07
-0.000209304
-0.000241429
-0.000240253
-0.000210898
0.000211063
-0.00017204
8.37246e-06
0.000243307
-0.000202479
-0.00020243
8.54682e-06
0.000241593
6.94932e-07
1.53517e-06
1.68566e-06
1.51191e-06
-1.0357e-05
6.68383e-06
-3.81972e-06
-1.79011e-06
5.75485e-06
2.30909e-05
5.88958e-05
3.16413e-05
-6.58866e-05
-0.000407591
0.000202844
-0.000248319
0.00154946
-0.0021685
0.0140563
-0.0170923
0.0204159
-0.000182976
-0.00581292
-0.00111457
0.00161806
5.4826e-05
0.000513861
0.000806636
-0.00240206
-0.00435209
-0.00845006
-0.0196216
-0.0202032
-0.0460279
-0.0186472
-0.0158994
-0.000272254
-0.00613773
0.0057217
-0.0405213
-0.0247153
-0.0120097
0.0177092
0.00141664
0.000755916
-0.0181057
0.0190659
0.00012832
-0.00236544
-0.0197539
0.0191282
3.88627e-05
-0.00261382
-0.0192881
0.0190725
0.000154408
-0.00419581
-0.0184136
0.0136149
-0.0117095
0.0101877
0.00777221
0.0220074
-0.0103502
-0.00575186
0.0032372
0.0124673
-0.0378831
-0.00184122
-0.021997
0.0213654
0.020561
0.0188716
0.0238575
0.0105499
0.00166874
0.00864887
0.0126125
0.0198119
-0.00679088
0.00173312
0.0115035
-0.0072761
0.000119127
0.0074037
-0.00533212
4.49908e-06
0.0050276
-0.00350661
2.29358e-05
0.00335762
-0.00223387
2.086e-05
0.00215719
-0.00139423
4.51132e-06
0.00130585
-0.000907891
-4.81274e-05
0.00070636
-0.000702258
-0.000237084
5.20067e-05
-0.000772383
-0.000473851
0.000285155
-0.000845155
0.00111218
-0.00145414
5.53369e-05
-0.00124328
0.00108606
-5.09573e-06
-0.000566076
3.72429e-05
0.000561642
-0.000555008
3.86384e-06
4.96877e-06
2.05283e-06
2.63695e-06
5.70524e-06
1.01145e-05
3.05302e-05
5.0154e-05
8.56566e-05
-0.000321567
1.56389e-05
-0.000132975
0.00112645
-0.00115023
9.75735e-05
9.1468e-05
0.000475668
0.000494413
0.0039362
0.00505079
-0.000222991
-0.00330918
0.00408203
0.000320557
-0.00521634
0.00623779
0.000458441
-0.00797844
0.00899745
0.000642594
-0.011757
0.0122166
0.000897604
-0.016321
0.000425083
0.000741418
-0.0026284
-0.00262613
-0.00797675
-0.00406793
-0.00231656
-0.00140638
-0.000918615
-0.000641998
-0.000435334
-0.000138876
0.000545328
0.000559271
0.000557986
0.000854241
0.000523205
-0.000139609
-0.00043023
-0.000656269
-0.000954572
-0.00144275
-0.00232504
-0.00404362
-0.00770096
-0.0178037
-0.0186338
-0.0320441
-0.0259576
-0.00866855
-0.00863107
0.0161051
0.00170943
-0.00200992
-0.00160445
0.00754281
0.000256565
-0.00613789
-0.00586356
0.00600936
-9.43403e-06
-0.00672801
-0.00642867
0.00530117
5.26084e-06
-0.00835554
-0.00796456
0.00265837
-0.011588
0.00802289
0.00779053
0.00813647
0.00712293
-0.00989321
0.000762968
0.00352562
-0.0115264
0.00264177
-0.0107493
0.0123393
-0.026846
-0.00113049
-0.0258449
0.019763
0.0211274
0.0203462
0.0199513
0.0204389
0.019852
-0.0279867
-0.00137179
-0.0252408
0.0160295
0.0172002
0.0160992
0.0169852
-0.00113308
-0.0269307
-0.0267502
0.0123737
0.0203925
0.0188749
0.0179166
0.0223615
0.0222328
0.0172811
0.00495211
0.0102882
0.00434746
-0.00241405
0.00393094
0.000895689
-0.00288784
0.00212715
0.00030373
-0.00219896
0.00147944
0.000200284
-0.00158088
0.000979063
0.000120766
-0.00105058
0.00065934
9.79421e-05
-0.00069084
0.000390172
3.55412e-05
-0.00044615
0.000220926
-1.39497e-05
-0.000339677
6.96558e-05
-0.000160855
-0.000417973
-0.000188065
-0.000557988
-0.000675261
-0.000671119
-0.000451175
-0.000323328
-0.000504435
-2.02391e-05
0.00037789
-0.000280234
2.8729e-05
0.000310979
-0.000308951
1.33938e-05
0.000323309
-0.000332386
-1.19148e-05
-2.4276e-05
-0.000602926
-2.39257e-06
-0.00107394
1.99241e-06
-0.00126325
9.82511e-06
0.0016239
-0.00164516
-1.90371e-06
-0.00206269
6.1e-05
0.00265871
-0.00240998
7.44392e-05
0.00307511
6.44326e-05
-0.00390314
0.000109413
0.00490354
8.38226e-05
-0.0061055
0.000154137
0.00749675
6.83507e-05
-0.00913777
0.000199995
0.010946
7.17868e-05
-0.0130432
0.000266361
0.0152737
-0.00010233
-0.0175646
0.000452973
0.0201387
-0.000169675
-0.000666161
-0.0251558
-0.0182255
0.000780555
0.0203234
-0.000317574
-0.018754
-0.0130207
0.000641961
0.0155163
-0.000193469
-0.0133898
-0.00921211
0.000406294
0.010978
-0.000142989
-0.00914302
-0.00626119
0.00026973
0.00738205
-8.32661e-05
-0.00594043
-0.00407429
0.000171436
0.00473002
-5.64679e-05
-0.00368763
-0.00253658
8.86175e-05
0.00293951
-2.24158e-05
-0.00217271
-0.00152403
4.39328e-05
0.00184992
1.81793e-05
-0.00121494
-0.000868365
8.99211e-05
0.00134681
0.000148714
-8.89453e-05
0.000285413
-0.000474497
-0.000774332
5.31936e-05
-0.000240539
4.75995e-05
0.000691453
-5.58812e-05
1.11309e-05
-0.000572011
4.34205e-06
0.00107638
-0.00104895
-2.21577e-06
-0.00125133
5.67181e-05
-0.00147168
4.35114e-05
0.00186814
7.96471e-05
1.90975e-05
1.19619e-05
1.58027e-05
0.00131379
1.35897e-05
-8.45992e-06
-0.000252986
-4.218e-07
0.000278565
1.24842e-06
1.31842e-06
1.52303e-06
-4.29015e-05
-4.99291e-05
-3.5998e-05
-0.000378579
-3.39467e-06
-9.21465e-05
-5.90155e-05
-5.71019e-05
-6.50834e-05
0.00180149
0.00148803
-5.78231e-05
0.000184771
6.61213e-05
5.10531e-05
0.000857556
0.000124848
-0.00131766
0.00150517
0.000129655
-0.00206031
0.00253228
0.000211291
1.50612e-05
-0.000115774
-0.000134138
-0.00017308
-0.00020456
-0.000250671
-0.000214979
-0.000178551
-0.000118843
-0.000132735
-0.000116454
-6.13394e-05
-7.10309e-05
-0.00128958
0.00147103
0.00236139
-0.00295197
0.00391293
-0.00477369
-9.77471e-05
-0.00296337
1.52007e-05
0.00246282
-8.06348e-05
-0.00180174
-2.70765e-05
0.00156938
-6.28513e-05
8.44941e-06
-0.00137308
-8.42043e-05
0.00173058
-0.00191083
6.61111e-06
-0.00403763
-2.70462e-05
0.00504405
-0.00444772
1.0384e-05
-0.00565983
9.09802e-06
0.00703048
-0.00693579
3.25575e-06
-0.00848942
8.25251e-06
0.0103002
-0.0105927
-3.13499e-05
-0.0121576
8.81251e-05
0.0143452
-0.0168668
-1.19379e-05
0.0193141
-0.021833
-0.000252774
-0.000635748
-0.000107494
-2.11301e-05
2.32926e-05
2.97782e-05
2.56496e-05
2.07147e-05
1.58351e-05
-2.80469e-06
6.23001e-06
-0.000272686
0.000309657
-0.000304441
-0.000275819
2.64075e-06
3.02209e-06
-9.28947e-06
1.57224e-05
0.000260532
1.80395e-06
-2.86748e-06
-2.36136e-05
2.8936e-05
-2.74832e-05
-0.000369543
-3.36238e-06
-0.000108664
0.000759028
0.000130824
-2.7464e-05
-1.74692e-05
8.4148e-06
-2.06881e-06
0.000201793
0.000205553
-6.21394e-06
0.000171193
0.0002745
-4.87998e-06
-6.14599e-06
-6.14007e-06
-3.43553e-05
3.75653e-06
-0.00030623
0.000996492
4.33447e-05
-0.00151519
-1.63145e-05
0.00187366
-0.00165608
-4.0938e-06
-0.00216057
2.58004e-06
-0.00271155
5.95892e-07
-0.00347577
1.4225e-05
0.00440683
-0.00451343
-9.11604e-06
-0.00544145
9.08052e-05
0.006755
-0.00832614
9.86968e-05
0.0100879
6.53342e-07
1.20219e-05
1.3505e-05
1.24318e-05
9.47648e-06
1.11053e-05
1.88777e-06
5.00487e-07
-7.8292e-06
-9.31997e-06
-1.68273e-05
-2.95167e-05
-6.68371e-06
-7.51898e-06
3.41994e-06
3.40511e-06
4.6187e-06
7.03355e-06
8.86714e-06
1.36519e-05
1.54769e-05
1.67949e-05
2.63011e-05
3.40327e-05
0.00014402
0.000201321
-0.000575568
0.000223385
-0.000947127
0.00375061
-0.023378
-0.00638089
0.00018508
-0.0021407
0.0110182
-0.0109596
-0.0333013
-0.0129452
-2.56837e-05
0.00331307
0.000277152
-0.026136
-0.0114706
-0.00773776
0.0153172
0.00168672
-0.00173905
-0.00291924
0.00818527
0.000257457
-0.00572612
-0.00704953
0.00703738
1.10069e-05
-0.00628201
-0.00739397
0.00655332
5.96954e-05
-0.00806292
-0.00839159
0.00159102
-0.000457293
7.90389e-05
8.33148e-05
0.019326
-0.0175092
0.000282072
0.0156183
-0.000467398
0.000279527
-0.0197393
0.000461407
-0.0122033
0.0143081
0.000215647
-0.0158201
-0.0277392
0.0207135
-0.00163783
0.00271056
0.00913834
-0.000182568
0.0216942
0.0158777
0.0178249
-0.0212903
0.000755038
-0.0179863
-0.000285919
-0.0198961
0.000927424
-0.0190655
-0.000293854
-0.0191675
0.000968357
-0.0204742
0.0165767
0.0162479
-0.00108829
-0.0326037
-0.0261892
0.0122195
-0.00866878
0.0120255
0.00692137
0.00815709
-0.0106271
0.00294435
0.00227508
-0.0118586
0.00444847
0.00807904
-0.010025
0.0168938
-0.00903424
0.00146563
-0.00886686
0.00138676
-0.00956084
-0.00747809
0.00129616
-0.00062148
-0.000101276
-5.28561e-05
1.35923e-05
4.29524e-05
3.9111e-05
2.93895e-05
2.18603e-05
1.6103e-05
-2.88772e-06
6.53893e-06
-0.00017225
0.000211858
2.15098e-06
4.13448e-05
2.94266e-05
2.39533e-05
-0.000279453
-1.44041e-05
0.00032801
-0.000260025
-0.000136595
0.00032804
-0.000323163
-0.000453048
-0.000506024
0.000380076
0.00037788
-2.07741e-05
-3.02498e-05
-0.000105917
1.38612e-05
0.000389784
-6.27259e-05
-8.51099e-05
-6.64756e-05
0.000307979
0.000308882
-8.62587e-05
-6.1351e-05
0.000379043
-0.000181651
-0.000408184
-0.000182931
0.000383611
5.23489e-06
1.4086e-06
-3.29772e-05
1.55885e-05
4.90925e-05
0.000693064
-5.70171e-05
3.07138e-05
-2.87977e-06
-7.65891e-06
-1.32611e-05
-2.02307e-05
-3.34623e-05
-6.25746e-05
-0.000120064
1.85059e-05
-5.33884e-05
0.000107205
-0.000748055
-0.000212766
0.000792727
-0.00141333
-0.000506919
-0.00052783
-0.0157493
0.0151326
-0.000448167
-0.000345005
0.000980215
-0.000666576
-0.000356964
0.0027478
0.00503334
0.0026776
0.0151125
-0.00705961
0.00169794
0.0110262
0.0124818
-0.00366021
0.00124301
-0.00014949
0.000783577
-0.000186379
5.96256e-05
-0.00124625
-8.42973e-05
5.96514e-05
2.20621e-05
3.48241e-06
-3.0102e-06
8.84501e-06
-1.98776e-06
8.61905e-06
1.05493e-05
1.13814e-05
8.58921e-05
0.000168032
0.000258154
0.00036159
0.000482292
0.000688437
0.000395578
0.000118771
0.000225288
0.000129837
5.83737e-05
2.56473e-05
1.91451e-05
1.03326e-05
2.2274e-05
1.94479e-05
-0.00204714
0.00185006
-0.00237806
0.00304005
-0.00385404
7.62485e-05
-0.00337689
0.00263866
5.97511e-05
1.29595e-05
9.84721e-06
5.41401e-07
0.0016033
1.28174e-05
-8.93394e-06
0.000304592
-2.79977e-06
1.1165e-05
3.25831e-05
-5.77871e-05
0.000359108
0.000281485
-0.000115648
4.71504e-05
-6.10883e-07
-3.0852e-07
0.000175171
-5.96474e-06
-2.35886e-07
0.00012118
-0.000376426
0.000106294
1.92182e-06
4.30579e-05
3.11685e-05
3.4103e-06
-2.993e-05
1.46382e-05
2.98151e-05
-0.000115864
-0.000106424
0.0003605
-0.000137458
-0.000259137
-5.85479e-05
0.000330287
-1.39566e-05
3.25892e-05
2.01952e-05
-6.63583e-06
2.71104e-06
1.19753e-05
2.03265e-05
5.73269e-05
1.70113e-05
4.23403e-05
5.539e-05
7.30848e-05
1.41479e-05
-7.46742e-07
1.91341e-05
-1.38745e-06
0.00429359
-0.00540867
0.00485409
-0.0060464
0.00744935
-0.00910215
0.000160009
-0.00832124
0.00673305
0.000107589
1.04039e-05
9.20849e-05
0.00010698
0.000136489
0.000136878
2.71559e-05
-2.16595e-06
2.44098e-05
2.45988e-05
3.85792e-05
3.13306e-05
4.53538e-05
0.000107458
0.000319106
0.000189786
0.00109315
0.000126968
5.54826e-05
2.25004e-05
5.26374e-06
-5.21309e-06
-1.72381e-06
-2.3496e-06
6.99999e-06
4.24896e-06
2.93185e-06
1.31659e-05
1.49993e-05
1.15584e-05
-5.4827e-06
-1.00228e-05
1.06644e-06
-1.75602e-07
-3.04509e-06
3.02693e-06
6.07047e-06
1.0859e-05
1.79382e-05
2.31157e-05
3.48515e-05
2.81059e-05
3.52168e-05
6.71662e-05
5.74786e-05
3.9911e-05
9.81748e-05
0.00025034
8.68606e-05
9.29219e-05
0.00347446
-0.000607246
0.000380127
7.62109e-05
0.000265497
0.00739859
-0.000294076
-0.00107523
0.00597008
0.00204719
-0.0260632
-0.00950762
-0.0165766
0.0163576
-0.0116327
-0.0124828
0.0147731
-0.0177117
-0.000961107
-0.00132744
-0.0167451
0.0149748
-0.000136649
-0.000744933
-3.62268e-05
0.000288686
0.000393187
0.00632044
0.002194
-0.0115367
-0.0106333
0.017949
0.00162946
-0.004238
-0.00129825
0.00704673
0.000182955
-0.00820558
-0.00533415
0.00536072
-1.82203e-05
-0.00853547
-0.0058645
0.00470233
-4.35905e-05
0.00748279
0.00726014
0.00042129
0.0101147
-0.00988843
7.83506e-05
-0.00791701
-5.94624e-05
-0.000142545
-2.12527e-05
7.19837e-06
1.61872e-05
1.35903e-05
9.18795e-06
5.61145e-06
2.87712e-06
-1.55726e-06
-6.49644e-06
0.000135014
-0.00203305
0.0025298
0.000214244
-0.00328099
0.00410188
0.00625708
-0.00750932
0.00958488
-0.0114051
-0.000158812
-0.00739758
0.000134591
0.0061966
-0.000131117
-0.00475953
5.80992e-05
0.00396287
-0.000386635
-0.000269154
-0.00369778
-0.000166405
0.00436259
-0.00488543
3.56307e-05
-0.00981733
-2.10157e-05
0.0118935
-0.0103926
2.52768e-05
-0.0125723
2.83991e-05
-0.0147404
-2.5779e-05
-0.0170896
-5.36091e-05
0.0195643
-0.0203191
-1.37461e-05
0.0223389
-5.29929e-05
-0.0219753
0.0218989
-6.75109e-05
-0.0197944
0.020014
-0.022182
-1.29912e-05
2.20162e-05
0.000116554
8.4133e-05
3.77061e-05
1.31034e-05
2.20037e-06
-3.28751e-06
-6.2033e-05
-8.36436e-05
-0.000172327
-0.00021696
-0.00020937
-0.000253928
-0.00516992
0.00628615
0.000464747
-0.00787372
0.00910788
0.0140235
-0.0167277
0.0195252
-0.0233171
0.000387637
-0.017475
0.00169206
0.0133258
-0.000114261
-0.0113148
0.000432309
0.0093285
-0.000752458
-0.000368089
-0.00816936
-9.72993e-05
0.00983164
-0.0106864
0.000123925
-0.0198207
8.28262e-05
0.0230885
-0.0197594
-5.8825e-05
0.0221646
0.000155764
-0.0252344
0.0147982
-7.77044e-06
-0.0149466
0.0130057
-0.0166632
0.000497094
-0.00294536
-0.00146545
-0.00245233
-0.00409695
0.0172301
-0.0272752
0.00581363
-0.00629011
-0.00299895
-0.00170435
-0.0010974
-0.000742084
-0.000494353
-0.000275954
8.09952e-05
0.00176003
0.000820629
-0.000424432
0.000288376
0.00012232
0.00103113
-0.000909124
0.000891202
-5.45533e-05
-0.000590159
2.44018e-05
0.00116113
-0.00111375
-5.69545e-06
-0.00130929
1.09612e-06
-0.00162662
-2.71514e-07
-0.00210588
1.31231e-05
0.00270172
-0.00276136
-5.38377e-06
-0.00340324
7.17006e-05
0.00432079
1.89588e-05
8.38509e-06
0.00358941
1.2057e-05
0.00218292
-2.25078e-06
-4.39102e-06
-1.46189e-05
-5.11937e-05
4.21579e-06
0.000589237
3.75141e-05
3.58869e-05
0.000208416
0.000367625
-0.000676881
-4.96362e-05
-0.00117012
8.82203e-06
-0.00246922
-2.32529e-05
0.00309561
-0.00273337
3.3069e-06
-0.00354987
4.78126e-06
-0.00442647
2.72671e-06
-0.0055526
1.38455e-05
0.00689977
-0.00707763
-1.64333e-05
0.00873107
-4.91389e-06
4.48467e-06
0.00572141
-1.19548e-07
1.92097e-05
8.15728e-06
-4.43126e-06
0.00213106
-1.66091e-05
0.00129321
7.99555e-05
-3.86509e-05
0.0011346
-1.56949e-05
7.01205e-05
-0.000142538
0.00152107
-9.21298e-05
-0.000160826
-0.00231904
-0.000126666
-0.00311352
1.59968e-05
-0.00642737
-2.89988e-05
0.00791717
-0.00696022
1.87749e-05
-0.00864256
1.69504e-05
-0.0103646
-3.4183e-06
-0.012367
-1.14559e-05
0.0146216
-0.015099
-5.08021e-05
0.0174866
-3.45219e-05
-4.24462e-06
1.29671e-05
1.77923e-05
3.24288e-05
2.62942e-05
2.05232e-05
1.42927e-05
1.14082e-05
1.17279e-05
1.61287e-05
1.03994e-05
0.000120577
0.000195634
0.000283431
9.42435e-06
3.39364e-05
2.41379e-05
2.03624e-05
1.4699e-05
-1.48106e-06
5.8565e-06
-0.000121279
-0.00164964
5.48013e-05
-0.00161357
0.00227573
0.000121589
-0.00274938
-0.00281585
0.00231826
0.00216783
0.000118398
-0.00262571
-0.00300312
0.00245694
-0.00174602
5.16541e-05
-0.00156021
0.00138282
0.00145477
0.0014344
0.00139951
5.49608e-05
-0.00171543
-0.00159557
-0.000121338
0.00220473
0.000122084
-0.00294756
-0.00269111
-0.00019666
0.00351969
0.000232699
-0.00479829
-0.00435634
-0.00447031
-0.00458028
0.000236138
0.00363963
0.00371433
-0.000195619
0.00345447
0.000229953
-0.00424816
-0.00489015
0.00394873
-0.000202119
-0.00247645
-0.00370601
8.18789e-05
0.00198712
-0.000127125
-0.00148995
-0.00218698
3.72524e-05
0.00129884
0.00154203
-0.00091905
8.57872e-05
-0.000891942
-0.000121414
-0.000906573
8.53676e-05
-0.000890564
-0.000121302
-0.000907791
8.81547e-05
-0.000905539
0.00152248
0.00131171
-0.000126993
-5.88161e-05
0.000142351
-0.000552832
-0.000587887
-0.000571305
-0.000636037
-0.000605098
-0.000610207
-0.000609849
-0.000563951
-0.000858423
-0.000630362
-0.000574263
-0.000586832
-0.000394567
-0.000159037
-0.000201328
0.000378441
-0.000425416
0.00107301
0.00108561
0.00107785
0.0010794
0.00111983
0.00103622
-0.000408994
0.000329608
-0.000157903
-0.000394496
-0.000202416
0.000389747
1.96191e-06
5.79781e-05
5.88957e-05
0.000123186
0.000199335
-8.99789e-06
-0.000293311
0.00575756
0.000373
-0.00690325
-0.00707639
-0.00654326
-0.00755872
0.000359673
0.00535409
0.00613771
-0.000300256
-0.00397647
-0.00598608
0.000165839
0.00317191
0.00475494
-4.53713e-05
0.000432031
-0.000707776
9.20216e-05
0.000695379
-0.00109867
0.00013701
0.00109047
-0.00160771
0.000245157
0.0018082
-0.00207676
0.000739778
0.00370416
0.000631345
0.00196709
-0.000537586
0.00106447
-0.000564324
0.000738308
-0.000428497
0.000525749
-0.00030086
0.000343791
4.80358e-05
-0.000450325
0.00294985
-1.96604e-05
0.000246428
-0.000338333
-7.53858e-06
0.000110431
-0.000228411
-0.000281253
8.73735e-05
2.00707e-05
-0.00122316
8.55928e-05
-0.000852278
-0.000127445
-5.70688e-05
0.000155426
-0.000440001
-0.00067164
-0.000671096
-0.000559451
-0.000185159
-0.000420022
-0.000157806
-0.000290956
-0.000957486
0.000149748
0.00134916
0.0010319
0.00112728
-0.000408415
-0.000895707
-0.000550869
0.000145452
0.000465948
0.000454375
0.000698312
0.000977385
0.00132531
0.000263126
-0.00610092
-0.00924772
0.00742466
0.00494087
-0.000460164
-0.000299938
-0.000166085
-0.000144674
0.000668095
0.000890027
0.00116055
-0.00064347
-0.000419159
0.00910837
0.000510517
-0.00958957
-0.0111409
-0.00888842
-0.0137312
0.000369402
0.00741008
0.0111132
-6.41023e-05
0.000125139
6.01685e-05
3.88714e-05
7.24913e-05
0.000129034
-0.0122733
0.0109815
-0.0130764
4.06949e-05
0.000284705
0.000193225
0.000136514
3.5817e-05
-4.14897e-06
0.0100964
3.96023e-05
3.21289e-06
0.0144147
0.000235488
-3.57729e-06
0.000377961
0.000465953
-7.55378e-05
1.20407e-05
3.69491e-05
1.65586e-05
2.5185e-05
-2.25566e-05
2.83593e-05
2.49527e-05
4.30735e-05
7.13275e-06
3.50466e-05
3.10505e-05
1.29589e-05
1.42682e-06
2.53901e-06
1.88653e-06
1.34762e-05
0.000322879
0.000545851
0.000364461
0.00029208
0.000294921
0.000327263
0.0001624
0.00016192
4.92165e-05
0.000106967
0.000972054
0.000217169
0.000447916
0.000442557
0.000584464
0.000590376
0.000675533
0.000629412
0.000634976
0.000864205
0.000738183
-0.0114899
0.012444
0.000970054
-0.0155572
0.000712831
0.000496031
-0.00257332
-0.00349316
-0.0217991
-0.0230633
-0.0383809
0.00970705
0.00322353
0.0181101
-0.00656272
0.0104438
-0.00115569
-0.0117677
0.0106685
-0.000245676
0.00737651
-0.000264634
0.0100321
-0.0110274
-0.000897856
-0.000278361
-0.000335627
0.000138776
-0.00117827
0.00770199
-0.0003358
0.000430316
0.000244708
0.000125237
0.000144651
7.11258e-05
6.39325e-05
-0.000159246
-0.00016533
-8.88184e-05
9.61632e-05
0.000719931
0.000101747
-5.60265e-05
-9.30682e-05
0.00598735
-0.00735586
7.44569e-05
-0.0143195
1.31794e-05
0.0170701
-0.0147572
1.52595e-05
-0.0173334
2.9417e-05
0.0171487
-4.62318e-06
8.95261e-06
1.78878e-05
3.71108e-05
8.76905e-05
0.000666707
0.000132952
4.5257e-05
2.10694e-05
8.1871e-06
8.16495e-06
7.44174e-06
4.95516e-06
2.84644e-06
0.0021305
4.78732e-06
0.00274319
2.13296e-06
0.00163712
0.00127938
3.94315e-06
0.00107071
0.000587863
1.54349e-05
2.3201e-06
-1.00795e-06
8.27435e-06
4.92367e-06
0.00351012
8.31247e-05
-0.000223685
0.00276869
-0.000147127
0.000116752
-0.000314163
0.00391439
-0.000188728
-0.000352411
-0.00562758
-0.000173726
0.00667274
-0.000419047
-0.000224145
0.000243997
0.000170109
1.73458e-05
0.0056089
1.35612e-05
0.00560697
3.10541e-05
4.48938e-05
0.00858645
2.3111e-05
0.0105135
4.04108e-05
0.000110991
0.0125372
-0.000609102
0.00874354
-0.000401925
-0.000485564
-0.0116336
0.000133969
0.0120438
-0.00115997
0.000269304
-0.000256223
-0.00216685
-0.00566713
-3.82959e-05
-0.000881799
-0.00037413
0.000233261
0.000232546
0.0173579
3.18218e-05
-2.13343e-05
-6.42634e-05
-7.16944e-05
-0.000337586
-1.45838e-05
4.70219e-05
3.8086e-05
0.0149523
0.0124548
-1.07453e-05
-1.25387e-06
-3.95687e-05
-9.94437e-05
-0.000132443
-0.000581961
-0.000197226
-0.000183031
-8.55102e-05
-2.92051e-05
0.0126912
-3.2134e-05
4.37334e-06
1.37044e-05
0.000259228
0.000166888
8.57272e-05
-4.93672e-05
-1.2009e-05
0.000365662
0.000488717
0.000673526
-7.10347e-05
0.000283591
0.000255618
-0.000483735
0.00233576
0.00527459
-0.0036021
0.0237318
0.00193045
0.00107433
0.000240368
0.00104826
0.00129385
0.00113092
0.000880471
0.000661522
0.000460503
0.000469767
0.000148963
-4.35959e-05
-4.42401e-05
-0.000858221
-0.000425623
-0.000895602
-0.000442211
0.000151333
0.000447284
-0.000168334
-0.000127304
0.00201721
0.0024183
0.000120746
5.47685e-06
1.08724e-05
1.17819e-05
1.12672e-05
1.26572e-05
1.76939e-05
-3.23834e-05
0.000379025
0.00111934
7.67107e-05
5.58382e-05
7.56639e-06
-2.48349e-06
1.3189e-05
1.30944e-05
1.53537e-05
1.6878e-05
-1.15619e-05
0.000194314
0.000279584
0.000288683
0.000385036
-6.23678e-05
-0.000565584
-0.010426
0.00054456
-0.0101461
0.0115716
0.000805701
-0.0142152
-0.0147015
0.0118967
0.0111381
0.000714191
-0.0133936
-0.0157218
0.0127501
-0.000574044
0.010645
0.0158309
1.63833e-05
8.20838e-05
-0.00086584
0.00173961
0.00218114
0.00256293
0.00535439
0.00627235
0.0130867
0.0306721
0.00374522
0.0160514
0.0237973
-0.00203304
-0.00119514
0.00136746
0.0014041
-0.000787257
-0.000583266
0.00794391
0.00851862
0.00832571
0.00807616
0.00053601
-0.010889
-0.00990477
-0.000574863
0.0113228
0.00080702
-0.0152611
-0.0140133
-0.000789913
0.0148196
0.0158
0.0140335
-0.000766909
-0.000151456
-0.000213152
-1.78474e-05
2.21903e-05
9.66799e-05
2.25685e-05
2.2313e-05
-3.17344e-05
-1.24825e-05
-0.000214934
0.00216694
-0.000244463
-0.000148647
-0.000335781
-0.000298368
-0.000186007
-0.000315848
-0.000143422
0.00580427
-0.000175189
0.000106054
2.5579e-05
9.05768e-06
0.000242733
0.000211169
-0.00259923
0.0131417
-0.00678463
-0.024018
-0.0281679
0.00241636
-0.0134018
0.00568407
0.00184017
-0.00830877
-0.00922757
-0.000917799
-0.00135192
0.00883725
0.00818859
-0.000824391
-0.00804204
-0.000171868
0.00797406
-2.48623e-05
8.33918e-05
-2.19905e-06
7.94614e-05
0.000280298
0.000291624
0.000186248
4.58353e-05
3.35002e-05
-5.80225e-05
-5.34759e-05
3.16827e-06
-7.46683e-05
-2.86829e-05
-1.0553e-05
0.000373018
0.000472388
0.000475385
-0.000194364
0.000572637
0.000532939
-0.000318943
0.0208456
-0.00120826
0.00132152
-0.0231258
0.00052382
0.000289201
0.00298682
0.000359018
0.000612145
0.00195255
-0.00015713
-2.78836e-05
-0.000142268
0.000573103
0.00514595
-0.000343484
-0.000229106
-0.000139746
0.00010186
-0.0142115
0.0162896
-0.000608288
1.0353e-06
-0.000761132
-0.00173319
-0.00193435
-0.000358683
-0.000176043
0.00619962
-0.000196787
-0.000208444
-0.000397738
-7.70223e-05