/*--------------------------------*- C++ -*----------------------------------*\
| =========                 |                                                 |
| \\      /  F ield         | OpenFOAM: The Open Source CFD Toolbox           |
|  \\    /   O peration     | Version:  2306                                  |
|   \\  /    A nd           | Website:  www.openfoam.com                      |
|    \\/     M anipulation  |                                                 |
\*---------------------------------------------------------------------------*/
FoamFile
{
    version     2.0;
    format      ascii;
    arch        "LSB;label=32;scalar=64";
    class       volScalarField;
    location    "1.8";
    object      gradTy;
}
// * * * * * * * * * * * * * * * * * * * * * * * * * * * * * * * * * * * * * //

dimensions      [0 -1 0 1 0 0 0];

internalField   nonuniform List<scalar> 
5322
(
0.0459165
0.005616
0.00155991
0.000734981
0.00133951
0.00144016
0.00121361
0.000923957
0.000671259
0.000447362
0.000148341
-0.000513849
-0.000501817
-0.000462727
-0.000422813
0.000976486
0.0012818
-1.65858e-05
0.00103228
-0.00157712
0.00180516
-0.00246841
0.00293385
-0.00400153
0.00479882
-0.00611943
0.00719708
-0.00929132
0.0107475
-0.0130488
0.0149019
-0.0178129
0.0205211
-0.020399
0.0210632
-0.0121321
0.0244407
0.0296869
0.0150333
0.0169458
0.0219407
0.0184424
0.0198165
0.0205099
0.0195636
0.0202039
0.0198769
0.0212479
0.0205681
0.0188878
0.0238601
0.0105638
0.0124477
-0.0381142
-0.00182195
-0.0218665
0.0121163
-0.0284568
-0.00131893
-0.0247221
0.0122947
-0.0279602
-0.00117162
-0.0245423
0.0123511
-0.0290115
-0.00162422
-0.0238226
0.0125386
-0.0324255
0.000951984
0.0248711
0.0137929
0.0193508
0.0143805
0.0182859
0.0152067
0.0182363
0.0155226
0.0218105
0.00156483
0.00864197
0.0125981
0.0199297
-0.00125045
-0.00706187
0.00267494
0.00505743
0.0109826
0.0016219
0.00295711
0.000522372
7.07305e-05
6.65476e-05
0.0240021
-0.0139599
0.000457937
0.0141125
0.00044024
-0.00078287
0.00264586
0.000465264
0.0151074
-0.0233381
0.0209482
0.000520435
-0.000479004
-5.73971e-05
1.48336e-05
4.59837e-05
4.16696e-05
3.09521e-05
2.27045e-05
1.63651e-05
-2.274e-06
6.18201e-06
0.000360973
-0.000133606
-5.9273e-05
-0.000261327
0.000328742
-0.000158378
-0.000322802
-0.00045282
-0.000506349
-1.92725e-05
0.000380297
-0.000281628
2.79637e-05
0.000311256
-0.000308604
1.35128e-05
0.000322911
-0.000331533
-1.1188e-05
0.000300117
-0.000361703
-3.00691e-05
-9.45656e-05
0.000557184
0.000454444
-0.000320454
0.000208469
0.000161387
-0.000352392
4.86488e-05
-0.000335487
0.000260682
0.00027418
-0.000304103
-4.16355e-06
-0.000275617
0.000279059
0.000309855
-0.000271769
-4.1067e-07
-0.000253347
0.000330713
-1.35011e-05
-5.93653e-06
0.00109909
-0.000851497
0.00111867
-0.00146448
6.86486e-05
-0.000711719
1.62226e-05
5.6128e-05
-9.31073e-05
0.000286537
-0.00057057
0.000571061
-0.00105027
4.2129e-06
0.00107722
-0.00126189
0.00131423
-0.00164608
9.34927e-06
0.00162743
-0.00210434
0.00218459
-0.00276264
1.41669e-05
0.00271192
-0.00347809
0.00360034
-0.00451819
1.96793e-05
0.00443433
-0.00557548
0.00576597
-0.00709679
3.01613e-05
0.00696799
-0.00858238
0.00887326
-0.0106496
4.85731e-05
0.0104501
-0.0126476
0.0130713
-0.0152083
7.20112e-05
0.0148779
-0.0177468
0.0183141
-0.0203318
0.000103198
0.019766
-0.0234076
0.0236018
-0.0140039
-9.96823e-05
-0.00158542
0.000791316
-0.000483249
-2.29339e-05
0.000129294
0.00020857
1.67713e-05
0.0240288
-0.013946
6.59865e-05
0.0167635
-0.00259329
-0.00113525
0.00098446
-0.000954041
0.0140231
-0.0236679
0.000148283
0.000104319
0.000295277
0.000157225
6.27808e-05
1.72113e-05
-1.04137e-06
-8.34948e-06
-1.03331e-05
5.49748e-06
-5.42083e-06
-0.000287666
-0.000308725
-0.000309651
-0.00028746
7.27031e-05
9.02691e-05
5.05296e-05
-0.000374099
0.000173776
-0.000375483
8.97585e-05
7.28608e-05
5.13908e-05
-0.000370957
0.000118114
0.0003503
0.000217759
-0.000374173
0.000174408
0.000380549
0.000533172
0.00057982
-0.00106399
-0.00106268
-0.00114029
0.000991111
-0.00147837
0.00173755
-0.00234441
0.00291533
-0.00377835
0.00470323
-0.00594099
0.0072321
-0.00903284
0.0105735
-0.0132342
0.0146979
-0.0184381
0.019217
-0.00343962
0.0119885
-0.00200502
0.000436821
0.0166409
-0.0169676
0.000944392
0.0133241
-0.0125085
0.000656821
0.00979415
-0.00859482
0.000465273
0.00676549
-0.00564653
0.000323925
0.00441173
-0.0035831
0.00021348
0.00272243
-0.00221914
0.000130397
0.00159656
-0.00139816
0.000122647
0.000870099
-8.51247e-05
0.000870192
-0.00139781
0.00012276
0.000995305
-0.00113538
0.000429437
0.000675234
0.000487276
0.000469184
-0.000997693
0.000788548
-0.00132969
0.00152915
-0.00210316
0.00263623
-0.00340295
0.00428537
-0.00537971
0.00659139
-0.00824454
0.00962817
-0.0121124
0.0133372
-0.0163736
0.0169118
-0.00189901
0.00897696
-0.00702855
0.000796529
0.0233934
-0.0238949
0.00120035
0.019307
-0.0170477
0.000762617
0.0139891
-0.0114354
0.000496773
0.00953234
-0.0074593
0.00033446
0.00621928
-0.00472007
0.000216695
0.00389172
-0.0029056
0.000134936
0.00234806
-0.00181771
0.00012972
0.00133545
-0.00126346
0.000424579
0.00094472
0.000824813
-0.000411899
0.000918826
-0.000209089
0.000124022
0.00103846
-0.000911242
0.000999184
-0.00116794
0.00187519
-0.00166026
-1.62915e-05
-0.00151037
0.00129281
-0.0011157
2.61518e-05
0.00116016
4.66007e-05
5.25618e-06
-0.00030316
2.77639e-05
-2.39025e-05
1.6065e-05
-8.77838e-06
-4.19252e-06
0.00107223
-0.00107404
0.00127959
-0.0016279
2.9232e-06
0.00213367
-0.00271527
0.00352934
-0.00443724
1.47425e-05
0.00566537
-0.0069649
0.00873576
-0.0104332
3.35793e-05
0.0128864
-0.0148446
0.0180388
-0.0197622
-3.45149e-05
3.54177e-05
5.66341e-05
0.000161401
8.06934e-05
8.42849e-05
0.0130257
-0.014842
6.70547e-05
0.0176432
-0.0206022
0.0184046
-0.0195779
0.000181847
0.0239079
-0.0262389
0.0168698
-0.0128416
-0.0239899
-0.0018613
1.44962e-05
-0.00860583
-0.00232349
0.000341342
0.0123839
0.0151407
0.000972428
-0.0200091
0.0132498
-4.21265e-05
-0.011836
0.00929102
-0.000171503
-0.00751264
0.00623671
-0.000117598
-0.00469228
0.00396624
-0.000108584
-0.00292014
0.00252984
-9.05406e-05
-0.00169414
0.00159574
-0.000115758
-0.000979365
0.000234929
0.000393958
-0.000636206
-4.25987e-05
0.00115221
-0.00135798
0.00153151
-0.0019241
0.00249334
-0.00313712
0.00508451
-0.00446719
-2.24059e-05
-0.00405147
0.00352904
-0.00274308
-2.24823e-05
0.00310994
1.49246e-05
-5.87566e-05
-3.24516e-05
-9.47322e-05
-0.000243651
1.0756e-05
7.23842e-05
1.25241e-05
7.3187e-05
8.26528e-05
4.12677e-05
-5.60623e-05
0.000893979
0.000284404
5.07478e-05
0.000226279
-1.38664e-05
-0.000109409
-7.71191e-05
8.68701e-05
0.00013087
-0.000130063
-0.000209506
-0.00232281
-0.000117429
0.00279732
-0.00376383
0.00398198
-0.00492324
0.0061735
-0.00739556
0.0121455
-0.01047
4.1455e-06
-0.00994734
0.00877617
-0.00700072
-1.68711e-05
0.00801845
5.82869e-05
-8.35037e-05
-7.7985e-05
4.54207e-05
-0.000745644
-0.000361614
-0.000255907
-0.000471287
-0.00018247
-0.000131855
0.00175421
-6.94961e-05
-4.56214e-05
0.000226247
-0.000419131
-0.000137091
0.000519786
0.000968556
0.00175111
9.87607e-05
-1.35667e-05
0.000112665
4.43391e-05
-0.0014712
-7.10083e-05
0.0017483
0.00159544
-0.00221536
0.000130824
-0.00234017
-0.000130742
0.00292997
0.00272322
-0.00357372
0.000214735
-0.00378726
-0.0002038
0.00471222
0.00442269
-0.00563135
0.000326752
-0.00598112
-0.000209148
0.00721116
0.00680736
-0.00858227
0.000472033
-0.00914312
6.35087e-05
0.0104275
0.00993248
-0.0125535
0.000671409
-0.0134357
0.00119322
0.0141083
0.0137355
-0.0172872
0.000968164
-0.0184611
0.0046866
0.0176286
0.0176264
-0.0025554
0.00044844
-0.00310814
0.0569231
-0.0278825
-0.028802
0.0425237
0.0112196
0.00397121
-0.0332504
-0.00779341
-0.00473216
0.0142705
-0.0149789
-0.000287133
0.00066738
-0.00280338
-0.00315848
-0.000648776
0.000847165
0.000459049
-0.000196386
-0.00052947
-0.000176505
0.000230807
6.37608e-05
3.21319e-05
1.39415e-05
-1.30297e-06
-1.27755e-05
-4.84929e-05
-2.3378e-05
0.000588778
-0.000588989
4.93868e-06
4.20093e-06
-0.000599985
0.00059088
-1.48318e-06
2.23523e-06
-2.32476e-06
-4.43182e-05
-2.81973e-05
0.000107075
6.54368e-06
0.000123049
-4.32814e-05
-5.34274e-05
-1.94698e-06
0.000203475
-0.000240245
0.000243565
-0.000200257
-0.000203679
-0.000169937
8.33403e-06
0.0002423
0.000213731
-0.000211225
-5.88339e-06
-0.00024185
7.98e-07
1.74285e-06
8.04956e-06
-5.85147e-08
-2.78961e-06
-0.000108298
-6.13695e-05
-0.000115025
-0.000165775
-0.000188887
-0.00010663
-4.33602e-05
0.000834529
-0.00197728
-0.000853291
-0.000213625
0.00705163
-0.0082497
0.00921011
-0.0108
0.0130674
-0.00058639
-0.0122202
-0.000505347
0.0108543
-0.000296794
-0.00110295
0.000180931
0.000127407
0.000249521
0.00029356
-0.000264496
-0.0031939
0.0109842
-0.00526397
-0.0183345
-0.00284923
-0.00347854
-0.0432728
-0.0122543
0.00159324
-0.0182904
0.0132097
0.000662262
0.00058823
0.0159599
0.0133566
0.00170924
-0.00154164
0.0175447
0.0157857
0.00181065
-0.0018386
0.0159668
0.0179605
0.00169084
-0.0041173
0.0133197
0.0181923
-0.00650049
0.0105314
-0.00914308
0.00978029
-0.0383369
-0.0207065
0.00331345
-0.00948047
0.0181155
-0.0011413
-0.0293559
0.0169329
-0.000317523
-0.0199799
-0.0198892
-0.0285573
0.00961174
-0.0149356
-0.0100356
0.0154886
-0.0270925
-0.0040676
0.017084
-0.017318
-0.00140259
0.0132067
-0.0112041
-0.000739725
0.00924423
-0.00732591
-0.000534777
0.00613871
-0.0047163
-0.000381166
0.00392442
-0.00294005
-0.000229636
0.00243918
-0.0017897
-6.30253e-05
0.00155522
-0.00103386
0.00020715
0.000908319
-0.000429112
0.000819526
0.000942508
-0.00127517
0.00133222
-0.00183616
0.000131372
0.000785919
-0.000998714
0.000423674
0.000466407
0.000490863
0.000674689
0.000578494
0.000428984
0.000844161
0.000516812
-0.000149941
-0.000441896
-0.000657182
-0.000648909
-0.000964758
-0.00150356
-0.00116113
-0.000555621
-0.000316814
0.00446725
-0.00565266
-0.000227285
-0.000165865
-0.000313649
2.95868e-05
-0.00647098
0.00567399
2.35437e-05
0.0045184
-0.00569056
2.49487e-05
0.00711319
-0.00875114
5.27596e-05
0.0106945
-0.0128749
9.92935e-05
0.015269
-0.0180001
0.000135429
0.0202544
0.00016038
0.000368352
1.21973e-05
-2.60643e-05
-7.25886e-05
1.18757e-05
2.94522e-05
2.22183e-05
1.30473e-05
5.95808e-06
2.10066e-06
1.03831e-06
5.26877e-06
1.60351e-05
-0.000574196
1.04505e-05
3.2358e-05
-3.75823e-06
-8.24097e-06
-1.37327e-05
-2.07104e-05
-3.51941e-05
-6.83127e-05
-0.000133384
-0.000179221
0.000741499
-0.000220981
-0.000578573
-0.000791266
0.0153583
-0.0164417
0.0193363
1.96262e-05
-0.00271025
0.0022572
0.0069998
2.47553e-05
-0.00629551
0.0058898
0.0060095
6.22758e-06
-0.00670384
0.00625665
0.00540394
-9.23686e-06
-0.00846024
0.00802319
0.00757389
-0.000165531
0.0106551
-0.0112084
0.0109315
-0.0117361
-0.00109826
-0.00587442
0.00832943
-0.000745436
-0.00802632
-0.00018885
-5.8174e-05
0.0277122
-8.86735e-05
-0.0278902
0.0175875
-0.000629825
-0.0181933
0.0182399
-0.000405761
-0.019113
0.028081
-0.000273466
-0.028099
0.0245076
-0.0244253
0.0242602
-0.0248653
0.000114952
-0.0277906
0.0274831
-2.90097e-05
-0.0182391
-0.000701194
0.018388
-0.0157021
9.12004e-05
0.0279209
0.0101157
0.0270191
0.0100287
-0.0116336
0.0169541
0.00224033
-0.0122944
0.0120934
0.000880088
-0.00941691
0.00847165
0.00059022
-0.00660511
0.00583773
0.000406939
-0.004409
0.00376891
0.000287463
-0.00282749
0.00239168
0.000143296
-0.00176262
0.00138861
-1.56356e-05
-0.00115874
0.000683105
-0.000374302
-0.0010408
-0.000286534
-0.000894281
0.000593398
5.6267e-05
3.00675e-05
0.000362882
9.64327e-05
-0.000561205
-0.000455158
-0.000117603
-0.000354968
-0.000221443
-0.000169666
-0.000393784
-0.000186428
-0.000198965
-0.000390727
-0.00057467
-0.000613628
-0.000426148
0.00113289
8.35926e-05
-0.000795477
-0.000119947
0.00131233
0.00154487
6.36033e-05
-0.00145719
-0.000129598
0.00203143
0.00296497
-6.06088e-06
-0.00392031
9.24469e-05
0.00478376
-4.305e-05
-0.0062651
0.000148767
0.00747269
-7.11725e-05
-0.00959626
0.000151657
0.0111659
-0.000100315
-0.014037
0.000211717
0.0158948
-0.000184652
-0.019643
7.54951e-05
0.0213099
-0.000489835
-0.0263275
-0.000692419
0.000596476
-0.0159413
0.026016
0.000148224
0.0146379
0.000378583
-0.0122017
0.0200308
-4.30656e-05
0.0105763
0.000314645
-0.00882285
0.0144696
-3.54061e-05
0.00739352
0.000241951
-0.00603125
0.00994138
-1.90431e-05
0.00493108
0.000190925
-0.00395458
0.00651384
-1.12155e-05
0.00315705
0.000127841
-0.00247946
0.00409176
-5.84232e-06
0.0019343
8.34072e-05
-0.00153209
0.00249882
-9.36879e-06
0.00118325
4.88377e-05
-0.00100042
0.00152844
-4.38051e-05
0.000917114
-0.000121354
0.000211019
-0.000944933
-0.000818292
0.000425264
-0.000916423
-0.00021282
-7.98797e-05
-0.00175423
-0.000970719
-0.0008513
-0.000560765
-0.000427552
0.00101376
0.00116948
0.000104161
-0.000753495
-0.000128151
0.00185838
3.92765e-05
-0.00236429
8.60817e-05
-0.000209046
-0.000102782
-4.16782e-05
-0.00104134
3.7327e-06
0.000372182
-4.5144e-05
-6.95048e-05
-9.71301e-05
0.000377227
-0.000120895
5.07879e-05
4.44693e-05
1.56714e-06
3.52126e-06
3.18392e-06
3.80931e-06
3.15681e-06
4.49324e-06
-4.71102e-06
-7.55423e-07
0.0021337
-0.00247049
1.37305e-05
-2.85146e-06
-1.66269e-05
1.9227e-06
-0.00130703
1.17733e-06
0.00164218
-0.00215912
4.17233e-06
0.00275701
-0.00355512
1.08509e-05
8.79697e-06
2.97331e-07
9.75325e-06
1.09418e-05
3.33897e-05
4.62264e-05
2.955e-05
1.67991e-05
8.92722e-06
7.05849e-06
1.53158e-05
1.04533e-05
2.35013e-07
0.00161812
-0.0020635
0.00186339
-0.00239629
0.00306386
-0.00388437
6.54917e-05
-0.00142206
7.3494e-05
0.00133042
6.94869e-05
-0.000925755
4.29407e-05
0.000719607
-4.88307e-05
-9.95964e-06
0.000253754
-2.39154e-05
-0.000466995
0.00297825
7.74786e-05
-0.00241829
-0.000202909
0.00309318
0.00405854
0.000222953
-0.00402819
-0.000295125
0.00506892
0.00613763
0.00036022
-0.00623543
-0.000421097
0.00749323
0.00917278
0.00049766
-0.00926607
-0.000574943
0.0104162
-0.0130465
-0.000740444
0.013323
-0.0177339
-0.00016136
-0.000620969
-0.000124475
-2.41512e-05
2.3302e-05
3.02737e-05
2.57589e-05
2.08781e-05
1.63933e-05
-2.77478e-06
6.25441e-06
0.000288698
0.000308064
0.000311097
-7.74643e-05
0.000380217
2.71924e-06
1.55236e-07
0.000391734
-6.64753e-05
0.000377145
-0.000117688
1.57383e-05
-3.00677e-05
3.15177e-05
-7.61367e-06
1.41882e-05
-1.59773e-06
-0.00125232
5.4744e-05
3.26548e-05
1.16753e-05
2.4085e-06
7.9079e-07
-0.00021154
0.000212357
8.42387e-06
-0.00017325
0.000282215
-6.82196e-05
1.98596e-05
5.64225e-05
1.60385e-05
-3.33568e-05
0.000383034
-0.00123049
8.33991e-05
-0.000834832
-0.00012761
0.00127392
0.00157887
4.65796e-05
-0.00147999
-0.000122713
0.00245771
0.000116978
-0.00247974
-0.000200106
0.00327993
0.00397056
0.000223188
-0.00407811
-0.000303935
0.00504791
-0.00629795
-0.00042879
0.00747015
0.000349981
0.000268452
0.000190016
0.000121487
6.28979e-05
2.01734e-05
-5.98801e-06
2.74486e-06
1.21039e-05
4.02944e-06
-5.22525e-06
-2.66357e-05
-1.67602e-05
-7.13705e-06
-8.87998e-06
-5.78096e-05
-5.30716e-05
-0.000116344
-0.000116381
-0.000173573
-0.000200788
-0.000944025
-0.00143875
-0.00235588
-0.00254828
-0.00465039
-0.00398933
-0.00228854
-0.00861593
-0.0258893
0.00158544
-0.041256
-0.0307761
-0.0232915
-0.015547
-0.0136998
0.00517824
-0.0121029
-0.000702846
0.00308037
0.000333343
-0.0001796
0.0148219
-0.0172198
0.0196867
0.000178514
-0.00243277
0.00368894
0.00812683
0.000293648
-0.00566931
0.00760774
0.00759368
0.000307213
-0.00606018
0.00783821
0.00713516
0.000225415
-0.00811874
0.00892693
-0.000404574
0.000335351
0.000597459
0.00377873
-0.0160057
-0.023032
0.00100798
0.0193137
0.000414548
0.000158089
0.0121958
0.000142476
-0.0199599
0.0232954
1.5971e-05
-0.0253804
0.0149864
-0.0150534
0.0131466
-0.00244451
-0.0167884
0.000542475
-0.0203179
0.0277793
-0.024319
0.0223743
-4.47159e-05
-0.0224064
3.33955e-05
0.0221932
-6.72419e-05
-0.0222952
1.26465e-05
0.0223939
-8.04058e-05
-0.0224784
0.0247463
-0.0283555
0.00196454
-0.022184
0.0305963
0.00160258
0.000900076
-0.00982254
0.0104723
-0.0108437
3.45244e-05
-0.00805669
0.0074137
0.000529975
-0.00921484
0.00666125
-0.00782452
0.000652272
0.0152189
-0.00845
0.00501403
0.00106936
-0.00941206
0.0074368
-0.000163877
-0.000141366
-8.40386e-06
0.000243023
0.00011964
4.137e-05
6.96962e-06
-5.27194e-06
-9.73096e-06
-1.06153e-05
5.30468e-06
-5.0058e-06
0.000172786
0.000203447
5.81365e-07
-4.61329e-05
-2.85579e-05
0.000352778
0.00011828
-0.000319886
0.000161273
0.00020817
-0.000339132
5.4782e-06
-0.0003634
-2.96359e-05
-9.60534e-05
-0.000308658
0.000456083
0.000563432
2.86331e-05
0.000107484
-2.57635e-05
1.49871e-05
0.000262377
-0.000282545
-2.74644e-06
-0.000306178
0.000307286
0.000284383
-0.000260247
-4.85956e-07
-0.000334136
1.75127e-07
0.000334788
4.89993e-07
1.41142e-06
-9.81121e-06
5.09097e-06
2.66275e-05
7.15701e-05
0.00174959
0.000967324
0.000510193
-0.000151801
-0.000444703
-0.000675519
-0.000976459
-0.00146266
-0.00233487
-0.00402285
-0.004101
-0.00792188
-0.0086422
-0.0185646
-0.0303423
-0.0274387
-0.0275817
0.0114579
-0.0163055
-0.00804228
-0.00869143
-0.025349
-0.0309438
-0.0279184
-0.0279354
-0.0278324
-0.0277605
-0.0317198
0.0116102
-0.00163737
-0.00657882
0.0347249
-0.00978132
-0.0230597
-0.0214716
-0.0062375
-0.00760605
-0.0173877
-0.0179963
-0.0024781
-0.00441902
0.000337292
0.000821111
0.000748058
0.000551053
0.000375023
0.000288724
0.000158626
0.000153818
4.1194e-05
0.000101609
-0.000287609
-0.000509646
-0.00075937
-0.00111501
-0.00171794
-0.00299298
0.000755055
0.000545408
0.000463932
0.000630489
0.00058491
0.000439752
0.000434382
0.000283067
0.000357081
0.000210349
0.00152427
0.00233151
-0.00291918
0.00386262
-0.00471536
0.000216895
0.00262268
-0.00211133
0.00013636
-5.85959e-06
-5.79937e-05
-5.56319e-05
-0.00133459
-7.08236e-07
-0.000373181
0.000219159
-9.87368e-05
-1.67506e-05
-2.68201e-05
4.80867e-05
-0.000353387
0.000273369
-1.66418e-06
-5.62668e-07
-5.35023e-07
4.681e-07
0.000173171
-5.61655e-06
1.40396e-06
1.23669e-06
1.25456e-06
-0.000106685
1.14895e-06
4.47714e-05
2.79739e-05
3.6964e-05
-2.79542e-05
2.55621e-05
-1.41352e-07
3.01659e-06
-0.000106443
0.000353921
0.000340396
-0.000205892
-4.62869e-05
-0.000163102
0.000322278
3.01382e-05
1.02989e-05
1.66789e-06
7.10248e-07
-7.33516e-06
-5.74169e-06
-5.38665e-06
-3.19157e-05
-1.90665e-05
-5.84825e-05
2.58225e-05
-0.000111812
-0.000113071
-0.000165887
-0.000192973
-0.00340855
0.00425535
0.00617794
-0.00741296
0.00946638
-0.0112544
0.000474174
0.00652842
-0.00536842
0.000327465
1.63949e-05
-7.88314e-05
6.96177e-05
-8.59426e-05
0.000146973
-0.000199305
-0.000224053
-0.000204577
-0.000223188
-0.00013593
-3.14458e-06
0.000184052
0.000246133
0.000110624
0.00361708
0.000130902
0.000137066
6.19801e-05
2.52898e-05
6.67529e-06
-4.13478e-06
5.95342e-07
-1.53034e-06
-8.90138e-06
1.51087e-05
4.85042e-06
-2.86656e-06
3.65591e-05
1.5509e-05
1.6029e-05
8.6423e-06
9.95252e-07
1.32459e-05
1.19459e-05
3.5126e-06
7.13375e-06
1.29883e-05
2.20139e-05
1.26469e-05
7.63036e-05
3.55119e-05
5.46913e-05
0.000159081
7.09442e-05
0.000148447
0.000327698
0.000256334
0.000809213
-0.00243117
-0.0028936
-0.000477493
0.000380498
0.000524955
0.000303447
-0.00696635
-0.000160799
-8.89705e-05
-9.90904e-05
-0.000725109
-0.000246448
0.0161426
-0.000222882
-0.0199798
-0.000157249
-0.000856294
-0.0185831
-0.00085529
-0.0010424
-0.0124019
-0.00628718
-0.0102867
-0.0246771
0.00257607
0.00618533
0.000377575
-0.000338741
-0.000291905
-0.000528671
8.94656e-05
-0.0144804
0.019126
0.000120811
-0.00428674
0.00195468
0.006486
4.55755e-05
-0.00812215
0.00518074
0.00523365
-1.31635e-05
-0.00837267
0.00552884
0.00464563
-6.57742e-05
-0.00770752
0.00187315
-0.0114293
0.0055803
0.00863385
-0.0106969
0.00314431
0.00132241
-0.000634433
-0.000106605
-1.65643e-05
3.11453e-05
3.45036e-05
2.74074e-05
2.11045e-05
1.46119e-05
6.07304e-06
1.36198e-05
5.9268e-05
0.00266423
-0.00340571
7.55872e-05
0.00433591
-0.00545618
0.00489294
-0.00609526
0.00750807
-0.0091783
0.000116074
-0.00358229
0.000135133
0.00342525
8.56539e-05
-0.00228042
0.000106819
0.002201
2.03816e-05
8.89439e-05
0.000721492
-7.29388e-05
-0.001135
0.00749486
0.000255123
-0.00595454
-0.000421044
0.00722209
0.00936855
0.000504489
-0.00910642
-0.000568421
0.0127112
0.000791952
-0.0129335
-0.000808108
0.0133086
0.0169486
0.00079084
-0.0211711
-0.000382314
-0.0176078
-0.0209327
0.00092123
0.0164654
0.0136718
-0.0172941
-0.000319565
-0.000625698
0.000567128
0.000465374
0.000378182
0.000283191
0.000195148
0.000119715
5.45152e-05
9.14553e-05
2.12311e-05
-4.23801e-07
3.00936e-05
-6.65673e-07
0.00679867
-0.00839579
0.000158105
0.0101926
-0.012387
0.0110634
-0.0131895
0.0157211
-0.0176542
-0.000498665
-0.00744386
2.17887e-05
0.00753632
6.64723e-05
-0.00545041
0.000129931
0.00512486
-1.9107e-06
0.000241562
0.001867
5.10331e-06
-0.00215283
0.0159633
0.00045752
-0.0119375
-0.000803892
0.0139628
0.0168534
0.00078691
-0.0217689
-0.000286715
-0.015552
-0.0279517
0.00022466
0.0208624
-0.00174113
0.00923351
-0.000214388
0.00626462
0.00531628
0.00270468
0.00171423
0.01166
-0.00697093
-0.000360719
0.00121946
0.000678511
0.000483622
0.000366105
0.000263193
0.000171943
8.78306e-05
4.89827e-05
0.000697167
-0.000475498
-0.00077679
-0.00018547
0.000150163
-0.000423412
0.00136112
-0.000561788
-0.000670992
-0.000666842
-0.000409048
0.00102361
0.00114866
8.19442e-05
-0.000846746
-0.000121636
0.00153339
5.13925e-05
-0.00145274
-0.000123364
0.00205768
0.00246838
0.000123883
-0.00250765
-0.000205679
0.00325244
-0.000346715
-0.000269809
-0.0030709
-0.000147601
-0.00182947
0.000463717
0.000466636
0.000150474
-0.000543142
-0.000890805
-0.000576952
-0.000442478
-0.000956666
-0.000293298
-0.00015948
8.9883e-05
1.77635e-05
0.00187281
3.39005e-05
-0.00145619
-0.000127765
0.00194024
0.00252229
0.000113118
-0.00248968
-0.000197756
0.00395175
0.000227463
-0.00403497
-0.000299313
0.00507425
0.00617538
0.000342317
-0.00761581
-0.000580498
-0.000415291
-0.00495044
0.000889952
0.000894725
0.000669392
-0.0001658
-0.00179611
-5.5387e-05
-0.000944148
0.000156242
-0.000283946
-0.000348527
0.000105297
0.000453495
-0.000232062
-0.00220259
0.000337518
4.44488e-05
0.00044658
-5.10676e-05
0.0048007
0.000159752
-0.00388156
-0.000301549
0.0048164
0.00631262
0.000351499
-0.00620593
-0.000413153
0.00909173
0.000529724
-0.00918151
-0.000581437
0.010413
0.0129069
0.000727896
-0.0157062
0.000421547
-7.11673e-05
-2.53426e-05
2.11885e-05
1.67873e-05
1.07403e-05
6.19848e-06
3.29879e-06
-2.13141e-06
1.78978e-07
1.38904e-05
3.19517e-06
-1.91526e-06
4.62538e-06
1.75072e-05
4.34969e-05
7.03533e-05
3.36513e-05
1.17714e-05
3.24224e-06
3.75272e-06
-1.1185e-06
1.46102e-06
0.00215784
2.3993e-06
-0.00214966
0.00275512
4.38026e-06
-0.00354464
0.00355814
-0.00274369
0.00278094
6.37739e-06
-0.00359334
0.0035439
-0.00275464
0.00215087
-1.99404e-06
-0.00218679
0.00165886
-0.00164727
0.00165346
-0.00165355
6.30765e-06
-0.00214404
0.00219532
7.59556e-06
-0.00277206
1.78556e-06
-0.00353405
0.00360892
9.69066e-06
-0.00453259
-8.29553e-07
-0.00564808
0.00575319
-0.0056593
0.00568026
7.31418e-06
0.00449762
-0.00447893
4.62196e-06
0.00454657
1.47732e-05
-0.00572888
0.00566302
-0.00448309
-2.50712e-05
-0.00406696
0.00248836
1.12846e-05
0.00312439
-2.23328e-05
-0.00248598
0.00153654
1.19032e-05
0.00189006
-0.00166871
0.00130485
-6.03255e-06
-0.00132597
2.18021e-07
0.00129826
1.32558e-06
-0.00129401
4.90157e-06
0.0013295
8.29558e-06
-0.00130056
0.00167519
-0.00188819
1.9787e-05
2.13016e-05
1.41065e-05
4.91508e-05
3.01296e-05
-0.000593925
0.00061587
-0.00060595
0.000606838
2.81231e-07
-1.19742e-06
-1.39386e-06
-0.000615382
0.000594902
-2.96221e-05
-1.67874e-05
0.000303033
-0.000340508
8.41155e-07
-2.52066e-06
0.00108881
-0.00110195
0.00110461
-0.00108637
0.00112822
-0.00116846
-2.44586e-05
-5.33761e-06
-0.000302124
1.73594e-05
0.000340737
-1.42266e-05
1.21339e-05
1.06107e-05
2.88646e-06
5.28196e-06
8.70523e-06
1.10753e-05
1.08857e-05
-0.00701777
8.93395e-06
-0.00864877
0.00867741
-0.00874713
0.00867048
2.46497e-05
0.00713002
-0.00701616
-2.48649e-05
-0.0064754
0.00396052
2.24781e-05
0.00509163
-0.00314619
-0.000119432
-0.00233988
0.00280652
-0.000258828
-0.00373276
0.00441972
-0.000340045
-0.00568341
0.00675593
-0.000355653
-0.00825198
0.0099461
-0.000469257
-0.0117476
-0.00115685
-0.000380013
-0.000607607
-0.000207076
-0.000418531
-0.000177281
-0.000314133
-0.000139062
-0.000224219
-8.71348e-05
-0.000153731
0.00175379
-0.0019312
-7.87643e-05
-0.00138599
0.00114779
1.29234e-05
-1.23008e-05
-0.000142952
-3.95128e-05
-0.000683342
-4.70262e-05
0.00100404
4.46109e-05
-0.0015241
-1.55348e-05
-1.66724e-05
8.35354e-05
3.93275e-05
-5.60392e-05
-0.000593179
0.000894688
0.000288355
0.00103749
0.000369497
0.000210195
3.39685e-05
0.000121416
-0.000918088
0.00117018
-0.00112568
2.52701e-05
2.45174e-06
-5.2156e-05
-1.26555e-05
-1.2635e-06
7.41272e-05
8.8879e-05
0.000125085
0.000182354
4.51198e-05
-0.00989176
0.00606004
-0.00493603
0.00799197
2.04572e-05
6.70843e-06
-3.46649e-06
3.22503e-06
1.29408e-05
2.56844e-05
4.0204e-05
5.0649e-05
-1.36717e-05
-0.0104756
3.40738e-05
-0.0127209
0.0126601
-0.0144259
0.00885241
8.7269e-05
0.0120074
-0.00742963
-0.000160491
-0.000156514
0.000737934
0.000581428
0.000646079
0.000876488
0.0094677
0.0138561
-0.0165062
0.00171255
0.000121626
-4.4281e-05
0.000447471
-0.000147369
-4.9137e-05
-0.00816674
0.000128903
0.000769939
-0.0118824
0.000685183
0.000101458
4.62135e-05
9.97754e-05
0.000213875
0.000313403
0.000148766
5.79998e-05
2.80116e-05
2.37575e-05
2.24858e-05
3.20593e-05
4.29942e-05
2.80522e-05
2.23811e-05
2.78364e-05
1.85436e-05
1.58168e-05
-7.16048e-07
1.16621e-05
1.2515e-05
0.000107116
3.21764e-05
2.19036e-05
1.48656e-05
1.52741e-05
1.055e-05
6.26042e-06
1.29707e-05
1.50543e-05
1.04411e-05
-5.69505e-05
1.86647e-05
3.23006e-05
2.4069e-05
4.1581e-05
6.57128e-05
7.20529e-05
0.000123578
6.18967e-05
0.000118014
5.78862e-05
0.0145414
-0.0174692
0.00026498
0.0194635
0.000370428
7.28739e-05
0.000210725
0.00127902
-0.00374249
0.0125326
-0.0104414
0.0220107
0.00318432
0.0135859
-0.0118018
0.0101506
-0.00994659
0.00708719
0.00803942
-0.0107932
0.00243708
-0.0116535
0.00748853
0.00774343
0.0145746
-0.000768151
-0.000298876
-0.00182818
-0.00012915
-0.00738016
-0.000151008
-3.30405e-05
3.59198e-05
5.04961e-05
8.58981e-05
4.682e-05
3.91674e-05
4.65751e-05
3.87424e-05
-3.66908e-06
3.96378e-05
3.62914e-07
0.000280839
0.000192057
0.000136098
-0.00932548
0.0112144
0.000361232
-0.00868065
-0.000578035
0.0103778
0.0131076
0.00071887
-0.0127588
-0.000781738
-0.0155797
0.000468364
0.000382696
-1.99915e-05
1.19219e-05
-2.95951e-06
0.000229589
4.19035e-05
2.18097e-05
2.89362e-05
2.25924e-05
-7.35266e-06
0.000199109
0.000123326
5.91879e-05
-0.00176743
-0.000144169
0.00205928
-4.1043e-05
0.00132383
-0.000969986
-0.000850465
0.00104642
-0.00062462
-0.000571076
-0.000536143
0.000153695
-0.000267863
-0.000299675
-0.00308938
0.00069725
-0.000303347
-0.000732426
0.000518638
0.000977117
-0.000429778
-0.00603564
0.0007297
0.000133898
0.0011314
-7.27479e-05
-0.00166091
-0.000565651
0.0010517
0.00173401
0.00132481
-0.000459495
-0.00502959
-0.000415108
-0.0048903
0.00116817
-0.000643384
-0.00777034
-0.000580862
0.00751754
0.00141214
-0.000871585
-0.0114453
-0.000539082
-0.0138474
0.00195053
0.000734317
0.00378916
0.000262646
-0.0199074
0.000633304
0.00216431
0.00253555
0.0036975
0.0130282
0.030583
0.0160552
0.023651
-0.00208449
-0.0012139
-0.0161289
0.00137405
0.000840465
0.00258031
0.0158002
0.0229644
-0.00201846
-0.00111667
-0.00078781
0.0105428
-0.0110922
0.00132627
0.00114634
0.00111437
0.000382998
0.00198552
0.0145319
0.0231629
-0.00207948
-0.00112756
-0.000791454
-0.0111833
-0.000968194
-0.000719431
-0.00052452
0.000725016
0.000496535
0.000277858
5.31942e-05
0.000221347
0.000978965
0.00121834
0.00132795
-0.00125137
-0.00161325
0.00190949
0.0132545
0.025899
-0.00449392
0.00523849
0.00231767
0.0020141
0.000240096
-0.000145212
-7.37244e-05
-3.70213e-05
-1.95151e-05
-1.07182e-05
-4.29187e-06
5.14212e-06
2.00514e-06
8.76031e-07
-7.81343e-07
6.46387e-06
3.65556e-06
3.85646e-06
-8.17462e-07
-4.19603e-05
-8.37142e-05
-7.2146e-05
1.15144e-05
2.9917e-05
-0.00312459
0.00276738
1.15704e-05
1.00167e-05
1.13908e-05
1.19926e-05
6.34023e-06
1.23395e-05
3.58714e-05
-3.35029e-06
0.000306614
-0.00134764
0.000101991
6.63528e-05
7.9369e-06
1.16766e-05
1.41695e-05
-1.21637e-06
-9.24669e-06
1.8798e-05
1.40619e-05
1.1817e-05
1.00039e-05
1.27712e-05
1.46459e-05
4.47576e-05
4.22555e-05
0.0126187
3.17154e-06
-0.0125902
0.0149323
-2.12261e-05
-0.0173753
0.0173711
-0.014908
0.0151661
2.58662e-05
-0.0175286
0.0175282
-0.0148701
2.65818e-05
0.0172306
-0.0107833
-7.95479e-05
-0.000107375
0.000121302
0.000262022
0.000293691
-0.000234159
-0.00143926
-0.00292921
-0.00564451
5.08549e-05
-0.00217529
-0.000866049
-0.000262613
0.000274704
0.000253575
4.56103e-05
5.25875e-05
5.38834e-05
2.91615e-05
0.0106635
-0.010486
0.0105189
-0.0106353
-1.78853e-05
-0.0125997
0.0127542
8.57923e-08
-0.0151524
-4.79643e-05
-0.0174404
0.0175466
-1.76376e-05
-0.0203908
0.0200818
-0.0230739
-1.16752e-05
-0.000154842
-5.53408e-05
1.8138e-05
3.32658e-05
0.000119776
0.00028637
0.000722142
0.0040713
-0.00232258
0.0574119
-0.00152581
-0.000263209
-0.00108559
-0.0112843
0.00251532
0.00655454
0.000512269
-0.00011937
-0.00582663
-0.000144912
0.000138697
0.000301557
2.55727e-05
3.28798e-05
0.000553722
0.000321091
-0.0185648
0.0162911
-0.000771394
-0.000471706
-0.000142403
0.00325528
-0.00086095
0.00267169
0.00436268
0.00774612
0.0149335
0.00330134
-0.00842472
0.00340424
-0.0116223
0.00270794
0.00126423
-0.00805609
0.000565271
-0.000137475
1.22446e-05
-2.78902e-05
1.16857e-05
0.000122246
-8.21348e-05
-0.000196126
-6.00085e-05
-0.000216234
-4.98568e-05
7.89487e-06
-2.39316e-06
1.30503e-05
-9.11081e-06
-2.08875e-06
-4.22961e-05
5.30089e-06
6.69772e-05
0.000144676
0.000349193
0.00585024
0.0250553
0.00132917
-0.00337463
0.0160275
0.000709559
-0.00243426
-0.00151462
-0.00250404
0.0570466
-0.001252
-0.000282618
0.000486408
0.000112934
0.000261103
-0.0053096
-0.000162078
-0.000156773
-0.00114637
-0.0113851
-0.0104579
-0.00671491
-0.0239174
0.00255308
0.00583368
0.000260957
-0.000333653
-0.000355341
-0.000211715
-0.00644622
-0.000343215
0.00314577
-0.00206427
0.0033771
-0.000228474
-0.00591859
-0.000367956
-0.000163908
-4.54923e-06
0.000464885
0.00211907