/*--------------------------------*- C++ -*----------------------------------*\
| =========                 |                                                 |
| \\      /  F ield         | OpenFOAM: The Open Source CFD Toolbox           |
|  \\    /   O peration     | Version:  2306                                  |
|   \\  /    A nd           | Website:  www.openfoam.com                      |
|    \\/     M anipulation  |                                                 |
\*---------------------------------------------------------------------------*/
FoamFile
{
    version     2.0;
    format      ascii;
    arch        "LSB;label=32;scalar=64";
    class       volScalarField;
    location    "1.8";
    object      gradTz;
}
// * * * * * * * * * * * * * * * * * * * * * * * * * * * * * * * * * * * * * //

dimensions      [0 -1 0 1 0 0 0];

internalField   nonuniform List<scalar> 
5322
(
-0.0610428
-0.0552391
-0.0456625
-0.0493495
-0.0365911
-0.0259759
-0.0176287
-0.0114583
-0.00719584
-0.00451165
-0.0030341
-0.00255783
-0.00178195
-0.0025409
-0.00283992
-0.00244733
-0.0028577
-0.00230648
-0.0035684
-0.00434204
-0.00566051
-0.00704371
-0.00921843
-0.0114981
-0.0147656
-0.0178911
-0.0224483
-0.0269072
-0.0328999
-0.0382423
-0.0455916
-0.0522424
-0.0603035
-0.066166
-0.0706133
-0.0625972
-0.0742755
-0.0730636
-0.0752759
-0.055409
-0.0697382
-0.0719918
-0.0543143
-0.072013
-0.0712856
-0.0552864
-0.073073
-0.069092
-0.0547349
-0.0719984
-0.0824732
-0.0555086
-0.0778392
-0.0683658
-0.0605482
-0.0646631
-0.0805947
-0.0633896
-0.0605906
-0.0644677
-0.0814174
-0.0642387
-0.0605711
-0.0628948
-0.0814306
-0.0665605
-0.0603811
-0.0598419
-0.0799454
-0.0711248
-0.0503261
-0.0738018
-0.0702285
-0.069176
-0.0698226
-0.0694878
-0.0694387
-0.069272
-0.0704138
-0.0672975
-0.0656361
-0.0534571
-0.0554493
-0.07071
-0.0453033
-0.0624931
-0.0921435
-0.0604033
-0.0603732
-0.0521028
-0.0641617
-0.0443985
-0.0467578
-0.0466981
-0.0607411
-0.0591159
-0.0556258
-0.0598901
-0.0936679
-0.058609
-0.0593385
-0.0528205
-0.0603716
-0.0600983
-0.0656507
-0.0541345
-0.0568268
-0.0498423
-0.0370363
-0.0263599
-0.017888
-0.0115948
-0.00723108
-0.00448695
-0.0034225
-0.00290982
-0.00210692
-0.00223971
-0.00326569
-0.00244175
-0.00209962
-0.00246521
-0.00243033
-0.00337177
-0.00253805
-0.00330631
-0.002408
-0.00251486
-0.00325515
-0.00240588
-0.00246849
-0.00328826
-0.00244437
-0.00242437
-0.0033017
-0.00247418
-0.00243498
-0.00338669
-0.00254702
-0.00331626
-0.00241976
-0.00210982
-0.00244672
-0.00221158
-0.00211282
-0.00327095
-0.00224347
-0.00223263
-0.00209063
-0.00210802
-0.0032909
-0.00223627
-0.00222836
-0.00209622
-0.0021059
-0.0032875
-0.0022357
-0.00220808
-0.00210519
-0.00284371
-0.00244707
-0.0028658
-0.00395988
-0.00470247
-0.00265705
-0.00357774
-0.00231101
-0.00290758
-0.00184697
-0.00245821
-0.00254765
-0.00237605
-0.00270011
-0.00292681
-0.00258596
-0.00376269
-0.00372974
-0.00441032
-0.00329655
-0.00440869
-0.00572029
-0.00572314
-0.0071845
-0.00531024
-0.00719914
-0.00926092
-0.00926507
-0.0116306
-0.00865928
-0.01165
-0.0147375
-0.0147447
-0.0181762
-0.0136939
-0.0182119
-0.0225463
-0.0225704
-0.0271698
-0.0207447
-0.0272401
-0.0329986
-0.0330629
-0.0387734
-0.0300073
-0.0388952
-0.0460542
-0.0461942
-0.0528035
-0.04125
-0.0530146
-0.0603267
-0.0604722
-0.0597875
-0.0936659
-0.0585893
-0.0584104
-0.0529848
-0.0723373
-0.0721726
-0.0467614
-0.0467597
-0.0606252
-0.0596067
-0.0551399
-0.0606168
-0.0935923
-0.0589741
-0.0583439
-0.0531164
-0.0595389
-0.0603871
-0.0555841
-0.0555439
-0.0497499
-0.0370535
-0.0263991
-0.0179168
-0.0116117
-0.00723993
-0.00449135
-0.00342565
-0.00291363
-0.00210454
-0.00210287
-0.00210145
-0.00210235
-0.00328726
-0.00222785
-0.00223559
-0.00216641
-0.00246979
-0.00365277
-0.00222816
-0.00328902
-0.00223759
-0.0036296
-0.00251319
-0.00325121
-0.00240781
-0.00216808
-0.00247063
-0.0032521
-0.00176249
-0.00245336
-0.0025876
-0.00258482
-0.00270186
-0.00373025
-0.00441257
-0.0057258
-0.00718692
-0.00927139
-0.0116324
-0.0147561
-0.0181785
-0.0225903
-0.0271713
-0.0331007
-0.0387635
-0.0462691
-0.0527475
-0.0608983
-0.0590727
-0.0937129
-0.0601557
-0.0556178
-0.0601964
-0.0531639
-0.0412826
-0.0460557
-0.0389615
-0.0300313
-0.033027
-0.0272659
-0.0207592
-0.0225706
-0.0182215
-0.0137018
-0.0147539
-0.011653
-0.00866349
-0.00927324
-0.00719811
-0.00531234
-0.00573051
-0.00440556
-0.00329686
-0.00376874
-0.00282172
-0.00376685
-0.00440839
-0.0032979
-0.00373349
-0.00270332
-0.0029295
-0.00237429
-0.00178199
-0.0025583
-0.00245402
-0.00377301
-0.00440617
-0.00571879
-0.00720908
-0.00928202
-0.0116614
-0.0148047
-0.0182253
-0.022694
-0.0272489
-0.0333381
-0.0387725
-0.0468026
-0.052336
-0.0612696
-0.059476
-0.0926897
-0.0632526
-0.0539514
-0.0657999
-0.0575717
-0.0401464
-0.0500723
-0.0418858
-0.0291674
-0.0356971
-0.0291431
-0.020113
-0.024301
-0.0194196
-0.0132584
-0.0158629
-0.0124027
-0.00837711
-0.00994574
-0.00764794
-0.00513394
-0.00611988
-0.00470408
-0.00318065
-0.00395992
-0.00286868
-0.00284836
-0.00246253
-0.00252986
-0.00227292
-0.00291434
-0.00184464
-0.00210968
-0.00256941
-0.00239769
-0.00383679
-0.00456129
-0.00441331
-0.00440605
-0.00327668
-0.00372272
-0.0037899
-0.0024946
-0.0029284
-0.00275284
-0.00282509
-0.00275656
-0.00349692
-0.00268319
-0.00255075
-0.00362042
-0.00300177
-0.00282505
-0.0026761
-0.00260315
-0.00376981
-0.00440751
-0.00417473
-0.00573441
-0.00719921
-0.00927752
-0.0116527
-0.0107922
-0.0147663
-0.0182091
-0.0226076
-0.0272134
-0.0246672
-0.0331185
-0.0388084
-0.0462314
-0.0528517
-0.0467697
-0.0467683
-0.0348512
-0.0348934
-0.0248269
-0.0247465
-0.0332993
-0.0388569
-0.0300501
-0.0392776
-0.045999
-0.0466027
-0.0526072
-0.0412576
-0.0538285
-0.0597086
-0.0674494
-0.058066
-0.0942087
-0.0604086
-0.0572637
-0.0548992
-0.0706615
-0.0444064
-0.0404037
-0.0555308
-0.0341437
-0.0462185
-0.0396828
-0.0243459
-0.033202
-0.0272553
-0.0166855
-0.0227292
-0.018126
-0.0109914
-0.0147787
-0.0114676
-0.00693447
-0.00927071
-0.00703927
-0.00424806
-0.00564236
-0.00430872
-0.00264838
-0.00358107
-0.00248874
-0.00238932
-0.00328897
-0.00313537
-0.00387517
-0.00517142
-0.00579925
-0.00741765
-0.00947268
-0.0119908
-0.0116343
-0.0116797
-0.00864323
-0.00929706
-0.00929035
-0.00721682
-0.00529659
-0.00717278
-0.00672198
-0.00643989
-0.00397793
-0.00347573
-0.00416976
-0.00390601
-0.00373082
-0.00442125
-0.00448712
-0.00302754
-0.00256584
-0.00184866
-0.00309944
-0.0017482
-0.00253055
-0.00295494
-0.00351617
-0.00554715
-0.00718449
-0.00717387
-0.0114768
-0.0116044
-0.00900347
-0.00847607
-0.00832767
-0.0105087
-0.0134691
-0.015187
-0.0187323
-0.0233372
-0.0280248
-0.0273467
-0.0272862
-0.0207496
-0.0226587
-0.0226871
-0.0182537
-0.013682
-0.0182298
-0.0167442
-0.0159652
-0.010332
-0.0091026
-0.0107706
-0.0105061
-0.0100278
-0.00670815
-0.00635385
-0.00607762
-0.00643098
-0.00508842
-0.00565067
-0.0056847
-0.00453189
-0.00305174
-0.00256735
-0.00251613
-0.00235644
-0.0027738
-0.00230442
-0.00358136
-0.00356528
-0.00441341
-0.00416124
-0.00572847
-0.00572968
-0.00719975
-0.00531505
-0.00719215
-0.00671553
-0.00927426
-0.00927788
-0.01165
-0.00867006
-0.011652
-0.0107761
-0.0147597
-0.0147747
-0.0182045
-0.0137163
-0.0182284
-0.0166683
-0.022591
-0.0226286
-0.027208
-0.0207865
-0.0272835
-0.0246594
-0.0330628
-0.0331739
-0.0387827
-0.0300712
-0.0390026
-0.0348225
-0.0460548
-0.0463719
-0.0527372
-0.041294
-0.0531828
-0.0466547
-0.0601968
-0.0607587
-0.0597244
-0.0555209
-0.0597544
-0.0534146
-0.0587493
-0.0566532
-0.0511453
-0.0699684
-0.046032
-0.0594368
-0.0449657
-0.0430229
-0.0521346
-0.0520827
-0.0470468
-0.0504039
-0.0508683
-0.0444065
-0.0382855
-0.0375314
-0.0263698
-0.0268825
-0.021676
-0.0180353
-0.0177574
-0.0176251
-0.0114241
-0.00716997
-0.00449999
-0.00302552
-0.00254737
-0.00179083
-0.00253283
-0.00223878
-0.00253025
-0.00254931
-0.00239412
-0.00247314
-0.00293619
-0.00216323
-0.00265479
-0.00253877
-0.00255158
-0.00267213
-0.0021052
-0.00264607
-0.00255827
-0.00256177
-0.00293842
-0.00206694
-0.0020857
-0.00208247
-0.00207094
-0.00206505
-0.0020505
-0.00332802
-0.00207952
-0.00206937
-0.00206982
-0.00332964
-0.00208258
-0.0029626
-0.00346727
-0.0034446
-0.00300583
-0.0029944
-0.00280714
-0.00419357
-0.00678468
-0.0108811
-0.0167959
-0.0247711
-0.0235786
-0.0209611
-0.024722
-0.0241661
-0.0230719
-0.0249502
-0.0303312
-0.0345594
-0.0396465
-0.049611
-0.0413349
-0.0417528
-0.0323978
-0.0364528
-0.0294305
-0.0317183
-0.0321949
-0.0260817
-0.0369197
-0.0499395
-0.0654332
-0.0652614
-0.0656341
-0.0555085
-0.0510427
-0.0539867
-0.0601538
-0.0511623
-0.0585781
-0.0849256
-0.0766285
-0.0744479
-0.0770157
-0.0489386
-0.0623875
-0.0654153
-0.0786734
-0.0503084
-0.0644955
-0.0656803
-0.0790479
-0.0505266
-0.0636945
-0.0665252
-0.0789051
-0.051767
-0.0631915
-0.0709603
-0.0985229
-0.0787173
-0.077008
-0.09769
-0.0958739
-0.0760299
-0.0554908
-0.0778489
-0.0684227
-0.0605216
-0.0645337
-0.0692362
-0.0547662
-0.0718825
-0.0825162
-0.0554962
-0.0656792
-0.0534876
-0.0554967
-0.0707328
-0.0597786
-0.0446347
-0.0541265
-0.0457029
-0.0336405
-0.0389994
-0.0329087
-0.0237578
-0.0270573
-0.0225454
-0.0160674
-0.0180096
-0.0147548
-0.0103732
-0.0114986
-0.00925719
-0.00645559
-0.00707724
-0.00567204
-0.00388805
-0.00435936
-0.0035786
-0.00251295
-0.00291029
-0.00225862
-0.00252143
-0.00245581
-0.00286571
-0.0039636
-0.00470458
-0.00317968
-0.00377746
-0.00244777
-0.00284582
-0.00255381
-0.00178024
-0.00236975
-0.00245402
-0.00292866
-0.00254067
-0.00257166
-0.00305766
-0.00453656
-0.00722506
-0.00722853
-0.0115368
-0.0178144
-0.0166729
-0.0159925
-0.0153142
-0.0166456
-0.0207917
-0.020097
-0.0132144
-0.014248
-0.0144783
-0.0148007
-0.0148033
-0.0108181
-0.0116568
-0.0147474
-0.0137159
-0.0182288
-0.0225672
-0.0207813
-0.0272725
-0.0330264
-0.0300504
-0.0389372
-0.0460469
-0.0412561
-0.0529493
-0.0442413
-0.0449136
-0.0576424
-0.0577422
-0.0501385
-0.0368939
-0.0260599
-0.0176228
-0.0114327
-0.007181
-0.00450814
-0.0030378
-0.00255982
-0.0017815
-0.00245286
-0.00253663
-0.00255837
-0.00303864
-0.00451517
-0.0072012
-0.0114796
-0.0177014
-0.0261735
-0.0370538
-0.0502541
-0.0665121
-0.0660438
-0.0547708
-0.104859
-0.0769905
-0.0738333
-0.0657299
-0.0790192
-0.0505908
-0.0507282
-0.0550235
-0.0814984
-0.0523546
-0.0531568
-0.0541959
-0.0819495
-0.0525945
-0.0533913
-0.0538519
-0.0818149
-0.0540791
-0.0550249
-0.0606573
-0.104085
-0.0796777
-0.0777276
-0.0780724
-0.0774018
-0.0616897
-0.0574661
-0.0609196
-0.103702
-0.060229
-0.0626782
-0.0813642
-0.0643245
-0.0605283
-0.0627833
-0.0723905
-0.0542783
-0.0716133
-0.0716522
-0.0554126
-0.072802
-0.0635624
-0.0605605
-0.0642347
-0.0695451
-0.0693109
-0.0699141
-0.0690042
-0.0605958
-0.0605727
-0.0659516
-0.0815158
-0.0701999
-0.05593
-0.0747524
-0.0657395
-0.0559193
-0.0902154
-0.0485364
-0.0629382
-0.052336
-0.0604469
-0.0543611
-0.042272
-0.0480782
-0.0414426
-0.0322609
-0.0350657
-0.0300374
-0.0224013
-0.0247275
-0.0204366
-0.0155193
-0.0163988
-0.01349
-0.00976387
-0.0105642
-0.00839668
-0.00620554
-0.00643834
-0.00518674
-0.00369473
-0.00392603
-0.00326268
-0.00239506
-0.00256776
-0.00173635
-0.00307694
-0.00223286
-0.00184315
-0.00337171
-0.00242779
-0.00253475
-0.00329757
-0.00240786
-0.00250668
-0.00324637
-0.00239898
-0.00246774
-0.00328176
-0.00244589
-0.00241333
-0.00329251
-0.00179257
-0.00238767
-0.00293276
-0.00259224
-0.00281919
-0.00375585
-0.00329215
-0.00440426
-0.00440133
-0.0041535
-0.00570618
-0.00512192
-0.00718752
-0.00763101
-0.00564461
-0.00992231
-0.0069148
-0.012352
-0.00906732
-0.0157736
-0.0109175
-0.0193227
-0.0140202
-0.0240978
-0.0165319
-0.0288968
-0.0207196
-0.0351325
-0.0238796
-0.0413161
-0.0292565
-0.0489274
-0.0329894
-0.0564743
-0.0394668
-0.0643871
-0.0433307
-0.0509836
-0.0612402
-0.0598345
-0.0469589
-0.0541337
-0.039417
-0.0469129
-0.045539
-0.0347564
-0.0397603
-0.0286108
-0.0336456
-0.0327657
-0.0246194
-0.0278441
-0.0198258
-0.0230762
-0.0224791
-0.0166545
-0.0186503
-0.0130961
-0.0150821
-0.0147304
-0.010777
-0.011927
-0.0082959
-0.00947622
-0.00926934
-0.00671468
-0.00738734
-0.00507999
-0.00581451
-0.00572448
-0.00415902
-0.00453158
-0.00313759
-0.00384965
-0.00371404
-0.00281991
-0.00238219
-0.00210112
-0.00184088
-0.00245428
-0.00251943
-0.0022543
-0.00290346
-0.00249861
-0.002762
-0.00235696
-0.0025153
-0.00253706
-0.00244241
-0.00292366
-0.00258357
-0.00269144
-0.00280069
-0.00376356
-0.00317515
-0.00469388
-0.00347675
-0.00610945
-0.00424287
-0.00568757
-0.00358607
-0.00357018
-0.00372917
-0.0029881
-0.00361788
-0.00223197
-0.00328359
-0.00222614
-0.00215997
-0.00264681
-0.00255563
-0.00253355
-0.00255987
-0.00255855
-0.00365192
-0.0030052
-0.0028216
-0.0042054
-0.00420637
-0.00418401
-0.0057391
-0.00573767
-0.004161
-0.0056687
-0.00359097
-0.00358078
-0.00373583
-0.00330138
-0.00442011
-0.00572202
-0.00531711
-0.00720125
-0.0092666
-0.00867131
-0.00945872
-0.0068023
-0.00674682
-0.0109074
-0.0168345
-0.0167279
-0.0168174
-0.0109001
-0.00679928
-0.00673324
-0.00677686
-0.00418984
-0.00415777
-0.00439582
-0.00571565
-0.00611646
-0.00764001
-0.0099301
-0.0123647
-0.00692439
-0.00925936
-0.00564933
-0.00707167
-0.00425226
-0.0056734
-0.00348218
-0.00435574
-0.00387993
-0.00371237
-0.00518664
-0.00509185
-0.00646862
-0.00739089
-0.00672393
-0.00927459
-0.00861434
-0.0116028
-0.0116445
-0.010793
-0.0146909
-0.0136518
-0.0181489
-0.018156
-0.0166275
-0.0224164
-0.0206195
-0.0271002
-0.0271154
-0.0245188
-0.0327811
-0.0287801
-0.0386705
-0.0456047
-0.0396001
-0.0527858
-0.059342
-0.0513101
-0.0570652
-0.0499688
-0.0370576
-0.0263531
-0.0178792
-0.0115886
-0.00722697
-0.00448448
-0.00342024
-0.00290698
-0.00210224
-0.00209267
-0.00210365
-0.00223218
-0.00364443
-0.00300186
-0.00299829
-0.00361108
-0.00222966
-0.00215812
-0.00265326
-0.00254525
-0.00267783
-0.00254579
-0.00362443
-0.0029909
-0.00280362
-0.00377164
-0.00318052
-0.00355845
-0.00351962
-0.00344518
-0.00293768
-0.00207107
-0.00206503
-0.0033294
-0.00205068
-0.00208671
-0.00328623
-0.00352011
-0.00420047
-0.00397528
-0.00275274
-0.00348606
-0.00386428
-0.00282647
-0.0037144
-0.00327278
-0.00441632
-0.00439427
-0.00418082
-0.00571476
-0.00530723
-0.00718521
-0.00672606
-0.00924575
-0.00863964
-0.0116227
-0.0116121
-0.0107457
-0.014717
-0.0131854
-0.0181455
-0.0224759
-0.0199392
-0.0271057
-0.0246838
-0.0167412
-0.0108526
-0.00677021
-0.00418569
-0.00351575
-0.00344222
-0.00293461
-0.00348141
-0.00451357
-0.00352471
-0.00356241
-0.00352005
-0.00348293
-0.00451255
-0.0042033
-0.00417499
-0.00679708
-0.00673286
-0.0108974
-0.010793
-0.0115063
-0.0177413
-0.0262418
-0.0263786
-0.037375
-0.0349695
-0.0339728
-0.0466425
-0.0588435
-0.050807
-0.0730584
-0.0560243
-0.107392
-0.0755582
-0.0741858
-0.0694077
-0.0857274
-0.0782744
-0.0809047
-0.0778777
-0.106742
-0.0746085
-0.0737325
-0.0656735
-0.0786688
-0.0504487
-0.051479
-0.0556323
-0.0810573
-0.0521304
-0.054057
-0.0549975
-0.0815022
-0.0523721
-0.0541339
-0.0548063
-0.0813602
-0.0539658
-0.0554154
-0.0760322
-0.0568364
-0.0467692
-0.0467178
-0.0530688
-0.056567
-0.0399727
-0.0497218
-0.0335266
-0.0401124
-0.0479119
-0.0347949
-0.045278
-0.0533808
-0.0469593
-0.0588963
-0.0640186
-0.0530446
-0.0497446
-0.0426528
-0.0529007
-0.0518236
-0.0672853
-0.0704846
-0.0691637
-0.0595732
-0.0467603
-0.0589752
-0.0527325
-0.0592474
-0.046691
-0.0589652
-0.052784
-0.0593219
-0.0468359
-0.0590453
-0.0703973
-0.0688483
-0.0607122
-0.0567602
-0.0681314
-0.0819196
-0.0615896
-0.0784912
-0.0796684
-0.0765028
-0.0626523
-0.0602304
-0.0606517
-0.103169
-0.0609145
-0.067668
-0.0997557
-0.0804301
-0.0770433
-0.0616163
-0.0601681
-0.0762775
-0.0550667
-0.0548497
-0.0755137
-0.0558087
-0.0500155
-0.0498507
-0.0370445
-0.0263667
-0.0178925
-0.0115977
-0.00723261
-0.00448778
-0.00342302
-0.00291029
-0.00205095
-0.0020665
-0.00265218
-0.00253387
-0.00254762
-0.00324676
-0.0025102
-0.00210562
-0.00220903
-0.0024418
-0.00224043
-0.00210078
-0.00243086
-0.0033781
-0.00253951
-0.00348654
-0.00241184
-0.00330289
-0.0026789
-0.0026707
-0.00254581
-0.00361265
-0.00223029
-0.00223337
-0.00328729
-0.00209913
-0.00209797
-0.00223412
-0.00222762
-0.00215567
-0.00244729
-0.00332255
-0.00244957
-0.00364386
-0.00300204
-0.00299825
-0.00275376
-0.00231395
-0.00277647
-0.00235588
-0.00252282
-0.00256626
-0.00305155
-0.0045371
-0.00723488
-0.0115309
-0.0177779
-0.0262838
-0.0372018
-0.0371603
-0.0504757
-0.0505875
-0.0659884
-0.0552553
-0.0581654
-0.0584639
-0.093768
-0.0674803
-0.0745849
-0.0769329
-0.104578
-0.0545739
-0.0583823
-0.0585361
-0.0556328
-0.0593402
-0.0603563
-0.0921576
-0.0605406
-0.0624945
-0.0521312
-0.0603771
-0.070785
-0.0574649
-0.0464522
-0.0504242
-0.0666145
-0.0664034
-0.0575124
-0.0578378
-0.0455045
-0.0324663
-0.0221565
-0.014555
-0.00920893
-0.0090863
-0.00562166
-0.00562312
-0.00356765
-0.00359183
-0.00418681
-0.00673029
-0.010763
-0.0166061
-0.0245406
-0.03465
-0.0446849
-0.0440479
-0.0442048
-0.031773
-0.0218049
-0.0143477
-0.0143291
-0.00908211
-0.0091977
-0.00569173
-0.00572407
-0.00612218
-0.00764328
-0.00993864
-0.0123695
-0.00835957
-0.00927551
-0.00719786
-0.00512854
-0.00587922
-0.00419054
-0.00416125
-0.00439705
-0.00299254
-0.00362382
-0.00240617
-0.00280667
-0.00351849
-0.00355934
-0.00326627
-0.00210763
-0.00209068
-0.0026562
-0.00255397
-0.00257857
-0.00265226
-0.00205136
-0.00333125
-0.00265198
-0.00264796
-0.00216452
-0.00267026
-0.00265204
-0.00252949
-0.00254173
-0.00255208
-0.00267457
-0.00254248
-0.00255212
-0.00265568
-0.00266907
-0.00210307
-0.00223936
-0.00243746
-0.00326191
-0.00220697
-0.00210092
-0.00355536
-0.00352087
-0.00344326
-0.00293426
-0.00348167
-0.00352233
-0.00420209
-0.00397698
-0.00348622
-0.00643403
-0.00565558
-0.00677809
-0.00671415
-0.0108667
-0.010766
-0.0116454
-0.0147637
-0.015821
-0.0193381
-0.0242077
-0.0289318
-0.0200235
-0.0225808
-0.0182059
-0.0132162
-0.0150927
-0.0103102
-0.00908464
-0.0159062
-0.0140534
-0.0167681
-0.0166414
-0.0168145
-0.0166842
-0.0247914
-0.0246776
-0.0348534
-0.0348174
-0.0331926
-0.0298666
-0.0351355
-0.0329438
-0.0228571
-0.0151285
-0.00958757
-0.0058859
-0.00580836
-0.00571944
-0.00726698
-0.00944913
-0.00928453
-0.0116517
-0.0148981
-0.0146266
-0.0116528
-0.0072679
-0.00581491
-0.00580594
-0.00571614
-0.0045347
-0.00729104
-0.0116865
-0.0180225
-0.0179738
-0.0224849
-0.022052
-0.0264756
-0.0323631
-0.0316979
-0.0371586
-0.0442693
-0.0451027
-0.0466652
-0.071952
-0.051167
-0.0759856
-0.0567737
-0.0555137
-0.0724182
-0.0537939
-0.0751046
-0.0780518
-0.0810165
-0.0776165
-0.10595
-0.0745442
-0.0676953
-0.0636174
-0.0814115
-0.0823096
-0.0603699
-0.0678844
-0.0786331
-0.0822568
-0.0761762
-0.0745261
-0.105336
-0.0779527
-0.081264
-0.0814736
-0.0816846
-0.0813123
-0.077642
-0.0814847
-0.0727537
-0.0665276
-0.0789072
-0.0517937
-0.0505115
-0.0548168
-0.081382
-0.0539218
-0.0529245
-0.0538641
-0.0818596
-0.0539866
-0.0531665
-0.0535086
-0.0816861
-0.0552142
-0.060791
-0.103494
-0.0819762
-0.0767077
-0.062886
-0.0601578
-0.0755323
-0.0557818
-0.0500072
-0.0371604
-0.0264522
-0.0179545
-0.0116399
-0.00726047
-0.00450948
-0.00580621
-0.00587739
-0.00512976
-0.00719407
-0.0092645
-0.0083618
-0.0116381
-0.0147485
-0.0158085
-0.0193311
-0.0241903
-0.0289224
-0.0165839
-0.0225545
-0.0140401
-0.0180086
-0.0109439
-0.0147603
-0.00907555
-0.0114949
-0.0103599
-0.00990297
-0.0134466
-0.0131246
-0.0164902
-0.018648
-0.0166674
-0.022479
-0.0205731
-0.0271501
-0.0271396
-0.0245983
-0.0326203
-0.0297333
-0.0386561
-0.0346279
-0.0453586
-0.0408318
-0.0527618
-0.0528614
-0.046712
-0.0593552
-0.0527802
-0.0591152
-0.0591934
-0.0467253
-0.0527561
-0.052801
-0.0590396
-0.0527199
-0.0556854
-0.046851
-0.0347894
-0.0247345
-0.0167814
-0.010881
-0.00679007
-0.0064308
-0.0103048
-0.0108646
-0.0107592
-0.0167643
-0.0166313
-0.0181931
-0.0225602
-0.0200287
-0.0272205
-0.0330237
-0.0354452
-0.0413723
-0.0496861
-0.0565793
-0.0335219
-0.0457313
-0.02948
-0.0390071
-0.024066
-0.0329243
-0.0207919
-0.027061
-0.0237343
-0.022676
-0.0299861
-0.0288402
-0.0355955
-0.0395287
-0.0347958
-0.0452812
-0.0407455
-0.053341
-0.052592
-0.0467649
-0.0595236
-0.0524978
-0.0589226
-0.0639881
-0.0469671
-0.0530317
-0.0496987
-0.0528621
-0.0517879
-0.0549252
-0.0500689
-0.0426058
-0.0445988
-0.054134
-0.0598136
-0.0398151
-0.0463345
-0.0345454
-0.0244613
-0.0165496
-0.0107239
-0.00670362
-0.00416918
-0.00276628
-0.0023564
-0.00252334
-0.00225812
-0.00173934
-0.00210592
-0.0025735
-0.00238427
-0.00308446
-0.00184219
-0.002229
-0.00292466
-0.0027478
-0.00248644
-0.00282324
-0.00372921
-0.00329679
-0.00439782
-0.00417067
-0.00571302
-0.00530211
-0.00718892
-0.00717263
-0.00670337
-0.00925113
-0.00834753
-0.0116191
-0.00918324
-0.00907044
-0.00925187
-0.00562737
-0.00572039
-0.00450709
-0.00450276
-0.00302185
-0.00254608
-0.00253616
-0.00252965
-0.00256384
-0.00253575
-0.00295894
-0.00240501
-0.00326417
-0.00314633
-0.00453381
-0.00416674
-0.0057276
-0.00528632
-0.00716916
-0.00719893
-0.00673955
-0.00924856
-0.008646
-0.0116266
-0.0107722
-0.0146926
-0.0136439
-0.0181453
-0.0181438
-0.0165978
-0.0224164
-0.0214453
-0.0142453
-0.0146951
-0.0114085
-0.0113988
-0.00717199
-0.00567046
-0.00573929
-0.00359802
-0.00379175
-0.00303065
-0.00353277
-0.00394175
-0.00443977
-0.00449939
-0.00556581
-0.00583402
-0.00720209
-0.00616064
-0.00843533
-0.00830496
-0.0119404
-0.0107856
-0.0147362
-0.0136062
-0.0181395
-0.0181804
-0.0166609
-0.0224043
-0.0206288
-0.0271124
-0.0245501
-0.0326597
-0.029731
-0.0386512
-0.038703
-0.034604
-0.0453531
-0.0347474
-0.0322982
-0.0224295
-0.0220345
-0.0179604
-0.0116437
-0.00726283
-0.0045112
-0.0057167
-0.00580526
-0.00944296
-0.00957163
-0.00679319
-0.0108865
-0.01679
-0.0227876
-0.0224685
-0.014887
-0.0146188
-0.00927966
-0.00944657
-0.00580913
-0.00531019
-0.00572831
-0.0041714
-0.00572033
-0.00719339
-0.00672884
-0.00925078
-0.00926039
-0.00718893
-0.0071921
-0.00674119
-0.00925167
-0.00927555
-0.00720052
-0.00573811
-0.00418072
-0.0057177
-0.00441555
-0.00440172
-0.00440596
-0.0044072
-0.00417622
-0.00572446
-0.0057192
-0.00530791
-0.00718176
-0.00673513
-0.00925881
-0.00925252
-0.00864772
-0.0116183
-0.0107889
-0.0147147
-0.0146959
-0.0146932
-0.0147065
-0.0107754
-0.0116345
-0.0116292
-0.00865074
-0.0116313
-0.0107967
-0.0146941
-0.0147391
-0.0116466
-0.00862196
-0.00927639
-0.0094985
-0.00672442
-0.00717295
-0.00529072
-0.00572837
-0.00584046
-0.00416646
-0.00441758
-0.00439595
-0.0037888
-0.00282219
-0.00373154
-0.00329911
-0.00376663
-0.00281986
-0.00375959
-0.00329744
-0.00373439
-0.00281908
-0.00377837
-0.00439549
-0.00440486
-0.00327029
-0.00359507
-0.00300645
-0.00254007
-0.00179648
-0.00251729
-0.00240113
-0.00245972
-0.00246478
-0.00178987
-0.00254104
-0.00255166
-0.00239847
-0.00252357
-0.00179808
-0.00330586
-0.00246859
-0.00241
-0.0021573
-0.0029326
-0.00267202
-0.00259358
-0.00259784
-0.00266495
-0.00249084
-0.00273818
-0.00292033
-0.00209665
-0.00246485
-0.00330115
-0.00240993
-0.00360879
-0.00299577
-0.00419882
-0.00420306
-0.00679366
-0.0108868
-0.0148874
-0.0136587
-0.0181563
-0.0166299
-0.02241
-0.0224331
-0.0224072
-0.0225025
-0.0166656
-0.0181652
-0.0181829
-0.0136189
-0.0147391
-0.0151313
-0.0107868
-0.0116102
-0.0119446
-0.00831484
-0.00844568
-0.0105515
-0.00991896
-0.0134617
-0.0165124
-0.0153641
-0.0205722
-0.0247645
-0.0227086
-0.0300189
-0.0356349
-0.032093
-0.0414165
-0.0425937
-0.037398
-0.0308723
-0.0264737
-0.0213748
-0.0178952
-0.0141594
-0.0115754
-0.00899879
-0.00720974
-0.00616798
-0.00648094
-0.00739216
-0.00509847
-0.00519128
-0.00394843
-0.00371992
-0.00444356
-0.00556955
-0.00353399
-0.00326737
-0.00315041
-0.00386669
-0.00282549
-0.00371496
-0.00327518
-0.00360172
-0.00302592
-0.0025641
-0.00184446
-0.00223315
-0.0030843
-0.00174031
-0.00257662
-0.00240632
-0.00295896
-0.00253606
-0.00210749
-0.00238527
-0.0027467
-0.00249034
-0.00292442
-0.00253565
-0.00254222
-0.0030106
-0.00448725
-0.00449311
-0.00717562
-0.0114378
-0.0176133
-0.0166689
-0.0224839
-0.0231519
-0.0186556
-0.0181516
-0.0143764
-0.00915
-0.00567951
-0.0056621
-0.00715107
-0.0113661
-0.0174688
-0.0216735
-0.0205926
-0.0271403
-0.0246045
-0.0326181
-0.0328377
-0.0327261
-0.0339533
-0.0246383
-0.027169
-0.0278509
-0.0199056
-0.0165896
-0.0219968
-0.0217509
-0.0316509
-0.0320313
-0.0330464
-0.0354708
-0.0413786
-0.0295034
-0.0330323
-0.0234621
-0.0208098
-0.0247297
-0.0246124
-0.0272436
-0.0347945
-0.0347807
-0.0389251
-0.0289934
-0.032837
-0.0247462
-0.0348026
-0.0450277
-0.0442932
-0.0323494
-0.0316953
-0.0220424
-0.0224595
-0.0264602
-0.0265392
-0.0264764
-0.0179749
-0.0149122
-0.0148872
-0.00944356
-0.00927867
-0.00944167
-0.00956824
-0.0150871
-0.0132202
-0.0145143
-0.00920275
-0.00909476
-0.00912176
-0.00916391
-0.00564578
-0.00562969
-0.00357006
-0.00359022
-0.00251768
-0.00569269
-0.0143995
-0.0143502
-0.0217816
-0.0218713
-0.0220286
-0.0318318
-0.031691
-0.0320647
-0.0220177
-0.0388818
-0.0461408
-0.0399847
-0.052989
-0.0447346
-0.0440994
-0.057625
-0.0577931
-0.0574236
-0.0708901
-0.0959292
-0.0976451
-0.0554838
-0.0709417
-0.098541
-0.0787009
-0.0617058
-0.0773787
-0.0782341
-0.0627758
-0.0606358
-0.104263
-0.0802018
-0.0775866
-0.101172
-0.0864428
-0.0865261
-0.0815054
-0.0780792
-0.0540262
-0.0752957
-0.0556236
-0.0499008
-0.0371588
-0.032388
-0.0225046
-0.0224673
-0.0247928
-0.0247236
-0.0245965
-0.034786
-0.0347604
-0.0330185
-0.0234505
-0.0158979
-0.0231313
-0.0278391
-0.0246362
-0.0327209
-0.0296816
-0.03888
-0.038644
-0.0346896
-0.0452504
-0.0408067
-0.0453682
-0.034775
-0.0247247
-0.0224483
-0.0227787
-0.0328252
-0.0290016
-0.0323461
-0.0316914
-0.0220394
-0.0146169
-0.0148797
-0.0108796
-0.00678904
-0.00419984
-0.00573129
-0.00564479
-0.00718834
-0.00358346
-0.00441486
-0.0037694
-0.00255176
-0.00267392
-0.00246841
-0.00177478
-0.00255503
-0.00303323
-0.00909301
-0.00913393
-0.00927418
-0.00718337
-0.0089921
-0.010536
-0.0115632
-0.0114491
-0.0141488
-0.0151169
-0.0178768
-0.0153425
-0.0205489
-0.0198827
-0.0247329
-0.0213584
-0.026447
-0.0260167
-0.0176307
-0.01435
-0.0147349
-0.0142761
-0.0147046
-0.0175198
-0.0216325
-0.0224941
-0.0214899
-0.027115
-0.0258042
-0.0311556
-0.0328223
-0.0308505
-0.0339255
-0.0373638
-0.0320506
-0.0413769
-0.0400782
-0.0478801
-0.04257
-0.0367372
-0.0495536
-0.061155
-0.0610058
-0.0613709
-0.0664449
-0.0627975
-0.0550758
-0.0427609
-0.0456808
-0.0363381
-0.04895
-0.0605332
-0.067466
-0.0638903
-0.0545679
-0.0421935
-0.0308582
-0.0386898
-0.032675
-0.0258177
-0.0175315
-0.0363549
-0.0490037
-0.0606674
-0.0677801
-0.0639502
-0.0545708
-0.0421459
-0.0308
-0.0326578
-0.0313111
-0.0217602
-0.0144391
-0.0106968
-0.00669275
-0.00416179
-0.00385822
-0.00650222
-0.0164808
-0.0242677
-0.0341262
-0.0429603
-0.0553206
-0.0610383
-0.0690341
-0.0636728
-0.0519884
-0.0580378
-0.0623104
-0.0605377
-0.0490822
-0.0487405
-0.0361957
-0.0257021
-0.017448
-0.0113503
-0.00713934
-0.00447955
-0.00448224
-0.00301315
-0.00359238
-0.00359018
-0.00254979
-0.00293115
-0.00253023
-0.00255917
-0.00301742
-0.00447961
-0.00567174
-0.00528404
-0.0071569
-0.00719878
-0.00678861
-0.0058068
-0.00571405
-0.00348041
-0.00579924
-0.00587288
-0.0039713
-0.00274931
-0.00348153
-0.00395565
-0.00264949
-0.00642584
-0.00956201
-0.0094431
-0.00927518
-0.00943152
-0.0148649
-0.0146119
-0.0148828
-0.0108802
-0.0167824
-0.016788
-0.0247386
-0.0323282
-0.0297466
-0.0326862
-0.0245499
-0.0326359
-0.0387068
-0.0346214
-0.0452857
-0.0453927
-0.0386318
-0.0387306
-0.0346933
-0.0452301
-0.0457065
-0.0386366
-0.0297091
-0.0389074
-0.0395437
-0.0288721
-0.0240725
-0.0312147
-0.025991
-0.0367009
-0.0494988
-0.0500985
-0.0549355
-0.0610025
-0.0613847
-0.061092
-0.0664714
-0.0627916
-0.0551415
-0.042836
-0.0362317
-0.0257292
-0.0309479
-0.0215549
-0.0271413
-0.0271072
-0.0271341
-0.0271091
-0.0246033
-0.0327366
-0.0326578
-0.0297469
-0.038669
-0.0347161
-0.0454755
-0.0453563
-0.0408404
-0.0527445
-0.0529618
-0.052834
-0.0407888
-0.0450349
-0.0443234
-0.0371693
-0.0372389
-0.0433039
-0.0499008
-0.0467754
-0.0467972
-0.0723048
-0.0531179
-0.0506567
-0.0751345
-0.0779706
-0.0812358
-0.0776719
-0.0814065
-0.0817226
-0.077576
-0.0530745
-0.0741965
-0.0539339
-0.0727618
-0.0730716
-0.0727673
-0.0730014
-0.0724136
-0.0631539
-0.0806323
-0.105379
-0.0557607
-0.0782632
-0.0853545
-0.0812988
-0.0865711
-0.081208
-0.0770222
-0.102452
-0.0801934
-0.0554116
-0.0608695
-0.103767
-0.060286
-0.0753805
-0.0551564
-0.0733825
-0.0540629
-0.0499984
-0.0433344
-0.0442877
-0.0442966
-0.0450148
-0.0442701
-0.032314
-0.0442827
-0.0433748
-0.0316954
-0.0323332
-0.0224554
-0.0227613
-0.0247421
-0.0348255
-0.0347887
-0.0442835
-0.0468598
-0.044411
-0.0398388
-0.0657024
-0.045312
-0.0577584
-0.0600276
-0.0540964
-0.0575592
-0.0641585
-0.07241
-0.0528805
-0.0504955
-0.0753168
-0.0556292
-0.0540663
-0.0729967
-0.0529171
-0.074392
-0.0776864
-0.0780521
-0.0814313
-0.0728961
-0.0805973
-0.105313
-0.078255
-0.0813219
-0.0815164
-0.0816313
-0.0818397
-0.0776815
-0.0533979
-0.0743913
-0.0796929
-0.0816835
-0.079647
-0.0778047
-0.053262
-0.0745908
-0.0541985
-0.0733764
-0.0735979
-0.0662881
-0.0468889
-0.0468547
-0.0661286
-0.0658086
-0.0445569
-0.0469875
-0.0468592
-0.0556915
-0.065778
-0.0660416
-0.0663251
-0.0611648
-0.0719614
-0.0542216
-0.0420423
-0.036498
-0.0259085
-0.0175742
-0.0114137
-0.00715734
-0.00914095
-0.0116428
-0.0115906
-0.00861368
-0.0103001
-0.0150767
-0.0136056
-0.0181179
-0.0181831
-0.0166584
-0.0224603
-0.0224166
-0.0181462
-0.0136548
-0.0181662
-0.0143148
-0.0113483
-0.00714348
-0.00912129
-0.0091181
-0.00565955
-0.01432
-0.0174334
-0.0256704
-0.0361415
-0.042302
-0.0528671
-0.0526777
-0.0528552
-0.0422628
-0.0309203
-0.0215427
-0.0206343
-0.0216266
-0.0271631
-0.0270941
-0.0205715
-0.0234349
-0.0158874
-0.0328036
-0.0296791
-0.0386911
-0.0387622
-0.0310789
-0.0306446
-0.0212965
-0.0141268
-0.00897944
-0.00555273
-0.0035217
-0.00252883
-0.00295073
-0.00443093
-0.00719708
-0.0115542
-0.0143602
-0.0178669
-0.026373
-0.0371787
-0.0425594
-0.054927
-0.0526469
-0.0546579
-0.0486707
-0.0487962
-0.0603636
-0.0674038
-0.0638561
-0.0546668
-0.0602568
-0.0672156
-0.0640729
-0.0602532
-0.0682995
-0.0638966
-0.0681521
-0.0330073
-0.0408187
-0.0525572
-0.0407769
-0.0497254
-0.0615633
-0.0753618