/*--------------------------------*- C++ -*----------------------------------*\
| =========                 |                                                 |
| \\      /  F ield         | OpenFOAM: The Open Source CFD Toolbox           |
|  \\    /   O peration     | Version:  2306                                  |
|   \\  /    A nd           | Website:  www.openfoam.com                      |
|    \\/     M anipulation  |                                                 |
\*---------------------------------------------------------------------------*/
FoamFile
{
    version     2.0;
    format      ascii;
    arch        "LSB;label=32;scalar=64";
    class       volScalarField;
    location    "1.8";
    object      gradTy;
}
// * * * * * * * * * * * * * * * * * * * * * * * * * * * * * * * * * * * * * //

dimensions      [0 -1 0 1 0 0 0];

internalField   nonuniform List<scalar> 
5322
(
0.650038
0.06106
-0.00444263
-0.0273035
-0.0151315
-0.00536668
-0.000180811
0.00482591
0.0141571
0.0258421
0.000233618
-0.192523
-0.213979
-0.192069
-0.166731
0.360833
0.482648
-0.000745233
0.333285
-0.395116
0.375783
-0.381749
0.374473
-0.38325
0.381911
-0.374651
0.374279
-0.382087
0.381012
-0.376349
0.378682
-0.378688
0.391024
-0.335924
0.322242
-0.161088
0.316459
0.397251
0.198418
0.214826
0.293186
0.244868
0.253457
0.273665
0.26091
0.258326
0.265068
0.283182
0.262368
0.250559
0.31433
0.152201
0.170377
-0.561596
-0.0306488
-0.324965
0.170806
-0.426172
-0.0242635
-0.370397
0.173435
-0.41911
-0.0216635
-0.367643
0.174132
-0.433709
-0.0278998
-0.355547
0.175751
-0.477116
0.0168052
0.419271
0.233538
0.326255
0.243708
0.308661
0.257558
0.307302
0.260926
0.360983
0.0328793
0.121369
0.183442
0.305365
-0.0259953
-0.127597
0.036298
0.0713884
0.132198
0.0151604
0.0346013
0.006393
0.00100718
0.00118746
0.444409
-0.23726
0.00714776
0.239212
0.00649392
-0.00623704
0.0326311
0.00639342
0.25328
-0.433279
0.387727
0.0052239
-0.00741179
-0.00138652
-0.000234454
0.000408503
0.000466373
0.000574975
0.00131978
0.00265362
-0.00450665
0.00118064
0.137235
-0.0564511
-0.0193961
-0.105921
0.130273
-0.0725104
-0.141291
-0.193271
-0.218399
-0.00879938
0.160077
-0.120795
0.0113193
0.131927
-0.131403
0.00553518
0.137143
-0.140621
-0.0044429
0.12808
-0.153643
-0.0122333
-0.0354579
0.235225
0.194874
-0.127714
0.0846768
0.0658238
-0.134627
0.0145088
-0.13191
0.103471
0.106335
-0.11725
-0.00177311
-0.109414
0.109817
0.118535
-0.106488
-0.00035787
-0.101786
0.129215
-0.00842987
-0.00637486
0.406055
-0.318241
0.351895
-0.373678
0.0126306
-0.241152
-0.00516332
-0.00220658
-0.0451348
0.116504
-0.233106
0.231927
-0.389321
0.000888269
0.39765
-0.392845
0.409002
-0.417982
0.00173845
0.411782
-0.421877
0.437568
-0.436232
0.00162303
0.426545
-0.429464
0.443307
-0.441471
0.000993495
0.431185
-0.432275
0.445312
-0.443424
0.000834984
0.433232
-0.434634
0.447624
-0.444213
0.00108566
0.434101
-0.437355
0.450627
-0.443172
0.00143087
0.432463
-0.438638
0.45184
-0.434073
0.00184207
0.421636
-0.434098
0.437721
-0.237231
-0.00106552
-0.0174821
0.00727683
-0.00705064
-0.000433763
0.00277853
0.00368521
1.29608e-05
0.445371
-0.236149
0.00199626
0.281507
-0.0382437
-0.0112458
0.00927889
-0.0138591
0.238504
-0.438582
0.00254365
0.00195332
0.00549139
0.00355603
0.00190056
0.00085628
6.04491e-05
-0.00117086
-0.00295372
0.00439379
-0.0015805
-0.110475
-0.117669
-0.117722
-0.110731
0.022621
0.038988
0.0245809
-0.148766
0.0780371
-0.157763
0.0390793
0.0226661
0.0246278
-0.155914
0.0542971
0.149183
0.0963084
-0.148708
0.0781972
0.161946
0.226122
0.238831
-0.391189
-0.390302
-0.420062
0.304739
-0.378055
0.34695
-0.371484
0.359316
-0.370047
0.363746
-0.371776
0.364657
-0.377157
0.363071
-0.386077
0.359297
-0.394622
0.351715
-0.0774416
0.166885
-0.0530893
-0.0091925
0.3045
-0.363404
0.00353547
0.325805
-0.364648
0.00161858
0.336732
-0.358242
0.000747081
0.341745
-0.352551
0.000175706
0.341851
-0.350104
-0.00080806
0.336012
-0.350917
-0.00260016
0.3188
-0.356939
0.00835171
0.267024
-0.0246575
0.266789
-0.357519
0.00836693
0.306333
-0.417643
0.167622
0.277163
0.207159
0.193898
-0.368449
0.241707
-0.343911
0.304149
-0.336984
0.322929
-0.336012
0.328963
-0.338676
0.329528
-0.345757
0.327056
-0.354254
0.321487
-0.350886
0.306483
-0.0505702
0.120762
-0.138292
-0.00259757
0.420122
-0.514105
0.00887013
0.461625
-0.502418
0.00446362
0.470228
-0.484614
0.00172992
0.470487
-0.475548
0.000419467
0.470429
-0.472863
-0.000920639
0.469662
-0.472807
-0.0019511
0.461849
-0.476944
0.0106349
0.410693
-0.474872
0.166628
0.387135
0.344027
-0.172735
0.327993
-0.0778574
0.0618063
0.393003
-0.340135
0.317337
-0.298772
0.478548
-0.42134
-0.00333727
-0.471551
0.402207
-0.411468
0.0120889
0.433205
0.0193393
0.00839174
-0.122598
0.0120219
-0.0098443
0.00643207
-0.00235021
-0.000841944
0.396059
-0.396835
0.397119
-0.412833
6.68569e-05
0.42591
-0.428647
0.433554
-0.433443
0.000299632
0.436759
-0.435141
0.439861
-0.435311
0.000353589
0.443392
-0.432797
0.444583
-0.421862
-0.000683887
0.000574691
0.000950003
0.00317736
0.00178449
0.00115086
0.44738
-0.432163
0.00228315
0.511064
-0.504851
0.452241
-0.417598
0.00438422
0.507227
-0.482081
0.307231
-0.213763
-0.341436
-0.023199
-0.00526796
-0.123422
-0.0317104
0.00956618
0.227156
0.296502
0.0236515
-0.483105
0.367052
0.00365164
-0.409759
0.37453
-0.000813077
-0.385583
0.379404
0.000170906
-0.372467
0.37811
-0.0026648
-0.372198
0.392856
-0.00672492
-0.354962
0.401163
-0.0252242
-0.316685
0.102787
0.154547
-0.190594
0.00160607
0.311338
-0.264989
0.310998
-0.304055
0.308734
-0.305487
0.497046
-0.435686
-0.00102856
-0.498263
0.434195
-0.432931
-0.0026015
0.492608
-2.46497e-05
-0.00110634
-0.000723986
-0.0285661
0.00646664
0.0398649
0.0433046
0.0176343
0.00754699
0.0249384
0.0176626
-0.0227423
0.368217
0.118046
0.0256661
0.088118
0.0188119
0.00565463
0.00394274
0.00131332
0.000735429
0.00103511
0.00100965
-0.279558
0.000303177
0.285318
-0.28204
0.307941
-0.306307
0.310962
-0.306873
0.504543
-0.436115
0.000813817
-0.500723
0.441722
-0.436562
-5.57867e-05
0.499982
0.000973772
0.00100709
-0.000115092
-0.00289187
-0.00138298
0.00434037
0.00314422
0.00057175
0.0134792
0.00966575
0.29153
0.00141963
-0.0134207
-0.00115866
-0.0195108
0.0025184
0.193733
0.369933
0.679986
0.0712681
-0.0103419
-0.00480642
-0.0184474
-0.375661
0.00164347
0.349559
0.318147
-0.3511
-0.00257975
-0.370115
0.00274233
0.361562
0.335458
-0.349931
-0.000770846
-0.370029
0.00237864
0.364766
0.341833
-0.352237
0.000237084
-0.373201
0.00632614
0.363752
0.342811
-0.35816
0.00087173
-0.380553
0.017771
0.357913
0.340312
-0.366072
0.00183008
-0.390856
0.043243
0.344427
0.334856
-0.369952
0.00386402
-0.394575
0.0964289
0.322272
0.32225
-0.0620438
-0.00893483
-0.0718429
0.848246
-0.378909
-0.386891
0.626679
0.162928
0.0676641
-0.585042
-0.120594
-0.0705772
0.300619
-0.313829
-0.00547944
0.00654536
-0.0393028
-0.0472737
-0.00485727
0.0125382
0.00726166
0.00295123
-0.00385503
0.00173458
0.0027754
0.000817187
8.95716e-05
-0.000750921
-0.00257743
-0.00495045
-0.0171644
-0.00919581
0.239454
-0.239558
0.00287915
0.00154436
-0.243322
0.239745
-0.000568015
0.000996238
-0.00108423
-0.0181605
-0.0115079
0.0434743
0.00471277
0.0500296
-0.017744
-0.0217581
2.47502e-05
0.0801372
-0.0931525
0.0935259
-0.0798384
-0.0808221
-0.0690921
0.00257767
0.092745
0.083464
-0.0833138
-0.00248363
-0.0934473
-4.00438e-06
1.44674e-05
0.00593739
0.0168416
0.0150741
-0.0334093
0.000655227
0.000174977
0.000990726
0.00282955
0.00685968
0.00295129
0.0240059
-0.0188694
-0.00210069
0.013642
0.300076
-0.273798
0.316098
-0.311446
0.319403
-0.00766691
-0.283174
0.00823847
0.317361
-0.00116134
-0.0138754
0.0028528
0.0019669
0.00392299
0.00464667
-0.00334707
-0.0470107
0.161105
-0.0718673
-0.309069
-0.0391663
-0.0372132
-0.608849
-0.167835
0.021404
-0.245595
0.181581
0.00834421
0.0102844
0.219807
0.184388
0.0258477
-0.0206165
0.244509
0.219738
0.0278679
-0.0248435
0.221865
0.250599
0.0259745
-0.0572766
0.184029
0.255897
-0.0886608
0.133395
-0.116308
0.12431
-0.490856
-0.266611
0.048211
-0.121151
0.26399
-0.0159192
-0.432767
0.228301
-0.00456518
-0.271139
-0.268029
-0.389682
0.164014
-0.214316
-0.137225
0.238446
-0.49473
-0.0554854
0.348002
-0.428474
-0.0109721
0.372922
-0.39245
0.00086609
0.375952
-0.378364
0.00195071
0.374309
-0.374626
0.00213353
0.374108
-0.373768
0.00577062
0.376114
-0.371407
0.0230194
0.387989
-0.3328
0.0936388
0.322805
-0.18026
0.342503
0.386837
-0.479698
0.409352
-0.481443
0.0110652
0.240926
-0.368625
0.166443
0.192965
0.208908
0.277139
0.238354
0.1675
0.32271
0.192186
-0.00159326
-0.0279809
-0.015669
-0.00981698
-0.00591503
-0.0115437
-0.00608638
0.00173572
0.00618927
0.286578
-0.277721
7.83005e-06
0.000487708
0.000110702
2.09206e-05
-0.498905
0.437722
0.000195285
0.438821
-0.441076
0.000459774
0.441605
-0.443107
0.00110749
0.443297
-0.445349
0.00197586
0.442693
-0.445196
0.00251629
0.431536
0.0027682
0.00533125
0.000826784
2.33785e-06
-0.0012591
-6.15373e-05
0.000374384
0.000410459
0.000360367
0.000235617
0.000181266
0.000232691
0.00227122
0.00644519
-0.233244
0.00347334
0.0115495
-0.000602999
0.000415177
0.00062613
0.000403738
-3.53659e-05
-0.000779983
-0.00195418
-0.00285292
0.0104342
-0.00295634
-0.00782499
-0.0102323
0.204353
-0.218092
0.276511
0.00040072
-0.0372144
0.0310915
0.102629
0.000582694
-0.0912006
0.085847
0.0880221
0.000328616
-0.0975618
0.0915821
0.0786006
2.06224e-05
-0.122539
0.116562
0.108937
-0.00207054
0.13572
-0.142908
0.139339
-0.150124
-0.0138647
-0.0829477
0.120509
-0.00990982
-0.114594
-0.00243453
-0.000766611
0.411431
-0.00143112
-0.413843
0.239267
-0.00832215
-0.247436
0.247879
-0.00539183
-0.25982
0.416838
-0.0039247
-0.41666
0.409094
-0.407171
0.40487
-0.414656
0.000946176
-0.41293
0.407443
-0.000828059
-0.247563
-0.00905034
0.249755
-0.21241
0.00196457
0.373744
0.133345
0.393728
0.14393
-0.203502
0.311053
0.0286414
-0.272405
0.294331
0.00589775
-0.284999
0.288165
0.00133261
-0.284768
0.287524
0.000195056
-0.287562
0.285334
-0.00137492
-0.287558
0.285784
-0.00689743
-0.294138
0.271627
-0.0311477
-0.311527
0.203623
-0.148188
-0.395184
-0.119672
-0.370065
0.241877
0.0226495
0.0120947
0.154577
0.036166
-0.23801
-0.196126
-0.0545396
-0.151724
-0.0983732
-0.0768429
-0.168051
-0.083967
-0.0892167
-0.166927
-0.244438
-0.253288
-0.167287
0.415641
0.0229193
-0.244579
-0.00857582
0.335318
0.394525
-0.00445211
-0.290921
0.00193221
0.325153
0.482397
0.00459678
-0.475107
0.000333036
0.479841
0.00113873
-0.477048
0.00129054
0.478294
0.000646852
-0.478456
-0.00101258
0.476848
0.00052885
-0.480046
-0.000178981
0.474769
-0.000984974
-0.48287
-0.00417487
0.466732
-0.00685478
-0.48783
-0.017123
0.00212425
-0.29988
0.487175
0.00306709
0.313058
-4.44964e-05
-0.304716
0.498344
-0.000152429
0.308839
2.75188e-05
-0.307112
0.50134
-0.000119225
0.308204
-0.000289822
-0.306933
0.502409
0.000109782
0.307136
0.000435824
-0.308107
0.503006
0.000339341
0.307519
9.91997e-05
-0.308607
0.503214
0.000558731
0.305281
0.00051332
-0.312112
0.50026
-0.00136127
0.302143
8.4902e-05
-0.318994
0.477267
-0.0188436
0.34246
-0.0612477
0.0787042
-0.388767
-0.342841
0.178878
-0.326892
-0.0959062
-0.0662629
-0.683533
-0.372081
-0.326503
-0.231998
-0.167734
0.372433
0.430788
0.0312704
-0.231718
-0.0109523
0.487535
0.0144847
-0.466387
0.00550734
0.0035442
0.00744598
0.018826
-0.321352
-0.0155267
0.15657
-0.0230396
-0.0221858
-0.0421985
0.149687
-0.049495
0.0203893
0.0179154
0.000470184
0.00134928
0.00123152
0.000719324
0.000613641
0.000185849
-0.00243237
-0.00177195
0.426817
-0.494788
0.00188074
-0.0025757
-0.0048169
-0.000358408
-0.407
-0.000420246
0.414772
-0.43336
-0.000433204
0.432881
-0.439071
-3.01229e-05
-0.000134107
-0.00107088
-0.000520968
-4.8415e-05
0.000745326
0.000668621
0.000592374
0.000382925
0.000250583
0.000153982
0.00120405
0.0018831
0.000746395
0.411592
-0.414411
0.376622
-0.378852
0.379944
-0.37929
0.0021172
-0.198466
6.25114e-05
0.187194
0.00675231
-0.209467
-0.000744391
0.15915
-0.0162548
-0.0131113
0.0595914
0.00273989
-0.0643153
0.474486
-0.00645406
-0.297931
0.00115457
0.305075
0.397199
-0.00285278
-0.31348
0.000412867
0.317725
0.384317
4.67708e-05
-0.317362
-2.60858e-05
0.31482
0.385081
0.00249186
-0.320672
-0.000608951
0.308539
-0.323843
-0.00111214
0.29059
-0.331153
0.0130953
-0.00941065
-0.00241277
-0.000923182
-3.53237e-05
0.000253862
0.00053272
0.00144035
0.00301442
-0.00447569
0.00136665
0.110625
0.116523
0.11792
-0.0350939
0.159444
-0.016723
-0.0173648
0.163776
-0.0309875
0.14933
-0.0481942
0.0058847
-0.013288
0.0128052
-0.00320082
0.00289551
-0.00234762
-0.391745
0.0103114
0.0115687
0.0024657
0.000140368
-4.33382e-05
-0.0831723
0.0824917
0.0025968
-0.0701613
0.107598
-0.0219181
0.00924825
-0.0037661
-0.00426882
-0.0209014
0.155185
-0.38585
0.0233056
-0.25911
-0.0106101
0.328178
0.402941
-0.00948224
-0.296327
0.0026217
0.388019
-0.00711841
-0.306973
0.0012159
0.32124
0.388868
-0.00176543
-0.31542
0.000452252
0.318703
-0.318471
-0.000129051
0.315459
0.000588899
0.000208237
-0.000129135
-0.000389594
-0.00129184
0.00945987
-0.00624191
-0.000282529
0.00254954
3.65979e-05
-0.00237729
-0.0111748
-0.00941886
-0.0025692
-0.00255327
0.00237211
0.00666616
0.0012855
0.00588436
0.00162978
0.00381093
-0.00845723
-0.0119544
-0.0256033
-0.0283723
-0.0607664
-0.0510105
-0.0308279
-0.118257
-0.367955
0.0318297
-0.568523
-0.417745
-0.299504
-0.199077
-0.179689
0.0711769
-0.161511
-0.01583
0.0378556
0.001457
-0.00624771
0.193776
-0.229059
0.281686
0.00266948
-0.0329988
0.0523946
0.119667
0.00507124
-0.0814237
0.111871
0.112132
0.00552618
-0.0873225
0.115675
0.104924
0.00418266
-0.116766
0.130624
-0.00623266
0.00371128
0.0187327
0.0801889
-0.344125
-0.49924
0.00544869
0.467279
0.0133785
0.0099002
0.30211
0.0018176
-0.495706
0.5017
-0.000757569
-0.474085
0.278634
-0.319897
0.28508
-0.0313085
-0.297751
0.0161628
-0.331369
0.461915
-0.404644
0.420779
-0.00143452
-0.421801
0.000773439
0.418053
-0.00125174
-0.419726
0.000246528
0.421609
-0.00122428
-0.423369
0.411478
-0.47368
0.0272418
-0.328109
0.44904
0.0208655
0.0108047
-0.123504
0.134039
-0.138296
2.80019e-05
-0.115566
0.106159
0.00754907
-0.131975
0.0939343
-0.107204
0.00482783
0.191966
-0.115838
0.0710852
0.0177264
-0.136507
0.107353
-0.00212573
-0.00233325
-7.24886e-05
0.00453736
0.00282707
0.00146689
0.000652314
4.20602e-06
-0.00113553
-0.00288086
0.00442727
-0.00137262
0.0693628
0.0798085
0.000147206
-0.0189099
-0.0116893
0.15037
0.0544875
-0.127618
0.0656265
0.0847946
-0.133589
0.00435931
-0.154681
-0.0120148
-0.0360653
-0.124937
0.195878
0.238243
0.0124395
0.0437083
-0.0106235
0.00597146
0.104495
-0.112294
-0.00135983
-0.117793
0.11746
0.112289
-0.10445
-0.000718444
-0.142515
-6.96156e-05
0.142467
3.15985e-05
7.19236e-05
-0.00259291
0.00850633
0.00375517
0.0636769
0.679364
0.369557
0.190144
-0.00152743
-0.024945
-0.0139721
-0.0076719
-0.0103744
-0.022374
-0.0470769
-0.0514845
-0.104772
-0.11607
-0.246899
-0.416935
-0.371176
-0.374412
0.159072
-0.249972
-0.0969103
-0.105074
-0.323979
-0.426506
-0.378633
-0.378211
-0.383447
-0.377029
-0.427447
0.161312
-0.0459238
-0.134208
0.511749
-0.160464
-0.306503
-0.299285
-0.0782722
-0.0971157
-0.226582
-0.238118
-0.0627399
-0.0965984
-0.0236439
-0.00774851
-0.0013779
1.30931e-05
0.000228816
-0.000773293
-0.00446471
-0.00523211
-0.0193532
-0.0081479
-0.00296823
-0.00567279
-0.00352956
-0.00484694
-0.011852
-0.0304009
-0.0127625
-0.012417
-0.0144089
-0.00686705
-0.0019271
-0.000159665
-0.000348637
-0.0012511
-0.001259
-0.00368497
0.30332
0.458205
-0.474784
0.466403
-0.472825
-0.000650888
0.321886
-0.337488
-0.00157573
-0.00288372
0.00151898
0.00527463
-0.344451
0.0158483
-0.156978
0.0968608
-0.0301562
-0.00937747
-0.0111356
0.0143319
-0.134846
0.105925
-0.000794761
-0.000381895
-0.000390654
8.78786e-05
0.0690883
-0.00237508
0.000297253
0.000293266
-0.000200261
-0.0436786
0.000223496
0.0181032
0.011229
0.0148257
-0.0123239
0.0103565
-0.000167316
0.00107444
-0.0435581
0.134569
0.133601
-0.0844883
-0.0142352
-0.0669098
0.128385
0.011275
0.00248762
5.46364e-05
6.47948e-06
-0.00255227
-0.00232749
-0.00239683
-0.000480537
-0.0104363
-0.000874238
-0.00239062
0.000808483
0.00536973
0.00123406
0.00349145
-0.336066
0.327822
0.468402
-0.473833
0.46922
-0.47902
0.00117639
0.328117
-0.337832
0.00026781
4.81794e-05
9.20958e-05
0.000529796
0.00126887
0.0030357
0.00256808
0.00566889
0.00313233
0.00661099
0.00677691
0.0162438
0.0138158
0.0146478
0.00649422
0.0863883
0.00117418
0.00206763
0.000975882
0.000220374
-0.000777004
-0.00278713
-0.00309574
-0.00118338
-0.00110835
-0.000719957
-0.000160028
0.000113612
0.000248592
0.000396719
0.000348264
0.000207187
-0.00104456
0.00140313
0.00132639
3.23153e-05
0.000155851
0.000283856
0.000455151
0.000814977
0.000930835
0.0008672
0.00175226
0.00205447
0.00149014
0.0033331
0.00436328
0.00359508
0.0227054
-0.0287897
-0.0410853
-0.00799516
0.00449358
0.00598635
0.00612586
-0.101071
-0.00170434
-0.000978699
-0.00150589
-0.00984265
-0.00383481
0.213982
-0.00279726
-0.285132
-0.00206959
-0.0129274
-0.264042
-0.0114762
-0.0155999
-0.16567
-0.0736543
-0.126779
-0.315423
0.030589
0.0804294
0.00542366
-0.0042383
-0.00356728
-0.00662394
0.00186405
-0.191583
0.273029
0.00193306
-0.0600901
0.0265271
0.0946075
0.000448596
-0.117921
0.0749053
0.0759807
-0.000553577
-0.122015
0.0802194
0.0668861
-0.00130238
-0.111813
0.0253468
-0.151279
0.0668268
0.105936
-0.147047
0.044434
0.0218899
-0.00891599
-0.00199451
-0.000715998
0.000154845
0.000323835
0.000493608
0.00133364
0.00249015
0.00314128
0.00296476
0.00436591
0.420811
-0.42054
0.00182305
0.422763
-0.422782
0.38013
-0.380312
0.380702
-0.382196
0.00138704
-0.199456
-0.00101315
0.194409
0.00138888
-0.197285
-0.000220004
0.193962
-0.00114781
-0.00079227
0.0627588
0.00121953
-0.0622045
0.470683
-0.000253785
-0.301211
9.79628e-05
0.304175
0.392851
0.00183206
-0.317214
-0.000620195
0.374545
0.00709591
-0.322907
-0.00234676
0.290061
0.368257
0.00630086
-0.397442
0.00935925
-0.33032
-0.393581
0.00846237
0.357873
0.297659
-0.324672
0.010258
-0.00877136
0.00306914
0.00157403
0.000875851
0.000165401
-0.000620694
-0.00163316
-0.00078685
-6.3794e-05
0.000663303
0.000411642
0.000588019
0.000251103
0.423656
-0.424899
0.00173474
0.424318
-0.428123
0.382921
-0.383557
0.388459
-0.375654
-0.0145443
-0.198107
-0.00626088
0.200947
-0.00131318
-0.204076
-0.00273792
0.195362
-0.00257465
0.00219341
0.0701426
0.00507677
-0.0557312
0.467502
0.00198821
-0.295964
-0.00234243
0.303036
0.365526
0.00564532
-0.407892
0.0109098
-0.289613
-0.517177
-0.00221443
0.447184
-0.0300147
0.168588
0.00130386
0.122073
0.076779
0.0449015
0.0288716
0.228454
-0.144772
-0.0130683
0.00599418
0.000131522
-0.000506004
-0.000179951
-7.09695e-05
-0.000866309
-0.00512921
0.00163989
0.277681
-0.199221
-0.322403
-0.0736505
0.0612554
-0.15828
0.507396
-0.23398
-0.285904
-0.276668
-0.16179
0.381179
0.42146
0.0219969
-0.260843
-0.00944051
0.390208
-0.00839151
-0.290739
0.00282679
0.325785
0.390731
-0.00485526
-0.30878
0.00101279
0.321256
0.00171395
0.00195983
-0.379986
0.00587414
-0.366545
0.0338675
0.0346491
0.00106319
-0.204318
-0.342155
-0.238805
-0.168712
-0.355773
-0.12589
-0.0639167
0.0373155
0.0106159
0.481777
-0.00748131
-0.291021
0.00216417
0.309626
0.399196
-0.00746172
-0.308127
0.0011873
0.386272
-0.00269787
-0.31408
0.000392554
0.31824
0.387228
0.000256293
-0.387389
-0.000351022
0.000380023
-0.385021
0.00690541
0.00706061
0.0192689
0.00583678
-0.359607
0.0163105
-0.290824
0.00107352
-0.0533319
-0.0830882
-0.0225312
0.0226707
-0.00919214
-0.444204
-0.00122558
-0.00310263
0.062721
0.00124991
0.47195
-0.00240901
-0.300354
0.000464392
0.303649
0.395451
-0.000255364
-0.315855
9.2974e-05
0.381363
0.002709
-0.319743
-0.000826337
0.307445
0.380409
0.00606869
-0.392324
0.00101064
-0.000610035
6.3551e-05
0.00029379
0.00033618
0.000242687
0.000152047
7.95893e-05
-0.00118671
-0.00309509
-0.00073596
-0.000818415
-0.00103481
-0.000122976
0.000429298
0.000664952
0.000836933
0.000197384
0.000316693
-0.000190373
-0.000230968
-0.00110471
-0.000561427
0.431293
-1.75807e-05
-0.431135
0.433602
3.76043e-05
-0.437995
0.438207
-0.433074
0.43728
-0.000651451
-0.444162
0.437167
-0.43477
0.430822
-0.00193474
-0.439195
0.419262
-0.417799
0.418193
-0.419451
0.00188776
-0.431138
0.439883
0.000999982
-0.437496
0.000746102
-0.437571
0.44503
0.000598586
-0.443015
0.000273382
-0.43916
0.445757
-0.439483
0.439806
0.000110454
0.438299
-0.437685
-0.000165264
0.442875
-4.84291e-05
-0.444857
0.438842
-0.437552
-0.000951499
-0.500539
0.308431
-0.000461595
0.495289
-0.00237168
-0.497883
0.311628
0.00130123
0.482403
-0.423547
0.406357
-0.0014826
-0.413346
-0.000486702
0.403224
4.36297e-05
-0.403121
0.000906843
0.413667
0.00150836
-0.406461
0.424597
-0.483723
0.00343011
0.00512314
0.00467156
0.0172042
0.0117299
-0.242566
0.250177
-0.246499
0.246446
-7.3532e-05
-0.000727542
-0.000692436
-0.250155
0.242403
-0.0118627
-0.0068359
0.129633
-0.144787
0.000510598
-0.000945226
0.402514
-0.407507
0.407742
-0.402716
0.416216
-0.438192
-0.0119241
-0.0045676
-0.129632
0.00681214
0.144721
-0.0059721
0.00265963
0.00256037
7.48887e-05
0.000131724
0.000191903
0.000216077
0.000172681
-0.439188
6.94551e-05
-0.439484
0.439882
-0.444554
0.439466
0.000115174
0.444891
-0.438422
-9.93576e-05
-0.500385
0.307436
2.17912e-05
0.499021
-0.306611
1.27566e-05
-0.280349
0.285424
0.0028411
-0.281167
0.28597
0.00389397
-0.280204
0.290233
0.00727426
-0.278192
0.296829
0.00625141
-0.281341
-0.0094278
-0.000105606
-0.00136676
0.00238842
0.000323425
0.00124401
-0.000170618
0.000347529
-0.000955366
0.0013597
0.0055164
0.290657
-0.304886
-0.000420019
-0.270024
0.307092
0.0300044
0.0123041
-0.000490959
0.0121166
-0.203171
-0.000286947
0.318906
0.0185923
-0.475906
-0.00305667
-0.00475862
0.0249082
0.017126
-0.0226774
-0.241532
0.369332
0.119916
0.39281
0.146
0.0830811
0.0199557
0.0606338
-0.342389
0.437576
-0.415503
0.0118808
0.0019783
-0.0188562
-0.00503447
-0.00262064
0.0074716
0.00169979
0.000680937
0.000806929
0.000638858
-0.500159
0.307175
-0.307644
0.500888
2.44022e-05
-0.000776074
-0.00228784
-0.000506457
-0.000662495
-1.77578e-05
0.000149082
0.000819169
0.000612975
-0.438229
2.67577e-05
-0.443016
0.439342
-0.499572
0.306611
0.0013183
0.502871
-0.309569
0.00301011
0.000324482
-0.000988109
-0.0017901
-0.00596259
-0.00444846
0.324163
0.469286
-0.489652
0.0402533
0.00709519
0.00332588
0.0117849
0.00574895
0.0138557
-0.342778
0.0120253
0.0328507
-0.348347
0.00276793
0.00151337
0.00107733
0.00198126
0.00302531
0.00412606
0.00190298
0.00124129
0.000715193
0.000534113
0.000414497
0.00061042
0.000808263
0.000569619
0.000444566
0.000581638
0.000731485
0.000607405
0.00106547
0.00111027
0.000582095
0.00129714
0.00108569
0.00154589
0.00114708
6.31768e-05
-0.000934322
-0.000327125
0.00216979
0.00406709
0.00034409
-0.0231691
0.00276842
0.000561019
0.000939325
0.00114992
0.00126814
0.00105148
0.00225418
0.00140013
0.0026474
0.00146857
0.423308
-0.431729
0.00215713
0.415103
0.00694242
0.00136035
0.00338022
0.0176119
-0.0679984
0.168596
-0.134375
0.283365
0.0414195
0.193628
-0.155835
0.126042
-0.135955
0.086067
0.0980852
-0.148489
0.0339758
-0.154767
0.0909436
0.0944902
0.18544
-0.00861924
-0.00233049
-0.0236013
-0.00113613
-0.107638
-0.00167115
-0.000755172
0.000656711
0.000886111
0.00167907
0.000991356
0.000652416
0.000851736
0.000646088
0.000166364
0.000587962
0.000349596
0.00240222
0.00114784
0.000491169
-0.472221
0.470197
0.00106612
-0.300382
-0.000728508
0.306052
0.385735
0.00509268
-0.318718
-0.00191943
-0.389401
0.00164963
0.000909616
0.000219038
0.000469124
0.000234162
0.00251004
0.000599609
0.000273229
0.00045023
0.000431719
0.000439664
-0.000608799
-0.00141566
-0.00312412
-0.353532
0.00630795
0.325606
0.0186603
0.337607
-0.298497
-0.325751
0.384338
-0.257634
-0.242598
-0.200994
0.00226216
0.00214769
0.00196233
-0.38213
0.0129401
-0.00149573
-0.0620258
-0.000108293
0.00495731
-0.000525697
-0.468161
-4.71639e-05
-9.09065e-05
0.0635878
0.00229467
-0.061625
0.000441535
0.00289849
0.000877617
0.00164322
0.000404922
-0.390967
0.00045148
-0.380559
0.00126521
-0.00024813
-0.394813
-0.000242419
0.315585
-0.00313838
-0.00142573
-0.397691
0.0062334
-0.478813
0.0188557
0.0127992
0.0972861
0.0101565
-0.491679
0.0338995
0.00135843
0.00398749
0.0279815
0.186282
0.441128
0.229071
0.336861
-0.0165095
-0.00469046
-0.401559
-0.0114177
-0.0227257
0.0106472
0.227285
0.327751
-0.0172186
-0.00559222
-0.00170319
0.310942
-0.38647
-0.00575685
0.000414972
-0.017567
-0.0316133
0.000655241
0.209889
0.330085
-0.0181636
-0.00596447
-0.00198966
-0.389438
-0.0019613
-0.000265571
0.00013062
0.00181301
0.00468453
0.00142546
-0.0258428
-0.0073723
-0.000309951
-0.00264609
-0.00638427
-0.00401298
-0.00687673
-0.00126467
0.191661
0.369577
-0.0690804
0.0596084
0.0265928
0.0330606
0.00922115
-0.00211486
-0.000797669
-0.000173494
0.000110483
0.000302235
0.000781241
0.00242178
-0.000127603
-0.000156838
-0.0010595
0.00157416
0.00088393
0.000977361
-0.00188939
-0.0184667
-0.0256705
-0.0077617
0.00272419
0.00275057
-0.497195
0.436054
0.00131505
0.00136995
0.00136998
0.00262798
0.00326443
0.00310807
0.000655078
-0.00845859
0.12417
-0.415589
0.0211386
0.00118426
0.00109986
0.000618791
0.00059688
0.00108639
0.000392137
0.000361313
0.00033166
0.000531753
0.000185488
0.000241211
0.000235028
0.000903905
0.000894081
0.438505
-0.000164847
-0.438196
0.438411
-0.000653161
-0.434044
0.433748
-0.437936
0.444552
-0.000450734
-0.43822
0.436632
-0.436245
0.00167139
0.505157
-0.313931
0.00595465
0.00261879
0.00209664
0.00119711
-3.54748e-05
-0.0104736
-0.0176733
-0.0356655
-0.08412
0.00454632
-0.0361766
-0.0119616
-0.00356238
0.00485594
0.00413612
-0.000497849
3.4422e-05
0.000964001
0.000497593
0.445475
-0.43928
0.439944
-0.445324
-0.000142203
-0.43849
0.443616
-1.01741e-05
-0.444754
-0.000636473
-0.43552
0.438482
-0.000250194
-0.440022
0.433025
-0.499226
-0.00160228
-0.002406
-0.00102727
0.000308895
0.000586589
0.00222203
0.00514763
0.0213972
0.0859361
-0.0267318
0.856316
-0.0204775
-0.00448977
-0.0156471
-0.150133
0.0304016
0.0859861
0.007482
-0.0012399
-0.0839772
-0.0013689
0.00257428
0.00623703
0.000396047
0.000480717
0.00656015
0.00348469
-0.264764
0.218163
-0.00870828
-0.00610281
-0.000416303
0.044734
-0.0101791
0.037012
0.0593154
0.095631
0.190112
0.0471735
-0.122802
0.0483531
-0.154492
0.0379156
0.0210812
-0.11736
0.00660943
-0.00239558
0.000272482
-0.000591934
3.34706e-06
0.00221287
-0.00104394
-0.00233704
-0.000336078
-0.00273564
-0.000963247
7.75924e-06
-0.00014731
0.000178823
-6.16718e-05
-0.000154859
-0.000878938
4.02665e-05
0.00123
0.00248479
0.0102276
0.108513
0.455609
0.0260987
-0.0809648
0.292698
-0.00469934
-0.062541
-0.0208016
-0.0298997
0.849972
-0.0162483
-0.00472765
0.00533481
0.00215887
0.00544978
-0.0759846
-0.00163886
-0.00176778
-0.0163658
-0.151165
-0.129183
-0.0779238
-0.304823
0.0310644
0.0759326
0.00388927
-0.00428393
-0.0044978
-0.00239328
-0.0938053
-0.00464406
0.044988
-0.0269974
0.0478823
-0.00270277
-0.0855728
-0.00505798
-0.00280439
-8.04238e-05
0.00520952
0.0190787
0.00249365
0.00330262
0.0177332
0.017304
0.000829842
-0.0017765
-0.000446764
0.00105108
0.00299744
-0.00136604
-0.0011107
0.0134927
0.323324
0.0140831
-0.000343207
0.00190819
0.000474893
0.000160362
-0.000137098
-0.00149486
0.00117877
0.438907
-0.500883
0.00127576
0.0005308
0.000434702
0.000449624
-0.502043
0.439686
0.000102885
-0.439291
0.445363
-0.44486
0.000352607
0.439842
0.000322107
0.000126808
8.98364e-06
-8.39367e-05
0.000555553
0.00105441
0.000195281
8.11638e-05
-0.000217441
-0.000959424
0.00151964
0.437864
-0.431916
0.431668
-5.91205e-05
0.000116371
0.000209351
0.000182097
-9.25604e-06
0.439619
-0.502595
-5.61399e-05
-0.00018561
0.00015327
-0.00068927
-0.000722971
-0.502652
0.43835
-0.000531712
-0.000392153
-0.00102764
0.00101528
6.70619e-05
0.000121546
-0.0130809
-0.0208488
-0.0847126
-0.0135193
-0.00140171
5.06589e-05
0.000424701
2.79306e-05
0.000109389
0.00123241
-0.00136032
-0.00156136
-0.000356588
-0.000232547
-0.00190673
-0.00120406
-0.00113257
0.00031721
-0.00174199
0.00132266
-0.00195119
-0.00677715
-0.00058449
-0.00239665
-0.0150132
0.0107305
0.0299019
-0.000616013
0.00119622
-0.428813
0.00326276
0.0132432
0.0867529
-0.00176808
-0.00251818
-0.0186939
-0.176639
-0.108484
0.0246572
-0.00314471
-0.00247945
-0.00195851
-0.0223782
-0.00285575
0.163092
0.0493439
-0.00835328
0.0347255
0.245846
0.0214405
-0.00359754
-0.00642923
-0.00760226
-0.0114188
-0.283197
-0.252132
0.00186924
0.025555
0.00946289
0.0410571
-0.0776556
0.000478686
0.00452529
-0.0115731
0.000156483
-0.383989
0.00535173
0.00109612
-0.0002794
-0.00166732
7.72272e-05
-0.00136868
-0.462348
0.320344
-0.37266
0.0194018
0.184412
0.315098
-0.000213977
-0.00034242
0.00111109
-0.0795779
-0.301807
-0.0209731
-0.0047842
-0.00117072
-0.00255535
-0.0888894
0.000679367
-0.278778
0.00709825
-0.27071
-0.00209931
0.0369418
0.00136681
-0.106386
0.0501346
-0.0100554
0.334082
0.000391228
-0.284903
0.0213447
0.0890874
0.0166945
1.64564e-05
0.00148487
0.000315639
0.00504132
0.323075
-0.504312
0.00164973
-0.168108
-7.4082e-05
0.0220247
0.0346662
0.0193887
0.00656111
-0.00051505
-0.00756606
-0.020239
-0.0353077
0.000229178
0.206205
0.245251
0.243992
0.171014
-0.406225
-0.382295
-0.0188987
0.387196
-0.00823664
-0.473335
0.0797561
0.0130427
-0.0551848
0.0608903
0.00381751
-0.0567554
0.0589257
0.00238787
-0.0545433
0.0595572
0.00191176
-0.0541366
0.0584999
0.000107715
-0.055851
0.0561679
-0.00405169
-0.0609613
0.0509215
-0.015083
-0.0805756
0.0303747
-0.0651073
-0.156193
-0.0749002
-0.234035
-0.287376
-0.281052
-0.239014
-0.254407
-0.264498
-0.253057
-0.273324
-0.259823
-0.258141
-0.269079
-0.257246
-0.274618
-0.272794
-0.25437
-0.338342
-0.158493
-0.152513
0.584766
0.0371568
0.329252
-0.162676
0.425936
0.0269281
0.378009
-0.167231
0.403273
0.022395
0.389791
-0.167746
0.398743
0.0231603
0.410268
-0.162408
0.387036
0.0247128
0.503013
0.0607009
-0.0432897
-0.322359
-0.00305259
-0.24399
0.157016
-0.212242
0.186234
-0.20031
0.194267
-0.195019
0.197267
-0.193996
0.197428
-0.192423
0.200367
-0.186189
0.210745
-0.157388
0.242737
0.00432934
0.302851
0.213412
-0.0847552
0.238801
-0.222696
-0.0108725
-0.00522175
-0.122085
0.1289
-0.114756
0.212186