/*--------------------------------*- C++ -*----------------------------------*\
| =========                 |                                                 |
| \\      /  F ield         | OpenFOAM: The Open Source CFD Toolbox           |
|  \\    /   O peration     | Version:  2306                                  |
|   \\  /    A nd           | Website:  www.openfoam.com                      |
|    \\/     M anipulation  |                                                 |
\*---------------------------------------------------------------------------*/
FoamFile
{
    version     2.0;
    format      ascii;
    arch        "LSB;label=32;scalar=64";
    class       volScalarField;
    location    "1.3";
    object      gradTy;
}
// * * * * * * * * * * * * * * * * * * * * * * * * * * * * * * * * * * * * * //

dimensions      [0 -1 0 1 0 0 0];

internalField   nonuniform List<scalar> 
5712
(
12494
7208.41
20172.5
13276.7
22065
16379.5
34448.8
42992.9
45388.4
55839.3
29441.9
25666.3
18682.8
14873.6
9409.09
6374.28
20712.9
20932.6
17958.1
20959.6
27969.3
24682.9
32551.5
26050.1
8738.49
6210.38
4939.32
3688.88
10374.2
8413.52
6357.09
5189.38
19361
19872.3
19553.4
16131.5
14942.7
11908.9
11907.1
13596.4
19149.4
19138.6
40572.2
42043
28452.4
29420.9
16613.7
14011.6
17881.1
12707.4
8318.34
8606.95
7000.95
10291.6
3676.93
4572.04
9561.19
13681.4
5740.29
6847.04
10461.9
18405.3
7306.79
12286.6
2761.4
7257.22
2302.41
5396.15
18323.4
22744.4
19152.9
22797.2
22309.1
22436.8
22965.2
22302.9
16468.2
22457.8
16712
22082
18978
22729.6
19036.7
22728.6
23304.5
22112.8
23305.7
21953.7
15293
22607.7
14809.6
22724.2
19143
22950.2
24165.2
34416.4
20305.7
26769.2
23976.9
37716.3
18139.2
20082.7
24239.5
32929.9
17956.9
18746.8
24503.1
32624.5
6205.59
8271.58
15957.7
28481
7582.92
8749.36
20293.3
31964.5
9262.49
9399.75
25368.1
34994.1
25415.2
26655.3
22096.7
21906.3
33044.9
26664.4
25659.7
22460.9
19878
38196.4
24382
24493.6
22326.5
22972.6
43024.5
2324.76
2815.37
5089.57
12137.1
3265.07
3763.83
6876.02
13307.1
4767.58
4058.51
9168.75
14861.9
26008.9
25023.6
23836
22779.8
21077.1
18659.3
16233
14060.6
11866.9
17052.4
23874.1
22511.5
24491.2
23581
21764.1
19999.3
18493.8
16370.5
12553
16960.8
24527.7
27453.9
24543.3
28264
23337.4
23921.1
22882.1
24259.1
22745.6
23063.6
22533.8
22339
24390.4
28437
24322.7
28461.1
22270.8
24645.5
22129.4
24637.7
22836.9
23012.1
22860.9
23023.1
19468.6
18480.1
12662.8
14228.7
19369.3
18041.2
12504.1
14427.3
19713.9
18394.4
12923.4
14221
19796.5
18203.8
13322
14205.9
1815.2
1153.62
763.276
1008.86
639.319
587.063
2553.47
1396.72
1005.32
1949.05
1488.87
1226.19
2842.92
2154.23
2072.36
3386.31
2625.81
2285.71
22970.6
19768.8
17674.8
21465.5
19028.3
17267.4
15605.9
13831.3
12840.7
10937
8938.51
8061.42
5200.9
3578.75
2917.96
20993.2
18472.9
16567.9
21981.4
19018.2
16912.7
16615.4
13454.3
11709.6
11056.4
8270.92
7118.75
5503.1
3535.88
2720.6
28034.7
27184.7
30754.6
27351.6
31709
27367.2
38592.3
29042.3
21467.1
21498.7
21276.6
19537.1
24123.1
22432.7
23810.5
20133.3
23570.8
23218.2
21660.9
22969.6
28422.5
25762.7
28969.9
29514.9
31725.7
32930.3
23988.2
24985.8
21469.3
20891.4
25915.4
26661.8
16491.9
8919.91
15513.9
9866.47
16769.8
9000.76
15508.8
9809.29
16565.5
9039.46
15502.6
10223.4
15133.6
10695.7
15346.2
10598.9
21488.3
18120.3
21548.6
18209
23908.5
21394.4
24357.4
21315
20954.7
15024.3
21675.3
14733.4
22155.7
18191.1
22499.5
18007.3
25133.7
21224.1
25224.6
20987.7
20865.1
15120.4
20855.7
15036.9
13602.8
9066.88
11793.4
7702.45
12576.1
8113.05
11271.5
7198.28
13998.1
9634.1
12017
7939.2
14041.9
9965.23
11992.1
7994.22
2590.09
1357.18
4806.07
2706.37
2752.38
1642.66
5108.47
3188.34
3362.8
2444.49
5634.35
4088.57
12888.2
20233.7
9266.91
8885.18
6466.39
19651.8
13481.2
7825.78
7873.48
5336.3
20664.7
16061.5
12642.6
9795.94
6315.8
729.444
520.531
1652.37
1247.68
996.641
658.457
2208.89
1749.12
1688.05
1224.63
3086.32
2486.78
19673.9
18505
13087.2
12107
8370.57
8071.06
7023.2
6112.34
4544.35
3662.44
18623.4
16471.4
14191.4
12011
10887.7
9233.1
8237.56
7042.33
5526.47
5156
14726.7
11452.7
14919.7
11304.1
18015.7
14577.5
18107.8
14550.3
12273.2
9509.73
11836.4
9442.27
14989.9
11202.9
14915.5
11202.1
18109.5
14924.2
17965.9
14911.7
12539
9419.01
12523
9543.91
9471.42
7607.13
6476.59
6404.93
9079.99
7372.61
6180.07
6026.95
9892.76
7784.65
6648.38
6768.2
10117.2
7783.88
6899.84
6863.14
1334.46
1145.5
933.826
5668.05
2989.1
2411
1308.43
1258.9
1099.82
6229.78
3575.04
2986.42
1834.05
1998.58
2010.64
7021.27
4541.79
3975.62
16658.5
14847.9
13673.9
11034.5
10169
9672.25
7794.78
7312.83
7107.38
6429.71
5937.41
5645.71
8149.11
5683.99
5029.21
14353.9
12518.1
11361.4
10305.2
9037.3
8342.64
8253.88
7221.97
6677.83
7618.17
6428.8
5776.91
10020
6443.82
5633.01
4884.98
2920.57
1853.34
1263.66
5469.93
3158.57
1950.49
1298.43
4913.98
2922.55
1859.08
1271.28
5587.12
3225.33
1997.93
1325.66
4913.55
2903.08
1885.84
1290.06
5705.78
3271.5
2067.32
1360.73
6127.22
3452.83
2082.44
1370.68
6295.45
3576.7
2129.69
1404.23
5227.74
3088.75
1972.04
1320.35
4371.31
2754.09
1828.19
1261.97
4624.68
2817.71
1857.13
1252.85
4052.95
2606.77
1760.91
1219.4
5632.55
3292.75
2046.95
1360.64
4563.01
2861.14
1869.39
1293.44
5857.4
3430.43
2103.59
1397.96
4648.51
2937.55
1907.97
1320.42
3744.46
2531.47
1705.37
1204.59
2562.85
2076.2
1526.05
1131.72
3762.72
2525.25
1707.13
1204.37
2669.72
2106.04
1536.56
1138.39
3862.53
2533.37
1729.19
1220.24
2981.6
2198.33
1574.07
1165.14
3842.72
2489.19
1712.87
1249.01
3256.16
2267.17
1626.62
1171.3
3629.82
2435.02
1685.49
1202.58
1443.33
1716.1
1239.78
377.776
273.308
1521.81
1130.15
385.926
1652.13
1786.48
1269.4
397.756
513.922
1598.55
1155.03
394.273
2051.32
1912.64
1310.63
397.099
933.522
1730.18
1189.99
398.953
2552.83
2066.97
1379.46
430.493
1402.56
1880.85
1243.24
416.358
2910.65
2213.93
1465.93
495.819
1584.45
2002.87
1293.71
431.853
3131.4
2383.76
1503.32
476.797
1439.4
2150.3
1389.76
459.825
3043.97
2309.31
1476.35
475.911
1373.69
2082.8
1340.82
443.488
3171.17
2435.52
1516.51
447.996
1421.43
2205.81
1418.63
462.515
3236.35
2486.84
1551.67
455.884
1518.56
2260.31
1453.23
472.757
943.419
630.779
386.901
205.874
64.2282
935.669
629.844
387.281
206.192
64.3312
955.771
636.789
389.531
206.986
64.5365
952.796
637.505
390.753
207.694
64.7516
981.534
645.219
392.894
208.376
64.9209
975.287
646.346
394.756
209.438
65.2424
987.058
656.066
399.931
211.831
65.9297
1009.46
669.601
407.101
215.175
66.895
1007.02
655.19
397.634
210.488
65.5195
1070.77
666.833
400.802
211.579
65.8033
1011.69
652.512
395.384
209.339
65.1812
1069.18
662.54
398.312
210.409
65.4653
1015.31
663.673
402.245
212.638
66.1388
1090.46
675.036
404.968
213.505
66.3583
1039.23
676.873
408.98
215.747
67.0343
1115.75
686.821
410.781
216.178
67.128
966.424
633.695
386.819
205.616
64.1368
1011.48
637.146
386.88
205.467
64.0821
978.31
638.478
388.806
206.437
64.3626
1021.18
640.808
388.413
206.102
64.2567
1003.02
646.45
391.905
207.71
64.7135
1042.58
647.484
391.121
207.232
64.5689
1040.61
655.329
394.997
208.948
65.0525
1068.1
654.613
394.159
208.529
64.93
1075.54
659.867
396.722
209.666
65.2512
12066.3
18747.8
12505.5
18918.2
13108.6
19070
13386.5
19009.7
12578.1
17949.2
11302.9
12796.7
11432.5
13632.6
11303.7
12577.5
11475.8
12684.7
10790.3
1855.75
398.762
89.9772
16.0118
12032.1
3436.96
838.486
191.292
34.0227
10813.8
1828.62
390.492
87.84
15.5961
12032.9
3399.02
826.9
187.884
33.147
10757.8
1797.37
381.193
85.481
15.157
11943.5
3344.96
810.584
183.705
32.3856
10468.7
1714.14
360.872
80.8289
14.3358
11609.3
3226.91
780.248
176.742
31.1517
9734.36
1554.21
326.914
73.5407
13.0849
10811.2
3013.85
731.893
166.424
29.3979
8379.1
1391.9
302.752
69.3363
12.4489
8587.68
2520.23
629.729
145.865
26.0542
8799.63
1438.34
309.073
70.3
12.5743
9259.74
2711.7
671.084
154.076
27.3554
8196.51
1374.54
300.328
68.9546
12.3953
8327.94
2427.52
607.077
141.108
25.2855
8135.94
1358.59
296.547
68.1087
12.2333
8297.61
2399.9
598.456
139.417
24.9449
35380.9
50693.1
49420.1
34227.8
19878.2
20974.4
29363
30808
23186.5
26124.2
37105.8
50974
47028.7
62628.5
30594.4
35019.9
23882
25611.3
12915
14199.2
4765.99
3035.83
591.066
418.699
475.289
404.36
524.955
4490.73
4247.09
2484.33
3405.66
3141.07
1295.55
1879.56
1627.82
1023.55
1196.74
947.851
4094.46
2029.87
1157.53
1010.24
1366.23
1162.03
865.785
789.286
704.786
604.066
885.994
789.658
4369.37
2516.99
2923.88
1741.22
1368.45
2045.16
878.349
635.17
982.501
9460.06
9104.72
8838.3
9420.66
14674.6
6560.06
7191.99
7503.85
8070.03
9129.89
1536.46
2153.99
2596.95
2883.74
3027.66
1100
1566.3
1912.75
2140.12
2252.97
1247.53
1773.01
2159.65
2410.08
2532.82
1064.4
1519.7
1859.4
2082.11
2192.07
1372.69
1940.21
2353.05
2619.68
2751.05
9226.54
9112.28
8585.59
8667.57
12914
8712
8452.7
7821.85
7668.37
8514.86
5582.04
6358.08
6584.58
6786.98
7165.52
7178.89
7239.33
6765.15
6482.47
6509.44
6623.37
6753.03
6313.38
5961.68
5851.22
3172.64
4072.68
4562
4832.66
4977.9
4377.58
5230.33
5554.52
5713.23
5844.73
3849.44
4692.61
5033.26
5163.46
5223.27
2569.82
3417.02
3929.6
4220.72
4360.54
2948.57
3813.81
4285.46
4529.49
4641.92
2397.5
3220.61
3730.59
4020.02
4154.32
8571.99
8745.27
8477.52
8782.03
13229.4
4717.03
5655.57
6102.6
6461.18
6890.77
2879.48
3783.2
4322.81
4646.37
4824.83
2543.68
3403.71
3951.34
4292.77
4478.38
3337.43
4284.48
4834.1
5194.9
5445.3
2896.13
3824.33
4407.33
4789.12
5019.32
2206
3006.49
3548.79
3901.07
4090.81
2026.4
2788.15
3307.94
3636.37
3802.92
1822.31
2530.43
3017.55
3317.45
3461.28
1572.22
2205.79
2655.9
2940.55
3079.03
2255.24
3061.02
3583.74
3898.07
4052.8
2026.25
2784.34
3296.47
3614.48
3772.79
8885.54
8818.65
8614.15
9126.61
14049.5
5616.32
6428.99
6858.36
7390.77
8197.67
6635.04
7459.39
7659.11
8143.44
9608.88
4148.95
5172.25
5771.23
6250.22
6681.22
3358.11
4346.43
4952.5
5377.2
5672.63
4759.31
5734.65
6236.85
6672.64
7186
2237.29
3045.82
3588.38
3935.86
4120.44
1647.67
2301.41
2763.25
3057.27
3202.79
2481.02
3335.4
3890.24
4243.14
4436.45
19842.9
13239.5
20390.3
14642.8
26243.4
38003.6
27523.6
37896.5
20887
21957.3
17993.9
21314.4
23465.9
22126.9
30253.9
24501.1
15477.6
14736.7
7582.52
6579.72
16815.8
15604.3
8681.24
7179.89
20884.4
22474.2
21235.3
19231
21853.4
14367.9
11812.3
13607.6
19230.9
19167.7
40306.1
42040.5
27849.9
29277.6
17410.3
14194.7
18823.7
12891.8
9163.2
8819.76
15765.8
17625.9
6574.88
7239.18
17258.5
19932.5
8162.48
9096.02
16310.2
23173.1
9441.26
14752.9
3266.6
8117.2
2406.49
5566.29
19279.4
21929.7
19235
22341.7
20695.4
20879.2
21928.4
21454.9
17823.2
22506.4
20265.6
22201.7
18911.6
22491.6
18999.1
22651.8
22790
21689.8
23158.5
21824.3
15748
22614
14900.2
22719.1
20296.2
24399.9
24570.9
34841.1
22186.8
29094.1
24726.8
38468.1
18685.7
20804.8
24426.3
33145.3
18103.7
18952.2
24551.2
32688.3
21683.6
23368.6
27557.5
41205.4
21693.3
22110
29429.6
41646.4
21187.7
20732.3
31540
41094.7
19462.3
19971.6
21250.7
23133.3
35705.8
19122.8
18171.7
22595.3
21012.3
41037.4
19952.3
21195.1
21472.6
23903.9
44105
12406.2
11202.7
11875.9
15684.8
13603.4
12309.1
12278.2
16062.9
15022.2
12838.1
12798.1
16332.5
18347
17329.3
17518.3
16760.9
20768.7
19073.8
17410.5
15475.8
13356
16971.3
19448.8
18901.7
20992.3
20841.4
20563.9
19125.9
19059.9
16796.6
13105.1
16329.2
22936.5
25670.9
23785.3
27337.8
21300
22020.8
21937.9
23344
22413.5
22583.3
21917.3
21554.4
24033.1
28006.4
24216.4
28336.1
21840.9
24213.3
22003.8
24513.5
22662.8
22776.7
22806
22954.7
19484.9
18348.9
12790.6
14198.8
19491
17922.9
12814.8
14375.9
19702.7
18317.1
12972.7
14204.8
19788.9
18178.8
13334.6
14199.6
10152.6
10321.3
4457.51
4070.1
11326.3
10913.9
4990.61
4745.29
11002
10196.9
5654.06
5419.97
16750.8
16001.3
16701.6
16574.5
17024
16278.3
13080.7
11514.7
6704.8
5444.36
18786.6
17722.9
20569.4
19451.9
16718.6
15204.7
12269.7
10307.6
6133.29
4476.6
22903.6
21557.3
28512.4
24606.7
25860.3
22800.1
35956.2
26739.4
20786.9
16889.2
22867.2
17875.6
20627
17180.1
22964.6
18139.5
21427.6
18739.9
19230
17661.6
21466
23042.1
27629.5
29116.4
30672.4
32638.1
22690.5
24543.7
20366.5
20578.9
24365.1
26143.3
13605
9976.91
14146.8
10232.1
13899.9
9902.03
14371.5
10103
13805.4
9765.24
14346.8
10329.6
14447.2
10671.7
15115.3
10582.1
17575.4
16846.4
19627.5
17423.7
20410.1
19393.4
22539.4
20219.7
19086.4
14701.1
17928.6
14417.6
21214.4
17775.4
22222.3
17881.6
24274.4
20680.4
24980.5
20825.2
19933.2
14917.7
20580.3
14973.4
13152.9
9408.36
11940.8
8039.03
12450.6
9072.07
11792.4
7934.15
13662.7
9741.84
12047.1
8090.64
13926.7
9986.81
11997.3
8042.17
12916.1
12778.2
9326.04
8567.25
13047.9
12899.8
9188.59
8500.08
12985.9
12414.2
8972.51
8418.31
15312.2
18342.1
15918.8
11720.2
8696.45
16940.5
15620.5
17163.2
11642
8381.77
18723.7
16285.5
14201.7
11782
7829.45
12878.4
13351.1
8343.13
8678.07
12801.1
13080.3
8289.5
8589.48
12014.8
11980.1
7990.51
7902.3
16564.9
15371.1
14682.4
13749.8
14919.7
14844.4
11466.8
11707.4
7796.3
7450.32
16777.7
15018.2
14775.7
13048
13010
11924.8
10872.4
10352.8
7246.02
7302.55
14510.8
11898
14646.9
11432.2
16823.1
13904.6
17413.8
14176.7
12411.3
10005.5
12435.4
10647.6
14811
11241.5
14858.7
11209.2
17763.2
14733.3
17863
14856.1
12541.3
9614.64
12511.1
9589.87
9904.26
8294.21
6919.53
7047.08
10125.1
8872.93
7079.44
7351.76
10053.5
8072.33
6848.61
7095.54
10160.2
7863.81
6965.1
6962.82
15159.4
14983.7
19443.9
16592.8
14687.7
14572.4
18678.4
15884.3
12993.1
13307.4
17193
14766.7
14567
13838.6
12994
12549.4
14551.8
14637
12839.9
12549
15780.5
13431.6
13624
12688.6
11933
11481.8
11670.9
11686.6
11948.7
11463.5
15207.1
12155.9
6195.21
3750.72
2315.22
1531.52
6413.68
3859.89
2371.47
1548.32
6101.1
3692.67
2281.44
1514.73
6369.54
3829.12
2362.31
1543.69
5930.91
3580.38
2259.89
1506.01
6310.98
3756.67
2373.3
1546.83
6471.15
3755.03
2283.76
1497.47
6408.82
3681.21
2197.81
1448.16
5749.35
3475.61
2222.34
1480.68
4733.61
3035.07
2009.95
1383.3
5469.76
3375.42
2188.88
1453.55
4655.17
3041.08
2008.33
1368.98
5913.7
3521.67
2202.22
1462.36
4756.06
3019.37
1981.47
1373.92
5943.6
3506.6
2156.49
1433.24
4708.97
2988.95
1945.91
1347.95
5751.07
3548.91
2223.97
1495.28
5047.55
3256.67
2101.6
1444.19
5625.07
3488.33
2194.48
1475.78
4962.95
3222.08
2083.03
1436.34
5451.49
3391.01
2169.17
1467.17
4904.07
3177.16
2064
1432.18
5067.37
3210
2092.38
1466.51
4756.56
3101.74
2045.99
1391.86
4535.5
3027.4
1996.58
1374.71
4058.77
2962.59
1782.56
510.551
2581.26
2778.51
1686.92
540.118
4082.33
2960.5
1786.63
528.179
2692.56
2779.23
1685.87
542.564
4130.19
2942.7
1768.22
507.877
2848.43
2766.21
1664.96
531.27
4082.42
2900.6
1779.51
532.642
2841.43
2728.1
1651.77
532.497
3852.31
2818.18
1788.86
592.108
2425.77
2640.32
1625.48
529.987
3422.21
2637.31
1685.99
539.907
1627.9
2422.96
1562.01
516.465
3575.19
2714.08
1730.62
556.11
1784.7
2516.5
1588.36
520.176
3315.96
2574.39
1625.51
486.559
1499.07
2353.01
1518.17
496.311
3278.54
2530.98
1587.45
468.781
1537.13
2306.1
1485.21
483.772
1115.2
724.475
434.506
227.725
70.5046
1092.73
718.639
432.959
227.25
70.3876
1114.34
722.152
432.876
226.886
70.2538
1091
714.942
430.568
226.056
70.0344
1125.82
720.491
430.951
225.838
69.9376
1091.93
710.471
427.669
224.617
69.6102
1066.75
700.457
422.833
222.42
68.9792
1038.68
686.298
415.767
219.192
68.0529
1113.32
713.107
427.048
224.013
69.4087
1170.64
718.285
426.628
223.421
69.2066
1146.81
721.424
429.971
225.184
69.7323
1198.1
724.503
429.148
224.509
69.5143
1085.27
703.291
422.54
221.999
68.8336
1155.02
709.794
422.567
221.603
68.6882
1063.39
690.565
416.038
219.012
67.975
1137.88
698.899
416.931
219.015
67.945
1161.32
733.212
436.379
228.224
70.6197
1237.22
741.199
437.705
228.545
70.6915
1163.81
731.877
435.266
227.632
70.441
1238.16
739.959
436.826
228.089
70.5549
1174.81
730.265
433.477
226.677
70.1543
1242.91
737.57
435.11
227.226
70.2986
1200.74
730.07
431.877
225.766
69.8775
1249.99
733.736
432.912
226.171
69.989
1227.88
728.66
430.71
225.177
69.7023
13609.2
18056.5
13652.4
18033.1
13743.1
17964.7
13428
17657.3
12433.4
16668.8
11295.5
12698.1
11423.7
13361.3
11299.4
12540.2
11474.5
12675.6
10686.1
1797.03
382.578
86.0897
15.3125
11506.9
3293.5
802.487
182.935
32.5326
10618
1763.66
374.068
84.0181
14.9188
11431.6
3245.84
790.136
179.593
31.7001
10433.6
1724.12
364.613
81.7938
14.5166
11252.4
3181.28
773.473
175.632
31.0025
10066.4
1641.44
345.719
77.5702
13.7779
10898.7
3067.04
745.42
169.355
29.904
9402.76
1499.04
315.542
71.082
12.662
10229.7
2882.68
703.179
160.318
28.3669
8301.77
1375.86
298.667
68.3296
12.2637
8484.66
2481.53
619.012
143.277
25.5875
8641.18
1407.56
301.914
68.647
12.281
9019.99
2634.65
651.956
149.772
26.6102
8161.51
1366.91
298.265
68.4211
12.2942
8286.16
2410.54
601.984
139.803
25.0412
8126
1356.34
295.919
67.9426
12.2013
8286.35
2395.21
596.988
139.026
24.8701
34969.8
50505
48645.8
32950.6
25471.4
30706.1
24552.9
30563.7
28880.8
46593.5
30734.8
47796.7
73.9956
85.2513
110.168
151.762
215.284
307.909
83.1012
95.1123
121.564
165.223
230.344
322.558
67.2779
64.0156
78.8718
76.5544
104.698
104.725
148.313
153.393
214.292
226.401
305.449
318.347
439.602
622.526
879.153
1242.02
1674.12
1987.09
448.499
614.388
825.076
1073.49
1318.4
1478.48
197.577
288.602
361.061
411.219
436.818
227.437
331.754
414.46
471.502
500.544
293.476
427.061
532.252
604.37
640.943
403.438
585.119
726.857
823.268
871.919
570.621
823.749
1018.76
1150.09
1215.99
812.572
1165.14
1432.09
1609.7
1698.36
221.754
323.592
404.424
460.237
488.675
253.544
369.364
460.864
523.783
555.756
323.483
469.917
584.697
663.102
702.777
438.582
634.645
786.718
889.724
941.595
609.419
877.311
1082.32
1219.81
1288.72
849.517
1214.49
1489.03
1671.15
1762.12
179.722
262.714
328.918
374.832
398.295
171.046
250.123
313.27
357.106
379.521
210.524
307.335
384.266
437.431
464.534
204.383
298.474
373.314
425.08
451.483
279.075
406.495
507.091
576.206
611.3
279.201
406.803
507.622
576.932
612.137
394.559
572.897
712.431
807.546
855.594
408.126
592.699
737.152
835.621
885.355
568.515
821.85
1017.63
1149.73
1216.03
600.66
868.308
1075.04
1214.38
1284.25
807.207
1159.78
1427.8
1606.31
1695.32
841.592
1209.69
1489.46
1675.52
1768.06
1152.22
1635.32
1992.26
2226.6
2343.52
1614.39
2256.13
2714.77
3013.18
3164.61
2241.94
3060.43
3619.67
3986.3
4184.3
3084.78
4064.22
4695.75
5132.69
5410.25
4015.52
5055.26
5686.37
6182.14
6590.47
4662.04
5701.59
6309.44
6843.46
7359.85
1173.76
1662.28
2021.75
2257.68
2375.72
1593.96
2228.95
2683.58
2979.84
3130.08
2115.6
2909.65
3459.8
3819.09
4008.12
2712
3654.48
4284.25
4703.64
4940.77
3278.81
4326.41
5004.04
5472.42
5764.3
3641.11
4743.07
5443.5
5943.15
6275.74
75.0691
88.6439
116.396
161.72
230.258
329.479
84.2675
98.7622
128.141
175.426
244.986
342.253
68.318
65.068
82.194
79.9527
110.936
111.239
158.616
164.509
230.319
243.848
330.053
346.54
468.293
655.958
912.345
1266.88
1686.58
1990.35
472.942
641.638
851.587
1094.82
1331.5
1482.77
200.47
292.89
366.507
417.498
443.534
236.58
345.316
431.7
491.396
521.831
310.284
452.046
564.082
641.163
680.351
430.371
625.296
778.222
882.809
935.792
611.257
884.701
1097.11
1241.3
1314.07
871.411
1254.11
1547.34
1744.68
1843.99
224.899
328.262
410.367
467.099
496.021
263.393
384.003
479.512
545.338
578.843
341.256
496.396
618.506
702.253
744.755
466.217
675.97
839.677
951.231
1007.65
649.214
937.14
1159.4
1309.71
1385.49
903.315
1296
1594.82
1795.26
1896.14
182.521
266.858
334.172
380.883
404.763
173.877
254.31
318.577
363.214
386.048
219.47
320.588
401.09
456.824
485.272
213.531
312.017
390.497
444.875
472.646
295.894
431.464
538.86
612.891
650.571
296.764
432.869
540.774
615.202
653.098
422.408
614.395
765.427
868.926
921.409
438.175
637.488
794.368
901.902
956.434
612.003
887.062
1101.44
1247.27
1320.91
648.071
939.57
1166.84
1321.41
1399.44
874.299
1261.17
1559.06
1759.98
1861.06
918.508
1326.02
1640.23
1852.16
1958.67
1231.17
1756.26
2150.86
2414.09
2546.86
1707.81
2402.41
2910.33
3247.76
3421.07
2337.53
3216.02
3834.29
4249.72
4476.19
3161.38
4198.34
4890.23
5380.14
5690.99
4059.75
5141.55
5818.51
6357.1
6795.42
4675.64
5730.69
6355.69
6906.37
7435.18
1241.03
1765.35
2156.95
2417.58
2549.18
1669.83
2347.15
2840.96
3168.11
3335.63
2190.79
3029.73
3623.05
4017.46
4226.68
2774.26
3757.48
4428.1
4881.96
5139.7
3318.58
4394.9
5102.26
5596.64
5904.79
3654.56
4766.88
5478.24
5987.64
6326.53
4750.61
3034.01
633.867
452.712
529.028
444.553
574.155
4274.58
4020.32
2499.22
3199.67
1390.48
1944.21
1120.44
1271.15
1030.14
3993.64
2071.23
1244.48
1084.89
1435.3
1220.82
911.377
851.026
791.565
676.636
973.314
863.535
4325.47
2519.51
2904.3
1764.97
1411.27
2075.05
934.296
693.704
1047.41
9455.98
9143.26
8914.46
9544.93
14899.8
6568.61
7225.93
7565.54
8161.71
9249.58
1656.08
2341.3
2847.23
3183.69
3355.34
1193.53
1709.4
2100.15
2361.39
2492.73
1395.17
1998.69
2455.06
2758.91
2910.89
1174.58
1687.54
2078.36
2339.93
2471.04
1509.09
2151.4
2632.48
2952.05
3112.59
9194.47
9807.46
9921.38
10582
15764.2
8839.73
9629.37
9920.75
10530.2
11956.2
5822.52
7068.98
7799.63
8436.15
9098.8
7471.15
8666.68
9110.42
9616.39
10121.3
3496.65
4687.47
5479.91
6003.52
6295.74
4715.35
6023.15
6826.38
7388.25
7756.72
2872.87
3952.74
4702.55
5189.18
5441.14
3234.5
4402.54
5194.6
5706.21
5974.51
2658.73
3690.75
4418.1
4888.51
5126.97
8547
9114.94
9261.75
9949.22
15071.9
4920.97
6134.03
6884.67
7513.57
8126.62
3154.1
4274.2
5037.71
5548.42
5836.22
2768.97
3789.69
4500.67
4977.95
5242.8
3567.42
4715.6
5479.2
6023.98
6387.72
3077.64
4143.14
4869.28
5373.15
5676.85
2338.49
3224.5
3851.71
4274.3
4505.05
2203.9
3076.41
3704.11
4120.07
4336.41
2067.31
2919.04
3542
3950.11
4154.76
1773.91
2519.08
3071.64
3436.3
3619.17
2513.72
3494.36
4191.04
4647.27
4882.79
2239.52
3132.09
3775.25
4199.18
4417.45
8879.89
8949.12
8867.79
9527.24
14763.4
5653.92
6536.63
7043.69
7655.46
8530.58
6688.48
7717.53
8143.98
8854.25
10552.1
4239.11
5357.58
6062.96
6641.29
7141.57
3496.96
4601.89
5333.62
5869.37
6235.08
4903.95
6075.25
6801
7443.16
8102.86
2400.48
3315.47
3963.83
4398.56
4633.69
1812.45
2561.83
3113.62
3478.84
3664.11
2674.62
3663.23
4354
4820.13
5079.65
6741.23
6441.6
5900.92
5072.56
3805
1518.67
20070.8
20381
22853.5
23672.8
19489.5
20520.6
21707.1
20860
16668.7
21284.4
17284.8
21784.4
19792.2
17768.1
28325.9
19168.5
19324.8
21429.3
21979
18295.5
19316.1
20626.2
20024
16534.2
25710.2
17050.7
25410.4
19940.1
21787.3
30371.8
18100.4
18117.6
19575.5
19852.3
17330.5
18804.5
19143.8
19089.3
18878.5
22477.7
19638.3
22394
21592.6
24006.3
27069.2
17042.1
17081
17794.2
17894.4
16655.8
18370.9
17549.7
17795.2
17468.6
19403.4
18190
18804.5
19467.5
21233.7
23010.3
15962.9
16038.1
16514.8
16522.4
16134.3
17985.1
16426.8
16860.4
16337.9
15705.7
17081.3
14966.9
17622.6
17459.9
18613.4
15441
15565.4
15637.7
15608.3
15575.4
17051.4
15680.2
16029.3
15429.2
13252.4
15950.6
12889.7
16176.8
14999.5
16576.8
22259.6
21309.9
23599.7
24905.3
20402.4
20240.9
21821.3
20677.9
19346.6
14103
19249.2
14158.7
17016.7
15320.1
18318.2
20813.2
20119.3
21623.8
22493
19538.9
19560.4
20423.3
19460.7
17666.6
13421.3
17605.2
13504.5
15341.3
13586
16660.5
18856.3
18434
19200.8
19639.3
18075.1
18108.9
18575.4
17966.1
16419.5
12827
16164.9
12573
14394.3
12153.9
15959.9
16860
16607.8
17194.3
17407.1
16354.1
16320.4
16944
16447.4
14988.7
12696
14841.8
12414.9
13364.9
11861.8
15658.3
15653.4
15478.2
15962.5
16077.8
15118.6
15083.2
15870.1
15527.4
14317.2
13202.7
14213.8
13057.3
13055.8
12037.6
15668
14779
14621
15191.2
15271.7
14350.3
14523.8
15083.8
14907.7
13929.3
13507.9
13890.4
13439.3
12883.6
12318.8
15988.6
12294.6
6979.19
20164.1
13284
22087.6
16365.4
34478.5
43007.2
45442.4
55865.7
29495.2
25666.5
18691.5
14902.2
9130.68
6084.63
20715.9
20934.9
17956.2
20960.5
27983.1
24688.8
32560.2
26054.6
8559.67
6083.66
4772.87
3576.87
10344
8402.86
6354.95
5204.07
19355.5
19866.9
19551.5
16131.8
14937.9
11912.1
11908
13597.9
19151
19140.4
40579.5
42048.1
28455.9
29423.3
16614.6
14013.3
17882.7
12708.9
8319.54
8608.15
6875.24
10133.6
3578.74
4461.49
9563.4
13695.4
5756.23
6865.93
10463.3
18412.4
7313.65
12295.4
2762.91
7260.64
2302.94
5397.47
18324.4
22745.5
19154.3
22798.3
22312
22438.3
22967.6
22304.1
16470.2
22459.1
16712.1
22083
18979.3
22730.6
19037.8
22729.5
23306.3
22113.7
23306.9
21954.3
15294.4
22609
14810.8
22725.5
19145.1
22954.4
24167.2
34419.3
20307.4
26773.7
23978.9
37719.7
18141.2
20085.8
24241.3
32932.5
17958.8
18749.3
24504.9
32627.1
6111.47
8179.88
15757.6
28265.6
7589.1
8753.4
20311.2
31986.6
9265.33
9402.1
25376.1
35002.6
25415.1
26656.1
22096.2
21907.6
33049.6
26664.9
25659.4
22459.8
19878.8
38201.4
24382.9
24494.1
22327
22974.4
43028.5
2280.85
2782.38
4989.36
12027.5
3269.96
3768.97
6890.01
13319.2
4769.87
4059.76
9173.23
14864.6
26008.9
25023.6
23835.6
22779.6
21076.2
18658.9
16233.9
14061.4
11869.2
17054
23874.4
22511.5
24491.4
23581.1
21764.5
19999.7
18495.1
16371.5
12554.4
16961.9
24528.2
27454.1
24543.9
28264.2
23337.9
23921.1
22882.6
24259.1
22746.4
23064.2
22534.5
22339.6
24390.9
28437.2
24323.1
28461.3
22271.1
24645.5
22129.5
24637.7
22837.7
23012.6
22861.6
23023.6
19469.7
18481
12663.7
14229.5
19370.4
18042.1
12505.2
14428.2
19714.9
18395.2
12924.2
14221.8
19797.4
18204.5
13322.8
14206.6
1792
1136.27
749.625
1005.34
634.191
580.902
2562.1
1401.07
1006.9
1956.6
1493.33
1228.4
2843.42
2154.93
2073.16
3387.26
2627.21
2287.08
22970.6
19769.1
17675.3
21465.7
19028.8
17268.1
15606.3
13832.1
12841.6
10937.7
8939.38
8062.39
5201.55
3579.52
2918.69
20993.2
18473.2
16568.4
21981.6
19018.7
16913.4
16615.8
13455
11710.4
11057
8271.57
7119.46
5503.61
3536.35
2721.01
28039.3
27186
30757.8
27352.8
31723.9
27372.9
38605.4
29047.4
21283.3
21442.7
21058.2
19468.5
24090.3
22402.9
23774.2
20104.4
23565.1
23213.3
21660.8
22967.7
28404.6
25746.8
28970.9
29515.2
31729.5
32932.5
23986.2
24984.7
21468.4
20890.3
25907.5
26658.1
16495.4
8924.7
15510.7
9873.15
16750.1
8995.6
15492.2
9805.26
16552.7
9034.58
15491.5
10218.4
15127.3
10691.9
15342.9
10596.5
21486.4
18119.9
21547.4
18208.6
23910.5
21395.3
24359.2
21315.6
20949
15022.9
21668
14731.7
22155.1
18190.7
22498.9
18006.8
25135.1
21224.5
25225.2
20987.7
20861.7
15119.3
20853.6
15035.9
13599.4
9064.27
11791.5
7701.08
12572.5
8110.47
11269.4
7196.77
13995.6
9631.9
12015.5
7938.03
14040.1
9963.56
11990.9
7993.24
2577.68
1342.12
4791.73
2688.79
2752.7
1643.59
5108.25
3189.1
3361.81
2444.26
5632.68
4087.89
12888.8
20234.9
9266.45
8883.49
6464.79
19652.7
13481.5
7825.61
7872.22
5335.24
20665.4
16061.4
12641.5
9794.24
6314.49
714.438
503.803
1634.1
1236.04
997.794
658.27
2209.17
1748.67
1688.23
1225.09
3086.15
2487.02
19674.1
18504.9
13086.9
12106.6
8370.13
8070.49
7022.41
6111.94
4543.73
3662.23
18623.7
16471.3
14191.2
12010.7
10887
9232.56
8236.57
7041.77
5525.6
5155.43
14726.4
11452.3
14919.4
11303.7
18016
14577.5
18108
14550.2
12272.3
9509.11
11835.5
9441.61
14989.6
11202.6
14915.1
11201.7
18109.5
14924.1
17965.8
14911.5
12538.3
9418.44
12522.3
9543.36
9470.43
7606.45
6475.73
6404.19
9078.88
7371.91
6179.14
6026.2
9891.89
7784.02
6647.63
6767.49
10116.4
7783.3
6899.16
6862.51
1310.41
1125.93
918.347
5633.59
2960.05
2383.73
1306.44
1258.01
1099.83
6227.24
3574.93
2986.58
1834.48
1998.89
2010.87
7021.13
4542.07
3975.96
16658.3
14847.8
13673.9
11034.1
10168.6
9671.99
7794.17
7312.34
7107
6429.4
5937.14
5645.47
8148.58
5683.9
5029.24
14353.7
12518
11361.4
10304.8
9037.04
8342.44
8253.45
7221.66
6677.6
7617.68
6428.51
5776.71
10019
6443.49
5632.86
4884.63
2919.99
1852.78
1263.04
5468.14
3156.59
1949.37
1297.57
4912.74
2922.05
1858.81
1271.16
5586.3
3225.01
1997.74
1325.55
4912.18
2902.57
1885.57
1289.92
5704.37
3271.01
2067.06
1360.58
6125.81
3452.31
2082.19
1370.54
6294.35
3576.24
2129.46
1404.1
5226.6
3088.23
1971.77
1320.2
4370.54
2753.65
1827.94
1261.82
4623.6
2817.21
1856.87
1252.7
4052.16
2606.33
1760.66
1219.25
5631.48
3292.25
2046.7
1360.49
4562.31
2860.74
1869.15
1293.29
5856.5
3429.99
2103.36
1397.81
4647.91
2937.18
1907.75
1320.27
3742.74
2531.24
1705.28
1204.15
2559.74
2075.34
1525.99
1131.24
3761.9
2524.83
1706.87
1204.25
2669.14
2105.74
1536.37
1138.31
3861.62
2532.93
1728.94
1220.11
2980.97
2197.97
1573.86
1165.02
3841.87
2488.75
1712.61
1248.85
3255.49
2266.78
1626.38
1171.16
3629.09
2434.6
1685.24
1202.41
1441.59
1715.32
1239.97
377.862
272.614
1520.32
1129.67
385.751
1651.66
1786.3
1269.22
397.695
513.426
1598.5
1154.97
394.256
2050.91
1912.37
1310.45
397.034
933.275
1729.96
1189.86
398.908
2552.35
2066.63
1379.26
430.429
1402.31
1880.56
1243.06
416.301
2910.12
2213.56
1465.71
495.748
1584.19
2002.54
1293.51
431.791
3130.92
2383.4
1503.11
476.737
1439.2
2149.97
1389.56
459.762
3043.45
2308.93
1476.13
475.849
1373.47
2082.46
1340.62
443.425
3170.75
2435.19
1516.32
447.943
1421.26
2205.51
1418.44
462.456
3235.98
2486.54
1551.49
455.836
1518.42
2260.04
1453.06
472.703
942.637
630.427
386.76
205.818
64.2129
934.789
629.408
387.095
206.115
64.3102
955.742
636.748
389.506
206.974
64.5333
952.745
637.463
390.728
207.683
64.7485
981.469
645.172
392.866
208.363
64.9172
975.215
646.298
394.729
209.425
65.2386
986.974
656.014
399.901
211.817
65.9255
1009.37
669.547
407.071
215.16
66.8905
1006.93
655.137
397.604
210.473
65.5154
1070.65
666.775
400.77
211.563
65.7988
1011.6
652.462
395.356
209.325
65.1773
1069.06
662.483
398.281
210.394
65.461
1015.21
663.617
402.214
212.622
66.1343
1090.34
674.976
404.935
213.49
66.3536
1039.13
676.816
408.949
215.732
67.0297
1115.63
686.761
410.749
216.162
67.1232
965.64
633.395
386.705
205.571
64.1249
1010.75
636.894
386.784
205.43
64.0721
978.298
638.439
388.782
206.426
64.3596
1021.18
640.766
388.39
206.092
64.2538
1002.96
646.405
391.878
207.698
64.7099
1042.52
647.441
391.095
207.22
64.5654
1040.52
655.278
394.969
208.934
65.0485
1068.01
654.563
394.131
208.515
64.9261
1075.43
659.812
396.692
209.652
65.2471
12009.2
18683.7
12508.5
18920.7
13110.5
19071.2
13387.7
19010.5
12579
17949.9
11303.6
12797.4
11433.3
13633.4
11304.4
12578.2
11476.4
12685.4
10780.8
1843.99
395.661
89.255
15.8829
12016.6
3430.37
836.496
190.803
33.9318
10810.7
1829.41
390.641
87.8632
15.599
12031
3398.24
826.619
187.802
33.131
10757.1
1797.45
381.205
85.4786
15.1559
11943
3344.71
810.48
183.671
32.3782
10468.8
1714.16
360.87
80.8257
14.3348
11609.3
3226.86
780.213
176.728
31.1483
9734.68
1554.25
326.918
73.5403