/*--------------------------------*- C++ -*----------------------------------*\
| =========                 |                                                 |
| \\      /  F ield         | OpenFOAM: The Open Source CFD Toolbox           |
|  \\    /   O peration     | Version:  2306                                  |
|   \\  /    A nd           | Website:  www.openfoam.com                      |
|    \\/     M anipulation  |                                                 |
\*---------------------------------------------------------------------------*/
FoamFile
{
    version     2.0;
    format      ascii;
    arch        "LSB;label=32;scalar=64";
    class       volScalarField;
    location    "1.3";
    object      gradTz;
}
// * * * * * * * * * * * * * * * * * * * * * * * * * * * * * * * * * * * * * //

dimensions      [0 -1 0 1 0 0 0];

internalField   nonuniform List<scalar> 
5712
(
7933.84
26019.3
6321
26664.3
4716.71
27480.3
7381.76
42048.3
9058.87
57728.3
9029.65
42232.6
8747.66
35157.9
9096.06
31474.2
5502.03
3464.71
14731.9
8813.22
5352.44
2902.78
15972.2
7937.15
6090.77
4502.21
19487.2
13929.8
4610.53
3406.78
19155.5
14122.7
10838.2
4616.97
9419.64
4240
4402.58
10207
36784.8
9903.2
13205.1
4358.59
47058.9
12673.6
12225.6
4083.26
26472.4
8172
13607.6
4682.6
23195.9
7340.35
7238.37
3589.49
10049
3964.18
7848.49
4229
9770.82
3804.33
9785.24
5610.62
8423.59
3718.22
12175
4420.49
4159.66
1465.88
13910.5
9804.06
8471.47
6265.54
15012.4
12396.7
8134
7033.39
8229.62
5702
11899.9
8184.26
5484.17
4057.89
2662.76
2193.43
5149.93
4441.86
2520.11
2451.37
5388.51
3603.43
2660.27
1722.24
7498.15
4121.7
5755.47
6823.04
10490.3
7492.29
8520.35
11826.3
4864.29
2335.93
3336.18
3857.57
2342.04
991.515
1389.19
1408.44
9917.85
17691.5
6657.74
19663.9
11502
17256.1
8130.81
20458.6
12904.7
15514.4
10344.1
19757.8
14110.1
16088.2
11276.2
11036.1
11909.9
16159.6
15702
16115.1
16893.6
24022.9
13159.3
10731.7
9722.43
10975.8
16756
20638
18578.3
23836.7
23149
18903.3
17641.1
23454.5
22594.1
16322.8
16052.3
21880.8
21678.4
11931.1
9537.86
11833.7
10574.4
13272.4
12278
14593.6
14357.2
19904.6
20761.1
11086.9
9880.61
11156
11252.1
11894.9
13180
13560
15778.1
17577.7
20948
9319.07
7352.93
6285.9
7873.73
12068
14436.1
8259.62
12895
5525.84
7110.9
8374.07
6971.64
1591.55
5163.89
711.936
1785.47
4157.75
8553.73
1427.45
2877.98
910.983
4513.27
400.114
1531.53
5534.94
5593.9
6316.28
4062.04
8868.28
7219.33
10431
7406.41
1441.84
3052.63
3145.22
1875.93
1662.2
2131.89
2336.91
1773.71
14970.7
9175.54
2928.6
16864.9
9782.82
3220.66
14379.8
9082.69
3101.99
16549.9
9784.6
3219.62
13218.5
8359.32
2768.63
16076.3
9795.71
3286.07
6529.88
3748.64
1086.02
8749.76
5829.65
2011.98
10709.8
7384.88
2549.16
12560.8
8218.87
2745.05
15862.6
10013.2
3494.81
7574.65
4480.31
1496.14
8490.82
6169.13
2346.7
10315.7
7618.17
2825.63
12799.3
9029.02
3258.56
16082.1
10191.9
3647.18
286.396
2045.13
2868.73
4162.42
2318.82
2633.75
5784.34
5462.55
599.85
993.992
640.029
1034.3
466.977
1372.6
845.275
1801.74
3141.27
1543.62
4019.56
2342.15
2100.75
3641.6
3391.34
679.216
6366.83
1357.35
-2254.68
338.323
1599.74
1032.05
986.656
749.79
9438.78
4092.48
2560.16
1513.54
9591.02
4238.52
3236.87
1916.75
9476.47
4538.95
4635.27
3085.07
3258.28
2230.85
1360.42
1301.28
12905.3
11390.8
6001.77
6190.8
14309.8
13362.8
7001.76
7017.57
5143.8
5257.62
10770.6
8885.49
3469.17
3648.74
1777.82
2109.07
4214.63
4185.4
2158.77
2362.28
2886.89
3154.99
1454.4
1934.26
4420.47
2891.5
4352.5
2861.11
7002.49
3829.23
6561.11
3993.2
2543.71
2041.61
2698.44
1806.09
1263.54
1186.14
1652.92
1015.65
10967.7
7145.7
5217.99
4992.69
10946.1
7408.84
5233.39
4974.46
11471.7
7903.24
5308.92
4877.93
14169
15784.4
12527.5
8073.53
4236.32
14972.5
13341.9
11933.1
9455.51
5588.48
13988.3
12230
9447.9
6965.33
3996.57
5617.11
4666.7
4990.36
5345.32
5948.3
4720.05
5109.5
5355.68
6473.13
4961.57
5275.27
5420.62
11291.1
8050.71
10070.7
6964.96
7567.81
5970.27
6712
5517.02
4974.49
5484.36
9406.26
8209.12
7979.75
6906.3
6498.27
5768.52
5385.59
5150.43
3874.77
5201.36
7117.55
4844.21
4691.57
2885.9
9632.63
7446.74
6626.56
5408.83
3662.11
2209.08
5350.16
3897.9
4634.73
2215.49
1590.72
901.262
5067.35
3705.98
1657.48
1383.99
3869.18
1707.25
1433.18
731.167
2829.41
2500.53
2252.81
3192.93
3971.53
3590.01
2866.93
4050.38
2901.19
1783.92
1656.16
2189.68
792.912
356.098
49.9747
331.408
3139.45
1317.94
389.967
3471.99
922.921
247.703
3273.26
1462.32
450.146
3523.09
978.922
275.89
3245.94
1540.47
408.402
3559.66
1028.23
248.103
5114.52
2723.42
680.967
4265
2134.2
545.253
3840.83
1878.81
525.731
3508.71
1658.62
378.076
3631.48
1040.46
171.595
6277.48
3286.45
945.582
5264.4
2661.02
757.976
4463.71
2224.62
656.814
3909.19
1711.79
439.893
3957.11
993.685
249.303
1515.89
524.119
121.354
-87.9236
632.35
228.339
65.9215
-12.6655
1597.37
567.885
157.604
-44.1622
795.223
308.186
145.046
64.0999
1699.89
621.727
224.402
29.2
1325.82
565.923
190.684
34.5021
962.69
487.267
120.493
-33.5588
832.704
493.095
238.636
119.755
1365.67
562.733
150.896
-103.621
1143.34
463.712
189.039
-90.8712
1638.38
603.902
197.196
-49.4958
1456.11
536.527
210.402
-145.092
1056.31
494.573
166.453
-39.1002
849.563
388.587
187.823
1.68093
729.609
403.138
205.736
108.723
551.402
304.99
181.357
92.4322
1900.63
632.624
135.495
-183.35
1827.87
578.014
191.909
-243.694
1895.1
637.96
146.384
-175.813
1772.71
561.222
195.121
-237.882
1853.47
634.187
201.89
-110.818
1660.83
529.212
225.303
-185.337
1620.04
578.653
254.292
23.5658
1819.95
587.226
301.631
-212.476
1424.1
507.996
244.495
-40.6999
1401.8
402.497
163.768
-153.677
547.351
145.335
44.1518
-26.2052
1462.94
430.265
175.787
-145.548
576.73
157.506
53.2602
-17.699
1512.23
461.101
205.403
-123.311
598.516
171.464
64.053
-8.08463
1373.7
432.72
228.254
-90.882
589.563
176.76
83.8412
8.94242
1261.61
424.716
233.892
-43.0204
536.078
184.309
107.998
30.6368
849.599
319.417
143.51
-16.2763
492.048
221.912
118.74
55.8314
1000.32
339.477
167.363
-35.7112
508.702
202.878
115.064
44.453
663.551
290.96
140.024
17.2544
421.165
218.414
117.861
66.3655
441.838
244.563
146.019
78.0817
327.379
201.69
122.238
81.5915
-7.37523
2.79439
2.52998
1.50698
0.989481
-0.782292
1.92891
1.41531
0.815513
0.531119
5.13467
8.45995
5.24692
2.90283
1.87046
12.8185
8.38613
4.58207
2.45578
1.56885
17.732
14.9821
8.51035
4.60913
2.95394
48.0942
27.9368
14.6587
7.77189
4.95451
55.0793
32.0943
16.9378
9.02773
5.77482
80.12
42.2006
21.6328
11.4523
7.32373
28.4144
21.5743
11.955
6.44884
4.13824
30.9416
20.3811
10.9889
5.89529
3.77866
20.2187
17.3214
9.68031
5.21612
3.33976
38.6582
21.7599
11.1579
5.88011
3.74016
36.3186
25.3159
13.9101
7.50826
4.82446
41.5383
24.1746
12.7599
6.81597
4.36916
63.4079
33.8527
17.4152
9.23391
5.90992
53.094
27.9277
14.3439
7.60929
4.87332
-14.6586
1.26769
1.85066
1.15069
0.762123
-8.18058
0.328028
0.697141
0.438761
0.290765
-6.4406
4.85999
3.53147
2.00409
1.29784
-5.19517
1.63299
1.30096
0.743177
0.481037
3.5193
8.82119
5.32709
2.91262
1.8682
6.33095
5.99164
3.26341
1.72821
1.09702
26.0635
17.416
9.17261
4.8329
3.06311
18.0207
11.2696
5.77512
3.01651
1.90547
48.7906
23.5527
11.5726
5.98616
3.77832
2158.95
4908.85
2230.55
4888.53
2494.49
4881.87
2952.85
5064.59
3036.37
5166.44
1285.95
1861.04
2038.82
3104.17
709.13
937.867
251.456
313.809
11021.8
2647.32
610.742
137.44
34.4603
3022.05
816.988
218.293
49.9768
10.9784
10837.6
2583.88
595.88
133.044
33.6171
3080.47
910.108
225.465
52.7652
13.2186
10249.9
2429.75
558.813
124.713
31.573
2989.95
878.403
216.952
50.5136
12.7015
9265.56
2180.06
500.486
111.718
28.3195
2890.13
831.079
202.697
46.7955
11.7101
7640.62
1790.9
411.836
92.1497
23.4128
2702.65
756.928
182.773
41.9632
10.4784
3518.83
863.585
202.368
45.6986
11.6543
1312.65
373.463
89.6092
20.2454
5.04848
5307.17
1283.71
298.264
66.9685
17.0344
1932.57
542.585
131.124
30.0952
7.56726
2048.81
506.811
119.373
27.104
6.9306
737.603
217.915
52.0957
11.7755
2.96418
705.27
173.622
41.0274
9.3543
2.39501
291.039
79.2135
17.7626
4.9376
0.994481
-270.175
249.818
4774.28
-1083.3
782.942
838.97
2445.42
3139.02
1987.08
3733.98
3186.03
4915.56
3884.89
4817.49
2004.26
2694.69
2114.79
2510.06
1097.72
1141.42
2290.01
1597.99
660.782
-202.225
-472.545
-558.948
-13.3799
13867.6
3986.29
4835.58
3390.89
230.873
352.586
3300.96
-862.675
-326.232
-587.563
-339.701
7567.14
4153.68
1792.86
1335.88
3785.69
2256
802.397
1507.32
-1020.95
-453.635
948.522
812.938
8925.59
4281.96
5606.17
2953.33
4062.78
4884.31
1720.21
-484.017
1210.56
1555.22
1210.05
989.943
835.465
587.199
1230.89
960.015
724.007
490.619
203.273
575.473
470.801
349.382
216.748
74.0619
-180.466
-150.318
-111.844
-68.4929
-23.0169
-421.225
-350.676
-261.17
-160.251
-53.9024
-498.972
-416.166
-310.581
-190.921
-64.289
-10.0401
-4.85135
0.685024
3.53489
2.0048
9671.78
7883.14
6250.37
5192.89
4313.53
3271.11
2628
2208.53
1665.56
806.004
3630.27
2778.25
2163.63
1544.25
730.315
2516.17
1882.88
1482.42
1042.39
410.696
256.196
197.772
218.825
177.862
76.8158
365.825
355.153
308.865
218.978
82.8365
2721.73
2174.73
1621.85
1062.99
412.312
-469.641
-184.317
-38.7331
22.9289
18.6077
-245.464
-158.036
-79.2751
-25.7438
-2.4596
-378.15
-202.238
-77.3583
-11.5437
4.14674
-311.725
-260.899
-191.02
-113.651
-36.9605
5388.55
4580.46
3697.88
3114.01
2594.65
3147.31
2405.51
1867.76
1308.77
584.715
1577.21
1330.33
1039.69
690.479
256.632
1148.66
943.903
718.144
465.017
168.465
3112.4
2451.19
1802.35
1148.88
424.519
1958.57
1613.68
1221
780.198
274.919
690.034
563.618
423.199
268.726
94.711
1311.11
1074.55
801.767
501.591
173.057
-880.514
-705.45
-505.649
-300.689
-99.1559
-399.073
-324.791
-234.114
-138.445
-45.2033
825.309
681.697
517.5
331.751
117.641
711.329
590.238
448.776
286.792
100.79
5630.27
3936.12
3167.31
2658.61
2091.84
3206.64
2422.15
1793.5
1213
516.069
4031.68
3171.77
2423.56
1748.73
793.181
2319.85
1834.22
1370.98
914.559
375.454
3405.05
2723.18
2018.84
1283.2
461.596
3663.21
2665.13
2029.31
1404.29
555.125
1483.69
1207.96
898.776
563.329
195.474
-429.962
-354.7
-260.03
-156.494
-51.7948
1044.26
858.6
652.177
420.292
150.032
-31224.8
-50679.6
-25951.6
-40972
-27560
-56981.5
-32926.2
-72418.2
-19885.2
-13717.8
-22139.1
-13947.1
-18235.7
-11809.9
-22353.8
-11945.8
-26076.4
-19847.7
-37652.2
-27356.8
-22436.2
-18069.6
-31400.5
-23782.2
-17847.6
-18417.7
-14728.5
-14322
-17509.9
-16296.2
-42565.9
-11761.7
-16415.7
-6199.7
-51725.8
-14419.8
-14664.4
-5581.79
-31889.9
-10045
-16811.4
-6485.61
-28512.2
-8834.62
-13699.4
-5543.52
-17264.1
-6282.54
-13036.5
-5767.18
-14986.7
-5455.89
-13485.5
-6608.79
-11978.7
-4790.51
-15177
-5388.65
-5313.19
-1874.34
-11482.4
-7858.11
-9905.25
-6193.93
-10019.7
-8175.74
-8642.23
-6240.87
-10138.1
-5960.23
-11935.6
-7708.02
-6809.63
-4176.26
-3685.95
-2338.76
-5884.5
-4123.06
-3121.49
-2274.72
-6936.1
-3901.79
-3820.97
-1997.77
-8992.33
-4593.21
-5979.1
-6821.1
-11481
-7755.26
-8467.06
-11573.3
-6071.71
-2736.59
-3583.86
-3919.61
-3252.45
-1314.2
-1617.39
-1483.3
-13664.9
-16818.5
-7761.29
-19137.1
-14208.1
-16045.7
-8921.13
-19550.9
-14347.4
-14569.7
-10626.9
-18562.4
-9694.87
-7777.15
-10770.8
-11999.8
-11992.1
-10540.2
-12370.9
-14541.4
-15826.3
-22449
-7394.7
-7813.35
-8593.56
-10370
-15931.4
-16085.3
-11260.3
-20483.6
-15835
-14915.3
-11076.7
-20183.3
-15783.5
-13195.4
-10388.6
-18844
-15650.7
-8605.51
-6859.58
-9165.39
-7404.57
-10343.3
-8495.53
-11470.3
-9857.02
-17144.7
-15753.8
-8023.92
-7017.95
-8365.06
-7530.68
-9376.41
-9058.3
-11317.1
-11491.9
-15691.5
-16428.3
-7475.95
-5971.92
-5506.48
-7006.58
-9031.23
-12102
-6840.09
-11200.9
-5164.13
-6613.47
-7366.86
-6041.82
-1232.74
-4649.46
-464.302
-1449.5
-3412.51
-7671.76
-907.482
-2257.58
-777.43
-4234.21
-324.904
-1357.11
-5338.03
-5260.87
-6131.28
-3780.05
-8253.23
-6470.74
-9923.73
-6634.62
-1380.76
-2884.1
-3058.62
-1735.65
-1641.47
-2032.8
-2287.91
-1687.22
-6865.1
-2361.21
-9309.21
-3170.19
-7021.33
-2469.79
-9532.73
-3414.71
-6979.84
-2435.34
-10074.2
-3864.11
-4098.58
-1190.92
-5226.68
-1982.4
-6022.92
-2319.11
-7319.93
-2752.65
-10662.3
-4221.28
-5113.69
-1607.49
-5011.58
-2392.45
-6141.65
-2833.41
-8189.95
-3517.09
-11148.4
-4203.2
-6894.19
-6423.91
-5387.11
-5216.25
-11570
-8869.27
-9519.46
-7879.89
-4506.39
-3718.67
-1871.84
-1295.24
-4305.45
-3971.54
-1792.19
-1783.95
-3478.9
-5058
-4016.85
-5440.44
-4047.14
-2904.49
-3839.16
-950.144
-7708.8
-2280.33
2241.33
-79.4934
-1365.1
-731.97
-198.804
157.972
-2384.02
-1507.87
-916.266
-490.772
-2594.02
-1620.71
-1435.33
-623.481
-2962.08
-1971.93
-2080.53
-982.515
-1583.99
-381.206
183.479
672.358
-5591.57
-5930.44
-4434.74
-4084.84
-7679.79
-7661.66
-6445.72
-5411.64
-2876.8
-3065
-4089.9
-4570.64
-2817.44
-2414.09
-1338.34
-1192.95
-4240.63
-3347.8
-2245
-1788.75
-1659.62
-1721.83
-525.403
-800.311
-1828.42
-1138.17
-2433.03
-1560.64
-2648.41
-1858.14
-3627.83
-2466.95
-837.048
-477.055
-1294.23
-666.572
130.889
305.408
-467.795
44.3775
-3303.63
-3924.33
-2519.34
-3508.39
-3309.91
-3996.15
-2579.85
-3504.03
-3581.49
-3819.4
-2743.96
-3348.76
-3324.22
-5482.15
-2684.5
-2103.71
-1897.86
-8038.32
-5575.25
-4770.12
-4452.93
-3902.6
-6483.8
-5250.16
-4179.32
-3556.32
-2409.38
-4406.22
-4204.32
-5175.24
-7867.86
-4277.1
-3865.44
-4993.65
-7534.82
-4104.26
-3766.32
-4645.69
-7006.92
-7637.68
-5835.43
-6583.79
-4932.19
-5375.72
-4154.04
-4980.14
-4357.94
-4365.21
-6480.01
-6185.28
-5774.81
-4982.14
-4858.75
-4124.92
-4176.13
-3797.56
-4286.26
-2956.61
-5551.12
-4106.27
-2928.88
-2908.08
-1250.02
-6157.87
-5330.64
-4811.34
-3655.43
-2098.69
-806.34
-3066.38
-2344.81
-3423.1
-1185.47
-648.525
-64.7006
-3982.86
-2682.21
-880.407
-581.416
-2694.6
-783.771
-440.602
49.3645
-1651.61
-1542.44
-1537.46
-2782.19
-2478.24
-2589.14
-2135.86
-3817.24
-1895.57
-1073.24
-911.671
-1743.78
140.08
302.722
713.811
172.823
-2960.25
-869.253
-5211.54
-474.881
-2823.51
-957.15
-5094.37
-498
-2294.5
-622.885
-4641.26
-357.725
-3262.62
-790.405
-2808.11
-694.578
-2745.07
-841.169
-2543.49
-495.657
-4370.62
-511.407
-4341.43
-934.482
-3688.42
-644.117
-3375.24
-667.322
-3340.8
-488.875
-4595.07
-553.546
-652.426
-173.06
54.5566
201.136
-230.92
-56.2089
17.0426
58.8635
-657.846
-157.942
55.2187
179.741
-190.947
-18.5486
-1.50238
13.2571
-689.513
-142
35.4255
135.785
-137.155
79.7685
180.62
192.681
290.122
251.015
316.875
294.814
649.385
420.181
298.708
191.805
-371.537
-2.87118
188.966
327.478
-295.522
46.6488
126.144
311.36
-732.674
-132.484
79.6478
241.651
-568.165
-37.617
93.5726
383.273
-13.4821
134.7
209.755
269.933
-38.3865
125.447
136.705
216.165
354.026
274.587
209.04
146.324
243.797
212.296
151.935
131.147
-987.208
-260.172
60.475
334.489
-1179.51
-283.153
-49.6274
405.989
-955.386
-237.253
70.0889
341.667
-1139.06
-265.985
-48.4908
403.063
-901.557
-201.434
26.9486
278.476
-1045.55
-233.311
-76.0322
355.721
-622.804
-96.5108
11.1846
170.342
-1094.55
-217.807
-102.074
436.146
-578.121
-53.2004
32.1619
278.593
-1060.92
-208.729
-70.6909
273.631
-454.758
-78.376
-2.81403
65.1977
-1000.11
-187.614
-60.2539
275.394
-435.766
-71.6149
-2.56354
62.5513
-874.201
-145.056
-61.4085
264.473
-377.44
-53.638
4.16282
65.0433
-731.75
-106.974
-77.91
231.659
-315.55
-35.3017
-1.49612
59.409
-557.86
-48.419
-44.9723
194.59
-176.736
7.02846
1.25405
55.6729
-283.852
39.2256
85.8354
196.963
29.6338
102.465
79.9345
90.5289
-466.51
-24.4768
23.2714
195.616
-46.0792
60.5465
40.5066
73.0945
-54.1514
112.148
121.632
179.064
113.628
139.489
109.4
99.0226
187.031
181.104
131.131
125.439
211.01
173.138
118.196
91.8554
41.7262
10.5582
3.52043
1.56099
0.946392
17.2373
4.96835
1.7954
0.826652
0.507783
46.8122
14.5511
5.80461
2.81986
1.76503
25.5031
10.1043
4.56551
2.32689
1.47861
56.8673
20.0727
8.74533
4.40573
2.79011
65.2664
29.0716
14.044
7.33263
4.69175
73.9212
34.1472
16.6981
8.73449
5.58514
81.5873
41.8638
21.2839
11.2614
7.21579
69.0217
26.3468
12.0493
6.17008
3.91968
58.1935
23.1855
10.8087
5.56358
3.53983
62.2599
21.8054
9.70556
4.93762
3.13568
49.7821
21.0515
10.206
5.33588
3.41828
74.0717
30.4322
14.2612
7.35022
4.6762
58.4178
26.1188
12.645
6.58517
4.20044
68.1459
34.1809
17.2658
9.11728
5.8382
56.5767
28.2768
14.2485
7.51477
4.80914
46.6605
9.62184
2.89232
1.22696
0.733163
21.9784
3.95579
1.13077
0.473484
0.282282
48.9282
11.8938
4.25471
1.98851
1.23099
22.7632
4.76134
1.61947
0.747939
0.46222
49.2015
14.03
5.68624
2.80532
1.76808
23.8398
7.29886
3.19255
1.63134
1.04048
52.6166
19.0514
8.80737
4.56872
2.92863
30.5636
11.1854
5.2988
2.77289
1.78346
41.6535
20.2548
10.2754
5.47628
3.53397
-2110.94
-4058.63
-2195.49
-4083.91
-2432.02
-4143.87
-2708.25
-4284.53
-2645.37
-4321.9
-1122.19
-1654.17
-1777.33
-2689.8
-597.231
-820.627
-166.653
-235.599
-10581.9
-2534.55
-584.147
-131.466
-32.997
-2861.55
-780.12
-208.698
-47.7918
-10.5091
-10380.6
-2470.9
-569.729
-127.287
-32.2068
-2919.64
-868.848
-215.427
-50.4367
-12.6477
-9779.81
-2320.17
-534.278
-119.415
-30.2882
-2827.66
-836.666
-206.979
-48.2496
-12.1505
-8822.32
-2082.4
-479.26
-107.21
-27.2377
-2714.44
-788.364
-192.969
-44.6591
-11.2006
-7303.57
-1718.17
-396.138
-88.8263
-22.618
-2520.9
-716.077
-173.883
-40.0661
-10.0332
-3434.01
-841.963
-197.225
-44.5463
-11.3685
-1225.39
-351.562
-84.6586
-19.1834
-4.79696
-5128.64
-1241.57
-288.787
-64.9216
-16.5405
-1798.64
-512.072
-124.495
-28.6911
-7.2384
-2008.56
-496.081
-116.68
-26.4747
-6.76879
-683.682
-202.963
-48.4623
-10.9591
-2.76273
-682.269
-167.358
-39.3916
-8.95773
-2.28976
-254.153
-68.2118
-14.9009
-4.25934
-0.821437
-363.15
-1634
-6397.97
362.578
-7228.19
-3193.82
-7029.26
-3297.28
-12855.8
-6871.08
-14359.2
-7589.73
-97.135
-334.065
-519.577
-612.793
-536.067
-132.749
-160.501
-537.952
-818.48
-920.563
-749.789
-212.56
-79.3107
-80.9999
-259.908
-258.436
-368.069
-366.378
-347.729
-342.745
-295.403
-314.181
-182.604
-213.976
847.584
2041.31
3323.18
2363.81
2131.38
960.562
730.339
2008.86
3293.04
3856.76
3215.21
1403.51
-87.4133
-73.6975
-55.6877
-34.6191
-11.739
-300.961
-254.093
-192.29
-119.692
-40.6156
-467.965
-394.971
-298.818
-185.963
-63.0976
-551.683
-465.388
-351.908
-218.914
-74.2615
-482.794
-407.403
-308.098
-191.644
-65.0025
-122.751
-106.325
-82.0114
-51.5246
-17.52
-144.284
-121.492
-91.6897
-56.947
-19.3007
-484.088
-408.153
-308.475
-191.825
-65.0603
-736.044
-620.135
-468.381
-291.133
-98.7223
-826.866
-695.736
-524.853
-325.97
-110.495
-672.679
-565.273
-425.952
-264.353
-89.5814
-192.288
-162.968
-123.628
-77.0019
-26.1211
-71.444
-60.3066
-45.6254
-28.3914
-9.63234
-73.0113
-61.6772
-46.7
-29.079
-9.86915
-234.318
-197.994
-149.962
-93.4047
-31.7063
-233.041
-196.966
-149.221
-92.9624
-31.5596
-331.766
-280.271
-212.228
-132.163
-44.8584
-330.184
-278.876
-211.126
-131.454
-44.6136
-313.529
-264.944
-200.664
-124.972
-42.4173
-308.67
-260.479
-197.02
-122.58
-41.5848
-266.635
-225.519
-170.869
-106.398
-36.1015
-282.543
-237.997
-179.659
-111.591
-37.82
-166.245
-141.702
-107.852
-67.2058
-22.7765
-192.567
-162.229
-122.36
-75.8851
-25.685
746.321
615.503
457.396
282.156
95.6082
1787.34
1467.91
1089.41
673.333
229.081
2869.67
2334.53
1728.59
1074.85
370.405
2024.66
1641.36
1217.91
761.056
263.278
1856.58
1509.25
1115.24
687.306
223.789
864.21
717.665
538.632
333.782
106.399
644.008
531.782
395.413
243.866
82.5819
1765.32
1453.93
1080.19
666.932
226.341
2871.94
2351.32
1742.67
1077.79
367.382
3336.89
2715.97
2009.18
1245.55
426.722
2779.69
2260.05
1671.62
1036.63
354.057
1225.44
1006.29
751.109
468.642
160.123
157.26
397.303
588.103
687.901
617.869
230.538
248.603
629.181
912.334
1010.37
824.689
268.299
124.743
118.652
307.279
299.042
417.233
409.958
395.385
382.59
349.894
324.437
290.686
253.619
-725.673
-1858.78
-3012.28
-1960.31
-1668.79
-471.359
-680.742
-1933.35
-3130.03
-3568.57
-2806.41
-919.525
141.978
120.183
91.204
56.8996
19.3326
358.381
303.045
229.717
143.185
48.6251
530.25
448.137
339.521
211.541
71.8233
620.045
523.842
396.74
247.126
83.8939
557.378
471.315
357.224
222.615
75.5867
211.867
182.638
140.625
88.4488
30.1327
224.281
189.693
143.835
89.6793
30.4603
566.986
478.893
362.615
225.837
76.6615
821.444
693.132
524.346
326.343
110.742
908.727
765.861
578.74
359.937
122.102
741.076
623.992
471.175
292.91
99.3508
243.117
206.531
157.118
98.1164
33.3371
112.658
95.4033
72.4272
45.1984
15.3591
107.163
90.7543
68.9004
42.9982
14.6116
277.316
234.635
177.964
110.975
37.6953
269.9
228.377
173.228
108.026
36.6945
376.435
318.383
241.392
150.483
51.1064
369.798
312.694
237.02
147.727
50.1653
356.881
301.989
229.056
142.829
48.5121
344.964
291.541
220.865
137.599
46.7146
316.395
268.237
203.767
127.17
43.2062
292.461
247.08
187.096
116.508
39.5432
264.8
226.161
172.779
108.14
36.7659
229.13
193.988
147.107
91.6533
31.105
-635.607
-521.104
-385.242
-236.905
-80.1983
-1621.89
-1327.14
-982.092
-606.25
-206.312
-2585.71
-2090.54
-1540.81
-956.715
-330.269
-1644.1
-1303.19
-948.483
-585.878
-201.939
-1413.64
-1111.17
-793.911
-474.848
-147.601
-393.43
-292.234
-193.229
-104.098
-23.943
-599.19
-493.795
-366.561
-225.873
-76.4756
-1697.36
-1396.61
-1036.9
-640.094
-217.278
-2723.44
-2224.16
-1645.1
-1016.47
-346.508
-3070.33
-2483.73
-1827.66
-1129.52
-386.703
-2397.41
-1923.29
-1405.27
-864.309
-293.965
-770.635
-603.558
-430.846
-260.383
-87.2662
-1643.09
-1041.33
-401.984
419.449
703.883
887.909
335.214
-11530.6
-2121.27
-3494.73
-1639.19
78.2245
-3911.22
628.608
2161.88
954.199
-6315.03
-3007.51
-780.982
-755.919
-3407.38
-1484.9
-424.853
-1116.94
1733.95
981.233
-628.697
-350.717
-8093.24
-3719.25
-4602.04
-2268.13
-3532.39
-3725.8
-1247
976.785
-617.755
-855.068
-552.608
-426.283
-434.77
-424.264
-674.52
-444.112
-293.99
-195.666
-92.4139
-339.287
-268.23
-193.622
-118.606
-40.5588
379.691
322.179
244.818
152.763
51.9032
633.08
533.128
402.117
249.469
84.463
798.494
672.447
507.346
314.901
106.658
306.706
262.137
199.3
123.583
41.6218
-7914.96
-6591.27
-5431.96
-4941.18
-4680.5
-1371.18
-869.526
-821.681
-805.355
-519.656
-2431.02
-1730.62
-1359.05
-1055.46
-586.253
-1048.49
-662.603
-546.03
-438.777
-184.146
86.0731
76.7951
50.3284
19.0837
0.29593
-3193.46
-2532.87
-1871.84
-1216.79
-469.163
571.874
479.798
354.342
212.154
68.6097
1859.62
1499.51
1093.31
665.571
223.898
852.941
710.764
529.252
324.324
108.669
-4227.89
-3636.25
-3021.86
-2776.44
-2636.66
-2068.16
-1450.11
-1121.76
-843.143
-436.704
-618.73
-482.066
-371.977
-264.524
-111.59
-609.592
-473.504
-351.736
-232.888
-89.6085
-2792.42
-2197.11
-1623.09
-1047.25
-394.965
-1234.71
-975.843
-719.501
-459.339
-164.411
-341.041
-259.933
-186.522
-118.156
-43.1157
-953.149
-766.246
-564.144
-351.889
-122.067
1538.37
1276.16
949.65
583.519
196.443
883.259
742.773
557.821
343.81
115.648
-520.908
-410.522
-302.752
-193.972
-70.3923
-282.857
-217.036
-158.097
-102.103
-37.5715
-4850.74
-3238.65
-2611.98
-2317.74
-2024.68
-2670.57
-1939.64
-1404.5
-957.869
-426.503
-3033.46
-2283.65
-1706.34
-1282.94
-616.274
-1671.09
-1253.88
-907.435
-614.166
-272.752
-2916.24
-2298.93
-1690.33
-1076.37
-391.69
-2591.99
-1711.58
-1286.49
-938.759
-399.618
-1050.74
-835.688
-612.191
-382.972
-134.117
880.827
742.587
559.376
345.826
116.615
-492.905
-376.679
-275.772
-180.826
-68.0771
-1.65008
20.48
47.9988
49.425
-8.58853
-133.259
-22291.5
-19716.9
-18635.2
-21211.3
-16404.3
-13035.7
-14655.2
-11164.6
-19539.5
-17285.3
-18025.8
-17082.7
-15863.7
-13572.4
-16720.5
-18465.4
-16545.1
-15071.2
-16963.5
-13955
-11835.6
-12355.3
-9928.12
-17639.2
-15843.5
-16280.8
-14974.6
-14148.2
-13195.1
-13736.8
-14616.2
-13424.1
-11993.9
-13104.2
-11685.7
-10071.6
-10362
-8897.72
-14863.5
-13702.9
-13855.5
-12831
-12094
-11180.1
-11656.9
-10311.9
-9717.94
-8514.58
-9024.58
-8742.55
-7861.69
-7734.43
-7055.16
-10845.9
-11015.8
-10246.6
-10401
-9173.16
-8317.3
-9269.61
-6638.19
-6352.87
-5498.12
-5736.4
-5882.39
-5339
-5120.81
-4723.76
-7218.76
-7258.02
-6900.92
-6814.33
-6303.31
-5711.69
-6211.05
-2397.32
-2314.12
-1992.15
-2062.95
-2177.55
-2033.78
-1879.48
-1750.74
-2727.74
-2746.2
-2562.34
-2471.75
-2369.07
-2176.38
-2340.88
-8285.08
-8151.45
-12519.1
-13496.8
-7766.14
-6889.68
-10980.6
-8930.7
-6264.61
-4466.69
-6232.04
-4475.2
-6242.17
-6009.13
-4598.81
-8221.17
-7799.71
-11164.2
-12166.6
-7239.32
-6541.68
-9717.48
-8349.4
-6201.29
-3812.75
-6103.79
-4071.23
-5574.7
-5389.56
-4512.31
-7448.62
-7093.95
-9457.67
-10141.2
-6657.31
-6175.21
-8460.35
-7467.44
-5055.4
-3978.09
-5046.53
-4260.52
-4701.58
-4733.76
-4501.15
-5935.67
-5706.69
-7068.14
-7428.25
-5411.67
-5045.33
-6535.01
-5946.75
-4702.17
-3453.49
-4630.47
-3736.93
-4326.05
-4322.34
-3905.26
-4049.03
-3917.36
-4657.47
-4838.5
-3645.72
-3364.88
-4382.77
-4014.81
-3236.09
-2586.57
-3173.11
-2770.14
-2971.62
-2940.62
-2725.21
-1497.73
-1451.26
-1698.73
-1756.01
-1346.04
-1235.13
-1609.24
-1480.47
-1056.99
-938.64
-1125.31
-1042.46
-1093.23
-1071.37
-987.701
7898.27
25485.1
6286.7
26662.5
4699.03
27482.6
7377.14
42057.1
9053.47
57740.6
9011.69
42228.8
8710.64
35139.2
9071.11
30797.5
5494.25
3462.89
14732.9
8813.39
5350.75
2902.56
15975.7
7938.39
6052.74
4471.77
19098.5
13670.3
4587.97
3397.31
19172
14142.6
10845.1
4609.77
9420.25
4237.47
4397.52
10216
36794.9
9904.57
13207.4
4358.6
47069.9
12675.9
12228
4083.9
26486.4
8174.55
13611.5
4683.23
23214.5
7343.68
7172.15
3556.86
9875.87
3898.71
7849.33
4229.76
9786.99
3810.48
9784.3
5610.89
8428.91
3720.77
12185.1
4424.34
4162.1
1466.84
13909.4
9803.34
8471.3
6265.33
15010.6
12395.3
8134.13
7033.2
8229.82
5702
11899.1
8183.99
5484.58
4057.9
2662.33
2193.21
5150.59
4441.99
2520.11
2451.34
5389.42
3603.53
2660.01
1722.03
7499.15
4122.34
5755.7
6823.4
10490.2
7492.68
8520.49
11826.8
4865.82
2336.59
3336.4
3857.8
2342.21
991.633
1389.08
1408.46
9864.98
17690.2
6619.52
19658.9
11504.4
17251.4
8134.95
20455.2
12904.9
15513.3
10345.1
19757.1
14109.1
16085.9
11275.8
11036.7
11910.8
16157.5
15700.8
16114.2
16893.2
24023
13157.6
10730.8
9722.04
10975.9
16756.6
20671.1
18628.8
23849.7
23129.8
18894.9
17635
23444.9
22588.2
16319.7
16048.2
21879.4
21676.5
11929.6
9536.75
11832.6
10573.2
13271.1
12276.5
14591.8
14355.1
19903.9
20760
11085.7
9879.52
11155.2
11251
11894.2
13178.9
13559.4
15777.2
17577.8
20947.5
9318.55
7352.66
6285.68
7873.68
12066.9
14435.3
8259.17
12894.5
5525.8
7111.02
8373.83
6971.55
1591.41
5163.88
711.833
1785.43
4157.6
8553.52
1427.43
2877.93
910.893
4513.34
399.992
1531.49
5535.06
5594.05
6316.54
4062.15
8868.31
7219.39
10431.3
7406.51
1441.84
3052.7
3145.34
1875.97
1662.19
2131.92
2336.96
1773.74
15006.5
9194.82
2940.47
16876.2
9796.38
3225.24
14375.4
9081.66
3101.98
16546.1
9782.72
3219.46
13215.5
8357.92
2768.31
16074.2
9794.22
3285.68
6529.04
3748.1
1085.84
8748.7
5828.92
2011.74
10708.4
7383.92
2548.84
12558.9
8217.67
2744.69
15861.3
10012.1
3494.42
7573.77
4479.73
1495.92
8489.79
6168.35
2346.4
10314.6
7617.24
2825.28
12798.1
9028.02
3258.17
16081.2
10190.9
3646.78
292.086
2047.32
2883.84
4167.11
2321.31
2634.89
5792.77
5465.26
582.936
982.135
620.875
1018.35
471.302
1371.98
849.736
1800.71
3154.05
1549.01
4024.39
2343.48
2104.43
3649.86
3396.3
683.299
6369.82
1359.41
-2242.04
347.111
1605.76
1037.48
996.876
757.935
9452.92
4091.05
2550.78
1507.59
9581.67
4238.06
3234.49
1916.43
9471.15
4537.77
4636.67
3084.64
3262.47
2231.36
1365.58
1303.1
12901.4
11388.6
6002.78
6190.85
14307
13360.9
7002.33
7017.54
5144.85
5257.59
10766.8
8883.61
3471.43
3649.34
1779.65
2109.67
4216
4185.77
2159.62
2362.57
2889.45
3155.58
1456.78
1934.97
4420.85
2891.45
4352.37
2860.98
6999.93
3828.44
6559.76
3992.55
2545.56
2042.15
2698.88
1806.32
1265.75
1187.18
1653.57
1016.1
10997.4
7148.6
5221.3
4992.8
10937.4
7407.95
5231.82
4974.04
11463.5
7899.62
5307
4876.57
14163.8
15780.6
12522.1
8069.78
4235.11
14969.4
13337.7
11928.6
9451.72
5586.94
13985.7
12227
9445.27
6963.41
3995.72
5613.18
4664.85
4986.85
5340.07
5946.66
4720.02
5107.29
5354.67
6471
4960.31
5274.24
5419.9
11289.1
8049.45
10068.1
6963.48
7565.28
5968.76
6709.78
5515.6
4973.34
5483.4
9404.59
8207.83
7977.69
6904.84
6496.31
5767.11
5384.02
5149.21
3873.9
5200.41
7115.85
4843.15
4691.01
2885.41
9631.11
7445.73
6626.01
5408.31
3661.64
2208.68
5348.73
3896.97
4634.69
2215.34
1590.98
901.369
5067.27
3705.8
1657.61
1384.03
3869.15
1707.14
1433.5
731.299
2829.06
2500.13
2252.57
3192.51
3970.51
3589.23
2866.39
4049.71
2901.17
1783.8
1656.17
2189.52
793.23
356.241
50.2672
331.526
3139.55
1319.66
391.2
3474.28
927.662
248.864
3272.5
1462.55
450.193
3521.57
977.979
275.916
3245.18
1540.25
408.39
3559
1027.81
248.014
5113.72
2722.96
680.824
4264.17
2133.78
545.128
3839.98
1878.43
525.624
3507.89
1658.27
377.98
3630.84
1040.18
171.515
6276.59
3285.95
945.411
5263.46
2660.55
757.828
4462.81
2224.19
656.685
3908.39
1711.43
439.782
3956.44
993.484
249.246
1510.36
521.242
119.902
-88.3601
626.453
225.66
64.8853
-13.0076
1597.55
567.917
157.582
-44.2573
795.257
308.181
144.974
64.0023
1699.74
621.682
224.371
29.1373
1325.62
565.84
190.626
34.4247
962.723
487.256
120.486
-33.5778
833.23
493.289
238.716
119.78
1365.64
562.73
150.9
-103.628
1143.34
463.731
189.052
-90.8529
1638.17
603.843
197.175
-49.5225
1455.95
536.482
210.382
-145.093
1056.48
494.648
166.494
-39.0808
849.703
388.666
187.866
1.70804
730.013
403.314
205.82
108.759
551.658
305.125
181.43
92.4734
1900.11
631.995
134.51
-184.042
1829.82
578.563
191.692
-244.598
1894.62
637.744
146.319
-175.893
1772.3
561.059
195.122
-237.896
1853.04
634.034
201.839
-110.855
1660.39
529.062
225.264
-185.346
1619.68
578.51
254.217
23.4998
1819.52
587.093
301.575
-212.487
1423.86
507.913
244.441
-40.7577
1406.1
404.062
164.323
-154.784
549.985
146.179
44.3317
-26.5986
1460.99
429.624
175.587
-145.449
575.91
157.245
53.1481
-17.6535
1511.68
460.864
205.327
-123.319
598.241
171.347
64.0003
-8.09037
1373.32
432.573
228.192
-90.8926
589.38
176.682
83.8002
8.92122
1261.34
424.619
233.84
-43.0343
535.953
184.254
107.961
30.61
849.578
319.43
143.519
-16.2658
492.049
221.916
118.735
55.8229
1000.18
339.443
167.345
-35.7133
508.633
202.846
115.036
44.4296
663.638
291.022
140.06
17.2814
421.246
218.463
117.885
66.3786
442.016
244.672
146.081
78.1238
327.526
201.783
122.291
81.6258
-7.8496
2.54424
2.40774
1.44483
0.95098
-1.08029
1.76999
1.33601
0.774728
0.505572
5.12656
8.4586