/*--------------------------------*- C++ -*----------------------------------*\
| =========                 |                                                 |
| \\      /  F ield         | OpenFOAM: The Open Source CFD Toolbox           |
|  \\    /   O peration     | Version:  2306                                  |
|   \\  /    A nd           | Website:  www.openfoam.com                      |
|    \\/     M anipulation  |                                                 |
\*---------------------------------------------------------------------------*/
FoamFile
{
    version     2.0;
    format      ascii;
    arch        "LSB;label=32;scalar=64";
    class       volScalarField;
    location    "2.4";
    object      gradTx;
}
// * * * * * * * * * * * * * * * * * * * * * * * * * * * * * * * * * * * * * //

dimensions      [0 -1 0 1 0 0 0];

internalField   nonuniform List<scalar> 
5712
(
-6532.28
-8348.76
-15531.3
-22664.2
-23114.6
-39908.3
-17790
-45323.2
-14498.3
-31852.8
-21675.4
-32962.4
-19461.9
-25498.2
-8554.45
-9775.45
-14538.4
-16648.7
-18820.2
-18664.9
-14832.4
-18345.9
-21868.1
-19636.7
-5299.88
-3969.37
-6594.96
-4423.06
-12275.7
-9787.42
-20985.2
-15166.8
-16273.1
-16897.6
-18033.3
-17144.4
-6280.99
-4943.03
-38572.3
-51644.1
-24912.5
-30591.2
-51939.5
-67387.9
-26872.5
-30762.1
-28562.7
-40358.9
-24911.5
-33034.6
-14550.1
-23485
-2777.99
-935.208
-2928.64
-1054.49
-8391.48
-3382.69
-11530.9
-4236.06
-8181.26
-3142.42
-8738.98
-2799.65
-14913.3
-4741.09
-19249.1
-6488.89
-23666.4
-11727.3
-21665.3
-12846.3
-22245.2
-14385
-19561.1
-14736.7
-16992.5
-10088.5
-16978.7
-8629.8
-22349.4
-14314.9
-22397
-14454.3
-20654.8
-15613.3
-20903.9
-15691.2
-18358.8
-11669.1
-19017.5
-11962.1
-17336.6
-7487.94
-7989.76
-9703.06
-17409.2
-8178.02
-6953.05
-9806.98
-18364.9
-7460.96
-9070.26
-9791.37
-19278.5
-7645.21
-9873.77
-10239.6
-3600.45
-3928.48
-1206.3
-2343.12
-10560.8
-11157.4
-4061.58
-7161.15
-13523.8
-15051.1
-6469.87
-10982.5
-12258.3
-1153.39
-13448.1
-16503.9
-8912.36
-816.365
-7491.52
-12044.9
-19364.5
-13293.8
-9747.74
-11793
-10255.9
-8805.26
-13787.8
-3474.77
-2876.74
-1980.43
-1967.04
-9813.46
-8317.57
-5875.48
-5595.34
-12276.6
-10462.2
-7676.95
-6898.19
-5876.4
-7458.06
-12095.4
-12511.3
-13912.1
-12669.5
-15677.5
-13686.1
-10505.3
-8836.94
-9008.74
-9549.01
-11871.5
-9470.63
-10786.4
-7947.49
-9308.43
-6496.39
-10776.2
-7097.27
-10192
-4881.5
-8729.1
-9520.14
-12508
-16384.3
-13753
-20061.7
-6929.06
-7754.32
-9015.17
-3024.22
-7771.25
-15022.5
-7367.88
-16085.4
-13611.8
-24750.6
-13847.1
-26243.8
-5853.2
-12871.7
-5310.36
-13697.2
-8068.58
-6160.62
-11186.1
-4482.03
-8344.14
-1804.32
-9775.9
-889.891
-7739.02
-9178.1
-11713
-5438.81
-6390.69
-10803.5
-10354.6
-7120.9
-2306.05
-2044.38
-1846.65
-1652.98
-1525.04
-1374.54
-6847.63
-5679.88
-4960.33
-4372.87
-3561.63
-3118.28
-8449.71
-7355.05
-6824.08
-5274.3
-4357.56
-4141.23
-6605.19
-5906.1
-5783.6
-10961.3
-8445.17
-7160.07
-10258.4
-7689.08
-6292.1
-10784.2
-8613.73
-7535.95
-6605.72
-4416.84
-3476.82
-15775.3
-13790.9
-12034.8
-10078.9
-8484.5
-7122.05
-8883.33
-6998.6
-5660.68
-7403.63
-5424.26
-4230.39
-7523.32
-4237.39
-2431.65
-10281.1
-13950.4
-8115.64
-10509.9
-11017.6
-16212.7
-9828.36
-14340.1
-49.843
-738.209
496.394
-104.413
-2962.2
-3363.17
-1224.43
-661.182
-693.505
-2410.55
-9351.69
-13676.1
-6642.52
-3621.36
-9797.31
-9722.33
-15048.2
-16571.1
596.939
4077.09
-7520.38
-7091.53
-7101.95
-5480.06
-1029.73
-551.13
-659.403
-261.167
-2003.81
-230.132
345.743
849.691
-9215.55
-2432.62
-6209.06
-1640.94
-8955.54
-2745.64
-10840
-3514.55
-8759.75
-11879.6
-8110.33
-11598.8
-14006.8
-14872.7
-13379.2
-14100.3
-5656.55
-9471.09
-6521.12
-9400.89
-8606.7
-11182.9
-9495.82
-11308.8
-13941.1
-13859.3
-14601.2
-13927.8
-5711.1
-9176.37
-6215.34
-9357.32
35.7969
-1470.56
-7563.39
-4889.73
607.656
-1052.99
-7007.98
-4330.86
-416.392
-1719.37
-7741.21
-5323.13
-873.891
-1992.97
-7795.96
-5523.51
678.978
786.447
-179.565
-34.5445
2890.51
2938.58
182.307
333.147
542.333
1949.68
-1777.22
-1139.01
10245.7
9497.39
5557.85
4227.67
359.599
10429.9
10806.8
4327.5
6379.21
740.76
-10150.9
-8027.62
-7231.37
-6880.38
-4325.14
815.426
769.816
16.2085
-99.092
2578.3
2583.5
42.0501
-227.496
2588.17
3207.45
-806.082
-1176.66
5136.57
2374.53
8214.53
5210.48
3661.82
2817.45
4120.33
3626.93
-591.581
-1600.93
-3742.2
-2366.9
-1035.83
1044.67
-1063.35
745.726
-1855.74
-492.363
-2352.81
-2711.7
-5263.48
-4835.81
-9994.51
-6053.68
-8095.69
-8190.74
-12294
-9985.43
-7994.65
-4762.96
-4027.96
-4026.53
-11774.7
-5230.13
-12952.7
-5863.79
-13710.6
-10191
-14632.8
-10916.7
-9677.12
-3899.57
-10837.5
-4512.58
-6479.09
-5238.8
-5203.78
-7730.11
-4245.66
-4826.15
-4469.81
-7170.35
-7453.63
-5201.3
-5868.98
-8865.63
-9011.45
-5654.27
-7270.5
-9161.02
806.386
876.72
992.867
9.66605
305.179
346.575
2948.82
3177.55
3193.68
194.3
876.339
888.508
3713.81
4211.11
4349.44
-686.421
845.407
1163.08
1304.16
1124.82
824.349
3906.93
4026.41
3774.35
3203.07
3667.34
3626.19
3962.5
4328.88
4251.23
-1504.51
365.112
515.568
-3431.82
-1939.09
-1006.64
1079.55
2271.94
2909.62
1015.27
2560.93
3237.44
417.541
2110.01
2601.42
-2539.72
528.626
898.169
25.7032
41.518
56.2639
85.9754
274.011
159.415
135.535
134.701
1.48399
81.4198
194.545
307.971
444.797
294.465
335.015
369.306
-244.882
31.7056
276.991
546.898
158.914
241.873
320.069
371.419
36.3251
146.64
157.477
157.328
-222.556
-4.90626
129.493
223.408
-993.696
-202.411
113.422
340.367
-1557.28
-361.312
15.2
580.463
-698.156
-84.8201
197.715
493.729
-1283.16
-274.96
-4.1014
509.264
-1055.64
-242.35
138.995
425.71
-1744.45
-429.981
13.3818
681.631
-1177.57
-322.734
125.847
505.066
-1879.04
-492.838
-9.29345
712.997
5.09096
24.0008
48.6895
107.562
35.2113
32.9231
30.0277
98.6811
63.6855
82.5117
149.444
289.824
161.409
112.086
92.3182
266.719
-434.749
-52.0118
165.619
496.1
-206.962
29.06
123.67
471.381
-102.099
123.551
243.48
495.063
-37.2499
98.8706
106.781
475.706
-1109.6
-210.762
37.0258
663.892
85.3309
46.662
35.3382
74.4806
167.356
68.5739
36.8833
34.611
171.814
110.724
79.0071
192.389
425.788
182.198
93.4401
89.2424
90.0483
122.645
110.479
317.025
533.611
255.843
141.082
140.91
-120.482
110.867
139.386
440.557
407.748
275.987
168.236
179.589
-591.686
12.3193
78.2711
424.905
98.8794
237.666
157.065
184.939
-1289.78
-128.471
66.6751
492.34
-422.212
59.9002
102.077
173.735
-1004.54
-38.9375
78.199
459.255
-262.325
139.143
134.525
187.488
-1553.18
-239.837
29.1059
534.086
-567.975
-18.9914
67.3246
162.646
-1751.37
-351.562
-23.9036
527.363
-704.018
-105.945
21.1769
140.637
38.2567
17.2593
9.11814
5.49748
4.05219
50.5003
26.5616
15.0047
9.28887
6.89749
91.3379
40.1965
21.1852
12.8428
9.54018
114.565
59.5864
33.7035
20.9751
15.6315
121.117
50.3558
26.2091
15.8742
11.8247
154.334
79.1052
44.8532
28.0729
20.9977
81.1621
40.5879
22.9128
14.3677
10.7541
57.3364
23.7177
12.2637
7.47567
5.54153
122.114
51.609
27.3639
16.7694
12.4524
58.2162
21.101
10.5428
6.32461
4.66186
128.626
60.0696
33.3147
20.7267
15.4838
54.9376
20.9925
10.8107
6.53701
4.81334
93.8396
33.673
16.552
9.89994
7.30742
55.1253
18.8432
9.23039
5.5343
4.08817
81.1456
21.4927
8.50728
4.64955
3.31001
44.7935
10.1418
3.65969
1.92001
1.34191
31.8557
13.0119
6.62451
3.91307
2.85976
22.9877
10.3184
5.49227
3.28903
2.41195
77.8006
32.7009
17.0758
10.2329
7.54625
59.3682
27.2166
14.741
8.91124
6.56066
109.13
40.3158
20.1911
11.9285
8.77168
80.7126
37.5769
20.5734
12.4816
9.25267
98.5752
46.2046
25.7673
15.9629
11.9378
55.0172
28.6599
16.2213
9.96475
7.45906
51.2333
25.4257
14.5026
9.08062
6.79341
-343.123
-461.436
-776.563
-1131.05
-820.335
-1418.4
-310.738
-1161.28
329.976
-243.355
-740.699
-1222.99
152.637
76.7514
-1135.53
-1788.65
-1427.88
-2035.51
-601.742
-139.404
-31.3454
-6.91157
-1.73031
-207.875
-91.4532
-13.0199
-3.41921
-1.47027
-1848.65
-426.387
-96.2034
-21.1078
-5.29114
-498.401
-132.769
-31.9988
-6.70835
-1.79301
-3109.82
-718.799
-162.595
-35.7876
-8.95065
-787.865
-223.987
-53.918
-12.4244
-3.10554
-4181.23
-969.313
-220.131
-48.5909
-12.1656
-914.215
-281.013
-69.8497
-16.2868
-4.06449
-5236.37
-1225.94
-280.308
-62.1765
-15.6297
-1004.82
-340.004
-87.0717
-20.5806
-5.19737
-6233.53
-1504.63
-348.773
-78.0048
-19.6919
-1535.4
-469.343
-115.718
-26.5249
-6.62774
-5792.13
-1392.83
-321.434
-71.5961
-18.0188
-1201.85
-399.162
-101.311
-23.6704
-5.92074
-6438.94
-1556.91
-361.602
-81.0012
-20.4788
-1734.14
-513.595
-124.825
-28.2229
-7.03495
-6716.14
-1610.49
-374.597
-83.8772
-21.1938
-1796.41
-534.013
-130.98
-27.5157
-7.25845
-509.776
-6850.27
-6252.17
-2245.07
1622.06
2769.79
7726.34
11294.1
1732.71
8290.06
-1593.28
2585.53
2484.28
4893.65
9220.1
13046.2
13955.5
17510.2
5696.74
7377.07
-19768.3
-14320.9
-4845.3
-3824.1
-2753.12
-3941.68
-3650.01
-12211.2
-11783.2
-10026.3
-10935.1
-9083.43
-6496.2
-8427.13
-5633.97
-4770.51
-5816.92
-3994.2
-19760.5
-10348.6
-3707.44
-6306.47
-8498.16
-5953.89
-6528.27
-4867.77
-2981.76
-4220.51
-4460.4
-4816.88
-19454.7
-12803.5
-12190.2
-8829.59
-8804.36
-9220.43
-4023.03
-5319.15
-6696.06
-14201.8
-12420.7
-10594.7
-9985.89
-8775.35
-9338.63
-6439.02
-5067.25
-3962.72
-2078.43
-4281.28
-3553.93
-2666.58
-1663.55
-569.553
-3416.73
-2861.92
-2154.67
-1339.51
-455.102
-2445.99
-2034.15
-1519.51
-938.24
-317.427
-3525.61
-2953.7
-2220.87
-1377.14
-466.692
-3241.03
-2696.49
-2018.27
-1250.13
-424.165
-7899.13
-6113.32
-4873.29
-4622.9
-5105.18
-6475.35
-4809.05
-3480.79
-2941.96
-2083.46
-6266.64
-3769.49
-2639.85
-1872.49
-916.863
-5631.57
-3818.45
-2567.97
-1899.8
-1136.65
-4245.35
-2659.7
-1669.17
-1174.05
-582.367
-5146.44
-3849.09
-2665.14
-1598.26
-551.807
-5734.73
-3680.32
-2414.26
-1455.91
-549.807
-3696.68
-2202.9
-1319.54
-716.139
-242.902
-3933.45
-3038.64
-2142.53
-1284.06
-433.96
-4645.31
-3469.45
-2367.96
-1381.61
-459.56
-3328.02
-2591.29
-1831.4
-1092.58
-365.529
-13149.7
-10119.9
-8300.73
-7541.99
-7348.99
-7640.59
-5558.92
-4101.73
-2818.76
-1287.77
-3088.16
-2419.7
-1736.94
-1062.28
-367.067
-5347.79
-4280.18
-3142.73
-1962.94
-690.992
-6978.11
-5495.91
-4065.55
-2633.79
-1004.61
-5074.03
-4096.56
-3045.45
-1929.09
-687.14
-5657.87
-4628.9
-3458.89
-2178.42
-762.305
-4239.17
-3469.4
-2576.84
-1602.37
-550.614
-2572.1
-2073.57
-1508.69
-916.736
-308.643
-3717.25
-3065.07
-2275.58
-1401.89
-474.729
-3796.85
-3028.13
-2193.1
-1337.06
-454.591
-4174.37
-3394.89
-2503.54
-1546.47
-529.083
-13625.5
-11404.9
-9664.86
-8785.01
-7835.86
-8923.67
-6427.64
-5007.46
-3773.21
-1958.2
-9035.9
-7205.88
-5550.41
-4167.33
-2058.95
-6964.26
-5307.62
-4026.14
-2769.32
-1142.39
-7359.97
-5904.97
-4433
-2895.18
-1095.66
-7214.26
-5453.72
-4110.01
-2814.68
-1147.42
-3457.34
-2800.38
-2072.65
-1296.56
-452.407
-4690.14
-3878.04
-2893.29
-1793.37
-610.393
-5768.96
-4687.95
-3482.4
-2184.43
-762.264
-5495.14
-11178.6
-11669.3
-31912.8
-11518.3
-42763.2
-6276.03
-15212.7
-11531.5
-8910.9
-19121.7
-15953.4
-11521.5
-10859.8
-21477.5
-17026.4
-4042.14
-3000.59
-7811.14
-5362.38
-9061.14
-6825.41
-24274.3
-17921.2
-14942.2
-11355.4
-15352.9
-9134.18
-1182.15
-3688.91
-39795.7
-52138.5
-24076.2
-30443.9
-52651.1
-67672.9
-25953.4
-30539.7
-29630.9
-40906.5
-24152.1
-32974.4
-15992.1
-24165.4
-1926.47
-507.494
-3379.77
-1152.59
-6553.08
-2921.45
-13283.6
-4793.6
-2887.58
-1635.28
-7220.26
-2268.04
-14937.3
-4689.62
-19423.4
-6537.53
-16312.1
-8440.41
-18769.8
-11162
-14898.7
-10653.3
-16692.8
-12948.7
-14959.7
-8753.11
-11847.7
-6108.18
-21228.4
-13554.2
-22116.2
-14245.9
-19513.3
-14836.1
-20598.9
-15479.4
-17607.9
-11049.9
-18839.3
-11790.9
-16355.9
-7209.97
-7113.88
-9368.39
-14641
-7367.16
-5323.57
-9197.1
-18099
-7390.46
-8661.37
-9626.43
-19245.7
-7639.26
-9758.21
-10191.3
-1108.84
-995.359
-267.449
-1175.42
-4503.43
-4651.24
-2810.77
-5564.16
-2513.71
-3134.13
-4359.32
-8233.74
-12007
-9658.33
-9259.17
-11533.7
-7580.47
-7613.25
-8126.96
-6809.79
-13346.8
-11541.9
-11427.9
-9540.52
-6603.32
-5654.34
-12414.1
-1072.92
-805.51
-597.542
-670.076
-4184.69
-3326.78
-3536.16
-3116.17
-597.632
518.046
-4176.46
-3279.61
-10131.8
-10762.1
-9461.56
-8658.24
-7011.25
-5094.22
-9162.45
-7302.55
-8165.11
-6396.86
-11512.5
-11732.5
-9827.75
-7710.52
-7255.41
-4947.41
-6383.18
-4056.97
-9506.78
-5794.63
-9250.39
-5081.06
-8245.22
-9408.3
-13006.5
-17315.3
-13716.9
-20031.8
-6303.02
-7503.29
-7655.01
-2893.89
-7595.35
-14876.8
-7326.31
-16030.2
-13549
-24847
-13823.4
-26224.2
-5616.96
-12692.5
-5254.07
-13642.2
-7602.52
-5999.92
-10991.6
-4464
-7328.3
-1810.28
-9460.45
-1238.1
-7552.71
-9064.1
-11624.5
-5416.52
-6341.53
-10766.4
-10330.7
-7107.36
-794.7
-738.907
-537.895
-621.537
-2537.94
-1855.34
-2293.72
-2086.62
1077.32
596.635
-2688.7
-2988.32
-10655.6
-10118.8
-7665.22
-6629.89
-4049.03
-3419.16
-5727.12
-4730.21
-5377.68
-3929.94
-18253.1
-16008.1
-7940.8
-6782.31
-6006.87
-4594.25
-4951.23
-3200.42
-5263.54
-2304.92
-5590.21
-9193.58
-4900.83
-9298.77
-8268.3
-10344.9
-9271.36
-12636.7
-995.939
-730.132
-780.734
-668.398
-3639.37
-2616.24
-2986.92
-1700
-1429.16
-1702.26
-8335.53
-8961
-4697.33
-4246.09
-9293.97
-9610.72
-14235.1
-16345.3
334.875
3875.07
-7359.06
-7123.28
-7018.79
-5535.54
-1082.08
-983.496
-1173.59
-970.402
-1772.07
-1226.07
-645.782
-555.541
-8155.73
-3837.26
-6929.9
-3220.47
-9269.15
-3694.85
-10976.5
-3904.07
-5414.87
-10260.8
-6996.54
-10741.1
-8639.53
-11612.4
-11318.5
-12587.6
-5279.5
-9293.07
-4790.11
-9254.46
-8160.56
-10833.8
-9365.3
-11217
-13078.4
-13228.5
-14355.7
-13757.2
-5639.8
-9134.28
-6209.11
-9356.08
-596.238
-2329.35
-8007.29
-5569.96
-577.017
-2411.26
-7931.81
-5333.92
-890.075
-2325.14
-7990.53
-5741.17
-1069.73
-2237.36
-7871.1
-5667.84
-1085.69
-1194.71
-1023.6
-1113.6
-2127.33
-2183.05
-1481.05
-1616.13
-8435.32
-7782.16
-4010.06
-4063.33
-3777.95
-5231.7
-4096.48
-371.541
-1920.99
-1333.26
-1420.47
-3620.88
2605.7
-976.282
-13727.5
-11734.9
-10693.9
-9384.66
-5985.27
-1203.67
-1089.85
-1261.27
-1582.35
-2168.13
-1706.73
-2082.19
-2771.72
-8146.18
-8060.29
-4505.7
-5853.54
-5048.39
-6709.43
-3193.79
-5122.58
-4895.73
-5343.25
-1231.6
-1596.08
-3068.55
-4569.76
-9657.91
-7948.4
-7666.58
-5644.92
-6762.83
-4843.77
-6082.12
-4465.31
-4582.11
-5065.35
-8402.43
-8312.36
-11302.9
-7314.96
-10420
-11200.7
-13044.6
-10991.3
-9575.18
-5989.99
-7067.73
-7073.75
-12293.5
-6017.36
-13087.8
-6056
-13921.8
-10845.3
-14675.6
-11058
-10409.3
-4671.58
-11044.8
-4719
-7987.97
-6357.57
-6548.83
-8995.19
-6839.07
-7293.82
-6408.06
-9220.87
-8245.61
-5934.5
-6635.73
-9674.39
-9259.54
-5885.52
-7519.03
-9393.05
-884.505
-760.725
-1144.25
-834.914
-1450.53
-1716.5
-1694.08
-1227.95
-7894.03
-6910.78
-3929.82
-1745.61
-7883.13
-7487.36
-6167.85
-5549.07
-5183.33
-4439.64
-1910.16
-1952.44
-4357.02
-1954.27
-8645.65
-7413.46
-4918.55
-3886.49
-3855.23
-2404.02
-2889.28
-1241.83
-4546.43
-114.665
-244.321
-112.932
-38.8514
25.0467
-230.406
-145.388
-54.2035
12.0519
-659.981
-294.044
-14.5278
186.013
-597.605
-348.407
-55.458
116.844
-1079
-434.895
26.9903
425.98
-1065.43
-526.947
-183.53
15.3164
-731.29
-355.159
-175.36
-56.6532
-559.899
-232.792
-22.7643
122.384
-1611.18
-568.578
-130.729
157.909
-1920.2
-548.063
-90.6381
557.345
-1548.08
-547.248
-88.9086
288.755
-1744.44
-493.458
-119.183
509.168
-1504.64
-523.326
-39.6893
318.155
-1989.41
-564.401
-71.2368
647.104
-1362.03
-442.252
48.4822
457.142
-1968.74
-544.24
-42.1493
699.844
-226.714
-92.5195
-14.0933
77.7378
-195.344
-70.5954
-28.4016
74.5825
-584.847
-241.977
-23.1603
200.338
-491.235
-186.197
-75.527
192.551
-1154.77
-403.478
-9.30717
435.074
-1050.17
-351.915
-85.1762
399.211
-1282.74
-478.775
-92.5703
320.115
-969.956
-334.058
-115.645
445.476
-1758.66
-493.201
-103.695
702.964
-140.748
-52.8982
-16.2656
48.2511
-64.1352
-37.083
-17.367
-0.218974
-424.248
-152.931
-65.6481
115.798
-212.613
-110.95
-60.596
-9.08953
-753.65
-254.381
-99.664
209.309
-434.548
-194.62
-95.265
-8.11939
-1147
-366.582
-126.936
316.257
-763.264
-287.084
-126.774
-2.68997
-1512.47
-440.282
-195.252
271.709
-1031.8
-347.321
-166.193
-23.8966
-2025.03
-570.949
-208.273
339.322
-1025.07
-322.604
-135.869
14.644
-1950.75
-560.523
-238.569
283.001
-1132.96
-359.557
-159.802
-10.4223
-1999.62
-522.576
-149.976
437.204
-919.132
-259.543
-84.1611
65.8508
-1898.05
-447.192
-85.1746
494.133
-814.276
-184.378
-28.7658
108.999
-7.28352
-11.7929
-8.5903
-5.84201
-4.49095
-30.8249
-22.9315
-14.807
-9.74681
-7.43579
-14.4078
-26.8929
-19.6234
-13.274
-10.1334
-66.6391
-50.7488
-32.7948
-21.5019
-16.3592
-8.66097
-32.3535
-24.0668
-16.2958
-12.4092
-86.9434
-66.7421
-42.8748
-27.9441
-21.1904
-42.1494
-33.4521
-21.5836
-14.0457
-10.6481
-5.92566
-14.3406
-10.6474
-7.17686
-5.51595
-20.3479
-35.1274
-24.9007
-16.6174
-12.6958
4.91516
-11.8353
-9.35528
-6.39229
-4.91819
-52.7295
-48.3261
-31.601
-20.6681
-15.6801
-1.79058
-13.6048
-10.0094
-6.75325
-5.19413
11.6622
-16.9046
-14.0254
-9.6569
-7.43423
8.70633
-9.51127
-7.85655
-5.385
-4.1435
43.5451
-1.74292
-5.59938
-4.41553
-3.56777
29.2306
0.457831
-2.22692
-1.86851
-1.54073
-0.589393
-8.29288
-6.39227
-4.42132
-3.41822
-7.045
-8.14042
-5.59656
-3.77915
-2.9063
-10.7344
-23.3601
-16.8429
-11.4298
-8.76161
-24.4287
-23.1251
-15.3219
-10.2229
-7.83148
8.22107
-25.2794
-19.6532
-13.5444
-10.4106
-40.2482
-33.7476
-21.8493
-14.5009
-11.0412
-48.3994
-40.1772
-25.6622
-16.7745
-12.6946
-44.6447
-28.294
-17.4509
-11.4272
-8.62674
-33.7341
-23.2634
-14.3626
-9.27958
-7.02035
-63.4581
-202.603
-116.994
-517.491
-65.8056
-715.183
216.266
-648.287
480.34
-109.675
-769.778
-1254.47
92.4097
-75.1264
-1151.64
-1796.81
-1432.6
-2036.9
-580.881
-137.106
-31.007
-6.85218
-1.71675
-155.71
-84.7376
-11.8413
-3.24622
-1.44738
-1795.35
-420.205
-95.2697
-20.9398
-5.2523
-374.59
-113.804
-29.0931
-6.26277
-1.71812
-3028.12
-708.262
-160.914
-35.4814
-8.88048
-647.991
-201.825
-50.4034
-11.8699
-3.00718
-4086.04
-955.148
-217.681
-48.1307
-12.0606
-815.449
-263.628
-66.8572
-15.7767
-3.96829
-5153.44
-1210.9
-277.402
-61.6003
-15.4961
-974.596
-331.253
-85.1756
-20.2079
-5.12009
-6197.83
-1495.36
-346.603
-77.5292
-19.5757
-1539.49
-468.858
-115.414
-26.4366
-6.60384
-5740.08
-1380.13
-318.642
-71.0093
-17.8799
-1208.54
-396.61
-100.414
-23.4554
-5.87122
-6417.57
-1551.25
-360.236
-80.6955
-20.4027
-1734.88
-513.336
-124.697
-28.1873
-7.02526
-6708.98
-1608.6
-374.132
-83.7717
-21.1675
-1796.32
-533.899
-130.939
-27.5081
-7.25603
-530.67
-6776.55
-6002.2
-2202.57
-1562.79
-935.935
-3679.02
-2690.07
-6346.81
-5936.55
-3017.7
-2278.9
-406.994
-621.542
-1063.14
-1719.04
-2562.04
-3507.32
-293.142
-627.77
-1301.87
-2257.46
-3381.51
-4509.13
-309.931
-142.864
-530.76
-363.619
-974.558
-810.611
-1619.97
-1507.24
-2316.03
-2232.71
-3012.03
-2728.83
-4312.14
-4831.36
-5212.12
-7691.72
-8560.98
-9401.52
-5429.68
-5927.38
-5857.66
-5310.76
-4520.62
-3934.85
-367.746
-311.616
-236.737
-147.829
-50.2528
-561.26
-475.256
-360.807
-225.187
-76.5298
-959.349
-811.692
-615.772
-384.123
-130.515
-1549.62
-1309.66
-992.601
-618.824
-210.209
-2305.87
-1945.58
-1472.64
-917.469
-311.603
-3148.15
-2649.29
-2001.65
-1246.29
-423.361
-264.749
-224.242
-170.286
-106.297
-36.1258
-566.609
-479.536
-363.882
-227.028
-77.1412
-1174.24
-993.045
-753.061
-469.657
-159.562
-2034.02
-1718.27
-1301.88
-811.552
-275.681
-3041.87
-2565.47
-1941.47
-1209.65
-410.909
-4046.12
-3404.44
-2572.56
-1602.38
-544.527
-280.145
-237.446
-180.431
-112.692
-38.317
-129.139
-109.459
-83.177
-51.9496
-17.6639
-479.46
-406.129
-308.422
-192.537
-65.4453
-328.516
-278.315
-211.386
-131.971
-44.8598
-879.793
-744.703
-565.161
-352.636
-119.832
-731.918
-619.659
-470.34
-293.497
-99.7374
-1460.97
-1235.27
-936.504
-583.924
-198.358
-1359.42
-1149.47
-871.435
-543.302
-184.542
-2085.37
-1760.14
-1332.41
-829.983
-281.83
-2010.28
-1696.49
-1283.79
-799.34
-271.334
-2703.95
-2275.15
-1718.02
-1068.82
-362.825
-2449.2
-2059.58
-1553.58
-965.275
-327.357
-3852.81
-3229.03
-2434.25
-1515.95
-515.777
-4280.99
-3564.17
-2680.47
-1673.91
-572.843
-4546.49
-3743.94
-2811.1
-1772.49
-617.639
-6503.87
-5263.47
-3967.77
-2576.97
-950.816
-6844.4
-5396.64
-4113.82
-2823.88
-1175.44
-7196.28
-5573.21
-4286.46
-3064.51
-1384.61
-4853.77
-4070.54
-3070.82
-1913.47
-651.156
-5267.98
-4397.52
-3312.19
-2067.89
-706.327
-5157.82
-4276.96
-3217.78
-2019.51
-696.041
-4600.12
-3775.47
-2841.88
-1806.96
-637.181
-3789.02
-3053.88
-2308.24
-1512.35
-564.91
-3179.6
-2513.54
-1910.01
-1294.35
-514.653
-428.606
-687.703
-1177.64
-1887.27
-2792.15
-3787.44
-323.518
-720.646
-1460.48
-2481.6
-3657.94
-4800.24
-330.731
-160.761
-594.729
-419.778
-1086.77
-912.661
-1789.08
-1666.78
-2561.15
-2507.64
-3327.96
-3142.84
-4603.06
-5101.33
-5459.72
-7841.88
-8627.16
-9422.01
-5677.26
-6075.33
-5884.38
-5238.43
-4417.87
-3887.95
-387.386
-328.376
-249.564
-155.887
-53.0013
-621.429
-526.647
-400.177
-249.94
-84.9771
-1063.63
-900.929
-684.273
-427.263
-145.25
-1703.26
-1441.58
-1094.22
-683.004
-232.167
-2516.86
-2127.62
-1613.58
-1006.86
-342.26
-3406.86
-2874.43
-2177.5
-1358.63
-462.047
-292.354
-247.791
-188.302
-117.612
-39.9854
-651.047
-551.632
-419.094
-261.732
-88.982
-1318.68
-1116.63
-847.913
-529.387
-179.963
-2238.7
-1893.99
-1437.23
-897.038
-304.928
-3295.35
-2784.22
-2110.87
-1317.12
-447.769
-4314.95
-3638.37
-2755.29
-1719.13
-584.738
-299.024
-253.541
-192.738
-120.417
-40.9507
-145.377
-123.291
-93.7432
-58.5776
-19.9233
-537.594
-455.739
-346.392
-216.392
-73.5832
-379.518
-321.804
-244.643
-152.851
-51.9796
-981.926
-832.038
-632.15
-394.797
-134.228
-824.784
-699.047
-531.215
-331.8
-112.814
-1615.39
-1367.83
-1038.6
-648.398
-220.414
-1505.29
-1274.88
-968.176
-604.47
-205.481
-2310.08
-1953.97
-1482.43
-925.096
-314.442
-2262.51
-1914.24
-1452.48
-906.381
-308.052
-2995.75
-2529.12
-1916.39
-1195.51
-406.438
-2830.86
-2391.02
-1811.88
-1129.94
-383.985
-4124.96
-3469.39
-2624.79
-1639.16
-558.521
-4539.45
-3798.19
-2870.51
-1799.27
-616.917
-4792.65
-3975.07
-3005.2
-1904.29
-665.057
-6678.36
-5447.51
-4138.24
-2703.27
-1000.36
-6945.08
-5514.64
-4232.81
-2920.86
-1219.02
-7233.62
-5618.59
-4333.81
-3104.88
-1403.77
-5085.47
-4275.31
-3233.29
-2018.62
-687.658
-5411.46
-4529.28
-3420.68
-2140.25
-731.923
-5192.75
-4317.49
-3257.64
-2049.64
-707.548
-4545.78
-3740.01
-2823.91
-1801.42
-637.001
-3705.53
-2991.04
-2267.53
-1492.2
-560.188
-3141.06
-2483.83
-1890.17
-1284.22
-512.229
-19705.8
-14376.4
-5223.68
-4234.85
-3222.26
-4533.81
-4140.85
-12970.3
-14624.2
-11579.3
-13364.8
-7986.03
-11346
-6122.81
-6386.2
-4676.6
-20430.6
-11345.7
-4407.9
-7212.64
-9355.92
-6461.27
-7189.33
-5449.4
-3361.73
-4883.23
-5382.86
-5528.06
-19336.2
-13000.4
-12839.9
-9222.73
-9246.96
-9749.51
-4698.77
-5963.71
-7330.69
-14218.2
-12499.1
-10715
-10150.4
-8931.33
-9434.36
-6539.08
-5164.98
-4044.9
-2114.65
-4645.67
-3885.73
-2937.26
-1842.67
-632.645
-3800.17
-3199.7
-2421.68
-1511.69
-514.718
-2888.56
-2428.52
-1834.58
-1143.03
-388.629
-4076.53
-3437.25
-2601.74
-1622.01
-551.311
-3705.86
-3112.23
-2351.39
-1467.08
-499.68
-9602.77
-8097.37
-6788.47
-6243.16
-6298.12
-10995.3
-9593.63
-7860.44
-6353.57
-3806.42
-8381.74
-5924.26
-4511.16
-3186.48
-1401.19
-10012.9
-8351.03
-6611.43
-4898.39
-2384.81
-6774.26
-5455.1
-4044.74
-2539.12
-887.85
-8932.29
-6684.68
-4913.2
-3140.38
-1155.99
-5318.32
-4354.83
-3246.04
-2026.36
-697.538
-5526.05
-4511.47
-3357.85
-2096.77
-722.81
-4096.43
-3374.84
-2520.1
-1568.87
-536.721
-14518.1
-11763.6
-9946.92
-8973.08
-8372.86
-8866.82
-6836.13
-5247.92
-3647.57
-1620.94
-3820.74
-3129.68
-2341.88
-1473.74
-514.278
-6275.82
-5169.16
-3896.53
-2476.07
-875.801
-7920.19
-6441.31
-4896.73
-3219.97
-1226.31
-5602.9
-4611.45
-3488.99
-2235.77
-799.32
-6309.02
-5234.17
-3961.79
-2516.63
-883.196
-4813.1
-4003.69
-3020.35
-1899.34
-655.94
-2976.47
-2474.69
-1857.27
-1156.52
-394.554
-4356.3
-3647.46
-2750.25
-1715.05
-584.555
-4726.47
-3906.02
-2927.64
-1830.46
-629.54
-4880.81
-4055.8
-3053.62
-1915.03
-659.698
-13766.2
-11705.8
-10068
-9250.16
-8306.91
-9218.11
-6738.24
-5305.31
-4014.54
-2068.35
-9970.63
-8207.49
-6503.62
-4916.91
-2402.93
-7427.09
-5790.28
-4467.75
-3097.47
-1271.11
-7858.04
-6417.35
-4895.26
-3229.75
-1225.29
-7847.99
-6104.74
-4705.4
-3254.44
-1322.72
-4120.61
-3414.16
-2579.61
-1635.23
-572.673
-5310.51
-4442.3
-3352.5
-2096.14
-716.585
-6414.05
-5304.22
-4005.25
-2540.94
-890.599
-492.82
-1399.55
-2218.53
-2987.38
-3715.6
-4394.81
-2594.9
-6975.33
-6639.28
-2544.72
-8876.61
-7442.6
-8894.48
-9853.44
-2349.97
-1517.96
-5457.79
-3166.81
-10405.3
-7364.32
216.229
-2107.27
-5820.07
-5464.14
-2052.23
-7562.16
-6082.72
-7471.68
-8420.78
-1946.13
-899.444
-4687.92
-1663.72
-8641.84
-4420.09
1506.59
-1542.91
-4436.7
-4155.38
-1508.35
-5989.25
-3674.67
-6078.49
-6743.21
-1470.45
-818.483
-3327.62
-1727.72
-6919
-1786.38
1643.13
-1140.18
-3444.59
-3295.49
-1156.15
-4600.07
-2256.6
-5067.05
-5971.38
-1109.58
-859.044
-2441.82
-1744.08
-6105.59
-389.148
1234.85
-924.42
-2929.41
-2848.81
-978.381
-3710.5
-1878.7
-4557.3
-5804.33
-881.051
-934.319
-1763.51
-1674.09
-5337.05
-171.389
127.315
-818.482
-2621.51
-2621.88
-888.39
-3443.2
-2133.21
-4229.88
-5553.65
-682.898
-733.24
-1464.1
-1640.78
-5250.61
-953.822
-466.552
-1387.38
-3397.15
-4924.46
-1902.93
-5505.86
-9610.11
-7229.33
-10425.7
-1020.35
-731.934
-3905.93
-2442.88
-1222.82
-9269.75
-4862.81
-1294.83
-3177.61
-4341.78
-1659.11
-5107.75
-8718.02
-6548.79
-8913.3
-1047.73
-653.675
-4060.17
-2325.94
-402.4
-9125.09
-3693.86
-1146.19
-2822.34
-3581.73
-1342.29
-4679.04
-7854.87
-5609.39
-7897.49
-938.426
-752.568
-3504.9
-2438.79
-610.878
-7438.34
-3558.37
-1000.35
-2564.33
-2998.85
-1100.43
-4397.6
-7193.49
-5031.46
-7222.42
-870.132
-767.756
-3273.92
-2559.68
-399.418
-6952.34
-3622.26
-910.877
-2321.34
-2681.47
-969.864
-4019.6
-6648.26
-4618.44
-6897.95
-821.208
-826.943
-2999.83
-2780.55
-531.515
-6717.21
-3718.27
-849.839
-2081.01
-2497.08
-896.65
-3724.1
-6579.15
-4307.23
-6688.74
-854.661
-954.6
-2683.46
-2648.19
-779.266
-6887.42
-4120.17
5939.73
7499.4
15566.7
22739.1
23145.1
39894
17798.4
45326.1
14511.1
31858.6
21719.6
32964.8
19476
25578.3
7355.36
8335.91
14550.8
16651.6
18815.4
18662.5
14833.9
18343.8
21865.4
19633.8
4887.76
3695.06
6000.63
4038.65
12277.3
9760.17
21033.5
15188.4
16250.5
16902.3
18025.6
17145.3
6279.76
4922.57
38577.6
51650.9
24913.2
30593.2
51946.1
67395.6
26872.4
30763.1
28566.7
40364.7
24911
33037.3
14555.6
23490.2
2621.47
897.223
2692.43
980.388
8363.47
3369.57
11535.2
4236.97
8176.14
3139.36
8726.81
2794.93
14914.2
4741.1
19251.8
6489.8
23666.1
11726.4
21663.8
12845.1
22242.6
14382.9
19558.6
14734.8
16990.1
10087.4
16978.1
8628.8
22349
14314
22397
14453.6
20653.4
15611.9
20903.1
15690.1
18358.3
11668.4
19017.9
11961.6
17333.1
7486.79
7988.59
9702.94
17406.6
8176.9
6951.7
9806.69
18364.8
7460.99
9069.74
9791.5
19279.7
7645.71
9873.55
10239.9
3383.94
3651.73
1157.97
2202.15
10513.1
11116.6
4039.62
7129.11
13515.6
15042.5
6466.12
10976.4
12258.4
1154.24
13447.3
16500.7
8910.94
817.292
7491.8
12044.2
19360.8
13291.6
9746.43
11792.1
10254.7
8803.26
13787
3172.98
2599.95
1789.19
1800.49
9835.42
8336.92
5925.83
5626.68
12269.8
10459.5
7674.3
6897.61
5876.59
7457.99
12095.3
12511
13911.1
12668.7
15674.2
13684.3
10504.2
8836.84
9008.13
9548.73
11871
9470.42
10785.5
7947.11
9307.11
6495.84
10776
7097.4
10191.5
4881.43
8728.3
9519.91
12507
16383.7
13751.7
20060.9
6928.47
7754.27
9014.62
3024.19
7770.51
15022.3
7367.17
16085.2
13610.7
24749.8
13846.1
26243
5852.71
12871.8
5309.9
13697.3
8068.35
6160.71
11186.4
4482.24
8343.66
1804.36
9776.12
890.154
7738.95
9178.28
11713.4
5439.03
6390.59
10803.8
10355
7121.18
2051.99
1833.18
1681.16
1512.52
1405.18
1278.54
6873.16
5689.25
4960.26
4400.82
3574.32
3121.56
8449.79
7355.87
6824.83
5275.39
4359.92
4143.63
6605.21
5906.26
5783.8
10961.2
8445.36
7160.33
10258.1
7689.32
6292.48
10784
8614.35
7536.74
6606.2
4417.96
3478.07
15775.1
13791
12035.2
10078.8
8484.57
7122.27
8883.18
6998.72
5660.96
7403.5
5424.45
4230.74
7523.44
4237.7
2432.09
10255.9
13934.4
8088.12
10496.1
11005.8
16203.8
9814.19
14332.2
87.2393
643.17
-415.126
61.9128
2961.73
3436
1225.64
740.092
668.742
2385.37
9335.71
13656.3
6625.36
3608.57
9790.26
9719.23
15044
16569.2
-602.713
-4078.95
7511.19
7087.26
7096.64
5478.05
899.82
501.076
556.645
224.381
2058.82
241.235
-285.337
-832.855
9204.77
2431.09
6202.69
1641.03
8948.98
2744.09
10836.6
3513.48
8750.06
11874.6
8102.72
11594.9
14000.2
14868.8
13374
14097.2
5649.64
9467.39
6512.61
9396.47
8602.06
11180.1
9493.29
11306.9
13937.9
13857.1
14599.3
13926.2
5706.79
9173.73
6213.08
9355.55
-39.4965
1470.05
7560.73
4888.71
-611.984
1052.28
7005.07
4329.82
413.562
1718.67
7739.14
5322.19
872.387
1992.48
7794.53
5522.79
-644.443
-742.139
164.507
24.4611
-2866.12
-2912.26
-178.406
-322.505
-541.024
-1948.29
1776.74
1138.68
-10245.6
-9496.59
-5558.16
-4227.87
-359.751
-10428.8
-10805.6
-4327.45
-6378.05
-740.724
10148.9
8024.61
7228.38
6877.99
4324.13
-781.431
-733.126
-39.3734
68.8809
-2548.15
-2556.99
-18.0673
249.684
-2586.71
-3205.1
805.772
1176.02
-5136.36
-2374.55
-8214.25
-5210.43
-3662.12
-2817.54
-4119.84
-3626.17
591.28
1600.45
3741.26
2366.55
1034.48
-1045.05
1062.15
-746.019
1854.94
492.195
2352.28
2711.22
5261.37
4834.82
9992.32
6052.54
8094.03
8189.88
12292.2
9984.38
7992.62
4761.94
4026.09
4025.61
11773
5229.14
12951.3
5862.97
13709.1
10190
14631.6
10915.9
9675.44
3898.7
10836.2
4511.88
6477.57
5237.9
5202.87
7729.21
4244.24
4825.31
4468.94
7169.46
7452.35
5200.47
5868.14
8864.72
9010.37
5653.58
7269.75
9160.22
-770.269
-818.179
-924.427
-36.6581
-301.806
-336.853
-2920.37
-3161.62
-3182.56
-167.417
-861.817
-878.483
-3710.91
-4208.44
-4347.55
685.179
-844.923
-1162.72
-1304.12
-1124.7
-824.23
-3906.87
-4026.2
-3774.14
-3202.88
-3666.96
-3625.84
-3961.46
-4327.62
-4250.14
1503.86
-365.077
-515.401
3431.6
1939.16
1006.82
-1079.69
-2271.78
-2909.37
-1015.32
-2560.67
-3237.1
-417.466
-2109.62
-2600.98
2539.25
-528.653
-898.093
-21.1815
-36.7695
-50.6074
-77.2133
-255.384
-147.743
-125.413
-123.947
-1.00128
-81.1518
-194.762
-309.357
-440.061
-292.658
-333.709
-368.449
244.857
-31.6987
-276.931
-546.732