/*--------------------------------*- C++ -*----------------------------------*\
| =========                 |                                                 |
| \\      /  F ield         | OpenFOAM: The Open Source CFD Toolbox           |
|  \\    /   O peration     | Version:  2306                                  |
|   \\  /    A nd           | Website:  www.openfoam.com                      |
|    \\/     M anipulation  |                                                 |
\*---------------------------------------------------------------------------*/
FoamFile
{
    version     2.0;
    format      ascii;
    arch        "LSB;label=32;scalar=64";
    class       volScalarField;
    location    "2.4";
    object      gradTz;
}
// * * * * * * * * * * * * * * * * * * * * * * * * * * * * * * * * * * * * * //

dimensions      [0 -1 0 1 0 0 0];

internalField   nonuniform List<scalar> 
5712
(
7141.85
23472.9
5664.25
24073.6
4258.44
24919.1
6734.67
38476.8
8279.45
52918.9
8210.55
38506.9
7912.62
31936.7
8223.01
28522.1
4975.17
3063.52
13298.2
7872.49
4881.95
2628.82
14586.3
7237.99
5423.35
3910.41
17400.3
12191.9
4100.2
2930.66
17117.9
12388.1
9611.73
4061.91
8285.47
3683.05
3796.89
8944.99
33373.9
9055.05
11939
4052.52
43055.9
11705.9
11208
3894.06
23791.6
7388.96
12202.3
4264.78
20647
6570.93
5687.35
2819.77
8513.98
3305.4
6150.82
3328.5
8309.61
3175.16
7844.07
4462.88
7160.05
3097.11
10649.9
3816.86
3668.04
1277.31
12034.5
8306.97
7465.48
5441.29
13562.1
11149.6
7417.84
6420.07
7033.34
4720.99
9860.79
6548.84
4933.15
3618.13
2521.57
2064.86
4793.74
4141.59
2499.1
2407.35
4709.29
3070.44
2425.27
1548.31
6255.8
3391.61
4662.43
5656.52
8518.09
6056.21
6718.63
9647.37
4155.72
1962.26
2757.78
3248.06
2072.37
856.97
1195.19
1205.24
7413.31
13314.1
5043.42
14884
8719.24
13051.4
6216.32
15615.2
9943.79
11844.3
8035.96
15292.7
11975.1
14430.8
8879.69
8515.84
9351.68
14401.4
13155
12787.2
13040.7
18893.4
11700.9
8889.7
7608.07
8506.7
13429
15373.3
13682.9
17850.6
17095.5
14076
13008.1
17651.9
16757.3
12192.5
11853.1
16586.7
16172
10488.5
8192.72
9616.88
8317.4
10423.3
9225.94
11135.3
10604.4
15324.8
15591
9812.77
8443.55
9247.66
8772.1
9455
9894.79
10602
11779.7
13848.8
15875.5
8072.03
6330.15
5560.72
7101.15
11016.4
13466.6
7655.41
12140
4673.07
6174.83
6938.15
5706.29
1328.74
4720.51
702.279
1701.27
3917.42
8178.83
1457.39
2842.95
603.205
3976.22
350.604
1395.16
4572.79
4649.92
5194.99
3202.05
7220.55
5751.86
8492.87
5817.25
1039.19
2544.96
2572.55
1446.13
1444.99
1881.67
2052.28
1547.19
10851.4
6571.01
2058.11
12301.5
7034.1
2298.22
10404.3
6501.88
2185.39
12123.5
7045.91
2296.42
9575
5966.47
1955.67
11849.3
7090.24
2364.91
5304
2835.81
755.301
6703.02
4398.25
1529.69
7932.77
5468.85
1884.17
9133.16
5890.47
1951.39
11750.5
7297
2551.9
6328.58
3520.52
1104.45
6260.52
4491.52
1689.55
7378.36
5446.9
1993.51
9233.12
6465.71
2304.98
11877.3
7374.67
2609.02
297.487
2002.46
2825.89
4087.92
2151.24
2478.51
5411.45
5143.19
601.022
1038.71
641.816
1082.19
487.625
1418.42
870.715
1861.2
3224.05
1578.39
4079.7
2357.8
2179.43
3801.05
3394.12
961.842
6015.86
1491.61
-1860.81
762.084
1809.49
1365.28
1265.83
1189.29
9893.08
4612.74
2707.54
1706.34
10049.3
4799.56
3400.23
2154.87
9925.75
5171.86
4942.65
3521.31
3537.74
2579.68
1781.46
1716.35
12574.7
11194.2
5930.95
6164.64
13415.8
12603.2
6624.13
6688.84
5328.87
5496.98
10899.6
9140.46
3555.09
3720.52
2012
2274.73
4094.94
4072.02
2271.52
2426.7
3138.27
3381.37
1786.69
2175.74
4803.9
3435.24
4817.78
3508.63
7465.15
4540.17
7158.08
4852.74
2914.93
2490.42
3056.7
2274.61
1656.87
1575.34
1950.82
1337.95
11807.1
8415.71
6083.45
6310.16
11758.2
8595.76
6121.91
6280.22
12182.1
8882.86
6209.91
6095.41
13797
14753.1
12705
8629.84
5060.68
13981
13101.9
12341.3
10369.9
6945.63
13111.3
11973.8
9692.23
7597.25
4918.14
7324.88
6649.96
6951.62
8094.25
7504.52
6495.42
6999.59
7966.46
7746.05
6375.63
7036.37
7818.91
10554.4
7438.69
9995
6989.54
8022.07
6553.89
7660.49
6667.12
6510.78
7716.45
8762.31
7601.08
7864.68
6903.38
6844.58
6275.09
6200.21
6260.33
5151.22
7351.23
7030.09
4761.09
4676.6
2781.87
9071.87
6991.18
6319.53
5066.23
3887.47
2354.45
5641.78
4213.45
4740.64
2238.95
1748.33
1007.98
4970.42
3586.49
1749.28
1447.26
4153.1
1874.44
1645.11
873.054
3333.11
3131.56
3038.91
4516.97
4641.73
4479.72
3889.51
5810.36
3341.64
2220.84
2180.7
3046.44
1031.91
512.903
268.749
596.467
4637.63
1932.06
568.796
5400.43
1390.66
369.168
4665.2
2076.5
636.452
5372.83
1442.33
401.375
4304.81
2032.96
524.058
5253.44
1460.89
341.029
4564.42
2284.57
494.375
4239.03
2027.09
467.99
4279.2
2041.98
548.088
4357.8
2036.61
425.682
5214.85
1427.5
211.931
5823.26
2898.85
759.835
5372.44
2659.55
720.177
5006.94
2468.2
715.092
4875.23
2071.58
504.217
5640.74
1327.31
322.426
1824.54
659.104
128.818
-212.498
758.934
289.942
78.4161
-42.8851
1935.58
724.325
185.707
-131.372
964.622
404.256
193.98
90.6641
2083.12
808.273
282.682
-6.99639
1656.39
782.174
310.902
73.2503
1266.76
725.631
271.594
-5.01496
1197.76
798.149
477.605
289.456
1732.84
776.5
242.744
-185.177
1489.71
658.103
290.658
-188.546
2047.67
799.105
257.541
-137.676
1857.73
728.364
290.334
-311.498
1394.83
727.232
297.914
-57.3644
1147.6
585.279
316.845
3.84547
1037.24
646.296
392.15
245.459
794.913
498.574
338.39
203.08
2331.09
794.924
124.73
-421.346
2322.01
733.728
177.046
-576.74
2330.35
807.817
147.157
-400.636
2250.67
714.591
185.899
-558.679
2288.51
812.884
226.862
-285.49
2101.31
677.551
231.497
-457.493
2007.56
753.337
317.056
-39.6888
2305.26
760.468
329.144
-535.093
1800.62
676.378
320.199
-126.48
1851.33
518.519
160.267
-391.779
739.679
188.724
44.4429
-82.0734
1909.69
553.955
180.611
-373.011
769.627
204.201
57.618
-67.0828
1940.18
594.112
225.852
-327.043
781.714
221.879
75.2894
-48.4906
1748.65
561.428
261.268
-257.751
757.836
229.577
103.818
-15.4097
1601.05
560.128
287.446
-149.487
676.863
242.724
142.678
29.9756
1121.63
456.336
225.303
-43.6346
637.93
319.841
197.694
106.343
1293.69
461.187
224.832
-107.219
642.518
276.814
170.471
68.5838
905.847
444.182
250.479
41.3058
574.849
338.856
219.735
143.249
642.541
405.704
281.373
177.737
482.641
339.406
242.483
185.854
-19.0226
8.43522
8.63612
6.14367
4.74099
-2.81493
5.66619
4.8695
3.39554
2.6209
10.1362
24.0378
17.5931
11.7721
8.94357
28.7576
23.4075
15.224
9.90922
7.4752
42.254
43.1225
28.9867
19.1133
14.4881
117.792
79.4019
49.4134
31.8836
23.9999
141.98
93.8812
58.3551
37.729
28.4804
206.431
124.44
75.1525
48.159
36.2986
74.9507
63.1265
40.997
26.7907
20.1864
80.0656
59.5156
37.807
24.6467
18.5801
51.4445
50.5191
33.436
22.0439
16.6895
94.3764
61.6142
37.8441
24.4997
18.4148
97.8815
75.4599
48.4085
31.5734
23.85
107.342
71.2757
44.3065
28.7098
21.65
164.117
100.269
60.6985
38.9242
29.3247
137.115
82.7826
50.033
32.0812
24.1302
-35.162
4.36903
6.41035
4.71876
3.67046
-19.2145
1.39405
2.51484
1.88772
1.48772
-16.0357
14.1558
11.9489
8.19472
6.28919
-12.3836
4.86187
4.44484
3.07961
2.38836
8.09214
25.5364
18.2497
12.1976
9.33883
13.389
16.3756
10.6923
6.91865
5.274
61.5476
49.7809
31.7249
20.7881
15.8174
40.9868
31.4275
19.5891
12.7349
9.69259
113.85
65.2659
38.8476
24.8827
18.7044
1584.82
3625.08
1594.73
3584.53
1735.57
3551.72
2068.97
3695.85
2164.05
3819.25
864.512
1351.42
1425.37
2284.07
457.263
658.61
161.43
218.311
8286.93
1976.74
452.371
100.883
25.0174
2255.78
606.926
161.27
36.6226
7.94425
8202.51
1940.43
443.581
98.0841
24.5013
2295.16
676.794
166.626
38.6886
9.59255
7855.98
1845.06
420.106
92.758
23.1947
2227.75
654.698
160.77
37.1438
9.24269
7224.54
1681.25
381.556
84.1575
21.0466
2167.17
623.642
151.15
34.6098
8.565
6078.86
1407.04
319.428
70.5379
17.6601
2052.97
574.721
137.749
31.3394
7.73145
2900
701.824
162.016
36.0277
9.03158
1002.51
285.137
67.7742
15.1471
3.72685
4305.88
1027.41
235.371
52.091
13.0396
1475.46
414.265
99.3296
22.5838
5.60836
1705.88
416.164
96.5124
21.5645
5.41547
560.185
165.808
39.1526
8.74367
2.1713
589.301
142.893
33.2079
7.44367
1.86999
224.193
59.9949
13.068
3.67954
0.707324
137.403
509.003
4522.3
-825.617
747.139
800.712
2335.34
2989.47
1880.11
3527.95
2958.43
4563.48
3562.93
4422.31
1852.43
2495.66
1978.8
2347.02
1029.37
1070.29
2299.25
1685.21
519.834
-451.052
-748.627
-898.057
-265.42
12875.3
3097.03
4224.01
2734
-157.603
-26.3797
2968.93
-1390.3
-770.841
-1064.36
-547.37
7069.77
3730.15
1292.32
1063.42
3663.26
2031.92
653.306
1392.48
-1469.7
-845.18
713.102
568.415
8672.87
4303.67
5321.15
2856.62
4087.01
4459.01
1550.4
-875.235
939.955
1634.34
1345.66
1167.51
1059.92
821.37
1337.46
1080.66
849.507
602.14
260.783
457.415
381.294
290.989
186.157
65.0643
-402.794
-336.016
-250.678
-153.992
-51.852
-668.965
-558.757
-417.715
-257.163
-86.6727
-803.645
-672.495
-503.782
-310.718
-104.834
-230.956
-184.703
-129.678
-74.3171
-23.6811
9363.16
8161.57
7016.94
6490.48
6080.73
2768.35
2448.48
2298.82
1930.31
1025.96
3237.7
2588.63
2190.23
1726.71
908.377
2109.37
1709.77
1494.56
1159.42
488.985
-4.11296
38.1988
148.418
161.663
80.764
68.403
147.648
187.541
164.78
70.2221
2524.73
2115.6
1673.47
1170.94
483.185
-844.304
-413.616
-164.145
-30.9465
5.96456
-614.11
-437.688
-265.611
-127.266
-33.2471
-752
-468.267
-243.364
-96.6243
-20.5969
-495.67
-412.051
-301.21
-179.414
-58.4492
5258.5
4781.57
4160.77
3875.33
3652.39
2873.27
2273.72
1894.37
1446.93
710.868
1196.87
1083.59
920.39
662.184
262.618
938.562
805.515
650.032
447.823
170.895
3057.87
2470.86
1887.54
1259.09
486.882
1802.51
1532.84
1207.72
804.204
292.169
570.547
479.447
375.329
249.608
91.4277
1229.69
1030.87
792.107
510.609
180.066
-1275.27
-1029.51
-743.923
-445.363
-147.425
-743.642
-606.893
-440.049
-262.234
-86.1868
639.682
553.875
446.93
304.639
113.172
512.441
446
361.016
245.575
90.323
5615.52
4117.03
3564.95
3308.23
2924.77
3291.65
2566.4
1990.36
1426.39
646.257
3924.34
3224.95
2620.2
2048.12
1006.28
2285.83
1867.86
1459.76
1028.83
450.511
3483.14
2854.09
2185.25
1439.22
534.367
3380.12
2506.13
2039.1
1536.95
654.707
1356.32
1129.76
867.556
562.486
200.381
-776.83
-641.458
-471.73
-285.136
-94.7159
830.96
712.445
573.382
392.606
146.919
-27287.7
-44721.5
-22620.6
-36204.3
-24263.7
-50902.9
-29046.1
-64632.9
-17274.4
-11803.1
-19455.9
-12101.1
-15942.5
-10233.6
-19758.9
-10379.3
-22549.3
-16969.7
-32869.9
-23656.5
-19366.2
-15416
-27477.8
-20624.6
-15534.1
-15857.2
-12746.2
-12238.1
-14993.2
-14136.8
-37973.3
-10472.4
-14438
-5383.99
-46468.9
-12873.6
-12909.4
-4787.36
-28225.9
-8887.08
-14783.1
-5656.96
-25079.9
-7797.65
-11625
-4673.8
-14824.7
-5368.81
-11031
-4847.48
-12887.4
-4661.43
-11437
-5543.13
-10295.3
-4083.12
-13212.6
-4661.91
-4636.22
-1626.98
-9866.32
-6539.16
-8515.83
-5181.4
-8712.54
-6998.59
-7476.21
-5327.48
-8656.01
-4913.5
-10130.9
-6299.7
-5832.27
-3472.98
-3137.06
-1922.86
-5031.49
-3465.16
-2609.97
-1854.54
-5925.7
-3213.53
-3273.85
-1637.53
-7626.37
-3869.88
-4922.12
-5734.97
-9672.43
-6495.84
-6927.22
-9675.94
-5173.54
-2319.08
-2947.15
-3313.48
-2795.71
-1124.82
-1330.51
-1257.49
-11412.1
-13870.6
-6427.45
-15681.6
-11867
-13237.7
-7381.99
-16036.3
-11997.1
-12060.2
-8798.85
-15266.4
-8218.16
-6635.71
-8990.05
-9956.61
-9930.36
-9091.85
-10483.4
-12146.5
-13043.5
-18522
-6238.48
-6420.91
-6979.88
-8445.19
-13215.7
-13162.2
-9179.61
-16694.3
-12836.8
-12201.9
-9036.75
-16448.6
-12784.7
-10802.9
-8440.72
-15352.6
-12655.4
-7461.56
-5941.75
-7672.95
-6127.31
-8555.8
-6899.66
-9337.24
-7903.48
-13992.6
-12721.9
-7012.68
-6041.64
-7023.33
-6065.12
-7709.4
-7168.67
-9254.59
-9140.84
-12927.5
-13275.3
-6427.03
-5132.48
-4729.03
-6216.9
-8069.94
-11188.4
-6102.86
-10333.4
-4329.76
-5733.7
-6186.4
-5059.11
-811.459
-4094.81
-234.217
-1205.75
-2926.88
-7103.32
-640.655
-1978.86
-391.145
-3655.74
-135.635
-1130.25
-4450.44
-4437.16
-5126.47
-3079.35
-6892.39
-5356.42
-8295.75
-5448.58
-968.484
-2396.38
-2521.05
-1364.88
-1361.9
-1750.71
-1996.11
-1468.31
-5566.7
-1914.93
-7529.85
-2569.8
-5690.67
-1998.18
-7708.49
-2768.13
-5645.88
-1967.46
-8166.44
-3152.44
-3489.23
-976.349
-4334.12
-1666.64
-4879.71
-1897.52
-5865.43
-2224.02
-8619.59
-3437.1
-4451.56
-1344.59
-3965.87
-1974.15
-4775.22
-2288.56
-6450.52
-2831.43
-8928.96
-3378.72
-6028.3
-5659.91
-4518.36
-4453.61
-10091
-7718.9
-8183.17
-6787.05
-4105.02
-3592.27
-1675.57
-1214.57
-3864.62
-3763.72
-1536.93
-1614.39
-2896.83
-4569.55
-3461.86
-4938.61
-3739.98
-2424.12
-3140.26
-460.946
-6648.27
-1715.22
2606.19
474.394
-879.882
-238.891
276.798
722.212
-2470.49
-1776.27
-915.48
-559.114
-2619.17
-1880.64
-1360.19
-641.878
-2919.32
-2254.46
-1790.58
-878.806
-1137.77
-56.4172
688.501
1116.27
-5021.59
-5420
-3860.5
-3630.25
-6744.42
-6767.75
-5586.17
-4699.26
-2538.02
-2862.7
-3829.81
-4429.87
-2317.58
-2022.76
-951.878
-879.518
-3573.78
-2808.39
-1794.9
-1410.93
-1298.6
-1476.89
-195.611
-554.149
-1696.72
-1231.86
-2477.18
-1841.81
-2688.23
-2247.5
-3839.74
-3027.67
-592.631
-365.913
-1196.51
-720.452
418.126
545.426
-290.314
162.642
-3625.38
-4597.63
-3130.2
-4676.37
-3582.77
-4578.85
-3203.12
-4668.65
-3765.15
-4227.04
-3378.84
-4435.04
-2805.75
-4663.63
-2424.35
-2177.26
-2426.19
-7022.65
-4999.92
-4639.92
-4884.22
-5124.75
-5631.77
-4755.49
-4065.09
-3839.89
-3096.96
-5494.93
-5546.53
-7255.78
-11220.4
-5194.44
-4983.1
-6960.73
-10689.1
-4759.08
-4577.68
-6422.95
-9847.18
-6860.41
-5268.08
-6216.57
-4732.71
-5476.23
-4368.53
-5648.97
-5217.97
-5948.65
-9103.55
-5559.6
-5249.92
-4739.93
-4766.46
-4303.46
-4564.76
-4493.71
-5380.04
-4203.13
-7999.02
-3878.54
-2770.74
-2650.11
-955.158
-5555.02
-4873.51
-4303.05
-3164.6
-2068.24
-749.802
-3178.62
-2553.93
-3197.21
-965.791
-434.134
123.6
-3579.43
-2336.51
-624.065
-356.771
-2648.79
-716.366
-281.473
186.009
-1924.72
-2019.88
-2141.83
-4046.38
-2995.31
-3419.91
-3069.35
-5650.37
-2032.87
-1311.65
-1169.37
-2453.13
249.068
389.927
810.749
117.188
-3973.42
-1156.08
-7545.74
-763.784
-3710.03
-1244.19
-7334.06
-792.542
-2835.86
-750.493
-6667.8
-621.783
-2893.93
-644.493
-2679.84
-619.759
-2934.7
-891.386
-3100.22
-578.604
-6271.79
-802.581
-4041.23
-786.023
-3744.39
-599.404
-3831.44
-753.04
-4285.64
-636.749
-6586.49
-792.721
-778.148
-156.039
182.045
450.196
-260.895
-38.2032
70.9098
142.085
-766.029
-120.308
199.346
423.552
-175.843
37.6501
74.5469
84.0133
-782.974
-78.6744
200.2
373.056
-2.64384
251.758
391.87
433.062
563.79
492.902
565.568
588.636
1027.39
735.482
569.448
419.658
-336.876
131.579
404.447
679.647
-274.049
185.137
321.661
681.22
-845.955
-62.8754
263.377
562.674
-647.509
66.2962
287.931
834.897
141.062
324.296
432.901
577.353
64.362
288.475
324.616
491.086
599.896
503.371
422.629
337.025
420.518
394.078
326.56
309.909
-1240.06
-271.062
216.322
733.939
-1550.57
-322.638
81.1922
916.142
-1189.21
-233.388
235.087
747.641
-1490.86
-297.698
82.6133
906.034
-1105.5
-176.114
189.706
646.524
-1353.04
-250.299
49.6293
823.361
-733.873
-29.5158
173.469
467.056
-1399.88
-211.274
52.4044
1022.78
-683.857
28.3516
199.97
646.253
-1444.6
-247.873
11.7605
644.789
-629.665
-94.9314
26.9837
163.652
-1349.16
-211.724
30.6995
647.264
-599.076
-83.0134
30.5348
161.298
-1155.91
-141.321
39.3458
628.355
-509.875
-53.4812
44.2111
168.367
-947.668
-82.9934
23.0956
563.214
-417.009
-23.4259
44.614
161.339
-691.917
11.646
72.4176
482.5
-214.705
45.2
59.9923
157.141
-306.272
140.071
225.659
449.56
104.045
212.678
189.996
222.478
-568.808
39.9861
143.029
461.594
-18.9928
136.413
124.39
190.04
11.5559
247.101
273.187
406.185
226.45
272.866
235.639
235.718
327.04
336.403
280.089
291.286
349.878
316.029
247.226
216.467
100.786
29.1446
11.938
6.63684
4.81517
42.6343
13.9406
6.09575
3.45487
2.50824
117.751
42.3005
20.4418
12.1875
9.03757
67.7094
30.5599
16.4376
10.1634
7.61378
144.833
59.1556
30.7767
18.753
13.9767
171.512
88.5313
50.4261
31.6744
23.8362
190.254
102.223
58.8784
37.0193
27.7994
212.581
125.432
74.8441
47.6526
35.8814
173.141
77.9742
42.5184
26.3294
19.7915
146.807
68.7833
38.0473
23.5961
17.7349
156.313
64.08
33.8653
20.6737
15.4409
128.929
63.9731
36.3292
22.6475
17.0611
186.036
89.5068
49.8106
31.0002
23.2668
150.083
77.7519
44.4044
27.8308
20.954
177.101
102.019
60.5231
38.468
28.9537
147.51
84.3544
49.8929
31.6678
23.8446
109.521
25.8452
9.62091
5.16483
3.70659
50.8481
10.406
3.64612
1.89953
1.33724
117.945
33.5018
14.6928
8.48188
6.20608
53.9116
13.199
5.51786
3.13934
2.26794
121.549
40.4832
19.7109
11.7563
8.64703
60.8387
22.0637
11.5631
7.15062
5.29337
134.939
56.586
30.5485
18.7018
13.8728
79.9724
33.9557
18.7112
11.5521
8.56496
113.789
63.0187
36.9417
23.2866
17.5327
-1771.68
-3336.31
-1817.39
-3338.73
-1971.45
-3357.74
-2158.03
-3440.94
-2084.56
-3454.54
-815.832
-1274.7
-1358.95
-2121.99
-405.987
-602.277
-106.283
-165.524
-8511.03
-2012.73
-457.788
-101.605
-25.0906
-2289.57
-617
-163.409
-36.9397
-7.97334
-8365.61
-1966.06
-447.354
-98.5495
-24.5339
-2334.22
-688.295
-168.706
-38.9976
-9.62962
-7913.93
-1853.79
-421.221
-92.8213
-23.1617
-2258.87
-663.025
-162.205
-37.3409
-9.26082
-7184.63
-1674.3
-380.173
-83.8343
-20.9505
-2170.1
-625.833
-151.523
-34.6349
-8.55456
-5999.09
-1393.09
-316.82
-70.0176
-17.5337
-2022.04
-570.666
-137.082
-31.1983
-7.69331
-2868.41
-694.333
-160.365
-35.6787
-8.948
-974.564
-278.899
-66.4997
-14.8907
-3.66812
-4250.07
-1015.61
-232.969
-51.6044
-12.9254
-1439.31
-407.903
-98.1661
-22.3558
-5.55588
-1687.58
-411.722
-95.4818
-21.338
-5.35955
-537.991
-160.214
-37.8946
-8.47698
-2.10774
-576.578
-139.881
-32.494
-7.28212
-1.82912
-204.247
-54.8289
-11.844
-3.40847
-0.641344
182.191
-1054.73
-5350.98
879.691
-6377.88
-2799.99
-6172.63
-2835.12
-11237.4
-5988.93
-12601.3
-6676.46
-132.207
-522.565
-820.525
-966.977
-867.71
-349.735
-216.79
-811.388
-1232.03
-1361.52
-1098.2
-373.614
-112.19
-120.053
-418.713
-421.587
-598.801
-592.383
-577
-546.475
-515.299
-494.009
-400.24
-360.113
848.21
2192.03
3552.98
2520.27
2317.35
1116.01
798.21
2286.13
3699.14
4285.83
3576.99
1630.17
-119.206
-100.748
-76.3279
-47.5549
-16.1457
-471.858
-399.528
-303.283
-189.261
-64.3148
-740.861
-627.244
-476.116
-297.113
-100.968
-872.812
-738.683
-560.497
-349.671
-118.81
-783.084
-662.535
-502.464
-313.289
-106.407
-317.45
-269.788
-204.827
-127.411
-43.1405
-195.362
-165.005
-124.938
-77.8108
-26.4137
-732.223
-619.56
-470.023
-293.196
-99.6163
-1111.52
-940.233
-713.161
-444.835
-151.141
-1227.49
-1037.59
-786.556
-490.464
-166.63
-989.328
-835.586
-633.007
-394.579
-134.043
-337.664
-285.964
-216.874
-135.101
-45.8429
-101.228
-85.6302
-64.9335
-40.4836
-13.7493
-108.39
-91.7559
-69.631
-43.4389
-14.7582
-378.22
-320.385
-243.307
-151.879
-51.6174
-380.878
-322.693
-245.102
-153.02
-52.0092
-540.846
-458.097
-347.855
-217.124
-73.7892
-535.016
-453.117
-344.043
-214.732
-72.9745
-521.131
-441.356
-335.079
-209.1
-71.0491
-493.294
-417.516
-316.802
-197.624
-67.1401
-465.288
-393.825
-298.681
-186.159
-63.1983
-445.364
-376.342
-285.064
-177.565
-60.2741
-361.648
-305.922
-231.405
-143.652
-48.6067
-324.35
-273.616
-206.727
-128.412
-43.5042
753.74
629.581
475.126
297.406
101.732
1939.86
1616
1219.5
765.64
263.216
3108.58
2573.37
1945.6
1234.88
432.129
2190.14
1809.24
1372.19
875.835
307.772
2045.73
1694.98
1279.49
802.284
261.049
1015.98
859.523
657.952
413.598
131.331
710.277
593.571
447.468
279.425
95.3576
2029.38
1693.29
1276.53
798.54
273.243
3263.91
2712.58
2044.92
1284.63
442.431
3756.82
3109.47
2344.83
1479.96
513.333
3135.27
2595.05
1958.79
1237.61
427.733
1444.27
1207.97
919.746
583.858
201.519
288.649
677.037
970.679
1110.33
1000.89
486.451
433.957
1022.59
1428.28
1528.96
1222.85
456.453
235.37
223.997
537.698
522.438
707.712
684.258
667.986
617.564
597.563
508.038
538.38
404.833
-691.741
-1954.61
-3141.87
-1969.9
-1644.82
-379.99
-729.253
-2174.55
-3452.13
-3841.61
-2938.25
-868.998
261.104
221.57
168.584
105.401
35.8539
612.076
519.008
394.585
246.549
83.843
877.297
743.666
565.215
353.086
120.059
1003.33
850.32
646.151
403.592
137.224
904.726
766.985
582.926
364.107
123.793
442.578
377.485
287.983
180.023
61.1576
392.447
332.925
253.243
158.304
53.8461
924.055
783.156
595.148
371.763
126.409
1290.02
1092.73
830.018
518.325
176.223
1380.12
1168.34
887.031
553.801
188.276
1103.26
933.51
708.52
442.316
150.384
413.441
351.143
267.169
166.909
56.7336
212.927
180.702
137.497
85.9659
29.2425
202.633
171.956
130.832
81.7936
27.822
486.186
412.347
313.553
195.939
66.6328
472.396
400.652
304.658
190.378
64.7414
639.781
542.49
412.418
257.672
87.6171
618.525
524.403
398.621
249.03
84.6754
603.943
512.164
389.386
243.277
82.7175
558.095
473.029
359.464
224.516
76.3301
540.634
458.745
348.868
217.945
74.0888
459.019
388.938
295.451
184.468
62.6994
488.394
415.358
316.188
197.442
67.0554
366.084
310.374
235.77
147.121
49.9738
-610.822
-506.834
-380.599
-237.778
-81.3666
-1723.36
-1430.43
-1076.98
-676.046
-232.721
-2730.81
-2246.45
-1692.19
-1074.59
-377.53
-1669.6
-1344.81
-1000.39
-633.037
-222.533
-1402.98
-1117.4
-812.813
-493.234
-150.058
-310.67
-223.743
-142.379
-70.8078
-8.23065
-647.632
-540.155
-406.649
-253.841
-86.649
-1928.42
-1607.61
-1211.42
-757.964
-259.498
-3038.14
-2518.53
-1895.44
-1190.39
-410.288
-3345.78
-2751.1
-2064.42
-1300.52
-451.418
-2539.03
-2070.47
-1544.19
-969.451
-334.241
-731.01
-577.764
-419.368
-258.776
-87.8557
-1404.15
-885.405
-216.446
708.886
1010.62
1285.26
612.53
-10717.3
-1643.61
-3084.7
-1478.31
285.421
-3944.04
872.492
2505.42
1200.18
-5804.63
-2622.03
-403.742
-510.969
-3310.9
-1221.29
-220.562
-984.108
2193.01
1389.88
-478.207
-125.288
-7642.26
-3543.3
-4192.02
-2015.24
-3477.33
-3252.81
-1033.27
1410.99
-335.829
-674.386
-443.564
-391.761
-504.824
-593.265
-542.421
-344.674
-235.72
-180.164
-101.622
-178.028
-139.057
-102.671
-66.4758
-24.0226
641.289
543.904
413.249
257.894
87.6299
911.548
770.439
583.447
363.197
123.211
1159.31
980.068
742.543
462.512
156.971
555.627
471.079
356.028
220.077
74.0605
-7677.07
-6869.48
-6202.5
-6310.03
-6631.24
-1046.67
-704.55
-844.721
-1002.3
-718.651
-2155.8
-1585.82
-1384.99
-1228.51
-768.404
-943.461
-620.342
-578.904
-528.328
-240.516
263.328
214.935
142.307
66.1847
12.4746
-3287.12
-2692.11
-2075.03
-1416.31
-572.79
789.59
660.972
487.757
291.587
94.0031
2179.41
1781.62
1318.29
812.831
275.528
1077.6
903.782
677.84
417.779
140.351
-4047.58
-3767.37
-3426.75
-3525.3
-3753.36
-1789.27
-1276.95
-1092.21
-938.523
-551.61
-309.895
-258.892
-243.961
-218.637
-109.935
-408.348
-327.046
-266.081
-199.567
-85.8821
-2757.9
-2230.02
-1716.81
-1164
-461.149
-1024.53
-830.892
-643.698
-437.552
-164.827
-165.544
-121.926
-92.7607
-67.9237
-28.8393
-848.793
-696.345
-529.412
-342.824
-122.539
1958.43
1637.94
1229.45
760.807
257.115
1252.76
1055.86
795.181
491.297
165.476
-398.358
-322.827
-252.813
-175.081
-67.9626
-90.0845
-66.7811
-57.2353
-48.5703
-22.21
-4643.69
-3238.16
-2858.54
-2873.83
-2847.53
-2565.27
-1909.9
-1458.41
-1075.85
-522.878
-2780.67
-2187.53
-1768.27
-1488.17
-791.027
-1482.11
-1141.41
-873.276
-645.518
-319.01
-2914
-2352.77
-1791.66
-1189.1
-449.61
-2238.44
-1461.78
-1207.15
-1009.13
-478.255
-876.654
-710.696
-539.951
-353.972
-129.069
1273.69
1075.83
812.428
503.406
169.969
-255.768
-196.738
-161.062
-125.84
-54.8896
1.17764
44.4064
103.536
136.722
102.363
-3.45497
-19279.7
-17016.4
-16248.5
-18519.4
-14123.5
-11177.2
-12743.3
-9674.04
-16679.2
-14597.1
-15366.1
-14432.7
-13480.9
-11477
-14162.5
-15852
-14164.9
-13046.9
-14716.3
-11903.4
-10081
-10662.1
-8552.2
-14945.9
-13254.6
-13767.5
-12521.1
-11918
-11136.7
-11475.4
-12435.3
-11394
-10325.4
-11297.5
-9885.04
-8485.26
-8907.3
-7656.62
-12499.9
-11325.2
-11634
-10585.6
-10116.9
-9359.4
-9605.12
-8671.48
-8156.86
-7286.44
-7726.76
-7316.6
-6560.6
-6620.08
-6065.26
-8985.04
-9064.73
-8476.08
-8535.37
-7554.72
-6826.05
-7571.17
-5540.36
-5294.59
-4691.74
-4895.52
-4899.57
-4435.82
-4372.7
-4045.18
-5945.75
-5932.87
-5680.59
-5543.31
-5169.19
-4668.68
-5041.73
-1993.66
-1922.52
-1698.21
-1758.49
-1810.37
-1692.82
-1603.38
-1496.46
-2256.73
-2247.52
-2110.11
-2006.12
-1943.17
-1783.47
-1905.66
-7382.67
-7283.85
-10975.5
-11828.8
-6961.07
-6189.84
-9635.29
-7841.46
-5853.62
-4441.97
-5813.14
-4400.83
-5847.67
-5586.57
-4463.26
-7368.9
-6998.51
-9768
-10651.6
-6506.24
-5901.23
-8501.06
-7334.62
-5848.25
-3966.75
-5747.92
-4175.23
-5263.18
-5056.01
-4537.34
-6750.71
-6443.55
-8290.01
-8886.36
-6066.59
-5657.81
-7426.47
-6586.54
-4883.28
-4358.35
-4871.85
-4575.68
-4564.74
-4559.79
-4718.15
-5481.36
-5286.29
-6225.3
-6534.28
-5029.78
-4714.94
-5771.81
-5279.41
-4730.04
-3974.95
-4652.7
-4218.43
-4363.47
-4320.45
-4273.05
-3803.48
-3690.37
-4124.83
-4279.07
-3434.71
-3186.54
-3891.63
-3580.5
-3348.22
-3085.82
-3272.12
-3225.98
-3067.4
-3002.33
-3055.74
-1420
-1378.98
-1509.41
-1558.45
-1277
-1175.47
-1432.29
-1321.16
-1098.23
-1134.96
-1172.56
-1227.4
-1139.09
-1102.27
-1118.11
7109.47
22987.9
5633.01
24071.5
4242.27
24921
6730.5
38484.9
8274.59
52930.5
8194.19
38503.4
7878.89
31919.5
8199.71
27903.2
4968.07
3061.84
13299
7872.61
4880.45
2628.63
14589.5
7239.15
5389.41
3884.02
17051.5
11963.1
4079.74
2922.13
17132.2
12405.3
9617.7
4055.3
8285.91
3680.72
3792.2
8952.65
33382.9
9056.31
11941.1
4052.57
43066.1
11708.1
11210.2
3894.73
23803.9
7391.21
12205.7
4265.34
20663.3
6573.86
5631.63
2792.6
8363.64
3249.01
6151.52
3328.99
8323.6
3180.44
7843.14
4463.04
7164.58
3099.28
10658.7
3820.18
3670.16
1278.14
12033.4
8306.28
7465.31
5441.1
13560.4
11148.4
7417.98
6419.91
7033.47
4720.96
9860.04
6548.55
4933.53
3618.15
2521.22
2064.68
4794.38
4141.73
2499.16
2407.35
4710.08
3070.51
2425.04
1548.12
6256.61
3392.14
4662.6
5656.8
8517.95
6056.51
6718.7
9647.76
4157.03
1962.83
2757.95
3248.25
2072.51
857.067
1195.09
1205.25
7368.46
13308.8
5011.86
14874.7
8721.17
13047.2
6219.44
15612.2
9943.95
11843.3
8036.7
15292
11974.1
14428.7
8879.25
8516.26
9352.41
14399.4
13153.8
12786.3
13040.3
18893.4
11699.3
8888.82
7607.67
8506.7
13429.4
15395.9
13720.4
17855.8
17077.2
14069.1
13002.9
17644
16752.4
12189.9
11849.7
16585.4
16170.1
10487.1
8191.7
9615.82
8316.35
10422.2
9224.61
11133.8
10602.6
15324.1
15589.9
9811.65
8442.54
9246.84
8771.12
9454.32
9893.81
10601.4
11778.8
13848.9
15875
8071.54
6329.9
5560.52
7101.1
11015.5
13465.8
7655.01
12139.6
4673.03
6174.92
6937.91
5706.2
1328.61
4720.5
702.195
1701.24
3917.3
8178.66
1457.4
2842.92
603.115
3976.28
350.496
1395.13
4572.88
4650.03
5195.2
3202.13
7220.55
5751.88
8493.12
5817.31
1039.19
2545.01
2572.65
1446.16
1444.98
1881.69
2052.33
1547.21
10878
6584.51
2066.2
12307.7
7043.37
2301.4
10400.6
6500.81
2185.28
12120.4
7044.27
2296.2
9572.51
5965.23
1955.36
11847.4
7088.95
2364.56
5303.23
2835.31
755.134
6702.08
4397.61
1529.48
7931.51
5468.01
1883.89
9131.48
5889.42
1951.07
11749.3
7296.01
2551.56
6327.78
3519.99
1104.25
6259.6
4490.82
1689.28
7377.33
5446.08
1993.19
9232.07
6464.83
2304.64
11876.4
7373.8
2608.66
302.881
2004.54
2840.12
4092.37
2153.62
2479.6
5419.39
5145.76
584.152
1026.05
622.672
1065.22
491.929
1418.06
875.109
1860.4
3236.18
1583.61
4084.31
2359.1
2183.15
3808.99
3398.82
965.744
6018.7
1493.62
-1848.88
770.416
1815.19
1370.45
1275.51
1197.03
9905.33
4608.77
2696.49
1698.3
10040.6
4799.47
3398.13
2154.74
9920.86
5170.91
4944.08
3521.01
3541.76
2580.23
1786.38
1718.15
12571.2
11192.2
5931.94
6164.73
13413.2
12601.5
6624.69
6688.84
5329.92
5497
10896.1
9138.74
3557.25
3721.12
2013.77
2275.33
4096.26
4072.41
2272.37
2427.02
3140.73
3381.96
1788.98
2176.43
4804.32
3435.27
4817.7
3508.55
7462.8
4539.5
7156.86
4852.18
2916.73
2490.99
3057.15
2274.87
1659
1576.37
1951.46
1338.41
11837
8421.13
6085.61
6310.69
11750
8595.08
6120.64
6280.11
12174.4
8879.44
6208.22
6094.2
13792
14749.5
12700
8626.34
5059.63
13978.1
13098
12337.1
10366.3
6944.23
13108.9
11971
9689.79
7595.48
4917.39
7324.5
6654.02
6947.54
8088.17
7502.47
6495.09
6997.11
7965.37
7743.88
6374.14
7035.51
7818.26
10552.5
7437.52
9992.56
6988.12
8019.66
6552.41
7658.36
6665.66
6509.72
7715.53
8760.75
7599.88
7862.75
6902
6842.73
6273.73
6198.73
6259.15
5150.41
7350.31
7028.51
4760.1
4676.09
2781.42
9070.47
6990.25
6319.04
5065.75
3887.04
2354.07
5640.45
4212.57
4740.64
2238.82
1748.6
1008.09
4970.37
3586.33
1749.43
1447.31
4153.1
1874.35
1645.42
873.187
3332.79
3131.18
3038.7
4516.59
4640.79
4478.98
3889.01
5809.71
3341.64
2220.73
2180.74
3046.3
1032.23
513.047
269.042
596.588
4642.63
1937.12
571.34
5405.95
1399
371.276
4663.82
2076.67
636.47
5370.57
1440.83
401.412
4303.78
2032.62
524.035
5252.64
1460.27
340.899
4563.67
2284.13
494.236
4238.21
2026.67
467.861
4278.32
2041.56
547.971
4356.86
2036.18
425.555
5214.16
1427.15
211.822
5822.43
2898.37
759.67
5371.54
2659.08
720.025
5006.06
2467.76
714.952
4874.42
2071.18
504.083
5640.08
1327.09
322.358
1817.29
654.926
126.313
-213.444
751.432
286.121
76.5978
-43.6586
1935.9
724.399
185.671
-131.569
964.756
404.297
193.91
90.5168
2083.04
808.248
282.645
-7.11653
1656.28
782.154
310.882
73.1465
1266.86
725.695
271.647
-5.01023
1198.36
798.419
477.744
289.511
1732.87
776.535
242.771
-185.19
1489.76
658.154
290.697
-188.506
2047.51
799.075
257.54
-137.714
1857.62
728.351
290.343
-311.475
1395.06
727.352
297.989
-57.331
1147.77
585.39
316.917
3.89495
1037.68
646.52
392.274
245.519
795.195
498.74
338.493
203.145
2330.2
793.904
123.155
-422.522
2324.52
734.321
176.428
-578.509
2329.88
807.597
147.111
-400.736
2250.18
714.411
185.966
-558.561
2288.13
812.757
226.85
-285.492
2100.85
677.403
231.51
-457.399
2007.25
753.227
317.016
-39.741
2304.86
760.355
329.135
-535.026
1800.43
676.325
320.175
-126.531
1856.84
520.544
160.62
-394.286
743.237
189.878
44.5934
-83.0405
1907.1
553.144
180.454
-372.596
768.535
203.891
57.531
-66.8999
1939.6
593.895
225.854
-326.91
781.409
221.772
75.2786
-48.4073
1748.29
561.3
261.25
-257.685
757.655
229.509
103.802
-15.3817
1600.81
560.053
287.426
-149.457
676.754
242.681
142.659
29.9782
1121.64
456.371
225.333
-43.5998
637.952
319.863
197.707
106.353
1293.59
461.173
224.835
-107.192
642.469
276.797
170.461
68.5819
905.958
444.269
250.538
41.3564
574.949
338.926
219.779
143.28
642.739
405.837
281.46
177.802
482.804
339.52
242.556
185.907
-20.2011
7.67419
8.16407
5.82678
4.49047
-3.60015
5.14128
4.5267
3.15435
2.42482
10.1177
24.0291
17.5842
11.7641
8.9326
28.7597