/*--------------------------------*- C++ -*----------------------------------*\
| =========                 |                                                 |
| \\      /  F ield         | OpenFOAM: The Open Source CFD Toolbox           |
|  \\    /   O peration     | Version:  2306                                  |
|   \\  /    A nd           | Website:  www.openfoam.com                      |
|    \\/     M anipulation  |                                                 |
\*---------------------------------------------------------------------------*/
FoamFile
{
    version     2.0;
    format      ascii;
    arch        "LSB;label=32;scalar=64";
    class       volVectorField;
    location    "1.4";
    object      flux;
}
// * * * * * * * * * * * * * * * * * * * * * * * * * * * * * * * * * * * * * //

dimensions      [0 1 -1 1 0 0 0];

internalField   nonuniform List<vector> 
2658
(
(9.93279e-07 9.72723e-07 -8.46593e-06)
(1.45768e-06 5.66185e-07 -8.11835e-06)
(4.72677e-07 1.754e-07 -5.67507e-06)
(-2.38977e-08 -1.54969e-08 -5.13534e-06)
(-1.90304e-06 -1.8717e-06 -6.49337e-06)
(-1.60666e-06 2.29167e-06 -6.64173e-06)
(1.60679e-06 -1.87519e-06 -5.77881e-06)
(1.58845e-06 1.58088e-06 -5.58447e-06)
(-2.57118e-08 -1.6363e-08 -5.131e-06)
(2.27536e-06 -1.62694e-06 -6.62232e-06)
(-1.58199e-06 4.9515e-07 -6.81837e-06)
(-1.17692e-06 -3.92736e-06 -5.55007e-06)
(8.07452e-07 2.42985e-06 -7.53994e-06)
(9.49457e-07 2.46948e-06 -7.09108e-06)
(7.22566e-07 2.00741e-06 -7.28246e-06)
(-5.69676e-08 2.0578e-06 -7.48375e-06)
(-3.23035e-08 2.24877e-06 -7.24814e-06)
(-1.69565e-08 2.02656e-06 -7.46692e-06)
(-7.92604e-07 2.05443e-06 -7.27194e-06)
(-1.03272e-06 2.43868e-06 -6.99654e-06)
(-9.92238e-07 2.35358e-06 -7.41366e-06)
(-2.30468e-06 2.0608e-06 -6.67858e-06)
(-2.73651e-06 6.85809e-07 -7.61482e-06)
(2.03692e-06 -4.48244e-07 -5.72735e-06)
(-8.52405e-07 7.44193e-07 -9.01167e-06)
(-1.08993e-06 2.24622e-06 -7.40354e-06)
(-2.34428e-06 -4.84341e-07 -6.64771e-06)
(-3.28499e-07 1.37557e-07 -7.76707e-06)
(-1.71624e-06 1.83214e-06 -7.96861e-06)
(-1.85828e-06 -9.2983e-11 -6.60977e-06)
(-1.71622e-06 -1.83217e-06 -7.96853e-06)
(-2.34433e-06 4.84351e-07 -6.64771e-06)
(-1.08999e-06 -2.24634e-06 -7.40347e-06)
(-2.73667e-06 -6.85796e-07 -7.61473e-06)
(-8.52355e-07 -7.44168e-07 -9.01166e-06)
(2.0369e-06 4.48301e-07 -5.72726e-06)
(-1.04724e-06 -1.08219e-07 -7.23834e-06)
(5.10878e-07 1.93919e-07 -1.03604e-05)
(-2.3043e-06 -2.06143e-06 -6.6785e-06)
(-9.92515e-07 -2.35372e-06 -7.41385e-06)
(-1.0327e-06 -2.43886e-06 -6.99663e-06)
(-7.92555e-07 -2.05451e-06 -7.27196e-06)
(-1.71066e-08 -2.02641e-06 -7.46685e-06)
(7.13387e-08 1.00196e-06 -1.0652e-05)
(-1.30405e-06 -1.25604e-07 -6.59881e-06)
(1.2175e-06 -4.91457e-08 -6.52609e-06)
(-1.58195e-06 -4.95181e-07 -6.8184e-06)
(-6.25439e-08 1.04336e-06 -1.06454e-05)
(-5.71973e-08 -2.05817e-06 -7.48386e-06)
(7.22586e-07 -2.00743e-06 -7.28251e-06)
(9.49506e-07 -2.4693e-06 -7.09101e-06)
(8.0743e-07 -2.42986e-06 -7.54e-06)
(2.18526e-06 -2.16521e-06 -6.75326e-06)
(-4.5872e-07 4.43878e-07 -1.07503e-05)
(2.44333e-06 -8.0855e-07 -7.54663e-06)
(2.01521e-06 -7.46424e-07 -7.29203e-06)
(-1.05995e-06 5.36858e-08 -1.06458e-05)
(6.99641e-08 -1.23579e-06 -6.55607e-06)
(-3.7112e-06 -1.4535e-11 -5.78203e-06)
(2.03296e-06 -1.30286e-08 -7.47469e-06)
(-1.05989e-06 -5.36587e-08 -1.06459e-05)
(2.01525e-06 7.46388e-07 -7.29212e-06)
(2.44332e-06 8.08601e-07 -7.5467e-06)
(-4.58647e-07 -4.43936e-07 -1.07503e-05)
(4.71505e-07 4.77932e-07 -6.78825e-06)
(-3.93495e-06 -1.14167e-06 -5.56115e-06)
(4.63419e-07 -1.57013e-06 -6.80068e-06)
(-5.64497e-08 -7.51584e-08 -6.02037e-06)
(-1.20511e-06 -2.53888e-06 -6.56609e-06)
(-1.20525e-06 2.53889e-06 -6.56594e-06)
(-3.7211e-08 2.30066e-11 -5.20726e-06)
(1.15274e-06 2.06523e-06 -5.66298e-06)
(-9.35429e-08 -2.61591e-08 -4.28682e-06)
(-1.19725e-06 1.62933e-06 -4.81475e-06)
(3.79558e-08 -2.23972e-10 -3.60918e-06)
(-1.26347e-06 -1.2377e-06 -4.76518e-06)
(1.61354e-06 -1.22433e-06 -4.80075e-06)
(-6.23939e-09 4.60876e-08 -3.60412e-06)
(-1.3236e-06 1.12842e-06 -4.00476e-06)
(1.47417e-06 7.38662e-07 -3.92305e-06)
(-1.85748e-06 -8.21277e-07 -4.80104e-06)
(-4.12966e-08 -7.84036e-08 -4.28472e-06)
(2.07162e-06 1.10019e-06 -5.63354e-06)
(-1.8839e-06 1.65831e-06 -5.79733e-06)
(-4.4748e-08 -3.15716e-08 -4.83537e-06)
(-2.5001e-08 -1.61503e-08 -3.38309e-06)
(-1.35958e-09 3.96829e-09 -2.2471e-06)
(6.35221e-09 9.64313e-09 -1.40646e-06)
(6.88815e-09 9.19173e-09 -8.29188e-07)
(5.28567e-09 7.19085e-09 -4.62189e-07)
(3.29504e-09 4.79945e-09 -2.4869e-07)
(-4.5053e-09 -8.21254e-09 -1.82169e-07)
(3.96994e-09 4.16372e-09 -1.41996e-07)
(-2.96366e-08 2.22987e-08 -1.19305e-07)
(1.9263e-08 -9.09781e-09 -1.23401e-07)
(-3.89619e-09 -2.56245e-08 -1.39568e-07)
(-2.38421e-08 -3.45326e-09 -1.21024e-07)
(9.60212e-11 -2.39554e-08 -1.80942e-07)
(2.38838e-08 -3.82125e-09 -1.21067e-07)
(-1.96453e-08 -8.59457e-09 -1.22576e-07)
(1.04666e-08 -2.61248e-08 -1.81777e-07)
(2.69597e-08 -6.61159e-09 -1.24131e-07)
(2.50672e-08 -2.50749e-08 -1.39101e-07)
(1.86783e-08 -1.20618e-08 -1.48899e-07)
(1.95049e-08 -1.03109e-08 -1.26281e-07)
(-4.14048e-08 2.40433e-08 -1.42186e-07)
(-7.43434e-09 -8.50177e-09 -1.03254e-07)
(-5.30355e-09 -8.28747e-10 -1.86908e-07)
(-2.52934e-09 3.48463e-09 -1.10752e-07)
(1.10283e-08 -2.46343e-08 -1.61311e-07)
(2.36476e-08 8.19205e-09 -1.49082e-07)
(9.17962e-09 -1.09899e-08 -1.22269e-07)
(1.86248e-08 -2.85746e-13 -1.66355e-07)
(9.17802e-09 1.09902e-08 -1.22264e-07)
(2.36477e-08 -8.19388e-09 -1.49083e-07)
(1.1028e-08 2.4634e-08 -1.61314e-07)
(1.95072e-08 1.03113e-08 -1.26286e-07)
(-4.1405e-08 -2.40451e-08 -1.42187e-07)
(2.50701e-08 2.50735e-08 -1.39101e-07)
(1.86815e-08 1.20607e-08 -1.489e-07)
(2.69585e-08 6.60714e-09 -1.24125e-07)
(1.04632e-08 2.61244e-08 -1.81766e-07)
(-1.96468e-08 8.59404e-09 -1.22574e-07)
(2.38842e-08 3.82042e-09 -1.21065e-07)
(-3.93788e-08 -1.9044e-08 -1.24608e-07)
(3.9263e-08 -1.83917e-08 -1.25193e-07)
(-2.96371e-08 -2.23005e-08 -1.19301e-07)
(-3.89672e-09 2.56275e-08 -1.39574e-07)
(-2.3842e-08 3.45549e-09 -1.21024e-07)
(1.92613e-08 9.09971e-09 -1.23405e-07)
(-1.07517e-08 2.57022e-08 -1.81782e-07)
(-2.64532e-08 6.16057e-09 -1.23123e-07)
(-1.75964e-08 1.2171e-08 -1.4743e-07)
(-1.59712e-08 1.14931e-08 -1.22328e-07)
(-1.0557e-08 2.30954e-08 -1.60089e-07)
(1.01137e-09 -1.07848e-08 -1.1654e-07)
(-5.2198e-09 1.16047e-09 -1.14031e-07)
(-3.24779e-08 1.64146e-09 -1.40443e-07)
(2.43374e-08 -2.56809e-08 -1.19189e-07)
(2.4325e-08 2.56877e-08 -1.19193e-07)
(-5.21838e-09 -1.16216e-09 -1.14027e-07)
(1.0054e-09 1.07864e-08 -1.16539e-07)
(1.04565e-08 -6.1731e-09 -1.26855e-07)
(-1.15037e-08 -6.3911e-09 -1.32797e-07)
(-1.32028e-08 -5.88296e-11 -1.66427e-07)
(-1.14771e-08 6.37094e-09 -1.32735e-07)
(5.82571e-09 1.19942e-11 -1.57192e-07)
(7.1869e-09 1.4565e-11 -1.56434e-07)
(-2.33557e-08 -1.28823e-08 -1.0819e-07)
(-2.42971e-08 1.26954e-08 -1.08723e-07)
(-2.01995e-08 3.09686e-11 -1.01791e-07)
(-2.55997e-08 1.04085e-09 -1.45949e-07)
(-2.51303e-08 7.00907e-09 -1.4737e-07)
(-2.59276e-08 -7.97599e-09 -9.11406e-08)
(-2.08301e-08 3.12168e-08 -1.25122e-07)
(-3.63561e-08 7.07149e-09 -1.19372e-07)
(-3.26214e-08 2.93899e-08 -1.08475e-07)
(-1.39269e-08 3.49635e-08 -1.18441e-07)
(-1.63186e-08 3.72469e-08 -1.10187e-07)
(-1.20063e-08 2.90898e-08 -1.16448e-07)
(2.93915e-10 2.93012e-08 -1.19952e-07)
(-3.38767e-11 3.41687e-08 -1.12499e-07)
(-5.50652e-10 2.93329e-08 -1.20013e-07)
(1.1284e-08 2.94896e-08 -1.16213e-07)
(1.60779e-08 3.79968e-08 -1.09342e-07)
(1.39506e-08 3.52656e-08 -1.17573e-07)
(3.28609e-08 3.06131e-08 -1.07796e-07)
(4.20029e-08 9.70842e-09 -1.23907e-07)
(-9.7927e-09 -1.06784e-09 -1.92737e-07)
(3.35043e-08 9.20457e-09 -1.80246e-07)
(-9.06439e-08 -5.88306e-08 -2.71914e-07)
(1.21954e-07 8.89319e-08 -3.85538e-07)
(-1.63255e-07 -1.13877e-07 -5.30138e-07)
(2.26959e-07 1.61621e-07 -7.1847e-07)
(-2.968e-07 -2.1424e-07 -9.69023e-07)
(4.02883e-07 2.83216e-07 -1.27953e-06)
(-5.13915e-07 -3.78294e-07 -1.67315e-06)
(6.75324e-07 4.69398e-07 -2.14791e-06)
(-8.39825e-07 -6.26888e-07 -2.71977e-06)
(1.06983e-06 7.3188e-07 -3.39449e-06)
(-1.29306e-06 -9.80016e-07 -4.16219e-06)
(1.61132e-06 1.07382e-06 -5.04467e-06)
(-1.8774e-06 -1.45927e-06 -6.00581e-06)
(2.36572e-06 1.48454e-06 -6.87882e-06)
(-2.36098e-06 1.45754e-06 -6.65431e-06)
(2.5081e-06 1.22301e-06 -6.5292e-06)
(-2.59289e-06 1.1624e-06 -6.5946e-06)
(2.27529e-06 1.62701e-06 -6.62223e-06)
(-1.90313e-06 1.87165e-06 -6.49329e-06)
(-2.39052e-08 1.54757e-08 -5.13526e-06)
(-1.60656e-06 -2.29172e-06 -6.6418e-06)
(4.63333e-07 1.57013e-06 -6.80058e-06)
(-3.93487e-06 1.14157e-06 -5.56115e-06)
(4.71514e-07 -4.77949e-07 -6.78826e-06)
(-1.17694e-06 3.92731e-06 -5.55009e-06)
(4.78595e-07 -4.89034e-07 -9.01009e-06)
(-4.47549e-08 3.15409e-08 -4.83536e-06)
(-2.50027e-08 1.61304e-08 -3.38308e-06)
(-1.37531e-09 -3.97494e-09 -2.24709e-06)
(6.33951e-09 -9.65722e-09 -1.40645e-06)
(6.8935e-09 -9.20365e-09 -8.29179e-07)
(5.28986e-09 -7.18933e-09 -4.62179e-07)
(3.29624e-09 -4.7991e-09 -2.48685e-07)
(-4.50573e-09 8.213e-09 -1.8217e-07)
(3.97026e-09 -4.16182e-09 -1.41997e-07)
(4.67471e-10 -2.63556e-11 -9.92392e-08)
(-1.08255e-08 -1.04751e-08 -1.08497e-07)
(-1.1714e-09 4.49801e-09 -1.82716e-07)
(1.46861e-08 -1.3377e-08 -1.11466e-07)
(1.46855e-08 1.33763e-08 -1.11467e-07)
(-1.08264e-08 1.04764e-08 -1.08498e-07)
(4.69122e-10 2.51448e-11 -9.9239e-08)
(-1.16722e-09 -4.49999e-09 -1.82717e-07)
(4.39771e-09 -3.79595e-09 -1.02772e-07)
(3.92632e-08 1.83932e-08 -1.25191e-07)
(-3.93814e-08 1.90432e-08 -1.24609e-07)
(2.81279e-09 -2.59119e-08 -1.39186e-07)
(3.02456e-08 2.16635e-08 -1.20002e-07)
(-2.60078e-09 5.0271e-09 -1.42109e-07)
(5.13428e-10 -2.98221e-10 -9.97814e-08)
(-4.29414e-09 -3.48937e-09 -1.02534e-07)
(-3.86619e-11 3.21284e-09 -1.45388e-07)
(3.07726e-10 -2.07312e-09 -1.83243e-07)
(3.97153e-09 -1.73128e-09 -1.82206e-07)
(3.04603e-09 -7.40406e-14 -1.89205e-07)
(3.97147e-09 1.73015e-09 -1.82204e-07)
(-2.60583e-09 -5.03285e-09 -1.42108e-07)
(-7.43253e-09 8.50088e-09 -1.03252e-07)
(-1.92869e-08 -1.702e-08 -1.12436e-07)
(-5.30138e-09 8.31002e-10 -1.86909e-07)
(4.22235e-09 -1.86038e-08 -1.18727e-07)
(4.22328e-09 1.86073e-08 -1.18727e-07)
(-1.92882e-08 1.70215e-08 -1.12435e-07)
(-7.06857e-10 5.46279e-13 -1.50277e-07)
(1.21668e-08 -1.18387e-08 -1.09725e-07)
(-1.46114e-08 -1.30707e-08 -1.10822e-07)
(-1.46143e-08 1.30731e-08 -1.10821e-07)
(2.66097e-10 -4.32665e-09 -1.82345e-07)
(1.21697e-08 1.1841e-08 -1.09724e-07)
(-2.32956e-10 -1.80385e-09 -1.37897e-07)
(-2.43169e-09 2.63517e-13 -1.2684e-07)
(-3.21878e-09 -8.80174e-09 -1.24439e-07)
(-3.01915e-09 -3.99744e-09 -1.15089e-07)
(1.35663e-08 1.17406e-08 -1.31651e-07)
(-3.06263e-09 -3.00768e-09 -1.24815e-07)
(-8.61123e-10 1.26832e-12 -1.30263e-07)
(-2.23666e-08 9.24819e-13 -1.87269e-07)
(1.40225e-09 -3.48658e-13 -1.70211e-07)
(-1.01783e-08 -1.96736e-08 -1.24213e-07)
(1.63684e-08 1.32907e-08 -1.6734e-07)
(1.58671e-08 3.52923e-08 -1.18332e-07)
(3.44583e-08 -8.87558e-09 -1.01107e-07)
(2.44221e-08 2.79284e-08 -1.24556e-07)
(-6.98242e-08 -3.98271e-08 -1.42413e-07)
(5.26925e-08 5.54399e-08 -2.33568e-07)
(-9.91633e-08 -6.7857e-08 -2.91068e-07)
(-9.9158e-08 6.78533e-08 -2.91068e-07)
(-2.27474e-09 9.64208e-09 -2.20834e-07)
(-1.15209e-07 9.15067e-08 -4.07288e-07)
(2.68995e-09 6.22247e-09 -2.9911e-07)
(1.48138e-07 -1.30804e-07 -5.54787e-07)
(-2.07133e-07 1.72887e-07 -7.58041e-07)
(2.29762e-09 3.88253e-09 -5.50818e-07)
(2.71896e-07 -2.35868e-07 -1.00981e-06)
(-3.65998e-07 3.11027e-07 -1.34288e-06)
(1.29521e-10 -3.41181e-10 -9.64803e-07)
(4.71076e-07 -4.04639e-07 -1.74314e-06)
(-6.12826e-07 5.26198e-07 -2.24551e-06)
(-5.31801e-09 -1.00523e-08 -1.59343e-06)
(7.68891e-07 -6.54573e-07 -2.83569e-06)
(-9.63927e-07 8.37408e-07 -3.53578e-06)
(-1.71495e-08 -3.59427e-08 -2.4788e-06)
(1.18968e-06 -9.95862e-07 -4.3447e-06)
(-1.41666e-06 1.25834e-06 -5.24416e-06)
(-3.4945e-08 -1.074e-07 -3.6315e-06)
(1.79361e-06 -1.4244e-06 -6.23624e-06)
(-1.90175e-06 1.78684e-06 -7.43764e-06)
(-1.06397e-07 -3.17537e-07 -5.19746e-06)
(3.0115e-06 -2.04289e-06 -8.10185e-06)
(4.95102e-07 -9.64367e-07 -5.64587e-06)
(3.58191e-06 -2.17073e-06 -7.28658e-06)
(3.5819e-06 2.17076e-06 -7.28655e-06)
(-3.28441e-07 -1.37487e-07 -7.76696e-06)
(8.17124e-07 -6.14081e-07 -7.85182e-06)
(-2.8805e-07 1.13722e-06 -6.98307e-06)
(1.15615e-06 1.01384e-06 -6.46461e-06)
(6.23716e-08 -1.22523e-11 -9.34894e-06)
(-7.2675e-07 -7.14833e-07 -6.17369e-06)
(-7.26748e-07 7.14836e-07 -6.17374e-06)
(7.96959e-07 7.49228e-07 -6.22348e-06)
(-3.83579e-08 -8.02166e-12 -9.35933e-06)
(-9.35866e-07 -9.01463e-07 -6.30377e-06)
(-9.35852e-07 9.0146e-07 -6.30379e-06)
(2.51088e-07 3.67105e-07 -5.99704e-06)
(-3.05211e-07 -6.57664e-12 -9.24712e-06)
(-1.33999e-06 -2.36775e-06 -7.66195e-06)
(-1.33999e-06 2.36772e-06 -7.66192e-06)
(4.66912e-07 -1.50125e-06 -8.95088e-06)
(1.92201e-06 1.43241e-11 -1.2719e-05)
(4.66926e-07 1.5012e-06 -8.9509e-06)
(7.40056e-07 -1.17267e-06 -9.09715e-06)
(2.10179e-06 7.4421e-07 -1.25739e-05)
(8.91938e-07 1.715e-06 -9.07123e-06)
(1.20764e-06 1.20329e-06 -1.05485e-05)
(1.52955e-06 1.52521e-06 -9.0499e-06)
(-2.32077e-06 -2.30224e-06 -8.83974e-06)
(-1.34884e-06 1.61669e-06 -7.30077e-06)
(1.29523e-06 2.10173e-07 -8.50526e-06)
(8.72183e-07 1.36664e-07 -1.00277e-05)
(-4.85287e-09 1.76301e-08 -9.29575e-06)
(2.51098e-07 -3.67119e-07 -5.99704e-06)
(-1.50923e-07 -1.34081e-07 -5.73293e-06)
(-3.94934e-07 -3.87092e-07 -9.14006e-06)
(1.60967e-06 -1.31813e-06 -7.33291e-06)
(-1.19032e-06 7.3604e-07 -9.10044e-06)
(7.39381e-07 2.07334e-06 -1.25744e-05)
(1.7163e-06 8.88599e-07 -9.07706e-06)
(9.8145e-07 9.82348e-07 -1.0062e-05)
(-5.24783e-07 -5.12836e-07 -9.18964e-06)
(-7.03457e-07 1.00622e-11 -9.28565e-06)
(-5.24755e-07 5.12863e-07 -9.1896e-06)
(-3.94953e-07 3.87092e-07 -9.14006e-06)
(-1.34881e-06 -1.6167e-06 -7.30075e-06)
(-2.32074e-06 2.30219e-06 -8.83978e-06)
(8.91957e-07 -1.71516e-06 -9.07098e-06)
(2.10187e-06 -7.44318e-07 -1.25741e-05)
(7.4011e-07 1.17263e-06 -9.09706e-06)
(1.29524e-06 -2.10222e-07 -8.50537e-06)
(8.722e-07 -1.36677e-07 -1.00278e-05)
(9.81581e-07 -9.82254e-07 -1.0062e-05)
(1.71617e-06 -8.88665e-07 -9.07744e-06)
(7.39263e-07 -2.0733e-06 -1.25742e-05)
(-1.19034e-06 -7.36079e-07 -9.10056e-06)
(1.60961e-06 1.31811e-06 -7.33288e-06)
(1.96969e-07 -1.30348e-06 -8.49749e-06)
(1.47988e-06 -5.09465e-07 -9.00987e-06)
(-3.66326e-08 -1.91765e-06 -1.27285e-05)
(-1.54248e-06 -4.51705e-07 -8.96243e-06)
(2.3575e-06 1.24075e-06 -7.68692e-06)
(-3.60779e-08 2.98549e-07 -9.25999e-06)
(-4.17463e-07 -2.8151e-07 -5.99262e-06)
(-2.4244e-06 1.34775e-06 -7.66943e-06)
(-4.12876e-08 -2.76857e-07 -8.59929e-06)
(-2.83462e-07 -3.39339e-07 -8.70753e-06)
(1.83531e-08 -1.04816e-08 -5.12031e-06)
(1.47277e-08 -2.4788e-08 -3.59666e-06)
(7.08202e-09 -3.24451e-08 -2.39411e-06)
(3.82172e-09 -2.82963e-08 -1.50056e-06)
(2.1063e-09 -2.09267e-08 -8.85632e-07)
(9.43519e-10 -1.41866e-08 -4.9396e-07)
(2.57019e-10 -8.93474e-09 -2.65828e-07)
(-2.73272e-09 -9.02011e-09 -2.58271e-07)
(9.26682e-08 -5.48847e-08 -2.65926e-07)
(-1.00525e-07 -4.66148e-08 -2.63128e-07)
(1.00709e-07 -4.18135e-08 -2.63645e-07)
(-9.16925e-08 -6.47185e-08 -2.65372e-07)
(1.17234e-07 1.01134e-07 -3.66711e-07)
(-1.70217e-07 -1.28524e-07 -5.07653e-07)
(2.2333e-07 1.85508e-07 -6.82496e-07)
(-3.09049e-07 -2.42391e-07 -9.2803e-07)
(4.00714e-07 3.25335e-07 -1.21694e-06)
(-5.32077e-07 -4.2975e-07 -1.6038e-06)
(6.76858e-07 5.3863e-07 -2.04495e-06)
(-8.64685e-07 -7.17088e-07 -2.61101e-06)
(1.07743e-06 8.38159e-07 -3.23353e-06)
(-1.3235e-06 -1.12843e-06 -4.00477e-06)
(1.61345e-06 1.2244e-06 -4.80065e-06)
(-1.88385e-06 -1.65835e-06 -5.79738e-06)
(-2.56883e-08 1.62992e-08 -5.13091e-06)
(1.58846e-06 -1.58083e-06 -5.58448e-06)
(1.60659e-06 1.87532e-06 -5.77874e-06)
(1.15295e-06 -2.06527e-06 -5.66311e-06)
(-8.69878e-07 1.82142e-06 -4.79411e-06)
(3.95227e-08 -7.73145e-12 -3.68092e-06)
(-8.69709e-07 -1.8214e-06 -4.79416e-06)
(7.84941e-07 1.46345e-06 -3.93943e-06)
(1.08706e-06 -1.31788e-06 -3.99644e-06)
(1.07867e-06 1.06994e-06 -3.88575e-06)
(-8.41125e-07 -8.23311e-07 -3.17555e-06)
(-8.16073e-07 1.08837e-06 -3.24178e-06)
(4.01661e-08 1.18763e-08 -2.38493e-06)
(6.89984e-07 6.82838e-07 -2.54361e-06)
(8.89332e-09 4.61098e-08 -2.38087e-06)
(1.07755e-06 -8.38081e-07 -3.23362e-06)
(-2.14465e-08 -5.57929e-08 -2.93901e-06)
(-1.23796e-06 -5.56007e-07 -3.22446e-06)
(1.20368e-06 -6.35404e-07 -3.20989e-06)
(-3.22391e-09 4.7322e-08 -2.42915e-06)
(-9.6532e-07 5.37028e-07 -2.58277e-06)
(8.91439e-07 5.86726e-07 -2.58023e-06)
(-1.13114e-06 -7.10501e-07 -3.22674e-06)
(-1.7466e-09 -6.0842e-08 -2.93985e-06)
(-1.47594e-06 8.42611e-07 -3.95257e-06)
(-6.47823e-09 4.18694e-08 -3.66744e-06)
(1.79899e-06 -9.20819e-07 -4.76239e-06)
(-2.08665e-06 1.22336e-06 -5.69531e-06)
(-1.17553e-08 -3.45602e-08 -5.19358e-06)
(-2.5929e-06 -1.16238e-06 -6.59459e-06)
(-8.91839e-08 -3.67433e-08 -6.02623e-06)
(1.2175e-06 4.91506e-08 -6.52613e-06)
(-6.2548e-08 -1.04338e-06 -1.06454e-05)
(1.97012e-07 1.30344e-06 -8.49752e-06)
(-2.42443e-06 -1.3478e-06 -7.66937e-06)
(-4.17442e-07 2.81481e-07 -5.99259e-06)
(7.10142e-08 9.14733e-08 -8.72003e-06)
(-3.66065e-08 -1.87387e-08 -6.36292e-06)
(-2.49777e-08 -1.12171e-11 -5.38015e-06)
(-2.14133e-08 7.44145e-09 -5.05285e-06)
(-1.27041e-08 -1.04971e-08 -3.55932e-06)
(-6.21608e-09 -2.15924e-08 -2.36898e-06)
(-2.83801e-09 -2.08621e-08 -1.48431e-06)
(-1.26722e-09 -1.61017e-08 -8.75593e-07)
(-5.8082e-10 -1.11508e-08 -4.88233e-07)
(-2.56001e-10 -6.94844e-09 -2.62971e-07)
(3.08674e-10 2.07284e-09 -1.83243e-07)
(-3.65893e-11 -3.21296e-09 -1.45386e-07)
(-4.29003e-09 3.48793e-09 -1.02534e-07)
(2.655e-10 4.32431e-09 -1.82343e-07)
(5.12949e-10 2.98839e-10 -9.9779e-08)
(3.02454e-08 -2.16658e-08 -1.20002e-07)
(2.81086e-09 2.59121e-08 -1.39186e-07)
(-1.15171e-09 -1.53627e-08 -2.07205e-07)
(-4.28042e-08 1.63074e-08 -1.73684e-07)
(3.86974e-08 1.01949e-08 -1.73217e-07)
(-3.92852e-08 8.82771e-09 -1.72541e-07)
(4.09066e-08 1.94044e-08 -1.75025e-07)
(-1.86026e-08 1.41934e-08 -1.61146e-07)
(6.951e-08 -4.14137e-09 -1.16646e-07)
(-2.32176e-08 -4.66232e-08 -1.86553e-07)
(6.17132e-08 8.98861e-08 -2.67201e-07)
(7.11075e-09 -9.67056e-10 -2.58041e-07)
(-9.68501e-08 -1.19727e-07 -3.74941e-07)
(-9.68691e-08 9.56625e-08 -3.51051e-07)
(7.43499e-08 -6.8103e-08 -2.58205e-07)
(3.43163e-09 -8.95916e-09 -2.54188e-07)
(1.3888e-09 -5.99699e-09 -2.73895e-07)
(-6.29064e-09 1.71672e-08 -1.70628e-07)
(1.00356e-10 1.72942e-08 -1.71475e-07)
(7.04811e-09 1.71981e-08 -1.70206e-07)
(1.47742e-08 1.1047e-08 -1.60788e-07)
(2.00483e-08 1.32165e-08 -1.66094e-07)
(-4.4176e-09 -2.08934e-09 -2.81368e-07)
(-1.92989e-10 3.57524e-09 -2.76313e-07)
(1.02795e-08 8.27881e-09 -2.02261e-07)
(-1.42475e-09 -5.92092e-09 -2.7466e-07)
(-7.17901e-09 -2.31246e-08 -5.15822e-07)
(-8.87476e-09 -6.14178e-09 -5.22182e-07)
(-1.15793e-08 -8.16955e-09 -5.21062e-07)
(-2.11125e-08 -1.63283e-08 -9.33634e-07)
(-2.01717e-08 -1.84134e-08 -9.4781e-07)
(6.1967e-09 6.17785e-09 -7.13949e-07)
(5.65085e-09 6.07253e-09 -3.83683e-07)
(3.11582e-09 8.4974e-09 -3.71491e-07)
(-1.22982e-07 8.78067e-08 -3.63392e-07)
(1.32255e-07 7.72574e-08 -3.65183e-07)
(-1.88542e-07 -9.40636e-08 -5.02735e-07)
(1.89011e-07 -8.1884e-08 -5.02319e-07)
(-2.18154e-09 1.01699e-08 -3.51914e-07)
(-1.35055e-07 6.99378e-08 -3.63889e-07)
(-2.86692e-10 -1.0014e-08 -2.60741e-07)
(-2.459e-11 -4.38555e-09 -2.75133e-07)
(1.66201e-10 -2.21089e-08 -5.15621e-07)
(4.76644e-10 -4.67353e-08 -9.38416e-07)
(-1.31138e-08 -4.70536e-08 -9.37578e-07)
(-2.15732e-08 -8.33465e-08 -1.60325e-06)
(-3.83226e-08 -3.73897e-08 -1.62057e-06)
(-3.58296e-08 -2.86734e-08 -1.58287e-06)
(-5.71381e-08 -4.65159e-08 -2.5296e-06)
(-6.82405e-08 -7.02922e-08 -2.60745e-06)
(2.65656e-09 1.54984e-09 -2.07737e-06)
(6.0324e-09 5.34001e-09 -1.25542e-06)
(7.10339e-09 1.33906e-08 -1.22038e-06)
(-4.21772e-07 2.73799e-07 -1.21127e-06)
(4.49968e-07 2.48824e-07 -1.20937e-06)
(-5.93339e-07 -3.21238e-07 -1.5882e-06)
(5.9533e-07 -2.77563e-07 -1.58228e-06)
(-7.04149e-09 2.6981e-08 -1.1423e-06)
(-4.60749e-07 2.17379e-07 -1.20991e-06)
(3.4497e-07 -1.55496e-07 -9.16929e-07)
(-4.11543e-09 1.72456e-08 -6.5095e-07)
(-2.5716e-07 1.25598e-07 -6.77839e-07)
(-5.03914e-10 -1.62041e-08 -4.89608e-07)
(2.51443e-07 1.42312e-07 -6.7869e-07)
(-3.4384e-07 -1.80007e-07 -9.19316e-07)
(1.08614e-09 1.82306e-08 -6.52288e-07)
(-2.35043e-07 1.5736e-07 -6.78317e-07)
(1.74944e-07 -1.07256e-07 -5.06164e-07)
(9.169e-10 1.08267e-08 -3.52613e-07)
(3.18953e-10 1.94516e-09 -3.9597e-07)
(-5.32192e-09 -5.53293e-09 -3.80128e-07)
(-1.15193e-07 -9.14926e-08 -4.07287e-07)
(3.7877e-09 1.09006e-09 -2.15037e-07)
(7.72164e-08 7.09036e-08 -3.01524e-07)
(3.2378e-09 -8.60105e-09 -1.64727e-07)
(-7.56312e-08 -5.03886e-08 -2.09821e-07)
(-3.46008e-08 -1.05731e-08 -1.13147e-07)
(1.66595e-08 -5.00576e-09 -1.66953e-07)
(-4.54239e-09 -1.95999e-09 -2.00716e-07)
(-2.33158e-11 2.34857e-09 -2.07192e-07)
(-4.30978e-10 7.80484e-09 -1.93377e-07)
(1.80443e-09 1.04148e-08 -1.98963e-07)
(-2.55108e-09 1.00015e-08 -1.98822e-07)
(9.74272e-10 -1.58217e-08 -2.06598e-07)
(-1.00578e-08 8.42337e-09 -2.07153e-07)
(-1.17589e-08 1.1079e-08 -1.60692e-07)
(-5.58332e-09 6.57099e-09 -1.67213e-07)
(1.07158e-08 -1.30014e-09 -2.81015e-07)
(-2.85712e-09 1.6121e-09 -2.71077e-07)
(-6.92588e-09 6.4943e-09 -3.8916e-07)
(-4.31538e-09 7.92174e-09 -3.70904e-07)
(8.08381e-09 -2.32444e-08 -5.13615e-07)
(1.56387e-08 -4.76404e-08 -9.34289e-07)
(2.66246e-08 -8.51707e-08 -1.60027e-06)
(8.04662e-10 -8.46191e-08 -1.60731e-06)
(9.79022e-10 -1.45926e-07 -2.58653e-06)
(-3.40515e-08 -1.40347e-07 -2.57633e-06)
(-5.6003e-08 -2.38745e-07 -3.90111e-06)
(-1.22663e-07 -1.3841e-07 -3.95895e-06)
(-8.71329e-08 -7.27666e-08 -3.81126e-06)
(-1.61896e-07 -1.44638e-07 -5.40148e-06)
(-2.77698e-07 -3.27226e-07 -5.71835e-06)
(-4.77996e-08 -3.99996e-08 -4.75606e-06)
(-9.26103e-09 -9.96225e-09 -3.23816e-06)
(9.56647e-09 1.18233e-08 -3.16968e-06)
(-1.13111e-06 7.10505e-07 -3.22665e-06)
(1.20361e-06 6.35476e-07 -3.20981e-06)
(-1.47597e-06 -8.42573e-07 -3.95256e-06)
(1.47419e-06 -7.38543e-07 -3.923e-06)
(-2.14962e-08 5.57975e-08 -2.93903e-06)
(-1.23789e-06 5.56029e-07 -3.22442e-06)
(9.67354e-07 -4.6589e-07 -2.56967e-06)
(-1.19893e-08 3.96077e-08 -1.8887e-06)
(-7.77442e-07 3.57464e-07 -2.03533e-06)
(-1.62225e-09 -3.64962e-08 -1.51314e-06)
(7.57961e-07 4.10261e-07 -2.03108e-06)
(-9.65326e-07 -5.36992e-07 -2.58275e-06)
(2.43486e-10 4.26363e-08 -1.89052e-06)
(-7.11802e-07 4.53311e-07 -2.03733e-06)
(5.49558e-07 -3.52693e-07 -1.59016e-06)
(9.77901e-10 2.87018e-08 -1.14415e-06)
(4.87065e-10 5.02729e-09 -1.27076e-06)
(5.07316e-10 3.23508e-09 -7.28112e-07)
(-8.29478e-09 -9.3873e-09 -6.96913e-07)
(-2.07125e-07 -1.72865e-07 -7.58028e-07)
(2.05866e-09 8.98285e-10 -4.05507e-07)
(1.4814e-07 1.30803e-07 -5.5477e-07)
(2.69638e-09 -6.22357e-09 -2.99107e-07)
(1.1098e-08 -2.91466e-09 -3.05092e-07)
(-1.73655e-07 -1.30347e-07 -5.42945e-07)
(2.18461e-07 1.8774e-07 -7.37132e-07)
(-3.10637e-07 -2.39684e-07 -9.8372e-07)
(-3.10636e-07 2.39692e-07 -9.83705e-07)
(-7.19981e-10 6.06938e-09 -7.30268e-07)
(3.93271e-07 -3.3059e-07 -1.30041e-06)
(6.02726e-09 5.5799e-09 -9.81365e-07)
(-5.32495e-07 4.16388e-07 -1.69227e-06)
(-8.22308e-10 3.59343e-09 -1.23951e-06)
(6.62811e-07 -5.50211e-07 -2.17173e-06)
(1.02439e-09 8.00623e-09 -1.6185e-06)
(-8.58834e-07 6.8005e-07 -2.74539e-06)
(-1.62088e-10 -5.82438e-09 -1.98372e-06)
(1.05149e-06 -8.60583e-07 -3.41667e-06)
(-1.76353e-08 8.6119e-09 -2.51184e-06)
(-1.28603e-06 1.04422e-06 -4.19715e-06)
(7.85391e-09 -4.04292e-08 -2.99174e-06)
(1.58409e-06 -1.25912e-06 -5.05139e-06)
(-9.08638e-08 -2.30085e-09 -3.66548e-06)
(-1.74438e-06 1.50881e-06 -6.06468e-06)
(5.54437e-08 -1.7492e-07 -4.24908e-06)
(2.33585e-06 -1.67698e-06 -6.90201e-06)
(-3.94811e-07 -1.40453e-07 -5.07606e-06)
(-1.90585e-06 1.95804e-06 -8.4157e-06)
(-2.57455e-07 -3.76607e-11 -6.86875e-06)
(-1.90581e-06 -1.95805e-06 -8.4157e-06)
(4.95094e-07 9.64208e-07 -5.64587e-06)
(3.01154e-06 2.043e-06 -8.10171e-06)
(-1.0637e-07 3.17402e-07 -5.19741e-06)
(-1.90165e-06 -1.78676e-06 -7.43764e-06)
(-7.68888e-08 -1.95289e-08 -4.25073e-06)
(1.79353e-06 1.42436e-06 -6.23614e-06)
(-3.49323e-08 1.07322e-07 -3.63146e-06)
(-1.41664e-06 -1.25827e-06 -5.24412e-06)
(-3.80147e-08 -5.04289e-09 -3.01033e-06)
(1.18973e-06 9.95983e-07 -4.34465e-06)
(-1.71192e-08 3.58699e-08 -2.47881e-06)
(-9.63777e-07 -8.37315e-07 -3.53579e-06)
(-1.65621e-08 -2.11456e-09 -1.99623e-06)
(7.68929e-07 6.54651e-07 -2.83567e-06)
(-5.29067e-09 9.97366e-09 -1.5934e-06)
(-6.12797e-07 -5.26175e-07 -2.24552e-06)
(-6.34591e-09 -5.01588e-10 -1.24566e-06)
(4.71072e-07 4.04662e-07 -1.74308e-06)
(1.54174e-10 3.10897e-10 -9.64787e-07)
(-3.65982e-07 -3.11004e-07 -1.34289e-06)
(-1.00166e-09 4.27909e-10 -7.31629e-07)
(2.71897e-07 2.35882e-07 -1.00978e-06)
(2.31549e-09 -3.87757e-09 -5.50808e-07)
(8.38668e-09 -3.74394e-09 -5.60931e-07)
(-1.49458e-08 -1.51129e-08 -7.21425e-07)
(-1.08363e-08 -8.65268e-09 -4.00334e-07)
(-7.13128e-09 -3.13963e-09 -2.2416e-07)
(1.94424e-08 9.46986e-09 -1.52478e-07)
(1.1184e-09 -5.5727e-12 -1.41317e-07)
(-1.32488e-08 -5.18593e-13 -1.77356e-07)
(-2.41389e-08 -1.61805e-11 -2.95508e-07)
(-3.69451e-08 1.65276e-12 -5.2815e-07)
(-5.56974e-08 1.65879e-11 -9.3171e-07)
(-8.13835e-08 3.58867e-11 -1.56892e-06)
(-1.06272e-07 7.96088e-11 -2.49579e-06)
(-1.00804e-07 3.05616e-10 -3.73949e-06)
(-9.66244e-09 9.43805e-11 -5.25903e-06)
(1.32423e-07 -3.37365e-11 -6.72356e-06)
(-1.67865e-07 -1.14714e-10 -7.85868e-06)
(-1.30614e-06 6.1589e-07 -7.70535e-06)
(-1.30615e-06 -6.1598e-07 -7.70534e-06)
(-1.34458e-06 -8.56462e-07 -7.09908e-06)
(-1.11554e-06 -8.35397e-07 -8.35077e-06)
(-3.81091e-07 -2.25717e-07 -6.52507e-06)
(-1.48756e-07 -4.54926e-07 -5.61149e-06)
(-6.08387e-07 -1.40712e-06 -8.06328e-06)
(9.6175e-07 4.02836e-06 -5.6641e-06)
(1.51603e-06 -3.28513e-07 -6.65346e-06)
(3.14067e-08 5.05925e-08 -6.02687e-06)
(1.03469e-08 -9.33007e-09 -6.17386e-06)
(8.50724e-08 -3.29367e-08 -6.00066e-06)
(-3.94755e-07 1.40456e-07 -5.07604e-06)
(2.33571e-06 1.67708e-06 -6.90191e-06)
(5.54999e-08 1.74815e-07 -4.24902e-06)
(-1.74437e-06 -1.50875e-06 -6.06467e-06)
(-1.67796e-07 -1.41647e-11 -4.98292e-06)
(-6.94416e-08 -1.39923e-11 -5.13914e-06)
(-6.43416e-08 -1.56467e-11 -3.60797e-06)
(7.93584e-09 4.0407e-08 -2.99168e-06)
(-1.28602e-06 -1.04421e-06 -4.19717e-06)
(1.58404e-06 1.25913e-06 -5.05126e-06)
(-9.08635e-08 2.29343e-09 -3.66553e-06)
(-6.69493e-09 -2.61862e-08 -4.49964e-06)
(-1.90186e-08 -2.51308e-08 -3.08913e-06)
(-1.76673e-08 -8.63707e-09 -2.51183e-06)
(1.05134e-06 8.60599e-07 -3.41658e-06)
(-1.20369e-10 5.80019e-09 -1.9837e-06)
(-8.58771e-07 -6.80062e-07 -2.74544e-06)
(-2.89734e-08 1.04547e-11 -2.31564e-06)
(-5.15078e-08 -1.21829e-12 -2.40095e-06)
(-3.73637e-08 -4.74284e-12 -1.50596e-06)
(-2.44778e-08 -6.13382e-12 -8.90509e-07)
(-7.00358e-10 -6.09664e-09 -7.30257e-07)
(3.93262e-07 3.30596e-07 -1.30036e-06)
(-5.32493e-07 -4.16383e-07 -1.69231e-06)
(6.62785e-07 5.50244e-07 -2.17166e-06)
(1.02819e-09 -7.99143e-09 -1.61846e-06)
(-1.72743e-08 -2.03314e-08 -1.99598e-06)
(-1.25883e-08 -1.45096e-08 -1.21445e-06)
(1.50711e-09 -5.58306e-12 -9.35164e-07)
(9.28664e-10 -2.95887e-12 -5.22285e-07)
(3.86261e-10 3.85971e-13 -2.83249e-07)
(-7.04853e-09 -5.96128e-13 -2.7158e-07)
(-2.27311e-09 -9.64607e-09 -2.20835e-07)
(1.13343e-07 1.02552e-07 -4.03995e-07)
(5.96242e-09 -1.22643e-12 -2.6285e-07)
(1.13352e-07 -1.02555e-07 -4.03996e-07)
(1.10893e-08 2.91727e-09 -3.05092e-07)
(-1.73647e-07 1.30353e-07 -5.42944e-07)
(-1.02788e-09 7.20918e-09 -4.07798e-07)
(2.18486e-07 -1.87747e-07 -7.37162e-07)
(8.39603e-09 3.74038e-09 -5.60936e-07)
(-8.29504e-09 9.38159e-09 -6.96918e-07)
(-1.42321e-08 1.41366e-12 -4.98858e-07)
(-1.0241e-09 -7.22489e-09 -4.07785e-07)
(1.38102e-09 3.17206e-12 -4.78713e-07)
(-5.32039e-09 5.5311e-09 -3.80128e-07)
(-4.54122e-09 1.95968e-09 -2.00718e-07)
(-7.56345e-08 5.0391e-08 -2.09821e-07)
(3.23796e-09 8.59486e-09 -1.6473e-07)
(7.72152e-08 -7.09032e-08 -3.01532e-07)
(1.66574e-08 5.0064e-09 -1.66958e-07)
(5.26903e-08 -5.54393e-08 -2.33569e-07)
(-1.01779e-08 1.96761e-08 -1.24211e-07)
(-6.9826e-08 3.98271e-08 -1.42413e-07)
(6.7615e-09 1.79571e-12 -1.59944e-07)
(2.44231e-08 -2.7927e-08 -1.24559e-07)
(3.44596e-08 8.87917e-09 -1.01107e-07)
(1.58638e-08 -3.52934e-08 -1.1833e-07)
(4.20034e-08 -9.70941e-09 -1.23906e-07)
(1.63702e-08 -1.329e-08 -1.67345e-07)
(6.12884e-09 -1.2316e-09 -1.27876e-07)
(-1.26843e-08 -7.6082e-09 -1.18176e-07)
(7.38417e-09 -4.17536e-09 -1.38779e-07)
(-3.06284e-09 3.00714e-09 -1.24812e-07)
(-3.21732e-09 8.80068e-09 -1.24435e-07)
(1.3566e-08 -1.17431e-08 -1.31653e-07)
(-3.02067e-09 3.99842e-09 -1.15078e-07)
(2.06002e-09 -1.21637e-08 -1.35496e-07)
(5.18405e-11 8.81175e-09 -1.25876e-07)
(6.50891e-11 -2.72724e-16 -1.29186e-07)
(5.13301e-11 -8.81224e-09 -1.25876e-07)
(-1.14636e-11 -4.44055e-09 -1.15247e-07)
(9.53134e-11 2.39544e-08 -1.8094e-07)
(2.06071e-09 1.21635e-08 -1.35498e-07)
(-2.31611e-10 1.80536e-09 -1.37899e-07)
(7.3845e-09 4.17692e-09 -1.3878e-07)
(-2.53214e-09 -3.48481e-09 -1.10751e-07)
(-1.26858e-08 7.60994e-09 -1.18176e-07)
(6.12859e-09 1.23107e-09 -1.27875e-07)
(-3.37152e-11 1.85064e-09 -1.38152e-07)
(3.94797e-09 -8.42751e-09 -1.24041e-07)
(3.37912e-09 -3.70078e-09 -1.15055e-07)
(-2.26293e-09 1.21514e-08 -1.35966e-07)
(-1.34292e-08 1.13906e-08 -1.31964e-07)
(3.92394e-09 -2.49585e-09 -1.24932e-07)
(-7.37081e-09 3.06851e-09 -1.35554e-07)
(1.36298e-08 1.74392e-08 -1.06251e-07)
(4.15877e-08 -2.36599e-08 -1.41169e-07)
(-2.55955e-08 2.42335e-08 -1.41362e-07)
(7.8865e-09 -2.19238e-09 -1.96797e-07)
(3.58049e-09 2.64239e-13 -1.26332e-07)
(2.05959e-09 1.88306e-12 -1.4934e-07)
(2.28008e-09 1.03445e-12 -1.85735e-07)
(7.52533e-11 -3.15202e-13 -1.88232e-07)
(-1.63724e-10 6.33918e-13 -1.52198e-07)
(-3.23898e-10 -1.17754e-12 -2.83076e-07)
(-7.10889e-10 -5.13519e-13 -5.21835e-07)
(-1.45503e-09 1.41205e-12 -9.34679e-07)
(-3.15121e-09 -3.61934e-12 -1.5831e-06)
(2.17931e-09 -2.62253e-12 -1.58369e-06)
(3.57603e-09 1.06522e-11 -2.52601e-06)
(8.36438e-09 9.66746e-12 -3.79326e-06)
(2.13519e-08 -8.83115e-12 -5.3897e-06)
(-1.39174e-07 -1.4235e-11 -8.35872e-06)
(-4.04289e-07 6.97643e-13 -7.71717e-06)
(1.5856e-06 -5.23937e-11 -1.18076e-05)
(-2.88046e-07 -1.13728e-06 -6.98303e-06)