/*--------------------------------*- C++ -*----------------------------------*\
| =========                 |                                                 |
| \\      /  F ield         | OpenFOAM: The Open Source CFD Toolbox           |
|  \\    /   O peration     | Version:  2306                                  |
|   \\  /    A nd           | Website:  www.openfoam.com                      |
|    \\/     M anipulation  |                                                 |
\*---------------------------------------------------------------------------*/
FoamFile
{
    version     2.0;
    format      ascii;
    arch        "LSB;label=32;scalar=64";
    class       volScalarField;
    location    "1.4";
    object      gradTz;
}
// * * * * * * * * * * * * * * * * * * * * * * * * * * * * * * * * * * * * * //

dimensions      [0 -1 0 1 0 0 0];

internalField   nonuniform List<scalar> 
2658
(
-0.0723584
-0.0693876
-0.0485049
-0.0438918
-0.0554989
-0.0567669
-0.0493916
-0.0477305
-0.0438547
-0.056601
-0.0582767
-0.0474365
-0.0644439
-0.0606075
-0.0622432
-0.0639637
-0.0619499
-0.0638198
-0.0621533
-0.0597995
-0.0633646
-0.0570819
-0.0650839
-0.0489517
-0.0770228
-0.0632781
-0.056818
-0.0663853
-0.0681077
-0.0564937
-0.0681071
-0.056818
-0.0632775
-0.0650832
-0.0770228
-0.048951
-0.0618662
-0.0885501
-0.0570812
-0.0633662
-0.0598003
-0.0621535
-0.0638192
-0.0910432
-0.0564001
-0.0557786
-0.0582769
-0.0909864
-0.0639646
-0.0622436
-0.0606069
-0.0644445
-0.0577201
-0.0918828
-0.0645011
-0.062325
-0.0909894
-0.0560348
-0.0494191
-0.0638863
-0.0909904
-0.0623258
-0.0645017
-0.0918831
-0.0580192
-0.0475312
-0.0581255
-0.0514561
-0.0561204
-0.0561192
-0.0445065
-0.0484015
-0.0366395
-0.0411517
-0.0308477
-0.040728
-0.0410321
-0.0308045
-0.0342287
-0.0335303
-0.0410345
-0.0366215
-0.0481499
-0.0495498
-0.041328
-0.0289153
-0.019206
-0.0120211
-0.00708707
-0.00395033
-0.00212556
-0.001557
-0.00121364
-0.0010197
-0.00105471
-0.00119289
-0.00103439
-0.00154652
-0.00103476
-0.00104766
-0.00155365
-0.00106095
-0.00118889
-0.00127264
-0.00107933
-0.00121527
-0.000882509
-0.00159751
-0.000946595
-0.00137873
-0.00127421
-0.00104503
-0.00142183
-0.00104499
-0.00127421
-0.00137875
-0.00107937
-0.00121527
-0.0011889
-0.00127265
-0.0010609
-0.00155356
-0.00104764
-0.00103475
-0.00106503
-0.00107003
-0.00101967
-0.00119294
-0.00103439
-0.00105475
-0.00155369
-0.00105233
-0.00126009
-0.00104554
-0.00136829
-0.000996064
-0.000974628
-0.00120037
-0.00101871
-0.00101874
-0.000974588
-0.000996061
-0.00108423
-0.00113502
-0.00142246
-0.00113449
-0.00134352
-0.00133705
-0.000924701
-0.000929256
-0.000870009
-0.00124742
-0.00125957
-0.00077898
-0.00106942
-0.00102028
-0.000927134
-0.00101232
-0.000941772
-0.000995282
-0.00102523
-0.000961532
-0.00102576
-0.000993273
-0.000934546
-0.0010049
-0.00092133
-0.00105904
-0.00164732
-0.00154056
-0.00232405
-0.00329519
-0.00453109
-0.00614077
-0.00828225
-0.0109362
-0.0143004
-0.0183582
-0.0232459
-0.0290127
-0.0355742
-0.0431168
-0.0513317
-0.0587933
-0.0568744
-0.0558051
-0.0563641
-0.0566002
-0.0554982
-0.0438911
-0.0567675
-0.0581246
-0.0475312
-0.0580193
-0.0474366
-0.0770093
-0.0413279
-0.0289152
-0.0192059
-0.012021
-0.007087
-0.00395025
-0.00212551
-0.00155701
-0.00121365
-0.000848199
-0.000927321
-0.00156168
-0.000952704
-0.000952709
-0.000927334
-0.000848197
-0.00156169
-0.000878393
-0.00107001
-0.00106503
-0.00118962
-0.00102566
-0.00121461
-0.000852832
-0.000876362
-0.00124263
-0.00156618
-0.00155731
-0.00161714
-0.0015573
-0.0012146
-0.000882495
-0.000960988
-0.00159751
-0.00101476
-0.00101476
-0.000960983
-0.00128442
-0.000937817
-0.0009472
-0.000947191
-0.00155851
-0.000937815
-0.00117861
-0.0010841
-0.00106358
-0.000983664
-0.00112523
-0.0010668
-0.00111336
-0.00160059
-0.0014548
-0.00106165
-0.00143026
-0.00101139
-0.000864161
-0.00106458
-0.00121721
-0.00199631
-0.00248776
-0.00248776
-0.00188747
-0.0034811
-0.00255649
-0.00474177
-0.00647898
-0.00470784
-0.00863087
-0.0114776
-0.00824618
-0.0148986
-0.0191924
-0.0136191
-0.0242367
-0.0302203
-0.0211863
-0.0371342
-0.0448219
-0.0310384
-0.0533012
-0.0635696
-0.0444227
-0.0692466
-0.0482553
-0.0622784
-0.0622782
-0.0663842
-0.0671095
-0.0596843
-0.0552531
-0.0799055
-0.0527666
-0.052767
-0.0531922
-0.0799942
-0.0538784
-0.0538785
-0.0512568
-0.0790352
-0.0654867
-0.0654865
-0.0765032
-0.10871
-0.0765035
-0.0777534
-0.10747
-0.0775319
-0.0901585
-0.0773496
-0.0755534
-0.0623997
-0.0726946
-0.0857072
-0.0794509
-0.0512568
-0.0489994
-0.0781202
-0.0626744
-0.0777815
-0.107473
-0.0775817
-0.0860004
-0.0785439
-0.0793645
-0.0785436
-0.0781201
-0.0623996
-0.0755537
-0.0775298
-0.107471
-0.0777527
-0.0726955
-0.0857073
-0.0860004
-0.077585
-0.107472
-0.0777825
-0.0626742
-0.0726281
-0.0770075
-0.10879
-0.0766019
-0.0657002
-0.0791452
-0.051219
-0.0655507
-0.0734982
-0.0744233
-0.0437633
-0.0307406
-0.0204625
-0.0128253
-0.00756951
-0.00422188
-0.00227203
-0.00220744
-0.00227288
-0.00224895
-0.00225338
-0.00226813
-0.00313428
-0.00433891
-0.0058333
-0.00793188
-0.0104012
-0.0137077
-0.0174782
-0.0223163
-0.027637
-0.0342288
-0.0410312
-0.0495502
-0.0438539
-0.0477306
-0.0493909
-0.0484026
-0.0409753
-0.0314609
-0.0409757
-0.0336704
-0.0341576
-0.0332115
-0.0271415
-0.0277075
-0.020384
-0.0217402
-0.0203493
-0.0276378
-0.0251198
-0.0275595
-0.027435
-0.0207619
-0.0220749
-0.0220533
-0.027579
-0.0251269
-0.0337826
-0.0313456
-0.0407042
-0.0486779
-0.0443896
-0.056364
-0.0515062
-0.0557789
-0.0909866
-0.0726284
-0.0655501
-0.0512187
-0.0745301
-0.0543839
-0.0459842
-0.0431867
-0.0304216
-0.0202477
-0.0126864
-0.0074837
-0.00417293
-0.00224761
-0.00156618
-0.00124262
-0.000876357
-0.00155849
-0.000852812
-0.00102566
-0.00118962
-0.00177098
-0.00148447
-0.00148048
-0.00147471
-0.00149594
-0.00137732
-0.000996978
-0.00159447
-0.00228377
-0.00220547
-0.00320463
-0.00300044
-0.00220688
-0.00217255
-0.00234098
-0.00145836
-0.0014656
-0.00145475
-0.00137426
-0.00141961
-0.00240485
-0.00236165
-0.00172873
-0.00234752
-0.00440874
-0.0044631
-0.00445352
-0.00797978
-0.00810094
-0.00610212
-0.00327934
-0.00317513
-0.00310591
-0.00312122
-0.00429688
-0.00429332
-0.00300781
-0.00311016
-0.00222856
-0.00235156
-0.00440702
-0.00802065
-0.00801349
-0.013703
-0.013851
-0.0135288
-0.0216205
-0.0222859
-0.0177553
-0.0107301
-0.0104306
-0.0103527
-0.0103365
-0.0135744
-0.0135238
-0.00976326
-0.0103411
-0.007837
-0.00556367
-0.00579349
-0.00418469
-0.00580077
-0.0078574
-0.00557511
-0.00579758
-0.00432619
-0.00301378
-0.00338436
-0.00324896
-0.00348108
-0.00183792
-0.00257713
-0.00140792
-0.00179334
-0.000967067
-0.00142695
-0.00171552
-0.00177088
-0.0016528
-0.00170054
-0.00169933
-0.00176579
-0.00177054
-0.00137344
-0.00142917
-0.00240184
-0.0023169
-0.00332615
-0.00317012
-0.00438987
-0.00798537
-0.0136775
-0.0137377
-0.0221071
-0.0220199
-0.0333428
-0.0338372
-0.0325749
-0.0461665
-0.0488748
-0.0406501
-0.0276765
-0.0270913
-0.0275782
-0.0274343
-0.0337826
-0.0335299
-0.0251199
-0.0275591
-0.021963
-0.0161427
-0.017396
-0.0129328
-0.0173597
-0.0220748
-0.0161583
-0.0174131
-0.0135911
-0.00977903
-0.0108612
-0.00622318
-0.00595652
-0.00647887
-0.00346587
-0.00474163
-0.00255647
-0.00260763
-0.00464056
-0.00630027
-0.00840786
-0.00840774
-0.00624161
-0.0111146
-0.00838774
-0.0144638
-0.0105941
-0.0185618
-0.0138333
-0.0234648
-0.0169549
-0.0292023
-0.0214687
-0.035873
-0.0255704
-0.0431742
-0.0313289
-0.0518348
-0.036317
-0.0589915
-0.0433852
-0.0719291
-0.0587072
-0.0719291
-0.0482553
-0.0692454
-0.0444223
-0.0635695
-0.036331
-0.0533004
-0.0310381
-0.0448215
-0.0257293
-0.0371338
-0.0211864
-0.0302205
-0.0170618
-0.0242365
-0.0136188
-0.0191925
-0.0106467
-0.0148981
-0.00824604
-0.0114777
-0.00625324
-0.00863059
-0.00470776
-0.00479428
-0.00616603
-0.00342166
-0.0019159
-0.00130323
-0.00120784
-0.00151586
-0.00252571
-0.0045141
-0.00796334
-0.0134096
-0.0213315
-0.0319615
-0.0449489
-0.0574663
-0.0671682
-0.0658577
-0.0658576
-0.0606759
-0.0713741
-0.0557698
-0.0479614
-0.0689169
-0.0484111
-0.0568672
-0.0515117
-0.052768
-0.0512877
-0.043385
-0.0589907
-0.0363164
-0.0518348
-0.0425891
-0.0439242
-0.0308373
-0.0255699
-0.0358732
-0.0431731
-0.0313293
-0.0384585
-0.0264028
-0.0214686
-0.0292016
-0.0169547
-0.0234653
-0.0197918
-0.020521
-0.0128714
-0.00761119
-0.00624151
-0.0111142
-0.0144642
-0.0185612
-0.013833
-0.0170597
-0.0103799
-0.00799286
-0.00446397
-0.00242093
-0.00232119
-0.00188748
-0.00345295
-0.00224658
-0.00345296
-0.00260762
-0.00464054
-0.00348545
-0.00630053
-0.00479433
-0.00595656
-0.00426374
-0.00348534
-0.00409157
-0.00324896
-0.00171554
-0.00179334
-0.00140795
-0.0025772
-0.001427
-0.00199632
-0.00106163
-0.0012172
-0.00136704
-0.0010646
-0.000864164
-0.00101137
-0.00105903
-0.0014303
-0.00109296
-0.00101005
-0.00118615
-0.00106677
-0.00106355
-0.00112524
-0.000983569
-0.00115808
-0.00107586
-0.00110416
-0.00107586
-0.00098502
-0.00154649
-0.0011581
-0.00117862
-0.00118616
-0.00094659
-0.00101005
-0.00109295
-0.00118078
-0.00106018
-0.000983376
-0.00116211
-0.00112789
-0.0010678
-0.00115858
-0.000908124
-0.00120657
-0.00120823
-0.00168203
-0.00107976
-0.00127641
-0.00158748
-0.00160882
-0.00130084
-0.00241945
-0.00446013
-0.00798871
-0.0135307
-0.0135358
-0.0215898
-0.032421
-0.0460658
-0.071442
-0.0659587
-0.10092
-0.059684
-0.0671109
-0.0929222
-0.0774047
-0.0774028
-0.0929226
-0.0985168
-0.0593527
-0.0790636
-0.0769256
-0.0785395
-0.0497904
-0.0637088
-0.0719402
-0.0783572
-0.107885
-0.0785807
-0.0911687
-0.0750985
-0.0847969
-0.0779382
-0.0800574
-0.0804081
-0.0860694
-0.10314
-0.0804106
-0.098517
-0.079065
-0.059352
-0.0523713
-0.0785392
-0.0637081
-0.0497901
-0.0505609
-0.0791453
-0.0657014
-0.0766008
-0.108789
-0.0770084
-0.085553
-0.0797008
-0.0800575
-0.0808931
-0.0806509
-0.0523709
-0.077418
-0.0783701
-0.0849733
-0.0797024
-0.0777018
-0.0855529
-0.0768353
-0.0794511
-0.0489995
-0.0745301
-0.0543839
-0.0515061
-0.0549125
-0.0481291
-0.0335044
-0.0399872
-0.0410776
-0.0407033
-0.0486786
-0.0481493
-0.0366216
-0.0410342
-0.0313449
-0.0401246
-0.0334722
-0.0220324
-0.0271491
-0.0173281
-0.0104253
-0.00590376
-0.00591156
-0.00788584
-0.00751604
-0.00619731
-0.00562719
-0.00411532
-0.00588728
-0.00792345
-0.00743255
-0.0104449
-0.0100829
-0.00776512
-0.00740757
-0.0133876
-0.0126845
-0.0175246
-0.0170344
-0.0126572
-0.02174
-0.0203838
-0.0277077
-0.0271413
-0.0203492
-0.0332113
-0.0308475
-0.0411521
-0.0407277
-0.0308045
-0.0420291
-0.0482804
-0.0693624
-0.0689415
-0.0619515
-0.0547314
-0.0496576
-0.0583274
-0.048711
-0.0485047
-0.033699
-0.0222057
-0.0138034
-0.00808497
-0.00447677
-0.00437381
-0.00595416
-0.0055729
-0.0058369
-0.00423773
-0.00583719
-0.00786927
-0.00762572
-0.0103745
-0.0103742
-0.0078695
-0.00745901
-0.00416784
-0.00226466
-0.00181324
-0.00164696
-0.00167955
-0.0015563
-0.00123526
-0.00155645
-0.00234379
-0.00229437
-0.00316408
-0.0031638
-0.00234398
-0.0018137
-0.00199076
-0.00120554
-0.00120545
-0.000997289
-0.0011198
-0.00199083
-0.00159452
-0.000996909
-0.00137734
-0.00220686
-0.00220558
-0.00300067
-0.0032045
-0.00228396
-0.00167957
-0.00181325
-0.00177088
-0.00227206
-0.00183793
-0.00232406
-0.00220744
-0.00310595
-0.00301378
-0.0042969
-0.00418483
-0.00579366
-0.00556381
-0.00783705
-0.00793195
-0.0074079
-0.0100834
-0.0104449
-0.00743295
-0.00776521
-0.00562754
-0.00588718
-0.00411552
-0.00426277
-0.00408923
-0.00583348
-0.00433893
-0.00429335
-0.00311022
-0.0030079
-0.00313439
-0.00217264
-0.00226816
-0.00225339
-0.00222857
-0.00312127
-0.00224898
-0.00227289
-0.00148448
-0.00165278
-0.00148047
-0.00095311
-0.00147474
-0.00164695
-0.00149591
-0.000885884
-0.000995278
-0.00102522
-0.00176579
-0.00169939
-0.00170056
-0.00172878
-0.00141963
-0.00130326
-0.00191593
-0.00342171
-0.00240482
-0.00445382
-0.00616615
-0.0106789
-0.00798024
-0.0135295
-0.0175001
-0.0174999
-0.0106787
-0.00838755
-0.0270187
-0.027019
-0.0216212
-0.0325752
-0.0392171
-0.0392158
-0.0525416
-0.0525424
-0.0461665
-0.0606766
-0.0713817
-0.0557698
-0.0587954
-0.0441063
-0.0568742
-0.0515118
-0.0564001
-0.0496576
-0.0734983
-0.0744234
-0.0437636
-0.0307408
-0.0204626
-0.0128254
-0.00756958
-0.00422192
-0.00346593
-0.00453114
-0.00415457
-0.00579766
-0.0055753
-0.00785742
-0.00757591
-0.0103414
-0.00976327
-0.013524
-0.0137077
-0.0126575
-0.0170347
-0.0175243
-0.0126847
-0.0133876
-0.0136938
-0.00977195
-0.0135645
-0.0129896
-0.0174207
-0.0174206
-0.0135646
-0.00977204
-0.0136933
-0.0104614
-0.00813839
-0.00452922
-0.00247315
-0.00147459
-0.00181389
-0.00142894
-0.00106872
-0.00077969
-0.00125037
-0.00136815
-0.00104569
-0.00126016
-0.00120817
-0.00105233
-0.00155366
-0.0009417
-0.00101229
-0.00168195
-0.000927106
-0.00102026
-0.00137328
-0.00145833
-0.00146553
-0.00145472
-0.000934537
-0.000993285
-0.00177097
-0.00102575
-0.000961582
-0.000907884
-0.00154058
-0.000967074
-0.00164732
-0.0010049
-0.000921281
-0.00137414
-0.00234755
-0.00236168
-0.0032795
-0.00329526
-0.00317526
-0.00432629
-0.00440891
-0.00446353
-0.00610229
-0.00614101
-0.00828237
-0.00751606
-0.010353
-0.00977906
-0.0135914
-0.0135745
-0.0129332
-0.0173963
-0.0161424
-0.0219635
-0.0223163
-0.0174787
-0.0173283
-0.0173175
-0.0174135
-0.0161585
-0.0173602
-0.0126865
-0.00748381
-0.00417299
-0.00224763
-0.00338437
-0.0062232
-0.0108612
-0.0103799
-0.0170597
-0.0178669
-0.0178669
-0.0276599
-0.0251262
-0.0336492
-0.0310607
-0.0402189
-0.0366078
-0.0483552
-0.0441057
-0.0414096
-0.0284688
-0.0183727
-0.0111588
-0.00638874
-0.00347189
-0.00302263
-0.00433459
-0.00433421
-0.00433399
-0.00433494
-0.00302259
-0.00347191
-0.00638877
-0.00557298
-0.00792379
-0.00595443
-0.00324389
-0.0024019
-0.00447687
-0.00808528
-0.0104616
-0.010932
-0.00619754
-0.00590405
-0.0059118
-0.00788598
-0.00801367
-0.00810143
-0.0107305
-0.0109366
-0.0143005
-0.0128216
-0.0183587
-0.0232459
-0.0205727
-0.0290139
-0.0355746
-0.0310617
-0.0410784
-0.0366079
-0.0483557
-0.051332
-0.0363314
-0.0431176
-0.0257296
-0.0406512
-0.0276771
-0.0177557
-0.0138522
-0.0137036
-0.022021
-0.0222882
-0.0333445
-0.0338403
-0.0479633
-0.048873
-0.0689199
-0.0484112
-0.061866
-0.0885512
-0.0750986
-0.0785801
-0.107884
-0.0783577
-0.0719404
-0.0910438
-0.0568683
-0.054732
-0.0558062
-0.0431868
-0.0304217
-0.0202478
-0.0215804
-0.0323921
-0.040219
-0.0384584
-0.0264029
-0.02766
-0.0284689
-0.0201694
-0.0126377
-0.0183727
-0.0111589
-0.0161552
-0.0222868
-0.0220341
-0.0208403
-0.0275663
-0.0275661
-0.0220342
-0.0161551
-0.0222864
-0.0173612
-0.0181593
-0.0136464
-0.0109318
-0.00795828
-0.0284458
-0.0220317
-0.0271884
-0.0341572
-0.0336706
-0.0251396
-0.0303082
-0.04304
-0.0733734
-0.070336
-0.0531923
-0.0738033
-0.0527681
-0.0512879
-0.0774186
-0.0552534
-0.0806504
-0.0783701
-0.0849728
-0.0847962
-0.0769276
-0.0911688
-0.077939
-0.0777027
-0.0813028
-0.0770094
-0.0560345
-0.0548939
-0.0484168
-0.040159
-0.0366393
-0.0548934
-0.0693875
-0.07236
-0.0605398
-0.0690613
-0.0638864
-0.0620095
-0.0514559
-0.0337563
-0.0222878
-0.0138714
-0.0173613
-0.0138037
-0.0222053
-0.0271885
-0.0251398
-0.0284461
-0.0181596
-0.0136779
-0.00798574
-0.00439005
-0.00234104
-0.00235154
-0.00440711
-0.00802081
-0.0104311
-0.0103367
-0.0137381
-0.0221076
-0.0270922
-0.0336493
-0.0399878
-0.0401242
-0.02715
-0.0220327
-0.0334727
-0.0335058
-0.0481307
-0.0689436
-0.0549119
-0.048282
-0.0693627
-0.0583282
-0.0420293
-0.0401595
-0.0336992
-0.0335768
-0.0487116
-0.0220334
-0.0104256
-0.0104015
-0.00317029
-0.00332631
-0.00177054
-0.00231714
-0.00437418
-0.00795891
-0.0136488
-0.0414096
-0.033573
-0.0170621
-0.0106468
-0.00625347
-0.00580089
-0.0032438
-0.00426275
-0.00408908
-0.000983366
-0.00106019
-0.00118079
-0.0011586
-0.00108866
-0.00106783
-0.00112791
-0.00116212
-0.000984985
-0.00120656
-0.000908039
-0.00120036
-0.00126132
-0.000997246
-0.00111983
-0.00108459
-0.00124985
-0.0173167
-0.022053
-0.0205726
-0.0443885
-0.0505608
-0.0738032
-0.0768316
-0.000878377
-0.000833937
-0.0105942
-0.0123712
-0.00729816
-0.0298635
-0.0128211
-0.0207616
-0.00415445
-0.00757575
-0.000907912
-0.000953111
-0.000885821
-0.0773493
-0.0901584
-0.0767837
-0.0774707
-0.0767823
-0.0577207
-0.0605407
0.00137335
0.00142913
0.00240179
0.00220549
0.00220684
0.00228374
0.00320465
0.00300039
0.00217251
0.00226814
0.00149592
0.000885829
0.00101237
0.000941839
0.000995327
0.00102527
0.000961623
0.0010258
0.000993333
0.000934626
0.00100498
0.000921467
0.00105907
0.000967058
0.00143028
0.00101141
0.00086418
0.00109293
0.00106458
0.000833994
0.00106457
0.000864161
0.0010114
0.00105907
0.0014303
0.000967066
0.00154056
0.00164729
0.000921427
0.00100496
0.000934625
0.000993339
0.00102579
0.00177099
0.00148044
0.00147469
0.00149588
0.00176575
0.00102528
0.000995314
0.000941823
0.00101236
0.000927267
0.00168195
0.0010203
0.00111981
0.0019908
0.00155644
0.00123522
0.00120552
0.00199072
0.00111981
0.00102025
0.00168202
0.00137728
0.000996928
0.00159444
0.00167958
0.002344
0.00234378
0.00229435
0.00316376
0.0030226
0.00433457
0.00411536
0.00426272
0.00433888
0.00408902
0.00583315
0.00579338
0.00429325
0.0030078
0.00311013
0.00313421
0.0021255
0.00395023
0.00708694
0.0120209
0.0192058
0.0289151
0.0413277
0.0770093
0.0781199
0.0626742
0.077783
0.0726279
0.0770079
0.108789
0.0766011
0.0783571
0.107886
0.0785796
0.0750985
0.0911685
0.0790634
0.0769258
0.0523708
0.0774179
0.0593524
0.0985167
0.0929219
0.0774047
0.103141
0.0774022
0.0929222
0.0985161
0.0790641
0.0769258
0.0750986
0.0911687
0.0785796
0.107883
0.078357
0.0766012
0.0657002
0.0655506
0.062674
0.072628
0.0770078
0.0777832
0.107471
0.0775845
0.0901589
0.0775294
0.10747
0.0777531
0.0765027
0.0726954
0.0654865
0.0654867
0.076503
0.0777534
0.107469
0.0775318
0.0901583
0.0773492
0.077582
0.107472
0.0606066
0.0644433
0.0918828
0.0577199
0.0645015
0.0605398
0.0623253
0.0638863
0.062009
0.0638864
0.0494191
0.0560347
0.0560348
0.0909894
0.0623251
0.060539
0.0645016
0.0577214
0.0644442
0.0606061
0.0622432
0.0639632
0.061949
0.0638194
0.0621529
0.0597993
0.0633641
0.0570829
0.0650824
0.0885503
0.0618659
0.0587943
0.0513314
0.0431176
0.0355738
0.0290138
0.0232458
0.0183588
0.0143004
0.0109364
0.00828228
0.00614095
0.00453111
0.00329525
0.00232402
0.00227289
0.00224893
0.00225337
0.0022681
0.00220681
0.00220552
0.00228394
0.00159447
0.000996927
0.0013773
0.000885879
0.001557
0.00212554
0.00395029
0.00708702
0.012021
0.0192059
0.028915
0.0413277
0.0770092
0.0781199
0.0489995
0.0512565
0.0745299
0.0538785
0.0538781
0.0512566
0.0489994
0.07453
0.0512187
0.0655499
0.0657005
0.0719402
0.0637077
0.0785391
0.0497901
0.0505608
0.0791451
0.0734982
0.0744232
0.0714418
0.0744232
0.078539
0.0523706
0.0552526
0.0774179
0.0596839
0.0596839
0.0552526
0.0799054
0.0527671
0.053192
0.0531918
0.0738031
0.0527666
0.0783697
0.0808936
0.0800568
0.0779376
0.0847967
0.0804084
0.0860697
0.100919
0.0659584
0.0482547
0.0770224
0.0632771
0.0568172
0.0681074
0.0622775
0.0719283
0.0589907
0.0589903
0.0363168
0.0533002
0.0310374
0.0448214
0.0371338
0.0211863
0.0302202
0.0242365
0.0136189
0.0191924
0.0148983
0.00824604
0.0114776
0.00863076
0.00470776
0.00647885
0.00474165
0.00255641
0.00348103
0.00257713
0.00140791
0.00179331
0.00106164
0.00121715
0.00121716
0.00109292
0.00101006
0.00101476
0.000960983
0.0012844
0.000937799
0.0009378
0.000947185
0.00130081
0.000952691
0.000952686
0.000927317
0.00127638
0.00101868
0.00101871
0.000974589
0.00134353
0.00113449
0.00113502
0.00125034
0.0013682
0.00104577
0.00126033
0.00105247
0.00155383
0.00105481
0.00101971
0.00121364
0.000908047
0.00120658
0.00120825
0.00112794
0.00116215
0.0010345
0.00154675
0.00103486
0.00106503
0.0012426
0.000878377
0.00107
0.00119285
0.0015662
0.00155731
0.00227204
0.00422187
0.00756953
0.0128254
0.0204624
0.0307406
0.0437632
0.044106
0.0568742
0.0558056
0.0563639
0.0566
0.0495501
0.0410309
0.0342286
0.0276371
0.0223161
0.0174784
0.0137076
0.0104013
0.00793181
0.00583338
0.00433887
0.00313435
0.00217258
0.00300053
0.00320444
0.00316407
0.00433395
0.00423763
0.00433425
0.00583678
0.00588723
0.00562718
0.0077651
0.00792346
0.00743254
0.0100829
0.00740749
0.00793183
0.00556369
0.00783688
0.00785731
0.0075756
0.0103362
0.0103524
0.00788586
0.00557505
0.00580063
0.00418471
0.00429683
0.00312118
0.00222848
0.00225336
0.00164692
0.00147467
0.00176575
0.00119292
0.00105478
0.00155381
0.0010524
0.00126023
0.00104559
0.00136831
0.0012498
0.00108463
0.000974605
0.000996038
0.00120034
0.000908123
0.000848204
0.00121365
0.00120657
0.00101968
0.00107002
0.00087839
0.00156168
0.000927311
0.00158747
0.00226465
0.0041678
0.00745898
0.0126376
0.0201694
0.0303082
0.0430398
0.0733733
0.079035
0.0793642
0.0785434
0.0768331
0.0855521
0.0777039
0.108788
0.0849722
0.063709
0.0497901
0.0505604
0.073803
0.052768
0.0515115
0.0564002
0.0557784
0.0582768
0.0580194
0.0475315
0.0581248
0.0567671
0.0438915
0.0493909
0.0477306
0.0554981
0.0438541
0.0482804
0.0693626
0.0689426
0.06892
0.0713819
0.0606763
0.0461664
0.0488758
0.0557697
0.0479636
0.0333427
0.0338382
0.0325763
0.0216211
0.0222871
0.0276775
0.0406497
0.039987
0.0483556
0.0486776
0.0407034
0.041034
0.0366214
0.0481493
0.0443891
0.0431866
0.0734981
0.0791448
0.0512188
0.079451
0.0797025
0.0783697
0.080651
0.0593519
0.0671086
0.0663845
0.0658563
0.0671674
0.0574661
0.0449486
0.0319612
0.0213317
0.0134097
0.00796349
0.00451407
0.0025257
0.00151582
0.0012078
0.00130321
0.00130321
0.00141962
0.00240485
0.00445368
0.00798008
0.0135293
0.0138516
0.017756
0.0220207
0.0137034
0.00801359
0.00810108
0.0107305
0.0104308
0.0135913
0.0135743
0.0103366
0.0103411
0.00976317
0.0135238
0.0173961
0.0161425
0.0219632
0.0275589
0.0251199
0.0335301
0.0313447
0.0337826
0.0274345
0.025127
0.0336495
0.0410771
0.0366077
0.0402187
0.0304214
0.0202475
0.0207617
0.0220748
0.0173599
0.0161583
0.0220533
0.0275783
0.0205728
0.0270917
0.0335049
0.0481294
0.054731
0.0568676
0.0910432
0.0719402
0.0484111
0.054912
0.090986
0.0583278
0.0723586
0.0693877
0.0485054
0.0487172
0.0420278
0.0401236
0.033472
0.0220324
0.0221072
0.0137379
0.00802065
0.00440698
0.00440882
0.00446314
0.00610228
0.00591159
0.00788588
0.00785733
0.00580076
0.00579349
0.00556373
0.00783701
0.00757576
0.00748372
0.0126864
0.012933
0.0108611
0.00977892
0.0103527
0.00751604
0.0103799
0.0148986
0.0106468
0.0191924
0.0136191
0.0242371
0.0170618
0.0302204
0.0211868
0.0371347
0.0257294
0.0448213
0.0310381
0.0533008
0.0363313
0.063569
0.0444224
0.0692451
0.0489509
0.0433851
0.0512876
0.0512876
0.0692451
0.0444223
0.063569
0.043385
0.071929
0.0482547
0.0622776
0.0587069
0.0681077
0.0568173
0.0632773
0.0650828
0.0770226
0.0663842
0.0671104
0.0806508
0.0804092
0.0800583
0.0847962
0.0779358
0.084972
0.0797007
0.0813028
0.0799941
0.0703358
0.0459841
0.0460656
0.0439241
0.0363168
0.051834
0.043174
0.0358728
0.0292025
0.0292017
0.0169551
0.0234652
0.013833
0.0185614
0.0105942
0.014464
0.00838767
0.0111144
0.00624149
0.00840788
0.00479435
0.00630031
0.00348541
0.00464052
0.00260753
0.00345289
0.0018875
0.00248774
0.00142694
0.00199628
0.00136702
0.00199629
0.00106163
0.0017933
0.00140791
0.0025772
0.00183795
0.00348107
0.00255648
0.00474172
0.00346592
0.00647892
0.00470776
0.00863082
0.00625334
0.0114777
0.00824617
0.00838776
0.0111145
0.00729824
0.00840776
0.00630048
0.00464046
0.00345297
0.0022466
0.00248777
0.00142697
0.00171552
0.00324894
0.00260759
0.00342166
0.00616619
0.010679
0.0175005
0.0270194
0.0392165
0.0525416
0.0525413
0.0658573
0.0606764
0.0461655
0.039216
0.0518348
0.0313289
0.0431731
0.0255696
0.0358733
0.0214686
0.0264027
0.0308372
0.0255699
0.0298635
0.0205209
0.016955
0.0234648
0.0185619
0.0144639
0.0105942
0.0128714
0.0123714
0.0076112
0.00624155
0.00426374
0.00348543
0.00409147
0.00232119
0.00188747
0.00145479
0.00160057
0.00101475
0.00101006
0.00127434
0.00104515
0.0010451
0.00127432
0.00137882
0.000946607
0.00107938
0.00121528
0.0012146
0.00085281
0.00102565
0.00118967
0.00104774
0.00155375
0.00106104
0.00127281
0.00118891
0.00112526
0.000983599
0.00106358
0.0010668
0.00111338
0.00142207
0.00106683
0.00137889
0.00107945
0.000946603
0.000882519
0.0012146
0.00102566
0.000852831
0.000876365
0.00124262
0.00106504
0.00103482
0.00154666
0.00103451
0.00116215
0.00107585
0.00106355
0.00108408
0.00118615
0.000882497
0.0015975
0.0011786
0.00115813
0.00107585
0.000985075
0.00110413
0.0011786
0.00118614
0.000960982
0.00159751
0.00171552
0.00242092
0.00446395
0.00799283
0.0135357
0.0215898
0.032421
0.0384583
0.0313295
0.0384582
0.0437633
0.0363315
0.0587939
0.0441056
0.0483553
0.0366077
0.0407028
0.0313447
0.0335297
0.0251193
0.0275588
0.0276367
0.0203491
0.0217398
0.0222865
0.0203837
0.0271408
0.033211
0.034157
0.0308471
0.0407271
0.0308039
0.0342284
0.0410311
0.0410335
0.0481494
0.0366218
0.0495494
0.0438547
0.0477301
0.0493908
0.0438911
0.0554981
0.0566003
0.0563633
0.0443889
0.0486778
0.0558052
0.0568737
0.0568677
0.0515116
0.0564001
0.0496574
0.0557786
0.0515061
0.0582765
0.0474365
0.0580193
0.0581252
0.0475308
0.0693876
0.069061
0.0548938
0.051456
0.0561192
0.0445068
0.0484017
0.048402
0.0366387
0.0411516
0.0308468
0.0341572
0.0332112
0.0407268
0.0308043
0.0271411
0.020384
0.0222867
0.0217399
0.0203495
0.0170346
0.0126848
0.0136936
0.0133873
0.0126573
0.0136777
0.00798552
0.00438992
0.00234095
0.00235153
0.00234749
0.00236168
0.00327953
0.00317519
0.00432627
0.00429686
0.00312127
0.00311014
0.00300778
0.00429334
0.00418474
0.00417292
0.00224762
0.00222849
0.00177087
0.00165278
0.00148443
0.000907912
0.00145471
0.00137415
0.00172872
0.00170048
0.00146553
0.000961682
0.000953106
0.00169933
0.00317013
0.00590387
0.0104254
0.017328
0.0271493
0.0284463
0.0335765
0.0336992
0.0222044
0.0220316
0.0181595
0.0173608
0.0271881
0.0277072
0.0275658
0.0208404
0.022034
0.0220341
0.016155
0.0174206
0.0129892
0.0135644
0.0135643
0.00977187
0.0104447
0.00743271
0.00792372
0.00776511
0.0100833
0.00740766
0.0109319
0.0136479
0.0138034
0.00808504
0.00795702
0.00619743
0.00595423
0.00588707
0.00411543
0.00433485
0.0042627
0.00562738
0.00408913
0.00332617
0.00437402
0.00447687
0.00240182
0.00231687
0.00177047
0.00145829
0.00137332
0.00142895
0.00106876
0.000779697
0.000924689
0.00086998
0.000929271
0.000779048
0.00106943
0.000997245
0.0012596
0.00147456
0.00247316
0.0032439
0.00302255
0.00347188
0.00338435
0.00301379
0.00310589
0.00220741
0.00622317
0.00557518
0.00579755
0.00415443
0.00595653
0.00479432
0.00595651
0.0103799
0.0170597
0.0204623
0.0307405
0.0257292
0.0431164
0.0310607
0.0336489
0.0251265
0.0274338
0.0207614
0.021963
0.0161422
0.0173957
0.017478
0.0126571
0.0133873
0.0136934
0.0126844
0.0170343
0.0175242
0.016155
0.0174204
0.017361
0.0222874
0.0337559
0.0484165
0.040158
0.0401591
0.0548926
0.051456
0.0567666
0.0561197
0.0543839
0.052768
0.0402187
0.0431866
0.0304214
0.0323921
0.02766
0.0264029
0.0214686
0.0170597
0.0138332
0.0178668
0.0215803
0.0135307
0.00798866
0.00446009
0.00241944
0.00160882
0.00161714
0.00155731
0.00227203
0.00422186
0.00756948
0.0128253
0.0106466
0.0183581
0.0128212
0.0135911
0.00977883
0.0135743
0.0129328
0.0135237
0.00976315
0.0103409
0.010401
0.0137075
0.010425
0.0104304
0.0107299
0.0135293
0.0216208
0.0325754
0.0270186
0.0175
0.0106788
0.00616605
0.00798006
0.00445362
0.00342168
0.00191587
0.00240473
0.00141957
0.00137426
0.00172865
0.00232403
0.00220741
0.00227284
0.00165275
0.00148044
0.000953095
0.00156619
0.0022476
0.0041729
0.00748366
0.0126863
0.0202475
0.0276598
0.0178668
0.0161581
0.0174127
0.0173594
0.0220745
0.022053
0.0232456
0.0205721
0.0290129
0.0170618
0.035574
0.027676
0.0406489
0.0513312
0.0557706
0.0618659
0.048411
0.0633659
0.0570809
0.0885503
0.0713757
0.0689165
0.0597988
0.0621532
0.0910431
0.0638192
0.0619515
0.0639645
0.090986
0.0622435
0.069362
0.0689413
0.0547322
0.0479614
0.048875
0.0333421
0.0338389
0.0220194
0.0222863
0.017755
0.0173163
0.0270911
0.0275779
0.0337825
0.0399865
0.0410772
0.0481283
0.0335041
0.0221065
0.0137374
0.0137027
0.0138511
0.00801314
0.00751585
0.00828219
0.00614082
0.00415436
0.00432622
0.00301374
0.00310588
0.0032952
0.00183792
0.00453106
0.00346587
0.00327942
0.006102
0.00810103
0.00591138
0.00579742
0.0044087
0.00446321
0.00234752
0.0023615
0.00145476
0.000907899
0.00154052
0.00164731
0.001189
0.00106102
0.00155379
0.00104776
0.00118969
0.00177099
0.00148444
0.00170046
0.00224895
0.00317505
0.00317
0.00590351
0.00802036
0.00440687
0.00235148
0.00146557
0.00169924
0.00234091
0.00438976
0.00798525
0.0136772
0.022032
0.0334718
0.0482799
0.0549127
0.0583282
0.0485044
0.0336982
0.0271884
0.0336703
0.0336702
0.0314605
0.0409745
0.0411511
0.0366391
0.0414094
0.0414094
0.0543839
0.0515062
0.0284686
0.0251391
0.0284686
0.025139
0.0277072
0.0275659
0.0183725
0.0183726
0.0111588
0.0111587
0.010861
0.00622316
0.00338433
0.00324893
0.00177087
0.00155849
0.000947185
0.00181324
0.00347187
0.00638871
0.00638872
0.00557291
0.00786926
0.00762549
0.00786948
0.00557291
0.00595422
0.00813822
0.0104612
0.0103744
0.0103742
0.0104448
0.00977188
0.0104614
0.0138711
0.0138032
0.0222049
0.0181592
0.0284453
0.0271486
0.0401234
0.0420277
0.0487162
0.0335758
0.0173274
0.022316
0.022033
0.0136485
0.0109314
0.00808484
0.00447672
0.0045292
0.00324379
0.00332606
0.00619734
0.00795779
0.00437389
0.00177049
0.00231681
0.00181371
0.00155627
0.00181385
0.00167956
0.00181323
0.00164692
0.00156167
0.000848198
0.00118076
0.00106017
0.000983297
0.00107974
0.00118076
0.00115857
0.00106016
0.000983213
0.00112794
0.00106775
0.00108864
0.00106787
0.00115859
0.000996063
0.00108424
0.0009973
0.00120543
0.00133702
0.00126136
0.0012474
0.00120036
0.00142233
0.00120833
0.00145834
0.00583712
0.001557
0.0409748
0.0723585
0.00115812
0.00112526
0.00121529
0.00127284
0.000983645
0.000985015
0.00625325
0.0109362
0.0143001
0.0489508
0.00191589
0.0909898
0.0726946
0.0623993
0.0755535
0.0859994
0.0785436
0.0794509
0.0857066
0.0774706
0.0857064
0.0767838
0.0859992
0.0755535
0.0623996
0.0773489
0.0918825
0.108709
0.0767823
0.0855524
0.077705
0.0768335
0.0175242
0.0173169
0.0174131
0.0128215
0.00155848
0.000876354
0.0197916
0.04259
0.0564951
0.0310605
0.0496576
0.0474365
0.00092716
)
;

boundaryField
{
    face
    {
        type            calculated;
        value           nonuniform List<scalar> 
154
(
-0.08
-0.08
-0.08
-0.08
-0.08
-0.08
-0.08