/*--------------------------------*- C++ -*----------------------------------*\
| =========                 |                                                 |
| \\      /  F ield         | OpenFOAM: The Open Source CFD Toolbox           |
|  \\    /   O peration     | Version:  2306                                  |
|   \\  /    A nd           | Website:  www.openfoam.com                      |
|    \\/     M anipulation  |                                                 |
\*---------------------------------------------------------------------------*/
FoamFile
{
    version     2.0;
    format      ascii;
    arch        "LSB;label=32;scalar=64";
    class       volScalarField;
    location    "1.4";
    object      gradTx;
}
// * * * * * * * * * * * * * * * * * * * * * * * * * * * * * * * * * * * * * //

dimensions      [0 -1 0 1 0 0 0];

internalField   nonuniform List<scalar> 
2658
(
0.00848956
0.0124588
0.00403998
-0.000204254
-0.0162653
-0.0137321
0.0137333
0.0135765
-0.000219759
0.0194475
-0.0135212
-0.0100592
0.0069013
0.00811502
0.00617578
-0.000486903
-0.000276098
-0.000144927
-0.00677439
-0.00882665
-0.00848067
-0.0196981
-0.023389
0.0174096
-0.00728551
-0.00931561
-0.0200366
-0.00280768
-0.0146687
-0.0158827
-0.0146685
-0.020037
-0.00931615
-0.0233903
-0.00728508
0.0174094
-0.00895074
0.00436648
-0.0196949
-0.00848304
-0.00882646
-0.00677398
-0.000146211
0.000609733
-0.0111458
0.010406
-0.013521
-0.000534563
-0.000488866
0.00617595
0.00811543
0.00690111
0.0186774
-0.00392068
0.0208832
0.017224
-0.00905942
0.000597984
-0.0317196
0.0173757
-0.00905891
0.0172244
0.0208831
-0.00392006
0.00402995
-0.033632
0.00396085
-0.000482476
-0.0103001
-0.0103013
-0.000318043
0.00985247
-0.000799512
-0.0102329
0.000324408
-0.0107989
0.013791
-5.33282e-05
-0.0113128
0.0125998
-0.0158759
-0.000352962
0.0177062
-0.0161017
-0.000382462
-0.000213684
-1.16204e-05
5.42924e-05
5.88731e-05
4.51767e-05
2.81628e-05
-3.85068e-05
3.39311e-05
-0.000253304
0.000164641
-3.33008e-05
-0.000203779
8.20694e-07
0.000204135
-0.000167909
8.94584e-05
0.000230425
0.000214249
0.000159643
0.000166709
-0.000353887
-6.35413e-05
-4.53295e-05
-2.16183e-05
9.42586e-05
0.000202117
7.84583e-05
0.000159186
7.84446e-05
0.000202117
9.42565e-05
0.000166728
-0.000353889
0.000214275
0.000159671
0.000230415
8.94289e-05
-0.000167922
0.000204138
-0.000336571
0.000335581
-0.000253308
-3.33053e-05
-0.000203778
0.000164626
-9.18946e-05
-0.000226096
-0.000150397
-0.000136506
-9.02309e-05
8.64419e-06
-4.46137e-05
-0.000277589
0.000208012
0.000207906
-4.46015e-05
8.59319e-06
8.93719e-05
-9.83222e-05
-0.000112844
-9.80946e-05
4.97924e-05
6.14265e-05
-0.000199621
-0.000207668
-0.000172646
-0.000218801
-0.000214789
-0.000221604
-0.000178035
-0.000310736
-0.000278816
-0.000119033
-0.000139476
-0.000102618
2.51209e-06
-2.89544e-07
-4.70643e-06
9.64445e-05
0.000137418
0.000119236
0.000280862
0.000358999
-8.36983e-05
0.000286361
-0.000774734
0.00104234
-0.00139534
0.00193982
-0.00253675
0.00344344
-0.00439243
0.005772
-0.00717799
0.00914387
-0.0110518
0.013772
-0.0160461
0.0202199
-0.0201793
0.0214368
-0.0221614
0.019447
-0.0162661
-0.000204318
-0.0137313
0.00396011
-0.0336314
0.00403003
-0.0100593
0.00409056
-0.00038252
-0.000213698
-1.17548e-05
5.41839e-05
5.89188e-05
4.52124e-05
2.8173e-05
-3.85105e-05
3.39339e-05
3.99548e-06
-9.25253e-05
-1.0012e-05
0.000125522
0.000125517
-9.25334e-05
4.00959e-06
-9.97624e-06
3.75873e-05
0.000335583
-0.000336593
2.40409e-05
0.00025851
-2.22289e-05
4.38827e-06
-3.67021e-05
-3.30444e-07
2.63014e-06
3.39447e-05
2.60344e-05
3.39442e-05
-2.22721e-05
-6.35259e-05
-0.000164845
-4.5311e-05
3.60884e-05
3.60964e-05
-0.000164856
-6.04151e-06
0.00010399
-0.000124884
-0.000124908
2.27433e-06
0.000104015
-1.99108e-06
-2.07837e-05
-2.75109e-05
-2.58047e-05
0.000115952
-2.61764e-05
-7.36003e-06
-0.000191168
1.1985e-05
-8.69936e-05
0.000139901
0.000135616
0.000294515
0.000208736
-0.000596788
0.000450363
-0.00084755
-0.000847504
-1.94422e-05
-0.000984688
2.2991e-05
0.00126614
-0.00177037
1.96378e-05
0.0023239
-0.00312819
1.10701e-06
0.00402629
-0.00523783
-4.54531e-05
0.00657172
-0.00823869
-0.000146577
0.0101682
-0.0121082
-0.000298675
0.01533
-0.0162543
-0.000909379
0.0257393
0.00423164
0.0306147
0.0306145
-0.00280719
0.00698397
-0.00246197
0.00988161
0.000533091
-0.00621154
-0.00621152
0.00681162
-0.000327845
-0.00799885
-0.00799874
0.00214605
-0.00260864
-0.0114529
-0.0114529
0.0039907
0.0164275
0.00399082
0.00632527
0.0179641
0.0076234
0.0103217
0.0130731
-0.0198356
-0.0115286
0.0110704
0.00745456
-4.14775e-05
0.00214613
-0.00128994
-0.0033755
0.0137579
-0.0101737
0.0063195
0.0146693
0.00838846
-0.00448532
-0.00601245
-0.00448508
-0.00337567
-0.0115283
-0.0198354
0.00762356
0.0179647
0.00632572
0.0110704
0.0074547
0.00838958
0.0146681
0.00631849
-0.0101738
0.0137574
0.0016835
0.0126486
-0.000313099
-0.0131836
0.0201496
-0.000308358
-0.00356806
-0.0207214
-0.000352885
-0.00242275
0.000156864
0.000125878
6.05301e-05
3.26643e-05
1.80026e-05
8.06426e-06
2.19674e-06
-2.33566e-05
0.000792036
-0.000859184
0.000860759
-0.000783697
0.001002
-0.00145485
0.0019088
-0.00264145
0.0034249
-0.00454766
0.00578511
-0.00739047
0.00920884
-0.011312
0.0137902
-0.0161013
-0.000219558
0.0135766
0.0137315
0.0098543
-0.00743486
0.000337801
-0.00743341
0.0067089
0.0092911
0.00921943
-0.0071891
-0.00697499
0.0003433
0.0058973
7.60113e-05
0.00920986
-0.000183304
-0.0105809
0.0102878
-2.75548e-05
-0.0082506
0.00761914
-0.00966786
-1.49282e-05
-0.0126148
-5.53695e-05
0.015376
-0.0178346
-0.000100473
-0.0221615
-0.000762256
0.010406
-0.000534599
0.00168386
-0.0207216
-0.00356788
0.000606959
-0.000312876
-0.000213484
-0.000183019
-0.000108582
-5.31289e-05
-2.42565e-05
-1.0831e-05
-4.96427e-06
-2.18804e-06
2.63824e-06
-3.12729e-07
-3.66669e-05
2.26923e-06
4.38418e-06
0.000258508
2.40244e-05
-9.84364e-06
-0.000365848
0.000330747
-0.000335771
0.000349629
-0.000158997
0.000594103
-0.000198441
0.000527463
6.07756e-05
-0.000827779
-0.000827941
0.00063547
2.93302e-05
1.18701e-05
-5.37662e-05
8.57746e-07
6.02402e-05
0.000126276
0.000171353
-3.77573e-05
-1.64948e-06
8.78594e-05
-1.21774e-05
-6.13591e-05
-7.58527e-05
-9.89687e-05
-0.000180449
-0.000172408
5.29632e-05
4.82979e-05
2.6631e-05
-0.00105112
0.00113039
-0.00161147
0.00161548
-1.86456e-05
-0.00115431
-2.45036e-06
-2.10171e-07
1.42052e-06
4.07388e-06
-0.000112084
-0.000184386
-0.000327544
-0.000306236
-0.000488359
-0.000583252
2.27056e-05
5.1559e-05
6.07128e-05
-0.00360489
0.00384588
-0.00507127
0.00508829
-6.01837e-05
-0.00393803
0.00294846
-3.51746e-05
-0.00219795
-4.30696e-06
0.00214909
-0.00293881
9.28326e-06
-0.00200891
0.00149525
7.83675e-06
2.7261e-06
-4.54865e-05
-0.000984559
3.23735e-05
0.00065997
2.76735e-05
-0.00064642
-0.000295733
0.000142389
-3.88239e-05
-1.99281e-07
-3.68357e-06
1.54225e-05
-2.18041e-05
8.32711e-06
-8.59642e-05
-0.000100504
-4.77207e-05
9.15881e-05
-2.44198e-05
-5.91956e-05
-3.68835e-05
6.90924e-05
0.000133664
0.000227561
6.87745e-06
8.36771e-06
-0.000291039
-0.000478658
-0.0010484
-0.000744725
-0.00138372
-0.00237349
-0.000408544
-7.91541e-05
8.17647e-05
-0.00966762
0.0102873
-0.0126151
0.0126
-0.000183729
-0.0105803
0.00826798
-0.000102473
-0.0066448
-1.38653e-05
0.0064783
-0.00825065
2.08107e-06
-0.00608378
0.00469708
8.35813e-06
4.16295e-06
4.33603e-06
-7.08956e-05
-0.0017703
1.75954e-05
0.00126615
2.3046e-05
9.48545e-05
-0.00148423
0.00186719
-0.00265502
-0.00265501
-6.15368e-06
0.00336129
5.1515e-05
-0.00455124
-7.02827e-06
0.00566505
8.75544e-06
-0.00734046
-1.38537e-06
0.00898706
-0.000150729
-0.0109917
6.71275e-05
0.0135393
-0.000776614
-0.0149092
0.000473878
0.0199645
-0.00337445
-0.0162894
-0.00220047
-0.016289
0.00423157
0.0257396
-0.000909148
-0.0162534
-0.000657169
0.0153293
-0.000298566
-0.0121081
-0.000324912
0.0101686
-0.000146318
-0.00823741
-0.000141556
0.00657204
-4.52194e-05
-0.00523758
-5.42386e-05
0.00402626
1.31772e-06
-0.00312805
-8.56123e-06
0.0023239
1.97905e-05
7.1681e-05
-0.000127742
-9.2618e-05
-6.09511e-05
0.000166174
9.55901e-06
-0.000113238
-0.000206315
-0.00031577
-0.000476046
-0.000695586
-0.000908304
-0.000861569
-8.25849e-05
0.00113182
-0.00143474
-0.0111636
-0.0111636
-0.0114921
-0.0095345
-0.00325719
-0.00127142
-0.00519989
0.00822008
0.0129575
0.000268433
8.8435e-05
0.000727115
-0.00337398
0.0199634
0.000474358
-0.0149091
-0.00143415
-0.000593518
-0.000549929
6.78277e-05
-0.0109916
0.0135388
-0.000776611
-5.72216e-05
-0.000162552
-0.000151002
0.00898583
-1.0288e-06
-0.00733992
-0.000247636
-0.000440238
-0.000319348
-0.000209212
-5.98596e-06
0.00336122
-0.00455122
0.00566483
8.78793e-06
-0.000147644
-0.000107592
1.28813e-05
7.9373e-06
3.30137e-06
-6.02439e-05
-1.94283e-05
0.000968745
5.09609e-05
0.000968823
9.47804e-05
-0.00148416
-8.78529e-06
0.0018674
7.1761e-05
-7.08978e-05
-0.000121642
-8.75303e-06
1.18036e-05
-4.54735e-05
-3.88139e-05
-0.000646449
2.76749e-05
0.000659959
0.000142371
0.000450344
-8.6991e-05
-0.000596803
5.77906e-05
0.000208744
0.000294526
0.000135588
0.000359004
0.000139916
5.23832e-05
-0.000108413
6.31125e-05
-2.61781e-05
-2.74985e-05
0.000115949
-2.58177e-05
1.7607e-05
4.43081e-07
5.56317e-07
4.38718e-07
-9.79791e-08
8.14644e-07
1.76129e-05
-1.97958e-06
6.31154e-05
-2.16422e-05
-0.000108425
5.23811e-05
-2.88164e-07
3.37434e-05
2.88813e-05
-1.93413e-05
-0.000114779
3.3538e-05
-6.29984e-05
0.000116494
0.000355451
-0.000218765
6.7406e-05
3.06025e-05
1.76033e-05
1.94878e-05
6.43191e-07
-1.39935e-06
-2.76836e-06
-6.07598e-06
-1.24362e-05
-2.69334e-05
1.86266e-05
3.05644e-05
7.14905e-05
0.000182495
-0.00118952
-0.00345546
0.0135522
-0.00246193
0.00698408
-0.0151041
-0.00704608
-0.00704541
-0.0151051
-0.0076853
-2.25584e-05
-0.0135368
0.0224756
0.00157108
-0.000899366
-0.016127
-0.00147216
0.00961699
-0.00721904
-0.0157026
-0.0130224
-0.0131929
-0.00911426
0.000930547
0.00198341
0.000931122
0.000301836
-0.0128584
0.000931546
-0.00768452
-0.0135371
-2.19227e-05
0.00435031
0.00157158
-0.0161272
-0.000899098
0.00203946
-0.00030826
0.0201499
-0.0131841
-0.000312641
0.0126494
0.000994694
-0.000553195
0.00198404
0.00159904
-0.00417198
0.00435061
0.00303464
0.000210454
-0.00146843
-0.000552604
-0.000172739
0.000994146
-0.00190662
-4.15623e-05
-0.0012898
0.00060697
-0.000312949
-0.000762506
-0.000345065
-5.49016e-05
-2.00315e-06
6.75526e-05
-0.0144319
0.0153759
-0.0178354
0.0177067
-0.000353736
-0.0158755
-5.52017e-05
-0.000300725
0.000630038
0.000373759
-0.000196964
-0.000136257
-9.21224e-05
-6.02639e-05
4.22785e-05
0.00272707
-5.699e-05
-6.07304e-05
-0.00153751
9.78198e-05
-0.0015356
0.00199733
0.000162308
-0.00269861
-0.00272459
0.00203346
7.79372e-05
0.00356195
0.000251916
-0.00447324
-0.00455598
9.39199e-05
0.00589779
0.000342528
-0.006974
-0.00718957
7.62566e-05
0.00921979
0.000324153
-0.0102321
-0.0108002
-5.26364e-05
0.000675134
0.00141259
0.00459906
-0.000233722
-0.000268214
-6.79918e-05
-0.000429615
0.00279292
0.00301704
0.00403909
0.00212733
0.00123192
0.000727089
0.000418858
0.000222482
4.27279e-05
-7.85552e-05
-0.000162641
-0.00110805
0.000119789
-0.00110761
0.00143992
0.000196536
-0.00196139
-0.00196197
0.00144045
0.000106337
6.84376e-05
3.70248e-05
-1.79017e-05
-3.17491e-06
-7.56037e-05
-7.60472e-05
0.000563526
-7.58296e-05
0.000416476
7.29819e-05
-0.000579604
-0.000580078
0.000416969
-5.24224e-05
0.000166058
-3.1551e-05
-3.17861e-05
0.00022973
-2.64438e-05
0.000166224
-0.000198685
0.000594293
-0.000158901
0.00063545
6.07607e-05
-0.000827764
-0.00082824
0.000528081
-7.55731e-05
-1.78985e-05
-2.06046e-07
2.19209e-06
3.2354e-05
-0.000774754
-2.33285e-05
-0.0010512
7.88571e-06
-0.00161159
-4.2723e-06
-0.00219792
-3.51535e-05
0.00294872
-0.00264178
7.79219e-05
-0.0027244
-0.00269926
0.000162068
0.00203347
-0.00153733
-0.001536
9.7636e-05
0.00110889
5.64541e-05
0.00190912
-0.00145513
0.0016156
-0.00115433
-1.86384e-05
0.00100226
2.93317e-05
-0.000783903
0.000860839
-2.46233e-06
0.00113046
-0.000859236
0.000792042
-0.000365868
-3.66562e-06
0.000330764
3.96729e-06
-0.000335795
-3.1581e-06
0.000349763
0.000203422
-0.000102603
2.53148e-06
8.31854e-06
-2.17608e-05
1.5423e-05
8.78348e-05
0.00017136
0.000166219
-6.09719e-05
-9.26483e-05
-3.77332e-05
-9.90124e-05
-0.000128122
-0.000189451
-0.000180516
-0.000306103
-0.000273947
-0.000272748
-0.000188911
5.13502e-05
-0.000309752
-0.000312424
-0.000487828
-0.000745119
-0.000112537
-0.000108716
0.000257572
0.00025719
-0.00138533
-0.0114929
-0.00954286
-0.00326084
0.0202197
7.11214e-05
-0.0201788
0.000268552
-0.0111455
-0.000429578
-0.000352829
-0.00242272
0.000156984
0.000125853
6.06358e-05
3.2624e-05
1.80064e-05
8.06841e-06
1.75944e-05
-0.00139539
-4.22616e-05
-0.00200896
9.24977e-06
-0.00293896
-7.1888e-06
-0.00393825
-6.01256e-05
0.00508851
-0.00454814
9.37283e-05
-0.00455572
-0.00447421
0.000251907
0.00356168
0.00353252
-0.00025568
0.0025471
0.000296174
-0.00325336
-0.00325407
0.00254778
-0.000255589
0.00353181
-0.00010513
0.00042774
0.000227269
0.000102745
0.000121734
-5.23964e-05
-4.77712e-05
-0.00017786
-0.000222784
-0.000164382
-9.02201e-05
-0.000136553
-0.000150459
-0.0002187
-0.000226117
-9.18872e-05
-0.000139436
-0.000119034
6.74967e-05
-0.000278872
-0.000310852
-0.000100511
-5.37948e-05
8.56688e-07
6.02067e-05
0.000137421
9.64384e-05
-9.87071e-06
-4.68396e-06
-3.21559e-07
-0.000168535
0.000286376
-0.000295741
-8.37342e-05
0.000119283
0.000280789
0.000126185
-1.21166e-05
-1.71336e-06
4.8232e-05
0.00104237
2.6654e-05
0.00149528
-6.14178e-05
-7.5568e-05
5.27433e-05
0.00193978
-0.00253709
-5.68823e-05
-0.00360532
8.43828e-06
0.00469703
-0.00507141
-1.38612e-05
-0.00664514
-0.000102597
0.00826806
-0.0073908
0.00578571
-0.000135911
7.79822e-05
-0.00608411
1.93366e-06
0.00647866
-2.42756e-05
-1.0859e-05
-4.96774e-06
-2.16796e-06
2.74538e-06
4.42432e-06
4.12132e-06
-0.000107504
-0.000147435
5.52072e-07
6.16015e-07
-4.26835e-06
-1.48764e-05
0.011608
-4.17668e-06
9.72176e-06
-3.42571e-05
0.0163317
7.10378e-05
-0.000340381
-0.000210073
-0.000134227
-8.51689e-05
-5.22421e-05
-2.96566e-05
-9.95905e-05
0.00106617
0.000775319
0.000774889
0.00106675
-9.957e-05
-2.96536e-05
-5.23106e-05
-0.000162565
0.00199802
-7.84328e-05
-5.31074e-05
9.16812e-05
0.000222649
0.000418937
-0.00010501
-5.25261e-05
-6.05416e-05
-6.02059e-05
4.24497e-05
0.00272714
-0.000112344
-0.000171809
5.12035e-05
0.00344355
-0.00439263
-7.26911e-05
0.00577216
-0.00717825
-7.35839e-05
0.00914419
-0.0110524
-3.31511e-06
-0.0144321
-3.4096e-05
0.0163305
-0.0160472
-0.000656847
0.0137718
-0.000325446
-0.000408148
-7.96451e-05
2.23063e-05
-0.00032653
-0.000184798
-0.000292216
-0.000580189
-0.000479587
-0.00104225
-0.00127111
-0.00237828
-0.00520251
0.00821954
-0.00895043
0.00436473
-0.0131932
-0.0157024
-0.00721901
0.00961716
-0.00147255
0.000609377
0.012957
-6.72075e-05
0.0214369
-0.000183067
-0.000108581
-5.32573e-05
-5.75921e-05
-0.000116365
9.4927e-06
-5.70286e-05
-0.00016248
-4.40993e-06
-0.000210039
0.000125271
0.000137775
-0.000134232
-8.51089e-05
-0.000381897
0.0058925
0.004257
0.000387644
-0.00506451
-0.00506531
0.00425792
-0.000381954
0.00589178
-0.000122045
-4.53565e-06
0.000284684
-5.30785e-05
0.000135348
0.000169587
0.000577237
-9.5283e-05
0.00928941
0.00671016
-0.000551809
7.48001e-07
-0.000177517
0.00238751
-0.000113573
0.0068117
-0.00017534
8.84717e-05
0.000727329
0.00303362
0.00988204
-0.0041725
0.000210047
-0.00146826
-0.00911372
0.0224751
-0.013022
0.000930847
-0.000173004
-0.000880825
0.0040906
0.000597571
0.00159676
0.00418892
6.2952e-06
-0.000799677
0.00159609
0.012458
0.00849228
0.0214234
0.0119799
0.0173763
0.0192138
-0.000482577
0.00220616
0.00127542
0.000747072
-0.000121868
0.000726752
0.00123203
-9.48085e-05
-0.000551955
0.000170417
-4.49316e-06
0.000227494
0.000133701
6.92131e-05
1.19177e-05
-2.40418e-07
1.32251e-06
3.8545e-06
6.0895e-05
0.00384616
6.47285e-06
7.94337e-06
8.23359e-05
0.0116071
6.7831e-05
-0.000299792
-0.000196522
0.000373461
0.000629955
-2.72779e-06
-5.57309e-05
-0.000233113
-0.000345662
0.0014126
0.00459852
0.00279256
0.000674973
7.20061e-06
0.00212601
0.00125337
0.00301773
0.000577839
-9.20798e-05
0.00342538
-3.68595e-05
-5.9078e-05
-8.58138e-05
-2.42926e-05
4.2823e-05
0.000135874
0.000287615
-0.00034024
0.00124796
-0.000142018
-5.43563e-05
-8.57111e-06
0.00214914
-5.314e-05
0.00110892
5.64301e-05
2.8883e-05
3.37378e-05
-2.87677e-07
-6.30065e-05
4.16587e-05
3.35348e-05
-0.000114787
-1.9342e-05
-7.97749e-08
0.000355419
0.000116585
-0.000277622
-0.000212131
0.000229235
-2.65601e-05
8.92843e-05
-0.000164155
7.7588e-05
0.00761901
-7.31767e-05
-0.000100337
0.00203953
-0.000175035
-0.00190714
3.75825e-05
0.000216008
-6.70949e-06
-0.000116609
-4.43637e-05
-0.000599526
-7.27763e-05
-2.74071e-05
-4.21993e-05
-7.28337e-06
-0.000168544
3.96489e-06
0.000203533
0.0130738
0.0103221
0.000146446
-0.00130679
0.000145868
0.0186778
0.0214244
-0.000100378
-4.77166e-05
9.168e-05
6.07772e-05
0.000635435
0.000527527
-0.000827843
-0.000827857
2.93355e-05
-0.000783709
0.000349624
0.0002035
-0.000119092
-0.000139504
-0.00010262
2.51261e-06
-2.87743e-07
-4.69933e-06
9.64922e-05
0.000137418
0.000119253
0.000280962
0.000359006
-0.000295716
0.000139923
0.000135645
0.000294545
5.24351e-05
0.000208753
0.00021602
0.000208759
0.000294539
0.000135646
0.000359031
0.000139919
-0.000295712
0.000286357
-8.37084e-05
0.000280913
0.000119276
0.000137456
9.64633e-05
-4.71522e-06
-9.84906e-06
0.000330773
-0.000335757
0.000349696
8.30456e-06
2.56335e-06
-0.000102648
-0.000139521
-0.00011905
-0.000278961
6.742e-05
-0.000310834
-2.64484e-05
0.000166212
-7.58603e-05
0.000563507
-3.15854e-05
0.00016605
-2.65765e-05
-0.000310709
6.73791e-05
-0.000159008
0.000594109
-0.000198448
-7.5597e-05
0.000416899
0.000416481
7.29345e-05
-0.000580002
-9.95919e-05
0.00106629
9.76981e-05
0.00110891
-0.00145496
5.65093e-05
0.0019088
-0.00219782
0.00161549
-1.86397e-05
-0.00115425
0.001002
2.81678e-05
4.51982e-05
5.89614e-05
5.44038e-05
-1.15224e-05
-0.000213362
-0.000382091
0.00409075
-0.00337559
0.0137577
-0.0101734
0.00168368
0.012649
-0.000313
-0.0131839
0.009617
-0.0072189
-0.015702
-0.0131927
-0.0130218
-0.013537
0.0224752
0.00435028
0.00303441
-2.26525e-05
-0.00768558
-0.0151048
-0.00704609
-0.0128586
-0.00704568
-0.0151056
-0.0076854
-0.0135375
0.0224751
-0.0131926
-0.0130222
-0.0157025
-0.00721895
0.00961693
-0.0131841
0.0201496
-0.0207214
0.0137575
0.00168405
0.0126493
-0.0101735
0.00631792
0.0146676
0.0103215
0.00762284
0.0179635
0.00632565
0.00399029
0.0110699
-0.0114534
-0.0114531
0.0039903
0.00632516
0.0179633
0.00762278
0.0103211
0.0130721
0.0146689
0.00631894
0.00811508
0.00690063
-0.0039211
0.018677
0.0208826
0.0214223
0.0172241
0.0173756
0.0192134
0.017376
-0.03172
0.00059727
0.000597741
-0.00906039
0.0172239
0.0214223
0.0208828
0.0186778
0.00690026
0.00811503
0.00617631
-0.000486719
-0.000275834
-0.000144984
-0.00677438
-0.00882668
-0.00848123
-0.0196963
-0.0233886
0.00436529
-0.00895052
0.0202195
-0.0160465
0.0137717
-0.0110524
0.00914366
-0.00717817
0.00577181
-0.00439273
0.00344357
-0.00253685
0.00193981
-0.00139542
0.00104237
-0.000774762
0.000792018
-0.000859156
0.000860794
-0.000783816
0.000635394
6.07076e-05
0.000528002
-0.000198679
0.000594273
-0.000158929
0.000203418
-3.85181e-05
2.81757e-05
4.52617e-05
5.8918e-05
5.41919e-05
-1.17628e-05
-0.000213668
-0.000382385
0.00409054
-0.00337553
-0.00129002
0.00214596
0.000606792
-0.00799871
-0.00799877
0.00214597
-0.00128991
0.000606914
-0.00356796
-0.0207216
0.0201497
-0.00147236
-0.0161272
0.00157102
-0.000899413
0.00203957
-0.000308104
-0.000352868
-0.00242285
-0.00118964
-0.0024228
0.00157073
0.00435018
0.00988149
0.00303452
-0.00246217
-0.00246202
0.00988162
0.000532711
-0.00621164
0.00681153
0.00681146
-0.000175273
-0.00621162
0.000210014
0.00159903
0.00198325
0.000930914
-0.00911408
0.000930398
0.000301194
0.0135524
-0.00345578
0.00423133
-0.00728556
-0.00931621
-0.0200381
-0.0146689
0.030615
-0.0162893
0.0199633
0.0199641
0.000474044
0.0153297
-0.000298453
-0.0121082
0.0101684
-0.000146205
-0.00823761
0.00657185
-4.52201e-05
-0.0052375
0.00402635
1.2818e-06
-0.00312828
0.00232397
1.9735e-05
-0.00177033
0.00126617
2.29801e-05
-0.000984619
0.000659992
2.76838e-05
-0.000646362
-8.69567e-05
-0.000596738
-0.000596741
5.2426e-05
-0.000108369
3.60986e-05
-0.000164832
-6.0511e-06
0.00010401
0.00010399
-0.000124872
-1.3912e-06
0.000125526
0.00012552
-9.25363e-05
1.76003e-05
0.000207992
0.000207895
-4.4613e-05
4.97852e-05
-9.80852e-05
-9.83347e-05
-0.000164366
-9.02242e-05
-0.000136589
-0.000150502
-0.00022614
-9.19125e-05
0.000164632
-0.000253339
3.39227e-05
0.000116573
0.000355405
-0.000218789
-0.000114807
-1.93506e-05
-0.000203781
8.3414e-07
0.000204135
-0.00033655
-3.10144e-07
3.75885e-05
0.000335573
-3.3326e-05
2.63653e-06
3.3959e-05
2.20487e-06
8.05268e-06
1.79789e-05
3.26622e-05
6.05995e-05
0.000125997
0.000156978
7.11211e-05
-0.0201793
0.0214368
-0.0221614
0.0194468
-0.0161007
0.0137901
-0.0113115
0.00920837
-0.00739013
0.00578486
-0.00454775
0.00342492
-0.00264159
0.00190897
-0.00145505
0.0010022
2.92882e-05
-0.00082774
-0.000828146
-0.000579719
0.000774924
0.000119838
0.000775195
-0.00110786
-0.00153575
-0.0015374
0.00203345
0.00199755
0.000162006
-0.00272446
7.80853e-05
-0.0026417
-3.50876e-05
0.00294854
-0.00293879
-7.17759e-06
0.0038459
-0.00360485
0.00272705
9.32959e-06
0.00214901
-4.24057e-06
-0.00161146
0.00113038
-2.46062e-06
0.000860781
-3.16773e-06
-0.000335763
8.35532e-06
-3.33089e-05
0.000164636
-9.19321e-05
-0.000226131
-0.000150482
-0.000136526
-9.02374e-05
-0.000164128
8.9261e-05
-4.46235e-05
8.65791e-06
-0.000277569
0.000116494
3.97901e-06
3.39248e-05
0.000355423
-0.000253296
0.000335567
3.75965e-05
-9.99396e-06
-9.253e-05
1.94992e-05
3.70365e-05
6.84592e-05
0.000106319
0.000137785
0.000125272
9.66506e-07
-0.000177396
0.00238749
-0.00260892
-0.00601256
-0.00448523
-0.00190711
0.000994447
-0.000173196
-0.00031253
-0.00146827
-0.016127
-0.000899313
0.00203943
-0.000175035
8.83598e-05
0.000268463
-0.0111459
0.0104061
-0.013521
0.00402983
-0.0336321
0.00395989
-0.0137316
-0.000203782
0.0137321
0.0135764
-0.0162662
-0.000219485
0.00141241
0.00459908
-0.0002335
-0.00520145
-0.00953625
-0.011492
-0.00138319
-0.00238269
-0.00326023
-0.00127097
-0.000479436
-0.00103972
-0.000746194
-0.000489258
-0.000579757
-7.93994e-05
-0.000408506
6.78607e-05
0.0163308
-0.0178346
0.0153755
-0.0158754
-0.000353576
0.0177065
-0.000100676
-0.000182984
-0.000352983
-0.000308331
-0.00356801
-4.16862e-05
-0.000552788
0.000210369
-0.00417194
-2.25841e-05
0.00698404
-0.00280725
-0.0111638
-0.0014341
0.00113262
-8.27046e-05
-0.000862559
-0.000908309
-0.000696046
-0.000476102
-0.00031591
-0.000206286
-0.000113234
9.61888e-06
0.000166195
0.000166205
0.000171351
-3.77281e-05
-9.91233e-05
-0.000180816
-0.000306875
-0.000325977
2.2476e-05
-0.000291781
-0.000184918
-0.000112381
-0.000171321
5.13892e-05
6.09057e-05
0.00469691
-0.00507139
0.00384583
-0.00393796
-6.01531e-05
0.00508845
-0.00664464
-0.000102419
0.0082679
-0.0105806
-0.000183223
0.0125988
-5.47318e-05
-0.0126146
0.0102875
-1.51959e-05
0.0116076
-0.0144324
-3.43027e-05
9.70264e-06
-0.000108448
-5.32155e-05
-2.75386e-05
-0.00825047
0.00647817
2.16614e-06
0.00761869
-0.00966752
-7.34291e-05
8.26147e-05
-2.51713e-06
-5.57662e-05
-6.76174e-05
0.012957
0.000609615
-0.00147243
0.00821903
-0.000345165
-0.000534135
0.00279196
0.00849022
0.0124575
0.00403835
0.00302415
0.000675499
-0.000300734
0.000630214
0.00037381
7.98494e-06
6.69533e-06
3.85559e-06
1.38204e-06
-6.14562e-05
-7.49049e-05
5.28802e-05
4.24569e-05
0.00272707
-0.00293887
0.00214908
-0.00219791
-3.52e-05
0.00294863
-7.30398e-06
-1.08466e-05
-2.42535e-05
-1.38649e-05
4.15017e-06
8.4542e-06
-0.00360514
-5.70152e-05
-0.000107509
0.00402623
-5.42083e-05
-0.00523808
-4.55102e-05
0.00657189
-0.000141107
-0.00823797
-0.000146556
0.0101679
-0.000324546
-0.0121079
-0.000299508
0.0153295
-0.000657173
-0.0162533
-0.000909295
0.0257391
0.0174088
-0.00337485
0.000727246
0.000727166
0.0257396
-0.000909187
-0.0162532
-0.00337473
-0.0162885
0.00423166
0.0306147
-0.00219996
-0.0146686
-0.0200369
-0.00931578
-0.0233896
-0.00728546
-0.00280705
0.00698407
-0.0041721
0.000930751
0.00198381
-0.00911397
0.000931122
-0.00146839
-0.000553196
-0.000880878
-0.00032791
-0.000113652
-0.00021347
0.000182457
-0.000593755
0.000474037
-0.0149085
0.0135399
-0.0109919
0.00898625
0.00898594
-9.59394e-07
-0.00734036
8.97239e-06
0.00566472
-6.82984e-06
-0.00455123
5.16105e-05
0.00336124
-6.07689e-06
-0.00265526
7.17619e-05
0.00186735
-8.78576e-06
-0.00148418
9.48439e-05
0.000968777
-1.94225e-05
-0.000847517
0.000142424
0.000450397
5.77971e-05
0.000450365
-8.69677e-05
-0.000646404
2.76721e-05
0.000659992
3.23808e-05
-0.000984623
2.2998e-05
0.00126614
1.76568e-05
-0.00177038
1.96816e-05
0.00232386
-8.52007e-06
-0.00312832
1.12162e-06
5.15213e-05
0.00336119
-4.42049e-05
-0.00265507
0.00186727
-0.00148413
0.000968779
5.09174e-05
-0.00084751
0.000142368
-3.8806e-05
-4.54645e-05
9.48447e-05
-9.27843e-05
-0.000128183
-0.000189635
-0.000274131
-0.000311695
-0.000110116
0.000257728
0.000258084
-0.0111636
-0.0114918
-0.00138307
-0.000111029
-0.0149078
-0.000777211
0.0135398
6.75478e-05
-0.0109917
-0.000150878
-0.000162478
-0.00055008
6.72411e-05
-0.000599169
-0.000440167
-1.12276e-06
-0.00734022
0.00566493
-0.00455141
-6.97956e-06
-0.000319113
-0.000116033
-0.000209111
-6.14947e-06
-0.000121619
-8.81077e-06
1.19457e-05
-6.02339e-05
-1.94184e-05
1.20079e-05
-0.000191103
3.6112e-05
-0.000108353
0.000202163
7.85214e-05
7.85075e-05
0.000202168
9.43007e-05
-2.16085e-05
0.000166729
-0.000353873
-2.22616e-05
4.40459e-06
0.000258504
2.40226e-05
-0.000167905
8.94681e-05
0.000230452
0.000159702
0.000214274
0.000115963
-2.58078e-05
-2.75137e-05
-2.61526e-05
-7.34159e-06
0.000159204
-2.61604e-05
9.43069e-05
0.000166761
-2.161e-05
-6.35223e-05
-2.22232e-05
0.000258519
4.39784e-06
-3.66837e-05
-3.30658e-07
-0.000336563
0.000204146
8.07471e-07
-0.000203782
-1.93451e-05
4.42782e-07
-2.74868e-05
-2.07848e-05
6.31134e-05
-6.3535e-05
-4.53095e-05
-1.97662e-06
1.76052e-05
4.52267e-07
-7.63497e-08
5.58669e-07
-1.98298e-06
6.31239e-05
-0.000164843
-4.52589e-05
-3.8817e-05
3.30778e-06
7.9422e-06
1.28846e-05
1.8603e-05
3.06331e-05
7.14137e-05
-5.72328e-05
-0.000776251
-5.72306e-05
0.000156801
-0.000656817
0.0202199
7.08785e-05
0.0163314
-3.4043e-05
0.015376
-5.50677e-05
0.0126
-0.000183429
-0.0105803
0.00920904
7.64835e-05
0.00589719
0.00589206
0.000342681
-0.00718959
0.0092184
0.00929008
0.000323803
-0.0107998
-5.22466e-05
-0.0113129
0.0137902
-0.0158756
0.0177062
-0.000353046
-0.0161017
-0.000218997
0.0135754
0.0137326
-0.000204289
-0.0162657
0.0194477
-0.0221615
-0.000100433
-0.0178348
0.0214369
-0.0201792
0.0129575
0.000268538
-0.0111458
-0.000429564
0.0104063
-0.000762437
-0.0135214
-0.0100587
0.00402977
0.00396069
-0.0336329
0.0124581
0.0119791
0.0015959
-0.000482665
-0.010302
-0.000317502
0.0098523
0.00985368
-0.000798501
-0.0102312
0.000323936
0.00928902
0.00921959
-0.0107998
-5.30141e-05
-0.00718963
0.000342998
0.00589173
0.00589768
7.62468e-05
-0.00455596
0.000251874
0.00353169
0.00356191
9.38516e-05
0.00022771
0.000133885
6.92246e-05
1.19091e-05
-2.72905e-07
-1.21358e-05
-2.11411e-06
4.8282e-05
2.66544e-05
0.00149525
-0.00161149
0.00113049
-0.00115435
-1.85846e-05
0.00161558
-4.30373e-06
-4.98101e-06
-2.1672e-06
-2.49705e-06
-2.04669e-07
-3.67737e-06
-0.000365852
-0.000168518
6.0219e-05
0.000126281
8.77681e-05
1.54584e-05
8.64715e-07
-3.30464e-07
3.97214e-06
-2.17927e-05
-3.6855e-05
-6.02125e-05
-9.21498e-05
-0.000136253
-0.000197006
0.000171083
0.00125053
0.00212528
0.00123154
0.000581543
-4.08827e-06
-0.000121972
-9.50449e-05
-0.00697377
-0.00506557
0.000387347
0.00425669
0.0042576
-0.000381974
-0.00325429
0.000296521
0.00254702
0.00254755
-0.000255657
-0.00269874
0.00016222
0.0019976
0.00203365
-0.00272456
7.80866e-05
-5.22249e-05
0.000289664
0.000726393
0.000418752
0.000135985
-6.07464e-05
-7.85144e-05
-0.00153581
9.76753e-05
0.0010665
0.00110898
-0.00153728
5.64408e-05
-5.91376e-05
4.26484e-05
0.00022258
9.16925e-05
-2.46377e-05
-8.58935e-05
-5.38343e-05
-0.000100665
-4.77494e-05
-0.000177867
-0.000222761
-0.000199619
-0.000172594
-0.000207662
-0.000221572
-0.000178037
0.000229225
-0.000214753
0.000121734
0.000102751
-5.30681e-05
-9.96024e-05
-2.96269e-05
2.73956e-06
7.85848e-06
-0.00105122
-2.33472e-05
4.40901e-06
9.33545e-06
-0.00200894
-4.21972e-05
-7.09071e-05
7.18031e-05
-7.08746e-05
-0.000107521
-0.000147504
6.05329e-05
0.000125947
-0.000325036
0.013772
-4.10781e-06
0.0116081
-1.49606e-05
0.0102874
-2.77277e-05
0.00826842
-0.000102688
-0.00664471
0.00578528
9.40304e-05
0.00356161
0.00353203
0.000251678
-0.00455552
-0.00447431
-0.000382137
-0.00325348
-0.000122174
0.00127451
0.00220442
0.00418774
5.90671e-06
5.97188e-06
0.00159567
-0.000482543
-0.0137332
-0.0103003
-0.000312879
8.8385e-05
9.57956e-06
-0.000183034
-0.000108602
-0.000116371
-4.36708e-06
-0.000162374
-0.000150997
-0.00014751
9.07788e-06
6.13405e-07
-5.75513e-05
-2.69377e-05
-1.23775e-05
-6.07237e-06
-2.76733e-06
6.47988e-07
2.60345e-05
3.39715e-05
2.20229e-06
8.09047e-06
1.79713e-05
3.25928e-05
-5.38407e-05
0.0057715
-7.2671e-05
0.00469718
8.5208e-06
-0.00507141
-1.38814e-05
0.00508839
-6.0175e-05
-0.00393795
0.00342499
-0.00454803
-9.23477e-05
6.0663e-05
5.15947e-05
-0.000306921
-0.000489241
-0.000745068
-0.000309777
-0.000273015
-0.000188882
-0.000127648
-0.000180998
-9.92018e-05
-9.24256e-05
-6.09308e-05
-3.765e-05
0.000171377
0.000126437
8.78754e-05
-0.000774716
-2.33267e-05
0.000792007
-3.65563e-06
0.000330765
3.96391e-06
2.6393e-06
-2.17326e-06
-4.9798e-06
-1.08508e-05
-2.43414e-05
-5.31302e-05
-4.27311e-06
5.63899e-07
1.99767e-06
-0.00608351
0.00647814
-0.00825073
0.00761934
-0.00717831
-7.35962e-05
0.00914352
-0.000141255
-0.0110524
-7.85496e-05
-0.000407751
-0.0160468
-0.0032592
-0.0089509
0.0082197
-0.00848307
-0.0196947
0.00436554
-0.00953414
-0.00520079
-0.00882617
-0.00677391
0.000609753
-0.000145938
-0.00026808
-0.000488601
-0.000534568
0.00617605
0.00459851
-0.000232878
-6.72206e-05
-0.00127206
-0.00238129
-0.000478842
-0.00104269
-0.000291251
-0.000581183
2.30058e-05