/*--------------------------------*- C++ -*----------------------------------*\
| =========                 |                                                 |
| \\      /  F ield         | OpenFOAM: The Open Source CFD Toolbox           |
|  \\    /   O peration     | Version:  2306                                  |
|   \\  /    A nd           | Website:  www.openfoam.com                      |
|    \\/     M anipulation  |                                                 |
\*---------------------------------------------------------------------------*/
FoamFile
{
    version     2.0;
    format      ascii;
    arch        "LSB;label=32;scalar=64";
    class       volVectorField;
    location    "2.1";
    object      flux;
}
// * * * * * * * * * * * * * * * * * * * * * * * * * * * * * * * * * * * * * //

dimensions      [0 1 -1 1 0 0 0];

internalField   nonuniform List<vector> 
5712
(
(-0.26572 0.469372 0.290848)
(-0.339629 0.270668 0.955601)
(-0.631161 0.760886 0.230833)
(-0.921554 0.498855 0.979907)
(-0.939973 0.830291 0.173391)
(-1.62267 0.614748 1.01368)
(-0.722679 1.30325 0.273807)
(-1.84125 1.61577 1.56328)
(-0.588755 1.71343 0.336478)
(-1.29366 2.09715 2.1496)
(-0.880412 1.1082 0.3339)
(-1.33917 0.963061 1.56529)
(-0.790183 0.703939 0.322009)
(-1.03591 0.558044 1.29889)
(-0.347445 0.353391 0.334668)
(-0.397217 0.239062 1.16042)
(-0.592373 0.787629 0.202527)
(-0.678518 0.805086 0.125141)
(-0.765942 0.678651 0.541358)
(-0.759503 0.796916 0.321066)
(-0.602832 1.06404 0.198513)
(-0.744959 0.949397 0.107)
(-0.888692 1.22811 0.592866)
(-0.797367 0.993256 0.294298)
(-0.216005 0.331317 0.221219)
(-0.162238 0.238543 0.160115)
(-0.268695 0.186196 0.709441)
(-0.180598 0.138379 0.498588)
(-0.500565 0.396429 0.167302)
(-0.40005 0.322806 0.120193)
(-0.854977 0.240548 0.69782)
(-0.618934 0.194437 0.506418)
(-0.662515 0.720548 0.392315)
(-0.688433 0.747902 0.166014)
(-0.735184 0.735995 0.338665)
(-0.700811 0.621113 0.150835)
(-0.257614 0.573232 0.155659)
(-0.201916 0.448037 0.365748)
(-1.56863 0.449758 1.35735)
(-2.09995 0.510765 0.367983)
(-1.01324 0.724734 0.485987)
(-1.24401 0.721211 0.164553)
(-2.1101 1.52048 1.74918)
(-2.73789 1.57179 0.475106)
(-1.09137 1.0772 0.455358)
(-1.24943 1.10958 0.157632)
(-1.16263 0.614747 0.968938)
(-1.64243 0.518362 0.300741)
(-1.01445 0.669521 0.497241)
(-1.34469 0.477393 0.173582)
(-0.593398 0.311394 0.84205)
(-0.956806 0.319727 0.267792)
(-0.113797 0.254948 0.236769)
(-0.0383551 0.355782 0.117392)
(-0.119861 0.133366 0.34997)
(-0.0432007 0.160478 0.136221)
(-0.343606 0.349559 0.256184)
(-0.138676 0.47755 0.138529)
(-0.471477 0.208094 0.341344)
(-0.173421 0.242545 0.130829)
(-0.335339 0.387476 0.325431)
(-0.128669 0.649046 0.185399)
(-0.3569 0.268443 0.294193)
(-0.114435 0.438955 0.127671)
(-0.608399 0.102364 0.435512)
(-0.193554 0.26108 0.156402)
(-0.784968 0.0851792 0.149873)
(-0.264807 0.194849 0.0522908)
(-0.961095 0.709857 0.492909)
(-0.477032 0.876747 0.341456)
(-0.879883 0.732369 0.305073)
(-0.521499 0.873017 0.222949)
(-0.901433 0.868486 0.55158)
(-0.582958 0.877022 0.453816)
(-0.792832 0.884391 0.301494)
(-0.59627 0.865695 0.260923)
(-0.691638 0.623124 0.288816)
(-0.410795 0.844199 0.194967)
(-0.691547 0.64062 0.406792)
(-0.352275 0.833873 0.271843)
(-0.90781 0.721293 0.201138)
(-0.580491 0.866959 0.147824)
(-0.909792 0.720963 0.102284)
(-0.585898 0.864876 0.0839221)
(-0.837403 0.891621 0.194459)
(-0.631265 0.854527 0.167995)
(-0.847521 0.888505 0.100733)
(-0.634123 0.846316 0.0971725)
(-0.747056 0.575661 0.19284)
(-0.474478 0.847685 0.126369)
(-0.773763 0.555674 0.0988857)
(-0.486179 0.850655 0.0634298)
(-0.706497 0.702249 0.257875)
(-0.30587 0.823439 0.140106)
(-0.326272 0.886791 0.193197)
(-0.397271 1.23612 0.233328)
(-0.709399 0.743551 0.352636)
(-0.334359 0.949827 0.250888)
(-0.284596 0.878669 0.279577)
(-0.402508 1.34124 0.39899)
(-0.748196 0.665951 0.170741)
(-0.304468 0.725305 0.0808241)
(-0.369877 0.890421 0.114014)
(-0.400273 1.18907 0.133683)
(-0.785303 0.658937 0.0848375)
(-0.311833 0.678904 0.0352086)
(-0.402353 0.90005 0.0492963)
(-0.418218 1.18036 0.0495783)
(-0.147458 0.20918 0.311389)
(-0.161028 0.273238 0.558596)
(-0.049527 0.533175 0.211337)
(-0.0968391 0.928684 0.623799)
(-0.431847 0.259903 0.365313)
(-0.456463 0.295263 0.547075)
(-0.166763 0.687739 0.260057)
(-0.2957 1.05816 0.653458)
(-0.553052 0.324416 0.415383)
(-0.614654 0.327608 0.495639)
(-0.266481 0.873564 0.335217)
(-0.453164 1.18441 0.638355)
(-0.491339 0.976986 0.491955)
(-0.0430299 1.0492 0.587451)
(-0.543354 0.826747 0.369488)
(-0.670285 0.79852 0.355674)
(-0.363892 1.15501 0.389368)
(-0.0294284 1.05656 0.586821)
(-0.298057 0.99791 0.541638)
(-0.488527 0.844098 0.531444)
(-0.787131 0.731902 0.544626)
(-0.546299 1.3185 0.786399)
(-0.395835 0.96275 0.477005)
(-0.480586 0.950458 0.366712)
(-0.420026 0.846943 0.317002)
(-0.36244 0.841629 0.355043)
(-0.568503 1.5094 0.557096)
(-0.141711 0.0811073 0.646223)
(-0.116858 0.0972877 0.576408)
(-0.0809486 0.173258 0.749616)
(-0.0803012 0.393046 0.719807)
(-0.399538 0.115298 0.591734)
(-0.337078 0.130277 0.547867)
(-0.24054 0.240018 0.740605)
(-0.228792 0.441903 0.70502)
(-0.49894 0.172357 0.512272)
(-0.422506 0.145875 0.499109)
(-0.314193 0.327281 0.695013)
(-0.281841 0.508788 0.679686)
(-0.234148 1.04691 0.428225)
(-0.298031 1.03601 0.335687)
(-0.48344 0.94429 0.397961)
(-0.500986 0.930532 0.346147)
(-0.562342 0.809028 0.434007)
(-0.511698 0.742518 0.387219)
(-0.634141 0.612646 0.466047)
(-0.552067 0.542626 0.446514)
(-0.428894 0.431495 0.640336)
(-0.360935 0.59833 0.65449)
(-0.362681 0.952834 0.400306)
(-0.382081 0.92157 0.346331)
(-0.478793 0.960268 0.381472)
(-0.378272 0.946081 0.365701)
(-0.436269 0.834618 0.392903)
(-0.317971 0.78319 0.415414)
(-0.377716 0.690445 0.441838)
(-0.26073 0.619375 0.495072)
(-0.440027 0.460352 0.576305)
(-0.288566 0.605244 0.665356)
(-0.410098 0.950664 0.330637)
(-0.19195 1.0709 0.259584)
(-0.352075 0.947723 0.227136)
(-0.381732 1.0969 0.289158)
(-0.503013 0.919137 0.447372)
(-0.656285 0.952409 0.545096)
(-0.553379 0.896935 0.310311)
(-0.805683 0.958568 0.490905)
(-0.280162 0.864116 0.192299)
(-0.311349 0.879272 0.252979)
(-0.36327 0.857149 0.286318)
(-0.116655 0.853905 0.236008)
(-0.313758 0.94014 0.0550228)
(-0.604818 1.10136 0.191982)
(-0.297658 0.935691 0.0286318)
(-0.648419 1.10017 0.0690503)
(-0.547874 0.870515 0.158608)
(-0.994549 0.970065 0.33013)
(-0.55743 0.863169 0.0586627)
(-1.05547 0.967639 0.114516)
(-0.237195 0.867436 0.026197)
(-0.519617 0.877293 0.162677)
(-0.215544 0.867116 0.0147388)
(-0.553724 0.876676 0.0570541)
(-0.327694 0.727041 0.188876)
(-0.247983 0.691293 0.191892)
(-0.455802 0.468649 0.214656)
(-0.180778 0.520877 0.133346)
(-0.337383 0.721912 0.29883)
(-0.0675545 0.672894 0.238988)
(-0.397499 0.461402 0.351422)
(-0.0309363 0.522217 0.242277)
(-0.314831 0.737297 0.0441683)
(-0.371509 0.689397 0.105114)
(-0.477495 0.478947 0.106521)
(-0.220821 0.52332 0.0605884)
(-0.260385 0.740291 0.0594791)
(-0.438007 0.682471 0.0771401)
(-0.422505 0.493871 0.0841278)
(-0.289656 0.523786 0.0635485)
(-0.0930578 0.0663094 0.45851)
(-0.0821095 0.0451596 0.278291)
(-0.0735382 0.0315036 0.0874806)
(-0.0668203 0.0386236 0.519171)
(-0.0613679 0.0267773 0.297678)
(-0.0549497 0.0250177 0.097402)
(-0.275651 0.0921126 0.439774)
(-0.226599 0.0555453 0.275392)
(-0.196439 0.0422668 0.0928497)
(-0.176944 0.0763277 0.511261)
(-0.142641 0.061658 0.298102)
(-0.123934 0.0533722 0.0973376)
(-0.338096 0.107504 0.404647)
(-0.291982 0.090197 0.252866)
(-0.269877 0.0907848 0.0830521)
(-0.213045 0.134403 0.499142)
(-0.174124 0.110429 0.2997)
(-0.164669 0.0994255 0.100075)
(-0.262234 0.992466 0.219292)
(-0.232306 0.898847 0.118685)
(-0.226704 0.83286 0.0320962)
(-0.437281 0.91303 0.280265)
(-0.333061 0.848746 0.184402)
(-0.280739 0.796657 0.0640413)
(-0.411782 0.655056 0.333831)
(-0.304962 0.609738 0.230156)
(-0.247639 0.584918 0.079324)
(-0.432348 0.444526 0.385713)
(-0.341875 0.386972 0.249459)
(-0.297534 0.362656 0.0827722)
(-0.268365 0.204768 0.49455)
(-0.177285 0.151826 0.308068)
(-0.138466 0.128972 0.107701)
(-0.62918 0.897029 0.2605)
(-0.545127 0.833013 0.146406)
(-0.472444 0.777694 0.0464359)
(-0.404218 0.920352 0.263628)
(-0.336884 0.841205 0.189588)
(-0.280058 0.779017 0.0714656)
(-0.358857 0.681489 0.312576)
(-0.279395 0.587592 0.230779)
(-0.22331 0.534168 0.0846821)
(-0.3012 0.444445 0.390552)
(-0.217931 0.357169 0.273893)
(-0.16765 0.321595 0.0978758)
(-0.309538 0.217907 0.500192)
(-0.172648 0.1512 0.311788)
(-0.0975206 0.121649 0.110551)
(-0.414674 1.08017 0.0119773)
(-0.561789 1.05785 0.0805415)
(-0.327938 1.17593 0.113933)
(-0.423814 1.05602 0.164435)
(-0.446368 1.21004 0.087343)
(-0.655833 1.05628 0.100302)
(-0.398747 1.46016 0.219428)
(-0.580613 1.11181 0.208166)
(-0.00149464 0.837949 0.0241129)
(-0.0290833 0.851899 0.0413661)
(0.0203388 0.827283 0.0257456)
(-0.00399751 0.768534 0.0430885)
(-0.118338 0.940124 0.0195367)
(-0.133873 0.886581 0.0566883)
(-0.0489148 0.922773 0.0348523)
(-0.0261891 0.789291 0.0743488)
(-0.0272878 0.91347 0.129169)
(-0.0957255 0.907352 0.0631508)
(-0.375552 0.841956 0.163292)
(-0.548442 0.901248 0.094378)
(-0.265949 1.12331 0.086965)
(-0.146018 1.00796 0.151849)
(-0.395537 1.11183 0.136335)
(-0.392632 1.12862 0.0375415)
(-0.60964 1.2068 0.243472)
(-0.67153 1.24782 0.0595588)
(0.024521 0.92617 -0.0765065)
(0.165471 0.96089 0.0289792)
(-0.302386 0.829606 0.0715692)
(-0.285053 0.805194 0.0534705)
(-0.28705 1.00931 0.0497296)
(-0.221422 1.03513 0.0460121)
(-0.0409083 0.658345 0.393428)
(-0.0217401 0.353818 0.180855)
(-0.0265279 0.615039 0.107528)
(-0.0106636 0.391857 0.0669393)
(-0.0790727 0.667969 0.399598)
(-0.00780581 0.357016 0.188043)
(0.014511 0.613156 0.135347)
(0.0345914 0.389343 0.0847275)
(-0.368918 0.659242 0.394498)
(-0.0955771 0.358986 0.202433)
(-0.249391 0.611729 0.196456)
(-0.0648632 0.405857 0.138431)
(-0.361001 0.5948 0.140879)
(-0.110109 0.424661 0.101811)
(-0.437153 0.601882 0.0697812)
(-0.140922 0.421193 0.0669674)
(-0.352276 0.84708 0.505095)
(-0.476472 0.725434 0.449143)
(-0.325908 0.841705 0.237953)
(-0.464861 0.724018 0.247024)
(-0.566415 0.93457 0.542314)
(-0.599931 0.844921 0.509085)
(-0.540759 0.943348 0.26766)
(-0.568281 0.836148 0.269957)
(-0.225438 0.824919 0.212159)
(-0.376736 0.605457 0.218492)
(-0.260212 0.861122 0.435116)
(-0.37419 0.597874 0.363959)
(-0.345936 0.859948 0.142164)
(-0.447917 0.720327 0.148812)
(-0.381725 0.870595 0.0796988)
(-0.452664 0.712093 0.0905597)
(-0.563494 0.967174 0.165067)
(-0.558267 0.829004 0.164076)
(-0.590106 0.967609 0.0908428)
(-0.560722 0.818259 0.0972964)
(-0.227658 0.81654 0.12439)
(-0.364701 0.60707 0.134175)
(-0.247838 0.813998 0.0700161)
(-0.371597 0.603291 0.0860697)
(0.00533338 0.54168 0.189796)
(-0.0543888 0.3605 0.133753)
(-0.297631 0.479813 0.189677)
(-0.187783 0.30586 0.135769)
(0.0280515 0.505178 0.29535)
(-0.0377713 0.322959 0.176292)
(-0.275738 0.461377 0.282176)
(-0.165993 0.285709 0.187734)
(-0.0130494 0.554773 0.114632)
(-0.0647348 0.383143 0.0970027)
(-0.304448 0.487407 0.120215)
(-0.204674 0.315212 0.0879045)
(-0.0313196 0.5554 0.0643819)
(-0.0756855 0.397094 0.0610255)
(-0.306232 0.486129 0.076619)
(-0.212093 0.317472 0.0517066)
(0.0279378 0.102814 0.46683)
(0.0322076 0.0533537 0.326756)
(-0.00665798 0.1871 0.236841)
(-0.000620131 0.0980979 0.241831)
(0.117625 0.10997 0.464884)
(0.119162 0.0660356 0.334609)
(0.00883986 0.199594 0.238181)
(0.0153653 0.118698 0.240691)
(0.0246191 0.135915 0.482428)
(0.0805229 0.100732 0.347729)
(-0.0674658 0.221626 0.241593)
(-0.0412405 0.157531 0.233985)
(0.410699 0.527553 0.554089)
(0.382817 0.814972 0.59649)
(0.223517 0.380437 0.50696)
(0.171698 0.364903 0.341181)
(0.0176455 0.257401 0.196111)
(0.419713 0.798969 0.565161)
(0.432421 0.558161 0.525073)
(0.173503 0.328079 0.490174)
(0.256513 0.329583 0.407683)
(0.033464 0.211428 0.266904)
(-0.409449 0.829844 0.529956)
(-0.321585 0.655036 0.480536)
(-0.286538 0.521884 0.385898)
(-0.269808 0.406387 0.299259)
(-0.165211 0.250255 0.189559)
(0.03282 0.0282245 0.279069)
(0.0304873 0.0214998 0.24943)
(0.00143947 0.0539775 0.261845)
(-0.00270843 0.038851 0.3007)
(0.103794 0.0408853 0.287597)
(0.102236 0.0283924 0.245019)
(0.00435752 0.0788148 0.264429)
(-0.005557 0.062391 0.29683)
(0.104532 0.0721989 0.299606)
(0.126854 0.0569041 0.243264)
(-0.0279604 0.117408 0.26705)
(-0.0410771 0.0954548 0.292839)
(0.20551 0.812726 0.426437)
(0.0933579 0.789997 0.300853)
(0.327243 0.553111 0.399657)
(0.205526 0.533451 0.278539)
(0.14658 0.360801 0.316837)
(0.111586 0.366851 0.257005)
(0.165718 0.303875 0.298718)
(0.144247 0.282407 0.257173)
(-0.0181778 0.180526 0.247849)
(-0.0562859 0.148378 0.290219)
(-0.150568 0.761512 0.354249)
(-0.0950712 0.695763 0.307376)
(-0.0411983 0.592589 0.314759)
(0.0412934 0.523916 0.275327)
(-0.0402216 0.462948 0.270613)
(0.0307756 0.415071 0.246431)
(-0.0691027 0.352345 0.241244)
(-0.0154018 0.321965 0.241096)
(-0.085731 0.221269 0.195431)
(-0.0981636 0.221873 0.276185)
(-0.209052 0.606221 0.281407)
(-0.191315 0.494708 0.190317)
(-0.39786 0.609239 0.187135)
(-0.240103 0.481979 0.111576)
(-0.324568 0.726086 0.366331)
(-0.327063 0.605874 0.282303)
(-0.492837 0.723623 0.254898)
(-0.399454 0.596223 0.204821)
(-0.314682 0.512118 0.153779)
(-0.185541 0.419625 0.0925071)
(-0.15708 0.497346 0.223104)
(-0.156261 0.421888 0.165402)
(-0.469089 0.608959 0.189382)
(-0.207182 0.47398 0.0894297)
(-0.516051 0.605095 0.0694776)
(-0.232364 0.473103 0.0399953)
(-0.549713 0.720401 0.199902)
(-0.407672 0.606867 0.144478)
(-0.586687 0.71331 0.0699654)
(-0.437 0.604863 0.0579525)
(-0.381768 0.521025 0.164604)
(-0.151146 0.412648 0.0736634)
(-0.427735 0.520086 0.0649263)
(-0.175241 0.418112 0.0342435)
(-0.249902 0.399562 0.129386)
(-0.199007 0.342256 0.11988)
(-0.19475 0.261954 0.115351)
(-0.288875 0.280201 0.169916)
(-0.161979 0.385367 0.180098)
(-0.18297 0.335384 0.171483)
(-0.166589 0.249749 0.147173)
(-0.267868 0.265923 0.217786)
(-0.288326 0.416439 0.130806)
(-0.196899 0.348799 0.0854466)
(-0.220028 0.268612 0.0834713)
(-0.331627 0.29687 0.115218)
(-0.350267 0.426441 0.0398273)
(-0.214037 0.348815 0.019414)
(-0.275207 0.279331 0.00925782)
(-0.342521 0.301213 0.021836)
(0.0311816 0.0748009 0.172939)
(0.0334055 0.0660547 0.0721143)
(0.0376049 0.0548159 0.0212745)
(0.000947717 0.325286 0.199726)
(0.011696 0.174144 0.051649)
(0.013158 0.142543 0.0137422)
(0.113648 0.0725073 0.174979)
(0.12092 0.071833 0.0778891)
(0.120957 0.0639398 0.0239081)
(0.00880021 0.3522 0.199339)
(0.0335184 0.205816 0.0537381)
(0.0337261 0.174757 0.0150019)
(0.143705 0.0992928 0.163273)
(0.160684 0.111838 0.077103)
(0.165052 0.114939 0.019928)
(-0.0238059 0.38831 0.195934)
(0.0325676 0.257512 0.0547092)
(0.0441874 0.229854 0.0128158)
(0.0501658 0.747847 0.185424)
(0.0428947 0.701965 0.0936552)
(0.0308154 0.668085 0.0207568)
(0.151636 0.515834 0.168839)
(0.155123 0.50258 0.0811402)
(0.144772 0.493594 0.018992)
(0.124237 0.379369 0.167062)
(0.140611 0.376674 0.0798211)
(0.138405 0.377243 0.0215209)
(0.153792 0.328503 0.167067)
(0.165686 0.31914 0.0780994)
(0.161833 0.311977 0.0164705)
(-0.0542807 0.441232 0.19537)
(0.0144968 0.317953 0.0537635)
(0.0197443 0.287993 0.00802828)
(-0.138166 0.637203 0.23527)
(-0.0786146 0.590097 0.117922)
(-0.0415506 0.557737 0.0313533)
(0.0409557 0.478935 0.213389)
(0.0862073 0.44823 0.105775)
(0.110383 0.430399 0.0288106)
(0.0394284 0.402058 0.195575)
(0.0974467 0.37529 0.0964117)
(0.122761 0.359596 0.0279804)
(0.0174484 0.390343 0.186991)
(0.0804294 0.348012 0.0797167)
(0.0985971 0.322935 0.0195257)
(-0.0934225 0.536182 0.211726)
(0.0204792 0.358761 0.0502932)
(0.0340197 0.32308 0.0122767)
(0.00115662 0.194395 0.0707777)
(0.00161041 0.122934 0.0254256)
(0.00206625 0.0886592 0.00509371)
(0.00312387 0.0761131 -0.00768074)
(0.0107866 0.219695 0.02949)
(0.00612842 0.134053 0.0111846)
(0.00512435 0.0937322 0.00306506)
(0.00497907 0.07794 -0.00150836)
(0.000479741 0.195285 0.0750404)
(0.00316775 0.122704 0.0279038)
(0.00734042 0.0888239 0.00725409)
(0.0113474 0.0766831 -0.00467131)
(0.0175908 0.224534 0.0374999)
(0.0113011 0.136829 0.0155583)
(0.0127486 0.0955574 0.00750669)
(0.0137054 0.0788127 0.00349198)
(-0.00885963 0.19448 0.0806522)
(0.00128564 0.121139 0.0310756)
(0.0105102 0.0887802 0.0109879)
(0.0202563 0.076227 8.57297e-06)
(0.0066353 0.229012 0.0642854)
(0.00926741 0.138461 0.02997)
(0.0119281 0.0974613 0.0116181)
(0.0135776 0.0786476 0.00260577)
(0.00160265 0.246947 0.0490896)
(0.00557947 0.146957 0.0276513)
(0.00572432 0.0999048 0.00973624)
(0.00562396 0.0819794 -0.000554616)
(-0.00849867 0.254523 0.0460982)
(-0.000220931 0.152844 0.0301848)
(0.00484054 0.103254 0.0175167)
(0.00819994 0.0851971 0.0103455)
(-0.0377601 0.207619 0.0669278)
(-0.00771124 0.129117 0.0297022)
(0.00389442 0.0922678 0.00903277)
(0.0122146 0.0771125 -0.00699111)
(-0.0591581 0.167255 0.0572935)
(-0.0137357 0.111872 0.025098)
(5.92631e-05 0.0840206 0.010974)
(0.0210584 0.074102 -0.00696298)
(-0.026159 0.181014 0.0790152)
(-0.00314863 0.116265 0.0306508)
(0.00724138 0.0857368 0.00992373)
(0.0180842 0.0716299 -0.00493313)
(-0.048578 0.153158 0.0714929)
(-0.0104146 0.105084 0.0278802)
(-0.000690991 0.0805156 0.0111293)
(0.0183875 0.0710535 -0.0114171)
(-0.0402926 0.225437 0.0537869)
(-0.0092707 0.13882 0.0276772)
(0.00499732 0.0969201 0.0110009)
(0.0155068 0.0807237 -0.00227345)
(-0.066391 0.175664 0.0440652)
(-0.016376 0.116837 0.0222078)
(-3.64284e-05 0.0862718 0.0118494)
(0.0247827 0.0765192 9.16707e-05)
(-0.0450605 0.23549 0.03984)
(-0.0123476 0.145407 0.0244252)
(0.0045994 0.100214 0.0144674)
(0.0185097 0.0832934 0.00884665)
(-0.0715891 0.179304 0.0304503)
(-0.0187823 0.120381 0.0187961)
(-0.000901299 0.0881334 0.0125305)
(0.0259162 0.0778776 0.00734742)
(0.00038126 0.144689 0.090031)
(0.000950626 0.104511 0.0306259)
(0.00180756 0.0802983 0.0050442)
(0.00393356 0.0721094 -0.0152837)
(0.00156207 0.0899683 0.0890477)
(0.00130246 0.0822937 0.0281865)
(0.00107811 0.0700658 0.00730312)
(0.00359643 0.0677599 -0.0208144)
(0.00295726 0.144934 0.0899933)
(0.00324807 0.10387 0.0311057)
(0.00562123 0.0801077 0.00587032)
(0.0106523 0.0719116 -0.0145516)
(0.00675817 0.0942382 0.0863264)
(0.00440573 0.0834468 0.0274464)
(0.00336641 0.0704827 0.00762547)
(0.00973793 0.0681362 -0.0201821)
(-0.0160215 0.148334 0.0883542)
(-0.00188787 0.10362 0.0312689)
(0.00612808 0.0803701 0.00897308)
(0.0181625 0.0721851 -0.0102368)
(-0.00714677 0.107563 0.0806624)
(0.00126049 0.0873582 0.0260167)
(0.00443854 0.0720333 0.00940111)
(0.0171908 0.0698308 -0.0164347)
(-0.00299858 0.145937 0.0775639)
(0.00489984 0.100631 0.028969)
(0.00912126 0.0786342 0.012399)
(0.0181931 0.0735239 -0.00107669)
(-0.000606538 0.118943 0.0885181)
(0.00394398 0.0900159 0.0291828)
(0.00377926 0.0739565 0.0132487)
(0.0173426 0.0693338 -0.019176)
(-0.041737 0.134253 0.0693385)
(-0.00792541 0.0971657 0.0259464)
(0.000907879 0.0765221 0.0124337)
(0.0241748 0.0699582 -0.00448645)
(0.00344659 0.0336396 0.0704919)
(0.00182475 0.0641246 0.0198649)
(0.00132566 0.0550695 0.00655711)
(0.00273977 0.0165941 -0.01403)
(0.00654083 -0.0306681 0.0280463)
(0.00266135 0.0539104 0.0072206)
(0.0014032 0.0488648 0.00178099)
(0.00128198 0.0176919 -0.00289251)
(0.00706657 0.043518 0.072905)
(0.00434167 0.0673722 0.0212505)
(0.00290005 0.0563506 0.00731743)
(0.00703689 0.017535 -0.0133545)
(0.0166892 -0.0181889 0.0292613)
(0.00707645 0.057549 0.00782431)
(0.00352662 0.0499841 0.00228798)
(0.00329045 0.0180766 -0.0023322)
(0.00417204 0.06202 0.0743572)
(0.00484249 0.0731124 0.0228263)
(0.00402506 0.058337 0.00905352)
(0.011576 0.0174796 -0.01167)
(0.0210877 0.00290866 0.0298594)
(0.00995372 0.0636767 0.00852)
(0.00532392 0.0516489 0.00295342)
(0.0051886 0.0182931 -0.0016487)
(-0.00368858 0.0845676 0.0671304)
(0.00442616 0.0798961 0.0215694)
(0.00508097 0.0611557 0.0104315)
(0.0161117 0.0190044 -0.00913741)
(0.0165256 0.0252023 0.0290463)
(0.0107655 0.0704284 0.0088232)
(0.00633385 0.0540099 0.00406153)
(0.006597 0.0190912 -0.000427305)
(-0.0217134 0.0992168 0.0615648)
(0.000645942 0.0860378 0.0215084)
(0.00254853 0.0646367 0.0113299)
(0.0154057 0.022233 -0.00521951)
(0.00478046 0.0306693 0.0260701)
(0.00929236 0.0754584 0.00933745)
(0.00582989 0.0561948 0.00554522)
(0.0067459 0.0197861 0.00123137)
(-0.0484934 0.105833 0.042993)
(-0.00481198 0.0926837 0.0173888)
(0.00198285 0.0662332 0.00848893)
(0.017787 0.0210892 -0.00159647)
(-0.015569 0.0167027 0.0246153)
(0.00235436 0.0805879 0.0122173)
(0.00368814 0.0602141 0.00740492)
(0.00626245 0.0209989 0.00390089)
(-0.0374293 0.103239 0.049618)
(-0.0013308 0.0897386 0.0176486)
(0.00242535 0.0650197 0.00869612)
(0.016565 0.0211103 -0.00380697)
(-0.00920228 0.0153627 0.0248205)
(0.00545938 0.0781995 0.0106316)
(0.00494102 0.0581905 0.00649957)
(0.00679673 0.0202798 0.00259101)
(-0.0586908 0.1065 0.0346997)
(-0.00909832 0.0947749 0.0168341)
(0.000579801 0.0672731 0.009287)
(0.0193136 0.0196222 0.0014445)
(-0.0213055 0.013997 0.022105)
(-0.000705799 0.0826617 0.0128474)
(0.00240038 0.0616052 0.00811424)
(0.00585503 0.0211322 0.00518251)
(-0.0663659 0.108835 0.024575)
(-0.0133594 0.0970096 0.0152738)
(-0.00138261 0.0691454 0.010375)
(0.0190573 0.0200707 0.00640399)
(-0.0266017 0.0181727 0.0184699)
(-0.00402563 0.0849996 0.0127682)
(0.000698652 0.0632989 0.00890971)
(0.00505779 0.0216683 0.00670097)
(0.0013787 0.0703646 -0.000694164)
(0.000606269 0.0537419 0.00028585)
(0.000310383 0.0370159 0.000290658)
(0.000180933 0.0215253 0.00020164)
(0.000129892 0.00705087 0.000152114)
(0.00181493 0.0695732 -0.000104413)
(0.000929632 0.0536326 0.000194275)
(0.000509928 0.0370438 0.00016416)
(0.000305764 0.0215541 0.000111447)
(0.000221334 0.00706079 8.40816e-05)
(0.00329381 0.071231 0.000350189)
(0.00141156 0.0541723 0.0008307)
(0.000720787 0.0372259 0.000594939)
(0.000422435 0.0216229 0.000387123)
(0.000305701 0.0070793 0.000287245)
(0.00410981 0.070635 0.0010248)
(0.00208415 0.0541831 0.000813059)
(0.00114535 0.0373253 0.000515696)
(0.000690712 0.0216879 0.000326026)
(0.000501962 0.00710026 0.000240106)
(0.00437025 0.072881 0.00149155)
(0.00176877 0.0547873 0.00149625)
(0.000891888 0.0374991 0.00098256)
(0.000522282 0.0217465 0.000629859)
(0.000379083 0.00711513 0.000466365)
(0.00552965 0.071955 0.00417882)
(0.00276661 0.0548419 0.00276143)
(0.00152479 0.0376578 0.00167606)
(0.000925181 0.0218466 0.00105061)
(0.00067508 0.00714745 0.000772188)
(0.00289871 0.0730563 0.00501491)
(0.00141712 0.0555968 0.00325753)
(0.000777915 0.0380982 0.00197619)
(0.000473035 0.0220695 0.00124172)
(0.000345471 0.00721525 0.00091552)
(0.00206038 0.0747789 0.00730378)
(0.000831995 0.0566869 0.00431452)
(0.000417492 0.0387275 0.00254083)
(0.000246474 0.0223881 0.00158168)
(0.000178177 0.00731218 0.00116427)
(0.00438735 0.0745705 0.00262789)
(0.00181062 0.0555281 0.00218856)
(0.000931596 0.0378936 0.00138922)
(0.000552824 0.02194 0.000882822)
(0.00040021 0.00717338 0.000649759)
(0.00209469 0.0796293 0.00282113)
(0.000741337 0.0564395 0.00206613)
(0.00035893 0.0381525 0.00128204)
(0.000208251 0.0220364 0.000812695)
(0.000149542 0.0071998 0.00059849)
(0.00462278 0.0749289 0.00181107)
(0.00210438 0.0553377 0.00175563)
(0.0011333 0.037703 0.00113528)
(0.000683159 0.0218323 0.00072785)
(0.000497754 0.00713931 0.000538381)
(0.00197839 0.0795214 0.00335638)
(0.000737457 0.0561116 0.00214867)
(0.000368153 0.0379415 0.00128659)
(0.000215403 0.0219272 0.000809283)
(0.000154532 0.00716601 0.000594018)
(0.00337875 0.0752614 0.00343234)
(0.00118396 0.0561925 0.00261248)
(0.000563909 0.0382884 0.00163813)
(0.00032617 0.0221412 0.00103907)
(0.000234588 0.00723489 0.00076682)
(0.00198583 0.0810766 0.0037916)
(0.000662565 0.0570842 0.00247279)
(0.000314534 0.0385118 0.00150065)
(0.000182466 0.0222181 0.00094534)
(0.000131377 0.00725541 0.000696429)
(0.00294219 0.0769552 0.00580417)
(0.000763746 0.05725 0.00347574)
(0.000292436 0.0388805 0.00205217)
(0.000154029 0.0224384 0.00127861)
(0.00010662 0.00732536 0.000940815)
(0.00162577 0.0828762 0.00485198)
(0.000361331 0.0580272 0.00287)
(0.000126066 0.0390246 0.00169184)
(6.36491e-05 0.022475 0.0010541)
(4.32085e-05 0.0073339 0.000774383)
(0.00115044 0.0723343 -0.00127837)
(0.000457719 0.0540137 0.000143647)
(0.000225467 0.037014 0.000215312)
(0.000128569 0.0215022 0.000154854)
(9.14143e-05 0.00704218 0.000117788)
(0.000830771 0.0760884 -0.000697901)
(0.000362659 0.054317 4.49065e-05)
(0.000186826 0.037022 8.44458e-05)
(0.000108051 0.0214888 6.19338e-05)
(7.71012e-05 0.00703692 4.77448e-05)
(0.00281032 0.0731476 -0.000592437)
(0.00114855 0.054353 0.000485972)
(0.000580447 0.0371703 0.000403497)
(0.00033597 0.0215729 0.000269296)
(0.000241165 0.00706244 0.0002019)
(0.00214527 0.0767331 -0.000452929)
(0.000954929 0.0545724 0.000166168)
(0.000500658 0.0371412 0.000149939)
(0.000292397 0.0215431 0.000101081)
(0.000209516 0.00705256 7.6584e-05)
(0.00394411 0.0748036 0.000272674)
(0.00141719 0.054922 0.000884477)
(0.00068643 0.0374166 0.000618186)
(0.000391442 0.0216838 0.000401674)
(0.000280103 0.00709427 0.00030044)
(0.00291189 0.0781529 0.000474772)
(0.00131552 0.0550373 0.000569175)
(0.000697553 0.0373535 0.000362047)
(0.000408951 0.0216404 0.000227227)
(0.000295138 0.00708059 0.000169032)
(0.00354736 0.0775145 0.00219493)
(0.00161728 0.0555776 0.00173672)
(0.000875177 0.0376663 0.00107879)
(0.000524926 0.0217928 0.000686634)
(0.000382725 0.00712528 0.000510354)
(0.00197987 0.0798548 0.00146787)
(0.00100102 0.0555374 0.00109805)
(0.000549376 0.0375961 0.000666272)
(0.000326364 0.0217533 0.000420425)
(0.000237985 0.0071128 0.000312489)
(0.00183898 0.0800908 0.00407609)
(0.000889187 0.0559153 0.00228171)
(0.000492735 0.0378081 0.00132165)
(0.000298982 0.0218577 0.00082162)
(0.000218157 0.00714423 0.000602902)
(-0.0130152 0.387643 0.0667925)
(-0.0180702 0.595634 0.152622)
(-0.0289596 0.406607 0.0675541)
(-0.04412 0.607322 0.151122)
(-0.0294088 0.434565 0.0739238)
(-0.0549786 0.622503 0.149974)
(-0.00789426 0.453722 0.0880265)
(-0.0440621 0.632102 0.155992)
(0.0182303 0.435771 0.0917927)
(-0.00619823 0.607993 0.160829)
(-0.0282433 0.404692 0.0372)
(-0.0481826 0.455744 0.0571836)
(0.00992269 0.404788 0.0607349)
(0.00670135 0.477046 0.0963062)
(-0.0453381 0.407194 0.019962)
(-0.0721699 0.452188 0.0281449)
(-0.0577702 0.414387 0.0072371)
(-0.0826535 0.457857 0.00950071)
(-0.0250145 0.343089 0.3477)
(-0.00581352 0.0587073 0.0830337)
(-0.00131004 0.0125316 0.0190271)
(-0.000289437 0.0028079 0.00424938)
(-7.26157e-05 0.000496813 0.00105558)
(-0.00835461 0.381489 0.0947731)
(-0.00376292 0.10853 0.0255184)
(-0.000532132 0.0263297 0.00678662)
(-0.000140912 0.00596807 0.00154318)
(-6.12721e-05 0.00105559 0.000335409)
(-0.0768301 0.346688 0.343742)
(-0.0177733 0.0582529 0.0814223)
(-0.00401878 0.0123437 0.0186398)
(-0.000883498 0.00275517 0.00412802)
(-0.000221947 0.000486156 0.00103301)
(-0.0199347 0.384914 0.0964604)
(-0.00536932 0.108087 0.0284511)
(-0.00130329 0.0261204 0.0070116)
(-0.000274044 0.00589227 0.00163006)
(-7.37224e-05 0.00103322 0.000404814)
(-0.129065 0.350106 0.328467)
(-0.0299176 0.0580167 0.0772623)
(-0.00678242 0.0121885 0.0176209)
(-0.00149587 0.00270853 0.00389729)
(-0.000374947 0.000476899 0.00097641)
(-0.0316378 0.387719 0.0936287)
(-0.00909275 0.107692 0.027511)
(-0.00220135 0.025882 0.00676184)
(-0.000509706 0.00581652 0.00156415)
(-0.000127902 0.00101838 0.00038985)
(-0.173133 0.347209 0.301129)
(-0.0402494 0.0563011 0.0702034)
(-0.00916131 0.0117211 0.0159622)
(-0.00202653 0.00259789 0.00352735)
(-0.00050853 0.000457095 0.000883977)
(-0.0367111 0.383463 0.090979)
(-0.011414 0.105506 0.026174)
(-0.00285295 0.0252623 0.00634999)
(-0.000668177 0.0056673 0.00145588)
(-0.000167327 0.000991187 0.000360921)
(-0.216213 0.329613 0.25246)
(-0.0507598 0.0520987 0.0585539)
(-0.011633 0.0108225 0.0133202)
(-0.00258603 0.00240587 0.00294745)
(-0.000651596 0.00042425 0.000739574)
(-0.0403907 0.363493 0.085986)
(-0.0138309 0.100186 0.0240698)
(-0.00356046 0.024065 0.00577583)
(-0.000844983 0.00541378 0.00131595)
(-0.000214101 0.000948224 0.000325262)
(-0.25607 0.293908 0.119689)
(-0.0619666 0.0483019 0.0290275)
(-0.0143974 0.0103603 0.00671634)
(-0.00322747 0.00234059 0.00149697)
(-0.000816804 0.000415889 0.000376212)
(-0.0625903 0.300804 0.04197)
(-0.0192079 0.086961 0.0119358)
(-0.00474889 0.0214401 0.00284153)
(-0.0010914 0.00490268 0.000636213)
(-0.000273449 0.00086686 0.000156884)
(-0.238454 0.304264 0.178201)
(-0.0575009 0.0492022 0.0426112)
(-0.0133015 0.010429 0.00978332)
(-0.00296951 0.00234134 0.00216995)
(-0.000749173 0.000414673 0.000544478)
(-0.0485838 0.318598 0.0617498)
(-0.0162727 0.0919356 0.0173346)
(-0.00414717 0.0224673 0.00416159)
(-0.000972222 0.00509688 0.000947594)
(-0.000243915 0.000896439 0.000235783)
(-0.264103 0.289947 0.0702908)
(-0.0640063 0.0481115 0.0171831)
(-0.0148994 0.0103675 0.00399429)
(-0.00334521 0.00234785 0.000894619)
(-0.000847881 0.000417583 0.00022526)
(-0.0709455 0.2949 0.0235083)
(-0.0210634 0.0847548 0.00695369)
(-0.00513064 0.0209148 0.00164572)
(-0.0011627 0.00479767 0.000368339)
(-0.000290557 0.000850673 9.16921e-05)
(-0.275229 0.288906 0.0243011)
(-0.0661397 0.0477455 0.00590559)
(-0.0154173 0.0102808 0.00137609)
(-0.00345989 0.00232915 0.000309297)
(-0.000876427 0.000413904 7.79355e-05)
(-0.0736043 0.295281 0.00944128)
(-0.0219222 0.0842552 0.00253467)
(-0.00538754 0.0207378 0.000555837)
(-0.00113442 0.00476817 0.000155876)
(-0.000299947 0.000844074 3.03358e-05)
(-0.0203347 1.34216 0.00399975)
(-0.27797 1.90197 0.0195903)
(-0.253657 1.85881 0.183163)
(-0.0906315 1.30266 -0.0341678)
(0.0659387 0.768033 0.03019)
(0.112304 0.808095 0.0323542)
(0.312885 1.13251 0.0943943)
(0.457311 1.18271 0.12087)
(0.0707759 0.886049 0.0762075)
(0.335975 0.992675 0.142858)
(-0.0652131 1.40826 0.120071)
(0.103961 1.92038 0.185147)
(0.100237 1.77992 0.144766)
(0.197984 2.35701 0.179651)
(0.373853 1.16278 0.0752115)
(0.529064 1.3249 0.101284)
(0.565424 0.912859 0.0801877)
(0.709686 0.974985 0.0951184)
(0.230882 0.495693 0.0416971)
(0.299007 0.543404 0.0433552)
(-0.794048 0.196695 0.0924436)
(-0.574068 0.130097 0.0673653)
(-0.189974 0.0345045 0.0216906)