/*--------------------------------*- C++ -*----------------------------------*\
| =========                 |                                                 |
| \\      /  F ield         | OpenFOAM: The Open Source CFD Toolbox           |
|  \\    /   O peration     | Version:  2306                                  |
|   \\  /    A nd           | Website:  www.openfoam.com                      |
|    \\/     M anipulation  |                                                 |
\*---------------------------------------------------------------------------*/
FoamFile
{
    version     2.0;
    format      ascii;
    arch        "LSB;label=32;scalar=64";
    class       volScalarField;
    location    "2.1";
    object      gradTy;
}
// * * * * * * * * * * * * * * * * * * * * * * * * * * * * * * * * * * * * * //

dimensions      [0 -1 0 1 0 0 0];

internalField   nonuniform List<scalar> 
5712
(
11734.3
6766.71
19022.1
12471.4
20757.3
15368.7
32581.3
40394.3
42835.9
52428.9
27705.1
24076.5
17598.5
13951.1
8834.76
5976.56
19690.7
20127.2
16966.3
19922.9
26600.9
23734.9
30702.8
24831.4
8282.93
5963.57
4654.9
3459.48
9910.72
8070.15
6013.7
4860.93
18013.7
18697.5
18399.9
15527.8
14330.8
11200.9
11244
12769.1
18118.3
18030.3
38012.1
39294.8
26930
27739.5
15368.7
12959
16738
11934.8
7784.85
7993.18
6373.7
8894.56
3334.16
4011.96
8738.97
11938.8
5202.36
6063.63
9686.9
16226.2
6711.08
10973.9
2559.09
6526.99
2129.48
4871.23
17746.4
21918.7
18309.2
21825.4
21712.2
21925.6
22109.8
21642.4
15578.1
21105
16015.5
20846.8
18032.3
21674
18024.1
21621.9
22290.5
21363.2
22212.6
21157.9
14391.5
21192.1
13891.9
21266.4
17556.2
20586
22169.8
30903
18588.8
23745.7
21966.7
33531.1
16648.8
18132.6
22260.5
29726.6
16473.4
16972.6
22501.2
29509
5229.51
6830.96
13329.4
23217.1
6497.58
7381.57
17193.5
26454
8110.4
8190.19
21839.1
29610.2
24424.6
26229.9
20668.7
19963
28875.3
26413.9
24947.8
21102.4
18297.6
32962.5
24068.8
23761.5
21173.6
21040.7
37734.9
2027.68
2432.19
4331.45
9826.14
2882.45
3256.93
6000.46
11047.6
4308.93
3646.87
8182.04
12719.7
26172.8
25900.3
23607.2
23263.3
20225.7
18562.9
15316.1
13565.6
10787.4
14958.2
23820.9
23039.3
24006.7
23652
20865.4
19579.7
17261.1
15484.4
11508.8
15131.1
23766.6
26772.5
23693.1
27422.4
22978.4
23810.2
22423.4
23964.2
21602.9
21981.8
21428.7
21347.6
23503.5
27534.1
23392.3
27504.3
21762.9
24251.6
21579.2
24191
21685.9
21932.3
21677.9
21916.9
18176
17282.3
11716.2
13021.9
18047.8
16822.4
11535
13055.4
18432.4
17234.9
11973.7
13083
18507.3
17061.8
12346.8
13094.6
1657.73
1128.99
787.591
965.59
669.433
625.442
2302.82
1388.63
1056.67
1908.19
1541.45
1334.31
2687.59
2254.93
2269.62
3360.08
2760.73
2485.64
24811.7
22471.2
20821.5
22825.8
21218.7
19916.4
16376.4
15243.5
14623
11113.1
9674.3
9066.4
5119.2
3795.64
3224.29
22425.7
20825.3
19442.4
23008.8
21030.1
19475.4
17037.2
14689.8
13354.2
11111.1
8929.23
8039.88
5447.68
3779.99
3041.21
27004.4
26446.2
29398.2
26400.4
30251
26407.1
36504.1
27795.3
20948.7
21297.5
20682.1
19213.3
23503.1
22164.5
23069.3
19732.3
22836.8
22683.8
21048.9
22531.2
28082.6
25198.9
27795.8
28215.4
30170
31195.4
23154.3
24022.2
20740.1
20129.8
25232.7
25878.3
16458.6
8845.46
15376
9796.43
16699.2
8925.39
15328.9
9733.57
16481
8974.66
15293.2
10146.4
14870
10616.5
15047.1
10529.8
21177
18135.8
21042.6
18100.4
23364.2
21123
23583.7
20903.7
20623
15136.4
21528.1
14946.8
21498.7
18008.2
21764.9
17802.3
24179.3
20725.1
24190.2
20456.5
20413.5
15176.7
20349.9
15082.3
13542
9012.49
11995.3
7646.5
12629.5
8073.99
11534.4
7142.74
13869.3
9578.57
12185.2
7880.3
13885
9927.35
12153.2
7936.8
2570.36
1333.84
4677.51
2452.45
2749.26
1650.89
4989.84
2967.46
3397.88
2518.3
5540.65
3938.28
13188.8
20374.3
9510.92
9122.59
6435.02
19974.2
13954
8201.98
8239.58
5285.71
20746.1
16375.9
13047.1
10159.7
6256.38
705.612
537.496
1349.44
971.274
1022.13
709.811
1970.37
1559.77
1804.97
1422.6
2935.19
2386.37
20318.1
19749.9
13827.8
13336.3
9020.04
9171.27
7596.88
7060.17
4513.14
3709.46
19037.8
17394.1
14814.7
13097.9
11573.7
10376.8
8808.63
8049.13
5531.72
5546.82
15155.5
12367.7
15231
12049.5
18152.1
15146.8
18090.6
14905.6
12802.9
10490.6
12433.7
10547.2
15224
11849.5
15127.4
11827.6
18010
15171.7
17832.8
15121.6
13025.6
10316.2
13002.2
10452.8
9989.05
8556.41
6548.84
7005.03
9634.19
8384.6
6243.73
6648.08
10411
8719.98
6715.3
7421.74
10661
8720.37
6983.28
7530.33
1870.02
1651.37
1370.4
8132.16
4353.61
3563.58
1812.68
1795.83
1598.49
8805
5145.4
4368.94
2482.32
2795.95
2873.48
9707.75
6437.8
5746.36
18696.2
17549.1
16702.1
12895.8
12564.5
12339.8
9484.22
9416.86
9431.08
8212.56
7978.51
7799.43
11030.8
7948.82
7199.82
15930.1
14752.4
13943.4
11973.4
11205.8
10760
10051.4
9382.26
8989.89
9758.56
8700.3
8073.37
13404.6
8969.01
8077
4859.87
3073.35
2216.48
1902.83
5492.38
3351.32
2343.31
1948.5
4882.12
3067.59
2220.6
1917.08
5613.36
3420.71
2388.93
1970.32
4862.01
3028.49
2219.5
1905.68
5725.29
3461.53
2436.53
1966.19
6173.67
3673.93
2497.62
2049.49
6363.07
3821.1
2581.35
2129.93
5190.47
3227.91
2306.69
1927.81
4181.39
2796.8
2100.51
1852.55
4525.34
2906.62
2143.42
1790.75
3828.96
2627.09
2012.89
1776.34
5635.93
3470.49
2423
2018.09
4391.59
2920.93
2156.8
1912.98
5887.26
3635.19
2505.35
2082.33
4482.6
3009.52
2203.34
1946.94
3617.23
2612.78
2007.46
1802.74
2249.21
2057.34
1751.64
1694
3623.34
2596.76
2002.69
1797.79
2355.95
2086.17
1762.07
1703.41
3708.36
2590.5
2009.25
1804.63
2689.07
2183.95
1800.83
1745.77
3648.42
2515.76
1965.86
1838.1
2973.58
2250.4
1848.91
1733.34
3356.32
2429.14
1913.05
1748.95
840.99
1603.11
1376.74
414.851
-766.703
1347.76
1221.62
442.297
1087.95
1684.3
1408.76
438.375
-454.723
1438.73
1249.6
451.915
1550.5
1827.81
1458.42
436.989
72.7164
1591.92
1291.22
457.327
2114.19
1997.4
1528.89
475.11
630.057
1760.71
1350.25
477.28
2480.42
2150.95
1615.92
555.824
766.733
1886.46
1404.87
494.653
2645.82
2317.09
1655.83
527.231
417.569
2014.7
1505.35
524.973
2580.97
2243.46
1625.49
527.757
384.067
1954.99
1454.76
506.996
2662.5
2369.37
1681.83
490.556
349.924
2066.54
1540.13
528.306
2720.88
2425.24
1728.63
501.767
454.318
2124.99
1582.47
541.708
1759.12
1343.55
925.397
538.131
176.272
1739.33
1340.81
926.096
538.851
176.52
1780.77
1354.31
930.649
540.571
176.982
1765.87
1354.58
933.132
542.197
177.506
1822.03
1369.68
937.478
543.663
177.878
1798.88
1371.05
941.446
546.165
178.686
1826.41
1389.92
952.455
551.738
180.381
1869.47
1417.17
968.189
559.702
182.804
1864.26
1388.2
947.341
548.5
179.335
1990.73
1410.99
953.811
550.909
179.995
1873.22
1383.44
942.575
545.806
178.483
1988.04
1402.79
948.537
548.18
179.15
1881.53
1404.81
957.21
553.529
180.872
2026.92
1427.1
962.796
555.452
181.385
1923.88
1431.25
972.013
560.961
183.134
2071.9
1450.68
975.615
561.874
183.347
1808.36
1350.34
925.35
537.555
176.055
1902.21
1357.92
925.549
537.219
175.923
1828.69
1358.82
929.257
539.323
176.561
1918.33
1364.31
928.53
538.577
176.314
1870.09
1373.05
935.415
542.096
177.357
1953.82
1375.93
933.837
541.011
177.015
1937.86
1389.44
941.658
544.819
178.132
1996.37
1388.43
939.903
543.834
177.82
2002.27
1397.88
945.203
546.444
178.606
9691.07
14890.9
10165.2
15183
10864.1
15562.6
11343.1
15802.6
10894.3
15199.8
10117.3
11393.6
10119.7
11926.1
10179.8
11304.7
10359.7
11446.4
8577.23
1467.68
313.29
70.1976
12.4203
9537.21
2713.26
658.242
149.202
26.3897
8667.21
1456.32
308.593
68.8793
12.1539
9622.85
2702.18
653.009
147.307
25.8305
8752.66
1450.42
304.713
67.7132
11.9225
9692.98
2692.29
647.049
145.413
25.4595
8680.22
1407.53
293.028
64.9472
11.4274
9586.56
2637.66
631.557
141.683
24.7797
8240.33
1302.47
270.562
60.1469
10.6063
9087.33
2504.65
601.625
135.344
23.7056
7347.7
1207.55
259.007
58.5149
10.3972
7520.1
2174.03
536.003
122.567
21.6715
7606.59
1230.05
260.724
58.5334
10.3668
7964.96
2298.39
561.682
127.422
22.411
7248.68
1202.79
259.189
58.6962
10.4396
7372.5
2118.87
522.871
119.942
21.2668
7222.66
1193.64
257.019
58.2288
10.3476
7382.02
2106.38
518.445
119.204
21.1019
33554
47549.3
46470.3
32566.5
19200.8
20202.4
28312.7
29567.7
22151.2
24816.9
35206.6
48009.5
44498.1
58925.2
29069.4
33122.4
22821.5
24374.6
12392.3
13585.1
4917.36
3252.43
862.613
664.821
747.904
655.847
798.672
4811.94
4755.88
2871.46
4035.22
3871.93
1680.36
2320.07
2107.71
1390.85
1602.52
1314.67
4336.71
2355.2
1507.81
1334.8
1695.47
1470.62
1153.42
1091.59
1026.27
901.803
1224.09
1105.22
4535.86
2755.46
3161.23
2014.95
1661.26
2335.01
1177.33
925.746
1294.04
9995.47
10089.4
10301.3
11573.6
19016.8
7204.26
8271.04
9059.39
10185.1
11865.7
2268.52
3241.12
3982.77
4489.73
4752.46
1761.89
2544.8
3153.03
3568.98
3781.21
1979.39
2851.88
3523.18
3977.11
4206.44
1739.79
2515.86
3118.87
3529.74
3738.15
2108.57
3027.9
3732.11
4209.4
4452.25
10114.8
10421.8
10300.7
10936.5
17067.5
9969.37
10093.6
9798.35
10036.9
11445.8
6599.02
7825.65
8457.2
9048.6
9765.2
8723.28
9163.61
8940.41
8881.26
9106.26
8364.38
8862.93
8617.16
8411.75
8417
4188.92
5540.73
6398.76
6947.79
7254.17
5515.2
6827.38
7520.41
7973.09
8295.3
5075.56
6382.13
7066.82
7443.26
7641.9
3544.66
4832.64
5701.76
6252.29
6533.53
4012.18
5331.55
6159.12
6658.4
6909.73
3371
4633.14
5495.08
6036.35
6304.94
9294.91
9908.24
10086.5
10985
17355.6
5600.72
6987.67
7855.77
8613.04
9373.66
3815.91
5159.46
6069.81
6678.72
7024.13
3416.8
4698.4
5606.31
6225.32
6571.54
4226.35
5611.57
6549.83
7233.52
7695.59
3733.37
5083.06
6041.84
6729.3
7147.62
2985.56
4175.32
5057.36
5673.61
6014.89
2840.92
3997.77
4852.53
5432.09
5737.16
2682.99
3794.63
4611.72
5148.65
5417.87
2371.11
3383.07
4144.47
4653.22
4910.13
3159.41
4388.31
5260.16
5830.85
6125.43
2873.63
4035.85
4885.39
5452.56
5746.66
9455.12
9833.66
10094.8
11259.3
18252.9
6305.5
7549.51
8433.76
9463.28
10766.3
7342.43
8612.81
9275.91
10313.2
12540
4911.53
6363.86
7386.19
8265.68
9002.07
4160.7
5572.3
6573.14
7339.66
7862.9
5562.15
6978.22
7914.65
8780.33
9660.39
3045.38
4252.33
5139.1
5751.47
6086.88
2429.08
3457.36
4231.36
4753.6
5021.52
3322.06
4589.35
5501.56
6132.51
6487.41
18441.6
12247.2
18998.2
13569.5
24625
35178.8
25736.9
35006.4
19531.8
20661.1
16761.8
19964.8
22188.1
21093.2
28254.9
23156.9
14216.5
13287.2
6965.58
5943.36
15493.9
14158.5
8000.75
6528.33
19159.7
20706.4
19639.7
17918.3
20017.2
13186.6
11045.2
12733
18030
17999.4
37469.4
39178.4
26192.9
27538.9
15958.4
13084.3
17420
12054.9
8443.02
8151.79
13969.4
15455.3
5845.03
6373.72
15373.5
17535.7
7291.13
8048.22
14666.6
20489.2
8517.06
13128.3
2976.47
7266.81
2212.84
5015.28
18188.3
20790.9
18129.4
21165.6
19838.4
20117.9
20906
20630
16552.4
20942
18777.2
20646.7
17831.2
21319.9
17945.5
21507
21670.3
20845.5
22030
20997.6
14673.4
21077.8
13934.3
21221.7
18446.9
21825.3
22397.6
31220
20094.2
25836.8
22466.9
34212.9
17050.3
18725.7
22341.1
29859.9
16575.5
17136.3
22514
29542.5
19155.3
20692.8
24019.4
35619
19274.8
19724.7
25710.5
36088.7
18997.2
18664.8
27673.9
35813.1
18392.7
19263
19665.2
20933.3
31480.1
18513
17304.7
20990.3
19136.6
35980.1
19315.3
20154.5
20004.7
21701.5
38915.7
11484.8
10508.2
10650
13773.2
12571.4
11519.5
11036.1
14156.5
13835.3
11998.9
11546.5
14473.8
17947.4
17256.2
16852.1
16392.7
19467.6
18202.8
16087.2
14484
12095.5
15104.8
18971.4
18752.9
20108.2
20239.2
19304.9
18168.9
17525.8
15564.9
11914.3
14610.3
21889.2
24635.5
22742.5
26272.4
20685.1
21587.8
21319.2
22866.5
21084.1
21310
20543.5
20273
23038
26975.7
23250.6
27337.7
21246.2
23719.1
21426
24035.3
21403.9
21586.7
21588.4
21813.2
18041
17012.3
11749.7
12929.3
17957.3
16520.7
11714.8
12970.3
18330.7
17073.3
11965.6
13018.2
18469.7
17009.1
12338.7
13070.1
9620.81
9766.32
4140.61
3813.04
10731.6
10381.8
4639.24
4438.95
10457
9795.48
5281.96
5097.73
16997.3
16480.2
16596.7
16659.6
16563.2
16051.2
12468.5
11154.4
6229.77
5141.05
19050
18268.3
20371.5
19567.7
16191
15002.7
11645.9
9999.64
5730.11
4306.27
22126.6
21036.9
27136.4
23704.4
24626.5
21949.6
33731.5
25440.6
20243.4
16711.4
22052.5
17532
20122.9
16993.2
22147
17759.6
20686.2
18337.1
18715.9
17408
21255.3
22530.5
26439.5
27802.7
29025.7
30863.3
21806.1
23546
19693.8
19831
23707.6
25364.8
13641.9
10076.4
14076.9
10304.6
13922.3
9987.02
14264.2
10154
13840.3
9837.9
14210.5
10347.7
14244.6
10656.2
14843.8
10536
17309.3
16819.2
19116.1
17287.3
19825.4
19005.7
21701
19725.5
18814.3
14834.9
17885.9
14659.7
20542.5
17575.8
21480.5
17671.2
23261.8
20131.2
23924.2
20277
19518
14987.1
20089.1
15023.3
13139
9431.84
12203.3
8028.32
12581.8
9147.73
12142.8
7950.59
13555
9734
12250.7
8058.63
13774.1
9964.41
12169.9
7994.83
13148.2
13341.4
9461.95
8720.17
13289.7
13454.3
9315.34
8647.21
13247.7
12925.4
9081.37
8546.74
15338.9
18067
16163.1
12045.9
8823.73
16766.4
15716
17596
12096
8526.18
18485.3
16414.4
14596.4
12266.2
7880.67
13953.7
15156.7
8678.1
9383.66
13805.7
14746
8598.57
9251.37
12882.9
13404.1
8222.2
8378.07
16595.2
15743.5
15029.7
14489.4
15644.6
16113.1
12234.2
13062.4
7979.29
7822.91
16804.9
15427.1
15177.9
13901.7
13692.2
13137.6
11608.4
11657.7
7358.13
7892.73
14859.2
12753.9
14928
12177.5
16774.7
14266.3
17299.6
14445.8
12971.5
11059.5
13059.8
11837.5
15032
11903.5
15067.5
11841.9
17613.6
14945.2
17714.4
15056.9
13045.8
10562.5
12994.7
10515
10492.7
9357.93
7042.65
7745.69
10781.9
10056.1
7218.97
8134.24
10612.1
9077.37
6944.98
7818.14
10718.2
8824.75
7061.31
7655.12
18088.9
18042.3
24765.3
20849.1
17350.1
17429.3
23743.2
19927.3
15226.4
15875.3
21788
18523
15272.3
14763.3
14096.1
13913.9
16337.9
16795.7
15140.6
15120.9
19989.6
16958.8
14437.4
13753.8
13279.1
13117.3
13578.5
13929.3
14574.2
14251.9
19532.7
15582.5
6352.64
4068.2
2817.99
2318.08
6600.69
4205.08
2899.44
2337.81
6234.2
3991.61
2769.71
2295.2
6539.01
4159.49
2869.07
2308.11
6017.71
3840.9
2698.64
2234.57
6443.95
4056.17
2837.5
2250.12
6593.45
4047.87
2769.78
2251.58
6503.57
3951.09
2673.22
2200.24
5795.65
3696.71
2634.92
2178.14
4587.35
3130.78
2331.6
2040.63
5476.37
3572.64
2568.29
2094.94
4491.71
3141.1
2319.81
1999.83
5970.47
3750.47
2629.51
2179.06
4610.91
3109.38
2302.13
2041.29
5990.94
3728.96
2576.43
2138.71
4551.73
3070.9
2253.05
1991.04
5833.67
3808.33
2667.19
2246.16
4966.29
3424.02
2468.39
2165.74
5676.78
3728.74
2620.69
2211.06
4858.21
3379.03
2443.47
2154.51
5456.23
3599.67
2563.17
2178.59
4778.49
3320.48
2413.12
2151.85
4990.53
3363.11
2439.99
2164.8
4599.95
3222.47
2366.45
2061.32
4338.07
3124.37
2293.19
1998.63
3682.36
3031.31
2042.25
572.683
1689.24
2778.85
1898.8
635.455
3720.74
3029.9
2042.3
592.779
1857.03
2782.65
1895.93
637.799
3789.59
3009.86
2019.29
564.992
2089.81
2770.5
1871.09
622.955
3751
2957.32
2022.62
594.756
2118.47
2724.66
1850.65
622.579
3479.19
2849.99
2015.55
673.368
1595.4
2612.81
1813.32
618.439
2950.38
2612.84
1898.57
616.465
565.454
2328.8
1722.94
600.035
3140.2
2714.3
1953.47
633.853
753.244
2451.27
1762.42
605.386
2813.78
2531.46
1829.61
547.476
400.943
2237.35
1667.94
574.365
2764.39
2476.88
1777.53
521.086
463.195
2178.39
1623.88
556.906
2076.76
1534.45
1031.8
590.971
192.179
2029.55
1522.01
1028.3
589.804
191.875
2075.59
1528.52
1027.62
588.723
191.479
2022.06
1512.86
1022.32
586.659
190.907
2091.18
1523.52
1022.7
585.941
190.605
2015.11
1502.29
1015.23
582.94
189.77
1975.18
1481.02
1003.88
577.412
188.125
1924.19
1451.53
987.685
569.459
185.752
2062.78
1506.92
1013.32
581.277
189.206
2179.82
1516.75
1011.82
579.634
188.641
2125.57
1524.42
1020.06
584.18
190.03
2231.86
1529.83
1017.69
582.353
189.429
2012.73
1486.3
1002.82
576.245
187.72
2149.45
1498.82
1002.41
575.122
187.312
1969.33
1459.49
987.901
568.897
185.532
2114.02
1475.65
989.47
568.778
185.437
2168.64
1552.63
1035.96
592.188
192.478
2319.89
1569
1038.86
592.957
192.663
2173.08
1548.96
1033.03
590.564
191.965
2321.33
1565.73
1036.54
591.702
192.27
2190.9
1544.01
1028.38
587.986
191.153
2328.42
1559.35
1032.1
589.357
191.538
2239
1542.17
1024.22
585.538
190.372
2339.06
1549.95
1026.6
586.533
190.651
2290.09
1538.66
1021.35
584.012
189.901
11653.6
15348.7
11715.3
15358
11848.6
15359.6
11654.3
15173
10892.9
14426.4
10098.4
11305.6
10130.2
11759.8
10159.9
11254.5
10351.6
11430.1
8980.52
1495.64
314.656
69.9816
12.3336
9669.19
2737.32
659.735
148.733
26.2127
8943.37
1471.21
308.345
68.4461
12.0421
9627.71
2703.63
651.005
146.33
25.5939
8829.68
1445.06
301.961
66.9401
11.7705
9518.07
2661.48
640.044
143.712
25.1358
8580.41
1385.75
288.355
63.926
11.2481
9277.24
2582.04
620.643
139.416
24.3898
8092.01
1278.1
265.748
59.1341
10.4331
8776.84
2445.77
589.947
132.966
23.3072
7295.09
1197.33
256.565
57.9377
10.2933
7449.59
2150.53
529.892
121.146
21.42
7522.15
1213.63
257.029
57.705
10.2218
7831.33
2258.68
552.355
125.392
22.0644
7218.88
1197.11
257.802
58.3589
10.3776
7335.61
2106.55
519.521
119.131
21.1194
7212.92
1191.8
256.568
58.1179
10.327
7370.26
2102.57
517.394
118.944
21.0539
33103.6
47253.7
45430.5
31209.1
24378.1
29054.5
23563.8
28940.8
27305.4
43346.4
28951.7
44387
204.066
220.476
256.994
316.274
402.881
522.304
217.865
234.768
272.239
332.502
418.763
534.9
193.689
188.582
211.069
207.679
249.88
250.507
313.394
321.897
405.128
423.956
525.427
547.009
681.215
887.016
1158.01
1521.97
1944.21
2248.33
684.903
871.771
1097.55
1353.41
1599.7
1759.8
546.329
801.335
1006.67
1150.38
1224.33
590.017
864.88
1085.87
1240.33
1319.73
687.263
1006.32
1262.11
1440.47
1532.02
844.85
1234.93
1546.29
1762.68
1873.54
1074.32
1566.16
1956.29
2226.24
2364.28
1388.87
2016.28
2509.47
2849.1
3022.65
583.092
854.89
1073.55
1226.46
1305.09
628.031
920.104
1154.64
1318.4
1402.53
727.655
1064.65
1334.36
1522.19
1618.54
887.544
1295.94
1621.19
1846.95
1962.56
1115.58
1624.03
2026.29
2304.4
2446.68
1420.75
2059.32
2560.11
2905.07
3081.71
518.602
760.832
956.031
1092.73
1163.08
504.933
740.837
931.014
1064.23
1132.8
564.933
828.343
1040.3
1188.54
1264.76
555.87
815.12
1023.81
1169.79
1244.85
668.377
979.015
1228.29
1402.21
1491.51
670.062
981.538
1231.54
1405.99
1495.55
837.389
1224.56
1533.92
1749.01
1859.22
860.073
1257.68
1575.34
1796.13
1909.21
1080.71
1576.32
1969.8
2242.07
2381.2
1130.78
1648.99
2060.05
2344.17
2489.2
1398.04
2031.29
2529.5
2872.18
3046.87
1455.44
2114.41
2632.19
2987.55
3168.28
1802.95
2599.75
3218.17
3642.56
3860.41
2329.2
3322.09
4079.9
4601.84
4875.28
3000.12
4202.95
5101.72
5734.66
6086.19
3854.16
5244.17
6258.87
7021
7506.01
4769.08
6235.98
7288.48
8175.72
8870.46
5399.88
6876.69
7931.49
8904.88
9769.8
1811.13
2608.61
3227.03
3652.27
3871.33
2290.25
3268.91
4017.53
4534.1
4804.72
2856.38
4025.67
4906.17
5522.19
5856.86
3478.17
4821.93
5817.85
6535.47
6951.05
4054.47
5522.3
6596.65
7403.76
7910.6
4420.91
5955.02
7072.2
7938.22
8512.06
206.69
228.462
270.9
336.968
431.5
560.099
220.569
242.989
286.42
353.255
446.673
570.115
196.324
191.304
219.165
216.095
264.123
265.456
334.943
344.885
435.39
456.101
567.031
592.488
727.824
938.513
1207.44
1559.26
1964.1
2253.98
726.245
915.983
1139.46
1386.94
1620.56
1766.75
553.367
811.725
1019.84
1165.55
1240.53
611.529
896.75
1126.32
1286.94
1369.57
724.762
1061.98
1332.9
1522.19
1619.48
900.768
1318.21
1652.6
1885.75
2005.48
1151.93
1682.42
2105.55
2399.84
2550.87
1491.94
2172.05
2711.19
3085.31
3277.48
590.362
865.654
1087.22
1242.22
1321.94
650.198
953.006
1196.48
1366.69
1454.21
765.936
1121.58
1406.91
1606.08
1708.41
943.689
1379.72
1728.36
1971.21
2095.9
1191.33
1737.69
2172.45
2474.61
2629.75
1516.81
2204.55
2748.29
3125.56
3319.66
525.677
771.278
969.258
1107.94
1179.33
512.242
751.625
944.665
1079.92
1149.55
586.721
860.582
1081.17
1235.59
1315.05
578.51
848.599
1066.22
1218.6
1297.01
706.756
1035.92
1300.58
1485.59
1580.7
710.334
1041.23
1307.36
1493.41
1589.06
895.588
1311.18
1644.39
1876.83
1996.19
922.178
1350.15
1693.33
1932.71
2055.6
1162.79
1699.33
2127.77
2425.84
2578.73
1218.12
1780.22
2229.03
2541.16
2701.19
1511.6
2203.14
2752.28
3133.27
3328.68
1579.84
2303.28
2877.85
3276.22
3480.29
1931.22
2796.31
3476.08
3947.68
4191.46
2473.09
3547.44
4381.46
4963.98
5271.54
3142.13
4433.72
5420.11
6125.89
6520.09
3967.64
5440.68
6542.57
7381.67
7915.24
4836.56
6363.56
7481.47
8430.12
9168.12
5421.35
6920.23
7999.38
8996.57
9879.33
1924.72
2782.26
3454.45
3920.98
4162.68
2413.03
3459.63
4270.96
4836.95
5135.21
2974.7
4213.64
5160.92
5831.24
6197.13
3575.16
4980.74
6038.34
6808.01
7254.69
4116.69
5627.59
6746.25
7592.03
8123.1
4442.11
5991.69
7125.05
8005.5
8588.62
4899.74
3251.74
924.616
717.572
820.839
714.906
867.334
4503.73
4336.23
2827.15
3574.22
1752.48
2314.49
1478.21
1637.98
1385.93
4199.85
2383.25
1592.34
1418.73
1766.57
1540.98
1216.1
1169.74
1125.25
992.172
1317.57
1192.97
4484.45
2762.3
3134.78
2048
1715.97
2363.45
1249.27
1002.5
1371.9
9994.96
10144.5
10406.3
11744.1
19328.3
7219.38
8320.58
9146.88
10314.2
12034.3
2442.34
3514.7
4350.41
4932.39
5237.3
1907.18
2767.79
3446.1
3916.05
4157.9
2181.57
3165.18
3938.67
4472.64
4746.37
1902.5
2765.66
3447.26
3918.74
4160.41
2300.16
3327.49
4132.34
4689.03
4976.08
9945.05
11100.3
11778.7
13174.8
20571.6
9785.98
11153.3
12031
13294.9
15507.5
6746.44
8529.87
9802.69
10973.9
12081.1
8559.23
10354
11346.7
12377.3
13282.6
4484.95
6186.03
7437.78
8330.9
8842.36
5734.27
7584.45
8894.44
9892.39
10544
3844.89
5415.24
6594.82
7413.2
7851.92
4232.89
5909.23
7151.46
8015.52
8485.21
3623.66
5138.32
6284.3
7073.13
7487.76
9227.73
10312.2
11006.3
12407.5
19696.7
5798.52
7519.87
8778.96
9898.47
10911
4103.71
5714.15
6918.57
7783.19
8281.37
3678.84
5165.85
6292.57
7099.44
7557.29
4479.27
6115.75
7335.19
8269.25
8888.7
3955.7
5484.65
6636.94
7493.79
8015.69
3168.42
4478.3
5481.54
6199.58
6600.73
3068.71
4374.86
5379.74
6083.93
6460.9
2969.62
4265.54
5266.71
5955.84
6312.43
2626.02
3787.81
4692.48
5316.5
5638.46
3447.72
4896.35
5999.81
6766.72
7175.4
3132.49
4470.4
5498.6
6214.55
6594.4
9455.63
10007.6
10430
11792.2
19221.3
6362.82
7701.17
8691.28
9830.69
11229.6
7402.07
8926.23
9881.26
11220
13762.8
5034.56
6614.78
7782.25
8799.6
9633.32
4339.92
5906.64
7078.6
7999.51
8621.75
5722.29
7383.38
8610.86
9754.52
10835.9
3257.69
4608.96
5643.09
6379.56
6787.77
2647.39
3807.67
4709.41
5334.98
5661.35
3559.37
5002.5
6099.51
6888.57
7337.41
9379.63
8851.4
7925.6
6620.2
4824.69
1892.02
18763.7
19106.9
21671.4
22360.9
18391.7
19501.2
20719.6
20070.8
15404.8
19004.8
16060.5
19561.5
18426
16610.5
25758.6
18042.6
18246.5
20457.1
20905.6
17409.3
18501.2
19812.1
19364.8
15338.8
22944.9
15908.1
22824.8
18600.4
20182.4
27631.8
17233.3
17309.4
18911.5
19116.4
16678.1
18168
18597.4
18644.3
17587.6
20299.9
18347.7
20309.8
20195.2
22212.7
24876
16466.9
16562.1
17511.9
17558.9
16245.9
17970.5
17368.2
17688.1
16480.7
17750.5
17213.5
17303.7
18463.8
19975.2
21501.5
15664.1
15792.8
16558.7
16521.9
15944.4
17821.8
16561.2
17065.4
15603.2
14653.7
16362.6
14075.1
16979.6
16841.5
17768
15308.9
15480.5
15926.7
15857.6
15562.3
17117.6
16043.2
16468.9
14897.5
12603.7
15464.4
12354.5
15802.5
14811.8
16095
21579.9
20749.5
22628.1
23769.4
20001.5
19980
21082.5
20131.2
19071
14184.8
19028.4
14260.1
16906.6
15337
18482.8
20366.9
19767.8
20917.2
21665.4
19316.4
19459.1
19892.9
19096.2
17686.8
13743.2
17672.4
13837.9
15509.3
13835.9
17123.9
18774.3
18422
18866.7
19227.6
18164.3
18322
18357.8
17880.3
16803.1
13480.5
16604.4
13220.4
14903.5
12671
16817.5
17269.1
17070.4
17292.3
17451.7
16903.3
17002.4
17118.6
16743.1
15861.1
13890.1
15758.4
13572.9
14307.1
12734.4
17118.3
16487.1
16357
16418.3
16491.1
16060.8
16155
16382.8
16148.4
15642.1
14931.6
15576.5
14781.5
14393.7
13234.4
17671.9
15927.9
15807.6
15913.3
15957.2
15565.6
15841.9
15855
15759.7
15543
15586.5
15537.2
15503.7
14483.5
13752.4
18361
11543.5
6550.42
19014.8
12478.6
20778.7
15356
32609.5
40408.2
42886.7
52454.1
27754.9
24077.1
17606.2
13977.3
8569.99
5703.87
19693.8
20129.5
16964.9
19923.9
26614.1
23740.6
30711.2
24835.8
8113.06
5844.83
4498.16
3355.28
9883.06
8060.38
6012.14
4874.52
18008.9
18692.8
18398.3
15528.2
14326.5
11204
11244.9
12770.6
18119.9
18031.9
38019.1
39299.6
26933.3
27741.9
15369.6
12960.6
16739.6
11936.2
7786
7994.28
6259.92
8754.44
3245.12
3913.48
8740.74
11951.1
5216.71
6080.4
9688.1
16232.4
6717.27
10981.7
2560.47
6530.03
2129.96
4872.4
17747.5
21919.8
18310.6
21826.5
21715
21927.1
22112.1
21643.6
15580
21106.2
16015.7
20847.8
18033.6
21675
18025.1
21622.8
22292.3
21364
22213.8
21158.5
14392.9
21193.3
13893
21267.6
17558.2
20589.7
22171.6
30905.5
18590.3
23749.6
21968.4
33534
16650.6
18135.3
22262.2
29728.9
16475.2
16974.8
22502.9
29511.3
5145.8
6748.78
13152.4
23024.6
6503.14
7385.4
17209.1
26472.9
8112.91
8192.3
21846.1
29617.5
24424.7
26230.7
20668.3
19964.2
28879.4
26414.4
24947.6
21101.5
18298.2
32966.9
24069.7
23762
21174.1
21042.3
37738.4
1986.62
2400.59
4243.27
9732.23
2886.89
3261.31
6012.2
11057.6
4310.96
3648.04
8185.86
12722
26172.9
25900.3
23607
23263.2
20225
18562.6
15317
13566.4
10789.3
14959.6
23821.2
23039.3
24007
23652.2
20865.9
19580.1
17262.3
15485.3
11510
15132
23767.2
26772.8
23693.7
27422.7
22979
23810.3
22423.8
23964.3
21603.7
21982.4
21429.5
21348.2
23504
27534.3
23392.7
27504.4
21763.2
24251.7
21579.4
24190.9
21686.6
21932.8
21678.6
21917.4
18177
17283.1
11717
13022.6
18048.8
16823.2
11536
13056.2
18433.3
17235.6
11974.4
13083.6
18508.2
17062.4
12347.5
13095.3
1635.22
1111.48
773.186
961.125
663.928
618.888
2309.74
1392.33
1058.29
1914.62
1545.51
1336.62
2688.15
2255.66
2270.43
3361.08
2762.11
2486.99
24811.7
22471.4
20821.9
22826
21219.2
19917.1
16376.7
15244.2
14623.8
11113.8
9675.12
9067.3
5119.85
3796.4
3225
22425.8
20825.6
19442.7
23009
21030.6
19476.1
17037.7
14690.4
13354.9
11111.7
8929.85
8040.55
5448.16
3780.44
3041.61
27008.9
26447.5
29401.3
26401.7
30265.2
26412.7
36516.6
27800.2
20772.2
21244.3
20474.1
19148.7
23472.4
22136.2
23035.1
19704.7
22831.5
22679.4
21048.8
22529.5
28065.8
25183.9
27796.7
28215.7
30173.7
31197.5
23152.4
24021.3
20739.3
20128.9
25225.3
25874.8
16462.9
8850.46
15373.9
9803.37
16680.4
8920.51
15313
9729.85
16468.8
8970.06
15282.6
10141.7
14864
10613
15044
10527.6
21175.3
18135.5
21041.6
18100.1
23366.2
21123.9
23585.6
20904.3
20617.7
15135.2
21521.2
14945.3
21498.2
18007.9
21764.4
17801.9
24180.7
20725.5
24190.9
20456.6
20410.3
15175.7
20348
15081.4
13538.8
9010.06
11993.6
7645.24
12626.1
8071.58
11532.5
7141.35
13867
9576.52
12183.8
7879.24
13883.4
9925.82
12152.1
7935.91
2557.46
1317.69
4662.81
2433.72
2749.73
1651.97
4989.77
2968.34
3397.01
2518.17
5539.12
3937.69
13189.5
20375.5
9510.54
9121.06
6433.55
19975.1
13954.4
8201.89
8238.48
5284.76
20746.9
16375.9
13046
10158.1
6255.19
688.17
516.835
1329.63
960.791
1023.49
709.62
1970.66
1559.18
1805.25
1423.23
2935.13
2386.81
20318.5
19749.9
13827.6
13335.9
9019.68
9170.76
7596.22
7059.88
4512.63
3709.39
19038.1
17394.1
14814.6
13097.6
11573
10376.3
8807.75
8048.66
5530.94
5546.34
15155.3
12367.4
15230.7
12049.1
18152.5
15146.9
18090.8
14905.6
12802.2
10490
12432.8
10546.6
15223.7
11849.2
15127
11827.2
18010.1
15171.6
17832.7
15121.4
13025
10315.7
13001.6
10452.3
9988.15
8555.79
6548.07
7004.35
9633.18
8383.97
6242.89
6647.41
10410.2
8719.4
6714.62
7421.09
10660.3
8719.83
6982.68
7529.75
1836.84
1623.63
1348.16
8085.83
4312.8
3524.5
1809.97
1794.59
1598.51
8801.32
5145.22
4369.16
2482.96
2796.42
2873.86
9707.75
6438.3
5746.95
18696.1
17549
16702.1
12895.4
12564.1
12339.5
9483.61
9416.31
9430.64
8212.34
7978.28
7799.22
11030.4
7948.87
7200
15930
14752.3
13943.4
11973.1
11205.5
10759.8
10051.1
9381.98
8989.68
9758.14
8700.07
8073.22
13403.6
8968.76
8076.94
4859.91
3073.11
2216.36
1902.19
5490.75
3349.48
2342.39
1947.45
4880.93
3067.08
2220.25
1916.86
5612.66
3420.43
2388.71
1970.13
4860.71
3027.98
2219.19
1905.47
5723.99
3461.07
2436.25
1965.99
6172.37
3673.45
2497.36
2049.31
6362.07
3820.69
2581.12
2129.76
5189.43
3227.43
2306.42
1927.63
4180.69
2796.4
2100.27
1852.37
4524.33
2906.14
2143.14
1790.56
3828.24
2626.68
2012.64
1776.16
5634.94
3470.03
2422.74
2017.91
4390.96
2920.56
2156.56
1912.8
5886.44
3634.79
2505.13
2082.17
4482.05
3009.19
2203.13
1946.78
3616.01
2612.98
2007.86
1802.29
2246.57
2056.73
1751.97
1693.07
3622.53
2596.31
2002.36
1797.59
2355.32
2085.86
1761.82
1703.31
3707.49
2590.06
2008.96
1804.45
2688.46
2183.61
1800.59
1745.63
3647.63
2515.34
1965.58
1837.9
2972.95
2250.03
1848.67
1733.17
3355.65
2428.75
1912.8
1748.75
840.24
1602.56
1377.34
414.923
-765.893
1346.27
1221.24
442.122
1087.38
1684.17
1408.58
438.357
-455.368
1438.78
1249.61
451.94
1550.08
1827.56
1458.25
436.944
72.4553
1591.75
1291.12
457.302
2113.74
1997.09
1528.7
475.056
629.833
1760.45
1350.09
477.232
2479.94
2150.6
1615.7
555.758
766.515
1886.16
1404.69
494.594
2645.4
2316.77
1655.63
527.174
417.419
2014.4
1505.16
524.912
2580.51
2243.12
1625.28
527.698
383.897
1954.68
1454.57
506.935
2662.14
2369.07
1681.64
490.507
349.804
2066.28
1539.95
528.25
2720.56
2424.97
1728.47
501.724
454.213
2124.75
1582.32
541.658
1757.74
1342.9
925.122
538.012
176.237
1737.79
1340.01
925.722
538.682
176.47
1780.71
1354.24
930.609
540.555
176.978
1765.77
1354.51
933.093
542.184
177.505
1821.93
1369.61
937.442
543.649
177.875
1798.76
1370.97
941.406
546.15
178.684
1826.28
1389.84
952.413
551.72
180.377
1869.35
1417.1
968.147
559.683
182.799
1864.13
1388.13
947.3
548.482
179.33
1990.57
1410.9
953.768
550.889
179.99
1873.1
1383.37
942.536
545.79
178.479
1987.87
1402.71
948.495
548.161
179.145
1881.4
1404.73
957.167
553.51
180.867
2026.75
1427.02
962.751
555.431
181.38
1923.75
1431.17
971.97
560.941
183.128
2071.75
1450.6
975.571
561.853
183.342
1806.95
1349.79
925.132
537.462
176.027
1900.87
1357.46
925.368
537.146
175.905
1828.66
1358.76
929.219
539.309
176.559
1918.32
1364.23
928.487
538.564
176.315
1870
1372.98
935.378
542.082
177.354
1953.73
1375.86
933.798
540.998
177.014
1937.73
1389.36
941.618
544.802
178.128
1996.23
1388.36
939.863
543.818
177.817
2002.11
1397.8
945.162
546.426
178.601
9640.48
14834.1
10167.6
15184.9
10865.7
15563.5
11344.1
15803.2
10895
15200.4
10117.9
11394.2
10120.4
11926.8
10180.4
11305.3
10360.3
11447
8566.49
1457.96
310.778
69.6193
12.318
9521.72
2707.32
656.531
148.791
26.3146
8664.65
1456.95
308.712
68.8981
12.1563
9621.19
2701.56
652.788
147.243
25.8181
8752.08
1450.48
304.723
67.7116
11.9216
9692.55
2692.08
646.967
145.386
25.4539
8680.28
1407.54
293.026
64.9448
11.4267
9586.62
2637.62
631.53
141.672
24.7771
8240.6
1302.5
270.566
60.1467
10.6061
9087.57
2504.69
601.624