/*--------------------------------*- C++ -*----------------------------------*\
| =========                 |                                                 |
| \\      /  F ield         | OpenFOAM: The Open Source CFD Toolbox           |
|  \\    /   O peration     | Version:  2306                                  |
|   \\  /    A nd           | Website:  www.openfoam.com                      |
|    \\/     M anipulation  |                                                 |
\*---------------------------------------------------------------------------*/
FoamFile
{
    version     2.0;
    format      ascii;
    arch        "LSB;label=32;scalar=64";
    class       volVectorField;
    location    "2";
    object      flux;
}
// * * * * * * * * * * * * * * * * * * * * * * * * * * * * * * * * * * * * * //

dimensions      [0 1 -1 1 0 0 0];

internalField   nonuniform List<vector> 
2658
(
(1.00567e-06 9.8519e-07 -8.75531e-06)
(1.46922e-06 5.70035e-07 -8.45038e-06)
(4.74287e-07 1.77435e-07 -6.24797e-06)
(-3.78629e-08 -2.12729e-08 -5.67833e-06)
(-2.06622e-06 -2.03191e-06 -7.05827e-06)
(-1.74667e-06 2.4958e-06 -7.22831e-06)
(1.80987e-06 -2.11166e-06 -6.50445e-06)
(1.78678e-06 1.77816e-06 -6.27506e-06)
(-3.29296e-08 -2.95396e-08 -5.67354e-06)
(2.47769e-06 -1.7685e-06 -7.20687e-06)
(-1.67992e-06 5.46732e-07 -7.20533e-06)
(-1.22064e-06 -4.055e-06 -5.73881e-06)
(8.13888e-07 2.46792e-06 -7.69133e-06)
(9.6941e-07 2.51003e-06 -7.19879e-06)
(7.41715e-07 2.03222e-06 -7.44009e-06)
(-6.64721e-08 2.08714e-06 -7.64996e-06)
(-3.33369e-08 2.28766e-06 -7.35872e-06)
(-1.0731e-08 2.05476e-06 -7.63257e-06)
(-8.14838e-07 2.08023e-06 -7.43237e-06)
(-1.05486e-06 2.47887e-06 -7.10427e-06)
(-1.00217e-06 2.38914e-06 -7.56464e-06)
(-2.33e-06 2.08249e-06 -6.81366e-06)
(-2.78757e-06 6.88326e-07 -7.78822e-06)
(2.0943e-06 -4.69994e-07 -5.94547e-06)
(-8.85403e-07 7.68846e-07 -9.31283e-06)
(-1.10121e-06 2.28573e-06 -7.5502e-06)
(-2.37066e-06 -4.98777e-07 -6.75178e-06)
(-3.40421e-07 1.36717e-07 -7.95418e-06)
(-1.73607e-06 1.86451e-06 -8.12514e-06)
(-1.86663e-06 -9.42545e-11 -6.68766e-06)
(-1.73605e-06 -1.86454e-06 -8.12506e-06)
(-2.37071e-06 4.98788e-07 -6.75179e-06)
(-1.10127e-06 -2.28585e-06 -7.55014e-06)
(-2.78773e-06 -6.88311e-07 -7.78814e-06)
(-8.85353e-07 -7.68818e-07 -9.31283e-06)
(2.09428e-06 4.70053e-07 -5.94538e-06)
(-1.13187e-06 -1.36547e-07 -7.63013e-06)
(5.29919e-07 1.9539e-07 -1.07043e-05)
(-2.3296e-06 -2.08313e-06 -6.81358e-06)
(-1.00246e-06 -2.38929e-06 -7.56483e-06)
(-1.05484e-06 -2.47905e-06 -7.10437e-06)
(-8.14793e-07 -2.08031e-06 -7.43239e-06)
(-1.08879e-08 -2.05461e-06 -7.63249e-06)
(7.15918e-08 1.02819e-06 -1.10484e-05)
(-1.39929e-06 -1.55594e-07 -6.98404e-06)
(1.30802e-06 -7.461e-08 -6.9062e-06)
(-1.67989e-06 -5.46763e-07 -7.20536e-06)
(-6.3253e-08 1.07032e-06 -1.10388e-05)
(-6.67061e-08 -2.08752e-06 -7.65007e-06)
(7.41736e-07 -2.03225e-06 -7.44015e-06)
(9.69461e-07 -2.50985e-06 -7.19871e-06)
(8.13868e-07 -2.46793e-06 -7.6914e-06)
(2.20863e-06 -2.18883e-06 -6.88543e-06)
(-4.69331e-07 4.53418e-07 -1.10929e-05)
(2.48088e-06 -8.16209e-07 -7.69817e-06)
(2.04014e-06 -7.67707e-07 -7.45079e-06)
(-1.08798e-06 5.33148e-08 -1.10396e-05)
(9.67275e-08 -1.32773e-06 -6.93827e-06)
(-3.84932e-06 -1.31052e-11 -5.99201e-06)
(2.06124e-06 -2.02081e-08 -7.64042e-06)
(-1.08792e-06 -5.32817e-08 -1.10397e-05)
(2.04018e-06 7.67674e-07 -7.45088e-06)
(2.48087e-06 8.16258e-07 -7.69823e-06)
(-4.69256e-07 -4.53479e-07 -1.1093e-05)
(5.20047e-07 5.27405e-07 -7.13206e-06)
(-4.06387e-06 -1.18347e-06 -5.7503e-06)
(5.12328e-07 -1.66639e-06 -7.18639e-06)
(-3.96634e-08 -7.52693e-08 -6.46027e-06)
(-1.30858e-06 -2.76421e-06 -7.15033e-06)
(-1.30873e-06 2.76422e-06 -7.15018e-06)
(-5.46355e-08 2.61661e-11 -5.76531e-06)
(1.30135e-06 2.33008e-06 -6.38074e-06)
(-8.71664e-08 -2.566e-08 -4.92608e-06)
(-1.40184e-06 1.90946e-06 -5.63781e-06)
(3.09986e-08 -5.09994e-09 -4.31233e-06)
(-1.47688e-06 -1.44717e-06 -5.57626e-06)
(1.89182e-06 -1.43423e-06 -5.62212e-06)
(-1.21496e-08 3.99849e-08 -4.30655e-06)
(-1.6172e-06 1.37943e-06 -4.89035e-06)
(1.80644e-06 9.05762e-07 -4.7959e-06)
(-2.17386e-06 -9.60315e-07 -5.62208e-06)
(-4.23513e-08 -7.03158e-08 -4.9241e-06)
(2.33816e-06 1.24244e-06 -6.34851e-06)
(-2.12122e-06 1.86774e-06 -6.52521e-06)
(-5.47502e-08 -4.00454e-08 -5.34662e-06)
(-3.25938e-08 -2.25494e-08 -4.04145e-06)
(-4.60919e-09 1.61479e-09 -2.95114e-06)
(6.76215e-09 1.08236e-08 -2.06988e-06)
(9.57558e-09 1.27577e-08 -1.39683e-06)
(9.0951e-09 1.22355e-08 -9.14744e-07)
(6.98541e-09 9.69374e-09 -5.9847e-07)
(-1.53799e-08 -2.79877e-08 -5.53073e-07)
(1.38428e-08 1.46262e-08 -4.66998e-07)
(-9.55504e-08 7.39284e-08 -3.87751e-07)
(6.41291e-08 -3.20182e-08 -4.15685e-07)
(-1.17651e-08 -7.82098e-08 -4.49583e-07)
(-7.94999e-08 -1.32486e-08 -4.07861e-07)
(4.02409e-10 -8.12441e-08 -6.15604e-07)
(7.99423e-08 -1.43683e-08 -4.08143e-07)
(-6.52413e-08 -3.05208e-08 -4.13857e-07)
(3.52267e-08 -8.89689e-08 -6.18984e-07)
(9.0428e-08 -2.35856e-08 -4.19055e-07)
(7.99007e-08 -7.87857e-08 -4.53991e-07)
(6.42474e-08 -4.1503e-08 -5.03701e-07)
(6.69165e-08 -3.47056e-08 -4.2619e-07)
(-1.36846e-07 8.03491e-08 -4.64668e-07)
(-2.60813e-08 -2.87825e-08 -3.32974e-07)
(-1.86502e-08 -8.86829e-10 -5.69524e-07)
(-6.97856e-09 1.08067e-08 -3.62086e-07)
(3.7328e-08 -8.37441e-08 -5.44946e-07)
(8.01406e-08 2.77977e-08 -5.05107e-07)
(3.18026e-08 -3.78229e-08 -4.13e-07)
(6.35511e-08 -1.44237e-12 -5.66471e-07)
(3.17981e-08 3.78229e-08 -4.12985e-07)
(8.01413e-08 -2.78031e-08 -5.05109e-07)
(3.73253e-08 8.3742e-08 -5.44947e-07)
(6.69209e-08 3.47078e-08 -4.26201e-07)
(-1.36844e-07 -8.03513e-08 -4.64669e-07)
(7.99071e-08 7.87839e-08 -4.53994e-07)
(6.42551e-08 4.15027e-08 -5.03706e-07)
(9.04274e-08 2.3578e-08 -4.19048e-07)
(3.52202e-08 8.89678e-08 -6.18955e-07)
(-6.5245e-08 3.05198e-08 -4.13854e-07)
(7.99439e-08 1.43679e-08 -4.08142e-07)
(-1.27495e-07 -6.33745e-08 -4.03944e-07)
(1.27769e-07 -6.13484e-08 -4.05891e-07)
(-9.55474e-08 -7.39323e-08 -3.87738e-07)
(-1.17634e-08 7.82165e-08 -4.49599e-07)
(-7.95008e-08 1.32531e-08 -4.07861e-07)
(6.41259e-08 3.20236e-08 -4.15697e-07)
(-3.59317e-08 8.72984e-08 -6.17056e-07)
(-8.82457e-08 2.20986e-08 -4.1428e-07)
(-6.01085e-08 4.16451e-08 -4.96399e-07)
(-5.46475e-08 3.81063e-08 -4.11271e-07)
(-3.50281e-08 7.80913e-08 -5.38896e-07)
(3.86283e-09 -3.5492e-08 -3.8269e-07)
(-1.64487e-08 2.69502e-09 -3.71223e-07)
(-9.73855e-08 4.09323e-09 -4.41348e-07)
(7.83317e-08 -8.17481e-08 -3.80529e-07)
(7.82905e-08 8.17668e-08 -3.80541e-07)
(-1.64431e-08 -2.70269e-09 -3.7121e-07)
(3.84377e-09 3.54951e-08 -3.8269e-07)
(3.65954e-08 -2.10329e-08 -4.22416e-07)
(-3.85392e-08 -2.18819e-08 -4.47058e-07)
(-4.4311e-08 -2.00105e-10 -5.61798e-07)
(-3.84488e-08 2.18105e-08 -4.46849e-07)
(2.09884e-08 3.88494e-11 -5.22522e-07)
(2.69281e-08 4.45867e-11 -5.0616e-07)
(-7.75791e-08 -4.35566e-08 -3.58834e-07)
(-8.07226e-08 4.29298e-08 -3.60624e-07)
(-6.73598e-08 9.64318e-11 -3.4098e-07)
(-8.53696e-08 3.44353e-09 -4.83734e-07)
(-8.3609e-08 2.30541e-08 -4.75074e-07)
(-8.653e-08 -2.59482e-08 -3.03246e-07)
(-6.73438e-08 1.03457e-07 -4.0955e-07)
(-1.19209e-07 2.39075e-08 -3.8728e-07)
(-1.08174e-07 9.70655e-08 -3.51235e-07)
(-4.57827e-08 1.15002e-07 -3.85889e-07)
(-5.24622e-08 1.2192e-07 -3.6277e-07)
(-3.82763e-08 9.64368e-08 -3.78121e-07)
(3.78075e-10 9.7093e-08 -3.89818e-07)
(4.36133e-11 1.11624e-07 -3.7149e-07)
(-6.81628e-10 9.70567e-08 -3.90072e-07)
(3.66673e-08 9.80776e-08 -3.78119e-07)
(5.21237e-08 1.24624e-07 -3.60995e-07)
(4.65461e-08 1.16107e-07 -3.84118e-07)
(1.10111e-07 1.01397e-07 -3.50673e-07)
(1.37709e-07 3.26397e-08 -4.02146e-07)
(-3.18242e-08 -6.52819e-09 -6.041e-07)
(9.12104e-08 2.2055e-08 -5.21541e-07)
(-2.36488e-07 -1.52537e-07 -7.00389e-07)
(2.8115e-07 2.08135e-07 -8.89319e-07)
(-3.44579e-07 -2.38774e-07 -1.10752e-06)
(4.33258e-07 3.12147e-07 -1.37205e-06)
(-5.26245e-07 -3.77509e-07 -1.70539e-06)
(6.57929e-07 4.66919e-07 -2.0905e-06)
(-7.88587e-07 -5.77193e-07 -2.55264e-06)
(9.67027e-07 6.77444e-07 -3.07819e-06)
(-1.1412e-06 -8.47422e-07 -3.67896e-06)
(1.37134e-06 9.4409e-07 -4.35673e-06)
(-1.58752e-06 -1.19747e-06 -5.09149e-06)
(1.88445e-06 1.26169e-06 -5.91064e-06)
(-2.12167e-06 -1.6417e-06 -6.76907e-06)
(2.5719e-06 1.61984e-06 -7.48474e-06)
(-2.5717e-06 1.58498e-06 -7.24642e-06)
(2.73239e-06 1.32863e-06 -7.11283e-06)
(-2.82306e-06 1.26194e-06 -7.18132e-06)
(2.47763e-06 1.76859e-06 -7.20678e-06)
(-2.06633e-06 2.03186e-06 -7.05819e-06)
(-3.78716e-08 2.12516e-08 -5.67824e-06)
(-1.74656e-06 -2.49586e-06 -7.22839e-06)
(5.12237e-07 1.6664e-06 -7.18629e-06)
(-4.06379e-06 1.18337e-06 -5.7503e-06)
(5.20058e-07 -5.2742e-07 -7.13207e-06)
(-1.22066e-06 4.05495e-06 -5.73883e-06)
(4.85057e-07 -4.96891e-07 -9.35585e-06)
(-5.47578e-08 4.00128e-08 -5.34661e-06)
(-3.25963e-08 2.25291e-08 -4.04144e-06)
(-4.62982e-09 -1.62322e-09 -2.95113e-06)
(6.74317e-09 -1.08443e-08 -2.06987e-06)
(9.58456e-09 -1.2776e-08 -1.39682e-06)
(9.10291e-09 -1.22328e-08 -9.14729e-07)
(6.98761e-09 -9.69269e-09 -5.98461e-07)
(-1.53812e-08 2.7988e-08 -5.53077e-07)
(1.38458e-08 -1.46198e-08 -4.67e-07)
(6.85616e-10 8.04149e-10 -3.18416e-07)
(-3.45692e-08 -3.37946e-08 -3.44711e-07)
(-2.5916e-09 1.26345e-08 -5.52755e-07)
(4.81546e-08 -4.34657e-08 -3.54114e-07)
(4.8153e-08 4.34647e-08 -3.54115e-07)
(-3.45722e-08 3.37979e-08 -3.44715e-07)
(6.88677e-10 -8.07369e-10 -3.18415e-07)
(-2.58128e-09 -1.26383e-08 -5.52758e-07)
(1.55651e-08 -1.29473e-08 -3.29196e-07)
(1.27772e-07 6.13545e-08 -4.05884e-07)
(-1.27503e-07 6.3373e-08 -4.03945e-07)
(8.84599e-09 -7.90936e-08 -4.48734e-07)
(9.82218e-08 7.21155e-08 -3.90569e-07)
(-9.15654e-09 1.71933e-08 -4.68004e-07)
(3.0198e-09 -1.95268e-09 -3.20689e-07)
(-1.44599e-08 -1.16673e-08 -3.28313e-07)
(1.18662e-10 1.11176e-08 -4.77255e-07)
(1.31615e-09 -9.45319e-09 -5.517e-07)
(1.32674e-08 -9.61319e-09 -5.51591e-07)
(8.99895e-09 -4.50651e-13 -5.62051e-07)
(1.32671e-08 9.61118e-09 -5.51587e-07)
(-9.17091e-09 -1.72091e-08 -4.68002e-07)
(-2.6077e-08 2.87811e-08 -3.32969e-07)
(-6.30914e-08 -5.52899e-08 -3.59192e-07)
(-1.86464e-08 8.91304e-10 -5.69525e-07)
(1.39406e-08 -6.11e-08 -3.81944e-07)
(1.39415e-08 6.11063e-08 -3.81944e-07)
(-6.30938e-08 5.52923e-08 -3.5919e-07)
(-2.62547e-09 1.87385e-13 -4.9054e-07)
(3.95362e-08 -3.84572e-08 -3.4921e-07)
(-4.70289e-08 -4.22043e-08 -3.52024e-07)
(-4.70346e-08 4.22083e-08 -3.52019e-07)
(8.20167e-10 -1.20782e-08 -5.5221e-07)
(3.95421e-08 3.84595e-08 -3.49208e-07)
(-8.31231e-10 -5.74162e-09 -4.56697e-07)
(-8.4653e-09 -5.37927e-13 -4.30286e-07)
(-1.11382e-08 -3.02234e-08 -4.22155e-07)
(-1.03047e-08 -1.35555e-08 -3.91635e-07)
(4.61648e-08 3.95401e-08 -4.44356e-07)
(-1.04881e-08 -1.02918e-08 -4.24426e-07)
(-3.35462e-09 3.49732e-12 -4.41922e-07)
(-7.66637e-08 2.48468e-12 -6.12439e-07)
(8.92805e-09 -1.10817e-12 -5.08048e-07)
(-3.20625e-08 -6.03885e-08 -3.72816e-07)
(5.01408e-08 4.23795e-08 -5.25874e-07)
(5.19945e-08 1.16374e-07 -3.86793e-07)
(1.14569e-07 -2.85767e-08 -3.34778e-07)
(8.12456e-08 9.24379e-08 -4.08896e-07)
(-2.17973e-07 -1.26055e-07 -4.40885e-07)
(1.48528e-07 1.55645e-07 -6.58209e-07)
(-2.52386e-07 -1.74485e-07 -7.38548e-07)
(-2.52372e-07 1.74476e-07 -7.38546e-07)
(-6.2416e-09 2.33225e-08 -5.34615e-07)
(-2.67057e-07 2.12269e-07 -9.37029e-07)
(5.83085e-09 1.50536e-08 -6.56473e-07)
(3.10564e-07 -2.74692e-07 -1.15796e-06)
(-3.96801e-07 3.31628e-07 -1.4463e-06)
(4.52477e-09 8.66392e-09 -1.01037e-06)
(4.8073e-07 -4.17357e-07 -1.77781e-06)
(-5.99407e-07 5.09881e-07 -2.19358e-06)
(7.0693e-10 1.21283e-09 -1.5244e-06)
(7.21832e-07 -6.20329e-07 -2.66173e-06)
(-8.79892e-07 7.55981e-07 -3.21861e-06)
(-6.83504e-09 -1.19866e-08 -2.22011e-06)
(1.04379e-06 -8.88893e-07 -3.83998e-06)
(-1.23926e-06 1.07682e-06 -4.54032e-06)
(-2.11e-08 -4.27216e-08 -3.10786e-06)
(1.45916e-06 -1.22183e-06 -5.32161e-06)
(-1.66299e-06 1.4764e-06 -6.14949e-06)
(-4.07707e-08 -1.21165e-07 -4.17576e-06)
(2.0244e-06 -1.60899e-06 -7.0393e-06)
(-2.07753e-06 1.94773e-06 -8.1092e-06)
(-1.14168e-07 -3.39669e-07 -5.57359e-06)
(3.18139e-06 -2.1561e-06 -8.56471e-06)
(5.18092e-07 -1.00353e-06 -5.90499e-06)
(3.7173e-06 -2.24259e-06 -7.5533e-06)
(3.71729e-06 2.24262e-06 -7.55327e-06)
(-3.40362e-07 -1.36644e-07 -7.95406e-06)
(8.24172e-07 -6.19331e-07 -7.98076e-06)
(-2.99132e-07 1.16815e-06 -7.17344e-06)
(1.18501e-06 1.04191e-06 -6.65356e-06)
(6.05127e-08 -1.05524e-11 -9.56002e-06)
(-7.52396e-07 -7.38239e-07 -6.3662e-06)
(-7.52397e-07 7.38246e-07 -6.36625e-06)
(8.18614e-07 7.71383e-07 -6.41646e-06)
(-4.09049e-08 -6.26837e-12 -9.57421e-06)
(-9.65706e-07 -9.29368e-07 -6.4999e-06)
(-9.65693e-07 9.29368e-07 -6.49992e-06)
(2.58192e-07 3.76259e-07 -6.16908e-06)
(-3.0978e-07 -4.40868e-12 -9.43718e-06)
(-1.3648e-06 -2.42619e-06 -7.84788e-06)
(-1.36481e-06 2.42616e-06 -7.84785e-06)
(4.58667e-07 -1.51903e-06 -9.01177e-06)
(1.93415e-06 1.5419e-11 -1.27498e-05)
(4.58679e-07 1.51899e-06 -9.0118e-06)
(7.35337e-07 -1.18548e-06 -9.15628e-06)
(2.11314e-06 7.52577e-07 -1.26026e-05)
(8.90237e-07 1.73428e-06 -9.1235e-06)
(1.21267e-06 1.20914e-06 -1.06032e-05)
(1.57367e-06 1.56999e-06 -9.22686e-06)
(-2.35915e-06 -2.33947e-06 -9.01721e-06)
(-1.37254e-06 1.65761e-06 -7.46667e-06)
(1.34877e-06 2.18641e-07 -8.71712e-06)
(8.82742e-07 1.40228e-07 -1.01171e-05)
(-2.78169e-09 2.14879e-08 -9.44698e-06)
(2.58202e-07 -3.7627e-07 -6.16908e-06)
(-1.55383e-07 -1.37069e-07 -5.8889e-06)
(-3.99596e-07 -3.90309e-07 -9.30942e-06)
(1.6482e-06 -1.33983e-06 -7.49793e-06)
(-1.20474e-06 7.31742e-07 -9.15949e-06)
(7.46502e-07 2.08507e-06 -1.26029e-05)
(1.73436e-06 8.88019e-07 -9.12934e-06)
(9.91372e-07 9.9332e-07 -1.01309e-05)
(-5.25717e-07 -5.12271e-07 -9.22572e-06)
(-7.071e-07 1.20816e-11 -9.32379e-06)
(-5.25691e-07 5.123e-07 -9.22568e-06)
(-3.99616e-07 3.90311e-07 -9.30942e-06)
(-1.37251e-06 -1.65762e-06 -7.46666e-06)
(-2.35912e-06 2.33942e-06 -9.01725e-06)
(8.90253e-07 -1.73444e-06 -9.12325e-06)
(2.1132e-06 -7.52682e-07 -1.26027e-05)
(7.35389e-07 1.18545e-06 -9.1562e-06)
(1.34877e-06 -2.18683e-07 -8.71723e-06)
(8.82757e-07 -1.40238e-07 -1.01172e-05)
(9.915e-07 -9.93219e-07 -1.01309e-05)
(1.73422e-06 -8.88086e-07 -9.12971e-06)
(7.46382e-07 -2.08503e-06 -1.26028e-05)
(-1.20476e-06 -7.31779e-07 -9.15961e-06)
(1.64814e-06 1.33982e-06 -7.4979e-06)
(2.03849e-07 -1.35776e-06 -8.70888e-06)
(1.4958e-06 -5.02721e-07 -9.07152e-06)
(-3.79297e-08 -1.92998e-06 -1.27593e-05)
(-1.56149e-06 -4.43543e-07 -9.02407e-06)
(2.41382e-06 1.26252e-06 -7.87259e-06)
(-3.83338e-08 3.02029e-07 -9.45079e-06)
(-4.30213e-07 -2.91795e-07 -6.16638e-06)
(-2.48543e-06 1.37224e-06 -7.85605e-06)
(-4.50908e-08 -2.75886e-07 -8.96732e-06)
(-2.90998e-07 -3.34846e-07 -9.06759e-06)
(1.74479e-08 3.50595e-09 -5.67083e-06)
(1.43915e-08 -1.68558e-08 -4.30166e-06)
(7.03169e-09 -3.09474e-08 -3.14747e-06)
(4.0428e-09 -3.1702e-08 -2.21042e-06)
(2.3681e-09 -2.73249e-08 -1.49316e-06)
(8.50154e-10 -2.19865e-08 -9.78322e-07)
(-1.83144e-10 -1.65406e-08 -6.40108e-07)
(-5.67402e-09 -1.83839e-08 -6.30149e-07)
(2.39169e-07 -1.43568e-07 -6.82484e-07)
(-2.58764e-07 -1.22199e-07 -6.74049e-07)
(2.60643e-07 -1.10017e-07 -6.76096e-07)
(-2.35164e-07 -1.68128e-07 -6.80092e-07)
(2.72082e-07 2.35574e-07 -8.46087e-07)
(-3.55307e-07 -2.70118e-07 -1.05797e-06)
(4.28387e-07 3.57241e-07 -1.30362e-06)
(-5.43711e-07 -4.27879e-07 -1.6299e-06)
(6.56674e-07 5.34898e-07 -1.98809e-06)
(-8.11337e-07 -6.56466e-07 -2.44213e-06)
(9.71953e-07 7.75251e-07 -2.92981e-06)
(-1.16862e-06 -9.70016e-07 -3.5253e-06)
(1.38454e-06 1.07815e-06 -4.14831e-06)
(-1.61708e-06 -1.37944e-06 -4.89038e-06)
(1.89171e-06 1.43432e-06 -5.62201e-06)
(-2.12116e-06 -1.86778e-06 -6.52527e-06)
(-3.2907e-08 2.94743e-08 -5.67345e-06)
(1.78679e-06 -1.7781e-06 -6.27508e-06)
(1.80963e-06 2.11181e-06 -6.50437e-06)
(1.30159e-06 -2.33013e-06 -6.38089e-06)
(-1.01708e-06 2.13219e-06 -5.6134e-06)
(3.07312e-08 -8.57052e-12 -4.40147e-06)
(-1.01688e-06 -2.13217e-06 -5.61345e-06)
(9.62169e-07 1.79183e-06 -4.81426e-06)
(1.3295e-06 -1.611e-06 -4.88018e-06)
(1.31843e-06 1.3071e-06 -4.73803e-06)
(-1.07906e-06 -1.05696e-06 -4.07275e-06)
(-1.04864e-06 1.39725e-06 -4.15765e-06)
(3.98047e-08 1.06393e-08 -3.1379e-06)
(9.33876e-07 9.23341e-07 -3.43021e-06)
(7.10699e-09 4.66232e-08 -3.13297e-06)
(1.38469e-06 -1.07805e-06 -4.1484e-06)
(-2.24748e-08 -5.29297e-08 -3.68202e-06)
(-1.58749e-06 -7.14018e-07 -4.13528e-06)
(1.54668e-06 -8.16647e-07 -4.1193e-06)
(-3.59207e-09 4.68849e-08 -3.1991e-06)
(-1.30668e-06 7.28564e-07 -3.49024e-06)
(1.20787e-06 7.96049e-07 -3.48761e-06)
(-1.45235e-06 -9.131e-07 -4.14116e-06)
(-3.16634e-09 -5.84435e-08 -3.68479e-06)
(-1.80633e-06 1.03275e-06 -4.83131e-06)
(-7.07295e-09 3.34965e-08 -4.38697e-06)
(2.10864e-06 -1.07777e-06 -5.57985e-06)
(-2.35358e-06 1.38122e-06 -6.41789e-06)
(-1.2698e-08 -5.15826e-08 -5.75112e-06)
(-2.82306e-06 -1.26192e-06 -7.1813e-06)
(-9.08242e-08 -1.81045e-08 -6.46646e-06)
(1.30802e-06 7.46167e-08 -6.90624e-06)
(-6.32575e-08 -1.07034e-06 -1.10388e-05)
(2.03892e-07 1.35773e-06 -8.70891e-06)
(-2.48546e-06 -1.37228e-06 -7.85599e-06)
(-4.30193e-07 2.9177e-07 -6.16636e-06)
(7.64153e-08 9.85011e-08 -9.08751e-06)
(-3.36195e-08 -1.39949e-08 -6.83459e-06)
(-2.74836e-08 -1.11354e-11 -5.96747e-06)
(-2.34426e-08 1.82532e-08 -5.59738e-06)
(-1.43819e-08 -3.95879e-09 -4.25676e-06)
(-7.23965e-09 -2.00909e-08 -3.11419e-06)
(-3.31931e-09 -2.34513e-08 -2.18641e-06)
(-1.40203e-09 -2.12903e-08 -1.47628e-06)
(-5.36614e-10 -1.76264e-08 -9.67009e-07)
(-5.9649e-11 -1.32132e-08 -6.32667e-07)
(1.31814e-09 9.45255e-09 -5.51699e-07)
(1.20569e-10 -1.11178e-08 -4.77251e-07)
(-1.44522e-08 1.16657e-08 -3.28314e-07)
(8.16015e-10 1.20704e-08 -5.52206e-07)
(3.0183e-09 1.95591e-09 -3.20683e-07)
(9.82203e-08 -7.21199e-08 -3.90571e-07)
(8.83969e-09 7.90956e-08 -4.48735e-07)
(-3.90947e-09 -5.20143e-08 -6.408e-07)
(-1.20996e-07 4.14967e-08 -4.96493e-07)
(1.07456e-07 2.43931e-08 -4.94011e-07)
(-1.07865e-07 2.03725e-08 -4.91479e-07)
(1.16612e-07 5.09725e-08 -5.00801e-07)
(-4.9123e-08 3.64148e-08 -4.68113e-07)
(2.17423e-07 -1.04019e-08 -3.59241e-07)
(-6.23256e-08 -1.31999e-07 -5.27861e-07)
(1.59715e-07 2.30271e-07 -6.8072e-07)
(1.38391e-08 -6.32377e-10 -6.27407e-07)
(-2.23648e-07 -2.75993e-07 -8.61761e-07)
(-2.24626e-07 2.22442e-07 -8.11193e-07)
(1.94373e-07 -1.77085e-07 -6.62271e-07)
(7.35617e-09 -1.80194e-08 -6.20004e-07)
(-1.29414e-09 3.9048e-10 -6.67305e-07)
(-2.25043e-08 6.0799e-08 -5.14297e-07)
(5.57612e-10 6.16355e-08 -5.16501e-07)
(2.54927e-08 6.12032e-08 -5.13968e-07)
(5.13312e-08 3.85954e-08 -4.99741e-07)
(6.65389e-08 4.39104e-08 -4.87452e-07)
(-4.32874e-09 -2.2487e-10 -6.75318e-07)
(7.13774e-09 1.57931e-08 -6.7908e-07)
(2.83205e-08 2.16057e-08 -5.51017e-07)
(8.89116e-10 6.85224e-10 -6.69488e-07)
(-9.32583e-09 -2.71984e-08 -1.02765e-06)
(-8.76411e-09 -3.41283e-09 -1.04582e-06)
(-1.52628e-08 -1.01859e-08 -1.02994e-06)
(-2.56734e-08 -1.96545e-08 -1.57072e-06)
(-2.29102e-08 -2.01116e-08 -1.60831e-06)
(9.79277e-09 9.84934e-09 -1.30407e-06)
(1.11491e-08 1.19624e-08 -8.40457e-07)
(5.03522e-09 1.47317e-08 -8.16819e-07)
(-2.84249e-07 2.039e-07 -8.3785e-07)
(3.06333e-07 1.79382e-07 -8.41764e-07)
(-3.94796e-07 -1.98843e-07 -1.04858e-06)
(3.9743e-07 -1.73546e-07 -1.04852e-06)
(-2.65291e-09 1.48135e-08 -7.71976e-07)
(-3.11238e-07 1.62184e-07 -8.37753e-07)
(-2.20259e-10 -2.02389e-08 -6.35306e-07)
(7.5657e-11 4.13945e-09 -6.70642e-07)
(2.98828e-10 -2.52531e-08 -1.028e-06)
(6.51791e-10 -5.51231e-08 -1.58584e-06)
(-1.592e-08 -5.57032e-08 -1.58382e-06)
(-2.39578e-08 -9.27421e-08 -2.36101e-06)
(-4.25256e-08 -4.13526e-08 -2.39548e-06)
(-4.00316e-08 -3.2109e-08 -2.32668e-06)
(-5.94661e-08 -4.88493e-08 -3.31861e-06)
(-7.29186e-08 -7.56193e-08 -3.43153e-06)
(1.50765e-09 1.82268e-10 -2.88185e-06)
(7.63925e-09 6.73123e-09 -1.97461e-06)
(8.45331e-09 1.57968e-08 -1.92183e-06)
(-6.89805e-07 4.49365e-07 -1.97871e-06)
(7.37386e-07 4.08641e-07 -1.97589e-06)
(-9.06264e-07 -4.92365e-07 -2.42042e-06)
(9.11474e-07 -4.25928e-07 -2.41236e-06)
(-8.19907e-09 3.12773e-08 -1.80373e-06)
(-7.52791e-07 3.5677e-07 -1.97512e-06)
(6.10052e-07 -2.76113e-07 -1.61267e-06)
(-5.15541e-09 2.25559e-08 -1.19351e-06)
(-4.9124e-07 2.413e-07 -1.29331e-06)
(-5.42113e-10 -2.51823e-08 -9.78857e-07)
(4.82127e-07 2.73623e-07 -1.29621e-06)
(-6.06173e-07 -3.19085e-07 -1.61598e-06)
(1.69893e-09 2.38097e-08 -1.19635e-06)
(-4.49601e-07 3.0234e-07 -1.29523e-06)
(3.66895e-07 -2.26646e-07 -1.0561e-06)
(1.64145e-09 1.58408e-08 -7.73714e-07)
(4.46004e-10 2.82886e-09 -8.61985e-07)
(-9.10467e-09 -8.78846e-09 -8.2577e-07)
(-2.67024e-07 -2.12237e-07 -9.37029e-07)
(8.68581e-09 2.51596e-09 -5.23715e-07)
(1.98033e-07 1.83005e-07 -7.72467e-07)
(8.40527e-09 -2.46776e-08 -4.48844e-07)
(-2.20199e-07 -1.47131e-07 -6.02031e-07)
(-1.13271e-07 -3.08387e-08 -3.49318e-07)
(4.18978e-08 -1.31813e-08 -4.50797e-07)
(-1.15184e-08 -3.26391e-09 -5.37061e-07)
(-3.67577e-10 5.08528e-09 -5.54564e-07)
(-1.73639e-09 1.46213e-08 -5.25077e-07)
(3.58427e-09 2.51327e-08 -5.42157e-07)
(-4.6052e-09 2.4256e-08 -5.41781e-07)
(4.0518e-09 -5.33641e-08 -6.38488e-07)
(-2.68334e-08 2.24085e-08 -5.64668e-07)
(-4.11153e-08 3.84127e-08 -4.9811e-07)
(-2.56144e-08 2.36636e-08 -5.0008e-07)
(1.2096e-08 1.52595e-09 -6.79614e-07)
(-1.32873e-08 1.05966e-08 -6.65634e-07)
(-1.38352e-08 1.33066e-08 -8.52682e-07)
(-6.54607e-09 1.39123e-08 -8.1554e-07)
(1.03012e-08 -2.74071e-08 -1.02275e-06)
(1.89592e-08 -5.65325e-08 -1.57705e-06)
(2.96811e-08 -9.50744e-08 -2.3541e-06)
(9.23617e-10 -9.44316e-08 -2.36695e-06)
(9.36554e-10 -1.54284e-07 -3.39232e-06)
(-3.51495e-08 -1.47413e-07 -3.38014e-06)
(-5.54191e-08 -2.41743e-07 -4.64841e-06)
(-1.27325e-07 -1.4589e-07 -4.72913e-06)
(-8.60874e-08 -7.31021e-08 -4.54912e-06)
(-1.59148e-07 -1.44176e-07 -5.97605e-06)
(-2.85008e-07 -3.40751e-07 -6.31302e-06)
(-5.6655e-08 -4.92353e-08 -5.44361e-06)
(-1.3917e-08 -1.48765e-08 -4.04267e-06)
(7.75731e-09 6.78765e-09 -3.95556e-06)
(-1.45232e-06 9.13112e-07 -4.14106e-06)
(1.5466e-06 8.16746e-07 -4.11922e-06)
(-1.80637e-06 -1.03271e-06 -4.83131e-06)
(1.80647e-06 -9.05617e-07 -4.79585e-06)
(-2.25373e-08 5.29377e-08 -3.68205e-06)
(-1.5874e-06 7.14051e-07 -4.13524e-06)
(1.31179e-06 -6.32543e-07 -3.47347e-06)
(-1.30783e-08 4.10958e-08 -2.6296e-06)
(-1.11368e-06 5.13668e-07 -2.91447e-06)
(-1.82462e-09 -4.12221e-08 -2.23736e-06)
(1.08846e-06 5.89933e-07 -2.91053e-06)
(-1.30669e-06 -7.28517e-07 -3.49023e-06)
(-2.22883e-10 4.44952e-08 -2.63323e-06)
(-1.02073e-06 6.51576e-07 -2.91938e-06)
(8.40552e-07 -5.40683e-07 -2.42403e-06)
(1.18646e-09 3.32989e-08 -1.80731e-06)
(5.65594e-10 5.78121e-09 -2.00015e-06)
(7.86333e-10 4.21743e-09 -1.32807e-06)
(-1.14758e-08 -1.28008e-08 -1.26891e-06)
(-3.96787e-07 -3.31589e-07 -1.44629e-06)
(4.74769e-09 1.5828e-09 -8.10225e-07)
(3.10571e-07 2.74693e-07 -1.15793e-06)
(5.84622e-09 -1.50564e-08 -6.56472e-07)
(2.2362e-08 -5.24811e-09 -6.68102e-07)
(-3.61516e-07 -2.74001e-07 -1.1294e-06)
(4.19611e-07 3.56949e-07 -1.40365e-06)
(-5.46096e-07 -4.24761e-07 -1.72895e-06)
(-5.4609e-07 4.24774e-07 -1.72892e-06)
(-1.34999e-09 9.67714e-09 -1.23836e-06)
(6.46917e-07 -5.38895e-07 -2.12256e-06)
(7.64378e-09 6.69015e-09 -1.55012e-06)
(-8.12123e-07 6.39373e-07 -2.58161e-06)
(-1.23053e-09 4.31673e-09 -1.83405e-06)
(9.55987e-07 -7.87463e-07 -3.11238e-06)
(-7.97024e-10 8.53424e-09 -2.25518e-06)
(-1.16183e-06 9.2523e-07 -3.71615e-06)
(-2.19726e-10 -8.96985e-09 -2.61638e-06)
(1.35735e-06 -1.10384e-06 -4.38881e-06)
(-2.50488e-08 7.84234e-09 -3.15045e-06)
(-1.57468e-06 1.28427e-06 -5.14188e-06)
(9.13409e-09 -4.99199e-08 -3.58659e-06)
(1.86587e-06 -1.47566e-06 -5.92894e-06)
(-1.09082e-07 -5.72693e-09 -4.21766e-06)
(-1.97126e-06 1.70972e-06 -6.8533e-06)
(6.06662e-08 -1.95896e-07 -4.71766e-06)
(2.55797e-06 -1.83019e-06 -7.54396e-06)
(-4.33157e-07 -1.51619e-07 -5.45699e-06)
(-2.02609e-06 2.08455e-06 -8.93894e-06)
(-2.72469e-07 -3.93964e-11 -7.21204e-06)
(-2.02604e-06 -2.08456e-06 -8.93895e-06)
(5.18083e-07 1.00337e-06 -5.905e-06)
(3.18143e-06 2.15622e-06 -8.56457e-06)
(-1.14138e-07 3.39527e-07 -5.57355e-06)
(-2.07742e-06 -1.94765e-06 -8.10921e-06)
(-8.60985e-08 -2.14983e-08 -4.71078e-06)
(2.02431e-06 1.60894e-06 -7.0392e-06)
(-4.07547e-08 1.2108e-07 -4.17572e-06)
(-1.66297e-06 -1.47632e-06 -6.14946e-06)
(-4.38735e-08 -6.43549e-09 -3.60517e-06)
(1.45923e-06 1.22198e-06 -5.32156e-06)
(-2.10621e-08 4.26352e-08 -3.10787e-06)
(-1.23907e-06 -1.0767e-06 -4.54035e-06)
(-1.97132e-08 -2.9703e-09 -2.63154e-06)
(1.04384e-06 8.89003e-07 -3.83995e-06)
(-6.79662e-09 1.18802e-08 -2.22007e-06)
(-8.79853e-07 -7.55948e-07 -3.21863e-06)
(-7.52138e-09 -8.4448e-10 -1.84302e-06)
(7.21832e-07 6.20371e-07 -2.66165e-06)
(7.46268e-10 -1.25908e-09 -1.52438e-06)
(-5.99385e-07 -5.09845e-07 -2.19359e-06)
(-3.76589e-10 5.86512e-10 -1.24136e-06)
(4.80735e-07 4.17385e-07 -1.77776e-06)
(4.55844e-09 -8.65548e-09 -1.01036e-06)
(1.36344e-08 -5.26314e-09 -1.02799e-06)
(-2.08532e-08 -2.0351e-08 -1.30655e-06)
(-1.87787e-08 -1.36249e-08 -8.61296e-07)
(-1.54041e-08 -5.13497e-09 -5.86126e-07)
(6.45026e-08 3.12966e-08 -4.69397e-07)
(4.96089e-09 -1.56398e-11 -4.47346e-07)
(-3.07133e-08 -9.43324e-13 -5.05276e-07)
(-4.44366e-08 -3.23594e-11 -6.98681e-07)
(-5.51028e-08 3.02799e-12 -1.03918e-06)
(-7.03596e-08 2.8543e-11 -1.56609e-06)
(-9.01947e-08 5.19905e-11 -2.30758e-06)
(-1.0461e-07 1.04834e-10 -3.28008e-06)
(-8.28247e-08 3.62569e-10 -4.47913e-06)
(2.5377e-08 1.18661e-10 -5.85554e-06)
(1.67639e-07 -3.49483e-11 -7.10872e-06)
(-1.63581e-07 -1.16618e-10 -8.08904e-06)
(-1.32647e-06 6.27513e-07 -7.98505e-06)
(-1.32648e-06 -6.27604e-07 -7.98505e-06)
(-1.36844e-06 -8.74464e-07 -7.43749e-06)
(-1.13109e-06 -8.42178e-07 -8.64816e-06)
(-4.03017e-07 -2.43237e-07 -6.96968e-06)
(-1.49709e-07 -4.55101e-07 -6.18608e-06)
(-6.14199e-07 -1.41528e-06 -8.39699e-06)
(9.97428e-07 4.16689e-06 -5.85972e-06)
(1.61299e-06 -3.71923e-07 -7.03664e-06)
(3.02103e-08 3.34151e-08 -6.47016e-06)
(7.83628e-09 -1.42396e-08 -6.63822e-06)
(9.45961e-08 -2.82198e-08 -6.44609e-06)
(-4.33099e-07 1.51626e-07 -5.45697e-06)
(2.55782e-06 1.8303e-06 -7.54386e-06)
(6.07275e-08 1.95786e-07 -4.71759e-06)
(-1.97125e-06 -1.70965e-06 -6.8533e-06)
(-1.8251e-07 -1.3845e-11 -5.53738e-06)
(-6.16487e-08 -1.39836e-11 -5.6983e-06)
(-6.0422e-08 -1.60809e-11 -4.31659e-06)
(9.23043e-09 4.98989e-08 -3.58651e-06)
(-1.57467e-06 -1.28425e-06 -5.14192e-06)
(1.86582e-06 1.47568e-06 -5.9288e-06)
(-1.09081e-07 5.72252e-09 -4.21772e-06)
(-2.50198e-09 -2.16958e-08 -5.17049e-06)
(-1.79194e-08 -2.36716e-08 -3.86614e-06)
(-2.50921e-08 -7.86969e-09 -3.15044e-06)
(1.35717e-06 1.10386e-06 -4.38871e-06)
(-1.65507e-10 8.94329e-09 -2.61635e-06)
(-1.16175e-06 -9.25246e-07 -3.71623e-06)
(-3.26293e-08 1.47408e-11 -3.05417e-06)
(-5.21881e-08 -1.76358e-12 -3.15645e-06)
(-4.17987e-08 -6.44349e-12 -2.2177e-06)
(-3.07511e-08 -9.16269e-12 -1.50034e-06)
(-1.31718e-09 -9.72144e-09 -1.23834e-06)
(6.46908e-07 5.38909e-07 -2.12249e-06)
(-8.12123e-07 -6.39366e-07 -2.58167e-06)
(9.55953e-07 7.87514e-07 -3.1123e-06)
(-7.93805e-10 -8.51058e-09 -2.25512e-06)
(-1.83946e-08 -2.14406e-08 -2.77167e-06)
(-1.5071e-08 -1.72705e-08 -1.90893e-06)
(1.84339e-09 -8.70071e-12 -1.57842e-06)
(1.15708e-09 -5.09915e-12 -1.03535e-06)
(1.65243e-11 1.38546e-12 -6.81325e-07)
(-1.14897e-08 -1.04418e-12 -6.51394e-07)
(-6.23889e-09 -2.33315e-08 -5.34618e-07)
(2.61422e-07 2.34243e-07 -9.24762e-07)
(1.5663e-08 -2.52345e-12 -6.33999e-07)
(2.61442e-07 -2.34249e-07 -9.24763e-07)
(2.23441e-08 5.25529e-09 -6.681e-07)
(-3.61496e-07 2.74013e-07 -1.1294e-06)
(-2.38637e-09 1.41035e-08 -8.13158e-07)
(4.19654e-07 -3.56958e-07 -1.4037e-06)
(1.36522e-08 5.25809e-09 -1.028e-06)
(-1.14769e-08 1.27916e-08 -1.26891e-06)
(-2.02566e-08 3.0926e-12 -9.86555e-07)
(-2.37927e-09 -1.41333e-08 -8.13137e-07)
(5.44163e-09 7.47675e-12 -9.53417e-07)
(-9.10095e-09 8.78511e-09 -8.25769e-07)
(-1.15153e-08 3.26331e-09 -5.37064e-07)
(-2.20208e-07 1.47136e-07 -6.0203e-07)
(8.40613e-09 2.46615e-08 -4.4885e-07)
(1.9803e-07 -1.83003e-07 -7.72484e-07)
(4.18915e-08 1.31837e-08 -4.50808e-07)
(1.48521e-07 -1.55642e-07 -6.5821e-07)
(-3.20621e-08 6.03948e-08 -3.72811e-07)
(-2.1798e-07 1.26056e-07 -4.40882e-07)
(1.86731e-08 5.24748e-12 -4.72857e-07)
(8.12469e-08 -9.24336e-08 -4.08904e-07)
(1.1457e-07 2.85841e-08 -3.34777e-07)
(5.1988e-08 -1.16383e-07 -3.8679e-07)
(1.37714e-07 -3.26415e-08 -4.02144e-07)
(5.01431e-08 -4.23765e-08 -5.25883e-07)
(1.79635e-08 -4.61553e-09 -4.15273e-07)
(-4.31135e-08 -2.62165e-08 -3.92564e-07)
(2.42607e-08 -1.37129e-08 -4.61724e-07)
(-1.04899e-08 1.02906e-08 -4.24421e-07)
(-1.11338e-08 3.02205e-08 -4.22145e-07)
(4.61634e-08 -3.95457e-08 -4.4436e-07)
(-1.03106e-08 1.35597e-08 -3.91597e-07)
(7.02095e-09 -4.09909e-08 -4.5551e-07)
(3.08255e-10 3.02552e-08 -4.26775e-07)
(3.74574e-10 -1.33341e-12 -4.38161e-07)
(3.05495e-10 -3.02556e-08 -4.26771e-07)
(7.56378e-11 -1.50775e-08 -3.92031e-07)
(4.00692e-10 8.12415e-08 -6.15593e-07)
(7.02299e-09 4.09916e-08 -4.55519e-07)
(-8.27185e-10 5.74584e-09 -4.56702e-07)
(2.42613e-08 1.37168e-08 -4.61726e-07)
(-6.98425e-09 -1.08052e-08 -3.62086e-07)
(-4.31161e-08 2.62185e-08 -3.92561e-07)
(1.7965e-08 4.6142e-09 -4.15271e-07)
(2.2435e-10 5.89711e-09 -4.57076e-07)
(1.37156e-08 -2.89835e-08 -4.19924e-07)
(1.17046e-08 -1.24994e-08 -3.9024e-07)
(-7.47566e-09 4.09015e-08 -4.5649e-07)
(-4.53396e-08 3.81768e-08 -4.43759e-07)
(1.36895e-08 -8.72402e-09 -4.23082e-07)
(-2.41399e-08 9.97419e-09 -4.51237e-07)
(4.51804e-08 5.58428e-08 -3.43312e-07)
(1.37751e-07 -7.92196e-08 -4.60848e-07)
(-8.06686e-08 7.5786e-08 -4.59455e-07)
(2.71078e-08 -9.93357e-09 -6.15308e-07)
(1.24041e-08 2.63744e-13 -4.27906e-07)
(7.01155e-09 4.60092e-12 -4.86652e-07)
(6.44543e-09 2.99941e-12 -5.51454e-07)
(7.70855e-10 -8.49696e-13 -5.57014e-07)
(-2.16582e-10 4.89431e-13 -4.95868e-07)
(-1.7455e-10 -2.31059e-12 -6.80226e-07)
(-7.39815e-10 -6.23259e-13 -1.03391e-06)
(-1.6398e-09 3.85362e-12 -1.577e-06)
(-3.69164e-09 -4.21195e-12 -2.33381e-06)
(2.21121e-09 -3.52852e-12 -2.33537e-06)
(3.05357e-09 1.54563e-11 -3.32419e-06)
(7.25699e-09 1.29964e-11 -4.54126e-06)
(1.98602e-08 -7.97435e-12 -5.97883e-06)
(-1.47479e-07 -1.35981e-11 -8.75604e-06)
(-3.95068e-07 1.04969e-12 -8.06014e-06)
(1.60211e-06 -5.20721e-11 -1.20574e-05)
(-2.99126e-07 -1.1682e-06 -7.17341e-06)