/*--------------------------------*- C++ -*----------------------------------*\
| =========                 |                                                 |
| \\      /  F ield         | OpenFOAM: The Open Source CFD Toolbox           |
|  \\    /   O peration     | Version:  2306                                  |
|   \\  /    A nd           | Website:  www.openfoam.com                      |
|    \\/     M anipulation  |                                                 |
\*---------------------------------------------------------------------------*/
FoamFile
{
    version     2.0;
    format      ascii;
    arch        "LSB;label=32;scalar=64";
    class       volScalarField;
    location    "2";
    object      gradTy;
}
// * * * * * * * * * * * * * * * * * * * * * * * * * * * * * * * * * * * * * //

dimensions      [0 -1 0 1 0 0 0];

internalField   nonuniform List<scalar> 
2658
(
0.00842043
0.0048721
0.00151654
-0.000181819
-0.0173668
0.0213316
-0.0180484
0.015198
-0.000252475
-0.0151154
0.00467292
-0.0346582
0.0210933
0.0214532
0.0173694
0.0178388
0.0195527
0.0175621
0.0177797
0.0211869
0.02042
0.0177991
0.00588313
-0.00401704
0.00657133
0.0195361
-0.00426305
0.00116852
0.015936
-8.05594e-07
-0.0159362
0.00426314
-0.0195372
-0.005883
-0.00657109
0.00401755
-0.00116707
0.00167
-0.0178045
-0.0204212
-0.0211885
-0.0177804
-0.0175608
0.00878795
-0.00132987
-0.000637692
-0.00467318
0.009148
-0.017842
-0.0173696
-0.0214517
-0.0210934
-0.018708
0.00387536
-0.00697614
-0.0065616
0.000455682
-0.0113481
-1.1201e-07
-0.000172719
-0.000455399
0.00656132
0.00697657
-0.00387589
0.00450773
-0.0101151
-0.0142427
-0.000643327
-0.0236257
0.0236258
2.23642e-07
0.0199152
-0.000219316
0.0163202
-4.35892e-05
-0.012369
-0.0122584
0.000341751
0.01179
0.00774156
-0.00820782
-0.000600989
0.0106192
0.0159636
-0.000342268
-0.00019273
1.38016e-05
9.25095e-05
0.00010904
0.000104577
8.28525e-05
-0.000239211
0.000125011
0.000631867
-0.00027366
-0.00066846
-0.000113236
-0.000694394
-0.000122806
-0.000260862
-0.000760418
-0.000201587
-0.000673382
-0.000354726
-0.000296629
0.000686745
-0.000246004
-7.57974e-06
9.23647e-05
-0.000715761
0.000237587
-0.000323272
-1.23279e-08
0.000323273
-0.000237634
0.000715743
0.000296648
-0.000686763
0.000673366
0.000354724
0.000201521
0.000760408
0.000260853
0.000122803
-0.000541662
-0.000524346
-0.0006319
0.000668517
0.000113274
0.000273706
0.00074614
0.000188877
0.000355941
0.000325695
0.000667447
-0.000303351
2.30343e-05
3.49849e-05
-0.000698702
0.000698862
-2.30999e-05
0.000303376
-0.000179769
-0.000187025
-1.7103e-06
0.000186414
3.32046e-07
3.81083e-07
-0.000372278
0.000366921
8.24203e-07
2.94318e-05
0.000197043
-0.000221779
0.000884251
0.000204338
0.000829619
0.000982924
0.00104205
0.000824246
0.000829854
0.000954051
0.000829545
0.00083827
0.00106517
0.000992368
0.00086664
0.000278972
-5.57965e-05
0.000188505
-0.00130373
0.00177893
-0.0020408
0.00266793
-0.00322657
0.00399076
-0.00493327
0.00579012
-0.00724293
0.00806915
-0.0102348
0.0107836
-0.0140316
0.0138448
0.0135468
0.0113558
0.0107858
0.0151161
0.0173663
0.000181638
-0.0213321
0.0142428
0.0101143
-0.00450787
0.0346577
-0.00424693
0.00034199
0.000192556
-1.38737e-05
-9.26865e-05
-0.000109197
-0.000104554
-8.28435e-05
0.000239214
-0.000124955
6.87307e-06
-0.000288843
0.000107987
-0.000371502
0.000371493
0.000288871
-6.90059e-06
-0.00010802
-0.00011066
0.000524398
0.00054165
-0.000676014
0.000616372
0.000146951
-1.66896e-05
-9.97205e-05
9.50222e-05
-8.07965e-05
-8.2164e-05
-3.85172e-09
8.21468e-05
-0.000147086
0.000245992
-0.000472563
7.61799e-06
-0.000522223
0.000522276
0.000472584
1.60158e-09
-0.000328694
-0.000360721
0.000360755
-0.000103232
0.000328713
-4.90736e-05
-4.59766e-09
-0.00025832
-0.000115859
0.000337949
-8.7964e-05
2.98916e-08
2.12366e-08
-9.4715e-09
-0.000516141
0.000362218
0.000994654
-0.000244245
0.000790068
-0.0010774
0.0013303
-0.00149133
0.00149125
0.000199338
0.00181426
0.000128663
-0.00234779
0.00283443
7.40506e-05
-0.00356716
0.00435795
1.03661e-05
-0.00530196
0.00646138
-0.00010245
-0.00759738
0.0092036
-0.000365142
-0.010443
0.0126188
-0.0010356
-0.0137521
0.0166473
-0.00290315
-0.0184282
-0.00857719
-0.0191675
0.0191677
-0.0011679
-0.00529343
0.00998416
0.00890519
-9.01912e-08
-0.00630974
0.0063098
0.00659301
-5.35758e-08
-0.00794331
0.00794332
0.00321589
-3.7681e-08
-0.0207367
0.0207364
-0.0129832
1.31786e-07
0.0129828
-0.0101323
0.00643228
0.0148229
0.0103346
0.0134188
-0.0199955
0.0141676
0.00186873
0.00119853
0.000183658
-0.00321598
-0.00117153
-0.00333598
-0.0114516
0.00625421
0.0178211
0.00758991
0.00848992
-0.00437838
1.03261e-07
0.00437863
0.00333599
-0.0141677
0.019995
-0.0148243
-0.00643318
0.0101321
-0.00186908
-0.00119861
-0.00848905
-0.00759048
-0.0178208
-0.00625452
0.0114514
-0.0116048
-0.00429676
-0.0164955
-0.00379097
0.0107908
0.00258144
-0.00249398
0.0117285
-0.002358
-0.00286193
2.99654e-05
-0.000144067
-0.000264508
-0.000270958
-0.000233546
-0.000187919
-0.000141373
-0.000157127
-0.00122708
-0.00104443
-0.000940319
-0.00143699
0.00201345
-0.0023087
0.00305334
-0.00365708
0.00457178
-0.00561082
0.00662607
-0.00829074
0.00921498
-0.0117901
0.0122591
-0.0159639
0.000251917
-0.0151975
0.0180496
-0.0199157
0.0182239
-7.32523e-08
-0.0182237
0.0153148
-0.0137692
0.0111718
-0.00903383
0.0119423
9.09339e-05
0.0078918
0.000398489
-0.00921408
-0.00045239
-0.00610272
-0.00697989
0.000400726
0.00622705
0.00680383
-0.00780427
-0.000499517
0.00882697
0.000286295
-0.00921169
0.0118053
-0.000440877
-0.0107856
-0.00015474
0.00063775
-0.00914819
0.0116045
-0.0117289
0.00249376
0.00084189
-0.000119614
-9.51746e-08
0.00015601
-3.38358e-05
-0.000171717
-0.000200439
-0.000181969
-0.000150653
-0.000112933
8.0791e-05
-9.50242e-05
9.97068e-05
0.000103166
1.67172e-05
-0.000616409
0.000676031
-0.000444566
0.000354672
0.000208488
0.000174124
0.000435662
0.000311238
-8.89054e-05
-0.00112819
0.00196812
-5.40493e-06
-0.00235891
0.00190122
-0.00151355
-0.000154012
3.33744e-06
0.00051965
0.000526799
0.000523105
0.000329875
0.000375303
-1.92197e-06
0.000134984
0.000184664
5.85662e-06
-0.000232465
-2.91695e-05
-8.70588e-05
-0.000167987
-0.000171894
8.41824e-05
0.000102242
0.000125912
0.00174274
0.00153318
-0.00169952
-0.0014833
0.000126611
0.00138619
-0.000172982
3.53799e-05
-0.000215838
-0.000471137
-0.000476096
-0.000792667
-0.000353441
-0.000274436
-0.000417515
-0.000646319
1.55784e-06
5.75319e-05
0.000135016
0.00384073
0.00349266
-0.00420825
-0.00364041
0.000267327
0.00304932
-0.00235994
0.000192786
0.0020624
-0.000215234
0.00233866
-0.00272722
0.000203502
0.0025841
-0.00193714
0.000135391
2.41783e-05
-7.5115e-05
-0.00181399
2.15039e-05
0.00156415
-0.00021092
-0.00125753
-0.000263579
-0.00011266
-2.78966e-05
4.34639e-05
0.000124968
0.000214809
0.000207316
-0.000456103
0.000191526
0.000328314
0.000202253
1.30423e-05
9.05693e-05
0.000113731
0.000118908
-0.000234249
-0.000483184
-0.000812602
-0.000807108
-0.00131867
-0.00125994
-0.00206618
-0.00124692
-0.000624805
-0.00123227
-0.0029124
-0.000420815
-0.00012715
5.80141e-05
0.00780438
0.00698073
-0.0088266
-0.00774032
0.000452459
0.006103
-0.00540635
0.000351246
0.00439033
-0.000352325
0.00504216
-0.00622664
0.000380301
0.00556902
-0.00462122
0.000284606
4.94121e-05
3.60464e-05
-0.000109408
-0.0028341
1.35282e-05
0.0023478
-0.000128687
-4.48557e-05
-0.00234189
0.00305084
-0.00363044
0.00363055
8.27106e-05
-0.00460594
5.71808e-05
0.00546473
3.68951e-05
-0.00673045
7.29422e-05
0.00790795
-7.66654e-05
-0.00943452
6.70286e-05
0.0109766
-0.000426666
-0.0126124
-4.89481e-05
0.014613
-0.00167433
-0.0156426
-0.00129588
0.0178167
-3.36721e-07
-0.0178167
0.0085758
0.0184293
0.00290194
-0.0166466
-0.000183746
0.0137517
0.00103488
-0.0126181
-5.50042e-05
0.0104443
0.000364403
-0.00920258
-2.53872e-05
0.00759832
0.00010154
-0.00646109
-7.21778e-06
0.00530232
-1.07614e-05
-0.00435765
5.01292e-06
0.0035674
-7.39784e-05
-4.49841e-05
-0.00017394
-0.000116452
-4.38887e-05
0.000267492
-1.33674e-07
-8.0626e-09
-2.76576e-07
2.58803e-08
2.43958e-07
4.44363e-07
8.96014e-07
3.09888e-06
1.0142e-06
-2.98703e-07
-9.96736e-07
0.00536336
-0.00536414
-0.00747405
-0.00719811
-0.00207895
-0.00388975
-0.0120964
0.0356145
-0.00317883
0.000285599
-0.000121706
-0.000241195
0.00129595
0.0156436
0.00167338
-0.0146124
-1.18333e-07
-1.19518e-07
-1.37444e-07
0.000426486
-0.0109765
0.0126126
4.89104e-05
-0.000185435
-0.000202321
-6.72623e-05
0.00943473
7.64384e-05
-0.00790808
1.2599e-07
-1.50733e-08
-5.50725e-08
-7.83135e-08
-8.30892e-05
0.00460606
-0.00546467
0.00673089
-7.274e-05
-0.000183253
-0.000147611
-7.4365e-08
-4.35825e-08
1.18416e-08
-8.92462e-09
-0.000199414
0.00200208
-2.1568e-08
-0.00200213
4.4917e-05
0.00234199
0.000120542
-0.00305092
4.4941e-05
0.00010933
2.64325e-08
-0.000120797
6.39038e-08
7.50864e-05
2.78915e-05
0.00125758
0.000210782
-0.00156413
0.000112681
-0.00133028
0.000516195
0.0010774
4.48502e-08
-0.00079003
0.000244308
-0.000994724
-0.000278987
-0.000362192
-3.94489e-05
-0.000224072
-0.000117204
8.79539e-05
0.000258295
-0.000337998
0.000115895
-0.00035035
0.000258591
-1.13967e-08
-0.000258595
-0.000128868
0.000694372
0.000350355
4.91097e-05
0.000117238
-9.23521e-05
0.000224089
3.94376e-05
5.04026e-05
-0.000247722
-0.000106832
0.000349586
0.000326297
-7.45642e-05
8.52495e-05
0.000477289
-0.000677091
0.000647743
-8.49023e-05
2.25422e-09
3.93241e-08
2.5636e-08
-7.26236e-09
4.18317e-09
-1.97486e-08
-5.327e-09
3.29369e-08
-3.59995e-08
-3.01583e-08
1.32105e-07
1.11081e-07
-6.81569e-08
-1.16223e-07
8.97168e-09
-4.45061e-07
-0.00998464
0.00529369
-0.0045238
0.00752219
-0.00752239
0.00452356
-0.0149931
0.00156281
-0.00601339
0.0138277
0.00349647
-0.000321608
0.0129512
-0.0115598
-0.00673078
-0.0176334
-0.00569726
-0.00861799
-0.0126308
-0.00719377
0.000701079
0.00625054
0.00192297
-1.66058e-06
2.77878e-07
-0.00192216
0.0149927
0.00601323
-0.00156319
0.00467867
-0.00349669
-0.0129517
0.00032127
0.00150776
-0.00258161
-0.0107909
0.00379013
0.0164945
0.00429668
0.00752999
-0.00611403
-0.00625204
9.17325e-07
-0.00228817
-0.00467879
0.00036244
-0.000451881
-0.00730889
0.00611392
0.00122696
-0.00753001
-0.000185273
-0.00018384
0.00117131
-0.00084188
0.00011947
0.000154683
-0.00191832
-0.00422634
-0.00221699
-8.28803e-05
0.010579
0.00921334
-0.0118055
-0.0106181
0.000601205
0.00820788
-0.000286376
-0.000161563
-0.00220689
-0.00131769
1.42824e-05
9.50361e-05
0.000116693
0.000120462
0.000132812
-0.00303129
-0.000244917
8.52691e-05
0.00290587
-7.06e-05
-0.00369649
0.00461675
-9.98475e-05
-0.00565868
0.00438274
-0.00352489
-0.000250302
-0.00536956
-0.000115151
-0.00837794
0.00640719
-0.000327803
-0.00789134
-9.11564e-05
-0.0119421
0.00903325
-0.000398764
-0.0111715
4.42521e-05
-0.016321
0.0123681
-0.000342688
-0.000873437
-0.00412513
-0.0124312
-0.012405
-0.0195581
-0.00187586
0.0326685
-0.00303423
-0.00316599
-0.00151647
-0.000687805
-0.000417546
-0.000266043
-0.000164738
-8.29293e-05
-4.57808e-05
6.29357e-05
2.20473e-05
0.00411609
1.58428e-07
-0.00411636
0.00513226
8.5513e-08
-0.00631012
0.00631007
-0.00513221
-3.24364e-08
-3.28728e-08
1.64326e-08
4.47923e-05
0.00011683
-2.04781e-05
0.000984096
3.57698e-07
-0.000984295
0.00209516
1.59538e-07
-0.00260504
0.0026048
-0.00209493
3.06664e-05
0.000269203
-0.000337856
0.000337881
-0.000187093
-9.17815e-05
-0.000269299
0.00112831
8.91014e-05
-0.000311424
0.00151401
5.52286e-06
-0.00190153
0.00235898
-0.00196793
2.03415e-05
-4.47774e-05
-4.34685e-05
0.000141328
-2.14044e-05
0.00130378
0.000157252
-0.00174266
-0.000135325
0.00169957
0.000215215
-0.00206224
-0.000192805
0.00236087
0.00365692
0.000250479
-0.00438295
0.00565814
0.000100086
0.00352556
-0.00290616
0.00369649
7.06038e-05
0.00225944
0.000193739
-0.00305295
0.0023087
0.00148377
-0.00138635
-0.000126554
-0.00201317
0.000153875
0.00143693
0.000940519
0.000172885
-0.00153308
0.00104448
0.00122721
-0.000354672
-0.000124911
-0.000208371
0.00188033
-0.000174157
-0.000116832
-0.000435536
0.00196603
-0.00082426
-0.000829985
0.000456163
-0.000207275
-0.000214829
-0.000184564
-0.000375332
-0.000267475
4.38308e-05
0.000116655
1.98693e-06
8.73374e-05
0.000173808
0.000243248
0.000168377
0.000274915
0.000318286
-0.000318843
-0.000243268
-5.71391e-05
-0.000359466
0.000358631
0.000417844
0.00062526
0.000300737
-0.000301807
-0.000359354
0.000360089
0.00123464
0.0074755
0.00720012
0.00208257
-0.0138443
-0.000466957
-0.0135464
-0.000285674
0.00132975
-0.0326686
0.00235783
0.00286162
-3.04083e-05
0.000143733
0.000264026
0.000270708
0.000233361
0.000187843
-1.34413e-05
0.00204103
0.000196693
-0.002584
-0.000203649
0.00272722
0.000277979
-0.00304913
-0.000266712
0.00364157
0.00561104
0.000327463
-0.00640776
0.00837771
0.000115246
0.00537011
-0.00690683
-3.95941e-05
0.00768842
-1.4096e-08
-0.00933936
0.0093392
-0.00768843
3.95205e-05
0.00690738
8.71293e-05
1.32367e-07
2.41736e-07
6.56272e-08
5.66373e-07
-3.08626e-05
-0.00020293
-0.000885312
0.000224048
0.000134063
-0.000667663
-0.000325931
-0.000356029
-0.000647893
-0.000188856
-0.000746106
-0.00104173
-0.000982807
8.45346e-05
-0.000829947
-0.000204465
-0.000328206
-0.000519475
-0.000526815
-0.00052311
-0.00106515
-0.000838303
0.000444541
-0.000829564
-0.000954481
0.0019963
-0.000188513
0.000263597
5.57223e-05
-0.000992407
-0.000866799
-0.000329603
-5.68905e-06
-0.000135325
-0.000102001
-0.00177873
-0.000125765
0.00193756
0.000232516
3.16802e-05
-8.35718e-05
-0.00266768
0.00322706
0.000245154
-0.00384044
-0.000284478
0.00462196
0.00420826
0.000352247
-0.00439067
-0.000351298
0.00540756
0.00829031
-0.00662527
-9.48064e-05
-0.000121485
-0.00556824
-0.000379719
-0.00504145
0.000200298
0.000181777
0.00015053
0.000112905
-2.4185e-05
-3.60392e-05
-4.93911e-05
0.000147553
0.000183106
-6.68538e-05
6.66517e-05
9.18608e-05
0.000499251
-0.00968651
-0.000182713
0.000129899
0.000665431
-0.0133844
0.00046658
0.000189116
0.000123218
9.26605e-05
7.00223e-05
5.08744e-05
3.25697e-05
6.14652e-06
0.00300065
-0.00332257
0.0033228
-0.00300032
-6.28191e-06
-3.25191e-05
-5.08926e-05
-2.21815e-05
-0.00461642
-6.30367e-05
-4.03616e-05
-1.26717e-05
8.31541e-05
0.000164906
-8.7094e-05
-4.36764e-05
-8.4953e-05
-0.000120383
-0.000132598
0.00303167
0.000476594
0.000176167
-5.63993e-05
-0.00399027
0.0049339
0.000297673
-0.00578968
0.00724377
0.000317892
-0.00806815
0.010235
0.000182411
-0.0105795
-0.000666007
0.0133849
0.0140322
0.000183705
-0.0107827
5.53827e-05
0.000421569
0.00012924
-1.02591e-08
0.000358582
0.000793352
0.00126095
0.000654777
0.00206628
0.00125966
0.00389044
0.00290733
0.0120963
-0.0356141
0.00116655
-0.00166836
0.01263
0.00569663
0.0176336
0.0067308
0.0115595
-0.00878777
0.00317936
0.00187549
-0.0113553
-0.000156306
3.35972e-05
0.000171501
-1.26502e-07
-1.34405e-07
-0.000130023
0.000185325
0.000202099
-9.18512e-05
-0.000123462
-3.06212e-08
-4.27313e-08
-9.26873e-05
-7.01397e-05
-6.21105e-05
-0.0099559
0.0110903
-1.13206e-08
-0.0133121
0.0133119
-0.0110904
6.21832e-05
0.00995668
0.0001107
-4.91763e-05
-0.000356963
4.40272e-05
-0.000176349
-0.000288773
-0.000676795
0.000132714
0.0137695
-0.0153144
0.000105336
-1.08106e-07
-5.34053e-08
-4.17289e-08
-9.12527e-08
-0.00659338
0.00121684
0.000121533
0.000240849
-0.000362274
-0.00890612
0.00228828
0.000451368
0.00730847
0.00719304
-0.0138271
0.0086173
-0.00070133
-0.00122775
-2.93882e-07
0.00424672
0.011348
-0.000107169
8.77653e-07
0.000173525
0.000219335
0.000107431
-0.00487237
-0.00842113
-0.00840443
6.87383e-08
0.000172659
8.9024e-07
0.000643139
8.22239e-07
1.99166e-07
1.22533e-08
-0.000110766
0.000266542
0.000417726
-0.000132812
-0.000105737
0.000288942
4.94147e-05
0.000813234
0.000483446
0.000234628
-3.31382e-06
-3.525e-05
0.000216004
0.000471357
-0.000134598
-0.00349229
0.00080733
0.00131901
-5.73872e-05
0.00968781
8.40621e-05
0.000162019
-1.35137e-05
0.00131865
0.0022088
0.00221803
0.00422796
0.012405
0.00191822
0.0041251
0.0124306
0.00303336
0.000873504
-0.000174101
0.000687228
0.00138176
0.00316649
0.00067925
-0.000116626
-0.00457082
-0.000118847
-0.000113704
-0.000191701
-9.04017e-05
4.60659e-05
0.000177991
0.000357152
-0.000189183
-0.00137955
2.57096e-05
7.35177e-06
-4.86303e-06
-0.00233839
4.03152e-05
-0.00225896
-0.000193804
0.000106831
0.000247741
-5.04e-05
-8.52669e-05
-9.27077e-08
7.45754e-05
-0.000326322
-0.00034958
0.000128895
0.000677103
-0.000477315
-3.52449e-05
-0.000197414
0.000186701
9.18206e-05
0.000180262
-0.000133571
0.000121998
-0.00680198
-0.000318117
0.000440969
-0.00150802
-0.00121709
0.000185395
0.000110642
-1.71714e-08
-3.74488e-05
1.80889e-08
1.08491e-07
1.58052e-07
-0.000297809
-0.00040039
-0.000196639
-0.000277969
-0.00199621
-0.00188024
-0.0019659
-0.0134183
-0.0103347
0.00179583
-1.97334e-07
-0.001796
0.0187084
0.00840345
-0.000328543
-0.000202197
-1.29513e-05
5.34238e-06
0.00151343
-0.00196804
0.00235887
-0.00190136
0.000154012
0.00143677
-0.000435733
0.00196582
-0.000982944
-0.00104218
-0.000824345
-0.000829923
-0.000954102
-0.000829587
-0.000838328
-0.00106515
-0.000992446
-0.000866775
-0.000279096
0.000263564
-0.000362245
-0.000994706
0.000244195
-3.93999e-05
-0.000790061
3.77719e-08
0.000790037
-0.000244246
0.000994729
0.000279084
0.000362237
-0.000263582
0.000188552
-5.56659e-05
0.000867045
0.000992507
0.00106516
0.000838351
0.000829639
-0.000444481
0.000208484
0.000174171
0.000435621
-0.000456047
0.000830071
0.000824335
0.00104199
0.00098294
0.00083005
-8.44331e-05
0.000204639
9.18036e-05
0.000269397
0.000984393
-3.47361e-07
0.000337865
-0.000269234
-9.18635e-05
-0.000204397
8.47399e-05
-0.000311355
8.88795e-05
0.00112813
2.04459e-05
0.00209489
-0.00209504
-2.1766e-07
-0.00260484
-6.15002e-06
-0.00300032
7.05541e-05
0.00225898
0.00230843
0.000193839
-0.00305317
-0.0020625
0.00148338
-0.000126731
-0.00138632
-0.00201346
8.28592e-05
0.00010459
0.000109113
9.24923e-05
1.41024e-05
-0.000192392
-0.000341824
0.00424709
-0.00333569
-0.0114514
0.00625466
0.0116049
0.00429698
0.0164948
0.00379061
0.00673118
0.0176343
0.00569725
0.0126303
0.00861761
0.00601281
-0.0138279
0.00467856
-0.000362545
-0.00156301
0.014993
-0.00452295
0.00752241
5.33501e-08
-0.0075229
0.00452321
-0.0149925
-0.00601277
0.0138279
-0.0126297
-0.00861738
-0.00569704
-0.0176339
-0.00673059
-0.00379044
0.0107912
0.0117284
0.0114514
-0.0116046
-0.00429668
-0.00625479
-0.0178214
-0.0075909
-0.0103348
-0.0148244
-0.00643278
0.0101322
-0.0129833
-0.00186897
0.0207367
-0.0207366
0.0129833
-0.0101324
0.0064321
0.0148233
0.0103349
0.0134191
0.00759057
0.0178206
0.0214527
0.0210934
-0.00387586
0.0187084
0.00697654
0.0084034
0.00656132
-0.000172241
1.23789e-06
0.000172662
-1.71089e-07
0.0113484
-0.0113483
0.000455427
-0.00656153
-0.00840362
-0.00697706
-0.0187086
-0.021094
-0.0214519
-0.0173694
-0.0178386
-0.0195523
-0.0175618
-0.0177797
-0.021188
-0.0204196
-0.017801
-0.00588154
0.00166956
-0.00116675
0.0138446
-0.0140332
0.0107825
-0.0102349
0.00806907
-0.00724351
0.00578969
-0.00493384
0.00399075
-0.00322668
0.0026679
-0.00204099
0.00177875
-0.00130377
-0.00122708
-0.0010444
-0.000940378
-0.00143685
-0.00151378
-5.52304e-06
0.00196804
-0.00112823
-8.89898e-05
0.000311483
-0.00196585
0.000239251
-8.28333e-05
-0.000104548
-0.000109029
-9.24766e-05
-1.3782e-05
0.00019244
0.000341722
-0.00424708
0.00333558
0.00117136
0.00321588
-0.000842014
0.00794334
-0.00794324
-0.00321581
-0.00117135
0.000842078
0.00249396
-0.0117288
-0.0107908
0.0115597
-0.0129514
-0.00349659
0.00032153
0.00150787
-0.00258138
0.00235809
0.0028619
3.6824e-08
-0.00286172
0.00349653
-0.00467851
0.00890543
0.000362084
0.00998411
-0.00998445
-0.00890575
-1.13602e-07
0.00630988
0.00659302
-0.00659325
0.00121686
-0.00630978
0.000451401
3.47736e-07
0.00625056
0.000701058
-0.00719297
0.00192291
-3.56373e-07
-5.06554e-07
1.58557e-08
0.00857647
-0.00657145
-0.0195362
0.00426271
-0.0159369
0.019167
-0.0178162
0.0156426
-0.0156431
-0.00167389
-0.0137513
-0.00103484
0.0126178
-0.0104441
-0.000363913
0.00920253
-0.00759835
-0.000101094
0.00646073
-0.00530241
1.11016e-05
0.00435757
-0.00356742
7.41461e-05
0.00283411
-0.00234782
0.000128757
0.0018141
-0.00156428
0.000210809
0.00125746
0.000516104
0.00107724
-0.00107732
3.93562e-05
0.000224047
-0.000522199
-0.00047252
1.74232e-08
0.000328692
-0.000328694
-0.000360699
1.35721e-08
0.000371479
-0.000371486
-0.00028885
-2.82304e-08
0.000698677
-0.00069882
2.31173e-05
-2.9545e-07
-0.000186438
0.000187057
-0.00013407
0.000667695
0.000325957
0.000356094
0.000188991
0.000746229
0.000273728
-0.000631848
-0.000124998
0.000477346
-0.000677083
0.000647991
0.000326308
0.000349645
0.000113373
0.000694485
0.000122887
-0.000541601
-9.50192e-05
0.000110663
-0.000524362
0.000668575
8.08311e-05
8.22029e-05
-0.000141326
-0.000187891
-0.000233492
-0.000270793
-0.000264207
-0.000143866
3.02944e-05
0.0004672
0.0135453
0.0113565
0.0107851
0.0151166
-0.015964
0.0122596
-0.0117905
0.00921521
-0.00829082
0.00662594
-0.00561156
0.00457138
-0.00365719
0.00305313
-0.00230876
0.00201335
-0.000153917
0.00190148
-0.00235899
0.00260508
-0.00332267
-5.59696e-08
0.00332245
-0.0041164
0.00369641
-0.00290623
0.00352523
-0.00461649
9.99086e-05
-0.00438319
0.000250635
0.00365665
-0.000192772
0.00236031
0.00272675
0.000278119
-0.00349258
-0.00384078
0.00303112
-0.000203686
-0.00233862
0.000215276
0.00169925
-0.00153324
0.000173012
0.000940281
-0.000116953
-0.000174191
0.000455973
-0.000668607
-0.000273705
-0.000746236
-0.000188928
-0.000356007
-0.000325797
-0.000667498
0.000133544
-0.000180295
-2.30337e-05
0.000303365
-3.50471e-05
-0.000477336
-6.96456e-06
0.00012498
0.00067708
0.000631867
0.00052434
-0.000110702
-0.000108062
0.000288873
-1.49824e-08
-2.06568e-08
-2.03325e-08
3.00324e-08
5.32726e-08
5.73361e-08
1.00773e-07
3.75435e-08
2.28769e-08
-5.15357e-10
2.44893e-07
0.00437826
-0.000185419
-0.00752979
0.00122759
-0.0164942
-0.00730836
0.012951
-0.000321553
-0.00150784
-0.00121705
-0.000121685
0.000285653
-0.00133012
-0.000637404
-0.00467334
-0.00450793
0.0101143
0.0142429
-0.021332
0.000181568
0.0180493
-0.015197
0.0173663
0.000251919
-0.00412435
-0.0124319
-0.0124041
-0.0120948
-0.00720125
-0.0074745
-0.00123463
-0.00290938
-0.00208219
-0.00389105
-0.00206511
-0.00125902
-0.000625301
-0.000418259
-0.000653518
-0.000128893
-0.000421742
-8.33454e-05
-0.0133844
-0.0118057
0.00921267
0.00820707
0.000601348
-0.0106179
0.000439643
0.000156133
-0.00235801
0.00258157
-0.00249402
-0.000183819
0.00611408
-0.000451845
-0.00228846
0.00156315
-0.00529365
-0.00116836
-0.00536342
1.52285e-07
3.12117e-07
1.02802e-06
3.19513e-07
-2.77728e-07
-3.65056e-07
-3.11266e-07
-6.50913e-07
-2.92244e-07
1.1063e-08
7.4178e-08
-0.000267511
0.000267502
0.00037528
-2.17349e-06
-8.73029e-05
-0.00016839
-0.000275032
-0.000358281
1.43328e-07
-0.00125986
-0.000792772
-0.00047632
-0.000175434
5.65702e-05
0.00013504
-0.00462185
-0.0042087
0.00349232
0.00304892
0.000266981
-0.00364095
0.00438986
0.000351219
-0.00540674
0.00610238
0.000452403
-0.00774018
-0.000286837
-0.00882735
0.00698065
0.000499406
-0.00968653
0.0105784
0.000665497
0.000129915
-3.36535e-05
-0.000171598
-0.000400925
-0.00622717
0.00504176
0.000379795
-0.00680267
0.0078045
-0.000318384
5.81702e-05
-0.00221667
-0.0042268
-0.00187502
-0.00317869
0.00878819
-0.0115595
0.0356138
-0.00191856
0.00914821
-0.00303352
-0.00842063
-0.00487246
-0.00151693
-0.0031662
-0.000872703
-0.000161241
-0.00220708
-0.00131729
-0.00131791
-0.000806373
-0.00047093
-0.00021573
-0.000232306
-3.1256e-05
8.35799e-05
0.000132828
-0.00303141
-0.00272723
0.00233864
0.00206218
0.00019269
-0.00236034
-0.00027815
-0.000181899
-0.000200262
-0.000352684
4.94385e-05
0.000284443
0.00384025
-0.000245218
-0.000147544
0.00530206
-7.74822e-06
-0.00646156
0.000101805
0.00759797
-2.54822e-05
-0.00920336
0.000364978
0.0104434
-5.52202e-05
-0.0126183
0.00103509
0.0137511
-0.000184125
-0.016647
0.00290278
0.0184281
0.00401735
0.00129563
-0.000241101
0.0002411
-0.0184287
-0.00290208
0.0166466
-0.0012959
0.0178163
-0.00857625
-0.0191673
-8.35938e-08
0.0159361
-0.0042627
0.0195373
0.00588188
0.00657137
0.00116825
0.005294
0.00228826
-0.00192315
-0.00625098
0.00719359
-0.000701207
0.00730852
-0.0061138
-3.62928e-07
7.40343e-08
-1.22705e-08
-4.99684e-08
2.3546e-08
6.19069e-08
0.00167455
-0.0146122
0.0126118
-0.0109766
0.00943487
-0.00943545
-7.65981e-05
0.00790825
7.31037e-05
-0.00673037
3.71776e-05
0.00546456
5.74574e-05
-0.00460598
8.29682e-05
0.00363053
4.49961e-05
-0.00305081
0.000120703
0.00234194
4.48399e-05
-0.00200222
0.000199381
0.0014912
0.00011257
-0.00133042
-1.26266e-08
0.00133032
-0.000516066
-0.00125754
-0.000210831
0.00156415
2.14342e-05
-0.00181417
-0.000128692
0.00234781
1.34336e-05
-0.00283436
-7.40445e-05
0.00356719
4.83465e-06
-0.00435805
-1.07559e-05
-5.74788e-05
0.00460582
1.96263e-08
-0.0036308
0.00305085
-0.00234204
0.00200219
-8.37611e-08
-0.00149127
-0.000112653
-2.78679e-05
-7.51088e-05
-4.49429e-05
-0.000116407
-0.000173972
-0.000243694
-0.000319153
-0.000359381
-0.000301191
-0.00035903
0.000359155
0.0053633
0.00747477
0.00123423
0.000300036
0.0146121
-4.90146e-05
-0.0126124
-0.000426729
0.0109759
6.75996e-05
0.000202281
2.09735e-07
0.000427443
5.34501e-08
-6.52182e-08
7.71319e-05
-0.00790846
0.00673021
-0.00546484
-3.71404e-05
-4.72983e-08
-9.93352e-08
-3.14618e-08
-8.29974e-05
-3.17075e-08
-0.000120588
-5.44104e-08
1.29057e-08
-0.000199238
-2.1927e-08
2.22796e-08
0.000522205
-0.000224059
0.000237606
-0.000323293
0.000323258
-0.000237603
0.00071577
-9.23279e-05
0.000296667
-0.000686675
-0.000147067
1.67453e-05
-0.000616392
0.000676146
0.000260936
0.000760438
0.000201637
0.000354852
0.000673434
0.000337999
-0.000115838
-0.000258312
-8.7964e-05
7.03811e-08
-4.28652e-08
8.78878e-05
-0.000715823
-0.00029666
9.2264e-05
-0.000246057
0.000146967
0.000616362
-1.67525e-05
-9.9745e-05
9.50279e-05
0.000541626
-0.000122862
-0.000694412
-0.000113367
-0.000349636
0.000258596
0.000258315
-2.36152e-08
0.000117243
0.000246003
7.6359e-06
4.91073e-05
0.000350392
-0.000258581
-0.000128874
-1.22654e-08
-4.9102e-05
-0.000117259
0.000472563
-7.74881e-06
2.78389e-05
-2.50741e-08
1.95261e-08
2.1636e-08
8.95222e-08
-7.59498e-08
9.94008e-08
-0.000185183
4.93655e-05
0.000185395
-2.99563e-05
0.000183725
-0.0138449
-0.000466634
0.0133846
-0.000665776
-0.00921376
0.000285981
0.00774015
-0.000452154
-0.00610355
-0.00921503
0.000397953
0.00789113
-0.00995609
9.08421e-05
-0.00903445
0.0111708
-0.0137692
-4.36775e-05
-0.0123698
0.000342369
0.0117895
-0.0122587
-0.00820924
0.0106181
-0.000600749
0.0159634
-0.000251121
0.0151973
-0.0180483
-0.000181397
-0.0173672
-0.0151161
-0.0107861
-0.0004401
0.0118046
-0.011356
-0.0135466
0.00317882
-0.000285741
0.00132987
-0.0326688
0.000637857
-0.000154566
0.00467292
-0.0346577
0.00450816
-0.0142428
-0.0101149
0.00487192
5.1846e-07
0.000107164
0.000643198
0.0236254
-1.76749e-08
0.0199149
-0.0199146
0.000219119
-0.0163213
4.40689e-05
0.0137701
-0.0111707
0.0123681
-0.000342411
0.00903318
-9.10998e-05
0.00995668
-0.00789083
-0.000398467
0.0064071
-0.000115548
0.00690733
-0.00536941
-0.000328053
-0.00081256
-0.000483006
-0.000234296
3.44296e-06
3.5322e-05
5.70601e-06
0.000135327
0.000102088
0.00012582
-0.00193735
-0.00169971
0.00153313
0.00138617
0.000126535
-0.00148358
-0.000215411
-0.000150603
-0.000112912
-0.000172876
4.34737e-05
0.000125014
0.000354769
-0.00199609
0.00052325
0.000329754
0.000184516
0.000214868
0.000526929
0.000954559
-0.00188017
0.000207381
0.000119011
0.000120499
0.000116911
9.52513e-05
1.41495e-05
-0.000289008
-0.00138164
-0.000686923
-0.000417674
-0.000679552
-4.96999e-05
0.000110735
0.000132297
-0.0119429
0.0133121
3.86489e-08
0.0110903
-0.0110901
6.22481e-05
0.00933914
-4.47001e-08
0.00768881
-0.00768876
3.95664e-05
-0.00565844
-0.000100208
0.00461664
-0.00352526
0.00438257
-0.000250514
4.33533e-05
-0.0003574
-0.00026647
-0.000164901
-0.000178067
8.53172e-05
6.29814e-05
-0.00369665
-7.07075e-05
0.00300042
-0.00225926
0.00290595
-0.000193717
0.000113825
-4.60517e-05
-8.30176e-05
1.29218e-05
9.0443e-05
0.000191806
0.000519653
0.000328406
0.000203077
0.000885366
-0.00022401
0.000372263
-7.59941e-07
-0.000366895
0.000221746
-0.000884351
-0.000186719
-0.000196989
-5.204e-07
-7.64059e-08
4.02969e-05
6.15768e-06
3.25352e-05
2.42122e-05
0.000135257
0.00174267
-0.000157169
3.60311e-05
0.000203748
0.00258393
-0.000196734
-0.000109302
-4.499e-05
0.000109237
0.000147545
0.000183267
0.000264479
0.000144152
5.52332e-05
-0.0107838
0.000182353
0.009686
-0.000499704
-0.0069809
0.000401105
0.00540654
-0.000351098
-0.00439106
-0.00662521
0.000328402
0.00536967
-0.00690704
0.000115439
-0.0064078
0.00837761
-6.23459e-05
-0.00933897
-0.000110566
-2.00719e-07
-1.16924e-08
-7.06913e-07
0.000174067
-0.000173341
-0.00010681
-0.000643114
0.0213317
-0.0236255
-0.000119497
0.000121655
-0.000129815
-0.0001559
3.41007e-05
-2.68619e-08
9.19042e-05
-0.000202046
-6.73729e-05
-0.000183083
-7.29385e-05
6.67744e-05
7.26024e-08
1.19276e-08
-6.80076e-09
-3.53191e-08
-3.00851e-08
3.63246e-09
7.42625e-09
-8.21999e-05
0.000141364
0.000187883
0.000233541
0.00027082
7.28367e-06
-0.00579007
0.000297934
0.0046214
-0.000284576
0.00420776
0.000352439
0.00364079
-0.000267028
-0.0030495
-0.00457129
0.00561061
-0.000117062
-0.000135316
-5.75978e-05
0.000274483
0.000417515
0.000624312
0.000359485
0.00031914
0.000243869
0.000174143
0.000168152
8.71744e-05
0.000116495
4.3725e-05
1.93532e-06
-0.000375403
-0.000330085
-0.000184735
0.00130369
0.000157209
0.001227
-0.000125072
-0.000208506
0.00188019
-8.08259e-05
0.00011295
0.000150631
0.000181946
0.000200413
0.000171787
-9.17933e-05
-6.68079e-05
-0.000380061
-0.0055686
-0.00504187
0.00622643
0.00680231
0.007243
0.000318203
-0.00806908
2.52711e-05
0.0102345
0.000126941
0.000420846
0.0140311
0.00208
0.00116681
-0.0356149
0.0204209
0.017804
-0.00167042
0.0071993
0.012095
0.0211887
0.0177803
-0.0087881
0.0175608
0.0195577
0.017842
-0.00914812
0.0173697
0.0124304
0.0124056
0.00187531
0.00388944
0.00291347
0.00206528
0.00124667
0.00125952
0.000645366
-1.77232e-06
-0.000122576
-5.84626e-05
-0.00780521
0.0088254
8.29206e-05
-0.0105799
0.0042265
0.00221602
0.00131747
0.000806044
0.000792157
0.000353528
0.00047584
0.000245136
0.00322623
-0.00266794
0.000196702
0.00193726
-0.000135435