/*--------------------------------*- C++ -*----------------------------------*\
| =========                 |                                                 |
| \\      /  F ield         | OpenFOAM: The Open Source CFD Toolbox           |
|  \\    /   O peration     | Version:  2306                                  |
|   \\  /    A nd           | Website:  www.openfoam.com                      |
|    \\/     M anipulation  |                                                 |
\*---------------------------------------------------------------------------*/
FoamFile
{
    version     2.0;
    format      ascii;
    arch        "LSB;label=32;scalar=64";
    class       volScalarField;
    location    "2";
    object      gradTx;
}
// * * * * * * * * * * * * * * * * * * * * * * * * * * * * * * * * * * * * * //

dimensions      [0 -1 0 1 0 0 0];

internalField   nonuniform List<scalar> 
2658
(
0.0085955
0.0125575
0.00405373
-0.000323614
-0.01766
-0.0149288
0.0154689
0.0152716
-0.000281449
0.0211769
-0.0143583
-0.0104328
0.00695631
0.00828556
0.00633944
-0.000568138
-0.00028493
-9.17183e-05
-0.00696442
-0.0090159
-0.00856559
-0.0199145
-0.0238253
0.0179
-0.00756755
-0.00941203
-0.020262
-0.00290958
-0.0148382
-0.0159541
-0.0148381
-0.0202624
-0.00941258
-0.0238267
-0.00756712
0.0178998
-0.00967414
0.00452923
-0.0199111
-0.008568
-0.00901573
-0.00696404
-9.30594e-05
0.000611896
-0.0119598
0.0111797
-0.014358
-0.000540624
-0.000570137
0.00633962
0.00828599
0.00695613
0.0188772
-0.00401137
0.0212041
0.0174371
-0.00929899
0.000826731
-0.0329002
0.0176175
-0.00929845
0.0174374
0.021204
-0.00401073
0.00444484
-0.0347339
0.00437887
-0.000339003
-0.0111844
-0.0111857
-0.00046697
0.0111227
-0.000745012
-0.0119816
0.000264945
-0.0126229
0.0161694
-0.000103843
-0.0138222
0.0154396
-0.01858
-0.000361977
0.0199843
-0.0181301
-0.00046795
-0.000278579
-3.93948e-05
5.77962e-05
8.18426e-05
7.77359e-05
5.97043e-05
-0.000131452
0.000118315
-0.00081667
0.000548112
-0.000100556
-0.000679486
3.43939e-06
0.000683267
-0.000557618
0.000301083
0.000772889
0.000682912
0.000549123
0.000571936
-0.00116962
-0.000222917
-0.000159404
-5.96458e-05
0.000319042
0.000684962
0.000271817
0.000543172
0.000271779
0.000684969
0.00031902
0.000571974
-0.00116961
0.000682967
0.000549189
0.000772884
0.000301027
-0.00055765
0.000683281
-0.00108971
0.00109204
-0.000816645
-0.000100542
-0.000679494
0.000548084
-0.000307109
-0.000754236
-0.000513747
-0.000467073
-0.000299386
3.30156e-05
-0.000140587
-0.000832355
0.000669502
0.000669149
-0.000140539
3.28527e-05
0.000312782
-0.000329395
-0.000378727
-0.000328623
0.000179388
0.000230155
-0.000663069
-0.000689937
-0.000575725
-0.000729655
-0.000714607
-0.000739573
-0.000575588
-0.00101888
-0.000924567
-0.000391306
-0.000448395
-0.000327148
3.23141e-06
3.72763e-07
-5.82588e-06
0.000313396
0.000445502
0.00039783
0.00094112
0.001177
-0.000272002
0.000779576
-0.00202127
0.00240299
-0.00294512
0.00370306
-0.00449782
0.00562332
-0.00674006
0.00826519
-0.00975386
0.0117209
-0.0135686
0.0161064
-0.0181339
0.0219821
-0.0219803
0.0233537
-0.0241287
0.0211763
-0.0176609
-0.000323689
-0.0149279
0.00437809
-0.0347333
0.00444494
-0.010433
0.00414579
-0.000468016
-0.000278601
-3.95711e-05
5.76339e-05
8.19193e-05
7.78027e-05
5.97231e-05
-0.000131463
0.00011834
5.85996e-06
-0.000295463
-2.21504e-05
0.000411577
0.000411564
-0.000295489
5.88612e-06
-2.20623e-05
0.000133035
0.00109207
-0.00108977
7.56068e-05
0.000839503
-7.82611e-05
2.58103e-05
-0.000123589
1.0142e-06
1.12492e-05
0.000113396
7.69141e-05
0.000113394
-7.83838e-05
-0.00022288
-0.000539243
-0.000159371
0.00011915
0.000119158
-0.000539263
-2.24399e-05
0.000337916
-0.000401956
-0.000402005
7.00998e-06
0.000337967
-7.10454e-06
-7.2353e-05
-9.51979e-05
-8.80743e-05
0.000394571
-8.96417e-05
-2.8672e-05
-0.000655245
7.63081e-05
-0.000274039
0.000428554
0.000444398
0.000979226
0.000694406
-0.00186302
0.00126947
-0.00215714
-0.00215703
-5.3347e-05
-0.00228254
4.98363e-05
0.00265439
-0.00339146
3.86732e-05
0.0041088
-0.00512314
6.04214e-06
0.00616951
-0.00752045
-5.84191e-05
0.00892129
-0.010592
-0.000180342
0.0124715
-0.0142136
-0.000348467
0.0173025
-0.0177567
-0.000975795
0.0271914
0.00442813
0.0317718
0.0317717
-0.00290907
0.00704421
-0.00255668
0.0101283
0.000517203
-0.00643073
-0.00643074
0.0069967
-0.000349615
-0.0082539
-0.00825378
0.00220677
-0.00264769
-0.011665
-0.011665
0.00392023
0.0165312
0.00392033
0.00628493
0.018061
0.00760886
0.0103647
0.0134502
-0.0201637
-0.0117312
0.0115279
0.0075448
-2.37751e-05
0.00220686
-0.00132806
-0.00341535
0.0140872
-0.0102969
0.00638036
0.0148236
0.00847327
-0.00449331
-0.00604359
-0.00449309
-0.00341552
-0.0117309
-0.0201634
0.007609
0.0180616
0.00628537
0.011528
0.00754493
0.00847436
0.0148224
0.00637933
-0.0102971
0.0140867
0.0017423
0.0127847
-0.000324185
-0.0133461
0.020631
-0.000327639
-0.00367703
-0.021243
-0.000385391
-0.00248716
0.000149128
0.000123004
6.00999e-05
3.45539e-05
2.02402e-05
7.26628e-06
-1.56534e-06
-4.84959e-05
0.00204418
-0.00221166
0.00222772
-0.00200995
0.00232549
-0.00303681
0.00366143
-0.00464711
0.0056126
-0.00693451
0.00830729
-0.00998822
0.0118337
-0.0138212
0.0161685
-0.0181296
-0.000281256
0.0152717
0.015467
0.0111247
-0.00869297
0.00026266
-0.00869126
0.00822367
0.0113632
0.0112687
-0.00922271
-0.00896277
0.000340211
0.00798184
6.07435e-05
0.0118349
-0.000192092
-0.0135683
0.0132194
-3.07014e-05
-0.0111682
0.0103237
-0.0124132
-2.70628e-05
-0.0154387
-6.04526e-05
0.0180226
-0.0201161
-0.00010853
-0.0241287
-0.000776276
0.0111796
-0.000540662
0.00174267
-0.0212432
-0.00367686
0.000653122
-0.000287347
-0.000234902
-0.000200364
-0.000122922
-6.18773e-05
-2.83702e-05
-1.19832e-05
-4.58644e-06
-5.09821e-07
1.12662e-05
1.03051e-06
-0.000123523
6.97448e-06
2.57975e-05
0.00083949
7.55529e-05
-3.34143e-05
-0.00103416
0.000918427
-0.000921919
0.000996684
-0.000419855
0.00185832
-0.000532697
0.00136508
0.000118283
-0.00191152
-0.00191988
0.0016613
6.28733e-05
-1.1061e-05
-0.000192345
4.76592e-06
0.000217886
0.000438728
0.000568709
-3.69977e-05
6.10063e-05
0.000242056
7.59928e-06
-7.97079e-05
-7.49069e-05
-0.000130451
-0.000219431
-0.000195814
8.36989e-05
9.52913e-05
4.30361e-05
-0.00242948
0.00261823
-0.00337432
0.00339684
-2.26745e-05
-0.00266015
-1.88255e-06
6.46641e-07
2.55409e-06
5.57086e-06
-0.000136068
-0.000204768
-0.000363467
-0.00034215
-0.000508257
-0.000623236
1.28859e-05
6.52927e-05
7.22505e-05
-0.00589577
0.00630244
-0.00774585
0.00779038
-7.00775e-05
-0.00643411
0.00521412
-4.40634e-05
-0.00419863
-4.63344e-06
0.00412074
-0.00518097
1.45208e-05
-0.00384274
0.00313586
1.40294e-05
3.812e-06
-7.78177e-05
-0.00228226
7.42377e-05
0.00169259
7.18399e-05
-0.00188204
-0.000968127
0.000358101
-9.84478e-05
-3.14169e-06
-1.4841e-05
3.06348e-05
-3.93607e-05
3.46308e-05
-0.000229346
-0.000351412
-0.000218927
0.000103385
-0.000113567
-0.00011825
-5.59493e-05
8.80443e-05
0.000162044
0.000253684
7.89416e-06
8.00473e-06
-0.000300423
-0.000473668
-0.00108824
-0.000735789
-0.00136024
-0.00243597
-0.000484231
-0.000118949
6.63018e-05
-0.012413
0.0132188
-0.0154391
0.0154399
-0.000192626
-0.0135675
0.0112119
-0.00011178
-0.00951859
-1.55951e-05
0.00930312
-0.0111683
-1.90498e-06
-0.00872422
0.00718421
1.01407e-05
4.83414e-06
6.7208e-06
-9.80837e-05
-0.00339134
4.05786e-05
0.00265445
4.99677e-05
0.000191128
-0.00308988
0.00358642
-0.00466749
-0.00466744
-1.15384e-05
0.0055292
6.53315e-05
-0.00694123
-1.05174e-05
0.00817083
-6.81217e-06
-0.00993018
-1.878e-06
0.0116013
-0.000214092
-0.0134588
7.80691e-05
0.0159476
-0.000932321
-0.0168484
0.000518515
0.021863
-0.00370219
-0.017317
-0.00232879
-0.0173166
0.00442806
0.0271917
-0.000975537
-0.0177557
-0.000735884
0.0173018
-0.000348331
-0.0142134
-0.000374987
0.012472
-0.000180018
-0.0105904
-0.000168489
0.00892174
-5.80908e-05
-0.00752011
-6.42853e-05
0.00616951
6.37836e-06
-0.00512295
-3.21871e-06
0.00410885
3.8961e-05
0.000116534
-0.000178232
-0.000160502
-0.000131659
0.000551304
4.24008e-05
-0.000262507
-0.0003798
-0.000470964
-0.000601364
-0.000770895
-0.0008941
-0.000707904
0.000216897
0.00143281
-0.00139813
-0.0113374
-0.0113375
-0.011696
-0.00966744
-0.00344459
-0.00127957
-0.00524956
0.00852503
0.0137863
0.000258208
6.69768e-05
0.000808514
-0.0037017
0.0218617
0.000519038
-0.0168483
-0.00155991
-0.000526912
-0.000516428
7.88926e-05
-0.0134587
0.0159472
-0.000932313
-2.13844e-05
-0.000153157
-0.000214462
0.0115997
-1.41459e-06
-0.00992947
-0.000278883
-0.000446052
-0.000357253
-0.00026283
-1.12579e-05
0.00552913
-0.00694123
0.00817054
-6.78465e-06
-0.000157218
-0.000128812
1.57555e-05
9.88959e-06
1.41234e-07
-9.82026e-05
-5.33238e-05
0.00223438
0.000133872
0.00223455
0.000190975
-0.00308971
-2.03964e-05
0.00358679
0.000116686
-9.8093e-05
-0.000173133
-2.03356e-05
4.65096e-05
-7.77859e-05
-9.84213e-05
-0.00188212
7.18473e-05
0.00169256
0.000358047
0.00126941
-0.000274035
-0.00186308
0.0001596
0.000694418
0.000979234
0.000444342
0.00117704
0.000428574
0.000153534
-0.000368491
0.000207356
-8.9657e-05
-9.51606e-05
0.000394559
-8.81244e-05
6.00081e-05
2.63466e-06
3.20149e-06
2.61107e-06
6.46477e-07
3.42472e-06
6.00255e-05
-7.06995e-06
0.000207362
-5.96945e-05
-0.000368513
0.000153547
1.91752e-06
0.000117228
0.000100039
-6.38945e-05
-0.000387518
0.000117005
-0.000206324
0.000386157
0.00117736
-0.000689475
0.00023169
0.000106018
5.99278e-05
5.50891e-05
6.5885e-06
-1.85113e-06
-1.49188e-06
-6.32321e-06
-1.40154e-05
-3.15525e-05
1.88993e-05
2.60989e-05
6.20255e-05
0.000169745
-0.0012605
-0.00337665
0.0136933
-0.00255663
0.00704433
-0.0151847
-0.00702862
-0.00702794
-0.0151856
-0.00772397
4.90357e-06
-0.0136446
0.0228832
0.00156421
-0.000936292
-0.0165542
-0.001542
0.00971883
-0.00730286
-0.0158848
-0.0131171
-0.0135689
-0.00922428
0.000888567
0.0019497
0.000890393
0.000254759
-0.0129081
0.000890821
-0.00772317
-0.0136449
5.56229e-06
0.00440796
0.00156472
-0.0165543
-0.000936017
0.00207381
-0.000327543
0.0206313
-0.0133466
-0.000323696
0.0127855
0.00101066
-0.000573199
0.00195034
0.00157517
-0.00430361
0.00440826
0.00307386
0.000180123
-0.00151039
-0.000572605
-0.000187653
0.0010101
-0.00189325
-2.38691e-05
-0.00132794
0.000653126
-0.000287422
-0.000776541
-0.000310869
-6.37204e-05
-5.50336e-06
3.40461e-05
-0.016914
0.0180226
-0.020117
0.0199849
-0.000362847
-0.0185795
-6.02438e-05
-0.000282481
0.000630934
0.000389313
-0.000191753
-0.000144152
-0.000108798
-8.10173e-05
5.8903e-05
0.00481544
-7.70013e-05
-9.73163e-05
-0.00294709
0.000145348
-0.00294453
0.00352863
0.000206202
-0.00442583
-0.00446223
0.00359535
0.000106982
0.00544704
0.00028179
-0.00642781
-0.00653625
0.000105784
0.00798253
0.0003392
-0.00896151
-0.00922331
6.10699e-05
0.0112691
0.000264646
-0.0119806
-0.0126245
-0.000103018
0.000792311
0.00141632
0.00461428
-0.000249297
-0.000276837
-0.000123524
-0.00045206
0.00298192
0.00315809
0.00405279
0.00216395
0.00130069
0.00081624
0.00050854
0.000288462
2.0237e-05
-0.00010694
-0.000213133
-0.00212044
0.000181148
-0.00211957
0.0025531
0.00025268
-0.00321278
-0.00321374
0.00255403
0.0001373
0.000104704
6.91227e-05
-2.81325e-05
7.33783e-06
-0.000143598
-0.000177067
0.00170864
-0.000176477
0.00108138
0.000142821
-0.00133118
-0.00133229
0.00108264
-0.000111719
0.000532619
-0.000104932
-0.000105669
0.000759622
-8.623e-05
0.00053311
-0.000533371
0.00185888
-0.00041959
0.00166123
0.000118231
-0.00191945
-0.00191258
0.00136665
-0.000143519
-2.81248e-05
-3.15564e-06
-1.57315e-06
7.41967e-05
-0.00202131
-4.84259e-05
-0.00242965
1.41513e-05
-0.00337455
-4.56169e-06
-0.00419856
-4.40257e-05
0.00521456
-0.00464766
0.000106975
-0.00446188
-0.0044269
0.000205793
0.00359533
-0.00294674
-0.00294529
0.000144969
0.00233685
9.56398e-05
0.00366201
-0.00303738
0.00339709
-0.00266019
-2.26606e-05
0.00232608
6.28958e-05
-0.00201047
0.00222791
-1.90746e-06
0.00261839
-0.00221179
0.00204418
-0.00103421
-1.47963e-05
0.000918469
1.44656e-05
-0.000922005
7.37531e-06
0.000997052
0.000632521
-0.00032713
3.28386e-06
3.45867e-05
-3.92439e-05
3.06388e-05
0.000241979
0.000568724
0.000551414
-0.000131708
-0.000160525
-3.69285e-05
-0.000130559
-0.000178933
-0.000225662
-0.000219516
-0.000341978
-0.0002897
-0.000288057
-0.000224816
6.50662e-05
-0.000282979
-0.000286247
-0.000507553
-0.000736149
-1.90107e-05
-1.45627e-05
0.000395633
0.000395224
-0.001362
-0.0116969
-0.00967608
-0.00344848
0.0219819
0.00010525
-0.0219797
0.000258337
-0.0119595
-0.000452017
-0.000385335
-0.00248712
0.000149266
0.000122974
6.02392e-05
3.45048e-05
2.02452e-05
7.27067e-06
4.05697e-05
-0.00294522
-7.05906e-05
-0.0038428
1.44716e-05
-0.00518121
-7.89908e-06
-0.00643444
-6.99895e-05
0.00779068
-0.00693521
0.000105498
-0.00653584
-0.00642919
0.000281784
0.00544658
0.00540152
-0.000298082
0.00390614
0.000332082
-0.00466988
-0.00467091
0.00390718
-0.000297933
0.00540045
-0.000121577
0.000520842
0.000297958
0.000138387
0.000323181
-0.000111659
-0.000219126
-0.000574974
-0.000743455
-0.000552409
-0.000299321
-0.000467233
-0.000513952
-0.000689276
-0.000754345
-0.000307124
-0.000448338
-0.000391319
0.000231982
-0.000924745
-0.00101924
-0.00035146
-0.000192432
4.75941e-06
0.000217788
0.000445468
0.000313366
-3.34938e-05
-5.76059e-06
2.50813e-07
-0.000519656
0.00077962
-0.000968148
-0.000272075
0.000397979
0.000940932
0.000438454
7.75861e-06
6.0858e-05
9.51497e-05
0.00240303
4.30781e-05
0.00313591
-7.98181e-05
-7.43495e-05
8.32971e-05
0.00370295
-0.0044984
-7.68232e-05
-0.00589644
1.02634e-05
0.00718411
-0.00774601
-1.55859e-05
-0.00951903
-0.000111958
0.0112119
-0.00998864
0.00830813
-0.000143683
7.88403e-05
-0.00872466
-2.1093e-06
0.00930358
-2.84069e-05
-1.20217e-05
-4.58361e-06
-4.56987e-07
3.85426e-06
6.88063e-06
4.7729e-06
-0.000128672
-0.000156937
-3.17588e-06
-3.0923e-06
-1.41055e-05
-2.69972e-05
0.0142133
2.44829e-05
-5.96288e-06
-5.49929e-05
0.0184182
0.000105171
-0.000335511
-0.000211554
-0.000143512
-9.95833e-05
-6.78638e-05
-4.16908e-05
-0.000147616
0.00223965
0.00163609
0.00163518
0.00224083
-0.000147573
-4.16809e-05
-6.79864e-05
-0.000212993
0.00352983
-0.000106724
-8.33845e-05
0.000103612
0.00028877
0.000508678
-0.000121413
-6.63573e-05
-9.697e-05
-8.09034e-05
5.92215e-05
0.00481555
-0.000136503
-0.000194819
6.4734e-05
0.00562345
-0.00674033
-8.23792e-05
0.00826535
-0.00975415
-6.76644e-05
0.0117212
-0.0135693
2.55054e-05
-0.0169142
-5.48148e-05
0.0184168
-0.0181351
-0.000735547
0.016106
-0.00037563
-0.000483808
-0.000119559
1.23276e-05
-0.00036198
-0.000205375
-0.00030194
-0.0006192
-0.000474789
-0.00108094
-0.00127916
-0.00244115
-0.00525231
0.00852448
-0.00967379
0.00452741
-0.0135692
-0.0158846
-0.0073028
0.00971902
-0.00154236
0.000611555
0.0137857
-0.000122666
0.0233538
-0.000200417
-0.000122928
-6.20326e-05
-6.71504e-05
-0.000132506
-6.22804e-06
-2.11678e-05
-0.000153062
-1.42749e-05
-0.000211514
0.000103482
0.000150017
-0.000143521
-9.94865e-05
-0.000402016
0.00797728
0.00577743
0.000380565
-0.00650025
-0.0065013
0.00577867
-0.00040209
0.00797634
-0.000116308
1.21992e-05
0.000316021
-6.71909e-05
0.000147087
0.000231146
0.000630095
-5.43676e-05
0.0113612
0.00822522
-0.00053755
-6.448e-05
-0.000280996
0.00237777
-0.000141796
0.00699677
-0.000200387
6.70171e-05
0.00080874
0.00307281
0.0101288
-0.00430414
0.000179712
-0.00151022
-0.00922375
0.0228827
-0.0131168
0.000888885
-0.000187895
-0.000905931
0.00414583
0.000826308
0.00178508
0.00421706
9.11747e-05
-0.000745192
0.00178437
0.0125566
0.00859831
0.0217725
0.0120542
0.0176181
0.0195426
-0.000339115
0.00225268
0.00135187
0.00084114
-0.000116096
0.000815752
0.00130084
-5.38055e-05
-0.000537752
0.000232144
1.22575e-05
0.000253608
0.000162139
8.82912e-05
-1.09267e-05
5.80161e-07
2.37398e-06
5.21053e-06
7.25288e-05
0.00630287
7.30787e-06
7.44626e-06
6.70153e-05
0.0142121
3.43494e-05
-0.000281423
-0.000191223
0.000388925
0.000630843
-6.37212e-06
-6.46399e-05
-0.000248644
-0.000311512
0.00141635
0.00461369
0.00298155
0.000792128
9.21552e-05
0.00216238
0.0013431
0.00315884
0.000630846
-0.000108734
0.00561335
-5.58835e-05
-0.000117986
-0.000228933
-0.000113232
2.0424e-05
0.000148005
0.00032049
-0.000335352
0.00133657
-0.000169098
-6.44671e-05
-3.23769e-06
0.00412083
-8.34492e-05
0.00233694
9.55797e-05
0.000100027
0.000117205
1.91828e-06
-0.000206355
0.000146904
0.000116973
-0.000387565
-6.39048e-05
7.23064e-07
0.00117722
0.00038643
-0.000832474
-0.000705697
0.00075798
-8.65869e-05
0.000312483
-0.000551643
7.8306e-05
0.0103236
-6.71347e-05
-0.000108385
0.00207389
-0.000200078
-0.00189377
0.000133019
0.000730883
-1.00574e-05
-0.000132383
-4.36647e-05
-0.000668989
-8.25066e-05
-3.04971e-05
-7.04616e-05
-8.06722e-06
-0.00051967
1.44673e-05
0.000632896
0.0134508
0.0103651
0.000189599
-0.00127786
0.000189071
0.0188774
0.0217736
-0.000351068
-0.000218927
0.0001036
0.000118283
0.00166123
0.00136524
-0.00191167
-0.0019197
6.28981e-05
-0.00200999
0.000996677
0.000632824
-0.000391439
-0.000448467
-0.000327132
3.20336e-06
3.86792e-07
-5.80863e-06
0.000313488
0.000445457
0.000397853
0.000941318
0.00117701
-0.000968113
0.000428563
0.000444415
0.000979266
0.000153639
0.000694422
0.00073088
0.000694431
0.00097925
0.000444439
0.0011771
0.000428565
-0.000968082
0.000779569
-0.000272029
0.000941162
0.000397935
0.000445553
0.000313427
-5.82159e-06
-3.34246e-05
0.000918497
-0.000921931
0.000996912
3.45634e-05
3.33225e-06
-0.000327194
-0.00044855
-0.000391342
-0.000924913
0.000231779
-0.00101921
-8.62369e-05
0.000533087
-0.00017655
0.00170861
-0.000105005
0.000532613
-8.66268e-05
-0.00101885
0.000231659
-0.000419866
0.00185835
-0.000532721
-0.00014359
0.00108246
0.00108139
0.00014271
-0.00133212
-0.000147629
0.0022399
0.000145106
0.00233693
-0.00303707
9.57394e-05
0.00366142
-0.00419842
0.00339688
-2.26767e-05
-0.00266003
0.00232548
5.97074e-05
7.77643e-05
8.19785e-05
5.79509e-05
-3.92745e-05
-0.0002782
-0.000467537
0.00414601
-0.00341543
0.0140871
-0.0102966
0.00174248
0.0127851
-0.000324062
-0.0133465
0.00971884
-0.00730271
-0.0158843
-0.0135687
-0.0131166
-0.0136448
0.0228828
0.00440793
0.00307362
4.81056e-06
-0.00772427
-0.0151854
-0.00702866
-0.0129083
-0.00702823
-0.0151862
-0.00772408
-0.0136454
0.0228827
-0.0135686
-0.013117
-0.0158847
-0.00730275
0.00971882
-0.0133466
0.020631
-0.021243
0.0140867
0.00174287
0.0127854
-0.0102967
0.00637878
0.0148219
0.0103645
0.00760837
0.0180606
0.00628537
0.00391991
0.0115275
-0.0116655
-0.0116652
0.00391991
0.00628489
0.0180603
0.00760833
0.0103641
0.0134493
0.0148233
0.00637986
0.00828568
0.00695569
-0.00401177
0.0188767
0.0212036
0.0217715
0.0174372
0.0176174
0.0195423
0.0176178
-0.0329005
0.000825992
0.000826511
-0.00929993
0.0174369
0.0217715
0.0212037
0.0188775
0.00695528
0.0082856
0.00633998
-0.000567956
-0.000284657
-9.17388e-05
-0.00696437
-0.00901592
-0.00856616
-0.0199126
-0.023825
0.00452802
-0.00967387
0.0219816
-0.0181343
0.016106
-0.0135692
0.0117205
-0.00975405
0.00826484
-0.00674046
0.0056235
-0.00449797
0.00370301
-0.00294526
0.00240303
-0.00202134
0.00204413
-0.0022116
0.0022278
-0.00201026
0.0016611
0.0001181
0.00136644
-0.000533357
0.00185886
-0.000419667
0.000632549
-0.000131475
5.97267e-05
7.78851e-05
8.19182e-05
5.76439e-05
-3.9577e-05
-0.000278568
-0.000467852
0.0041458
-0.00341536
-0.00132811
0.00220671
0.000652958
-0.00825375
-0.00825382
0.00220672
-0.00132802
0.00065309
-0.00367693
-0.0212432
0.0206311
-0.00154219
-0.0165544
0.00156415
-0.00093635
0.00207392
-0.000327385
-0.000385371
-0.00248725
-0.00126062
-0.0024872
0.00156388
0.00440785
0.0101282
0.00307377
-0.00255688
-0.00255673
0.0101283
0.00051683
-0.00643082
0.00699663
0.00699655
-0.000200304
-0.0064308
0.000179681
0.00157517
0.00194957
0.000888962
-0.00922413
0.000889639
0.000254091
0.0136935
-0.00337697
0.00442782
-0.00756762
-0.00941265
-0.0202636
-0.0148384
0.0317722
-0.0173169
0.0218617
0.0218626
0.000518678
0.0173022
-0.000348214
-0.0142136
0.0124718
-0.000179886
-0.0105906
0.00892147
-5.81e-05
-0.00751997
0.00616961
6.30941e-06
-0.0051233
0.00410896
3.88503e-05
-0.00339139
0.00265449
4.98104e-05
-0.00228241
0.00169265
7.18639e-05
-0.00188192
-0.000273961
-0.00186294
-0.00186294
0.000153607
-0.000368398
0.000119179
-0.00053922
-2.24609e-05
0.000337963
0.000337918
-0.000401933
-1.84308e-06
0.000411573
0.000411563
-0.000295494
5.99224e-05
0.000669458
0.000669131
-0.000140571
0.00017938
-0.00032861
-0.000329429
-0.000552392
-0.000299341
-0.000467302
-0.000514012
-0.000754387
-0.000307176
0.000548116
-0.000816744
0.000118298
0.000386407
0.00117721
-0.000689487
-0.000387595
-6.39226e-05
-0.000679499
3.46537e-06
0.000683265
-0.00108967
1.03386e-06
0.000133023
0.00109204
-0.000100588
1.12561e-05
0.000113422
-1.54544e-06
7.2418e-06
2.02029e-05
3.45557e-05
6.01838e-05
0.000123136
0.000149273
0.000105241
-0.0219803
0.0233538
-0.0241286
0.0211761
-0.018129
0.0161683
-0.0138206
0.0118331
-0.00998776
0.00830691
-0.00693465
0.00561261
-0.00464736
0.00366174
-0.00303724
0.00232595
6.27741e-05
-0.00191942
-0.00191236
-0.00133145
0.00163526
0.000181254
0.00163582
-0.00212007
-0.00294482
-0.00294689
0.00359534
0.00352904
0.000205682
-0.00446204
0.000107249
-0.00464756
-4.39162e-05
0.00521426
-0.00518098
-7.89449e-06
0.0063025
-0.00589574
0.00481541
1.45989e-05
0.0041206
-4.5031e-06
-0.00337432
0.00261822
-1.90817e-06
0.00222778
7.35286e-06
-0.000921928
3.47055e-05
-0.000100575
0.000548121
-0.000307202
-0.000754324
-0.000513928
-0.000467105
-0.000299403
-0.000551591
0.000312452
-0.000140606
3.30497e-05
-0.000832318
0.000386155
5.84038e-06
0.000118322
0.00117731
-0.000816636
0.00109203
0.000133041
-2.2102e-05
-0.000295462
5.51044e-05
6.91441e-05
0.000104735
0.000137264
0.000150028
0.000103484
-6.42318e-05
-0.000280846
0.00237777
-0.00264794
-0.00604368
-0.00449323
-0.00189374
0.00101041
-0.000188082
-0.000323579
-0.0015102
-0.0165542
-0.000936223
0.0020738
-0.000200052
6.69193e-05
0.00025827
-0.0119599
0.0111798
-0.0143581
0.00444476
-0.034734
0.00437789
-0.0149282
-0.000323067
0.0154676
0.0152715
-0.017661
-0.000281153
0.00141613
0.00461429
-0.000249044
-0.00525119
-0.00966925
-0.0116959
-0.00135961
-0.00244608
-0.00344782
-0.00127905
-0.00047459
-0.00107789
-0.000737522
-0.00050942
-0.000618601
-0.000119279
-0.000484144
3.4379e-05
0.018417
-0.0201161
0.0180221
-0.0185794
-0.000362662
0.0199846
-0.000108743
-0.000200317
-0.000385479
-0.000327603
-0.00367699
-2.3986e-05
-0.000572779
0.000180054
-0.00430356
4.89539e-06
0.00704428
-0.00290915
-0.0113376
-0.00139738
0.00143365
0.000216743
-0.000709087
-0.000894118
-0.000771551
-0.000601449
-0.000471234
-0.000379727
-0.000262496
4.25822e-05
0.000551357
0.000551381
0.000568694
-3.69235e-05
-0.000130771
-0.000220027
-0.000343085
-0.000361137
1.25626e-05
-0.000301391
-0.000205549
-0.000136575
-0.000193972
6.5023e-05
7.25528e-05
0.00718394
-0.00774601
0.00630236
-0.00643399
-7.00336e-05
0.00779061
-0.00951834
-0.000111708
0.0112118
-0.0135679
-0.000191996
0.0154385
-5.96797e-05
-0.0154384
0.013219
-2.73959e-05
0.0142127
-0.0169146
-5.50306e-05
-5.9755e-06
-0.000122764
-6.19924e-05
-3.06705e-05
-0.0111681
0.00930291
-1.78352e-06
0.0103231
-0.0124128
-6.74826e-05
6.73657e-05
-6.12548e-06
-6.46693e-05
-0.000123074
0.0137858
0.000611841
-0.00154221
0.00852394
-0.000310979
-0.000540187
0.00298092
0.00859618
0.0125561
0.00405194
0.00316604
0.000792676
-0.000282489
0.000631148
0.000389357
7.49371e-06
7.61902e-06
5.20422e-06
2.47933e-06
-7.98914e-05
-7.29858e-05
8.35529e-05
5.9234e-05
0.00481542
-0.00518106
0.00412071
-0.00419855
-4.41145e-05
0.00521441
-8.0977e-06
-1.20135e-05
-2.83701e-05
-1.55987e-05
4.81379e-06
1.02961e-05
-0.00589616
-7.70476e-05
-0.000128674
0.00616941
-6.42258e-05
-0.00752078
-5.84947e-05
0.00892148
-0.000167895
-0.010591
-0.000180316
0.0124711
-0.000374555
-0.0142132
-0.000349413
0.017302
-0.00073588
-0.0177556
-0.000975686
0.0271912
0.0178992
-0.00370262
0.000808662
0.000808576
0.0271917
-0.000975574
-0.0177555
-0.00370251
-0.0173161
0.00442817
0.0317718
-0.00232825
-0.0148381
-0.0202624
-0.0094122
-0.0238261
-0.0075675
-0.00290896
0.00704431
-0.00430373
0.000889987
0.0019501
-0.00922403
0.000889141
-0.00151036
-0.000573195
-0.00090598
-0.000349678
-0.000141863
-0.000234881
0.000169715
-0.000527181
0.000518688
-0.0168476
0.0159483
-0.013459
0.0116002
0.0115999
-1.31805e-06
-0.00993006
-6.51286e-06
0.00817036
-1.02255e-05
-0.00694123
6.54805e-05
0.00552912
-1.14088e-05
-0.00466789
0.000116685
0.00358672
-2.03967e-05
-0.00308977
0.0001911
0.00223445
-5.33079e-05
-0.00215708
0.000358191
0.00126956
0.0001596
0.00126947
-0.000273983
-0.00188202
7.18291e-05
0.00169263
7.42562e-05
-0.0022824
4.98561e-05
0.00265441
4.07004e-05
-0.00339148
3.87614e-05
0.00410875
-3.13658e-06
-0.00512333
6.0763e-06
6.53495e-05
0.00552904
-4.34066e-05
-0.00466755
0.00358656
-0.00308965
0.00223445
0.000133767
-0.00215705
0.000358038
-9.8407e-05
-7.77712e-05
0.000191107
-0.00016082
-0.000179043
-0.000225931
-0.000289941
-0.000285351
-1.62523e-05
0.0003958
0.000396187
-0.0113374
-0.0116957
-0.00135949
-1.72193e-05
-0.0168468
-0.000933007
0.0159482
7.85676e-05
-0.0134588
-0.000214292
-0.000153068
-0.00051661
7.81996e-05
-0.00066856
-0.00044595
-1.53212e-06
-0.00992981
0.00817063
-0.00694146
-1.04507e-05
-0.000356904
-0.000131521
-0.000262654
-1.15293e-05
-0.000173097
-2.04529e-05
4.67926e-05
-9.81894e-05
-5.33004e-05
7.63414e-05
-0.000655083
0.000119192
-0.000368364
0.000685032
0.000271936
0.000271894
0.00068506
0.000319106
-5.96219e-05
0.000571969
-0.00116959
-7.83612e-05
2.58355e-05
0.000839483
7.55507e-05
-0.00055761
0.000301093
0.000772949
0.000549246
0.000682969
0.000394587
-8.80835e-05
-9.5203e-05
-8.96028e-05
-2.86557e-05
0.000543166
-8.96434e-05
0.000319098
0.000572034
-5.96493e-05
-0.000222869
-7.8257e-05
0.000839512
2.58093e-05
-0.000123543
9.99771e-07
-0.00108969
0.000683292
3.41423e-06
-0.000679498
-6.39116e-05
2.62073e-06
-9.51203e-05
-7.23554e-05
0.000207357
-0.000222905
-0.000159366
-7.06391e-06
6.00019e-05
2.65298e-06
7.22454e-07
3.19827e-06
-7.08492e-06
0.000207385
-0.000539243
-0.000159218
-9.84419e-05
1.50595e-07
9.89798e-06
1.57546e-05
1.88644e-05
2.61903e-05
6.19361e-05
-2.1394e-05
-0.000931901
-2.13922e-05
0.000149067
-0.000735489
0.021982
0.000104988
0.0184178
-5.47544e-05
0.0180227
-6.00922e-05
0.0154399
-0.00019228
-0.0135676
0.0118339
6.1384e-05
0.00798174
0.00797671
0.000339396
-0.00922335
0.0112674
0.011362
0.000264237
-0.0126241
-0.00010254
-0.0138224
0.0161685
-0.0185796
0.0199843
-0.000362068
-0.0181302
-0.000280609
0.0152704
0.0154682
-0.000323633
-0.0176604
0.0211771
-0.0241287
-0.000108494
-0.0201163
0.0233539
-0.0219802
0.0137862
0.000258316
-0.0119599
-0.000451997
0.01118
-0.000776463
-0.0143585
-0.0104324
0.0044447
0.00437875
-0.0347348
0.0125568
0.0120534
0.0017842
-0.000339187
-0.0111864
-0.000466363
0.0111225
0.011124
-0.000743852
-0.0119795
0.000264412
0.0113607
0.0112689
-0.012624
-0.000103476
-0.00922337
0.000339795
0.00797626
0.00798236
6.10485e-05
-0.0065362
0.000281719
0.00540026
0.00544694
0.000105669
0.000253893
0.000162418
8.83044e-05
-1.09606e-05
4.96888e-07
7.70055e-06
5.98649e-05
9.52475e-05
4.30822e-05
0.00313584
-0.00337435
0.00261848
-0.00266023
-2.25479e-05
0.00339705
-4.62077e-06
-4.61251e-06
-4.60476e-07
-1.999e-06
-3.15894e-06
-1.48332e-05
-0.00103418
-0.000519632
0.000217793
0.000438646
0.000241799
3.07287e-05
4.78383e-06
2.16131e-07
1.44681e-05
-3.93377e-05
-5.588e-05
-8.09159e-05
-0.000108851
-0.000144153
-0.000191817
0.000233016
0.00133979
0.00216159
0.00130017
0.00063559
1.28283e-05
-0.000116222
-5.40803e-05
-0.00896121
-0.00650163
0.000380189
0.00577701
0.00577824
-0.000402127
-0.00467123
0.000332592
0.00390602
0.00390682
-0.000298054
-0.00442606
0.000206043
0.00352909
0.00359565
-0.00446217
0.000107235
-6.58785e-05
0.000323431
0.000815216
0.000508376
0.000148032
-9.73401e-05
-0.000106862
-0.00294494
0.000145048
0.00224031
0.00233704
-0.00294667
9.55982e-05
-0.000118129
2.00643e-05
0.000288654
0.000103642
-0.000114107
-0.000229148
-0.000192525
-0.000351846
-0.000219049
-0.000574996
-0.000743418
-0.000663059
-0.000575574
-0.000689924
-0.000739501
-0.000575589
0.000757945
-0.000714489
0.000323187
0.000138418
-8.3299e-05
-0.000147651
-4.16314e-05
3.83621e-06
1.40778e-05
-0.0024297
-4.84741e-05
6.85326e-06
1.4623e-05
-0.00384278
-7.04619e-05
-9.81038e-05
0.00011676
-9.80489e-05
-0.000128701
-0.000157025
6.00989e-05
0.000123089
-0.000375159
0.0161064
2.45701e-05
0.0142134
-2.71148e-05
0.013219
-3.09325e-05
0.0112125
-0.000112101
-0.0095185
0.00830755
0.000105957
0.00544651
0.00540079
0.000281429
-0.00653559
-0.00642935
-0.000402349
-0.00467007
-0.000116518
0.0013507
0.00225065
0.00421572
9.07056e-05
9.07859e-05
0.00178396
-0.000339064
-0.01493
-0.0111846
-0.000287343
6.69373e-05
-6.11916e-06
-0.000200378
-0.000122957
-0.000132516
-1.42284e-05
-0.000152938
-0.000214431
-0.000157037
-6.36377e-06
-3.09293e-06
-6.71004e-05
-3.1562e-05
-1.39205e-05
-6.32358e-06
-1.49581e-06
6.59494e-06
7.69107e-05
0.000113454
-1.5574e-06
7.30926e-06
2.01871e-05
3.44509e-05
-6.37137e-05
0.00826446
-8.2342e-05
0.00718438
1.03857e-05
-0.00774608
-1.56288e-05
0.00779052
-7.00711e-05
-0.00643401
0.00561276
-0.00693509
-0.000109164
7.21687e-05
6.53432e-05
-0.000343175
-0.000509375
-0.000736215
-0.00028302
-0.000288434
-0.000224774
-0.00017806
-0.000220332
-0.000130876
-0.000160083
-0.00013161
-3.67363e-05
0.000568769
0.000439139
0.000242096
-0.00202124
-4.84427e-05
0.00204409
-1.47846e-05
0.000918464
1.44569e-05
1.1268e-05
-4.79722e-07
-4.61752e-06
-1.20187e-05
-2.85122e-05
-6.18693e-05
-1.41084e-05
-3.1639e-06
-2.02786e-06
-0.00872387
0.0093029
-0.0111685
0.010324
-0.0097543
-6.76905e-05
0.0117204
-0.000168109
-0.0135694
-0.0001182
-0.000483289
-0.0181347
-0.00344677
-0.00967429
0.00852463
-0.00856805
-0.0199109
0.00452826
-0.00966709
-0.00525053
-0.00901542
-0.00696396
0.000611918
-9.27614e-05
-0.000276687
-0.000569872
-0.000540626
0.00633974
0.0046137
-0.000248416
-0.000122692
-0.00128023
-0.00244452
-0.000473899
-0.00108153
-0.000300696
-0.000620552
1.32972e-05
7.84057e-05
6.65515e-05
-0.0124127
-0.0154389
3.41033e-05
-0.0169142
-6.42244e-05
-5.24659e-06
7.83816e-06
7.98206e-06
-0.000204888
-0.000362557
-0.000136092
-7.7185e-05