/*--------------------------------*- C++ -*----------------------------------*\
| =========                 |                                                 |
| \\      /  F ield         | OpenFOAM: The Open Source CFD Toolbox           |
|  \\    /   O peration     | Version:  2306                                  |
|   \\  /    A nd           | Website:  www.openfoam.com                      |
|    \\/     M anipulation  |                                                 |
\*---------------------------------------------------------------------------*/
FoamFile
{
    version     2.0;
    format      ascii;
    arch        "LSB;label=32;scalar=64";
    class       volScalarField;
    location    "2";
    object      gradTz;
}
// * * * * * * * * * * * * * * * * * * * * * * * * * * * * * * * * * * * * * //

dimensions      [0 -1 0 1 0 0 0];

internalField   nonuniform List<scalar> 
2658
(
-0.0748317
-0.0722255
-0.0534015
-0.0485327
-0.0603271
-0.0617804
-0.0555936
-0.053633
-0.0484918
-0.0615972
-0.061584
-0.0490497
-0.0657378
-0.0615281
-0.0635905
-0.0653843
-0.062895
-0.0652356
-0.0635246
-0.0607203
-0.064655
-0.0582364
-0.066566
-0.050816
-0.0795969
-0.0645317
-0.0577075
-0.0679844
-0.0694456
-0.0571594
-0.069445
-0.0577076
-0.0645311
-0.0665653
-0.0795968
-0.0508152
-0.0652148
-0.0914899
-0.0582357
-0.0646566
-0.0607211
-0.0635247
-0.065235
-0.0944309
-0.0596927
-0.0590274
-0.0615843
-0.0943484
-0.0653852
-0.063591
-0.0615275
-0.0657384
-0.0588498
-0.0948114
-0.0657963
-0.063682
-0.0943552
-0.0593015
-0.0512138
-0.0653027
-0.0943562
-0.0636827
-0.0657969
-0.0948116
-0.0609577
-0.0491478
-0.0614222
-0.055216
-0.061114
-0.0611127
-0.0492762
-0.0545362
-0.0421033
-0.0481864
-0.0368575
-0.0476604
-0.0480523
-0.0368081
-0.0417979
-0.0409906
-0.0480519
-0.0420863
-0.0542608
-0.055771
-0.0456976
-0.0345423
-0.0252234
-0.0176913
-0.0119387
-0.00781832
-0.00511513
-0.00472712
-0.00399144
-0.00331411
-0.00355287
-0.00384259
-0.00348599
-0.00526158
-0.0034884
-0.00353724
-0.00529046
-0.00358167
-0.00388027
-0.00430514
-0.00364265
-0.00397152
-0.00284593
-0.00486772
-0.00309475
-0.00465766
-0.00431715
-0.00352992
-0.00484163
-0.00352979
-0.00431717
-0.00465767
-0.00364275
-0.00397153
-0.00388029
-0.00430518
-0.00358161
-0.00529021
-0.00353722
-0.00348839
-0.00345251
-0.00346915
-0.003314
-0.00384273
-0.003486
-0.00355297
-0.00527398
-0.00354086
-0.00424272
-0.00351514
-0.00460594
-0.00327085
-0.00317285
-0.0037722
-0.00325238
-0.00325249
-0.00317273
-0.00327086
-0.0036104
-0.00382101
-0.00480169
-0.00381922
-0.004466
-0.00432616
-0.00306696
-0.00308225
-0.00291436
-0.00413448
-0.00406046
-0.00259184
-0.00350043
-0.00331009
-0.00300201
-0.0032982
-0.0031006
-0.0032318
-0.00333178
-0.00317513
-0.00333395
-0.00323179
-0.00308543
-0.00328306
-0.00299721
-0.00343714
-0.00516325
-0.00445762
-0.00598623
-0.00760101
-0.00946601
-0.011727
-0.0145759
-0.0178675
-0.0218174
-0.0263093
-0.0314441
-0.037237
-0.043517
-0.0505183
-0.0578553
-0.0639722
-0.0619352
-0.0607934
-0.0613788
-0.0615964
-0.0603264
-0.048532
-0.0617811
-0.0614213
-0.0491479
-0.0609578
-0.0490498
-0.0799646
-0.0456975
-0.0345422
-0.0252233
-0.0176912
-0.0119386
-0.0078182
-0.00511505
-0.00472716
-0.00399145
-0.00272151
-0.00294625
-0.0047244
-0.00302662
-0.00302662
-0.00294628
-0.00272149
-0.00472442
-0.00281364
-0.0034691
-0.00345252
-0.00383533
-0.0033382
-0.00400003
-0.00274094
-0.0028061
-0.0040791
-0.00471539
-0.00471446
-0.00480386
-0.00471442
-0.00400002
-0.00284589
-0.00307002
-0.00486774
-0.00326448
-0.00326447
-0.00307
-0.00419265
-0.0029847
-0.00300875
-0.00300871
-0.00471975
-0.00298468
-0.00390339
-0.00367766
-0.00360816
-0.00334731
-0.00379792
-0.00362757
-0.00377711
-0.00523452
-0.00434229
-0.00318646
-0.00449465
-0.00330592
-0.00286135
-0.00349484
-0.00376825
-0.00562571
-0.00631238
-0.00631236
-0.00456936
-0.0080088
-0.00561088
-0.00989707
-0.0123616
-0.00863563
-0.0151949
-0.0187485
-0.0130291
-0.0227498
-0.0275095
-0.0189753
-0.0328203
-0.0388062
-0.0265629
-0.0454839
-0.0525597
-0.0356903
-0.060165
-0.0693094
-0.0476375
-0.0732027
-0.05047
-0.0645581
-0.0645578
-0.0679834
-0.0682116
-0.0613115
-0.0568681
-0.0817095
-0.0544119
-0.0544124
-0.0548415
-0.0818308
-0.0555547
-0.0555549
-0.0527272
-0.0806596
-0.0670759
-0.0670757
-0.0770237
-0.108973
-0.0770239
-0.0782588
-0.107715
-0.0779787
-0.090626
-0.078862
-0.0770702
-0.0638177
-0.0745053
-0.0864713
-0.0807434
-0.0527272
-0.0503325
-0.0795677
-0.0640848
-0.0782863
-0.107717
-0.0780285
-0.0865887
-0.0788523
-0.0796905
-0.0788519
-0.0795677
-0.0638176
-0.0770705
-0.0779765
-0.107715
-0.0782581
-0.0745062
-0.0864714
-0.0865886
-0.0780317
-0.107716
-0.0782873
-0.0640846
-0.0744349
-0.0775343
-0.109054
-0.0771288
-0.0672871
-0.080776
-0.0527041
-0.0671457
-0.0766437
-0.0775008
-0.0484686
-0.0367663
-0.0269014
-0.0188924
-0.0127621
-0.00836173
-0.00547101
-0.00538589
-0.0058332
-0.0057611
-0.0057786
-0.00581275
-0.00723152
-0.00904247
-0.011142
-0.0139308
-0.0169922
-0.0208729
-0.0250411
-0.0301307
-0.0354556
-0.0417981
-0.0480514
-0.0557715
-0.048491
-0.0536332
-0.0555929
-0.0545375
-0.0479777
-0.0376194
-0.0479782
-0.0411475
-0.0417109
-0.040496
-0.0348098
-0.0355354
-0.0268196
-0.029318
-0.0267776
-0.0354564
-0.0314703
-0.0353443
-0.0352077
-0.0273428
-0.0298311
-0.0298086
-0.0353945
-0.031494
-0.0412932
-0.0374954
-0.047691
-0.0548537
-0.0491549
-0.0613786
-0.0552689
-0.0590277
-0.0943485
-0.0744351
-0.0671452
-0.0527039
-0.077671
-0.0584153
-0.0510041
-0.0478408
-0.0363825
-0.026617
-0.0186872
-0.0126178
-0.00826503
-0.00540741
-0.00471538
-0.00407907
-0.0028061
-0.00471971
-0.00274088
-0.00333821
-0.00383534
-0.00547692
-0.00424353
-0.00422232
-0.00420067
-0.00428035
-0.00400097
-0.00307044
-0.00451164
-0.00581812
-0.00536246
-0.00736548
-0.00693327
-0.00566043
-0.00529918
-0.00570346
-0.0043957
-0.00441453
-0.00439289
-0.00427129
-0.00416626
-0.00577195
-0.00580411
-0.00470954
-0.00572212
-0.00878335
-0.00893866
-0.00880294
-0.013425
-0.0137462
-0.0111459
-0.00718339
-0.00698136
-0.00716111
-0.00719456
-0.00896226
-0.00896169
-0.00659808
-0.00716028
-0.00542996
-0.00573198
-0.00878635
-0.0135542
-0.013537
-0.0201796
-0.0204742
-0.0198861
-0.0283641
-0.0293293
-0.0246312
-0.016877
-0.0164259
-0.0169121
-0.016888
-0.0206874
-0.0206185
-0.0154165
-0.0168813
-0.0137835
-0.0102009
-0.0110539
-0.0083663
-0.0110787
-0.0138118
-0.0102252
-0.0110703
-0.00902652
-0.00661294
-0.00736739
-0.00705787
-0.00800879
-0.0044762
-0.00660228
-0.00383628
-0.00514557
-0.00298562
-0.00385296
-0.00459027
-0.00473987
-0.00448784
-0.00463382
-0.0046306
-0.00545716
-0.00482622
-0.00425735
-0.00427418
-0.00580866
-0.00568918
-0.00728788
-0.00697043
-0.00874147
-0.0134791
-0.0201205
-0.0202303
-0.0289942
-0.0288901
-0.03973
-0.0404199
-0.0388814
-0.0510774
-0.0539574
-0.0465266
-0.0345527
-0.0338082
-0.0353937
-0.035207
-0.0412932
-0.0409902
-0.0314705
-0.035344
-0.0296878
-0.0224752
-0.02491
-0.0191228
-0.0248763
-0.029831
-0.0225063
-0.024952
-0.0207182
-0.0154471
-0.0170953
-0.011351
-0.0108454
-0.0123614
-0.006925
-0.00989684
-0.00561087
-0.00571028
-0.00965301
-0.011997
-0.0147774
-0.0147771
-0.0105843
-0.0181416
-0.0132489
-0.022065
-0.0156756
-0.0266015
-0.0192751
-0.031762
-0.0223622
-0.0375112
-0.0269269
-0.0439477
-0.0306546
-0.0506747
-0.0360483
-0.0585752
-0.0403219
-0.0644783
-0.0466409
-0.0764012
-0.0616414
-0.0764013
-0.0504701
-0.0732015
-0.0476372
-0.0693095
-0.0402631
-0.0601641
-0.0356899
-0.0525595
-0.0308134
-0.0454834
-0.026563
-0.0388064
-0.0224918
-0.0328201
-0.0189749
-0.0275096
-0.0157523
-0.0227491
-0.0130289
-0.0187487
-0.01061
-0.0151945
-0.00863552
-0.00878623
-0.0111671
-0.0073615
-0.00500963
-0.00401194
-0.00382347
-0.0043186
-0.00597163
-0.00888185
-0.0133854
-0.0197229
-0.0280349
-0.0382832
-0.0500474
-0.0607583
-0.0691371
-0.0682483
-0.0682483
-0.0635683
-0.0739159
-0.0595699
-0.0528725
-0.0717692
-0.0500831
-0.0601422
-0.0553005
-0.0567369
-0.0550948
-0.0466408
-0.0644774
-0.0403213
-0.0585752
-0.0473281
-0.0487034
-0.0368939
-0.030654
-0.043948
-0.0506735
-0.0360489
-0.0441923
-0.033044
-0.0269268
-0.0375103
-0.022362
-0.0317626
-0.026104
-0.0269782
-0.0189547
-0.0128234
-0.0105841
-0.0181409
-0.0220656
-0.0266008
-0.0192746
-0.0236895
-0.0163156
-0.0134908
-0.00884919
-0.00582329
-0.00556747
-0.00456939
-0.00790395
-0.00541879
-0.00790396
-0.00571026
-0.00965295
-0.00695007
-0.0119974
-0.00878629
-0.0108454
-0.0084321
-0.00694989
-0.00814887
-0.00705785
-0.00459029
-0.00514555
-0.00383633
-0.00660243
-0.00385306
-0.00562573
-0.00318641
-0.00376823
-0.00404152
-0.0034949
-0.00286134
-0.0033059
-0.00343713
-0.00449473
-0.00354934
-0.00335524
-0.00394636
-0.00362753
-0.00360808
-0.00379795
-0.00334698
-0.00389324
-0.00364765
-0.00374497
-0.00364762
-0.0033507
-0.00526147
-0.00389332
-0.00390344
-0.00394638
-0.00309475
-0.00335522
-0.00354933
-0.00390663
-0.00358909
-0.00333539
-0.00390162
-0.00379281
-0.00361609
-0.00385673
-0.00293429
-0.00393887
-0.00392697
-0.00525904
-0.00365731
-0.00415942
-0.00471328
-0.0047608
-0.00423819
-0.0058139
-0.00883685
-0.0134786
-0.0199471
-0.0199604
-0.0284119
-0.0388142
-0.0511012
-0.0748379
-0.0688901
-0.103054
-0.0613112
-0.0682129
-0.0933449
-0.0778798
-0.0778779
-0.0933453
-0.0991115
-0.0606177
-0.0796087
-0.0785756
-0.080087
-0.0512148
-0.0652163
-0.0737347
-0.0788688
-0.108131
-0.0790446
-0.0916661
-0.0766036
-0.0853986
-0.0780553
-0.0803818
-0.0805957
-0.0863814
-0.103345
-0.0805982
-0.0991116
-0.0796101
-0.060617
-0.0537719
-0.0800867
-0.0652156
-0.0512145
-0.0520258
-0.0807762
-0.0672883
-0.0771276
-0.109053
-0.0775353
-0.0863176
-0.0800287
-0.0803818
-0.0812607
-0.0818495
-0.0537716
-0.0805764
-0.0796909
-0.0857368
-0.0800303
-0.0778229
-0.0863174
-0.0769546
-0.0807436
-0.0503326
-0.077671
-0.0584152
-0.0552687
-0.0586833
-0.053053
-0.039903
-0.0457329
-0.0481321
-0.04769
-0.0548546
-0.0542601
-0.0420864
-0.0480517
-0.0374946
-0.0458572
-0.0398184
-0.0288657
-0.0338575
-0.0240342
-0.0164124
-0.010808
-0.0108239
-0.0138655
-0.0127532
-0.0113158
-0.0107589
-0.00821614
-0.0112264
-0.0139073
-0.0125971
-0.0170493
-0.0164814
-0.013629
-0.0125612
-0.0203667
-0.0187395
-0.0250952
-0.0244094
-0.0187038
-0.0293178
-0.0268194
-0.0355357
-0.0348097
-0.0267775
-0.0404958
-0.0368573
-0.048187
-0.04766
-0.0368083
-0.0479673
-0.05315
-0.0721896
-0.0718481
-0.0628965
-0.0585206
-0.0514625
-0.0621519
-0.0536402
-0.0534014
-0.0400851
-0.0290848
-0.0202942
-0.0136304
-0.00888739
-0.00875395
-0.0108686
-0.0102076
-0.011117
-0.00844736
-0.0111175
-0.0138189
-0.0129194
-0.0169232
-0.0169227
-0.0138193
-0.0125677
-0.00824454
-0.00542895
-0.00485351
-0.00447094
-0.00452006
-0.00436197
-0.00371507
-0.00436235
-0.00595098
-0.0055471
-0.00724938
-0.00724876
-0.00595147
-0.00485803
-0.0059816
-0.00379453
-0.00379425
-0.0032656
-0.00356492
-0.00598175
-0.00451177
-0.00307022
-0.00400098
-0.00566034
-0.00536265
-0.00693375
-0.00736512
-0.00581851
-0.00452011
-0.00485352
-0.00473988
-0.00547105
-0.00447621
-0.00598623
-0.00538587
-0.00716117
-0.00661291
-0.00896225
-0.00836654
-0.0110542
-0.0102011
-0.0137836
-0.0139308
-0.0125617
-0.0164821
-0.0170492
-0.0125977
-0.0136291
-0.0107594
-0.0112262
-0.00821648
-0.00888225
-0.00817387
-0.0111423
-0.00904244
-0.00896168
-0.00716039
-0.00659825
-0.00723172
-0.00529939
-0.00581278
-0.00577858
-0.00542995
-0.00719464
-0.00576114
-0.00583323
-0.00424353
-0.00448781
-0.00422227
-0.00295933
-0.00420076
-0.00447089
-0.00428024
-0.00276672
-0.00323181
-0.00333178
-0.00545721
-0.00463071
-0.00463385
-0.00470967
-0.0041663
-0.004012
-0.00500968
-0.00736156
-0.00577184
-0.00880337
-0.0111672
-0.0167254
-0.0134256
-0.019887
-0.0242419
-0.0242417
-0.0167251
-0.0132486
-0.0337751
-0.0337754
-0.0283649
-0.0388816
-0.0451031
-0.0451018
-0.0567228
-0.0567234
-0.0510771
-0.0635689
-0.0739237
-0.0595697
-0.0639742
-0.0488359
-0.0619349
-0.0553006
-0.0596927
-0.0514624
-0.0766439
-0.0775008
-0.0484688
-0.0367664
-0.0269016
-0.0188926
-0.0127621
-0.00836177
-0.00692506
-0.00946603
-0.00830731
-0.0110704
-0.0102255
-0.0138118
-0.0128524
-0.0168817
-0.0154165
-0.0206187
-0.0208729
-0.0187043
-0.0244098
-0.0250948
-0.0187398
-0.0203665
-0.0208476
-0.0154225
-0.0206631
-0.0191919
-0.0249358
-0.0249357
-0.0206634
-0.0154227
-0.020847
-0.0164486
-0.0137222
-0.00898117
-0.00594395
-0.00434363
-0.00485846
-0.0042734
-0.00349815
-0.00259415
-0.00421716
-0.00460548
-0.00351568
-0.004243
-0.00392681
-0.00354096
-0.00527393
-0.00310042
-0.00329812
-0.00525876
-0.00300194
-0.00331004
-0.00425686
-0.00439558
-0.00441436
-0.0043928
-0.00308539
-0.00323182
-0.00547689
-0.00333394
-0.00317529
-0.00283972
-0.00445764
-0.00298564
-0.00516325
-0.0032831
-0.00299707
-0.00427094
-0.00572214
-0.00580413
-0.00718364
-0.00760113
-0.00698156
-0.00902668
-0.00878359
-0.00893936
-0.0111461
-0.0117273
-0.014576
-0.0127531
-0.0169124
-0.0154471
-0.0207185
-0.0206875
-0.0191233
-0.0249104
-0.0224748
-0.0296884
-0.0301307
-0.0250418
-0.0240343
-0.0240313
-0.0249524
-0.0225065
-0.0248769
-0.0186873
-0.0126179
-0.00826512
-0.00540745
-0.00736741
-0.011351
-0.0170953
-0.0163157
-0.0236896
-0.0248353
-0.0248353
-0.034642
-0.0314932
-0.0411365
-0.0371674
-0.0462383
-0.0420908
-0.0544821
-0.0488354
-0.0475806
-0.0356407
-0.0255312
-0.0175611
-0.0116525
-0.00755773
-0.00661498
-0.00901678
-0.00901618
-0.00901571
-0.00901744
-0.00661489
-0.00755777
-0.0116526
-0.0102077
-0.0139078
-0.010869
-0.00707884
-0.00580868
-0.00888747
-0.0136308
-0.0164489
-0.0171771
-0.0113161
-0.0108084
-0.0108243
-0.0138656
-0.0135371
-0.0137468
-0.0168776
-0.0178681
-0.0218175
-0.0189635
-0.0263098
-0.0314439
-0.0271031
-0.0372383
-0.0435173
-0.0371683
-0.0481329
-0.0420908
-0.0544827
-0.0578555
-0.0402635
-0.0505191
-0.0308136
-0.0465276
-0.0345532
-0.0246316
-0.0204756
-0.0201802
-0.0288912
-0.029332
-0.0397318
-0.0404234
-0.0528744
-0.0539553
-0.0717723
-0.0500831
-0.0652145
-0.0914909
-0.0766036
-0.0790439
-0.10813
-0.0788692
-0.0737349
-0.0944316
-0.0601433
-0.0585211
-0.0607946
-0.0478409
-0.0363827
-0.0266172
-0.0283936
-0.0387741
-0.0462384
-0.0441922
-0.033044
-0.0346421
-0.0356408
-0.0265045
-0.0186068
-0.0255312
-0.0175611
-0.0224859
-0.0300892
-0.0297678
-0.0274315
-0.0353454
-0.0353451
-0.0297679
-0.0224858
-0.0300887
-0.0240648
-0.0251488
-0.0201404
-0.017177
-0.0134898
-0.0354265
-0.0289325
-0.0338946
-0.0417104
-0.0411478
-0.0314893
-0.0362364
-0.0476648
-0.0765008
-0.0737289
-0.0548416
-0.0769695
-0.056737
-0.0550949
-0.0805769
-0.0568684
-0.0818491
-0.079691
-0.0857363
-0.0853979
-0.0785775
-0.0916662
-0.0780561
-0.0778238
-0.0816674
-0.0799646
-0.0593011
-0.0586639
-0.0533599
-0.0458902
-0.0421031
-0.0586635
-0.0722254
-0.0748334
-0.0614655
-0.071973
-0.0653029
-0.0629568
-0.0552158
-0.0401834
-0.0292091
-0.0204032
-0.024065
-0.0202946
-0.0290843
-0.0338947
-0.0314895
-0.0354268
-0.0251491
-0.0201209
-0.0134796
-0.0087417
-0.00570355
-0.00573186
-0.00878643
-0.0135543
-0.0164265
-0.0168883
-0.0202308
-0.0289948
-0.033809
-0.0411365
-0.0457335
-0.0458565
-0.0338585
-0.028866
-0.0398188
-0.0399044
-0.0530547
-0.0718501
-0.0586826
-0.0531517
-0.0721899
-0.0621526
-0.0479673
-0.0458908
-0.0400853
-0.0400009
-0.0536409
-0.0289347
-0.0164127
-0.0169926
-0.00697073
-0.00728811
-0.00482615
-0.00568966
-0.00875453
-0.0134906
-0.0201436
-0.0475806
-0.0399966
-0.022492
-0.0157524
-0.0106103
-0.0110789
-0.00707871
-0.00888229
-0.00817364
-0.00333541
-0.00358914
-0.00390664
-0.00385678
-0.00368331
-0.00361631
-0.00379293
-0.00390165
-0.00335053
-0.00393884
-0.00293402
-0.00377219
-0.00406623
-0.00326546
-0.00356501
-0.00361162
-0.00421535
-0.0240305
-0.0298084
-0.0271031
-0.0491537
-0.0520258
-0.0769693
-0.076951
-0.00281361
-0.00278746
-0.0156757
-0.0183016
-0.01237
-0.0358112
-0.0189629
-0.0273424
-0.00830713
-0.0128522
-0.00283979
-0.00295933
-0.00276653
-0.0788619
-0.090626
-0.0769022
-0.07759
-0.076901
-0.0588503
-0.0614664
0.00425719
0.00427411
0.00580855
0.0053625
0.00566038
0.00581804
0.00736554
0.0069332
0.00529912
0.0058128
0.00428032
0.00276655
0.00329832
0.00310073
0.00323189
0.00333186
0.00317531
0.00333401
0.0032319
0.00308556
0.00328321
0.00299744
0.00343722
0.0029856
0.0044947
0.00330597
0.00286137
0.00354929
0.00349485
0.00278758
0.00349481
0.00286133
0.00330593
0.00343722
0.00449472
0.00298562
0.00445763
0.0051632
0.00299733
0.00328322
0.00308556
0.00323192
0.00333401
0.00547694
0.00422222
0.00420065
0.0042802
0.00545709
0.00333187
0.00323187
0.00310067
0.00329827
0.00300226
0.00525879
0.00331015
0.00356494
0.00598169
0.00436235
0.00371502
0.00379451
0.00598154
0.00356501
0.00331003
0.00525902
0.0040009
0.00307031
0.00451159
0.00452014
0.00595153
0.00595096
0.00554707
0.00724869
0.00661493
0.00901675
0.00821624
0.00888225
0.00904245
0.00817356
0.0111418
0.0110538
0.00896156
0.00659807
0.00716025
0.00723137
0.00511503
0.00781816
0.0119386
0.0176911
0.0252232
0.0345421
0.0456973
0.0799646
0.0795675
0.0640847
0.0782878
0.0744347
0.0775348
0.109053
0.077128
0.0788687
0.108132
0.0790435
0.0766037
0.091666
0.0796086
0.0785758
0.0537715
0.0805763
0.0606174
0.0991114
0.0933446
0.0778798
0.103346
0.0778773
0.093345
0.0991108
0.0796092
0.0785758
0.0766037
0.0916661
0.0790435
0.10813
0.0788686
0.0771282
0.0672871
0.0671456
0.0640844
0.0744348
0.0775348
0.078288
0.107715
0.0780314
0.0906265
0.0779762
0.107715
0.0782586
0.0770233
0.0745063
0.0670757
0.0670759
0.0770236
0.0782589
0.107714
0.0779786
0.0906259
0.0788618
0.078029
0.107716
0.0615273
0.0657372
0.0948113
0.0588495
0.0657967
0.0614656
0.0636822
0.0653027
0.0629564
0.0653028
0.0512137
0.0593014
0.0593015
0.0943552
0.063682
0.0614648
0.0657968
0.0588511
0.0657382
0.0615268
0.0635906
0.0653838
0.0628942
0.0652352
0.0635241
0.0607201
0.0646545
0.0582375
0.0665645
0.0914901
0.0652144
0.0639731
0.0578549
0.0505191
0.0435164
0.0372383
0.0314438
0.02631
0.0218172
0.0178679
0.0145759
0.0117273
0.00946601
0.00760111
0.00598615
0.00583324
0.00576104
0.00577857
0.00581266
0.00566027
0.00536255
0.00581848
0.00451169
0.00307029
0.00400092
0.00276672
0.00472713
0.00511509
0.00781826
0.0119387
0.0176912
0.0252233
0.034542
0.0456973
0.0799645
0.0795675
0.0503326
0.0527269
0.0776708
0.0555549
0.0555545
0.052727
0.0503325
0.0776708
0.0527039
0.067145
0.0672875
0.0737347
0.0652153
0.0800866
0.0512145
0.0520258
0.080776
0.0766437
0.0775006
0.0748377
0.0775006
0.0800866
0.0537713
0.0568677
0.0805762
0.061311
0.061311
0.0568675
0.0817095
0.0544124
0.0548414
0.0548411
0.0769693
0.0544119
0.0796906
0.0812612
0.0803811
0.0780548
0.0853986
0.080596
0.0863817
0.103053
0.0688898
0.0504695
0.0795965
0.0645307
0.0577067
0.0694453
0.0645571
0.0764005
0.0644774
0.064477
0.0403217
0.0601639
0.0356891
0.0525593
0.0454835
0.0265629
0.038806
0.0328201
0.018975
0.0275094
0.0227494
0.0130289
0.0187484
0.0151948
0.00863551
0.0123613
0.00989689
0.00561074
0.00800869
0.00660229
0.00383626
0.0051455
0.00318646
0.00376813
0.00376814
0.00354924
0.00335528
0.00326449
0.00307002
0.00419261
0.00298465
0.00298467
0.00300873
0.00423814
0.00302658
0.00302658
0.00294626
0.00415937
0.00325234
0.00325244
0.00317276
0.00446607
0.00381926
0.00382102
0.00421712
0.0046056
0.00351586
0.00424338
0.00354123
0.00527421
0.00355304
0.00331415
0.00399145
0.00293405
0.00393888
0.00392694
0.00379296
0.00390174
0.00348622
0.00526198
0.0034886
0.00345254
0.00407905
0.00281361
0.00346907
0.00384251
0.00471541
0.00471444
0.00547102
0.00836169
0.0127621
0.0188926
0.0269014
0.0367663
0.0484685
0.0488356
0.0619349
0.0607939
0.0613785
0.0615962
0.0557713
0.048051
0.0417978
0.0354556
0.0301305
0.0250415
0.0208728
0.0169924
0.0139306
0.0111422
0.00904235
0.00723166
0.00529928
0.00693348
0.00736502
0.00724936
0.00901566
0.00844719
0.00901628
0.0111168
0.0112263
0.0107589
0.013629
0.0139073
0.0125971
0.0164815
0.0125611
0.0139307
0.010201
0.0137834
0.0138117
0.012852
0.0168876
0.0169117
0.0138655
0.0102251
0.0110785
0.00836639
0.00896219
0.00719448
0.0054298
0.00577858
0.00447086
0.0042006
0.00545711
0.00384266
0.003553
0.00527416
0.003541
0.00424295
0.00351523
0.00460598
0.00421526
0.00361171
0.00317283
0.0032708
0.00377215
0.00293428
0.00272151
0.00399147
0.00393885
0.00331404
0.00346913
0.00281363
0.00472441
0.00294623
0.00471327
0.00542893
0.00824447
0.0125676
0.0186067
0.0265045
0.0362363
0.0476645
0.0765007
0.0806595
0.0796902
0.0788518
0.0769525
0.0863168
0.077825
0.109052
0.0857357
0.0652165
0.0512145
0.0520254
0.0769692
0.0567368
0.0553003
0.0596927
0.0590271
0.0615841
0.0609579
0.0491482
0.0614215
0.0617807
0.0485324
0.0555928
0.0536331
0.0603262
0.0484912
0.05315
0.0721899
0.0718491
0.0717724
0.0739239
0.0635687
0.0510772
0.0539583
0.0595697
0.0528746
0.0397298
0.040421
0.0388827
0.0283646
0.0293307
0.0345538
0.0465259
0.0457326
0.0544825
0.0548534
0.0476902
0.0480513
0.0420862
0.0542601
0.0491544
0.0478407
0.0766436
0.0807757
0.052704
0.0807435
0.0800304
0.0796906
0.0818497
0.060617
0.0682106
0.0679837
0.0682469
0.0691364
0.0607582
0.0500471
0.0382828
0.028035
0.0197231
0.0133856
0.00888178
0.00597161
0.00431851
0.00382341
0.00401191
0.0040119
0.00416627
0.00577192
0.00880312
0.0134253
0.0198867
0.0204748
0.0246319
0.028891
0.0201799
0.013537
0.0137463
0.0168775
0.0164261
0.0207184
0.0206873
0.0168881
0.0168814
0.0154163
0.0206185
0.0249101
0.0224748
0.029688
0.0353436
0.0314705
0.0409904
0.0374944
0.0412932
0.0352072
0.0314941
0.0411368
0.0481315
0.0420907
0.0462381
0.0363824
0.0266169
0.0273425
0.029831
0.0248766
0.0225063
0.0298088
0.0353937
0.0271033
0.0338087
0.0399036
0.0530534
0.0585201
0.0601426
0.094431
0.0737347
0.050083
0.0586827
0.0943479
0.0621523
0.074832
0.0722256
0.0534021
0.0536469
0.0479658
0.045856
0.0398182
0.0288657
0.0289943
0.0202305
0.0135541
0.00878625
0.00878347
0.00893866
0.0111461
0.0108239
0.0138655
0.0138116
0.0110787
0.0110539
0.010201
0.0137835
0.0128522
0.0126178
0.0186872
0.0191231
0.0170952
0.0154469
0.016912
0.0127531
0.0163156
0.0227498
0.0157525
0.0275094
0.0189753
0.0328209
0.0224917
0.0388062
0.0265635
0.0454845
0.0308134
0.0525591
0.0356899
0.0601645
0.0402633
0.0693088
0.0476372
0.0732012
0.0508152
0.0466409
0.0550947
0.0550946
0.0732012
0.0476371
0.0693088
0.0466408
0.0764012
0.0504694
0.0645572
0.061641
0.0694456
0.0577069
0.0645309
0.0665649
0.0795967
0.0679834
0.0682124
0.0818495
0.0805969
0.0803826
0.085398
0.0780529
0.0857356
0.0800286
0.0816675
0.0818307
0.0737288
0.0510039
0.0511009
0.0487033
0.0403217
0.0585744
0.0506744
0.0439474
0.0375114
0.0375104
0.0223625
0.0317625
0.0192746
0.0266011
0.0156757
0.0220653
0.0132488
0.0181413
0.0105841
0.0147774
0.00878634
0.011997
0.00695001
0.00965295
0.00571007
0.00790382
0.00456945
0.00631235
0.00385293
0.00562567
0.00404151
0.00562568
0.00318642
0.00514548
0.00383625
0.00660242
0.00447625
0.00800874
0.00561086
0.00989699
0.00692506
0.0123615
0.00863549
0.0151948
0.0106101
0.0187487
0.0130291
0.0132489
0.0181413
0.0123701
0.0147771
0.0119973
0.00965279
0.00790397
0.00541884
0.00631238
0.003853
0.00459026
0.00705782
0.00571019
0.00736145
0.0111673
0.0167255
0.0242423
0.0337758
0.0451025
0.0567227
0.0567224
0.068248
0.0635689
0.0510762
0.0451019
0.0585753
0.0360484
0.0506734
0.0306537
0.0439481
0.0269268
0.0330438
0.0368938
0.0306539
0.0358112
0.0269782
0.0223624
0.0317619
0.0266017
0.0220651
0.0156757
0.0189547
0.0183019
0.0128234
0.0105842
0.00843209
0.00695002
0.00814867
0.00556747
0.00456936
0.00434228
0.00523453
0.00326448
0.00335528
0.00431738
0.00353015
0.00353
0.00431737
0.00465781
0.00309478
0.00364274
0.00397155
0.00400002
0.00274088
0.00333817
0.00383539
0.00353743
0.00529056
0.00358188
0.00430548
0.0038803
0.00379799
0.00334714
0.00360817
0.0036276
0.00377716
0.00484212
0.00362768
0.00465794
0.00364294
0.00309478
0.00284596
0.00400001
0.0033382
0.00274093
0.00280611
0.00407907
0.00345256
0.00348852
0.00526183
0.00348624
0.00390172
0.00364762
0.00360807
0.00367762
0.00394636
0.0028459
0.00486771
0.0039034
0.00389335
0.00364759
0.00335079
0.00374492
0.0039034
0.00394635
0.00307001
0.00486775
0.00459026
0.00582328
0.00884914
0.0134907
0.0199603
0.0284118
0.0388141
0.044192
0.0360491
0.044192
0.0484685
0.0402636
0.0639727
0.0488352
0.0544822
0.0420907
0.0476896
0.0374944
0.04099
0.0314698
0.0353436
0.0354553
0.0267774
0.0293175
0.0300888
0.0268192
0.0348092
0.0404954
0.0417103
0.0368568
0.0476594
0.0368075
0.0417977
0.0480512
0.0480509
0.0542602
0.0420867
0.0557706
0.0484918
0.0536327
0.0555928
0.048532
0.0603263
0.0615965
0.0613779
0.0491542
0.0548537
0.0607935
0.0619344
0.0601427
0.0553004
0.0596926
0.0514622
0.0590274
0.0552687
0.0615838
0.0490497
0.0609578
0.061422
0.0491474
0.0722254
0.0719727
0.0586639
0.0552158
0.0611127
0.0492765
0.0545365
0.0545368
0.0421024
0.0481863
0.0368565
0.0417105
0.0404957
0.047659
0.036808
0.0348095
0.0268196
0.0300891
0.0293176
0.0267779
0.0244097
0.01874
0.0208474
0.0203662
0.018704
0.0201206
0.0134793
0.00874149
0.00570337
0.00573188
0.00572202
0.00580412
0.00718373
0.00698144
0.00902667
0.00896218
0.00719465
0.00716022
0.00659799
0.0089617
0.00836638
0.00826501
0.00540742
0.0054298
0.00473985
0.00448782
0.00424345
0.0028398
0.00439277
0.00427093
0.00470953
0.0046337
0.00441435
0.00317547
0.00295933
0.00463061
0.00697043
0.0108082
0.0164124
0.0240341
0.0338578
0.0354272
0.0400006
0.0400853
0.0290832
0.0289321
0.025149
0.0240644
0.0338942
0.0355351
0.0353448
0.0274316
0.0297676
0.0297677
0.0224856
0.0249358
0.0191914
0.020663
0.0206629
0.0154224
0.0170489
0.0125974
0.0139078
0.013629
0.016482
0.0125613
0.017177
0.0201422
0.0202942
0.0136305
0.0134874
0.011316
0.0108687
0.011226
0.00821634
0.0090173
0.00888215
0.0107592
0.00817371
0.00728786
0.00875427
0.00888749
0.00580852
0.00568907
0.00482606
0.00439554
0.00425698
0.00427345
0.00349823
0.00259417
0.00306693
0.0029143
0.00308228
0.00259199
0.00350043
0.00326547
0.00406055
0.00434357
0.00594398
0.00707888
0.0066148
0.0075577
0.00736738
0.00661294
0.00716105
0.00538581
0.011351
0.0102253
0.0110702
0.00830706
0.0108454
0.00878626
0.0108453
0.0163155
0.0236895
0.0269012
0.0367661
0.0308133
0.0505179
0.0371674
0.0411362
0.0314935
0.0352064
0.0273422
0.0296877
0.0224745
0.0249096
0.0250409
0.0187038
0.0203663
0.020847
0.0187394
0.0244092
0.0250947
0.0224856
0.0249355
0.0240646
0.0292087
0.040183
0.0533596
0.0458893
0.0458904
0.0586626
0.0552158
0.0617801
0.0611132
0.0584152
0.0567369
0.0462382
0.0478407
0.0363824
0.0387741
0.0346421
0.033044
0.0269267
0.0236894
0.0192748
0.0248352
0.0283935
0.0199471
0.0134785
0.00883677
0.00581388
0.0047608
0.00480385
0.00471445
0.00547101
0.00836168
0.012762
0.0188924
0.0157522
0.0263092
0.018963
0.0207181
0.0154468
0.0206873
0.0191228
0.0206184
0.0154164
0.0168811
0.016992
0.0208727
0.0164119
0.0164256
0.0168767
0.0198867
0.0283645
0.038882
0.033775
0.0242418
0.0167252
0.0111671
0.0134253
0.00880302
0.00736153
0.00500959
0.00577169
0.00416619
0.00427129
0.00470939
0.0059862
0.00538582
0.00583314
0.00448775
0.00422223
0.00295929
0.0047154
0.00540738
0.00826498
0.0126177
0.0186871
0.0266169
0.0346419
0.0248352
0.0225061
0.0249515
0.024876
0.0298308
0.0298084
0.0314437
0.0271025
0.0372373
0.0224917
0.0435168
0.0345521
0.0465252
0.0578548
0.0595708
0.0652145
0.0500829
0.0646563
0.0582354
0.0914901
0.0739175
0.0717687
0.0607196
0.0635245
0.0944309
0.0652349
0.0628966
0.065385
0.0943479
0.0635909
0.0721892
0.0718478
0.0585214
0.0528724
0.0539575
0.0397293
0.040422
0.0288895
0.0293299
0.0246308
0.02403
0.0338081
0.0353932
0.0412932
0.0457321
0.0481316
0.0530522
0.0399027
0.0289935
0.02023
0.0201792
0.0204744
0.0135364
0.0127529
0.0145758
0.011727
0.00830697
0.00902661
0.00661286
0.00716105
0.00760103
0.00447619
0.00946595
0.00692499
0.00718357
0.0111457
0.0137464
0.0108237
0.01107
0.00878335
0.00893891
0.00572213
0.00580373
0.00439294
0.00283975
0.00445753
0.0051632
0.00388046
0.00358183
0.00529064
0.00353746
0.00383548
0.00547693
0.00424349
0.00463368
0.00576112
0.00698124
0.00697024
0.0108077
0.0135538
0.00878612
0.00573184
0.0044145
0.00463043
0.00570337
0.00874129
0.013479
0.0201202
0.0288653
0.0398181
0.0531496
0.0586835
0.0621527
0.053401
0.0400843
0.0338946
0.0411475
0.0411474
0.037619
0.0479769
0.0481858
0.0421029
0.0475803
0.0475803
0.0584152
0.0552688
0.0356405
0.0314887
0.0356405
0.0314886
0.0355351
0.0353449
0.0255309
0.0255311
0.017561
0.017561
0.0170951
0.011351
0.00736734
0.0070578
0.00473986
0.00471972
0.00300872
0.00485351
0.0075577
0.0116525
0.0116525
0.0102076
0.0138189
0.0129191
0.0138193
0.0102076
0.0108687
0.0137219
0.0164484
0.016923
0.0169227
0.0170492
0.0154224
0.0164486
0.0204029
0.020294
0.0290839
0.0251487
0.035426
0.033857
0.0458558
0.0479657
0.0536458
0.0399999
0.0240334
0.0301304
0.0289342
0.0201433
0.0171764
0.0136302
0.00888732
0.00898115
0.00707871
0.00728771
0.0113159
0.013489
0.00875409
0.00482615
0.00568903
0.00485806
0.00436192
0.00485837
0.00452009
0.00485348
0.00447083
0.00472439
0.0027215
0.00390659
0.00358911
0.00333523
0.00365728
0.0039066
0.00385671
0.00358908
0.00333492
0.00379293
0.003616
0.00368327
0.0036164
0.00385678
0.00327087
0.00361044
0.00326563
0.00379419
0.0043261
0.00406635
0.00413443
0.00377221
0.00480146
0.00392718
0.00439569
0.0111174
0.00472714
0.0479771
0.0748319
0.00389336
0.00379796
0.00397161
0.00430556
0.00334723
0.00335067
0.01061
0.0178675
0.021817
0.0508151
0.0050096
0.0943556
0.0745053
0.0638173
0.0770704
0.0865879
0.078852
0.0807434
0.0864709
0.0775899
0.0864706
0.0769025
0.0865877
0.0770704
0.0638176
0.0788615
0.0948111
0.108972
0.0769009
0.086317
0.0778262
0.076953
0.0250946
0.0240306
0.0249519
0.0189633
0.00471969
0.0028061
0.0261038
0.0473291
0.0571607
0.037167
0.0514624
0.0490497
0.00300204
)
;

boundaryField
{
    face
    {
        type            calculated;
        value           nonuniform List<scalar> 
154
(
-0.08
-0.08
-0.08
-0.08
-0.08
-0.08
-0.08
-0.08
-0.08
-0.08
-0.08
-0.08
-0.08
-0.08
-0.08
-0.08
-0.08
-0.08
-0.08
-0.08
-0.08
-0.08
-0.08
-0.08
-0.08
-0.08
-0.08
-0.08
-0.08
-0.08
-0.08
-0.08
-0.08
-0.08
-0.08
-0.08
-0.08
-0.08
-0.08
-0.08
-0.08
-0.08
-0.08
-0.08
-0.08
-0.08
-0.08
-0.08
-0.08
-0.08
-0.08
-0.08
-0.08
-0.08
-0.08
-0.08
-0.08
-0.08
-0.08
-0.08
-0.08
-0.08
-0.08
-0.08
-0.08
-0.08
-0.08
-0.08
-0.08
-0.08