/*--------------------------------*- C++ -*----------------------------------*\
| =========                 |                                                 |
| \\      /  F ield         | OpenFOAM: The Open Source CFD Toolbox           |
|  \\    /   O peration     | Version:  2306                                  |
|   \\  /    A nd           | Website:  www.openfoam.com                      |
|    \\/     M anipulation  |                                                 |
\*---------------------------------------------------------------------------*/
FoamFile
{
    version     2.0;
    format      ascii;
    arch        "LSB;label=32;scalar=64";
    class       volVectorField;
    location    "0.8";
    object      flux;
}
// * * * * * * * * * * * * * * * * * * * * * * * * * * * * * * * * * * * * * //

dimensions      [0 1 -1 1 0 0 0];

internalField   nonuniform List<vector> 
5322
(
(-1.9909e-06 5.02335e-06 -6.64287e-06)
(1.53613e-07 6.91103e-07 -5.5817e-06)
(1.46074e-07 2.49243e-07 -3.9621e-06)
(-3.99273e-09 1.95309e-07 -4.26688e-06)
(-8.98588e-09 1.97768e-07 -2.524e-06)
(-5.73344e-09 1.44898e-07 -1.3446e-06)
(-2.71573e-09 8.43592e-08 -6.44382e-07)
(-1.09183e-09 4.21981e-08 -2.78279e-07)
(-3.99361e-10 1.88552e-08 -1.08927e-07)
(-1.07655e-10 7.46661e-09 -3.95159e-08)
(6.5143e-12 1.99222e-09 -1.46716e-08)
(1.46871e-10 -1.82398e-09 -8.42602e-09)
(1.42078e-10 -1.21967e-09 -4.68207e-09)
(-1.57839e-09 -1.23112e-09 -7.4119e-09)
(1.06017e-10 -1.29261e-09 -8.78994e-09)
(4.08295e-09 3.65508e-09 -9.24969e-09)
(-2.97271e-09 4.50879e-09 -1.04139e-08)
(4.25408e-10 -4.05567e-11 -9.79527e-09)
(-2.96791e-09 4.84726e-09 -1.80592e-08)
(6.05103e-09 -1.12938e-08 -2.99026e-08)
(-7.34421e-09 1.62736e-08 -5.46482e-08)
(1.89979e-08 -3.18496e-08 -8.86076e-08)
(-1.8979e-08 4.61479e-08 -1.54174e-07)
(5.1176e-08 -8.51277e-08 -2.40243e-07)
(-5.31185e-08 1.22003e-07 -3.93805e-07)
(1.19135e-07 -2.01173e-07 -5.77666e-07)
(-1.18696e-07 2.75011e-07 -8.94403e-07)
(2.57957e-07 -4.41347e-07 -1.25984e-06)
(-2.6306e-07 5.81818e-07 -1.83816e-06)
(4.8868e-07 -8.44415e-07 -2.44103e-06)
(-4.63468e-07 1.07055e-06 -3.36136e-06)
(8.89823e-07 -1.47295e-06 -4.27783e-06)
(-6.45206e-07 1.84251e-06 -5.51882e-06)
(1.54228e-06 -2.0263e-06 -6.52589e-06)
(2.27555e-07 2.19729e-06 -7.5022e-06)
(2.57902e-06 -1.3746e-06 -6.95641e-06)
(1.8353e-06 2.80821e-06 -8.44896e-06)
(-7.27409e-07 3.35108e-06 -8.15119e-06)
(1.98575e-06 1.70983e-06 -8.38863e-06)
(-1.22578e-07 1.96785e-06 -6.32627e-06)
(-1.88888e-06 2.47812e-06 -7.75544e-06)
(1.8884e-06 2.09013e-06 -8.0069e-06)
(-1.13877e-07 2.29063e-06 -6.19498e-06)
(-2.00588e-06 2.31824e-06 -8.0036e-06)
(2.00078e-06 2.21159e-06 -7.92215e-06)
(-6.57378e-08 2.33578e-06 -6.31011e-06)
(-2.12978e-06 2.24739e-06 -8.12515e-06)
(1.89359e-06 2.40301e-06 -7.69138e-06)
(-3.95303e-08 2.38089e-06 -6.25842e-06)
(-2.23898e-06 2.14214e-06 -8.0412e-06)
(-2.23477e-06 2.71635e-06 -9.32817e-06)
(-3.18514e-06 1.14325e-06 -6.05592e-06)
(-1.09653e-06 1.38589e-06 -8.63728e-06)
(1.92885e-06 -4.07096e-06 -7.29501e-06)
(-1.2744e-07 -1.81082e-07 -6.2318e-06)
(-3.1187e-06 -2.32196e-06 -6.8775e-06)
(-9.93934e-08 1.32653e-06 -8.8237e-06)
(2.95567e-06 -3.00907e-06 -6.7255e-06)
(-3.41194e-08 -1.21964e-07 -6.19713e-06)
(-2.95174e-06 -2.61162e-06 -6.83918e-06)
(-1.15561e-08 1.34593e-06 -8.90304e-06)
(2.87716e-06 -2.95372e-06 -6.81427e-06)
(-1.3401e-08 -1.07789e-07 -6.19178e-06)
(-2.90034e-06 -2.59318e-06 -6.67371e-06)
(5.84296e-09 1.35281e-06 -8.90907e-06)
(2.84184e-06 -3.06902e-06 -7.07066e-06)
(4.64529e-08 -1.58024e-07 -6.17931e-06)
(-2.87472e-06 -2.52367e-06 -6.35799e-06)
(1.71959e-07 1.37824e-06 -8.77587e-06)
(2.38247e-06 -3.46453e-06 -7.58594e-06)
(1.69807e-07 8.83276e-08 -5.17138e-06)
(-2.07938e-06 2.43218e-06 -7.28927e-06)
(2.3664e-06 1.34351e-06 -6.93319e-06)
(-2.43001e-06 1.89155e-06 -6.82578e-06)
(2.33728e-06 1.39992e-06 -6.88328e-06)
(-2.38131e-06 1.78542e-06 -6.85035e-06)
(2.38308e-06 1.48126e-06 -6.84573e-06)
(-2.38714e-06 1.78211e-06 -6.83355e-06)
(2.72497e-06 1.51998e-06 -6.96388e-06)
(-2.02527e-06 2.15727e-06 -6.69611e-06)
(9.17514e-07 1.24614e-07 -6.63975e-06)
(-1.61577e-06 9.48788e-07 -5.60723e-06)
(-1.12623e-06 1.35397e-06 -5.82047e-06)
(1.6175e-06 2.07435e-06 -7.15266e-06)
(1.136e-07 -1.06553e-07 -4.39378e-06)
(-5.53355e-07 -6.55074e-07 -6.21752e-06)
(1.26603e-06 2.98064e-07 -9.70396e-06)
(-3.57135e-06 5.51289e-07 -6.63492e-06)
(-9.78343e-07 1.30558e-06 -6.53549e-06)
(3.69843e-06 2.10158e-07 -5.50242e-06)
(-1.72834e-07 3.53168e-07 -6.67047e-06)
(1.82655e-08 5.68237e-08 -3.8783e-06)
(2.80499e-08 6.70311e-09 -4.07701e-06)
(3.08976e-07 5.47645e-09 -4.08016e-06)
(1.84677e-06 2.20143e-06 -5.58375e-06)
(-2.96979e-07 -1.3592e-06 -5.88704e-06)
(1.02297e-07 4.59363e-08 -5.32501e-06)
(-4.5431e-08 1.37339e-06 -5.95773e-06)
(1.30039e-06 4.57122e-08 -9.85491e-06)
(-3.14422e-06 -1.10662e-07 -6.42576e-06)
(-3.13302e-06 3.09085e-07 -6.52254e-06)
(6.04242e-06 5.00073e-08 -5.56935e-06)
(-5.18393e-08 1.48198e-06 -6.00781e-06)
(1.43333e-06 -2.13902e-06 -5.53071e-06)
(2.34652e-06 1.92104e-06 -6.05682e-06)
(1.30393e-07 6.34015e-08 -5.19179e-06)
(3.76002e-08 -5.02977e-08 -5.41833e-06)
(1.99762e-08 -5.03671e-09 -4.32276e-06)
(7.75595e-09 1.7274e-09 -2.55772e-06)
(1.16361e-09 4.04241e-09 -1.36433e-06)
(-8.99301e-10 3.16804e-09 -6.53548e-07)
(-1.02867e-09 1.90072e-09 -2.81539e-07)
(-6.66149e-10 9.71691e-10 -1.09409e-07)
(-3.18215e-10 4.1351e-10 -3.90994e-08)
(-1.34677e-10 1.714e-10 -1.57453e-08)
(-6.39273e-11 7.64158e-11 -9.37647e-09)
(-1.28052e-09 1.32174e-09 -7.41282e-09)
(-1.07748e-09 -2.87627e-10 -7.42999e-09)
(2.0378e-10 -2.36036e-10 -1.34583e-08)
(5.11234e-10 -6.76567e-10 -7.77965e-09)
(-5.37057e-11 1.06191e-09 -6.15952e-09)
(7.05026e-10 -2.59861e-10 -6.47403e-09)
(-8.9884e-10 -6.9489e-10 -6.36468e-09)
(-9.89397e-11 -1.08808e-09 -8.33028e-09)
(-3.44815e-10 -1.14328e-09 -6.48757e-09)
(1.3979e-09 -2.0637e-11 -8.2071e-09)
(1.06362e-09 9.81451e-10 -6.31152e-09)
(1.81876e-10 -6.57005e-10 -6.61467e-09)
(8.72399e-10 9.27036e-11 -8.21498e-09)
(4.59106e-10 7.8837e-10 -6.43226e-09)
(3.02516e-10 -7.59053e-10 -6.60071e-09)
(9.44901e-10 3.62916e-11 -8.36505e-09)
(3.47596e-10 7.9811e-10 -6.54794e-09)
(3.89383e-10 -8.39144e-10 -6.48509e-09)
(9.54041e-10 -5.02849e-11 -8.33198e-09)
(2.65288e-10 7.10279e-10 -6.52799e-09)
(6.96577e-10 -9.01742e-10 -6.41178e-09)
(1.08191e-09 -9.97879e-11 -8.42502e-09)
(1.14359e-09 -3.43853e-10 -6.55449e-09)
(2.48754e-11 1.39361e-09 -8.29411e-09)
(-9.78055e-10 1.07076e-09 -6.38349e-09)
(-4.28972e-11 -1.01213e-09 -6.21673e-09)
(6.85907e-10 5.26231e-10 -7.83312e-09)
(-1.06332e-09 4.17226e-10 -7.37136e-09)
(-1.30883e-09 -1.27599e-09 -7.45288e-09)
(2.48166e-10 2.21942e-10 -1.35317e-08)
(2.95666e-10 -1.07268e-09 -7.46985e-09)
(3.17217e-11 7.34083e-10 -7.46083e-09)
(-9.98242e-10 8.89309e-10 -7.42344e-09)
(-1.13702e-09 -1.05931e-09 -7.55084e-09)
(3.00993e-10 -3.45462e-11 -1.39504e-08)
(8.39645e-11 -8.32675e-10 -7.51887e-09)
(1.63353e-10 8.58236e-10 -7.49804e-09)
(-1.13184e-09 1.09577e-09 -7.51409e-09)
(-1.00389e-09 -8.57763e-10 -7.44637e-09)
(3.11044e-10 2.12268e-11 -1.39126e-08)
(-4.34212e-11 -6.91794e-10 -7.43801e-09)
(4.21608e-10 1.07857e-09 -7.33203e-09)
(-1.01545e-09 5.06384e-11 -6.17064e-09)
(1.29822e-09 1.01649e-10 -8.83342e-09)
(-3.64799e-09 4.09698e-09 -9.27573e-09)
(-4.5169e-09 -2.98495e-09 -1.04854e-08)
(6.90395e-09 5.71398e-09 -2.0443e-08)
(-1.25967e-08 -1.01138e-08 -3.31539e-08)
(-9.64248e-10 8.60937e-10 -1.54809e-08)
(-4.90177e-09 -2.95852e-09 -1.82098e-08)
(7.86659e-11 4.1461e-10 -9.86061e-09)
(3.60808e-09 7.82785e-10 -1.05837e-08)
(-7.64684e-10 -3.50391e-11 -5.53761e-09)
(2.59301e-09 8.382e-10 -7.09938e-09)
(1.24118e-09 -1.58568e-09 -7.45714e-09)
(1.92174e-09 1.65172e-09 -7.07075e-09)
(-4.37809e-09 -3.82034e-09 -1.02125e-08)
(1.33585e-09 4.11281e-11 -9.31314e-09)
(-3.84215e-09 4.00389e-09 -9.87766e-09)
(4.07505e-09 -6.50495e-09 -1.9896e-08)
(5.33306e-09 6.84164e-09 -1.96713e-08)
(-1.09721e-08 -1.16329e-08 -3.19283e-08)
(1.27917e-09 1.32642e-10 -2.00929e-08)
(-9.41632e-09 1.16973e-08 -3.20659e-08)
(1.37316e-08 -2.02687e-08 -5.64096e-08)
(1.72493e-08 2.12224e-08 -5.63602e-08)
(-3.13131e-08 -3.50249e-08 -9.28859e-08)
(2.58879e-09 3.23136e-10 -5.92989e-08)
(-2.64329e-08 3.481e-08 -9.33294e-08)
(4.04206e-08 -5.74529e-08 -1.56083e-07)
(4.98214e-08 5.98877e-08 -1.56066e-07)
(-8.3258e-08 -9.46903e-08 -2.47494e-07)
(6.9166e-09 7.12056e-10 -1.626e-07)
(-6.98172e-08 9.37495e-08 -2.48313e-07)
(1.05411e-07 -1.46882e-07 -3.94409e-07)
(1.28892e-07 1.52634e-07 -3.9446e-07)
(-2.02055e-07 -2.29902e-07 -5.95386e-07)
(1.66029e-08 1.49158e-09 -4.02797e-07)
(-1.69158e-07 2.26995e-07 -5.97114e-07)
(2.43949e-07 -3.38645e-07 -8.99826e-07)
(2.98589e-07 3.51097e-07 -9.00423e-07)
(-4.46018e-07 -5.01418e-07 -1.28878e-06)
(3.54167e-08 2.95684e-09 -8.98018e-07)
(-3.73512e-07 4.93434e-07 -1.29264e-06)
(5.01346e-07 -7.03506e-07 -1.84893e-06)
(6.18549e-07 7.27833e-07 -1.8516e-06)
(-8.91415e-07 -9.78913e-07 -2.50689e-06)
(6.80307e-08 5.17222e-09 -1.79882e-06)
(-7.44243e-07 9.58257e-07 -2.51468e-06)
(9.12324e-07 -1.30854e-06 -3.40787e-06)
(1.14272e-06 1.35023e-06 -3.41642e-06)
(-1.58536e-06 -1.67989e-06 -4.37243e-06)
(1.19132e-07 8.59233e-09 -3.2187e-06)
(-1.30479e-06 1.63209e-06 -4.38847e-06)
(1.4294e-06 -2.14695e-06 -5.54869e-06)
(1.77688e-06 2.16238e-06 -5.55752e-06)
(-2.54031e-07 -1.36542e-06 -5.95051e-06)
(1.24532e-06 -1.22036e-08 -9.85102e-06)
(-3.10869e-06 -1.96461e-07 -6.42128e-06)
(-3.17161e-06 1.03273e-07 -6.40397e-06)
(6.06111e-06 -5.26084e-08 -5.58485e-06)
(-2.9224e-07 -2.74261e-09 -7.48146e-06)
(-3.08252e-07 1.06059e-08 -7.46717e-06)
(3.50341e-08 1.92423e-08 -4.07769e-06)
(3.37078e-07 2.10829e-09 -4.08902e-06)
(1.8426e-06 2.204e-06 -5.57909e-06)
(-1.97231e-07 -1.35855e-06 -5.93702e-06)
(1.21542e-07 4.18888e-09 -5.29232e-06)
(-2.61377e-07 1.64561e-06 -6.0555e-06)
(1.2006e-06 -2.75048e-07 -9.86183e-06)
(-3.15836e-06 -1.43651e-07 -6.46887e-06)
(-3.11894e-06 1.30561e-07 -6.39271e-06)
(6.0236e-06 -1.01691e-07 -5.60149e-06)
(-8.91621e-08 1.36323e-06 -5.92387e-06)
(1.43151e-06 -2.17153e-06 -5.55345e-06)
(9.95042e-08 1.39805e-08 -5.31981e-06)
(5.75669e-08 8.90646e-09 -5.27837e-06)
(2.31541e-08 2.67443e-08 -4.31482e-06)
(1.00588e-08 1.17819e-08 -2.56084e-06)
(2.29349e-09 3.12061e-09 -1.36822e-06)
(-5.09262e-10 -9.40939e-11 -6.55798e-07)
(-9.31276e-10 -7.25958e-10 -2.82555e-07)
(-6.56487e-10 -5.61956e-10 -1.09801e-07)
(-3.21413e-10 -2.81984e-10 -3.92344e-08)
(-1.41269e-10 -1.23275e-10 -1.57995e-08)
(-6.74376e-11 -5.85658e-11 -9.41504e-09)
(8.75982e-10 -1.00542e-09 -7.4643e-09)
(-1.06753e-09 -1.12483e-09 -7.53768e-09)
(1.08654e-09 -1.13387e-09 -7.53352e-09)
(-8.56203e-10 -9.97478e-10 -7.43836e-09)
(3.67625e-11 3.3096e-10 -1.39231e-08)
(8.42042e-10 1.44253e-10 -7.50389e-09)
(-6.89069e-10 -2.17432e-11 -7.44899e-09)
(2.48516e-11 -1.19718e-09 -6.51833e-09)
(-7.39638e-10 3.30047e-10 -6.63326e-09)
(4.97822e-12 -9.85374e-10 -1.15203e-08)
(-8.2129e-10 1.36749e-10 -7.50334e-09)
(-1.33475e-11 3.31771e-10 -1.3948e-08)
(7.09552e-10 -1.38328e-11 -7.4773e-09)
(1.38486e-11 -9.66733e-10 -1.13739e-08)
(6.56701e-10 1.88312e-10 -6.65616e-09)
(-8.03363e-11 8.55276e-10 -8.26446e-09)
(-7.72508e-10 4.51844e-10 -6.47578e-09)
(-1.67881e-11 -1.19939e-09 -6.53214e-09)
(7.45277e-10 3.33223e-10 -6.64245e-09)
(2.19206e-12 9.3646e-10 -8.32248e-09)
(3.94118e-12 1.32494e-09 -4.72416e-09)
(1.60639e-09 1.58787e-09 -7.34228e-09)
(-3.89087e-09 -4.03692e-09 -9.90563e-09)
(3.91221e-09 -4.03913e-09 -9.89482e-09)
(-3.75693e-09 -4.26712e-09 -1.02412e-08)
(6.78425e-09 5.09812e-09 -1.97363e-08)
(-1.14836e-08 -1.05267e-08 -3.19919e-08)
(2.10204e-08 1.64312e-08 -5.65233e-08)
(-3.45518e-08 -2.9842e-08 -9.30018e-08)
(5.92256e-08 4.73789e-08 -1.56435e-07)
(-9.338e-08 -7.91412e-08 -2.47647e-07)
(1.50806e-07 1.22521e-07 -3.95215e-07)
(-2.26712e-07 -1.9187e-07 -5.95563e-07)
(3.46728e-07 2.83785e-07 -9.01902e-07)
(-4.94371e-07 -4.23543e-07 -1.28884e-06)
(7.18726e-07 5.88181e-07 -1.85464e-06)
(-9.65085e-07 -8.48062e-07 -2.506e-06)
(1.33428e-06 1.08999e-06 -3.42297e-06)
(-1.65741e-06 -1.51629e-06 -4.36727e-06)
(2.17845e-06 1.77629e-06 -5.59933e-06)
(-1.34944e-06 -2.53932e-07 -5.88329e-06)
(3.71455e-08 1.3213e-06 -9.86151e-06)
(1.3689e-06 -1.13053e-07 -5.98634e-06)
(4.08916e-08 1.067e-07 -5.32482e-06)
(-2.12031e-06 1.53882e-06 -5.53685e-06)
(1.61571e-06 -1.39373e-06 -4.40191e-06)
(9.9127e-09 1.22771e-07 -3.2216e-06)
(-1.29269e-06 9.88179e-07 -3.40844e-06)
(9.47181e-07 -8.01596e-07 -2.51981e-06)
(5.24846e-09 6.95866e-08 -1.8006e-06)
(-6.95162e-07 5.44227e-07 -1.85098e-06)
(4.8743e-07 -4.03622e-07 -1.29442e-06)
(2.78771e-09 3.61307e-08 -8.98914e-07)
(-3.34704e-07 2.64837e-07 -9.01159e-07)
(2.24206e-07 -1.82953e-07 -5.97794e-07)
(1.38961e-09 1.69388e-08 -4.03233e-07)
(-1.4521e-07 1.14486e-07 -3.95111e-07)
(9.26261e-08 -7.54494e-08 -2.48611e-07)
(6.58707e-10 7.07177e-09 -1.62815e-07)
(-5.68239e-08 4.40057e-08 -1.56459e-07)
(3.44192e-08 -2.84674e-08 -9.34493e-08)
(2.99182e-10 2.66132e-09 -5.93999e-08)
(-2.00596e-08 1.49987e-08 -5.66002e-08)
(1.15694e-08 -1.00632e-08 -3.21072e-08)
(1.26922e-10 1.30994e-09 -2.01325e-08)
(-6.42731e-09 4.44995e-09 -1.99687e-08)
(1.90489e-11 -6.04341e-10 -1.25633e-08)
(6.47946e-09 4.45657e-09 -1.99801e-08)
(-1.14785e-08 -1.00413e-08 -3.21211e-08)
(-7.6342e-11 1.31231e-09 -2.0159e-08)
(-6.73536e-09 5.11633e-09 -1.97644e-08)
(3.78558e-09 -4.26184e-09 -1.0265e-08)
(-2.78523e-11 1.35379e-09 -9.36607e-09)
(-1.62712e-09 1.86971e-09 -7.10528e-09)
(-1.25202e-10 1.19411e-09 -4.73065e-09)
(1.58952e-09 1.26518e-09 -7.53356e-09)
(-4.05706e-09 -3.7441e-09 -9.34198e-09)
(6.29292e-09 3.99932e-09 -1.98025e-08)
(-1.1535e-08 -9.41043e-09 -3.1888e-08)
(1.96185e-08 1.43722e-08 -5.63272e-08)
(-3.39458e-08 -2.667e-08 -9.33486e-08)
(5.6132e-08 4.29012e-08 -1.56742e-07)
(-9.08199e-08 -7.11099e-08 -2.48717e-07)
(1.4448e-07 1.12242e-07 -3.97568e-07)
(-2.18924e-07 -1.73372e-07 -5.98325e-07)
(3.3521e-07 2.60642e-07 -9.0944e-07)
(-4.74604e-07 -3.85821e-07 -1.29517e-06)
(7.02061e-07 5.40987e-07 -1.87632e-06)
(-9.1993e-07 -7.75207e-07 -2.51168e-06)
(1.31701e-06 1.00114e-06 -3.47847e-06)
(-1.55715e-06 -1.3451e-06 -4.33993e-06)
(2.15196e-06 1.57503e-06 -5.65002e-06)
(-1.33293e-06 -1.0544e-07 -5.92864e-06)
(-3.60307e-07 1.00839e-06 -9.77844e-06)
(5.46881e-07 -6.02237e-07 -6.33596e-06)
(5.70267e-08 1.40402e-07 -5.19065e-06)
(-2.0066e-06 2.19307e-06 -6.11853e-06)
(1.43527e-06 -1.95852e-06 -4.8005e-06)
(6.17997e-09 1.44493e-07 -3.14642e-06)
(-1.18445e-06 1.4597e-06 -3.74219e-06)
(8.62929e-07 -1.08493e-06 -2.71638e-06)
(-8.21776e-09 7.69142e-08 -1.75459e-06)
(-6.15363e-07 7.95003e-07 -2.01472e-06)
(4.37772e-07 -5.30041e-07 -1.38205e-06)
(-7.65972e-09 3.81788e-08 -8.72905e-07)
(-2.93757e-07 3.83095e-07 -9.75277e-07)
(1.98538e-07 -2.36991e-07 -6.34417e-07)
(-4.68213e-09 1.7736e-08 -3.90608e-07)
(-1.27581e-07 1.66449e-07 -4.26233e-07)
(8.13589e-08 -9.66435e-08 -2.62362e-07)
(-2.6039e-09 7.4123e-09 -1.57271e-07)
(-4.99608e-08 6.50523e-08 -1.67702e-07)
(3.01691e-08 -3.58125e-08 -9.77102e-08)
(-1.31609e-09 2.83175e-09 -5.71148e-08)
(-1.75989e-08 2.275e-08 -5.99107e-08)
(1.01482e-08 -1.23659e-08 -3.32349e-08)
(-6.33111e-10 1.37981e-09 -1.91415e-08)
(-5.60947e-09 6.86672e-09 -2.04921e-08)
(2.97909e-09 -4.46656e-09 -1.05289e-08)
(-9.2751e-11 1.31571e-09 -8.89875e-09)
(-8.26899e-10 2.60912e-09 -7.15245e-09)
(1.18031e-09 2.14341e-09 -6.68592e-09)
(2.02688e-09 -1.03637e-09 -6.56527e-09)
(-6.77753e-10 3.60655e-09 -1.05831e-08)
(-3.34227e-12 -7.62611e-10 -5.54912e-09)
(-4.43159e-10 9.36821e-11 -6.38563e-09)
(1.50743e-09 3.50217e-09 -9.22296e-09)
(-4.91659e-09 -3.28566e-09 -9.05053e-09)
(5.93319e-09 4.82532e-09 -1.96847e-08)
(-1.30649e-08 -8.31072e-09 -3.24406e-08)
(-8.79247e-09 1.2988e-08 -3.15393e-08)
(-1.12736e-08 -1.20089e-08 -3.19591e-08)
(1.31102e-09 -2.76395e-10 -1.97662e-08)
(4.23063e-09 -7.8135e-09 -1.94362e-08)
(4.75963e-09 6.55062e-09 -1.98794e-08)
(-4.35868e-09 -4.18445e-09 -9.50283e-09)
(1.23688e-09 8.72548e-12 -9.15712e-09)
(-3.6783e-09 4.08238e-09 -1.02225e-08)
(-7.19186e-10 3.65607e-11 -1.22297e-08)
(-2.15936e-10 -2.24008e-10 -1.20859e-08)
(-1.10421e-09 -8.89239e-10 -1.06062e-08)
(4.72531e-11 4.90026e-11 -6.94635e-09)
(-7.77479e-11 -7.73036e-11 -6.73216e-09)
(-1.03023e-09 2.98921e-11 -1.13479e-08)
(-5.85069e-10 -1.1625e-10 -1.33557e-08)
(-6.88859e-10 -9.91787e-11 -1.24845e-08)
(-3.93471e-09 3.91884e-09 -1.01783e-08)
(-4.30578e-09 -3.99407e-09 -9.95607e-09)
(4.96192e-09 6.61486e-09 -1.99463e-08)
(-1.0985e-08 -1.16907e-08 -3.21019e-08)
(-1.87727e-09 3.54041e-11 -3.49724e-08)
(1.66366e-08 2.06134e-08 -5.65606e-08)
(-3.13425e-08 -3.47906e-08 -9.34252e-08)
(4.88229e-08 5.84881e-08 -1.56403e-07)
(-8.3252e-08 -9.36055e-08 -2.48574e-07)
(-1.24127e-08 4.85928e-10 -2.55963e-07)
(1.27289e-07 1.49741e-07 -3.95304e-07)
(-2.01951e-07 -2.2642e-07 -5.97471e-07)
(2.95709e-07 3.45739e-07 -9.02559e-07)
(-4.45576e-07 -4.919e-07 -1.29232e-06)
(-2.55324e-08 2.24811e-09 -1.27e-06)
(6.1229e-07 7.18347e-07 -1.85597e-06)
(-8.86187e-07 -9.55743e-07 -2.51076e-06)
(1.12382e-06 1.33079e-06 -3.42037e-06)
(-1.55234e-06 -1.63333e-06 -4.37735e-06)
(3.22848e-07 -4.02569e-09 -4.08673e-06)
(3.47385e-08 2.54058e-09 -4.07504e-06)
(-8.7693e-09 4.24033e-09 -2.41627e-06)
(-5.4108e-09 1.29293e-08 -2.42199e-06)
(-2.21329e-08 4.99553e-09 -1.29165e-06)
(-2.41008e-08 5.98745e-09 -1.27623e-06)
(6.37593e-07 7.27766e-07 -1.87064e-06)
(-9.10878e-07 -9.57154e-07 -2.51761e-06)
(7.48365e-08 3.33814e-09 -1.80681e-06)
(-7.38059e-07 1.14084e-06 -2.54953e-06)
(8.56711e-07 -1.52966e-06 -3.42257e-06)
(1.18011e-06 1.36235e-06 -3.45655e-06)
(-1.5586e-06 -1.61896e-06 -4.35988e-06)
(1.40974e-07 1.37178e-08 -3.22912e-06)
(-1.37168e-06 1.98412e-06 -4.47568e-06)
(1.27568e-06 -2.42149e-06 -5.51718e-06)
(2.57483e-06 1.56757e-06 -6.29726e-06)
(-1.28476e-07 -1.26544e-06 -5.85569e-06)
(2.02365e-07 -2.61314e-06 -1.00877e-05)
(-3.41509e-06 -2.15633e-07 -6.67647e-06)
(-3.18526e-06 3.07379e-08 -6.29372e-06)
(5.80497e-06 -9.31045e-07 -5.82742e-06)
(-4.13112e-07 -2.57645e-07 -7.37836e-06)
(3.87129e-08 2.11856e-08 -3.90212e-06)
(7.51226e-08 1.14443e-06 -3.59834e-06)
(-1.1494e-06 1.33136e-06 -4.73031e-06)
(1.99638e-07 7.59274e-08 -2.71903e-06)
(5.108e-07 -1.50276e-06 -3.52388e-06)
(-5.34373e-07 8.88809e-07 -2.59547e-06)
(2.71783e-08 -1.03605e-08 -1.47189e-06)
(2.91265e-07 -6.56336e-07 -1.89043e-06)
(-2.56203e-07 4.50848e-07 -1.2942e-06)
(-2.86782e-09 -1.41121e-08 -7.23557e-07)
(1.31789e-07 -2.91662e-07 -9.15691e-07)
(-1.20235e-07 2.07116e-07 -5.91033e-07)
(-4.01485e-09 -7.47125e-09 -3.2256e-07)
(5.09214e-08 -1.20061e-07 -3.97699e-07)
(-4.99122e-08 8.51517e-08 -2.41362e-07)
(-3.17343e-09 -4.11667e-09 -1.29023e-07)
(2.01364e-08 -4.6211e-08 -1.55818e-07)
(-1.85582e-08 3.26629e-08 -8.88721e-08)
(-1.9672e-09 -1.9635e-09 -4.64623e-08)
(7.20897e-09 -1.52017e-08 -5.45759e-08)
(-5.69054e-09 1.14224e-08 -2.96894e-08)
(-1.0454e-09 -1.07442e-09 -1.53963e-08)
(3.13784e-09 -4.59787e-09 -1.81133e-08)
(8.40177e-10 5.01136e-10 -1.04285e-08)
(5.15463e-10 1.19825e-09 -9.86319e-09)
(3.33434e-11 -3.42671e-09 -1.66275e-08)
(-3.17959e-11 -7.92777e-10 -1.83479e-08)
(3.04829e-09 7.22847e-09 -2.66588e-08)
(-1.39869e-09 -1.32885e-08 -4.99457e-08)
(2.02967e-08 1.43131e-08 -5.62939e-08)
(-3.75174e-08 -2.47591e-08 -9.5224e-08)
(6.05053e-08 4.07938e-08 -1.588e-07)
(-1.00658e-07 -6.66994e-08 -2.54871e-07)
(-6.46816e-08 1.06101e-07 -2.47127e-07)
(-8.56169e-08 -9.48345e-08 -2.49209e-07)
(7.09376e-09 -1.16522e-09 -1.62216e-07)
(3.99009e-08 -6.76558e-08 -1.56852e-07)
(5.00233e-08 5.80597e-08 -1.56464e-07)
(-3.21517e-08 -3.5408e-08 -9.35302e-08)
(2.64923e-09 -6.53309e-10 -5.89359e-08)
(-2.42549e-08 3.90154e-08 -9.22027e-08)
(-4.30086e-09 1.041e-10 -9.78257e-08)
(-2.39793e-09 -2.1494e-09 -9.76871e-08)
(-9.10781e-10 -8.52206e-10 -3.44416e-08)
(-1.06572e-09 -8.70398e-10 -2.86118e-08)
(-1.93085e-09 -4.80047e-09 -3.68161e-08)
(4.00008e-10 -1.51289e-09 -3.17732e-08)
(-8.63538e-11 -5.65563e-10 -2.9883e-08)
(-2.45728e-09 -5.49974e-10 -3.65408e-08)
(-7.37131e-09 8.35708e-10 -3.89496e-08)
(-1.92659e-09 3.47615e-10 -1.44638e-08)
(1.56949e-09 4.95178e-11 -8.27495e-09)
(1.61279e-09 -1.7997e-10 -4.77393e-09)
(1.48556e-09 2.40336e-09 -8.77686e-09)
(5.95487e-10 7.4222e-10 -5.19967e-09)
(3.42081e-09 1.45079e-11 -9.19113e-09)
(8.22929e-10 6.95301e-10 -1.30715e-08)
(2.86627e-09 -8.71133e-10 -2.24162e-08)
(5.49859e-09 -3.05894e-09 -6.44039e-08)
(-9.56867e-09 -2.66885e-09 -1.04972e-07)
(-1.94697e-08 2.11116e-09 -1.08377e-07)
(-4.60812e-08 5.44534e-09 -2.79997e-07)
(-2.46862e-08 -6.22596e-09 -2.76463e-07)
(1.20463e-08 -8.16442e-09 -1.75504e-07)
(-6.17628e-09 -3.89077e-08 -1.42333e-07)
(1.84383e-09 -4.70912e-09 -1.55725e-07)
(1.86908e-08 5.52223e-08 -2.21698e-07)
(-1.70853e-08 -1.01505e-07 -3.61967e-07)
(1.58464e-07 1.04908e-07 -4.06622e-07)
(-2.45405e-07 -1.61254e-07 -6.14782e-07)
(3.70291e-07 2.44691e-07 -9.35028e-07)
(-5.47637e-07 -3.51354e-07 -1.33518e-06)
(-3.56428e-07 5.73381e-07 -1.30028e-06)
(-4.59643e-07 -4.95127e-07 -1.29757e-06)
(3.72091e-08 -1.04435e-09 -9.00284e-07)
(2.36112e-07 -3.95426e-07 -9.08074e-07)
(3.06036e-07 3.47359e-07 -9.07295e-07)
(-2.08072e-07 -2.28634e-07 -5.99521e-07)
(1.7176e-08 -1.6042e-09 -4.02955e-07)
(-1.58582e-07 2.59739e-07 -5.9751e-07)
(-1.69467e-08 2.94513e-09 -6.04171e-07)
(-7.24639e-09 -7.29369e-09 -5.88269e-07)
(-4.80043e-09 -4.38692e-09 -2.52446e-07)
(-5.22675e-09 1.64172e-09 -2.16506e-07)
(-1.21109e-08 -3.4315e-08 -2.66685e-07)
(-1.20512e-09 -1.7736e-08 -2.49786e-07)
(-4.02268e-09 -1.24317e-08 -2.36027e-07)
(-5.336e-09 -1.40025e-08 -1.03144e-07)
(-6.72288e-10 -6.70332e-09 -9.24289e-08)
(-1.55827e-09 -4.78577e-09 -8.72724e-08)
(7.77396e-09 2.05247e-08 -8.12475e-08)
(5.97038e-10 -1.919e-09 -5.59509e-08)
(-2.50214e-09 -6.91597e-10 -8.25107e-08)
(-2.76466e-10 5.35978e-09 -6.61907e-08)
(1.83517e-10 -7.24776e-09 -3.99029e-08)
(1.45957e-11 -1.92461e-09 -1.48559e-08)
(-1.37126e-10 1.87099e-09 -8.53138e-09)
(1.33331e-10 3.26434e-09 -9.17067e-09)
(-2.07262e-09 5.66553e-09 -7.81345e-09)
(-6.02205e-10 -4.73936e-10 -1.34796e-08)
(-4.32368e-10 -7.62972e-11 -9.83558e-09)
(-2.03391e-10 1.83897e-09 -2.30914e-08)
(-8.61969e-11 1.17257e-09 -2.33412e-08)
(1.16006e-08 -1.05039e-08 -3.2055e-08)
(1.15827e-11 -1.82299e-09 -3.48153e-08)
(-2.08781e-08 1.65291e-08 -5.6595e-08)
(2.0244e-08 1.50113e-08 -5.66544e-08)
(-3.41121e-08 -2.83712e-08 -9.3458e-08)
(-1.12264e-10 2.67277e-09 -5.94953e-08)
(3.49795e-08 -2.98733e-08 -9.32623e-08)
(2.40676e-10 -4.97216e-09 -9.84577e-08)
(-5.88311e-08 4.76212e-08 -1.56652e-07)
(5.74456e-08 4.41088e-08 -1.56722e-07)
(-9.17184e-08 -7.51509e-08 -2.48537e-07)
(-2.81132e-11 7.11979e-09 -1.63134e-07)
(9.47129e-08 -7.95736e-08 -2.48642e-07)
(9.16995e-10 -1.13678e-08 -2.56098e-07)
(-1.49763e-07 1.22796e-07 -3.95804e-07)
(1.47055e-07 1.15049e-07 -3.96143e-07)
(-2.21835e-07 -1.82297e-07 -5.97264e-07)
(4.63525e-10 1.70894e-08 -4.0415e-07)
(2.30357e-07 -1.93786e-07 -5.98656e-07)
(2.70033e-09 -1.99546e-08 -6.01792e-07)
(-3.44362e-07 2.83145e-07 -9.03137e-07)
(3.39465e-07 2.67181e-07 -9.04507e-07)
(-4.82037e-07 -4.02911e-07 -1.29187e-06)
(2.00651e-09 3.65992e-08 -9.01126e-07)
(5.03097e-07 -4.30016e-07 -1.29728e-06)
(6.15538e-09 -1.70379e-08 -1.27278e-06)
(-7.14217e-07 5.80736e-07 -1.8551e-06)
(7.05452e-07 5.53427e-07 -1.86101e-06)
(-9.36801e-07 -8.04854e-07 -2.50888e-06)
(5.68675e-09 7.08841e-08 -1.80471e-06)
(9.81082e-07 -8.62968e-07 -2.52679e-06)
(7.46473e-09 5.7067e-08 -2.41737e-06)
(-1.32549e-06 1.04794e-06 -3.41142e-06)
(1.30833e-06 1.02086e-06 -3.43384e-06)
(-1.60122e-06 -1.42162e-06 -4.3677e-06)
(1.07221e-08 1.25193e-07 -3.22444e-06)
(1.66786e-06 -1.51955e-06 -4.40882e-06)
(-1.08572e-08 3.98025e-07 -4.08457e-06)
(-2.15813e-06 1.63108e-06 -5.53813e-06)
(2.12715e-06 1.63056e-06 -5.58801e-06)
(-1.3581e-06 -1.68868e-07 -5.94624e-06)
(-4.1708e-09 1.07544e-07 -5.31597e-06)
(1.34615e-06 -2.21113e-07 -5.95114e-06)
(-1.02306e-07 6.03693e-06 -5.63746e-06)
(-2.61765e-07 -3.12239e-06 -6.44963e-06)
(-1.69063e-07 -3.24415e-06 -6.23108e-06)
(-3.27932e-07 4.54342e-06 -5.46812e-06)
(-2.94743e-06 1.20613e-06 -7.27081e-06)
(5.56709e-07 3.91726e-07 -4.54131e-06)
(2.74637e-07 -3.16644e-06 -5.70042e-06)
(-2.13523e-07 -7.99416e-07 -4.06423e-06)
(-4.22143e-07 -4.93859e-07 -3.87913e-06)
(-9.62218e-08 1.18671e-06 -4.45664e-06)
(-1.85263e-06 -1.25676e-06 -4.36527e-06)
(4.55143e-07 -2.41742e-08 -4.15265e-06)
(-9.94584e-07 8.22898e-08 -4.51835e-06)
(-1.2115e-06 -3.0303e-07 -4.57804e-06)
(-1.33017e-07 -3.20183e-07 -3.61321e-06)
(-3.47285e-07 -7.2675e-08 -2.71303e-06)
(-4.86433e-07 8.10329e-08 -2.67289e-06)
(-2.22378e-07 3.55442e-08 -1.39352e-06)
(-1.21737e-07 -2.23159e-08 -1.40318e-06)
(5.27982e-08 -4.0892e-08 -9.70125e-07)
(-5.44755e-08 -1.30501e-08 -6.55084e-07)
(-1.02321e-07 1.38655e-08 -6.56465e-07)
(-9.28559e-08 3.15883e-09 -6.51163e-07)
(-4.15055e-08 9.07813e-10 -2.79128e-07)
(-1.78261e-08 1.43123e-10 -1.08948e-07)
(-7.08749e-09 -8.48357e-11 -3.95849e-08)
(-1.88117e-09 -1.17413e-10 -1.47253e-08)
(1.96423e-09 -2.35574e-10 -8.47716e-09)
(1.42359e-09 -9.655e-11 -4.72819e-09)
(1.56224e-09 1.65145e-09 -7.44664e-09)
(1.78231e-09 -1.68847e-09 -6.53975e-09)
(2.94071e-09 -6.15732e-11 -9.20544e-09)
(2.85449e-09 -9.71188e-12 -9.41053e-09)
(1.68952e-09 -1.74634e-09 -7.14358e-09)
(1.70873e-09 1.69694e-09 -7.38186e-09)
(1.33026e-09 -2.22768e-11 -9.35996e-09)
(-1.2228e-09 -7.45932e-12 -6.50789e-09)
(3.12946e-10 -1.23208e-11 -7.96712e-09)
(-1.41023e-10 -1.41086e-10 -6.93135e-09)
(-9.50296e-11 -9.9243e-11 -6.75916e-09)
(2.84298e-10 2.89353e-10 -7.81283e-09)
(-1.0637e-09 -4.99395e-11 -6.20325e-09)
(-9.58519e-12 3.3217e-10 -7.94659e-09)
(1.24986e-12 -1.42827e-10 -6.82362e-09)
(6.79075e-13 -1.71692e-10 -7.05046e-09)
(7.6049e-12 -5.51399e-11 -9.58847e-09)
(-6.65292e-10 6.04789e-10 -7.46387e-09)
(-8.21616e-10 -8.15679e-10 -7.61512e-09)
(-8.25663e-10 8.45679e-10 -7.60648e-09)
(-6.61123e-10 -5.73289e-10 -7.45367e-09)
(6.77389e-10 -5.91972e-10 -7.43884e-09)
(-4.30026e-10 -4.26962e-10 -7.28414e-09)
(6.9489e-11 6.68194e-11 -1.45744e-08)
(8.51024e-10 8.47265e-10 -7.59829e-09)
(-5.83203e-10 6.82881e-10 -7.45006e-09)
(-5.75678e-10 -6.58337e-10 -7.45011e-09)
(7.2541e-11 -4.10212e-11 -1.45975e-08)
(8.38513e-10 -8.27805e-10 -7.60666e-09)
(7.5422e-12 8.71642e-12 -9.77512e-09)
(1.95216e-11 2.24925e-11 -1.63683e-08)
(2.05805e-11 -1.38695e-10 -1.60583e-08)
(1.73126e-11 -5.68353e-10 -1.34698e-08)
(-1.37877e-10 -5.46423e-10 -1.33199e-08)
(-5.36553e-11 -6.89049e-10 -1.24104e-08)
(-1.71589e-10 -1.6707e-09 -3.64734e-08)
(-2.98497e-10 -4.36637e-09 -1.0296e-07)
(-2.21491e-10 -9.38549e-09 -2.65361e-07)
(6.79726e-10 -1.63749e-08 -6.16765e-07)
(3.61254e-09 -1.94962e-08 -1.28908e-06)
(-4.7044e-09 -8.37424e-09 -1.23305e-06)
(-1.18546e-08 5.07462e-08 -1.08671e-06)
(-4.30098e-08 -1.70578e-07 -1.31753e-06)
(7.45854e-09 -8.01589e-08 -1.256e-06)
(-2.1458e-08 -3.69462e-08 -1.19279e-06)
(8.31835e-08 3.23926e-07 -1.1881e-06)
(-1.15716e-07 -4.72763e-07 -1.72381e-06)
(7.87664e-07 5.15852e-07 -1.95142e-06)
(-1.10504e-06 -7.03207e-07 -2.58512e-06)
(1.5331e-06 9.72618e-07 -3.71877e-06)
(3.12565e-09 -5.87033e-08 -3.30126e-06)
(-4.30559e-07 -9.45144e-07 -3.17886e-06)
(-9.54581e-08 -8.29212e-08 -2.27815e-06)
(1.21324e-07 6.93588e-07 -2.39119e-06)
(1.27056e-08 -3.08175e-08 -1.78519e-06)
(7.40302e-08 -1.02295e-07 -1.97263e-06)
(9.90932e-08 1.50826e-08 -1.98653e-06)
(-2.02398e-07 9.11975e-09 -1.37388e-06)
(-4.31816e-07 2.24922e-08 -2.61048e-06)
(-9.17805e-07 2.91789e-08 -4.44285e-06)
(-2.21013e-06 -2.94664e-08 -6.80677e-06)
(-2.28391e-06 -3.38368e-07 -6.83457e-06)
(-4.95029e-06 1.17733e-06 -6.95914e-06)
(-1.82324e-06 -5.82727e-07 -5.47828e-06)
(-1.52836e-06 -1.79445e-06 -4.89423e-06)
(-5.60835e-09 -3.09644e-07 -5.33581e-06)
(-5.73559e-07 -4.33214e-07 -6.21917e-06)
(6.04317e-07 -4.74889e-06 -5.53584e-06)
(-4.57705e-06 -1.36443e-06 -6.50538e-06)
(-2.81937e-06 1.80114e-07 -9.79136e-06)
(-1.39551e-06 -2.06002e-06 -8.81702e-06)
(1.96459e-06 1.47239e-06 -8.22513e-06)
(1.59146e-07 7.93797e-08 -8.5482e-06)
(7.84811e-08 6.03117e-08 -5.30056e-06)
(-1.97534e-06 1.77423e-06 -6.84362e-06)
(2.08013e-06 1.48419e-06 -7.1534e-06)
(1.66753e-08 1.81087e-07 -8.68813e-06)
(-2.61868e-07 -1.70647e-07 -5.42247e-06)
(-2.14814e-06 1.93715e-06 -7.04299e-06)
(2.08179e-06 1.74436e-06 -7.17391e-06)
(3.97494e-09 1.89224e-07 -8.7287e-06)
(-2.90627e-07 -2.04152e-07 -5.44747e-06)
(-2.10085e-06 1.76655e-06 -6.95695e-06)
(2.07384e-06 1.98134e-06 -7.26995e-06)
(1.37392e-08 1.77163e-07 -8.72319e-06)
(-4.628e-07 -4.52959e-07 -5.60079e-06)
(-2.00862e-06 1.47954e-06 -6.92039e-06)
(1.48092e-06 1.99803e-06 -7.79063e-06)
(-1.33283e-06 -7.24718e-07 -1.09196e-05)
(1.19406e-06 1.2262e-06 -9.05388e-06)
(9.13036e-07 -1.05733e-06 -8.86765e-06)
(2.5356e-06 1.13699e-06 -1.13034e-05)
(-1.19458e-06 -4.42926e-06 -1.1163e-05)
(-6.52075e-07 -2.3839e-06 -8.73158e-06)
(3.67708e-07 3.57387e-07 -6.25045e-06)
(1.38796e-06 -1.0943e-06 -8.6385e-06)
(-4.04595e-06 1.948e-06 -7.30122e-06)
(-1.8266e-07 -1.23514e-07 -6.22921e-06)
(-2.33632e-06 -3.13178e-06 -6.86421e-06)
(2.41614e-06 1.90596e-06 -7.70769e-06)
(2.37985e-06 -3.24429e-08 -6.26242e-06)
(2.14013e-06 -2.23602e-06 -8.02903e-06)
(2.71596e-06 -2.235e-06 -9.33332e-06)
(1.1416e-06 -3.18867e-06 -6.05477e-06)
(1.35e-07 9.3032e-07 -6.6439e-06)
(9.4956e-07 -1.61948e-06 -5.61032e-06)
(1.35531e-06 -1.11898e-06 -5.82522e-06)
(2.06204e-06 1.60692e-06 -7.15473e-06)
(-5.66563e-07 -2.51092e-06 -5.59782e-06)
(1.68646e-07 -4.39874e-07 -3.94216e-06)
(1.01033e-06 1.45944e-06 -4.51329e-06)
(-5.00658e-07 -1.27318e-06 -3.42137e-06)
(1.50421e-08 -1.53597e-07 -2.33629e-06)
(5.10889e-07 8.70795e-07 -2.5159e-06)
(-2.72809e-07 -6.13821e-07 -1.85376e-06)
(4.13754e-09 -7.21701e-08 -1.2231e-06)
(2.55524e-07 4.44084e-07 -1.27415e-06)
(-1.23812e-07 -2.82161e-07 -9.02221e-07)
(3.14865e-09 -3.77774e-08 -5.78326e-07)
(1.18759e-07 2.02883e-07 -5.83778e-07)
(-5.10059e-08 -1.20319e-07 -3.95037e-07)
(1.83479e-09 -1.80062e-08 -2.45512e-07)
(5.01064e-08 8.40114e-08 -2.41168e-07)
(-1.92097e-08 -4.65433e-08 -1.55395e-07)
(7.5428e-10 -7.27012e-09 -9.38534e-08)
(1.88305e-08 3.16331e-08 -8.94523e-08)
(-7.03157e-09 -1.62352e-08 -5.50905e-08)
(8.64526e-12 -2.13297e-09 -3.17969e-08)