/*--------------------------------*- C++ -*----------------------------------*\
| =========                 |                                                 |
| \\      /  F ield         | OpenFOAM: The Open Source CFD Toolbox           |
|  \\    /   O peration     | Version:  2306                                  |
|   \\  /    A nd           | Website:  www.openfoam.com                      |
|    \\/     M anipulation  |                                                 |
\*---------------------------------------------------------------------------*/
FoamFile
{
    version     2.0;
    format      ascii;
    arch        "LSB;label=32;scalar=64";
    class       volVectorField;
    location    "0.8";
    object      flux;
}
// * * * * * * * * * * * * * * * * * * * * * * * * * * * * * * * * * * * * * //

dimensions      [0 1 -1 1 0 0 0];

internalField   nonuniform List<vector> 
5322
(
(-0.00100176 0.00258642 -0.00346816)
(2.42443e-05 0.00024596 -0.00352435)
(2.92617e-05 -1.31439e-05 -0.00361156)
(3.00021e-06 -0.000102215 -0.00391472)
(-6.94734e-07 -5.39653e-05 -0.00385277)
(-8.31089e-07 -1.60859e-05 -0.00381238)
(-1.28848e-07 3.42532e-06 -0.00378289)
(3.74055e-07 2.18426e-05 -0.00376357)
(1.87526e-07 5.64013e-05 -0.00375641)
(-8.71818e-07 9.95926e-05 -0.00377396)
(-3.84651e-06 1.70639e-06 -0.00372327)
(4.15316e-05 -0.00072729 -0.00373106)
(6.39573e-05 -0.000807915 -0.0028071)
(-0.000881061 -0.000725236 -0.00387051)
(-2.33053e-05 -0.000629692 -0.00423263)
(0.00153394 0.00136311 -0.00337979)
(-0.00120535 0.00182315 -0.00399499)
(-1.88893e-05 -2.99974e-06 -0.00299182)
(-0.00092005 0.00125979 -0.00421413)
(0.000594339 -0.00149546 -0.00425661)
(-0.000808032 0.00142386 -0.0042901)
(0.000705133 -0.00144957 -0.00427767)
(-0.000745862 0.0014243 -0.00428956)
(0.000753299 -0.00146191 -0.00432162)
(-0.000763306 0.00146001 -0.00433411)
(0.000737326 -0.0014374 -0.00432186)
(-0.000738996 0.00143965 -0.00433866)
(0.000771613 -0.00147581 -0.0043726)
(-0.000760439 0.00147605 -0.00439174)
(0.000766146 -0.00146474 -0.00438528)
(-0.000727027 0.0014785 -0.00440373)
(0.000832392 -0.00148583 -0.0044286)
(-0.000624998 0.0015394 -0.00441844)
(0.000960568 -0.00132897 -0.00436404)
(1.63649e-05 0.00127831 -0.00416693)
(0.00121378 -0.000642618 -0.00343142)
(0.000855963 0.00126386 -0.00390989)
(-0.00034127 0.00158429 -0.00397891)
(0.000958545 0.000791789 -0.00410686)
(-5.5146e-05 0.000858775 -0.00289756)
(-0.00090914 0.00116933 -0.00381859)
(0.00091409 0.000976889 -0.00394089)
(-5.53489e-05 0.00101281 -0.00284539)
(-0.000972529 0.00109154 -0.00394653)
(0.000966534 0.00104069 -0.00390789)
(-3.32459e-05 0.00103228 -0.0028928)
(-0.00103367 0.00105729 -0.00400134)
(0.000903046 0.00112956 -0.00377727)
(-2.27523e-05 0.00104854 -0.00285468)
(-0.00108346 0.000999639 -0.00391341)
(-0.0010692 0.00125442 -0.00438699)
(-0.00155197 0.000605172 -0.00313979)
(-0.000486103 0.000678836 -0.00427809)
(0.00103808 -0.00223098 -0.00400856)
(-6.62861e-05 -0.000121142 -0.00375041)
(-0.00171339 -0.00129051 -0.00381036)
(-4.88417e-05 0.000679725 -0.00452875)
(0.0016371 -0.00169193 -0.00375069)
(-1.96464e-05 -9.56184e-05 -0.0037883)
(-0.00163593 -0.00147047 -0.0038138)
(-7.05554e-06 0.000690169 -0.00458362)
(0.00159433 -0.00166382 -0.00380122)
(-9.1807e-06 -8.53583e-05 -0.00378975)
(-0.00160686 -0.00145956 -0.00371979)
(-4.99218e-07 0.00069296 -0.00458056)
(0.00157004 -0.00172196 -0.00392937)
(2.00675e-05 -0.000110203 -0.0037719)
(-0.00159133 -0.00141175 -0.00353308)
(6.91416e-05 0.000699563 -0.00447277)
(0.00130354 -0.00189548 -0.00417256)
(5.27636e-05 6.631e-05 -0.00312497)
(-0.00138525 0.00165735 -0.00485927)
(0.00156969 0.000923023 -0.00462777)
(-0.00162436 0.00128967 -0.00456186)
(0.00156366 0.000963187 -0.0046101)
(-0.00159239 0.00122007 -0.00458769)
(0.00159542 0.00101795 -0.00458528)
(-0.00159226 0.00121476 -0.00456932)
(0.00181266 0.00103153 -0.00462942)
(-0.00130687 0.00142787 -0.00438474)
(0.000639384 0.000129094 -0.00417478)
(-0.000850032 0.000483075 -0.00321593)
(-0.0005507 0.00072908 -0.00333352)
(0.000951815 0.00121128 -0.00449641)
(9.80875e-05 -0.000102072 -0.00305982)
(-0.000534642 -0.000503234 -0.00407327)
(0.000632987 0.00014467 -0.00551494)
(-0.00170629 0.000284058 -0.00337807)
(-0.00063917 0.000529717 -0.00345963)
(0.00202647 6.15664e-05 -0.00310414)
(-8.73281e-05 0.000138841 -0.00392149)
(3.71501e-05 2.56299e-05 -0.00347647)
(6.84485e-05 4.01827e-06 -0.00366781)
(0.000312278 4.68693e-06 -0.00363962)
(0.00144222 0.00175115 -0.00442816)
(-0.000333638 -0.000937607 -0.00384989)
(-3.8808e-05 2.83368e-05 -0.00382895)
(-0.000163179 0.000945406 -0.00390499)
(0.000652599 2.57971e-05 -0.00561251)
(-0.00151274 -2.56e-05 -0.00328731)
(-0.00151412 0.000130596 -0.00331541)
(0.00337101 2.54632e-05 -0.00315456)
(-0.00016052 0.00100138 -0.00393463)
(0.00111253 -0.00170714 -0.00437622)
(0.00181107 0.00152783 -0.00476129)
(-2.03217e-05 2.11396e-05 -0.00371627)
(1.12322e-05 -2.93886e-05 -0.00394112)
(1.49451e-05 -5.40087e-06 -0.00393328)
(8.9926e-06 -8.20915e-07 -0.00388848)
(4.35553e-06 1.70993e-06 -0.00386399)
(1.69914e-06 1.91749e-06 -0.00383868)
(-4.73321e-07 2.29029e-06 -0.0038146)
(-4.47496e-06 5.06451e-06 -0.00379202)
(-1.09403e-05 1.00609e-05 -0.00379177)
(1.7173e-05 -1.69736e-05 -0.00435652)
(-5.80499e-06 4.47422e-06 -0.00431147)
(-0.000506402 0.000518371 -0.00301759)
(-0.000499583 -0.000213141 -0.00326969)
(5.29445e-05 -7.33137e-05 -0.00435673)
(0.000318396 -0.000400005 -0.00360349)
(1.80617e-05 0.000491981 -0.00319371)
(0.00048565 -0.000273692 -0.00388397)
(-0.000580887 -0.000533401 -0.00382955)
(-4.35106e-05 -0.000729696 -0.00539493)
(-0.000133849 -0.000824576 -0.00401894)
(0.000900542 -3.32321e-05 -0.00528263)
(0.00074076 0.000604403 -0.00379313)
(0.000205955 -0.000456068 -0.00396075)
(0.000579205 4.274e-05 -0.00519193)
(0.000374375 0.000498101 -0.00377712)
(0.000284665 -0.00049612 -0.00387647)
(0.000621861 2.09014e-05 -0.00523882)
(0.000313914 0.000517798 -0.00383564)
(0.000336781 -0.000530922 -0.0038043)
(0.000632688 -1.6768e-05 -0.00526279)
(0.000274816 0.000483584 -0.00388988)
(0.000530036 -0.000580081 -0.00382789)
(0.000719202 -4.61721e-05 -0.00540354)
(0.0008153 -0.000133937 -0.00402197)
(3.50396e-05 0.000888123 -0.0052831)
(-0.000597624 0.00073575 -0.00380263)
(3.29333e-05 -0.000482308 -0.0032046)
(0.000398193 0.00031979 -0.00360388)
(-0.000482411 0.000248566 -0.00322394)
(-0.000517625 -0.0005085 -0.00302321)
(7.40611e-05 5.48704e-05 -0.00435728)
(0.000213825 -0.000498174 -0.00326985)
(0.000117628 0.000390777 -0.0032469)
(-0.000405105 0.000401626 -0.0029831)
(-0.000445251 -0.000442853 -0.00300277)
(8.33754e-05 -6.68885e-06 -0.00434878)
(0.000132558 -0.000413203 -0.00325133)
(0.000159783 0.000414744 -0.00323877)
(-0.000439377 0.000447725 -0.00298482)
(-0.000416868 -0.00040219 -0.00300994)
(8.40686e-05 -1.34914e-06 -0.00434764)
(8.71202e-05 -0.000384388 -0.00325783)
(0.000253028 0.000488009 -0.0032224)
(-0.000482134 -3.17999e-05 -0.00320346)
(0.000629131 -2.40301e-05 -0.004232)
(-0.00135651 0.00153393 -0.00337483)
(-0.00181816 -0.00120219 -0.00400023)
(0.00156842 0.00133028 -0.00465524)
(-0.00183812 -0.00141421 -0.00455465)
(-7.70469e-05 4.78307e-05 -0.00288778)
(-0.00126346 -0.000911361 -0.00421497)
(1.03125e-05 -1.93633e-05 -0.00299211)
(0.00123121 -7.98291e-06 -0.00405161)
(-0.000295627 -0.000170358 -0.00277326)
(0.00146653 0.000439933 -0.00375025)
(0.000726966 -0.000880251 -0.0038752)
(0.00108405 0.000875797 -0.00359976)
(-0.0016253 -0.00147072 -0.00372903)
(0.000634071 3.35894e-06 -0.004327)
(-0.00140044 0.0015022 -0.00356021)
(0.000932448 -0.00148519 -0.00438787)
(0.00121565 0.00154626 -0.00435715)
(-0.00148825 -0.0015819 -0.00421242)
(3.38524e-05 6.58458e-06 -0.00351846)
(-0.00126529 0.00155844 -0.00420513)
(0.00111534 -0.00159893 -0.00431041)
(0.00138831 0.00165838 -0.00431926)
(-0.00147784 -0.0016562 -0.00428731)
(-8.45288e-06 6.17008e-06 -0.00358366)
(-0.00123863 0.00161945 -0.00429224)
(0.00118141 -0.00163395 -0.00431491)
(0.00144332 0.00168664 -0.00432036)
(-0.0014827 -0.00168364 -0.00431607)
(-1.97559e-06 3.82228e-06 -0.00361168)
(-0.00123725 0.00164448 -0.00432005)
(0.00120857 -0.00165308 -0.00433721)
(0.00146777 0.00170301 -0.00434097)
(-0.00149975 -0.00170073 -0.00434096)
(1.40974e-06 3.26279e-06 -0.00363674)
(-0.00125205 0.00166176 -0.00434655)
(0.00121426 -0.00167251 -0.00436682)
(0.00148005 0.00172261 -0.0043726)
(-0.00153192 -0.00171529 -0.00436538)
(3.11265e-06 4.26812e-06 -0.00366476)
(-0.00128216 0.00167638 -0.00437431)
(0.00120335 -0.00169517 -0.00440299)
(0.00148305 0.00174675 -0.00441289)
(-0.0015776 -0.00172435 -0.00438985)
(5.64656e-06 5.64124e-06 -0.0036947)
(-0.00131962 0.00168281 -0.00440265)
(0.00117437 -0.00171378 -0.00443673)
(0.00147446 0.00176548 -0.00445183)
(-0.00161775 -0.00170291 -0.0044198)
(1.14821e-05 7.27745e-06 -0.00371292)
(-0.00133729 0.00165417 -0.00443809)
(0.00111248 -0.00171042 -0.00439581)
(0.0013887 0.00172471 -0.0044102)
(-0.000301467 -0.000937589 -0.00389628)
(0.000623502 -4.29299e-06 -0.00561552)
(-0.00150143 -7.03525e-05 -0.00328848)
(-0.00153113 2.95784e-05 -0.00327689)
(0.00339151 -2.80193e-05 -0.0031654)
(-0.000117704 -1.70562e-06 -0.00445329)
(-0.000128813 1.09075e-05 -0.00444115)
(7.6656e-05 1.45482e-05 -0.0036681)
(0.000337129 9.72078e-08 -0.00364071)
(0.00143299 0.00175488 -0.00441468)
(-0.000262926 -0.000933324 -0.00388051)
(-2.41643e-05 7.77036e-06 -0.00378247)
(-0.000293643 0.00111293 -0.00393047)
(0.000594087 -0.000151914 -0.00559619)
(-0.00152966 -4.55111e-05 -0.00330618)
(-0.00150471 3.76702e-05 -0.00327615)
(0.00337203 -5.50821e-05 -0.0031713)
(-0.000193831 0.000942504 -0.00388203)
(0.00111281 -0.00172812 -0.0044011)
(-4.00749e-05 1.00574e-05 -0.00382746)
(1.88702e-05 7.69968e-06 -0.00387064)
(1.79269e-05 2.16297e-05 -0.00392645)
(1.14661e-05 1.39167e-05 -0.00388784)
(5.9202e-06 7.38034e-06 -0.00386573)
(2.54265e-06 3.29512e-06 -0.00384027)
(-1.25138e-08 2.35308e-07 -0.00381557)
(-4.12806e-06 -4.42983e-06 -0.00379242)
(-9.93466e-06 -1.11531e-05 -0.00379165)
(1.71408e-05 1.65716e-05 -0.00435634)
(-5.32024e-06 -5.96984e-06 -0.00431256)
(0.000402383 -0.000417275 -0.00300433)
(-0.000446641 -0.00044446 -0.00299505)
(0.000445083 -0.000444663 -0.00299273)
(-0.00040425 -0.00041824 -0.00300414)
(8.1516e-07 8.55099e-05 -0.00434711)
(0.000404679 0.000147191 -0.00323853)
(-0.000382435 9.27626e-05 -0.00325671)
(-2.13691e-06 -0.000561838 -0.00327613)
(-0.000481581 0.000294564 -0.0038755)
(2.72979e-07 -0.000595669 -0.00544532)
(-0.00040476 0.000147534 -0.00323943)
(-3.03846e-07 8.5681e-05 -0.00434728)
(0.000381463 9.29522e-05 -0.00325572)
(1.5006e-05 -0.000588682 -0.00541478)
(0.000449787 0.000204949 -0.00394899)
(-3.67323e-05 0.000563253 -0.00517458)
(-0.000486299 0.000363563 -0.00377447)
(1.59013e-06 -0.000561605 -0.00327692)
(0.000480926 0.000295178 -0.00387516)
(-4.88695e-07 0.000611439 -0.00517569)
(-7.02432e-08 0.000853784 -0.00276342)
(0.000851988 0.000901831 -0.00371294)
(-0.001465 -0.00147781 -0.0035624)
(0.00146327 -0.00147447 -0.00355828)
(-0.00144726 -0.00158689 -0.00373018)
(0.0015247 0.00115217 -0.00435398)
(-0.00156157 -0.00143071 -0.00421315)
(0.00163541 0.001315 -0.00431668)
(-0.00163331 -0.00141033 -0.00428742)
(0.00166289 0.00136711 -0.00431915)
(-0.00165987 -0.00141122 -0.00431564)
(0.00167902 0.00139109 -0.00434068)
(-0.00167686 -0.00142593 -0.00434068)
(0.00169851 0.00140336 -0.00437324)
(-0.00169116 -0.00145638 -0.00436506)
(0.00172281 0.00140748 -0.00441514)
(-0.00170026 -0.00150222 -0.00438852)
(0.00174303 0.00140422 -0.00445688)
(-0.00168054 -0.00154808 -0.00441524)
(0.00173196 0.00138642 -0.00443794)
(-0.000930681 -0.000303487 -0.00384641)
(1.97089e-05 0.000664479 -0.00561328)
(0.000939536 -0.000207235 -0.00392005)
(2.53897e-05 -3.40537e-05 -0.00382758)
(-0.00168949 0.00120031 -0.00438559)
(0.00163568 -0.00142559 -0.00444875)
(8.5233e-06 1.57779e-05 -0.00371486)
(-0.00169302 0.00127331 -0.00443535)
(0.00166163 -0.00141887 -0.0044081)
(5.77051e-06 7.91968e-06 -0.00369642)
(-0.00167443 0.00130533 -0.0044049)
(0.00165437 -0.00138339 -0.00437647)
(3.81696e-06 4.26578e-06 -0.00366598)
(-0.00165192 0.00131515 -0.0043695)
(0.00163953 -0.00135224 -0.00434693)
(2.63707e-06 1.83718e-06 -0.00363743)
(-0.00163267 0.00130732 -0.00433995)
(0.00162232 -0.0013352 -0.00431928)
(2.7103e-06 -2.12754e-06 -0.00361195)
(-0.00161397 0.00127844 -0.00431861)
(0.00159771 -0.00133226 -0.00428977)
(4.30188e-06 -9.12639e-06 -0.0035836)
(-0.00158017 0.00120832 -0.00431639)
(0.00153651 -0.00135081 -0.00420062)
(4.87426e-06 3.21226e-05 -0.0035175)
(-0.0014661 0.00100959 -0.00439385)
(8.71954e-07 -9.32229e-05 -0.00360269)
(0.00146563 0.00100871 -0.00438893)
(-0.00153744 -0.00135298 -0.00420534)
(-6.88331e-06 3.2182e-05 -0.00351752)
(-0.00152242 0.00115819 -0.00435841)
(0.00144509 -0.00157776 -0.00372927)
(-2.71154e-06 0.000633083 -0.00432604)
(-0.000859238 0.00104659 -0.00359195)
(-5.58213e-05 0.000782177 -0.00279711)
(0.000874015 0.000732162 -0.00388357)
(-0.00151718 -0.00139187 -0.00338051)
(0.00146608 0.000913893 -0.00440783)
(-0.0015454 -0.00130139 -0.0042216)
(0.00155481 0.00115283 -0.00430848)
(-0.00158528 -0.00127921 -0.0043123)
(0.00158704 0.00122876 -0.00431669)
(-0.00159807 -0.00128128 -0.00433159)
(0.00160682 0.0012582 -0.00434396)
(-0.00160924 -0.00129884 -0.00435258)
(0.00163077 0.00126835 -0.00437911)
(-0.00161981 -0.001335 -0.00437485)
(0.00166374 0.00126815 -0.00442843)
(-0.00161977 -0.0013783 -0.00438357)
(0.00169816 0.00125692 -0.00448636)
(-0.00157594 -0.00137644 -0.00437382)
(0.00169956 0.00120851 -0.00444959)
(-0.000917235 -0.000197377 -0.00386757)
(-0.000197908 0.000481516 -0.00553219)
(0.000398438 -0.000543965 -0.00408402)
(5.00567e-05 -8.05264e-06 -0.00368877)
(-0.00157766 0.00165711 -0.00472448)
(0.00141409 -0.00201646 -0.00477747)
(1.95543e-05 3.67415e-05 -0.00359518)
(-0.00154128 0.00180522 -0.00476759)
(0.00148393 -0.00195439 -0.00472795)
(2.58084e-06 1.90383e-05 -0.00357918)
(-0.0014825 0.00182372 -0.00472581)
(0.0014712 -0.00187075 -0.00468601)
(-2.04837e-06 8.10833e-06 -0.00354575)
(-0.001454 0.00181128 -0.00467891)
(0.00145103 -0.00182341 -0.00465182)
(-2.75099e-06 2.81216e-06 -0.003517)
(-0.00144004 0.00179958 -0.00464667)
(0.00144 -0.00180285 -0.00462816)
(-7.48641e-06 -2.52624e-06 -0.00349457)
(-0.00142854 0.0017873 -0.00462484)
(0.00143582 -0.0017946 -0.00460662)
(-1.85771e-05 -6.64775e-06 -0.00347256)
(-0.00140355 0.00175067 -0.00462534)
(0.00141245 -0.00180467 -0.00455623)
(-4.26019e-05 4.07693e-05 -0.00341442)
(-0.00130331 0.0015528 -0.00465454)
(0.00119251 -0.00179378 -0.00399948)
(2.56715e-05 0.000629318 -0.00423059)
(-0.000431995 0.00146187 -0.00374895)
(0.000735207 0.00129903 -0.00396035)
(0.00120902 -0.000652205 -0.00345563)
(3.82571e-05 0.00123927 -0.00406481)
(0.000150411 -0.000294111 -0.00276542)
(-0.000221 0.000233238 -0.00315628)
(0.000618842 0.00148455 -0.00359122)
(-0.0019088 -0.00128484 -0.00329688)
(0.00144954 0.00119968 -0.00451055)
(-0.00181938 -0.00113061 -0.00439714)
(-0.00122515 0.00181111 -0.00423625)
(-0.00151486 -0.00159454 -0.00420776)
(3.98692e-05 -1.26058e-05 -0.00350879)
(0.000996596 -0.00178267 -0.00435939)
(0.00110232 0.00152063 -0.00442281)
(-0.0015857 -0.00155438 -0.00343148)
(0.000613075 4.56482e-05 -0.00434443)
(-0.00142301 0.00163649 -0.00381693)
(-0.000105822 7.30729e-05 -0.00363137)
(7.61579e-05 3.16324e-05 -0.00356935)
(-0.000575812 -0.000462951 -0.00525766)
(4.92652e-05 4.5398e-05 -0.00424162)
(-2.32503e-05 -3.7169e-05 -0.00402139)
(-0.000610838 2.42967e-05 -0.00539827)
(6.20907e-05 -8.87439e-06 -0.00387216)
(-9.87702e-05 -3.16168e-06 -0.00361002)
(-0.00144388 0.00149621 -0.00368562)
(-0.00156596 -0.00149911 -0.00358195)
(0.00113075 0.00150138 -0.00439359)
(-0.00146769 -0.00156239 -0.00420055)
(1.84555e-05 2.68669e-07 -0.00355954)
(0.0013411 0.00161426 -0.00431946)
(-0.00146433 -0.00162738 -0.00428973)
(0.00141722 0.0016496 -0.0043209)
(-0.00147219 -0.001653 -0.00431942)
(9.47251e-06 1.19287e-06 -0.00356855)
(0.00145088 0.00167036 -0.0043435)
(-0.00149167 -0.00166895 -0.00434463)
(0.00146496 0.0016928 -0.00437613)
(-0.00152559 -0.0016809 -0.00436876)
(5.58419e-05 1.44706e-06 -0.00360588)
(0.00146524 0.00171877 -0.00441679)
(-0.00156567 -0.00168396 -0.00439131)
(0.00144748 0.00173717 -0.00445343)
(-0.00158315 -0.001655 -0.00442276)
(0.000327034 -2.68201e-06 -0.00364456)
(7.57696e-05 2.28365e-06 -0.00367194)
(4.78633e-05 3.77177e-06 -0.00364696)
(5.04472e-05 1.25e-05 -0.0036474)
(2.3597e-05 7.0037e-06 -0.00362589)
(5.87604e-05 4.62366e-06 -0.00361262)
(0.00151462 0.00173428 -0.00443117)
(-0.00160662 -0.00168154 -0.00439178)
(1.41496e-05 8.85255e-06 -0.00368949)
(-0.00130313 0.00198881 -0.00442983)
(0.00107872 -0.00197294 -0.00440447)
(0.00150358 0.00176722 -0.00447754)
(-0.001589 -0.00163831 -0.00439949)
(3.0444e-05 1.71384e-05 -0.00370074)
(-0.00139519 0.00199028 -0.00448356)
(0.000974917 -0.00190006 -0.00432434)
(0.00194876 0.00121126 -0.00481699)
(-0.000227193 -0.000845363 -0.00371294)
(3.87857e-05 -0.00135824 -0.00549157)
(-0.00164198 -9.28157e-05 -0.00334422)
(-0.00151572 -2.00852e-05 -0.00319868)
(0.00319282 -0.00049083 -0.00324524)
(-0.000198932 -0.000126362 -0.00428938)
(5.22456e-05 3.72675e-05 -0.00345222)
(8.81235e-05 0.000895353 -0.00307521)
(-0.000965692 0.00116628 -0.00448543)
(0.000219894 9.24134e-05 -0.00299688)
(0.0007525 -0.00188869 -0.00430085)
(-0.000778926 0.00142996 -0.00443884)
(6.36587e-05 1.37345e-05 -0.00296754)
(0.000801556 -0.00158817 -0.00435528)
(-0.000726796 0.00144716 -0.00437904)
(9.91242e-06 -3.616e-06 -0.00293831)
(0.000774814 -0.00148343 -0.00435729)
(-0.000740457 0.00145575 -0.00435083)
(-1.48154e-06 2.28494e-07 -0.00291757)
(0.000736402 -0.00142393 -0.00431697)
(-0.000714521 0.00144237 -0.00429889)
(-1.90992e-05 -1.04882e-05 -0.0029036)
(0.000762856 -0.00141565 -0.00431126)
(-0.00068782 0.00149169 -0.00427901)
(-4.66194e-05 -2.57351e-05 -0.00289649)
(0.000801651 -0.00134491 -0.0042852)
(-0.000539463 0.00151831 -0.004234)
(-7.77405e-05 -9.55157e-05 -0.00288599)
(0.000945762 -0.00119702 -0.00423648)
(0.000358992 0.000388105 -0.00324505)
(0.000265439 0.000583733 -0.00312865)
(-6.96861e-05 -0.000720651 -0.00389938)
(-3.62511e-05 5.85971e-06 -0.00340594)
(0.000372939 0.00117792 -0.00379783)
(-0.000163909 -0.00100446 -0.00394431)
(0.00168175 0.00117863 -0.00439814)
(-0.00179974 -0.0011543 -0.0044515)
(0.00176267 0.00117461 -0.00442098)
(-0.001804 -0.00116503 -0.00445727)
(-0.00116792 0.00189559 -0.00432247)
(-0.00151455 -0.00166155 -0.00433134)
(-2.54824e-06 -3.94247e-06 -0.00360436)
(0.00115343 -0.00189573 -0.00432822)
(0.00145529 0.00165204 -0.00432562)
(-0.00150667 -0.00164361 -0.00430641)
(-7.53912e-06 -9.86202e-06 -0.00357872)
(-0.00116737 0.00187022 -0.00429345)
(9.36138e-06 1.32822e-08 -0.00356426)
(6.8143e-07 -4.40321e-06 -0.00337257)
(1.25867e-05 -2.85091e-06 -0.0033723)
(-1.39844e-06 -0.000107912 -0.0029979)
(2.44801e-05 2.30861e-05 -0.00349601)
(9.63316e-05 0.000150139 -0.00339293)
(8.89905e-05 0.000163412 -0.00325482)
(0.00016101 6.64984e-05 -0.00379475)
(-4.91672e-05 2.88461e-05 -0.00376763)
(2.47572e-05 9.43482e-05 -0.00372116)
(0.000673223 6.67236e-05 -0.00375286)
(0.00106922 -8.58482e-05 -0.00291347)
(0.000891805 0.00139042 -0.00474791)
(0.000301503 0.000445725 -0.00262982)
(0.00135649 9.68802e-05 -0.00353134)
(0.000539762 0.000332867 -0.00375083)
(0.00025401 7.07615e-05 -0.00366901)
(7.66879e-05 2.07975e-05 -0.0036945)
(4.70166e-05 1.45292e-05 -0.00380819)
(-2.47559e-05 5.38755e-06 -0.00375117)
(-1.77598e-05 3.31678e-06 -0.00375771)
(1.19717e-05 3.40878e-06 -0.00383225)
(2.41399e-05 2.94035e-06 -0.0037097)
(-0.000214064 -0.00106386 -0.00395624)
(-3.002e-06 6.65692e-07 -0.00348157)
(0.000248079 0.00108763 -0.00392378)
(-0.00022894 -0.00107904 -0.00394842)
(0.00179419 0.00117765 -0.00446171)
(-0.00182265 -0.00117487 -0.00446988)
(0.00181635 0.00119671 -0.00450165)
(-0.00187099 -0.00118506 -0.0044875)
(-0.00122715 0.0019484 -0.00438534)
(-0.00157141 -0.00168404 -0.00437716)
(5.78951e-06 3.10493e-06 -0.00365854)
(0.00115739 -0.001927 -0.00437346)
(0.00150969 0.00169998 -0.00438472)
(-0.0015356 -0.00167443 -0.00435424)
(1.76442e-06 -2.53e-07 -0.0036293)
(-0.00118654 0.00191772 -0.00435199)
(1.6462e-05 3.89158e-06 -0.00359409)
(7.34216e-06 3.5302e-06 -0.0034088)
(1.65898e-06 -7.22675e-07 -0.00338773)
(9.45054e-07 -1.06912e-05 -0.0030093)
(2.35046e-06 -8.14783e-06 -0.00351351)
(5.80599e-06 1.49582e-05 -0.00347479)
(8.98407e-06 1.0862e-05 -0.00332657)
(6.73588e-06 3.6507e-09 -0.00349614)
(1.98814e-05 4.99605e-05 -0.00338051)
(3.01292e-05 3.58274e-05 -0.0032457)
(0.00029028 0.0011064 -0.00389558)
(-4.83164e-06 5.04632e-06 -0.00346337)
(-2.16984e-06 -5.07017e-05 -0.00299808)
(-9.23923e-06 -3.24288e-06 -0.00377557)
(1.71294e-06 -7.56143e-05 -0.00378696)
(3.90482e-06 8.71349e-06 -0.00373709)
(-3.80846e-05 0.000731875 -0.00373354)
(8.84448e-05 0.00139732 -0.00352341)
(-0.00101939 0.00256835 -0.0034198)
(-2.72551e-06 0.000268734 -0.00339811)
(1.38954e-05 -3.88818e-05 -0.00298454)
(6.80573e-07 -1.74441e-05 -0.00372355)
(-1.37825e-05 -6.91505e-05 -0.00367518)
(0.00156186 -0.00142167 -0.0042108)
(-1.86267e-07 5.85023e-06 -0.00355412)
(-0.00163467 0.00132488 -0.00432007)
(0.00158004 0.00120586 -0.00431252)
(-0.00159777 -0.00133293 -0.00429326)
(-5.57951e-06 -9.04568e-06 -0.00358422)
(0.00163575 -0.00140516 -0.0042862)
(1.27368e-07 9.76184e-06 -0.00354986)
(-0.00166259 0.00137564 -0.00432108)
(0.00161522 0.00127636 -0.00431674)
(-0.00162108 -0.0013345 -0.00432051)
(-2.30063e-06 -1.97898e-06 -0.00361292)
(0.00166397 -0.00141119 -0.0043167)
(1.07648e-06 8.18985e-06 -0.0035611)
(-0.00167809 0.00139497 -0.00434102)
(0.00163595 0.0013073 -0.0043413)
(-0.00163625 -0.00135099 -0.00434485)
(1.68789e-07 2.08255e-06 -0.00363888)
(0.00168322 -0.00143145 -0.00434454)
(1.97203e-06 2.32187e-05 -0.00357849)
(-0.00169686 0.00139986 -0.00437123)
(0.00165807 0.00131932 -0.00437539)
(-0.00164801 -0.00138304 -0.00436852)
(2.56227e-06 4.76317e-06 -0.00366798)
(0.00170092 -0.00146957 -0.00437351)
(1.7119e-06 6.75488e-05 -0.00359786)
(-0.00171986 0.00138749 -0.00440634)
(0.00168399 0.00131931 -0.00441914)
(-0.00165099 -0.0014244 -0.00438835)
(6.10866e-06 8.76818e-06 -0.00369838)
(0.00171173 -0.00152091 -0.00440563)
(-3.0854e-06 0.000167484 -0.00361708)
(-0.00173591 0.00134614 -0.00443151)
(0.00170373 0.00130879 -0.00446188)
(-0.00162292 -0.0014513 -0.00441285)
(9.69376e-06 1.70921e-05 -0.00371366)
(0.00168184 -0.00154795 -0.0044446)
(-1.47745e-05 0.000378699 -0.00362716)
(-0.00171768 0.0012704 -0.00438431)
(0.00169338 0.00127031 -0.00442637)
(-0.000932168 -0.000242682 -0.00389003)
(-1.17145e-06 -3.30414e-05 -0.00382072)
(0.000925561 -0.000281347 -0.0038907)
(-5.70784e-05 0.00336822 -0.00318516)
(-0.000119376 -0.00151013 -0.00328918)
(-0.000124089 -0.00154271 -0.0031613)
(-0.000131516 0.00248948 -0.00298943)
(-0.00163184 0.000647619 -0.0042759)
(0.00040458 0.000267331 -0.0030374)
(0.000356937 -0.00230917 -0.00409358)
(-0.000138428 -0.000478217 -0.00335682)
(-0.000285042 -0.000280291 -0.0032164)
(-0.000140416 0.00117985 -0.00419284)
(-0.00184163 -0.00123186 -0.00429566)
(0.0003889 -2.15743e-05 -0.00361925)
(-0.000479137 2.65414e-05 -0.00381882)
(-0.000796014 -0.000156473 -0.00381984)
(-0.000286577 -0.000187786 -0.00383313)
(-0.000229039 -2.01539e-05 -0.00389387)
(-0.000242214 4.98748e-05 -0.00381836)
(-0.000105075 2.88845e-05 -0.00379599)
(-4.76344e-05 1.06146e-05 -0.00388707)
(9.26345e-06 -1.62502e-05 -0.00376549)
(-4.3958e-06 5.96698e-06 -0.00385833)
(-4.03976e-05 1.1291e-05 -0.00377491)
(-4.88378e-05 3.32327e-06 -0.00374777)
(-2.93705e-05 4.8818e-07 -0.00373512)
(-5.27978e-05 -2.73383e-06 -0.00373235)
(-0.000101157 -9.67329e-06 -0.00375128)
(1.677e-05 -1.86695e-05 -0.00369849)
(0.000790658 -6.48329e-05 -0.00369893)
(0.000926626 -3.47136e-05 -0.00281358)
(0.000908741 0.000904243 -0.00384332)
(0.00104702 -0.000904599 -0.00340172)
(0.00129525 1.08862e-05 -0.00353899)
(0.00123317 5.84617e-06 -0.00355557)
(0.000964216 -0.000918828 -0.0036228)
(0.000970567 0.000905331 -0.0037434)
(0.000633359 -2.13704e-06 -0.00433707)
(-0.000563221 3.76697e-06 -0.00326935)
(0.000181784 -4.09075e-06 -0.00402828)
(-6.60784e-05 -6.85762e-05 -0.00397713)
(-4.62754e-05 -4.34518e-05 -0.00401992)
(0.000165 0.000164173 -0.00407977)
(-0.000491021 1.77776e-05 -0.00319625)
(-1.33641e-06 0.00018892 -0.00401535)
(-7.68943e-07 -6.70041e-05 -0.00402917)
(-1.58445e-06 -8.21663e-05 -0.00401014)
(1.3e-07 8.27874e-08 -0.00434117)
(-0.000310197 0.00030265 -0.00293403)
(-0.00035342 -0.000351828 -0.00295336)
(-0.000350263 0.000353252 -0.00294815)
(-0.000313995 -0.00030151 -0.00294341)
(0.000311278 -0.000305229 -0.00293396)
(-0.000264205 -0.000260915 -0.00292354)
(9.81606e-06 9.73981e-06 -0.00434994)
(0.000351882 0.000350304 -0.00294343)
(-0.000303602 0.00031522 -0.00294029)
(-0.000304833 -0.000314644 -0.00294132)
(9.74046e-06 -9.37992e-06 -0.00435019)
(0.000350585 -0.000352946 -0.00294834)
(-1.52069e-08 -1.11471e-08 -0.00436623)
(6.4725e-08 6.39597e-08 -0.00437421)
(1.64358e-07 2.23887e-05 -0.00436505)
(1.82195e-07 6.33635e-05 -0.00387231)
(-9.27234e-06 5.67085e-05 -0.00386533)
(1.24347e-05 -0.000126276 -0.00359119)
(-6.32465e-06 2.18166e-06 -0.0035493)
(-3.47096e-06 1.66952e-07 -0.00355245)
(-4.00937e-07 3.10205e-06 -0.00357108)
(2.01413e-06 1.00548e-05 -0.00359315)
(4.99635e-06 2.56623e-05 -0.00361693)
(2.06145e-05 1.10535e-05 -0.00343068)
(1.498e-05 9.34665e-05 -0.00304939)
(7.06245e-06 -7.73228e-05 -0.0035482)
(3.6477e-05 -1.04654e-05 -0.00350856)
(-1.08143e-05 5.10962e-05 -0.00335507)
(0.000219449 0.0011583 -0.00399544)
(-0.000312995 -0.0010622 -0.00399081)
(0.00185803 0.00122537 -0.0045749)
(-0.00192462 -0.00121211 -0.00445104)
(0.00192425 0.00124829 -0.00470861)
(-3.94434e-05 -3.06811e-05 -0.00361961)
(-0.000564784 -0.00110835 -0.00389354)
(-8.50877e-05 3.00162e-05 -0.0033131)
(0.000155615 0.00123476 -0.00406418)
(-1.61354e-05 -5.24598e-06 -0.00358142)
(-3.48848e-05 -5.57116e-05 -0.0038029)
(-1.68935e-05 1.13357e-05 -0.00388109)
(-0.000111685 7.84408e-06 -0.00376442)
(-0.000230956 1.55743e-05 -0.00378428)
(-0.000459274 1.84205e-05 -0.00382116)
(-0.00104983 -1.3379e-05 -0.00399444)
(-0.00107364 -0.000186767 -0.00394357)
(-0.00266569 0.000640107 -0.00388684)
(-0.00125125 -0.000286398 -0.00367532)
(-0.00109316 -0.00122172 -0.0035158)
(-3.66023e-05 -0.000156069 -0.00355443)
(-0.000430759 -0.00015 -0.0037055)
(0.000340578 -0.00242312 -0.00293229)
(-0.00216169 -0.000668701 -0.00321688)
(-0.00129284 8.53435e-05 -0.00436473)
(-0.000605709 -0.000979318 -0.00395228)
(0.000977768 0.000723342 -0.00412642)
(7.87263e-05 3.33639e-05 -0.004232)
(5.0653e-05 4.05956e-05 -0.00279833)
(-0.0010216 0.000875558 -0.00349594)
(0.00108092 0.000734394 -0.00368638)
(6.37436e-06 0.000102575 -0.00435916)
(-0.000128123 -8.22343e-05 -0.00289923)
(-0.00112206 0.000973474 -0.0036408)
(0.0010861 0.000874887 -0.00370657)
(1.90249e-06 0.000110518 -0.00438018)
(-0.000142793 -9.90525e-05 -0.00291093)
(-0.00109503 0.000883434 -0.00359506)
(0.00108252 0.000997653 -0.00375028)
(9.30398e-06 0.000103016 -0.00436425)
(-0.000233848 -0.00022806 -0.00296646)
(-0.00104483 0.000732937 -0.00355248)
(0.000771878 0.00101844 -0.00397117)
(-0.000616871 -0.000353297 -0.0054285)
(0.000506599 0.000533298 -0.00406343)
(0.000384142 -0.000464862 -0.00396551)
(0.00113203 0.000496875 -0.00498773)
(-0.000531928 -0.00196135 -0.00483739)
(-0.000307341 -0.00106502 -0.00393507)
(0.000168151 0.000191623 -0.00297309)
(0.000679822 -0.000484122 -0.0042783)
(-0.00221772 0.00104918 -0.00401163)
(-0.000122878 -6.33749e-05 -0.00374854)
(-0.0012981 -0.00171914 -0.00380243)
(0.00113588 0.00091023 -0.00378482)
(0.0010483 -1.8131e-05 -0.00285599)
(0.000998816 -0.00108068 -0.00390652)
(0.00125429 -0.00106861 -0.00438896)
(0.000604399 -0.00155281 -0.00313889)
(0.000135688 0.000648101 -0.00417757)
(0.000483392 -0.000852264 -0.00321775)
(0.000729975 -0.000546774 -0.00333648)
(0.00120397 0.000945684 -0.00449797)
(-0.000555296 -0.0019503 -0.0042506)
(0.000115317 -0.000221177 -0.00343232)
(0.000885988 0.00136722 -0.00448757)
(-0.000756344 -0.00167404 -0.00434002)
(1.14447e-06 -4.53753e-05 -0.00349445)
(0.000768785 0.00145216 -0.00442276)
(-0.000773564 -0.00152072 -0.00435879)
(-9.4987e-06 1.10526e-06 -0.00347698)
(0.000740038 0.00145243 -0.00437532)
(-0.000751072 -0.00145552 -0.00434217)
(-5.48472e-06 5.56306e-06 -0.00345906)
(0.000730386 0.00143617 -0.00433783)
(-0.00073875 -0.00143219 -0.00431999)
(-4.79229e-06 6.54696e-06 -0.00343631)
(0.000723801 0.00142711 -0.004312)
(-0.000739941 -0.00142166 -0.00429833)
(-1.02585e-05 2.06873e-05 -0.00342653)
(0.000696124 0.00142821 -0.0042855)
(-0.000778445 -0.00140731 -0.00428421)
(-6.13048e-05 8.63227e-05 -0.00335757)
(0.000589126 0.00146851 -0.00425836)
(-0.000899553 -0.00125797 -0.00421229)
(-0.000334908 0.000353518 -0.00326658)
(-1.41885e-05 0.00121969 -0.00405337)
(-0.0012107 -0.00068059 -0.00343796)
(-0.000749574 0.00129326 -0.00395534)
(0.000437359 0.00146072 -0.00374448)
(-0.00119333 -0.00181201 -0.00399811)
(0.0013212 0.00154774 -0.00465604)
(-0.00140378 -0.0018217 -0.00455354)
(3.94569e-05 4.24e-05 -0.00341442)
(-0.00146955 0.00091094 -0.00441613)
(0.0015148 -0.00139255 -0.00337352)
(-2.29764e-05 0.000628604 -0.00423243)
(-0.000873125 0.000728623 -0.00388196)
(5.57593e-05 0.000788775 -0.00279765)
(0.000860545 0.00104649 -0.0035874)
(-0.000851259 0.000900029 -0.00371544)
(3.03209e-06 0.000632617 -0.00432703)
(5.03776e-06 0.00121894 -0.00354447)
(1.48922e-06 0.000726038 -0.00372267)
(1.20056e-06 -6.82505e-06 -0.00373024)
(1.85386e-06 -0.000107611 -0.00377677)
(1.73799e-06 -6.20284e-05 -0.00375611)
(7.17334e-07 -3.99459e-05 -0.0037657)
(1.44109e-06 -2.61065e-05 -0.00377069)
(3.57908e-06 -4.87203e-05 -0.00378489)
(3.74903e-06 -2.69325e-05 -0.00353289)
(1.45843e-05 4.68613e-06 -0.00342846)
(1.69638e-06 2.23339e-05 -0.00329044)
(0.00023655 0.00109876 -0.00398179)
(-0.000248628 -0.00106926 -0.00399836)
(-6.76845e-06 -6.84098e-07 -0.00353451)
(-1.41631e-06 1.24305e-06 -0.00350238)
(1.16427e-05 -7.12935e-07 -0.00373393)
(2.85077e-06 2.10251e-07 -0.00379706)
(0.00115924 -0.00190798 -0.00434501)