/*--------------------------------*- C++ -*----------------------------------*\
| =========                 |                                                 |
| \\      /  F ield         | OpenFOAM: The Open Source CFD Toolbox           |
|  \\    /   O peration     | Version:  2306                                  |
|   \\  /    A nd           | Website:  www.openfoam.com                      |
|    \\/     M anipulation  |                                                 |
\*---------------------------------------------------------------------------*/
FoamFile
{
    version     2.0;
    format      ascii;
    arch        "LSB;label=32;scalar=64";
    class       volScalarField;
    location    "0.8";
    object      gradTz;
}
// * * * * * * * * * * * * * * * * * * * * * * * * * * * * * * * * * * * * * //

dimensions      [0 -1 0 1 0 0 0];

internalField   nonuniform List<scalar> 
5322
(
-0.867041
-0.881089
-0.902889
-0.97868
-0.963193
-0.953096
-0.945722
-0.940892
-0.939101
-0.94349
-0.930818
-0.932766
-0.701774
-0.967626
-1.05816
-0.844948
-0.998749
-0.747956
-1.05353
-1.06415
-1.07253
-1.06942
-1.07239
-1.08041
-1.08353
-1.08047
-1.08467
-1.09315
-1.09793
-1.09632
-1.10093
-1.10715
-1.10461
-1.09101
-1.04173
-0.857855
-0.977474
-0.994728
-1.02671
-0.72439
-0.954647
-0.985222
-0.711347
-0.986632
-0.976972
-0.723201
-1.00033
-0.944317
-0.713671
-0.978351
-1.09675
-0.784947
-1.06952
-1.00214
-0.937603
-0.952589
-1.13219
-0.937672
-0.947074
-0.953451
-1.14591
-0.950306
-0.947438
-0.929947
-1.14514
-0.982342
-0.942976
-0.88327
-1.11819
-1.04314
-0.781242
-1.21482
-1.15694
-1.14046
-1.15252
-1.14692
-1.14632
-1.14233
-1.15736
-1.09619
-1.0437
-0.803983
-0.833381
-1.1241
-0.764955
-1.01832
-1.37874
-0.844518
-0.864907
-0.776036
-0.980372
-0.869118
-0.916953
-0.909906
-1.10704
-0.962473
-0.957238
-0.976247
-1.40313
-0.821827
-0.828853
-0.788639
-0.983657
-1.09406
-1.19032
-0.929067
-0.985281
-0.983319
-0.97212
-0.965997
-0.959671
-0.953651
-0.948005
-0.947941
-1.08913
-1.07787
-0.754399
-0.817422
-1.08918
-0.900872
-0.798426
-0.970993
-0.957387
-1.34873
-1.00474
-1.32066
-0.948283
-0.990188
-1.29798
-0.944281
-0.969118
-1.30971
-0.958909
-0.951074
-1.3157
-0.972471
-0.956973
-1.35088
-1.00549
-1.32078
-0.950656
-0.80115
-0.90097
-0.805984
-0.755801
-1.08932
-0.817463
-0.811725
-0.745775
-0.750693
-1.08719
-0.812832
-0.809693
-0.746204
-0.752486
-1.08691
-0.814458
-0.805599
-0.800866
-1.058
-0.843708
-1.00006
-1.16381
-1.13866
-0.721945
-1.05374
-0.748027
-1.0129
-0.693315
-0.937563
-0.968799
-0.899939
-0.932256
-1.08175
-0.890052
-1.09697
-1.08929
-1.0531
-0.879614
-1.05128
-1.0776
-1.07981
-1.07183
-0.895916
-1.07306
-1.07873
-1.08009
-1.07902
-0.902919
-1.08001
-1.0843
-1.08524
-1.08524
-0.909185
-1.08664
-1.09171
-1.09315
-1.09134
-0.91619
-1.09358
-1.10075
-1.10322
-1.09746
-0.923676
-1.10066
-1.10918
-1.11296
-1.10495
-0.928229
-1.10952
-1.09895
-1.10255
-0.97407
-1.40388
-0.822119
-0.819223
-0.791351
-1.11332
-1.11029
-0.917026
-0.910179
-1.10367
-0.970128
-0.945618
-0.982618
-1.39905
-0.826544
-0.819038
-0.792824
-0.970507
-1.10027
-0.956864
-0.967659
-0.981612
-0.97196
-0.966432
-0.960067
-0.953893
-0.948106
-0.947911
-1.08909
-1.07814
-0.751083
-0.748763
-0.748182
-0.751034
-1.08678
-0.809632
-0.814177
-0.819031
-0.968875
-1.36133
-0.809858
-1.08682
-0.81393
-1.35369
-0.987248
-1.29364
-0.943618
-0.81923
-0.968791
-1.29392
-0.690855
-0.928234
-0.8906
-0.88957
-0.932545
-1.08849
-1.05329
-1.07917
-1.07185
-1.07979
-1.07891
-1.08517
-1.08517
-1.09331
-1.09126
-1.10378
-1.09713
-1.11422
-1.10381
-1.10949
-0.961602
-1.40332
-0.980012
-0.956895
-1.0964
-1.11219
-0.928715
-1.10884
-1.10203
-0.924106
-1.10122
-1.09412
-0.916494
-1.09237
-1.08673
-0.909357
-1.08499
-1.07982
-0.902988
-1.07965
-1.07244
-0.895901
-1.0791
-1.05016
-0.879374
-1.09846
-0.900672
-1.09723
-1.05134
-0.879381
-1.0896
-0.932316
-1.08151
-0.897989
-0.699276
-0.970892
-0.845127
-1.10196
-1.0554
-1.07712
-1.07807
-1.07917
-1.0829
-1.08599
-1.08814
-1.09478
-1.09371
-1.10711
-1.09589
-1.12159
-1.09346
-1.1124
-0.966893
-1.38305
-1.021
-0.922192
-1.18112
-1.19437
-0.898794
-1.1919
-1.18199
-0.894796
-1.18145
-1.1715
-0.886438
-1.16973
-1.16296
-0.879251
-1.16167
-1.15704
-0.873643
-1.15621
-1.15166
-0.86814
-1.15634
-1.13906
-0.853605
-1.16363
-0.999869
-1.05765
-0.937238
-0.990087
-0.863908
-1.0162
-0.691355
-0.78907
-0.897805
-0.824221
-1.12764
-1.09928
-1.05906
-1.05194
-0.877199
-1.08985
-1.1057
-0.85787
-1.08611
-0.954233
-0.907844
-0.892337
-1.31442
-1.06041
-1.00535
-1.34957
-0.968041
-0.902505
-0.921406
-0.895486
-1.0984
-1.05014
-0.889884
-1.07987
-1.07243
-1.08023
-1.07985
-0.892136
-1.08588
-1.08616
-1.09403
-1.09219
-0.90147
-1.1042
-1.09783
-1.11336
-1.10569
-0.91114
-0.917986
-0.911739
-0.91185
-0.906473
-0.903156
-1.10779
-1.09794
-0.922372
-1.10746
-1.10112
-1.11938
-1.09987
-0.925184
-1.12089
-1.08108
-1.20425
-0.928236
-1.37289
-0.836056
-0.799669
-0.811309
-1.07235
-0.863055
-0.768803
-1.12136
-0.749219
-1.07521
-1.10971
-0.741885
-1.08882
-1.09476
-0.734579
-1.08932
-1.08771
-0.729393
-1.07924
-1.07472
-0.725901
-1.07782
-1.06975
-0.724123
-1.0713
-1.0585
-0.721496
-1.05912
-0.811263
-0.782161
-0.974844
-0.851486
-0.949458
-0.986079
-1.09954
-1.11288
-1.10524
-1.11432
-1.08062
-1.08284
-0.901091
-1.08205
-1.08141
-1.0766
-0.894679
-1.07336
-0.891064
-0.843141
-0.843076
-0.749474
-0.874003
-0.848233
-0.813706
-0.948688
-0.941908
-0.930291
-0.938214
-0.728367
-1.18698
-0.657455
-0.882834
-0.937709
-0.917252
-0.923626
-0.952047
-0.937792
-0.939427
-0.958062
-0.927426
-0.98906
-0.870392
-0.980946
-0.987104
-1.11543
-1.11747
-1.12541
-1.12188
-1.09633
-1.09429
-0.914634
-1.09337
-1.09618
-1.08856
-0.907324
-1.088
-0.898522
-0.8522
-0.846932
-0.752325
-0.878376
-0.868698
-0.831643
-0.874034
-0.845128
-0.811425
-0.973896
-0.865843
-0.74952
-0.943892
-0.946741
-0.934273
-0.933385
-0.880854
-0.854951
-0.849528
-0.746134
-0.930889
-0.918795
-1.0527
-0.888529
-1.08002
-1.07813
-1.07332
-0.896054
-1.07155
-0.887464
-1.08027
-1.07919
-1.08013
-0.90323
-1.07918
-0.890274
-1.08526
-1.08533
-1.08621
-0.909721
-1.08613
-0.894622
-1.09281
-1.09385
-1.09213
-0.916994
-1.09338
-0.899466
-1.10158
-1.10479
-1.09709
-0.924594
-1.10141
-0.904271
-1.10788
-1.11547
-1.10321
-0.928415
-1.11115
-0.906791
-1.09608
-1.10659
-0.972509
-0.955179
-0.972675
-0.796289
-0.822296
-0.790324
-0.747357
-1.06897
-0.759349
-1.02339
-0.839206
-0.804099
-1.04821
-1.07391
-0.904812
-0.954705
-0.95496
-0.958282
-0.973467
-0.954591
-0.948997
-0.971767
-0.941373
-0.964583
-0.943728
-0.936942
-0.93378
-0.933087
-0.93782
-0.924622
-0.924734
-0.703396
-0.960831
-0.85043
-0.884747
-0.888892
-0.905699
-0.93585
-1.08427
-0.817337
-1.00707
-0.994284
-1.00498
-1.01994
-0.799064
-1.00384
-1.00729
-1.00253
-1.08529
-0.733508
-0.73834
-0.737037
-0.735853
-0.73349
-0.730885
-1.08749
-0.735857
-0.735072
-0.735329
-1.08755
-0.737084
-1.09156
-1.09355
-1.09126
-0.968077
-0.966333
-0.897799
-0.887325
-0.888113
-0.892771
-0.898288
-0.904231
-0.857671
-0.762348
-0.887049
-0.87714
-0.838768
-0.99886
-0.997703
-1.14372
-1.11276
-1.17715
-0.904902
-0.973385
-0.828276
-1.01604
-0.895355
-0.950725
-0.970273
-0.941104
-0.946069
-0.95529
-0.998611
-0.985893
-0.971711
-0.918831
-0.878951
-0.888606
-0.926375
-0.733073
-0.804221
-1.09118
-0.98807
-1.03161
-1.058
-0.699583
-0.873985
-0.921594
-1.08979
-0.724807
-0.9102
-0.926641
-1.09504
-0.727732
-0.898766
-0.93757
-1.09106
-0.741616
-0.88812
-0.992792
-1.35713
-1.01586
-0.991377
-1.24693
-1.20935
-0.983768
-0.743274
-1.06957
-1.00291
-0.937135
-0.950608
-0.946205
-0.713997
-0.97663
-1.09724
-0.784722
-1.04439
-0.804437
-0.83412
-1.12449
-1.06265
-0.858081
-1.12189
-1.085
-0.873612
-1.10569
-1.0897
-0.869244
-1.09383
-1.08554
-0.864765
-1.08446
-1.08
-0.859078
-1.078
-1.07458
-0.856632
-1.07138
-1.07105
-0.839392
-1.06459
-1.05307
-0.816646
-1.01334
-0.85949
-0.988836
-0.936119
-0.999529
-1.16401
-1.13839
-0.853606
-1.10403
-0.843381
-1.05811
-0.970491
-0.699413
-0.89685
-0.92886
-1.08176
-0.886116
-0.930669
-0.932561
-0.944193
-0.939027
-0.941425
-0.942673
-0.946223
-0.883222
-0.857116
-0.82261
-0.995448
-0.999589
-0.883628
-0.875594
-0.933483
-0.949265
-1.08625
-1.08751
-0.893856
-1.07955
-1.08464
-0.909908
-1.08635
-1.09213
-0.917069
-1.09336
-1.10107
-0.924391
-1.10032
-1.1087
-0.928141
-1.10738
-0.973439
-0.982468
-0.970596
-0.976124
-0.960552
-0.947824
-0.942082
-0.93778
-0.934768
-0.934128
-0.938957
-0.927541
-0.927742
-0.69916
-0.928861
-0.885686
-0.931715
-0.93144
-0.943829
-0.938832
-0.939863
-0.943203
-0.947652
-0.953322
-0.963994
-1.01504
-1.00923
-0.740485
-1.32542
-0.998141
-0.957991
-0.927854
-1.09502
-0.728968
-0.730751
-0.799603
-1.1412
-0.762333
-0.773835
-0.788816
-1.1477
-0.765814
-0.777298
-0.782062
-1.14301
-0.782271
-0.795704
-0.864512
-1.4425
-1.02947
-1.00506
-1.00984
-1.00077
-0.845969
-0.814121
-0.867703
-1.43717
-0.858454
-0.861406
-1.14515
-0.95187
-0.946911
-0.929041
-0.99127
-0.710858
-0.981283
-0.982019
-0.724715
-0.996506
-0.940179
-0.9465
-0.950116
-1.14798
-1.14414
-1.15432
-1.13866
-0.947455
-0.895671
-0.974981
-1.14693
-0.96207
-0.731508
-1.02175
-0.896605
-0.730311
-1.22145
-0.67341
-0.928007
-0.811826
-0.995241
-0.997646
-0.831569
-1.01652
-1.00315
-0.848262
-1.00222
-1.00493
-0.824924
-1.00147
-0.990518
-0.839229
-0.986602
-0.992929
-0.812635
-0.989046
-0.980449
-0.828551
-0.973524
-0.986181
-0.803717
-0.959268
-0.965015
-0.784036
-0.898332
-0.655046
-1.18292
-0.851182
-0.729147
-1.35042
-0.957696
-1.00491
-1.3192
-0.949682
-0.988406
-1.29649
-0.943
-0.970458
-1.30954
-0.961321
-0.948489
-1.31489
-0.705449
-0.904674
-1.08478
-0.892704
-0.901145
-1.09597
-0.879418
-1.05125
-1.05177
-0.888498
-1.0775
-0.868061
-1.07671
-1.15129
-0.749758
-1.1563
-0.725009
-1.15604
-0.75223
-1.15998
-0.728376
-1.1632
-0.756539
-1.16722
-0.733096
-1.17099
-0.761981
-1.17504
-0.738943
-1.18185
-0.768843
-1.18449
-0.745855
-1.19532
-0.776921
-1.18369
-0.750477
-0.884185
-1.13043
-1.10404
-0.926783
-1.1438
-0.890943
-1.13904
-1.10557
-0.914609
-1.13443
-0.884837
-1.12872
-1.09853
-0.906313
-1.12464
-0.878269
-1.12151
-1.09125
-0.899487
-1.11836
-0.872677
-1.11329
-1.08532
-0.894676
-1.11138
-0.868304
-1.10858
-1.08146
-0.891715
-1.10936
-0.86441
-1.10385
-1.08212
-0.893949
-1.09242
-0.85111
-1.13331
-1.08949
-0.907933
-0.82068
-0.788324
-0.692202
-0.937535
-0.990128
-0.859639
-1.01366
-0.814414
-0.846875
-0.857406
-0.882868
-0.886726
-0.926306
-1.08217
-0.890368
-0.930299
-0.89783
-1.10206
-0.85402
-1.13817
-0.749626
-1.15606
-0.723418
-0.944641
-0.932464
-0.920733
-1.09034
-0.966447
-1.35268
-0.814157
-1.08682
-0.810093
-0.817993
-1.00592
-1.00125
-0.993459
-1.00192
-1.00805
-1.3609
-0.967467
-0.900976
-0.888417
-0.889649
-0.892222
-1.08125
-1.0827
-0.893609
-0.937311
-0.927364
-0.921557
-1.08906
-0.879836
-1.05302
-1.07816
-0.896223
-1.07234
-1.07932
-0.903431
-0.978442
-0.890329
-0.891203
-0.894983
-0.900486
-0.898137
-0.900322
-0.894828
-0.889869
-0.889336
-0.888208
-0.887492
-0.88861
-1.05348
-1.07828
-1.15566
-1.15124
-1.15564
-1.15585
-0.725293
-1.07565
-0.749256
-1.0716
-0.723644
-1.0724
-0.749422
-1.06483
-0.83828
-0.805259
-0.983421
-0.864514
-0.976095
-1.10804
-0.891651
-1.08089
-0.899881
-1.08037
-1.08172
-0.894226
-1.08335
-0.908142
-1.08606
-1.08652
-0.897546
-1.08972
-0.913736
-1.09426
-1.09433
-0.90256
-1.09903
-0.89001
-1.1041
-1.10708
-0.895844
-1.11669
-1.09552
-0.891612
-0.989183
-0.98536
-0.972833
-0.966169
-0.959741
-0.95373
-0.948079
-0.948039
-1.08914
-1.07761
-0.751646
-0.745544
-0.749701
-0.812509
-1.36001
-0.967657
-0.968297
-1.34822
-0.812046
-0.816718
-1.00784
-1.00514
-1.0609
-1.00443
-1.35344
-0.966215
-0.897732
-1.10317
-0.854361
-0.945887
-0.927834
-1.09141
-1.08503
-0.735144
-0.732723
-1.08754
-0.730281
-0.745108
-1.08707
-0.928312
-0.889594
-0.843204
-0.892195
-1.31275
-1.13525
-0.908297
-1.08789
-0.87701
-1.06026
-1.0497
-0.892102
-1.07765
-0.895722
-1.07129
-0.889456
-1.07824
-0.902203
-1.07973
-1.07883
-0.890961
-1.08439
-0.877932
-1.08793
-1.09124
-0.883598
-1.09524
-0.904517
-0.898275
-0.892867
-0.888291
-0.887526
-0.92776
-1.09137
-1.08484
-0.907442
-0.950847
-0.928398
-0.945804
-0.927528
-0.907393
-0.95063
-0.88801
-0.889734
-0.889446
-0.888958
-0.894412
-0.891787
-0.939881
-0.943163
-0.947709
-0.950507
-0.955568
-0.885954
-0.86744
-0.878571
-0.892552
-0.729556
-1.0143
-0.748142
-1.35854
-0.979596
-0.957023
-0.956051
-1.11098
-0.985696
-1.03187
-0.980762
-1.34895
-0.965424
-0.956388
-0.926354
-1.09037
-0.727262
-0.740621
-0.807168
-1.13489
-0.759098
-0.78562
-0.79916
-1.14117
-0.762523
-0.786798
-0.794755
-1.1365
-0.780552
-0.80046
-1.15306
-0.985414
-0.917075
-0.91018
-1.1115
-1.18518
-0.898771
-1.19308
-0.747575
-0.895725
-1.15498
-0.911501
-1.09657
-1.12593
-0.92018
-1.08362
-1.16859
-1.11174
-1.03131
-0.823148
-0.944514
-0.878967
-1.09595
-1.1584
-1.1404
-1.10108
-0.923771
-1.09149
-0.919392
-1.09709
-0.923516
-1.09167
-0.920129
-1.09809
-0.926077
-1.0921
-1.16101
-1.13465
-0.947429
-0.841868
-1.00209
-1.14817
-0.841887
-1.01144
-1.02893
-0.989434
-0.86065
-0.858266
-0.863529
-1.42856
-0.864733
-0.953176
-1.37024
-1.03292
-0.992844
-0.841365
-0.853541
-1.15052
-0.792218
-0.791611
-1.1469
-0.971331
-0.987829
-0.983458
-0.97228
-0.966157
-0.959795
-0.953745
-0.94806
-0.947977
-1.08915
-1.07788
-0.730262
-0.733272
-0.997491
-0.993429
-1.00459
-1.29335
-0.987591
-0.800733
-0.805799
-0.900642
-0.817516
-0.798765
-0.957473
-1.35089
-1.00499
-1.3126
-0.949254
-1.31849
-1.06095
-1.02084
-1.00538
-1.34862
-0.812142
-0.812667
-1.08719
-0.74789
-0.747413
-0.812831
-0.812044
-0.816134
-0.962652
-1.32677
-0.963185
-1.35944
-0.96707
-0.968038
-0.892267
-0.748471
-0.848568
-0.854511
-0.883222
-0.93334
-0.933694
-0.946637
-0.941738
-0.942926
-0.94643
-0.951049
-0.956827
-0.953757
-0.966397
-0.965379
-1.00566
-0.745111
-0.815485
-0.820088
-1.40393
-0.953315
-0.967153
-0.997353
-1.32183
-0.737921
-0.818427
-0.820892
-0.750376
-0.828819
-0.843928
-1.3789
-0.986263
-1.0183
-0.776464
-0.864986
-0.946083
-0.885206
-0.891363
-0.967274
-1.01678
-1.01437
-0.970907
-0.969555
-0.991056
-0.976849
-0.963396
-0.954287
-0.948229
-0.933153
-0.92701
-0.926749
-0.918943
-0.931473
-0.874289
-0.875399
-0.878798
-0.883269
-0.887858
-0.890862
-0.985663
-0.970283
-0.970955
-0.959848
-0.949215
-0.940395
-0.939867
-0.932736
-0.946882
-0.942842
-1.07895
-1.15573
-1.15101
-1.15581
-1.15574
-0.872842
-1.07994
-1.07623
-0.867622
-0.985124
-0.887346
-0.888536
-1.0529
-0.966552
-1.35288
-0.943635
-0.897932
-0.927535
-0.945891
-1.08914
-0.754554
-0.746482
-1.00881
-1.00056
-1.00807
-0.997087
-0.72959
-1.08761
-0.997488
-1.00519
-0.818573
-1.0209
-0.997898
-0.992749
-1.00429
-1.00714
-1.06112
-1.00512
-1.00752
-1.00908
-1.02158
-0.753527
-0.817801
-0.900556
-1.08907
-0.806256
-0.800346
-0.945983
-0.928635
-1.09153
-1.08456
-0.907449
-0.928632
-0.889773
-0.843234
-0.749616
-0.843245
-0.74953
-0.888055
-0.887599
-0.892615
-0.890332
-1.0819
-1.08533
-1.16076
-1.16155
-1.16886
-1.16826
-0.884833
-1.09249
-1.08816
-0.878177
-0.998211
-0.846884
-0.752035
-0.851738
-0.756107
-0.898001
-0.894647
-0.899949
-0.896151
-0.905897
-0.901351
-0.911552
-0.909542
-0.861916
-0.768521
-0.907068
-1.01232
-1.00554
-0.9987
-0.992582
-0.985174
-0.969541
-0.951392
-0.951489
-0.977402
-0.959417
-0.957606
-0.983651
-0.965783
-0.957778
-0.95167
-0.970561
-0.969741
-0.951346
-0.953025
-0.954342
-0.960824
-0.967074
-0.963823
-0.990214
-0.972037
-0.970099
-0.996549
-0.97782
-0.975676
-0.999669
-1.0152
-0.914707
-1.10629
-0.735753
-1.1587
-0.983347
-0.966835
-1.13428
-0.781813
-1.14903
-1.06362
-1.03516
-0.97699
-1.3394
-0.967573
-0.957279
-0.898611
-1.06786
-1.07804
-0.846653
-0.957844
-1.06759
-1.07721
-0.9874
-0.966706
-1.33158
-0.981224
-1.03814
-1.04416
-1.04678
-1.03867
-0.977093
-1.06779
-0.94311
-0.937707
-1.09122
-0.742156
-0.726423
-0.794873
-1.13679
-0.779949
-0.768794
-0.782146
-1.1435
-0.780894
-0.772264
-0.775355
-1.13855
-0.796563
-0.864814
-1.43189
-1.05706
-0.991268
-0.863269
-0.857024
-1.14684
-0.970542
-0.9876
-0.976112
-0.969978
-0.963684
-0.957567
-0.951524
-0.950785
-0.970366
-0.985082
-0.86835
-1.07643
-1.07945
-0.873516
-1.08183
-1.08485
-1.16049
-1.16153
-1.16851
-1.16816
-0.733378
-1.08633
-0.755695
-1.08495
-0.728625
-1.08095
-0.751708
-1.07847
-0.858357
-0.822973
-0.988126
-0.872932
-0.990511
-1.11661
-0.899005
-1.09014
-0.911079
-1.09609
-1.09509
-0.90523
-1.09553
-0.919924
-1.10309
-0.912224
-1.1032
-0.924667
-1.11676
-1.11776
-0.922623
-1.0976
-0.91958
-1.09361
-1.09591
-0.923916
-1.11627
-1.11709
-1.09251
-0.919112
-0.969716
-0.922267
-0.912559
-0.90613
-0.900056
-0.89469
-0.890172
-0.843137
-0.846713
-0.892724
-0.89036
-0.898048
-0.894574
-1.08787
-1.09199
-0.885344
-1.09488
-1.10111
-1.17951
-1.17592
-1.1924
-1.18542
-0.747509
-1.08569
-0.767008
-1.10612
-0.739619
-1.09039
-0.76088
-1.09437
-0.868559
-0.832106
-0.997484
-0.886953
-1.00872
-1.12254
-0.911616
-1.09665
-0.921078
-1.12527
-1.11188
-0.923894
-1.10023
-0.912551
-1.08415
-1.16818
-0.920405
-1.11148
-1.03043
-0.943838
-0.878383
-0.944954
-0.972722
-0.822289
-0.857409
-1.12211
-1.06322
-0.770693
-0.88896
-0.888283
-0.885363
-0.88089
-0.876523
-0.873197
-0.872142
-0.846813
-0.855761
-0.990231
-0.859657
-0.6549
-0.788594
-0.89808
-0.819679
-1.18377
-0.727622
-0.84838
-1.08671
-0.953671
-0.856014
-0.902785
-1.08806
-0.879663
-1.04852
-0.889681
-1.07706
-0.895544
-1.07287
-1.07096
-0.887887
-1.07906
-0.873087
-1.08183
-0.948291
-0.934244
-1.08017
-0.928748
-1.08047
-0.938457
-0.937491
-0.923353
-0.925242
-0.887294
-0.961363
-0.937873
-0.884095
-0.936715
-0.785273
-0.962768
-0.851457
-1.09077
-0.893957
-1.08117
-0.894003
-1.07395
-1.07491
-0.891378
-1.07875
-0.902455
-1.07931
-0.892624
-1.08338
-0.907854
-1.08649
-1.08616
-0.895953
-1.09009
-0.946192
-0.940109
-1.08421
-0.935998
-0.935024
-0.933711
-0.936257
-1.08253
-0.927699
-1.10741
-0.929797
-0.917678
-0.960327
-0.948465
-0.941821
-0.923304
-1.10544
-0.952647
-0.820838
-0.983173
-0.868416
-1.11124
-0.894338
-1.0847
-0.905174
-1.08738
-1.08819
-0.899007
-1.08922
-0.914046
-1.09424
-0.904055
-1.09672
-0.919822
-1.10341
-1.10402
-0.910903
-1.10315
-0.911458
-0.996459
-0.989803
-0.971897
-0.963968
-0.957832
-0.951762
-0.951021
-0.951372
-0.969496
-0.977296
-0.992371
-0.890432
-0.895011
-0.900412
-1.00475
-0.990023
-0.983486
-0.965701
-0.959369
-0.978485
-0.970683
-0.896076
-1.07962
-0.88948
-1.07876
-1.07221
-0.889576
-1.0794
-1.07993
-1.0717
-1.07191
-0.891493
-1.07943
-1.08161
-1.07508
-1.08211
-0.892038
-1.07856
-1.05247
-1.04928
-1.05017
-1.0516
-0.891964
-1.0811
-1.07923
-0.896071
-1.07144
-0.89145
-1.08102
-1.07982
-0.902843
-1.07903
-0.894429
-1.08568
-1.08423
-1.08413
-1.0846
-0.892801
-1.07982
-1.0795
-0.902838
-1.07931
-0.894441
-1.08389
-1.08628
-1.08184
-0.900491
-1.08106
-1.10901
-0.891468
-1.07407
-0.894567
-1.08132
-1.106
-0.893663
-1.06019
-1.05013
-1.10643
-0.902579
-1.08903
-0.880159
-1.09832
-0.901284
-1.09694
-0.880117
-1.09031
-0.902503
-1.10508
-1.05097
-1.05919
-0.877447
-0.928775
-0.92043
-0.9247
-0.707919
-0.957974
-0.910646
-0.932765
-0.934345
-0.704139
-0.922124
-0.890731
-0.909057
-0.959098
-0.707786
-1.32023
-0.972303
-0.94735
-0.816373
-1.08493
-0.920967
-0.892923
-0.894479
-0.919368
-0.858579
-0.951855
-1.08664
-0.798288
-0.972178
-1.31985
-0.947952
-1.3484
-0.968105
-0.889823
-0.888675
-0.890183
-0.89517
-0.984568
-0.908535
-1.08655
-0.897697
-1.09015
-1.09087
-1.08965
-1.09301
-0.899191
-1.08656
-1.08826
-0.905857
-1.08489
-1.11482
-0.894214
-1.08063
-1.11144
-0.869012
-0.983874
-0.985711
-0.824043
-0.988891
-0.991476
-0.829208
-0.994376
-0.999316
-0.833162
-0.998434
-1.00967
-0.836155
-0.988308
-0.950642
-0.97427
-0.944627
-0.969442
-0.938044
-0.963103
-0.93194
-0.957594
-0.926872
-0.953295
-0.821497
-0.977285
-1.10798
-0.865053
-0.983605
-0.961207
-0.806479
-0.948873
-0.923608
-0.917726
-0.963125
-0.852037
-1.13544
-0.907856
-1.0881
-0.877541
-0.928738
-0.928546
-0.938104
-0.728333
-0.849951
-1.18331
-0.655043
-0.898915
-0.785441
-0.936424
-0.884177
-0.788964
-0.819952
-0.953126
-0.857464
-1.08666
-0.887362
-0.924437
-0.920509
-0.934444
-0.940496
-0.937158
-0.938938
-0.943484
-0.89891
-1.09035
-1.12273
-1.11695
-1.08772
-0.94779
-0.942142
-0.937719
-0.932318
-0.931014
-0.932351
-0.936614
-0.954282
-0.911813
-1.09506
-0.905413
-1.09573
-1.10141
-1.09545
-1.13465
-0.904854
-1.09652
-1.12232
-0.879848
-0.733387
-0.960952
-0.948362
-0.958575
-0.972075
-1.10152
-1.18001
-1.17598
-0.76752
-0.863097
-0.857359
-0.761324
-0.904
-0.899875
-1.09543
-0.910029
-0.905865
-1.1029
-0.892646
-1.01162
-0.906496
-0.91288
-1.01592
-1.00027
-0.996504
-0.977908
-0.971963
-0.990938
-0.970265
-0.973241
-0.970213
-0.963971
-0.984686
-0.983683
-0.977536
-0.959336
-0.978101
-0.992268
-0.998053
-0.878795
-0.954472
-0.948664
-0.935179
-0.93701
-0.942468
-0.930377
-0.929113
-0.920727
-0.932627
-0.882449
-0.944632
-0.944416
-0.942207
-0.950505
-0.953011
-0.958326
-0.962951
-0.960456
-0.973426
-0.96247
-1.10193
-1.11053
-0.899133
-1.10995
-0.986822
-0.971877
-0.974764
-0.979602
-0.884274
-0.947425
-1.21009
-1.24633
-0.743189
-0.992484
-1.3574
-1.01557
-0.846206
-1.00058
-1.01165
-0.862622
-0.863837
-1.44454
-1.03554
-1.00326
-1.27723
-1.10145
-1.10286
-1.04345
-1.06295
-0.785213
-1.15102
-0.968355
-0.98588
-0.975761
-0.997484
-0.991215
-0.990145
-0.906189
-0.903974
-0.899665
-0.909942
-0.90558
-0.862822
-0.857092
-0.851509
-1.12216
-1.12192
-0.904914
-1.09528
-0.917167
-1.10788
-1.10205
-0.91298
-1.10077
-0.92433
-1.10411
-0.912722
-0.906217
-0.990499
-1.00453
-1.01137
-0.893094
-0.996559
-0.977823
-0.971884
-0.965642
-0.984149
-0.894643
-0.889719
-0.888289
-1.08056
-0.929733
-1.07194
-0.921657
-1.05283
-1.09954
-0.89049
-0.921863
-0.93565
-0.697641
-0.926691
-0.926405
-0.935608
-0.940582
-1.08169
-0.938281
-0.926463
-0.9848
-0.956888
-0.940006
-0.931458
-1.11428
-0.962346
-0.828215
-0.99348
-0.879069
-0.998328
-0.937502
-0.968655
-0.951143
-0.944554
-0.94615
-1.08619
-0.941691
-1.08461
-0.939355
-0.952585
-1.09279
-0.947861
-1.09413
-0.946221
-0.959753
-1.10103
-0.944107
-1.13406
-0.973532
-0.83513
-0.987413
-0.895029
-1.15444
-0.950252
-0.959829
-0.972694
-0.966953
-0.943239
-0.887683
-0.933531
-0.915021
-0.965708
-0.967101
-1.10961
-0.955862
-0.9707
-0.966782
-0.955853
-0.933644
-0.96213
-0.959681
-0.953915
-1.10374
-1.09774
-0.947852
-0.940532
-0.958136
-0.973635
-0.97056
-0.962174
-0.933739
-0.961678
-0.958659
-0.952384
-1.0969
-0.966426
-0.9594
-0.95327
-0.876482
-0.873094
-0.871875
-0.835802
-0.864945
-0.88182
-0.887902
-0.89537
-0.974163
-0.971516
-0.974181
-0.975287
-0.927084
-0.723309
-0.809331
-0.912936
-0.966793
-0.973647
-0.968765
-0.95424
-0.943919
-0.936472
-0.93192
-0.930511
-0.934056
-0.932766
-0.920521
-0.923775
-0.9238
-0.89059
-1.08494
-0.886955
-0.938474
-0.928268
-0.940105
-0.938105
-0.894591
-1.07355
-1.07564
-0.89051
-0.970681
-0.951353
-0.907506
-0.969621
-0.985231
-0.843461
-0.892373
-1.31287
-1.16442
-0.721357
-0.843461
-0.992481
-0.978478
-0.959324
-0.977366
-0.983407
-0.965629
-0.984557
-0.895095
-0.900525
-0.900676
-0.906757
-0.997396
-0.920354
-1.09814
-0.904157
-1.09671
-1.1047
-0.912269
-1.10226
-1.10483
-1.10251
-1.10462
-0.913061
-1.10053
-1.11015
-1.1018
-0.917929
-1.10841
-1.12294
-0.887789
-0.739683
-0.961443
-0.950059
-0.958705
-0.971379
-0.973156
-0.945014
-0.94312
-0.887729
-0.965664
-0.933582
-0.914698
-0.966653
-0.968623
-0.952993
-0.943441
-0.956777
-0.950763
-1.09481
-1.09409
-1.09509
-1.0942
-0.90604
-1.09921
-1.0973
-0.920487
-1.10339
-0.914504
-1.10579
-1.10393
-0.925175
-1.11591
-1.12062
-1.11794
-0.923292
-1.01725
-1.00231
-0.976368
-0.978752
-0.980812
-0.985795
-0.917858
-0.91124
-1.11238
-0.792918
-0.729373
-1.14922
-1.06219
-1.06487
-0.977391
-1.03977
-1.04723
-1.06151
-0.772513
-1.13931
-0.945405
-1.14051
-1.14643
-1.14069
-1.14023
-1.11161
-0.887692
-1.044
-1.33219
-0.751903
-0.985228
-1.11515
-1.03804
-1.102
-1.02606
-0.991648
-1.29338
-1.08335
-0.800309
-0.866827
-1.43797
-0.85929
-1.14552
-0.797352
-1.14676
-0.946924
-0.989134
-0.981405
-1.00029
-1.00051
-1.01569
-1.00124
-0.996967
-1.00124
-0.982132
-0.978013
-0.9976
-0.990959
-1.00475
-0.90676
-0.913709
-0.913181
-1.00159
-0.922455
-0.869327
-0.771144
-1.19124
-0.7651
-0.979027
-1.0928
-0.928392
-0.973307
-0.980294
-1.1114
-0.789449
-0.726003
-1.15119
-0.968295
-0.946984
-1.14016
-0.76858
-1.14133
-1.062
-1.06242
-1.06682
-0.944774
-1.04364
-1.33136
-0.985082
-1.03832
-1.04363
-1.04497
-1.04872
-1.06191
-0.777266
-1.14131
-1.07947
-1.04553
-1.07775
-1.0626
-0.773548
-1.14337
-0.948521
-1.14678
-1.1463
-1.01898
-0.922374
-0.922892
-1.01914
-1.01451
-0.875525
-0.924705
-0.92318
-0.969946
-1.01414
-1.0183
-1.02039
-0.936987
-1.18492
-0.951734
-0.951783
-0.960423
-0.950718
-0.943395
-0.93861
-0.936724
-0.942588
-1.08215
-1.08041
-0.900573
-0.847275
-0.99826
-0.905846
-1.08727
-1.08885
-0.899387
-1.09207
-1.09028
-1.08622
-0.90853
-1.08699
-0.944655
-0.931039
-0.929609
-0.938367
-0.938511
-0.932463
-0.944551
-0.935418
-0.942718
-0.952928
-0.962275
-1.11828
-1.11476
-1.11871
-0.96246
-0.956777
-0.950796
-0.91445
-0.95416
-1.09663
-1.09536
-0.911715
-0.858294
-0.852111
-1.01188
-0.918077
-1.105
-1.10625
-0.960714
-0.944644
-0.937819
-0.931841
-0.926895
-0.923502
-0.917429
-0.883956
-0.936553
-0.949158
-0.953953
-0.957726
-0.948061
-0.96382
-0.970174
-0.978248
-0.967669
-0.968154
-0.916104
-0.964659
-0.967517
-0.967488
-0.963661
-0.954516
-0.933056
-0.963976
-0.963985
-0.954332
-0.936388
-0.963279
-0.966622
-0.932138
-0.962495
-0.865262
-0.924658
-1.11107
-0.921732
-0.982781
-0.970343
-1.14538
-1.08025
-1.08323
-1.11491
-1.02575
-1.10163
-1.10286
-1.10139
-1.08059
-1.0429
-1.09849
-1.29204
-1.09893
-1.10395
-1.18321
-1.15407
-1.29863
-1.29981
-1.27964
-1.29585
-1.2938
-0.949676
-0.953296
-0.981479
-1.15307
-0.814801
-0.949612
-0.984063
-0.914449
-0.913018
-1.13186
-0.900122
-1.0907
-0.885168
-0.858056
-0.876282
-0.845031
-0.872953
-0.864106
-1.10848
-1.07901
-1.08022
-0.934524
-1.29387
-1.11054
-0.952812
-0.728565
-0.873624
-0.693292
-1.09063
-0.721913
-0.723494
-0.725174
-0.856398
-0.816372
-0.887689
-0.895152
-0.95418
-0.946191
-0.752015
-0.907373
-1.08715
-0.74644
-1.00415
-0.749058
-1.0539
-0.896361
-0.901761
-0.864526
-0.843074
-0.700136
-0.907321
-0.90849
-0.893767
-0.75662
-0.885325
-1.10048
-0.903364
0.936771
0.926441
0.93865
0.932324
0.929685
0.93164
0.936594
0.944247
0.954616
0.9691
0.963147
0.962647
0.719241
1.01249
1.14636
0.89888
0.999233
0.946538
1.18318
0.883865
1.13124
0.995485
0.83335
1.01583
1.00379
0.841384
1.00682
0.999698
0.836168
0.998906
0.993338
0.826581
0.992553
0.986469
0.823083
0.98421
0.983517
0.818198
0.974831
0.983742
0.80572
0.957461
0.963365
0.784244
0.896446
0.653927
1.18123
0.728372
0.849784
0.95708
0.708812
0.90888
0.935484
0.706079
0.92846
0.926711
0.711338
0.938817
0.89985
0.705245
0.929149
1.11586
0.774003
1.03717
0.977693
0.900914
0.905166
1.07258
0.896774
0.901605
0.901217
1.08144
0.902993
0.900098
0.885318
1.08275
0.920047
0.901199
0.854303
1.08497
0.950046
0.906555
0.818144
0.786396
0.690542
0.857859
1.01138
1.05193
1.06235
1.0701
1.06974
1.07384
1.07631
1.07885
1.08374
1.08688
1.09094
1.09488
1.0995
1.10188
1.1067
1.10376
1.09116
1.0415
0.857707
0.975167
0.993378
1.02416
0.952419
0.719458
1.2899
0.996333
1.05518
0.992477
1.03045
1.1541
1.18184
1.09962
1.04835
1.05257
1.04893
1.09951
1.2901
1.05512
0.842995
0.852497
0.952109
0.864912
0.843418
1.00899
1.30053
1.03035
1.36958
0.992341
1.15409
0.974982
0.993437
1.04348
1.21363
1.18386
0.89163
1.15644
0.884293
1.11625
1.02474
0.71884
0.951484
0.98078
1.14081
1.09792
1.11824
1.10415
1.10469
1.09782
1.09562
1.08992
1.08926
1.08153
1.08523
1.07347
1.08152
1.06728
1.06356
0.91873
1.33197
0.93373
0.915926
1.05204
1.0737
0.899447
1.07714
1.07691
0.906031
1.08385
1.0827
0.910471
1.09038
1.089
0.915579
1.09782
1.09627
0.921153
1.10576
1.10375
0.925603
1.11775
1.0951
0.919884
1.15069
0.935735
1.14352
0.980908
0.708219
0.987459
0.940163
1.14596
0.957455
0.717981
1.01637
0.898624
1.15978
1.09483
1.11941
1.11095
1.10265
1.10871
1.0894
1.10375
1.0862
1.08223
1.08532
1.07414
1.08303
1.06063
1.07221
0.925229
1.33636
0.960753
0.907928
1.01526
1.16628
0.869477
1.15244
1.15213
0.874041
1.15623
1.15817
0.878438
1.17766
1.06259
0.913759
1.11903
1.08521
0.919488
1.11508
1.10167
0.92392
1.12132
1.1028
0.915845
1.13566
1.00151
1.14633
0.896784
0.731313
1.22239
0.845768
1.18143
1.13479
0.88442
1.00155
0.927902
0.810273
0.674263
0.859858
0.72387
1.04292
1.0951
0.750879
1.18509
1.09651
0.890778
1.213
1.15723
0.883892
1.11604
1.04473
0.779883
0.936569
1.3703
0.992142
1.15401
1.03051
1.30059
1.00932
0.843785
0.952347
0.864904
0.800547
1.15051
0.852467
0.863085
0.79577
0.792922
1.14719
0.857946
0.85741
0.792126
0.79594
1.14712
0.863611
0.852075
0.799178
0.865222
1.15023
0.952115
0.843171
1.03043
1.00895
1.30106
1.03057
1.15402
0.991363
1.0555
1.28753
0.999779
1.02557
1.27585
1.02486
1.00053
1.28713
1.0551
0.843317
1.09274
1.18113
1.09959
1.43239
1.01888
0.94255
0.982098
0.938092
1.15176
1.09577
1.09561
1.09884
0.919759
1.15222
1.14013
0.982991
1.14407
0.936785
0.946692
1.02094
1.44526
1.10333
1.09964
1.43199
1.01888
0.942483
0.882571
1.045
1.21326
1.18443
0.75079
1.09205
0.780368
1.04115
0.724213
0.992287
1.11613
1.02829
0.947137
0.984894
0.983826
1.14398
0.948076
1.02728
0.992595
0.974091
0.862435
0.883451
0.835918
0.806222
0.969763
0.911962
0.965851
0.968883
0.976026
0.982897
0.842601
0.991264
1.01618
1.1404
1.14686
1.12124
1.15421
0.880945
1.02275
1.00512
0.890893
0.745961
1.10108
1.10811
0.737194
1.17421
1.10115
0.888807
1.17792
1.10301
1.10867
0.895048
1.18533
0.768649
0.865889
0.875432
0.927084
0.776934
1.10692
0.877665
1.09937
0.906679
0.900387
0.872016
0.838293
0.980312
0.953387
0.951832
0.966597
0.967906
0.964568
0.929962
0.935868
0.970288
0.947067
1.14087
1.15194
1.09485
0.920262
1.09727
0.926878
1.11833
1.11859
1.10563
0.92613
1.10224
0.915207
1.10807
1.10398
1.10024
0.921897
1.09308
0.906254
1.10121
1.09464
1.09231
0.916433
1.08671
0.897234
1.09182
1.08896
1.08263
0.910717
1.08192
0.888144
1.08347
1.08506
1.07356
0.905673
1.07594
0.882099
1.07632
1.08157
1.06705