/*--------------------------------*- C++ -*----------------------------------*\
| =========                 |                                                 |
| \\      /  F ield         | OpenFOAM: The Open Source CFD Toolbox           |
|  \\    /   O peration     | Version:  2306                                  |
|   \\  /    A nd           | Website:  www.openfoam.com                      |
|    \\/     M anipulation  |                                                 |
\*---------------------------------------------------------------------------*/
FoamFile
{
    version     2.0;
    format      ascii;
    arch        "LSB;label=32;scalar=64";
    class       volScalarField;
    location    "0.8";
    object      gradTy;
}
// * * * * * * * * * * * * * * * * * * * * * * * * * * * * * * * * * * * * * //

dimensions      [0 -1 0 1 0 0 0];

internalField   nonuniform List<scalar> 
5322
(
0.0429346
0.00590687
0.00213029
0.00166931
0.00169033
0.00123845
0.000721019
0.000360667
0.000161155
6.38172e-05
1.70276e-05
-1.55896e-05
-1.04245e-05
-1.05224e-05
-1.1048e-05
3.124e-05
3.85366e-05
-3.46638e-07
4.14295e-05
-9.65284e-05
0.000139091
-0.000272218
0.000394426
-0.000727587
0.00104276
-0.00171943
0.00235052
-0.0037722
0.00497281
-0.00721722
0.00914999
-0.0125893
0.015748
-0.0173188
0.0187803
-0.0117487
0.0240018
0.0286417
0.0146139
0.0168192
0.0211805
0.0178643
0.0195781
0.019814
0.0189025
0.0199639
0.0192084
0.0205386
0.0203494
0.0183089
0.0232166
0.00977138
0.0118452
-0.0347945
-0.00154771
-0.0198458
0.0113379
-0.0257186
-0.00104243
-0.0223216
0.0115037
-0.0252455
-0.000921272
-0.0221639
0.0115625
-0.0262309
-0.00135063
-0.0215699
0.0117798
-0.0296114
0.000754936
0.0207878
0.011483
0.0161671
0.0119651
0.01526
0.0126603
0.0152317
0.0129913
0.0184382
0.00106508
0.0081093
0.0115724
0.0177295
-0.000910708
-0.00559893
0.00254755
0.00471187
0.0111588
0.00179622
0.00301853
0.000485673
5.72915e-05
4.68073e-05
0.0188156
-0.0116171
0.000392618
0.0117383
0.000390703
-0.000945826
0.00264175
0.000427413
0.0126665
-0.0182823
0.0164192
0.000541893
-0.000429895
-4.30488e-05
1.47641e-05
3.45505e-05
2.70773e-05
1.62455e-05
8.30505e-06
3.53428e-06
1.46496e-06
6.53126e-07
1.1297e-05
-2.45835e-06
-2.0174e-06
-5.78262e-06
9.07616e-06
-2.22103e-06
-5.93923e-06
-9.29983e-06
-9.77165e-06
-1.76385e-07
8.38847e-06
-5.61543e-06
7.92339e-07
6.73821e-06
-6.48763e-06
3.10185e-07
6.82145e-06
-7.17217e-06
-4.29786e-07
6.07076e-06
-7.70719e-06
-8.52888e-07
-2.93892e-06
1.19112e-05
9.15182e-06
-8.65066e-06
4.4977e-06
3.56603e-06
-1.09059e-05
1.89694e-06
-9.16822e-06
6.27422e-06
7.60093e-06
-9.05395e-06
-2.95266e-07
-7.11688e-06
7.33535e-06
9.36554e-06
-7.33131e-06
1.81426e-07
-5.91277e-06
9.21854e-06
4.32807e-07
8.68791e-07
3.50169e-05
-2.55124e-05
4.88375e-05
-8.64424e-05
7.35844e-06
-2.52865e-05
3.54367e-06
6.69047e-06
-2.9948e-07
7.1641e-06
-1.35528e-05
1.41173e-05
-3.26525e-05
3.51522e-07
3.42213e-05
-5.55978e-05
5.84755e-05
-9.94262e-05
1.13369e-06
9.99766e-05
-0.000173236
0.000181388
-0.000299358
2.76185e-06
0.000297521
-0.000491051
0.00051186
-0.000809318
6.08595e-06
0.000801278
-0.0012554
0.00130457
-0.00196497
1.27486e-05
0.00194013
-0.0028944
0.00300083
-0.00428562
2.52721e-05
0.00421739
-0.00601287
0.0062208
-0.00836678
4.4207e-05
0.00819023
-0.0111841
0.0115404
-0.014358
7.34387e-05
0.0139495
-0.01835
0.0184818
-0.0116702
-0.000104305
-0.00167916
0.000882673
-0.000449645
-2.34411e-05
9.06486e-05
0.000164464
1.80196e-05
0.0188376
-0.0116116
3.58024e-05
0.014065
-0.00235084
-0.00122778
0.00111591
-0.000869157
0.0116516
-0.0185601
0.000119492
7.61236e-05
0.000228583
0.0001007
2.66719e-05
-8.04222e-07
-6.20477e-06
-4.80304e-06
-2.41012e-06
-1.05363e-06
-5.00562e-07
-8.59333e-06
-9.61393e-06
-9.69118e-06
-8.52546e-06
2.82872e-06
1.23293e-06
-1.8584e-07
-1.02323e-05
2.82091e-06
-8.422e-06
1.1688e-06
2.83565e-06
-1.18229e-07
-8.26268e-06
1.6095e-06
7.31005e-06
3.86191e-06
-1.02512e-05
2.84806e-06
8.00394e-06
1.13243e-05
1.35715e-05
-3.45036e-05
-3.45225e-05
-3.64711e-05
4.35737e-05
-8.99714e-05
0.000140437
-0.00025506
0.000404947
-0.00067642
0.00104719
-0.00163991
0.00242551
-0.00362002
0.00502719
-0.0072484
0.00931614
-0.0129598
0.015182
-0.00217036
0.0112931
-0.000966261
0.000911965
0.0131523
-0.0119122
0.00104932
0.00844597
-0.00685125
0.000594757
0.00465151
-0.00344976
0.000308809
0.00226356
-0.00156371
0.000144776
0.00097851
-0.000644867
6.04425e-05
0.000376117
-0.000243311
2.27463e-05
0.000128194
-8.60098e-05
1.11961e-05
3.80338e-05
-5.16531e-06
3.80903e-05
-8.58233e-05
1.12163e-05
4.37293e-05
-3.6426e-05
1.15708e-05
1.59804e-05
1.0206e-05
1.08135e-05
-3.20009e-05
3.41822e-05
-8.0431e-05
0.00012284
-0.000227949
0.000366677
-0.000607777
0.000959335
-0.00148181
0.00222771
-0.00329761
0.00462382
-0.0066257
0.00855675
-0.0114966
0.0134618
-0.000901199
0.0086187
-0.00514732
0.00120002
0.0187442
-0.0167395
0.00123499
0.0124761
-0.00927293
0.000657386
0.0067949
-0.00453027
0.000326315
0.00327432
-0.00202556
0.00015159
0.00142264
-0.000826013
6.3353e-05
0.000556002
-0.00030609
2.4203e-05
0.000194444
-0.000105691
1.17933e-05
5.86899e-05
-3.81757e-05
1.12454e-05
2.23001e-05
1.83197e-05
-8.8579e-06
3.08253e-05
-6.51805e-06
8.00702e-07
2.99331e-05
-2.80826e-05
4.12421e-05
-7.10318e-05
0.000111009
-0.00010264
-2.36235e-06
-6.67821e-05
5.59882e-05
-3.57645e-05
7.45767e-08
3.48921e-05
3.12485e-07
-1.9146e-06
-7.60033e-06
4.18826e-07
-6.60714e-07
2.55488e-07
-9.93589e-07
-8.47681e-07
3.34944e-05
-3.41373e-05
5.65373e-05
-9.99203e-05
3.02599e-07
0.000176183
-0.000297356
0.000499898
-0.000800047
4.15323e-06
0.00127984
-0.00193522
0.00295503
-0.00420428
1.92146e-05
0.00613972
-0.00816874
0.0113743
-0.0139601
-3.44076e-05
2.17144e-05
3.62421e-05
0.000110506
4.26969e-05
5.11748e-05
0.00622022
-0.0081808
2.85311e-05
0.00975074
-0.0130741
0.011644
-0.0138373
0.000117246
0.0169583
-0.0206965
0.0133981
-0.0108157
-0.0223345
-0.00184302
0.000262717
-0.00795765
-0.0022021
0.000181073
0.00978144
0.0113791
0.000648952
-0.0128441
0.00759666
-8.85516e-05
-0.00560971
0.00385341
-0.000120616
-0.00249284
0.00177022
-6.38569e-05
-0.00102616
0.000727793
-3.51852e-05
-0.000394966
0.00027917
-1.67821e-05
-0.000129929
9.76277e-05
-9.18308e-06
-3.9298e-05
4.28322e-06
1.02415e-05
-2.92881e-05
-6.77587e-06
6.17818e-05
-0.000113577
0.000122334
-0.000211616
0.000348665
-0.00057008
0.000906844
-0.000810551
-9.95913e-06
-0.000578254
0.000496237
-0.000302633
-5.58384e-06
0.000333465
8.8974e-07
-1.83709e-05
-7.28381e-06
-7.4393e-06
-4.10297e-05
-1.29306e-05
-4.83387e-06
-4.70063e-06
7.1428e-06
2.97107e-06
4.23229e-07
-1.53821e-06
2.05415e-05
6.34376e-06
1.23999e-07
5.94274e-06
-7.44559e-06
-2.61448e-05
-2.28107e-05
1.80441e-05
4.65414e-05
-5.32133e-05
-6.97813e-05
-0.000332544
-4.02489e-05
0.000471985
-0.000867568
0.000896653
-0.00137824
0.00209138
-0.00300303
0.00490069
-0.00423186
-8.92606e-06
-0.00337971
0.00296888
-0.00195414
-1.37111e-05
0.00221999
2.51721e-05
-6.23392e-05
-3.7495e-05
1.40318e-05
-0.000293291
-0.00015159
-0.000106254
-0.000119679
-5.72934e-05
-4.0904e-05
0.000175425
-1.64018e-05
-5.91109e-06
4.58101e-05
-6.19466e-05
-1.64497e-05
1.59913e-05
2.79004e-05
4.84233e-05
-4.05073e-06
-6.52112e-07
1.57177e-05
1.00219e-05
-8.9777e-05
-1.55811e-05
0.000141275
0.000128302
-0.000242489
2.28442e-05
-0.000255327
-4.24971e-05
0.000407019
0.000376998
-0.000642316
6.08529e-05
-0.000680116
-9.7161e-05
0.00104954
0.000983322
-0.00155809
0.000146063
-0.00165629
-0.000170552
0.00242004
0.0022836
-0.00344368
0.000312814
-0.00367535
-0.000145623
0.00496356
0.00473015
-0.00687909
0.000605847
-0.0073758
0.000487752
0.00895678
0.00872531
-0.0121506
0.00107003
-0.0129876
0.00340192
0.0139409
0.0139364
-0.00144332
0.000919178
-0.00188986
0.0515977
-0.0266871
-0.0277278
0.0388326
0.0103088
0.00334808
-0.0270636
-0.00683262
-0.00422102
0.0101429
-0.0107415
-0.000206618
0.000703332
-0.00259
-0.0027366
-0.000621154
0.000692589
0.000303796
-0.000190734
-0.000349504
-0.000111539
0.000118509
2.69986e-05
7.75909e-06
1.22327e-06
-7.25092e-07
-1.00353e-06
-2.01345e-06
-8.25214e-07
1.4115e-05
-1.44313e-05
-5.26267e-07
-8.30075e-08
-1.4926e-05
1.45038e-05
-1.904e-07
-6.37549e-08
-1.05306e-07
-1.20587e-06
-8.48231e-07
2.4731e-06
-4.26834e-07
2.83906e-06
-1.22074e-06
-1.46746e-06
-4.71281e-07
5.16914e-06
-6.97162e-06
7.22802e-06
-4.8999e-06
-5.05959e-06
-3.64925e-06
5.71106e-07
7.24158e-06
5.83659e-06
-5.62681e-06
-3.50609e-07
-7.07525e-06
7.44993e-08
1.92243e-07
-1.18543e-06
-4.85772e-06
-4.67028e-06
-5.8893e-06
-1.42795e-05
-3.73194e-05
-8.02179e-05
-0.000139956
-0.000166634
-7.15747e-05
0.000433728
-0.00145793
-0.000685119
-0.000315779
0.0027686
-0.00404071
0.00440899
-0.00601031
0.00831297
-0.000501738
-0.00807816
-0.000708728
0.0059281
-0.000263397
-0.00087432
0.000128911
7.79466e-05
0.000192241
0.000249393
-0.000251849
-0.00289203
0.0100627
-0.00498057
-0.0153372
-0.00264653
-0.00370268
-0.0405888
-0.0116618
0.00153943
-0.017607
0.0125845
0.000678459
0.000515484
0.0151643
0.0126854
0.00154776
-0.00145852
0.0165568
0.0149091
0.0016173
-0.00174488
0.0150987
0.0169345
0.00151421
-0.00387144
0.0126456
0.0170772
-0.00619417
0.0104803
-0.009037
0.00971784
-0.0378569
-0.0203752
0.00305459
-0.009353
0.0166496
-0.00105568
-0.0267673
0.0162903
-0.00027729
-0.0191113
-0.0191025
-0.0272536
0.00795145
-0.0138417
-0.00956392
0.0137344
-0.0214609
-0.00375961
0.0124738
-0.0108819
-0.00131279
0.00744269
-0.00524633
-0.000616839
0.00379559
-0.00241163
-0.000322884
0.00173404
-0.00102837
-0.0001539
0.000718046
-0.000397806
-6.21378e-05
0.000270368
-0.000138762
-1.82305e-05
9.59237e-05
-4.18009e-05
3.18541e-06
3.07434e-05
-9.18784e-06
1.8123e-05
2.21628e-05
-3.84367e-05
5.8573e-05
-0.000106665
1.187e-05
3.40485e-05
-3.20498e-05
1.11954e-05
1.07181e-05
1.0254e-05
1.59385e-05
1.35291e-05
1.15491e-05
2.42477e-05
1.60429e-05
-1.70039e-05
-6.23114e-05
-0.000156599
-0.000160122
-0.000377371
-0.000844875
-0.000659065
-0.000335841
-0.000215886
0.0011932
-0.00194513
-0.000162134
-8.52246e-05
-0.000155468
8.00436e-06
-0.00147048
0.00127806
4.3076e-06
0.000813182
-0.0012868
7.13084e-06
0.00197868
-0.0029575
2.40913e-05
0.00432145
-0.00612365
6.02594e-05
0.00842395
-0.0113384
9.58887e-05
0.0143101
0.00012036
0.000323172
-7.30993e-07
-3.96273e-05
-6.91977e-05
5.38357e-06
1.55308e-05
8.80012e-06
3.55604e-06
1.04273e-06
1.86797e-07
2.84253e-08
7.18965e-08
3.84746e-07
-1.4088e-05
5.50308e-07
1.31372e-06
1.13762e-07
-6.22812e-07
-2.45071e-06
-7.12284e-06
-1.95115e-05
-4.995e-05
-0.000112838
-0.000160173
0.000682315
-0.00021969
-0.000561647
-0.000783797
0.014862
-0.0159496
0.0179681
7.37555e-06
-0.00257211
0.00212291
0.00639725
8.07218e-06
-0.00580126
0.0053935
0.00548915
-7.91177e-06
-0.00616263
0.00572286
0.00495362
-1.60805e-05
-0.00780131
0.00738362
0.00700038
-0.000164511
0.0105497
-0.0110878
0.0108334
-0.0115778
-0.00107992
-0.00546187
0.00768244
-0.000712465
-0.00743837
-0.000180544
-4.97611e-05
0.0251757
-7.50206e-05
-0.025342
0.0168131
-0.000609826
-0.0173907
0.0174606
-0.000380303
-0.0182643
0.025525
-0.000244172
-0.0255332
0.0206447
-0.0205861
0.0204327
-0.0209573
0.000126629
-0.025241
0.0249794
-1.36595e-05
-0.0174671
-0.000698476
0.0175837
-0.015075
4.61957e-05
0.0269251
0.00983673
0.024817
0.00928388
-0.00946156
0.013358
0.00210588
-0.00839666
0.00767619
0.000832288
-0.00498156
0.00405329
0.000467221
-0.0025528
0.00199897
0.000234637
-0.0011544
0.000856633
0.000114152
-0.000476363
0.000343604
4.10205e-05
-0.000174612
0.000115261
9.0187e-06
-6.23603e-05
3.15496e-05
-9.48964e-06
-2.97653e-05
-6.28695e-06
-2.02988e-05
1.44459e-05
1.55852e-06
8.67231e-07
7.67171e-06
2.98323e-06
-1.18448e-05
-9.03588e-06
-1.53368e-06
-7.32678e-06
-3.85449e-06
-2.63504e-06
-8.20224e-06
-2.97775e-06
-3.29246e-06
-8.05852e-06
-1.20174e-05
-1.42315e-05
-1.12648e-05
3.68609e-05
5.3888e-06
-3.44175e-05
-1.06925e-05
8.06064e-05
9.40369e-05
1.55358e-05
-0.00011594
-2.29744e-05
0.000219686
0.0003112
8.76189e-07
-0.000555553
3.29557e-05
0.000833169
-9.26706e-06
-0.0014193
7.36806e-05
0.00201523
-3.2763e-05
-0.00325658
0.000119498
0.00438115
-7.68611e-05
-0.00669962
0.000206983
0.00853237
-0.000174264
-0.0123871
0.000184468
0.0147172
-0.000446245
-0.0206135
-0.00040848
0.000750028
-0.012357
0.0202261
0.000108706
0.0103209
0.000450392
-0.00761307
0.0125327
-4.01723e-05
0.00580828
0.000298692
-0.00416108
0.00685312
-2.40826e-05
0.00298015
0.000174046
-0.00201812
0.00335459
-7.41348e-06
0.00137409
9.4036e-05
-0.000880818
0.00147279
-1.22514e-06
0.000571234
4.2615e-05
-0.000343529
0.000581708
8.06916e-07
0.00021211
1.78009e-05
-0.000121442
0.000207257
6.28871e-07
7.18665e-05
7.01048e-06
-4.09321e-05
6.73445e-05
-1.53291e-07
2.81875e-05
-6.74953e-07
6.54518e-06
-2.20612e-05
-1.79637e-05
9.07954e-06
-3.07441e-05
-3.35901e-06
5.02356e-06
-4.80646e-05
-2.7671e-05
-2.42022e-05
-1.29319e-05
-1.13424e-05
3.29081e-05
3.73867e-05
5.9067e-06
-3.23245e-05
-1.14213e-05
0.000107732
4.03246e-06
-0.000194363
1.63494e-05
-4.34289e-05
-1.50062e-05
-9.65755e-06
-4.54147e-05
4.86844e-06
8.27975e-06
4.35561e-07
-2.57125e-06
-1.30478e-06
1.03834e-05
-2.72499e-06
1.45241e-06
1.26576e-06
6.41772e-08
9.50082e-08
7.69728e-08
2.33567e-07
1.64514e-07
5.59603e-07
-1.26884e-06
-9.10855e-07
0.000173839
-0.000205626
-2.23525e-07
-1.81984e-06
-2.12909e-06
-2.17809e-07
-5.82865e-05
-2.53944e-07
9.97004e-05
-0.000179412
-1.2606e-07
0.000300152
-0.000505403
1.28525e-06
5.84715e-07
-1.80147e-06
2.24742e-08
7.842e-08
1.04792e-05
1.77951e-05
1.24597e-05
5.07253e-06
1.78586e-06
1.26245e-06
5.32227e-06
2.2807e-06
7.7384e-07
9.95052e-05
-0.000167642
0.000152942
-0.000256381
0.000431868
-0.000690882
2.48598e-05
-0.000168175
2.14203e-05
0.000163196
1.41337e-05
-6.15954e-05
8.7277e-06
5.22179e-05
-1.1033e-07
4.26743e-06
1.90002e-05
-4.59056e-06
-5.92371e-05
0.000321418
3.35467e-05
-0.000333314
-5.7515e-05
0.000547744
0.000729917
0.000105202
-0.000887978
-0.000132413
0.00139496
0.00169357
0.000223107
-0.00206708
-0.00028324
0.00298122
0.0036532
0.000392568
-0.00436818
-0.000529359
0.00562516
-0.00815788
-0.000855404
0.00921843
-0.0138088
-0.000657339
-0.000555757
-9.74386e-05
-1.22143e-05
2.12029e-05
2.14175e-05
1.40855e-05
7.58649e-06
3.32898e-06
1.36745e-06
6.09891e-07
8.67133e-06
9.75428e-06
9.81844e-06
-6.62031e-07
8.59367e-06
5.16865e-06
4.99099e-06
8.91069e-06
-1.64696e-07
1.04511e-05
-2.63495e-06
6.62556e-07
-3.96558e-07
8.65754e-07
-2.71514e-08
1.43177e-06
7.20995e-07
-5.38544e-05
5.43104e-06
2.63779e-06
1.36193e-06
2.30593e-07
7.82824e-08
-5.68534e-06
5.88476e-06
5.81031e-07
-3.76648e-06
8.60962e-06
-2.46351e-06
1.80189e-06
1.5016e-05
7.7803e-06
1.85463e-06
9.56113e-06
-5.10923e-05
5.57479e-06
-3.54999e-05
-1.10727e-05
7.61051e-05
9.71011e-05
1.48861e-05
-0.000118183
-2.09239e-05
0.00026947
4.29101e-05
-0.000339916
-5.65887e-05
0.000588049
0.000709783
0.000102667
-0.00090326
-0.000139389
0.00138224
-0.00210078
-0.000289537
0.002961
0.000291239
0.000170732
8.74899e-05
3.90562e-05
1.47713e-05
1.73935e-06
1.50216e-06
5.97319e-07
1.5083e-06
6.03458e-07
-6.05315e-07
-1.86309e-06
-1.28466e-06
-8.60481e-07
-2.53505e-06
-1.47116e-05
-1.46286e-05
-3.9297e-05
-4.15757e-05
-8.56113e-05
-9.85672e-05
-0.000362259
-0.00080128
-0.00170854
-0.00184759
-0.00396904
-0.0034323
-0.00192513
-0.00802576
-0.0241892
0.00111499
-0.0391768
-0.029479
-0.0229517
-0.0153346
-0.0133534
0.0049353
-0.0116739
-0.000401129
0.00312707
0.000465661
-1.05329e-06
0.0145195
-0.0166579
0.0183113
0.000171362
-0.00230665
0.00343543
0.00742448
0.000244418
-0.00523943
0.00694506
0.00691539
0.000245829
-0.00559596
0.00714607
0.00650961
0.000178782
-0.00751024
0.00819064
-0.000353636
0.000351745
0.000270751
0.00267873
-0.0112048
-0.0160389
0.00108059
0.0123489
0.000203103
-2.64159e-05
0.00766613
0.000121628
-0.012511
0.0163267
5.05983e-05
-0.0197686
0.0117222
-0.0106691
0.00913333
-0.00231147
-0.0135514
0.000246715
-0.0173743
0.0234662
-0.0205181
0.0173507
-1.65865e-05
-0.0173549
2.29676e-05
0.0171822
-5.34189e-05
-0.0172698
7.47546e-06
0.0173433
-7.0919e-05
-0.0174081
0.0208936
-0.0238693
0.00184733
-0.0202074
0.0279797
0.00155756
0.000907039
-0.00980641
0.0103315
-0.0107395
4.75051e-05
-0.00745782
0.00685977
0.000486092
-0.00855057
0.00621763
-0.00745849
0.000772886
0.0151462
-0.00806099
0.00466676
0.000898101
-0.00867961
0.00686011
-0.000163518
-0.00012253
-1.24792e-05
0.000190205
7.57759e-05
1.43404e-05
-5.60561e-06
-7.74478e-06
-5.19379e-06
-2.48022e-06
-1.07479e-06
-4.94207e-07
3.87021e-06
5.22474e-06
-5.44354e-08
-1.24777e-06
-8.48676e-07
7.34865e-06
1.603e-06
-8.60761e-06
3.59416e-06
4.46175e-06
-9.21001e-06
-4.59452e-07
-7.69597e-06
-8.44325e-07
-2.96744e-06
-7.71552e-06
9.15588e-06
1.2007e-05
4.34927e-07
2.47588e-06
-6.9966e-07
2.39743e-07
6.26686e-06
-7.25678e-06
-2.13809e-07
-9.15584e-06
9.30921e-06
7.41534e-06
-6.08837e-06
1.65957e-07
-6.97984e-06
2.19132e-08
7.03612e-06
3.50111e-08
1.26456e-07
-1.0389e-06
-1.93568e-06
7.86755e-07
-5.46662e-06
4.83955e-05
2.78443e-05
1.56948e-05
-1.72295e-05
-6.4013e-05
-0.000163098
-0.000377462
-0.00082356
-0.00172228
-0.00351799
-0.00352676
-0.00744381
-0.00808108
-0.0179583
-0.0288603
-0.0263123
-0.0264047
0.0108092
-0.0144873
-0.00816228
-0.00881298
-0.0250456
-0.0293804
-0.0267466
-0.0267757
-0.0264357
-0.0265836
-0.0304889
0.0109522
-0.00069215
-0.00464914
0.0316993
-0.00830117
-0.0223376
-0.0202691
-0.00598429
-0.00723793
-0.0169874
-0.0174518
-0.00137484
-0.00296667
0.000976118
0.000903057
0.000541529
0.000269428
0.000118991
9.04887e-05
3.28834e-05
3.23618e-05
9.85828e-06
1.51936e-05
-4.46591e-05
-0.000123965
-0.000293289
-0.000634912
-0.00130385
-0.00269531
0.0012124
0.000955872
0.000906619
0.000702924
0.000425507
0.000211937
0.000209702
8.93041e-05
0.000115137
4.409e-05
0.000122242
0.000192885
-0.000306948
0.000550211
-0.000822624
6.28412e-05
0.000363496
-0.000228969
2.4221e-05
-2.92334e-06
-1.40366e-05
-1.45467e-05
-8.08315e-05
-4.58594e-06
-8.29406e-06
3.90393e-06
-5.52739e-06
-1.29263e-06
-1.88407e-06
1.87858e-06
-1.09542e-05
7.60129e-06
-8.996e-08
8.27148e-09
1.37452e-08
-5.53496e-08
3.95407e-06
-3.47017e-07
1.66172e-07
1.308e-07
2.34919e-07
-2.38668e-06
1.51951e-07
1.25303e-06
8.75148e-07
1.13303e-06
-3.92704e-07
7.21657e-07
1.13615e-08
1.63567e-07
-2.40507e-06
1.10481e-05
9.32686e-06
-4.29999e-06
-1.71614e-06
-3.53247e-06
8.70739e-06
2.27856e-06
1.17954e-06
1.67721e-07
6.15357e-08
-8.89681e-07
-6.72706e-07
-1.37689e-06
-7.27855e-06
-2.46472e-06
-1.85154e-05
1.91176e-06
-3.70013e-05
-4.04101e-05
-8.0631e-05
-9.5104e-05
-0.000608527
0.000947955
0.00140677
-0.00200418
0.00323274
-0.00443427
0.000313656
0.0021931
-0.00147681
0.000148252
9.16913e-08
-3.83246e-05
1.56809e-05
-6.5065e-05
5.81626e-05
-0.000144456
-0.000175064
-0.000151493
-0.000178852
-0.000189818
-0.00018223
-4.49112e-05
5.56973e-06
1.73959e-06
0.00232729
0.000124255
9.77821e-05
2.90243e-05
3.90105e-06
-2.53025e-06
-2.63202e-06
-2.14454e-06
-1.1394e-06
-5.42192e-06
-1.06465e-06
-9.04945e-07
-7.66247e-06
7.74931e-06
2.39366e-06
5.06527e-06
1.87562e-06
-5.48145e-07
3.04758e-06
3.10084e-06
5.36459e-07
1.56815e-06
4.08433e-06
9.29458e-06
-3.82009e-06
3.81988e-05
1.40583e-05
2.17405e-05
0.000118933
4.1713e-05
9.68047e-05
0.000292202
0.000224075
0.000432608
-0.00246018
-0.00267944
-0.000393732
0.000387512
0.0005357
0.000218609
-0.00640864
-0.000171657
-9.31737e-05
-7.72271e-05
-0.000679534
-0.000203255
0.0156764
-0.000218303
-0.0185834
-0.000149698
-0.00074781
-0.0173171
-0.000803311
-0.00092431
-0.0119558
-0.00646396
-0.0103306
-0.0243811
0.00266503
0.00607937
0.000357051
-0.000344679
-0.000301652
-0.000534716
4.49041e-05
-0.0140882
0.0177741
8.5449e-05
-0.00403417
0.00183572
0.00593362
3.49703e-05
-0.00748294
0.00475376
0.00479603
-9.81413e-06
-0.00769682
0.00507295
0.00427516
-5.58741e-05
-0.00709889
0.00177214
-0.0110932
0.00568699
0.00870598
-0.0101841
0.00291939
0.00111411
-0.000589282
-8.80972e-05
-9.46231e-06
2.55542e-05
2.42476e-05
1.55866e-05
8.2571e-06
3.49939e-06
3.59266e-06
4.68108e-06
1.19324e-05
0.000293112
-0.000477752
2.56544e-05
0.000785379
-0.00122516
0.00109946
-0.00168152
0.00252464
-0.00368781
8.12595e-05
-0.00108401
8.98812e-05
0.00103294
4.66488e-05
-0.000446484
4.71335e-05
0.000435339
1.4865e-05
4.00026e-05
0.000154554
-3.55108e-05
-0.000360101
0.00206179
0.000167924
-0.00198437
-0.000283686
0.00286622
0.00374187
0.0004046
-0.00426901
-0.000524566
0.00689573
0.000713456
-0.00805013
-0.000911775
0.00920981
0.0117658
0.000829381
-0.0164238
-0.000840829
-0.0136653
-0.0162226
0.000935461
0.0114256
0.00947046
-0.0134146
-0.000785509
-0.000584571
0.000631296
0.000466722
0.000312387
0.000181122
9.1777e-05
4.04182e-05
2.12816e-05
4.67417e-05
1.03835e-05
1.29798e-06
1.76887e-05
6.56024e-08
0.00189508
-0.00282909
0.000102832
0.00411375
-0.00588836
0.00524331
-0.00725545
0.00988885
-0.0124879
-0.000266981
-0.00438532
0.00013857
0.0044407
8.75462e-05
-0.00238805
0.000139662
0.00222247
3.04413e-05
0.000180807
0.000846281
-6.22371e-05
-0.00132048
0.00871614
0.000457226
-0.00746998
-0.000908467
0.00969891
0.0117159
0.00083973
-0.0169201
-0.000766196
-0.0121329
-0.0219216
0.000330884
0.0146417
-0.0014401
0.0073406
-0.000353605
0.0047245
0.00476659
0.00226874
0.00142632
0.00875049
-0.00498242
-0.000110863
0.0014262
0.00073332
0.000408811
0.000222262
0.000109249
4.74225e-05
1.75407e-05
5.63347e-06
1.81635e-05
-1.02089e-05
-1.72815e-05
-4.67554e-06
3.90312e-06
-1.25586e-05
4.2249e-05
-1.24489e-05
-1.3786e-05
-1.5072e-05
-1.04744e-05
3.16846e-05
3.73705e-05
5.44221e-06
-3.67563e-05
-1.06256e-05
9.45345e-05
1.5114e-05
-0.000115563
-2.13079e-05
0.000225065
0.000268399
4.26435e-05
-0.000345392
-5.97289e-05
0.000578754
-0.000111818
-8.55332e-05
-0.000424335
-3.12306e-05
-0.000147038
6.34013e-05
6.37095e-05
1.71762e-05
-1.63225e-05
-2.49757e-05
-1.31645e-05
-1.26833e-05
-2.89608e-05
-4.82495e-06
-3.69152e-06
2.35438e-06
2.73776e-07
0.000112357
1.24809e-05
-0.000116248
-2.18926e-05
0.000208313
0.000276478
4.25089e-05
-0.000342207
-5.55469e-05
0.000710094
0.000106064
-0.000888187
-0.000134738
0.00139696
0.00169891
0.000212492
-0.00253195
-0.000400869
-0.000199089
-0.0010954
0.000342005
0.000344422
0.000156366
-3.44512e-05
-0.000142648
-1.05959e-05
-4.04801e-05
1.79524e-05
-2.20205e-05
-2.30007e-05
2.73079e-05
6.68192e-05
-4.10484e-05
-0.000173833
9.00797e-05
1.58631e-05
5.99213e-05
-1.4997e-05
0.000855657
8.13385e-05
-0.000859202
-0.000136079
0.00131649
0.001744
0.000220612
-0.00205847
-0.000278347
0.0036258
0.000414593
-0.00430429
-0.000533533
0.00563474
0.00700007
0.000667032
-0.00977555
0.000431461
-5.76853e-05
-1.08489e-05
1.33388e-05
6.93113e-06
3.25395e-06
1.29748e-06
4.65796e-07
-1.26417e-06
-2.23191e-06
-1.44297e-06
-3.62003e-06
-2.39113e-06
-2.21732e-06
3.05059e-06
1.84353e-05
3.48062e-05
6.50525e-06
9.05736e-07
-1.37977e-06
-8.59965e-07
-9.33097e-07
-5.57582e-07
0.000177572
3.30484e-07
-0.000176363
0.000301501
8.84497e-07
-0.000498733
0.000501764
-0.000299729
0.000301617
-6.40586e-07
-0.000509108
0.000495858
-0.000303107
0.000174601
-9.99725e-07
-0.000181082
0.000100447
-0.000100833
0.000101464
-9.96672e-05
1.63603e-06
-0.000173175
0.000182016
1.92803e-06
-0.000299627
2.35639e-06
-0.000492596
0.000511758
3.75596e-06
-0.000809614
2.71101e-06
-0.00126028
0.0012965
-0.0012692
0.00127596
2.09129e-06
0.000809712
-0.00080532
-4.06744e-07
0.000814235
1.53173e-06
-0.00129015
0.00126743
-0.000810884
-1.09151e-05
-0.000578595
0.000346556
4.64659e-07
0.000333826
-5.65936e-06
-0.000206412
0.00012264
-1.73798e-07
0.000111666
-0.000102892
5.63557e-05
-8.85767e-07
-5.88809e-05
-3.35847e-07
5.72185e-05
1.19051e-07
-5.67955e-05
8.33229e-07
5.91493e-05
1.10909e-06
-5.58125e-05
0.000103336
-0.000110849
2.74605e-06
2.61803e-06
1.18402e-06
2.03201e-06
1.00176e-06
-1.40925e-05
1.52268e-05
-1.47873e-05
1.48635e-05
3.03757e-08
-3.05937e-10
-2.12598e-07
-1.51911e-05
1.41986e-05
-9.41544e-07
-5.36997e-07
6.09337e-06
-7.30066e-06
-1.05448e-07
-2.10933e-07
3.39502e-05
-3.48973e-05
3.50873e-05
-3.36876e-05
3.60618e-05
-3.47872e-05
4.11649e-08
5.05314e-07
-6.02201e-06
5.87717e-07
7.33046e-06
-1.74699e-07
1.26626e-06
2.09188e-06
3.83368e-07
1.05151e-06
2.5283e-06
1.29639e-06
1.63705e-06
-0.00194244
3.62521e-06
-0.00290108
0.00291368
-0.00293948
0.0029093
8.38824e-06
0.0019708
-0.0019503
-1.74661e-05
-0.00146495
0.000885985
4.73324e-06
0.000903364
-0.000569905
-4.02935e-05
-0.000335889
0.000473459
-0.000106545
-0.000854119
0.00116722
-0.000216823
-0.00194613
0.00262185
-0.000363929
-0.00398154
0.0053278
-0.000617848
-0.00755559
-0.00117329
-0.000410587
-0.00056192
-0.000194263
-0.000298837
-0.000109898
-0.000154558
-5.54308e-05
-7.16683e-05
-2.30911e-05
-4.26356e-05
0.00017539
-0.000212076
-1.69558e-05
-0.000115934
6.23084e-05
-9.12695e-06
-6.61201e-06
-2.93355e-05
-8.91136e-06
-3.17709e-05
-6.73081e-06
4.14301e-05
3.0023e-07
-6.72316e-05
-2.3067e-06
-2.10201e-06
3.11231e-06
3.48761e-07
-1.53796e-06
-1.44846e-05
2.0445e-05
6.41005e-06
2.98865e-05
9.39786e-06
5.28426e-06
-4.61593e-07
7.81963e-07
-2.83204e-05
3.50813e-05
-3.5965e-05
3.96271e-08
-5.85609e-07
-2.04526e-06
-9.5481e-07
-6.89989e-07
7.40556e-06
1.82009e-05
4.39082e-05
9.84856e-05
1.87415e-05
-0.00333976
0.00203636
-0.00137646
0.00219693
3.61131e-06
-1.32384e-06
-2.06833e-06
-2.9019e-07
8.80903e-07
5.4433e-06
1.66754e-05
2.28959e-05
-1.96165e-05
-0.0042092
2.24948e-05
-0.00600231
0.00598298
-0.00684056
0.00419642
5.52505e-05
0.00480101
-0.00299934
-0.000137293
-0.000118242
0.000528542
0.000421259
0.000703303
0.000902437
0.00451124
0.00667575
-0.0089198
0.00110754
3.99979e-06
-7.58339e-05
0.00023719
-0.000188497
-0.00019613
-0.00325955
-7.25686e-05
0.000225134
-0.0064806
0.000605666
7.2372e-05
2.27919e-05
6.91311e-05
0.000188397
0.000281721
0.000111688
3.39045e-05
1.02416e-05
8.97171e-06
1.16182e-05
1.68921e-05
2.31574e-05
1.20194e-05
5.81167e-06
1.3215e-05
6.69811e-06
6.49535e-06
5.28436e-06
8.25114e-06
1.19208e-05
5.2946e-05
1.44865e-05
7.1046e-06
4.4687e-06
2.48693e-06
1.22344e-07
2.01776e-07
2.28628e-06
1.30078e-06
1.97832e-06
-1.08899e-06
3.64917e-06
1.01564e-05
9.67346e-06
2.04595e-05
3.16662e-05
3.58534e-05
7.94956e-05
3.60891e-05
7.59729e-05
3.16122e-05
0.00800448
-0.0110086
0.000260876
0.0137452
0.000284178
4.89495e-05
0.000170443
0.00120132
-0.00295387
0.0120427
-0.0102958
0.0216796
0.003095
0.0126343
-0.0114782
0.0101756
-0.00951122
0.00717053
0.008126
-0.0102748
0.00227553
-0.0112907
0.00758453
0.00782284
0.0144351
-0.000823099
-0.00037396
-0.00181516
-0.000162023
-0.00678201
-0.00016926
-3.14028e-05
2.04647e-05
3.12793e-05
5.20193e-05
2.08792e-05
2.22405e-05
2.52745e-05
2.52559e-05
-5.23005e-06
2.7485e-05
-9.5536e-06
0.000258043
0.000156028
9.00439e-05
-0.00311221
0.00447834
0.000301316
-0.00409038
-0.000531043
0.00562439
0.00712365
0.000673218
-0.00793846
-0.000891599
-0.00969285
0.000467861
0.000314937
-8.13691e-06
1.14868e-05
-5.26256e-06
0.000184143
2.66648e-05
1.29292e-05
1.7332e-05
1.18798e-05
3.94321e-06
9.33948e-05
4.12891e-05
1.53194e-05
-0.000141514
-3.06681e-05
0.000224614
-9.47342e-06
8.09832e-05
-4.21788e-05
-2.42221e-05
3.37104e-05
-1.45454e-05
-1.20668e-05
-1.63065e-05
1.72261e-05
-8.49177e-05
-9.42767e-05
-0.000424016
0.000170815
-9.42882e-05
-0.000152908
0.000211397
0.000385272
-0.000207524
-0.0013364
0.00043818
8.35109e-05
0.000361452
-6.33914e-05
-0.000751267
-0.000401035
0.000845008
0.00142885
0.000784041
-0.000219519
-0.00110959
-0.000198882
-0.00107941
0.000687356
-0.000444542
-0.0025826
-0.000401681
0.00299257
0.00119422
-0.00080452
-0.0053814
-0.000598655
-0.00654123
0.00176014
0.000560736
0.00234201
7.8749e-05
-0.0125109
-1.81728e-05
0.00229861
0.00315971
0.00430949
0.0120845
0.0282837
0.0149427
0.0220291
-0.00235102
-0.00134297
-0.0100707
0.00166428
0.00168438
0.00331494
0.0146367
0.0213647
-0.00223237
-0.00120256
-0.000721202
0.00571078
-0.00520215
0.00114678
0.000677078
0.00149061
0.00133165
0.00281406
0.0134294
0.02157
-0.00228535
-0.00120593
-0.000720251
-0.00524841
-0.000888717
-0.000501893
-0.000254534
0.000281943
0.000120905
4.34026e-05
1.76166e-05
6.12242e-05
0.000575869
0.00102354
0.00152629
-0.00139373
-0.00200081
0.00277414
0.0122431
0.0241061
-0.00398856
0.00546251
0.00239995
0.00170908
6.29312e-05
-0.000129023
-6.24469e-05
-2.50705e-05
-7.63312e-06
-9.03199e-07
9.81795e-07
1.34927e-06
3.23852e-07
1.17068e-07
-3.61591e-07
9.27284e-07
3.86107e-07
3.21003e-07
7.28162e-07
-3.72284e-07
-2.93998e-06
-6.89482e-06
3.41056e-06
6.90114e-06
-0.000332175
0.000304579
4.361e-06
2.41604e-06
2.93432e-06
1.46024e-06
3.46747e-06
4.06481e-06
7.84975e-06
2.12153e-06
7.65603e-06
-5.87758e-05
8.41651e-06
2.017e-05
6.56664e-06
4.69635e-06
5.94208e-06
4.89667e-06
2.92684e-06
1.02851e-05
7.60224e-06
7.1533e-06
8.49261e-06
5.11203e-06
7.41422e-06
2.64553e-05
2.41818e-05
0.0059552
2.0939e-06
-0.00593913
0.00814812
-1.33901e-05
-0.010837
0.010833
-0.0081374
0.00828515
3.29912e-05
-0.010928
0.0109574
-0.00813146
-6.21431e-07
0.00941472
-0.00594201
-0.000156907
-0.000138902
8.1773e-05
0.00019908
0.000313579
-9.84474e-06
-0.00139403
-0.00289878
-0.00512077
-9.54406e-05
-0.00181852
-0.00080649
-0.000235454
0.000231397
0.000209092
5.31622e-05
3.63323e-05
3.39272e-05
1.2719e-05
0.00427392
-0.00420157
0.00421594
-0.00425699
-1.06658e-05
-0.00594059
0.00601903
-7.22211e-07
-0.00827217
-3.91869e-05
-0.0108801
0.0109378
-1.67729e-05
-0.0142671
0.0140609
-0.0161091
2.18541e-05
-0.000132421
-4.54477e-05
9.97866e-06
1.97264e-05
8.65623e-05
0.000227996
0.000357646
0.00289418
-0.00237834
0.0520007
-0.00144419
-0.000216141
-0.000990061
-0.0109008
0.00258047
0.00640974
0.000476152
-0.000129002
-0.00537518
-0.000162152
0.000103718
0.000211799
1.79364e-05
2.37375e-05
0.000552513
0.000326377
-0.0173099
0.015701
-0.000828405
-0.000484173
-0.000218604
0.00307369
-0.000903863
0.00250631
0.00414371
0.00777996
0.0147875
0.003044
-0.00775529
0.00315361
-0.011258
0.00251707
0.00105583
-0.00740984
0.000570164
-0.000120039
2.36938e-06
-2.65937e-05
5.60807e-06
8.75602e-05
-8.10231e-05
-0.000187127
-5.14344e-05
-0.000200544
-4.23581e-05
4.41033e-06
-2.19349e-06
8.37977e-06
2.99291e-07
1.44398e-06
-3.05214e-05
2.08329e-06
4.9191e-05
0.000119442
0.000175519
0.00458208
0.0198908
0.00101896
-0.00203