/*--------------------------------*- C++ -*----------------------------------*\
| =========                 |                                                 |
| \\      /  F ield         | OpenFOAM: The Open Source CFD Toolbox           |
|  \\    /   O peration     | Version:  2306                                  |
|   \\  /    A nd           | Website:  www.openfoam.com                      |
|    \\/     M anipulation  |                                                 |
\*---------------------------------------------------------------------------*/
FoamFile
{
    version     2.0;
    format      ascii;
    arch        "LSB;label=32;scalar=64";
    class       volScalarField;
    location    "0.8";
    object      gradTz;
}
// * * * * * * * * * * * * * * * * * * * * * * * * * * * * * * * * * * * * * //

dimensions      [0 -1 0 1 0 0 0];

internalField   nonuniform List<scalar> 
5322
(
-0.0567767
-0.0477068
-0.0338641
-0.036469
-0.0215727
-0.0114923
-0.00550754
-0.00237845
-0.000931003
-0.000337742
-0.000125398
-7.20173e-05
-4.00177e-05
-6.33496e-05
-7.51277e-05
-7.90572e-05
-8.90078e-05
-8.37203e-05
-0.000154352
-0.000255577
-0.000467079
-0.00075733
-0.00131773
-0.00205336
-0.00336585
-0.00493732
-0.00764447
-0.0107679
-0.0157108
-0.0208635
-0.0287296
-0.0365626
-0.0471694
-0.0557769
-0.0641214
-0.0594565
-0.0722134
-0.0696683
-0.0716977
-0.0540707
-0.0662858
-0.0684351
-0.0529485
-0.0684068
-0.0677107
-0.0539326
-0.0694457
-0.0657383
-0.0534908
-0.0687282
-0.0797279
-0.05176
-0.0738229
-0.0623505
-0.0532633
-0.0587821
-0.0754163
-0.0574829
-0.0529669
-0.0584545
-0.0760944
-0.0582416
-0.0529212
-0.0570402
-0.0761459
-0.060433
-0.0528146
-0.0543418
-0.0750074
-0.0648371
-0.0441998
-0.0623015
-0.059258
-0.05834
-0.0588314
-0.05855
-0.0585105
-0.0584064
-0.0595204
-0.0572317
-0.05675
-0.047925
-0.0497476
-0.0611338
-0.0375537
-0.0531412
-0.0829398
-0.0567087
-0.0558589
-0.0470293
-0.0570126
-0.0331478
-0.0348462
-0.0348732
-0.0477243
-0.0503166
-0.0455129
-0.0509208
-0.08423
-0.054921
-0.0557482
-0.0476013
-0.0513488
-0.047271
-0.0517677
-0.0443743
-0.0463105
-0.0369466
-0.0218609
-0.0116609
-0.00558588
-0.00240631
-0.000935116
-0.000334183
-0.000134576
-8.01408e-05
-6.33574e-05
-6.35042e-05
-0.000115028
-6.64927e-05
-5.26455e-05
-5.53336e-05
-5.43989e-05
-7.1199e-05
-5.54493e-05
-7.01462e-05
-5.39446e-05
-5.65356e-05
-7.02135e-05
-5.49766e-05
-5.64163e-05
-7.14962e-05
-5.59653e-05
-5.54281e-05
-7.12135e-05
-5.57948e-05
-5.48016e-05
-7.20088e-05
-5.60213e-05
-7.08898e-05
-5.45597e-05
-5.31344e-05
-6.69498e-05
-6.30031e-05
-6.36999e-05
-0.000115656
-6.38449e-05
-6.37677e-05
-6.34482e-05
-6.45371e-05
-0.000119234
-6.42638e-05
-6.40858e-05
-6.4223e-05
-6.36442e-05
-0.000118911
-6.35727e-05
-6.26669e-05
-5.27405e-05
-7.54994e-05
-7.92798e-05
-8.96184e-05
-0.000174727
-0.000283366
-0.000132316
-0.000155639
-8.42788e-05
-9.04589e-05
-4.733e-05
-6.06784e-05
-6.37362e-05
-6.04338e-05
-8.72862e-05
-7.95994e-05
-8.44245e-05
-0.000170051
-0.000168131
-0.000272891
-0.000171734
-0.000274067
-0.000482133
-0.000481711
-0.000793897
-0.000506828
-0.000797687
-0.00133404
-0.0013339
-0.00211533
-0.00138974
-0.00212233
-0.00337102
-0.00337146
-0.00508877
-0.00344271
-0.00510354
-0.00769082
-0.00769593
-0.0110152
-0.00767536
-0.0110482
-0.0158028
-0.0158257
-0.0214264
-0.0153746
-0.021493
-0.0291271
-0.0292002
-0.0373712
-0.0275103
-0.0375083
-0.0474247
-0.0475001
-0.0508591
-0.0841968
-0.0548828
-0.0547348
-0.0477338
-0.0639441
-0.063822
-0.0348521
-0.0349488
-0.0476845
-0.0507438
-0.0452335
-0.0517564
-0.0842891
-0.0552895
-0.0546385
-0.047876
-0.0506314
-0.0474654
-0.0454685
-0.0451143
-0.0368788
-0.0218876
-0.0116942
-0.00560512
-0.002415
-0.000938471
-0.000335337
-0.000135038
-8.04704e-05
-6.37974e-05
-6.44246e-05
-6.43891e-05
-6.35757e-05
-0.000119001
-6.41358e-05
-6.36665e-05
-5.57122e-05
-5.66946e-05
-9.84644e-05
-6.41311e-05
-0.000119214
-6.39086e-05
-9.72124e-05
-5.68903e-05
-7.06364e-05
-5.53485e-05
-5.58303e-05
-5.67731e-05
-7.11323e-05
-4.03774e-05
-6.27545e-05
-8.46635e-05
-8.45711e-05
-8.75316e-05
-0.000168686
-0.000273435
-0.000483105
-0.000794887
-0.00133705
-0.00211664
-0.0033779
-0.00509028
-0.00770856
-0.0110157
-0.0158516
-0.0214188
-0.0292562
-0.0373271
-0.0478575
-0.0502845
-0.0842865
-0.0511653
-0.0455113
-0.0473235
-0.0376231
-0.027535
-0.029132
-0.0215368
-0.0153897
-0.0158203
-0.0110634
-0.00768303
-0.00770222
-0.00510935
-0.00344644
-0.00337702
-0.00212488
-0.00139158
-0.00133726
-0.000798712
-0.000507691
-0.000483762
-0.00027442
-0.000172073
-0.000170672
-0.000107379
-0.00017077
-0.000274539
-0.000172299
-0.000168926
-8.77348e-05
-8.00519e-05
-6.07289e-05
-4.04329e-05
-6.43894e-05
-7.9846e-05
-0.000169252
-0.000272547
-0.000481429
-0.000797851
-0.00133967
-0.00212578
-0.00339801
-0.00511389
-0.00777299
-0.0110698
-0.0160369
-0.0214674
-0.0297305
-0.0370934
-0.0482908
-0.0506721
-0.0835764
-0.0541535
-0.0443645
-0.0522952
-0.0410299
-0.0268925
-0.0319846
-0.0232169
-0.0149965
-0.0172198
-0.0118124
-0.00746073
-0.0083357
-0.00542236
-0.00333853
-0.00364301
-0.00224241
-0.00134419
-0.00143335
-0.00083513
-0.00048816
-0.000512057
-0.000284059
-0.000163603
-0.000175146
-8.99907e-05
-7.60577e-05
-6.11321e-05
-5.71446e-05
-5.61134e-05
-9.0454e-05
-4.74284e-05
-5.45781e-05
-7.88287e-05
-7.73549e-05
-0.000168245
-0.00027727
-0.000269567
-0.000273155
-0.000168942
-0.000166121
-0.000169909
-8.12208e-05
-7.8266e-05
-8.73719e-05
-0.000104527
-0.000103299
-9.0651e-05
-5.93705e-05
-5.75399e-05
-9.69905e-05
-0.000114151
-0.000106705
-8.69937e-05
-8.50946e-05
-0.000170481
-0.000274375
-0.00029891
-0.000483424
-0.000798506
-0.00133678
-0.00212456
-0.00218772
-0.00337866
-0.00510659
-0.00771418
-0.0110455
-0.0108547
-0.015863
-0.0214595
-0.0292339
-0.0374132
-0.0349294
-0.0348294
-0.0206518
-0.0207008
-0.0110397
-0.010908
-0.0159884
-0.021518
-0.0154428
-0.0217909
-0.0292527
-0.0295432
-0.037264
-0.0275993
-0.0382537
-0.0471554
-0.0538227
-0.0500487
-0.0862201
-0.0570638
-0.0537925
-0.049807
-0.0630629
-0.0333515
-0.030755
-0.04043
-0.0232396
-0.0301187
-0.0221835
-0.0125802
-0.0161575
-0.0110615
-0.00618425
-0.00782642
-0.00505156
-0.00275693
-0.00339914
-0.00206292
-0.00110276
-0.00133178
-0.000759591
-0.000397114
-0.000466461
-0.000253755
-0.000131593
-0.000154815
-8.91322e-05
-8.43007e-05
-0.000142116
-0.00015682
-0.000227853
-0.000426887
-0.000481145
-0.00081388
-0.00135726
-0.00217839
-0.0021122
-0.00212999
-0.00138646
-0.00134061
-0.0013373
-0.000799403
-0.000503726
-0.000788057
-0.000836117
-0.000834933
-0.000294373
-0.000244546
-0.000314667
-0.000271565
-0.00025541
-0.000312314
-0.000332903
-0.000123622
-7.0726e-05
-4.08028e-05
-7.50159e-05
-4.44416e-05
-7.85567e-05
-0.000111722
-0.000191592
-0.000550461
-0.0008972
-0.000926296
-0.00239314
-0.00236293
-0.00150003
-0.00121652
-0.00133099
-0.00189486
-0.00309374
-0.0034754
-0.00525455
-0.00799169
-0.0114118
-0.0111135
-0.0110903
-0.00769474
-0.00776132
-0.00775465
-0.00512411
-0.00344406
-0.00510692
-0.00516386
-0.00502794
-0.00215766
-0.00185048
-0.00227936
-0.00213492
-0.00201732
-0.000881575
-0.000789991
-0.000745918
-0.000694423
-0.000478213
-0.000705219
-0.000565732
-0.000341051
-0.000126973
-7.29178e-05
-7.83818e-05
-6.67817e-05
-0.00011521
-8.40647e-05
-0.000197362
-0.000199497
-0.000273974
-0.000297567
-0.000483718
-0.000484225
-0.000798786
-0.000508507
-0.000797114
-0.000841519
-0.00133891
-0.0013395
-0.00212425
-0.0013943
-0.00212515
-0.00218888
-0.00338294
-0.00338584
-0.00510482
-0.00345427
-0.00511672
-0.00514352
-0.00771912
-0.00773083
-0.0110416
-0.00770194
-0.0110879
-0.0108785
-0.0158555
-0.0159061
-0.0214434
-0.0154249
-0.0215965
-0.0206613
-0.0291575
-0.0293491
-0.0373308
-0.0275594
-0.0376822
-0.0349108
-0.0473344
-0.0477608
-0.0508225
-0.0454356
-0.0508644
-0.0481834
-0.0551251
-0.0532571
-0.0467361
-0.0621437
-0.0388146
-0.0487215
-0.034737
-0.033155
-0.038091
-0.03731
-0.0354927
-0.0386183
-0.0391286
-0.0308822
-0.0231883
-0.0228452
-0.0119104
-0.011993
-0.00829166
-0.00559901
-0.00561081
-0.0055655
-0.00238571
-0.000931183
-0.000338332
-0.000125857
-7.24544e-05
-4.04119e-05
-6.36465e-05
-5.58953e-05
-7.8679e-05
-8.04318e-05
-6.10563e-05
-6.30928e-05
-7.99997e-05
-5.5623e-05
-6.80951e-05
-5.92423e-05
-5.77706e-05
-6.67763e-05
-5.30192e-05
-6.79196e-05
-5.83215e-05
-6.02603e-05
-8.19528e-05
-6.37938e-05
-6.50865e-05
-6.50126e-05
-6.37066e-05
-6.35798e-05
-6.22576e-05
-0.000124568
-6.49426e-05
-6.36757e-05
-6.36762e-05
-0.000124765
-6.50142e-05
-8.3548e-05
-0.0001399
-0.00013725
-0.000115126
-0.000113846
-0.000106072
-0.000311739
-0.000880002
-0.00226804
-0.00527149
-0.0110178
-0.0105389
-0.0092881
-0.011261
-0.010735
-0.0101948
-0.0101547
-0.0147334
-0.0166788
-0.022095
-0.0317844
-0.0282159
-0.0271697
-0.0194714
-0.0204375
-0.0152581
-0.0168601
-0.0169788
-0.0117426
-0.0223118
-0.0379731
-0.0581776
-0.0584151
-0.0594798
-0.0468229
-0.0418311
-0.0456052
-0.0531553
-0.0473149
-0.0556015
-0.0836868
-0.0753591
-0.0703003
-0.0730616
-0.0453039
-0.0584925
-0.0611402
-0.0742576
-0.0463459
-0.0601965
-0.0613155
-0.0746043
-0.0465596
-0.0594611
-0.0621363
-0.0745572
-0.04787
-0.0591486
-0.0665866
-0.0933301
-0.0773836
-0.0757919
-0.09661
-0.0954104
-0.0746289
-0.0534227
-0.0738334
-0.0624036
-0.0532411
-0.0586685
-0.0658777
-0.0535249
-0.0686242
-0.0797719
-0.0517502
-0.0567855
-0.0479515
-0.0497882
-0.0611515
-0.0478446
-0.0336937
-0.0385752
-0.0292425
-0.0199683
-0.0215034
-0.0158441
-0.0104538
-0.0108902
-0.00771129
-0.00494296
-0.00498956
-0.00337639
-0.00209839
-0.00206127
-0.00132816
-0.000802165
-0.00076455
-0.000470859
-0.000271768
-0.000258341
-0.000155944
-9.05125e-05
-9.06264e-05
-5.56124e-05
-5.66668e-05
-6.07368e-05
-8.97425e-05
-0.00017525
-0.000283855
-0.000163245
-0.000169102
-7.95256e-05
-7.57418e-05
-6.40655e-05
-4.02741e-05
-6.05126e-05
-6.27104e-05
-7.99256e-05
-8.03024e-05
-7.4286e-05
-0.000128492
-0.000343148
-0.00094179
-0.000941162
-0.0024157
-0.00563832
-0.0053282
-0.00495244
-0.00470711
-0.00465073
-0.00714844
-0.00747601
-0.00332935
-0.00370827
-0.00374863
-0.00339617
-0.0033895
-0.00219449
-0.00212458
-0.00337745
-0.00345237
-0.005114
-0.0077065
-0.00769709
-0.0110777
-0.0158293
-0.0154086
-0.0215463
-0.0291328
-0.0275221
-0.0374869
-0.0302166
-0.0308416
-0.0480223
-0.0479621
-0.038079
-0.0222415
-0.0117078
-0.00555744
-0.00238652
-0.000933468
-0.000339822
-0.000127038
-7.3483e-05
-4.05604e-05
-6.24757e-05
-7.97915e-05
-7.22305e-05
-0.000125811
-0.00033855
-0.000934098
-0.002394
-0.00557708
-0.0117457
-0.0223156
-0.0381357
-0.0591437
-0.0586677
-0.052463
-0.104235
-0.0754926
-0.0723653
-0.0613428
-0.0745634
-0.0466059
-0.0467339
-0.0504219
-0.0764204
-0.0479148
-0.0486504
-0.0496063
-0.0768345
-0.048137
-0.0488677
-0.0493574
-0.0768249
-0.0497077
-0.0505867
-0.0562599
-0.0982267
-0.0782677
-0.0763183
-0.0766496
-0.075997
-0.0585716
-0.0534955
-0.0565331
-0.0978716
-0.0558583
-0.0594285
-0.0760438
-0.0583074
-0.0528784
-0.0569109
-0.0687893
-0.0529135
-0.0680226
-0.0680567
-0.0540615
-0.0691943
-0.0576401
-0.0529441
-0.0582407
-0.058601
-0.0583975
-0.0588971
-0.0581576
-0.0529585
-0.0549395
-0.059817
-0.0761997
-0.0666774
-0.0545656
-0.071108
-0.0626207
-0.0545958
-0.0863014
-0.0457615
-0.0571628
-0.0459701
-0.0510189
-0.0424631
-0.0312941
-0.0337168
-0.0260729
-0.0188849
-0.0191825
-0.0143227
-0.00975325
-0.00992218
-0.00694861
-0.00472291
-0.00453878
-0.00307215
-0.00194927
-0.00189034
-0.00119905
-0.000758142
-0.000693223
-0.000427706
-0.000252813
-0.000230857
-0.000141135
-8.43509e-05
-7.85051e-05
-4.37927e-05
-7.37248e-05
-5.52252e-05
-4.02438e-05
-7.09272e-05
-5.41008e-05
-5.51324e-05
-6.96521e-05
-5.37253e-05
-5.61564e-05
-6.97876e-05
-5.46533e-05
-5.62051e-05
-7.10851e-05
-5.57797e-05
-5.49688e-05
-7.06819e-05
-4.02889e-05
-6.07043e-05
-7.96436e-05
-8.45584e-05
-0.000106741
-0.000169389
-0.000171084
-0.000273177
-0.000271763
-0.000295284
-0.000477261
-0.000483965
-0.000791048
-0.000828203
-0.000700409
-0.00142066
-0.00109332
-0.00221775
-0.00182938
-0.00359519
-0.00271466
-0.00535112
-0.00429749
-0.00819375
-0.006068
-0.0115937
-0.00906273
-0.01675
-0.0121448
-0.0225837
-0.0171708
-0.0307703
-0.0218819
-0.0395686
-0.0292358
-0.0502318
-0.0352569
-0.0414586
-0.047638
-0.0465635
-0.0347016
-0.0379867
-0.0261746
-0.0294379
-0.0285849
-0.0203568
-0.0217885
-0.0145808
-0.0160007
-0.0155986
-0.0107423
-0.0112101
-0.0072999
-0.00782076
-0.00763517
-0.00508929
-0.00518747
-0.0032694
-0.00342207
-0.00335619
-0.00216629
-0.00215237
-0.00131834
-0.00134843
-0.00132826
-0.000830243
-0.000806345
-0.000475379
-0.000479686
-0.000477993
-0.000291589
-0.000274374
-0.000156688
-0.00016787
-0.000164717
-0.00010372
-7.63891e-05
-5.39258e-05
-4.69414e-05
-6.03311e-05
-5.62993e-05
-5.51953e-05
-8.97927e-05
-8.93491e-05
-0.00011421
-6.63453e-05
-7.77886e-05
-7.96629e-05
-6.20217e-05
-7.92823e-05
-8.41392e-05
-8.68028e-05
-0.000105104
-0.00016766
-0.000162264
-0.000281913
-0.00024368
-0.000508224
-0.000394849
-0.000563335
-0.000196808
-0.000198892
-0.000167726
-0.00011293
-9.62544e-05
-6.3281e-05
-0.000118492
-6.38251e-05
-5.52631e-05
-6.76068e-05
-5.99208e-05
-5.89223e-05
-6.01622e-05
-5.811e-05
-9.83346e-05
-0.000115058
-0.00010706
-0.00031339
-0.000312562
-0.000298945
-0.000481985
-0.000481932
-0.000293175
-0.000564538
-0.000198872
-0.000200215
-0.000168997
-0.000172334
-0.000274363
-0.000482727
-0.000508236
-0.0007976
-0.00133649
-0.00139347
-0.00155978
-0.000881819
-0.000844266
-0.00227252
-0.00528189
-0.00515663
-0.00527042
-0.00226954
-0.000881784
-0.000842893
-0.000876407
-0.000310492
-0.000296255
-0.000271008
-0.000479224
-0.000510356
-0.00083153
-0.00142549
-0.00222571
-0.00109744
-0.0013273
-0.000703133
-0.000763181
-0.000397201
-0.000470313
-0.000244997
-0.000257713
-0.000270964
-0.000255494
-0.000429938
-0.000478472
-0.000699262
-0.000809441
-0.00083392
-0.00133238
-0.00137594
-0.00209608
-0.00211483
-0.00217928
-0.00334979
-0.00342143
-0.00506262
-0.00506682
-0.00508985
-0.00760713
-0.00759524
-0.0109186
-0.0109286
-0.0107065
-0.0156085
-0.0146664
-0.0211869
-0.0286305
-0.0262761
-0.0370123
-0.0461665
-0.0416676
-0.0465094
-0.0370497
-0.0218656
-0.011649
-0.00557718
-0.00240191
-0.0009332
-0.000333458
-0.000134258
-7.99125e-05
-6.34267e-05
-6.39946e-05
-6.42884e-05
-6.39548e-05
-9.78482e-05
-0.000114615
-0.000113642
-9.63911e-05
-6.34323e-05
-5.53006e-05
-6.78535e-05
-5.71593e-05
-5.88815e-05
-5.73175e-05
-9.66946e-05
-0.00011333
-0.000105476
-0.00016848
-0.000163018
-0.000189854
-0.000191612
-0.000137229
-8.18949e-05
-6.38537e-05
-6.37225e-05
-0.000124735
-6.24036e-05
-6.31619e-05
-0.000118722
-0.000191421
-0.000311094
-0.000293222
-0.000102809
-8.99464e-05
-0.000169378
-0.000104504
-0.000165433
-0.000168241
-0.000269068
-0.00027181
-0.000297993
-0.000480889
-0.00050573
-0.000794906
-0.000839656
-0.00132822
-0.00138257
-0.00210995
-0.00210579
-0.0021686
-0.00335379
-0.00329743
-0.00505668
-0.00763468
-0.00734072
-0.0109184
-0.0109264
-0.00522849
-0.00225071
-0.000873535
-0.000309457
-0.000190972
-0.000136856
-8.16485e-05
-0.000194411
-0.00033825
-0.000192201
-0.000190704
-0.000191979
-0.000194735
-0.000338273
-0.000313502
-0.000299547
-0.000882106
-0.000844134
-0.00227001
-0.00219023
-0.0024069
-0.00560348
-0.0118035
-0.0119022
-0.0226416
-0.021434
-0.0204919
-0.0359488
-0.0525575
-0.0469271
-0.0688906
-0.0540442
-0.106711
-0.0740925
-0.0729444
-0.0657404
-0.0840632
-0.07796
-0.0800416
-0.0775616
-0.106119
-0.0732327
-0.0722773
-0.0613353
-0.0742276
-0.0464579
-0.0474716
-0.0510417
-0.0760139
-0.0477061
-0.0495332
-0.0503993
-0.0764268
-0.047934
-0.0496059
-0.0502837
-0.0764061
-0.0496058
-0.0509888
-0.0678467
-0.0463181
-0.0348557
-0.0348884
-0.0375241
-0.0399778
-0.0266691
-0.0315206
-0.0225031
-0.0269156
-0.0302623
-0.020468
-0.0284884
-0.0375228
-0.0349035
-0.0459387
-0.0502299
-0.0374788
-0.0354499
-0.0320605
-0.0422018
-0.0428357
-0.0572222
-0.0595811
-0.0583215
-0.0463095
-0.0345354
-0.0457939
-0.042723
-0.045986
-0.0344476
-0.0457733
-0.0427695
-0.0460562
-0.0345646
-0.0458708
-0.0593519
-0.0580787
-0.0531306
-0.0513841
-0.0619984
-0.0767608
-0.0585855
-0.0772208
-0.0782702
-0.075112
-0.0594198
-0.0558714
-0.0562868
-0.097416
-0.0566464
-0.0632174
-0.0946522
-0.0792644
-0.0757953
-0.0586488
-0.0559788
-0.0683129
-0.0507947
-0.0504843
-0.067316
-0.0453576
-0.0370378
-0.0369524
-0.0218654
-0.011664
-0.00558747
-0.00240711
-0.000935459
-0.000334324
-0.000134642
-8.01872e-05
-6.24382e-05
-6.37899e-05
-7.03562e-05
-5.89574e-05
-5.75114e-05
-7.03536e-05
-5.66065e-05
-5.28283e-05
-6.2776e-05
-6.65367e-05
-6.35157e-05
-5.26671e-05
-5.43835e-05
-7.13394e-05
-5.5499e-05
-9.00162e-05
-5.414e-05
-7.01966e-05
-5.89496e-05
-6.64991e-05
-5.71104e-05
-9.64086e-05
-6.34339e-05
-6.39741e-05
-0.00011875
-6.41696e-05
-6.41411e-05
-6.40083e-05
-6.31993e-05
-5.51198e-05
-5.55869e-05
-7.16432e-05
-5.5689e-05
-9.77967e-05
-0.000114667
-0.000113638
-0.00010291
-8.45265e-05
-0.000115709
-6.6842e-05
-7.85893e-05
-7.28311e-05
-0.000127036
-0.000341577
-0.000941041
-0.002409
-0.00560745
-0.0118025
-0.0224097
-0.0224219
-0.0383531
-0.038541
-0.058728
-0.0530059
-0.054512
-0.054776
-0.0843439
-0.0629446
-0.0731267
-0.0754382
-0.103958
-0.0522698
-0.0547234
-0.0548477
-0.0533605
-0.0557518
-0.0566601
-0.0829532
-0.0514956
-0.0531434
-0.0470536
-0.0558605
-0.068239
-0.0508075
-0.0352826
-0.0382625
-0.0592269
-0.059
-0.0478187
-0.0483395
-0.0313625
-0.0171569
-0.00844383
-0.00377574
-0.00153142
-0.00151236
-0.000563382
-0.000563431
-0.000199679
-0.000198351
-0.000316811
-0.000883486
-0.0022687
-0.00527306
-0.011069
-0.0209384
-0.030463
-0.0300556
-0.030236
-0.0167068
-0.00828635
-0.00371626
-0.0037063
-0.00151043
-0.00152629
-0.000566661
-0.000480669
-0.000511632
-0.000832542
-0.0014282
-0.00222771
-0.00133712
-0.00133453
-0.000795286
-0.00048643
-0.000575864
-0.000310831
-0.000297192
-0.00027169
-0.000113522
-9.68135e-05
-5.52176e-05
-0.000105928
-0.000191665
-0.000189991
-0.000115109
-6.34032e-05
-6.32938e-05
-6.79134e-05
-5.98614e-05
-6.11625e-05
-7.04376e-05
-6.26265e-05
-0.000124963
-7.03354e-05
-6.78053e-05
-5.55419e-05
-6.64485e-05
-7.02667e-05
-5.86856e-05
-5.70336e-05
-5.77637e-05
-5.85685e-05
-5.68801e-05
-5.76099e-05
-6.78213e-05
-6.62255e-05
-6.31303e-05
-6.33523e-05
-6.61258e-05
-0.000114593
-6.24562e-05
-5.24523e-05
-0.00018924
-0.000191286
-0.000136901
-8.16377e-05
-0.000194453
-0.000191545
-0.000311178
-0.000293512
-0.000245662
-0.000831253
-0.000704591
-0.000877126
-0.000839818
-0.0022598
-0.00218182
-0.00211818
-0.00337653
-0.00361856
-0.00537331
-0.00826378
-0.011659
-0.00739907
-0.00770472
-0.00509539
-0.00331584
-0.00385208
-0.00214402
-0.0018393
-0.00498509
-0.00432467
-0.00525126
-0.00512186
-0.00527101
-0.00514019
-0.0110113
-0.010865
-0.0206563
-0.0206622
-0.0198248
-0.0178862
-0.0209561
-0.0170019
-0.00856472
-0.00387406
-0.00157633
-0.000578297
-0.000574792
-0.000570868
-0.000942544
-0.00155868
-0.00153781
-0.00242189
-0.0038188
-0.00375543
-0.00242178
-0.000942444
-0.000575204
-0.000573563
-0.000569868
-0.00034158
-0.000946546
-0.00242837
-0.00562674
-0.00561653
-0.00841963
-0.00825649
-0.0117128
-0.0166707
-0.0163059
-0.0219235
-0.0295362
-0.0301729
-0.0347929
-0.0636499
-0.0472022
-0.0675573
-0.0463074
-0.0450987
-0.0632613
-0.0492945
-0.0666249
-0.0743899
-0.0800719
-0.0773235
-0.105313
-0.0730487
-0.0631081
-0.0593479
-0.0793074
-0.0802469
-0.0565654
-0.0633749
-0.0751102
-0.0802024
-0.0747017
-0.0730577
-0.104705
-0.0776587
-0.0803235
-0.0803917
-0.0806024
-0.080374
-0.0773583
-0.0794196
-0.0713421
-0.062138
-0.0745546
-0.0478873
-0.046578
-0.0502974
-0.0764275
-0.0495626
-0.0484999
-0.0493738
-0.076872
-0.0496235
-0.0487284
-0.0491096
-0.0768144
-0.0508305
-0.0564438
-0.0977695
-0.0806067
-0.0753494
-0.0596658
-0.055813
-0.0673456
-0.0453467
-0.0370339
-0.0219129
-0.0116902
-0.00560239
-0.00241517
-0.000939806
-0.000337317
-0.000572738
-0.000575492
-0.000486013
-0.000793699
-0.00133163
-0.00133652
-0.00211488
-0.00337109
-0.00361332
-0.00537009
-0.00825466
-0.011654
-0.00610911
-0.00771255
-0.00431919
-0.0049874
-0.00272992
-0.00337601
-0.0018363
-0.00205906
-0.00209516
-0.00198289
-0.00307146
-0.00328622
-0.00457635
-0.00519965
-0.00510444
-0.00764903
-0.00758296
-0.010942
-0.010948
-0.0107445
-0.0155115
-0.0151508
-0.0211843
-0.0202665
-0.0284295
-0.0270736
-0.0369762
-0.0370752
-0.0345049
-0.0461178
-0.0427827
-0.0459157
-0.0459511
-0.0344822
-0.0369815
-0.0370199
-0.0458481
-0.042715
-0.0452397
-0.0348045
-0.0205609
-0.0109543
-0.00524479
-0.0022587
-0.000877167
-0.000830501
-0.00214236
-0.00225847
-0.0021783
-0.00524894
-0.00511574
-0.00508901
-0.00769526
-0.00739937
-0.0110238
-0.0158195
-0.0169917
-0.0227658
-0.0314971
-0.0399891
-0.0225002
-0.0292623
-0.0174683
-0.0215062
-0.012325
-0.0158505
-0.00914592
-0.0108889
-0.0104433
-0.00991546
-0.0143892
-0.0147832
-0.0196355
-0.0217677
-0.0204687
-0.0284912
-0.0270598
-0.0374933
-0.0368971
-0.0345389
-0.0462714
-0.0426284
-0.0459574
-0.0502036
-0.0349084
-0.0374702
-0.0354165
-0.0421716
-0.0428063
-0.0450669
-0.0374949
-0.0320254
-0.0336678
-0.0385802
-0.0478757
-0.0298952
-0.0351984
-0.0208737
-0.0110288
-0.00525097
-0.00225745
-0.000878157
-0.000314503
-0.000114833
-6.66272e-05
-5.66213e-05
-5.55593e-05
-4.41235e-05
-5.43608e-05
-7.9245e-05
-7.68944e-05
-7.42884e-05
-4.04217e-05
-5.54064e-05
-7.78588e-05
-8.69629e-05
-8.07622e-05
-0.000106398
-0.000168335
-0.000171616
-0.000273217
-0.000297981
-0.000480463
-0.000504764
-0.000794404
-0.000790744
-0.00083509
-0.00132638
-0.00133087
-0.00210544
-0.0015162
-0.00150023
-0.00132834
-0.000561369
-0.000480354
-0.000339486
-0.000338458
-0.000125716
-7.22966e-05
-7.88103e-05
-6.33216e-05
-7.06746e-05
-7.88862e-05
-0.000112368
-8.52932e-05
-0.000142132
-0.000157965
-0.000275724
-0.000293341
-0.000479875
-0.000500992
-0.000784808
-0.000794996
-0.000840557
-0.0013295
-0.00138442
-0.00211242
-0.00217516
-0.00334846
-0.00341814
-0.00506052
-0.00505907
-0.00508174
-0.00760607
-0.0080275
-0.00365452
-0.00334826
-0.00236849
-0.00236622
-0.000929024
-0.000564346
-0.000480407
-0.000199506
-0.000169517
-0.000124075
-0.00019348
-0.000233167
-0.000314816
-0.000334401
-0.000553071
-0.000483205
-0.000898609
-0.000755783
-0.00120854
-0.0013229
-0.00216026
-0.00217316
-0.0033644
-0.0034075
-0.00504923
-0.00507516
-0.00510268
-0.00760565
-0.0076005
-0.0109293
-0.0107141
-0.0155278
-0.0151485
-0.0211731
-0.0212157
-0.0202685
-0.0284255
-0.0205327
-0.016599
-0.0083744
-0.00824115
-0.00560398
-0.00241583
-0.000940036
-0.000337427
-0.000569975
-0.000573792
-0.00155584
-0.0015686
-0.000877493
-0.0022597
-0.00524723
-0.00851097
-0.00840642
-0.00381194
-0.00375023
-0.00153546
-0.00155333
-0.000572967
-0.000505754
-0.000481296
-0.000297754
-0.000480309
-0.000795176
-0.000839403
-0.00132717
-0.00132919
-0.000794837
-0.000793909
-0.000840341
-0.00132877
-0.00132942
-0.000794855
-0.000480182
-0.000297747
-0.000480523
-0.000273297
-0.000273219
-0.000273432
-0.000272297
-0.000296856
-0.000477869
-0.000480128
-0.000505122
-0.000791672
-0.000838327
-0.00132453
-0.00132772
-0.00138336
-0.0021064
-0.00217527
-0.00334633
-0.00334664
-0.00334499
-0.00334915
-0.00217461
-0.00211269
-0.00211207
-0.00138473
-0.00211097
-0.00217935
-0.00334847
-0.00335685
-0.00211474
-0.00137714
-0.00133229
-0.00135605
-0.000833978
-0.00078542
-0.000501365
-0.00047973
-0.00048401
-0.0002933
-0.000269209
-0.000271721
-0.000169311
-0.000106208
-0.000168163
-0.000171605
-0.000169809
-0.000106602
-0.000169332
-0.000171348
-0.000168085
-0.000105845
-0.000168314
-0.000271108
-0.000267412
-0.000167563
-0.000198363
-0.000124378
-7.16953e-05
-4.01762e-05
-6.27264e-05
-6.08011e-05
-6.23657e-05
-6.25466e-05
-4.04373e-05
-7.26298e-05
-8.0202e-05
-6.0831e-05
-6.30957e-05
-4.03241e-05
-7.08633e-05
-5.53526e-05
-5.47715e-05
-5.52237e-05
-7.94813e-05
-8.65804e-05
-8.45292e-05
-8.46353e-05
-8.61798e-05
-8.05844e-05
-8.6273e-05
-7.73897e-05
-5.23762e-05
-5.50693e-05
-7.055e-05
-5.46789e-05
-9.60925e-05
-0.000113307
-0.00031039
-0.000312294
-0.000878341
-0.00225964
-0.00380489
-0.00342251
-0.00506568
-0.00508862
-0.00759841
-0.00760794
-0.0076033
-0.00763951
-0.00510314
-0.00506785
-0.00507524
-0.00341064
-0.00336439
-0.00344304
-0.00217339
-0.00209789
-0.00216128
-0.00132515
-0.00121064
-0.0018949
-0.00198624
-0.00307575
-0.00458335
-0.00468929
-0.00701972
-0.00998074
-0.00992957
-0.0144057
-0.0196579
-0.0189499
-0.0263941
-0.028785
-0.0221425
-0.0160708
-0.0116429
-0.00807295
-0.00550758
-0.00365726
-0.00234519
-0.00149408
-0.000899704
-0.000756711
-0.000700926
-0.000809718
-0.000479453
-0.000430682
-0.000233783
-0.000256113
-0.00031515
-0.000553432
-0.000193535
-0.000142408
-0.000158314
-0.000169579
-0.000104441
-0.000165352
-0.000168327
-0.000199488
-0.00012372
-7.05926e-05
-4.04743e-05
-5.54644e-05
-7.432e-05
-4.41683e-05
-7.93451e-05
-8.53518e-05
-0.000112377
-7.88457e-05
-5.44165e-05
-7.69146e-05
-8.69191e-05
-8.07888e-05
-7.77746e-05
-7.8649e-05
-7.19583e-05
-0.000124903
-0.000336759
-0.000333695
-0.000924364
-0.00237037
-0.00550641
-0.00510479
-0.00764967
-0.00786913
-0.00520179
-0.00505338
-0.00369164
-0.00151249
-0.000564853
-0.00056539
-0.000925346
-0.00235775
-0.00545472
-0.00813211
-0.00759007
-0.0109477
-0.0107459
-0.0155057
-0.0156294
-0.0156108
-0.0162153
-0.0107807
-0.0109508
-0.0112468
-0.00735126
-0.00611272
-0.00833187
-0.00824937
-0.0166
-0.0167769
-0.0158325
-0.0170072
-0.0227688
-0.0174823
-0.0196077
-0.0104282
-0.00915533
-0.0109787
-0.0108263
-0.0110363
-0.020621
-0.0205753
-0.0214884
-0.014846
-0.0168961
-0.0109589
-0.0205677
-0.0300531
-0.0295478
-0.016655
-0.0162996
-0.00824782
-0.00838771
-0.0116933
-0.0117277
-0.0117127
-0.00561648
-0.0038217
-0.00381128
-0.00155542
-0.00153521
-0.00155265
-0.00156771
-0.00385017
-0.00331547
-0.00374596
-0.00152439
-0.00150937
-0.00151557
-0.00152136
-0.000564941
-0.000562404
-0.000199024
-0.000197518
-7.81238e-05
-0.000565213
-0.00372382
-0.00370652
-0.00825334
-0.00830011
-0.00838122
-0.0167135
-0.0166111
-0.0167903
-0.00833473
-0.0214621
-0.029198
-0.0266772
-0.0374679
-0.0304974
-0.0300813
-0.0478446
-0.0479157
-0.0507821
-0.068344
-0.0954637
-0.096568
-0.0534166
-0.0665737
-0.0933449
-0.0773729
-0.0585864
-0.0759685
-0.0768226
-0.059526
-0.0562562
-0.09841
-0.0788129
-0.0761794
-0.100635
-0.0855587
-0.0856273
-0.0804683
-0.0744581
-0.04951
-0.0668297
-0.045202
-0.0369481
-0.021923
-0.016682
-0.00842603
-0.00840521
-0.0110099
-0.0109749
-0.0108159
-0.0206153
-0.0205607
-0.0195996
-0.0104225
-0.0049818
-0.00786075
-0.0112421
-0.0107798
-0.0156098
-0.0151433
-0.0213426
-0.0211973
-0.0203238
-0.0283606
-0.0270531
-0.0284214
-0.0205377
-0.0109422
-0.00838388
-0.00850723
-0.01689
-0.014849
-0.0166526
-0.0162977
-0.0082467
-0.00374967
-0.0038031
-0.00225863
-0.000878031
-0.000312153
-0.000481819
-0.000564184
-0.000793477
-0.000200377
-0.000273287
-0.000170041
-8.04054e-05
-8.66865e-05
-6.27563e-05
-4.02824e-05
-7.32832e-05
-0.000126771
-0.00150512
-0.00151048
-0.00132941
-0.000925768
-0.00149298
-0.00189129
-0.00234242
-0.00237339
-0.00365468
-0.00343874
-0.00550158
-0.00468308
-0.00701083
-0.00734151
-0.00996646
-0.00806697
-0.0116305
-0.0115511
-0.00551285
-0.00368587
-0.00335616
-0.00366352
-0.00334965
-0.00547316
-0.00811788
-0.00763712
-0.00804594
-0.0109312
-0.0114193
-0.0160809
-0.0156229
-0.0160595
-0.0162001
-0.0221211
-0.0189261
-0.0263693
-0.0268921
-0.0302403
-0.0287677
-0.0218074
-0.036913
-0.0531011
-0.0537252
-0.0564467
-0.0622
-0.0574891
-0.0445511
-0.0285436
-0.0286692
-0.0214336
-0.0361711
-0.052205
-0.0628362
-0.0583814
-0.0439551
-0.0280205
-0.0158661
-0.0212091
-0.0155282
-0.0114103
-0.00547349
-0.0214041
-0.0361544
-0.0522591
-0.0630523
-0.0584667
-0.0439763
-0.0279885
-0.0158327
-0.0155252
-0.0161302
-0.00815739
-0.00370627
-0.00224254
-0.000874006
-0.000312929
-0.00026804
-0.000804681
-0.00519352
-0.0108119
-0.0202316
-0.0286081
-0.0446965
-0.0526689
-0.06441
-0.0583228
-0.0489292
-0.0545555
-0.0568501
-0.0522107
-0.0362519
-0.0359473
-0.0213006
-0.0113514
-0.00544082
-0.00235122
-0.000922211
-0.000335398
-0.000337129
-0.000125595
-0.000200608
-0.000200236
-8.00332e-05
-7.93458e-05
-7.81495e-05
-7.00209e-05
-0.000122659
-0.000331125
-0.000562415
-0.000499488
-0.000781327
-0.000793282
-0.000875625
-0.000572267
-0.000569154
-0.000194178
-0.000571629
-0.000573829
-0.000292067
-0.000102306
-8.94946e-05
-0.00017392
-0.000131337
-0.000827824
-0.00156377
-0.00155171
-0.00153342
-0.00155007
-0.00379761
-0.00374595
-0.00380174
-0.00225576
-0.0052401
-0.00524371
-0.0109469
-0.0166151
-0.015156
-0.0155308
-0.0107106
-0.0155053
-0.0212054
-0.0202566
-0.0283655
-0.0284317
-0.0211683
-0.0212333
-0.0203245
-0.0283422
-0.0286842
-0.0211931
-0.0151571
-0.0213588
-0.0217749
-0.0148005
-0.0123294
-0.0161108
-0.0115389
-0.0217866
-0.0368774
-0.0375201
-0.0450777
-0.0537237
-0.0564644
-0.0530561
-0.0622372
-0.0574922
-0.0446099
-0.028596
-0.0213689
-0.0113832
-0.0159078
-0.00806725
-0.0109431
-0.0109255
-0.0109346
-0.0109233
-0.0107355
-0.0155629
-0.0155177
-0.015153
-0.0211902
-0.0203184
-0.0285081
-0.0284103
-0.0270711
-0.0369759
-0.0371264
-0.0370354
-0.0270515
-0.0300235
-0.0295282
-0.0219172
-0.0219461
-0.028824
-0.0369495
-0.0348406
-0.0349601
-0.0639308
-0.0478684
-0.0466836
-0.0666607
-0.0743256
-0.0791654
-0.0773918
-0.0804706
-0.0806409
-0.0737538
-0.0485817
-0.0656596
-0.0436159
-0.0635265
-0.0637565
-0.0635288
-0.0638936
-0.064127
-0.05911
-0.0791171
-0.104744
-0.0534917
-0.0779615
-0.0833241
-0.08038
-0.0857331
-0.0807183
-0.0758018
-0.101908
-0.0768185
-0.0509902
-0.0564958
-0.0979359
-0.0559089
-0.0671732
-0.0507176
-0.0642032
-0.0437458
-0.036977
-0.0288451
-0.0295429
-0.0295503
-0.0300448
-0.0294915
-0.0166086
-0.0295049
-0.0288744
-0.0162965
-0.0166156
-0.0083834
-0.00848725
-0.0109499
-0.020574
-0.0205429
-0.0294985
-0.0348097
-0.0331567
-0.0299117
-0.0518061
-0.0375599
-0.0478856
-0.0472116
-0.0443422
-0.0478007
-0.0570098
-0.064128
-0.0476572
-0.0465713
-0.066853
-0.0452101
-0.043748
-0.0638886
-0.0484979
-0.0658697
-0.0738998
-0.0744383
-0.0793797
-0.0714896
-0.0790783
-0.104678
-0.0779555
-0.0804029
-0.080477