/*--------------------------------*- C++ -*----------------------------------*\
| =========                 |                                                 |
| \\      /  F ield         | OpenFOAM: The Open Source CFD Toolbox           |
|  \\    /   O peration     | Version:  2306                                  |
|   \\  /    A nd           | Website:  www.openfoam.com                      |
|    \\/     M anipulation  |                                                 |
\*---------------------------------------------------------------------------*/
FoamFile
{
    version     2.0;
    format      ascii;
    arch        "LSB;label=32;scalar=64";
    class       volScalarField;
    location    "0.8";
    object      gradTx;
}
// * * * * * * * * * * * * * * * * * * * * * * * * * * * * * * * * * * * * * //

dimensions      [0 -1 0 1 0 0 0];

internalField   nonuniform List<scalar> 
5322
(
-0.25044
0.00606108
0.00731544
0.000750052
-0.000173683
-0.000207772
-3.2212e-05
9.35139e-05
4.68815e-05
-0.000217955
-0.000961629
0.0103829
0.0159893
-0.220265
-0.00582632
0.383485
-0.301337
-0.00472232
-0.230013
0.148585
-0.202008
0.176283
-0.186466
0.188325
-0.190826
0.184332
-0.184749
0.192903
-0.19011
0.191536
-0.181757
0.208098
-0.156249
0.240142
0.00409123
0.303446
0.213991
-0.0853176
0.239636
-0.0137865
-0.227285
0.228523
-0.0138372
-0.243132
0.241633
-0.00831146
-0.258418
0.225761
-0.00568806
-0.270864
-0.267301
-0.387992
-0.121526
0.25952
-0.0165715
-0.428347
-0.0122104
0.409275
-0.00491161
-0.408983
-0.00176389
0.398583
-0.00229517
-0.401715
-0.000124805
0.39251
0.00501688
-0.397831
0.0172854
0.325884
0.0131909
-0.346314
0.392422
-0.406089
0.390915
-0.398097
0.398855
-0.398066
0.453165
-0.326718
0.159846
-0.212508
-0.137675
0.237954
0.0245219
-0.133661
0.158247
-0.426572
-0.159792
0.506618
-0.021832
0.00928751
0.0171121
0.0780696
0.360556
-0.0834094
-0.009702
-0.0407947
0.16315
-0.378186
-0.37853
0.842753
-0.0401299
0.278133
0.452767
-0.00508042
0.00280806
0.00373627
0.00224815
0.00108888
0.000424785
-0.00011833
-0.00111874
-0.00273507
0.00429324
-0.00145125
-0.126601
-0.124896
0.0132361
0.0795989
0.00451542
0.121412
-0.145222
-0.0108777
-0.0334622
0.225135
0.18519
0.0514888
0.144801
0.0935937
0.0711663
0.155465
0.0784786
0.0841953
0.158172
0.0687041
0.132509
0.179801
0.203825
0.00875991
-0.149406
0.00823332
0.0995483
-0.120603
-0.129406
0.0185153
0.0534562
0.0294071
-0.101276
-0.111313
0.0208439
0.0331394
0.0399457
-0.109844
-0.104217
0.0210171
0.0217801
0.0632569
-0.120533
0.157283
-0.339128
-0.45454
0.392106
-0.459529
-0.0192617
-0.315865
0.00257813
0.307802
-0.0739067
0.366633
0.181741
0.271013
-0.406326
0.158518
-0.350111
0.233112
0.303912
-0.372063
0.0084631
-0.316323
0.278834
0.347077
-0.369461
-0.00211322
-0.309658
0.295351
0.360829
-0.370675
-0.000493898
-0.309314
0.302142
0.366942
-0.374937
0.000352436
-0.313012
0.303566
0.370011
-0.38298
0.000778162
-0.32054
0.300837
0.370761
-0.394401
0.00141164
-0.329904
0.293592
0.368614
-0.404439
0.00287053
-0.334323
0.278119
0.347175
-0.0753667
0.155876
-0.375357
-0.382783
0.847879
-0.0294259
-0.0322033
0.019164
0.0842823
0.358248
-0.0657315
-0.00604108
-0.0734107
0.148522
-0.382416
-0.376177
0.843009
-0.0484577
0.278201
-0.0100187
0.00471754
0.00448172
0.00286653
0.00148005
0.000635663
-3.12844e-06
-0.00103202
-0.00248367
0.0042852
-0.00133006
0.100596
-0.11166
0.111271
-0.101063
0.00020379
0.10117
-0.0956088
-0.000534227
-0.120395
6.82447e-05
-0.10119
-7.59616e-05
0.0953659
0.00375151
0.112447
-0.00918308
-0.121575
0.000397532
0.120231
-0.000122174
-1.75608e-05
0.212997
-0.366251
0.365817
-0.361816
0.381176
-0.390394
0.408852
-0.408327
0.415722
-0.414968
0.419754
-0.419214
0.424628
-0.42279
0.430703
-0.425064
0.435759
-0.420135
0.432989
-0.23267
0.00492722
0.234884
0.00634742
-0.422373
0.408919
0.00213082
-0.423256
0.415406
0.00144263
-0.418608
0.413591
0.000954241
-0.412981
0.409883
0.000659268
-0.408167
0.40558
0.000677574
-0.403492
0.399426
0.00107547
-0.395042
0.384128
0.00121856
-0.366526
0.000217989
0.366407
-0.38436
-0.00172083
-0.380604
0.361271
-0.000677885
-0.214809
-0.0139553
0.218504
-0.379294
0.366519
-0.386351
0.388703
-0.396321
0.396759
-0.399518
0.401705
-0.40231
0.407693
-0.404953
0.415936
-0.404943
0.424541
-0.393984
0.42489
-0.229309
-0.0494769
0.0996095
0.0125142
-0.394415
0.353522
0.00488857
-0.38532
0.370984
0.000645209
-0.370626
0.367801
-0.000512093
-0.363499
0.362757
-0.000687749
-0.360009
0.360001
-0.0018716
-0.357134
0.358956
-0.00464428
-0.350888
0.353113
-0.0106505
-0.325828
0.298128
0.00641787
-0.107999
0.183802
0.302256
0.00956428
0.0376027
-0.0552499
0.154711
-0.477199
0.362385
-0.454846
-0.306288
-0.378715
0.00996731
0.249149
0.275579
-0.396424
0.153269
-0.355754
-0.0264555
0.0190395
-0.143953
0.0123163
-0.00581257
-0.152709
0.0155227
-0.0246925
-0.36097
-0.39149
0.282689
-0.366922
0.00461387
0.335276
-0.366083
0.354304
-0.368047
0.00236813
0.36272
-0.372917
0.366239
-0.381399
0.0139605
0.36631
-0.391418
0.36187
-0.395789
0.0817585
0.0189424
0.0119658
0.0126118
0.00589924
0.0146901
0.378655
-0.401655
0.00353741
-0.325782
0.269679
0.375895
-0.397249
0.007611
-0.348796
0.243729
0.48719
-0.0567982
0.00969644
-0.410494
-0.37893
0.798204
-0.0497331
0.0130614
0.0220309
-0.241423
0.0549736
0.188125
-0.194732
0.0159147
0.200389
-0.181699
0.00247811
0.193704
-0.185114
-0.000370385
0.1841
-0.17863
-0.00477479
0.190714
-0.171955
-0.0116549
0.200413
-0.134866
-0.0194351
0.236441
0.089748
0.0663598
-0.0174215
-0.00906277
0.0932347
-0.0409772
0.420437
-0.449935
0.440669
-0.451001
-0.291981
-0.378637
-0.00063706
0.288356
0.363822
-0.376667
-0.00188478
-0.291843
0.00234034
0.000170358
0.00314667
-0.000349609
0.00612002
0.0240829
0.0222476
0.0402526
-0.0122918
0.00618931
0.168306
0.267306
0.222951
0.0753758
0.339122
0.134941
0.0635025
0.019172
0.0117541
-0.00618898
-0.00443996
0.00299291
0.00603498
-0.0535159
-0.0007505
0.0620197
-0.0572349
0.448548
-0.455661
0.454087
-0.467747
-0.306787
-0.392852
0.00144738
0.289349
0.377422
-0.3839
0.000441104
-0.296634
0.00411549
0.00183554
0.000414744
0.000236263
0.000587616
0.0014515
0.00224602
0.00168397
0.00497034
0.00753229
0.07257
-0.00120791
-0.00054246
-0.00230981
0.000428234
0.000976204
-0.00952114
0.0221112
-0.254846
-0.000681377
0.00347385
0.000170143
-0.00344564
0.390465
-4.65666e-05
-0.408667
0.39501
-0.399444
-0.00139488
0.408939
3.18419e-05
-0.415646
0.403804
-0.405271
-0.000575158
0.415992
0.00026912
-0.419523
0.408988
-0.409063
4.21972e-05
0.420806
0.000493007
-0.424215
0.414519
-0.412004
0.000640568
0.42523
0.000427976
-0.429964
0.420996
-0.412747
0.00152717
0.427933
-0.00077135
-0.433977
0.425931
-0.40573
0.00242344
0.42046
-0.00369363
-0.429421
0.423346
-0.233042
-0.000292864
0.23139
-0.0142696
-0.029844
-0.0310223
-0.0328789
-0.407959
0.101145
0.0892341
-0.0346069
-0.0712605
-0.0351041
-0.460406
0.0972249
-0.119784
-0.199003
-0.0716442
-0.0572597
-0.0605534
-0.0262688
-0.0119086
0.00231586
-0.00109895
-0.0100994
-0.0122094
-0.00734264
-0.0131994
-0.0252893
0.0041925
0.197665
0.231656
0.227185
0.261755
0.323813
0.308291
0.241054
0.242642
0.15834
-0.140805
0.0454459
-0.0165196
-0.0115689
0.04125
-0.122755
-0.000334101
-0.000192236
-0.000396114
3.25e-05
-0.0775493
-0.088355
-0.0875658
-0.0784988
0.0778195
-0.0660513
0.00245402
0.0879705
-0.0759004
-0.0762081
0.00243511
0.0876464
-3.80173e-06
1.61812e-05
4.10895e-05
4.55488e-05
-0.00231808
0.00310868
-0.00158116
-0.00086774
-0.000100234
0.000503532
0.00124909
0.00515363
0.00374501
0.00176561
0.00911924
-0.00270358
0.0548622
-0.0782487
0.464506
-0.481156
0.481064
-0.00986085
-0.141196
-0.0212719
0.0389037
-0.00403385
-0.00872119
-0.00422339
-0.0279213
-0.057739
-0.114818
-0.262457
-0.268411
-0.666422
-0.312812
-0.27329
-0.00915057
-0.10769
0.0851446
-0.540424
-0.323211
-0.151427
0.244442
0.0196816
0.0126633
-0.2554
0.27023
0.00159359
-0.0320307
-0.280516
0.271524
0.000475622
-0.0356983
-0.273758
0.27063
0.002326
-0.0584621
-0.261209
0.192969
-0.154218
0.12665
0.0960356
0.283008
-0.132982
-0.0768352
0.0420379
0.169956
-0.55443
-0.0307196
-0.324525
0.28397
0.262074
0.249704
0.313572
0.1511
0.0339221
0.120848
0.182494
0.300992
-0.138824
0.0288292
0.221497
-0.189086
0.000286118
0.192196
-0.193391
-0.00237467
0.18501
-0.187768
-0.00137118
0.182596
-0.184687
-0.00119807
0.18095
-0.184985
-0.00256463
0.174031
-0.194611
-0.0153262
0.147281
-0.224888
-0.0837271
-0.00354713
-0.302674
-0.187393
0.10934
-0.298334
0.3303
-0.350946
0.00986422
-0.367387
0.378699
-0.0057441
-0.218281
0.0139398
0.215136
-0.212815
0.000758021
0.00125944
0.000372305
0.00030014
0.000463466
0.000434497
0.000179333
0.000360272
0.000894769
0.000937259
0.00364607
0.000424094
0.0591376
-0.0621571
-0.00169211
-0.000354076
0.00291068
0.000712693
0.28981
0.373276
0.00218675
-0.308345
0.302387
0.000475123
-0.312271
0.302962
0.00090812
-0.320851
0.299436
0.00157111
-0.333127
0.291351
0.00286713
-0.342676
-0.014397
-0.0112557
-0.0646768
-0.0642777
-0.106167
-0.0517107
-0.0256382
-0.0118699
-0.00801963
-0.0148924
-0.0267748
0.00150509
0.192835
0.223956
0.217472
0.308825
0.184877
0.00186242
-0.0214382
-0.0116859
-0.00658847
-0.010143
-0.0227185
-0.0480089
-0.0989436
-0.232337
-0.247147
-0.43938
-0.331771
-0.10477
-0.10549
0.223575
0.0261124
-0.0274476
-0.0218271
0.110471
0.00453882
-0.0880814
-0.0842938
0.0873087
-5.91558e-05
-0.0973846
-0.0932014
0.076423
-0.0003788
-0.12106
-0.115505
0.0370242
-0.153689
0.0981204
0.09513
0.0995593
0.0866043
-0.134752
0.00948865
0.0498604
-0.152824
0.0366284
-0.1474
0.173074
-0.399697
-0.0213064
-0.384621
0.262368
0.270648
0.270569
0.265514
0.261195
0.263969
-0.416111
-0.0250013
-0.375384
0.267975
0.286974
0.269138
0.283271
-0.0210686
-0.400274
-0.397749
0.173482
0.271551
0.240258
0.237467
0.29568
0.283586
0.227065
0.0689395
0.150382
0.0613484
-0.0326625
0.0747756
0.0116127
-0.0545507
0.0561894
0.00257368
-0.0558388
0.054931
0.000472599
-0.0564995
0.0538664
-5.7884e-05
-0.054455
0.0552289
-0.000635638
-0.0555617
0.0532456
-0.00359182
-0.0579151
0.0503348
-0.0133975
-0.0768072
0.029346
-0.0609698
-0.14809
-0.0706723
-0.219753
-0.264785
-0.270213
-0.181965
-0.133743
-0.205646
-0.00866374
0.150386
-0.113619
0.0110433
0.12466
-0.124326
0.00524837
0.129925
-0.133255
-0.00440988
-0.00895841
-0.231116
-0.000738931
-0.374955
0.0004413
-0.371836
0.00199153
0.389434
-0.395296
0.000456218
-0.392747
0.00462752
0.399255
-0.362004
0.000139522
0.363268
0.00193751
-0.363688
0.000171678
0.365077
0.00130918
-0.365887
0.000227705
0.367117
-0.000596314
-0.368552
0.00032544
0.369662
-0.000928425
-0.371462
0.000689295
0.372804
-0.00549586
-0.370736
0.00289711
0.372395
-0.00742901
-0.00841455
-0.46447
-0.335741
0.00791132
0.431041
-0.00292192
-0.456216
-0.316506
0.00654691
0.444431
-0.00100848
-0.45051
-0.309559
0.00258677
0.445486
-0.000756491
-0.446395
-0.305027
0.000373387
0.445126
0.000552182
-0.441306
-0.30167
-0.00170105
0.443834
0.000682473
-0.43499
-0.297541
-0.00510532
0.445116
0.00283778
-0.416217
-0.289035
-0.00545227
0.45097
0.0100741
-0.361023
-0.255222
0.023689
0.474923
0.0573367
-0.0410453
0.109734
-0.187917
-0.303853
-0.00300228
-0.0850723
0.001374
0.260557
-0.0215174
0.00365109
-0.219559
0.000981056
0.375895
-0.367487
-0.00230247
-0.370328
0.0103427
-0.355736
-0.000646855
0.35822
0.00806271
0.00291142
0.000740617
0.00426302
0.386995
0.0026598
-0.00330428
-0.0960947
-0.000269762
0.103863
-0.000143208
0.000340819
0.000468285
-0.016544
-0.0191226
-0.0137066
-0.149776
0.0150139
-0.0245815
0.00223086
0.00256207
0.0045673
0.341283
0.281653
0.00154846
-0.00284294
-0.0126219
-0.0151366
0.249445
0.00931028
-0.318026
0.285262
-0.0019232
-0.309198
0.297466
-0.000425178
-0.000644949
0.000958723
0.00377049
0.00105983
0.00243337
0.00518387
0.00238944
0.00114257
0.000986906
0.00418696
0.000219821
0.000875726
0.00224002
-0.315223
0.277819
0.440581
-0.455582
0.450209
-0.456186
-0.00119592
-0.358595
-0.00338248
0.361229
-0.00452414
-0.354668
-0.0113271
0.371315
0.021987
0.0276645
-0.25363
-0.000952006
0.272659
-0.286146
-0.000640358
-0.47244
-0.000917251
0.471771
-0.413715
-0.000170301
-0.419884
0.000125267
0.420987
-0.416088
-4.98178e-05
-0.414659
-4.70756e-05
0.416073
-0.428011
-0.000237434
-0.408889
-0.00120962
0.409491
-0.410294
-0.00359376
0.408189
-0.403931
-0.00755371
-0.00975999
-0.002234
-0.000950295
-0.000111935
0.000163213
0.00043664
0.00123417
0.00252767
-0.00435456
0.00114981
-0.100695
0.111861
-0.110575
-0.10344
0.00103442
0.00062219
-0.00215374
0.00605851
0.0980959
0.000892141
-0.00116824
-0.00913148
0.0119562
-0.0104729
-0.146696
0.014282
-0.0311268
0.220233
0.0107849
-0.0105282
-0.00888162
0.00584179
8.2205e-05
0.075227
0.0762235
-0.0023005
0.0650161
0.100589
-0.00173876
-0.00219009
-0.00225462
-0.000808888
0.00776385
-0.116928
0.299468
0.0174352
-0.446896
-0.00285875
0.452942
-0.397446
-0.00197674
-0.410782
-0.000196659
-0.406101
-0.000166583
-0.408228
0.000897962
0.409953
-0.420558
0.000163693
-0.403424
0.000670171
0.405038
-0.406143
-0.000305439
0.407587
-0.000257718
9.32504e-05
0.000441557
0.00110218
0.0017909
0.0023809
0.000129921
-7.0894e-05
-0.00241821
-0.00230509
-0.00868531
-0.0109411
-0.00229361
-0.00235921
4.20186e-05
5.39538e-05
0.000295986
0.000129674
0.000321647
0.000260117
0.000333286
0.000398273
0.000382955
0.00027158
0.00158424
0.00193869
0.00199656
0.0087803
-0.00104884
0.0634002
-0.328557
-0.0833938
-1.08899e-05
-0.0310239
0.141657
-0.144418
-0.468383
-0.170052
-0.00263986
0.0411946
-5.72827e-05
-0.333278
-0.14146
-0.0936312
0.212454
0.0255473
-0.0235101
-0.0411531
0.119577
0.00432645
-0.0818878
-0.101897
0.102354
0.000224149
-0.0905092
-0.107376
0.0949331
0.000571321
-0.116362
-0.1217
0.0254907
-0.0070142
0.00113676
0.00143754
0.404184
-0.365505
0.00256121
0.376836
-0.013637
0.0100175
-0.476149
0.00199662
-0.295601
0.304239
-0.00236404
-0.290233
-0.50557
0.435384
-0.027528
0.0444545
0.164431
0.00157292
0.355025
0.263652
0.296796
-0.39281
0.00491871
-0.332743
0.0099911
-0.368409
0.00822362
-0.35298
0.00987958
-0.354735
0.00924036
-0.37857
0.276696
0.270562
-0.0190076
-0.478714
-0.384898
0.170342
-0.118581
0.149412
0.0840152
0.0997961
-0.145738
0.0410499
0.0311708
-0.157495
0.0620412
0.113729
-0.136441
0.214467
-0.114893
0.0179234
-0.126465
0.0219394
-0.137875
-0.10804
0.0210561
-0.00875512
-0.00198048
-0.00134819
-0.00027679
0.00033223
0.00039679
0.000517321
0.00121333
0.00247233
-0.00440756
0.00124529
-0.065815
0.077719
0.000567465
0.0156789
0.0112499
0.00906392
-0.113091
-0.00829175
0.120886
-0.0995087
-0.0544659
0.122625
-0.133541
-0.182492
-0.205974
0.145268
0.149981
-0.0089915
-0.0126414
-0.0409585
0.0047673
0.153764
-0.02795
-0.0360105
-0.0203329
0.110109
0.110189
-0.0361773
-0.0276932
0.141535
-0.077671
-0.164486
-0.0780791
0.151478
-0.0151222
-0.016049
-0.0196663
-0.00519656
0.00167513
0.260177
-0.0219655
0.0100108
-0.000433588
0.000312442
0.000518156
0.000310484
-7.36283e-05
-0.000715132
-0.00176398
-0.000219617
-0.00123374
0.000379597
-0.0111534
-0.00412597
0.00629525
-0.0158712
-0.0075329
-0.00745625
-0.208896
0.200745
-0.005753
-0.0046994
0.00991868
-0.00499701
-0.00448021
0.0340843
0.0706227
0.0361835
0.250245
-0.125676
0.0165377
0.133193
0.167368
-0.0656872
0.00708663
-0.00239858
0.0109722
-0.00267831
0.00125251
-0.0190522
-0.00368456
0.000168809
1.54542e-05
-0.000485323
-0.00113146
-0.000767618
-0.00196188
0.00139753
0.00266095
0.000577715
-0.00489365
-0.000871039
2.04905e-05
0.000103073
-5.68996e-06
0.000979109
0.00743246
0.00230782
0.00382651
0.0021954
0.000845224
4.47343e-05
0.000736153
0.000767888
0.00162135
0.00282288
-0.389179
0.353865
-0.356703
0.358227
-0.358682
0.00189166
-0.39624
0.395382
0.0042475
0.00277286
0.00171666
0.000750768
0.385564
0.00233006
-0.00357953
0.121743
-0.00262397
0.00227912
0.0109207
-0.0179674
0.128897
0.101221
-0.04475
0.0178009
-0.000378945
-0.000161124
0.0660656
-0.00227491
-0.000135049
0.0466108
-0.141022
0.0408862
0.000491698
0.0163745
0.0119789
0.00127454
-0.0125048
0.0050734
0.0110175
-0.0448439
-0.0411826
0.129339
-0.0545937
-0.0994062
-0.0181244
0.122118
-0.0081283
0.0110003
0.00878325
-0.00611121
-0.000326709
0.00241127
0.00878377
-0.00340115
-0.00382504
-0.000978923
-0.000547267
-9.89932e-05
0.00111798
0.000697789
0.000613526
0.000395451
0.399035
-0.400353
0.360265
-0.361679
0.363158
-0.365894
0.00185363
-0.404893
0.402247
0.00138095
0.000534072
0.000113346
-0.000247387
0.000623083
-0.000899317
0.000541622
0.00022515
0.00043633
0.000340612
0.000641588
0.000230586
0.000677537
0.00198021
0.0109031
0.00981346
0.0355213
0.00173496
0.000745255
0.00015536
-0.00070456
-0.00256128
-0.00106935
-0.00107477
0.000127532
-0.000241805
-0.000190275
0.000242456
0.000270475
0.000258779
1.30235e-05
-0.00104282
-0.00274152
-0.00287122
-0.00112206
1.81886e-05
0.000110634
0.00019508
0.000300406
0.000410817
0.000721273
0.000618487
0.000582495
0.00128318
0.00109247
0.000603523
0.00174305
0.00338069
0.00137335
0.00201026
0.0488539
-0.00991794
0.00443451
0.00141111
0.00527476
0.107839
-0.00499389
-0.015582
0.0775335
0.0233985
-0.333377
-0.116221
-0.252001
0.226688
-0.154606
-0.165557
0.202992
-0.267998
-0.0144345
-0.0196426
-0.223919
0.197302
-0.00309137
-0.0109631
-0.00111302
0.00402063
0.00562595
0.0825209
0.0258706
-0.153
-0.131877
0.249267
0.0247443
-0.0589584
-0.0171529
0.102751
0.00332801
-0.117481
-0.0761741
0.0773147
-0.000279093
-0.122966
-0.0845102
0.0672032
-0.00109662
0.107111
0.103067
0.00615772
0.129415
-0.125849
0.000504661
-0.11315
-0.000640508
-0.00258481
-0.000439167
-3.18371e-05
0.0001802
0.000197505
0.000170879
0.000136215
4.12984e-05
-0.000989074
-0.00269448
-0.00124435
-0.308702
0.295758
-0.000407764
-0.308597
0.302464
0.454274
-0.459972
0.457707
-0.468281
0.000140738
-0.367508
0.00255711
0.362827
-0.000460717
-0.361522
-0.000135218
0.36085
0.00155135
0.00190054
-0.266385
0.000597387
0.270852
-0.291809
0.000453213
-0.477376
0.000397506
0.481138
-0.419566
-0.00012986
-0.424001
0.000456222
-0.42108
-0.0006741
-0.416573
-0.00128668
0.414292
-0.429847
9.46882e-05
0.413543
-0.00116096
-0.407043
0.406039
-0.0012043
-0.41901
0.423495
-0.411076
-0.000153306
0.000418476
0.00184902
0.0015465
0.000795286
0.0002674
-0.00020309
-0.00102167
-0.0011806
-0.000234718
0.000638753
0.00178211
0.00186536
0.004198
-0.312067
0.304212
0.00126379
-0.3191
0.30235
0.460817
-0.482306
0.461912
-0.495318
0.0123918
-0.42224
0.0390063
0.366506
0.00223864
-0.383933
0.0111449
0.366714
0.000121868
0.00644794
-0.266964
0.0053473
0.28544
-0.302512
0.00154623
-0.480661
0.0026515
0.487709
-0.417617
-0.00164992
0.410425
0.00370968
-0.464208
0.271051
-0.00106802
-0.311496
0.276567
-0.291522
0.0150083
-0.0361486
-0.0180372
-0.0312842
-0.0556767
0.344816
-0.490801
0.106279
-0.0795601
-0.0313228
-0.0123947
-0.00502047
-0.00312613
-0.00446897
-0.00138205
0.062567
0.646514
0.324061
-0.168248
0.113433
0.0579698
0.369018
-0.320079
0.34757
-0.0206957
-0.226755
0.0109984
0.410379
-0.38803
-0.00103575
-0.385406
-9.55544e-05
-0.390171
-0.000243381
-0.399994
0.00173536
0.404269
-0.413809
0.000385415
-0.399895
0.00169268
0.40262
0.00154431
0.00104358
0.421412
0.00233441
0.414975
-0.000328667
-0.00263441
-0.0049784
-0.0169346
0.00269529
0.226787
0.0157652
0.0196986
0.078181
0.13739
-0.190202
-0.000592346
-0.282388
0.000992797
-0.468291
-0.00217123
0.466261
-0.409265
-0.000751079
-0.417039
-3.44201e-05
-0.412291
-3.5079e-05
-0.41191
0.000353637
0.413422
-0.424593
-1.99305e-05
0.426194
-6.73928e-05
0.000385397
0.424055
-2.82447e-05
-0.00013949
-0.000800106
-0.00215726
0.404777
-0.00429044
0.380959
0.0227822
0.0115669
0.287615
0.01134
0.00685
-0.000666638
0.292691
0.00101447
0.00439442
-0.264385
-0.000471336
-0.289139
-0.000131468
-0.474646
-0.000208344
0.476167
-0.416896
-2.04652e-06
-0.422291
0.000275401
-0.419039
-0.000262599
-0.416717
-0.000554843
0.417579
-0.430916
-0.0004573
0.426437
-0.000919461
-0.000389672
1.2854e-05
0.000149196
0.000243627
0.000425079
0.00120053
0.00223076
0.00120969
0.00119163
0.000603601
0.00104396
-0.0013556
-0.000394321
0.000369527
0.000426807
0.000521174
0.000468681
0.000334863
0.000530805
0.000976481
0.0029323
0.00233002
-0.31264
-0.00801332
-0.306257
0.34078
-0.00682558
-0.324017
-0.331389
0.347372
0.324786
-0.00670122
-0.309302
-0.353258
0.369107
-0.331199
-0.00828913
-0.296266
0.332984
0.350234
0.345124
0.33756
-0.0075969
-0.326123
-0.302847
0.00235953
0.330876
-0.00621464
-0.347389
-0.316819
0.000914724
0.328501
-0.00210857
-0.357106
-0.324112
-0.333022
-0.340804
-0.0024273
0.338992
0.346165
0.000961842
0.321902
-0.00237164
-0.316258
-0.363347
0.368473
0.000866344
-0.290296
-0.436073
-0.00583036
0.300615
0.00185594
-0.282279
-0.417695
-0.00667989
0.316169
0.372391
-0.267572
0.0215636
-0.260101
-0.00931566
-0.26363
0.0212574
-0.259314
-0.00927057
-0.264656
0.0223245
-0.264213
0.367898
0.320037
-0.010122
0.0142727
-0.00111472
-0.19711
-0.236165
-0.22364
-0.247946
-0.236084
-0.237962
-0.244441
-0.200814
-0.310745
-0.245628
-0.224499
-0.235476
-0.159077
-0.0687068
-0.0852866
0.141232
-0.157954
0.371756
0.375877
0.372984
0.374565
0.388234
0.364901
-0.153025
0.123369
-0.0684281
-0.159228
-0.0857146
0.153895
-0.0158824
-0.00321061
-0.00321135
-0.00140454
-0.000501954
0.000357448
9.61886e-05
0.345711
0.000281147
-0.338414
-0.346546
-0.320567
-0.369405
4.74666e-05
0.321407
0.368692
0.00017299
-0.294267
-0.443727
-0.00200634
0.297937
0.445574
0.0014048
0.0577832
-0.0569982
-0.000549005
0.0579001
-0.057657
4.62699e-05
0.0589997
-0.0575429
0.00225113
0.0658108
-0.0522737
0.0126733
0.0928471
0.0326283
0.0192536
0.00557216
0.00354628
5.35968e-06
0.000551756
-0.000838418
0.000478891
-0.00150118
-0.000475156
-0.00256653
-0.0586732
0.44593
0.00292353
0.0549033
-0.0761865
-0.0119203
-0.0204686
-0.00835661
-0.0499345
0.034365
0.010287
-0.362425
0.0224036
-0.250199
-0.0103159
0.0147385
0.000848712
-0.158611
-0.270049
-0.262829
-0.219952
-0.0694587
-0.148393
-0.059863
-0.118326
-0.336519
0.0574014
0.474853
0.362601
0.390604
-0.152639
-0.325073
-0.196204
-0.00029919
0.0334782
0.0220455
0.0130848
0.00563124
0.0026463
4.60708e-05
-0.296996
-0.450364
0.447016
0.298384
-9.84514e-05
0.00147956
0.00521026
0.00576723
0.0192729
0.00765932
0.00220221
-0.00075599
-0.000238999
0.36869
0.00192747
-0.323864
-0.375033
-0.298131
-0.459973
0.00124436
0.300994
0.449729
0.00222519
0.00155083
0.00160154
0.00110348
0.00170766
0.00296477
-0.41089
0.368115
-0.369965
-0.00557638
0.00254439
0.00126969
-0.00240491
0.000608493
0.000167382
0.405687
0.000605889
0.000391188
0.408113
0.00269661
0.000239669
0.00105092
0.00173849
-0.000904595
-7.61629e-06
0.00048899
9.4996e-05
0.000312778
0.000118139
5.62471e-05
0.000372401
0.00133577
0.000583503
0.000160934
8.4769e-05
-0.00071837
-0.000231549
-0.000242968
-0.000803466
-5.14903e-05
0.000473462
0.00066201
-3.38928e-05
-1.67569e-05
0.000123972
0.000189566
-0.0033034
-0.00341789
-0.0159064
-0.00595561
0.351201
-0.00202298
0.000617179
0.000529862
-0.00116972
-0.00128236
-0.000442765
-0.00621441
-0.0056253
-0.00399063
-0.00032986
-0.327699
0.296197
0.0050149
-0.328096
-0.0126639
-0.0127066
-0.0636521
-0.0813329
-0.302795
-0.305687
-0.491053
0.123126
0.0465879
0.253358
-0.0892986
0.131958
-0.0148044
-0.150658
0.135625
-0.00338274
0.105275
-0.00344924
0.12756
-0.140761
-0.0118722
-0.00373714
-0.00460524
0.00201449
-0.0169349
0.112619
-0.00560363
0.00425162
0.00418314
0.002662
0.00155817
0.000686015
0.000588408
0.00559993
0.00479675
0.012226
0.0107005
0.030898
0.00636029
0.00279734
0.000878587
0.292236
-0.29574
0.00111869
-0.480353
0.00130288
0.486984
-0.421003
-0.000598033
-0.423001
0.000453794
0.418103
-0.000270597
2.04057e-05
0.000308878
0.000442703
0.00111048
0.00268034
0.00141631
0.000856516
0.000472896
0.000184751
9.56238e-05
0.000141656
0.00016166
0.000149045
0.403828
1.34386e-05
0.409908
3.41842e-05
0.39199
0.375956
0.00152197
0.374214
0.225606
0.00594527
0.0012903
-0.000153344
8.51549e-05
-0.00078003
0.412164
0.00152813
-0.00121003
0.268733
2.00933e-05
0.000626223
-0.00057202
0.290826
0.000845375
0.00301244
-0.267005
0.0024811
0.276832
-0.000177159
0.00187199
0.00110164
0.000755781
-5.78323e-05
0.415815
0.000162684
0.415245
2.40778e-05
0.000644605
0.418904
0.000297384
0.424242
-0.000100771
0.00181148
0.421723
-0.00189894
0.293666
-0.000617938
0.00543705
-0.272326
0.0091737
0.291542
-0.00992819
-0.00013033
-0.0103337
-0.0356512
-0.0838115
0.00298407
-0.0122219
-0.00529013
0.00400831
0.00364025
0.422353
-0.000593773
-0.00133215
-0.00133202
-0.000317111
-0.00483329
-0.000238674
0.000661049
0.000510754
0.426451
0.419394
-0.00032132
-6.47574e-05
-0.000860138
-0.00166446
-0.00185702
-0.00796785
-0.00297361
-0.00307479
-0.00162736
-0.000621932
0.427649
-0.00121284
-0.000202396
0.000381693
-2.45287e-05
-0.0012721
-0.00508757
-0.0157389
-0.00378104
0.000399353
0.000744515
0.0021668
-0.00205106
0.00249439
0.00416222
-0.0072812
0.0322961
0.0671345
-0.0486864
0.346125
-0.00048599
-0.0215024
-0.0323482
-0.0173176
-0.00525004
0.000925947
0.00697003
0.0184583
0.0324666
0.0348948
0.000828946
0.0167734
0.0166224
-0.310803
-0.158091
-0.325482
-0.15975
-0.000232031
0.0205826
0.00487926
0.00196573
0.305882
0.363501
-0.00123354
0.00293309
0.00121398
0.00240862
0.00132273
0.00284793
-0.00364145
-0.0194706
0.145175
0.333224
0.0139534
-0.000410213
0.000945217
0.0009605
0.000500312
0.000578662
0.000255125
0.000258008
0.000295616
-0.000360049
0.000348682
0.000325375
0.0011134
-0.000431165
-0.00103461
-0.352
0.0028416
-0.34283
0.331839
0.00705993
-0.347192
-0.358887
0.340974
0.319173
0.00483205
-0.326961
-0.382231
0.364901
-0.00106364
0.305086
0.4509
0.00491867
-0.000956195
-0.00180011
0.00223835
0.00307541
0.00581551
0.0768117
0.120216
0.186027
0.439667
0.0295481
0.227612
0.337002
-0.0160866
-0.00482077
-0.00981086
-0.00186863
-0.00204905
-0.000674004
0.321572
0.344958
0.337128
0.327344
0.00301153
-0.367328
-0.334427
-0.00124468
0.324734
0.00743144
-0.372097
-0.342143
-0.00261253
0.315939
0.336729
0.299717
-0.00196255
-0.00240129
-0.00270291
-0.000789176
0.00026084
0.00164329
0.000320591
0.000267052
-0.000795762
-0.000338687
-0.00310221
0.0293701
-0.00322761
-0.00202862
-0.00489227
-0.00388998
-0.00241017
-0.00410474
-0.00176162
0.0837854
-0.00201264
0.00185265
0.000258117
-4.5314e-06
0.00501054
0.0043863
-0.0316251
0.180619
-0.0791106
-0.30601
-0.386283
0.0291094
-0.177098
0.0736226
0.023324
-0.109151
-0.117536
-0.0127823
-0.0193119
0.12823
0.117571
-0.0110696
-0.114417
-0.00199871
0.114853
-0.000574693
0.00148238
-0.000111196
0.00133059
0.00330999
0.00344451
0.00235935
0.00068305
0.000542492
-0.00130431
-0.00112901
-0.000172974
-0.000703239
-3.47144e-05
-0.000150731
0.00106482
0.00203502
0.00192032
-0.00235735
0.0032772
0.00658942
-0.0119377
0.380057
-0.024845
0.0183469
-0.422932
0.00536089
0.0046389
0.0351646
0.00407659
0.00856572
0.02623
-0.00193647
-0.00072119
-0.00256251
0.00681761
0.0737303
-0.0047792
-0.00276755
-0.00142633
0.00187322
-0.187662
0.217507
-0.0065527
0.00134904
-0.00895333
-0.0223865
-0.0253121
-0.0047058
-0.00223598
0.0898845
-0.00231369
-0.00280753
-0.00529506
-0.000885789
-0.00310319
0.0792424
-0.00517581
-0.00294695
0.00683071
0.00522813
-0.00113653
-0.00130729
-0.000853687
-0.00217679
0.00199941
0.0055616
0.00457797
0.00374209
-0.00870212
0.0176597
0.0177579
0.0204368
0.0268608
0.381367
0.0513286
0.00747752
-0.0113916
-0.00328244
0.000838282
0.00465283
0.0118253
0.00135867
0.362256
0.303846
0.000863544
6.3684e-06
0.000333242
5.45092e-05
0.303618
0.36192
0.000420034
-0.362738
-0.329076
0.327827
5.21342e-05
0.338276
-4.19528e-05
0.00804202
0.0207307
0.00172774
0.00166287
0.0056165
-1.23833e-05
0.00142707
-0.00487027
-0.0170823
-0.00567777
0.307687
0.328471
0.315821
-0.00632476
-0.00238458
-0.000757907
-0.000417333
-0.000782852
0.360754
0.304228
-0.000467425
0.000466653
0.000204639
-0.000723523
-0.00119612
0.304016
0.355064
-0.00229454
0.000515823
-0.000386661
-0.000812759
-0.00210272
-0.0101288
-0.052416
-0.337667
-0.121775
-0.0236132
-0.0028545
4.53054e-05
-0.00015962
0.000344276
0.000105875
0.00155426
-0.00571362
-0.0140406
0.0120258
-0.017021
-0.0315395
-0.0208122
0.0135409
0.228704
0.329066
-0.0164839
0.00385132
0.218783
0.330851
0.00300775
0.208312
0.344093
0.164126
0.00113019
-0.00232558
0.349017
-0.00252751
0.0206291
0.120926
0.0207287
0.0445567
0.0472118
0.0449169
0.0595089
0.0375121
-0.001054
-0.00496273
0.0456605
-0.0215542
-0.0100313
-0.0077967
0.048809
0.00470198
0.0337833
0.0296212
0.207292
0.174972
0.194255
0.185471
0.190014
0.0410268
0.00665075
-0.000777425
-0.00691546
-0.0834974
-0.281542
-0.267583
-0.000304524
0.0107595
0.17033
0.000114284
0.417792
0.00321977
0.000615644
0.000200192
-0.000577853
-0.0113917
0.00125245
0.290478
0.416854
0.411763
-0.000210252
-0.0107318
-0.417692
0.00116315
0.00151843
0.00127203
-0.0419137
0.451572
0.0120148
0.00643412
0.00219557
0.00525948
0.0895276
0.00299905
0.213804
-0.252205
-0.0314521
-0.447565
-0.000188595
-0.0202994
0.101447
0.000680517
-0.454039
0.389504
0.00507651
0.219725
0.0151951
0.0883153
0.204609
0.0335491
0.0357634
0.00151822
0.00134309
-0.00163833
0.284228
0.0126201
-0.0175077
-0.0248469
-0.00803201
0.00201934
0.000420454
0.000173204
0.00032108
0.000380037
0.00010774
-0.000965355
-0.00149948
-0.0134741
-0.00687086
0.242958
0.0196967
-0.405816
0.442382
0.0268812
0.318386
0.00230303
-0.29349
0.304054
0.0302167
-0.265126
0.286434
0.00614785
-0.274288
0.27954
0.00393736
-0.274691
0.277391
0.00286762
-0.274506
0.275554
-0.000293324
-0.276116
0.271094
-0.00662957
-0.281389
0.258162
-0.0316189
-0.295054
0.192265
-0.140176
-0.372951
-0.113552
-0.349606
0.0218251
0.228477
-0.23024
0.0131128
0.238863
-0.236345
0.00491017
0.239938
-0.246686
-0.00277805
0.239196
-0.245618
-0.0203038
0.230963
0.242469
0.373796
0.0945552
-0.26987
0.00353064
0.396787
-0.000725313
-0.404311
-0.00178941
0.387686
-0.00236438
-0.391472
-6.36424e-05
0.389194
0.000406402
-0.383357
0.00123154
0.394554
-0.0116474
-0.414648
-0.0180113
0.323481
-0.0573867
0.0743418
0.168576
-0.308774
0.314639
-0.374543
0.353125
-0.365406
0.360149
-0.361594
0.36361
-0.36087
0.367112
-0.361625
0.368317
-0.366326
0.372519
-0.367123
0.385459
-0.328996
0.319034
-0.15816
0.313025
0.393097
0.195765
0.290031
0.211887
0.163458