/*--------------------------------*- C++ -*----------------------------------*\
| =========                 |                                                 |
| \\      /  F ield         | OpenFOAM: The Open Source CFD Toolbox           |
|  \\    /   O peration     | Version:  2306                                  |
|   \\  /    A nd           | Website:  www.openfoam.com                      |
|    \\/     M anipulation  |                                                 |
\*---------------------------------------------------------------------------*/
FoamFile
{
    version     2.0;
    format      ascii;
    arch        "LSB;label=32;scalar=64";
    class       volScalarField;
    location    "0.8";
    object      gradTy;
}
// * * * * * * * * * * * * * * * * * * * * * * * * * * * * * * * * * * * * * //

dimensions      [0 -1 0 1 0 0 0];

internalField   nonuniform List<scalar> 
5322
(
0.646605
0.0614899
-0.00328597
-0.0255538
-0.0134913
-0.00402146
0.00085633
0.00546064
0.0141003
0.0248981
0.000426597
-0.181822
-0.201979
-0.181309
-0.157423
0.340776
0.455788
-0.000749935
0.314947
-0.373864
0.355966
-0.362392
0.356075
-0.365478
0.365004
-0.359349
0.359912
-0.368953
0.369011
-0.366184
0.369624
-0.371458
0.384851
-0.332244
0.319576
-0.160655
0.315966
0.396073
0.197947
0.214694
0.292332
0.244222
0.253202
0.272885
0.260173
0.25807
0.264322
0.28239
0.262135
0.24991
0.313606
0.151293
0.169709
-0.557745
-0.0302854
-0.322627
0.169931
-0.422982
-0.0239046
-0.367617
0.172542
-0.415956
-0.0213396
-0.364889
0.17324
-0.430489
-0.0275508
-0.352937
0.174891
-0.473871
0.0165775
0.414339
0.230756
0.322418
0.240797
0.305016
0.254488
0.303691
0.257883
0.356968
0.0322734
0.120769
0.18227
0.30282
-0.025518
-0.125809
0.0361675
0.0710146
0.132429
0.0153916
0.0347104
0.00640747
0.00100457
0.00117173
0.437787
-0.234402
0.00708421
0.236352
0.00644928
-0.0064
0.032649
0.00636579
0.250345
-0.426785
0.381957
0.0052849
-0.00734714
-0.00135022
-0.000205229
0.000427483
0.000479373
0.000572572
0.00126613
0.00251523
-0.0042434
0.00111856
0.129593
-0.0532852
-0.0183284
-0.100001
0.122995
-0.0684231
-0.13335
-0.182424
-0.206144
-0.00830803
0.151101
-0.114017
0.010685
0.124525
-0.12403
0.00522534
0.129449
-0.132731
-0.004192
0.120896
-0.14502
-0.011543
-0.0334842
0.222031
0.183937
-0.120577
0.0799474
0.0621414
-0.127125
0.0137176
-0.124543
0.0976942
0.100406
-0.110713
-0.00167221
-0.103301
0.103686
0.111931
-0.100548
-0.000337285
-0.096097
0.122002
-0.00794997
-0.00600752
0.383482
-0.300547
0.33257
-0.353552
0.0119577
-0.22784
-0.00484083
-0.00199573
-0.0425894
0.109983
-0.220063
0.218949
-0.367681
0.000839735
0.375549
-0.371297
0.386564
-0.395476
0.00164614
0.38961
-0.399732
0.414595
-0.414051
0.00154252
0.404863
-0.408488
0.421661
-0.420909
0.00095557
0.411121
-0.41327
0.425754
-0.425183
0.000815696
0.41544
-0.418127
0.430653
-0.428822
0.00106703
0.419096
-0.423792
0.436687
-0.431089
0.00141031
0.420702
-0.428445
0.441369
-0.425727
0.00181936
0.413543
-0.427605
0.431176
-0.234397
-0.00107325
-0.0175881
0.00739461
-0.00700483
-0.000426405
0.00272689
0.00363706
2.4302e-05
0.438719
-0.233331
0.00194259
0.278233
-0.0379784
-0.0113778
0.00941755
-0.0137705
0.235626
-0.432031
0.00251436
0.00192492
0.00540743
0.00347918
0.00184508
0.000823781
5.8827e-05
-0.00110746
-0.00278828
0.00414291
-0.00149246
-0.104319
-0.111115
-0.111166
-0.10456
0.0213775
0.0367977
0.0231906
-0.140459
0.0736411
-0.148917
0.0368835
0.0214202
0.023238
-0.14717
0.0512374
0.140813
0.0908908
-0.140401
0.0737944
0.15286
0.213446
0.225458
-0.369453
-0.368618
-0.396722
0.288043
-0.357678
0.328751
-0.352583
0.341779
-0.352805
0.347772
-0.356482
0.35084
-0.364094
0.35187
-0.375556
0.351054
-0.387019
0.346605
-0.0758718
0.16612
-0.0518087
-0.00851342
0.300078
-0.356396
0.00394447
0.318327
-0.354718
0.00197992
0.326333
-0.345847
0.00106645
0.328787
-0.33806
0.000459294
0.326831
-0.333799
-0.000531885
0.31961
-0.333066
-0.0022816
0.302079
-0.337702
0.00803066
0.252398
-0.0233057
0.252178
-0.338246
0.00804551
0.289547
-0.394439
0.158271
0.261647
0.195544
0.183041
-0.347967
0.228473
-0.325347
0.288209
-0.319803
0.307189
-0.320321
0.314549
-0.324711
0.317088
-0.33375
0.317038
-0.344575
0.314229
-0.344111
0.302129
-0.0493444
0.120379
-0.135991
-0.00201316
0.414278
-0.504115
0.00918537
0.451304
-0.488597
0.00475956
0.455929
-0.467687
0.00202708
0.452821
-0.455853
0.00070304
0.449895
-0.450712
-0.000631561
0.446825
-0.448651
-0.00166194
0.437668
-0.451168
0.0101923
0.388199
-0.448446
0.157329
0.365468
0.324757
-0.163051
0.309817
-0.0735277
0.0583095
0.371136
-0.321209
0.299919
-0.282653
0.452778
-0.398635
-0.00315146
-0.445667
0.380158
-0.388595
0.011412
0.409122
0.0182682
0.0079081
-0.115738
0.0113495
-0.00929226
0.00607418
-0.0022186
-0.00079042
0.374052
-0.374777
0.375344
-0.390598
6.71674e-05
0.403566
-0.406844
0.412401
-0.413251
0.000298218
0.417589
-0.417237
0.423201
-0.420225
0.000361766
0.429692
-0.42099
0.434292
-0.41375
-0.000670502
0.000570912
0.000942944
0.003125
0.00175092
0.00115592
0.433571
-0.420386
0.00221314
0.497202
-0.493234
0.441804
-0.409578
0.00428461
0.49757
-0.475014
0.302816
-0.211341
-0.339559
-0.0232039
-0.00502131
-0.122707
-0.0315905
0.00931687
0.223838
0.291569
0.0231033
-0.472172
0.357489
0.00343362
-0.397042
0.36179
-0.000904
-0.370856
0.363939
5.71236e-05
-0.355984
0.360593
-0.00262205
-0.353911
0.372922
-0.00643377
-0.336227
0.379577
-0.0238789
-0.299256
0.0970262
0.145933
-0.180163
0.00146493
0.29448
-0.251114
0.294658
-0.288576
0.293651
-0.291257
0.473896
-0.415389
-0.000985618
-0.473931
0.41301
-0.410902
-0.0024655
0.467555
3.32054e-06
-0.0011008
-0.000712728
-0.026978
0.00577152
0.0375346
0.040853
0.0166246
0.00721154
0.023587
0.0166809
-0.021462
0.347606
0.111431
0.02422
0.0832168
0.0176904
0.00519937
0.00363229
0.00134689
0.000829196
0.000852195
0.000735086
-0.265964
0.000166423
0.271907
-0.26976
0.294412
-0.293717
0.299178
-0.296264
0.4871
-0.42101
0.000776233
-0.481751
0.424994
-0.418607
-6.32501e-05
0.479431
0.000972894
0.000882551
-0.000180669
-0.00267281
-0.00203696
0.00373956
0.0027155
9.12675e-07
0.0124901
0.00895685
0.276601
0.00126158
-0.0126754
-0.000810721
-0.0189036
0.00217837
0.182969
0.34933
0.642087
0.0671836
-0.00972045
-0.00436101
-0.0172876
-0.355417
0.00146256
0.331219
0.301464
-0.333232
-0.00226142
-0.351289
0.00244046
0.34391
0.319089
-0.333625
-0.000494744
-0.352797
0.00204746
0.348742
0.326825
-0.337748
0.000520637
-0.357864
0.00580467
0.349965
0.329829
-0.345759
0.00119079
-0.367393
0.0168872
0.346873
0.329828
-0.356099
0.00219204
-0.380228
0.0418709
0.336536
0.327197
-0.362826
0.00427302
-0.386987
0.0946747
0.317601
0.317578
-0.0606706
-0.00826036
-0.0703367
0.842054
-0.377533
-0.385676
0.622369
0.161905
0.0668327
-0.577292
-0.119554
-0.0700726
0.294962
-0.307964
-0.00539359
0.00663536
-0.0391182
-0.0469465
-0.00503847
0.0124687
0.00722113
0.00265365
-0.00406256
0.00149174
0.00282274
0.000830818
0.000122045
-0.000683458
-0.00241832
-0.00466737
-0.0162082
-0.0086784
0.226061
-0.22615
0.00272154
0.00146154
-0.229707
0.226333
-0.00053426
0.000941744
-0.00102269
-0.017144
-0.010863
0.0410434
0.00444439
0.04723
-0.016751
-0.0205416
2.06969e-05
0.0756626
-0.0879571
0.0883131
-0.0753775
-0.0763073
-0.0652287
0.00243495
0.0875759
0.0788051
-0.0786611
-0.00234498
-0.0882365
-2.78677e-06
1.59899e-05
0.00559717
0.0158409
0.0141771
-0.0315691
0.000545414
4.1738e-05
0.000775512
0.00251369
0.00641559
0.00276339
0.0233666
-0.0193307
-0.00261635
0.0127741
0.289576
-0.26555
0.306342
-0.303028
0.312073
-0.00767028
-0.277087
0.00750405
0.308689
-0.00131149
-0.0139279
0.00283392
0.00196102
0.00389358
0.00460511
-0.00334475
-0.0466917
0.160027
-0.0715994
-0.30543
-0.0390173
-0.0375
-0.605779
-0.167175
0.0213359
-0.244829
0.180836
0.00834097
0.0101489
0.21889
0.183599
0.0256437
-0.0205586
0.243369
0.218722
0.0276295
-0.0247631
0.220859
0.249413
0.0257541
-0.057015
0.183234
0.254611
-0.0883242
0.133324
-0.116215
0.124219
-0.490339
-0.266256
0.0479058
-0.12103
0.262296
-0.0158437
-0.429784
0.227558
-0.00453274
-0.27017
-0.267152
-0.388202
0.162025
-0.213066
-0.136693
0.236421
-0.487574
-0.0552942
0.341805
-0.418511
-0.0113438
0.363039
-0.38018
0.000276316
0.363107
-0.363879
0.00139077
0.359042
-0.358048
0.00163674
0.356779
-0.355415
0.00517182
0.357052
-0.351827
0.0215807
0.367128
-0.314491
0.0883795
0.304924
-0.170148
0.323316
0.365181
-0.453003
0.386934
-0.455425
0.0106
0.227735
-0.348137
0.157151
0.182156
0.197194
0.261623
0.225007
0.158154
0.304735
0.18151
-0.00170626
-0.0269028
-0.0155071
-0.00998649
-0.00652662
-0.0121801
-0.00673312
0.00117153
0.00558347
0.274689
-0.267315
-0.000171025
0.000310762
-0.000178234
5.25628e-05
-0.476996
0.418508
0.000213288
0.418413
-0.421679
0.00046018
0.423481
-0.426276
0.00109238
0.427993
-0.431533
0.00194654
0.43068
-0.434843
0.00248251
0.423269
0.00273698
0.00530288
0.00079646
-1.10519e-05
-0.00124082
-4.76603e-05
0.00037894
0.000408493
0.00035387
0.000229146
0.000173471
0.000221004
0.00214458
0.00608475
-0.220194
0.0032804
0.0109061
-0.00057811
0.000372597
0.000568072
0.000356553
-6.48294e-05
-0.000789435
-0.00194327
-0.00282574
0.0103798
-0.00294737
-0.00779889
-0.0102172
0.203793
-0.217524
0.274935
0.000393952
-0.0370651
0.0309648
0.101946
0.000571949
-0.0906345
0.0852974
0.0874401
0.00031872
-0.0969386
0.0909802
0.0781032
1.5822e-05
-0.12178
0.115828
0.108295
-0.0020701
0.135605
-0.14278
0.139224
-0.149965
-0.013855
-0.0825147
0.119774
-0.0098791
-0.113946
-0.00242879
-0.000761056
0.408488
-0.00141593
-0.410891
0.238386
-0.00830246
-0.246529
0.246987
-0.0053726
-0.25887
0.413862
-0.00389881
-0.413692
0.404418
-0.402531
0.400243
-0.40993
0.000965806
-0.409969
0.404547
-0.000811063
-0.246686
-0.00904241
0.24885
-0.211688
0.00192266
0.372621
0.133032
0.391198
0.143098
-0.200859
0.306517
0.0286396
-0.266891
0.287623
0.00618511
-0.276991
0.279339
0.00169946
-0.27474
0.276743
0.000529615
-0.27557
0.272878
-0.00101403
-0.274053
0.271909
-0.00633457
-0.279069
0.257402
-0.0293389
-0.294669
0.192487
-0.139926
-0.373197
-0.112968
-0.349349
0.22834
0.0213759
0.0114122
0.145899
0.0341515
-0.224657
-0.185115
-0.0514625
-0.143208
-0.0928344
-0.0725119
-0.158618
-0.0792351
-0.0841925
-0.157558
-0.23073
-0.239102
-0.157949
0.392551
0.0216691
-0.231181
-0.00823857
0.317244
0.373264
-0.00411458
-0.275668
0.00164947
0.308578
0.457753
0.0043049
-0.451991
0.000406706
0.457361
0.00102133
-0.45619
0.00135162
0.458465
0.000546942
-0.460417
-0.000839096
0.460134
0.00042784
-0.465281
-2.1776e-05
0.461569
-0.001054
-0.471728
-0.00392357
0.457431
-0.00682441
-0.480555
-0.0167322
0.00237572
-0.295265
0.479743
0.00300942
0.307024
0.000198057
-0.297558
0.48669
-0.000173088
0.300406
0.000246962
-0.297549
0.48578
-0.000139896
0.297529
-8.26726e-05
-0.295255
0.483348
8.47297e-05
0.294511
0.000584073
-0.294546
0.480913
0.000303397
0.293197
0.00022392
-0.293519
0.478645
0.000510016
0.289743
0.000573406
-0.29571
0.473989
-0.00130766
0.285845
0.000132321
-0.301481
0.45107
-0.0177983
0.323405
-0.0577842
0.0743246
-0.367001
-0.323628
0.168851
-0.30878
-0.0905251
-0.0624482
-0.645421
-0.351354
-0.308315
-0.219002
-0.15837
0.351739
0.406853
0.0295527
-0.219026
-0.0104903
0.461188
0.0136548
-0.441962
0.00528146
0.003078
0.00685943
0.017648
-0.303739
-0.014599
0.147791
-0.0217355
-0.0209656
-0.0398254
0.141329
-0.0467242
0.01925
0.0169141
0.000444767
0.00127437
0.00116288
0.00068275
0.000582615
0.000181514
-0.00228877
-0.00165996
0.404428
-0.468801
0.00180102
-0.00241651
-0.00454277
-0.000330196
-0.384667
-0.000389688
0.392451
-0.410599
-0.000397947
0.410891
-0.417617
-1.29786e-05
-0.000114482
-0.00100239
-0.000471926
-3.0925e-05
0.000734595
0.000675437
0.000586895
0.000378803
0.000246822
0.000153453
0.00114773
0.00178144
0.000695322
0.389411
-0.39266
0.356824
-0.359589
0.361367
-0.361631
0.00205484
-0.188575
0.000136063
0.177839
0.00642678
-0.198326
-0.000654582
0.150696
-0.0153637
-0.0123521
0.0564047
0.0025451
-0.061114
0.450317
-0.00599955
-0.283393
0.000866195
0.290838
0.37869
-0.00247591
-0.299692
0.000120905
0.304649
0.368504
0.000349959
-0.305292
-0.000350988
0.303884
0.371707
0.00273198
-0.310731
-0.000972125
0.300024
-0.316289
-0.00151737
0.284836
-0.326132
0.012393
-0.0093369
-0.00236915
-0.000886436
-1.08857e-05
0.000267966
0.000526889
0.00137647
0.00285331
-0.00421653
0.00129275
0.10446
0.110036
0.111356
-0.0331165
0.150507
-0.0157236
-0.0163318
0.154596
-0.0292404
0.14099
-0.0454957
0.00555717
-0.012543
0.0120886
-0.00302164
0.00274126
-0.00221495
-0.370257
0.00976913
0.0109234
0.00233411
0.000135946
-3.8795e-05
-0.0785292
0.0778908
0.0024547
-0.0662379
0.101607
-0.0207102
0.00872497
-0.00347851
-0.00400678
-0.019712
0.146501
-0.364687
0.0220294
-0.244906
-0.0101646
0.310478
0.381222
-0.00886901
-0.280779
0.002311
0.368286
-0.00657703
-0.291983
0.000928812
0.306271
0.37075
-0.00145024
-0.301573
0.000146942
0.305552
-0.306393
-0.000458753
0.304469
0.000822582
0.000425136
6.07736e-05
-0.000237547
-0.00114394
0.00892352
-0.00588028
-0.000261212
0.00241409
4.03624e-05
-0.00224066
-0.0105421
-0.0088801
-0.00242542
-0.00241074
0.00216381
0.00620991
0.00108396
0.00541487
0.00136804
0.00340026
-0.00890422
-0.0125139
-0.0259929
-0.0287573
-0.0607797
-0.0510697
-0.0307841
-0.117812
-0.365941
0.0312861
-0.566135
-0.41625
-0.29913
-0.198866
-0.17931
0.0708837
-0.161051
-0.0155148
0.0378848
0.00157941
-0.00606733
0.193393
-0.228431
0.280076
0.00265137
-0.0328831
0.052115
0.11885
0.00500932
-0.0809458
0.111114
0.111355
0.00545174
-0.0867989
0.114877
0.104214
0.00412334
-0.116073
0.129767
-0.00617632
0.0037349
0.0181972
0.0786581
-0.33745
-0.489437
0.00580954
0.45669
0.0129832
0.00951042
0.295072
0.00181863
-0.484135
0.491933
-0.000713062
-0.466891
0.274446
-0.313794
0.27948
-0.0312938
-0.293739
0.0157265
-0.327849
0.456699
-0.400058
0.414304
-0.00139179
-0.415293
0.000758793
0.411598
-0.00123183
-0.41325
0.000242779
0.415104
-0.0012149
-0.416834
0.406825
-0.468257
0.0271168
-0.325817
0.446023
0.0208234
0.0108218
-0.123478
0.133891
-0.138178
4.38591e-05
-0.114896
0.105547
0.00750383
-0.131221
0.0934501
-0.106783
0.00497679
0.191888
-0.115381
0.0707074
0.0175256
-0.135658
0.106702
-0.00212307
-0.00230622
-7.2127e-05
0.00446625
0.00276103
0.00141734
0.000621065
1.6121e-07
-0.00107688
-0.00272063
0.00417393
-0.00129707
0.0654858
0.0753534
0.000138766
-0.0178516
-0.0110367
0.14193
0.051412
-0.120486
0.061955
0.0800576
-0.126127
0.00411126
-0.145995
-0.0113363
-0.0340576
-0.117946
0.184882
0.224879
0.0117431
0.0412638
-0.0100278
0.0056398
0.0986592
-0.106021
-0.00128257
-0.111228
0.110915
0.106018
-0.0986152
-0.000676977
-0.134516
-6.5421e-05
0.134471
3.03508e-05
6.89475e-05
-0.00244865
0.00801557
0.00359776
0.0600069
0.641491
0.348974
0.17958
-0.00165011
-0.0240502
-0.0139301
-0.00819539
-0.011041
-0.0229183
-0.0473655
-0.0516032
-0.104563
-0.115756
-0.24623
-0.415229
-0.369901
-0.373069
0.158359
-0.247886
-0.0970779
-0.105234
-0.323662
-0.424711
-0.377292
-0.376884
-0.38183
-0.375661
-0.426046
0.160587
-0.0447577
-0.131836
0.508243
-0.158733
-0.305683
-0.297886
-0.078297
-0.0970825
-0.226155
-0.237527
-0.0612774
-0.0946965
-0.0222938
-0.00678994
-0.00071843
0.000513571
0.000614834
-0.000421188
-0.00400609
-0.00473432
-0.018145
-0.00752135
-0.00316307
-0.00592454
-0.00407613
-0.00552398
-0.0124934
-0.0308418
-0.0116766
-0.0114813
-0.0134279
-0.0060865
-0.00136714
0.00024893
6.59306e-05
-0.000877393
-0.000807206
-0.00320968
0.287421
0.434218
-0.45053
0.443724
-0.450675
-0.000377502
0.306191
-0.32029
-0.00130662
-0.00271373
0.00136297
0.00489886
-0.325862
0.0149073
-0.148178
0.0914092
-0.0284982
-0.00884138
-0.0105058
0.0135502
-0.127333
0.10002
-0.000749893
-0.000360075
-0.000368101
8.29561e-05
0.0652286
-0.00224244
0.000282017
0.000277841
-0.000186897
-0.0412341
0.000211759
0.0170898
0.0106018
0.0139985
-0.0116333
0.00977561
-0.000157766
0.00101418
-0.0411211
0.127072
0.12614
-0.0797654
-0.0134573
-0.0631656
0.121211
0.0106409
0.00235108
5.32247e-05
6.7677e-06
-0.00240995
-0.00219546
-0.00225697
-0.000482671
-0.00982024
-0.000882456
-0.00220663
0.000641418
0.00493447
0.00100386
0.00310706
-0.320381
0.313444
0.447946
-0.454196
0.451572
-0.462258
0.00148416
0.315703
-0.323906
0.000553362
6.16845e-05
1.26982e-05
0.000576476
0.00112629
0.00299699
0.00225566
0.00516953
0.00278292
0.00606025
0.00631127
0.0153887
0.0132351
0.0140703
0.00624045
0.0844603
0.00120104
0.00205419
0.000971871
0.000233837
-0.000718924
-0.00262007
-0.00290733
-0.00111395
-0.00105047
-0.000658516
-0.000144394
0.000105659
0.000268059
0.000388983
0.000344742
0.000205351
-0.000978873
0.0013355
0.00126221
3.50899e-05
0.000155282
0.000281074
0.000450201
0.000779359
0.000936894
0.000847704
0.00169682
0.00205311
0.00146159
0.00325969
0.00435081
0.00357882
0.0221094
-0.0288677
-0.0408642
-0.00790129
0.0045073
0.00601323
0.00601975
-0.100436
-0.00171722
-0.000983517
-0.00149282
-0.00980627
-0.00379895
0.21343
-0.00279754
-0.283528
-0.00206467
-0.0128258
-0.262605
-0.0114378
-0.0154831
-0.165193
-0.0738807
-0.126864
-0.315113
0.0306577
0.080288
0.00539346
-0.00423667
-0.00357034
-0.00662337
0.00182965
-0.191106
0.271493
0.00191355
-0.0597983
0.0264353
0.0939971
0.000454917
-0.117179
0.0744501
0.075506
-0.000534512
-0.12123
0.0797208
0.0664881
-0.0012814
-0.111112
0.0252594
-0.150902
0.0669581
0.106028
-0.146443
0.044206
0.0216454
-0.00887078
-0.00195777
-0.000681976
0.000177536
0.000339521
0.000493146
0.00127765
0.00235935
0.00295941
0.00280087
0.0041754
0.399399
-0.400006
0.00179303
0.403072
-0.4042
0.363406
-0.364679
0.366239
-0.36897
0.00140192
-0.191595
-0.000845663
0.186685
0.00138386
-0.188364
-0.000106306
0.185146
-0.00106379
-0.000661088
0.0599095
0.00108244
-0.0597627
0.451291
-2.77799e-05
-0.289787
-0.000237944
0.293592
0.379212
0.00211086
-0.307336
-0.000972102
0.364254
0.00727171
-0.315324
-0.00272911
0.284325
0.361006
0.00648734
-0.391344
0.00870413
-0.325261
-0.387523
0.00862601
0.350823
0.291781
-0.319692
0.00959829
-0.0087273
0.00327305
0.0018124
0.00111627
0.00039702
-0.000397731
-0.00140936
-0.000688477
2.30876e-05
0.000644848
0.000384497
0.000581956
0.000235397
0.406239
-0.408768
0.0017655
0.409631
-0.414852
0.371044
-0.373122
0.379443
-0.368471
-0.0141487
-0.193141
-0.00593489
0.195902
-0.00120034
-0.197428
-0.00249988
0.188931
-0.00244147
0.00225651
0.0678456
0.00482074
-0.0543673
0.454714
0.00219284
-0.289072
-0.00272684
0.297077
0.358346
0.00586025
-0.401661
0.0102364
-0.285248
-0.509489
-0.00196764
0.438547
-0.0296376
0.16615
0.00111874
0.120063
0.0763417
0.0444015
0.0285346
0.224651
-0.142116
-0.0126659
0.00644063
0.000569353
-0.000124122
0.00013731
0.000187495
-0.000627069
-0.00472292
0.00160378
0.262166
-0.188056
-0.304348
-0.0695412
0.057824
-0.149483
0.479174
-0.220869
-0.269861
-0.26117
-0.152757
0.359982
0.398044
0.0207974
-0.246549
-0.00905311
0.369185
-0.00783585
-0.275488
0.00250233
0.309208
0.370854
-0.00443877
-0.293718
0.000728741
0.306255
0.00124614
0.00155854
-0.361427
0.00534652
-0.347309
0.0324704
0.0332085
0.00120786
-0.192957
-0.323092
-0.225429
-0.159319
-0.335993
-0.118831
-0.060348
0.0352277
0.0100046
0.455786
-0.00700621
-0.275756
0.00187204
0.293856
0.378883
-0.00690502
-0.293079
0.00090464
0.368281
-0.00232483
-0.300266
9.78269e-05
0.30514
0.371288
0.000531547
-0.372658
-0.000788069
-2.03752e-05
-0.368088
0.00738835
0.00753887
0.018911
0.00528802
-0.340743
0.0152616
-0.274891
0.00122658
-0.0505605
-0.0786426
-0.0210699
0.0219179
-0.00893658
-0.420884
-0.000770582
-0.00287274
0.0595833
0.00111996
0.449935
-0.0021225
-0.287166
0.000160072
0.291126
0.379173
5.5032e-05
-0.303843
-0.000231662
0.368124
0.00296312
-0.309789
-0.00117737
0.298985
0.369954
0.00625201
-0.383106
0.00124671
-0.000619925
4.51784e-05
0.000299096
0.000333504
0.000240242
0.000150488
7.89047e-05
-0.00111803
-0.00290763
-0.000675622
-0.000762834
-0.000972217
-0.000108691
0.000421314
0.000661424
0.000842321
0.000216003
0.000310052
-0.000174645
-0.000211674
-0.00103892
-0.000523173
0.408663
-1.44146e-05
-0.408506
0.411558
3.97504e-05
-0.416604
0.416817
-0.41105
0.415062
-0.000599546
-0.42246
0.415827
-0.41265
0.408219
-0.00181553
-0.416128
0.396697
-0.395297
0.395674
-0.39687
0.00177559
-0.40851
0.416786
0.000945701
-0.415256
0.000696568
-0.416199
0.423294
0.000570659
-0.422384
0.000251746
-0.419844
0.42616
-0.420156
0.420481
0.000111156
0.417893
-0.417296
-0.00014766
0.422266
-2.59743e-05
-0.425289
0.419557
-0.417168
-0.000916947
-0.476098
0.29336
-0.000413218
0.470097
-0.00225046
-0.471736
0.295257
0.00125467
0.456426
-0.400725
0.384078
-0.00139614
-0.390666
-0.000455185
0.381111
4.16246e-05
-0.381011
0.000855117
0.39097
0.00142461
-0.38417
0.40172
-0.457665
0.00324318
0.00483701
0.00440674
0.0162471
0.0110719
-0.228994
0.236177
-0.232706
0.232655
-6.92916e-05
-0.000685649
-0.000651943
-0.236159
0.228846
-0.0111947
-0.00645083
0.122361
-0.136662
0.000480513
-0.000894172
0.380147
-0.384858
0.385081
-0.380335
0.39308
-0.413826
-0.0112546
-0.00430578
-0.122357
0.00642845
0.136599
-0.00563953
0.00251443
0.00241643
7.35914e-05
0.0001298
0.000189837
0.000215263
0.000175476
-0.421112
7.43735e-05
-0.422772
0.423176
-0.427646
0.422776
0.000133159
0.426604
-0.420383
-0.000113329
-0.478403
0.293915
4.66868e-05
0.475767
-0.29233
-0.000111772
-0.266732
0.272017
0.00242418
-0.268911
0.274073
0.0033919
-0.269694
0.280029
0.00663076
-0.269725
0.288581
0.00563218
-0.275049
-0.00969682
-0.000352081
-0.00172089
0.00210868
-2.50588e-05
0.00102442
-0.000447263
0.000190983
-0.00113526
0.00118525
0.0050203
0.275777
-0.289369
-0.000481655
-0.25589
0.290479
0.0282557
0.0115756
-0.000628786
0.011356
-0.19206
-0.000322416
0.301402
0.0175653
-0.449782
-0.00288666
-0.00448776
0.0235605
0.0161753
-0.0214012
-0.228009
0.348654
0.113198
0.370957
0.137859
0.0784579
0.0188254
0.0571993
-0.323337
0.413252
-0.392405
0.0112187
0.00187265
-0.0178056
-0.00474663
-0.0024596
0.00714075
0.0017117
0.000770187
0.000918869
0.000643241
-0.48118
0.295504
-0.294996
0.480266
4.59458e-05
-0.000717029
-0.00214733
-0.000469455
-0.000602235
1.38263e-05
0.000178678
0.000817035
0.000569785
-0.423023
5.23395e-05
-0.429216
0.42569
-0.484073
0.297092
0.00131291
0.485414
-0.29885
0.00271922
0.000183485
-0.000356547
-0.00123969
-0.00521685
-0.00361772
0.314182
0.454945
-0.476113
0.0393724
0.00681662
0.00311534
0.0114983
0.00533061
0.0130922
-0.330874
0.0115
0.0317162
-0.338814
0.00309603
0.00150211
0.00105421
0.00194705
0.00300894
0.00411553
0.00190137
0.00121598
0.000697898
0.000524334
0.000410996
0.000603734
0.000799811
0.000563559
0.000441795
0.000575766
0.000708385
0.000589351
0.00100033
0.00105382
0.000559354
0.00131918
0.00105095
0.001474
0.00109438
7.97446e-05
-0.000860884
-0.000295815
0.00205475
0.00384352
0.000328431
-0.0218786
0.00261985
0.000562576
0.000907873
0.00112155
0.00125494
0.00105567
0.00222755
0.00137326
0.00259339
0.00143402
0.411779
-0.421699
0.00222018
0.407138
0.00683623
0.00134164
0.00334609
0.0175377
-0.067035
0.168052
-0.134207
0.282993
0.0413421
0.19255
-0.155463
0.126082
-0.135431
0.0861818
0.0981958
-0.147874
0.0338192
-0.154356
0.0910644
0.0945963
0.185295
-0.0086616
-0.00239312
-0.0235667
-0.00115721
-0.10694
-0.00168045
-0.000737059
0.000649432
0.000877773
0.00165364
0.000976028
0.000651558
0.000844072
0.000643846
0.000155492
0.000588875
0.000334184
0.00247047
0.00122995
0.000576478
-0.454302
0.45387
0.00127649
-0.291073
-0.00108754
0.297634
0.375144
0.00531781
-0.311231
-0.00230614
-0.380246
0.00188831
0.00115447
0.000197082
0.000455411
0.000225186
0.00254177
0.000602787
0.000280854
0.000453615
0.000430261
0.000409298
-0.000380722
-0.00119905
-0.00286939
-0.334985
0.00575897
0.309045
0.0174924
0.319415
-0.282142
-0.307606
0.362987
-0.243204
-0.228994
-0.189819
0.00234253
0.00173758
0.00152834
-0.363472
0.0129796
-0.00173156
-0.0592315
0.000404373
0.0056336
-0.000888879
-0.44759
0.000571625
2.58919e-05
0.0610636
0.00211285
-0.0596229
-2.80543e-05
0.00352164
0.00210996
0.00267201
-3.81444e-05
-0.373777
4.70315e-05
-0.36382
0.00218386
-0.000741825
-0.379808
-0.00068683
0.304626
-0.00193094
-0.00195611
-0.385327
0.00554137
-0.463977
0.0191988
0.0126433
0.0949259
0.00982786
-0.480275
0.0326496
0.002715
0.00533269
0.0288269
0.185227
0.438468
0.22779
0.334999
-0.0169596
-0.00522102
-0.39216
-0.00994089
-0.0211314
0.0116473
0.225938
0.32591
-0.0175979
-0.00601766
-0.0021611
0.302393
-0.374432
-0.00447431
0.00136349
-0.0159528
-0.0298715
0.0017729
0.208614
0.328252
-0.0185344
-0.00637805
-0.00243416
-0.377313
-0.00253128
-0.00081724
-0.000355003
0.00242527
0.00498116
0.00170057
-0.0242574
-0.00669075
0.000536991
-0.00160698
-0.00518917
-0.0046017
-0.00750138
-0.00010259
0.190488
0.367506
-0.068498
0.0598715
0.026695
0.0326975
0.0089251
-0.00210286
-0.000806603
-0.000193026
8.48607e-05
0.000268844
0.000722503
0.00227617
-0.000118565
-0.000146867
-0.000994796
0.00148474
0.000833952
0.000923507
-0.0017844
-0.017438
-0.0242775
-0.00741279
0.0025667
0.0026157
-0.471893
0.413873
0.00124617
0.00129862
0.00130204
0.00248705
0.00307497
0.00293208
0.000651778
-0.00796739
0.117221
-0.392821
0.0200166
0.00118243
0.001039
0.000593593
0.000577291
0.00101914
0.000362525
0.000360089
0.00032605
0.000510282
0.000183468
0.000239876
0.000235056
0.000888355
0.000880142
0.424871
-0.000152141
-0.424552
0.426389
-0.000633333
-0.423845
0.423564
-0.425918
0.432379
-0.00040999
-0.427913
0.426404
-0.424288
0.00160337
0.491318
-0.305383
0.00558918
0.0024083
0.00207403
0.00132752
0.000158334
-0.0101183
-0.0177021
-0.0357208
-0.0834992
0.0043743
-0.0357669
-0.0119046
-0.00354544
0.00479219
0.0040941
-0.000440948
7.39947e-05
0.000954587
0.000496615
0.430036
-0.424027
0.424686
-0.429868
-0.000149072
-0.42484
0.429812
-8.27908e-06
-0.432559
-0.000636038
-0.42529
0.428177
-0.000247846
-0.43143
0.42458
-0.489442
-0.00153082
-0.00238225
-0.00100893
0.000307152
0.000581066
0.00218817
0.00507271
0.0208075
0.0843075
-0.026843
0.850036
-0.020416
-0.00443419
-0.0155527
-0.149728
0.0304427
0.0858013
0.00743509
-0.00124956
-0.0834717
-0.0013877
0.00253646
0.00612395
0.000394083
0.000479096
0.00657962
0.00350947
-0.263287
0.217504
-0.00875356
-0.00609658
-0.000480094
0.04455
-0.0102063
0.0368471
0.0590968
0.0956851
0.189959
0.0469069
-0.122012
0.048093
-0.154077
0.037734
0.0208409
-0.116604
0.00663422
-0.00236128
0.000268955
-0.000574723
1.5001e-05
0.00218304
-0.00103968
-0.00233829
-0.00035162
-0.00273077
-0.000942266
1.88402e-05
-0.000137864
0.000181853
-6.41826e-05
-0.000146334
-0.00086012
4.34171e-05
0.00121243
0.00245401
0.00995093
0.106892
0.449091
0.0256597
-0.079177
0.28847
-0.00406556
-0.0610613
-0.0207157
-0.0299671
0.843779
-0.0162215
-0.00467109
0.00536934
0.00212521
0.00535022
-0.0755479
-0.00165483
-0.00177454
-0.0162727
-0.150772
-0.129255
-0.0782015
-0.304561
0.031094
0.0757962
0.00386361
-0.00427762
-0.00449359
-0.00240338
-0.0932051
-0.00462629
0.0447335
-0.0269427
0.0476268
-0.00270894
-0.0850476
-0.00503616
-0.00276696
-7.79207e-05
0.00523918
0.0194185
0.00269491
0.00350071
0.0180895
0.0176415
0.000941845
-0.00175406
-0.000440657
0.00103263
0.00295247
-0.0013535
-0.00106827
0.0136188
0.319812
0.0144027
0.000100041
0.00169777
0.000307374
1.9416e-05
-0.000244975
-0.00151371
0.00110867
0.418468
-0.477527
0.00123426
0.000589126
0.000412229
0.000459999
-0.481352
0.421605
8.95059e-05
-0.422586
0.428439
-0.426555
0.00034117
0.421755
0.00030735
0.000126983
1.26131e-05
-6.72878e-05
0.000525921
0.00099516
0.000201363
8.53147e-05
-0.000203243
-0.000931611
0.00150087
0.429319
-0.423475
0.423227
-6.51017e-05
0.000109229
0.000200859
0.000180213
-2.04176e-05
0.424375
-0.485119
-1.94713e-05
-6.41762e-05
0.000249925
-0.000681042
-0.000665388
-0.488833
0.42634
-0.000530981
4.98899e-06
-0.000647771
0.00126366
0.00029538
0.000282233
-0.0122668
-0.0196704
-0.0799975
-0.0127232
-0.00122749
0.000198428
0.000395777
0.000192218
0.000314709
0.00142428
-0.00134565
-0.0015157
-0.000303713
-0.000236787
-0.00187512
-0.00114771
-0.00110629
0.000293756
-0.0017342
0.00130483
-0.00193624
-0.00674293
-0.000586532
-0.00238276
-0.0148978
0.0106913
0.0297731
-0.000478061
0.0011776
-0.420453
0.00317117
0.0133151
0.0863027
-0.00177772
-0.00251578
-0.0185877
-0.176201
-0.108243
0.0246337
-0.00313375
-0.00247591
-0.00196582
-0.0223406
-0.00291563
0.162992
0.0490985
-0.00835602
0.0346138
0.24557
0.0213436
-0.00361581
-0.00642061
-0.00757491
-0.0113635
-0.280955
-0.250028
0.00184014
0.0252843
0.00946189
0.0409524
-0.0774256
0.000473508
0.00443002
-0.0115361
0.000395178
-0.369384
0.00583499
0.0016243
0.000216345
-0.00118154
0.000143925
-0.0012779
-0.43977
0.305421
-0.354462
0.0190366
0.184264
0.307897
0.00028954
-0.000439976
0.000906317
-0.0751541
-0.285528
-0.0198584
-0.00459501
-0.00120222
-0.00240676
-0.0839511
0.000632677
-0.277216
0.00706518
-0.268489
-0.00206938
0.0356974
0.00129089
-0.100454
0.0473287
-0.00987254
0.31605
0.000392783
-0.268949
0.0216548
0.0888711
0.0157596
3.2436e-05
0.00149497
0.00033166
0.0049495
0.30508
-0.488745
0.00164468
-0.158799
0.000141195
0.0213122
0.0332298
0.0190221
0.00705166
0.000456161
-0.00624219
-0.0185762
-0.0335196
0.00135292
0.204988
0.24503
0.243351
0.170193
-0.403198
-0.379621
-0.0186424
0.382791
-0.00823472
-0.466138
0.0784715
0.0130054
-0.054305
0.0593528
0.00386803
-0.0553677
0.0569864
0.00243844
-0.0528017
0.0572026
0.00195181
-0.0520418
0.0558521
0.000198172
-0.053361
0.0533647
-0.00377497
-0.0579456
0.0482021
-0.0142276
-0.0762901
0.0286743
-0.0615001
-0.147563
-0.0707473
-0.220993
-0.271335
-0.265394
-0.225699
-0.240214
-0.249766
-0.238961
-0.258074
-0.24535
-0.243764
-0.254066
-0.242917
-0.259326
-0.257579
-0.240207
-0.3195
-0.149725
-0.14403
0.552408
0.0351258
0.311057
-0.153644
0.402405
0.0254712
0.357136
-0.157944
0.381
0.021188
0.368265
-0.158431
0.376719
0.0219076
0.387602
-0.153388
0.365635
0.0233674
0.475187
0.0573149
-0.0408666
-0.304414
-0.00280603
-0.230603
0.148719
-0.201018
0.17698
-0.19038
0.185487
-0.186242
0.189463
-0.186374
0.190927
-0.186138
0.19525
-0.181462
0.207034
-0.154519
0.240374
0.00496947
0.301999
0.212864
-0.0845218
0.237958
-0.221932
-0.0108603
-0.00524091
-0.121996
0.128755
-0.114669
0.212033
0.0286665
0.0343828