/*--------------------------------*- C++ -*----------------------------------*\
| =========                 |                                                 |
| \\      /  F ield         | OpenFOAM: The Open Source CFD Toolbox           |
|  \\    /   O peration     | Version:  2306                                  |
|   \\  /    A nd           | Website:  www.openfoam.com                      |
|    \\/     M anipulation  |                                                 |
\*---------------------------------------------------------------------------*/
FoamFile
{
    version     2.0;
    format      ascii;
    arch        "LSB;label=32;scalar=64";
    class       volScalarField;
    location    "0.8";
    object      gradTx;
}
// * * * * * * * * * * * * * * * * * * * * * * * * * * * * * * * * * * * * * //

dimensions      [0 -1 0 1 0 0 0];

internalField   nonuniform List<scalar> 
5322
(
-0.0170162
0.00131293
0.0012485
-3.41259e-05
-7.68024e-05
-4.90038e-05
-2.32114e-05
-9.33186e-06
-3.41335e-06
-9.2013e-07
5.56777e-08
1.25531e-06
1.21434e-06
-1.34905e-05
9.06131e-07
3.4897e-05
-2.54078e-05
3.63597e-06
-2.53667e-05
5.17182e-05
-6.2771e-05
0.000162375
-0.000162214
0.000437401
-0.000454004
0.00101825
-0.0010145
0.00220476
-0.00224838
0.00417675
-0.00396127
0.00760532
-0.00551458
0.0131819
0.00194491
0.0220429
0.0156864
-0.00621718
0.0169722
-0.00104767
-0.0161443
0.0161402
-0.000973308
-0.0171443
0.0171007
-0.000561861
-0.0182032
0.0161845
-0.000337865
-0.0191366
-0.0191006
-0.0272234
-0.00937208
0.0164859
-0.00108923
-0.0266556
-0.000849516
0.0252621
-0.000291618
-0.0252285
-9.87703e-05
0.0245911
-0.000114539
-0.0247893
4.99398e-05
0.0242893
0.000397033
-0.0245703
0.00146973
0.020363
0.00145135
-0.0177725
0.0202257
-0.0207693
0.0199768
-0.0203531
0.0203682
-0.0204029
0.0232903
-0.01731
0.007842
-0.01381
-0.0096259
0.0138248
0.000970942
-0.00472953
0.0108207
-0.0305244
-0.00836191
0.0316105
-0.00147721
0.000156115
0.000239743
0.00264082
0.0157843
-0.00253828
0.000874332
-0.000388299
0.0111145
-0.0268737
-0.026778
0.0516446
-0.000443071
0.0122507
0.0200557
0.00111447
0.000321369
0.000170737
6.62902e-05
9.94536e-06
-7.68633e-06
-8.79202e-06
-5.69358e-06
-2.71978e-06
-1.15109e-06
-5.46387e-07
-1.09446e-05
-9.20925e-06
1.74171e-06
4.36952e-06
-4.59023e-07
6.02586e-06
-7.6824e-06
-8.45638e-07
-2.94714e-06
1.19479e-05
9.09081e-06
1.55449e-06
7.4564e-06
3.92398e-06
2.58561e-06
8.07608e-06
2.9709e-06
3.32806e-06
8.15419e-06
2.26742e-06
5.95365e-06
9.24711e-06
9.77428e-06
2.1261e-07
-8.35944e-06
-3.66642e-07
5.86245e-06
-9.08823e-06
-1.11866e-05
2.12108e-06
2.52706e-06
2.71126e-07
-8.53198e-06
-9.7181e-06
2.57259e-06
7.17646e-07
1.39618e-06
-9.67385e-06
-8.58027e-06
2.6585e-06
-3.71121e-07
3.60349e-06
-8.67902e-06
1.10959e-05
-3.11794e-05
-3.8606e-05
5.90081e-05
-0.000107664
-8.24144e-06
-4.18954e-05
6.72358e-07
3.08383e-05
-6.53576e-06
2.21624e-05
1.06084e-05
1.64251e-05
-3.74196e-05
1.14175e-05
-3.28389e-05
3.48295e-05
4.55817e-05
-9.37783e-05
1.09331e-05
-8.04814e-05
0.000117364
0.00014743
-0.000267633
2.21264e-05
-0.000225922
0.000345476
0.000425824
-0.000711607
5.91163e-05
-0.000596729
0.000900947
0.00110165
-0.00172696
0.000141905
-0.0014458
0.00208503
0.00255204
-0.00381212
0.000302706
-0.00319241
0.00428501
0.00528675
-0.00761893
0.000581459
-0.00636105
0.00779764
0.00976679
-0.0135501
0.00101822
-0.011152
0.0122171
0.015187
-0.00217121
0.0106437
-0.02657
-0.0271078
0.0518044
-0.00249778
-0.00263463
0.000299437
0.00288101
0.0157487
-0.00168573
0.00103882
-0.002234
0.0102615
-0.0269946
-0.0266576
0.0514838
-0.000762069
0.0122351
0.000850463
0.000492025
0.000197898
8.59729e-05
1.96025e-05
-4.35267e-06
-7.95963e-06
-5.611e-06
-2.74712e-06
-1.20743e-06
-5.7639e-07
7.48703e-06
-9.12418e-06
9.28668e-06
-7.31797e-06
3.14209e-07
7.19694e-06
-5.88948e-06
2.12407e-07
-6.32169e-06
4.25489e-08
-7.01957e-06
-1.14081e-07
6.06455e-06
1.18364e-07
5.61283e-06
-6.86635e-07
-6.60263e-06
-1.43488e-07
6.36989e-06
1.87355e-08
3.36853e-08
1.37298e-05
-3.32553e-05
3.34377e-05
-3.21105e-05
5.79851e-05
-9.81504e-05
0.000179662
-0.000295315
0.000506202
-0.00079812
0.00128894
-0.00193771
0.00296349
-0.00422539
0.00614296
-0.00824859
0.0114041
-0.0141659
0.0186192
-0.0115336
0.000317483
0.0117
0.000349501
-0.0181223
0.0138095
8.4724e-05
-0.0110486
0.00809556
4.48586e-05
-0.00594156
0.00416607
2.38266e-05
-0.00286072
0.00191629
1.1877e-05
-0.00124111
0.000791676
5.62997e-06
-0.000485674
0.000294181
2.55711e-06
-0.000171449
9.88841e-05
1.08481e-06
-5.49342e-05
1.62811e-07
5.538e-05
-9.81066e-05
-6.52496e-07
-5.75672e-05
3.23554e-05
-2.38054e-07
-1.3907e-05
-1.0701e-06
1.35856e-05
-3.46757e-05
5.37856e-05
-9.85897e-05
0.000167679
-0.000290135
0.00047976
-0.000776239
0.00123487
-0.00187115
0.00286505
-0.00405644
0.00600052
-0.00786265
0.0112565
-0.0133089
0.0183928
-0.0113925
-0.00307954
0.0046742
0.000487408
-0.0171504
0.0122673
5.28202e-05
-0.0101235
0.00737546
-7.02373e-05
-0.00525952
0.00374164
-6.54677e-05
-0.00251074
0.0016969
-4.00182e-05
-0.00109043
0.000695376
-2.22556e-05
-0.000427015
0.000257855
-1.12486e-05
-0.000150418
8.67368e-05
-5.41121e-06
-4.79442e-05
2.54623e-05
-7.92744e-07
-7.06752e-06
1.00881e-05
1.73237e-05
-5.79276e-06
-2.85665e-08
-3.78769e-06
1.2884e-05
-4.20221e-05
5.0711e-05
-0.000111666
-7.51493e-05
-9.63555e-05
1.12053e-05
3.61592e-05
4.06806e-05
-3.72537e-05
1.05716e-05
-3.14384e-05
-6.14689e-06
-1.84561e-06
-9.43767e-06
4.03872e-07
-6.64512e-07
-8.80542e-06
-5.00059e-06
-5.88768e-06
-3.363e-05
-3.68015e-05
4.24096e-05
-9.38886e-05
-1.6045e-05
0.000142193
-0.000267885
0.000417289
-0.000711556
-0.000106091
0.00108794
-0.00172607
0.00252743
-0.00380834
-0.000218226
0.00523325
-0.00757424
0.00960533
-0.0132678
0.00275938
0.00029691
-7.49513e-05
-4.62461e-05
-0.00018917
-0.00020599
0.00544951
-0.00778528
0.000639628
-0.0063082
0.00732232
0.0100864
-0.0133214
0.00120491
-0.0117237
0.0109033
0.0220071
-0.00109809
0.00172962
-0.0291888
-0.0272244
0.0496151
-0.00353087
0.00033088
0.000642073
-0.00982395
0.00170631
0.00436581
-0.00456729
0.000232293
0.00248945
-0.00218977
-2.45113e-05
0.0011264
-0.00102765
-3.4315e-05
0.000435225
-0.0004266
-2.71234e-05
0.000172106
-0.000158617
-1.68137e-05
6.16151e-05
-4.86371e-05
-8.93507e-06
2.68192e-05
7.181e-06
4.40567e-06
2.84987e-07
-2.7176e-07
2.60538e-05
-1.19546e-05
0.000173476
-0.000320661
0.00051714
-0.000860327
-0.000552834
-0.000731768
6.06304e-05
0.000341034
0.00042755
-0.000274801
2.2643e-05
-0.000207307
-3.67595e-05
-2.04951e-05
-7.78445e-06
-9.10876e-06
-1.6503e-05
3.41887e-06
-7.38067e-07
-2.10024e-05
-6.30027e-05
-1.64666e-05
1.34144e-05
1.37845e-05
1.26971e-05
5.08963e-06
2.92377e-05
7.03358e-06
2.44981e-05
4.69965e-05
-8.17835e-05
-0.000166407
-0.000393857
-0.000210993
0.00010296
-5.27887e-05
1.57593e-05
0.00015975
-0.000146028
0.00135439
-0.00209748
0.00316488
-0.00468066
-0.00304639
-0.00392857
0.000318026
0.00201805
0.00261569
-0.00177839
0.000146803
-0.0013554
-0.000144843
-6.1935e-05
-4.10293e-05
-4.46731e-05
-0.000103512
-1.03002e-05
-3.43818e-05
-4.56068e-05
-5.74605e-06
-1.33186e-05
6.64441e-05
5.10289e-06
-2.13858e-05
-2.36296e-06
1.56852e-06
1.2475e-07
-1.17201e-06
1.13958e-06
-1.77147e-05
-5.14705e-06
-3.69546e-06
-1.73838e-06
-7.36725e-07
9.91504e-05
9.89974e-08
-0.000178446
0.000173026
-0.000291556
-9.59526e-07
0.00029897
2.05706e-06
-0.00050283
0.000490988
-0.000783918
-2.40284e-07
0.000809512
7.83756e-06
-0.00128002
0.00125688
-0.00189602
3.96175e-06
0.00196886
2.30797e-05
-0.00294327
0.00290141
-0.00411997
1.71496e-05
0.00429997
5.26101e-05
-0.00610442
0.00602951
-0.00800685
4.86047e-05
0.00838531
6.38011e-05
-0.011329
0.0111823
-0.0136857
9.1642e-05
0.0142552
-9.27969e-05
-0.0184455
0.0181808
-0.0116077
-3.56479e-05
0.0115056
-0.00087441
-0.00223731
-0.00144498
-0.00280284
-0.0251917
0.00475819
0.00234732
-0.00182498
-0.00360806
-0.000822408
-0.0158344
0.00389011
-0.00850072
-0.0103547
-0.0011369
-0.00296825
-0.00415755
-0.00190067
-0.00104049
0.000451266
-0.000465602
-0.000874536
-0.00079364
-0.000354748
-0.00015236
-6.05769e-05
-1.60784e-05
1.67883e-05
1.21674e-05
1.33525e-05
1.52334e-05
2.51343e-05
2.43973e-05
1.44404e-05
1.46045e-05
1.13698e-05
-1.04513e-05
2.67475e-06
-1.20532e-06
-8.12219e-07
2.4299e-06
-9.09142e-06
-8.19247e-08
1.06825e-08
5.80406e-09
6.49991e-08
-5.68626e-06
-7.02236e-06
-7.05695e-06
-5.65062e-06
5.78965e-06
-3.67544e-06
5.93923e-07
7.27371e-06
-4.98464e-06
-4.92032e-06
6.20009e-07
7.16678e-06
6.44633e-08
1.66852e-07
1.75902e-07
1.47971e-07
-1.17844e-06
-4.58593e-07
-1.46657e-06
-2.55125e-06
-1.89309e-06
5.80963e-06
3.08764e-05
-4.02085e-05
-0.000101321
-0.000367605
6.37482e-05
-0.000183402
0.00071097
-0.000989029
0.00673217
-0.00944475
0.0131034
2.6715e-05
-0.00367999
-0.000815881
0.00103696
0.000108595
0.000632737
0.00084695
-0.0017299
-0.00369074
-0.00784449
-0.01889
-0.0195206
-0.0423102
-0.0155832
-0.0130629
-4.79346e-05
-0.00490222
0.0051651
-0.0391201
-0.0240972
-0.0119275
0.0167914
0.00136022
0.000670779
-0.0168832
0.0177789
0.000142524
-0.00223819
-0.0183602
0.0177931
3.39738e-05
-0.00248399
-0.017956
0.0177251
0.000117429
-0.00395556
-0.0171677
0.0126574
-0.0113917
0.0102057
0.00780373
0.0216718
-0.0102101
-0.00557329
0.0031428
0.0118629
-0.0345807
-0.0015612
-0.0199685
0.0206508
0.0203406
0.0182917
0.0232134
0.00975727
0.00115385
0.0081159
0.0115839
0.0176243
-0.00484242
0.00144142
0.00863534
-0.00427913
0.000128565
0.00436657
-0.0023317
3.53636e-05
0.00218397
-0.00105822
2.69116e-05
0.00101503
-0.000435948
1.56819e-05
0.00042826
-0.000164186
6.44684e-06
0.000160945
-6.00989e-05
7.38911e-08
5.16544e-05
-2.48402e-05
-6.5376e-06
6.64147e-06
-1.71372e-05
-1.01502e-05
7.17671e-06
-2.52619e-05
4.87888e-05
-8.57141e-05
5.61453e-06
-5.3474e-05
3.47455e-05
9.39364e-07
-1.34433e-05
1.13472e-06
1.39677e-05
-1.36347e-05
3.56773e-07
4.29962e-07
1.19674e-07
2.19177e-07
7.24788e-07
2.13334e-06
5.62714e-06
1.62923e-05
4.31092e-05
-0.00020409
-1.67342e-05
-8.61821e-05
0.000358682
-0.000368385
7.60391e-05
4.09314e-05
0.00022312
0.000234739
0.000876474
0.00112162
-0.000105876
-0.000594733
0.000904702
0.000141761
-0.00144418
0.00208731
0.000304042
-0.00320404
0.00427738
0.000587254
-0.00644415
0.00775652
0.00102096
-0.0114616
0.000883257
0.00120219
-0.00146276
-0.00147806
-0.00746578
-0.00348573
-0.00167801
-0.000784733
-0.000353806
-0.000153101
-6.11899e-05
-1.64701e-05
1.66166e-05
1.18408e-05
1.29227e-05
2.43692e-05
1.59074e-05
-1.66202e-05
-6.25788e-05
-0.000160016
-0.000372013
-0.000815879
-0.0017155
-0.00352742
-0.0073073
-0.0173623
-0.0180202
-0.0304425
-0.0256321
-0.00879385
-0.00870407
0.0151966
0.00153041
-0.00188899
-0.00149969
0.00687844
0.000210094
-0.00565751
-0.00539328
0.0054954
-1.53585e-05
-0.00618089
-0.00589795
0.0048581
9.59583e-06
-0.00768107
-0.00731868
0.00247487
-0.0112217
0.00810007
0.00787028
0.0082138
0.00720624
-0.00946177
0.000726629
0.00326058
-0.0111666
0.00246098
-0.0102321
0.0115469
-0.024228
-0.000864595
-0.0233294
0.0191152
0.0208436
0.0196603
0.019269
0.0201905
0.0191842
-0.0252886
-0.0010804
-0.0227918
0.0133539
0.0143495
0.0134112
0.0141766
-0.000878657
-0.0243365
-0.0241576
0.0115834
0.0196896
0.0186858
0.0173469
0.0216789
0.0219859
0.0168139
0.00465805
0.00939341
0.00404951
-0.00230854
0.00300203
0.000837
-0.00221805
0.00126147
0.000282317
-0.00133807
0.000659803
0.000165218
-0.000715721
0.000308791
7.61836e-05
-0.000336907
0.00014103
4.34974e-05
-0.000144485
5.19014e-05
1.43172e-05
-5.68119e-05
1.63716e-05
4.05727e-06
-2.22626e-05
1.52045e-06
-3.70147e-06
-1.22569e-05
-4.6994e-06
-1.22889e-05
-1.51915e-05
-1.37388e-05
-9.22896e-06
-5.90638e-06
-9.68497e-06
-1.96485e-07
8.31156e-06
-5.55655e-06
8.08664e-07
6.70973e-06
-6.47844e-06
2.98613e-07
6.79238e-06
-7.17681e-06
-4.5856e-07
-8.57463e-07
-1.49664e-05
-2.40258e-07
-3.40927e-05
7.83097e-08
-5.55745e-05
1.12526e-06
9.94586e-05
-9.91835e-05
6.36782e-07
-0.000167092
1.21912e-05
0.000291852
-0.000256942
2.19092e-05
0.000432617
2.53774e-05
-0.000692176
4.79446e-05
0.00109881
4.73126e-05
-0.00167863
9.57801e-05
0.00251026
6.44032e-05
-0.00365473
0.000167291
0.00515215
9.1035e-05
-0.00712471
0.000277265
0.00951244
9.65274e-06
-0.0123052
0.000506686
0.0156163
3.9524e-06
-0.000654098
-0.0195284
-0.0141729
0.000774727
0.0141629
-0.000312264
-0.0116927
-0.0081203
0.000573652
0.008427
-0.000166164
-0.0062942
-0.00433089
0.000323962
0.00436964
-9.002e-05
-0.00304097
-0.00208337
0.000174614
0.00202628
-3.75233e-05
-0.0013107
-0.000900411
8.53941e-05
0.000841344
-1.54842e-05
-0.000504683
-0.000348862
3.57658e-05
0.00031647
-4.12975e-06
-0.000170394
-0.000121249
1.35793e-05
0.000110667
4.4167e-07
-5.00456e-05
-3.6729e-05
5.96277e-06
4.16446e-05
3.87903e-06
-1.6351e-07
7.12177e-06
-1.01362e-05
-1.71347e-05
6.60311e-06
-6.61911e-06
5.57878e-06
1.79428e-05
-1.01848e-06
5.64611e-07
-1.401e-05
3.49299e-07
3.4087e-05
-3.25318e-05
7.1454e-07
-5.3619e-05
5.60166e-06
-8.64962e-05
8.94104e-06
0.000153061
1.5497e-05
3.8123e-06
2.16012e-06
1.32517e-06
5.83332e-05
1.41655e-06
-4.51788e-08
-5.87246e-06
1.80894e-07
7.27657e-06
2.32435e-07
1.31821e-07
5.62641e-08
-1.18885e-06
-1.40811e-06
-1.10505e-06
-8.56847e-06
-5.15567e-06
-5.70659e-06
-1.52252e-05
-1.49849e-05
-1.6182e-05
0.000143412
0.000118973
-1.42255e-05
3.65727e-05
1.11564e-05
1.00661e-05
3.72827e-05
1.08966e-05
-8.07573e-05
0.000120442
2.18746e-05
-0.00022532
0.00034921
5.86519e-05
-1.72369e-06
-3.95668e-05
-4.51715e-05
-8.57875e-05
-0.000151402
-0.000192657
-0.000156649
-8.80431e-05
-4.04413e-05
-4.49001e-05
-3.81967e-05
-1.45858e-05
-1.60401e-05
-7.80112e-05
0.000117409
0.000194728
-0.000310527
0.000556142
-0.00083318
-3.36723e-05
-0.000400649
7.12131e-07
0.000272236
-1.57934e-05
-0.000139505
-2.98006e-06
9.63881e-05
-1.84111e-05
-9.63204e-06
-0.000114845
-1.80112e-05
0.000172521
-0.000210059
-6.67477e-07
-0.000575065
-1.17365e-05
0.000893966
-0.000805142
2.22056e-08
-0.00127593
1.01231e-06
0.00194239
-0.00192031
1.10443e-06
-0.00284997
7.25644e-06
0.00412793
-0.00424074
-2.12197e-05
-0.00574694
0.000104781
0.00783996
-0.0105447
7.00264e-05
0.0135306
-0.0169381
-0.000104483
-0.000564566
-7.93183e-05
-6.69014e-06
2.3649e-05
2.27932e-05
1.49506e-05
8.04162e-06
3.53264e-06
1.4701e-06
6.68947e-07
-7.36211e-06
9.35538e-06
-9.10996e-06
-7.12703e-06
5.13348e-08
1.6273e-07
-1.08674e-06
2.21288e-07
6.18848e-06
-9.85141e-08
-1.33046e-07
-6.65855e-07
4.19879e-07
-8.61095e-07
-8.22763e-06
-4.81779e-06
-6.07426e-06
3.2685e-05
1.16294e-05
-2.04175e-06
-1.48018e-06
-1.27195e-06
-5.24004e-07
5.04419e-06
5.22656e-06
-4.17416e-07
3.78964e-06
7.56402e-06
-3.64216e-07
-7.70702e-07
-1.58557e-06
-7.68111e-06
-2.07614e-06
-7.67989e-06
4.10223e-05
1.55936e-07
-6.69939e-05
-2.48148e-06
0.000110459
-0.000102326
-1.34616e-06
-0.000179352
-6.0415e-07
-0.00029657
1.5056e-08
-0.000489838
4.66908e-06
0.000792891
-0.000806634
-1.04819e-06
-0.00121855
4.80199e-05
0.00187582
-0.00279536
7.77287e-05
0.00404999
5.82992e-06
1.07717e-05
8.2918e-06
4.83505e-06
2.20133e-06
1.3028e-06
1.70144e-07
5.59326e-08
-9.98865e-07
-2.79597e-06
-1.50677e-06
-2.34479e-06
-8.06489e-07
-9.8432e-07
5.256e-07
5.10811e-07
5.92376e-07
1.61832e-06
1.87104e-06
4.57806e-06
5.09832e-06
5.55101e-06
1.26514e-05
2.26362e-05
0.000100829
0.000181391
-0.000681728
6.81579e-05
-0.00124581
0.00310983
-0.0218623
-0.00620577
0.000306602
-0.00193717
0.0108921
-0.0106342
-0.0311156
-0.0125712
0.000101489
0.0033499
0.000456108
-0.0258413
-0.0115088
-0.00784211
0.0144721
0.00152243
-0.00163198
-0.00269883
0.00748601
0.000221338
-0.00528452
-0.0064693
0.00643742
2.38159e-06
-0.00578715
-0.00678325
0.00599384
4.97613e-05
-0.00743084
-0.00771878
0.00135148
-0.00041221
6.42484e-05
6.08149e-05
0.0136488
-0.0123835
0.000273086
0.00982602
-0.00024183
9.38412e-05
-0.0124049
0.00046559
-0.00763527
0.00994221
0.000329657
-0.0123422
-0.0217558
0.0145376
-0.00136622
0.00227402
0.00726379
-0.000326611
0.0183402
0.0132907
0.0148891
-0.0165479
0.000824259
-0.0139461
-0.000753848
-0.0154168
0.000953588
-0.0147743
-0.000759349
-0.0148566
0.000978216
-0.0158832
0.0138239
0.0135711
-0.000902109
-0.0297034
-0.0238335
0.0114783
-0.00826632
0.0120536
0.00701078
0.0082367
-0.0101127
0.00274331
0.00213399
-0.0114748
0.00416149
0.00752497
-0.0095715
0.0167368
-0.00897002
0.00146714
-0.00822451
0.00119346
-0.00881591
-0.00688225
0.00109477
-0.000576932
-8.05264e-05
-3.71293e-05
1.58855e-05
3.43947e-05
2.70348e-05
1.63751e-05
8.44733e-06
3.64059e-06
1.48982e-06
6.85409e-07
-3.73569e-06
5.89425e-06
1.91565e-07
1.20503e-06
8.30243e-07
7.25972e-07
-5.56779e-06
4.30699e-07
9.22612e-06
-5.71956e-06
-2.47729e-06
9.10282e-06
-5.91502e-06
-9.29681e-06
-9.74879e-06
9.51865e-06
8.382e-06
-1.77898e-07
-3.8568e-07
-2.35049e-06
6.40951e-07
8.88492e-06
-1.75612e-08
-8.10484e-07
-2.31405e-06
9.78149e-06
9.84941e-06
-8.87975e-07
5.77851e-08
1.05531e-05
-2.79523e-06
-8.46958e-06
-2.83634e-06
8.74541e-06
5.40544e-06
5.14521e-06
1.96793e-06
3.63374e-06
5.74657e-06
1.81923e-05
-1.0192e-06
1.37064e-06
2.47742e-07
-3.408e-07
-1.89325e-06
-6.03638e-06
-1.7127e-05
-4.43835e-05
-0.000100587
1.86731e-05
-4.158e-05
0.000130217
-0.000664543
-0.000135719
0.000957385
-0.00148702
-0.000453973
-0.000486356
-0.0152534
0.0146443
-0.000446956
-0.000334216
0.00106435
-0.000829481
-0.000378827
0.00273405
0.0046884
0.00254877
0.0126752
-0.00560343
0.00186277
0.0111916
0.0119923
-0.00288651
0.00143652
-0.000133739
0.00072032
-0.000177298
4.16075e-05
-0.00109245
-6.90025e-06
5.53214e-05
1.25058e-05
-3.74533e-07
-2.40049e-06
2.00871e-06
-3.48323e-07
1.98443e-06
1.12382e-06
2.21118e-06
1.75944e-05
4.73076e-05
0.000108707
0.00022136
0.000407947
0.000736798
0.000299693
8.27025e-05
0.000177211
8.89969e-05
3.1412e-05
9.59305e-06
8.79279e-06
3.94644e-06
7.85472e-06
4.11031e-06
-0.000166369
0.00015242
-0.000254144
0.000429672
-0.000684889
2.6397e-05
-0.000473783
0.000290958
1.23144e-05
4.8116e-06
2.35783e-06
9.74175e-07
9.89276e-05
1.42989e-06
-3.35143e-08
6.64203e-06
7.4933e-07
1.37508e-06
2.72871e-06
-1.89763e-06
1.12695e-05
8.65784e-06
-2.55981e-06
1.38426e-06
8.07173e-09
-9.48763e-08
3.96381e-06
-4.02294e-07
-8.92952e-08
2.75706e-06
-1.0377e-05
2.42093e-06
1.83069e-07
1.23919e-06
8.59703e-07
8.61027e-08
-3.84756e-07
6.56617e-07
1.01587e-06
-2.56501e-06
-2.36146e-06
1.13121e-05
-2.54711e-06
-5.66133e-06
-1.95157e-06
9.19469e-06
4.35223e-07
2.67848e-06
1.90985e-06
1.54338e-06
6.31743e-07
1.54082e-06
1.93783e-06
1.53306e-05
8.09041e-06
8.97299e-06
2.18697e-05
2.2015e-05
5.40453e-06
1.42143e-06
1.0321e-05
1.71823e-06
0.000778837
-0.00121454
0.00109262
-0.00166689
0.00250767
-0.00365534
0.000104969
-0.00280384
0.00187843
5.40936e-05
1.18774e-05
4.76902e-05
4.83238e-05
9.13652e-05
9.24002e-05
1.73035e-05
5.77175e-07
1.1175e-05
1.17901e-05
2.2377e-05
2.0872e-05
3.10251e-05
7.5536e-05
0.000141572
1.92849e-05
0.000502316
9.32496e-05
2.51298e-05
1.52486e-06
-3.94232e-06
-3.40368e-06
-1.07627e-06
-1.42781e-06
1.62062e-06
-6.65402e-07
-1.56429e-06
4.44513e-06
3.06121e-06
9.58837e-07
-8.83774e-06
-5.98622e-06
-2.50018e-06
-2.55425e-06
-1.52729e-06
4.69574e-07
1.38964e-06
3.64506e-06
8.26048e-06
1.05959e-05
1.52052e-05
1.11364e-05
2.03686e-05
4.12512e-05
3.57189e-05
2.6958e-05
7.19233e-05
0.000224286
7.34724e-05
6.7459e-05
0.00325164
-0.000502862
0.000394019
5.72656e-05
0.000194698
0.0067692
-0.000235488
-0.000968958
0.00587193
0.00216719
-0.0257265
-0.00958562
-0.0147255
0.0154507
-0.0112236
-0.012056
0.0140309
-0.01578
-0.000839599
-0.00117639
-0.0161226
0.0145743
-6.27926e-05
-0.000657862
6.26451e-06
0.000282692
0.00037381
0.00619447
0.00228562
-0.0111457
-0.0106445
0.0169272
0.00146653
-0.00396851
-0.00122121
0.00644083
0.000150592
-0.0075792
-0.00491891
0.00492307
-1.68011e-05
-0.00786511
-0.00539384
0.00433028
-3.23619e-05
0.0069098
0.00672826
0.00037479
0.00997093
-0.00980304
9.40797e-05
-0.00731872
-6.64337e-05
-0.000114314
-1.67463e-05
6.39406e-06
1.00664e-05
6.31775e-06
2.98317e-06
1.19708e-06
4.11592e-07
-1.12812e-06
-3.23367e-06
2.36468e-05
-0.000220297
0.000349495
6.15811e-05
-0.000585386
0.000911941
0.00142262
-0.00203131
0.00327002
-0.00449576
-0.00011935
-0.00243519
5.43352e-05
0.00174835
-6.85159e-05
-0.00103746
1.33943e-05
0.000723569
-0.000156087
-0.000109529
-0.000846161
-8.73107e-05
0.00115039
-0.00136323
1.41474e-05
-0.0033161
-2.30818e-05
0.00475376
-0.00417635
1.81681e-05
-0.00593381
1.85985e-05
-0.00804495
-1.58575e-05
-0.0106637
-3.40175e-05
0.0136802
-0.0142168
-1.9951e-05
0.0173191
-3.64668e-05
-0.0170288
0.0169605
-5.25162e-05
-0.0138433
0.014005
-0.0171786
-8.08955e-06
2.0049e-05
0.000103514
6.20038e-05
1.94719e-05
1.43437e-06
-3.08709e-06
-2.83539e-06
-1.94018e-05
-4.00535e-05
-8.29816e-05
-0.000101926
-0.000148932
-0.000188015
-0.00142151
0.00210948
0.000308449
-0.00314129
0.00433838
0.00675259
-0.00904317
0.012482
-0.0162414
0.000186233
-0.0109821
0.00109423
0.00750732
-0.000142378
-0.00529858
0.000229984
0.00382724
-0.000626083
-0.00037231
-0.0039417
-0.000169992
0.00526388
-0.00589014
0.000108555
-0.0124236
4.12005e-05
0.0161827
-0.0138378
-2.41364e-05
0.0171924
0.000105694
-0.0196506
0.0115761
3.2973e-05
-0.0105935
0.0090345
-0.0134488
0.000211378
-0.00290367
-0.00141638
-0.0023212
-0.00378638
0.0125796
-0.0216067
0.00455347
-0.00601575
-0.00269213
-0.00129316
-0.00062673
-0.000288307
-0.000121251
-4.34133e-05
-4.97678e-06
4.84084e-05
1.80926e-05
-9.11817e-06
6.36263e-06
6.98805e-07
2.96429e-05
-2.80837e-05
2.03175e-05
-1.53674e-06
-1.44506e-05
-2.04783e-08
3.47231e-05
-3.56826e-05
-9.64688e-07
-5.83421e-05
-3.6495e-07
-9.97594e-05
-5.79801e-08
-0.00017312
2.51275e-06
0.000295351
-0.000298651
3.92556e-07
-0.000476213
2.49708e-05
0.000780424
6.61722e-06
2.78308e-06
0.000508739
2.04834e-06
0.000180819
-2.87492e-07
-1.16581e-06
-1.14856e-06
-2.14209e-06
-5.94538e-07
1.40444e-05
2.33757e-07
-4.63829e-07
5.14218e-06
9.31905e-06
-3.15055e-05
-7.08351e-06
-7.13273e-05
-6.50694e-07
-0.000205364
-6.01581e-06
0.000330246
-0.000301157
-1.40204e-06
-0.000503767
-5.94297e-07
-0.000796408
5.34893e-07
-0.00124676
7.1631e-06
0.0019107
-0.00195317
-6.58041e-06
0.00293542
-1.31565e-06
2.76744e-06
0.00128908
-4.13218e-07
3.27307e-06
-1.92758e-07
-2.35479e-06
0.000172824
-2.21257e-06
5.57666e-05
2.86248e-06
-8.93132e-06
6.13782e-05
-7.14269e-06
6.814e-06
-2.93968e-05
0.000121149
-2.42829e-05
-4.3816e-05
-0.000332873
-4.24467e-05
-0.00056438
2.37865e-06
-0.00145522
-1.9223e-05
0.0021749
-0.00193552
5.86156e-06
-0.00290606
6.82217e-06
-0.00415303
-1.33596e-06
-0.00583717
-2.85647e-06
0.00798008
-0.00824362
-4.48005e-05
0.010908
-1.99833e-05
1.07362e-06
1.05514e-05
1.31586e-05
2.45413e-05
1.59208e-05
8.49282e-06
3.63601e-06
3.14689e-06
2.99601e-06
6.47875e-06
8.37832e-06
4.10271e-05
9.27625e-05
0.000182556
1.11427e-05
2.08639e-05
1.25866e-05
1.17572e-05
6.52351e-06
5.53426e-06
3.78523e-06
-2.0373e-05
-0.000131506
1.58778e-05
-0.00012834
0.000249728
4.46474e-05
-0.000376773
-0.000386522
0.000254351
0.000236907
4.39517e-05
-0.000360574
-0.000411576
0.000269384
-0.000138371
1.55948e-05
-0.000124396
8.48116e-05
8.97787e-05
8.85582e-05
8.56056e-05
1.57978e-05
-0.000135412
-0.000127283
-2.0401e-05
0.000240417
4.43185e-05
-0.000402828
-0.000369735
-5.46638e-05
0.000630028
0.000108539
-0.0010554
-0.00096004
-0.000983486
-0.00100883
0.000110292
0.000654229
0.000667646
-5.43877e-05
0.000619394
0.000108276
-0.000935858
-0.00107779
0.000710288
-5.66962e-05
-0.000340977
-0.000509253
3.48429e-05
0.000213807
-2.14719e-05
-0.000118739
-0.000172498
1.3039e-05
7.78095e-05
9.48619e-05
-3.92924e-05
5.73783e-06
-3.85728e-05
-1.03995e-05
-3.92297e-05
5.71939e-06
-3.84356e-05
-1.03948e-05
-3.9275e-05
5.81981e-06
-3.85241e-05
9.34951e-05
7.82215e-05
-1.08715e-05
-1.06155e-05
1.67139e-05
-1.64465e-05
-1.22667e-05
-1.29405e-05
-1.47079e-05
-1.39631e-05
-1.41015e-05
-1.28814e-05
-1.68864e-05
-2.43316e-05
-1.45879e-05
-1.30557e-05
-1.22815e-05
-8.12703e-06
-2.21633e-06
-3.29034e-06
1.05535e-05
-1.11532e-05
3.46588e-05
3.53868e-05
3.51605e-05
3.47482e-05
3.63785e-05
3.19909e-05
-1.03897e-05
9.11091e-06
-2.16937e-06
-8.10092e-06
-3.31868e-06
8.86016e-06
5.14808e-06
1.53045e-05
1.56454e-05
4.19546e-05
9.46715e-05
4.11338e-06
-0.000130533
0.0015888
0.000231698
-0.00228682
-0.00234602
-0.00216923
-0.00251074
0.000226268
0.00147545
0.00169581
-0.000134543
-0.00087958
-0.00132506
8.41161e-05
0.000562647
0.000848022
-1.30041e-05
5.81464e-05
-0.000148066
4.09394e-05
0.00014913
-0.000349179
8.51349e-05
0.000348246
-0.000728727
0.000183652
0.000818995
-0.00127715
0.000565613
0.0022881
-2.13457e-05
0.00177674
-0.000597556
0.000855205
-0.000399842
0.000443268
-0.000206471
0.000214041
-9.34573e-05
9.13983e-05
1.64791e-05
-5.72062e-05
0.000318635
-3.64687e-06
1.8555e-05
-2.23311e-05
4.47951e-06
2.79156e-05
-4.04392e-05
-2.17502e-05
2.31771e-06
6.22409e-07
-5.07353e-05
5.78366e-06
-3.61308e-05
-1.08891e-05
-1.05669e-05
1.79355e-05
-1.25609e-05
-1.38009e-05
-1.5145e-05
-1.2381e-05
-4.64693e-06
-1.24119e-05
-3.61919e-06
-4.67621e-06
-2.88922e-05
3.97568e-06
4.19254e-05
3.20283e-05
3.66801e-05
-1.0404e-05
-2.50207e-05
-1.64284e-05
1.69275e-05
6.34047e-05
6.68935e-05
0.000170988
0.000385428
0.000784633
0.000173195
-0.00203218
-0.00308565
0.00204316
0.0013522
-0.00021901
-9.38825e-05
-3.42532e-05
-3.05698e-05
0.000155568
0.000342143
0.000682679
-0.000443772
-0.000281169
0.00363805
0.000412306
-0.00449345
-0.00523648
-0.00418705
-0.00648567
0.000309402
0.00294345
0.00443881
-5.70047e-05
8.87038e-05
3.37064e-05
2.01941e-05
4.33111e-05
8.23915e-05
-0.00583392
0.00520745
-0.00719085
0.000152781
0.000261324
0.000157916
0.000145275
2.4615e-05
-4.17163e-06
0.00407683
2.8196e-05
-6.46696e-06
0.0079364
0.000188662
-4.99019e-06
0.000314051
0.000469147
-7.61719e-05
8.01743e-06
2.5283e-05
1.20774e-05
1.68522e-05
-8.28457e-06
2.58388e-05
1.46968e-05
1.66697e-05
-6.1869e-06
6.5794e-06
5.27794e-06
-2.06087e-06
-1.95369e-06
-1.26539e-06
-4.24069e-06
-1.14512e-06
0.000145734
0.000264591
0.000115741
9.02708e-05
9.06948e-05
0.000100353
3.27219e-05
3.28515e-05
1.01183e-05
1.52913e-05
2.78136e-05
4.44012e-05
0.000213192
0.000211166
0.000422018
0.000427197
0.000480252
0.000702903
0.000698448
0.000896146
0.000527796
-0.00626422
0.00791248
0.00105685
-0.0108863
0.00118676
0.000927074
-0.00142609
-0.00212022
-0.0205628
-0.022343
-0.0378921
0.00965408
0.00297501
0.0170081
-0.00624516
0.0104085
-0.00112457
-0.0115923
0.0105874
-0.000225076
0.00682912
-0.000256755
0.00993763
-0.0108943
-0.000867485
-0.000266169
-0.000304009
0.00013985
-0.00106913
0.00703712
-0.000273821
0.000467576
0.000202683
8.51483e-05
0.000113068
3.597e-05
3.21965e-05
-0.00020184
-0.000197443
-0.000219687
-9.06897e-05
0.000187941
-6.98922e-06
-8.17828e-05
-6.82394e-05
0.00201083
-0.00297067
4.73411e-05
-0.00679152
-7.56997e-06
0.00932599
-0.00806902
2.73218e-05
-0.0108069
2.49862e-05
0.0106981
-9.53871e-07
6.00793e-06
7.16511e-06
1.58564e-05
6.62893e-05
0.000594905
0.000104746
2.8526e-05
7.68906e-06
-3.07989e-07
4.2755e-07
2.1939e-06
8.98092e-07
3.10333e-07
0.000175266
-2.87975e-07
0.000297179
-2.99899e-07
9.89607e-05
5.63328e-05
-1.19651e-07
3.33034e-05
1.43743e-05
3.58351e-07
-4.62398e-08
-1.04215e-07
3.33426e-07
-1.92337e-06
0.000490801
1.68094e-05
-7.16292e-05
0.000466031
-5.84666e-05
4.08297e-05
-0.000154451
0.000874752
-0.000115748
-0.000222031
-0.00192695
-0.000145138
0.00258706
-0.000297981
-0.000205701
0.000187386
9.22684e-05
2.48354e-06
0.00125481
2.9801e-06
0.00125951
1.25092e-05
2.07208e-05
0.00288062
1.07536e-05
0.004213
2.93934e-05
7.73363e-05
0.00592501
-0.00056
0.0041433
-0.00042806
-0.000631257
-0.00748155
-4.49385e-05
0.00757015
-0.00116904
0.000294647
-2.93895e-05
-0.00180697
-0.00513948
-0.000170287
-0.000813565
-0.000328638
0.000203786
0.000197534
0.0108526
4.35996e-05
1.42926e-05
-3.07278e-05
-7.74623e-05
-0.000302113
-6.39004e-06
4.16714e-05
2.69102e-05
0.00816854
0.00587941
-6.53112e-06
-1.22917e-06
-2.69993e-05
-8.08923e-05
-0.00012084
-0.000549067
-0.000180175
-0.000153244
-6.29277e-05
-1.77479e-05
0.00599095
-1.04049e-05
8.0189e-06
8.89143e-06
0.000108711
4.70187e-05
1.74474e-05
3.35199e-08
3.39991e-06
0.000221496
0.000404044
0.000693456
-3.30624e-05
0.000314073
0.000213252
-0.00044342
0.0021954
0.00519353
-0.00345878
0.0217098
0.00281281
0.00199723
0.00121545
0.00144471
0.00112837
0.000670541
0.000339328
0.000154343
6.27834e-05
6.3348e-05
1.70328e-05
-9.50561e-06
-9.53768e-06
-2.43017e-05
-1.115e-05
-2.49286e-05
-1.25509e-05
1.76424e-05
6.60915e-05
-3.44094e-05
-2.15679e-05
0.000216214
0.000264712
4.08165e-05
3.67659e-06
3.00585e-06
1.5046e-06
2.72855e-06
4.62541e-06
8.06573e-06
1.96539e-06
9.43419e-06
4.87854e-05
7.96898e-06
2.1696e-05
7.45843e-06
5.17989e-06
6.03837e-06
5.38034e-06
8.97683e-06
1.03271e-05
3.02327e-06
9.18916e-05
0.000180012
0.00018575
0.0003185
-5.15711e-05
-0.000520164
-0.00488606
0.000428615
-0.00475214
0.00627006
0.00073194
-0.00883703
-0.00914269
0.00645194
0.00603853
0.000677564
-0.00832965
-0.0098151
0.00692948
-0.000526741
0.00577255
0.00864446
-5.21294e-05
0.000100365
-0.000800832
0.00143252
0.00231073
0.0031822
0.00480248
0.00472767
0.0121394
0.0283668
0.00435241
0.0149436
0.0221665
-0.00230989
-0.00133035
0.00165516
0.00118703
-0.000721805
-0.000402762
0.00316578
0.00339677
0.00331814
0.0032153
0.000421114
-0.00510681
-0.00464088
-0.000525444
0.0061355
0.000728129
-0.00950077
-0.00871225
-0.000893292
0.0102759
0.0109617
0.00971649
-0.000878677
-0.000128169
-0.00019751
-7.76067e-06
1.56445e-05
7.43446e-05
1.4446e-05
1.51034e-05
-2.51402e-05
-1.04873e-05
-0.000202713
0.00205536
-0.00023453
-0.000138052
-0.000301121
-0.000297455
-0.000188172
-0.000314653
-0.000142074
0.00532932
-0.00018012
8.4126e-05
2.25526e-05
9.92871e-06
0.000171114
0.00015018
-0.00259911
0.0124858
-0.00699868
-0.0237564
-0.0267601
0.00248948
-0.0129775
0.0055986
0.00184711
-0.00805969
-0.00910733
-0.000842219
-0.00123138
0.00812143
0.00756539
-0.000779823
-0.00743945
-0.000170812
0.00735019
-1.54033e-05
6.68008e-05
-3.64615e-06
6.29216e-05
0.000264009
0.000273041
0.000173701
3.90924e-05
2.23783e-05
-4.02781e-05
-4.09966e-05
4.11607e-06
-5.87904e-05
-1.13416e-05
1.61613e-06
0.000309812
0.000471877
0.000475195
-0.000184424
0.000637122
0.000492911