/*--------------------------------*- C++ -*----------------------------------*\
| =========                 |                                                 |
| \\      /  F ield         | OpenFOAM: The Open Source CFD Toolbox           |
|  \\    /   O peration     | Version:  2306                                  |
|   \\  /    A nd           | Website:  www.openfoam.com                      |
|    \\/     M anipulation  |                                                 |
\*---------------------------------------------------------------------------*/
FoamFile
{
    version     2.0;
    format      ascii;
    arch        "LSB;label=32;scalar=64";
    class       volScalarField;
    location    "0.7";
    object      mag(U);
}
// * * * * * * * * * * * * * * * * * * * * * * * * * * * * * * * * * * * * * //

dimensions      [0 1 -1 0 0 0 0];

internalField   nonuniform List<scalar> 
1681
(
8.02269e-05
0.000158882
0.000157429
5.21116e-05
0.000272442
0.0006851
0.00121273
0.00182987
0.00251168
0.00323413
0.0039745
0.00471164
0.00542617
0.00610052
0.006719
0.00726783
0.00773512
0.0081109
0.00838714
0.00855782
0.00861898
0.00856876
0.0084075
0.00813783
0.0077647
0.00729554
0.00674018
0.00611094
0.00542258
0.00469216
0.003939
0.00318436
0.00245121
0.0017638
0.00114711
0.000626218
0.000226584
6.9882e-05
0.000173758
0.000163506
7.96158e-05
0.000160289
0.000109138
0.000208585
0.000800698
0.00169719
0.00288798
0.00433867
0.00600111
0.00782055
0.00974014
0.0117037
0.0136576
0.0155515
0.0173392
0.018979
0.0204341
0.0216728
0.0226681
0.0233987
0.0238487
0.0240074
0.0238705
0.0234392
0.022721
0.0217297
0.0204854
0.0190145
0.0173499
0.0155306
0.0136015
0.0116124
0.00961754
0.00767461
0.00584283
0.00418089
0.00274372
0.00157769
0.000713469
0.000157026
0.000134216
0.000164309
0.000162983
0.000201516
0.00101751
0.00223521
0.00383907
0.00581287
0.00811924
0.010702
0.0134923
0.0164149
0.0193921
0.0223477
0.0252088
0.0279075
0.0303817
0.0325765
0.0344438
0.0359436
0.0370433
0.0377192
0.0379558
0.0377464
0.0370935
0.0360088
0.0345132
0.0326377
0.0304219
0.027915
0.025175
0.0222676
0.0192655
0.0162464
0.0132918
0.0104826
0.0078966
0.00560289
0.00365582
0.00208921
0.000914945
0.00014627
0.000179224
5.56464e-05
0.000789943
0.0022405
0.0041849
0.00656391
0.00934157
0.0124728
0.015897
0.0195401
0.0233185
0.0271435
0.0309255
0.0345769
0.0380149
0.0411637
0.0439543
0.046327
0.0482313
0.0496268
0.0504835
0.0507821
0.0505147
0.0496846
0.0483068
0.0464085
0.0440277
0.0412148
0.0380308
0.0345469
0.0308435
0.027008
0.0231331
0.0193134
0.0156417
0.0122046
0.00907728
0.00631985
0.00397614
0.00208051
0.000689707
8.08667e-05
0.000248308
0.00169736
0.00388773
0.00663227
0.00983136
0.013426
0.01736
0.0215681
0.0259747
0.0304936
0.0350325
0.0394959
0.0437889
0.0478205
0.0515059
0.0547679
0.0575387
0.059761
0.0613889
0.0623879
0.0627365
0.0624256
0.0614593
0.0598553
0.0576442
0.0548698
0.0515889
0.0478699
0.0437923
0.0394445
0.034922
0.0303245
0.0257523
0.0213025
0.0170645
0.0131175
0.00952858
0.00635609
0.00366091
0.00154287
0.000189745
0.000660633
0.00293711
0.00598012
0.00959326
0.0136494
0.0180701
0.0227875
0.0277326
0.0328295
0.0379938
0.0431344
0.048156
0.0529626
0.0574607
0.0615621
0.0651857
0.0682599
0.0707238
0.0725282
0.0736366
0.0740258
0.0736863
0.0726227
0.0708537
0.0684121
0.0653447
0.0617107
0.0575822
0.0530413
0.048179
0.0430925
0.0378822
0.0326479
0.0274861
0.0224862
0.0177297
0.0132918
0.00924631
0.00567831
0.00271973
0.000571742
0.00120877
0.0045068
0.0085283
0.0130851
0.0180372
0.0232936
0.0287785
0.0344203
0.0401449
0.0458726
0.0515179
0.0569902
0.0621978
0.0670498
0.0714594
0.0753462
0.0786388
0.0812756
0.0832071
0.0843961
0.0848189
0.0844661
0.0833422
0.081466
0.0788704
0.0756018
0.0717195
0.0672941
0.0624059
0.0571432
0.0515991
0.0458693
0.040049
0.0342298
0.0284989
0.0229393
0.017633
0.0126675
0.00814618
0.0042197
0.00108664
0.00188239
0.0063974
0.0115336
0.0171194
0.0230138
0.0291209
0.0353621
0.041666
0.0479634
0.054182
0.0602452
0.0660717
0.0715784
0.0766817
0.0813013
0.0853615
0.0887945
0.0915415
0.0935548
0.0947987
0.0952502
0.0948998
0.0937516
0.0918234
0.0891459
0.085763
0.0817297
0.0771113
0.0719819
0.0664218
0.0605153
0.054349
0.0480085
0.0415785
0.0351409
0.0287785
0.0225782
0.0166372
0.0110702
0.00603623
0.00172385
0.00267395
0.00859855
0.0149925
0.021703
0.0285953
0.0355758
0.0425682
0.0495058
0.0563272
0.0629707
0.0693722
0.0754638
0.0811749
0.0864341
0.0911714
0.0953202
0.0988201
0.101618
0.103671
0.104947
0.105422
0.105091
0.103954
0.102027
0.0993386
0.0959246
0.0918334
0.0871211
0.0818505
0.0760895
0.0699089
0.0633817
0.0565807
0.0495795
0.0424533
0.0352814
0.0281528
0.0211696
0.0144525
0.00816244
0.00247679
0.00357804
0.0111015
0.0189002
0.0268389
0.0347937
0.0426784
0.050424
0.0579726
0.0652745
0.0722821
0.0789473
0.0852192
0.0910445
0.0963678
0.101134
0.105289
0.108785
0.111577
0.113629
0.114913
0.11541
0.115113
0.114024
0.112153
0.109522
0.106159
0.102102
0.0973925
0.092078
0.0862095
0.0798396
0.0730231
0.0658166
0.0582796
0.0504765
0.0424811
0.0343805
0.0262779
0.0182958
0.0105942
0.00334155
0.00459124
0.0139
0.0232528
0.0325292
0.0416182
0.050445
0.058952
0.0670942
0.0748372
0.0821516
0.089009
0.0953793
0.10123
0.106527
0.111234
0.115315
0.118736
0.121463
0.123473
0.124743
0.125259
0.125015
0.124009
0.122248
0.119744
0.116516
0.112585
0.107976
0.102715
0.096832
0.0903566
0.0833215
0.0757625
0.0677213
0.0592487
0.0504091
0.0412845
0.0319761
0.0226057
0.0133311
0.00431682
0.00571194
0.0169912
0.0280485
0.0387762
0.0490765
0.0588885
0.0681696
0.0768918
0.0850398
0.0926057
0.0995848
0.105972
0.111761
0.116941
0.1215
0.125422
0.128694
0.131299
0.133223
0.134456
0.134987
0.134811
0.133926
0.132331
0.130029
0.12702
0.123311
0.118902
0.113795
0.107993
0.101498
0.0943156
0.0864572
0.0779425
0.0688049
0.0590958
0.0488892
0.0382813
0.027392
0.016378
0.00540369
0.00694013
0.0203752
0.0332888
0.0455836
0.0571753
0.0680191
0.07809
0.0873805
0.0958981
0.10366
0.11069
0.117012
0.122647
0.127617
0.131936
0.135614
0.138661
0.14108
0.142874
0.144042
0.144583
0.144493
0.143767
0.142396
0.140369
0.137671
0.134282
0.130179
0.125331
0.11971
0.113286
0.106033
0.0979311
0.0889752
0.0791769
0.0685711
0.0572204
0.0452144
0.0326698
0.0197441
0.00660557
0.00827717
0.0240548
0.0389779
0.0529571
0.0659219
0.0778446
0.0887213
0.0985681
0.107419
0.115321
0.122328
0.128497
0.133886
0.138547
0.142528
0.145871
0.148611
0.150777
0.15239
0.153464
0.154007
0.154019
0.15349
0.152405
0.150733
0.14844
0.145479
0.141791
0.137316
0.131985
0.12573
0.118488
0.110205
0.100845
0.0903936
0.0788648
0.0663069
0.0528008
0.0384597
0.0234432
0.00792793
0.00972564
0.0280359
0.0451229
0.0609044
0.0753233
0.0883712
0.100067
0.110455
0.119599
0.127578
0.134484
0.140409
0.145451
0.149698
0.153237
0.156146
0.15849
0.160329
0.161705
0.162652
0.163187
0.163316
0.163025
0.162287
0.161055
0.159268
0.156847
0.153697
0.149717
0.144795
0.138818
0.131681
0.12329
0.113571
0.10248
0.0900063
0.0761796
0.0610702
0.0447871
0.0274936
0.00937825
0.0112893
0.0323266
0.0517342
0.0694352
0.0853872
0.0996027
0.112127
0.123034
0.132424
0.140412
0.14713
0.152711
0.157296
0.161017
0.164002
0.166367
0.168219
0.169647
0.170723
0.171502
0.172015
0.172274
0.172262
0.171937
0.171234
0.170062
0.168304
0.165825
0.162475
0.158093
0.152518
0.145594
0.137181
0.127162
0.115456
0.102024
0.0868719
0.0700568
0.0516829
0.031918
0.0109658
0.0129727
0.0369374
0.0588241
0.0785612
0.0961213
0.111541
0.124894
0.136291
0.145867
0.153786
0.160217
0.165345
0.169353
0.172422
0.174728
0.176433
0.177683
0.178608
0.179312
0.179876
0.180348
0.180747
0.181052
0.181212
0.181133
0.180692
0.179731
0.178068
0.175498
0.171806
0.166774
0.16019
0.151858
0.141616
0.129336
0.114943
0.0984181
0.0797984
0.0591823
0.036743
0.012702
0.014782
0.0418813
0.0664083
0.0882959
0.107533
0.124184
0.138355
0.150196
0.15989
0.167642
0.173676
0.178225
0.181523
0.183805
0.185295
0.186207
0.186735
0.187052
0.187302
0.187593
0.187998
0.188544
0.189208
0.189922
0.19057
0.190985
0.190969
0.190279
0.188658
0.185825
0.181498
0.175403
0.167283
0.156917
0.144125
0.128788
0.110853
0.0903361
0.0673252
0.0419992
0.0145997
0.0167243
0.0471744
0.0745056
0.0986548
0.11963
0.137525
0.152488
0.164713
0.174434
0.181908
0.187414
0.191241
0.193681
0.195021
0.195545
0.195517
0.195188
0.194779
0.194478
0.194431
0.194735
0.195429
0.196491
0.197835
0.199315
0.200725
0.201809
0.202271
0.201785
0.200002
0.19657
0.191142
0.183391
0.173029
0.159814
0.143574
0.12421
0.101713
0.0761561
0.0477215
0.0166739
0.0188083
0.052836
0.083138
0.109655
0.132418
0.151556
0.167263
0.179788
0.18942
0.196481
0.201308
0.204251
0.205662
0.205891
0.205279
0.204151
0.202814
0.201545
0.200584
0.200119
0.200278
0.201117
0.202614
0.204665
0.207091
0.209638
0.211997
0.213804
0.214661
0.214146
0.211827
0.207277
0.20009
0.189895
0.176381
0.159305
0.138521
0.113975
0.0857229
0.0539492
0.0189418
0.0210447
0.0588895
0.0923322
0.121318
0.145902
0.166258
0.182636
0.195347
0.204749
0.211231
0.2152
0.217073
0.217266
0.216192
0.214257
0.211848
0.209335
0.207057
0.205311
0.204335
0.204294
0.205267
0.207233
0.21007
0.21356
0.217403
0.221221
0.224583
0.227014
0.228011
0.227057
0.223634
0.217245
0.207427
0.193779
0.175979
0.153809
0.127167
0.0960785
0.0607261
0.0214233
0.0234468
0.0653645
0.10212
0.133664
0.160084
0.181605
0.198547
0.211295
0.220287
0.225992
0.228894
0.229482
0.228242
0.225656
0.222191
0.218303
0.214429
0.210973
0.208298
0.206701
0.206394
0.207482
0.209947
0.213648
0.218329
0.22363
0.229106
0.234252
0.238511
0.241294
0.241991
0.239987
0.234678
0.225498
0.211935
0.193569
0.170092
0.141334
0.107279
0.0681019
0.0241407
0.0260319
0.0722975
0.112544
0.146723
0.174965
0.197561
0.214915
0.227506
0.235865
0.240553
0.242141
0.2412
0.238289
0.233955
0.228738
0.223156
0.217715
0.212894
0.209127
0.206783
0.206127
0.207299
0.210291
0.214939
0.22094
0.227871
0.235216
0.242389
0.24875
0.253621
0.256292
0.256043
0.252155
0.243934
0.23074
0.212027
0.187374
0.156519
0.119387
0.0761328
0.0271204
0.0288217
0.0797357
0.12365
0.160524
0.190539
0.214073
0.231633
0.243816
0.251264
0.25465
0.25464
0.251892
0.247044
0.240712
0.233499
0.225992
0.218763
0.212369
0.207326
0.204084
0.20298
0.204197
0.207739
0.213416
0.220873
0.229614
0.239047
0.248502
0.257257
0.26454
0.269546
0.271438
0.269369
0.262498
0.250034
0.23127
0.205641
0.172762
0.132469
0.0848834
0.0303938
0.0318454
0.0877399
0.135503
0.175104
0.206792
0.231061
0.248555
0.260009
0.266209
0.26795
0.266014
0.261151
0.254077
0.245478
0.236015
0.226338
0.217085
0.208891
0.202363
0.19805
0.196376
0.197587
0.2017
0.208495
0.21755
0.22829
0.240032
0.25203
0.263478
0.27352
0.28125
0.285716
0.285926
0.280878
0.269594
0.251173
0.224857
0.190093
0.146597
0.0944287
0.033998
0.0351413
0.0963896
0.148182
0.190502
0.2237
0.24842
0.265482
0.275804
0.280341
0.28004
0.275804
0.268489
0.258885
0.247744
0.235776
0.223679
0.212154
0.201913
0.193662
0.188069
0.18568
0.18682
0.191527
0.199541
0.21035
0.22328
0.237556
0.252351
0.266789
0.279938
0.290803
0.298313
0.30133
0.298665
0.289118
0.271547
0.244947
0.208535
0.16185
0.104858
0.0379791
0.0387617
0.105789
0.161786
0.206764
0.241214
0.265991
0.282148
0.290833
0.293211
0.290405
0.283459
0.273333
0.260895
0.246942
0.232226
0.217474
0.203429
0.190869
0.180616
0.173489
0.170194
0.171184
0.176526
0.185888
0.198633
0.213953
0.230979
0.248805
0.266504
0.283091
0.2975
0.308554
0.314959
0.315325
0.308194
0.292122
0.265784
0.228087
0.178315
0.11628
0.0423951
0.042778
0.116079
0.17644
0.223929
0.25925
0.283545
0.298182
0.304605
0.304238
0.298406
0.288314
0.275022
0.259466
0.242478
0.224814
0.207205
0.190405
0.17524
0.162646
0.15364
0.149181
0.149924
0.155981
0.166888
0.181803
0.199734
0.219696
0.240738
0.261911
0.282215
0.300541
0.31563
0.326045
0.330176
0.326268
0.312515
0.287171
0.248723
0.196086
0.128828
0.0473213
0.0472896
0.127444
0.192298
0.242027
0.277656
0.300741
0.313073
0.316477
0.312687
0.30327
0.289595
0.272825
0.253943
0.233784
0.213078
0.192506
0.172777
0.15471
0.139334
0.127929
0.121882
0.122246
0.129213
0.142032
0.159464
0.180244
0.20328
0.227617
0.252352
0.27653
0.299052
0.318614
0.333656
0.342346
0.342605
0.332181
0.308796
0.270364
0.21526
0.142673
0.0528583
0.0524375
0.140131
0.209538
0.261046
0.296176
0.317077
0.326112
0.325593
0.317633
0.304069
0.286438
0.265995
0.243745
0.220485
0.196867
0.173454
0.150809
0.129614
0.110868
0.0961298
0.0875992
0.0873573
0.0957961
0.111333
0.131852
0.155708
0.181788
0.209268
0.237402
0.265369
0.292157
0.316476
0.336685
0.350748
0.356228
0.350357
0.330185
0.292846
0.235935
0.15803
0.0591449
0.0584254
0.154472
0.228362
0.280892
0.314366
0.331794
0.336309
0.330837
0.317942
0.299752
0.277974
0.253929
0.228613
0.202753
0.17687
0.151331
0.126421
0.102437
0.0798911
0.0600325
0.0462055
0.0445976
0.0567616
0.0770387
0.101347
0.12808
0.156578
0.186442
0.217254
0.24844
0.279156
0.308196
0.333895
0.354047
0.365859
0.365974
0.350611
0.31586
0.258184
0.17518
0.0663791
0.0655566
0.170908
0.248957
0.3013
0.331482
0.34376
0.342296
0.330782
0.312291
0.289262
0.263556
0.236547
0.209208
0.182196
0.155919
0.130587
0.106261
0.0828811
0.0603119
0.038418
0.017573
0.0107504
0.0306319
0.0537235
0.0783353
0.104543
0.132492
0.162238
0.193673
0.226457
0.259927
0.292996
0.324024
0.350688
0.369858
0.377544
0.368967
0.338846
0.28201
0.194487
0.0748546
0.0742963
0.190013
0.271424
0.321665
0.34627
0.351286
0.342226
0.323698
0.299337
0.271894
0.243389
0.215264
0.188532
0.163881
0.141767
0.122471
0.106144
0.0928377
0.0825383
0.07522
0.0709163
0.0697908
0.0721479
0.0783485
0.0886808
0.103286
0.122164
0.145198
0.172149
0.202608
0.235902
0.270961
0.306146
0.339039
0.366212
0.383028
0.383568
0.360802
0.307244
0.21641
0.0850236
0.0853822
0.212496
0.295582
0.340739
0.356661
0.351921
0.333745
0.307788
0.278287
0.248328
0.220134
0.195286
0.174843
0.159359
0.148832
0.142695
0.139946
0.139414
0.140001
0.140845
0.141363
0.141264
0.140544
0.139517
0.13885
0.139614
0.143243
0.151322
0.165198
0.185576
0.212336
0.244572
0.280606
0.317882
0.35268
0.379734
0.391886
0.379977
0.333323
0.241481
0.0976067
0.100007
0.239117
0.320558
0.356084
0.359334
0.342311
0.314308
0.282138
0.250691
0.223426
0.202641
0.189458
0.183696
0.184037
0.188563
0.195373
0.202919
0.210087
0.216122
0.220537
0.223034
0.223456
0.221765
0.218052
0.212574
0.205831
0.198685
0.192522
0.189367
0.191777
0.202251
0.222266
0.25154
0.287925
0.327515
0.364427
0.390238
0.393337
0.358827
0.270179
0.11377
0.120063
0.270311
0.343905
0.363207
0.349318
0.318656
0.282878
0.250065
0.225604
0.212319
0.210204
0.216892
0.229106
0.243937
0.259307
0.273886
0.286869
0.297779
0.306332
0.312362
0.315764
0.316474
0.314451
0.309679
0.30219
0.292091
0.279636
0.26535
0.25023
0.236046
0.225689
0.223181
0.232654
0.256172
0.291988
0.334375
0.373738
0.395836
0.380571
0.302461
0.13534
0.148469
0.305065
0.359813
0.354431
0.320568
0.279933
0.246728
0.229165
0.229014
0.242394
0.263483
0.28759
0.311806
0.334547
0.35501
0.372821
0.387825
0.399978
0.409284
0.415757
0.419404
0.420212
0.418149
0.413153
0.405143
0.394029
0.379729
0.362227
0.341652
0.318469
0.293812
0.270077
0.251751
0.245676
0.258643
0.291907
0.337759
0.379757
0.391913
0.336538
0.165069
0.189753
0.337863
0.355689
0.318897
0.272483
0.243133
0.241605
0.26278
0.295393
0.331158
0.365842
0.397627
0.425874
0.450472
0.471529
0.489234
0.503785
0.515362
0.524111
0.530138
0.533508
0.534242
0.532314
0.527649
0.520125
0.509564
0.495735
0.478361
0.457132
0.431755
0.402067
0.368294
0.331641
0.295539
0.267779
0.261398
0.286726
0.336141
0.379958
0.365794
0.207091
0.2467
0.350199
0.310717
0.259864
0.250278
0.282443
0.332623
0.384611
0.43225
0.473962
0.5098
0.540312
0.566137
0.587869
0.606011
0.620975
0.633091
0.642614
0.649736
0.65459
0.65726
0.657778
0.656128
0.652243
0.646
0.637212
0.62562
0.610876
0.592529
0.570004
0.542591
0.509461
0.469761
0.422953
0.369826
0.315354
0.274954
0.276212
0.326513
0.370657
0.262798
0.285298
0.300183
0.260467
0.315105
0.398054
0.473747
0.536465
0.587065
0.627794
0.660794
0.68774
0.709882
0.728141
0.743203
0.755582
0.765661
0.773732
0.780009
0.784652
0.78777
0.789429
0.789661
0.788456
0.785768
0.781505
0.775528
0.767634
0.757546
0.744881
0.729124
0.709568
0.685247
0.654827
0.616472
0.567739
0.505821
0.428957
0.341591
0.278172
0.311876
0.295257
0.335765
0.420663
0.568441
0.682566
0.751933
0.79673
0.827911
0.850554
0.867578
0.880765
0.891209
0.899603
0.90641
0.911948
0.916447
0.920069
0.922938
0.925142
0.926744
0.92779
0.928307
0.928306
0.927784
0.926724
0.925091
0.92283
0.919861
0.91607
0.911302
0.905337
0.897865
0.888434
0.876364
0.860584
0.839325
0.809626
0.766272
0.698033
0.583256
0.430702
0.340671
)
;

boundaryField
{
    movingWall
    {
        type            calculated;
        value           uniform 1;
    }
    fixedWalls
    {
        type            calculated;
        value           uniform 0;
    }
    frontAndBack
    {
        type            empty;
    }
}


// ************************************************************************* //
