/*--------------------------------*- C++ -*----------------------------------*\
| =========                 |                                                 |
| \\      /  F ield         | OpenFOAM: The Open Source CFD Toolbox           |
|  \\    /   O peration     | Version:  2306                                  |
|   \\  /    A nd           | Website:  www.openfoam.com                      |
|    \\/     M anipulation  |                                                 |
\*---------------------------------------------------------------------------*/
FoamFile
{
    version     2.0;
    format      ascii;
    arch        "LSB;label=32;scalar=64";
    class       volScalarField;
    location    "0.7";
    object      p;
}
// * * * * * * * * * * * * * * * * * * * * * * * * * * * * * * * * * * * * * //

dimensions      [0 2 -2 0 0 0 0];

internalField   nonuniform List<scalar> 
1681
(
6.407e-06
-0.00109608
-0.003701
-0.00725198
-0.0111087
-0.0147957
-0.0179664
-0.0203729
-0.0218476
-0.0222866
-0.0216378
-0.0198902
-0.017067
-0.0132192
-0.00842136
-0.00276748
0.00363175
0.0106517
0.0181559
0.0259985
0.0340259
0.0420794
0.0499972
0.0576176
0.0647815
0.0713362
0.0771387
0.0820604
0.0859914
0.0888456
0.0905656
0.0911293
0.0905556
0.088912
0.0863232
0.0829812
0.0791586
0.0752219
0.0716577
0.0690998
0.0680666
0.00111557
9.75597e-06
-0.00210989
-0.00487474
-0.0078601
-0.0107156
-0.0131658
-0.0150018
-0.0160739
-0.0162833
-0.0155746
-0.0139291
-0.0113589
-0.00790186
-0.00361822
0.00141329
0.00709798
0.0133277
0.0199832
0.026936
0.0340506
0.041187
0.0482024
0.0549547
0.0613044
0.0671187
0.0722744
0.076662
0.0801896
0.0827875
0.0844127
0.085054
0.0847367
0.0835284
0.0815446
0.0789544
0.075986
0.0729302
0.0701466
0.0680623
0.0670346
0.00373305
0.00212209
-2.46391e-05
-0.00250784
-0.00509031
-0.00751247
-0.00955755
-0.0110569
-0.0118848
-0.0119552
-0.0112173
-0.00965176
-0.00726616
-0.00409139
-0.000178548
0.00440394
0.00957272
0.0152318
0.0212745
0.0275856
0.0340433
0.0405212
0.0468907
0.0530237
0.058795
0.0640854
0.0687852
0.0727973
0.0760412
0.0784569
0.0800088
0.0806894
0.080524
0.0795739
0.0779402
0.0757663
0.0732383
0.0705876
0.068084
0.0659782
0.0644748
0.00736363
0.00491366
0.00239304
-0.000153787
-0.0026607
-0.00493443
-0.00680531
-0.00814305
-0.00884845
-0.00885207
-0.00811288
-0.00661568
-0.00436829
-0.00139891
0.00224635
0.00650568
0.0113036
0.0165528
0.0221561
0.0280081
0.0339971
0.040007
0.0459196
0.0516168
0.0569832
0.061909
0.0662929
0.0700455
0.0730927
0.0753787
0.0768701
0.0775586
0.0774646
0.0766393
0.0751668
0.0731639
0.0707797
0.0681998
0.0656308
0.0631619
0.060851
0.0114404
0.00800788
0.00494527
0.00215933
-0.000442625
-0.00272046
-0.00454426
-0.00581932
-0.00647278
-0.00645323
-0.00573133
-0.00429857
-0.00216555
0.000639872
0.00407427
0.00808032
0.0125884
0.0175181
0.0227797
0.0282758
0.0339029
0.0395531
0.0451165
0.0504827
0.0555436
0.0601962
0.064345
0.0679052
0.0708058
0.0729926
0.0744314
0.0751102
0.0750421
0.0742663
0.0728494
0.0708828
0.0684819
0.0657954
0.0629806
0.0599763
0.0567099
0.0155538
0.0110942
0.00739869
0.00425914
0.00144295
-0.000950573
-0.00282357
-0.00411263
-0.0047694
-0.00476024
-0.00406831
-0.00269315
-0.000649796
0.00203241
0.0053109
0.00913102
0.0134272
0.0181241
0.0231379
0.0283771
0.0337448
0.0391395
0.044457
0.0495929
0.0544441
0.0589117
0.0629036
0.0663371
0.0691419
0.0712627
0.0726619
0.0733219
0.0732469
0.0724637
0.0710216
0.0689894
0.0664534
0.063534
0.0603521
0.056715
0.0524419
0.0194057
0.0139217
0.00954726
0.00597966
0.00286593
0.000275441
-0.0017187
-0.00307966
-0.00378092
-0.00380557
-0.00314917
-0.00182
0.000161415
0.0027629
0.00594127
0.00964298
0.0138049
0.0183552
0.023214
0.0282946
0.0335043
0.0387463
0.0439205
0.0489261
0.0536629
0.0580342
0.0619486
0.0653234
0.0680865
0.0701793
0.0715592
0.0722011
0.0720993
0.0712682
0.0697411
0.0675667
0.0648082
0.0615652
0.0579339
0.0536097
0.0483244
0.0227707
0.0162852
0.0112137
0.0071748
0.00371106
0.000870408
-0.00129277
-0.00276386
-0.00353539
-0.00360569
-0.00298223
-0.00168214
0.000267971
0.0028322
0.00596562
0.00961457
0.0137171
0.0182033
0.022996
0.0280115
0.0331601
0.0383478
0.043477
0.0484486
0.0531636
0.0575252
0.0614411
0.0648262
0.0676048
0.0697131
0.0711018
0.0717372
0.0716032
0.0707016
0.0690513
0.0666841
0.0636442
0.0600175
0.0558847
0.0508456
0.0445602
0.0254733
0.0180127
0.0122409
0.00770807
0.00386394
0.000741333
-0.00161934
-0.00322197
-0.00407567
-0.0041925
-0.00359109
-0.00229724
-0.000343945
0.00222857
0.00537281
0.00903405
0.0131504
0.0176528
0.0224655
0.0275065
0.0326878
0.0379168
0.0430968
0.0481289
0.0529135
0.0573522
0.0613498
0.0648172
0.0676731
0.0698473
0.0712819
0.0719338
0.071776
0.0707979
0.0690052
0.0664151
0.0630573
0.0590088
0.0543422
0.0485729
0.0413002
0.0273694
0.0189563
0.0124869
0.00744979
0.00320988
-0.000210773
-0.00278222
-0.00452398
-0.00545969
-0.00561381
-0.00501539
-0.00369867
-0.00170314
0.00092629
0.00413897
0.00787833
0.0120816
0.0166798
0.0215976
0.0267534
0.03206
0.0374247
0.0427507
0.0479379
0.0528845
0.057489
0.061652
0.0652784
0.0682801
0.0705783
0.0721059
0.072809
0.0726491
0.0716035
0.0696654
0.0668394
0.0631435
0.05865
0.0534286
0.046918
0.038663
0.0283332
0.0189822
0.0118194
0.00627499
0.00163415
-0.00208895
-0.00487238
-0.00674925
-0.00775618
-0.00792901
-0.00730663
-0.00593148
-0.00384959
-0.00111086
0.00223048
0.00611544
0.0104798
0.0152538
0.0203615
0.0257214
0.0312456
0.0368408
0.0424088
0.047847
0.0530506
0.0579133
0.0623299
0.0661983
0.0694217
0.0719116
0.0735899
0.0743909
0.0742639
0.0731738
0.0711018
0.0680411
0.0639998
0.0590487
0.0532579
0.0459935
0.0367491
0.0282474
0.0179644
0.0101107
0.00406021
-0.000979598
-0.00500062
-0.00798743
-0.00998542
-0.0110432
-0.0112075
-0.0105264
-0.00905073
-0.00683296
-0.00392825
-0.00039477
0.00370565
0.00830683
0.0133376
0.0187212
0.024375
0.0302102
0.0361319
0.0420395
0.0478275
0.0533865
0.0586046
0.0633695
0.0675703
0.0711004
0.0738598
0.075758
0.0767165
0.0766708
0.075573
0.073392
0.07011
0.0657267
0.0603129
0.0539414
0.0459069
0.0356524
0.0269963
0.0157781
0.0072336
0.000680342
-0.00475137
-0.0090587
-0.012232
-0.0143282
-0.0154077
-0.0155276
-0.0147456
-0.0131204
-0.0107115
-0.00757937
-0.00378645
0.00060228
0.0055183
0.0108887
0.0166355
0.0226746
0.0289157
0.0352618
0.0416096
0.0478496
0.0538672
0.0595438
0.0647587
0.0693912
0.0733231
0.0764415
0.0786418
0.0798306
0.0799288
0.078874
0.0766222
0.0731443
0.0684314
0.0625557
0.055594
0.0467677
0.0354685
0.0244603
0.0122954
0.00305702
-0.00399441
-0.00980694
-0.0143829
-0.0177181
-0.0198814
-0.0209448
-0.0209762
-0.020043
-0.0182124
-0.0155508
-0.0121245
-0.00800049
-0.00324711
0.00206459
0.00785985
0.014059
0.0205767
0.0273207
0.034192
0.0410838
0.0478823
0.0544671
0.0607121
0.0664873
0.0716607
0.076101
0.0796807
0.0822791
0.0837861
0.0841058
0.0831595
0.0808888
0.0772519
0.0722311
0.0658998
0.0583391
0.0486939
0.0363017
0.0205124
0.00738128
-0.00255725
-0.0101014
-0.01628
-0.021101
-0.0245662
-0.0267569
-0.0277576
-0.0276476
-0.0265046
-0.0244047
-0.0214221
-0.0176292
-0.0130976
-0.00789921
-0.00210774
0.00420016
0.0109434
0.0180351
0.0253816
0.0328814
0.0404247
0.047893
0.0551597
0.0620906
0.0685455
0.0743799
0.079448
0.0836055
0.0867137
0.0886432
0.0892786
0.0885226
0.0862998
0.082554
0.0772565
0.0704815
0.0623145
0.0518177
0.0382712
0.0150149
0.000890233
-0.00975786
-0.0177884
-0.0243146
-0.0293508
-0.032906
-0.0350753
-0.035957
-0.0356428
-0.034222
-0.0317807
-0.0284011
-0.0241624
-0.0191412
-0.013413
-0.00705416
-0.000142909
0.00723844
0.015002
0.0230529
0.0312877
0.0395936
0.0478478
0.0559174
0.0636598
0.0709238
0.0775514
0.0833805
0.0882482
0.0919951
0.0944697
0.0955339
0.0950685
0.0929775
0.0891871
0.0836554
0.0764556
0.0676766
0.0562908
0.0415162
0.00781606
-0.00733718
-0.0187072
-0.0272164
-0.0340671
-0.0392816
-0.0428776
-0.044966
-0.0456609
-0.0450686
-0.0432914
-0.0404264
-0.0365652
-0.0317941
-0.0261951
-0.0198474
-0.0128297
-0.00522138
0.00289454
0.0114299
0.0202892
0.029368
0.0385512
0.0477122
0.0567121
0.0653997
0.0736126
0.0811782
0.0879167
0.0936445
0.0981784
0.101342
0.102969
0.102915
0.10106
0.0973068
0.0915968
0.084
0.0746067
0.0622902
0.0462014
-0.00125252
-0.0174777
-0.0295851
-0.0385632
-0.0457094
-0.0510561
-0.0546323
-0.0565674
-0.0569944
-0.0560365
-0.0538113
-0.0504288
-0.0459911
-0.0405924
-0.0343203
-0.027258
-0.0194857
-0.0110837
-0.00213466
0.00727404
0.0170476
0.0270814
0.0372594
0.0474521
0.0575154
0.0672901
0.0766021
0.0852639
0.0930764
0.099833
0.105324
0.109343
0.111693
0.112197
0.110704
0.107091
0.101276
0.0933208
0.0833159
0.0700241
0.0525229
-0.0123792
-0.0297295
-0.0425927
-0.0520267
-0.0594317
-0.0648529
-0.0683339
-0.0700271
-0.0700881
-0.0686606
-0.0658803
-0.0618724
-0.0567511
-0.0506194
-0.0435712
-0.0356929
-0.0270663
-0.0177711
-0.00788863
0.00249598
0.0132901
0.024391
0.0356831
0.0470354
0.0583002
0.0693109
0.0798827
0.0898124
0.0988807
0.106856
0.113497
0.118565
0.121826
0.123064
0.122089
0.118744
0.112917
0.104658
0.0940525
0.0797387
0.0607144
-0.0257763
-0.044317
-0.0579577
-0.06783
-0.0754462
-0.0808686
-0.0841603
-0.085502
-0.0850773
-0.0830554
-0.0795936
-0.0748354
-0.0689088
-0.061927
-0.0539902
-0.0451881
-0.0356028
-0.0253126
-0.0143955
-0.00293249
0.00898811
0.0212675
0.033793
0.0464345
0.0590422
0.0714443
0.0834458
0.0948284
0.105352
0.114756
0.122769
0.129111
0.133503
0.135684
0.135418
0.132501
0.126783
0.118295
0.107109
0.0917261
0.0710546
-0.0416856
-0.0614972
-0.0759409
-0.0862269
-0.0939918
-0.0993211
-0.102304
-0.103157
-0.1021
-0.0993326
-0.0950391
-0.0893846
-0.0825136
-0.0745506
-0.0656023
-0.0557612
-0.0451086
-0.0337195
-0.0216665
-0.00902419
0.00412638
0.0176933
0.0315694
0.0456287
0.0597221
0.073675
0.0872841
0.100317
0.112512
0.123582
0.133215
0.141088
0.146872
0.150248
0.150923
0.148634
0.14318
0.134562
0.122833
0.106334
0.0838766
-0.0603853
-0.0815689
-0.0968453
-0.10751
-0.11534
-0.120453
-0.122974
-0.123166
-0.121294
-0.117596
-0.112291
-0.105569
-0.0975934
-0.0885017
-0.0784073
-0.0674042
-0.0555716
-0.0429787
-0.0296901
-0.0157708
-0.00129133
0.0136668
0.0290061
0.0446082
0.0603287
0.0759931
0.0913934
0.106285
0.120386
0.133379
0.144913
0.154615
0.162095
0.166967
0.168866
0.167455
0.162464
0.153851
0.141638
0.123979
0.099579
-0.0822007
-0.104884
-0.121027
-0.132019
-0.139802
-0.144536
-0.146396
-0.145708
-0.142792
-0.137938
-0.131403
-0.123411
-0.114146
-0.10376
-0.0923714
-0.0800754
-0.0669464
-0.0530451
-0.0384246
-0.0231364
-0.00723649
0.00920847
0.0261152
0.0433776
0.0608608
0.0783956
0.095773
0.11274
0.128996
0.144195
0.157945
0.169815
0.179348
0.186077
0.189546
0.189325
0.185056
0.176629
0.164018
0.145161
0.118641
-0.107518
-0.131866
-0.148914
-0.160159
-0.167738
-0.171875
-0.172815
-0.170963
-0.166716
-0.160426
-0.1524
-0.142898
-0.13213
-0.120262
-0.107418
-0.0936901
-0.0791461
-0.0638339
-0.047791
-0.0310507
-0.0136497
0.00436546
0.0229312
0.0419596
0.0613313
0.0808884
0.100427
0.11969
0.138365
0.156076
0.17239
0.186816
0.198819
0.207835
0.2133
0.214663
0.211446
0.203449
0.190568
0.170485
0.14164
-0.136807
-0.163032
-0.181026
-0.192412
-0.199569
-0.202814
-0.20249
-0.199111
-0.19317
-0.185097
-0.175262
-0.163967
-0.15145
-0.13789
-0.123415
-0.108111
-0.0920328
-0.0752122
-0.0576655
-0.0394027
-0.020435
-0.000783047
0.0195157
0.0403985
0.0617688
0.0834873
0.105363
0.127143
0.148508
0.169059
0.188323
0.205745
0.220703
0.232523
0.240506
0.243949
0.242217
0.234977
0.222015
0.200691
0.169283
-0.170649
-0.199028
-0.218008
-0.229365
-0.235792
-0.237743
-0.235698
-0.230319
-0.222223
-0.211941
-0.199914
-0.186493
-0.171946
-0.156461
-0.140166
-0.123136
-0.105409
-0.0869917
-0.0678737
-0.048035
-0.0274553
-0.00612212
0.0159604
0.0387625
0.0622189
0.0862184
0.110593
0.135104
0.159433
0.18317
0.205803
0.226717
0.245195
0.260437
0.271582
0.277736
0.278054
0.272017
0.259244
0.236691
0.202434
-0.209785
-0.240683
-0.260674
-0.271742
-0.276997
-0.277097
-0.272721
-0.264727
-0.253895
-0.240878
-0.226201
-0.210268
-0.193371
-0.175708
-0.157396
-0.138494
-0.119011
-0.098923
-0.0781855
-0.056741
-0.03453
-0.0114996
0.0123875
0.0371432
0.0627432
0.0891156
0.116127
0.143566
0.171131
0.19841
0.224865
0.249826
0.272479
0.291883
0.306985
0.316653
0.319766
0.315546
0.303356
0.279628
0.242177
-0.255186
-0.289079
-0.310073
-0.320444
-0.323886
-0.321362
-0.313836
-0.30243
-0.28813
-0.271736
-0.253867
-0.234978
-0.215381
-0.195271
-0.174745
-0.153831
-0.132502
-0.110693
-0.0883146
-0.0652646
-0.0414362
-0.0167278
0.00894744
0.0356526
0.0634152
0.092215
0.121967
0.152506
0.183563
0.214742
0.245501
0.275122
0.302704
0.327153
0.347197
0.361409
0.368311
0.366757
0.355732
0.330955
0.289884
-0.308153
-0.345665
-0.367577
-0.376607
-0.377293
-0.371064
-0.359288
-0.343439
-0.324758
-0.304214
-0.282523
-0.260183
-0.237512
-0.214681
-0.191754
-0.168711
-0.145474
-0.121926
-0.0979219
-0.0733056
-0.0479145
-0.0215907
0.00581127
0.034415
0.0643114
0.095545
0.128098
0.161867
0.196642
0.232071
0.267629
0.302581
0.335952
0.366497
0.392702
0.412786
0.424811
0.427118
0.418128
0.392557
0.347336
-0.370498
-0.412432
-0.435007
-0.441663
-0.438198
-0.426746
-0.409248
-0.387629
-0.363443
-0.337836
-0.311612
-0.285288
-0.25916
-0.233353
-0.207867
-0.182615
-0.157452
-0.132192
-0.106625
-0.0805305
-0.0536815
-0.025856
0.00315785
0.0335537
0.0654968
0.0991114
0.134464
0.171538
0.210211
0.250207
0.291061
0.33206
0.372186
0.410069
0.443943
0.471616
0.490568
0.498438
0.492808
0.46693
0.416903
-0.444819
-0.492178
-0.514818
-0.517421
-0.50772
-0.488916
-0.46373
-0.434662
-0.403611
-0.371894
-0.340364
-0.309514
-0.279573
-0.250576
-0.222429
-0.194951
-0.167906
-0.141024
-0.114018
-0.0865919
-0.0584489
-0.0292954
0.00115404
0.0331708
0.0670051
0.102875
0.14095
0.181329
0.224007
0.268832
0.31545
0.36323
0.411177
0.457845
0.501239
0.53872
0.567058
0.582948
0.582731
0.55747
0.501854
-0.534992
-0.588932
-0.610342
-0.606139
-0.587076
-0.557933
-0.522469
-0.483862
-0.444354
-0.405376
-0.367752
-0.331874
-0.297834
-0.265522
-0.234705
-0.205072
-0.176274
-0.147941
-0.119693
-0.0911546
-0.06195
-0.03171
-7.11019e-05
0.033322
0.0688127
0.106725
0.147352
0.190932
0.237621
0.287442
0.340221
0.395495
0.452394
0.509494
0.564651
0.614795
0.655873
0.683362
0.691802
0.668908
0.606879
-0.647061
-0.708631
-0.726112
-0.71055
-0.677437
-0.63381
-0.584718
-0.53405
-0.484305
-0.436884
-0.392446
-0.351156
-0.312871
-0.277261
-0.243899
-0.212308
-0.181998
-0.152482
-0.123281
-0.0939294
-0.0639723
-0.0329624
-0.000456674
0.0339865
0.0708091
0.110451
0.153343
0.199892
0.250453
0.305287
0.364487
0.427875
0.49485
0.564187
0.633761
0.70019
0.758577
0.802909
0.8252
0.808023
0.739037
-0.790917
-0.860197
-0.868237
-0.833783
-0.779633
-0.715863
-0.648938
-0.583313
-0.521483
-0.464553
-0.41278
-0.365925
-0.323478
-0.284798
-0.249202
-0.216008
-0.184565
-0.154252
-0.124486
-0.0947113
-0.0643931
-0.0330096
-4.10396e-05
0.0350385
0.0727691
0.11371
0.158443
0.207564
0.261669
0.321316
0.386967
0.458875
0.536916
0.620329
0.70733
0.79453
0.876373
0.945223
0.98975
0.984752
0.909561
-0.98371
-1.05726
-1.04467
-0.978909
-0.89349
-0.802092
-0.712325
-0.628689
-0.553122
-0.485968
-0.426738
-0.374549
-0.328362
-0.287128
-0.249847
-0.215602
-0.183561
-0.152968
-0.123133
-0.0934174
-0.0632138
-0.0319334
0.00101131
0.0362223
0.0743312
0.116014
0.162003
0.213097
0.270161
0.334114
0.405887
0.486333
0.576069
0.675184
0.782757
0.896027
1.00937
1.11384
1.19417
1.21397
1.13751
-1.25677
-1.32068
-1.26479
-1.14754
-1.01638
-0.88804
-0.770044
-0.665716
-0.575439
-0.498085
-0.431958
-0.37524
-0.326204
-0.283299
-0.245171
-0.210647
-0.178716
-0.148494
-0.119198
-0.0901153
-0.0605832
-0.0299604
0.002393
0.0371393
0.0749862
0.116711
0.163188
0.215414
0.274535
0.341868
0.418899
0.507254
0.608588
0.724341
0.855227
1.00022
1.15502
1.31068
1.44855
1.518
1.45701
-1.66758
-1.68089
-1.53757
-1.33737
-1.14119
-0.96544
-0.814513
-0.688164
-0.583628
-0.497352
-0.425894
-0.36623
-0.315813
-0.272548
-0.234718
-0.200914
-0.169969
-0.140894
-0.112838
-0.0850415
-0.0568056
-0.0274602
0.00366498
0.0372688
0.0741097
0.11504
0.161045
0.213295
0.273194
0.342455
0.423163
0.517838
0.629458
0.761368
0.916929
1.09857
1.30592
1.5334
1.7623
1.9286
1.92917
-2.32078
-2.1783
-1.86791
-1.54013
-1.25552
-1.02228
-0.836026
-0.68893
-0.572803
-0.480573
-0.406568
-0.346379
-0.296616
-0.254675
-0.218536
-0.186611
-0.157628
-0.130542
-0.104469
-0.0786365
-0.052341
-0.0249106
0.0043267
0.0360761
0.0711123
0.110322
0.154756
0.205697
0.264749
0.333955
0.415955
0.514185
0.633118
0.778505
0.957492
1.17833
1.44895
1.77315
2.14015
2.48677
2.66219
-3.45064
-2.86291
-2.23636
-1.72628
-1.33263
-1.03787
-0.820311
-0.658899
-0.537478
-0.444639
-0.37237
-0.315001
-0.268484
-0.229881
-0.197016
-0.168233
-0.142242
-0.118008
-0.0946669
-0.0714746
-0.0477568
-0.0228731
0.00381717
0.0329897
0.0653934
0.101896
0.143546
0.191649
0.247887
0.314483
0.394441
0.491913
0.612733
0.765169
0.960996
1.21694
1.55511
1.99802
2.56128
3.24429
3.89597
-5.67057
-3.76361
-2.50158
-1.7658
-1.28068
-0.951871
-0.72874
-0.573384
-0.461596
-0.378804
-0.315866
-0.266796
-0.227551
-0.195312
-0.168053
-0.14426
-0.122771
-0.102661
-0.0831644
-0.0636226
-0.043441
-0.0220557
0.00109785
0.0266162
0.0551625
0.0875092
0.124595
0.167604
0.218081
0.27811
0.350593
0.439706
0.551654
0.695948
0.88773
1.15216
1.52939
2.07412
2.88252
4.23277
6.24798
-9.44946
-4.64469
-2.37434
-1.4658
-0.99092
-0.707054
-0.531272
-0.416016
-0.335698
-0.277174
-0.233086
-0.198906
-0.171664
-0.149313
-0.130372
-0.11373
-0.0985215
-0.0840499
-0.0697321
-0.0550615
-0.0395781
-0.0228433
-0.00441773
0.0161615
0.0394065
0.0659096
0.0963846
0.131724
0.173083
0.222012
0.280666
0.352176
0.441317
0.55582
0.709298
0.928014
1.2624
1.80478
2.80765
5.19292
10.1183
)
;

boundaryField
{
    movingWall
    {
        type            zeroGradient;
    }
    fixedWalls
    {
        type            zeroGradient;
    }
    frontAndBack
    {
        type            empty;
    }
}


// ************************************************************************* //
