/*--------------------------------*- C++ -*----------------------------------*\
| =========                 |                                                 |
| \\      /  F ield         | OpenFOAM: The Open Source CFD Toolbox           |
|  \\    /   O peration     | Version:  2306                                  |
|   \\  /    A nd           | Website:  www.openfoam.com                      |
|    \\/     M anipulation  |                                                 |
\*---------------------------------------------------------------------------*/
FoamFile
{
    version     2.0;
    format      ascii;
    arch        "LSB;label=32;scalar=64";
    class       surfaceScalarField;
    location    "0.7";
    object      phi;
}
// * * * * * * * * * * * * * * * * * * * * * * * * * * * * * * * * * * * * * //

dimensions      [0 3 -1 0 0 0 0];

oriented        oriented;

internalField   nonuniform List<scalar> 
3280
(
2.33655e-09
-2.34994e-09
3.8968e-09
-1.56025e-09
2.42208e-09
1.47473e-09
-2.64613e-09
5.06822e-09
-1.11747e-08
8.52861e-09
-2.27314e-08
1.15567e-08
-3.67581e-08
1.40267e-08
-5.26575e-08
1.58994e-08
-6.98355e-08
1.71781e-08
-8.77225e-08
1.7887e-08
-1.05784e-07
1.80611e-08
-1.23525e-07
1.77412e-08
-1.40496e-07
1.69709e-08
-1.56291e-07
1.57955e-08
-1.70552e-07
1.42606e-08
-1.82964e-07
1.24127e-08
-1.93263e-07
1.02983e-08
-2.01227e-07
7.96458e-09
-2.06687e-07
5.4596e-09
-2.09519e-07
2.83261e-09
-2.09654e-07
1.34431e-10
-2.07072e-07
-2.58233e-09
-2.01809e-07
-5.2631e-09
-1.93957e-07
-7.85138e-09
-1.83668e-07
-1.0289e-08
-1.71152e-07
-1.25164e-08
-1.56679e-07
-1.44735e-08
-1.40578e-07
-1.61007e-08
-1.23239e-07
-1.73395e-08
-1.05104e-07
-1.81345e-08
-8.66696e-08
-1.84346e-08
-6.84746e-08
-1.8195e-08
-5.10952e-08
-1.73795e-08
-3.51315e-08
-1.59637e-08
-2.11916e-08
-1.39399e-08
-9.8648e-09
-1.13269e-08
-1.67578e-09
-8.18927e-09
3.00411e-09
-4.6801e-09
4.12808e-09
-1.1238e-09
2.35687e-09
1.7719e-09
2.35764e-09
1.6055e-09
-3.95542e-09
-6.14485e-10
6.5975e-10
-9.79713e-09
1.06574e-08
-2.6997e-08
2.22681e-08
-5.21128e-08
3.36444e-08
-8.43563e-08
4.38003e-08
-1.22558e-07
5.22287e-08
-1.65365e-07
5.87058e-08
-2.11356e-07
6.3169e-08
-2.59118e-07
6.56496e-08
-3.07291e-07
6.6234e-08
-3.54592e-07
6.50425e-08
-3.99837e-07
6.2216e-08
-4.4195e-07
5.79078e-08
-4.79968e-07
5.22792e-08
-5.13052e-07
4.54969e-08
-5.40486e-07
3.77316e-08
-5.61679e-07
2.9158e-08
-5.76175e-07
1.99553e-08
-5.8365e-07
1.03075e-08
-5.8392e-07
4.0438e-10
-5.76944e-07
-9.55814e-09
-5.62829e-07
-1.93778e-08
-5.41834e-07
-2.88463e-08
-5.14373e-07
-3.77507e-08
-4.81014e-07
-4.58749e-08
-4.42485e-07
-5.30024e-08
-3.99666e-07
-5.89202e-08
-3.53582e-07
-6.34231e-08
-3.05397e-07
-6.63196e-08
-2.56394e-07
-6.7438e-08
-2.07954e-07
-6.66351e-08
-1.61527e-07
-6.38065e-08
-1.1859e-07
-5.89004e-08
-8.05904e-08
-5.19394e-08
-4.88624e-08
-4.30546e-08
-2.45026e-08
-3.25489e-08
-8.17504e-09
-2.10081e-08
1.85018e-10
-9.48486e-09
1.81964e-09
1.36329e-10
4.17782e-09
-1.32008e-09
-2.63532e-09
-1.04125e-08
9.75215e-09
-2.99027e-08
3.01477e-08
-6.06924e-08
5.30578e-08
-1.02514e-07
7.54661e-08
-1.54294e-07
9.55806e-08
-2.14447e-07
1.12382e-07
-2.81097e-07
1.25355e-07
-3.5223e-07
1.34303e-07
-4.25808e-07
1.39227e-07
-4.99834e-07
1.4026e-07
-5.72407e-07
1.37615e-07
-6.41753e-07
1.31562e-07
-7.06251e-07
1.22405e-07
-7.64444e-07
1.10473e-07
-8.15057e-07
9.61093e-08
-8.56998e-07
7.96731e-08
-8.89373e-07
6.15331e-08
-9.11487e-07
4.20689e-08
-9.22851e-07
2.16718e-08
-9.23192e-07
7.44869e-10
-9.12454e-07
-2.02962e-08
-8.90808e-07
-4.10235e-08
-8.58656e-07
-6.0998e-08
-8.16634e-07
-7.97727e-08
-7.65613e-07
-9.68962e-08
-7.06696e-07
-1.11919e-07
-6.41214e-07
-1.24403e-07
-5.7071e-07
-1.33927e-07
-4.96923e-07
-1.40107e-07
-4.21759e-07
-1.42602e-07
-3.47254e-07
-1.4114e-07
-2.75523e-07
-1.35538e-07
-2.08693e-07
-1.2573e-07
-1.48814e-07
-1.11818e-07
-9.77405e-08
-9.41285e-08
-5.69651e-08
-7.33238e-08
-2.74026e-08
-5.05702e-08
-9.10549e-09
-2.77822e-08
-9.30757e-10
-8.03925e-09
3.24714e-09
-4.84849e-09
2.21318e-09
-2.20616e-08
2.69653e-08
-5.31254e-08
6.12115e-08
-9.83401e-08
9.82725e-08
-1.57024e-07
1.3415e-07
-2.27738e-07
1.66295e-07
-3.08516e-07
1.9316e-07
-3.97058e-07
2.13897e-07
-4.90891e-07
2.28136e-07
-5.87488e-07
2.35825e-07
-6.84358e-07
2.3713e-07
-7.79111e-07
2.32368e-07
-8.69502e-07
2.21954e-07
-9.53472e-07
2.06375e-07
-1.02916e-06
1.86163e-07
-1.09494e-06
1.61889e-07
-1.14942e-06
1.34147e-07
-1.19144e-06
1.03553e-07
-1.22011e-06
7.07469e-08
-1.23483e-06
3.63848e-08
-1.23523e-06
1.14536e-09
-1.22125e-06
-3.42731e-08
-1.19312e-06
-6.91531e-08
-1.15136e-06
-1.0276e-07
-1.09678e-06
-1.3435e-07
-1.03051e-06
-1.63171e-07
-9.53947e-07
-1.88481e-07
-8.68792e-07
-2.09557e-07
-7.77005e-07
-2.25715e-07
-6.80783e-07
-2.36328e-07
-5.82528e-07
-2.40857e-07
-4.8479e-07
-2.38878e-07
-3.90204e-07
-2.30123e-07
-3.01406e-07
-2.14529e-07
-2.2092e-07
-1.92304e-07
-1.51028e-07
-1.6402e-07
-9.35998e-08
-1.30752e-07
-4.98923e-08
-9.42773e-08
-2.03344e-08
-5.73398e-08
-4.31687e-09
-2.40571e-08
-1.06988e-09
-8.40032e-09
1.06135e-08
-3.40862e-08
5.26512e-08
-7.71971e-08
1.04322e-07
-1.37176e-07
1.58251e-07
-2.12739e-07
2.09713e-07
-3.0198e-07
2.55536e-07
-4.02519e-07
2.93699e-07
-5.11661e-07
3.23039e-07
-6.26534e-07
3.43009e-07
-7.44208e-07
3.53499e-07
-8.61791e-07
3.54713e-07
-9.76497e-07
3.47074e-07
-1.08571e-06
3.31162e-07
-1.187e-06
3.0767e-07
-1.2782e-06
2.77366e-07
-1.35739e-06
2.41079e-07
-1.42293e-06
1.99682e-07
-1.47346e-06
1.54082e-07
-1.50793e-06
1.05222e-07
-1.52562e-06
5.40745e-08
-1.52612e-06
1.64122e-09
-1.50935e-06
-5.10457e-08
-1.47557e-06
-1.02927e-07
-1.42541e-06
-1.52923e-07
-1.35982e-06
-1.99936e-07
-1.28012e-06
-2.42869e-07
-1.18797e-06
-2.80634e-07
-1.08535e-06
-3.1218e-07
-9.74548e-07
-3.36514e-07
-8.58141e-07
-3.52734e-07
-7.38927e-07
-3.60072e-07
-6.19874e-07
-3.57931e-07
-5.04045e-07
-3.45952e-07
-3.94503e-07
-3.24071e-07
-2.94191e-07
-2.92615e-07
-2.05802e-07
-2.5241e-07
-1.31619e-07
-2.04936e-07
-7.33539e-08
-1.52542e-07
-3.20027e-08
-9.86906e-08
-7.74823e-09
-4.83114e-08
-8.81826e-09
-1.17774e-08
2.23909e-08
-4.58375e-08
8.67113e-08
-1.00999e-07
1.59484e-07
-1.75743e-07
2.32995e-07
-2.68066e-07
3.02036e-07
-3.75502e-07
3.62972e-07
-4.95209e-07
4.13406e-07
-6.24084e-07
4.51914e-07
-7.58877e-07
4.77802e-07
-8.96298e-07
4.90921e-07
-1.03311e-06
4.91525e-07
-1.1662e-06
4.80162e-07
-1.29263e-06
4.57595e-07
-1.4097e-06
4.24744e-07
-1.51498e-06
3.82641e-07
-1.6063e-06
3.32404e-07
-1.68184e-06
2.75214e-07
-1.74006e-06
2.12306e-07
-1.7798e-06
1.44963e-07
-1.80023e-06
7.45088e-08
-1.8009e-06
2.30982e-09
-1.78172e-06
-7.02291e-08
-1.74298e-06
-1.41668e-07
-1.68537e-06
-2.10536e-07
-1.60995e-06
-2.75348e-07
-1.51821e-06
-3.34613e-07
-1.41198e-06
-3.86862e-07
-1.29349e-06
-4.30674e-07
-1.16529e-06
-4.64711e-07
-1.03026e-06
-4.87764e-07
-8.9153e-07
-4.98803e-07
-7.52422e-07
-4.9704e-07
-6.16377e-07
-4.81998e-07
-4.86846e-07
-4.53602e-07
-3.67183e-07
-4.12278e-07
-2.6051e-07
-3.59083e-07
-1.69585e-07
-2.95862e-07
-9.6672e-08
-2.25455e-07
-4.34557e-08
-1.51907e-07
-1.10202e-08
-8.07467e-08
-1.98385e-08
-1.49348e-08
3.73257e-08
-5.70854e-08
1.28862e-07
-1.24069e-07
2.26468e-07
-2.13388e-07
3.22314e-07
-3.22262e-07
4.10909e-07
-4.476e-07
4.8831e-07
-5.86047e-07
5.51854e-07
-7.34066e-07
5.99933e-07
-8.88025e-07
6.31761e-07
-1.04429e-06
6.47188e-07
-1.19932e-06
6.46548e-07
-1.34969e-06
6.3054e-07
-1.49223e-06
6.00136e-07
-1.624e-06
5.56505e-07
-1.74232e-06
5.00969e-07
-1.84488e-06
4.3496e-07
-1.92966e-06
3.59996e-07
-1.99502e-06
2.77667e-07
-2.03968e-06
1.89624e-07
-2.06275e-06
9.75709e-08
-2.0637e-06
3.26774e-09
-2.04246e-06
-9.14773e-08
-1.99931e-06
-1.84811e-07
-1.935e-06
-2.74845e-07
-1.85069e-06
-3.59666e-07
-1.74794e-06
-4.37362e-07
-1.62875e-06
-5.06045e-07
-1.49554e-06
-5.63889e-07
-1.35107e-06
-6.09177e-07
-1.19848e-06
-6.40358e-07
-1.04118e-06
-6.56107e-07
-8.82806e-07
-6.55409e-07
-7.2716e-07
-6.37644e-07
-5.78076e-07
-6.02686e-07
-4.39327e-07
-5.51027e-07
-3.14506e-07
-4.83904e-07
-2.06903e-07
-4.03464e-07
-1.19413e-07
-3.12945e-07
-5.44737e-08
-2.16846e-07
-1.40881e-08
-1.21132e-07
-3.39265e-08
-1.78933e-08
5.5219e-08
-6.78165e-08
1.78785e-07
-1.46315e-07
3.04966e-07
-2.49947e-07
4.25946e-07
-3.75131e-07
5.36093e-07
-5.18111e-07
6.3129e-07
-6.7498e-07
7.08723e-07
-8.41735e-07
7.66688e-07
-1.01435e-06
8.04376e-07
-1.18885e-06
8.2169e-07
-1.36139e-06
8.19089e-07
-1.52831e-06
7.97459e-07
-1.68618e-06
7.58008e-07
-1.83187e-06
7.02189e-07
-1.96254e-06
6.31635e-07
-2.0757e-06
5.4812e-07
-2.16922e-06
4.5352e-07
-2.24135e-06
3.49802e-07
-2.29073e-06
2.39004e-07
-2.3164e-06
1.23235e-07
-2.3178e-06
4.66851e-09
-2.29481e-06
-1.14464e-07
-2.24775e-06
-2.31872e-07
-2.17737e-06
-3.45225e-07
-2.08488e-06
-4.5216e-07
-1.97193e-06
-5.5031e-07
-1.84064e-06
-6.3734e-07
-1.69354e-06
-7.10988e-07
-1.53359e-06
-7.69121e-07
-1.36415e-06
-8.09805e-07
-1.18887e-06
-8.31383e-07
-1.01171e-06
-8.3257e-07
-8.36798e-07
-8.12555e-07
-6.68369e-07
-7.71115e-07
-5.10645e-07
-7.08751e-07
-3.67729e-07
-6.26819e-07
-2.43504e-07
-5.2769e-07
-1.41542e-07
-4.14907e-07
-6.50673e-08
-2.93322e-07
-1.69786e-08
-1.69221e-07
-5.0905e-08
-2.0697e-08
7.5916e-08
-7.81147e-08
2.36203e-07
-1.67839e-07
3.94691e-07
-2.85525e-07
5.43632e-07
-4.26792e-07
6.77361e-07
-5.87197e-07
7.91695e-07
-7.62248e-07
8.83775e-07
-9.47453e-07
9.51892e-07
-1.13837e-06
9.95296e-07
-1.33069e-06
1.01401e-06
-1.52027e-06
1.00867e-06
-1.7032e-06
9.8039e-07
-1.87586e-06
9.30664e-07
-2.03492e-06
8.61255e-07
-2.17743e-06
7.74139e-07
-2.30076e-06
6.71449e-07
-2.40268e-06
5.55444e-07
-2.48136e-06
4.28483e-07
-2.53537e-06
2.9301e-07
-2.56368e-06
1.51549e-07
-2.56571e-06
6.70053e-09
-2.54131e-06
-1.38864e-07
-2.49078e-06
-2.82406e-07
-2.41487e-06
-4.21132e-07
-2.31482e-06
-5.5221e-07
-2.19233e-06
-6.72799e-07
-2.04959e-06
-7.80085e-07
-1.88924e-06
-8.71336e-07
-1.71439e-06
-9.43968e-07
-1.52858e-06
-9.95621e-07
-1.3357e-06
-1.02426e-06
-1.14001e-06
-1.02827e-06
-9.4597e-07
-1.00659e-06
-7.5824e-07
-9.58845e-07
-5.81521e-07
-8.8547e-07
-4.20473e-07
-7.87867e-07
-2.79613e-07
-6.6855e-07
-1.63233e-07
-5.31287e-07
-7.53561e-08
-3.81198e-07
-1.97454e-08
-2.24832e-07
-7.06504e-08
-2.33944e-08
9.93103e-08
-8.8101e-08
3.0091e-07
-1.88825e-07
4.95415e-07
-3.2036e-07
6.75167e-07
-4.77531e-07
8.34532e-07
-6.55193e-07
9.69357e-07
-8.48249e-07
1.07683e-06
-1.0517e-06
1.15534e-06
-1.26067e-06
1.20427e-06
-1.4705e-06
1.22384e-06
-1.67675e-06
1.21493e-06
-1.87531e-06
1.17894e-06
-2.06234e-06
1.11769e-06
-2.23438e-06
1.0333e-06
-2.38834e-06
9.28103e-07
-2.52152e-06
8.04629e-07
-2.63161e-06
6.6553e-07
-2.7167e-06
5.13573e-07
-2.77531e-06
3.51617e-07
-2.80637e-06
1.8261e-07
-2.80925e-06
9.58474e-09
-2.78377e-06
-1.64342e-07
-2.7302e-06
-3.35976e-07
-2.64929e-06
-5.02051e-07
-2.54224e-06
-6.59251e-07
-2.4108e-06
-8.0424e-07
-2.25718e-06
-9.33703e-07
-2.08412e-06
-1.0444e-06
-1.89482e-06
-1.13327e-06
-1.69299e-06
-1.19745e-06
-1.48276e-06
-1.23449e-06
-1.26865e-06
-1.24238e-06
-1.0555e-06
-1.21974e-06
-8.4839e-07
-1.16595e-06
-6.52545e-07
-1.08132e-06
-4.73219e-07
-9.67193e-07
-3.15609e-07
-8.2616e-07
-1.84759e-07
-6.62136e-07
-8.55049e-08
-4.80453e-07
-2.245e-08
-2.87886e-07
-9.31003e-08
-2.60315e-08
1.25342e-07
-9.79039e-08
3.72782e-07
-2.0949e-07
6.07001e-07
-3.54743e-07
8.2042e-07
-5.27701e-07
1.00749e-06
-7.22506e-07
1.16416e-06
-9.3344e-07
1.28777e-06
-1.15497e-06
1.37687e-06
-1.38179e-06
1.43109e-06
-1.60887e-06
1.45092e-06
-1.83151e-06
1.43757e-06
-2.04535e-06
1.39278e-06
-2.24639e-06
1.31874e-06
-2.43107e-06
1.21797e-06
-2.59617e-06
1.09321e-06
-2.73894e-06
9.47393e-07
-2.85699e-06
7.83589e-07
-2.9484e-06
6.04979e-07
-3.01163e-06
4.14843e-07
-3.04557e-06
2.16552e-07
-3.04956e-06
1.35714e-08
-3.02336e-06
-1.9054e-07
-2.96721e-06
-3.92129e-07
-2.8818e-06
-5.87456e-07
-2.76834e-06
-7.72713e-07
-2.62852e-06
-9.44054e-07
-2.46459e-06
-1.09764e-06
-2.27931e-06
-1.22969e-06
-2.07598e-06
-1.33659e-06
-1.85845e-06
-1.41499e-06
-1.63105e-06
-1.46189e-06
-1.39858e-06
-1.47485e-06
-1.16625e-06
-1.45206e-06
-9.39604e-07
-1.3926e-06
-7.24401e-07
-1.29652e-06
-5.26541e-07
-1.16505e-06
-3.51941e-07
-1.00076e-06
-2.06436e-07
-8.07641e-07
-9.56927e-08
-5.91196e-07
-2.51528e-08
-3.58426e-07
-1.18253e-07
-2.86495e-08
1.53991e-07
-1.07646e-07
4.51779e-07
-2.30047e-07
7.29401e-07
-3.88973e-07
9.79347e-07
-5.77671e-07
1.19619e-06
-7.89556e-07
1.37605e-06
-1.01827e-06
1.51648e-06
-1.25774e-06
1.61634e-06
-1.50221e-06
1.67556e-06
-1.74629e-06
1.695e-06
-1.985e-06
1.67628e-06
-2.21377e-06
1.62155e-06
-2.42847e-06
1.53344e-06
-2.62541e-06
1.4149e-06
-2.80132e-06
1.26912e-06
-2.9534e-06
1.09947e-06
-3.07923e-06
9.09426e-07
-3.17686e-06
7.0261e-07
-3.24473e-06
4.82713e-07
-3.28171e-06
2.53525e-07
-3.28707e-06
1.89353e-08
-3.26055e-06
-2.17064e-07
-3.2023e-06
-4.5037e-07
-3.11299e-06
-6.76774e-07
-2.99373e-06
-8.91974e-07
-2.84618e-06
-1.0916e-06
-2.67255e-06
-1.27127e-06
-2.47561e-06
-1.42663e-06
-2.25872e-06
-1.55348e-06
-2.02582e-06
-1.64788e-06
-1.78144e-06
-1.70627e-06
-1.53067e-06
-1.72562e-06
-1.27907e-06
-1.70366e-06
-1.03267e-06
-1.63901e-06
-7.97797e-07
-1.53139e-06
-5.81039e-07
-1.38181e-06
-3.8908e-07
-1.19272e-06
-2.28587e-07
-9.68134e-07
-1.06097e-07
-7.13686e-07
-2.79112e-08
-4.36612e-07
-1.46164e-07
-3.12845e-08
1.85275e-07
-1.17441e-07
5.37935e-07
-2.50698e-07
8.62658e-07
-4.23336e-07
1.15199e-06
-6.2779e-07
1.40064e-06
-8.56733e-07
1.60499e-06
-1.10315e-06
1.7629e-06
-1.36041e-06
1.87359e-06
-1.62229e-06
1.93744e-06
-1.88307e-06
1.95578e-06
-2.13747e-06
1.93068e-06
-2.38076e-06
1.86483e-06
-2.60866e-06
1.76134e-06
-2.81741e-06
1.62366e-06
-3.00373e-06
1.45544e-06
-3.16476e-06
1.2605e-06
-3.29813e-06
1.04279e-06
-3.40185e-06
8.06331e-07
-3.47436e-06
5.55227e-07
-3.51451e-06
2.93675e-07
-3.52155e-06
2.59694e-08
-3.49513e-06
-2.43482e-07
-3.43536e-06
-5.10144e-07
-3.34278e-06
-7.69352e-07
-3.21844e-06
-1.01631e-06
-3.06391e-06
-1.24613e-06
-2.88131e-06
-1.45386e-06
-2.67339e-06
-1.63455e-06
-2.44351e-06
-1.78336e-06
-2.1957e-06
-1.8957e-06
-1.93464e-06
-1.96733e-06
-1.66566e-06
-1.9946e-06
-1.39472e-06
-1.9746e-06
-1.12832e-06
-1.90541e-06
-8.73414e-07
-1.7863e-06
-6.37301e-07
-1.61792e-06
-4.27486e-07
-1.40253e-06
-2.51529e-07
-1.14409e-06
-1.16889e-07
-8.48326e-07
-3.07783e-08
-5.22723e-07
-1.76942e-07
-3.39679e-08
2.19243e-07
-1.27388e-07
6.31355e-07
-2.71628e-07
1.0069e-06
-4.58092e-07
1.33845e-06
-6.78375e-07
1.62092e-06
-9.24376e-07
1.85099e-06
-1.1884e-06
2.02693e-06
-1.46325e-06
2.14844e-06
-1.74225e-06
2.21644e-06
-2.0193e-06
2.23283e-06
-2.2889e-06
2.20028e-06
-2.54613e-06
2.12206e-06
-2.78664e-06
2.00185e-06
-3.00663e-06
1.84364e-06
-3.20279e-06
1.6516e-06
-3.37232e-06
1.43003e-06
-3.51286e-06
1.18333e-06
-3.62245e-06
9.15925e-07
-3.69956e-06
6.32331e-07
-3.743e-06
3.37123e-07
-3.75201e-06
3.49749e-08
-3.72617e-06
-2.69319e-07
-3.6655e-06
-5.70819e-07
-3.57042e-06
-8.64425e-07
-3.44187e-06
-1.14487e-06
-3.28126e-06
-1.40674e-06
-3.09062e-06
-1.6445e-06
-2.87258e-06
-1.85258e-06
-2.63048e-06
-2.02546e-06
-2.36837e-06
-2.15781e-06
-2.09105e-06
-2.24465e-06
-1.8041e-06
-2.28155e-06
-1.51382e-06
-2.26487e-06
-1.22722e-06
-2.19201e-06
-9.51878e-07
-2.06163e-06
-6.95878e-07
-1.87392e-06
-4.67598e-07
-1.63081e-06
-2.75562e-07
-1.33613e-06
-1.2823e-07
-9.95658e-07
-3.38036e-08
-6.17149e-07
-2.10746e-07
-3.67282e-08
2.55971e-07
-1.3758e-07
7.32206e-07
-2.93004e-07
1.16232e-06
-4.93476e-07
1.53892e-06
-7.297e-07
1.85715e-06
-9.92767e-07
2.11406e-06
-1.27428e-06
2.30844e-06
-1.56643e-06
2.4406e-06
-1.86211e-06
2.51212e-06
-2.15487e-06
2.52559e-06
-2.43898e-06
2.4844e-06
-2.7094e-06
2.39248e-06
-2.9617e-06
2.25416e-06
-3.19211e-06
2.07405e-06
-3.39737e-06
1.85686e-06
-3.57474e-06
1.6074e-06
-3.72192e-06
1.33051e-06
-3.83705e-06
1.03105e-06
-3.91859e-06
7.13879e-07
-3.96541e-06
3.83941e-07
-3.97669e-06
4.62491e-08
-3.95195e-06
-2.94057e-07
-3.8911e-06
-6.31672e-07
-3.79443e-06
-9.61094e-07
-3.66269e-06
-1.27661e-06
-3.49713e-06
-1.57229e-06
-3.2996e-06
-1.84204e-06
-3.07257e-06
-2.07961e-06
-2.81928e-06
-2.27876e-06
-2.54373e-06
-2.43336e-06
-2.25082e-06
-2.53756e-06
-1.9463e-06
-2.58607e-06
-1.63682e-06
-2.57435e-06
-1.32988e-06
-2.49895e-06
-1.03374e-06
-2.35778e-06
-7.57273e-07
-2.15039e-06
-5.09826e-07
-1.87826e-06
-3.00971e-07
-1.54498e-06
-1.40272e-07
-1.15636e-06
-3.70341e-08
-7.20387e-07
-2.4778e-07
-3.95919e-08
2.95563e-07
-1.48103e-07
8.40717e-07
-3.14983e-07
1.3292e-06
-5.29701e-07
1.75364e-06
-7.82007e-07
2.10945e-06
-1.06213e-06
2.39418e-06
-1.36092e-06
2.60723e-06
-1.66999e-06
2.74966e-06
-1.98174e-06
2.82387e-06
-2.28941e-06
2.83327e-06
-2.5871e-06
2.78208e-06
-2.86964e-06
2.67502e-06
-3.13265e-06
2.51717e-06
-3.37239e-06
2.31379e-06
-3.58572e-06
2.07019e-06
-3.77002e-06
1.7917e-06
-3.92312e-06
1.48361e-06
-4.04324e-06
1.15117e-06
-4.12895e-06
7.99593e-07
-4.17913e-06
4.34124e-07
-4.19295e-06
6.00688e-08
-4.16987e-06
-3.17137e-07
-4.10967e-06
-6.91878e-07
-4.01246e-06
-1.0583e-06
-3.87879e-06
-1.41028e-06
-3.70968e-06
-1.74141e-06
-3.50671e-06
-2.04501e-06
-3.27214e-06
-2.31418e-06
-3.00902e-06
-2.54188e-06
-2.72125e-06
-2.72112e-06
-2.41371e-06
-2.8451e-06
-2.0923e-06
-2.90748e-06
-1.76398e-06
-2.90268e-06
-1.43671e-06
-2.82622e-06
-1.11944e-06
-2.67504e-06
-8.21932e-07
-2.4479e-06
-5.54547e-07
-2.14564e-06
-3.28024e-07
-1.77151e-06
-1.53163e-07
-1.33122e-06
-4.05148e-08
-8.33035e-07
-2.88295e-07
-4.25855e-08
3.38149e-07
-1.59044e-07
9.57176e-07
-3.37718e-07
1.50788e-06
-5.66972e-07
1.98289e-06
-8.35511e-07
2.37799e-06
-1.13263e-06
2.69129e-06
-1.44839e-06
2.923e-06
-1.77379e-06
3.07506e-06
-2.10077e-06
3.15085e-06
-2.42229e-06
3.15479e-06
-2.73228e-06
3.09206e-06
-3.02556e-06
2.9683e-06
-3.29781e-06
2.78942e-06
-3.54542e-06
2.5614e-06
-3.76544e-06
2.29021e-06
-3.95544e-06
1.9817e-06
-4.11343e-06
1.6416e-06
-4.2378e-06
1.27554e-06
-4.32723e-06
8.89022e-07
-4.38066e-06
4.87554e-07
-4.39726e-06
7.66696e-08
-4.37643e-06
-3.37972e-07
-4.3178e-06
-7.50509e-07
-4.22129e-06
-1.1548e-06
-4.08719e-06
-1.54438e-06
-3.91622e-06
-1.91239e-06
-3.70963e-06
-2.25159e-06
-3.46938e-06
-2.55442e-06
-3.19822e-06
-2.81304e-06
-2.89986e-06
-3.01949e-06
-2.57907e-06
-3.16589e-06
-2.24181e-06
-3.24474e-06
-1.89528e-06
-3.24921e-06
-1.54791e-06
-3.17358e-06
-1.20934e-06
-3.01362e-06
-8.90241e-07
-2.767e-06
-6.02111e-07
-2.43377e-06
-3.5698e-07
-2.01664e-06
-1.67048e-07
-1.52115e-06
-4.42909e-08
-9.55792e-07
-3.32585e-07
-4.57381e-08
3.83887e-07
-1.70496e-07
1.08193e-06
-3.61374e-07
1.69876e-06
-6.05498e-07
2.22702e-06
-8.90413e-07
2.66291e-06
-1.2044e-06
3.00528e-06
-1.53668e-06
3.25528e-06
-1.87759e-06
3.41597e-06
-2.21866e-06
3.49191e-06
-2.55257e-06
3.48871e-06
-2.87318e-06
3.41267e-06
-3.17535e-06
3.27048e-06
-3.45492e-06
3.06899e-06
-3.70852e-06
2.81499e-06
-3.93343e-06
2.51512e-06
-4.1275e-06
2.17578e-06
-4.28902e-06
1.80312e-06
-4.41659e-06
1.40311e-06
-4.50907e-06
9.81494e-07
-4.56548e-06
5.43969e-07
-4.58503e-06
9.62204e-08
-4.56705e-06
-3.55953e-07
-4.51103e-06
-8.06531e-07
-4.41666e-06
-1.24917e-06
-4.28391e-06
-1.67713e-06
-4.11313e-06
-2.08316e-06
-3.90518e-06
-2.45954e-06
-3.66158e-06
-2.79802e-06
-3.3847e-06
-3.08993e-06
-3.0779e-06
-3.32629e-06
-2.74575e-06
-3.49804e-06
-2.39415e-06
-3.59634e-06
-2.03045e-06
-3.61291e-06
-1.66352e-06
-3.54052e-06
-1.30366e-06
-3.37347e-06
-9.62521e-07
-3.10814e-06
-6.52839e-07
-2.74346e-06
-3.8809e-07
-2.28139e-06
-1.8207e-07
-1.72717e-06
-4.84088e-08
-1.08945e-06
-3.80994e-07
-4.9084e-08
4.32971e-07
-1.82568e-07
1.21542e-06
-3.86137e-07
1.90232e-06
-6.45507e-07
2.48639e-06
-9.46923e-07
2.96432e-06
-1.27753e-06
3.33589e-06
-1.62566e-06
3.6034e-06
-1.98098e-06
3.7713e-06
-2.3346e-06
3.84553e-06
-2.679e-06
3.83311e-06
-3.00803e-06
3.7417e-06
-3.31672e-06
3.57917e-06
-3.60115e-06
3.35342e-06
-3.85827e-06
3.07212e-06
-4.08576e-06
2.74261e-06
-4.28183e-06
2.37184e-06
-4.4451e-06
1.9664e-06
-4.57448e-06
1.53249e-06
-4.66905e-06
1.07607e-06
-4.728e-06
6.02919e-07
-4.75058e-06
1.18793e-07
-4.73606e-06
-3.70473e-07
-4.68378e-06
-8.5881e-07
-4.59317e-06
-1.33978e-06
-4.46386e-06
-1.80644e-06
-4.29573e-06
-2.25129e-06
-4.08916e-06
-2.66612e-06
-3.84511e-06
-3.04207e-06
-3.56542e-06
-3.36962e-06
-3.25298e-06
-3.63872e-06
-2.91199e-06
-3.83903e-06
-2.54815e-06
-3.96017e-06
-2.16886e-06
-3.99219e-06
-1.78331e-06
-3.92607e-06
-1.40248e-06
-3.75431e-06
-1.03903e-06
-3.47159e-06
-7.07035e-07
-3.07545e-06
-4.2161e-07
-2.56681e-06
-1.98385e-07
-1.95039e-06
-5.29186e-08
-1.23492e-06
-4.33912e-07
-5.26661e-08
4.85637e-07
-1.95395e-07
1.35815e-06
-4.12235e-07
2.11916e-06
-6.87276e-07
2.76143e-06
-1.00527e-06
3.28232e-06
-1.35212e-06
3.68273e-06
-1.71516e-06
3.96644e-06
-2.08339e-06
4.13953e-06
-2.44753e-06
4.20966e-06
-2.79995e-06
4.18554e-06
-3.1346e-06
4.07634e-06
-3.44677e-06
3.89134e-06
-3.73293e-06
3.63958e-06
-3.99051e-06
3.32969e-06
-4.21766e-06
2.96976e-06
-4.41308e-06
2.56727e-06
-4.57585e-06
2.12916e-06
-4.70524e-06
1.66188e-06
-4.80065e-06
1.17147e-06
-4.86145e-06
6.63723e-07
-4.88699e-06
1.4433e-07
-4.87651e-06
-3.80952e-07
-4.82919e-06
-9.06124e-07
-4.74419e-06
-1.42478e-06
-4.62071e-06
-1.92993e-06
-4.45814e-06
-2.41386e-06
-4.25622e-06
-2.86804e-06
-4.01527e-06
-3.28302e-06
-3.73642e-06
-3.64847e-06
-3.4219e-06
-3.95324e-06
-3.07536e-06
-4.18557e-06
-2.70213e-06
-4.33341e-06
-2.30948e-06
-4.38484e-06
-1.90683e-06
-4.32873e-06
-1.50575e-06
-4.15538e-06
-1.11995e-06
-3.85739e-06
-7.64986e-07
-3.43042e-06
-4.57803e-07
-2.87399e-06
-2.16157e-07
-2.19204e-06
-5.78767e-08
-1.3932e-06
-4.91789e-07
-5.65409e-08
5.42177e-07
-2.09153e-07
1.51076e-06
-4.39961e-07
2.34997e-06
-7.3115e-07
3.05262e-06
-1.06576e-06
3.61693e-06
-1.42825e-06
4.04522e-06
-1.80491e-06
4.34311e-06
-2.18407e-06
4.51868e-06
-2.5561e-06
4.58169e-06
-2.91338e-06
4.54282e-06
-3.25007e-06
4.41304e-06
-3.56192e-06
4.20318e-06
-3.84593e-06
3.92359e-06
-4.10014e-06
3.58391e-06
-4.32335e-06
3.19296e-06
-4.51487e-06
2.75878e-06
-4.67432e-06
2.28861e-06
-4.80146e-06
1.78903e-06
-4.89606e-06
1.26607e-06
-4.95776e-06
7.25426e-07
-4.98603e-06
1.72604e-07
-4.98013e-06
-3.8686e-07
-4.93906e-06
-9.47186e-07
-4.8617e-06
-1.50214e-06
-4.74679e-06
-2.04484e-06
-4.59313e-06
-2.56752e-06
-4.39975e-06
-3.06142e-06
-4.16615e-06
-3.51662e-06
-3.89259e-06
-3.92203e-06
-3.58045e-06
-4.26538e-06
-3.23259e-06
-4.53344e-06
-2.85372e-06
-4.71227e-06
-2.45079e-06
-4.78777e-06
-2.03325e-06
-4.74627e-06
-1.61321e-06
-4.57543e-06
-1.2054e-06
-4.2652e-06
-8.26975e-07
-3.80885e-06
-4.96958e-07
-3.20401e-06
-2.35577e-07
-2.45342e-06
-6.3349e-08
-1.56543e-06
-5.55138e-07
-6.07846e-08
6.02962e-07
-2.24075e-07
1.67405e-06
-4.69701e-07
2.5956e-06
-7.77577e-07
3.36049e-06
-1.12873e-06
3.96808e-06
-1.50601e-06
4.42251e-06
-1.89456e-06
4.73166e-06
-2.28203e-06
4.90615e-06
-2.65857e-06
4.95823e-06
-3.01669e-06
4.90094e-06
-3.35098e-06
4.74733e-06
-3.65779e-06
4.50999e-06
-3.93487e-06
4.20068e-06
-4.18107e-06
3.8301e-06
-4.39596e-06
3.40785e-06
-4.57961e-06
2.94244e-06
-4.73233e-06
2.44133e-06
-4.85444e-06
1.91114e-06
-4.94618e-06
1.3578e-06
-5.00751e-06
7.86758e-07
-5.03809e-06
2.03182e-07
-5.03719e-06
-3.8776e-07
-5.0037e-06
-9.80671e-07
-4.93617e-06
-1.56967e-06
-4.83288e-06
-2.14813e-06
-4.69196e-06
-2.70843e-06
-4.51163e-06
-3.24175e-06
-4.29043e-06
-3.73783e-06
-4.02755e-06
-4.1849e-06
-3.72327e-06
-4.56966e-06
-3.3794e-06
-4.87731e-06
-2.99976e-06
-5.09192e-06
-2.59067e-06
-5.19685e-06
-2.1614e-06
-5.17554e-06
-1.7244e-06
-5.01243e-06
-1.29541e-06
-4.69418e-06
-8.93285e-07
-4.21098e-06
-5.39402e-07
-3.55789e-06
-2.56872e-07
-2.73595e-06
-6.94162e-08
-1.75288e-06
-6.24554e-07
-6.55012e-08
6.68463e-07
-2.40478e-07
1.84903e-06
-5.01968e-07
2.85709e-06
-8.27145e-07
3.68567e-06
-1.19466e-06
4.33559e-06
-1.58551e-06
4.81336e-06
-1.98362e-06
5.12977e-06
-2.37601e-06
5.29854e-06
-2.75275e-06
5.33497e-06
-3.10667e-06
5.25486e-06
-3.43304e-06
5.07369e-06
-3.72904e-06
4.806e-06
-3.99342e-06
4.46506e-06
-4.22601e-06
4.06269e-06
-4.42736e-06
3.6092e-06
-4.59844e-06
3.11351e-06
-4.74034e-06
2.58323e-06
-4.8541e-06
2.0249e-06
-4.94046e-06
1.44417e-06
-4.99981e-06
8.461e-07
-5.03201e-06
2.35389e-07
-5.03643e-06
-3.83342e-07
-5.01184e-06
-1.00526e-06
-4.95649e-06
-1.62502e-06
-4.86816e-06
-2.23647e-06
-4.74428e-06
-2.83232e-06
-4.58214e-06
-3.40388e-06
-4.37919e-06
-3.94077e-06
-4.13338e-06
-4.43072e-06
-3.84361e-06
-4.85943e-06
-3.51032e-06
-5.2106e-06
-3.13608e-06
-5.46615e-06
-2.72626e-06
-5.60668e-06
-2.28956e-06
-5.61224e-06
-1.83856e-06
-5.46343e-06
-1.38991e-06
-5.14283e-06
-9.64218e-07
-4.63667e-06
-5.85526e-07
-3.93659e-06
-2.80323e-07
-3.04115e-06
-7.61805e-08
-1.95702e-06
-7.00734e-07
-7.08344e-08
7.39298e-07
-2.58792e-07
2.03698e-06
-5.37449e-07
3.13574e-06
-8.8062e-07
4.02884e-06
-1.26411e-06
4.71908e-06
-1.66683e-06
5.21608e-06
-2.07139e-06
5.53434e-06
-2.46431e-06
5.69146e-06
-2.83576e-06
5.70643e-06
-3.17923e-06
5.59833e-06
-3.4909e-06
5.38536e-06
-3.76915e-06
5.08424e-06
-4.01393e-06
4.70984e-06
-4.2263e-06
4.27506e-06
-4.40798e-06
3.79089e-06
-4.561e-06
3.26653e-06
-4.68736e-06
2.7096e-06
-4.78886e-06
2.1264e-06
-4.86688e-06
1.52219e-06
-4.92225e-06
9.01464e-07
-4.95514e-06
2.68278e-07
-4.96501e-06
-3.73467e-07
-4.95058e-06
-1.01969e-06
-4.90983e-06
-1.66578e-06
-4.84002e-06
-2.30627e-06
-4.73788e-06
-2.93446e-06
-4.59971e-06
-3.54205e-06
-4.42172e-06
-4.11876e-06
-4.20042e-06
-4.65203e-06
-3.93307e-06
-5.12677e-06
-3.61841e-06
-5.52526e-06
-3.25732e-06
-5.82724e-06
-2.85373e-06
-6.01027e-06
-2.41538e-06
-6.05059e-06
-1.95459e-06
-5.92422e-06
-1.48869e-06
-5.60873e-06
-1.04009e-06
-5.08526e-06
-6.35807e-07
-4.34087e-06
-3.06288e-07
-3.37067e-06
-8.37753e-08
-2.17954e-06
-7.8451e-07
-7.69838e-08
8.16281e-07
-2.79603e-07
2.2396e-06
-5.7706e-07
3.4332e-06
-9.38991e-07
4.39077e-06
-1.33778e-06
5.11787e-06
-1.74996e-06
5.62825e-06
-2.15684e-06
5.94122e-06
-2.5446e-06
6.07921e-06
-2.90387e-06
6.0657e-06
-3.22913e-06
5.92358e-06
-3.51791e-06
5.67415e-06
-3.77009e-06
5.33642e-06
-3.98716e-06
4.92691e-06
-4.17165e-06
4.45956e-06
-4.32664e-06
3.94588e-06
-4.45533e-06
3.39522e-06
-4.56077e-06
2.81503e-06
-4.64558e-06
2.21121e-06
-4.71184e-06
1.58844e-06
-4.76087e-06
9.50499e-07
-4.79321e-06
3.00612e-07
-4.80847e-06
-3.58205e-07
-4.80535e-06
-1.0228e-06
-4.7816e-06
-1.68953e-06
-4.73404e-06
-2.35383e-06
-4.65866e-06
-3.00985e-06
-4.55076e-06
-3.64995e-06
-4.40524e-06
-4.26428e-06
-4.21696e-06
-4.8403e-06
-3.98132e-06
-5.36242e-06
-3.69493e-06
-5.81166e-06
-3.35653e-06
-6.16563e-06
-2.96804e-06
-6.39876e-06
-2.53565e-06
-6.48298e-06
-2.07086e-06
-6.389e-06
-1.59136e-06
-6.08823e-06
-1.12127e-06
-5.55535e-06
-6.90848e-07
-4.77129e-06
-3.35241e-07
-3.72628e-06
-9.23802e-08
-2.4224e-06
-8.7689e-07
-8.42284e-08
9.0051e-07
-3.03711e-07
2.45908e-06
-6.22013e-07
3.7515e-06
-1.0035e-06
4.77226e-06
-1.41644e-06
5.53081e-06
-1.8347e-06
6.04651e-06
-2.23837e-06
6.34489e-06
-2.61363e-06
6.45448e-06
-2.95204e-06
6.40411e-06
-3.24959e-06
6.22113e-06
-3.50563e-06
5.93019e-06
-3.72197e-06
5.55276e-06
-3.90196e-06
5.10691e-06
-4.04986e-06
4.60746e-06
-4.17026e-06
4.06628e-06
-4.26767e-06
3.49263e-06
-4.34623e-06
2.89359e-06
-4.40946e-06
2.27445e-06
-4.46015e-06
1.63913e-06
-4.50017e-06
9.90521e-07
-4.53043e-06
3.30868e-07
-4.55077e-06
-3.37868e-07
-4.55992e-06
-1.01365e-06
-4.55548e-06
-1.69397e-06
-4.53389e-06
-2.37543e-06
-4.49046e-06
-3.05327e-06
-4.41954e-06
-3.72087e-06
-4.31466e-06
-4.36915e-06
-4.16895e-06
-4.98601e-06
-3.97566e-06
-5.5557e-06
-3.72893e-06
-6.05839e-06
-3.42481e-06
-6.46975e-06
-3.06254e-06
-6.76104e-06
-2.64596e-06
-6.89955e-06
-2.18506e-06
-6.8499e-06
-1.69724e-06
-6.57606e-06
-1.20811e-06
-6.04448e-06
-7.51424e-07
-5.22798e-06
-3.67817e-07
-4.10989e-06
-1.02243e-07
-2.68797e-06
-9.79132e-07
-9.29625e-08
9.93473e-07
-3.32213e-07
2.69834e-06
-6.73902e-07
4.09319e-06
-1.07568e-06
5.17403e-06
-1.50084e-06
5.95598e-06
-1.92038e-06
6.46604e-06
-2.31342e-06
6.73794e-06
-2.66672e-06
6.80777e-06
-2.97341e-06
6.71081e-06
-3.23168e-06
6.47939e-06
-3.44331e-06
6.14182e-06
-3.61249e-06
5.72194e-06
-3.74479e-06
5.23921e-06
-3.84642e-06
4.70908e-06
-3.9236e-06
4.14346e-06
-3.98223e-06
3.55126e-06
-4.02757e-06
2.93892e-06
-4.06402e-06
2.31091e-06
-4.09508e-06
1.67019e-06
-4.12315e-06
1.0186e-06
-4.14956e-06
3.57269e-07
-4.17439e-06
-3.13034e-07
-4.19651e-06
-9.9153e-07
-4.21344e-06
-1.67703e-06
-4.22137e-06
-2.3675e-06
-4.21507e-06
-3.05957e-06
-4.18799e-06
-3.74795e-06
-4.1324e-06
-4.42475e-06
-4.03964e-06
-5.07877e-06
-3.90066e-06
-5.69469e-06
-3.70676e-06
-6.25229e-06
-3.45075e-06
-6.72576e-06
-3.12841e-06
-7.08338e-06
-2.74029e-06
-7.28767e-06
-2.29382e-06
-7.29638e-06
-1.8052e-06
-7.06468e-06
-1.30099e-06
-6.54869e-06
-8.18537e-07
-5.71043e-06
-4.04888e-07
-4.52354e-06
-1.13712e-07
-2.97915e-06
-1.09284e-06
-1.03751e-07
1.09722e-06
-3.66618e-07
2.9612e-06
-7.34797e-07
4.46137e-06
-1.15729e-06
5.59653e-06
-1.59149e-06
6.39018e-06
-2.00545e-06
6.87999e-06
-2.37788e-06
7.11037e-06
-2.69697e-06
7.12686e-06
-2.95845e-06
6.97228e-06
-3.16352e-06
6.68447e-06
-3.31711e-06
6.29541e-06
-3.42629e-06
5.83112e-06
-3.49918e-06
5.3121e-06
-3.54409e-06
4.75399e-06
-3.56897e-06
4.16835e-06
-3.58107e-06
3.56336e-06
-3.5867e-06
2.94455e-06
-3.5911e-06
2.31531e-06
-3.59838e-06
1.67747e-06
-3.61147e-06
1.03169e-06
-3.63205e-06
3.77854e-07
-3.66054e-06
-2.84548e-07
-3.69597e-06
-9.56097e-07
-3.73596e-06
-1.63705e-06
-3.77655e-06
-2.32691e-06
-3.8122e-06
-3.02392e-06
-3.83569e-06
-3.72446e-06
-3.83814e-06
-4.42229e-06
-3.80923e-06
-5.10768e-06
-3.73755e-06
-5.76637e-06
-3.61136e-06
-6.37848e-06
-3.41966e-06
-6.91745e-06
-3.15393e-06
-7.34911e-06
-2.81029e-06
-7.63131e-06
-2.39218e-06
-7.71448e-06
-1.9133e-06
-7.54355e-06
-1.40016e-06
-7.06184e-06
-8.93477e-07
-6.21711e-06
-4.47665e-07
-4.96935e-06
-1.27295e-07
-3.29952e-06
-1.22014e-06
-1.17417e-07
1.21464e-06
-4.09013e-07
3.2528e-06
-8.07346e-07
4.85971e-06
-1.25025e-06
6.03943e-06
-1.68824e-06
6.82818e-06
-2.08671e-06
7.27846e-06
-2.42505e-06
7.44871e-06
-2.69421e-06
7.39603e-06
-2.89379e-06
7.17186e-06
-3.02915e-06
6.81983e-06
-3.1091e-06
6.37535e-06
-3.14411e-06
5.86612e-06
-3.14506e-06
5.31305e-06
-3.12246e-06
4.73139e-06
-3.08591e-06
4.1318e-06
-3.04389e-06
3.52134e-06
-3.00359e-06
2.90425e-06
-2.97093e-06