/*--------------------------------*- C++ -*----------------------------------*\
| =========                 |                                                 |
| \\      /  F ield         | OpenFOAM: The Open Source CFD Toolbox           |
|  \\    /   O peration     | Version:  2306                                  |
|   \\  /    A nd           | Website:  www.openfoam.com                      |
|    \\/     M anipulation  |                                                 |
\*---------------------------------------------------------------------------*/
FoamFile
{
    version     2.0;
    format      ascii;
    arch        "LSB;label=32;scalar=64";
    class       volVectorField;
    location    "0.7";
    object      U;
}
// * * * * * * * * * * * * * * * * * * * * * * * * * * * * * * * * * * * * * //

dimensions      [0 1 -1 0 0 0 0];

internalField   nonuniform List<vector> 
1681
(
(5.66843e-05 -5.67737e-05 0)
(0.00014888 -5.54817e-05 0)
(0.000157115 -9.93332e-06 0)
(2.59367e-05 4.51985e-05 0)
(-0.000254489 9.72615e-05 0)
(-0.000670287 0.000141695 0)
(-0.00119973 0.000177107 0)
(-0.00181852 0.000203449 0)
(-0.00250192 0.000221188 0)
(-0.00322587 0.000230967 0)
(-0.00396764 0.000233477 0)
(-0.00470605 0.00022941 0)
(-0.00542173 0.00021944 0)
(-0.0060971 0.000204219 0)
(-0.00671647 0.000184378 0)
(-0.00726606 0.000160529 0)
(-0.00773397 0.000133275 0)
(-0.00811024 0.000103216 0)
(-0.00838684 7.0953e-05 0)
(-0.00855774 3.71035e-05 0)
(-0.00861898 2.30302e-06 0)
(-0.0085687 -3.27868e-05 0)
(-0.00840723 -6.74744e-05 0)
(-0.0081372 -0.000101037 0)
(-0.00776357 -0.000132723 0)
(-0.00729375 -0.000161752 0)
(-0.00673758 -0.000187329 0)
(-0.00610738 -0.000208647 0)
(-0.00541791 -0.000224906 0)
(-0.00468626 -0.000235323 0)
(-0.00393173 -0.000239147 0)
(-0.00317563 -0.000235682 0)
(-0.00244093 -0.000224298 0)
(-0.00175191 -0.000204461 0)
(-0.00113356 -0.000175785 0)
(-0.00061079 -0.000138146 0)
(-0.000207061 -9.20105e-05 0)
(5.78295e-05 -3.92331e-05 0)
(0.000173095 1.51685e-05 0)
(0.000152783 5.82385e-05 0)
(5.63926e-05 5.6201e-05 0)
(5.67772e-05 -0.000149896 0)
(7.84796e-05 -7.58423e-05 0)
(-0.000139961 0.000154657 0)
(-0.00067634 0.000428581 0)
(-0.00154809 0.000695614 0)
(-0.00273355 0.000931731 0)
(-0.00419004 0.0011259 0)
(-0.00586431 0.00127404 0)
(-0.0076986 0.00137572 0)
(-0.00963424 0.00143239 0)
(-0.011614 0.00144654 0)
(-0.0135835 0.00142122 0)
(-0.0154919 0.00135981 0)
(-0.0172929 0.00126585 0)
(-0.0189446 0.001143 0)
(-0.0204099 0.000994943 0)
(-0.0216571 0.000825435 0)
(-0.0226591 0.00063828 0)
(-0.0233946 0.000437361 0)
(-0.0238476 0.00022666 0)
(-0.0240074 1.02852e-05 0)
(-0.0238696 -0.000207516 0)
(-0.0234354 -0.000422344 0)
(-0.0227123 -0.000629654 0)
(-0.021714 -0.000824771 0)
(-0.0204608 -0.00100293 0)
(-0.0189791 -0.00115934 0)
(-0.0173019 -0.00128924 0)
(-0.0154685 -0.00138799 0)
(-0.0135239 -0.00145124 0)
(-0.0115183 -0.00147497 0)
(-0.00950673 -0.00145575 0)
(-0.00754752 -0.00139088 0)
(-0.00570119 -0.0012787 0)
(-0.00402835 -0.00111902 0)
(-0.00258702 -0.000913977 0)
(-0.00142856 -0.000669559 0)
(-0.00059161 -0.000398792 0)
(-9.17509e-05 -0.000127432 0)
(9.64588e-05 9.33256e-05 0)
(5.95576e-05 0.000153135 0)
(1.3868e-05 -0.000162392 0)
(-0.000145125 0.000139812 0)
(-0.000714771 0.000724179 0)
(-0.00174448 0.00139748 0)
(-0.00324021 0.002059 0)
(-0.00517255 0.00265221 0)
(-0.00748472 0.0031466 0)
(-0.0101038 0.00352779 0)
(-0.0129488 0.00379098 0)
(-0.0159357 0.00393715 0)
(-0.0189812 0.00397084 0)
(-0.022005 0.00389878 0)
(-0.0249315 0.00372908 0)
(-0.0276908 0.00347073 0)
(-0.0302197 0.00313327 0)
(-0.0324622 0.00272662 0)
(-0.0343695 0.002261 0)
(-0.0359011 0.00174692 0)
(-0.037024 0.00119513 0)
(-0.0377142 0.000616708 0)
(-0.0379558 2.30829e-05 0)
(-0.037742 -0.000573968 0)
(-0.0370753 -0.00116229 0)
(-0.0359672 -0.00172941 0)
(-0.034439 -0.00226256 0)
(-0.0325217 -0.00274883 0)
(-0.0302557 -0.00317533 0)
(-0.027691 -0.00352939 0)
(-0.0248867 -0.00379887 0)
(-0.0219104 -0.00397248 0)
(-0.0188371 -0.0040402 0)
(-0.0157479 -0.00399379 0)
(-0.0127288 -0.00382745 0)
(-0.00986721 -0.00353866 0)
(-0.00724998 -0.00312954 0)
(-0.00495848 -0.0026088 0)
(-0.00306329 -0.00199531 0)
(-0.00161607 -0.00132405 0)
(-0.000638591 -0.000655229 0)
(-0.00011429 -9.12837e-05 0)
(1.95876e-05 0.00017815 0)
(-3.87681e-05 -3.99194e-05 0)
(-0.000416314 0.000671337 0)
(-0.00139409 0.00175396 0)
(-0.00296421 0.00295412 0)
(-0.00510557 0.0041253 0)
(-0.00777554 0.00517744 0)
(-0.010903 0.00605759 0)
(-0.0143984 0.00673789 0)
(-0.0181625 0.00720686 0)
(-0.0220918 0.00746362 0)
(-0.0260827 0.00751432 0)
(-0.0300345 0.00736976 0)
(-0.0338518 0.00704379 0)
(-0.037446 0.00655234 0)
(-0.0407368 0.00591274 0)
(-0.0436523 0.00514331 0)
(-0.0461304 0.00426311 0)
(-0.0481188 0.00329187 0)
(-0.0495758 0.0022499 0)
(-0.0504702 0.00115817 0)
(-0.0507821 3.82768e-05 0)
(-0.050503 -0.00108753 0)
(-0.049636 -0.00219636 0)
(-0.0481964 -0.00326477 0)
(-0.0462117 -0.00426888 0)
(-0.0437214 -0.00518467 0)
(-0.0407775 -0.00598825 0)
(-0.0374438 -0.00665633 0)
(-0.0337954 -0.00716675 0)
(-0.0299179 -0.00749918 0)
(-0.0259061 -0.00763592 0)
(-0.0218619 -0.00756288 0)
(-0.0178925 -0.00727089 0)
(-0.0141068 -0.00675726 0)
(-0.010612 -0.00602813 0)
(-0.00750799 -0.00510167 0)
(-0.00488199 -0.00401332 0)
(-0.00279948 -0.00282358 0)
(-0.0012944 -0.00162882 0)
(-0.000374784 -0.000578993 0)
(-3.06893e-05 7.4817e-05 0)
(-9.01616e-05 0.000231361 0)
(-0.000693374 0.00154928 0)
(-0.00209885 0.0032725 0)
(-0.00422849 0.00510949 0)
(-0.00702421 0.00687867 0)
(-0.0104243 0.0084612 0)
(-0.0143409 0.00978301 0)
(-0.0186679 0.0108025 0)
(-0.0232899 0.0115006 0)
(-0.0280868 0.011874 0)
(-0.0329385 0.0119302 0)
(-0.037728 0.0116842 0)
(-0.0423439 0.0111562 0)
(-0.0466826 0.0103701 0)
(-0.0506497 0.00935249 0)
(-0.0541609 0.00813151 0)
(-0.0571429 0.00673692 0)
(-0.0595344 0.00519962 0)
(-0.0612861 0.00355157 0)
(-0.0623612 0.00182573 0)
(-0.0627365 5.61209e-05 0)
(-0.0624018 -0.00172225 0)
(-0.0613611 -0.00347345 0)
(-0.0596324 -0.00516072 0)
(-0.057248 -0.0067468 0)
(-0.0542545 -0.00819425 0)
(-0.050713 -0.00946602 0)
(-0.0466983 -0.0105262 0)
(-0.0422984 -0.0113407 0)
(-0.0376134 -0.0118786 0)
(-0.0327538 -0.0121134 0)
(-0.0278386 -0.0120245 0)
(-0.0229923 -0.0115989 0)
(-0.0183415 -0.0108344 0)
(-0.0140105 -0.00974183 0)
(-0.0101166 -0.00835003 0)
(-0.00676367 -0.00671167 0)
(-0.00403385 -0.00491202 0)
(-0.0019793 -0.00307971 0)
(-0.000642705 -0.00140263 0)
(-8.00713e-05 -0.000172023 0)
(-0.000137242 0.00064622 0)
(-0.000960099 0.00277576 0)
(-0.00279222 0.00528823 0)
(-0.00548264 0.00787218 0)
(-0.00893132 0.0103217 0)
(-0.0130531 0.0124958 0)
(-0.01774 0.0143026 0)
(-0.0228686 0.0156884 0)
(-0.0283073 0.0166274 0)
(-0.0339211 0.0171139 0)
(-0.0395754 0.017157 0)
(-0.0451392 0.0167765 0)
(-0.0504881 0.0159997 0)
(-0.0555062 0.0148593 0)
(-0.0600878 0.013392 0)
(-0.0641385 0.0116374 0)
(-0.0675761 0.00963743 0)
(-0.0703318 0.00743559 0)
(-0.0723503 0.00507717 0)
(-0.0735904 0.00260891 0)
(-0.0740258 7.90285e-05 0)
(-0.0736451 -0.00246289 0)
(-0.0724527 -0.00496597 0)
(-0.0704685 -0.00737831 0)
(-0.0677285 -0.00964733 0)
(-0.064285 -0.0117204 0)
(-0.0602058 -0.0135454 0)
(-0.0555746 -0.0150721 0)
(-0.0504898 -0.016253 0)
(-0.045063 -0.0170453 0)
(-0.0394179 -0.0174124 0)
(-0.0336877 -0.0173262 0)
(-0.0280118 -0.0167697 0)
(-0.0225326 -0.0157406 0)
(-0.0173909 -0.0142544 0)
(-0.0127208 -0.0123501 0)
(-0.00864472 -0.0100966 0)
(-0.0052649 -0.00760099 0)
(-0.00265633 -0.00501868 0)
(-0.000901528 -0.00256597 0)
(-0.000125324 -0.000557838 0)
(-0.000179773 0.00119533 0)
(-0.00121181 0.00434083 0)
(-0.00345997 0.0077949 0)
(-0.0067029 0.0112379 0)
(-0.010797 0.0144487 0)
(-0.0156307 0.0172706 0)
(-0.0210736 0.0195986 0)
(-0.0269831 0.0213698 0)
(-0.0332109 0.0225532 0)
(-0.0396073 0.0231421 0)
(-0.0460244 0.0231483 0)
(-0.0523189 0.0225968 0)
(-0.0583551 0.0215231 0)
(-0.0640069 0.0199697 0)
(-0.0691592 0.0179846 0)
(-0.0737094 0.0156197 0)
(-0.0775685 0.0129302 0)
(-0.0806613 0.00997375 0)
(-0.0829279 0.00681016 0)
(-0.0843234 0.00350132 0)
(-0.0848188 0.000111026 0)
(-0.0844018 -0.00329511 0)
(-0.0830765 -0.00664985 0)
(-0.0808641 -0.00988463 0)
(-0.0778033 -0.0129301 0)
(-0.0739501 -0.0157167 0)
(-0.0693781 -0.0181761 0)
(-0.0641775 -0.0202421 0)
(-0.0584549 -0.0218522 0)
(-0.0523318 -0.0229505 0)
(-0.0459428 -0.0234888 0)
(-0.0394334 -0.0234308 0)
(-0.0329571 -0.0227542 0)
(-0.0266711 -0.0214554 0)
(-0.0207326 -0.0195537 0)
(-0.0152941 -0.0170968 0)
(-0.0104984 -0.0141671 0)
(-0.00647062 -0.0108902 0)
(-0.00331198 -0.00744252 0)
(-0.00114668 -0.00406091 0)
(-0.000166167 -0.00107386 0)
(-0.000218534 0.00186966 0)
(-0.0014492 0.00623109 0)
(-0.00410012 0.0107802 0)
(-0.00788377 0.0151961 0)
(-0.0126133 0.0192494 0)
(-0.018149 0.0227737 0)
(-0.0243365 0.0256556 0)
(-0.0310121 0.0278264 0)
(-0.0380103 0.0292525 0)
(-0.0451663 0.0299282 0)
(-0.0523192 0.0298694 0)
(-0.0593144 0.029108 0)
(-0.0660062 0.0276884 0)
(-0.0722596 0.025664 0)
(-0.077952 0.0230952 0)
(-0.082974 0.0200473 0)
(-0.0872309 0.0165899 0)
(-0.0906428 0.0127955 0)
(-0.0931457 0.00873954 0)
(-0.0946918 0.00450014 0)
(-0.0952501 0.000157669 0)
(-0.0948066 -0.0042052 0)
(-0.0933651 -0.00850376 0)
(-0.0909476 -0.0126517 0)
(-0.087594 -0.0165616 0)
(-0.0833632 -0.020146 0)
(-0.0783325 -0.0233186 0)
(-0.0725973 -0.025996 0)
(-0.0662707 -0.0280996 0)
(-0.0594824 -0.0295584 0)
(-0.0523766 -0.0303117 0)
(-0.0451103 -0.0303129 0)
(-0.0378499 -0.0295331 0)
(-0.0307681 -0.0279659 0)
(-0.0240391 -0.0256321 0)
(-0.0178351 -0.0225856 0)
(-0.0123213 -0.0189199 0)
(-0.00764847 -0.0147749 0)
(-0.0039458 -0.0103431 0)
(-0.00137936 -0.00587652 0)
(-0.00020344 -0.0017118 0)
(-0.00025453 0.00266181 0)
(-0.00167511 0.00843381 0)
(-0.00471659 0.0142313 0)
(-0.00902943 0.0197355 0)
(-0.0143846 0.0247138 0)
(-0.0206136 0.0289951 0)
(-0.0275365 0.0324622 0)
(-0.0349676 0.0350442 0)
(-0.0427231 0.0367081 0)
(-0.0506229 0.0374518 0)
(-0.058493 0.0372971 0)
(-0.0661681 0.0362846 0)
(-0.0734932 0.0344691 0)
(-0.0803257 0.0319162 0)
(-0.0865364 0.0286996 0)
(-0.0920107 0.0248992 0)
(-0.0966492 0.0205995 0)
(-0.100368 0.015889 0)
(-0.103101 0.0108596 0)
(-0.104797 0.00560597 0)
(-0.105422 0.000225988 0)
(-0.104963 -0.00517994 0)
(-0.103421 -0.0105089 0)
(-0.100819 -0.0156559 0)
(-0.0971972 -0.0205147 0)
(-0.0926153 -0.0249787 0)
(-0.0871533 -0.0289426 0)
(-0.0809105 -0.0323045 0)
(-0.074005 -0.034968 0)
(-0.0665734 -0.0368455 0)
(-0.0587685 -0.0378619 0)
(-0.0507582 -0.0379584 0)
(-0.0427219 -0.0370973 0)
(-0.0348478 -0.035267 0)
(-0.0273284 -0.0324875 0)
(-0.0203572 -0.028816 0)
(-0.0141239 -0.0243536 0)
(-0.00880651 -0.0192509 0)
(-0.0045638 -0.013713 0)
(-0.00160318 -0.00800345 0)
(-0.000238279 -0.0024653 0)
(-0.000288714 0.00356637 0)
(-0.00189298 0.0109389 0)
(-0.00531572 0.0181373 0)
(-0.0101486 0.0248462 0)
(-0.0161216 0.0308333 0)
(-0.0230369 0.035927 0)
(-0.0306883 0.0400101 0)
(-0.0388674 0.0430134 0)
(-0.0473709 0.0449083 0)
(-0.0560029 0.0456987 0)
(-0.0645766 0.0454151 0)
(-0.072916 0.0441087 0)
(-0.0808577 0.0418466 0)
(-0.0882523 0.0387078 0)
(-0.0949651 0.0347808 0)
(-0.100877 0.0301606 0)
(-0.105886 0.0249479 0)
(-0.109904 0.0192475 0)
(-0.112863 0.0131682 0)
(-0.11471 0.00682198 0)
(-0.11541 0.0003244 0)
(-0.114946 -0.00620595 0)
(-0.11332 -0.0126475 0)
(-0.110553 -0.018876 0)
(-0.106685 -0.0247658 0)
(-0.101776 -0.0301901 0)
(-0.0959069 -0.0350238 0)
(-0.0891795 -0.0391447 0)
(-0.0817156 -0.0424373 0)
(-0.0736575 -0.0447956 0)
(-0.0651659 -0.0461277 0)
(-0.0564189 -0.0463604 0)
(-0.0476093 -0.0454443 0)
(-0.0389413 -0.04336 0)
(-0.0306269 -0.0401232 0)
(-0.0228823 -0.0357917 0)
(-0.0159238 -0.0304705 0)
(-0.00995819 -0.0243179 0)
(-0.00517495 -0.0175487 0)
(-0.00182258 -0.0104362 0)
(-0.000271813 -0.00333048 0)
(-0.000321909 0.00457994 0)
(-0.00210621 0.0137395 0)
(-0.00590455 0.0224906 0)
(-0.0112518 0.0305212 0)
(-0.0178375 0.0376018 0)
(-0.0254346 0.0435635 0)
(-0.0338099 0.0482931 0)
(-0.0427311 0.051727 0)
(-0.0519752 0.0538441 0)
(-0.0613302 0.054658 0)
(-0.070596 0.0542107 0)
(-0.0795865 0.0525662 0)
(-0.0881304 0.0498059 0)
(-0.0960723 0.0460241 0)
(-0.103273 0.041325 0)
(-0.109611 0.0358202 0)
(-0.11498 0.0296268 0)
(-0.119291 0.0228666 0)
(-0.122475 0.0156655 0)
(-0.124476 0.00815312 0)
(-0.125258 0.000462602 0)
(-0.124803 -0.00726911 0)
(-0.12311 -0.0149016 0)
(-0.120198 -0.0222912 0)
(-0.116106 -0.0292921 0)
(-0.110894 -0.035757 0)
(-0.104642 -0.0415395 0)
(-0.0974518 -0.0464963 0)
(-0.0894489 -0.0504905 0)
(-0.0807794 -0.0533959 0)
(-0.0716114 -0.0551011 0)
(-0.0621328 -0.0555157 0)
(-0.0525495 -0.0545757 0)
(-0.0430826 -0.05225 0)
(-0.0339647 -0.048547 0)
(-0.0254364 -0.0435209 0)
(-0.0177421 -0.0372777 0)
(-0.0111192 -0.0299806 0)
(-0.00578923 -0.0218518 0)
(-0.00204213 -0.0131738 0)
(-0.000305071 -0.00430603 0)
(-0.000354803 0.00570091 0)
(-0.00231794 0.0168324 0)
(-0.00648997 0.0272873 0)
(-0.0123497 0.036757 0)
(-0.0195464 0.045016 0)
(-0.0278231 0.0519012 0)
(-0.0369191 0.0573069 0)
(-0.0465777 0.061179 0)
(-0.0565556 0.0635077 0)
(-0.0666241 0.0643198 0)
(-0.0765704 0.0636718 0)
(-0.0861983 0.0616435 0)
(-0.0953295 0.0583328 0)
(-0.103804 0.0538511 0)
(-0.111478 0.0483197 0)
(-0.118228 0.0418674 0)
(-0.123948 0.0346289 0)
(-0.128547 0.026743 0)
(-0.131953 0.0183529 0)
(-0.134112 0.00960537 0)
(-0.134985 0.000651412 0)
(-0.134552 -0.00835406 0)
(-0.13281 -0.017252 0)
(-0.129776 -0.0258793 0)
(-0.125486 -0.0340697 0)
(-0.119996 -0.0416548 0)
(-0.113387 -0.0484663 0)
(-0.105759 -0.054338 0)
(-0.097238 -0.0591102 0)
(-0.087974 -0.0626336 0)
(-0.0781408 -0.064775 0)
(-0.0679357 -0.065423 0)
(-0.0575778 -0.0644953 0)
(-0.0473054 -0.0619454 0)
(-0.0373728 -0.0577701 0)
(-0.0280465 -0.0520164 0)
(-0.0196009 -0.0447879 0)
(-0.0123059 -0.0362495 0)
(-0.00641676 -0.0266298 0)
(-0.00226623 -0.0162205 0)
(-0.00033897 -0.00539305 0)
(-0.000387972 0.00692928 0)
(-0.00253096 0.0202174 0)
(-0.00707837 0.0325275 0)
(-0.0134523 0.0435534 0)
(-0.0212613 0.0530752 0)
(-0.0302178 0.0609383 0)
(-0.0400326 0.067048 0)
(-0.0504239 0.0713637 0)
(-0.0611277 0.0738908 0)
(-0.0718986 0.0746731 0)
(-0.0825111 0.0737852 0)
(-0.0927599 0.0713257 0)
(-0.10246 0.0674115 0)
(-0.111448 0.0621729 0)
(-0.119578 0.0557502 0)
(-0.126725 0.0482903 0)
(-0.132783 0.0399456 0)
(-0.137661 0.0308724 0)
(-0.141288 0.021231 0)
(-0.143607 0.011185 0)
(-0.14458 0.000902544 0)
(-0.144184 -0.00944398 0)
(-0.142414 -0.0196773 0)
(-0.139282 -0.0296153 0)
(-0.134822 -0.0390714 0)
(-0.129086 -0.0478558 0)
(-0.12215 -0.0557772 0)
(-0.114114 -0.0626454 0)
(-0.105101 -0.0682758 0)
(-0.0952639 -0.0724936 0)
(-0.0847806 -0.0751401 0)
(-0.0738571 -0.0760795 0)
(-0.0627251 -0.0752068 0)
(-0.0516407 -0.0724557 0)
(-0.0408807 -0.0678067 0)
(-0.030739 -0.0612953 0)
(-0.0215219 -0.0530187 0)
(-0.0135343 -0.0431412 0)
(-0.00706733 -0.0318962 0)
(-0.00249901 -0.0195853 0)
(-0.000374331 -0.00659495 0)
(-0.000421903 0.00826641 0)
(-0.00274773 0.0238974 0)
(-0.00767552 0.0382147 0)
(-0.0145691 0.0509136 0)
(-0.0229944 0.0617815 0)
(-0.0326324 0.0706747 0)
(-0.0431643 0.0775133 0)
(-0.0542826 0.0822743 0)
(-0.0657019 0.0849827 0)
(-0.0771604 0.0857036 0)
(-0.0884202 0.0845334 0)
(-0.0992678 0.081593 0)
(-0.109513 0.077021 0)
(-0.11899 0.0709691 0)
(-0.127552 0.0635975 0)
(-0.135075 0.0550727 0)
(-0.141453 0.045565 0)
(-0.146599 0.0352482 0)
(-0.15044 0.0242991 0)
(-0.152921 0.0128977 0)
(-0.154002 0.00122828 0)
(-0.153659 -0.0105203 0)
(-0.151883 -0.0221534 0)
(-0.148684 -0.0334706 0)
(-0.144087 -0.0442654 0)
(-0.138142 -0.0543265 0)
(-0.130918 -0.0634389 0)
(-0.122509 -0.0713875 0)
(-0.113039 -0.0779604 0)
(-0.102657 -0.0829546 0)
(-0.0915458 -0.0861824 0)
(-0.0799175 -0.0874792 0)
(-0.0680161 -0.0867124 0)
(-0.0561153 -0.0837906 0)
(-0.0445151 -0.0786728 0)
(-0.0335384 -0.0713781 0)
(-0.0235258 -0.0619931 0)
(-0.0148198 -0.0506784 0)
(-0.00775026 -0.0376707 0)
(-0.00274437 -0.023282 0)
(-0.000411906 -0.00791722 0)
(-0.000457025 0.0097149 0)
(-0.00297048 0.0278781 0)
(-0.0082867 0.0443555 0)
(-0.0157082 0.0588438 0)
(-0.0247565 0.0711387 0)
(-0.0350788 0.0811107 0)
(-0.0463256 0.0886986 0)
(-0.0581625 0.0939014 0)
(-0.0702827 0.0967688 0)
(-0.082408 0.0973917 0)
(-0.0942892 0.0958928 0)
(-0.105705 0.0924188 0)
(-0.116463 0.0871334 0)
(-0.126395 0.0802116 0)
(-0.135356 0.0718356 0)
(-0.143226 0.062192 0)
(-0.1499 0.0514696 0)
(-0.155295 0.0398593 0)
(-0.15934 0.0275536 0)
(-0.161982 0.0147478 0)
(-0.163179 0.00164104 0)
(-0.162906 -0.0115626 0)
(-0.16115 -0.0246526 0)
(-0.157916 -0.0374113 0)
(-0.153223 -0.0496131 0)
(-0.147113 -0.0610255 0)
(-0.139648 -0.0714098 0)
(-0.130915 -0.0805243 0)
(-0.121031 -0.0881282 0)
(-0.110145 -0.093987 0)
(-0.0984372 -0.0978803 0)
(-0.0861264 -0.0996099 0)
(-0.0734672 -0.0990099 0)
(-0.0607499 -0.0959576 0)
(-0.0482987 -0.0903848 0)
(-0.0364669 -0.0822879 0)
(-0.0256317 -0.0717381 0)
(-0.0161766 -0.0588888 0)
(-0.00847438 -0.0439781 0)
(-0.00300598 -0.0273288 0)
(-0.000452398 -0.00936733 0)
(-0.000493738 0.0112785 0)
(-0.00320133 0.0321677 0)
(-0.00891691 0.0509599 0)
(-0.0168777 0.0673527 0)
(-0.0265573 0.0811522 0)
(-0.037567 0.0922465 0)
(-0.0495246 0.100597 0)
(-0.0620678 0.106231 0)
(-0.0748681 0.109228 0)
(-0.0876314 0.10971 0)
(-0.100098 0.107831 0)
(-0.112041 0.103767 0)
(-0.123267 0.0977103 0)
(-0.133608 0.0898624 0)
(-0.142926 0.0804288 0)
(-0.151101 0.0696169 0)
(-0.158038 0.0576343 0)
(-0.163655 0.0446882 0)
(-0.167888 0.030986 0)
(-0.170683 0.0167368 0)
(-0.172002 0.00215277 0)
(-0.171816 -0.0125488 0)
(-0.17011 -0.0271433 0)
(-0.166879 -0.0413974 0)
(-0.162138 -0.055068 0)
(-0.155918 -0.067902 0)
(-0.148271 -0.0796369 0)
(-0.139274 -0.0900037 0)
(-0.129036 -0.0987307 0)
(-0.117698 -0.105549 0)
(-0.10544 -0.110201 0)
(-0.0924806 -0.11245 0)
(-0.0790847 -0.11209 0)
(-0.0655584 -0.10896 0)
(-0.0522495 -0.102957 0)
(-0.0395435 -0.0940488 0)
(-0.0278571 -0.0822843 0)
(-0.0176185 -0.0678052 0)
(-0.00924815 -0.0508487 0)
(-0.00328741 -0.0317483 0)
(-0.000496492 -0.0109546 0)
(-0.000532442 0.0129618 0)
(-0.00344237 0.0367766 0)
(-0.0095711 0.0580402 0)
(-0.0180851 0.0764512 0)
(-0.0284059 0.0918282 0)
(-0.0401054 0.104081 0)
(-0.0527667 0.1132 0)
(-0.0659982 0.119245 0)
(-0.0794493 0.122332 0)
(-0.0928108 0.122622 0)
(-0.105814 0.120303 0)
(-0.11823 0.115588 0)
(-0.129864 0.1087 0)
(-0.140554 0.0998701 0)
(-0.150168 0.0893284 0)
(-0.158596 0.0773043 0)
(-0.165748 0.0640236 0)
(-0.171551 0.0497092 0)
(-0.175946 0.034582 0)
(-0.178884 0.0188627 0)
(-0.180327 0.00277419 0)
(-0.180245 -0.0134552 0)
(-0.178618 -0.0295895 0)
(-0.175437 -0.0453821 0)
(-0.170704 -0.060574 0)
(-0.16444 -0.074893 0)
(-0.156684 -0.0880535 0)
(-0.1475 -0.0997587 0)
(-0.136984 -0.109704 0)
(-0.125265 -0.117584 0)
(-0.112518 -0.123099 0)
(-0.098961 -0.125966 0)
(-0.0848634 -0.125933 0)
(-0.070546 -0.122794 0)
(-0.05638 -0.116401 0)
(-0.0427842 -0.106684 0)
(-0.0302177 -0.0936644 0)
(-0.0191582 -0.0774645 0)
(-0.0100798 -0.0583176 0)
(-0.00359219 -0.036567 0)
(-0.000544883 -0.0126903 0)
(-0.000573579 0.0147709 0)
(-0.00369591 0.0417179 0)
(-0.0102546 0.0656118 0)
(-0.0193385 0.0861521 0)
(-0.0303113 0.103173 0)
(-0.0427017 0.116611 0)
(-0.0560548 0.126491 0)
(-0.0699486 0.132914 0)
(-0.0840102 0.136041 0)
(-0.0979162 0.136075 0)
(-0.111391 0.133249 0)
(-0.124206 0.127816 0)
(-0.13617 0.120035 0)
(-0.147131 0.110167 0)
(-0.156965 0.0984703 0)
(-0.165574 0.0851964 0)
(-0.172879 0.0705893 0)
(-0.178818 0.0548861 0)
(-0.18334 0.038319 0)
(-0.186401 0.0211179 0)
(-0.187965 0.00351387 0)
(-0.188004 -0.0142573 0)
(-0.186491 -0.0319511 0)
(-0.183409 -0.0493107 0)
(-0.178752 -0.0660642 0)
(-0.172523 -0.081922 0)
(-0.164748 -0.0965769 0)
(-0.155471 -0.109704 0)
(-0.144772 -0.120966 0)
(-0.132767 -0.130015 0)
(-0.119615 -0.136506 0)
(-0.10553 -0.140106 0)
(-0.0907842 -0.140506 0)
(-0.0757083 -0.137445 0)
(-0.0606964 -0.130721 0)
(-0.0462012 -0.120216 0)
(-0.0327275 -0.105912 0)
(-0.020808 -0.087907 0)
(-0.0109777 -0.0664242 0)
(-0.00392398 -0.0418155 0)
(-0.000598303 -0.0145874 0)
(-0.00061768 0.0167129 0)
(-0.00396468 0.0470075 0)
(-0.0109736 0.073693 0)
(-0.0206469 0.0964701 0)
(-0.0322833 0.115192 0)
(-0.045363 0.129828 0)
(-0.0593899 0.140447 0)
(-0.0739095 0.1472 0)
(-0.0885267 0.1503 0)
(-0.102906 0.150003 0)
(-0.116768 0.146592 0)
(-0.129887 0.140366 0)
(-0.142081 0.131625 0)
(-0.15321 0.120664 0)
(-0.163166 0.107771 0)
(-0.171864 0.0932182 0)
(-0.179243 0.0772679 0)
(-0.185253 0.0601695 0)
(-0.189852 0.0421644 0)
(-0.193007 0.0234884 0)
(-0.194686 0.00437707 0)
(-0.194858 -0.0149299 0)
(-0.193495 -0.0341835 0)
(-0.19057 -0.0531206 0)
(-0.186065 -0.0714596 0)
(-0.179966 -0.0888969 0)
(-0.172278 -0.105105 0)
(-0.163026 -0.119734 0)
(-0.152266 -0.132409 0)
(-0.140091 -0.142742 0)
(-0.126646 -0.150335 0)
(-0.11213 -0.154797 0)
(-0.0968116 -0.155756 0)
(-0.0810295 -0.152883 0)
(-0.0651975 -0.14591 0)
(-0.0498028 -0.134659 0)
(-0.0353992 -0.119059 0)
(-0.0225802 -0.0991752 0)
(-0.0119503 -0.0752126 0)
(-0.00428668 -0.0475286 0)
(-0.000657567 -0.0166609 0)
(-0.000665416 0.0187965 0)
(-0.00425207 0.0526646 0)
(-0.0117358 0.0823055 0)
(-0.0220214 0.107421 0)
(-0.0343334 0.12789 0)
(-0.0480973 0.143721 0)
(-0.0627711 0.155038 0)
(-0.0778664 0.162051 0)
(-0.0929666 0.165037 0)
(-0.107726 0.164316 0)
(-0.121866 0.16023 0)
(-0.135167 0.153128 0)
(-0.147464 0.143357 0)
(-0.158633 0.13125 0)
(-0.168586 0.117124 0)
(-0.17726 0.101274 0)
(-0.184611 0.0839771 0)
(-0.190606 0.0654948 0)
(-0.195221 0.0460734 0)
(-0.198429 0.0259514 0)
(-0.200206 0.00536444 0)
(-0.200523 -0.0154484 0)
(-0.199347 -0.0362383 0)
(-0.196643 -0.0567405 0)
(-0.192376 -0.0766683 0)
(-0.186516 -0.0957082 0)
(-0.179044 -0.113516 0)
(-0.169959 -0.129716 0)
(-0.159286 -0.1439 0)
(-0.147092 -0.155635 0)
(-0.133495 -0.164468 0)
(-0.118676 -0.169941 0)
(-0.102891 -0.171608 0)
(-0.0864799 -0.16906 0)
(-0.0698737 -0.16195 0)
(-0.0535932 -0.15002 0)
(-0.0382439 -0.133137 0)
(-0.0244872 -0.111313 0)
(-0.0130069 -0.0847304 0)
(-0.00468468 -0.0537454 0)
(-0.000723612 -0.018928 0)
(-0.000717684 0.0210325 0)
(-0.00456256 0.0587125 0)
(-0.0125511 0.0914752 0)
(-0.0234758 0.119025 0)
(-0.0364758 0.141269 0)
(-0.0509135 0.15827 0)
(-0.0661963 0.170217 0)
(-0.0818 0.177396 0)
(-0.0972875 0.180159 0)
(-0.112307 0.178901 0)
(-0.126585 0.174033 0)
(-0.139917 0.165963 0)
(-0.152157 0.155089 0)
(-0.163206 0.141785 0)
(-0.173003 0.126396 0)
(-0.18151 0.109242 0)
(-0.188707 0.0906139 0)
(-0.194584 0.0707791 0)
(-0.199133 0.0499869 0)
(-0.202341 0.0284737 0)
(-0.204192 0.0064705 0)
(-0.204659 -0.0157896 0)
(-0.203707 -0.0380637 0)
(-0.201292 -0.060091 0)
(-0.197362 -0.0815852 0)
(-0.191868 -0.102228 0)
(-0.184761 -0.121663 0)
(-0.17601 -0.139492 0)
(-0.165605 -0.155275 0)
(-0.153578 -0.168532 0)
(-0.14001 -0.178752 0)
(-0.125053 -0.185402 0)
(-0.108943 -0.187954 0)
(-0.0920134 -0.185902 0)
(-0.0747055 -0.1788 0)
(-0.0575716 -0.166295 0)
(-0.0412716 -0.148168 0)
(-0.0265419 -0.124366 0)
(-0.014158 -0.0950296 0)
(-0.0051231 -0.0605096 0)
(-0.000797571 -0.0214084 0)
(-0.000775706 0.023434 0)
(-0.00490213 0.0651804 0)
(-0.0134325 0.101233 0)
(-0.0250287 0.1313 0)
(-0.038729 0.155329 0)
(-0.053823 0.173446 0)
(-0.0696619 0.185925 0)
(-0.0856843 0.193142 0)
(-0.101435 0.195544 0)
(-0.116561 0.193613 0)
(-0.130802 0.187838 0)
(-0.143974 0.178699 0)
(-0.155961 0.166645 0)
(-0.166696 0.152095 0)
(-0.176149 0.135426 0)
(-0.184317 0.116977 0)
(-0.191209 0.0970509 0)
(-0.19684 0.0759196 0)
(-0.201222 0.0538295 0)
(-0.204362 0.0310101 0)
(-0.206251 0.00768213 0)
(-0.206869 -0.0159335 0)
(-0.206177 -0.0396059 0)
(-0.204122 -0.0630849 0)
(-0.200639 -0.0860914 0)
(-0.195651 -0.108309 0)
(-0.189082 -0.129373 0)
(-0.180863 -0.148871 0)
(-0.170942 -0.166332 0)
(-0.159306 -0.18123 0)
(-0.145991 -0.192993 0)
(-0.131108 -0.201008 0)
(-0.11486 -0.204648 0)
(-0.0975637 -0.203299 0)
(-0.0796608 -0.196394 0)
(-0.0617315 -0.183462 0)
(-0.0444912 -0.16417 0)
(-0.0287589 -0.138377 0)
(-0.0154158 -0.106166 0)
(-0.00560816 -0.0678706 0)
(-0.000880853 -0.0241246 0)
(-0.000841178 0.0260183 0)
(-0.00527898 0.0721045 0)
(-0.0143979 0.111619 0)
(-0.0267042 0.144272 0)
(-0.0411167 0.170065 0)
(-0.0568397 0.189208 0)
(-0.0731622 0.202079 0)
(-0.089485 0.209168 0)
(-0.105339 0.211035 0)
(-0.120378 0.208266 0)
(-0.134362 0.201443 0)
(-0.147141 0.19112 0)
(-0.158636 0.177809 0)
(-0.168821 0.161971 0)
(-0.177709 0.144016 0)
(-0.185332 0.1243 0)
(-0.191737 0.103135 0)
(-0.196969 0.0807913 0)
(-0.201065 0.057508 0)
(-0.204051 0.0335018 0)
(-0.205931 0.00897697 0)
(-0.206691 -0.0158642 0)
(-0.206293 -0.0408102 0)
(-0.204674 -0.0656287 0)
(-0.201753 -0.0900557 0)
(-0.19743 -0.113783 0)
(-0.191593 -0.13645 0)
(-0.184133 -0.157631 0)
(-0.17495 -0.176831 0)
(-0.163975 -0.193483 0)
(-0.151188 -0.206949 0)
(-0.136644 -0.216533 0)
(-0.1205 -0.221499 0)
(-0.103039 -0.221103 0)
(-0.0846919 -0.214635 0)
(-0.066059 -0.201474 0)
(-0.0479102 -0.181145 0)
(-0.0311548 -0.153387 0)
(-0.0167955 -0.1182 0)
(-0.00614775 -0.0758842 0)
(-0.000975284 -0.0271029 0)
(-0.000916477 0.0288071 0)
(-0.00570435 0.0795314 0)
(-0.015471 0.122678 0)
(-0.0285346 0.157967 0)
(-0.0436694 0.185467 0)
(-0.0599801 0.205498 0)
(-0.0766872 0.21857 0)
(-0.0931548 0.225318 0)
(-0.108908 0.226435 0)
(-0.123616 0.222634 0)
(-0.137073 0.214599 0)
(-0.149174 0.20297 0)
(-0.159891 0.188323 0)
(-0.169248 0.171165 0)
(-0.177306 0.151935 0)
(-0.184147 0.131004 0)
(-0.189854 0.108686 0)
(-0.194509 0.0852461 0)
(-0.198177 0.06091 0)
(-0.200906 0.0358749 0)
(-0.202717 0.010322 0)
(-0.203602 -0.0155722 0)
(-0.203526 -0.041623 0)
(-0.202419 -0.0676242 0)
(-0.200183 -0.0933354 0)
(-0.196693 -0.118467 0)
(-0.191805 -0.142668 0)
(-0.185361 -0.165513 0)
(-0.177209 -0.186489 0)
(-0.167213 -0.204991 0)
(-0.155285 -0.220322 0)
(-0.141408 -0.231695 0)
(-0.125675 -0.238255 0)
(-0.108314 -0.239109 0)
(-0.0897306 -0.233378 0)
(-0.070531 -0.220253 0)
(-0.0515353 -0.199079 0)
(-0.0337494 -0.169433 0)
(-0.018316 -0.131197 0)
(-0.00675212 -0.0846144 0)
(-0.00108329 -0.0303745 0)
(-0.00100497 0.0318295 0)
(-0.00619379 0.087521 0)
(-0.0166842 0.134472 0)
(-0.0305621 0.172416 0)
(-0.0464255 0.201513 0)
(-0.0632622 0.222232 0)
(-0.0802187 0.235254 0)
(-0.0966272 0.241387 0)
(-0.112017 0.241494 0)
(-0.12609 0.236429 0)
(-0.13869 0.226999 0)
(-0.149772 0.213935 0)
(-0.15937 0.197879 0)
(-0.167573 0.179384 0)
(-0.1745 0.158912 0)
(-0.180283 0.136846 0)
(-0.185053 0.113495 0)
(-0.188929 0.0891128 0)
(-0.192008 0.063904 0)
(-0.194362 0.0380403 0)
(-0.196029 0.0116726 0)
(-0.197013 -0.0150556 0)
(-0.19728 -0.041994 0)
(-0.196756 -0.0689715 0)
(-0.195331 -0.0957802 0)
(-0.192855 -0.12216 0)
(-0.189147 -0.14778 0)
(-0.184005 -0.172225 0)
(-0.177212 -0.194978 0)
(-0.168564 -0.215405 0)
(-0.157887 -0.232751 0)
(-0.145078 -0.246142 0)
(-0.130137 -0.254594 0)
(-0.113221 -0.257048 0)
(-0.0946808 -0.252421 0)
(-0.0751106 -0.23968 0)
(-0.0553706 -0.217933 0)
(-0.0365668 -0.186543 0)
(-0.0200022 -0.145226 0)
(-0.00743501 -0.0941355 0)
(-0.00120819 -0.0339765 0)
(-0.00111149 0.0351237 0)
(-0.00676895 0.0961516 0)
(-0.0180812 0.147075 0)
(-0.0328418 0.18765 0)
(-0.0494315 0.21817 0)
(-0.066702 0.239298 0)
(-0.083723 0.251935 0)
(-0.0998044 0.257113 0)
(-0.114497 0.255894 0)
(-0.127557 0.249302 0)
(-0.138898 0.238276 0)
(-0.148555 0.223646 0)
(-0.15664 0.20612 0)
(-0.163317 0.186292 0)
(-0.16877 0.164642 0)
(-0.17319 0.141554 0)
(-0.176758 0.117329 0)
(-0.179633 0.0921992 0)
(-0.181944 0.0663413 0)
(-0.183789 0.0398943 0)
(-0.185226 0.0129721 0)
(-0.18627 -0.0143218 0)
(-0.186892 -0.0418794 0)
(-0.187019 -0.0695725 0)
(-0.186527 -0.0972359 0)
(-0.185247 -0.124649 0)
(-0.182964 -0.151516 0)
(-0.179428 -0.177445 0)
(-0.174361 -0.201927 0)
(-0.167477 -0.224314 0)
(-0.158508 -0.243806 0)
(-0.147242 -0.259443 0)
(-0.133568 -0.27011 0)
(-0.117534 -0.274566 0)
(-0.0994079 -0.271491 0)
(-0.0797415 -0.259575 0)
(-0.0594164 -0.237631 0)
(-0.0396369 -0.204733 0)
(-0.0218871 -0.160363 0)
(-0.00821529 -0.104536 0)
(-0.00135467 -0.0379549 0)
(-0.00124304 0.0387418 0)
(-0.00746019 0.105526 0)
(-0.0197208 0.16058 0)
(-0.0354443 0.203703 0)
(-0.0527411 0.235378 0)
(-0.0703071 0.256531 0)
(-0.0871378 0.268355 0)
(-0.102539 0.272157 0)
(-0.116112 0.269241 0)
(-0.127692 0.260825 0)
(-0.137293 0.247991 0)
(-0.145049 0.231671 0)
(-0.151169 0.212636 0)
(-0.1559 0.191509 0)
(-0.159504 0.168782 0)
(-0.162231 0.144831 0)
(-0.164313 0.119935 0)
(-0.165949 0.0942964 0)
(-0.167303 0.0680588 0)
(-0.168496 0.0413206 0)
(-0.169605 0.0141523 0)
(-0.17066 -0.0133891 0)
(-0.17164 -0.0412443 0)
(-0.172473 -0.0693362 0)
(-0.173028 -0.0975513 0)
(-0.17312 -0.12572 0)
(-0.172509 -0.153596 0)
(-0.170898 -0.180825 0)
(-0.167947 -0.206925 0)
(-0.163287 -0.231253 0)
(-0.156546 -0.252982 0)
(-0.147384 -0.271078 0)
(-0.135549 -0.284299 0)
(-0.120948 -0.291207 0)
(-0.103722 -0.290216 0)
(-0.0843372 -0.279683 0)
(-0.0636651 -0.258046 0)
(-0.0429964 -0.223998 0)
(-0.0240148 -0.17669 0)
(-0.00911944 -0.115922 0)
(-0.00152949 -0.0423675 0)
(-0.00141008 0.0427548 0)
(-0.00831056 0.115781 0)
(-0.0216828 0.175103 0)
(-0.0384579 0.220602 0)
(-0.0564105 0.253038 0)
(-0.0740626 0.273701 0)
(-0.0903497 0.284164 0)
(-0.104606 0.28608 0)
(-0.116521 0.28104 0)
(-0.126052 0.270476 0)
(-0.133342 0.255626 0)
(-0.138651 0.237514 0)
(-0.142299 0.216965 0)
(-0.144631 0.194621 0)
(-0.145984 0.170968 0)
(-0.146673 0.146359 0)
(-0.146977 0.121044 0)
(-0.147135 0.0951867 0)
(-0.147338 0.0688861 0)
(-0.147732 0.0421952 0)
(-0.148411 0.0151358 0)
(-0.14942 -0.0122864 0)
(-0.150747 -0.0400664 0)
(-0.152324 -0.0681841 0)
(-0.154024 -0.0965862 0)
(-0.155651 -0.125165 0)
(-0.156945 -0.153736 0)
(-0.157574 -0.182003 0)
(-0.157142 -0.209532 0)
(-0.155198 -0.235709 0)
(-0.151259 -0.259703 0)
(-0.144844 -0.280433 0)
(-0.135534 -0.29654 0)
(-0.123049 -0.30639 0)
(-0.107351 -0.308102 0)
(-0.088763 -0.299644 0)
(-0.068093 -0.278981 0)
(-0.0466889 -0.244302 0)
(-0.0264456 -0.194294 0)
(-0.0101854 -0.128425 0)
(-0.00174274 -0.0472892 0)
(-0.00162853 0.0472616 0)
(-0.00938203 0.127098 0)
(-0.0240742 0.190785 0)
(-0.0419898 0.238357 0)
(-0.0604872 0.270987 0)
(-0.0779071 0.290475 0)
(-0.0931584 0.298892 0)
(-0.105657 0.298319 0)
(-0.115239 0.290677 0)