/*--------------------------------*- C++ -*----------------------------------*\
| =========                 |                                                 |
| \\      /  F ield         | OpenFOAM: The Open Source CFD Toolbox           |
|  \\    /   O peration     | Version:  2306                                  |
|   \\  /    A nd           | Website:  www.openfoam.com                      |
|    \\/     M anipulation  |                                                 |
\*---------------------------------------------------------------------------*/
FoamFile
{
    version     2.0;
    format      ascii;
    arch        "LSB;label=32;scalar=64";
    class       volScalarField;
    location    "0.7";
    object      Ux;
}
// * * * * * * * * * * * * * * * * * * * * * * * * * * * * * * * * * * * * * //

dimensions      [0 1 -1 0 0 0 0];

internalField   nonuniform List<scalar> 
1681
(
5.66843e-05
0.00014888
0.000157115
2.59367e-05
-0.000254489
-0.000670287
-0.00119973
-0.00181852
-0.00250192
-0.00322587
-0.00396764
-0.00470605
-0.00542173
-0.0060971
-0.00671647
-0.00726606
-0.00773397
-0.00811024
-0.00838684
-0.00855774
-0.00861898
-0.0085687
-0.00840723
-0.0081372
-0.00776357
-0.00729375
-0.00673758
-0.00610738
-0.00541791
-0.00468626
-0.00393173
-0.00317563
-0.00244093
-0.00175191
-0.00113356
-0.00061079
-0.000207061
5.78295e-05
0.000173095
0.000152783
5.63926e-05
5.67772e-05
7.84796e-05
-0.000139961
-0.00067634
-0.00154809
-0.00273355
-0.00419004
-0.00586431
-0.0076986
-0.00963424
-0.011614
-0.0135835
-0.0154919
-0.0172929
-0.0189446
-0.0204099
-0.0216571
-0.0226591
-0.0233946
-0.0238476
-0.0240074
-0.0238696
-0.0234354
-0.0227123
-0.021714
-0.0204608
-0.0189791
-0.0173019
-0.0154685
-0.0135239
-0.0115183
-0.00950673
-0.00754752
-0.00570119
-0.00402835
-0.00258702
-0.00142856
-0.00059161
-9.17509e-05
9.64588e-05
5.95576e-05
1.3868e-05
-0.000145125
-0.000714771
-0.00174448
-0.00324021
-0.00517255
-0.00748472
-0.0101038
-0.0129488
-0.0159357
-0.0189812
-0.022005
-0.0249315
-0.0276908
-0.0302197
-0.0324622
-0.0343695
-0.0359011
-0.037024
-0.0377142
-0.0379558
-0.037742
-0.0370753
-0.0359672
-0.034439
-0.0325217
-0.0302557
-0.027691
-0.0248867
-0.0219104
-0.0188371
-0.0157479
-0.0127288
-0.00986721
-0.00724998
-0.00495848
-0.00306329
-0.00161607
-0.000638591
-0.00011429
1.95876e-05
-3.87681e-05
-0.000416314
-0.00139409
-0.00296421
-0.00510557
-0.00777554
-0.010903
-0.0143984
-0.0181625
-0.0220918
-0.0260827
-0.0300345
-0.0338518
-0.037446
-0.0407368
-0.0436523
-0.0461304
-0.0481188
-0.0495758
-0.0504702
-0.0507821
-0.050503
-0.049636
-0.0481964
-0.0462117
-0.0437214
-0.0407775
-0.0374438
-0.0337954
-0.0299179
-0.0259061
-0.0218619
-0.0178925
-0.0141068
-0.010612
-0.00750799
-0.00488199
-0.00279948
-0.0012944
-0.000374784
-3.06893e-05
-9.01616e-05
-0.000693374
-0.00209885
-0.00422849
-0.00702421
-0.0104243
-0.0143409
-0.0186679
-0.0232899
-0.0280868
-0.0329385
-0.037728
-0.0423439
-0.0466826
-0.0506497
-0.0541609
-0.0571429
-0.0595344
-0.0612861
-0.0623612
-0.0627365
-0.0624018
-0.0613611
-0.0596324
-0.057248
-0.0542545
-0.050713
-0.0466983
-0.0422984
-0.0376134
-0.0327538
-0.0278386
-0.0229923
-0.0183415
-0.0140105
-0.0101166
-0.00676367
-0.00403385
-0.0019793
-0.000642705
-8.00713e-05
-0.000137242
-0.000960099
-0.00279222
-0.00548264
-0.00893132
-0.0130531
-0.01774
-0.0228686
-0.0283073
-0.0339211
-0.0395754
-0.0451392
-0.0504881
-0.0555062
-0.0600878
-0.0641385
-0.0675761
-0.0703318
-0.0723503
-0.0735904
-0.0740258
-0.0736451
-0.0724527
-0.0704685
-0.0677285
-0.064285
-0.0602058
-0.0555746
-0.0504898
-0.045063
-0.0394179
-0.0336877
-0.0280118
-0.0225326
-0.0173909
-0.0127208
-0.00864472
-0.0052649
-0.00265633
-0.000901528
-0.000125324
-0.000179773
-0.00121181
-0.00345997
-0.0067029
-0.010797
-0.0156307
-0.0210736
-0.0269831
-0.0332109
-0.0396073
-0.0460244
-0.0523189
-0.0583551
-0.0640069
-0.0691592
-0.0737094
-0.0775685
-0.0806613
-0.0829279
-0.0843234
-0.0848188
-0.0844018
-0.0830765
-0.0808641
-0.0778033
-0.0739501
-0.0693781
-0.0641775
-0.0584549
-0.0523318
-0.0459428
-0.0394334
-0.0329571
-0.0266711
-0.0207326
-0.0152941
-0.0104984
-0.00647062
-0.00331198
-0.00114668
-0.000166167
-0.000218534
-0.0014492
-0.00410012
-0.00788377
-0.0126133
-0.018149
-0.0243365
-0.0310121
-0.0380103
-0.0451663
-0.0523192
-0.0593144
-0.0660062
-0.0722596
-0.077952
-0.082974
-0.0872309
-0.0906428
-0.0931457
-0.0946918
-0.0952501
-0.0948066
-0.0933651
-0.0909476
-0.087594
-0.0833632
-0.0783325
-0.0725973
-0.0662707
-0.0594824
-0.0523766
-0.0451103
-0.0378499
-0.0307681
-0.0240391
-0.0178351
-0.0123213
-0.00764847
-0.0039458
-0.00137936
-0.00020344
-0.00025453
-0.00167511
-0.00471659
-0.00902943
-0.0143846
-0.0206136
-0.0275365
-0.0349676
-0.0427231
-0.0506229
-0.058493
-0.0661681
-0.0734932
-0.0803257
-0.0865364
-0.0920107
-0.0966492
-0.100368
-0.103101
-0.104797
-0.105422
-0.104963
-0.103421
-0.100819
-0.0971972
-0.0926153
-0.0871533
-0.0809105
-0.074005
-0.0665734
-0.0587685
-0.0507582
-0.0427219
-0.0348478
-0.0273284
-0.0203572
-0.0141239
-0.00880651
-0.0045638
-0.00160318
-0.000238279
-0.000288714
-0.00189298
-0.00531572
-0.0101486
-0.0161216
-0.0230369
-0.0306883
-0.0388674
-0.0473709
-0.0560029
-0.0645766
-0.072916
-0.0808577
-0.0882523
-0.0949651
-0.100877
-0.105886
-0.109904
-0.112863
-0.11471
-0.11541
-0.114946
-0.11332
-0.110553
-0.106685
-0.101776
-0.0959069
-0.0891795
-0.0817156
-0.0736575
-0.0651659
-0.0564189
-0.0476093
-0.0389413
-0.0306269
-0.0228823
-0.0159238
-0.00995819
-0.00517495
-0.00182258
-0.000271813
-0.000321909
-0.00210621
-0.00590455
-0.0112518
-0.0178375
-0.0254346
-0.0338099
-0.0427311
-0.0519752
-0.0613302
-0.070596
-0.0795865
-0.0881304
-0.0960723
-0.103273
-0.109611
-0.11498
-0.119291
-0.122475
-0.124476
-0.125258
-0.124803
-0.12311
-0.120198
-0.116106
-0.110894
-0.104642
-0.0974518
-0.0894489
-0.0807794
-0.0716114
-0.0621328
-0.0525495
-0.0430826
-0.0339647
-0.0254364
-0.0177421
-0.0111192
-0.00578923
-0.00204213
-0.000305071
-0.000354803
-0.00231794
-0.00648997
-0.0123497
-0.0195464
-0.0278231
-0.0369191
-0.0465777
-0.0565556
-0.0666241
-0.0765704
-0.0861983
-0.0953295
-0.103804
-0.111478
-0.118228
-0.123948
-0.128547
-0.131953
-0.134112
-0.134985
-0.134552
-0.13281
-0.129776
-0.125486
-0.119996
-0.113387
-0.105759
-0.097238
-0.087974
-0.0781408
-0.0679357
-0.0575778
-0.0473054
-0.0373728
-0.0280465
-0.0196009
-0.0123059
-0.00641676
-0.00226623
-0.00033897
-0.000387972
-0.00253096
-0.00707837
-0.0134523
-0.0212613
-0.0302178
-0.0400326
-0.0504239
-0.0611277
-0.0718986
-0.0825111
-0.0927599
-0.10246
-0.111448
-0.119578
-0.126725
-0.132783
-0.137661
-0.141288
-0.143607
-0.14458
-0.144184
-0.142414
-0.139282
-0.134822
-0.129086
-0.12215
-0.114114
-0.105101
-0.0952639
-0.0847806
-0.0738571
-0.0627251
-0.0516407
-0.0408807
-0.030739
-0.0215219
-0.0135343
-0.00706733
-0.00249901
-0.000374331
-0.000421903
-0.00274773
-0.00767552
-0.0145691
-0.0229944
-0.0326324
-0.0431643
-0.0542826
-0.0657019
-0.0771604
-0.0884202
-0.0992678
-0.109513
-0.11899
-0.127552
-0.135075
-0.141453
-0.146599
-0.15044
-0.152921
-0.154002
-0.153659
-0.151883
-0.148684
-0.144087
-0.138142
-0.130918
-0.122509
-0.113039
-0.102657
-0.0915458
-0.0799175
-0.0680161
-0.0561153
-0.0445151
-0.0335384
-0.0235258
-0.0148198
-0.00775026
-0.00274437
-0.000411906
-0.000457025
-0.00297048
-0.0082867
-0.0157082
-0.0247565
-0.0350788
-0.0463256
-0.0581625
-0.0702827
-0.082408
-0.0942892
-0.105705
-0.116463
-0.126395
-0.135356
-0.143226
-0.1499
-0.155295
-0.15934
-0.161982
-0.163179
-0.162906
-0.16115
-0.157916
-0.153223
-0.147113
-0.139648
-0.130915
-0.121031
-0.110145
-0.0984372
-0.0861264
-0.0734672
-0.0607499
-0.0482987
-0.0364669
-0.0256317
-0.0161766
-0.00847438
-0.00300598
-0.000452398
-0.000493738
-0.00320133
-0.00891691
-0.0168777
-0.0265573
-0.037567
-0.0495246
-0.0620678
-0.0748681
-0.0876314
-0.100098
-0.112041
-0.123267
-0.133608
-0.142926
-0.151101
-0.158038
-0.163655
-0.167888
-0.170683
-0.172002
-0.171816
-0.17011
-0.166879
-0.162138
-0.155918
-0.148271
-0.139274
-0.129036
-0.117698
-0.10544
-0.0924806
-0.0790847
-0.0655584
-0.0522495
-0.0395435
-0.0278571
-0.0176185
-0.00924815
-0.00328741
-0.000496492
-0.000532442
-0.00344237
-0.0095711
-0.0180851
-0.0284059
-0.0401054
-0.0527667
-0.0659982
-0.0794493
-0.0928108
-0.105814
-0.11823
-0.129864
-0.140554
-0.150168
-0.158596
-0.165748
-0.171551
-0.175946
-0.178884
-0.180327
-0.180245
-0.178618
-0.175437
-0.170704
-0.16444
-0.156684
-0.1475
-0.136984
-0.125265
-0.112518
-0.098961
-0.0848634
-0.070546
-0.05638
-0.0427842
-0.0302177
-0.0191582
-0.0100798
-0.00359219
-0.000544883
-0.000573579
-0.00369591
-0.0102546
-0.0193385
-0.0303113
-0.0427017
-0.0560548
-0.0699486
-0.0840102
-0.0979162
-0.111391
-0.124206
-0.13617
-0.147131
-0.156965
-0.165574
-0.172879
-0.178818
-0.18334
-0.186401
-0.187965
-0.188004
-0.186491
-0.183409
-0.178752
-0.172523
-0.164748
-0.155471
-0.144772
-0.132767
-0.119615
-0.10553
-0.0907842
-0.0757083
-0.0606964
-0.0462012
-0.0327275
-0.020808
-0.0109777
-0.00392398
-0.000598303
-0.00061768
-0.00396468
-0.0109736
-0.0206469
-0.0322833
-0.045363
-0.0593899
-0.0739095
-0.0885267
-0.102906
-0.116768
-0.129887
-0.142081
-0.15321
-0.163166
-0.171864
-0.179243
-0.185253
-0.189852
-0.193007
-0.194686
-0.194858
-0.193495
-0.19057
-0.186065
-0.179966
-0.172278
-0.163026
-0.152266
-0.140091
-0.126646
-0.11213
-0.0968116
-0.0810295
-0.0651975
-0.0498028
-0.0353992
-0.0225802
-0.0119503
-0.00428668
-0.000657567
-0.000665416
-0.00425207
-0.0117358
-0.0220214
-0.0343334
-0.0480973
-0.0627711
-0.0778664
-0.0929666
-0.107726
-0.121866
-0.135167
-0.147464
-0.158633
-0.168586
-0.17726
-0.184611
-0.190606
-0.195221
-0.198429
-0.200206
-0.200523
-0.199347
-0.196643
-0.192376
-0.186516
-0.179044
-0.169959
-0.159286
-0.147092
-0.133495
-0.118676
-0.102891
-0.0864799
-0.0698737
-0.0535932
-0.0382439
-0.0244872
-0.0130069
-0.00468468
-0.000723612
-0.000717684
-0.00456256
-0.0125511
-0.0234758
-0.0364758
-0.0509135
-0.0661963
-0.0818
-0.0972875
-0.112307
-0.126585
-0.139917
-0.152157
-0.163206
-0.173003
-0.18151
-0.188707
-0.194584
-0.199133
-0.202341
-0.204192
-0.204659
-0.203707
-0.201292
-0.197362
-0.191868
-0.184761
-0.17601
-0.165605
-0.153578
-0.14001
-0.125053
-0.108943
-0.0920134
-0.0747055
-0.0575716
-0.0412716
-0.0265419
-0.014158
-0.0051231
-0.000797571
-0.000775706
-0.00490213
-0.0134325
-0.0250287
-0.038729
-0.053823
-0.0696619
-0.0856843
-0.101435
-0.116561
-0.130802
-0.143974
-0.155961
-0.166696
-0.176149
-0.184317
-0.191209
-0.19684
-0.201222
-0.204362
-0.206251
-0.206869
-0.206177
-0.204122
-0.200639
-0.195651
-0.189082
-0.180863
-0.170942
-0.159306
-0.145991
-0.131108
-0.11486
-0.0975637
-0.0796608
-0.0617315
-0.0444912
-0.0287589
-0.0154158
-0.00560816
-0.000880853
-0.000841178
-0.00527898
-0.0143979
-0.0267042
-0.0411167
-0.0568397
-0.0731622
-0.089485
-0.105339
-0.120378
-0.134362
-0.147141
-0.158636
-0.168821
-0.177709
-0.185332
-0.191737
-0.196969
-0.201065
-0.204051
-0.205931
-0.206691
-0.206293
-0.204674
-0.201753
-0.19743
-0.191593
-0.184133
-0.17495
-0.163975
-0.151188
-0.136644
-0.1205
-0.103039
-0.0846919
-0.066059
-0.0479102
-0.0311548
-0.0167955
-0.00614775
-0.000975284
-0.000916477
-0.00570435
-0.015471
-0.0285346
-0.0436694
-0.0599801
-0.0766872
-0.0931548
-0.108908
-0.123616
-0.137073
-0.149174
-0.159891
-0.169248
-0.177306
-0.184147
-0.189854
-0.194509
-0.198177
-0.200906
-0.202717
-0.203602
-0.203526
-0.202419
-0.200183
-0.196693
-0.191805
-0.185361
-0.177209
-0.167213
-0.155285
-0.141408
-0.125675
-0.108314
-0.0897306
-0.070531
-0.0515353
-0.0337494
-0.018316
-0.00675212
-0.00108329
-0.00100497
-0.00619379
-0.0166842
-0.0305621
-0.0464255
-0.0632622
-0.0802187
-0.0966272
-0.112017
-0.12609
-0.13869
-0.149772
-0.15937
-0.167573
-0.1745
-0.180283
-0.185053
-0.188929
-0.192008
-0.194362
-0.196029
-0.197013
-0.19728
-0.196756
-0.195331
-0.192855
-0.189147
-0.184005
-0.177212
-0.168564
-0.157887
-0.145078
-0.130137
-0.113221
-0.0946808
-0.0751106
-0.0553706
-0.0365668
-0.0200022
-0.00743501
-0.00120819
-0.00111149
-0.00676895
-0.0180812
-0.0328418
-0.0494315
-0.066702
-0.083723
-0.0998044
-0.114497
-0.127557
-0.138898
-0.148555
-0.15664
-0.163317
-0.16877
-0.17319
-0.176758
-0.179633
-0.181944
-0.183789
-0.185226
-0.18627
-0.186892
-0.187019
-0.186527
-0.185247
-0.182964
-0.179428
-0.174361
-0.167477
-0.158508
-0.147242
-0.133568
-0.117534
-0.0994079
-0.0797415
-0.0594164
-0.0396369
-0.0218871
-0.00821529
-0.00135467
-0.00124304
-0.00746019
-0.0197208
-0.0354443
-0.0527411
-0.0703071
-0.0871378
-0.102539
-0.116112
-0.127692
-0.137293
-0.145049
-0.151169
-0.1559
-0.159504
-0.162231
-0.164313
-0.165949
-0.167303
-0.168496
-0.169605
-0.17066
-0.17164
-0.172473
-0.173028
-0.17312
-0.172509
-0.170898
-0.167947
-0.163287
-0.156546
-0.147384
-0.135549
-0.120948
-0.103722
-0.0843372
-0.0636651
-0.0429964
-0.0240148
-0.00911944
-0.00152949
-0.00141008
-0.00831056
-0.0216828
-0.0384579
-0.0564105
-0.0740626
-0.0903497
-0.104606
-0.116521
-0.126052
-0.133342
-0.138651
-0.142299
-0.144631
-0.145984
-0.146673
-0.146977
-0.147135
-0.147338
-0.147732
-0.148411
-0.14942
-0.150747
-0.152324
-0.154024
-0.155651
-0.156945
-0.157574
-0.157142
-0.155198
-0.151259
-0.144844
-0.135534
-0.123049
-0.107351
-0.088763
-0.068093
-0.0466889
-0.0264456
-0.0101854
-0.00174274
-0.00162853
-0.00938203
-0.0240742
-0.0419898
-0.0604872
-0.0779071
-0.0931584
-0.105657
-0.115239
-0.122031
-0.126345
-0.128592
-0.12922
-0.128673
-0.127369
-0.125678
-0.123924
-0.122375
-0.121246
-0.120701
-0.120848
-0.121745
-0.123394
-0.125736
-0.12865
-0.131944
-0.135349
-0.13851
-0.14099
-0.142265
-0.141742
-0.138794
-0.132806
-0.12327
-0.109903
-0.092807
-0.0726446
-0.0507627
-0.0292613
-0.0114687
-0.00201002
-0.00192353
-0.0107653
-0.0270384
-0.0461617
-0.0649862
-0.0816877
-0.095216
-0.105153
-0.111557
-0.11479
-0.115374
-0.113892
-0.11093
-0.107031
-0.102681
-0.0982993
-0.0942387
-0.090787
-0.0881725
-0.0865676
-0.0860918
-0.0868126
-0.0887442
-0.091844
-0.0960061
-0.101052
-0.106722
-0.112658
-0.118401
-0.123374
-0.126892
-0.128181
-0.126419
-0.120828
-0.110806
-0.0961307
-0.0772024
-0.0552624
-0.0325721
-0.0130521
-0.00235626
-0.00233629
-0.0125957
-0.0307646
-0.0510945
-0.0698415
-0.0850829
-0.095931
-0.102259
-0.104454
-0.10318
-0.0992069
-0.0933088
-0.086202
-0.0785176
-0.0707929
-0.0634741
-0.0569246
-0.0514345
-0.0472304
-0.0444836
-0.0433152
-0.0437994
-0.0459632
-0.0497829
-0.0551773
-0.0619963
-0.0700071
-0.0788761
-0.088149
-0.0972318
-0.105377
-0.111685
-0.115131
-0.114637
-0.109213
-0.098187
-0.081531
-0.0602064
-0.0365232
-0.0150618
-0.0028229
-0.00293684
-0.0150786
-0.0354931
-0.0568658
-0.0748106
-0.0874672
-0.0943162
-0.0957002
-0.0924575
-0.0856234
-0.0762437
-0.0652759
-0.0535472
-0.0417454
-0.0304274
-0.0200363
-0.0109196
-0.00334706
0.00247439
0.00638878
0.0082829
0.00808153
0.00574643
0.00127918
-0.00527176
-0.0137991
-0.0241199
-0.0359523
-0.048888
-0.0623593
-0.0756073
-0.0876561
-0.0973097
-0.103193
-0.103869
-0.0980861
-0.0851711
-0.0655334
-0.041294
-0.0176916
-0.00348128
-0.00384796
-0.0185274
-0.0415027
-0.0634073
-0.0792904
-0.0876824
-0.0887529
-0.0835433
-0.0734719
-0.0599933
-0.0444205
-0.0278577
-0.0111935
0.00487918
0.0198307
0.033262
0.0448746
0.0544457
0.0618086
0.0668381
0.0694398
0.0695443
0.067105
0.0621
0.0545382
0.0444711
0.0320108
0.0173555
0.000823747
-0.0171013
-0.0357199
-0.0540601
-0.0708313
-0.0844112
-0.0929094
-0.0943784
-0.0872488
-0.0709828
-0.0470733
-0.0212397
-0.0044573
-0.00528824
-0.0234131
-0.0490372
-0.0702702
-0.0819706
-0.0836559
-0.0766389
-0.062914
-0.0445726
-0.0234758
-0.00113698
0.0212787
0.0429072
0.0631253
0.0814926
0.0977024
0.111542
0.122864
0.131562
0.137557
0.140783
0.141184
0.138709
0.133314
0.124965
0.113647
0.0993855
0.0822651
0.0624705
0.040336
0.0164136
-0.00844142
-0.0329745
-0.055443
-0.0735818
-0.0847132
-0.0861306
-0.0758382
-0.0539633
-0.0261507
-0.0059751
-0.00764148
-0.0303967
-0.058063
-0.0761099
-0.0801957
-0.0717875
-0.0538887
-0.0296413
-0.00178632
0.027536
0.0567694
0.0848363
0.11102
0.134864
0.156085
0.174521
0.190079
0.20271
0.212385
0.219082
0.222774
0.223424
0.220981
0.215381
0.206548
0.1944
0.178863
0.159892
0.137499
0.111811
0.0831353
0.0520742
0.0196608
-0.0124652
-0.0418854
-0.0653227
-0.0788242
-0.0783926
-0.061694
-0.0330264
-0.00842363
-0.0115238
-0.0401971
-0.0675645
-0.0775923
-0.0688349
-0.0460201
-0.0142901
0.0221153
0.060068
0.0974553
0.132948
0.165765
0.195488
0.221924
0.245018
0.264786
0.281283
0.294572
0.304707
0.311729
0.315651
0.31646
0.314112
0.308526
0.299592
0.287166
0.271079
0.25115
0.227206
0.19912
0.16688
0.130695
0.0911576
0.0494855
0.00784619
-0.0302985
-0.0599767
-0.0748742
-0.0688547
-0.0424319
-0.0124058
-0.0176428
-0.0527522
-0.0736526
-0.0671716
-0.0384168
0.00341392
0.0511692
0.100103
0.147338
0.191307
0.231274
0.266989
0.298469
0.325866
0.349383
0.369236
0.385623
0.398714
0.408645
0.415509
0.41936
0.420206
0.418012
0.412692
0.404111
0.392081
0.376356
0.35664
0.332585
0.303815
0.269962
0.230747
0.186122
0.136523
0.0832929
0.0292916
-0.0203326
-0.0573873
-0.0709567
-0.0539155
-0.0185317
-0.0256823
-0.0642323
-0.0650059
-0.0289269
0.027609
0.091339
0.154665
0.213766
0.267058
0.314168
0.355306
0.390924
0.421537
0.447647
0.469696
0.488066
0.503068
0.514951
0.523904
0.530059
0.533495
0.53424
0.532267
0.527494
0.51978
0.508917
0.494621
0.476524
0.454161
0.426962
0.394252
0.355272
0.309251
0.255578
0.194172
0.126206
0.0553548
-0.0103045
-0.0560923
-0.062853
-0.0261348
-0.0292045
-0.0582419
-0.0131184
0.0682724
0.156106
0.238347
0.310919
0.37312
0.425756
0.470097
0.507407
0.538789
0.565151
0.587226
0.605594
0.62071
0.632929
0.642522
0.64969
0.654573
0.657257
0.657777
0.656116
0.652205
0.645918
0.63706
0.625359
0.610449
0.591841
0.568898
0.540793
0.506465
0.464581
0.413536
0.351571
0.277242
0.190589
0.0953063
0.00374529
-0.0518621
-0.0278777
0.0109331
0.025202
0.148538
0.279288
0.385193
0.468453
0.534011
0.585808
0.627097
0.660384
0.687488
0.709722
0.728038
0.743136
0.755539
0.765634
0.773715
0.78
0.784647
0.787768
0.789429
0.789661
0.788455
0.785764
0.781496
0.775511
0.767605
0.757499
0.744806
0.729004
0.709373
0.684922
0.654261
0.615428
0.565654
0.501211
0.417436
0.308469
0.171002
0.0381025
0.0165116
0.302156
0.400918
0.563423
0.681208
0.751506
0.796577
0.827849
0.850525
0.867563
0.880757
0.891204
0.8996
0.906408
0.911947
0.916446
0.920069
0.922938
0.925142
0.926744
0.92779
0.928307
0.928306
0.927784
0.926724
0.925091
0.92283
0.91986
0.916069
0.9113
0.905334
0.897861
0.888427
0.876352
0.86056
0.839273
0.809497
0.765902
0.696808
0.578513
0.411247
0.306755
)
;

boundaryField
{
    movingWall
    {
        type            calculated;
        value           uniform 1;
    }
    fixedWalls
    {
        type            calculated;
        value           uniform 0;
    }
    frontAndBack
    {
        type            empty;
    }
}


// ************************************************************************* //
