/*--------------------------------*- C++ -*----------------------------------*\
| =========                 |                                                 |
| \\      /  F ield         | OpenFOAM: The Open Source CFD Toolbox           |
|  \\    /   O peration     | Version:  2306                                  |
|   \\  /    A nd           | Website:  www.openfoam.com                      |
|    \\/     M anipulation  |                                                 |
\*---------------------------------------------------------------------------*/
FoamFile
{
    version     2.0;
    format      ascii;
    arch        "LSB;label=32;scalar=64";
    class       volScalarField;
    location    "0.7";
    object      Uy;
}
// * * * * * * * * * * * * * * * * * * * * * * * * * * * * * * * * * * * * * //

dimensions      [0 1 -1 0 0 0 0];

internalField   nonuniform List<scalar> 
1681
(
-5.67737e-05
-5.54817e-05
-9.93332e-06
4.51985e-05
9.72615e-05
0.000141695
0.000177107
0.000203449
0.000221188
0.000230967
0.000233477
0.00022941
0.00021944
0.000204219
0.000184378
0.000160529
0.000133275
0.000103216
7.0953e-05
3.71035e-05
2.30302e-06
-3.27868e-05
-6.74744e-05
-0.000101037
-0.000132723
-0.000161752
-0.000187329
-0.000208647
-0.000224906
-0.000235323
-0.000239147
-0.000235682
-0.000224298
-0.000204461
-0.000175785
-0.000138146
-9.20105e-05
-3.92331e-05
1.51685e-05
5.82385e-05
5.6201e-05
-0.000149896
-7.58423e-05
0.000154657
0.000428581
0.000695614
0.000931731
0.0011259
0.00127404
0.00137572
0.00143239
0.00144654
0.00142122
0.00135981
0.00126585
0.001143
0.000994943
0.000825435
0.00063828
0.000437361
0.00022666
1.02852e-05
-0.000207516
-0.000422344
-0.000629654
-0.000824771
-0.00100293
-0.00115934
-0.00128924
-0.00138799
-0.00145124
-0.00147497
-0.00145575
-0.00139088
-0.0012787
-0.00111902
-0.000913977
-0.000669559
-0.000398792
-0.000127432
9.33256e-05
0.000153135
-0.000162392
0.000139812
0.000724179
0.00139748
0.002059
0.00265221
0.0031466
0.00352779
0.00379098
0.00393715
0.00397084
0.00389878
0.00372908
0.00347073
0.00313327
0.00272662
0.002261
0.00174692
0.00119513
0.000616708
2.30829e-05
-0.000573968
-0.00116229
-0.00172941
-0.00226256
-0.00274883
-0.00317533
-0.00352939
-0.00379887
-0.00397248
-0.0040402
-0.00399379
-0.00382745
-0.00353866
-0.00312954
-0.0026088
-0.00199531
-0.00132405
-0.000655229
-9.12837e-05
0.00017815
-3.99194e-05
0.000671337
0.00175396
0.00295412
0.0041253
0.00517744
0.00605759
0.00673789
0.00720686
0.00746362
0.00751432
0.00736976
0.00704379
0.00655234
0.00591274
0.00514331
0.00426311
0.00329187
0.0022499
0.00115817
3.82768e-05
-0.00108753
-0.00219636
-0.00326477
-0.00426888
-0.00518467
-0.00598825
-0.00665633
-0.00716675
-0.00749918
-0.00763592
-0.00756288
-0.00727089
-0.00675726
-0.00602813
-0.00510167
-0.00401332
-0.00282358
-0.00162882
-0.000578993
7.4817e-05
0.000231361
0.00154928
0.0032725
0.00510949
0.00687867
0.0084612
0.00978301
0.0108025
0.0115006
0.011874
0.0119302
0.0116842
0.0111562
0.0103701
0.00935249
0.00813151
0.00673692
0.00519962
0.00355157
0.00182573
5.61209e-05
-0.00172225
-0.00347345
-0.00516072
-0.0067468
-0.00819425
-0.00946602
-0.0105262
-0.0113407
-0.0118786
-0.0121134
-0.0120245
-0.0115989
-0.0108344
-0.00974183
-0.00835003
-0.00671167
-0.00491202
-0.00307971
-0.00140263
-0.000172023
0.00064622
0.00277576
0.00528823
0.00787218
0.0103217
0.0124958
0.0143026
0.0156884
0.0166274
0.0171139
0.017157
0.0167765
0.0159997
0.0148593
0.013392
0.0116374
0.00963743
0.00743559
0.00507717
0.00260891
7.90285e-05
-0.00246289
-0.00496597
-0.00737831
-0.00964733
-0.0117204
-0.0135454
-0.0150721
-0.016253
-0.0170453
-0.0174124
-0.0173262
-0.0167697
-0.0157406
-0.0142544
-0.0123501
-0.0100966
-0.00760099
-0.00501868
-0.00256597
-0.000557838
0.00119533
0.00434083
0.0077949
0.0112379
0.0144487
0.0172706
0.0195986
0.0213698
0.0225532
0.0231421
0.0231483
0.0225968
0.0215231
0.0199697
0.0179846
0.0156197
0.0129302
0.00997375
0.00681016
0.00350132
0.000111026
-0.00329511
-0.00664985
-0.00988463
-0.0129301
-0.0157167
-0.0181761
-0.0202421
-0.0218522
-0.0229505
-0.0234888
-0.0234308
-0.0227542
-0.0214554
-0.0195537
-0.0170968
-0.0141671
-0.0108902
-0.00744252
-0.00406091
-0.00107386
0.00186966
0.00623109
0.0107802
0.0151961
0.0192494
0.0227737
0.0256556
0.0278264
0.0292525
0.0299282
0.0298694
0.029108
0.0276884
0.025664
0.0230952
0.0200473
0.0165899
0.0127955
0.00873954
0.00450014
0.000157669
-0.0042052
-0.00850376
-0.0126517
-0.0165616
-0.020146
-0.0233186
-0.025996
-0.0280996
-0.0295584
-0.0303117
-0.0303129
-0.0295331
-0.0279659
-0.0256321
-0.0225856
-0.0189199
-0.0147749
-0.0103431
-0.00587652
-0.0017118
0.00266181
0.00843381
0.0142313
0.0197355
0.0247138
0.0289951
0.0324622
0.0350442
0.0367081
0.0374518
0.0372971
0.0362846
0.0344691
0.0319162
0.0286996
0.0248992
0.0205995
0.015889
0.0108596
0.00560597
0.000225988
-0.00517994
-0.0105089
-0.0156559
-0.0205147
-0.0249787
-0.0289426
-0.0323045
-0.034968
-0.0368455
-0.0378619
-0.0379584
-0.0370973
-0.035267
-0.0324875
-0.028816
-0.0243536
-0.0192509
-0.013713
-0.00800345
-0.0024653
0.00356637
0.0109389
0.0181373
0.0248462
0.0308333
0.035927
0.0400101
0.0430134
0.0449083
0.0456987
0.0454151
0.0441087
0.0418466
0.0387078
0.0347808
0.0301606
0.0249479
0.0192475
0.0131682
0.00682198
0.0003244
-0.00620595
-0.0126475
-0.018876
-0.0247658
-0.0301901
-0.0350238
-0.0391447
-0.0424373
-0.0447956
-0.0461277
-0.0463604
-0.0454443
-0.04336
-0.0401232
-0.0357917
-0.0304705
-0.0243179
-0.0175487
-0.0104362
-0.00333048
0.00457994
0.0137395
0.0224906
0.0305212
0.0376018
0.0435635
0.0482931
0.051727
0.0538441
0.054658
0.0542107
0.0525662
0.0498059
0.0460241
0.041325
0.0358202
0.0296268
0.0228666
0.0156655
0.00815312
0.000462602
-0.00726911
-0.0149016
-0.0222912
-0.0292921
-0.035757
-0.0415395
-0.0464963
-0.0504905
-0.0533959
-0.0551011
-0.0555157
-0.0545757
-0.05225
-0.048547
-0.0435209
-0.0372777
-0.0299806
-0.0218518
-0.0131738
-0.00430603
0.00570091
0.0168324
0.0272873
0.036757
0.045016
0.0519012
0.0573069
0.061179
0.0635077
0.0643198
0.0636718
0.0616435
0.0583328
0.0538511
0.0483197
0.0418674
0.0346289
0.026743
0.0183529
0.00960537
0.000651412
-0.00835406
-0.017252
-0.0258793
-0.0340697
-0.0416548
-0.0484663
-0.054338
-0.0591102
-0.0626336
-0.064775
-0.065423
-0.0644953
-0.0619454
-0.0577701
-0.0520164
-0.0447879
-0.0362495
-0.0266298
-0.0162205
-0.00539305
0.00692928
0.0202174
0.0325275
0.0435534
0.0530752
0.0609383
0.067048
0.0713637
0.0738908
0.0746731
0.0737852
0.0713257
0.0674115
0.0621729
0.0557502
0.0482903
0.0399456
0.0308724
0.021231
0.011185
0.000902544
-0.00944398
-0.0196773
-0.0296153
-0.0390714
-0.0478558
-0.0557772
-0.0626454
-0.0682758
-0.0724936
-0.0751401
-0.0760795
-0.0752068
-0.0724557
-0.0678067
-0.0612953
-0.0530187
-0.0431412
-0.0318962
-0.0195853
-0.00659495
0.00826641
0.0238974
0.0382147
0.0509136
0.0617815
0.0706747
0.0775133
0.0822743
0.0849827
0.0857036
0.0845334
0.081593
0.077021
0.0709691
0.0635975
0.0550727
0.045565
0.0352482
0.0242991
0.0128977
0.00122828
-0.0105203
-0.0221534
-0.0334706
-0.0442654
-0.0543265
-0.0634389
-0.0713875
-0.0779604
-0.0829546
-0.0861824
-0.0874792
-0.0867124
-0.0837906
-0.0786728
-0.0713781
-0.0619931
-0.0506784
-0.0376707
-0.023282
-0.00791722
0.0097149
0.0278781
0.0443555
0.0588438
0.0711387
0.0811107
0.0886986
0.0939014
0.0967688
0.0973917
0.0958928
0.0924188
0.0871334
0.0802116
0.0718356
0.062192
0.0514696
0.0398593
0.0275536
0.0147478
0.00164104
-0.0115626
-0.0246526
-0.0374113
-0.0496131
-0.0610255
-0.0714098
-0.0805243
-0.0881282
-0.093987
-0.0978803
-0.0996099
-0.0990099
-0.0959576
-0.0903848
-0.0822879
-0.0717381
-0.0588888
-0.0439781
-0.0273288
-0.00936733
0.0112785
0.0321677
0.0509599
0.0673527
0.0811522
0.0922465
0.100597
0.106231
0.109228
0.10971
0.107831
0.103767
0.0977103
0.0898624
0.0804288
0.0696169
0.0576343
0.0446882
0.030986
0.0167368
0.00215277
-0.0125488
-0.0271433
-0.0413974
-0.055068
-0.067902
-0.0796369
-0.0900037
-0.0987307
-0.105549
-0.110201
-0.11245
-0.11209
-0.10896
-0.102957
-0.0940488
-0.0822843
-0.0678052
-0.0508487
-0.0317483
-0.0109546
0.0129618
0.0367766
0.0580402
0.0764512
0.0918282
0.104081
0.1132
0.119245
0.122332
0.122622
0.120303
0.115588
0.1087
0.0998701
0.0893284
0.0773043
0.0640236
0.0497092
0.034582
0.0188627
0.00277419
-0.0134552
-0.0295895
-0.0453821
-0.060574
-0.074893
-0.0880535
-0.0997587
-0.109704
-0.117584
-0.123099
-0.125966
-0.125933
-0.122794
-0.116401
-0.106684
-0.0936644
-0.0774645
-0.0583176
-0.036567
-0.0126903
0.0147709
0.0417179
0.0656118
0.0861521
0.103173
0.116611
0.126491
0.132914
0.136041
0.136075
0.133249
0.127816
0.120035
0.110167
0.0984703
0.0851964
0.0705893
0.0548861
0.038319
0.0211179
0.00351387
-0.0142573
-0.0319511
-0.0493107
-0.0660642
-0.081922
-0.0965769
-0.109704
-0.120966
-0.130015
-0.136506
-0.140106
-0.140506
-0.137445
-0.130721
-0.120216
-0.105912
-0.087907
-0.0664242
-0.0418155
-0.0145874
0.0167129
0.0470075
0.073693
0.0964701
0.115192
0.129828
0.140447
0.1472
0.1503
0.150003
0.146592
0.140366
0.131625
0.120664
0.107771
0.0932182
0.0772679
0.0601695
0.0421644
0.0234884
0.00437707
-0.0149299
-0.0341835
-0.0531206
-0.0714596
-0.0888969
-0.105105
-0.119734
-0.132409
-0.142742
-0.150335
-0.154797
-0.155756
-0.152883
-0.14591
-0.134659
-0.119059
-0.0991752
-0.0752126
-0.0475286
-0.0166609
0.0187965
0.0526646
0.0823055
0.107421
0.12789
0.143721
0.155038
0.162051
0.165037
0.164316
0.16023
0.153128
0.143357
0.13125
0.117124
0.101274
0.0839771
0.0654948
0.0460734
0.0259514
0.00536444
-0.0154484
-0.0362383
-0.0567405
-0.0766683
-0.0957082
-0.113516
-0.129716
-0.1439
-0.155635
-0.164468
-0.169941
-0.171608
-0.16906
-0.16195
-0.15002
-0.133137
-0.111313
-0.0847304
-0.0537454
-0.018928
0.0210325
0.0587125
0.0914752
0.119025
0.141269
0.15827
0.170217
0.177396
0.180159
0.178901
0.174033
0.165963
0.155089
0.141785
0.126396
0.109242
0.0906139
0.0707791
0.0499869
0.0284737
0.0064705
-0.0157896
-0.0380637
-0.060091
-0.0815852
-0.102228
-0.121663
-0.139492
-0.155275
-0.168532
-0.178752
-0.185402
-0.187954
-0.185902
-0.1788
-0.166295
-0.148168
-0.124366
-0.0950296
-0.0605096
-0.0214084
0.023434
0.0651804
0.101233
0.1313
0.155329
0.173446
0.185925
0.193142
0.195544
0.193613
0.187838
0.178699
0.166645
0.152095
0.135426
0.116977
0.0970509
0.0759196
0.0538295
0.0310101
0.00768213
-0.0159335
-0.0396059
-0.0630849
-0.0860914
-0.108309
-0.129373
-0.148871
-0.166332
-0.18123
-0.192993
-0.201008
-0.204648
-0.203299
-0.196394
-0.183462
-0.16417
-0.138377
-0.106166
-0.0678706
-0.0241246
0.0260183
0.0721045
0.111619
0.144272
0.170065
0.189208
0.202079
0.209168
0.211035
0.208266
0.201443
0.19112
0.177809
0.161971
0.144016
0.1243
0.103135
0.0807913
0.057508
0.0335018
0.00897697
-0.0158642
-0.0408102
-0.0656287
-0.0900557
-0.113783
-0.13645
-0.157631
-0.176831
-0.193483
-0.206949
-0.216533
-0.221499
-0.221103
-0.214635
-0.201474
-0.181145
-0.153387
-0.1182
-0.0758842
-0.0271029
0.0288071
0.0795314
0.122678
0.157967
0.185467
0.205498
0.21857
0.225318
0.226435
0.222634
0.214599
0.20297
0.188323
0.171165
0.151935
0.131004
0.108686
0.0852461
0.06091
0.0358749
0.010322
-0.0155722
-0.041623
-0.0676242
-0.0933354
-0.118467
-0.142668
-0.165513
-0.186489
-0.204991
-0.220322
-0.231695
-0.238255
-0.239109
-0.233378
-0.220253
-0.199079
-0.169433
-0.131197
-0.0846144
-0.0303745
0.0318295
0.087521
0.134472
0.172416
0.201513
0.222232
0.235254
0.241387
0.241494
0.236429
0.226999
0.213935
0.197879
0.179384
0.158912
0.136846
0.113495
0.0891128
0.063904
0.0380403
0.0116726
-0.0150556
-0.041994
-0.0689715
-0.0957802
-0.12216
-0.14778
-0.172225
-0.194978
-0.215405
-0.232751
-0.246142
-0.254594
-0.257048
-0.252421
-0.23968
-0.217933
-0.186543
-0.145226
-0.0941355
-0.0339765
0.0351237
0.0961516
0.147075
0.18765
0.21817
0.239298
0.251935
0.257113
0.255894
0.249302
0.238276
0.223646
0.20612
0.186292
0.164642
0.141554
0.117329
0.0921992
0.0663413
0.0398943
0.0129721
-0.0143218
-0.0418794
-0.0695725
-0.0972359
-0.124649
-0.151516
-0.177445
-0.201927
-0.224314
-0.243806
-0.259443
-0.27011
-0.274566
-0.271491
-0.259575
-0.237631
-0.204733
-0.160363
-0.104536
-0.0379549
0.0387418
0.105526
0.16058
0.203703
0.235378
0.256531
0.268355
0.272157
0.269241
0.260825
0.247991
0.231671
0.212636
0.191509
0.168782
0.144831
0.119935
0.0942964
0.0680588
0.0413206
0.0141523
-0.0133891
-0.0412443
-0.0693362
-0.0975513
-0.12572
-0.153596
-0.180825
-0.206925
-0.231253
-0.252982
-0.271078
-0.284299
-0.291207
-0.290216
-0.279683
-0.258046
-0.223998
-0.17669
-0.115922
-0.0423675
0.0427548
0.115781
0.175103
0.220602
0.253038
0.273701
0.284164
0.28608
0.28104
0.270476
0.255626
0.237514
0.216965
0.194621
0.170968
0.146359
0.121044
0.0951867
0.0688861
0.0421952
0.0151358
-0.0122864
-0.0400664
-0.0681841
-0.0965862
-0.125165
-0.153736
-0.182003
-0.209532
-0.235709
-0.259703
-0.280433
-0.29654
-0.30639
-0.308102
-0.299644
-0.278981
-0.244302
-0.194294
-0.128425
-0.0472892
0.0472616
0.127098
0.190785
0.238357
0.270987
0.290475
0.298892
0.298319
0.290677
0.277635
0.26058
0.240619
0.218608
0.195188
0.17082
0.14582
0.120394
0.0946554
0.0686546
0.0423928
0.0158396
-0.0110536
-0.038339
-0.0660576
-0.0942222
-0.122796
-0.151669
-0.180622
-0.209293
-0.237128
-0.263327
-0.286794
-0.306086
-0.319383
-0.324499
-0.318953
-0.30013
-0.265556
-0.213262
-0.142211
-0.0528201
0.0524022
0.139717
0.207786
0.256932
0.288958
0.306374
0.311902
0.308146
0.297398
0.281569
0.262175
0.240379
0.217039
0.192764
0.167968
0.142911
0.117739
0.0925073
0.067211
0.0417969
0.0161808
-0.00973981
-0.0360744
-0.0629257
-0.0903751
-0.118463
-0.147164
-0.176355
-0.205769
-0.234946
-0.263162
-0.289356
-0.31205
-0.329279
-0.338556
-0.336911
-0.321033
-0.287585
-0.233676
-0.15749
-0.0590979
0.0583787
0.153958
0.22628
0.276206
0.30651
0.3207
0.322337
0.314637
0.300294
0.281434
0.259668
0.236164
0.211738
0.186933
0.162084
0.137376
0.11288
0.0885885
0.0644351
0.0403126
0.0160855
-0.00839975
-0.0333056
-0.0587931
-0.0850103
-0.112076
-0.140056
-0.168935
-0.198568
-0.228623
-0.258503
-0.287248
-0.313418
-0.334974
-0.349178
-0.352557
-0.341
-0.310069
-0.255588
-0.174531
-0.066319
0.0654908
0.170242
0.246414
0.295885
0.32293
0.332446
0.329046
0.316636
0.298291
0.276299
0.252287
0.227362
0.202239
0.177349
0.152921
0.129041
0.105698
0.0828135
0.0602611
0.0378831
0.0154985
-0.0070895
-0.0300881
-0.0537083
-0.0781577
-0.103628
-0.130278
-0.158204
-0.187401
-0.217702
-0.248688
-0.279577
-0.309067
-0.335162
-0.354974
-0.36458
-0.359002
-0.332448
-0.27897
-0.193681
-0.0747736
0.0741966
0.189108
0.268232
0.315354
0.33707
0.340167
0.330517
0.312731
0.29018
0.265193
0.239301
0.213454
0.188199
0.163808
0.140373
0.117868
0.0961919
0.0751964
0.0547017
0.0345068
0.0143957
-0.00586015
-0.0264998
-0.0477711
-0.0699276
-0.0932222
-0.117896
-0.144157
-0.172147
-0.201885
-0.233182
-0.265513
-0.297839
-0.328363
-0.35423
-0.371219
-0.373513
-0.353751
-0.303616
-0.215365
-0.0849067
0.0852183
0.211202
0.291486
0.333414
0.347114
0.341833
0.324826
0.301289
0.274694
0.247216
0.220131
0.194123
0.169496
0.146323
0.124539
0.104
0.084518
0.0658832
0.0478727
0.030256
0.0127963
-0.00475092
-0.02264
-0.0411375
-0.0605244
-0.0810954
-0.103155
-0.127007
-0.152931
-0.181139
-0.211701
-0.244426
-0.278662
-0.31301
-0.344919
-0.370164
-0.382304
-0.372332
-0.328926
-0.240061
-0.0974236
0.0997144
0.237177
0.315256
0.347855
0.350271
0.334699
0.309654
0.280577
0.250685
0.221723
0.194527
0.169402
0.146351
0.125225
0.1058
0.0878231
0.0710354
0.0551819
0.0400146
0.0252916
0.0107732
-0.00378266
-0.0186265
-0.0340229
-0.0502567
-0.0676385
-0.0865082
-0.107235
-0.130207
-0.15581
-0.184375
-0.21608
-0.25077
-0.287655
-0.324826
-0.358525
-0.382194
-0.385446
-0.353484
-0.268153
-0.113458
0.119509
0.267306
0.337203
0.354822
0.342469
0.315315
0.282517
0.249085
0.21746
0.188632
0.162821
0.139872
0.119474
0.101267
0.084891
0.0700152
0.0563372
0.0435841
0.0315068
0.0198729
0.00845958
-0.00295381
-0.014594
-0.0267018
-0.0395415
-0.0534096
-0.0686455
-0.0856404
-0.104844
-0.126763
-0.151943
-0.180911
-0.214052
-0.251347
-0.291883
-0.332999
-0.368894
-0.38869
-0.37429
-0.29947
-0.13477
0.147417
0.300469
0.352194
0.348008
0.318258
0.279912
0.241364
0.206146
0.175325
0.14885
0.126237
0.106886
0.0902163
0.075718
0.0629581
0.0515748
0.0412646
0.03177
0.0228669
0.0143546
0.00604612
-0.00224075
-0.0106917
-0.0195047
-0.0289003
-0.0391323
-0.0505015
-0.0633716
-0.0781875
-0.0954948
-0.115956
-0.140348
-0.169521
-0.20425
-0.244864
-0.290434
-0.337146
-0.375396
-0.385436
-0.332191
-0.164025
0.188007
0.331701
0.349698
0.317582
0.271081
0.225324
0.185612
0.152831
0.126241
0.104711
0.0871648
0.0727042
0.0606225
0.050374
0.0415386
0.0337898
0.0268702
0.0205712
0.0147191
0.00916285
0.00376547
-0.0016044
-0.00707972
-0.0128027
-0.0189335
-0.0256605
-0.0332132
-0.0418804
-0.0520328
-0.064155
-0.0788857
-0.0970666
-0.119789
-0.148403
-0.184398
-0.228913
-0.281332
-0.335983
-0.375795
-0.360354
-0.205435
0.244965
0.345322
0.31044
0.250735
0.195627
0.151541
0.118184
0.0933117
0.0746441
0.0604085
0.0493354
0.0405376
0.0333972
0.0274793
0.0224725
0.0181487
0.014336
0.0109008
0.00773533
0.00474847
0.00185916
-0.00100915
-0.0039335
-0.00699642
-0.0102917
-0.0139315
-0.0180559
-0.0228464
-0.0285457
-0.035487
-0.044139
-0.0551743
-0.0695709
-0.0887532
-0.114756
-0.150283
-0.19818
-0.259248
-0.326492
-0.367011
-0.261315
0.285088
0.299123
0.213962
0.145909
0.100367
0.0706253
0.0512497
0.038392
0.029569
0.0232797
0.0186277
0.0150681
0.0122604
0.00998401
0.00809127
0.00647936
0.00507398
0.00381926
0.00267132
0.00159389
0.000555272
-0.000474158
-0.00152404
-0.00262619
-0.00381705
-0.00514083
-0.00665382
-0.00843091
-0.0105755
-0.0132361
-0.0166335
-0.0211097
-0.0272139
-0.0358607
-0.0486127
-0.0681361
-0.098748
-0.146736
-0.219404
-0.30954
-0.294795
0.146423
0.127365
0.0753605
0.0430275
0.0253267
0.0155923
0.0101527
0.00700819
0.00508898
0.00384215
0.00298218
0.00235714
0.00188238
0.00150821
0.00120383
0.000949075
0.000730036
0.000536647
0.000361227
0.00019758
4.03811e-05
-0.000115285
-0.000274326
-0.000442021
-0.000624486
-0.000829267
-0.0010662
-0.00134874
-0.00169622
-0.00213773
-0.00271947
-0.00351915
-0.00467562
-0.00645157
-0.0093666
-0.0144648
-0.0238039
-0.0413311
-0.0742345
-0.127986
-0.148183
)
;

boundaryField
{
    movingWall
    {
        type            calculated;
        value           uniform 0;
    }
    fixedWalls
    {
        type            calculated;
        value           uniform 0;
    }
    frontAndBack
    {
        type            empty;
    }
}


// ************************************************************************* //
