/*--------------------------------*- C++ -*----------------------------------*\
| =========                 |                                                 |
| \\      /  F ield         | OpenFOAM: The Open Source CFD Toolbox           |
|  \\    /   O peration     | Version:  2306                                  |
|   \\  /    A nd           | Website:  www.openfoam.com                      |
|    \\/     M anipulation  |                                                 |
\*---------------------------------------------------------------------------*/
FoamFile
{
    version     2.0;
    format      ascii;
    arch        "LSB;label=32;scalar=64";
    class       volVectorField;
    location    "3";
    object      flux;
}
// * * * * * * * * * * * * * * * * * * * * * * * * * * * * * * * * * * * * * //

dimensions      [0 1 -1 1 0 0 0];

internalField   nonuniform List<vector> 
2658
(
(1.01746e-06 9.96383e-07 -9.02999e-06)
(1.48005e-06 5.73429e-07 -8.76735e-06)
(4.73618e-07 1.78523e-07 -6.81309e-06)
(-5.15064e-08 -2.72023e-08 -6.21323e-06)
(-2.22403e-06 -2.18756e-06 -7.60921e-06)
(-1.88221e-06 2.69476e-06 -7.80094e-06)
(2.01257e-06 -2.34765e-06 -7.22911e-06)
(1.98487e-06 1.97447e-06 -6.96399e-06)
(-3.96329e-08 -4.31777e-08 -6.20804e-06)
(2.6759e-06 -1.90638e-06 -7.77812e-06)
(-1.77278e-06 5.96325e-07 -7.5768e-06)
(-1.26134e-06 -4.17563e-06 -5.9182e-06)
(8.21038e-07 2.50338e-06 -7.83428e-06)
(9.89351e-07 2.54835e-06 -7.30098e-06)
(7.61166e-07 2.05597e-06 -7.58982e-06)
(-7.46157e-08 2.11492e-06 -7.80749e-06)
(-3.37629e-08 2.32472e-06 -7.46384e-06)
(-4.25655e-09 2.08188e-06 -7.78996e-06)
(-8.35674e-07 2.10487e-06 -7.58459e-06)
(-1.0758e-06 2.51721e-06 -7.20661e-06)
(-1.01159e-06 2.42313e-06 -7.70794e-06)
(-2.35409e-06 2.10361e-06 -6.94214e-06)
(-2.83587e-06 6.9119e-07 -7.95284e-06)
(2.14848e-06 -4.90665e-07 -6.15341e-06)
(-9.16955e-07 7.9247e-07 -9.59961e-06)
(-1.11201e-06 2.32345e-06 -7.68963e-06)
(-2.39581e-06 -5.12457e-07 -6.85061e-06)
(-3.52062e-07 1.35884e-07 -8.13184e-06)
(-1.75505e-06 1.8951e-06 -8.2737e-06)
(-1.87482e-06 -2.11341e-10 -6.76179e-06)
(-1.75503e-06 -1.89527e-06 -8.27367e-06)
(-2.39584e-06 5.12497e-07 -6.85067e-06)
(-1.1122e-06 -2.32347e-06 -7.68959e-06)
(-2.83613e-06 -6.90946e-07 -7.95287e-06)
(-9.1692e-07 -7.92335e-07 -9.59962e-06)
(2.14852e-06 4.90799e-07 -6.1534e-06)
(-1.21338e-06 -1.64195e-07 -8.00668e-06)
(5.4789e-07 1.9608e-07 -1.10319e-05)
(-2.35363e-06 -2.1043e-06 -6.94202e-06)
(-1.01177e-06 -2.42342e-06 -7.7082e-06)
(-1.0757e-06 -2.51747e-06 -7.20687e-06)
(-8.35382e-07 -2.105e-06 -7.58464e-06)
(-4.28179e-09 -2.08168e-06 -7.78973e-06)
(7.22265e-08 1.05239e-06 -1.14264e-05)
(-1.49036e-06 -1.84834e-07 -7.35463e-06)
(1.3963e-06 -9.99349e-08 -7.27232e-06)
(-1.7728e-06 -5.96389e-07 -7.57692e-06)
(-6.31535e-08 1.09528e-06 -1.14136e-05)
(-7.49116e-08 -2.1153e-06 -7.80754e-06)
(7.61034e-07 -2.05592e-06 -7.58976e-06)
(9.8932e-07 -2.54791e-06 -7.30071e-06)
(8.21196e-07 -2.50329e-06 -7.83435e-06)
(2.2317e-06 -2.21106e-06 -7.0108e-06)
(-4.78079e-07 4.622e-07 -1.1418e-05)
(2.51699e-06 -8.23437e-07 -7.84145e-06)
(2.06402e-06 -7.88146e-07 -7.60084e-06)
(-1.11329e-06 5.27443e-08 -1.1414e-05)
(1.23652e-07 -1.4166e-06 -7.30569e-06)
(-3.97902e-06 -2.41403e-10 -6.19149e-06)
(2.08845e-06 -2.73203e-08 -7.79732e-06)
(-1.1133e-06 -5.28017e-08 -1.14143e-05)
(2.06405e-06 7.87927e-07 -7.60101e-06)
(2.51657e-06 8.23518e-07 -7.84117e-06)
(-4.78258e-07 -4.62281e-07 -1.1418e-05)
(5.67978e-07 5.75383e-07 -7.46175e-06)
(-4.18462e-06 -1.22295e-06 -5.92988e-06)
(5.60391e-07 -1.75882e-06 -7.55699e-06)
(-2.16902e-08 -7.52449e-08 -6.88578e-06)
(-1.40856e-06 -2.9839e-06 -7.72096e-06)
(-1.40866e-06 2.98374e-06 -7.7207e-06)
(-7.1926e-08 -6.58416e-11 -6.31548e-06)
(1.44979e-06 2.59432e-06 -7.09776e-06)
(-7.83478e-08 -2.4886e-08 -5.57297e-06)
(-1.61108e-06 2.19686e-06 -6.48345e-06)
(2.22044e-08 -1.1072e-08 -5.04532e-06)
(-1.695e-06 -1.66182e-06 -6.40924e-06)
(2.17801e-06 -1.64957e-06 -6.46655e-06)
(-1.88112e-08 3.14274e-08 -5.03888e-06)
(-1.92849e-06 1.64506e-06 -5.83099e-06)
(2.15984e-06 1.08285e-06 -5.72396e-06)
(-2.49789e-06 -1.10256e-06 -6.46572e-06)
(-4.26611e-08 -6.047e-08 -5.57139e-06)
(2.60486e-06 1.38435e-06 -7.0634e-06)
(-2.35739e-06 2.07609e-06 -7.25191e-06)
(-6.43011e-08 -4.87928e-08 -5.85247e-06)
(-4.08162e-08 -3.00316e-08 -4.73044e-06)
(-9.13924e-09 -2.37434e-09 -3.74874e-06)
(5.97159e-09 1.05905e-08 -2.90415e-06)
(1.18899e-08 1.59351e-08 -2.21084e-06)
(1.40841e-08 1.8837e-08 -1.67478e-06)
(1.31565e-08 1.73816e-08 -1.29803e-06)
(-4.30547e-08 -7.78113e-08 -1.42582e-06)
(3.85174e-08 4.10046e-08 -1.26593e-06)
(-2.55573e-07 2.00705e-07 -1.04292e-06)
(1.75024e-07 -9.09905e-08 -1.1444e-06)
(-3.03531e-08 -2.03013e-07 -1.20323e-06)
(-2.17432e-07 -3.97563e-08 -1.12312e-06)
(1.21e-09 -2.2499e-07 -1.70592e-06)
(2.19086e-07 -4.26323e-08 -1.12403e-06)
(-1.77823e-07 -8.72062e-08 -1.14079e-06)
(9.70181e-08 -2.46949e-07 -1.71594e-06)
(2.48328e-07 -6.75102e-08 -1.15489e-06)
(2.12866e-07 -2.07864e-07 -1.22433e-06)
(1.79344e-07 -1.16032e-07 -1.39056e-06)
(1.86462e-07 -9.57773e-08 -1.17418e-06)
(-3.71172e-07 2.19278e-07 -1.25374e-06)
(-7.2833e-08 -7.90837e-08 -8.90971e-07)
(-5.19827e-08 3.76712e-10 -1.46992e-06)
(-1.6208e-08 2.78429e-08 -9.77551e-07)
(1.03317e-07 -2.32123e-07 -1.50243e-06)
(2.21487e-07 7.66076e-08 -1.39463e-06)
(8.9303e-08 -1.05529e-07 -1.13815e-06)
(1.7662e-07 -5.92531e-12 -1.56905e-06)
(8.92972e-08 1.05524e-07 -1.13811e-06)
(2.21498e-07 -7.66218e-08 -1.39463e-06)
(1.03302e-07 2.32105e-07 -1.50239e-06)
(1.86458e-07 9.57797e-08 -1.17418e-06)
(-3.71161e-07 -2.19272e-07 -1.25374e-06)
(2.12866e-07 2.0786e-07 -1.22432e-06)
(1.79352e-07 1.16037e-07 -1.39055e-06)
(2.4833e-07 6.75074e-08 -1.15489e-06)
(9.70146e-08 2.46947e-07 -1.71586e-06)
(-1.77824e-07 8.72014e-08 -1.14077e-06)
(2.19088e-07 4.26284e-08 -1.12401e-06)
(-3.41694e-07 -1.72366e-07 -1.08455e-06)
(3.43399e-07 -1.67065e-07 -1.08986e-06)
(-2.55553e-07 -2.00713e-07 -1.04287e-06)
(-3.03375e-08 2.03003e-07 -1.20323e-06)
(-2.17435e-07 3.97467e-08 -1.12308e-06)
(1.75017e-07 9.09973e-08 -1.14441e-06)
(-9.86341e-08 2.41946e-07 -1.70773e-06)
(-2.41681e-07 6.34729e-08 -1.13981e-06)
(-1.67196e-07 1.16089e-07 -1.36708e-06)
(-1.52175e-07 1.04179e-07 -1.13088e-06)
(-9.57965e-08 2.15892e-07 -1.48321e-06)
(1.08749e-08 -9.59071e-08 -1.03628e-06)
(-4.36855e-08 5.60082e-09 -9.99833e-07)
(-2.49465e-07 9.17276e-09 -1.16293e-06)
(2.09016e-07 -2.1685e-07 -1.0121e-06)
(2.08895e-07 2.16874e-07 -1.01214e-06)
(-4.36528e-08 -5.63613e-09 -9.99803e-07)
(1.0839e-08 9.59153e-08 -1.03628e-06)
(1.02951e-07 -5.84059e-08 -1.15363e-06)
(-1.05981e-07 -6.09988e-08 -1.22982e-06)
(-1.21865e-07 -5.53387e-10 -1.54771e-06)
(-1.05736e-07 6.07919e-08 -1.22925e-06)
(5.95278e-08 1.04376e-10 -1.42614e-06)
(7.77562e-08 1.16962e-10 -1.35897e-06)
(-2.11685e-07 -1.20039e-07 -9.77828e-07)
(-2.20286e-07 1.18328e-07 -9.82746e-07)
(-1.84059e-07 2.53932e-10 -9.34713e-07)
(-2.32798e-07 9.37395e-09 -1.3173e-06)
(-2.28182e-07 6.25972e-08 -1.27267e-06)
(-2.36746e-07 -6.93892e-08 -8.28195e-07)
(-1.80963e-07 2.82333e-07 -1.10762e-06)
(-3.22759e-07 6.61487e-08 -1.04114e-06)
(-2.95128e-07 2.64175e-07 -9.43048e-07)
(-1.24154e-07 3.11997e-07 -1.04005e-06)
(-1.40569e-07 3.30319e-07 -9.8485e-07)
(-1.0196e-07 2.62875e-07 -1.01687e-06)
(1.08632e-10 2.64624e-07 -1.04878e-06)
(3.39214e-10 3.02078e-07 -1.01028e-06)
(-1.24133e-10 2.64311e-07 -1.04954e-06)
(9.87585e-08 2.67826e-07 -1.01794e-06)
(1.40274e-07 3.38045e-07 -9.81512e-07)
(1.27195e-07 3.15194e-07 -1.03682e-06)
(3.02205e-07 2.76393e-07 -9.43957e-07)
(3.72703e-07 8.98591e-08 -1.08097e-06)
(-8.50329e-08 -2.20541e-08 -1.58865e-06)
(2.17313e-07 4.72828e-08 -1.30033e-06)
(-5.45222e-07 -3.49399e-07 -1.60103e-06)
(5.86525e-07 4.39949e-07 -1.85813e-06)
(-6.65768e-07 -4.57813e-07 -2.12319e-06)
(7.65352e-07 5.5737e-07 -2.4276e-06)
(-8.69701e-07 -6.19528e-07 -2.80276e-06)
(1.0102e-06 7.23015e-07 -3.21396e-06)
(-1.1455e-06 -8.33485e-07 -3.69252e-06)
(1.32244e-06 9.32662e-07 -4.21483e-06)
(-1.49086e-06 -1.10158e-06 -4.79058e-06)
(1.70427e-06 1.17942e-06 -5.4219e-06)
(-1.90057e-06 -1.42752e-06 -6.07971e-06)
(2.16463e-06 1.45471e-06 -6.80096e-06)
(-2.36549e-06 -1.82331e-06 -7.53206e-06)
(2.7731e-06 1.75161e-06 -8.07697e-06)
(-2.77701e-06 1.70884e-06 -7.82526e-06)
(2.95193e-06 1.43137e-06 -7.68376e-06)
(-3.04687e-06 1.35845e-06 -7.75456e-06)
(2.67587e-06 1.90647e-06 -7.77818e-06)
(-2.22421e-06 2.18743e-06 -7.60913e-06)
(-5.1595e-08 2.70724e-08 -6.2131e-06)
(-1.88215e-06 -2.69501e-06 -7.80109e-06)
(5.6036e-07 1.75871e-06 -7.55671e-06)
(-4.18427e-06 1.22278e-06 -5.92981e-06)
(5.68108e-07 -5.75362e-07 -7.46177e-06)
(-1.26136e-06 4.17563e-06 -5.91823e-06)
(4.92059e-07 -5.04449e-07 -9.68589e-06)
(-6.4318e-08 4.85763e-08 -5.8525e-06)
(-4.08075e-08 2.98945e-08 -4.7304e-06)
(-9.17126e-09 2.25065e-09 -3.7487e-06)
(5.91858e-09 -1.07008e-08 -2.90411e-06)
(1.1889e-08 -1.60088e-08 -2.21081e-06)
(1.40957e-08 -1.88794e-08 -1.67475e-06)
(1.31594e-08 -1.74076e-08 -1.29801e-06)
(-4.30599e-08 7.77952e-08 -1.42581e-06)
(3.85292e-08 -4.09863e-08 -1.26592e-06)
(4.81919e-10 3.52379e-09 -8.49563e-07)
(-9.20083e-08 -9.04425e-08 -9.14078e-07)
(-5.11276e-09 3.07741e-08 -1.42047e-06)
(1.30025e-07 -1.16795e-07 -9.38857e-07)
(1.30023e-07 1.16794e-07 -9.38854e-07)
(-9.20205e-08 9.04434e-08 -9.14083e-07)
(4.72835e-10 -3.53986e-09 -8.49566e-07)
(-5.09968e-09 -3.07811e-08 -1.42048e-06)
(4.36391e-08 -3.55944e-08 -8.77237e-07)
(3.43415e-07 1.67081e-07 -1.08985e-06)
(-3.41711e-07 1.72363e-07 -1.08455e-06)
(2.34153e-08 -2.05272e-07 -1.20145e-06)
(2.63737e-07 1.96197e-07 -1.05119e-06)
(-2.56197e-08 4.74946e-08 -1.26944e-06)
(1.02149e-08 -6.72567e-09 -8.56332e-07)
(-3.95412e-08 -3.17524e-08 -8.74676e-07)
(6.87426e-10 3.08232e-08 -1.29202e-06)
(3.91958e-09 -3.01486e-08 -1.414e-06)
(3.65301e-08 -3.27596e-08 -1.41882e-06)
(2.26651e-08 -1.25005e-11 -1.42683e-06)
(3.6521e-08 3.2751e-08 -1.4188e-06)
(-2.56519e-08 -4.75265e-08 -1.26943e-06)
(-7.28263e-08 7.9085e-08 -8.9095e-07)
(-1.70064e-07 -1.48477e-07 -9.55563e-07)
(-5.19788e-08 -3.77411e-10 -1.46991e-06)
(3.80504e-08 -1.65199e-07 -1.02046e-06)
(3.8034e-08 1.65183e-07 -1.02046e-06)
(-1.7006e-07 1.48458e-07 -9.55555e-07)
(-7.60511e-09 -1.93905e-11 -1.32326e-06)
(1.06169e-07 -1.03302e-07 -9.26801e-07)
(-1.2572e-07 -1.13033e-07 -9.33238e-07)
(-1.25708e-07 1.13016e-07 -9.33215e-07)
(2.1351e-09 -2.92647e-08 -1.41978e-06)
(1.06166e-07 1.03272e-07 -9.26784e-07)
(-2.35931e-09 -1.52239e-08 -1.24269e-06)
(-2.36363e-08 -1.03409e-11 -1.18738e-06)
(-3.09941e-08 -8.39339e-08 -1.16489e-06)
(-2.84121e-08 -3.70842e-08 -1.0835e-06)
(1.28223e-07 1.09224e-07 -1.22433e-06)
(-2.88086e-08 -2.83429e-08 -1.17354e-06)
(-9.76571e-09 5.13394e-12 -1.22003e-06)
(-2.126e-07 1.62364e-12 -1.65375e-06)
(3.14734e-08 -1.45813e-11 -1.29417e-06)
(-8.40472e-08 -1.56108e-07 -9.52501e-07)
(1.30076e-07 1.13043e-07 -1.38502e-06)
(1.40932e-07 3.16312e-07 -1.04471e-06)
(3.12708e-07 -7.60651e-08 -9.11226e-07)
(2.21998e-07 2.5143e-07 -1.10693e-06)
(-5.71025e-07 -3.33255e-07 -1.14998e-06)
(3.63516e-07 3.79648e-07 -1.60983e-06)
(-5.70659e-07 -3.97769e-07 -1.66848e-06)
(-5.70636e-07 3.97716e-07 -1.66846e-06)
(-1.4557e-08 4.99743e-08 -1.16215e-06)
(-5.59154e-07 4.44256e-07 -1.95261e-06)
(1.14311e-08 3.17031e-08 -1.3132e-06)
(5.96554e-07 -5.28589e-07 -2.21785e-06)
(-7.02614e-07 5.87444e-07 -2.55584e-06)
(8.0786e-09 1.63283e-08 -1.72257e-06)
(7.92522e-07 -6.88605e-07 -2.92235e-06)
(-9.22052e-07 7.84622e-07 -3.3709e-06)
(1.65022e-09 3.45007e-09 -2.27348e-06)
(1.04737e-06 -9.00458e-07 -3.85294e-06)
(-1.20542e-06 1.03594e-06 -4.40696e-06)
(-8.45368e-09 -1.41417e-08 -2.96509e-06)
(1.36269e-06 -1.16071e-06 -5.00473e-06)
(-1.54336e-06 1.34113e-06 -5.65216e-06)
(-2.52337e-08 -4.988e-08 -3.78968e-06)
(1.74579e-06 -1.46206e-06 -6.36135e-06)
(-1.91578e-06 1.70011e-06 -7.08054e-06)
(-4.66202e-08 -1.34821e-07 -4.72701e-06)
(2.25489e-06 -1.79322e-06 -7.84278e-06)
(-2.24924e-06 2.10484e-06 -8.76614e-06)
(-1.21654e-07 -3.60589e-07 -5.93781e-06)
(3.34432e-06 -2.26448e-06 -9.0099e-06)
(5.39735e-07 -1.04079e-06 -6.15279e-06)
(3.84594e-06 -2.31088e-06 -7.80764e-06)
(3.84588e-06 2.31075e-06 -7.80753e-06)
(-3.52033e-07 -1.35826e-07 -8.13172e-06)
(8.30533e-07 -6.24365e-07 -8.10301e-06)
(-3.09658e-07 1.19729e-06 -7.35415e-06)
(1.21244e-06 1.06846e-06 -6.83312e-06)
(5.90216e-08 -7.06801e-11 -9.76024e-06)
(-7.76224e-07 -7.60227e-07 -6.54891e-06)
(-7.76204e-07 7.60194e-07 -6.54894e-06)
(8.39882e-07 7.92568e-07 -6.59997e-06)
(-4.25006e-08 -6.71687e-11 -9.77792e-06)
(-9.9293e-07 -9.55395e-07 -6.68577e-06)
(-9.92853e-07 9.55295e-07 -6.68574e-06)
(2.6612e-07 3.85199e-07 -6.33258e-06)
(-3.12864e-07 -1.60509e-10 -9.61679e-06)
(-1.38714e-06 -2.48092e-06 -8.02325e-06)
(-1.38702e-06 2.48053e-06 -8.02302e-06)
(4.5182e-07 -1.53579e-06 -9.06972e-06)
(1.94597e-06 -2.21389e-10 -1.27788e-05)
(4.51784e-07 1.53532e-06 -9.06956e-06)
(7.31643e-07 -1.197e-06 -9.21238e-06)
(2.12398e-06 7.60839e-07 -1.26297e-05)
(8.89496e-07 1.75253e-06 -9.17299e-06)
(1.21827e-06 1.21445e-06 -1.06552e-05)
(1.61673e-06 1.61258e-06 -9.39448e-06)
(-2.39379e-06 -2.37373e-06 -9.18393e-06)
(-1.39379e-06 1.69589e-06 -7.62286e-06)
(1.40083e-06 2.26796e-07 -8.918e-06)
(8.93621e-07 1.43662e-07 -1.02019e-05)
(2.72338e-10 2.52076e-08 -9.58979e-06)
(2.66121e-07 -3.85355e-07 -6.33262e-06)
(-1.58377e-07 -1.39328e-07 -6.0371e-06)
(-4.02664e-07 -3.93011e-07 -9.46928e-06)
(1.68592e-06 -1.36044e-06 -7.6544e-06)
(-1.21702e-06 7.28005e-07 -9.2155e-06)
(7.54482e-07 2.09586e-06 -1.26301e-05)
(1.75261e-06 8.86952e-07 -9.17883e-06)
(1.00193e-06 1.00381e-06 -1.01965e-05)
(-5.25272e-07 -5.11494e-07 -9.26007e-06)
(-7.09256e-07 -9.54114e-11 -9.36018e-06)
(-5.25152e-07 5.11478e-07 -9.26008e-06)
(-4.02637e-07 3.92997e-07 -9.46926e-06)
(-1.39355e-06 -1.69584e-06 -7.62277e-06)
(-2.39376e-06 2.37369e-06 -9.18393e-06)
(8.8979e-07 -1.75255e-06 -9.17288e-06)
(2.12428e-06 -7.60636e-07 -1.26294e-05)
(7.31872e-07 1.1968e-06 -9.21231e-06)
(1.40103e-06 -2.27067e-07 -8.91814e-06)
(8.93773e-07 -1.43908e-07 -1.0202e-05)
(1.00208e-06 -1.00363e-06 -1.01963e-05)
(1.75253e-06 -8.86991e-07 -9.17918e-06)
(7.542e-07 -2.09567e-06 -1.26296e-05)
(-1.21705e-06 -7.28037e-07 -9.21553e-06)
(1.68587e-06 1.36037e-06 -7.65436e-06)
(2.11363e-07 -1.40977e-06 -8.90943e-06)
(1.51157e-06 -4.96461e-07 -9.12997e-06)
(-3.86165e-08 -1.94169e-06 -1.27885e-05)
(-1.57869e-06 -4.3638e-07 -9.08254e-06)
(2.46782e-06 1.28287e-06 -8.04872e-06)
(-3.96692e-08 3.04995e-07 -9.63141e-06)
(-4.41212e-07 -3.01271e-07 -6.33088e-06)
(-2.54201e-06 1.39488e-06 -8.03231e-06)
(-4.80972e-08 -2.74994e-07 -9.31953e-06)
(-2.97938e-07 -3.30485e-07 -9.4122e-06)
(1.66916e-08 1.82279e-08 -6.21627e-06)
(1.39411e-08 -6.57141e-09 -5.04006e-06)
(6.62483e-09 -2.603e-08 -4.00142e-06)
(3.72492e-09 -3.16693e-08 -3.10336e-06)
(1.90179e-09 -3.14144e-08 -2.36434e-06)
(-4.0542e-10 -2.97485e-08 -1.79149e-06)
(-2.00401e-09 -2.6533e-08 -1.38827e-06)
(-1.05305e-08 -3.2925e-08 -1.37879e-06)
(5.47173e-07 -3.31214e-07 -1.55599e-06)
(-5.90995e-07 -2.8244e-07 -1.53477e-06)
(5.97508e-07 -2.54915e-07 -1.54079e-06)
(-5.35969e-07 -3.86211e-07 -1.54951e-06)
(5.70918e-07 4.95986e-07 -1.7691e-06)
(-6.80654e-07 -5.19454e-07 -2.02508e-06)
(7.60308e-07 6.36262e-07 -2.30803e-06)
(-8.93173e-07 -7.03701e-07 -2.67491e-06)
(1.01159e-06 8.26299e-07 -3.05721e-06)
(-1.17283e-06 -9.49208e-07 -3.5276e-06)
(1.33255e-06 1.06483e-06 -4.01133e-06)
(-1.52015e-06 -1.26179e-06 -4.58374e-06)
(1.72442e-06 1.34373e-06 -5.1609e-06)
(-1.92835e-06 -1.64505e-06 -5.83103e-06)
(2.17782e-06 1.64967e-06 -6.46628e-06)
(-2.35735e-06 -2.07615e-06 -7.25198e-06)
(-3.9747e-08 4.31435e-08 -6.208e-06)
(1.98475e-06 -1.9745e-06 -6.96399e-06)
(2.01222e-06 2.34766e-06 -7.22892e-06)
(1.45012e-06 -2.59455e-06 -7.09802e-06)
(-1.16733e-06 2.45083e-06 -6.45512e-06)
(1.96234e-08 -1.1558e-10 -5.15302e-06)
(-1.16715e-06 -2.451e-06 -6.45527e-06)
(1.15022e-06 2.14043e-06 -5.74396e-06)
(1.58659e-06 -1.92236e-06 -5.81905e-06)
(1.57275e-06 1.55814e-06 -5.64238e-06)
(-1.34161e-06 -1.31529e-06 -5.06573e-06)
(-1.30543e-06 1.73854e-06 -5.1711e-06)
(3.62604e-08 7.76522e-09 -3.98866e-06)
(1.2159e-06 1.20095e-06 -4.4556e-06)
(3.95089e-09 4.34464e-08 -3.98287e-06)
(1.72469e-06 -1.34364e-06 -5.16109e-06)
(-2.27151e-08 -4.71212e-08 -4.48692e-06)
(-1.97333e-06 -8.88479e-07 -5.14302e-06)
(1.9262e-06 -1.01699e-06 -5.12614e-06)
(-3.83424e-09 4.22308e-08 -4.0696e-06)
(-1.70174e-06 9.4984e-07 -4.54136e-06)
(1.57458e-06 1.03799e-06 -4.5389e-06)
(-1.80732e-06 -1.13701e-06 -5.15359e-06)
(-4.65528e-09 -5.29396e-08 -4.49216e-06)
(-2.15685e-06 1.23419e-06 -5.76535e-06)
(-7.3315e-09 2.22913e-08 -5.13779e-06)
(2.42695e-06 -1.23862e-06 -6.42051e-06)
(-2.61957e-06 1.53851e-06 -7.14004e-06)
(-1.30745e-08 -6.90387e-08 -6.30131e-06)
(-3.04683e-06 -1.35846e-06 -7.75449e-06)
(-9.15146e-08 7.64946e-10 -6.89247e-06)
(1.39629e-06 9.98923e-08 -7.27231e-06)
(-6.31093e-08 -1.09536e-06 -1.14135e-05)
(2.1139e-07 1.40963e-06 -8.90942e-06)
(-2.54206e-06 -1.39498e-06 -8.03229e-06)
(-4.41189e-07 3.01136e-07 -6.33083e-06)
(8.25578e-08 1.05356e-07 -9.43841e-06)
(-2.9758e-08 -9.26512e-09 -7.29238e-06)
(-2.93681e-08 -7.93843e-11 -6.54917e-06)
(-2.48935e-08 2.95404e-08 -6.13667e-06)
(-1.57176e-08 4.32691e-09 -4.98694e-06)
(-8.08676e-09 -1.59938e-08 -3.95864e-06)
(-3.69419e-09 -2.34953e-08 -3.06942e-06)
(-1.40034e-09 -2.49797e-08 -2.33762e-06)
(-2.34799e-10 -2.46702e-08 -1.77082e-06)
(6.58455e-10 -2.21517e-08 -1.37118e-06)
(3.92205e-09 3.01316e-08 -1.41397e-06)
(6.69596e-10 -3.08303e-08 -1.29202e-06)
(-3.95433e-08 3.17558e-08 -8.74682e-07)
(2.11308e-09 2.92413e-08 -1.41976e-06)
(1.02121e-08 6.74103e-09 -8.56317e-07)
(2.63733e-07 -1.962e-07 -1.05119e-06)
(2.34014e-08 2.05266e-07 -1.20143e-06)
(-1.06868e-08 -1.42502e-07 -1.67065e-06)
(-2.96208e-07 9.3881e-08 -1.22719e-06)
(2.59761e-07 5.23191e-08 -1.21912e-06)
(-2.58774e-07 4.22492e-08 -1.21201e-06)
(2.87105e-07 1.18346e-07 -1.23894e-06)
(-1.14605e-07 8.3102e-08 -1.17124e-06)
(5.70194e-07 -2.27468e-08 -9.34327e-07)
(-1.47313e-07 -3.23584e-07 -1.29556e-06)
(3.65841e-07 5.2434e-07 -1.54388e-06)
(2.3374e-08 2.04684e-09 -1.36967e-06)
(-4.67542e-07 -5.75975e-07 -1.79622e-06)
(-4.71584e-07 4.68095e-07 -1.69897e-06)
(4.48654e-07 -4.07049e-07 -1.50975e-06)
(1.37217e-08 -3.18655e-08 -1.35691e-06)
(-1.17251e-08 2.85135e-08 -1.46267e-06)
(-6.40231e-08 1.71673e-07 -1.31951e-06)
(1.78586e-09 1.74748e-07 -1.32419e-06)
(7.27387e-08 1.73321e-07 -1.31989e-06)
(1.43216e-07 1.07963e-07 -1.30703e-06)
(1.8144e-07 1.20054e-07 -1.22817e-06)
(2.44198e-09 8.91498e-09 -1.46249e-06)
(2.90993e-08 4.73547e-08 -1.4954e-06)
(6.86162e-08 5.043e-08 -1.31676e-06)
(9.94488e-09 2.94339e-08 -1.46731e-06)
(-8.9212e-09 -1.78939e-08 -1.89258e-06)
(-1.55071e-09 8.54349e-09 -1.93106e-06)
(-1.47361e-08 -8.00783e-09 -1.88523e-06)
(-2.60332e-08 -1.92281e-08 -2.48498e-06)
(-2.04656e-08 -1.59526e-08 -2.55766e-06)
(1.44262e-08 1.51445e-08 -2.22009e-06)
(2.03997e-08 2.21582e-08 -1.68303e-06)
(6.71456e-09 2.32777e-08 -1.64047e-06)
(-5.94623e-07 4.28176e-07 -1.75039e-06)
(6.41533e-07 3.76514e-07 -1.75808e-06)
(-7.57998e-07 -3.84005e-07 -2.00807e-06)
(7.65424e-07 -3.35754e-07 -2.00934e-06)
(-1.78461e-09 1.68515e-08 -1.54418e-06)
(-6.49555e-07 3.4015e-07 -1.74827e-06)
(1.9187e-10 -3.58871e-08 -1.38881e-06)
(2.52951e-10 3.66662e-08 -1.46993e-06)
(3.02372e-10 -1.4245e-08 -1.89442e-06)
(6.52786e-10 -5.24508e-08 -2.51668e-06)
(-1.6355e-08 -5.35616e-08 -2.51278e-06)
(-2.39478e-08 -9.25747e-08 -3.31422e-06)
(-4.24729e-08 -4.09363e-08 -3.36976e-06)
(-4.01256e-08 -3.20836e-08 -3.26281e-06)
(-5.82141e-08 -4.83112e-08 -4.2134e-06)
(-7.4183e-08 -7.76521e-08 -4.36342e-06)
(-4.13743e-10 -1.68708e-09 -3.83879e-06)
(9.00905e-09 8.30658e-09 -2.93809e-06)
(8.80408e-09 1.70967e-08 -2.86166e-06)
(-1.06094e-06 6.93064e-07 -3.04231e-06)
(1.13571e-06 6.30494e-07 -3.03823e-06)
(-1.31155e-06 -7.13697e-07 -3.49851e-06)
(1.3216e-06 -6.17879e-07 -3.48809e-06)
(-8.54951e-09 3.20087e-08 -2.68906e-06)
(-1.15682e-06 5.50182e-07 -3.03508e-06)
(1.00592e-06 -4.55998e-07 -2.64956e-06)
(-5.34131e-09 2.48532e-08 -2.03459e-06)
(-8.68955e-07 4.28786e-07 -2.28733e-06)
(-4.58116e-10 -3.34302e-08 -1.80387e-06)
(8.55126e-07 4.8648e-07 -2.29412e-06)
(-9.97167e-07 -5.26364e-07 -2.65365e-06)
(2.21944e-09 2.62228e-08 -2.0397e-06)
(-7.96272e-07 5.37382e-07 -2.29208e-06)
(7.04959e-07 -4.37461e-07 -2.02274e-06)
(2.40067e-09 1.82644e-08 -1.54764e-06)
(7.20462e-11 3.1902e-09 -1.71487e-06)
(-1.39466e-08 -1.16186e-08 -1.64088e-06)
(-5.5909e-07 -4.44185e-07 -1.95257e-06)
(1.82368e-08 5.67847e-09 -1.14401e-06)
(4.50876e-07 4.18975e-07 -1.75822e-06)
(1.94121e-08 -6.02287e-08 -1.07054e-06)
(-5.5051e-07 -3.68287e-07 -1.49122e-06)
(-3.05235e-07 -7.68823e-08 -9.09486e-07)
(9.38691e-08 -3.04047e-08 -1.06798e-06)
(-2.58728e-08 -3.95884e-09 -1.26555e-06)
(-1.60922e-09 9.78917e-09 -1.30673e-06)
(-5.22357e-09 2.3343e-08 -1.2493e-06)
(6.11872e-09 5.48119e-08 -1.29556e-06)
(-7.02018e-09 5.3146e-08 -1.29494e-06)
(1.21447e-08 -1.4593e-07 -1.6641e-06)
(-6.36177e-08 5.29417e-08 -1.35058e-06)
(-1.15084e-07 1.06966e-07 -1.301e-06)
(-8.10769e-08 6.75971e-08 -1.27671e-06)
(9.11409e-10 1.20718e-08 -1.48086e-06)
(-4.03497e-08 3.51826e-08 -1.46583e-06)
(-2.58311e-08 2.5373e-08 -1.70889e-06)
(-8.1736e-09 2.23789e-08 -1.63824e-06)
(8.93481e-09 -1.83073e-08 -1.88357e-06)
(1.90999e-08 -5.47468e-08 -2.50104e-06)
(2.97425e-08 -9.54892e-08 -3.30194e-06)
(9.11217e-10 -9.4615e-08 -3.32228e-06)
(8.93901e-10 -1.54677e-07 -4.30382e-06)
(-3.40478e-08 -1.4649e-07 -4.28993e-06)
(-5.31751e-08 -2.39278e-07 -5.42913e-06)
(-1.295e-07 -1.51213e-07 -5.53259e-06)
(-8.24972e-08 -7.15397e-08 -5.32237e-06)
(-1.55182e-07 -1.42957e-07 -6.54589e-06)
(-2.90698e-07 -3.53006e-07 -6.89905e-06)
(-6.56975e-08 -5.88734e-08 -6.14033e-06)
(-1.92576e-08 -2.04384e-08 -4.91518e-06)
(5.20338e-09 1.94525e-10 -4.80673e-06)
(-1.80724e-06 1.13703e-06 -5.15337e-06)
(1.92612e-06 1.01713e-06 -5.12602e-06)
(-2.15688e-06 -1.23413e-06 -5.76528e-06)
(2.15988e-06 -1.08269e-06 -5.72388e-06)
(-2.27482e-08 4.70693e-08 -4.48695e-06)
(-1.97315e-06 8.8852e-07 -5.14295e-06)
(1.71111e-06 -8.2509e-07 -4.52071e-06)
(-1.33306e-08 3.89456e-08 -3.51008e-06)
(-1.52364e-06 7.04442e-07 -3.98831e-06)
(-1.94618e-09 -4.1529e-08 -3.14752e-06)
(1.49227e-06 8.09536e-07 -3.98539e-06)
(-1.70169e-06 -9.49748e-07 -4.54136e-06)
(-8.99502e-10 4.25431e-08 -3.51607e-06)
(-1.39778e-06 8.93873e-07 -3.99742e-06)
(1.21785e-06 -7.83885e-07 -3.5044e-06)
(1.17852e-09 3.41759e-08 -2.69504e-06)
(3.94236e-10 5.88133e-09 -2.97621e-06)
(7.80607e-10 4.63334e-09 -2.25609e-06)
(-1.39501e-08 -1.48845e-08 -2.15346e-06)
(-7.02588e-07 -5.87379e-07 -2.55582e-06)
(9.9498e-09 3.00772e-09 -1.49185e-06)
(5.96565e-07 5.286e-07 -2.2178e-06)
(1.1482e-08 -3.17086e-08 -1.3132e-06)
(4.14802e-08 -8.27704e-09 -1.33388e-06)
(-6.89495e-07 -5.27317e-07 -2.15698e-06)
(7.45458e-07 6.28418e-07 -2.47715e-06)
(-8.94986e-07 -7.01516e-07 -2.83819e-06)
(-8.94992e-07 7.0146e-07 -2.8381e-06)
(-2.07361e-09 1.38789e-08 -1.9673e-06)
(9.99722e-07 -8.26226e-07 -3.26066e-06)
(9.17774e-09 6.95131e-09 -2.31128e-06)
(-1.17289e-06 9.29216e-07 -3.73432e-06)
(-1.50881e-09 4.38186e-09 -2.58154e-06)
(1.31547e-06 -1.07643e-06 -4.26194e-06)
(-3.36377e-09 8.2083e-09 -3.01214e-06)
(-1.51169e-06 1.21008e-06 -4.8421e-06)
(-8.21924e-11 -1.31121e-08 -3.33258e-06)
(1.69686e-06 -1.37246e-06 -5.46587e-06)
(-3.33592e-08 6.39353e-09 -3.84292e-06)
(-1.88085e-06 1.54011e-06 -6.14803e-06)
(1.05883e-08 -6.01083e-08 -4.2085e-06)
(2.1562e-06 -1.69793e-06 -6.83263e-06)
(-1.27751e-07 -9.46237e-09 -4.77728e-06)
(-2.19785e-06 1.91102e-06 -7.64335e-06)
(6.57944e-08 -2.16614e-07 -5.18103e-06)
(2.77546e-06 -1.9799e-06 -8.17314e-06)
(-4.70657e-07 -1.62458e-07 -5.82639e-06)
(-2.14197e-06 2.2065e-06 -9.44337e-06)
(-2.87062e-07 -1.0582e-10 -7.54076e-06)
(-2.14191e-06 -2.20659e-06 -9.44334e-06)
(5.3975e-07 1.04057e-06 -6.15279e-06)
(3.34434e-06 2.26464e-06 -9.00962e-06)
(-1.21554e-07 3.60437e-07 -5.93774e-06)
(-2.24909e-06 -2.10475e-06 -8.76622e-06)
(-9.49085e-08 -2.35563e-08 -5.16511e-06)
(2.25486e-06 1.79317e-06 -7.84269e-06)
(-4.64287e-08 1.34675e-07 -4.72695e-06)
(-1.91571e-06 -1.70001e-06 -7.08053e-06)
(-4.93918e-08 -7.84566e-09 -4.22646e-06)
(1.74592e-06 1.46227e-06 -6.36128e-06)
(-2.506e-08 4.9767e-08 -3.78969e-06)
(-1.54309e-06 -1.34097e-06 -5.65222e-06)
(-2.24529e-08 -3.73992e-09 -3.35036e-06)
(1.36279e-06 1.16087e-06 -5.00472e-06)
(-8.31735e-09 1.39909e-08 -2.96503e-06)
(-1.20536e-06 -1.03588e-06 -4.407e-06)
(-8.03737e-09 -9.56456e-10 -2.59394e-06)
(1.04739e-06 9.00533e-07 -3.85283e-06)
(1.7737e-09 -3.52373e-09 -2.27345e-06)
(-9.22017e-07 -7.84552e-07 -3.37092e-06)
(1.47447e-09 1.16159e-09 -1.97301e-06)
(7.92532e-07 6.88654e-07 -2.92229e-06)
(8.17901e-09 -1.63407e-08 -1.72255e-06)
(2.08166e-08 -6.28053e-09 -1.75119e-06)
(-2.51769e-08 -2.31581e-08 -2.21014e-06)
(-2.86574e-08 -1.77447e-08 -1.69981e-06)
(-2.9445e-08 -6.05238e-09 -1.35828e-06)
(1.75723e-07 8.51801e-08 -1.22056e-06)
(1.60154e-08 -3.62493e-11 -1.18398e-06)
(-6.33046e-08 -5.55891e-12 -1.24665e-06)
(-7.22569e-08 -6.82015e-11 -1.49347e-06)
(-7.11961e-08 -8.74921e-12 -1.89339e-06)
(-7.77002e-08 2.40608e-11 -2.47498e-06)
(-8.97924e-08 4.39409e-11 -3.2372e-06)
(-9.42538e-08 1.14175e-10 -4.17034e-06)
(-5.87447e-08 4.08616e-10 -5.25575e-06)
(6.26027e-08 1.28956e-10 -6.44888e-06)
(2.02198e-07 -7.38091e-11 -7.47977e-06)
(-1.59685e-07 -1.88939e-10 -8.30844e-06)
(-1.34584e-06 6.38533e-07 -8.25232e-06)
(-1.34586e-06 -6.38668e-07 -8.25225e-06)
(-1.391e-06 -8.91565e-07 -7.7627e-06)
(-1.14552e-06 -8.48685e-07 -8.93157e-06)
(-4.24161e-07 -2.60556e-07 -7.40086e-06)
(-1.49661e-07 -4.5277e-07 -6.75376e-06)
(-6.19263e-07 -1.42286e-06 -8.71636e-06)
(1.0316e-06 4.29796e-06 -6.04596e-06)
(1.70683e-06 -4.14479e-07 -7.40568e-06)
(2.94577e-08 1.57157e-08 -6.89957e-06)
(5.85278e-09 -1.92407e-08 -7.08955e-06)
(1.04092e-07 -2.34385e-08 -6.8793e-06)
(-4.70583e-07 1.62484e-07 -5.8263e-06)
(2.77531e-06 1.97998e-06 -8.17302e-06)
(6.58473e-08 2.16494e-07 -5.18101e-06)
(-2.19784e-06 -1.911e-06 -7.64339e-06)
(-1.96649e-07 -4.93335e-11 -6.08614e-06)
(-5.26557e-08 -5.4841e-11 -6.25287e-06)
(-5.36263e-08 -6.14891e-11 -5.05936e-06)
(1.07364e-08 6.00439e-08 -4.20844e-06)
(-1.88082e-06 -1.54015e-06 -6.14809e-06)
(2.15616e-06 1.69791e-06 -6.83245e-06)
(-1.277e-07 9.44694e-09 -4.77733e-06)
(2.62976e-09 -1.63174e-08 -5.85212e-06)
(-1.52738e-08 -2.05274e-08 -4.71036e-06)
(-3.33426e-08 -6.44414e-09 -3.84289e-06)
(1.69666e-06 1.37244e-06 -5.46575e-06)
(1.85362e-12 1.3041e-08 -3.33259e-06)
(-1.51158e-06 -1.21019e-06 -4.84226e-06)
(-3.5162e-08 -1.44191e-11 -3.89048e-06)
(-4.87972e-08 -5.14146e-11 -4.01325e-06)
(-4.19107e-08 -5.92336e-11 -3.11319e-06)
(-3.33979e-08 -5.09646e-11 -2.37462e-06)
(-1.9996e-09 -1.40024e-08 -1.9673e-06)
(9.99726e-07 8.26171e-07 -3.26051e-06)
(-1.17288e-06 -9.29299e-07 -3.73445e-06)
(1.31544e-06 1.07641e-06 -4.2618e-06)
(-3.31817e-09 -8.19929e-09 -3.01206e-06)
(-1.77676e-08 -2.04864e-08 -3.69498e-06)
(-1.60581e-08 -1.81054e-08 -2.83841e-06)
(1.70959e-09 -5.22071e-11 -2.50066e-06)
(6.33116e-10 -3.47132e-11 -1.89631e-06)
(-1.90979e-09 -1.49444e-11 -1.47537e-06)
(-1.49983e-08 -2.15328e-11 -1.40826e-06)
(-1.45268e-08 -5.00443e-08 -1.16217e-06)
(5.45686e-07 4.84946e-07 -1.91962e-06)
(3.63693e-08 -1.98324e-11 -1.37431e-06)
(5.45702e-07 -4.85015e-07 -1.91967e-06)
(4.13972e-08 8.256e-09 -1.33391e-06)
(-6.89488e-07 5.27258e-07 -2.15695e-06)
(-4.66075e-09 2.47863e-08 -1.49459e-06)
(7.45504e-07 -6.28512e-07 -2.47726e-06)
(2.08131e-08 6.24213e-09 -1.7512e-06)
(-1.39465e-08 1.48126e-08 -2.15347e-06)
(-2.38561e-08 -2.77308e-11 -1.80447e-06)
(-4.62868e-09 -2.48871e-08 -1.49457e-06)
(1.46383e-08 -2.27581e-11 -1.7508e-06)
(-1.39257e-08 1.15648e-08 -1.64088e-06)
(-2.58571e-08 3.93164e-09 -1.26556e-06)
(-5.50534e-07 3.68299e-07 -1.49124e-06)
(1.94208e-08 6.02031e-08 -1.07057e-06)
(4.50879e-07 -4.18978e-07 -1.75827e-06)
(9.38233e-08 3.03843e-08 -1.06801e-06)
(3.63493e-07 -3.79675e-07 -1.60986e-06)
(-8.40485e-08 1.56103e-07 -9.52514e-07)
(-5.7106e-07 3.33247e-07 -1.14998e-06)
(4.53504e-08 2.12899e-13 -1.19565e-06)
(2.21993e-07 -2.51418e-07 -1.10695e-06)
(3.12687e-07 7.60638e-08 -9.11225e-07)
(1.40927e-07 -3.16367e-07 -1.04472e-06)
(3.72734e-07 -8.98666e-08 -1.08099e-06)
(1.30074e-07 -1.13041e-07 -1.38504e-06)
(4.52519e-08 -1.35446e-08 -1.11645e-06)
(-1.1894e-07 -7.32167e-08 -1.07025e-06)
(6.58711e-08 -3.71806e-08 -1.26014e-06)
(-2.88189e-08 2.83396e-08 -1.17356e-06)
(-3.09855e-08 8.39278e-08 -1.16491e-06)
(1.28221e-07 -1.09233e-07 -1.22435e-06)
(-2.84312e-08 3.71e-08 -1.08342e-06)
(1.95251e-08 -1.13314e-07 -1.25167e-06)
(1.04595e-09 8.40162e-08 -1.17721e-06)
(1.25403e-09 -1.08021e-11 -1.20896e-06)
(1.03135e-09 -8.4014e-08 -1.17717e-06)
(3.76388e-10 -4.13016e-08 -1.0844e-06)
(1.20784e-09 2.24976e-07 -1.70584e-06)
(1.95299e-08 1.13317e-07 -1.25167e-06)
(-2.35073e-09 1.5229e-08 -1.24269e-06)
(6.58724e-08 3.71838e-08 -1.26013e-06)
(-1.62054e-08 -2.78311e-08 -9.77557e-07)
(-1.1894e-07 7.32066e-08 -1.07023e-06)
(4.52722e-08 1.35404e-08 -1.11646e-06)
(1.11028e-09 1.56456e-08 -1.24307e-06)
(3.8239e-08 -8.05758e-08 -1.15752e-06)
(3.25295e-08 -3.41099e-08 -1.07778e-06)
(-2.04407e-08 1.12994e-07 -1.25346e-06)
(-1.25422e-07 1.05199e-07 -1.22036e-06)
(3.81631e-08 -2.43033e-08 -1.16726e-06)
(-6.54802e-08 2.68892e-08 -1.23233e-06)
(1.22383e-07 1.4849e-07 -9.19923e-07)
(3.74101e-07 -2.16447e-07 -1.24287e-06)
(-2.13501e-07 1.99507e-07 -1.23639e-06)
(7.47421e-08 -3.07958e-08 -1.61618e-06)
(3.45274e-08 -1.93876e-12 -1.17995e-06)
(1.9153e-08 2.5705e-14 -1.31171e-06)
(1.54487e-08 1.46786e-12 -1.40008e-06)
(2.74413e-09 -8.2712e-12 -1.41058e-06)
(-1.27572e-10 -7.30255e-12 -1.33621e-06)
(4.50436e-10 -1.59306e-11 -1.47205e-06)
(-5.71594e-10 -1.45964e-11 -1.89304e-06)
(-1.70324e-09 -1.65172e-11 -2.49777e-06)
(-4.13216e-09 -3.8513e-11 -3.27787e-06)
(1.86121e-09 -5.18686e-11 -3.28077e-06)
(2.26732e-09 -2.91756e-11 -4.2288e-06)
(6.07935e-09 -4.3373e-11 -5.32459e-06)
(1.85021e-08 -6.61556e-11 -6.56253e-06)
(-1.55174e-07 -5.12836e-11 -9.13693e-06)
(-3.86136e-07 -5.24816e-11 -8.389e-06)
(1.6175e-06 -1.13502e-10 -1.22941e-05)
(-3.09665e-07 -1.19743e-06 -7.35413e-06)