/*--------------------------------*- C++ -*----------------------------------*\
| =========                 |                                                 |
| \\      /  F ield         | OpenFOAM: The Open Source CFD Toolbox           |
|  \\    /   O peration     | Version:  2306                                  |
|   \\  /    A nd           | Website:  www.openfoam.com                      |
|    \\/     M anipulation  |                                                 |
\*---------------------------------------------------------------------------*/
FoamFile
{
    version     2.0;
    format      ascii;
    arch        "LSB;label=32;scalar=64";
    class       volScalarField;
    location    "3";
    object      gradTz;
}
// * * * * * * * * * * * * * * * * * * * * * * * * * * * * * * * * * * * * * //

dimensions      [0 -1 0 1 0 0 0];

internalField   nonuniform List<scalar> 
2658
(
-0.0771794
-0.0749346
-0.0582315
-0.0531045
-0.065036
-0.0666747
-0.0617873
-0.0595212
-0.0530602
-0.0664797
-0.064759
-0.0505829
-0.0669596
-0.0624016
-0.0648703
-0.0667307
-0.0637935
-0.0665809
-0.0648255
-0.0615949
-0.0658798
-0.0593345
-0.067973
-0.0525932
-0.0820479
-0.0657233
-0.0585522
-0.0695029
-0.0707154
-0.0577931
-0.0707152
-0.0585527
-0.065723
-0.0679733
-0.0820481
-0.0525931
-0.0684331
-0.0942898
-0.0593335
-0.0658821
-0.0615972
-0.064826
-0.0665789
-0.0976613
-0.0628601
-0.0621566
-0.06476
-0.0975517
-0.0667311
-0.0648697
-0.0623993
-0.0669603
-0.0599214
-0.0975898
-0.0670209
-0.0649644
-0.0975553
-0.0624418
-0.0529187
-0.0666438
-0.0975579
-0.0649659
-0.0670186
-0.0975894
-0.0637756
-0.0506827
-0.0645896
-0.0588529
-0.0659911
-0.0659889
-0.0539785
-0.0606646
-0.0476323
-0.0554141
-0.0431224
-0.0547799
-0.0552697
-0.0430674
-0.0498375
-0.0489228
-0.0552626
-0.0476187
-0.0603709
-0.0619822
-0.0500211
-0.0404311
-0.0320405
-0.0248218
-0.018896
-0.0143143
-0.0110943
-0.0121865
-0.0108199
-0.00891386
-0.00978119
-0.010284
-0.00959932
-0.0145806
-0.00960714
-0.00975036
-0.0146662
-0.00987083
-0.0104643
-0.0118851
-0.0100358
-0.0107158
-0.00761514
-0.0125635
-0.00835514
-0.0128413
-0.0119199
-0.00972777
-0.0134107
-0.00972741
-0.0119199
-0.0128409
-0.0100357
-0.0107157
-0.0104642
-0.011885
-0.00987082
-0.0146655
-0.00975017
-0.00960692
-0.00926966
-0.00931505
-0.00891344
-0.010284
-0.009599
-0.00978126
-0.014596
-0.00974201
-0.0116844
-0.00966568
-0.012677
-0.00885706
-0.00854558
-0.00993956
-0.00865044
-0.00865074
-0.00854532
-0.00885709
-0.00986006
-0.0105113
-0.0132283
-0.0105064
-0.0121892
-0.0116151
-0.0083575
-0.00839954
-0.007989
-0.011259
-0.0108775
-0.00707859
-0.0094668
-0.00889861
-0.00806024
-0.00888933
-0.00841752
-0.0086912
-0.00896395
-0.00863491
-0.00897042
-0.00870037
-0.00838899
-0.00886173
-0.00806801
-0.00923909
-0.0135782
-0.011114
-0.0136841
-0.0158814
-0.0181469
-0.0207487
-0.0239552
-0.0274698
-0.03156
-0.0360242
-0.0409451
-0.046341
-0.0519633
-0.0581279
-0.0643766
-0.069034
-0.0668826
-0.0656731
-0.0662783
-0.0664802
-0.0650353
-0.0531034
-0.066676
-0.0645873
-0.0506821
-0.0637758
-0.0505831
-0.0827854
-0.0500213
-0.0404308
-0.0320402
-0.0248215
-0.0188958
-0.0143141
-0.0110941
-0.0121864
-0.0108198
-0.00726122
-0.00781263
-0.0121407
-0.00802442
-0.00802439
-0.00781267
-0.00726125
-0.0121408
-0.00749776
-0.00931494
-0.00926968
-0.0102688
-0.0089845
-0.0108499
-0.00731908
-0.00747586
-0.0110429
-0.0120854
-0.0121267
-0.0121951
-0.0121265
-0.0108498
-0.00761496
-0.0081672
-0.0125633
-0.00872192
-0.00872188
-0.00816714
-0.0113099
-0.00792137
-0.0079764
-0.0079762
-0.0121348
-0.00792123
-0.0106213
-0.0101486
-0.00995636
-0.00926068
-0.0104644
-0.0100302
-0.0104276
-0.0141346
-0.0110613
-0.00814103
-0.0118377
-0.00892912
-0.00778826
-0.00946095
-0.0098289
-0.0137592
-0.0142606
-0.0142604
-0.00993294
-0.016689
-0.011224
-0.018956
-0.0218448
-0.0147228
-0.0249774
-0.0288111
-0.0194315
-0.0329312
-0.0376663
-0.0253427
-0.0427755
-0.0483091
-0.0323905
-0.0543705
-0.0605174
-0.0404018
-0.0670323
-0.0749243
-0.0507505
-0.0770077
-0.052588
-0.0667319
-0.066731
-0.0695019
-0.0692565
-0.062856
-0.0584028
-0.0834209
-0.0559736
-0.0559739
-0.05641
-0.083572
-0.0571433
-0.0571431
-0.0541246
-0.0821948
-0.0685748
-0.0685728
-0.0775189
-0.109221
-0.0775176
-0.0787383
-0.107946
-0.0784016
-0.0910701
-0.0802947
-0.0784951
-0.0651527
-0.0762222
-0.0871959
-0.081964
-0.054125
-0.0515991
-0.080934
-0.0654222
-0.078765
-0.10795
-0.0784515
-0.0871493
-0.0791459
-0.0800015
-0.079146
-0.0809338
-0.0651518
-0.0784951
-0.0784007
-0.107944
-0.0787377
-0.0762234
-0.0871968
-0.0871475
-0.0784546
-0.107945
-0.0787652
-0.0654219
-0.076149
-0.0780339
-0.109303
-0.0776285
-0.0687925
-0.0823198
-0.0541101
-0.0686522
-0.0796541
-0.0804462
-0.0531305
-0.0430775
-0.0342002
-0.0265244
-0.0202081
-0.0153119
-0.0118655
-0.0117845
-0.0132991
-0.0131177
-0.0131692
-0.0132436
-0.0151205
-0.0173084
-0.0197268
-0.0228625
-0.02613
-0.0301504
-0.0342849
-0.0391773
-0.0441103
-0.0498379
-0.0552674
-0.0619827
-0.0530598
-0.0595212
-0.0617856
-0.0606668
-0.055172
-0.0440429
-0.0551733
-0.0490937
-0.0497355
-0.0482255
-0.0432968
-0.0441974
-0.0340911
-0.038082
-0.0340416
-0.0441119
-0.0383498
-0.0439575
-0.0438132
-0.0347829
-0.0388151
-0.038794
-0.0440478
-0.0383946
-0.0492765
-0.0439128
-0.0548762
-0.061026
-0.0538574
-0.0662777
-0.05891
-0.0621565
-0.097551
-0.0761489
-0.0686521
-0.0541097
-0.0806701
-0.062328
-0.0559758
-0.0524501
-0.0426234
-0.0338345
-0.0262343
-0.0199797
-0.0151352
-0.0117195
-0.0120852
-0.0110429
-0.00747591
-0.0121347
-0.00731895
-0.00898451
-0.0102686
-0.0142791
-0.0104888
-0.0104198
-0.010359
-0.0105893
-0.0100106
-0.0079857
-0.0110732
-0.0131956
-0.0117065
-0.0153523
-0.0145211
-0.0129039
-0.0115975
-0.0125015
-0.0112778
-0.0113178
-0.0112811
-0.0111712
-0.0104972
-0.0124999
-0.0127812
-0.0112543
-0.0125411
-0.0161759
-0.0165048
-0.0161131
-0.0212392
-0.0218603
-0.0189751
-0.0143849
-0.0140211
-0.0149606
-0.0150263
-0.017163
-0.0171738
-0.0131981
-0.0149425
-0.0118702
-0.0125635
-0.0161916
-0.0215101
-0.0214767
-0.0283267
-0.0288014
-0.0278872
-0.0360119
-0.0372942
-0.0328102
-0.0251119
-0.0244586
-0.0260026
-0.0259678
-0.0299018
-0.0298128
-0.0229834
-0.0259408
-0.0226458
-0.0173897
-0.0195499
-0.0154177
-0.0196078
-0.0226807
-0.0174333
-0.0195904
-0.0172884
-0.0132277
-0.014657
-0.0140246
-0.0166887
-0.00977789
-0.0150275
-0.00914995
-0.0127455
-0.00777338
-0.00912805
-0.0108166
-0.0111686
-0.0106778
-0.0110732
-0.0110678
-0.0142231
-0.0115434
-0.0111197
-0.0109121
-0.0126569
-0.0125285
-0.0146059
-0.0140021
-0.0160989
-0.0213764
-0.0282217
-0.0283956
-0.0367848
-0.0366661
-0.0464028
-0.0472871
-0.0454904
-0.0559478
-0.0589663
-0.0524815
-0.0420101
-0.0410832
-0.0440459
-0.0438122
-0.0492759
-0.0489221
-0.03835
-0.0439568
-0.0386385
-0.0300007
-0.0340881
-0.0269019
-0.0340631
-0.0388151
-0.0300519
-0.034166
-0.0299522
-0.0230346
-0.0254377
-0.0192828
-0.0184056
-0.0218446
-0.0127509
-0.0189556
-0.0112239
-0.0114007
-0.0184358
-0.0211723
-0.024258
-0.0242572
-0.0168146
-0.0278689
-0.0197545
-0.0319173
-0.0220645
-0.0364268
-0.0257448
-0.0413855
-0.0284836
-0.0467169
-0.0328454
-0.0525472
-0.0359701
-0.0583985
-0.0408315
-0.0653278
-0.0442823
-0.0698559
-0.0497982
-0.0807125
-0.064451
-0.0807123
-0.052588
-0.0770053
-0.0507499
-0.0749249
-0.0441462
-0.0670315
-0.0404012
-0.0605174
-0.0361236
-0.0543699
-0.0323905
-0.0483096
-0.0286355
-0.0427754
-0.0253421
-0.0376667
-0.0221705
-0.0329302
-0.0194312
-0.0288113
-0.0168633
-0.0249768
-0.0147227
-0.0149674
-0.0188901
-0.0145283
-0.0116092
-0.0104322
-0.0101195
-0.0106551
-0.0127647
-0.0161828
-0.0211537
-0.0276684
-0.035644
-0.0449209
-0.0551186
-0.0639296
-0.0710123
-0.0705326
-0.0705321
-0.0663478
-0.0763382
-0.0632552
-0.0577244
-0.0744988
-0.0516749
-0.0632964
-0.0589707
-0.0605944
-0.0587975
-0.0497975
-0.0698548
-0.0442822
-0.0653281
-0.0520183
-0.0534434
-0.0432424
-0.0359696
-0.0525478
-0.058397
-0.0408319
-0.0500181
-0.0402595
-0.0328452
-0.0467158
-0.0284836
-0.0413868
-0.033252
-0.0343012
-0.0266084
-0.0202959
-0.0168145
-0.0278676
-0.0319183
-0.0364256
-0.0257441
-0.031581
-0.0242599
-0.0213731
-0.0162078
-0.01261
-0.0120364
-0.00993307
-0.016407
-0.0117462
-0.0164074
-0.0114009
-0.0184355
-0.0127742
-0.0211731
-0.0149676
-0.0184058
-0.0154228
-0.0127741
-0.0149641
-0.0140246
-0.0108167
-0.0127457
-0.00915019
-0.015028
-0.00912832
-0.0137594
-0.00814115
-0.0098289
-0.0102192
-0.00946107
-0.00778825
-0.00892925
-0.00923921
-0.011838
-0.00954235
-0.00914746
-0.0107704
-0.0100304
-0.00995646
-0.0104646
-0.00925997
-0.010698
-0.0100616
-0.010333
-0.0100613
-0.00926841
-0.0145798
-0.0106981
-0.0106213
-0.0107703
-0.00835519
-0.00914724
-0.00954238
-0.0106246
-0.00989332
-0.00921175
-0.0107134
-0.0104305
-0.00997656
-0.0105327
-0.00786259
-0.0106228
-0.0105674
-0.0138135
-0.010085
-0.0112112
-0.0119665
-0.0120563
-0.0114206
-0.0125816
-0.0161798
-0.0213485
-0.0280159
-0.0280408
-0.0361436
-0.0455093
-0.05609
-0.0780934
-0.0717009
-0.105078
-0.0628558
-0.0692568
-0.0937454
-0.0783304
-0.0783295
-0.0937463
-0.0996767
-0.0618184
-0.0801243
-0.0801382
-0.0815526
-0.0525651
-0.0666417
-0.0754392
-0.0793547
-0.108367
-0.0794854
-0.0921376
-0.0780306
-0.0859673
-0.0781673
-0.0806903
-0.0807742
-0.0866772
-0.103541
-0.0807764
-0.0996762
-0.0801266
-0.061817
-0.0551015
-0.0815524
-0.0666417
-0.0525647
-0.0534182
-0.0823203
-0.0687939
-0.077628
-0.109304
-0.0780354
-0.0870404
-0.0803408
-0.0806904
-0.0816102
-0.0829839
-0.0551013
-0.0835938
-0.0809398
-0.086459
-0.0803424
-0.077937
-0.0870402
-0.0770677
-0.0819643
-0.0515997
-0.0806697
-0.0623284
-0.0589109
-0.0623343
-0.0579149
-0.0465828
-0.0515465
-0.0553851
-0.0548748
-0.0610266
-0.0603702
-0.0476176
-0.0552618
-0.0439114
-0.0516535
-0.0464404
-0.0365931
-0.0411192
-0.0320026
-0.0244332
-0.0184324
-0.0184597
-0.0227718
-0.0202726
-0.019266
-0.0190703
-0.0151272
-0.0198483
-0.0228127
-0.0200099
-0.0262001
-0.0253607
-0.0223538
-0.0199609
-0.0293948
-0.0263453
-0.0343446
-0.0334267
-0.0263007
-0.0380814
-0.0340905
-0.0441976
-0.043296
-0.0340415
-0.0482252
-0.0431225
-0.0554154
-0.0547793
-0.0430678
-0.0539701
-0.0579549
-0.074891
-0.0746283
-0.0637935
-0.062192
-0.0531814
-0.06585
-0.058487
-0.0582312
-0.0467477
-0.0368625
-0.0284524
-0.021594
-0.0163244
-0.0161647
-0.0184897
-0.0173876
-0.0196328
-0.0155302
-0.0196335
-0.0226763
-0.0205137
-0.0259902
-0.0259893
-0.0226772
-0.019891
-0.0150834
-0.011733
-0.0114392
-0.0106382
-0.0106879
-0.0106334
-0.00950975
-0.0106343
-0.0134591
-0.0120532
-0.0150696
-0.0150682
-0.0134603
-0.0114625
-0.0153064
-0.01001
-0.0100093
-0.00882745
-0.00947126
-0.0153066
-0.0110736
-0.00798518
-0.0100107
-0.0129037
-0.0117069
-0.014522
-0.0153513
-0.0131965
-0.010688
-0.0114393
-0.0111687
-0.0118657
-0.00977805
-0.0136843
-0.0117846
-0.0149608
-0.0132278
-0.017163
-0.0154182
-0.0195503
-0.01739
-0.0226462
-0.0228625
-0.0199621
-0.0253621
-0.0261996
-0.0200107
-0.0223537
-0.019071
-0.0198478
-0.0151279
-0.0169992
-0.0150647
-0.0197271
-0.0173083
-0.0171734
-0.0149428
-0.0131985
-0.0151211
-0.0115981
-0.0132437
-0.0131691
-0.0118701
-0.0150263
-0.0131179
-0.0132992
-0.0104889
-0.0106779
-0.0104198
-0.00773463
-0.0103594
-0.0106382
-0.0105892
-0.00726091
-0.00869141
-0.00896418
-0.0142236
-0.0110681
-0.0110733
-0.0112546
-0.0104973
-0.0104324
-0.0116094
-0.0145284
-0.0124997
-0.0161137
-0.0188902
-0.0248192
-0.02124
-0.0278883
-0.0322749
-0.0322748
-0.0248189
-0.019754
-0.0411296
-0.0411297
-0.0360126
-0.0454905
-0.0511008
-0.0510993
-0.0608042
-0.0608051
-0.0559474
-0.0663482
-0.0763456
-0.0632541
-0.0690349
-0.0535023
-0.0668819
-0.0589696
-0.0628595
-0.053181
-0.0796536
-0.0804453
-0.0531304
-0.0430777
-0.0342004
-0.0265246
-0.0202083
-0.015312
-0.012751
-0.018147
-0.0153088
-0.0195905
-0.0174339
-0.0226812
-0.0204294
-0.0259416
-0.0229833
-0.0298136
-0.0301502
-0.0263014
-0.0334275
-0.0343441
-0.0263459
-0.0293946
-0.0301099
-0.0229838
-0.0298577
-0.0269828
-0.0341135
-0.0341131
-0.029858
-0.0229843
-0.0301085
-0.0244623
-0.0217367
-0.0164742
-0.0128812
-0.0109762
-0.0114633
-0.01091
-0.00946075
-0.00708468
-0.0116139
-0.0126758
-0.00966733
-0.0116854
-0.010567
-0.00974268
-0.0145963
-0.00841732
-0.00888927
-0.0138128
-0.00806014
-0.00889849
-0.0111185
-0.0112776
-0.0113175
-0.011281
-0.008389
-0.00870056
-0.0142791
-0.00897064
-0.0086356
-0.0074577
-0.0111141
-0.00777361
-0.0135784
-0.00886201
-0.0080678
-0.0111703
-0.0125411
-0.0127812
-0.0143853
-0.0158819
-0.0140214
-0.0172887
-0.0161762
-0.016506
-0.0189752
-0.0207495
-0.0239551
-0.0202724
-0.0260034
-0.0230344
-0.0299524
-0.0299022
-0.0269031
-0.034089
-0.0300006
-0.0386396
-0.0391773
-0.0342868
-0.0320029
-0.0320116
-0.0341668
-0.0300518
-0.034064
-0.0262345
-0.0199801
-0.0151354
-0.0117196
-0.0146571
-0.0192829
-0.0254378
-0.02426
-0.0315811
-0.0331259
-0.0331258
-0.0422221
-0.038393
-0.049098
-0.0435416
-0.0523484
-0.0476433
-0.0606089
-0.0535028
-0.0538399
-0.0434229
-0.034045
-0.0261276
-0.0197958
-0.0150376
-0.0132078
-0.0172329
-0.0172308
-0.0172299
-0.0172343
-0.0132076
-0.0150376
-0.0197959
-0.0173875
-0.0228135
-0.0184903
-0.0141285
-0.0126567
-0.0163244
-0.0215946
-0.0244626
-0.0255409
-0.0192663
-0.018433
-0.0184602
-0.0227722
-0.0214769
-0.0218609
-0.0251125
-0.0274707
-0.03156
-0.0266834
-0.0360248
-0.0409452
-0.0344889
-0.046342
-0.0519639
-0.0435426
-0.0553871
-0.047644
-0.0606086
-0.0643768
-0.0441458
-0.0581286
-0.0361237
-0.0524824
-0.0420103
-0.0328104
-0.0288031
-0.0283272
-0.0366673
-0.0372971
-0.0464047
-0.047291
-0.0577263
-0.0589638
-0.0745014
-0.0516741
-0.0684322
-0.094289
-0.0780315
-0.079484
-0.108364
-0.0793546
-0.0754389
-0.0976607
-0.0632964
-0.0621923
-0.0656739
-0.0524501
-0.0426238
-0.0338348
-0.0361139
-0.0454559
-0.0523486
-0.0500181
-0.0402596
-0.0422223
-0.0434233
-0.033682
-0.0261125
-0.0340453
-0.0261278
-0.0300081
-0.0391229
-0.0387248
-0.0348805
-0.0439516
-0.0439506
-0.0387249
-0.0300079
-0.0391214
-0.0320265
-0.0334529
-0.0282993
-0.0255406
-0.0214407
-0.0429825
-0.0367246
-0.0411512
-0.0497342
-0.0490942
-0.038367
-0.0424417
-0.0522429
-0.0794906
-0.0769808
-0.0564103
-0.0799953
-0.0605941
-0.0587974
-0.0835945
-0.0584031
-0.0829829
-0.08094
-0.0864583
-0.0859675
-0.0801394
-0.0921378
-0.0781667
-0.0779398
-0.0820144
-0.082785
-0.0624414
-0.0623117
-0.0582366
-0.0516827
-0.0476324
-0.0623105
-0.0749331
-0.0771826
-0.0623406
-0.0747527
-0.0666427
-0.0638533
-0.0588521
-0.0468892
-0.0370338
-0.0286115
-0.0320267
-0.0284531
-0.0368622
-0.0411515
-0.0383672
-0.0429832
-0.0334536
-0.0282223
-0.0213772
-0.0160991
-0.0125016
-0.0125632
-0.0161916
-0.0215104
-0.0244596
-0.0259688
-0.0283962
-0.0367857
-0.0410842
-0.0490976
-0.0515471
-0.0516527
-0.0411205
-0.0365938
-0.0464411
-0.0465844
-0.0579168
-0.0746307
-0.0623332
-0.0579565
-0.0748911
-0.0658515
-0.0539702
-0.0516834
-0.0467485
-0.0466895
-0.0584876
-0.0367275
-0.0244337
-0.0261312
-0.0140026
-0.0146061
-0.0115432
-0.0125294
-0.0161655
-0.0214417
-0.028304
-0.0538401
-0.0466841
-0.0286356
-0.0221704
-0.0168638
-0.0196082
-0.0141284
-0.0169992
-0.0150642
-0.00921202
-0.00989353
-0.0106246
-0.010533
-0.0101537
-0.00997748
-0.010431
-0.0107135
-0.009268
-0.0106229
-0.00786202
-0.00993962
-0.0108933
-0.00882715
-0.00947144
-0.00986365
-0.0116088
-0.0320108
-0.038794
-0.0344888
-0.0538555
-0.0534187
-0.0799955
-0.0770649
-0.00749766
-0.00763402
-0.0220648
-0.0257588
-0.0196457
-0.0420327
-0.0266826
-0.0347826
-0.0153086
-0.0204283
-0.00745769
-0.00773447
-0.00726027
-0.0802945
-0.0910693
-0.0770121
-0.0777061
-0.0770142
-0.05992
-0.0623419
0.0111197
0.0109121
0.0126568
0.0117069
0.0129042
0.0131956
0.0153523
0.0145212
0.0115979
0.0132442
0.0105895
0.0072603
0.00888942
0.00841756
0.00869119
0.00896396
0.00863504
0.00897027
0.00870019
0.00838883
0.00886164
0.00806765
0.00923906
0.00777336
0.0118377
0.00892909
0.0077881
0.00954209
0.00946078
0.00763392
0.00946061
0.00778797
0.00892884
0.00923888
0.0118376
0.00777329
0.011114
0.0135781
0.00806743
0.00886167
0.0083887
0.00870011
0.00897018
0.0142787
0.0104195
0.010359
0.0105888
0.0142228
0.00896378
0.00869101
0.00841719
0.00888894
0.00805991
0.0138125
0.00889842
0.00947104
0.0153065
0.0106343
0.00950985
0.0100102
0.0153065
0.00947173
0.00889856
0.0138135
0.0100108
0.00798551
0.0110734
0.010688
0.0134603
0.0134592
0.0120534
0.0150683
0.0132076
0.0172332
0.0151279
0.0169995
0.0173085
0.0150645
0.0197266
0.0195498
0.0171738
0.0131981
0.0149427
0.0151204
0.0110942
0.0143141
0.0188957
0.0248214
0.0320401
0.0404306
0.0500204
0.0827826
0.0809323
0.0654206
0.0787655
0.0761464
0.0780342
0.109304
0.0776275
0.0793539
0.108366
0.0794839
0.0780293
0.0921373
0.080125
0.0801364
0.0550992
0.0835912
0.0618155
0.0996739
0.0937454
0.0783299
0.103538
0.078327
0.0937446
0.0996739
0.080126
0.0801348
0.0780294
0.0921377
0.0794837
0.108363
0.0793528
0.0776298
0.0687897
0.0686504
0.0654193
0.0761466
0.078036
0.0787662
0.107947
0.0784561
0.0910703
0.0784013
0.107945
0.0787377
0.0775197
0.0762222
0.0685737
0.0685746
0.0775193
0.078739
0.107946
0.078403
0.0910689
0.0802933
0.0784535
0.107947
0.0623972
0.0669567
0.0975861
0.0599172
0.067019
0.0623415
0.0649651
0.0666433
0.0638548
0.0666429
0.0529173
0.0624406
0.0624411
0.097553
0.0649645
0.0623391
0.0670194
0.0599193
0.0669583
0.062398
0.0648668
0.0667276
0.0637917
0.0665773
0.0648213
0.061592
0.0658757
0.0593312
0.067968
0.0942826
0.0684292
0.0690318
0.0643747
0.0581279
0.0519621
0.0463416
0.0409444
0.0360248
0.0315593
0.0274701
0.0239547
0.0207493
0.018147
0.0158817
0.0136838
0.0132992
0.0131175
0.0131689
0.0132433
0.0129036
0.0117069
0.0131963
0.0110736
0.00798524
0.0100106
0.00726065
0.0121862
0.0110941
0.0143142
0.0188958
0.0248216
0.0320402
0.0404303
0.0500201
0.0827828
0.0809331
0.051599
0.0541231
0.0806682
0.0571427
0.0571428
0.0541237
0.0515982
0.080668
0.0541089
0.0686506
0.0687924
0.075437
0.066641
0.0815522
0.0525643
0.0534175
0.0823198
0.0796512
0.0804429
0.0780917
0.0804424
0.0815506
0.0550994
0.0584
0.0835911
0.0628532
0.0628539
0.0584005
0.0834193
0.0559724
0.0564086
0.0564095
0.0799936
0.055973
0.0809386
0.0816111
0.0806903
0.0781673
0.0859697
0.0807732
0.0866766
0.105072
0.0716979
0.0525854
0.0820435
0.0657184
0.0585485
0.0707116
0.066727
0.0807103
0.0698529
0.069853
0.0442814
0.06703
0.0404004
0.060517
0.0543696
0.0323902
0.0483083
0.0427743
0.0253417
0.0376655
0.0329301
0.0194311
0.0288106
0.0249774
0.0147228
0.0218448
0.0189563
0.011224
0.0166889
0.0150278
0.00915005
0.0127455
0.00814121
0.00982872
0.00982873
0.0095419
0.00914723
0.00872193
0.00816719
0.0113097
0.00792113
0.00792123
0.00797641
0.0114206
0.00802432
0.00802436
0.00781268
0.0112112
0.00865042
0.00865076
0.00854522
0.0121891
0.0105063
0.0105109
0.0116134
0.0126754
0.00966724
0.0116854
0.00974276
0.0145957
0.00978092
0.00891381
0.0108197
0.00786196
0.0106228
0.0105665
0.0104307
0.0107135
0.00959921
0.0145797
0.00960689
0.00926961
0.0110427
0.00749749
0.00931474
0.0102835
0.0120851
0.0121263
0.0118655
0.0153119
0.020208
0.0265244
0.0341997
0.0430768
0.0531288
0.0535012
0.0668801
0.0656713
0.0662753
0.0664773
0.0619813
0.0552666
0.049837
0.0441102
0.039177
0.0342855
0.0301501
0.0261301
0.0228624
0.0197268
0.0173082
0.0151207
0.0115979
0.0145216
0.0153513
0.0150693
0.01723
0.0155303
0.0172308
0.0196323
0.019848
0.0190702
0.0223538
0.0228128
0.0200101
0.0253608
0.0199611
0.0228624
0.0173901
0.022646
0.0226809
0.0204285
0.0259677
0.0260023
0.0227721
0.0174331
0.0196077
0.0154181
0.0171632
0.0150263
0.0118699
0.0131693
0.0106383
0.0103592
0.0142232
0.010284
0.00978129
0.014596
0.00974232
0.0116843
0.00966569
0.0126768
0.0116085
0.00986318
0.00854559
0.00885703
0.0099395
0.00786269
0.00726127
0.0108199
0.0106229
0.00891365
0.009315
0.00749769
0.0121408
0.00781257
0.0119664
0.0117329
0.0150833
0.0198908
0.0261124
0.0336819
0.0424412
0.052242
0.0794884
0.0821949
0.080001
0.0791452
0.0770665
0.0870407
0.077942
0.109305
0.0864584
0.0666398
0.0525643
0.0534172
0.0799933
0.0605923
0.058968
0.0628572
0.0621538
0.064758
0.0637745
0.0506811
0.0645868
0.0666754
0.053104
0.0617851
0.0595205
0.0650347
0.0530597
0.0579535
0.0748877
0.0746249
0.0744975
0.0763406
0.0663441
0.0559457
0.0589651
0.0632518
0.0577248
0.0464019
0.0472878
0.0454909
0.0360116
0.0372952
0.0420106
0.0524794
0.0515452
0.0606077
0.0610243
0.0548741
0.0552608
0.0476169
0.0603691
0.0538547
0.0524487
0.0796509
0.0823179
0.0541097
0.0819637
0.0803423
0.0809386
0.0829819
0.0618145
0.0692516
0.0694973
0.0705276
0.0710094
0.0639273
0.0551169
0.0449198
0.0356432
0.0276679
0.0211539
0.016183
0.0127648
0.0106551
0.0101195
0.0104322
0.0104321
0.0104971
0.0124999
0.0161134
0.0212394
0.0278874
0.0288017
0.0328105
0.0366668
0.0283269
0.0214766
0.02186
0.0251121
0.0244588
0.0299522
0.0299018
0.0259683
0.0259409
0.0229833
0.0298132
0.0340881
0.0300003
0.038639
0.0439563
0.0383499
0.048922
0.0439104
0.0492753
0.0438121
0.0383939
0.0490974
0.0553841
0.0476429
0.0523474
0.0426226
0.0338343
0.0347826
0.0388152
0.0340635
0.0300522
0.0387944
0.044046
0.0344888
0.0410833
0.0465829
0.0579137
0.0621888
0.063293
0.097654
0.0754355
0.0516711
0.0623313
0.0975455
0.0658499
0.0771779
0.0749328
0.0582317
0.0584936
0.0539678
0.0516511
0.0464399
0.036593
0.0367847
0.0283958
0.0215099
0.0161914
0.0161761
0.0165048
0.0189752
0.0184596
0.022772
0.0226805
0.0196076
0.0195497
0.0173898
0.0226457
0.0204283
0.0199797
0.0262343
0.0269023
0.0254375
0.0230343
0.0260025
0.0202724
0.0242596
0.0329304
0.0221702
0.0376657
0.0253423
0.0427753
0.0286349
0.0483082
0.0323906
0.0543702
0.036123
0.0605159
0.0404005
0.0670304
0.0441449
0.0749214
0.0507478
0.0770025
0.0525897
0.0497964
0.0587954
0.0587954
0.0770026
0.050748
0.0749218
0.0497962
0.0807102
0.0525848
0.0667269
0.0644485
0.0707123
0.0585493
0.0657187
0.0679691
0.0820438
0.0694977
0.0692528
0.0829819
0.0807749
0.080692
0.0859695
0.078164
0.0864583
0.0803411
0.0820149
0.0835722
0.0769788
0.0559747
0.0560887
0.053442
0.0442812
0.0653261
0.0583974
0.0525459
0.0467158
0.0467153
0.0284835
0.0413846
0.0257432
0.0364253
0.0220643
0.0319168
0.0197538
0.027868
0.0168143
0.0242579
0.0149678
0.0211731
0.0127747
0.0184361
0.0114007
0.0164072
0.00993328
0.0142605
0.00912802
0.0137594
0.0102194
0.0137593
0.00814102
0.0127455
0.00914989
0.0150277
0.00977791
0.0166887
0.0112241
0.0189562
0.012751
0.0218448
0.0147226
0.0249772
0.0168633
0.0288106
0.0194312
0.019754
0.0278675
0.0196457
0.0242577
0.0211733
0.0184359
0.0164071
0.0117462
0.0142605
0.00912814
0.0108165
0.0140246
0.0114009
0.0145283
0.0188904
0.024819
0.0322746
0.0411293
0.051099
0.0608022
0.0608018
0.0705285
0.0663451
0.0559451
0.0510987
0.0653263
0.0408313
0.0583974
0.035969
0.0525464
0.0328446
0.0402588
0.0432417
0.0359688
0.042032
0.0343004
0.0284831
0.0413844
0.0364259
0.0319167
0.022064
0.0266079
0.0257584
0.0202958
0.0168143
0.0154231
0.0127745
0.0149643
0.0120364
0.00993279
0.0110611
0.0141346
0.00872189
0.00914737
0.0119198
0.00972782
0.00972738
0.0119197
0.012841
0.00835501
0.0100357
0.0107157
0.0108497
0.00731886
0.00898435
0.0102682
0.00975029
0.0146654
0.00987083
0.011885
0.0104641
0.0104644
0.0092602
0.00995628
0.0100302
0.0104274
0.0134106
0.0100305
0.0128413
0.0100362
0.00835516
0.00761514
0.0108498
0.00898445
0.007319
0.00747594
0.0110429
0.00926982
0.00960712
0.0145803
0.00959948
0.0107137
0.0100615
0.00995621
0.0101484
0.0107701
0.00761494
0.0125633
0.0106212
0.0106978
0.0100611
0.009268
0.0103329
0.0106213
0.0107702
0.00816714
0.0125634
0.0108166
0.01261
0.0162079
0.0213729
0.0280404
0.0361431
0.0455086
0.0500171
0.0408318
0.0500173
0.0531293
0.0441454
0.0690317
0.0535012
0.060608
0.0476433
0.0548742
0.043911
0.0489219
0.0383497
0.0439565
0.0441106
0.0340412
0.0380808
0.0391223
0.0340912
0.043296
0.0482248
0.0497348
0.0431224
0.0547788
0.0430667
0.0498374
0.0552679
0.0552618
0.0603694
0.0476179
0.0619806
0.0530609
0.0595207
0.0617866
0.0531044
0.0650352
0.0664788
0.0662761
0.0538554
0.0610258
0.065672
0.0668809
0.0632934
0.0589684
0.0628578
0.0531785
0.0621544
0.0589088
0.0647568
0.0505796
0.0637736
0.0645881
0.0506805
0.0749328
0.0747515
0.0623108
0.0588522
0.0659892
0.0539795
0.0606654
0.0606655
0.0476308
0.0554139
0.0431218
0.0497341
0.0482252
0.054778
0.0430675
0.0432953
0.0340911
0.0391221
0.0380811
0.0340417
0.0334271
0.0263466
0.0301096
0.0293939
0.0263008
0.0282218
0.0213766
0.0160988
0.0125013
0.0125633
0.012541
0.0127812
0.0143856
0.0140213
0.0172887
0.0171628
0.0150264
0.0149423
0.0131979
0.0171737
0.0154177
0.0151351
0.0117194
0.0118697
0.0111685
0.0106776
0.0104885
0.00745755
0.0112807
0.0111699
0.0112544
0.0110731
0.0113173
0.00863516
0.00773429
0.0110679
0.014002
0.0184326
0.0244331
0.0320024
0.0411192
0.0429832
0.0466887
0.0467481
0.0368605
0.0367235
0.0334531
0.0320258
0.0411507
0.0441969
0.0439503
0.0348807
0.0387243
0.0387246
0.0300071
0.0341133
0.0269823
0.0298571
0.0298571
0.022983
0.0261989
0.0200103
0.0228132
0.0223538
0.0253616
0.0199613
0.0255405
0.0283016
0.0284524
0.021594
0.0214365
0.019266
0.0184897
0.0198476
0.0151278
0.0172337
0.016999
0.0190707
0.0150644
0.0146057
0.0161651
0.0163244
0.0126564
0.0125282
0.0115432
0.0112774
0.0111185
0.0109101
0.00946052
0.00708451
0.00835725
0.00798849
0.00839931
0.00707863
0.00946681
0.00882704
0.0108778
0.0109762
0.0128814
0.0141287
0.0132071
0.0150375
0.014657
0.0132278
0.0149604
0.0117843
0.0192827
0.0174335
0.0195901
0.0153084
0.0184057
0.0149677
0.0184057
0.0242595
0.0315805
0.0341996
0.0430771
0.0361234
0.0581276
0.043542
0.0490975
0.0383936
0.0438114
0.0347818
0.0386383
0.0300002
0.0340875
0.0342854
0.0263005
0.029394
0.0301089
0.0263457
0.0334269
0.0343435
0.030007
0.0341132
0.0320262
0.0370333
0.0468886
0.0582363
0.0516815
0.0516829
0.0623097
0.0588514
0.0666742
0.0659903
0.0623268
0.0605926
0.0523478
0.0524492
0.042623
0.0454553
0.0422218
0.0402589
0.0328444
0.0315805
0.025744
0.0331255
0.0361136
0.0280158
0.0213482
0.0161797
0.0125816
0.0120562
0.0121951
0.0121265
0.0118658
0.0153121
0.0202081
0.0265241
0.0221699
0.0360235
0.0266824
0.0299516
0.0230342
0.0299017
0.026902
0.0298127
0.0229832
0.0259407
0.02613
0.0301496
0.0244325
0.0244583
0.0251113
0.0278876
0.0360117
0.0454907
0.0411287
0.032274
0.0248186
0.0188902
0.0212396
0.0161134
0.0145287
0.0116094
0.0124997
0.0104971
0.0111709
0.0112543
0.0136843
0.0117847
0.0132992
0.010678
0.0104199
0.0077344
0.0120853
0.0117195
0.0151353
0.0199797
0.0262341
0.0338342
0.0422217
0.0331254
0.0300515
0.0341651
0.0340626
0.0388145
0.0387939
0.0409442
0.0344879
0.0463407
0.028635
0.051963
0.0420091
0.0524794
0.064375
0.0632541
0.0684304
0.0516718
0.0658784
0.0593299
0.0942843
0.076336
0.0744953
0.0615928
0.0648239
0.0976569
0.0665779
0.0637927
0.0667288
0.0975456
0.0648676
0.0748865
0.0746259
0.0621915
0.0577235
0.0589652
0.0464019
0.0472896
0.036665
0.0372943
0.0328092
0.03201
0.0410831
0.0440454
0.0492759
0.0515455
0.0553852
0.0579135
0.0465824
0.036784
0.0283952
0.0283261
0.0288017
0.0214761
0.0202724
0.0239553
0.0207492
0.0153088
0.0172889
0.0132278
0.014961
0.0158818
0.00977812
0.0181475
0.0127512
0.0143856
0.018975
0.0218606
0.0184596
0.0195904
0.0161763
0.0165057
0.0125414
0.0127805
0.0112813
0.00745758
0.011114
0.013578
0.0104642
0.00987097
0.0146656
0.00975036
0.0102686
0.014279
0.0104889
0.0110732
0.0131182
0.0140213
0.014002
0.0184321
0.0215096
0.0161915
0.0125636
0.0113178
0.0110678
0.0125016
0.0160988
0.0213762
0.0282214
0.0365928
0.0464402
0.0579537
0.0623329
0.0658504
0.058231
0.0467469
0.0411512
0.0490934
0.0490936
0.0440425
0.0551711
0.0554131
0.0476314
0.0538393
0.0538389
0.0623267
0.0589086
0.0434225
0.0383658
0.0434226
0.0383654
0.0441966
0.0439506
0.0340447
0.0340449
0.0261274
0.0261273
0.0254373
0.0192829
0.0146571
0.0140247
0.0111687
0.0121348
0.00797633
0.0114393
0.0150376
0.0197957
0.0197956
0.017387
0.0226763
0.0205134
0.0226767
0.0173872
0.0184898
0.0217362
0.0244618
0.0259895
0.0259891
0.0261993
0.0229831
0.0244621
0.0286109
0.0284522
0.0368617
0.0334528
0.0429821
0.0411187
0.0516517
0.0539683
0.0584926
0.0466881
0.0320017
0.0391763
0.0367268
0.0283034
0.0255397
0.0215937
0.0163243
0.0164741
0.0141284
0.0146057
0.019266
0.0214394
0.0161649
0.0115436
0.0125285
0.0114627
0.0106335
0.0114633
0.0106879
0.0114391
0.0106377
0.0121407
0.0072611
0.0106244
0.00989329
0.00921137
0.010085
0.0106246
0.0105327
0.00989347
0.00921067
0.0104306
0.00997634
0.0101534
0.00997716
0.0105328
0.00885705
0.00985998
0.00882741
0.0100091
0.0116148
0.0108935
0.0112587
0.00993934
0.0132272
0.0105674
0.0112779
0.0196333
0.0121866
0.0551712
0.0771776
0.0106982
0.0104643
0.0107159
0.0118853
0.00926027
0.00926833
0.0168635
0.0274699
0.0315589
0.0525898
0.0116092
0.0975538
0.0762206
0.0651524
0.0784943
0.0871482
0.0791442
0.0819639
0.0871955
0.0777067
0.087196
0.0770179
0.0871479
0.0784947
0.0651532
0.080291
0.097585
0.109224
0.0770153
0.0870405
0.0779428
0.077069
0.0343438
0.0320109
0.0341659
0.026683
0.0121346
0.00747578
0.0332505
0.0520179
0.0577901
0.0435406
0.0531775
0.0505803
0.00806012
)
;

boundaryField
{
    face
    {
        type            calculated;
        value           nonuniform List<scalar> 
154
(
-0.08
-0.08
-0.08
-0.08
-0.08
-0.08
-0.08
-0.08
-0.08
-0.08
-0.08
-0.08
-0.08
-0.08
-0.08
-0.08
-0.08
-0.08
-0.08
-0.08
-0.08
-0.08
-0.08
-0.08
-0.08
-0.08
-0.08
-0.08
-0.08
-0.08
-0.08
-0.08
-0.08
-0.08
-0.08
-0.08
-0.08
-0.08
-0.08
-0.08
-0.08
-0.08
-0.08
-0.08
-0.08
-0.08
-0.08
-0.08
-0.08
-0.08
-0.08
-0.08
-0.08
-0.08
-0.08
-0.08
-0.08
-0.08
-0.08
-0.08
-0.08
-0.08
-0.08
-0.08
-0.08
-0.08
-0.08
-0.08
-0.08
-0.08
-0.08
-0.08
-0.08
-0.08
-0.08
-0.08
-0.08
0.08
0.08
0.08
0.08
0.08
0.08
0.08
0.08
0.08
0.08
0.08
0.08
0.08
0.08
0.08
0.08
0.08
0.08
0.08
0.08
0.08
0.08
0.08
0.08
0.08
0.08
0.08
0.08
0.08
0.08
0.08
0.08
0.08
0.08
0.08
0.08
0.08
0.08
0.08
0.08
0.08
0.08
0.08
0.08
0.08
0.08
0.08
0.08
0.08
0.08
0.08
0.08
0.08
0.08
0.08
0.08
0.08
0.08
0.08
0.08
0.08
0.08
0.08
0.08
0.08
0.08
0.08
0.08
0.08
0.08
0.08
0.08
0.08
0.08
0.08
0.08
0.08
)
;
    }
    outlet
    {
        type            calculated;
        value           nonuniform List<scalar> 
154
(
-0.00956302
-0.00965384
-0.00986036
-0.00972879
-0.00951614
-0.00978646
-0.00961782
-0.00974558
-0.00953124