/*--------------------------------*- C++ -*----------------------------------*\
| =========                 |                                                 |
| \\      /  F ield         | OpenFOAM: The Open Source CFD Toolbox           |
|  \\    /   O peration     | Version:  2306                                  |
|   \\  /    A nd           | Website:  www.openfoam.com                      |
|    \\/     M anipulation  |                                                 |
\*---------------------------------------------------------------------------*/
FoamFile
{
    version     2.0;
    format      ascii;
    arch        "LSB;label=32;scalar=64";
    class       volScalarField;
    location    "3";
    object      gradTx;
}
// * * * * * * * * * * * * * * * * * * * * * * * * * * * * * * * * * * * * * //

dimensions      [0 -1 0 1 0 0 0];

internalField   nonuniform List<scalar> 
2658
(
0.00869626
0.01265
0.00404802
-0.000440225
-0.0190088
-0.0160873
0.0172014
0.0169647
-0.000338742
0.0228709
-0.015152
-0.0107807
0.00701742
0.00845599
0.00650569
-0.000637741
-0.000288572
-3.63807e-05
-0.00714251
-0.0091949
-0.00864606
-0.0201205
-0.0242382
0.0183631
-0.00783722
-0.00950435
-0.020477
-0.00300908
-0.0150004
-0.0160241
-0.0150003
-0.0204773
-0.00950602
-0.0242404
-0.00783692
0.0183634
-0.0103707
0.00468282
-0.0201165
-0.00864759
-0.00919398
-0.00714002
-3.65965e-05
0.00061732
-0.0127381
0.0119341
-0.0151521
-0.000539774
-0.00064027
0.00650457
0.00845573
0.00701877
0.0190744
-0.00408614
0.0215127
0.0176412
-0.00951533
0.00105686
-0.0340087
0.01785
-0.00951543
0.0176415
0.0215091
-0.00408768
0.00485452
-0.035766
0.00478967
-0.000185386
-0.012039
-0.0120398
-0.000614752
0.0123914
-0.000669639
-0.0137699
0.000189781
-0.0144872
0.0186155
-0.000160779
-0.0164828
0.0184601
-0.0213494
-0.000364625
0.0222638
-0.0201487
-0.000549582
-0.000348856
-7.81131e-05
5.10392e-05
0.000101623
0.000120377
0.000112449
-0.000367989
0.000329208
-0.00218439
0.00149593
-0.000259428
-0.00185839
1.03419e-05
0.00187253
-0.00151986
0.000829215
0.00212246
0.00181936
0.00153286
0.00159369
-0.00317241
-0.000622504
-0.000444297
-0.00013853
0.000883049
0.00189305
0.000763273
0.00150957
0.000763224
0.00189314
0.000882921
0.00159366
-0.00317232
0.00181936
0.00153292
0.00212248
0.000829184
-0.00151986
0.00187254
-0.00292046
0.00293503
-0.00218421
-0.000259295
-0.00185842
0.00149587
-0.000843026
-0.00206565
-0.00142903
-0.00130064
-0.000818774
9.29481e-05
-0.00037338
-0.00213218
0.00178646
0.00178543
-0.000373101
9.26413e-05
0.000879926
-0.00090582
-0.00104159
-0.000903726
0.000508785
0.000664583
-0.00180927
-0.00188279
-0.00157316
-0.00198973
-0.00195027
-0.00202347
-0.0015467
-0.00275863
-0.00252246
-0.00106114
-0.00120144
-0.000871457
9.28476e-07
2.89926e-06
-1.06097e-06
0.00084409
0.00119893
0.00108713
0.00258295
0.0031855
-0.000726777
0.00185738
-0.00466002
0.00501304
-0.00569032
0.00654147
-0.00743334
0.0086342
-0.00979057
0.0113029
-0.0127424
0.0145664
-0.0162442
0.0185011
-0.0202179
0.0237017
-0.0237351
0.0252301
-0.0260417
0.0228707
-0.0190103
-0.000440983
-0.0160867
0.0047894
-0.035763
0.00485563
-0.0107808
0.00420564
-0.000549726
-0.000348782
-7.83869e-05
5.05862e-05
0.000101615
0.000120476
0.000112474
-0.000368033
0.000329309
4.11897e-06
-0.000786395
-4.36988e-05
0.00111133
0.0011113
-0.0007865
4.04133e-06
-4.3587e-05
0.000372983
0.00293518
-0.00292061
0.000200131
0.00225417
-0.000218972
8.73068e-05
-0.000337959
5.87543e-06
3.35007e-05
0.000312224
0.000193719
0.000312145
-0.000219247
-0.000622447
-0.00145354
-0.000444263
0.000325217
0.000325077
-0.00145351
-6.5001e-05
0.000907428
-0.00107453
-0.00107443
1.82487e-05
0.000907405
-2.01651e-05
-0.000202019
-0.000264907
-0.000242839
0.00109593
-0.000246228
-8.34676e-05
-0.00181709
0.000269004
-0.000718352
0.00111176
0.00120455
0.00267272
0.00189742
-0.00488056
0.00310697
-0.00487743
-0.00487723
-0.000124419
-0.0047791
9.77019e-05
0.00509875
-0.00600525
6.90479e-05
0.00677369
-0.00788079
1.41045e-05
0.00895185
-0.0103028
-7.22537e-05
0.0116469
-0.0131911
-0.000215673
0.0149213
-0.0163742
-0.000398463
0.0192726
-0.0192242
-0.00103978
0.028584
0.00461312
0.0328713
0.0328708
-0.00300883
0.00709857
-0.00264665
0.0103627
0.000504459
-0.0066344
-0.00663422
0.00717848
-0.000363253
-0.00848658
-0.00848592
0.00227453
-0.00267405
-0.0118559
-0.0118549
0.00386171
0.0166322
0.0038614
0.00625336
0.0181537
0.00760253
0.0104126
0.0138182
-0.0204598
-0.0119127
0.0119729
0.00763778
2.32767e-06
0.00227454
-0.00135365
-0.00344157
0.0144096
-0.0104019
0.00644857
0.0149796
0.00856347
-0.00448951
-0.00606201
-0.00448848
-0.00344135
-0.0119107
-0.0204595
0.00760504
0.0181562
0.00625531
0.0119746
0.00763909
0.00856481
0.0149789
0.00644616
-0.0104022
0.0144091
0.00180652
0.0129194
-0.000330055
-0.0134931
0.0210925
-0.000339053
-0.00377104
-0.0217266
-0.000411087
-0.00254648
0.000142663
0.000119155
5.66225e-05
3.1837e-05
1.62546e-05
-3.46513e-06
-1.71283e-05
-9.00041e-05
0.00467669
-0.00505124
0.0051069
-0.00458093
0.00487964
-0.00581756
0.00649835
-0.00763396
0.00864603
-0.0100242
0.0113893
-0.0129928
0.0147387
-0.0164816
0.0186138
-0.0201483
-0.000339718
0.0169637
0.0171985
0.0123942
-0.00997716
0.000167722
-0.00997565
0.00983092
0.0135606
0.0134423
-0.0114667
-0.0111575
0.000309918
0.0103923
3.37683e-05
0.014741
-0.000194147
-0.0168661
0.0164632
-3.27713e-05
-0.0145448
0.013458
-0.0154472
-3.97887e-05
-0.0184346
-6.26624e-05
0.0207431
-0.0223895
-0.000111748
-0.0260413
-0.000782176
0.0119341
-0.000539396
0.00180675
-0.021727
-0.00377085
0.000705622
-0.000254342
-0.00025101
-0.000212765
-0.000134338
-6.91176e-05
-3.15743e-05
-1.19688e-05
-2.00683e-06
5.62782e-06
3.35218e-05
5.72305e-06
-0.000337977
1.80605e-05
8.72827e-05
0.00225413
0.000200012
-9.13405e-05
-0.00253169
0.00222018
-0.00221174
0.00245389
-0.00097953
0.00487345
-0.00125908
0.00312685
0.000199778
-0.00399609
-0.00403063
0.00383465
0.00011728
-0.000100214
-0.000547206
1.52638e-05
0.000621698
0.00122406
0.00155077
2.08716e-05
0.000248712
0.000586464
8.4999e-05
-7.62495e-05
-1.3254e-05
-0.000125949
-0.000222506
-0.00017492
0.000123301
0.000174357
5.73894e-05
-0.00508225
0.00548319
-0.00647861
0.00654209
-1.52531e-05
-0.00555175
1.63992e-06
2.16198e-06
2.58437e-06
5.57937e-06
-0.000139786
-0.000204682
-0.000363016
-0.000342954
-0.000497557
-0.000634043
-3.53627e-06
7.70005e-05
7.52486e-05
-0.00906788
0.00970689
-0.0112098
0.0112958
-7.30727e-05
-0.00988732
0.00859756
-4.56522e-05
-0.00742696
-3.91552e-06
0.00730877
-0.0085228
1.89696e-05
-0.00680575
0.00602529
2.05185e-05
6.1578e-07
-0.000119201
-0.00477855
0.00015587
0.00385364
0.000165915
-0.00470522
-0.00260885
0.0008023
-0.000221135
-1.3754e-05
-4.46459e-05
5.22967e-05
-6.00015e-05
0.000103801
-0.000543741
-0.000983624
-0.000692965
7.78982e-06
-0.000344869
-0.000220779
-6.98598e-05
7.63659e-05
0.000163247
0.00025421
7.78818e-06
7.64018e-06
-0.000291007
-0.000454488
-0.00110684
-0.000705104
-0.00132634
-0.0024846
-0.000561518
-0.000164595
4.44733e-05
-0.0154465
0.0164626
-0.0184349
0.0184605
-0.000194429
-0.0168645
0.0146249
-0.000113937
-0.0130226
-1.6634e-05
0.0127545
-0.0145443
-7.68805e-06
-0.0119469
0.010409
1.00729e-05
3.36954e-06
6.67186e-06
-0.000119231
-0.00600503
8.5041e-05
0.00509885
9.81369e-05
0.000354532
-0.00589312
0.00637144
-0.00764945
-0.0076495
-1.77231e-05
0.00854463
7.84422e-05
-0.0100247
-1.28958e-05
0.0112433
-2.87502e-05
-0.0129204
-7.02499e-07
0.0145031
-0.000285121
-0.0160756
9.04987e-05
0.018429
-0.00109189
-0.018785
0.000562346
0.0237219
-0.00402271
-0.0183074
-0.00245352
-0.0183069
0.00461325
0.0285841
-0.00103892
-0.019223
-0.000811184
0.0192723
-0.000396827
-0.0163736
-0.000422152
0.0149224
-0.000214188
-0.0131888
-0.000191905
0.0116478
-7.10885e-05
-0.0103022
-6.86954e-05
0.00895203
1.51598e-05
-0.00788049
1.26023e-05
0.00677378
6.9906e-05
0.00017792
-0.000215187
-0.000244935
-0.000251667
0.00150191
0.000136883
-0.000541065
-0.00061758
-0.000608514
-0.000664105
-0.000767457
-0.000805588
-0.000502091
0.000535066
0.00172819
-0.00136483
-0.0115029
-0.0115031
-0.0118889
-0.00979074
-0.00362531
-0.00127915
-0.00529284
0.00881711
0.0145883
0.000251775
5.00238e-05
0.000889679
-0.00402208
0.0237206
0.000562798
-0.018785
-0.00168076
-0.000450048
-0.000458344
9.17637e-05
-0.0160754
0.0184287
-0.00109145
2.24766e-05
-0.000130546
-0.00028498
0.0145014
1.58429e-08
-0.0129195
-0.00030053
-0.00041707
-0.000358211
-0.000285452
-1.70906e-05
0.00854466
-0.0100246
0.011243
-2.83604e-05
-0.00015186
-0.000137249
1.46119e-05
5.41125e-06
-1.6323e-05
-0.00012819
-0.000124161
0.00466398
0.000310849
0.00466412
0.000353822
-0.00589306
-3.98355e-05
0.00637183
0.00017789
-0.000119201
-0.000203898
-3.95613e-05
0.000125114
-0.000119023
-0.000221001
-0.00470542
0.00016599
0.00385367
0.000801909
0.00310678
-0.000718363
-0.00488086
0.00038761
0.00189737
0.00267254
0.00120451
0.00318576
0.00111175
0.000386768
-0.00101658
0.000563001
-0.000246315
-0.000264834
0.00109591
-0.000243002
0.000166881
8.93978e-06
1.07182e-05
8.81497e-06
3.21699e-06
1.03234e-05
0.000166922
-2.00917e-05
0.000563012
-0.000138508
-0.00101658
0.000386942
9.48958e-06
0.000326829
0.00027803
-0.000174707
-0.00107198
0.00032618
-0.00055966
0.00104601
0.00319745
-0.0018248
0.000638821
0.000295106
0.000163701
0.00013204
2.34541e-05
-1.09036e-06
3.84988e-06
-4.88542e-06
-1.45576e-05
-3.53176e-05
1.59078e-05
1.93788e-05
5.19602e-05
0.000158138
-0.00132627
-0.00330031
0.0138248
-0.00264671
0.00709965
-0.0152617
-0.00701333
-0.00701346
-0.0152632
-0.00776155
3.01809e-05
-0.0137446
0.0232696
0.00155938
-0.000967308
-0.0169535
-0.00160321
0.00981899
-0.00738071
-0.0160565
-0.0132066
-0.0139254
-0.0093267
0.000851468
0.00192044
0.000852144
0.000209508
-0.0129568
0.00085303
-0.00775977
-0.0137444
3.17169e-05
0.00446279
0.00155908
-0.016955
-0.000966951
0.00211227
-0.000339346
0.0210923
-0.0134957
-0.000328967
0.0129214
0.00103495
-0.000585035
0.0019204
0.00155515
-0.0044276
0.00446293
0.00310933
0.000156553
-0.00154481
-0.000584107
-0.000194965
0.00103432
-0.00186873
2.58293e-06
-0.00135272
0.000706173
-0.00025432
-0.000782448
-0.00026994
-6.85307e-05
-7.20041e-06
-9.66392e-07
-0.0194595
0.0207432
-0.0223906
0.0222654
-0.000364737
-0.0213486
-6.24688e-05
-0.000254918
0.000619002
0.000383658
-0.00017492
-0.000139801
-0.000114744
-9.41982e-05
6.97736e-05
0.00792983
-9.41662e-05
-0.000148067
-0.00523093
0.000178499
-0.00522518
0.00580743
0.000223519
-0.00682217
-0.00687247
0.00592372
0.000129688
0.0078866
0.000281165
-0.00881532
-0.00895388
0.00010505
0.0103927
0.000308453
-0.0111562
-0.0114677
3.33814e-05
0.0134428
0.000189064
-0.0137692
-0.014489
-0.000159828
0.000915912
0.00141734
0.00463296
-0.000259594
-0.00028019
-0.000174623
-0.000469208
0.00317098
0.00328976
0.00404673
0.00215577
0.00130384
0.000828197
0.000517093
0.000269224
-7.01458e-05
-0.000130942
-0.000236288
-0.0037551
0.000230215
-0.00375348
0.00421296
0.000279543
-0.00494595
-0.00494742
0.00421441
0.000154018
0.000138165
0.000112227
-3.18018e-05
4.43155e-05
-0.000234218
-0.000370317
0.00439051
-0.000368923
0.00248239
0.000244033
-0.0027695
-0.00277188
0.00248524
-0.00021691
0.00141511
-0.000288953
-0.00029084
0.00206507
-0.000234384
0.00141649
-0.00126063
0.00487501
-0.000978771
0.00383463
0.000199666
-0.0040295
-0.00399816
0.00313049
-0.000233978
-3.17851e-05
-1.37648e-05
-1.70173e-05
0.000155748
-0.00466014
-8.95202e-05
-0.00508244
2.0935e-05
-0.0064789
-3.64948e-06
-0.00742694
-4.60979e-05
0.00859836
-0.00763453
0.000130592
-0.00687151
-0.00682371
0.000222857
0.00592377
-0.00522999
-0.00522642
0.000177823
0.00450627
0.000143547
0.00649927
-0.00581845
0.00654216
-0.00555205
-1.54805e-05
0.00488103
0.000117702
-0.00458195
0.00510729
1.60679e-06
0.00548345
-0.00505164
0.00467668
-0.00253188
-4.4654e-05
0.00222023
4.06575e-05
-0.00221216
4.43425e-05
0.00245493
0.00165147
-0.000871427
1.05243e-06
0.000103681
-5.97153e-05
5.22328e-05
0.000586233
0.00155081
0.00150205
-0.000251894
-0.000245119
2.10262e-05
-0.000126321
-0.000216582
-0.000237003
-0.000222643
-0.000342819
-0.000278856
-0.000276625
-0.000235684
7.84458e-05
-0.000233638
-0.000237659
-0.000496704
-0.000705584
8.69784e-05
9.20923e-05
0.000533625
0.000533078
-0.00132837
-0.0118896
-0.00980068
-0.00362992
0.0237002
0.000141719
-0.0237358
0.000250629
-0.0127384
-0.000469161
-0.000411191
-0.00254662
0.000142567
0.000119044
5.69771e-05
3.19318e-05
1.63603e-05
-3.28861e-06
8.47396e-05
-0.00569044
-0.000106872
-0.00680566
1.88535e-05
-0.0085232
-7.69936e-06
-0.00988773
-7.33587e-05
0.0112965
-0.0100248
0.000105385
-0.00895314
-0.00881703
0.000281091
0.00788597
0.00781785
-0.000307809
0.00566539
0.000331939
-0.00639752
-0.00639888
0.00566689
-0.000307751
0.00781602
-0.000126857
0.000531487
0.000285929
9.87919e-05
0.000751152
-0.00021676
-0.000693555
-0.001545
-0.00203389
-0.0015188
-0.000818581
-0.00130112
-0.0014296
-0.00182424
-0.00206604
-0.000843176
-0.00120151
-0.00106115
0.000639664
-0.00252293
-0.00275961
-0.000983702
-0.000547429
1.52102e-05
0.000621474
0.0011987
0.000843876
-9.16135e-05
-9.30609e-07
2.51187e-06
-0.00134995
0.00185755
-0.00260895
-0.000726877
0.00108761
0.00258265
0.00122341
8.53376e-05
0.000248517
0.00017396
0.00501329
5.73639e-05
0.00602556
-7.64295e-05
-1.21868e-05
0.000122475
0.00654159
-0.00743423
-9.36544e-05
-0.00906942
9.59867e-06
0.0104085
-0.0112101
-1.61395e-05
-0.013023
-0.000114444
0.0146248
-0.0129929
0.0113913
-0.000139206
7.04584e-05
-0.0119482
-8.64249e-06
0.0127551
-3.14774e-05
-1.17806e-05
-1.86072e-06
5.79956e-06
7.60258e-07
7.02794e-06
3.33538e-06
-0.000137104
-0.000151583
-8.59684e-06
-8.45743e-06
-2.41977e-05
-3.9751e-05
0.016984
6.04838e-05
-1.96765e-05
-7.40757e-05
0.0205056
0.000142864
-0.000322041
-0.000202909
-0.000142201
-0.000104237
-7.48567e-05
-4.43964e-05
-0.000175126
0.00430492
0.00315529
0.00315358
0.00430732
-0.000174975
-4.43558e-05
-7.50282e-05
-0.000235939
0.00580952
-0.000130557
-0.000114695
8.31689e-06
0.000269856
0.000517416
-0.000126756
-7.93424e-05
-0.000147386
-9.40463e-05
7.01815e-05
0.00793024
-0.000140562
-0.000173268
7.58448e-05
0.00863432
-0.00979099
-8.42561e-05
0.0113028
-0.0127431
-5.24002e-05
0.014566
-0.016246
6.08738e-05
-0.019461
-7.40727e-05
0.0205028
-0.0202204
-0.000812553
0.0184999
-0.000424286
-0.000561846
-0.000165986
-4.72609e-06
-0.000360986
-0.000205688
-0.0002933
-0.000628859
-0.000456427
-0.00109834
-0.00127937
-0.00249013
-0.00529677
0.00881558
-0.0103712
0.00468015
-0.0139269
-0.016057
-0.00738132
0.00981644
-0.00160593
0.000615891
0.0145861
-0.000174722
0.0252294
-0.000212948
-0.000134512
-6.94537e-05
-7.51757e-05
-0.000145622
-2.01118e-05
2.2318e-05
-0.000130718
-2.44987e-05
-0.000202946
6.26288e-05
0.000142077
-0.000142118
-0.000103952
-0.000388184
0.010386
0.0075355
0.000340219
-0.00808325
-0.00808448
0.00753714
-0.000388419
0.0103844
-9.56922e-05
3.68349e-05
0.000316163
-8.07439e-05
0.000116483
0.000302256
0.00066083
1.26557e-06
0.0135574
0.00983282
-0.000493851
-0.000140493
-0.000382862
0.00237512
-0.000163124
0.00717866
-0.000220285
4.98259e-05
0.000889613
0.00310854
0.0103634
-0.00442801
0.00015584
-0.00154625
-0.00932684
0.0232674
-0.0132064
0.000850322
-0.000195439
-0.000922184
0.004205
0.00105554
0.0019755
0.00422465
0.000186805
-0.000669675
0.00197457
0.0126497
0.00870328
0.022107
0.012123
0.01785
0.0198565
-0.000184768
0.00225329
0.0013611
0.000856178
-9.54138e-05
0.000827484
0.00130419
2.16605e-06
-0.000493913
0.000303894
3.71555e-05
0.000254156
0.000163465
7.68618e-05
-9.98628e-05
1.94519e-06
2.16811e-06
4.9333e-06
7.53884e-05
0.00970773
6.86625e-06
6.68164e-06
4.4814e-05
0.0169818
-1.33675e-06
-0.000253867
-0.000174434
0.000383125
0.000618852
-8.62769e-06
-6.9905e-05
-0.000259139
-0.000270385
0.00141752
0.0046323
0.00317012
0.000915886
0.000188041
0.00215407
0.00141897
0.00329078
0.000661887
-0.000114638
0.0086477
-6.9729e-05
-0.000220149
-0.000542724
-0.000343972
-6.96048e-05
0.000118039
0.000322636
-0.000322005
0.00141085
-0.000193715
-6.95827e-05
1.20838e-05
0.00730899
-0.000114884
0.00450628
0.000142924
0.000277984
0.000326769
9.49709e-06
-0.000559745
0.000413336
0.000326043
-0.00107216
-0.000174747
3.48676e-06
0.00319705
0.00104666
-0.00213242
-0.00192589
0.00206055
-0.000235355
0.000878992
-0.00151676
7.0115e-05
0.013458
-5.19965e-05
-0.000111932
0.00211327
-0.000219784
-0.00186928
0.00037287
0.00202096
-1.20694e-05
-0.000134479
-2.19133e-05
-0.000732864
-8.44749e-05
-3.20471e-05
-0.000106977
-8.44046e-06
-0.00135002
4.07466e-05
0.00165243
0.0138206
0.0104147
0.000240062
-0.0012422
0.000237447
0.0190721
0.0221062
-0.000982838
-0.000692967
8.31286e-06
0.000199899
0.00383475
0.00312736
-0.00399624
-0.0040301
0.000117665
-0.00458103
0.00245407
0.00165241
-0.00106129
-0.0012015
-0.000871215
6.55503e-07
2.94961e-06
-1.04368e-06
0.000843953
0.00119859
0.00108711
0.00258295
0.00318557
-0.00260891
0.00111157
0.00120429
0.00267256
0.000386827
0.00189723
0.00202049
0.00189723
0.00267251
0.00120433
0.00318577
0.00111161
-0.0026087
0.00185744
-0.000726779
0.00258255
0.00108738
0.00119876
0.000843979
-8.98782e-07
-9.13066e-05
0.00222025
-0.00221215
0.00245462
0.000103609
9.05518e-07
-0.00087131
-0.00120183
-0.00106108
-0.00252275
0.000639359
-0.00275947
-0.000234382
0.00141641
-0.000368934
0.00439067
-0.000289001
0.00141527
-0.0002355
-0.00275882
0.000638973
-0.000979401
0.00487371
-0.00125906
-0.0002342
0.00248479
0.00248245
0.000243718
-0.00277161
-0.000175145
0.00430559
0.00017816
0.0045064
-0.00581807
0.000143216
0.00649837
-0.00742669
0.00654225
-1.55788e-05
-0.00555188
0.00487965
0.000112449
0.000120343
0.000101824
5.13387e-05
-7.77149e-05
-0.000348191
-0.000549687
0.00420425
-0.0034425
0.0144083
-0.0104004
0.00180682
0.0129213
-0.000328863
-0.0134946
0.00981561
-0.00738254
-0.016057
-0.0139264
-0.0132067
-0.0137479
0.0232656
0.00446062
0.00310748
2.84113e-05
-0.00776287
-0.0152638
-0.0070146
-0.0129552
-0.00701337
-0.0152629
-0.00776199
-0.0137481
0.023265
-0.0139268
-0.0132068
-0.0160567
-0.00738116
0.00981619
-0.0134953
0.02109
-0.021726
0.0144064
0.00180581
0.01292
-0.0104028
0.00644497
0.014976
0.0104106
0.00760239
0.0181534
0.00625344
0.0038607
0.0119715
-0.0118564
-0.0118567
0.00386068
0.00625318
0.0181535
0.00760116
0.0104093
0.0138145
0.0149776
0.00644797
0.00845692
0.00701598
-0.0040903
0.0190681
0.0215096
0.0221032
0.0176416
0.0178496
0.0198542
0.0178497
-0.0340092
0.00105453
0.00105565
-0.00951735
0.0176407
0.0221013
0.0215103
0.0190711
0.00701506
0.00845515
0.00650341
-0.000638552
-0.000288971
-3.61861e-05
-0.00714027
-0.00919456
-0.0086468
-0.020117
-0.0242385
0.0046804
-0.0103714
0.0236989
-0.020219
0.0184993
-0.0162459
0.0145648
-0.012743
0.0113022
-0.00979096
0.00863457
-0.00743314
0.00654189
-0.0056903
0.0050133
-0.00465999
0.00467674
-0.00505123
0.00510691
-0.00458155
0.00383414
0.000199235
0.00312987
-0.00126057
0.00487505
-0.000978965
0.00165158
-0.000367954
0.000112376
0.000120453
0.000101495
5.06212e-05
-7.83026e-05
-0.000348785
-0.000550005
0.00420388
-0.0034427
-0.00135368
0.002273
0.000705731
-0.00848569
-0.00848604
0.00227338
-0.00135417
0.000705853
-0.0037702
-0.0217255
0.0210914
-0.00160558
-0.0169555
0.00155703
-0.000968331
0.00211209
-0.000338752
-0.000411299
-0.00254715
-0.00132718
-0.00254711
0.00155753
0.00446163
0.0103598
0.00310784
-0.00264809
-0.00264901
0.0103603
0.000502374
-0.00663382
0.00717693
0.00717865
-0.000219686
-0.00663501
0.000155351
0.00155366
0.00191885
0.000850277
-0.00932881
0.000849124
0.000206901
0.0138231
-0.00330075
0.00461311
-0.00783772
-0.00950491
-0.0204774
-0.0149991
0.0328698
-0.0183065
0.0237194
0.0237202
0.000561425
0.0192714
-0.000398568
-0.0163743
0.0149217
-0.000215385
-0.0131892
0.0116468
-7.19491e-05
-0.0103017
0.00895216
1.42674e-05
-0.00788072
0.00677422
6.94917e-05
-0.00600519
0.00509899
9.75803e-05
-0.00477895
0.00385387
0.000165886
-0.00470503
-0.000718371
-0.00488064
-0.00488062
0.000386748
-0.00101658
0.000325264
-0.00145351
-6.50802e-05
0.00090726
0.000907274
-0.00107452
-1.09802e-06
0.00111119
0.00111122
-0.000786458
0.000163778
0.00178649
0.00178565
-0.000373055
0.000508866
-0.000903696
-0.000905861
-0.0015188
-0.000818505
-0.00130107
-0.00142935
-0.00206602
-0.000843203
0.001496
-0.00218446
0.000329223
0.00104674
0.00319704
-0.00182443
-0.00107213
-0.000174791
-0.00185845
1.03418e-05
0.0018725
-0.00292034
5.76308e-06
0.000372711
0.00293494
-0.000259412
3.34507e-05
0.000312154
-1.70436e-05
-3.3472e-06
1.63868e-05
3.19038e-05
5.64419e-05
0.000118776
0.000142239
0.000141238
-0.0237352
0.0252292
-0.0260404
0.0228687
-0.0201471
0.0186134
-0.0164805
0.014738
-0.0129923
0.0113889
-0.0100245
0.0086456
-0.00763457
0.00649853
-0.00581855
0.00488039
0.000117024
-0.0040298
-0.00399787
-0.00277004
0.00315375
0.000230262
0.00315467
-0.00375442
-0.00522542
-0.00523057
0.00592402
0.00580832
0.0002226
-0.00687179
0.000130862
-0.00763427
-4.55669e-05
0.0085978
-0.00852291
-8.33721e-06
0.00970712
-0.00906793
0.00793005
1.92926e-05
0.00730877
-3.59258e-06
-0.00647877
0.00548325
1.61021e-06
0.00510709
4.43338e-05
-0.00221209
0.000103956
-0.000259485
0.00149603
-0.000843106
-0.00206576
-0.00142917
-0.00130067
-0.000818897
-0.00151664
0.000879184
-0.000373201
9.30857e-05
-0.00213182
0.00104611
4.10855e-06
0.000329333
0.00319753
-0.00218425
0.00293505
0.000372826
-4.36991e-05
-0.000786304
0.00013209
0.000112241
0.000138137
0.000153925
0.000142252
6.28661e-05
-0.000140099
-0.000383263
0.00237379
-0.00267547
-0.00606347
-0.00449066
-0.00187085
0.00103367
-0.000196412
-0.000329393
-0.00154633
-0.0169535
-0.00096862
0.00211226
-0.000219721
4.94831e-05
0.000251587
-0.0127379
0.0119338
-0.015153
0.00485277
-0.0357661
0.00478737
-0.0160876
-0.000440583
0.0171986
0.016963
-0.019011
-0.000340055
0.00141688
0.00463146
-0.00025965
-0.00529459
-0.00979149
-0.0118884
-0.00132598
-0.00249596
-0.00362909
-0.00127897
-0.000455793
-0.00109506
-0.000707355
-0.000499025
-0.000628258
-0.000165329
-0.000561807
-9.13351e-07
0.0205031
-0.0223892
0.0207424
-0.0213484
-0.000364634
0.0222646
-0.000112303
-0.000213155
-0.000411762
-0.000340442
-0.00377229
1.43366e-06
-0.000585351
0.000155626
-0.00442946
2.87188e-05
0.00709755
-0.00300861
-0.0115022
-0.00136198
0.00172867
0.000534955
-0.000503243
-0.000805475
-0.000768325
-0.000664287
-0.000609078
-0.00061744
-0.000541034
0.000137325
0.00150195
0.001502
0.00155065
2.10557e-05
-0.000126547
-0.000223264
-0.000344043
-0.00035972
-4.09322e-06
-0.000292441
-0.000205764
-0.000140513
-0.000171772
7.6687e-05
7.57023e-05
0.0104085
-0.0112101
0.00970706
-0.00988717
-7.33052e-05
0.0112963
-0.0130221
-0.000113994
0.014625
-0.0168648
-0.00019369
0.0184589
-6.16664e-05
-0.0184339
0.016463
-4.02705e-05
0.0169823
-0.0194607
-7.38583e-05
-2.01267e-05
-0.000134508
-6.93695e-05
-3.1875e-05
-0.0145441
0.0127541
-7.68443e-06
0.0134571
-0.0154468
-5.30626e-05
4.55104e-05
-8.14959e-06
-6.97423e-05
-0.000174486
0.0145858
0.00061721
-0.00160502
0.00881404
-0.00027054
-0.000540163
0.00316875
0.00869636
0.0126477
0.00404557
0.00329796
0.000915985
-0.000254971
0.000619215
0.000383823
6.89743e-06
7.35183e-06
4.97521e-06
2.43941e-06
-7.64628e-05
-9.58905e-06
0.000123199
7.04109e-05
0.00793023
-0.00852286
0.00730872
-0.00742692
-4.60588e-05
0.00859783
-8.45849e-06
-1.196e-05
-3.16125e-05
-1.65933e-05
3.42972e-06
1.05217e-05
-0.00906835
-9.39603e-05
-0.000136864
0.00895172
-6.85108e-05
-0.0103031
-7.19076e-05
0.0116469
-0.00019177
-0.0131897
-0.00021529
0.0149206
-0.000422817
-0.0163736
-0.00039911
0.0192712
-0.00081286
-0.0192229
-0.00103988
0.0285818
0.01836
-0.00402304
0.000888751
0.000888808
0.0285823
-0.00103987
-0.0192229
-0.00402468
-0.0183061
0.00461291
0.0328686
-0.00245313
-0.0149997
-0.0204781
-0.0095056
-0.0242403
-0.00783828
-0.00301014
0.00709708
-0.00442995
0.000848768
0.00191888
-0.00932919
0.000849607
-0.00154648
-0.000584715
-0.000922767
-0.000363827
-0.000163614
-0.000251419
0.00015764
-0.000451164
0.000562044
-0.0187842
0.0184294
-0.0160757
0.0145014
0.014501
-2.91752e-07
-0.0129199
-2.8403e-05
0.0112426
-1.24234e-05
-0.0100244
7.90297e-05
0.00854447
-1.72495e-05
-0.00765022
0.000178244
0.00637217
-3.96948e-05
-0.00589308
0.000354207
0.00466414
-0.000124182
-0.0048773
0.000802432
0.00310715
0.000387552
0.00310691
-0.000718385
-0.00470525
0.000165962
0.00385379
0.000156077
-0.00477872
9.80755e-05
0.0050989
8.55163e-05
-0.00600523
6.98073e-05
0.00677391
1.31796e-05
-0.00788066
1.4959e-05
7.93641e-05
0.00854451
-2.16843e-05
-0.00764958
0.0063719
-0.00589283
0.00466402
0.000310771
-0.00487721
0.000802087
-0.000221026
-0.00011902
0.000354375
-0.000245484
-0.000216537
-0.000237051
-0.000278793
-0.000236389
9.01546e-05
0.000533843
0.000533514
-0.0115029
-0.0118888
-0.00132612
8.88847e-05
-0.0187831
-0.00109363
0.0184296
9.04379e-05
-0.0160757
-0.000285799
-0.00013117
-0.000459454
9.03233e-05
-0.000732105
-0.000417383
-3.81442e-07
-0.0129193
0.0112432
-0.0100242
-1.25702e-05
-0.00035762
-0.000132999
-0.000284678
-1.72639e-05
-0.000203623
-3.97102e-05
0.000125736
-0.000128178
-0.000124199
0.000268876
-0.00181676
0.000325173
-0.00101648
0.00189299
0.000763327
0.000763201
0.00189304
0.000882914
-0.000138496
0.00159376
-0.00317222
-0.000219202
8.7223e-05
0.00225414
0.000200047
-0.00151977
0.000829116
0.00212246
0.00153292
0.00181944
0.00109598
-0.000242835
-0.000264925
-0.00024621
-8.35478e-05
0.00150919
-0.000246365
0.000882849
0.00159382
-0.000138578
-0.000622429
-0.000219022
0.0022541
8.71482e-05
-0.000337894
5.76033e-06
-0.0029205
0.00187253
1.03368e-05
-0.00185847
-0.000174772
8.82961e-06
-0.000264745
-0.000202056
0.000562982
-0.000622488
-0.000444232
-2.01055e-05
0.00016688
8.91844e-06
3.42323e-06
1.06586e-05
-2.01761e-05
0.000563049
-0.00145348
-0.000443848
-0.000221185
-1.63954e-05
5.44366e-06
1.4746e-05
1.58471e-05
1.91438e-05
5.13711e-05
2.16218e-05
-0.00109186
2.1715e-05
0.00014214
-0.000812986
0.0236992
0.000141754
0.0205043
-7.39701e-05
0.0207433
-6.22386e-05
0.0184601
-0.000194966
-0.016865
0.0147396
3.50145e-05
0.0103921
0.0103854
0.000308588
-0.0114678
0.0134413
0.0135588
0.000188627
-0.0144884
-0.000158014
-0.0164828
0.0186148
-0.02135
0.0222639
-0.000364296
-0.0201479
-0.000338345
0.0169623
0.0172002
-0.000440861
-0.0190101
0.0228709
-0.0260413
-0.000111868
-0.0223902
0.0252296
-0.023736
0.0145855
0.000250769
-0.0127384
-0.000468836
0.0119344
-0.000782547
-0.015152
-0.0107795
0.00485342
0.0047886
-0.0357667
0.0126488
0.0121219
0.00197413
-0.000186238
-0.0120413
-0.000614227
0.0123911
0.0123927
-0.000668547
-0.0137681
0.000188785
0.0135568
0.0134425
-0.0144888
-0.000160573
-0.0114675
0.000309166
0.0103845
0.0103926
3.34352e-05
-0.00895391
0.000280851
0.00781577
0.00788636
0.000104837
0.000254514
0.000163832
7.68049e-05
-0.000100043
1.79226e-06
8.52735e-05
0.000246264
0.000174317
5.7541e-05
0.00602552
-0.00647862
0.0054837
-0.0055521
-1.52973e-05
0.00654228
-3.99119e-06
-1.98791e-06
5.72672e-06
1.29415e-06
-1.38217e-05
-4.46446e-05
-0.00253162
-0.00134998
0.000621326
0.00122339
0.000585866
5.25203e-05
1.52594e-05
2.38858e-06
4.05903e-05
-6.00179e-05
-6.98055e-05
-9.4075e-05
-0.000114859
-0.000139763
-0.000174949
0.000304578
0.00141474
0.00215296
0.00130304
0.000667465
3.76828e-05
-9.57196e-05
1.5172e-06
-0.0111559
-0.00808495
0.000339514
0.00753493
0.00753649
-0.000388394
-0.00639945
0.000332442
0.00566508
0.00566617
-0.00030798
-0.00682259
0.000223154
0.00580805
0.00592414
-0.00687238
0.000129941
-7.87985e-05
0.000326518
0.000826568
0.000516832
0.000117746
-0.000148173
-0.000130855
-0.00522606
0.000177797
0.00430613
0.00450639
-0.00523033
0.000142837
-0.00022061
-7.04576e-05
0.000269526
8.33049e-06
-0.000346104
-0.000543309
-0.000547533
-0.000984252
-0.000693232
-0.00154484
-0.00203386
-0.0018092
-0.00157249
-0.00188275
-0.00202329
-0.00154669
0.00206058
-0.00194994
0.000751222
9.89076e-05
-0.000114678
-0.000175223
-4.4378e-05
6.81906e-07
2.07581e-05
-0.0050825
-8.96066e-05
7.03885e-06
1.94479e-05
-0.00680539
-0.000106532
-0.000118991
0.000178703
-0.000118958
-0.000136959
-0.000151891
5.647e-05
0.000118919
-0.000424154
0.0184999
6.00467e-05
0.0169833
-4.04749e-05
0.0164627
-3.25364e-05
0.0146253
-0.000114851
-0.0130222
0.0113904
0.000106092
0.00788607
0.00781688
0.00028063
-0.008953
-0.00881713
-0.000388463
-0.00639788
-9.61562e-05
0.00135943
0.00225092
0.00422302
0.000186027
0.000186327
0.00197426
-0.000186141
-0.0160892
-0.0120396
-0.000254475
4.94283e-05
-2.02349e-05
-0.000213015
-0.000134631
-0.00014597
-2.46937e-05
-0.000131049
-0.000285843
-0.000151894
-2.78214e-05
-8.5473e-06
-7.52482e-05
-3.52963e-05
-1.43275e-05
-4.85329e-06
3.81305e-06
2.34221e-05
0.000193643
0.000312191
-1.71332e-05
-3.26666e-06
1.63499e-05
3.18607e-05
-6.87134e-05
0.0113016
-8.37073e-05
0.0104091
1.02981e-05
-0.0112101
-1.6436e-05
0.0112961
-7.30919e-05
-0.00988718
0.0086468
-0.0100242
-0.000115099
7.49834e-05
7.66677e-05
-0.000344463
-0.000499122
-0.00070589
-0.000233818
-0.000277086
-0.000235653
-0.000215031
-0.000223823
-0.000126727
-0.00024416
-0.000251633
2.14611e-05
0.00155087
0.00122466
0.000586486
-0.00466014
-8.98694e-05
0.00467639
-4.48372e-05
0.00222006
4.06102e-05
3.34845e-05
5.66884e-06
-1.96841e-06
-1.18579e-05
-3.1609e-05
-6.91575e-05
-2.44398e-05
-8.58088e-06
-8.62224e-06
-0.0119465
0.0127539
-0.0145448
0.0134583
-0.0127431
-5.28358e-05
0.0145649
-0.000192849
-0.016246
-0.000164316
-0.000561357
-0.0202194
-0.00362848
-0.0103719
0.00881516
-0.00864866
-0.0201159
0.00468039
-0.0097899
-0.00529452
-0.00919509
-0.00714232
0.000615756
-3.74242e-05
-0.000279467
-0.000638628
-0.000539133
0.00650635
0.0046316
-0.000258895
-0.000174706
-0.00128055
-0.00249411
-0.000455256
-0.00109914
-0.000291694
-0.0006307
-3.3679e-06
6.98901e-05
4.42241e-05
-0.0154464
-0.018435
-1.53216e-06
-0.0194605
-6.95584e-05
-7.42262e-06
7.11465e-06
7.8517e-06
-0.000204891
-0.000361818
-0.000139923
-9.40044e-05
-0.00743349
0.00654147
-0.000106974
0.0060251
2.07193e-05
-0.00508249
0.00501327
0.000155643
-0.00569068
8.49452e-05
0.000174047
0.000123304
-0.000173507
6.98251e-05
-0.00680564
-7.62306e-05
-1.22155e-05
8.49134e-05
0.000247085
0.000621667
-0.00135005
0.00185714
-0.000726503
0.00181965
0.00212243