/*--------------------------------*- C++ -*----------------------------------*\
| =========                 |                                                 |
| \\      /  F ield         | OpenFOAM: The Open Source CFD Toolbox           |
|  \\    /   O peration     | Version:  2306                                  |
|   \\  /    A nd           | Website:  www.openfoam.com                      |
|    \\/     M anipulation  |                                                 |
\*---------------------------------------------------------------------------*/
FoamFile
{
    version     2.0;
    format      ascii;
    arch        "LSB;label=32;scalar=64";
    class       volScalarField;
    location    "3";
    object      gradTy;
}
// * * * * * * * * * * * * * * * * * * * * * * * * * * * * * * * * * * * * * //

dimensions      [0 -1 0 1 0 0 0];

internalField   nonuniform List<scalar> 
2658
(
0.00851609
0.00490111
0.00152584
-0.000232498
-0.0186971
0.0230322
-0.0200654
0.0168758
-0.000369041
-0.0162938
0.00509679
-0.0356892
0.0213964
0.0217808
0.0175724
0.0180762
0.0198694
0.0177939
0.0179904
0.0215146
0.0207105
0.0179796
0.0059076
-0.00419372
0.00677325
0.0198585
-0.00437997
0.0011614
0.0161975
-1.80633e-06
-0.0161989
0.00438031
-0.0198587
-0.00590552
-0.0067721
0.00419486
-0.00140338
0.0016759
-0.0179855
-0.020713
-0.0215168
-0.0179914
-0.0177921
0.00899479
-0.00157978
-0.000854144
-0.00509734
0.00936141
-0.0180794
-0.0175719
-0.021777
-0.0213956
-0.018898
0.00395043
-0.00703793
-0.00673629
0.000450806
-0.0121077
-2.06328e-06
-0.000233507
-0.000451296
0.00673442
0.00703862
-0.00395112
0.0049178
-0.0104525
-0.0150326
-0.000643118
-0.0255034
0.0255021
-5.62749e-07
0.0221737
-0.0002127
0.0187766
-9.46323e-05
-0.0142036
-0.0140989
0.00026861
0.0140603
0.00925516
-0.00942358
-0.000516837
0.0118321
0.0177444
-0.000417033
-0.000256681
-2.02935e-05
9.05171e-05
0.000136197
0.000161
0.000148561
-0.000665054
0.000350467
0.00171543
-0.000777696
-0.00173515
-0.000339797
-0.00192299
-0.000364379
-0.000745352
-0.00211068
-0.00057701
-0.00177662
-0.00099173
-0.00081861
0.00187417
-0.000675929
3.21976e-06
0.000237974
-0.00198396
0.000654765
-0.000901961
-5.06437e-08
0.000901918
-0.000654887
0.00198381
0.00081863
-0.00187412
0.00177658
0.000991769
0.000576986
0.00211066
0.000745311
0.000364345
-0.00147321
-0.00142791
-0.00171549
0.00173507
0.000339715
0.000777755
0.00206792
0.000542504
0.000992213
0.000890419
0.00184523
-0.000819719
4.78703e-05
7.83996e-05
-0.00185342
0.00185363
-4.8172e-05
0.000819789
-0.000499196
-0.000521358
-4.7298e-06
0.000519589
8.92101e-07
9.99676e-07
-0.00102598
0.00101135
2.17036e-06
8.01193e-05
0.000535019
-0.00059307
0.0024131
0.000565373
0.0022579
0.00266664
0.00282324
0.00224679
0.00226175
0.00258186
0.00225907
0.00228911
0.00288927
0.00269397
0.00236233
0.000768027
-0.000188497
0.000404127
-0.00298631
0.00376025
-0.00391293
0.00476384
-0.00529511
0.00617961
-0.0071238
0.00797147
-0.00941519
0.0100805
-0.012201
0.0124334
-0.0155838
0.014971
0.0146054
0.0122339
0.0116107
0.0162946
0.018696
0.000231388
-0.0230343
0.0150317
0.0104512
-0.00491762
0.0356892
-0.00431153
0.000415182
0.000255509
1.92363e-05
-9.14601e-05
-0.000136827
-0.000161363
-0.000148783
0.000664916
-0.00035031
3.01178e-05
-0.000773013
0.000263027
-0.000998248
0.000998239
0.000773021
-3.02552e-05
-0.000263087
-0.000304226
0.00142804
0.00147319
-0.00175447
0.00167689
0.000405937
-5.74844e-05
-0.000271388
0.000263446
-0.00025768
-0.000279996
-1.06842e-07
0.000279923
-0.00040621
0.00067594
-0.00126904
-3.22574e-06
-0.00141195
0.00141182
0.00126887
-1.65731e-07
-0.000882924
-0.000966098
0.000965952
-0.000250125
0.00088267
-0.000130119
-8.8384e-08
-0.000717384
-0.000316959
0.000933534
-0.000242247
4.38799e-08
1.38773e-08
-1.24627e-07
-0.00133425
0.00096618
0.00270352
-0.000650129
0.00214898
-0.00284834
0.00324485
-0.00339973
0.00339928
0.000427131
0.00379706
0.000270967
-0.00451785
0.00502089
0.000139558
-0.00588551
0.00670617
2.94878e-05
-0.00769622
0.00885421
-0.000120869
-0.00992064
0.0114626
-0.000426325
-0.0124963
0.0145309
-0.00115232
-0.0153267
0.0179901
-0.00308196
-0.0193545
-0.00889562
-0.0197511
0.01975
-0.0011609
-0.00533645
0.0102333
0.00913214
-6.04103e-07
-0.00649767
0.00649738
0.00677408
-5.74092e-07
-0.00816577
0.00816491
0.0032923
-1.37187e-06
-0.0212044
0.0212011
-0.0131264
-1.89221e-06
0.0131224
-0.0102308
0.0065029
0.0149789
0.0103799
0.0137827
-0.0202883
0.0144948
0.00193843
0.00122788
0.000215449
-0.00329364
-0.00119083
-0.00335907
-0.0116277
0.00622227
0.0179133
0.00758078
0.00857957
-0.00437174
-8.15482e-07
0.00437161
0.00335895
-0.0144943
0.0202879
-0.014979
-0.00650116
0.0102291
-0.00194075
-0.00122998
-0.00857799
-0.00758112
-0.0179117
-0.00622254
0.0116271
-0.0120493
-0.00424326
-0.0165957
-0.00372974
0.0109647
0.0026068
-0.00257496
0.011922
-0.00235037
-0.00282466
0.000155794
-5.61659e-05
-0.000222479
-0.000270678
-0.000268499
-0.00025426
-0.000226778
-0.00028141
-0.00283089
-0.00241402
-0.00217876
-0.00330095
0.0042392
-0.00443978
0.00543814
-0.00601454
0.00706238
-0.00811289
0.00910111
-0.0107845
0.0114849
-0.0140603
0.0140997
-0.0177449
0.000368748
-0.016876
0.0200655
-0.0221756
0.0209473
-9.87866e-07
-0.0209487
0.0182943
-0.0164304
0.0133174
-0.0112418
0.0148593
6.63694e-05
0.0102645
0.000371336
-0.0114841
-0.000402745
-0.00759383
-0.00869222
0.000360947
0.00811829
0.00887169
-0.00971807
-0.000452475
0.0105487
0.000190524
-0.0105865
0.0131497
-0.000590074
-0.0116107
6.538e-06
0.00085378
-0.00936204
0.0120481
-0.0119229
0.00257381
0.000900482
-7.9189e-05
-6.78498e-07
0.000252482
3.69821e-05
-0.000136699
-0.000200814
-0.000213502
-0.000210857
-0.000189331
0.000257535
-0.000263507
0.000271417
0.000249925
5.76156e-05
-0.00167692
0.00175441
-0.00121796
0.000802402
0.000447171
0.000361104
0.0010115
0.000710274
-0.000194417
-0.00276568
0.00448154
1.74943e-05
-0.00492287
0.00400081
-0.00347905
-0.000272355
0.000243705
0.00146729
0.00149357
0.00148138
0.000922764
0.0010261
7.61964e-05
0.000404741
0.000431025
0.000251572
-0.000152939
7.30213e-05
-6.8443e-05
-0.000164342
-0.000136347
0.00012944
0.000189386
0.000198954
0.00365963
0.00321807
-0.0032821
-0.00286969
0.00014403
0.00290726
-0.000306727
0.000313387
-0.000121752
-0.000448297
-0.000457792
-0.000791237
-0.000349883
-0.000274219
-0.000412917
-0.000663693
-1.44195e-05
7.09964e-05
0.000146125
0.00592363
0.00538884
-0.00609997
-0.00528102
0.000273578
0.00470241
-0.00389742
0.000212421
0.00366484
-0.000285728
0.00415795
-0.00449884
0.000224126
0.00459301
-0.00373899
0.000156106
2.72666e-05
-9.93047e-05
-0.00379645
4.85339e-05
0.00358098
-0.000514775
-0.00314775
-0.000657114
-0.000259869
-3.38362e-05
8.36681e-05
0.000199512
0.000468478
0.000454239
-0.00124727
0.000452493
0.000914235
0.000577753
0.000103178
0.000300706
0.000216863
0.000191273
-0.000156472
-0.000467921
-0.000816147
-0.000808676
-0.00132203
-0.00125205
-0.00204512
-0.00129242
-0.00061145
-0.00122185
-0.00301715
-0.000503191
-0.000174687
1.66261e-06
0.0097182
0.00869341
-0.0105482
-0.00925376
0.000402302
0.00759419
-0.00705205
0.000332868
0.00602087
-0.000354949
0.00691911
-0.0081175
0.000363616
0.00763994
-0.00669987
0.000292101
5.02678e-05
3.96012e-05
-0.000127218
-0.00502033
2.5707e-05
0.00451795
-0.000271013
-7.07439e-05
-0.00450699
0.00537109
-0.00599587
0.00599538
0.000118623
-0.00706176
5.94129e-05
0.00794202
3.74518e-05
-0.00920028
7.01564e-05
0.0103425
-0.000112069
-0.0117304
5.46455e-05
0.0131633
-0.000513746
-0.0145122
-8.08749e-05
0.0163335
-0.00185141
-0.0169222
-0.00138853
0.0188589
-9.04444e-07
-0.0188597
0.00889377
0.0193559
0.00308066
-0.0179894
-0.000201336
0.0153263
0.00115107
-0.01453
-6.70569e-05
0.012498
0.000425359
-0.0114613
-3.19651e-05
0.00992199
0.000119581
-0.00885367
-8.17484e-06
0.00769687
-3.01174e-05
-0.00670557
9.92815e-06
0.00588593
-0.000139664
-5.36797e-05
-0.000197933
-0.000151664
-5.17297e-05
0.000728035
-3.09823e-07
-4.75121e-08
-5.82919e-07
-7.47796e-08
2.05648e-07
3.75563e-07
9.75855e-07
3.49244e-06
1.10219e-06
-6.30847e-07
-1.61486e-06
0.00545755
-0.0054587
-0.00762022
-0.00725372
-0.00222698
-0.00386983
-0.0121612
0.0367347
-0.00354256
0.000134322
-0.00016445
-0.000200329
0.00138875
0.0169229
0.00185038
-0.0163334
-4.21654e-07
-4.68727e-07
-5.25547e-07
0.000513196
-0.0131637
0.0145121
8.07431e-05
-0.000139465
-0.000175448
-5.50781e-05
0.0117302
0.000111461
-0.0103435
-1.2324e-07
-4.39441e-07
-5.0627e-07
-4.35595e-07
-0.000119679
0.00706129
-0.00794273
0.00920011
-7.00794e-05
-0.000175097
-0.000154747
-4.46215e-07
-2.96694e-07
-1.2773e-07
-1.84041e-07
-0.000427729
0.00414484
-1.69507e-07
-0.00414543
7.05641e-05
0.00450648
0.000211849
-0.0053719
5.33515e-05
0.000126603
-2.37015e-07
-0.00021271
-1.94513e-07
9.88442e-05
3.36037e-05
0.00314785
0.000514557
-0.00358101
0.000259695
-0.00324509
0.00133422
0.00284826
1.81965e-09
-0.00214887
0.000650118
-0.002704
-0.000768091
-0.000966166
-0.000115766
-0.000625784
-0.000317783
0.000242219
0.000717332
-0.000933619
0.000317094
-0.000968497
0.000718087
-9.2326e-08
-0.000718069
-0.000353005
0.00192287
0.000968519
0.000130163
0.00031781
-0.000237873
0.000625697
0.00011573
0.000133723
-0.000688682
-0.000291537
0.000965758
0.000899133
-0.00020772
0.000229822
0.00126915
-0.00184998
0.00170519
-0.000263212
-1.65706e-08
2.19701e-10
1.25458e-08
-7.0694e-08
-6.24149e-08
-1.36159e-07
-1.24755e-07
-1.41173e-07
-3.29171e-07
-4.43321e-07
-2.49364e-07
-3.70709e-07
-5.65432e-07
-4.38322e-07
-4.48561e-07
-9.70106e-07
-0.0102345
0.00533638
-0.00453636
0.00755457
-0.00755576
0.00453632
-0.0150932
0.00157653
-0.00605846
0.0140362
0.0035391
-0.000337398
0.0131739
-0.0119969
-0.00669339
-0.0177179
-0.00565313
-0.00864438
-0.0129905
-0.0072855
0.000669008
0.00626751
0.00192081
-1.78952e-06
-2.89838e-07
-0.00191981
0.0150937
0.00606054
-0.00157669
0.00478189
-0.00353922
-0.0131745
0.00033684
0.00155749
-0.00260799
-0.0109657
0.00372788
0.0165952
0.00424245
0.00762248
-0.00613446
-0.00626907
8.07643e-07
-0.00235177
-0.00478158
0.000331588
-0.000486692
-0.00739879
0.00613362
0.0011926
-0.00762301
-0.000232547
-0.000216483
0.00118995
-0.00090088
7.78341e-05
-7.80863e-06
-0.00211431
-0.00423635
-0.00221527
-0.0001798
0.012161
0.0105886
-0.0131496
-0.0118309
0.000516321
0.0094234
-0.000190914
-0.000261011
-0.00220076
-0.00131934
-4.32892e-05
7.4379e-05
0.00012624
0.000160092
0.000174311
-0.00500053
-0.000279143
0.000134876
0.00516596
-9.31549e-05
-0.00654277
0.00758936
-0.000114543
-0.00870226
0.00675863
-0.00579836
-0.000282199
-0.00776493
-0.000114078
-0.0114719
0.00878646
-0.000333851
-0.0102641
-6.71295e-05
-0.0148596
0.0112409
-0.000371938
-0.0133174
9.44075e-05
-0.0187785
0.014202
-0.000269725
-0.00100113
-0.00412192
-0.0125191
-0.0124846
-0.0198745
-0.00207331
0.0337769
-0.00322503
-0.00329363
-0.00152619
-0.000682338
-0.000415477
-0.000267887
-0.000164827
-6.56996e-05
3.40081e-05
6.90535e-05
1.71238e-05
0.0072763
2.34745e-07
-0.00727702
0.00844465
5.67919e-07
-0.00969828
0.00969817
-0.00844459
-4.36986e-08
-1.10042e-07
1.21377e-08
8.17294e-05
0.000184302
-6.15524e-05
0.00236168
8.84625e-07
-0.00236231
0.00475649
4.60842e-07
-0.00542148
0.00542084
-0.00475609
4.20681e-05
0.000674871
-0.000905799
0.000905805
-0.000519579
-0.000263175
-0.000675112
0.00276592
0.000194803
-0.000710837
0.00348008
-1.71358e-05
-0.00400158
0.00492285
-0.00448128
6.09174e-05
-8.18518e-05
-8.3819e-05
0.000226558
-4.83993e-05
0.00298648
0.000281834
-0.00365939
-0.00015601
0.00328223
0.000285657
-0.00366449
-0.000212695
0.00389901
0.00601417
0.00028229
-0.00675894
0.00870107
0.00011509
0.00579962
-0.00516648
0.00654255
9.311e-05
0.00434717
0.000256796
-0.00543752
0.00443961
0.00287059
-0.00290759
-0.00014413
-0.00423876
0.000271827
0.00330073
0.00217926
0.000306503
-0.0032178
0.00241417
0.00283122
-0.000802388
-0.000199473
-0.000446926
0.00493079
-0.000361244
-0.000184453
-0.00101125
0.00519429
-0.00224689
-0.00226222
0.00124733
-0.000454093
-0.000468518
-0.000430669
-0.00102625
-0.000728027
5.1477e-05
0.000151982
-7.60605e-05
6.90129e-05
0.000197582
0.000251698
0.000165013
0.000275063
0.00030623
-0.000307138
-0.000251922
-5.96316e-05
-0.000319047
0.00031797
0.000413462
0.000612141
0.000231374
-0.000232632
-0.000305434
0.000306218
0.00122453
0.00762227
0.00725718
0.00223087
-0.0149703
-0.000605887
-0.0146052
-0.000135533
0.00157944
-0.0337774
0.00234914
0.00282389
-0.000157222
5.49667e-05
0.000221364
0.000269931
0.000267945
0.00025388
-2.56628e-05
0.00391359
0.000266955
-0.00459258
-0.000224493
0.00449895
0.000313386
-0.00470215
-0.00027312
0.00528268
0.00811305
0.000333401
-0.00878732
0.011471
0.000113515
0.00776559
-0.00999297
-3.82619e-05
0.0111325
1.21153e-07
-0.0127821
0.0127816
-0.0111324
3.7722e-05
0.0099929
8.88132e-05
1.61161e-07
4.18209e-07
9.07823e-08
1.37426e-06
-4.26579e-05
-0.000579746
-0.0024161
0.000599238
0.000369196
-0.00184582
-0.000891068
-0.000992453
-0.00170554
-0.000542621
-0.00206796
-0.00282257
-0.00266655
0.000262192
-0.00225893
-0.000565738
-0.000913946
-0.00146695
-0.00149378
-0.0014816
-0.0028893
-0.00228925
0.00121789
-0.00225923
-0.00258306
0.00527262
-0.000404069
0.000657037
0.000188488
-0.00269408
-0.00236267
-0.00092218
-0.000251287
-0.000405537
-0.000188712
-0.00375979
-0.000198637
0.00373988
0.000152987
-6.84737e-05
-0.000128122
-0.00476323
0.00529604
0.000280021
-0.00592306
-0.000292069
0.00670103
0.00610001
0.000354779
-0.00602135
-0.000333587
0.00705368
0.0107838
-0.00910028
-7.381e-05
-0.000101344
-0.0076387
-0.000363267
-0.00691804
0.000199933
0.000212824
0.000210473
0.000189097
-2.75288e-05
-3.99152e-05
-5.07946e-05
0.000154143
0.000174358
-6.38176e-05
6.28098e-05
8.19197e-05
0.000451712
-0.0115758
-8.95199e-05
0.00011458
0.000584883
-0.0149027
0.000606192
0.000166865
0.000108171
8.68905e-05
7.13443e-05
5.57628e-05
3.48649e-05
-7.75219e-06
0.00574917
-0.00637275
0.00637303
-0.0057487
7.31204e-06
-3.49869e-05
-5.6036e-05
-1.81328e-05
-0.00758915
-6.9362e-05
-4.46249e-05
-0.000102554
6.59487e-05
0.000164979
-8.90126e-05
-5.46674e-05
-0.000134547
-0.000159937
-0.00017382
0.00500135
0.000458527
0.000143001
-6.90312e-05
-0.00617868
0.00712494
0.000298941
-0.00797058
0.00941634
0.000277638
-0.010079
0.0122016
8.984e-05
-0.0121615
-0.000586111
0.0149034
0.0155847
0.000200559
-0.0124321
6.70234e-05
0.000504444
0.000177527
1.669e-05
0.000356761
0.000791871
0.00125309
0.000673974
0.00204499
0.00130666
0.00387037
0.00301097
0.0121611
-0.0367338
0.00140361
-0.00167444
0.012991
0.00565177
0.0177173
0.00669333
0.0119958
-0.008995
0.00354249
0.0020734
-0.0122335
-0.000254297
-3.825e-05
0.000135637
-5.46963e-07
-6.98799e-07
-0.000115932
0.000138752
0.000174657
-8.28243e-05
-0.000109579
-3.99844e-07
-1.92965e-07
-8.76239e-05
-7.19197e-05
-5.97193e-05
-0.0129614
0.0144499
-2.81845e-07
-0.0165547
0.0165532
-0.0144505
5.90994e-05
0.0129613
0.000102487
-7.64883e-05
-0.000363065
5.50464e-05
-0.000152028
-0.000363236
-0.000709544
0.000111075
0.0164293
-0.0182951
9.98222e-05
-8.01878e-07
-7.61103e-07
-7.99654e-07
-5.21702e-07
-0.00677492
0.00128902
0.000163424
0.000199613
-0.00033109
-0.00913348
0.00235186
0.000485783
0.00739776
0.00728569
-0.0140346
0.00864415
-0.000668569
-0.0011944
-6.58778e-07
0.00431073
0.012105
-5.86772e-05
2.901e-07
0.00013901
0.00021228
5.7408e-05
-0.00490249
-0.00851907
-0.00858
-9.94741e-07
0.000229473
-1.66434e-06
0.000642013
5.00871e-07
3.77603e-08
-1.10365e-07
-0.000103004
0.000268315
0.000415327
-0.000111839
-0.000101372
0.00036327
7.65516e-05
0.000816623
0.000468064
0.000157013
-0.000243775
-0.000313215
0.000121878
0.000448483
-0.000145301
-0.00538832
0.000808796
0.0013222
-6.74282e-07
0.0115773
0.000181686
0.000261895
4.43094e-05
0.00132008
0.00220264
0.00221637
0.00423815
0.0124847
0.00211446
0.00412224
0.0125194
0.00322433
0.00100099
-0.000140543
0.000681139
0.00145472
0.00329421
0.000712157
-0.000126066
-0.00706121
-0.000191118
-0.000216945
-0.000453049
-0.00030044
-3.36029e-05
0.000154302
0.000362936
-0.000168416
-0.00145241
3.18705e-05
8.13245e-06
-9.90126e-06
-0.00415739
4.446e-05
-0.00434641
-0.000257142
0.000291552
0.000688743
-0.000133728
-0.000229903
-2.71245e-07
0.000207737
-0.000899242
-0.000965772
0.000353072
0.00185001
-0.00126918
-7.91329e-05
-0.000536168
0.000518545
0.0002632
0.000500497
-0.000367866
0.000102267
-0.00886912
-0.000277705
0.000590586
-0.00155873
-0.00128903
0.000232373
0.000304132
-1.56925e-08
-3.86529e-05
-3.17691e-07
-9.55069e-08
7.49018e-08
-0.000298838
-0.000360578
-0.000266501
-0.000313378
-0.00527234
-0.00493063
-0.00519398
-0.0137842
-0.0103821
0.00176867
-1.86383e-06
-0.00176833
0.018898
0.00857845
-0.000914751
-0.000577648
-0.000103085
-1.76515e-05
0.00347892
-0.00448159
0.00492255
-0.00400136
0.000272312
0.00330062
-0.00101162
0.00519416
-0.0026667
-0.00282322
-0.00224684
-0.00226168
-0.00258162
-0.002259
-0.00228904
-0.00288878
-0.00269395
-0.00236186
-0.000768152
0.000657118
-0.000966192
-0.00270372
0.000649982
-0.000115742
-0.00214901
8.77102e-08
0.00214888
-0.000650013
0.00270388
0.000768249
0.00096618
-0.000657147
0.000404167
-0.000188544
0.00236234
0.00269396
0.00288884
0.00228906
0.00225904
-0.00121795
0.000447031
0.000361164
0.0010113
-0.00124722
0.00226195
0.00224675
0.00282263
0.00266652
0.0022585
-0.000262216
0.000565961
0.000263057
0.000675332
0.00236218
-1.19915e-06
0.000905726
-0.00067498
-0.000263471
-0.00056531
0.000262973
-0.000710444
0.000194425
0.00276561
6.12289e-05
0.00475572
-0.00475646
-7.06379e-07
-0.00542127
7.58118e-06
-0.00574892
9.2712e-05
0.00434627
0.0044393
0.00025706
-0.0054379
-0.0036651
0.00286983
-0.000144498
-0.00290758
-0.00423927
0.000148554
0.000161021
0.000136061
9.03261e-05
-1.99169e-05
-0.000256638
-0.000416698
0.00431096
-0.00335826
-0.0116262
0.00622313
0.0120489
0.00424286
0.016595
0.00372867
0.00669385
0.0177177
0.00565299
0.012989
0.00864266
0.00605734
-0.0140348
0.00478048
-0.000331642
-0.00157623
0.0150928
-0.00453475
0.00755493
-2.54563e-07
-0.00755653
0.0045332
-0.0150944
-0.0060591
0.0140336
-0.01299
-0.00864322
-0.00565405
-0.0177176
-0.0066938
-0.00373052
0.0109638
0.0119201
0.0116249
-0.0120499
-0.00424499
-0.00622393
-0.0179144
-0.00758598
-0.0103826
-0.0149815
-0.00650295
0.0102298
-0.0131269
-0.00193972
0.0212021
-0.0212039
0.0131253
-0.0102311
0.00650282
0.0149806
0.0103822
0.013785
0.00758583
0.0179139
0.021778
0.0213981
-0.00394945
0.0188981
0.00704012
0.0085794
0.00673481
-0.000231142
8.55968e-08
0.000229941
-8.90878e-07
0.0121055
-0.0121071
0.000451179
-0.00673522
-0.00858006
-0.00704103
-0.0188993
-0.0213991
-0.0217779
-0.0175717
-0.0180763
-0.0198676
-0.0177939
-0.0179897
-0.0215135
-0.0207096
-0.0179787
-0.00590495
0.00167668
-0.00140355
0.0149704
-0.015585
0.0124323
-0.0122007
0.0100804
-0.00941573
0.0079707
-0.0071246
0.00617945
-0.00529528
0.00476366
-0.00391341
0.00375988
-0.00298642
-0.00283097
-0.00241399
-0.00217894
-0.00330072
-0.00347979
1.69893e-05
0.00448116
-0.00276596
-0.00019473
0.000710791
-0.00519421
0.000664865
-0.000148922
-0.000161415
-0.000136626
-9.11604e-05
1.93738e-05
0.000255539
0.000415076
-0.00431206
0.00335738
0.00118968
0.00329142
-0.000901428
0.00816419
-0.00816543
-0.00329266
-0.00119103
0.000900345
0.00257372
-0.0119215
-0.0109647
0.0119956
-0.013174
-0.0035388
0.000337804
0.00155718
-0.00260718
0.00234896
0.00282364
-9.63462e-07
-0.00282443
0.00353776
-0.0047823
0.00912986
0.000329691
0.0102322
-0.0102347
-0.00913238
-1.74619e-06
0.00649537
0.00677208
-0.00677509
0.00128892
-0.00649829
0.000485419
-8.07928e-07
0.00626596
0.000666617
-0.00728642
0.00191936
-1.13488e-06
-9.82623e-07
-6.32577e-07
0.00889253
-0.00677449
-0.0198586
0.0043768
-0.0161997
0.0197481
-0.0188593
0.016921
-0.016923
-0.00185243
-0.0153264
-0.00115236
0.014529
-0.0124982
-0.000425777
0.0114605
-0.00992208
-0.000119587
0.00885306
-0.00769683
3.02735e-05
0.00670546
-0.00588595
0.000139827
0.00502038
-0.0045181
0.000271175
0.00379682
-0.00358132
0.000514628
0.00314771
0.00133411
0.00284793
-0.00284825
0.000115522
0.000625575
-0.00141189
-0.00126893
-8.21741e-08
0.000882622
-0.00088282
-0.000966091
-1.14127e-07
0.000998122
-0.000998286
-0.000773105
-1.9737e-07
0.00185334
-0.00185384
4.80931e-05
-8.40127e-07
-0.000519733
0.000521378
-0.000369219
0.00184575
0.00089108
0.000992307
0.000542704
0.00206784
0.000777566
-0.00171541
-0.000350521
0.00126919
-0.00184998
0.00170552
0.000899151
0.000965831
0.000339798
0.0019227
0.000364317
-0.00147312
-0.000263561
0.000303933
-0.00142794
0.00173524
0.000257414
0.000279865
-0.000226865
-0.000254377
-0.000268614
-0.000270508
-0.000221852
-5.54171e-05
0.000156862
0.000606585
0.0146036
0.0122343
0.0116098
0.0162944
-0.0177448
0.0140999
-0.0140607
0.0114851
-0.0107847
0.00910093
-0.00811396
0.0070617
-0.00601471
0.00543768
-0.00443986
0.00423895
-0.00027208
0.00400127
-0.00492316
0.00542127
-0.0063731
-2.6961e-07
0.00637207
-0.0072772
0.00654208
-0.00516677
0.00579875
-0.00758939
0.000114474
-0.00675953
0.000282333
0.00601361
-0.000212737
0.00389808
0.0044982
0.00031338
-0.00538865
-0.00592361
0.00500042
-0.000224585
-0.00415791
0.000285591
0.00328166
-0.00321818
0.000306909
0.00217875
-0.000184649
-0.000361227
0.00124704
-0.00173535
-0.000777653
-0.00206799
-0.00054266
-0.000992226
-0.000890633
-0.00184519
0.000367762
-0.000500541
-4.79861e-05
0.000819824
-7.84812e-05
-0.00126927
-3.02334e-05
0.000350349
0.00185003
0.00171543
0.00142791
-0.000304149
-0.000263047
0.000772986
-1.90955e-07
-2.95776e-07
-3.38448e-07
-2.00716e-07
-1.73271e-07
-1.47712e-07
-1.55882e-07
-4.98351e-07
-5.93871e-07
-7.87762e-07
-3.66177e-07
0.00436996
-0.000234651
-0.00762431
0.00119281
-0.0165951
-0.00739941
0.013172
-0.000339293
-0.00155926
-0.00129074
-0.000164722
0.000134754
-0.00158025
-0.000853816
-0.00509799
-0.0049184
0.0104499
0.015031
-0.0230339
0.000231729
0.020065
-0.0168753
0.0186959
0.000367866
-0.00412164
-0.0125196
-0.0124834
-0.0121585
-0.00725506
-0.00762068
-0.00122403
-0.00301339
-0.00222979
-0.00387101
-0.00204371
-0.00130632
-0.000611618
-0.000413721
-0.000672741
-0.000176699
-0.000504081
-0.000180781
-0.0149023
-0.0131497
0.0105874
0.00942226
0.000516299
-0.0118304
0.000589108
0.00025298
-0.00235039
0.00260569
-0.00257626
-0.000217346
0.00613248
-0.000488129
-0.00235338
0.00157479
-0.00533719
-0.00116259
-0.00545844
2.84975e-07
1.4507e-07
7.10975e-07
-1.79724e-07
-6.78595e-07
-7.79546e-07
-7.32028e-07
-1.43685e-06
-6.92722e-07
-2.05694e-08
1.57931e-07
-0.0007281
0.000728005
0.00102596
7.56228e-05
-6.89653e-05
-0.000165152
-0.000275158
-0.000356684
-1.62983e-05
-0.00125186
-0.000791232
-0.000458218
-0.000141993
6.94838e-05
0.000146218
-0.00670084
-0.00610061
0.00538833
0.00470186
0.000272964
-0.0052817
0.00602031
0.000332705
-0.00705254
0.00759333
0.00040203
-0.00925363
-0.000191463
-0.0105492
0.00869313
0.000451969
-0.0115756
0.0121603
0.000585478
0.000114858
3.74036e-05
-0.000136394
-0.000361081
-0.0081182
0.00691857
0.000363073
-0.00886992
0.00971832
-0.000277966
1.56149e-06
-0.00221485
-0.00423682
-0.00207292
-0.00354185
0.00899412
-0.0119966
0.0367315
-0.00211487
0.0093608
-0.00322514
-0.00851685
-0.00490226
-0.00152696
-0.00329429
-0.0010006
-0.000260803
-0.00220093
-0.00131882
-0.00132091
-0.000807659
-0.000447848
-0.000121553
-0.000152649
6.91819e-05
0.000128359
0.000174543
-0.00500078
-0.00449874
0.00415794
0.00366449
0.000212132
-0.00389799
-0.000313319
-0.000213681
-0.000200678
-0.000355106
5.0162e-05
0.00029167
0.00592274
-0.000279697
-0.000154769
0.00769638
-8.95746e-06
-0.0088541
0.000119934
0.00992145
-3.18183e-05
-0.0114618
0.000426514
0.0124969
-6.67788e-05
-0.0145297
0.00115222
0.0153257
-0.00020114
-0.017989
0.00308193
0.0193533
0.00419356
0.00138775
-0.000200837
0.00019919
-0.0193549
-0.00308181
0.0179882
-0.00138968
0.0188579
-0.00889471
-0.0197493
-5.08301e-07
0.0161986
-0.00437901
0.0198571
0.00590375
0.00677266
0.00116127
0.00533607
0.00235123
-0.00192129
-0.0062684
0.00728588
-0.00066802
0.00739831
-0.00613396
-1.37228e-06
-7.88974e-07
-8.53469e-07
-8.27444e-07
-8.39171e-07
-7.41782e-07
0.00185144
-0.0163333
0.014511
-0.0131633
0.0117302
-0.011732
-0.000112682
0.0103423
7.00649e-05
-0.00920032
3.75282e-05
0.00794134
5.98423e-05
-0.00706185
0.000119225
0.00599534
5.35779e-05
-0.00537188
0.00021209
0.00450648
7.04466e-05
-0.00414575
0.000427376
0.00339919
0.000259617
-0.00324532
-1.0845e-07
0.00324491
-0.00133413
-0.00314789
-0.000514732
0.0035809
4.83282e-05
-0.00379688
-0.000271093
0.00451801
2.54307e-05
-0.00502092
-0.000139973
0.00588524
9.44607e-06
-0.00670631
-3.04026e-05
-6.02988e-05
0.00706059
-3.82541e-07
-0.00599652
0.00537118
-0.00450732
0.00414512
-4.59394e-07
-0.00339959
-0.000259807
-3.3791e-05
-9.92866e-05
-7.07507e-05
-0.000151638
-0.000198062
-0.000252575
-0.000307487
-0.00031887
-0.000231884
-0.000305381
0.000304675
0.00545761
0.00762005
0.00122343
0.000229915
0.0163314
-8.19763e-05
-0.0145132
-0.00051537
0.0131613
5.44809e-05
0.00017445
-2.76719e-07
0.000515203
-5.96176e-07
-4.02599e-07
0.000112757
-0.0103435
0.00919881
-0.00794296
-3.82519e-05
-5.96336e-07
-7.26895e-07
-4.46032e-07
-0.000119987
-4.16853e-07
-0.000212331
-5.18657e-07
-1.94503e-07
-0.000427211
-1.35478e-07
-3.54947e-09
0.00141177
-0.000625641
0.000654746
-0.000901882
0.000901759
-0.000654706
0.001984
-0.000237854
0.000818642
-0.00187393
-0.000406185
5.75583e-05
-0.00167691
0.00175437
0.000745342
0.00211043
0.000576947
0.000991644
0.00177651
0.000933573
-0.000316948
-0.000717383
-0.000242239
1.72773e-07
-9.98467e-08
0.000242081
-0.00198402
-0.000818591
0.000237711
-0.000676045
0.00040594
0.00167689
-5.75983e-05
-0.000271381
0.000263454
0.00147315
-0.000364356
-0.00192274
-0.000339818
-0.000965855
0.000718123
0.000717407
-1.16747e-07
0.000317829
0.000675929
-3.15468e-06
0.000130141
0.000968521
-0.000718102
-0.000353069
-9.0963e-08
-0.000130167
-0.000317886
0.00126889
2.92006e-06
3.35584e-05
-2.94457e-07
-3.33272e-07
-4.5521e-07
-3.84342e-07
-4.62074e-07
-4.1501e-07
-0.00013921
8.16519e-05
0.000138156
-0.00015738
0.000200262
-0.0149711
-0.000605811
0.0149027
-0.000586377
-0.0105889
0.000190656
0.00925338
-0.000402594
-0.00759508
-0.0114854
0.000371033
0.0102634
-0.0129616
6.60254e-05
-0.0112425
0.0133159
-0.0164305
-9.44764e-05
-0.0142044
0.000269227
0.014059
-0.0140997
-0.00942517
0.0118306
-0.000516681
0.0177436
-0.000367353
0.0168751
-0.0200657
-0.000232178
-0.0186973
-0.0162949
-0.0116112
-0.000589376
0.0131486
-0.012234
-0.0146055
0.00354131
-0.00013562
0.0015795
-0.0337766
0.000853789
6.55944e-06
0.00509674
-0.0356869
0.00491859
-0.0150323
-0.0104515
0.00490099
4.42664e-08
5.74446e-05
0.000641743
0.0255015
-4.59645e-07
0.0221736
-0.0221739
0.000211791
-0.0187782
9.46043e-05
0.0164305
-0.0133166
0.014202
-0.000269807
0.0112403
-6.70013e-05
0.0129618
-0.0102632
-0.000371669
0.00878594
-0.00011453
0.00999326
-0.00776452
-0.000334252
-0.000816018
-0.000467642
-0.000156549
0.000243973
0.000313253
0.000251262
0.000405486
0.000189092
0.000198936
-0.00373942
-0.00328238
0.003218
0.00290728
0.000143835
-0.00287014
-0.00028583
-0.000211063
-0.000189522
-0.000306437
8.35263e-05
0.00019941
0.000802401
-0.00527241
0.00148141
0.000921742
0.000430493
0.000468595
0.00149359
0.0025825
-0.00493071
0.000454269
0.000191552
0.000160282
0.000126703
7.47382e-05
-4.3524e-05
-0.000363708
-0.00145496
-0.000681431
-0.000415682
-0.0007131
-7.72666e-05
0.000102605
0.000110659
-0.0148603
0.016554
-5.79908e-08
0.0144501
-0.0144501
5.96436e-05
0.0127818
-2.59967e-07
0.0111326
-0.011133
3.75148e-05
-0.00870168
-0.000115184
0.00758923
-0.00579909
0.00675831
-0.000282454
5.39323e-05
-0.00036368
-0.000268468
-0.000165161
-0.000154774
0.000134953
6.90334e-05
-0.00654323
-9.34749e-05
0.00574861
-0.00434698
0.00516598
-0.000256922
0.000217061
3.34129e-05
-6.58683e-05
0.000102923
0.000300415
0.000453143
0.00146698
0.000913804
0.000579859
0.00241589
-0.00059932
0.00102594
-2.08941e-06
-0.00101129
0.000592845
-0.00241332
-0.000518624
-0.000534965
-1.42941e-06
-3.01043e-07
4.43102e-05
-7.69211e-06
3.45893e-05
2.71487e-05
0.000155614
0.00365949
-0.000281444
3.93319e-05
0.000224293
0.0045926
-0.000266663
-0.000127105
-5.39373e-05
0.000126317
0.000153924
0.00017432
0.00022164
5.51102e-05
6.64758e-05
-0.0124335
8.95734e-05
0.0115752
-0.000452947
-0.00869356
0.000361358
0.00705215
-0.000333333
-0.00602204
-0.00910034
0.000334723
0.00776463
-0.00999331
0.000113613
-0.00878754
0.0114706
-5.98626e-05
-0.012782
-0.000102766
-4.52161e-07
-1.90256e-07
-1.05405e-06
0.000139781
-0.000139632
-5.79751e-05
-0.000642986
0.0230322
-0.0255033
-7.90801e-05
0.000163122
-0.000115819
-0.000253957
-3.78093e-05
-4.34188e-07
8.2242e-05
-0.000175005
-5.47125e-05
-0.000174851
-7.0253e-05
6.30003e-05
-2.25555e-07
-4.02098e-07
-4.79047e-07
-4.29099e-07
-3.13829e-07
-1.24876e-07
-7.97066e-08
-0.000279928
0.000226688
0.000253817
0.000268024
0.00026988
7.79251e-06
-0.00797141
0.00029914
0.00670027
-0.000292099
0.00609931
0.000354941
0.00528154
-0.000273829
-0.00470269
-0.00706193
0.00811227
-0.000126623
-0.000146536
-7.07422e-05
0.000274358
0.000412749
0.000610533
0.000318604
0.000307188
0.000252534
0.000198087
0.000164698
6.87934e-05
0.000151628
5.13044e-05
-7.60951e-05
-0.00102625
-0.000922532
-0.000431026
0.0029864
0.000281766
0.0028308
-0.000199801
-0.000447087
0.00493083
-0.000257595
0.000189148
0.000210499
0.000212946
0.000200028
0.000136016
-8.27366e-05
-6.37679e-05
-0.000363945
-0.0076393
-0.00691878
0.00811718
0.00886958
0.0094151
0.000278234
-0.0100802
3.10959e-05
0.0122007
0.000174621
0.000503448
0.0155827
0.00222753
0.00140319
-0.0367341
0.0207106
0.0179818
-0.0016777
0.00725285
0.0121587
0.0215151
0.0179906
-0.00899527
0.0177916
0.0198731
0.0180784
-0.00936187
0.0175718
0.0125177
0.0124847
0.00207311
0.0038691
0.00301741
0.00204376
0.00129139
0.00125142
0.000662031
1.41746e-05
-0.000102903
-1.97128e-06
-0.00971926
0.0105467
0.000180316
-0.0121621
0.00423652
0.00221417
0.00132031
0.000806986
0.000790146
0.000349567
0.000457234
0.000279663
0.00529468
-0.00476371
0.000266905
0.00373939
-0.000156211
-0.00365974
-0.00375999
-4.84342e-05
0.00391304
-2.57157e-05
-0.00018919
-0.000129441
0.000135482
-0.000174686
-0.00459339
0.000152242
-7.37173e-05
-0.00025161