/*--------------------------------*- C++ -*----------------------------------*\
| =========                 |                                                 |
| \\      /  F ield         | OpenFOAM: The Open Source CFD Toolbox           |
|  \\    /   O peration     | Version:  2306                                  |
|   \\  /    A nd           | Website:  www.openfoam.com                      |
|    \\/     M anipulation  |                                                 |
\*---------------------------------------------------------------------------*/
FoamFile
{
    version     2.0;
    format      ascii;
    arch        "LSB;label=32;scalar=64";
    class       volVectorField;
    location    "2.5";
    object      flux;
}
// * * * * * * * * * * * * * * * * * * * * * * * * * * * * * * * * * * * * * //

dimensions      [0 1 -1 1 0 0 0];

internalField   nonuniform List<vector> 
2658
(
(1.01227e-06 9.91613e-07 -8.91244e-06)
(1.47533e-06 5.71998e-07 -8.6317e-06)
(4.74183e-07 1.78184e-07 -6.56911e-06)
(-4.56472e-08 -2.46098e-08 -5.98227e-06)
(-2.15627e-06 -2.12064e-06 -7.37195e-06)
(-1.82403e-06 2.60915e-06 -7.55438e-06)
(1.92474e-06 -2.24542e-06 -6.91516e-06)
(1.89908e-06 1.88949e-06 -6.66563e-06)
(-3.6781e-08 -3.72304e-08 -5.9772e-06)
(2.59043e-06 -1.84705e-06 -7.532e-06)
(-1.73312e-06 5.75111e-07 -7.41763e-06)
(-1.24404e-06 -4.12413e-06 -5.84155e-06)
(8.1786e-07 2.48823e-06 -7.77321e-06)
(9.80763e-07 2.53215e-06 -7.25741e-06)
(7.52737e-07 2.04584e-06 -7.52588e-06)
(-7.12821e-08 2.10309e-06 -7.74024e-06)
(-3.36645e-08 2.30896e-06 -7.41901e-06)
(-7.07405e-09 2.07029e-06 -7.72272e-06)
(-8.2681e-07 2.09433e-06 -7.51956e-06)
(-1.06688e-06 2.50088e-06 -7.16291e-06)
(-1.00758e-06 2.40858e-06 -7.64673e-06)
(-2.34389e-06 2.09467e-06 -6.88728e-06)
(-2.8152e-06 6.90034e-07 -7.88252e-06)
(2.12544e-06 -4.81766e-07 -6.06443e-06)
(-9.03396e-07 7.82385e-07 -9.47697e-06)
(-1.1074e-06 2.30738e-06 -7.63013e-06)
(-2.38507e-06 -5.06622e-07 -6.80844e-06)
(-3.47043e-07 1.36219e-07 -8.05596e-06)
(-1.74696e-06 1.88202e-06 -8.21028e-06)
(-1.87145e-06 -1.92599e-10 -6.73029e-06)
(-1.74695e-06 -1.88215e-06 -8.21025e-06)
(-2.38509e-06 5.06649e-07 -6.8085e-06)
(-1.10757e-06 -2.30744e-06 -7.63009e-06)
(-2.81542e-06 -6.8982e-07 -7.88251e-06)
(-9.0336e-07 -7.82267e-07 -9.47697e-06)
(2.12544e-06 4.8189e-07 -6.0644e-06)
(-1.17838e-06 -1.52271e-07 -7.84521e-06)
(5.40202e-07 1.95762e-07 -1.08918e-05)
(-2.34345e-06 -2.09537e-06 -6.88714e-06)
(-1.00782e-06 -2.40883e-06 -7.64695e-06)
(-1.06686e-06 -2.5011e-06 -7.16317e-06)
(-8.26651e-07 -2.09446e-06 -7.51963e-06)
(-7.19824e-09 -2.07004e-06 -7.72246e-06)
(7.19355e-08 1.04209e-06 -1.12648e-05)
(-1.45135e-06 -1.7225e-07 -7.19571e-06)
(1.3582e-06 -8.89672e-08 -7.11525e-06)
(-1.73315e-06 -5.75151e-07 -7.41773e-06)
(-6.33354e-08 1.08465e-06 -1.12534e-05)
(-7.15783e-08 -2.10345e-06 -7.74029e-06)
(7.526e-07 -2.04578e-06 -7.5258e-06)
(9.80705e-07 -2.53171e-06 -7.25713e-06)
(8.17969e-07 -2.48818e-06 -7.7733e-06)
(2.22182e-06 -2.20166e-06 -6.95727e-06)
(-4.74451e-07 4.58443e-07 -1.12791e-05)
(2.50147e-06 -8.2038e-07 -7.78025e-06)
(2.0537e-06 -7.79413e-07 -7.5367e-06)
(-1.10264e-06 5.30648e-08 -1.1254e-05)
(1.1193e-07 -1.37838e-06 -7.14813e-06)
(-3.92389e-06 -1.58941e-10 -6.10626e-06)
(2.07674e-06 -2.4281e-08 -7.73031e-06)
(-1.10261e-06 -5.29801e-08 -1.12543e-05)
(2.05376e-06 7.79355e-07 -7.53687e-06)
(2.50108e-06 8.20451e-07 -7.77992e-06)
(-4.74563e-07 -4.58548e-07 -1.1279e-05)
(5.47282e-07 5.54834e-07 -7.3205e-06)
(-4.13332e-06 -1.20606e-06 -5.85316e-06)
(5.39636e-07 -1.71916e-06 -7.39815e-06)
(-2.97325e-08 -7.52621e-08 -6.70305e-06)
(-1.3657e-06 -2.88934e-06 -7.47523e-06)
(-1.36583e-06 2.88936e-06 -7.47505e-06)
(-6.44989e-08 4.23724e-12 -6.07791e-06)
(1.38544e-06 2.47987e-06 -6.78708e-06)
(-8.25309e-08 -2.52233e-08 -5.29177e-06)
(-1.51986e-06 2.07147e-06 -6.11423e-06)
(2.62438e-08 -8.35987e-09 -4.72389e-06)
(-1.5999e-06 -1.56817e-06 -6.04553e-06)
(2.053e-06 -1.55559e-06 -6.0978e-06)
(-1.58836e-08 3.54313e-08 -4.71774e-06)
(-1.79144e-06 1.52815e-06 -5.41655e-06)
(2.0041e-06 1.00487e-06 -5.31497e-06)
(-2.3565e-06 -1.04054e-06 -6.09733e-06)
(-4.26854e-08 -6.49834e-08 -5.29003e-06)
(2.48922e-06 1.32287e-06 -6.75358e-06)
(-2.25524e-06 1.98592e-06 -6.93713e-06)
(-6.03096e-08 -4.50649e-08 -5.63383e-06)
(-3.72521e-08 -2.67102e-08 -4.42806e-06)
(-7.05543e-09 -4.87762e-10 -3.39118e-06)
(6.46444e-09 1.08638e-08 -2.51983e-06)
(1.09525e-08 1.46253e-08 -1.82336e-06)
(1.17722e-08 1.57792e-08 -1.29953e-06)
(1.01349e-08 1.36872e-08 -9.39988e-07)
(-2.83393e-08 -5.13073e-08 -9.65969e-07)
(2.53434e-08 2.69507e-08 -8.42082e-07)
(-1.70676e-07 1.33249e-07 -6.95457e-07)
(1.16132e-07 -5.95864e-08 -7.57034e-07)
(-2.05674e-08 -1.37354e-07 -8.03901e-07)
(-1.44184e-07 -2.5567e-08 -7.42871e-07)
(7.70441e-10 -1.48717e-07 -1.12633e-06)
(1.45173e-07 -2.7509e-08 -7.43426e-07)
(-1.18048e-07 -5.70057e-08 -7.54316e-07)
(6.4247e-08 -1.63106e-07 -1.13286e-06)
(1.64447e-07 -4.40788e-08 -7.63678e-07)
(1.42511e-07 -1.39608e-07 -8.15375e-07)
(1.18178e-07 -7.64444e-08 -9.19313e-07)
(1.2286e-07 -6.33703e-08 -7.76541e-07)
(-2.46612e-07 1.45369e-07 -8.3508e-07)
(-4.78149e-08 -5.22117e-08 -5.95197e-07)
(-3.41464e-08 -3.82038e-10 -9.95304e-07)
(-1.14058e-08 1.88551e-08 -6.50925e-07)
(6.82958e-08 -1.5333e-07 -9.93542e-07)
(1.46371e-07 5.06293e-08 -9.21654e-07)
(5.87373e-08 -6.95135e-08 -7.52679e-07)
(1.16641e-07 -3.15279e-12 -1.0359e-06)
(5.87348e-08 6.95122e-08 -7.52655e-07)
(1.4638e-07 -5.06371e-08 -9.21663e-07)
(6.82863e-08 1.53321e-07 -9.93523e-07)
(1.22859e-07 6.33726e-08 -7.76546e-07)
(-2.46608e-07 -1.45365e-07 -8.35088e-07)
(1.42512e-07 1.39605e-07 -8.15374e-07)
(1.18185e-07 7.64479e-08 -9.19316e-07)
(1.64449e-07 4.40774e-08 -7.63684e-07)
(6.4245e-08 1.63109e-07 -1.13282e-06)
(-1.1805e-07 5.70041e-08 -7.54312e-07)
(1.45175e-07 2.7508e-08 -7.43418e-07)
(-2.28087e-07 -1.14382e-07 -7.23724e-07)
(2.2899e-07 -1.1081e-07 -7.27247e-07)
(-1.70663e-07 -1.33253e-07 -6.95429e-07)
(-2.05572e-08 1.3735e-07 -8.03907e-07)
(-1.44188e-07 2.55619e-08 -7.42858e-07)
(1.16129e-07 5.95939e-08 -7.57053e-07)
(-6.54164e-08 1.59885e-07 -1.12815e-06)
(-1.60225e-07 4.14108e-08 -7.54219e-07)
(-1.10314e-07 7.65789e-08 -9.04646e-07)
(-1.00289e-07 6.91532e-08 -7.48435e-07)
(-6.35946e-08 1.42774e-07 -9.81516e-07)
(7.15249e-09 -6.38e-08 -6.89253e-07)
(-2.91796e-08 4.20074e-09 -6.66356e-07)
(-1.69482e-07 6.58242e-09 -7.81415e-07)
(1.39801e-07 -1.45364e-07 -6.77684e-07)
(1.39719e-07 1.45381e-07 -6.77708e-07)
(-2.91553e-08 -4.22308e-09 -6.66335e-07)
(7.13125e-09 6.38095e-08 -6.89249e-07)
(6.77297e-08 -3.85416e-08 -7.65002e-07)
(-7.02191e-08 -4.02508e-08 -8.13751e-07)
(-8.07219e-08 -3.65101e-10 -1.02336e-06)
(-7.00584e-08 4.01148e-08 -8.13374e-07)
(3.88829e-08 7.03312e-11 -9.46303e-07)
(5.04274e-08 8.06833e-11 -9.06955e-07)
(-1.40401e-07 -7.92957e-08 -6.48908e-07)
(-1.46101e-07 7.81663e-08 -6.52165e-07)
(-1.21968e-07 1.71651e-10 -6.18948e-07)
(-1.54142e-07 6.22548e-09 -8.7417e-07)
(-1.51283e-07 4.16067e-08 -8.49931e-07)
(-1.5688e-07 -4.61928e-08 -5.49281e-07)
(-1.2079e-07 1.87437e-07 -7.37217e-07)
(-2.14655e-07 4.36557e-08 -6.94301e-07)
(-1.95827e-07 1.75429e-07 -6.29031e-07)
(-8.24513e-08 2.07361e-07 -6.92911e-07)
(-9.40226e-08 2.19997e-07 -6.54684e-07)
(-6.82788e-08 1.74341e-07 -6.77998e-07)
(3.60845e-10 1.75531e-07 -6.99181e-07)
(1.65022e-10 2.01287e-07 -6.7115e-07)
(-5.64533e-10 1.7537e-07 -6.99668e-07)
(6.58818e-08 1.77517e-07 -6.78466e-07)
(9.3652e-08 2.25061e-07 -6.52109e-07)
(8.42089e-08 2.09448e-07 -6.90399e-07)
(2.00123e-07 1.83436e-07 -6.29061e-07)
(2.47934e-07 5.93759e-08 -7.20918e-07)
(-5.67911e-08 -1.36078e-08 -1.06813e-06)
(1.51706e-07 3.44639e-08 -8.92087e-07)
(-3.85563e-07 -2.47736e-07 -1.13576e-06)
(4.31558e-07 3.21965e-07 -1.36617e-06)
(-5.05433e-07 -3.48686e-07 -1.61682e-06)
(6.02995e-07 4.37157e-07 -1.9111e-06)
(-7.04592e-07 -5.03441e-07 -2.27571e-06)
(8.44138e-07 6.01992e-07 -2.68379e-06)
(-9.79752e-07 -7.14705e-07 -3.1635e-06)
(1.16013e-06 8.15884e-07 -3.69519e-06)
(-1.33315e-06 -9.87142e-07 -4.28937e-06)
(1.55613e-06 1.07455e-06 -4.94741e-06)
(-1.76259e-06 -1.32626e-06 -5.64422e-06)
(2.04241e-06 1.37044e-06 -6.41213e-06)
(-2.25983e-06 -1.74467e-06 -7.20143e-06)
(2.68656e-06 1.69491e-06 -7.82184e-06)
(-2.6886e-06 1.65559e-06 -7.57588e-06)
(2.85732e-06 1.38721e-06 -7.43774e-06)
(-2.95065e-06 1.31701e-06 -7.50768e-06)
(2.5904e-06 1.84716e-06 -7.53205e-06)
(-2.15644e-06 2.12057e-06 -7.37189e-06)
(-4.5725e-08 2.455e-08 -5.98215e-06)
(-1.82396e-06 -2.60929e-06 -7.55449e-06)
(5.39608e-07 1.71917e-06 -7.39794e-06)
(-4.13309e-06 1.20597e-06 -5.85312e-06)
(5.47363e-07 -5.5477e-07 -7.32052e-06)
(-1.24408e-06 4.12414e-06 -5.84157e-06)
(4.88925e-07 -5.01179e-07 -9.54473e-06)
(-6.03528e-08 4.49465e-08 -5.63385e-06)
(-3.72526e-08 2.66615e-08 -4.42804e-06)
(-7.08392e-09 4.28636e-10 -3.39116e-06)
(6.42287e-09 -1.09284e-08 -2.5198e-06)
(1.09563e-08 -1.46684e-08 -1.82334e-06)
(1.17835e-08 -1.5801e-08 -1.29951e-06)
(1.01392e-08 -1.36964e-08 -9.39976e-07)
(-2.8343e-08 5.13014e-08 -9.65973e-07)
(2.53514e-08 -2.69353e-08 -8.42081e-07)
(7.83709e-10 1.87586e-09 -5.68116e-07)
(-6.15451e-08 -6.04331e-08 -6.12709e-07)
(-3.81667e-09 2.12299e-08 -9.63474e-07)
(8.66217e-08 -7.79605e-08 -6.29407e-07)
(8.66223e-08 7.79662e-08 -6.29406e-07)
(-6.15573e-08 6.0439e-08 -6.12713e-07)
(7.78161e-10 -1.882e-09 -5.68113e-07)
(-3.80953e-09 -2.12287e-08 -9.63478e-07)
(2.85987e-08 -2.34232e-08 -5.86919e-07)
(2.29001e-07 1.10821e-07 -7.27233e-07)
(-2.28097e-07 1.1438e-07 -7.23719e-07)
(1.57259e-08 -1.38881e-07 -8.02587e-07)
(1.75891e-07 1.30165e-07 -7.00815e-07)
(-1.6825e-08 3.138e-08 -8.44236e-07)
(6.19058e-09 -3.97923e-09 -5.72485e-07)
(-2.61288e-08 -2.09563e-08 -5.85257e-07)
(3.68946e-10 2.03241e-08 -8.59889e-07)
(2.52593e-09 -1.8965e-08 -9.60055e-07)
(2.42089e-08 -2.01991e-08 -9.62048e-07)
(1.54484e-08 -4.26709e-12 -9.72242e-07)
(2.42019e-08 2.01965e-08 -9.62038e-07)
(-1.6847e-08 -3.13993e-08 -8.44239e-07)
(-4.78128e-08 5.22191e-08 -5.9519e-07)
(-1.13338e-07 -9.91026e-08 -6.39799e-07)
(-3.41433e-08 3.88201e-10 -9.95298e-07)
(2.52865e-08 -1.09993e-07 -6.82104e-07)
(2.52768e-08 1.09988e-07 -6.82102e-07)
(-1.13338e-07 9.90945e-08 -6.39796e-07)
(-4.98807e-09 -1.28831e-11 -8.81813e-07)
(7.08165e-08 -6.89586e-08 -6.21088e-07)
(-8.4051e-08 -7.5542e-08 -6.2566e-07)
(-8.40437e-08 7.55358e-08 -6.25645e-07)
(1.429e-09 -2.02101e-08 -9.62826e-07)
(7.08172e-08 6.89438e-08 -6.21078e-07)
(-1.54858e-09 -1.01735e-08 -8.25457e-07)
(-1.55456e-08 -5.67337e-12 -7.845e-07)
(-2.0394e-08 -5.53529e-08 -7.69466e-07)
(-1.87311e-08 -2.44534e-08 -7.15054e-07)
(8.47255e-08 7.23261e-08 -8.09842e-07)
(-1.89829e-08 -1.86955e-08 -7.74763e-07)
(-6.29373e-09 4.23283e-12 -8.05952e-07)
(-1.40213e-07 2.28154e-12 -1.10147e-06)
(1.91563e-08 -6.48903e-12 -8.80587e-07)
(-5.65867e-08 -1.05637e-07 -6.47443e-07)
(8.78456e-08 7.56517e-08 -9.30759e-07)
(9.37791e-08 2.102e-07 -6.95637e-07)
(2.07434e-07 -5.08322e-08 -6.05076e-07)
(1.47261e-07 1.66931e-07 -7.36452e-07)
(-3.84528e-07 -2.23677e-07 -7.75616e-07)
(2.51185e-07 2.62668e-07 -1.11252e-06)
(-4.06657e-07 -2.82545e-07 -1.18919e-06)
(-4.06642e-07 2.82518e-07 -1.18918e-06)
(-1.02625e-08 3.64539e-08 -8.41077e-07)
(-4.10836e-07 3.26518e-07 -1.43724e-06)
(8.62855e-09 2.33085e-08 -9.82796e-07)
(4.53958e-07 -4.01909e-07 -1.68955e-06)
(-5.53039e-07 4.62371e-07 -2.01316e-06)
(6.34347e-09 1.25957e-08 -1.37739e-06)
(6.42737e-07 -5.58242e-07 -2.37264e-06)
(-7.69881e-07 6.55091e-07 -2.81546e-06)
(1.18767e-09 2.39043e-09 -1.92303e-06)
(8.96253e-07 -7.70385e-07 -3.30004e-06)
(-1.05669e-06 9.08075e-07 -3.86376e-06)
(-7.73611e-09 -1.3177e-08 -2.62699e-06)
(1.2189e-06 -1.03813e-06 -4.47949e-06)
(-1.40796e-06 1.22349e-06 -5.15688e-06)
(-2.34154e-08 -4.67333e-08 -3.4877e-06)
(1.6195e-06 -1.3562e-06 -5.90308e-06)
(-1.80541e-06 1.60247e-06 -6.67388e-06)
(-4.40875e-08 -1.28929e-07 -4.48729e-06)
(2.15506e-06 -1.71343e-06 -7.49454e-06)
(-2.17525e-06 2.03718e-06 -8.48309e-06)
(-1.18383e-07 -3.51641e-07 -5.78132e-06)
(3.2746e-06 -2.21806e-06 -8.81898e-06)
(5.30511e-07 -1.02487e-06 -6.04667e-06)
(3.79097e-06 -2.28171e-06 -7.69879e-06)
(3.79093e-06 2.28162e-06 -7.6987e-06)
(-3.47001e-07 -1.36155e-07 -8.05584e-06)
(8.27881e-07 -6.22225e-07 -8.05092e-06)
(-3.05146e-07 1.18488e-06 -7.27691e-06)
(1.20082e-06 1.05719e-06 -6.7564e-06)
(5.97277e-08 -5.50081e-11 -9.6747e-06)
(-7.66059e-07 -7.50874e-07 -6.47078e-06)
(-7.66075e-07 7.50903e-07 -6.47083e-06)
(8.30776e-07 7.83585e-07 -6.52149e-06)
(-4.19161e-08 -2.98698e-11 -9.69088e-06)
(-9.81509e-07 -9.44368e-07 -6.60637e-06)
(-9.81491e-07 9.44386e-07 -6.60638e-06)
(2.62498e-07 3.81344e-07 -6.26263e-06)
(-3.11771e-07 -8.35109e-11 -9.54019e-06)
(-1.3778e-06 -2.45765e-06 -7.94847e-06)
(-1.37776e-06 2.45751e-06 -7.94836e-06)
(4.54625e-07 -1.52864e-06 -9.04493e-06)
(1.94093e-06 -1.005e-10 -1.27665e-05)
(4.54552e-07 1.52841e-06 -9.04479e-06)
(7.33074e-07 -1.19202e-06 -9.18832e-06)
(2.11926e-06 7.57482e-07 -1.26182e-05)
(8.89609e-07 1.74484e-06 -9.15174e-06)
(1.21582e-06 1.21217e-06 -1.06331e-05)
(1.59827e-06 1.59436e-06 -9.32288e-06)
(-2.37909e-06 -2.35908e-06 -9.11279e-06)
(-1.38494e-06 1.67969e-06 -7.55627e-06)
(1.37839e-06 2.23346e-07 -8.83217e-06)
(8.88822e-07 1.42238e-07 -1.01656e-05)
(-1.24892e-09 2.36046e-08 -9.52883e-06)
(2.62465e-07 -3.81373e-07 -6.26263e-06)
(-1.57344e-07 -1.38467e-07 -5.97364e-06)
(-4.01538e-07 -3.91855e-07 -9.40111e-06)
(1.66962e-06 -1.35164e-06 -7.5875e-06)
(-1.21193e-06 7.29565e-07 -9.19161e-06)
(7.51062e-07 2.09131e-06 -1.26187e-05)
(1.74478e-06 8.87378e-07 -9.15766e-06)
(9.97363e-07 9.99378e-07 -1.01685e-05)
(-5.25649e-07 -5.11821e-07 -9.24551e-06)
(-7.08579e-07 -1.48474e-11 -9.3447e-06)
(-5.25586e-07 5.11876e-07 -9.24552e-06)
(-4.01573e-07 3.919e-07 -9.40111e-06)
(-1.38475e-06 -1.67957e-06 -7.55619e-06)
(-2.37915e-06 2.35911e-06 -9.11286e-06)
(8.89804e-07 -1.74486e-06 -9.15161e-06)
(2.11953e-06 -7.57219e-07 -1.26179e-05)
(7.33221e-07 1.192e-06 -9.18821e-06)
(1.37854e-06 -2.23456e-07 -8.83234e-06)
(8.88925e-07 -1.42327e-07 -1.01657e-05)
(9.97444e-07 -9.99176e-07 -1.01682e-05)
(1.74465e-06 -8.87458e-07 -9.15802e-06)
(7.50741e-07 -2.09114e-06 -1.26181e-05)
(-1.21197e-06 -7.29588e-07 -9.19163e-06)
(1.66955e-06 1.3516e-06 -7.58747e-06)
(2.07984e-07 -1.38748e-06 -8.82374e-06)
(1.50467e-06 -4.99144e-07 -9.10499e-06)
(-3.84778e-08 -1.93667e-06 -1.2776e-05)
(-1.57143e-06 -4.39385e-07 -9.05753e-06)
(2.44469e-06 1.27421e-06 -7.97344e-06)
(-3.92148e-08 3.03784e-07 -9.55428e-06)
(-4.36672e-07 -2.9721e-07 -6.26059e-06)
(-2.5181e-06 1.38533e-06 -7.95712e-06)
(-4.6904e-08 -2.75343e-07 -9.16876e-06)
(-2.9499e-07 -3.32345e-07 -9.26467e-06)
(1.70651e-08 1.18434e-08 -5.98044e-06)
(1.41914e-08 -1.12527e-08 -4.71594e-06)
(6.87839e-09 -2.85627e-08 -3.61857e-06)
(3.96491e-09 -3.21589e-08 -2.69201e-06)
(2.23837e-09 -3.00407e-08 -1.94968e-06)
(3.33806e-10 -2.65043e-08 -1.39008e-06)
(-1.00209e-09 -2.19692e-08 -1.00543e-06)
(-8.17309e-09 -2.59281e-08 -9.95156e-07)
(3.88039e-07 -2.34184e-07 -1.10493e-06)
(-4.19413e-07 -1.99564e-07 -1.09042e-06)
(4.23423e-07 -1.79946e-07 -1.09431e-06)
(-3.80656e-07 -2.73506e-07 -1.10058e-06)
(4.19078e-07 3.63554e-07 -1.30026e-06)
(-5.18479e-07 -3.95127e-07 -1.54298e-06)
(5.97826e-07 4.99563e-07 -1.81639e-06)
(-7.25378e-07 -5.71296e-07 -2.17308e-06)
(8.44078e-07 6.88691e-07 -2.55257e-06)
(-1.00513e-06 -8.13459e-07 -3.02393e-06)
(1.1677e-06 9.32431e-07 -3.51684e-06)
(-1.36176e-06 -1.13036e-06 -4.10664e-06)
(1.57302e-06 1.22548e-06 -4.70981e-06)
(-1.79132e-06 -1.52812e-06 -5.41663e-06)
(2.05283e-06 1.55571e-06 -6.09756e-06)
(-2.2552e-06 -1.98595e-06 -6.93719e-06)
(-3.68976e-08 3.72204e-08 -5.97716e-06)
(1.89897e-06 -1.88947e-06 -6.66563e-06)
(1.92445e-06 2.24555e-06 -6.91504e-06)
(1.38572e-06 -2.47994e-06 -6.78727e-06)
(-1.10187e-06 2.31184e-06 -6.08766e-06)
(2.47144e-08 -6.36277e-11 -4.82348e-06)
(-1.10168e-06 -2.31187e-06 -6.08774e-06)
(1.06738e-06 1.98685e-06 -5.3343e-06)
(1.47336e-06 -1.78519e-06 -5.40536e-06)
(1.46074e-06 1.44763e-06 -5.24406e-06)
(-1.22473e-06 -1.20025e-06 -4.62336e-06)
(-1.19114e-06 1.58661e-06 -4.71969e-06)
(3.82115e-08 9.24242e-09 -3.60749e-06)
(1.08882e-06 1.07591e-06 -3.9935e-06)
(5.52158e-09 4.52915e-08 -3.60208e-06)
(1.57325e-06 -1.22536e-06 -4.70994e-06)
(-2.27315e-08 -5.00358e-08 -4.13049e-06)
(-1.80158e-06 -8.10826e-07 -4.69413e-06)
(1.75718e-06 -9.27802e-07 -4.67761e-06)
(-3.75038e-09 4.47848e-08 -3.67955e-06)
(-1.52367e-06 8.50143e-07 -4.06744e-06)
(1.40927e-06 9.28979e-07 -4.0649e-06)
(-1.64922e-06 -1.03732e-06 -4.70257e-06)
(-3.9381e-09 -5.57403e-08 -4.13466e-06)
(-2.00242e-06 1.14548e-06 -5.35375e-06)
(-7.22363e-09 2.74493e-08 -4.80851e-06)
(2.28798e-06 -1.16846e-06 -6.05336e-06)
(-2.50433e-06 1.47038e-06 -6.82711e-06)
(-1.29206e-08 -6.14403e-08 -6.0637e-06)
(-2.95057e-06 -1.31699e-06 -7.50762e-06)
(-9.13583e-08 -7.49488e-09 -6.70948e-06)
(1.35823e-06 8.89624e-08 -7.11527e-06)
(-6.32883e-08 -1.08471e-06 -1.12533e-05)
(2.08016e-07 1.38737e-06 -8.82374e-06)
(-2.51807e-06 -1.38537e-06 -7.95707e-06)
(-4.36656e-07 2.97159e-07 -6.26057e-06)
(7.9712e-08 1.02408e-07 -9.28829e-06)
(-3.15964e-08 -1.13457e-08 -7.09563e-06)
(-2.86063e-08 -1.94402e-11 -6.29768e-06)
(-2.43258e-08 2.46831e-08 -5.90352e-06)
(-1.51619e-08 5.90791e-10 -4.66646e-06)
(-7.72284e-09 -1.80568e-08 -3.58008e-06)
(-3.53203e-09 -2.38176e-08 -2.66266e-06)
(-1.41394e-09 -2.36386e-08 -1.92764e-06)
(-4.0379e-10 -2.16149e-08 -1.37401e-06)
(2.56647e-10 -1.79777e-08 -9.93306e-07)
(2.52807e-09 1.89575e-08 -9.60046e-07)
(3.55925e-10 -2.03278e-08 -8.59893e-07)
(-2.61321e-08 2.09634e-08 -5.85267e-07)
(1.41407e-09 2.02022e-08 -9.62818e-07)
(6.19155e-09 3.9961e-09 -5.72481e-07)
(1.7589e-07 -1.30167e-07 -7.00823e-07)
(1.57174e-08 1.38876e-07 -8.02579e-07)
(-7.07664e-09 -9.43998e-08 -1.12698e-06)
(-2.04622e-07 6.69928e-08 -8.44694e-07)
(1.80338e-07 3.81773e-08 -8.3963e-07)
(-1.80175e-07 3.12823e-08 -8.34952e-07)
(1.97912e-07 8.3567e-08 -8.52488e-07)
(-8.06705e-08 5.90452e-08 -8.02436e-07)
(3.83778e-07 -1.63557e-08 -6.30892e-07)
(-1.03256e-07 -2.2347e-07 -8.94167e-07)
(2.59359e-07 3.72508e-07 -1.09854e-06)
(1.89098e-08 4.59067e-10 -9.89372e-07)
(-3.43686e-07 -4.23723e-07 -1.32186e-06)
(-3.46048e-07 3.43158e-07 -1.24783e-06)
(3.17113e-07 -2.8819e-07 -1.07207e-06)
(1.06098e-08 -2.52405e-08 -9.79192e-07)
(-5.87541e-09 1.25832e-08 -1.05477e-06)
(-4.17757e-08 1.12346e-07 -8.9531e-07)
(1.12386e-09 1.14199e-07 -8.98767e-07)
(4.7436e-08 1.13303e-07 -8.9528e-07)
(9.41418e-08 7.08319e-08 -8.80441e-07)
(1.20303e-07 7.95419e-08 -8.3908e-07)
(-1.68756e-09 3.69363e-09 -1.0597e-06)
(1.71243e-08 3.0468e-08 -1.07661e-06)
(4.75594e-08 3.54379e-08 -9.18024e-07)
(4.86471e-09 1.31609e-08 -1.05821e-06)
(-9.55577e-09 -2.42651e-08 -1.46503e-06)
(-5.8694e-09 1.82899e-09 -1.4935e-06)
(-1.57302e-08 -9.6922e-09 -1.46292e-06)
(-2.65753e-08 -2.00315e-08 -2.04973e-06)
(-2.23542e-08 -1.86991e-08 -2.10564e-06)
(1.2296e-08 1.26194e-08 -1.77588e-06)
(1.58355e-08 1.7085e-08 -1.25873e-06)
(6.06125e-09 1.92639e-08 -1.22548e-06)
(-4.37008e-07 3.14184e-07 -1.28699e-06)
(4.71274e-07 2.76325e-07 -1.29278e-06)
(-5.76884e-07 -2.91615e-07 -1.52977e-06)
(5.81821e-07 -2.54793e-07 -1.53029e-06)
(-2.3896e-09 1.6474e-08 -1.1557e-06)
(-4.77806e-07 2.49711e-07 -1.28597e-06)
(-5.06925e-11 -2.8387e-08 -1.00274e-06)
(1.62854e-10 1.84659e-08 -1.06006e-06)
(3.27582e-10 -2.14691e-08 -1.46607e-06)
(6.88606e-10 -5.54276e-08 -2.07337e-06)
(-1.65514e-08 -5.62713e-08 -2.07039e-06)
(-2.42967e-08 -9.4081e-08 -2.87513e-06)
(-4.31154e-08 -4.17707e-08 -2.92108e-06)
(-4.0696e-08 -3.26085e-08 -2.8315e-06)
(-5.92453e-08 -4.89343e-08 -3.81219e-06)
(-7.40887e-08 -7.72179e-08 -3.94596e-06)
(5.37675e-10 -8.08108e-10 -3.40433e-06)
(8.47551e-09 7.60405e-09 -2.48715e-06)
(8.82097e-09 1.67101e-08 -2.42179e-06)
(-8.85808e-07 5.7803e-07 -2.54032e-06)
(9.47732e-07 5.2578e-07 -2.53684e-06)
(-1.12348e-06 -6.11017e-07 -2.99821e-06)
(1.13123e-06 -5.28825e-07 -2.98883e-06)
(-8.51414e-09 3.22701e-08 -2.27492e-06)
(-9.66217e-07 4.58902e-07 -2.53487e-06)
(8.15712e-07 -3.69589e-07 -2.15153e-06)
(-5.40036e-09 2.44062e-08 -1.62697e-06)
(-6.84165e-07 3.3699e-07 -1.80091e-06)
(-5.13136e-10 -3.01143e-08 -1.39622e-06)
(6.72579e-07 3.82255e-07 -1.80575e-06)
(-8.0937e-07 -4.2681e-07 -2.1553e-06)
(2.03064e-09 2.57542e-08 -1.63099e-06)
(-6.26627e-07 4.22288e-07 -1.80423e-06)
(5.36379e-07 -3.32286e-07 -1.54089e-06)
(2.08168e-09 1.77281e-08 -1.15832e-06)
(3.20433e-10 3.12287e-09 -1.28605e-06)
(-1.17308e-08 -1.05423e-08 -1.2311e-06)
(-4.10794e-07 -3.26454e-07 -1.43721e-06)
(1.33707e-08 4.01578e-09 -8.26314e-07)
(3.20375e-07 2.97037e-07 -1.24942e-06)
(1.3674e-08 -4.16976e-08 -7.46991e-07)
(-3.77364e-07 -2.52307e-07 -1.02554e-06)
(-2.03418e-07 -5.27045e-08 -6.13848e-07)
(6.70983e-08 -2.15038e-08 -7.47185e-07)
(-1.84915e-08 -3.81987e-09 -8.87219e-07)
(-9.34759e-10 7.41656e-09 -9.16135e-07)
(-3.35357e-09 1.93243e-08 -8.72628e-07)
(4.92328e-09 3.95667e-08 -9.03286e-07)
(-5.95548e-09 3.82914e-08 -9.02764e-07)
(7.80418e-09 -9.67338e-08 -1.12267e-06)
(-4.44452e-08 3.70253e-08 -9.4125e-07)
(-7.55202e-08 7.02915e-08 -8.76769e-07)
(-5.10329e-08 4.40974e-08 -8.67935e-07)
(8.0225e-09 6.18078e-09 -1.07039e-06)
(-2.58763e-08 2.19263e-08 -1.05524e-06)
(-1.98568e-08 1.93356e-08 -1.27759e-06)
(-7.6087e-09 1.83704e-08 -1.22369e-06)
(1.01707e-08 -2.45648e-08 -1.45798e-06)
(1.95748e-08 -5.72827e-08 -2.06099e-06)
(3.01719e-08 -9.67268e-08 -2.86536e-06)
(9.46174e-10 -9.59655e-08 -2.88224e-06)
(9.24025e-10 -1.55577e-07 -3.89542e-06)
(-3.48065e-08 -1.47971e-07 -3.88224e-06)
(-5.43405e-08 -2.41039e-07 -5.08669e-06)
(-1.28854e-07 -1.49175e-07 -5.18033e-06)
(-8.43771e-08 -7.24585e-08 -4.98292e-06)
(-1.57049e-07 -1.43596e-07 -6.29947e-06)
(-2.884e-07 -3.47833e-07 -6.64605e-06)
(-6.17411e-08 -5.46487e-08 -5.83726e-06)
(-1.68426e-08 -1.79434e-08 -4.52862e-06)
(6.41611e-09 3.2508e-09 -4.42976e-06)
(-1.64919e-06 1.03736e-06 -4.70239e-06)
(1.75709e-06 9.27942e-07 -4.6775e-06)
(-2.0025e-06 -1.14542e-06 -5.35372e-06)
(2.00413e-06 -1.00469e-06 -5.31491e-06)
(-2.27597e-08 5.0049e-08 -4.13055e-06)
(-1.80144e-06 8.10893e-07 -4.6941e-06)
(1.53107e-06 -7.38319e-07 -4.04854e-06)
(-1.33271e-08 4.0422e-08 -3.11056e-06)
(-1.33632e-06 6.17271e-07 -3.49742e-06)
(-1.89521e-09 -4.20287e-08 -2.72834e-06)
(1.30771e-06 7.09173e-07 -3.49398e-06)
(-1.52365e-06 -8.50056e-07 -4.06747e-06)
(-5.48151e-10 4.39463e-08 -3.11546e-06)
(-1.22545e-06 7.83131e-07 -3.50454e-06)
(1.04277e-06 -6.71062e-07 -3.00305e-06)
(1.23817e-09 3.44023e-08 -2.27978e-06)
(5.2891e-10 5.94718e-09 -2.5195e-06)
(8.45876e-10 4.55563e-09 -1.80641e-06)
(-1.30104e-08 -1.42406e-08 -1.72485e-06)
(-5.53026e-07 -4.62305e-07 -2.01315e-06)
(7.32038e-09 2.26465e-09 -1.1552e-06)
(4.53959e-07 4.01931e-07 -1.68951e-06)
(8.66771e-09 -2.33075e-08 -9.82795e-07)
(3.2022e-08 -6.90581e-09 -9.99002e-07)
(-5.26271e-07 -4.00992e-07 -1.64512e-06)
(5.85941e-07 4.95761e-07 -1.95217e-06)
(-7.27666e-07 -5.68512e-07 -2.30562e-06)
(-7.27678e-07 5.68489e-07 -2.30555e-06)
(-1.73425e-09 1.20116e-08 -1.62043e-06)
(8.33109e-07 -6.90765e-07 -2.72368e-06)
(8.56043e-09 6.99121e-09 -1.95513e-06)
(-1.00567e-06 7.94609e-07 -3.19936e-06)
(-1.37979e-09 4.46935e-09 -2.23735e-06)
(1.15102e-06 -9.44427e-07 -3.73636e-06)
(-2.11398e-09 8.48843e-09 -2.66852e-06)
(-1.3541e-06 1.08157e-06 -4.33435e-06)
(-1.37191e-10 -1.11745e-08 -3.01169e-06)
(1.54555e-06 -1.25286e-06 -4.98595e-06)
(-2.96038e-08 7.12496e-09 -3.53613e-06)
(-1.746e-06 1.4273e-06 -5.70449e-06)
(9.97509e-09 -5.56036e-08 -3.93571e-06)
(2.02938e-06 -1.60089e-06 -6.43779e-06)
(-1.19538e-07 -7.78324e-09 -4.53383e-06)
(-2.09964e-06 1.82374e-06 -7.3008e-06)
(6.363e-08 -2.07667e-07 -4.98083e-06)
(2.6818e-06 -1.91542e-06 -7.90193e-06)
(-4.54415e-07 -1.57781e-07 -5.66763e-06)
(-2.09223e-06 2.15416e-06 -9.22688e-06)
(-2.80736e-07 -8.7106e-11 -7.39986e-06)
(-2.09217e-06 -2.15423e-06 -9.22684e-06)
(5.30523e-07 1.02467e-06 -6.04667e-06)
(3.27459e-06 2.21821e-06 -8.81867e-06)
(-1.1831e-07 3.5151e-07 -5.78123e-06)
(-2.17514e-06 -2.03707e-06 -8.48315e-06)
(-9.10574e-08 -2.26561e-08 -4.96889e-06)
(2.15499e-06 1.71339e-06 -7.49443e-06)
(-4.39417e-08 1.28819e-07 -4.48722e-06)
(-1.80538e-06 -1.60236e-06 -6.67388e-06)
(-4.69845e-08 -7.2266e-09 -3.95397e-06)
(1.61958e-06 1.35641e-06 -5.903e-06)
(-2.32808e-08 4.66503e-08 -3.4877e-06)
(-1.40774e-06 -1.22332e-06 -5.15694e-06)
(-2.12712e-08 -3.41792e-09 -3.02829e-06)
(1.21896e-06 1.03829e-06 -4.47947e-06)
(-7.62791e-09 1.30602e-08 -2.62692e-06)
(-1.05664e-06 -9.08001e-07 -3.8638e-06)
(-7.87133e-09 -9.40688e-10 -2.24813e-06)
(8.96256e-07 7.70465e-07 -3.29994e-06)
(1.28793e-09 -2.44173e-09 -1.923e-06)
(-7.69863e-07 -6.55014e-07 -2.81548e-06)
(5.15451e-10 8.44047e-10 -1.62475e-06)
(6.42734e-07 5.58298e-07 -2.3726e-06)
(6.42364e-09 -1.25976e-08 -1.37738e-06)
(1.74468e-08 -5.94297e-09 -1.40068e-06)
(-2.36265e-08 -2.23946e-08 -1.77241e-06)
(-2.41938e-08 -1.61952e-08 -1.27873e-06)
(-2.25315e-08 -5.89883e-09 -9.583e-07)
(1.16582e-07 5.6485e-08 -8.24106e-07)
(1.0293e-08 -2.2159e-11 -7.94158e-07)
(-4.68869e-08 2.45972e-13 -8.58588e-07)
(-5.93024e-08 -4.57121e-11 -1.08786e-06)
(-6.48236e-08 3.49191e-12 -1.47213e-06)
(-7.57947e-08 3.27334e-11 -2.04247e-06)
(-9.13544e-08 5.39383e-11 -2.8089e-06)
(-9.99312e-08 1.16501e-10 -3.77108e-06)
(-6.99651e-08 3.93968e-10 -4.91465e-06)
(4.61933e-08 1.29771e-10 -6.1921e-06)
(1.87336e-07 -5.61486e-11 -7.32055e-06)
(-1.61488e-07 -1.65011e-10 -8.2146e-06)
(-1.33756e-06 6.33805e-07 -8.13791e-06)
(-1.33757e-06 -6.33919e-07 -8.13785e-06)
(-1.38132e-06 -8.84256e-07 -7.62326e-06)
(-1.1394e-06 -8.45939e-07 -8.81027e-06)
(-4.15076e-07 -2.5309e-07 -7.21552e-06)
(-1.49782e-07 -4.54084e-07 -6.5085e-06)
(-6.1714e-07 -1.4196e-06 -8.57956e-06)
(1.01695e-06 4.242e-06 -5.96631e-06)
(1.66654e-06 -3.96165e-07 -7.24739e-06)
(2.97767e-08 2.349e-08 -6.71507e-06)
(6.69032e-09 -1.7008e-08 -6.8955e-06)
(1.00072e-07 -2.54631e-08 -6.69299e-06)
(-4.54372e-07 1.5783e-07 -5.66754e-06)
(2.68164e-06 1.91552e-06 -7.90181e-06)
(6.3656e-08 2.0759e-07 -4.98082e-06)
(-2.09963e-06 -1.82369e-06 -7.30082e-06)
(-1.90496e-07 -3.50679e-11 -5.84901e-06)
(-5.65647e-08 -3.19927e-11 -6.01305e-06)
(-5.68191e-08 -3.58544e-11 -4.73327e-06)
(1.00903e-08 5.55811e-08 -3.93566e-06)
(-1.74597e-06 -1.42731e-06 -5.70454e-06)
(2.02935e-06 1.60089e-06 -6.43763e-06)
(-1.19531e-07 7.79601e-09 -4.53387e-06)
(3.67942e-10 -1.87091e-08 -5.55538e-06)
(-1.65554e-08 -2.20703e-08 -4.33613e-06)
(-2.96274e-08 -7.14422e-09 -3.5361e-06)
(1.54537e-06 1.25287e-06 -4.98584e-06)
(-8.32602e-11 1.11519e-08 -3.01169e-06)
(-1.354e-06 -1.08163e-06 -4.33448e-06)
(-3.41757e-08 2.37954e-12 -3.51578e-06)
(-5.07309e-08 -2.44787e-11 -3.62909e-06)
(-4.24446e-08 -3.15354e-11 -2.70066e-06)
(-3.28384e-08 -2.66244e-11 -1.95852e-06)
(-1.68598e-09 -1.20786e-08 -1.62043e-06)
(8.33119e-07 6.90746e-07 -2.72357e-06)
(-1.00565e-06 -7.94648e-07 -3.19945e-06)
(1.151e-06 9.44442e-07 -3.73625e-06)
(-2.1011e-09 -8.45311e-09 -2.66844e-06)
(-1.82374e-08 -2.11688e-08 -3.27569e-06)
(-1.58371e-08 -1.80421e-08 -2.40346e-06)
(1.86471e-09 -2.33395e-11 -2.06174e-06)
(9.96113e-10 -1.35945e-11 -1.47137e-06)
(-8.31255e-10 -2.47542e-12 -1.06922e-06)
(-1.37385e-08 -7.78122e-12 -1.02121e-06)
(-1.02435e-08 -3.64871e-08 -8.41094e-07)
(4.01397e-07 3.57865e-07 -1.41507e-06)
(2.55995e-08 -7.28217e-12 -9.95731e-07)
(4.01403e-07 -3.57904e-07 -1.4151e-06)
(3.19711e-08 6.90342e-09 -9.99022e-07)
(-5.26273e-07 4.00959e-07 -1.6451e-06)
(-3.53114e-09 1.96452e-08 -1.15822e-06)
(5.85972e-07 -4.95818e-07 -1.95225e-06)
(1.74621e-08 5.93278e-09 -1.4007e-06)
(-1.30041e-08 1.42092e-08 -1.72486e-06)
(-2.27762e-08 -1.09537e-11 -1.40082e-06)
(-3.51683e-09 -1.96959e-08 -1.1582e-06)
(9.83265e-09 -1.05943e-11 -1.35728e-06)
(-1.17129e-08 1.05194e-08 -1.2311e-06)
(-1.84794e-08 3.81115e-09 -8.87224e-07)
(-3.77376e-07 2.5232e-07 -1.02555e-06)
(1.36811e-08 4.16849e-08 -7.47007e-07)
(3.20378e-07 -2.9703e-07 -1.24945e-06)
(6.70725e-08 2.14972e-08 -7.47207e-07)
(2.51168e-07 -2.62679e-07 -1.11254e-06)
(-5.65838e-08 1.05647e-07 -6.47452e-07)
(-3.84552e-07 2.23676e-07 -7.75616e-07)
(3.14335e-08 2.22522e-12 -8.15831e-07)
(1.47257e-07 -1.6692e-07 -7.36459e-07)
(2.07417e-07 5.08334e-08 -6.05073e-07)
(9.37758e-08 -2.10235e-07 -6.9564e-07)
(2.47951e-07 -5.93806e-08 -7.2092e-07)
(8.78453e-08 -7.56461e-08 -9.30772e-07)
(3.08737e-08 -8.70349e-09 -7.44596e-07)
(-7.86701e-08 -4.81731e-08 -7.10263e-07)
(4.38192e-08 -2.47195e-08 -8.36174e-07)
(-1.89899e-08 1.86938e-08 -7.7477e-07)
(-2.03882e-08 5.53491e-08 -7.69467e-07)
(8.47231e-08 -7.23316e-08 -8.09849e-07)
(-1.87433e-08 2.4464e-08 -7.14991e-07)
(1.28967e-08 -7.50054e-08 -8.28607e-07)
(6.45002e-10 5.54149e-08 -7.77705e-07)
(7.75278e-10 -6.03793e-12 -7.98811e-07)
(6.3507e-10 -5.54128e-08 -7.77686e-07)
(2.07619e-10 -2.72429e-08 -7.15681e-07)
(7.68613e-10 1.4871e-07 -1.1263e-06)
(1.29001e-08 7.50088e-08 -8.28622e-07)
(-1.54291e-09 1.01792e-08 -8.2546e-07)
(4.38205e-08 2.47239e-08 -8.36171e-07)
(-1.14009e-08 -1.88415e-08 -6.50938e-07)
(-7.86717e-08 4.81699e-08 -7.10249e-07)
(3.0885e-08 8.7061e-09 -7.44601e-07)
(6.26793e-10 1.04568e-08 -8.2586e-07)
(2.51483e-08 -5.31181e-08 -7.64884e-07)
(2.13861e-08 -2.25055e-08 -7.11732e-07)
(-1.35825e-08 7.48133e-08 -8.30016e-07)
(-8.30029e-08 6.97332e-08 -8.078e-07)
(2.50629e-08 -1.59573e-08 -7.71193e-07)
(-4.3571e-08 1.79208e-08 -8.17542e-07)
(8.12776e-08 9.92896e-08 -6.14215e-07)
(2.48422e-07 -1.4341e-07 -8.27963e-07)
(-1.43289e-07 1.34145e-07 -8.24104e-07)
(4.93551e-08 -1.9519e-08 -1.08709e-06)
(2.27369e-08 -3.08559e-13 -7.79785e-07)
(1.26974e-08 2.09019e-13 -8.74348e-07)
(1.07746e-08 3.81118e-12 -9.53948e-07)
(1.67586e-09 -1.58473e-12 -9.62049e-07)
(-2.02283e-10 -2.50236e-12 -8.90806e-07)
(9.76671e-11 -4.56633e-12 -1.06705e-06)
(-6.70956e-10 -5.55052e-13 -1.469e-06)
(-1.68194e-09 2.9097e-12 -2.05955e-06)
(-3.93692e-09 -7.05304e-12 -2.84302e-06)
(2.09729e-09 -1.81037e-11 -2.8453e-06)
(2.67681e-09 6.13306e-12 -3.82328e-06)
(6.63946e-09 -5.26377e-13 -4.98077e-06)
(1.91358e-08 -2.34585e-11 -6.31016e-06)
(-1.51838e-07 -2.3746e-11 -8.97379e-06)
(-3.89905e-07 -3.65009e-11 -8.2481e-06)
(1.61102e-06 -1.00956e-10 -1.21931e-05)
(-3.05141e-07 -1.18499e-06 -7.27688e-06)