/*--------------------------------*- C++ -*----------------------------------*\
| =========                 |                                                 |
| \\      /  F ield         | OpenFOAM: The Open Source CFD Toolbox           |
|  \\    /   O peration     | Version:  2306                                  |
|   \\  /    A nd           | Website:  www.openfoam.com                      |
|    \\/     M anipulation  |                                                 |
\*---------------------------------------------------------------------------*/
FoamFile
{
    version     2.0;
    format      ascii;
    arch        "LSB;label=32;scalar=64";
    class       volScalarField;
    location    "2.5";
    object      gradTx;
}
// * * * * * * * * * * * * * * * * * * * * * * * * * * * * * * * * * * * * * //

dimensions      [0 -1 0 1 0 0 0];

internalField   nonuniform List<scalar> 
2658
(
0.00865185
0.0126096
0.00405284
-0.000390147
-0.0184296
-0.01559
0.0164508
0.0162315
-0.000314367
0.0221404
-0.014813
-0.0106328
0.00699026
0.00838259
0.00643365
-0.000609249
-0.000287731
-6.0462e-05
-0.00706675
-0.0091186
-0.00861175
-0.0200333
-0.0240615
0.0181662
-0.00772133
-0.00946492
-0.0203852
-0.00296618
-0.0149313
-0.0159953
-0.0149312
-0.0203854
-0.0094664
-0.0240635
-0.00772102
0.0181662
-0.0100716
0.00461711
-0.0200295
-0.00861388
-0.00911849
-0.0070654
-6.15234e-05
0.000614834
-0.0124047
0.0116085
-0.0148132
-0.000541328
-0.00061178
0.00643248
0.00838209
0.00699119
0.0189899
-0.00405514
0.0213801
0.017553
-0.00942429
0.000956669
-0.0335375
0.0177499
-0.00942403
0.0175535
0.0213767
-0.00405609
0.00467763
-0.0353275
0.00461227
-0.000254124
-0.0116726
-0.0116737
-0.000551273
0.0118414
-0.000705392
-0.0129903
0.000224306
-0.0136744
0.017547
-0.000135758
-0.0153115
0.017129
-0.020141
-0.000364832
0.0212754
-0.0192755
-0.000515467
-0.000318394
-6.03028e-05
5.52516e-05
9.36109e-05
0.000100617
8.66232e-05
-0.000242217
0.00021661
-0.00145877
0.00099258
-0.00017579
-0.00123234
6.58496e-06
0.00124079
-0.00100896
0.000549119
0.00140553
0.00121805
0.00101007
0.00105008
-0.0021078
-0.000408674
-0.000291849
-9.74857e-05
0.000583724
0.00125103
0.000502028
0.000996931
0.000502007
0.00125111
0.000583643
0.00105008
-0.00210776
0.00121805
0.00101012
0.00140555
0.000549102
-0.00100897
0.00124081
-0.00194946
0.00195718
-0.00145866
-0.000175703
-0.00123237
0.000992553
-0.000559115
-0.00136945
-0.000942856
-0.000857169
-0.000543544
6.11324e-05
-0.000249399
-0.00144856
0.00119488
0.00119418
-0.000249191
6.09508e-05
0.000578886
-0.000600163
-0.000689931
-0.00059879
0.000332333
0.000431004
-0.00120001
-0.00124872
-0.00104246
-0.00131745
-0.00129301
-0.00134086
-0.00103239
-0.00183466
-0.00167374
-0.000704712
-0.000803612
-0.000583579
3.08414e-06
1.41044e-06
-4.82507e-06
0.000563093
0.000800444
0.000719734
0.00171046
0.00211909
-0.000485394
0.00129663
-0.00329541
0.00368853
-0.00431994
0.0051538
-0.00602215
0.00721486
-0.00837395
0.0099156
-0.0113944
0.0133002
-0.0150649
0.0174565
-0.0193148
0.022962
-0.0229794
0.0244216
-0.0252192
0.0221401
-0.0184312
-0.000390812
-0.0155894
0.00461204
-0.0353256
0.00467832
-0.0106332
0.00417885
-0.000515836
-0.000318398
-6.05463e-05
5.48963e-05
9.36434e-05
0.000100713
8.66599e-05
-0.000242247
0.000216679
6.69836e-06
-0.000526027
-3.26211e-05
0.000740356
0.000740361
-0.000526131
6.65095e-06
-3.25601e-05
0.000244433
0.00195727
-0.00194955
0.000134409
0.00150334
-0.000143803
5.29109e-05
-0.000223323
3.15338e-06
2.15891e-05
0.000206914
0.000132038
0.000206854
-0.000143992
-0.000408657
-0.000968702
-0.000291823
0.000216124
0.000216041
-0.000968704
-4.26331e-05
0.000605269
-0.000718385
-0.000718322
1.22137e-05
0.000605275
-1.32357e-05
-0.000132868
-0.000174308
-0.000160095
0.00072415
-0.000162247
-5.37926e-05
-0.0011984
0.000163729
-0.000483647
0.000750817
0.00080153
0.00177294
0.00125864
-0.00328656
0.00214688
-0.0034757
-0.00347557
-8.7714e-05
-0.00351142
7.37483e-05
0.00387999
-0.00472683
5.42177e-05
0.00549348
-0.00658018
1.0151e-05
0.00766028
-0.00903152
-6.61206e-05
0.0104179
-0.0120339
-0.000200132
0.0138419
-0.0154309
-0.000376816
0.0184193
-0.0185919
-0.00101182
0.027988
0.00453428
0.0324015
0.0324012
-0.00296582
0.00707591
-0.00260808
0.0102634
0.000510493
-0.00654751
-0.00654765
0.00710065
-0.000358257
-0.00838896
-0.00838881
0.00224357
-0.00266471
-0.0117761
-0.0117758
0.00388568
0.0165892
0.00388506
0.00626559
0.0181133
0.0076035
0.0103917
0.0136605
-0.0203341
-0.0118371
0.0117811
0.00759677
-1.06746e-05
0.00224329
-0.00134482
-0.00343195
0.0142703
-0.0103584
0.00641934
0.0149127
0.00852447
-0.00449273
-0.00605623
-0.00449219
-0.00343225
-0.0118355
-0.0203346
0.00760516
0.0181156
0.00626685
0.0117824
0.00759765
0.00852516
0.0149115
0.00641659
-0.0103587
0.0142697
0.00177764
0.0128604
-0.00032887
-0.013431
0.0208948
-0.000335169
-0.00373224
-0.0215222
-0.000400889
-0.00252128
0.000145855
0.000121294
5.87897e-05
3.38882e-05
1.91313e-05
2.85304e-06
-8.56486e-06
-6.98555e-05
0.00331657
-0.00358472
0.003619
-0.00325347
0.00358186
-0.00443144
0.00510962
-0.00619981
0.00721434
-0.00859085
0.00998034
-0.011639
0.0134446
-0.0153104
0.0175455
-0.0192752
-0.000315364
0.0162305
0.0164483
0.0118438
-0.00941765
0.000211234
-0.00941605
0.00912295
0.0125928
0.0124849
-0.0104678
-0.0101807
0.000326594
0.00930618
4.7193e-05
0.0134466
-0.000194286
-0.0153981
0.0150186
-3.20545e-05
-0.0130228
0.0120451
-0.0140959
-3.3659e-05
-0.0171147
-6.17404e-05
0.0195554
-0.0214046
-0.000110432
-0.0252186
-0.00078084
0.0116088
-0.000540926
0.00177792
-0.021522
-0.0037321
0.000681299
-0.000270055
-0.000244498
-0.000207913
-0.000129589
-6.60072e-05
-3.01883e-05
-1.20849e-05
-3.4512e-06
2.19356e-06
2.16074e-05
3.04209e-06
-0.000223351
1.20861e-05
5.29192e-05
0.00150333
0.000134336
-6.04841e-05
-0.0017489
0.00154135
-0.00153996
0.00169155
-0.000689491
0.00328016
-0.000882531
0.00221674
0.000161622
-0.00293749
-0.00295768
0.00271037
9.06819e-05
-5.02172e-05
-0.000357057
9.60563e-06
0.000405436
0.00080463
0.00102823
-1.44236e-05
0.000146362
0.000406491
4.15787e-05
-8.16733e-05
-5.01658e-05
-0.000134446
-0.000227139
-0.000191062
0.000105094
0.000135346
5.18055e-05
-0.00373511
0.00402798
-0.00493063
0.00497283
-2.04239e-05
-0.00408381
-4.33269e-07
1.39192e-06
2.79984e-06
5.88552e-06
-0.000141465
-0.000207664
-0.000368508
-0.000347829
-0.00050637
-0.000633237
4.59551e-06
7.24403e-05
7.53929e-05
-0.00757101
0.00810028
-0.00960243
0.00966864
-7.27704e-05
-0.00825827
0.0069719
-4.61569e-05
-0.00584757
-4.38578e-06
0.00574853
-0.00691769
1.73559e-05
-0.00535579
0.00458444
1.77922e-05
2.73874e-06
-0.000100263
-0.00351106
0.00011428
0.00273824
0.000116872
-0.00322534
-0.00173862
0.00057349
-0.000158047
-7.98939e-06
-2.8663e-05
4.20793e-05
-5.09015e-05
6.67024e-05
-0.000379873
-0.000645472
-0.000436179
6.85684e-05
-0.000221165
-0.000169716
-6.50316e-05
8.69287e-05
0.000167306
0.000257879
8.08696e-06
7.89765e-06
-0.000297492
-0.000464449
-0.00110131
-0.000721172
-0.0013423
-0.00246496
-0.000527702
-0.000143954
5.48385e-05
-0.0140956
0.0150179
-0.0171153
0.0171293
-0.000194527
-0.0153969
0.0130861
-0.000113907
-0.0114215
-1.61983e-05
0.011177
-0.0130226
-4.68505e-06
-0.0104739
0.00891252
1.05827e-05
4.5206e-06
7.22971e-06
-0.0001112
-0.00472672
6.25673e-05
0.00388
7.4083e-05
0.000273692
-0.00449804
0.00500805
-0.00621936
-0.00621947
-1.48226e-05
0.00712059
7.3166e-05
-0.00859547
-1.17931e-05
0.00983777
-1.80682e-05
-0.0115735
-1.17257e-06
0.0132098
-0.000253024
-0.0149231
8.52572e-05
0.0173451
-0.00102169
-0.0179456
0.000543846
0.0229213
-0.00388389
-0.0178823
-0.00239946
-0.0178818
0.00453439
0.0279879
-0.0010112
-0.0185909
-0.000778268
0.0184187
-0.00037557
-0.0154306
-0.000401577
0.0138426
-0.000198981
-0.012032
-0.000181805
0.0104185
-6.51958e-05
-0.00903115
-6.72763e-05
0.00766031
1.1008e-05
-0.00658002
4.40556e-06
0.00549346
5.49029e-05
0.000149118
-0.000201936
-0.000206784
-0.000192577
0.000996431
8.79745e-05
-0.000400743
-0.000506858
-0.000554048
-0.000647818
-0.000780807
-0.000854113
-0.000597992
0.000394814
0.00160116
-0.00138024
-0.0114321
-0.0114322
-0.0118062
-0.0097385
-0.00354766
-0.00128019
-0.0052747
0.00869188
0.0142439
0.000254501
5.71822e-05
0.00085532
-0.00388353
0.02292
0.000544068
-0.0179456
-0.00162817
-0.000483459
-0.000485633
8.6242e-05
-0.0149228
0.0173449
-0.00102163
3.1448e-06
-0.000141499
-0.000253226
0.0132083
-7.11625e-07
-0.0115726
-0.0002921
-0.000433598
-0.000362774
-0.00028067
-1.44101e-05
0.00712067
-0.00859532
0.00983758
-1.79581e-05
-0.000155875
-0.00013536
1.59377e-05
8.51379e-06
-7.10475e-06
-0.000117423
-8.75517e-05
0.00343075
0.000218799
0.0034308
0.000273257
-0.00449806
-3.01806e-05
0.00500831
0.000149249
-0.000111146
-0.000194669
-3.00584e-05
8.40397e-05
-0.00010011
-0.000157943
-0.00322544
0.000116932
0.00273827
0.000573269
0.00214673
-0.000483622
-0.00328677
0.000268662
0.00125861
0.00177279
0.000801503
0.00211924
0.000750815
0.000263878
-0.000672394
0.000374523
-0.000162307
-0.000174258
0.000724129
-0.000160199
0.000110228
5.51284e-06
6.62631e-06
5.42795e-06
1.77452e-06
6.56934e-06
0.000110257
-1.31873e-05
0.000374534
-9.74436e-05
-0.000672408
0.000263975
5.35721e-06
0.000214942
0.000182787
-0.00011609
-0.000709427
0.000214212
-0.000372402
0.00069468
0.00212327
-0.00122469
0.000421838
0.000194333
0.000108525
9.20908e-05
1.43236e-05
-1.72892e-06
8.34762e-07
-5.73467e-06
-1.43756e-05
-3.36489e-05
1.79256e-05
2.28787e-05
5.67475e-05
0.000163553
-0.00129776
-0.00333252
0.0137694
-0.00260804
0.00707687
-0.0152289
-0.00701957
-0.00701961
-0.0152302
-0.00774552
1.96335e-05
-0.0137014
0.023105
0.00156154
-0.00095421
-0.0167834
-0.00157698
0.00977631
-0.00734812
-0.0159839
-0.013169
-0.0137725
-0.00928284
0.000867238
0.00193304
0.000869189
0.000229522
-0.0129363
0.000870032
-0.00774387
-0.0137012
2.12425e-05
0.00444001
0.00156169
-0.0167841
-0.000953612
0.00209526
-0.00033517
0.020895
-0.0134329
-0.000327419
0.0128625
0.00102332
-0.000580972
0.00193343
0.0015641
-0.0043742
0.00443991
0.00309445
0.000166275
-0.00153046
-0.000580416
-0.000193075
0.0010224
-0.00188087
-1.0667e-05
-0.00134472
0.000681732
-0.000270155
-0.000781276
-0.000288801
-6.69269e-05
-6.5966e-06
1.44787e-05
-0.0183482
0.0195551
-0.0214061
0.0212767
-0.000364949
-0.0201406
-6.18391e-05
-0.000268027
0.000625778
0.000389036
-0.000183616
-0.000143296
-0.000113791
-8.98876e-05
6.62368e-05
0.00643391
-8.73544e-05
-0.00012403
-0.00411259
0.000167393
-0.00410869
0.00471338
0.000220667
-0.00569104
-0.00573472
0.00480539
0.000120925
0.00675494
0.000286019
-0.00772404
-0.0078488
0.000107128
0.00930681
0.00032547
-0.0101793
-0.0104686
4.68557e-05
0.0124856
0.000223797
-0.0129893
-0.0136761
-0.00013478
0.000861672
0.00141696
0.00462416
-0.000255911
-0.000279733
-0.000152923
-0.000462741
0.00308871
0.00323347
0.00405169
0.00216493
0.00131135
0.000834571
0.000526929
0.000292943
-1.98708e-05
-0.000121415
-0.000231211
-0.00295532
0.000212002
-0.00295404
0.00341574
0.000272986
-0.00412821
-0.00412947
0.00341689
0.000149122
0.000124632
9.25083e-05
-3.14222e-05
2.38601e-05
-0.000192043
-0.000272774
0.00297833
-0.000271789
0.00175858
0.000196279
-0.00203969
-0.00204145
0.00176059
-0.000164207
0.000948202
-0.000190355
-0.000191619
0.00137257
-0.000154615
0.000949157
-0.000883637
0.00328118
-0.000688959
0.00271035
0.000161493
-0.00295685
-0.00293906
0.00221928
-0.000191885
-3.1419e-05
-8.00541e-06
-8.47999e-06
0.000114182
-0.00329548
-6.94281e-05
-0.00373521
1.81107e-05
-0.00493081
-4.13388e-06
-0.00584756
-4.6656e-05
0.00697245
-0.0062003
0.00012171
-0.00573398
-0.0056924
0.00022
0.00480534
-0.00411187
-0.00410974
0.000166782
0.00342376
0.000122022
0.00511026
-0.00443214
0.00497282
-0.00408405
-2.06545e-05
0.00358285
9.10166e-05
-0.00325419
0.00361926
-4.21548e-07
0.00402816
-0.00358499
0.00331654
-0.00174903
-2.86877e-05
0.00154139
2.66448e-05
-0.00154024
2.38678e-05
0.00169227
0.00111317
-0.000583544
3.16942e-06
6.663e-05
-5.06998e-05
4.20559e-05
0.000406327
0.00102826
0.000996544
-0.000192729
-0.000206931
-1.43112e-05
-0.000134711
-0.000203023
-0.000236071
-0.000227229
-0.000347641
-0.000287327
-0.00028537
-0.000234989
7.29784e-05
-0.000257953
-0.000261621
-0.000505487
-0.000721493
3.95523e-05
4.43398e-05
0.000473943
0.000473417
-0.0013441
-0.0118069
-0.0097483
-0.00355181
0.0229612
0.000126017
-0.0229796
0.000253784
-0.0124045
-0.000462422
-0.000400749
-0.00252108
0.000146052
0.000121422
5.92617e-05
3.40381e-05
1.92397e-05
2.99492e-06
6.23547e-05
-0.00431998
-9.01538e-05
-0.00535572
1.72221e-05
-0.00691797
-7.62554e-06
-0.00825859
-7.32037e-05
0.00966919
-0.00859148
0.000107377
-0.00784823
-0.00772567
0.000285828
0.00675417
0.00669707
-0.000308788
0.00484921
0.00033731
-0.00560819
-0.00560944
0.00485046
-0.000308687
0.00669565
-0.000126155
0.000540598
0.000306159
0.00013009
0.00052964
-0.000164108
-0.000436574
-0.00103128
-0.00134777
-0.00100521
-0.000543437
-0.000857511
-0.000943242
-0.00122429
-0.00136968
-0.000559206
-0.000803654
-0.000704708
0.000422393
-0.00167405
-0.00183533
-0.000645513
-0.000357219
9.58234e-06
0.000405297
0.000800294
0.000562936
-6.06754e-05
-4.72337e-06
1.15913e-06
-0.000911617
0.00129675
-0.00173868
-0.00048547
0.000720061
0.00171024
0.000804188
4.18361e-05
0.000146224
0.000135033
0.00368875
5.18288e-05
0.00458462
-8.1789e-05
-4.93297e-05
0.000104435
0.00515397
-0.00602279
-8.68195e-05
-0.00757225
1.01194e-05
0.00891217
-0.00960261
-1.56495e-05
-0.0114218
-0.000114482
0.0130859
-0.0116391
0.00998188
-0.000142759
7.55087e-05
-0.010475
-5.47402e-06
0.0111776
-3.01027e-05
-1.19597e-05
-3.35938e-06
2.31195e-06
2.83047e-06
7.491e-06
4.48244e-06
-0.00013519
-0.000155546
-5.77548e-06
-5.68815e-06
-1.9549e-05
-3.3927e-05
0.0157632
4.41293e-05
-1.36681e-05
-6.57618e-05
0.0196012
0.000126546
-0.000329184
-0.000207981
-0.000144251
-0.000103765
-7.33469e-05
-4.49563e-05
-0.000167423
0.00327518
0.00239743
0.00239613
0.00327695
-0.000167339
-4.49453e-05
-7.35206e-05
-0.000230956
0.00471498
-0.000121135
-0.000101298
6.89176e-05
0.000293401
0.000527134
-0.000126114
-7.38587e-05
-0.000123571
-8.97885e-05
6.66077e-05
0.00643421
-0.000142036
-0.00018966
7.15281e-05
0.00721508
-0.0083741
-8.44103e-05
0.00991577
-0.0113948
-5.97141e-05
0.0133003
-0.0150661
4.49732e-05
-0.0183491
-6.5356e-05
0.0195991
-0.0193166
-0.000778967
0.0174558
-0.000403029
-0.000527626
-0.000144946
3.70712e-06
-0.000366636
-0.00020838
-0.000299286
-0.000628355
-0.000465818
-0.00109305
-0.00127989
-0.00247002
-0.00527798
0.00869105
-0.0100716
0.00461476
-0.0137738
-0.0159838
-0.00734788
0.00977477
-0.00157905
0.000614037
0.0142427
-0.000152402
0.0244213
-0.000207894
-0.000129607
-6.62624e-05
-7.16715e-05
-0.000140068
-1.3925e-05
3.19745e-06
-0.000141512
-1.97304e-05
-0.000208014
8.24262e-05
0.000148213
-0.000144205
-0.000103574
-0.000399097
0.00930066
0.00674321
0.000362044
-0.00737895
-0.00738019
0.00674461
-0.000399211
0.00929947
-0.000106509
2.51739e-05
0.0003207
-7.49587e-05
0.000136467
0.00027032
0.000650466
-2.45536e-05
0.0125902
0.00912457
-0.000516778
-0.000106881
-0.000339963
0.00237489
-0.000154665
0.00710065
-0.000211968
5.72014e-05
0.000855414
0.00309376
0.0102641
-0.00437454
0.000165813
-0.00153128
-0.00928259
0.0231035
-0.0131685
0.000866938
-0.000193145
-0.000916382
0.00417856
0.000955941
0.00189244
0.00422382
0.000144215
-0.000705295
0.00189156
0.0126089
0.00865876
0.021965
0.0120931
0.0177505
0.0197229
-0.000253608
0.00225869
0.00136605
0.000861392
-0.000106323
0.000833893
0.00131155
-2.38164e-05
-0.000516946
0.00027168
2.5312e-05
0.000257716
0.000167389
8.72678e-05
-4.99949e-05
1.25609e-06
2.5008e-06
5.38186e-06
7.56055e-05
0.00810094
7.35273e-06
7.20051e-06
5.55182e-05
0.0157615
1.46133e-05
-0.000266907
-0.00018308
0.000388477
0.000625617
-7.65828e-06
-6.79499e-05
-0.000255178
-0.000289154
0.00141715
0.00462351
0.003088
0.000861512
0.000145294
0.00216323
0.00138761
0.00323435
0.000651218
-0.000113738
0.00721559
-6.49413e-05
-0.000169304
-0.000379201
-0.000220564
-1.95046e-05
0.000137615
0.000326105
-0.000329099
0.00138023
-0.000183149
-6.78661e-05
4.04566e-06
0.00574868
-0.000101423
0.00342378
0.000121503
0.000182758
0.000214902
5.36047e-06
-0.000372457
0.00027106
0.000214117
-0.000709543
-0.000116112
1.95804e-06
0.002123
0.000695079
-0.00144871
-0.00127689
0.00136958
-0.00015528
0.000578252
-0.00100388
7.50037e-05
0.0120449
-5.97513e-05
-0.000110959
0.00209561
-0.000211687
-0.00188104
0.000244373
0.00133715
-1.12117e-05
-0.000135424
-3.44662e-05
-0.000705405
-8.48027e-05
-3.15035e-05
-9.02982e-05
-8.31349e-06
-0.000911706
2.67042e-05
0.00111381
0.013662
0.0103932
0.00021768
-0.0012585
0.000215731
0.0189881
0.0219643
-0.000644934
-0.000436184
6.89397e-05
0.000161682
0.00271041
0.00221705
-0.00293762
-0.00295722
9.10136e-05
-0.00325345
0.00169169
0.00111377
-0.000704814
-0.000803628
-0.00058338
2.90763e-06
1.4652e-06
-4.76961e-06
0.000563016
0.000800233
0.00071975
0.00171046
0.00211916
-0.00173861
0.000750722
0.00080137
0.00177287
0.000263939
0.00125853
0.00133679
0.00125853
0.00177283
0.000801383
0.0021193
0.000750742
-0.00173853
0.00129666
-0.0004854
0.00171019
0.000719918
0.000800326
0.000563006
-4.69956e-06
-6.04535e-05
0.00154142
-0.00154024
0.0016921
6.65865e-05
3.07081e-06
-0.000583465
-0.000803877
-0.000704675
-0.00167394
0.00042222
-0.00183525
-0.000154655
0.000949084
-0.00027183
0.00297841
-0.000190426
0.000948309
-0.000155407
-0.00183482
0.000421932
-0.000689394
0.00328027
-0.000882528
-0.000192042
0.0017603
0.0017586
0.000196054
-0.0020412
-0.000167442
0.00327564
0.000167071
0.00342384
-0.0044318
0.000121691
0.00510954
-0.00584731
0.00497294
-2.06947e-05
-0.00408385
0.00358182
8.6675e-05
0.000100617
9.37724e-05
5.54856e-05
-5.99354e-05
-0.000317721
-0.000515393
0.00417819
-0.00343248
0.0142696
-0.0103571
0.00177796
0.0128623
-0.000327546
-0.013432
0.00977429
-0.00734872
-0.0159832
-0.0137726
-0.0131681
-0.0137034
0.0231028
0.00443934
0.00309385
1.91059e-05
-0.00774598
-0.0152302
-0.00702024
-0.0129343
-0.00701899
-0.0152298
-0.00774552
-0.0137045
0.0231023
-0.0137735
-0.0131687
-0.0159836
-0.00734781
0.00977473
-0.0134329
0.0208943
-0.0215214
0.014269
0.00177783
0.0128624
-0.0103585
0.00641676
0.0149104
0.0103906
0.0076047
0.0181137
0.00626598
0.00388536
0.0117805
-0.0117763
-0.0117763
0.00388507
0.0062658
0.0181137
0.0076031
0.0103889
0.0136575
0.0149112
0.00641895
0.00838389
0.00698936
-0.00405832
0.0189847
0.0213781
0.0219618
0.017554
0.0177501
0.0197208
0.0177505
-0.0335374
0.000955359
0.000956172
-0.00942558
0.017553
0.0219599
0.0213792
0.018988
0.00698905
0.00838296
0.00643274
-0.000609209
-0.00028783
-6.03727e-05
-0.00706494
-0.0091186
-0.00861248
-0.0200297
-0.0240619
0.00461567
-0.0100718
0.0229608
-0.0193158
0.0174555
-0.0150663
0.0132992
-0.011395
0.00991518
-0.00837439
0.0072151
-0.00602213
0.00515406
-0.00431997
0.00368868
-0.00329542
0.0033166
-0.00358474
0.00361905
-0.00325384
0.00271004
0.000161252
0.00221892
-0.000883538
0.00328123
-0.000689085
0.00111324
-0.000242196
8.66017e-05
0.000100741
9.35678e-05
5.49197e-05
-6.04841e-05
-0.000318289
-0.000515611
0.00417805
-0.00343229
-0.0013447
0.00224328
0.000682148
-0.00838799
-0.00838784
0.00224299
-0.00134498
0.000682005
-0.00373119
-0.0215209
0.0208945
-0.00157852
-0.0167841
0.00156053
-0.000954283
0.00209551
-0.000334508
-0.000400682
-0.00252111
-0.00129805
-0.00252123
0.00156083
0.00443952
0.0102623
0.00309409
-0.00260888
-0.00260905
0.0102622
0.000509363
-0.0065468
0.00710024
0.00710104
-0.000210837
-0.00654705
0.000165977
0.00156375
0.00193264
0.000867164
-0.00928418
0.000867069
0.000227978
0.0137687
-0.00333202
0.00453475
-0.00772154
-0.00946524
-0.0203859
-0.0149301
0.0324018
-0.0178815
0.0229199
0.0229206
0.000543343
0.0184187
-0.000376589
-0.015431
0.0138425
-0.000199642
-0.0120322
0.010418
-6.57447e-05
-0.00903069
0.00766061
1.02362e-05
-0.00658021
0.00549383
5.45701e-05
-0.00472678
0.00388008
7.36703e-05
-0.00351125
0.00273841
0.000116863
-0.00322514
-0.000483641
-0.00328662
-0.0032866
0.000263872
-0.000672399
0.000216179
-0.000968652
-4.26684e-05
0.00060519
0.000605163
-0.000718323
-1.7006e-06
0.000740293
0.000740259
-0.000526053
0.000108571
0.0011949
0.0011943
-0.000249158
0.000332387
-0.000598771
-0.000600206
-0.00100522
-0.000543374
-0.000857502
-0.000943086
-0.00136973
-0.000559244
0.000992649
-0.00145881
0.000216617
0.000695178
0.00212299
-0.00122445
-0.000709559
-0.000116152
-0.00123243
6.58535e-06
0.00124083
-0.00194935
3.09426e-06
0.000244289
0.00195711
-0.000175789
2.15704e-05
0.000206866
-8.51342e-06
2.88931e-06
1.91449e-05
3.39413e-05
5.88188e-05
0.000121296
0.000145935
0.000125426
-0.0229797
0.0244218
-0.0252183
0.0221393
-0.0192741
0.0175454
-0.0153094
0.013444
-0.0116386
0.00997995
-0.00859108
0.00721398
-0.00620027
0.00510982
-0.00443214
0.00358244
9.05401e-05
-0.00295704
-0.00293875
-0.00204009
0.00239628
0.000212089
0.00239701
-0.00295474
-0.00410897
-0.00411236
0.00480559
0.004714
0.000219799
-0.00573425
0.000121891
-0.00620012
-4.61867e-05
0.00697196
-0.00691773
-8.28812e-06
0.00810042
-0.007571
0.00643406
1.76185e-05
0.00574851
-4.08976e-06
-0.00493066
0.00402805
-3.73689e-07
0.00361914
2.39121e-05
-0.00154015
6.6822e-05
-0.000175825
0.000992651
-0.00055915
-0.00136952
-0.000942955
-0.000857224
-0.000543655
-0.00100378
0.000578395
-0.000249288
6.12168e-05
-0.00144828
0.000694725
6.6897e-06
0.000216686
0.00212329
-0.00145865
0.00195717
0.000244344
-3.26408e-05
-0.000525999
9.21299e-05
9.25517e-05
0.00012464
0.000149033
0.000148323
8.26243e-05
-0.000106422
-0.000339955
0.00237427
-0.00266525
-0.0060568
-0.004493
-0.00188149
0.00102292
-0.000193595
-0.00032747
-0.00153108
-0.0167831
-0.000953969
0.00209516
-0.000210896
5.72175e-05
0.00025488
-0.0124042
0.0116093
-0.0148134
0.00467678
-0.0353272
0.00461115
-0.0155898
-0.000389888
0.0164489
0.0162304
-0.0184315
-0.000315333
0.00141696
0.00462341
-0.000255551
-0.00527608
-0.00973906
-0.0118056
-0.00134169
-0.00247567
-0.00355095
-0.00127971
-0.000465434
-0.00109002
-0.000723023
-0.000507588
-0.000627882
-0.000144377
-0.000527621
1.48267e-05
0.0195997
-0.0214049
0.019555
-0.0201404
-0.000364675
0.0212767
-0.00011106
-0.000207918
-0.000400968
-0.000335795
-0.00373222
-1.07671e-05
-0.000580676
0.0001663
-0.00437503
1.95323e-05
0.00707608
-0.00296529
-0.0114316
-0.00137717
0.00160176
0.000394809
-0.000598967
-0.000853942
-0.000781611
-0.000648041
-0.000554527
-0.000506757
-0.000400707
8.82761e-05
0.000996501
0.000996525
0.00102816
-1.43134e-05
-0.000134972
-0.000227883
-0.000348823
-0.000365681
4.17667e-06
-0.000298642
-0.000208581
-0.000142107
-0.000188563
7.21161e-05
7.5777e-05
0.00891208
-0.0096027
0.0081004
-0.00825812
-7.29741e-05
0.00966914
-0.011421
-0.000113988
0.0130862
-0.0153971
-0.000193837
0.017128
-6.0914e-05
-0.0171143
0.0150185
-3.41337e-05
0.0157621
-0.0183491
-6.51412e-05
-1.37095e-05
-0.000129524
-6.61357e-05
-3.12276e-05
-0.0130223
0.0111766
-4.61697e-06
0.0120443
-0.0140958
-6.05326e-05
5.59853e-05
-7.34496e-06
-6.78476e-05
-0.000152359
0.0142429
0.000615323
-0.00157813
0.00868985
-0.000288855
-0.000541122
0.00308743
0.00865279
0.0126078
0.00405089
0.00324177
0.000862018
-0.000267921
0.000626074
0.000389167
7.28403e-06
7.72447e-06
5.3877e-06
2.69287e-06
-8.18961e-05
-4.74012e-05
0.000104925
6.67155e-05
0.00643415
-0.00691783
0.00574843
-0.00584751
-4.64552e-05
0.00697214
-8.32932e-06
-1.21075e-05
-3.02204e-05
-1.61409e-05
4.51532e-06
1.09251e-05
-0.00757153
-8.72695e-05
-0.000135133
0.00766004
-6.7187e-05
-0.00903216
-6.58569e-05
0.0104179
-0.000181356
-0.0120328
-0.00019966
0.0138415
-0.00040152
-0.0154305
-0.000377231
0.0184186
-0.000778998
-0.018591
-0.00101165
0.0279873
0.0181646
-0.00388409
0.000855183
0.000855341
0.027988
-0.00101129
-0.0185906
-0.00388483
-0.0178811
0.00453492
0.0324005
-0.00239862
-0.0149303
-0.0203861
-0.00946528
-0.0240629
-0.00772172
-0.00296608
0.00707601
-0.00437528
0.000867121
0.00193284
-0.00928409
0.000866909
-0.00153126
-0.000580497
-0.000916316
-0.000358339
-0.00015472
-0.000244574
0.000163544
-0.000484038
0.000543625
-0.0179449
0.017346
-0.0149232
0.0132086
0.0132082
-7.31414e-07
-0.0115732
-1.76755e-05
0.00983723
-1.13948e-05
-0.00859541
7.35886e-05
0.00712041
-1.4469e-05
-0.00622012
0.000149451
0.00500846
-3.00926e-05
-0.00449802
0.000273525
0.00343076
-8.75163e-05
-0.00347559
0.000573656
0.00214699
0.000268648
0.00214684
-0.000483674
-0.00322535
0.000116897
0.00273834
0.000114368
-0.00351119
7.39859e-05
0.00387997
6.27937e-05
-0.00472695
5.4691e-05
0.0054935
4.6566e-06
-0.00658033
1.07327e-05
7.35344e-05
0.00712053
-3.4388e-05
-0.00621957
0.00500832
-0.0044978
0.00343071
0.000218748
-0.00347553
0.000573332
-0.000157956
-0.000100157
0.000273489
-0.000207229
-0.000203101
-0.000236242
-0.000287322
-0.000260371
4.27053e-05
0.00047428
0.00047426
-0.0114318
-0.0118056
-0.00134162
4.15745e-05
-0.0179439
-0.00102273
0.0173459
8.54034e-05
-0.0149233
-0.000253323
-0.00014169
-0.000486365
8.51026e-05
-0.000704587
-0.00043376
-9.71999e-07
-0.0115727
0.00983789
-0.0085952
-1.17209e-05
-0.000362337
-0.000134237
-0.000280157
-1.46592e-05
-0.000194506
-3.02252e-05
8.44641e-05
-0.000117415
-8.76124e-05
0.000163663
-0.00119817
0.000216143
-0.000672311
0.00125104
0.000502106
0.000502026
0.00125106
0.000583653
-9.74244e-05
0.0010502
-0.00210768
-0.00014395
5.2893e-05
0.00150333
0.000134371
-0.00100893
0.000549056
0.00140557
0.00101014
0.00121814
0.000724225
-0.000160096
-0.000174322
-0.000162217
-5.38234e-05
0.000996673
-0.000162314
0.000583618
0.00105025
-9.74594e-05
-0.000408601
-0.000143812
0.00150333
5.28568e-05
-0.000223244
3.09654e-06
-0.00194943
0.00124082
6.59399e-06
-0.00123241
-0.000116131
5.44757e-06
-0.000174194
-0.000132886
0.000374528
-0.00040868
-0.000291781
-1.31913e-05
0.000110239
5.50193e-06
1.9159e-06
6.59574e-06
-1.32345e-05
0.000374578
-0.000968639
-0.000291503
-0.000158044
-7.14169e-06
8.49953e-06
1.59653e-05
1.78699e-05
2.28622e-05
5.65508e-05
2.82029e-06
-0.00102152
2.95976e-06
0.000145907
-0.000778735
0.0229611
0.000126215
0.0196009
-6.51894e-05
0.0195558
-6.12899e-05
0.0171291
-0.000195123
-0.0153973
0.0134454
4.83241e-05
0.00930614
0.00930014
0.000325481
-0.0104689
0.0124841
0.0125913
0.000223259
-0.0136756
-0.000133016
-0.0153116
0.0175465
-0.0201417
0.0212758
-0.000364468
-0.0192749
-0.000313877
0.0162293
0.0164498
-0.000390485
-0.0184309
0.0221408
-0.0252189
-0.000110488
-0.0214055
0.0244221
-0.02298
0.0142427
0.000254146
-0.0124046
-0.000462161
0.0116094
-0.000781162
-0.0148131
-0.0106316
0.00467705
0.0046118
-0.0353281
0.0126087
0.0120921
0.0018916
-0.000254266
-0.0116748
-0.000550367
0.0118413
0.0118427
-0.000704051
-0.0129883
0.000223656
0.0125898
0.0124853
-0.013676
-0.000135446
-0.0104686
0.000326132
0.00929951
0.00930664
4.68554e-05
-0.00784887
0.000285797
0.00669549
0.00675475
0.000106944
0.000258135
0.000167801
8.73035e-05
-5.00684e-05
1.14001e-06
4.17484e-05
0.000144576
0.00013527
5.19049e-05
0.00458455
-0.00493069
0.00402835
-0.00408405
-2.04346e-05
0.00497302
-4.45515e-06
-3.45377e-06
2.27903e-06
-6.62937e-07
-8.02328e-06
-2.86742e-05
-0.00174887
-0.000911676
0.00040518
0.000804141
0.000406051
4.2232e-05
9.61564e-06
1.07935e-06
2.66012e-05
-5.0882e-05
-6.49661e-05
-8.97745e-05
-0.000113886
-0.000143281
-0.000183625
0.000272486
0.00138393
0.00216238
0.00131067
0.000656534
2.59336e-05
-0.000106471
-2.42549e-05
-0.010179
-0.00738057
0.000361513
0.00674274
0.00674408
-0.000399218
-0.00560991
0.000337838
0.004849
0.00484989
-0.000308852
-0.00569135
0.000220412
0.00471396
0.00480582
-0.00573465
0.000121173
-7.3266e-05
0.000329662
0.000833194
0.000526728
0.000137585
-0.000124087
-0.000121295
-0.00410933
0.000166903
0.00327618
0.00342395
-0.00411208
0.000121499
-0.000169558
-2.00632e-05
0.000293199
6.89695e-05
-0.000222032
-0.000379574
-0.000357272
-0.000645841
-0.000436363
-0.00103116
-0.00134776
-0.00119998
-0.00104195
-0.00124871
-0.00134074
-0.00103239
0.0013696
-0.00129281
0.000529675
0.000130181
-0.000101238
-0.000167417
-4.49201e-05
2.77048e-06
1.79381e-05
-0.00373531
-6.95582e-05
7.45225e-06
1.76705e-05
-0.00535559
-9.00005e-05
-0.000111113
0.000149575
-0.00011102
-0.000135141
-0.000155769
5.88737e-05
0.000121454
-0.00040258
0.0174561
4.42299e-05
0.0157631
-3.43664e-05
0.0150183
-3.1774e-05
0.0130865
-0.000114907
-0.0114212
0.00998105
0.000107955
0.00675435
0.00669624
0.000285445
-0.00784821
-0.00772582
-0.000399368
-0.00560849
-0.000106913
0.00136459
0.00225651
0.00422239
0.00014366
0.000143818
0.00189159
-0.000254414
-0.0155918
-0.011673
-0.000269883
5.71899e-05
-1.38072e-05
-0.000207812
-0.000129636
-0.000140213
-1.97524e-05
-0.000141631
-0.000253645
-0.000155825
-1.74706e-05
-5.6949e-06
-7.16742e-05
-3.36597e-05
-1.42294e-05
-5.71241e-06
8.36545e-07
1.43317e-05
0.000132014
0.000206928
-8.52395e-06
3.01676e-06
1.91878e-05
3.39597e-05
-6.71256e-05
0.00991469
-8.39388e-05
0.00891271
1.07477e-05
-0.00960269
-1.59847e-05
0.00966878
-7.29664e-05
-0.00825826
0.00721484
-0.008591
-0.000114171
7.52398e-05
7.21979e-05
-0.000349071
-0.000507587
-0.000721557
-0.000257899
-0.000285717
-0.000234978
-0.000201851
-0.000228248
-0.000135081
-0.000206198
-0.000192543
-1.3985e-05
0.00102832
0.000804995
0.000406516
-0.00329537
-6.96567e-05
0.00331635
-2.87858e-05
0.0015413
2.66353e-05
2.16094e-05
2.25848e-06
-3.43413e-06
-1.20741e-05
-3.02638e-05
-6.59706e-05
-1.95257e-05
-5.72875e-06
-5.50094e-06
-0.0104736
0.0111765
-0.013023
0.0120454
-0.0113949
-6.0183e-05
0.0132993
-0.000182134
-0.0150661
-0.000143368
-0.000527056
-0.0193157
-0.00355001
-0.0100718
0.00869111
-0.0086137
-0.0200281
0.00461595
-0.009737
-0.00527563
-0.00911854
-0.00706645
0.000613978
-6.15513e-05
-0.000278911
-0.000610392
-0.000540712
0.00643442
0.00462295
-0.000254956
-0.000152313
-0.00128097
-0.00247363
-0.000464744
-0.00109368
-0.000297842
-0.00062994
4.9181e-06
7.49711e-05
5.49437e-05
-0.0140952
-0.0171151
1.44342e-05
-0.0183487
-6.75865e-05
-6.51901e-06
7.57029e-06
8.16452e-06
-0.000207728
-0.000367344
-0.00014151
-8.70972e-05
-0.0060222
0.00515381
-9.02266e-05
0.00458424
1.79622e-05
-0.00373518
0.00368872
0.000114153
-0.00432004
6.25252e-05
0.000135143
0.00010511
-0.000189871