/*--------------------------------*- C++ -*----------------------------------*\
| =========                 |                                                 |
| \\      /  F ield         | OpenFOAM: The Open Source CFD Toolbox           |
|  \\    /   O peration     | Version:  2306                                  |
|   \\  /    A nd           | Website:  www.openfoam.com                      |
|    \\/     M anipulation  |                                                 |
\*---------------------------------------------------------------------------*/
FoamFile
{
    version     2.0;
    format      ascii;
    arch        "LSB;label=32;scalar=64";
    class       volScalarField;
    location    "2.5";
    object      gradTz;
}
// * * * * * * * * * * * * * * * * * * * * * * * * * * * * * * * * * * * * * //

dimensions      [0 -1 0 1 0 0 0];

internalField   nonuniform List<scalar> 
2658
(
-0.0761747
-0.0737752
-0.0561462
-0.0511305
-0.0630082
-0.0645673
-0.0591039
-0.0569712
-0.0510872
-0.064376
-0.0633985
-0.0499278
-0.0664377
-0.0620291
-0.0643237
-0.0661559
-0.0634104
-0.0660062
-0.0642697
-0.0612214
-0.0653567
-0.0588657
-0.067372
-0.0518328
-0.0809997
-0.0652148
-0.0581918
-0.0688544
-0.0701734
-0.0575239
-0.0701731
-0.0581923
-0.0652144
-0.0673719
-0.0809998
-0.0518325
-0.067053
-0.0930923
-0.0588644
-0.0653585
-0.0612237
-0.0642703
-0.0660039
-0.09628
-0.0615018
-0.0608141
-0.0633994
-0.0961825
-0.0661564
-0.0643231
-0.0620268
-0.0664385
-0.0594639
-0.0964026
-0.0664979
-0.0644162
-0.0961884
-0.0610951
-0.0521902
-0.066071
-0.0961904
-0.0644177
-0.0664951
-0.0964017
-0.0625684
-0.050027
-0.0632321
-0.057291
-0.0638909
-0.0638893
-0.051948
-0.0580092
-0.0452288
-0.0522584
-0.0403751
-0.0516712
-0.0521179
-0.0403225
-0.0462953
-0.0454271
-0.0521139
-0.0452139
-0.0577229
-0.0592917
-0.0481524
-0.0378467
-0.0289844
-0.021537
-0.0155842
-0.0111071
-0.00803408
-0.00825614
-0.00719728
-0.00594408
-0.00647038
-0.00687095
-0.00634933
-0.00962678
-0.00635406
-0.00644715
-0.00968255
-0.00652716
-0.00696901
-0.00785738
-0.00663711
-0.00713744
-0.00508716
-0.00850687
-0.00556347
-0.00849181
-0.00787739
-0.00643316
-0.00885386
-0.00643295
-0.00787746
-0.00849165
-0.00663715
-0.0071375
-0.00696901
-0.0078574
-0.00652722
-0.00968223
-0.00644711
-0.006354
-0.00618568
-0.00621579
-0.00594384
-0.006871
-0.00634921
-0.00647054
-0.00964233
-0.00644632
-0.00773202
-0.00639688
-0.00838902
-0.00589105
-0.00569535
-0.00667876
-0.00579217
-0.00579238
-0.00569517
-0.00589102
-0.00653848
-0.00695514
-0.00874671
-0.00695191
-0.00808806
-0.00775175
-0.00554622
-0.00557406
-0.00529015
-0.00747154
-0.00726437
-0.00469471
-0.006301
-0.00593419
-0.00537633
-0.00592232
-0.00559559
-0.00579486
-0.0059759
-0.00573632
-0.00598007
-0.00579885
-0.00557358
-0.00590084
-0.00537659
-0.00616169
-0.00912936
-0.00762468
-0.00970734
-0.0116767
-0.013819
-0.0163342
-0.0194505
-0.0229384
-0.0270384
-0.0315829
-0.0366613
-0.0422855
-0.0482412
-0.0548046
-0.0615507
-0.0668534
-0.0647511
-0.0635704
-0.0641682
-0.0643765
-0.0630076
-0.0511295
-0.0645683
-0.0632303
-0.0500267
-0.0625686
-0.049928
-0.0815789
-0.0481525
-0.0378465
-0.0289843
-0.0215368
-0.0155841
-0.0111069
-0.00803398
-0.00825618
-0.00719727
-0.00485569
-0.00523683
-0.00823482
-0.00537955
-0.00537954
-0.00523687
-0.00485567
-0.00823486
-0.0050164
-0.00621566
-0.00618564
-0.00685972
-0.00598987
-0.0072157
-0.00489303
-0.0050022
-0.00734948
-0.0082056
-0.00822263
-0.00830976
-0.00822255
-0.00721572
-0.00508709
-0.00546837
-0.00850682
-0.00582995
-0.00582993
-0.00546834
-0.00753687
-0.00530844
-0.00534752
-0.0053474
-0.00822928
-0.00530836
-0.00705519
-0.00670513
-0.00657663
-0.00611157
-0.00692173
-0.00662191
-0.00688848
-0.00941426
-0.00752639
-0.0055337
-0.00795521
-0.00594561
-0.00517159
-0.00629446
-0.0066292
-0.00950873
-0.0101641
-0.0101639
-0.00718869
-0.0122841
-0.00839996
-0.0144406
-0.0172065
-0.0117726
-0.020279
-0.0240638
-0.0164362
-0.0282055
-0.0330236
-0.0224529
-0.0382862
-0.0440759
-0.0298094
-0.0504537
-0.0570417
-0.0383529
-0.0640559
-0.072505
-0.049413
-0.0753759
-0.0516809
-0.0658017
-0.0658009
-0.0688534
-0.0688113
-0.0621958
-0.057747
-0.0826897
-0.0553058
-0.0553063
-0.0557392
-0.0828281
-0.0564647
-0.0564648
-0.0535267
-0.0815401
-0.0679356
-0.0679347
-0.0773071
-0.109115
-0.0773059
-0.0785326
-0.107848
-0.07822
-0.0908808
-0.0796827
-0.0778871
-0.0645835
-0.0754887
-0.0868859
-0.081443
-0.0535267
-0.0510568
-0.0803513
-0.0648504
-0.0785607
-0.107852
-0.0782706
-0.0869102
-0.0790215
-0.0798692
-0.0790215
-0.0803514
-0.0645828
-0.0778877
-0.0782189
-0.107845
-0.0785317
-0.07549
-0.0868863
-0.0869078
-0.0782736
-0.107847
-0.0785609
-0.0648502
-0.0754165
-0.0778204
-0.109197
-0.0774148
-0.0681491
-0.0816605
-0.0535093
-0.0680095
-0.0783655
-0.0791852
-0.0511149
-0.0403072
-0.030928
-0.0230086
-0.0166639
-0.011881
-0.00859338
-0.0085056
-0.00944389
-0.00931981
-0.00935308
-0.0094067
-0.0111133
-0.0131879
-0.0155247
-0.0185733
-0.0218168
-0.0258456
-0.0300584
-0.0350995
-0.0402548
-0.046296
-0.0521159
-0.0592923
-0.0510869
-0.0569712
-0.0591029
-0.0580109
-0.0520313
-0.0412264
-0.052032
-0.0455923
-0.0461997
-0.0448211
-0.0395159
-0.0403392
-0.0308332
-0.0341325
-0.030787
-0.0402559
-0.0353033
-0.0401208
-0.0399796
-0.0314491
-0.0347644
-0.0347427
-0.0401929
-0.0353389
-0.0457586
-0.0410984
-0.0517381
-0.0583513
-0.0518265
-0.0641677
-0.057346
-0.0608142
-0.0961818
-0.0754166
-0.0680092
-0.0535092
-0.0793871
-0.0606464
-0.0538264
-0.0504574
-0.0398842
-0.030599
-0.0227578
-0.0164756
-0.0117437
-0.0084898
-0.00820552
-0.00734952
-0.00500228
-0.00822922
-0.004893
-0.00598994
-0.00685965
-0.00963229
-0.0072196
-0.00717632
-0.00713634
-0.00728622
-0.00685843
-0.00539224
-0.00764245
-0.00938925
-0.00845617
-0.0112979
-0.0106652
-0.009163
-0.00836916
-0.00901515
-0.00765222
-0.00768176
-0.00765197
-0.00752514
-0.00717163
-0.00905729
-0.00920182
-0.00784636
-0.00904449
-0.0125216
-0.0127649
-0.0125036
-0.017519
-0.0179969
-0.0151784
-0.0107584
-0.0104742
-0.0109999
-0.0110494
-0.013075
-0.0130794
-0.00987777
-0.0109912
-0.0085704
-0.00906037
-0.0125305
-0.0177211
-0.0176956
-0.0245738
-0.0249665
-0.0242008
-0.0325828
-0.0337262
-0.0290968
-0.0212577
-0.0206991
-0.0217122
-0.0216824
-0.0256257
-0.0255456
-0.0194438
-0.0216656
-0.0183892
-0.0139057
-0.0153924
-0.0119335
-0.0154337
-0.0184214
-0.0139401
-0.0154208
-0.01317
-0.0099002
-0.0109919
-0.0105223
-0.0122839
-0.00706251
-0.0106788
-0.00638454
-0.00876532
-0.00524656
-0.0063862
-0.00758307
-0.00783022
-0.00745836
-0.00772039
-0.00771594
-0.0095955
-0.00804487
-0.00749376
-0.00741825
-0.00914865
-0.00901916
-0.0109195
-0.0104589
-0.0124614
-0.0176153
-0.0244903
-0.0246346
-0.0332942
-0.0331815
-0.0434759
-0.0442763
-0.042589
-0.0538416
-0.0568038
-0.0498911
-0.0387061
-0.0378612
-0.0401914
-0.0399787
-0.0457583
-0.0454266
-0.0353038
-0.0401205
-0.0346029
-0.026586
-0.0298925
-0.0233191
-0.029863
-0.0347647
-0.0266278
-0.0299533
-0.0256671
-0.0194853
-0.0215342
-0.0154394
-0.0147423
-0.0172064
-0.0098735
-0.0144403
-0.00839995
-0.00853848
-0.0140608
-0.0166853
-0.0197061
-0.0197056
-0.0138498
-0.0232793
-0.0167105
-0.0273449
-0.0191227
-0.0319347
-0.0228078
-0.0370457
-0.0257409
-0.0426149
-0.0302233
-0.0487563
-0.0336385
-0.0550238
-0.0387506
-0.0624
-0.0425712
-0.0675379
-0.0484413
-0.0788622
-0.0632467
-0.0788619
-0.0516809
-0.0753732
-0.0494122
-0.0725056
-0.0424691
-0.064055
-0.0383523
-0.0570417
-0.0337946
-0.050453
-0.0298094
-0.0440764
-0.0258828
-0.0382861
-0.0224523
-0.0330239
-0.0192148
-0.0282046
-0.0164359
-0.024064
-0.0138868
-0.0202786
-0.0117724
-0.0119717
-0.0151488
-0.0109293
-0.0081906
-0.00704364
-0.00678768
-0.00733836
-0.00929795
-0.0125823
-0.017457
-0.0240077
-0.0322314
-0.0420056
-0.052924
-0.0625688
-0.0702102
-0.0695548
-0.0695542
-0.065156
-0.0753014
-0.0616711
-0.0556282
-0.0733296
-0.0509941
-0.0619435
-0.0573937
-0.0589359
-0.0572051
-0.0484405
-0.0675369
-0.0425711
-0.0624001
-0.0499915
-0.0513936
-0.0404553
-0.0336381
-0.0487567
-0.0550224
-0.038751
-0.0474819
-0.037061
-0.0302231
-0.042614
-0.025741
-0.0370468
-0.0300494
-0.0310179
-0.0230826
-0.0167395
-0.0138498
-0.0232784
-0.0273457
-0.0319338
-0.0228071
-0.0279973
-0.0205424
-0.0176217
-0.0125758
-0.00913861
-0.00872831
-0.00718884
-0.0120946
-0.00851052
-0.0120949
-0.00853865
-0.0140607
-0.00989928
-0.0166859
-0.0119718
-0.0147424
-0.0119728
-0.00989918
-0.0116007
-0.0105223
-0.00758311
-0.00876542
-0.00638468
-0.0106791
-0.00638638
-0.00950885
-0.00553378
-0.00662919
-0.00697292
-0.00629452
-0.00517156
-0.00594564
-0.00616171
-0.00795532
-0.00636407
-0.00607062
-0.00714679
-0.00662197
-0.00657664
-0.00692179
-0.00611104
-0.00708211
-0.00664705
-0.00682744
-0.00664689
-0.00611694
-0.0096265
-0.00708224
-0.00705521
-0.00714676
-0.00556357
-0.00607051
-0.00636411
-0.00705864
-0.00653747
-0.00608318
-0.00709415
-0.00690428
-0.00659139
-0.00698754
-0.0052497
-0.00707661
-0.00704363
-0.0092914
-0.00666483
-0.00747306
-0.0081534
-0.00822264
-0.00761373
-0.00912007
-0.0125556
-0.017603
-0.0242993
-0.0243188
-0.0326776
-0.0425707
-0.053933
-0.0766991
-0.0704966
-0.104214
-0.0621956
-0.0688115
-0.0935748
-0.0781383
-0.0781373
-0.0935756
-0.0994366
-0.0613055
-0.0799041
-0.0794704
-0.0809266
-0.0519873
-0.0660328
-0.0747106
-0.0791473
-0.108268
-0.0792977
-0.0919362
-0.0774196
-0.0857242
-0.0781197
-0.0805588
-0.0806983
-0.086551
-0.103459
-0.0807005
-0.0994361
-0.0799064
-0.0613042
-0.0545333
-0.0809267
-0.0660325
-0.0519871
-0.0528225
-0.0816611
-0.0681506
-0.0774145
-0.109198
-0.077822
-0.0867316
-0.0802075
-0.0805591
-0.081461
-0.0824998
-0.0545328
-0.082302
-0.0804063
-0.0861504
-0.0802091
-0.077887
-0.0867312
-0.0770185
-0.0814432
-0.0510569
-0.0793866
-0.0606467
-0.0573466
-0.060766
-0.0558148
-0.0436535
-0.0490187
-0.0522172
-0.0517368
-0.0583521
-0.0577221
-0.0452129
-0.0521134
-0.0410973
-0.0491337
-0.0435368
-0.033131
-0.0379036
-0.028386
-0.0206793
-0.0147338
-0.0147558
-0.0184946
-0.0166925
-0.0154099
-0.0150004
-0.0117122
-0.0156293
-0.0185365
-0.0164804
-0.0218816
-0.0211683
-0.0181645
-0.0164373
-0.0252066
-0.0228423
-0.0301161
-0.0293032
-0.0228018
-0.0341322
-0.0308329
-0.0403394
-0.0395155
-0.0307872
-0.0448211
-0.0403756
-0.0522595
-0.0516711
-0.0403233
-0.051361
-0.0558802
-0.0737347
-0.0734378
-0.0634103
-0.0606144
-0.0524464
-0.0642617
-0.0563964
-0.0561462
-0.0438265
-0.033378
-0.024695
-0.0178022
-0.0126496
-0.0125007
-0.0147947
-0.0139085
-0.015467
-0.0120318
-0.0154674
-0.0184228
-0.0168985
-0.0217119
-0.0217112
-0.0184235
-0.0164054
-0.0117078
-0.00850897
-0.00801912
-0.00743047
-0.00748345
-0.00735778
-0.00646062
-0.00735831
-0.00958747
-0.00872308
-0.0111019
-0.0111008
-0.0095883
-0.00803095
-0.010399
-0.00672374
-0.00672329
-0.0058747
-0.006344
-0.0103991
-0.00764274
-0.00539186
-0.00685844
-0.00916288
-0.00845644
-0.0106659
-0.0112973
-0.00938987
-0.00748349
-0.00801915
-0.00783024
-0.00859348
-0.00706262
-0.00970745
-0.00850569
-0.0110001
-0.00990025
-0.0130749
-0.0119339
-0.0153927
-0.0139059
-0.0183893
-0.0185733
-0.0164383
-0.0211694
-0.0218811
-0.0164811
-0.0181645
-0.0150009
-0.015629
-0.0117128
-0.012953
-0.0116592
-0.0155249
-0.0131878
-0.013079
-0.0109914
-0.00987803
-0.0111137
-0.00836959
-0.00940675
-0.00935293
-0.00857026
-0.0110493
-0.00931989
-0.00944388
-0.00721961
-0.00745841
-0.00717627
-0.00521256
-0.00713654
-0.00743038
-0.00728609
-0.00488594
-0.00579492
-0.00597598
-0.00959579
-0.00771605
-0.00772039
-0.00784651
-0.00717169
-0.00704376
-0.00819067
-0.0109294
-0.00905708
-0.0125041
-0.015149
-0.0210312
-0.0175197
-0.0242018
-0.0286257
-0.0286256
-0.0210309
-0.0167101
-0.0378678
-0.037868
-0.0325835
-0.0425892
-0.0484878
-0.0484865
-0.0590469
-0.0590477
-0.0538413
-0.0651566
-0.0753093
-0.0616703
-0.0668547
-0.0514863
-0.0647505
-0.057393
-0.0615012
-0.052446
-0.0783651
-0.0791846
-0.0511149
-0.0403073
-0.0309281
-0.0230088
-0.0166641
-0.011881
-0.00987357
-0.013819
-0.0118494
-0.0154208
-0.0139405
-0.0184217
-0.016822
-0.021666
-0.0194435
-0.0255461
-0.0258453
-0.0228023
-0.0293037
-0.0301156
-0.0228426
-0.0252062
-0.0258118
-0.019447
-0.0255908
-0.0233949
-0.0299182
-0.0299181
-0.025591
-0.0194475
-0.0258109
-0.0207125
-0.0179212
-0.0127733
-0.00933125
-0.00749168
-0.00803158
-0.00741682
-0.00629693
-0.00469873
-0.00768108
-0.00838824
-0.00639793
-0.00773252
-0.0070432
-0.00644667
-0.00964234
-0.00559538
-0.0059222
-0.00929084
-0.00537618
-0.00593406
-0.00749289
-0.00765199
-0.00768144
-0.00765183
-0.00557352
-0.00579892
-0.00963219
-0.00598014
-0.00573671
-0.00501722
-0.00762472
-0.00524669
-0.00912941
-0.00590097
-0.0053764
-0.00752449
-0.00904447
-0.00920179
-0.0107587
-0.011677
-0.0104745
-0.0131701
-0.0125218
-0.0127658
-0.0151785
-0.0163348
-0.0194503
-0.0166923
-0.0217127
-0.019485
-0.0256672
-0.0256259
-0.0233202
-0.0298931
-0.0265857
-0.0346037
-0.0350992
-0.0300599
-0.0283861
-0.0283892
-0.029954
-0.0266276
-0.0298637
-0.0227578
-0.0164759
-0.0117438
-0.00848984
-0.010992
-0.0154394
-0.0215342
-0.0205425
-0.0279975
-0.0293616
-0.0293616
-0.0388627
-0.0353375
-0.0455895
-0.0407459
-0.0496891
-0.045229
-0.0579537
-0.0514867
-0.0511163
-0.0399744
-0.0301797
-0.0221193
-0.0158497
-0.0112766
-0.00989228
-0.0131383
-0.0131372
-0.0131365
-0.0131393
-0.00989212
-0.0112766
-0.0158498
-0.0139083
-0.0185371
-0.0147952
-0.0105809
-0.00914854
-0.0126496
-0.0178027
-0.0207127
-0.0216265
-0.0154102
-0.0147342
-0.0147561
-0.0184948
-0.0176957
-0.0179975
-0.0212582
-0.0229392
-0.0270384
-0.0231278
-0.0315835
-0.0366613
-0.0311795
-0.0422865
-0.0482416
-0.0407467
-0.052219
-0.0452296
-0.0579535
-0.0615507
-0.0424688
-0.0548055
-0.0337947
-0.0498921
-0.0387064
-0.0290971
-0.0249681
-0.0245743
-0.0331826
-0.033729
-0.0434778
-0.04428
-0.0556302
-0.0568017
-0.0733326
-0.0509936
-0.0670523
-0.0930921
-0.0774208
-0.0792961
-0.108265
-0.0791473
-0.0747106
-0.0962795
-0.0619441
-0.0606148
-0.0635715
-0.0504575
-0.0398845
-0.0305991
-0.0326531
-0.0425233
-0.0496893
-0.0474819
-0.0370611
-0.0388629
-0.0399746
-0.0304644
-0.022655
-0.0301798
-0.0221194
-0.026595
-0.0350505
-0.0346866
-0.0315433
-0.0401185
-0.040118
-0.0346864
-0.0265949
-0.0350495
-0.0284133
-0.0296838
-0.0245425
-0.0216263
-0.0176547
-0.0396366
-0.0332352
-0.0379382
-0.0461991
-0.0455925
-0.0353219
-0.0397183
-0.050264
-0.0782115
-0.0755881
-0.0557393
-0.0786998
-0.0589357
-0.0572051
-0.0823028
-0.0577473
-0.0824988
-0.0804066
-0.0861499
-0.0857242
-0.0794724
-0.0919364
-0.0781189
-0.0778901
-0.081866
-0.0815785
-0.0610953
-0.0607455
-0.0561312
-0.0491652
-0.0452291
-0.0607446
-0.0737742
-0.0761784
-0.0619663
-0.0735632
-0.0660707
-0.0634703
-0.0572903
-0.043949
-0.0335283
-0.0248312
-0.0284134
-0.0246955
-0.0333775
-0.0379383
-0.035322
-0.039637
-0.0296843
-0.0244906
-0.0176159
-0.0124616
-0.00901526
-0.00906015
-0.0125305
-0.0177212
-0.0206998
-0.0216831
-0.0246349
-0.0332948
-0.0378621
-0.0455892
-0.0490192
-0.049133
-0.0379046
-0.0331314
-0.0435373
-0.0436549
-0.0558167
-0.0734401
-0.0607651
-0.0558818
-0.0737348
-0.064263
-0.0513609
-0.0491657
-0.0438269
-0.0437586
-0.0563969
-0.0332376
-0.0206796
-0.0218177
-0.0104593
-0.0109198
-0.0080447
-0.00901984
-0.0125014
-0.0176555
-0.0245464
-0.0511164
-0.0437538
-0.0258829
-0.0192148
-0.0138871
-0.015434
-0.0105808
-0.0129529
-0.0116588
-0.00608324
-0.00653755
-0.00705859
-0.0069877
-0.00671018
-0.00659195
-0.00690453
-0.00709418
-0.00611654
-0.00707659
-0.00524928
-0.0066788
-0.00727489
-0.00587453
-0.00634415
-0.00654091
-0.00767778
-0.0283885
-0.0347427
-0.0311794
-0.0518246
-0.0528225
-0.0786998
-0.0770159
-0.00501639
-0.0050597
-0.019123
-0.0223253
-0.016184
-0.0393037
-0.0231271
-0.031449
-0.0118492
-0.0168212
-0.00501723
-0.0052125
-0.00488555
-0.0796826
-0.0908797
-0.0769621
-0.0776557
-0.0769646
-0.0594623
-0.0619676
0.00749367
0.00741818
0.0091485
0.00845634
0.0091631
0.00938913
0.0112979
0.0106652
0.00836942
0.00940699
0.00728627
0.00488549
0.00592232
0.00559561
0.00579479
0.00597589
0.00573644
0.00597995
0.00579874
0.00557354
0.0059008
0.00537634
0.00616167
0.00524655
0.00795521
0.00594562
0.00517154
0.00636395
0.0062944
0.00505971
0.0062943
0.00517147
0.00594549
0.00616159
0.0079552
0.00524654
0.00762476
0.00912933
0.00537626
0.00590091
0.00557352
0.00579876
0.00598003
0.00963206
0.00717616
0.00713635
0.00728597
0.00959537
0.0059759
0.0057948
0.0055955
0.00592213
0.00537612
0.00929074
0.00593409
0.00634393
0.0103991
0.00735844
0.00646067
0.00672389
0.010399
0.00634433
0.00593414
0.00929127
0.00685844
0.00539204
0.00764256
0.00748342
0.00958835
0.0095875
0.00872321
0.0111008
0.00989206
0.0131385
0.0117129
0.0129531
0.0131878
0.011659
0.0155245
0.0153923
0.0130793
0.0098776
0.0109912
0.0111131
0.00803402
0.0111069
0.015584
0.0215367
0.0289842
0.0378465
0.0481523
0.0815773
0.0803505
0.06485
0.0785614
0.0754152
0.0778211
0.109198
0.0774143
0.079147
0.108267
0.0792965
0.0774196
0.0919363
0.079905
0.0794709
0.0545326
0.0823016
0.0613038
0.0994346
0.0935749
0.0781383
0.103456
0.0781349
0.0935745
0.0994342
0.0799063
0.0794702
0.0774203
0.0919368
0.0792964
0.108264
0.0791458
0.0774166
0.0681486
0.0680091
0.0648497
0.0754154
0.0778228
0.078562
0.107849
0.0782755
0.0908812
0.0782202
0.107846
0.0785325
0.0773086
0.0754895
0.0679355
0.0679358
0.0773081
0.0785338
0.107848
0.078222
0.0908798
0.0796823
0.0782729
0.107849
0.0620254
0.0664357
0.0964001
0.0594602
0.0664966
0.0619677
0.0644173
0.066071
0.0634721
0.066071
0.0521891
0.0610951
0.0610952
0.0961864
0.0644166
0.0619652
0.066497
0.0594622
0.066437
0.0620262
0.0643216
0.066154
0.0634096
0.0660042
0.064267
0.0612195
0.065354
0.0588634
0.0673686
0.0930887
0.0670516
0.0668538
0.0615503
0.0548057
0.0482406
0.0422866
0.036661
0.0315837
0.027038
0.0229388
0.0194502
0.0163346
0.013819
0.0116768
0.00970715
0.00944396
0.00931972
0.00935288
0.00940647
0.00916286
0.00845649
0.00938981
0.00764278
0.00539193
0.00685845
0.00488583
0.00825606
0.00803402
0.011107
0.0155841
0.0215369
0.0289843
0.0378464
0.0481522
0.0815776
0.0803514
0.0510571
0.0535264
0.0793864
0.0564652
0.0564647
0.0535263
0.0510566
0.0793861
0.053509
0.0680088
0.06815
0.0747097
0.0660325
0.0809274
0.0519873
0.0528226
0.0816615
0.0783641
0.0791837
0.0766991
0.0791838
0.0809264
0.0545324
0.0577461
0.0823017
0.0621947
0.0621948
0.057746
0.0826893
0.0553059
0.0557392
0.0557393
0.0786995
0.0553057
0.0804061
0.0814619
0.0805591
0.0781195
0.0857267
0.0806975
0.0865507
0.104211
0.0704955
0.0516802
0.0809976
0.0652112
0.0581894
0.0701709
0.065799
0.0788624
0.0675371
0.0675368
0.0425713
0.0640547
0.0383521
0.0570421
0.0504532
0.0298094
0.0440758
0.0382857
0.0224523
0.0330234
0.0282049
0.016436
0.0240636
0.020279
0.0117724
0.0172063
0.0144407
0.00839991
0.0122839
0.0106789
0.00638452
0.0087653
0.00553384
0.0066291
0.00662912
0.00636384
0.00607055
0.00583001
0.0054684
0.00753676
0.00530833
0.00530838
0.00534754
0.00761377
0.00537951
0.00537953
0.00523687
0.00747309
0.00579216
0.00579238
0.00569512
0.00808798
0.00695191
0.00695496
0.00768091
0.00838817
0.00639808
0.00773289
0.00644704
0.0096425
0.00647054
0.00594414
0.00719728
0.00524934
0.00707662
0.00704307
0.00690459
0.00709437
0.00634959
0.00962673
0.00635424
0.00618571
0.00734947
0.00501634
0.00621565
0.0068708
0.00820548
0.00822249
0.00859337
0.011881
0.0166639
0.0230087
0.0309279
0.0403071
0.0511145
0.0514867
0.0647506
0.0635708
0.0641668
0.0643755
0.0592918
0.0521159
0.0462955
0.0402548
0.0350992
0.030059
0.0258453
0.021817
0.0185733
0.0155248
0.0131877
0.0111135
0.00836952
0.0106656
0.0112972
0.0111017
0.0131365
0.012032
0.0131372
0.0154665
0.0156292
0.0150003
0.0181646
0.0185365
0.0164807
0.0211684
0.0164376
0.0185733
0.013906
0.0183892
0.0184214
0.0168213
0.0216823
0.0217119
0.0184947
0.0139397
0.0154334
0.0119336
0.0130749
0.0110493
0.00856994
0.00935302
0.00743044
0.00713636
0.00959544
0.00687095
0.00647062
0.00964244
0.00644659
0.00773194
0.0063969
0.00838892
0.00767758
0.00654052
0.00569536
0.005891
0.00667867
0.00524972
0.00485569
0.00719728
0.0070766
0.00594393
0.00621571
0.00501638
0.00823484
0.0052368
0.00815332
0.00850894
0.0117078
0.0164054
0.022655
0.0304644
0.0397182
0.0502638
0.0782101
0.0815406
0.0798687
0.0790209
0.0770174
0.0867319
0.077892
0.109199
0.0861502
0.0660325
0.051987
0.0528219
0.0786994
0.0589353
0.0573931
0.0615008
0.0608134
0.0633986
0.0625685
0.0500259
0.0632308
0.0645683
0.0511307
0.0591029
0.0569713
0.0630079
0.0510878
0.05588
0.0737331
0.0734368
0.0733311
0.0753069
0.0651548
0.0538413
0.0568046
0.0616702
0.0556304
0.0434758
0.0442776
0.0425904
0.0325831
0.0337275
0.0387072
0.0498903
0.0490184
0.057954
0.058351
0.0517371
0.0521132
0.045213
0.0577224
0.0518251
0.0504571
0.0783642
0.0816601
0.0535092
0.0814433
0.0802092
0.0804062
0.0824989
0.0613027
0.0688077
0.0688506
0.0695519
0.0702093
0.0625686
0.0529237
0.0420052
0.0322314
0.0240077
0.0174572
0.0125823
0.00929791
0.00733833
0.00678775
0.00704368
0.00704366
0.00717163
0.00905724
0.0125038
0.0175194
0.0242013
0.0249671
0.0290975
0.0331824
0.0245741
0.0176956
0.0179968
0.0212581
0.0206993
0.0256671
0.0256258
0.0216828
0.0216656
0.0194437
0.025546
0.0298924
0.0265857
0.0346034
0.0401202
0.035304
0.0454269
0.0410968
0.0457581
0.0399789
0.0353386
0.0455896
0.0522171
0.0452295
0.0496889
0.039884
0.0305989
0.0314491
0.0347649
0.0298634
0.0266282
0.0347434
0.0401917
0.0311797
0.0378617
0.0436541
0.0558153
0.0606135
0.0619427
0.0962761
0.0747088
0.0509923
0.0607649
0.096179
0.0642627
0.0761746
0.0737744
0.0561471
0.0564035
0.0513592
0.0491324
0.0435367
0.033131
0.0332943
0.0246347
0.017721
0.0125303
0.0125217
0.0127649
0.0151785
0.0147557
0.0184948
0.0184213
0.0154336
0.0153923
0.0139059
0.0183891
0.0168212
0.0164756
0.0227578
0.0233195
0.0215341
0.019485
0.0217122
0.0166924
0.0205423
0.0282051
0.0192148
0.0330236
0.0224528
0.0382867
0.0258825
0.0440759
0.0298099
0.0504541
0.0337946
0.0570413
0.0383525
0.0640556
0.042469
0.0725044
0.049412
0.0753736
0.051831
0.0484411
0.0572046
0.0572045
0.0753731
0.0494118
0.0725045
0.0484406
0.0788626
0.0516794
0.0657987
0.0632465
0.0701718
0.0581898
0.0652115
0.0673691
0.0809978
0.0688506
0.068809
0.0824988
0.0806993
0.0805606
0.0857265
0.0781162
0.0861505
0.0802078
0.0818665
0.082829
0.0755875
0.0538262
0.0539328
0.0513934
0.0425712
0.0623995
0.0550239
0.0487557
0.0426149
0.0426142
0.0257413
0.0370456
0.0228068
0.0319339
0.0191229
0.027345
0.0167101
0.0232787
0.0138497
0.0197061
0.0119719
0.0166857
0.00989952
0.014061
0.00853839
0.0120946
0.00718887
0.010164
0.00638613
0.00950885
0.00697308
0.00950881
0.00553372
0.00876539
0.00638452
0.010679
0.0070625
0.0122838
0.00840006
0.0144406
0.00987353
0.0172065
0.0117724
0.020279
0.0138868
0.0240636
0.0164361
0.0167103
0.0232785
0.016184
0.0197059
0.016686
0.0140608
0.0120946
0.00851036
0.0101639
0.00638627
0.00758299
0.0105222
0.00853857
0.0109292
0.0151491
0.0210313
0.028626
0.0378683
0.0484873
0.0590468
0.0590463
0.0695527
0.0651554
0.0538403
0.0484867
0.0623998
0.038751
0.0550235
0.033638
0.0487562
0.0302229
0.0370607
0.0404553
0.0336379
0.0393036
0.0310176
0.0257409
0.0370454
0.0319346
0.0273447
0.0191226
0.0230824
0.0223253
0.0167395
0.0138497
0.0119729
0.00989941
0.0116007
0.00872826
0.00718856
0.00752632
0.00941436
0.00583
0.00607063
0.00787749
0.00643334
0.00643306
0.00787745
0.00849193
0.0055635
0.00663735
0.00713755
0.00721574
0.00489301
0.0059899
0.00685949
0.00644744
0.00968257
0.00652746
0.00785763
0.00696908
0.00692194
0.00611143
0.00657666
0.00662203
0.0068885
0.00885399
0.00662219
0.00849202
0.00663758
0.00556357
0.00508721
0.00721568
0.00598989
0.00489303
0.00500226
0.00734947
0.00618574
0.00635425
0.00962693
0.00634961
0.00709436
0.00664702
0.00657656
0.00670506
0.00714668
0.00508714
0.00850685
0.0070552
0.00708227
0.00664685
0.00611679
0.00682739
0.00705521
0.00714671
0.00546838
0.0085069
0.00758302
0.00913858
0.0125758
0.0176216
0.0243186
0.0326774
0.0425706
0.0474818
0.0387516
0.0474818
0.0511147
0.0424691
0.066853
0.0514861
0.0579538
0.0452293
0.0517366
0.0410969
0.0454266
0.0353036
0.0401201
0.0402549
0.0307868
0.0341315
0.0350501
0.0308335
0.0395154
0.0448207
0.0461995
0.0403755
0.0516705
0.0403221
0.0462956
0.0521165
0.0521136
0.057722
0.0452135
0.0592908
0.0510886
0.0569712
0.0591037
0.0511308
0.0630081
0.0643763
0.0641671
0.0518252
0.0583517
0.0635707
0.0647505
0.0619425
0.057393
0.0615007
0.0524446
0.0608134
0.0573458
0.0633975
0.0499255
0.0625676
0.0632315
0.0500253
0.0737743
0.0735624
0.0607454
0.0572912
0.06389
0.0519493
0.0580103
0.0580101
0.0452278
0.0522584
0.0403751
0.0461992
0.0448212
0.0516702
0.0403232
0.039515
0.0308335
0.0350501
0.0341319
0.0307874
0.0293035
0.0228435
0.0258119
0.0252058
0.0228019
0.0244904
0.0176155
0.0124613
0.00901504
0.00906026
0.00904438
0.00920181
0.0107589
0.0104743
0.0131702
0.0130748
0.0110494
0.0109911
0.00987767
0.0130794
0.0119335
0.0117437
0.00848976
0.00856997
0.00783014
0.00745829
0.00721942
0.00501718
0.00765173
0.00752434
0.00784643
0.0077203
0.00768143
0.00573666
0.0052124
0.00771602
0.0104589
0.014734
0.0206793
0.0283859
0.0379039
0.0396374
0.0437583
0.0438269
0.0333762
0.0332344
0.0296841
0.0284127
0.0379378
0.0403388
0.0401177
0.0315434
0.0346861
0.0346863
0.0265942
0.0299183
0.0233946
0.0255904
0.0255902
0.0194464
0.0218806
0.0164808
0.018537
0.0181646
0.0211691
0.0164377
0.0216263
0.0245446
0.024695
0.0178022
0.0176514
0.01541
0.0147947
0.0156288
0.0117128
0.013139
0.0129528
0.0150008
0.011659
0.0109194
0.0125011
0.0126497
0.00914832
0.00901897
0.00804474
0.00765194
0.00749298
0.00741695
0.00629689
0.00469868
0.00554612
0.00528978
0.0055739
0.00469474
0.006301
0.00587443
0.00726455
0.00749168
0.00933132
0.010581
0.00989172
0.0112765
0.0109919
0.00990023
0.0109998
0.00850545
0.0154393
0.0139402
0.0154205
0.0118491
0.0147424
0.0119719
0.0147423
0.0205422
0.0279973
0.0309277
0.0403072
0.0337947
0.054805
0.0407465
0.0455894
0.0353382
0.0399782
0.0314483
0.0346028
0.0265856
0.0298919
0.0300588
0.0228017
0.0252059
0.0258111
0.0228427
0.0293033
0.0301153
0.026594
0.029918
0.028413
0.0335279
0.0439486
0.0561311
0.0491641
0.0491654
0.0607441
0.0572902
0.0645673
0.0638907
0.0606461
0.0589353
0.0496891
0.0504573
0.0398841
0.0425231
0.0388628
0.0370609
0.0302228
0.0279973
0.0228075
0.0293615
0.032653
0.0242992
0.0176029
0.0125555
0.00912003
0.00822259
0.00830981
0.00822255
0.00859344
0.011881
0.0166639
0.0230085
0.0192144
0.0315826
0.023127
0.0256666
0.0194849
0.0256257
0.0233193
0.0255455
0.0194436
0.0216654
0.0218168
0.0258448
0.0206787
0.0206988
0.0212573
0.0242015
0.0325831
0.0425898
0.0378675
0.0286255
0.0210309
0.0151488
0.0175195
0.0125037
0.0109294
0.00819061
0.00905695
0.00717153
0.00752492
0.00784626
0.00970737
0.00850564
0.00944388
0.00745844
0.00717629
0.00521238
0.00820554
0.00848975
0.0117437
0.0164756
0.0227576
0.0305988
0.0388626
0.0293614
0.0266276
0.0299526
0.0298627
0.0347642
0.0347429
0.0366608
0.0311788
0.0422857
0.0258827
0.048241
0.0387055
0.0498898
0.0615498
0.0616717
0.067052
0.0509923
0.0653561
0.0588617
0.0930894
0.0753014
0.0733279
0.06122
0.0642688
0.0962774
0.066004
0.0634102
0.0661551
0.0961783
0.064322
0.0737319
0.0734368
0.0606152
0.0556283
0.056804
0.0434753
0.0442789
0.0331808
0.0337266
0.0290963
0.0283879
0.0378612
0.040191
0.0457583
0.049018
0.0522175
0.0558142
0.0436532
0.0332935
0.0246342
0.0245734
0.024967
0.017695
0.0166923
0.0194506
0.0163344
0.0118493
0.0131701
0.00990013
0.0110001
0.0116768
0.00706258
0.0138192
0.00987359
0.0107587
0.0151782
0.0179971
0.0147555
0.0154206
0.0125217
0.0127654
0.00904456
0.00920117
0.00765202
0.00501715
0.00762466
0.00912917
0.006969
0.00652749
0.00968256
0.00644737
0.00685964
0.00963216
0.00721957
0.0077203
0.00932
0.0104741
0.0104587
0.0147334
0.0177206
0.0125302
0.00906025
0.00768166
0.00771577
0.00901512
0.0124611
0.0176151
0.0244899
0.0331307
0.0435366
0.0558797
0.060766
0.0642631
0.0561461
0.0438257
0.0379382
0.0455923
0.0455923
0.0412262
0.0520303
0.0522577
0.0452282
0.0511161
0.051116
0.0606462
0.0573459
0.0399743
0.0353208
0.0399742
0.0353204
0.0403386
0.0401177
0.0301794
0.0301796
0.0221192
0.0221191
0.0215339
0.0154394
0.0109919
0.0105222
0.0078302
0.00822928
0.0053475
0.00801914
0.0112765
0.0158496
0.0158496
0.013908
0.0184228
0.0168984
0.0184233
0.0139081
0.0147948
0.0179209
0.0207121
0.0217115
0.0217111
0.0218811
0.0194465
0.0207124
0.0248308
0.0246948
0.0333771
0.0296837
0.0396361
0.0379032
0.0491323
0.0513594
0.0564023
0.0437575
0.0283852
0.0350986
0.0332371
0.024546
0.0216256
0.0178019
0.0126495
0.0127732
0.0105808
0.0109193
0.0154099
0.0176536
0.0125009
0.00804487
0.00901904
0.00803102
0.00735771
0.00803153
0.00748348
0.00801903
0.00743017
0.00823483
0.00485567
0.00705859
0.00653752
0.00608308
0.00666481
0.00705861
0.00698747
0.00653753
0.00608245
0.00690435
0.00659121
0.00671
0.00659186
0.00698766
0.00589111
0.00653851
0.00587476
0.00672315
0.00775157
0.00727506
0.0074714
0.0066786
0.0087459
0.00704351
0.00765216
0.0154675
0.00825619
0.0520307
0.0761744
0.00708237
0.00692181
0.00713763
0.00785772
0.00611138
0.00611691
0.0138869
0.0229387
0.0270375
0.0518306
0.00819059
0.0961871
0.0754878
0.0645834
0.0778873
0.0869093
0.07902
0.0814436
0.0868862
0.0776567
0.0868865
0.0769687
0.086909
0.0778878
0.0645838
0.0796797
0.0963988
0.109118
0.076966
0.0867321
0.0778932
0.0770202
0.0301154
0.0283887
0.0299533
0.0231276
0.00822922
0.00500225
0.0300487
0.0499923
0.0575214
0.0407455
0.0524442
0.0499262
0.00537621
)
;

boundaryField
{
    face
    {
        type            calculated;
        value           nonuniform List<scalar> 
154
(
-0.08
-0.08
-0.08
-0.08
-0.08
-0.08
-0.08
-0.08
-0.08
-0.08
-0.08
-0.08
-0.08
-0.08
-0.08
-0.08
-0.08
-0.08
-0.08
-0.08
-0.08
-0.08
-0.08
-0.08
-0.08
-0.08
-0.08
-0.08
-0.08
-0.08
-0.08
-0.08
-0.08
-0.08
-0.08
-0.08
-0.08
-0.08
-0.08
-0.08
-0.08
-0.08
-0.08
-0.08
-0.08
-0.08
-0.08
-0.08
-0.08
-0.08
-0.08
-0.08
-0.08
-0.08
-0.08
-0.08
-0.08
-0.08
-0.08
-0.08
-0.08
-0.08
-0.08
-0.08
-0.08
-0.08
-0.08
-0.08
-0.08
-0.08
-0.08
-0.08
-0.08
-0.08
-0.08
-0.08
-0.08
0.08
0.08
0.08
0.08
0.08
0.08
0.08
0.08
0.08
0.08
0.08
0.08
0.08
0.08
0.08
0.08
0.08
0.08
0.08
0.08
0.08
0.08
0.08
0.08
0.08
0.08
0.08
0.08
0.08
0.08
0.08
0.08