/*--------------------------------*- C++ -*----------------------------------*\
| =========                 |                                                 |
| \\      /  F ield         | OpenFOAM: The Open Source CFD Toolbox           |
|  \\    /   O peration     | Version:  2306                                  |
|   \\  /    A nd           | Website:  www.openfoam.com                      |
|    \\/     M anipulation  |                                                 |
\*---------------------------------------------------------------------------*/
FoamFile
{
    version     2.0;
    format      ascii;
    arch        "LSB;label=32;scalar=64";
    class       volScalarField;
    location    "2.5";
    object      gradTy;
}
// * * * * * * * * * * * * * * * * * * * * * * * * * * * * * * * * * * * * * //

dimensions      [0 -1 0 1 0 0 0];

internalField   nonuniform List<scalar> 
2658
(
0.00847532
0.00488888
0.00152294
-0.00021034
-0.0181251
0.0223004
-0.0191916
0.0161495
-0.000318208
-0.0157867
0.00491548
-0.035249
0.0212669
0.0216423
0.0174858
0.0179751
0.0197347
0.0176948
0.0179002
0.021375
0.0205862
0.0179032
0.00589772
-0.00411766
0.00668705
0.0197212
-0.0043301
0.00116427
0.0160856
-1.64615e-06
-0.0160868
0.00433034
-0.0197217
-0.0058959
-0.00668604
0.00411871
-0.00130146
0.00167318
-0.0179092
-0.0205883
-0.021377
-0.0179014
-0.0176926
0.00890672
-0.00147222
-0.000760404
-0.00491582
0.00927051
-0.0179782
-0.0174853
-0.0216385
-0.0212665
-0.0188176
0.00391832
-0.0070118
-0.00666165
0.000453545
-0.011781
-1.35847e-06
-0.00020753
-0.000452821
0.00666116
0.00701241
-0.00391921
0.00474217
-0.0103082
-0.0146937
-0.000643266
-0.0246952
0.0246954
3.62157e-08
0.0211955
-0.000215584
0.0177049
-7.14519e-05
-0.0134032
-0.0132956
0.000302832
0.0130611
0.00858859
-0.00889351
-0.000555414
0.0113066
0.0169737
-0.00038517
-0.000228292
-4.16891e-06
9.28532e-05
0.000125002
0.000134865
0.000116984
-0.000438524
0.000230348
0.00113888
-0.000509285
-0.00117396
-0.000218521
-0.00127108
-0.00023512
-0.000487228
-0.00139407
-0.000376741
-0.00119323
-0.000653371
-0.000541627
0.00124247
-0.000446254
-3.26528e-06
0.000161154
-0.00131051
0.000432729
-0.000594133
-2.69469e-08
0.000594122
-0.000432795
0.00131043
0.000541647
-0.00124244
0.00119321
0.000653401
0.00037673
0.00139409
0.000487215
0.000235111
-0.000977621
-0.000947091
-0.00113892
0.00117393
0.000218478
0.000509349
0.00136654
0.000353938
0.00065452
0.000591053
0.00122029
-0.000545299
3.59037e-05
5.626e-05
-0.00124242
0.00124258
-3.60947e-05
0.00054538
-0.000329415
-0.000344024
-3.12052e-06
0.000342861
6.01121e-07
6.89601e-07
-0.000677741
0.000668088
1.46711e-06
5.32092e-05
0.000355613
-0.00039481
0.00160203
0.000373125
0.00149939
0.00177232
0.00188031
0.00149009
0.00150026
0.0017204
0.00149889
0.00151724
0.0019236
0.00179015
0.00156783
0.000507486
-0.000116306
0.000294563
-0.0021174
0.00275183
-0.00298022
0.00373639
-0.00430292
0.00514523
-0.00610859
0.00697336
-0.00843711
0.00918422
-0.0113355
0.0117131
-0.0149117
0.0144864
0.0141504
0.0118565
0.0112565
0.0157877
0.0181246
0.000209829
-0.0223016
0.0146937
0.0103075
-0.00474163
0.0352491
-0.00428358
0.000384158
0.000227876
3.66356e-06
-9.34051e-05
-0.000125371
-0.000135051
-0.000117064
0.000438473
-0.000230216
1.6033e-05
-0.000516522
0.000181452
-0.000666329
0.000666378
0.000516573
-1.60854e-05
-0.000181442
-0.000200198
0.000947187
0.000977607
-0.00118702
0.00111252
0.000268205
-3.40105e-05
-0.000179113
0.00017371
-0.000162094
-0.000172642
-3.64709e-08
0.00017262
-0.00026837
0.000446317
-0.000847031
3.31795e-06
-0.000940108
0.000940066
0.000846961
-1.10112e-07
-0.00058939
-0.000645658
0.000645605
-0.000172736
0.000589264
-8.69533e-05
-4.84904e-08
-0.000473102
-0.000209003
0.000618172
-0.00015979
3.6178e-08
1.95003e-08
-5.54618e-08
-0.000902883
0.000646596
0.00179658
-0.000434463
0.00142676
-0.00191177
0.00224502
-0.00241491
0.00241468
0.000311572
0.00279075
0.000199218
-0.00343512
0.00395189
0.000107655
-0.0047713
0.00559907
2.0431e-05
-0.00658449
0.00776132
-0.000112624
-0.00887291
0.0104571
-0.00039943
-0.0115915
0.0136963
-0.00110195
-0.0146447
0.0174118
-0.00300548
-0.0189577
-0.00875956
-0.0195018
0.019501
-0.00116371
-0.00531816
0.0101272
0.0090358
-4.70155e-07
-0.00641772
0.00641797
0.00669731
-2.55298e-07
-0.00807152
0.00807168
0.00325935
-7.13768e-07
-0.0210056
0.0210044
-0.0130653
-8.58971e-07
0.0130633
-0.0101882
0.00647421
0.0149131
0.0103604
0.013627
-0.0201631
0.0143563
0.00190894
0.00121571
0.000201749
-0.0032596
-0.00118348
-0.00334919
-0.0115525
0.0062356
0.0178745
0.00758443
0.00854169
-0.00437454
-1.26901e-07
0.00437501
0.00334957
-0.0143553
0.0201634
-0.0149134
-0.00647196
0.010188
-0.00190988
-0.00121647
-0.00853997
-0.00758511
-0.017873
-0.0062358
0.0115521
-0.0118588
-0.00426619
-0.0165528
-0.00375543
0.0108907
0.00259645
-0.00254025
0.0118404
-0.00235336
-0.00284056
0.000101225
-9.61767e-05
-0.000244126
-0.000274862
-0.000256758
-0.000226533
-0.000187771
-0.000221607
-0.00200158
-0.00170568
-0.001538
-0.00233766
0.0031073
-0.00337716
0.00426977
-0.00488287
0.00588625
-0.00695264
0.00796949
-0.00966124
0.0104742
-0.0130608
0.0132967
-0.0169739
0.000318123
-0.0161493
0.0191927
-0.0211961
0.0197593
-5.43827e-07
-0.0197596
0.0169816
-0.015258
0.0123729
-0.0102586
0.0135608
7.8995e-05
0.00919579
0.000387107
-0.0104731
-0.000427656
-0.00693014
-0.00792993
0.000382776
0.00726618
0.00793999
-0.00886602
-0.000476413
0.00979042
0.00023461
-0.00998686
0.0125673
-0.000525131
-0.0112563
-6.40588e-05
0.000760363
-0.00927102
0.0118579
-0.0118407
0.00253982
0.000875278
-9.69714e-05
-1.66156e-07
0.000210967
5.0495e-06
-0.000154332
-0.000203569
-0.000202039
-0.000184743
-0.000153655
0.00016203
-0.000173742
0.000179174
0.000172668
3.41547e-05
-0.00111254
0.00118698
-0.000806836
0.000572588
0.000326302
0.00026737
0.000714248
0.00050466
-0.000139793
-0.00191
0.00318383
3.92365e-06
-0.00362157
0.00293297
-0.00246316
-0.000215731
0.000107548
0.000960221
0.000976061
0.000968402
0.000605401
0.000679845
3.15695e-05
0.000260411
0.000302888
0.000112486
-0.000207394
1.56324e-05
-8.28393e-05
-0.000171209
-0.000159821
0.000107858
0.000146026
0.000164649
0.00268533
0.00236175
-0.00249243
-0.00217772
0.000140804
0.00213428
-0.000242624
0.000157828
-0.000183497
-0.00047374
-0.000480951
-0.000804111
-0.000357015
-0.000278705
-0.000418242
-0.000659982
-6.9069e-06
6.49919e-05
0.000142821
0.00494043
0.00449385
-0.00522237
-0.00451988
0.000275812
0.00392224
-0.00315888
0.0002086
0.00288026
-0.000257387
0.00326714
-0.00364795
0.000220122
0.0036093
-0.00284006
0.000151523
2.66912e-05
-9.01053e-05
-0.0027902
3.43229e-05
0.00253878
-0.00035639
-0.00215647
-0.000450466
-0.000183793
-3.26485e-05
6.33894e-05
0.000165165
0.000338177
0.000327277
-0.000826784
0.000316456
0.000600782
0.000376901
5.28272e-05
0.000187405
0.000165261
0.000157012
-0.000209956
-0.000489596
-0.000826725
-0.000820218
-0.00132972
-0.00126471
-0.00206016
-0.001275
-0.000619303
-0.00122732
-0.00297293
-0.000467083
-0.000153362
2.77846e-05
0.00886632
0.00793113
-0.0097899
-0.0085871
0.000427769
0.00693071
-0.00631042
0.000345487
0.00527582
-0.00035922
0.00606131
-0.00726543
0.000375609
0.00669343
-0.00573557
0.000294037
5.08306e-05
3.8937e-05
-0.000121714
-0.00395132
1.9356e-05
0.0034353
-0.00019921
-5.9024e-05
-0.00342728
0.00423727
-0.00485908
0.00485888
0.000102663
-0.00590397
5.9754e-05
0.00679153
3.81996e-05
-0.00807202
7.25507e-05
0.00924421
-9.55086e-05
-0.0107082
6.08971e-05
0.0121992
-0.000475245
-0.0136828
-6.65235e-05
0.0155875
-0.00177494
-0.0163711
-0.00134856
0.0184117
-7.44496e-07
-0.0184122
0.00875788
0.0189591
0.00300436
-0.0174109
-0.000193642
0.0146444
0.00110102
-0.0136953
-6.17658e-05
0.0115932
0.00039872
-0.0104558
-2.9213e-05
0.00887425
0.000111625
-0.00776069
-8.04007e-06
0.00658517
-2.08695e-05
-0.00559841
7.21408e-06
0.00477178
-0.000107672
-5.07946e-05
-0.000191407
-0.00013842
-5.04173e-05
0.000482778
-1.89393e-07
2.10233e-09
-3.90702e-07
2.98454e-08
2.79772e-07
4.61011e-07
9.95731e-07
3.36725e-06
1.10915e-06
-4.79902e-07
-1.41035e-06
0.00541714
-0.00541811
-0.00755774
-0.00723025
-0.00216317
-0.00388106
-0.0121334
0.0362564
-0.00338603
0.000200769
-0.000145368
-0.000217634
0.00134898
0.016372
0.00177428
-0.0155871
-2.99726e-07
-2.73442e-07
-3.06448e-07
0.000475052
-0.0121992
0.0136829
6.66326e-05
-0.000159907
-0.000188635
-6.10617e-05
0.0107083
9.53154e-05
-0.00924474
2.0338e-08
-2.0922e-07
-2.69533e-07
-2.27559e-07
-0.000103236
0.00590381
-0.00679187
0.00807215
-7.22488e-05
-0.00018093
-0.000154206
-1.99483e-07
-1.16192e-07
-2.11574e-08
-6.65061e-08
-0.000311856
0.00305868
-6.22408e-08
-0.003059
5.90036e-05
0.003427
0.000167908
-0.00423776
5.07075e-05
0.000121446
-9.36218e-08
-0.000168341
-9.05492e-08
8.99093e-05
3.25739e-05
0.00215658
0.000356282
-0.00253872
0.000183737
-0.00224512
0.000902966
0.00191176
1.9019e-08
-0.00142666
0.000434474
-0.00179688
-0.000507527
-0.000646548
-7.43888e-05
-0.000411736
-0.000211278
0.000159776
0.000473069
-0.000618219
0.000209094
-0.000641072
0.000473631
-5.16062e-08
-0.000473613
-0.000232845
0.00127103
0.000641101
8.70021e-05
0.000211315
-0.000161039
0.000411709
7.44111e-05
8.93743e-05
-0.000454
-0.000192355
0.00063943
0.00059601
-0.000136387
0.000153169
0.000848629
-0.00122573
0.00114654
-0.000166829
-2.63726e-09
1.78649e-09
3.25742e-08
-1.35447e-08
-2.13877e-08
-3.90285e-08
-4.74404e-09
2.48693e-08
-6.02824e-08
-1.54732e-07
5.24193e-08
-4.49895e-09
-2.005e-07
-2.02958e-07
-3.11973e-07
-8.62872e-07
-0.0101281
0.00531816
-0.00453143
0.00754077
-0.00754167
0.00453129
-0.0150507
0.00157094
-0.00603946
0.0139477
0.00352127
-0.000330185
0.0130795
-0.0118094
-0.00670921
-0.0176821
-0.00567168
-0.00863383
-0.0128363
-0.00724617
0.000683422
0.0062607
0.0019219
-1.70299e-06
-1.15159e-07
-0.00192103
0.0150508
0.00604127
-0.00157121
0.00473815
-0.0035213
-0.0130798
0.000329899
0.00153579
-0.00259715
-0.0108915
0.00375405
0.0165526
0.00426561
0.00758276
-0.00612628
-0.00626212
9.52341e-07
-0.00232435
-0.00473761
0.000345344
-0.000471245
-0.00736004
0.00612595
0.00120775
-0.00758305
-0.000212515
-0.000201911
0.00118372
-0.000874803
9.65959e-05
6.34489e-05
-0.00202958
-0.00423457
-0.00222177
-0.000136743
0.0114711
0.00998888
-0.0125671
-0.0113052
0.000555553
0.00889362
-0.000234853
-0.000217047
-0.00220932
-0.00132779
-1.67952e-05
8.50738e-05
0.000123408
0.000142768
0.000156369
-0.0040548
-0.000268463
0.000111104
0.00405893
-8.41854e-05
-0.00515028
0.00616166
-0.000109733
-0.00726641
0.00563688
-0.00470665
-0.000272805
-0.00665397
-0.000116629
-0.010058
0.00769886
-0.000335841
-0.00919516
-7.93265e-05
-0.0135606
0.0102582
-0.00038733
-0.0123726
7.17061e-05
-0.0177058
0.0134023
-0.0003035
-0.000945639
-0.00412606
-0.0124816
-0.0124506
-0.0197395
-0.00198773
0.0333038
-0.00314308
-0.00323975
-0.00152276
-0.000686533
-0.00041932
-0.000270947
-0.000169377
-7.89391e-05
-1.16638e-05
6.79817e-05
2.03819e-05
0.00573056
2.19875e-07
-0.00573104
0.00685363
5.99619e-07
-0.00809994
0.00810006
-0.00685342
7.26973e-08
-2.33922e-08
6.01678e-08
6.34538e-05
0.000153409
-3.97869e-05
0.00164402
6.20207e-07
-0.00164439
0.00338353
3.99561e-07
-0.0039924
0.00399201
-0.00338317
3.7581e-05
0.00046203
-0.000604972
0.000605029
-0.000342332
-0.000172128
-0.000462157
0.00191024
0.000140081
-0.000504997
0.00246398
-3.53955e-06
-0.00293346
0.00362166
-0.00318356
3.93554e-05
-6.34681e-05
-6.34132e-05
0.000187677
-3.42201e-05
0.00211752
0.000221929
-0.00268513
-0.000151384
0.00249257
0.000257392
-0.00287991
-0.00020868
0.00316022
0.00488267
0.000273034
-0.00563694
0.00726556
0.000110368
0.00470785
-0.00405923
0.00515024
8.42637e-05
0.00330596
0.00023148
-0.00426921
0.0033771
0.00217847
-0.00213446
-0.000140774
-0.00310691
0.000215407
0.00233754
0.00153839
0.000242511
-0.00236154
0.0017058
0.00200183
-0.000572572
-0.000165096
-0.000326117
0.00331911
-0.000267431
-0.000153448
-0.000714026
0.00348654
-0.00149012
-0.00150055
0.00082684
-0.000327141
-0.000338188
-0.000302643
-0.000679914
-0.000482731
5.03119e-05
0.000138762
-3.14334e-05
8.33326e-05
0.000191263
0.000252651
0.000171809
0.000279475
0.000315658
-0.000316303
-0.000252681
-5.9737e-05
-0.000339552
0.00033868
0.000418763
0.000619987
0.000263031
-0.000264127
-0.000329121
0.00032998
0.0012299
0.00755972
0.0072338
0.00216704
-0.0144857
-0.000545307
-0.0141499
-0.000201523
0.00147198
-0.0333039
0.00235269
0.00284
-0.000102204
9.54042e-05
0.000243406
0.000274434
0.000256442
0.000226329
-1.93137e-05
0.00298074
0.000237966
-0.00360894
-0.00022034
0.00364805
0.000303095
-0.00392191
-0.00027519
0.00452137
0.00695292
0.00033572
-0.00769927
0.0100575
0.000116317
0.0066547
-0.00856079
-3.97829e-05
0.00953419
2.66643e-07
-0.0112088
0.0112087
-0.0095338
3.94999e-05
0.00856095
8.97202e-05
1.80781e-07
3.57645e-07
1.01907e-07
9.63927e-07
-3.79495e-05
-0.000378177
-0.00160403
0.000398874
0.000244023
-0.00122068
-0.00059146
-0.000654666
-0.00114673
-0.000354007
-0.00136655
-0.00187984
-0.00177223
0.000166158
-0.00150004
-0.00037333
-0.000600549
-0.000959955
-0.000976174
-0.000968554
-0.00192358
-0.00151731
0.000806783
-0.00149897
-0.00172117
0.00353968
-0.000294525
0.000450397
0.000116306
-0.0017902
-0.00156804
-0.000604993
-0.000112282
-0.000261005
-0.000145506
-0.0027515
-0.000164417
0.00284074
0.000207398
-1.21295e-05
-0.000106808
-0.00373589
0.00430367
0.000269202
-0.00493988
-0.000293857
0.00573661
0.00522244
0.000359157
-0.00527609
-0.000345784
0.006312
0.00966075
-0.00796851
-8.44589e-05
-0.000111888
-0.00669222
-0.000375023
-0.00606029
0.000203113
0.000201666
0.00018456
0.000153567
-2.67538e-05
-3.89797e-05
-5.09567e-05
0.000154002
0.000180649
-6.58758e-05
6.54214e-05
8.70588e-05
0.000476081
-0.0107436
-0.000132187
0.000121883
0.00062223
-0.0142447
0.000545694
0.000177433
0.000115887
9.07512e-05
7.21594e-05
5.49665e-05
3.52425e-05
2.4856e-07
0.00437896
-0.00485199
0.00485229
-0.00437848
-4.8982e-07
-3.52245e-05
-5.5017e-05
-2.11795e-05
-0.00616136
-6.81612e-05
-4.43293e-05
-5.23093e-05
7.92226e-05
0.000169606
-8.97346e-05
-4.97126e-05
-0.000110763
-0.000142595
-0.000155977
0.00405546
0.000481531
0.000165301
-6.33257e-05
-0.00514447
0.00610958
0.000303237
-0.00697259
0.00843814
0.000299156
-0.00918293
0.0113361
0.000132568
-0.0114713
-0.000622928
0.0142456
0.0149125
0.000192983
-0.0117119
6.18097e-05
0.000468317
0.000156016
8.9508e-06
0.000363004
0.000804673
0.0012657
0.000669317
0.00206008
0.00128843
0.00388169
0.00296713
0.0121333
-0.0362556
0.00130163
-0.00167198
0.0128368
0.00567042
0.0176817
0.0067091
0.0118087
-0.00890684
0.00338638
0.0019879
-0.0118561
-0.000211997
-5.59473e-06
0.000153842
-1.67609e-07
-2.05455e-07
-0.000122447
0.000159696
0.000188333
-8.73017e-05
-0.00011648
-5.77121e-08
1.15663e-08
-9.09293e-05
-7.23631e-05
-6.14971e-05
-0.0116065
0.0129354
4.78672e-10
-0.0151111
0.0151104
-0.0129354
6.13195e-05
0.0116069
0.000107602
-6.38854e-05
-0.000365226
5.01615e-05
-0.000169518
-0.000330129
-0.000698596
0.000121721
0.0152578
-0.0169815
0.000103035
-3.05068e-07
-2.03189e-07
-2.88584e-07
-1.23114e-07
-0.00669746
0.00125785
0.000145051
0.000217318
-0.000344591
-0.00903685
0.00232456
0.000470809
0.00735931
0.00724621
-0.0139463
0.0086334
-0.000682845
-0.00120916
-3.11235e-07
0.00428338
0.0117802
-7.9473e-05
7.97581e-07
0.000154795
0.000216257
7.94512e-05
-0.00488958
-0.00847881
-0.00850587
-3.06152e-07
0.000205699
-7.0024e-07
0.000643302
8.1663e-07
2.33178e-07
9.39781e-09
-0.000107751
0.000271514
0.000419502
-0.000121888
-0.000103785
0.000330439
6.41397e-05
0.000827209
0.000489758
0.000210429
-0.000107549
-0.000157684
0.000183596
0.000473909
-0.00014212
-0.00449335
0.00082035
0.00132993
-2.68479e-05
0.0107452
0.00013856
0.000217952
1.78296e-05
0.0013286
0.00221122
0.00222286
0.00423635
0.0124509
0.0020298
0.00412634
0.0124817
0.00314243
0.000945733
-0.000155432
0.000685887
0.00142523
0.00324043
0.000701141
-0.000123194
-0.0058851
-0.000156857
-0.000165263
-0.000316799
-0.000187137
1.20729e-05
0.000171469
0.000365254
-0.000177985
-0.0014228
2.91505e-05
8.02846e-06
-7.18495e-06
-0.00326667
4.42643e-05
-0.00330528
-0.000231662
0.000192364
0.000454052
-8.93589e-05
-0.000153208
-1.74665e-07
0.000136409
-0.000596065
-0.000639423
0.000232896
0.00122577
-0.000848572
-5.67195e-05
-0.000356329
0.000341667
0.000172176
0.000330292
-0.000243135
0.000112731
-0.00793758
-0.000299173
0.00052579
-0.00153615
-0.00125726
0.000212251
0.000200174
4.63982e-09
-3.89022e-05
-1.26938e-07
3.80631e-08
1.91975e-07
-0.000303081
-0.000382308
-0.000237604
-0.000303025
-0.00353951
-0.003319
-0.00348632
-0.0136289
-0.010363
0.0017807
-8.41485e-07
-0.00177976
0.0188173
0.00850456
-0.000601128
-0.000376796
-5.26765e-05
-3.93919e-06
0.0024631
-0.00318373
0.00362147
-0.00293326
0.000215732
0.00233741
-0.000714325
0.00348635
-0.00177239
-0.00188026
-0.00149013
-0.00150024
-0.00172021
-0.00149886
-0.00151724
-0.00192326
-0.00179018
-0.00156752
-0.000507593
0.000450455
-0.000646608
-0.00179674
0.000434364
-7.44056e-05
-0.0014268
6.37139e-08
0.00142672
-0.000434381
0.00179687
0.000507683
0.000646625
-0.000450464
0.000294641
-0.000116318
0.00156785
0.00179021
0.00192334
0.00151726
0.00149894
-0.000806793
0.000326256
0.000267443
0.000714153
-0.00082672
0.00150046
0.00149011
0.00187993
0.00177231
0.00149982
-0.000166143
0.000373543
0.000172154
0.000462409
0.00164444
-7.99255e-07
0.000604992
-0.000462044
-0.000172368
-0.000373087
0.000166645
-0.000504751
0.00013981
0.00190999
3.96341e-05
0.00338305
-0.00338333
-4.06671e-07
-0.00399211
-1.55085e-07
-0.00437856
8.39834e-05
0.00330529
0.00337686
0.000231728
-0.00426941
-0.00288034
0.00217787
-0.000141014
-0.00213443
-0.00310726
0.000116993
0.000134995
0.000125018
9.27878e-05
-3.79296e-06
-0.000228254
-0.000384793
0.0042835
-0.00334889
-0.0115515
0.00623614
0.0118587
0.00426589
0.0165524
0.00375475
0.00670971
0.0176824
0.00567247
0.0128355
0.00863269
0.00603917
-0.0139464
0.00473804
-0.000344697
-0.00157039
0.0150511
-0.00452923
0.0075415
1.47676e-07
-0.00754178
0.0045291
-0.0150513
-0.00603977
0.0139462
-0.0128359
-0.00863248
-0.00567254
-0.017682
-0.00670903
-0.00375576
0.0108909
0.0118392
0.0115514
-0.0118587
-0.00426696
-0.00623655
-0.017875
-0.00758833
-0.0103624
-0.0149148
-0.00647311
0.0101887
-0.0130661
-0.00190886
0.0210048
-0.0210052
0.0130655
-0.0101891
0.0064735
0.0149143
0.0103622
0.013629
0.00758888
0.0178749
0.0216394
0.0212685
-0.00391812
0.0188169
0.00701332
0.00850505
0.00666094
-0.000205879
5.11539e-07
0.000205756
-4.74845e-07
0.0117805
-0.0117808
0.000453854
-0.00666045
-0.00850529
-0.00701385
-0.0188178
-0.0212691
-0.021639
-0.0174851
-0.0179749
-0.0197329
-0.0176947
-0.0178996
-0.0213742
-0.0205856
-0.0179025
-0.00589513
0.00167429
-0.00130143
0.0144863
-0.0149133
0.0117122
-0.0113355
0.00918422
-0.00843769
0.00697277
-0.0061093
0.00514518
-0.00430304
0.00373626
-0.00298057
0.00275158
-0.00211745
-0.00200159
-0.00170562
-0.00153811
-0.00233746
-0.00246368
3.55538e-06
0.00318362
-0.00191014
-0.000139974
0.000505063
-0.00348643
0.000438491
-0.000117117
-0.000135041
-0.00012516
-9.316e-05
3.7443e-06
0.000227831
0.00038411
-0.00428376
0.0033489
0.00118368
0.00325919
-0.000874931
0.00807121
-0.00807078
-0.00325899
-0.00118379
0.000875145
0.00253964
-0.0118396
-0.0108906
0.0118088
-0.013079
-0.00352056
0.000330936
0.00153579
-0.00259644
0.00235261
0.00284011
-2.43803e-07
-0.00283992
0.00352095
-0.00473795
0.00903502
0.00034413
0.010127
-0.0101277
-0.00903576
-9.47974e-07
0.00641659
0.00669634
-0.00669733
0.00125813
-0.00641748
0.000470783
1.20318e-07
0.00626025
0.000681343
-0.00724654
0.00192139
-4.52505e-07
-4.59919e-07
-7.49065e-08
0.00875782
-0.00668789
-0.0197215
0.00432784
-0.0160876
0.0195002
-0.018412
0.0163709
-0.0163719
-0.00177511
-0.0146442
-0.00110139
0.0136951
-0.011593
-0.000398489
0.0104556
-0.00887413
-0.000111231
0.00776057
-0.00658497
2.11617e-05
0.00559855
-0.0047716
0.000107908
0.00395145
-0.00343526
0.000199394
0.00279053
-0.00253893
0.000356284
0.00215645
0.000902831
0.00191152
-0.00191172
7.427e-05
0.000411632
-0.000940066
-0.000846928
-3.25923e-08
0.000589234
-0.000589283
-0.000645598
-5.05085e-08
0.000666301
-0.000666307
-0.000516537
-1.02869e-07
0.0012424
-0.00124265
3.60861e-05
-5.28746e-07
-0.000342951
0.000344061
-0.000244014
0.00122069
0.000591532
0.000654616
0.00035415
0.00136653
0.000509291
-0.00113881
-0.000230337
0.000848696
-0.00122571
0.00114678
0.000596065
0.000639526
0.000218607
0.00127095
0.000235165
-0.000977513
-0.000173743
0.000200088
-0.000947068
0.00117413
0.000162007
0.00017263
-0.000187786
-0.000226562
-0.000256769
-0.000274691
-0.000243634
-9.56207e-05
0.000102265
0.000546016
0.014149
0.0118574
0.0112561
0.0157883
-0.0169739
0.0132971
-0.0130613
0.0104744
-0.00966137
0.00796931
-0.00695358
0.00588569
-0.00488301
0.00426944
-0.0033772
0.00310715
-0.000215502
0.00293334
-0.00362173
0.00399244
-0.00485214
-6.28073e-08
0.00485169
-0.00573105
0.00514997
-0.00405938
0.00470722
-0.00616142
0.000109971
-0.00563738
0.000273109
0.00488228
-0.000208591
0.00315952
0.0036475
0.000303172
-0.00449356
-0.0049403
0.00405475
-0.000220294
-0.00326701
0.000257337
0.0024921
-0.00236179
0.000242766
0.00153799
-0.000153617
-0.000267453
0.000826594
-0.00117417
-0.000509331
-0.00136659
-0.000354112
-0.000654576
-0.00059121
-0.00122027
0.000243074
-0.000330293
-3.5943e-05
0.000545389
-5.62702e-05
-0.000848652
-1.60771e-05
0.000230251
0.00122575
0.00113884
0.000947053
-0.000200168
-0.000181409
0.000516556
-7.26756e-08
-8.9825e-08
-7.84006e-08
4.7597e-08
5.99595e-08
9.26701e-08
1.70808e-07
-9.21478e-09
-6.66069e-08
-2.06436e-07
2.42192e-07
0.00437425
-0.000213436
-0.0075835
0.00120871
-0.0165521
-0.00736011
0.0130784
-0.000330715
-0.00153614
-0.00125839
-0.000145343
0.000201409
-0.00147226
-0.000759907
-0.00491571
-0.0047419
0.0103065
0.0146938
-0.0223012
0.000210295
0.0191924
-0.0161487
0.018125
0.000317592
-0.00412563
-0.0124817
-0.0124493
-0.0121311
-0.00723174
-0.00755819
-0.00122958
-0.00296972
-0.00216612
-0.00388254
-0.00205901
-0.00128824
-0.000619654
-0.000419043
-0.000668251
-0.000155329
-0.000468082
-0.00013765
-0.0142448
-0.0125675
0.00998795
0.00889265
0.000555551
-0.0113049
0.000524508
0.000211469
-0.00235297
0.00259626
-0.00254037
-0.000202148
0.00612584
-0.000471757
-0.00232506
0.00157042
-0.00531834
-0.0011649
-0.00541769
6.67136e-07
5.6843e-07
1.05522e-06
1.71546e-07
-3.88642e-07
-4.85288e-07
-4.40043e-07
-9.87526e-07
-4.56876e-07
1.58942e-08
1.1644e-07
-0.000482807
0.000482772
0.000679768
3.11786e-05
-8.32125e-05
-0.000171816
-0.000279479
-0.00036291
-8.60586e-06
-0.00126461
-0.000804117
-0.000481277
-0.000164411
6.37563e-05
0.00014289
-0.00573641
-0.00522292
0.00449342
0.00392176
0.000275295
-0.00452046
0.00527533
0.000345302
-0.00631088
0.00692995
0.000427488
-0.00858707
-0.000235333
-0.00979093
0.00793093
0.000476239
-0.0107436
0.0114704
0.000622712
0.000122113
5.3105e-06
-0.00015414
-0.000382771
-0.00726607
0.00606084
0.000375102
-0.0079384
0.00886641
-0.000299455
2.76895e-05
-0.00222145
-0.0042352
-0.00198724
-0.00338547
0.00890681
-0.0118089
0.0362551
-0.00202985
0.00927079
-0.00314262
-0.00847543
-0.0048892
-0.00152336
-0.0032401
-0.000944961
-0.000216728
-0.00220948
-0.00132734
-0.00132878
-0.000819363
-0.000473386
-0.000183356
-0.000207153
1.26984e-05
0.000107032
0.000156554
-0.00405497
-0.00364789
0.00326713
0.00287998
0.000208412
-0.00315936
-0.000302997
-0.000202127
-0.00020345
-0.000359336
5.08377e-05
0.000293707
0.00493974
-0.000268878
-0.000154143
0.00658492
-8.68209e-06
-0.00776114
0.000111897
0.00887387
-2.91689e-05
-0.0104565
0.000399477
0.0115923
-6.17157e-05
-0.0136955
0.00110171
0.0146441
-0.000193607
-0.017411
0.00300568
0.0189577
0.00411771
0.00134823
-0.000217732
0.000217355
-0.0189582
-0.00300445
0.0174108
-0.00134915
0.0184116
-0.00875798
-0.0195003
-5.11161e-08
0.0160875
-0.00432874
0.0197211
0.00589484
0.00668731
0.00116473
0.0053183
0.0023245
-0.00192197
-0.00626117
0.0072471
-0.00068187
0.00736006
-0.00612592
-5.38214e-07
9.9124e-09
-1.4782e-07
-2.07547e-07
-1.98334e-07
-2.12852e-07
0.00177545
-0.0155871
0.0136823
-0.012199
0.0107085
-0.0107096
-9.57408e-05
0.00924429
7.26058e-05
-0.00807213
3.84141e-05
0.00679111
6.01706e-05
-0.00590406
0.000103208
0.00485889
5.09199e-05
-0.00423764
0.000168119
0.003427
5.89266e-05
-0.00305919
0.000311748
0.00241461
0.00018369
-0.00224529
-6.00382e-08
0.00224507
-0.000902779
-0.00215656
-0.000356305
0.00253874
3.42065e-05
-0.0027905
-0.000199209
0.00343536
1.91952e-05
-0.00395172
-0.00010778
0.00477129
6.89673e-06
-0.00559899
-2.09729e-05
-6.01925e-05
0.00590336
-1.53412e-07
-0.00485952
0.00423737
-0.00342745
0.0030589
-2.84299e-07
-0.0024148
-0.000183721
-3.25824e-05
-9.00336e-05
-5.89603e-05
-0.000138362
-0.000191468
-0.000253181
-0.00031659
-0.000339378
-0.000263374
-0.000328858
0.000328961
0.00541774
0.00755826
0.00122938
0.000262071
0.0155862
-6.70887e-05
-0.0136836
-0.00047612
0.0121977
6.10182e-05
0.000188334
8.40572e-08
0.00047675
-2.45278e-07
-1.17943e-07
9.63682e-05
-0.0092449
0.00807118
-0.00679215
-3.84592e-05
-2.98919e-07
-4.53904e-07
-1.62346e-07
-0.000103316
-1.81321e-07
-0.000167952
-2.97622e-07
-6.60753e-08
-0.000311431
-6.44696e-08
1.5244e-09
0.000940027
-0.00041166
0.000432702
-0.000594103
0.000594026
-0.000432669
0.00131062
-0.000161005
0.000541693
-0.00124228
-0.000268327
3.41512e-05
-0.00111248
0.00118704
0.000487314
0.00139398
0.000376778
0.00065335
0.00119321
0.000618242
-0.000208979
-0.000473096
-0.000159774
1.19898e-07
-6.28877e-08
0.000159673
-0.00131062
-0.000541646
0.000160925
-0.000446359
0.000268181
0.0011125
-3.41396e-05
-0.000179105
0.000173686
0.000977538
-0.000235174
-0.00127095
-0.000218601
-0.000639519
0.000473643
0.000473113
-6.4309e-08
0.000211336
0.000446341
3.39406e-06
8.70018e-05
0.000641155
-0.000473625
-0.000232883
-4.28997e-08
-8.69909e-05
-0.000211358
0.000846949
-3.50222e-06
3.25373e-05
-9.60854e-08
-5.14252e-08
-9.14657e-08
-2.23492e-08
-1.20689e-07
9.8332e-09
-0.000159648
6.74312e-05
0.000159489
-0.000101972
0.000193141
-0.0144865
-0.000544961
0.0142453
-0.000623042
-0.0099891
0.000234821
0.00858703
-0.000427519
-0.00693129
-0.0104743
0.000386858
0.00919486
-0.0116067
7.87467e-05
-0.0102592
0.0123716
-0.0152582
-7.12031e-05
-0.013404
0.000303407
0.01306
-0.0132964
-0.00889499
0.0113054
-0.000555182
0.0169731
-0.00031648
0.016149
-0.0191922
-0.000210034
-0.0181256
-0.015788
-0.0112569
-0.000524377
0.0125665
-0.0118566
-0.0141502
0.00338563
-0.000201365
0.00147211
-0.0333039
0.000760403
-6.40086e-05
0.00491532
-0.0352479
0.00474276
-0.014694
-0.0103076
0.00488849
4.06396e-07
7.9347e-05
0.000643047
0.0246948
-9.22833e-08
0.0211954
-0.0211948
0.000215577
-0.0177057
7.19172e-05
0.0152588
-0.0123718
0.0134024
-0.000303577
0.0102577
-7.92335e-05
0.0116073
-0.00919435
-0.000387074
0.00769835
-0.00011705
0.00856132
-0.00665361
-0.000336221
-0.000826606
-0.000489357
-0.000210021
0.000107742
0.000157733
0.000112267
0.000260978
0.00014582
0.000164652
-0.00284035
-0.00249264
0.00236172
0.0021343
0.00014071
-0.00217806
-0.000257461
-0.000184838
-0.00015373
-0.000242388
6.33451e-05
0.000165157
0.000572638
-0.00353951
0.000968488
0.000604705
0.000302558
0.000338297
0.00097613
0.00172084
-0.00331899
0.000327334
0.000157227
0.000142906
0.000123778
8.53893e-05
-1.69743e-05
-0.000330512
-0.00142516
-0.00068566
-0.000419494
-0.000701753
-6.45709e-05
0.000107688
0.000121281
-0.0135613
0.0151111
1.22741e-07
0.0129356
-0.0129351
6.17483e-05
0.0112089
-9.71689e-08
0.00953437
-0.00953437
3.92861e-05
-0.00726588
-0.000110246
0.00616168
-0.00470726
0.00563666
-0.000273005
4.9223e-05
-0.000365737
-0.00027144
-0.000169614
-0.000171741
0.000111192
6.80373e-05
-0.0051506
-8.44145e-05
0.00437861
-0.00330569
0.00405899
-0.000231478
0.00016543
-1.21188e-05
-7.90363e-05
5.26766e-05
0.000187215
0.000316943
0.000960054
0.000600488
0.000378327
0.00160395
-0.000398922
0.000677775
-1.38988e-06
-0.000668025
0.000394644
-0.0016022
-0.000341693
-0.000355545
-9.28413e-07
-1.47091e-07
4.42269e-05
4.11926e-07
3.51358e-05
2.66896e-05
0.000151193
0.00268526
-0.000221594
3.8833e-05
0.000220312
0.00360901
-0.000237712
-0.000121541
-5.0932e-05
0.000121294
0.000153921
0.000180749
0.00024381
9.58067e-05
6.16108e-05
-0.0117131
0.000132492
0.0107433
-0.00047681
-0.00793118
0.000383207
0.00631072
-0.000345473
-0.00527668
-0.00796852
0.000336922
0.00665402
-0.00856097
0.000116515
-0.00769944
0.0100573
-6.15201e-05
-0.0112087
-0.000107522
-2.4925e-07
2.37077e-08
-7.19838e-07
0.000155405
-0.000154719
-7.91015e-05
-0.000643364
0.0223005
-0.0246955
-9.68177e-05
0.000145033
-0.00012219
-0.000211482
-5.10925e-06
-3.39882e-08
8.72748e-05
-0.0001883
-6.08305e-05
-0.000180722
-7.24061e-05
6.55867e-05
7.74019e-08
-5.49501e-08
-1.08835e-07
-1.10835e-07
-8.87697e-08
-1.59877e-08
-7.97767e-10
-0.000172632
0.000187768
0.000226335
0.000256616
0.00027452
7.82087e-06
-0.00697328
0.000303499
0.00573605
-0.000293751
0.00522193
0.000359368
0.00452046
-0.000275694
-0.00392234
-0.00588566
0.00695236
-0.000123593
-0.000143128
-6.47227e-05
0.000278943
0.000418302
0.000618805
0.0003395
0.000316619
0.000253425
0.000191704
0.000171571
8.31595e-05
0.000138493
5.01736e-05
-3.14838e-05
-0.000679943
-0.00060522
-0.000302898
0.00211742
0.000221862
0.00200149
-0.000165371
-0.000326284
0.00331904
-0.000162062
0.000153605
0.000184669
0.000201898
0.000203296
0.000154243
-8.71679e-05
-6.57575e-05
-0.000375575
-0.00669275
-0.00606092
0.00726528
0.00793822
0.00843724
0.000299799
-0.00918392
2.86711e-05
0.0113354
0.000153467
0.000467628
0.0149111
0.00216424
0.00130161
-0.0362562
0.0205871
0.0179062
-0.00167461
0.00723005
0.0121314
0.021376
0.0179007
-0.00890722
0.0176926
0.0197386
0.0179775
-0.00927124
0.0174853
0.01248
0.012451
0.00198774
0.00388071
0.00297365
0.00205901
0.00127425
0.00126418
0.000658571
6.78987e-06
-0.000113212
-2.79911e-05
-0.0088671
0.00978867
0.000137319
-0.0114719
0.00423494
0.00222079
0.00132824
0.000818809
0.000803212
0.000356795
0.00048051
0.000268933
0.00430257
-0.0037362
0.000237952
0.00284037
-0.000151481
-0.00268533
-0.0027516
-3.42537e-05
0.00298028
-1.93347e-05
-0.000145873
-0.000107852
0.000159087