/*--------------------------------*- C++ -*----------------------------------*\
| =========                 |                                                 |
| \\      /  F ield         | OpenFOAM: The Open Source CFD Toolbox           |
|  \\    /   O peration     | Version:  2306                                  |
|   \\  /    A nd           | Website:  www.openfoam.com                      |
|    \\/     M anipulation  |                                                 |
\*---------------------------------------------------------------------------*/
FoamFile
{
    version     2.0;
    format      ascii;
    arch        "LSB;label=32;scalar=64";
    class       volVectorField;
    location    "2";
    object      flux;
}
// * * * * * * * * * * * * * * * * * * * * * * * * * * * * * * * * * * * * * //

dimensions      [0 1 -1 1 0 0 0];

internalField   nonuniform List<vector> 
5322
(
(-0.00100651 0.00260032 -0.00348809)
(2.28637e-05 0.000244235 -0.00356111)
(2.79032e-05 -1.78102e-05 -0.00367671)
(3.20373e-06 -0.000109278 -0.00398568)
(-5.01017e-07 -6.05874e-05 -0.00395473)
(-6.57908e-07 -2.15167e-05 -0.00394359)
(4.4012e-08 -7.59986e-07 -0.00394044)
(5.50015e-07 1.92827e-05 -0.0039439)
(3.39049e-07 5.66375e-05 -0.00395548)
(-8.13903e-07 0.000103416 -0.00398802)
(-4.02436e-06 9.28758e-07 -0.00394261)
(4.402e-05 -0.000770571 -0.00395384)
(6.78064e-05 -0.00085645 -0.00297559)
(-0.000933871 -0.000768758 -0.00410233)
(-2.4738e-05 -0.000667345 -0.00448576)
(0.00162528 0.00144425 -0.00358079)
(-0.00127711 0.00193182 -0.00423276)
(-2.01488e-05 -2.97228e-06 -0.00316881)
(-0.000974395 0.00133397 -0.00446153)
(0.000628073 -0.00158143 -0.00450219)
(-0.000853912 0.00150402 -0.00453048)
(0.000742637 -0.00152787 -0.00451002)
(-0.000785477 0.00149873 -0.004512)
(0.000789653 -0.0015338 -0.00453569)
(-0.000799822 0.00152841 -0.00453516)
(0.000768179 -0.00149929 -0.00451001)
(-0.000769801 0.00149777 -0.00451129)
(0.000798436 -0.00152894 -0.00453216)
(-0.000786487 0.0015246 -0.0045335)
(0.000786528 -0.00150585 -0.00451088)
(-0.000746316 0.00151515 -0.0045097)
(0.00084762 -0.00151506 -0.00451807)
(-0.000636778 0.0015644 -0.00448668)
(0.000970181 -0.00134384 -0.00441495)
(1.37212e-05 0.00128911 -0.00419743)
(0.00121728 -0.00064434 -0.00344583)
(0.000858201 0.00126586 -0.00391928)
(-0.000342231 0.00158907 -0.00399449)
(0.000961996 0.0007937 -0.00412327)
(-5.52293e-05 0.000859294 -0.00290361)
(-0.000912335 0.00117278 -0.00383444)
(0.000917467 0.000979502 -0.0039572)
(-5.55415e-05 0.00101383 -0.00285156)
(-0.00097613 0.00109469 -0.00396306)
(0.000970066 0.00104368 -0.00392432)
(-3.33781e-05 0.00103331 -0.00289892)
(-0.00103753 0.00106032 -0.00401797)
(0.000906023 0.00113277 -0.00379269)
(-2.29124e-05 0.00104948 -0.0028603)
(-0.00108741 0.00100227 -0.0039284)
(-0.00107277 0.00125735 -0.00439957)
(-0.00155797 0.00060886 -0.00315725)
(-0.000486613 0.000681533 -0.00429656)
(0.00104485 -0.00224655 -0.00403686)
(-6.66237e-05 -0.0001226 -0.00378516)
(-0.00172544 -0.00129996 -0.00383806)
(-4.90194e-05 0.000683264 -0.00455263)
(0.00164899 -0.00170482 -0.00377858)
(-1.97875e-05 -9.70497e-05 -0.00382479)
(-0.00164779 -0.0014817 -0.00384214)
(-7.10389e-06 0.000693783 -0.00460815)
(0.00160592 -0.00167657 -0.00382951)
(-9.27667e-06 -8.66505e-05 -0.00382636)
(-0.0016185 -0.00147069 -0.00374738)
(-5.87663e-07 0.000696577 -0.00460491)
(0.00158132 -0.00173497 -0.00395823)
(2.00806e-05 -0.000111601 -0.00380811)
(-0.00160282 -0.00142231 -0.00355903)
(6.89924e-05 0.000703047 -0.00449552)
(0.00131258 -0.00190861 -0.00420212)
(5.2085e-05 6.72387e-05 -0.00315422)
(-0.00140126 0.00167732 -0.00491567)
(0.00158773 0.000934286 -0.00468165)
(-0.00164326 0.0013052 -0.00461509)
(0.00158192 0.00097497 -0.00466411)
(-0.00161094 0.00123481 -0.00464142)
(0.00161408 0.00103038 -0.00463902)
(-0.00161073 0.00122938 -0.00462269)
(0.0018336 0.00104384 -0.00468292)
(-0.00132107 0.00144412 -0.00443393)
(0.000647346 0.000131548 -0.00421777)
(-0.000855056 0.000485518 -0.00324198)
(-0.000552866 0.000733833 -0.00336044)
(0.000960078 0.00122158 -0.00454267)
(9.97968e-05 -0.000103994 -0.00309821)
(-0.000544341 -0.000510469 -0.00411901)
(0.00063584 0.000145201 -0.00555851)
(-0.00171195 0.000285558 -0.00339521)
(-0.000646204 0.000528781 -0.00348076)
(0.00204061 6.06253e-05 -0.00312808)
(-8.77311e-05 0.000138403 -0.00395582)
(3.82155e-05 2.55743e-05 -0.00353802)
(7.05242e-05 4.03971e-06 -0.00373296)
(0.00031845 4.75407e-06 -0.00370341)
(0.00146374 0.00177794 -0.00449584)
(-0.000340384 -0.000949171 -0.00389304)
(-4.1656e-05 2.85941e-05 -0.00387967)
(-0.00016787 0.000956971 -0.00394892)
(0.000655596 2.59786e-05 -0.00565712)
(-0.00151806 -2.4947e-05 -0.0033044)
(-0.00151965 0.000130525 -0.0033321)
(0.00339606 2.55696e-05 -0.0031792)
(-0.000165039 0.00101326 -0.00397883)
(0.001129 -0.00173341 -0.00444293)
(0.00183766 0.00155118 -0.00483318)
(-2.29444e-05 2.08975e-05 -0.00376511)
(1.10704e-05 -2.96456e-05 -0.00399445)
(1.51648e-05 -5.53142e-06 -0.00400389)
(9.19468e-06 -9.17799e-07 -0.00399107)
(4.49895e-06 1.65496e-06 -0.00399684)
(1.77861e-06 1.88725e-06 -0.00399854)
(-4.92104e-07 2.31873e-06 -0.00399744)
(-4.72844e-06 5.29522e-06 -0.00399313)
(-1.15924e-05 1.06288e-05 -0.00400709)
(1.82269e-05 -1.80332e-05 -0.00461399)
(-6.14865e-06 4.72885e-06 -0.00456926)
(-0.000536618 0.000549297 -0.00319756)
(-0.000529464 -0.000225943 -0.00346496)
(5.60409e-05 -7.76255e-05 -0.00461516)
(0.00033746 -0.000423949 -0.00381884)
(1.9169e-05 0.000521427 -0.00338501)
(0.000514847 -0.000290217 -0.00411718)
(-0.000615822 -0.000565515 -0.00405947)
(-4.61398e-05 -0.000773565 -0.00571911)
(-0.000141829 -0.000874139 -0.00426024)
(0.000954671 -3.52171e-05 -0.00560008)
(0.00078531 0.000640715 -0.00402085)
(0.000218395 -0.000483484 -0.00419855)
(0.000614024 4.53062e-05 -0.00550397)
(0.000396936 0.00052804 -0.00400387)
(0.000301846 -0.000525944 -0.0041092)
(0.000659244 2.21546e-05 -0.00555367)
(0.000332853 0.000548918 -0.0040659)
(0.000357092 -0.000562839 -0.00403267)
(0.000670719 -1.77831e-05 -0.00557905)
(0.000291399 0.000512642 -0.00412339)
(0.000561943 -0.000614962 -0.00405766)
(0.000762428 -4.89675e-05 -0.00572813)
(0.000864281 -0.000141926 -0.00426336)
(3.71277e-05 0.000941485 -0.00560046)
(-0.000633526 0.000779984 -0.00403085)
(3.49302e-05 -0.000511187 -0.00339653)
(0.000422009 0.00033892 -0.00381922)
(-0.000511272 0.000263461 -0.00341646)
(-0.000548524 -0.000538858 -0.0032035)
(7.84067e-05 5.80665e-05 -0.00461571)
(0.000226659 -0.000527979 -0.00346511)
(0.000124715 0.000414143 -0.00344075)
(-0.000429286 0.000425611 -0.00316097)
(-0.000471817 -0.000469302 -0.0031818)
(8.82745e-05 -7.09832e-06 -0.00460657)
(0.000140548 -0.000437933 -0.00344546)
(0.000169388 0.000439545 -0.00343214)
(-0.000465587 0.000474445 -0.00316276)
(-0.000441753 -0.000426224 -0.00318943)
(8.90056e-05 -1.43273e-06 -0.00460537)
(9.2398e-05 -0.000407401 -0.00345237)
(0.000268192 0.00051719 -0.00341484)
(-0.00051101 -3.37377e-05 -0.00339536)
(0.000666741 -2.5513e-05 -0.00448507)
(-0.00143727 0.00162525 -0.00357553)
(-0.00192653 -0.00127377 -0.00423829)
(0.00166035 0.00140847 -0.00492845)
(-0.00194432 -0.00149562 -0.0048171)
(-8.14158e-05 5.05639e-05 -0.00305605)
(-0.00133785 -0.000965199 -0.00446238)
(1.07278e-05 -2.06605e-05 -0.0031691)
(0.00130424 -8.82427e-06 -0.00429264)
(-0.000313241 -0.000180644 -0.00293918)
(0.00155449 0.000466315 -0.00397491)
(0.000770591 -0.000933017 -0.0041073)
(0.00114908 0.000928299 -0.00381532)
(-0.00172202 -0.00155827 -0.00395081)
(0.000671967 3.55537e-06 -0.00458565)
(-0.00148377 0.00159161 -0.0037719)
(0.000987093 -0.00157236 -0.00464524)
(0.00128692 0.00163703 -0.00461276)
(-0.001574 -0.00167296 -0.00445481)
(3.52477e-05 6.95951e-06 -0.00372316)
(-0.00133821 0.00164814 -0.00444709)
(0.00117777 -0.00168852 -0.00455174)
(0.00146605 0.00175132 -0.00456113)
(-0.00155798 -0.00174593 -0.00451953)
(-9.71573e-06 6.49906e-06 -0.00378133)
(-0.0013058 0.00170717 -0.00452472)
(0.00124272 -0.00171881 -0.00453873)
(0.00151823 0.00177422 -0.0045445)
(-0.001556 -0.00176681 -0.00452922)
(-3.10943e-06 3.98221e-06 -0.00379478)
(-0.00129841 0.00172567 -0.00453337)
(0.00126474 -0.00172996 -0.00453859)
(0.00153596 0.00178215 -0.00454255)
(-0.00156484 -0.00177452 -0.00452919)
(2.11348e-07 3.3487e-06 -0.00380024)
(-0.00130637 0.00173375 -0.00453498)
(0.00126265 -0.00173928 -0.00454079)
(0.00153901 0.00179128 -0.00454682)
(-0.00158753 -0.00177754 -0.00452372)
(1.74178e-06 4.3524e-06 -0.00380445)
(-0.00132868 0.0017371 -0.00453294)
(0.00124211 -0.00175003 -0.00454513)
(0.00153081 0.00180316 -0.00455538)
(-0.00162233 -0.00177323 -0.00451422)
(4.07809e-06 5.73268e-06 -0.00380697)
(-0.00135703 0.0017304 -0.00452735)
(0.00120224 -0.00175501 -0.00454323)
(0.0015095 0.00180785 -0.00455872)
(-0.0016499 -0.00173666 -0.0045074)
(9.70034e-06 7.37182e-06 -0.00379467)
(-0.00136394 0.00168692 -0.00452607)
(0.001129 -0.00173668 -0.00446292)
(0.00140944 0.00175118 -0.00447765)
(-0.000307757 -0.000949045 -0.00394005)
(0.000626321 -4.25982e-06 -0.00566028)
(-0.00150687 -6.99273e-05 -0.00330567)
(-0.00153668 2.90987e-05 -0.00329396)
(0.00341695 -2.82067e-05 -0.00319018)
(-0.0001174 -1.73766e-06 -0.00449355)
(-0.000128639 1.11163e-05 -0.00448123)
(7.8912e-05 1.47355e-05 -0.00373327)
(0.000343718 4.24622e-08 -0.0037044)
(0.00145427 0.00178177 -0.00448198)
(-0.00026874 -0.000944726 -0.00392396)
(-2.679e-05 7.978e-06 -0.00383211)
(-0.00029955 0.00112617 -0.00397388)
(0.000596599 -0.000152984 -0.0056402)
(-0.00153534 -4.49725e-05 -0.00332329)
(-0.00151011 3.71129e-05 -0.00329335)
(0.00339738 -5.54402e-05 -0.00319604)
(-0.000198913 0.000954146 -0.0039257)
(0.00112932 -0.00175462 -0.00446833)
(-4.29198e-05 1.01854e-05 -0.0038782)
(1.86632e-05 7.80846e-06 -0.00392369)
(1.81983e-05 2.19567e-05 -0.00399697)
(1.17158e-05 1.42109e-05 -0.00399035)
(6.09929e-06 7.58945e-06 -0.00399857)
(2.6452e-06 3.41267e-06 -0.00400013)
(-1.63313e-08 2.33728e-07 -0.0039984)
(-4.3671e-06 -4.69209e-06 -0.00399352)
(-1.05318e-05 -1.18274e-05 -0.00400694)
(1.81893e-05 1.75827e-05 -0.00461378)
(-5.63717e-06 -6.32932e-06 -0.00457038)
(0.000426417 -0.000442186 -0.00318347)
(-0.000473315 -0.000470981 -0.00317361)
(0.000471651 -0.000471193 -0.00317115)
(-0.000428415 -0.000443213 -0.00318327)
(8.59818e-07 9.05344e-05 -0.00460481)
(0.000428876 0.000156046 -0.00343189)
(-0.000405327 9.83805e-05 -0.00345117)
(-2.27709e-06 -0.000595453 -0.0034723)
(-0.000510542 0.000312339 -0.00410816)
(2.83513e-07 -0.000631457 -0.00577104)
(-0.000428978 0.000156411 -0.00343285)
(-3.31775e-07 9.07128e-05 -0.00460498)
(0.000404276 9.85682e-05 -0.00345011)
(1.58929e-05 -0.000624054 -0.00573868)
(0.00047681 0.00021732 -0.00418602)
(-3.89443e-05 0.000597102 -0.00548549)
(-0.000515533 0.000385472 -0.00400103)
(1.68639e-06 -0.000595217 -0.00347313)
(0.00050983 0.000312981 -0.00410778)
(-5.26608e-07 0.000648188 -0.00548672)
(-8.58081e-08 0.000905054 -0.00292925)
(0.000903048 0.000955927 -0.00393526)
(-0.00155222 -0.00156576 -0.00377423)
(0.00155036 -0.0015622 -0.00376985)
(-0.00153341 -0.00168132 -0.00395201)
(0.00161422 0.00121971 -0.00460938)
(-0.00165145 -0.00151316 -0.00445558)
(0.00172706 0.00138862 -0.00455839)
(-0.00172179 -0.00148681 -0.00451964)
(0.00174923 0.00143805 -0.0045432)
(-0.00174187 -0.00148099 -0.00452875)
(0.00175703 0.0014557 -0.0045422)
(-0.00174959 -0.00148782 -0.00452887)
(0.00176621 0.00145924 -0.00454742)
(-0.00175252 -0.00150924 -0.00452338)
(0.00177843 0.00145277 -0.00455763)
(-0.00174844 -0.00154481 -0.00451284)
(0.00178485 0.00143755 -0.00456383)
(-0.00171384 -0.00157885 -0.00450275)
(0.00175844 0.00140708 -0.00450571)
(-0.000942143 -0.000309852 -0.00388948)
(1.98236e-05 0.00066757 -0.0056578)
(0.000950989 -0.000212429 -0.00396407)
(2.56353e-05 -3.68169e-05 -0.00387824)
(-0.00171542 0.00121818 -0.00445251)
(0.00166803 -0.00145396 -0.00453689)
(8.65772e-06 1.40837e-05 -0.00379662)
(-0.00173373 0.00130354 -0.00454175)
(0.0017086 -0.00145907 -0.00453291)
(5.88072e-06 6.40782e-06 -0.0038087)
(-0.0017286 0.00134737 -0.00454705)
(0.00171427 -0.00143356 -0.00453513)
(3.89985e-06 2.92674e-06 -0.00380569)
(-0.00171785 0.00136755 -0.00454353)
(0.00171055 -0.00141089 -0.00453535)
(2.70995e-06 6.47248e-07 -0.00380093)
(-0.00170858 0.00136807 -0.00454143)
(0.00170241 -0.00140118 -0.00453254)
(2.82454e-06 -3.27974e-06 -0.00379505)
(-0.00169777 0.00134478 -0.0045426)
(0.00168425 -0.0014045 -0.0045221)
(4.5351e-06 -1.04365e-05 -0.00378126)
(-0.0016687 0.00127595 -0.00455805)
(0.00162496 -0.00142865 -0.00444231)
(5.1561e-06 3.34085e-05 -0.00372213)
(-0.00155215 0.00106876 -0.00465156)
(9.12709e-07 -9.87002e-05 -0.00381562)
(0.00155162 0.00106782 -0.00464635)
(-0.00162598 -0.00143096 -0.00444732)
(-7.31028e-06 3.34727e-05 -0.00372216)
(-0.00161182 0.00122609 -0.00461409)
(0.00153108 -0.00167164 -0.00395103)
(-2.87818e-06 0.000670909 -0.0045846)
(-0.000910754 0.00110935 -0.00380703)
(-5.91836e-05 0.000829155 -0.00296496)
(0.000926391 0.000776082 -0.00411612)
(-0.00160752 -0.00147474 -0.00358152)
(0.00155209 0.000967424 -0.00466637)
(-0.00163448 -0.0013765 -0.00446464)
(0.00164185 0.00121732 -0.00454968)
(-0.00167131 -0.00134873 -0.00454602)
(0.00166933 0.00129242 -0.00454052)
(-0.00167712 -0.00134478 -0.00454561)
(0.00168137 0.00131649 -0.00454549)
(-0.00167912 -0.00135536 -0.00454135)
(0.00169562 0.00131866 -0.00455328)
(-0.00167866 -0.0013836 -0.00453351)
(0.00171724 0.00130866 -0.00457095)
(-0.00166572 -0.00141748 -0.00450763)
(0.00173859 0.00128626 -0.00459342)
(-0.00160715 -0.00140386 -0.00446032)
(0.00172536 0.00122612 -0.00451702)
(-0.000928454 -0.000202343 -0.00391071)
(-0.00019927 0.000483054 -0.00557529)
(0.000403793 -0.000553276 -0.00412846)
(5.09471e-05 -1.04259e-05 -0.00373674)
(-0.00160143 0.00168074 -0.0047942)
(0.00144139 -0.00205689 -0.00487088)
(2.02029e-05 3.54421e-05 -0.0036738)
(-0.00157817 0.00184696 -0.00488045)
(0.00152547 -0.00201032 -0.00486155)
(2.89445e-06 1.78083e-05 -0.00368766)
(-0.00153048 0.00188155 -0.00487754)
(0.00152427 -0.00193924 -0.00485609)
(-1.884e-06 6.87678e-06 -0.00368078)
(-0.00151211 0.00188274 -0.00486483)
(0.00151377 -0.0019031 -0.00485376)
(-2.65838e-06 1.64005e-06 -0.00367507)
(-0.00150711 0.00188264 -0.00486214)
(0.00151103 -0.00189247 -0.00485705)
(-7.70363e-06 -3.71422e-06 -0.00367176)
(-0.00150287 0.00187968 -0.00486467)
(0.00151356 -0.00189234 -0.00485653)
(-1.9511e-05 -7.82876e-06 -0.00366417)
(-0.00148237 0.00184849 -0.00488442)
(0.00149373 -0.00190896 -0.00481878)
(-4.50447e-05 4.25515e-05 -0.00361317)
(-0.00137994 0.0016438 -0.00492772)
(0.00126348 -0.0019007 -0.00423745)
(2.72365e-05 0.00066693 -0.00448354)
(-0.000457909 0.00154952 -0.00397348)
(0.000779319 0.00137697 -0.0041979)
(0.00128153 -0.000691366 -0.00366252)
(4.08585e-05 0.00131281 -0.00430663)
(0.000159474 -0.000311633 -0.00293083)
(-0.000234277 0.000247375 -0.00334505)
(0.000655669 0.001573 -0.00380489)
(-0.00202253 -0.00136141 -0.00349287)
(0.0015346 0.00127013 -0.00477522)
(-0.00192437 -0.00119583 -0.00465045)
(-0.00129581 0.00191536 -0.00448012)
(-0.00160218 -0.0016864 -0.00444992)
(4.15936e-05 -1.33606e-05 -0.00371299)
(0.00105505 -0.00188739 -0.00461518)
(0.00116691 0.00160983 -0.00468221)
(-0.00168005 -0.00164692 -0.0036355)
(0.000649726 4.83852e-05 -0.00460415)
(-0.00150776 0.00173391 -0.00404396)
(-0.000112046 7.74011e-05 -0.00384607)
(8.07793e-05 3.35845e-05 -0.00378055)
(-0.00061033 -0.000490705 -0.0055723)
(5.22172e-05 4.81157e-05 -0.00449631)
(-2.46439e-05 -3.9403e-05 -0.00426287)
(-0.000647527 2.57439e-05 -0.00572117)
(6.60445e-05 -9.40933e-06 -0.00410124)
(-0.000104556 -3.37197e-06 -0.00382339)
(-0.00152978 0.00158524 -0.00390477)
(-0.00165913 -0.00158835 -0.00379493)
(0.00119703 0.00158947 -0.00465127)
(-0.00155224 -0.00165235 -0.00444222)
(1.99481e-05 2.67649e-07 -0.00376182)
(0.00141618 0.00170466 -0.00456128)
(-0.00154372 -0.00171558 -0.00452205)
(0.00149076 0.00173518 -0.00454501)
(-0.00154495 -0.0017347 -0.00453269)
(1.09577e-05 1.20211e-06 -0.00373969)
(0.00151828 0.00174791 -0.00454514)
(-0.00155638 -0.00174138 -0.00453297)
(0.0015233 0.00176021 -0.00455042)
(-0.00158094 -0.00174193 -0.00452716)
(5.91425e-05 1.41839e-06 -0.00372951)
(0.0015124 0.0017742 -0.00455932)
(-0.00161003 -0.00173172 -0.00451566)
(0.00148184 0.00177881 -0.00456031)
(-0.00161461 -0.00168781 -0.0045104)
(0.000333494 -2.7347e-06 -0.00370841)
(7.79965e-05 2.30036e-06 -0.00373728)
(5.00524e-05 3.80455e-06 -0.00374287)
(5.26711e-05 1.26988e-05 -0.00374323)
(2.53561e-05 7.12699e-06 -0.00375032)
(6.21304e-05 4.59639e-06 -0.0037364)
(0.00156324 0.00179013 -0.00457396)
(-0.00165213 -0.00172921 -0.00451604)
(1.27621e-05 9.113e-06 -0.00380135)
(-0.00134003 0.00204487 -0.00455491)
(0.00110393 -0.00201996 -0.00450944)
(0.00153904 0.00180942 -0.00458467)
(-0.00162056 -0.00167077 -0.00448658)
(2.8979e-05 1.75181e-05 -0.00378185)
(-0.00142282 0.00202934 -0.00457175)
(0.00098903 -0.00192865 -0.00438946)
(0.00197664 0.00122912 -0.00488716)
(-0.000232751 -0.000855167 -0.00375198)
(3.72516e-05 -0.00136583 -0.00552903)
(-0.00164772 -9.27963e-05 -0.00335973)
(-0.00152054 -2.1076e-05 -0.00321474)
(0.00321547 -0.00049372 -0.00326924)
(-0.000199574 -0.000126848 -0.00432577)
(5.35247e-05 3.82686e-05 -0.00351255)
(9.00884e-05 0.000908761 -0.00312672)
(-0.000981457 0.00118625 -0.00456931)
(0.000224589 9.4612e-05 -0.00306061)
(0.000771815 -0.00193289 -0.00439986)
(-0.000798862 0.00146867 -0.00456327)
(6.56401e-05 1.45998e-05 -0.00305699)
(0.000828607 -0.0016396 -0.00449421)
(-0.000751665 0.00149871 -0.00453792)
(1.03982e-05 -3.26307e-06 -0.00305014)
(0.000806786 -0.00154298 -0.00453009)
(-0.000771469 0.00151833 -0.00453986)
(-1.43508e-06 6.77158e-07 -0.00304872)
(0.00077166 -0.00149061 -0.00451699)
(-0.000748903 0.00151324 -0.00451174)
(-1.99808e-05 -1.06718e-05 -0.00305093)
(0.000803285 -0.00148961 -0.00453484)
(-0.000724434 0.00157234 -0.00451149)
(-4.91546e-05 -2.69177e-05 -0.0030565)
(0.000847197 -0.00142069 -0.00452539)
(-0.000570035 0.00160564 -0.00447835)
(-8.2246e-05 -0.000100964 -0.0030542)
(0.00100159 -0.00126752 -0.00448525)
(0.000380324 0.000411422 -0.0034371)
(0.000281282 0.000618579 -0.00331388)
(-7.39628e-05 -0.000762853 -0.0041284)
(-3.85177e-05 6.42525e-06 -0.0036044)
(0.000394297 0.00124611 -0.00401692)
(-0.000173373 -0.00106059 -0.00416553)
(0.00177599 0.00124472 -0.00464456)
(-0.0018975 -0.00121694 -0.0046929)
(0.00185417 0.00123561 -0.00465037)
(-0.00189331 -0.00122261 -0.00467755)
(-0.00122575 0.00198923 -0.00453601)
(-0.00158945 -0.00174368 -0.00454525)
(-3.74159e-06 -4.1225e-06 -0.0037871)
(0.00121324 -0.00199417 -0.00455273)
(0.00153079 0.00173774 -0.00454996)
(-0.00158841 -0.00173273 -0.00453971)
(-8.77365e-06 -1.04178e-05 -0.00377615)
(-0.00123076 0.00197157 -0.00452612)
(1.03895e-05 -1.112e-07 -0.00375358)
(9.11229e-07 -4.43534e-06 -0.00355143)
(1.34098e-05 -2.90233e-06 -0.00356389)
(-1.29105e-06 -0.000114346 -0.00316849)
(2.63917e-05 2.59106e-05 -0.0036944)
(0.000101883 0.000159577 -0.00358617)
(9.43037e-05 0.000173333 -0.00344027)
(0.000171309 7.05817e-05 -0.00401058)
(-5.00387e-05 3.01999e-05 -0.00398143)
(2.70936e-05 9.98127e-05 -0.00394039)
(0.000713357 7.0693e-05 -0.00397694)
(0.00113347 -9.1031e-05 -0.00308831)
(0.000945315 0.00147379 -0.00503236)
(0.000319518 0.000472472 -0.00278716)
(0.00143724 0.000102724 -0.00374147)
(0.000572102 0.000352688 -0.00397236)
(0.000268234 7.52933e-05 -0.00388204)
(7.99762e-05 2.26313e-05 -0.00389804)
(5.12347e-05 1.57798e-05 -0.00401048)
(-2.31182e-05 5.24572e-06 -0.00395004)
(-1.47052e-05 2.93123e-06 -0.00393764)
(1.4778e-05 4.14238e-06 -0.00401604)
(2.40298e-05 4.04321e-06 -0.0038975)
(-0.000225511 -0.00111885 -0.00416158)
(-3.47981e-06 1.21092e-06 -0.00365819)
(0.000259917 0.00114187 -0.00411787)
(-0.000239995 -0.00112872 -0.00413158)
(0.00187747 0.00123236 -0.00466878)
(-0.00190182 -0.00122582 -0.00466369)
(0.00188854 0.00124437 -0.00468066)
(-0.00193888 -0.00122799 -0.00465002)
(-0.00127173 0.00201895 -0.00454426)
(-0.00162843 -0.00174517 -0.00453583)
(4.46301e-06 3.24224e-06 -0.00379788)
(0.00120335 -0.00200377 -0.00454745)
(0.00156974 0.00176764 -0.00455924)
(-0.00160225 -0.00174708 -0.004543)
(5.41282e-07 -2.29881e-07 -0.00379241)
(-0.00123811 0.00200085 -0.00454068)
(1.80093e-05 3.87864e-06 -0.00374365)
(7.96773e-06 4.01595e-06 -0.00355054)
(2.01193e-06 -4.7118e-07 -0.00355001)
(1.3783e-06 -1.16011e-05 -0.00315365)
(3.47085e-06 -5.49249e-06 -0.00368167)
(6.15919e-06 1.73973e-05 -0.0036415)
(9.79746e-06 1.25956e-05 -0.00348625)
(7.8812e-06 2.32693e-06 -0.00368146)
(2.10558e-05 5.39773e-05 -0.0035602)
(3.20878e-05 3.86995e-05 -0.00341831)
(0.000305739 0.00116679 -0.00410711)
(-5.34272e-06 5.67722e-06 -0.00365465)
(-1.99833e-06 -5.37319e-05 -0.00315736)
(-9.82982e-06 -4.65553e-06 -0.00398347)
(1.68305e-06 -7.80772e-05 -0.00400174)
(4.07341e-06 1.0086e-05 -0.00395722)
(-4.03753e-05 0.000775418 -0.00395642)
(9.37003e-05 0.00148067 -0.00373314)
(-0.0010804 0.00272169 -0.00362386)
(-2.70486e-06 0.00028527 -0.00359826)
(1.48466e-05 -4.1403e-05 -0.00316108)
(6.99662e-07 -1.92495e-05 -0.00393968)
(-1.46289e-05 -7.38502e-05 -0.00388833)
(0.00165171 -0.00150358 -0.00445307)
(-2.84568e-07 6.57073e-06 -0.00375614)
(-0.00172633 0.00139907 -0.00456198)
(0.00166851 0.00127334 -0.00455393)
(-0.00168439 -0.00140523 -0.0045258)
(-5.9329e-06 -1.03498e-05 -0.0037819)
(0.0017243 -0.00148133 -0.00451832)
(1.27589e-08 1.09686e-05 -0.00373831)
(-0.00174898 0.00144704 -0.00454525)
(0.001699 0.00134257 -0.0045406)
(-0.00170121 -0.00140048 -0.00453387)
(-2.47243e-06 -3.12271e-06 -0.00379606)
(0.00174605 -0.00148092 -0.00452981)
(9.8715e-07 9.50846e-06 -0.00373187)
(-0.00175617 0.00145978 -0.00454257)
(0.00171189 0.001368 -0.00454278)
(-0.00170727 -0.00140963 -0.00453322)
(1.09675e-07 8.99443e-07 -0.00380243)
(0.00175607 -0.00149352 -0.00453279)
(1.8853e-06 2.53029e-05 -0.00372741)
(-0.00176462 0.00145562 -0.00454531)
(0.00172407 0.00137181 -0.00454956)
(-0.00170786 -0.00143323 -0.00452694)
(2.57544e-06 3.43108e-06 -0.00380772)
(0.00176242 -0.00152283 -0.00453196)
(1.56275e-06 7.10963e-05 -0.00372109)
(-0.00177552 0.00143214 -0.00454848)
(0.00173825 0.0013617 -0.00456163)
(-0.00169781 -0.00146477 -0.00451262)
(6.19878e-06 7.26244e-06 -0.00381065)
(0.00175999 -0.00156393 -0.00453019)
(-3.39105e-06 0.000173007 -0.00371138)
(-0.00177766 0.00137805 -0.00453773)
(0.0017445 0.00133975 -0.00456881)
(-0.00165509 -0.00148015 -0.00450028)
(9.84336e-06 1.54061e-05 -0.00379534)
(0.00171499 -0.00157866 -0.00453248)
(-1.51332e-05 0.000385775 -0.00369044)
(-0.00174401 0.00128929 -0.00445118)
(0.00171932 0.00128919 -0.00449391)
(-0.000943542 -0.000248253 -0.00393365)
(-1.15502e-06 -3.57792e-05 -0.00387129)
(0.000936902 -0.00028745 -0.00393428)
(-5.74809e-05 0.00339325 -0.00320985)
(-0.000119575 -0.00151568 -0.00330603)
(-0.000125665 -0.00154761 -0.00317704)
(-0.000131157 0.0025069 -0.00301016)
(-0.00164361 0.000651756 -0.00431328)
(0.000410099 0.000270683 -0.00307292)
(0.000365026 -0.0023405 -0.00414796)
(-0.000139949 -0.00048239 -0.00341087)
(-0.000288424 -0.000282325 -0.0032683)
(-0.000143843 0.00120272 -0.00427067)
(-0.00187741 -0.0012556 -0.00437885)
(0.000395461 -2.19293e-05 -0.00368113)
(-0.00048021 2.61739e-05 -0.0038823)
(-0.000804861 -0.000157228 -0.0038821)
(-0.000295026 -0.000189125 -0.00391295)
(-0.000230914 -1.94387e-05 -0.00399323)
(-0.000241692 5.01462e-05 -0.00391597)
(-0.000102908 2.90377e-05 -0.00392512)
(-4.5988e-05 1.18064e-05 -0.00401951)
(7.59226e-06 -1.54223e-05 -0.00390812)
(-1.86322e-06 6.93629e-06 -0.00401873)
(-3.72672e-05 1.10923e-05 -0.00393159)
(-4.65815e-05 3.26309e-06 -0.00390332)
(-2.7318e-05 3.52847e-07 -0.00391388)
(-5.3014e-05 -3.00926e-06 -0.00393006)
(-0.000105202 -1.03189e-05 -0.00396397)
(1.86049e-05 -1.98162e-05 -0.00391631)
(0.000837726 -6.87021e-05 -0.00391972)
(0.000982284 -3.68072e-05 -0.00298244)
(0.000963258 0.000958423 -0.00407346)
(0.00110983 -0.000958843 -0.00360543)
(0.00137252 1.15219e-05 -0.00374963)
(0.00130672 6.1811e-06 -0.00376717)
(0.00102205 -0.000973908 -0.00383971)
(0.00102879 0.00095959 -0.00396755)
(0.000671215 -2.27252e-06 -0.00459631)
(-0.000596923 3.98704e-06 -0.0034651)
(0.000192679 -4.34013e-06 -0.00426954)
(-7.00425e-05 -7.26904e-05 -0.00421587)
(-4.90558e-05 -4.60638e-05 -0.00426129)
(0.000174883 0.000174006 -0.0043242)
(-0.00052042 1.88611e-05 -0.00338767)
(-1.41951e-06 0.000200243 -0.00425584)
(-8.18367e-07 -7.1025e-05 -0.00427111)
(-1.68194e-06 -8.70904e-05 -0.00425085)
(1.31035e-07 9.4126e-08 -0.00460069)
(-0.000328744 0.00032075 -0.00310891)
(-0.000374532 -0.000372845 -0.00312937)
(-0.000371179 0.000374342 -0.00312384)
(-0.00033277 -0.000319554 -0.00311887)
(0.000329887 -0.000323492 -0.00310885)
(-0.000280034 -0.000276541 -0.00309784)
(1.03953e-05 1.03197e-05 -0.00460759)
(0.000372886 0.000371217 -0.00311883)
(-0.000321771 0.000334068 -0.00311556)
(-0.000323082 -0.000333465 -0.00311665)
(1.03138e-05 -9.93894e-06 -0.00460784)
(0.000371518 -0.000374025 -0.00312404)
(-2.26461e-08 -1.50014e-08 -0.0046272)
(5.86523e-08 5.87803e-08 -0.00463256)
(1.63452e-07 2.37607e-05 -0.00462295)
(1.82864e-07 6.74022e-05 -0.00410138)
(-9.82311e-06 6.03291e-05 -0.00409402)
(1.31603e-05 -0.00013373 -0.00380347)
(-6.73587e-06 2.61556e-06 -0.0037509)
(-3.71006e-06 6.90558e-07 -0.00374083)
(-4.7375e-07 3.95063e-06 -0.00374217)
(2.03276e-06 1.13043e-05 -0.00374264)
(5.08265e-06 2.74272e-05 -0.00374102)
(2.1647e-05 1.17952e-05 -0.00354816)
(1.6001e-05 9.60249e-05 -0.00315367)
(8.71246e-06 -7.5438e-05 -0.00366877)
(3.78552e-05 -8.36034e-06 -0.0036284)
(-1.0642e-05 5.46108e-05 -0.00346973)
(0.000226835 0.00120077 -0.00414013)
(-0.000323677 -0.00109558 -0.00411842)
(0.00191752 0.00126481 -0.00472178)
(-0.00197884 -0.0012462 -0.00457623)
(0.00196918 0.00127793 -0.00481964)
(-4.0993e-05 -3.06914e-05 -0.00369636)
(-0.000578511 -0.00113299 -0.00398343)
(-8.64925e-05 3.30006e-05 -0.00339807)
(0.000159354 0.00126982 -0.00417776)
(-1.71862e-05 -4.66571e-06 -0.00368926)
(-3.82857e-05 -5.55192e-05 -0.00391631)
(-2.01943e-05 1.14026e-05 -0.00399727)
(-0.000110407 7.86239e-06 -0.00389267)
(-0.000231097 1.56879e-05 -0.00388176)
(-0.000460847 1.85829e-05 -0.00388594)
(-0.0010531 -1.33896e-05 -0.00402922)
(-0.00107667 -0.000188058 -0.00397629)
(-0.00268316 0.000644467 -0.00391589)
(-0.0012667 -0.000287482 -0.00371889)
(-0.00110763 -0.00123644 -0.00356253)
(-3.77208e-05 -0.000156676 -0.00359572)
(-0.000436723 -0.000148845 -0.00373907)
(0.000343193 -0.00243554 -0.00295022)
(-0.00216819 -0.000671374 -0.00323067)
(-0.00129556 8.56184e-05 -0.00437039)
(-0.000605948 -0.000982415 -0.00395805)
(0.000982193 0.000726352 -0.00414577)
(7.91094e-05 3.33716e-05 -0.00425023)
(5.12733e-05 4.11281e-05 -0.00281517)
(-0.00102716 0.000879266 -0.00351396)
(0.00108704 0.000737572 -0.00370628)
(6.3769e-06 0.000103383 -0.00437952)
(-0.000128592 -8.24918e-05 -0.00291762)
(-0.00112849 0.00097807 -0.00366072)
(0.00109231 0.000878971 -0.00372679)
(1.91095e-06 0.00011146 -0.00440063)
(-0.000143361 -9.94011e-05 -0.00292935)
(-0.00110127 0.000887492 -0.0036147)
(0.0010887 0.00100241 -0.00377058)
(9.39326e-06 0.000103887 -0.00438428)
(-0.000234984 -0.000229127 -0.00298457)
(-0.00105076 0.000736126 -0.00357128)
(0.000776246 0.00102364 -0.00399141)
(-0.000618357 -0.000354659 -0.00545252)
(0.000506466 0.000533601 -0.00406952)
(0.000383932 -0.000465239 -0.003971)
(0.00113354 0.000497244 -0.00499265)
(-0.000532606 -0.00196346 -0.00483946)
(-0.000308273 -0.00106643 -0.00394145)
(0.000168465 0.000192868 -0.00298258)
(0.000682523 -0.000484605 -0.00429675)
(-0.0022332 0.00105604 -0.00403993)
(-0.000124372 -6.36805e-05 -0.00378325)
(-0.0013076 -0.0017312 -0.00383005)
(0.00113911 0.000913253 -0.00380025)
(0.00104925 -1.82473e-05 -0.00286159)
(0.00100145 -0.00108459 -0.00392145)
(0.00125722 -0.00107215 -0.00440153)
(0.000608079 -0.00155879 -0.00315632)
(0.000138214 0.000656163 -0.00422058)
(0.000485822 -0.00085731 -0.0032438)
(0.000734731 -0.000548915 -0.00336342)
(0.0012142 0.000953892 -0.00454424)
(-0.000565828 -0.00197921 -0.00431185)
(0.000116705 -0.000221904 -0.00349095)
(0.000901153 0.00139234 -0.00457515)
(-0.000776022 -0.00171433 -0.00444239)
(8.86674e-07 -4.3843e-05 -0.00358555)
(0.0007888 0.00149217 -0.00454822)
(-0.000799906 -0.00157034 -0.00449874)
(-1.00286e-05 3.50751e-06 -0.00359629)
(0.000765504 0.00150441 -0.00453457)
(-0.000782238 -0.00151411 -0.00451469)
(-5.87139e-06 7.83889e-06 -0.00360317)
(0.00076093 0.00149794 -0.00452649)
(-0.000774122 -0.00149925 -0.00452025)
(-5.14827e-06 8.56737e-06 -0.00360121)
(0.00075865 0.00149722 -0.00452549)
(-0.000779192 -0.0014959 -0.00452114)
(-1.08902e-05 2.31189e-05 -0.00360857)
(0.000733148 0.00150533 -0.00451819)
(-0.000822658 -0.0014865 -0.00452417)
(-6.48765e-05 9.21544e-05 -0.00354866)
(0.000622551 0.00155291 -0.00450397)
(-0.000952686 -0.00133202 -0.00445952)
(-0.000354809 0.000374809 -0.00345986)
(-1.5375e-05 0.00129205 -0.00429447)
(-0.00128333 -0.000721483 -0.00364382)
(-0.000794559 0.00137087 -0.00419265)
(0.000463602 0.00154832 -0.00396877)
(-0.00126437 -0.00192001 -0.00423602)
(0.00139886 0.00163843 -0.00492928)
(-0.00148458 -0.00192696 -0.00481593)
(4.16908e-05 4.42757e-05 -0.00361317)
(-0.00155579 0.0009643 -0.00467516)
(0.00160498 -0.00147544 -0.00357412)
(-2.43789e-05 0.00066619 -0.00448551)
(-0.000925451 0.000772345 -0.00411444)
(5.9107e-05 0.000836149 -0.00296556)
(0.000912128 0.00110926 -0.00380221)
(-0.000902298 0.000954017 -0.00393793)
(3.2013e-06 0.000670421 -0.00458566)
(5.33541e-06 0.00129165 -0.00375541)
(1.56628e-06 0.000769223 -0.00394486)
(1.25806e-06 -6.37011e-06 -0.00394991)
(1.93926e-06 -0.000111977 -0.00399088)
(1.7968e-06 -6.26902e-05 -0.00395503)
(5.76123e-07 -3.92671e-05 -0.00396522)
(1.29113e-06 -2.36409e-05 -0.00395116)
(3.46145e-06 -4.61565e-05 -0.00394195)
(5.1018e-06 -2.43041e-05 -0.00367943)
(1.5358e-05 6.98359e-06 -0.0035711)
(2.27108e-06 2.47843e-05 -0.0034274)
(0.000246315 0.00114684 -0.00415457)
(-0.00025904 -0.00111136 -0.00415717)
(-7.5073e-06 2.89245e-08 -0.00366897)
(-1.88122e-06 1.9422e-06 -0.00365975)
(1.04823e-05 4.44911e-07 -0.00390134)
(1.06542e-06 7.7934e-08 -0.00396728)