/*--------------------------------*- C++ -*----------------------------------*\
| =========                 |                                                 |
| \\      /  F ield         | OpenFOAM: The Open Source CFD Toolbox           |
|  \\    /   O peration     | Version:  2306                                  |
|   \\  /    A nd           | Website:  www.openfoam.com                      |
|    \\/     M anipulation  |                                                 |
\*---------------------------------------------------------------------------*/
FoamFile
{
    version     2.0;
    format      ascii;
    arch        "LSB;label=32;scalar=64";
    class       volVectorField;
    location    "2";
    object      flux;
}
// * * * * * * * * * * * * * * * * * * * * * * * * * * * * * * * * * * * * * //

dimensions      [0 1 -1 1 0 0 0];

internalField   nonuniform List<vector> 
5322
(
(-2.12293e-06 5.40844e-06 -7.19382e-06)
(1.20586e-07 6.53127e-07 -6.55621e-06)
(1.27637e-07 1.73445e-07 -5.49666e-06)
(-1.14842e-09 7.17883e-08 -5.942e-06)
(-8.84146e-09 1.47824e-07 -4.49577e-06)
(-7.59526e-09 1.66232e-07 -3.2733e-06)
(-5.29704e-09 1.44827e-07 -2.29065e-06)
(-3.66149e-09 1.14236e-07 -1.54463e-06)
(-2.65679e-09 8.65526e-08 -1.01391e-06)
(-1.66256e-09 6.0466e-08 -6.70156e-07)
(-8.29545e-10 1.97658e-08 -4.74998e-07)
(4.83414e-09 -8.22845e-08 -4.11657e-07)
(6.82103e-09 -8.21622e-08 -2.90622e-07)
(-9.27067e-08 -7.54016e-08 -4.11974e-07)
(-1.17568e-09 -6.83005e-08 -4.58747e-07)
(1.75359e-07 1.5598e-07 -3.90312e-07)
(-1.3653e-07 2.05424e-07 -4.56708e-07)
(1.85536e-09 -2.34409e-09 -3.64282e-07)
(-1.13235e-07 1.61562e-07 -5.55637e-07)
(1.05686e-07 -2.38192e-07 -6.58541e-07)
(-1.40907e-07 2.6649e-07 -8.31315e-07)
(1.86858e-07 -3.52409e-07 -1.00886e-06)
(-1.97357e-07 4.1081e-07 -1.28477e-06)
(3.00991e-07 -5.45161e-07 -1.57001e-06)
(-3.1282e-07 6.43102e-07 -1.97169e-06)
(4.40425e-07 -8.01802e-07 -2.34899e-06)
(-4.44084e-07 9.30453e-07 -2.89298e-06)
(6.50971e-07 -1.17883e-06 -3.4192e-06)
(-6.54857e-07 1.34805e-06 -4.11653e-06)
(8.8784e-07 -1.61154e-06 -4.72969e-06)
(-8.43844e-07 1.82358e-06 -5.56741e-06)
(1.25557e-06 -2.15282e-06 -6.32031e-06)
(-9.27064e-07 2.46192e-06 -7.22266e-06)
(1.80426e-06 -2.42465e-06 -7.8703e-06)
(1.59823e-07 2.49228e-06 -8.3408e-06)
(2.67877e-06 -1.42402e-06 -7.36171e-06)
(1.90005e-06 2.86483e-06 -8.71495e-06)
(-7.52856e-07 3.48594e-06 -8.58932e-06)
(2.08409e-06 1.76394e-06 -8.85034e-06)
(-1.24217e-07 1.98415e-06 -6.49887e-06)
(-1.97829e-06 2.57617e-06 -8.20096e-06)
(1.98318e-06 2.16468e-06 -8.46586e-06)
(-1.20072e-07 2.32135e-06 -6.37113e-06)
(-2.10851e-06 2.40799e-06 -8.46892e-06)
(2.09813e-06 2.29684e-06 -8.3835e-06)
(-7.15865e-08 2.36669e-06 -6.48471e-06)
(-2.24063e-06 2.3336e-06 -8.59318e-06)
(1.97466e-06 2.49449e-06 -8.1242e-06)
(-4.62519e-08 2.40905e-06 -6.41887e-06)
(-2.35251e-06 2.21683e-06 -8.46317e-06)
(-2.33691e-06 2.79936e-06 -9.68243e-06)
(-3.35411e-06 1.24557e-06 -6.53996e-06)
(-1.11387e-06 1.46355e-06 -9.1556e-06)
(2.11544e-06 -4.49977e-06 -8.07209e-06)
(-1.39711e-07 -2.16699e-07 -7.17341e-06)
(-3.45317e-06 -2.58291e-06 -7.63723e-06)
(-1.0655e-07 1.42693e-06 -9.49207e-06)
(3.28101e-06 -3.36282e-06 -7.48864e-06)
(-3.95948e-08 -1.57831e-07 -7.18265e-06)
(-3.2803e-06 -2.92163e-06 -7.61598e-06)
(-1.41825e-08 1.44798e-06 -9.59005e-06)
(3.19555e-06 -3.30436e-06 -7.58902e-06)
(-1.66258e-08 -1.40253e-07 -7.18066e-06)
(-3.22172e-06 -2.90035e-06 -7.43003e-06)
(3.52443e-09 1.45456e-06 -9.59113e-06)
(3.15338e-06 -3.4281e-06 -7.8622e-06)
(4.73217e-08 -1.93488e-07 -7.15742e-06)
(-3.19088e-06 -2.81465e-06 -7.06858e-06)
(1.69506e-07 1.47615e-06 -9.41318e-06)
(2.63318e-06 -3.82793e-06 -8.39815e-06)
(1.54949e-07 1.13751e-07 -5.96327e-06)
(-2.50409e-06 2.96051e-06 -8.77749e-06)
(2.84435e-06 1.64235e-06 -8.35289e-06)
(-2.93066e-06 2.30346e-06 -8.22809e-06)
(2.82001e-06 1.7124e-06 -8.30566e-06)
(-2.87308e-06 2.17688e-06 -8.26582e-06)
(2.87537e-06 1.81071e-06 -8.26003e-06)
(-2.8773e-06 2.17077e-06 -8.23968e-06)
(3.27808e-06 1.84744e-06 -8.37364e-06)
(-2.405e-06 2.59334e-06 -7.99848e-06)
(1.12934e-06 1.89293e-07 -7.78903e-06)
(-1.75647e-06 1.01752e-06 -6.32191e-06)
(-1.18786e-06 1.48639e-06 -6.55714e-06)
(1.84535e-06 2.35852e-06 -8.3911e-06)
(1.52059e-07 -1.50818e-07 -5.39707e-06)
(-8.06241e-07 -8.44476e-07 -7.42758e-06)
(1.34827e-06 3.14418e-07 -1.08932e-05)
(-3.7305e-06 5.95746e-07 -7.1119e-06)
(-1.17076e-06 1.28267e-06 -7.11854e-06)
(4.08736e-06 1.87485e-07 -6.15792e-06)
(-1.85893e-07 3.45055e-07 -7.59475e-06)
(3.93537e-08 6.13593e-08 -5.34101e-06)
(6.82802e-08 8.41339e-09 -5.62561e-06)
(4.513e-07 8.00802e-09 -5.61664e-06)
(2.39079e-06 2.87407e-06 -7.27236e-06)
(-4.71651e-07 -1.66244e-06 -7.02567e-06)
(3.75793e-08 5.43299e-08 -6.63487e-06)
(-1.67149e-07 1.68054e-06 -7.11831e-06)
(1.38724e-06 5.20512e-08 -1.10743e-05)
(-3.29411e-06 -8.97652e-08 -6.90185e-06)
(-3.28676e-06 3.09476e-07 -6.9861e-06)
(6.73022e-06 5.48034e-08 -6.24366e-06)
(-1.69155e-07 1.79771e-06 -7.17533e-06)
(1.85013e-06 -2.79488e-06 -7.19475e-06)
(3.02107e-06 2.50837e-06 -7.85752e-06)
(7.07702e-08 6.0468e-08 -6.4559e-06)
(3.33123e-08 -5.66561e-08 -6.78106e-06)
(2.49756e-08 -6.92085e-09 -5.99936e-06)
(1.20852e-08 1.69916e-09 -4.54971e-06)
(3.85652e-09 5.48568e-09 -3.32155e-06)
(3.19651e-10 5.0241e-09 -2.32447e-06)
(-9.24567e-10 3.79496e-09 -1.56333e-06)
(-1.42844e-09 2.90785e-09 -1.01935e-06)
(-1.65339e-09 2.26916e-09 -6.6729e-07)
(1.07601e-09 -6.67034e-10 -5.38677e-07)
(-8.47421e-10 8.93925e-10 -4.69452e-07)
(-5.64372e-08 5.78994e-08 -3.37982e-07)
(-5.42737e-08 -2.18656e-08 -3.60472e-07)
(7.21938e-09 -9.31586e-09 -5.1788e-07)
(3.35851e-08 -4.2445e-08 -3.93755e-07)
(1.20344e-09 5.31099e-08 -3.40331e-07)
(4.92387e-08 -2.6286e-08 -4.02062e-07)
(-5.9173e-08 -5.31112e-08 -3.96391e-07)
(-4.64192e-09 -7.41571e-08 -5.51471e-07)
(-1.51511e-08 -8.30952e-08 -4.14348e-07)
(9.21272e-08 -3.20367e-09 -5.40628e-07)
(7.48042e-08 6.21135e-08 -3.92726e-07)
(1.96189e-08 -4.61669e-08 -4.1013e-07)
(5.88802e-08 4.52897e-09 -5.32047e-07)
(3.69167e-08 5.08965e-08 -3.92113e-07)
(2.76068e-08 -5.05114e-08 -4.02333e-07)
(6.32866e-08 2.19659e-09 -5.37326e-07)
(3.06112e-08 5.28289e-08 -3.98348e-07)
(3.29718e-08 -5.42192e-08 -3.95093e-07)
(6.43726e-08 -1.8005e-09 -5.39594e-07)
(2.64856e-08 4.91527e-08 -4.03372e-07)
(5.29077e-08 -5.91733e-08 -3.96981e-07)
(7.32515e-08 -4.87463e-09 -5.53629e-07)
(8.24005e-08 -1.514e-08 -4.15605e-07)
(3.43395e-09 9.10665e-08 -5.41969e-07)
(-6.14921e-08 7.4485e-08 -3.94474e-07)
(2.64215e-09 -5.18254e-08 -3.41893e-07)
(4.24665e-08 3.38744e-08 -3.94419e-07)
(-5.25639e-08 2.62358e-08 -3.55848e-07)
(-5.76356e-08 -5.6571e-08 -3.3887e-07)
(9.58256e-09 7.54672e-09 -5.18577e-07)
(2.20875e-08 -5.41459e-08 -3.60973e-07)
(1.13597e-08 4.21784e-08 -3.59106e-07)
(-4.50121e-08 4.4159e-08 -3.35157e-07)
(-4.96781e-08 -4.89044e-08 -3.37836e-07)
(1.0933e-08 -6.70702e-10 -5.21037e-07)
(1.29953e-08 -4.45705e-08 -3.59658e-07)
(1.62044e-08 4.50589e-08 -3.58365e-07)
(-4.91534e-08 4.97625e-08 -3.35923e-07)
(-4.61148e-08 -4.38504e-08 -3.37705e-07)
(1.10602e-08 -9.16157e-11 -5.20566e-07)
(7.83146e-09 -4.1079e-08 -3.59723e-07)
(2.67269e-08 5.33146e-08 -3.55358e-07)
(-5.18339e-08 -2.4104e-09 -3.41256e-07)
(6.83371e-08 -1.25763e-09 -4.59237e-07)
(-1.55342e-07 1.75563e-07 -3.90177e-07)
(-2.05052e-07 -1.36327e-07 -4.57879e-07)
(2.09461e-07 1.74313e-07 -6.16075e-07)
(-2.81435e-07 -2.21758e-07 -7.11994e-07)
(-1.45316e-08 9.92879e-09 -4.08803e-07)
(-1.6231e-07 -1.12249e-07 -5.56872e-07)
(3.33235e-09 1.75836e-09 -3.64881e-07)
(1.45376e-07 7.32929e-09 -4.6447e-07)
(-3.3596e-08 -1.56626e-08 -2.98757e-07)
(1.53788e-07 4.65086e-08 -3.98685e-07)
(7.56887e-08 -9.27231e-08 -4.1296e-07)
(1.13605e-07 9.26851e-08 -3.84859e-07)
(-1.86564e-07 -1.67895e-07 -4.30618e-07)
(6.91897e-08 6.19096e-10 -4.72097e-07)
(-1.6113e-07 1.72056e-07 -4.12188e-07)
(1.24808e-07 -1.96365e-07 -5.84628e-07)
(1.62179e-07 2.04462e-07 -5.79649e-07)
(-2.3295e-07 -2.49032e-07 -6.66463e-07)
(1.70362e-08 1.34263e-09 -5.05786e-07)
(-1.98013e-07 2.46029e-07 -6.6606e-07)
(2.16379e-07 -3.09175e-07 -8.39323e-07)
(2.69084e-07 3.2086e-07 -8.39875e-07)
(-3.51672e-07 -3.95252e-07 -1.02695e-06)
(1.66716e-08 1.93292e-09 -7.69492e-07)
(-2.94877e-07 3.87737e-07 -1.0289e-06)
(3.50887e-07 -4.85289e-07 -1.29062e-06)
(4.28977e-07 5.02128e-07 -1.29128e-06)
(-5.42024e-07 -6.16603e-07 -1.58603e-06)
(2.65314e-08 2.5371e-09 -1.19415e-06)
(-4.5273e-07 6.04801e-07 -1.58853e-06)
(5.44946e-07 -7.45287e-07 -1.9681e-06)
(6.62659e-07 7.70446e-07 -1.96912e-06)
(-8.20421e-07 -9.31305e-07 -2.38387e-06)
(3.8804e-08 3.76854e-09 -1.81277e-06)
(-6.85654e-07 9.13989e-07 -2.3884e-06)
(8.05234e-07 -1.1069e-06 -2.9058e-06)
(9.82547e-07 1.14409e-06 -2.90898e-06)
(-1.2073e-06 -1.35246e-06 -3.44912e-06)
(5.36804e-08 5.9755e-09 -2.65406e-06)
(-1.01112e-06 1.32674e-06 -3.45791e-06)
(1.1296e-06 -1.58306e-06 -4.12837e-06)
(1.39252e-06 1.63583e-06 -4.13657e-06)
(-1.71846e-06 -1.8794e-06 -4.7904e-06)
(7.31666e-08 8.75584e-09 -3.73146e-06)
(-1.43698e-06 1.83836e-06 -4.80542e-06)
(1.50025e-06 -2.1671e-06 -5.62247e-06)
(1.88146e-06 2.23626e-06 -5.63978e-06)
(-2.33035e-06 -2.45768e-06 -6.38212e-06)
(1.01909e-07 1.24137e-08 -5.01179e-06)
(-1.92305e-06 2.38931e-06 -6.40777e-06)
(1.84732e-06 -2.80299e-06 -7.22242e-06)
(2.30111e-06 2.82643e-06 -7.24033e-06)
(-4.17257e-07 -1.66738e-06 -7.10582e-06)
(1.32728e-06 -1.15675e-08 -1.10744e-05)
(-3.26157e-06 -1.84339e-07 -6.89979e-06)
(-3.3264e-06 9.14217e-08 -6.87851e-06)
(6.76053e-06 -5.69681e-08 -6.26323e-06)
(-2.88915e-07 -2.69685e-09 -8.56648e-06)
(-3.08706e-07 1.56619e-08 -8.54671e-06)
(7.95971e-08 2.49355e-08 -5.62602e-06)
(4.90257e-07 1.92159e-09 -5.62364e-06)
(2.38013e-06 2.87737e-06 -7.25786e-06)
(-3.49093e-07 -1.66052e-06 -7.08387e-06)
(6.17553e-08 8.19854e-09 -6.57542e-06)
(-4.16121e-07 1.99487e-06 -7.20203e-06)
(1.27274e-06 -3.06244e-07 -1.10639e-05)
(-3.31682e-06 -1.31512e-07 -6.9446e-06)
(-3.27116e-06 1.13709e-07 -6.87107e-06)
(6.71938e-06 -1.1257e-07 -6.27853e-06)
(-2.20664e-07 1.67018e-06 -7.07652e-06)
(1.84915e-06 -2.83406e-06 -7.22976e-06)
(3.47146e-08 1.77102e-08 -6.63005e-06)
(5.32853e-08 1.25513e-08 -6.63001e-06)
(2.97247e-08 3.53783e-08 -5.98827e-06)
(1.5869e-08 1.90992e-08 -4.55156e-06)
(6.08269e-09 7.81138e-09 -3.32615e-06)
(1.37777e-09 2.27181e-09 -2.3279e-06)
(-4.79199e-10 -3.43111e-11 -1.56536e-06)
(-1.2637e-09 -1.08274e-09 -1.02043e-06)
(-1.50845e-09 -1.51513e-09 -6.67835e-07)
(1.05822e-09 1.08252e-09 -5.3908e-07)
(-8.16232e-10 -8.21942e-10 -4.69977e-07)
(4.41506e-08 -4.62311e-08 -3.37414e-07)
(-4.93268e-08 -4.95423e-08 -3.37003e-07)
(4.94324e-08 -4.96682e-08 -3.3677e-07)
(-4.40677e-08 -4.62233e-08 -3.37123e-07)
(2.21093e-10 1.13349e-08 -5.20524e-07)
(4.39564e-08 1.48452e-08 -3.58289e-07)
(-4.09041e-08 8.52479e-09 -3.59687e-07)
(-1.92796e-11 -6.04748e-08 -3.50776e-07)
(-4.90576e-08 2.87288e-08 -4.02485e-07)
(8.96945e-11 -6.13018e-08 -5.89949e-07)
(-4.36977e-08 1.47849e-08 -3.58347e-07)
(1.08075e-10 1.13587e-08 -5.20754e-07)
(4.10867e-08 8.64169e-09 -3.59928e-07)
(1.66216e-09 -6.05693e-08 -5.863e-07)
(4.56835e-08 1.96179e-08 -4.09684e-07)
(-3.84043e-09 5.73394e-08 -5.31192e-07)
(-4.96784e-08 3.58934e-08 -3.92317e-07)
(8.07737e-11 -6.04804e-08 -3.51011e-07)
(4.9088e-08 2.88241e-08 -4.0259e-07)
(-6.4435e-12 6.22804e-08 -5.31309e-07)
(5.18811e-11 8.72071e-08 -2.8719e-07)
(9.03042e-08 9.43488e-08 -3.97298e-07)
(-1.67488e-07 -1.69815e-07 -4.1244e-07)
(1.67617e-07 -1.69576e-07 -4.11993e-07)
(-1.65212e-07 -1.82072e-07 -4.30871e-07)
(2.01765e-07 1.54003e-07 -5.79645e-07)
(-2.45878e-07 -2.23798e-07 -6.66769e-07)
(3.16656e-07 2.55292e-07 -8.40147e-07)
(-3.89958e-07 -3.35497e-07 -1.02726e-06)
(4.95338e-07 4.06882e-07 -1.29203e-06)
(-6.08199e-07 -5.15767e-07 -1.58624e-06)
(7.59941e-07 6.28793e-07 -1.97049e-06)
(-9.18624e-07 -7.79839e-07 -2.38415e-06)
(1.1286e-06 9.32694e-07 -2.91137e-06)
(-1.33383e-06 -1.14743e-06 -3.4493e-06)
(1.61418e-06 1.32301e-06 -4.14109e-06)
(-1.85335e-06 -1.63586e-06 -4.7892e-06)
(2.20887e-06 1.79359e-06 -5.64874e-06)
(-2.42529e-06 -2.22946e-06 -6.37541e-06)
(2.84353e-06 2.29938e-06 -7.291e-06)
(-1.65029e-06 -4.18356e-07 -7.02047e-06)
(4.1414e-08 1.41091e-06 -1.10794e-05)
(1.67268e-06 -2.47564e-07 -7.14961e-06)
(4.857e-08 4.47212e-08 -6.63385e-06)
(-2.76875e-06 1.99109e-06 -7.20679e-06)
(2.36394e-06 -2.05179e-06 -6.42563e-06)
(1.41318e-08 1.0795e-07 -5.01567e-06)
(-2.14128e-06 1.62596e-06 -5.62255e-06)
(1.81599e-06 -1.54611e-06 -4.81345e-06)
(8.65358e-09 7.60246e-08 -3.73437e-06)
(-1.5644e-06 1.22561e-06 -4.13182e-06)
(1.30968e-06 -1.09164e-06 -3.46105e-06)
(5.29245e-09 5.50373e-08 -2.65585e-06)
(-1.09394e-06 8.7267e-07 -2.90884e-06)
(9.01928e-07 -7.41017e-07 -2.38955e-06)
(3.13623e-09 3.94118e-08 -1.81376e-06)
(-7.36581e-07 5.89963e-07 -1.97021e-06)
(5.96756e-07 -4.88962e-07 -1.58886e-06)
(1.95928e-09 2.67641e-08 -1.19468e-06)
(-4.79661e-07 3.80062e-07 -1.29228e-06)
(3.82632e-07 -3.17452e-07 -1.02869e-06)
(1.43485e-09 1.67518e-08 -7.69755e-07)
(-3.05679e-07 2.34619e-07 -8.40775e-07)
(2.42654e-07 -2.11572e-07 -6.65543e-07)
(1.05024e-09 1.6978e-08 -5.05802e-07)
(-1.93851e-07 1.35184e-07 -5.85539e-07)
(2.85691e-10 -1.30561e-08 -4.44476e-07)
(1.94337e-07 1.35176e-07 -5.85184e-07)
(-2.4196e-07 -2.11573e-07 -6.66011e-07)
(-7.82044e-10 1.6993e-08 -5.0593e-07)
(-2.01007e-07 1.54675e-07 -5.8015e-07)
(1.6537e-07 -1.8124e-07 -4.3104e-07)
(-3.57434e-10 6.92468e-08 -4.72429e-07)
(-9.09314e-08 1.09808e-07 -3.84472e-07)
(-5.90515e-09 7.97376e-08 -2.90437e-07)
(9.22924e-08 7.63927e-08 -4.14534e-07)
(-1.73516e-07 -1.59347e-07 -3.91199e-07)
(1.93649e-07 1.22505e-07 -5.86408e-07)
(-2.42303e-07 -2.01549e-07 -6.66042e-07)
(3.01425e-07 2.24614e-07 -8.39074e-07)
(-3.77008e-07 -3.01258e-07 -1.03059e-06)
(4.73817e-07 3.6774e-07 -1.29327e-06)
(-5.84533e-07 -4.64787e-07 -1.59019e-06)
(7.29402e-07 5.72561e-07 -1.97646e-06)
(-8.80824e-07 -7.06439e-07 -2.39012e-06)
(1.08774e-06 8.49456e-07 -2.92382e-06)
(-1.27651e-06 -1.04759e-06 -3.45879e-06)
(1.56691e-06 1.20369e-06 -4.16928e-06)
(-1.76476e-06 -1.49744e-06 -4.78967e-06)
(2.16476e-06 1.62587e-06 -5.71169e-06)
(-2.27641e-06 -1.98001e-06 -6.3249e-06)
(2.79819e-06 2.02223e-06 -7.33365e-06)
(-1.63083e-06 -2.34626e-07 -7.06782e-06)
(-4.0004e-07 1.05451e-06 -1.09559e-05)
(6.86172e-07 -8.45764e-07 -7.51321e-06)
(7.67071e-08 8.77553e-08 -6.43228e-06)
(-2.60551e-06 2.79563e-06 -7.86994e-06)
(2.07213e-06 -2.89021e-06 -6.95422e-06)
(1.72055e-08 1.38846e-07 -4.87588e-06)
(-1.95656e-06 2.35225e-06 -6.10776e-06)
(1.63797e-06 -2.10866e-06 -5.17368e-06)
(-6.77037e-09 8.90356e-08 -3.626e-06)
(-1.38503e-06 1.74741e-06 -4.4632e-06)
(1.17139e-06 -1.45418e-06 -3.69976e-06)
(-1.05149e-08 5.89499e-08 -2.57272e-06)
(-9.60907e-07 1.22706e-06 -3.13037e-06)
(8.00712e-07 -9.80559e-07 -2.54751e-06)
(-8.90108e-09 4.06943e-08 -1.75488e-06)
(-6.47348e-07 8.29717e-07 -2.11747e-06)
(5.30156e-07 -6.45597e-07 -1.69212e-06)
(-7.98265e-09 2.71123e-08 -1.15521e-06)
(-4.21878e-07 5.41921e-07 -1.38576e-06)
(3.43317e-07 -4.1697e-07 -1.09425e-06)
(-7.46903e-09 1.73587e-08 -7.44119e-07)
(-2.68881e-07 3.44318e-07 -8.98278e-07)
(2.21857e-07 -2.76131e-07 -7.12189e-07)
(-8.07981e-09 1.8067e-08 -4.88412e-07)
(-1.70586e-07 2.07505e-07 -6.16033e-07)
(1.35527e-07 -2.02414e-07 -4.58236e-07)
(1.57881e-09 6.85269e-08 -4.59823e-07)
(-4.56623e-08 1.53597e-07 -3.99233e-07)
(7.61017e-08 1.34523e-07 -4.12178e-07)
(1.2604e-07 -6.72509e-08 -3.68438e-07)
(-3.46344e-09 1.46001e-07 -4.65608e-07)
(1.36645e-08 -3.34428e-08 -2.98294e-07)
(-2.33047e-08 2.09336e-08 -3.41031e-07)
(7.00474e-08 1.66609e-07 -4.1067e-07)
(-2.1672e-07 -1.45814e-07 -3.82154e-07)
(1.90564e-07 1.55996e-07 -5.96955e-07)
(-2.82408e-07 -1.7679e-07 -6.90123e-07)
(-1.90257e-07 2.8392e-07 -6.67383e-07)
(-2.37024e-07 -2.51042e-07 -6.65759e-07)
(1.79769e-08 -2.35116e-09 -5.02992e-07)
(1.32229e-07 -2.35086e-07 -5.78791e-07)
(1.47284e-07 2.01198e-07 -5.88958e-07)
(-1.82533e-07 -1.78162e-07 -3.97585e-07)
(6.64707e-08 4.36412e-09 -4.72661e-07)
(-1.61919e-07 1.85706e-07 -4.39343e-07)
(-1.48802e-08 7.63335e-09 -4.45535e-07)
(5.90574e-09 1.33567e-09 -4.35069e-07)
(-6.11021e-08 -4.9167e-08 -5.65676e-07)
(4.92221e-09 4.56608e-09 -4.37875e-07)
(-2.5749e-09 -3.88314e-09 -4.16027e-07)
(-6.31247e-08 2.61055e-09 -5.84771e-07)
(1.10157e-09 -1.31232e-09 -4.73459e-07)
(-1.42853e-08 -5.91031e-10 -4.45082e-07)
(-1.66177e-07 1.71307e-07 -4.26595e-07)
(-1.80297e-07 -1.71572e-07 -4.14891e-07)
(1.5124e-07 1.99027e-07 -5.8568e-07)
(-2.303e-07 -2.46174e-07 -6.65808e-07)
(-7.92614e-09 3.85902e-10 -6.21863e-07)
(2.60367e-07 3.13319e-07 -8.41351e-07)
(-3.49082e-07 -3.88369e-07 -1.02883e-06)
(4.2148e-07 4.92187e-07 -1.29287e-06)
(-5.39003e-07 -6.05441e-07 -1.58882e-06)
(-2.70513e-08 1.85897e-09 -1.45657e-06)
(6.5527e-07 7.56939e-07 -1.97186e-06)
(-8.17098e-07 -9.13913e-07 -2.38794e-06)
(9.73126e-07 1.12621e-06 -2.91357e-06)
(-1.20359e-06 -1.32496e-06 -3.45439e-06)
(-3.71714e-09 4.03874e-09 -3.10849e-06)
(1.37723e-06 1.61245e-06 -4.14324e-06)
(-1.70662e-06 -1.8345e-06 -4.7945e-06)
(1.84876e-06 2.20248e-06 -5.64413e-06)
(-2.28109e-06 -2.3888e-06 -6.38783e-06)
(4.72494e-07 -4.07901e-09 -5.6252e-06)
(7.85409e-08 4.27933e-09 -5.62722e-06)
(1.90793e-08 6.8337e-09 -4.28005e-06)
(2.38083e-08 1.94714e-08 -4.28484e-06)
(-1.44587e-08 9.87313e-09 -3.12724e-06)
(-3.22462e-10 1.01368e-08 -3.11809e-06)
(1.42838e-06 1.62959e-06 -4.16506e-06)
(-1.75199e-06 -1.83398e-06 -4.79999e-06)
(8.46528e-08 8.39045e-09 -3.7359e-06)
(-1.42126e-06 2.17937e-06 -4.85116e-06)
(1.39382e-06 -2.51428e-06 -5.61316e-06)
(1.93018e-06 2.24656e-06 -5.68829e-06)
(-2.28991e-06 -2.36641e-06 -6.35799e-06)
(1.31678e-07 2.2158e-08 -5.01143e-06)
(-2.01366e-06 2.8888e-06 -6.50373e-06)
(1.63515e-06 -3.14023e-06 -7.14551e-06)
(3.28382e-06 2.01777e-06 -8.06431e-06)
(-2.76591e-07 -1.52742e-06 -6.89285e-06)
(1.61272e-07 -2.82674e-06 -1.11196e-05)
(-3.57622e-06 -2.17836e-07 -7.10828e-06)
(-3.32351e-06 -1.0576e-09 -6.74181e-06)
(6.42472e-06 -1.01456e-06 -6.48529e-06)
(-4.35455e-07 -2.73204e-07 -8.36063e-06)
(6.48944e-08 4.2153e-08 -5.33923e-06)
(1.17522e-07 1.48191e-06 -4.8515e-06)
(-1.54098e-06 1.81981e-06 -6.695e-06)
(3.02783e-07 1.1839e-07 -4.14094e-06)
(8.99917e-07 -2.43937e-06 -5.62806e-06)
(-9.35401e-07 1.63142e-06 -4.89812e-06)
(6.14345e-08 -3.82873e-09 -3.02516e-06)
(7.05367e-07 -1.4817e-06 -4.14816e-06)
(-6.28496e-07 1.17681e-06 -3.45981e-06)
(1.9968e-09 -2.03499e-08 -2.13424e-06)
(4.76517e-07 -9.70071e-07 -2.92683e-06)
(-4.42117e-07 8.16607e-07 -2.37819e-06)
(-5.85759e-09 -1.41522e-08 -1.45502e-06)
(3.00807e-07 -6.28583e-07 -1.97227e-06)
(-2.88791e-07 5.40032e-07 -1.56519e-06)
(-1.06371e-08 -1.37966e-08 -9.56715e-07)
(2.04155e-07 -4.08763e-07 -1.29176e-06)
(-1.81889e-07 3.61269e-07 -1.00816e-06)
(-1.33246e-08 -1.21912e-08 -6.16356e-07)
(1.39116e-07 -2.50261e-07 -8.28727e-07)
(-9.72095e-08 2.4108e-07 -6.53613e-07)
(-1.4042e-08 -1.7148e-08 -4.07594e-07)
(1.17155e-07 -1.53303e-07 -5.57705e-07)
(4.08759e-08 3.86568e-08 -3.93377e-07)
(2.88135e-08 6.35932e-08 -3.77943e-07)
(-5.17517e-09 -9.84763e-08 -5.1235e-07)
(-2.56252e-09 -5.47288e-09 -4.8231e-07)
(6.09403e-08 1.7583e-07 -5.87684e-07)
(-2.5584e-08 -1.98942e-07 -7.59873e-07)
(3.23464e-07 2.25384e-07 -8.5161e-07)
(-4.2515e-07 -2.75165e-07 -1.06084e-06)
(5.23397e-07 3.47987e-07 -1.32035e-06)
(-6.57005e-07 -4.27827e-07 -1.63527e-06)
(-4.24527e-07 6.93923e-07 -1.58665e-06)
(-5.5376e-07 -6.09342e-07 -1.59249e-06)
(2.70148e-08 -2.8367e-09 -1.19188e-06)
(3.44087e-07 -5.6493e-07 -1.29546e-06)
(4.32966e-07 4.9227e-07 -1.29462e-06)
(-3.58235e-07 -3.92248e-07 -1.03146e-06)
(1.71e-08 -3.04785e-09 -7.67613e-07)
(-2.75756e-07 4.4511e-07 -1.02559e-06)
(-1.24871e-08 1.96708e-09 -9.49213e-07)
(-6.26661e-09 -7.45793e-09 -9.07534e-07)
(-1.74307e-09 -4.20511e-09 -5.91772e-07)
(-5.99762e-09 -1.4554e-08 -5.18469e-07)
(-9.40634e-09 -3.13417e-08 -6.19352e-07)
(1.42071e-08 4.59619e-09 -5.83182e-07)
(9.46463e-09 1.29487e-08 -5.57441e-07)
(1.3366e-09 3.05493e-09 -6.59112e-07)
(-5.39162e-08 1.02362e-08 -6.66821e-07)
(-1.65108e-08 1.28468e-08 -4.74113e-07)
(7.51181e-08 6.7867e-09 -4.13173e-07)
(1.09059e-07 -9.08791e-09 -3.01553e-07)
(9.27022e-08 1.45491e-07 -5.03061e-07)
(3.25539e-08 4.63494e-08 -2.82868e-07)
(1.54504e-07 8.59977e-09 -4.04317e-07)
(5.6432e-08 3.64827e-08 -4.65121e-07)
(4.89786e-08 -4.00315e-10 -5.37626e-07)
(3.96886e-08 -1.3568e-08 -8.01999e-07)
(-3.19489e-08 -9.39679e-09 -1.01434e-06)
(-8.33915e-08 1.12291e-08 -1.0109e-06)
(-1.21625e-07 1.62509e-08 -1.54651e-06)
(-6.02086e-08 -1.58642e-08 -1.5657e-06)
(4.45525e-08 -2.60282e-08 -1.23901e-06)
(-5.56367e-08 -3.23371e-07 -1.18137e-06)
(7.12802e-09 -1.45865e-08 -1.14861e-06)
(1.03063e-07 3.83412e-07 -1.43381e-06)
(-9.20142e-08 -5.01763e-07 -1.79795e-06)
(8.12344e-07 5.3213e-07 -2.02775e-06)
(-9.9572e-07 -6.45687e-07 -2.45646e-06)
(1.21148e-06 7.95826e-07 -3.00662e-06)
(-1.47665e-06 -9.38696e-07 -3.5565e-06)
(-9.66039e-07 1.54195e-06 -3.47091e-06)
(-1.23973e-06 -1.3294e-06 -3.46332e-06)
(5.74191e-08 7.03167e-10 -2.65419e-06)
(7.73246e-07 -1.28225e-06 -2.91932e-06)
(1.00491e-06 1.13136e-06 -2.92336e-06)
(-8.40686e-07 -9.18385e-07 -2.39365e-06)
(4.01678e-08 -1.98988e-09 -1.81096e-06)
(-6.46806e-07 1.05207e-06 -2.39071e-06)
(-1.95804e-08 7.17665e-09 -2.17672e-06)
(-7.10796e-09 -9.71332e-09 -2.07337e-06)
(-8.55729e-09 -9.50652e-09 -1.39236e-06)
(-1.18913e-08 5.34105e-09 -1.22833e-06)
(-2.9462e-08 -9.18901e-08 -1.45036e-06)
(-4.18881e-10 -4.39001e-08 -1.41774e-06)
(-7.5618e-09 -3.10717e-08 -1.35389e-06)
(-1.98625e-08 -5.97782e-08 -9.44587e-07)
(1.55095e-09 -2.18232e-08 -8.9743e-07)
(-1.22704e-09 -1.57841e-08 -8.58958e-07)
(7.6161e-08 2.52459e-07 -9.20736e-07)
(4.13234e-09 -8.77465e-09 -7.3806e-07)
(-9.19602e-09 -6.99082e-09 -7.97894e-07)
(-1.31893e-09 2.9074e-08 -8.217e-07)
(2.3156e-09 -5.62577e-08 -6.72998e-07)
(1.09162e-09 -1.80645e-08 -4.77574e-07)
(-4.37374e-09 8.31604e-08 -4.1296e-07)
(9.52227e-09 1.55594e-07 -4.02196e-07)
(-1.0962e-07 2.82081e-07 -3.78928e-07)
(-5.56358e-09 1.8245e-08 -4.34099e-07)
(-2.26394e-09 -2.47125e-09 -3.63844e-07)
(-7.14638e-10 1.45536e-08 -5.47294e-07)
(-1.46353e-09 4.52312e-09 -5.44191e-07)
(2.46769e-07 -2.22658e-07 -6.66804e-07)
(1.12159e-09 -8.9964e-09 -6.19962e-07)
(-3.15505e-07 2.56905e-07 -8.40543e-07)
(3.06813e-07 2.34409e-07 -8.4056e-07)
(-3.8102e-07 -3.16988e-07 -1.02898e-06)
(-5.58094e-10 1.68068e-08 -7.70096e-07)
(3.92206e-07 -3.34802e-07 -1.02784e-06)
(2.28612e-09 -1.61388e-08 -9.47958e-07)
(-4.9346e-07 4.08963e-07 -1.29239e-06)
(4.82233e-07 3.80086e-07 -1.29277e-06)
(-5.93541e-07 -4.87778e-07 -1.58851e-06)
(2.7027e-10 2.69221e-08 -1.19549e-06)
(6.1278e-07 -5.16838e-07 -1.58863e-06)
(3.76816e-09 -2.45711e-08 -1.45422e-06)
(-7.56681e-07 6.30026e-07 -1.97087e-06)
(7.41887e-07 5.9128e-07 -1.97277e-06)
(-8.95901e-07 -7.39133e-07 -2.38739e-06)
(1.71514e-09 3.97602e-08 -1.81552e-06)
(9.27348e-07 -7.84881e-07 -2.39022e-06)
(6.0895e-09 -2.36279e-08 -2.16687e-06)
(-1.12341e-06 9.30001e-07 -2.91125e-06)
(1.10399e-06 8.7784e-07 -2.91599e-06)
(-1.29905e-06 -1.09014e-06 -3.45375e-06)
(4.40708e-09 5.58574e-08 -2.65913e-06)
(1.34943e-06 -1.16112e-06 -3.46285e-06)
(8.60946e-09 1.20415e-08 -3.10694e-06)
(-1.60648e-06 1.30467e-06 -4.13599e-06)
(1.58131e-06 1.24259e-06 -4.1498e-06)
(-1.79876e-06 -1.55168e-06 -4.79134e-06)
(9.50371e-09 7.77623e-08 -3.73906e-06)
(1.87567e-06 -1.66041e-06 -4.81786e-06)
(5.08554e-09 1.50329e-07 -4.27504e-06)
(-2.19552e-06 1.72145e-06 -5.62205e-06)
(2.16249e-06 1.67581e-06 -5.66081e-06)
(-2.34255e-06 -2.09029e-06 -6.37399e-06)
(1.54231e-08 1.10759e-07 -5.01682e-06)
(2.43513e-06 -2.23203e-06 -6.42728e-06)
(-1.87448e-08 5.65079e-07 -5.61043e-06)
(-2.81727e-06 2.10915e-06 -7.20668e-06)
(2.77782e-06 2.1089e-06 -7.27411e-06)
(-1.65839e-06 -3.12905e-07 -7.09809e-06)
(-3.68016e-09 4.6136e-08 -6.62224e-06)
(1.64469e-06 -3.78907e-07 -7.10148e-06)
(-1.14868e-07 6.72483e-06 -6.3133e-06)
(-2.70076e-07 -3.27674e-06 -6.91757e-06)
(-2.17211e-07 -3.38273e-06 -6.6695e-06)
(-3.23681e-07 5.02033e-06 -6.03769e-06)
(-3.27443e-06 1.32362e-06 -8.28227e-06)
(6.94106e-07 4.72699e-07 -5.47542e-06)
(4.67334e-07 -3.96815e-06 -7.08906e-06)
(-2.54363e-07 -9.23195e-07 -5.39214e-06)
(-5.11777e-07 -5.59494e-07 -5.15997e-06)
(-1.7397e-07 1.72372e-06 -6.2836e-06)
(-2.68889e-06 -1.80827e-06 -6.28842e-06)
(6.11726e-07 -3.45345e-08 -5.65349e-06)
(-1.06315e-06 7.7452e-08 -6.04959e-06)
(-1.45372e-06 -3.30295e-07 -6.10236e-06)
(-2.95961e-07 -3.74035e-07 -5.37741e-06)
(-4.38752e-07 -7.54249e-08 -4.69237e-06)
(-5.67235e-07 1.00602e-07 -4.59907e-06)
(-3.05319e-07 5.5247e-08 -3.31746e-06)
(-1.62715e-07 -2.20937e-08 -3.38422e-06)
(7.76426e-08 -6.31651e-08 -2.76752e-06)
(-9.21808e-08 -2.07561e-08 -2.34359e-06)
(-1.83784e-07 2.81053e-08 -2.3053e-06)
(-1.71663e-07 7.8194e-09 -2.28823e-06)
(-1.1332e-07 4.02889e-09 -1.53927e-06)
(-8.13744e-08 1.76169e-09 -1.00991e-06)
(-5.78503e-08 -3.25377e-10 -6.68112e-07)
(-1.69058e-08 -2.02582e-09 -4.73363e-07)
(8.92641e-08 -7.67461e-09 -4.09651e-07)
(9.46167e-08 -3.76188e-09 -2.91931e-07)
(9.4866e-08 9.56073e-08 -4.10387e-07)
(1.09135e-07 -9.56231e-08 -3.62836e-07)
(1.43762e-07 8.89865e-10 -4.04393e-07)
(1.37202e-07 6.81401e-10 -4.07221e-07)
(1.00879e-07 -9.73542e-08 -3.87705e-07)
(1.01604e-07 9.58947e-08 -4.00518e-07)
(6.90976e-08 -2.30694e-10 -4.73538e-07)
(-6.08338e-08 3.74336e-10 -3.50226e-07)
(1.92072e-08 -3.8295e-10 -4.30069e-07)
(-6.95834e-09 -7.19559e-09 -4.13561e-07)
(-4.83835e-09 -4.57037e-09 -4.16107e-07)
(1.74462e-08 1.73886e-08 -4.33372e-07)
(-5.30058e-08 1.217e-09 -3.41122e-07)
(-1.11317e-10 1.99871e-08 -4.2866e-07)
(-4.34417e-11 -7.02492e-09 -4.17156e-07)
(-1.17267e-10 -8.66583e-09 -4.17233e-07)
(1.07545e-10 -2.4319e-10 -4.73806e-07)
(-3.3776e-08 3.28716e-08 -3.31065e-07)
(-3.88652e-08 -3.86771e-08 -3.33916e-07)
(-3.86481e-08 3.91454e-08 -3.33388e-07)
(-3.40607e-08 -3.24225e-08 -3.3178e-07)
(3.40294e-08 -3.29479e-08 -3.30815e-07)
(-2.79669e-08 -2.76225e-08 -3.28696e-07)
(1.28645e-09 1.28229e-09 -5.25957e-07)
(3.90832e-08 3.89204e-08 -3.32905e-07)
(-3.27607e-08 3.44626e-08 -3.31513e-07)
(-3.27778e-08 -3.41177e-08 -3.31593e-07)
(1.30764e-09 -9.49146e-10 -5.26175e-07)
(3.88305e-08 -3.8911e-08 -3.33406e-07)
(9.15129e-11 1.06097e-10 -4.77489e-07)
(2.02279e-10 2.31251e-10 -5.44918e-07)
(2.23685e-10 1.5379e-09 -5.4175e-07)
(2.01574e-10 1.25602e-09 -4.73985e-07)
(-1.52952e-09 7.59786e-10 -4.72343e-07)
(1.15011e-09 -1.677e-08 -4.42325e-07)
(-5.79639e-10 -7.79994e-09 -6.23734e-07)
(-2.52178e-10 -1.43818e-08 -9.56166e-07)
(7.49975e-10 -2.00716e-08 -1.46661e-06)
(2.88555e-09 -2.18989e-08 -2.18178e-06)
(7.1835e-09 -1.06421e-08 -3.12015e-06)
(5.09459e-09 -4.27498e-09 -2.9689e-06)
(-6.61173e-09 1.03263e-07 -2.64019e-06)
(-4.6809e-08 -2.34652e-07 -3.10874e-06)
(2.60591e-08 -9.97607e-08 -3.0433e-06)
(-2.95388e-08 -2.1324e-08 -2.9063e-06)
(1.94633e-07 8.97134e-07 -3.16633e-06)
(-2.72778e-07 -1.02963e-06 -3.79029e-06)
(1.75776e-06 1.1521e-06 -4.32084e-06)
(-2.11133e-06 -1.3335e-06 -4.89497e-06)
(2.4888e-06 1.59441e-06 -6.05e-06)
(-2.45524e-08 -6.92636e-08 -5.01205e-06)
(-7.09901e-07 -1.48572e-06 -5.08501e-06)
(-1.34111e-07 -5.46964e-08 -3.97285e-06)
(1.97387e-07 1.34192e-06 -4.49827e-06)
(5.04239e-09 -3.45218e-08 -3.65624e-06)
(5.62022e-08 -1.30813e-07 -3.93413e-06)
(9.1191e-08 2.16594e-08 -3.99539e-06)
(-2.86233e-07 1.53651e-08 -3.28201e-06)
(-5.14591e-07 2.97579e-08 -4.52676e-06)
(-9.9468e-07 3.4864e-08 -5.99791e-06)
(-2.30444e-06 -3.1003e-08 -7.74476e-06)
(-2.37187e-06 -3.77179e-07 -7.71955e-06)
(-5.43055e-06 1.29644e-06 -7.75427e-06)
(-2.22021e-06 -6.19029e-07 -6.6033e-06)
(-1.89604e-06 -2.18235e-06 -6.08799e-06)
(-3.46539e-08 -3.35432e-07 -6.42063e-06)
(-7.33343e-07 -4.04122e-07 -7.12398e-06)
(6.76214e-07 -5.09537e-06 -6.03265e-06)
(-4.75794e-06 -1.44081e-06 -6.88965e-06)
(-2.89898e-06 1.87102e-07 -9.95118e-06)
(-1.40595e-06 -2.14813e-06 -8.98076e-06)
(2.08333e-06 1.55327e-06 -8.76076e-06)
(1.666e-07 7.74333e-08 -9.05856e-06)
(8.97941e-08 7.00056e-08 -5.76973e-06)
(-2.13302e-06 1.87698e-06 -7.34642e-06)
(2.24649e-06 1.57096e-06 -7.70542e-06)
(1.49391e-08 2.02049e-07 -9.25805e-06)
(-2.78124e-07 -1.81169e-07 -5.934e-06)
(-2.32802e-06 2.06473e-06 -7.59795e-06)
(2.25417e-06 1.85758e-06 -7.73738e-06)
(4.56387e-09 2.14279e-07 -9.30217e-06)
(-3.07367e-07 -2.16115e-07 -5.95962e-06)
(-2.27294e-06 1.8787e-06 -7.50348e-06)
(2.24766e-06 2.11381e-06 -7.83646e-06)
(1.83588e-08 2.00068e-07 -9.28436e-06)
(-4.93885e-07 -4.84584e-07 -6.10392e-06)
(-2.16972e-06 1.56669e-06 -7.44242e-06)
(1.60441e-06 2.14206e-06 -8.35525e-06)
(-1.37391e-06 -7.64158e-07 -1.159e-05)
(1.19167e-06 1.23294e-06 -9.22596e-06)
(9.08863e-07 -1.07084e-06 -9.02447e-06)
(2.57886e-06 1.14517e-06 -1.14427e-05)
(-1.21274e-06 -4.49111e-06 -1.12228e-05)
(-6.75313e-07 -2.42651e-06 -8.91231e-06)
(3.79682e-07 3.90864e-07 -6.51734e-06)
(1.46584e-06 -1.1106e-06 -9.15671e-06)
(-4.47254e-06 2.13736e-06 -8.07879e-06)
(-2.19047e-07 -1.34428e-07 -7.17024e-06)
(-2.59831e-06 -3.46597e-06 -7.6219e-06)
(2.50829e-06 1.98904e-06 -8.14114e-06)
(2.40823e-06 -3.75107e-08 -6.4225e-06)
(2.21493e-06 -2.34798e-06 -8.44948e-06)
(2.79905e-06 -2.33642e-06 -9.68744e-06)
(1.24393e-06 -3.35689e-06 -6.53847e-06)
(2.01627e-07 1.1451e-06 -7.79417e-06)
(1.01832e-06 -1.76068e-06 -6.32552e-06)
(1.48809e-06 -1.17983e-06 -6.56277e-06)
(2.34456e-06 1.83348e-06 -8.39383e-06)
(-8.19798e-07 -3.24113e-06 -7.14516e-06)
(2.06344e-07 -4.78915e-07 -5.36343e-06)
(1.38272e-06 2.05876e-06 -6.53786e-06)
(-8.9358e-07 -2.11509e-06 -5.57384e-06)
(1.36306e-08 -1.6341e-07 -4.1299e-06)
(9.09176e-07 1.62846e-06 -4.81912e-06)
(-6.71821e-07 -1.40395e-06 -4.11495e-06)
(-1.53711e-10 -8.58401e-08 -2.99404e-06)
(6.34117e-07 1.17179e-06 -3.43677e-06)
(-4.56102e-07 -9.46529e-07 -2.90455e-06)
(2.4038e-09 -6.34976e-08 -2.08924e-06)
(4.37141e-07 8.04013e-07 -2.36387e-06)
(-3.01801e-07 -6.31904e-07 -1.9697e-06)
(2.31824e-09 -4.66218e-08 -1.40018e-06)
(2.91619e-07 5.34396e-07 -1.56966e-06)
(-1.97156e-07 -4.11488e-07 -1.28983e-06)
(2.23111e-10 -2.85984e-08 -9.11691e-07)
(1.84546e-07 3.48106e-07 -1.01329e-06)
(-1.3551e-07 -2.64094e-07 -8.32631e-07)
(-7.66163e-09 -6.4077e-09 -5.80127e-07)
(1.04952e-07 2.34745e-07 -6.60827e-07)