/*--------------------------------*- C++ -*----------------------------------*\
| =========                 |                                                 |
| \\      /  F ield         | OpenFOAM: The Open Source CFD Toolbox           |
|  \\    /   O peration     | Version:  2306                                  |
|   \\  /    A nd           | Website:  www.openfoam.com                      |
|    \\/     M anipulation  |                                                 |
\*---------------------------------------------------------------------------*/
FoamFile
{
    version     2.0;
    format      ascii;
    arch        "LSB;label=32;scalar=64";
    class       volScalarField;
    location    "2";
    object      gradTz;
}
// * * * * * * * * * * * * * * * * * * * * * * * * * * * * * * * * * * * * * //

dimensions      [0 -1 0 1 0 0 0];

internalField   nonuniform List<scalar> 
5322
(
-0.0614857
-0.0560359
-0.04698
-0.0507863
-0.0384254
-0.0279769
-0.0195782
-0.013202
-0.00866588
-0.00572783
-0.00405981
-0.00351843
-0.00248395
-0.00352114
-0.00392092
-0.003336
-0.00390349
-0.00311352
-0.00474903
-0.00562855
-0.00710526
-0.00862272
-0.0109809
-0.0134189
-0.016852
-0.0200768
-0.0247264
-0.029224
-0.035184
-0.0404247
-0.0475847
-0.0540197
-0.0617321
-0.0672676
-0.0712889
-0.0629206
-0.0744867
-0.073413
-0.0756439
-0.0555459
-0.0700937
-0.0723578
-0.0544541
-0.0723839
-0.0716538
-0.0554249
-0.073446
-0.0694376
-0.0548621
-0.0723348
-0.0827558
-0.0558971
-0.078253
-0.0689923
-0.0613112
-0.0652755
-0.0811288
-0.0640054
-0.0613901
-0.0650938
-0.0819662
-0.0648634
-0.0613732
-0.0635045
-0.0819755
-0.0671983
-0.0611745
-0.0604152
-0.0804545
-0.0717791
-0.0509681
-0.0750213
-0.0713922
-0.0703256
-0.0709886
-0.070648
-0.0705985
-0.0704246
-0.0715696
-0.0683631
-0.0665729
-0.0540334
-0.056044
-0.0717188
-0.0461288
-0.0634836
-0.0931044
-0.0607855
-0.0608423
-0.0526318
-0.0649124
-0.0456497
-0.0480821
-0.0480055
-0.0621569
-0.0600485
-0.0567083
-0.0608403
-0.094652
-0.0589902
-0.0597102
-0.0533646
-0.0613276
-0.0614936
-0.0671583
-0.0551786
-0.0579578
-0.0512766
-0.0388864
-0.0283893
-0.0198673
-0.0133618
-0.00871239
-0.00570333
-0.00460407
-0.00401241
-0.00288873
-0.00308096
-0.00442632
-0.00336542
-0.00290882
-0.00343643
-0.00338796
-0.00471342
-0.00354144
-0.00462075
-0.00335664
-0.00350538
-0.00454741
-0.0033514
-0.00343874
-0.00459253
-0.00340468
-0.00337686
-0.00461192
-0.00344762
-0.003393
-0.00473187
-0.00355218
-0.00463222
-0.00337157
-0.00292216
-0.0033711
-0.00304144
-0.00289632
-0.00443228
-0.00308524
-0.00306928
-0.00286459
-0.00288749
-0.00445331
-0.003074
-0.00306295
-0.00287114
-0.00288637
-0.00444928
-0.00307455
-0.00303725
-0.00291672
-0.00392511
-0.00333485
-0.0039135
-0.0052656
-0.00608542
-0.00349404
-0.00475959
-0.00311864
-0.00396983
-0.00255348
-0.00340757
-0.00352957
-0.0032894
-0.0036805
-0.00403502
-0.00352297
-0.00499682
-0.00495426
-0.00569627
-0.00432296
-0.00569282
-0.0071737
-0.00717842
-0.00877733
-0.00657686
-0.00879398
-0.011031
-0.0110366
-0.0135559
-0.0102064
-0.0135772
-0.0168214
-0.0168301
-0.020375
-0.0154938
-0.0204137
-0.0248359
-0.0248631
-0.0294796
-0.0226843
-0.0295548
-0.0352852
-0.0353553
-0.0409436
-0.0318928
-0.041072
-0.0480553
-0.0482032
-0.0545481
-0.0428358
-0.0547673
-0.0617301
-0.0618832
-0.0607335
-0.0946533
-0.0589726
-0.0587906
-0.0535319
-0.0732178
-0.0730488
-0.0480856
-0.0480653
-0.062033
-0.0605459
-0.0562001
-0.0615558
-0.094563
-0.0593556
-0.0587271
-0.0536627
-0.0604831
-0.0617928
-0.0566671
-0.0566668
-0.0511818
-0.0389023
-0.0284287
-0.0198966
-0.0133792
-0.00872167
-0.00570799
-0.00460752
-0.00401689
-0.00288388
-0.00288037
-0.00287837
-0.00288139
-0.00444892
-0.0030623
-0.00307425
-0.00299808
-0.00344004
-0.0050423
-0.0030628
-0.00445089
-0.00307631
-0.00501111
-0.00350157
-0.0045401
-0.00335314
-0.0030001
-0.00344094
-0.0045411
-0.00245461
-0.00339571
-0.00352513
-0.00352131
-0.00368266
-0.00495423
-0.00569888
-0.00718075
-0.00877998
-0.011043
-0.0135576
-0.0168418
-0.0203773
-0.0248835
-0.0294812
-0.0353939
-0.0409333
-0.0482798
-0.0544906
-0.0623163
-0.060004
-0.0946956
-0.0611078
-0.0566995
-0.0615965
-0.0549199
-0.042869
-0.048056
-0.0411406
-0.0319177
-0.0353147
-0.0295816
-0.0226995
-0.0248619
-0.0204235
-0.0155022
-0.0168394
-0.01358
-0.0102109
-0.0110451
-0.0087922
-0.0065791
-0.00718611
-0.00568841
-0.00432309
-0.00500461
-0.00379894
-0.00500157
-0.0056924
-0.00432418
-0.00495854
-0.0036841
-0.00403786
-0.00328608
-0.00248237
-0.00354303
-0.00334359
-0.00501203
-0.00569267
-0.00717158
-0.00880845
-0.0110536
-0.0135914
-0.0168928
-0.0204284
-0.02499
-0.0295623
-0.0356349
-0.0409374
-0.0488179
-0.054059
-0.0626807
-0.0604087
-0.0936404
-0.0642155
-0.0549767
-0.0672644
-0.0594377
-0.0416742
-0.0522031
-0.0442195
-0.0309915
-0.038147
-0.0316219
-0.021989
-0.0267553
-0.0217736
-0.014999
-0.0180981
-0.0144626
-0.00987356
-0.0118441
-0.0093526
-0.00635999
-0.00767759
-0.00608709
-0.00417446
-0.00526524
-0.00391655
-0.00393011
-0.00341225
-0.00352289
-0.00314905
-0.00397955
-0.00254953
-0.0029148
-0.00351
-0.00326627
-0.00510218
-0.00589848
-0.00570413
-0.00569025
-0.00429907
-0.00494693
-0.00503383
-0.00339816
-0.00403984
-0.00375506
-0.00380799
-0.00371854
-0.00483484
-0.00374252
-0.00355578
-0.00499805
-0.00404666
-0.00380412
-0.00364611
-0.00354608
-0.00500581
-0.00569067
-0.00531507
-0.00719103
-0.00879346
-0.0110502
-0.0135797
-0.0124493
-0.0168535
-0.0204097
-0.0249023
-0.0295247
-0.0265683
-0.0354123
-0.0409786
-0.0482404
-0.0545968
-0.0480786
-0.0480959
-0.0365816
-0.0366226
-0.0267285
-0.0266504
-0.0355988
-0.0410256
-0.0319308
-0.0414629
-0.0479757
-0.0486179
-0.0543418
-0.0428327
-0.0555875
-0.0610727
-0.0689257
-0.0589133
-0.0950392
-0.0607545
-0.0576223
-0.0554298
-0.0714584
-0.0456344
-0.0414658
-0.0572222
-0.0353927
-0.0481031
-0.0418643
-0.0258561
-0.0354544
-0.029571
-0.0182414
-0.0250156
-0.0203264
-0.0124361
-0.016857
-0.0133777
-0.00817705
-0.0110407
-0.00861671
-0.005268
-0.00708314
-0.00558643
-0.00348371
-0.00476671
-0.0033622
-0.00323028
-0.00437906
-0.00412231
-0.00502294
-0.00649464
-0.00727872
-0.00906698
-0.011285
-0.0139766
-0.0135611
-0.0136111
-0.010187
-0.0110723
-0.0110651
-0.0088159
-0.0065608
-0.00876573
-0.00811293
-0.0077567
-0.00505788
-0.00443136
-0.00529361
-0.00498447
-0.00476445
-0.00563343
-0.00569933
-0.00405225
-0.00353139
-0.00257738
-0.00429966
-0.00241767
-0.0034557
-0.00397539
-0.0045951
-0.00685469
-0.00866958
-0.00864016
-0.0132181
-0.0133821
-0.0105899
-0.0100972
-0.00981722
-0.0122548
-0.0153671
-0.0173312
-0.0209954
-0.0256976
-0.0303975
-0.0296659
-0.029601
-0.0226854
-0.0249514
-0.024986
-0.0204585
-0.0154783
-0.0204334
-0.0186044
-0.0177211
-0.0119005
-0.0104986
-0.0123962
-0.0121175
-0.0115717
-0.00807339
-0.00767034
-0.00734153
-0.00786954
-0.00630821
-0.00681961
-0.00702308
-0.00575212
-0.00408183
-0.00352957
-0.00343757
-0.0032387
-0.00371025
-0.00310978
-0.00467773
-0.0046512
-0.00569918
-0.00529882
-0.00718413
-0.00718428
-0.00879469
-0.00658202
-0.00878497
-0.0081022
-0.0110461
-0.0110493
-0.013577
-0.0102179
-0.013578
-0.0124293
-0.016845
-0.0168613
-0.0204051
-0.0155173
-0.0204293
-0.0185203
-0.0248825
-0.024923
-0.0295193
-0.0227276
-0.029597
-0.026555
-0.0353503
-0.0354684
-0.0409516
-0.0319577
-0.0411783
-0.0365388
-0.0480517
-0.048383
-0.0544786
-0.0428788
-0.054934
-0.0479524
-0.0615956
-0.0621718
-0.0606674
-0.0566004
-0.0606964
-0.0539598
-0.0591245
-0.0570043
-0.0516042
-0.0707886
-0.0467985
-0.0605903
-0.0460866
-0.0441023
-0.053706
-0.0537471
-0.0483205
-0.0517059
-0.0521569
-0.0459608
-0.0401057
-0.0393083
-0.0283544
-0.028925
-0.023654
-0.0200307
-0.0197034
-0.0195576
-0.0131561
-0.0086317
-0.00571036
-0.00404584
-0.00350129
-0.00249514
-0.00350759
-0.00310116
-0.00345635
-0.00348052
-0.00331372
-0.00342323
-0.00404734
-0.00299339
-0.0036758
-0.00353471
-0.00355647
-0.00370403
-0.00291557
-0.00366376
-0.00356544
-0.00356609
-0.00404963
-0.00282961
-0.00285399
-0.00284947
-0.00283572
-0.00282748
-0.00280937
-0.00449536
-0.00284535
-0.00283345
-0.00283413
-0.00449722
-0.00284962
-0.0040811
-0.00465742
-0.00463034
-0.00405115
-0.00403712
-0.00378055
-0.00533106
-0.00817236
-0.0125351
-0.0186477
-0.0266679
-0.0253752
-0.0225657
-0.0265704
-0.0260111
-0.0248402
-0.0270626
-0.0323957
-0.0369303
-0.0418373
-0.0517094
-0.042838
-0.0434616
-0.033956
-0.0384468
-0.0312499
-0.0336251
-0.0341487
-0.0280513
-0.0386903
-0.0512642
-0.0661945
-0.0659791
-0.0662758
-0.0564385
-0.0520341
-0.0548772
-0.0608888
-0.0515611
-0.0588859
-0.0850529
-0.0767586
-0.0748783
-0.0774236
-0.049314
-0.0627899
-0.0658583
-0.0791287
-0.0507179
-0.0649397
-0.0661314
-0.0795057
-0.0509369
-0.0641323
-0.0669783
-0.0793535
-0.0521703
-0.0636104
-0.0714124
-0.0990597
-0.0788544
-0.0771322
-0.097801
-0.0959212
-0.0761736
-0.0557037
-0.0782625
-0.0690495
-0.0612841
-0.0651444
-0.0695824
-0.0548932
-0.0722177
-0.0827986
-0.0558844
-0.0666168
-0.0540643
-0.056092
-0.0717422
-0.0610698
-0.0458413
-0.0558792
-0.0476396
-0.0352983
-0.041189
-0.0351705
-0.0255901
-0.0293741
-0.0248252
-0.0178567
-0.020204
-0.0168351
-0.0119674
-0.0134159
-0.0110242
-0.00779223
-0.00866063
-0.0071165
-0.00495835
-0.00564809
-0.00476015
-0.00339344
-0.00397325
-0.00312997
-0.00351253
-0.00340393
-0.00391308
-0.00526994
-0.00608762
-0.00417358
-0.0050187
-0.00333542
-0.00392759
-0.00353771
-0.00248048
-0.0032802
-0.00339688
-0.0040371
-0.00346885
-0.00353264
-0.00408732
-0.00575554
-0.00869669
-0.00870216
-0.0132846
-0.0197653
-0.0184896
-0.0177654
-0.0170183
-0.0186609
-0.0228882
-0.0219666
-0.0149476
-0.0160886
-0.0163526
-0.0168887
-0.0168938
-0.0124783
-0.0135838
-0.0168315
-0.0155172
-0.0204303
-0.0248573
-0.0227224
-0.0295862
-0.035313
-0.0319368
-0.0411115
-0.0480465
-0.0428413
-0.0546968
-0.0458577
-0.0465339
-0.0586742
-0.0587912
-0.0514737
-0.038671
-0.0280327
-0.0195571
-0.0131667
-0.00864476
-0.00572023
-0.00406158
-0.0035173
-0.00248166
-0.00339559
-0.00346401
-0.00351834
-0.00406527
-0.00573173
-0.00867088
-0.0132221
-0.0196462
-0.0281579
-0.0388424
-0.0515966
-0.0672855
-0.0668176
-0.0550094
-0.104922
-0.0771443
-0.073984
-0.0661836
-0.0794784
-0.0510029
-0.051141
-0.0555
-0.082022
-0.0528142
-0.0536231
-0.0546707
-0.0824768
-0.0530561
-0.0538596
-0.0543165
-0.0823295
-0.0545318
-0.0554847
-0.0611115
-0.10469
-0.0798221
-0.0778717
-0.0782184
-0.0775452
-0.0620107
-0.0578758
-0.0613732
-0.104304
-0.0606802
-0.0630125
-0.0819126
-0.0649514
-0.0613305
-0.063395
-0.0727611
-0.0544179
-0.0719827
-0.0720225
-0.0555509
-0.0731731
-0.0641799
-0.0613592
-0.0648589
-0.0707066
-0.0704686
-0.071083
-0.070155
-0.0613967
-0.0611598
-0.0665905
-0.0820638
-0.0705625
-0.0560696
-0.0751273
-0.0660605
-0.0560546
-0.090618
-0.0488223
-0.0635388
-0.0530022
-0.0614469
-0.0556562
-0.0434869
-0.0497051
-0.0432615
-0.0338864
-0.0370579
-0.0321284
-0.0241456
-0.0268497
-0.0225153
-0.0172582
-0.0183963
-0.0153994
-0.0112725
-0.0123251
-0.0100049
-0.00749736
-0.00787857
-0.00651268
-0.00471743
-0.00508763
-0.00434309
-0.00323827
-0.00350864
-0.00240266
-0.00427145
-0.00309495
-0.00257161
-0.00471448
-0.00338529
-0.0035378
-0.00460984
-0.00335738
-0.0034949
-0.00453641
-0.0033427
-0.00343874
-0.00458497
-0.00340795
-0.0033626
-0.00460089
-0.00249844
-0.00330572
-0.00404378
-0.00353191
-0.00379655
-0.00498856
-0.00431802
-0.00568808
-0.00568547
-0.00529073
-0.00715878
-0.00634751
-0.00878481
-0.00933518
-0.00681434
-0.0118208
-0.0081564
-0.01441
-0.010463
-0.0180052
-0.0123599
-0.0216774
-0.0155858
-0.0265482
-0.0180861
-0.0313783
-0.0223277
-0.0375777
-0.025393
-0.0436666
-0.0307267
-0.0510755
-0.0342716
-0.0583899
-0.0406009
-0.0659282
-0.0441947
-0.052004
-0.0627229
-0.0612814
-0.0483178
-0.0559629
-0.0409467
-0.0489826
-0.0475475
-0.036508
-0.0420138
-0.0304209
-0.0359953
-0.035052
-0.0265338
-0.0302268
-0.0216861
-0.0254295
-0.0247687
-0.0185171
-0.0209155
-0.0148232
-0.0172217
-0.0168166
-0.0124378
-0.0139079
-0.0097827
-0.011294
-0.0110435
-0.00810687
-0.00903219
-0.00629872
-0.00730004
-0.00718247
-0.00530151
-0.00586094
-0.00412499
-0.005121
-0.00493727
-0.00380243
-0.0032465
-0.00290463
-0.00254584
-0.00340309
-0.00351104
-0.00312511
-0.00396571
-0.00337573
-0.00369538
-0.00324101
-0.00343808
-0.00346522
-0.00338203
-0.00403172
-0.00352051
-0.00366941
-0.00377346
-0.00500179
-0.00416891
-0.00607568
-0.00443318
-0.00766685
-0.0052625
-0.00702789
-0.00468461
-0.00465845
-0.00495447
-0.00403022
-0.00499718
-0.00307012
-0.00444486
-0.0030607
-0.0029901
-0.00366597
-0.00355828
-0.00352823
-0.00356354
-0.00356626
-0.0050411
-0.00405008
-0.00379907
-0.00534512
-0.00534713
-0.00532717
-0.00719755
-0.00719661
-0.00530279
-0.00700061
-0.00468643
-0.00467074
-0.00496096
-0.00432851
-0.00570706
-0.00717571
-0.00658453
-0.00879578
-0.0110371
-0.0102195
-0.011134
-0.0081936
-0.0081399
-0.0125655
-0.0186908
-0.0185874
-0.0186735
-0.012558
-0.00819008
-0.00812363
-0.00816445
-0.0053273
-0.00529533
-0.00568002
-0.00716951
-0.00767395
-0.00934448
-0.0118279
-0.0144224
-0.00816653
-0.0110276
-0.00681862
-0.00865469
-0.00527274
-0.00711906
-0.00443888
-0.00564418
-0.00494843
-0.00473801
-0.00651007
-0.00631153
-0.00791345
-0.00903446
-0.00811643
-0.0110481
-0.0101559
-0.0135288
-0.0135737
-0.0124535
-0.0167722
-0.0154495
-0.0203493
-0.0203573
-0.0184858
-0.0247023
-0.0225547
-0.0294182
-0.0294335
-0.0264247
-0.035068
-0.0306009
-0.0408636
-0.0476153
-0.0411395
-0.0545734
-0.0607785
-0.0523434
-0.0582002
-0.0514054
-0.0389095
-0.0283834
-0.0198589
-0.0133557
-0.00870829
-0.00570081
-0.00460159
-0.00400903
-0.00288169
-0.0028667
-0.00288189
-0.00306914
-0.005032
-0.00404648
-0.00404298
-0.00498656
-0.00306614
-0.00298718
-0.00367457
-0.00354936
-0.00373672
-0.00354953
-0.00500512
-0.00403317
-0.00377665
-0.00501153
-0.00417506
-0.0046625
-0.0046058
-0.0046311
-0.00404863
-0.00283539
-0.00282694
-0.00449693
-0.00280916
-0.00285974
-0.004448
-0.00460679
-0.00534083
-0.0050554
-0.00371424
-0.00482144
-0.00513869
-0.00381002
-0.00493643
-0.00429479
-0.00570876
-0.00567578
-0.00532388
-0.00716775
-0.0065737
-0.00877777
-0.00811653
-0.0110149
-0.0101853
-0.0135488
-0.0135368
-0.0123997
-0.0168013
-0.0149233
-0.0203484
-0.0247652
-0.0218108
-0.0294253
-0.0265834
-0.0185934
-0.0125066
-0.00815773
-0.00532292
-0.00460154
-0.00462778
-0.00404503
-0.00454818
-0.00573492
-0.00461186
-0.00466669
-0.00460597
-0.00454979
-0.0057336
-0.00534242
-0.00531513
-0.00818724
-0.00812272
-0.0125546
-0.0124496
-0.0132499
-0.0196866
-0.0282257
-0.0283666
-0.0391601
-0.036609
-0.0355999
-0.0478256
-0.0595042
-0.0512095
-0.0734899
-0.0562288
-0.107462
-0.0757089
-0.0743134
-0.0697863
-0.0858974
-0.0783061
-0.0809933
-0.0779096
-0.106806
-0.0747497
-0.0738818
-0.0661231
-0.0791267
-0.0508612
-0.0518936
-0.0561082
-0.0815775
-0.0525883
-0.0545254
-0.0554735
-0.0820256
-0.0528316
-0.054603
-0.0552741
-0.0818712
-0.0544174
-0.0558744
-0.0768882
-0.0579675
-0.0480936
-0.0480255
-0.0548262
-0.0584425
-0.0415076
-0.05187
-0.0347943
-0.041632
-0.0499985
-0.0365356
-0.047266
-0.0551768
-0.0482939
-0.0603083
-0.0655186
-0.0548047
-0.0513558
-0.0438199
-0.0540594
-0.0527827
-0.0683506
-0.0716414
-0.0703138
-0.0610202
-0.0481162
-0.0604132
-0.0538062
-0.0606944
-0.0480491
-0.0604043
-0.0538581
-0.0607693
-0.048197
-0.0604824
-0.0715692
-0.0699909
-0.0615072
-0.057321
-0.06877
-0.0824514
-0.0618986
-0.0786215
-0.0798112
-0.0766454
-0.0629847
-0.0606805
-0.0611023
-0.103763
-0.0613556
-0.0681272
-0.100283
-0.0805491
-0.0771714
-0.0619216
-0.0606012
-0.0771102
-0.0555092
-0.0553016
-0.0763709
-0.0569336
-0.051459
-0.0512852
-0.0388949
-0.0283966
-0.0198722
-0.0133649
-0.00871412
-0.00570431
-0.00460469
-0.00401297
-0.00280947
-0.00282896
-0.0036665
-0.00352859
-0.00355173
-0.00453489
-0.00349843
-0.00291715
-0.00303846
-0.00336537
-0.0030819
-0.0029104
-0.00338868
-0.00472212
-0.00354333
-0.00482194
-0.00336168
-0.00461553
-0.00373803
-0.00370304
-0.00355022
-0.00498868
-0.00306695
-0.00307066
-0.00444933
-0.00287559
-0.00287397
-0.00307162
-0.00306385
-0.00298406
-0.00341045
-0.00464266
-0.00341342
-0.00503106
-0.00404637
-0.00404282
-0.00371547
-0.00312229
-0.0037128
-0.00323789
-0.00344683
-0.00352837
-0.00408134
-0.00575811
-0.00870989
-0.0132796
-0.0197296
-0.0282752
-0.0389968
-0.0389473
-0.0518177
-0.0519205
-0.0667501
-0.0554878
-0.0585431
-0.0588452
-0.0947504
-0.0679492
-0.0747346
-0.0770863
-0.104641
-0.0548121
-0.0587607
-0.0589172
-0.0558676
-0.0597118
-0.0607384
-0.0931185
-0.0614987
-0.0634849
-0.0526605
-0.0608463
-0.0710475
-0.0581659
-0.047692
-0.0517715
-0.0673898
-0.06718
-0.058552
-0.0588558
-0.047131
-0.0344315
-0.0241834
-0.0164384
-0.0108326
-0.0106866
-0.00694031
-0.00694191
-0.00465408
-0.00469018
-0.00531321
-0.00809953
-0.0123901
-0.0184236
-0.0263952
-0.0363167
-0.0463255
-0.045661
-0.045814
-0.0337085
-0.0238036
-0.0162051
-0.0161856
-0.010682
-0.0108202
-0.00703053
-0.00717936
-0.0076803
-0.00934789
-0.0118372
-0.0144275
-0.00985481
-0.0110482
-0.00879515
-0.0063541
-0.00727277
-0.00532795
-0.0052991
-0.00568092
-0.00403525
-0.00500407
-0.00335131
-0.00378021
-0.00460431
-0.00466353
-0.00442699
-0.00288966
-0.00286515
-0.00367859
-0.00355596
-0.00358867
-0.00366631
-0.00280945
-0.00449904
-0.00366627
-0.0036668
-0.00299565
-0.00370255
-0.00366661
-0.00352315
-0.0035448
-0.00355829
-0.00373315
-0.00354623
-0.00355864
-0.00367817
-0.00370164
-0.00288382
-0.00308086
-0.00336037
-0.00442203
-0.00303643
-0.00291153
-0.00465923
-0.00460795
-0.0046291
-0.00404447
-0.00454849
-0.00460956
-0.00534283
-0.00505733
-0.00444353
-0.00775121
-0.00682565
-0.00816563
-0.00810131
-0.0125205
-0.0124195
-0.0135742
-0.0168504
-0.0180549
-0.0216897
-0.0266614
-0.0314061
-0.0218972
-0.0248726
-0.0204097
-0.0149548
-0.0170642
-0.0118788
-0.0104804
-0.0176617
-0.0156181
-0.0186196
-0.0184938
-0.01867
-0.0185399
-0.0266925
-0.0265783
-0.0365832
-0.0365419
-0.0348193
-0.0313157
-0.036851
-0.0350013
-0.0249777
-0.0171007
-0.0112869
-0.00727963
-0.00718121
-0.00706809
-0.00875431
-0.0111227
-0.0109273
-0.0134262
-0.0168403
-0.016533
-0.0134275
-0.00875549
-0.0071893
-0.00717892
-0.00706458
-0.00576
-0.00878315
-0.013467
-0.0200173
-0.0199617
-0.0245731
-0.0241013
-0.0285137
-0.0343898
-0.0336873
-0.039016
-0.0459763
-0.0468311
-0.0479851
-0.072823
-0.0515772
-0.0768674
-0.0578994
-0.0566349
-0.0733806
-0.0542598
-0.0759918
-0.0784287
-0.0811132
-0.0776461
-0.106015
-0.0746979
-0.0681696
-0.0640587
-0.0816274
-0.0825211
-0.060763
-0.068351
-0.0789959
-0.0824675
-0.0763276
-0.074677
-0.105401
-0.0779824
-0.0813603
-0.0815844
-0.0817954
-0.0814083
-0.0776707
-0.0816964
-0.0728986
-0.0669811
-0.0793561
-0.0521979
-0.0509177
-0.0552845
-0.081893
-0.0543732
-0.053382
-0.0543284
-0.0823738
-0.0544384
-0.0536257
-0.0539632
-0.0821885
-0.0556677
-0.0612396
-0.104085
-0.0821159
-0.0768472
-0.0632172
-0.0606067
-0.0763883
-0.0569049
-0.0514502
-0.0390193
-0.0284906
-0.0199423
-0.0134143
-0.00874762
-0.00573049
-0.00717996
-0.0072707
-0.00635605
-0.00879126
-0.0110359
-0.00985792
-0.0135665
-0.0168339
-0.0180415
-0.0216823
-0.0266431
-0.0313963
-0.0181383
-0.0248358
-0.0156038
-0.0202036
-0.0123871
-0.0168421
-0.0104705
-0.0134125
-0.0119524
-0.011431
-0.0153469
-0.0148525
-0.0184955
-0.0209095
-0.0185287
-0.0247657
-0.0225025
-0.0294714
-0.0294586
-0.0265098
-0.0349006
-0.0316151
-0.0408469
-0.0363755
-0.047365
-0.0424219
-0.0545506
-0.0546498
-0.0480657
-0.060799
-0.0538523
-0.0605548
-0.0606381
-0.0480833
-0.0545435
-0.0545893
-0.0604786
-0.053793
-0.0568098
-0.0481911
-0.0365246
-0.0266372
-0.0186371
-0.0125384
-0.00818082
-0.00774758
-0.0118729
-0.0125184
-0.0124125
-0.0186158
-0.0184834
-0.0203961
-0.0248507
-0.0219034
-0.0295378
-0.0353109
-0.0378959
-0.043703
-0.0518331
-0.0584549
-0.0347895
-0.0476691
-0.0309371
-0.0411975
-0.0255769
-0.0351875
-0.0223959
-0.0293789
-0.0255651
-0.0244338
-0.0320578
-0.0306507
-0.0375924
-0.0417529
-0.0365366
-0.0472692
-0.0423267
-0.055136
-0.0543705
-0.0481209
-0.0609693
-0.053556
-0.0603355
-0.0654877
-0.048302
-0.0547913
-0.0513086
-0.0540199
-0.0527463
-0.0559872
-0.0514595
-0.0437716
-0.0458043
-0.055887
-0.0611052
-0.0409107
-0.0475706
-0.0362073
-0.0263107
-0.018362
-0.0123463
-0.0080687
-0.00529204
-0.00370009
-0.00323926
-0.00351554
-0.00312945
-0.00240596
-0.00291025
-0.00351493
-0.00324814
-0.00428054
-0.00256952
-0.00308871
-0.004036
-0.00374906
-0.00338774
-0.00380236
-0.00495297
-0.00432341
-0.00567892
-0.00531068
-0.00716563
-0.00656797
-0.00878321
-0.00876411
-0.00809043
-0.0110217
-0.00984274
-0.0135471
-0.010807
-0.0106722
-0.0110231
-0.00694882
-0.00717624
-0.005719
-0.00571358
-0.00404098
-0.0035002
-0.00346481
-0.00350433
-0.00352896
-0.00346253
-0.00397944
-0.0032503
-0.0043431
-0.00413493
-0.00586202
-0.00530989
-0.00718485
-0.00654949
-0.00876315
-0.00879564
-0.00813288
-0.011018
-0.0101923
-0.0135524
-0.0124298
-0.0167745
-0.015441
-0.0203463
-0.0203444
-0.0184525
-0.0247028
-0.023439
-0.0161009
-0.016778
-0.0131441
-0.0131325
-0.00863529
-0.00700232
-0.00719933
-0.00469487
-0.0050373
-0.00405561
-0.00461436
-0.0051058
-0.00565439
-0.00571336
-0.00687565
-0.00732251
-0.0086902
-0.00744106
-0.0100487
-0.00979201
-0.0139212
-0.012446
-0.016821
-0.015398
-0.0203417
-0.0203845
-0.018522
-0.0246888
-0.0225646
-0.0294302
-0.0264595
-0.0349426
-0.0316128
-0.0408431
-0.0408954
-0.0363482
-0.0473596
-0.0364806
-0.0343268
-0.0245176
-0.0240839
-0.0199489
-0.0134187
-0.00875044
-0.00573262
-0.00706522
-0.00717796
-0.0111163
-0.0112705
-0.00818451
-0.0125447
-0.0186466
-0.0249076
-0.0245566
-0.0168289
-0.016525
-0.0109223
-0.0111218
-0.00718349
-0.00657734
-0.0071847
-0.00531149
-0.00717521
-0.00878772
-0.00811984
-0.0110217
-0.0110325
-0.00878232
-0.00878626
-0.00813489
-0.0110222
-0.0110506
-0.00879761
-0.00719779
-0.00532381
-0.00717184
-0.00570198
-0.00568394
-0.00568937
-0.00569207
-0.00531885
-0.00718206
-0.00717416
-0.00657491
-0.00877467
-0.00812846
-0.0110323
-0.0110237
-0.0101947
-0.0135438
-0.0124498
-0.016801
-0.0167791
-0.0167763
-0.0167909
-0.0124336
-0.0135617
-0.0135556
-0.0101979
-0.0135578
-0.0124578
-0.0167765
-0.016827
-0.0135762
-0.0101647
-0.0110503
-0.0113179
-0.00811687
-0.00876747
-0.00655486
-0.00718591
-0.00733015
-0.00530941
-0.00571018
-0.00567805
-0.00503338
-0.00380111
-0.00495636
-0.00432644
-0.00500245
-0.00379748
-0.00499355
-0.00432456
-0.00496049
-0.00379755
-0.00502072
-0.00567826
-0.00569536
-0.00429242
-0.00469249
-0.0040217
-0.00349307
-0.00250452
-0.00348809
-0.00332497
-0.00340601
-0.00341281
-0.00249446
-0.00349239
-0.00348453
-0.00332092
-0.00349599
-0.00250628
-0.00461965
-0.00344119
-0.00335814
-0.00298607
-0.00404378
-0.00364132
-0.00353366
-0.00353952
-0.00363223
-0.00339449
-0.00373699
-0.00403109
-0.00290538
-0.00343682
-0.00461398
-0.00335842
-0.00498413
-0.00404008
-0.00533932
-0.00534304
-0.00818486
-0.0125454
-0.0168316
-0.0154574
-0.0203578
-0.0184888
-0.0246967
-0.0247217
-0.0246926
-0.0247955
-0.0185274
-0.0203671
-0.0203873
-0.0154123
-0.0168245
-0.0172744
-0.0124471
-0.0135371
-0.013926
-0.0098032
-0.0100605
-0.0123071
-0.0114492
-0.0153636
-0.01852
-0.0170823
-0.0226588
-0.026881
-0.0244689
-0.0320926
-0.0376337
-0.0336861
-0.0431875
-0.0441935
-0.03925
-0.0327836
-0.0285171
-0.0233479
-0.0198877
-0.0159969
-0.0133527
-0.0105857
-0.00869916
-0.00744972
-0.00792802
-0.00903584
-0.00631929
-0.00651537
-0.00511397
-0.00474738
-0.00565896
-0.0068801
-0.00461584
-0.00434701
-0.00413997
-0.0051416
-0.00380867
-0.00493729
-0.00429792
-0.00469985
-0.00404948
-0.00352946
-0.00257261
-0.00309451
-0.00428012
-0.00240719
-0.00351908
-0.00325195
-0.00397934
-0.00346299
-0.00291232
-0.0032495
-0.00374751
-0.00339319
-0.00403577
-0.00346434
-0.00349535
-0.00402642
-0.00569419
-0.00570548
-0.00864257
-0.0131783
-0.0195588
-0.0185302
-0.0247712
-0.0255076
-0.020918
-0.0203548
-0.0162472
-0.0107653
-0.00701359
-0.00699014
-0.00861035
-0.0130952
-0.0194004
-0.0236839
-0.0225238
-0.0294594
-0.0265165
-0.0348991
-0.0351298
-0.0350045
-0.0363126
-0.0265486
-0.0294915
-0.0302276
-0.0217688
-0.018144
-0.0240199
-0.0237482
-0.033586
-0.0339943
-0.0353346
-0.0379225
-0.0437096
-0.0309616
-0.0346685
-0.0252605
-0.0224148
-0.026627
-0.0265102
-0.0295621
-0.0365216
-0.0365037
-0.0411074
-0.0308163
-0.0348958
-0.0266498
-0.0365385
-0.046762
-0.0460016
-0.0343766
-0.0336853
-0.0240918
-0.02455
-0.0284993
-0.0285846
-0.0285147
-0.0199631
-0.0168564
-0.0168294
-0.0111172
-0.0109212
-0.0111161
-0.0112667
-0.017058
-0.0149598
-0.0163981
-0.0108276
-0.0106983
-0.010729
-0.0107792
-0.00696989
-0.00695124
-0.00465814
-0.00468922
-0.00344048
-0.00703313
-0.016265
-0.016211
-0.0237834
-0.0238783
-0.0240458
-0.0337748
-0.0336302
-0.0340306
-0.024044
-0.0410623
-0.0481433
-0.0415202
-0.0547441
-0.0463772
-0.0457158
-0.0586743
-0.0588534
-0.0581228
-0.0711526
-0.0959767
-0.0977558
-0.0556967
-0.0713934
-0.099078
-0.0788375
-0.062027
-0.0775227
-0.078379
-0.0631101
-0.0610882
-0.104867
-0.080344
-0.0777306
-0.101226
-0.0865331
-0.086618
-0.0816115
-0.0784519
-0.054494
-0.0761813
-0.0567454
-0.0513419
-0.0390164
-0.0344167
-0.0245949
-0.0245555
-0.0266945
-0.0266208
-0.0264939
-0.0365129
-0.036483
-0.0346541
-0.0252483
-0.0176527
-0.0254855
-0.0302148
-0.0265465
-0.0349989
-0.0315571
-0.0410783
-0.0408318
-0.0364376
-0.0472526
-0.0423965
-0.0473772
-0.0365112
-0.0266279
-0.0245378
-0.0248981
-0.0348833
-0.0308254
-0.0343733
-0.0336812
-0.0240886
-0.016523
-0.0168229
-0.012537
-0.00817934
-0.00533908
-0.00718858
-0.00696881
-0.00878204
-0.00467406
-0.00570137
-0.0050063
-0.00348441
-0.00364399
-0.00341772
-0.00247301
-0.00351121
-0.00405576
-0.0106978
-0.0107464
-0.0110491
-0.00865187
-0.0105781
-0.0122897
-0.0133389
-0.0131914
-0.0159851
-0.0172585
-0.0198675
-0.0170584
-0.0226335
-0.0217441
-0.0268472
-0.0233302
-0.0284886
-0.0280126
-0.0195782
-0.0162173
-0.0168222
-0.016135
-0.0167886
-0.0194567
-0.023639
-0.0247863
-0.0234871
-0.0294325
-0.027791
-0.0331048
-0.0351133
-0.0327605
-0.0362835
-0.0392143
-0.0336415
-0.0431462
-0.0415966
-0.0499656
-0.0441693
-0.0385569
-0.0509602
-0.0620043
-0.0617685
-0.0618831
-0.0668843
-0.0633498
-0.0562123
-0.044412
-0.0476966
-0.038158
-0.0503753
-0.0614128
-0.0679456
-0.0644635
-0.0557147
-0.0438413
-0.0327986
-0.0408815
-0.0349603
-0.0278084
-0.0194709
-0.0381814
-0.0504374
-0.0615555
-0.0682699
-0.0645206
-0.0557157
-0.043792
-0.0327374
-0.0349412
-0.0332752
-0.0237809
-0.0163196
-0.0123186
-0.00805731
-0.00528386
-0.00492262
-0.00785086
-0.018295
-0.0261268
-0.0358242
-0.0446279
-0.0564681
-0.0619223
-0.0695131
-0.0642297
-0.0523034
-0.058397
-0.0628792
-0.0614173
-0.0505131
-0.0501681
-0.0380154
-0.0276851
-0.0193793
-0.0130783
-0.00859737
-0.00568544
-0.00568732
-0.0040292
-0.0046857
-0.00468328
-0.00348231
-0.00404212
-0.00345792
-0.00352407
-0.00403974
-0.00569036
-0.00700559
-0.00654775
-0.0087498
-0.00879646
-0.00817982
-0.00718102
-0.00706242
-0.00454716
-0.00717177
-0.00726615
-0.00505137
-0.00371055
-0.00481639
-0.00526137
-0.00348523
-0.00774287
-0.0112607
-0.0111183
-0.0109177
-0.0111047
-0.0168067
-0.0165181
-0.0168269
-0.0125384
-0.0186394
-0.0186452
-0.0266431
-0.0343587
-0.0316296
-0.0349727
-0.0264597
-0.0349192
-0.0409014
-0.0363696
-0.0472916
-0.0474035
-0.0408216
-0.0409241
-0.0364415
-0.0472322
-0.0477234
-0.0408239
-0.0315862
-0.0411069
-0.0417688
-0.0306843
-0.0255836
-0.0331675
-0.0279848
-0.0385185
-0.0509033
-0.0514894
-0.0559973
-0.061765
-0.0618965
-0.0619394
-0.0669097
-0.063343
-0.0562788
-0.0444897
-0.0380464
-0.0277105
-0.0328944
-0.0235586
-0.0294606
-0.0294248
-0.0294541
-0.0294271
-0.026517
-0.0350247
-0.0349425
-0.0316303
-0.0408605
-0.0364683
-0.0474862
-0.0473654
-0.042432
-0.0545311
-0.0547565
-0.0546243
-0.0423763
-0.0467737
-0.0460379
-0.0390288
-0.0391036
-0.0449831
-0.0513416
-0.0481023
-0.0481054
-0.0731831
-0.0536647
-0.0510673
-0.076021
-0.0783458
-0.0814483
-0.0777002
-0.0815022
-0.0818332
-0.0779693
-0.0535393
-0.0750899
-0.0550463
-0.0737323
-0.0740505
-0.0737382
-0.0739584
-0.0732829
-0.0635728
-0.0807877
-0.105444
-0.0559953
-0.0782935
-0.0855623
-0.0813928
-0.0866568
-0.0812566
-0.0771469
-0.102507
-0.0805406
-0.05587
-0.0613218
-0.104369
-0.0607379
-0.0762388
-0.055616
-0.0743469
-0.0551751
-0.0514473
-0.0450146
-0.0459962
-0.0460054
-0.0467486
-0.0459828
-0.0343435
-0.0459951
-0.0450561
-0.0336857
-0.0343642
-0.0245461
-0.0248817
-0.0266466
-0.0365634
-0.0365261
-0.045997
-0.0482004
-0.0456625
-0.0409352
-0.0672113
-0.0461377
-0.0588181
-0.0614217
-0.0551398
-0.058606
-0.0649091
-0.0732788
-0.0534249
-0.0509006
-0.0762021
-0.0567506
-0.0551786
-0.0739537
-0.0533739
-0.0752838
-0.0780761
-0.078424
-0.0816417
-0.0730404
-0.080753
-0.105378
-0.0782851
-0.0814159
-0.0816227
-0.0817372
-0.0819505
-0.0780709
-0.0538655
-0.075283
-0.0800502
-0.081789
-0.0799995
-0.0781906
-0.0537214
-0.0754808
-0.0553104
-0.0743412
-0.0745494
-0.067089
-0.0482279
-0.0481971
-0.0669385
-0.0666157
-0.0458251
-0.0483309
-0.0482024
-0.0568166
-0.0665853
-0.0668525
-0.06713
-0.0618899
-0.0731523
-0.0553438
-0.0436675
-0.0383275
-0.0279054
-0.0195195
-0.0131531
-0.00862272
-0.0107565
-0.013573
-0.0135165
-0.0101563
-0.0118691
-0.0170482
-0.0153989
-0.02032
-0.0203889
-0.0185207
-0.0247513
-0.0247037
-0.0203471
-0.0154534
-0.0203688
-0.0161798
-0.0130751
-0.00860096
-0.0107311
-0.010728
-0.00698754
-0.0161849
-0.0193627
-0.027651
-0.0379589
-0.0439548
-0.0546573
-0.054463
-0.0546475
-0.0439177
-0.0328675
-0.0235465
-0.0225711
-0.0236369
-0.0294861
-0.0294146
-0.0225028
-0.0252364
-0.0176437
-0.0348642
-0.0315576
-0.0408866
-0.0409597
-0.033033
-0.0325617
-0.0232698
-0.0159638
-0.0105657
-0.00686185
-0.00460195
-0.00345464
-0.00397015
-0.00564534
-0.00868645
-0.0133313
-0.0162313
-0.0198608
-0.0284198
-0.0390499
-0.0442204
-0.0560802
-0.0537121
-0.0558104
-0.0500968
-0.0502167
-0.0612391
-0.0678811
-0.0644287
-0.0558162
-0.061139
-0.0677021
-0.0646481
-0.0611328
-0.0687808
-0.0644633
-0.068624
-0.0346512
-0.0424093
-0.0543343
-0.0423593
-0.0511679
-0.0624082
-0.0762205
-0.0800939
-0.080532
-0.0855505
-0.0812412
-0.0866293
-0.086613
-0.0865084
-0.0801761
-0.0816387
-0.0863445
-0.102393