/*--------------------------------*- C++ -*----------------------------------*\
| =========                 |                                                 |
| \\      /  F ield         | OpenFOAM: The Open Source CFD Toolbox           |
|  \\    /   O peration     | Version:  2306                                  |
|   \\  /    A nd           | Website:  www.openfoam.com                      |
|    \\/     M anipulation  |                                                 |
\*---------------------------------------------------------------------------*/
FoamFile
{
    version     2.0;
    format      ascii;
    arch        "LSB;label=32;scalar=64";
    class       volScalarField;
    location    "2";
    object      gradTx;
}
// * * * * * * * * * * * * * * * * * * * * * * * * * * * * * * * * * * * * * //

dimensions      [0 -1 0 1 0 0 0];

internalField   nonuniform List<scalar> 
5322
(
-0.251627
0.00571593
0.0069758
0.000800933
-0.000125254
-0.000164477
1.1003e-05
0.000137504
8.47623e-05
-0.000203476
-0.00100609
0.011005
0.0169516
-0.233468
-0.0061845
0.40632
-0.319278
-0.00503721
-0.243599
0.157018
-0.213478
0.185659
-0.196369
0.197413
-0.199956
0.192045
-0.19245
0.199609
-0.196622
0.196632
-0.186579
0.211905
-0.159195
0.242545
0.00343031
0.30432
0.21455
-0.0855578
0.240499
-0.0138073
-0.228084
0.229367
-0.0138854
-0.244032
0.242517
-0.00834453
-0.259381
0.226506
-0.00572811
-0.271853
-0.268192
-0.389493
-0.121653
0.261212
-0.0166559
-0.431359
-0.0122548
0.412247
-0.00494688
-0.411946
-0.00177597
0.40148
-0.00231917
-0.404624
-0.000146916
0.39533
0.00502015
-0.400706
0.0172481
0.328145
0.0130212
-0.350315
0.396933
-0.410815
0.39548
-0.402734
0.403519
-0.402683
0.4584
-0.330267
0.161836
-0.213764
-0.138216
0.240019
0.0249492
-0.136085
0.15896
-0.427988
-0.161551
0.510153
-0.0219328
0.00955387
0.0176311
0.0796125
0.365936
-0.0850959
-0.010414
-0.0419674
0.163899
-0.379514
-0.379913
0.849015
-0.0412597
0.282249
0.459415
-0.00573611
0.0027676
0.00379121
0.00229867
0.00112474
0.000444651
-0.000123026
-0.00118211
-0.0028981
0.00455674
-0.00153716
-0.134154
-0.132366
0.0140102
0.0843649
0.00479225
0.128712
-0.153955
-0.0115349
-0.0354572
0.238668
0.196328
0.0545988
0.153506
0.099234
0.0754614
0.164811
0.0832132
0.0892731
0.16768
0.0728498
0.140486
0.190607
0.21607
0.00928194
-0.158382
0.00873254
0.105502
-0.127818
-0.137131
0.0196017
0.0566648
0.0311789
-0.107322
-0.117954
0.0220686
0.035137
0.042347
-0.116397
-0.110438
0.0222514
0.0230995
0.067048
-0.127753
0.166685
-0.359317
-0.481633
0.415087
-0.486079
-0.020354
-0.334462
0.00268195
0.32606
-0.0783103
0.388622
0.192648
0.28727
-0.430506
0.167992
-0.370943
0.246773
0.321731
-0.393501
0.00881191
-0.334553
0.294443
0.366512
-0.389494
-0.00242893
-0.32645
0.310679
0.379558
-0.389
-0.000777356
-0.324603
0.316184
0.383991
-0.39121
5.2837e-05
-0.326592
0.315664
0.384752
-0.396882
0.000435445
-0.33217
0.310528
0.382703
-0.405581
0.00101952
-0.339258
0.300559
0.377374
-0.412475
0.00242508
-0.340985
0.28225
0.35236
-0.0769392
0.15658
-0.376719
-0.384169
0.854239
-0.0293501
-0.0321597
0.019728
0.0859295
0.363568
-0.067185
-0.0066975
-0.0748874
0.14915
-0.383834
-0.377528
0.849345
-0.0497283
0.282329
-0.01073
0.00466581
0.00454957
0.00292894
0.00152482
0.000661299
-4.08282e-06
-0.00109178
-0.00263294
0.00454732
-0.00140929
0.106604
-0.118329
0.117913
-0.107104
0.000214954
0.107219
-0.101332
-0.000569273
-0.127636
7.08783e-05
-0.107244
-8.29436e-05
0.101069
0.00397323
0.119203
-0.00973608
-0.128883
0.000421597
0.127457
-0.000131652
-2.1452e-05
0.225762
-0.388056
0.387589
-0.383352
0.403554
-0.412863
0.431766
-0.430448
0.437306
-0.435466
0.439257
-0.437397
0.441551
-0.438131
0.444608
-0.437109
0.446212
-0.42846
0.439609
-0.235536
0.0049559
0.237747
0.00640882
-0.428855
0.417008
0.00216443
-0.433433
0.42715
0.00147018
-0.432149
0.428569
0.000974963
-0.429463
0.427638
0.000677486
-0.427145
0.425601
0.000706135
-0.424443
0.421062
0.00113377
-0.417175
0.406239
0.00128902
-0.388039
0.000228177
0.387905
-0.406494
-0.00182757
-0.402955
0.38277
-0.000719545
-0.227689
-0.0147959
0.231598
-0.401881
0.388022
-0.40862
0.410463
-0.417827
0.417333
-0.41928
0.420342
-0.419781
0.423904
-0.419665
0.429309
-0.416431
0.434648
-0.401787
0.43134
-0.232114
-0.0498174
0.100948
0.0127368
-0.400358
0.360347
0.00505071
-0.394544
0.381367
0.000723612
-0.38262
0.381068
-0.000471
-0.378028
0.378443
-0.000664595
-0.376777
0.377756
-0.00192591
-0.375717
0.378389
-0.00487775
-0.370593
0.373432
-0.0112612
-0.344986
0.31587
0.00680913
-0.114477
0.19483
0.320382
0.0102146
0.0398686
-0.0585693
0.163917
-0.505633
0.383649
-0.481093
-0.323953
-0.400546
0.0103984
0.263762
0.291727
-0.420014
0.162431
-0.376939
-0.0280115
0.0201948
-0.152582
0.0130543
-0.00616097
-0.161882
0.0165111
-0.0261391
-0.382445
-0.414783
0.299257
-0.38806
0.00498702
0.354044
-0.38593
0.372689
-0.386237
0.00273943
0.37957
-0.389096
0.380825
-0.395235
0.0147856
0.378099
-0.402508
0.370459
-0.403652
0.0833736
0.0194991
0.0125131
0.0131678
0.00633903
0.0155326
0.39081
-0.413032
0.00319054
-0.335007
0.275982
0.384759
-0.40514
0.00724474
-0.355706
0.247257
0.49416
-0.0581878
0.0093129
-0.41193
-0.380135
0.803868
-0.0498934
0.0133812
0.0225221
-0.245364
0.0561472
0.192954
-0.199716
0.01641
0.207152
-0.187916
0.00259955
0.201696
-0.192867
-0.00035877
0.192915
-0.187226
-0.00499519
0.200821
-0.181109
-0.0122886
0.211799
-0.142509
-0.0205615
0.250399
0.095081
0.0703204
-0.0184907
-0.00962942
0.0985743
-0.0433431
0.443997
-0.474375
0.463541
-0.473329
-0.306438
-0.397362
-0.000935398
0.30331
0.382697
-0.397103
-0.00219341
-0.307689
0.00259738
0.000227807
0.00335245
-0.000322763
0.00659792
0.0254707
0.0235759
0.0428272
-0.0125097
0.0067734
0.178339
0.283367
0.236329
0.0798795
0.35931
0.143026
0.0670585
0.019994
0.0128087
-0.00577954
-0.00367629
0.00369449
0.00600745
-0.0563778
-0.000869952
0.0649792
-0.0599988
0.469368
-0.475456
0.472135
-0.484719
-0.317932
-0.407108
0.00111575
0.300838
0.392436
-0.400563
0.000135321
-0.309527
0.00450232
0.00199193
0.000502982
0.000344575
0.000867712
0.0015398
0.00244936
0.0019703
0.00526395
0.00802194
0.0764349
-0.00133568
-0.000499581
-0.00245746
0.000420762
0.00101835
-0.0100938
0.0234251
-0.270101
-0.000676216
0.00371166
0.000174916
-0.00365724
0.412928
-7.11421e-05
-0.431582
0.417128
-0.421098
-0.00148323
0.431075
3.18971e-06
-0.437245
0.42475
-0.425302
-0.000618108
0.436513
0.000246787
-0.439042
0.427972
-0.426817
2.74188e-05
0.439017
0.000471326
-0.441154
0.431017
-0.426964
0.00064386
0.440605
0.000390688
-0.443881
0.434562
-0.424453
0.00154969
0.439997
-0.000847763
-0.444416
0.436126
-0.413772
0.00246084
0.428748
-0.00378329
-0.436002
0.429829
-0.235886
-0.000288755
0.234226
-0.0143702
-0.0298938
-0.0314163
-0.0327892
-0.410902
0.102525
0.0912565
-0.0349873
-0.0721059
-0.0359609
-0.469352
0.0988653
-0.120052
-0.201215
-0.0737565
-0.0577284
-0.0604229
-0.025727
-0.011497
0.00189806
-0.000465805
-0.0093168
-0.0116454
-0.00682949
-0.0132535
-0.0263006
0.00465123
0.209431
0.245571
0.240815
0.277458
0.343131
0.32668
0.255514
0.257196
0.167804
-0.149231
0.0481697
-0.0175106
-0.012264
0.0437209
-0.130105
-0.000354878
-0.000204592
-0.000420486
3.27586e-05
-0.0821861
-0.0936329
-0.0927947
-0.0831924
0.0824717
-0.0700085
0.00259882
0.0932215
-0.0804428
-0.0807704
0.00257846
0.0928794
-5.66152e-06
1.46631e-05
4.0863e-05
4.5716e-05
-0.00245578
0.00329008
-0.00168397
-0.000927515
-0.000118437
0.000508191
0.00127066
0.00541176
0.00400025
0.00217811
0.0094638
-0.0026605
0.0567088
-0.0809192
0.479381
-0.49471
0.492296
-0.0102483
-0.144628
-0.0216231
0.0398386
-0.00429654
-0.00957143
-0.00504859
-0.0276017
-0.0577742
-0.115212
-0.263276
-0.269167
-0.670791
-0.316675
-0.276908
-0.0094302
-0.109181
0.0857983
-0.542047
-0.32389
-0.151487
0.245548
0.0197774
0.0128183
-0.25679
0.271759
0.00159422
-0.032148
-0.282122
0.273077
0.000477737
-0.0358402
-0.275318
0.272175
0.00234831
-0.058746
-0.26269
0.194062
-0.154589
0.126616
0.0959829
0.283385
-0.133151
-0.0770683
0.0421163
0.170631
-0.558301
-0.0310931
-0.326901
0.284777
0.262312
0.250363
0.314305
0.15202
0.0345536
0.121456
0.183683
0.303551
-0.141457
0.0291763
0.225288
-0.194005
0.000221668
0.1972
-0.199977
-0.00250716
0.191376
-0.19556
-0.00146785
0.190232
-0.193531
-0.00128707
0.189663
-0.194798
-0.00272254
0.183287
-0.205665
-0.0162191
0.155638
-0.238172
-0.0887022
-0.00384376
-0.320832
-0.19864
0.115901
-0.316091
0.349716
-0.371145
0.0104227
-0.388946
0.401246
-0.00609472
-0.231363
0.0147768
0.228032
-0.225574
0.000800326
0.00133385
0.000391569
0.000314515
0.000484815
0.000449199
0.000144031
0.000322782
0.000865361
0.00127545
0.0038395
0.000567769
0.0615787
-0.06476
-0.00187683
-0.000470304
0.00262057
0.000266355
0.303251
0.390607
0.00254405
-0.323583
0.316437
0.000181937
-0.325815
0.315031
0.000569878
-0.332483
0.309074
0.00118182
-0.342557
0.298256
0.00242091
-0.349488
-0.0154218
-0.0123254
-0.0662329
-0.0658166
-0.106428
-0.0516227
-0.0252576
-0.011298
-0.00754244
-0.0150381
-0.0278679
0.00180673
0.204312
0.237408
0.23052
0.32725
0.195879
0.00219023
-0.0221989
-0.0116132
-0.00598613
-0.00943633
-0.0221672
-0.0477398
-0.0990127
-0.232798
-0.247824
-0.441239
-0.332113
-0.104597
-0.105374
0.224639
0.0263381
-0.0275609
-0.0219118
0.111242
0.00460182
-0.0886265
-0.0848205
0.087893
-5.34902e-05
-0.0980171
-0.0938123
0.0769119
-0.000395986
-0.12185
-0.116264
0.0372074
-0.154107
0.0980174
0.0950235
0.0994576
0.0864888
-0.135277
0.00948798
0.0501376
-0.153238
0.0368035
-0.148019
0.173979
-0.402768
-0.0216521
-0.38757
0.2631
0.270957
0.271345
0.266284
0.261464
0.264723
-0.419285
-0.0253804
-0.378252
0.271236
0.290447
0.272414
0.286693
-0.0214018
-0.403321
-0.400786
0.174384
0.272346
0.240458
0.238111
0.296452
0.283853
0.227592
0.0692756
0.151425
0.0616826
-0.0327802
0.0760284
0.011623
-0.0554529
0.0576833
0.00249641
-0.0572634
0.0568382
0.00034027
-0.0584127
0.0561362
-0.00017113
-0.0566911
0.0578935
-0.000777599
-0.0582083
0.0560939
-0.00385898
-0.0609801
0.0532219
-0.0142255
-0.0811979
0.0311156
-0.0646148
-0.156905
-0.0748946
-0.232947
-0.280678
-0.286464
-0.192912
-0.1418
-0.218013
-0.00918334
0.159422
-0.12045
0.0117074
0.132156
-0.1318
0.00556412
0.137736
-0.141266
-0.00467458
-0.00949623
-0.244972
-0.000782759
-0.397274
0.000467033
-0.393659
0.00210942
0.411857
-0.418046
0.000497997
-0.414746
0.00485243
0.420914
-0.381614
6.78887e-05
0.382165
0.00200026
-0.381648
7.43263e-05
0.382083
0.00131685
-0.381754
0.000106565
0.381808
-0.000680481
-0.381932
0.000189757
0.38169
-0.00102668
-0.382027
0.000542056
0.381883
-0.0057067
-0.378169
0.00275497
0.378267
-0.00768476
-0.00841457
-0.471759
-0.340987
0.00780768
0.43975
-0.00285927
-0.467272
-0.32417
0.0064454
0.457137
-0.000917468
-0.465115
-0.319585
0.00241581
0.46172
-0.000675687
-0.464215
-0.317191
0.000159038
0.464484
0.000671318
-0.461825
-0.315683
-0.00197404
0.465807
0.000794958
-0.457581
-0.312979
-0.00551941
0.469289
0.0030522
-0.439545
-0.30522
-0.00584548
0.476989
0.0106962
-0.382212
-0.270196
0.0250767
0.503218
0.0607818
-0.043522
0.116316
-0.199198
-0.322081
-0.00326681
-0.0901312
0.00140324
0.276155
-0.022799
0.00387145
-0.232719
0.00103995
0.398273
-0.389359
-0.00243818
-0.392063
0.0109298
-0.376212
-0.000733732
0.378332
0.00848881
0.00308373
0.000784523
0.00451815
0.409721
0.00281399
-0.00350154
-0.101845
-0.000283292
0.110079
-0.000151877
0.000361473
0.000496523
-0.0175358
-0.0202685
-0.0145283
-0.158773
0.0159755
-0.0260217
0.00244388
0.00279178
0.00493651
0.360386
0.29742
0.00171246
-0.00327293
-0.0135324
-0.0161851
0.264068
0.00970993
-0.336348
0.301235
-0.0022272
-0.32596
0.312906
-0.000702772
-0.000709521
0.00114706
0.00415838
0.00129623
0.00275469
0.00570469
0.00271817
0.00138995
0.0011814
0.00460011
0.000362756
0.00100509
0.00246987
-0.333413
0.293362
0.465201
-0.480388
0.473486
-0.478865
-0.00116534
-0.377324
-0.00363166
0.380738
-0.00471264
-0.374631
-0.0120347
0.392658
0.0234667
0.0294007
-0.267799
-0.000912895
0.287537
-0.301666
-0.000699693
-0.49697
-0.000952035
0.495095
-0.434162
-0.000197992
-0.439421
0.000121078
0.439246
-0.434152
-5.51285e-05
-0.431228
-5.4886e-05
0.431204
-0.443571
-0.000221587
-0.422149
-0.00133664
0.421174
-0.420243
-0.00376786
0.416403
-0.410299
-0.00776473
-0.00984422
-0.00227583
-0.000985437
-0.000135265
0.000149793
0.000442765
0.00129357
0.00267235
-0.00462531
0.00121354
-0.106713
0.118539
-0.117176
-0.109629
0.00109728
0.000658309
-0.0022809
0.00642045
0.103965
0.000945677
-0.00123809
-0.00967925
0.0126733
-0.0111019
-0.155511
0.0151954
-0.03296
0.233136
0.0112674
-0.0111652
-0.00942622
0.00619987
8.95332e-05
0.0797265
0.0807815
-0.00243617
0.0689088
0.106597
-0.0018417
-0.00232299
-0.00239519
-0.000823976
0.00824706
-0.123938
0.317061
0.0184727
-0.473145
-0.00302675
0.47902
-0.420338
-0.00210431
-0.433809
-0.000215481
-0.428108
-0.000175832
-0.429424
0.000941859
0.430208
-0.441333
0.000190207
-0.422179
0.000629516
0.422627
-0.422358
-0.000400102
0.422414
-0.000269468
9.27265e-05
0.000460687
0.00116373
0.00189907
0.00252057
0.000135752
-7.57969e-05
-0.00256298
-0.00244368
-0.00921921
-0.0116039
-0.00243356
-0.00250088
3.92397e-05
5.22513e-05
0.000308351
0.00012848
0.000330518
0.000260841
0.000336785
0.000404549
0.000381134
0.000259383
0.00155683
0.00189923
0.00249686
0.00908454
-0.000505188
0.064196
-0.330295
-0.0835654
-0.000120386
-0.0312256
0.141848
-0.144772
-0.470876
-0.170442
-0.00274774
0.0411857
-0.000222419
-0.333588
-0.141366
-0.0934825
0.213456
0.0257602
-0.0235959
-0.0413744
0.120401
0.00437844
-0.0823832
-0.102555
0.103043
0.000230416
-0.0910808
-0.108087
0.0955577
0.000565794
-0.117104
-0.122499
0.0257644
-0.00707493
0.00114493
0.0014583
0.412183
-0.372711
0.00250775
0.385892
-0.0140264
0.0103511
-0.487577
0.00178106
-0.30273
0.310406
-0.00262448
-0.294727
-0.513282
0.44406
-0.0278681
0.0449616
0.166874
0.0017641
0.359063
0.266793
0.300365
-0.398968
0.00467954
-0.337991
0.0106618
-0.37423
0.00804134
-0.358556
0.0105477
-0.360335
0.00908297
-0.384533
0.280049
0.273813
-0.0192705
-0.48212
-0.387654
0.171185
-0.119066
0.149368
0.0838962
0.0996929
-0.146351
0.041255
0.0313047
-0.157934
0.06235
0.114342
-0.136969
0.214627
-0.11498
0.0179075
-0.127206
0.0221659
-0.138746
-0.108732
0.0212952
-0.00879986
-0.00201483
-0.00138218
-0.000302606
0.000316978
0.000387948
0.000523597
0.00126921
0.00261242
-0.00468209
0.00131457
-0.0697576
0.082363
0.000600318
0.0166182
0.011925
0.00960873
-0.119887
-0.00879497
0.128116
-0.105464
-0.0577378
0.129961
-0.141583
-0.193463
-0.218355
0.153975
0.158994
-0.00952853
-0.0134005
-0.0434134
0.00504923
0.162996
-0.029639
-0.0381817
-0.0215296
0.116676
0.11676
-0.0383578
-0.0293672
0.149999
-0.0823592
-0.174378
-0.0827922
0.160576
-0.0160963
-0.0170754
-0.0208623
-0.00553795
0.00172324
0.275753
-0.0232725
0.010608
-0.000449145
0.000352304
0.000574532
0.000356266
-4.38549e-05
-0.000703172
-0.00177156
-0.000244832
-0.00126171
0.000328986
-0.0112393
-0.00419472
0.00612558
-0.0157838
-0.00758899
-0.00749438
-0.209469
0.201302
-0.00575912
-0.0047176
0.00981013
-0.00483302
-0.00447866
0.0340746
0.0709949
0.0363153
0.253208
-0.127479
0.0163126
0.13297
0.167912
-0.0666459
0.00665393
-0.00242141
0.0110309
-0.0026936
0.00127768
-0.0192185
-0.00381821
0.000132429
-5.99727e-06
-0.000524176
-0.0012078
-0.000829665
-0.00208855
0.00147932
0.00281929
0.000611929
-0.00530864
-0.0011209
-0.000242982
-0.000212886
-0.000381584
0.000553856
0.00755487
0.00234922
0.00387318
0.00221732
0.000842026
1.89227e-05
0.000764415
0.00080764
0.0017039
0.00298704
-0.410978
0.373725
-0.376024
0.376853
-0.376392
0.00193122
-0.416807
0.416823
0.0044483
0.00294057
0.00181868
0.00080688
0.407779
0.00246402
-0.00379272
0.12906
-0.00278095
0.00241078
0.0115762
-0.0190235
0.136588
0.10726
-0.0474337
0.0188663
-0.000401964
-0.000170649
0.0700191
-0.00241026
-0.000142664
0.0494047
-0.149462
0.0433364
0.000520188
0.0173559
0.0126982
0.00135142
-0.0132576
0.00537444
0.0116758
-0.0475333
-0.0436515
0.137056
-0.057874
-0.105357
-0.0191907
0.12942
-0.00862301
0.0116609
0.00931798
-0.00648942
-0.000352196
0.00254912
0.00931805
-0.00368615
-0.00407649
-0.00108652
-0.000636591
-0.000185291
0.00117725
0.000749798
0.00063617
0.000425808
0.418753
-0.41896
0.377032
-0.377355
0.377662
-0.379156
0.00183046
-0.421043
0.419691
0.00136595
0.000561793
3.28518e-05
-0.000368296
0.000541505
-0.00107101
0.000552457
0.000243802
0.00043911
0.000337822
0.000646169
0.000218127
0.000680679
0.00200934
0.0112578
0.0101977
0.0366359
0.00173648
0.000738814
0.000136667
-0.00076351
-0.0027271
-0.00113925
-0.00114343
0.000125611
-0.00026623
-0.000209737
0.000241707
0.000268399
0.000260093
1.39582e-05
-0.00110265
-0.00292448
-0.00306058
-0.00119245
1.45611e-05
0.000108998
0.000194252
0.000301238
0.000412751
0.000730903
0.000629124
0.000586407
0.0013019
0.00110939
0.000606689
0.00176642
0.00339102
0.00138655
0.00205182
0.0491136
-0.0100305
0.00441831
0.00143294
0.00536921
0.108573
-0.00506031
-0.0156851
0.0776722
0.0232968
-0.333735
-0.116094
-0.254152
0.22775
-0.155043
-0.16601
0.20387
-0.270235
-0.0145497
-0.0197864
-0.224617
0.197789
-0.00315706
-0.0110399
-0.00114326
0.00404048
0.0056594
0.0826878
0.0258001
-0.153418
-0.131826
0.250458
0.0249531
-0.059244
-0.0171976
0.103451
0.00337662
-0.118195
-0.07663
0.0778099
-0.000279142
-0.12374
-0.0850438
0.0676103
-0.00111928
0.107762
0.103661
0.00620446
0.129562
-0.12595
0.000485169
-0.113824
-0.000632619
-0.00262064
-0.00044637
-3.75734e-05
0.000178502
0.000197419
0.000171672
0.000137772
4.00665e-05
-0.00105298
-0.00286564
-0.00151281
-0.325473
0.31109
-0.000688956
-0.323886
0.316496
0.475262
-0.480087
0.475804
-0.485457
0.000280153
-0.382303
0.00257592
0.378438
-0.000364844
-0.378452
-0.000218135
0.378584
0.00205685
0.0022996
-0.278666
0.000790854
0.282743
-0.304466
0.000442044
-0.496422
0.000432884
0.498641
-0.434823
-0.000160609
-0.437785
0.00046007
-0.433094
-0.00069022
-0.426701
-0.00131656
0.42265
-0.438499
0.000113426
0.420082
-0.00118217
-0.41348
0.412479
-0.00122095
-0.427456
0.432026
-0.417587
-0.000151811
0.000425883
0.00186728
0.00156879
0.000807716
0.000267404
-0.000223526
-0.00108833
-0.00118949
-0.000169725
0.000848079
0.00210862
0.00215804
0.00466506
-0.325644
0.316308
0.000939297
-0.330721
0.312061
0.475515
-0.496178
0.472749
-0.505351
0.012776
-0.432401
0.0398871
0.376609
0.00244426
-0.396461
0.0114225
0.379845
0.000725063
0.00709839
-0.275443
0.00570885
0.293692
-0.311082
0.00153954
-0.492282
0.00273054
0.497505
-0.426018
-0.0016954
0.416912
0.00379476
-0.471445
0.275233
-0.00111784
-0.31763
0.282171
-0.295551
0.0154422
-0.0361053
-0.0180128
-0.0312925
-0.0558631
0.351152
-0.498077
0.107909
-0.0795563
-0.0308924
-0.0117467
-0.00431956
-0.00253147
-0.00413969
-0.00108449
0.0664324
0.68513
0.343514
-0.178348
0.120244
0.061487
0.39101
-0.33915
0.368419
-0.0219421
-0.240353
0.0116592
0.434818
-0.411131
-0.00109949
-0.408034
-0.000104966
-0.412632
-0.000256621
-0.422403
0.00183335
0.426176
-0.436224
0.000425287
-0.420655
0.00172698
0.422528
0.00162786
0.00110423
0.443304
0.00247277
0.43824
-0.000344216
-0.00280234
-0.00527963
-0.0179426
0.00285607
0.24038
0.0167096
0.0208975
0.0828445
0.145593
-0.20133
-0.000569411
-0.298671
0.00102844
-0.49454
-0.00228807
0.491535
-0.431453
-0.000809988
-0.438706
-4.49733e-05
-0.432663
-3.9032e-05
-0.431069
0.000364322
0.431362
-0.443018
8.79835e-07
0.443225
-6.38775e-05
0.000408254
0.443782
-2.88115e-05
-0.00017416
-0.000867316
-0.00229819
0.427447
-0.00454911
0.403313
0.024105
0.0123479
0.30425
0.0120678
0.0071726
-0.0005326
0.309105
0.00118239
0.00486313
-0.278038
-0.000364374
-0.303427
-0.000164494
-0.496707
-0.000199937
0.496848
-0.43499
-2.31944e-05
-0.439175
0.000275701
-0.434281
-0.000272094
-0.43025
-0.000574888
0.429493
-0.443197
-0.000440747
0.436814
-0.000941342
-0.000405628
5.52729e-06
0.000144091
0.000231317
0.000429015
0.00125718
0.00235754
0.00127383
0.00125503
0.00062595
0.00110529
-0.00157639
-0.000616072
0.000137716
0.000445608
0.000523803
0.000475853
0.000336837
0.000549656
0.00104602
0.0031176
0.00264806
-0.330143
-0.00858771
-0.323405
0.359249
-0.00738942
-0.340841
-0.348592
0.366201
0.342386
-0.00725316
-0.325364
-0.371594
0.389125
-0.34974
-0.00887716
-0.312859
0.352162
0.370408
0.365004
0.357005
-0.00814516
-0.344384
-0.319807
0.00268
0.348811
-0.0067406
-0.365425
-0.333269
0.00120716
0.344738
-0.00247209
-0.373717
-0.339189
-0.348518
-0.356657
-0.00281412
0.355744
0.363273
0.00125567
0.337807
-0.00274782
-0.330973
-0.380241
0.386692
0.00116169
-0.305357
-0.458712
-0.00628134
0.31693
0.0021527
-0.298084
-0.441099
-0.00714151
0.334399
0.393852
-0.283254
0.0228199
-0.275353
-0.00972167
-0.279084
0.0224939
-0.274516
-0.009674
-0.280175
0.0236261
-0.279701
0.389102
0.338493
-0.0105677
0.0152766
-0.001397
-0.208849
-0.250355
-0.237061
-0.262822
-0.25025
-0.25224
-0.259129
-0.212773
-0.329283
-0.260366
-0.237971
-0.249627
-0.168645
-0.0728576
-0.0904366
0.149679
-0.1674
0.393872
0.398238
0.395173
0.396848
0.411334
0.38663
-0.162179
0.130751
-0.0725612
-0.168803
-0.0908868
0.163137
-0.0168977
-0.00348327
-0.00348722
-0.00163097
-0.000733057
0.000392069
0.000396721
0.36072
-3.37777e-05
-0.351948
-0.360398
-0.333386
-0.384158
-0.000268292
0.335357
0.384703
0.000483654
-0.307935
-0.464347
-0.00229207
0.312685
0.467627
0.00154842
0.060864
-0.0597134
-0.000676526
0.0606898
-0.0600363
-7.37006e-05
0.0614702
-0.0594927
0.0021843
0.0680687
-0.0535944
0.0128284
0.0951849
0.0338925
0.0188971
0.0062728
0.00290453
0.00048143
-8.4589e-05
-0.000469358
-4.51334e-05
-0.0012503
-0.000924501
-0.00278129
-0.0617794
0.470139
0.00313877
0.0580453
-0.0805398
-0.0126582
-0.0219194
-0.00858317
-0.0527035
0.036428
0.0109185
-0.383693
0.0237176
-0.264877
-0.0107733
0.0157699
0.000673192
-0.168068
-0.286279
-0.278601
-0.233153
-0.0736136
-0.157224
-0.0634373
-0.125435
-0.356555
0.0608512
0.503144
0.384192
0.413846
-0.161768
-0.344471
-0.207888
-0.000535878
0.0349534
0.0228145
0.0130509
0.00494802
0.00160516
-0.000180608
-0.308837
-0.468324
0.466445
0.311363
0.000352242
0.0019204
0.00576461
0.00632775
0.0196605
0.00719012
0.00128337
-0.000251842
0.000104834
0.382108
0.00163689
-0.334392
-0.387197
-0.307775
-0.47484
0.00102797
0.311965
0.466095
0.0024099
0.00154055
0.00164566
0.00113598
0.00174853
0.00303245
-0.424178
0.38003
-0.380427
-0.00589662
0.00248045
0.00119144
-0.00264236
0.00061571
0.000181615
0.420401
0.000610429
0.000408966
0.419671
0.00267278
0.000254687
0.000811745
0.00149774
-0.000903043
-1.56236e-05
0.000488492
8.73985e-05
0.000310163
0.000144066
3.68662e-05
0.000373314
0.00137741
0.000608885
0.000132075
5.45687e-05
-0.000785546
-0.000251403
-0.000264602
-0.000864215
-7.37618e-05
0.000177627
0.000165915
-0.000454781
-0.000356424
-0.000210907
-0.000178816
-0.0037318
-0.00385232
-0.0170003
-0.0065003
0.372154
-0.00244085
0.000211356
0.000124726
-0.00173115
-0.00185631
-0.00104024
-0.0070183
-0.0064004
-0.00484516
-0.00097104
-0.337033
0.303196
0.00462768
-0.334665
-0.0137895
-0.0136903
-0.0651926
-0.0831742
-0.304248
-0.306518
-0.491589
0.123212
0.0468886
0.254647
-0.0896482
0.132022
-0.0148228
-0.150828
0.135734
-0.00339598
0.105902
-0.00345421
0.127667
-0.140898
-0.0119009
-0.00374719
-0.00462527
0.00202697
-0.0170415
0.1134
-0.00567494
0.00419486
0.00423857
0.00271803
0.00153972
0.000665407
0.000567626
0.00603799
0.00519325
0.0129722
0.0112043
0.0320282
0.00662563
0.00299457
0.00100847
0.30391
-0.306473
0.00111899
-0.495913
0.00136042
0.50086
-0.433007
-0.000643272
-0.433301
0.00045799
0.428274
-0.000280348
1.59999e-05
0.000309934
0.000434042
0.00110654
0.00233031
0.0013985
0.000869683
0.000481405
0.000185236
9.04497e-05
0.000142898
0.000166324
0.000155425
0.42645
5.04641e-06
0.432105
3.07571e-05
0.414545
0.398022
0.00161156
0.396487
0.239129
0.00630304
0.00137074
-0.000159793
7.80382e-05
-0.000842569
0.433558
0.00151064
-0.00103741
0.282128
0.000171648
0.000533566
-0.000304205
0.304356
0.00106243
0.0035084
-0.277531
0.00276589
0.287035
0.000162681
0.00215018
0.00096798
0.000641097
-8.47975e-05
0.435148
0.000156923
0.43455
-7.16825e-06
0.000639069
0.435631
0.000293744
0.439654
-0.000141372
0.00182536
0.435402
-0.00155513
0.303182
-0.000373869
0.00606373
-0.27863
0.00955946
0.298574
-0.00967128
-0.000327498
-0.010691
-0.0360646
-0.0844381
0.00314645
-0.0122832
-0.00532076
0.00406076
0.00367249
0.432599
-0.000649151
-0.00138671
-0.00135799
-0.000289463
-0.00486147
-0.000240503
0.000664253
0.000510117
0.438602
0.43301
-0.000329812
-6.65608e-05
-0.000876841
-0.00168289
-0.00186422
-0.0079983
-0.00299405
-0.00310942
-0.0016518
-0.00063138
0.441544
-0.00125189
-0.000213481
0.000397542
-0.000290869
-0.0015437
-0.00551289
-0.0166586
-0.00399644
9.74627e-05
0.000405628
0.00181413
-0.00210575
0.00244703
0.00421423
-0.00733458
0.0324503
0.0671986
-0.0488604
0.348495
-0.00169058
-0.0232824
-0.0341404
-0.0189722
-0.00656113
-4.11552e-05
0.00646821
0.0188026
0.0338852
0.0364548
0.000659531
0.0179139
0.0177542
-0.329348
-0.167544
-0.344906
-0.169275
-0.00047208
0.0212672
0.00541517
0.00227134
0.322488
0.383217
-0.00144516
0.0031191
0.00127965
0.00254706
0.00139611
0.00302181
-0.00388144
-0.0206568
0.153876
0.352815
0.0147561
-0.000489573
0.00100449
0.00103036
0.000519814
0.000604099
0.00025911
0.00025968
0.000329266
-0.000576412
0.000119921
8.73084e-05
0.000869014
-0.000411814
-0.000674094
-0.36344
0.00257456
-0.353979
0.341333
0.00687047
-0.355648
-0.367621
0.350725
0.328296
0.00458912
-0.334921
-0.391491
0.375324
-0.0006968
0.31381
0.463729
0.00517762
-0.00106467
-0.00125424
0.000996456
0.00171281
0.00446416
0.0772528
0.122254
0.187096
0.442362
0.0287012
0.2289
0.338895
-0.0156161
-0.00427083
-0.01129
-0.00307723
-0.00157335
-0.000215298
0.333271
0.357511
0.349394
0.339261
0.0027622
-0.379258
-0.345296
-0.000887107
0.334024
0.00726208
-0.381141
-0.350473
-0.00222464
0.322369
0.343582
0.305834
-0.00155274
-0.00242516
-0.00270472
-0.000820135
0.000258939
0.00166361
0.000321826
0.000265964
-0.000814655
-0.000346635
-0.00312158
0.029481
-0.003235
-0.00203526
-0.00492288
-0.00389509
-0.0024116
-0.00411023
-0.00175959
0.0843258
-0.00200407
0.00187795
0.000255686
-9.22631e-06
0.00510558
0.00447027
-0.0315797
0.181398
-0.0788351
-0.306282
-0.387919
0.0290593
-0.177555
0.073745
0.0233385
-0.109405
-0.117643
-0.0128474
-0.0194285
0.129077
0.118296
-0.0111066
-0.11508
-0.00199141
0.11558
-0.000585837
0.0015037
-0.000115096
0.00134664
0.00329857
0.00343274
0.00235868
0.000687936
0.000546894
-0.00133087
-0.00115063
-0.000184282
-0.000689157
-1.18801e-05
-0.000147391
0.000831204
0.00180775
0.00168403
-0.00235423
0.00306941
0.00657855
-0.0123326
0.385865
-0.0253188
0.0184357
-0.429438
0.00530258
0.00469027
0.0350588
0.00405894
0.00861115
0.0263205
-0.00193205
-0.000737389
-0.00259896
0.00680229
0.0741846
-0.00479958
-0.00275997
-0.00140798
0.00190495
-0.188138
0.218174
-0.00649961
0.00141585
-0.00892384
-0.0224179
-0.0253631
-0.00471466
-0.00223738
0.0904791
-0.00230726
-0.00281648
-0.00530839
-0.000878563
-0.00310072
0.079741
-0.00520021
-0.00298679
0.00681028
0.00519832
-0.00118956
-0.00132851
-0.000867454
-0.00220098
0.00203176
0.0055373
0.00439351
0.0035429
-0.00874615
0.0173199
0.0173974
0.0200973
0.0268108
0.38584
0.0525789
0.00820371
-0.0130756
-0.0046879
-0.000271798
0.00392082
0.011722
0.00179353
0.38017
0.318895
0.00116234
-7.53543e-05
0.000356383
0.000366378
0.316836
0.377641
0.000122354
-0.377234
-0.342232
0.342063
0.000351219
0.35296
0.000371077
0.00760454
0.0212054
0.00214846
0.00208044
0.00616879
0.000402008
0.000492927
-0.00615531
-0.0187149
-0.00523041
0.31395
0.335154
0.322258
-0.0058964
-0.00192225
-0.000303572
-8.72406e-05
-0.000284469
0.37389
0.315336
-0.00012598
0.000369151
0.000111602
-0.000729742
-0.000826686
0.312742
0.365223
-0.0017806
0.00106223
7.73962e-05
-0.000437283
-0.00187817
-0.0104497
-0.0553271
-0.357774
-0.129084
-0.0252434
-0.00343728
-0.000506215
0.00028717
-0.000303945
-0.000639603
0.000779124
-0.00522061
-0.0135738
0.0127444
-0.0166274
-0.0333046
-0.0224093
0.0125533
0.230067
0.330946
-0.0160807
0.00274979
0.220107
0.332741
0.00188829
0.209553
0.346045
0.165058
0.00104027
-0.0019313
0.356093
-0.00213209
0.0201636
0.121464
0.0209702
0.0448148
0.0474822
0.0451033
0.059727
0.03768
-0.000985628
-0.00490901
0.0459141
-0.0215916
-0.0100314
-0.00778334
0.0490594
0.00477339
0.0338976
0.0297018
0.20744
0.175101
0.194426
0.185629
0.190172
0.0411317
0.00668071
-0.000795427
-0.00698257
-0.0839487
-0.283818
-0.267949
2.79805e-05
0.0114427
0.171215
0.000112622
0.434478
0.00326974
0.000579608
0.000187263
-0.00064911
-0.0110047
0.00182144
0.305571
0.437436
0.433138
-0.000219588
-0.010771
-0.427733
0.0012062
0.00152997
0.00141667
-0.044435
0.47762
0.0127034
0.00676573
0.00226587
0.00587223
0.0949117
0.00333733
0.214778
-0.254357
-0.031607
-0.4494
-0.000211416
-0.0214945
0.1075
0.000720645
-0.455754
0.411951
0.00559904
0.2329
0.0153723
0.088972
0.216901
0.0347627
0.0370233
0.00176897
0.00151291
-0.00174013
0.293321
0.0132864
-0.0185448
-0.0262786
-0.00841663
0.00215048
0.000460888
0.000198809
0.000352685
0.000413719
0.000133439
-0.000966772
-0.00151463
-0.0135911
-0.00688318
0.243841
0.019728
-0.408774
0.445387
0.0270034
0.321897
0.0020474
-0.298106
0.308571
0.0302549
-0.270641
0.293154
0.00585332
-0.282238
0.288395
0.00365618
-0.284781
0.288266
0.0026166
-0.286491
0.288176
-0.000614965
-0.289805
0.28501
-0.00721716
-0.296659
0.272498
-0.033569
-0.312027
0.203446
-0.1485
-0.395044
-0.120331
-0.370448
0.0231331
0.242098
-0.243956
0.0138969
0.253098
-0.250427
0.00520195
0.254232
-0.261387
-0.00294759
0.25344
-0.260262
-0.0215209
0.244713
0.256922
0.396055
0.100218
-0.285885
0.00373276
0.420252
-0.000773694
-0.428245
-0.00190594
0.41061
-0.00250943
-0.414637
-7.11532e-05
0.412218
0.000429617
-0.406037
0.00130565
0.417902
-0.0123428
-0.439192
-0.0190723
0.342644
-0.0608489
0.0787435
0.178628
-0.326989
0.333053
-0.395948
0.372889
-0.385029
0.378851
-0.379258
0.380542
-0.376313
0.381822
-0.374547
0.380352
-0.376544
0.381682
-0.374295
0.391671
-0.332655
0.321708
-0.158579
0.313518
0.394275
0.19623
0.290875
0.212015
0.163555
0.107318