/*--------------------------------*- C++ -*----------------------------------*\
| =========                 |                                                 |
| \\      /  F ield         | OpenFOAM: The Open Source CFD Toolbox           |
|  \\    /   O peration     | Version:  2306                                  |
|   \\  /    A nd           | Website:  www.openfoam.com                      |
|    \\/     M anipulation  |                                                 |
\*---------------------------------------------------------------------------*/
FoamFile
{
    version     2.0;
    format      ascii;
    arch        "LSB;label=32;scalar=64";
    class       volScalarField;
    location    "2";
    object      gradTy;
}
// * * * * * * * * * * * * * * * * * * * * * * * * * * * * * * * * * * * * * //

dimensions      [0 -1 0 1 0 0 0];

internalField   nonuniform List<scalar> 
5322
(
0.650079
0.0610588
-0.00445255
-0.0273196
-0.0151468
-0.00537917
-0.000189997
0.00482067
0.0141594
0.025854
0.00023219
-0.192643
-0.214113
-0.19219
-0.166836
0.361063
0.482955
-0.000743071
0.333492
-0.395358
0.376006
-0.381967
0.374683
-0.38345
0.382104
-0.374824
0.374442
-0.382235
0.381149
-0.376463
0.378787
-0.378765
0.3911
-0.335961
0.322279
-0.161085
0.316465
0.397267
0.198425
0.214824
0.293194
0.244876
0.253457
0.273673
0.26092
0.258328
0.265079
0.283193
0.26237
0.250569
0.314339
0.152215
0.170383
-0.561638
-0.03065
-0.32499
0.170816
-0.426206
-0.0242624
-0.370424
0.173446
-0.419142
-0.0216626
-0.367672
0.174144
-0.433742
-0.0279003
-0.355577
0.175762
-0.477152
0.0168097
0.419329
0.233571
0.326301
0.243743
0.308704
0.257595
0.307345
0.260961
0.36103
0.032887
0.121379
0.183458
0.305396
-0.0259985
-0.127617
0.0363003
0.0713896
0.132195
0.0151563
0.0346006
0.00639357
0.00100993
0.00118852
0.444485
-0.237293
0.00714852
0.239243
0.00649464
-0.00623675
0.0326313
0.0063924
0.253315
-0.433352
0.387796
0.00522438
-0.00741141
-0.00138286
-0.00022945
0.000413741
0.000471811
0.000579683
0.00132381
0.00265719
-0.0045083
0.00118221
0.137324
-0.0564856
-0.0194064
-0.105987
0.130357
-0.0725543
-0.141379
-0.193391
-0.218535
-0.00880428
0.160179
-0.120871
0.0113265
0.13201
-0.131486
0.00553864
0.13723
-0.14071
-0.00444578
0.12816
-0.15374
-0.0122419
-0.0354815
0.235371
0.194996
-0.127797
0.0847299
0.0658651
-0.134714
0.0145166
-0.131995
0.103536
0.106403
-0.117325
-0.00177458
-0.109483
0.109886
0.118611
-0.106556
-0.000358182
-0.10185
0.129298
-0.00843443
-0.00637824
0.406314
-0.318442
0.352117
-0.373905
0.012641
-0.2413
-0.00516512
-0.00220607
-0.045161
0.116579
-0.233254
0.232075
-0.389568
0.000888844
0.397903
-0.39309
0.409259
-0.418239
0.00173988
0.412036
-0.422129
0.437831
-0.436483
0.00162476
0.426794
-0.429701
0.443555
-0.441703
0.000995553
0.431416
-0.43249
0.445538
-0.44363
0.000837175
0.433437
-0.43482
0.447819
-0.444386
0.0010881
0.434275
-0.437508
0.450789
-0.443308
0.00143317
0.4326
-0.438753
0.451962
-0.434165
0.00184295
0.421729
-0.43417
0.437795
-0.237261
-0.00106496
-0.0174818
0.00727467
-0.00705168
-0.000434416
0.00277906
0.00368388
1.06156e-05
0.445443
-0.236182
0.0019945
0.281543
-0.0382461
-0.0112431
0.00927822
-0.0138601
0.238536
-0.438656
0.00254635
0.00195211
0.00548917
0.00355273
0.00189736
0.000853168
5.8432e-05
-0.00117302
-0.00295686
0.00439567
-0.00158233
-0.110547
-0.117745
-0.117798
-0.110803
0.0226336
0.0390114
0.0245951
-0.148863
0.0780847
-0.157864
0.0391029
0.0226782
0.024642
-0.156014
0.05433
0.149275
0.0963679
-0.148804
0.0782452
0.162047
0.226263
0.238982
-0.391439
-0.390551
-0.420329
0.304928
-0.378289
0.347156
-0.371702
0.359513
-0.370248
0.363924
-0.371955
0.36481
-0.377311
0.363194
-0.386203
0.359386
-0.394711
0.351771
-0.077463
0.166892
-0.0531071
-0.00920423
0.304546
-0.363489
0.00352092
0.325884
-0.364768
0.00160195
0.336844
-0.35839
0.000731685
0.341887
-0.352723
0.000161812
0.342016
-0.350295
-0.000819936
0.336195
-0.351125
-0.00260913
0.318988
-0.357162
0.00835213
0.267189
-0.0246751
0.266954
-0.357741
0.00836818
0.306523
-0.417909
0.167727
0.277339
0.207289
0.19402
-0.368684
0.241856
-0.344125
0.304329
-0.337183
0.323105
-0.336195
0.329124
-0.33884
0.329665
-0.345899
0.327165
-0.35437
0.321566
-0.350966
0.30653
-0.0505857
0.120764
-0.138319
-0.00260648
0.420186
-0.514221
0.00886053
0.461739
-0.502581
0.00445207
0.470388
-0.48481
0.0017192
0.470685
-0.475776
0.000410013
0.47066
-0.473118
-0.000928556
0.46992
-0.473084
-0.00195719
0.462123
-0.477239
0.0106379
0.410949
-0.475174
0.166733
0.38738
0.344243
-0.172841
0.328202
-0.0779082
0.0618437
0.39325
-0.340353
0.317534
-0.298958
0.478841
-0.4216
-0.00334016
-0.471847
0.402458
-0.411729
0.0120963
0.433479
0.0193503
0.00839611
-0.122676
0.0120289
-0.00985075
0.00643599
-0.00235233
-0.000842992
0.39631
-0.397087
0.397368
-0.413087
6.69123e-05
0.426165
-0.428896
0.433796
-0.433674
0.000300528
0.436978
-0.435344
0.440053
-0.435483
0.000354597
0.443549
-0.43293
0.444703
-0.421953
-0.000683675
0.00057509
0.000951139
0.00317471
0.00178175
0.0011491
0.447533
-0.432302
0.00227825
0.511217
-0.504989
0.452356
-0.417692
0.00437952
0.507334
-0.482163
0.307279
-0.213792
-0.341458
-0.0231991
-0.00526899
-0.12343
-0.031712
0.00956714
0.22719
0.296562
0.023653
-0.483222
0.367168
0.00364996
-0.409899
0.374678
-0.000815768
-0.385746
0.379582
0.00016929
-0.372652
0.37831
-0.00266796
-0.372402
0.393085
-0.00672943
-0.355172
0.40141
-0.025241
-0.31688
0.102855
0.154645
-0.190713
0.00160631
0.311528
-0.265146
0.311181
-0.304235
0.308903
-0.305653
0.497308
-0.435919
-0.00103062
-0.498543
0.434435
-0.433183
-0.00260446
0.492891
-2.78e-05
-0.00110883
-0.000725581
-0.0285865
0.00647766
0.0398942
0.0433333
0.0176454
0.00754997
0.0249532
0.0176733
-0.0227578
0.368448
0.118118
0.0256811
0.088172
0.0188233
0.00565782
0.00394495
0.00131143
0.000732808
0.0010356
0.0010108
-0.279713
0.000302731
0.285468
-0.282181
0.308091
-0.306456
0.311091
-0.306998
0.504737
-0.436291
0.000810561
-0.500943
0.44191
-0.43677
-5.74702e-05
0.500213
0.000969661
0.00100399
-0.000117795
-0.00290028
-0.00137312
0.00434932
0.00314891
0.000581732
0.0134943
0.00967487
0.291697
0.00141931
-0.013433
-0.00116388
-0.0195193
0.0025215
0.193854
0.370167
0.680424
0.0713175
-0.0103507
-0.00481236
-0.0184625
-0.375894
0.00164268
0.349767
0.318336
-0.351306
-0.00258746
-0.370332
0.00274214
0.36176
0.335641
-0.350121
-0.000780678
-0.370229
0.00237711
0.364945
0.341999
-0.352408
0.000224861
-0.373381
0.00632572
0.363904
0.342953
-0.358308
0.000857769
-0.380708
0.0177741
0.358035
0.340425
-0.366192
0.00181561
-0.390981
0.0432519
0.344512
0.334938
-0.370038
0.00385153
-0.394664
0.0964438
0.322322
0.322299
-0.0620632
-0.00894481
-0.0718625
0.848314
-0.37892
-0.386903
0.626725
0.162939
0.0676708
-0.585125
-0.120598
-0.0705812
0.30068
-0.313901
-0.00548231
0.00654348
-0.0393069
-0.0472813
-0.00485969
0.0125366
0.00725944
0.0029516
-0.00385557
0.00173407
0.00277307
0.000815773
8.82117e-05
-0.000752315
-0.00257973
-0.00495405
-0.0171755
-0.00920179
0.239606
-0.239711
0.00288047
0.00154527
-0.243477
0.239897
-0.000568129
0.00099676
-0.00108503
-0.0181726
-0.0115159
0.0435015
0.00471528
0.0500607
-0.0177562
-0.0217726
2.35315e-05
0.0801874
-0.0932112
0.0935855
-0.0798886
-0.0808729
-0.0691351
0.00257991
0.0928041
0.0835171
-0.0833663
-0.00248474
-0.0935063
-3.75034e-06
1.46951e-05
0.00594018
0.0168506
0.0150823
-0.0334324
0.00065389
0.000172639
0.000987656
0.00282607
0.0068568
0.0029488
0.0240062
-0.0188595
-0.00209008
0.0136527
0.300193
-0.273895
0.316203
-0.311549
0.319482
-0.00767285
-0.283248
0.00825014
0.317456
-0.00116643
-0.0138798
0.00285064
0.0019656
0.00392198
0.00464573
-0.00334741
-0.0470144
0.161117
-0.0718704
-0.309111
-0.039169
-0.0372112
-0.608885
-0.167843
0.0214046
-0.245604
0.181588
0.00834291
0.010282
0.219816
0.184393
0.0258459
-0.0206229
0.244517
0.219743
0.027865
-0.0248503
0.221873
0.250602
0.0259717
-0.0572818
0.184031
0.25591
-0.0886648
0.1334
-0.11631
0.124311
-0.490866
-0.266608
0.048217
-0.121151
0.264009
-0.0159201
-0.432799
0.228313
-0.00456182
-0.271148
-0.268038
-0.389698
0.164041
-0.214327
-0.137229
0.238473
-0.494802
-0.055476
0.348085
-0.428583
-0.0109607
0.373042
-0.392586
0.000876876
0.376102
-0.378526
0.00195972
0.374484
-0.374813
0.00214184
0.374306
-0.373974
0.00577972
0.376332
-0.371626
0.0230386
0.388228
-0.333004
0.0937023
0.323012
-0.180371
0.342717
0.387081
-0.480002
0.409607
-0.481741
0.0110689
0.241075
-0.368861
0.166547
0.193086
0.209037
0.277314
0.238504
0.167605
0.322913
0.192306
-0.00159253
-0.0279943
-0.0156726
-0.00981678
-0.00591023
-0.0115391
-0.00607603
0.0017459
0.00619608
0.28671
-0.27784
7.23113e-06
0.000485551
0.000111228
1.94835e-05
-0.499158
0.437939
0.000194332
0.439054
-0.441297
0.000460601
0.441811
-0.4433
0.00110904
0.443472
-0.445507
0.00197881
0.442831
-0.445315
0.0025196
0.431629
0.00276924
0.00532943
0.000826116
3.27545e-06
-0.0012585
-6.04577e-05
0.000375767
0.000411785
0.000361608
0.000236392
0.000181551
0.000232877
0.00227263
0.00644915
-0.233392
0.00347566
0.0115571
-0.00060314
0.000415772
0.000627441
0.000405058
-3.40623e-05
-0.000778745
-0.00195272
-0.00285265
0.0104337
-0.00295672
-0.00782683
-0.0102334
0.204359
-0.218099
0.276526
0.000400091
-0.0372177
0.0310946
0.102635
0.000582823
-0.0912069
0.0858552
0.0880286
0.000328504
-0.0975665
0.0915885
0.0786075
2.10679e-05
-0.122545
0.116569
0.108946
-0.00207071
0.13572
-0.142909
0.139344
-0.150124
-0.0138634
-0.0829524
0.120518
-0.00990803
-0.114601
-0.00243339
-0.00076465
0.411462
-0.00143156
-0.413876
0.239273
-0.00832355
-0.247445
0.247892
-0.00538821
-0.259827
0.416871
-0.00392345
-0.416688
0.409146
-0.407221
0.404921
-0.414708
0.000945269
-0.412964
0.407473
-0.00083172
-0.247577
-0.0090542
0.249762
-0.212418
0.00196437
0.373753
0.133349
0.393759
0.143947
-0.203533
0.311107
0.0286495
-0.272467
0.294411
0.00589764
-0.285087
0.288268
0.00133012
-0.284879
0.287649
0.000192407
-0.287695
0.285478
-0.00137777
-0.287709
0.285943
-0.00690244
-0.294307
0.27179
-0.0311687
-0.311717
0.203751
-0.148281
-0.395433
-0.119746
-0.370299
0.242031
0.0226648
0.0121031
0.154675
0.03619
-0.238158
-0.196249
-0.0545728
-0.151818
-0.0984336
-0.0768896
-0.168155
-0.0840179
-0.0892712
-0.167031
-0.244591
-0.253447
-0.167392
0.415906
0.0229353
-0.244731
-0.00857756
0.335526
0.394769
-0.00445263
-0.291093
0.00193849
0.325345
0.48268
0.00460449
-0.475368
0.00033425
0.4801
0.00114534
-0.477283
0.0012928
0.478523
0.000654304
-0.478658
-0.00101097
0.477042
0.000537522
-0.480212
-0.000177302
0.474924
-0.000975869
-0.482994
-0.00417555
0.466842
-0.00684869
-0.48791
-0.017127
0.00212175
-0.299932
0.487264
0.00307134
0.31313
-4.49147e-05
-0.304794
0.498484
-0.000147864
0.30894
2.78918e-05
-0.307218
0.501522
-0.000115565
0.308329
-0.000289693
-0.307063
0.502631
0.000112983
0.307283
0.000436661
-0.308259
0.503261
0.000342774
0.307686
9.98428e-05
-0.308776
0.503497
0.000561888
0.30546
0.000514902
-0.312296
0.500561
-0.00136059
0.302331
8.57639e-05
-0.319192
0.477567
-0.0188547
0.342679
-0.061286
0.0787553
-0.389013
-0.343055
0.178991
-0.327098
-0.0959682
-0.0663082
-0.683969
-0.372316
-0.326709
-0.232144
-0.167838
0.37267
0.431062
0.031292
-0.231861
-0.0109562
0.487836
0.0144971
-0.466664
0.00551186
0.00355176
0.00745442
0.0188412
-0.321552
-0.0155351
0.156671
-0.0230529
-0.0221979
-0.0422237
0.149784
-0.0495257
0.0204029
0.0179273
0.000470545
0.00135015
0.00123248
0.000720081
0.000614096
0.000186349
-0.00243505
-0.00177414
0.427071
-0.495087
0.00188009
-0.00257826
-0.00482064
-0.000358682
-0.407255
-0.000419605
0.415027
-0.43362
-0.000432778
0.433132
-0.439316
-3.00251e-05
-0.000135873
-0.00107267
-0.000522458
-5.00507e-05
0.000742749
0.000666463
0.000593726
0.000383231
0.000250677
0.000154379
0.00120671
0.00188555
0.00074654
0.411846
-0.414657
0.37685
-0.379069
0.380158
-0.379489
0.00212051
-0.198577
6.33795e-05
0.187302
0.00675927
-0.20959
-0.000743366
0.15925
-0.0162621
-0.0131201
0.0596297
0.00274366
-0.0643522
0.474763
-0.00645683
-0.298095
0.00116279
0.305238
0.397414
-0.00285174
-0.313633
0.000425037
0.317877
0.384503
5.1447e-05
-0.317494
-1.29149e-05
0.314952
0.385238
0.00249739
-0.320781
-0.000598298
0.308642
-0.323925
-0.00110271
0.29066
-0.331207
0.0131034
-0.00941029
-0.00240892
-0.00091789
-2.97942e-05
0.000258987
0.00053771
0.00144464
0.00301821
-0.0044776
0.00136779
0.110697
0.116599
0.117997
-0.0351145
0.159547
-0.016732
-0.0173748
0.163881
-0.0310054
0.149426
-0.0482239
0.00588947
-0.0132956
0.0128135
-0.00320264
0.00289802
-0.00234909
-0.391989
0.0103198
0.0115776
0.00246817
0.000140953
-4.31509e-05
-0.0832251
0.0825446
0.00259896
-0.0702048
0.107668
-0.0219295
0.00925592
-0.00376803
-0.00427032
-0.0209133
0.155284
-0.38609
0.0233217
-0.259271
-0.0106135
0.328381
0.403191
-0.00948632
-0.296503
0.00262925
0.388248
-0.00712051
-0.307141
0.00122628
0.321415
0.389078
-0.00176268
-0.315574
0.000461268
0.318858
-0.318603
-0.000118971
0.31559
0.000592652
0.000211718
-0.000125917
-0.000387814
-0.00129153
0.00946775
-0.00624454
-0.00028198
0.00255235
3.71197e-05
-0.00237915
-0.0111831
-0.00942624
-0.00257153
-0.00255656
0.00237117
0.00666817
0.00128218
0.00588453
0.00162495
0.00380898
-0.0084544
-0.0119508
-0.025602
-0.0283711
-0.0607698
-0.0510034
-0.0308177
-0.118256
-0.367976
0.031836
-0.56855
-0.417761
-0.299509
-0.19908
-0.179695
0.0711794
-0.161516
-0.0158349
0.0378549
0.00145696
-0.00624986
0.193782
-0.229061
0.281703
0.00266996
-0.0330018
0.0523987
0.119673
0.00506984
-0.0814314
0.111877
0.112138
0.00552476
-0.0873295
0.11568
0.10493
0.00418159
-0.116772
0.13063
-0.00623535
0.00370946
0.0187355
0.0802017
-0.344205
-0.499357
0.00543782
0.467397
0.0133794
0.0098974
0.302183
0.00181219
-0.495845
0.501807
-0.000760896
-0.474171
0.278677
-0.319976
0.28514
-0.0313068
-0.297801
0.016167
-0.33141
0.461972
-0.404694
0.42085
-0.00143627
-0.421875
0.000773827
0.418126
-0.00125224
-0.419798
0.000248099
0.421684
-0.0012227
-0.423441
0.41153
-0.473739
0.0272446
-0.328136
0.449074
0.0208654
0.0108041
-0.123505
0.134037
-0.138301
2.66306e-05
-0.115574
0.106166
0.00754792
-0.131984
0.0939404
-0.107208
0.004828
0.191967
-0.115844
0.0710915
0.0177304
-0.136513
0.107359
-0.00212581
-0.00233134
-7.13946e-05
0.00453422
0.00282368
0.00146305
0.000647533
-4.55477e-07
-0.00113951
-0.00288461
0.00442924
-0.00137454
0.0694062
0.0798587
0.000147257
-0.0189224
-0.0116976
0.150463
0.0545206
-0.127701
0.0656675
0.0848477
-0.133674
0.00436164
-0.154779
-0.0120231
-0.0360893
-0.125017
0.196001
0.238391
0.0124467
0.0437355
-0.0106304
0.00597509
0.104561
-0.112365
-0.00136057
-0.117869
0.117536
0.11236
-0.104516
-0.000718934
-0.142605
-6.94432e-05
0.142557
3.17179e-05
7.21026e-05
-0.00259508
0.00851084
0.00375598
0.0637233
0.6798
0.369791
0.190261
-0.00152683
-0.0249564
-0.0139742
-0.00766814
-0.0103694
-0.0223709
-0.0470774
-0.0514869
-0.104778
-0.116077
-0.246904
-0.416947
-0.371188
-0.374424
0.159077
-0.250001
-0.0969124
-0.105067
-0.32398
-0.426523
-0.378645
-0.378211
-0.383454
-0.377031
-0.42746
0.161321
-0.0459375
-0.134236
0.511792
-0.160482
-0.306518
-0.299298
-0.0782587
-0.0971196
-0.22657
-0.238124
-0.0627598
-0.0966214
-0.0236624
-0.00776252
-0.00138873
4.39801e-06
0.000222152
-0.000781984
-0.00447314
-0.00524093
-0.019369
-0.00815598
-0.00296222
-0.00566705
-0.00352091
-0.00483668
-0.0118402
-0.0303882
-0.0127794
-0.0124345
-0.0144269
-0.0068828
-0.00193995
-0.000170238
-0.000358932
-0.00126001
-0.00126773
-0.00369244
0.303499
0.458476
-0.475063
0.466658
-0.473081
-0.000659344
0.32206
-0.337689
-0.00158176
-0.00288754
0.00151769
0.00527587
-0.344665
0.0158566
-0.157079
0.0969207
-0.0301775
-0.00938494
-0.0111441
0.0143393
-0.134933
0.105993
-0.000795278
-0.000382046
-0.000390785
8.77652e-05
0.0691313
-0.00237676
0.000297699
0.00029351
-0.000200389
-0.0437057
0.000223871
0.018115
0.011237
0.0148363
-0.0123311
0.0103632
-0.000167379
0.00107514
-0.0435853
0.134656
0.133687
-0.0845411
-0.0142425
-0.0669512
0.128468
0.0112833
0.00248994
5.47901e-05
6.49547e-06
-0.00255475
-0.00232958
-0.00239988
-0.000482284
-0.0104452
-0.00087756
-0.00239608
0.00080513
0.00536915
0.00123003
0.00348896
-0.33625
0.327982
0.468632
-0.474059
0.469417
-0.479217
0.0011654
0.328252
-0.337996
0.000259536
4.39116e-05
8.84656e-05
0.000524026
0.0012646
0.00303049
0.00256269
0.00566671
0.00312641
0.00660883
0.00677182
0.0162443
0.013814
0.0146478
0.00649296
0.086403
0.0011712
0.00206455
0.000972476
0.000217348
-0.000779411
-0.00279041
-0.00309947
-0.00118575
-0.00111171
-0.000723292
-0.000162852
0.000109931
0.000244611
0.000393746
0.000347108
0.000206675
-0.00104624
0.00140572
0.00132928
3.25805e-05
0.000155851
0.000283256
0.000454878
0.000811005
0.000926146
0.000863576
0.0017486
0.0020504
0.0014859
0.00332933
0.00436058
0.00359366
0.0227092
-0.0287913
-0.0410905
-0.00799791
0.00449293
0.00598362
0.00612481
-0.101076
-0.00170313
-0.000978235
-0.00150604
-0.00984224
-0.00383492
0.213986
-0.0027979
-0.285147
-0.00206958
-0.0129269
-0.264058
-0.0114727
-0.0156018
-0.165678
-0.0736537
-0.126779
-0.315424
0.030587
0.0804279
0.00542366
-0.00423709
-0.00356638
-0.00662371
0.00186392
-0.191587
0.273045
0.00193479
-0.0600925
0.0265316
0.0946167
0.000451201
-0.117926
0.0749159
0.0759914
-0.000550218
-0.122019
0.0802288
0.0668937
-0.00130099
-0.111816
0.0253502
-0.151282
0.0668269
0.105937
-0.14705
0.0444396
0.0218957
-0.00891434
-0.00198908
-0.000709612
0.000161257
0.000329918
0.000499587
0.00133839
0.00249404
0.00314598
0.00296867
0.00437091
0.421057
-0.420772
0.00182616
0.42299
-0.422991
0.380322
-0.380488
0.380869
-0.382345
0.00139042
-0.199543
-0.00101308
0.194499
0.0013929
-0.197382
-0.000218858
0.194067
-0.00114527
-0.000794171
0.0627932
0.00122257
-0.0622328
0.470908
-0.000252364
-0.301338
0.000108766
0.304298
0.393013
0.00183476
-0.317322
-0.000604061
0.374669
0.00710261
-0.322988
-0.00233384
0.290131
0.368344
0.0063064
-0.397507
0.00936882
-0.330373
-0.393645
0.00846873
0.357959
0.29773
-0.324726
0.0102686
-0.00876966
0.00306889
0.00157701
0.000881419
0.000168771
-0.000617942
-0.00163226
-0.000785806
-6.20262e-05
0.000666298
0.00041347
0.000591032
0.000251845
0.423857
-0.42508
0.00173781
0.424489
-0.428272
0.383059
-0.383673
0.388566
-0.375733
-0.0145448
-0.198161
-0.00626213
0.201008
-0.00131037
-0.204147
-0.00273832
0.195439
-0.00257255
0.0021938
0.070171
0.0050817
-0.0557469
0.467653
0.00198994
-0.296041
-0.00233231
0.303105
0.365612
0.00564928
-0.40796
0.0109176
-0.289663
-0.517265
-0.00221328
0.447285
-0.0300187
0.168619
0.00130535
0.122098
0.0767851
0.0449089
0.0288766
0.228499
-0.144803
-0.0130709
0.00598931
0.000129143
-0.000508142
-0.000181271
-7.15237e-05
-0.000867102
-0.00513175
0.00164224
0.277859
-0.199345
-0.322605
-0.0736965
0.0612961
-0.15838
0.50772
-0.234127
-0.286082
-0.276842
-0.161891
0.381421
0.421729
0.0220127
-0.261005
-0.00944304
0.39045
-0.0083951
-0.290911
0.00283457
0.325976
0.390959
-0.00485546
-0.308948
0.00101989
0.321431
0.00172297
0.00196816
-0.380195
0.0058836
-0.366763
0.0338843
0.0346664
0.00106219
-0.204445
-0.342371
-0.238955
-0.168817
-0.355998
-0.125971
-0.0639574
0.0373409
0.010625
0.482075
-0.00748519
-0.291194
0.00217018
0.309807
0.39943
-0.00746398
-0.308296
0.00119715
0.386481
-0.00269711
-0.314233
0.000404099
0.318395
0.387413
0.000260245
-0.387553
-0.000339374
0.000390591
-0.385211
0.00690099
0.00705681
0.0192743
0.00584596
-0.359821
0.0163246
-0.291004
0.00107255
-0.0533642
-0.0831386
-0.0225506
0.0226796
-0.00919558
-0.444468
-0.00123102
-0.00310435
0.062758
0.00125221
0.472203
-0.0024104
-0.300503
0.000472799
0.303794
0.39564
-0.000253949
-0.315989
0.00010692
0.38152
0.00271452
-0.319851
-0.000812048
0.307548
0.380533
0.00607478
-0.392424
0.00101373
-0.000604538
6.90832e-05
0.000298476
0.00033735
0.000243757
0.000152824
8.00045e-05
-0.00118913
-0.00309964
-0.000740667
-0.000822167
-0.00103793
-0.000126391
0.000425684
0.000660528
0.000831235
0.00019179
0.000314137
-0.000192845
-0.000233097
-0.00110692
-0.000561791
0.431552
-1.75443e-05
-0.431393
0.433854
3.83053e-05
-0.438239
0.438451
-0.433326
0.437534
-0.000652686
-0.444411
0.437408
-0.435024
0.431078
-0.00193649
-0.439459
0.419519
-0.418056
0.41845
-0.419709
0.00188973
-0.431395
0.440148
0.00100089
-0.437749
0.000747915
-0.437812
0.445279
0.000599973
-0.443249
0.000275295
-0.439376
0.445981
-0.439702
0.440027
0.000110775
0.438534
-0.437918
-0.000165084
0.44311
-4.96623e-05
-0.445081
0.439059
-0.437788
-0.000954862
-0.500821
0.308598
-0.000464987
0.495573
-0.00237508
-0.498184
0.311811
0.00130044
0.482699
-0.423809
0.40661
-0.00148398
-0.413606
-0.000487103
0.403477
4.37755e-05
-0.403374
0.000907822
0.413926
0.00150954
-0.406715
0.424859
-0.484019
0.00343319
0.00512723
0.00467477
0.017215
0.0117374
-0.24272
0.250336
-0.246656
0.246603
-7.31681e-05
-0.000727651
-0.000692866
-0.250315
0.242557
-0.0118704
-0.00684043
0.129715
-0.144879
0.000510883
-0.000945585
0.402769
-0.407766
0.408002
-0.402971
0.41648
-0.438469
-0.0119315
-0.00456997
-0.129714
0.00681639
0.144812
-0.00597596
0.00266166
0.00256311
7.51344e-05
0.000132249
0.000192675
0.000213662
0.000173821
-0.439394
7.04608e-05
-0.439673
0.440074
-0.444748
0.439653
0.000113219
0.4451
-0.438632
-0.000102855
-0.50064
0.307584
1.77105e-05
0.499282
-0.306779
9.01123e-06
-0.280506
0.285572
0.00284486
-0.28131
0.2861
0.00389829
-0.280327
0.290344
0.00727994
-0.278293
0.296918
0.0062586
-0.281417
-0.00943192
-0.000109615
-0.00136939
0.00238547
0.000322646
0.00124167
-0.000171592
0.000344507
-0.000956762
0.00135782
0.00552177
0.290823
-0.305066
-0.00042309
-0.270186
0.307279
0.0300246
0.0123099
-0.00049231
0.0121225
-0.203299
-0.000290183
0.319102
0.0186033
-0.476205
-0.00306
-0.0047626
0.0249222
0.0171359
-0.0226926
-0.241685
0.369564
0.11999
0.393057
0.146093
0.083131
0.0199664
0.0606707
-0.342607
0.437853
-0.415768
0.011888
0.00197908
-0.0188684
-0.00503796
-0.00262281
0.00747372
0.00169775
0.000677439
0.000802482
0.000633928
-0.500381
0.307302
-0.307793
0.501118
2.22215e-05
-0.000778228
-0.00229054
-0.00050694
-0.00066389
-1.90775e-05
0.000147491
0.000816885
0.000609962
-0.438407
2.44232e-05
-0.443176
0.439494
-0.499754
0.306713
0.0013138
0.503066
-0.309699
0.00300563
0.000322187
-0.000999171
-0.0018025
-0.00597804
-0.00446283
0.32427
0.469444
-0.489812
0.0402576
0.00709258
0.00332146
0.0117811
0.00574392
0.0138553
-0.342921
0.0120243
0.0328538
-0.348464
0.00275602
0.00150952
0.00107436
0.00197838
0.00302248
0.00412271
0.00189826
0.0012369
0.000712026
0.000531629
0.000414528
0.000609242
0.000807976
0.000569193
0.000442665
0.000584956
0.000734006
0.000610561
0.00107041
0.00111397
0.000585941
0.00129995
0.00108665
0.0015472
0.00114887
6.31274e-05
-0.00093627
-0.000327378
0.00217162
0.00406982
0.000344634
-0.0231835
0.00277066
0.000561222
0.000941091
0.00115186
0.00126869
0.0010495
0.00225518
0.00140211
0.00264859
0.00146951
0.423444
-0.43184
0.00215994
0.415197
0.00694468
0.00136144
0.00337963
0.0176131
-0.0680095
0.168597
-0.134382
0.283368
0.041417
0.19364
-0.15584
0.126043
-0.135961
0.0860664
0.0980866
-0.148492
0.0339818
-0.154768
0.0909448
0.0944914
0.185442
-0.00861528
-0.00232883
-0.0235997
-0.00113464
-0.107643
-0.00166858
-0.000753405
0.000656489
0.000885795
0.00167659
0.000989104
0.000656198
0.000853023
0.000649614
0.000168553
0.000591337
0.000351915
0.00240539
0.00115076
0.000493664
-0.472423
0.470386
0.00106786
-0.300487
-0.000717495
0.30615
0.385861
0.00509736
-0.3188
-0.00190555
-0.3895
0.00165553
0.000917108
0.000225147
0.000473468
0.000238973
0.00251287
0.00060314
0.000277768
0.000454605
0.000435191
0.000445346
-0.000603683
-0.00141303
-0.00312417
-0.353741
0.0063178
0.325798
0.0186761
0.337815
-0.298682
-0.325956
0.384584
-0.257796
-0.24275
-0.201119
0.00226162
0.00215705
0.00197019
-0.382339
0.0129402
-0.00149358
-0.0620573
-0.000118067
0.00495008
-0.000522511
-0.468393
-5.47846e-05
-9.12832e-05
0.0636178
0.00229759
-0.0616474
0.00044664
0.00289009
0.000865605
0.00163309
0.000414547
-0.391159
0.000460867
-0.380745
0.00125586
-0.000238097
-0.394979
-0.000231459
0.315715
-0.00315075
-0.00141419
-0.397826
0.00624127
-0.478978
0.0188513
0.0128012
0.0973144
0.0101611
-0.491807
0.033914
0.00134475
0.00397506
0.0279739
0.186295
0.44116
0.229084
0.336884
-0.0164994
-0.00467856
-0.401662
-0.0114324
-0.0227401
0.010639
0.227297
0.327772
-0.0172089
-0.00557984
-0.00169114
0.311044
-0.386601
-0.0057689
0.000407148
-0.0175827
-0.0316288
0.00064594
0.209902
0.330106
-0.0181537
-0.00595156
-0.00197671
-0.389572
-0.00195037
-0.000254675
0.000139735
0.00180621
0.00468142
0.00142061
-0.0258632
-0.00737957
-0.000319689
-0.00265768
-0.00639652
-0.00400185
-0.0068663
-0.00127499
0.191671
0.369601
-0.0690871
0.0596043
0.026589
0.0330648
0.0092264
-0.00211329
-0.000795286
-0.000170801
0.000113154
0.000304125
0.000782764
0.00242401
-0.000127697
-0.000156795
-0.00106027
0.00157538
0.000884554
0.000977817
-0.00189011
-0.0184775
-0.0256853
-0.00776432
0.00272708
0.00275395
-0.497481
0.436309
0.00131814
0.00137247
0.00137304
0.00263076
0.00326934
0.00311202
0.000656827
-0.00846316
0.124249
-0.415847
0.0211533
0.00118721
0.00110362
0.000621695
0.000600466
0.00109158
0.000397662
0.000365284
0.000335236
0.000535119
0.000189126
0.000242145
0.000235685
0.000901118
0.000893321
0.438661
-0.000163594
-0.438348
0.438551
-0.000651434
-0.43416
0.433866
-0.438072
0.444691
-0.000453115
-0.438339
0.436745
-0.436387
0.00166682
0.50531
-0.314037
0.00594967
0.00261555
0.00209403
0.00119157
-4.22308e-05
-0.0104816
-0.0176801
-0.0356682
-0.0841243
0.00454921
-0.0361825
-0.0119609
-0.0035608
0.00485548
0.0041337
-0.000499317
3.27668e-05
0.000964327
0.000497411
0.44565
-0.439455
0.440123
-0.445497
-0.000140133
-0.438642
0.443777
-7.97876e-06
-0.444892
-0.000633903
-0.435632
0.438603
-0.00024792
-0.440116
0.433125
-0.499332
-0.00159851
-0.00240357
-0.0010241
0.000308802
0.000585113
0.00221843
0.00514392
0.0213988
0.0859467
-0.0267343
0.856381
-0.0204839
-0.00449456
-0.0156504
-0.150141
0.0303977
0.0859832
0.00748143
-0.0012395
-0.0839848
-0.00136829
0.00257246
0.00623511
0.000395933
0.000480603
0.00656314
0.00348542
-0.264778
0.21817
-0.00870998
-0.00610533
-0.000417272
0.0447355
-0.0101789
0.0370124
0.0593167
0.0956305
0.190114
0.0471765
-0.122809
0.0483577
-0.154495
0.03792
0.021087
-0.117364
0.00661393
-0.00239281
0.000272123
-0.000587821
6.47507e-06
0.00221058
-0.00104077
-0.00233327
-0.000330058
-0.00273252
-0.000958835
1.27685e-05
-0.000143619
0.000182573
-5.79184e-05
-0.00015115
-0.000875229
4.12463e-05
0.00122819
0.00248241
0.0102285
0.108529
0.455683
0.0261027
-0.0809853
0.292746
-0.0047042
-0.06256
-0.0208021
-0.0299002
0.850042
-0.0162528
-0.00473119
0.00533154
0.00215731
0.0054479
-0.0759913
-0.0016386
-0.00176754
-0.0163691
-0.151174
-0.129183
-0.0779244
-0.304823
0.0310574
0.0759307
0.00388915
-0.00428313
-0.00449653
-0.00239112
-0.0938104
-0.00464056
0.0449925
-0.0269959
0.0478864
-0.0027012
-0.0855782
-0.00505607
-0.00280143
-7.95795e-05
0.00521291
0.019076
0.00249312
0.00330422
0.0177318
0.0173021
0.00083141
-0.0017739
-0.000445363
0.00105059
0.00299702
-0.00136511
-0.00111028
0.0134919
0.323365
0.0140776
-0.00034809
0.00191269
0.000478539
0.000163484
-0.000134247
-0.00149303
0.00118103
0.439143
-0.501146
0.00127892
0.000534066
0.000438418
0.000452886
-0.502275
0.439896
0.000105174
-0.439477
0.445558
-0.445067
0.0003537
0.44005
0.000323595
0.00012733
9.28535e-06
-8.41621e-05
0.000556681
0.00105543
0.000195188
8.16649e-05
-0.000216524
-0.00095871
0.0015203
0.43796
-0.432012
0.431766
-5.7325e-05
0.000118531
0.000211622
0.000184885
-7.05115e-06
0.439797
-0.502791
-5.25704e-05
-0.000182269
0.000156411
-0.000685143
-0.000719141
-0.502804
0.438492
-0.00052954
-0.000394994
-0.00103055
0.00101369
6.5792e-05
0.000121076
-0.0130887
-0.0208619
-0.0847656
-0.0135271
-0.0014022
5.01967e-05
0.000426932
2.72031e-05
0.000108766
0.00123295
-0.00135817
-0.00156082
-0.000354218
-0.000231819
-0.00190647
-0.00120515
-0.00113129
0.000320719
-0.00174082
0.00132351
-0.00195161
-0.00677911
-0.000586582
-0.0023973
-0.0150161
0.0107301
0.029902
-0.000612796
0.00119713
-0.428912
0.00325798
0.0132441
0.0867595
-0.00176741
-0.00251767
-0.0186949
-0.176649
-0.108488
0.0246573
-0.00314337
-0.0024797
-0.00195871
-0.0223781
-0.00285353
0.163092
0.0493464
-0.00835427
0.0347267
0.24585
0.0214435
-0.00360102
-0.00643013
-0.00759931
-0.0114167
-0.283225
-0.25216
0.00186592
0.025559
0.00946323
0.0410588
-0.0776603
0.000478874
0.00452446
-0.0115719
0.000162527
-0.38415
0.00534784
0.0010897
-0.000285766
-0.00167306
7.89015e-05
-0.00136734
-0.462603
0.320517
-0.372864
0.0194069
0.184416
0.315174
-0.000223172
-0.000344559
0.00110736
-0.0796303
-0.301995
-0.0209877
-0.00478834
-0.00117324
-0.00255521
-0.088944
0.00068001
-0.278794
0.00710101
-0.270737
-0.00209943
0.0369466
0.00136765
-0.106455
0.0501657
-0.0100572
0.334289
0.000392548
-0.285083
0.0213514
0.0890991
0.0167054
1.79474e-05
0.0014822
0.000312367
0.00503594
0.323279
-0.504495
0.00164703
-0.168211
-7.56794e-05
0.0220339
0.0346837
0.0193946
0.00655779
-0.000523312
-0.00757794
-0.0202543
-0.0353242
0.000220042
0.206219
0.245254
0.244002
0.171025
-0.406257
-0.382324
-0.0188991
0.387248
-0.00823585
-0.473416
0.0797725
0.013042
-0.055195
0.06091
0.00381678
-0.0567712
0.0589492
0.00238814
-0.0545635
0.0595845
0.00191147
-0.0541614
0.0585305
0.000106745
-0.0558803
0.0562008
-0.0040546
-0.0609956
0.0509543
-0.0150924
-0.0806243
0.0303955
-0.0651483
-0.156291
-0.0749466
-0.23418
-0.287553
-0.281228
-0.239164
-0.254564
-0.264664
-0.253215
-0.273493
-0.259985
-0.258302
-0.269245
-0.257407
-0.27479
-0.272962
-0.254528
-0.338552
-0.158592
-0.152607
0.585136
0.0371817
0.32946
-0.162777
0.426205
0.0269467
0.378248
-0.167335
0.403528
0.0224109
0.390038
-0.16785
0.398995
0.0231767
0.410527
-0.162509
0.38728
0.02473
0.503331
0.060741
-0.0433145
-0.322559
-0.00305385
-0.24414
0.157111
-0.212367
0.18634
-0.20042
0.194368
-0.195116
0.197357
-0.19408
0.197504
-0.192491
0.200427
-0.18624
0.21079
-0.157419
0.242767
0.00432363
0.302862
0.213417
-0.0847605
0.238808
-0.222711
-0.010876
-0.00522509
-0.122092
0.128898
-0.114759
0.212187
0.0287445
0.0344943