/*--------------------------------*- C++ -*----------------------------------*\
| =========                 |                                                 |
| \\      /  F ield         | OpenFOAM: The Open Source CFD Toolbox           |
|  \\    /   O peration     | Version:  2306                                  |
|   \\  /    A nd           | Website:  www.openfoam.com                      |
|    \\/     M anipulation  |                                                 |
\*---------------------------------------------------------------------------*/
FoamFile
{
    version     2.0;
    format      ascii;
    arch        "LSB;label=32;scalar=64";
    class       volScalarField;
    location    "2";
    object      gradTy;
}
// * * * * * * * * * * * * * * * * * * * * * * * * * * * * * * * * * * * * * //

dimensions      [0 -1 0 1 0 0 0];

internalField   nonuniform List<scalar> 
5322
(
0.046226
0.00558228
0.00148244
0.000613576
0.00126345
0.00142078
0.00123784
0.000976379
0.000739766
0.000516804
0.000168939
-0.000703286
-0.000702241
-0.000644458
-0.000583765
0.00133316
0.00175576
-2.00349e-05
0.00138088
-0.00203583
0.00227769
-0.00301204
0.0035112
-0.0046595
0.0054966
-0.00685301
0.00795259
-0.0100755
0.0115218
-0.0137739
0.0155861
-0.0184002
0.0210421
-0.0207235
0.0213016
-0.0121711
0.0244858
0.0297944
0.0150764
0.0169585
0.0220185
0.0185015
0.0198406
0.0205811
0.0196311
0.0202281
0.0199453
0.0213205
0.0205902
0.0189472
0.0239261
0.0106459
0.012509
-0.0384596
-0.00185213
-0.0220762
0.012196
-0.0287421
-0.00134898
-0.0249712
0.0123759
-0.0282424
-0.00119874
-0.0247893
0.0124321
-0.0293
-0.00165374
-0.0240568
0.0126167
-0.0327173
0.000972231
0.0253035
0.0140371
0.0196877
0.0146359
0.0186058
0.0154762
0.0185536
0.0157901
0.0221653
0.00161789
0.00869674
0.0127041
0.0201583
-0.00128904
-0.00721775
0.00268733
0.00509185
0.010963
0.00160243
0.00294918
0.000524439
7.19093e-05
6.84446e-05
0.0245647
-0.0142089
0.000464358
0.0143636
0.000444882
-0.000767224
0.00264509
0.000468405
0.0153651
-0.0238879
0.0214391
0.00051682
-0.00048424
-5.91525e-05
1.45227e-05
4.68861e-05
4.2941e-05
3.24356e-05
2.48534e-05
1.93945e-05
-5.70114e-06
7.64038e-06
0.000494866
-0.000186885
-7.96228e-05
-0.000362778
0.000453931
-0.000224667
-0.000453942
-0.000633821
-0.000710216
-2.73818e-05
0.000530884
-0.000394589
3.87091e-05
0.000435013
-0.000431721
1.87742e-05
0.000451529
-0.000463412
-1.53889e-05
0.000420109
-0.000505755
-4.16635e-05
-0.000129402
0.000778346
0.000636624
-0.000442952
0.000289525
0.000224238
-0.000483513
6.45019e-05
-0.000462785
0.000360499
0.000377428
-0.000417986
-5.7325e-06
-0.000380945
0.000385118
0.00042532
-0.00037479
-7.8304e-07
-0.000351103
0.00045568
-2.06017e-05
-1.0749e-05
0.00150054
-0.00116519
0.00148985
-0.00189537
8.48614e-05
-0.000959392
1.50288e-05
6.26435e-05
-0.000133869
0.000397509
-0.000792505
0.000792181
-0.001435
5.29142e-06
0.00147056
-0.00167834
0.00174754
-0.00212848
1.14755e-05
0.00210281
-0.00264252
0.00274239
-0.00337823
1.65207e-05
0.00331399
-0.00414777
0.00429169
-0.00527011
2.16846e-05
0.00516924
-0.00636997
0.00658501
-0.00795987
3.22097e-05
0.00781187
-0.00946072
0.00977856
-0.0115595
5.10727e-05
0.0113397
-0.0135304
0.0139814
-0.0160633
7.48363e-05
0.0157125
-0.0185222
0.0191134
-0.0210058
0.0001061
0.0204215
-0.0239572
0.0241575
-0.0142511
-9.88674e-05
-0.00157555
0.000781382
-0.000486907
-2.305e-05
0.000133862
0.000213124
1.64239e-05
0.0245929
-0.0141925
7.0073e-05
0.0170502
-0.00261747
-0.00112404
0.000971874
-0.000962135
0.014275
-0.0242227
0.000151369
0.000107276
0.000302379
0.000163241
6.6764e-05
1.94171e-05
-2.93258e-07
-9.25419e-06
-1.29498e-05
9.2523e-06
-7.02515e-06
-0.000395137
-0.000423438
-0.000424514
-0.000395071
9.68795e-05
0.000126882
7.28615e-05
-0.000516879
0.000245545
-0.000523947
0.000126366
9.7083e-05
7.38606e-05
-0.000517686
0.000167675
0.000490081
0.000306781
-0.000516926
0.00024636
0.000532311
0.00074536
0.0008064
-0.00145141
-0.00144937
-0.00155617
0.00131626
-0.0019128
0.00218198
-0.00286749
0.00347762
-0.00440826
0.0053743
-0.00666529
0.00797175
-0.00980712
0.0113078
-0.0139817
0.0153298
-0.0190552
0.0196528
-0.00357569
0.0120591
-0.00211593
0.000382233
0.0170179
-0.0175367
0.000922652
0.0138971
-0.0132146
0.000649783
0.0104753
-0.00933026
0.000470404
0.00745872
-0.00633348
0.000336853
0.00504242
-0.00417916
0.000228753
0.00324839
-0.00271327
0.000143178
0.00200529
-0.00180831
0.000145111
0.00115542
-0.000111591
0.00115535
-0.00180831
0.000145239
0.00132201
-0.00154906
0.000591853
0.000938526
0.000681518
0.000652929
-0.00136194
0.00104705
-0.00172264
0.00191977
-0.00257486
0.00314308
-0.00397254
0.00489368
-0.00603794
0.00726031
-0.00895378
0.010288
-0.0127986
0.0138963
-0.0169232
0.017284
-0.00200535
0.00901292
-0.00722875
0.000750046
0.0238943
-0.0247026
0.00118672
0.0201047
-0.0180228
0.000760988
0.0149351
-0.0124289
0.000503845
0.0104877
-0.00838085
0.000347814
0.0070916
-0.00551792
0.000231729
0.0046318
-0.00356385
0.000148365
0.00294289
-0.00236009
0.000154419
0.00177355
-0.00173003
0.0005857
0.00131279
0.00114977
-0.000574794
0.00124787
-0.000285836
0.00017892
0.001424
-0.00124628
0.0013333
-0.00151103
0.00242667
-0.00214565
-2.00954e-05
-0.00200928
0.00171964
-0.00152275
3.73001e-05
0.00158723
6.52423e-05
1.1416e-05
-0.000420231
3.90264e-05
-3.31892e-05
2.23124e-05
-1.12164e-05
-5.05155e-06
0.00146416
-0.00146643
0.00170108
-0.00210405
3.29831e-06
0.00267794
-0.00331939
0.00420673
-0.00517471
1.58886e-05
0.00646957
-0.00781123
0.00962577
-0.0113245
3.45191e-05
0.0137816
-0.0156795
0.0188246
-0.0204171
-3.48633e-05
3.65755e-05
5.84077e-05
0.000166422
8.43857e-05
8.66396e-05
0.0139281
-0.0156751
7.17133e-05
0.0186271
-0.0214896
0.0192014
-0.0202257
0.000189384
0.0246906
-0.0268395
0.0172459
-0.0130549
-0.0241602
-0.00186184
-9.03929e-06
-0.00867148
-0.00233508
0.000360282
0.0126659
0.0155539
0.00101188
-0.0208494
0.0139438
-3.27242e-05
-0.0126641
0.0100582
-0.000173931
-0.00829121
0.00697955
-0.000120959
-0.00537251
0.00461565
-0.00011792
-0.0034937
0.00308777
-0.000104198
-0.00213898
0.00206051
-0.000146564
-0.00131028
0.0003304
0.000543532
-0.000841678
-4.67767e-05
0.00150282
-0.00170036
0.00192636
-0.00235184
0.00297424
-0.00365664
0.00593096
-0.00520805
-2.42453e-05
-0.00482846
0.00420744
-0.00335255
-2.605e-05
0.00380436
1.68126e-05
-6.3743e-05
-3.59411e-05
-0.000124393
-0.000267878
3.92837e-05
0.000110672
2.61105e-05
8.74887e-05
0.000109802
5.8006e-05
-7.76745e-05
0.00124351
0.000396148
7.35024e-05
0.000311818
-3.42149e-06
-0.000115966
-8.03145e-05
9.59751e-05
0.000138897
-0.000135591
-0.000222464
-0.00276385
-0.000124671
0.00327703
-0.00428857
0.00454812
-0.00551869
0.00680193
-0.00802304
0.013179
-0.0113624
6.00998e-06
-0.0109594
0.00966976
-0.00784945
-1.70075e-05
0.00899203
6.13389e-05
-8.30198e-05
-8.12523e-05
4.565e-05
-0.000785385
-0.000375215
-0.00026557
-0.000510925
-0.000186523
-0.000134907
0.00215777
-7.4997e-05
-5.97506e-05
0.000248496
-0.000480835
-0.000154397
0.000710773
0.00132986
0.00241095
0.00015594
-2.11218e-05
0.000124389
3.86592e-05
-0.00190306
-7.68923e-05
0.00219577
0.0020035
-0.0027093
0.000143648
-0.00286155
-0.000137939
0.00349541
0.0032486
-0.00416904
0.000230104
-0.00441742
-0.00021001
0.00538483
0.00505368
-0.00631738
0.00033983
-0.00670839
-0.000201948
0.00794872
0.00750291
-0.00931742
0.000477413
-0.00992413
0.000102919
0.011151
0.0106204
-0.0132622
0.000664635
-0.0141916
0.00128486
0.0147133
0.0143232
-0.0178658
0.000946659
-0.0190772
0.00482973
0.0180269
0.0180248
-0.0026744
0.000394325
-0.00323852
0.0574772
-0.0280063
-0.0289122
0.0429088
0.011313
0.00404016
-0.0339158
-0.00789056
-0.004782
0.0147326
-0.0154553
-0.000295167
0.000661983
-0.00282303
-0.00319688
-0.000644658
0.000859849
0.000472196
-0.000188835
-0.000539872
-0.000177403
0.000240217
6.68324e-05
3.4435e-05
1.50571e-05
-2.781e-06
-1.73147e-05
-6.5595e-05
-3.21528e-05
0.000817156
-0.000817291
7.60568e-06
5.82394e-06
-0.000832087
0.000819613
-1.97174e-06
3.19946e-06
-3.27308e-06
-6.15008e-05
-3.9063e-05
0.000148621
1.04017e-05
0.00017083
-6.0042e-05
-7.40669e-05
-2.07854e-06
0.000280954
-0.000330574
0.000334576
-0.000277116
-0.000281606
-0.000236089
1.09597e-05
0.000332653
0.000294552
-0.000291604
-8.11236e-06
-0.000332572
9.06814e-07
1.9765e-06
1.31445e-05
1.07352e-05
6.4939e-06
-0.000143333
-6.66661e-05
-0.000122921
-0.000171552
-0.00018717
-9.09585e-05
-3.65383e-05
0.00088259
-0.00200557
-0.000852655
-0.000182257
0.00766781
-0.00880024
0.00984697
-0.0113974
0.0136275
-0.000591997
-0.0126984
-0.00046749
0.0114694
-0.000295058
-0.00111806
0.000185123
0.000131325
0.000254341
0.000297983
-0.000264983
-0.00322375
0.0110806
-0.00529085
-0.0186526
-0.00286694
-0.00345404
-0.0435502
-0.0123146
0.00159917
-0.0183601
0.0132758
0.000661823
0.000598338
0.0160426
0.013427
0.00172691
-0.00154845
0.0176473
0.0158767
0.00183145
-0.00184713
0.0160573
0.0180668
0.00170998
-0.00414175
0.0133905
0.0183082
-0.00653127
0.010538
-0.00915246
0.00978782
-0.0383855
-0.0207394
0.00334072
-0.00949233
0.018268
-0.00114896
-0.0296237
0.0170003
-0.000320604
-0.0200682
-0.0199694
-0.0286913
0.0097872
-0.0150485
-0.010084
0.0156708
-0.027702
-0.00409329
0.0175962
-0.0180777
-0.00139667
0.0139184
-0.0119996
-0.000733676
0.0100153
-0.00808999
-0.000542715
0.00687191
-0.00540089
-0.000398477
0.00456749
-0.00351699
-0.000244431
0.00297527
-0.00225721
-5.47666e-05
0.00200637
-0.00138232
0.000293146
0.00123279
-0.000599013
0.00114282
0.00131011
-0.00174639
0.00176912
-0.00238399
0.000156585
0.00104364
-0.00136324
0.000584568
0.000649204
0.000686675
0.000937894
0.000804602
0.000591269
0.00115927
0.000706424
-0.000171563
-0.000512118
-0.000725706
-0.000711614
-0.00102012
-0.00155136
-0.00119409
-0.000564109
-0.000313316
0.00502314
-0.00621761
-0.000228679
-0.000170763
-0.000324344
3.12457e-05
-0.00738843
0.00647994
2.55338e-05
0.00526727
-0.00650054
2.67606e-05
0.00797398
-0.00964617
5.55187e-05
0.0116029
-0.0137738
0.000103007
0.0161222
-0.0187876
0.000139293
0.0209241
0.000164169
0.000372267
1.44391e-05
-2.44815e-05
-7.32968e-05
1.20147e-05
3.04776e-05
2.34785e-05
1.41427e-05
6.62432e-06
2.43317e-06
1.31013e-06
7.3867e-06
2.22071e-05
-0.000796628
1.39434e-05
4.38067e-05
-4.86336e-06
-9.26418e-06
-1.48159e-05
-2.16806e-05
-3.60814e-05
-6.94058e-05
-0.000134977
-0.000181336
0.000746961
-0.000221288
-0.000580504
-0.000792203
0.0154093
-0.0164925
0.0194782
2.07366e-05
-0.00272402
0.00227023
0.00706197
2.63359e-05
-0.00634635
0.00594057
0.00606283
7.64011e-06
-0.00675966
0.00631173
0.00544988
-8.40872e-06
-0.0085283
0.00808971
0.00763288
-0.000165397
0.0106659
-0.01122
0.0109425
-0.0117509
-0.00109927
-0.0059148
0.00839655
-0.000748103
-0.0080854
-0.000189205
-5.84149e-05
0.0279762
-8.98042e-05
-0.0281547
0.0176673
-0.000631555
-0.0182753
0.0183211
-0.000407439
-0.0191992
0.0283477
-0.00027578
-0.0283647
0.0249172
-0.0248313
0.0246656
-0.0252789
0.000113515
-0.0280559
0.027743
-3.05854e-05
-0.0183188
-0.00070184
0.0184702
-0.0157674
9.52005e-05
0.0280228
0.0101442
0.0272473
0.0101051
-0.0118644
0.0173424
0.00224887
-0.0127369
0.012611
0.000874156
-0.00997684
0.00905461
0.000590125
-0.00719069
0.00642317
0.000415902
-0.00496535
0.00429886
0.000300928
-0.00331207
0.00284423
0.00014977
-0.00216947
0.00173946
-3.88312e-05
-0.00151051
0.000903188
-0.000517242
-0.00142805
-0.00039956
-0.00124498
0.000823748
7.78613e-05
4.15831e-05
0.000507667
0.00013197
-0.000784618
-0.00063819
-0.000167235
-0.000496945
-0.000312236
-0.000240128
-0.000551112
-0.000263573
-0.000281043
-0.000546966
-0.000803842
-0.000853771
-0.000587923
0.0015449
0.000108764
-0.00105675
-0.000142266
0.00169753
0.00199856
6.66246e-05
-0.00183055
-0.000142579
0.00248701
0.00363711
-4.1163e-06
-0.0046684
9.83943e-05
0.0055938
-4.53267e-05
-0.00714887
0.000155266
0.00839976
-7.24781e-05
-0.0105677
0.000150515
0.0121446
-9.88751e-05
-0.0150072
0.000207793
0.0168219
-0.000182451
-0.0204963
6.00483e-05
0.0220578
-0.000493284
-0.0269464
-0.000724246
0.000577817
-0.0163316
0.0266459
0.000152954
0.0151256
0.000365869
-0.0127449
0.0209181
-4.22836e-05
0.011173
0.00030967
-0.00944389
0.0154837
-3.54859e-05
0.00802479
0.000243018
-0.00665147
0.0109578
-1.95311e-05
0.00552876
0.00019804
-0.00452045
0.00743939
-1.19315e-05
0.00368051
0.000136276
-0.00295968
0.00487714
-6.50425e-06
0.00236432
9.18822e-05
-0.00192812
0.0031368
-1.19787e-05
0.00153063
5.4958e-05
-0.00133585
0.00203353
-6.17524e-05
0.00125445
-0.000175521
0.000288566
-0.00131404
-0.0011416
0.000593776
-0.00124454
-0.000300981
-0.000131347
-0.00241674
-0.00133369
-0.00116975
-0.000780523
-0.000589788
0.00138273
0.00159601
0.000137292
-0.00100112
-0.000152916
0.00241309
5.26418e-05
-0.00296462
9.84113e-05
-0.000227805
-0.000111595
-3.54665e-05
-0.00138378
-5.71504e-06
0.000519482
-6.57795e-05
-9.29804e-05
-0.00013668
0.000521005
-0.000168053
7.02248e-05
6.15201e-05
2.07244e-06
4.83557e-06
4.37902e-06
4.77373e-06
3.97032e-06
5.12821e-06
-6.46407e-06
-1.60017e-06
0.00267917
-0.003101
1.72104e-05
-4.39993e-06
-2.13984e-05
2.12541e-06
-0.00173807
1.24193e-06
0.0021219
-0.00271098
4.55044e-06
0.00336918
-0.00423886
1.18731e-05
9.62526e-06
1.678e-10
1.07296e-05
1.199e-05
3.56609e-05
4.86843e-05
3.12561e-05
1.81308e-05
9.88224e-06
7.78305e-06
1.6999e-05
1.24589e-05
3.60549e-07
0.00209187
-0.00259231
0.00234168
-0.00293132
0.00365488
-0.00453138
7.08016e-05
-0.0017185
7.91265e-05
0.00160754
8.05071e-05
-0.00118081
4.68884e-05
0.000914371
-6.62662e-05
-2.04472e-05
0.000324129
-2.47785e-05
-0.000562656
0.00364474
7.66534e-05
-0.00288516
-0.000217142
0.0036115
0.00473427
0.000229611
-0.00460606
-0.00030628
0.00568799
0.00688629
0.00036689
-0.00687902
-0.000424508
0.00814014
0.00996374
0.000500289
-0.0099159
-0.000566883
0.0110176
-0.0136228
-0.000718347
0.0137875
-0.0181598
-0.000104619
-0.000627429
-0.000127235
-2.54923e-05
2.33618e-05
3.10328e-05
2.70069e-05
2.30431e-05
1.9717e-05
-6.22775e-06
7.84649e-06
0.000396411
0.000421973
0.000426279
-0.000109929
0.00053037
-7.66932e-06
-1.09754e-05
0.000546157
-9.49707e-05
0.00052069
-0.00016361
2.14306e-05
-4.24338e-05
4.36714e-05
-1.07123e-05
1.76969e-05
-3.46451e-06
-0.00166715
6.79848e-05
4.36456e-05
1.45246e-05
2.81012e-06
8.74269e-07
-0.000291867
0.000292374
1.10675e-05
-0.000240519
0.000387152
-9.13647e-05
2.762e-05
5.88354e-05
1.3708e-05
-5.12782e-05
0.000531121
-0.00163937
0.000108629
-0.00111051
-0.000152244
0.00165005
0.00204194
4.40801e-05
-0.00185955
-0.000134816
0.00300464
0.000119129
-0.00296009
-0.000214122
0.00382666
0.0046327
0.000231199
-0.00466072
-0.000315052
0.00566757
-0.00694422
-0.000432391
0.00811808
0.000349293
0.000273359
0.000198062
0.000129711
6.7891e-05
2.81325e-05
-1.1022e-05
2.8261e-06
1.50266e-05
4.49271e-06
-7.22339e-06
-3.66738e-05
-2.42894e-05
-9.47722e-06
-1.09703e-05
-6.13829e-05
-5.3374e-05
-0.000123233
-0.000119609
-0.000178866
-0.000205186
-0.00100143
-0.00148617
-0.00239636
-0.00259312
-0.00469643
-0.00402492
-0.00231438
-0.00866824
-0.0260676
0.0016343
-0.0414713
-0.0309106
-0.0233261
-0.0155675
-0.0137348
0.0052041
-0.0121457
-0.000732625
0.00307693
0.000321321
-0.000196712
0.0148553
-0.0172766
0.0198308
0.000180086
-0.00244423
0.00371513
0.00820025
0.00029928
-0.00571278
0.00767637
0.00766396
0.00031402
-0.00610755
0.00791027
0.00719967
0.000230831
-0.00818112
0.0090041
-0.000409426
0.000333551
0.000636786
0.00390232
-0.0165468
-0.023823
0.000990297
0.0201294
0.000441556
0.000183123
0.0127312
0.000143695
-0.0208408
0.0240832
1.22145e-05
-0.0259903
0.0153414
-0.0155478
0.0135996
-0.00245311
-0.0171351
0.000576857
-0.020628
0.0282364
-0.0247207
0.0229218
-4.78495e-05
-0.0229562
3.48614e-05
0.0227391
-6.85674e-05
-0.0228421
1.33332e-05
0.0229441
-8.10582e-05
-0.0230304
0.0251541
-0.0288305
0.00197616
-0.0223899
0.0308675
0.00160665
0.000898854
-0.00982483
0.010486
-0.0108545
3.31684e-05
-0.00811763
0.00746998
0.000534209
-0.00928324
0.00670598
-0.00786259
0.000639256
0.0152263
-0.00849091
0.00504926
0.00108721
-0.00948825
0.00749616
-0.000163872
-0.00014323
-7.91044e-06
0.000248786
0.00012446
4.45103e-05
8.67911e-06
-4.75173e-06
-1.06812e-05
-1.31944e-05
9.06e-06
-6.42354e-06
0.000239504
0.000280711
7.96907e-07
-6.40247e-05
-3.95839e-05
0.00049363
0.000167982
-0.000442252
0.000223984
0.000289264
-0.000467977
8.97081e-06
-0.000508327
-4.10396e-05
-0.000131474
-0.000427933
0.000639106
0.000787312
4.02712e-05
0.000149232
-3.57843e-05
2.08054e-05
0.000363073
-0.000390607
-3.86115e-06
-0.000420674
0.000421742
0.000392713
-0.000360604
-1.03025e-06
-0.00046759
1.62221e-07
0.000468314
5.82116e-07
1.65228e-06
-1.25361e-05
1.12963e-05
3.33322e-05
0.000120333
0.00240891
0.00132826
0.000697657
-0.000173629
-0.000513123
-0.00074407
-0.00103455
-0.00150806
-0.00236865
-0.00404811
-0.00413634
-0.00795899
-0.00868828
-0.0186262
-0.0304957
-0.0275543
-0.0277029
0.0115237
-0.0164935
-0.00802864
-0.00867786
-0.0253792
-0.0311056
-0.0280395
-0.0280544
-0.0279771
-0.0278827
-0.0318465
0.0116773
-0.00173816
-0.00678473
0.03504
-0.00993585
-0.0231343
-0.0215968
-0.00625165
-0.00763002
-0.0174272
-0.0180513
-0.00259996
-0.00457847
0.000249178
0.000786762
0.000749872
0.000570403
0.000400826
0.000308055
0.000171827
0.000165942
3.4524e-05
0.000109751
-0.000323397
-0.000557879
-0.000802415
-0.00114535
-0.00173331
-0.00299884
0.00068779
0.000486178
0.000401058
0.000601845
0.000584916
0.000455306
0.000449517
0.000301543
0.000380196
0.000229034
0.0019139
0.0029221
-0.00358066
0.00459786
-0.0055134
0.000232281
0.0031278
-0.00258433
0.000150255
-7.67198e-06
-6.22932e-05
-5.71742e-05
-0.00172856
9.33786e-06
-0.000520872
0.000308713
-0.000130441
-2.42468e-05
-3.68477e-05
6.37594e-05
-0.000484776
0.000376253
-2.34216e-06
-8.71196e-07
-8.46829e-07
6.30641e-07
0.000239759
-7.74482e-06
1.73582e-06
1.55134e-06
1.27095e-06
-0.000148311
1.4025e-06
6.1985e-05
3.86392e-05
5.10639e-05
-3.94239e-05
3.53963e-05
-2.60018e-07
4.05888e-06
-0.000147951
0.000485223
0.000469429
-0.000286475
-6.16493e-05
-0.000226858
0.000445447
4.06697e-05
1.30046e-05
1.92494e-06
8.16482e-07
-9.68234e-06
-7.75742e-06
-7.1663e-06
-3.51592e-05
-2.72281e-05
-6.3207e-05
2.75497e-05
-0.000118871
-0.000116436
-0.000171362
-0.000197296
-0.00397873
0.00486133
0.00704656
-0.0083313
0.0104195
-0.0122371
0.000480158
0.00719451
-0.00602535
0.000340461
1.78492e-05
-8.18401e-05
7.53485e-05
-8.50291e-05
0.00015601
-0.000198205
-0.000218271
-0.000202631
-0.000215897
-0.000120327
3.31343e-05
0.000217256
0.000280214
0.000125844
0.00376668
0.000130375
0.000139907
6.45768e-05
2.72195e-05
7.32712e-06
-5.73007e-06
-5.53822e-07
-2.18867e-06
-9.68377e-06
1.66084e-05
5.46153e-06
-2.04143e-06
3.90918e-05
1.69772e-05
1.72692e-05
9.52112e-06
6.33289e-07
1.5248e-05
1.36987e-05
3.92049e-06
7.85777e-06
1.40204e-05
2.3353e-05
1.47501e-05
7.89519e-05
3.76766e-05
5.83584e-05
0.000161414
7.37663e-05
0.000153926
0.000329929
0.000258725
0.000853837
-0.00242638
-0.00291447
-0.000485736
0.00037966
0.000523182
0.000312714
-0.0070234
-0.000159395
-8.8241e-05
-0.000100438
-0.000728674
-0.000249886
0.0161919
-0.000222879
-0.0201237
-0.000157583
-0.000866075
-0.0187129
-0.000859242
-0.00105345
-0.0124465
-0.00626795
-0.0102806
-0.0247065
0.00256833
0.00619738
0.000380334
-0.000338281
-0.000291074
-0.000528223
9.33327e-05
-0.0145223
0.0192651
0.000123489
-0.00431303
0.00196515
0.00654221
4.59289e-05
-0.00818849
0.0052236
0.0052779
-1.40313e-05
-0.00844284
0.00557523
0.00468286
-6.71497e-05
-0.00777029
0.00188234
-0.0114638
0.00556882
0.00862614
-0.0107505
0.0031665
0.00134424
-0.00063846
-0.000108507
-1.73919e-05
3.16025e-05
3.53889e-05
2.85679e-05
2.30638e-05
1.72706e-05
7.83845e-06
1.61695e-05
6.78404e-05
0.00325653
-0.00406199
8.17406e-05
0.00505504
-0.00623372
0.00559114
-0.00683667
0.00827794
-0.0099621
0.000118954
-0.00398185
0.000135828
0.00381224
8.95815e-05
-0.00263285
0.000111427
0.00254379
1.95293e-05
9.22105e-05
0.000831164
-7.42682e-05
-0.00125835
0.00841085
0.000258717
-0.00656598
-0.000424336
0.00784701
0.010175
0.000505614
-0.00974999
-0.000560278
0.0134398
0.000792531
-0.0135103
-0.000787258
0.0137721
0.0175345
0.000782211
-0.021687
-0.000329435
-0.018036
-0.0214448
0.000914955
0.0170352
0.0141468
-0.0177156
-0.000266084
-0.000629465
0.000556337
0.000458687
0.000377894
0.00028817
0.000202701
0.00012655
5.69459e-05
9.46818e-05
2.25438e-05
-3.99857e-07
3.14348e-05
-4.42373e-07
0.00762281
-0.00925469
0.000162234
0.0110616
-0.0132512
0.0118378
-0.0139297
0.0164094
-0.0182361
-0.000526955
-0.00781244
3.52244e-06
0.00791067
6.20432e-05
-0.00586865
0.000122999
0.00552546
-7.78876e-06
0.000244842
0.00200837
1.77029e-05
-0.00225319
0.0168698
0.000451722
-0.012464
-0.000783189
0.0144446
0.017434
0.000776302
-0.0222961
-0.000232116
-0.0159228
-0.0286055
0.000209527
0.0215632
-0.00177339
0.00943979
-0.000199012
0.00643352
0.0053664
0.00275001
0.00174443
0.0119793
-0.0071911
-0.000390844
0.00119031
0.000660914
0.000479578
0.000372853
0.000275944
0.000185109
9.40515e-05
5.65652e-05
0.000963926
-0.000663488
-0.00108205
-0.000256411
0.000208346
-0.000579466
0.00186111
-0.000782985
-0.000938957
-0.000928719
-0.000565108
0.00139948
0.0015664
0.000106303
-0.00112504
-0.00014475
0.0019825
5.02483e-05
-0.00182542
-0.000135334
0.00251631
0.00301892
0.000128615
-0.00299182
-0.000219955
0.00379738
-0.0003688
-0.000286785
-0.00366481
-0.000158683
-0.00229845
0.000540591
0.000544318
0.000171831
-0.000743863
-0.00122445
-0.000803177
-0.000607431
-0.00130803
-0.00041152
-0.00022094
0.000125058
2.65046e-05
0.00242517
3.11947e-05
-0.00182923
-0.000140633
0.00237514
0.00308411
0.000114595
-0.00297165
-0.000211697
0.00460955
0.000234609
-0.00461408
-0.000310588
0.00569417
0.00692973
0.000348901
-0.00840093
-0.000585274
-0.000429902
-0.00565978
0.000943105
0.000948178
0.000742059
-0.000178831
-0.00225688
-5.26063e-05
-0.00125463
0.000178313
-0.000355186
-0.000446896
0.000101436
0.000521139
-0.000262732
-0.00276967
0.000364411
4.51617e-05
0.000538228
-5.38359e-05
0.00560275
0.00016346
-0.00443626
-0.000312835
0.00540739
0.00708247
0.00035739
-0.00684639
-0.000416314
0.00987497
0.000532779
-0.00983018
-0.000573622
0.0110119
0.0136468
0.000727019
-0.0164072
0.000414314
-7.10545e-05
-2.56201e-05
2.20326e-05
1.78535e-05
1.16458e-05
6.86939e-06
3.73215e-06
-2.83433e-06
-9.98842e-07
1.53133e-05
3.6288e-06
-2.30937e-06
5.34483e-06
1.9008e-05
4.54346e-05
7.27992e-05
3.60361e-05
1.3027e-05
3.74334e-06
4.21742e-06
-1.69351e-06
1.51686e-06
0.00270896
2.67943e-06
-0.00269973
0.00336733
4.82707e-06
-0.00422771
0.00424255
-0.00335429
0.00339932
7.01295e-06
-0.0042851
0.00422673
-0.00336696
0.00270143
-3.07072e-06
-0.00274611
0.00214382
-0.00212923
0.00213649
-0.00213798
7.86514e-06
-0.00269413
0.00275616
8.83393e-06
-0.00338979
1.98431e-06
-0.00421654
0.00430288
1.06757e-05
-0.00528735
-1.02921e-06
-0.0064554
0.0065727
-0.00646705
0.00648962
7.92922e-06
0.00524456
-0.00522385
5.16885e-06
0.00530212
1.61162e-05
-0.00654583
0.00647065
-0.00522734
-2.69493e-05
-0.00484771
0.002969
1.24956e-05
0.00382281
-2.56788e-05
-0.0031207
0.00193262
1.47476e-05
0.00244614
-0.00215675
0.00173602
-7.53594e-06
-0.00176364
1.34701e-07
0.00172621
1.53991e-06
-0.00172131
5.92608e-06
0.00176786
1.01302e-05
-0.00173124
0.00216478
-0.002445
2.4093e-05
2.68568e-05
1.8641e-05
6.63766e-05
4.14017e-05
-0.000824922
0.00085439
-0.000840916
0.000841908
2.82388e-07
-1.80078e-06
-1.90975e-06
-0.000853816
0.000825949
-4.0895e-05
-2.32285e-05
0.000424382
-0.000476181
1.31534e-06
-3.38226e-06
0.00148705
-0.0015048
0.00150799
-0.00148438
0.00153998
-0.00159979
-3.52632e-05
-8.93395e-06
-0.000423334
2.38728e-05
0.000476405
-1.99328e-05
1.5219e-05
1.31149e-05
3.2819e-06
5.87702e-06
9.46887e-06
1.21643e-05
1.1892e-05
-0.00787212
9.4411e-06
-0.00953713
0.0095674
-0.00964534
0.00955955
2.58452e-05
0.00799694
-0.00786869
-2.52556e-05
-0.00739558
0.00452569
2.42495e-05
0.00594139
-0.0036678
-0.000127156
-0.00278319
0.00328735
-0.000269027
-0.00425549
0.00497393
-0.000340889
-0.00625364
0.00735264
-0.000337804
-0.0088136
0.0105264
-0.000439104
-0.0122363
-0.00114664
-0.000370016
-0.000600715
-0.000200653
-0.000420571
-0.000178916
-0.000325219
-0.000145803
-0.000240114
-9.33785e-05
-0.000162249
0.00215688
-0.00236048
-8.67043e-05
-0.00173524
0.0014952
3.50496e-05
-5.28305e-06
-0.000157587
-3.67023e-05
-0.000903131
-5.30471e-05
0.00133987
6.25085e-05
-0.00202772
-1.90561e-05
-2.14098e-05
0.000110789
5.54623e-05
-7.76149e-05
-0.00082329
0.00124501
0.000401794
0.00142283
0.000510439
0.000290406
5.08716e-05
0.00017523
-0.00125551
0.00160137
-0.00153664
3.61664e-05
4.21937e-06
-7.07995e-05
-1.72168e-05
-2.72505e-06
8.84817e-05
9.85303e-05
0.000132889
0.000187811
4.74663e-05
-0.010903
0.00668101
-0.0055343
0.00896712
2.18948e-05
7.19145e-06
-4.82377e-06
3.50474e-06
1.41335e-05
2.76549e-05
4.18367e-05
5.29877e-05
-1.22602e-05
-0.0113731
3.42644e-05
-0.0136171
0.0135487
-0.0154356
0.00947185
8.97733e-05
0.0130385
-0.00806327
-0.000155754
-0.000156646
0.000740688
0.000581749
0.000619586
0.000850031
0.0101231
0.0148024
-0.0174595
0.00178182
0.000138174
-3.66198e-05
0.000471279
-0.000133883
-1.78195e-05
-0.00887024
0.000158617
0.000842955
-0.0125582
0.000680727
0.00010349
4.85359e-05
0.00010286
0.000215806
0.000315309
0.000150875
6.03689e-05
2.98454e-05
2.52469e-05
2.35883e-05
3.35474e-05
4.48735e-05
2.96854e-05
2.41058e-05
2.93966e-05
2.01146e-05
1.70215e-05
-9.82951e-07
1.24297e-05
1.2931e-05
0.000112098
3.44683e-05
2.4428e-05
1.66717e-05
1.66769e-05
1.10594e-05
6.91593e-06
1.55994e-05
1.93899e-05
1.16999e-05
-7.92032e-05
2.21812e-05
3.45141e-05
2.60104e-05
4.40961e-05
6.88784e-05
7.49132e-05
0.000127579
6.47269e-05
0.000122765
6.09642e-05
0.0153583
-0.0182324
0.000263318
0.0201083
0.000379732
7.52338e-05
0.000214456
0.00128638
-0.0038266
0.0125822
-0.0104568
0.0220445
0.00319212
0.0136836
-0.0118355
0.0101476
-0.00999284
0.00707771
0.00803007
-0.0108476
0.00245265
-0.0116907
0.00747815
0.00773465
0.0145885
-0.000763284
-0.000292154
-0.00183035
-0.000126401
-0.00744223
-0.000149509
-3.36241e-05
3.73376e-05
5.22461e-05
8.90516e-05
4.93081e-05
4.08017e-05
4.85284e-05
4.01449e-05
-3.12897e-06
4.08057e-05
1.73927e-06
0.000280826
0.000193252
0.000138756
-0.0102829
0.0121795
0.000361034
-0.0092897
-0.000570182
0.0109733
0.0138573
0.000715537
-0.0133284
-0.000760363
-0.0162756
0.000461916
0.000382568
-1.99669e-05
1.2624e-05
-1.95624e-06
0.000232255
4.32446e-05
2.26816e-05
3.01172e-05
2.3727e-05
-7.92584e-06
0.00020688
0.000130622
6.23326e-05
-0.00222038
-0.000154601
0.00251814
-3.4875e-05
0.00171216
-0.00128858
-0.00116836
0.00142735
-0.000868937
-0.000798594
-0.00073384
0.000176273
-0.000284562
-0.000318778
-0.00368724
0.000766447
-0.000325525
-0.000842725
0.000544427
0.00103191
-0.000445707
-0.00689889
0.000743963
0.000136189
0.00125615
-6.91423e-05
-0.00178533
-0.000568603
0.00105177
0.00172586
0.00135371
-0.000475749
-0.00575035
-0.000429656
-0.00559158
0.00119373
-0.000648481
-0.00857072
-0.00058545
0.00816597
0.00139763
-0.000860664
-0.0122513
-0.000514461
-0.0148171
0.00195292
0.000751327
0.00396386
0.000285988
-0.0207788
0.000718525
0.00211221
0.00244806
0.00362862
0.0131248
0.030822
0.0161706
0.0238189
-0.00205117
-0.001187
-0.0168444
0.0013073
0.000730262
0.00249825
0.0159211
0.0231301
-0.00199098
-0.00109614
-0.000778978
0.0111481
-0.011876
0.00130676
0.00117023
0.00103736
0.000260962
0.0018934
0.0146465
0.023328
-0.00205278
-0.0011079
-0.000783318
-0.0119731
-0.000957177
-0.00072486
-0.000543031
0.000764521
0.000542945
0.000311544
4.18764e-05
0.000234094
0.000998721
0.00120621
0.00127623
-0.00122172
-0.00156608
0.00181352
0.0133598
0.0260853
-0.00454635
0.00521499
0.00230857
0.00204607
0.000262036
-0.000146371
-7.38251e-05
-3.71237e-05
-1.99612e-05
-1.14175e-05
-4.59519e-06
6.9173e-06
2.15821e-06
9.02062e-07
-1.34974e-06
8.09809e-06
4.61472e-06
4.93421e-06
-2.29853e-06
-5.92768e-05
-0.00011148
-8.65092e-05
1.40187e-05
3.43287e-05
-0.00382471
0.00338207
1.30684e-05
1.17129e-05
1.31449e-05
1.49642e-05
8.26472e-06
1.49691e-05
3.96831e-05
-9.29233e-06
0.000425134
-0.00179062
0.000128422
7.20217e-05
8.5749e-06
1.27426e-05
1.52864e-05
-1.44628e-06
-9.90225e-06
1.97356e-05
1.48682e-05
1.25524e-05
1.03364e-05
1.36133e-05
1.5382e-05
4.6539e-05
4.40918e-05
0.0135063
3.10614e-06
-0.0134766
0.015782
-2.21741e-05
-0.0181493
0.0181452
-0.0157561
0.016027
2.4072e-05
-0.0183106
0.0183057
-0.0157144
3.03651e-05
0.0182086
-0.0113886
-6.3507e-05
-9.92332e-05
0.000124705
0.000263398
0.000285997
-0.000261007
-0.00144098
-0.00292881
-0.00569917
6.65427e-05
-0.00221192
-0.000871216
-0.00026433
0.000279951
0.000257864
4.3298e-05
5.27968e-05
5.57347e-05
3.06819e-05
0.0115771
-0.0113861
0.011421
-0.0115481
-1.79711e-05
-0.0134867
0.0136521
4.04382e-07
-0.0160134
-4.82054e-05
-0.0182168
0.0183297
-1.74501e-05
-0.0210829
0.020763
-0.0238617
-1.59346e-05
-0.00015655
-5.62021e-05
1.89616e-05
3.45449e-05
0.000123032
0.000292517
0.000765601
0.00420311
-0.00231504
0.0579744
-0.00153269
-0.000267949
-0.00109453
-0.0113224
0.00250994
0.00657048
0.000516569
-0.000118145
-0.00587239
-0.000142934
0.000142349
0.000311311
2.62987e-05
3.36625e-05
0.000553214
0.00031982
-0.0186965
0.0163512
-0.000766608
-0.000471541
-0.000135748
0.00327283
-0.000857569
0.00268753
0.00438362
0.00774188
0.0149481
0.00332664
-0.00849493
0.00342906
-0.0116599
0.00272612
0.00128586
-0.00812329
0.000564302
-0.000139514
1.32001e-05
-2.81062e-05
1.20177e-05
0.000125553
-8.18435e-05
-0.00019593
-5.93751e-05
-0.000216676
-5.05819e-05
8.29535e-06
-2.28205e-06
1.36393e-05
-9.46497e-06
-2.21286e-06
-4.3248e-05
5.6422e-06
6.88134e-05
0.000147421
0.00036992
0.00598789
0.0256128
0.00136449
-0.00352327
0.0163885
0.000659097
-0.00255735
-0.00152281
-0.00250003
0.0576014
-0.00125596
-0.000287354
0.000483916
0.000116118
0.00026969
-0.0053495
-0.000160395
-0.000155878
-0.00115517
-0.0114223
-0.010453
-0.00669135
-0.0239423
0.00254843
0.0058453
0.00026331
-0.00033384
-0.000355173
-0.000209991
-0.00649986
-0.000344106
0.00317
-0.00206839
0.00340121
-0.00022729
-0.00596598
-0.000369397
-0.000166397
-4.34373e-06
0.000463148
0.00209077
0.000507269
0.000562131
0.00200693
0.00194327
0.000240095