/*--------------------------------*- C++ -*----------------------------------*\
| =========                 |                                                 |
| \\      /  F ield         | OpenFOAM: The Open Source CFD Toolbox           |
|  \\    /   O peration     | Version:  2306                                  |
|   \\  /    A nd           | Website:  www.openfoam.com                      |
|    \\/     M anipulation  |                                                 |
\*---------------------------------------------------------------------------*/
FoamFile
{
    version     2.0;
    format      ascii;
    arch        "LSB;label=32;scalar=64";
    class       volScalarField;
    location    "2";
    object      gradTz;
}
// * * * * * * * * * * * * * * * * * * * * * * * * * * * * * * * * * * * * * //

dimensions      [0 -1 0 1 0 0 0];

internalField   nonuniform List<scalar> 
5322
(
-0.872022
-0.890278
-0.919177
-0.996421
-0.988684
-0.985898
-0.985111
-0.985975
-0.98887
-0.997004
-0.985654
-0.98846
-0.743898
-1.02558
-1.12144
-0.895198
-1.05819
-0.792203
-1.11538
-1.12555
-1.13262
-1.1275
-1.128
-1.13392
-1.13379
-1.1275
-1.12782
-1.13304
-1.13338
-1.12772
-1.12742
-1.12952
-1.12167
-1.10374
-1.04936
-0.861458
-0.979819
-0.998622
-1.03082
-0.725902
-0.958609
-0.989301
-0.712889
-0.990765
-0.98108
-0.72473
-1.00449
-0.948174
-0.715076
-0.9821
-1.09989
-0.789312
-1.07414
-1.00922
-0.946289
-0.959514
-1.13816
-0.944645
-0.956197
-0.960534
-1.15204
-0.957376
-0.956591
-0.936845
-1.15123
-0.989557
-0.952027
-0.889759
-1.12388
-1.05053
-0.788556
-1.22892
-1.17041
-1.15377
-1.16603
-1.16036
-1.15975
-1.15567
-1.17073
-1.10848
-1.05444
-0.810495
-0.840111
-1.13567
-0.774552
-1.02975
-1.38963
-0.848803
-0.87019
-0.782021
-0.988954
-0.884506
-0.93324
-0.925852
-1.12396
-0.973259
-0.969917
-0.98723
-1.41428
-0.826099
-0.833025
-0.794801
-0.994707
-1.11073
-1.20829
-0.941278
-0.998613
-1.00097
-0.997766
-0.99921
-0.999636
-0.99936
-0.998284
-1.00177
-1.1535
-1.14231
-0.799391
-0.86624
-1.15379
-0.954711
-0.846251
-1.02929
-1.01487
-1.42978
-1.06506
-1.40002
-1.00521
-1.04964
-1.37599
-1.00097
-1.0273
-1.38842
-1.01647
-1.00817
-1.39476
-1.03085
-1.01441
-1.43203
-1.06584
-1.40012
-1.00771
-0.849134
-0.954804
-0.854115
-0.800875
-1.15393
-0.866278
-0.860188
-0.790242
-0.795449
-1.15164
-0.861365
-0.858036
-0.790691
-0.797357
-1.15134
-0.863093
-0.853711
-0.848839
-1.12127
-0.893882
-1.05957
-1.23211
-1.20428
-0.764014
-1.11559
-0.792276
-1.07316
-0.734795
-0.993728
-1.02682
-0.95383
-0.987701
-1.14641
-0.942976
-1.16131
-1.15319
-1.1137
-0.930789
-1.11177
-1.13793
-1.14028
-1.12988
-0.945332
-1.13118
-1.13468
-1.13613
-1.13231
-0.948694
-1.13334
-1.13465
-1.13564
-1.1323
-0.950059
-1.13375
-1.1352
-1.1367
-1.13093
-0.951114
-1.13324
-1.13628
-1.13884
-1.12855
-0.951741
-1.13184
-1.13581
-1.13968
-1.12685
-0.948668
-1.13152
-1.11573
-1.11941
-0.985011
-1.41507
-0.826419
-0.823491
-0.797545
-1.12339
-1.12031
-0.933317
-0.9261
-1.1205
-0.980989
-0.958027
-0.993469
-1.41005
-0.830823
-0.823336
-0.799009
-0.981425
-1.11708
-0.969551
-0.980923
-0.999242
-0.997589
-0.999642
-1.00003
-0.999601
-0.998381
-1.00174
-1.15345
-1.1426
-0.795867
-0.793403
-0.792787
-0.795818
-1.1512
-0.857972
-0.862793
-0.868075
-1.02704
-1.44276
-0.858213
-1.15125
-0.862527
-1.43467
-1.04651
-1.37137
-1.00026
-0.868284
-1.02695
-1.37168
-0.732314
-0.983816
-0.943557
-0.942464
-0.988002
-1.15235
-1.1139
-1.1396
-1.12991
-1.1358
-1.13219
-1.13555
-1.13222
-1.13685
-1.13084
-1.13941
-1.12821
-1.14096
-1.12569
-1.12643
-0.97237
-1.41445
-0.991018
-0.969561
-1.11313
-1.13422
-0.949155
-1.13544
-1.13323
-0.952175
-1.13676
-1.13378
-0.951422
-1.13588
-1.13384
-0.950233
-1.13536
-1.13313
-0.948762
-1.13565
-1.13052
-0.945314
-1.13951
-1.11058
-0.930533
-1.16289
-0.953905
-1.16159
-1.11183
-0.93054
-1.15352
-0.987759
-1.14615
-0.951757
-0.741239
-1.02903
-0.895381
-1.16659
-1.11616
-1.13742
-1.1365
-1.13513
-1.1364
-1.13637
-1.13534
-1.13832
-1.13338
-1.14274
-1.12691
-1.14836
-1.11508
-1.12925
-0.977677
-1.39382
-1.03211
-0.934185
-1.19855
-1.21772
-0.91845
-1.22011
-1.21539
-0.921915
-1.21938
-1.21402
-0.920196
-1.21621
-1.21344
-0.918768
-1.21554
-1.21426
-0.917939
-1.21617
-1.21413
-0.916042
-1.22111
-1.20469
-0.903293
-1.23193
-1.05936
-1.12088
-0.993369
-1.04947
-0.91563
-1.07666
-0.732708
-0.836262
-0.951222
-0.873218
-1.1938
-1.16261
-1.12003
-1.11248
-0.928247
-1.1538
-1.17055
-0.908874
-1.15104
-1.01099
-0.961518
-0.945138
-1.39308
-1.12408
-1.06572
-1.43029
-1.02531
-0.955847
-0.976193
-0.948732
-1.16282
-1.11056
-0.940455
-1.14032
-1.13051
-1.13625
-1.13317
-0.934921
-1.13629
-1.13324
-1.1376
-1.13179
-0.932378
-1.13983
-1.12891
-1.14008
-1.1276
-0.927102
-0.93432
-0.935719
-0.935808
-0.937579
-0.934099
-1.14349
-1.12901
-0.950339
-1.13873
-1.12736
-1.14617
-1.12165
-0.945462
-1.14294
-1.09736
-1.22179
-0.937996
-1.38226
-0.839932
-0.803685
-0.817311
-1.08144
-0.878139
-0.78168
-1.14233
-0.765153
-1.09997
-1.14082
-0.764246
-1.12355
-1.13448
-0.762534
-1.13252
-1.13497
-0.762179
-1.12925
-1.12794
-0.762733
-1.13371
-1.12787
-0.764124
-1.13135
-1.11959
-0.763551
-1.12131
-0.859274
-0.82847
-1.0321
-0.9011
-1.00423
-1.04138
-1.16114
-1.17322
-1.16259
-1.16939
-1.134
-1.13631
-0.946774
-1.13818
-1.13749
-1.13493
-0.944037
-1.13153
-0.938394
-0.887857
-0.890972
-0.792123
-0.9236
-0.896542
-0.860069
-1.00265
-0.995357
-0.985097
-0.994235
-0.772078
-1.25809
-0.69679
-0.935367
-0.99309
-0.970509
-0.97451
-1.00262
-0.987511
-0.98441
-1.00401
-0.974375
-1.04039
-0.914547
-1.02947
-1.03289
-1.16719
-1.16592
-1.17017
-1.16251
-1.13606
-1.13396
-0.949469
-1.13686
-1.13981
-1.13575
-0.948102
-1.13517
-0.935913
-0.887634
-0.887503
-0.788412
-0.920417
-0.910375
-0.871563
-0.920364
-0.89005
-0.854577
-1.02678
-0.913663
-0.789339
-0.995867
-1.00044
-0.989304
-0.989105
-0.933286
-0.905965
-0.899564
-0.79027
-0.984921
-0.972084
-1.11327
-0.939034
-1.1405
-1.13848
-1.13145
-0.945475
-1.12958
-0.934576
-1.13631
-1.13515
-1.13347
-0.949014
-1.13245
-0.932968
-1.13564
-1.1357
-1.1333
-0.950607
-1.1332
-0.931853
-1.13633
-1.13739
-1.13173
-0.95193
-1.13299
-0.930272
-1.13712
-1.14041
-1.12815
-0.952664
-1.13255
-0.927844
-1.13443
-1.1422
-1.12507
-0.948835
-1.13312
-0.922609
-1.11279
-1.12348
-0.983412
-0.967823
-0.98357
-0.802463
-0.826507
-0.794259
-0.752541
-1.07832
-0.768231
-1.03699
-0.852718
-0.817075
-1.06767
-1.09471
-0.920281
-0.970576
-0.970526
-0.978239
-0.998308
-0.978992
-0.98128
-1.00488
-0.977029
-1.00468
-0.982897
-0.975831
-0.978471
-0.982515
-0.990992
-0.979077
-0.97993
-0.745609
-1.01837
-0.901358
-0.937407
-0.941794
-0.959929
-0.991887
-1.14908
-0.866275
-1.06739
-1.05397
-1.06532
-1.08105
-0.846918
-1.06396
-1.06778
-1.06271
-1.15017
-0.777228
-0.782341
-0.780959
-0.779717
-0.777212
-0.77446
-1.1519
-0.779709
-0.778889
-0.779162
-1.15196
-0.78101
-1.1568
-1.15814
-1.15574
-1.02535
-1.0235
-0.950868
-0.937725
-0.935207
-0.935542
-0.935659
-0.935255
-0.887041
-0.788418
-0.917193
-0.907101
-0.867433
-1.03503
-1.0296
-1.18044
-1.14406
-1.20491
-0.92409
-0.995857
-0.849518
-1.04444
-0.922316
-0.979078
-0.999319
-0.973167
-0.970439
-0.971485
-1.0073
-0.994074
-0.978973
-0.929722
-0.890632
-0.898929
-0.934768
-0.737555
-0.807668
-1.0926
-0.989513
-1.03644
-1.06256
-0.703792
-0.878491
-0.926569
-1.09488
-0.729404
-0.915179
-0.931698
-1.10016
-0.732337
-0.903674
-0.942644
-1.09607
-0.746142
-0.892819
-0.997852
-1.36313
-1.01738
-0.992751
-1.24816
-1.20987
-0.985364
-0.745645
-1.07419
-1.00998
-0.945812
-0.957512
-0.950063
-0.715398
-0.980364
-1.10038
-0.78908
-1.05515
-0.81095
-0.840854
-1.13606
-1.07796
-0.872738
-1.14379
-1.1106
-0.896386
-1.13705
-1.12468
-0.899072
-1.13364
-1.12867
-0.900793
-1.13162
-1.13006
-0.900302
-1.13137
-1.13029
-0.902143
-1.12955
-1.13104
-0.887165
-1.12599
-1.11488
-0.864965
-1.07362
-0.910954
-1.04816
-0.992192
-1.05901
-1.23232
-1.20398
-0.903293
-1.16879
-0.893529
-1.12138
-1.02861
-0.741389
-0.950551
-0.984482
-1.14642
-0.938854
-0.986214
-0.987477
-0.99772
-0.988758
-0.991305
-0.987791
-0.985488
-0.919856
-0.892775
-0.856851
-1.03864
-1.03929
-0.917243
-0.914939
-0.975334
-0.991819
-1.13666
-1.13798
-0.936721
-1.13284
-1.135
-0.950806
-1.13343
-1.13564
-0.952015
-1.13298
-1.13661
-0.952466
-1.13145
-1.1353
-0.948571
-1.12931
-0.994264
-1.00332
-0.982709
-0.988446
-0.976884
-0.972302
-0.974213
-0.976717
-0.979509
-0.983605
-0.99219
-0.982166
-0.983116
-0.741121
-0.984484
-0.938404
-0.987344
-0.986309
-0.99736
-0.988579
-0.984865
-0.982387
-0.980006
-0.977981
-0.980426
-1.02387
-1.01807
-0.743159
-1.32612
-0.99985
-0.959668
-0.932941
-1.10015
-0.733595
-0.735382
-0.804961
-1.14706
-0.767505
-0.779076
-0.794154
-1.1536
-0.771009
-0.782565
-0.787282
-1.14877
-0.787363
-0.800872
-0.8696
-1.44926
-1.03107
-1.00666
-1.01146
-1.00236
-0.849547
-0.818707
-0.872785
-1.44391
-0.863511
-0.865131
-1.15128
-0.958962
-0.956062
-0.935963
-0.995399
-0.712401
-0.9854
-0.986147
-0.726242
-1.00064
-0.947165
-0.955611
-0.957178
-1.16143
-1.15755
-1.16785
-1.15199
-0.956591
-0.902316
-0.982206
-1.15306
-0.966111
-0.733049
-1.02592
-0.900182
-0.731804
-1.22593
-0.676598
-0.934778
-0.819395
-1.0068
-1.01312
-0.846389
-1.03698
-1.02736
-0.87064
-1.03085
-1.03743
-0.853328
-1.03795
-1.02999
-0.874244
-1.02949
-1.03904
-0.851669
-1.03799
-1.03133
-0.872608
-1.02637
-1.04147
-0.849494
-1.01459
-1.02168
-0.830453
-0.951783
-0.694243
-1.25381
-0.902168
-0.772924
-1.43159
-1.0152
-1.06525
-1.39847
-1.0067
-1.04775
-1.37441
-0.999618
-1.02873
-1.38825
-1.01904
-1.00544
-1.39393
-0.747794
-0.958852
-1.14963
-0.945788
-0.95441
-1.16026
-0.930586
-1.11174
-1.11229
-0.93901
-1.13784
-0.91597
-1.13508
-1.21376
-0.789595
-1.21628
-0.761803
-1.21324
-0.78834
-1.21383
-0.761164
-1.21378
-0.788088
-1.21371
-0.761086
-1.21366
-0.788208
-1.21303
-0.761478
-1.21563
-0.789125
-1.21308
-0.762372
-1.21942
-0.790793
-1.20212
-0.76058
-0.896132
-1.14818
-1.12137
-0.943404
-1.16681
-0.910671
-1.16663
-1.13235
-0.938764
-1.16678
-0.911815
-1.16529
-1.13411
-0.93752
-1.16555
-0.911791
-1.16625
-1.13477
-0.937004
-1.16692
-0.911952
-1.16502
-1.13573
-0.937627
-1.16633
-0.912358
-1.16613
-1.13758
-0.939088
-1.16952
-0.912147
-1.1657
-1.14273
-0.944797
-1.15535
-0.900694
-1.19981
-1.15342
-0.961617
-0.869471
-0.835479
-0.733615
-0.993701
-1.04954
-0.911118
-1.07397
-0.86261
-0.896757
-0.908578
-0.935429
-0.939508
-0.981781
-1.14687
-0.943316
-0.985628
-0.950907
-1.16672
-0.90374
-1.20377
-0.79228
-1.22082
-0.763377
-0.996654
-0.986586
-0.974135
-1.15431
-1.02364
-1.43361
-0.862775
-1.15126
-0.858465
-0.866977
-1.06617
-1.06135
-1.0531
-1.06206
-1.06858
-1.44231
-1.0247
-0.954228
-0.938869
-0.940178
-0.942928
-1.14178
-1.14334
-0.944435
-0.988889
-0.981157
-0.974997
-1.15294
-0.931018
-1.1136
-1.13853
-0.94565
-1.13041
-1.13531
-0.949225
-1.02799
-0.937539
-0.938508
-0.93786
-0.937951
-0.935519
-0.93779
-0.937702
-0.937053
-0.936539
-0.935315
-0.937906
-0.939123
-1.11413
-1.13865
-1.22038
-1.21369
-1.21557
-1.21303
-0.762095
-1.13141
-0.789056
-1.12979
-0.763605
-1.13247
-0.792057
-1.12625
-0.885991
-0.851109
-1.03853
-0.912242
-1.02906
-1.16812
-0.939009
-1.13696
-0.945518
-1.13377
-1.13516
-0.937133
-1.13368
-0.948992
-1.13318
-1.13367
-0.934975
-1.1332
-0.948618
-1.13407
-1.13413
-0.933641
-1.13462
-0.917144
-1.13561
-1.13389
-0.915704
-1.1392
-1.11274
-0.903725
-1.00256
-1.00303
-0.9985
-0.999396
-0.999715
-0.999448
-0.998366
-1.00188
-1.15351
-1.14204
-0.79647
-0.789994
-0.7944
-0.861026
-1.44136
-1.0249
-1.02559
-1.42887
-0.860536
-0.865624
-1.06821
-1.06551
-1.12462
-1.06476
-1.43441
-1.02338
-0.950803
-1.16789
-0.904096
-1.00091
-0.981765
-1.1559
-1.14989
-0.778963
-0.776396
-1.15195
-0.773818
-0.789538
-1.15152
-0.982272
-0.940126
-0.891109
-0.944994
-1.39133
-1.20186
-0.962001
-1.15172
-0.92805
-1.1213
-1.11011
-0.942802
-1.13799
-0.945128
-1.12931
-0.936673
-1.13418
-0.947953
-1.13306
-1.13212
-0.933721
-1.13476
-0.917433
-1.13518
-1.13476
-0.91733
-1.1351
-0.935619
-0.935687
-0.935668
-0.935411
-0.937948
-0.981692
-1.15585
-1.14969
-0.960135
-1.00483
-0.982357
-1.00081
-0.981439
-0.96008
-1.0046
-0.938441
-0.940296
-0.936607
-0.93614
-0.937263
-0.934552
-0.984856
-0.982309
-0.980013
-0.982866
-0.980127
-0.90853
-0.889671
-0.893027
-0.900107
-0.734084
-1.01914
-0.750431
-1.35931
-0.981274
-0.958443
-0.960284
-1.11286
-0.986039
-1.03285
-0.981104
-1.34964
-0.966992
-0.958048
-0.931403
-1.09548
-0.731895
-0.745275
-0.812524
-1.14071
-0.76425
-0.790888
-0.804512
-1.14703
-0.767694
-0.792074
-0.800009
-1.14222
-0.78563
-0.805621
-1.1628
-0.998745
-0.93336
-0.926126
-1.13356
-1.20871
-0.918534
-1.22159
-0.763825
-0.915239
-1.18273
-0.935467
-1.12306
-1.14851
-0.936471
-1.10053
-1.18651
-1.13383
-1.05144
-0.837305
-0.958271
-0.890141
-1.10824
-1.17178
-1.15372
-1.11843
-0.94037
-1.10874
-0.931994
-1.11445
-0.940146
-1.10894
-0.932736
-1.11545
-0.942744
-1.10933
-1.17458
-1.14787
-0.95649
-0.848217
-1.0093
-1.15411
-0.845328
-1.01289
-1.03051
-0.991016
-0.864353
-0.863312
-0.868575
-1.4352
-0.869677
-0.958313
-1.37613
-1.03424
-0.994268
-0.844765
-0.858396
-1.15999
-0.797194
-0.796689
-1.15666
-0.98461
-1.0056
-1.00111
-0.997929
-0.999373
-0.999762
-0.999456
-0.99834
-1.00181
-1.15351
-1.14233
-0.773799
-0.776978
-1.0572
-1.05307
-1.06492
-1.3711
-1.04689
-0.848695
-0.853922
-0.954464
-0.86634
-0.84661
-1.01496
-1.43205
-1.06532
-1.39116
-1.00624
-1.39771
-1.12467
-1.08201
-1.06576
-1.4293
-0.860636
-0.861192
-1.15164
-0.79248
-0.791975
-0.861365
-0.860534
-0.865008
-1.02045
-1.40652
-1.02102
-1.44076
-1.02428
-1.02531
-0.945068
-0.792741
-0.898538
-0.905501
-0.935793
-0.989058
-0.988687
-1.00032
-0.991628
-0.988061
-0.985734
-0.983506
-0.981567
-0.978364
-0.982808
-0.98167
-1.01435
-0.747716
-0.819719
-0.824364
-1.41506
-0.958574
-0.968818
-0.999058
-1.32252
-0.740589
-0.822671
-0.825163
-0.753006
-0.832988
-0.848213
-1.38979
-0.997337
-1.02973
-0.782451
-0.870268
-0.949012
-0.893238
-0.906574
-0.983761
-1.02564
-1.02324
-0.983115
-0.981497
-1.01196
-1.00606
-0.999896
-0.997071
-0.996217
-0.980345
-0.978
-0.97772
-0.972236
-0.985526
-0.923879
-0.921783
-0.920865
-0.919957
-0.918175
-0.913904
-1.00682
-0.991072
-0.991677
-0.988631
-0.98519
-0.982543
-0.982
-0.979904
-0.994795
-0.99474
-1.13936
-1.22045
-1.21345
-1.21575
-1.21291
-0.917105
-1.13595
-1.13455
-0.915497
-1.03943
-0.937751
-0.939041
-1.11352
-1.02374
-1.43382
-1.00029
-0.951009
-0.981449
-1.00091
-1.15375
-0.799556
-0.790994
-1.06923
-1.06063
-1.06857
-1.05677
-0.773082
-1.15202
-1.0572
-1.0654
-0.867589
-1.08207
-1.05763
-1.05235
-1.0646
-1.06763
-1.12485
-1.06549
-1.06804
-1.06952
-1.0828
-0.79847
-0.866644
-0.954378
-1.15368
-0.85441
-0.84829
-1.00101
-0.982615
-1.15602
-1.1494
-0.960142
-0.98261
-0.940314
-0.891141
-0.792259
-0.887971
-0.789341
-0.935152
-0.93472
-0.935388
-0.933037
-1.13535
-1.13571
-1.21461
-1.21202
-1.21536
-1.21076
-0.918568
-1.13599
-1.13537
-0.917665
-1.04306
-0.887469
-0.788118
-0.88719
-0.787604
-0.935377
-0.931899
-0.937397
-0.933454
-0.936995
-0.932245
-0.93552
-0.93343
-0.884424
-0.788374
-0.930574
-1.04307
-1.04384
-1.04355
-1.04286
-1.03947
-1.02296
-1.00379
-1.00194
-1.0269
-1.00799
-1.00349
-1.02783
-1.00916
-1.00368
-1.00213
-1.02403
-1.02317
-1.00374
-1.00711
-1.00494
-1.00687
-1.00735
-1.00395
-1.02794
-1.00909
-1.00345
-1.02687
-1.00761
-1.00143
-1.02181
-1.03759
-0.930943
-1.11625
-0.74036
-1.16875
-0.99662
-0.980078
-1.14532
-0.787058
-1.15915
-1.06782
-1.03623
-0.977308
-1.34012
-0.969282
-0.9626
-0.903563
-1.07025
-1.08039
-0.851059
-0.963079
-1.07164
-1.07955
-0.989082
-0.968385
-1.33229
-0.981546
-1.03921
-1.04539
-1.04801
-1.03973
-0.9774
-1.07014
-0.944719
-0.942785
-1.09624
-0.746693
-0.730974
-0.800128
-1.14251
-0.785025
-0.773934
-0.787362
-1.14925
-0.785976
-0.777424
-0.780459
-1.14417
-0.801661
-0.86984
-1.4385
-1.05861
-0.992814
-0.866958
-0.862052
-1.15659
-0.983798
-1.00536
-1.00188
-1.00334
-1.00382
-1.00346
-1.00199
-1.00477
-1.02384
-1.03938
-0.916267
-1.13477
-1.13544
-0.917817
-1.13528
-1.13522
-1.21433
-1.212
-1.21501
-1.21065
-0.761343
-1.12949
-0.787181
-1.13214
-0.761404
-1.13107
-0.787781
-1.13187
-0.899552
-0.862491
-1.03399
-0.912198
-1.03355
-1.16508
-0.936485
-1.13359
-0.94585
-1.13595
-1.13491
-0.936397
-1.13106
-0.947984
-1.13455
-0.936343
-1.12997
-0.945196
-1.13929
-1.14027
-0.939197
-1.11492
-0.932163
-1.11087
-1.11325
-0.940547
-1.13877
-1.13961
-1.10978
-0.931709
-0.982991
-0.93876
-0.936621
-0.937283
-0.937538
-0.937572
-0.937384
-0.887859
-0.887294
-0.935507
-0.933073
-0.93543
-0.931833
-1.13507
-1.13548
-0.919104
-1.13463
-1.13665
-1.21751
-1.20935
-1.22089
-1.20896
-0.763761
-1.1113
-0.787043
-1.1375
-0.762056
-1.1254
-0.786993
-1.13422
-0.898368
-0.860699
-1.02962
-0.913881
-1.03733
-1.15444
-0.935588
-1.12314
-0.94148
-1.14785
-1.13427
-0.940499
-1.11757
-0.924962
-1.10107
-1.18609
-0.936703
-1.13356
-1.05055
-0.957585
-0.889549
-0.957482
-0.989677
-0.836435
-0.872057
-1.14402
-1.07854
-0.784033
-0.904126
-0.911263
-0.915604
-0.917489
-0.918492
-0.919473
-0.921618
-0.896687
-0.906833
-1.04965
-0.911136
-0.694092
-0.83577
-0.951513
-0.868409
-1.25471
-0.771305
-0.899195
-1.15168
-1.0104
-0.906914
-0.956148
-1.15189
-0.93084
-1.10885
-0.940244
-1.13736
-0.944947
-1.13099
-1.12897
-0.935036
-1.13504
-0.917377
-1.13531
-0.996304
-0.981514
-1.13622
-0.979837
-1.14098
-0.991658
-0.990635
-0.977732
-0.980476
-0.940112
-1.01894
-0.993883
-0.936706
-0.992028
-0.831755
-1.01929
-0.901052
-1.15359
-0.944794
-1.14172
-0.943328
-1.13216
-1.13314
-0.938698
-1.13472
-0.948214
-1.13261
-0.935456
-1.13371
-0.948694
-1.13365
-1.1333
-0.933317
-1.13359
-0.982284
-0.982331
-1.13459
-0.980832
-0.979811
-0.983169
-0.987761
-1.14315
-0.981502
-1.17237
-0.984569
-0.970936
-1.01569
-1.00238
-0.995244
-0.974138
-1.16737
-1.00323
-0.864469
-1.03418
-0.912468
-1.16617
-0.937261
-1.13507
-0.945892
-1.13459
-1.13541
-0.936493
-1.13268
-0.94894
-1.13403
-0.935194
-1.13229
-0.947877
-1.1349
-1.1355
-0.934972
-1.12993
-0.935491
-1.02682
-1.02755
-1.00896
-1.00412
-1.00374
-1.00223
-1.00502
-1.00377
-1.02292
-1.02679
-1.04265
-0.937657
-0.937906
-0.937906
-1.04305
-1.02775
-1.02766
-1.00908
-1.00795
-1.02805
-1.02417
-0.945502
-1.14007
-0.940028
-1.13917
-1.13028
-0.936796
-1.1354
-1.13596
-1.12975
-1.12996
-0.938819
-1.13544
-1.13772
-1.13332
-1.1427
-0.942736
-1.13896
-1.11302
-1.10965
-1.11059
-1.11211
-0.942662
-1.14164
-1.13967
-0.945498
-1.12947
-0.93878
-1.13711
-1.13585
-0.948623
-1.13233
-0.937352
-1.13612
-1.13461
-1.1345
-1.13499
-0.935638
-1.13315
-1.13281
-0.948615
-1.13261
-0.937357
-1.13426
-1.13674
-1.13529
-0.946157
-1.13715
-1.16655
-0.938815
-1.13228
-0.943924
-1.14188
-1.16796
-0.944486
-1.12123
-1.11056
-1.17133
-0.955927
-1.15291
-0.931364
-1.16274
-0.954555
-1.16128
-0.931323
-1.15427
-0.955851
-1.1699
-1.11146
-1.12017
-0.928517
-0.982648
-0.974643
-0.979907
-0.750417
-1.01535
-0.965182
-0.988628
-0.990303
-0.746409
-0.977169
-0.943746
-0.963496
-1.01654
-0.750274
-1.39961
-1.03069
-1.00424
-0.865259
-1.14979
-0.97573
-0.946017
-0.947667
-0.974038
-0.909633
-1.00848
-1.15162
-0.846107
-1.03056
-1.39919
-1.00487
-1.42907
-1.02539
-0.940372
-0.939146
-0.93739
-0.938073
-1.02881
-0.9494
-1.13369
-0.935131
-1.13366
-1.1344
-1.13313
-1.1366
-0.936681
-1.1337
-1.13549
-0.946602
-1.13526
-1.16659
-0.937129
-1.13403
-1.16638
-0.913091
-1.03492
-1.03447
-0.863609
-1.03479
-1.03455
-0.863781
-1.03396
-1.03565
-0.861788
-1.0306
-1.0383
-0.858014
-1.01177
-0.971387
-0.999753
-0.973249
-1.00273
-0.973747
-1.00323
-0.973775
-1.00353
-0.973785
-1.00391
-0.865162
-1.03031
-1.16805
-0.912809
-1.03873
-1.01662
-0.852399
-1.00281
-0.97446
-0.970988
-1.01967
-0.901666
-1.20206
-0.961531
-1.15195
-0.928612
-0.982601
-0.983242
-0.994121
-0.772053
-0.900859
-1.25421
-0.694233
-0.952388
-0.831933
-0.991717
-0.936786
-0.836151
-0.868694
-1.00982
-0.908447
-1.15163
-0.940181
-0.979622
-0.974722
-0.987418
-0.993845
-0.98683
-0.983922
-0.982756
-0.936383
-1.13382
-1.16748
-1.16543
-1.13494
-0.990345
-0.98981
-0.989305
-0.983584
-0.98033
-0.977008
-0.975611
-0.990648
-0.946607
-1.13487
-0.936583
-1.13128
-1.1371
-1.1309
-1.17132
-0.935968
-1.13639
-1.1631
-0.913396
-0.761348
-0.997436
-0.98433
-0.987375
-1.00133
-1.13706
-1.21802
-1.20941
-0.787564
-0.885771
-0.886795
-0.787447
-0.935039
-0.930736
-1.13519
-0.933955
-0.929547
-1.13417
-0.919771
-1.0424
-0.937659
-0.93695
-1.03839
-1.02243
-1.02683
-1.00771
-1.00902
-1.02872
-1.00363
-1.00672
-1.00357
-1.00411
-1.02891
-1.02787
-1.02704
-1.00791
-1.02765
-1.04254
-1.0429
-0.918317
-0.997299
-0.99668
-0.982483
-0.984397
-0.990148
-0.981546
-0.980223
-0.974129
-0.986755
-0.934984
-0.996638
-0.986752
-0.984458
-0.986571
-0.989146
-0.994639
-0.991858
-0.98933
-1.00273
-0.999025
-1.13318
-1.13717
-0.918912
-1.13198
-1.00801
-0.992716
-0.987091
-0.992061
-0.892287
-0.950357
-1.21061
-1.24756
-0.745562
-0.997543
-1.36341
-1.01709
-0.849785
-1.00218
-1.01326
-0.866345
-0.868907
-1.4513
-1.03712
-1.00485
-1.27783
-1.10245
-1.10388
-1.04462
-1.06711
-0.790478
-1.16111
-0.981604
-1.00363
-1.00151
-1.02784
-1.02898
-1.02788
-0.937303
-0.935018
-0.930529
-0.933872
-0.929264
-0.885492
-0.886523
-0.886956
-1.1669
-1.16268
-0.936035
-1.13072
-0.945116
-1.13944
-1.13348
-0.937098
-1.12749
-0.944856
-1.13093
-0.936803
-0.937381
-1.02827
-1.04283
-1.04215
-0.920237
-1.02689
-1.00762
-1.00894
-1.00902
-1.02837
-0.937523
-0.936904
-0.93874
-1.14106
-0.980859
-1.13
-0.975099
-1.1134
-1.16403
-0.943491
-0.976684
-0.991683
-0.739517
-0.982007
-0.980964
-0.982936
-0.988173
-1.1378
-0.988013
-0.973357
-1.03352
-1.0028
-0.985045
-0.973275
-1.16604
-1.00245
-0.862751
-1.03303
-0.912593
-1.03463
-0.973189
-1.00192
-0.983806
-0.983874
-0.988633
-1.13665
-0.983977
-1.135
-0.978468
-0.988889
-1.13638
-0.984011
-1.13391
-0.978773
-0.988976
-1.13671
-0.972719
-1.17071
-0.999003
-0.856967
-1.01086
-0.914532
-1.18218
-0.970995
-0.985042
-0.990001
-0.976707
-0.95192
-0.893464
-0.938462
-0.921261
-0.979165
-0.988574
-1.1365
-0.981139
-0.988294
-0.976911
-0.961244
-0.940122
-0.975726
-0.981145
-0.983035
-1.13522
-1.13335
-0.980482
-0.979702
-0.983522
-0.991342
-0.980791
-0.96768
-0.940185
-0.97525
-0.980103
-0.981464
-1.13248
-0.995896
-0.995987
-0.996093
-0.918473
-0.919377
-0.921343
-0.883387
-0.910915
-0.91853
-0.918427
-0.919003
-0.995866
-0.985106
-0.984361
-0.980669
-0.933376
-0.726821
-0.813339
-0.919366
-0.976915
-0.9913
-0.986393
-0.979529
-0.976418
-0.975479
-0.976566
-0.979809
-0.987014
-0.98564
-0.974733
-0.977338
-0.977367
-0.9436
-1.1498
-0.939756
-0.994517
-0.982957
-0.993446
-0.989723
-0.943956
-1.13175
-1.13392
-0.937744
-1.02417
-1.00375
-0.960204
-1.02305
-1.03955
-0.891388
-0.945187
-1.39146
-1.23277
-0.763398
-0.888209
-1.04277
-1.02804
-1.0079
-1.02688
-1.0276
-1.00901
-1.0288
-0.938001
-0.938031
-0.938185
-0.937939
-1.02778
-0.948426
-1.13376
-0.935298
-1.13228
-1.13622
-0.936395
-1.12904
-1.13167
-1.13397
-1.13611
-0.93718
-1.12725
-1.13705
-1.13321
-0.945897
-1.13998
-1.15484
-0.914737
-0.762117
-0.990713
-0.982679
-0.983881
-0.988653
-0.990112
-0.957538
-0.951796
-0.893501
-0.975392
-0.938497
-0.920922
-0.980114
-0.990123
-0.978191
-0.975895
-0.985985
-0.987022
-1.13461
-1.13388
-1.13491
-1.13398
-0.937246
-1.13485
-1.1329
-0.948563
-1.13486
-0.938683
-1.13262
-1.13075
-0.945724
-1.1384
-1.14321
-1.14048
-0.943777
-1.03978
-1.02454
-1.00214
-1.00461
-1.00263
-1.00354
-0.934181
-0.92719
-1.12241
-0.799107
-0.73398
-1.15933
-1.06638
-1.06723
-0.977696
-1.04082
-1.04846
-1.0659
-0.777742
-1.1495
-0.958576
-1.15164
-1.15766
-1.15182
-1.1512
-1.12154
-0.892395
-1.04573
-1.3329
-0.754531
-0.985556
-1.11745
-1.03908
-1.10295
-1.02658
-0.993028
-1.29399
-1.08722
-0.805466
-0.871898
-1.44471
-0.86435
-1.15529
-0.802522
-1.15781
-0.960089
-1.00698
-1.00323
-1.02246
-1.02268
-1.03816
-1.02346
-1.02734
-1.02345
-1.00396
-1.00782
-1.028
-1.02875
-1.04307
-0.93794
-0.937806
-0.937275
-1.02381
-0.938951
-0.884716
-0.784491
-1.20922
-0.774699
-0.991477
-1.10946
-0.940593
-0.985602
-0.988872
-1.12133
-0.795613
-0.730545
-1.16127
-0.981536
-0.960149
-1.15113
-0.773716
-1.1515
-1.06635
-1.06657
-1.06915
-0.946378
-1.04537
-1.33207
-0.985405
-1.03935
-1.04481
-1.04614
-1.04995
-1.06626
-0.782529
-1.15148
-1.08345
-1.0467
-1.08168
-1.0669
-0.778713
-1.15352
-0.96168
-1.15784
-1.1572
-1.02814
-0.938848
-0.939414
-1.02841
-1.02375
-0.891132
-0.941232
-0.939713
-0.983228
-1.02338
-1.02758
-1.0296
-0.945285
-1.19869
-0.96503
-0.972948
-0.985829
-0.983436
-0.982694
-0.983598
-0.98639
-0.990293
-1.13561
-1.13382
-0.946252
-0.887892
-1.04313
-0.946602
-1.13449
-1.13611
-0.936896
-1.13564
-1.1338
-1.13336
-0.949399
-1.13415
-0.987078
-0.975633
-0.978845
-0.985832
-0.985987
-0.983741
-0.986963
-0.974376
-0.975175
-0.978184
-0.9838
-1.14081
-1.13723
-1.14127
-0.984021
-0.986004
-0.987067
-0.949361
-0.990556
-1.13652
-1.13523
-0.946522
-0.8878
-0.887599
-1.0427
-0.946075
-1.13655
-1.13782
-0.990042
-0.973429
-0.973571
-0.973698
-0.973829
-0.974367
-0.970686
-0.936559
-0.991862
-1.00313
-1.00462
-1.0037
-0.990645
-1.00401
-1.00358
-1.00409
-0.989303
-0.981823
-0.928597
-0.978322
-0.985126
-0.985016
-0.973738
-0.959878
-0.939525
-0.977599
-0.974143
-0.9598
-0.942887
-0.973406
-0.972028
-0.938538
-0.96779
-0.888065
-0.945194
-1.13344
-0.942144
-1.00046
-0.980001
-1.15516
-1.08424
-1.0871
-1.1172
-1.02627
-1.10258
-1.10388
-1.1024
-1.08455
-1.04403
-1.09945
-1.29265
-1.10263
-1.10494
-1.18417
-1.1546
-1.29923
-1.30043
-1.28024
-1.29648
-1.2944
-0.954749
-0.958542
-1.0033
-1.16281
-0.819395
-0.954688
-0.985664
-0.949357
-0.925432
-1.13782
-0.93761
-1.13423
-0.908506
-0.887585
-0.912825
-0.885601
-0.895715
-0.900113
-1.166
-1.1323
-1.13627
-0.984025
-1.2945
-1.13717
-0.995551
-0.761337
-0.912915
-0.734764
-1.15345
-0.763978
-0.763444
-0.761965
-0.901899
-0.864676
-0.93482
-0.900059
-0.959445
-0.951302
-0.754658
-0.931074
-1.1516
-0.790951
-1.06429
-0.751472
-1.11458
-0.933679
-0.955766
-0.879918
-0.850945
-0.742159
-0.931035
-0.932198
-0.936641
-0.788103
-0.938016
-1.13589
-0.934269
0.99238
0.980694
0.991589
0.984865
0.978642
0.976004
0.975373
0.976568
0.979771
0.98664
0.973229
0.96804
0.720766
1.0166
1.15225
0.905509
1.00639
0.955543
1.19684
0.895732
1.14891
1.01082
0.848106
1.03615
1.02785
0.863435
1.03539
1.03181
0.864767
1.03505
1.03265
0.860842
1.03542
1.03198
0.862371
1.03261
1.03425
0.861444
1.02743
1.03856
0.85134
1.01235
1.0196
0.830397
0.949465
0.692824
1.25159
0.771842
0.900383
1.01406
0.75111
0.962988
0.991174
0.748216
0.983729
0.981874
0.753787
0.9947
0.953415
0.747323
0.984462
1.18237
0.819941
1.09889
1.03555
0.953922
0.958679
1.13632
0.949779
0.954584
0.954479
1.14571
0.956363
0.952982
0.937642
1.1471
0.97443
0.95415
0.904798
1.14946
1.00623
0.959835
0.866492
0.833156
0.731608
0.908924
1.07119
1.11332
1.12328
1.1297
1.1275
1.12919
1.12929
1.12857
1.13061
1.12984
1.13049
1.12998
1.13078
1.12821
1.12891
1.12069
1.10381
1.04907
0.861286
0.977491
0.997245
1.02823
0.956341
0.720955
1.29049
0.997865
1.05671
0.993892
1.03176
1.15463
1.18278
1.10057
1.04946
1.05369
1.05002
1.10046
1.2907
1.05666
0.846376
0.857311
0.957212
0.869812
0.846846
1.01049
1.30118
1.03172
1.37545
0.993805
1.15467
0.977299
0.997297
1.05082
1.22765
1.2022
0.90368
1.16983
0.890751
1.1219
1.02882
0.720336
0.955401
0.987934
1.15405
1.11514
1.14064
1.1308
1.13603
1.13324
1.13527
1.1332
1.13632
1.13156
1.13862
1.12896
1.1399
1.12682
1.12455
0.972389
1.41061
0.98826
0.968999
1.11237
1.1336
0.948838
1.13527
1.13257
0.951767
1.13718
1.13279
0.95123
1.1375
1.13225
0.950354
1.13756
1.13164
0.949097
1.13715
1.13041
0.946039
1.14016
1.1123
0.932401
1.16409
0.942626
1.14956
0.984942
0.709745
0.991546
0.947102
1.15204
0.961434
0.7195
1.02049
0.905247
1.17326
1.11201
1.14185
1.13776
1.13395
1.14447
1.12885
1.1476
1.13318
1.1323
1.13878
1.12965
1.14153
1.11977
1.13371
0.979258
1.41525
1.01691
0.960572
1.07351
1.23136
0.917245
1.21472
1.21166
0.918188
1.21323
1.21177
0.917803
1.22869
1.1048
0.948435
1.15949
1.12013
0.947363
1.14672
1.12819
0.944305
1.14379
1.12001
0.928265
1.14882
1.00868
1.15222
0.90035
0.732786
1.22682
0.852095
1.19507
1.15249
0.896269
1.01307
0.934613
0.814256
0.677426
0.863458
0.727375
1.05048
1.10775
0.760905
1.20342
1.11363
0.902807
1.22699
1.17062
0.890338
1.12169
1.05209
0.787131
0.94481
1.37616
0.993552
1.15452
1.03182
1.30119
1.01076
0.847207
0.957447
0.869806
0.805515
1.15991
0.857269
0.868066
0.80082
0.798003
1.15685
0.862914
0.862379
0.797207
0.800987
1.15678
0.868589
0.856879
0.804144
0.870129
1.15963
0.957213
0.846592
1.03199
1.01039
1.30166
1.03187
1.15455
0.992778
1.05703
1.28813
1.0013
1.02711
1.27643
1.02641
1.00204
1.28773
1.05664
0.846698
1.09636
1.18206
1.10053
1.43894
1.02797
0.951536
0.989246
0.944971
1.16514
1.11295
1.11279
1.11606
0.932262
1.16561
1.15335
0.990145
1.15011
0.94366
0.955766
1.03012
1.45193
1.10428
1.10059
1.43854
1.02797
0.951472
0.889013
1.05236
1.22727
1.20276
0.760838
1.10471
0.787633
1.04873
0.727713
0.996156
1.12178
1.03237
0.95103
0.988931
0.987863
1.15002
0.951969
1.03136
0.996462
0.976412
0.867366
0.892595
0.843647
0.81367
0.979328
0.918328
0.971106
0.978954
0.993579
1.00042
0.857492
1.0065
1.03645
1.16318
1.17442
1.15295
1.19121
0.907485
1.0516
1.02913
0.910465
0.76235
1.12731
1.13945
0.759432
1.21185
1.13657
0.915718
1.21132
1.13429
1.13533
0.914765
1.21373
0.788746
0.888561
0.890942
0.943601
0.7907
1.12908
0.893159
1.1162
0.922881
0.923905
0.894765
0.860178
1.00592
0.97438
0.965007
0.980146
0.978034
0.969968
0.936309
0.942325
0.977425
0.956152
1.15414
1.16536
1.11206
0.932799
1.11451
0.943468
1.14075
1.14102
1.13234
0.946586
1.12887
0.93928
1.13951
1.13533
1.13574
0.94987
1.12837
0.937322
1.14107
1.13427
1.1357
0.951246
1.1299
0.93451
1.139
1.13603
1.13272
0.951495
1.13199
0.930626
1.13679
1.13846
1.12904
0.951396
1.13157
0.928789
1.13441
1.13995
1.12656
0.948556
1.1335
0.92632
1.11121
1.12226
0.982084
0.969157
0.987001
0.801626
0.834456
0.80483
0.835358
0.90785
1.41446
0.965285
0.885843
1.15757
0.886097
1.08944
0.767128
1.10449
1.13566
0.759312
1.12959
1.13788
0.767275
1.08264
1.28941
0.986792
1.13015
0.903837
0.907638
0.888201
0.941659
1.10846