/*--------------------------------*- C++ -*----------------------------------*\
| =========                 |                                                 |
| \\      /  F ield         | OpenFOAM: The Open Source CFD Toolbox           |
|  \\    /   O peration     | Version:  2306                                  |
|   \\  /    A nd           | Website:  www.openfoam.com                      |
|    \\/     M anipulation  |                                                 |
\*---------------------------------------------------------------------------*/
FoamFile
{
    version     2.0;
    format      ascii;
    arch        "LSB;label=32;scalar=64";
    class       volScalarField;
    location    "2";
    object      gradTx;
}
// * * * * * * * * * * * * * * * * * * * * * * * * * * * * * * * * * * * * * //

dimensions      [0 -1 0 1 0 0 0];

internalField   nonuniform List<scalar> 
5322
(
-0.0181447
0.00103065
0.00109091
-9.81557e-06
-7.5568e-05
-6.49167e-05
-4.52738e-05
-3.12948e-05
-2.27076e-05
-1.42099e-05
-7.09013e-06
4.13174e-05
5.82994e-05
-0.000792365
-1.00485e-05
0.00149879
-0.00116692
1.58578e-05
-0.000967823
0.000903297
-0.00120434
0.00159708
-0.00168681
0.00257258
-0.00267368
0.00376431
-0.00379559
0.00556385
-0.00559707
0.00758837
-0.00721234
0.0107314
-0.00792362
0.015421
0.00136601
0.0228955
0.0162397
-0.00643467
0.0178128
-0.00106168
-0.0169085
0.0169502
-0.00102626
-0.0180214
0.0179327
-0.000611851
-0.0191507
0.0168775
-0.000395316
-0.0201069
-0.0199736
-0.0286676
-0.00952025
0.0180807
-0.00119412
-0.0295142
-0.000910683
0.0280428
-0.000338417
-0.0280368
-0.000121218
0.0273124
-0.000142101
-0.027536
3.01233e-05
0.026952
0.000404459
-0.0272725
0.00144877
0.0225058
0.00132435
-0.0214025
0.0243107
-0.0250484
0.0241027
-0.0245562
0.0245758
-0.0245923
0.0280178
-0.0205556
0.00965245
-0.0150126
-0.0101527
0.0157722
0.00129965
-0.00689095
0.0115237
-0.0318846
-0.0100065
0.0349347
-0.00158883
0.000336356
0.000583591
0.00385727
0.0204341
-0.0040312
0.00032119
-0.00142863
0.0118568
-0.0281548
-0.028092
0.0575233
-0.00144577
0.0158131
0.0258211
0.000604873
0.00028472
0.000213467
0.000103292
3.29617e-05
2.73206e-06
-7.90228e-06
-1.22089e-05
-1.41315e-05
9.19668e-06
-7.24291e-06
-0.000482369
-0.000463878
6.17041e-05
0.000287052
1.02858e-05
0.000420844
-0.000505752
-3.96745e-05
-0.000129497
0.000787412
0.000639352
0.000167683
0.00050325
0.000315527
0.000235956
0.000540911
0.000261635
0.00028181
0.000550193
0.000226372
0.000452202
0.000626081
0.000704278
2.935e-05
-0.000525573
2.25825e-05
0.000362962
-0.000449264
-0.000492612
8.19023e-05
0.000188782
9.70916e-05
-0.000384719
-0.0004246
9.34441e-05
0.000111071
0.000138499
-0.000420115
-0.000394144
9.4532e-05
6.69355e-05
0.000228435
-0.000443025
0.000584078
-0.00132771
-0.00175258
0.00179027
-0.00240542
-0.000124201
-0.00138727
2.84816e-05
0.00124253
-0.000287145
0.00131443
0.000646912
0.000970987
-0.00159457
0.000591365
-0.00137718
0.00106673
0.00138614
-0.00199103
0.000145609
-0.00169242
0.0018494
0.00229986
-0.00300574
0.000142492
-0.00252031
0.00299903
0.00366647
-0.00463268
0.000226764
-0.00386949
0.00465766
0.00566375
-0.00701215
0.000331658
-0.00586029
0.00688234
0.00839783
-0.0103188
0.000458807
-0.00864209
0.0096547
0.0119019
-0.0146877
0.000625356
-0.0122819
0.0128227
0.0160808
-0.0199175
0.000871013
-0.0164363
0.0157891
0.0196676
-0.0035663
0.0113443
-0.0278767
-0.0284308
0.0577823
-0.00246936
-0.00263852
0.000680317
0.00419023
0.020343
-0.0029837
0.000527823
-0.00355659
0.0108781
-0.0283489
-0.0279586
0.0574306
-0.00188602
0.0158047
0.000296706
0.00045543
0.000254057
0.000135632
5.19888e-05
1.17758e-05
-4.09572e-06
-1.08009e-05
-1.28927e-05
9.04466e-06
-6.97634e-06
0.000377355
-0.000421596
0.000422499
-0.000376647
1.88968e-06
0.000375696
-0.000349608
-1.64783e-07
-0.000419296
7.6662e-07
-0.000373485
9.2372e-07
0.000351168
1.42065e-05
0.000390457
-3.28242e-05
-0.000424602
6.90373e-07
0.000419556
-5.50726e-08
4.43428e-07
0.000771831
-0.00143152
0.00143262
-0.00141206
0.00172448
-0.00210153
0.00270646
-0.00333298
0.00423366
-0.00519828
0.00649522
-0.00785149
0.00964614
-0.0114002
0.0137964
-0.0158406
0.0188792
-0.020729
0.0243037
-0.0141051
0.000353966
0.0142964
0.000415128
-0.0236645
0.0202047
0.000120785
-0.0183015
0.0155213
7.39622e-05
-0.0133709
0.0111938
4.52346e-05
-0.00934993
0.00770879
2.68054e-05
-0.00629556
0.00510048
1.67459e-05
-0.00409967
0.00327036
1.22636e-05
-0.00261265
0.00207397
8.97644e-06
-0.00165685
2.44181e-06
0.001661
-0.00206803
-6.68414e-06
-0.00171801
0.00141342
-3.05499e-06
-0.000777192
-5.04713e-05
0.000788824
-0.00148305
0.00165512
-0.00207096
0.00257628
-0.00322229
0.00404972
-0.00499601
0.0062342
-0.00752841
0.00929693
-0.0109103
0.0133924
-0.0150834
0.0185023
-0.0194565
0.0239162
-0.0139387
-0.00341915
0.00586471
0.000655616
-0.0222693
0.0177105
0.000147055
-0.0167227
0.0139998
-5.78664e-05
-0.0118379
0.0100118
-8.98709e-05
-0.00821288
0.00684369
-7.60776e-05
-0.00553289
0.00453125
-6.82278e-05
-0.0036058
0.00293434
-6.38378e-05
-0.00229813
0.00189621
-6.90582e-05
-0.001458
0.00115835
1.34941e-05
-0.000390276
0.000650442
0.00107727
-2.9602e-05
0.000116791
-0.000199185
0.000598696
-0.00185231
0.00162875
-0.00241374
-0.00162612
-0.00202584
0.000153649
0.00113016
0.00125884
-0.00156011
0.000568126
-0.00138392
-0.000127181
5.04764e-05
-0.00052224
4.20702e-05
-2.20077e-05
-0.000539527
9.41516e-06
-0.000122096
-0.00142032
-0.001541
0.00129265
-0.00196838
-6.77448e-05
0.00222536
-0.00298361
0.0036024
-0.00460686
-0.000231208
0.0056006
-0.00698374
0.00831731
-0.0102871
-3.17704e-05
0.0117712
-0.0145865
0.0158013
-0.0194965
0.00403841
0.00067129
0.000163071
0.00020349
-0.000123578
-2.75609e-06
0.0122084
-0.0149743
0.000723528
-0.0121475
0.011913
0.0164972
-0.0195719
0.00112545
-0.0172108
0.0139757
0.0280668
-0.00236403
0.0013784
-0.030566
-0.0284061
0.0549121
-0.00372184
0.000554653
0.00100446
-0.0131708
0.00258789
0.0076916
-0.00799488
0.000525081
0.00602878
-0.00537176
1.70667e-05
0.0040728
-0.00377878
-5.00649e-05
0.002571
-0.0024683
-9.09151e-05
0.00174492
-0.00155461
-0.000113886
0.00118902
-0.00083085
-0.000120017
0.00100132
0.000349366
0.000246269
-4.42322e-05
-2.19019e-05
0.000520857
-0.000218667
0.00276465
-0.00363376
0.00447348
-0.00561543
-0.00362843
-0.00473299
0.000230896
0.00294091
0.00370056
-0.00306183
0.000146154
-0.00235689
-0.000106728
-5.35608e-05
-1.4898e-05
-5.12617e-05
-8.03961e-05
0.000121428
8.08943e-05
1.14239e-05
-0.000460822
-0.000141118
0.000642035
0.000932125
0.000792326
0.000278239
0.00132054
0.000482325
0.000418621
0.000339219
-0.000273068
-0.000712748
-0.00103953
-0.000514604
0.00038079
-0.000475527
6.09233e-05
0.000880882
-0.000786446
0.00694311
-0.00851043
0.0103545
-0.0126209
-0.00825674
-0.010596
0.000490761
0.00660894
0.008589
-0.00718535
0.000343314
-0.00552826
-0.000167353
-6.07518e-05
-7.31393e-05
-0.000101635
-0.000251812
-3.58018e-06
-6.46307e-05
-0.000169765
1.32559e-05
-1.04876e-05
0.000650948
3.53191e-05
-7.85984e-05
-1.12729e-05
1.97915e-05
9.33011e-06
-3.73824e-05
8.13869e-05
-0.000936921
-4.7552e-05
-1.935e-05
-6.10802e-06
-1.25088e-05
0.00210913
9.58625e-06
-0.00269662
0.00262234
-0.00325658
-4.77003e-06
0.00335219
1.95395e-05
-0.00421761
0.00412165
-0.005073
2.31e-06
0.00523744
3.22065e-05
-0.00646736
0.00634091
-0.00765728
1.46594e-05
0.00792605
5.2047e-05
-0.00960182
0.00943585
-0.011103
3.76674e-05
0.0115336
7.35851e-05
-0.0137306
0.0135154
-0.015374
8.12283e-05
0.0160314
4.34662e-05
-0.0187651
0.0184829
-0.0200218
0.000131821
0.020813
-0.000160212
-0.0240792
0.023742
-0.0141743
-3.14544e-05
0.0140572
-0.000981775
-0.00230834
-0.00185651
-0.00276651
-0.0279866
0.00593253
0.00399431
-0.00217405
-0.00437416
-0.00148693
-0.022982
0.00522843
-0.00908677
-0.0124249
-0.00252958
-0.00375001
-0.00484816
-0.00260957
-0.00139073
0.000663612
-0.00078787
-0.0015708
-0.0014672
-0.000968547
-0.000695508
-0.000494447
-0.000144494
0.000762941
0.00080869
0.00081082
0.000932779
0.00122874
0.00117267
0.000862212
0.000868409
0.000590578
-0.000519947
0.000164164
-5.9473e-05
-4.13534e-05
0.000149113
-0.000453041
-9.51428e-07
-3.71297e-07
-1.00228e-06
9.19186e-07
-0.000288684
-0.000332181
-0.000330326
-0.000291117
0.000290849
-0.000239034
1.09953e-05
0.000334045
-0.000280006
-0.000280152
1.11764e-05
0.000331884
7.82162e-07
1.72888e-06
1.91184e-06
1.72285e-06
-1.30728e-05
9.82998e-06
-4.95418e-06
-2.15537e-06
6.41005e-06
2.46628e-05
6.13974e-05
4.35435e-05
-5.65105e-05
-0.000400077
0.000222727
-0.000252468
0.00166353
-0.00233144
0.0150236
-0.0180456
0.0212718
-0.00020985
-0.00606753
-0.00114625
0.00168707
4.30974e-05
0.00048036
0.00077941
-0.00244644
-0.00439821
-0.00850154
-0.0196961
-0.0202724
-0.0464149
-0.0189762
-0.0162055
-0.000296187
-0.00626789
0.00577961
-0.0406661
-0.0247776
-0.0120167
0.0178062
0.00142393
0.000767471
-0.0182309
0.0192008
0.000127685
-0.00237713
-0.0198976
0.0192664
3.90074e-05
-0.00262707
-0.0194269
0.0192107
0.000156913
-0.00422124
-0.0185447
0.0137129
-0.0117428
0.0101852
0.00776806
0.0220416
-0.0103653
-0.0057719
0.00324515
0.0125286
-0.0382268
-0.0018722
-0.0222077
0.0214384
0.0205832
0.0189311
0.0239235
0.0106319
0.00172331
0.00870363
0.0127187
0.020039
-0.00700682
0.00176362
0.0118181
-0.00763743
0.000116501
0.00777073
-0.00574206
-1.31377e-06
0.00541981
-0.00389831
2.05453e-05
0.00373625
-0.00257949
1.9814e-05
0.00249247
-0.0016851
1.90693e-06
0.00157732
-0.0011582
-6.5484e-05
0.000897024
-0.000946739
-0.000324722
5.69167e-05
-0.00107598
-0.000661202
0.00039551
-0.00115657
0.00148093
-0.001882
6.86583e-05
-0.00165503
0.00148256
-9.64079e-06
-0.000786247
5.13562e-05
0.000778966
-0.000769997
4.82178e-06
6.36788e-06
2.5674e-06
3.16014e-06
6.63065e-06
1.12446e-05
3.36096e-05
5.33857e-05
8.8899e-05
-0.000325528
2.2659e-05
-0.000134415
0.00124846
-0.0012771
9.49876e-05
9.45099e-05
0.00049602
0.000512687
0.00449644
0.00577131
-0.000229899
-0.00385987
0.00466551
0.000333452
-0.00585099
0.00687656
0.000463188
-0.00866079
0.00962223
0.000634571
-0.01242
0.0127401
0.000873704
-0.0168681
0.000360302
0.000674889
-0.00275683
-0.00275284
-0.00801751
-0.00410473
-0.00235667
-0.00145219
-0.000973717
-0.000708729
-0.000504732
-0.000156887
0.000746251
0.000781896
0.000776373
0.00117343
0.000715922
-0.000157485
-0.000495113
-0.000721223
-0.00100967
-0.00148632
-0.00235851
-0.0040703
-0.0077277
-0.0178474
-0.0186959
-0.0322098
-0.02599
-0.00865437
-0.00862223
0.0161997
0.00172885
-0.00202104
-0.00161372
0.00761174
0.000261816
-0.0061869
-0.00591143
0.00606191
-9.08643e-06
-0.00678464
-0.00648369
0.00534565
3.93281e-06
-0.0084259
-0.00803222
0.0026759
-0.0116259
0.00801424
0.00778147
0.00812786
0.00711327
-0.00993945
0.000764446
0.00355158
-0.0115638
0.00265855
-0.010804
0.0124204
-0.0271184
-0.00115954
-0.0261063
0.0198291
0.021156
0.0204163
0.020021
0.0204639
0.0199203
-0.0282679
-0.00140364
-0.0254952
0.0163125
0.0175014
0.0163834
0.017282
-0.00116097
-0.0272007
-0.0270197
0.0124546
0.0204644
0.0188939
0.0179749
0.0224313
0.0222577
0.0173288
0.00498233
0.010381
0.00437783
-0.0024248
0.0040337
0.000899784
-0.00296171
0.00223376
0.000302936
-0.00230271
0.00159405
0.000199767
-0.00169888
0.00108865
0.00012266
-0.00116337
0.000760052
0.000101695
-0.000794554
0.000471208
3.48379e-05
-0.00053716
0.000283
-2.56681e-05
-0.000435702
9.81755e-05
-0.000222914
-0.000572383
-0.000260108
-0.000777943
-0.000940664
-0.00093934
-0.00063166
-0.000454805
-0.000707722
-2.87182e-05
0.000527674
-0.000392746
3.98089e-05
0.000434779
-0.000432305
1.86532e-05
0.000452285
-0.000464717
-1.63565e-05
-3.33555e-05
-0.00083635
-3.13752e-06
-0.00146645
2.55827e-06
-0.00168029
1.2251e-05
0.00209882
-0.00212741
-2.2175e-06
-0.00259162
7.00863e-05
0.00325051
-0.00294858
8.01141e-05
0.003669
6.9465e-05
-0.00455392
0.000114462
0.00560462
8.7471e-05
-0.00684948
0.000157043
0.00826837
6.69104e-05
-0.00992122
0.000199155
0.0117189
6.78694e-05
-0.0137828
0.000261087
0.0159558
-0.000116588
-0.0181584
0.000444509
0.0206304
-0.00018991
-0.00066695
-0.0257672
-0.0186656
0.000777462
0.0210194
-0.000315717
-0.0195876
-0.0135989
0.000644044
0.0164046
-0.000192711
-0.0143326
-0.00986027
0.000408881
0.0119256
-0.000145549
-0.010084
-0.00690485
0.000274304
0.00828556
-8.58383e-05
-0.0067915
-0.004657
0.000176219
0.00552109
-6.0143e-05
-0.00440227
-0.00302667
8.95095e-05
0.00359803
-2.29743e-05
-0.00273312
-0.00191486
4.34909e-05
0.00239611
2.69705e-05
-0.00161939
-0.00115547
0.000117114
0.00184208
0.00020637
-0.00012814
0.000396062
-0.000662265
-0.00107894
5.86484e-05
-0.000329529
5.48271e-05
0.000956366
-7.77645e-05
1.4955e-05
-0.00079373
5.52669e-06
0.00146985
-0.00143339
-4.23557e-06
-0.00166614
7.05841e-05
-0.00190511
4.74968e-05
0.00234809
9.29506e-05
2.28535e-05
1.36713e-05
2.05216e-05
0.00174736
1.6953e-05
-1.18645e-05
-0.000350694
-7.56431e-07
0.00038467
1.29125e-06
1.68315e-06
2.03644e-06
-5.94962e-05
-6.91605e-05
-4.97722e-05
-0.000528031
6.44493e-06
-0.000120396
-6.26008e-05
-6.02619e-05
-6.79075e-05
0.00226309
0.00186897
-6.18991e-05
0.000201711
6.65271e-05
4.77704e-05
0.00113919
0.000148533
-0.00170415
0.00189083
0.00014275
-0.00251919
0.00302164
0.000226632
1.6632e-05
-0.00012268
-0.000140278
-0.000178668
-0.000203148
-0.000245286
-0.000213886
-0.000184291
-0.000125933
-0.000138411
-0.000124229
-6.63292e-05
-7.62859e-05
-0.0016705
0.00184747
0.0029602
-0.00362083
0.00465849
-0.00558147
-0.00010486
-0.00354522
1.48388e-05
0.00300476
-9.17891e-05
-0.00227274
-3.73412e-05
0.00202526
-5.42636e-05
2.96272e-05
-0.00171915
-9.3009e-05
0.00212882
-0.00233542
7.23731e-06
-0.00481246
-2.90597e-05
0.00588635
-0.00518591
1.12812e-05
-0.00646657
9.8716e-06
0.00788565
-0.0077801
3.29767e-06
-0.00936093
8.15466e-06
0.0111837
-0.0115017
-3.17166e-05
-0.0130108
8.33671e-05
0.0151603
-0.0176147
-2.3136e-05
0.0199683
-0.0223658
-0.000269816
-0.000643229
-0.000110704
-2.30021e-05
2.28695e-05
3.01372e-05
2.6619e-05
2.2623e-05
1.8784e-05
-6.39587e-06
7.70451e-06
-0.000375945
0.00042505
-0.000418282
-0.000381261
3.67665e-06
3.84381e-06
-1.17402e-05
2.19147e-05
0.000360596
2.67805e-06
-3.98395e-06
-3.27545e-05
4.07533e-05
-3.79944e-05
-0.000515767
5.93892e-06
-0.000143437
0.00100816
0.000156132
-3.75677e-05
-2.50556e-05
1.37407e-05
-2.16847e-06
0.000278763
0.000283687
-8.45776e-06
0.000237379
0.00037792
-6.58549e-06
-8.20853e-06
-7.99461e-06
-3.80834e-05
9.63202e-06
-0.000424503
0.00133001
6.09949e-05
-0.00201565
-1.99007e-05
0.00242526
-0.00214022
-5.52656e-06
-0.00271286
3.00237e-06
-0.00331488
5.09057e-07
-0.00414527
1.58077e-05
0.00513911
-0.005265
-9.83913e-06
-0.00621769
9.4232e-05
0.00757633
-0.00917991
9.83134e-05
0.0109529
3.16689e-08
1.20727e-05
1.41324e-05
1.38113e-05
1.13619e-05
1.39089e-05
2.21544e-06
5.21645e-07
-1.02433e-05
-1.13581e-05
-2.41846e-05
-4.01268e-05
-8.91195e-06
-9.85836e-06
3.78486e-06
3.77726e-06
5.30926e-06
7.64362e-06
9.80723e-06
1.4549e-05
1.65503e-05
1.79952e-05
2.73698e-05
3.44652e-05
0.000146522
0.000201314
-0.000552497
0.000243569
-0.000908852
0.00381919
-0.023534
-0.00639758
0.000174005
-0.00216015
0.0110334
-0.0109922
-0.0335256
-0.012982
-3.69875e-05
0.00331088
0.000260507
-0.0261653
-0.0114644
-0.00772584
0.0154058
0.00170482
-0.00174818
-0.00294063
0.0082584
0.00026173
-0.00577085
-0.00710897
0.00709907
1.15453e-05
-0.00633319
-0.00745764
0.00660986
5.96389e-05
-0.00812891
-0.00846253
0.00161519
-0.000462396
8.01397e-05
8.52719e-05
0.0199659
-0.0180866
0.000280772
0.0163017
-0.000495254
0.000302875
-0.0206034
0.000454827
-0.0127419
0.0148012
0.00019943
-0.0161975
-0.028388
0.0214092
-0.00166683
0.00275588
0.00934253
-0.000166893
0.0220469
0.0161509
0.0181349
-0.0218061
0.000742334
-0.0184256
-0.000232562
-0.0203833
0.000919425
-0.0195321
-0.000240632
-0.0196363
0.000962287
-0.0209733
0.0168677
0.0165305
-0.00110945
-0.0329057
-0.026434
0.0122953
-0.00871158
0.012022
0.00691135
0.00814824
-0.0106814
0.00296359
0.00228815
-0.0118983
0.00447687
0.00813476
-0.0100723
0.0169088
-0.00904194
0.00146457
-0.00893361
0.00140648
-0.00963861
-0.00754017
0.00131684
-0.00062578
-0.000103715
-5.50285e-05
1.28388e-05
4.34041e-05
3.99835e-05
3.05726e-05
2.37884e-05
1.90091e-05
-6.54206e-06
8.112e-06
-0.000239127
0.000291676
2.76486e-06
5.71549e-05
4.07411e-05
3.30824e-05
-0.000391525
-2.18646e-05
0.000451849
-0.000360999
-0.000191082
0.000452879
-0.000454495
-0.000634139
-0.000709759
0.000526952
0.000527407
-2.95413e-05
-4.27117e-05
-0.000147268
1.87735e-05
0.000543397
-8.98833e-05
-0.000120539
-8.91601e-05
0.000421898
0.000422982
-0.000121958
-8.81419e-05
0.000523198
-0.000257126
-0.000571324
-0.000258853
0.00053487
-4.46465e-06
-9.40825e-06
-5.08592e-05
1.40373e-05
5.66816e-05
0.000957954
-7.93673e-05
4.13299e-05
-3.80744e-06
-8.72472e-06
-1.44608e-05
-2.14009e-05
-3.45567e-05
-6.37967e-05
-0.000121748
1.75788e-05
-5.52527e-05
0.000103974
-0.000756138
-0.000219715
0.000776647
-0.0014057
-0.000512179
-0.000531756
-0.0158006
0.0151824
-0.00044863
-0.000346467
0.00097071
-0.000651339
-0.000356137
0.00274765
0.00506735
0.00268988
0.0153694
-0.00721509
0.00167928
0.0110076
0.0125312
-0.003743
0.00121518
-0.000151523
0.000789187
-0.000187657
6.1637e-05
-0.00126156
-9.39227e-05
5.87546e-05
2.22448e-05
3.18906e-06
-3.93348e-06
8.83291e-06
-3.55502e-06
1.021e-05
1.34593e-05
1.28535e-05
9.16577e-05
0.000180489
0.000270261
0.000367986
0.000478344
0.000671655
0.000405827
0.000122368
0.000229884
0.000133274
6.04204e-05
2.67182e-05
2.04771e-05
1.13684e-05
2.47991e-05
2.30797e-05
-0.00257155
0.00232449
-0.00290903
0.00362599
-0.00449605
8.23961e-05
-0.00402738
0.00322498
6.83256e-05
1.53344e-05
1.16703e-05
6.73032e-07
0.00207243
1.5835e-05
-1.25877e-05
0.000425613
-5.13771e-06
1.38708e-05
4.35132e-05
-7.77204e-05
0.000492275
0.000386047
-0.000160816
6.51354e-05
-9.43327e-07
-4.10461e-07
0.000242586
-8.15839e-06
-3.10978e-07
0.000168308
-0.000519889
0.000147633
2.45637e-06
5.95588e-05
4.32e-05
4.70912e-06
-4.22573e-05
1.98588e-05
4.09871e-05
-0.000161122
-0.000147987
0.000494158
-0.000192142
-0.000359912
-7.86817e-05
0.000455258
-2.1242e-05
4.3599e-05
2.80008e-05
-1.19477e-05
2.7273e-06
1.48441e-05
2.81399e-05
5.98219e-05
1.48409e-05
4.5904e-05
5.78941e-05
7.83491e-05
1.55989e-05
-8.08567e-07
2.01455e-05
-1.57019e-06
0.0050054
-0.00617922
0.00554622
-0.00678198
0.00821263
-0.00987969
0.000164102
-0.00917236
0.0075489
0.000112479
1.05362e-05
9.52858e-05
0.000111281
0.000139035
0.000137355
2.81637e-05
-2.21428e-06
2.55647e-05
2.55783e-05
3.98598e-05
3.16901e-05
4.63426e-05
0.00011031
0.000341935
0.000213533
0.00116832
0.000128953
5.75508e-05
2.42813e-05
5.9431e-06
-6.76279e-06
-2.45391e-06
-3.06406e-06
7.60945e-06
4.58233e-06
3.32979e-06
1.4024e-05
1.61056e-05
1.2606e-05
-4.92159e-06
-1.08745e-05
1.63886e-07
-1.32267e-06
-3.8528e-06
3.34151e-06
6.6109e-06
1.1574e-05
1.87665e-05
2.42093e-05
3.65636e-05
2.95882e-05
3.63848e-05
6.93846e-05
5.92849e-05
4.08085e-05
0.000100512
0.000251959
8.80556e-05
9.60735e-05
0.00349757
-0.000617546
0.000378613
7.80995e-05
0.000273266
0.00746379
-0.000299931
-0.00108522
0.00598148
0.00203641
-0.0260968
-0.00949785
-0.016768
0.0164518
-0.0116734
-0.0125251
0.0148506
-0.0179111
-0.000972415
-0.00134155
-0.0168083
0.0150173
-0.000143251
-0.000752775
-3.97031e-05
0.000289936
0.000395737
0.00633453
0.00218602
-0.0115756
-0.0106305
0.018055
0.00164728
-0.00426463
-0.0013042
0.00710937
0.000186884
-0.00826971
-0.00537592
0.00540531
-1.84604e-05
-0.00860485
-0.00591287
0.00473946
-4.5484e-05
0.00754118
0.00731379
0.00042547
0.0101283
-0.00989781
7.64428e-05
-0.00797831
-5.89579e-05
-0.000145732
-2.18917e-05
6.98958e-06
1.65423e-05
1.41878e-05
9.82832e-06
6.16955e-06
3.21147e-06
-2.14717e-06
-8.33277e-06
0.000148881
-0.00248876
0.00301753
0.000229473
-0.0038301
0.0046865
0.00713763
-0.00843933
0.0105507
-0.0124005
-0.000159098
-0.00816921
0.000142443
0.00693736
-0.000135682
-0.00545062
6.22229e-05
0.00461297
-0.000404293
-0.000280518
-0.00421562
-0.000170839
0.00491015
-0.00547732
3.7412e-05
-0.0108207
-2.01128e-05
0.0129153
-0.0112829
2.49004e-05
-0.0134577
2.90927e-05
-0.0155791
-2.70397e-05
-0.0178503
-5.58697e-05
0.0202299
-0.021009
-1.28271e-05
0.0228853
-5.49306e-05
-0.0225137
0.0224367
-6.90767e-05
-0.0204674
0.0206936
-0.0227265
-1.32494e-05
2.23646e-05
0.000117937
8.616e-05
3.92875e-05
1.41459e-05
2.64011e-06
-3.84594e-06
-6.72935e-05
-8.71843e-05
-0.000178537
-0.000224124
-0.000209152
-0.000250405
-0.00580286
0.00692793
0.000470185
-0.00855233
0.0097385
0.0149821
-0.0176932
0.0203503
-0.0241173
0.000413515
-0.0182414
0.00176055
0.0140444
-0.000106534
-0.0121182
0.000455176
0.0101072
-0.000746635
-0.000350584
-0.00872531
-8.16451e-05
0.0104057
-0.011286
0.000124637
-0.0206954
8.81398e-05
0.0238694
-0.020429
-6.26634e-05
0.0227064
0.000162068
-0.0258411
0.0151486
-1.20837e-05
-0.0154374
0.013454
-0.0170075
0.000530601
-0.00294609
-0.00146746
-0.00246062
-0.0041228
0.0177469
-0.0278886
0.00595036
-0.00630665
-0.00300611
-0.00171964
-0.0011266
-0.000783144
-0.000540022
-0.000309122
0.000132715
0.00242404
0.00114454
-0.000592429
0.000401967
0.000176759
0.00141431
-0.00124317
0.00124032
-7.5462e-05
-0.000819022
3.50401e-05
0.00158919
-0.00152018
-6.90996e-06
-0.00174118
1.37162e-06
-0.0021024
-4.7791e-07
-0.00264455
1.55381e-05
0.00330255
-0.00337682
-6.02779e-06
-0.00405947
7.74502e-05
0.00503873
2.13043e-05
9.70735e-06
0.00427992
1.48285e-05
0.00274096
-2.76789e-06
-6.34932e-06
-1.95997e-05
-6.91411e-05
6.76843e-06
0.000818151
5.31345e-05
5.36311e-05
0.000288202
0.000507984
-0.00089455
-5.61416e-05
-0.00151337
1.11385e-05
-0.00309939
-2.66135e-05
0.00378801
-0.00334076
3.53581e-06
-0.00423291
5.4173e-06
-0.00516256
2.85841e-06
-0.00634471
1.46168e-05
0.00773899
-0.0079398
-1.70394e-05
0.00962672
-5.15931e-06
4.95962e-06
0.00653656
-1.46235e-07
2.05967e-05
8.73817e-06
-5.88858e-06
0.00267676
-2.11894e-05
0.00172073
0.000106216
-3.55628e-05
0.00147837
-9.22181e-06
8.38091e-05
-0.000157128
0.00191346
-9.89452e-05
-0.000170529
-0.00275844
-0.000135205
-0.00362953
1.72157e-05
-0.00734041
-2.97192e-05
0.0088837
-0.00780578
1.95089e-05
-0.00952968
1.77366e-05
-0.0112543
-3.92866e-06
-0.0132371
-1.26334e-05
0.0154534
-0.015957
-5.07202e-05
0.0182656
-3.61218e-05
-5.05622e-06
1.29902e-05
1.80873e-05
3.29047e-05
2.71619e-05
2.22604e-05
1.67565e-05
1.30023e-05
1.33888e-05
1.7306e-05
1.09426e-05
0.000127412
0.000203054
0.000288177
9.84784e-06
3.50299e-05
2.52308e-05
2.11156e-05
1.56609e-05
-1.94318e-06
7.49922e-06
-0.000133312
-0.00207259
5.38654e-05
-0.00202765
0.00278195
0.000123809
-0.00328215
-0.00336101
0.0028341
0.00265038
0.000120424
-0.00313423
-0.00358439
0.0030042
-0.00219403
5.01156e-05
-0.00196055
0.001788
0.00188079
0.00185432
0.00181
5.4336e-05
-0.00215622
-0.00200488
-0.000133345
0.00269603
0.000124907
-0.00351883
-0.00321211
-0.000210628
0.00410639
0.000240257
-0.00548689
-0.00498134
-0.00511227
-0.00523751
0.000243485
0.00424529
0.00433256
-0.000209485
0.00402968
0.000236989
-0.00485785
-0.00559107
0.00460616
-0.000216428
-0.0029547
-0.00442295
8.14924e-05
0.00243219
-0.000140033
-0.00187178
-0.00274997
3.51157e-05
0.00168204
0.00199433
-0.00122133
0.000111153
-0.00118537
-0.000144734
-0.0012044
0.000110498
-0.00118337
-0.000144576
-0.00120638
0.000114349
-0.00120379
0.00196925
0.00169929
-0.000151571
-5.72062e-05
0.000161106
-0.000757605
-0.000822424
-0.000795598
-0.00088504
-0.000842108
-0.000849145
-0.000852773
-0.000772651
-0.0011795
-0.000877081
-0.000799531
-0.000820788
-0.000552339
-0.000225614
-0.000284459
0.000522314
-0.000587114
0.00146334
0.00148024
0.00146953
0.00147245
0.00152722
0.00141705
-0.000565239
0.000455151
-0.000224133
-0.000552348
-0.00028597
0.000543439
-8.65455e-06
6.0718e-05
6.16663e-05
0.000130149
0.000206795
-9.86388e-06
-0.0003046
0.00645987
0.000379689
-0.00761645
-0.00780692
-0.00721892
-0.00833746
0.000365589
0.00600733
0.00688622
-0.000311641
-0.00454491
-0.00684215
0.000169887
0.00370299
0.00554919
-4.75715e-05
0.000520764
-0.000814102
9.55888e-05
0.000801209
-0.00121779
0.000139408
0.00121091
-0.00172777
0.000248412
0.00194533
-0.00217306
0.00075675
0.00387511
0.000716642
0.0019692
-0.000512913
0.00106451
-0.000567238
0.000752714
-0.000444376
0.00055199
-0.000322688
0.000371477
4.93324e-05
-0.000542374
0.00360985
-1.98829e-05
0.00031482
-0.000433735
-1.74271e-05
0.000107592
-0.000258303
-0.00035176
0.000121622
2.92442e-05
-0.00162959
0.000111343
-0.00113387
-0.000152216
-5.49004e-05
0.000177139
-0.00060416
-0.000939834
-0.000934662
-0.000779745
-0.000256015
-0.000574911
-0.000218718
-0.000408531
-0.00130933
0.000207589
0.0018447
0.00141062
0.00153724
-0.000564331
-0.00123135
-0.000754781
0.000165139
0.000543762
0.000522211
0.000767682
0.00103216
0.00135413
0.000266877
-0.0067276
-0.0101971
0.00833192
0.00554663
-0.000476618
-0.000319187
-0.000179266
-0.000155206
0.000740994
0.00094339
0.00118597
-0.000648684
-0.000422619
0.00989237
0.000511062
-0.0102678
-0.0119257
-0.00951232
-0.0146927
0.000368952
0.0080507
0.0120694
-6.03499e-05
0.000128096
6.33545e-05
4.10743e-05
7.56994e-05
0.000134359
-0.0131295
0.0117496
-0.0138107
2.28616e-05
0.00028465
0.000194309
0.000129608
3.69167e-05
-3.8298e-06
0.0109567
4.05795e-05
4.44097e-06
0.0152241
0.000238248
-2.73973e-06
0.00037733
0.000458863
-7.52219e-05
1.19702e-05
3.77756e-05
1.67464e-05
2.58311e-05
-2.28976e-05
2.83079e-05
2.56975e-05
4.57906e-05
8.70411e-06
3.739e-05
3.31382e-05
1.42996e-05
1.70457e-06
2.84428e-06
2.19717e-06
1.4628e-05
0.000335619
0.000565423
0.000388989
0.000312164
0.000315378
0.000350011
0.000176656
0.000176002
4.51518e-05
0.00011692
0.00133511
0.000237586
0.000464402
0.000458725
0.000584972
0.000590641
0.000677957
0.000600425
0.000607565
0.00083695
0.000741027
-0.0121438
0.0129755
0.000950825
-0.0160838
0.000643689
0.000434384
-0.00270005
-0.00364473
-0.0219277
-0.0231377
-0.0384303
0.00971369
0.00324986
0.0182247
-0.00659456
0.0104488
-0.00115797
-0.0117841
0.0106776
-0.000247367
0.00743271
-0.000265366
0.0100415
-0.0110405
-0.000900829
-0.000279576
-0.000338038
0.000139379
-0.00118855
0.00777114
-0.000342026
0.000425767
0.000249014
0.000129267
0.000145746
7.31758e-05
6.57397e-05
-0.000145218
-0.000153077
-5.93065e-05
0.000124138
0.000791717
0.000117268
-4.91324e-05
-9.27509e-05
0.00660125
-0.00798296
7.64768e-05
-0.0153215
1.61946e-05
0.0180393
-0.0155952
1.28971e-05
-0.0181066
2.97503e-05
0.0179123
-5.25412e-06
8.99333e-06
1.87169e-05
3.84604e-05
8.87194e-05
0.000661332
0.000133862
4.66201e-05
2.22268e-05
9.03585e-06
8.87197e-06
8.00097e-06
5.51938e-06
3.28251e-06
0.00267483
5.58613e-06
0.00335355
2.63227e-06
0.00211605
0.00170132
5.57451e-06
0.00146257
0.000815705
2.14332e-05
3.47385e-06
-1.25402e-06
9.25915e-06
5.20423e-06
0.00418669
9.21256e-05
-0.000239605
0.00324352
-0.000154473
0.000123938
-0.000325427
0.00447337
-0.000190919
-0.000354161
-0.0061922
-0.000169546
0.00726261
-0.000421451
-0.00021821
0.000244835
0.000174978
1.84627e-05
0.00640906
1.45475e-05
0.00640596
3.21094e-05
4.67163e-05
0.0094671
2.40015e-05
0.0114144
4.0074e-05
0.000113659
0.0134172
-0.000602768
0.00935572
-0.000392241
-0.000455582
-0.0121175
0.000158565
0.0125727
-0.00115063
0.000261204
-0.000283195
-0.00220374
-0.0057221
-2.39923e-05
-0.000887766
-0.000377683
0.000237073
0.000235781
0.0181276
2.91193e-05
-2.55265e-05
-6.70923e-05
-7.00447e-05
-0.000340688
-1.5152e-05
4.73916e-05
3.87687e-05
0.0158011
0.0133305
-1.13425e-05
-1.33895e-06
-4.10016e-05
-0.000101319
-0.000133492
-0.000585162
-0.000199278
-0.000186269
-8.78245e-05
-3.03013e-05
0.0135842
-3.47922e-05
3.80104e-06
1.4315e-05
0.000271477
0.000179008
9.1422e-05
-6.71638e-05
-1.71104e-05
0.000372805
0.000486668
0.000661139
-7.53728e-05
0.00027975
0.0002598
-0.000488601
0.00234951
0.00528118
-0.00361739
0.023942
0.00183215
0.000953203
0.000115471
0.000969057
0.00127279
0.00115375
0.000932601
0.000733202
0.000537002
0.000549113
0.000169898
-3.8284e-05
-3.91168e-05
-0.00117931
-0.000587435
-0.0012315
-0.000607417
0.000171817
0.00051332
-0.00018203
-0.000140122
0.00246975
0.00295725
0.000127762
7.10133e-06
1.24405e-05
1.46369e-05
1.30577e-05
1.51138e-05
1.57745e-05
-5.00389e-05
0.000525693
0.00149107
9.52768e-05
5.85783e-05
7.89709e-06
-3.0006e-06
1.4053e-05
1.41457e-05
1.59448e-05
1.74365e-05
-1.25722e-05
0.000201788
0.000284311
0.000293504
0.000384606
-6.21078e-05
-0.000557821
-0.0111632
0.000547139
-0.010864
0.0122358
0.000805216
-0.014851
-0.0153587
0.0125788
0.0117768
0.000709453
-0.0139922
-0.0164193
0.0134793
-0.000566361
0.0112553
0.0167296
2.89468e-05
7.78053e-05
-0.000854682
0.00173166
0.00212956
0.00247595
0.00540462
0.0064416
0.0131837
0.0309116
0.00367681
0.0161663
0.0239661
-0.00199875
-0.00116761
0.00130121
0.00138975
-0.000778218
-0.000587933
0.00862835
0.00925256
0.00904325
0.00877278
0.000538973
-0.0116579
-0.0106053
-0.000567501
0.0119726
0.000807519
-0.0159417
-0.0146401
-0.000769432
0.0153331
0.0163471
0.0145216
-0.000745297
-0.000153496
-0.000213784
-1.922e-05
2.24965e-05
9.85969e-05
2.30151e-05
2.26127e-05
-3.29737e-05
-1.30441e-05
-0.000216514
0.00217747
-0.000245353
-0.000149559
-0.000339014
-0.000298853
-0.000186174
-0.000316347
-0.000143456
0.0058526
-0.000174604
0.000108198
2.55263e-05
8.68958e-06
0.00025055
0.000217982
-0.00259749
0.0132106
-0.00676139
-0.0240438
-0.0283137
0.00241033
-0.013444
0.00569408
0.00184062
-0.00833283
-0.00923832
-0.000924361
-0.00136318
0.00891217
0.00825339
-0.00082824
-0.00810277
-0.000171598
0.0080386
-2.59639e-05
8.50808e-05
-2.35447e-06
8.08735e-05
0.000280413
0.000291841
0.000186703
4.63051e-05
3.42755e-05
-6.00817e-05
-5.49931e-05
2.8615e-06
-7.49144e-05
-2.93401e-05
-1.13133e-05
0.000372508
0.000465965
0.000468677
-0.000194478
0.000561523
0.000535136
-0.000348253
0.021334
-0.00124625
0.00132997
-0.0236709
0.000520261
0.000293973
0.00297921
0.000357992
0.000616715
0.00196189
-0.000156611
-2.89349e-05
-0.000145145
0.000572413
0.0051872
-0.000345236
-0.000228238
-0.000137813
0.00010504
-0.0142533
0.0163497
-0.000602919
7.71362e-06
-0.000757872
-0.00173555
-0.00193859
-0.000359538
-0.000176442
0.00625257
-0.000196411
-0.000209699
-0.000399147
-7.64604e-05
-0.000246983
0.00555663
-0.000370905
-0.000169348
0.000581984