/*--------------------------------*- C++ -*----------------------------------*\
| =========                 |                                                 |
| \\      /  F ield         | OpenFOAM: The Open Source CFD Toolbox           |
|  \\    /   O peration     | Version:  2306                                  |
|   \\  /    A nd           | Website:  www.openfoam.com                      |
|    \\/     M anipulation  |                                                 |
\*---------------------------------------------------------------------------*/
FoamFile
{
    version     2.0;
    format      ascii;
    arch        "LSB;label=32;scalar=64";
    class       volVectorField;
    location    "0.9";
    object      flux;
}
// * * * * * * * * * * * * * * * * * * * * * * * * * * * * * * * * * * * * * //

dimensions      [0 1 -1 1 0 0 0];

internalField   nonuniform List<vector> 
2658
(
(9.74671e-07 9.53177e-07 -8.03184e-06)
(1.44009e-06 5.59933e-07 -7.62329e-06)
(4.65128e-07 1.70569e-07 -4.85965e-06)
(-4.85178e-09 -8.06559e-09 -4.3615e-06)
(-1.66511e-06 -1.63896e-06 -5.67676e-06)
(-1.40276e-06 1.99622e-06 -5.79455e-06)
(1.32214e-06 -1.54432e-06 -4.76445e-06)
(1.31048e-06 1.30354e-06 -4.61741e-06)
(-1.54353e-08 6.23378e-10 -4.3579e-06)
(1.98387e-06 -1.42186e-06 -5.7789e-06)
(-1.43565e-06 4.18802e-07 -6.24557e-06)
(-1.11071e-06 -3.73485e-06 -5.26663e-06)
(7.98631e-07 2.37205e-06 -7.3113e-06)
(9.20103e-07 2.40811e-06 -6.92866e-06)
(6.9472e-07 1.97011e-06 -7.04486e-06)
(-4.15214e-08 2.01338e-06 -7.2328e-06)
(-2.98415e-08 2.19022e-06 -7.08142e-06)
(-2.51643e-08 1.9845e-06 -7.21739e-06)
(-7.57855e-07 2.01564e-06 -7.02987e-06)
(-9.98585e-07 2.37851e-06 -6.83427e-06)
(-9.76566e-07 2.30069e-06 -7.18631e-06)
(-2.26598e-06 2.02871e-06 -6.4754e-06)
(-2.65928e-06 6.82434e-07 -7.35377e-06)
(1.95062e-06 -4.15876e-07 -5.40114e-06)
(-8.02818e-07 7.07216e-07 -8.56013e-06)
(-1.0729e-06 2.18689e-06 -7.18287e-06)
(-2.30454e-06 -4.62532e-07 -6.49083e-06)
(-3.1061e-07 1.3892e-07 -7.48523e-06)
(-1.68636e-06 1.78334e-06 -7.73272e-06)
(-1.84566e-06 -9.34169e-11 -6.49228e-06)
(-1.68634e-06 -1.78338e-06 -7.73265e-06)
(-2.30459e-06 4.6254e-07 -6.49082e-06)
(-1.07297e-06 -2.18701e-06 -7.1828e-06)
(-2.65942e-06 -6.82422e-07 -7.35367e-06)
(-8.02768e-07 -7.07194e-07 -8.56012e-06)
(1.9506e-06 4.1593e-07 -5.40104e-06)
(-9.21979e-07 -6.68861e-08 -6.65874e-06)
(4.82472e-07 1.90668e-07 -9.84488e-06)
(-2.26563e-06 -2.02932e-06 -6.47532e-06)
(-9.76835e-07 -2.30083e-06 -7.18649e-06)
(-9.98558e-07 -2.37868e-06 -6.83436e-06)
(-7.57799e-07 -2.01573e-06 -7.02988e-06)
(-2.53059e-08 -1.98436e-06 -7.21732e-06)
(7.16828e-08 9.61506e-07 -1.00584e-05)
(-1.16235e-06 -8.17133e-08 -6.02951e-06)
(1.08561e-06 -1.2605e-08 -5.96513e-06)
(-1.43562e-06 -4.18832e-07 -6.24559e-06)
(-6.05119e-08 1.00197e-06 -1.00559e-05)
(-4.17504e-08 -2.01374e-06 -7.2329e-06)
(6.94729e-07 -1.97014e-06 -7.0449e-06)
(9.20143e-07 -2.40794e-06 -6.9286e-06)
(7.98605e-07 -2.37206e-06 -7.31137e-06)
(2.15067e-06 -2.12938e-06 -6.55423e-06)
(-4.41493e-07 4.29075e-07 -1.02356e-05)
(2.38729e-06 -7.9684e-07 -7.31804e-06)
(1.97793e-06 -7.14056e-07 -7.05237e-06)
(-1.01631e-06 5.41583e-08 -1.00551e-05)
(3.1746e-08 -1.10034e-06 -5.99126e-06)
(-3.50204e-06 -1.83218e-11 -5.46686e-06)
(1.99066e-06 -2.33341e-09 -7.2246e-06)
(-1.01626e-06 -5.41364e-08 -1.00552e-05)
(1.97798e-06 7.1402e-07 -7.05248e-06)
(2.38727e-06 7.96899e-07 -7.31811e-06)
(-4.41423e-07 -4.29127e-07 -1.02356e-05)
(4.01003e-07 4.05042e-07 -6.27833e-06)
(-3.73926e-06 -1.07901e-06 -5.27703e-06)
(3.92286e-07 -1.42769e-06 -6.23018e-06)
(-7.80972e-08 -7.46754e-08 -5.3762e-06)
(-1.05406e-06 -2.21268e-06 -5.72264e-06)
(-1.05418e-06 2.21269e-06 -5.72251e-06)
(-1.3678e-08 1.90459e-11 -4.41279e-06)
(9.44669e-07 1.69474e-06 -4.66035e-06)
(-9.80477e-08 -2.62731e-08 -3.41052e-06)
(-9.21843e-07 1.25304e-06 -3.71134e-06)
(4.34481e-08 4.37352e-09 -2.68665e-06)
(-9.75849e-07 -9.56119e-07 -3.6774e-06)
(1.24086e-06 -9.42713e-07 -3.7004e-06)
(2.81334e-10 4.965e-08 -2.68269e-06)
(-9.47778e-07 8.06071e-07 -2.87319e-06)
(1.05057e-06 5.24541e-07 -2.8094e-06)
(-1.43178e-06 -6.34102e-07 -3.70052e-06)
(-3.83831e-08 -8.62609e-08 -3.40856e-06)
(1.69997e-06 9.00786e-07 -4.6357e-06)
(-1.55081e-06 1.36385e-06 -4.77948e-06)
(-3.03285e-08 -2.02201e-08 -4.11083e-06)
(-1.57078e-08 -9.12828e-09 -2.52313e-06)
(1.15554e-09 4.90504e-09 -1.42526e-06)
(4.52089e-09 6.63247e-09 -7.34848e-07)
(3.43826e-09 4.68403e-09 -3.45776e-07)
(1.91138e-09 2.69974e-09 -1.48794e-07)
(8.66103e-10 1.36143e-09 -5.91333e-08)
(-5.89704e-10 -1.04372e-09 -2.92861e-08)
(4.5514e-10 4.74015e-10 -1.93148e-08)
(-4.21793e-09 2.96887e-09 -1.66527e-08)
(2.54302e-09 -1.07119e-09 -1.59342e-08)
(-6.38692e-10 -4.0733e-09 -1.98635e-08)
(-3.147e-09 -3.26029e-10 -1.56101e-08)
(2.85472e-12 -3.04457e-09 -2.2819e-08)
(3.11663e-09 -3.86307e-10 -1.55959e-08)
(-2.61065e-09 -9.89069e-10 -1.57182e-08)
(1.34636e-09 -3.28159e-09 -2.28335e-08)
(3.5066e-09 -7.5249e-10 -1.59098e-08)
(3.65541e-09 -3.76471e-09 -1.92309e-08)
(2.28632e-09 -1.48139e-09 -1.89823e-08)
(2.40903e-09 -1.34025e-09 -1.61804e-08)
(-5.54529e-09 3.13005e-09 -1.95629e-08)
(-8.58365e-10 -1.09132e-09 -1.46181e-08)
(-5.98713e-10 -3.1375e-10 -2.96369e-08)
(-4.53061e-10 5.13218e-10 -1.52293e-08)
(1.4109e-09 -3.10857e-09 -2.0613e-08)
(3.00244e-09 1.02661e-09 -1.89077e-08)
(1.11407e-09 -1.34651e-09 -1.56112e-08)
(2.32406e-09 1.59816e-14 -2.08439e-08)
(1.11379e-09 1.34665e-09 -1.56107e-08)
(3.0024e-09 -1.02694e-09 -1.8908e-08)
(1.41101e-09 3.10861e-09 -2.06141e-08)
(2.40965e-09 1.34015e-09 -1.61815e-08)
(-5.54557e-09 -3.13071e-09 -1.9563e-08)
(3.65612e-09 3.7642e-09 -1.9231e-08)
(2.28705e-09 1.48096e-09 -1.89823e-08)
(3.50613e-09 7.51204e-10 -1.59077e-08)
(1.34542e-09 3.28153e-09 -2.28312e-08)
(-2.61099e-09 9.88922e-10 -1.57178e-08)
(3.11663e-09 3.85962e-10 -1.55952e-08)
(-5.53496e-09 -2.50528e-09 -1.74642e-08)
(5.43793e-09 -2.40365e-09 -1.75406e-08)
(-4.21846e-09 -2.96939e-09 -1.66522e-08)
(-6.391e-10 4.07397e-09 -1.98647e-08)
(-3.14683e-09 3.26636e-10 -1.56101e-08)
(2.54251e-09 1.07155e-09 -1.59348e-08)
(-1.41316e-09 3.25358e-09 -2.30507e-08)
(-3.49793e-09 6.87281e-10 -1.59422e-08)
(-2.20264e-09 1.51591e-09 -1.9064e-08)
(-2.0042e-09 1.54476e-09 -1.58773e-08)
(-1.41949e-09 2.96093e-09 -2.07126e-08)
(5.8082e-11 -1.45502e-09 -1.5937e-08)
(-8.07843e-10 2.62514e-10 -1.58794e-08)
(-5.3511e-09 3.60535e-10 -2.10559e-08)
(3.43611e-09 -3.7223e-09 -1.72539e-08)
(3.43454e-09 3.72359e-09 -1.72545e-08)
(-8.07798e-10 -2.62488e-10 -1.58786e-08)
(5.71358e-11 1.45541e-09 -1.59368e-08)
(1.20702e-09 -7.79783e-10 -1.68096e-08)
(-1.51398e-09 -7.95876e-10 -1.71784e-08)
(-1.72367e-09 -7.40716e-12 -2.14028e-08)
(-1.51061e-09 7.93622e-10 -1.71707e-08)
(6.06158e-10 1.72152e-12 -2.09078e-08)
(6.37669e-10 2.26873e-12 -2.21176e-08)
(-3.12849e-09 -1.65243e-09 -1.44907e-08)
(-3.2527e-09 1.62803e-09 -1.45602e-08)
(-2.67412e-09 4.7411e-12 -1.33305e-08)
(-3.38683e-09 1.40309e-10 -1.9589e-08)
(-3.34689e-09 9.59202e-10 -2.10323e-08)
(-3.43129e-09 -1.11151e-09 -1.21212e-08)
(-2.96384e-09 4.19473e-09 -1.72719e-08)
(-5.01676e-09 9.14724e-10 -1.67844e-08)
(-4.38487e-09 3.98221e-09 -1.53253e-08)
(-1.91615e-09 4.78063e-09 -1.64896e-08)
(-2.33892e-09 5.13937e-09 -1.50081e-08)
(-1.7589e-09 3.91779e-09 -1.63229e-08)
(8.78989e-11 3.94959e-09 -1.67708e-08)
(-2.28058e-11 4.73367e-09 -1.52138e-08)
(-1.88145e-10 3.97106e-09 -1.67714e-08)
(1.56915e-09 3.93476e-09 -1.61849e-08)
(2.25223e-09 5.21194e-09 -1.477e-08)
(1.84096e-09 4.81017e-09 -1.62322e-08)
(4.29044e-09 4.11588e-09 -1.50252e-08)
(5.768e-09 1.27415e-09 -1.73407e-08)
(-1.33185e-09 1.81523e-10 -2.90195e-08)
(6.42164e-09 2.09818e-09 -3.1508e-08)
(-1.87178e-08 -1.21813e-08 -5.76445e-08)
(3.06511e-08 2.19036e-08 -9.71793e-08)
(-4.69977e-08 -3.29246e-08 -1.55761e-07)
(7.67046e-08 5.37192e-08 -2.43353e-07)
(-1.12839e-07 -8.19348e-08 -3.74307e-07)
(1.7583e-07 1.21777e-07 -5.59013e-07)
(-2.48629e-07 -1.84284e-07 -8.1979e-07)
(3.68227e-07 2.52603e-07 -1.17089e-06)
(-5.00245e-07 -3.76179e-07 -1.63642e-06)
(7.05731e-07 4.77486e-07 -2.23576e-06)
(-9.17644e-07 -7.00733e-07 -2.97694e-06)
(1.24446e-06 8.22403e-07 -3.88507e-06)
(-1.53586e-06 -1.20294e-06 -4.94042e-06)
(2.06754e-06 1.28866e-06 -6.00476e-06)
(-2.05575e-06 1.27246e-06 -5.80026e-06)
(2.18496e-06 1.06975e-06 -5.68803e-06)
(-2.25879e-06 1.01749e-06 -5.74769e-06)
(1.98381e-06 1.42192e-06 -5.77881e-06)
(-1.66519e-06 1.63891e-06 -5.67669e-06)
(-4.85929e-09 8.04641e-09 -4.36143e-06)
(-1.40268e-06 -1.99627e-06 -5.79461e-06)
(3.92208e-07 1.4277e-06 -6.23007e-06)
(-3.73917e-06 1.07892e-06 -5.27703e-06)
(4.01007e-07 -4.05056e-07 -6.27832e-06)
(-1.11073e-06 3.73479e-06 -5.26663e-06)
(4.69517e-07 -4.76946e-07 -8.49357e-06)
(-3.03359e-08 2.01927e-08 -4.11082e-06)
(-1.57084e-08 9.11015e-09 -2.52312e-06)
(1.14573e-09 -4.90954e-09 -1.42525e-06)
(4.51465e-09 -6.63985e-09 -7.3484e-07)
(3.44062e-09 -4.68963e-09 -3.45771e-07)
(1.9129e-09 -2.69913e-09 -1.4879e-07)
(8.66489e-10 -1.36144e-09 -5.91315e-08)
(-5.89794e-10 1.04385e-09 -2.92861e-08)
(4.55022e-10 -4.73843e-10 -1.9315e-08)
(1.24496e-10 -7.26158e-11 -1.42339e-08)
(-1.57652e-09 -1.47417e-09 -1.58665e-08)
(-3.00895e-10 8.39704e-10 -2.94374e-08)
(1.97453e-09 -1.84022e-09 -1.6278e-08)
(1.97447e-09 1.84006e-09 -1.62782e-08)
(-1.57668e-09 1.47454e-09 -1.58669e-08)
(1.2487e-10 7.22709e-11 -1.42341e-08)
(-2.99949e-10 -8.40267e-10 -2.94377e-08)
(4.7489e-10 -4.71791e-10 -1.47694e-08)
(5.43763e-09 2.40368e-09 -1.75404e-08)
(-5.53541e-09 2.50501e-09 -1.74644e-08)
(4.15449e-10 -4.11606e-09 -1.97513e-08)
(4.20629e-09 2.84313e-09 -1.66558e-08)
(-3.00424e-10 6.11607e-10 -1.92248e-08)
(-6.62797e-11 4.42986e-11 -1.42242e-08)
(-5.6349e-10 -4.6908e-10 -1.47472e-08)
(-3.58432e-11 3.78962e-10 -1.98299e-08)
(-1.09681e-11 -4.23943e-11 -2.98705e-08)
(5.09593e-10 1.17759e-10 -2.93778e-08)
(4.88759e-10 -1.44897e-14 -3.15284e-08)
(5.09576e-10 -1.18117e-10 -2.93771e-08)
(-3.01327e-10 -6.12731e-10 -1.92247e-08)
(-8.57932e-10 1.09104e-09 -1.46178e-08)
(-2.6397e-09 -2.35468e-09 -1.62153e-08)
(-5.98067e-10 3.14366e-10 -2.96369e-08)
(5.57251e-10 -2.50081e-09 -1.68646e-08)
(5.57593e-10 2.50186e-09 -1.68647e-08)
(-2.64003e-09 2.35519e-09 -1.62153e-08)
(-7.59076e-11 2.84275e-13 -2.07054e-08)
(1.66486e-09 -1.62288e-09 -1.5942e-08)
(-2.08236e-09 -1.83431e-09 -1.61889e-08)
(-2.08318e-09 1.83509e-09 -1.6189e-08)
(2.94795e-11 -8.1673e-10 -2.92775e-08)
(1.66567e-09 1.6238e-09 -1.59421e-08)
(-3.1281e-11 -2.64941e-10 -1.84108e-08)
(-2.92325e-10 1.90922e-13 -1.60187e-08)
(-3.89853e-10 -1.07515e-09 -1.57283e-08)
(-3.77229e-10 -5.02025e-10 -1.44698e-08)
(1.70599e-09 1.51743e-09 -1.68566e-08)
(-3.73294e-10 -3.66167e-10 -1.56919e-08)
(-6.77065e-11 2.50833e-13 -1.64493e-08)
(-2.73548e-09 1.98646e-13 -2.56842e-08)
(-2.13593e-10 -8.40069e-14 -2.81725e-08)
(-1.46368e-09 -3.03283e-09 -2.02522e-08)
(2.58969e-09 1.95412e-09 -2.49985e-08)
(2.19022e-09 4.78602e-09 -1.63197e-08)
(4.57413e-09 -1.24847e-09 -1.35293e-08)
(3.2427e-09 3.74169e-09 -1.6974e-08)
(-1.05176e-08 -5.83603e-09 -2.19155e-08)
(9.62878e-09 1.0185e-08 -4.26686e-08)
(-2.12691e-08 -1.43167e-08 -6.31563e-08)
(-2.1268e-08 1.43157e-08 -6.31564e-08)
(-3.55724e-10 2.12219e-09 -5.14724e-08)
(-2.85936e-08 2.25932e-08 -1.02888e-07)
(7.33618e-10 1.20951e-09 -8.11843e-08)
(4.31999e-08 -3.80827e-08 -1.63183e-07)
(-6.93163e-08 5.76018e-08 -2.56735e-07)
(7.43574e-10 5.37789e-10 -1.9855e-07)
(1.04089e-07 -9.02065e-08 -3.89747e-07)
(-1.58401e-07 1.34204e-07 -5.8625e-07)
(-1.25256e-10 -1.57728e-09 -4.45039e-07)
(2.28894e-07 -1.96444e-07 -8.52724e-07)
(-3.31708e-07 2.84299e-07 -1.22288e-06)
(-3.29649e-09 -7.85718e-09 -9.10463e-07)
(4.59455e-07 -3.90834e-07 -1.70284e-06)
(-6.31395e-07 5.48168e-07 -2.3259e-06)
(-1.18506e-08 -2.74507e-08 -1.69847e-06)
(8.46626e-07 -7.08066e-07 -3.10055e-06)
(-1.08582e-06 9.65375e-07 -4.03231e-06)
(-2.66189e-08 -8.82309e-08 -2.88653e-06)
(1.47152e-06 -1.1665e-06 -5.11708e-06)
(-1.64766e-06 1.55428e-06 -6.47009e-06)
(-9.47404e-08 -2.8439e-07 -4.64737e-06)
(2.75982e-06 -1.87477e-06 -7.41845e-06)
(4.60531e-07 -9.05644e-07 -5.26009e-06)
(3.379e-06 -2.06276e-06 -6.88796e-06)
(3.37897e-06 2.06278e-06 -6.88793e-06)
(-3.10554e-07 -1.38856e-07 -7.48511e-06)
(8.06866e-07 -6.06149e-07 -7.65702e-06)
(-2.70614e-07 1.09011e-06 -6.69639e-06)
(1.1133e-06 9.71634e-07 -6.18054e-06)
(6.60785e-08 -1.73131e-11 -9.0304e-06)
(-6.86639e-07 -6.78841e-07 -5.88353e-06)
(-6.86632e-07 6.78834e-07 -5.88358e-06)
(7.65516e-07 7.16067e-07 -5.93338e-06)
(-3.32277e-08 -1.17251e-11 -9.03474e-06)
(-8.891e-07 -8.58545e-07 -6.00785e-06)
(-8.89086e-07 8.58538e-07 -6.00787e-06)
(2.41644e-07 3.53611e-07 -5.73809e-06)
(-2.9712e-07 -1.08501e-11 -8.95943e-06)
(-1.30132e-06 -2.27887e-06 -7.3806e-06)
(-1.30132e-06 2.27883e-06 -7.38057e-06)
(4.80217e-07 -1.47403e-06 -8.85902e-06)
(1.90384e-06 1.21656e-11 -1.26724e-05)
(4.80233e-07 1.47397e-06 -8.85904e-06)
(7.47901e-07 -1.15321e-06 -9.00795e-06)
(2.08487e-06 7.31305e-07 -1.25305e-05)
(8.95423e-07 1.68555e-06 -8.99234e-06)
(1.20062e-06 1.19415e-06 -1.04659e-05)
(1.46406e-06 1.45784e-06 -8.78305e-06)
(-2.26152e-06 -2.24545e-06 -8.57086e-06)
(-1.31175e-06 1.55416e-06 -7.04932e-06)
(1.21603e-06 1.97408e-07 -8.18599e-06)
(8.56999e-07 1.31186e-07 -9.89262e-06)
(-6.69173e-09 1.18059e-08 -9.06667e-06)
(2.41652e-07 -3.5363e-07 -5.73808e-06)
(-1.43048e-07 -1.29263e-07 -5.49798e-06)
(-3.86702e-07 -3.82135e-07 -8.88354e-06)
(1.55274e-06 -1.28542e-06 -7.08395e-06)
(-1.16746e-06 7.42767e-07 -9.01114e-06)
(7.29335e-07 2.05528e-06 -1.25311e-05)
(1.68978e-06 8.89076e-07 -8.99802e-06)
(9.67215e-07 9.65561e-07 -9.95798e-06)
(-5.22215e-07 -5.13705e-07 -9.13491e-06)
(-6.96718e-07 7.7653e-12 -9.22781e-06)
(-5.22186e-07 5.13732e-07 -9.13487e-06)
(-3.86722e-07 3.82137e-07 -8.88354e-06)
(-1.31171e-06 -1.55417e-06 -7.0493e-06)
(-2.26149e-06 2.24541e-06 -8.5709e-06)
(8.95451e-07 -1.6857e-06 -8.99209e-06)
(2.08496e-06 -7.31404e-07 -1.25306e-05)
(7.47957e-07 1.15317e-06 -9.00786e-06)
(1.21604e-06 -1.97468e-07 -8.18609e-06)
(8.57019e-07 -1.31202e-07 -9.89263e-06)
(9.67347e-07 -9.6547e-07 -9.95799e-06)
(1.68965e-06 -8.89141e-07 -8.9984e-06)
(7.29211e-07 -2.05525e-06 -1.25309e-05)
(-1.16749e-06 -7.42806e-07 -9.01126e-06)
(1.55268e-06 1.2854e-06 -7.08393e-06)
(1.87692e-07 -1.22232e-06 -8.17885e-06)
(1.45682e-06 -5.19614e-07 -8.91668e-06)
(-3.3713e-08 -1.89901e-06 -1.26817e-05)
(-1.51253e-06 -4.64628e-07 -8.86929e-06)
(2.27379e-06 1.20775e-06 -7.40721e-06)
(-3.14462e-08 2.93119e-07 -8.97143e-06)
(-3.96532e-07 -2.65298e-07 -5.73011e-06)
(-2.33067e-06 1.31015e-06 -7.38708e-06)
(-3.46168e-08 -2.77949e-07 -8.05089e-06)
(-2.71355e-07 -3.45508e-07 -8.17121e-06)
(1.98232e-08 -2.83181e-08 -4.34151e-06)
(1.48925e-08 -3.14871e-08 -2.67703e-06)
(6.62604e-09 -2.95171e-08 -1.51554e-06)
(3.01476e-09 -2.01903e-08 -7.82385e-07)
(1.32912e-09 -1.1579e-08 -3.68444e-07)
(5.03444e-10 -5.91724e-09 -1.58575e-07)
(1.43352e-10 -2.7824e-09 -6.29821e-08)
(-7.65742e-10 -2.46554e-09 -5.95539e-08)
(1.94998e-08 -1.12071e-08 -5.67319e-08)
(-2.13049e-08 -9.49821e-09 -5.63494e-08)
(2.11008e-08 -8.45252e-09 -5.63757e-08)
(-1.9599e-08 -1.34351e-08 -5.68737e-08)
(2.91704e-08 2.5096e-08 -9.25972e-08)
(-5.01124e-08 -3.7132e-08 -1.50058e-07)
(7.4891e-08 6.19551e-08 -2.31425e-07)
(-1.1946e-07 -9.25819e-08 -3.60188e-07)
(1.73802e-07 1.40534e-07 -5.32164e-07)
(-2.60845e-07 -2.09109e-07 -7.8901e-07)
(3.67172e-07 2.91229e-07 -1.11575e-06)
(-5.20675e-07 -4.29902e-07 -1.57657e-06)
(7.07571e-07 5.49544e-07 -2.13171e-06)
(-9.47706e-07 -8.06073e-07 -2.87318e-06)
(1.24078e-06 9.42764e-07 -3.70031e-06)
(-1.55076e-06 -1.36388e-06 -4.77951e-06)
(-1.54146e-08 -6.81716e-10 -4.35782e-06)
(1.31049e-06 -1.3035e-06 -4.61741e-06)
(1.32196e-06 1.54443e-06 -4.76439e-06)
(9.44843e-07 -1.69478e-06 -4.66046e-06)
(-6.71332e-07 1.40385e-06 -3.69568e-06)
(4.66085e-08 -7.12454e-12 -2.73617e-06)
(-6.71204e-07 -1.40385e-06 -3.69572e-06)
(5.58033e-07 1.04392e-06 -2.82245e-06)
(7.76381e-07 -9.43447e-07 -2.86744e-06)
(7.71528e-07 7.65457e-07 -2.79492e-06)
(-5.53944e-07 -5.41879e-07 -2.0947e-06)
(-5.35637e-07 7.15516e-07 -2.13796e-06)
(3.55268e-08 1.09833e-08 -1.50435e-06)
(4.13691e-07 4.09851e-07 -1.53895e-06)
(9.00943e-09 3.97853e-08 -1.50146e-06)
(7.07655e-07 -5.49497e-07 -2.13178e-06)
(-1.87749e-08 -5.49914e-08 -2.01641e-06)
(-8.15692e-07 -3.65516e-07 -2.12669e-06)
(7.90645e-07 -4.17188e-07 -2.11484e-06)
(-2.51038e-09 4.14219e-08 -1.52956e-06)
(-5.79264e-07 3.20024e-07 -1.55694e-06)
(5.3435e-07 3.49741e-07 -1.55491e-06)
(-7.43623e-07 -4.66471e-07 -2.12567e-06)
(1.77176e-11 -5.91399e-08 -2.01537e-06)
(-1.05343e-06 5.98889e-07 -2.83097e-06)
(-5.18497e-09 4.78923e-08 -2.7247e-06)
(1.38423e-06 -7.0999e-07 -3.6679e-06)
(-1.71256e-06 1.00186e-06 -4.68626e-06)
(-9.60727e-09 -1.22891e-08 -4.40042e-06)
(-2.2588e-06 -1.01748e-06 -5.74769e-06)
(-8.54099e-08 -6.2276e-08 -5.38175e-06)
(1.08562e-06 1.26089e-08 -5.96518e-06)
(-6.05114e-08 -1.00199e-06 -1.00559e-05)
(1.87738e-07 1.22228e-06 -8.17888e-06)
(-2.3307e-06 -1.3102e-06 -7.38702e-06)
(-3.96508e-07 2.65264e-07 -5.73008e-06)
(6.44121e-08 8.12219e-08 -8.17099e-06)
(-3.93374e-08 -2.51956e-08 -5.67505e-06)
(-2.04446e-08 -1.10378e-11 -4.54889e-06)
(-1.76315e-08 -6.48209e-09 -4.28202e-06)
(-9.88622e-09 -1.63327e-08 -2.64903e-06)
(-4.60793e-09 -1.98527e-08 -1.49957e-06)
(-2.05688e-09 -1.47564e-08 -7.73876e-07)
(-9.21198e-10 -8.78474e-09 -3.6425e-07)
(-4.18113e-10 -4.576e-09 -1.56749e-07)
(-1.8787e-10 -2.12686e-09 -6.24071e-08)
(-1.07186e-11 4.22717e-11 -2.98705e-08)
(-3.50164e-11 -3.79044e-10 -1.98293e-08)
(-5.62358e-10 4.68553e-10 -1.47468e-08)
(2.95904e-11 8.16384e-10 -2.92769e-08)
(-6.63817e-11 -4.4385e-11 -1.42238e-08)
(4.20635e-09 -2.84378e-09 -1.66558e-08)
(4.15149e-10 4.1159e-09 -1.97511e-08)
(-1.46224e-10 -1.88115e-09 -3.20342e-08)
(-7.74787e-09 3.45156e-09 -3.10044e-08)
(7.18414e-09 2.32017e-09 -3.10481e-08)
(-7.47356e-09 2.1003e-09 -3.10279e-08)
(7.27153e-09 3.92437e-09 -3.12347e-08)
(-3.77291e-09 2.99501e-09 -2.81149e-08)
(1.04586e-08 -8.69028e-10 -1.8204e-08)
(-4.58624e-09 -8.40079e-09 -3.39416e-08)
(1.28893e-08 1.92507e-08 -5.78367e-08)
(2.03481e-09 -4.10829e-10 -5.99964e-08)
(-2.43805e-08 -3.01308e-08 -9.52742e-08)
(-2.42932e-08 2.38913e-08 -8.8602e-08)
(1.52795e-08 -1.4119e-08 -5.52899e-08)
(8.44797e-10 -2.50506e-09 -5.87883e-08)
(9.25285e-10 -3.4698e-09 -6.41211e-08)
(-7.06745e-10 1.9294e-09 -2.79047e-08)
(-2.44309e-11 1.92233e-09 -2.80231e-08)
(7.28771e-10 1.91387e-09 -2.76733e-08)
(1.72639e-09 1.27812e-09 -2.46375e-08)
(2.69425e-09 1.79968e-09 -2.8482e-08)
(-1.89297e-09 -1.07114e-09 -6.74236e-08)
(-1.19124e-09 -1.87408e-10 -6.31712e-08)
(2.01455e-09 1.79808e-09 -3.94772e-08)
(-9.56046e-10 -3.44585e-09 -6.41052e-08)
(-3.52003e-09 -1.17454e-08 -1.64463e-07)
(-5.07892e-09 -4.07968e-09 -1.64085e-07)
(-5.44223e-09 -3.87698e-09 -1.68607e-07)
(-1.24502e-08 -9.56364e-09 -3.91056e-07)
(-1.28693e-08 -1.19415e-08 -3.88877e-07)
(2.83942e-09 3.0119e-09 -2.60995e-07)
(1.84617e-09 2.07989e-09 -1.05528e-07)
(1.13672e-09 3.25819e-09 -1.01491e-07)
(-3.08549e-08 2.18912e-08 -9.17453e-08)
(3.2983e-08 1.92424e-08 -9.22157e-08)
(-5.51186e-08 -2.68367e-08 -1.48261e-07)
(5.47793e-08 -2.32225e-08 -1.47978e-07)
(-1.05944e-09 4.29909e-09 -9.57014e-08)
(-3.40688e-08 1.74776e-08 -9.21477e-08)
(-1.75226e-10 -2.76487e-09 -6.0303e-08)
(-5.95174e-11 -3.01758e-09 -6.42437e-08)
(-1.02806e-12 -1.13433e-08 -1.64232e-07)
(1.75797e-10 -2.83929e-08 -3.89377e-07)
(-7.93341e-09 -2.86028e-08 -3.89282e-07)
(-1.58776e-08 -6.08231e-08 -8.36861e-07)
(-2.82752e-08 -2.75614e-08 -8.37879e-07)
(-2.58461e-08 -2.04608e-08 -8.30127e-07)
(-4.85741e-08 -3.90089e-08 -1.60945e-06)
(-5.69616e-08 -5.82507e-08 -1.64462e-06)
(3.29386e-09 2.84912e-09 -1.19981e-06)
(3.87638e-09 3.76675e-09 -5.86407e-07)
(4.55842e-09 9.44373e-09 -5.68451e-07)
(-1.83673e-07 1.18628e-07 -5.29528e-07)
(1.95174e-07 1.0766e-07 -5.2855e-07)
(-2.89708e-07 -1.55164e-07 -7.79973e-07)
(2.89363e-07 -1.33676e-07 -7.76585e-07)
(-4.83592e-09 1.84321e-08 -5.27689e-07)
(-2.01093e-07 9.42005e-08 -5.29678e-07)
(1.31823e-07 -5.85891e-08 -3.54867e-07)
(-2.3565e-09 9.33025e-09 -2.34999e-07)
(-8.69879e-08 4.2119e-08 -2.30186e-07)
(-3.4371e-10 -6.4954e-09 -1.54035e-07)
(8.43465e-08 4.76194e-08 -2.29979e-07)
(-1.32233e-07 -6.81165e-08 -3.56092e-07)
(4.18038e-10 9.87717e-09 -2.35225e-07)
(-7.92778e-08 5.27515e-08 -2.29954e-07)
(5.09086e-08 -3.0598e-08 -1.49097e-07)
(2.63972e-10 4.56727e-09 -9.5758e-08)
(5.09991e-11 8.34645e-10 -1.09406e-07)
(-1.9738e-09 -2.09362e-09 -1.05577e-07)
(-2.85895e-08 -2.25896e-08 -1.02887e-07)
(9.79752e-10 3.58528e-10 -4.96613e-08)
(1.64276e-08 1.49777e-08 -6.44213e-08)
(6.80215e-10 -1.40977e-09 -3.17854e-08)
(-1.29857e-08 -8.56887e-09 -3.71466e-08)
(-4.70793e-09 -1.77873e-09 -1.74999e-08)
(3.63024e-09 -9.85288e-10 -3.27018e-08)
(-9.99534e-10 -5.9927e-10 -4.01527e-08)
(-1.06697e-11 6.20398e-10 -4.1362e-08)
(-4.62104e-11 2.31859e-09 -3.7519e-08)
(4.85e-10 2.48604e-09 -3.87878e-08)
(-8.00935e-10 2.3737e-09 -3.88049e-08)
(3.03346e-11 -1.96404e-09 -3.20222e-08)
(-2.1068e-09 1.75807e-09 -4.05061e-08)
(-1.35957e-09 1.30204e-09 -2.48444e-08)
(-6.95933e-11 7.10436e-10 -2.77756e-08)
(4.47434e-09 -9.4351e-10 -6.65758e-08)
(2.78771e-10 -6.03571e-10 -6.22769e-08)
(-2.28926e-09 2.06302e-09 -1.07233e-07)
(-1.78239e-09 3.01006e-09 -1.01414e-07)
(3.88716e-09 -1.18266e-08 -1.64147e-07)
(9.30537e-09 -2.89622e-08 -3.88764e-07)
(1.94088e-08 -6.2043e-08 -8.37214e-07)
(5.12988e-10 -6.14656e-08 -8.38908e-07)
(9.61668e-10 -1.22712e-07 -1.64436e-06)
(-2.93906e-08 -1.18942e-07 -1.63714e-06)
(-5.38589e-08 -2.24253e-07 -2.92272e-06)
(-1.11761e-07 -1.23987e-07 -2.94934e-06)
(-8.3721e-08 -6.85803e-08 -2.84916e-06)
(-1.62905e-07 -1.43364e-07 -4.58987e-06)
(-2.6416e-07 -3.05608e-07 -4.87085e-06)
(-3.57743e-08 -2.76339e-08 -3.81513e-06)
(-3.90287e-09 -4.02393e-09 -2.23988e-06)
(1.07219e-08 1.65768e-08 -2.19299e-06)
(-7.436e-07 4.66467e-07 -2.1256e-06)
(7.90597e-07 4.1723e-07 -2.11477e-06)
(-1.05345e-06 -5.98857e-07 -2.83094e-06)
(1.05058e-06 -5.24454e-07 -2.80935e-06)
(-1.88077e-08 5.49928e-08 -2.01641e-06)
(-8.15637e-07 3.65527e-07 -2.12665e-06)
(5.78777e-07 -2.7713e-07 -1.54845e-06)
(-9.51683e-09 3.31595e-08 -1.08067e-06)
(-4.23654e-07 1.93808e-07 -1.11139e-06)
(-1.24921e-09 -2.54827e-08 -7.81387e-07)
(4.11186e-07 2.22154e-07 -1.10758e-06)
(-5.79263e-07 -3.19999e-07 -1.55692e-06)
(6.0173e-10 3.54559e-08 -1.08083e-06)
(-3.87067e-07 2.45637e-07 -1.11106e-06)
(2.6771e-07 -1.70329e-07 -7.80526e-07)
(5.87225e-10 1.95821e-08 -5.28067e-07)
(2.5109e-10 3.52054e-09 -5.91654e-07)
(1.24453e-10 1.78364e-09 -2.65926e-07)
(-4.16862e-09 -4.68529e-09 -2.55666e-07)
(-6.93126e-08 -5.75937e-08 -2.56728e-07)
(5.86808e-10 5.04536e-10 -1.27523e-07)
(4.31998e-08 3.80816e-08 -1.63176e-07)
(7.349e-10 -1.20962e-09 -8.11827e-08)
(3.47821e-09 -9.41328e-10 -8.3114e-08)
(-5.09238e-08 -3.76994e-08 -1.60564e-07)
(7.31799e-08 6.38953e-08 -2.50801e-07)
(-1.1949e-07 -9.11268e-08 -3.80752e-07)
(-1.19491e-07 9.11295e-08 -3.80748e-07)
(-7.04437e-12 2.35717e-09 -2.99363e-07)
(1.69627e-07 -1.44732e-07 -5.69051e-07)
(4.08007e-09 3.44132e-09 -4.52936e-07)
(-2.59932e-07 2.01179e-07 -8.29249e-07)
(-6.4732e-11 1.92606e-09 -6.39038e-07)
(3.56968e-07 -3.00247e-07 -1.18391e-06)
(2.69688e-09 6.19696e-09 -9.24771e-07)
(-5.15147e-07 4.04312e-07 -1.65e-06)
(3.39429e-10 -3.1632e-09 -1.24573e-06)
(6.85124e-07 -5.66941e-07 -2.24742e-06)
(-8.66472e-09 8.48358e-09 -1.72018e-06)
(-9.16675e-07 7.39161e-07 -2.99469e-06)
(6.53888e-09 -2.87485e-08 -2.21447e-06)
(1.2083e-06 -9.68714e-07 -3.8791e-06)
(-6.61955e-08 1.74731e-09 -2.91054e-06)
(-1.42729e-06 1.22937e-06 -4.96757e-06)
(4.81371e-08 -1.45315e-07 -3.58477e-06)
(2.01655e-06 -1.45601e-06 -5.97996e-06)
(-3.39232e-07 -1.24234e-07 -4.52021e-06)
(-1.72847e-06 1.77185e-06 -7.64574e-06)
(-2.35248e-07 -3.5897e-11 -6.35894e-06)
(-1.72843e-06 -1.77185e-06 -7.64574e-06)
(4.60524e-07 9.05486e-07 -5.26009e-06)
(2.75985e-06 1.87486e-06 -7.4183e-06)
(-9.47172e-08 2.84266e-07 -4.64732e-06)
(-1.64756e-06 -1.55421e-06 -6.47007e-06)
(-6.31721e-08 -1.67397e-08 -3.59706e-06)
(1.47145e-06 1.16645e-06 -5.11698e-06)
(-2.66086e-08 8.8164e-08 -2.88649e-06)
(-1.08581e-06 -9.65326e-07 -4.03227e-06)
(-2.92207e-08 -2.95509e-09 -2.23206e-06)
(8.46656e-07 7.08147e-07 -3.1005e-06)
(-1.1829e-08 2.73976e-08 -1.69847e-06)
(-6.31294e-07 -5.48105e-07 -2.3259e-06)
(-1.15767e-08 -7.0181e-10 -1.25469e-06)
(4.59476e-07 3.90879e-07 -1.70282e-06)
(-3.28072e-09 7.81093e-09 -9.10439e-07)
(-3.3169e-07 -2.84286e-07 -1.22288e-06)
(-3.99482e-09 2.17308e-10 -6.42319e-07)
(2.2889e-07 1.96453e-07 -8.52691e-07)
(-1.14037e-10 1.56294e-09 -4.45028e-07)
(-1.58392e-07 -1.34193e-07 -5.86248e-07)
(-7.20788e-10 5.21309e-10 -2.9968e-07)
(1.04088e-07 9.02104e-08 -3.89731e-07)
(7.49654e-10 -5.35686e-10 -1.98544e-07)
(3.78931e-09 -1.74208e-09 -2.02506e-07)
(-7.29488e-09 -7.67241e-09 -2.68219e-07)
(-3.82161e-09 -3.31974e-09 -1.13556e-07)
(-1.82765e-09 -9.87664e-10 -4.68266e-08)
(2.59297e-09 1.29958e-09 -2.38204e-08)
(2.57992e-11 -9.9712e-13 -2.08436e-08)
(-3.14254e-09 -1.49445e-13 -3.19915e-08)
(-7.8531e-09 -5.02473e-12 -7.22907e-08)
(-1.64282e-08 2.94236e-13 -1.71869e-07)
(-3.26009e-08 6.47843e-12 -3.9049e-07)
(-6.00241e-08 1.93275e-11 -8.21518e-07)
(-9.59442e-08 5.08488e-11 -1.58246e-06)
(-1.14717e-07 2.31617e-10 -2.77786e-06)
(-5.38771e-08 6.30112e-11 -4.42015e-06)
(8.19414e-08 -3.23967e-11 -6.15625e-06)
(-1.74165e-07 -1.13134e-10 -7.51367e-06)
(-1.27544e-06 5.98437e-07 -7.28827e-06)
(-1.27544e-06 -5.98525e-07 -7.28826e-06)
(-1.30836e-06 -8.29279e-07 -6.59853e-06)
(-1.09113e-06 -8.25166e-07 -7.90563e-06)
(-3.48638e-07 -2.00556e-07 -5.876e-06)
(-1.45393e-07 -4.49058e-07 -4.79527e-06)
(-5.98637e-07 -1.39447e-06 -7.56638e-06)
(9.09035e-07 3.8194e-06 -5.37069e-06)
(1.37393e-06 -2.65573e-07 -6.08804e-06)
(3.38256e-08 7.37473e-08 -5.37852e-06)
(1.48302e-08 -2.59539e-09 -5.49774e-06)
(7.1884e-08 -3.93114e-08 -5.35302e-06)
(-3.39179e-07 1.24232e-07 -4.52018e-06)
(2.01642e-06 1.45608e-06 -5.97987e-06)
(4.81854e-08 1.45221e-07 -3.58471e-06)
(-1.42728e-06 -1.22932e-06 -4.96756e-06)
(-1.46054e-07 -1.43799e-11 -4.1978e-06)
(-7.78161e-08 -1.38458e-11 -4.3494e-06)
(-6.46938e-08 -1.42738e-11 -2.68455e-06)
(6.60139e-09 2.87277e-08 -2.21441e-06)
(-9.16659e-07 -7.39154e-07 -2.9947e-06)
(1.20825e-06 9.68717e-07 -3.87899e-06)
(-6.61965e-08 -1.75695e-09 -2.91058e-06)
(-1.0797e-08 -3.06302e-08 -3.58517e-06)
(-1.81008e-08 -2.43362e-08 -2.12741e-06)
(-8.68336e-09 -8.50415e-09 -1.72017e-06)
(6.85026e-07 5.66948e-07 -2.24736e-06)
(3.66121e-10 3.14468e-09 -1.24571e-06)
(-5.15107e-07 -4.04319e-07 -1.65002e-06)
(-2.22909e-08 5.9893e-12 -1.45437e-06)
(-4.47254e-08 -5.18091e-13 -1.52031e-06)
(-2.69283e-08 -2.78359e-12 -7.85842e-07)
(-1.41637e-08 -3.03267e-12 -3.71021e-07)
(1.18365e-12 -2.36898e-09 -2.99357e-07)
(1.69621e-07 1.44733e-07 -5.69027e-07)
(-2.59929e-07 -2.01176e-07 -8.29265e-07)
(3.56951e-07 3.00263e-07 -1.18387e-06)
(2.70045e-09 -6.19026e-09 -9.24743e-07)
(-1.35778e-08 -1.62124e-08 -1.15041e-06)
(-8.06251e-09 -9.29324e-09 -5.67434e-07)
(8.59022e-10 -2.627e-12 -3.87806e-07)
(3.90833e-10 -1.17589e-12 -1.67107e-07)
(1.69106e-10 -3.02618e-14 -6.7039e-08)
(-2.48121e-09 -2.81873e-13 -6.47472e-08)
(-3.55021e-10 -2.12343e-09 -5.14725e-08)
(2.85201e-08 2.6186e-08 -1.03039e-07)
(1.25761e-09 -4.2258e-13 -6.1678e-08)
(2.85224e-08 -2.61873e-08 -1.0304e-07)
(3.47545e-09 9.41568e-10 -8.31144e-08)
(-5.0922e-08 3.77008e-08 -1.60565e-07)
(-1.0549e-10 2.11034e-09 -1.28628e-07)
(7.31895e-08 -6.38989e-08 -2.50814e-07)
(3.79245e-09 1.74028e-09 -2.0251e-07)
(-4.16845e-09 4.6827e-09 -2.55668e-07)
(-6.4591e-09 2.74306e-13 -1.60577e-07)
(-1.04198e-10 -2.1157e-09 -1.28623e-07)
(-1.02012e-10 4.59547e-13 -1.51375e-07)
(-1.97337e-09 2.09282e-09 -1.05578e-07)
(-9.99255e-10 5.99065e-10 -4.01532e-08)
(-1.29865e-08 8.56941e-09 -3.71473e-08)
(6.80302e-10 1.40861e-09 -3.17865e-08)
(1.64272e-08 -1.49779e-08 -6.44238e-08)
(3.62973e-09 9.85203e-10 -3.27032e-08)
(9.62849e-09 -1.01851e-08 -4.2669e-08)
(-1.46359e-09 3.03336e-09 -2.02518e-08)
(-1.05178e-08 5.836e-09 -2.19156e-08)
(1.29891e-09 2.83217e-13 -2.68139e-08)
(3.24299e-09 -3.74148e-09 -1.69745e-08)
(4.57462e-09 1.24934e-09 -1.35294e-08)
(2.18938e-09 -4.78578e-09 -1.63191e-08)
(5.76777e-09 -1.27447e-09 -1.73405e-08)
(2.59038e-09 -1.95417e-09 -2.49999e-08)
(1.0515e-09 -1.33644e-10 -1.78291e-08)
(-1.57704e-09 -9.36573e-10 -1.56676e-08)
(1.00144e-09 -5.71854e-10 -1.83274e-08)
(-3.73191e-10 3.66017e-10 -1.56911e-08)
(-3.89612e-10 1.07493e-09 -1.57272e-08)
(1.70597e-09 -1.51804e-09 -1.68571e-08)
(-3.77353e-10 5.02059e-10 -1.44685e-08)
(2.55774e-10 -1.5729e-09 -1.75197e-08)
(-9.34117e-12 1.07854e-09 -1.59489e-08)
(-1.09663e-11 1.45378e-13 -1.63421e-08)
(-9.29693e-12 -1.07875e-09 -1.59492e-08)
(-1.45755e-11 -5.56231e-10 -1.45208e-08)
(2.72503e-12 3.04438e-09 -2.28188e-08)
(2.55886e-10 1.57275e-09 -1.752e-08)
(-3.10667e-11 2.65218e-10 -1.84113e-08)
(1.00154e-09 5.72195e-10 -1.83278e-08)
(-4.53748e-10 -5.13439e-10 -1.5229e-08)
(-1.57749e-09 9.37226e-10 -1.56679e-08)
(1.05117e-09 1.33563e-10 -1.78286e-08)
(-4.09404e-11 2.70775e-10 -1.85112e-08)
(4.66292e-10 -1.02899e-09 -1.57932e-08)
(4.02512e-10 -4.71541e-10 -1.46092e-08)
(-3.08962e-10 1.57643e-09 -1.76539e-08)
(-1.7302e-09 1.49123e-09 -1.70955e-08)
(4.56381e-10 -2.89445e-10 -1.59247e-08)
(-1.02e-09 4.30094e-10 -1.79471e-08)
(1.80076e-09 2.51182e-09 -1.5014e-08)
(5.547e-09 -3.07573e-09 -1.95174e-08)
(-3.83928e-09 3.68448e-09 -1.97887e-08)
(9.18144e-10 -4.46664e-12 -2.98847e-08)
(4.24495e-10 1.0937e-13 -1.60541e-08)
(2.43901e-10 4.539e-13 -2.07103e-08)
(3.82279e-10 1.71933e-13 -3.10814e-08)
(-7.24202e-11 -7.19081e-14 -3.16258e-08)
(-6.30233e-11 2.82356e-13 -2.10836e-08)
(-2.21718e-10 -3.66228e-13 -6.71616e-08)
(-4.91996e-10 -2.1923e-13 -1.67198e-07)
(-1.05494e-09 4.79473e-14 -3.87973e-07)
(-2.29457e-09 -2.48376e-12 -8.2363e-07)
(1.78762e-09 -1.48284e-12 -8.23437e-07)
(3.88937e-09 5.7201e-12 -1.59527e-06)
(9.69543e-09 5.88153e-12 -2.8175e-06)
(2.36428e-08 -9.86483e-12 -4.55635e-06)
(-1.26134e-07 -1.57678e-11 -7.76826e-06)
(-4.17214e-07 -6.79157e-13 -7.20808e-06)
(1.56062e-06 -5.47507e-11 -1.14313e-05)
(-2.70615e-07 -1.09017e-06 -6.69636e-06)