/*--------------------------------*- C++ -*----------------------------------*\
| =========                 |                                                 |
| \\      /  F ield         | OpenFOAM: The Open Source CFD Toolbox           |
|  \\    /   O peration     | Version:  2306                                  |
|   \\  /    A nd           | Website:  www.openfoam.com                      |
|    \\/     M anipulation  |                                                 |
\*---------------------------------------------------------------------------*/
FoamFile
{
    version     2.0;
    format      ascii;
    arch        "LSB;label=32;scalar=64";
    class       volScalarField;
    location    "0.9";
    object      gradTz;
}
// * * * * * * * * * * * * * * * * * * * * * * * * * * * * * * * * * * * * * //

dimensions      [0 -1 0 1 0 0 0];

internalField   nonuniform List<scalar> 
2658
(
-0.0686482
-0.0651563
-0.0415355
-0.0372778
-0.0485193
-0.0495261
-0.0407218
-0.039465
-0.037247
-0.0493923
-0.0533809
-0.0450139
-0.0624898
-0.0592194
-0.0602125
-0.0618188
-0.0605249
-0.0616871
-0.0600844
-0.0584125
-0.0614214
-0.0553453
-0.0628528
-0.0461636
-0.0731635
-0.0613921
-0.0554772
-0.0639764
-0.0660916
-0.0554896
-0.066091
-0.0554771
-0.0613914
-0.0628519
-0.0731634
-0.0461627
-0.0569123
-0.0841443
-0.0553446
-0.061423
-0.0584133
-0.0600845
-0.0616865
-0.085969
-0.0515343
-0.050984
-0.0533811
-0.0859475
-0.0618197
-0.0602128
-0.0592188
-0.0624903
-0.0560191
-0.0874834
-0.0625473
-0.0602767
-0.0859411
-0.0512073
-0.0467253
-0.0617487
-0.0859422
-0.0602776
-0.062548
-0.0874837
-0.0536609
-0.0451028
-0.0532494
-0.0459504
-0.0489115
-0.0489104
-0.0377162
-0.0398321
-0.0291498
-0.0317208
-0.0229628
-0.0314308
-0.0316273
-0.0229289
-0.0245572
-0.024012
-0.0316284
-0.029133
-0.0396213
-0.0408503
-0.0351353
-0.0215652
-0.0121817
-0.00628075
-0.00295535
-0.00127175
-0.000505413
-0.000250308
-0.000165084
-0.000142331
-0.00013619
-0.000169773
-0.000133419
-0.000195034
-0.000133299
-0.000134343
-0.000195158
-0.000135981
-0.000164367
-0.000162242
-0.000138294
-0.000167204
-0.000124941
-0.000253307
-0.000130165
-0.000176179
-0.000161604
-0.000133429
-0.000178153
-0.000133425
-0.000161607
-0.000176189
-0.000138303
-0.000167205
-0.000164368
-0.000162242
-0.000135963
-0.000195138
-0.00013434
-0.000133293
-0.000149266
-0.00014992
-0.000142327
-0.000169784
-0.000133419
-0.000136195
-0.000197015
-0.000136258
-0.00016294
-0.000135704
-0.000177031
-0.000136213
-0.000135722
-0.000179965
-0.00014747
-0.000147474
-0.000135714
-0.000136212
-0.000143672
-0.000146824
-0.00018293
-0.000146758
-0.000178699
-0.000189039
-0.000123852
-0.000124446
-0.000113936
-0.000167428
-0.000179763
-0.0001036
-0.000147623
-0.000143457
-0.000130985
-0.000140937
-0.000128274
-0.000139512
-0.00014334
-0.000130032
-0.000143345
-0.000138332
-0.000126239
-0.000138737
-0.000128421
-0.000148211
-0.00024803
-0.000269299
-0.000492688
-0.000830592
-0.00133129
-0.00207994
-0.00319921
-0.00477789
-0.00700675
-0.0100076
-0.0139865
-0.0191091
-0.0254439
-0.0332057
-0.0422258
-0.0513227
-0.0495749
-0.0486156
-0.0491255
-0.0493916
-0.0485187
-0.0372772
-0.0495265
-0.0532485
-0.0451028
-0.0536609
-0.045014
-0.0725946
-0.0351352
-0.0215651
-0.0121816
-0.00628069
-0.0029553
-0.00127171
-0.000505398
-0.000250309
-0.000165086
-0.000121658
-0.000135611
-0.000251602
-0.000139128
-0.00013913
-0.000135614
-0.000121659
-0.000251604
-0.000126234
-0.000149918
-0.000149269
-0.000168814
-0.000142357
-0.000164315
-0.000121575
-0.000126044
-0.000169486
-0.000255304
-0.000251092
-0.000269474
-0.000251086
-0.000164314
-0.000124938
-0.000138592
-0.000253307
-0.000144142
-0.000144143
-0.000138592
-0.000176969
-0.000136256
-0.000138367
-0.000138367
-0.000250235
-0.000136257
-0.000157357
-0.000136912
-0.00013443
-0.000123673
-0.000144074
-0.000134118
-0.000140592
-0.000219523
-0.00024079
-0.000173095
-0.000213662
-0.000139485
-0.000115635
-0.000145077
-0.000187312
-0.000364689
-0.000539798
-0.000539798
-0.000439935
-0.000879383
-0.000693882
-0.00139472
-0.00219432
-0.00169701
-0.00333117
-0.00501068
-0.00380376
-0.00728824
-0.0104519
-0.00778173
-0.0145542
-0.0198795
-0.0145168
-0.0265004
-0.0344642
-0.0246712
-0.0437358
-0.0552999
-0.0397211
-0.0634055
-0.044958
-0.0588715
-0.0588712
-0.0639753
-0.0654446
-0.0572341
-0.0528251
-0.0771829
-0.0502866
-0.050287
-0.0507126
-0.07722
-0.0513491
-0.0513493
-0.0490435
-0.0765764
-0.0630821
-0.0630818
-0.0757181
-0.108311
-0.0757183
-0.076991
-0.107098
-0.0768576
-0.0894522
-0.0750688
-0.0732553
-0.0602506
-0.0699657
-0.0845523
-0.0774929
-0.0490434
-0.0469912
-0.0759277
-0.0605466
-0.0770183
-0.107103
-0.0769061
-0.085111
-0.0780762
-0.0788702
-0.0780758
-0.0759277
-0.0602504
-0.0732556
-0.0768555
-0.107099
-0.0769902
-0.0699666
-0.0845524
-0.085111
-0.0769094
-0.107102
-0.0770193
-0.0605464
-0.0699047
-0.0762109
-0.108391
-0.0758059
-0.0633095
-0.0766789
-0.0489753
-0.0631374
-0.0688111
-0.0698394
-0.0371069
-0.0228806
-0.0129533
-0.00668705
-0.00314909
-0.00135534
-0.000538309
-0.000509007
-0.000484888
-0.000481619
-0.000481843
-0.0004861
-0.000791429
-0.00128255
-0.001978
-0.00307853
-0.00454841
-0.00674368
-0.00953629
-0.0134749
-0.0182198
-0.0245571
-0.0316266
-0.0408505
-0.0372463
-0.039465
-0.0407213
-0.039833
-0.031587
-0.023386
-0.0315874
-0.0241235
-0.024508
-0.0238882
-0.0179034
-0.0182731
-0.0128577
-0.0131534
-0.012833
-0.0182204
-0.0172342
-0.0181768
-0.0180755
-0.0130732
-0.0133072
-0.0132898
-0.0181681
-0.0172254
-0.0241963
-0.0232881
-0.0313496
-0.0400535
-0.0376105
-0.0491255
-0.0459978
-0.0509844
-0.0859478
-0.069905
-0.0631369
-0.0489751
-0.0698376
-0.0485047
-0.0388794
-0.0365985
-0.0226412
-0.0128168
-0.00661432
-0.00311325
-0.00133974
-0.000533394
-0.000255303
-0.000169481
-0.000126041
-0.00025023
-0.000121571
-0.000142357
-0.000168813
-0.000273797
-0.000264995
-0.000265369
-0.000265196
-0.000266963
-0.000240298
-0.000155589
-0.000290099
-0.000494331
-0.00051279
-0.000814309
-0.000757282
-0.000472563
-0.000502464
-0.000548044
-0.000238501
-0.000239514
-0.000236524
-0.000210577
-0.000243436
-0.00057627
-0.000539925
-0.000337412
-0.000547908
-0.00140567
-0.00140243
-0.00144109
-0.00334236
-0.00332373
-0.00223073
-0.000901946
-0.000867447
-0.000784148
-0.000788169
-0.00126719
-0.00126477
-0.000817961
-0.000787587
-0.00051541
-0.000549092
-0.00140369
-0.00332801
-0.0033272
-0.00715266
-0.00716136
-0.0070951
-0.013756
-0.0140566
-0.0102548
-0.00501202
-0.00485856
-0.00452588
-0.00451752
-0.00666644
-0.00663747
-0.00451016
-0.00452716
-0.00303305
-0.00200854
-0.0019674
-0.00131654
-0.00196563
-0.00304352
-0.00201047
-0.00196542
-0.00127433
-0.000818445
-0.000935091
-0.000902371
-0.000879373
-0.000424456
-0.00055061
-0.00027167
-0.000317493
-0.000149572
-0.000279502
-0.000343186
-0.000353522
-0.000320675
-0.00033152
-0.000331666
-0.000273694
-0.000346206
-0.000212346
-0.000237398
-0.000569024
-0.000532281
-0.000916523
-0.000866786
-0.00140296
-0.00332277
-0.00715568
-0.00717016
-0.0140544
-0.0139926
-0.0249805
-0.025208
-0.0243518
-0.0392297
-0.0416312
-0.032608
-0.0191443
-0.0187435
-0.0181675
-0.0180749
-0.0241961
-0.0240116
-0.0172343
-0.0181765
-0.0132346
-0.00923651
-0.00949905
-0.00667852
-0.00946653
-0.013307
-0.00923789
-0.00949627
-0.00667116
-0.00451339
-0.00505687
-0.00227287
-0.00218518
-0.00219425
-0.00108994
-0.00139467
-0.000693869
-0.000710376
-0.00137235
-0.0021436
-0.00325429
-0.00325425
-0.00255866
-0.00486368
-0.00387125
-0.0070876
-0.00546187
-0.0101189
-0.00790403
-0.0141025
-0.0106473
-0.0192087
-0.0147024
-0.0255956
-0.0189271
-0.0331547
-0.0248764
-0.0424578
-0.0306391
-0.0511108
-0.0386342
-0.0653482
-0.0543499
-0.0653482
-0.044958
-0.0634042
-0.0397206
-0.0552998
-0.0307441
-0.0437349
-0.0246709
-0.0344639
-0.0190774
-0.0265
-0.0145168
-0.0198795
-0.0107238
-0.014554
-0.00778153
-0.0104519
-0.0054899
-0.00728796
-0.00380366
-0.00501067
-0.00256136
-0.00333104
-0.00169696
-0.00173082
-0.00229247
-0.000970566
-0.000400227
-0.000203593
-0.000178151
-0.000273432
-0.000617869
-0.00146896
-0.00333752
-0.00702152
-0.0135253
-0.0237424
-0.0377791
-0.0526175
-0.0642194
-0.0622929
-0.0622928
-0.0563977
-0.0675695
-0.0502222
-0.0409852
-0.0646699
-0.0459034
-0.0520345
-0.0459702
-0.0469892
-0.0457523
-0.038634
-0.05111
-0.0306386
-0.0424578
-0.0358786
-0.0371744
-0.0229449
-0.0189266
-0.0255957
-0.0331538
-0.0248767
-0.0306425
-0.018183
-0.0147023
-0.0192082
-0.0106471
-0.0141028
-0.0124305
-0.0129941
-0.00671659
-0.00317112
-0.00255861
-0.00486348
-0.00708774
-0.0101186
-0.00790378
-0.0098326
-0.00484986
-0.00331459
-0.00142826
-0.000572983
-0.000553395
-0.000439936
-0.000880674
-0.000527163
-0.00088068
-0.00071038
-0.00137235
-0.00109939
-0.00214371
-0.00173085
-0.0021852
-0.00137245
-0.00109934
-0.00129381
-0.000902372
-0.00034319
-0.000317498
-0.00027168
-0.000550631
-0.000279515
-0.000364692
-0.000173092
-0.000187313
-0.000229179
-0.000145082
-0.000115636
-0.000139479
-0.000148209
-0.000213674
-0.000152385
-0.000133911
-0.000156644
-0.000134112
-0.00013442
-0.000144078
-0.000123662
-0.000149741
-0.000136316
-0.000139676
-0.000136318
-0.000124109
-0.000195033
-0.000149743
-0.000157361
-0.000156648
-0.000130163
-0.000133914
-0.000152381
-0.000158215
-0.000134984
-0.000124865
-0.000150888
-0.000146115
-0.000136108
-0.000153394
-0.000128325
-0.000166816
-0.000169134
-0.000255425
-0.000137214
-0.000177011
-0.000265653
-0.000270306
-0.000180202
-0.00057403
-0.00142905
-0.00331601
-0.00703957
-0.00703793
-0.0136347
-0.0240812
-0.0389432
-0.0663954
-0.0616075
-0.0977034
-0.0572339
-0.065446
-0.092282
-0.0766858
-0.0766839
-0.0922823
-0.0976179
-0.0574455
-0.0782371
-0.0744393
-0.0762012
-0.0476399
-0.0614285
-0.0692372
-0.0775841
-0.107512
-0.0778794
-0.0904161
-0.0728314
-0.0838832
-0.0777605
-0.0795664
-0.0801243
-0.0855973
-0.10283
-0.080127
-0.0976181
-0.0782385
-0.0574449
-0.0502636
-0.0762009
-0.0614278
-0.0476396
-0.0483571
-0.076679
-0.0633107
-0.0758047
-0.10839
-0.0762118
-0.084395
-0.0792039
-0.0795665
-0.0803365
-0.0788372
-0.0502632
-0.0727065
-0.0763706
-0.0838168
-0.0792055
-0.0775186
-0.084395
-0.0766548
-0.0774932
-0.0469914
-0.0698375
-0.0485046
-0.0459976
-0.0493932
-0.0411285
-0.0251186
-0.0321067
-0.0316313
-0.0313487
-0.040054
-0.0396207
-0.029133
-0.0316281
-0.0232874
-0.0322542
-0.0251483
-0.0140371
-0.0188048
-0.0100054
-0.00485975
-0.00214949
-0.0021508
-0.00305221
-0.00308007
-0.00226985
-0.00190741
-0.00129938
-0.00200209
-0.00307898
-0.0030547
-0.00457435
-0.00440814
-0.003017
-0.00304153
-0.00659615
-0.00656221
-0.00956925
-0.00929456
-0.00654509
-0.0131533
-0.0128575
-0.0182732
-0.0179033
-0.0128329
-0.0238879
-0.0229626
-0.0317212
-0.0314304
-0.0229289
-0.0338735
-0.0413506
-0.0651476
-0.0646099
-0.0605265
-0.0491902
-0.046951
-0.0527266
-0.0416644
-0.0415352
-0.0253209
-0.0141539
-0.00722891
-0.00337163
-0.00143796
-0.00137911
-0.00217882
-0.00201584
-0.00198855
-0.00134068
-0.00198866
-0.0030547
-0.00313517
-0.00454836
-0.00454819
-0.00305478
-0.00310761
-0.0013416
-0.000540814
-0.000362366
-0.000320072
-0.000331449
-0.000287869
-0.000201184
-0.000287902
-0.00050966
-0.000537854
-0.000807844
-0.00080777
-0.0005097
-0.000364065
-0.000325573
-0.000180213
-0.000180202
-0.000137299
-0.000163696
-0.000325593
-0.000290112
-0.000155579
-0.000240306
-0.000472566
-0.00051282
-0.00075735
-0.000814286
-0.000494381
-0.000331457
-0.000362368
-0.000353525
-0.000538316
-0.000424461
-0.000492696
-0.000509013
-0.000784158
-0.000818445
-0.00126721
-0.0013166
-0.00196748
-0.00200861
-0.00303309
-0.00307859
-0.0030417
-0.00440838
-0.00457438
-0.00305489
-0.00301708
-0.00190756
-0.00200207
-0.00129946
-0.00126063
-0.00128841
-0.00197808
-0.00128257
-0.00126479
-0.000787609
-0.000817989
-0.000791463
-0.000502491
-0.000486109
-0.000481849
-0.000515418
-0.000788187
-0.000481627
-0.000484894
-0.000264996
-0.000320671
-0.000265367
-0.000146159
-0.000265203
-0.000320069
-0.00026696
-0.000134535
-0.00013951
-0.000143336
-0.00027369
-0.000331681
-0.000331526
-0.000337428
-0.000243442
-0.000203598
-0.000400235
-0.000970591
-0.000576266
-0.00144122
-0.00229255
-0.00503682
-0.00334262
-0.00709556
-0.0101521
-0.0101519
-0.00503665
-0.00387115
-0.0186716
-0.0186719
-0.0137566
-0.0243521
-0.0312244
-0.0312233
-0.0464985
-0.0464993
-0.0392299
-0.0563986
-0.0675769
-0.0502225
-0.0513247
-0.0373799
-0.0495748
-0.0459704
-0.0515344
-0.0469509
-0.0688112
-0.0698396
-0.0371072
-0.0228807
-0.0129534
-0.00668715
-0.00314914
-0.00135536
-0.00108997
-0.00133132
-0.00130612
-0.00196546
-0.00201055
-0.00304356
-0.00310632
-0.00452732
-0.00451019
-0.00663764
-0.00674376
-0.00654532
-0.00929479
-0.00956914
-0.00656238
-0.0065962
-0.00673984
-0.00451862
-0.00666808
-0.0067177
-0.0095192
-0.00951913
-0.00666817
-0.00451864
-0.00673959
-0.00488758
-0.00339096
-0.00145601
-0.000590788
-0.000251616
-0.000364114
-0.000237372
-0.000147523
-0.000103701
-0.00016106
-0.000177012
-0.00013572
-0.000162946
-0.000169125
-0.00013625
-0.000197007
-0.00012826
-0.000140932
-0.000255415
-0.000130979
-0.000143454
-0.000212322
-0.0002385
-0.000239502
-0.000236519
-0.000126239
-0.000138334
-0.000273797
-0.000143342
-0.000130039
-0.000137119
-0.000269305
-0.000149574
-0.000248029
-0.000138735
-0.000128412
-0.000210559
-0.000547925
-0.000539941
-0.000902008
-0.000830618
-0.000867495
-0.00127437
-0.00140575
-0.0014026
-0.00223084
-0.00208005
-0.00319929
-0.00308012
-0.00452604
-0.00451345
-0.00667135
-0.00666657
-0.00667878
-0.00949926
-0.00923639
-0.013235
-0.013475
-0.00953661
-0.0100057
-0.00999029
-0.00949659
-0.0092381
-0.00946687
-0.00661437
-0.00311331
-0.00133976
-0.000533402
-0.000935097
-0.00227288
-0.0050569
-0.00484988
-0.00983266
-0.0102702
-0.0102701
-0.0190115
-0.0172249
-0.0240981
-0.0230642
-0.0320027
-0.0291
-0.0398057
-0.0373793
-0.0329774
-0.0195787
-0.0105656
-0.00519739
-0.00233432
-0.000960011
-0.000825623
-0.00128545
-0.00128482
-0.00128476
-0.00128557
-0.000825617
-0.00096002
-0.00233434
-0.00201589
-0.00307914
-0.00217895
-0.000897743
-0.000569062
-0.00143802
-0.0033718
-0.00488769
-0.00511846
-0.00226999
-0.00214964
-0.00215093
-0.0030523
-0.00332735
-0.00332402
-0.00501236
-0.00477812
-0.0070069
-0.00661742
-0.0100079
-0.0139866
-0.0129463
-0.01911
-0.0254443
-0.0230651
-0.0316321
-0.0291002
-0.0398063
-0.0422262
-0.0307445
-0.0332065
-0.0190777
-0.0326091
-0.0191449
-0.0102552
-0.00716211
-0.00715311
-0.0139936
-0.0140583
-0.0249822
-0.0252106
-0.0409871
-0.0416298
-0.0646728
-0.0459035
-0.0569123
-0.0841456
-0.0728315
-0.0778787
-0.107511
-0.0775846
-0.0692374
-0.0859698
-0.0520356
-0.0491908
-0.0486167
-0.0365986
-0.0226414
-0.012817
-0.0136333
-0.0240635
-0.0320028
-0.0306425
-0.018183
-0.0190116
-0.0195788
-0.0127759
-0.00659534
-0.0105657
-0.00519743
-0.00924858
-0.0134595
-0.0132895
-0.0131342
-0.0181877
-0.0181876
-0.0132896
-0.00924848
-0.0134592
-0.0100355
-0.0105213
-0.00707888
-0.00511833
-0.00327533
-0.0197587
-0.0139509
-0.0188419
-0.0245076
-0.0241237
-0.0172526
-0.0225677
-0.0364899
-0.0687101
-0.0652907
-0.0507127
-0.0690784
-0.0469893
-0.0457525
-0.072707
-0.0528255
-0.0788368
-0.0763707
-0.0838163
-0.0838824
-0.0744412
-0.0904162
-0.0777614
-0.0775195
-0.0807505
-0.0725948
-0.0512071
-0.0493736
-0.0413831
-0.0322862
-0.0291496
-0.0493731
-0.0651561
-0.0686499
-0.059144
-0.0647188
-0.0617489
-0.0605805
-0.0459502
-0.0253255
-0.0141874
-0.00725555
-0.0100356
-0.0072291
-0.0141537
-0.018842
-0.0172527
-0.019759
-0.0105215
-0.00715595
-0.00332298
-0.00140306
-0.000548069
-0.000549095
-0.00140374
-0.00332813
-0.0048589
-0.00451767
-0.00717049
-0.0140549
-0.0187444
-0.0240983
-0.0321075
-0.0322541
-0.0188056
-0.0140374
-0.0251489
-0.0251199
-0.04113
-0.0646119
-0.0493927
-0.0413522
-0.065148
-0.0527274
-0.0338737
-0.0322867
-0.0253211
-0.0251294
-0.0416651
-0.0139522
-0.00485996
-0.00454858
-0.00086685
-0.000916588
-0.000346215
-0.000532353
-0.00137926
-0.00327569
-0.00708025
-0.0329774
-0.0251263
-0.010724
-0.00549001
-0.00256148
-0.00196569
-0.000897703
-0.0012606
-0.00128835
-0.00012486
-0.000134984
-0.000158217
-0.000153394
-0.000139023
-0.000136101
-0.000146112
-0.000150893
-0.000124109
-0.000166815
-0.000128312
-0.000179964
-0.00018
-0.000137293
-0.0001637
-0.000143715
-0.000160999
-0.00998969
-0.0132895
-0.0129461
-0.0376094
-0.048357
-0.0690782
-0.0766512
-0.000126229
-0.000109187
-0.00546188
-0.00638162
-0.00299526
-0.0220964
-0.0066171
-0.0130728
-0.00130606
-0.00310623
-0.000137125
-0.000146159
-0.000134525
-0.0750685
-0.089452
-0.076606
-0.0772924
-0.0766044
-0.0560197
-0.0591449
0.000212323
0.000237388
0.000569014
0.000512789
0.00047255
0.000494326
0.000814312
0.000757262
0.000502449
0.000486095
0.000266957
0.000134526
0.000140948
0.00012829
0.000139522
0.000143347
0.000130053
0.000143355
0.000138347
0.00012626
0.000138755
0.000128458
0.000148217
0.00014957
0.000213671
0.00013949
0.00011564
0.000152378
0.000145076
0.000109199
0.000145074
0.000115635
0.000139488
0.000148219
0.000213672
0.000149572
0.000269297
0.000248017
0.00012845
0.000138749
0.000126258
0.000138347
0.000143351
0.000273797
0.000265355
0.00026519
0.00026695
0.000273679
0.000143347
0.000139518
0.000128287
0.000140949
0.000131018
0.000255412
0.00014346
0.000163697
0.000325581
0.000287897
0.000201173
0.000180206
0.000325559
0.000163693
0.000143451
0.000255422
0.000240288
0.000155578
0.000290089
0.000331459
0.000509704
0.000509657
0.000537846
0.000807753
0.000825609
0.00128544
0.00129938
0.00126058
0.00128252
0.00128832
0.00197793
0.00196735
0.00126473
0.000817953
0.000787576
0.000791406
0.000505391
0.0012717
0.00295527
0.00628063
0.0121815
0.021565
0.035135
0.0725946
0.0759274
0.0605463
0.0770197
0.0699045
0.0762112
0.10839
0.075805
0.0775839
0.107513
0.0778782
0.0728313
0.0904159
0.0782368
0.0744394
0.0502631
0.0727064
0.0574452
0.0976177
0.0922816
0.0766858
0.102832
0.0766833
0.0922819
0.0976172
0.0782374
0.0744394
0.0728314
0.090416
0.0778781
0.10751
0.0775838
0.075805
0.0633095
0.0631372
0.0605461
0.0699046
0.0762111
0.0770198
0.107101
0.0769088
0.0894524
0.0768549
0.107098
0.0769906
0.0757175
0.0699664
0.0630818
0.0630819
0.0757178
0.0769909
0.107097
0.0768574
0.0894518
0.0750682
0.0769063
0.107102
0.0592183
0.0624891
0.0874833
0.0560188
0.0625477
0.059144
0.0602771
0.0617488
0.0605799
0.0617488
0.0467254
0.0512073
0.0512074
0.0859411
0.0602767
0.0591431
0.0625477
0.0560203
0.06249
0.0592179
0.0602124
0.0618183
0.0605239
0.0616867
0.0600838
0.0584122
0.0614208
0.0553461
0.0628511
0.0841446
0.0569122
0.0513238
0.0422258
0.0332066
0.0254438
0.01911
0.0139865
0.010008
0.0070068
0.00477805
0.00319924
0.00208001
0.00133131
0.000830616
0.000492687
0.000484891
0.000481613
0.000481841
0.000486093
0.000472549
0.000512801
0.000494375
0.000290096
0.000155579
0.000240292
0.000134531
0.000250307
0.000505405
0.00127173
0.00295532
0.00628069
0.0121816
0.021565
0.0351351
0.0725945
0.0759273
0.0469913
0.0490431
0.0698374
0.0513492
0.0513489
0.0490432
0.0469912
0.0698374
0.048975
0.0631366
0.0633098
0.0692372
0.0614274
0.0762007
0.0476396
0.048357
0.0766787
0.068811
0.0698393
0.0663951
0.0698392
0.0762007
0.0502629
0.0528247
0.0727063
0.0572337
0.0572337
0.0528247
0.0771829
0.050287
0.0507125
0.0507122
0.0690782
0.0502866
0.0763702
0.080337
0.0795658
0.0777597
0.0838828
0.0801245
0.0855976
0.0977024
0.0616072
0.0449574
0.073163
0.061391
0.0554763
0.0660913
0.0588705
0.0653475
0.05111
0.0511097
0.0306389
0.0437348
0.0246703
0.0344638
0.0265001
0.0145168
0.0198793
0.014554
0.00778157
0.0104519
0.0072881
0.00380366
0.00501064
0.00333111
0.00169696
0.00219426
0.00139468
0.000693853
0.000879361
0.000550611
0.000271669
0.000317486
0.000173093
0.0001873
0.0001873
0.000152376
0.000133911
0.00014414
0.00013859
0.000176962
0.000136253
0.000136251
0.000138362
0.000180192
0.000139125
0.000139123
0.000135607
0.000177
0.000147462
0.000147466
0.00013571
0.000178694
0.000146755
0.000146824
0.000161049
0.000177021
0.000135738
0.000162981
0.000136279
0.000197047
0.000136214
0.000142331
0.000165083
0.000128312
0.000166817
0.000169146
0.000146116
0.000150895
0.000133441
0.000195092
0.000133321
0.000149265
0.000169476
0.000126229
0.000149913
0.000169761
0.000255306
0.000251089
0.000538311
0.00135534
0.00314911
0.00668712
0.0129533
0.0228806
0.0371069
0.0373797
0.0495748
0.0486161
0.0491254
0.0493915
0.0408504
0.0316264
0.024557
0.0182198
0.0134749
0.00953644
0.00674365
0.00454849
0.0030785
0.00197803
0.00128254
0.000791449
0.000502471
0.000757306
0.000814266
0.000807837
0.00128474
0.00134063
0.00128483
0.00198851
0.00200206
0.00190741
0.00301697
0.00307898
0.00305468
0.00440812
0.00304148
0.00307849
0.00200854
0.00303298
0.00304347
0.00310615
0.0045174
0.00452573
0.00305221
0.00201044
0.00196557
0.00131653
0.00126717
0.000788154
0.000515392
0.000481836
0.00032006
0.000265184
0.00027368
0.000169779
0.000136206
0.000197044
0.000136274
0.00016298
0.000135718
0.000177039
0.000160984
0.000143726
0.000135712
0.000136205
0.000179955
0.000128324
0.000121659
0.000165086
0.000166816
0.000142328
0.00014992
0.000126233
0.0002516
0.000135607
0.00026565
0.000540808
0.00134158
0.00310759
0.0065953
0.0127759
0.0225676
0.0364897
0.06871
0.0765761
0.0788698
0.0780756
0.0766524
0.084394
0.0775207
0.108388
0.0838156
0.0614286
0.0476396
0.0483566
0.0690781
0.0469892
0.0459701
0.0515344
0.0509839
0.053381
0.053661
0.0451031
0.0532488
0.0495262
0.0372775
0.0407212
0.0394651
0.0485186
0.0372466
0.0413506
0.0651478
0.064611
0.0646727
0.0675769
0.0563981
0.0392297
0.0416324
0.0502223
0.0409875
0.0249806
0.025209
0.0243532
0.0137566
0.0140576
0.0191452
0.0326079
0.0321067
0.0398062
0.0400532
0.0313489
0.0316279
0.0291329
0.0396208
0.03761
0.0365984
0.0688109
0.0766785
0.0489751
0.077493
0.0792056
0.0763703
0.0788373
0.0574448
0.0654438
0.0639756
0.0622915
0.0642185
0.0526173
0.0377788
0.0237422
0.0135255
0.00702167
0.00333761
0.00146896
0.000617866
0.00027342
0.00017814
0.000203585
0.000203585
0.000243439
0.000576272
0.00144117
0.00334255
0.00709551
0.00716176
0.0102554
0.0139933
0.00715295
0.00332728
0.00332385
0.00501233
0.00485868
0.00667128
0.00666644
0.00451758
0.0045272
0.00451013
0.00663751
0.00949909
0.00923637
0.0132347
0.0181764
0.0172343
0.0240118
0.0232873
0.0241961
0.0180751
0.0172254
0.0240984
0.031631
0.0291001
0.0320026
0.0226412
0.0128168
0.0130729
0.013307
0.00946666
0.00923793
0.0132898
0.0181676
0.0129463
0.0187439
0.0251192
0.0411287
0.0491899
0.0520349
0.0859691
0.0692371
0.0459033
0.0493927
0.0859472
0.0527269
0.0686485
0.0651563
0.0415358
0.0416699
0.0338724
0.0322535
0.0251483
0.0140371
0.0140545
0.00717027
0.00332802
0.00140368
0.00140571
0.00140247
0.00223082
0.00215083
0.00305224
0.0030435
0.00196563
0.0019674
0.00200856
0.00303306
0.00310624
0.00311326
0.00661432
0.00667865
0.00505685
0.00451336
0.00452589
0.00308008
0.00484987
0.00728825
0.00549004
0.010452
0.00778178
0.0145545
0.0107239
0.0198796
0.0145172
0.0265009
0.0190776
0.0344638
0.024671
0.0437354
0.0307445
0.0552994
0.0397207
0.0634041
0.0461627
0.0386342
0.0457522
0.0457522
0.0634041
0.0397206
0.0552994
0.038634
0.0653481
0.0449574
0.0588706
0.0543496
0.0660916
0.0554764
0.0613912
0.0628516
0.0731632
0.0639753
0.0654455
0.0788371
0.0801254
0.0795673
0.0838823
0.077758
0.0838154
0.0792038
0.0807505
0.0772198
0.0652905
0.0388793
0.038943
0.0371743
0.030639
0.0424572
0.0331546
0.0255955
0.0192089
0.0192083
0.0106474
0.0141027
0.00790381
0.0101187
0.0054619
0.00708769
0.00387121
0.00486361
0.00255861
0.0032543
0.00173086
0.00214363
0.00109937
0.00137233
0.000710352
0.00088066
0.00043994
0.000539792
0.0002795
0.000364684
0.000229171
0.000364685
0.00017309
0.000317484
0.00027167
0.000550628
0.000424466
0.000879378
0.000693878
0.00139471
0.00108997
0.00219429
0.00169697
0.00333115
0.00256142
0.00501074
0.00380375
0.00387127
0.00486364
0.0029953
0.00325426
0.00214369
0.00137232
0.000880681
0.000527165
0.000539802
0.000279508
0.000343186
0.000902367
0.000710372
0.000970577
0.00229257
0.00503691
0.0101524
0.0186722
0.0312239
0.0464985
0.0464982
0.0622925
0.0563983
0.0392289
0.0312234
0.0424578
0.0248764
0.0331538
0.0189264
0.0255958
0.0147023
0.0181829
0.0229448
0.0189267
0.0220964
0.0129941
0.0106474
0.0141026
0.010119
0.00708766
0.00546193
0.00671659
0.00638176
0.00317113
0.00255864
0.00137245
0.00109938
0.00129377
0.000553393
0.000439935
0.000240789
0.000219515
0.000144139
0.00013391
0.000161639
0.000133457
0.000133448
0.000161633
0.000176202
0.000130166
0.000138306
0.000167206
0.000164311
0.000121569
0.000142354
0.000168824
0.00013436
0.000195185
0.000136
0.000162283
0.00016437
0.000144082
0.000123656
0.000134425
0.000134117
0.000140597
0.00017821
0.000134121
0.000176219
0.000138321
0.000130165
0.000124942
0.000164312
0.000142357
0.000121574
0.000126043
0.00016948
0.000149267
0.00013331
0.000195066
0.000133444
0.000150894
0.000136309
0.000134419
0.000136907
0.000156644
0.000124938
0.000253303
0.000157354
0.000149748
0.000136312
0.00012412
0.000139668
0.000157353
0.000156643
0.00013859
0.000253306
0.000343186
0.000572981
0.00142825
0.00331457
0.00703789
0.0136347
0.0240812
0.0306424
0.0248769
0.0306423
0.0371069
0.0307446
0.0513234
0.0373793
0.0398058
0.0291
0.0313484
0.0232872
0.0240114
0.0172338
0.0181762
0.0182195
0.0128328
0.0131531
0.0134592
0.0128574
0.0179029
0.0238877
0.0245075
0.0229622
0.0314299
0.0229284
0.0245568
0.0316265
0.0316275
0.0396208
0.0291331
0.0408498
0.037247
0.0394646
0.0407211
0.0372771
0.0485186
0.0493916
0.0491248
0.0376098
0.0400533
0.0486157
0.0495743
0.052035
0.0459701
0.0515343
0.0469508
0.0509841
0.0459977
0.0533807
0.0450138
0.0536609
0.0532492
0.0451024
0.0651562
0.0647185
0.0493734
0.0459502
0.0489105
0.0377164
0.0398322
0.0398324
0.0291491
0.0317207
0.0229621
0.0245076
0.0238879
0.0314298
0.0229288
0.0179032
0.0128576
0.0134594
0.0131532
0.0128331
0.0092947
0.00656238
0.00673974
0.00659606
0.00654519
0.00715578
0.00332285
0.001403
0.000548039
0.00054909
0.000547909
0.000539942
0.000902012
0.000867468
0.00127436
0.00126719
0.000788181
0.000787584
0.000817952
0.00126477
0.00131655
0.00133974
0.000533394
0.000515396
0.00035352
0.000320671
0.000264983
0.000137123
0.000236514
0.000210563
0.000337412
0.000331506
0.000239498
0.000130063
0.000146156
0.000331663
0.000866797
0.00214955
0.00485979
0.0100054
0.018805
0.019759
0.0251291
0.025321
0.014153
0.0139511
0.0105214
0.0100353
0.0188416
0.0182729
0.0181874
0.0131342
0.0132894
0.0132894
0.00924841
0.00951911
0.00671748
0.00666803
0.006668
0.00451857
0.00457427
0.00305477
0.00307909
0.00301701
0.00440832
0.00304157
0.00511839
0.00707983
0.00722893
0.00337167
0.00327489
0.00226991
0.00217885
0.00200202
0.00129942
0.00128553
0.00126059
0.00190749
0.00128837
0.000916537
0.0013792
0.001438
0.000569037
0.000532279
0.000346194
0.000238487
0.000212327
0.000237371
0.000147531
0.0001037
0.000123848
0.000113928
0.000124449
0.000103616
0.000147625
0.000137289
0.000179768
0.000251608
0.000590784
0.000897738
0.000825597
0.000960005
0.000935089
0.00081845
0.000784144
0.000509003
0.00227287
0.0020105
0.00196541
0.00130606
0.00218518
0.00173084
0.00218517
0.00484984
0.00983262
0.0129532
0.0228805
0.0190774
0.0332054
0.0230642
0.0240979
0.017225
0.0180746
0.0130727
0.0132345
0.00923617
0.00949884
0.00953615
0.00654504
0.00659602
0.0067396
0.00656214
0.00929447
0.00956903
0.00924839
0.00951902
0.0100353
0.0141871
0.0253252
0.0413828
0.0322854
0.0322862
0.0493724
0.0459502
0.0495257
0.0489108
0.0485047
0.0469893
0.0320026
0.0365985
0.0226412
0.0240635
0.0190115
0.018183
0.0147024
0.00983262
0.00790398
0.0102701
0.0136333
0.00703955
0.00331598
0.00142903
0.000574025
0.000270306
0.000269473
0.000251092
0.000538307
0.00135533
0.00314908
0.00668704
0.0054899
0.0100075
0.00661717
0.00667111
0.00451329
0.00666637
0.0066785
0.00663742
0.00451009
0.00452707
0.00454831
0.00674357
0.00485954
0.00485839
0.00501194
0.00709538
0.0137563
0.0243521
0.0186715
0.010152
0.00503676
0.0022925
0.00334252
0.00144114
0.000970574
0.000400218
0.000576235
0.000243427
0.000210579
0.000337392
0.000492684
0.000508998
0.00048488
0.000320662
0.000265357
0.000146155
0.000255305
0.000533387
0.00133972
0.00311322
0.00661428
0.0128168
0.0190114
0.0102701
0.00923777
0.00949605
0.00946637
0.0133068
0.0132895
0.0139863
0.0129458
0.0191092
0.0107238
0.0254438
0.0191439
0.0326071
0.0422255
0.0502231
0.0569122
0.0459033
0.0614226
0.0553443
0.0841445
0.0675711
0.0646694
0.0584118
0.0600842
0.085969
0.0616864
0.0605265
0.0618195
0.0859471
0.0602127
0.0651472
0.0646097
0.0491909
0.0409853
0.0416315
0.02498
0.0252091
0.0139923
0.0140568
0.0102546
0.00998938
0.0187433
0.0181672
0.024196
0.0321061
0.031631
0.0411277
0.0251184
0.0140539
0.00716995
0.00715245
0.00716138
0.00332702
0.00307998
0.00319919
0.00207996
0.00130603
0.00127434
0.00081843
0.000784133
0.000830593
0.000424454
0.00133128
0.00108995
0.000901967
0.00223068
0.00332375
0.00215071
0.00196536
0.00140564
0.00140246
0.000547908
0.000539896
0.000236524
0.000137122
0.00026929
0.000248028
0.000164392
0.000135992
0.000195195
0.000134368
0.00016883
0.000273799
0.000264985
0.000331499
0.000481614
0.000867414
0.00086674
0.00214938
0.00332785
0.00140362
0.000549063
0.000239506
0.000331641
0.00054802
0.00140292
0.00332269
0.00715549
0.0140368
0.0251481
0.0413502
0.0493933
0.0527273
0.0415349
0.0253202
0.0188417
0.0241234
0.0241233
0.0233857
0.0315864
0.0317203
0.0291494
0.0329772
0.0329772
0.0485047
0.0459978
0.0195786
0.0172522
0.0195785
0.0172521
0.0182728
0.0181874
0.0105655
0.0105656
0.00519737
0.00519736
0.00505681
0.00227286
0.000935082
0.000902362
0.000353521
0.000250231
0.000138363
0.000362363
0.00096
0.0023343
0.00233431
0.00201585
0.00305468
0.00313505
0.00305476
0.00201584
0.00217883
0.00339086
0.00488747
0.00454826
0.00454817
0.00457433
0.00451857
0.00488753
0.00725532
0.00722879
0.0141533
0.0105212
0.0197583
0.0188044
0.0322532
0.0338723
0.0416691
0.0251285
0.010005
0.0134747
0.0139518
0.00708003
0.00511814
0.00337155
0.00143793
0.001456
0.000897698
0.000916489
0.00226985
0.0032751
0.00137913
0.000346191
0.000532249
0.000364066
0.000287864
0.000364102
0.000331453
0.000362362
0.000320062
0.000251598
0.000121657
0.000158208
0.000134977
0.00012484