/*--------------------------------*- C++ -*----------------------------------*\
| =========                 |                                                 |
| \\      /  F ield         | OpenFOAM: The Open Source CFD Toolbox           |
|  \\    /   O peration     | Version:  2306                                  |
|   \\  /    A nd           | Website:  www.openfoam.com                      |
|    \\/     M anipulation  |                                                 |
\*---------------------------------------------------------------------------*/
FoamFile
{
    version     2.0;
    format      ascii;
    arch        "LSB;label=32;scalar=64";
    class       volScalarField;
    location    "0.9";
    object      gradTy;
}
// * * * * * * * * * * * * * * * * * * * * * * * * * * * * * * * * * * * * * //

dimensions      [0 -1 0 1 0 0 0];

internalField   nonuniform List<scalar> 
2658
(
0.00814681
0.00478576
0.00145786
-6.89367e-05
-0.0140082
0.0170617
-0.0131994
0.0111414
5.32802e-06
-0.0121527
0.0035795
-0.0319218
0.020274
0.0205821
0.0168386
0.0172083
0.0187199
0.0169616
0.0172277
0.0203292
0.019664
0.0173394
0.00583277
-0.0035545
0.00604458
0.0186914
-0.00395326
0.00118735
0.0152422
-7.98435e-07
-0.0152425
0.00395334
-0.0186924
-0.00583267
-0.00604439
0.00355495
-0.000571676
0.00162964
-0.0173446
-0.0196652
-0.0203306
-0.0172284
-0.0169603
0.008218
-0.000698405
-0.000107735
-0.00357976
0.00856387
-0.0172114
-0.0168388
-0.0205807
-0.020274
-0.0181998
0.00366731
-0.0068106
-0.00610304
0.000462891
-0.00940461
-1.56596e-07
-1.99437e-05
-0.000462704
0.00610273
0.0068111
-0.00366775
0.0034619
-0.00922234
-0.0122025
-0.000638251
-0.0189118
0.0189119
1.62785e-07
0.014485
-0.000224557
0.0107098
3.73805e-05
-0.00817195
-0.00805738
0.000424359
0.00688949
0.00448326
-0.00541967
-0.000737272
0.00769902
0.0116568
-0.000172822
-7.80195e-05
4.19234e-05
5.66878e-05
4.00344e-05
2.30747e-05
1.16362e-05
-8.92064e-06
4.05141e-06
2.5375e-05
-9.15543e-06
-3.48145e-05
-2.78657e-06
-2.60219e-05
-3.30177e-06
-8.45358e-06
-2.80478e-05
-6.43154e-06
-3.2177e-05
-1.26614e-05
-1.14551e-05
2.67525e-05
-9.32749e-06
-2.68163e-06
4.38648e-06
-2.6569e-05
8.77441e-06
-1.15087e-05
1.36595e-10
1.15099e-05
-8.77729e-06
2.65693e-05
1.14543e-05
-2.67582e-05
3.21726e-05
1.26578e-05
6.42055e-06
2.80473e-05
8.45233e-06
3.29882e-06
-2.14127e-05
-2.0544e-05
-2.53794e-05
3.48203e-05
2.79176e-06
9.15853e-06
2.78083e-05
5.8742e-06
1.29565e-05
1.32031e-05
2.53071e-05
-1.24361e-05
2.24371e-06
3.0815e-06
-3.18145e-05
3.18256e-05
-2.24349e-06
1.24394e-05
-6.66481e-06
-6.80236e-06
-6.3309e-08
6.7831e-06
1.47138e-08
1.93909e-08
-1.41233e-05
1.39148e-05
4.05222e-08
1.19922e-06
8.19831e-06
-9.50006e-06
3.58524e-05
7.81816e-06
3.4036e-05
4.08601e-05
4.39263e-05
3.34854e-05
3.37572e-05
4.04587e-05
3.39407e-05
3.36304e-05
4.45465e-05
4.11126e-05
3.51785e-05
1.08902e-05
1.55148e-06
1.79332e-05
-0.000104113
0.00018721
-0.000281407
0.000459138
-0.000700298
0.00104083
-0.00157508
0.002159
-0.00321521
0.00408108
-0.00598917
0.00702908
-0.0102815
0.0110142
0.0108757
0.00914318
0.00869652
0.0121532
0.0140077
6.87727e-05
-0.0170621
0.0122026
0.00922158
-0.00346202
0.0319213
-0.00407646
0.000172587
7.78645e-05
-4.19618e-05
-5.67509e-05
-4.00823e-05
-2.30695e-05
-1.16363e-05
8.92177e-06
-4.04994e-06
-6.20648e-07
-1.25997e-05
7.17696e-06
-1.57284e-05
1.5727e-05
1.26029e-05
6.177e-07
-7.18177e-06
-4.0324e-06
2.05443e-05
2.14103e-05
-3.518e-05
2.43002e-05
5.22741e-06
3.7862e-07
-4.00923e-06
3.23899e-06
-3.62345e-07
1.00648e-06
-1.23844e-10
-1.00955e-06
-5.23702e-06
9.32511e-06
-2.01254e-05
2.68689e-06
-2.13744e-05
2.13835e-05
2.01298e-05
2.4297e-09
-1.38708e-05
-1.56779e-05
1.56846e-05
-6.9806e-06
1.38786e-05
-2.26446e-06
1.63181e-09
-9.18933e-06
-4.29081e-06
1.29695e-05
-3.12964e-06
2.14388e-09
1.69783e-09
-7.18008e-10
-2.59216e-05
1.67019e-05
4.09061e-05
-1.06707e-05
3.19803e-05
-4.98806e-05
8.70517e-05
-0.000122365
0.000122356
1.81384e-05
0.000193104
1.03377e-05
-0.000325493
0.000492323
4.59649e-06
-0.000770996
0.00114704
-1.3481e-05
-0.00167901
0.00242991
-6.71554e-05
-0.00334046
0.00468519
-0.000234621
-0.00605185
0.00825107
-0.00075411
-0.00997005
0.0132844
-0.00243069
-0.0160237
-0.00774055
-0.0176304
0.0176306
-0.00118681
-0.00518076
0.00931714
0.00830456
-1.47975e-07
-0.00580206
0.005802
0.00612023
-1.00214e-07
-0.00733799
0.00733793
0.00302232
-9.27361e-08
-0.0194775
0.0194772
-0.0125985
1.03979e-07
0.012598
-0.00985649
0.00625047
0.0144064
0.0102064
0.0124601
-0.0191919
0.0132834
0.00168725
0.00112124
0.000100905
-0.00302248
-0.00110481
-0.00326611
-0.0109865
0.00634844
0.0175665
0.00759894
0.00825266
-0.00439064
6.63701e-08
0.00439087
0.00326612
-0.0132835
0.0191915
-0.0144077
-0.00625132
0.00985613
-0.00168776
-0.00112138
-0.00825188
-0.0075995
-0.0175662
-0.00634877
0.0109863
-0.0104472
-0.00444114
-0.0162309
-0.00397118
0.0103226
0.00250529
-0.00226751
0.0111979
-0.00237563
-0.00295306
-0.000242035
-0.00026912
-0.000252283
-0.000172567
-9.8966e-05
-5.05747e-05
-2.37812e-05
-2.1073e-05
-9.57868e-05
-8.11813e-05
-7.22438e-05
-0.00011483
0.000214496
-0.000317367
0.000529531
-0.000791298
0.00120115
-0.00178726
0.00248913
-0.00367438
0.00469695
-0.00688952
0.00805782
-0.0116571
-5.82663e-06
-0.011141
0.0132003
-0.0144853
0.0119987
-6.08935e-08
-0.0119987
0.00892235
-0.00806365
0.00654236
-0.00463144
0.00611552
9.38742e-05
0.003503
0.000340046
-0.00469656
-0.000470012
-0.00312406
-0.00356571
0.000354033
0.00273525
0.00298924
-0.00398693
-0.000505469
0.00511871
0.000409336
-0.00606829
0.00856288
-0.000105035
-0.00869644
-0.000532273
0.000107768
-0.00856405
0.0104468
-0.0111983
0.00226721
0.000694204
-0.000215347
-9.43405e-08
-5.54025e-05
-0.000139596
-0.000169681
-0.000126123
-7.50833e-05
-3.91111e-05
-1.81783e-05
3.61297e-07
-3.23969e-06
4.00473e-06
6.97764e-06
-3.79359e-07
-2.43058e-05
3.51786e-05
-1.60782e-05
2.95005e-05
1.98305e-05
1.79513e-05
3.35417e-05
2.55984e-05
-7.42759e-06
-7.18017e-05
0.000164536
-3.51136e-06
-0.000257528
0.000204199
-0.000120675
-2.14108e-05
-2.96564e-05
1.64906e-05
1.64302e-05
1.63579e-05
1.09241e-05
1.53819e-05
-9.15506e-06
-1.60178e-06
1.53682e-05
-2.94517e-05
-0.000100388
-3.48691e-05
-3.31366e-05
-8.17406e-05
-0.000102064
2.57428e-05
1.77768e-05
2.78478e-05
0.000187104
0.000164465
-0.000229374
-0.000198483
3.67444e-05
0.000149381
-2.36313e-05
-2.57913e-05
-9.6951e-05
-0.000242675
-0.000244468
-0.000519855
-0.000235568
-0.000174879
-0.000333409
-0.000497869
2.43515e-05
3.21944e-05
8.07157e-05
0.00101391
0.00092017
-0.00132618
-0.00114253
0.00015754
0.000805132
-0.000500762
7.97457e-05
0.000359991
-5.55162e-05
0.000407004
-0.000582192
8.44202e-05
0.000450868
-0.000261522
3.90365e-05
7.13372e-06
-1.78942e-05
-0.000193073
3.06434e-06
0.000128015
-1.20493e-05
-7.32382e-05
-1.52028e-05
-8.42126e-06
-5.12197e-06
5.30255e-06
1.9817e-05
2.12482e-05
2.0288e-05
-1.67867e-05
1.50262e-05
1.11285e-05
6.0721e-06
-8.06419e-06
-5.15873e-06
1.76326e-05
2.5727e-05
-0.000101082
-0.00024754
-0.000530282
-0.000525347
-0.00104882
-0.0010166
-0.00191669
-0.00105972
-0.000586156
-0.00122534
-0.00261203
-0.000236187
-3.43925e-05
0.000141682
0.0039869
0.00356607
-0.00511844
-0.00448252
0.000470024
0.00312416
-0.00236864
0.000283414
0.00165648
-0.000217801
0.00189875
-0.00273504
0.000303042
0.00209946
-0.0014558
0.000167369
3.00901e-05
1.52448e-05
-4.00452e-05
-0.000492254
4.31228e-06
0.000325484
-1.03386e-05
-8.04554e-06
-0.000322217
0.000546114
-0.000778861
0.000778885
2.01467e-05
-0.00123703
2.9413e-05
0.00171948
1.64621e-05
-0.00256621
5.29654e-05
0.00345566
-2.70359e-05
-0.00484565
7.25093e-05
0.00631762
-0.000245714
-0.0082796
1.49343e-05
0.0105074
-0.00124201
-0.0124445
-0.00106183
0.015144
-3.06812e-07
-0.0151441
0.0077392
0.0160245
0.00242962
-0.0132838
-0.000143074
0.00996967
0.000753538
-0.00825065
-2.52572e-05
0.00605254
0.000234167
-0.00468466
-5.99837e-06
0.00334084
6.67601e-05
-0.0024298
1.85733e-06
0.00167908
1.33585e-05
-0.00114695
4.45563e-06
0.000771029
-4.57851e-06
-1.48895e-05
-6.55761e-05
-2.83738e-05
-8.44158e-06
1.11075e-05
-8.52239e-09
-1.27731e-09
-4.29464e-08
2.51484e-09
5.53712e-08
1.65193e-07
4.34605e-07
1.97963e-06
5.38558e-07
-2.76895e-07
-9.66957e-07
0.00511484
-0.0051156
-0.00708785
-0.0070527
-0.00171415
-0.0038381
-0.0119186
0.0326444
-0.00226986
0.000630319
-2.21828e-05
-0.000335995
0.00106181
0.0124451
0.0012412
-0.010507
-1.22905e-07
-1.1834e-07
-1.21998e-07
0.000245536
-0.00631755
0.00827963
-1.50167e-05
-0.000261797
-0.000208001
-7.2685e-05
0.00484571
2.68776e-05
-0.00345572
5.11906e-08
-4.42813e-09
-2.37914e-08
-2.59203e-08
-2.02477e-05
0.00123704
-0.00171945
0.00256635
-5.29082e-05
-0.000138567
-7.94294e-05
-2.2453e-08
-1.00503e-08
-2.58648e-10
-2.40917e-09
-1.8149e-05
0.000223812
-3.6118e-09
-0.000223823
8.04759e-06
0.000322229
1.80371e-05
-0.000546145
1.48742e-05
4.0023e-05
2.34449e-09
-1.80829e-05
3.92775e-09
1.78874e-05
5.12021e-06
7.32429e-05
1.20394e-05
-0.000128016
8.42054e-06
-8.7052e-05
2.59261e-05
4.98804e-05
2.42066e-09
-3.19785e-05
1.06781e-05
-4.09041e-05
-1.08929e-05
-1.67023e-05
-1.14226e-06
-8.00489e-06
-4.88764e-06
3.12835e-06
9.18745e-06
-1.29747e-05
4.2911e-06
-1.34436e-05
9.21825e-06
1.24254e-09
-9.22004e-06
-4.75411e-06
2.60203e-05
1.34423e-05
2.26682e-06
4.89055e-06
-4.38837e-06
8.01048e-06
1.14156e-06
2.31432e-06
-8.79483e-06
-4.03026e-06
1.34738e-05
1.27455e-05
-2.47389e-06
3.67602e-06
2.14685e-05
-2.62883e-05
3.14913e-05
-3.81764e-08
9.34789e-10
3.87949e-09
1.46951e-09
-6.14599e-10
2.4133e-09
-3.13016e-09
-1.87376e-09
4.09806e-10
-2.12287e-08
-1.26738e-08
4.88897e-08
5.02695e-08
-8.43148e-08
-1.34768e-07
-5.80476e-09
-4.67955e-07
-0.00931769
0.00518098
-0.00449003
0.00743536
-0.00743564
0.00448974
-0.0147314
0.00152529
-0.00590346
0.0132665
0.00337459
-0.000273289
0.0123439
-0.0104291
-0.00683799
-0.0174162
-0.00583008
-0.00856091
-0.0116968
-0.00695806
0.000778627
0.00619688
0.00192355
-1.68705e-06
2.3269e-07
-0.00192275
0.014731
0.00590327
-0.00152568
0.0044119
-0.00337483
-0.0123444
0.000272929
0.00138805
-0.00250552
-0.0103228
0.0039703
0.0162299
0.00444097
0.00728529
-0.00605378
-0.00619835
8.50879e-07
-0.00212216
-0.00441207
0.000434368
-0.000363382
-0.00707829
0.00605364
0.00131139
-0.00728539
-5.482e-05
-0.000101122
0.00110454
-0.000694255
0.000215187
0.000532167
-0.00143395
-0.00410025
-0.00202005
0.000117057
0.00695968
0.00606927
-0.008563
-0.00769825
0.000737383
0.00541966
-0.000409434
4.99258e-05
-0.00202001
-0.00105274
0.000106769
0.000100565
7.06896e-05
4.40612e-05
4.9003e-05
-0.000646752
-0.000100463
2.31552e-05
0.000508857
-1.81928e-05
-0.000652313
0.00101185
-4.00678e-05
-0.00150639
0.00116081
-0.000764015
-0.000105325
-0.00171287
-7.10654e-05
-0.00317652
0.00242312
-0.000201975
-0.00350274
-9.39514e-05
-0.00611543
0.00463112
-0.000340155
-0.00654217
-3.69666e-05
-0.0107103
0.00817128
-0.000424959
-0.000573627
-0.00402746
-0.0121815
-0.0121838
-0.0187251
-0.00139335
0.0297342
-0.00254563
-0.00279717
-0.00145775
-0.000633317
-0.000334828
-0.000172352
-8.20177e-05
-3.3519e-05
-3.61536e-05
2.56869e-05
1.1695e-05
0.00072995
2.51701e-08
-0.000730012
0.00111819
5.60333e-09
-0.00168468
0.00168463
-0.00111819
-1.47882e-08
-8.40443e-09
-1.2844e-11
5.86898e-06
1.87446e-05
-3.87682e-08
6.84154e-05
2.02662e-08
-6.84282e-05
0.000175849
1.3167e-08
-0.000287615
0.000287584
-0.00017583
5.66087e-06
1.61529e-05
-1.47257e-05
1.47307e-05
-6.86553e-06
-3.07157e-06
-1.61608e-05
7.18095e-05
7.43997e-06
-2.56086e-05
0.000120714
3.51797e-06
-0.000204237
0.000257536
-0.000164523
3.19307e-08
-5.86883e-06
-5.30406e-06
2.37772e-05
-3.05225e-06
0.000104122
2.1087e-05
-0.000187097
-3.90278e-05
0.000229388
5.5518e-05
-0.00035997
-7.97552e-05
0.00050097
0.000791278
0.000105376
-0.00116088
0.00150626
4.01259e-05
0.000764179
-0.000508922
0.00065232
1.81951e-05
0.000311008
5.07695e-05
-0.000529474
0.000317375
0.000198553
-0.0001494
-3.67382e-05
-0.000214467
2.14035e-05
0.000114828
7.22603e-05
2.3626e-05
-0.000164456
8.11866e-05
9.58019e-05
-2.95032e-05
-1.98116e-05
-1.98223e-05
9.00942e-05
-1.79525e-05
-1.87446e-05
-3.35338e-05
9.14422e-05
-3.3486e-05
-3.37614e-05
1.67942e-05
-2.02868e-05
-2.12487e-05
-1.53646e-05
-1.53831e-05
-1.11082e-05
8.43668e-06
2.83954e-05
9.1629e-06
3.31899e-05
6.55459e-05
0.000134027
8.18478e-05
0.000175045
0.000241184
-0.000241442
-0.000134046
-2.94197e-05
-0.000362385
0.000361891
0.00033355
0.000586474
0.000414083
-0.000414904
-0.000478671
0.000479217
0.00122717
0.00708901
0.00705403
0.00171737
-0.011014
-0.000149719
-0.0108755
-0.00063044
0.000698254
-0.0297345
0.00237543
0.00295278
0.000241647
0.000268867
0.00025203
0.000172473
9.89129e-05
5.0565e-05
-4.29667e-06
0.000281449
4.95649e-05
-0.000450857
-8.44512e-05
0.000582203
0.00011549
-0.000805092
-0.000157362
0.0011429
0.00178735
0.000201867
-0.00242337
0.00317642
7.11251e-05
0.0017131
-0.00221522
-2.56105e-05
0.00245318
-1.73228e-08
-0.00354945
0.00354936
-0.00245322
2.55623e-05
0.0022154
5.08975e-05
3.38018e-08
4.27286e-08
1.21115e-08
3.58917e-08
-5.67364e-06
-6.09263e-06
-3.58971e-05
9.58472e-06
4.97622e-06
-2.53173e-05
-1.32125e-05
-1.29625e-05
-3.14984e-05
-5.87025e-06
-2.78045e-05
-4.39091e-05
-4.08519e-05
2.09627e-08
-3.4047e-05
-7.82131e-06
-1.11244e-05
-1.64784e-05
-1.6427e-05
-1.63528e-05
-4.45419e-05
-3.36313e-05
1.6076e-05
-3.3941e-05
-4.04783e-05
9.25404e-05
-1.79374e-05
1.52039e-05
-1.56127e-06
-4.11151e-05
-3.51915e-05
-1.0904e-05
2.94752e-05
1.57009e-06
-1.77387e-05
-0.000187189
-2.78308e-05
0.000261587
0.000100402
3.52747e-05
-2.56222e-05
-0.000459104
0.000700426
0.000100528
-0.00101385
-0.000167341
0.00145605
0.0013262
0.000217775
-0.00165664
-0.000283447
0.00236921
0.00367423
-0.00248886
-0.000100477
-0.000119156
-0.00209918
-0.000302821
-0.00189851
0.000126067
7.50378e-05
3.9088e-05
1.81748e-05
-7.13691e-06
-1.52489e-05
-3.00932e-05
7.93976e-05
0.000138487
-5.56675e-05
5.55702e-05
9.64291e-05
0.000505275
-0.00562322
-0.000314158
0.000152959
0.000786795
-0.00973047
0.000149334
0.000223378
0.000130831
7.61122e-05
4.13984e-05
2.08417e-05
9.59045e-06
4.56798e-06
0.000422786
-0.000464998
0.000465029
-0.000422746
-4.59176e-06
-9.58719e-06
-2.0852e-05
-1.17237e-05
-0.0010118
-2.57133e-05
-1.18405e-05
8.10693e-06
3.35696e-05
8.20703e-05
-5.08864e-05
-2.34982e-05
-2.30894e-05
-4.40504e-05
-4.8963e-05
0.000646848
0.000244614
0.000103129
-3.18684e-05
-0.00104073
0.00157531
0.000184834
-0.00215889
0.00321564
0.000290875
-0.00408069
0.00598935
0.000313911
-0.00696015
-0.000787243
0.00973091
0.010282
0.000143028
-0.0070286
2.54476e-05
0.000236582
3.55201e-05
-2.37165e-05
0.000237388
0.000520114
0.00101713
0.000501896
0.00191673
0.00106769
0.00383871
0.00260808
0.0119183
-0.0326441
0.000571305
-0.00162806
0.0116962
0.00582948
0.0174164
0.006838
0.0104289
-0.00821788
0.00227029
0.00139297
-0.00914286
5.51353e-05
0.000139412
0.000169556
-7.82505e-08
-1.04298e-07
-0.000153078
0.000261669
0.000207854
-9.64661e-05
-0.000131002
-2.79671e-08
-2.64778e-08
-7.61445e-05
-4.14479e-05
-5.1154e-05
-0.00442834
0.00490873
-2.63834e-08
-0.00683498
0.00683483
-0.00490885
5.11489e-05
0.00442868
9.11204e-05
-3.67724e-06
-0.000231292
2.36021e-05
-0.000100391
-0.00013483
-0.000503068
0.000148097
0.00806373
-0.00892216
0.000102079
-8.29087e-08
-5.10333e-08
-6.35101e-08
-1.07521e-07
-0.00612069
0.00103564
2.19865e-05
0.000335638
-0.000434246
-0.00830553
0.00212222
0.000362835
0.00707783
0.00695735
-0.013266
0.00856026
-0.000778891
-0.00131219
-3.08365e-07
0.00407625
0.00940444
-0.00022479
6.73329e-07
0.000233669
0.000224554
0.000224953
-0.00478606
-0.00814754
-0.00794249
1.2473e-08
1.97245e-05
7.41957e-07
0.000638074
5.29457e-07
1.03283e-07
1.05159e-08
-9.11448e-05
0.000172547
0.000334932
-0.000148179
-0.000102341
0.000134939
3.79636e-06
0.000530534
0.00024761
0.000101159
2.96666e-05
2.58105e-05
9.69855e-05
0.000242745
-8.05991e-05
-0.00092009
0.000525446
0.00104904
-0.000141352
0.00562401
-0.000116204
-4.96421e-05
-0.000106356
0.00105329
0.00202123
0.00202073
0.00410141
0.0121836
0.00143383
0.00402728
0.0121809
0.00254488
0.000573624
-0.000234087
0.000632974
0.0011308
0.00279758
0.00050427
-7.06832e-05
-0.0012009
-2.57222e-05
-1.76286e-05
-1.50349e-05
5.18282e-06
3.62139e-05
0.000100806
0.000231428
-0.000223457
-0.00112927
6.12724e-06
-1.82448e-06
-4.42599e-06
-0.000406966
1.1831e-05
-0.000310932
-5.07713e-05
4.02833e-06
8.79487e-06
-2.31454e-06
-3.67558e-06
-2.9039e-09
2.47559e-06
-1.27453e-05
-1.34743e-05
4.75612e-06
2.62908e-05
-2.14715e-05
-3.09371e-06
-8.20354e-06
6.84819e-06
3.07444e-06
6.68561e-06
-4.95579e-06
0.00011936
-0.00298839
-0.000291004
0.000105017
-0.00138835
-0.00103591
5.49459e-05
4.0292e-06
-1.05649e-09
-1.6683e-05
5.89269e-09
1.99888e-08
6.4048e-08
-0.000184869
-0.000353868
-4.95523e-05
-0.00011548
-9.25371e-05
-9.00876e-05
-9.14327e-05
-0.0124598
-0.0102065
0.0018638
-2.92569e-07
-0.00186395
0.0182004
0.00794161
-1.11417e-05
-6.07043e-06
8.07746e-06
3.50161e-06
0.000120659
-0.00016453
0.000257519
-0.000204213
2.14089e-05
0.000114807
-3.35483e-05
9.14166e-05
-4.08629e-05
-4.39412e-05
-3.34974e-05
-3.37668e-05
-4.04707e-05
-3.39478e-05
-3.36387e-05
-4.45564e-05
-4.11215e-05
-3.52074e-05
-1.09027e-05
1.51992e-05
-1.67095e-05
-4.09096e-05
1.06642e-05
-1.13912e-06
-3.19797e-05
4.52283e-10
3.19769e-05
-1.06717e-05
4.09067e-05
1.09004e-05
1.67079e-05
-1.52007e-05
1.79392e-05
1.56872e-06
3.52281e-05
4.11258e-05
4.45527e-05
3.36396e-05
3.39518e-05
-1.6065e-05
1.98334e-05
1.79557e-05
3.35394e-05
-1.67813e-05
3.37763e-05
3.34961e-05
4.39339e-05
4.08653e-05
3.40719e-05
-7.05728e-09
7.83781e-06
3.07983e-06
1.61687e-05
6.84381e-05
-1.65302e-08
1.47226e-05
-1.61574e-05
-3.0799e-06
-7.83019e-06
2.19373e-08
-2.56118e-05
7.42006e-06
7.17889e-05
3.61917e-08
0.000175826
-0.000175841
-2.09842e-08
-0.000287588
-4.57456e-06
-0.000422735
1.8186e-05
0.000310931
0.000317322
5.07735e-05
-0.000529497
-0.000360004
0.000198494
-3.67597e-05
-0.000149393
-0.000214494
1.16358e-05
2.30783e-05
4.006e-05
5.6687e-05
4.21068e-05
-7.77552e-05
-0.000172453
0.00407658
-0.00326584
-0.0109863
0.00634879
0.0104472
0.00444117
0.01623
0.00397071
0.00683831
0.017417
0.00582998
0.0116963
0.00856047
0.00590281
-0.0132667
0.00441177
-0.000434538
-0.00152554
0.0147312
-0.00448913
0.00743563
1.16826e-08
-0.00743618
0.00448937
-0.0147307
-0.00590271
0.0132667
-0.0116957
-0.00856017
-0.0058297
-0.0174165
-0.0068377
-0.00397042
0.0103232
0.0111979
0.0109864
-0.0104468
-0.00444082
-0.00634885
-0.0175666
-0.00759968
-0.0102064
-0.0144078
-0.00625082
0.00985628
-0.0125986
-0.00168756
0.0194775
-0.0194774
0.0125986
-0.00985653
0.0062502
0.0144068
0.0102067
0.0124604
0.00759953
0.0175659
0.0205815
0.020274
-0.00366772
0.0182003
0.00681114
0.00794144
0.00610271
-1.93489e-05
1.17064e-06
1.9752e-05
-1.35215e-07
0.00940478
-0.00940463
0.00046267
-0.00610292
-0.00794159
-0.00681151
-0.0182004
-0.0202745
-0.0205808
-0.0168385
-0.0172081
-0.0187194
-0.0169613
-0.0172276
-0.0203302
-0.0196636
-0.0173411
-0.00583123
0.00162923
-0.000571384
0.0110143
-0.0102827
0.00702841
-0.00598929
0.00408116
-0.00321552
0.00215891
-0.00157529
0.00104086
-0.000700338
0.000459141
-0.00028144
0.000187192
-0.000104119
-9.57869e-05
-8.1177e-05
-7.22472e-05
-0.000114817
-0.000120689
-3.5184e-06
0.000164534
-7.1797e-05
-7.42905e-06
2.56172e-05
-9.14189e-05
8.92626e-06
-1.16321e-05
-2.30671e-05
-4.00267e-05
-5.66751e-05
-4.19026e-05
7.7795e-05
0.000172454
-0.00407651
0.00326579
0.0011047
0.00302229
-0.000694346
0.00733793
-0.00733784
-0.00302224
-0.00110462
0.00069443
0.0022674
-0.0111982
-0.0103227
0.010429
-0.0123442
-0.00337472
0.000273133
0.00138818
-0.00250528
0.00237569
0.002953
2.30193e-08
-0.00295281
0.00337468
-0.00441173
0.00830483
0.000434052
0.00931708
-0.00931751
-0.0083052
-1.39745e-07
0.00580214
0.00612028
-0.00612052
0.00103566
-0.00580209
0.000362901
3.18316e-07
0.00619687
0.000778727
-0.00695716
0.00192347
-3.84909e-07
-5.27571e-07
-3.89084e-09
0.00773984
-0.00604463
-0.0186914
0.00395285
-0.0152432
0.0176299
-0.0151436
0.0124444
-0.0124448
-0.0012416
-0.00996946
-0.000753513
0.00825043
-0.00605245
-0.000233919
0.00468463
-0.00334087
-6.65825e-05
0.00242965
-0.00167914
-1.32583e-05
0.00114694
-0.000771041
4.61803e-06
0.000492262
-0.000325489
1.03484e-05
0.000193085
-0.000128028
1.2038e-05
7.32297e-05
2.59133e-05
4.98653e-05
-4.98733e-05
1.13784e-06
8.00697e-06
-2.13724e-05
-2.01194e-05
4.46841e-09
1.3874e-05
-1.38702e-05
-1.56769e-05
3.92766e-09
1.57283e-05
-1.57274e-05
-1.26e-05
8.91998e-10
3.18098e-05
-3.182e-05
2.24712e-06
-1.02372e-08
-6.78346e-06
6.80522e-06
-4.97556e-06
2.53219e-05
1.32162e-05
1.2974e-05
5.88726e-06
2.78216e-05
9.16859e-06
-2.53723e-05
-4.04952e-06
2.14754e-05
-2.62863e-05
3.15114e-05
1.27473e-05
1.34801e-05
2.80405e-06
2.60397e-05
3.3137e-06
-2.14055e-05
-3.23934e-06
4.03384e-06
-2.05419e-05
3.48227e-05
3.6637e-07
-1.00279e-06
-2.37774e-05
-5.05726e-05
-9.89452e-05
-0.000172504
-0.000252122
-0.000268968
-0.000241728
0.000149935
0.0108746
0.00914381
0.00869603
0.0121536
-0.0116571
0.00805814
-0.00688971
0.00469709
-0.00367442
0.00248911
-0.0017875
0.00120104
-0.000791322
0.000529501
-0.000317377
0.000214485
-2.1405e-05
0.000204227
-0.000257536
0.00028762
-0.000465006
-4.05092e-09
0.000464975
-0.00073
0.000652292
-0.000508925
0.00076408
-0.0010118
4.00772e-05
-0.00116093
0.000105407
0.000791197
-7.97404e-05
0.000500836
0.000582078
0.000115514
-0.00092014
-0.00101391
0.000646713
-8.44543e-05
-0.000406992
5.55211e-05
0.000229334
-0.00016447
2.36321e-05
7.22389e-05
-1.87541e-05
-1.7957e-05
1.67782e-05
-3.48284e-05
-9.16514e-06
-2.7819e-05
-5.88262e-06
-1.29709e-05
-1.32126e-05
-2.53175e-05
4.95542e-06
-6.68967e-06
-2.24471e-06
1.24333e-05
-3.09133e-06
-2.14731e-05
6.09756e-07
4.05336e-06
2.62848e-05
2.53732e-05
2.05388e-05
-4.0385e-06
-7.188e-06
1.2603e-05
2.01983e-10
-1.12689e-09
8.37961e-10
1.29812e-08
2.72592e-08
3.81883e-08
7.46079e-08
4.02677e-08
3.38305e-08
-2.47088e-08
2.34268e-07
0.00439052
-5.48269e-05
-0.00728498
0.00131207
-0.0162294
-0.00707763
0.0123438
-0.000273176
-0.00138811
-0.00103584
-2.21182e-05
0.000630441
-0.000698546
-0.000107455
-0.00357987
-0.00346204
0.00922165
0.0122027
-0.017062
6.87977e-05
0.0132
-0.0111407
0.0140078
-5.76905e-06
-0.00402684
-0.012182
-0.0121828
-0.0119169
-0.00705498
-0.00708807
-0.00122718
-0.00260975
-0.00171699
-0.00383913
-0.00191605
-0.00106728
-0.000586454
-0.000333741
-0.000501284
-3.53537e-05
-0.000236702
0.000116715
-0.00973049
-0.00856321
0.0060689
0.00541915
0.000737506
-0.0076981
0.000104079
-5.5279e-05
-0.00237554
0.00250549
-0.0022674
-0.000101066
0.00605383
-0.000363328
-0.00212247
0.00152565
-0.00518102
-0.00118725
-0.00511491
4.30575e-08
2.59666e-07
5.96995e-07
3.40455e-07
-9.41384e-08
-1.18525e-07
-7.89201e-08
-1.04441e-07
-4.47416e-08
-1.43351e-09
1.27502e-09
-1.11117e-05
1.11097e-05
1.53812e-05
-9.17946e-06
-3.31827e-05
-8.18508e-05
-0.00017508
-0.00023727
2.37626e-05
-0.00101655
-0.000519902
-0.000244526
-0.000102936
3.19194e-05
8.07372e-05
-0.00145601
-0.00132633
0.000920089
0.00080503
0.000157443
-0.0011427
0.00165632
0.000283411
-0.00236882
0.00312387
0.00047002
-0.00448244
-0.000409687
-0.0051189
0.00356607
0.000505388
-0.00562325
0.00695937
0.000786864
0.000152994
-0.000139446
-0.000169619
-0.000354114
-0.00273528
0.00189862
0.000302848
-0.00298871
0.00398702
-0.000291107
0.000141796
-0.00201986
-0.00410054
-0.00139248
-0.00226968
0.00821835
-0.0104287
0.0326439
-0.00143412
0.00856409
-0.00254501
-0.008147
-0.00478611
-0.00145808
-0.00279751
-0.00057311
5.01648e-05
-0.00202005
-0.00105259
-0.00104849
-0.000525082
-0.000242616
-9.69373e-05
-0.000100359
-3.52008e-05
2.56189e-05
4.90083e-05
-0.000646782
-0.000582202
0.000407007
0.000359958
7.97339e-05
-0.000500848
-0.000115519
-7.50606e-05
-0.00012605
-0.000217911
3.01048e-05
0.000167333
0.0010138
-0.000100538
-7.93982e-05
0.00167905
1.68811e-06
-0.00243
6.68996e-05
0.00334076
-6.01457e-06
-0.00468511
0.000234523
0.00605212
-2.5365e-05
-0.00825082
0.000753736
0.00996938
-0.000143333
-0.0132842
0.00243044
0.0160236
0.00355483
0.00106158
-0.000335863
0.000335858
-0.0160241
-0.00242983
0.0132839
-0.0010618
0.0151437
-0.00773969
-0.0176303
-1.10631e-07
0.0152423
-0.00395289
0.0186924
0.0058316
0.00604459
0.00118712
0.00518129
0.00212222
-0.00192371
-0.00619727
0.0069578
-0.000778844
0.00707783
-0.00605351
-3.56599e-07
5.52845e-08
-8.24905e-09
-1.70963e-08
2.5738e-08
4.97633e-08
0.00124214
-0.0105068
0.0082792
-0.00631765
0.00484587
-0.00484612
-2.70046e-05
0.00345579
5.30378e-05
-0.00256617
1.65674e-05
0.00171943
2.9498e-05
-0.00123704
2.02136e-05
0.000778883
1.48903e-05
-0.000546119
1.80699e-05
0.00032222
8.04182e-06
-0.000223832
1.81436e-05
0.000122352
8.41196e-06
-8.70641e-05
-4.01771e-09
8.70539e-05
-2.59124e-05
-7.32355e-05
-1.20419e-05
0.000128017
3.05623e-06
-0.000193097
-1.03408e-05
0.000325489
4.29538e-06
-0.000492313
-4.5977e-06
0.000771
4.4155e-06
-0.00114707
1.33683e-05
-2.95047e-05
0.001237
2.56505e-09
-0.000778947
0.000546128
-0.000322237
0.000223828
-9.33342e-09
-0.000122361
-8.419e-06
-5.11883e-06
-1.78935e-05
-8.05544e-06
-2.83664e-05
-6.55916e-05
-0.000134182
-0.000241538
-0.000362243
-0.000414415
-0.000478429
0.00047851
0.00511478
0.00708831
0.00122693
0.000413613
0.0105067
1.49295e-05
-0.00827952
-0.000245748
0.00631721
7.28324e-05
0.000207958
1.48673e-07
0.000246218
4.19841e-08
-2.57205e-08
2.72657e-05
-0.0034559
0.00256614
-0.00171953
-1.65622e-05
-2.1172e-08
-2.61269e-08
-8.95845e-09
-2.02211e-05
-5.75158e-09
-1.80505e-05
-9.32283e-09
4.77864e-11
-1.81337e-05
-2.2382e-09
1.44158e-09
2.13738e-05
-8.00809e-06
8.77608e-06
-1.15149e-05
1.15116e-05
-8.77618e-06
2.65701e-05
-4.38372e-06
1.14596e-05
-2.67482e-05
-5.23542e-06
-3.75292e-07
-2.43025e-05
3.51961e-05
8.46361e-06
2.80557e-05
6.43898e-06
1.26779e-05
3.2184e-05
1.29774e-05
-4.28719e-06
-9.18921e-06
-3.12882e-06
2.80247e-09
-3.91229e-09
3.12409e-06
-2.65771e-05
-1.1459e-05
4.37802e-06
-9.33393e-06
5.22987e-06
2.42989e-05
3.72989e-07
-4.0109e-06
3.24074e-06
2.14086e-05
-3.31011e-06
-2.60291e-05
-2.80292e-06
-1.34798e-05
9.21855e-06
9.18812e-06
3.99338e-10
4.89048e-06
9.32749e-06
2.68828e-06
2.26639e-06
1.34481e-05
-9.2184e-06
-4.7531e-06
9.3799e-10
-2.26622e-06
-4.89185e-06
2.01244e-05
-2.69928e-06
5.11438e-06
-2.885e-09
3.50966e-09
7.00166e-09
3.55777e-08
-3.42047e-08
7.81e-08
-0.000261577
-1.46804e-05
0.000261753
0.000242021
0.000143034
-0.0110144
-0.000149418
0.00973058
-0.000787043
-0.00606954
0.000409191
0.00448241
-0.000469849
-0.00312442
-0.00469693
0.000339787
0.00350266
-0.00442839
9.38176e-05
-0.00463173
0.00654176
-0.00806359
3.73573e-05
-0.0081724
0.000424743
0.0068891
-0.00805747
-0.00542054
0.00769824
-0.000737071
0.0116566
6.42022e-06
0.011141
-0.0131992
-6.86036e-05
-0.0140085
-0.0121532
-0.00869681
-0.000104369
0.00856235
-0.00914335
-0.0108756
0.00226986
-0.000630472
0.000698393
-0.0297346
0.000107904
-0.00053209
0.00357954
-0.0319213
0.00346228
-0.0122026
-0.00922212
0.00478564
4.81383e-07
0.000224776
0.000638116
0.0189116
-2.57136e-09
0.0144847
-0.0144845
0.000224425
-0.0107105
-3.70487e-05
0.00806414
-0.00654166
0.00817129
-0.000424763
0.00463111
-9.39384e-05
0.00442867
-0.00350253
-0.000340012
0.00242311
-7.1216e-05
0.00221538
-0.00171285
-0.000202054
-0.00053025
-0.000247488
-0.000101098
-2.96492e-05
-2.57977e-05
-2.94703e-05
-1.56956e-06
1.77515e-05
2.78397e-05
-0.000261552
-0.000229402
0.00016446
0.000149377
3.67367e-05
-0.000198523
-5.55442e-05
-3.91016e-05
-1.81764e-05
-2.36213e-05
5.30397e-06
1.9822e-05
2.9511e-05
-9.25172e-05
1.63716e-05
1.09338e-05
1.53639e-05
2.12544e-05
1.64425e-05
4.0501e-05
-9.00711e-05
2.02973e-05
2.57436e-05
4.40765e-05
7.07593e-05
0.000100652
0.000106698
-0.00013494
-0.00113065
-0.000632691
-0.00033487
-0.000504286
-3.90171e-06
9.1134e-05
0.000147888
-0.00611576
0.00683494
2.70001e-08
0.00490878
-0.00490864
5.12095e-05
0.00354934
-1.0821e-08
0.00245332
-0.00245328
2.56069e-05
-0.00150631
-4.01413e-05
0.00101184
-0.000764098
0.00116077
-0.000105379
2.34073e-05
-0.000231442
-0.000172491
-8.20554e-05
-0.000100799
2.31668e-05
2.5703e-05
-0.000652334
-1.82058e-05
0.000422756
-0.000310976
0.000508883
-5.07594e-05
1.76423e-05
-3.62005e-05
-3.35408e-05
-8.0794e-06
-5.17071e-06
1.50459e-05
1.64964e-05
1.11526e-05
6.10611e-06
3.59078e-05
-9.58146e-06
1.41228e-05
-3.46933e-08
-1.39145e-05
9.49611e-06
-3.58653e-05
-6.84949e-06
-8.19624e-06
-3.15725e-08
-1.2654e-08
1.18304e-05
4.57108e-06
9.58977e-06
7.13872e-06
3.90195e-05
0.000187096
-2.10785e-05
1.52453e-05
8.44713e-05
0.00045084
-4.95685e-05
-4.00216e-05
-1.48878e-05
4.00071e-05
7.94049e-05
0.000138564
0.000252255
0.000269157
2.53797e-05
-0.00702916
0.000313937
0.00562287
-0.000505547
-0.00356616
0.000354217
0.00236872
-0.000283355
-0.00165674
-0.00248879
0.000202182
0.00171293
-0.00221527
7.1184e-05
-0.00242336
0.00317638
-5.12142e-05
-0.00354925
-9.10424e-05
-6.65752e-08
3.06058e-08
-4.89576e-07
0.000234066
-0.000233511
-0.000224471
-0.000638008
0.0170618
-0.0189116
-0.000215212
2.21103e-05
-0.000152907
5.54958e-05
0.000139758
-1.97561e-08
9.6484e-05
-0.000207813
-7.2689e-05
-0.000138486
-5.29595e-05
5.56295e-05
4.30672e-08
1.00527e-08
5.60502e-09
-4.18876e-09
-3.07968e-09
3.02001e-10
4.34774e-10
1.00109e-06
2.37791e-05
5.05724e-05
9.89582e-05
0.000172509
-1.8372e-06
-0.00215897
0.000184915
0.00145584
-0.000167366
0.00132601
0.000217832
0.00114263
-0.000157449
-0.000805173
-0.001201
0.00178718
-7.08099e-05
-8.08036e-05
-3.2218e-05
0.000174886
0.000333391
0.000585858
0.00036233
0.000241528
0.000134229
6.56228e-05
8.17949e-05
3.3162e-05
2.83756e-05
8.42571e-06
9.15528e-06
-1.5391e-05
-1.09549e-05
-1.53749e-05
0.000104109
2.10805e-05
9.57802e-05
-1.98249e-05
-1.98347e-05
9.00747e-05
-3.65869e-07
1.81797e-05
3.91085e-05
7.50789e-05
0.000126111
0.000169721
-9.64028e-05
-5.5638e-05
-0.000302948
-0.00209927
-0.00189862
0.00273492
0.00298849
0.00321523
0.000291032
-0.00408107
5.9366e-06
0.00598902
3.42576e-05
0.000236219
0.0102812
0.00171497
0.000571469
-0.0326448
0.0196648
0.017344
-0.00163003
0.00705366
0.0119173
0.0203309
0.0172283
-0.00821823
0.0169603
0.0187246
0.0172113
-0.00856402
0.0168388
0.0121807