/*--------------------------------*- C++ -*----------------------------------*\
| =========                 |                                                 |
| \\      /  F ield         | OpenFOAM: The Open Source CFD Toolbox           |
|  \\    /   O peration     | Version:  2306                                  |
|   \\  /    A nd           | Website:  www.openfoam.com                      |
|    \\/     M anipulation  |                                                 |
\*---------------------------------------------------------------------------*/
FoamFile
{
    version     2.0;
    format      ascii;
    arch        "LSB;label=32;scalar=64";
    class       volScalarField;
    location    "0.9";
    object      gradTx;
}
// * * * * * * * * * * * * * * * * * * * * * * * * * * * * * * * * * * * * * //

dimensions      [0 -1 0 1 0 0 0];

internalField   nonuniform List<scalar> 
2658
(
0.00833052
0.0123085
0.00397545
-4.14682e-05
-0.0142317
-0.0119894
0.0113003
0.0112007
-0.000131926
0.0169561
-0.0122705
-0.00949324
0.00682591
0.00786413
0.00593778
-0.000354883
-0.000255056
-0.00021508
-0.0064774
-0.00853491
-0.00834672
-0.0193673
-0.0227289
0.0166719
-0.00686169
-0.00917012
-0.0196969
-0.00265479
-0.0144134
-0.0157749
-0.0144131
-0.0196973
-0.00917065
-0.0227301
-0.00686126
0.0166718
-0.00788016
0.00412369
-0.0193643
-0.00834902
-0.00853469
-0.00647692
-0.00021629
0.000612673
-0.00993465
0.00927874
-0.0122703
-0.000517196
-0.000356841
0.00593786
0.00786447
0.00682569
0.0183818
-0.00377344
0.0204042
0.0169054
-0.00868644
0.000271334
-0.029932
0.0170142
-0.00868597
0.0169058
0.020404
-0.00377284
0.00342738
-0.0319595
0.00335287
-0.000667498
-0.00900906
-0.00901005
-0.000116906
0.00807409
-0.000838014
-0.007879
0.000371351
-0.00834059
0.0106056
2.40456e-06
-0.00810066
0.00897919
-0.0122374
-0.000328061
0.0145296
-0.0132548
-0.000259218
-0.000134254
9.8764e-06
3.86401e-05
2.93868e-05
1.63366e-05
7.40259e-06
-5.04021e-06
3.89009e-06
-3.60507e-05
2.17352e-05
-5.45891e-06
-2.68974e-05
2.43993e-08
2.66379e-05
-2.23132e-05
1.15074e-05
2.99709e-05
3.12429e-05
1.95412e-05
2.059e-05
-4.73956e-05
-7.33645e-06
-5.1172e-06
-3.87232e-06
1.2059e-05
2.56619e-05
9.522e-06
1.98638e-05
9.51956e-06
2.56616e-05
1.20599e-05
2.05953e-05
-4.73981e-05
3.12489e-05
1.95474e-05
2.99669e-05
1.14993e-05
-2.23162e-05
2.66379e-05
-4.73074e-05
4.6478e-05
-3.60553e-05
-5.46239e-06
-2.68959e-05
2.17309e-05
-1.20783e-05
-2.98968e-05
-1.8826e-05
-1.713e-05
-1.21324e-05
4.96427e-07
-6.90464e-06
-4.57359e-05
2.93685e-05
2.93551e-05
-6.90426e-06
4.8834e-07
1.03164e-05
-1.294e-05
-1.47322e-05
-1.29112e-05
5.18083e-06
5.45016e-06
-2.67393e-05
-2.78009e-05
-2.28557e-05
-2.89472e-05
-2.86059e-05
-2.93273e-05
-2.5332e-05
-4.28783e-05
-3.74775e-05
-1.63774e-05
-1.99908e-05
-1.50334e-05
7.51273e-07
-1.94922e-07
-1.60808e-06
1.34115e-05
1.92498e-05
1.57347e-05
3.66704e-05
4.92992e-05
-1.13833e-05
5.48858e-05
-0.000159981
0.000261975
-0.00040169
0.000655595
-0.00096444
0.00150282
-0.00212503
0.00314724
-0.0042756
0.00603189
-0.00784311
0.0106364
-0.013127
0.0176713
-0.0175705
0.0186748
-0.0193059
0.0169556
-0.0142324
-4.15324e-05
-0.0119887
0.0033522
-0.0319587
0.00342741
-0.00949342
0.00401297
-0.000259282
-0.00013426
9.79256e-06
3.85868e-05
2.9407e-05
1.63496e-05
7.40589e-06
-5.04097e-06
3.88908e-06
1.06407e-06
-1.34745e-05
-2.57175e-06
1.68763e-05
1.68758e-05
-1.34759e-05
1.06727e-06
-2.56367e-06
4.05889e-06
4.64755e-05
-4.73112e-05
3.55085e-06
3.59512e-05
-2.56773e-06
-5.66493e-07
-4.81615e-06
-3.06353e-07
-9.37443e-08
4.3555e-06
4.17743e-06
4.35535e-06
-2.57544e-06
-7.33275e-06
-2.25616e-05
-5.11168e-06
4.76283e-06
4.76576e-06
-2.25643e-05
-6.48783e-07
1.42296e-05
-1.77979e-05
-1.7805e-05
2.51961e-07
1.42365e-05
-2.67359e-07
-2.49851e-06
-3.33208e-06
-3.22418e-06
1.45811e-05
-3.19055e-06
-5.78688e-07
-2.33802e-05
-1.82558e-06
-1.25101e-05
2.21341e-05
1.87199e-05
3.90951e-05
2.77153e-05
-8.98941e-05
8.22973e-05
-0.000181787
-0.000181777
-3.04037e-06
-0.00024439
6.27024e-06
0.00036923
-0.000592447
6.35533e-06
0.000889653
-0.00135386
-1.07056e-06
0.00195636
-0.00283511
-2.81751e-05
0.00392697
-0.00539654
-0.000101288
0.00723612
-0.0092805
-0.000227512
0.0125771
-0.0140826
-0.000809747
0.0235882
0.00393616
0.0288803
0.0288801
-0.00265431
0.00689629
-0.00231294
0.00951538
0.000564773
-0.00586871
-0.00586865
0.00654287
-0.000283997
-0.00759915
-0.00759903
0.00206533
-0.00253949
-0.0111224
-0.0111224
0.00410442
0.0162722
0.00410455
0.00639232
0.0178194
0.00765319
0.0102617
0.0125134
-0.0193292
-0.0112116
0.0103934
0.00732477
-5.71943e-05
0.00206541
-0.00122263
-0.00330514
0.0132713
-0.0099783
0.00623363
0.0144426
0.00826679
-0.00446338
-0.00595486
-0.00446313
-0.00330532
-0.0112112
-0.019329
0.00765343
0.0178202
0.0063928
0.0103935
0.00732495
0.00826792
0.0144415
0.00623257
-0.00997854
0.0132708
0.00160421
0.0124515
-0.000288145
-0.0129276
0.0194341
-0.000268771
-0.00338916
-0.0199203
-0.00029587
-0.00231927
0.000169429
0.000127286
5.66328e-05
2.57672e-05
1.136e-05
4.30294e-06
1.22523e-06
-6.5448e-06
0.000166665
-0.000182094
0.000180349
-0.000167513
0.000249319
-0.000428311
0.000640094
-0.00102103
0.00148549
-0.00222944
0.00313823
-0.00445021
0.00604762
-0.00810005
0.010605
-0.0132544
-0.000131749
0.0112007
0.0112988
0.00807558
-0.00573788
0.000398363
-0.00573678
0.00476952
0.00663574
0.00659426
-0.00473456
-0.0045781
0.000303648
0.00353582
7.70037e-05
0.00604833
-0.00016047
-0.00697173
0.00675765
-2.14562e-05
-0.00495097
0.0045671
-0.00635575
1.51433e-07
-0.00900367
-4.4316e-05
0.011831
-0.0146372
-8.21135e-05
-0.019306
-0.000729999
0.00927879
-0.000517192
0.00160459
-0.0199205
-0.00338896
0.000550531
-0.000336217
-0.00017474
-0.000150697
-8.44976e-05
-3.9384e-05
-1.75802e-05
-7.87349e-06
-3.57361e-06
-1.60573e-06
-9.16122e-08
-2.99286e-07
-4.80648e-06
2.52909e-07
-5.67365e-07
3.59517e-05
3.54828e-06
-1.24978e-06
-6.62211e-05
6.14029e-05
-6.38766e-05
6.21498e-05
-3.22471e-05
8.93896e-05
-3.91986e-05
0.000110165
1.73915e-05
-0.000208381
-0.000207634
0.000130594
7.22049e-06
7.90842e-06
-6.04056e-06
-2.08811e-07
6.22882e-06
1.47554e-05
2.30277e-05
-1.61793e-05
-1.01815e-05
1.72184e-05
-8.17134e-06
-3.00857e-05
-4.34096e-05
-4.65148e-05
-0.000106412
-0.000109994
2.42685e-05
1.57793e-05
9.71552e-06
-0.000263717
0.000281906
-0.000471099
0.000468199
-9.05503e-06
-0.000291186
-1.49766e-06
-5.08696e-07
-8.78685e-09
1.50254e-06
-6.7807e-05
-0.000135706
-0.000241668
-0.000220907
-0.000415163
-0.000486852
2.81527e-05
3.31315e-05
3.89608e-05
-0.00156986
0.00166815
-0.00247614
0.00247319
-4.13326e-05
-0.00171874
0.00112669
-2.0141e-05
-0.000743486
-2.93769e-06
0.000720911
-0.0011302
3.57297e-06
-0.000677588
0.000435117
2.25618e-06
4.35889e-07
-1.68701e-05
-0.000244354
8.37395e-06
0.000140406
5.81381e-06
-0.000110989
-4.02387e-05
3.10277e-05
-8.54303e-06
-9.1194e-08
-3.94961e-07
4.1453e-06
-6.84559e-06
2.5927e-07
-1.80068e-05
-1.16202e-05
-5.94815e-07
3.82422e-05
2.38266e-06
-1.95663e-05
-1.52341e-05
3.32236e-05
7.95331e-05
0.000165887
4.38451e-06
8.21939e-06
-0.000251202
-0.000460332
-0.000955219
-0.000715564
-0.00139235
-0.00225778
-0.000305763
-3.33578e-05
9.16398e-05
-0.00635555
0.00675724
-0.00900381
0.00897928
-0.00016075
-0.00697125
0.00494681
-8.13404e-05
-0.00362097
-1.0677e-05
0.00351441
-0.00495097
5.14299e-06
-0.00330827
0.00228812
5.01901e-06
2.14607e-06
1.0637e-06
-3.56292e-05
-0.000592416
5.01545e-06
0.000369229
6.2812e-06
2.97283e-05
-0.000435246
0.000625469
-0.00102128
-0.00102129
-6.02083e-08
0.00144981
3.48724e-05
-0.00222164
-5.53265e-07
0.00305101
2.30503e-05
-0.00440296
2.9011e-06
0.00585576
-7.40574e-05
-0.00783483
5.58878e-05
0.0103273
-0.000565774
-0.012199
0.000411428
0.0172354
-0.00289942
-0.0147733
-0.00201066
-0.0147729
0.00393611
0.0235884
-0.000809549
-0.0140817
-0.000539933
0.0125765
-0.000227424
-0.0092804
-0.00024975
0.00723638
-0.000101102
-0.00539567
-9.89458e-05
0.00392714
-2.80403e-05
-0.00283495
-3.41437e-05
0.00195632
-9.74673e-07
-0.00135378
-6.16058e-06
0.000889645
6.4073e-06
3.23872e-05
-6.23494e-05
-3.26634e-05
-1.56209e-05
2.21621e-05
2.20506e-07
-2.68593e-05
-6.71205e-05
-0.000140412
-0.00027864
-0.000513026
-0.000820036
-0.00098049
-0.000460488
0.000700354
-0.00148859
-0.0109012
-0.0109012
-0.0111826
-0.00932587
-0.00297981
-0.00124268
-0.00511655
0.00776953
0.011743
0.000289108
0.000126754
0.000614393
-0.00289897
0.0172344
0.000411841
-0.012199
-0.00124832
-0.000665095
-0.000552938
5.64221e-05
-0.0078347
0.0103269
-0.000565782
-9.22821e-05
-0.000154708
-7.42168e-05
0.00585492
3.12924e-06
-0.00440262
-0.00019052
-0.000382268
-0.000230156
-0.000121058
1.01166e-08
0.00144976
-0.00222161
0.00305087
2.30808e-05
-0.00011605
-6.89104e-05
7.34207e-06
3.34045e-06
1.44535e-06
-2.12069e-05
-3.03437e-06
0.000243761
1.07488e-05
0.000243782
2.97047e-05
-0.000435231
-9.01627e-07
0.000625551
3.24141e-05
-3.56277e-05
-5.5206e-05
-8.90585e-07
-8.719e-07
-1.68664e-05
-8.54064e-06
-0.000110995
5.81455e-06
0.000140403
3.10234e-05
8.22948e-05
-1.25093e-05
-8.98955e-05
1.11018e-05
2.77179e-05
3.90993e-05
1.87127e-05
4.92972e-05
2.214e-05
8.98719e-06
-1.3479e-05
8.55928e-06
-3.18966e-06
-3.33002e-06
1.4581e-05
-3.22524e-06
2.1861e-06
-7.98391e-08
-9.3729e-08
-7.94609e-08
-1.24577e-07
2.32909e-08
2.18706e-06
-2.65527e-07
8.56014e-06
-3.87819e-06
-1.34828e-05
8.98438e-06
-3.49918e-07
3.9854e-06
3.44028e-06
-2.6407e-06
-1.47881e-05
3.90069e-06
-8.71799e-06
1.53911e-05
4.74102e-05
-3.28143e-05
7.84738e-06
3.62816e-06
2.08462e-06
3.26734e-06
-6.18976e-07
-5.38661e-07
-1.89503e-06
-4.2051e-06
-9.01659e-06
-1.96117e-05
1.52788e-05
3.32425e-05
8.28669e-05
0.000202076
-0.00107807
-0.00356593
0.0133387
-0.00231295
0.00689641
-0.0149808
-0.00707134
-0.00707068
-0.0149817
-0.00762464
-5.77061e-05
-0.0133669
0.0218656
0.00158915
-0.000830394
-0.0154705
-0.00135823
0.00947215
-0.00708487
-0.0154203
-0.0128731
-0.0126226
-0.00894064
0.00100297
0.00204345
0.000997851
0.000377278
-0.012782
0.000998275
-0.00762388
-0.0133672
-5.70911e-05
0.00426762
0.00158962
-0.0154707
-0.000830124
0.00199789
-0.000268648
0.0194344
-0.0129282
-0.000287692
0.0124523
0.00098001
-0.000511826
0.00204406
0.00164409
-0.00396603
0.00426794
0.00297792
0.000267117
-0.001395
-0.000511265
-0.000139821
0.000979449
-0.00191819
-5.72729e-05
-0.00122247
0.000550555
-0.000336296
-0.000730247
-0.000383466
-3.68537e-05
4.52831e-06
0.000109531
-0.0110985
0.0118309
-0.0146378
0.01453
-0.000328691
-0.012237
-4.42025e-05
-0.000310256
0.000603038
0.000320665
-0.00018627
-0.000110707
-6.15342e-05
-3.18655e-05
2.04727e-05
0.00104507
-3.04425e-05
-2.8364e-05
-0.000518527
4.07355e-05
-0.000516665
0.000761852
9.00375e-05
-0.00117063
-0.00118612
0.000775502
3.92226e-05
0.00173178
0.00017875
-0.00242437
-0.00247808
6.4564e-05
0.0035361
0.000303155
-0.00457744
-0.00473486
7.71462e-05
0.00659446
0.000371148
-0.00787838
-0.00834166
2.91722e-06
0.000519904
0.00139772
0.00457929
-0.000203559
-0.000247515
1.72877e-05
-0.000388972
0.00252287
0.00279914
0.00397465
0.0019911
0.00104075
0.000527729
0.000250628
0.000107456
2.98047e-05
-4.35792e-05
-8.7865e-05
-0.000374062
4.91686e-05
-0.000373919
0.000544634
0.000107618
-0.000852726
-0.000852973
0.000544835
5.89512e-05
2.85854e-05
1.13661e-05
-6.13316e-06
-2.72178e-06
-2.22921e-05
-1.81636e-05
8.98174e-05
-1.81216e-05
8.63217e-05
2.08488e-05
-0.000147169
-0.000147287
8.6427e-05
-1.47303e-05
2.31825e-05
-4.54459e-06
-4.58017e-06
3.07131e-05
-3.98304e-06
2.32093e-05
-3.92441e-05
8.94205e-05
-3.22286e-05
0.000130592
1.73909e-05
-0.000207593
-0.000208497
0.000110299
-2.22859e-05
-6.13253e-06
-9.27356e-08
1.22431e-06
8.36968e-06
-0.000159985
-6.53725e-06
-0.000263737
2.26537e-06
-0.00047114
-2.92741e-06
-0.000743485
-2.01341e-05
0.0011268
-0.00102117
3.92104e-05
-0.00118605
-0.00117092
8.99405e-05
0.000775514
-0.000518476
-0.000516802
4.06812e-05
0.000319419
2.0325e-05
0.000640206
-0.0004284
0.000468241
-0.00029119
-9.05304e-06
0.000249384
7.21696e-06
-0.000167559
0.000180366
-1.50229e-06
0.000281924
-0.000182104
0.000166668
-6.62256e-05
-3.90749e-07
6.1407e-05
2.883e-07
-6.38796e-05
-2.71799e-06
6.21757e-05
3.09133e-05
-1.50283e-05
7.54706e-07
2.59627e-07
-6.83724e-06
4.14511e-06
1.72149e-05
2.30296e-05
2.21716e-05
-1.56264e-05
-3.26823e-05
-1.61759e-05
-4.65238e-05
-6.24896e-05
-0.00012116
-0.000106451
-0.000220822
-0.000218235
-0.000217526
-0.000120903
3.47998e-05
-0.000308271
-0.000310188
-0.000414826
-0.000715971
-0.000216785
-0.000213805
6.64823e-05
6.61386e-05
-0.00139374
-0.0111833
-0.00933381
-0.00298311
0.0176713
3.06776e-05
-0.0175701
0.000289201
-0.00993446
-0.00038892
-0.000295797
-0.00231926
0.000169521
0.000127267
5.67e-05
2.57407e-05
1.13633e-05
4.30658e-06
5.01756e-06
-0.000401704
-1.64505e-05
-0.000677606
3.55495e-06
-0.00113028
-5.46529e-06
-0.00171886
-4.1306e-05
0.00247332
-0.00222969
6.44714e-05
-0.00247797
-0.00242491
0.000178741
0.00173167
0.00171636
-0.000173259
0.00122921
0.000208858
-0.0017666
-0.00176699
0.00122954
-0.000173217
0.00171601
-7.54996e-05
0.000254448
0.000108606
3.96976e-05
2.39824e-05
-1.47245e-05
-5.98575e-07
-2.53117e-05
-2.94886e-05
-2.14048e-05
-1.21337e-05
-1.71359e-05
-1.88346e-05
-3.28036e-05
-2.98963e-05
-1.20738e-05
-1.99791e-05
-1.63766e-05
7.86055e-06
-3.74858e-05
-4.2896e-05
-1.16193e-05
-6.04516e-06
-2.08785e-07
6.22305e-06
1.9254e-05
1.34117e-05
-1.25426e-06
-1.60403e-06
-1.9781e-07
-2.61615e-05
5.48883e-05
-4.02402e-05
-1.13925e-05
1.57414e-05
3.66555e-05
1.47408e-05
-8.15837e-06
-1.01972e-05
1.57616e-05
0.000261986
9.72332e-06
0.000435131
-3.01059e-05
-4.3317e-05
2.41893e-05
0.000655592
-0.000964577
-3.03922e-05
-0.00157005
5.0564e-06
0.00228811
-0.00247623
-1.06779e-05
-0.00362119
-8.14123e-05
0.0049469
-0.00445043
0.00313857
-0.0001105
6.54623e-05
-0.00330847
5.05292e-06
0.00351463
-1.75856e-05
-7.88896e-06
-3.57706e-06
-1.60173e-06
4.41838e-07
1.0975e-06
2.12591e-06
-6.88698e-05
-0.000115925
3.61894e-06
3.65953e-06
8.29654e-06
1.87194e-07
0.00828633
-3.04127e-05
3.40989e-05
-3.4625e-06
0.0134216
3.06049e-05
-0.000331317
-0.000191851
-0.00010828
-5.77726e-05
-2.86935e-05
-1.30521e-05
-4.16751e-05
0.000308214
0.000221888
0.000221764
0.000308387
-4.16697e-05
-1.30523e-05
-2.872e-05
-8.78389e-05
0.000762122
-4.35318e-05
-2.2642e-05
3.82647e-05
0.000107517
0.000250662
-7.54306e-05
-3.50216e-05
-2.82956e-05
-3.18479e-05
2.05332e-05
0.0010451
-6.79168e-05
-0.00010974
3.29659e-05
0.00150289
-0.00212515
-5.08311e-05
0.00314736
-0.00427581
-6.75614e-05
0.00603214
-0.00784359
-2.977e-05
-0.0110987
-3.32485e-06
0.0134206
-0.0131279
-0.000539649
0.0106363
-0.000250154
-0.000305415
-3.37045e-05
2.79232e-05
-0.000241137
-0.000135923
-0.000251979
-0.000484922
-0.000461021
-0.000950594
-0.0012425
-0.00226201
-0.00511899
0.00776898
-0.00787992
0.00412203
-0.0126229
-0.0154201
-0.00708488
0.00947226
-0.00135869
0.000612288
0.0117425
1.79646e-05
0.018675
-0.000150729
-8.4492e-05
-3.94786e-05
-4.26928e-05
-8.95728e-05
3.39183e-05
-9.21273e-05
-0.000154665
8.19062e-06
-0.000191828
0.000127085
0.000100438
-0.000108283
-5.77471e-05
-0.000313475
0.00352942
0.00253584
0.000344096
-0.00333075
-0.00333127
0.00253639
-0.00031351
0.00352897
-0.000113755
-1.81773e-05
0.000210568
-3.52964e-05
8.89625e-05
9.76971e-05
0.000473084
-0.000132433
0.00663449
0.00477041
-0.000525508
7.07113e-05
-3.35353e-05
0.00240738
-6.23944e-05
0.006543
-0.000128535
0.000126789
0.000614584
0.00297696
0.00951582
-0.00396654
0.000266726
-0.00139485
-0.00894009
0.0218652
-0.0128726
0.00100323
-0.000140089
-0.000831221
0.00401301
0.00027094
0.00133101
0.00410217
-9.76543e-05
-0.000838158
0.00133041
0.0123078
0.00833319
0.0208991
0.0118647
0.0170148
0.0187193
-0.000667576
0.00205339
0.00107113
0.00053928
-0.000113626
0.000527551
0.00104081
-0.000132073
-0.000525592
9.83134e-05
-1.81507e-05
0.000165838
7.95374e-05
3.32614e-05
7.91707e-06
-5.17192e-07
-4.47399e-08
1.40595e-06
3.90496e-05
0.00166829
4.16454e-06
7.94599e-06
9.20314e-05
0.00828572
0.000109771
-0.000309491
-0.000185943
0.000320475
0.00060297
3.98879e-06
-3.7547e-05
-0.000202996
-0.000383962
0.00139771
0.00457884
0.00252251
0.000519777
-9.68595e-05
0.0019901
0.00110233
0.00279974
0.000473496
-6.15134e-05
0.0014857
-1.52306e-05
-1.95354e-05
-1.79775e-05
2.40873e-06
2.98353e-05
8.91682e-05
0.000212003
-0.000331201
0.00109836
-9.92454e-05
-3.42041e-05
-6.16519e-06
0.000720929
-2.26519e-05
0.000319423
2.03206e-05
3.4422e-06
3.98503e-06
-3.49738e-07
-8.71865e-06
4.71799e-06
3.90252e-06
-1.47869e-05
-2.64008e-06
-1.23852e-07
4.74096e-05
1.54066e-05
-4.57393e-05
-2.82584e-05
3.06463e-05
-4.0013e-06
1.03055e-05
-2.13757e-05
6.52275e-05
0.00456699
-6.73024e-05
-8.20108e-05
0.00199797
-0.000128239
-0.00191866
4.05845e-06
2.74949e-05
-3.82145e-07
-8.06673e-05
-2.86472e-05
-0.000492314
-5.08757e-05
-2.13659e-05
-1.64361e-05
-5.49993e-06
-2.61639e-05
2.87076e-07
3.0927e-05
0.0125141
0.010262
8.72545e-05
-0.00134422
8.65883e-05
0.0183821
0.0209
-1.15971e-05
-5.93395e-07
3.82641e-05
1.73922e-05
0.000130585
0.000110179
-0.000208396
-0.00020761
7.21895e-06
-0.000167514
6.21483e-05
3.09193e-05
-1.63908e-05
-1.99967e-05
-1.50358e-05
7.53685e-07
-1.95454e-07
-1.60647e-06
1.34239e-05
1.92534e-05
1.57396e-05
3.66955e-05
4.93003e-05
-4.02324e-05
2.21433e-05
1.87301e-05
3.9104e-05
8.99943e-06
2.77208e-05
2.74996e-05
2.77228e-05
3.91027e-05
1.87282e-05
4.9303e-05
2.2141e-05
-4.02334e-05
5.48853e-05
-1.13852e-05
3.66885e-05
1.57428e-05
1.92613e-05
1.34167e-05
-1.61201e-06
-1.25135e-06
6.14074e-05
-6.38691e-05
6.21589e-05
2.55844e-07
7.64053e-07
-1.50415e-05
-1.9996e-05
-1.6381e-05
-3.75087e-05
7.84545e-06
-4.28912e-05
-3.98472e-06
2.32059e-05
-1.81279e-05
8.98111e-05
-4.55403e-06
2.31781e-05
-4.00541e-06
-4.28699e-05
7.83832e-06
-3.22509e-05
8.93882e-05
-3.9199e-05
-2.22887e-05
8.64116e-05
8.63224e-05
2.08374e-05
-0.000147266
-4.16728e-05
0.000308248
4.06971e-05
0.000319419
-0.000428335
2.03453e-05
0.000640089
-0.000743435
0.0004682
-9.04974e-06
-0.000291166
0.000249317
7.40489e-06
1.6348e-05
2.94307e-05
3.87059e-05
9.95196e-06
-0.000133997
-0.000258899
0.00401313
-0.00330524
0.0132711
-0.00997799
0.00160443
0.012452
-0.000288021
-0.012928
0.00947214
-0.00708473
-0.0154197
-0.0126224
-0.0128725
-0.013367
0.0218653
0.0042676
0.00297771
-5.77807e-05
-0.00762486
-0.0149813
-0.00707127
-0.0127822
-0.00707087
-0.0149821
-0.00762469
-0.0133676
0.0218651
-0.0126223
-0.0128728
-0.0154202
-0.00708474
0.00947206
-0.0129282
0.0194341
-0.0199203
0.0132709
0.00160479
0.0124522
-0.0099781
0.00623204
0.0144409
0.0102613
0.00765254
0.0178187
0.0063926
0.00410387
0.0103928
-0.011123
-0.0111227
0.0041039
0.0063921
0.0178185
0.00765245
0.0102609
0.0125122
0.0144421
0.006233
0.00786413
0.00682517
-0.00377391
0.0183814
0.0204035
0.0208978
0.0169055
0.0170141
0.0187188
0.0170145
-0.0299324
0.000270661
0.000271071
-0.00868746
0.0169052
0.0208978
0.0204037
0.0183821
0.00682484
0.00786411
0.00593829
-0.000354676
-0.000254791
-0.000215157
-0.00647738
-0.00853492
-0.00834724
-0.0193656
-0.0227284
0.00412253
-0.00787999
0.017671
-0.0131273
0.0106363
-0.00784354
0.00603181
-0.00427575
0.00314718
-0.0021252
0.0015029
-0.000964483
0.000655601
-0.000401713
0.000261987
-0.000159986
0.000166662
-0.000182086
0.000180356
-0.000167538
0.000130579
1.73781e-05
0.000110282
-3.92426e-05
8.94134e-05
-3.22335e-05
3.09092e-05
-5.04197e-06
7.40745e-06
1.637e-05
2.9406e-05
3.85895e-05
9.78395e-06
-0.000134223
-0.000259162
0.00401292
-0.00330517
-0.00122272
0.00206522
0.000550417
-0.00759893
-0.007599
0.00206523
-0.0012226
0.000550508
-0.00338898
-0.0199204
0.0194342
-0.00135844
-0.0154706
0.00158909
-0.000830371
0.00199804
-0.000268452
-0.000295815
-0.00231934
-0.00107817
-0.00231931
0.00158879
0.00426748
0.00951529
0.0029778
-0.00231313
-0.00231301
0.00951545
0.000564396
-0.00586878
0.00654283
0.00654278
-0.000128436
-0.00586877
0.000266729
0.0016441
0.00204327
0.00100333
-0.00894039
0.000997189
0.000376693
0.0133389
-0.0035662
0.00393589
-0.00686169
-0.00917066
-0.0196984
-0.0144135
0.0288806
-0.0147731
0.0172344
0.0172351
0.000411596
0.0125768
-0.00022733
-0.00928048
0.00723627
-0.000101021
-0.00539582
0.00392705
-2.80389e-05
-0.00283492
0.00195638
-9.86048e-07
-0.00135389
0.000889677
6.39121e-06
-0.000592429
0.000369237
6.26773e-06
-0.000244368
0.000140409
5.81675e-06
-0.000110975
-1.25014e-05
-8.98804e-05
-8.98818e-05
8.9983e-06
-1.34692e-05
4.76449e-06
-2.25574e-05
-6.51689e-07
1.42339e-05
1.42292e-05
-1.77962e-05
-5.3582e-07
1.688e-05
1.68783e-05
-1.34771e-05
2.08391e-06
2.93653e-05
2.93532e-05
-6.90572e-06
5.17859e-06
-1.29081e-05
-1.29423e-05
-2.13997e-05
-1.21337e-05
-1.71453e-05
-1.88474e-05
-2.99018e-05
-1.20795e-05
2.17307e-05
-3.60593e-05
3.88795e-06
1.54038e-05
4.74044e-05
-3.28229e-05
-1.47925e-05
-2.6421e-06
-2.68967e-05
2.78575e-08
2.66374e-05
-4.73024e-05
-2.98775e-07
4.06141e-06
4.64746e-05
-5.46705e-06
-9.13333e-08
4.35906e-06
1.22725e-06
4.30041e-06
1.13504e-05
2.5765e-05
5.66853e-05
0.000127395
0.000169524
3.0711e-05
-0.0175706
0.0186749
-0.0193059
0.0169555
-0.0132539
0.0106049
-0.00809965
0.00604732
-0.00445001
0.0031381
-0.00222948
0.00148551
-0.00102109
0.000640155
-0.000428366
0.00024937
7.21025e-06
-0.000207582
-0.000208474
-0.000147198
0.000221772
4.91808e-05
0.000221852
-0.000373998
-0.000516712
-0.000518487
0.000775491
0.000761934
8.99202e-05
-0.00118605
3.92759e-05
-0.00102112
-2.01044e-05
0.00112672
-0.00113018
-5.45563e-06
0.00166816
-0.00156982
0.00104506
3.59371e-06
0.000720878
-2.91791e-06
-0.000471093
0.000281901
-1.50089e-06
0.000180352
-2.72001e-06
-6.38723e-05
2.64843e-07
-5.46077e-06
2.17318e-05
-1.20862e-05
-2.99042e-05
-1.88468e-05
-1.71366e-05
-1.21336e-05
-2.1369e-05
1.02977e-05
-6.90761e-06
4.98734e-07
-4.57291e-05
1.53914e-05
1.0585e-06
3.88637e-06
4.74018e-05
-3.60503e-05
4.64723e-05
4.06252e-06
-2.56746e-06
-1.34774e-05
3.27235e-06
1.137e-05
2.85971e-05
5.89482e-05
0.000100447
0.00012709
7.0902e-05
-3.34368e-05
0.00240734
-0.00253976
-0.00595496
-0.00446324
-0.00191862
0.000979799
-0.000140263
-0.000287573
-0.00139487
-0.0154705
-0.000830305
0.00199787
-0.000128221
0.00012669
0.000289134
-0.00993478
0.00927891
-0.0122703
0.00342719
-0.0319595
0.00335197
-0.011989
-4.11009e-05
0.0112993
0.0112006
-0.0142325
-0.000131696
0.00139758
0.00457933
-0.000203339
-0.00511798
-0.00932746
-0.0111824
-0.00139195
-0.00226567
-0.00298255
-0.0012423
-0.000460915
-0.000948725
-0.000716681
-0.000415746
-0.000484677
-3.34979e-05
-0.00030578
0.000109823
0.0134208
-0.0146373
0.0118306
-0.012237
-0.000328546
0.0145298
-8.22868e-05
-0.000150653
-0.00029594
-0.000268715
-0.00338902
-5.73568e-05
-0.000511406
0.000267061
-0.003966
-5.77215e-05
0.00689639
-0.0026543
-0.0109015
-0.00148805
0.000701101
-0.000460556
-0.000981226
-0.000820033
-0.000513284
-0.00027867
-0.000140458
-6.71139e-05
-2.68584e-05
2.3019e-07
2.21663e-05
2.2168e-05
2.3028e-05
-1.6173e-05
-4.65609e-05
-0.000106573
-0.000221242
-0.000240866
2.80281e-05
-0.000251677
-0.000135983
-6.79283e-05
-0.000109548
3.30571e-05
3.90536e-05
0.00228805
-0.00247621
0.00166813
-0.00171872
-4.13186e-05
0.00247327
-0.0036209
-8.13103e-05
0.00494678
-0.00697149
-0.000160395
0.00897852
-4.38408e-05
-0.00900349
0.00675742
-2.81738e-08
0.00828608
-0.0110989
-3.49321e-06
3.40885e-05
-8.43874e-05
-3.94352e-05
-2.14421e-05
-0.00495087
0.00351435
5.19019e-06
0.00456682
-0.0063555
-6.74459e-05
9.22295e-05
4.16419e-06
-3.7566e-05
1.75942e-05
0.0117425
0.000612503
-0.00135855
0.00776853
-0.000383508
-0.000516742
0.00252198
0.00833118
0.0123072
0.00397407
0.00280508
0.00052027
-0.000310242
0.00060318
0.000320722
7.98504e-06
4.29302e-06
1.41133e-06
-2.22597e-08
-3.01193e-05
-4.31171e-05
2.4238e-05
2.05371e-05
0.00104507
-0.00113023
0.000720905
-0.000743478
-2.01494e-05
0.00112676
-5.51105e-06
-7.87843e-06
-1.75761e-05
-1.06739e-05
2.14202e-06
5.0638e-06
-0.00156997
-3.04476e-05
-6.88734e-05
0.00195633
-3.41338e-05
-0.00283526
-2.82048e-05
0.0039271
-9.86637e-05
-0.00539609
-0.000101263
0.00723595
-0.000249471
-0.00928033
-0.000228176
0.0125766
-0.000539939
-0.0140817
-0.000809683
0.023588
0.0166712
-0.00289974
0.000614523
0.000614449
0.0235884
-0.000809584
-0.0140816
-0.00289962
-0.0147725
0.00393619
0.0288803
-0.00201018
-0.0144132
-0.0196972
-0.00917027
-0.0227294
-0.00686163
-0.00265413
0.00689641
-0.00396615
0.000997531
0.00204384
-0.00894029
0.00100354
-0.00139494
-0.000511796
-0.000831231
-0.000284017
-6.24561e-05
-0.000174713
0.000202048
-0.000665272
0.000411573
-0.0121985
0.0103278
-0.00783496
0.00585526
0.00585501
3.1676e-06
-0.00440288
2.31773e-05
0.00305082
-4.49227e-07
-0.00222163
3.49203e-05
0.00144978
-2.63604e-08
-0.00102138
3.24183e-05
0.000625531
-9.00826e-07
-0.00043523
2.97268e-05
0.00024377
-3.03323e-06
-0.000181778
3.10352e-05
8.23042e-05
1.11045e-05
8.22982e-05
-1.25043e-05
-0.000110984
5.81516e-06
0.000140412
8.37698e-06
-0.000244371
6.27148e-06
0.000369232
5.03746e-06
-0.000592447
6.37057e-06
0.00088964
-6.14499e-06
-0.00135391
-1.06541e-06
3.48757e-05
0.00144976
-2.85774e-05
-0.00102131
0.000625507
-0.00043522
0.00024377
1.07384e-05
-0.000181778
3.10242e-05
-8.53842e-06
-1.68627e-05
2.97263e-05
-3.27192e-05
-6.2511e-05
-0.000121255
-0.00021835
-0.000309669
-0.000214822
6.66345e-05
6.69364e-05
-0.0109012
-0.0111822
-0.00139183
-0.00021564
-0.0121979
-0.000566243
0.0103277
5.62009e-05
-0.00783479
-7.41466e-05
-0.000154655
-0.000553048
5.59784e-05
-0.000492038
-0.000382231
3.06727e-06
-0.00440284
0.00305096
-0.00222173
-5.2286e-07
-0.000230034
-8.03725e-05
-0.000121014
-5.71858e-08
-5.51936e-05
-9.07079e-07
-8.25704e-07
-2.1202e-05
-3.03187e-06
-1.81892e-06
-2.33667e-05
4.77006e-06
-1.34651e-05
2.5675e-05
9.53821e-06
9.53617e-06
2.56748e-05
1.20707e-05
-3.87066e-06
2.05961e-05
-4.7392e-05
-2.57314e-06
-5.61935e-07
3.59512e-05
3.5476e-06
-2.23121e-05
1.15104e-05
2.99772e-05
1.95554e-05
3.12484e-05
1.45845e-05
-3.22464e-06
-3.3329e-06
-3.18364e-06
-5.72229e-07
1.98715e-05
-3.18338e-06
1.20744e-05
2.06042e-05
-3.86844e-06
-7.33271e-06
-2.56601e-06
3.59552e-05
-5.62565e-07
-4.81199e-06
-3.04862e-07
-4.73053e-05
2.66398e-05
2.09904e-08
-2.68971e-05
-2.64076e-06
-7.86012e-08
-3.32877e-06
-2.49892e-06
8.55949e-06
-7.33483e-06
-5.11162e-06
-2.64858e-07
2.18577e-06
-7.74321e-08
-1.22427e-07
-9.23127e-08
-2.65682e-07
8.56156e-06
-2.25608e-05
-5.1028e-06
-8.54004e-06
1.44769e-06
3.34253e-06
7.34718e-06
1.5268e-05
3.32865e-05
8.28149e-05
-9.22859e-05
-0.000565482
-9.22841e-05
0.000169382
-0.000539643
0.0176714
3.04887e-05
0.0134213
-3.26689e-06
0.0118309
-4.40883e-05
0.0089793
-0.000160519
-0.00697128
0.00604775
7.72865e-05
0.00353572
0.00352913
0.000303258
-0.00473487
0.00659347
0.00663496
0.000370884
-0.00834131
3.21719e-06
-0.00810069
0.010605
-0.0122371
0.0145296
-0.000328114
-0.0132547
-0.000131274
0.0111998
0.0112997
-4.15183e-05
-0.0142321
0.0169562
-0.0193059
-8.20612e-05
-0.0146373
0.018675
-0.0175704
0.011743
0.000289223
-0.00993473
-0.000388899
0.00927911
-0.000730159
-0.0122707
-0.00949285
0.00342714
0.0033527
-0.0319604
0.0123079
0.011864
0.0013302
-0.000667673
-0.00901069
-0.000116443
0.00807392
0.00807506
-0.000837197
-0.00787763
0.000370967
0.00663422
0.00659432
-0.00834128
2.65493e-06
-0.00473491
0.00030347
0.00352894
0.00353604
7.71525e-05
-0.00247808
0.000178732
0.00171595
0.00173177
6.45371e-05
0.000165973
7.96264e-05
3.32669e-05
7.91675e-06
-5.24046e-07
-8.16108e-06
-1.02874e-05
1.57775e-05
9.72335e-06
0.000435119
-0.000471108
0.000281931
-0.000291195
-9.03666e-06
0.000468229
-2.93926e-06
-3.58066e-06
-1.60057e-06
-1.50892e-06
-9.20065e-08
-3.92355e-07
-6.62201e-05
-2.6156e-05
6.22798e-06
1.47654e-05
1.72019e-05
4.15293e-06
-2.07426e-07
-1.98665e-07
2.90104e-07
-6.84223e-06
-1.52278e-05
-3.18497e-05
-6.15425e-05
-0.000110699
-0.000186279
9.87333e-05
0.00110013
0.00198947
0.00104052
0.000475942
-1.79227e-05
-0.0001137
-0.000132258
-0.00457729
-0.00333143
0.000343891
0.00253565
0.0025362
-0.000313517
-0.0017671
0.000209035
0.00122917
0.00122943
-0.000173243
-0.00117068
9.00052e-05
0.000761957
0.000775577
-0.00118611
3.92826e-05
-3.48822e-05
0.000213117
0.000527364
0.000250577
8.92787e-05
-2.8372e-05
-4.3566e-05
-0.000516732
4.06926e-05
0.000308312
0.000319444
-0.000518451
2.03253e-05
-1.95497e-05
2.97833e-05
0.000107489
3.82662e-05
2.33257e-06
-1.79936e-05
-6.0534e-06
-1.16514e-05
-5.95863e-07
-2.53127e-05
-2.94818e-05
-2.67395e-05
-2.28472e-05
-2.77996e-05
-2.932e-05
-2.53328e-05
3.06453e-05
-2.8601e-05
2.39815e-05
3.9696e-05
-2.26312e-05
-4.16767e-05
-1.30425e-05
4.41062e-07
2.26278e-06
-0.000263739
-6.54123e-06
1.09161e-06
3.59116e-06
-0.000677597
-1.64313e-05
-3.56322e-05
3.24334e-05
-3.56188e-05
-6.8875e-05
-0.000115971
5.66397e-05
0.00012734
-0.000249825
0.0106364
-3.03665e-05
0.00828638
1.41674e-07
0.00675735
-2.15568e-05
0.00494708
-8.14473e-05
-0.00362089
0.0031383
6.46161e-05
0.00173162
0.0017161
0.000178635
-0.00247783
-0.00242493
-0.00031361
-0.00176666
-0.000113806
0.00107051
0.00205203
0.00410122
-9.79323e-05
-9.78847e-05
0.00132999
-0.000667557
-0.0119904
-0.0090092
-0.000336201
0.000126721
3.39914e-05
-0.000150688
-8.44954e-05
-8.95664e-05
8.23297e-06
-0.00015458
-7.42357e-05
-0.000115971
2.32384e-05
3.65821e-06
-4.26613e-05
-1.96107e-05
-8.99001e-06
-4.20138e-06
-1.89346e-06
-6.17326e-07
4.17748e-06
4.36172e-06
1.22785e-06
4.31471e-06
1.13492e-05
2.57299e-05
-3.39331e-05
0.00314696
-5.0823e-05
0.00228816
5.10081e-06
-0.00247619
-1.06783e-05
0.00247324
-4.13245e-05
-0.0017187
0.00148552
-0.00222961
-6.16333e-05
3.8939e-05
3.31516e-05
-0.000221257
-0.000415757
-0.000715802
-0.000308276
-0.000217672
-0.000120887
-6.23152e-05
-0.000106652
-4.65995e-05
-3.26098e-05
-1.56163e-05
-1.61543e-05
2.30326e-05
1.47886e-05
1.7222e-05
-0.000159973
-6.53355e-06
0.000166662
-3.87056e-07
6.14074e-05
2.87553e-07
-9.13463e-08
-1.60121e-06
-3.57803e-06
-7.88065e-06
-1.76125e-05
-3.93913e-05
8.29515e-06
3.63116e-06
5.09426e-06
-0.0033081
0.00351432
-0.00495098
0.00456717
-0.00427578
-6.75618e-05
0.00603165
-9.87517e-05
-0.00784354
-3.29361e-05
-0.000305173
-0.0131276
-0.00298158
-0.00788032
0.00776918
-0.00834901
-0.019364
0.00412279
-0.00932544
-0.00511734
-0.00853443
-0.00647689
0.000612693
-0.000216036