/*--------------------------------*- C++ -*----------------------------------*\
| =========                 |                                                 |
| \\      /  F ield         | OpenFOAM: The Open Source CFD Toolbox           |
|  \\    /   O peration     | Version:  2306                                  |
|   \\  /    A nd           | Website:  www.openfoam.com                      |
|    \\/     M anipulation  |                                                 |
\*---------------------------------------------------------------------------*/
FoamFile
{
    version     2.0;
    format      ascii;
    arch        "LSB;label=32;scalar=64";
    class       volScalarField;
    location    "200";
    object      epsilon;
}
// * * * * * * * * * * * * * * * * * * * * * * * * * * * * * * * * * * * * * //

dimensions      [0 2 -3 0 0 0 0];

internalField   nonuniform List<scalar> 
12225
(
1085.71
2467.78
3645.44
4414.75
4812.15
4980.51
4972.17
4932.34
4837.8
4728.4
4620.57
4517.2
4425.59
4339.6
4269.15
4198.57
4151.13
4085.58
81.2295
262.521
438.551
584.508
691.141
762.894
804.756
829.897
846.879
856.74
866.676
873.582
883.078
890.81
900.656
909.938
918.693
932.933
20.5775
51.1733
83.4742
112.529
136.933
156.185
170.164
179.878
186.394
190.767
193.501
195.602
196.871
198.367
199.317
201.002
201.37
206.406
14.7578
21.8684
30.0216
38.4982
46.2198
53.034
58.6262
63.2586
66.7592
69.6421
71.6152
73.3284
74.3217
75.3292
75.7545
76.3694
76.3194
77.5823
14.361
16.3337
18.4572
21.4859
24.4399
27.2605
29.7376
31.9817
33.8199
35.478
36.7456
37.9266
38.7439
39.5748
40.0573
40.637
40.91
41.3481
14.6446
14.9541
15.4277
16.4558
17.6095
18.8284
19.9702
21.0764
22.0341
22.9478
23.6897
24.4157
24.9554
25.5284
25.8904
26.3517
26.5525
26.9876
14.7184
14.6387
14.6738
14.8757
15.2177
15.6831
16.163
16.6722
17.1384
17.6107
18.0104
18.4208
18.7381
19.0882
19.3206
19.6232
19.7664
20.0789
14.7545
14.5907
14.4691
14.4209
14.4418
14.5152
14.6477
14.8246
15.0023
15.2022
15.3793
15.5761
15.7325
15.915
16.0401
16.2073
16.2918
16.4757
14.7641
14.5919
14.4345
14.3029
14.2031
14.1371
14.0973
14.0987
14.1107
14.1415
14.1783
14.2347
14.2793
14.3427
14.3853
14.4497
14.4818
14.5626
14.7656
14.5942
14.4321
14.2828
14.1466
14.0296
13.9256
13.8437
13.7744
13.7224
13.6772
13.6482
13.6204
13.6063
13.5892
13.5837
13.5723
13.582
14.7657
14.5945
14.4323
14.2806
14.137
14.0051
13.8816
13.7705
13.6679
13.5777
13.4939
13.4219
13.3537
13.2972
13.2407
13.1973
13.1473
13.1179
14.7657
14.5944
14.4323
14.2801
14.1357
14.0007
13.8728
13.754
13.6417
13.5386
13.441
13.3523
13.2677
13.1922
13.1185
13.0549
12.9896
12.9369
14.7657
14.5941
14.4321
14.2797
14.1353
13.9995
13.8707
13.7497
13.6347
13.5271
13.4248
13.3294
13.2384
13.1542
13.0732
12.9991
12.9267
12.8616
14.7657
14.594
14.4319
14.2792
14.1349
13.9987
13.8698
13.7481
13.6327
13.5237
13.4201
13.3224
13.2294
13.1418
13.0582
12.9796
12.9043
12.8337
14.7657
14.5938
14.4317
14.2789
14.1345
13.9981
13.8691
13.7471
13.6316
13.5222
13.4183
13.32
13.2265
13.1379
13.0536
12.9737
12.8975
12.8253
14.7657
14.5938
14.4316
14.2786
14.1341
13.9976
13.8685
13.7463
13.6307
13.5211
13.4171
13.3185
13.2249
13.1361
13.0516
12.9713
12.8949
12.8222
14.7657
14.5937
14.4315
14.2784
14.1338
13.9972
13.868
13.7457
13.6299
13.5202
13.4162
13.3174
13.2237
13.1347
13.0501
12.9697
12.8931
12.8203
14.7657
14.5937
14.4314
14.2783
14.1336
13.9969
13.8677
13.7453
13.6294
13.5196
13.4155
13.3167
13.2228
13.1337
13.049
12.9685
12.8919
12.819
14.7657
14.5937
14.4314
14.2782
14.1336
13.9969
13.8675
13.7452
13.6292
13.5194
13.4152
13.3163
13.2224
13.1333
13.0485
12.968
12.8913
12.8184
14.7657
14.5937
14.4315
14.2783
14.1337
13.997
13.8677
13.7453
13.6294
13.5196
13.4154
13.3166
13.2227
13.1336
13.0489
12.9683
12.8917
12.8188
14.7657
14.5937
14.4316
14.2785
14.1339
13.9973
13.8681
13.7457
13.63
13.5202
13.4163
13.3176
13.2241
13.1352
13.051
12.9708
12.8948
12.8224
14.7657
14.5938
14.4317
14.2786
14.1343
13.9978
13.869
13.7473
13.6325
13.524
13.4219
13.3252
13.2344
13.1483
13.0676
12.9907
12.9192
12.8504
14.7657
14.5937
14.4319
14.2789
14.1361
14.0021
13.8782
13.7629
13.6573
13.5595
13.4707
13.3883
13.3141
13.2446
13.1828
13.1237
13.0729
13.0213
14.7644
14.5922
14.4335
14.2871
14.1628
14.0551
13.9689
13.8978
13.8459
13.8048
13.7783
13.758
13.7483
13.7415
13.7415
13.7458
13.7517
13.7513
14.7478
14.5944
14.4764
14.4101
14.4234
14.4613
14.5554
14.6706
14.817
14.9613
15.1238
15.2712
15.432
15.5684
15.7197
15.8374
15.9782
16.0722
14.6504
14.7821
14.9369
15.3416
15.9227
16.5509
17.2339
17.8781
18.5378
19.1218
19.7129
20.2098
20.7203
21.1251
21.5591
21.876
22.2458
22.4812
14.572
16.1273
17.9726
20.4197
22.9236
25.2655
27.5469
29.5527
31.4909
33.1029
34.686
35.9144
37.1764
38.0666
39.062
39.6738
40.4625
40.8541
16.5442
25.8795
36.7209
46.5547
55.8661
64.2737
72.102
78.7418
84.803
89.5917
94.0147
97.1768
100.315
102.193
104.455
105.419
107.137
107.495
45.7966
105.211
164.44
217.234
267.845
313.451
353.662
386.107
413.224
433.657
450.596
462.704
472.894
479.774
486.816
490.306
496.154
497.489
632.343
1081.16
1534.74
1880.99
2183.47
2431.76
2631.52
2773.01
2876.13
2932.18
2969.03
2970.11
2963.1
2946.15
2918.22
2884.96
2849.14
2811.8
0.43549
0.427684
0.716392
1.0046
1.26112
1.47668
1.66432
1.84252
2.01001
2.17386
2.34239
2.52466
2.73336
2.99109
3.31192
3.68616
4.10518
4.56923
5.08224
5.65097
6.28175
6.98197
7.75721
8.61418
9.55767
10.5949
11.7322
12.9678
14.2991
15.7288
17.2564
18.8856
20.6162
22.4523
24.3933
26.4443
28.6051
30.8844
33.2895
35.8391
38.5519
41.4649
44.5224
47.73
51.0855
54.601
58.2746
62.1173
66.128
70.3176
74.6848
79.2408
83.9839
88.9257
94.064
99.4107
104.962
110.731
116.713
122.921
129.348
136.008
142.893
150.017
157.37
164.966
172.793
180.864
189.168
197.716
206.494
215.514
224.761
234.244
243.945
253.875
264.014
274.37
284.923
295.68
306.618
317.742
329.027
340.478
352.067
363.795
375.634
387.582
399.61
411.709
423.85
436.006
448.148
460.246
472.267
484.178
495.959
507.617
519.223
530.728
542.068
553.24
564.221
574.988
585.515
595.779
605.754
615.417
624.74
633.701
642.272
650.432
658.154
665.416
672.196
678.472
684.224
689.433
694.082
698.156
701.644
704.537
706.834
708.529
709.622
710.085
709.81
708.841
707.428
705.532
702.87
699.657
695.861
691.511
686.63
681.24
675.371
669.048
662.295
655.154
647.686
639.928
631.923
623.709
615.327
606.816
598.218
589.571
580.917
572.293
563.737
555.283
546.969
538.823
530.879
523.163
515.703
508.519
501.636
495.068
488.831
482.936
477.402
472.224
467.443
463.401
462.383
462.421
462.351
462.676
463.316
464.397
465.811
467.461
469.305
471.206
473.061
474.049
472.801
453.343
1.7042
0.94665
0.840401
0.872681
0.956138
1.06752
1.2
1.35187
1.52032
1.70533
1.90859
2.13306
2.38261
2.66165
2.97275
3.31599
3.69111
4.09909
4.54142
5.02019
5.53703
6.0937
6.69116
7.33063
8.01258
8.7379
9.50653
10.3181
11.1724
12.072
13.0174
14.0093
15.0466
16.1301
17.2608
18.4414
19.6733
20.96
22.3043
23.7103
25.1799
26.7146
28.3103
29.9699
31.6942
33.4859
35.3459
37.2767
39.2792
41.3561
43.5078
45.7371
48.0444
50.4322
52.9008
55.4527
58.0878
60.8084
63.6143
66.5076
69.4877
72.5565
75.7132
78.9594
82.2938
85.7177
89.2296
92.8303
96.5178
100.293
104.153
108.098
112.125
116.235
120.422
124.687
129.026
133.437
137.916
142.461
147.067
151.732
156.449
161.215
166.023
170.871
175.749
180.653
185.575
190.508
195.442
200.368
205.276
210.157
215.005
219.817
224.6
229.374
234.181
239.018
243.784
248.486
253.113
257.656
262.106
266.453
270.689
274.803
278.787
282.629
286.322
289.855
293.219
296.404
299.402
302.204
304.802
307.189
309.357
311.299
313.01
314.487
315.726
316.722
317.469
317.956
318.156
318.107
317.85
317.368
316.596
315.582
314.326
312.839
311.127
309.2
307.069
304.744
302.236
299.562
296.74
293.786
290.716
287.544
284.288
280.964
277.588
274.176
270.746
267.313
263.893
260.501
257.154
253.863
250.645
247.51
244.473
241.542
238.73
236.044
233.494
231.086
228.831
226.735
224.823
223.211
222.354
221.772
221.291
220.981
220.826
220.843
221.01
221.297
221.68
222.137
222.673
223.231
223.469
223.005
3.30182
1.57057
1.26412
1.21615
1.2567
1.34483
1.46729
1.61972
1.79998
2.00706
2.24042
2.49994
2.78575
3.09811
3.43705
3.80238
4.19396
4.61215
5.05763
5.53136
6.03423
6.56723
7.13117
7.72699
8.3556
9.01832
9.71683
10.4497
11.2136
12.0049
12.8288
13.6901
14.59
15.5301
16.5115
17.5359
18.6047
19.7194
20.8811
22.0911
23.3501
24.6589
26.018
27.4293
28.8943
30.4136
31.9883
33.6197
35.3087
37.0567
38.8646
40.7337
42.6646
44.6587
46.7164
48.839
51.0268
53.2807
55.6011
57.9888
60.444
62.9671
65.5582
68.2176
70.9451
73.7407
76.604
79.5348
82.5323
85.596
88.725
91.9183
95.1747
98.4929
101.871
105.308
108.801
112.349
115.949
119.598
123.294
127.034
130.815
134.632
138.483
142.364
146.269
150.195
154.137
158.09
162.049
166.01
169.966
173.914
177.853
181.783
185.704
189.622
193.538
197.432
201.281
205.08
208.822
212.498
216.103
219.628
223.066
226.41
229.652
232.784
235.798
238.688
241.444
244.06
246.528
248.842
250.994
252.978
254.789
256.42
257.866
259.124
260.19
261.06
261.73
262.194
262.417
262.463
262.33
261.995
261.449
260.706
259.77
258.647
257.344
255.868
254.226
252.428
250.483
248.404
246.203
243.892
241.484
238.991
236.427
233.803
231.134
228.431
225.709
222.979
220.255
217.549
214.872
212.237
209.653
207.132
204.682
202.314
200.035
197.854
195.776
193.809
191.96
190.235
188.648
187.249
186.174
185.289
184.525
183.887
183.365
182.959
182.657
182.447
182.31
182.245
182.305
182.494
182.782
183.698
4.81001
2.18049
1.72305
1.62313
1.64017
1.7207
1.84524
2.0062
2.20017
2.4252
2.67978
2.96248
3.27186
3.60661
3.96555
4.34786
4.7531
5.18132
5.63293
6.10871
6.60948
7.13623
7.68984
8.27119
8.88091
9.51942
10.1864
10.8837
11.6142
12.382
13.187
14.029
14.9088
15.8276
16.7864
17.7868
18.8301
19.9177
21.0494
22.2261
23.4481
24.716
26.0298
27.389
28.7977
30.2573
31.7689
33.3337
34.9526
36.6267
38.3571
40.1448
41.9906
43.8956
45.8606
47.8864
49.9735
52.1228
54.3347
56.6099
58.9488
61.3519
63.8193
66.3515
68.9485
71.6103
74.3368
77.1277
79.9827
82.9014
85.8831
88.9269
92.0319
95.197
98.4209
101.702
105.039
108.429
111.871
115.363
118.901
122.484
126.108
129.77
133.468
137.196
140.953
144.733
148.533
152.349
156.177
160.013
163.853
167.694
171.532
175.367
179.195
183.016
186.82
190.595
194.329
198.017
201.651
205.223
208.728
212.157
215.504
218.761
221.92
224.974
227.916
230.738
233.433
235.993
238.411
240.68
242.794
244.746
246.531
248.142
249.574
250.824
251.887
252.76
253.438
253.921
254.172
254.248
254.145
253.842
253.342
252.651
251.774
250.716
249.483
248.081
246.518
244.804
242.946
240.957
238.847
236.628
234.312
231.911
229.436
226.902
224.319
221.7
219.057
216.403
213.749
211.107
208.488
205.904
203.363
200.876
198.453
196.101
193.828
191.642
189.548
187.553
185.661
183.877
182.21
180.685
179.349
178.166
177.101
176.143
175.287
174.526
173.853
173.258
172.724
172.266
171.928
171.796
171.93
172.627
6.12517
2.77798
2.18711
2.04304
2.04039
2.11348
2.23756
2.40217
2.60234
2.8352
3.09857
3.39046
3.70891
4.05218
4.41879
4.80773
5.21847
5.65101
6.10576
6.58347
7.08506
7.61162
8.16418
8.74386
9.35166
9.98868
10.656
11.3553
12.0881
12.8562
13.6603
14.5012
15.3797
16.2968
17.2534
18.2504
19.2884
20.368
21.4909
22.658
23.8703
25.129
26.4354
27.7916
29.1981
30.6556
32.1653
33.7281
35.3454
37.0181
38.7474
40.5345
42.3805
44.2865
46.2539
48.2834
50.3755
52.5313
54.7513
57.0365
59.3876
61.8051
64.2897
66.8418
69.4617
72.1498
74.9061
77.7307
80.6236
83.5843
86.6126
89.7079
92.8693
96.096
99.3868
102.74
106.155
109.63
113.162
116.749
120.39
124.08
127.819
131.602
135.426
139.288
143.184
147.11
151.062
155.037
159.03
163.037
167.054
171.076
175.1
179.12
183.131
187.127
191.1
195.041
198.942
202.796
206.595
210.332
213.999
217.588
221.093
224.505
227.816
231.018
234.105
237.067
239.897
242.588
245.131
247.521
249.749
251.808
253.693
255.398
256.917
258.245
259.379
260.313
261.046
261.575
261.87
261.97
261.883
261.587
261.087
260.388
259.495
258.413
257.147
255.705
254.093
252.321
250.398
248.335
246.143
243.834
241.42
238.914
236.327
233.672
230.962
228.209
225.426
222.625
219.818
217.017
214.233
211.478
208.76
206.091
203.479
200.932
198.459
196.065
193.757
191.54
189.418
187.395
185.476
183.674
182.009
180.471
179.041
177.712
176.475
175.325
174.258
173.272
172.356
171.528
170.825
170.346
170.155
170.423
7.26131
3.33876
2.63407
2.4484
2.42743
2.49116
2.61122
2.77453
2.97472
3.2081
3.47206
3.7644
4.08316
4.42661
4.79336
5.18246
5.59345
6.02634
6.48154
6.9598
7.46205
7.98939
8.54296
9.12396
9.73356
10.373
11.0436
11.7467
12.4835
13.2553
14.063
14.9077
15.7904
16.7119
17.6733
18.6755
19.7196
20.8066
21.9377
23.1142
24.3371
25.6078
26.9277
28.2981
29.7201
31.195
32.7239
34.3083
35.9493
37.6483
39.4067
41.2258
43.1069
45.0512
47.0597
49.1338
51.2751
53.4847
55.7638
58.1136
60.535
63.0291
65.5968
68.2389
70.956
73.7489
76.6179
79.5633
82.5854
85.6842
88.8594
92.1107
95.4376
98.8393
102.315
105.863
109.482
113.17
116.925
120.746
124.629
128.572
132.572
136.625
140.728
144.877
149.069
153.298
157.56
161.852
166.168
170.503
174.852
179.209
183.569
187.925
192.27
196.597
200.898
205.164
209.389
213.563
217.678
221.728
225.702
229.594
233.394
237.094
240.686
244.161
247.511
250.727
253.8
256.723
259.488
262.086
264.51
266.752
268.807
270.666
272.325
273.779
275.021
276.049
276.86
277.45
277.796
277.921
277.841
277.537
277.014
276.275
275.326
274.172
272.819
271.274
269.544
267.639
265.568
263.344
260.977
258.479
255.864
253.144
250.333
247.443
244.487
241.479
238.433
235.36
232.273
229.185
226.108
223.053
220.03
217.049
214.12
211.251
208.449
205.722
203.076
200.515
198.044
195.665
193.384
191.206
189.141
187.187
185.336
183.58
181.914
180.335
178.839
177.425
176.096
174.868
173.778
172.912
172.307
172.043
8.815
3.95869
3.0798
2.83395
2.78716
2.83641
2.9481
3.10588
3.30165
3.53086
3.79053
4.0784
4.3926
4.73159
5.09419
5.47962
5.88749
6.31786
6.77113
7.24799
7.74933
8.27622
8.82977
9.4112
10.0217
10.6625
11.3349
12.0401
12.7793
13.5537
14.3645
15.2126
16.0993
17.0256
17.9927
19.0017
20.0538
21.1502
22.2924
23.4816
24.7193
26.0068
27.3457
28.7374
30.1834
31.6852
33.2443
34.8622
36.5407
38.2813
40.0857
41.9555
43.8924
45.898
47.9739
50.122
52.3437
54.6409
57.0151
59.4679
62.0006
64.6148
67.3117
70.0925
72.9583
75.9101
78.9487
82.0748
85.2888
88.591
91.9816
95.4603
99.0267
102.68
106.42
110.245
114.153
118.143
122.212
126.358
130.579
134.872
139.232
143.656
148.141
152.681
157.273
161.911
166.591
171.306
176.052
180.822
185.61
190.408
195.21
200.008
204.794
209.56
214.297
218.996
223.648
228.246
232.779
237.239
241.616
245.902
250.087
254.161
258.115
261.94
265.627
269.166
272.548
275.765
278.807
281.665
284.333
286.801
289.062
291.109
292.936
294.537
295.907
297.041
297.937
298.592
298.984
299.13
299.046
298.718
298.149
297.344
296.308
295.046
293.564
291.87
289.973
287.881
285.605
283.158
280.55
277.796
274.908
271.9
268.787
265.582
262.298
258.951
255.555
252.122
248.666
245.201
241.738
238.29
234.867
231.48
228.139
224.852
221.628
218.473
215.394
212.396
209.483
206.66
203.929
201.294
198.761
196.331
194
191.763
189.619
187.565
185.6
183.728
181.953
180.297
178.792
177.511
176.46
175.653
10.8333
4.64268
3.51982
3.19164
3.1097
3.13885
3.23824
3.38723
3.57567
3.798
4.05077
4.33161
4.63876
4.97086
5.32692
5.70632
6.10878
6.5344
6.98353
7.45684
7.95514
8.47944
9.0308
9.61038
10.2194
10.859
11.5305
12.2352
12.9742
13.7489
14.5603
15.4099
16.2989
17.2284
18.1999
19.2147
20.2741
21.3798
22.533
23.7356
24.9891
26.2951
27.6556
29.0721
30.5464
32.0805
33.6762
35.3354
37.0601
38.8524
40.7142
42.6477
44.6549
46.7381
48.8992
51.1406
53.4642
55.8724
58.3671
60.9503
63.6241
66.3904
69.2508
72.2072
75.261
78.4136
81.6663
85.02
88.4757
92.0338
95.6947
99.4584
103.325
107.293
111.363
115.532
119.8
124.164
128.622
133.172
137.81
142.532
147.335
152.215
157.167
162.185
167.265
172.4
177.584
182.812
188.076
193.368
198.681
204.007
209.338
214.663
219.975
225.264
230.519
235.732
240.891
245.988
251.013
255.954
260.802
265.546
270.176
274.682
279.053
283.279
287.35
291.256
294.986
298.531
301.881
305.028
307.962
310.675
313.159
315.406
317.409
319.162
320.661
321.899
322.874
323.583
324.007
324.16
324.053
323.678
323.038
322.137
320.981
319.576
317.928
316.045
313.936
311.612
309.082
306.36
303.459
300.392
297.174
293.818
290.341
286.757
283.082
279.329
275.514
271.651
267.755
263.839
259.917
256.001
252.102
248.233
244.402
240.62
236.895
233.234
229.645
226.133
222.704
219.36
216.106
212.946
209.883
206.919
204.053
201.286
198.615
196.043
193.571
191.205
188.953
186.837
184.888
183.164
181.648
180.317
12.8123
5.29212
3.92105
3.50624
3.38573
3.39213
3.47692
3.6152
3.79468
4.00871
4.25333
4.52599
4.82494
5.14894
5.49715
5.86908
6.26453
6.68361
7.1267
7.5944
8.08751
8.60695
9.15376
9.72902
10.3339
10.9696
11.6375
12.3389
13.0751
13.8474
14.6573
15.5061
16.3953
17.3263
18.3006
19.3199
20.3857
21.4997
22.6638
23.8796
25.1495
26.4753
27.8592
29.3032
30.8096
32.3806
34.0185
35.7256
37.5044
39.3574
41.2871
43.2962
45.3871
47.5628
49.8257
52.1787
54.6244
57.1655
59.8048
62.5447
65.3879
68.3368
71.3937
74.5608
77.8402
81.2336
84.7428
88.3692
92.1139
95.9777
99.9614
104.065
108.288
112.631
117.092
121.67
126.364
131.17
136.087
141.111
146.238
151.465
156.787
162.198
167.694
173.267
178.913
184.622
190.389
196.206
202.064
207.954
213.868
219.795
225.726
231.65
237.557
243.435
249.274
255.063
260.789
266.443
272.013
277.486
282.852
288.098
293.214
298.188
303.008
307.664
312.143
316.436
320.532
324.419
328.088
331.53
334.733
337.691
340.393
342.832
345.001
346.894
348.505
349.828
350.861
351.601
352.031
352.164
352.006
351.553
350.809
349.777
348.465
346.877
345.022
342.909
340.546
337.944
335.114
332.071
328.828
325.399
321.8
318.046
314.153
310.136
306.013
301.798
297.507
293.156
288.76
284.333
279.89
275.443
271.006
266.59
262.206
257.865
253.574
249.343
245.179
241.089
237.078
233.152
229.314
225.568
221.919
218.37
214.922
211.578
208.34
205.21
202.195
199.301
196.542
193.937
191.515
189.324
187.33
185.489
14.6472
5.87644
4.26974
3.77112
3.61067
3.59483
3.66384
3.79043
3.96016
4.16529
4.40127
4.66534
4.95566
5.27106
5.61075
5.97434
6.36171
6.77298
7.20851
7.66891
8.155
8.66774
9.20823
9.77707
10.3755
11.0051
11.6671
12.3629
13.0942
13.8623
14.6688
15.5153
16.4034
17.3349
18.3114
19.3348
20.407
21.5299
22.7053
23.9352
25.2227
26.5705
27.981
29.4567
31.0002
32.6142
34.3016
36.0651
37.9078
39.8328
41.8431
43.9419
46.1325
48.4182
50.8024
53.2883
55.8794
58.579
61.3904
64.3168
67.3615
70.5275
73.8176
77.2347
80.7813
84.4597
88.272
92.2199
96.305
100.528
104.891
109.392
114.033
118.813
123.73
128.783
133.969
139.287
144.733
150.302
155.992
161.796
167.709
173.726
179.839
186.041
192.324
198.68
205.1
211.575
218.095
224.65
231.228
237.819
244.41
250.99
257.547
264.067
270.539
276.95
283.286
289.535
295.685
301.721
307.632
313.404
319.025
324.482
329.762
334.854
339.746
344.425
348.881
353.102
357.078
360.798
364.252
367.432
370.328
372.932
375.238
377.238
378.927
380.3
381.353
382.084
382.481
382.555
382.304
381.73
380.838
379.632
378.119
376.305
374.199
371.81
369.147
366.222
363.048
359.639
356.008
352.171
348.145
343.945
339.589
335.092
330.473
325.747
320.932
316.043
311.096
306.108
301.092
296.064
291.036
286.021
281.031
276.076
271.167
266.313
261.521
256.8
252.156
247.594
243.122
238.742
234.461
230.283
226.212
222.252
218.409
214.688
211.098
207.648
204.354
201.235
198.316
195.639
193.156
190.819
16.283
6.3829
4.56105
3.98457
3.78533
3.74797
3.80147
3.91623
4.07602
4.2721
4.49941
4.75488
5.03658
5.34328
5.67426
6.02916
6.40794
6.81082
7.23778
7.68958
8.16722
8.67189
9.20506
9.76699
10.3589
10.9822
11.6383
12.3287
13.055
13.8189
14.6221
15.4664
16.3536
17.2857
18.2647
19.2928
20.3722
21.505
22.6935
23.94
25.2497
26.6248
28.068
29.5827
31.172
32.8392
34.5876
36.4208
38.3422
40.3556
42.4648
44.6737
46.9862
49.4064
51.9383
54.5861
57.3537
60.2453
63.2649
66.4165
69.7038
73.1306
76.7003
80.4163
84.2817
88.2991
92.471
96.7994
101.286
105.932
110.739
115.706
120.833
126.12
131.565
137.165
142.919
148.822
154.872
161.062
167.389
173.845
180.424
187.118
193.92
200.82
207.809
214.878
222.015
229.209
236.45
243.725
251.021
258.324
265.622
272.901
280.146
287.343
294.479
301.538
308.506
315.368
322.111
328.719
335.179
341.477
347.598
353.528
359.255
364.765
370.046
375.086
379.872
384.393
388.639
392.598
396.261
399.618
402.66
405.38
407.769
409.824
411.537
412.904
413.923
414.589
414.898
414.855
414.458
413.707
412.613
411.18
409.414
407.322
404.914
402.199
399.189
395.895
392.329
388.507
384.443
380.155
375.658
370.97
366.108
361.09
355.933
350.655
345.273
339.805
334.266
328.675
323.045
317.393
311.733
306.077
300.439
294.83
289.26
283.74
278.279
272.885
267.567
262.33
257.183
252.131
247.181
242.339
237.612
233.006
228.529
224.19
219.999
215.97
212.118
208.464
205.031
201.853
198.875
196.054
17.6856
6.80588
4.79483
4.14871
3.91381
3.85601
3.89464
3.99785
4.14787
4.33509
4.55395
4.80112
5.07454
5.37298
5.69538
6.04157
6.41181
6.8068
7.22613
7.67049
8.14067
8.63755
9.16189
9.71474
10.2979
10.9129
11.5614
12.2452
12.9661
13.7259
14.5267
15.3707
16.26
17.1968
18.1834
19.2225
20.3171
21.4692
22.681
23.9555
25.2967
26.7092
28.1968
29.7636
31.4141
33.152
34.9811
36.9055
38.9295
41.0576
43.2944
45.6446
48.1129
50.7042
53.4233
56.2752
59.2646
62.3964
65.6754
69.1062
72.6933
76.441
80.3533
84.434
88.6865
93.1139
97.7187
102.503
107.469
112.618
117.949
123.463
129.16
135.038
141.094
147.326
153.73
160.303
167.038
173.929
180.971
188.155
195.474
202.918
210.477
218.14
225.898
233.736
241.644
249.608
257.615
265.651
273.699
281.747
289.777
297.775
305.725
313.61
321.415
329.123
336.717
344.183
351.504
358.664
365.649
372.441
379.027
385.391
391.521
397.401
403.02
408.364
413.421
418.18
422.63
426.76
430.561
434.023
437.137
439.897
442.296
444.328
445.989
447.275
448.183
448.712
448.858
448.629
448.01
447.016
445.655
443.931
441.852
439.423
436.657
433.563
430.152
426.438
422.433
418.153
413.612
408.829
403.821
398.605
393.199
387.623
381.893
376.028
370.045
363.964
357.801
351.573
345.298
338.991
332.666
326.339
320.022
313.727
307.466
301.25
295.09
288.994
282.972
277.032
271.182
265.431
259.785
254.255
248.848
243.573
238.442
233.465
228.656
224.03
219.605
215.402
211.441
207.754
204.28
200.988
18.837
7.14429
4.97346
4.2675
4.00109
3.92455
3.9494
4.04173
4.18254
4.36155
4.57244
4.8118
5.07768
5.36917
5.68475
6.02409
6.387
6.77329
7.18341
7.61857
8.07975
8.5681
9.08497
9.63168
10.2097
10.8206
11.4661
12.1483
12.8692
13.6311
14.4365
15.2881
16.188
17.1384
18.1425
19.2031
20.3229
21.503
22.7489
24.0655
25.4577
26.9298
28.4862
30.1318
31.8713
33.7104
35.6536
37.7056
39.8718
42.1575
44.5683
47.1097
49.7874
52.6071
55.5745
58.6952
61.975
65.4193
69.0337
72.8233
76.7932
80.9481
85.2924
89.83
94.5644
99.4988
104.636
109.977
115.523
121.276
127.235
133.4
139.768
146.337
153.104
160.065
167.215
174.548
182.057
189.734
197.572
205.561
213.69
221.949
230.325
238.807
247.38
256.031
264.745
273.507
282.302
291.114
299.925
308.719
317.478
326.185
334.821
343.371
351.814
360.135
368.315
376.336
384.182
391.835
399.279
406.498
413.476
420.197
426.647
432.812
438.679
444.235
449.468
454.368
458.923
463.124
466.96
470.425
473.509
476.207
478.513
480.421
481.93
483.037
483.74
484.037
483.933
483.421
482.495
481.179
479.476
477.389
474.926
472.095
468.907
465.375
461.51
457.323
452.83
448.045
442.985
437.667
432.11
426.331
420.349
414.183
407.851
401.371
394.762
388.043
381.232
374.346
367.403
360.419
353.41
346.391
339.375
332.376
325.406
318.476
311.598
304.782
298.039
291.379
284.81
278.343
271.988
265.755
259.654
253.699
247.902
242.276
236.839
231.608
226.601
221.842
217.348
213.15
209.186
205.44
19.7302
7.39923
5.10032
4.34552
4.05267
3.9598
3.97267
4.05519
4.18773
4.35984
4.56468
4.79833
5.05823
5.34261
5.65073
5.98268
6.33862
6.71906
7.12429
7.55511
8.0126
8.49804
9.01294
9.55901
10.1382
10.7521
11.4025
12.0918
12.8226
13.5974
14.4191
15.2901
16.2111
17.187
18.2215
19.3188
20.4829
21.7184
23.0297
24.4221
25.9008
27.4711
29.1384
30.9086
32.7878
34.7817
36.8964
39.1379
41.5127
44.0274
46.6888
49.5033
52.4774
55.6177
58.9306
62.4225
66.0997
69.9682
74.034
78.3026
82.7791
87.4682
92.3742
97.5008
102.851
108.427
114.231
120.264
126.526
133.016
139.734
146.676
153.839
161.22
168.813
176.612
184.611
192.801
201.173
209.719
218.426
227.285
236.281
245.403
254.635
263.964
273.374
282.848
292.37
301.923
311.49
321.052
330.591
340.088
349.524
358.88
368.138
377.277
386.278
395.124
403.794
412.271
420.537
428.573
436.362
443.888
451.134
458.085
464.726
471.043
477.024
482.656
487.929
492.831
497.354
501.487
505.223
508.555
511.475
513.978
516.061
517.719
518.951
519.759
520.14
520.095
519.631
518.719
517.397
515.667
513.534
511.003
508.081
504.776
501.101
497.069
492.691
487.98
482.951
477.618
471.999
466.111
459.972
453.601
447.017
440.238
433.283
426.17
418.918
411.546
404.073
396.517
388.895
381.225
373.522
365.803
358.081
350.371
342.684
335.034
327.433
319.893
312.424
305.038
297.746
290.56
283.492
276.553
269.757
263.119
256.655
250.381
244.316
238.479
232.892
227.578
222.555
217.854
213.41
209.232
20.3567
7.56902
5.17765
4.38704
4.07423
3.96825
3.97184
4.04747
4.17415
4.34029
4.53923
4.76753
5.02298
5.30419
5.61027
5.94101
6.29679
6.6777
7.08433
7.51776
7.97929
8.47051
8.99314
9.54908
10.1402
10.7672
11.4334
12.1421
12.8963
13.6993
14.5546
15.466
16.4373
17.4726
18.5765
19.7538
21.0098
22.3501
23.7804
25.3069
26.9357
28.6733
30.5266
32.5023
34.608
36.8502
39.2363
41.7743
44.4722
47.3381
50.3801
53.6054
57.0212
60.6344
64.4517
68.4799
72.7253
77.1939
81.8913
86.8225
91.9921
97.4039
103.061
108.966
115.12
121.524
128.178
135.081
142.23
149.625
157.259
165.13
173.23
181.554
190.094
198.841
207.786
216.919
226.228
235.7
245.324
255.085
264.968
274.958
285.039
295.194
305.407
315.657
325.928
336.201
346.457
356.676
366.839
376.925
386.915
396.789
406.526
416.107
425.513
434.722
443.718
452.479
460.989
469.229
477.182
484.831
492.159
499.153
505.796
512.077
517.983
523.504
528.629
533.35
537.658
541.546
545.005
548.032
550.621
552.767
554.468
555.723
556.53
556.9
556.821
556.31
555.333
553.928
552.1
549.855
547.199
544.136
540.675
536.824
532.596
528.003
523.059
517.776
512.167
506.248
500.037
493.55
486.805
479.823
472.619
465.214
457.626
449.872
441.972
433.944
425.808
417.581
409.282
400.928
392.536
384.122
375.699
367.283
358.887
350.524
342.207
333.948
325.761
317.658
309.652
301.755
293.982
286.347
278.865
271.554
264.432
257.52
250.838
244.407
238.251
232.395
226.856
221.669
216.765
212.186
20.8096
7.68335
5.21984
4.40132
4.07379
3.95904
3.95591
4.02554
4.14832
4.31308
4.51264
4.74283
5.00128
5.28665
5.59826
5.93591
6.2997
6.68934
7.10646
7.5526
8.02951
8.53923
9.084
9.66637
10.2892
10.9555
11.6685
12.432
13.2499
14.1267
15.0671
16.0761
17.1591
18.3215
19.5694
20.9091
22.3474
23.8916
25.5489
27.3273
29.2347
31.2791
33.4686
35.8115
38.315
40.988
43.84
46.8804
50.1191
53.5671
57.2345
61.1276
65.2523
69.6149
74.2213
79.077
84.187
89.5559
95.1871
101.084
107.248
113.68
120.381
127.35
134.586
142.085
149.844
157.859
166.124
174.633
183.379
192.353
201.547
210.95
220.553
230.344
240.31
250.438
260.715
271.125
281.655
292.287
303.007
313.795
324.636
335.511
346.401
357.288
368.151
378.973
389.732
400.411
410.987
421.442
431.755
441.907
451.878
461.648
471.197
480.507
489.558
498.333
506.813
514.981
522.822
530.319
537.455
544.218
550.592
556.568
562.136
567.285
572.007
576.296
580.144
583.547
586.499
588.997
591.037
592.617
593.736
594.393
594.59
594.35
593.64
592.47
590.862
588.823
586.359
583.478
580.187
576.491
572.399
567.917
563.059
557.838
552.265
546.354
540.119
533.573
526.733
519.617
512.241
504.626
496.787
488.743
480.511
472.11
463.557
454.872
446.073
437.178
428.206
419.174
410.099
400.997
391.883
382.77
373.675
364.609
355.588
346.624
337.731
328.923
320.215
311.622
303.16
294.843
286.691
278.724
270.963
263.431
256.151
249.147
242.444
236.069
230.035
224.372
219.022
214.072
21.0475
7.71993
5.22022
4.39187
4.05883
3.94038
3.93848
4.0126
4.14158
4.31383
4.52138
4.76119
5.03128
5.33061
5.65887
6.01637
6.40399
6.82289
7.27468
7.7615
8.28591
8.85086
9.45969
10.1162
10.8245
11.5892
12.4153
13.308
14.273
15.3168
16.446
17.668
18.9902
20.4208
21.9682
23.6415
25.45
27.4034
29.5116
31.7845
34.2323
36.865
39.6926
42.7245
45.97
49.4387
53.1403
57.0843
61.2799
65.7362
70.4652
75.4715
80.757
86.3237
92.1734
98.3074
104.726
111.429
118.415
125.682
133.226
141.043
149.128
157.474
166.076
174.925
184.012
193.329
202.866
212.612
222.558
232.69
242.999
253.469
264.09
274.847
285.726
296.714
307.793
318.951
330.169
341.433
352.724
364.028
375.325
386.599
397.831
409.003
420.096
431.093
441.973
452.719
463.312
473.733
483.964
493.985
503.78
513.33
522.616
531.621
540.327
548.718
556.777
564.489
571.839
578.814
585.397
591.576
597.339
602.677
607.584
612.05
616.07
619.638
622.753
625.41
627.602
629.336
630.604
631.407
631.748
631.623
631.053
629.995
628.504
626.573
624.21
621.425
618.227
614.623
610.623
606.23
601.454
596.299
590.776
584.9
578.682
572.133
565.268
558.098
550.639
542.908
534.922
526.696
518.249
509.597
500.756
491.744
482.578
473.275
463.855
454.335
444.733
435.067
425.354
415.609
405.848
396.084
386.333
376.609
366.927
357.301
347.745
338.274
328.906
319.658
310.548
301.592
292.811
284.228
275.868
267.752
259.899
252.344
245.117
238.249
231.765
225.706
219.986
214.746
21.1042
7.70258
5.19701
4.36871
4.04228
3.93469
3.94433
4.03081
4.17451
4.36457
4.59487
4.86194
5.16412
5.50099
5.87302
6.28145
6.72817
7.21567
7.74698
8.32573
8.95617
9.64314
10.3921
11.2089
12.1003
13.0738
14.1372
15.299
16.5683
17.9551
19.4699
21.1237
22.9282
24.8955
27.0376
29.3671
31.8967
34.6391
37.6064
40.8104
44.2622
47.9728
51.9523
56.209
60.7505
65.5839
70.7162
76.1527
81.8976
87.9566
94.3328
101.025
108.025
115.325
122.917
130.796
138.952
147.378
156.065
165.001
174.178
183.583
193.206
203.036
213.06
223.266
233.642
244.177
254.856
265.67
276.604
287.648
298.787
310.01
321.304
332.656
344.052
355.479
366.923
378.371
389.807
401.218
412.588
423.903
435.148
446.306
457.363