/*--------------------------------*- C++ -*----------------------------------*\
| =========                 |                                                 |
| \\      /  F ield         | OpenFOAM: The Open Source CFD Toolbox           |
|  \\    /   O peration     | Version:  2306                                  |
|   \\  /    A nd           | Website:  www.openfoam.com                      |
|    \\/     M anipulation  |                                                 |
\*---------------------------------------------------------------------------*/
FoamFile
{
    version     2.0;
    format      ascii;
    arch        "LSB;label=32;scalar=64";
    class       volScalarField;
    location    "200";
    object      k;
}
// * * * * * * * * * * * * * * * * * * * * * * * * * * * * * * * * * * * * * //

dimensions      [0 2 -2 0 0 0 0];

internalField   nonuniform List<scalar> 
12225
(
0.571497
0.987648
1.28116
1.45558
1.54167
1.57743
1.57634
1.566
1.54777
1.52389
1.50051
1.47802
1.45796
1.43901
1.42339
1.40767
1.39701
1.38235
0.438449
0.49688
0.521949
0.534909
0.542878
0.547408
0.550246
0.552187
0.556082
0.559385
0.565616
0.571054
0.579597
0.586815
0.596791
0.60525
0.61521
0.625633
0.38757
0.417492
0.424187
0.421531
0.415046
0.404958
0.393815
0.382791
0.371954
0.362406
0.353265
0.346089
0.339
0.334319
0.329132
0.326683
0.323073
0.322333
0.37618
0.384817
0.388124
0.387417
0.385436
0.381134
0.375687
0.369559
0.363118
0.356561
0.350109
0.343802
0.33782
0.332064
0.326776
0.321684
0.317174
0.312716
0.374178
0.375374
0.376397
0.37593
0.374799
0.372507
0.369615
0.366137
0.362484
0.358471
0.354556
0.350371
0.34652
0.342385
0.338793
0.334822
0.331605
0.327851
0.373737
0.372544
0.371996
0.371083
0.369917
0.368266
0.366339
0.364032
0.36164
0.358968
0.356372
0.353537
0.350916
0.348047
0.345521
0.342702
0.340348
0.337628
0.373769
0.371726
0.370231
0.368831
0.367465
0.365941
0.364344
0.362552
0.360734
0.35875
0.356813
0.354731
0.35277
0.350665
0.348748
0.346672
0.344852
0.342831
0.373818
0.371563
0.369621
0.36786
0.36625
0.364663
0.363121
0.361522
0.359945
0.358298
0.356695
0.355026
0.353429
0.351769
0.350213
0.348588
0.347103
0.345524
0.373833
0.371554
0.369457
0.367511
0.365722
0.364025
0.362428
0.360861
0.359355
0.357852
0.356401
0.354943
0.353541
0.35213
0.350785
0.349426
0.348149
0.346843
0.373832
0.37156
0.369425
0.36741
0.365529
0.363752
0.362086
0.360493
0.358981
0.357516
0.356115
0.354748
0.353437
0.352151
0.350919
0.349706
0.348551
0.347405
0.37383
0.371561
0.369417
0.367384
0.365468
0.363653
0.361942
0.360317
0.358779
0.357309
0.355912
0.35457
0.353289
0.352054
0.350872
0.349729
0.348635
0.347574
0.373828
0.371559
0.369412
0.367375
0.365448
0.36362
0.36189
0.360247
0.358691
0.35721
0.355803
0.35446
0.353181
0.351958
0.35079
0.34967
0.348599
0.347571
0.373827
0.371557
0.369407
0.367369
0.365437
0.363603
0.361865
0.360214
0.358646
0.357156
0.35574
0.354391
0.353107
0.351883
0.350716
0.349602
0.348537
0.347521
0.373827
0.371555
0.369403
0.367362
0.365428
0.363591
0.361848
0.360193
0.358619
0.357123
0.3557
0.354346
0.353056
0.351828
0.350657
0.349541
0.348475
0.347459
0.373826
0.371553
0.369399
0.367357
0.36542
0.363581
0.361835
0.360177
0.3586
0.3571
0.355673
0.354315
0.353021
0.351789
0.350614
0.349494
0.348425
0.347406
0.373826
0.371552
0.369396
0.367352
0.365413
0.363572
0.361824
0.360163
0.358584
0.357082
0.355652
0.354291
0.352994
0.351759
0.350581
0.349458
0.348386
0.347364
0.373825
0.371551
0.369395
0.367349
0.365408
0.363566
0.361816
0.360153
0.358571
0.357067
0.355635
0.354272
0.352973
0.351735
0.350555
0.34943
0.348356
0.347331
0.373825
0.371551
0.369393
0.367347
0.365405
0.363561
0.36181
0.360145
0.358562
0.357057
0.355623
0.354258
0.352958
0.351718
0.350536
0.349409
0.348334
0.347308
0.373825
0.371551
0.369393
0.367347
0.365404
0.36356
0.361808
0.360143
0.358559
0.357052
0.355618
0.354252
0.352951
0.35171
0.350528
0.3494
0.348324
0.347297
0.373825
0.371551
0.369394
0.367348
0.365406
0.363562
0.361811
0.360146
0.358562
0.357056
0.355622
0.354256
0.352955
0.351715
0.350532
0.349405
0.348329
0.347302
0.373826
0.371552
0.369396
0.367351
0.36541
0.363567
0.361816
0.360153
0.358571
0.357065
0.355633
0.354269
0.352969
0.35173
0.35055
0.349423
0.348349
0.347323
0.373826
0.371553
0.369398
0.367355
0.365416
0.363575
0.361828
0.360168
0.358591
0.357092
0.355665
0.354306
0.353012
0.351779
0.350603
0.34948
0.348408
0.347383
0.373826
0.371555
0.369401
0.367363
0.365432
0.363605
0.361875
0.360237
0.358681
0.357203
0.355794
0.354451
0.353167
0.351939
0.350762
0.349635
0.348552
0.347513
0.373826
0.371556
0.369413
0.367418
0.365544
0.363794
0.362138
0.360572
0.359071
0.357632
0.35624
0.354896
0.353589
0.352323
0.35109
0.349894
0.348728
0.347601
0.373819
0.371564
0.369582
0.367846
0.366223
0.364712
0.363219
0.361754
0.360267
0.358787
0.357288
0.3558
0.354306
0.352833
0.351361
0.349924
0.348495
0.347109
0.373767
0.371946
0.370917
0.369977
0.368912
0.367767
0.366326
0.364737
0.362934
0.361062
0.35906
0.357054
0.354971
0.352925
0.350845
0.348825
0.346792
0.344839
0.374093
0.375201
0.37726
0.37756
0.377092
0.375804
0.373488
0.370864
0.367802
0.364686
0.361328
0.358027
0.354602
0.351291
0.347922
0.3447
0.341472
0.338414
0.377677
0.394076
0.402944
0.402353
0.400307
0.396045
0.390665
0.385166
0.379133
0.373303
0.367221
0.361476
0.355719
0.350305
0.345128
0.340198
0.335726
0.331325
0.405777
0.438977
0.451189
0.45581
0.459111
0.462261
0.464972
0.467229
0.469223
0.470843
0.472491
0.473928
0.475548
0.477074
0.479213
0.480838
0.483678
0.485393
0.479012
0.684927
0.865146
0.990809
1.09437
1.17583
1.23938
1.28341
1.31504
1.33207
1.3432
1.34353
1.34141
1.3363
1.32784
1.31773
1.3068
1.29536
0.00431157
0.00706475
0.00996422
0.0124855
0.0145305
0.016144
0.0174769
0.0186993
0.0198092
0.0208652
0.0219193
0.0230305
0.0242613
0.0257364
0.0275186
0.0295402
0.0317233
0.0340622
0.0365521
0.039222
0.0420751
0.0451392
0.0484094
0.0519067
0.0556202
0.0595698
0.0637486
0.0681475
0.0727275
0.0774953
0.0824267
0.0875316
0.0927892
0.0982105
0.103775
0.109498
0.115361
0.121386
0.127575
0.133972
0.1406
0.147539
0.154676
0.161974
0.169432
0.17707
0.184869
0.192851
0.201
0.209336
0.21784
0.226536
0.235403
0.244462
0.253695
0.263123
0.272723
0.282519
0.292486
0.302647
0.312977
0.323497
0.334182
0.345053
0.356082
0.36729
0.378648
0.390176
0.401844
0.413671
0.425627
0.437728
0.449944
0.462292
0.474737
0.487297
0.499937
0.512671
0.525466
0.538337
0.551246
0.564208
0.577185
0.590191
0.603185
0.616179
0.629134
0.642058
0.654914
0.667701
0.68039
0.692957
0.705374
0.717615
0.729653
0.741458
0.753015
0.764327
0.77546
0.786429
0.797118
0.80756
0.817726
0.827604
0.837174
0.846423
0.855329
0.863881
0.872056
0.879842
0.887219
0.894172
0.900684
0.906742
0.912328
0.91743
0.922034
0.926129
0.929703
0.932744
0.935247
0.937206
0.938624
0.939495
0.939823
0.939586
0.938718
0.937172
0.935207
0.932851
0.929837
0.926277
0.922201
0.917608
0.91253
0.906973
0.90097
0.894528
0.887667
0.880416
0.872829
0.864936
0.856769
0.848365
0.839753
0.830973
0.822054
0.813039
0.803957
0.794849
0.785744
0.776682
0.767692
0.758812
0.750068
0.741496
0.733119
0.724968
0.717064
0.709434
0.702092
0.695069
0.688378
0.682055
0.676353
0.673219
0.671797
0.669873
0.668532
0.667543
0.667003
0.666686
0.666797
0.667194
0.667795
0.668474
0.669101
0.669075
0.667241
0.648391
0.0107066
0.0174965
0.0241017
0.0291984
0.0334308
0.0371246
0.0404564
0.0435868
0.0466998
0.0499123
0.0532885
0.0568597
0.0606348
0.0646125
0.0687838
0.0731442
0.0776894
0.0824298
0.0873811
0.0925688
0.0980137
0.103739
0.10976
0.11609
0.122737
0.129709
0.137006
0.144633
0.152583
0.160859
0.169449
0.178359
0.187586
0.197135
0.207004
0.217203
0.227712
0.23852
0.249625
0.261033
0.27274
0.28475
0.297049
0.309643
0.322535
0.335736
0.349246
0.363074
0.377221
0.391696
0.406499
0.421639
0.437114
0.452935
0.4691
0.485616
0.502481
0.519704
0.53728
0.555216
0.573508
0.592159
0.611166
0.630532
0.650249
0.670321
0.690737
0.7115
0.732598
0.754031
0.775786
0.797862
0.820245
0.84293
0.8659
0.889151
0.912663
0.93643
0.960433
0.984661
1.00909
1.03372
1.05852
1.08347
1.10855
1.13375
1.15904
1.18439
1.20979
1.23521
1.26062
1.28598
1.31126
1.33641
1.36139
1.38615
1.41063
1.43476
1.45845
1.48172
1.5047
1.52734
1.54963
1.57152
1.59299
1.61399
1.6345
1.65447
1.67388
1.69268
1.71084
1.72832
1.74508
1.76109
1.77631
1.7907
1.80424
1.81688
1.82859
1.83936
1.84914
1.85792
1.86568
1.8724
1.87808
1.88271
1.88621
1.88827
1.88927
1.8896
1.88878
1.88673
1.8836
1.87939
1.87416
1.86791
1.86069
1.85253
1.84349
1.83361
1.82296
1.81159
1.79957
1.78696
1.77382
1.76023
1.74626
1.73196
1.71742
1.70271
1.6879
1.67306
1.65827
1.64358
1.62909
1.61484
1.6009
1.58733
1.5742
1.56155
1.54943
1.53788
1.52695
1.51668
1.50716
1.49873
1.49109
1.48415
1.47804
1.47269
1.46809
1.46412
1.46072
1.45778
1.45517
1.45272
1.45011
1.44719
1.44106
1.41902
0.0166518
0.0283625
0.0372978
0.0440131
0.0496705
0.0547714
0.0595889
0.0643078
0.0690635
0.0739498
0.0790226
0.0843104
0.0898223
0.0955594
0.10152
0.107704
0.114117
0.120774
0.127693
0.134899
0.142414
0.150262
0.158461
0.167027
0.175973
0.18531
0.195042
0.205177
0.215713
0.226652
0.237987
0.24972
0.261847
0.274367
0.287277
0.300575
0.314254
0.328312
0.342749
0.357565
0.372756
0.388326
0.404272
0.420599
0.437311
0.454413
0.47191
0.489807
0.508107
0.526817
0.545939
0.565478
0.585436
0.605818
0.626627
0.647865
0.669533
0.691634
0.714167
0.737134
0.760533
0.784363
0.808621
0.833306
0.858412
0.883937
0.909873
0.936215
0.962955
0.990085
1.0176
1.04548
1.07371
1.1023
1.13122
1.16045
1.18999
1.21981
1.2499
1.28024
1.31081
1.34159
1.37255
1.40368
1.43494
1.46632
1.49778
1.5293
1.56084
1.59239
1.6239
1.65535
1.68668
1.71787
1.74888
1.77966
1.81019
1.84043
1.87035
1.89993
1.92914
1.95794
1.9863
2.01417
2.0415
2.06826
2.0944
2.11987
2.14462
2.16862
2.19181
2.21415
2.23559
2.25609
2.27559
2.29405
2.31143
2.32769
2.34278
2.35666
2.36931
2.38069
2.39077
2.39953
2.40696
2.41302
2.41771
2.42084
2.42241
2.42291
2.42208
2.41976
2.41606
2.41101
2.40464
2.39699
2.38811
2.37804
2.36684
2.35458
2.34133
2.32716
2.31214
2.29637
2.27992
2.26287
2.24531
2.22734
2.20903
2.19048
2.17179
2.15303
2.1343
2.11568
2.09727
2.07914
2.06137
2.04404
2.02721
2.01097
1.99535
1.98043
1.96624
1.95285
1.94029
1.92866
1.91789
1.90804
1.89907
1.89092
1.88355
1.87688
1.87083
1.8653
1.86017
1.85532
1.85053
1.8458
1.83889
1.82244
0.0214063
0.0388598
0.0500645
0.0582647
0.0651225
0.0713059
0.077168
0.0829292
0.0887384
0.0946959
0.100864
0.107276
0.113946
0.120878
0.128072
0.135533
0.14327
0.151298
0.159637
0.168313
0.177348
0.186766
0.196586
0.206825
0.217495
0.228606
0.240162
0.252163
0.264608
0.277498
0.290834
0.304617
0.318842
0.333509
0.348614
0.364154
0.380127
0.396532
0.413367
0.430633
0.448328
0.466456
0.485019
0.504019
0.523461
0.543351
0.563694
0.584495
0.605758
0.62749
0.649694
0.672375
0.695536
0.719182
0.743315
0.767939
0.793055
0.818665
0.844769
0.871369
0.898462
0.926048
0.954125
0.982689
1.01174
1.04126
1.07126
1.10172
1.13264
1.164
1.1958
1.22803
1.26066
1.2937
1.32712
1.3609
1.39503
1.42948
1.46424
1.49929
1.53461
1.57016
1.60592
1.64187
1.67798
1.71421
1.75055
1.78695
1.82338
1.85982
1.89622
1.93255
1.96877
2.00485
2.04074
2.07641
2.11182
2.14693
2.1817
2.21609
2.25007
2.28357
2.31656
2.34898
2.38078
2.41192
2.44234
2.47199
2.50082
2.52877
2.55579
2.58184
2.60684
2.63076
2.65353
2.67511
2.69544
2.71447
2.73217
2.74847
2.76335
2.77676
2.78868
2.79907
2.8079
2.81515
2.82082
2.82483
2.82699
2.82772
2.82695
2.82451
2.82046
2.81484
2.80769
2.79904
2.78895
2.77747
2.76467
2.75062
2.7354
2.71909
2.70177
2.68355
2.66451
2.64474
2.62435
2.60344
2.5821
2.56045
2.53858
2.5166
2.4946
2.47269
2.45096
2.42952
2.40843
2.3878
2.36771
2.34822
2.32941
2.31134
2.29405
2.2776
2.26202
2.24735
2.23358
2.22076
2.20883
2.19775
2.18747
2.17792
2.16904
2.16072
2.1529
2.14552
2.13848
2.13191
2.12417
2.11056
0.0251523
0.0485201
0.0620677
0.0717662
0.0797802
0.0869421
0.0936841
0.100268
0.106869
0.113603
0.120548
0.127751
0.135237
0.143019
0.151106
0.159505
0.168229
0.177293
0.186716
0.196521
0.206728
0.217358
0.228428
0.239953
0.251943
0.264406
0.277346
0.290766
0.304668
0.319053
0.33392
0.349269
0.365097
0.381404
0.398186
0.415444
0.433175
0.45138
0.470058
0.48921
0.508838
0.528945
0.549533
0.570609
0.592177
0.614246
0.636819
0.659905
0.683507
0.707633
0.732287
0.757475
0.783203
0.809473
0.836292
0.863661
0.891585
0.920064
0.949102
0.978698
1.00885
1.03957
1.07083
1.10265
1.13502
1.16794
1.20139
1.23537
1.26988
1.3049
1.34041
1.37642
1.4129
1.44983
1.48721
1.52501
1.56321
1.60179
1.64073
1.68
1.71958
1.75944
1.79955
1.83988
1.88039
1.92107
1.96186
2.00274
2.04366
2.0846
2.12552
2.16637
2.20711
2.2477
2.28811
2.32827
2.36816
2.40772
2.4469
2.48567
2.52395
2.56172
2.5989
2.63545
2.67131
2.70642
2.74073
2.77418
2.80671
2.83827
2.86879
2.89822
2.92649
2.95355
2.97934
3.00379
3.02687
3.0485
3.06863
3.08722
3.10423
3.11959
3.13329
3.14528
3.15552
3.16401
3.17071
3.17561
3.17851
3.17962
3.17908
3.17669
3.17249
3.16651
3.1588
3.1494
3.13836
3.12574
3.11161
3.09605
3.07914
3.06097
3.04164
3.02123
2.99987
2.97764
2.95466
2.93104
2.90689
2.88232
2.85745
2.83239
2.80724
2.78213
2.75715
2.73241
2.70801
2.68404
2.66059
2.63773
2.61556
2.59412
2.57347
2.55366
2.53473
2.51671
2.4996
2.48343
2.46816
2.45375
2.44017
2.42735
2.41526
2.40382
2.393
2.3828
2.37325
2.36453
2.3554
2.34254
0.0281693
0.0572182
0.0729982
0.084146
0.0932672
0.101342
0.108873
0.116162
0.123409
0.130754
0.13829
0.146082
0.154171
0.162582
0.171332
0.180436
0.189908
0.199764
0.210021
0.220698
0.231813
0.243383
0.255422
0.267942
0.280952
0.29446
0.308471
0.322987
0.338011
0.353544
0.369587
0.38614
0.403201
0.420772
0.438852
0.457441
0.47654
0.49615
0.516274
0.536914
0.558073
0.579758
0.601973
0.624724
0.648019
0.671864
0.696266
0.721234
0.746774
0.772893
0.799597
0.826896
0.854793
0.883295
0.912409
0.942138
0.972486
1.00346
1.03506
1.06728
1.10014
1.13362
1.16774
1.20248
1.23784
1.27382
1.31041
1.34761
1.38541
1.42379
1.46275
1.50227
1.54233
1.58292
1.62402
1.66561
1.70767
1.75017
1.79308
1.83639
1.88006
1.92405
1.96834
2.01289
2.05767
2.10264
2.14776
2.19299
2.23829
2.28361
2.32893
2.37418
2.41932
2.46431
2.50909
2.55362
2.59784
2.6417
2.68515
2.72813
2.77058
2.81245
2.85368
2.89421
2.93398
2.97293
3.01099
3.04811
3.08422
3.11926
3.15316
3.18587
3.21731
3.24743
3.27615
3.30343
3.32918
3.35337
3.37592
3.39678
3.41591
3.43325
3.44875
3.46239
3.47411
3.4839
3.49174
3.4976
3.50135
3.503
3.50283
3.50063
3.49643
3.49026
3.48215
3.47216
3.46034
3.44674
3.43144
3.41453
3.39608
3.37619
3.35497
3.33251
3.30892
3.28433
3.25883
3.23256
3.20563
3.17816
3.15028
3.1221
3.09375
3.06534
3.037
3.00882
2.98091
2.95338
2.92633
2.89983
2.87397
2.84881
2.82443
2.80087
2.77817
2.75637
2.73547
2.7155
2.69644
2.67825
2.66093
2.64444
2.62874
2.61381
2.59966
2.58635
2.57397
2.56274
2.55163
2.53816
0.0320095
0.0650437
0.0827323
0.0951686
0.105293
0.1142
0.122445
0.13036
0.138169
0.146028
0.154049
0.162311
0.17087
0.179764
0.189021
0.198661
0.208702
0.219161
0.230054
0.241396
0.253202
0.265487
0.278262
0.291538
0.305324
0.319625
0.334447
0.349793
0.365668
0.382073
0.39901
0.416481
0.434488
0.453031
0.472114
0.491738
0.511906
0.532623
0.553892
0.575718
0.598108
0.621068
0.644605
0.668728
0.693444
0.718762
0.744691
0.771241
0.798419
0.826236
0.8547
0.883818
0.913601
0.944054
0.975187
1.007
1.03951
1.07272
1.10663
1.14124
1.17656
1.21259
1.24932
1.28677
1.32492
1.36378
1.40333
1.44357
1.4845
1.52609
1.56834
1.61124
1.65476
1.69889
1.74361
1.78889
1.83471
1.88105
1.92787
1.97514
2.02283
2.07091
2.11934
2.16808
2.21708
2.26632
2.31573
2.36528
2.41493
2.46461
2.5143
2.56392
2.61343
2.66278
2.7119
2.76075
2.80926
2.85737
2.90503
2.95216
2.99872
3.04464
3.08985
3.13429
3.17791
3.22062
3.26237
3.30309
3.34271
3.38117
3.41839
3.45432
3.48887
3.52199
3.55361
3.58366
3.61208
3.63879
3.66374
3.68688
3.70813
3.72746
3.7448
3.76012
3.77337
3.78453
3.79356
3.80045
3.80513
3.80746
3.80776
3.80587
3.80178
3.79554
3.78715
3.77669
3.7642
3.74974
3.73338
3.71522
3.69533
3.67381
3.65077
3.62632
3.60057
3.57364
3.54564
3.51672
3.48698
3.45657
3.4256
3.39422
3.36254
3.3307
3.2988
3.26698
3.23534
3.204
3.17305
3.14258
3.1127
3.08346
3.05496
3.02723
3.00034
2.97432
2.94919
2.92498
2.90169
2.87932
2.85785
2.83728
2.81761
2.79886
2.78107
2.76434
2.74882
2.73474
2.72117
2.70621
0.0367376
0.0719423
0.09116
0.104681
0.115675
0.12532
0.134204
0.142684
0.150996
0.159311
0.167751
0.17641
0.185355
0.194635
0.204286
0.214337
0.224808
0.235718
0.247083
0.258917
0.271233
0.284044
0.297359
0.311189
0.32554
0.340421
0.355836
0.371791
0.38829
0.405336
0.422934
0.441087
0.459799
0.479075
0.498918
0.519333
0.540327
0.561904
0.584072
0.606838
0.63021
0.654198
0.67881
0.704057
0.729948
0.756496
0.783711
0.811604
0.840186
0.869469
0.899463
0.930179
0.961629
0.993821
1.02677
1.06047
1.09495
1.1302
1.16624
1.20306
1.24068
1.2791
1.31832
1.35834
1.39915
1.44076
1.48316
1.52634
1.5703
1.61502
1.66049
1.70669
1.75362
1.80123
1.84952
1.89846
1.94802
1.99817
2.04888
2.10011
2.15183
2.20399
2.25655
2.30947
2.36271
2.41621
2.46993
2.52381
2.5778
2.63185
2.6859
2.73989
2.79376
2.84745
2.9009
2.95404
3.0068
3.05913
3.11095
3.1622
3.21282
3.26272
3.31186
3.36016
3.40754
3.45395
3.49931
3.54355
3.5866
3.62839
3.66885
3.70791
3.7455
3.78154
3.81598
3.84873
3.87973
3.90892
3.93622
3.96158
3.98493
4.00621
4.02538
4.04238
4.05718
4.06972
4.07997
4.08793
4.09354
4.09667
4.09752
4.09601
4.09213
4.08589
4.07732
4.06647
4.05339
4.03816
4.02083
4.0015
3.98025
3.95717
3.93238
3.90598
3.8781
3.84886
3.81837
3.78678
3.75421
3.7208
3.68668
3.652
3.61687
3.58144
3.54583
3.51017
3.47457
3.43916
3.40405
3.36932
3.33509
3.30144
3.26845
3.23619
3.20472
3.17409
3.14434
3.1155
3.0876
3.06066
3.03468
3.00971
2.98576
2.96289
2.94118
2.92079
2.90186
2.88461
2.86821
2.85124
0.0411026
0.077683
0.0981503
0.112582
0.124321
0.13461
0.144063
0.153049
0.161816
0.170541
0.179355
0.18836
0.197631
0.207227
0.21719
0.227554
0.238345
0.249583
0.261285
0.273465
0.286137
0.299311
0.312998
0.327208
0.341947
0.357224
0.373046
0.389418
0.406347
0.423839
0.441899
0.460534
0.47975
0.499554
0.519952
0.540953
0.562565
0.584795
0.607655
0.631152
0.655299
0.680107
0.705588
0.731754
0.758619
0.786197
0.814499
0.843542
0.873338
0.903901
0.935246
0.967385
1.00033
1.0341
1.0687
1.10414
1.14044
1.17761
1.21565
1.25457
1.29438
1.33508
1.37668
1.41918
1.46258
1.50687
1.55206
1.59812
1.64507
1.69288
1.74153
1.79102
1.84133
1.89242
1.94428
1.99687
2.05017
2.10414
2.15874
2.21394
2.26969
2.32594
2.38266
2.43978
2.49726
2.55504
2.61307
2.67128
2.72962
2.78802
2.84643
2.90477
2.96297
3.02097
3.0787
3.13608
3.19305
3.24953
3.30544
3.36073
3.41532
3.46912
3.52208
3.57412
3.62517
3.67515
3.72398
3.77161
3.81795
3.86294
3.90649
3.94854
3.98902
4.02785
4.06496
4.10028
4.13374
4.16527
4.19481
4.22228
4.24762
4.27078
4.2917
4.31032
4.3266
4.34049
4.35195
4.36096
4.36749
4.37144
4.37289
4.37182
4.3682
4.36202
4.35332
4.34215
4.32857
4.31264
4.29442
4.27399
4.25145
4.22688
4.2004
4.17212
4.14216
4.11064
4.07768
4.04343
4.00802
3.97158
3.93427
3.89621
3.85755
3.81842
3.77897
3.73931
3.69958
3.65991
3.62041
3.58119
3.54236
3.50401
3.46625
3.42915
3.39279
3.35722
3.32252
3.28874
3.25591
3.22409
3.19333
3.16367
3.13518
3.10796
3.08211
3.05782
3.03526
3.01462
2.99512
2.97554
0.0449558
0.0822525
0.103704
0.11888
0.131241
0.142079
0.152025
0.161458
0.17063
0.179722
0.188869
0.198176
0.207725
0.217579
0.227787
0.238385
0.249404
0.260868
0.272794
0.285198
0.298094
0.311495
0.325409
0.339849
0.354823
0.370339
0.386407
0.403033
0.420227
0.437996
0.456349
0.475295
0.494842
0.515001
0.535782
0.557194
0.579248
0.601958
0.625334
0.649389
0.674138
0.699595
0.725774
0.752693
0.780367
0.808812
0.838046
0.868086
0.898948
0.930649
0.963207
0.996638
1.03096
1.06618
1.10233
1.13941
1.17744
1.21642
1.25639
1.29733
1.33926
1.38219
1.42613
1.47107
1.51701
1.56396
1.61191
1.66085
1.71077
1.76166
1.81351
1.86629
1.91998
1.97456
2.03
2.08627
2.14332
2.20113
2.25964
2.31882
2.37862
2.43898
2.49985
2.56117
2.62289
2.68494
2.74726
2.80978
2.87243
2.93514
2.99785
3.06047
3.12293
3.18516
3.24708
3.30861
3.36966
3.43017
3.49006
3.54924
3.60764
3.66519
3.7218
3.7774
3.83191
3.88527
3.93738
3.98818
4.0376
4.08555
4.13198
4.17679
4.21993
4.26132
4.30088
4.33855
4.37426
4.40793
4.4395
4.4689
4.49606
4.52093
4.54344
4.56355
4.58119
4.59633
4.60893
4.61893
4.62633
4.63106
4.63312
4.63251
4.62918
4.62308
4.61429
4.60286
4.58883
4.57227
4.55323
4.53179
4.50804
4.48207
4.45398
4.42389
4.39191
4.35818
4.32281
4.28594
4.24771
4.20827
4.16775
4.1263
4.08407
4.0412
3.99782
3.95408
3.91012
3.86605
3.82202
3.77814
3.73453
3.6913
3.64856
3.60639
3.56491
3.52418
3.48429
3.44532
3.40733
3.37041
3.33463
3.30008
3.26687
3.23511
3.20495
3.1766
3.15023
3.12605
3.10328
3.08101
0.0482598
0.0857111
0.107896
0.123658
0.136518
0.147805
0.158165
0.167978
0.177499
0.186909
0.196343
0.205908
0.215688
0.225748
0.23614
0.246906
0.258077
0.269679
0.281734
0.29426
0.30727
0.320779
0.334798
0.349341
0.364419
0.380041
0.396217
0.412959
0.430277
0.448182
0.466686
0.4858
0.505536
0.525906
0.546925
0.568605
0.59096
0.614006
0.637759
0.662233
0.687446
0.713417
0.740165
0.767709
0.796068
0.825264
0.855316
0.886245
0.918071
0.950816
0.984499
1.01914
1.05476
1.09138
1.12901
1.16767
1.20738
1.24816
1.29001
1.33296
1.377
1.42215
1.46842
1.51581
1.56431
1.61393
1.66467
1.7165
1.76943
1.82344
1.87851
1.93461
1.99173
2.04983
2.10887
2.16883
2.22966
2.29132
2.35376
2.41692
2.48076
2.54521
2.61022
2.67571
2.74162
2.80788
2.87442
2.94117
3.00804
3.07496
3.14185
3.20862
3.2752
3.3415
3.40744
3.47292
3.53787
3.60221
3.66583
3.72868
3.79065
3.85168
3.91167
3.97056
4.02825
4.08468
4.13977
4.19344
4.24561
4.29621
4.34518
4.39244
4.43791
4.48153
4.52323
4.56293
4.60058
4.63609
4.6694
4.70045
4.72917
4.75551
4.77939
4.80077
4.8196
4.83582
4.8494
4.86029
4.86846
4.87388
4.87652
4.87633
4.87332
4.8673
4.85844
4.84678
4.83236
4.81523
4.79545
4.77309
4.74822
4.72095
4.69135
4.65956
4.62567
4.58982
4.55213
4.51273
4.47177
4.42938
4.38572
4.34093
4.29516
4.24856
4.20126
4.15343
4.1052
4.05671
4.00809
3.95948
3.911
3.86278
3.81494
3.76759
3.72085
3.67482
3.62959
3.58529
3.542
3.49983
3.4589
3.41933
3.38126
3.34484
3.31026
3.27773
3.24744
3.2196
3.19348
3.16842
0.051008
0.0881463
0.110837
0.127033
0.140273
0.15191
0.162598
0.172719
0.182524
0.192194
0.201863
0.211637
0.221597
0.231811
0.242333
0.253204
0.264459
0.276127
0.288231
0.300791
0.313824
0.327346
0.341371
0.355913
0.370986
0.386603
0.402776
0.419521
0.43685
0.454777
0.473317
0.492485
0.512297
0.532768
0.553914
0.575753
0.598303
0.621582
0.645609
0.670404
0.695988
0.722385
0.749617
0.777707
0.80668
0.836561
0.867373
0.899141
0.931889
0.965643
1.00042
1.03626
1.07317
1.11117
1.1503
1.19056
1.23198
1.27457
1.31836
1.36335
1.40955
1.45698
1.50565
1.55554
1.60667
1.65904
1.71263
1.76743
1.82344
1.88062
1.93897
1.99845
2.05904
2.1207
2.18339
2.24706
2.31168
2.37719
2.44354
2.51066
2.57849
2.64698
2.71604
2.7856
2.8556
2.92595
2.99657
3.06737
3.13828
3.20921
3.28007
3.35076
3.42121
3.49131
3.56098
3.63012
3.69865
3.76648
3.83351
3.89965
3.96483
4.02896
4.09195
4.15372
4.21418
4.27327
4.33091
4.38701
4.4415
4.49432
4.54539
4.59465
4.64203
4.68745
4.73086
4.77218
4.81135
4.84831
4.88299
4.91532
4.94525
4.97272
4.99767
5.02004
5.03978
5.05686
5.07121
5.08281
5.09162
5.0976
5.10073
5.10092
5.09823
5.09228
5.08336
5.0715
5.05674
5.03911
5.01868
4.99549
4.96962
4.94116
4.9102
4.87683
4.84118
4.80335
4.76348
4.72169
4.67813
4.63293
4.58625
4.53823
4.48903
4.43879
4.38767
4.33582
4.28338
4.2305
4.17733
4.12401
4.07067
4.01747
3.96452
3.91197
3.85994
3.80856
3.75796
3.70826
3.65962
3.61215
3.56601
3.52136
3.47838
3.43725
3.39818
3.36142
3.32716
3.29561
3.26613
3.23829
0.0532131
0.0896613
0.112649
0.12914
0.142647
0.154534
0.165461
0.17581
0.185828
0.195694
0.205538
0.215463
0.22555
0.235866
0.246462
0.257383
0.268665
0.280339
0.292428
0.304954
0.317935
0.33139
0.345337
0.359794
0.374776
0.390302
0.406387
0.42305
0.440306
0.458174
0.476672
0.495819
0.515634
0.536138
0.557348
0.579287
0.601976
0.625434
0.649685
0.674755
0.700672
0.727463
0.755158
0.783784
0.813369
0.843942
0.875532
0.908167
0.941875
0.976686
1.01263
1.04972
1.088
1.12748
1.1682
1.21016
1.25341
1.29794
1.34378
1.39095
1.43945
1.4893
1.54049
1.59304
1.64693
1.70217
1.75874
1.81663
1.87582
1.93628
1.998
2.06093
2.12505
2.1903
2.25665
2.32404
2.39243
2.46174
2.53193
2.60292
2.67463
2.74701
2.81996
2.89342
2.96728
3.04148
3.11591
3.1905
3.26513
3.33973
3.4142
3.48844
3.56235
3.63584
3.7088
3.78116
3.85279
3.92363
3.99356
4.0625
4.13036
4.19706
4.2625
4.3266
4.38929
4.45048
4.51009
4.56806
4.62431
4.67878
4.7314
4.7821
4.83082
4.8775
4.92208
4.9645
5.00469
5.0426
5.07817
5.11134
5.14204
5.17023
5.19586
5.21887
5.23921
5.25685
5.27172
5.28381
5.29306
5.29945
5.30294
5.30342
5.30104
5.29516
5.28617
5.27414
5.25909
5.24105
5.22006
5.19617
5.16944
5.13995
5.10778
5.07302
5.03578
4.99618
4.95432
4.91034
4.86438
4.81656
4.76706
4.716
4.66355
4.60985
4.55507
4.49936
4.44286
4.38574
4.32816
4.27024
4.21217
4.15407
4.09611
4.03843
3.98118
3.92452
3.86859
3.81356
3.7596
3.70686
3.65555
3.60584
3.55796
3.51213
3.46859
3.4276
3.38938
3.35415
3.32132
3.29079
0.054897
0.0903487
0.113456
0.130117
0.143783
0.155818
0.166893
0.177386
0.187542
0.197534
0.207489
0.217506
0.227664
0.238027
0.248646
0.259565
0.27082
0.282444
0.294466
0.30691
0.319786
0.333118
0.346928
0.361241
0.376077
0.391458
0.407405
0.423939
0.441081
0.458854
0.47728
0.496384
0.516187
0.536714
0.557987
0.580032
0.602872
0.626529
0.651023
0.676396
0.702689
0.729932
0.75816
0.787406
0.817703
0.849083
0.88158
0.915225
0.95005
0.986088
1.02337
1.06192
1.10178
1.14296
1.18549
1.2294
1.2747
1.32142
1.36957
1.41916
1.47021
1.52271
1.57668
1.6321
1.68897
1.74728
1.80702
1.86816
1.93067
1.99453
2.05971
2.12616
2.19384
2.26269
2.33267
2.40372
2.47578
2.54877
2.62263
2.69728
2.77264
2.84863
2.92517
3.00217
3.07953
3.15717
3.23498
3.31286
3.39073
3.46847
3.546
3.6232
3.69999
3.77624
3.85187
3.92678
4.00086
4.07402
4.14617
4.2172
4.28704
4.35558
4.42276
4.48848
4.55266
4.61523
4.67611
4.73523
4.79252
4.84793
4.90139
4.95284
5.00224
5.04952
5.09463
5.13752
5.17813
5.21641
5.25231
5.28577
5.31675
5.34519
5.37105
5.39429
5.41486
5.43271
5.44781
5.46012
5.46959
5.4762
5.47991
5.48062
5.47847
5.47267
5.46362
5.45146
5.43619
5.41783
5.39641
5.37196
5.34453
5.3142
5.28103
5.24511
5.20653
5.16539
5.1218
5.07589
5.02779
4.97763
4.92556
4.87174
4.8163
4.75941
4.70123
4.6419
4.5816
4.52047
4.45869
4.39641
4.3338
4.27101
4.20823
4.1456
4.08331
4.02153
3.96044
3.90021
3.84106
3.78319
3.72681
3.67216
3.61949
3.56906
3.52112
3.47598
3.43386
3.39502
3.35886
3.32571
0.056067
0.0902704
0.113336
0.130042
0.143763
0.155859
0.167006
0.17757
0.187793
0.197843
0.207845
0.217893
0.228062
0.238416
0.249004
0.25987
0.271051
0.282584
0.2945
0.306834
0.319585
0.332785
0.346459
0.360634
0.375335
0.390589
0.406418
0.422848
0.439906
0.457618
0.476011
0.495112
0.514952
0.535558
0.556958
0.579183
0.602264
0.626236
0.651104
0.67694
0.703782
0.731671
0.760646
0.790749
0.82202
0.854492
0.888198
0.923175
0.959456
0.997078
1.03607
1.07648
1.11831
1.1616
1.20637
1.25263
1.30042
1.34974
1.40061
1.45303
1.50701
1.56254
1.61962
1.67824
1.73839
1.80003
1.86316
1.92773
1.99371
2.06107
2.12976
2.19972
2.27091
2.34328
2.41674
2.49125
2.56672
2.64309
2.72027
2.79818
2.87674
2.95585
3.03543
3.11539
3.19562
3.27603
3.35652
3.43698
3.51731
3.59741
3.67718
3.75651
3.83531
3.91345
3.99085
4.06741
4.14302
4.21759
4.29102
4.36322
4.43409
4.50356
4.57155
4.63796
4.70273
4.76577
4.82703
4.88642
4.94389
4.99939
5.05286
5.10426
5.15354
5.20066
5.24556
5.2882
5.32854
5.36653
5.40213
5.4353
5.46598
5.49415
5.51976
5.54277
5.56315
5.58086
5.59586
5.6081
5.61755
5.62419
5.62798
5.62882
5.62685
5.62115
5.61207
5.59984
5.58445
5.5659
5.5442
5.51938
5.49148
5.46054
5.42663
5.38983
5.35019
5.30783
5.26283
5.21532
5.16542
5.11326
5.05898
5.00273
4.94466
4.88492
4.82368
4.76108
4.6973
4.6325
4.56685
4.50052
4.43367
4.3665
4.29918
4.23189
4.16483
4.09819
4.03219
3.96701
3.90291
3.84011
3.77888
3.71948
3.6621
3.6071
3.55481
3.50553
3.45954
3.41714
3.37788
3.34244
0.056911
0.0897808
0.112642
0.129293
0.142985
0.155061
0.166183
0.176725
0.186926
0.196953
0.206929
0.216945
0.227073
0.237374
0.247896
0.258682
0.269771
0.281194
0.292981
0.305156
0.317741
0.330773
0.344284
0.358306
0.372869
0.388006
0.403747
0.420128
0.437178
0.454932
0.473427
0.492704
0.512801
0.533744
0.555559
0.578285
0.601957
0.626601
0.652234
0.67895
0.706805
0.735845
0.766112
0.797646
0.830483
0.864662
0.900222
0.9372
0.97563
1.01555
1.05701
1.10002
1.1446
1.19077
1.23854
1.28793
1.33895
1.3916
1.44588
1.50179
1.55931
1.61845
1.67916
1.74144
1.80526
1.87057
1.93735
2.00555
2.07512
2.14601
2.21817
2.29153
2.36605
2.44164
2.51824
2.59578
2.67417
2.75334
2.83321
2.91368
2.99468
3.0761
3.15785
3.23984
3.32197
3.40415
3.48626
3.56821
3.64989
3.7312
3.81204
3.89232
3.97192
4.05074
4.12869
4.20566
4.28157
4.35632
4.42981
4.50196
4.57267
4.64187
4.70949
4.77543
4.83964
4.90204
4.96257
5.02115
5.07775
5.13231
5.18481
5.23519
5.28342
5.32946
5.37329
5.41486
5.45414
5.49109
5.52568
5.55788
5.58763
5.61493
5.63975
5.66205
5.6818
5.69896
5.7135
5.72537
5.73455
5.741
5.7447
5.74558
5.74377
5.7382
5.72913
5.71691
5.7015
5.6829
5.66111
5.63613
5.60799
5.57672
5.54236
5.50497
5.46462
5.42137
5.37532
5.32657
5.27523
5.22144
5.16533
5.10703
5.04671
4.98451
4.92058
4.85509
4.78821
4.7201
4.65094
4.58091
4.51019
4.43897
4.36745
4.29583
4.22432
4.15314
4.08243
4.01249
3.9436
3.87603
3.81009
3.74607
3.6844
3.62533
3.56915
3.51621
3.4668
3.42127
3.37921
3.34166
0.0573614
0.0886883
0.111161
0.127633
0.141195
0.153161
0.164182
0.174632
0.184749
0.194696
0.204593
0.214527
0.224568
0.234773
0.245193
0.25587
0.266842
0.278147
0.289819
0.301895
0.314414
0.32741
0.34092
0.354979
0.369624
0.384896
0.400837
0.417498
0.43491
0.453106
0.472133
0.492038
0.512855
0.534555
0.557233
0.580955
0.60578
0.631774
0.658992
0.687485
0.717304
0.748499
0.781113
0.815187
0.850755
0.887853
0.926513
0.966763
1.00863
1.05213