/*--------------------------------*- C++ -*----------------------------------*\
| =========                 |                                                 |
| \\      /  F ield         | OpenFOAM: The Open Source CFD Toolbox           |
|  \\    /   O peration     | Version:  2306                                  |
|   \\  /    A nd           | Website:  www.openfoam.com                      |
|    \\/     M anipulation  |                                                 |
\*---------------------------------------------------------------------------*/
FoamFile
{
    version     2.0;
    format      ascii;
    arch        "LSB;label=32;scalar=64";
    class       volScalarField;
    location    "200";
    object      nut;
}
// * * * * * * * * * * * * * * * * * * * * * * * * * * * * * * * * * * * * * //

dimensions      [0 2 -1 0 0 0 0];

internalField   nonuniform List<scalar> 
12225
(
2.70744e-05
3.55746e-05
4.0523e-05
4.31922e-05
4.44515e-05
4.49642e-05
4.49776e-05
4.47478e-05
4.45663e-05
4.42014e-05
4.38558e-05
4.35245e-05
4.32276e-05
4.2946e-05
4.27116e-05
4.24761e-05
4.23128e-05
4.20942e-05
0.000212994
8.46413e-05
5.59086e-05
4.40566e-05
3.83778e-05
3.5351e-05
3.38604e-05
3.30667e-05
3.28624e-05
3.28712e-05
3.32223e-05
3.35964e-05
3.4237e-05
3.47904e-05
3.559e-05
3.62327e-05
3.70783e-05
3.77599e-05
0.000656977
0.000306545
0.000194002
0.000142114
0.000113221
9.44982e-05
8.20277e-05
7.33138e-05
6.68018e-05
6.19627e-05
5.80442e-05
5.51119e-05
5.25363e-05
5.07104e-05
4.89147e-05
4.77857e-05
4.66496e-05
4.53034e-05
0.000863005
0.000609445
0.000451595
0.000350881
0.00028928
0.000246516
0.000216672
0.000194308
0.000177757
0.0001643
0.000154044
0.000145073
0.000138197
0.000131742
0.000126863
0.00012195
0.000118632
0.000113443
0.000877435
0.000776401
0.000690827
0.000591974
0.000517295
0.000458118
0.000413463
0.000377248
0.000349662
0.00032598
0.000307897
0.000291309
0.000278931
0.000266595
0.000257887
0.000248284
0.000241911
0.000233959
0.000858412
0.00083529
0.000807269
0.000753121
0.000699366
0.000648266
0.000604819
0.000565881
0.000534196
0.000505375
0.000482493
0.000460726
0.000444104
0.000427067
0.000415005
0.000401114
0.00039263
0.000380149
0.000854258
0.000849543
0.000840709
0.00082304
0.000798591
0.000768477
0.000739171
0.000709562
0.000683351
0.000657731
0.000636209
0.000614798
0.000597722
0.00057978
0.000566559
0.000551202
0.000541477
0.00052682
0.000852389
0.000851592
0.000849791
0.000844527
0.000835945
0.000824523
0.000810173
0.000793468
0.00077724
0.000760016
0.000744562
0.000728289
0.000714577
0.000699765
0.000688179
0.000674771
0.000665564
0.000652161
0.000851902
0.000851481
0.000851079
0.000849882
0.000847544
0.000843618
0.000838592
0.000831272
0.000823647
0.000814991
0.000806299
0.000796551
0.000787799
0.00077807
0.000769849
0.000760492
0.00075327
0.000743478
0.000851815
0.000851374
0.000851073
0.00085061
0.000850034
0.000848809
0.000847331
0.000844858
0.000841997
0.000838305
0.000834503
0.000829863
0.000825424
0.000820274
0.000815571
0.000810272
0.000805603
0.000799746
0.000851799
0.000851357
0.000851021
0.000850624
0.000850325
0.000849824
0.000849338
0.000848518
0.000847605
0.000846261
0.000844873
0.000843009
0.000841201
0.000838883
0.000836819
0.000834104
0.000832045
0.000828845
0.000851792
0.000851359
0.000851001
0.000850611
0.000850306
0.000849938
0.000849631
0.00084921
0.000848815
0.000848234
0.000847676
0.000846876
0.000846138
0.000845093
0.000844214
0.000842916
0.000841976
0.000840425
0.000851787
0.000851362
0.000850989
0.000850608
0.00085028
0.000849936
0.000849645
0.000849319
0.000849041
0.000848698
0.000848399
0.000848002
0.000847659
0.00084718
0.000846787
0.000846212
0.000845772
0.000845101
0.000851783
0.000851364
0.00085098
0.000850605
0.000850263
0.000849926
0.000849622
0.000849316
0.000849043
0.000848759
0.000848507
0.000848233
0.000847991
0.000847715
0.000847473
0.000847186
0.000846937
0.000846636
0.000851781
0.000851364
0.000850974
0.0008506
0.000850251
0.000849916
0.000849603
0.0008493
0.000849018
0.000848744
0.000848489
0.000848238
0.000848005
0.000847773
0.000847557
0.000847341
0.000847137
0.000846933
0.00085178
0.000851363
0.00085097
0.000850596
0.000850243
0.000849907
0.000849589
0.000849286
0.000848999
0.000848724
0.000848464
0.000848214
0.000847977
0.000847749
0.000847532
0.000847323
0.000847124
0.000846932
0.000851779
0.000851362
0.000850967
0.000850592
0.000850236
0.000849899
0.000849579
0.000849274
0.000848984
0.000848707
0.000848444
0.000848192
0.000847952
0.000847722
0.000847503
0.000847292
0.000847091
0.000846898
0.000851779
0.000851362
0.000850966
0.00085059
0.000850233
0.000849894
0.000849572
0.000849266
0.000848974
0.000848696
0.00084843
0.000848177
0.000847935
0.000847703
0.000847482
0.00084727
0.000847066
0.000846872
0.000851779
0.000851362
0.000850965
0.000850589
0.000850232
0.000849892
0.00084957
0.000849263
0.00084897
0.000848691
0.000848425
0.00084817
0.000847927
0.000847694
0.000847472
0.000847258
0.000847054
0.000846859
0.000851779
0.000851363
0.000850966
0.000850591
0.000850234
0.000849895
0.000849573
0.000849266
0.000848974
0.000848695
0.000848428
0.000848174
0.00084793
0.000847697
0.000847473
0.000847259
0.000847052
0.000846855
0.000851779
0.000851364
0.000850968
0.000850595
0.000850238
0.000849902
0.000849579
0.000849274
0.000848979
0.0008487
0.000848427
0.000848168
0.000847911
0.000847667
0.00084742
0.000847188
0.000846947
0.000846723
0.000851778
0.000851368
0.000850969
0.000850603
0.000850243
0.000849911
0.000849573
0.000849254
0.000848916
0.000848587
0.000848223
0.000847865
0.000847456
0.00084706
0.000846596
0.00084616
0.000845637
0.00084517
0.000851779
0.000851382
0.000850972
0.000850624
0.000850209
0.000849789
0.000849234
0.000848616
0.000847803
0.000846896
0.000845768
0.00084456
0.000843125
0.000841663
0.00083996
0.000838328
0.000836385
0.000834698
0.000851855
0.000851468
0.000850931
0.000850395
0.000849126
0.000847458
0.000844947
0.00084194
0.000838072
0.000833847
0.00082896
0.000823928
0.000818449
0.000812998
0.000807318
0.000801579
0.000795906
0.000790786
0.000852785
0.000851382
0.000849188
0.000845095
0.000836885
0.000827817
0.000815748
0.000802822
0.000788372
0.000774367
0.00075966
0.000746074
0.000732114
0.000719678
0.000706814
0.000695831
0.000684078
0.000674684
0.000858211
0.000842301
0.000828961
0.000803013
0.000769258
0.000735474
0.000700802
0.000669703
0.000639496
0.00061359
0.000588609
0.00056774
0.000547309
0.000530651
0.000513857
0.000500599
0.000486554
0.000476052
0.000864338
0.000785615
0.000712709
0.000628299
0.000558283
0.000503081
0.000455745
0.000418865
0.000386621
0.00036159
0.000338759
0.000321222
0.000304409
0.000291764
0.000278903
0.000269539
0.000259359
0.000252292
0.000775957
0.000540064
0.000397941
0.000312963
0.000258156
0.000219634
0.000190504
0.000169564
0.000152551
0.00013999
0.000129093
0.000121015
0.000113524
0.000108073
0.00010263
9.88074e-05
9.4683e-05
9.191e-05
0.000323582
0.000164841
0.000111417
8.60759e-05
7.08264e-05
6.13545e-05
5.50183e-05
5.08855e-05
4.79531e-05
4.60097e-05
4.45905e-05
4.36881e-05
4.30395e-05
4.26951e-05
4.24556e-05
4.24396e-05
4.24365e-05
4.26232e-05
3.26574e-05
3.90519e-05
4.3892e-05
4.69716e-05
4.93654e-05
5.11698e-05
5.25343e-05
5.34594e-05
5.4114e-05
5.44633e-05
5.46905e-05
5.46972e-05
5.4654e-05
5.45497e-05
5.43768e-05
5.41694e-05
5.39443e-05
5.37077e-05
3.84181e-06
1.0503e-05
1.24732e-05
1.39656e-05
1.50676e-05
1.58846e-05
1.65172e-05
1.70797e-05
1.75703e-05
1.80243e-05
1.84602e-05
1.8908e-05
1.9381e-05
1.99301e-05
2.05785e-05
2.13057e-05
2.20632e-05
2.2853e-05
2.36599e-05
2.45007e-05
2.53637e-05
2.62647e-05
2.71892e-05
2.81498e-05
2.9131e-05
3.01438e-05
3.11748e-05
3.22311e-05
3.32915e-05
3.43636e-05
3.54347e-05
3.65125e-05
3.75862e-05
3.86632e-05
3.9734e-05
4.08063e-05
4.18712e-05
4.2938e-05
4.40014e-05
4.50728e-05
4.61498e-05
4.72473e-05
4.83627e-05
4.947e-05
5.05752e-05
5.1681e-05
5.27824e-05
5.3886e-05
5.49854e-05
5.60874e-05
5.71856e-05
5.82865e-05
5.93839e-05
6.04838e-05
6.15805e-05
6.26796e-05
6.37755e-05
6.48733e-05
6.59679e-05
6.7064e-05
6.81565e-05
6.92498e-05
7.03391e-05
7.14287e-05
7.25137e-05
7.35981e-05
7.46771e-05
7.57548e-05
7.68262e-05
7.78952e-05
7.89571e-05
8.00157e-05
8.10661e-05
8.21122e-05
8.3149e-05
8.41802e-05
8.5201e-05
8.6215e-05
8.72176e-05
8.82121e-05
8.91942e-05
9.01668e-05
9.11258e-05
9.20743e-05
9.30077e-05
9.3929e-05
9.48341e-05
9.57253e-05
9.65993e-05
9.74575e-05
9.82984e-05
9.91202e-05
9.99217e-05
0.000100701
0.000101458
0.000102191
0.000102897
0.000103578
0.000104233
0.000104879
0.000105496
0.000106091
0.000106662
0.000107208
0.00010773
0.000108226
0.000108696
0.000109139
0.000109555
0.000109943
0.000110302
0.000110633
0.000110933
0.000111203
0.000111442
0.000111649
0.000111825
0.000111968
0.000112078
0.000112154
0.000112196
0.000112204
0.000112178
0.000112117
0.000112023
0.000111894
0.00011173
0.000111515
0.000111269
0.000111007
0.000110709
0.000110367
0.000109994
0.000109587
0.000109148
0.000108675
0.000108173
0.00010764
0.000107076
0.000106482
0.000105861
0.000105215
0.000104546
0.000103855
0.000103143
0.000102414
0.000101668
0.000100909
0.000100137
9.93559e-05
9.85662e-05
9.77721e-05
9.69738e-05
9.61757e-05
9.53781e-05
9.45853e-05
9.37976e-05
9.30192e-05
9.22508e-05
9.14958e-05
9.07552e-05
9.00345e-05
8.93331e-05
8.8661e-05
8.80766e-05
8.80234e-05
8.7845e-05
8.73353e-05
8.69993e-05
8.6681e-05
8.64214e-05
8.6138e-05
8.59052e-05
8.57039e-05
8.55213e-05
8.53493e-05
8.51744e-05
8.49902e-05
8.4748e-05
8.34623e-05
6.05374e-06
2.91042e-05
6.22088e-05
8.79233e-05
0.0001052
0.000116196
0.000122753
0.000126479
0.000129104
0.000131477
0.000133905
0.000136411
0.000138878
0.000141164
0.000143238
0.000145207
0.000147167
0.000149185
0.000151317
0.000153621
0.000156149
0.000158946
0.000162042
0.000165461
0.000169209
0.000173291
0.000177705
0.000182464
0.000187547
0.000192909
0.000198518
0.00020437
0.000210476
0.000216837
0.000223429
0.000230239
0.000237212
0.000244288
0.000251437
0.000258641
0.000265881
0.000273163
0.000280514
0.000287926
0.000295405
0.000302954
0.000310575
0.00031827
0.00032604
0.000333889
0.000341817
0.000349828
0.000357924
0.000366106
0.000374378
0.000382742
0.000391199
0.000399753
0.000408403
0.000417153
0.000426003
0.000434954
0.000444007
0.000453162
0.000462419
0.000471778
0.000481238
0.000490798
0.000500456
0.000510212
0.000520062
0.000530006
0.00054004
0.000550161
0.000560366
0.000570652
0.000581014
0.000591448
0.000601951
0.000612518
0.000623145
0.000633829
0.000644564
0.000655346
0.000666171
0.000677034
0.000687931
0.000698858
0.000709814
0.000720794
0.000731799
0.000742818
0.000753841
0.00076485
0.000775816
0.000786688
0.000797372
0.000807712
0.000817473
0.000826693
0.000835866
0.000844918
0.000853854
0.000862666
0.000871344
0.000879878
0.000888259
0.000896477
0.000904519
0.000912377
0.000920037
0.000927488
0.00093472
0.000941718
0.000948471
0.000954967
0.000961193
0.000967137
0.000972787
0.00097813
0.000983155
0.000987851
0.000992212
0.000996235
0.000999929
0.00100333
0.00100643
0.00100878
0.00101066
0.00101255
0.00101414
0.0010152
0.00101587
0.00101615
0.00101605
0.00101558
0.00101474
0.00101354
0.00101199
0.00101011
0.0010079
0.00100538
0.00100256
0.000999463
0.000996104
0.000992504
0.000988683
0.000984665
0.000980469
0.000976122
0.000971645
0.000967065
0.000962406
0.000957695
0.000952955
0.000948215
0.000943498
0.000938831
0.000934236
0.000929738
0.000925356
0.000921115
0.000917019
0.000913086
0.00090933
0.000905681
0.000899925
0.000893901
0.000888487
0.000883303
0.000878411
0.000873596
0.000868886
0.000864271
0.000859691
0.000855038
0.000849921
0.000844384
0.000836351
0.000812656
7.55811e-06
4.60974e-05
9.90424e-05
0.000143357
0.000176688
0.000200763
0.000217799
0.00022979
0.000238491
0.000245221
0.000250852
0.000255903
0.000260657
0.000265272
0.000269871
0.000274567
0.000279461
0.000284634
0.000290157
0.000296094
0.000302502
0.000309427
0.000316902
0.000324942
0.000333548
0.000342699
0.000352351
0.000362573
0.000373466
0.000385125
0.00039734
0.00040996
0.000422942
0.000436248
0.000449841
0.00046368
0.000477727
0.000491952
0.000506339
0.000520875
0.000535554
0.000550378
0.000565347
0.000580451
0.000595678
0.00061105
0.00062657
0.000642242
0.000658069
0.000674054
0.000690201
0.000706512
0.000722991
0.000739642
0.000756468
0.000773472
0.000790658
0.000808026
0.000825579
0.000843318
0.000861242
0.000879352
0.000897647
0.000916125
0.000934786
0.000953625
0.000972641
0.000991829
0.00101118
0.0010307
0.00105038
0.00107021
0.00109018
0.00111029
0.00113054
0.0011509
0.00117138
0.00119196
0.00121264
0.0012334
0.00125424
0.00127515
0.00129612
0.00131713
0.00133818
0.00135925
0.00138034
0.00140143
0.00142251
0.00144357
0.00146459
0.00148555
0.00150643
0.00152717
0.00154775
0.00156807
0.00158807
0.00160766
0.00162676
0.0016455
0.00166405
0.00168236
0.00170042
0.00171822
0.00173573
0.00175293
0.00176981
0.00178634
0.00180249
0.00181826
0.00183362
0.00184854
0.001863
0.00187697
0.00189044
0.00190338
0.00191576
0.00192756
0.00193876
0.00194933
0.00195926
0.00196852
0.00197709
0.00198498
0.00199217
0.00199868
0.00200475
0.00200958
0.00201322
0.00201662
0.00201944
0.00202133
0.00202242
0.00202271
0.00202222
0.00202097
0.00201897
0.00201624
0.0020128
0.00200867
0.00200388
0.00199846
0.00199243
0.00198584
0.00197872
0.00197111
0.00196306
0.00195461
0.0019458
0.00193668
0.00192731
0.00191772
0.00190797
0.00189812
0.00188821
0.00187829
0.00186842
0.00185864
0.00184899
0.00183953
0.0018303
0.00182132
0.00181262
0.00180422
0.00179607
0.00178787
0.00177816
0.00176835
0.00175901
0.00174999
0.00174132
0.00173286
0.00172455
0.00171634
0.0017082
0.0016999
0.00169057
0.00168021
0.00166503
0.00162721
8.57397e-06
6.23289e-05
0.000130919
0.000188235
0.00023271
0.000265943
0.000290446
0.00030852
0.000322114
0.000332781
0.000341677
0.000349617
0.000357146
0.000364617
0.000372262
0.00038024
0.000388664
0.000397619
0.000407171
0.000417377
0.00042828
0.000439914
0.000452302
0.000465456
0.000479383
0.000494091
0.000509599
0.000525812
0.000542576
0.000559724
0.000577284
0.000595284
0.000613695
0.000632477
0.000651589
0.000670989
0.000690633
0.000710493
0.000730589
0.00075092
0.000771484
0.000792294
0.000813369
0.000834757
0.000856354
0.000878159
0.000900174
0.000922403
0.000944848
0.000967516
0.000990408
0.00101353
0.00103688
0.00106047
0.0010843
0.00110837
0.00113268
0.00115725
0.00118206
0.00120713
0.00123244
0.001258
0.00128381
0.00130986
0.00133614
0.00136265
0.0013894
0.00141636
0.00144353
0.00147091
0.00149849
0.00152625
0.00155419
0.00158229
0.00161054
0.00163894
0.00166747
0.00169611
0.00172485
0.00175368
0.00178258
0.00181155
0.00184055
0.00186958
0.00189862
0.00192766
0.00195667
0.00198563
0.00201453
0.00204335
0.00207206
0.00210063
0.00212902
0.00215719
0.0021851
0.00221269
0.0022399
0.00226667
0.00229303
0.00231904
0.00234474
0.00237011
0.00239513
0.00241977
0.002444
0.0024678
0.00249114
0.002514
0.00253635
0.00255816
0.0025794
0.00260004
0.00262005
0.0026394
0.00265805
0.00267599
0.00269316
0.00270955
0.00272512
0.00273984
0.00275369
0.00276663
0.00277865
0.00278972
0.00279984
0.00280898
0.00281751
0.00282468
0.00283016
0.00283498
0.00283903
0.00284189
0.00284362
0.00284426
0.0028438
0.00284228
0.00283971
0.00283612
0.00283152
0.00282595
0.00281945
0.00281205
0.0028038
0.00279474
0.00278492
0.00277441
0.00276325
0.00275151
0.00273925
0.00272654
0.00271344
0.00270002
0.00268635
0.0026725
0.00265855
0.00264456
0.0026306
0.00261674
0.00260305
0.00258959
0.00257642
0.00256358
0.00255111
0.00253904
0.00252732
0.00251572
0.00250348
0.00249126
0.00247941
0.00246792
0.00245684
0.00244606
0.00243554
0.0024252
0.00241512
0.00240496
0.00239391
0.00238105
0.00236195
0.00232237
9.29566e-06
7.62703e-05
0.000158527
0.000226885
0.00028075
0.000321888
0.00035302
0.000376676
0.000394984
0.000409672
0.000422084
0.000433222
0.000443797
0.000454298
0.000465051
0.000476268
0.00048809
0.000500608
0.000513885
0.000527963
0.00054287
0.00055862
0.000575214
0.000592642
0.000610885
0.000629909
0.000649669
0.000670091
0.000691094
0.000712615
0.000734626
0.000757108
0.000780029
0.000803357
0.000827063
0.000851126
0.000875535
0.00090028
0.000925317
0.000950631
0.00097621
0.00100205
0.00102812
0.0010544
0.00108092
0.00110769
0.00113472
0.00116202
0.00118959
0.00121743
0.00124555
0.00127396
0.00130264
0.00133161
0.00136085
0.00139037
0.00142019
0.00145031
0.00148072
0.00151143
0.00154242
0.0015737
0.00160526
0.00163709
0.0016692
0.00170156
0.00173418
0.00176704
0.00180014
0.00183345
0.00186697
0.0019007
0.0019346
0.00196867
0.0020029
0.00203726
0.00207174
0.00210633
0.00214101
0.00217575
0.00221054
0.00224537
0.00228021
0.00231504
0.00234984
0.00238459
0.00241927
0.00245385
0.00248832
0.00252264
0.00255678
0.00259072
0.00262443
0.00265785
0.00269097
0.00272374
0.00275614
0.00278816
0.00281978
0.00285103
0.00288189
0.00291236
0.0029424
0.00297199
0.00300109
0.00302968
0.00305774
0.00308523
0.00311211
0.00313837
0.00316395
0.00318885
0.003213
0.0032364
0.00325899
0.00328073
0.00330161
0.00332157
0.00334059
0.00335862
0.00337564
0.00339161
0.0034065
0.00342029
0.00343296
0.00344446
0.00345517
0.00346454
0.00347203
0.00347838
0.00348385
0.00348794
0.0034907
0.00349213
0.00349226
0.00349109
0.00348864
0.00348495
0.00348003
0.00347393
0.00346668
0.00345833
0.00344892
0.00343851
0.00342715
0.00341492
0.00340187
0.00338808
0.00337361
0.00335856
0.003343
0.003327
0.00331067
0.00329407
0.00327729
0.00326043
0.00324357
0.00322678
0.00321016
0.00319378
0.0031777
0.003162
0.00314674
0.00313193
0.00311759
0.00310357
0.00308952
0.00307567
0.00306221
0.00304921
0.00303667
0.00302457
0.00301284
0.00300134
0.00299019
0.00297909
0.00296741
0.00295395
0.00293445
0.00289793
9.83511e-06
8.82522e-05
0.00018207
0.000260272
0.000322518
0.00037104
0.000408544
0.000437703
0.000460777
0.000479624
0.000495721
0.000510201
0.000523903
0.000537421
0.000551161
0.000565395
0.000580294
0.000595967
0.000612477
0.00062986
0.000648128
0.000667282
0.000687306
0.000708175
0.000729853
0.000752298
0.000775458
0.000799276
0.000823696
0.000848673
0.000874172
0.000900159
0.000926606
0.000953481
0.000980759
0.00100842
0.00103644
0.0010648
0.00109348
0.00112247
0.00115174
0.00118131
0.00121115
0.00124126
0.00127165
0.00130233
0.0013333
0.00136457
0.00139615
0.00142802
0.00146021
0.00149271
0.00152552
0.00155865
0.00159211
0.00162589
0.00165998
0.00169438
0.00172909
0.0017641
0.00179941
0.00183501
0.00187089
0.00190706
0.00194349
0.00198017
0.00201711
0.00205428
0.00209168
0.00212929
0.0021671
0.00220509
0.00224325
0.00228156
0.00232
0.00235856
0.00239723
0.00243597
0.00247477
0.00251362
0.00255249
0.00259137
0.00263022
0.00266903
0.00270779
0.00274646
0.00278502
0.00282345
0.00286172
0.00289981
0.00293769
0.00297534
0.00301272
0.0030498
0.00308657
0.00312299
0.00315904
0.00319473
0.00323001
0.0032649
0.00329937
0.0033334
0.00336696
0.00340003
0.00343258
0.00346458
0.003496
0.00352681
0.00355699
0.00358648
0.00361527
0.00364332
0.0036706
0.00369706
0.00372266
0.00374738
0.00377117
0.00379399
0.00381581
0.00383658
0.00385627
0.00387483
0.00389225
0.00390847
0.00392348
0.00393722
0.00395002
0.00396151
0.00397116
0.00397926
0.00398638
0.00399201
0.00399617
0.00399884
0.00400004
0.00399977
0.00399807
0.00399494
0.00399043
0.00398456
0.00397737
0.00396891
0.00395922
0.00394836
0.00393639
0.00392338
0.00390941
0.00389454
0.00387885
0.00386245
0.0038454
0.0038278
0.00380975
0.00379134
0.00377267
0.00375384
0.00373494
0.00371607
0.00369732
0.00367879
0.00366056
0.0036427
0.0036253
0.0036084
0.00359203
0.00357614
0.00356058
0.0035454
0.00353072
0.00351659
0.00350303
0.00349003
0.00347756
0.00346557
0.00345403
0.00344275
0.00343127
0.00341843
0.00340075
0.00337012
1.04611e-05
9.61837e-05
0.000200018
0.000287633
0.000357998
0.000413819
0.000457699
0.000492436
0.000520398
0.000543546
0.000563457
0.000581367
0.000598211
0.000614671
0.00063123
0.000648214
0.000665836
0.000684226
0.00070346
0.000723575
0.000744582
0.000766473
0.000789226
0.00081281
0.000837187
0.000862311
0.000888135
0.000914611
0.000941694
0.000969342
0.00099752
0.00102619
0.00105534
0.00108492
0.00111491
0.0011453
0.00117605
0.00120717
0.00123861
0.00127038
0.00130246
0.00133485
0.00136754
0.00140053
0.00143383
0.00146743
0.00150134
0.00153556
0.0015701
0.00160496
0.00164014
0.00167564
0.00171146
0.0017476
0.00178407
0.00182086
0.00185797
0.00189538
0.0019331
0.00197112
0.00200943
0.00204803
0.0020869
0.00212605
0.00216546
0.00220511
0.00224501
0.00228513
0.00232546
0.00236599
0.0024067
0.00244759
0.00248862
0.00252979
0.00257108
0.00261247
0.00265394
0.00269548
0.00273705
0.00277865
0.00282026
0.00286185
0.0029034
0.00294489
0.00298629
0.00302759
0.00306877
0.00310979
0.00315064
0.00319129
0.00323172
0.0032719
0.00331181
0.00335141
0.0033907
0.00342965
0.00346824
0.00350645
0.00354427
0.00358168
0.00361866
0.00365519
0.00369125
0.0037268
0.00376182
0.00379629
0.00383018
0.00386345
0.00389607
0.00392802
0.00395926
0.00398976
0.00401947
0.00404838
0.00407642
0.00410358
0.0041298
0.00415505
0.00417929
0.00420247
0.00422455
0.00424549
0.00426525
0.0042838
0.00430108
0.00431706
0.00433201
0.00434563
0.00435755
0.00436768
0.00437672
0.0043842
0.0043901
0.0043944
0.00439709
0.0043982
0.00439774
0.00439573
0.00439219
0.00438714
0.00438064
0.0043727
0.00436339
0.00435276
0.00434087
0.00432778
0.00431357
0.00429832
0.00428211
0.00426503
0.00424718
0.00422864
0.00420953
0.00418994
0.00416998
0.00414976
0.00412938
0.00410895
0.00408857
0.00406836
0.0040484
0.00402879
0.00400962
0.00399097
0.00397288
0.00395536
0.00393837
0.00392193
0.00390611
0.00389095
0.00387649
0.00386274
0.00384969
0.00383734
0.00382565
0.0038145
0.00380355
0.00379182
0.00377664
0.0037524
1.12125e-05
0.000100333
0.000212486
0.000309002
0.00038726
0.000450311
0.000500571
0.00054094
0.000573876
0.000601418
0.000625224
0.000646605
0.000666573
0.000685886
0.000705091
0.000724572
0.000744582
0.000765287
0.00078678
0.000809113
0.0008323
0.000856339
0.000881208
0.000906879
0.000933315
0.000960474
0.000988312
0.00101679
0.00104586
0.00107549
0.00110565
0.00113629
0.00116741
0.00119896
0.00123092
0.00126329
0.00129602
0.00132912
0.00136256
0.00139633
0.00143042
0.00146482
0.00149953
0.00153455
0.00156988
0.00160552
0.00164146
0.00167772
0.0017143
0.00175119
0.00178839
0.00182591
0.00186375
0.0019019
0.00194036
0.00197913
0.00201821
0.00205758
0.00209724
0.00213719
0.00217743
0.00221793
0.0022587
0.00229973
0.002341
0.00238251
0.00242424
0.00246618
0.00250832
0.00255065
0.00259315
0.0026358
0.00267859
0.00272151
0.00276454
0.00280766
0.00285085
0.0028941
0.00293738
0.00298067
0.00302397
0.00306724
0.00311047
0.00315363
0.00319671
0.00323968
0.00328252
0.00332521
0.00336773
0.00341005
0.00345215
0.00349402
0.00353561
0.00357693
0.00361794
0.00365862
0.00369896
0.00373893
0.00377853
0.00381772
0.0038565
0.00389483
0.0039327
0.00397009
0.00400696
0.00404329
0.00407906
0.00411423
0.00414878
0.00418268
0.0042159
0.00424841
0.00428016
0.00431113
0.00434128
0.00437056
0.00439895
0.00442639
0.00445284
0.00447826
0.00450261
0.00452584
0.0045479
0.00456876
0.00458836
0.00460665
0.00462385
0.0046397
0.00465398
0.0046665
0.00467769
0.00468731
0.00469528
0.00470155
0.00470611
0.00470899
0.00471019
0.00470973
0.00470761
0.00470387
0.00469853
0.00469163
0.0046832
0.00467331
0.004662
0.00464934
0.0046354
0.00462026
0.00460401
0.00458674
0.00456854
0.00454951
0.00452975
0.00450938
0.00448851
0.00446725
0.00444571
0.00442401
0.00440228
0.00438062
0.00435914
0.00433796
0.00431717
0.00429688
0.00427716
0.00425806
0.0042396
0.00422182
0.00420477
0.00418851
0.00417308
0.00415853
0.00414487
0.00413214
0.00412034
0.0041094
0.00409908
0.00408862
0.00407598
0.00405764
1.18674e-05
0.000102628
0.000221117
0.00032534
0.000410849
0.000480758
0.000537218
0.00058314
0.000621028
0.000652971
0.000680677
0.000705515
0.000728555
0.000750614
0.000772298
0.000794041
0.000816143
0.000838804
0.000862147
0.000886241
0.000911118
0.000936781
0.000963222
0.000990422
0.00101835
0.00104697
0.00107623
0.00110611
0.00113656
0.00116755
0.00119904
0.00123101
0.00126344
0.00129629
0.00132955
0.00136319
0.00139721
0.00143158
0.0014663
0.00150135
0.00153672
0.00157238
0.00160834
0.00164459
0.00168114
0.00171799
0.00175513
0.00179257
0.00183031
0.00186835
0.00190669
0.00194532
0.00198425
0.00202348
0.002063
0.00210281
0.00214291
0.00218329
0.00222394
0.00226486
0.00230605
0.00234749
0.00238919
0.00243113
0.0024733
0.0025157
0.00255832
0.00260113
0.00264415
0.00268734
0.0027307
0.00277422
0.00281788
0.00286167
0.00290557
0.00294956
0.00299364
0.00303778
0.00308196
0.00312618
0.0031704
0.00321461
0.00325879
0.00330292
0.00334699
0.00339096
0.00343482
0.00347855
0.00352212
0.00356552
0.00360873
0.00365171
0.00369446
0.00373695
0.00377916
0.00382106
0.00386265
0.00390391
0.0039448
0.00398532
0.00402545
0.00406516
0.00410443
0.00414324
0.00418158
0.0042194
0.0042567
0.00429345
0.00432961
0.00436517
0.00440009
0.00443434
0.0044679
0.00450072
0.00453277
0.00456401
0.00459441
0.00462392
0.0046525
0.0046801
0.00470667
0.00473217
0.00475655
0.00477976
0.00480175
0.00482246
0.00484206
0.00486028
0.00487703
0.00489216
0.0049058
0.00491786
0.00492821
0.00493676
0.00494352
0.00494851
0.00495173
0.00495318
0.00495288
0.00495084
0.00494706
0.00494159
0.00493445
0.00492569
0.00491536
0.00490352
0.00489024
0.00487559
0.00485965
0.00484252
0.0048243
0.00480508
0.00478496
0.00476407
0.00474252
0.00472043
0.00469792
0.00467511
0.00465214
0.00462913
0.00460621
0.00458349
0.00456111
0.00453917
0.00451778
0.00449702
0.00447696
0.00445767
0.00443921
0.00442167
0.00440511
0.0043896
0.0043752
0.00436197
0.00434995
0.00433916
0.00432943
0.00432018
0.00430987
0.00429592
1.24183e-05
0.000103616
0.000226688
0.00033728
0.000429335
0.000505384
0.000567723
0.000618978
0.000661671
0.000697909
0.000729431
0.000757639
0.000783645
0.000808313
0.000832296
0.000856073
0.000879989
0.000904281
0.000929107
0.000954558
0.000980678
0.00100748
0.00103497
0.00106318
0.00109208
0.00112163
0.00115178
0.0011825
0.00121376
0.00124551
0.00127774
0.00131041
0.00134351
0.00137702
0.0014109
0.00144516
0.00147976
0.00151472
0.00155003
0.00158568
0.00162162
0.00165781
0.00169427
0.00173099
0.00176797
0.00180522
0.00184274
0.00188053
0.00191859
0.00195692
0.00199553
0.00203441
0.00207356
0.00211299
0.00215268
0.00219265
0.00223288
0.00227337
0.00231413
0.00235514
0.00239641
0.00243793
0.0024797
0.00252171
0.00256395
0.00260642
0.00264911
0.00269201
0.00273512
0.00277843
0.00282192
0.00286559
0.00290942
0.0029534
0.00299752
0.00304176
0.00308612
0.00313056
0.00317509
0.00321967
0.0032643
0.00330895
0.00335361
0.00339826
0.00344287
0.00348742
0.0035319
0.00357629
0.00362055
0.00366468
0.00370865
0.00375243
0.00379601
0.00383937
0.00388248
0.00392533
0.00396789
0.00401014
0.00405208
0.00409367
0.00413489
0.00417574
0.00421618
0.0042562
0.00429579
0.0043349
0.00437354
0.00441166
0.00444926
0.00448631
0.00452277
0.00455862
0.00459384
0.00462839
0.00466224
0.00469536
0.00472769
0.00475921
0.00478987
0.00481962
0.00484842
0.00487621
0.00490295
0.00492858
0.00495305
0.0049763
0.00499841
0.00501918
0.00503856
0.00505645
0.00507282
0.00508758
0.00510062
0.00511171
0.00512095
0.00512835
0.0051339
0.00513761
0.00513945
0.00513944
0.00513758
0.00513388
0.00512837
0.00512109
0.00511207
0.00510138
0.00508906
0.0050752
0.00505987
0.00504317
0.00502517
0.00500599
0.00498573
0.00496451
0.00494245
0.00491967
0.00489629
0.00487247
0.00484832
0.004824
0.00479963
0.00477537
0.00475134
0.00472768
0.00470452
0.00468197
0.00466015
0.00463916
0.00461909
0.00460005
0.00458214
0.00456546
0.00455011
0.00453619
0.0045238
0.00451298
0.00450369
0.00449549
0.00448721
0.00447721
1.2873e-05
0.000103585
0.000229714
0.000345384
0.000443115
0.000524594
0.000592256
0.000648458
0.000695664
0.000735969
0.000771111
0.00080251
0.000831303
0.000858387
0.000884452
0.000910015
0.000935451
0.000961031
0.000986999
0.00101345
0.00104042
0.00106792
0.00109593
0.00112456
0.0011538
0.00118362
0.00121401
0.00124492
0.00127633
0.00130821
0.00134054
0.0013733
0.00140648
0.00144003
0.00147396
0.00150823
0.00154284
0.00157779
0.00161307
0.00164869
0.00168447
0.00172046
0.00175666
0.00179307
0.00182969
0.00186653
0.00190359
0.00194089
0.00197842
0.00201619
0.00205421
0.00209247
0.00213098
0.00216974
0.00220876
0.00224802
0.00228755
0.00232733
0.00236738
0.00240768
0.00244824
0.00248907
0.00253015
0.00257149
0.0026131
0.00265495
0.00269706
0.00273942
0.00278202
0.00282486
0.00286792
0.00291121
0.00295472
0.00299842
0.00304232
0.00308639
0.00313063
0.00317502
0.00321954
0.00326418
0.00330892
0.00335374
0.00339862
0.00344354
0.00348848
0.00353341
0.00357832
0.00362319
0.00366798
0.00371268
0.00375727
0.00380172
0.003846
0.0038901
0.003934
0.00397766
0.00402108
0.00406423
0.00410709
0.00414964
0.00419186
0.00423374
0.00427525
0.00431638
0.00435711
0.00439742
0.00443729
0.00447671
0.00451564
0.00455408
0.004592
0.00462938
0.00466619
0.0047024
0.00473798
0.0047729
0.00480713
0.00484063
0.00487334
0.00490524
0.00493626
0.00496637
0.0049955
0.0050236
0.00505062
0.00507651
0.00510125
0.00512472
0.00514689
0.00516771
0.00518703
0.00520472
0.00522072
0.00523458
0.00524656
0.00525664
0.00526481
0.00527106
0.00527535
0.00527768
0.00527803
0.00527643
0.00527286
0.00526737
0.00525997
0.00525072
0.00523966
0.00522686
0.0052124
0.00519636
0.00517883
0.00515991
0.0051397
0.00511832
0.00509589
0.00507254
0.00504841
0.00502364
0.00499837
0.00497276
0.00494695
0.0049211
0.00489538
0.00486992
0.00484489
0.00482044
0.00479671
0.00477383
0.00475194
0.00473119
0.0047117
0.00469363
0.00467711
0.00466229
0.00464931
0.00463827
0.0046292
0.0046218
0.00461521
0.00460844
1.32404e-05
0.000102746
0.000230587
0.000350074
0.000452471
0.000538611
0.000610949
0.000671576
0.000722869
0.000766876
0.00080532
0.000839617
0.00087091
0.000900113
0.000927993
0.000955068
0.000981701
0.00100813
0.00103471
0.00106157
0.00108882
0.00111652
0.00114475
0.00117354
0.00120285
0.00123263
0.00126287
0.00129355
0.00132464
0.00135612
0.00138797
0.00142015
0.00145266
0.0014855
0.00151863
0.00155205
0.00158571
0.00161966
0.00165393
0.00168854
0.00172338