/*--------------------------------*- C++ -*----------------------------------*\
| =========                 |                                                 |
| \\      /  F ield         | OpenFOAM: The Open Source CFD Toolbox           |
|  \\    /   O peration     | Version:  2306                                  |
|   \\  /    A nd           | Website:  www.openfoam.com                      |
|    \\/     M anipulation  |                                                 |
\*---------------------------------------------------------------------------*/
FoamFile
{
    version     2.0;
    format      ascii;
    arch        "LSB;label=32;scalar=64";
    class       surfaceScalarField;
    location    "200";
    object      phi;
}
// * * * * * * * * * * * * * * * * * * * * * * * * * * * * * * * * * * * * * //

dimensions      [0 3 -1 0 0 0 0];

oriented        oriented;

internalField   nonuniform List<scalar> 
24170
(
3.11512e-06
7.32891e-08
3.01296e-06
1.0215e-07
2.91749e-06
9.54686e-08
2.82631e-06
9.11758e-08
2.74031e-06
8.60041e-08
2.66279e-06
7.75183e-08
2.59489e-06
6.78907e-08
2.53598e-06
5.89096e-08
2.48493e-06
5.10444e-08
2.44067e-06
4.4264e-08
2.40222e-06
3.84421e-08
2.36879e-06
3.34357e-08
2.33969e-06
2.90976e-08
2.31438e-06
2.53038e-08
2.29256e-06
2.1814e-08
2.27376e-06
1.88019e-08
2.25779e-06
1.59739e-08
1.26223e-08
2.24516e-06
3.46865e-06
2.18851e-08
3.48677e-06
8.40227e-08
3.49345e-06
8.87909e-08
3.49231e-06
9.2303e-08
3.48432e-06
9.39949e-08
3.47071e-06
9.11217e-08
3.45277e-06
8.58279e-08
3.43173e-06
7.99501e-08
3.40869e-06
7.40782e-08
3.38457e-06
6.83906e-08
3.36005e-06
6.2954e-08
3.33566e-06
5.78259e-08
3.31176e-06
5.29897e-08
3.28863e-06
4.84326e-08
3.26646e-06
4.39837e-08
3.24547e-06
3.97948e-08
3.22641e-06
3.50252e-08
2.87765e-08
3.21026e-06
3.66801e-06
1.63914e-08
3.68031e-06
7.17229e-08
3.69e-06
7.90955e-08
3.70002e-06
8.22825e-08
3.70913e-06
8.48843e-08
3.71622e-06
8.40311e-08
3.72118e-06
8.08616e-08
3.72423e-06
7.69039e-08
3.72559e-06
7.2719e-08
3.72552e-06
6.84602e-08
3.72426e-06
6.42034e-08
3.72207e-06
6.00223e-08
3.71912e-06
5.59306e-08
3.71564e-06
5.19166e-08
3.71175e-06
4.78738e-08
3.7078e-06
4.37372e-08
3.70382e-06
3.90097e-08
3.3142e-08
3.69945e-06
3.92495e-06
1.68264e-08
3.93556e-06
6.11114e-08
3.94312e-06
7.15357e-08
3.95014e-06
7.52573e-08
3.95682e-06
7.82e-08
3.96261e-06
7.82383e-08
3.96757e-06
7.5897e-08
3.9719e-06
7.25741e-08
3.97569e-06
6.89305e-08
3.97899e-06
6.51532e-08
3.98187e-06
6.13232e-08
3.98438e-06
5.75094e-08
3.98658e-06
5.3729e-08
3.98854e-06
4.99627e-08
3.99029e-06
4.61198e-08
3.99193e-06
4.20913e-08
3.99331e-06
3.76271e-08
3.24323e-08
3.99402e-06
4.20772e-06
1.62299e-08
4.21609e-06
5.27466e-08
4.22226e-06
6.53654e-08
4.22774e-06
6.97727e-08
4.23318e-06
7.27563e-08
4.23821e-06
7.32105e-08
4.24274e-06
7.13688e-08
4.24686e-06
6.84496e-08
4.25065e-06
6.51393e-08
4.25416e-06
6.16482e-08
4.25741e-06
5.8063e-08
4.26047e-06
5.44512e-08
4.26336e-06
5.08351e-08
4.26613e-06
4.71965e-08
4.26878e-06
4.34637e-08
4.27133e-06
3.9547e-08
4.27365e-06
3.53085e-08
3.0618e-08
4.27546e-06
4.51042e-06
1.4894e-08
4.51713e-06
4.60418e-08
4.52283e-06
5.96571e-08
4.52796e-06
6.4639e-08
4.5331e-06
6.7618e-08
4.53796e-06
6.83515e-08
4.54239e-06
6.69388e-08
4.54644e-06
6.43959e-08
4.55019e-06
6.13865e-08
4.55369e-06
5.81413e-08
4.557e-06
5.47594e-08
4.56014e-06
5.1311e-08
4.56314e-06
4.78268e-08
4.56604e-06
4.42955e-08
4.56884e-06
4.06688e-08
4.5715e-06
3.68843e-08
4.57393e-06
3.28729e-08
2.86038e-08
4.57595e-06
4.83415e-06
1.3466e-08
4.83991e-06
4.02818e-08
4.84554e-06
5.40213e-08
4.85066e-06
5.95212e-08
4.85572e-06
6.25573e-08
4.86055e-06
6.35227e-08
4.86499e-06
6.24926e-08
4.86908e-06
6.0303e-08
4.87289e-06
5.75782e-08
4.87647e-06
5.45661e-08
4.87985e-06
5.13785e-08
4.88307e-06
4.80904e-08
4.88615e-06
4.47409e-08
4.88912e-06
4.13294e-08
4.89195e-06
3.78304e-08
4.89463e-06
3.4209e-08
4.89706e-06
3.04438e-08
2.65609e-08
4.8991e-06
5.18096e-06
1.20904e-08
5.18605e-06
3.51824e-08
5.19158e-06
4.84928e-08
5.19671e-06
5.43877e-08
5.20177e-06
5.74986e-08
5.20665e-06
5.86441e-08
5.21119e-06
5.79472e-08
5.21541e-06
5.60874e-08
5.21934e-06
5.36384e-08
5.22305e-06
5.08588e-08
5.22656e-06
4.78708e-08
5.22989e-06
4.47539e-08
5.23308e-06
4.15557e-08
5.23612e-06
3.82881e-08
5.239e-06
3.49454e-08
5.24169e-06
3.15175e-08
5.24412e-06
2.80127e-08
2.44803e-08
5.2462e-06
5.55268e-06
1.07517e-08
5.55721e-06
3.06524e-08
5.56252e-06
4.31776e-08
5.56764e-06
4.92683e-08
5.57271e-06
5.24237e-08
5.57767e-06
5.36905e-08
5.58234e-06
5.32731e-08
5.58671e-06
5.17169e-08
5.59081e-06
4.95346e-08
5.59468e-06
4.69885e-08
5.59834e-06
4.42082e-08
5.60182e-06
4.12774e-08
5.60512e-06
3.82509e-08
5.60826e-06
3.51531e-08
5.61121e-06
3.19948e-08
5.61394e-06
2.87852e-08
5.6164e-06
2.55489e-08
2.2345e-08
5.61854e-06
5.95107e-06
9.45619e-09
5.95511e-06
2.66108e-08
5.96017e-06
3.81231e-08
5.96524e-06
4.41935e-08
5.97032e-06
4.73437e-08
5.97533e-06
4.86772e-08
5.98012e-06
4.84811e-08
5.98464e-06
4.71946e-08
5.98891e-06
4.5264e-08
5.99295e-06
4.29479e-08
5.99677e-06
4.03809e-08
6.0004e-06
3.76496e-08
6.00384e-06
3.48144e-08
6.00708e-06
3.19101e-08
6.01011e-06
2.89606e-08
6.01291e-06
2.5988e-08
6.01543e-06
2.30253e-08
2.01323e-08
6.01764e-06
6.37804e-06
8.22429e-09
6.38168e-06
2.29773e-08
6.38646e-06
3.33413e-08
6.39146e-06
3.91923e-08
6.39652e-06
4.22787e-08
6.40157e-06
4.36307e-08
6.40645e-06
4.3597e-08
6.4111e-06
4.25407e-08
6.41552e-06
4.08423e-08
6.41972e-06
3.87487e-08
6.4237e-06
3.63968e-08
6.42748e-06
3.38749e-08
6.43104e-06
3.12467e-08
6.4344e-06
2.85553e-08
6.43753e-06
2.58329e-08
6.4404e-06
2.31102e-08
6.443e-06
2.04221e-08
1.78261e-08
6.44531e-06
5.74182e-06
7.23479e-09
5.74462e-06
2.01753e-08
5.74846e-06
2.95088e-08
5.75261e-06
3.50363e-08
5.75687e-06
3.8019e-08
5.76114e-06
3.9355e-08
5.76532e-06
3.94152e-08
5.76934e-06
3.85212e-08
5.77318e-06
3.7003e-08
5.77684e-06
3.5091e-08
5.78031e-06
3.29206e-08
5.7836e-06
3.05809e-08
5.78671e-06
2.81373e-08
5.78963e-06
2.56368e-08
5.79235e-06
2.31166e-08
5.79485e-06
2.06106e-08
5.79711e-06
1.81536e-08
1.57996e-08
5.79914e-06
6.99922e-06
6.17325e-09
7.00219e-06
1.7199e-08
7.00635e-06
2.53483e-08
7.01099e-06
3.03921e-08
7.01583e-06
3.31808e-08
7.02073e-06
3.44533e-08
7.02557e-06
3.45779e-08
7.03025e-06
3.38353e-08
7.03475e-06
3.25034e-08
7.03905e-06
3.079e-08
7.04314e-06
2.88265e-08
7.04702e-06
2.67e-08
7.05068e-06
2.4476e-08
7.05412e-06
2.2204e-08
7.05731e-06
1.99232e-08
7.06025e-06
1.76694e-08
7.06293e-06
1.54739e-08
1.3388e-08
7.06534e-06
8.53197e-06
5.04903e-09
8.53509e-06
1.40757e-08
8.53955e-06
2.08899e-08
8.54467e-06
2.52703e-08
8.5501e-06
2.77486e-08
8.55566e-06
2.88909e-08
8.5612e-06
2.90346e-08
8.56662e-06
2.84205e-08
8.57185e-06
2.72734e-08
8.57686e-06
2.57733e-08
8.58165e-06
2.40411e-08
8.58619e-06
2.21606e-08
8.59047e-06
2.01937e-08
8.59448e-06
1.81898e-08
8.59822e-06
1.61876e-08
8.60166e-06
1.42216e-08
8.60482e-06
1.23193e-08
1.05253e-08
8.60768e-06
1.04004e-05
3.87319e-09
1.04036e-05
1.08273e-08
1.04084e-05
1.61589e-08
1.0414e-05
1.9685e-08
1.042e-05
2.17121e-08
1.04262e-05
2.26367e-08
1.04325e-05
2.27387e-08
1.04387e-05
2.22156e-08
1.04448e-05
2.12425e-08
1.04506e-05
1.99642e-08
1.04561e-05
1.84866e-08
1.04614e-05
1.68834e-08
1.04664e-05
1.52121e-08
1.04711e-05
1.3516e-08
1.04754e-05
1.1832e-08
1.04795e-05
1.01894e-08
1.04832e-05
8.61158e-09
7.13548e-09
1.04865e-05
1.2678e-05
2.65361e-09
1.26814e-05
7.45142e-09
1.26864e-05
1.11573e-08
1.26924e-05
1.36371e-08
1.26991e-05
1.50517e-08
1.27061e-05
1.56498e-08
1.27132e-05
1.56337e-08
1.27202e-05
1.51521e-08
1.27272e-05
1.43306e-08
1.27338e-05
1.32764e-08
1.27403e-05
1.2071e-08
1.27464e-05
1.07754e-08
1.27521e-05
9.4348e-09
1.27576e-05
8.08618e-09
1.27626e-05
6.75792e-09
1.27674e-05
5.47474e-09
1.27717e-05
4.25206e-09
3.1217e-09
1.27757e-05
1.54545e-05
1.38174e-09
1.5458e-05
3.90552e-09
1.54633e-05
5.83041e-09
1.54699e-05
7.07079e-09
1.54772e-05
7.69906e-09
1.5485e-05
7.84404e-09
1.54931e-05
7.62215e-09
1.55011e-05
7.12353e-09
1.5509e-05
6.42411e-09
1.55167e-05
5.58935e-09
1.55241e-05
4.67125e-09
1.55311e-05
3.70939e-09
1.55378e-05
2.73413e-09
1.55441e-05
1.76976e-09
1.55501e-05
8.35402e-10
1.55556e-05
-5.32499e-11
1.55607e-05
-8.86911e-10
-1.64229e-09
1.55655e-05
1.8839e-05
1.86074e-11
1.88428e-05
6.50555e-11
1.88487e-05
1.48625e-12
1.88559e-05
-2.10095e-10
1.88642e-05
-5.51037e-10
1.8873e-05
-9.92549e-10
1.88822e-05
-1.51033e-09
1.88914e-05
-2.08233e-09
1.89005e-05
-2.6862e-09
1.89094e-05
-3.30239e-09
1.89179e-05
-3.91539e-09
1.89262e-05
-4.51296e-09
1.8934e-05
-5.08504e-09
1.89414e-05
-5.62336e-09
1.89483e-05
-6.12131e-09
1.89549e-05
-6.57336e-09
1.89609e-05
-6.97769e-09
-7.31928e-09
1.89666e-05
2.29649e-05
-1.53691e-09
2.29693e-05
-4.36388e-09
2.29761e-05
-6.76458e-09
2.29846e-05
-8.70903e-09
2.29942e-05
-1.02144e-08
2.30046e-05
-1.13662e-08
2.30154e-05
-1.22549e-08
2.30262e-05
-1.29339e-08
2.3037e-05
-1.3441e-08
2.30475e-05
-1.38104e-08
2.30576e-05
-1.40738e-08
2.30674e-05
-1.42522e-08
2.30766e-05
-1.43618e-08
2.30854e-05
-1.44128e-08
2.30937e-05
-1.44144e-08
2.31015e-05
-1.43721e-08
2.31088e-05
-1.42927e-08
-1.41693e-08
2.31157e-05
1.68119e-05
-2.74e-09
1.68153e-05
-7.76965e-09
1.68205e-05
-1.19828e-08
1.6827e-05
-1.5226e-08
1.68344e-05
-1.75419e-08
1.68422e-05
-1.9165e-08
1.68502e-05
-2.02877e-08
1.68583e-05
-2.10119e-08
1.68662e-05
-2.1413e-08
1.6874e-05
-2.15731e-08
1.68815e-05
-2.1556e-08
1.68886e-05
-2.14099e-08
1.68954e-05
-2.11661e-08
1.69019e-05
-2.08521e-08
1.69079e-05
-2.0485e-08
1.69137e-05
-2.008e-08
1.6919e-05
-1.96464e-08
-1.9185e-08
1.6924e-05
1.46357e-05
-3.87374e-09
1.4639e-05
-1.10335e-08
1.4644e-05
-1.70261e-08
1.46502e-05
-2.14271e-08
1.4657e-05
-2.43811e-08
1.46642e-05
-2.63607e-08
1.46716e-05
-2.76421e-08
1.46789e-05
-2.83433e-08
1.46861e-05
-2.85927e-08
1.4693e-05
-2.85204e-08
1.46997e-05
-2.82226e-08
1.47061e-05
-2.77624e-08
1.47121e-05
-2.71881e-08
1.47178e-05
-2.65368e-08
1.47231e-05
-2.58366e-08
1.47281e-05
-2.51063e-08
1.47328e-05
-2.43614e-08
-2.36039e-08
1.47373e-05
1.27412e-05
-4.89852e-09
1.27444e-05
-1.42782e-08
1.27495e-05
-2.2146e-08
1.27556e-05
-2.74782e-08
1.2762e-05
-3.08484e-08
1.27688e-05
-3.31028e-08
1.27756e-05
-3.44861e-08
1.27824e-05
-3.5099e-08
1.27889e-05
-3.51425e-08
1.27952e-05
-3.4808e-08
1.28012e-05
-3.42147e-08
1.28069e-05
-3.3439e-08
1.28122e-05
-3.25424e-08
1.28173e-05
-3.15714e-08
1.2822e-05
-3.05613e-08
1.28264e-05
-2.95328e-08
1.28305e-05
-2.85026e-08
-2.74732e-08
1.28344e-05
1.10917e-05
-5.68065e-09
1.1095e-05
-1.7547e-08
1.11004e-05
-2.75507e-08
1.11064e-05
-3.34678e-08
1.11125e-05
-3.70023e-08
1.11189e-05
-3.94447e-08
1.11252e-05
-4.08542e-08
1.11314e-05
-4.13156e-08
1.11374e-05
-4.11252e-08
1.11431e-05
-4.05199e-08
1.11485e-05
-3.96281e-08
1.11536e-05
-3.854e-08
1.11584e-05
-3.73294e-08
1.11629e-05
-3.60551e-08
1.11671e-05
-3.47543e-08
1.1171e-05
-3.34541e-08
1.11747e-05
-3.21717e-08
-3.09162e-08
1.11781e-05
9.65564e-06
-6.10649e-09
9.65904e-06
-2.09525e-08
9.66464e-06
-3.31507e-08
9.67044e-06
-3.92657e-08
9.67636e-06
-4.29219e-08
9.68242e-06
-4.55051e-08
9.68837e-06
-4.6804e-08
9.69407e-06
-4.70185e-08
9.6995e-06
-4.65629e-08
9.70467e-06
-4.56845e-08
9.70954e-06
-4.45035e-08
9.71412e-06
-4.31183e-08
9.7184e-06
-4.16154e-08
9.72241e-06
-4.00603e-08
9.72615e-06
-3.84952e-08
9.72964e-06
-3.69464e-08
9.73289e-06
-3.54269e-08
-3.39311e-08
9.73591e-06
8.40494e-06
-5.69831e-09
8.40932e-06
-2.53327e-08
8.41475e-06
-3.85747e-08
8.41986e-06
-4.4381e-08
8.42544e-06
-4.84991e-08
8.4313e-06
-5.13742e-08
8.43703e-06
-5.25289e-08
8.44246e-06
-5.24527e-08
8.4476e-06
-5.17008e-08
8.45243e-06
-5.0522e-08
8.45696e-06
-4.90329e-08
8.46118e-06
-4.73428e-08
8.46512e-06
-4.55478e-08
8.46877e-06
-4.37191e-08
8.47218e-06
-4.19011e-08
8.47535e-06
-4.01225e-08
8.47833e-06
-3.84081e-08
-3.67671e-08
8.48117e-06
7.31365e-06
-2.06086e-09
7.32071e-06
-3.2396e-08
7.32651e-06
-4.43812e-08
7.33133e-06
-4.91941e-08
7.33671e-06
-5.3884e-08
7.34237e-06
-5.70413e-08
7.34791e-06
-5.80685e-08
7.35323e-06
-5.77682e-08
7.35829e-06
-5.67669e-08
7.36307e-06
-5.52969e-08
7.36752e-06
-5.34919e-08
7.37166e-06
-5.1483e-08
7.3755e-06
-4.93821e-08
7.37904e-06
-4.7265e-08
7.38232e-06
-4.51818e-08
7.38536e-06
-4.31622e-08
7.38817e-06
-4.12169e-08
-3.92948e-08
7.39069e-06
6.36047e-06
7.53622e-09
6.3703e-06
-4.22269e-08
6.37819e-06
-5.22695e-08
6.38525e-06
-5.62624e-08
6.39238e-06
-6.101e-08
6.39899e-06
-6.36599e-08
6.40499e-06
-6.40621e-08
6.41054e-06
-6.33209e-08
6.41574e-06
-6.19716e-08
6.42059e-06
-6.01487e-08
6.42508e-06
-5.79791e-08
6.4292e-06
-5.56032e-08
6.43296e-06
-5.31499e-08
6.43639e-06
-5.06957e-08
6.43951e-06
-4.82987e-08
6.44235e-06
-4.6e-08
6.44496e-06
-4.38309e-08
-4.18193e-08
6.44748e-06
5.53917e-06
1.38303e-08
5.54752e-06
-5.05798e-08
5.55587e-06
-6.06162e-08
5.56612e-06
-6.65199e-08
5.57732e-06
-7.22142e-08
5.58782e-06
-7.41596e-08
5.59704e-06
-7.32831e-08
5.605e-06
-7.1283e-08
5.61178e-06
-6.87447e-08
5.61743e-06
-6.58087e-08
5.62205e-06
-6.25985e-08
5.62572e-06
-5.92689e-08
5.62852e-06
-5.59553e-08
5.63056e-06
-5.27323e-08
5.63191e-06
-4.96514e-08
5.63269e-06
-4.67817e-08
5.63299e-06
-4.41338e-08
-4.17996e-08
5.63297e-06
4.87157e-06
-3.0135e-08
4.88648e-06
-6.54865e-08
4.89722e-06
-7.13601e-08
4.90599e-06
-7.5299e-08
4.91304e-06
-7.92627e-08
4.91732e-06
-7.84424e-08
4.91816e-06
-7.41186e-08
4.91542e-06
-6.85528e-08
4.90944e-06
-6.27617e-08
4.90072e-06
-5.70871e-08
4.88982e-06
-5.16991e-08
4.87724e-06
-4.66968e-08
4.86345e-06
-4.21623e-08
4.8488e-06
-3.80878e-08
4.83361e-06
-3.4459e-08
4.81813e-06
-3.12998e-08
4.80262e-06
-2.86255e-08
-2.69312e-08
4.78775e-06
4.17254e-06
4.10705e-06
4.03569e-06
3.96039e-06
3.88113e-06
3.80269e-06
3.72857e-06
3.66002e-06
3.59726e-06
3.54017e-06
3.48847e-06
3.44177e-06
3.39961e-06
3.36152e-06
3.32706e-06
3.29576e-06
3.26714e-06
3.24021e-06
1.22829e-08
-1.23176e-08
2.96156e-08
-1.73948e-08
4.56057e-08
-1.60291e-08
5.78576e-08
-1.2305e-08
6.54809e-08
-7.65431e-09
6.82968e-08
-2.86928e-09
6.67103e-08
1.56015e-09
6.13646e-08
5.28871e-09
5.31644e-08
8.17437e-09
4.28036e-08
1.02977e-08
3.09362e-08
1.18411e-08
1.78753e-08
1.29897e-08
3.96996e-09
1.38793e-08
-1.0826e-08
1.47214e-08
-2.65172e-08
1.56725e-08
-4.32758e-08
1.66883e-08
-6.1085e-08
1.78001e-08
-8.01776e-08
1.90261e-08
-1.00553e-07
2.03677e-08
-1.22424e-07
2.1806e-08
-1.45754e-07
2.33231e-08
-1.70709e-07
2.48895e-08
-1.97203e-07
2.64822e-08
-2.25339e-07
2.80686e-08
-2.54981e-07
2.96264e-08
-2.86175e-07
3.11274e-08
-3.18746e-07
3.25566e-08
-3.52704e-07
3.38935e-08
-3.87847e-07
3.51287e-08
-4.24153e-07
3.62462e-08
-4.61403e-07
3.72432e-08
-4.9957e-07
3.81122e-08
-5.38435e-07
3.88611e-08
-5.77972e-07
3.94891e-08
-6.17973e-07
4.00072e-08
-6.58432e-07
4.04159e-08
-6.99153e-07
4.07294e-08
-7.40144e-07
4.09506e-08
-7.81234e-07
4.10984e-08
-8.22456e-07
4.11815e-08
-8.63675e-07
4.12266e-08
-9.04966e-07
4.12517e-08
-9.4624e-07
4.12832e-08
-9.87591e-07
4.13138e-08
-1.02892e-06
4.13451e-08
-1.07033e-06
4.13684e-08
-1.1117e-06
4.13903e-08
-1.15314e-06
4.14022e-08
-1.19454e-06
4.14109e-08
-1.23598e-06
4.14077e-08
-1.27738e-06
4.14002e-08
-1.3188e-06
4.13785e-08
-1.36015e-06
4.13498e-08
-1.4015e-06
4.1305e-08
-1.44275e-06
4.12507e-08
-1.48397e-06
4.11761e-08
-1.52506e-06
4.10877e-08
-1.56608e-06
4.09756e-08
-1.60693e-06
4.08463e-08
-1.64765e-06
4.06881e-08
-1.68816e-06
4.05082e-08
-1.7285e-06
4.02963e-08
-1.76855e-06
4.0059e-08
-1.80836e-06
3.97845e-08
-1.84783e-06
3.94805e-08
-1.887e-06
3.91355e-08
-1.92575e-06
3.87574e-08
-1.96411e-06
3.8335e-08
-2.00197e-06
3.78767e-08
-2.03937e-06
3.7371e-08
-2.07618e-06
3.68268e-08
-2.11244e-06
3.62326e-08
-2.14802e-06
3.55973e-08
-2.18296e-06
3.49091e-08
-2.21713e-06
3.4178e-08
-2.25055e-06
3.33922e-08
-2.28311e-06
3.25616e-08
-2.31482e-06
3.16767e-08
-2.34556e-06
3.07469e-08
-2.37534e-06
2.97602e-08
-2.40406e-06
2.87268e-08
-2.43171e-06
2.76364e-08
-2.4582e-06
2.64985e-08
-2.48351e-06
2.53011e-08
-2.50755e-06
2.40547e-08
-2.53031e-06
2.27491e-08
-2.55168e-06
2.13939e-08
-2.57164e-06
1.9978e-08
-2.5901e-06
1.85053e-08
-2.607e-06
1.69716e-08
-2.62232e-06
1.53682e-08
-2.63597e-06
1.36905e-08
-2.64788e-06
1.19328e-08
-2.65795e-06
1.00863e-08
-2.66607e-06
8.13599e-09
-2.67212e-06
6.06289e-09
-2.67597e-06
3.86208e-09
-2.67755e-06
1.58112e-09
-2.67691e-06
-6.28902e-10
-2.67425e-06
-2.65656e-09
-2.66968e-06
-4.57036e-09
-2.66322e-06
-6.46804e-09
-2.65486e-06
-8.37465e-09
-2.64458e-06
-1.03002e-08
-2.63235e-06
-1.22407e-08
-2.61817e-06
-1.41975e-08
-2.60201e-06
-1.6163e-08
-2.58387e-06
-1.81376e-08
-2.56374e-06
-2.01137e-08
-2.54163e-06
-2.20905e-08
-2.51754e-06
-2.40609e-08
-2.49149e-06
-2.60222e-08
-2.46348e-06
-2.79679e-08
-2.43355e-06
-2.98932e-08
-2.40171e-06
-3.17927e-08
-2.36799e-06
-3.36598e-08
-2.33245e-06
-3.54906e-08
-2.29511e-06
-3.72769e-08
-2.25605e-06
-3.90155e-08
-2.2153e-06
-4.06959e-08
-2.17292e-06
-4.23149e-08
-2.12897e-06
-4.38611e-08
-2.08355e-06
-4.53376e-08
-2.03672e-06
-4.67318e-08
-1.98859e-06
-4.80537e-08
-1.93922e-06
-4.92916e-08
-1.88871e-06
-5.04609e-08
-1.83713e-06
-5.15284e-08
-1.78461e-06
-5.2499e-08
-1.73123e-06
-5.33673e-08
-1.67711e-06
-5.41507e-08
-1.62231e-06
-5.48256e-08
-1.56698e-06
-5.54025e-08
-1.5112e-06
-5.58651e-08
-1.45509e-06
-5.62246e-08
-1.39875e-06
-5.64688e-08
-1.34229e-06
-5.6606e-08
-1.28582e-06
-5.66298e-08
-1.22944e-06
-5.65448e-08
-1.17323e-06
-5.63547e-08
-1.1173e-06
-5.60631e-08
-1.06174e-06
-5.56803e-08
-1.00664e-06
-5.52052e-08
-9.52083e-07
-5.46497e-08
-8.98142e-07
-5.40102e-08
-8.44896e-07
-5.33029e-08
-7.92404e-07
-5.25237e-08
-7.40727e-07
-5.16922e-08
-6.89908e-07
-5.0804e-08
-6.39992e-07
-4.9881e-08
-5.91003e-07
-4.89177e-08
-5.4297e-07
-4.79394e-08
-4.95896e-07
-4.6941e-08
-4.4979e-07
-4.59482e-08
-4.04639e-07
-4.49553e-08
-3.60425e-07
-4.39923e-08
-3.17117e-07
-4.30515e-08
-2.74675e-07
-4.2161e-08
-2.33042e-07
-4.13182e-08
-1.92157e-07
-4.05471e-08
-1.51956e-07
-3.98334e-08
-1.12322e-07
-3.92433e-08
-7.31666e-08
-3.87402e-08
-3.44586e-08
-3.82729e-08
3.76208e-09
-3.77669e-08
4.13479e-08
-3.71162e-08
7.82499e-08
-3.64293e-08
1.147e-07
-3.59709e-08
1.51009e-07
-3.58365e-08
1.87557e-07
-3.60677e-08
2.24683e-07
-3.66583e-08
2.62713e-07
-3.7554e-08
3.01837e-07
-3.86687e-08
3.4222e-07
-3.99215e-08
3.8384e-07
-4.11888e-08
4.26468e-07
-4.2198e-08
4.69313e-07
-4.24576e-08
5.10031e-07
-4.03517e-08
5.44004e-07
-3.36689e-08
5.92846e-09
5.38337e-07
1.40461e-08
-2.63969e-08
2.3104e-08
-2.64973e-08
2.66373e-08
-1.95874e-08
2.61002e-08
-1.17934e-08
2.2495e-08
-4.06631e-09
1.63418e-08
3.26121e-09
7.92887e-09
9.95768e-09
-2.67088e-09
1.5866e-08
-1.54304e-08
2.09188e-08
-3.03113e-08
2.51563e-08
-4.71929e-08
2.87079e-08
-6.59725e-08
3.17473e-08
-8.6558e-08
3.44509e-08
-1.08837e-07
3.69788e-08
-1.32634e-07
3.94579e-08
-1.57934e-07
4.19677e-08
-1.84699e-07
4.45546e-08
-2.12925e-07
4.72323e-08
-2.42556e-07
4.99894e-08
-2.73567e-07
5.27968e-08
-3.0587e-07
5.56168e-08
-3.39409e-07
5.84071e-08
-3.74064e-07
6.1126e-08
-4.09752e-07
6.37337e-08
-4.46335e-07
6.61961e-08
-4.83714e-07
6.84839e-08
-5.21747e-07
7.05761e-08
-5.60337e-07
7.24592e-08
-5.99348e-07
7.4127e-08
-6.38701e-07
7.5576e-08
-6.78277e-07
7.68076e-08
-7.18015e-07
7.78287e-08
-7.57818e-07
7.86541e-08
-7.97647e-07
7.93002e-08
-8.37433e-07
7.97862e-08
-8.77164e-07
8.01306e-08
-9.16794e-07
8.03543e-08
-9.56336e-07
8.04759e-08
-9.95759e-07
8.05168e-08
-1.03509e-06
8.04966e-08
-1.07431e-06
8.04371e-08
-1.11342e-06
8.03551e-08
-1.15241e-06
8.02625e-08
-1.19127e-06
8.01611e-08
-1.22998e-06
8.00521e-08
-1.26855e-06
7.99341e-08
-1.30697e-06
7.9808e-08
-1.34525e-06
7.96709e-08
-1.38337e-06
7.95229e-08
-1.42133e-06
7.93599e-08
-1.45912e-06
7.91813e-08
-1.49674e-06
7.89826e-08
-1.53416e-06
7.87631e-08
-1.57139e-06
7.85176e-08
-1.60839e-06
7.82444e-08
-1.64517e-06
7.7938e-08
-1.68169e-06
7.75969e-08
-1.71794e-06
7.72152e-08
-1.7539e-06
7.67909e-08
-1.78955e-06
7.63183e-08
-1.82484e-06
7.57959e-08
-1.85978e-06
7.52181e-08
-1.89431e-06
7.45834e-08
-1.92842e-06
7.38858e-08
-1.96207e-06
7.31243e-08
-1.99524e-06
7.22934e-08
-2.02788e-06
7.13928e-08
-2.05997e-06
7.04172e-08
-2.09146e-06
6.93668e-08
-2.12234e-06
6.82365e-08
-2.15254e-06
6.70268e-08
-2.18204e-06
6.57327e-08
-2.2108e-06
6.43553e-08
-2.23879e-06
6.28894e-08
-2.26595e-06
6.13367e-08
-2.29226e-06
5.96928e-08
-2.31767e-06
5.79604e-08
-2.34213e-06
5.61354e-08
-2.36561e-06
5.42198e-08
-2.38807e-06
5.22092e-08
-2.40945e-06
5.01065e-08
-2.42972e-06
4.79073e-08
-2.44883e-06
4.56141e-08
-2.46676e-06
4.32227e-08
-2.48343e-06
4.07363e-08
-2.49884e-06
3.81515e-08
-2.51291e-06
3.54712e-08
-2.52561e-06
3.26912e-08
-2.53688e-06
2.98132e-08
-2.5467e-06
2.68327e-08
-2.55505e-06
2.3747e-08
-2.56189e-06
2.05546e-08
-2.5672e-06
1.72544e-08
-2.57096e-06
1.38497e-08
-2.57316e-06
1.03457e-08
-2.57386e-06
6.76394e-09
-2.57313e-06
3.14161e-09
-2.57107e-06
-4.7688e-10
-2.56761e-06
-4.08946e-09
-2.56254e-06
-7.72834e-09
-2.55571e-06
-1.14104e-08
-2.54705e-06
-1.51341e-08
-2.53653e-06
-1.89e-08
-2.52414e-06
-2.2706e-08
-2.50985e-06
-2.65462e-08
-2.49364e-06
-3.04152e-08
-2.4755e-06
-3.43044e-08
-2.45543e-06
-3.82077e-08
-2.43342e-06
-4.21157e-08
-2.40947e-06
-4.60212e-08
-2.3836e-06
-4.9914e-08
-2.35582e-06
-5.37856e-08
-2.32614e-06
-5.76246e-08
-2.29458e-06
-6.14213e-08
-2.26118e-06
-6.51634e-08
-2.22597e-06
-6.88405e-08
-2.18898e-06
-7.24403e-08
-2.15028e-06
-7.5952e-08
-2.1099e-06
-7.93626e-08
-2.0679e-06
-8.26586e-08
-2.02435e-06
-8.58268e-08
-1.9793e-06
-8.88546e-08
-1.93285e-06
-9.17339e-08
-1.88507e-06
-9.44551e-08
-1.83605e-06
-9.70159e-08
-1.78589e-06
-9.94106e-08
-1.73467e-06
-1.01647e-07
-1.68248e-06
-1.03697e-07
-1.62941e-06
-1.05544e-07
-1.57558e-06
-1.07195e-07
-1.52108e-06
-1.08661e-07
-1.46601e-06
-1.09921e-07
-1.41047e-06
-1.10975e-07
-1.35457e-06
-1.11813e-07
-1.29842e-06
-1.12437e-07
-1.24212e-06
-1.1284e-07
-1.18578e-06
-1.13027e-07
-1.1295e-06
-1.12996e-07
-1.07337e-06
-1.12754e-07
-1.0175e-06
-1.12306e-07
-9.61971e-07
-1.11663e-07
-9.06874e-07
-1.10836e-07
-8.52298e-07
-1.09836e-07
-7.98318e-07
-1.08671e-07
-7.45009e-07
-1.07357e-07
-6.92433e-07
-1.05902e-07
-6.40649e-07
-1.04326e-07
-5.89705e-07
-1.02637e-07
-5.39643e-07
-1.00861e-07
-4.90492e-07
-9.90058e-08
-4.42276e-07
-9.70997e-08
-3.95004e-07
-9.51527e-08
-3.48681e-07
-9.31978e-08
-3.03294e-07
-9.12422e-08
-2.58828e-07
-8.93222e-08
-2.15245e-07
-8.74479e-08
-1.72507e-07
-8.56576e-08
-1.30553e-07
-8.39553e-08
-8.93179e-08
-8.23902e-08
-4.87137e-08
-8.09607e-08
-8.65987e-09
-7.96952e-08
3.08953e-08
-7.85797e-08
7.00072e-08
-7.76356e-08
1.08856e-07
-7.68825e-08
1.47673e-07
-7.63492e-08
1.8677e-07
-7.59582e-08
2.26383e-07
-7.5793e-08
2.66636e-07
-7.59551e-08
3.07646e-07
-7.65853e-08
3.49624e-07
-7.77666e-08
3.92763e-07
-7.9527e-08
4.37269e-07
-8.1774e-08
4.83282e-07
-8.4407e-08
5.30886e-07
-8.72393e-08
5.79982e-07
-9.00129e-08
6.30257e-07
-9.21985e-08
6.80789e-07
-9.27363e-08
7.30272e-07
-8.95927e-08
7.73977e-07
-7.71659e-08
-3.49751e-08
8.15061e-07
5.37272e-09
-3.17956e-08
3.76126e-09
-2.49166e-08
-1.69516e-09
-1.41475e-08
-9.65732e-09
-3.84725e-09
-1.94857e-08
5.75141e-09
-3.08919e-08
1.46544e-08
-4.37758e-08
2.28324e-08
-5.81675e-08
3.02453e-08
-7.41372e-08
3.68796e-08
-9.17671e-08
4.27737e-08
-1.11088e-07
4.80201e-08
-1.32101e-07
5.2748e-08
-1.54756e-07
5.70974e-08
-1.78987e-07
6.11973e-08
-2.04689e-07
6.51518e-08
-2.31766e-07
6.90331e-08
-2.60098e-07
7.28801e-08
-2.89579e-07
7.67021e-08
-3.20081e-07
8.04853e-08
-3.51496e-07
8.42005e-08
-3.83696e-07
8.78103e-08
-4.16575e-07
9.12749e-08
-4.50012e-07
9.45566e-08
-4.83913e-07
9.76226e-08
-5.18172e-07
1.00447e-07
-5.52712e-07
1.03011e-07
-5.87446e-07
1.05302e-07
-6.22315e-07
1.07315e-07
-6.57246e-07
1.0905e-07
-6.92202e-07
1.10518e-07
-7.2714e-07
1.11738e-07
-7.62052e-07
1.12727e-07
-7.96914e-07
1.13508e-07
-8.31729e-07
1.14103e-07
-8.66484e-07
1.14534e-07
-9.01189e-07
1.14825e-07
-9.3584e-07
1.14999e-07
-9.7045e-07
1.15076e-07
-1.00502e-06
1.15076e-07
-1.03955e-06
1.15019e-07
-1.07404e-06
1.1492e-07
-1.10848e-06
1.14792e-07
-1.14287e-06
1.14644e-07
-1.1772e-06
1.14479e-07
-1.21145e-06
1.14301e-07
-1.24563e-06
1.14108e-07
-1.27972e-06
1.13901e-07
-1.31374e-06
1.13677e-07
-1.34765e-06
1.13435e-07
-1.38147e-06
1.1317e-07
-1.41517e-06
1.1288e-07
-1.44875e-06
1.1256e-07
-1.4822e-06
1.12207e-07
-1.51551e-06
1.11815e-07
-1.54865e-06
1.11379e-07
-1.58161e-06
1.10895e-07
-1.61438e-06
1.10357e-07
-1.64693e-06
1.0976e-07
-1.67925e-06
1.09099e-07
-1.71131e-06
1.08368e-07
-1.74308e-06
1.07563e-07
-1.77455e-06
1.06678e-07
-1.80569e-06
1.05709e-07
-1.83646e-06
1.04651e-07
-1.86684e-06
1.03499e-07
-1.8968e-06
1.02248e-07
-1.92631e-06
1.00895e-07
-1.95534e-06
9.94357e-08
-1.98384e-06
9.78672e-08
-2.01179e-06
9.61852e-08
-2.03916e-06
9.43873e-08
-2.0659e-06
9.24699e-08
-2.09197e-06
9.04307e-08
-2.11735e-06
8.82665e-08
-2.14199e-06
8.59758e-08
-2.16586e-06
8.35561e-08
-2.18891e-06
8.10067e-08
-2.2111e-06
7.83255e-08
-2.2324e-06
7.55117e-08
-2.25275e-06
7.25632e-08
-2.27213e-06
6.94799e-08
-2.29048e-06
6.626e-08
-2.30777e-06
6.29034e-08
-2.32396e-06
5.94087e-08
-2.33899e-06
5.57768e-08
-2.35285e-06
5.20068e-08
-2.36548e-06
4.80999e-08
-2.37683e-06
4.40558e-08
-2.38687e-06
3.98748e-08
-2.39557e-06
3.55573e-08
-2.40291e-06
3.11025e-08
-2.40886e-06
2.65122e-08
-2.41339e-06
2.1792e-08
-2.41649e-06
1.69488e-08
-2.41814e-06
1.19967e-08
-2.41833e-06
6.95529e-09
-2.41704e-06
1.84963e-09
-2.41421e-06
-3.3079e-09
-2.40977e-06
-8.53233e-09
-2.40366e-06
-1.38459e-08
-2.39582e-06
-1.92499e-08
-2.38623e-06
-2.47344e-08
-2.37485e-06
-3.02917e-08
-2.36166e-06
-3.59113e-08
-2.34663e-06
-4.15846e-08
-2.32975e-06
-4.72994e-08
-2.31102e-06
-5.30458e-08
-2.29041e-06
-5.88111e-08
-2.26794e-06
-6.45841e-08
-2.2436e-06
-7.03509e-08
-2.2174e-06
-7.60986e-08
-2.18936e-06
-8.1812e-08
-2.15949e-06
-8.7476e-08
-2.12782e-06
-9.30744e-08
-2.09437e-06
-9.85903e-08
-2.05918e-06
-1.04007e-07
-2.02229e-06
-1.09307e-07
-1.98375e-06
-1.14472e-07
-1.9436e-06
-1.19485e-07
-1.90191e-06
-1.24325e-07
-1.85873e-06
-1.28973e-07
-1.81414e-06
-1.33413e-07
-1.7682e-06
-1.37627e-07
-1.72101e-06
-1.41607e-07
-1.67265e-06
-1.45338e-07
-1.62321e-06
-1.48818e-07
-1.57278e-06
-1.52047e-07
-1.52146e-06
-1.55007e-07
-1.46932e-06
-1.57667e-07
-1.41648e-06
-1.60032e-07
-1.36303e-06
-1.62111e-07
-1.30908e-06
-1.63893e-07
-1.25471e-06
-1.65366e-07
-1.20003e-06
-1.66524e-07
-1.14515e-06
-1.67361e-07
-1.09016e-06
-1.67877e-07
-1.03516e-06
-1.68074e-07
-9.80263e-07
-1.67954e-07
-9.25546e-07
-1.67525e-07
-8.71103e-07
-1.66797e-07
-8.1702e-07
-1.65786e-07
-7.63382e-07
-1.64507e-07
-7.10266e-07
-1.62977e-07
-6.57745e-07
-1.61213e-07
-6.05882e-07
-1.59234e-07
-5.54735e-07
-1.57059e-07
-5.04352e-07
-1.54711e-07
-4.54776e-07
-1.52212e-07
-4.06037e-07
-1.4959e-07
-3.58159e-07
-1.46871e-07
-3.11153e-07
-1.44083e-07
-2.65025e-07
-1.41256e-07
-2.19763e-07
-1.38424e-07
-1.75355e-07
-1.35615e-07
-1.31764e-07
-1.32866e-07
-8.89558e-08
-1.30211e-07
-4.68705e-08
-1.27688e-07
-5.45002e-09
-1.25324e-07
3.53756e-08
-1.23155e-07
7.56819e-08
-1.21211e-07
1.15592e-07
-1.19542e-07
1.55243e-07
-1.18173e-07
1.94798e-07
-1.17127e-07
2.3441e-07
-1.16437e-07
2.74265e-07
-1.16141e-07
3.14598e-07
-1.16235e-07
3.55653e-07
-1.16785e-07
3.97623e-07
-1.17868e-07
4.40673e-07
-1.19575e-07
4.84963e-07
-1.22001e-07
5.30653e-07
-1.25159e-07
5.77893e-07
-1.28961e-07
6.26798e-07
-1.33256e-07
6.77403e-07
-1.37793e-07
7.29607e-07
-1.42164e-07
7.83103e-07
-1.45646e-07
8.37263e-07
-1.46848e-07
8.9114e-07
-1.43427e-07
9.43436e-07
-1.29424e-07
-9.1118e-08
9.99607e-07
-4.4737e-09
-2.73429e-08
-1.41118e-08
-1.53016e-08
-2.56771e-08
-2.59395e-09
-3.84847e-08
8.9486e-09
-5.23042e-08
1.95632e-08
-6.70755e-08
2.94159e-08
-8.28151e-08
3.85651e-08
-9.96017e-08
4.70223e-08
-1.17527e-07
5.47984e-08
-1.3669e-07
6.19269e-08
-1.57147e-07
6.84703e-08
-1.78923e-07
7.4514e-08
-2.01986e-07
8.01538e-08
-2.26279e-07
8.54803e-08
-2.51701e-07
9.05685e-08
-2.78148e-07
9.54703e-08
-3.05487e-07
1.00214e-07
-3.33599e-07
1.04805e-07
-3.62352e-07
1.09234e-07
-3.91637e-07
1.13478e-07
-4.2134e-07
1.17509e-07
-4.51372e-07
1.21299e-07
-4.81642e-07
1.24822e-07
-5.12087e-07
1.28059e-07
-5.4264e-07
1.30995e-07
-5.7326e-07
1.33623e-07
-6.03904e-07
1.35941e-07
-6.34556e-07
1.37957e-07
-6.65195e-07
1.39682e-07
-6.95822e-07
1.41136e-07
-7.26431e-07
1.4234e-07
-7.57029e-07
1.43316e-07
-7.87616e-07
1.44089e-07
-8.18205e-07
1.44682e-07
-8.48797e-07
1.4512e-07
-8.79407e-07
1.45426e-07
-9.10034e-07
1.4562e-07
-9.40691e-07
1.45724e-07
-9.71372e-07
1.45753e-07
-1.00209e-06
1.45723e-07
-1.03282e-06
1.45648e-07
-1.06357e-06
1.45537e-07
-1.09433e-06
1.45397e-07
-1.12509e-06
1.45234e-07
-1.15584e-06
1.45048e-07
-1.18658e-06
1.44842e-07
-1.21729e-06
1.44613e-07
-1.24798e-06
1.4436e-07
-1.27863e-06
1.44079e-07
-1.30923e-06
1.43767e-07
-1.33977e-06
1.43417e-07
-1.37024e-06
1.43026e-07
-1.40062e-06
1.42588e-07
-1.43091e-06
1.42097e-07
-1.46108e-06
1.41547e-07
-1.49112e-06
1.40931e-07
-1.52101e-06
1.40244e-07
-1.55074e-06
1.39477e-07
-1.58027e-06
1.38626e-07
-1.60959e-06
1.37682e-07
-1.63868e-06
1.36641e-07
-1.6675e-06
1.35495e-07
-1.69604e-06
1.34239e-07
-1.72426e-06
1.32866e-07
-1.75214e-06
1.31371e-07
-1.77964e-06
1.29747e-07
-1.80675e-06
1.27991e-07
-1.83341e-06
1.26097e-07
-1.85961e-06
1.24061e-07
-1.88531e-06
1.21877e-07
-1.91046e-06
1.19542e-07
-1.93505e-06
1.17053e-07
-1.95902e-06
1.14405e-07
-1.98235e-06
1.11595e-07
-2.005e-06
1.08621e-07
-2.02692e-06
1.05479e-07
-2.04809e-06
1.02169e-07
-2.06845e-06
9.86867e-08
-2.08797e-06
9.5032e-08
-2.10661e-06
9.12027e-08
-2.12433e-06
8.71979e-08
-2.14108e-06
8.30162e-08
-2.15684e-06
7.86572e-08
-2.17155e-06
7.41203e-08
-2.18518e-06
6.94058e-08
-2.19768e-06
6.45141e-08
-2.20903e-06
5.94462e-08
-2.21917e-06
5.42032e-08
-2.22807e-06
4.87872e-08
-2.23569e-06
4.31984e-08
-2.24202e-06
3.74402e-08
-2.24702e-06
3.15159e-08
-2.25066e-06
2.54321e-08
-2.25291e-06
1.9198e-08
-2.25374e-06
1.2826e-08
-2.25312e-06
6.33091e-09
-2.251e-06
-2.74395e-10
-2.24732e-06
-6.98679e-09
-2.24205e-06
-1.38156e-08
-2.23513e-06
-2.07687e-08
-2.22655e-06
-2.78428e-08
-2.21627e-06
-3.50265e-08
-2.20426e-06
-4.23087e-08
-2.19051e-06
-4.96745e-08
-2.17499e-06
-5.71115e-08
-2.1577e-06
-6.46036e-08
-2.13861e-06
-7.21374e-08