/*--------------------------------*- C++ -*----------------------------------*\
| =========                 |                                                 |
| \\      /  F ield         | OpenFOAM: The Open Source CFD Toolbox           |
|  \\    /   O peration     | Version:  2306                                  |
|   \\  /    A nd           | Website:  www.openfoam.com                      |
|    \\/     M anipulation  |                                                 |
\*---------------------------------------------------------------------------*/
FoamFile
{
    version     2.0;
    format      ascii;
    arch        "LSB;label=32;scalar=64";
    class       volVectorField;
    location    "200";
    object      U;
}
// * * * * * * * * * * * * * * * * * * * * * * * * * * * * * * * * * * * * * //

dimensions      [0 1 -1 0 0 0 0];

internalField   nonuniform List<vector> 
12225
(
(9.84118 -0.956373 0)
(9.59253 -0.887947 0)
(9.31755 -0.594492 0)
(9.01471 -0.370012 0)
(8.72577 -0.225983 0)
(8.46714 -0.137916 0)
(8.23997 -0.0844157 0)
(8.0418 -0.0515965 0)
(7.86975 -0.0313223 0)
(7.72072 -0.0185939 0)
(7.59159 -0.010653 0)
(7.47927 -0.00571283 0)
(7.38158 -0.00271184 0)
(7.29652 -0.00100289 0)
(7.22246 -0.000123772 0)
(7.16032 -0.000495162 0)
(7.1007 0.0025708 0)
(7.07256 -0.0177303 0)
(10.0722 0.255857 0)
(10.1867 0.418354 0)
(10.2285 0.384143 0)
(10.2296 0.310408 0)
(10.2114 0.245691 0)
(10.1794 0.19545 0)
(10.1334 0.157661 0)
(10.0758 0.129669 0)
(10.0105 0.108855 0)
(9.94087 0.0930914 0)
(9.86927 0.0809188 0)
(9.79746 0.0713053 0)
(9.72652 0.0635082 0)
(9.6576 0.0570527 0)
(9.59108 0.0512942 0)
(9.52794 0.0466905 0)
(9.46864 0.0401812 0)
(9.4154 0.0402884 0)
(10.0032 0.0599581 0)
(10.0309 0.0482982 0)
(10.0614 0.0100045 0)
(10.0897 4.96212e-06 0)
(10.1151 0.00817124 0)
(10.1376 0.0194283 0)
(10.1547 0.0290181 0)
(10.1657 0.036501 0)
(10.1714 0.0420609 0)
(10.173 0.0459207 0)
(10.1711 0.0483805 0)
(10.1663 0.0497468 0)
(10.1591 0.0502536 0)
(10.1502 0.0500505 0)
(10.1401 0.0491746 0)
(10.1292 0.0476264 0)
(10.1183 0.0451278 0)
(10.1063 0.0403348 0)
(9.99715 0.00991858 0)
(10.009 0.0260969 0)
(10.0342 0.0383072 0)
(10.0554 0.0533952 0)
(10.0721 0.0649257 0)
(10.0875 0.0702645 0)
(10.1015 0.0714196 0)
(10.1134 0.0706614 0)
(10.1236 0.0690794 0)
(10.1326 0.0671064 0)
(10.1404 0.0649331 0)
(10.1473 0.0626852 0)
(10.1532 0.0603834 0)
(10.1585 0.0580072 0)
(10.1632 0.0554198 0)
(10.1675 0.0524814 0)
(10.1713 0.0487071 0)
(10.1743 0.0430069 0)
(9.99907 0.00681067 0)
(10.0082 0.0343057 0)
(10.0279 0.0483572 0)
(10.0436 0.0548995 0)
(10.0558 0.0583662 0)
(10.0678 0.0595458 0)
(10.0793 0.0593157 0)
(10.0897 0.0585707 0)
(10.0991 0.0576738 0)
(10.1077 0.0566632 0)
(10.1157 0.0555263 0)
(10.1232 0.0542595 0)
(10.1303 0.0528392 0)
(10.137 0.0512089 0)
(10.1434 0.0492498 0)
(10.1496 0.0468043 0)
(10.1554 0.0435514 0)
(10.1605 0.0391877 0)
(10.0002 0.00924462 0)
(10.0079 0.0334123 0)
(10.0236 0.0440792 0)
(10.0369 0.0484066 0)
(10.0478 0.0518666 0)
(10.0585 0.0542624 0)
(10.069 0.0552935 0)
(10.0785 0.0554541 0)
(10.0871 0.0551383 0)
(10.0951 0.0544784 0)
(10.1026 0.0535264 0)
(10.1098 0.0523253 0)
(10.1166 0.050886 0)
(10.1231 0.0491792 0)
(10.1294 0.0471201 0)
(10.1355 0.0445898 0)
(10.1411 0.0414212 0)
(10.1462 0.0374937 0)
(10.0003 0.00912686 0)
(10.007 0.0287603 0)
(10.0201 0.0388976 0)
(10.0322 0.0440316 0)
(10.0425 0.0481327 0)
(10.0525 0.050934 0)
(10.0622 0.0521775 0)
(10.0711 0.0524094 0)
(10.0793 0.0520944 0)
(10.0869 0.0514081 0)
(10.094 0.0504192 0)
(10.1009 0.0491731 0)
(10.1074 0.0476853 0)
(10.1136 0.0459297 0)
(10.1196 0.0438434 0)
(10.1254 0.0413404 0)
(10.1307 0.0383322 0)
(10.1354 0.0347819 0)
(10.0004 0.00814585 0)
(10.006 0.0247133 0)
(10.0171 0.0348876 0)
(10.0283 0.0405335 0)
(10.0381 0.0446105 0)
(10.0475 0.0473228 0)
(10.0567 0.0486002 0)
(10.0652 0.0489134 0)
(10.073 0.0486756 0)
(10.0804 0.048054 0)
(10.0873 0.0471164 0)
(10.0939 0.0459051 0)
(10.1002 0.0444384 0)
(10.1062 0.042699 0)
(10.1119 0.0406465 0)
(10.1174 0.0382279 0)
(10.1223 0.0354069 0)
(10.1268 0.0322022 0)
(10.0004 0.00721082 0)
(10.0052 0.0215203 0)
(10.0146 0.0312722 0)
(10.0248 0.0369518 0)
(10.0341 0.0408483 0)
(10.0429 0.043475 0)
(10.0516 0.0448366 0)
(10.0598 0.0452751 0)
(10.0675 0.0451391 0)
(10.0746 0.0445941 0)
(10.0814 0.0437133 0)
(10.0878 0.0425416 0)
(10.0939 0.0411033 0)
(10.0997 0.0393941 0)
(10.1052 0.0373948 0)
(10.1103 0.0350814 0)
(10.115 0.0324512 0)
(10.1193 0.0295524 0)
(10.0004 0.00637217 0)
(10.0045 0.0187471 0)
(10.0125 0.0277503 0)
(10.0216 0.03329 0)
(10.0303 0.0370359 0)
(10.0387 0.0395869 0)
(10.0469 0.0410013 0)
(10.0548 0.0415299 0)
(10.0622 0.0414691 0)
(10.0692 0.0409847 0)
(10.0758 0.0401543 0)
(10.0821 0.0390257 0)
(10.088 0.0376285 0)
(10.0936 0.0359706 0)
(10.0989 0.0340497 0)
(10.1038 0.0318645 0)
(10.1083 0.0294315 0)
(10.1123 0.0268115 0)
(10.0004 0.00558262 0)
(10.0039 0.0162502 0)
(10.0107 0.024388 0)
(10.0189 0.0296794 0)
(10.0269 0.0332545 0)
(10.0348 0.0356879 0)
(10.0426 0.0370931 0)
(10.0501 0.0376663 0)
(10.0573 0.0376554 0)
(10.064 0.0372183 0)
(10.0704 0.0364352 0)
(10.0765 0.0353551 0)
(10.0823 0.0340119 0)
(10.0877 0.0324235 0)
(10.0928 0.030601 0)
(10.0975 0.0285583 0)
(10.1018 0.0263222 0)
(10.1057 0.0239573 0)
(10.0003 0.00487809 0)
(10.0034 0.01415 0)
(10.0093 0.0214631 0)
(10.0167 0.0264319 0)
(10.0242 0.0298058 0)
(10.0316 0.0320943 0)
(10.039 0.0334478 0)
(10.0461 0.0340292 0)
(10.053 0.0340444 0)
(10.0595 0.0336395 0)
(10.0658 0.032895 0)
(10.0717 0.0318612 0)
(10.0772 0.0305749 0)
(10.0825 0.0290613 0)
(10.0874 0.0273405 0)
(10.092 0.0254351 0)
(10.0961 0.0233763 0)
(10.0999 0.0212279 0)
(10.0003 0.00421735 0)
(10.003 0.0122246 0)
(10.0082 0.0187007 0)
(10.0148 0.023265 0)
(10.0217 0.0263984 0)
(10.0287 0.0285188 0)
(10.0357 0.0297907 0)
(10.0425 0.0303543 0)
(10.0491 0.0303795 0)
(10.0554 0.0299976 0)
(10.0614 0.0292875 0)
(10.0671 0.0283004 0)
(10.0725 0.0270754 0)
(10.0775 0.0256425 0)
(10.0823 0.0240277 0)
(10.0867 0.0222593 0)
(10.0907 0.0203688 0)
(10.0944 0.018419 0)
(10.0003 0.00352899 0)
(10.0026 0.0102176 0)
(10.0071 0.0157369 0)
(10.0129 0.0197584 0)
(10.0193 0.0225571 0)
(10.0258 0.024445 0)
(10.0323 0.0255824 0)
(10.0387 0.0260901 0)
(10.045 0.0261025 0)
(10.051 0.0257325 0)
(10.0568 0.0250547 0)
(10.0622 0.02412 0)
(10.0674 0.0229682 0)
(10.0723 0.0216324 0)
(10.0768 0.0201419 0)
(10.081 0.018528 0)
(10.0849 0.0168204 0)
(10.0885 0.0150783 0)
(10.0002 0.00280927 0)
(10.0022 0.00812509 0)
(10.006 0.0125823 0)
(10.0112 0.0159203 0)
(10.0169 0.0182716 0)
(10.0229 0.0198469 0)
(10.0289 0.0207846 0)
(10.035 0.0211857 0)
(10.0409 0.0211529 0)
(10.0466 0.0207775 0)
(10.0521 0.0201263 0)
(10.0573 0.0192474 0)
(10.0622 0.0181795 0)
(10.0669 0.0169558 0)
(10.0712 0.0156067 0)
(10.0753 0.0141622 0)
(10.079 0.0126497 0)
(10.0824 0.0111211 0)
(10.0002 0.00205852 0)
(10.0019 0.00595009 0)
(10.0052 0.00924745 0)
(10.0097 0.0117594 0)
(10.0148 0.0135349 0)
(10.0202 0.0147002 0)
(10.0258 0.015359 0)
(10.0314 0.0155896 0)
(10.037 0.0154669 0)
(10.0424 0.0150595 0)
(10.0475 0.0144224 0)
(10.0525 0.0135975 0)
(10.0572 0.0126196 0)
(10.0616 0.0115188 0)
(10.0657 0.0103229 0)
(10.0696 0.00905852 0)
(10.0732 0.00774801 0)
(10.0765 0.00643631 0)
(10.0002 0.00127527 0)
(10.0016 0.00368089 0)
(10.0045 0.00571844 0)
(10.0084 0.00726281 0)
(10.013 0.00832382 0)
(10.018 0.00896624 0)
(10.0231 0.00925417 0)
(10.0283 0.0092399 0)
(10.0335 0.00897212 0)
(10.0386 0.00849701 0)
(10.0435 0.00785356 0)
(10.0482 0.00707399 0)
(10.0526 0.006185 0)
(10.0568 0.00521097 0)
(10.0608 0.00417341 0)
(10.0645 0.00309362 0)
(10.068 0.00198711 0)
(10.0712 0.000891067 0)
(10.0002 0.000444142 0)
(10.0014 0.00126691 0)
(10.004 0.00192306 0)
(10.0075 0.00235009 0)
(10.0117 0.00254739 0)
(10.0163 0.0025384 0)
(10.0211 0.0023492 0)
(10.026 0.00200349 0)
(10.0309 0.00152481 0)
(10.0357 0.000936007 0)
(10.0403 0.000257287 0)
(10.0448 -0.000493795 0)
(10.0491 -0.00130166 0)
(10.0531 -0.00215171 0)
(10.0569 -0.00303054 0)
(10.0605 -0.00392497 0)
(10.0639 -0.00482596 0)
(10.067 -0.00570573 0)
(10.0001 -0.000477714 0)
(10.0014 -0.00141461 0)
(10.0038 -0.00231606 0)
(10.0071 -0.00317893 0)
(10.0112 -0.00399942 0)
(10.0156 -0.00478806 0)
(10.0202 -0.00555925 0)
(10.025 -0.00632029 0)
(10.0297 -0.0070741 0)
(10.0343 -0.00782233 0)
(10.0388 -0.00856715 0)
(10.0432 -0.00930894 0)
(10.0473 -0.0100473 0)
(10.0513 -0.01078 0)
(10.055 -0.0115049 0)
(10.0585 -0.0122182 0)
(10.0618 -0.0129188 0)
(10.0649 -0.013589 0)
(10.0002 -0.00135065 0)
(10.0014 -0.00396363 0)
(10.004 -0.00635831 0)
(10.0075 -0.00845023 0)
(10.0117 -0.0102267 0)
(10.0163 -0.0117422 0)
(10.021 -0.0130529 0)
(10.0258 -0.0141935 0)
(10.0306 -0.0151921 0)
(10.0353 -0.0160781 0)
(10.0399 -0.0168765 0)
(10.0442 -0.0176057 0)
(10.0484 -0.0182783 0)
(10.0523 -0.0189049 0)
(10.0561 -0.0194923 0)
(10.0596 -0.020046 0)
(10.0629 -0.0205704 0)
(10.0659 -0.0210568 0)
(10.0002 -0.00209053 0)
(10.0016 -0.00615902 0)
(10.0043 -0.00985654 0)
(10.0083 -0.0129554 0)
(10.0129 -0.0154623 0)
(10.0177 -0.0175275 0)
(10.0227 -0.0192488 0)
(10.0277 -0.0206666 0)
(10.0327 -0.0218256 0)
(10.0376 -0.0227839 0)
(10.0422 -0.0235902 0)
(10.0467 -0.0242795 0)
(10.0509 -0.0248768 0)
(10.0549 -0.0254026 0)
(10.0587 -0.0258715 0)
(10.0622 -0.0262952 0)
(10.0656 -0.0266823 0)
(10.0687 -0.0270299 0)
(10.0002 -0.00277439 0)
(10.0017 -0.00829202 0)
(10.0049 -0.0133226 0)
(10.0094 -0.0173376 0)
(10.0145 -0.0204183 0)
(10.0198 -0.0228962 0)
(10.0251 -0.024925 0)
(10.0305 -0.0265448 0)
(10.0357 -0.0278165 0)
(10.0408 -0.028818 0)
(10.0456 -0.0296122 0)
(10.0502 -0.0302434 0)
(10.0545 -0.0307488 0)
(10.0586 -0.0311584 0)
(10.0624 -0.0314963 0)
(10.066 -0.0317786 0)
(10.0694 -0.032019 0)
(10.0725 -0.0322162 0)
(10.0001 -0.00338288 0)
(10.0017 -0.0104005 0)
(10.0055 -0.0167733 0)
(10.0109 -0.0216169 0)
(10.0166 -0.025241 0)
(10.0223 -0.0281012 0)
(10.028 -0.0303251 0)
(10.0337 -0.0319974 0)
(10.0392 -0.0332617 0)
(10.0445 -0.0342363 0)
(10.0495 -0.0349863 0)
(10.0543 -0.0355562 0)
(10.0587 -0.0359866 0)
(10.0629 -0.0363128 0)
(10.0668 -0.0365611 0)
(10.0705 -0.0367504 0)
(10.0739 -0.0368954 0)
(10.0771 -0.0370014 0)
(10.0001 -0.00387159 0)
(10.0016 -0.0128918 0)
(10.0061 -0.0203209 0)
(10.0124 -0.0253838 0)
(10.0188 -0.0294419 0)
(10.025 -0.0329051 0)
(10.0312 -0.0355055 0)
(10.0373 -0.0372735 0)
(10.0431 -0.0384742 0)
(10.0486 -0.0393089 0)
(10.0538 -0.0398751 0)
(10.0587 -0.0402386 0)
(10.0633 -0.0404574 0)
(10.0675 -0.0405799 0)
(10.0716 -0.0406382 0)
(10.0753 -0.0406546 0)
(10.0788 -0.0406417 0)
(10.082 -0.0405969 0)
(9.9998 -0.00354903 0)
(10.0011 -0.0165504 0)
(10.007 -0.025521 0)
(10.0141 -0.0296946 0)
(10.0207 -0.033016 0)
(10.0273 -0.0364708 0)
(10.0341 -0.0394024 0)
(10.0409 -0.0415789 0)
(10.0473 -0.0431596 0)
(10.0532 -0.0442916 0)
(10.0587 -0.0450552 0)
(10.0639 -0.0455253 0)
(10.0688 -0.0457785 0)
(10.0733 -0.0458793 0)
(10.0775 -0.0458754 0)
(10.0814 -0.0457999 0)
(10.0851 -0.0456788 0)
(10.0885 -0.0455219 0)
(9.99829 3.38241e-07 0)
(9.99797 -0.0176193 0)
(10.0068 -0.0315029 0)
(10.0162 -0.0375875 0)
(10.0234 -0.0402848 0)
(10.0303 -0.0418358 0)
(10.0379 -0.0427913 0)
(10.0455 -0.0434855 0)
(10.0526 -0.0440853 0)
(10.0593 -0.0445984 0)
(10.0656 -0.0449918 0)
(10.0715 -0.0452774 0)
(10.077 -0.0454768 0)
(10.082 -0.0456179 0)
(10.0867 -0.0457151 0)
(10.091 -0.0457847 0)
(10.095 -0.045832 0)
(10.0986 -0.0458247 0)
(9.99413 0.00277658 0)
(9.98996 -0.00760032 0)
(10.0032 -0.0228593 0)
(10.0185 -0.0396796 0)
(10.0302 -0.0530709 0)
(10.0403 -0.060842 0)
(10.0501 -0.064378 0)
(10.0593 -0.0656254 0)
(10.0677 -0.0657126 0)
(10.0756 -0.0650869 0)
(10.0829 -0.0640314 0)
(10.0897 -0.0627359 0)
(10.0959 -0.061363 0)
(10.1015 -0.0599929 0)
(10.1066 -0.0586912 0)
(10.1113 -0.0574868 0)
(10.1156 -0.0564056 0)
(10.1195 -0.0554005 0)
(9.9942 -0.0305073 0)
(9.99526 -0.013457 0)
(10.0086 0.0215195 0)
(10.0272 0.0320176 0)
(10.047 0.0241432 0)
(10.0668 0.011601 0)
(10.085 -0.000117033 0)
(10.1007 -0.0103327 0)
(10.1139 -0.0189725 0)
(10.125 -0.0260452 0)
(10.1343 -0.0316459 0)
(10.1418 -0.0360173 0)
(10.1476 -0.0393908 0)
(10.1519 -0.0419837 0)
(10.1549 -0.0439594 0)
(10.1568 -0.0454873 0)
(10.1578 -0.0466966 0)
(10.1578 -0.047733 0)
(10.0368 -0.209413 0)
(10.1083 -0.365899 0)
(10.1423 -0.352747 0)
(10.1567 -0.298036 0)
(10.1697 -0.247624 0)
(10.182 -0.206792 0)
(10.1884 -0.174356 0)
(10.1867 -0.148992 0)
(10.1774 -0.129275 0)
(10.1619 -0.113751 0)
(10.1413 -0.101354 0)
(10.1168 -0.0913241 0)
(10.0894 -0.0831304 0)
(10.0597 -0.0763673 0)
(10.0287 -0.0707538 0)
(9.99683 -0.0661102 0)
(9.96461 -0.0622865 0)
(9.93271 -0.0595835 0)
(9.92866 0.765531 0)
(9.83924 0.742069 0)
(9.70533 0.52443 0)
(9.52634 0.348782 0)
(9.33184 0.22769 0)
(9.1406 0.146985 0)
(8.95878 0.0935814 0)
(8.78887 0.0579875 0)
(8.63227 0.0341226 0)
(8.48959 0.0181055 0)
(8.36022 0.0074407 0)
(8.24334 0.000462752 0)
(8.13779 -0.00408506 0)
(8.04248 -0.0069387 0)
(7.95632 -0.00861666 0)
(7.87832 -0.00955473 0)
(7.80713 -0.0100368 0)
(7.74239 -0.0106486 0)
(0.00580326 -0.0116157 -6.85683e-19)
(0.0190911 -0.0209629 5.85836e-19)
(0.0335225 -0.0227528 -3.80761e-19)
(0.0464626 -0.0197795 -1.16344e-19)
(0.0555806 -0.0143176 1.76731e-19)
(0.0603679 -0.00800224 -4.24452e-20)
(0.0609161 -0.00190101 -3.95386e-20)
(0.0576348 0.00326001 1.77366e-19)
(0.0514653 0.00716667 -1.02569e-19)
(0.043104 0.00991467 3.60191e-20)
(0.0331357 0.0118112 1.57913e-20)
(0.0219973 0.0131691 -2.17425e-19)
(0.0099503 0.0141889 3.71245e-19)
(-0.0028659 0.014867 4.20928e-19)
(-0.0164601 0.01528 3.61071e-20)
(-0.0309257 0.015669 1.46032e-19)
(-0.0463422 0.0161824 5.41151e-20)
(-0.0628168 0.016859 8.69961e-20)
(-0.0804554 0.0177057 1.18822e-19)
(-0.0993596 0.0187025 1.16483e-20)
(-0.119609 0.0198318 -3.52793e-20)
(-0.141266 0.021061 2.60982e-19)
(-0.164368 0.022364 -2.97097e-20)
(-0.188928 0.0237016 2.15101e-19)
(-0.214928 0.0250455 -3.98973e-20)
(-0.242333 0.0263615 1.35611e-19)
(-0.271084 0.0276291 6.10046e-20)
(-0.301111 0.0288195 3.5366e-20)
(-0.332327 0.0299137 -1.25213e-19)
(-0.364636 0.0308897 -2.01809e-20)
(-0.39793 0.0317436 -1.23349e-19)
(-0.432099 0.0324667 6.88172e-20)
(-0.467032 0.033063 4.68105e-20)
(-0.502622 0.0335268 -5.46833e-20)
(-0.538761 0.0338635 -7.83662e-20)
(-0.575354 0.0340714 -4.92182e-21)
(-0.612311 0.0341645 2.62137e-20)
(-0.649555 0.0341518 6.10116e-20)
(-0.687015 0.0340608 4.0469e-20)
(-0.724632 0.0339103 8.91871e-20)
(-0.76235 0.0337327 3.37055e-20)
(-0.800119 0.0335475 8.49385e-21)
(-0.837954 0.0333794 -1.08885e-19)
(-0.875883 0.0332175 -2.1585e-20)
(-0.913889 0.0330583 4.28884e-20)
(-0.95197 0.0328958 2.13005e-21)
(-0.990124 0.0327353 9.56317e-20)
(-1.02835 0.0325697 2.97897e-20)
(-1.06663 0.032405 1.16954e-20)
(-1.10497 0.0322343 -9.30278e-20)
(-1.14337 0.0320638 7.35215e-20)
(-1.18181 0.031886 6.55429e-21)
(-1.22029 0.0317066 8.97071e-20)
(-1.25879 0.0315189 6.94576e-20)
(-1.2973 0.0313276 2.66541e-20)
(-1.33582 0.0311248 6.15366e-20)
(-1.37432 0.0309155 8.26236e-20)
(-1.41279 0.0306926 -8.99976e-20)
(-1.45121 0.0304605 3.58954e-20)
(-1.48955 0.0302112 4.07947e-20)
(-1.52781 0.0299498 -9.76755e-20)
(-1.56594 0.0296694 -6.40055e-20)
(-1.60393 0.0293743 4.99652e-20)
(-1.64174 0.0290568 5.99657e-20)
(-1.67935 0.0287222 1.68438e-20)
(-1.71673 0.0283632 -6.48601e-20)
(-1.75384 0.0279851 7.14737e-21)
(-1.79065 0.027581 3.38825e-21)
(-1.82711 0.0271566 1.6928e-20)
(-1.8632 0.0267049 8.27173e-20)
(-1.89886 0.0262318 -4.11805e-21)
(-1.93407 0.0257303 -5.97392e-20)
(-1.96877 0.0252064 6.42765e-20)
(-2.00293 0.0246533 2.33851e-20)
(-2.0365 0.0240775 -3.77659e-20)
(-2.06944 0.0234723 3.13226e-20)
(-2.10169 0.0228443 -4.81002e-21)
(-2.13322 0.0221881 6.01299e-20)
(-2.16396 0.0215094 2.76344e-20)
(-2.19388 0.0208016 -4.07098e-20)
(-2.22292 0.0200711 -1.16002e-20)
(-2.25103 0.0193122 2.28945e-21)
(-2.27816 0.0185305 4.53654e-20)
(-2.30426 0.0177189 5.61649e-20)
(-2.32928 0.0168835 4.93012e-20)
(-2.35317 0.0160174 -4.98866e-20)
(-2.37587 0.0151244 1.05793e-19)
(-2.39731 0.0141956 -4.18654e-21)
(-2.41745 0.0132297 7.53252e-20)
(-2.4362 0.0122189 -1.06324e-19)
(-2.45353 0.011152 -5.68186e-20)
(-2.46939 0.0100204 4.75816e-20)
(-2.48369 0.00881622 6.89132e-20)
(-2.49635 0.00753557 -1.04108e-20)
(-2.50727 0.00618585 -6.42202e-20)
(-2.51636 0.00479457 -6.34932e-20)
(-2.52349 0.00340902 6.48416e-20)
(-2.52851 0.00207602 -3.47743e-20)
(-2.53132 0.00084002 -8.25349e-20)
(-2.53216 -0.000282505 -3.57656e-20)
(-2.53124 -0.00134309 8.77513e-20)
(-2.52854 -0.00239546 4.38096e-20)
(-2.52405 -0.00345042 6.50831e-20)
(-2.51775 -0.00451226 -3.95355e-20)
(-2.50962 -0.00557912 1.25056e-20)
(-2.49964 -0.00665246 4.31156e-21)
(-2.48778 -0.00772924 -7.83993e-21)
(-2.47403 -0.00881018 -1.68326e-20)
(-2.45837 -0.00989216 -2.50267e-20)
(-2.44081 -0.0109752 -4.0265e-20)
(-2.42133 -0.0120561 -5.44879e-20)
(-2.39993 -0.0131339 2.84505e-20)
(-2.37663 -0.0142057 -3.91036e-20)
(-2.35144 -0.0152695 -3.75963e-20)
(-2.32436 -0.0163229 6.49893e-20)
(-2.29542 -0.0173626 -3.75752e-21)
(-2.26466 -0.0183867 -3.98141e-20)
(-2.23209 -0.0193907 -4.03698e-20)
(-2.19777 -0.020373 3.61059e-20)
(-2.16173 -0.0213284 2.60478e-21)
(-2.12402 -0.0222552 1.00279e-20)
(-2.0847 -0.023148 -6.24922e-21)
(-2.04382 -0.0240082 -1.72192e-20)
(-2.00147 -0.0248299 1.35555e-20)
(-1.95771 -0.0256172 -1.09503e-20)
(-1.91262 -0.0263625 8.83864e-21)
(-1.86628 -0.0270691 1.02939e-20)
(-1.81877 -0.0277274 -2.95299e-21)
(-1.77017 -0.0283443 5.87199e-21)
(-1.72058 -0.0289055 -2.71723e-21)
(-1.6701 -0.0294174 -6.40499e-22)
(-1.6188 -0.0298739 8.27764e-22)
(-1.5668 -0.030276 2.18491e-20)
(-1.51419 -0.0306157 -8.77649e-21)
(-1.46107 -0.030897 3.24529e-21)
(-1.40755 -0.0311132 -2.43951e-20)
(-1.35373 -0.0312671 -4.33799e-20)
(-1.29972 -0.0313544 4.93558e-20)
(-1.2456 -0.0313775 2.41841e-20)
(-1.19147 -0.0313375 -6.23235e-21)
(-1.13744 -0.0312356 1.21192e-19)
(-1.08359 -0.0310754 1.08789e-19)
(-1.03002 -0.0308563 -5.8133e-20)
(-0.976794 -0.0305818 -6.19601e-20)
(-0.92401 -0.0302506 -1.09408e-19)
(-0.87174 -0.0298685 -1.57221e-19)
(-0.820053 -0.0294346 -1.16985e-19)
(-0.76901 -0.0289562 -1.869e-19)
(-0.718665 -0.0284325 9.12138e-20)
(-0.669062 -0.0278724 8.37887e-20)
(-0.62024 -0.0272753 1.42739e-19)
(-0.572226 -0.0266517 1.047e-19)
(-0.525039 -0.0260017 2.93682e-19)
(-0.478688 -0.0253363 1.96198e-20)
(-0.433173 -0.0246561 1.24117e-20)
(-0.388481 -0.0239743 -2.1347e-19)
(-0.344589 -0.0232916 3.33351e-19)
(-0.301463 -0.0226208 -1.95396e-19)
(-0.259056 -0.0219654 2.67927e-20)
(-0.217311 -0.0213372 9.55506e-20)
(-0.176166 -0.0207369 3.43612e-20)
(-0.135524 -0.0201927 8.61931e-20)
(-0.0952889 -0.019715 4.01743e-19)
(-0.0553948 -0.01931 1.94864e-19)
(-0.0157728 -0.0189555 9.05043e-20)
(0.0235718 -0.0185135 1.24957e-19)
(0.0621249 -0.0177838 3.32526e-19)
(0.0999465 -0.0169233 -1.34189e-20)
(0.13788 -0.016191 3.25862e-19)
(0.176047 -0.0156474 4.33334e-19)
(0.214772 -0.0153205 3.88255e-19)
(0.254409 -0.0151835 -1.30047e-20)
(0.295256 -0.0151964 3.09393e-20)
(0.337519 -0.0153184 -6.71483e-20)
(0.381332 -0.0154918 -7.72024e-19)
(0.426441 -0.0156097 3.50036e-19)
(0.473107 -0.0154562 2.36111e-19)
(0.516859 -0.01449 -4.41098e-19)
(0.56617 -0.0116803 -4.11078e-19)
(0.56744 0.00485783 6.1282e-19)
(0.00764323 -0.0401531 1.43702e-18)
(0.0180155 -0.0470586 -5.8207e-19)
(0.0228471 -0.038537 -1.64432e-19)
(0.0239451 -0.0267685 3.22204e-19)
(0.0221115 -0.0143799 6.27091e-20)
(0.0177476 -0.00246313 3.81869e-20)
(0.0112666 0.00828373 -3.65589e-20)
(0.00284524 0.0174083 -1.84432e-19)
(-0.00755798 0.0247595 -1.29042e-20)
(-0.0198904 0.0304965 -1.90583e-19)
(-0.0340709 0.0349539 1.11703e-20)
(-0.0499989 0.03851 -2.95666e-21)
(-0.0675904 0.0415058 7.10482e-20)
(-0.0867498 0.0441989 1.00766e-20)
(-0.107348 0.046789 -2.23867e-20)
(-0.129309 0.0494264 -1.83455e-19)
(-0.152613 0.0522016 -3.82442e-20)
(-0.177247 0.0551401 1.59618e-19)
(-0.20319 0.0582263 -1.77509e-19)
(-0.230408 0.0614132 4.74475e-20)
(-0.258853 0.0646452 4.10946e-21)
(-0.288462 0.0678572 8.36537e-20)
(-0.319158 0.0709893 9.21977e-20)
(-0.350852 0.0739811 7.42377e-20)
(-0.383445 0.0767841 9.14873e-20)
(-0.416833 0.0793544 -4.92193e-20)
(-0.450907 0.0816655 1.15845e-20)
(-0.485561 0.0836992 1.38262e-20)
(-0.520691 0.0854491 -5.02697e-20)
(-0.556202 0.0869045 -3.34429e-20)
(-0.592005 0.0880632 -5.1965e-20)
(-0.628022 0.0889315 -1.56028e-20)
(-0.664179 0.0895326 -1.13063e-19)
(-0.700418 0.0898875 4.54247e-20)
(-0.736689 0.0900244 -6.36355e-20)
(-0.772956 0.0899652 7.43519e-20)
(-0.809193 0.0897397 -6.96145e-20)
(-0.845389 0.0893696 1.89254e-20)
(-0.881538 0.0888872 4.71907e-20)
(-0.917639 0.0883194 -3.63014e-20)
(-0.953694 0.0877034 2.98506e-20)
(-0.989698 0.0870659 -1.20478e-20)
(-1.02564 0.0864299 -4.60119e-20)
(-1.06152 0.0857927 -1.33992e-19)
(-1.09733 0.0851561 -9.48002e-20)
(-1.13305 0.0845148 1.10937e-21)
(-1.16869 0.0838724 -1.16277e-19)
(-1.20425 0.0832228 -3.15151e-20)
(-1.23972 0.0825694 1.1086e-19)
(-1.27509 0.0819053 1.68751e-19)
(-1.31037 0.0812338 3.97625e-20)
(-1.34555 0.0805475 -1.7228e-20)
(-1.38062 0.0798495 -1.81218e-20)
(-1.41555 0.0791323 -5.79566e-20)
(-1.45036 0.0783982 -4.45165e-20)
(-1.48501 0.0776386 -1.16595e-19)
(-1.51949 0.0768561 -1.37087e-19)
(-1.55379 0.0760427 -3.0393e-20)
(-1.58789 0.0752006 2.02689e-20)
(-1.62177 0.0743212 -1.03416e-19)
(-1.6554 0.0734077 7.9276e-20)
(-1.68876 0.0724524 -3.37514e-20)
(-1.72183 0.0714581 -1.35739e-19)
(-1.75458 0.0704167 1.02692e-20)
(-1.78698 0.0693319 9.7995e-20)
(-1.819 0.0681961 -3.75644e-20)
(-1.85062 0.0670136 4.15127e-21)
(-1.8818 0.0657775 -8.71372e-20)
(-1.91251 0.0644926 2.99462e-20)
(-1.94271 0.0631523 -5.11554e-20)
(-1.97237 0.0617616 9.16944e-22)
(-2.00147 0.0603141 -6.28169e-20)
(-2.02995 0.0588152 1.96811e-21)
(-2.05778 0.0572585 -3.71834e-20)
(-2.08494 0.0556502 4.91736e-20)
(-2.11137 0.0539844 -8.46848e-20)
(-2.13705 0.0522681 1.10068e-20)
(-2.16192 0.0504964 -8.52576e-20)
(-2.18595 0.0486756 3.32818e-21)
(-2.2091 0.0467997 6.70282e-20)
(-2.23133 0.0448754 1.31276e-20)
(-2.2526 0.0428978 -3.91435e-20)
(-2.27286 0.0408732 -5.84516e-20)
(-2.29207 0.0387959 3.33761e-20)
(-2.31019 0.0366734 9.39324e-20)
(-2.32719 0.0345012 -2.96361e-20)
(-2.34301 0.032286 -1.04309e-21)
(-2.35761 0.0300229 -2.48474e-21)
(-2.37094 0.0277156 5.94384e-20)
(-2.38296 0.025361 2.08013e-19)
(-2.39365 0.022955 4.51565e-20)
(-2.40297 0.0204949 8.43485e-20)
(-2.4109 0.0179759 -1.82347e-19)
(-2.4174 0.0153925 -8.73702e-20)
(-2.42247 0.0127368 5.66326e-20)
(-2.42611 0.0100118 1.14726e-19)
(-2.42838 0.0072432 -6.2794e-20)
(-2.42937 0.00448948 -2.54226e-20)
(-2.42917 0.00182732 -4.35765e-20)
(-2.42757 -0.00072213 6.2916e-20)
(-2.42434 -0.00320849 -8.68148e-20)
(-2.41942 -0.00567217 -6.48509e-20)
(-2.41276 -0.00812555 -4.14937e-20)
(-2.40433 -0.0105718 1.36191e-19)
(-2.3941 -0.0130073 -1.52338e-20)
(-2.38205 -0.0154298 9.44726e-21)
(-2.36816 -0.0178332 4.87163e-20)
(-2.35242 -0.0202147 1.03846e-19)
(-2.33481 -0.0225681 -1.40592e-20)
(-2.31534 -0.0248902 -3.89798e-20)
(-2.29399 -0.0271745 2.93104e-21)
(-2.27078 -0.0294171 -6.97441e-20)
(-2.2457 -0.0316114 7.42803e-20)
(-2.21878 -0.0337524 2.7226e-20)
(-2.19003 -0.0358341 2.126e-20)
(-2.15947 -0.0378509 5.10228e-20)
(-2.12713 -0.0397972 5.94991e-20)
(-2.09305 -0.0416675 -3.04185e-20)
(-2.05727 -0.0434561 1.91413e-20)
(-2.01984 -0.0451558 2.63428e-20)
(-1.98079 -0.0467614 3.04526e-20)
(-1.9402 -0.0482658 -3.35843e-21)
(-1.89811 -0.0496684 -1.36448e-21)
(-1.85462 -0.0509637 -2.02592e-20)
(-1.80979 -0.0521565 -1.73798e-20)
(-1.76371 -0.053245 -1.63554e-20)
(-1.71645 -0.0542361 1.42303e-20)
(-1.6681 -0.0551055 -1.72254e-21)
(-1.61875 -0.0558527 -4.83907e-21)
(-1.56848 -0.0564874 -9.63145e-22)
(-1.51739 -0.0570181 -1.63933e-22)
(-1.46558 -0.0574288 2.62676e-21)
(-1.41313 -0.057726 2.4309e-21)
(-1.36016 -0.0579024 -3.05987e-21)
(-1.30676 -0.0579646 -4.22106e-21)
(-1.25303 -0.0579082 -5.32003e-21)
(-1.19908 -0.0577398 1.05669e-20)
(-1.145 -0.0574579 -6.50241e-20)
(-1.09089 -0.0570687 7.23833e-22)
(-1.03685 -0.0565764 5.18615e-20)
(-0.982959 -0.0559887 -3.26861e-20)
(-0.929318 -0.055313 4.2102e-20)
(-0.876009 -0.0545553 1.85874e-20)
(-0.823115 -0.0537225 -3.66118e-20)
(-0.77071 -0.0528205 -1.15076e-20)
(-0.718863 -0.0518569 -5.73898e-20)
(-0.667638 -0.0508393 -3.50856e-20)
(-0.617088 -0.0497758 7.48665e-20)
(-0.567259 -0.0486756 1.19115e-19)
(-0.518189 -0.0475469 -1.61377e-19)
(-0.469907 -0.0463995 4.87388e-20)
(-0.422432 -0.0452418 9.5018e-21)
(-0.375773 -0.0440859 -2.63007e-19)
(-0.329929 -0.0429389 6.39127e-21)
(-0.284886 -0.0418131 3.97583e-21)
(-0.240621 -0.0407172 -8.22758e-20)
(-0.197098 -0.0396639 1.03073e-19)
(-0.154267 -0.0386587 1.43348e-19)
(-0.112066 -0.0377187 1.47599e-19)
(-0.07042 -0.0368474 1.29707e-19)
(-0.0292444 -0.0360543 -1.90664e-19)
(0.0115714 -0.0353464 2.41133e-20)
(0.0519986 -0.034698 -5.05976e-20)
(0.092162 -0.0341003 1.33851e-19)
(0.132346 -0.0335669 -3.96131e-20)
(0.172804 -0.0330391 1.57149e-19)
(0.213798 -0.0325236 -1.52794e-19)
(0.255537 -0.0321206 -2.32797e-19)
(0.298195 -0.0319443 -3.48534e-19)
(0.341929 -0.0320431 -1.61317e-19)
(0.386931 -0.0324156 -7.15848e-20)
(0.433421 -0.0330172 3.39151e-20)
(0.481615 -0.0337924 2.04023e-20)
(0.531653 -0.0346621 -2.34071e-19)
(0.583583 -0.0355162 -2.15884e-19)
(0.637128 -0.0361461 2.95362e-19)
(0.69218 -0.036088 3.5824e-19)
(0.745717 -0.0345544 3.33642e-19)
(0.802413 -0.0287845 1.67349e-19)
(0.834079 -0.00884499 -3.58523e-19)
(0.0033289 -0.0593869 1.55685e-19)
(0.00471299 -0.0523342 6.64543e-19)
(0.00135713 -0.0344545 4.16836e-19)
(-0.00464412 -0.0168025 -2.84645e-19)
(-0.0125678 -0.000368576 6.84182e-20)
(-0.0220246 0.0146697 -4.20519e-20)
(-0.0328301 0.0281854 -2.11796e-20)
(-0.0449582 0.0400873 1.86832e-19)
(-0.0584675 0.0503561 1.61519e-19)
(-0.073434 0.0590902 1.43699e-19)
(-0.0899127 0.0665077 6.76463e-20)
(-0.107921 0.0728988 6.6164e-20)
(-0.127439 0.0785672 -2.13972e-19)
(-0.148416 0.0837876 -1.32964e-19)
(-0.170773 0.0887746 4.71985e-20)
(-0.194423 0.0936658 -9.96177e-20)
(-0.219271 0.0985336 9.46286e-20)
(-0.245218 0.103395 1.33233e-20)
(-0.272161 0.108225 1.2907e-19)
(-0.299997 0.11297 1.08343e-19)
(-0.32862 0.117568 -9.79686e-20)
(-0.357928 0.121947 -2.49279e-19)
(-0.38782 0.126045 -4.20976e-20)
(-0.4182 0.129805 -2.52288e-19)
(-0.448978 0.133185 5.23617e-20)
(-0.480074 0.136152 7.62036e-20)
(-0.511417 0.138686 -2.8433e-20)
(-0.542941 0.140779 9.12678e-20)
(-0.574587 0.142435 4.60223e-20)
(-0.606304 0.143674 9.56163e-20)
(-0.638057 0.144521 -4.51224e-20)
(-0.669826 0.145007 -2.73237e-20)
(-0.701598 0.145167 1.32087e-20)
(-0.733364 0.145039 -1.57599e-20)
(-0.765118 0.144662 -2.30274e-20)
(-0.796862 0.144075 -1.52612e-21)
(-0.828597 0.143315 -8.23014e-20)
(-0.86033 0.142416 2.94522e-20)
(-0.892066 0.141414 -7.28502e-20)
(-0.923809 0.140336 -2.38916e-20)
(-0.95556 0.139211 1.97302e-20)
(-0.987315 0.138061 -1.87489e-20)
(-1.01907 0.136899 -3.66648e-20)
(-1.05081 0.135732 1.00906e-19)
(-1.08253 0.134562 1.11672e-19)
(-1.11423 0.133387 -7.45633e-20)
(-1.1459 0.13221 3.38849e-20)
(-1.17754 0.131026 -3.92233e-20)
(-1.20915 0.129834 -6.94755e-20)
(-1.24071 0.128631 -3.39765e-20)
(-1.27223 0.127413 -3.64576e-20)
(-1.30368 0.126175 6.85421e-20)
(-1.33507 0.124916 1.15036e-20)
(-1.36638 0.123629 5.37746e-20)
(-1.3976 0.122311 6.41715e-21)
(-1.42871 0.120957 7.81663e-21)
(-1.45971 0.119562 3.17106e-20)
(-1.49056 0.118122 4.93246e-20)
(-1.52126 0.116633 -8.61263e-21)
(-1.55178 0.11509 1.62226e-19)
(-1.58211 0.11349 1.17759e-19)
(-1.61222 0.111829 2.78846e-20)
(-1.64208 0.110105 6.25154e-20)
(-1.67168 0.108312 -1.45844e-19)
(-1.70098 0.106449 2.13954e-20)
(-1.72997 0.104513 8.56578e-20)
(-1.7586 0.102503 -1.37934e-19)
(-1.78686 0.100416 -6.26271e-20)
(-1.81471 0.0982517 4.22626e-20)
(-1.84211 0.0960077 3.32419e-20)
(-1.86905 0.0936847 -7.07334e-20)
(-1.89547 0.0912804 1.2257e-19)
(-1.92135 0.088796 1.43056e-20)
(-1.94666 0.0862296 4.4379e-20)
(-1.97135 0.0835831 -1.45853e-19)
(-1.99539 0.0808553 1.41459e-19)
(-2.01875 0.0780494 2.97459e-20)
(-2.04138 0.0751644 -6.14309e-20)
(-2.06325 0.0722029 -1.12019e-19)
(-2.08431 0.0691641 -5.56559e-20)
(-2.10452 0.066051 8.9345e-21)
(-2.12385 0.0628631 2.40798e-20)
(-2.14226 0.0596034 -1.13661e-20)
(-2.1597 0.0562713 -8.50397e-20)
(-2.17613 0.0528708 -2.33886e-20)
(-2.19152 0.049402 -2.57987e-20)
(-2.20583 0.0458687 1.54502e-20)
(-2.219 0.042271 -5.35316e-20)
(-2.231 0.0386116 -7.6789e-20)
(-2.24179 0.0348915 -9.44787e-20)
(-2.25135 0.0311114 3.0467e-20)
(-2.25965 0.0272747 -1.11243e-19)
(-2.26666 0.0233876 1.08014e-19)
(-2.27235 0.0194592 9.34166e-21)
(-2.27672 0.0155035 -2.53937e-20)
(-2.27975 0.0115406 -4.71653e-20)
(-2.28141 0.00759431 1.6249e-20)
(-2.28166 0.00367967 7.80475e-20)
(-2.28046 -0.000219955 6.39668e-20)
(-2.27771 -0.00412703 2.82432e-20)
(-2.27336 -0.00803995 3.36898e-20)
(-2.26738 -0.0119502 1.66971e-20)
(-2.25971 -0.0158532 1.53677e-20)
(-2.25033 -0.0197431 -2.11239e-19)
(-2.23921 -0.0236136 4.12358e-20)
(-2.22634 -0.0274568 3.70434e-20)
(-2.21168 -0.0312657 -7.12884e-20)
(-2.19524 -0.0350323 6.01827e-20)
(-2.17699 -0.0387489 -1.98057e-20)
(-2.15693 -0.0424073 8.45331e-20)
(-2.13507 -0.0459992 6.07074e-20)
(-2.11141 -0.049516 4.20035e-20)
(-2.08594 -0.0529484 -2.71705e-20)
(-2.0587 -0.0562875 3.24118e-20)
(-2.02969 -0.0595237 2.06254e-20)
(-1.99894 -0.0626481 -2.38752e-20)
(-1.96647 -0.0656514 -3.50187e-20)
(-1.93234 -0.068525 1.06644e-19)
(-1.89657 -0.0712592 1.56601e-20)
(-1.8592 -0.0738446 -3.39855e-20)
(-1.8203 -0.0762715 -8.20792e-20)
(-1.77992 -0.0785324 -1.00041e-20)
(-1.73811 -0.0806216 -7.42078e-22)
(-1.69496 -0.0825354 -2.44862e-20)
(-1.65054 -0.0842713 1.97019e-21)
(-1.60493 -0.0858303 1.57536e-20)
(-1.55822 -0.0872205 -3.80002e-20)
(-1.51048 -0.0884277 1.06239e-20)
(-1.4618 -0.0894353 3.19648e-21)
(-1.41227 -0.0902549 8.20639e-21)
(-1.36199 -0.0908982 -8.4821e-22)
(-1.31104 -0.0913571 -2.16195e-21)
(-1.25952 -0.0916306 -1.49321e-20)
(-1.20752 -0.091717 -2.14251e-21)
(-1.15514 -0.0916195 1.5679e-20)
(-1.10248 -0.0913393 -4.94004e-21)
(-1.04963 -0.0908823 -5.80875e-21)
(-0.996699 -0.0902526 1.9493e-20)
(-0.943768 -0.0894583 2.78725e-20)
(-0.890926 -0.088508 -2.25539e-21)