/*--------------------------------*- C++ -*----------------------------------*\
| =========                 |                                                 |
| \\      /  F ield         | OpenFOAM: The Open Source CFD Toolbox           |
|  \\    /   O peration     | Version:  2306                                  |
|   \\  /    A nd           | Website:  www.openfoam.com                      |
|    \\/     M anipulation  |                                                 |
\*---------------------------------------------------------------------------*/
FoamFile
{
    version     2.0;
    format      ascii;
    arch        "LSB;label=32;scalar=64";
    class       volVectorField;
    location    "1.7";
    object      flux;
}
// * * * * * * * * * * * * * * * * * * * * * * * * * * * * * * * * * * * * * //

dimensions      [0 1 -1 1 0 0 0];

internalField   nonuniform List<vector> 
5322
(
(-2.10348e-06 5.35181e-06 -7.11279e-06)
(1.25792e-07 6.59266e-07 -6.41053e-06)
(1.31379e-07 1.87456e-07 -5.25642e-06)
(-1.69641e-09 9.37808e-08 -5.67997e-06)
(-9.10467e-09 1.61339e-07 -4.16272e-06)
(-7.55934e-09 1.69288e-07 -2.91223e-06)
(-5.07183e-09 1.39945e-07 -1.94174e-06)
(-3.32218e-09 1.04357e-07 -1.23573e-06)
(-2.25611e-09 7.39929e-08 -7.56698e-07)
(-1.30997e-09 4.80106e-08 -4.60308e-07)
(-5.49985e-10 1.59808e-08 -3.00136e-07)
(2.9937e-09 -5.01368e-08 -2.488e-07)
(4.08977e-09 -4.82904e-08 -1.71902e-07)
(-5.5132e-08 -4.46625e-08 -2.46019e-07)
(-4.11011e-10 -4.10306e-08 -2.75605e-07)
(1.07243e-07 9.54272e-08 -2.39386e-07)
(-8.31743e-08 1.25006e-07 -2.79165e-07)
(1.97458e-09 -1.72444e-09 -2.26936e-07)
(-7.06689e-08 1.02117e-07 -3.54102e-07)
(7.25102e-08 -1.59341e-07 -4.37633e-07)
(-9.60577e-08 1.84794e-07 -5.81249e-07)
(1.3875e-07 -2.57595e-07 -7.33751e-07)
(-1.46209e-07 3.09564e-07 -9.75361e-07)
(2.39386e-07 -4.28896e-07 -1.23087e-06)
(-2.49477e-07 5.19219e-07 -1.60098e-06)
(3.71996e-07 -6.70752e-07 -1.95881e-06)
(-3.75162e-07 7.94984e-07 -2.48426e-06)
(5.77082e-07 -1.03753e-06 -3.00198e-06)
(-5.81996e-07 1.20811e-06 -3.70354e-06)
(8.2058e-07 -1.48e-06 -4.33397e-06)
(-7.80003e-07 1.69917e-06 -5.20494e-06)
(1.19866e-06 -2.04576e-06 -5.99643e-06)
(-8.83178e-07 2.36681e-06 -6.96181e-06)
(1.76551e-06 -2.36532e-06 -7.66893e-06)
(1.70115e-07 2.44868e-06 -8.21719e-06)
(2.66433e-06 -1.41687e-06 -7.30251e-06)
(1.89076e-06 2.85659e-06 -8.67627e-06)
(-7.48964e-07 3.46628e-06 -8.52536e-06)
(2.06988e-06 1.75604e-06 -8.78297e-06)
(-1.2387e-07 1.98182e-06 -6.47379e-06)
(-1.96514e-06 2.56191e-06 -8.13589e-06)
(1.96937e-06 2.15385e-06 -8.39888e-06)
(-1.19194e-07 2.31694e-06 -6.34554e-06)
(-2.09361e-06 2.39495e-06 -8.40101e-06)
(2.08377e-06 2.28448e-06 -8.3161e-06)
(-7.08871e-08 2.36226e-06 -6.45935e-06)
(-2.22464e-06 2.32107e-06 -8.5249e-06)
(1.9626e-06 2.48122e-06 -8.06093e-06)
(-4.54521e-08 2.40501e-06 -6.39557e-06)
(-2.33612e-06 2.20595e-06 -8.40159e-06)
(-2.32213e-06 2.78726e-06 -9.63071e-06)
(-3.32946e-06 1.23054e-06 -6.46887e-06)
(-1.11154e-06 1.45234e-06 -9.07986e-06)
(2.08793e-06 -4.43658e-06 -7.95749e-06)
(-1.38114e-07 -2.11192e-07 -7.03385e-06)
(-3.40413e-06 -2.54454e-06 -7.5252e-06)
(-1.05684e-07 1.41234e-06 -9.39432e-06)
(3.23294e-06 -3.31064e-06 -7.37598e-06)
(-3.89055e-08 -1.52344e-07 -7.03642e-06)
(-3.23209e-06 -2.87605e-06 -7.50143e-06)
(-1.38856e-08 1.43312e-06 -9.4896e-06)
(3.14865e-06 -3.25273e-06 -7.47474e-06)
(-1.61689e-08 -1.353e-07 -7.03396e-06)
(-3.17444e-06 -2.85516e-06 -7.31848e-06)
(3.91379e-09 1.43972e-06 -9.49141e-06)
(3.10763e-06 -3.37531e-06 -7.74551e-06)
(4.72798e-08 -1.88096e-07 -7.01232e-06)
(-3.14421e-06 -2.77179e-06 -6.9637e-06)
(1.70033e-07 1.46187e-06 -9.31999e-06)
(2.59642e-06 -3.77452e-06 -8.27845e-06)
(1.57401e-07 1.10045e-07 -5.84584e-06)
(-2.44057e-06 2.88146e-06 -8.55457e-06)
(2.77293e-06 1.59769e-06 -8.14018e-06)
(-2.85575e-06 2.24188e-06 -8.01796e-06)
(2.74781e-06 1.6657e-06 -8.09253e-06)
(-2.79958e-06 2.11839e-06 -8.05374e-06)
(2.80164e-06 1.76145e-06 -8.04803e-06)
(-2.8041e-06 2.11275e-06 -8.02899e-06)
(3.19523e-06 1.79854e-06 -8.16237e-06)
(-2.34845e-06 2.52846e-06 -7.80368e-06)
(1.09769e-06 1.79593e-07 -7.61773e-06)
(-1.73589e-06 1.00749e-06 -6.21648e-06)
(-1.17889e-06 1.46698e-06 -6.44836e-06)
(1.8118e-06 2.31669e-06 -8.20663e-06)
(1.45913e-07 -1.43786e-07 -5.2462e-06)
(-7.6818e-07 -8.15988e-07 -7.2465e-06)
(1.33637e-06 3.12144e-07 -1.07174e-05)
(-3.70725e-06 5.89438e-07 -7.04196e-06)
(-1.14234e-06 1.28624e-06 -7.03273e-06)
(4.03001e-06 1.91036e-07 -6.06115e-06)
(-1.84101e-07 3.46492e-07 -7.45747e-06)
(3.58315e-08 6.09626e-08 -5.11281e-06)
(6.15274e-08 8.1941e-09 -5.38406e-06)
(4.28869e-07 7.65848e-09 -5.37812e-06)
(2.30795e-06 2.77134e-06 -7.01387e-06)
(-4.45288e-07 -1.61692e-06 -6.8552e-06)
(4.79248e-08 5.31507e-08 -6.43707e-06)
(-1.48779e-07 1.63464e-06 -6.94462e-06)
(1.3747e-06 5.11973e-08 -1.08943e-05)
(-3.27227e-06 -9.26383e-08 -6.83209e-06)
(-3.26418e-06 3.09607e-07 -6.91807e-06)
(6.62882e-06 5.42221e-08 -6.14411e-06)
(-1.51479e-07 1.75059e-06 -7.00057e-06)
(1.7867e-06 -2.69451e-06 -6.93999e-06)
(2.91845e-06 2.41873e-06 -7.58223e-06)
(8.0291e-08 6.11169e-08 -6.26512e-06)
(3.396e-08 -5.57005e-08 -6.57446e-06)
(2.42163e-08 -6.60449e-09 -5.73776e-06)
(1.14422e-08 1.74914e-09 -4.21377e-06)
(3.44735e-09 5.3133e-09 -2.95534e-06)
(1.08688e-10 4.78488e-09 -1.97023e-06)
(-9.61391e-10 3.52042e-09 -1.25033e-06)
(-1.23965e-09 2.52386e-09 -7.60206e-07)
(-1.1999e-09 1.74464e-09 -4.57477e-07)
(4.32576e-10 -1.01882e-10 -3.37489e-07)
(-5.73712e-10 6.41351e-10 -2.82625e-07)
(-3.42767e-08 3.51912e-08 -2.05363e-07)
(-3.26504e-08 -1.2857e-08 -2.17856e-07)
(4.61146e-09 -5.84603e-09 -3.20549e-07)
(1.99484e-08 -2.52692e-08 -2.37216e-07)
(5.55856e-10 3.19054e-08 -2.03328e-07)
(2.88977e-08 -1.51073e-08 -2.37813e-07)
(-3.48085e-08 -3.09662e-08 -2.3444e-07)
(-2.78418e-09 -4.35683e-08 -3.24683e-07)
(-9.23894e-09 -4.86526e-08 -2.44683e-07)
(5.42571e-08 -1.83555e-09 -3.1843e-07)
(4.38477e-08 3.66542e-08 -2.32294e-07)
(1.12396e-08 -2.70795e-08 -2.42613e-07)
(3.46026e-08 2.71043e-09 -3.1359e-07)
(2.14493e-08 2.99781e-08 -2.32193e-07)
(1.59338e-08 -2.97037e-08 -2.38231e-07)
(3.72094e-08 1.30617e-09 -3.16833e-07)
(1.77057e-08 3.10897e-08 -2.35924e-07)
(1.91031e-08 -3.19286e-08 -2.33991e-07)
(3.78408e-08 -1.08959e-09 -3.18096e-07)
(1.52419e-08 2.88738e-08 -2.38734e-07)
(3.08747e-08 -3.48258e-08 -2.3495e-07)
(4.307e-08 -2.91283e-09 -3.26223e-07)
(4.82959e-08 -9.22874e-09 -2.45624e-07)
(1.97983e-09 5.36775e-08 -3.19494e-07)
(-3.63048e-08 4.37015e-08 -2.33492e-07)
(1.38308e-09 -3.10801e-08 -2.04352e-07)
(2.53263e-08 2.0152e-08 -2.3775e-07)
(-3.16592e-08 1.55975e-08 -2.15157e-07)
(-3.49956e-08 -3.43366e-08 -2.0596e-07)
(6.04379e-09 4.83513e-09 -3.21119e-07)
(1.30191e-08 -3.25775e-08 -2.18261e-07)
(6.49058e-09 2.52682e-08 -2.17252e-07)
(-2.73017e-08 2.6657e-08 -2.03854e-07)
(-3.01842e-08 -2.9598e-08 -2.05594e-07)
(6.92516e-09 -4.06564e-10 -3.23348e-07)
(7.4875e-09 -2.67292e-08 -2.17621e-07)
(9.46906e-09 2.70882e-08 -2.16859e-07)
(-2.98915e-08 3.01827e-08 -2.0445e-07)
(-2.7926e-08 -2.63928e-08 -2.05306e-07)
(7.01408e-09 -2.89424e-11 -3.22987e-07)
(4.329e-09 -2.45248e-08 -2.17504e-07)
(1.58915e-08 3.21368e-08 -2.14788e-07)
(-3.10909e-08 -1.22274e-09 -2.03859e-07)
(4.1073e-08 -4.62231e-10 -2.76019e-07)
(-9.50613e-08 1.07409e-07 -2.39396e-07)
(-1.24822e-07 -8.30869e-08 -2.80004e-07)
(1.33893e-07 1.10968e-07 -3.93162e-07)
(-1.86561e-07 -1.47729e-07 -4.74441e-07)
(-1.01253e-08 7.11777e-09 -2.65548e-07)
(-1.02649e-07 -7.00766e-08 -3.55115e-07)
(2.36169e-09 1.90417e-09 -2.27427e-07)
(8.97415e-08 6.10089e-09 -2.84111e-07)
(-2.05053e-08 -8.79813e-09 -1.79087e-07)
(9.13615e-08 2.77266e-08 -2.37966e-07)
(4.48551e-08 -5.51642e-08 -2.46712e-07)
(6.74837e-08 5.52585e-08 -2.30204e-07)
(-1.14228e-07 -1.02584e-07 -2.64115e-07)
(4.16489e-08 4.32709e-10 -2.84298e-07)
(-9.87529e-08 1.05275e-07 -2.53036e-07)
(7.97905e-08 -1.25272e-07 -3.73887e-07)
(1.03638e-07 1.30491e-07 -3.7056e-07)
(-1.55303e-07 -1.66147e-07 -4.4548e-07)
(1.29632e-08 9.74202e-10 -3.30017e-07)
(-1.32054e-07 1.64343e-07 -4.45382e-07)
(1.51065e-07 -2.1603e-07 -5.87725e-07)
(1.87921e-07 2.24319e-07 -5.87967e-07)
(-2.56144e-07 -2.87957e-07 -7.49299e-07)
(1.42421e-08 1.51923e-09 -5.49496e-07)
(-2.14852e-07 2.82787e-07 -7.50892e-07)
(2.65569e-07 -3.67755e-07 -9.79915e-07)
(3.24833e-07 3.80783e-07 -9.80321e-07)
(-4.25162e-07 -4.8381e-07 -1.24601e-06)
(2.36484e-08 2.17603e-09 -9.21743e-07)
(-3.55217e-07 4.74998e-07 -1.24817e-06)
(4.41355e-07 -6.04157e-07 -1.59788e-06)
(5.3691e-07 6.24942e-07 -1.59864e-06)
(-6.84427e-07 -7.77201e-07 -1.99128e-06)
(3.63606e-08 3.39355e-09 -1.49219e-06)
(-5.72088e-07 7.63296e-07 -1.99527e-06)
(6.90381e-07 -9.49336e-07 -2.49503e-06)
(8.42606e-07 9.81669e-07 -2.49766e-06)
(-1.06063e-06 -1.18856e-06 -3.03306e-06)
(5.27094e-08 5.51578e-09 -2.30537e-06)
(-8.88298e-07 1.16648e-06 -3.04097e-06)
(1.01604e-06 -1.42345e-06 -3.71494e-06)
(1.25259e-06 1.47125e-06 -3.72211e-06)
(-1.57611e-06 -1.72435e-06 -4.39682e-06)
(7.45352e-08 8.23544e-09 -3.39e-06)
(-1.31777e-06 1.68698e-06 -4.41065e-06)
(1.40419e-06 -2.02608e-06 -5.25856e-06)
(1.76068e-06 2.0909e-06 -5.27442e-06)
(-2.21285e-06 -2.33483e-06 -6.06418e-06)
(1.06165e-07 1.18789e-08 -4.72306e-06)
(-1.82556e-06 2.26983e-06 -6.08835e-06)
(1.78372e-06 -2.70264e-06 -6.96619e-06)
(2.22128e-06 2.72495e-06 -6.98271e-06)
(-3.92657e-07 -1.62219e-06 -6.93289e-06)
(1.31546e-06 -1.1716e-08 -1.08938e-05)
(-3.23923e-06 -1.86147e-07 -6.82964e-06)
(-3.30375e-06 9.32346e-08 -6.80892e-06)
(6.65751e-06 -5.63016e-08 -6.16314e-06)
(-2.89688e-07 -2.67856e-09 -8.40546e-06)
(-3.08935e-07 1.48283e-08 -8.38646e-06)
(7.21861e-08 2.41005e-08 -5.38449e-06)
(4.66188e-07 1.98127e-09 -5.38544e-06)
(2.29825e-06 2.77436e-06 -7.00082e-06)
(-3.26286e-07 -1.61545e-06 -6.91219e-06)
(7.12926e-08 7.45693e-09 -6.38169e-06)
(-3.92854e-07 1.94247e-06 -7.03038e-06)
(1.26227e-06 -3.01815e-07 -1.08863e-05)
(-3.29359e-06 -1.33555e-07 -6.8748e-06)
(-3.24899e-06 1.16017e-07 -6.80095e-06)
(6.61681e-06 -1.11085e-07 -6.1786e-06)
(-2.00775e-07 1.62413e-06 -6.90393e-06)
(1.78561e-06 -2.73276e-06 -6.97311e-06)
(4.50699e-08 1.71442e-08 -6.43217e-06)
(5.40276e-08 1.20086e-08 -6.4249e-06)
(2.87495e-08 3.408e-08 -5.72712e-06)
(1.50261e-08 1.8e-08 -4.21586e-06)
(5.52506e-09 7.08457e-09 -2.95991e-06)
(1.07249e-09 1.87013e-09 -1.97355e-06)
(-5.70545e-10 -1.72109e-10 -1.25225e-06)
(-1.10578e-09 -9.30708e-10 -7.6121e-07)
(-1.10561e-09 -1.07286e-09 -4.57972e-07)
(4.17601e-10 4.54742e-10 -3.37835e-07)
(-5.60357e-10 -5.48384e-10 -2.83029e-07)
(2.66306e-08 -2.80091e-08 -2.05201e-07)
(-2.98528e-08 -3.00888e-08 -2.05094e-07)
(2.99768e-08 -3.01875e-08 -2.04958e-07)
(-2.65176e-08 -2.79795e-08 -2.04964e-07)
(1.78228e-10 7.20611e-09 -3.22967e-07)
(2.64278e-08 8.65749e-09 -2.16808e-07)
(-2.44244e-08 4.76279e-09 -2.17501e-07)
(3.9839e-11 -3.62935e-08 -2.09943e-07)
(-2.88539e-08 1.66191e-08 -2.3838e-07)
(6.69463e-11 -3.62004e-08 -3.54546e-07)
(-2.62136e-08 8.59965e-09 -2.16834e-07)
(7.97802e-11 7.22205e-09 -3.23158e-07)
(2.45976e-08 4.85464e-09 -2.17725e-07)
(9.92859e-10 -3.57613e-08 -3.52258e-07)
(2.68282e-08 1.12611e-08 -2.42517e-07)
(-2.28988e-09 3.37154e-08 -3.13289e-07)
(-2.92593e-08 2.08656e-08 -2.32422e-07)
(2.36965e-11 -3.6303e-08 -2.10118e-07)
(2.88944e-08 1.66829e-08 -2.38474e-07)
(6.27817e-12 3.6631e-08 -3.13391e-07)
(4.42985e-11 5.13411e-08 -1.70122e-07)
(5.38592e-08 5.60145e-08 -2.37727e-07)
(-1.02422e-07 -1.04033e-07 -2.53201e-07)
(1.02569e-07 -1.03915e-07 -2.52931e-07)
(-1.00939e-07 -1.1146e-07 -2.64298e-07)
(1.28808e-07 9.84689e-08 -3.70644e-07)
(-1.64042e-07 -1.49174e-07 -4.45722e-07)
(2.21436e-07 1.78355e-07 -5.88289e-07)
(-2.84106e-07 -2.44336e-07 -7.49569e-07)
(3.757e-07 3.08178e-07 -9.81051e-07)
(-4.77223e-07 -4.04529e-07 -1.24622e-06)
(6.16504e-07 5.09564e-07 -1.59995e-06)
(-7.66618e-07 -6.50517e-07 -1.99154e-06)
(9.68483e-07 7.99975e-07 -2.49995e-06)
(-1.17217e-06 -1.00796e-06 -3.03323e-06)
(1.45192e-06 1.19022e-06 -3.72646e-06)
(-1.7004e-06 -1.50027e-06 -4.39569e-06)
(2.06543e-06 1.67862e-06 -5.28307e-06)
(-2.30398e-06 -2.11697e-06 -6.05772e-06)
(2.74202e-06 2.21979e-06 -7.03211e-06)
(-1.60507e-06 -3.93493e-07 -6.85022e-06)
(4.09058e-08 1.39798e-06 -1.08996e-05)
(1.62735e-06 -2.27296e-07 -6.97556e-06)
(4.75342e-08 5.46654e-08 -6.4362e-06)
(-2.66954e-06 1.92224e-06 -6.95117e-06)
(2.24594e-06 -1.94804e-06 -6.10559e-06)
(1.35561e-08 1.11829e-07 -4.72683e-06)
(-2.0019e-06 1.52172e-06 -5.25877e-06)
(1.6666e-06 -1.41803e-06 -4.41826e-06)
(8.16895e-09 7.71685e-08 -3.39276e-06)
(-1.40667e-06 1.10243e-06 -3.7182e-06)
(1.15157e-06 -9.59153e-07 -3.04391e-06)
(4.92484e-09 5.39446e-08 -2.30701e-06)
(-9.38244e-07 7.48284e-07 -2.49777e-06)
(7.53283e-07 -6.18358e-07 -1.99636e-06)
(2.86684e-09 3.69174e-08 -1.49308e-06)
(-5.9713e-07 4.77913e-07 -1.5997e-06)
(4.68721e-07 -3.83696e-07 -1.24852e-06)
(1.72432e-09 2.38775e-08 -9.22214e-07)
(-3.63516e-07 2.87738e-07 -9.81249e-07)
(2.79096e-07 -2.31335e-07 -7.50813e-07)
(1.16182e-09 1.43433e-08 -5.49733e-07)
(-2.13602e-07 1.63862e-07 -5.88797e-07)
(1.62115e-07 -1.41119e-07 -4.45085e-07)
(7.82069e-10 1.29651e-08 -3.30061e-07)
(-1.23668e-07 8.64491e-08 -3.74501e-07)
(2.15323e-10 -8.53084e-09 -2.78089e-07)
(1.24088e-07 8.64671e-08 -3.74338e-07)
(-1.61504e-07 -1.41062e-07 -4.45356e-07)
(-5.01374e-10 1.29775e-08 -3.30179e-07)
(-1.28242e-07 9.88784e-08 -3.70968e-07)
(1.01123e-07 -1.10998e-07 -2.64464e-07)
(-2.36213e-10 4.17199e-08 -2.84598e-07)
(-5.42154e-08 6.52571e-08 -2.30072e-07)
(-3.53288e-09 4.69072e-08 -1.71977e-07)
(5.49554e-08 4.53085e-08 -2.47801e-07)
(-1.0614e-07 -9.75078e-08 -2.4011e-07)
(1.23461e-07 7.83476e-08 -3.74842e-07)
(-1.6166e-07 -1.34077e-07 -4.4499e-07)
(2.10674e-07 1.56981e-07 -5.87582e-07)
(-2.74751e-07 -2.19083e-07 -7.51826e-07)
(3.59351e-07 2.78753e-07 -9.82279e-07)
(-4.58856e-07 -3.64227e-07 -1.24935e-06)
(5.91903e-07 4.64461e-07 -1.60547e-06)
(-7.35282e-07 -5.88934e-07 -1.99677e-06)
(9.33959e-07 7.29405e-07 -2.51189e-06)
(-1.12189e-06 -9.19847e-07 -3.04209e-06)
(1.41053e-06 1.08435e-06 -3.75398e-06)
(-1.61912e-06 -1.37297e-06 -4.39706e-06)
(2.0259e-06 1.52413e-06 -5.34517e-06)
(-2.16278e-06 -1.87983e-06 -6.01089e-06)
(2.6994e-06 1.95425e-06 -7.07599e-06)
(-1.58637e-06 -2.15194e-07 -6.89732e-06)
(-3.94353e-07 1.04792e-06 -1.0782e-05)
(6.65156e-07 -8.09173e-07 -7.33718e-06)
(7.3523e-08 9.62207e-08 -6.24492e-06)
(-2.51416e-06 2.70414e-06 -7.60251e-06)
(1.972e-06 -2.74298e-06 -6.6141e-06)
(1.52606e-08 1.41247e-07 -4.5977e-06)
(-1.82991e-06 2.20709e-06 -5.72019e-06)
(1.50517e-06 -1.93185e-06 -4.75043e-06)
(-7.24092e-09 8.9197e-08 -3.29566e-06)
(-1.24534e-06 1.57627e-06 -4.02019e-06)
(1.03071e-06 -1.27528e-06 -3.25329e-06)
(-1.0271e-08 5.75063e-08 -2.23543e-06)
(-8.23951e-07 1.05557e-06 -2.69e-06)
(6.68886e-07 -8.16092e-07 -2.12723e-06)
(-8.35166e-09 3.81221e-08 -1.44486e-06)
(-5.24616e-07 6.74657e-07 -1.72034e-06)
(4.16253e-07 -5.04784e-07 -1.32837e-06)
(-6.99889e-09 2.42664e-08 -8.91722e-07)
(-3.19518e-07 4.1194e-07 -1.05251e-06)
(2.50136e-07 -3.0234e-07 -7.97191e-07)
(-5.95447e-09 1.48383e-08 -5.31183e-07)
(-1.87619e-07 2.41302e-07 -6.28647e-07)
(1.47872e-07 -1.83037e-07 -4.74628e-07)
(-5.68002e-09 1.36742e-08 -3.18256e-07)
(-1.08579e-07 1.32682e-07 -3.93189e-07)
(8.26584e-08 -1.23244e-07 -2.80324e-07)
(6.82276e-10 4.12241e-08 -2.76532e-07)
(-2.72233e-08 9.13125e-08 -2.38441e-07)
(4.49842e-08 7.95656e-08 -2.442e-07)
(7.4697e-08 -3.97058e-08 -2.20097e-07)
(-3.66465e-09 9.00734e-08 -2.8475e-07)
(7.62681e-09 -2.04165e-08 -1.78893e-07)
(-1.38979e-08 1.16997e-08 -2.04641e-07)
(4.26608e-08 1.01199e-07 -2.5098e-07)
(-1.32242e-07 -8.89525e-08 -2.34615e-07)
(1.21225e-07 9.89896e-08 -3.80924e-07)
(-1.87899e-07 -1.17858e-07 -4.60397e-07)
(-1.26586e-07 1.89176e-07 -4.45593e-07)
(-1.58072e-07 -1.67646e-07 -4.45078e-07)
(1.35885e-08 -1.69593e-09 -3.27926e-07)
(8.43411e-08 -1.49924e-07 -3.69769e-07)
(9.41078e-08 1.28326e-07 -3.76546e-07)
(-1.11889e-07 -1.09053e-07 -2.44109e-07)
(3.99174e-08 2.48331e-09 -2.84332e-07)
(-9.88571e-08 1.13221e-07 -2.69149e-07)
(-9.74895e-09 4.4769e-09 -2.78211e-07)
(2.98062e-09 3.21459e-10 -2.71356e-07)
(-3.64646e-08 -2.93489e-08 -3.39071e-07)
(2.86159e-09 2.66302e-09 -2.58742e-07)
(-1.57449e-09 -2.31244e-09 -2.46064e-07)
(-3.73301e-08 1.55187e-09 -3.51384e-07)
(-5.938e-10 -8.95806e-10 -2.95618e-07)
(-9.40559e-09 -4.43744e-10 -2.78383e-07)
(-1.01837e-07 1.04765e-07 -2.6184e-07)
(-1.1052e-07 -1.04955e-07 -2.54732e-07)
(9.66933e-08 1.27064e-07 -3.74616e-07)
(-1.53673e-07 -1.64362e-07 -4.45292e-07)
(-7.32476e-09 3.16767e-10 -4.25201e-07)
(1.81857e-07 2.19105e-07 -5.89194e-07)
(-2.54408e-07 -2.83076e-07 -7.50931e-07)
(3.19145e-07 3.7328e-07 -9.81698e-07)
(-4.22967e-07 -4.75204e-07 -1.24849e-06)
(-2.56786e-08 1.64632e-09 -1.16302e-06)
(5.30921e-07 6.14061e-07 -1.60106e-06)
(-6.81849e-07 -7.62807e-07 -1.99501e-06)
(8.34589e-07 9.66525e-07 -2.50188e-06)
(-1.05756e-06 -1.16443e-06 -3.03807e-06)
(-9.61778e-09 3.85839e-09 -2.76537e-06)
(1.23901e-06 1.45057e-06 -3.72851e-06)
(-1.56541e-06 -1.68309e-06 -4.40092e-06)
(1.73029e-06 2.05955e-06 -5.27877e-06)
(-2.16615e-06 -2.26944e-06 -6.06977e-06)
(4.48947e-07 -4.0201e-09 -5.3864e-06)
(7.12418e-08 4.06335e-09 -5.38508e-06)
(1.35746e-08 6.50376e-09 -3.96584e-06)
(1.81257e-08 1.85491e-08 -3.97084e-06)
(-1.70318e-08 9.1929e-09 -2.78408e-06)
(-6.52604e-09 9.69167e-09 -2.77447e-06)
(1.28567e-06 1.46641e-06 -3.74929e-06)
(-1.60718e-06 -1.68289e-06 -4.40668e-06)
(8.52943e-08 7.54476e-09 -3.39532e-06)
(-1.30371e-06 2.0009e-06 -4.45482e-06)
(1.30636e-06 -2.35287e-06 -5.25365e-06)
(1.80773e-06 2.10163e-06 -5.3218e-06)
(-2.17455e-06 -2.24833e-06 -6.04187e-06)
(1.34706e-07 2.07859e-08 -4.72463e-06)
(-1.91249e-06 2.74613e-06 -6.18314e-06)
(1.58057e-06 -3.03055e-06 -6.89644e-06)
(3.17605e-06 1.94908e-06 -7.7947e-06)
(-2.54523e-07 -1.48843e-06 -6.73795e-06)
(1.67388e-07 -2.79556e-06 -1.09676e-05)
(-3.55265e-06 -2.17728e-07 -7.04497e-06)
(-3.30351e-06 3.26332e-09 -6.67618e-06)
(6.3332e-06 -1.00254e-06 -6.38822e-06)
(-4.32457e-07 -2.71077e-07 -8.2149e-06)
(6.05901e-08 3.87078e-08 -5.11524e-06)
(1.10632e-07 1.43041e-06 -4.65769e-06)
(-1.48088e-06 1.74439e-06 -6.3866e-06)
(2.86221e-07 1.11228e-07 -3.91346e-06)
(8.35145e-07 -2.28651e-06 -5.28517e-06)
(-8.68531e-07 1.50545e-06 -4.50243e-06)
(5.54519e-08 -5.49805e-09 -2.75162e-06)
(6.28891e-07 -1.33197e-06 -3.7408e-06)
(-5.59074e-07 1.03852e-06 -3.0427e-06)
(9.78835e-10 -1.98631e-08 -1.85451e-06)
(4.041e-07 -8.30434e-07 -2.51654e-06)
(-3.73534e-07 6.8389e-07 -1.98535e-06)
(-5.6373e-09 -1.34921e-08 -1.19769e-06)
(2.39813e-07 -5.07814e-07 -1.60297e-06)
(-2.30128e-07 4.25267e-07 -1.22794e-06)
(-8.98866e-09 -1.20876e-08 -7.37945e-07)
(1.51642e-07 -3.0818e-07 -9.8104e-07)
(-1.35055e-07 2.63974e-07 -7.33334e-07)
(-1.01927e-08 -9.75917e-09 -4.39253e-07)
(9.47562e-08 -1.73368e-07 -5.79368e-07)
(-6.68929e-08 1.61197e-07 -4.34235e-07)
(-9.78115e-09 -1.18313e-08 -2.64636e-07)
(7.32719e-08 -9.68758e-08 -3.55329e-07)
(2.4908e-08 2.25346e-08 -2.44752e-07)
(1.72962e-08 3.8246e-08 -2.34865e-07)
(-2.64566e-09 -6.33543e-08 -3.26298e-07)
(-1.29692e-09 -4.678e-09 -3.13391e-07)
(4.1044e-08 1.157e-07 -3.90598e-07)
(-1.71327e-08 -1.39633e-07 -5.30893e-07)
(2.25494e-07 1.57068e-07 -5.95545e-07)
(-3.09297e-07 -2.00618e-07 -7.73387e-07)
(3.96272e-07 2.63587e-07 -1.00222e-06)
(-5.15151e-07 -3.36076e-07 -1.28456e-06)
(-3.32688e-07 5.44432e-07 -1.24637e-06)
(-4.34526e-07 -4.78506e-07 -1.2514e-06)
(2.41202e-08 -2.50767e-09 -9.20059e-07)
(2.60669e-07 -4.28553e-07 -9.83832e-07)
(3.27848e-07 3.73187e-07 -9.83073e-07)
(-2.61002e-07 -2.86025e-07 -7.52726e-07)
(1.45928e-08 -2.4238e-09 -5.48043e-07)
(-2.00567e-07 3.24079e-07 -7.47943e-07)
(-1.15722e-08 1.61663e-09 -7.05919e-07)
(-5.76956e-09 -6.54088e-09 -6.77162e-07)
(-1.99189e-09 -3.56662e-09 -4.05511e-07)
(-5.07006e-09 -9.49465e-09 -3.5372e-07)
(-8.58535e-09 -2.67648e-08 -4.25459e-07)
(9.24627e-09 -7.83713e-11 -3.97298e-07)
(5.51527e-09 6.52203e-09 -3.793e-07)
(-3.23021e-09 8.08355e-10 -4.501e-07)
(-4.39124e-08 7.70781e-09 -4.57681e-07)
(-1.39667e-08 8.20444e-09 -2.99426e-07)
(4.55558e-08 3.95623e-09 -2.49487e-07)
(6.41509e-08 -5.43041e-09 -1.78312e-07)
(5.48926e-08 8.63526e-08 -2.99894e-07)
(1.95223e-08 2.74475e-08 -1.69476e-07)
(9.43021e-08 4.77342e-09 -2.47243e-07)
(3.34146e-08 2.19834e-08 -2.91334e-07)
(3.40387e-08 -2.05381e-09 -3.52739e-07)
(3.16057e-08 -1.2257e-08 -5.74833e-07)
(-2.97633e-08 -8.72963e-09 -7.54583e-07)
(-7.24081e-08 9.55275e-09 -7.54357e-07)
(-1.11516e-07 1.47404e-08 -1.23802e-06)
(-5.6272e-08 -1.47866e-08 -1.25079e-06)
(3.90361e-08 -2.35647e-08 -9.59649e-07)
(-4.13896e-08 -2.45904e-07 -8.96816e-07)
(6.43093e-09 -1.32133e-08 -8.86359e-07)
(8.26218e-08 2.98778e-07 -1.12548e-06)
(-7.35614e-08 -4.08465e-07 -1.46073e-06)
(6.5854e-07 4.31554e-07 -1.64679e-06)
(-8.30654e-07 -5.39365e-07 -2.05238e-06)
(1.03972e-06 6.83073e-07 -2.58311e-06)
(-1.29771e-06 -8.25663e-07 -3.12911e-06)
(-8.4854e-07 1.35576e-06 -3.05315e-06)
(-1.08941e-06 -1.16865e-06 -3.04635e-06)
(5.61608e-08 3.67828e-10 -2.30616e-06)
(6.63654e-07 -1.10067e-06 -2.50796e-06)
(8.62135e-07 9.71028e-07 -2.5109e-06)
(-7.01561e-07 -7.66848e-07 -1.99997e-06)
(3.76337e-08 -1.96231e-09 -1.49102e-06)
(-5.39308e-07 8.78221e-07 -1.99724e-06)
(-2.04362e-08 6.6079e-09 -1.84373e-06)
(-7.59368e-09 -9.76111e-09 -1.75909e-06)
(-8.22111e-09 -8.88245e-09 -1.11448e-06)
(-1.11236e-08 5.23425e-09 -9.81046e-07)
(-2.7406e-08 -8.4348e-08 -1.16236e-06)
(-7.75616e-10 -4.12053e-08 -1.1323e-06)
(-7.49484e-09 -2.91562e-08 -1.08041e-06)
(-1.77517e-08 -5.23582e-08 -7.05721e-07)
(5.64719e-10 -2.08264e-08 -6.67186e-07)
(-2.194e-09 -1.50423e-08 -6.37924e-07)
(5.65449e-08 1.82215e-07 -6.70082e-07)
(3.58145e-09 -7.72697e-09 -5.26247e-07)
(-8.0991e-09 -4.58216e-09 -5.93441e-07)
(-9.32632e-10 2.49222e-08 -5.89156e-07)
(1.84425e-09 -4.51372e-08 -4.62447e-07)
(7.65007e-10 -1.4846e-08 -3.01955e-07)
(-2.69919e-09 5.07444e-08 -2.49813e-07)
(5.68186e-09 9.43169e-08 -2.45773e-07)
(-6.57097e-08 1.70234e-07 -2.29325e-07)
(-4.47991e-09 8.72365e-09 -2.74446e-07)
(-2.1954e-09 -1.22263e-09 -2.26779e-07)
(-6.54967e-10 1.23248e-08 -3.59399e-07)
(-8.95554e-10 5.30684e-09 -3.58036e-07)
(1.64798e-07 -1.48473e-07 -4.45845e-07)
(8.8057e-10 -7.8764e-09 -4.23786e-07)
(-2.20479e-07 1.79446e-07 -5.88567e-07)
(2.14594e-07 1.63765e-07 -5.8875e-07)
(-2.77676e-07 -2.30909e-07 -7.50962e-07)
(-3.48792e-10 1.43905e-08 -5.50036e-07)
(2.86025e-07 -2.43932e-07 -7.50187e-07)
(1.9194e-09 -1.47368e-08 -7.05394e-07)
(-3.7404e-07 3.09713e-07 -9.81375e-07)
(3.65798e-07 2.87859e-07 -9.81805e-07)
(-4.65823e-07 -3.8265e-07 -1.24817e-06)
(2.99109e-10 2.40178e-08 -9.22957e-07)
(4.81285e-07 -4.05549e-07 -1.24846e-06)
(3.35326e-09 -2.33238e-08 -1.16136e-06)
(-6.13518e-07 5.10526e-07 -1.6004e-06)
(6.01955e-07 4.79169e-07 -1.60207e-06)
(-7.47726e-07 -6.16646e-07 -1.99448e-06)
(1.58289e-09 3.72377e-08 -1.49473e-06)
(7.7462e-07 -6.5502e-07 -1.99724e-06)
(5.71148e-09 -2.47842e-08 -1.83537e-06)
(-9.63582e-07 7.9766e-07 -2.50014e-06)
(9.47613e-07 7.53029e-07 -2.50435e-06)
(-1.1416e-06 -9.5771e-07 -3.03744e-06)
(4.11715e-09 5.47185e-08 -2.31017e-06)
(1.18688e-06 -1.02042e-06 -3.04611e-06)
(8.50336e-09 5.02982e-09 -2.76479e-06)
(-1.44451e-06 1.17382e-06 -3.7224e-06)
(1.42278e-06 1.11817e-06 -3.73494e-06)
(-1.65024e-06 -1.42313e-06 -4.39798e-06)
(9.00554e-09 7.88566e-08 -3.39741e-06)
(1.722e-06 -1.5233e-06 -4.42327e-06)
(5.73948e-09 1.3374e-07 -3.96328e-06)
(-2.05259e-06 1.6114e-06 -5.25888e-06)
(2.02251e-06 1.56889e-06 -5.29507e-06)
(-2.22542e-06 -1.98483e-06 -6.05663e-06)
(1.47671e-08 1.14594e-07 -4.72827e-06)
(2.31414e-06 -2.11973e-06 -6.10811e-06)
(-1.74788e-08 5.38977e-07 -5.37367e-06)
(-2.71651e-06 2.0364e-06 -6.95129e-06)
(2.67844e-06 2.03613e-06 -7.01608e-06)
(-1.61343e-06 -2.91161e-07 -6.9257e-06)
(-3.7546e-09 5.59935e-08 -6.425e-06)
(1.59993e-06 -3.55082e-07 -6.92928e-06)
(-1.13128e-07 6.62345e-06 -6.21356e-06)
(-2.69074e-07 -3.25408e-06 -6.84891e-06)
(-2.10466e-07 -3.36255e-06 -6.60525e-06)
(-3.24671e-07 4.94988e-06 -5.95374e-06)
(-3.22645e-06 1.30652e-06 -8.13225e-06)
(6.73012e-07 4.60119e-07 -5.33532e-06)
(4.37246e-07 -3.84658e-06 -6.87835e-06)
(-2.48291e-07 -9.05395e-07 -5.18755e-06)
(-4.98369e-07 -5.50346e-07 -4.96294e-06)
(-1.61578e-07 1.63944e-06 -5.99708e-06)
(-2.55744e-06 -1.72143e-06 -5.98503e-06)
(5.8738e-07 -3.30625e-08 -5.42109e-06)
(-1.05514e-06 7.84231e-08 -5.81204e-06)
(-1.41788e-06 -3.26678e-07 -5.86718e-06)
(-2.68303e-07 -3.66957e-07 -5.09438e-06)
(-4.26908e-07 -7.61093e-08 -4.36166e-06)
(-5.5957e-07 9.82452e-08 -4.2763e-06)
(-2.97859e-07 5.27987e-08 -2.95925e-06)
(-1.59598e-07 -2.33801e-08 -3.01553e-06)
(7.60662e-08 -6.11399e-08 -2.41189e-06)
(-8.90797e-08 -2.05012e-08 -1.9864e-06)
(-1.7525e-07 2.63358e-08 -1.95695e-06)
(-1.6281e-07 7.24135e-09 -1.94231e-06)
(-1.03198e-07 3.59378e-09 -1.2324e-06)
(-6.96049e-08 1.54173e-09 -7.54134e-07)
(-4.57962e-08 -8.92231e-11 -4.59244e-07)
(-1.40921e-08 -1.25902e-09 -2.99397e-07)
(5.43554e-08 -4.76853e-09 -2.47902e-07)
(5.56896e-08 -2.27606e-09 -1.72809e-07)
(5.62669e-08 5.6952e-08 -2.45339e-07)
(6.46933e-08 -5.69822e-08 -2.16821e-07)
(8.70268e-08 4.40748e-10 -2.47171e-07)
(8.31351e-08 4.04835e-10 -2.4912e-07)
(5.98869e-08 -5.80669e-08 -2.31984e-07)
(6.03317e-08 5.71776e-08 -2.39637e-07)
(4.15894e-08 -1.48529e-10 -2.85236e-07)
(-3.6554e-08 2.1109e-10 -2.09647e-07)
(1.14269e-08 -2.23527e-10 -2.57194e-07)
(-4.15415e-09 -4.28877e-09 -2.45106e-07)
(-2.88089e-09 -2.73229e-09 -2.46166e-07)
(1.03815e-08 1.03557e-08 -2.58685e-07)
(-3.18446e-08 5.73596e-10 -2.03911e-07)
(-6.58278e-11 1.18991e-08 -2.5635e-07)
(-1.75994e-11 -4.18972e-09 -2.4683e-07)
(-5.89511e-11 -5.17345e-09 -2.47357e-07)
(8.49873e-11 -2.18e-10 -2.85502e-07)
(-2.03254e-08 1.97432e-08 -2.01656e-07)
(-2.34825e-08 -2.33663e-08 -2.03546e-07)
(-2.33785e-08 2.37139e-08 -2.03236e-07)
(-2.04698e-08 -1.94044e-08 -2.02019e-07)
(2.05076e-08 -1.97467e-08 -2.01452e-07)
(-1.66257e-08 -1.64237e-08 -1.9995e-07)
(8.39347e-10 8.34645e-10 -3.27363e-07)
(2.36967e-08 2.35989e-08 -2.02951e-07)
(-1.96275e-08 2.07653e-08 -2.01871e-07)
(-1.96134e-08 -2.04999e-08 -2.01913e-07)
(8.58922e-10 -5.73388e-10 -3.27538e-07)
(2.35214e-08 -2.35317e-08 -2.03246e-07)
(7.51742e-11 8.59272e-11 -2.87936e-07)
(1.6631e-10 1.88168e-10 -3.42216e-07)
(1.82026e-10 6.85516e-10 -3.39826e-07)
(1.62839e-10 -4.91447e-10 -2.96065e-07)
(-1.06346e-09 -7.34937e-10 -2.94876e-07)
(6.18224e-10 -1.0791e-08 -2.76595e-07)
(-3.93412e-10 -6.80308e-09 -4.27539e-07)
(-1.98431e-10 -1.28941e-08 -7.13393e-07)
(6.2339e-10 -1.89394e-08 -1.1736e-06)
(2.5924e-09 -2.21103e-08 -1.85035e-06)
(6.72039e-09 -1.33973e-08 -2.77786e-06)
(2.96883e-09 -5.47699e-09 -2.64467e-06)
(-8.26127e-09 9.45255e-08 -2.35057e-06)
(-4.80433e-08 -2.29148e-07 -2.77512e-06)
(2.24787e-08 -9.96558e-08 -2.71027e-06)
(-2.87443e-08 -2.68267e-08 -2.58711e-06)
(1.74037e-07 7.86173e-07 -2.7858e-06)
(-2.43378e-07 -9.3e-07 -3.41695e-06)
(1.58281e-06 1.03694e-06 -3.89213e-06)
(-1.93841e-06 -1.22514e-06 -4.49761e-06)
(2.33307e-06 1.49254e-06 -5.6683e-06)
(-1.96817e-08 -6.82058e-08 -4.73827e-06)
(-6.63621e-07 -1.39864e-06 -4.77411e-06)
(-1.28316e-07 -6.14586e-08 -3.68973e-06)
(1.84843e-07 1.23035e-06 -4.13657e-06)
(7.12434e-09 -3.47807e-08 -3.3267e-06)
(6.21058e-08 -1.27949e-07 -3.58879e-06)
(9.59258e-08 2.08781e-08 -3.64154e-06)
(-2.7778e-07 1.46313e-08 -2.9265e-06)
(-5.05915e-07 2.8863e-08 -4.20517e-06)
(-9.85156e-07 3.4051e-08 -5.75626e-06)
(-2.2908e-06 -3.09099e-08 -7.60553e-06)
(-2.3592e-06 -3.71706e-07 -7.58829e-06)
(-5.35973e-06 1.2788e-06 -7.63687e-06)
(-2.16011e-06 -6.14091e-07 -6.43337e-06)
(-1.84014e-06 -2.12422e-06 -5.90689e-06)
(-3.02806e-08 -3.32163e-07 -6.25786e-06)
(-7.09541e-07 -4.08596e-07 -6.98958e-06)
(6.6562e-07 -5.04461e-06 -5.95966e-06)
(-4.73143e-06 -1.42975e-06 -6.83333e-06)
(-2.88756e-06 1.86021e-07 -9.92788e-06)
(-1.40465e-06 -2.13537e-06 -8.95694e-06)
(2.06559e-06 1.54118e-06 -8.68201e-06)
(1.65276e-07 7.75212e-08 -8.9839e-06)
(8.76983e-08 6.8173e-08 -5.70103e-06)
(-2.1101e-06 1.86185e-06 -7.27277e-06)
(2.22182e-06 1.55808e-06 -7.62435e-06)
(1.50596e-08 1.98822e-07 -9.17472e-06)
(-2.75975e-07 -1.79911e-07 -5.85905e-06)
(-2.30172e-06 2.04597e-06 -7.51665e-06)
(2.22887e-06 1.84091e-06 -7.65482e-06)
(4.53378e-09 2.10478e-07 -9.21836e-06)
(-3.04941e-07 -2.14544e-07 -5.88454e-06)
(-2.24756e-06 1.86216e-06 -7.42335e-06)
(2.22235e-06 2.09437e-06 -7.75353e-06)
(1.78909e-08 1.96571e-07 -9.2023e-06)
(-4.89234e-07 -4.80103e-07 -6.03012e-06)
(-2.14575e-06 1.55374e-06 -7.36576e-06)
(1.58647e-06 2.12086e-06 -8.27251e-06)
(-1.36781e-06 -7.58518e-07 -1.14917e-05)
(1.19211e-06 1.23176e-06 -9.20087e-06)
(9.09616e-07 -1.06911e-06 -9.00173e-06)
(2.5726e-06 1.14381e-06 -1.14224e-05)
(-1.20998e-06 -4.4822e-06 -1.12141e-05)
(-6.71655e-07 -2.42048e-06 -8.88601e-06)
(3.78214e-07 3.85877e-07 -6.47836e-06)
(1.45462e-06 -1.10842e-06 -9.081e-06)
(-4.40965e-06 2.10944e-06 -7.96411e-06)
(-2.13395e-07 -1.33018e-07 -7.03077e-06)
(-2.55975e-06 -3.41696e-06 -7.51016e-06)
(2.49493e-06 1.9767e-06 -8.07778e-06)
(2.40417e-06 -3.69392e-08 -6.39926e-06)
(2.20405e-06 -2.3318e-06 -8.38811e-06)
(2.78696e-06 -2.32174e-06 -9.63575e-06)
(1.22892e-06 -3.33234e-06 -6.46743e-06)
(1.91651e-07 1.11302e-06 -7.62273e-06)
(1.0083e-06 -1.74002e-06 -6.22002e-06)
(1.46864e-06 -1.17096e-06 -6.45386e-06)
(2.303e-06 1.80014e-06 -8.20927e-06)
(-7.80404e-07 -3.12982e-06 -6.90936e-06)
(2.00763e-07 -4.74157e-07 -5.14327e-06)
(1.3253e-06 1.96533e-06 -6.21838e-06)
(-8.27929e-07 -1.97692e-06 -5.22154e-06)
(1.40931e-08 -1.64338e-07 -3.82878e-06)
(8.42492e-07 1.49928e-06 -4.42202e-06)
(-5.97803e-07 -1.26014e-06 -3.70594e-06)
(8.79565e-10 -8.67191e-08 -2.66335e-06)
(5.6333e-07 1.03282e-06 -3.0195e-06)
(-3.85964e-07 -8.09505e-07 -2.49548e-06)
(2.81413e-09 -6.18182e-08 -1.76897e-06)
(3.69381e-07 6.73022e-07 -1.97213e-06)
(-2.40558e-07 -5.1036e-07 -1.60006e-06)
(2.48352e-09 -4.32736e-08 -1.11779e-06)
(2.32245e-07 4.2075e-07 -1.23112e-06)
(-1.46267e-07 -3.10303e-07 -9.79613e-07)
(6.58211e-10 -2.57312e-08 -6.77904e-07)
(1.37069e-07 2.546e-07 -7.37401e-07)
(-9.2338e-08 -1.83259e-07 -5.82589e-07)
(-4.69983e-09 -7.58856e-09 -3.95613e-07)
(7.20467e-08 1.57185e-07 -4.39514e-07)