/*--------------------------------*- C++ -*----------------------------------*\
| =========                 |                                                 |
| \\      /  F ield         | OpenFOAM: The Open Source CFD Toolbox           |
|  \\    /   O peration     | Version:  2306                                  |
|   \\  /    A nd           | Website:  www.openfoam.com                      |
|    \\/     M anipulation  |                                                 |
\*---------------------------------------------------------------------------*/
FoamFile
{
    version     2.0;
    format      ascii;
    arch        "LSB;label=32;scalar=64";
    class       volVectorField;
    location    "1.7";
    object      flux;
}
// * * * * * * * * * * * * * * * * * * * * * * * * * * * * * * * * * * * * * //

dimensions      [0 1 -1 1 0 0 0];

internalField   nonuniform List<vector> 
5322
(
(-0.00100641 0.00260002 -0.00348766)
(2.28855e-05 0.000244268 -0.00356033)
(2.79157e-05 -1.77129e-05 -0.00367533)
(3.18607e-06 -0.00010913 -0.00398419)
(-5.24014e-07 -6.0447e-05 -0.00395257)
(-6.81271e-07 -2.14007e-05 -0.00394081)
(2.24176e-08 -6.70918e-07 -0.0039371)
(5.31956e-07 1.93374e-05 -0.00394008)
(3.25283e-07 5.6633e-05 -0.00395126)
(-8.2234e-07 0.000103337 -0.00398348)
(-4.02595e-06 9.53942e-07 -0.00393798)
(4.39627e-05 -0.000769624 -0.00394913)
(6.77247e-05 -0.000855397 -0.00297201)
(-0.000932763 -0.000767834 -0.00409744)
(-2.47122e-05 -0.000666553 -0.00448043)
(0.00162335 0.00144253 -0.00357655)
(-0.0012756 0.00192952 -0.00422774)
(-2.01309e-05 -2.98585e-06 -0.00316507)
(-0.000973245 0.00133239 -0.00445629)
(0.000627351 -0.00157961 -0.00449699)
(-0.000852942 0.00150232 -0.00452539)
(0.000741832 -0.0015262 -0.0045051)
(-0.000784643 0.00149715 -0.00450729)
(0.00078887 -0.00153227 -0.00453116)
(-0.000799056 0.00152696 -0.0045309)
(0.000767511 -0.00149798 -0.00450603)
(-0.000769158 0.00149653 -0.00450764)
(0.000797851 -0.00152781 -0.00452878)
(-0.000785947 0.00152356 -0.00453049)
(0.000786077 -0.00150498 -0.00450821)
(-0.00074592 0.00151436 -0.00450744)
(0.000847283 -0.00151444 -0.00451616)
(-0.000636538 0.00156387 -0.00448523)
(0.000969971 -0.00134353 -0.00441387)
(1.37715e-05 0.00128889 -0.00419679)
(0.0012172 -0.000644304 -0.00344553)
(0.000858152 0.00126582 -0.00391907)
(-0.000342215 0.00158897 -0.00399416)
(0.000961926 0.000793651 -0.00412292)
(-5.52286e-05 0.000859264 -0.00290347)
(-0.000912269 0.0011727 -0.00383411)
(0.000917408 0.000979437 -0.00395687)
(-5.55345e-05 0.00101379 -0.00285142)
(-0.00097606 0.00109462 -0.00396272)
(0.000970001 0.00104361 -0.00392398)
(-3.33736e-05 0.00103328 -0.00289879)
(-0.00103745 0.00106025 -0.00401762)
(0.000905969 0.0011327 -0.00379238)
(-2.29015e-05 0.00104946 -0.00286018)
(-0.00108732 0.00100222 -0.00392808)
(-0.00107269 0.0012573 -0.00439931)
(-0.00155784 0.000608786 -0.00315688)
(-0.000486596 0.000681472 -0.00429617)
(0.00104471 -0.00224624 -0.00403627)
(-6.66057e-05 -0.000122576 -0.00378443)
(-0.00172517 -0.00129976 -0.00383748)
(-4.90091e-05 0.000683181 -0.00455213)
(0.00164875 -0.00170457 -0.00377801)
(-1.97782e-05 -9.70327e-05 -0.00382403)
(-0.00164754 -0.00148148 -0.00384155)
(-7.10109e-06 0.000693691 -0.00460764)
(0.00160569 -0.00167632 -0.00382893)
(-9.27336e-06 -8.66386e-05 -0.00382561)
(-0.00161826 -0.00147047 -0.00374681)
(-5.82048e-07 0.000696485 -0.0046044)
(0.00158109 -0.00173471 -0.00395763)
(2.00748e-05 -0.000111584 -0.00380735)
(-0.00160259 -0.0014221 -0.00355849)
(6.8992e-05 0.000702964 -0.00449504)
(0.00131239 -0.00190834 -0.0042015)
(5.20916e-05 6.72003e-05 -0.00315361)
(-0.00140093 0.00167689 -0.00491448)
(0.00158734 0.000934036 -0.00468052)
(-0.00164287 0.00130487 -0.00461398)
(0.00158154 0.000974711 -0.00466299)
(-0.00161055 0.00123449 -0.00464031)
(0.0016137 0.00103011 -0.00463791)
(-0.00161033 0.00122906 -0.00462157)
(0.00183318 0.00104358 -0.00468181)
(-0.00132077 0.00144377 -0.00443289)
(0.000647184 0.000131494 -0.00421687)
(-0.000854941 0.000485477 -0.00324143)
(-0.000552813 0.000733738 -0.00335988)
(0.000959909 0.00122136 -0.0045417)
(9.97781e-05 -0.000103965 -0.0030974)
(-0.000544131 -0.00051033 -0.00411806)
(0.000635793 0.000145184 -0.00555761)
(-0.00171182 0.000285517 -0.00339485)
(-0.000646052 0.000528798 -0.00348032)
(0.00204034 6.06371e-05 -0.00312759)
(-8.77135e-05 0.000138401 -0.0039551)
(3.82055e-05 2.55627e-05 -0.00353673)
(7.04891e-05 4.03007e-06 -0.00373159)
(0.000318337 4.74418e-06 -0.00370206)
(0.0014633 0.00177737 -0.00449441)
(-0.000340229 -0.000948932 -0.00389214)
(-4.15799e-05 2.85862e-05 -0.00387861)
(-0.000167758 0.000956728 -0.00394801)
(0.00065555 2.59745e-05 -0.00565619)
(-0.00151793 -2.4967e-05 -0.00330404)
(-0.00151953 0.000130524 -0.00333176)
(0.00339557 2.55635e-05 -0.00317869)
(-0.000164925 0.001013 -0.0039779)
(0.00112866 -0.00173287 -0.00444153)
(0.00183711 0.00155068 -0.00483166)
(-2.2877e-05 2.08915e-05 -0.00376409)
(1.10874e-05 -2.96506e-05 -0.00399333)
(1.51728e-05 -5.53675e-06 -0.00400241)
(9.2054e-06 -9.24031e-07 -0.0039889)
(4.51434e-06 1.6457e-06 -0.00399402)
(1.79529e-06 1.87617e-06 -0.00399515)
(-4.75902e-07 2.30801e-06 -0.00399356)
(-4.71216e-06 5.28285e-06 -0.00398887)
(-1.15717e-05 1.0611e-05 -0.00400253)
(1.82101e-05 -1.80161e-05 -0.00460854)
(-6.13877e-06 4.7203e-06 -0.0045638)
(-0.000535971 0.000548636 -0.00319376)
(-0.000528832 -0.000225676 -0.00346084)
(5.59799e-05 -7.75363e-05 -0.0046097)
(0.000337063 -0.000423449 -0.0038143)
(1.91463e-05 0.000520798 -0.00338097)
(0.00051423 -0.000289866 -0.00411225)
(-0.000615079 -0.000564833 -0.00405461)
(-4.60849e-05 -0.00077263 -0.00571225)
(-0.000141661 -0.000873088 -0.00425515)
(0.000953522 -3.51735e-05 -0.00559339)
(0.000784369 0.000639945 -0.00401605)
(0.00021813 -0.000482905 -0.00419353)
(0.000613278 4.52493e-05 -0.00549737)
(0.000396453 0.000527404 -0.00399908)
(0.000301478 -0.000525312 -0.00410428)
(0.00065844 2.21281e-05 -0.005547)
(0.000332449 0.000548259 -0.00406103)
(0.00035666 -0.000562161 -0.00402784)
(0.000669902 -1.77605e-05 -0.00557236)
(0.000291045 0.000512029 -0.00411845)
(0.000561267 -0.000614222 -0.00405281)
(0.000761507 -4.89092e-05 -0.00572127)
(0.000863245 -0.000141758 -0.00425827)
(3.70832e-05 0.000940352 -0.00559377)
(-0.000632763 0.000779047 -0.00402603)
(3.48893e-05 -0.000510568 -0.00339249)
(0.000421514 0.000338521 -0.00381467)
(-0.00051066 0.000263149 -0.0034124)
(-0.000547863 -0.000538209 -0.00319969)
(7.83183e-05 5.80019e-05 -0.00461025)
(0.000226393 -0.000527348 -0.00346099)
(0.000124574 0.000413654 -0.00343666)
(-0.00042877 0.000425105 -0.00315721)
(-0.000471249 -0.000468739 -0.00317801)
(8.81757e-05 -7.0878e-06 -0.00460111)
(0.000140387 -0.000437413 -0.00344136)
(0.000169192 0.000439022 -0.00342806)
(-0.000465026 0.000473876 -0.003159)
(-0.000441222 -0.000425716 -0.00318564)
(8.8907e-05 -1.43275e-06 -0.00459993)
(9.22946e-05 -0.000406921 -0.00344827)
(0.000267877 0.000516574 -0.00341078)
(-0.000510395 -3.36967e-05 -0.0033913)
(0.000665951 -2.54862e-05 -0.00447973)
(-0.00143556 0.00162332 -0.00357129)
(-0.00192424 -0.00127226 -0.00423327)
(0.00165841 0.0014068 -0.00492267)
(-0.00194206 -0.0014939 -0.00481155)
(-8.13189e-05 5.04936e-05 -0.00305249)
(-0.00133627 -0.000964062 -0.00445714)
(1.0733e-05 -2.06411e-05 -0.00316537)
(0.00130269 -8.81606e-06 -0.00428756)
(-0.00031287 -0.000180435 -0.00293568)
(0.00155264 0.000465756 -0.00397018)
(0.000769668 -0.000931911 -0.00410241)
(0.0011477 0.000927192 -0.00381077)
(-0.00171998 -0.00155643 -0.00394612)
(0.000671168 3.55093e-06 -0.00458019)
(-0.00148201 0.00158972 -0.00376743)
(0.000985937 -0.00157052 -0.00463979)
(0.00128542 0.00163511 -0.00460735)
(-0.00157218 -0.00167103 -0.00444967)
(3.52267e-05 6.94889e-06 -0.00371882)
(-0.00133666 0.00164624 -0.00444196)
(0.00117645 -0.00168662 -0.00454662)
(0.00146441 0.00174935 -0.00455601)
(-0.00155627 -0.00174404 -0.00451462)
(-9.67703e-06 6.48745e-06 -0.00377714)
(-0.00130437 0.00170531 -0.00451979)
(0.00124143 -0.00171701 -0.00453399)
(0.00151665 0.00177235 -0.00453975)
(-0.00155444 -0.00176506 -0.00452471)
(-3.06674e-06 3.97131e-06 -0.0037909)
(-0.0012971 0.00172394 -0.00452884)
(0.00126356 -0.00172834 -0.00453433)
(0.00153453 0.00178046 -0.00453828)
(-0.00156345 -0.00177297 -0.0045252)
(2.62025e-07 3.33817e-06 -0.00379677)
(-0.0013052 0.00173221 -0.00453098)
(0.00126164 -0.00173787 -0.0045371)
(0.00153777 0.00178981 -0.00454312)
(-0.00158634 -0.00177624 -0.00452037)
(1.79793e-06 4.33949e-06 -0.00380149)
(-0.00132768 0.0017358 -0.00452957)
(0.00124131 -0.00174888 -0.00454212)
(0.00152981 0.00180194 -0.00455235)
(-0.00162137 -0.00177221 -0.00451158)
(4.13866e-06 5.71937e-06 -0.00380458)
(-0.00135622 0.00172938 -0.0045247)
(0.00120166 -0.00175415 -0.00454098)
(0.00150876 0.00180694 -0.00455645)
(-0.00164922 -0.00173596 -0.00450555)
(9.75944e-06 7.36396e-06 -0.00379294)
(-0.00136337 0.00168622 -0.00452421)
(0.00112866 -0.00173614 -0.00446152)
(0.00140901 0.00175063 -0.00447624)
(-0.00030761 -0.000948808 -0.00393914)
(0.000626284 -4.2587e-06 -0.00565936)
(-0.00150676 -6.99341e-05 -0.00330532)
(-0.00153656 2.91112e-05 -0.00329361)
(0.00341645 -2.82035e-05 -0.00318967)
(-0.000117389 -1.73667e-06 -0.00449271)
(-0.000128629 1.11202e-05 -0.00448038)
(7.88659e-05 1.47428e-05 -0.0037319)
(0.000343595 5.84577e-08 -0.00370306)
(0.00145384 0.00178123 -0.00448058)
(-0.000268597 -0.000944472 -0.00392305)
(-2.67193e-05 7.99187e-06 -0.00383107)
(-0.00029942 0.00112591 -0.00397298)
(0.000596563 -0.000152952 -0.00563929)
(-0.00153522 -4.49809e-05 -0.00332295)
(-0.00150999 3.7136e-05 -0.00329299)
(0.00339689 -5.54267e-05 -0.00319553)
(-0.000198794 0.000953909 -0.0039248)
(0.00112898 -0.00175406 -0.00446692)
(-4.28449e-05 1.01799e-05 -0.00387715)
(1.86805e-05 7.81269e-06 -0.00392257)
(1.82007e-05 2.19604e-05 -0.00399548)
(1.17171e-05 1.42158e-05 -0.00398819)
(6.10411e-06 7.59651e-06 -0.00399575)
(2.65404e-06 3.42123e-06 -0.00399674)
(-5.67548e-09 2.41449e-07 -0.00399452)
(-4.35378e-06 -4.68126e-06 -0.00398926)
(-1.05135e-05 -1.18084e-05 -0.00400238)
(1.81724e-05 1.7566e-05 -0.00460833)
(-5.62545e-06 -6.31891e-06 -0.00456492)
(0.00042591 -0.000441656 -0.00317968)
(-0.000472748 -0.000470415 -0.00316984)
(0.000471087 -0.000470627 -0.00316738)
(-0.000427905 -0.00044268 -0.00317949)
(8.56747e-07 9.04322e-05 -0.00459936)
(0.000428365 0.000155865 -0.0034278)
(-0.00040485 9.82696e-05 -0.00344707)
(-2.2765e-06 -0.000594732 -0.00346816)
(-0.00050993 0.000311961 -0.00410324)
(2.82683e-07 -0.0006307 -0.00576415)
(-0.000428467 0.000156229 -0.00342877)
(-3.29997e-07 9.0611e-05 -0.00459953)
(0.0004038 9.84556e-05 -0.00344601)
(1.58775e-05 -0.000623308 -0.00573183)
(0.00047624 0.000217055 -0.00418101)
(-3.88942e-05 0.000596372 -0.0054789)
(-0.000514911 0.000385003 -0.00399624)
(1.68495e-06 -0.000594501 -0.00346899)
(0.000509215 0.000312599 -0.00410286)
(-5.27678e-07 0.000647394 -0.00548013)
(-8.87456e-08 0.000903937 -0.00292573)
(0.000901974 0.000954781 -0.00393057)
(-0.00155038 -0.0015639 -0.00376975)
(0.00154851 -0.00156035 -0.00376538)
(-0.00153159 -0.00167932 -0.00394732)
(0.00161231 0.00121828 -0.00460397)
(-0.00164955 -0.0015114 -0.00445044)
(0.00172511 0.00138707 -0.00455326)
(-0.00171992 -0.00148518 -0.00451472)
(0.00174738 0.00143655 -0.00453844)
(-0.00174014 -0.0014795 -0.00452424)
(0.00175536 0.00145434 -0.00453792)
(-0.00174806 -0.0014865 -0.00452489)
(0.00176475 0.00145806 -0.00454372)
(-0.00175124 -0.00150811 -0.00452002)
(0.00177724 0.00145182 -0.0045546)
(-0.00174743 -0.0015439 -0.00451021)
(0.00178395 0.00143685 -0.00456156)
(-0.00171315 -0.00157819 -0.00450091)
(0.00175787 0.00140666 -0.00450428)
(-0.000941908 -0.000309708 -0.00388858)
(1.98236e-05 0.000667524 -0.00565688)
(0.000950748 -0.000212305 -0.00396315)
(2.56254e-05 -3.67426e-05 -0.00387718)
(-0.00171488 0.00121782 -0.00445111)
(0.00166734 -0.00145335 -0.00453503)
(8.64578e-06 1.41353e-05 -0.0037949)
(-0.00173288 0.0013029 -0.00453951)
(0.0017076 -0.00145821 -0.00453026)
(5.86786e-06 6.46171e-06 -0.00380632)
(-0.00172746 0.00134649 -0.00454404)
(0.001713 -0.00143248 -0.00453176)
(3.88686e-06 2.97929e-06 -0.00380273)
(-0.00171646 0.00136645 -0.00453984)
(0.00170904 -0.00140963 -0.00453135)
(2.69808e-06 6.96644e-07 -0.00379747)
(-0.00170698 0.00136679 -0.00453717)
(0.0017007 -0.00139977 -0.00452801)
(2.81425e-06 -3.23598e-06 -0.00379117)
(-0.001696 0.00134338 -0.00453786)
(0.00168241 -0.00140296 -0.00451717)
(4.52368e-06 -1.03954e-05 -0.00377707)
(-0.00166683 0.00127453 -0.00455292)
(0.00162308 -0.00142699 -0.00443719)
(5.14577e-06 3.33909e-05 -0.00371779)
(-0.00155033 0.0010675 -0.0046461)
(9.1138e-07 -9.85893e-05 -0.00381111)
(0.0015498 0.00106657 -0.00464089)
(-0.00162409 -0.00142931 -0.00444219)
(-7.2984e-06 3.34533e-05 -0.00371782)
(-0.00160992 0.00122465 -0.00460867)
(0.00152927 -0.00166965 -0.00394635)
(-2.87364e-06 0.000670112 -0.00457915)
(-0.000909669 0.00110803 -0.00380249)
(-5.91096e-05 0.000828134 -0.00296139)
(0.000925295 0.000775148 -0.00411122)
(-0.00160561 -0.00147298 -0.00357727)
(0.00155027 0.000966293 -0.0046609)
(-0.00163258 -0.0013749 -0.00445948)
(0.00164002 0.00121596 -0.00454458)
(-0.00166947 -0.00134725 -0.00454106)
(0.00166761 0.00129108 -0.00453579)
(-0.00167543 -0.00134342 -0.00454106)
(0.00167981 0.00131527 -0.00454123)
(-0.00167762 -0.00135415 -0.00453734)
(0.00169427 0.00131761 -0.0045496)
(-0.00167739 -0.00138255 -0.00453014)
(0.00171612 0.00130782 -0.00456794)
(-0.00166473 -0.00141663 -0.00450499)
(0.00173776 0.00128565 -0.00459116)
(-0.00160647 -0.00140327 -0.00445849)
(0.00172483 0.00122576 -0.00451561)
(-0.000928206 -0.000202223 -0.0039098)
(-0.000199231 0.000483031 -0.0055744)
(0.000403696 -0.000553077 -0.00412753)
(5.09413e-05 -1.03626e-05 -0.00373573)
(-0.00160092 0.00168025 -0.00479272)
(0.00144083 -0.00205602 -0.00486891)
(2.02044e-05 3.54891e-05 -0.00367214)
(-0.00157737 0.00184608 -0.00487805)
(0.00152461 -0.00200912 -0.00485872)
(2.90698e-06 1.78599e-05 -0.00368536)
(-0.00152944 0.00188034 -0.00487431)
(0.00152317 -0.00193777 -0.00485249)
(-1.86732e-06 6.9274e-06 -0.00367792)
(-0.00151085 0.00188124 -0.00486088)
(0.00151247 -0.0019014 -0.0048495)
(-2.64209e-06 1.6845e-06 -0.00367172)
(-0.00150567 0.00188089 -0.00485757)
(0.00150954 -0.00189057 -0.00485221)
(-7.68479e-06 -3.67477e-06 -0.003668)
(-0.00150128 0.00187773 -0.00485959)
(0.00151192 -0.00189026 -0.00485124)
(-1.94817e-05 -7.79336e-06 -0.00366011)
(-0.00148069 0.00184643 -0.00487893)
(0.00149201 -0.00190674 -0.00481322)
(-4.49872e-05 4.25218e-05 -0.00360896)
(-0.00137831 0.00164187 -0.00492193)
(0.00126199 -0.00189844 -0.00423243)
(2.72094e-05 0.00066614 -0.0044782)
(-0.000457359 0.00154767 -0.00396875)
(0.000778395 0.00137532 -0.0041929)
(0.00128 -0.000690543 -0.00365817)
(4.08097e-05 0.00131125 -0.00430153)
(0.00015929 -0.000311261 -0.00292734)
(-0.000234001 0.000247093 -0.00334108)
(0.000654897 0.00157114 -0.00380038)
(-0.00202013 -0.00135979 -0.00348873)
(0.0015328 0.00126865 -0.00476962)
(-0.00192214 -0.00119444 -0.00464508)
(-0.00129431 0.00191317 -0.00447496)
(-0.00160032 -0.00168445 -0.00444478)
(4.15669e-05 -1.33381e-05 -0.00370866)
(0.00105381 -0.00188516 -0.00460976)
(0.00116555 0.00160795 -0.00467672)
(-0.00167806 -0.00164496 -0.00363119)
(0.000648954 4.83344e-05 -0.00459867)
(-0.00150597 0.00173186 -0.00403917)
(-0.000111922 7.73164e-05 -0.00384153)
(8.06896e-05 3.35493e-05 -0.00377609)
(-0.0006096 -0.000490119 -0.00556566)
(5.21555e-05 4.80587e-05 -0.00449095)
(-2.46131e-05 -3.93548e-05 -0.00425778)
(-0.000646751 2.57153e-05 -0.00571434)
(6.59686e-05 -9.3947e-06 -0.0040964)
(-0.00010444 -3.36456e-06 -0.00381887)
(-0.00152797 0.00158336 -0.00390014)
(-0.00165717 -0.00158646 -0.00379043)
(0.00119563 0.00158761 -0.00464581)
(-0.00155044 -0.00165044 -0.0044371)
(1.99206e-05 2.66426e-07 -0.00375753)
(0.00141459 0.00170274 -0.00455616)
(-0.00154203 -0.00171371 -0.00451713)
(0.00148921 0.00173337 -0.00454026)
(-0.0015434 -0.00173296 -0.00452817)
(1.09374e-05 1.19878e-06 -0.00373606)
(0.00151686 0.00174627 -0.00454087)
(-0.001555 -0.00173984 -0.00452897)
(0.00152207 0.00175878 -0.00454672)
(-0.00157975 -0.00174064 -0.0045238)
(5.90882e-05 1.41257e-06 -0.00372689)
(0.00151141 0.00177302 -0.00455629)
(-0.00160908 -0.00173071 -0.00451302)
(0.00148112 0.00177793 -0.00455804)
(-0.00161393 -0.00168712 -0.00450855)
(0.000333371 -2.73732e-06 -0.00370707)
(7.79592e-05 2.2989e-06 -0.00373591)
(5.00205e-05 3.80161e-06 -0.00374084)
(5.26275e-05 1.27084e-05 -0.0037412)
(2.5329e-05 7.13887e-06 -0.00374768)
(6.20804e-05 4.61446e-06 -0.00373377)
(0.00156223 0.00178898 -0.00457094)
(-0.00165114 -0.00172817 -0.00451339)
(1.28139e-05 9.13745e-06 -0.00379898)
(-0.00133924 0.00204371 -0.00455227)
(0.0011034 -0.00201893 -0.00450721)
(0.0015383 0.00180856 -0.00458242)
(-0.00161988 -0.00167006 -0.00448474)
(2.90271e-05 1.75376e-05 -0.00378013)
(-0.00142223 0.00202854 -0.0045699)
(0.00098874 -0.00192803 -0.00438808)
(0.00197607 0.00122875 -0.00488569)
(-0.000232617 -0.000854951 -0.00375116)
(3.72944e-05 -0.00136567 -0.00552825)
(-0.0016476 -9.27887e-05 -0.00335941)
(-0.00152043 -2.10468e-05 -0.00321441)
(0.00321502 -0.000493655 -0.00326875)
(-0.000199545 -0.000126829 -0.004325)
(5.35133e-05 3.82591e-05 -0.00351128)
(9.00587e-05 0.000908511 -0.00312563)
(-0.000981115 0.00118583 -0.00456753)
(0.000224521 9.45797e-05 -0.00305926)
(0.000771415 -0.00193193 -0.00439775)
(-0.000798425 0.00146786 -0.00456063)
(6.56368e-05 1.46004e-05 -0.00305508)
(0.000828043 -0.00163849 -0.00449125)
(-0.000751121 0.00149762 -0.00453456)
(1.0428e-05 -3.25415e-06 -0.00304776)
(0.000806119 -0.00154171 -0.00452643)
(-0.000770798 0.00151701 -0.00453587)
(-1.40337e-06 6.82881e-07 -0.00304594)
(0.000770922 -0.00148918 -0.00451276)
(-0.000748161 0.00151174 -0.00450724)
(-1.99351e-05 -1.06571e-05 -0.00304781)
(0.000802432 -0.00148803 -0.0045301)
(-0.000723649 0.00157063 -0.00450658)
(-4.90824e-05 -2.68851e-05 -0.0030531)
(0.000846233 -0.00141907 -0.0045203)
(-0.00056938 0.00160379 -0.00447318)
(-8.21377e-05 -0.000100846 -0.00305064)
(0.00100041 -0.00126602 -0.00447998)
(0.000379878 0.000410937 -0.00343304)
(0.000280949 0.000617849 -0.00330996)
(-7.38763e-05 -0.000761952 -0.00412355)
(-3.84634e-05 6.41411e-06 -0.0036002)
(0.000393854 0.00124466 -0.00401229)
(-0.000173177 -0.00105939 -0.00416085)
(0.00177401 0.00124333 -0.00463935)
(-0.00189542 -0.0012156 -0.00468778)
(0.00185224 0.00123433 -0.00464553)
(-0.0018914 -0.00122137 -0.00467287)
(-0.00122452 0.00198727 -0.00453149)
(-0.00158785 -0.00174192 -0.00454071)
(-3.69956e-06 -4.10537e-06 -0.00378323)
(0.00121198 -0.00199207 -0.00454797)
(0.0015292 0.00173594 -0.00454522)
(-0.00158667 -0.00173083 -0.00453476)
(-8.73574e-06 -1.03958e-05 -0.00377197)
(-0.00122941 0.00196943 -0.0045212)
(1.03776e-05 -9.36052e-08 -0.00374957)
(9.20728e-07 -4.42505e-06 -0.00354764)
(1.3403e-05 -2.89452e-06 -0.00355983)
(-1.28489e-06 -0.000114191 -0.00316489)
(2.63605e-05 2.58558e-05 -0.0036902)
(0.000101768 0.000159382 -0.00358209)
(9.41909e-05 0.000173128 -0.00343634)
(0.000171086 7.05036e-05 -0.00400602)
(-5.00229e-05 3.01807e-05 -0.0039769)
(2.70339e-05 9.97052e-05 -0.00393575)
(0.000712472 7.06188e-05 -0.00397221)
(0.00113209 -9.09217e-05 -0.00308461)
(0.000944187 0.00147204 -0.00502637)
(0.000319142 0.000471914 -0.00278385)
(0.00143553 0.000102618 -0.00373703)
(0.000571416 0.000352284 -0.00396768)
(0.000267929 7.52068e-05 -0.00387753)
(7.99085e-05 2.26001e-05 -0.00389373)
(5.11444e-05 1.57631e-05 -0.0040062)
(-2.31518e-05 5.26233e-06 -0.00394583)
(-1.47692e-05 2.9579e-06 -0.00393383)
(1.47141e-05 4.1438e-06 -0.00401215)
(2.40348e-05 4.03152e-06 -0.00389353)
(-0.000225273 -0.00111767 -0.00415723)
(-3.45536e-06 1.20411e-06 -0.00365446)
(0.000259677 0.00114073 -0.00411377)
(-0.000239763 -0.00112765 -0.0041277)
(0.00187573 0.00123122 -0.00466441)
(-0.00190012 -0.00122472 -0.00465957)
(0.00188703 0.00124338 -0.00467689)
(-0.00193741 -0.00122706 -0.00464656)
(-0.00127077 0.00201749 -0.0045409)
(-0.0016272 -0.00174384 -0.00453245)
(4.51561e-06 3.26522e-06 -0.00379492)
(0.00120239 -0.00200212 -0.00454375)
(0.00156849 0.00176623 -0.00455554)
(-0.00160082 -0.00174552 -0.00453899)
(5.88048e-07 -2.14959e-07 -0.00378895)
(-0.00123701 0.00199912 -0.00453669)
(1.79938e-05 3.9026e-06 -0.00374048)
(7.97735e-06 4.02364e-06 -0.00354753)
(2.02333e-06 -4.62579e-07 -0.00354657)
(1.38593e-06 -1.15443e-05 -0.0031506)
(3.46634e-06 -5.54097e-06 -0.00367811)
(6.1575e-06 1.73559e-05 -0.00363798)
(9.7803e-06 1.25701e-05 -0.00348287)
(7.87062e-06 2.28589e-06 -0.00367753)
(2.10338e-05 5.39005e-05 -0.00355641)
(3.20467e-05 3.86449e-05 -0.00341465)
(0.000305422 0.00116551 -0.00410264)
(-5.32116e-06 5.66478e-06 -0.00365061)
(-1.98968e-06 -5.36398e-05 -0.00315399)
(-9.80505e-06 -4.6188e-06 -0.00397907)
(1.69102e-06 -7.80258e-05 -0.00399719)
(4.07571e-06 1.00487e-05 -0.00395256)
(-4.03221e-05 0.000774467 -0.00395171)
(9.36022e-05 0.0014789 -0.00372872)
(-0.00107912 0.00271849 -0.00361957)
(-2.69488e-06 0.000284926 -0.00359403)
(1.48351e-05 -4.13391e-05 -0.00315735)
(7.09765e-07 -1.92106e-05 -0.00393511)
(-1.46082e-05 -7.3751e-05 -0.00388382)
(0.00164981 -0.00150184 -0.00444794)
(-2.75339e-07 6.56018e-06 -0.00375185)
(-0.00172438 0.0013975 -0.00455685)
(0.00166664 0.00127192 -0.00454882)
(-0.00168255 -0.00140369 -0.00452087)
(-5.92034e-06 -1.03128e-05 -0.00377771)
(0.00172243 -0.00147971 -0.0045134)
(2.65256e-08 1.09512e-05 -0.00373431)
(-0.00174714 0.00144553 -0.00454049)
(0.00169723 0.00134117 -0.00453585)
(-0.00169951 -0.00139908 -0.00452934)
(-2.4618e-06 -3.08525e-06 -0.00379218)
(0.00174432 -0.00147943 -0.00452529)
(1.00338e-06 9.49111e-06 -0.00372825)
(-0.0017545 0.00145841 -0.00453829)
(0.00171028 0.00136672 -0.00453851)
(-0.00170576 -0.00140838 -0.00452922)
(1.19552e-07 9.42686e-07 -0.00379896)
(0.00175454 -0.0014922 -0.0045288)
(1.90395e-06 2.52722e-05 -0.00372425)
(-0.00176316 0.00145444 -0.00454162)
(0.00172267 0.00137071 -0.00454587)
(-0.00170658 -0.00143216 -0.00452357)
(2.58507e-06 3.48016e-06 -0.00380476)
(0.00176113 -0.00152169 -0.0045286)
(1.58408e-06 7.10358e-05 -0.00371848)
(-0.00177433 0.0014312 -0.00454545)
(0.0017371 0.00136081 -0.00455861)
(-0.00169681 -0.0014639 -0.00450998)
(6.20746e-06 7.3127e-06 -0.00380827)
(0.00175898 -0.00156301 -0.00452755)
(-3.367e-06 0.000172904 -0.00370938)
(-0.00177676 0.00137738 -0.00453548)
(0.00174365 0.00133911 -0.00456655)
(-0.0016544 -0.00147954 -0.00449843)
(9.85056e-06 1.54542e-05 -0.00379361)
(0.00171431 -0.001578 -0.00453063)
(-1.51126e-05 0.000385638 -0.00368911)
(-0.00174344 0.0012889 -0.00444977)
(0.00171878 0.00128881 -0.0044925)
(-0.000943302 -0.000248121 -0.00393274)
(-1.14749e-06 -3.57094e-05 -0.00387023)
(0.000936673 -0.000287312 -0.00393337)
(-5.7468e-05 0.00339276 -0.00320934)
(-0.000119567 -0.00151556 -0.00330567)
(-0.000125615 -0.0015475 -0.0031767)
(-0.000131153 0.00250656 -0.00300973)
(-0.00164335 0.000651672 -0.0043125)
(0.000410003 0.000270622 -0.00307218)
(0.00036486 -0.00233983 -0.00414681)
(-0.000139917 -0.000482293 -0.00340973)
(-0.000288352 -0.000282278 -0.0032672)
(-0.000143766 0.00120224 -0.00426902)
(-0.00187663 -0.00125508 -0.00437707)
(0.000395336 -2.19029e-05 -0.00367982)
(-0.000480186 2.61997e-05 -0.00388097)
(-0.000804674 -0.000157206 -0.00388079)
(-0.00029484 -0.000189084 -0.00391126)
(-0.000230872 -1.94328e-05 -0.00399112)
(-0.000241698 5.01656e-05 -0.0039139)
(-0.000102952 2.90607e-05 -0.00392238)
(-4.60281e-05 1.18051e-05 -0.00401671)
(7.62997e-06 -1.54196e-05 -0.00390509)
(-1.91243e-06 6.9324e-06 -0.00401533)
(-3.73288e-05 1.11195e-05 -0.00392827)
(-4.66266e-05 3.27762e-06 -0.00390002)
(-2.73597e-05 3.6616e-07 -0.0039101)
(-5.30081e-05 -2.99568e-06 -0.00392587)
(-0.000105117 -1.03e-05 -0.00395946)
(1.85587e-05 -1.97881e-05 -0.0039117)
(0.0008367 -6.8616e-05 -0.00391506)
(0.000981079 -3.67623e-05 -0.00297885)
(0.000962105 0.000957288 -0.00406861)
(0.00110851 -0.000957699 -0.00360113)
(0.00137088 1.15138e-05 -0.00374518)
(0.00130516 6.175e-06 -0.0037627)
(0.00102083 -0.000972749 -0.00383513)
(0.00102755 0.00095845 -0.00396282)
(0.000670417 -2.26857e-06 -0.00459083)
(-0.000596203 3.98325e-06 -0.00346097)
(0.000192451 -4.33411e-06 -0.00426444)
(-6.99569e-05 -7.26017e-05 -0.00421083)
(-4.89955e-05 -4.60084e-05 -0.0042562)
(0.000174677 0.0001738 -0.00431903)
(-0.000519793 1.88397e-05 -0.00338363)
(-1.41705e-06 0.000200005 -0.00425075)
(-8.17675e-07 -7.09391e-05 -0.00426601)
(-1.68002e-06 -8.69843e-05 -0.00424575)
(1.31641e-07 9.78104e-08 -0.00459519)
(-0.000328353 0.000320371 -0.00310522)
(-0.000374084 -0.000372399 -0.00312564)
(-0.000370735 0.000373893 -0.00312012)
(-0.000332373 -0.000319176 -0.00311516)
(0.000329494 -0.000323109 -0.00310515)
(-0.000279704 -0.000276215 -0.00309416)
(1.03806e-05 1.03047e-05 -0.00460213)
(0.00037244 0.000370772 -0.00311512)
(-0.000321391 0.00033367 -0.00311185)
(-0.0003227 -0.000333068 -0.00311294)
(1.02992e-05 -9.9259e-06 -0.00460239)
(0.000371073 -0.000373578 -0.00312032)
(-2.1842e-08 -1.56001e-08 -0.00462167)
(5.98194e-08 5.84786e-08 -0.00462709)
(1.6415e-07 2.37369e-05 -0.00461749)
(1.82883e-07 6.73241e-05 -0.00409654)
(-9.80722e-06 6.02589e-05 -0.00408918)
(1.31509e-05 -0.000133578 -0.00379898)
(-6.72103e-06 2.61356e-06 -0.00374663)
(-3.69597e-06 6.87727e-07 -0.00373683)
(-4.60464e-07 3.94471e-06 -0.00373854)
(2.04576e-06 1.12941e-05 -0.00373947)
(5.0936e-06 2.74069e-05 -0.00373839)
(2.16495e-05 1.18003e-05 -0.00354567)
(1.60011e-05 9.60236e-05 -0.00315146)
(8.70254e-06 -7.54635e-05 -0.00366621)
(3.78316e-05 -8.38478e-06 -0.00362587)
(-1.06491e-05 5.45547e-05 -0.00346729)
(0.000226688 0.00119988 -0.00413707)
(-0.000323449 -0.00109485 -0.0041157)
(0.00191629 0.001264 -0.00471867)
(-0.00197766 -0.00124544 -0.00457356)
(0.00196825 0.00127732 -0.0048173)
(-4.09395e-05 -3.06879e-05 -0.00369473)
(-0.000578216 -0.00113245 -0.0039815)
(-8.64608e-05 3.29538e-05 -0.00339626)
(0.000159284 0.00126909 -0.00417536)
(-1.7143e-05 -4.667e-06 -0.00368698)
(-3.82082e-05 -5.55042e-05 -0.0039139)
(-2.0103e-05 1.14233e-05 -0.00399481)
(-0.000110431 7.87631e-06 -0.00388995)
(-0.00023109 1.56992e-05 -0.00387969)
(-0.000460815 1.859e-05 -0.00388458)
(-0.00105303 -1.33832e-05 -0.0040285)
(-0.00107661 -0.000188022 -0.00397561)
(-0.0026828 0.000644383 -0.00391529)
(-0.00126637 -0.000287454 -0.00371797)
(-0.00110732 -0.00123613 -0.00356154)
(-3.76824e-05 -0.000156667 -0.00359485)
(-0.000436595 -0.000148867 -0.00373837)
(0.000343143 -0.00243529 -0.00294985)
(-0.00216804 -0.000671314 -0.00323038)
(-0.00129549 8.56139e-05 -0.00437027)
(-0.000605935 -0.000982349 -0.00395793)
(0.00098212 0.000726303 -0.00414538)
(7.91184e-05 3.33837e-05 -0.00424985)
(5.12913e-05 4.11452e-05 -0.00281481)
(-0.00102703 0.000879194 -0.00351359)
(0.00108693 0.000737522 -0.00370588)
(6.38527e-06 0.000103387 -0.0043791)
(-0.000128559 -8.24523e-05 -0.00291723)
(-0.00112836 0.000977992 -0.00366031)
(0.00109219 0.00087891 -0.00372639)
(1.90927e-06 0.000111465 -0.00440021)
(-0.000143341 -9.93648e-05 -0.00292896)
(-0.00110115 0.000887429 -0.0036143)
(0.00108857 0.00100232 -0.00377016)
(9.38297e-06 0.000103886 -0.00438387)
(-0.000234963 -0.000229088 -0.00298419)
(-0.00105065 0.000736068 -0.0035709)
(0.000776153 0.00102353 -0.00399099)
(-0.000618333 -0.000354627 -0.00545203)
(0.000506468 0.000533597 -0.0040694)
(0.000383933 -0.000465232 -0.00397089)
(0.00113351 0.000497239 -0.00499255)
(-0.000532592 -0.00196342 -0.00483942)
(-0.000308259 -0.00106639 -0.00394132)
(0.000168452 0.000192844 -0.00298238)
(0.000682459 -0.000484593 -0.00429635)
(-0.00223289 0.0010559 -0.00403934)
(-0.00012435 -6.36667e-05 -0.00378253)
(-0.00130741 -0.00173094 -0.00382947)
(0.00113904 0.000913192 -0.00379994)
(0.00104923 -1.82424e-05 -0.00286148)
(0.0010014 -0.00108451 -0.00392114)
(0.00125716 -0.00107208 -0.00440126)
(0.000608002 -0.00155866 -0.00315595)
(0.000138162 0.000656004 -0.00421968)
(0.00048578 -0.000857197 -0.00324325)
(0.000734635 -0.000548862 -0.00336285)
(0.00121398 0.000953726 -0.00454326)
(-0.000565603 -0.00197857 -0.00431054)
(0.000116678 -0.000221862 -0.00348971)
(0.00090083 0.00139182 -0.00457329)
(-0.000775606 -0.00171345 -0.00444021)
(8.90184e-07 -4.38585e-05 -0.00358361)
(0.000788367 0.00149133 -0.00454556)
(-0.000799353 -0.00156927 -0.00449576)
(-1.00236e-05 3.46831e-06 -0.00359376)
(0.000764953 0.00150331 -0.0045312)
(-0.000781583 -0.00151285 -0.00451103)
(-5.86992e-06 7.79832e-06 -0.00360013)
(0.000760272 0.00149663 -0.0045225)
(-0.000773378 -0.00149782 -0.00451601)
(-5.14675e-06 8.53289e-06 -0.00359773)
(0.000757901 0.00149574 -0.00452097)
(-0.000778364 -0.00149431 -0.00451642)
(-1.08818e-05 2.30751e-05 -0.00360473)
(0.000732354 0.00150369 -0.00451326)
(-0.000821721 -0.00148481 -0.00451908)
(-6.48042e-05 9.20366e-05 -0.00354463)
(0.000621837 0.00155112 -0.00449877)
(-0.00095156 -0.00133044 -0.00445429)
(-0.000354393 0.000374363 -0.00345578)
(-1.53527e-05 0.00129051 -0.00428938)
(-0.0012818 -0.000720617 -0.00363948)
(-0.000793618 0.00136923 -0.00418766)
(0.000463043 0.00154648 -0.00396404)
(-0.00126287 -0.00191772 -0.004231)
(0.00139721 0.00163651 -0.0049235)
(-0.00148288 -0.00192473 -0.00481037)
(4.1637e-05 4.42452e-05 -0.00360896)
(-0.00155397 0.000963174 -0.00466968)
(0.00160307 -0.00147369 -0.00356988)
(-2.43533e-05 0.000665403 -0.00448017)
(-0.000924354 0.000771418 -0.00410954)
(5.90331e-05 0.000835126 -0.002962)
(0.00091104 0.00110793 -0.00379767)
(-0.000901229 0.000952873 -0.00393323)
(3.19532e-06 0.000669627 -0.00458021)
(5.32477e-06 0.00129011 -0.00375095)
(1.56261e-06 0.000768281 -0.00394016)
(1.25548e-06 -6.38549e-06 -0.00394526)
(1.93655e-06 -0.000111885 -0.00398634)
(1.79445e-06 -6.26761e-05 -0.00395081)
(5.89651e-07 -3.92809e-05 -0.00396099)
(1.30822e-06 -2.3693e-05 -0.00394734)
(3.48076e-06 -4.62103e-05 -0.00393862)
(5.09603e-06 -2.43483e-05 -0.00367632)
(1.53473e-05 6.94906e-06 -0.00356809)
(2.25975e-06 2.47422e-05 -0.0034245)
(0.000246118 0.00114583 -0.00415092)
(-0.00025882 -0.00111045 -0.0041538)
(-7.47109e-06 2.54282e-08 -0.00366613)
(-1.85356e-06 1.93465e-06 -0.00365643)
(1.05113e-05 4.3528e-07 -0.0038978)
(1.11796e-06 9.73098e-08 -0.00396367)
(0.00121187 -0.00199473 -0.00454236)