/*--------------------------------*- C++ -*----------------------------------*\
| =========                 |                                                 |
| \\      /  F ield         | OpenFOAM: The Open Source CFD Toolbox           |
|  \\    /   O peration     | Version:  2306                                  |
|   \\  /    A nd           | Website:  www.openfoam.com                      |
|    \\/     M anipulation  |                                                 |
\*---------------------------------------------------------------------------*/
FoamFile
{
    version     2.0;
    format      ascii;
    arch        "LSB;label=32;scalar=64";
    class       volScalarField;
    location    "1.7";
    object      gradTx;
}
// * * * * * * * * * * * * * * * * * * * * * * * * * * * * * * * * * * * * * //

dimensions      [0 -1 0 1 0 0 0];

internalField   nonuniform List<scalar> 
5322
(
-0.251602
0.00572138
0.00697893
0.000796517
-0.000131003
-0.000170318
5.60439e-06
0.000132989
8.13207e-05
-0.000205585
-0.00100649
0.0109907
0.0169312
-0.233191
-0.00617806
0.405837
-0.318901
-0.00503274
-0.243311
0.156838
-0.213235
0.185458
-0.196161
0.197218
-0.199764
0.191878
-0.192289
0.199463
-0.196487
0.196519
-0.18648
0.211821
-0.159135
0.242493
0.00344286
0.3043
0.214538
-0.0855538
0.240481
-0.0138072
-0.228067
0.229352
-0.0138836
-0.244015
0.2425
-0.00834339
-0.259362
0.226492
-0.00572537
-0.271831
-0.268171
-0.389459
-0.121649
0.261179
-0.0166514
-0.431293
-0.0122523
0.412188
-0.00494454
-0.411885
-0.00177527
0.401422
-0.00231834
-0.404565
-0.000145512
0.395272
0.00501869
-0.400648
0.017248
0.328097
0.0130229
-0.350233
0.396836
-0.410719
0.395385
-0.402638
0.403425
-0.402583
0.458294
-0.330191
0.161796
-0.213735
-0.138203
0.239977
0.0249445
-0.136033
0.158948
-0.427956
-0.161513
0.510084
-0.0219284
0.00955138
0.0176223
0.0795842
0.365824
-0.0850573
-0.010395
-0.0419394
0.163887
-0.379483
-0.379883
0.848892
-0.0412313
0.282165
0.459277
-0.00571925
0.00277184
0.00379319
0.00230135
0.00112859
0.000448822
-0.000118975
-0.00117804
-0.00289293
0.00455253
-0.00153469
-0.133993
-0.132208
0.013995
0.0842658
0.00478658
0.128558
-0.15377
-0.0115212
-0.0354152
0.238381
0.196092
0.0545325
0.153319
0.0991133
0.0753696
0.16461
0.0831122
0.089165
0.167476
0.0727613
0.140317
0.190377
0.215811
0.0092708
-0.158191
0.00872231
0.105379
-0.127665
-0.136966
0.0195796
0.0565982
0.0311434
-0.107193
-0.117812
0.0220439
0.0350967
0.042298
-0.116256
-0.110306
0.0222267
0.0230736
0.0669693
-0.127599
0.166488
-0.358889
-0.48106
0.414602
-0.485516
-0.0203297
-0.334067
0.00268324
0.325674
-0.0782176
0.388159
0.192417
0.286926
-0.429996
0.167792
-0.370503
0.246484
0.321354
-0.393046
0.00880667
-0.334165
0.294113
0.366101
-0.389068
-0.00241926
-0.326092
0.310357
0.379162
-0.388611
-0.000766686
-0.324276
0.315889
0.383632
-0.390863
6.55062e-05
-0.326301
0.315411
0.384442
-0.396585
0.000449482
-0.331919
0.310327
0.382452
-0.405342
0.00103466
-0.339056
0.300415
0.37719
-0.412304
0.00243986
-0.340842
0.282166
0.352254
-0.0769026
0.156571
-0.376689
-0.38414
0.854113
-0.0293474
-0.0321571
0.0197165
0.0858987
0.363459
-0.0671494
-0.00667983
-0.0748549
0.149141
-0.383804
-0.377497
0.849222
-0.0496985
0.282244
-0.0107112
0.00467013
0.00455018
0.00292927
0.00152603
0.00066351
-1.41887e-06
-0.00108845
-0.00262838
0.0045431
-0.00140636
0.106478
-0.118187
0.117772
-0.106976
0.000214187
0.107091
-0.101212
-0.000569126
-0.127483
7.06707e-05
-0.107117
-8.24994e-05
0.10095
0.00396937
0.11906
-0.00972355
-0.128728
0.000421238
0.127304
-0.000131919
-2.21864e-05
0.225494
-0.387595
0.387128
-0.382898
0.403078
-0.412388
0.431278
-0.429981
0.436846
-0.435035
0.43884
-0.437016
0.441188
-0.437809
0.444309
-0.436857
0.445988
-0.428288
0.439468
-0.235477
0.00495591
0.237687
0.00640636
-0.428721
0.416836
0.00216145
-0.433219
0.426899
0.00146697
-0.431864
0.428249
0.000971716
-0.429115
0.427259
0.00067452
-0.426745
0.425175
0.000703563
-0.424
0.420602
0.00113092
-0.416707
0.405769
0.00128644
-0.387583
0.000227845
0.387449
-0.406024
-0.0018246
-0.402481
0.382317
-0.000718411
-0.227417
-0.0147774
0.231324
-0.401402
0.387568
-0.408146
0.410005
-0.417368
0.416901
-0.418857
0.419952
-0.419405
0.423567
-0.419347
0.429031
-0.416182
0.434439
-0.401618
0.431208
-0.232052
-0.0498077
0.100924
0.0127353
-0.40023
0.360207
0.00505111
-0.394342
0.381153
0.000726744
-0.38236
0.380793
-0.000466829
-0.377713
0.378116
-0.000660522
-0.376417
0.377385
-0.0019212
-0.375319
0.377981
-0.00487043
-0.370172
0.373004
-0.0112468
-0.344578
0.315498
0.00680235
-0.11434
0.194599
0.320001
0.0102024
0.0398225
-0.0585002
0.163724
-0.505031
0.3832
-0.480535
-0.323578
-0.400081
0.0103917
0.263453
0.291387
-0.419514
0.162238
-0.376492
-0.0279804
0.0201724
-0.1524
0.0130389
-0.00615328
-0.161688
0.0164921
-0.0261101
-0.381992
-0.414291
0.298907
-0.387611
0.00498016
0.353648
-0.385507
0.372301
-0.385849
0.00273436
0.379216
-0.38875
0.380518
-0.394938
0.014772
0.377853
-0.40227
0.37028
-0.403484
0.0833426
0.0194898
0.0125051
0.0131569
0.00633225
0.0155201
0.390558
-0.412785
0.00320348
-0.334809
0.27585
0.384576
-0.40497
0.00725676
-0.355558
0.247185
0.494017
-0.0581542
0.0093236
-0.411901
-0.380108
0.803754
-0.0498864
0.0133783
0.0225147
-0.245279
0.0561304
0.192854
-0.199606
0.0164092
0.207011
-0.18778
0.002607
0.20153
-0.192699
-0.000350842
0.19273
-0.18704
-0.00498377
0.200608
-0.180912
-0.0122706
0.211558
-0.142345
-0.0205344
0.250103
0.0949696
0.0702373
-0.0184691
-0.00961585
0.0984635
-0.0432943
0.443501
-0.473855
0.463061
-0.472851
-0.306131
-0.396961
-0.000924889
0.302994
0.3823
-0.396667
-0.00218394
-0.307352
0.00259441
0.000230182
0.00335076
-0.000321222
0.00659012
0.025442
0.0235477
0.0427714
-0.0125057
0.00675848
0.178118
0.283023
0.236047
0.0797854
0.358881
0.142854
0.0669823
0.0199771
0.0127861
-0.00578795
-0.0036923
0.00367852
0.00600869
-0.0563183
-0.000863839
0.0649192
-0.0599408
0.468933
-0.475031
0.471758
-0.484353
-0.317693
-0.406799
0.0011289
0.300596
0.392122
-0.400205
0.000147012
-0.309252
0.00449844
0.00199434
0.000505834
0.000346482
0.000866584
0.00153937
0.00244508
0.00196766
0.00525845
0.00801167
0.0763555
-0.00133029
-0.00049742
-0.00245126
0.000422754
0.00101893
-0.0100805
0.0234006
-0.269779
-0.000673719
0.00370878
0.000177441
-0.00365205
0.412453
-6.88347e-05
-0.431094
0.41666
-0.420637
-0.00148009
0.430608
6.63139e-06
-0.436785
0.424307
-0.424876
-0.00061545
0.436081
0.000250846
-0.438624
0.427571
-0.426439
2.98881e-05
0.438635
0.000475987
-0.440791
0.430669
-0.426645
0.000646269
0.440283
0.000396019
-0.443581
0.434276
-0.424203
0.00155187
0.439745
-0.000841749
-0.444191
0.435912
-0.413601
0.00246264
0.428577
-0.00377815
-0.435861
0.429696
-0.235826
-0.000286873
0.234168
-0.014367
-0.0298916
-0.0314036
-0.0327883
-0.410838
0.102501
0.091215
-0.0349792
-0.072088
-0.0359416
-0.469157
0.0988339
-0.120047
-0.201169
-0.07371
-0.0577181
-0.0604244
-0.025738
-0.011507
0.00190749
-0.000478108
-0.00933221
-0.0116567
-0.00683993
-0.013252
-0.0262794
0.00463967
0.209175
0.24527
0.240526
0.277127
0.342721
0.32629
0.255208
0.256888
0.167604
-0.149051
0.0481128
-0.0174892
-0.0122489
0.0436693
-0.129948
-0.000354262
-0.000204419
-0.000420005
3.29102e-05
-0.0820883
-0.093521
-0.0926837
-0.0830932
0.0823734
-0.0699261
0.00259516
0.09311
-0.0803477
-0.080675
0.0025748
0.0927683
-5.46049e-06
1.49549e-05
4.10375e-05
4.57208e-05
-0.0024518
0.00328771
-0.00168026
-0.000923994
-0.000115116
0.000511439
0.0012734
0.00541238
0.00400027
0.00217563
0.00945789
-0.00266228
0.0566721
-0.0808624
0.479072
-0.494415
0.492063
-0.0102349
-0.144554
-0.0216152
0.0398209
-0.00428574
-0.00955206
-0.00502576
-0.0276079
-0.0577726
-0.115204
-0.263258
-0.269152
-0.670701
-0.316592
-0.276831
-0.00942059
-0.109149
0.0857858
-0.542011
-0.323873
-0.151484
0.24553
0.0197796
0.0128228
-0.256758
0.271732
0.00159632
-0.0321399
-0.282089
0.273048
0.000477318
-0.0358353
-0.275288
0.272143
0.00234574
-0.0587408
-0.262661
0.194038
-0.154583
0.126617
0.0959833
0.283378
-0.133148
-0.0770648
0.0421129
0.170615
-0.558223
-0.0310874
-0.326853
0.28476
0.262307
0.250349
0.31429
0.152
0.0345405
0.121445
0.183659
0.303496
-0.141401
0.0291695
0.225207
-0.193902
0.000222546
0.197092
-0.199838
-0.00250589
0.191238
-0.195396
-0.00146748
0.190068
-0.193344
-0.00128669
0.189475
-0.194591
-0.00272045
0.183089
-0.20543
-0.0162011
0.155459
-0.23789
-0.0885983
-0.00383818
-0.320449
-0.198404
0.115761
-0.315718
0.349303
-0.370719
0.0104093
-0.388492
0.400768
-0.00608832
-0.231088
0.0147583
0.22776
-0.225307
0.000798831
0.00133119
0.000390653
0.00031387
0.000484137
0.000448612
0.000147413
0.000327054
0.000870189
0.00127401
0.00383683
0.000564937
0.0615296
-0.0647051
-0.00186777
-0.00046339
0.00262783
0.000279491
0.302969
0.390244
0.00253968
-0.323258
0.316142
0.000193557
-0.325525
0.314777
0.0005831
-0.332233
0.308872
0.0011955
-0.342355
0.298111
0.00243437
-0.349343
-0.0153944
-0.0122977
-0.0661964
-0.0657797
-0.106422
-0.051624
-0.0252654
-0.0113096
-0.00755237
-0.0150349
-0.027845
0.00179885
0.204062
0.237117
0.230244
0.326859
0.195638
0.00218147
-0.0221831
-0.0116148
-0.00599866
-0.00945107
-0.0221785
-0.0477449
-0.0990113
-0.232787
-0.24781
-0.441199
-0.332103
-0.104597
-0.105373
0.224623
0.0263395
-0.0275508
-0.0219024
0.111232
0.0046045
-0.0886105
-0.0848048
0.0878813
-5.48012e-05
-0.0980057
-0.0938004
0.0768972
-0.000400242
-0.121839
-0.116253
0.0371975
-0.154103
0.0980162
0.0950218
0.0994565
0.0864886
-0.13527
0.00948434
0.0501287
-0.153233
0.0367938
-0.148015
0.173956
-0.40271
-0.0216487
-0.387514
0.263083
0.270949
0.271327
0.266267
0.261456
0.264706
-0.419224
-0.0253761
-0.378198
0.271166
0.290372
0.272343
0.286619
-0.0213977
-0.403261
-0.400727
0.174362
0.272328
0.240449
0.238096
0.296435
0.283847
0.22758
0.069268
0.151403
0.0616726
-0.0327781
0.0760012
0.0116196
-0.0554345
0.0576512
0.00249745
-0.0572349
0.0567979
0.000343185
-0.058374
0.0560887
-0.00016833
-0.0566457
0.057838
-0.00077439
-0.0581542
0.056035
-0.00385326
-0.0609173
0.0531621
-0.0142078
-0.081107
0.0310793
-0.0645374
-0.15672
-0.0748046
-0.232669
-0.280342
-0.286118
-0.19268
-0.14163
-0.217753
-0.00917373
0.15923
-0.120305
0.0116926
0.131997
-0.131642
0.00555741
0.137571
-0.141096
-0.00466858
-0.00948415
-0.24468
-0.000781351
-0.396802
0.000465949
-0.393197
0.0021065
0.411381
-0.417564
0.000495365
-0.414283
0.00484509
0.420451
-0.381202
6.66845e-05
0.381761
0.00199335
-0.381272
7.28215e-05
0.381718
0.00130962
-0.381423
0.000104761
0.38149
-0.000687319
-0.381654
0.000187435
0.381428
-0.00103383
-0.381809
0.000540036
0.381685
-0.00571032
-0.378017
0.00275426
0.37814
-0.00768431
-0.00841743
-0.471609
-0.340877
0.00780709
0.43956
-0.00286407
-0.467044
-0.324008
0.00644406
0.456861
-0.000922871
-0.464812
-0.319373
0.00241584
0.46137
-0.000680444
-0.463843
-0.316935
0.000160485
0.464069
0.000666401
-0.461395
-0.315387
-0.0019709
0.465338
0.000790679
-0.457107
-0.312653
-0.00551269
0.468774
0.00304609
-0.439053
-0.304878
-0.00583853
0.476435
0.0106819
-0.381765
-0.269879
0.0250482
0.502619
0.0607092
-0.0434743
0.116176
-0.198963
-0.321699
-0.00326313
-0.0900247
0.00139997
0.275825
-0.0227748
0.00386655
-0.232442
0.00103852
0.3978
-0.388897
-0.002436
-0.391604
0.0109158
-0.375781
-0.000733924
0.377904
0.00847582
0.00307727
0.000781117
0.00451221
0.409238
0.00280997
-0.00349805
-0.101724
-0.000283318
0.109948
-0.000151844
0.000360936
0.000495953
-0.0175144
-0.0202438
-0.0145106
-0.158583
0.0159572
-0.0259925
0.00244159
0.0027885
0.00493063
0.359983
0.297087
0.00171024
-0.00326162
-0.0135132
-0.0161628
0.263759
0.00970407
-0.335959
0.300897
-0.00221797
-0.325604
0.31258
-0.000693915
-0.000706142
0.00114528
0.00415234
0.00129455
0.00275225
0.00569709
0.00271634
0.00138882
0.00117993
0.00459334
0.000363024
0.00100441
0.00246663
-0.333026
0.293035
0.464681
-0.47986
0.472996
-0.478381
-0.00116321
-0.376925
-0.00361994
0.380324
-0.00470643
-0.374205
-0.0120148
0.392205
0.0234367
0.0293645
-0.267495
-0.000911903
0.287223
-0.301334
-0.000694523
-0.496445
-0.000946819
0.494606
-0.433723
-0.000193957
-0.439004
0.000123533
0.438862
-0.433767
-5.50847e-05
-0.430878
-5.64287e-05
0.430881
-0.443245
-0.000227627
-0.421875
-0.00133998
0.420919
-0.420039
-0.00376934
0.416223
-0.41017
-0.00776337
-0.00984431
-0.00227726
-0.000987446
-0.000137745
0.00014693
0.000439765
0.00129029
0.00266787
-0.00462083
0.00121144
-0.106586
0.118397
-0.117035
-0.109498
0.00109604
0.000657594
-0.00227747
0.00641309
0.103842
0.000944792
-0.00123638
-0.00966738
0.0126583
-0.0110885
-0.155325
0.0151779
-0.0329224
0.232863
0.0112591
-0.01115
-0.00941278
0.00619377
9.06292e-05
0.0796324
0.080686
-0.00243292
0.0688278
0.10647
-0.00183897
-0.00231919
-0.00239051
-0.000821527
0.00823864
-0.12379
0.316691
0.0184525
-0.472588
-0.00302149
0.47847
-0.41985
-0.00209995
-0.433319
-0.000213884
-0.42764
-0.000175901
-0.428976
0.00093977
0.429777
-0.440895
0.000185914
-0.421788
0.000625348
0.422248
-0.422021
-0.000404187
0.422093
-0.000273376
8.87592e-05
0.000457196
0.00116011
0.00189532
0.00251711
0.000135921
-7.5612e-05
-0.00255877
-0.00243921
-0.00920605
-0.0115882
-0.00242976
-0.00249693
3.99325e-05
5.25153e-05
0.000308102
0.000128961
0.000330164
0.000261385
0.000336473
0.00040412
0.00038086
0.000259455
0.00156205
0.00190433
0.00249187
0.00907958
-0.000513193
0.0641819
-0.330257
-0.0835596
-0.000115146
-0.0312182
0.141849
-0.144763
-0.470821
-0.170431
-0.00274216
0.0411901
-0.000215311
-0.33358
-0.141363
-0.0934817
0.213443
0.0257617
-0.0235856
-0.0413652
0.12039
0.00438131
-0.0823669
-0.102539
0.103031
0.000229971
-0.0910681
-0.108075
0.0955431
0.000562414
-0.117092
-0.122488
0.0257557
-0.0070748
0.00114314
0.00145642
0.412011
-0.372562
0.00250454
0.385695
-0.0140245
0.010341
-0.48734
0.00178134
-0.302579
0.310275
-0.00262194
-0.294633
-0.513122
0.443871
-0.0278615
0.0449503
0.166822
0.00175711
0.358976
0.266726
0.300287
-0.398843
0.00468177
-0.337883
0.0106441
-0.37411
0.00804202
-0.358442
0.0105316
-0.360219
0.00908335
-0.384411
0.279975
0.273745
-0.0192669
-0.48205
-0.387597
0.171166
-0.119058
0.149369
0.083897
0.099693
-0.146345
0.0412453
0.0312965
-0.157927
0.0623414
0.114326
-0.136959
0.214622
-0.11498
0.0179061
-0.127192
0.0221584
-0.138733
-0.108722
0.0212857
-0.00880043
-0.00201582
-0.00138265
-0.000303063
0.000315621
0.000385782
0.000521349
0.0012664
0.00260809
-0.00467754
0.00131224
-0.0696755
0.0822651
0.000599315
0.0165979
0.0119104
0.00959659
-0.119744
-0.00878438
0.127963
-0.105339
-0.0576696
0.129803
-0.141413
-0.193229
-0.218093
0.153791
0.158803
-0.00951619
-0.0133845
-0.043362
0.0050424
0.1628
-0.0296051
-0.0381372
-0.0215055
0.116536
0.116619
-0.0383131
-0.0293336
0.149818
-0.0822593
-0.174166
-0.0826914
0.160383
-0.0160779
-0.017056
-0.0208388
-0.00553237
0.00172028
0.275424
-0.0232479
0.010594
-0.000450519
0.000349319
0.000570461
0.000351638
-4.88144e-05
-0.000708123
-0.00177559
-0.000244249
-0.00126099
0.000332852
-0.0112363
-0.00419306
0.0061303
-0.0157873
-0.00758745
-0.00749363
-0.209459
0.201293
-0.00575987
-0.00471827
0.00981405
-0.0048374
-0.00447853
0.0340759
0.0709863
0.0363117
0.253144
-0.127443
0.0163164
0.132975
0.167902
-0.0666261
0.0066609
-0.00242337
0.0110292
-0.00269354
0.00127831
-0.0192121
-0.00381059
0.000139378
6.64309e-07
-0.000517961
-0.00120192
-0.000826699
-0.00208469
0.00147598
0.00281472
0.000608715
-0.00530159
-0.00111811
-0.000240999
-0.000210472
-0.000378137
0.000558824
0.00754784
0.00234634
0.00387433
0.00221942
0.000844491
2.15206e-05
0.000761284
0.000804736
0.00169835
0.00298071
-0.410519
0.373302
-0.375617
0.376456
-0.376021
0.0019266
-0.416375
0.416365
0.00444157
0.00293527
0.00181492
0.00080375
0.407306
0.00246019
-0.00378887
0.128904
-0.0027791
0.00240734
0.0115609
-0.0190018
0.136423
0.107131
-0.0473776
0.0188432
-0.000401486
-0.000170216
0.069937
-0.00240712
-0.000142246
0.0493463
-0.149283
0.0432852
0.00051929
0.0173348
0.0126828
0.00134983
-0.0132426
0.00536709
0.0116616
-0.047477
-0.0435999
0.136891
-0.057806
-0.105234
-0.0191688
0.129266
-0.00861245
0.0116453
0.00930507
-0.00648275
-0.000352635
0.00254574
0.00930518
-0.00368135
-0.00407314
-0.00108578
-0.000637066
-0.00018567
0.001174
0.000746282
0.000633193
0.00042263
0.418331
-0.418571
0.376672
-0.377027
0.37735
-0.37888
0.00182583
-0.420707
0.419316
0.00136187
0.000558601
3.14085e-05
-0.000368935
0.000540061
-0.00107097
0.000549222
0.000239425
0.000439392
0.000337619
0.000646442
0.000218304
0.000681178
0.00201152
0.0112555
0.0101944
0.0366165
0.00173969
0.000742836
0.000140669
-0.000759461
-0.00272153
-0.00113631
-0.00114037
0.000127081
-0.000263601
-0.000206889
0.000243543
0.000270911
0.000262527
1.71649e-05
-0.00109908
-0.00291902
-0.00305467
-0.00118922
1.5568e-05
0.000110621
0.000196019
0.000302237
0.000414077
0.00073307
0.00063113
0.00058718
0.00130366
0.001111
0.000607499
0.001768
0.00339331
0.00138859
0.002053
0.0491098
-0.0100241
0.00442195
0.00143438
0.00537015
0.108562
-0.00505324
-0.0156778
0.077675
0.0233054
-0.333723
-0.116091
-0.254101
0.227734
-0.155029
-0.165995
0.203856
-0.270183
-0.0145433
-0.019781
-0.224601
0.197779
-0.00315577
-0.0110368
-0.00114034
0.00404383
0.00566305
0.0826902
0.0258067
-0.153405
-0.131824
0.250437
0.0249531
-0.0592347
-0.0171896
0.10344
0.00337912
-0.118178
-0.0766141
0.0777983
-0.000279389
-0.123727
-0.0850315
0.0675969
-0.00112164
0.107749
0.103646
0.00620293
0.129558
-0.125947
0.000485428
-0.113809
-0.000633336
-0.00262132
-0.000446251
-3.7589e-05
0.00017829
0.00019748
0.00017225
0.000138587
4.08015e-05
-0.00104986
-0.00285965
-0.00150427
-0.325115
0.310768
-0.000678131
-0.323558
0.316203
0.474821
-0.479657
0.475424
-0.485089
0.000281541
-0.381986
0.00258576
0.378107
-0.000362946
-0.37809
-0.000207613
0.378209
0.00204875
0.00229232
-0.278401
0.000790779
0.282493
-0.304192
0.000448508
-0.496011
0.000438745
0.498278
-0.434492
-0.000155104
-0.437488
0.000462225
-0.432839
-0.000690385
-0.426488
-0.0013168
0.422473
-0.43832
0.000109244
0.419942
-0.00118282
-0.413346
0.412345
-0.00121995
-0.427276
0.431849
-0.417448
-0.000150878
0.000427551
0.00187004
0.00157257
0.000812212
0.000271616
-0.000219495
-0.00108426
-0.00118576
-0.000165882
0.000848955
0.00210521
0.00215796
0.0046601
-0.325351
0.316057
0.000953437
-0.33047
0.31186
0.475208
-0.495879
0.472523
-0.505135
0.0127723
-0.432183
0.0398796
0.376395
0.00244435
-0.396191
0.0114276
0.379567
0.000714802
0.00708655
-0.275258
0.00570543
0.293519
-0.310893
0.00154652
-0.492027
0.00273581
0.497304
-0.425835
-0.00169173
0.416781
0.00379676
-0.471288
0.275148
-0.00111175
-0.317493
0.282055
-0.295463
0.015434
-0.0361045
-0.0180114
-0.0312907
-0.0558573
0.351018
-0.497922
0.107882
-0.0795559
-0.0308994
-0.0117583
-0.00433323
-0.00254171
-0.00414606
-0.00108954
0.0663523
0.684318
0.343101
-0.178135
0.120102
0.061416
0.390547
-0.338745
0.367981
-0.0219155
-0.240067
0.0116463
0.434304
-0.410642
-0.00109762
-0.407554
-0.000104017
-0.412155
-0.000256669
-0.421928
0.00183068
0.425711
-0.435751
0.00042135
-0.420219
0.00172185
0.422102
0.00162217
0.00110131
0.442838
0.00246873
0.437745
-0.000343812
-0.00279712
-0.0052724
-0.0179208
0.00285396
0.240095
0.0166922
0.0208766
0.0827504
0.145422
-0.201092
-0.000568442
-0.298323
0.00103038
-0.493981
-0.00228244
0.491003
-0.430978
-0.000806162
-0.438244
-4.31688e-05
-0.43223
-3.9553e-05
-0.430663
0.000362921
0.43098
-0.442631
-5.45918e-06
0.44286
-6.65354e-05
0.000405657
0.44336
-2.89489e-05
-0.000170174
-0.000863361
-0.00229241
0.426969
-0.00454165
0.402842
0.0240791
0.0123341
0.303897
0.0120538
0.00716832
-0.00053319
0.308759
0.00118237
0.00485488
-0.277744
-0.000363246
-0.30312
-0.000158822
-0.496232
-0.00019387
0.496418
-0.434601
-1.9227e-05
-0.438813
0.000277619
-0.433957
-0.000273228
-0.429965
-0.000576202
0.429239
-0.442941
-0.000446967
0.436591
-0.0009448
-0.000407916
3.08865e-06
0.000142726
0.000229454
0.000426746
0.00125444
0.00235357
0.0012723
0.00125289
0.000624526
0.00110173
-0.00157319
-0.000613144
0.00014125
0.000442723
0.000522132
0.000474224
0.000336337
0.000549059
0.00104306
0.00311236
0.00263889
-0.329774
-0.00857724
-0.323043
0.358855
-0.0073801
-0.340487
-0.34823
0.365799
0.342012
-0.00724427
-0.325024
-0.371209
0.388698
-0.349349
-0.00886642
-0.312508
0.351754
0.369979
0.36458
0.356591
-0.00813533
-0.343999
-0.319449
0.00267026
0.34843
-0.00673173
-0.365046
-0.332921
0.00119708
0.344393
-0.0024673
-0.373369
-0.338871
-0.348192
-0.356324
-0.00280896
0.355385
0.362907
0.00124536
0.337468
-0.00274323
-0.330663
-0.379887
0.386302
0.00115231
-0.305038
-0.458236
-0.00627412
0.316583
0.00214436
-0.29775
-0.440606
-0.0071332
0.334012
0.393395
-0.282922
0.022794
-0.27503
-0.0097151
-0.278757
0.0224685
-0.274195
-0.00966752
-0.279846
0.0235997
-0.279373
0.38865
0.338101
-0.0105601
0.0152552
-0.00138971
-0.208593
-0.250049
-0.236777
-0.262507
-0.249951
-0.251937
-0.258813
-0.212513
-0.328889
-0.260054
-0.237686
-0.249323
-0.168441
-0.0727696
-0.0903274
0.149498
-0.167201
0.393405
0.397765
0.394703
0.396377
0.410844
0.386171
-0.161987
0.130591
-0.0724737
-0.168598
-0.090777
0.162941
-0.0168784
-0.00347934
-0.00348316
-0.00162862
-0.000731203
0.000389627
0.00038597
0.360399
-3.09405e-05
-0.351665
-0.360108
-0.333115
-0.38385
-0.000265168
0.33506
0.384359
0.000474043
-0.307646
-0.463916
-0.00228888
0.312372
0.467155
0.00154333
0.0607996
-0.0596583
-0.000674684
0.0606316
-0.0599879
-7.22644e-05
0.0614186
-0.0594532
0.00218425
0.068021
-0.0535677
0.0128241
0.0951353
0.0338644
0.0189031
0.00625725
0.0029178
0.000471439
-7.08508e-05
-0.000477141
-3.38359e-05
-0.0012559
-0.000914303
-0.00277758
-0.0617163
0.469623
0.00313269
0.0579799
-0.0804498
-0.0126431
-0.0218877
-0.00857866
-0.0526435
0.0363855
0.0109042
-0.383244
0.023691
-0.264566
-0.0107652
0.0157478
0.000678382
-0.167859
-0.285931
-0.278269
-0.232875
-0.0735255
-0.157039
-0.063363
-0.125285
-0.356128
0.0607807
0.502545
0.383736
0.413353
-0.161576
-0.344059
-0.207635
-0.000530301
0.0349219
0.0227981
0.0130514
0.00496215
0.00162659
-0.000179314
-0.308586
-0.467949
0.466028
0.311087
0.000338887
0.00190789
0.00575053
0.00631319
0.0196519
0.00719965
0.00130218
-0.000266362
9.3585e-05
0.381818
0.00163978
-0.33417
-0.386944
-0.30757
-0.474531
0.00102931
0.311732
0.465742
0.00240407
0.00153431
0.00163921
0.00113249
0.001745
0.00302545
-0.423901
0.379772
-0.38021
-0.00589358
0.00247861
0.00118947
-0.00264123
0.000612869
0.000177752
0.420083
0.000608427
0.000406857
0.41942
0.00266795
0.000252416
0.00081492
0.00150413
-0.000904015
-1.64538e-05
0.000487242
8.68266e-05
0.000309332
0.000142342
3.55276e-05
0.000373874
0.00137949
0.000611785
0.000135655
5.94205e-05
-0.000781007
-0.000248637
-0.000261895
-0.000859051
-6.83825e-05
0.000190465
0.000179848
-0.000443376
-0.000346709
-0.000200973
-0.000168502
-0.00372062
-0.0038414
-0.0169772
-0.00648836
0.371711
-0.00242998
0.000223416
0.000136436
-0.00171563
-0.00183938
-0.00102336
-0.0069957
-0.00637995
-0.00482314
-0.000953695
-0.33683
0.303052
0.00464188
-0.334523
-0.0137611
-0.0136651
-0.0651565
-0.0831314
-0.304216
-0.3065
-0.491578
0.123212
0.0468822
0.254621
-0.0896385
0.132024
-0.0148206
-0.150824
0.135733
-0.00339509
0.105888
-0.00345342
0.127666
-0.140894
-0.0118992
-0.00374646
-0.00462299
0.00203029
-0.0170344
0.11339
-0.00566798
0.00419949
0.00424002
0.00271922
0.00154209
0.000668722
0.000572431
0.00603385
0.00519147
0.0129611
0.0111988
0.0320088
0.00662622
0.00299706
0.00101173
0.303669
-0.306239
0.00112574
-0.495574
0.0013669
0.500575
-0.432745
-0.00063765
-0.43308
0.00045938
0.428059
-0.000280598
1.55446e-05
0.000312745
0.00043976
0.0011119
0.00234573
0.00140239
0.000871772
0.000483565
0.000187712
9.3211e-05
0.000142941
0.000166513
0.000155589
0.425971
6.31629e-06
0.431636
3.12728e-05
0.414068
0.397554
0.00160977
0.396018
0.238845
0.00629544
0.00136914
-0.000159646
7.95995e-05
-0.000837317
0.433109
0.0015145
-0.00103777
0.281846
0.000171358
0.00054039
-0.00030576
0.304074
0.0010634
0.0035005
-0.277302
0.00276417
0.286822
0.000160138
0.00214839
0.000977295
0.000649321
-7.92979e-05
0.434743
0.000158937
0.434142
-2.48492e-06
0.000644738
0.435284
0.000296102
0.439332
-0.000135943
0.00183113
0.435119
-0.00155776
0.302987
-0.000373679
0.00605283
-0.278491
0.0095549
0.298431
-0.00967303
-0.000316804
-0.010679
-0.0360534
-0.0844233
0.00314479
-0.0122796
-0.00531896
0.0040628
0.00367704
0.432389
-0.000643602
-0.00138214
-0.0013558
-0.000289941
-0.00486049
-0.000239093
0.000666196
0.00051246
0.438347
0.432723
-0.000329839
-6.66815e-05
-0.00087659
-0.00168239
-0.00186372
-0.00799704
-0.00299335
-0.00310985
-0.00165342
-0.000633846
0.441245
-0.00125729
-0.000219236
0.000392156
-0.000289435
-0.00154107
-0.00550608
-0.0166398
-0.00399295
9.85354e-05
0.000406577
0.00181542
-0.00210975
0.0024451
0.00421185
-0.00733347
0.0324466
0.0671947
-0.0488582
0.348445
-0.00166556
-0.023245
-0.0341028
-0.0189377
-0.00653401
-2.1305e-05
0.00647856
0.0187951
0.0338548
0.0364216
0.000663852
0.0178891
0.0177296
-0.328955
-0.167345
-0.344494
-0.169064
-0.000465475
0.0212527
0.00540191
0.00226203
0.322135
0.382796
-0.00144317
0.00311382
0.00127785
0.00254362
0.0013936
0.00301616
-0.00387873
-0.020634
0.153691
0.352398
0.0147362
-0.000491065
0.00100052
0.00102701
0.000518585
0.000602017
0.000256893
0.00025841
0.000326351
-0.000575354
0.000121694
8.94331e-05
0.000873694
-0.000412528
-0.000684089
-0.363199
0.00257627
-0.353746
0.341128
0.00687118
-0.355472
-0.367439
0.350515
0.328102
0.00459042
-0.334753
-0.391299
0.375098
-0.000707948
0.313624
0.46345
0.00516915
-0.00106925
-0.00127032
0.00102216
0.00174039
0.00449187
0.0772419
0.12221
0.187075
0.442306
0.0287187
0.228874
0.338854
-0.0156294
-0.00428701
-0.0112591
-0.00305213
-0.00158835
-0.000229789
0.333021
0.357242
0.349131
0.339006
0.00276337
-0.37901
-0.345067
-0.000898532
0.333826
0.00726148
-0.380954
-0.350297
-0.00223417
0.322233
0.343433
0.305703
-0.00156456
-0.00242671
-0.00270446
-0.000820805
0.000259632
0.00166525
0.000322753
0.00026648
-0.000814658
-0.000346168
-0.00312167
0.0294761
-0.00323333
-0.00203358
-0.00492133
-0.00389472
-0.00241156
-0.0041105
-0.00175761
0.0843134
-0.00200188
0.0018796
0.000256235
-8.94053e-06
0.00510707
0.00447158
-0.0315771
0.181386
-0.0788382
-0.306277
-0.387884
0.029063
-0.177543
0.0737472
0.0233406
-0.109398
-0.117638
-0.0128442
-0.0194229
0.129065
0.118283
-0.0111045
-0.115063
-0.00198948
0.115568
-0.000585507
0.00150539
-0.000114417
0.0013484
0.00330125
0.00343437
0.00236286
0.00069
0.000549405
-0.00133245
-0.00115166
-0.000185529
-0.00069059
-1.43142e-05
-0.000151384
0.000832478
0.00181114
0.00168829
-0.00235364
0.00307422
0.00657682
-0.0123262
0.38574
-0.0253123
0.0184326
-0.429303
0.0053022
0.00468797
0.0350593
0.00405771
0.0086099
0.0263138
-0.00193377
-0.000738307
-0.0025995
0.00680028
0.0741694
-0.00480096
-0.00276267
-0.0014102
0.00190378
-0.188128
0.21816
-0.00650105
0.00141388
-0.00892619
-0.0224208
-0.0253663
-0.00471495
-0.00223516
0.0904678
-0.00230421
-0.00281457
-0.00530813
-0.000879291
-0.00310289
0.0797269
-0.00520117
-0.00298754
0.00680784
0.0051965
-0.00119003
-0.00133091
-0.000867221
-0.00220036
0.0020334
0.00553456
0.00439747
0.00354787
-0.00874665
0.0173239
0.0174008
0.0201022
0.0268099
0.385743
0.052552
0.00818819
-0.0130404
-0.00465857
-0.000248599
0.00393606
0.011724
0.00178184
0.379786
0.318575
0.00115184
-7.7991e-05
0.000352282
0.000354669
0.316555
0.377303
0.000124308
-0.376932
-0.341954
0.34176
0.00034036
0.352645
0.000358536
0.00761344
0.0211951
0.0021359
0.0020687
0.00615495
0.00038909
0.000512415
-0.00612829
-0.0186805
-0.00524504
0.313817
0.335011
0.32212
-0.00590993
-0.00193616
-0.000317685
-9.91575e-05
-0.000298728
0.373606
0.315099
-0.000138886
0.000365398
0.000108223
-0.000732957
-0.00083972
0.312556
0.365002
-0.00179523
0.00105068
6.77326e-05
-0.000445041
-0.00188279
-0.0104428
-0.0552648
-0.357347
-0.128929
-0.0252084
-0.00342391
-0.000493394
0.000274763
-0.000288873
-0.000622722
0.000796379
-0.00523469
-0.0135867
0.0127274
-0.0166391
-0.0332671
-0.0223754
0.0125737
0.230037
0.330905
-0.0160928
0.00277247
0.220077
0.3327
0.00191176
0.209525
0.346003
0.165037
0.00103725
-0.00194197
0.35594
-0.00214373
0.0201749
0.121453
0.0209601
0.0448039
0.0474731
0.0450984
0.0597222
0.0376745
-0.000992069
-0.00491606
0.0459041
-0.0215935
-0.0100322
-0.007783
0.0490517
0.00476874
0.0338937
0.0297001
0.207436
0.175095
0.19442
0.185624
0.190169
0.041128
0.00668111
-0.000795871
-0.00697732
-0.0839336
-0.283769
-0.267941
1.73167e-05
0.0114264
0.171194
0.000112628
0.434125
0.00326617
0.000578304
0.000185958
-0.000648885
-0.0110103
0.00181148
0.305255
0.437002
0.432686
-0.000219393
-0.0107703
-0.427525
0.00120055
0.00152372
0.0014119
-0.0443838
0.477067
0.0126863
0.00675549
0.00225963
0.00586039
0.0948014
0.00333296
0.214764
-0.254308
-0.031601
-0.449357
-0.000210788
-0.0214703
0.10737
0.000719568
-0.455718
0.411473
0.00559118
0.232623
0.015366
0.0889568
0.216636
0.03474
0.0370014
0.00176687
0.00151434
-0.0017376
0.29313
0.0132766
-0.0185262
-0.026251
-0.00841144
0.00214581
0.000457295
0.000194429
0.000347496
0.000408413
0.000128814
-0.000969296
-0.00151465
-0.0135876
-0.00688281
0.243825
0.0197284
-0.408714
0.445324
0.0269984
0.321821
0.00205343
-0.298012
0.308473
0.0302548
-0.270526
0.293008
0.00585875
-0.282072
0.288204
0.00366062
-0.28457
0.288032
0.00262076
-0.286239
0.287906
-0.000608999
-0.289517
0.284713
-0.00720554
-0.296337
0.272192
-0.0335284
-0.311668
0.203208
-0.148326
-0.39458
-0.12019
-0.370013
0.0231043
0.241811
-0.24367
0.0138799
0.252799
-0.250132
0.00519585
0.253932
-0.261079
-0.00294368
0.253142
-0.259954
-0.0214939
0.244426
0.256619
0.395591
0.1001
-0.285546
0.00373068
0.419761
-0.000771634
-0.42774
-0.00190262
0.410128
-0.0025063
-0.414149
-7.108e-05
0.411733
0.000428758
-0.40556
0.00130294
0.417409
-0.0123295
-0.438677
-0.0190524
0.342238
-0.0607776
0.0786516
0.178415
-0.326605
0.332663
-0.395495
0.37247
-0.384614
0.378454
-0.378884
0.380183
-0.375987
0.381509
-0.374274
0.380095
-0.376327
0.381486
-0.374143
0.391538
-0.33258
0.32165
-0.158573
0.313507
0.39425
0.196219
0.290857
0.212014
0.163553
0.107317