/*--------------------------------*- C++ -*----------------------------------*\
| =========                 |                                                 |
| \\      /  F ield         | OpenFOAM: The Open Source CFD Toolbox           |
|  \\    /   O peration     | Version:  2306                                  |
|   \\  /    A nd           | Website:  www.openfoam.com                      |
|    \\/     M anipulation  |                                                 |
\*---------------------------------------------------------------------------*/
FoamFile
{
    version     2.0;
    format      ascii;
    arch        "LSB;label=32;scalar=64";
    class       volScalarField;
    location    "1.7";
    object      gradTx;
}
// * * * * * * * * * * * * * * * * * * * * * * * * * * * * * * * * * * * * * //

dimensions      [0 -1 0 1 0 0 0];

internalField   nonuniform List<scalar> 
5322
(
-0.0179785
0.00107515
0.0011229
-1.44992e-05
-7.78177e-05
-6.46097e-05
-4.3349e-05
-2.83947e-05
-1.9283e-05
-1.11964e-05
-4.70073e-06
2.55871e-05
3.49553e-05
-0.000471214
-3.51291e-06
0.000916607
-0.000710891
1.68767e-05
-0.000604008
0.000619745
-0.000821006
0.00118589
-0.00124965
0.00204603
-0.00213228
0.00317946
-0.00320651
0.00493232
-0.00497432
0.0070135
-0.0066667
0.010245
-0.00754853
0.0150899
0.00145398
0.022772
0.0161603
-0.0064014
0.0176913
-0.00105871
-0.0167961
0.0168322
-0.00101875
-0.0178941
0.01781
-0.000605872
-0.0190141
0.0167744
-0.000388479
-0.0199668
-0.0198473
-0.028457
-0.00950037
0.0178456
-0.00118046
-0.0290952
-0.000903279
0.027632
-0.000332525
-0.0276247
-0.00011868
0.0269115
-0.000138196
-0.0271319
3.34512e-05
0.026561
0.000404101
-0.0268736
0.00145327
0.0221916
0.0013453
-0.0208596
0.0237003
-0.0244081
0.0234856
-0.023928
0.0239456
-0.0239667
0.0273097
-0.0200722
0.00938194
-0.0148366
-0.010076
0.0154855
0.00124712
-0.00656564
0.0114219
-0.0316859
-0.00976356
0.0344445
-0.00157351
0.000306252
0.000525875
0.00366555
0.0197261
-0.00380588
0.000409613
-0.00127161
0.0117496
-0.0279681
-0.027899
0.0566566
-0.00129469
0.015271
0.024944
0.000686248
0.000290256
0.000206977
9.77964e-05
2.94645e-05
9.28954e-07
-8.21702e-06
-1.05953e-05
-1.02556e-05
3.69723e-06
-4.90352e-06
-0.000292963
-0.000279063
3.94142e-05
0.000170499
4.75091e-06
0.000246989
-0.000297509
-2.37964e-05
-7.89653e-05
0.000463736
0.000374767
9.60648e-05
0.000295749
0.000183328
0.000136187
0.000318029
0.000151331
0.000163274
0.000323426
0.000130273
0.000263887
0.000368119
0.000412785
1.69216e-05
-0.000310298
1.18212e-05
0.000216464
-0.000270591
-0.000299108
5.16563e-05
0.000111275
5.5475e-05
-0.000233347
-0.000257984
5.91894e-05
6.39957e-05
8.09321e-05
-0.000255483
-0.000238684
5.99494e-05
3.7e-05
0.000135824
-0.000265734
0.000351051
-0.00081249
-0.00106686
0.00114439
-0.00159454
-8.65411e-05
-0.000877343
2.01854e-05
0.000767021
-0.000175259
0.000780868
0.000383377
0.000576784
-0.000976308
0.000355973
-0.000844042
0.00068197
0.000885794
-0.00132737
0.000110796
-0.00112867
0.00129116
0.00160616
-0.00218926
0.000121727
-0.00183635
0.00226982
0.00277635
-0.00363387
0.000202123
-0.00303604
0.00377227
0.00458897
-0.00584981
0.000310774
-0.00488964
0.00590069
0.00720176
-0.00906522
0.000450507
-0.00759229
0.00868414
0.0107059
-0.0134711
0.000637053
-0.011263
0.0120016
0.0150485
-0.0189133
0.000907395
-0.0156031
0.0152455
0.0189853
-0.00335604
0.0112432
-0.0276857
-0.0282372
0.0569018
-0.00247597
-0.00264047
0.000616976
0.00398451
0.0196431
-0.00278877
0.000609338
-0.00335772
0.0107886
-0.0281504
-0.0277692
0.0565539
-0.00171603
0.0152616
0.000385213
0.000461774
0.000245722
0.000128428
4.72227e-05
9.16657e-06
-4.87645e-06
-9.45108e-06
-9.44962e-06
3.56924e-06
-4.78938e-06
0.000227612
-0.000255152
0.000256212
-0.000226646
1.52332e-06
0.000225879
-0.000208756
3.40504e-07
-0.000246615
5.72191e-07
-0.000224047
6.81882e-07
0.000210236
8.48597e-06
0.000229301
-1.95716e-05
-0.00025008
2.02534e-07
0.00024696
5.36595e-08
3.7862e-07
0.000460335
-0.000875398
0.00087666
-0.000862728
0.00110093
-0.00140207
0.00189261
-0.00242826
0.00321111
-0.00407883
0.00526926
-0.00655229
0.00827763
-0.0100185
0.0124096
-0.0145333
0.0176533
-0.0196921
0.0234361
-0.0137186
0.000349623
0.013909
0.000406275
-0.0228166
0.0191961
0.000115864
-0.0171102
0.0142444
6.98201e-05
-0.0120229
0.00984249
4.20926e-05
-0.00801918
0.00643831
2.45029e-05
-0.00510367
0.00400616
1.47378e-05
-0.00310697
0.00238544
9.93007e-06
-0.00182566
0.0013856
6.68435e-06
-0.001057
1.84037e-06
0.00106058
-0.00138037
-4.28525e-06
-0.00109608
0.000864302
-2.01891e-06
-0.00046338
-3.01956e-05
0.000469704
-0.000907175
0.00105522
-0.00138171
0.00180063
-0.0023483
0.00307138
-0.00392185
0.005059
-0.00628446
0.00798255
-0.0095888
0.0120558
-0.0138386
0.0173154
-0.0184853
0.0230718
-0.0135588
-0.00337054
0.00568509
0.000628402
-0.0214886
0.0168547
0.000130433
-0.0156403
0.0128647
-6.18882e-05
-0.0106439
0.00880952
-8.77865e-05
-0.00704232
0.00571698
-7.13817e-05
-0.0044839
0.00355772
-5.98196e-05
-0.00273092
0.00213792
-5.08929e-05
-0.00160358
0.00126387
-4.85471e-05
-0.000928023
0.000706482
5.83142e-06
-0.000232678
0.000384481
0.000638436
-3.13218e-05
6.51864e-05
-0.000118785
0.000364622
-0.00113027
0.00103611
-0.00160597
-0.00108193
-0.00135104
0.000116141
0.000720864
0.00080434
-0.000956318
0.000341175
-0.000844933
-8.33244e-05
2.54754e-05
-0.000311663
2.4458e-05
-1.34572e-05
-0.000319061
-5.07522e-06
-8.03896e-05
-0.000870403
-0.000944619
0.000826439
-0.00131345
-6.26048e-05
0.00155433
-0.00217443
0.00272774
-0.0036151
-0.000219475
0.00453778
-0.00582777
0.00713324
-0.00903901
-8.22032e-05
0.0105899
-0.0133796
0.0147888
-0.0185141
0.00383716
0.000608904
0.000116022
0.00015492
-0.000145571
-5.57781e-05
0.0109886
-0.0137366
0.000729011
-0.0111429
0.0111654
0.0154507
-0.0185859
0.00115134
-0.016346
0.0135092
0.0271458
-0.00217541
0.00143066
-0.0303645
-0.0282352
0.0541299
-0.00369621
0.000517864
0.000945571
-0.0126571
0.00244633
0.00713799
-0.00742335
0.000473947
0.00537514
-0.00477841
8.36611e-06
0.00345384
-0.0031926
-4.8182e-05
0.00204968
-0.00196691
-7.68262e-05
0.00129609
-0.00115432
-8.71168e-05
0.000809882
-0.000571734
-8.35995e-05
0.000626255
0.000212889
0.000147831
-2.26125e-05
-1.10848e-05
0.000350803
-0.000146433
0.0019273
-0.00264356
0.00338694
-0.004403
-0.00284349
-0.0037139
0.000206156
0.00222794
0.00280212
-0.00223079
0.000124725
-0.00171424
-9.89076e-05
-4.93125e-05
-1.70247e-05
-4.33339e-05
-7.33791e-05
7.9028e-05
4.71391e-05
-2.76086e-05
-0.00037532
-0.000119373
0.000389365
0.000548298
0.000469167
0.000166857
0.000806001
0.000285595
0.000290929
0.000270134
-0.000254387
-0.000618873
-0.000953127
-0.000480957
0.000333641
-0.000353757
5.49652e-05
0.00070617
-0.00062873
0.00562854
-0.00709961
0.00888647
-0.0110915
-0.00725248
-0.0093112
0.000480007
0.00567225
0.00736867
-0.00599625
0.000321656
-0.00460947
-0.000174669
-6.49033e-05
-7.02659e-05
-9.50734e-05
-0.000234239
-6.62919e-06
-6.40584e-05
-0.000151724
4.82666e-06
-1.87522e-05
0.00048329
3.06107e-05
-6.92231e-05
-7.97122e-06
1.57628e-05
6.53852e-06
-2.307e-05
4.85629e-05
-0.000561621
-3.82898e-05
-1.87641e-05
-5.59801e-06
-7.6543e-06
0.00140853
7.52624e-06
-0.00188443
0.00183413
-0.0023733
-2.98113e-06
0.00244466
1.64051e-05
-0.00319693
0.00312648
-0.00398139
2.55649e-06
0.00411355
2.86603e-05
-0.00524374
0.00514491
-0.00639082
1.3529e-05
0.00662068
4.88161e-05
-0.00823574
0.00809926
-0.00975726
3.51893e-05
0.0101443
7.26783e-05
-0.0123462
0.0121605
-0.0141046
7.69704e-05
0.014718
4.90554e-05
-0.0175435
0.0172864
-0.0190207
0.000126215
0.019779
-0.000149391
-0.023218
0.0228927
-0.01379
-3.20906e-05
0.0136746
-0.000966906
-0.00229978
-0.00179886
-0.00277496
-0.0275765
0.00575224
0.00373714
-0.00212214
-0.00425957
-0.00138101
-0.0218585
0.00502034
-0.00901826
-0.0121186
-0.00229319
-0.00364879
-0.00478265
-0.0025458
-0.00136409
0.000650138
-0.000761365
-0.00149786
-0.00139154
-0.000882031
-0.000594914
-0.00039142
-0.000120446
0.000464576
0.000475979
0.000480914
0.000552934
0.000743819
0.000710557
0.000511854
0.000515655
0.000355465
-0.000312427
9.76662e-05
-3.55056e-05
-2.4623e-05
8.8731e-05
-0.000272176
-5.62631e-07
-1.50422e-07
-5.03855e-07
7.26387e-07
-0.000173721
-0.000200705
-0.000199817
-0.000174955
0.000175278
-0.0001421
7.17391e-06
0.000202536
-0.000167757
-0.000167636
7.34121e-06
0.000201038
6.42515e-07
1.42146e-06
1.55578e-06
1.39179e-06
-9.08939e-06
5.28396e-06
-3.3625e-06
-1.696e-06
5.32812e-06
2.21573e-05
5.74392e-05
2.53746e-05
-7.06091e-05
-0.000410627
0.000192126
-0.000245678
0.0014875
-0.00208015
0.0135283
-0.0165676
0.0199408
-0.00016822
-0.00567197
-0.00109672
0.00157986
6.08918e-05
0.000530819
0.000819878
-0.00237419
-0.00432406
-0.00842014
-0.0195795
-0.0201641
-0.0458097
-0.0184625
-0.0157277
-0.000258808
-0.00606446
0.00568906
-0.0404395
-0.02468
-0.0120056
0.0176546
0.00141262
0.000749558
-0.018035
0.0189899
0.000128715
-0.00235876
-0.0196728
0.0190502
3.87503e-05
-0.00260634
-0.0192099
0.0189945
0.000152914
-0.00418149
-0.0183398
0.0135596
-0.0116907
0.010189
0.00777449
0.0219881
-0.0103417
-0.00574064
0.0032326
0.0124326
-0.0376893
-0.00182389
-0.0218782
0.0213242
0.0205484
0.018838
0.0238202
0.0105036
0.00163804
0.00861795
0.0125525
0.0196838
-0.00667012
0.00171593
0.0113274
-0.00707632
0.000120454
0.00720079
-0.00510942
7.51765e-06
0.00481478
-0.00329884
2.40524e-05
0.0031571
-0.00205605
2.12266e-05
0.001985
-0.00125014
5.62574e-06
0.00117153
-0.000789213
-4.01695e-05
0.000615783
-0.000590939
-0.000197577
4.8744e-05
-0.000637056
-0.000390417
0.000235869
-0.00070483
0.000943071
-0.00125373
4.89259e-05
-0.0010543
0.000907219
-3.23058e-06
-0.00046778
3.09286e-05
0.000464564
-0.000458978
3.40612e-06
4.31964e-06
1.80201e-06
2.36923e-06
5.21868e-06
9.48796e-06
2.87163e-05
4.81848e-05
8.36354e-05
-0.000318204
1.20757e-05
-0.000131694
0.00106172
-0.00108314
9.84956e-05
8.93646e-05
0.000462943
0.000482477
0.00364558
0.00467713
-0.000218063
-0.00302865
0.00377949
0.000312185
-0.00488244
0.00589693
0.000454437
-0.00761016
0.00865651
0.000645868
-0.0113921
0.0119261
0.000910221
-0.0160157
0.000460252
0.000777452
-0.00255652
-0.00255523
-0.0079528
-0.00404507
-0.00229103
-0.00137755
-0.000885448
-0.000604351
-0.000398604
-0.000128358
0.000454819
0.000460272
0.000460598
0.000710782
0.000436384
-0.000129122
-0.000395389
-0.000619163
-0.000921096
-0.00141483
-0.00230288
-0.00402618
-0.00768478
-0.0177789
-0.0185987
-0.0319506
-0.0259392
-0.00867647
-0.00863596
0.0160518
0.00169853
-0.00200356
-0.0015991
0.00750392
0.000253627
-0.00611021
-0.00583651
0.00597967
-9.64811e-06
-0.00669607
-0.00639764
0.00527598
5.95732e-06
-0.00831588
-0.00792644
0.00264837
-0.0115666
0.00802772
0.00779559
0.00814128
0.00712832
-0.00986722
0.000761987
0.00351087
-0.0115053
0.00263218
-0.0107185
0.0122935
-0.0266924
-0.00111421
-0.0256975
0.0197256
0.0211112
0.0203065
0.019912
0.0204248
0.0198134
-0.0278282
-0.00135395
-0.0250974
0.0158703
0.0170307
0.0159393
0.0168181
-0.00111746
-0.0267784
-0.0265983
0.012328
0.0203519
0.0188642
0.0178837
0.0223221
0.0222187
0.0172541
0.00493505
0.0102358
0.0043303
-0.00240797
0.00387347
0.000893217
-0.00284651
0.00206837
0.000303902
-0.00214162
0.00141741
0.00020013
-0.00151679
0.00092118
0.000119314
-0.000990692
0.0006077
9.54094e-05
-0.000637419
0.000350227
3.53593e-05
-0.000401023
0.000191734
-8.99443e-06
-0.000294418
5.70509e-05
-0.000133087
-0.000348417
-0.00015581
-0.000460001
-0.000556977
-0.000551906
-0.000370974
-0.000265053
-0.000414192
-1.64888e-05
0.000311246
-0.000230262
2.37856e-05
0.00025594
-0.000254128
1.10493e-05
0.000265978
-0.000273555
-9.92895e-06
-2.02119e-05
-0.000498664
-2.05752e-06
-0.000896905
1.72271e-06
-0.0010718
8.67646e-06
0.00140136
-0.0014192
-1.68128e-06
-0.0018092
5.62869e-05
0.00236899
-0.0021462
7.10224e-05
0.00277828
6.16395e-05
-0.00357154
0.000106218
0.0045403
8.16887e-05
-0.00571402
0.000152047
0.00708534
6.89373e-05
-0.00871497
0.000200012
0.0105247
7.37908e-05
-0.0126363
0.000268961
0.0148955
-9.45206e-05
-0.0172334
0.000457518
0.0198631
-0.000158429
-0.000665681
-0.0248131
-0.0179787
0.000781985
0.0199352
-0.000318432
-0.0182919
-0.0127
0.000640296
0.0150277
-0.000193566
-0.0128756
-0.00885853
0.000404154
0.0104667
-0.00014119
-0.00864104
-0.00591775
0.00026639
0.00690689
-8.14374e-05
-0.00549923
-0.00377212
0.000167949
0.00432723
-5.41156e-05
-0.00333022
-0.00229136
8.71623e-05
0.00261731
-2.16935e-05
-0.00190421
-0.00133661
4.336e-05
0.0015944
1.44161e-05
-0.00102938
-0.000736493
7.73314e-05
0.00112366
0.000122987
-7.17369e-05
0.00023601
-0.000390892
-0.000638574
4.96899e-05
-0.000200428
4.36226e-05
0.000572912
-4.60979e-05
9.40007e-06
-0.000472986
3.78484e-06
0.00089892
-0.000875597
-1.36412e-06
-0.00106097
5.00601e-05
-0.00126868
4.10734e-05
0.00163834
7.29381e-05
1.72872e-05
1.10568e-05
1.36301e-05
0.00111477
1.19887e-05
-6.93615e-06
-0.000209279
-2.71398e-07
0.000231027
1.20308e-06
1.15025e-06
1.28789e-06
-3.54998e-05
-4.13451e-05
-2.98489e-05
-0.000312045
-7.09424e-06
-7.90759e-05
-5.65468e-05
-5.48382e-05
-6.27421e-05
0.0015801
0.00130532
-5.51672e-05
0.000174383
6.42478e-05
5.09746e-05
0.000728071
0.00011248
-0.00113669
0.00132023
0.000121718
-0.00183563
0.00228747
0.000201868
1.40272e-05
-0.000111395
-0.000129763
-0.000169234
-0.000204454
-0.00025228
-0.000214659
-0.000174585
-0.000114343
-0.000128571
-0.000111675
-5.82462e-05
-6.75966e-05
-0.00111145
0.00129043
0.00207385
-0.00262527
0.00353937
-0.00436297
-9.35737e-05
-0.00267307
1.49339e-05
0.00219689
-7.46998e-05
-0.00157672
-2.26114e-05
0.00135544
-6.48206e-05
-5.5194e-08
-0.00120674
-7.91343e-05
0.00153633
-0.00170292
6.15893e-06
-0.00365007
-2.59477e-05
0.00461501
-0.00407168
9.80418e-06
-0.00524178
8.63127e-06
0.00658053
-0.00649167
3.20533e-06
-0.0080247
8.27866e-06
0.00982352
-0.0101023
-3.10797e-05
-0.0116923
9.0512e-05
0.0138968
-0.0164523
-5.84968e-06
0.0189493
-0.0215343
-0.000243283
-0.000631538
-0.000105716
-2.01274e-05
2.34713e-05
2.95193e-05
2.5077e-05
1.97189e-05
1.44287e-05
-1.32272e-06
5.52356e-06
-0.000226378
0.000257806
-0.000253319
-0.000228609
2.17842e-06
2.62875e-06
-8.15069e-06
1.29513e-05
0.000215729
1.41856e-06
-2.37519e-06
-1.95384e-05
2.36927e-05
-2.27921e-05
-0.000304468
-6.84962e-06
-9.26885e-05
0.000644443
0.000117708
-2.29972e-05
-1.42321e-05
6.12295e-06
-1.99551e-06
0.000167298
0.000170517
-5.21794e-06
0.000141579
0.000228081
-4.12083e-06
-5.23763e-06
-5.35129e-06
-3.22588e-05
1.39366e-06
-0.00025338
0.000843668
3.54707e-05
-0.00128551
-1.46033e-05
0.00161532
-0.00142927
-3.51343e-06
-0.00189593
2.31233e-06
-0.0024161
6.15742e-07
-0.00314097
1.33976e-05
0.00403375
-0.00413054
-8.65443e-06
-0.0050391
8.86664e-05
0.00632298
-0.00787082
9.8605e-05
0.00962132
9.83483e-07
1.19794e-05
1.31659e-05
1.17466e-05
8.59819e-06
9.787e-06
1.7131e-06
4.78028e-07
-6.74801e-06
-8.423e-06
-1.36968e-05
-2.48125e-05
-5.69727e-06
-6.47427e-06
3.20302e-06
3.18545e-06
4.24676e-06
6.67141e-06
8.3376e-06
1.31166e-05
1.48445e-05
1.60945e-05
2.56403e-05
3.37038e-05
0.000142392
0.000201138
-0.000587545
0.000212347
-0.000968167
0.00371207
-0.0232899
-0.00637138
0.000191415
-0.00212964
0.0110098
-0.0109411
-0.0331746
-0.0129244
-1.91989e-05
0.00331441
0.000286665
-0.0261194
-0.011474
-0.00774439
0.0152672
0.00167657
-0.00173379
-0.00290708
0.00814405
0.000255071
-0.00570084
-0.00701596
0.00700254
1.06759e-05
-0.00625314
-0.00735809
0.00652133
5.96604e-05
-0.00802573
-0.00835164
0.00157735
-0.00045445
7.83781e-05
8.21804e-05
0.018969
-0.017187
0.000282612
0.0152393
-0.000452056
0.000266677
-0.01926
0.00046454
-0.0119047
0.014033
0.000224429
-0.0156085
-0.0273753
0.0203253
-0.00162154
0.002685
0.0090239
-0.000191352
0.0214956
0.015724
0.0176505
-0.0210012
0.00076175
-0.0177401
-0.000315668
-0.019623
0.0009315
-0.018804
-0.000323517
-0.0189047
0.000971364
-0.0201944
0.016413
0.0160888
-0.00107649
-0.0324335
-0.0260512
0.0121767
-0.00864471
0.0120274
0.00692697
0.00816204
-0.0105965
0.0029334
0.00226761
-0.0118362
0.00443236
0.0080475
-0.00999831
0.0168852
-0.00902995
0.00146617
-0.0088292
0.00137562
-0.009517
-0.0074431
0.00128448
-0.000619039
-9.99372e-05
-5.1685e-05
1.39495e-05
4.26291e-05
3.85564e-05
2.86891e-05
2.08427e-05
1.47103e-05
-1.37814e-06
5.78741e-06
-0.000142347
0.000176039
1.86784e-06
3.42806e-05
2.4375e-05
1.98743e-05
-0.000229666
-1.1192e-05
0.000272473
-0.000214886
-0.000112337
0.000272146
-0.000264946
-0.000372565
-0.000415566
0.000314452
0.000311332
-1.69005e-05
-2.47261e-05
-8.74559e-05
1.16488e-05
0.000321377
-5.07494e-05
-6.94197e-05
-5.60895e-05
0.000256744
0.000257554
-7.04348e-05
-4.95513e-05
0.000314494
-0.00014831
-0.000335687
-0.000149387
0.00031626
8.83412e-06
5.5301e-06
-2.52679e-05
1.57981e-05
4.49441e-05
0.000574487
-4.70251e-05
2.58991e-05
-2.41883e-06
-7.02054e-06
-1.24947e-05
-1.94694e-05
-3.27505e-05
-6.18171e-05
-0.00011909
1.89416e-05
-5.23955e-05
0.000108945
-0.000743476
-0.000208798
0.000801837
-0.00141765
-0.000503951
-0.000525608
-0.0157203
0.0151044
-0.000447936
-0.000344212
0.00098552
-0.000675274
-0.000357519
0.00274779
0.00501404
0.00267061
0.0149679
-0.00697223
0.00170836
0.0110365
0.0124539
-0.0036137
0.00125811
-0.000148374
0.000780353
-0.00018569
5.84847e-05
-0.00123759
-7.90034e-05
6.00321e-05
2.18661e-05
3.54432e-06
-2.64178e-06
8.70311e-06
-1.35563e-06
7.85855e-06
9.2033e-06
1.0587e-05
8.18279e-05
0.00016037
0.00025044
0.000356836
0.000483297
0.000696875
0.000389817
0.000116721
0.000222652
0.000127811
5.71173e-05
2.49327e-05
1.84151e-05
9.79944e-06
2.09794e-05
1.76894e-05
-0.00179579
0.00162285
-0.00211799
0.00274714
-0.00352689
7.27687e-05
-0.00305154
0.00235157
5.52757e-05
1.19083e-05
8.98955e-06
5.39327e-07
0.00138356
1.13698e-05
-7.30321e-06
0.000250772
-1.80999e-06
9.88567e-06
2.76809e-05
-4.86745e-05
0.000299241
0.00023448
-9.54835e-05
3.91104e-05
-4.69696e-07
-2.69055e-07
0.000144984
-4.99477e-06
-2.08297e-07
0.000100129
-0.000312209
8.78275e-05
1.6747e-06
3.5687e-05
2.57995e-05
2.8283e-06
-2.4466e-05
1.22884e-05
2.48134e-05
-9.56609e-05
-8.78698e-05
0.000300409
-0.000113104
-0.000214099
-4.93397e-05
0.000274261
-1.08234e-05
2.76541e-05
1.68101e-05
-4.39497e-06
2.65087e-06
1.06185e-05
1.6936e-05
5.53211e-05
1.76786e-05
4.00982e-05
5.37169e-05
6.98692e-05
1.34126e-05
-6.37713e-07
1.85742e-05
-1.23549e-06
0.00393095
-0.00500926
0.00449542
-0.00565932
0.00704229
-0.00868248
0.000157473
-0.00786728
0.00630381
0.000104655
1.03844e-05
8.99948e-05
0.000104156
0.000134738
0.000136063
2.65737e-05
-2.10405e-06
2.37156e-05
2.39889e-05
3.7805e-05
3.10461e-05
4.4744e-05
0.000105809
0.000306624
0.000176904
0.00105192
0.000125722
5.41899e-05
2.13941e-05
4.75507e-06
-4.6378e-06
-1.44737e-06
-2.07754e-06
6.63857e-06
3.99904e-06
2.65952e-06
1.26529e-05
1.43315e-05
1.09356e-05
-5.80379e-06
-9.6458e-06
1.24274e-06
1.26551e-07
-2.72255e-06
2.83784e-06
5.7511e-06
1.04315e-05
1.74368e-05
2.24582e-05
3.38376e-05
2.72314e-05
3.45098e-05
6.5867e-05
5.64199e-05
3.93583e-05
9.68209e-05
0.00024935
8.61653e-05
9.11662e-05
0.00346141
-0.000601416
0.000380971
7.51305e-05
0.00026114
0.00736181
-0.000290767
-0.00106954
0.00596373
0.00205339
-0.0260442
-0.00951302
-0.0164687
0.0163044
-0.0116097
-0.0124589
0.0147294
-0.0175992
-0.000954659
-0.00131939
-0.0167094
0.0149509
-0.000132876
-0.000740454
-3.42233e-05
0.00028801
0.000391778
0.00631255
0.00219861
-0.0115146
-0.0106348
0.0178892
0.00161947
-0.0042229
-0.00129476
0.00701138
0.000180773
-0.00816937
-0.0053105
0.00533552
-1.80891e-05
-0.00849633
-0.00583718
0.0046813
-4.25631e-05
0.0074498
0.00722979
0.0004189
0.010107
-0.00988316
7.94152e-05
-0.00788238
-5.97557e-05
-0.000140766
-2.09067e-05
7.28763e-06
1.59528e-05
1.32237e-05
8.80822e-06
5.28941e-06
2.68193e-06
-1.344e-06
-5.76996e-06
0.000126708
-0.00181018
0.00228569
0.000204881
-0.00300148
0.00379864
0.0057999
-0.00702077
0.00906899
-0.0108685
-0.000158191
-0.0069865
0.000130008
0.00580625
-0.000128177
-0.00440193
5.55315e-05
0.00363106
-0.000375125
-0.00026155
-0.00342876
-0.000163267
0.0040751
-0.00457404
3.45461e-05
-0.00928219
-2.14423e-05
0.0113422
-0.00991226
2.5383e-05
-0.0120897
2.79795e-05
-0.0142791
-2.50886e-05
-0.016668
-5.23565e-05
0.0191931
-0.0199344
-1.42431e-05
0.0220327
-5.19135e-05
-0.0216736
0.0215975
-6.66283e-05
-0.019419
0.0196351
-0.0218768
-1.28285e-05
2.18303e-05
0.00011578
8.29752e-05
3.67855e-05
1.24808e-05
1.90252e-06
-3.09285e-06
-5.90252e-05
-8.14096e-05
-0.000168178
-0.000211959
-0.000208634
-0.000254598
-0.00483712
0.0059436
0.000460398
-0.00750765
0.00876369
0.0135001
-0.0161969
0.0190672
-0.0228708
0.000373458
-0.0170501
0.00165396
0.0129297
-0.000118155
-0.0108769
0.000419535
0.00890766
-0.000753781
-0.000376252
-0.00786565
-0.000105377
0.00951603
-0.0103565
0.000123457
-0.0193358
7.99191e-05
0.0226531
-0.0193859
-5.66764e-05
0.0218609
0.00015229
-0.0248943
0.0146017
-5.33901e-06
-0.0146728
0.0127557
-0.0164699
0.000478487
-0.00294468
-0.00146409
-0.00244724
-0.00408188
0.0169412
-0.0269311
0.00573698
-0.00627986
-0.00299275
-0.00169279
-0.001078
-0.000716776
-0.000467681
-0.000256844
5.9335e-05
0.0014621
0.000676375
-0.00034964
0.000237765
9.85149e-05
0.000858711
-0.000758588
0.000735516
-4.52101e-05
-0.000487956
1.97148e-05
0.000968269
-0.000930403
-5.1216e-06
-0.00111105
9.31513e-07
-0.00140369
-1.88684e-07
-0.0018477
1.19368e-05
0.00240744
-0.00245994
-4.9656e-06
-0.00307505
6.8441e-05
0.0039551
1.77737e-05
7.74428e-06
0.00324412
1.07491e-05
0.00191551
-1.9997e-06
-3.59703e-06
-1.23892e-05
-4.30654e-05
3.10712e-06
0.000487016
3.05846e-05
2.82312e-05
0.000172684
0.000304746
-0.000576461
-4.59513e-05
-0.00100939
7.63523e-06
-0.00216719
-2.15615e-05
0.0027566
-0.00243596
3.07229e-06
-0.00320834
4.39589e-06
-0.0040515
2.63053e-06
-0.00514209
1.341e-05
0.00645826
-0.00662407
-1.60313e-05
0.00825346
-4.76491e-06
4.25432e-06
0.00529894
-1.14952e-07
1.8326e-05
7.70163e-06
-3.8624e-06
0.00186947
-1.45132e-05
0.00109693
6.78341e-05
-3.89017e-05
0.000974336
-1.78973e-05
6.31208e-05
-0.000134019
0.00133319
-8.78752e-05
-0.000154294
-0.00209871
-0.000121496
-0.00285062
1.52243e-05
-0.00595407
-2.8545e-05
0.00740876
-0.00651543
1.82718e-05
-0.00816956
1.64716e-05
-0.00988465
-3.16153e-06
-0.0118927
-1.08249e-05
0.0141641
-0.0146271
-5.07951e-05
0.0170548
-3.36398e-05
-3.82179e-06
1.29194e-05
1.75927e-05
3.21057e-05
2.57742e-05
1.96168e-05
1.31224e-05
1.06138e-05
1.08922e-05
1.54755e-05
1.01887e-05
0.000116154
0.000190744
0.000279938
9.23822e-06
3.3274e-05
2.34926e-05
1.99093e-05
1.41652e-05
-1.09212e-06
5.25444e-06
-0.000113924
-0.00144681
5.41644e-05
-0.00141501
0.00202784
0.000119055
-0.00248291
-0.00254315
0.00206568
0.00193151
0.000115998
-0.00237137
-0.00271233
0.00218903
-0.00153117
5.13282e-05
-0.00136825
0.00119305
0.00125525
0.00123773
0.00120728
5.42006e-05
-0.00150408
-0.0013993
-0.000113992
0.00196417
0.000119289
-0.00266182
-0.0024305
-0.000188009
0.00322084
0.00022737
-0.00444134
-0.00403236
-0.00413757
-0.0042396
0.00023087
0.00333109
0.00339939
-0.000187024
0.00316144
0.000224891
-0.00393214
-0.00452678
0.00361387
-0.000193265
-0.00223715
-0.00334739
8.10678e-05
0.00176934
-0.000119318
-0.00130682
-0.00191718
3.74942e-05
0.00111955
0.00133028
-0.000780065
7.39795e-05
-0.000757069
-0.000109266
-0.000769632
7.36568e-05
-0.00075595
-0.000109175
-0.000770539
7.59698e-05
-0.000768438
0.00131332
0.0011304
-0.000114223
-5.78919e-05
0.000131456
-0.000460668
-0.000483625
-0.000471326
-0.000524999
-0.000499418
-0.000503662
-0.000501835
-0.000470008
-0.000714131
-0.000520338
-0.000473835
-0.000482816
-0.000324457
-0.000129654
-0.000164572
0.000314013
-0.000352937
0.000896822
0.000907479
0.000901038
0.00090202
0.00093596
0.000864606
-0.000339011
0.000273406
-0.000128682
-0.000324359
-0.000165471
0.000321312
5.99126e-06
5.58587e-05
5.67539e-05
0.000118678
0.000194398
-8.40447e-06
-0.000285879
0.00538813
0.000368092
-0.00652288
-0.00668675
-0.00618291
-0.00714331
0.000355218
0.00501045
0.00574401
-0.000292738
-0.00368169
-0.00554223
0.000162743
0.0029015
0.0043505
-4.37951e-05
0.000388209
-0.000653017
8.96262e-05
0.000641085
-0.00103548
0.000135233
0.00102678
-0.00154252
0.000242967
0.00173389
-0.00202354
0.000730078
0.00360966
0.000584646
0.00196432
-0.000549792
0.00106214
-0.000561004
0.000727875
-0.00041818
0.000509209
-0.000287751
0.000327066
4.68219e-05
-0.000404699
0.00262689
-1.91261e-05
0.00021419
-0.000293349
-3.44388e-06
0.000109219
-0.000212027
-0.000247187
7.21271e-05
1.61136e-05
-0.00103662
7.36647e-05
-0.000722926
-0.000114592
-5.6405e-05
0.000143079
-0.000366193
-0.00055242
-0.000553615
-0.000461294
-0.000153429
-0.000350229
-0.000130553
-0.000238711
-0.00079887
0.000123923
0.00112585
0.000861189
0.000942251
-0.00033857
-0.000744902
-0.000459081
0.000134125
0.000425241
0.000417883
0.000658765
0.000943885
0.00130512
0.000260226
-0.00576653
-0.00874118
0.0069475
0.00462232
-0.000449295
-0.000287887
-0.00015757
-0.000137637
0.000627457
0.000857888
0.00114272
-0.000638684
-0.000415932
0.0086854
0.000509156
-0.00921972
-0.0107129
-0.00854805
-0.0132066
0.000368917
0.00706449
0.0105973
-6.57286e-05
0.000123338
5.83973e-05
3.76403e-05
7.06829e-05
0.000126058
-0.0118064
0.0105626
-0.0126724
5.02183e-05
0.000284486
0.000192308
0.000139801
3.51722e-05
-4.30478e-06
0.00963208
3.90171e-05
2.52983e-06
0.0139694
0.000233709
-4.01192e-06
0.000377514
0.000469317
-7.5716e-05
1.20289e-05
3.64308e-05
1.64098e-05
2.47814e-05
-2.22478e-05
2.83317e-05
2.44924e-05
4.15473e-05
6.2563e-06
3.35789e-05
2.97347e-05
1.20547e-05
1.22485e-06
2.31868e-06
1.59125e-06
1.27395e-05
0.0003146
0.000533018
0.00034941
0.000279776
0.000282416
0.000313363
0.000153527
0.00015313
4.94868e-05
0.000100456
0.000808869
0.000204833
0.00043714
0.000431969
0.000582279
0.000588295
0.000672082
0.00064381
0.000648531
0.00087736
0.000734345
-0.0111302
0.012149
0.000980096
-0.0152634
0.000750226
0.000529455
-0.00250242
-0.00340835
-0.0217266
-0.0230213
-0.038353
0.00970339
0.00320872
0.0180454
-0.00654469
0.0104411
-0.00115435
-0.0117583
0.0106634
-0.000244694
0.00734478
-0.000264212
0.0100268
-0.01102
-0.000896164
-0.000277669
-0.000334215
0.000138478
-0.0011724
0.00766301
-0.000332279
0.00043284
0.000242287
0.00012297
0.000143854
6.97878e-05
6.27459e-05
-0.000166161
-0.000171312
-0.00010389
8.11588e-05
0.000680858
9.33734e-05
-5.94789e-05
-9.28675e-05
0.00565996
-0.00701749
7.32367e-05
-0.013773
1.15697e-05
0.016537
-0.0142964
1.65061e-05
-0.0169049
2.92209e-05
0.0167254
-4.29078e-06
8.89895e-06
1.73839e-05
3.6254e-05
8.70184e-05
0.000668557
0.000132277
4.44583e-05
2.03861e-05
7.68204e-06
7.73243e-06
7.11177e-06
4.63702e-06
2.60916e-06
0.00186956
4.32739e-06
0.00244417
1.85602e-06
0.00141264
0.00108564
3.20622e-06
0.000893974
0.000486099
1.2756e-05
1.82203e-06
-8.88949e-07
7.6959e-06
4.63864e-06
0.00317172
7.79983e-05
-0.000214126
0.00252745
-0.00014247
0.000112366
-0.000306816
0.00362469
-0.000186762
-0.000349861
-0.00532586
-0.000175273
0.00635487
-0.000416482
-0.000226696
0.000243
0.000166882
1.66221e-05
0.00519415
1.29638e-05
0.00519281
3.03311e-05
4.37799e-05
0.00811677
2.25573e-05
0.0100273
4.0455e-05
0.000109415
0.0120573
-0.000611589
0.00840973
-0.00040679
-0.000501208
-0.0113648
0.000120594
0.0117507
-0.00116455
0.000273409
-0.000241272
-0.00214603
-0.00563615
-4.63271e-05
-0.000878365
-0.000372054
0.000231165
0.000230696
0.0169312
3.32269e-05
-1.90063e-05
-6.2627e-05
-7.25607e-05
-0.000335799
-1.42433e-05
4.68001e-05
3.76574e-05
0.0144854
0.0119773
-1.04258e-05
-1.21845e-06
-3.87726e-05
-9.83819e-05
-0.000131837
-0.000580138
-0.00019608
-0.000181212
-8.42056e-05
-2.85837e-05
0.0122043
-3.06771e-05
4.67126e-06
1.33718e-05
0.00025143
0.000159374
8.1684e-05
-4.12095e-05
-9.59381e-06
0.000360516
0.000488725
0.000679601
-6.86232e-05
0.000285712
0.000253254
-0.000481024
0.00232796
0.00527076
-0.0035935
0.0236132
0.00198539
0.00114066
0.000308962
0.00108964
0.00130177
0.00111449
0.000848967
0.000621486
0.000420425
0.000428366
0.000137068
-4.44766e-05
-4.50318e-05
-0.000713931
-0.000353095
-0.000744706
-0.00036795
0.000139554
0.000411642
-0.000159564
-0.000119531
0.00179581
0.00215448
0.000116239
4.88774e-06
1.00966e-05
1.04342e-05
1.03822e-05
1.15745e-05
1.82442e-05
-2.47775e-05
0.000313509
0.000948903
6.78024e-05
5.40532e-05
7.47729e-06
-2.06038e-06
1.27143e-05
1.25268e-05
1.50023e-05
1.65398e-05
-1.08843e-05
0.000189406
0.000276115
0.000285126
0.000384463
-6.24167e-05
-0.00056883
-0.010024
0.000542062
-0.00975462
0.0112062
0.000805215
-0.0138627
-0.0143372
0.0115216
0.0107868
0.000716075
-0.0130617
-0.015335
0.0123491
-0.000577228
0.0103093
0.0153364
9.77907e-06
8.42542e-05
-0.000870459
0.00173991
0.00220689
0.00261021
0.00532549
0.00617756
0.013032
0.0305371
0.0037834
0.0159866
0.0237021
-0.00205197
-0.00120958
0.00140167
0.00140835
-0.000790874
-0.000578962
0.00757462
0.00812265
0.00793857
0.00770032
0.000533344
-0.0104696
-0.00952276
-0.000577881
0.0109654
0.000806018
-0.0148838
-0.0136659
-0.000800708
0.0145332
0.0154949
0.0137612
-0.000778315
-0.000150294
-0.000212742
-1.71268e-05
2.19802e-05
9.55692e-05
2.22803e-05
2.21016e-05
-3.10871e-05
-1.21976e-05
-0.000214072
0.00216093
-0.000243963
-0.000148132
-0.00033395
-0.000298128
-0.000185944
-0.000315594
-0.000143402
0.00577695
-0.00017552
0.000104833
2.55784e-05
9.24445e-06
0.000238353
0.000207362
-0.00260008
0.0131029
-0.00679766
-0.0240033
-0.0280856
0.00241987
-0.0133778
0.00567849
0.00183999
-0.00829509
-0.0092214
-0.000914018
-0.00134549
0.00879504
0.00815205
-0.000822174
-0.00800767
-0.000171996
0.00793766
-2.4249e-05
8.24381e-05
-2.13784e-06
7.8646e-05
0.000280131
0.000291385
0.000185941
4.55558e-05
3.30312e-05
-5.6886e-05
-5.26496e-05
3.30685e-06
-7.44285e-05
-2.81938e-05
-1.00766e-05
0.000372521
0.000475401
0.000478532
-0.000194252
0.000578536
0.000531532
-0.000302746
0.0205717
-0.0011871
0.0013167
-0.0228202
0.000525708
0.000286461
0.00299098
0.000359529
0.000609501
0.00194714
-0.00015747
-2.73449e-05
-0.000140688
0.000573424
0.00512257
-0.000342532
-0.000229644
-0.000140898
9.99977e-05
-0.0141881
0.0162556
-0.000611404
-2.82927e-06
-0.000763057
-0.00173194
-0.00193202
-0.000358218
-0.000175806
0.00616973
-0.00019699
-0.000207709