/*--------------------------------*- C++ -*----------------------------------*\
| =========                 |                                                 |
| \\      /  F ield         | OpenFOAM: The Open Source CFD Toolbox           |
|  \\    /   O peration     | Version:  2306                                  |
|   \\  /    A nd           | Website:  www.openfoam.com                      |
|    \\/     M anipulation  |                                                 |
\*---------------------------------------------------------------------------*/
FoamFile
{
    version     2.0;
    format      ascii;
    arch        "LSB;label=32;scalar=64";
    class       volScalarField;
    location    "1.7";
    object      gradTz;
}
// * * * * * * * * * * * * * * * * * * * * * * * * * * * * * * * * * * * * * //

dimensions      [0 -1 0 1 0 0 0];

internalField   nonuniform List<scalar> 
5322
(
-0.871916
-0.890083
-0.918832
-0.996046
-0.988143
-0.985202
-0.984275
-0.985019
-0.987816
-0.99587
-0.984494
-0.987284
-0.743004
-1.02436
-1.12011
-0.894137
-1.05694
-0.791269
-1.11407
-1.12425
-1.13135
-1.12627
-1.12682
-1.13279
-1.13273
-1.12651
-1.12691
-1.1322
-1.13262
-1.12705
-1.12686
-1.12904
-1.12131
-1.10347
-1.0492
-0.861381
-0.979768
-0.998541
-1.03073
-0.725866
-0.958527
-0.989217
-0.712855
-0.990679
-0.980996
-0.724697
-1.00441
-0.948094
-0.715046
-0.982021
-1.09983
-0.789219
-1.07404
-1.00907
-0.946107
-0.959369
-1.13803
-0.944502
-0.956008
-0.960389
-1.15191
-0.957232
-0.956402
-0.936703
-1.1511
-0.989408
-0.951838
-0.889623
-1.12376
-1.05037
-0.788401
-1.22862
-1.17013
-1.1535
-1.16575
-1.16008
-1.15948
-1.15539
-1.17045
-1.10822
-1.05422
-0.810359
-0.83997
-1.13542
-0.77435
-1.02951
-1.3894
-0.848711
-0.87008
-0.781896
-0.988774
-0.884181
-0.932897
-0.925516
-1.1236
-0.973034
-0.969652
-0.987002
-1.41405
-0.82601
-0.832939
-0.794674
-0.994475
-1.11038
-1.20791
-0.941023
-0.998332
-1.0006
-0.997224
-0.998506
-0.998788
-0.99839
-0.997216
-1.00063
-1.15213
-1.14095
-0.79844
-0.865209
-1.15243
-0.953574
-0.845242
-1.02806
-1.01365
-1.42806
-1.06379
-1.39835
-1.00401
-1.04838
-1.37434
-0.999769
-1.02607
-1.38675
-1.01526
-1.00696
-1.39309
-1.02961
-1.0132
-1.43032
-1.06457
-1.39844
-1.00651
-0.848122
-0.953668
-0.8531
-0.799923
-1.15256
-0.865248
-0.859166
-0.789302
-0.794503
-1.15028
-0.86034
-0.857016
-0.78975
-0.796409
-1.14998
-0.862067
-0.852696
-0.847826
-1.11993
-0.892822
-1.05832
-1.23067
-1.20289
-0.763121
-1.11428
-0.791343
-1.07189
-0.73392
-0.992544
-1.0256
-0.952693
-0.986531
-1.14505
-0.941858
-1.15995
-1.15184
-1.11242
-0.929705
-1.11049
-1.13666
-1.139
-1.12865
-0.944285
-1.12995
-1.1335
-1.13494
-1.13118
-0.947724
-1.13221
-1.13358
-1.13457
-1.1313
-0.949193
-1.13275
-1.13428
-1.13578
-1.13009
-0.950373
-1.13239
-1.13553
-1.13809
-1.1279
-0.951146
-1.13118
-1.13524
-1.13911
-1.12639
-0.948236
-1.13105
-1.11538
-1.11906
-0.984784
-1.41484
-0.82633
-0.823403
-0.797418
-1.12318
-1.1201
-0.932974
-0.925766
-1.12014
-0.980762
-0.957767
-0.993244
-1.40982
-0.830736
-0.823248
-0.798883
-0.9812
-1.11673
-0.969286
-0.980643
-0.998871
-0.997047
-0.998938
-0.999184
-0.998631
-0.997315
-1.00059
-1.15208
-1.14123
-0.794921
-0.792459
-0.791844
-0.794872
-1.14984
-0.856951
-0.861767
-0.867039
-1.02581
-1.44104
-0.857192
-1.14988
-0.861502
-1.43296
-1.04525
-1.36973
-0.999059
-0.867248
-1.02571
-1.37003
-0.731432
-0.982642
-0.942438
-0.941345
-0.98683
-1.15099
-1.11261
-1.13832
-1.12868
-1.13461
-1.13106
-1.13448
-1.13122
-1.13593
-1.13001
-1.13865
-1.12755
-1.14039
-1.12523
-1.12607
-0.972145
-1.41422
-0.990789
-0.969296
-1.11278
-1.13376
-0.948724
-1.13488
-1.13256
-0.95158
-1.13601
-1.13294
-0.950681
-1.13496
-1.13284
-0.949367
-1.13429
-1.132
-0.947792
-1.13446
-1.12929
-0.944267
-1.13823
-1.1093
-0.929449
-1.16153
-0.952778
-1.16022
-1.11055
-0.929456
-1.15217
-0.986588
-1.14479
-0.950622
-0.740348
-1.0278
-0.894319
-1.16522
-1.11487
-1.13614
-1.13526
-1.13395
-1.13527
-1.13531
-1.13434
-1.1374
-1.13253
-1.14199
-1.12625
-1.14779
-1.11462
-1.1289
-0.97745
-1.3936
-1.03188
-0.933933
-1.19818
-1.21723
-0.918034
-1.21951
-1.21468
-0.92134
-1.21858
-1.21312
-0.91948
-1.21522
-1.21237
-0.917931
-1.21439
-1.21305
-0.917001
-1.2149
-1.21281
-0.915027
-1.21973
-1.2033
-0.90224
-1.23048
-1.05811
-1.11955
-0.992187
-1.04823
-0.914542
-1.07538
-0.731836
-0.835269
-0.950095
-0.872183
-1.19241
-1.16127
-1.11874
-1.1112
-0.927166
-1.15244
-1.16918
-0.907797
-1.14967
-1.00979
-0.960383
-0.944022
-1.39141
-1.12274
-1.06444
-1.42859
-1.0241
-0.954718
-0.975035
-0.947607
-1.16145
-1.10927
-0.939383
-1.13904
-1.12928
-1.13507
-1.13204
-0.934014
-1.13522
-1.13224
-1.13668
-1.13095
-0.931722
-1.13907
-1.12826
-1.13951
-1.12714
-0.926768
-0.933977
-0.935211
-0.935301
-0.936919
-0.933442
-1.14273
-1.12835
-0.949745
-1.13807
-1.1268
-1.1456
-1.12119
-0.945033
-1.14247
-1.09702
-1.22142
-0.93779
-1.38206
-0.839852
-0.803602
-0.817187
-1.08125
-0.877821
-0.781409
-1.14188
-0.764814
-1.09944
-1.14016
-0.763771
-1.12281
-1.13364
-0.761941
-1.13161
-1.13397
-0.761484
-1.12819
-1.12681
-0.761953
-1.13253
-1.12664
-0.763276
-1.13007
-1.11829
-0.762659
-1.11999
-0.858261
-0.82749
-1.03089
-0.900051
-1.00307
-1.04021
-1.15984
-1.17195
-1.16138
-1.16822
-1.13287
-1.13518
-0.945807
-1.13699
-1.1363
-1.13369
-0.942992
-1.1303
-0.937391
-0.88691
-0.889957
-0.791222
-0.92255
-0.895522
-0.859085
-1.0015
-0.994226
-0.983939
-0.993053
-0.771153
-1.25659
-0.695962
-0.934259
-0.99192
-0.969383
-0.973434
-1.00155
-0.986459
-0.983458
-1.00304
-0.973382
-1.03931
-0.913615
-1.02844
-1.03192
-1.1661
-1.16489
-1.16922
-1.16164
-1.13522
-1.13311
-0.94873
-1.13594
-1.13889
-1.13475
-0.947238
-1.13417
-0.935121
-0.886883
-0.886644
-0.787649
-0.919527
-0.909496
-0.870717
-0.919384
-0.889103
-0.853662
-1.02566
-0.912653
-0.788497
-0.994766
-0.999298
-0.988141
-0.987928
-0.932179
-0.904892
-0.898507
-0.789338
-0.983777
-0.970955
-1.11198
-0.937963
-1.13921
-1.1372
-1.13022
-0.944427
-1.12835
-0.933578
-1.13512
-1.13396
-1.13233
-0.948044
-1.13132
-0.932063
-1.13457
-1.13463
-1.1323
-0.949741
-1.1322
-0.931064
-1.1354
-1.13647
-1.13089
-0.95119
-1.13215
-0.929619
-1.13636
-1.13965
-1.12749
-0.952068
-1.13189
-0.927344
-1.13387
-1.14164
-1.12461
-0.948403
-1.13266
-0.922277
-1.11244
-1.12312
-0.983184
-0.967558
-0.983343
-0.802335
-0.826418
-0.794176
-0.752433
-1.07812
-0.768044
-1.0367
-0.852432
-0.8168
-1.06726
-1.09427
-0.919955
-0.970241
-0.970196
-0.977815
-0.99778
-0.978474
-0.980595
-1.00418
-0.976274
-1.00383
-0.982067
-0.975006
-0.977524
-0.981467
-0.989866
-0.977925
-0.978764
-0.744713
-1.01715
-0.900283
-0.936295
-0.940675
-0.958784
-0.990704
-1.14771
-0.865242
-1.06611
-1.05271
-1.06405
-1.07976
-0.845908
-1.06269
-1.0665
-1.06144
-1.1488
-0.776304
-0.781411
-0.78003
-0.77879
-0.776288
-0.77354
-1.15053
-0.778781
-0.777963
-0.778235
-1.1506
-0.780081
-1.15542
-1.15677
-1.15437
-1.02413
-1.0223
-0.949745
-0.936657
-0.934209
-0.934635
-0.934866
-0.934598
-0.886418
-0.787866
-0.916554
-0.906467
-0.866823
-1.03427
-1.02892
-1.17967
-1.14339
-1.20432
-0.923682
-0.995376
-0.849066
-1.04384
-0.921744
-0.978476
-0.998702
-0.972487
-0.969922
-0.971145
-1.00712
-0.993903
-0.978821
-0.929493
-0.890385
-0.898713
-0.934593
-0.737463
-0.807595
-1.09257
-0.989483
-1.03635
-1.06246
-0.703702
-0.878397
-0.92647
-1.09477
-0.729308
-0.915078
-0.931596
-1.10005
-0.73224
-0.903575
-0.942541
-1.09597
-0.746049
-0.892724
-0.997748
-1.36301
-1.01735
-0.992723
-1.24814
-1.20986
-0.985329
-0.745595
-1.07409
-1.00984
-0.945632
-0.957369
-0.949985
-0.715369
-0.980285
-1.10032
-0.788989
-1.05492
-0.810813
-0.840712
-1.13582
-1.07763
-0.872427
-1.14332
-1.11005
-0.895903
-1.13639
-1.12394
-0.898441
-1.1328
-1.12776
-0.900033
-1.13063
-1.129
-0.899432
-1.13024
-1.12911
-0.901182
-1.12832
-1.12977
-0.886157
-1.12469
-1.11357
-0.863946
-1.07235
-0.909871
-1.04692
-0.991011
-1.05775
-1.23087
-1.20259
-0.90224
-1.16742
-0.89247
-1.12004
-1.02738
-0.740499
-0.949417
-0.983307
-1.14505
-0.937739
-0.98504
-0.986315
-0.996585
-0.987704
-0.990248
-0.986835
-0.984656
-0.919081
-0.892022
-0.856125
-1.03773
-1.03845
-0.916532
-0.914107
-0.974449
-0.990918
-1.13559
-1.13692
-0.935812
-1.13171
-1.13393
-0.949939
-1.13243
-1.13471
-0.951272
-1.13214
-1.13585
-0.95187
-1.13079
-1.13474
-0.94814
-1.12885
-0.993824
-1.00288
-0.982456
-0.988189
-0.976541
-0.971783
-0.973531
-0.975891
-0.97856
-0.982557
-0.991062
-0.981011
-0.981946
-0.74023
-0.98331
-0.93729
-0.986168
-0.985149
-0.996227
-0.987526
-0.983912
-0.981557
-0.97932
-0.977457
-0.980079
-1.02369
-1.01789
-0.743104
-1.3261
-0.999815
-0.959633
-0.932838
-1.10004
-0.733498
-0.735284
-0.804852
-1.14694
-0.767397
-0.778966
-0.794043
-1.15348
-0.770901
-0.782456
-0.787173
-1.14865
-0.787259
-0.800767
-0.869496
-1.44913
-1.03104
-1.00663
-1.01142
-1.00232
-0.849475
-0.818612
-0.872682
-1.44378
-0.863407
-0.865056
-1.15116
-0.958819
-0.955875
-0.935822
-0.995316
-0.71237
-0.985317
-0.986064
-0.726211
-1.00056
-0.947023
-0.955424
-0.957035
-1.16115
-1.15727
-1.16758
-1.15171
-0.956402
-0.902179
-0.982058
-1.15293
-0.966028
-0.733014
-1.02583
-0.900108
-0.731772
-1.22583
-0.676529
-0.934634
-0.819235
-1.00655
-1.01279
-0.846073
-1.03655
-1.02684
-0.870164
-1.03024
-1.03674
-0.852725
-1.03718
-1.02915
-0.873501
-1.02859
-1.03806
-0.850842
-1.03696
-1.03026
-0.871674
-1.02525
-1.0403
-0.848523
-1.01342
-1.02048
-0.829471
-0.950654
-0.693419
-1.25231
-0.901092
-0.771999
-1.42988
-1.01399
-1.06398
-1.3968
-1.00549
-1.0465
-1.37276
-0.998421
-1.02749
-1.38659
-1.01782
-1.00423
-1.39225
-0.746896
-0.957709
-1.14826
-0.944666
-0.953282
-1.15889
-0.929501
-1.11046
-1.11101
-0.937939
-1.13656
-0.914955
-1.13384
-1.21244
-0.788753
-1.21501
-0.761023
-1.21203
-0.787577
-1.21268
-0.760469
-1.21271
-0.787421
-1.21273
-0.760492
-1.21276
-0.787652
-1.21222
-0.760998
-1.21491
-0.788695
-1.21247
-0.76202
-1.21891
-0.790498
-1.20173
-0.760366
-0.895878
-1.14781
-1.12101
-0.943052
-1.16632
-0.910252
-1.16605
-1.13178
-0.93825
-1.16609
-0.911243
-1.16452
-1.13335
-0.936858
-1.16468
-0.911082
-1.16531
-1.13384
-0.936209
-1.16589
-0.911122
-1.16392
-1.13466
-0.936717
-1.16516
-0.911428
-1.16491
-1.13639
-0.938085
-1.16824
-0.911137
-1.16439
-1.14145
-0.943719
-1.15401
-0.899645
-1.1984
-1.15207
-0.960481
-0.868439
-0.834486
-0.732743
-0.992518
-1.0483
-0.910037
-1.0727
-0.861592
-0.895702
-0.907501
-0.93432
-0.938392
-0.980611
-1.14551
-0.942197
-0.984459
-0.949783
-1.16535
-0.902686
-1.20238
-0.791378
-1.21945
-0.76253
-0.995553
-0.985441
-0.973004
-1.15296
-1.02243
-1.43189
-0.861749
-1.14989
-0.857444
-0.865943
-1.06489
-1.06008
-1.05184
-1.06079
-1.06731
-1.44058
-1.02349
-0.953102
-0.937799
-0.939106
-0.941853
-1.1405
-1.14206
-0.943358
-0.987797
-0.980018
-0.973866
-1.15159
-0.929933
-1.11231
-1.13725
-0.944603
-1.12918
-1.13412
-0.948255
-1.02694
-0.936538
-0.937505
-0.936951
-0.937156
-0.934726
-0.936995
-0.936792
-0.936052
-0.935538
-0.934317
-0.936837
-0.938052
-1.11285
-1.13737
-1.21901
-1.21237
-1.2143
-1.21182
-0.761314
-1.13023
-0.788215
-1.12855
-0.762757
-1.1312
-0.791155
-1.12495
-0.884984
-0.850137
-1.03737
-0.911233
-1.02794
-1.16684
-0.938006
-1.13577
-0.944551
-1.13264
-1.13403
-0.936223
-1.13261
-0.948125
-1.13218
-1.13267
-0.934181
-1.13228
-0.947879
-1.13322
-1.13328
-0.93298
-1.13387
-0.916569
-1.13494
-1.13333
-0.915282
-1.13872
-1.11238
-0.903471
-1.00228
-1.00266
-0.997958
-0.998691
-0.998867
-0.998478
-0.997298
-1.00074
-1.15215
-1.14068
-0.795523
-0.789055
-0.793455
-0.860002
-1.43964
-1.02369
-1.02438
-1.42717
-0.859512
-0.864592
-1.06693
-1.06423
-1.12328
-1.06348
-1.4327
-1.02218
-0.949681
-1.16652
-0.903042
-0.999741
-0.980622
-1.15453
-1.14852
-0.778037
-0.775473
-1.15059
-0.772899
-0.788599
-1.15016
-0.981129
-0.939055
-0.890094
-0.943879
-1.38967
-1.20046
-0.960866
-1.15037
-0.926968
-1.12001
-1.10883
-0.941728
-1.13671
-0.944081
-1.12808
-0.935671
-1.133
-0.946984
-1.13193
-1.13099
-0.932814
-1.13369
-0.916596
-1.13417
-1.13384
-0.916614
-1.13425
-0.934959
-0.934894
-0.93476
-0.934411
-0.936879
-0.980549
-1.15448
-1.14832
-0.959018
-1.00368
-0.981214
-0.999647
-0.980296
-0.958964
-1.00345
-0.937371
-0.939224
-0.935607
-0.935139
-0.936354
-0.933645
-0.983903
-0.981479
-0.979327
-0.98218
-0.979607
-0.908051
-0.889199
-0.892721
-0.89995
-0.73399
-1.01904
-0.750383
-1.35929
-0.981239
-0.958413
-0.960196
-1.11282
-0.986031
-1.03283
-0.981095
-1.34963
-0.966959
-0.958013
-0.931302
-1.09538
-0.731797
-0.745178
-0.812415
-1.14059
-0.764141
-0.790779
-0.804403
-1.14691
-0.767586
-0.791966
-0.799901
-1.1421
-0.785525
-0.805517
-1.16259
-0.998465
-0.933018
-0.92579
-1.13309
-1.20822
-0.918116
-1.22098
-0.763479
-0.914824
-1.18214
-0.934958
-1.1225
-1.14804
-0.936126
-1.10017
-1.18613
-1.13335
-1.05101
-0.837004
-0.957977
-0.889905
-1.10798
-1.1715
-1.15344
-1.11807
-0.940022
-1.10838
-0.931733
-1.11409
-0.939799
-1.10858
-0.932474
-1.11509
-0.942393
-1.10897
-1.17429
-1.14759
-0.9563
-0.848084
-1.00915
-1.15398
-0.845257
-1.01286
-1.03047
-0.990984
-0.864279
-0.863209
-0.86847
-1.43507
-0.869576
-0.958204
-1.37601
-1.03421
-0.994238
-0.844694
-0.858295
-1.15979
-0.797092
-0.796584
-1.15646
-0.98433
-1.00522
-1.00074
-0.997386
-0.998669
-0.998915
-0.998486
-0.997273
-1.00067
-1.15215
-1.14097
-0.772879
-0.776054
-1.05593
-1.05181
-1.06365
-1.36946
-1.04563
-0.847682
-0.852906
-0.953328
-0.865309
-0.8456
-1.01374
-1.43034
-1.06405
-1.3895
-1.00503
-1.39604
-1.12333
-1.08072
-1.06449
-1.42759
-0.859613
-0.860167
-1.15028
-0.791537
-0.791033
-0.86034
-0.859511
-0.863976
-1.01923
-1.40483
-1.01979
-1.43904
-1.02307
-1.0241
-0.943952
-0.791807
-0.897481
-0.904428
-0.934684
-0.987881
-0.987524
-0.99918
-0.990571
-0.987105
-0.984901
-0.982817
-0.981042
-0.977843
-0.982463
-0.981327
-1.01417
-0.747661
-0.819631
-0.824275
-1.41483
-0.958466
-0.968783
-0.999022
-1.3225
-0.740532
-0.822584
-0.825072
-0.752949
-0.832898
-0.848122
-1.38956
-0.997105
-1.02949
-0.782326
-0.870157
-0.948951
-0.893069
-0.906251
-0.983414
-1.02545
-1.02306
-0.98286
-0.981246
-1.01152
-1.00544
-0.999123
-0.996165
-0.995201
-0.979345
-0.97692
-0.976639
-0.971107
-0.984381
-0.922829
-0.920801
-0.919975
-0.91918
-0.917532
-0.913414
-1.00637
-0.990633
-0.99124
-0.988021
-0.984427
-0.98165
-0.981107
-0.978905
-0.99378
-0.993641
-1.13808
-1.21908
-1.21213
-1.21448
-1.2117
-0.916167
-1.13476
-1.13332
-0.914483
-1.03828
-0.936682
-0.93797
-1.11223
-1.02253
-1.4321
-0.999089
-0.949885
-0.980306
-0.999744
-1.15238
-0.798605
-0.790053
-1.06795
-1.05936
-1.06729
-1.0555
-0.772163
-1.15066
-1.05593
-1.06412
-0.866554
-1.08078
-1.05637
-1.05109
-1.06333
-1.06635
-1.12351
-1.06421
-1.06676
-1.06824
-1.0815
-0.797521
-0.865613
-0.953242
-1.15231
-0.853394
-0.847277
-0.999847
-0.981471
-1.15465
-1.14803
-0.959025
-0.981466
-0.939242
-0.890125
-0.791358
-0.887022
-0.7885
-0.934153
-0.933721
-0.934481
-0.932131
-1.13422
-1.13464
-1.21347
-1.21095
-1.21437
-1.20986
-0.917852
-1.13507
-1.13437
-0.916829
-1.04211
-0.886609
-0.787355
-0.886439
-0.786938
-0.934584
-0.931109
-0.936603
-0.932662
-0.936336
-0.931588
-0.935013
-0.932925
-0.883947
-0.787953
-0.930075
-1.04242
-1.04302
-1.0426
-1.04179
-1.03832
-1.02183
-1.00267
-1.00087
-1.02585
-1.00696
-1.00252
-1.02689
-1.00824
-1.0027
-1.00106
-1.0229
-1.02204
-1.00263
-1.00597
-1.00387
-1.00589
-1.00649
-1.0031
-1.02714
-1.00831
-1.00274
-1.02623
-1.00698
-1.00088
-1.02134
-1.03712
-0.930601
-1.11604
-0.740265
-1.16854
-0.99634
-0.979798
-1.14509
-0.78695
-1.15893
-1.06774
-1.0362
-0.977299
-1.3401
-0.969247
-0.96249
-0.903462
-1.0702
-1.08034
-0.850968
-0.96297
-1.07155
-1.0795
-0.989047
-0.96835
-1.33228
-0.98154
-1.03919
-1.04536
-1.04798
-1.03971
-0.977391
-1.07009
-0.944686
-0.942683
-1.09613
-0.746599
-0.730878
-0.800019
-1.14239
-0.78492
-0.773825
-0.787252
-1.14913
-0.785872
-0.777316
-0.780351
-1.14406
-0.801556
-0.869734
-1.43837
-1.05857
-0.992782
-0.866882
-0.861948
-1.15639
-0.983519
-1.00499
-1.00134
-1.00263
-1.00297
-1.00249
-1.00091
-1.00362
-1.0227
-1.03823
-0.915252
-1.13353
-1.13425
-0.916879
-1.13415
-1.13415
-1.21319
-1.21093
-1.21402
-1.20975
-0.760749
-1.12858
-0.786515
-1.13115
-0.760709
-1.13
-0.787018
-1.13074
-0.898683
-0.861653
-1.03302
-0.911368
-1.03264
-1.16405
-0.935691
-1.13267
-0.945114
-1.13511
-1.13406
-0.935735
-1.1303
-0.947388
-1.13389
-0.935833
-1.12941
-0.944762
-1.13881
-1.1398
-0.938848
-1.11456
-0.931901
-1.11051
-1.11288
-0.940198
-1.13829
-1.13914
-1.10941
-0.931447
-0.982712
-0.938414
-0.936112
-0.936622
-0.936743
-0.936662
-0.936383
-0.886912
-0.886434
-0.934599
-0.932168
-0.934638
-0.931042
-1.13407
-1.13456
-0.918389
-1.13378
-1.1359
-1.21671
-1.20864
-1.22028
-1.20846
-0.763414
-1.11076
-0.786618
-1.13683
-0.761579
-1.12466
-0.78644
-1.13337
-0.897738
-0.860092
-1.02894
-0.913311
-1.03672
-1.15376
-0.935079
-1.12258
-0.941048
-1.14738
-1.13379
-0.940149
-1.11721
-0.924702
-1.10071
-1.18572
-0.936358
-1.13309
-1.05012
-0.957292
-0.889314
-0.957217
-0.989317
-0.836133
-0.871746
-1.14355
-1.07821
-0.783751
-0.903804
-0.910774
-0.914963
-0.916714
-0.917604
-0.918495
-0.920571
-0.895633
-0.905758
-1.0484
-0.910054
-0.693269
-0.834778
-0.950388
-0.86738
-1.25321
-0.77038
-0.898123
-1.15031
-1.00921
-0.905838
-0.955018
-1.15054
-0.929754
-1.10757
-0.939171
-1.13609
-0.9439
-1.12976
-1.12774
-0.934036
-1.13386
-0.916438
-1.13418
-0.995287
-0.980513
-1.13503
-0.978754
-1.1397
-0.99053
-0.98951
-0.976582
-0.97931
-0.938996
-1.01773
-0.992702
-0.935597
-0.99086
-0.830772
-1.01809
-0.900002
-1.15226
-0.943717
-1.14044
-0.942283
-1.13092
-1.1319
-0.937695
-1.13353
-0.947244
-1.13148
-0.934547
-1.13264
-0.947827
-1.13264
-1.1323
-0.932524
-1.13267
-0.981518
-0.981435
-1.13352
-0.979881
-0.978861
-0.982121
-0.98667
-1.14186
-0.980364
-1.171
-0.983411
-0.96981
-1.01452
-1.00124
-0.994113
-0.973063
-1.16606
-1.00216
-0.863544
-1.0331
-0.911537
-1.165
-0.936351
-1.134
-0.945029
-1.1336
-1.13441
-0.935698
-1.13176
-0.948199
-1.13318
-0.934532
-1.13153
-0.947282
-1.13423
-1.13484
-0.934461
-1.12936
-0.934982
-1.02618
-1.02675
-1.00817
-1.00326
-1.00277
-1.00116
-1.00387
-1.00266
-1.02178
-1.02574
-1.04158
-0.936654
-0.936997
-0.937111
-1.04224
-1.02695
-1.02673
-1.00816
-1.00692
-1.027
-1.02303
-0.944453
-1.13879
-0.938955
-1.13788
-1.12904
-0.935794
-1.13421
-1.13477
-1.12851
-1.12873
-0.937815
-1.13425
-1.13653
-1.13208
-1.14141
-0.941661
-1.13768
-1.11174
-1.10837
-1.10931
-1.11082
-0.941587
-1.14036
-1.13839
-0.944449
-1.12824
-0.937777
-1.13592
-1.13466
-0.947652
-1.1312
-0.936442
-1.13505
-1.13354
-1.13343
-1.13392
-0.93473
-1.13201
-1.13168
-0.947644
-1.13148
-0.936447
-1.13319
-1.13567
-1.13415
-0.945189
-1.13596
-1.16534
-0.937811
-1.13105
-0.942878
-1.1406
-1.16665
-0.943409
-1.11993
-1.10928
-1.16995
-0.954797
-1.15156
-0.930277
-1.16137
-0.953427
-1.15992
-0.930236
-1.15291
-0.954721
-1.16853
-1.11017
-1.11888
-0.927435
-0.981507
-0.973496
-0.97874
-0.749516
-1.01414
-0.964031
-0.98745
-0.989122
-0.745511
-0.976005
-0.942625
-0.962346
-1.01533
-0.749373
-1.39794
-1.02945
-1.00303
-0.864227
-1.14843
-0.974572
-0.944895
-0.946542
-0.972882
-0.908554
-1.00728
-1.15025
-0.845098
-1.02932
-1.39752
-1.00367
-1.42736
-1.02418
-0.939299
-0.938075
-0.936388
-0.937163
-1.02787
-0.948533
-1.13269
-0.934337
-1.13273
-1.13348
-1.13221
-1.13568
-0.935886
-1.1327
-1.13448
-0.945738
-1.13419
-1.1655
-0.936219
-1.1329
-1.16521
-0.912159
-1.03384
-1.03344
-0.86277
-1.03381
-1.03364
-0.863047
-1.03311
-1.03488
-0.861179
-1.02991
-1.03769
-0.857548
-1.01127
-0.970946
-0.999211
-0.972642
-1.00202
-0.97299
-1.00238
-0.972889
-1.00256
-0.972792
-1.00284
-0.864236
-1.02919
-1.16678
-0.911799
-1.03756
-1.01545
-0.851425
-1.00167
-0.973383
-0.969861
-1.01847
-0.900616
-1.20065
-0.960396
-1.1506
-0.92753
-0.981461
-0.982086
-0.992939
-0.771128
-0.899785
-1.25272
-0.693409
-0.951259
-0.830949
-0.990549
-0.935676
-0.835157
-0.867664
-1.00862
-0.907369
-1.15026
-0.939064
-0.978455
-0.973575
-0.986295
-0.992715
-0.985778
-0.98297
-0.981923
-0.935588
-1.13289
-1.16654
-1.1644
-1.13394
-0.989443
-0.9888
-0.988211
-0.982497
-0.979284
-0.976061
-0.974784
-0.989876
-0.945871
-1.13403
-0.935922
-1.13052
-1.13634
-1.13014
-1.17054
-0.935307
-1.13555
-1.16223
-0.912686
-0.760754
-0.996663
-0.983568
-0.986765
-1.00071
-1.13631
-1.21721
-1.2087
-0.787138
-0.88529
-0.886171
-0.786893
-0.934381
-0.930081
-1.13435
-0.933449
-0.929045
-1.13351
-0.919194
-1.04175
-0.936998
-0.936441
-1.03791
-1.02196
-1.02619
-1.00708
-1.00823
-1.02792
-1.00293
-1.00601
-1.00286
-1.00326
-1.02797
-1.02694
-1.02599
-1.00688
-1.02659
-1.04147
-1.04195
-0.91748
-0.996391
-0.995664
-0.981481
-0.983393
-0.989138
-0.980462
-0.97914
-0.972999
-0.98561
-0.933875
-0.995537
-0.985854
-0.983563
-0.985806
-0.98838
-0.993868
-0.991244
-0.988717
-1.00211
-0.99825
-1.13252
-1.1366
-0.918491
-1.13151
-1.00756
-0.992275
-0.986833
-0.991798
-0.892119
-0.950295
-1.2106
-1.24754
-0.745514
-0.997439
-1.36329
-1.01706
-0.849712
-1.00214
-1.01322
-0.86627
-0.868803
-1.45116
-1.03708
-1.00482
-1.27782
-1.10243
-1.10386
-1.0446
-1.06702
-0.790371
-1.1609
-0.981324
-1.00325
-1.00097
-1.0272
-1.02818
-1.02708
-0.936643
-0.934359
-0.929874
-0.933365
-0.928761
-0.885012
-0.885899
-0.886205
-1.16595
-1.16182
-0.935374
-1.12997
-0.944522
-1.13878
-1.13281
-0.936587
-1.12693
-0.944424
-1.13036
-0.936293
-0.93672
-1.02747
-1.04202
-1.0415
-0.919661
-1.02625
-1.00699
-1.00815
-1.0081
-1.02743
-0.936613
-0.935902
-0.93767
-1.13978
-0.979775
-1.12877
-0.973967
-1.11212
-1.16267
-0.942371
-0.975526
-0.9905
-0.738628
-0.980839
-0.97981
-0.981933
-0.987165
-1.13662
-0.98696
-0.972365
-1.03249
-1.00183
-0.984091
-0.97239
-1.16495
-1.0016
-0.862018
-1.03219
-0.911883
-1.03387
-0.972433
-1.00121
-0.983113
-0.983041
-0.987733
-1.13558
-0.98308
-1.13394
-0.977639
-0.98812
-1.13546
-0.983244
-1.13307
-0.978082
-0.988356
-1.13595
-0.972112
-1.16994
-0.998462
-0.856503
-1.01035
-0.914117
-1.18159
-0.970554
-0.984507
-0.989635
-0.976502
-0.951737
-0.893343
-0.938358
-0.921131
-0.978882
-0.988119
-1.13594
-0.980604
-0.987923
-0.9767
-0.961133
-0.939988
-0.975442
-0.980692
-0.982417
-1.13455
-1.13259
-0.97979
-0.978871
-0.982984
-0.99097
-0.980579
-0.967567
-0.940051
-0.974966
-0.97965
-0.980847
-1.13172
-0.995271
-0.995211
-0.995186
-0.917584
-0.918398
-0.920296
-0.882382
-0.909945
-0.917752
-0.917779
-0.918502
-0.995406
-0.984819
-0.984148
-0.980556
-0.933244
-0.726747
-0.813253
-0.919229
-0.976702
-0.990926
-0.986021
-0.978992
-0.975729
-0.974652
-0.97562
-0.978764
-0.985892
-0.984518
-0.973585
-0.976203
-0.976232
-0.942479
-1.14843
-0.93864
-0.993334
-0.9818
-0.992316
-0.988629
-0.94291
-1.13052
-1.13268
-0.936742
-1.02304
-1.00264
-0.959087
-1.02192
-1.0384
-0.890373
-0.944071
-1.3898
-1.23132
-0.762506
-0.88726
-1.0417
-1.02699
-1.00687
-1.02583
-1.02666
-1.00809
-1.02786
-0.937091
-0.937236
-0.93739
-0.937278
-1.02714
-0.94783
-1.133
-0.934637
-1.13153
-1.13555
-0.935884
-1.12847
-1.1311
-1.1333
-1.13545
-0.936669
-1.12669
-1.13648
-1.13254
-0.945302
-1.13932
-1.15416
-0.914165
-0.76164
-0.990091
-0.981987
-0.983347
-0.988287
-0.989752
-0.957273
-0.951614
-0.893381
-0.975189
-0.938394
-0.920793
-0.979832
-0.989668
-0.977657
-0.975206
-0.985365
-0.986252
-1.13376
-1.13303
-1.13407
-1.13314
-0.936584
-1.1341
-1.13214
-0.947968
-1.1342
-0.93817
-1.13205
-1.13018
-0.945289
-1.13793
-1.14273
-1.14
-0.943343
-1.0393
-1.02407
-1.0016
-1.00406
-1.00217
-1.00316
-0.933837
-0.926855
-1.1222
-0.79898
-0.733884
-1.15911
-1.06629
-1.06718
-0.977688
-1.0408
-1.04843
-1.06581
-0.777632
-1.14928
-0.958296
-1.15141
-1.15742
-1.15158
-1.15097
-1.12133
-0.892301
-1.04569
-1.33289
-0.754477
-0.985553
-1.1174
-1.03906
-1.10293
-1.02657
-0.992998
-1.29397
-1.08714
-0.805362
-0.871795
-1.44457
-0.864245
-1.15508
-0.802417
-1.15758
-0.95981
-1.00661
-1.00277
-1.02199
-1.02221
-1.03768
-1.02299
-1.0267
-1.02299
-1.0035
-1.00719
-1.02735
-1.02795
-1.04226
-0.937279
-0.937296
-0.936766
-1.02334
-0.938605
-0.884392
-0.784207
-1.20884
-0.774497
-0.991215
-1.10911
-0.940337
-0.985346
-0.988693
-1.12112
-0.795484
-0.730449
-1.16106
-0.981256
-0.959869
-1.15089
-0.773607
-1.15129
-1.06626
-1.06648
-1.0691
-0.946344
-1.04533
-1.33205
-0.9854
-1.03933
-1.04478
-1.04612
-1.04992
-1.06617
-0.78242
-1.15126
-1.08337
-1.04667
-1.0816
-1.06682
-0.778605
-1.15331
-0.9614
-1.15761
-1.15697
-1.02795
-0.938501
-0.939068
-1.02821
-1.02355
-0.890803
-0.940885
-0.939366
-0.982949
-1.02319
-1.02738
-1.0294
-0.94511
-1.1984
-0.964748
-0.972498
-0.985289
-0.982742
-0.981861
-0.982646
-0.985338
-0.989282
-1.13448
-1.13269
-0.945284
-0.887032
-1.04218
-0.945738
-1.13349
-1.1351
-0.9361
-1.13472
-1.13287
-1.13236
-0.948531
-1.13315
-0.986178
-0.974687
-0.977801
-0.984825
-0.98498
-0.982653
-0.986064
-0.973549
-0.974486
-0.977649
-0.983345
-1.14034
-1.13676
-1.14079
-0.983565
-0.985384
-0.986297
-0.94862
-0.989784
-1.13567
-1.13439
-0.945784
-0.887174
-0.886847
-1.04205
-0.94548
-1.13588
-1.13714
-0.989419
-0.972818
-0.972814
-0.972812
-0.972836
-0.97329
-0.969559
-0.935449
-0.990692
-1.00199
-1.00355
-1.00272
-0.989743
-1.00316
-1.00287
-1.00354
-0.988844
-0.981535
-0.928335
-0.978037
-0.984756
-0.984647
-0.973531
-0.959769
-0.939394
-0.977316
-0.973935
-0.959689
-0.942753
-0.973196
-0.971917
-0.938404
-0.967678
-0.887582
-0.94476
-1.13297
-0.941712
-1.00008
-0.979796
-1.15496
-1.08416
-1.08702
-1.11716
-1.02626
-1.10256
-1.10386
-1.10238
-1.08447
-1.04401
-1.09943
-1.29263
-1.10255
-1.10492
-1.18415
-1.15459
-1.29922
-1.30042
-1.28023
-1.29646
-1.29439
-0.954643
-0.958434
-1.00284
-1.16261
-0.819298
-0.954583
-0.98563
-0.948616
-0.925172
-1.1377
-0.936815
-1.1333
-0.908011
-0.886961
-0.912053
-0.884745
-0.895232
-0.899352
-1.16479
-1.13117
-1.13508
-0.982975
-1.29448
-1.13661
-0.994646
-0.760642
-0.912085
-0.733889
-1.15212
-0.763086
-0.762596
-0.761185
-0.900939
-0.863658
-0.933821
-0.89996
-0.959336
-0.951196
-0.754604
-0.930572
-1.15024
-0.79001
-1.06302
-0.751422
-1.11329
-0.932887
-0.954626
-0.879591
-0.850778
-0.741267
-0.930533
-0.931695
-0.935733
-0.787437
-0.936902
-1.13514
-0.933613
0.991211
0.979552
0.990473
0.983757
0.977609
0.975068
0.974554
0.975884
0.979239
0.986271
0.973019
0.967929
0.720736
1.01651
1.15213
0.905373
1.00624
0.955354
1.19655
0.895481
1.14854
1.01049
0.847792
1.03572
1.02734
0.862966
1.03478
1.03113
0.864162
1.03429
1.03182
0.860118
1.03452
1.03102
0.861542
1.0316
1.03318
0.860531
1.02632
1.03741
0.850376
1.01119
1.01841
0.829423
0.94835
0.692009
1.25012
0.770928
0.899321
1.01287
0.750217
0.96185
0.990003
0.747326
0.982567
0.980714
0.752891
0.993526
0.952289
0.746436
0.983301
1.18098
0.818978
1.09759
1.03433
0.952805
0.957554
1.13498
0.948663
0.953467
0.953357
1.14436
0.955239
0.951866
0.93654
1.14574
0.973285
0.953034
0.903735
1.14811
1.00504
0.958713
0.865475
0.832176
0.730747
0.907854
1.06994
1.11203
1.122
1.12844
1.12628
1.12803
1.12818
1.12753
1.12962
1.12893
1.12965
1.12924
1.13012
1.12765
1.12843
1.12033
1.10354
1.04891
0.86121
0.97744
0.997166
1.02814
0.956261
0.720925
1.29048
0.997834
1.05668
0.993864
1.03173
1.15462
1.18276
1.10055
1.04943
1.05366
1.05
1.10043
1.29069
1.05662
0.846309
0.857211
0.9571
0.869711
0.846771
1.01041
1.30112
1.03164
1.37531
0.993731
1.15461
0.977257
0.997226
1.05067
1.22736
1.20181
0.903428
1.16955
0.89062
1.12178
1.02873
0.720304
0.95532
0.987787
1.15378
1.11478
1.14017
1.13024
1.13537
1.13249
1.13443
1.13229
1.13533
1.1305
1.1375
1.12778
1.13866
1.12556
1.12326
0.971257
1.40895
0.98711
0.967879
1.11109
1.13233
0.947795
1.13404
1.13139
0.950802
1.13606
1.13174
0.95037
1.1365
1.13134
0.94962
1.13672
1.13089
0.948507
1.13648
1.12985
0.945609
1.13969
1.11195
0.93214
1.16381
0.942486
1.14943
0.984857
0.709712
0.991461
0.94696
1.15191
0.96135
0.719467
1.0204
0.90511
1.17298
1.11165
1.14138
1.1372
1.13329
1.14372
1.12802
1.14667
1.13219
1.13125
1.13765
1.12848
1.14029
1.11852
1.13241
0.97812
1.41359
1.01573
0.959461
1.07228
1.22998
0.916237
1.21341
1.21041
0.917257
1.21203
1.21064
0.916972
1.22761
1.10391
0.947703
1.15864
1.11939
0.946774
1.14605
1.12763
0.943874
1.14332
1.11965
0.928005
1.14855
1.00853
1.1521
0.900278
0.732759
1.22674
0.851964
1.19478
1.15212
0.896021
1.01283
0.934467
0.814174
0.677362
0.863369
0.727292
1.05032
1.10749
0.760695
1.20303
1.11328
0.902556
1.2267
1.17034
0.890205
1.12157
1.05193
0.78698
0.944638
1.37604
0.993529
1.15452
1.03179
1.30117
1.01073
0.847136
0.957339
0.869704
0.805413
1.15971
0.857171
0.86796
0.800714
0.797899
1.15665
0.862812
0.862277
0.797103
0.800882
1.15657
0.868485
0.85678
0.804042
0.870028
1.15944
0.957106
0.846521
1.03195
1.01036
1.30164
1.03185
1.15454
0.992751
1.057
1.28812
1.00127
1.02709
1.27643
1.02638
1.00201
1.28772
1.05661
0.846628
1.09629
1.18205
1.10051
1.43881
1.02778
0.951351
0.989099
0.944832
1.16487
1.11259
1.11243
1.11569
0.932001
1.16534
1.15308
0.989999
1.14998
0.943521
0.95558
1.02993
1.4518
1.10427
1.10057
1.43841
1.02778
0.951287
0.888881
1.0522
1.22698
1.20237
0.760626
1.10444
0.787481
1.04857
0.727639
0.996075
1.12166
1.03229
0.950951
0.98885
0.987782
1.14989
0.951889
1.03127
0.99638
0.976363
0.867255
0.892404
0.843491
0.813515
0.979126
0.918196
0.971
0.978742
0.993208
1.00004
0.857175
1.00617
1.03602
1.16269
1.17384
1.15227
1.19043
0.906926
1.05099
1.02861
0.91005
0.762002
1.12675
1.13879
0.758961
1.21105
1.13582
0.915149
1.21061
1.13362
1.13477
0.914346
1.21313
0.78832
0.888082
0.890616
0.943253
0.790411
1.12861
0.892831
1.11584
0.922539
0.923407
0.894284
0.859713
1.00538
0.973935
0.964729
0.979861
0.977824
0.969857
0.936177
0.942191
0.977279
0.955964
1.15387
1.16508
1.1117
0.932538
1.11415
0.94312
1.14028
1.14055
1.13178
0.946156
1.1283
0.938771
1.13885
1.13467
1.13499
0.94928
1.12762
0.936665
1.14022
1.13343
1.13479
0.950512
1.12898
0.933722
1.138
1.13504
1.13166
0.950634
1.13093
0.929729
1.13566
1.13733
1.12787
0.950431
1.13039
0.927803
1.13319
1.13872
1.12531
0.947514
1.13224
0.92527
1.10994
1.12097
0.98094
0.968037
0.985852
0.800686
0.833473
0.803884
0.834377
0.906791
1.41279
0.964153
0.884812
1.15624
0.885092
1.08822
0.766283
1.1033
1.13449
0.758541
1.12847
1.13681
0.766578
1.08169
1.28835
0.98602
1.12926
0.903082
0.906875
0.887582