/*--------------------------------*- C++ -*----------------------------------*\
| =========                 |                                                 |
| \\      /  F ield         | OpenFOAM: The Open Source CFD Toolbox           |
|  \\    /   O peration     | Version:  2306                                  |
|   \\  /    A nd           | Website:  www.openfoam.com                      |
|    \\/     M anipulation  |                                                 |
\*---------------------------------------------------------------------------*/
FoamFile
{
    version     2.0;
    format      ascii;
    arch        "LSB;label=32;scalar=64";
    class       volScalarField;
    location    "1.7";
    object      gradTz;
}
// * * * * * * * * * * * * * * * * * * * * * * * * * * * * * * * * * * * * * //

dimensions      [0 -1 0 1 0 0 0];

internalField   nonuniform List<scalar> 
5322
(
-0.0607931
-0.0547909
-0.0449266
-0.0485468
-0.0355788
-0.0248908
-0.0165961
-0.0105618
-0.0064675
-0.00393425
-0.00256526
-0.0021265
-0.00146925
-0.00210273
-0.0023556
-0.00204604
-0.00238602
-0.00193963
-0.00302651
-0.00374045
-0.00496794
-0.00627137
-0.00833642
-0.0105203
-0.0136836
-0.016742
-0.021233
-0.025658
-0.0316542
-0.0370424
-0.0444866
-0.0512516
-0.0595026
-0.0655464
-0.0702324
-0.0624146
-0.0741561
-0.0728663
-0.0750682
-0.0553316
-0.0695375
-0.0717853
-0.0542354
-0.0718035
-0.0710778
-0.0552081
-0.0728624
-0.0688969
-0.054663
-0.0718085
-0.0823137
-0.0552895
-0.0776056
-0.0680127
-0.0601184
-0.0643179
-0.0802933
-0.0630425
-0.0601404
-0.0641148
-0.0811077
-0.0638866
-0.0601194
-0.0625511
-0.0811231
-0.066201
-0.0599343
-0.0595188
-0.0796581
-0.070756
-0.0499644
-0.073116
-0.0695742
-0.0685296
-0.0691669
-0.0688354
-0.0687866
-0.0686239
-0.0697639
-0.0666981
-0.0651088
-0.0531323
-0.0551142
-0.0701421
-0.0448393
-0.0619359
-0.0916021
-0.0601877
-0.0601088
-0.0518047
-0.063739
-0.0436992
-0.0460176
-0.0459668
-0.0599476
-0.0585914
-0.0550177
-0.0593557
-0.0931133
-0.0583939
-0.0591288
-0.0525138
-0.0598339
-0.0593162
-0.0648054
-0.053548
-0.0561919
-0.0490407
-0.0360151
-0.0252593
-0.0168396
-0.0106865
-0.00649749
-0.00391006
-0.00288452
-0.0024156
-0.00175524
-0.00186202
-0.00273974
-0.00202749
-0.00173785
-0.00203259
-0.00200376
-0.00277507
-0.00209131
-0.00272163
-0.00198542
-0.00207362
-0.00268025
-0.00198456
-0.00203616
-0.00270797
-0.00201644
-0.00199992
-0.00271877
-0.00204046
-0.00200812
-0.00278823
-0.00209935
-0.00273072
-0.00199566
-0.0017466
-0.00203206
-0.00183895
-0.00176034
-0.0027446
-0.00186548
-0.00185686
-0.00174234
-0.00175721
-0.00276366
-0.00186001
-0.00185349
-0.00174743
-0.00175475
-0.00276058
-0.00185901
-0.0018358
-0.00174239
-0.00235914
-0.00204612
-0.00239319
-0.00336036
-0.00405505
-0.00226964
-0.00303517
-0.00194382
-0.0024283
-0.00153066
-0.00203389
-0.00210865
-0.00196755
-0.0022574
-0.0024299
-0.0021627
-0.00319562
-0.00316718
-0.00380752
-0.00282066
-0.00380669
-0.00502329
-0.00502536
-0.00640427
-0.00469655
-0.00641788
-0.00837534
-0.00837881
-0.0106497
-0.00787814
-0.0106681
-0.0136571
-0.0136636
-0.0170195
-0.0127538
-0.0170536
-0.021325
-0.0213475
-0.0259236
-0.019704
-0.0259912
-0.0317517
-0.0318129
-0.0375797
-0.0289744
-0.0376979
-0.044945
-0.0450805
-0.0518306
-0.040368
-0.0520372
-0.0595401
-0.0596813
-0.0592555
-0.0931094
-0.058373
-0.0581959
-0.0526764
-0.0718415
-0.0716791
-0.0460213
-0.0460294
-0.0598361
-0.0590785
-0.0545444
-0.0600887
-0.0930453
-0.058759
-0.0581278
-0.0528085
-0.0590079
-0.0595992
-0.0549758
-0.0549136
-0.0489497
-0.036033
-0.0252984
-0.0168679
-0.010703
-0.00650607
-0.00391429
-0.00288748
-0.00241905
-0.00175386
-0.00175294
-0.00175177
-0.00175183
-0.0027604
-0.00185306
-0.00185898
-0.00179438
-0.00203743
-0.0030303
-0.00185329
-0.00276203
-0.00186089
-0.00301075
-0.00207279
-0.00267768
-0.00198651
-0.00179588
-0.00203824
-0.00267856
-0.00145404
-0.00203186
-0.00216411
-0.0021618
-0.00225896
-0.0031679
-0.00380959
-0.00502811
-0.00640657
-0.00838505
-0.0106515
-0.0136748
-0.0170217
-0.0213671
-0.025925
-0.0318501
-0.03757
-0.0451545
-0.0517754
-0.0601035
-0.0585489
-0.093159
-0.0596202
-0.0550102
-0.0594117
-0.0521845
-0.0404003
-0.0449468
-0.0377629
-0.0289979
-0.0317795
-0.0260164
-0.0197181
-0.0213484
-0.0170629
-0.0127614
-0.0136727
-0.0106711
-0.00788217
-0.00838674
-0.00641721
-0.00469857
-0.00503246
-0.00380414
-0.00282104
-0.00320086
-0.00237683
-0.00319947
-0.00380646
-0.00282204
-0.00317066
-0.00226038
-0.00243246
-0.00196643
-0.00146988
-0.00211796
-0.00205222
-0.00320377
-0.00380333
-0.00502207
-0.00642586
-0.00839555
-0.0106782
-0.013722
-0.0170664
-0.0214692
-0.0260007
-0.0320853
-0.0375817
-0.0456852
-0.0513752
-0.0604786
-0.0589514
-0.0921539
-0.062711
-0.0533754
-0.0649787
-0.0565308
-0.0392966
-0.0488905
-0.040602
-0.028168
-0.0343606
-0.0278059
-0.0191062
-0.0229914
-0.0181815
-0.0123493
-0.0147037
-0.0113536
-0.00762156
-0.00899578
-0.0068136
-0.00454003
-0.00537305
-0.00405665
-0.00272014
-0.00336059
-0.00239593
-0.00236352
-0.00203795
-0.00208718
-0.00188117
-0.00243376
-0.001529
-0.00174907
-0.00214513
-0.00200525
-0.00325576
-0.00393502
-0.00380849
-0.00380408
-0.00280279
-0.00316042
-0.00321834
-0.0020864
-0.00243019
-0.00230042
-0.00237787
-0.00231928
-0.00289804
-0.00221147
-0.00210311
-0.00300328
-0.00252665
-0.00237934
-0.00223795
-0.0021772
-0.00320185
-0.00380592
-0.0036342
-0.00503584
-0.00641822
-0.00839059
-0.0106708
-0.00994032
-0.0136842
-0.0170513
-0.0213836
-0.0259664
-0.0236356
-0.0318676
-0.0376147
-0.0451177
-0.0518784
-0.0460376
-0.0460263
-0.033896
-0.0339388
-0.0237956
-0.0237134
-0.0320452
-0.0376639
-0.0290198
-0.0380754
-0.044903
-0.0454854
-0.0516399
-0.0403814
-0.0528474
-0.0589439
-0.0666214
-0.0575893
-0.0937404
-0.0602134
-0.0570614
-0.0546002
-0.0702128
-0.04372
-0.0398093
-0.0545863
-0.0334483
-0.0451724
-0.0384823
-0.0235181
-0.0319727
-0.026006
-0.0158505
-0.0215089
-0.0169688
-0.0102367
-0.0137006
-0.0104952
-0.00630722
-0.00838496
-0.00626781
-0.0037543
-0.00495186
-0.00371141
-0.00226185
-0.003037
-0.0020919
-0.00200739
-0.00278887
-0.00267855
-0.00333845
-0.00453755
-0.00509013
-0.00661015
-0.00856602
-0.0109791
-0.0106527
-0.0106957
-0.00786375
-0.00840882
-0.00840233
-0.00643355
-0.00468412
-0.00639268
-0.00603349
-0.00578771
-0.0034659
-0.00302325
-0.0036364
-0.00339571
-0.00324188
-0.00384701
-0.0039118
-0.00255919
-0.00213237
-0.00152403
-0.0025632
-0.00144852
-0.00211318
-0.00249003
-0.00301487
-0.00491311
-0.00644943
-0.00644749
-0.0105814
-0.0106905
-0.00820213
-0.0076651
-0.00757572
-0.00961948
-0.0124848
-0.0140751
-0.0175417
-0.0220779
-0.0267445
-0.0260953
-0.0260372
-0.0197108
-0.0214355
-0.0214607
-0.0170938
-0.0127438
-0.0170704
-0.0157584
-0.0150349
-0.00952549
-0.00838501
-0.00993473
-0.00967775
-0.00923429
-0.00603181
-0.00570245
-0.00545235
-0.00572719
-0.00449784
-0.00507215
-0.00503553
-0.00395254
-0.00258081
-0.00213516
-0.00210062
-0.00196005
-0.00234569
-0.00193828
-0.00307178
-0.00306014
-0.00381064
-0.00362211
-0.00503048
-0.00503205
-0.00641848
-0.00470116
-0.00641185
-0.00602901
-0.00838782
-0.00839149
-0.0106681
-0.00788852
-0.0106706
-0.00992616
-0.0136786
-0.0136929
-0.0170468
-0.0127755
-0.0170704
-0.0156869
-0.0213687
-0.0214047
-0.025961
-0.019745
-0.0260351
-0.0236307
-0.0318154
-0.0319226
-0.0375896
-0.0290377
-0.0378058
-0.0338742
-0.0449477
-0.045257
-0.0517661
-0.0404126
-0.052206
-0.0459288
-0.0594127
-0.0599665
-0.059194
-0.0549145
-0.0592246
-0.0531073
-0.0585377
-0.0564552
-0.0508866
-0.0695064
-0.045601
-0.0587893
-0.044338
-0.0424183
-0.0512571
-0.0511541
-0.0463341
-0.0496756
-0.0501468
-0.0435417
-0.0372791
-0.0365496
-0.0252928
-0.0257738
-0.0206145
-0.0169778
-0.0167261
-0.0166009
-0.0105334
-0.00644559
-0.00392516
-0.00255895
-0.00211882
-0.001477
-0.00209691
-0.00185317
-0.00211258
-0.00212923
-0.00198277
-0.00204818
-0.00243791
-0.00179185
-0.00219824
-0.00209492
-0.00210398
-0.00221099
-0.00174283
-0.00219102
-0.00210965
-0.00211416
-0.00244019
-0.00172356
-0.00173971
-0.00173706
-0.00172666
-0.00172181
-0.00170897
-0.00279798
-0.00173463
-0.00172539
-0.00172575
-0.00279947
-0.00173715
-0.00246099
-0.00292492
-0.0029045
-0.00253047
-0.00252031
-0.00236406
-0.00365418
-0.00609738
-0.0100308
-0.0158149
-0.0237424
-0.022604
-0.0200904
-0.023719
-0.0231647
-0.0221121
-0.0238102
-0.0292047
-0.0332661
-0.0384411
-0.048447
-0.0404981
-0.0408044
-0.0315362
-0.0353553
-0.0284333
-0.0306734
-0.0311242
-0.0250128
-0.0359416
-0.0491988
-0.0650045
-0.0648571
-0.0652724
-0.0549861
-0.0504862
-0.053486
-0.05974
-0.0509373
-0.0584045
-0.0848537
-0.076555
-0.0742052
-0.0767855
-0.0487268
-0.0621604
-0.0651654
-0.0784164
-0.0500773
-0.0642448
-0.0654258
-0.0787894
-0.0502952
-0.0634474
-0.0662695
-0.0786521
-0.0515395
-0.0629552
-0.0707052
-0.09822
-0.0786399
-0.0769378
-0.0976274
-0.0958471
-0.0759488
-0.0553706
-0.0776154
-0.0680693
-0.060092
-0.0641894
-0.0690408
-0.0546945
-0.0716933
-0.0823568
-0.0552772
-0.0651515
-0.0531625
-0.0551612
-0.0701647
-0.0590544
-0.0439596
-0.0531486
-0.0446286
-0.0327246
-0.037795
-0.0316747
-0.0227637
-0.0258077
-0.0213289
-0.0151194
-0.0168558
-0.0136758
-0.00955379
-0.0105224
-0.00837276
-0.00579405
-0.00630257
-0.00497939
-0.0033813
-0.00375653
-0.00303613
-0.00211278
-0.00243066
-0.00186906
-0.00207972
-0.00203203
-0.00239322
-0.00336375
-0.00405709
-0.00271913
-0.00320725
-0.00204686
-0.00236104
-0.0021139
-0.00146823
-0.00196252
-0.0020323
-0.00243162
-0.00212198
-0.00213983
-0.00258674
-0.00395759
-0.00649571
-0.00649833
-0.0106379
-0.0167805
-0.0157102
-0.015053
-0.0144112
-0.0155855
-0.0196731
-0.0190937
-0.0123089
-0.0132864
-0.0134989
-0.013718
-0.0137193
-0.00996463
-0.0106749
-0.0136669
-0.0127749
-0.0170705
-0.0213457
-0.0197397
-0.0260241
-0.0317794
-0.0290171
-0.0377411
-0.0449384
-0.0403746
-0.0519746
-0.0433423
-0.0440122
-0.057063
-0.0571531
-0.0493918
-0.0359123
-0.0249895
-0.0165977
-0.0105409
-0.00645559
-0.00393248
-0.00256962
-0.00212961
-0.0014695
-0.00203121
-0.00211834
-0.00212725
-0.00256934
-0.00393758
-0.00647299
-0.0105836
-0.0166708
-0.0250968
-0.0360658
-0.0495033
-0.0660766
-0.065608
-0.0546362
-0.104823
-0.0769037
-0.0737482
-0.065474
-0.07876
-0.0503584
-0.0504953
-0.0547548
-0.0812029
-0.0520953
-0.0528938
-0.053928
-0.0816519
-0.0523342
-0.0531271
-0.0535897
-0.0815245
-0.0538237
-0.0547656
-0.0604009
-0.103743
-0.0795961
-0.0776462
-0.0779899
-0.0773208
-0.0615084
-0.0572349
-0.0606637
-0.103362
-0.0599745
-0.0624895
-0.0810546
-0.0639711
-0.0600765
-0.0624386
-0.0721813
-0.0541994
-0.0714048
-0.0714432
-0.0553345
-0.0725925
-0.0632144
-0.0601106
-0.0638828
-0.068892
-0.0686599
-0.0692568
-0.0683571
-0.0601447
-0.0602417
-0.0655915
-0.0812065
-0.0699952
-0.0558511
-0.0745407
-0.0655582
-0.0558429
-0.0899881
-0.048375
-0.0625996
-0.0519607
-0.0598846
-0.0536353
-0.0415925
-0.0471711
-0.0404344
-0.0313631
-0.0339702
-0.0288973
-0.0214551
-0.0235829
-0.0193278
-0.014598
-0.0153484
-0.0125
-0.00898856
-0.0096675
-0.00759213
-0.00556641
-0.00573359
-0.00455136
-0.00321081
-0.00338266
-0.00276691
-0.0020121
-0.0021434
-0.00143818
-0.00254348
-0.00184753
-0.00151879
-0.0027746
-0.00200134
-0.00208823
-0.00271394
-0.00198496
-0.00206653
-0.00267256
-0.00197854
-0.00203517
-0.00270207
-0.00201728
-0.00199041
-0.00271055
-0.00147812
-0.00197709
-0.00243462
-0.00216781
-0.0023743
-0.00318948
-0.00281656
-0.00380245
-0.00379942
-0.00361461
-0.00500969
-0.00452831
-0.0064054
-0.006797
-0.00506572
-0.00897241
-0.00628808
-0.0113041
-0.00835
-0.0146165
-0.0101642
-0.0180845
-0.0131909
-0.0227907
-0.015698
-0.0275585
-0.0198473
-0.0337992
-0.0230506
-0.0400237
-0.0284447
-0.0477367
-0.0322763
-0.0554064
-0.0388327
-0.0635233
-0.0428453
-0.0504105
-0.0604092
-0.0590238
-0.0461991
-0.0531138
-0.0385662
-0.0457658
-0.0444259
-0.0337891
-0.0385212
-0.0276193
-0.0323646
-0.0315192
-0.0235809
-0.0265589
-0.0188277
-0.0218211
-0.0212579
-0.0156678
-0.0174588
-0.0121941
-0.013973
-0.0136489
-0.00992337
-0.010918
-0.00754536
-0.00856697
-0.00838175
-0.00602565
-0.00658204
-0.00448989
-0.00510254
-0.00502548
-0.00361785
-0.00390898
-0.00268048
-0.00326597
-0.0031523
-0.00237296
-0.00199178
-0.00174136
-0.00152532
-0.00203028
-0.0020776
-0.00186506
-0.00242428
-0.0021001
-0.00233533
-0.00195989
-0.0020993
-0.00211846
-0.00202222
-0.00242689
-0.00216041
-0.00224987
-0.002358
-0.00319484
-0.00271475
-0.00404708
-0.00302387
-0.00536283
-0.00374925
-0.00503743
-0.00307549
-0.00306396
-0.00316633
-0.00251438
-0.00300019
-0.00185564
-0.00275697
-0.00185134
-0.0017887
-0.00219118
-0.00210883
-0.00209032
-0.00211256
-0.00210971
-0.0030296
-0.00253001
-0.0023766
-0.00366488
-0.00366541
-0.00364216
-0.00503967
-0.00503813
-0.00362013
-0.00502238
-0.00308146
-0.00307368
-0.0031729
-0.0028251
-0.00381671
-0.00502492
-0.00470298
-0.00642006
-0.00838081
-0.00788957
-0.00861262
-0.00611319
-0.00605709
-0.0100549
-0.0158511
-0.0157425
-0.0158341
-0.0100477
-0.00611043
-0.00604483
-0.00608967
-0.00365052
-0.00361869
-0.00379407
-0.0050185
-0.00536971
-0.00680579
-0.00898044
-0.0113168
-0.00629737
-0.00837438
-0.00507059
-0.00629726
-0.00375814
-0.00498025
-0.0030291
-0.00375312
-0.00337408
-0.00322694
-0.00455231
-0.00450117
-0.00576151
-0.00658611
-0.00603467
-0.00838729
-0.0078361
-0.0106217
-0.0106616
-0.00993953
-0.013612
-0.0127129
-0.0169914
-0.0169981
-0.015643
-0.0211974
-0.0195813
-0.0258499
-0.025865
-0.023485
-0.0315343
-0.0277828
-0.0374646
-0.0444904
-0.0387441
-0.0517892
-0.058537
-0.0507297
-0.056428
-0.0491659
-0.0360353
-0.0252521
-0.0168306
-0.0106802
-0.0064934
-0.00390764
-0.0028824
-0.00241303
-0.00175158
-0.00174432
-0.00175342
-0.00185631
-0.00302292
-0.00252685
-0.00252332
-0.002995
-0.00185403
-0.00178731
-0.00219665
-0.00209812
-0.00220644
-0.00209878
-0.00300603
-0.00251705
-0.00236076
-0.00320209
-0.0027197
-0.00304646
-0.00301553
-0.00290499
-0.00243957
-0.00172696
-0.00172198
-0.00279926
-0.0017093
-0.00173889
-0.00275934
-0.00301581
-0.00365975
-0.0034632
-0.00231574
-0.00288845
-0.00327908
-0.00237896
-0.00315312
-0.00279911
-0.00381076
-0.00379359
-0.00363903
-0.00501803
-0.00469362
-0.00640508
-0.00603767
-0.00836068
-0.00785931
-0.0106414
-0.0106315
-0.00989559
-0.0136365
-0.0122778
-0.0169869
-0.021255
-0.018935
-0.0258545
-0.0236537
-0.0157601
-0.0100024
-0.0060831
-0.00364653
-0.0030119
-0.00290223
-0.00243679
-0.00298581
-0.00393419
-0.00302013
-0.00305026
-0.00301606
-0.00298726
-0.00393331
-0.00366307
-0.00363456
-0.00610854
-0.0060447
-0.0100454
-0.00994142
-0.0106095
-0.0167102
-0.0251652
-0.0252998
-0.0363889
-0.0340638
-0.0330734
-0.0459809
-0.0584716
-0.05058
-0.072815
-0.0559089
-0.107353
-0.0754731
-0.0741138
-0.069194
-0.0856314
-0.0782565
-0.0808547
-0.0778597
-0.106706
-0.0745287
-0.0736481
-0.0654199
-0.0784103
-0.050216
-0.0512451
-0.0553639
-0.0807637
-0.0518721
-0.0537928
-0.054729
-0.0812069
-0.0521129
-0.0538693
-0.0545424
-0.0810718
-0.0537112
-0.0551566
-0.0755499
-0.0562014
-0.0460289
-0.0459863
-0.0520887
-0.055521
-0.039119
-0.0485307
-0.0328212
-0.0392669
-0.0467552
-0.0338335
-0.0441762
-0.0523794
-0.046213
-0.058105
-0.0631778
-0.0520631
-0.0488456
-0.0419997
-0.0522509
-0.0512847
-0.0666861
-0.0698341
-0.0685169
-0.0587624
-0.0460022
-0.0581695
-0.0521296
-0.0584367
-0.0459317
-0.0581589
-0.0521809
-0.0585109
-0.0460748
-0.05824
-0.0697383
-0.0682058
-0.0602644
-0.0564441
-0.0677715
-0.0816195
-0.0614151
-0.0784176
-0.0795876
-0.0764223
-0.0624645
-0.0599764
-0.0603974
-0.102834
-0.0606656
-0.0674088
-0.0994582
-0.0803628
-0.0769709
-0.0614439
-0.0599237
-0.0758085
-0.0548171
-0.0545948
-0.0750308
-0.0551774
-0.0492088
-0.0490489
-0.036023
-0.0252659
-0.0168438
-0.0106892
-0.0064989
-0.00391083
-0.00288499
-0.00241601
-0.00170955
-0.00172321
-0.00219825
-0.00209061
-0.00210042
-0.00267366
-0.00206995
-0.00174282
-0.00183663
-0.00202758
-0.00186264
-0.00173881
-0.0020042
-0.00278033
-0.00209256
-0.0028889
-0.00198871
-0.00271897
-0.00220739
-0.00220944
-0.00209855
-0.00299632
-0.00185456
-0.00185735
-0.00276027
-0.00174969
-0.00174874
-0.001858
-0.00185214
-0.00178517
-0.00201821
-0.00273537
-0.00202018
-0.00302249
-0.00252713
-0.00252333
-0.00231665
-0.00194641
-0.00234832
-0.0019596
-0.00210616
-0.00213413
-0.00258072
-0.0039573
-0.00650395
-0.0106317
-0.0167437
-0.0252033
-0.0362104
-0.0361732
-0.0497253
-0.049842
-0.0655595
-0.0551241
-0.0579524
-0.0582488
-0.0932143
-0.0672157
-0.0745003
-0.0768463
-0.104542
-0.0544395
-0.0581688
-0.058321
-0.0555002
-0.0591306
-0.0601407
-0.0916161
-0.0600017
-0.0619374
-0.0518329
-0.0601125
-0.0706369
-0.0570703
-0.0457591
-0.0496709
-0.0661778
-0.0659661
-0.0569287
-0.0572661
-0.0445995
-0.0313895
-0.0210687
-0.013571
-0.0083887
-0.00827766
-0.00498164
-0.004983
-0.00306226
-0.00308121
-0.00365203
-0.00605183
-0.0099263
-0.015643
-0.0235347
-0.0337297
-0.0437724
-0.0431508
-0.0433097
-0.0307125
-0.0207322
-0.0133772
-0.0133591
-0.00827364
-0.00837801
-0.00504219
-0.0050262
-0.00537507
-0.00680895
-0.00898856
-0.0113215
-0.00760468
-0.00838854
-0.00641564
-0.00453486
-0.00520378
-0.00365122
-0.00362199
-0.00379541
-0.00251849
-0.00300561
-0.001985
-0.00236354
-0.00301458
-0.00304727
-0.00274027
-0.00175585
-0.00174219
-0.0021991
-0.00210745
-0.00212835
-0.00219843
-0.0017101
-0.00280096
-0.00219807
-0.00219241
-0.00179275
-0.00220904
-0.00219802
-0.00208676
-0.00209509
-0.002104
-0.00220339
-0.00209557
-0.00210391
-0.00219856
-0.00220777
-0.0017519
-0.00186158
-0.00202361
-0.00273625
-0.00183461
-0.00173859
-0.00304351
-0.00301639
-0.00290314
-0.00243651
-0.00298605
-0.00301776
-0.00366119
-0.00346477
-0.00303281
-0.00578171
-0.00507642
-0.0060909
-0.00602739
-0.0100166
-0.00991602
-0.0106629
-0.0136818
-0.0146626
-0.0181014
-0.0228986
-0.0275972
-0.0190181
-0.0213584
-0.0170467
-0.0123081
-0.014063
-0.00950383
-0.00836717
-0.0149763
-0.0132243
-0.0157873
-0.0156599
-0.0158316
-0.0157009
-0.0237604
-0.0236462
-0.0338985
-0.0338655
-0.0322945
-0.0290658
-0.0341874
-0.0318171
-0.0217194
-0.0140983
-0.00872939
-0.00521032
-0.00514277
-0.00506541
-0.00653035
-0.00860394
-0.00845484
-0.0107394
-0.0138836
-0.013631
-0.0107404
-0.00653114
-0.00514857
-0.00514031
-0.00506225
-0.00395333
-0.00655203
-0.0107712
-0.0169659
-0.0169207
-0.0213648
-0.0209528
-0.0253703
-0.0312533
-0.0306087
-0.0361334
-0.0433205
-0.0441419
-0.0459274
-0.0714615
-0.0509356
-0.0754889
-0.0561419
-0.0548845
-0.0718764
-0.0535311
-0.0746048
-0.077839
-0.0809618
-0.0775997
-0.105913
-0.0744574
-0.0674276
-0.0633684
-0.0812896
-0.0821901
-0.0601481
-0.0676211
-0.0784283
-0.0821378
-0.0760908
-0.0744409
-0.1053
-0.077936
-0.0812096
-0.081411
-0.0816221
-0.0812581
-0.0776258
-0.081365
-0.0726719
-0.0662718
-0.0786539
-0.0515657
-0.0502823
-0.054553
-0.0810936
-0.0536672
-0.0526663
-0.0536022
-0.0815693
-0.0537318
-0.0529074
-0.0532521
-0.0814025
-0.0549583
-0.0605378
-0.103161
-0.0818972
-0.076629
-0.062699
-0.0599046
-0.0750501
-0.0551515
-0.0492008
-0.0361343
-0.0253467
-0.0169016
-0.0107278
-0.00652396
-0.0039303
-0.00514024
-0.00520208
-0.00453576
-0.00641192
-0.00837825
-0.0076065
-0.0106558
-0.0136674
-0.0146506
-0.0180946
-0.0228817
-0.027588
-0.0157499
-0.0213372
-0.0132116
-0.0168544
-0.0101901
-0.0136805
-0.00835856
-0.0105186
-0.00954136
-0.00911765
-0.0124613
-0.0122222
-0.0154355
-0.0174584
-0.0156813
-0.0212593
-0.0195379
-0.025898
-0.0258886
-0.0235615
-0.0313772
-0.0287026
-0.0374514
-0.0336628
-0.0442467
-0.0399476
-0.0517645
-0.0518643
-0.0459551
-0.0585462
-0.0521782
-0.0583085
-0.0583839
-0.0459661
-0.0517596
-0.051804
-0.0582333
-0.0521174
-0.0550544
-0.0461021
-0.0338317
-0.0237027
-0.0157984
-0.010029
-0.00610131
-0.00577868
-0.00949874
-0.0100144
-0.00990942
-0.0157835
-0.01565
-0.0170342
-0.0213385
-0.0190229
-0.0259703
-0.0317765
-0.0341085
-0.0400905
-0.0484957
-0.0555332
-0.0328166
-0.0446564
-0.028675
-0.0378023
-0.0232381
-0.0316896
-0.0199216
-0.0258109
-0.0227411
-0.0217222
-0.0288562
-0.0278483
-0.0344972
-0.0383054
-0.0338344
-0.0441794
-0.0398662
-0.0523402
-0.0516004
-0.0460067
-0.0587135
-0.0519036
-0.0581309
-0.0631475
-0.0462206
-0.0520504
-0.0488005
-0.0522128
-0.0512493
-0.0543292
-0.0492912
-0.0419534
-0.0439243
-0.0531559
-0.0590891
-0.0392022
-0.0456435
-0.0336277
-0.0234582
-0.0155893
-0.00988963
-0.0060273
-0.00363617
-0.00233935
-0.00195979
-0.00208117
-0.00186858
-0.00144098
-0.00174572
-0.00214878
-0.00199397
-0.0025502
-0.00151828
-0.00184467
-0.0024266
-0.00229588
-0.00207932
-0.00237754
-0.00316695
-0.00282081
-0.00379722
-0.00363033
-0.00501645
-0.00468884
-0.006408
-0.0063931
-0.00601676
-0.00836533
-0.00759273
-0.0106371
-0.00836306
-0.00826119
-0.00836584
-0.00498601
-0.0050224
-0.00393149
-0.00392766
-0.00255582
-0.0021175
-0.00211736
-0.00209387
-0.00213059
-0.00211763
-0.00249388
-0.00202101
-0.00276893
-0.00268856
-0.00391164
-0.00362518
-0.00502888
-0.00467439
-0.00638859
-0.00641687
-0.00604975
-0.00836336
-0.00786533
-0.0106454
-0.00992025
-0.0136134
-0.0127053
-0.0169876
-0.0169862
-0.0156152
-0.0211971
-0.0203761
-0.0132762
-0.0136155
-0.0105161
-0.0105073
-0.00644682
-0.00502406
-0.00503915
-0.00308779
-0.0032195
-0.00256211
-0.00303
-0.00339709
-0.00386412
-0.00392305
-0.0049304
-0.0051205
-0.00646538
-0.00552706
-0.00762812
-0.00755426
-0.0109313
-0.00993223
-0.0136553
-0.0126704
-0.0169812
-0.0170211
-0.0156749
-0.0211861
-0.0195904
-0.0258621
-0.0235144
-0.0314151
-0.0287003
-0.0374459
-0.0374975
-0.0336408
-0.0442412
-0.0337906
-0.0311875
-0.0213094
-0.0209352
-0.0169071
-0.0107314
-0.0065261
-0.00393182
-0.00506276
-0.00513977
-0.00859791
-0.00871374
-0.00610414
-0.0100341
-0.0158065
-0.0216503
-0.0213484
-0.0138727
-0.0136232
-0.00845005
-0.00860056
-0.00514285
-0.00469623
-0.00502989
-0.00363099
-0.00502268
-0.00641236
-0.00604016
-0.00836488
-0.00837382
-0.00640837
-0.00641113
-0.00605119
-0.00836595
-0.0083875
-0.00641827
-0.00503813
-0.00363891
-0.00502043
-0.00381241
-0.00380058
-0.00380426
-0.00380486
-0.00363469
-0.00502557
-0.00502156
-0.00469405
-0.00640147
-0.00604536
-0.00837164
-0.00836646
-0.00786667
-0.0106373
-0.00993526
-0.0136333
-0.0136161
-0.0136135
-0.0136261
-0.00992307
-0.0106526
-0.0106478
-0.00786963
-0.0106497
-0.00994293
-0.0136147
-0.0136568
-0.0106636
-0.00784308
-0.00838888
-0.00858832
-0.00603517
-0.0063921
-0.00467832
-0.00502951
-0.00512634
-0.00362496
-0.00381192
-0.00379499
-0.003217
-0.0023766
-0.00316881
-0.00282279
-0.00319879
-0.00237483
-0.00319264
-0.00282123
-0.00317109
-0.00237373
-0.00320767
-0.00379426
-0.00380029
-0.00279662
-0.00308466
-0.00254228
-0.00211207
-0.00148111
-0.0020833
-0.001988
-0.00203654
-0.00204082
-0.00147599
-0.00211365
-0.00213088
-0.00198593
-0.00208879
-0.0014826
-0.00272148
-0.00203535
-0.00198758
-0.00178661
-0.0024344
-0.00223424
-0.00216896
-0.00217249
-0.00222812
-0.0020827
-0.00228744
-0.00242261
-0.00173514
-0.00203196
-0.00271727
-0.00198738
-0.00299283
-0.00252102
-0.00365806
-0.00366245
-0.00610465
-0.0100342
-0.0138721
-0.0127193
-0.0169983
-0.0156452
-0.0211905
-0.0212127
-0.0211884
-0.0212796
-0.0156793
-0.0170069
-0.0170234
-0.0126823
-0.013658
-0.0140203
-0.00993336
-0.0106287
-0.0109353
-0.00756344
-0.00763769
-0.00965734
-0.00913247
-0.0124754
-0.0154566
-0.0144538
-0.019459
-0.0236228
-0.0217536
-0.0288879
-0.0345354
-0.0312128
-0.0404343
-0.0417044
-0.0363751
-0.0298259
-0.0253651
-0.0203164
-0.0168396
-0.0131996
-0.0106618
-0.00819709
-0.00647236
-0.00553372
-0.00577269
-0.00658732
-0.00450722
-0.00455658
-0.00340304
-0.0032336
-0.00386751
-0.00493379
-0.0030311
-0.00277178
-0.00269218
-0.00328123
-0.00237815
-0.00315356
-0.00280117
-0.00309089
-0.00255803
-0.00213074
-0.00152017
-0.00184809
-0.00255014
-0.00144182
-0.00215142
-0.00202215
-0.00249395
-0.00211786
-0.00174706
-0.00199481
-0.00229498
-0.00208253
-0.00242636
-0.00211684
-0.00211411
-0.0025461
-0.00391399
-0.00391754
-0.00644882
-0.0105428
-0.0165826
-0.0156828
-0.0212639
-0.0218954
-0.0174656
-0.0169927
-0.0133992
-0.00833387
-0.00503202
-0.00501739
-0.00642788
-0.0104771
-0.0164456
-0.0205952
-0.0195565
-0.0258894
-0.0235673
-0.0313747
-0.0315881
-0.0314838
-0.0326667
-0.0236019
-0.0259162
-0.0265688
-0.0189059
-0.0157554
-0.0209112
-0.020679
-0.0305908
-0.0309559
-0.0317985
-0.0341335
-0.0400967
-0.0286978
-0.0321292
-0.0224867
-0.019939
-0.0237008
-0.0235826
-0.0259927
-0.0338411
-0.0338289
-0.0377248
-0.0279948
-0.0317097
-0.023714
-0.0338444
-0.0440637
-0.0433436
-0.0312394
-0.0306058
-0.0209431
-0.0213382
-0.0253544
-0.0254301
-0.025371
-0.0169217
-0.0138967
-0.0138727
-0.00859837
-0.00844913
-0.00859608
-0.00871055
-0.0140577
-0.0123116
-0.0135303
-0.00838196
-0.00828451
-0.00830963
-0.0083478
-0.00500305
-0.0049883
-0.00306395
-0.00307938
-0.00210162
-0.00504245
-0.0134248
-0.013378
-0.0207073
-0.0207942
-0.020946
-0.0307673
-0.0306286
-0.0309878
-0.0209305
-0.0376825
-0.0450307
-0.0391307
-0.0520102
-0.0438211
-0.0432004
-0.0570358
-0.0571978
-0.05703
-0.0707419
-0.0959024
-0.0975826
-0.0553637
-0.0706869
-0.0982381
-0.0786238
-0.0615246
-0.0772974
-0.0781522
-0.0625871
-0.0603805
-0.103923
-0.0801215
-0.0775052
-0.101141
-0.0863918
-0.0864742
-0.0814455
-0.0778688
-0.0537623
-0.0747968
-0.0549939
-0.0490955
-0.0361334
-0.0312772
-0.0213834
-0.0213471
-0.0237615
-0.0236947
-0.023567
-0.0338327
-0.0338088
-0.0321157
-0.0224756
-0.0149683
-0.0218756
-0.0265575
-0.0235998
-0.0314789
-0.0286544
-0.0376711
-0.037441
-0.0337244
-0.0441409
-0.0399227
-0.044255
-0.0338166
-0.0236926
-0.0213275
-0.0216418
-0.0316982
-0.0280026
-0.031236
-0.0306021
-0.0209403
-0.0136214
-0.0138648
-0.0100276
-0.0061005
-0.00365959
-0.00503248
-0.00500207
-0.00640763
-0.00307603
-0.00381172
-0.00320109
-0.00213107
-0.0022358
-0.00204388
-0.0014637
-0.00212546
-0.00256563
-0.00828218
-0.00831927
-0.00838622
-0.00645581
-0.00819093
-0.00964293
-0.0106504
-0.0105533
-0.0131896
-0.0140066
-0.0168221
-0.0144334
-0.0194368
-0.018884
-0.0235924
-0.0203008
-0.0253394
-0.0249343
-0.016599
-0.0133746
-0.0136528
-0.0133051
-0.0136243
-0.0164937
-0.0205563
-0.0212717
-0.0204187
-0.0258649
-0.0247268
-0.0300885
-0.0315732
-0.0298047
-0.0326397
-0.0363416
-0.0311716
-0.0403956
-0.0392335
-0.0467239
-0.0416811
-0.0357328
-0.0487675
-0.060677
-0.0605761
-0.0610821
-0.0661969
-0.0624861
-0.0544381
-0.0418435
-0.0445637
-0.0353337
-0.0481538
-0.0600383
-0.0671954
-0.0635672
-0.0539245
-0.041278
-0.029796
-0.0374846
-0.0314292
-0.0247382
-0.0165042
-0.035347
-0.0482029
-0.0601676
-0.0675039
-0.0636286
-0.0539285
-0.0412313
-0.0297395
-0.031413
-0.030236
-0.0206765
-0.0134569
-0.00986293
-0.00601676
-0.00362921
-0.00335442
-0.00583486
-0.0155199
-0.0232598
-0.0331892
-0.0420337
-0.0546768
-0.0605409
-0.0687639
-0.0633589
-0.0518106
-0.0578351
-0.0619897
-0.0600427
-0.0482827
-0.047943
-0.0351915
-0.0246269
-0.016425
-0.0104618
-0.00641684
-0.00390686
-0.00390983
-0.00254852
-0.00308367
-0.0030816
-0.00212919
-0.00243307
-0.00211195
-0.00212612
-0.00255022
-0.00390493
-0.00502446
-0.00467191
-0.00637694
-0.00641627
-0.00609965
-0.00514061
-0.00506021
-0.00298484
-0.00513388
-0.00519763
-0.0034593
-0.0023125
-0.00288424
-0.00335622
-0.00226273
-0.00577365
-0.00870423
-0.00859716
-0.00844568
-0.00858661
-0.0138508
-0.0136164
-0.0138674
-0.0100278
-0.0157988
-0.0158042
-0.0237058
-0.0312164
-0.0287153
-0.0314397
-0.0235139
-0.0313911
-0.0375
-0.033656
-0.0441742
-0.0442784
-0.0374276
-0.0375243
-0.0337279
-0.0441206
-0.0445887
-0.0374338
-0.028681
-0.0376978
-0.0383199
-0.0278792
-0.0232445
-0.0301456
-0.0249097
-0.0356976
-0.048714
-0.0493205
-0.0543396
-0.060573
-0.0610962
-0.0606151
-0.0662241
-0.0624808
-0.0545035
-0.0419172
-0.0352302
-0.0246548
-0.0298823
-0.0204802
-0.0258903
-0.0258571
-0.0258826
-0.0258588
-0.0235652
-0.0314891
-0.0314123
-0.0287154
-0.037464
-0.0337486
-0.0443611
-0.0442429
-0.0399554
-0.0517484
-0.0519613
-0.0518359
-0.039906
-0.0440684
-0.0433704
-0.0361428
-0.0362096
-0.0423706
-0.0490956
-0.0460338
-0.0460655
-0.0718102
-0.0528097
-0.0504251
-0.0746351
-0.0777589
-0.0811158
-0.0776559
-0.0813525
-0.0816601
-0.0773539
-0.0528123
-0.0736933
-0.0533097
-0.0722154
-0.0725205
-0.0722207
-0.0724626
-0.0719241
-0.0629176
-0.0805445
-0.105342
-0.0556284
-0.078246
-0.0852371
-0.0812457
-0.0865226
-0.0811804
-0.0769518
-0.10242
-0.0799974
-0.0551531
-0.0606143
-0.103427
-0.060031
-0.074897
-0.0548972
-0.0728395
-0.0534389
-0.0491888
-0.0424006
-0.0433381
-0.0433468
-0.044051
-0.0433181
-0.0312028
-0.0433309
-0.0424404
-0.0306056
-0.0312211
-0.021334
-0.0216239
-0.0237094
-0.0338662
-0.0338297
-0.0433311
-0.0461107
-0.0437115
-0.0392255
-0.0648564
-0.0448479
-0.0571634
-0.0592462
-0.0535103
-0.0569714
-0.0637358
-0.0719208
-0.0525736
-0.050267
-0.0748181
-0.0549997
-0.0534422
-0.0724579
-0.0526594
-0.0738897
-0.0774665
-0.0778421
-0.0813125
-0.0728146
-0.0805094
-0.105276
-0.078238
-0.0812688
-0.0814564
-0.0815715
-0.0817771
-0.0774616
-0.0531341
-0.073889
-0.0794912
-0.0816239
-0.079448
-0.0775869
-0.0530029
-0.0740894
-0.0535746
-0.0728332
-0.0730622
-0.0658371
-0.0461405
-0.0461046
-0.0656726
-0.0653542
-0.0438482
-0.0462368
-0.0461085
-0.0550601
-0.0653235
-0.0655851
-0.0658719
-0.0607565
-0.0712917
-0.053592
-0.0411393
-0.0354883
-0.0248257
-0.0165437
-0.0105194
-0.00643143
-0.0083248
-0.0106596
-0.0106097
-0.00783493
-0.00949356
-0.014047
-0.0126691
-0.0169597
-0.0170229
-0.0156719
-0.0212386
-0.021197
-0.0169885
-0.0127154
-0.0170075
-0.0133407
-0.0104604
-0.00642116
-0.00830786
-0.00830468
-0.0050149
-0.0133458
-0.0164114
-0.0245965
-0.0351385
-0.0413838
-0.0518691
-0.0516824
-0.051856
-0.0413435
-0.0298544
-0.020468
-0.0195952
-0.0205483
-0.02591
-0.0258424
-0.0195354
-0.022458
-0.0149571
-0.0316754
-0.0286502
-0.0374838
-0.0375539
-0.0300093
-0.0295953
-0.0202382
-0.0131674
-0.00817824
-0.00491781
-0.00301969
-0.00211125
-0.00248629
-0.00385552
-0.00645986
-0.0106409
-0.013383
-0.0168107
-0.0252628
-0.0361455
-0.0416366
-0.0542801
-0.0520486
-0.0540114
-0.0478741
-0.0480026
-0.0598709
-0.0671345
-0.0635333
-0.0540219
-0.0597604
-0.0669412
-0.0637486
-0.0597584
-0.068028
-0.0635772
-0.0678859
-0.0320999
-0.0399342
-0.0515664
-0.039897
-0.0489189