/*--------------------------------*- C++ -*----------------------------------*\
| =========                 |                                                 |
| \\      /  F ield         | OpenFOAM: The Open Source CFD Toolbox           |
|  \\    /   O peration     | Version:  2306                                  |
|   \\  /    A nd           | Website:  www.openfoam.com                      |
|    \\/     M anipulation  |                                                 |
\*---------------------------------------------------------------------------*/
FoamFile
{
    version     2.0;
    format      ascii;
    arch        "LSB;label=32;scalar=64";
    class       volScalarField;
    location    "1.7";
    object      gradTy;
}
// * * * * * * * * * * * * * * * * * * * * * * * * * * * * * * * * * * * * * //

dimensions      [0 -1 0 1 0 0 0];

internalField   nonuniform List<scalar> 
5322
(
0.650005
0.0610669
-0.00442823
-0.0272825
-0.0151118
-0.00535018
-0.000167729
0.00483435
0.0141582
0.0258342
0.000238486
-0.192406
-0.213849
-0.191959
-0.166638
0.360633
0.48238
-0.000746464
0.333097
-0.394902
0.375579
-0.381551
0.374286
-0.383069
0.381739
-0.374495
0.374132
-0.381953
0.38089
-0.376244
0.378591
-0.37861
0.390967
-0.335883
0.322222
-0.161076
0.316454
0.397241
0.198413
0.214816
0.293175
0.244859
0.253447
0.273655
0.260903
0.258319
0.265062
0.283176
0.262366
0.250555
0.314324
0.152197
0.170368
-0.561559
-0.030644
-0.324941
0.170795
-0.426142
-0.0242582
-0.370369
0.173423
-0.41908
-0.0216597
-0.367618
0.174121
-0.433678
-0.027896
-0.355525
0.175741
-0.477084
0.0168001
0.419222
0.233509
0.326218
0.243678
0.308623
0.257528
0.307264
0.260895
0.360942
0.0328734
0.121369
0.183435
0.305341
-0.0259911
-0.127582
0.0362961
0.0713794
0.1322
0.0151593
0.0346002
0.00639068
0.00100752
0.00118604
0.444343
-0.237233
0.00714654
0.239182
0.00649363
-0.00624174
0.032631
0.00639087
0.25325
-0.433216
0.387669
0.00522287
-0.00741266
-0.00138419
-0.000231008
0.000411425
0.000469042
0.000577004
0.00132071
0.00265276
-0.00450402
0.00118007
0.137159
-0.0564191
-0.0193841
-0.105862
0.130199
-0.0724665
-0.141208
-0.193157
-0.218272
-0.00879338
0.159986
-0.120726
0.0113123
0.131851
-0.131328
0.00553203
0.137065
-0.14054
-0.00444013
0.128007
-0.153555
-0.0122273
-0.0354394
0.235088
0.194762
-0.127642
0.0846302
0.0657871
-0.134552
0.0145005
-0.131837
0.103414
0.106276
-0.117185
-0.00177195
-0.109353
0.109756
0.118469
-0.106429
-0.000358189
-0.10173
0.129143
-0.00842418
-0.00637155
0.405831
-0.318066
0.351701
-0.373476
0.0126234
-0.241016
-0.00516027
-0.00220402
-0.0451088
0.116439
-0.232978
0.231798
-0.389107
0.000887732
0.39743
-0.392629
0.408776
-0.417758
0.00173722
0.411559
-0.421655
0.437337
-0.43601
0.00162186
0.426327
-0.429254
0.443089
-0.441266
0.000992827
0.430984
-0.432085
0.445115
-0.443242
0.000834542
0.433053
-0.434469
0.447452
-0.44406
0.00108487
0.433949
-0.43722
0.450486
-0.443052
0.00142984
0.432344
-0.438537
0.451735
-0.43399
0.00184099
0.421554
-0.434035
0.437657
-0.237202
-0.00106467
-0.0174835
0.00727779
-0.00705088
-0.000434168
0.00278004
0.00368571
1.46144e-05
0.445307
-0.236118
0.00199797
0.281478
-0.038238
-0.0112452
0.009284
-0.0138567
0.238477
-0.438515
0.00254496
0.00195317
0.0054901
0.00355395
0.00189913
0.000855307
6.03622e-05
-0.00117032
-0.0029521
0.00439151
-0.00157973
-0.110414
-0.117604
-0.117657
-0.11067
0.0226081
0.0389661
0.0245674
-0.148683
0.0779902
-0.157675
0.0390572
0.0226527
0.0246139
-0.155827
0.0542638
0.149093
0.0962507
-0.148625
0.0781498
0.161849
0.225984
0.238695
-0.390974
-0.390087
-0.419831
0.30457
-0.377851
0.346767
-0.371296
0.359138
-0.369876
0.363584
-0.371625
0.364515
-0.377029
0.362956
-0.385975
0.359212
-0.394548
0.351664
-0.077427
0.166881
-0.0530763
-0.00918564
0.304454
-0.363338
0.00353383
0.325726
-0.364552
0.00161543
0.336624
-0.358121
0.000744822
0.341612
-0.352409
0.000174161
0.341698
-0.349943
-0.000808994
0.335846
-0.35074
-0.00259885
0.318631
-0.356748
0.00834773
0.266876
-0.0246473
0.266642
-0.357326
0.00836333
0.306163
-0.417414
0.167528
0.277007
0.207033
0.193787
-0.368246
0.241573
-0.343725
0.303989
-0.336812
0.322771
-0.335855
0.328818
-0.338537
0.329403
-0.345637
0.326955
-0.354157
0.321414
-0.350818
0.30644
-0.0505557
0.120758
-0.138269
-0.00259065
0.420063
-0.514006
0.00887227
0.461521
-0.502281
0.00446498
0.470085
-0.484443
0.00173185
0.470309
-0.475351
0.000421125
0.470223
-0.472642
-0.000918693
0.469432
-0.472565
-0.00194834
0.461606
-0.476685
0.0106304
0.410468
-0.474609
0.166535
0.386918
0.34383
-0.172636
0.327813
-0.0778152
0.0617732
0.392784
-0.339947
0.317163
-0.29861
0.478292
-0.421111
-0.00333453
-0.471291
0.401987
-0.411239
0.0120836
0.432966
0.0193291
0.00838731
-0.12253
0.0120147
-0.00983869
0.00642883
-0.00234867
-0.00084114
0.395841
-0.396616
0.396901
-0.41261
6.66065e-05
0.425686
-0.428428
0.433343
-0.433241
0.000299695
0.436567
-0.43496
0.439695
-0.43516
0.000353141
0.443254
-0.432678
0.444481
-0.421781
-0.000684329
0.000574725
0.000950403
0.00317709
0.00178472
0.00115362
0.447244
-0.432042
0.00228436
0.510928
-0.504732
0.452139
-0.417516
0.00438441
0.507135
-0.482008
0.307188
-0.213738
-0.341417
-0.0231972
-0.0052617
-0.123414
-0.0317072
0.00956478
0.227128
0.296458
0.0236449
-0.482983
0.366965
0.00365011
-0.409622
0.374405
-0.000813537
-0.385427
0.379251
0.00017072
-0.372295
0.377935
-0.00266429
-0.372007
0.392657
-0.00672128
-0.354767
0.400947
-0.0252114
-0.316505
0.102734
0.154462
-0.190488
0.00160353
0.311166
-0.264846
0.310833
-0.3039
0.308583
-0.305343
0.496817
-0.43548
-0.00102634
-0.498017
0.433985
-0.432708
-0.00259894
0.492358
-2.34013e-05
-0.00110626
-0.00072363
-0.0285478
0.00646395
0.0398455
0.043282
0.0176259
0.00754517
0.0249263
0.0176547
-0.0227304
0.368011
0.117978
0.0256545
0.088071
0.0188017
0.00565002
0.00394078
0.00131558
0.000739475
0.00103595
0.00100788
-0.279418
0.000301028
0.285182
-0.281914
0.307806
-0.30618
0.310845
-0.306764
0.504371
-0.43596
0.000816306
-0.500529
0.441558
-0.436379
-5.37399e-05
0.499779
0.000975649
0.00100591
-0.000115645
-0.00288608
-0.00138524
0.00433898
0.00314253
0.000571472
0.0134751
0.00966123
0.291378
0.00141619
-0.0134099
-0.0011547
-0.0195064
0.00251216
0.193617
0.369725
0.679622
0.0712315
-0.0103348
-0.00480266
-0.0184377
-0.375459
0.00164004
0.349375
0.317979
-0.350921
-0.0025782
-0.369928
0.00273781
0.361383
0.335292
-0.349769
-0.000771312
-0.369858
0.00237278
0.364603
0.34168
-0.352094
0.000235672
-0.373051
0.00631805
0.36361
0.342678
-0.358039
0.00087004
-0.380424
0.017759
0.357799
0.340203
-0.365976
0.00182818
-0.390752
0.0432259
0.344345
0.334776
-0.369884
0.00386355
-0.394501
0.0964095
0.322224
0.322202
-0.0620301
-0.00892735
-0.071828
0.84819
-0.378889
-0.386875
0.626639
0.162918
0.0676556
-0.584957
-0.120573
-0.0705695
0.300561
-0.31377
-0.00547573
0.00654993
-0.0393014
-0.047271
-0.0048582
0.0125414
0.00726518
0.00295128
-0.00385491
0.0017331
0.00277987
0.000819405
9.15401e-05
-0.00074892
-0.00257501
-0.00494702
-0.017154
-0.00919057
0.239322
-0.239425
0.00287846
0.00154375
-0.243187
0.239612
-0.000567143
0.000995813
-0.00108353
-0.0181504
-0.0115021
0.04345
0.00470992
0.0500013
-0.0177348
-0.0217461
2.44526e-05
0.0800928
-0.0930998
0.0934734
-0.0797941
-0.0807773
-0.0690537
0.00257617
0.092693
0.0834175
-0.0832671
-0.00248148
-0.0933945
-3.90003e-06
1.46196e-05
0.00593422
0.016831
0.0150647
-0.0333945
0.00065339
0.000171932
0.000986178
0.00282353
0.00685172
0.00295008
0.0240059
-0.0188659
-0.0020962
0.0136387
0.29997
-0.273712
0.316
-0.311361
0.319331
-0.00767197
-0.283112
0.00823846
0.317273
-0.00116675
-0.0138761
0.00285584
0.00196908
0.00392479
0.0046475
-0.00334581
-0.0470055
0.161096
-0.0718636
-0.309032
-0.0391667
-0.0372167
-0.608822
-0.167828
0.0214035
-0.245587
0.181576
0.00834594
0.0102863
0.219799
0.184381
0.0258467
-0.0206131
0.244498
0.219727
0.0278663
-0.0248412
0.221857
0.250581
0.0259715
-0.057272
0.184017
0.255884
-0.0886567
0.133399
-0.116308
0.12431
-0.490855
-0.266598
0.048211
-0.121148
0.263975
-0.0159167
-0.432735
0.228298
-0.00456059
-0.271127
-0.268019
-0.389666
0.164001
-0.214299
-0.137216
0.238432
-0.494643
-0.0554655
0.347955
-0.428364
-0.0109646
0.372832
-0.392318
0.000867079
0.375827
-0.378213
0.00194958
0.374157
-0.374454
0.00213322
0.373935
-0.373578
0.00576877
0.375923
-0.371203
0.0230091
0.38778
-0.33261
0.0935908
0.322628
-0.180154
0.342309
0.38662
-0.47943
0.409129
-0.481181
0.0110613
0.240793
-0.368421
0.166351
0.192855
0.208782
0.276982
0.238218
0.167407
0.322528
0.19207
-0.00159637
-0.0279712
-0.015669
-0.00982022
-0.00592325
-0.0115526
-0.00608707
0.00173727
0.00618555
0.286457
-0.277612
6.35704e-06
0.000483664
0.00010882
2.43275e-05
-0.498683
0.437531
0.000197508
0.438618
-0.440879
0.000461154
0.441424
-0.442936
0.00110858
0.443146
-0.445208
0.00197668
0.442575
-0.445092
0.002518
0.431456
0.0027691
0.00533369
0.000828253
3.77677e-06
-0.00125884
-6.15018e-05
0.000374421
0.000410554
0.00036057
0.000235669
0.000181123
0.000232464
0.00226982
0.00644155
-0.233114
0.00347097
0.0115421
-0.000604144
0.000412956
0.000623515
0.000400518
-3.87616e-05
-0.000783552
-0.0019568
-0.00285476
0.0104312
-0.00295646
-0.00782598
-0.0102331
0.204348
-0.218088
0.276496
0.000400002
-0.0372123
0.0310889
0.102623
0.000582611
-0.0911944
0.0858417
0.0880168
0.000328699
-0.0975549
0.0915761
0.0785953
2.08521e-05
-0.122531
0.116556
0.108931
-0.00207026
0.13572
-0.142907
0.139342
-0.150121
-0.0138624
-0.082939
0.120504
-0.00990685
-0.114584
-0.00243294
-0.000764705
0.411403
-0.00143105
-0.413815
0.239258
-0.0083224
-0.247427
0.247874
-0.00538847
-0.259809
0.416811
-0.00392242
-0.416628
0.409049
-0.407124
0.404824
-0.41461
0.000944732
-0.412904
0.407414
-0.000829228
-0.247558
-0.00905358
0.249744
-0.212404
0.00196243
0.373728
0.133341
0.393703
0.143933
-0.203478
0.311007
0.0286514
-0.272352
0.294262
0.00590165
-0.284918
0.288073
0.00133551
-0.284667
0.287413
0.000197314
-0.287441
0.285206
-0.00137175
-0.287421
0.285641
-0.00689148
-0.293985
0.271482
-0.0311309
-0.311355
0.20351
-0.148106
-0.394964
-0.119604
-0.369859
0.241742
0.0226367
0.0120881
0.154488
0.0361472
-0.23787
-0.196014
-0.0545066
-0.151633
-0.0983148
-0.0767963
-0.16795
-0.083916
-0.0891627
-0.166827
-0.24429
-0.253144
-0.167193
0.415412
0.0229094
-0.244444
-0.00857255
0.335137
0.394312
-0.00444735
-0.290768
0.00192909
0.324986
0.482149
0.00459166
-0.474875
0.000332832
0.479616
0.00113418
-0.476839
0.00129054
0.478095
0.000641987
-0.478275
-0.00101136
0.47668
0.000523915
-0.479899
-0.000178533
0.474636
-0.000988862
-0.482758
-0.00417437
0.46664
-0.00685703
-0.487757
-0.0171211
0.00212592
-0.299838
0.487099
0.00306333
0.312994
-4.33186e-05
-0.304648
0.498224
-0.000156093
0.308751
2.78673e-05
-0.307019
0.50118
-0.000123266
0.308093
-0.000289704
-0.306819
0.502214
0.000105789
0.307006
0.000435852
-0.307974
0.502781
0.000336295
0.307374
9.9236e-05
-0.308457
0.502966
0.000556411
0.305123
0.000513979
-0.311948
0.499995
-0.00136246
0.301978
8.54022e-05
-0.318819
0.477004
-0.0188344
0.342269
-0.0612132
0.078663
-0.388549
-0.342643
0.178777
-0.326711
-0.0958551
-0.0662274
-0.683159
-0.371872
-0.326318
-0.231865
-0.167639
0.372228
0.430551
0.0312565
-0.23159
-0.0109484
0.48727
0.0144744
-0.466142
0.00550476
0.00354001
0.00744143
0.0188158
-0.321175
-0.0155178
0.156483
-0.0230269
-0.0221731
-0.0421751
0.149604
-0.0494672
0.020378
0.0179054
0.000469902
0.00134848
0.00123093
0.000719013
0.000613142
0.000185933
-0.00243065
-0.00177009
0.426594
-0.494526
0.00188126
-0.00257258
-0.00481321
-0.000357781
-0.406776
-0.000419112
0.414549
-0.433131
-0.000432157
0.432662
-0.438855
-2.89647e-05
-0.000133937
-0.00106955
-0.000519004
-4.73997e-05
0.000745767
0.000670713
0.000593214
0.000383175
0.000250608
0.000153765
0.00120351
0.00188194
0.000744027
0.411369
-0.414194
0.376423
-0.378659
0.379757
-0.379114
0.00211413
-0.198366
6.24074e-05
0.187099
0.00674858
-0.209351
-0.000743276
0.159067
-0.0162433
-0.0131039
0.0595631
0.00273777
-0.0642862
0.474242
-0.00644965
-0.297784
0.00115256
0.304932
0.397013
-0.0028474
-0.31334
0.000413035
0.317595
0.384159
5.34823e-05
-0.317239
-2.56814e-05
0.314713
0.384949
0.00249773
-0.320573
-0.000612144
0.308455
-0.323767
-0.00111581
0.290533
-0.331103
0.0130856
-0.00941157
-0.00241068
-0.000920305
-3.28913e-05
0.000255616
0.00053403
0.00144052
0.0030129
-0.00447339
0.00136568
0.110564
0.116459
0.117855
-0.0350741
0.159356
-0.016713
-0.0173549
0.163685
-0.03097
0.149247
-0.0481669
0.00588218
-0.0132797
0.0127979
-0.00319955
0.00289377
-0.00234748
-0.391531
0.0103066
0.0115623
0.0024645
0.000140582
-4.32272e-05
-0.083126
0.082446
0.00259513
-0.0701224
0.107539
-0.0219053
0.00924295
-0.00376333
-0.00426689
-0.0208897
0.155098
-0.385638
0.0232957
-0.258968
-0.0106058
0.328001
0.402723
-0.00947444
-0.29617
0.00261997
0.387822
-0.00711176
-0.306822
0.00121532
0.32109
0.388688
-0.00176012
-0.315281
0.000448826
0.318571
-0.318349
-0.000132291
0.315349
0.000593402
0.000211695
-0.000126212
-0.000387691
-0.00129054
0.00945432
-0.00623833
-0.000282373
0.00254855
3.69892e-05
-0.00237579
-0.011168
-0.00941313
-0.00256777
-0.00255211
0.00236839
0.00665979
0.00128016
0.00587644
0.00162274
0.00380273
-0.00846386
-0.0119626
-0.02561
-0.028379
-0.0607697
-0.0510008
-0.030811
-0.118244
-0.367933
0.0318235
-0.5685
-0.417728
-0.299501
-0.199074
-0.179686
0.0711743
-0.161504
-0.015826
0.0378586
0.00146174
-0.00624466
0.193777
-0.229049
0.281675
0.00267208
-0.0329946
0.0523942
0.119662
0.00507267
-0.0814157
0.111864
0.112127
0.00552779
-0.0873147
0.115669
0.104919
0.0041844
-0.116757
0.130618
-0.00623024
0.00371321
0.0187268
0.0801732
-0.344059
-0.499143
0.00545106
0.467174
0.0133752
0.00989248
0.302038
0.00182004
-0.495587
0.501606
-0.00075485
-0.474012
0.278591
-0.319839
0.285023
-0.0313034
-0.297712
0.0161588
-0.331333
0.461866
-0.404596
0.420717
-0.00143198
-0.421735
0.000774243
0.41799
-0.00125211
-0.419662
0.000246525
0.421543
-0.00122581
-0.423306
0.411429
-0.473629
0.0272378
-0.32809
0.449008
0.0208635
0.0108026
-0.123506
0.134034
-0.138296
2.75537e-05
-0.115558
0.10615
0.00754672
-0.13197
0.0939269
-0.107201
0.00483058
0.191964
-0.115837
0.071081
0.0177227
-0.136501
0.107345
-0.00212635
-0.00233255
-7.1797e-05
0.0045358
0.00282537
0.00146557
0.00065101
3.26697e-06
-0.00113542
-0.00287929
0.00442517
-0.00137198
0.0693245
0.0797646
0.000147293
-0.0188993
-0.0116828
0.15028
0.0544549
-0.127545
0.0655902
0.0847477
-0.133514
0.00435607
-0.154593
-0.0120087
-0.0360459
-0.124867
0.195767
0.238107
0.0124325
0.0436838
-0.0106174
0.00596854
0.104437
-0.112231
-0.00135862
-0.117727
0.117395
0.112226
-0.104393
-0.000718678
-0.142434
-6.96127e-05
0.142386
3.1563e-05
7.19613e-05
-0.0025911
0.0085026
0.00375627
0.0636468
0.678999
0.36935
0.190029
-0.00153064
-0.0249374
-0.0139732
-0.00767931
-0.0103835
-0.0223822
-0.047083
-0.0514891
-0.104773
-0.11607
-0.246887
-0.416908
-0.371159
-0.374392
0.159066
-0.249952
-0.0969116
-0.105065
-0.323968
-0.42648
-0.378613
-0.378177
-0.383411
-0.376997
-0.427428
0.161309
-0.0459092
-0.134183
0.511723
-0.160444
-0.3065
-0.299267
-0.0782534
-0.0971176
-0.226554
-0.23811
-0.0627245
-0.0965777
-0.0236296
-0.00773794
-0.00137098
1.81812e-05
0.000232879
-0.000771621
-0.00446124
-0.00522808
-0.0193427
-0.00814171
-0.00296474
-0.00567067
-0.00353067
-0.00484866
-0.0118501
-0.0303929
-0.0127508
-0.0124104
-0.0144018
-0.00686208
-0.00192414
-0.000158085
-0.000346594
-0.00124903
-0.00125467
-0.00367998
0.303161
0.457964
-0.47454
0.466176
-0.472603
-0.000648294
0.321727
-0.337317
-0.00157255
-0.00288118
0.00151689
0.00526971
-0.344264
0.0158387
-0.15689
0.0968035
-0.0301424
-0.00937166
-0.0111286
0.0143235
-0.134771
0.105867
-0.000794206
-0.000381629
-0.000390369
8.79107e-05
0.0690502
-0.00237336
0.000297039
0.000292942
-0.000200293
-0.0436539
0.000223337
0.018093
0.011223
0.0148182
-0.0123166
0.0103507
-0.00016723
0.00107375
-0.0435338
0.134494
0.133527
-0.0844418
-0.0142266
-0.0668724
0.128312
0.011268
0.00248607
5.47048e-05
6.49126e-06
-0.0025509
-0.00232598
-0.00239492
-0.000479661
-0.0104267
-0.000873615
-0.00238471
0.000805211
0.00536278
0.00122989
0.00348489
-0.33591
0.327678
0.468198
-0.473634
0.469044
-0.478852
0.001179
0.327991
-0.337692
0.000271635
4.91734e-05
9.22752e-05
0.000534954
0.00126837
0.00304085
0.00256188
0.00566008
0.00312298
0.00660011
0.00676529
0.0162289
0.0138034
0.0146387
0.00649215
0.0863743
0.00117846
0.0020681
0.000976343
0.00022087
-0.000775961
-0.00278508
-0.00309432
-0.00118318
-0.00110858
-0.000720382
-0.000160623
0.000112347
0.000247357
0.000395934
0.000348312
0.000207261
-0.00104396
0.00140306
0.00132696
3.26257e-05
0.000156338
0.000284335
0.000455985
0.000813181
0.000928916
0.00086589
0.00175009
0.0020523
0.00148819
0.00333028
0.00436164
0.00359612
0.0226986
-0.0287896
-0.0410819
-0.00799215
0.00449607
0.00598708
0.00612562
-0.101062
-0.00170346
-0.000977494
-0.00150381
-0.00983988
-0.00383255
0.213978
-0.00279742
-0.285114
-0.00206866
-0.0129229
-0.264026
-0.0114705
-0.0155957
-0.165666
-0.0736572
-0.126777
-0.315416
0.0305906
0.0804299
0.00542624
-0.00423769
-0.00356676
-0.00662376
0.00186171
-0.191579
0.273014
0.00193184
-0.0600883
0.0265246
0.0946015
0.000447423
-0.117914
0.0748996
0.075976
-0.000554409
-0.122008
0.0802139
0.0668799
-0.00130401
-0.111806
0.0253435
-0.151276
0.0668274
0.105937
-0.147044
0.0444302
0.021886
-0.00891563
-0.00199078
-0.000711081
0.000159131
0.000327295
0.00049654
0.00133503
0.00248963
0.00314045
0.00296319
0.00436403
0.420595
-0.420336
0.00182205
0.422564
-0.422598
0.37996
-0.380157
0.380555
-0.382065
0.00138398
-0.199377
-0.00101324
0.19433
0.00138676
-0.197191
-0.000219367
0.193876
-0.00114394
-0.000792149
0.0627335
0.0012173
-0.062183
0.470487
-0.000251496
-0.301095
9.57224e-05
0.30407
0.392715
0.00183549
-0.317112
-0.000617578
0.374445
0.00710224
-0.322828
-0.00234572
0.290006
0.368188
0.00630678
-0.39738
0.00935202
-0.330269
-0.39352
0.00846872
0.357805
0.297602
-0.324623
0.0102506
-0.00877088
0.00307152
0.00158034
0.000882216
0.00016972
-0.000616729
-0.00162975
-0.000786737
-6.39866e-05
0.000663282
0.000409596
0.00058806
0.000248509
0.423479
-0.42474
0.00173384
0.424168
-0.427993
0.382799
-0.383454
0.388367
-0.375583
-0.0145434
-0.198057
-0.00625898
0.200897
-0.00131518
-0.204006
-0.0027371
0.195299
-0.00257056
0.00219487
0.0701224
0.00507326
-0.0557197
0.467372
0.00198954
-0.295895
-0.00234517
0.302976
0.365454
0.00564993
-0.407832
0.0109
-0.289572
-0.517105
-0.00221202
0.447094
-0.0300117
0.168566
0.00129873
0.122054
0.0767759
0.0448993
0.028869
0.228414
-0.144748
-0.0130662
0.00599588
0.000134023
-0.000504302
-0.000178686
-6.93895e-05
-0.00086488
-0.00512506
0.00163884
0.277527
-0.199108
-0.322221
-0.0736077
0.0612243
-0.158194
0.507116
-0.233847
-0.285734
-0.276511
-0.161699
0.380969
0.421228
0.021989
-0.260699
-0.00943671
0.389997
-0.00838489
-0.290586
0.00282449
0.325618
0.390531
-0.00484964
-0.308629
0.00100929
0.321105
0.00171037
0.00195636
-0.379798
0.00586979
-0.366351
0.0338544
0.0346357
0.00106709
-0.204196
-0.341961
-0.238669
-0.168608
-0.355572
-0.125819
-0.0638807
0.0372973
0.0106106
0.481516
-0.00747661
-0.290868
0.00216145
0.309468
0.398991
-0.00745482
-0.307974
0.00118683
0.386092
-0.0026931
-0.31394
0.000392217
0.31811
0.387069
0.00026173
-0.387239
-0.000353142
0.000377638
-0.38485
0.00691059
0.00706634
0.0192662
0.005832
-0.359419
0.0163023
-0.290663
0.0010769
-0.0533038
-0.0830451
-0.02252
0.0226633
-0.00919047
-0.443972
-0.00122113
-0.00310005
0.0626918
0.00124762
0.471727
-0.00240765
-0.300221
0.000461442
0.303524
0.395286
-0.000252086
-0.315733
9.40196e-05
0.381232
0.00271519
-0.319642
-0.0008246
0.307363
0.380308
0.00607488
-0.392228
0.0010157
-0.000607034
6.5764e-05
0.000296724
0.00033727
0.000243534
0.000152635
7.98726e-05
-0.00118639
-0.00309379
-0.000736668
-0.000817095
-0.00103359
-0.000122122
0.000430053
0.000665706
0.000834711
0.000195698
0.000316219
-0.000190636
-0.000230716
-0.00110407
-0.000560354
0.431066
-1.77818e-05
-0.430909
0.43338
3.75266e-05
-0.437781
0.437992
-0.432853
0.437059
-0.000648565
-0.443942
0.436955
-0.434545
0.430597
-0.00193197
-0.438962
0.419036
-0.417573
0.417966
-0.419226
0.00188529
-0.430913
0.43965
0.000998467
-0.437274
0.00074371
-0.437359
0.44481
0.000597018
-0.44281
0.000270834
-0.438968
0.445557
-0.43929
0.439612
0.000109999
0.438093
-0.43748
-0.00016407
0.44267
-4.5224e-05
-0.444658
0.438652
-0.437344
-0.000948976
-0.500292
0.30828
-0.000459359
0.495038
-0.00236895
-0.49762
0.311464
0.00130292
0.482145
-0.423317
0.406134
-0.0014813
-0.413118
-0.000485785
0.403003
4.3765e-05
-0.4029
0.000905979
0.413438
0.00150648
-0.406239
0.424366
-0.483464
0.00342745
0.00511917
0.00466802
0.0171936
0.0117228
-0.242433
0.250038
-0.246363
0.24631
-7.35055e-05
-0.000727382
-0.000691322
-0.250015
0.242269
-0.0118558
-0.00683146
0.12956
-0.144704
0.000510855
-0.000943697
0.402292
-0.407281
0.407516
-0.402493
0.415984
-0.43795
-0.0119186
-0.00456458
-0.129559
0.00680795
0.144638
-0.0059692
0.00265756
0.00255819
7.49121e-05
0.000131804
0.000192063
0.000216102
0.000174292
-0.439006
6.9631e-05
-0.439316
0.439715
-0.444381
0.439302
0.0001184
0.444711
-0.438238
-9.67417e-05
-0.500161
0.307301
2.4495e-05
0.498791
-0.306467
1.0639e-05
-0.28021
0.285287
0.00283829
-0.281041
0.285849
0.00389013
-0.280095
0.29013
0.00726891
-0.278104
0.296745
0.00624777
-0.281276
-0.0094333
-0.000109401
-0.00137084
0.00238673
0.000321565
0.00124348
-0.00017201
0.000346685
-0.000956378
0.00135831
0.00551305
0.290505
-0.30473
-0.000421587
-0.269879
0.306922
0.0299885
0.0122973
-0.000492426
0.0121091
-0.203058
-0.000289466
0.31873
0.0185834
-0.475644
-0.00305416
-0.00475491
0.0248953
0.0171177
-0.0226653
-0.241397
0.369127
0.119849
0.392591
0.14592
0.0830361
0.0199469
0.0606033
-0.342198
0.437334
-0.415273
0.0118747
0.00197772
-0.0188446
-0.00503063
-0.00261754
0.00746951
0.00170233
0.00068515
0.000811758
0.000641873
-0.499965
0.307059
-0.307515
0.500685
2.81593e-05
-0.000772667
-0.00228451
-0.000505192
-0.000659872
-1.48091e-05
0.000152495
0.000822963
0.000615528
-0.438073
3.01103e-05
-0.442874
0.439207
-0.499413
0.306517
0.00132191
0.5027
-0.30946
0.00300642
0.000324446
-0.000981597
-0.00178685
-0.00595787
-0.00443947
0.324061
0.469142
-0.489516
0.0402519
0.00709279
0.00332408
0.0117884
0.00574035
0.0138438
-0.34266
0.0120165
0.0328346
-0.348253
0.00277008
0.00151371
0.00107816
0.00198168
0.00302589
0.00412429
0.00190051
0.00123927
0.000714189
0.000534053
0.000414956
0.000610764
0.000808803
0.000570148
0.000444568
0.000582908
0.00073202
0.000609146
0.00106661
0.00111011
0.000582209
0.00129622
0.00108163
0.00154206
0.00114557
6.42381e-05
-0.000931471
-0.000326231
0.0021677
0.00406411
0.000341774
-0.0231586
0.00276475
0.000562121
0.000937748
0.00114806
0.0012692
0.00105492
0.00225517
0.00139821
0.00264241
0.00146407
0.42319
-0.431631
0.0021567
0.415023
0.00693838
0.00135863
0.00337773
0.0176094
-0.0679906
0.168584
-0.13438
0.283361
0.0414139
0.193615
-0.155834
0.126043
-0.135953
0.0860664
0.0980865
-0.148487
0.0339728
-0.154764
0.0909438
0.0944897
0.185435
-0.00862113
-0.00233388
-0.0236029
-0.00113739
-0.107632
-0.00167123
-0.0007546
0.000656827
0.000886488
0.00167823
0.000990968
0.000653844
0.000852135
0.000646259
0.00016401
0.000588485
0.00034772
0.00240203
0.00114733
0.000490614
-0.472044
0.47003
0.00106806
-0.300288
-0.000730705
0.305968
0.385628
0.00509666
-0.318642
-0.00191877
-0.389307
0.00165765
0.000918111
0.00022181
0.000469582
0.000235388
0.00250875
0.000600916
0.00027665
0.000453289
0.000434007
0.000441709
-0.00060315
-0.0014113
-0.00312076
-0.353345
0.00630356
0.325441
0.0186509
0.337425
-0.298332
-0.325567
0.384127
-0.257487
-0.242452
-0.200874
0.00226389
0.00214444
0.00195793
-0.381943
0.0129403
-0.00149909
-0.0619992
-0.000109315
0.00496325
-0.000530983
-0.467957
-4.15953e-05
-8.9989e-05
0.0635638
0.00229071
-0.061606
0.000435885
0.00290261
0.000890606
0.00165384
0.000400815
-0.390795
0.000448102
-0.380389
0.00127409
-0.000252944
-0.394663
-0.000246177
0.315477
-0.00312631
-0.00143096
-0.397567
0.0062254
-0.478666
0.0188584
0.0127964
0.0972627
0.0101506
-0.491569
0.0338855
0.00137244
0.00400293
0.0279916
0.186274
0.441105
0.229056
0.336844
-0.0165128
-0.00469551
-0.401466
-0.0114019
-0.0227071
0.01066
0.227266
0.327731
-0.0172212
-0.00559419
-0.00170682
0.310859
-0.386346
-0.00574204
0.000427183
-0.0175483
-0.0315922
0.000669232
0.209872
0.330065
-0.0181655
-0.00596496
-0.00199125
-0.389314
-0.00196556
-0.000269471
0.000126679
0.00181852
0.00468731
0.0014258
-0.0258301
-0.00736487
-0.000302415
-0.00263617
-0.00637139
-0.00401746
-0.0068824
-0.0012503
0.191641
0.369556
-0.0690752
0.0596095
0.0265896
0.0330536
0.009214
-0.00211661
-0.000800664
-0.000176855
0.000107771
0.000299439
0.000778454
0.00241898
-0.000127726
-0.000156861
-0.00105824
0.00157265
0.000882853
0.000975975
-0.0018894
-0.0184584
-0.0256578
-0.00775962
0.00272079
0.002748
-0.496943
0.43583
0.00131375
0.00136929
0.00137035
0.00262684
0.00326328
0.00310562
0.000654441
-0.00845446
0.124101
-0.41536
0.021128
0.00118346
0.0010986
0.000618806
0.000598423
0.00108723
0.000393748
0.000363486
0.000332236
0.000530934
0.000184659
0.000241628
0.000235312
0.00090349
0.000895781
0.43837
-0.000164599
-0.438059
0.43829
-0.000653102
-0.433943
0.433647
-0.437815
0.444433
-0.000447668
-0.438115
0.436533
-0.436123
0.00167277
0.505023
-0.313845
0.00594807
0.0026171
0.0021001
0.00120196
-3.06668e-05
-0.0104688
-0.0176771
-0.0356671
-0.0841109
0.00454604
-0.036172
-0.0119589
-0.00356042
0.00485725
0.0041388
-0.000493648
3.83975e-05
0.000966082
0.000499248
0.445324
-0.439126
0.439791
-0.445172
-0.000145699
-0.438357
0.443475
-1.15303e-05
-0.444635
-0.000638999
-0.43542
0.438377
-0.000250678
-0.439938
0.432939
-0.499131
-0.00160339
-0.00240634
-0.00102628
0.000309066
0.000586537
0.00222021
0.00514523
0.0213879
0.0859151
-0.0267327
0.856258
-0.0204749
-0.00448799
-0.0156434
-0.150128
0.0304037
0.0859852
0.00748426
-0.00123824
-0.0839701
-0.00136765
0.00257373
0.00623619
0.000396126
0.000480709
0.00656056
0.00348405
-0.264752
0.218156
-0.00871233
-0.00610649
-0.000420126
0.0447305
-0.0101818
0.0370073
0.0593108
0.095631
0.190111
0.0471675
-0.122798
0.048349
-0.154489
0.0379102
0.021077
-0.117353
0.00661088
-0.00239398
0.000272655
-0.000588808
4.83231e-06
0.00221198
-0.00104315
-0.00233435
-0.000332509
-0.00273358
-0.00096025
1.1112e-05
-0.000146348
0.000179694
-6.27244e-05
-0.000155492
-0.000879066
4.0574e-05
0.00122983
0.00248508
0.0102266
0.108504
0.455546
0.0260962
-0.0809419
0.292659
-0.00468825
-0.0625243
-0.0207985
-0.0298984
0.84992
-0.0162447
-0.00472447
0.00533549
0.00215847
0.00544919
-0.0759764
-0.00163772
-0.00176623
-0.0163624
-0.151162
-0.129181
-0.077928
-0.304814
0.0310601
0.0759321
0.00389151
-0.00428315
-0.00449703
-0.0023943
-0.0937991
-0.0046436
0.0449821
-0.026999
0.0478767
-0.00270358
-0.0855665
-0.00505778
-0.00280267
-7.98384e-05
0.0052104
0.0190798
0.0024959
0.00330661
0.017735
0.0173057
0.000830217
-0.00177655
-0.000446033
0.00105158
0.00299818
-0.0013652
-0.00111123
0.0134923
0.323286
0.0140815
-0.000343764
0.00190085
0.000468039
0.000154256
-0.000141848
-0.0014974
0.00117534
0.4387
-0.500652
0.00127361
0.000530383
0.000433495
0.000447293
-0.501839
0.439501
9.95585e-05
-0.439127
0.44519
-0.444679
0.000350719
0.43966
0.000320507
0.000126649
9.0386e-06
-8.25896e-05
0.000553935
0.00105274
0.000196663
8.07476e-05
-0.000217315
-0.000959035
0.00152127
0.437782
-0.431832
0.431584
-6.02559e-05
0.000114736
0.000207921
0.0001811
-1.33242e-05
0.439462
-0.502425
-5.88321e-05
-0.000185584
0.000152789
-0.000689524
-0.000725065
-0.502517
0.438227
-0.000535957
-0.000392275
-0.00102775
0.00101437
6.69729e-05
0.000121829
-0.0130738
-0.0208403
-0.0846671
-0.0135122
-0.00140169
4.91932e-05
0.000421102
2.57039e-05
0.000107524
0.00123097
-0.00136361
-0.00156356
-0.00035744
-0.00023319
-0.00190627
-0.00120081
-0.00112971
0.000319949
-0.00174061
0.00132399
-0.0019511
-0.00677774
-0.000585649
-0.00239803
-0.0150129
0.0107284
0.0298972
-0.000615266
0.00119755
-0.428728
0.00326404
0.0132413
0.0867481
-0.00176655
-0.00251683
-0.01869
-0.176639
-0.108483
0.0246581
-0.00314224
-0.00247917
-0.00195912
-0.0223801
-0.0028579
0.163088
0.0493388
-0.00835482
0.0347227
0.245844
0.0214405
-0.00360008
-0.00642908
-0.0075996
-0.0114158
-0.283176
-0.252111
0.00186759
0.0255495
0.00945858
0.0410548
-0.0776572
0.000480852
0.00452638
-0.0115709
0.000162791
-0.383841
0.00535783
0.00110019
-0.000275871
-0.0016631
7.81507e-05
-0.00136777
-0.462123
0.320195
-0.372476
0.019399
0.18441
0.315024
-0.000208819
-0.000342104
0.00110908
-0.079535
-0.301643
-0.0209625
-0.00478164
-0.0011701
-0.00255362
-0.0888399
0.000676938
-0.278764
0.00710031
-0.270689
-0.00209777
0.0369224
0.00136555
-0.106328
0.0501063
-0.0100522
0.333901
0.000391279
-0.284742
0.0213636
0.0891004
0.0166845
1.65813e-05
0.00148668
0.000317905
0.0050454
0.322893
-0.504152
0.00165359
-0.168003
-6.8769e-05
0.0220192
0.034653
0.0193864
0.00656784
-0.000503189
-0.00755059
-0.0202199
-0.035287
0.000243618
0.206193
0.245249
0.243986
0.171004
-0.406197
-0.382268
-0.0188951
0.387152
-0.00823839
-0.473265
0.0797442
0.0130392
-0.0551773
0.0608758
0.00381546
-0.0567435
0.0589076
0.00238781
-0.0545285
0.0595343
0.00191103
-0.0541189
0.0584742
0.000106887
-0.0558299
0.0561418
-0.00404959
-0.0609337
0.0508975
-0.0150746
-0.0805349
0.0303607
-0.0650717
-0.156108
-0.0748572
-0.233904
-0.287209
-0.280896
-0.23888
-0.254257
-0.26435
-0.252915
-0.273163
-0.259677
-0.257996
-0.268921
-0.257102
-0.274464
-0.272633
-0.254226
-0.338151
-0.158406
-0.152426
0.584447
0.0371403
0.329073
-0.162586
0.425704
0.0269164
0.377803
-0.167139
0.403053
0.022386
0.389579
-0.167653
0.398525
0.023151
0.410044
-0.162318
0.386824
0.0247025
0.502737
0.0606688
-0.0432677
-0.322179
-0.00305062
-0.243854
0.156931
-0.212128
0.18614
-0.20021
0.194177
-0.194931
0.197186
-0.19392
0.19736
-0.19236
0.200313
-0.186143
0.210707
-0.15736
0.242716
0.00433745
0.302845
0.213406
-0.0847553
0.238791
-0.222693
-0.0108748
-0.00522343
-0.122089
0.128896
-0.114757
0.212184
0.0287434
0.0344913