/*--------------------------------*- C++ -*----------------------------------*\
| =========                 |                                                 |
| \\      /  F ield         | OpenFOAM: The Open Source CFD Toolbox           |
|  \\    /   O peration     | Version:  2306                                  |
|   \\  /    A nd           | Website:  www.openfoam.com                      |
|    \\/     M anipulation  |                                                 |
\*---------------------------------------------------------------------------*/
FoamFile
{
    version     2.0;
    format      ascii;
    arch        "LSB;label=32;scalar=64";
    class       volScalarField;
    location    "1.7";
    object      gradTy;
}
// * * * * * * * * * * * * * * * * * * * * * * * * * * * * * * * * * * * * * //

dimensions      [0 -1 0 1 0 0 0];

internalField   nonuniform List<scalar> 
5322
(
0.045742
0.00563476
0.00160219
0.000801545
0.00137897
0.0014469
0.00119611
0.000891938
0.000632418
0.000410347
0.000136588
-0.00042852
-0.000412738
-0.000381731
-0.000350689
0.000815617
0.00106843
-1.47388e-05
0.000872792
-0.00136189
0.00157944
-0.00220167
0.00264585
-0.00366578
0.00443777
-0.00573292
0.00679474
-0.00886776
0.0103257
-0.0126496
0.0145229
-0.0174851
0.0202291
-0.0202164
0.0209289
-0.01211
0.0244153
0.0296263
0.0150089
0.0169387
0.0218967
0.018409
0.0198029
0.0204697
0.0195255
0.0201903
0.0198382
0.021207
0.0205557
0.0188542
0.0238228
0.0105175
0.0124131
-0.0379194
-0.00180506
-0.0217482
0.0120713
-0.028296
-0.00130209
-0.0245816
0.0122489
-0.0278011
-0.00115641
-0.0244031
0.0123053
-0.0288488
-0.00160766
-0.0236905
0.0124946
-0.0322609
0.000940556
0.0246279
0.0136555
0.0191613
0.0142367
0.0181059
0.0150552
0.0180577
0.0153721
0.0216107
0.00153499
0.00861105
0.0125383
0.0198008
-0.00122894
-0.00697426
0.0026679
0.00503793
0.0109935
0.00163279
0.00296147
0.000521048
7.0035e-05
6.54571e-05
0.0236866
-0.0138198
0.00045428
0.0139713
0.000437584
-0.000791781
0.00264621
0.000463437
0.0149623
-0.02303
0.0206729
0.000522367
-0.000476072
-5.64487e-05
1.495e-05
4.54129e-05
4.08964e-05
3.00891e-05
2.15714e-05
1.49115e-05
-8.70788e-07
5.48164e-06
0.000300779
-0.000109889
-4.99661e-05
-0.000215976
0.000272695
-0.000129123
-0.000264669
-0.000372378
-0.000415834
-1.56885e-05
0.000313283
-0.000231449
2.31661e-05
0.000256223
-0.000253878
1.11639e-05
0.000265724
-0.000272894
-9.31271e-06
0.000246785
-0.000297657
-2.4896e-05
-7.88781e-05
0.000458782
0.000373517
-0.000265642
0.00017224
0.000133312
-0.000293475
4.13259e-05
-0.00027844
0.000215968
0.000227837
-0.000252974
-3.47491e-06
-0.000228455
0.000231523
0.000257972
-0.000225579
-2.47371e-07
-0.000209614
0.000274673
-1.04508e-05
-3.95069e-06
0.000918022
-0.000710145
0.000948448
-0.00126265
6.08356e-05
-0.000598946
1.62749e-05
5.21443e-05
-7.51977e-05
0.00023698
-0.000471489
0.000472295
-0.000876785
3.69837e-06
0.000899783
-0.0010707
0.00111531
-0.00142006
8.32651e-06
0.00140464
-0.00184641
0.00191726
-0.00246117
1.29849e-05
0.00241699
-0.0031432
0.00325455
-0.00413513
1.85986e-05
0.00405981
-0.00516374
0.00534138
-0.00664275
2.90047e-05
0.0065239
-0.00811398
0.00839033
-0.0101586
4.71434e-05
0.00996994
-0.0121662
0.0125748
-0.014738
7.03883e-05
0.0144186
-0.0173169
0.0178709
-0.0199558
0.000101529
0.0194003
-0.0230995
0.0232902
-0.0138648
-0.000100137
-0.001591
0.000796877
-0.000481211
-2.28937e-05
0.000126738
0.000205988
1.69339e-05
0.0237125
-0.0138073
6.37344e-05
0.0166023
-0.00257961
-0.00114149
0.000991599
-0.000949448
0.0138815
-0.023357
0.000146531
0.000102638
0.000291282
0.000153846
6.05519e-05
1.5984e-05
-1.47102e-06
-7.95477e-06
-9.16972e-06
3.88669e-06
-4.68704e-06
-0.000239394
-0.000257169
-0.000258013
-0.000239141
6.15906e-05
7.39956e-05
4.07076e-05
-0.000310201
0.000142044
-0.000309405
7.35012e-05
6.17269e-05
4.14926e-05
-0.000305652
9.62491e-05
0.000288166
0.000178339
-0.000310282
0.000142589
0.000313085
0.000438813
0.000478757
-0.000889168
-0.000888166
-0.000952647
0.000841615
-0.00127499
0.0015244
-0.00208835
0.002634
-0.00345752
0.00435525
-0.00555997
0.00683739
-0.00861501
0.0101728
-0.0128228
0.0143472
-0.0180938
0.0189725
-0.00336318
0.0119485
-0.0019427
0.000467226
0.0164294
-0.01665
0.000955806
0.0130062
-0.0121199
0.00065956
0.00942247
-0.00819789
0.000461065
0.00639559
-0.00528511
0.000315533
0.00408473
-0.00327946
0.000204081
0.0024593
-0.00197722
0.000122592
0.00140053
-0.00120614
0.000110813
0.000738881
-7.29132e-05
0.000739035
-0.00120566
0.000110919
0.000845114
-0.000948704
0.000356581
0.000557753
0.000400916
0.000387252
-0.0008334
0.000669638
-0.00114596
0.00134172
-0.00187251
0.0023825
-0.00311305
0.00396975
-0.00503363
0.00623423
-0.00786194
0.00926791
-0.0117348
0.0130268
-0.0160669
0.016703
-0.00183926
0.00895658
-0.00691601
0.000822399
0.0231123
-0.0234443
0.00120724
0.018864
-0.0165115
0.000762367
0.0134724
-0.0108999
0.000491507
0.00902196
-0.00697514
0.00032583
0.0057663
-0.0043144
0.000207405
0.00352086
-0.00258411
0.000126823
0.00206241
-0.00156442
0.000116873
0.00113403
-0.00105337
0.000352343
0.000780449
0.000680048
-0.000339366
0.000769858
-0.0001745
9.99972e-05
0.000864952
-0.000760278
0.000846065
-0.00100734
0.00161689
-0.00143287
-1.44951e-05
-0.0012814
0.00109681
-0.000932077
2.12249e-05
0.000967704
3.82641e-05
2.74752e-06
-0.000250846
2.27608e-05
-1.97645e-05
1.32639e-05
-7.65646e-06
-3.79269e-06
0.000895427
-0.000897048
0.00108602
-0.00140481
2.70741e-06
0.0018727
-0.00241945
0.00319043
-0.00406157
1.40711e-05
0.00524838
-0.00651972
0.0082609
-0.00995237
3.29777e-05
0.012398
-0.0143854
0.017603
-0.0193969
-3.43598e-05
3.47295e-05
5.55877e-05
0.000158539
7.85718e-05
8.28348e-05
0.0125334
-0.0143837
6.44851e-05
0.0171017
-0.02011
0.0179626
-0.0192165
0.000177657
0.0234712
-0.0259021
0.0166588
-0.0127216
-0.0238937
-0.00186092
2.78916e-05
-0.0085687
-0.0023169
0.000330836
0.0122257
0.0149093
0.000950663
-0.0195429
0.0128671
-4.69918e-05
-0.0113844
0.00887624
-0.00016977
-0.00709772
0.00584522
-0.000115317
-0.00434029
0.00363476
-0.000103313
-0.00263401
0.00225619
-8.34117e-05
-0.00148178
0.00137775
-0.000101123
-0.000827998
0.000192603
0.000326889
-0.00054149
-3.99829e-05
0.000988892
-0.00119344
0.00134246
-0.00171469
0.00225288
-0.00287244
0.00465326
-0.00408979
-2.1433e-05
-0.00366285
0.00318964
-0.00244466
-2.07162e-05
0.0027699
1.38173e-05
-5.59049e-05
-3.04839e-05
-8.11508e-05
-0.000228759
-6.6984e-07
5.57439e-05
6.90902e-06
6.58787e-05
7.01234e-05
3.3814e-05
-4.64138e-05
0.000738057
0.000234594
4.07984e-05
0.000187892
-1.75539e-05
-0.000104761
-7.46123e-05
8.16474e-05
0.000125986
-0.000126381
-0.000201408
-0.00210175
-0.000112934
0.00255366
-0.00349115
0.0036885
-0.00460996
0.00583823
-0.00705695
0.0115877
-0.00998848
3.14383e-06
-0.00940746
0.00829939
-0.00655426
-1.67719e-05
0.00750616
5.64778e-05
-8.34283e-05
-7.59184e-05
4.47372e-05
-0.000720923
-0.000352182
-0.000249198
-0.000447506
-0.000178003
-0.000128567
0.00155739
-6.60424e-05
-3.91637e-05
0.00021301
-0.000385788
-0.000126889
0.000433713
0.000806128
0.00145499
7.45611e-05
-1.04498e-05
0.00010534
4.53576e-05
-0.001269
-6.73196e-05
0.00153373
0.0013997
-0.00197358
0.000122996
-0.00208489
-0.000125955
0.00264712
0.00246033
-0.00327051
0.00020528
-0.00346623
-0.000199349
0.00436347
0.00409547
-0.00527048
0.000318271
-0.00559846
-0.00021183
0.00681761
0.00643615
-0.00818556
0.00046768
-0.00872157
4.29899e-05
0.0100327
0.00955699
-0.0121635
0.000673988
-0.0130197
0.00114307
0.0137726
0.0134093
-0.0169644
0.000979436
-0.0181173
0.00460664
0.0174051
0.0174028
-0.00248855
0.000478577
-0.00303489
0.0566107
-0.0278126
-0.0287397
0.0423067
0.0111669
0.00393264
-0.0328768
-0.00773841
-0.00470382
0.0140123
-0.0147131
-0.000282586
0.000670283
-0.00279212
-0.00313638
-0.000650507
0.000839703
0.000451271
-0.00019983
-0.000522563
-0.000175224
0.000225092
6.18919e-05
3.07161e-05
1.31772e-05
-7.6259e-07
-1.07608e-05
-4.07567e-05
-1.94535e-05
0.000486769
-0.000487028
3.76708e-06
3.46013e-06
-0.000496298
0.000488697
-1.26948e-06
1.80419e-06
-1.91049e-06
-3.66561e-05
-2.33529e-05
8.85106e-05
4.90253e-06
0.000101702
-3.58095e-05
-4.42175e-05
-1.86325e-06
0.000168745
-0.000199712
0.000202683
-0.00016585
-0.000168775
-0.000140373
7.13372e-06
0.0002017
0.000177481
-0.000175213
-4.90075e-06
-0.000201126
7.34421e-07
1.60827e-06
5.85911e-06
-4.2004e-06
-6.28151e-06
-9.22305e-05
-5.8146e-05
-0.000110206
-0.000161875
-0.000188977
-0.000114507
-4.68119e-05
0.00080791
-0.00195853
-0.000851759
-0.000229288
0.00671943
-0.00794872
0.00886269
-0.0104712
0.0127568
-0.000582956
-0.0119542
-0.000525287
0.0105158
-0.000297271
-0.00109358
0.000178445
0.000125054
0.000246693
0.000291034
-0.000264187
-0.00317697
0.0109299
-0.00524864
-0.0181557
-0.002839
-0.00349228
-0.0431163
-0.0122201
0.00158992
-0.018251
0.0131724
0.000662574
0.000582675
0.0159133
0.0133169
0.00169933
-0.0015377
0.0174869
0.0157343
0.00179896
-0.00183371
0.0159159
0.0179006
0.00168009
-0.00410344
0.0132799
0.018127
-0.00648306
0.0105278
-0.00913769
0.00977611
-0.0383094
-0.0206878
0.00329809
-0.00947369
0.0180294
-0.0011369
-0.0292048
0.0168948
-0.00031572
-0.0199299
-0.0198439
-0.0284816
0.00951301
-0.0148719
-0.0100082
0.0153858
-0.0267506
-0.00405262
0.0167977
-0.0168967
-0.0014046
0.0128144
-0.0107704
-0.000741189
0.00882751
-0.00691885
-0.000528361
0.00575232
-0.00436205
-0.00036986
0.00359616
-0.00265217
-0.000219925
0.00217607
-0.00156632
-6.48595e-05
0.00134346
-0.000874386
0.000169149
0.000761356
-0.000353474
0.000675533
0.000778478
-0.00106301
0.00113133
-0.0015803
0.000118284
0.000667373
-0.000834287
0.000351548
0.000384909
0.000403816
0.000557256
0.000477644
0.00035619
0.000702516
0.00043134
-0.000137764
-0.000404702
-0.000618557
-0.000612873
-0.000931091
-0.00147333
-0.00113964
-0.000548857
-0.000317006
0.00417522
-0.00535072
-0.000225859
-0.000162501
-0.000306575
2.85254e-05
-0.00599535
0.00525609
2.23485e-05
0.00413669
-0.00527081
2.38808e-05
0.00666012
-0.00827388
5.11538e-05
0.0102041
-0.0123848
9.71512e-05
0.0147994
-0.0175635
0.000133214
0.0198807
0.000158197
0.000366071
1.09759e-05
-2.69658e-05
-7.22329e-05
1.17349e-05
2.88145e-05
2.14699e-05
1.24178e-05
5.58331e-06
1.92299e-06
9.06693e-07
4.32663e-06
1.32739e-05
-0.000474842
8.86164e-06
2.71825e-05
-3.21128e-06
-7.61429e-06
-1.30199e-05
-2.00502e-05
-3.45898e-05
-6.76198e-05
-0.00013245
-0.000178046
0.00073837
-0.000220834
-0.00057751
-0.000790762
0.0153295
-0.016413
0.0192563
1.8976e-05
-0.00270245
0.00224977
0.0069647
2.38431e-05
-0.00626682
0.00586111
0.00597937
5.41993e-06
-0.00667234
0.00622556
0.00537797
-9.70134e-06
-0.00842184
0.00798568
0.00754058
-0.000165594
0.0106489
-0.0112018
0.0109254
-0.0117277
-0.00109763
-0.00585149
0.00829156
-0.000743891
-0.00799289
-0.000188624
-5.80044e-05
0.0275633
-8.80218e-05
-0.0277411
0.0175424
-0.00062883
-0.018147
0.0181942
-0.000404761
-0.0190643
0.0279306
-0.00027212
-0.0279491
0.0242773
-0.0241969
0.0240322
-0.0246326
0.000115747
-0.027641
0.0273365
-2.81197e-05
-0.0181941
-0.00070085
0.0183415
-0.0156653
8.89032e-05
0.0278633
0.0100996
0.0268905
0.00998558
-0.0115038
0.0167362
0.00223509
-0.0120477
0.011806
0.000882484
-0.00910926
0.00815332
0.000588924
-0.00628959
0.00552485
0.000400605
-0.00411703
0.0034937
0.000278728
-0.00258127
0.00216469
0.000138383
-0.00156426
0.00122004
-6.18656e-06
-0.000994791
0.000581597
-0.000310269
-0.000866576
-0.000236187
-0.000737919
0.000490547
4.6618e-05
2.49229e-05
0.00029853
8.04293e-05
-0.000461852
-0.000373895
-9.57271e-05
-0.000291882
-0.000181259
-0.000138538
-0.000323867
-0.000152329
-0.000162671
-0.0003213
-0.000472787
-0.000506537
-0.000353622
0.000946922
7.19118e-05
-0.000675337
-0.000108229
0.00113201
0.00133245
6.12075e-05
-0.0012781
-0.000121759
0.00180862
0.00263666
-6.59561e-06
-0.00354553
8.8842e-05
0.0043719
-4.14567e-05
-0.00580634
0.000144792
0.00698571
-7.00771e-05
-0.00907752
0.000151774
0.0106384
-0.000100761
-0.0135075
0.000213497
0.0153853
-0.000185642
-0.0191695
8.38592e-05
0.020893
-0.000487824
-0.0259803
-0.000674649
0.000606791
-0.0157226
0.025663
0.000145596
0.0143659
0.000385314
-0.0119006
0.019539
-4.34287e-05
0.0102481
0.000316814
-0.00848426
0.0139167
-3.52626e-05
0.0070529
0.000240632
-0.00570055
0.00939925
-1.86738e-05
0.00461662
0.000186344
-0.00366136
0.00603402
-1.07236e-05
0.00289034
0.00012269
-0.00223944
0.00369889
-5.39271e-06
0.00172373
7.84755e-05
-0.00134254
0.00219305
-8.05727e-06
0.0010206
4.53146e-05
-0.000846757
0.00129664
-3.58083e-05
0.000765117
-9.76804e-05
0.000176076
-0.000780272
-0.000674331
0.000350256
-0.000767863
-0.000173852
-5.83488e-05
-0.00145702
-0.000807602
-0.000708198
-0.000462789
-0.000354814
0.000847251
0.000977037
8.89257e-05
-0.000639626
-0.000115312
0.00159932
3.33264e-05
-0.00207606
7.95652e-05
-0.000197534
-9.68106e-05
-4.29594e-05
-0.00088396
7.26121e-06
0.00030663
-3.61085e-05
-5.87432e-05
-7.95633e-05
0.000312868
-9.98417e-05
4.21017e-05
3.68524e-05
1.33373e-06
2.93019e-06
2.64665e-06
3.34106e-06
2.76205e-06
4.14259e-06
-3.98903e-06
-4.76906e-07
0.00187217
-0.00216832
1.19774e-05
-2.27141e-06
-1.44559e-05
1.76612e-06
-0.00110917
1.09339e-06
0.00141728
-0.0018947
3.89627e-06
0.00245704
-0.00321325
1.0226e-05
8.27588e-06
3.33529e-07
9.10989e-06
1.02909e-05
3.2065e-05
4.47431e-05
2.85527e-05
1.60292e-05
8.38498e-06
6.6385e-06
1.44544e-05
9.50327e-06
2.33646e-07
0.00139623
-0.00181007
0.00163436
-0.00213424
0.00276842
-0.00355468
6.25504e-05
-0.00127522
7.01027e-05
0.00119333
6.38825e-05
-0.000804826
4.05243e-05
0.000627119
-4.08305e-05
-5.5761e-06
0.00022057
-2.30543e-05
-0.000419598
0.00265212
7.69082e-05
-0.00218467
-0.000194092
0.0028293
0.00371436
0.000218115
-0.00372865
-0.000287757
0.00474328
0.00574381
0.000355375
-0.00589214
-0.000417902
0.00714423
0.00874605
0.000495254
-0.00891156
-0.000578321
0.0100854
-0.0127269
-0.000752113
0.0130639
-0.0174951
-0.000192983
-0.000617313
-0.000122934
-2.34325e-05
2.32232e-05
2.98048e-05
2.50456e-05
1.97603e-05
1.48193e-05
-1.35095e-06
5.50074e-06
0.000240306
0.000256826
0.0002593
-6.31016e-05
0.000313375
6.63967e-06
4.42334e-06
0.000322968
-5.38949e-05
0.000312876
-9.71856e-05
1.31805e-05
-2.45858e-05
2.60927e-05
-6.22905e-06
1.25142e-05
-8.2298e-07
-0.00106194
4.83707e-05
2.77212e-05
1.03241e-05
2.19225e-06
7.36766e-07
-0.000175538
0.000176448
7.21462e-06
-0.000143173
0.000235046
-5.76157e-05
1.64954e-05
5.44589e-05
1.67789e-05
-2.56282e-05
0.000316873
-0.00104284
7.17233e-05
-0.000708188
-0.000114813
0.00109794
0.00136206
4.67363e-05
-0.00129798
-0.000115313
0.00218989
0.00011453
-0.00223947
-0.000191411
0.00300145
0.00363329
0.000217727
-0.00377597
-0.00029656
0.00472212
-0.0059531
-0.000425486
0.00712072
0.000349611
0.000264924
0.000184857
0.000116431
5.97618e-05
1.67224e-05
-3.87388e-06
2.65738e-06
1.072e-05
3.75908e-06
-4.36215e-06
-2.22104e-05
-1.35569e-05
-6.09876e-06
-7.96576e-06
-5.53586e-05
-5.19724e-05
-0.00011195
-0.000113485
-0.000169839
-0.000197181
-0.00090959
-0.00140898
-0.00233008
-0.00251988
-0.00462222
-0.00396729
-0.0022729
-0.00858575
-0.0257888
0.00155789
-0.0411345
-0.0307003
-0.023272
-0.0155353
-0.01368
0.00516369
-0.0120787
-0.000685958
0.00308239
0.000340214
-0.000169873
0.0148032
-0.0171877
0.0196055
0.000177659
-0.00242622
0.00367413
0.00808543
0.000290489
-0.00564473
0.00756901
0.00755403
0.000303392
-0.00603342
0.00779758
0.00709874
0.00022239
-0.00808353
0.00888345
-0.000401817
0.000336359
0.000575721
0.00370977
-0.0157037
-0.0225908
0.00101715
0.0188609
0.000399737
0.000144453
0.011899
0.000141714
-0.0194716
0.022856
1.80795e-05
-0.0250386
0.0147874
-0.0147776
0.0128939
-0.00243926
-0.0165936
0.000523361
-0.0201434
0.0275221
-0.024093
0.0220675
-4.29684e-05
-0.0220982
3.2589e-05
0.0218872
-6.64942e-05
-0.0219887
1.2264e-05
0.0220855
-8.00229e-05
-0.022169
0.0245169
-0.0280882
0.00195795
-0.022068
0.0304434
0.00160024
0.000900735
-0.00982128
0.0104645
-0.0108376
3.52888e-05
-0.00802225
0.00738188
0.000527568
-0.00917623
0.00663593
-0.00780305
0.000659581
0.0152148
-0.00842696
0.00499411
0.0010593
-0.0093691
0.00740329
-0.000163879
-0.000140317
-8.68634e-06
0.000239798
0.000116953
3.96322e-05
6.03635e-06
-5.56037e-06
-9.29784e-06
-9.46123e-06
3.69906e-06
-4.35327e-06
0.000142928
0.000168798
4.77718e-07
-3.81546e-05
-2.36434e-05
0.000290173
9.63584e-05
-0.00026514
0.000133254
0.000171935
-0.000281403
4.00425e-06
-0.00029898
-2.45458e-05
-8.01049e-05
-0.000255364
0.000374796
0.00046384
2.34655e-05
8.88328e-05
-2.12984e-05
1.23771e-05
0.000217287
-0.000234163
-2.26687e-06
-0.000254762
0.000255853
0.000235847
-0.000215346
-2.62734e-07
-0.000274826
1.74314e-07
0.000275432
4.41074e-07
1.28152e-06
-8.55246e-06
2.57097e-06
2.32796e-05
5.12787e-05
0.00145371
0.000805068
0.000425705
-0.000139497
-0.000408161
-0.000636617
-0.00094143
-0.00143377
-0.00231255
-0.00400618
-0.00407891
-0.00789999
-0.00861527
-0.0185298
-0.0302558
-0.0273734
-0.0275133
0.0114207
-0.0161994
-0.00804989
-0.00869902
-0.0253319
-0.0308525
-0.0278501
-0.0278682
-0.0277507
-0.0276916
-0.0316483
0.0115723
-0.00158072
-0.00646311
0.0345473
-0.00969423
-0.0230176
-0.021401
-0.00622859
-0.00759143
-0.0173653
-0.0179652
-0.00240992
-0.00432974
0.000385243
0.000838104
0.000744739
0.000538314
0.000359307
0.000276804
0.000150268
0.000145987
4.26705e-05
9.59336e-05
-0.000267217
-0.00048167
-0.00073301
-0.00109498
-0.00170631
-0.00298749
0.000791402
0.000577489
0.000498046
0.000644713
0.00058299
0.000429488
0.000424346
0.000271588
0.00034275
0.000198857
0.00133732
0.00204787
-0.00259608
0.00349419
-0.00430961
0.000207441
0.00236985
-0.00187998
0.000128029
-5.14857e-06
-5.52355e-05
-5.39908e-05
-0.00115033
-4.5429e-06
-0.000307454
0.000179501
-8.41848e-05
-1.35604e-05
-2.2394e-05
4.0847e-05
-0.000294341
0.000227186
-1.36946e-06
-4.31992e-07
-4.03761e-07
3.87463e-07
0.000143352
-4.67918e-06
1.24672e-06
1.08916e-06
1.21851e-06
-8.81006e-05
1.02794e-06
3.70844e-05
2.32106e-05
3.06651e-05
-2.28691e-05
2.11718e-05
-9.34795e-08
2.54674e-06
-8.79104e-05
0.000294891
0.00028256
-0.000169913
-3.9214e-05
-0.000134639
0.000267164
2.54367e-05
9.03635e-06
1.52577e-06
6.49885e-07
-6.28956e-06
-4.85922e-06
-4.64005e-06
-3.00566e-05
-1.56119e-05
-5.57465e-05
2.45032e-05
-0.000107393
-0.00011017
-0.00016212
-0.000189474
-0.0031183
0.00394102
0.00572693
-0.00693055
0.00895728
-0.0107247
0.000469522
0.00617288
-0.00502298
0.000319044
1.54993e-05
-7.68758e-05
6.62037e-05
-8.60628e-05
0.000141739
-0.000199039
-0.000225962
-0.000204711
-0.000225833
-0.000143702
-2.18845e-05
0.000166168
0.000227716
0.000102381
0.00353393
0.000131095
0.000135356
6.04106e-05
2.41116e-05
6.18176e-06
-3.54269e-06
8.92713e-07
-1.29317e-06
-8.56323e-06
1.41184e-05
4.46392e-06
-3.32559e-06
3.50028e-05
1.4661e-05
1.53109e-05
8.13946e-06
1.07261e-06
1.22367e-05
1.10718e-05
3.2754e-06
6.71883e-06
1.2393e-05
2.1238e-05
1.14872e-05
7.46539e-05
3.42668e-05
5.26476e-05
0.000157611
6.93261e-05
0.000145376
0.000326338
0.000254913
0.00078449
-0.00243375
-0.00288174
-0.000472834
0.000380952
0.000525907
0.000298242
-0.00693414
-0.000161589
-8.93802e-05
-9.82932e-05
-0.000723049
-0.000244466
0.0161148
-0.000222873
-0.0198986
-0.000157052
-0.000850705
-0.0185098
-0.000852988
-0.00103611
-0.0123767
-0.00629795
-0.01029
-0.0246604
0.00258053
0.00617859
0.000376043
-0.00033902
-0.000292398
-0.000528949
8.72295e-05
-0.0144569
0.0190474
0.000119234
-0.00427192
0.00194864
0.00645422
4.53245e-05
-0.00808475
0.00515647
0.00520862
-1.27103e-05
-0.00833309
0.00550261
0.00462456
-6.50212e-05
-0.0076721
0.00186788
-0.0114098
0.00558675
0.00863818
-0.0106666
0.00313171
0.00131012
-0.000632129
-0.000105554
-1.61392e-05
3.08413e-05
3.39595e-05
2.67324e-05
2.00859e-05
1.3351e-05
5.4084e-06
1.24756e-05
5.47897e-05
0.00237423
-0.0030775
7.20967e-05
0.00396955
-0.00505317
0.00453114
-0.00570513
0.0070975
-0.00875527
0.000114322
-0.00337035
0.000134207
0.00322033
8.33589e-05
-0.00209908
0.000103842
0.00202498
2.06588e-05
8.67135e-05
0.000665211
-7.17808e-05
-0.00106958
0.00701312
0.000252327
-0.00562829
-0.000417907
0.00688499
0.00893348
0.000502838
-0.00875545
-0.000571866
0.0123105
0.000790912
-0.0126137
-0.000819089
0.0130501
0.0166218
0.000795319
-0.0208819
-0.000411762
-0.0173677
-0.0206456
0.000924367
0.0161477
0.0134069
-0.0170578
-0.000349366
-0.000623552
0.00057286
0.000468523
0.000377549
0.000279572
0.000190187
0.000115292
5.28711e-05
8.93427e-05
2.05022e-05
-3.89752e-07
2.9322e-05
-7.5849e-07
0.00636508
-0.0079377
0.000155544
0.00972372
-0.0119158
0.0106411
-0.0127821
0.0153394
-0.0173296
-0.000483067
-0.00724005
3.15587e-05
0.00732938
6.87367e-05
-0.00522318
0.000133238
0.00490752
1.15345e-06
0.000239369
0.00179038
-1.50789e-06
-0.00209737
0.0154646
0.000460236
-0.0116455
-0.000814804
0.0136941
0.0165296
0.000792466
-0.0214734
-0.000317162
-0.015344
-0.0275851
0.000232849
0.0204713
-0.00172302
0.00911791
-0.000222992
0.00617004
0.00528745
0.00267911
0.0016972
0.0114812
-0.0068478
-0.000344056
0.0012353
0.000687393
0.000484663
0.000361139
0.000255122
0.000163904
8.35308e-05
4.48318e-05
0.000577773
-0.000391782
-0.000640719
-0.000153702
0.000124196
-0.00035309
0.0011358
-0.000463229
-0.000551878
-0.000550115
-0.000339135
0.0008542
0.000960111
7.0617e-05
-0.00071881
-0.000109569
0.00132306
5.09049e-05
-0.00127401
-0.000116011
0.00183316
0.00219884
0.000120241
-0.00226536
-0.000196845
0.00297506
-0.000332942
-0.000259132
-0.00277385
-0.000140298
-0.00160462
0.000423422
0.000425969
0.000138384
-0.000452767
-0.000740891
-0.000476092
-0.000368305
-0.000798259
-0.000240746
-0.000131974
7.42163e-05
1.4022e-05
0.00161437
3.44323e-05
-0.00127727
-0.000119974
0.00172745
0.00224725
0.000111021
-0.0022486
-0.000189116
0.00361666
0.000222353
-0.00373479
-0.000291865
0.00474818
0.00577859
0.000337608
-0.00719706
-0.000576156
-0.000405609
-0.00458276
0.000857894
0.000862504
0.000628835
-0.000157358
-0.00157515
-5.50054e-05
-0.000801396
0.000143738
-0.000249537
-0.000302155
0.000104599
0.000417097
-0.000215302
-0.00193084
0.000321222
4.3535e-05
0.000401304
-4.91892e-05
0.00439229
0.000156854
-0.0035939
-0.000294082
0.00450564
0.00590768
0.000347087
-0.00586433
-0.000410109
0.00866916
0.000527011
-0.00882775
-0.000584687
0.0100836
0.0124999
0.000727712
-0.0153176
0.000425038
-7.11261e-05
-2.50661e-05
2.06932e-05
1.6171e-05
1.0222e-05
5.81822e-06
3.05491e-06
-1.86596e-06
4.95032e-07
1.29473e-05
2.83623e-06
-1.80682e-06
4.18046e-06
1.66391e-05
4.23232e-05
6.88266e-05
3.21841e-05
1.10493e-05
2.92213e-06
3.449e-06
-9.1723e-07
1.36495e-06
0.00189363
2.23373e-06
-0.00188603
0.00245524
4.11982e-06
-0.00320306
0.00321578
-0.00244467
0.00247795
5.92828e-06
-0.00324747
0.00320235
-0.00245482
0.00188694
-1.5966e-06
-0.00191879
0.00143152
-0.00142145
0.00142708
-0.00142654
5.62331e-06
-0.00188043
0.00192653
6.9904e-06
-0.00246951
1.75138e-06
-0.00319278
0.00326187
9.17809e-06
-0.00414806
-6.71621e-07
-0.00522969
0.00532844
-0.00524069
0.00526072
6.95684e-06
0.00411703
-0.00409946
4.27831e-06
0.00416153
1.39528e-05
-0.00530554
0.00524438
-0.00410396
-2.40511e-05
-0.00367646
0.00224804
1.05205e-05
0.00278242
-2.06599e-05
-0.00218179
0.00134689
1.04454e-05
0.0016296
-0.00144008
0.00110688
-5.33863e-06
-0.00112509
2.14831e-07
0.00110174
1.20774e-06
-0.00109785
4.41342e-06
0.00112825
7.41427e-06
-0.00110288
0.00144579
-0.00162748
1.77092e-05
1.87128e-05
1.2057e-05
4.13472e-05
2.50788e-05
-0.000490794
0.000509334
-0.000501013
0.000501835
2.71955e-07
-9.39228e-07
-1.17668e-06
-0.000508894
0.000491722
-2.45867e-05
-1.39162e-05
0.000249112
-0.000280197
6.32955e-07
-2.13763e-06
0.000909176
-0.000920256
0.000922639
-0.000906889
0.000942467
-0.000974173
-1.97097e-05
-3.82948e-06
-0.000248282
1.44442e-05
0.000280421
-1.16809e-05
1.06756e-05
9.46213e-06
2.66538e-06
4.94619e-06
8.26896e-06
1.04413e-05
1.0296e-05
-0.00656837
8.62742e-06
-0.00817507
0.00820275
-0.00826822
0.00819629
2.38919e-05
0.00667386
-0.00656772
-2.45924e-05
-0.00599841
0.0036676
2.13997e-05
0.00465876
-0.00288045
-0.000114697
-0.00211759
0.00256222
-0.000251845
-0.00346121
0.00412873
-0.000337996
-0.00537869
0.00643436
-0.00036402
-0.00794516
0.00962703
-0.000485009
-0.0114762
-0.00116191
-0.000385069
-0.000610393
-0.000209915
-0.00041615
-0.00017564
-0.000306867
-0.00013475
-0.000214659
-8.31937e-05
-0.000147806
0.00155714
-0.001721
-7.41366e-05
-0.00121813
0.000985797
3.949e-06
-1.4788e-05
-0.000134401
-3.96318e-05
-0.000581946
-4.35865e-05
0.000850142
3.66115e-05
-0.00129298
-1.38643e-05
-1.45114e-05
7.09445e-05
3.21554e-05
-4.64043e-05
-0.000490422
0.000738451
0.000237801
0.000864083
0.000306346
0.000174255
2.66828e-05
9.78717e-05
-0.000766034
0.000975895
-0.000940306
2.04632e-05
1.68787e-06
-4.3739e-05
-1.06356e-05
-7.31894e-07
6.67808e-05
8.33951e-05
0.000120346
0.000178782
4.37155e-05
-0.00935241
0.00572886
-0.00462129
0.007479
1.95619e-05
6.31634e-06
-2.95275e-06
3.00467e-06
1.21561e-05
2.44761e-05
3.91522e-05
4.92536e-05
-1.438e-05
-0.00999142
3.38632e-05
-0.0122324
0.0121755
-0.0138752
0.00851464
8.57682e-05
0.0114511
-0.00708774
-0.000162359
-0.000155978
0.00073415
0.000579354
0.000659137
0.000889207
0.00911
0.0133393
-0.0159821
0.001674
0.000112677
-4.81552e-05
0.000434169
-0.000154025
-6.52254e-05
-0.00778722
0.00011293
0.000730158
-0.0115106
0.000686521
0.000100233
4.4888e-05
9.80297e-05
0.000212741
0.000312235
0.000147433
5.66471e-05
2.69616e-05
2.28979e-05
2.1846e-05
3.11936e-05
4.1896e-05
2.71009e-05
2.13694e-05
2.69348e-05
1.76798e-05
1.5156e-05
-4.32941e-07
1.13258e-05
1.23345e-05
0.000104126
3.09144e-05
2.05942e-05
1.39314e-05
1.44301e-05
1.01026e-05
5.83386e-06
1.17016e-05
1.30456e-05
9.74137e-06
-4.70014e-05
1.69514e-05
3.09926e-05
2.30061e-05
4.01713e-05
6.38571e-05
7.03172e-05
0.000121251
6.02924e-05
0.00011535
5.6161e-05
0.0140919
-0.0170461
0.00026573
0.0191037
0.000365199
7.15171e-05
0.00020858
0.00127482
-0.00369522
0.0125045
-0.0104327
0.0219915
0.00317983
0.0135307
-0.0117828
0.0101523
-0.00992058
0.00709249
0.00804467
-0.0107625
0.00242822
-0.0116325
0.00749435
0.00774834
0.0145668
-0.000770951
-0.000302738
-0.00182701
-0.00013075
-0.00734517
-0.000151887
-3.27544e-05
3.50916e-05
4.94714e-05
8.40727e-05
4.53711e-05
3.82053e-05
4.54275e-05
3.79258e-05
-3.95032e-06
3.89479e-05
-3.99719e-07
0.0002806
0.000191075
0.00013428
-0.00881466
0.0106937
0.000360629
-0.00834837
-0.000581306
0.0100502
0.0126952
0.000719997
-0.012443
-0.000793025
-0.015194
0.000471379
0.000381964
-1.98841e-05
1.15769e-05
-3.48733e-06
0.000227862
4.10996e-05
2.12873e-05
2.82426e-05
2.19354e-05
-6.92001e-06
0.000194014
0.00011866
5.68813e-05
-0.00155022
-0.000137189
0.00183461
-4.23205e-05
0.00114199
-0.000823504
-0.000707591
0.00087449
-0.00051566
-0.000469917
-0.0004471
0.000141052
-0.000257324
-0.000287701
-0.00279031
0.000657791
-0.000290063
-0.000675641
0.000502367
0.000943613
-0.000419437
-0.00558808
0.000719378
0.000132189
0.00106541
-7.42821e-05
-0.00159337
-0.000562312
0.0010494
0.00173442
0.00130459
-0.000448734
-0.00465594
-0.000405452
-0.00452679
0.00115025
-0.000638663
-0.00734341
-0.000576611
0.0071677
0.00141645
-0.000876074
-0.0110057
-0.000551261
-0.0133184
0.00194763
0.000724605
0.00369259
0.000249812
-0.019424
0.000586652
0.00219035
0.00258312
0.00373595
0.0129736
0.0304482
0.0159901
0.0235562
-0.00210287
-0.00122799
-0.0157323
0.00140851
0.000900854
0.00262617
0.0157321
0.0228709
-0.00203358
-0.00112732
-0.000791319
0.0102098
-0.0106648
0.00133333
0.00112931
0.00115452
0.000449985
0.00203702
0.0144672
0.0230698
-0.00209415
-0.00113772
-0.000794589
-0.0107527
-0.000972591
-0.000714325
-0.000512319
0.000700547
0.000469505
0.000258492
5.64407e-05
0.000212617
0.000964682
0.00122183
0.00135442
-0.00126688
-0.00163933
0.00196315
0.0131952
0.025794
-0.00446435
0.00525173
0.00232276
0.00199609
0.000227988
-0.000144529
-7.3594e-05
-3.68649e-05
-1.91651e-05
-1.02398e-05
-4.01986e-06
4.4006e-06
1.89896e-06
8.41736e-07
-5.75699e-07
5.7065e-06
3.20751e-06
3.35353e-06
-2.07236e-07
-3.42729e-05
-7.09229e-05
-6.48353e-05
1.03846e-05
2.76683e-05
-0.00278189
0.00246634
1.08439e-05
9.18951e-06
1.05247e-05
1.05917e-05
5.60179e-06
1.11754e-05
3.37026e-05
-9.76289e-07
0.00025366
-0.00114403
8.93705e-05
6.3098e-05
7.68896e-06
1.11134e-05
1.3565e-05
-9.4814e-07
-8.76593e-06
1.82591e-05
1.36097e-05
1.14372e-05
9.82622e-06
1.22842e-05
1.42159e-05
4.37365e-05
4.12091e-05
0.0121348
3.17998e-06
-0.012107
0.0144649
-2.07124e-05
-0.0169463
0.016942
-0.0144415
0.0146925
2.6791e-05
-0.0170952
0.0170973
-0.0144058
2.45424e-05
0.0166927
-0.0104503
-8.78555e-05
-0.000111501
0.000119317
0.000260704
0.00029755
-0.000219291
-0.00143807
-0.00292917
-0.00561371
4.20353e-05
-0.0021546
-0.000863076
-0.00026158
0.000271796
0.000251132
4.6785e-05
5.23164e-05
5.28107e-05
2.8266e-05
0.0101706
-0.0100004
0.0100321
-0.0101429
-1.77876e-05
-0.0121162
0.0122647
-8.96872e-08
-0.0146787
-4.77892e-05
-0.0170101
0.0171126
-1.77346e-05
-0.0200048
0.0197019
-0.0226346
-9.35332e-06
-0.000153854
-5.48582e-05
1.76593e-05
3.25194e-05
0.00011792
0.000282914
0.000698092
0.00399772
-0.00232671
0.0570948
-0.00152182
-0.000260539
-0.0010805
-0.0112626
0.00251844
0.0065456
0.000509868
-0.000120058
-0.00580076
-0.000146026
0.00013663
0.000296083
2.51498e-05
3.24148e-05
0.000553955
0.000321753
-0.0184907
0.0162572
-0.000774166
-0.000471873
-0.000146237
0.0032453
-0.000862927
0.00266267
0.00435076
0.00774846
0.0149253
0.00328698
-0.00838518
0.00339016
-0.011601
0.00269758
0.00125203
-0.00801821
0.000565775
-0.000136355
1.1689e-05
-2.77968e-05
1.14537e-05
0.000120346
-8.22932e-05
-0.000196179
-6.02615e-05
-0.000215921
-4.94636e-05
7.64849e-06
-2.46396e-06
1.27104e-05
-8.85744e-06
-2.01457e-06
-4.17567e-05
5.09843e-06
6.59368e-05
0.000143137
0.000337721
0.00577307
0.0247425
0.00130948
-0.00329147
0.0158249
0.000737665
-0.0023654
-0.00150994
-0.00250617
0.0567338
-0.00124963
-0.000279945
0.00048777
0.000111141
0.000256294
-0.00528701
-0.000163017
-0.000157265
-0.00114135
-0.011364
-0.0104605
-0.00672813
-0.0239032
0.00255581
0.00582719
0.000259667
-0.000333543
-0.000355446
-0.000212724
-0.00641594
-0.000342735
0.00313203
-0.00206199
0.00336344
-0.000229162
-0.0058918
-0.000367153