/*--------------------------------*- C++ -*----------------------------------*\
| =========                 |                                                 |
| \\      /  F ield         | OpenFOAM: The Open Source CFD Toolbox           |
|  \\    /   O peration     | Version:  2306                                  |
|   \\  /    A nd           | Website:  www.openfoam.com                      |
|    \\/     M anipulation  |                                                 |
\*---------------------------------------------------------------------------*/
FoamFile
{
    version     2.0;
    format      ascii;
    arch        "LSB;label=32;scalar=64";
    class       volVectorField;
    location    "1.2";
    object      flux;
}
// * * * * * * * * * * * * * * * * * * * * * * * * * * * * * * * * * * * * * //

dimensions      [0 1 -1 1 0 0 0];

internalField   nonuniform List<vector> 
5322
(
(-2.05635e-06 5.21452e-06 -6.91637e-06)
(1.37972e-07 6.73419e-07 -6.06053e-06)
(1.39037e-07 2.17493e-07 -4.69382e-06)
(-2.83737e-09 1.4182e-07 -5.06606e-06)
(-9.39048e-09 1.85027e-07 -3.41589e-06)
(-7.08608e-09 1.66548e-07 -2.15108e-06)
(-4.21267e-09 1.20083e-07 -1.26274e-06)
(-2.32969e-09 7.68546e-08 -6.91363e-07)
(-1.28475e-09 4.56296e-08 -3.54821e-07)
(-5.92434e-10 2.44793e-08 -1.75063e-07)
(-1.50714e-10 7.84493e-09 -9.11381e-08)
(8.79166e-10 -1.36517e-08 -6.60448e-08)
(1.07241e-09 -1.16723e-08 -4.24902e-08)
(-1.38651e-08 -1.10887e-08 -6.27971e-08)
(1.70789e-10 -1.06616e-08 -7.17313e-08)
(2.95893e-08 2.63678e-08 -6.65502e-08)
(-2.25873e-08 3.39124e-08 -7.67441e-08)
(1.33338e-09 -6.11603e-10 -6.59775e-08)
(-2.05416e-08 3.08962e-08 -1.0986e-07)
(2.73901e-08 -5.63684e-08 -1.52325e-07)
(-3.54471e-08 7.15989e-08 -2.30542e-07)
(6.4001e-08 -1.14181e-07 -3.21677e-07)
(-6.66647e-08 1.48043e-07 -4.76273e-07)
(1.3156e-07 -2.29162e-07 -6.52604e-07)
(-1.37637e-07 2.96475e-07 -9.2907e-07)
(2.39106e-07 -4.20461e-07 -1.2188e-06)
(-2.40818e-07 5.26693e-07 -1.66946e-06)
(4.2159e-07 -7.43745e-07 -2.13936e-06)
(-4.27677e-07 9.08448e-07 -2.81533e-06)
(6.69443e-07 -1.1875e-06 -3.45849e-06)
(-6.36272e-07 1.41653e-06 -4.37892e-06)
(1.06488e-06 -1.79579e-06 -5.24328e-06)
(-7.80069e-07 2.14162e-06 -6.34323e-06)
(1.67188e-06 -2.22247e-06 -7.18561e-06)
(1.94641e-07 2.34326e-06 -7.9179e-06)
(2.62902e-06 -1.39939e-06 -7.15847e-06)
(1.86795e-06 2.83651e-06 -8.58195e-06)
(-7.39692e-07 3.41838e-06 -8.3697e-06)
(2.03515e-06 1.73681e-06 -8.61899e-06)
(-1.23133e-07 1.9761e-06 -6.4126e-06)
(-1.93323e-06 2.52714e-06 -7.97757e-06)
(1.93575e-06 2.12743e-06 -8.23586e-06)
(-1.17016e-07 2.30612e-06 -6.2831e-06)
(-2.05724e-06 2.36314e-06 -8.23574e-06)
(2.04901e-06 2.25429e-06 -8.15216e-06)
(-6.90046e-08 2.35137e-06 -6.39746e-06)
(-2.18552e-06 2.29051e-06 -8.35868e-06)
(1.93351e-06 2.44881e-06 -7.90706e-06)
(-4.32894e-08 2.39509e-06 -6.33871e-06)
(-2.296e-06 2.17943e-06 -8.2517e-06)
(-2.28599e-06 2.7578e-06 -9.50483e-06)
(-3.26946e-06 1.19409e-06 -6.29641e-06)
(-1.10563e-06 1.42489e-06 -8.89562e-06)
(2.02131e-06 -4.28354e-06 -7.68009e-06)
(-1.33983e-07 -1.982e-07 -6.69697e-06)
(-3.2851e-06 -2.45152e-06 -7.25403e-06)
(-1.03366e-07 1.37676e-06 -9.15666e-06)
(3.11669e-06 -3.18434e-06 -7.10346e-06)
(-3.70972e-08 -1.39331e-07 -6.68369e-06)
(-3.1151e-06 -2.76556e-06 -7.2242e-06)
(-1.30591e-08 1.39692e-06 -9.24537e-06)
(3.03507e-06 -3.12768e-06 -7.19819e-06)
(-1.5033e-08 -1.23537e-07 -6.68006e-06)
(-3.05985e-06 -2.74564e-06 -7.04853e-06)
(4.81803e-09 1.40361e-06 -9.24894e-06)
(2.99668e-06 -3.24734e-06 -7.46305e-06)
(4.70909e-08 -1.75261e-07 -6.66225e-06)
(-3.03129e-06 -2.66797e-06 -6.70995e-06)
(1.71125e-07 1.4271e-06 -9.09341e-06)
(2.5072e-06 -3.64501e-06 -7.98862e-06)
(1.63007e-07 1.0104e-07 -5.56246e-06)
(-2.28798e-06 2.69162e-06 -8.01956e-06)
(2.60134e-06 1.49038e-06 -7.62978e-06)
(-2.67585e-06 2.09391e-06 -7.51379e-06)
(2.57442e-06 1.55348e-06 -7.58117e-06)
(-2.62298e-06 1.97781e-06 -7.54488e-06)
(2.62468e-06 1.64311e-06 -7.53947e-06)
(-2.62816e-06 1.97324e-06 -7.52347e-06)
(2.99639e-06 1.68097e-06 -7.65548e-06)
(-2.2123e-06 2.37217e-06 -7.33579e-06)
(1.02161e-06 1.56327e-07 -7.20549e-06)
(-1.68585e-06 9.8308e-07 -5.96131e-06)
(-1.15702e-06 1.41986e-06 -6.18522e-06)
(1.73053e-06 2.21535e-06 -7.76253e-06)
(1.31677e-07 -1.27432e-07 -4.88489e-06)
(-6.77061e-07 -7.47754e-07 -6.8117e-06)
(1.30726e-06 3.06478e-07 -1.02925e-05)
(-3.6507e-06 5.73876e-07 -6.87217e-06)
(-1.0736e-06 1.29464e-06 -6.82478e-06)
(3.89118e-06 1.9937e-07 -5.82705e-06)
(-1.79593e-07 3.4966e-07 -7.12649e-06)
(2.78848e-08 5.95997e-08 -4.57737e-06)
(4.63448e-08 7.60201e-09 -4.81726e-06)
(3.76564e-07 6.77308e-09 -4.81685e-06)
(2.11096e-06 2.52741e-06 -6.40092e-06)
(-3.82267e-07 -1.5078e-06 -6.446e-06)
(7.19193e-08 5.02095e-08 -5.9645e-06)
(-1.04857e-07 1.52434e-06 -6.52761e-06)
(1.34401e-06 4.90267e-08 -1.04588e-05)
(-3.21907e-06 -9.98443e-08 -6.66266e-06)
(-3.2094e-06 3.09706e-07 -6.75299e-06)
(6.38336e-06 5.26622e-08 -5.90332e-06)
(-1.0919e-07 1.6373e-06 -6.58102e-06)
(1.63582e-06 -2.45645e-06 -6.33592e-06)
(2.67426e-06 2.20579e-06 -6.92895e-06)
(1.02378e-07 6.24028e-08 -5.80914e-06)
(3.55106e-08 -5.342e-08 -6.08195e-06)
(2.24212e-08 -5.91867e-09 -5.12403e-06)
(9.91186e-09 1.75901e-09 -3.45976e-06)
(2.48149e-09 4.78697e-09 -2.18303e-06)
(-3.6713e-10 4.11062e-09 -1.28087e-06)
(-1.04552e-09 2.81876e-09 -6.99082e-07)
(-9.65671e-10 1.7608e-09 -3.55953e-07)
(-6.50157e-10 9.6645e-10 -1.73283e-07)
(-1.4117e-10 3.00999e-10 -1.00216e-07)
(-2.2917e-10 2.79053e-10 -7.42288e-08)
(-9.30404e-09 9.57386e-09 -5.55452e-08)
(-8.55726e-09 -3.07451e-09 -5.78736e-08)
(1.40519e-09 -1.70535e-09 -9.17091e-08)
(4.94602e-09 -6.32514e-09 -6.23081e-08)
(-1.60953e-11 8.34683e-09 -5.19844e-08)
(6.93679e-09 -3.34211e-09 -5.87758e-08)
(-8.44996e-09 -7.2605e-09 -5.79148e-08)
(-7.3267e-10 -1.0509e-08 -7.89148e-08)
(-2.52841e-09 -1.15716e-08 -6.00827e-08)
(1.32022e-08 -3.91598e-10 -7.75039e-08)
(1.04897e-08 8.99669e-09 -5.74014e-08)
(2.45479e-09 -6.48794e-09 -5.9988e-08)
(8.36037e-09 7.06731e-10 -7.65791e-08)
(4.96621e-09 7.3133e-09 -5.76447e-08)
(3.59164e-09 -7.1975e-09 -5.9138e-08)
(9.0068e-09 3.27604e-10 -7.75114e-08)
(4.02382e-09 7.55031e-09 -5.86056e-08)
(4.3734e-09 -7.78467e-09 -5.81134e-08)
(9.14883e-09 -3.03602e-10 -7.77134e-08)
(3.38647e-09 6.95199e-09 -5.91158e-08)
(7.25832e-09 -8.46633e-09 -5.81646e-08)
(1.04141e-08 -7.56838e-10 -7.94962e-08)
(1.15239e-08 -2.52329e-09 -6.04682e-08)
(4.32157e-10 1.30972e-08 -7.79769e-08)
(-8.92659e-09 1.04885e-08 -5.78294e-08)
(1.63904e-10 -8.07996e-09 -5.23242e-08)
(6.37268e-09 5.02431e-09 -6.25599e-08)
(-8.33608e-09 3.8922e-09 -5.72438e-08)
(-9.49534e-09 -9.30193e-09 -5.57572e-08)
(1.78409e-09 1.48917e-09 -9.1998e-08)
(3.13616e-09 -8.53849e-09 -5.80651e-08)
(1.33815e-09 6.46881e-09 -5.78857e-08)
(-7.37024e-09 7.04494e-09 -5.53123e-08)
(-8.20822e-09 -7.93198e-09 -5.59041e-08)
(2.07546e-09 -1.28159e-10 -9.33121e-08)
(1.62461e-09 -6.91149e-09 -5.80454e-08)
(2.18584e-09 7.05585e-09 -5.7858e-08)
(-8.149e-09 8.14059e-09 -5.5609e-08)
(-7.49763e-09 -6.90941e-09 -5.56233e-08)
(2.11213e-09 2.90507e-11 -9.31482e-08)
(7.45913e-10 -6.21035e-09 -5.78544e-08)
(3.96351e-09 8.47574e-09 -5.70786e-08)
(-8.08868e-09 -1.07635e-10 -5.21045e-08)
(1.06884e-08 1.53775e-10 -7.19364e-08)
(-2.62878e-08 2.9666e-08 -6.66308e-08)
(-3.39009e-08 -2.25989e-08 -7.70833e-08)
(4.1822e-08 3.44061e-08 -1.22612e-07)
(-6.45345e-08 -5.16237e-08 -1.66433e-07)
(-4.00652e-09 3.07452e-09 -8.68483e-08)
(-3.11177e-08 -2.03972e-08 -1.10391e-07)
(8.18722e-10 1.30056e-09 -6.62285e-08)
(2.53987e-08 3.08848e-09 -7.82064e-08)
(-5.6205e-09 -1.71536e-09 -4.62254e-08)
(2.29041e-08 7.05556e-09 -6.06105e-08)
(1.1154e-08 -1.38923e-08 -6.3057e-08)
(1.69214e-08 1.40443e-08 -5.91019e-08)
(-3.16136e-08 -2.81693e-08 -7.34371e-08)
(1.08918e-08 1.73063e-10 -7.46026e-08)
(-2.74387e-08 2.9071e-08 -7.0568e-08)
(2.48902e-08 -3.90283e-08 -1.17421e-07)
(3.23426e-08 4.07466e-08 -1.1626e-07)
(-5.45985e-08 -5.83997e-08 -1.57666e-07)
(5.72521e-09 4.40778e-10 -1.09448e-07)
(-4.65187e-08 5.80356e-08 -1.57842e-07)
(5.94206e-08 -8.55315e-08 -2.34368e-07)
(7.40769e-08 8.90211e-08 -2.34337e-07)
(-1.12701e-07 -1.26659e-07 -3.31431e-07)
(8.09049e-09 8.29409e-10 -2.3004e-07)
(-9.46814e-08 1.24842e-07 -3.32393e-07)
(1.28239e-07 -1.78693e-07 -4.79104e-07)
(1.57177e-07 1.85432e-07 -4.79205e-07)
(-2.25622e-07 -2.56887e-07 -6.64533e-07)
(1.57594e-08 1.43303e-09 -4.69574e-07)
(-1.88686e-07 2.52916e-07 -6.66004e-07)
(2.53868e-07 -3.49001e-07 -9.2758e-07)
(3.09278e-07 3.61615e-07 -9.27908e-07)
(-4.26087e-07 -4.84332e-07 -1.24495e-06)
(2.83863e-08 2.51146e-09 -8.9732e-07)
(-3.56309e-07 4.76584e-07 -1.24782e-06)
(4.61405e-07 -6.35768e-07 -1.67691e-06)
(5.63599e-07 6.58123e-07 -1.67845e-06)
(-7.56709e-07 -8.48963e-07 -2.17115e-06)
(4.73044e-08 4.38467e-09 -1.59676e-06)
(-6.33737e-07 8.34092e-07 -2.17713e-06)
(7.71369e-07 -1.0804e-06 -2.82617e-06)
(9.51117e-07 1.11722e-06 -2.83114e-06)
(-1.26026e-06 -1.38048e-06 -3.52455e-06)
(7.463e-08 6.92806e-09 -2.64418e-06)
(-1.05319e-06 1.351e-06 -3.53565e-06)
(1.1846e-06 -1.70469e-06 -4.42939e-06)
(1.48466e-06 1.75931e-06 -4.44193e-06)
(-1.93876e-06 -2.04855e-06 -5.32395e-06)
(1.1411e-07 1.05195e-08 -4.05748e-06)
(-1.59808e-06 1.9912e-06 -5.34462e-06)
(1.63243e-06 -2.4646e-06 -6.35864e-06)
(2.03145e-06 2.48407e-06 -6.37186e-06)
(-3.33825e-07 -1.51372e-06 -6.51777e-06)
(1.2865e-06 -1.20368e-08 -1.04569e-05)
(-3.18489e-06 -1.90534e-07 -6.65932e-06)
(-3.2487e-06 9.75314e-08 -6.64e-06)
(6.40803e-06 -5.47366e-08 -5.92097e-06)
(-2.91179e-07 -2.6853e-09 -8.01713e-06)
(-3.09103e-07 1.28904e-08 -8.00003e-06)
(5.54291e-08 2.20507e-08 -4.81777e-06)
(4.09963e-07 2.05048e-09 -4.82489e-06)
(2.10355e-06 2.52997e-06 -6.39137e-06)
(-2.71652e-07 -1.50714e-06 -6.50008e-06)
(9.3419e-08 5.8274e-09 -5.9188e-06)
(-3.37109e-07 1.81676e-06 -6.61831e-06)
(1.2367e-06 -2.90915e-07 -1.04569e-05)
(-3.23717e-06 -1.3824e-07 -6.70538e-06)
(-3.195e-06 1.21773e-07 -6.63071e-06)
(6.36851e-06 -1.07378e-07 -5.93685e-06)
(-1.53267e-07 1.51367e-06 -6.48966e-06)
(1.63444e-06 -2.49244e-06 -6.36461e-06)
(6.90845e-08 1.57627e-08 -5.95944e-06)
(5.56824e-08 1.06745e-08 -5.93623e-06)
(2.63976e-08 3.09649e-08 -5.11452e-06)
(1.29738e-08 1.53681e-08 -3.46237e-06)
(4.16787e-09 5.36579e-09 -2.18742e-06)
(3.49684e-10 9.50883e-10 -1.28383e-06)
(-7.91129e-10 -4.89021e-10 -7.00669e-07)
(-8.97968e-10 -7.52991e-10 -3.56708e-07)
(-6.24109e-10 -5.64519e-10 -1.73616e-07)
(-1.52447e-10 -1.15225e-10 -1.00407e-07)
(-2.3232e-10 -2.12589e-10 -7.4409e-08)
(7.01456e-09 -7.52611e-09 -5.56562e-08)
(-7.99884e-09 -8.16706e-09 -5.5777e-08)
(8.08049e-09 -8.21173e-09 -5.57433e-08)
(-6.93316e-09 -7.49724e-09 -5.55404e-08)
(1.02359e-10 2.19006e-09 -9.31548e-08)
(6.8898e-09 1.98387e-09 -5.78487e-08)
(-6.18686e-09 8.75733e-10 -5.7873e-08)
(6.1936e-11 -9.46408e-09 -5.40355e-08)
(-6.99666e-09 3.78175e-09 -5.92347e-08)
(2.76562e-11 -8.91546e-09 -9.25489e-08)
(-6.78671e-09 1.95091e-09 -5.78494e-08)
(1.41167e-11 2.19555e-09 -9.32535e-08)
(6.2831e-09 9.17016e-10 -5.79978e-08)
(2.37533e-10 -8.797e-09 -9.18325e-08)
(6.45196e-09 2.47835e-09 -6.01024e-08)
(-5.94261e-10 8.16158e-09 -7.66773e-08)
(-7.14007e-09 4.84239e-09 -5.77988e-08)
(-2.42141e-11 -9.47189e-09 -5.41085e-08)
(7.02413e-09 3.80327e-09 -5.92831e-08)
(9.37914e-12 8.88032e-09 -7.67762e-08)
(2.15656e-11 1.2486e-08 -4.22799e-08)
(1.36959e-08 1.40221e-08 -6.1119e-08)
(-2.82449e-08 -2.88711e-08 -7.06386e-08)
(2.83398e-08 -2.88617e-08 -7.05648e-08)
(-2.7712e-08 -3.08324e-08 -7.35212e-08)
(4.02681e-08 3.0786e-08 -1.16384e-07)
(-5.76558e-08 -5.24167e-08 -1.57803e-07)
(8.79564e-08 7.03833e-08 -2.34628e-07)
(-1.24962e-07 -1.0747e-07 -3.31618e-07)
(1.83073e-07 1.49225e-07 -4.798e-07)
(-2.5338e-07 -2.14604e-07 -6.64716e-07)
(3.56894e-07 2.93678e-07 -9.29004e-07)
(-4.77709e-07 -4.04859e-07 -1.24517e-06)
(6.495e-07 5.35295e-07 -1.68043e-06)
(-8.3719e-07 -7.1895e-07 -2.17127e-06)
(1.10282e-06 9.04034e-07 -2.83499e-06)
(-1.36119e-06 -1.1994e-06 -3.52355e-06)
(1.7382e-06 1.41579e-06 -4.44976e-06)
(-2.02131e-06 -1.85458e-06 -5.31808e-06)
(2.50092e-06 2.03043e-06 -6.41812e-06)
(-1.49673e-06 -3.34113e-07 -6.44154e-06)
(3.95249e-08 1.36631e-06 -1.04647e-05)
(1.51833e-06 -1.788e-07 -6.55764e-06)
(4.48962e-08 7.76819e-08 -5.96396e-06)
(-2.43423e-06 1.7585e-06 -6.34503e-06)
(1.97069e-06 -1.70597e-06 -5.36031e-06)
(1.20791e-08 1.18886e-07 -4.06093e-06)
(-1.68423e-06 1.28348e-06 -4.42984e-06)
(1.33497e-06 -1.13373e-06 -3.54222e-06)
(6.94081e-09 7.67611e-08 -2.64653e-06)
(-1.06765e-06 8.37035e-07 -2.82892e-06)
(8.23616e-07 -6.84515e-07 -2.17958e-06)
(4.00026e-09 4.8283e-08 -1.59807e-06)
(-6.28362e-07 5.00315e-07 -1.67898e-06)
(4.70451e-07 -3.85246e-07 -1.24874e-06)
(2.20622e-09 2.88363e-08 -8.97991e-07)
(-3.44974e-07 2.75109e-07 -9.28811e-07)
(2.49654e-07 -2.03873e-07 -6.66363e-07)
(1.21188e-09 1.59656e-08 -4.69917e-07)
(-1.76664e-07 1.39111e-07 -4.79887e-07)
(1.23268e-07 -1.01971e-07 -3.32474e-07)
(6.87961e-10 8.19823e-09 -2.30211e-07)
(-8.4589e-08 6.45607e-08 -2.34881e-07)
(5.72851e-08 -4.97239e-08 -1.57807e-07)
(3.81273e-10 5.77278e-09 -1.09508e-07)
(-3.85323e-08 2.70101e-08 -1.17662e-07)
(9.33137e-11 -2.91492e-09 -8.20083e-08)
(3.8754e-08 2.70353e-08 -1.17667e-07)
(-5.69436e-08 -4.96563e-08 -1.57876e-07)
(-1.97547e-10 5.78025e-09 -1.09586e-07)
(-4.00271e-08 3.09008e-08 -1.16499e-07)
(2.78339e-08 -3.07443e-08 -7.36215e-08)
(-9.25585e-11 1.09457e-08 -7.47783e-08)
(-1.37868e-08 1.63907e-08 -5.91617e-08)
(-9.24343e-10 1.13711e-08 -4.26585e-08)
(1.38763e-08 1.12984e-08 -6.34619e-08)
(-2.93139e-08 -2.69643e-08 -6.69152e-08)
(3.8324e-08 2.44568e-08 -1.17506e-07)
(-5.70039e-08 -4.69276e-08 -1.57387e-07)
(8.33626e-08 6.19293e-08 -2.34314e-07)
(-1.2124e-07 -9.61155e-08 -3.32588e-07)
(1.74847e-07 1.35174e-07 -4.80714e-07)
(-2.44269e-07 -1.92921e-07 -6.6666e-07)
(3.42727e-07 2.68331e-07 -9.3324e-07)
(-4.58891e-07 -3.66091e-07 -1.24912e-06)
(6.27208e-07 4.89517e-07 -1.69078e-06)
(-8.01764e-07 -6.55475e-07 -2.17891e-06)
(1.07369e-06 8.26625e-07 -2.86046e-06)
(-1.29635e-06 -1.09701e-06 -3.52694e-06)
(1.7089e-06 1.29111e-06 -4.50946e-06)
(-1.89802e-06 -1.64621e-06 -5.27981e-06)
(2.46492e-06 1.79241e-06 -6.46492e-06)
(-1.47953e-06 -1.68691e-07 -6.488e-06)
(-3.80404e-07 1.03168e-06 -1.03614e-05)
(6.14874e-07 -7.21505e-07 -6.91433e-06)
(6.616e-08 1.15769e-07 -5.79711e-06)
(-2.29714e-06 2.4862e-06 -6.96747e-06)
(1.73803e-06 -2.39993e-06 -5.82142e-06)
(1.09922e-08 1.44871e-07 -3.95604e-06)
(-1.54101e-06 1.87435e-06 -4.8356e-06)
(1.20978e-06 -1.54037e-06 -3.81204e-06)
(-7.98222e-09 8.65944e-08 -2.57374e-06)
(-9.45098e-07 1.20623e-06 -3.06645e-06)
(7.38433e-07 -9.05763e-07 -2.32855e-06)
(-9.35434e-09 5.10985e-08 -1.54973e-06)
(-5.51558e-07 7.12178e-07 -1.81176e-06)
(4.17724e-07 -5.04945e-07 -1.32876e-06)
(-6.8172e-09 2.98618e-08 -8.69416e-07)
(-3.0294e-07 3.92484e-07 -1.0004e-06)
(2.21212e-07 -2.65667e-07 -7.0709e-07)
(-4.84057e-09 1.63854e-08 -4.54341e-07)
(-1.55161e-07 2.01462e-07 -5.14971e-07)
(1.09904e-07 -1.31491e-07 -3.51225e-07)
(-3.30958e-09 8.5238e-09 -2.22153e-07)
(-7.41412e-08 9.60645e-08 -2.5024e-07)
(5.17447e-08 -6.33227e-08 -1.66601e-07)
(-2.3481e-09 6.03178e-09 -1.0513e-07)
(-3.36725e-08 4.14906e-08 -1.22701e-07)
(2.25262e-08 -3.34956e-08 -7.72619e-08)
(-7.91486e-11 1.07609e-08 -7.22089e-08)
(-6.93198e-09 2.29456e-08 -6.0854e-08)
(1.10585e-08 1.96417e-08 -6.06167e-08)
(1.85365e-08 -9.72996e-09 -5.61643e-08)
(-2.36508e-09 2.54516e-08 -7.83348e-08)
(1.42628e-09 -5.60013e-09 -4.62408e-08)
(-3.56084e-09 2.29375e-09 -5.2999e-08)
(1.15652e-08 2.72159e-08 -6.88535e-08)
(-3.62178e-08 -2.43298e-08 -6.53493e-08)
(3.72702e-08 3.02831e-08 -1.18688e-07)
(-6.56986e-08 -4.14409e-08 -1.62055e-07)
(-4.42472e-08 6.61707e-08 -1.57146e-07)
(-5.56934e-08 -5.9242e-08 -1.57633e-07)
(5.93721e-09 -7.95032e-10 -1.08458e-07)
(2.61425e-08 -4.67183e-08 -1.15732e-07)
(2.92933e-08 3.98738e-08 -1.18074e-07)
(-3.11064e-08 -3.01735e-08 -6.80805e-08)
(1.03459e-08 5.02277e-10 -7.42975e-08)
(-2.71054e-08 3.08347e-08 -7.44994e-08)
(-3.37178e-09 1.00722e-09 -8.14585e-08)
(1.7357e-10 -4.0083e-10 -7.94166e-08)
(-9.30107e-09 -7.49046e-09 -8.76317e-08)
(6.49337e-10 6.13963e-10 -6.37153e-08)
(-4.52219e-10 -5.9457e-10 -6.0847e-08)
(-9.23675e-09 3.75446e-10 -9.16317e-08)
(-1.37714e-09 -3.72594e-10 -8.6852e-08)
(-3.2714e-09 -2.41802e-10 -8.19738e-08)
(-2.82653e-08 2.88402e-08 -7.29639e-08)
(-3.07247e-08 -2.897e-08 -7.10732e-08)
(3.01884e-08 3.96575e-08 -1.17694e-07)
(-5.42044e-08 -5.7987e-08 -1.5789e-07)
(-4.80149e-09 1.60019e-10 -1.59429e-07)
(7.16614e-08 8.69059e-08 -2.34998e-07)
(-1.12181e-07 -1.24816e-07 -3.32522e-07)
(1.54354e-07 1.81694e-07 -4.80061e-07)
(-2.24781e-07 -2.52702e-07 -6.66341e-07)
(-2.04321e-08 1.10541e-09 -6.462e-07)
(3.0577e-07 3.55305e-07 -9.29586e-07)
(-4.24886e-07 -4.75731e-07 -1.24793e-06)
(5.583e-07 6.48209e-07 -1.68179e-06)
(-7.54959e-07 -8.31924e-07 -2.17553e-06)
(-1.96741e-08 3.26079e-09 -2.04042e-06)
(9.41138e-07 1.10211e-06 -2.83676e-06)
(-1.25208e-06 -1.34743e-06 -3.5286e-06)
(1.4595e-06 1.73343e-06 -4.44621e-06)
(-1.89803e-06 -1.99136e-06 -5.32929e-06)
(3.93992e-07 -3.97036e-09 -4.82447e-06)
(5.47693e-08 3.46319e-09 -4.81696e-06)
(2.34441e-09 5.60231e-09 -3.2605e-06)
(6.41707e-09 1.62388e-08 -3.26592e-06)
(-2.09293e-08 7.45611e-09 -2.06009e-06)
(-1.73073e-08 8.31902e-09 -2.04833e-06)
(9.77885e-07 1.11507e-06 -2.85502e-06)
(-1.28592e-06 -1.34795e-06 -3.53492e-06)
(8.36595e-08 5.63935e-09 -2.65111e-06)
(-1.04283e-06 1.60463e-06 -3.57597e-06)
(1.10602e-06 -1.98457e-06 -4.4339e-06)
(1.52767e-06 1.77089e-06 -4.48642e-06)
(-1.90548e-06 -1.9732e-06 -5.30591e-06)
(1.39739e-07 1.76286e-08 -4.06324e-06)
(-1.67636e-06 2.41331e-06 -5.43639e-06)
(1.45057e-06 -2.77004e-06 -6.30557e-06)
(2.91948e-06 1.78586e-06 -7.15417e-06)
(-2.0143e-07 -1.39456e-06 -6.36561e-06)
(1.82108e-07 -2.7197e-06 -1.05995e-05)
(-3.49533e-06 -2.1723e-07 -6.89124e-06)
(-3.25463e-06 1.41331e-08 -6.51675e-06)
(6.11183e-06 -9.73084e-07 -6.15333e-06)
(-4.24831e-07 -2.65735e-07 -7.86334e-06)
(5.07853e-08 3.08444e-08 -4.58942e-06)
(9.48081e-08 1.30805e-06 -4.20069e-06)
(-1.33852e-06 1.56636e-06 -5.66538e-06)
(2.47986e-07 9.51666e-08 -3.38711e-06)
(6.88626e-07 -1.93683e-06 -4.50017e-06)
(-7.1737e-07 1.22358e-06 -3.62395e-06)
(4.23146e-08 -8.44689e-09 -2.15299e-06)
(4.66247e-07 -1.01008e-06 -2.86237e-06)
(-4.12254e-07 7.5e-07 -2.17874e-06)
(-1.01756e-09 -1.78865e-08 -1.28557e-06)
(2.62205e-07 -5.5319e-07 -1.69747e-06)
(-2.40417e-07 4.30123e-07 -1.23935e-06)
(-4.99965e-09 -1.11588e-08 -7.19999e-07)
(1.32195e-07 -2.90556e-07 -9.32953e-07)
(-1.27148e-07 2.27903e-07 -6.52548e-07)
(-5.90409e-09 -8.17979e-09 -3.75056e-07)
(6.96825e-08 -1.47657e-07 -4.79761e-07)
(-6.23392e-08 1.16981e-07 -3.21799e-07)
(-5.24157e-09 -5.32612e-09 -1.82782e-07)
(3.4902e-08 -6.70343e-08 -2.29866e-07)
(-2.54648e-08 5.69899e-08 -1.51115e-07)
(-3.96313e-09 -4.57754e-09 -8.64626e-08)
(2.14439e-08 -2.93033e-08 -1.102e-07)
(6.72348e-09 5.27291e-09 -7.08778e-08)
(4.46006e-09 9.95581e-09 -6.77268e-08)
(-3.14833e-10 -2.01575e-08 -1.01122e-07)
(-1.80425e-10 -2.59302e-09 -1.02633e-07)
(1.4799e-08 3.9085e-08 -1.35994e-07)
(-6.20403e-09 -5.58114e-08 -2.10393e-07)
(8.8402e-08 6.16748e-08 -2.36507e-07)
(-1.35713e-07 -8.85908e-08 -3.41385e-07)
(1.91616e-07 1.27841e-07 -4.89527e-07)
(-2.73165e-07 -1.79201e-07 -6.84976e-07)
(-1.76105e-07 2.88887e-07 -6.64523e-07)
(-2.30964e-07 -2.54924e-07 -6.67987e-07)
(1.61278e-08 -1.85516e-09 -4.68782e-07)
(1.26196e-07 -2.08959e-07 -4.8136e-07)
(1.58523e-07 1.81347e-07 -4.80737e-07)
(-1.15051e-07 -1.26367e-07 -3.33209e-07)
(8.28791e-09 -1.41863e-09 -2.2927e-07)
(-8.79161e-08 1.42215e-07 -3.30358e-07)
(-8.40096e-09 7.91217e-10 -3.27194e-07)
(-4.29636e-09 -4.39107e-09 -3.17568e-07)
(-1.75605e-09 -2.1499e-09 -1.53408e-07)
(-2.94122e-09 -3.36275e-09 -1.31858e-07)
(-5.36867e-09 -1.50601e-08 -1.62102e-07)
(2.93349e-09 -3.01558e-09 -1.47519e-07)
(1.11683e-09 2.73248e-10 -1.40226e-07)
(-5.23914e-09 -8.95849e-10 -1.68161e-07)
(-2.33482e-08 3.45818e-09 -1.73676e-07)
(-7.29165e-09 2.49344e-09 -9.071e-08)
(1.22059e-08 8.88609e-10 -6.59438e-08)
(1.55279e-08 -1.40475e-09 -4.3964e-08)
(1.35926e-08 2.15586e-08 -7.60193e-08)
(5.03608e-09 6.79704e-09 -4.36613e-08)
(2.57621e-08 8.93315e-10 -6.80083e-08)
(8.19472e-09 5.75343e-09 -8.60401e-08)
(1.31207e-08 -2.30239e-09 -1.18924e-07)
(1.6624e-08 -7.85275e-09 -2.437e-07)
(-2.09021e-08 -6.04743e-09 -3.5019e-07)
(-4.58789e-08 5.69208e-09 -3.53634e-07)
(-8.28265e-08 1.05792e-08 -6.93898e-07)
(-4.31523e-08 -1.12149e-08 -6.96151e-07)
(2.58652e-08 -1.65406e-08 -4.94652e-07)
(-1.94333e-08 -1.20373e-07 -4.38249e-07)
(4.32714e-09 -9.34e-09 -4.51186e-07)
(4.64309e-08 1.55579e-07 -5.98833e-07)
(-4.13198e-08 -2.38315e-07 -8.49504e-07)
(3.79851e-07 2.49508e-07 -9.56577e-07)
(-5.17213e-07 -3.3722e-07 -1.28409e-06)
(6.96862e-07 4.58353e-07 -1.73881e-06)
(-9.26909e-07 -5.91384e-07 -2.24326e-06)
(-6.05134e-07 9.69538e-07 -2.18742e-06)
(-7.77978e-07 -8.35692e-07 -2.18243e-06)
(5.00386e-08 -3.29367e-10 -1.59864e-06)
(4.4476e-07 -7.38944e-07 -1.6881e-06)
(5.77216e-07 6.51359e-07 -1.68897e-06)
(-4.37305e-07 -4.78899e-07 -1.25145e-06)
(2.93776e-08 -1.85059e-09 -8.97137e-07)
(-3.35266e-07 5.47543e-07 -1.24912e-06)
(-2.02732e-08 5.06705e-09 -1.19502e-06)
(-7.94885e-09 -9.12754e-09 -1.14695e-06)
(-6.92137e-09 -6.99743e-09 -6.24646e-07)
(-8.67018e-09 3.94254e-09 -5.45647e-07)
(-2.09504e-08 -6.25173e-08 -6.54207e-07)
(-1.20893e-09 -3.16045e-08 -6.29742e-07)
(-6.3447e-09 -2.23168e-08 -5.99148e-07)
(-1.18428e-08 -3.34059e-08 -3.32404e-07)
(-5.4646e-10 -1.4911e-08 -3.09116e-07)
(-2.57949e-09 -1.07339e-08 -2.9447e-07)
(2.61327e-08 7.80738e-08 -2.94309e-07)
(2.03382e-09 -4.84669e-09 -2.19355e-07)
(-5.37163e-09 -1.72535e-09 -2.75261e-07)
(-4.94728e-10 1.47457e-08 -2.49944e-07)
(8.71662e-10 -2.34165e-08 -1.76154e-07)
(2.54502e-10 -7.45739e-09 -9.18888e-08)
(-7.91501e-10 1.38822e-08 -6.65104e-08)
(1.41191e-09 2.52591e-08 -6.75347e-08)
(-1.70016e-08 4.49613e-08 -6.10956e-08)
(-2.22984e-09 3.11059e-10 -8.34959e-08)
(-1.37609e-09 -2.05191e-10 -6.60466e-08)
(-4.55383e-10 6.56875e-09 -1.21522e-07)
(-2.86998e-10 3.77705e-09 -1.21698e-07)
(5.80725e-08 -5.22291e-08 -1.57956e-07)
(3.5385e-10 -4.82906e-09 -1.58812e-07)
(-8.74464e-08 7.07927e-08 -2.34779e-07)
(8.51738e-08 6.45713e-08 -2.34972e-07)
(-1.22394e-07 -1.01698e-07 -3.32493e-07)
(-1.59473e-10 8.22766e-09 -2.30423e-07)
(1.26122e-07 -1.07414e-07 -3.32146e-07)
(1.02874e-09 -1.03136e-08 -3.27566e-07)
(-1.82024e-07 1.49945e-07 -4.80091e-07)
(1.78163e-07 1.39294e-07 -4.80387e-07)
(-2.47658e-07 -2.03181e-07 -6.66115e-07)
(1.8741e-10 1.60628e-08 -4.70483e-07)
(2.56166e-07 -2.15402e-07 -6.66471e-07)
(2.23047e-09 -1.85925e-08 -6.45692e-07)
(-3.54748e-07 2.94223e-07 -9.29589e-07)
(3.48491e-07 2.76105e-07 -9.30624e-07)
(-4.66238e-07 -3.83997e-07 -1.2475e-06)
(1.12762e-09 2.90835e-08 -8.99348e-07)
(4.83832e-07 -4.08156e-07 -1.24983e-06)
(4.52262e-09 -2.45265e-08 -1.18965e-06)
(-6.45577e-07 5.33806e-07 -1.68123e-06)
(6.35836e-07 5.04012e-07 -1.68415e-06)
(-8.15489e-07 -6.83329e-07 -2.17495e-06)
(3.27818e-09 4.89322e-08 -1.60087e-06)
(8.49484e-07 -7.28671e-07 -2.18239e-06)
(7.81737e-09 -7.69899e-09 -2.04172e-06)
(-1.09644e-06 8.91882e-07 -2.83316e-06)
(1.0815e-06 8.49879e-07 -2.84274e-06)
(-1.32099e-06 -1.1379e-06 -3.52616e-06)
(7.6786e-09 7.83025e-08 -2.65103e-06)
(1.3807e-06 -1.21888e-06 -3.54838e-06)
(6.86818e-09 9.76539e-08 -3.26146e-06)
(-1.72687e-06 1.35982e-06 -4.43128e-06)
(1.70301e-06 1.32434e-06 -4.46145e-06)
(-1.95254e-06 -1.73883e-06 -5.31772e-06)
(1.31045e-08 1.21522e-07 -4.06304e-06)
(2.0319e-06 -1.85765e-06 -5.36481e-06)
(-1.45839e-08 4.77803e-07 -4.81641e-06)
(-2.47743e-06 1.86334e-06 -6.34567e-06)
(2.44248e-06 1.86299e-06 -6.40414e-06)
(-1.50554e-06 -2.39206e-07 -6.51184e-06)
(-3.96091e-09 7.8797e-08 -5.95375e-06)
(1.49252e-06 -2.98128e-07 -6.51589e-06)
(-1.08811e-07 6.378e-06 -5.97226e-06)
(-2.66424e-07 -3.19908e-06 -6.68227e-06)
(-1.93742e-07 -3.31338e-06 -6.44923e-06)
(-3.2662e-07 4.77949e-06 -5.75047e-06)
(-3.11001e-06 1.26484e-06 -7.77026e-06)
(6.23026e-07 4.30514e-07 -4.99931e-06)
(3.66644e-07 -3.55678e-06 -6.37624e-06)
(-2.33655e-07 -8.61676e-07 -4.70409e-06)
(-4.66157e-07 -5.27486e-07 -4.49692e-06)
(-1.32819e-07 1.44229e-06 -5.32671e-06)
(-2.25022e-06 -1.51871e-06 -5.27754e-06)
(5.30173e-07 -2.94408e-08 -4.87345e-06)
(-1.03285e-06 8.03959e-08 -5.25291e-06)
(-1.33124e-06 -3.17405e-07 -5.31186e-06)
(-2.06391e-07 -3.486e-07 -4.4407e-06)
(-3.95675e-07 -7.61916e-08 -3.61531e-06)
(-5.34652e-07 9.17295e-08 -3.54924e-06)
(-2.7169e-07 4.60321e-08 -2.20171e-06)
(-1.4712e-07 -2.44904e-08 -2.23537e-06)
(6.85089e-08 -5.39194e-08 -1.68817e-06)
(-7.66802e-08 -1.82112e-08 -1.29022e-06)
(-1.47288e-07 2.12598e-08 -1.27774e-06)
(-1.35374e-07 5.57172e-09 -1.26785e-06)
(-7.5681e-08 2.37319e-09 -6.91014e-07)
(-4.30003e-08 8.43553e-10 -3.54162e-07)
(-2.32596e-08 -6.51282e-12 -1.74999e-07)
(-7.21174e-09 -4.18919e-10 -9.11672e-08)
(1.47706e-08 -1.40874e-09 -6.6063e-08)
(1.35222e-08 -6.25134e-10 -4.28113e-08)
(1.40233e-08 1.43973e-08 -6.28295e-08)
(1.6089e-08 -1.44528e-08 -5.54367e-08)
(2.31748e-08 -8.8392e-12 -6.79353e-08)
(2.22241e-08 8.19976e-11 -6.87111e-08)
(1.49809e-08 -1.47819e-08 -5.9621e-08)
(1.51068e-08 1.45227e-08 -6.1582e-08)
(1.08708e-08 -6.07548e-11 -7.4904e-08)
(-9.57333e-09 3.38092e-11 -5.39779e-08)
(2.86255e-09 -5.97265e-11 -6.60675e-08)
(-1.07582e-09 -1.10237e-09 -6.11085e-08)
(-7.39218e-10 -7.161e-10 -6.09259e-08)
(2.60185e-09 2.60568e-09 -6.5991e-08)
(-8.33551e-09 -3.02996e-12 -5.22223e-08)
(-2.38859e-11 2.99142e-09 -6.58548e-08)
(2.01191e-12 -1.08331e-09 -6.11598e-08)
(-6.34168e-12 -1.33579e-09 -6.17651e-08)
(3.8514e-11 -1.42959e-10 -7.5236e-08)
(-5.32397e-09 5.11123e-09 -5.49858e-08)
(-6.25306e-09 -6.21903e-09 -5.56603e-08)
(-6.24809e-09 6.36516e-09 -5.55847e-08)
(-5.33822e-09 -4.9643e-09 -5.50218e-08)
(5.39487e-09 -5.07603e-09 -5.48841e-08)
(-4.13266e-09 -4.08627e-09 -5.42648e-08)
(2.96867e-10 2.91751e-10 -9.53941e-08)
(6.378e-09 6.35187e-09 -5.55144e-08)
(-5.03616e-09 5.45757e-09 -5.49904e-08)
(-5.01187e-09 -5.34029e-09 -5.49966e-08)
(3.08175e-10 -1.72531e-10 -9.54818e-08)
(6.31261e-09 -6.28301e-09 -5.55869e-08)
(3.60402e-11 4.0598e-11 -7.60942e-08)
(8.28574e-11 9.27805e-11 -1.02417e-07)
(8.92913e-11 -9.99627e-11 -1.01314e-07)
(7.83536e-11 -1.33286e-09 -8.71255e-08)
(-4.5194e-10 -1.33893e-09 -8.66058e-08)
(5.39089e-11 -3.5312e-09 -8.1415e-08)
(-2.46083e-10 -4.22075e-09 -1.61891e-07)
(-2.44665e-10 -8.88898e-09 -3.34477e-07)
(2.28996e-10 -1.50665e-08 -6.57246e-07)
(1.78705e-09 -2.07198e-08 -1.20503e-06)
(5.48071e-09 -1.77364e-08 -2.05567e-06)
(-1.1025e-09 -7.43079e-09 -1.96031e-06)
(-1.08687e-08 7.47013e-08 -1.73835e-06)
(-4.81199e-08 -2.09165e-07 -2.06989e-06)
(1.50678e-08 -9.48231e-08 -2.00606e-06)
(-2.61256e-08 -3.51078e-08 -1.91196e-06)
(1.30312e-07 5.56959e-07 -1.997e-06)
(-1.81404e-07 -7.13975e-07 -2.61251e-06)
(1.20535e-06 7.89049e-07 -2.96921e-06)
(-1.55438e-06 -9.84606e-07 -3.616e-06)
(1.97649e-06 1.26001e-06 -4.79678e-06)
(-8.98507e-09 -6.492e-08 -4.10494e-06)
(-5.58673e-07 -1.19792e-06 -4.0627e-06)
(-1.14358e-07 -7.40789e-08 -3.05068e-06)
(1.56358e-07 9.82795e-07 -3.33308e-06)
(1.0737e-08 -3.41496e-08 -2.60561e-06)
(7.14341e-08 -1.18892e-07 -2.83332e-06)
(1.01965e-07 1.86765e-08 -2.86757e-06)
(-2.50597e-07 1.25154e-08 -2.17495e-06)
(-4.79621e-07 2.64128e-08 -3.48138e-06)
(-9.59617e-07 3.20128e-08 -5.18802e-06)
(-2.25743e-06 -3.05548e-08 -7.26976e-06)
(-2.32814e-06 -3.58171e-07 -7.27157e-06)
(-5.18829e-06 1.23618e-06 -7.35287e-06)
(-2.0167e-06 -6.01617e-07 -6.02743e-06)
(-1.70707e-06 -1.98474e-06 -5.47528e-06)
(-1.98246e-08 -3.23547e-07 -5.86758e-06)
(-6.52238e-07 -4.19204e-07 -6.66552e-06)
(6.39965e-07 -4.92131e-06 -5.78262e-06)
(-4.66704e-06 -1.40274e-06 -6.69655e-06)
(-2.85951e-06 1.83453e-07 -9.87114e-06)
(-1.40119e-06 -2.10422e-06 -8.89886e-06)
(2.02291e-06 1.51207e-06 -8.49105e-06)
(1.62323e-07 7.79484e-08 -8.80242e-06)
(8.31125e-08 6.41914e-08 -5.53416e-06)
(-2.05424e-06 1.82519e-06 -7.09388e-06)
(2.1622e-06 1.52697e-06 -7.42768e-06)
(1.54811e-08 1.91159e-07 -8.97213e-06)
(-2.70504e-07 -1.76533e-07 -5.67706e-06)
(-2.23783e-06 2.0005e-06 -7.3192e-06)
(2.16746e-06 1.80052e-06 -7.4543e-06)
(4.37704e-09 2.01399e-07 -9.01456e-06)
(-2.99021e-07 -2.10509e-07 -5.70227e-06)
(-2.18613e-06 1.82212e-06 -7.22881e-06)
(2.16071e-06 2.04719e-06 -7.55204e-06)
(1.65081e-08 1.88246e-07 -9.00279e-06)
(-4.78042e-07 -4.69027e-07 -5.85099e-06)
(-2.08798e-06 1.52251e-06 -7.17978e-06)
(1.54272e-06 2.06948e-06 -8.07156e-06)
(-1.35308e-06 -7.44654e-07 -1.12531e-05)
(1.19308e-06 1.22909e-06 -9.13975e-06)
(9.11275e-07 -1.06461e-06 -8.94619e-06)
(2.55731e-06 1.14069e-06 -1.13729e-05)
(-1.20339e-06 -4.46036e-06 -1.1193e-05)
(-6.63068e-07 -2.40556e-06 -8.82189e-06)
(3.74311e-07 3.7387e-07 -6.38352e-06)
(1.42713e-06 -1.10286e-06 -8.89683e-06)
(-4.25737e-06 2.04185e-06 -7.68654e-06)
(-2.00089e-07 -1.29358e-07 -6.69409e-06)
(-2.46632e-06 -3.29799e-06 -7.23971e-06)
(2.46229e-06 1.94691e-06 -7.92368e-06)
(2.39417e-06 -3.53493e-08 -6.34252e-06)
(2.17751e-06 -2.29222e-06 -8.23876e-06)
(2.75748e-06 -2.28585e-06 -9.50993e-06)
(1.19247e-06 -3.2726e-06 -6.2951e-06)
(1.677e-07 1.0359e-06 -7.21013e-06)
(9.83884e-07 -1.68979e-06 -5.96467e-06)
(1.42141e-06 -1.14936e-06 -6.19041e-06)
(2.20228e-06 1.71934e-06 -7.76493e-06)
(-6.87797e-07 -2.86522e-06 -6.34876e-06)
(1.87271e-07 -4.61268e-07 -4.62455e-06)
(1.18965e-06 1.74596e-06 -5.47343e-06)
(-6.79739e-07 -1.6618e-06 -4.41695e-06)
(1.48243e-08 -1.63082e-07 -3.15103e-06)
(6.92092e-07 1.21109e-06 -3.54203e-06)
(-4.40797e-07 -9.5156e-07 -2.82519e-06)
(2.74681e-09 -8.41175e-08 -1.96493e-06)
(4.13857e-07 7.43304e-07 -2.15605e-06)
(-2.48945e-07 -5.37775e-07 -1.6795e-06)
(3.2857e-09 -5.36279e-08 -1.14547e-06)
(2.37736e-07 4.22641e-07 -1.2287e-06)
(-1.32521e-07 -2.91738e-07 -9.29726e-07)
(2.42451e-09 -3.25892e-08 -6.2078e-07)
(1.28088e-07 2.25296e-07 -6.53558e-07)
(-6.69603e-08 -1.48714e-07 -4.7894e-07)
(1.00146e-09 -1.70313e-08 -3.14089e-07)
(6.32892e-08 1.13049e-07 -3.23808e-07)
(-3.40316e-08 -7.11511e-08 -2.31555e-07)
(-1.1597e-09 -5.82682e-09 -1.47221e-07)
(2.72631e-08 5.57577e-08 -1.53347e-07)