/*--------------------------------*- C++ -*----------------------------------*\
| =========                 |                                                 |
| \\      /  F ield         | OpenFOAM: The Open Source CFD Toolbox           |
|  \\    /   O peration     | Version:  2306                                  |
|   \\  /    A nd           | Website:  www.openfoam.com                      |
|    \\/     M anipulation  |                                                 |
\*---------------------------------------------------------------------------*/
FoamFile
{
    version     2.0;
    format      ascii;
    arch        "LSB;label=32;scalar=64";
    class       volVectorField;
    location    "1.2";
    object      flux;
}
// * * * * * * * * * * * * * * * * * * * * * * * * * * * * * * * * * * * * * //

dimensions      [0 1 -1 1 0 0 0];

internalField   nonuniform List<vector> 
5322
(
(-0.00100559 0.00259753 -0.00348405)
(2.31093e-05 0.000244595 -0.00355362)
(2.8156e-05 -1.68547e-05 -0.00366341)
(3.14242e-06 -0.000107839 -0.00397119)
(-5.58219e-07 -5.92375e-05 -0.00393389)
(-7.11994e-07 -2.04091e-05 -0.00391676)
(-1.00485e-08 9.31827e-08 -0.00390821)
(4.96359e-07 1.98047e-05 -0.003907)
(2.91133e-07 5.65884e-05 -0.00391475)
(-8.43278e-07 0.000102634 -0.00394423)
(-4.00454e-06 1.0762e-06 -0.00389779)
(4.34968e-05 -0.000761771 -0.00390836)
(6.70173e-05 -0.000846581 -0.00294124)
(-0.000923107 -0.000759869 -0.00405501)
(-2.44756e-05 -0.000659645 -0.00443407)
(0.0016066 0.00142766 -0.00353974)
(-0.00126248 0.00190961 -0.0041842)
(-1.99258e-05 -3.01908e-06 -0.00313265)
(-0.000963316 0.00131882 -0.00441095)
(0.000621153 -0.00156384 -0.00445196)
(-0.000844541 0.00148763 -0.0044813)
(0.00073495 -0.00151185 -0.00446248)
(-0.000777384 0.0014835 -0.00446649)
(0.000782202 -0.0015191 -0.0044919)
(-0.000792364 0.00151442 -0.00449403)
(0.000761853 -0.00148664 -0.00447152)
(-0.000763512 0.00148587 -0.00447597)
(0.000792936 -0.00151808 -0.00449953)
(-0.000781174 0.00151466 -0.00450451)
(0.000782347 -0.00149745 -0.0044852)
(-0.000742388 0.00150765 -0.00448804)
(0.000844502 -0.0015091 -0.0044998)
(-0.000634383 0.00155929 -0.00447276)
(0.000968212 -0.00134082 -0.0044046)
(1.42452e-05 0.00128691 -0.00419123)
(0.00121655 -0.000643978 -0.00344291)
(0.000857706 0.00126545 -0.00391734)
(-0.000342085 0.00158809 -0.00399131)
(0.000961258 0.000793317 -0.00411991)
(-5.52447e-05 0.000859206 -0.00290239)
(-0.000911719 0.00117207 -0.00383122)
(0.000916766 0.000978968 -0.00395387)
(-5.55059e-05 0.00101364 -0.00285031)
(-0.000975389 0.00109405 -0.00395969)
(0.000969372 0.00104306 -0.00392098)
(-3.33257e-05 0.00103312 -0.00289769)
(-0.0010367 0.0010597 -0.00401456)
(0.00090547 0.00113211 -0.00378956)
(-2.2837e-05 0.0010493 -0.00285916)
(-0.00108657 0.00100174 -0.00392534)
(-0.00107202 0.00125676 -0.00439702)
(-0.00155673 0.000608105 -0.00315369)
(-0.000486483 0.00068096 -0.0042928)
(0.00104351 -0.00224343 -0.00403113)
(-6.65188e-05 -0.000122318 -0.00377808)
(-0.00172294 -0.00129804 -0.00383241)
(-4.89438e-05 0.000682528 -0.00454776)
(0.00164661 -0.00170222 -0.00377291)
(-1.97325e-05 -9.67719e-05 -0.00381735)
(-0.00164534 -0.00147941 -0.00383635)
(-7.07927e-06 0.000693037 -0.00460315)
(0.00160356 -0.00167398 -0.00382374)
(-9.25943e-06 -8.63976e-05 -0.00381889)
(-0.00161613 -0.00146843 -0.00374176)
(-5.86075e-07 0.000695827 -0.00459994)
(0.00157899 -0.00173231 -0.00395234)
(2.00487e-05 -0.000111331 -0.00380072)
(-0.00160053 -0.00142019 -0.00355376)
(6.89872e-05 0.000702319 -0.00449088)
(0.0013107 -0.00190596 -0.0041961)
(5.21925e-05 6.69962e-05 -0.00314826)
(-0.00139803 0.00167323 -0.00490418)
(0.00158402 0.000931972 -0.00467065)
(-0.00163943 0.00130203 -0.00460424)
(0.00157818 0.000972556 -0.00465309)
(-0.00160715 0.0012318 -0.00463046)
(0.00161029 0.00102784 -0.00462806)
(-0.00160693 0.00122638 -0.00461179)
(0.00182937 0.00104133 -0.00467203)
(-0.00131814 0.00144078 -0.00442389)
(0.000645743 0.000131046 -0.00420903)
(-0.00085403 0.00048501 -0.00323669)
(-0.000552435 0.000732851 -0.00335497)
(0.000958395 0.00121947 -0.00453326)
(9.9455e-05 -0.000103653 -0.00309039)
(-0.000542347 -0.000509026 -0.00410969)
(0.000635267 0.000145063 -0.00554966)
(-0.0017108 0.000285205 -0.00339171)
(-0.00064478 0.000528945 -0.00347647)
(0.00203778 6.07872e-05 -0.00312322)
(-8.7626e-05 0.000138465 -0.00394882)
(3.80136e-05 2.55714e-05 -0.00352546)
(7.01038e-05 4.02539e-06 -0.00371966)
(0.000317203 4.72671e-06 -0.00369038)
(0.00145935 0.00177246 -0.00448202)
(-0.000339002 -0.00094683 -0.00388424)
(-4.10628e-05 2.85345e-05 -0.00386932)
(-0.000166902 0.000954605 -0.00393995)
(0.000654994 2.59298e-05 -0.00564802)
(-0.00151695 -2.51147e-05 -0.0033009)
(-0.00151854 0.000130502 -0.0033287)
(0.00339099 2.55284e-05 -0.00317418)
(-0.000164091 0.0010108 -0.0039698)
(0.00112565 -0.00172807 -0.00442932)
(0.00183225 0.00154639 -0.00481851)
(-2.23951e-05 2.0923e-05 -0.00375515)
(1.11226e-05 -2.96074e-05 -0.00398356)
(1.51294e-05 -5.50907e-06 -0.00398947)
(9.15999e-06 -8.98238e-07 -0.0039701)
(4.47778e-06 1.66653e-06 -0.00396967)
(1.77197e-06 1.89099e-06 -0.00396584)
(-4.78468e-07 2.30938e-06 -0.00396003)
(-4.66685e-06 5.24252e-06 -0.00395199)
(-1.14489e-05 1.05041e-05 -0.00396306)
(1.80217e-05 -1.78269e-05 -0.00456137)
(-6.06987e-06 4.66715e-06 -0.0045166)
(-0.000530433 0.000542967 -0.00316079)
(-0.000523352 -0.000223333 -0.00342507)
(5.54175e-05 -7.67541e-05 -0.00456236)
(0.000333583 -0.000419072 -0.00377487)
(1.89517e-05 0.000515414 -0.00334594)
(0.000508897 -0.000286843 -0.00406959)
(-0.000608687 -0.00055896 -0.00401255)
(-4.55884e-05 -0.000764618 -0.00565299)
(-0.000140195 -0.000864052 -0.00421105)
(0.000943632 -3.4818e-05 -0.00553533)
(0.000776239 0.00063331 -0.00397441)
(0.000215866 -0.000477907 -0.00415004)
(0.000606931 4.4773e-05 -0.00544029)
(0.000392335 0.00052193 -0.00395759)
(0.000298341 -0.000519864 -0.00406169)
(0.000651622 2.18985e-05 -0.00548937)
(0.000328987 0.000542573 -0.00401889)
(0.000352944 -0.000556324 -0.00398605)
(0.000662968 -1.75649e-05 -0.0055145)
(0.000288023 0.00050673 -0.00407575)
(0.000555438 -0.000607842 -0.00401079)
(0.000753618 -4.8382e-05 -0.00566196)
(0.000854321 -0.000140289 -0.00421417)
(3.67092e-05 0.000930604 -0.00553576)
(-0.000626202 0.00077098 -0.00398432)
(3.45352e-05 -0.000505277 -0.00335734)
(0.000417164 0.000335026 -0.00377525)
(-0.000505358 0.000260418 -0.00337713)
(-0.000542193 -0.000532638 -0.00316666)
(7.75322e-05 5.74233e-05 -0.00456291)
(0.000224041 -0.00052187 -0.00342522)
(0.000123278 0.000409376 -0.00340115)
(-0.000424336 0.000420713 -0.00312462)
(-0.000466373 -0.000463887 -0.00314521)
(8.72817e-05 -7.00858e-06 -0.00455388)
(0.000138923 -0.000432874 -0.00340579)
(0.000167432 0.000434472 -0.00339264)
(-0.000460216 0.000468973 -0.0031264)
(-0.00043666 -0.000421316 -0.00315275)
(8.80031e-05 -1.42194e-06 -0.0045527)
(9.13289e-05 -0.000402704 -0.00341263)
(0.000265098 0.000511214 -0.00337553)
(-0.000505105 -3.33528e-05 -0.00335617)
(0.000659059 -2.52286e-05 -0.00443339)
(-0.00142075 0.00160658 -0.00353454)
(-0.00190438 -0.00125917 -0.00418967)
(0.00164158 0.00139247 -0.00487261)
(-0.00192259 -0.00147899 -0.00476343)
(-8.05072e-05 4.99636e-05 -0.00302165)
(-0.00132266 -0.000954228 -0.00441181)
(1.06844e-05 -2.04233e-05 -0.00313295)
(0.00128932 -8.68648e-06 -0.00424343)
(-0.000309642 -0.000178573 -0.00290532)
(0.00153654 0.000460919 -0.00392906)
(0.000761688 -0.000922256 -0.00405992)
(0.0011358 0.000917569 -0.0037713)
(-0.00170226 -0.0015404 -0.00390551)
(0.000664218 3.50963e-06 -0.00453281)
(-0.00146674 0.00157334 -0.00372866)
(0.000975935 -0.00155455 -0.00459264)
(0.00127236 0.00161847 -0.00456051)
(-0.00155646 -0.00165434 -0.00440524)
(3.49739e-05 6.87585e-06 -0.00368131)
(-0.00132329 0.00162979 -0.0043976)
(0.00116501 -0.00167019 -0.00450238)
(0.00145015 0.0017323 -0.00451165)
(-0.00154158 -0.00172759 -0.00447203)
(-9.445e-06 6.42576e-06 -0.00374089)
(-0.00129205 0.00168922 -0.00447716)
(0.00123018 -0.00170145 -0.00449294)
(0.00150291 0.00175629 -0.00449864)
(-0.001541 -0.00174981 -0.00448562)
(-2.86483e-06 3.94378e-06 -0.00375732)
(-0.00128589 0.00170905 -0.00448973)
(0.00125325 -0.00171423 -0.00449739)
(0.00152202 0.00176595 -0.00450131)
(-0.00155152 -0.00175943 -0.00449068)
(4.70141e-07 3.32613e-06 -0.00376678)
(-0.00129525 0.00171902 -0.00449643)
(0.00125276 -0.00172562 -0.0045052)
(0.00152695 0.00177722 -0.00451117)
(-0.00157615 -0.00176482 -0.00449134)
(2.03563e-06 4.32961e-06 -0.00377588)
(-0.00131916 0.00172468 -0.00450049)
(0.00123419 -0.00173881 -0.00451607)
(0.00152105 0.00179161 -0.00452623)
(-0.00161317 -0.00176325 -0.00448879)
(4.412e-06 5.70953e-06 -0.00378401)
(-0.00134937 0.00172067 -0.00450185)
(0.00119655 -0.00174659 -0.00452146)
(0.00150234 0.00179918 -0.00453687)
(-0.00164334 -0.00172978 -0.00448951)
(1.00747e-05 7.34953e-06 -0.00377797)
(-0.00135849 0.00168022 -0.0045081)
(0.00112564 -0.00173132 -0.00444922)
(0.00140521 0.00174578 -0.00446388)
(-0.000306463 -0.000946703 -0.00393111)
(0.000625755 -4.25831e-06 -0.00565115)
(-0.00150576 -7.00069e-05 -0.00330216)
(-0.00153554 2.91865e-05 -0.00329048)
(0.00341178 -2.8169e-05 -0.00318512)
(-0.000117451 -1.72977e-06 -0.00448533)
(-0.000128662 1.10883e-05 -0.00447304)
(7.84494e-05 1.47106e-05 -0.00371996)
(0.000342386 7.4093e-08 -0.0036914)
(0.00144994 0.00177631 -0.00446825)
(-0.000267527 -0.000942368 -0.00391509)
(-2.62338e-05 7.96085e-06 -0.00382198)
(-0.000298335 0.00112351 -0.00396503)
(0.000596105 -0.000152742 -0.00563123)
(-0.00153418 -4.50487e-05 -0.00331981)
(-0.00150899 3.72542e-05 -0.00328983)
(0.00339223 -5.5347e-05 -0.00319099)
(-0.000197875 0.00095179 -0.0039168)
(0.00112594 -0.0017492 -0.0044546)
(-4.23317e-05 1.01636e-05 -0.00386785)
(1.87144e-05 7.79663e-06 -0.00391285)
(1.81502e-05 2.18982e-05 -0.00398256)
(1.16684e-05 1.41575e-05 -0.0039694)
(6.06706e-06 7.55347e-06 -0.0039714)
(2.63095e-06 3.39622e-06 -0.00396742)
(-6.77891e-09 2.40426e-07 -0.003961)
(-4.30843e-06 -4.63146e-06 -0.00395239)
(-1.03986e-05 -1.16801e-05 -0.00396292)
(1.79862e-05 1.73865e-05 -0.00456117)
(-5.56399e-06 -6.24613e-06 -0.00451772)
(0.000421512 -0.000437089 -0.00314686)
(-0.000467851 -0.000465546 -0.00313712)
(0.000466214 -0.00046576 -0.00313468)
(-0.000423483 -0.000438104 -0.00314667)
(8.45857e-07 8.95141e-05 -0.00455215)
(0.000423929 0.000154244 -0.00339238)
(-0.000400657 9.72446e-05 -0.00341144)
(-2.24888e-06 -0.000588578 -0.00343223)
(-0.000504636 0.000308712 -0.00406067)
(2.83262e-07 -0.000624145 -0.00570451)
(-0.000424022 0.000154604 -0.00339333)
(-3.18122e-07 8.96929e-05 -0.00455232)
(0.000399623 9.74316e-05 -0.0034104)
(1.57188e-05 -0.000616825 -0.00567253)
(0.000471315 0.0002148 -0.00413767)
(-3.84843e-05 0.000590204 -0.00542203)
(-0.000509565 0.000381004 -0.00395479)
(1.67086e-06 -0.00058835 -0.00343306)
(0.000503938 0.000309348 -0.0040603)
(-5.20503e-07 0.000640697 -0.0054232)
(-8.26335e-08 0.000894618 -0.00289542)
(0.000892622 0.000944884 -0.00388986)
(-0.0015344 -0.00154778 -0.00373096)
(0.00153256 -0.00154427 -0.00372663)
(-0.00151582 -0.00166202 -0.0039067)
(0.0015959 0.00120591 -0.00455717)
(-0.00163308 -0.00149629 -0.00440601)
(0.0017083 0.00137357 -0.00450894)
(-0.0017037 -0.00147116 -0.00447213)
(0.00173155 0.00142355 -0.00449736)
(-0.0017251 -0.00146671 -0.00448515)
(0.00174106 0.00144248 -0.00450097)
(-0.00173471 -0.00147515 -0.00449037)
(0.00175235 0.00144781 -0.00451178)
(-0.00173998 -0.00149843 -0.004491)
(0.00176705 0.00144352 -0.00452848)
(-0.00173859 -0.0015361 -0.00448743)
(0.00177629 0.00143074 -0.00454197)
(-0.00170705 -0.00157256 -0.00448488)
(0.00175302 0.00140286 -0.00449187)
(-0.000939829 -0.000308553 -0.0038807)
(1.97855e-05 0.000666942 -0.00564872)
(0.00094864 -0.000211356 -0.00395508)
(2.55729e-05 -3.62452e-05 -0.0038679)
(-0.00171013 0.00121454 -0.00443884)
(0.00166142 -0.00144816 -0.00451888)
(8.62206e-06 1.44364e-05 -0.00377992)
(-0.00172541 0.00129736 -0.00452001)
(0.001699 -0.00145085 -0.00450739)
(5.85333e-06 6.7247e-06 -0.00378574)
(-0.00171752 0.00133878 -0.00451798)
(0.00170202 -0.00142329 -0.00450268)
(3.87924e-06 3.20965e-06 -0.00377711)
(-0.00170436 0.00135683 -0.00450792)
(0.00169602 -0.00139889 -0.0044968)
(2.69131e-06 9.02131e-07 -0.00376748)
(-0.00169305 0.00135564 -0.00450021)
(0.00168602 -0.00138768 -0.00448891)
(2.7973e-06 -3.03141e-06 -0.00375759)
(-0.00168063 0.00133122 -0.00449678)
(0.00166655 -0.00138971 -0.00447457)
(4.48198e-06 -1.01572e-05 -0.00374082)
(-0.00165059 0.00126213 -0.00450861)
(0.00160686 -0.00141272 -0.00439288)
(5.09079e-06 3.3159e-05 -0.00368029)
(-0.00153457 0.00105667 -0.00459889)
(9.03961e-07 -9.75656e-05 -0.00377211)
(0.00153405 0.00105575 -0.00459373)
(-0.00160786 -0.00141501 -0.00439783)
(-7.21245e-06 3.32214e-05 -0.00368032)
(-0.00159353 0.00121222 -0.00456182)
(0.00151353 -0.00165246 -0.00390574)
(-2.83418e-06 0.000663176 -0.00453179)
(-0.000900225 0.00109654 -0.00376311)
(-5.84889e-05 0.000819596 -0.00293073)
(0.000915716 0.000767116 -0.00406866)
(-0.00158904 -0.00145779 -0.00354047)
(0.00153453 0.0009565 -0.00461354)
(-0.00161624 -0.00136112 -0.00441493)
(0.00162407 0.00120414 -0.00450036)
(-0.00165369 -0.0013345 -0.0044982)
(0.00165252 0.00127941 -0.00449474)
(-0.00166092 -0.00133178 -0.00450181)
(0.00166614 0.00130458 -0.00450427)
(-0.0016648 -0.00134378 -0.00450272)
(0.00168238 0.00130838 -0.00451766)
(-0.0016666 -0.00137364 -0.00450105)
(0.00170632 0.00130039 -0.00454181)
(-0.0016563 -0.00140945 -0.00448225)
(0.00173035 0.00128028 -0.00457155)
(-0.00160075 -0.00139825 -0.00444264)
(0.00172012 0.00122254 -0.00450326)
(-0.000926131 -0.000201307 -0.00390189)
(-0.000198968 0.000482749 -0.00556651)
(0.00040273 -0.000551363 -0.0041194)
(5.07874e-05 -9.92642e-06 -0.00372695)
(-0.00159656 0.00167593 -0.00477996)
(0.00143583 -0.00204862 -0.0048518)
(2.00875e-05 3.57226e-05 -0.00365773)
(-0.00157061 0.00183844 -0.00485738)
(0.001517 -0.00199887 -0.00483423)
(2.84771e-06 1.80791e-05 -0.00366548)
(-0.00152065 0.00186974 -0.0048465)
(0.00151344 -0.00192522 -0.0048213)
(-1.8978e-06 7.14713e-06 -0.00365316)
(-0.0015002 0.00186814 -0.0048268)
(0.00150096 -0.00188679 -0.00481245)
(-2.65684e-06 1.89624e-06 -0.00364274)
(-0.00149336 0.00186566 -0.00481806)
(0.00149652 -0.00187413 -0.00481023)
(-7.63979e-06 -3.45689e-06 -0.00363551)
(-0.00148764 0.00186079 -0.00481561)
(0.00149768 -0.00187233 -0.00480541)
(-1.92995e-05 -7.57333e-06 -0.00362497)
(-0.00146623 0.00182849 -0.00483142)
(0.00147713 -0.00188762 -0.00476508)
(-4.45233e-05 4.22034e-05 -0.00357254)
(-0.00136425 0.00162521 -0.00487188)
(0.00124902 -0.00187885 -0.00418886)
(2.69453e-05 0.000659255 -0.0044319)
(-0.000452604 0.00153164 -0.00392766)
(0.000770336 0.00136109 -0.00414949)
(0.00126677 -0.000683408 -0.00362034)
(4.0362e-05 0.00129778 -0.00425726)
(0.000157658 -0.000308047 -0.00289708)
(-0.000231566 0.000244537 -0.00330653)
(0.000648158 0.00155498 -0.00376128)
(-0.00199928 -0.00134574 -0.00345284)
(0.00151723 0.00125577 -0.00472114)
(-0.00190288 -0.00118246 -0.00459863)
(-0.00128135 0.00189407 -0.00443026)
(-0.00158431 -0.00166759 -0.00440039)
(4.12606e-05 -1.31867e-05 -0.00367124)
(0.00104311 -0.00186595 -0.00456289)
(0.00115373 0.00159162 -0.0046292)
(-0.00166076 -0.00162799 -0.00359382)
(0.000642235 4.78433e-05 -0.00455111)
(-0.00149045 0.00171404 -0.00399761)
(-0.00011075 7.65382e-05 -0.00380221)
(7.98585e-05 3.32088e-05 -0.00373741)
(-0.000603277 -0.000485027 -0.00550807)
(5.16196e-05 4.75695e-05 -0.00444437)
(-2.43592e-05 -3.89418e-05 -0.00421358)
(-0.000640032 2.54574e-05 -0.00565522)
(6.52587e-05 -9.28768e-06 -0.00405444)
(-0.000103353 -3.31547e-06 -0.00377979)
(-0.00151223 0.00156707 -0.00386001)
(-0.00164009 -0.00157012 -0.00375142)
(0.00118349 0.00157147 -0.0045986)
(-0.00153494 -0.00163395 -0.0043928)
(1.9653e-05 2.67739e-07 -0.00372044)
(0.00140083 0.00168617 -0.00451182)
(-0.00152747 -0.00169753 -0.00447452)
(0.00147572 0.00171768 -0.00449917)
(-0.00153005 -0.00171798 -0.00448905)
(1.06634e-05 1.20139e-06 -0.00370467)
(0.0015045 0.00173205 -0.00450389)
(-0.00154313 -0.00172655 -0.00449443)
(0.00151137 0.00174643 -0.00451477)
(-0.00156961 -0.00172944 -0.00449476)
(5.84793e-05 1.42486e-06 -0.00370423)
(0.00150276 0.00176287 -0.00453017)
(-0.00160095 -0.00172195 -0.00449023)
(0.00147482 0.0017703 -0.00453846)
(-0.00160817 -0.00168111 -0.00449249)
(0.000332189 -2.72413e-06 -0.00369537)
(7.75435e-05 2.29848e-06 -0.00372393)
(4.96085e-05 3.8004e-06 -0.00372327)
(5.22142e-05 1.26714e-05 -0.00372364)
(2.49977e-05 7.11573e-06 -0.00372487)
(6.14551e-05 4.62094e-06 -0.00371108)
(0.00155331 0.00177874 -0.00454476)
(-0.00164281 -0.00171944 -0.00449062)
(1.30621e-05 9.08683e-06 -0.00377847)
(-0.00133247 0.00203344 -0.00452934)
(0.00109879 -0.00201032 -0.00448798)
(0.00153181 0.00180082 -0.00456278)
(-0.0016141 -0.00166412 -0.00446879)
(2.92955e-05 1.7468e-05 -0.00376527)
(-0.00141717 0.00202139 -0.00455375)
(0.00098616 -0.00192279 -0.00437615)
(0.00197097 0.0012255 -0.00487286)
(-0.000231582 -0.000853135 -0.00374401)
(3.7572e-05 -0.00136427 -0.00552141)
(-0.00164655 -9.27723e-05 -0.00335657)
(-0.00151954 -2.08304e-05 -0.00321146)
(0.00321089 -0.000493111 -0.00326436)
(-0.000199418 -0.000126732 -0.00431835)
(5.3283e-05 3.80781e-05 -0.00350023)
(8.97073e-05 0.000906065 -0.0031162)
(-0.000978223 0.00118217 -0.00455218)
(0.000223666 9.41759e-05 -0.00304759)
(0.000767883 -0.00192386 -0.00437963)
(-0.000794773 0.00146076 -0.00453783)
(6.52725e-05 1.44349e-05 -0.00303869)
(0.000823095 -0.00162909 -0.0044658)
(-0.000746556 0.00148816 -0.00450542)
(1.03386e-05 -3.32207e-06 -0.00302726)
(0.000800269 -0.00153081 -0.00449474)
(-0.000765104 0.00150552 -0.00450119)
(-1.40385e-06 5.95479e-07 -0.00302189)
(0.000764466 -0.00147697 -0.00447608)
(-0.000741852 0.00149874 -0.0044682)
(-1.97641e-05 -1.06245e-05 -0.0030208)
(0.000795031 -0.00147449 -0.0044891)
(-0.000716925 0.00155583 -0.00446393)
(-4.85974e-05 -2.66701e-05 -0.00302377)
(0.000837898 -0.0014052 -0.00447626)
(-0.000563761 0.00158777 -0.00442837)
(-8.12787e-05 -9.9838e-05 -0.00301981)
(0.000990212 -0.00125313 -0.0044344)
(0.000375991 0.000406671 -0.00339786)
(0.000278046 0.00061149 -0.00327604)
(-7.30829e-05 -0.000754206 -0.00408158)
(-3.80506e-05 6.34786e-06 -0.00356382)
(0.00038993 0.00123218 -0.00397211)
(-0.000171431 -0.0010491 -0.00412028)
(0.00175673 0.00123123 -0.00459417)
(-0.00187748 -0.0012041 -0.0046435)
(0.00183547 0.00122316 -0.00460346)
(-0.00187502 -0.00121081 -0.00463247)
(-0.00121392 0.0019701 -0.00449233)
(-0.00157411 -0.00172685 -0.00450148)
(-3.48137e-06 -4.06772e-06 -0.00374971)
(0.00120101 -0.00197401 -0.0045068)
(0.00151536 0.00172023 -0.00450408)
(-0.00157167 -0.00171448 -0.00449198)
(-8.50399e-06 -1.0285e-05 -0.00373576)
(-0.00121778 0.00195086 -0.00447853)
(1.01943e-05 -6.34681e-08 -0.00371485)
(8.83288e-07 -4.41311e-06 -0.00351484)
(1.32647e-05 -2.87344e-06 -0.00352471)
(-1.29245e-06 -0.000112999 -0.0031336)
(2.60266e-05 2.53242e-05 -0.00365382)
(0.000100761 0.000157643 -0.00354664)
(9.32153e-05 0.000171313 -0.00340234)
(0.000169199 6.97667e-05 -0.00396644)
(-4.9854e-05 2.99447e-05 -0.0039377)
(2.66383e-05 9.87194e-05 -0.00389559)
(0.000705205 6.99035e-05 -0.00393121)
(0.00112039 -8.99537e-05 -0.00305269)
(0.000934405 0.00145681 -0.00497434)
(0.000315851 0.000467028 -0.00275506)
(0.00142075 0.000101558 -0.00369856)
(0.000565493 0.000348681 -0.0039271)
(0.000265317 7.43955e-05 -0.00383848)
(7.93004e-05 2.22756e-05 -0.0038564)
(5.037e-05 1.55411e-05 -0.0039691)
(-2.34488e-05 5.29498e-06 -0.00390936)
(-1.53274e-05 3.0315e-06 -0.00390083)
(1.41981e-05 4.01459e-06 -0.00397844)
(2.40505e-05 3.83696e-06 -0.00385908)
(-0.000223164 -0.00110759 -0.00411957)
(-3.37382e-06 1.1199e-06 -0.00362206)
(0.000257498 0.00113079 -0.00407817)
(-0.00023773 -0.00111855 -0.00409411)
(0.00186046 0.0012212 -0.00462643)
(-0.0018856 -0.00121537 -0.00462402)
(0.00187379 0.00123465 -0.00464406)
(-0.00192496 -0.00121918 -0.00461676)
(-0.0012626 0.00200455 -0.00451176)
(-0.00161675 -0.00173263 -0.00450336)
(4.75319e-06 3.23932e-06 -0.00376937)
(0.00119396 -0.00198804 -0.00451185)
(0.00155748 0.00175382 -0.00452354)
(-0.0015886 -0.00173219 -0.00450438)
(8.07616e-07 -2.15275e-07 -0.00375904)
(-0.00122755 0.00198387 -0.00450209)
(1.77075e-05 3.90856e-06 -0.00371306)
(7.86011e-06 3.93486e-06 -0.00352154)
(1.95946e-06 -5.06483e-07 -0.00351681)
(1.30993e-06 -1.13791e-05 -0.00312412)
(3.26585e-06 -6.04117e-06 -0.00364727)
(6.09918e-06 1.68979e-05 -0.00360739)
(9.62929e-06 1.22522e-05 -0.00345359)
(7.67009e-06 1.84343e-06 -0.00364355)
(2.08279e-05 5.3147e-05 -0.00352344)
(3.16876e-05 3.81147e-05 -0.00338299)
(0.000302579 0.00115445 -0.00406384)
(-5.23139e-06 5.56959e-06 -0.00361552)
(-2.01402e-06 -5.30816e-05 -0.00312477)
(-9.68831e-06 -4.3637e-06 -0.00394094)
(1.70783e-06 -7.7571e-05 -0.00395782)
(4.0589e-06 9.81504e-06 -0.00391223)
(-3.98869e-05 0.000766548 -0.00391092)
(9.26485e-05 0.00146366 -0.00369032)
(-0.00106793 0.00269039 -0.00358222)
(-2.67465e-06 0.00028189 -0.00355736)
(1.46828e-05 -4.08461e-05 -0.00312502)
(7.19454e-07 -1.88802e-05 -0.00389549)
(-1.44437e-05 -7.28844e-05 -0.00384475)
(0.00163335 -0.00148682 -0.00440353)
(-2.46719e-07 6.43616e-06 -0.00371482)
(-0.00170756 0.0013839 -0.00451249)
(0.00165043 0.00125955 -0.00450456)
(-0.00166666 -0.00139043 -0.00447823)
(-5.8485e-06 -1.0074e-05 -0.00374146)
(0.0017062 -0.00146575 -0.00447084)
(5.4551e-08 1.07312e-05 -0.00369976)
(-0.00173129 0.00143243 -0.00449938)
(0.00168187 0.00132903 -0.0044948)
(-0.0016848 -0.00138697 -0.00449021)
(-2.42364e-06 -2.88e-06 -0.00375859)
(0.00172928 -0.00146665 -0.00448622)
(1.02505e-06 9.24988e-06 -0.00369694)
(-0.00174017 0.00144652 -0.00450133)
(0.00169637 0.00135559 -0.00450157)
(-0.00169273 -0.00139762 -0.00449467)
(1.36624e-07 1.15091e-06 -0.00376897)
(0.00174119 -0.00148083 -0.00449428)
(1.92427e-06 2.48885e-05 -0.00369695)
(-0.00175073 0.00144421 -0.00450969)
(0.00171058 0.00136109 -0.00451394)
(-0.0016956 -0.00142295 -0.00449453)
(2.58872e-06 3.7123e-06 -0.00377913)
(0.00174986 -0.00151194 -0.00449956)
(1.61451e-06 7.03826e-05 -0.00369589)
(-0.00176412 0.00142301 -0.0045194)
(0.00172716 0.00135304 -0.0045325)
(-0.00168823 -0.0014565 -0.0044872)
(6.19628e-06 7.57661e-06 -0.00378769)
(0.00175014 -0.00155513 -0.00450473)
(-3.30808e-06 0.00017189 -0.0036921)
(-0.00176911 0.00137153 -0.00451601)
(0.00173618 0.00133343 -0.00454696)
(-0.00164851 -0.00147425 -0.00448241)
(9.82863e-06 1.57545e-05 -0.00377865)
(0.00170824 -0.00157238 -0.00451453)
(-1.50391e-05 0.000384341 -0.00367752)
(-0.00173861 0.00128543 -0.00443752)
(0.00171403 0.00128535 -0.00448012)
(-0.000941209 -0.000247103 -0.00392474)
(-1.14224e-06 -3.52165e-05 -0.00386096)
(0.00093461 -0.000286206 -0.00392539)
(-5.73783e-05 0.00338816 -0.00320481)
(-0.000119497 -0.00151457 -0.0033026)
(-0.000125297 -0.0015466 -0.00317382)
(-0.000131201 0.00250339 -0.00300594)
(-0.00164119 0.000650911 -0.00430567)
(0.000409018 0.000270011 -0.00306568)
(0.000363389 -0.00233411 -0.00413687)
(-0.000139629 -0.000481543 -0.00339984)
(-0.00028773 -0.000281912 -0.0032577)
(-0.000143142 0.00119807 -0.00425478)
(-0.00187007 -0.00125073 -0.00436184)
(0.00039414 -2.18335e-05 -0.00366849)
(-0.00047999 2.62724e-05 -0.00386934)
(-0.000803049 -0.000157061 -0.00386939)
(-0.000293298 -0.000188835 -0.00389665)
(-0.000230537 -1.95653e-05 -0.00397292)
(-0.000241799 5.01129e-05 -0.00389602)
(-0.000103349 2.90301e-05 -0.00389871)
(-4.63293e-05 1.15856e-05 -0.00399242)
(7.92985e-06 -1.55674e-05 -0.00387894)
(-2.39225e-06 6.76331e-06 -0.00398592)
(-3.7906e-05 1.11557e-05 -0.00389954)
(-4.70371e-05 3.29423e-06 -0.0038715)
(-2.77325e-05 3.9771e-07 -0.00387731)
(-5.29651e-05 -2.93721e-06 -0.00388961)
(-0.00010437 -1.0171e-05 -0.00392047)
(1.82472e-05 -1.95657e-05 -0.0038718)
(0.000828154 -6.78977e-05 -0.00387465)
(0.000970958 -3.63626e-05 -0.00294801)
(0.000952132 0.000947377 -0.00402649)
(0.00109702 -0.000947757 -0.00356386)
(0.00135676 1.14105e-05 -0.00370662)
(0.00129171 6.1215e-06 -0.00372396)
(0.00101025 -0.00096265 -0.00379542)
(0.0010169 0.000948508 -0.00392178)
(0.000663474 -2.24084e-06 -0.00454336)
(-0.000590039 3.94461e-06 -0.00342512)
(0.000190457 -4.28667e-06 -0.00422027)
(-6.92268e-05 -7.18455e-05 -0.00416713)
(-4.84827e-05 -4.55278e-05 -0.00421203)
(0.000172872 0.000172002 -0.0042743)
(-0.000514406 1.86482e-05 -0.00334859)
(-1.3994e-06 0.000197933 -0.00420672)
(-8.0866e-07 -7.02032e-05 -0.00422171)
(-1.66132e-06 -8.60793e-05 -0.00420168)
(1.32135e-07 1.00548e-07 -0.00454767)
(-0.000324951 0.000317057 -0.00307317)
(-0.000370211 -0.000368545 -0.00309339)
(-0.000366899 0.000370026 -0.00308793)
(-0.000328932 -0.000315875 -0.00308301)
(0.000326084 -0.000319769 -0.00307311)
(-0.000276811 -0.000273362 -0.00306222)
(1.02732e-05 1.01934e-05 -0.00455493)
(0.000368589 0.000366936 -0.00308298)
(-0.000318062 0.000330213 -0.00307974)
(-0.000319356 -0.000329614 -0.00308082)
(1.01896e-05 -9.81737e-06 -0.00455518)
(0.000367235 -0.000369712 -0.00308813)
(-2.05176e-08 -1.46797e-08 -0.00457388)
(6.18711e-08 5.97755e-08 -0.00457976)
(1.65463e-07 2.34895e-05 -0.00457024)
(1.8463e-07 6.65952e-05 -0.00405457)
(-9.69729e-06 5.96109e-05 -0.00404729)
(1.3028e-05 -0.000132187 -0.0037601)
(-6.63747e-06 2.54456e-06 -0.00370967)
(-3.64734e-06 5.94306e-07 -0.00370229)
(-4.4469e-07 3.78676e-06 -0.00370717)
(2.04338e-06 1.10587e-05 -0.00371206)
(5.07799e-06 2.70753e-05 -0.00371564)
(2.14568e-05 1.16601e-05 -0.00352413)
(1.58138e-05 9.55382e-05 -0.00313234)
(8.39994e-06 -7.5834e-05 -0.00364411)
(3.75882e-05 -8.79776e-06 -0.00360389)
(-1.06772e-05 5.38994e-05 -0.00344628)
(0.000225328 0.0011921 -0.00411054)
(-0.000321486 -0.00108874 -0.00409231)
(0.00190537 0.00125677 -0.00469175)
(-0.00196773 -0.0012392 -0.00455062)
(0.00196002 0.00127189 -0.00479696)
(-4.06632e-05 -3.06724e-05 -0.00368068)
(-0.000575701 -0.00112794 -0.00396505)
(-8.62082e-05 3.24025e-05 -0.0033807)
(0.000158591 0.00126267 -0.00415454)
(-1.69626e-05 -4.76062e-06 -0.00366721)
(-3.7591e-05 -5.55383e-05 -0.00389312)
(-1.9503e-05 1.14103e-05 -0.00397352)
(-0.000110666 7.87707e-06 -0.00386644)
(-0.000231063 1.56821e-05 -0.00386183)
(-0.000460525 1.85702e-05 -0.00387271)
(-0.00105243 -1.33653e-05 -0.00402212)
(-0.00107605 -0.00018777 -0.00396963)
(-0.00267962 0.0006436 -0.00390999)
(-0.00126355 -0.000287245 -0.00371)
(-0.00110468 -0.00123343 -0.003553)
(-3.74768e-05 -0.000156541 -0.0035873)
(-0.000435503 -0.00014907 -0.00373224)
(0.000342661 -0.002433 -0.00294657)
(-0.00216685 -0.000670809 -0.00322786)
(-0.00129498 8.55671e-05 -0.00436923)
(-0.000605887 -0.000981764 -0.00395687)
(0.000981338 0.000725772 -0.00414186)
(7.906e-05 3.3395e-05 -0.00424652)
(5.11919e-05 4.10626e-05 -0.00281172)
(-0.001026 0.000878522 -0.00351029)
(0.00108583 0.000736951 -0.00370224)
(6.39762e-06 0.000103236 -0.00437537)
(-0.000128469 -8.24093e-05 -0.00291385)
(-0.00112716 0.000977139 -0.00365665)
(0.00109105 0.000878153 -0.00372267)
(1.90597e-06 0.000111282 -0.00439647)
(-0.000143247 -9.93154e-05 -0.00292559)
(-0.00110002 0.00088668 -0.0036107)
(0.00108742 0.00100145 -0.00376643)
(9.34884e-06 0.000103727 -0.00438021)
(-0.000234774 -0.000228896 -0.00298088)
(-0.0010496 0.000735504 -0.00356747)
(0.000775331 0.00102261 -0.0039873)
(-0.000618083 -0.00035436 -0.00544767)
(0.000506484 0.000533587 -0.00406829)
(0.000383951 -0.000465125 -0.00396987)
(0.00113323 0.000497194 -0.00499167)
(-0.000532501 -0.00196306 -0.00483906)
(-0.000308133 -0.00106614 -0.00394015)
(0.000168348 0.000192617 -0.00298066)
(0.000681951 -0.000484488 -0.004293)
(-0.0022301 0.00105468 -0.0040342)
(-0.000124082 -6.35901e-05 -0.00377619)
(-0.00130567 -0.00172871 -0.00382443)
(0.00113844 0.000912687 -0.00379713)
(0.00104906 -1.819e-05 -0.00286047)
(0.00100091 -0.00108377 -0.00391842)
(0.00125662 -0.00107142 -0.00439899)
(0.000607329 -0.00155756 -0.00315278)
(0.000137696 0.000654538 -0.00421184)
(0.000485327 -0.000856281 -0.00323851)
(0.000733755 -0.000548488 -0.00335795)
(0.00121211 0.000952224 -0.00453483)
(-0.000563688 -0.00197331 -0.00429936)
(0.000116417 -0.000221753 -0.00347899)
(0.000898048 0.00138722 -0.00455728)
(-0.000772012 -0.0017061 -0.00442148)
(9.33747e-07 -4.41679e-05 -0.00356693)
(0.000784696 0.00148398 -0.00452257)
(-0.00079453 -0.0015602 -0.00447012)
(-9.9264e-06 3.00731e-06 -0.00357188)
(0.000760283 0.00149377 -0.004502)
(-0.000775871 -0.00150212 -0.0044794)
(-5.79781e-06 7.36761e-06 -0.00357369)
(0.000754669 0.0014853 -0.00448789)
(-0.000766895 -0.00148553 -0.00447928)
(-5.08206e-06 8.14726e-06 -0.00356747)
(0.000751508 0.00148288 -0.00448181)
(-0.000771172 -0.00148071 -0.00447556)
(-1.07712e-05 2.26088e-05 -0.00357132)
(0.000725558 0.00148954 -0.00447057)
(-0.000813627 -0.00147031 -0.00447507)
(-6.41571e-05 9.09497e-05 -0.00350956)
(0.000615698 0.00153564 -0.00445372)
(-0.00094185 -0.0013169 -0.00440898)
(-0.000350765 0.000370451 -0.00342036)
(-1.5163e-05 0.00127725 -0.00424522)
(-0.00126852 -0.000713147 -0.00360181)
(-0.000785408 0.00135508 -0.00414431)
(0.000458216 0.00153045 -0.00392301)
(-0.00124988 -0.00189793 -0.00418743)
(0.00138296 0.00161991 -0.00487343)
(-0.00146807 -0.00190542 -0.00476226)
(4.12165e-05 4.39104e-05 -0.00357254)
(-0.00153818 0.000953412 -0.00462222)
(0.00158653 -0.00145848 -0.00353314)
(-2.41203e-05 0.000658522 -0.00443384)
(-0.000914791 0.000763421 -0.004067)
(5.84105e-05 0.000826525 -0.00293133)
(0.000901587 0.00109645 -0.00375835)
(-0.000891875 0.000942995 -0.00389249)
(3.16277e-06 0.000662695 -0.00453284)
(5.26557e-06 0.00127682 -0.00371233)
(1.54775e-06 0.000760419 -0.00389948)
(1.24671e-06 -6.45444e-06 -0.00390501)
(1.9245e-06 -0.000111082 -0.00394709)
(1.78897e-06 -6.25516e-05 -0.00391434)
(6.22764e-07 -3.94048e-05 -0.0039244)
(1.3406e-06 -2.41432e-05 -0.00391424)
(3.50538e-06 -4.66782e-05 -0.00390982)
(4.85107e-06 -2.48514e-05 -0.00364945)
(1.52146e-05 6.50568e-06 -0.00354192)
(2.1498e-06 2.42924e-05 -0.00339939)
(0.00024432 0.00113702 -0.00411923)
(-0.000256903 -0.00110273 -0.00412468)
(-7.34268e-06 -9.48387e-08 -0.00364146)
(-1.77825e-06 1.82384e-06 -0.00362756)
(1.07144e-05 2.31176e-07 -0.00386709)
(1.4445e-06 1.24444e-07 -0.00393246)