/*--------------------------------*- C++ -*----------------------------------*\
| =========                 |                                                 |
| \\      /  F ield         | OpenFOAM: The Open Source CFD Toolbox           |
|  \\    /   O peration     | Version:  2306                                  |
|   \\  /    A nd           | Website:  www.openfoam.com                      |
|    \\/     M anipulation  |                                                 |
\*---------------------------------------------------------------------------*/
FoamFile
{
    version     2.0;
    format      ascii;
    arch        "LSB;label=32;scalar=64";
    class       volScalarField;
    location    "1.2";
    object      gradTz;
}
// * * * * * * * * * * * * * * * * * * * * * * * * * * * * * * * * * * * * * //

dimensions      [0 -1 0 1 0 0 0];

internalField   nonuniform List<scalar> 
5322
(
-0.0591143
-0.0517994
-0.0401181
-0.0432996
-0.0291956
-0.0183853
-0.0107926
-0.00590908
-0.00303265
-0.00149627
-0.000778958
-0.000564485
-0.000363164
-0.000536727
-0.000613088
-0.000568805
-0.000655933
-0.000563911
-0.000938978
-0.00130193
-0.00197045
-0.00274937
-0.00407071
-0.00557781
-0.00794077
-0.0104171
-0.0142689
-0.0182851
-0.0240627
-0.0295598
-0.0374267
-0.0448144
-0.0542156
-0.0614154
-0.0676744
-0.0611835
-0.07335
-0.0715359
-0.0736666
-0.0548086
-0.0681843
-0.0703919
-0.0537017
-0.070391
-0.0696765
-0.0546792
-0.0714417
-0.0675817
-0.054177
-0.0705273
-0.0812379
-0.0538155
-0.0760309
-0.0656418
-0.057239
-0.0620003
-0.0782621
-0.0607133
-0.0571255
-0.0617453
-0.0790203
-0.061523
-0.0570946
-0.0602438
-0.0790507
-0.0637867
-0.0569423
-0.05735
-0.0777215
-0.0682788
-0.0475424
-0.0685432
-0.0652118
-0.0642204
-0.0647963
-0.0644862
-0.0644399
-0.0643032
-0.0654314
-0.0626991
-0.0615854
-0.0509514
-0.0528651
-0.0663464
-0.0417512
-0.0582197
-0.0879703
-0.0587365
-0.0583315
-0.0498039
-0.0609102
-0.0391228
-0.0411732
-0.0411697
-0.0547087
-0.055094
-0.0509786
-0.0557915
-0.0893915
-0.0569458
-0.0577178
-0.0504558
-0.056248
-0.0541531
-0.0592218
-0.0496508
-0.0519825
-0.0437951
-0.0295706
-0.0186583
-0.0109476
-0.00597506
-0.00304233
-0.00148105
-0.000856547
-0.000634434
-0.000474745
-0.000494646
-0.000783839
-0.000532548
-0.000444311
-0.000502357
-0.000494998
-0.000674486
-0.000513527
-0.000662426
-0.000490611
-0.000512718
-0.000654522
-0.00049269
-0.000505453
-0.000662491
-0.000500902
-0.000496696
-0.000664217
-0.000505263
-0.000497134
-0.000679455
-0.000516822
-0.00066647
-0.000494268
-0.000447216
-0.0005347
-0.000489263
-0.000476558
-0.000786308
-0.000496283
-0.00049475
-0.000472755
-0.000477813
-0.000797539
-0.000496115
-0.000494513
-0.00047529
-0.000475413
-0.000796138
-0.000494482
-0.000487852
-0.000445337
-0.000614841
-0.000569494
-0.000658831
-0.00104796
-0.0014225
-0.000742293
-0.000943511
-0.000566056
-0.000668431
-0.000395089
-0.000518039
-0.000538948
-0.000505144
-0.000627668
-0.000637629
-0.000603145
-0.0010036
-0.000993678
-0.00134758
-0.000935452
-0.00134908
-0.00200315
-0.00200288
-0.00283274
-0.00196615
-0.00284097
-0.00409491
-0.00409577
-0.00567977
-0.00401345
-0.00569234
-0.00792804
-0.00793084
-0.0106406
-0.00766941
-0.0106651
-0.0143326
-0.0143457
-0.0185568
-0.0136475
-0.018608
-0.0241553
-0.0241978
-0.0301244
-0.0225998
-0.0302192
-0.037858
-0.0379652
-0.0455038
-0.0346793
-0.0456805
-0.0543474
-0.0544603
-0.0557074
-0.0893754
-0.0569173
-0.0567521
-0.0506066
-0.0685225
-0.0683764
-0.0411775
-0.0412384
-0.0546271
-0.0555563
-0.0505881
-0.0565668
-0.0893753
-0.0573109
-0.0566727
-0.0507423
-0.0554672
-0.0543984
-0.0509354
-0.050737
-0.0437138
-0.0295929
-0.0186959
-0.0109729
-0.00598862
-0.00304879
-0.0014839
-0.000858179
-0.000635975
-0.000475694
-0.000476726
-0.000476439
-0.000474704
-0.000796195
-0.000494434
-0.000494641
-0.000461842
-0.00050628
-0.000791016
-0.000494439
-0.000797038
-0.000495707
-0.000784893
-0.000513696
-0.000655361
-0.000494007
-0.000462466
-0.000506693
-0.000656207
-0.000361367
-0.000522384
-0.000603749
-0.000603118
-0.000628386
-0.000994731
-0.00134875
-0.00200537
-0.00283434
-0.00410086
-0.00568133
-0.0079402
-0.0106425
-0.0143627
-0.0185579
-0.0242307
-0.0301158
-0.0380322
-0.0454537
-0.0548557
-0.0550559
-0.0894422
-0.0560482
-0.050974
-0.0542311
-0.0458146
-0.0347088
-0.0378619
-0.0302754
-0.0226199
-0.0241788
-0.0186289
-0.0136587
-0.0143502
-0.010673
-0.00767513
-0.00793856
-0.00569541
-0.00401639
-0.0041016
-0.00284165
-0.00196762
-0.00200753
-0.00134878
-0.00093597
-0.00100565
-0.000700926
-0.0010057
-0.00134937
-0.000936632
-0.000995714
-0.000629244
-0.000639131
-0.000505656
-0.000364603
-0.00054241
-0.000571925
-0.00100432
-0.00134519
-0.00200269
-0.00284263
-0.00410866
-0.00569795
-0.00797641
-0.0106762
-0.0144511
-0.0186232
-0.0244484
-0.0301448
-0.0385424
-0.0451266
-0.0552557
-0.055453
-0.0885591
-0.0590968
-0.0495479
-0.0595511
-0.0497558
-0.0338123
-0.0413299
-0.0325816
-0.0219978
-0.026209
-0.0199022
-0.0132456
-0.0154852
-0.011357
-0.00743091
-0.00855041
-0.00604351
-0.00388326
-0.00440147
-0.00300192
-0.00189875
-0.0021388
-0.00142394
-0.000898547
-0.00104872
-0.000660358
-0.00061717
-0.00052012
-0.000518092
-0.000480037
-0.000669528
-0.000395221
-0.000452983
-0.000588491
-0.000558541
-0.00101443
-0.00138509
-0.00134313
-0.00134729
-0.000926988
-0.000989159
-0.00100918
-0.000581885
-0.000635021
-0.000636747
-0.000696226
-0.000678774
-0.000748988
-0.000544575
-0.00052006
-0.000783177
-0.000742324
-0.000700631
-0.000623623
-0.000607463
-0.00100593
-0.00134948
-0.00136264
-0.00200853
-0.00284207
-0.00410308
-0.00569522
-0.00552308
-0.00794518
-0.0106661
-0.0143743
-0.0185943
-0.0174395
-0.0242458
-0.030159
-0.0380018
-0.0455495
-0.0412348
-0.0411706
-0.0278675
-0.0279138
-0.0176076
-0.0175071
-0.0244019
-0.030213
-0.022659
-0.0305639
-0.0378965
-0.0383455
-0.0453496
-0.0347285
-0.0464649
-0.0538937
-0.0611467
-0.0544069
-0.0905943
-0.0588995
-0.0556988
-0.0525926
-0.067208
-0.0392258
-0.0359033
-0.048422
-0.0289497
-0.038463
-0.030974
-0.0184016
-0.0244647
-0.0186217
-0.0109877
-0.0145083
-0.0105927
-0.00615384
-0.00797396
-0.00557734
-0.00320561
-0.00410052
-0.00275042
-0.00156224
-0.00196467
-0.00129158
-0.000738997
-0.000941883
-0.000605793
-0.000578862
-0.000864287
-0.000877202
-0.00116234
-0.00179823
-0.00202143
-0.00291782
-0.00418399
-0.0058545
-0.00567968
-0.00570929
-0.00400669
-0.00411419
-0.00410887
-0.00284794
-0.00195958
-0.00282357
-0.00279653
-0.00271426
-0.00131118
-0.00112699
-0.00138549
-0.00126084
-0.00119851
-0.00143727
-0.00148441
-0.0007753
-0.000563622
-0.00037576
-0.000649738
-0.000373174
-0.000581267
-0.000735385
-0.00101644
-0.0020829
-0.00299308
-0.00302251
-0.00593075
-0.00595001
-0.0042278
-0.00374572
-0.00385629
-0.00511823
-0.00726072
-0.00817587
-0.0109751
-0.0148617
-0.0191732
-0.0186959
-0.0186533
-0.0136636
-0.0144282
-0.0144357
-0.0106962
-0.00766783
-0.0106763
-0.0102139
-0.00980298
-0.00533885
-0.00466365
-0.00559151
-0.00538241
-0.00512093
-0.00284106
-0.00264202
-0.00251684
-0.00251546
-0.00187483
-0.00235266
-0.00213627
-0.00150559
-0.000785374
-0.000568465
-0.00057722
-0.000522184
-0.00071364
-0.000564501
-0.00103865
-0.00104016
-0.00135005
-0.00135737
-0.00200665
-0.00200831
-0.00284182
-0.00196943
-0.00283885
-0.00279971
-0.00410334
-0.00410587
-0.00569329
-0.00402122
-0.00569633
-0.00551874
-0.0079452
-0.00795405
-0.0106624
-0.00768674
-0.0106823
-0.0101679
-0.0143695
-0.0143944
-0.0185893
-0.0136826
-0.0186529
-0.0174506
-0.0242151
-0.0242969
-0.0301381
-0.0226584
-0.0303281
-0.0278757
-0.0378742
-0.038132
-0.0454506
-0.0347268
-0.0458531
-0.0411659
-0.0542365
-0.0547362
-0.0556568
-0.0508868
-0.0556914
-0.051045
-0.0571134
-0.0551217
-0.0491493
-0.0664125
-0.0427291
-0.0544978
-0.0402059
-0.0384352
-0.0455274
-0.0451072
-0.0416535
-0.0448966
-0.0454005
-0.0379547
-0.0309001
-0.0303354
-0.018818
-0.0191057
-0.0144288
-0.0110275
-0.0109208
-0.0108363
-0.00590611
-0.00302703
-0.00149572
-0.000779207
-0.000564641
-0.000365908
-0.000537004
-0.000473818
-0.000580644
-0.000587275
-0.000509581
-0.000526342
-0.000640205
-0.000461349
-0.00056468
-0.000522295
-0.000520734
-0.000564026
-0.000446344
-0.000562861
-0.000522733
-0.000527907
-0.000643042
-0.000469964
-0.000475729
-0.000475083
-0.000470272
-0.000469095
-0.000463802
-0.000815334
-0.000474482
-0.000470004
-0.000470057
-0.000816084
-0.000475102
-0.000650378
-0.000875359
-0.000865933
-0.000744662
-0.000740221
-0.000695855
-0.00138368
-0.00285878
-0.00561748
-0.0102994
-0.0175698
-0.0167548
-0.0148577
-0.0176914
-0.0171459
-0.0163415
-0.0170684
-0.0223292
-0.0253779
-0.030906
-0.0409981
-0.0350849
-0.0347239
-0.0260742
-0.0284878
-0.0222702
-0.0242164
-0.0245092
-0.0185893
-0.0297554
-0.044342
-0.0621347
-0.0621501
-0.0628451
-0.0515165
-0.0467973
-0.0501502
-0.0569703
-0.0494241
-0.0572355
-0.0843687
-0.0760586
-0.0725731
-0.0752343
-0.0473005
-0.0606314
-0.0634844
-0.0766849
-0.0485218
-0.0625573
-0.063712
-0.0770475
-0.0487374
-0.0617847
-0.0645474
-0.0769469
-0.0500085
-0.0613657
-0.0689877
-0.0961806
-0.0781175
-0.0764632
-0.0972046
-0.0956662
-0.0754008
-0.05456
-0.0760412
-0.0656969
-0.0572145
-0.0618778
-0.0677238
-0.0542096
-0.0704167
-0.0812814
-0.0538043
-0.061625
-0.0509801
-0.0529095
-0.0663669
-0.0542629
-0.0395261
-0.0467815
-0.0377517
-0.0269319
-0.0302738
-0.0241469
-0.0167943
-0.0184278
-0.0143547
-0.00979036
-0.0105017
-0.00794637
-0.00530581
-0.00558597
-0.0040935
-0.00268452
-0.00276759
-0.00197911
-0.0012583
-0.00131065
-0.000944357
-0.000613018
-0.000669297
-0.000476381
-0.000515206
-0.000517832
-0.000659102
-0.00104965
-0.00142379
-0.000897641
-0.00100461
-0.000570104
-0.00061573
-0.000540668
-0.000363769
-0.000504329
-0.000522294
-0.00063859
-0.000585321
-0.000572385
-0.000789553
-0.00151012
-0.00305316
-0.00305314
-0.00596878
-0.0109608
-0.010291
-0.00976876
-0.00933205
-0.00974005
-0.0132602
-0.0132505
-0.00740965
-0.00807623
-0.00819283
-0.00797343
-0.00796891
-0.00553845
-0.00569795
-0.00793687
-0.00768538
-0.0106808
-0.0143515
-0.0136773
-0.0186418
-0.0241829
-0.0226392
-0.030269
-0.0378568
-0.0346883
-0.0456362
-0.0375407
-0.0381936
-0.0532171
-0.0532433
-0.0444968
-0.0297054
-0.0185581
-0.0108288
-0.00590892
-0.00303209
-0.00149928
-0.000783363
-0.000568729
-0.000364661
-0.000521651
-0.000583605
-0.00056534
-0.000780784
-0.00149841
-0.00303791
-0.00593067
-0.0108726
-0.0186297
-0.0298206
-0.0445829
-0.0631616
-0.0626908
-0.05373
-0.10458
-0.0763175
-0.0731736
-0.063751
-0.0770131
-0.0487936
-0.0489272
-0.0529465
-0.0792117
-0.0503511
-0.0511237
-0.0521255
-0.0796465
-0.0505828
-0.0513498
-0.0518251
-0.0795678
-0.0521059
-0.0530212
-0.0586748
-0.101445
-0.079045
-0.0770957
-0.077433
-0.0767726
-0.0602865
-0.0556772
-0.0589409
-0.101073
-0.0582596
-0.0612165
-0.0789683
-0.0615993
-0.0570516
-0.0601241
-0.0707703
-0.0536662
-0.0699983
-0.0700338
-0.0548066
-0.0711794
-0.0608789
-0.0570986
-0.0615206
-0.0645389
-0.0643202
-0.0648754
-0.0640436
-0.0571244
-0.0580206
-0.0631738
-0.0791219
-0.0686148
-0.055318
-0.0731131
-0.0643358
-0.055326
-0.0884548
-0.0472868
-0.0603248
-0.0494455
-0.0561352
-0.0488443
-0.0371365
-0.0412769
-0.0339954
-0.0256894
-0.0271354
-0.0219528
-0.0157757
-0.016824
-0.0129789
-0.00942175
-0.00956186
-0.00724943
-0.00497231
-0.00513124
-0.00370441
-0.00256605
-0.00251654
-0.00180378
-0.00118723
-0.0011782
-0.000857992
-0.00057986
-0.000587205
-0.000369415
-0.000642389
-0.000470786
-0.000373013
-0.00067349
-0.00049369
-0.000512004
-0.000659547
-0.000489779
-0.000510279
-0.000651737
-0.000490549
-0.000504464
-0.000659971
-0.000500277
-0.000493537
-0.000660921
-0.000365557
-0.00050743
-0.000638436
-0.000604269
-0.000699106
-0.00100084
-0.000933197
-0.00134639
-0.00134367
-0.00135203
-0.00199338
-0.00188995
-0.00282862
-0.0029887
-0.00234545
-0.00438083
-0.00319013
-0.00600343
-0.00463269
-0.00847853
-0.00609259
-0.0112655
-0.00853094
-0.0153049
-0.0108465
-0.0196571
-0.0146129
-0.0256768
-0.0179359
-0.0319614
-0.0233163
-0.0401314
-0.0276765
-0.0484674
-0.0346768
-0.0578231
-0.0396207
-0.0466043
-0.0549282
-0.0536759
-0.0412197
-0.0464868
-0.0330806
-0.0384426
-0.0373198
-0.0276788
-0.0307885
-0.0215036
-0.0245644
-0.0239297
-0.017349
-0.018967
-0.0130212
-0.0146374
-0.0142681
-0.0101238
-0.0108927
-0.00731815
-0.00809348
-0.0079147
-0.00549998
-0.00580938
-0.00383403
-0.00417505
-0.00409256
-0.00278754
-0.00290075
-0.00186917
-0.00202269
-0.00199889
-0.00134815
-0.0013743
-0.000877588
-0.00101567
-0.000984564
-0.000693364
-0.000553579
-0.000449656
-0.000393058
-0.000516352
-0.000513682
-0.000474455
-0.000665992
-0.000607841
-0.000709438
-0.000520827
-0.000575391
-0.000583141
-0.000518664
-0.000636041
-0.000601855
-0.000624966
-0.000692483
-0.000999111
-0.000894816
-0.00141808
-0.001126
-0.00213083
-0.00155805
-0.00213417
-0.00103867
-0.00104015
-0.00099248
-0.000736947
-0.000780288
-0.000493017
-0.00079435
-0.000493309
-0.000459609
-0.000561932
-0.000525997
-0.000520529
-0.00052741
-0.000522297
-0.000790747
-0.000744621
-0.00070043
-0.00138877
-0.00138799
-0.00136514
-0.00200864
-0.00200778
-0.00135109
-0.00213285
-0.00104494
-0.00104505
-0.000996795
-0.00093769
-0.00135267
-0.0020044
-0.00196997
-0.00284246
-0.0040992
-0.00402117
-0.00442128
-0.00286595
-0.0028122
-0.00563042
-0.010322
-0.0102011
-0.0103065
-0.00562462
-0.00286451
-0.00280632
-0.00285245
-0.00138093
-0.00135468
-0.00134072
-0.00199858
-0.00213585
-0.00299538
-0.00438866
-0.00601518
-0.00319728
-0.00409303
-0.00235011
-0.00276419
-0.00156374
-0.00197846
-0.00112945
-0.0013087
-0.00125518
-0.00119553
-0.00180738
-0.00187652
-0.00253213
-0.00290579
-0.00279447
-0.00409855
-0.00398685
-0.00565372
-0.00568322
-0.00551569
-0.00789319
-0.00763684
-0.0106105
-0.0106152
-0.0101118
-0.0142218
-0.0135422
-0.0184643
-0.018478
-0.0172816
-0.023943
-0.0216307
-0.0299409
-0.0373768
-0.0332245
-0.0453145
-0.0532276
-0.0468761
-0.052203
-0.0439113
-0.0295838
-0.0186483
-0.010938
-0.00596898
-0.0030389
-0.0014793
-0.000855387
-0.000633316
-0.000474261
-0.000474099
-0.000476453
-0.000494517
-0.000788047
-0.000742867
-0.000740412
-0.000779905
-0.000493238
-0.000459527
-0.000563598
-0.000517906
-0.000542083
-0.000518522
-0.000782675
-0.000738478
-0.000693989
-0.00100239
-0.000897413
-0.00101635
-0.00101239
-0.000866052
-0.00064284
-0.00047077
-0.000469558
-0.000815986
-0.000464279
-0.000471377
-0.000795397
-0.00101207
-0.00138423
-0.00130878
-0.000676919
-0.000745218
-0.00102153
-0.000696316
-0.000986188
-0.000924785
-0.00134279
-0.0013425
-0.00136278
-0.00199983
-0.00196387
-0.00283372
-0.00280023
-0.0040839
-0.00399985
-0.00567113
-0.00566452
-0.00548992
-0.00790757
-0.00737114
-0.0106026
-0.0142664
-0.0130938
-0.0184653
-0.0174756
-0.0102467
-0.0055922
-0.0028471
-0.00137825
-0.00101031
-0.000864618
-0.000641608
-0.00101057
-0.001493
-0.00101456
-0.00101879
-0.00101309
-0.00101149
-0.00149273
-0.00138827
-0.00136335
-0.00286406
-0.00280726
-0.00562396
-0.00552525
-0.00595093
-0.0109076
-0.0186961
-0.0188157
-0.0301509
-0.0283343
-0.0273745
-0.041642
-0.0559831
-0.0490536
-0.0711771
-0.0551316
-0.107087
-0.074899
-0.0736277
-0.0677546
-0.0849819
-0.0781346
-0.0805171
-0.0777372
-0.106464
-0.0739903
-0.0730788
-0.063714
-0.0766687
-0.0486493
-0.049671
-0.0535587
-0.0787859
-0.0501343
-0.0520153
-0.0529224
-0.0792168
-0.0503693
-0.0520896
-0.0527662
-0.0791288
-0.0519978
-0.0534158
-0.0723176
-0.0519912
-0.0411839
-0.0411877
-0.0457153
-0.0487192
-0.0336116
-0.0409156
-0.0282644
-0.0338085
-0.039365
-0.0277575
-0.037141
-0.0458719
-0.0413191
-0.0528846
-0.0576271
-0.0456803
-0.0429927
-0.0377092
-0.0479532
-0.0477
-0.0626882
-0.0654978
-0.0642054
-0.053416
-0.0410351
-0.0528565
-0.0481278
-0.0530911
-0.040957
-0.0528418
-0.0481772
-0.0531635
-0.0410887
-0.05293
-0.0653456
-0.0639226
-0.057266
-0.0543231
-0.0653545
-0.0795964
-0.0602382
-0.0779205
-0.0790419
-0.0758783
-0.0611984
-0.0582657
-0.0586847
-0.100576
-0.0589898
-0.0656627
-0.0974545
-0.0799079
-0.0764823
-0.0602813
-0.0582784
-0.0726638
-0.0531378
-0.0528795
-0.0717941
-0.0509926
-0.0439297
-0.0438023
-0.029577
-0.0186633
-0.0109506
-0.00597674
-0.00304315
-0.00148144
-0.000856762
-0.00063461
-0.000464397
-0.000469906
-0.000569902
-0.000520663
-0.000519259
-0.000653645
-0.000512219
-0.000445607
-0.000488199
-0.000532669
-0.000494831
-0.000444558
-0.000495075
-0.000675833
-0.000513915
-0.000745467
-0.000491686
-0.000662121
-0.000542442
-0.000562853
-0.000517902
-0.00078024
-0.000493378
-0.000494841
-0.000795705
-0.000475514
-0.000475281
-0.00049506
-0.000492281
-0.000458714
-0.000499981
-0.000667394
-0.000500636
-0.000787968
-0.000743184
-0.000740464
-0.000677308
-0.000567096
-0.000715262
-0.000522121
-0.000578637
-0.000567953
-0.000785483
-0.00150775
-0.00305498
-0.00596092
-0.0109241
-0.0187128
-0.0299427
-0.0299307
-0.0448052
-0.0449538
-0.0626879
-0.0542409
-0.0565179
-0.0568005
-0.0894986
-0.0654345
-0.0739297
-0.0762614
-0.1043
-0.0535349
-0.0567317
-0.0568731
-0.054608
-0.0577203
-0.0586891
-0.0879841
-0.0564075
-0.0582215
-0.0498305
-0.0583343
-0.0696384
-0.0544323
-0.0412198
-0.0447331
-0.0632553
-0.0630384
-0.0530539
-0.0534703
-0.0387551
-0.0247348
-0.0147296
-0.00824023
-0.00432077
-0.00426519
-0.00211887
-0.00211944
-0.001041
-0.00104275
-0.00139313
-0.00284999
-0.00557983
-0.0102254
-0.017495
-0.0279158
-0.0378864
-0.0373618
-0.0375325
-0.0241609
-0.0144816
-0.00811891
-0.00810418
-0.00426207
-0.00431262
-0.00213985
-0.00200256
-0.00213903
-0.00299755
-0.00439406
-0.00601869
-0.00387061
-0.00410074
-0.0028368
-0.00189506
-0.00219429
-0.00138152
-0.00135679
-0.00134203
-0.000739078
-0.000782798
-0.000493292
-0.000695389
-0.00101216
-0.00101677
-0.000784104
-0.000474955
-0.000472289
-0.00056423
-0.000525626
-0.000532385
-0.000570191
-0.000465038
-0.00081685
-0.000569825
-0.000562823
-0.000461211
-0.000562663
-0.000569596
-0.00051919
-0.000516923
-0.000520134
-0.000540565
-0.000516671
-0.000519794
-0.000563856
-0.000561741
-0.000473534
-0.000494184
-0.000530822
-0.000782089
-0.000486976
-0.000443796
-0.00101452
-0.00101201
-0.000864937
-0.000641565
-0.00101069
-0.00101281
-0.00138479
-0.00130962
-0.00113141
-0.00270835
-0.00235356
-0.00285353
-0.00279732
-0.00560518
-0.00550893
-0.00568597
-0.0079432
-0.00851521
-0.0112884
-0.0153981
-0.0197138
-0.0131675
-0.0143574
-0.0106554
-0.00739724
-0.00849293
-0.00531925
-0.00464761
-0.00974883
-0.00856385
-0.0102738
-0.0101416
-0.0103058
-0.0101715
-0.0175747
-0.0174505
-0.0278713
-0.0278567
-0.0266231
-0.0239961
-0.0281861
-0.024869
-0.0150994
-0.00852371
-0.00447836
-0.00219933
-0.00217481
-0.00214706
-0.00306013
-0.00441709
-0.00434458
-0.00600712
-0.00839492
-0.00824466
-0.00600745
-0.00306035
-0.00217716
-0.00217263
-0.00214486
-0.00150244
-0.0030706
-0.00602349
-0.0110281
-0.0110026
-0.0148482
-0.0145595
-0.0187408
-0.0244117
-0.0238957
-0.0296635
-0.0372103
-0.0379526
-0.0410991
-0.068178
-0.0493782
-0.0721601
-0.0519524
-0.0507139
-0.0682522
-0.0517632
-0.071256
-0.0764043
-0.0805927
-0.0774861
-0.105665
-0.0738718
-0.0656261
-0.0616923
-0.0804665
-0.0813834
-0.0586545
-0.0658494
-0.0770476
-0.0813343
-0.0755139
-0.073866
-0.105054
-0.0778219
-0.0808422
-0.0809882
-0.0811994
-0.0808917
-0.0775158
-0.0805574
-0.0721195
-0.0645488
-0.0769469
-0.0500312
-0.0487388
-0.0527778
-0.0791505
-0.0519544
-0.050929
-0.0518391
-0.0796137
-0.0520172
-0.0511643
-0.0515254
-0.0794919
-0.0532365
-0.0588325
-0.100914
-0.0813631
-0.0760973
-0.0614377
-0.0581992
-0.0718178
-0.0509733
-0.0439236
-0.029659
-0.0187168
-0.0109848
-0.00599708
-0.00305509
-0.00149052
-0.00217148
-0.00219334
-0.00189482
-0.00283397
-0.00409447
-0.0038707
-0.00568063
-0.00793334
-0.00850638
-0.0112832
-0.0153847
-0.0197064
-0.0108955
-0.014359
-0.00855463
-0.0104993
-0.00611464
-0.00794778
-0.00464185
-0.00558244
-0.00529832
-0.00504849
-0.00723393
-0.00734216
-0.00962447
-0.0109012
-0.0101397
-0.0142774
-0.0135158
-0.0185015
-0.0184992
-0.0173398
-0.0238111
-0.0223453
-0.029934
-0.0275677
-0.0371501
-0.0342474
-0.0452852
-0.0453857
-0.0409957
-0.0532113
-0.0481817
-0.0529889
-0.0530465
-0.0409918
-0.0452852
-0.0453267
-0.0529165
-0.0481176
-0.0508716
-0.0412014
-0.0277886
-0.0175145
-0.0102741
-0.00560892
-0.00285695
-0.00270657
-0.00531591
-0.00560332
-0.00550364
-0.0102706
-0.0101332
-0.0106457
-0.0143425
-0.0131697
-0.0185823
-0.0241772
-0.0259609
-0.0320888
-0.0408854
-0.048731
-0.0282605
-0.037776
-0.0235847
-0.0302787
-0.0181259
-0.0241577
-0.014696
-0.0184283
-0.0167773
-0.0159953
-0.0219695
-0.0217258
-0.0276375
-0.0306682
-0.0277582
-0.0371441
-0.0341967
-0.0458368
-0.0451584
-0.0410393
-0.0533719
-0.0479585
-0.0529076
-0.0575985
-0.0413255
-0.0456694
-0.0429528
-0.0479185
-0.0476672
-0.0503797
-0.0441893
-0.0376676
-0.0394948
-0.0467878
-0.0542961
-0.0351797
-0.041118
-0.0278307
-0.0174357
-0.0101875
-0.00555677
-0.00283649
-0.00138566
-0.000711648
-0.000521618
-0.000515304
-0.000476131
-0.000370839
-0.000451633
-0.000590053
-0.000555246
-0.00064519
-0.00037349
-0.000470811
-0.000633055
-0.000634748
-0.000579314
-0.000699447
-0.000994069
-0.000935257
-0.00134538
-0.00136009
-0.00199883
-0.00196111
-0.0028338
-0.00282555
-0.00278872
-0.00408474
-0.00386043
-0.0056651
-0.00429768
-0.00424806
-0.00408539
-0.00211787
-0.00199993
-0.00149848
-0.00149658
-0.000778162
-0.000563779
-0.000581658
-0.000535363
-0.000562951
-0.000582741
-0.000737594
-0.000583763
-0.000860548
-0.00088185
-0.00137731
-0.00135273
-0.00200244
-0.00195317
-0.00281838
-0.00283764
-0.00280556
-0.00408604
-0.00400384
-0.00567494
-0.00550446
-0.00789289
-0.00763124
-0.0106063
-0.0106054
-0.0100946
-0.0142205
-0.0141582
-0.00803143
-0.00789318
-0.00588399
-0.0058795
-0.003025
-0.00213333
-0.00200609
-0.00104758
-0.00100846
-0.000776819
-0.00102358
-0.00118566
-0.00144591
-0.00148982
-0.00209181
-0.00203252
-0.00300007
-0.00255135
-0.00372604
-0.00384142
-0.00582126
-0.00550907
-0.00792354
-0.00761056
-0.0105974
-0.0106307
-0.0101346
-0.0142153
-0.0135495
-0.0184764
-0.0172999
-0.0238393
-0.0223432
-0.0299253
-0.0299742
-0.0275571
-0.0371448
-0.0277537
-0.024341
-0.0147951
-0.0145421
-0.0109883
-0.00599901
-0.00305606
-0.00149113
-0.00214513
-0.00217264
-0.00441225
-0.00446546
-0.00285828
-0.00561175
-0.0102793
-0.0150349
-0.0148326
-0.0083853
-0.00823759
-0.00434064
-0.00441085
-0.0021726
-0.00196482
-0.00200398
-0.00136022
-0.00200055
-0.0028366
-0.00280109
-0.00408444
-0.00408963
-0.00283491
-0.0028354
-0.00280597
-0.00408632
-0.00409567
-0.00283805
-0.00200564
-0.00136253
-0.00200012
-0.00134991
-0.00134641
-0.00134769
-0.00134632
-0.00136003
-0.00199887
-0.00199989
-0.00196335
-0.00282967
-0.00280182
-0.00408521
-0.00408546
-0.00400344
-0.00566765
-0.00551083
-0.00790051
-0.00789252
-0.0078903
-0.00789871
-0.0055054
-0.00567822
-0.0056758
-0.00400581
-0.00567648
-0.00551725
-0.00789337
-0.0079182
-0.00568405
-0.00399048
-0.00409909
-0.0041901
-0.00279482
-0.00282027
-0.00195483
-0.00200248
-0.00203531
-0.00135271
-0.00134337
-0.00134279
-0.00100762
-0.000698945
-0.000994254
-0.000935813
-0.00100395
-0.000699092
-0.00100162
-0.000934969
-0.000994581
-0.000697527
-0.00100354
-0.00134156
-0.00133747
-0.000922959
-0.00104485
-0.00077269
-0.000561314
-0.000365757
-0.0005319
-0.000509655
-0.000522232
-0.000523491
-0.000365352
-0.000563662
-0.000586971
-0.000509415
-0.000533935
-0.000366484
-0.0006634
-0.000502943
-0.000492607
-0.000459271
-0.000638102
-0.000621868
-0.000604564
-0.000605481
-0.000619706
-0.000579541
-0.00063147
-0.000631099
-0.000443069
-0.000501473
-0.000661687
-0.000492263
-0.00077871
-0.000739235
-0.00138276
-0.00138653
-0.0028589
-0.0056112
-0.0083798
-0.00764041
-0.0106147
-0.0101122
-0.0142131
-0.0142292
-0.0142149
-0.0142804
-0.010137
-0.0106209
-0.0106319
-0.00761779
-0.00792472
-0.00812856
-0.00550985
-0.00565802
-0.00582366
-0.0038468
-0.00373143
-0.00513199
-0.00505696
-0.00724292
-0.00963841
-0.00933756
-0.0130827
-0.0168774
-0.0160185
-0.0219941
-0.0276686
-0.0256446
-0.0341523
-0.0359778
-0.029908
-0.0233746
-0.0187096
-0.0141581
-0.0109057
-0.00800316
-0.00592437
-0.00422098
-0.0030036
-0.00255459
-0.00253761
-0.00290653
-0.00187957
-0.00180966
-0.00118819
-0.00119823
-0.00144738
-0.00209336
-0.001024
-0.00086174
-0.000883336
-0.00102243
-0.000696063
-0.00098617
-0.000925447
-0.00104837
-0.000775323
-0.00056282
-0.000373989
-0.000471606
-0.000645294
-0.000371127
-0.000590833
-0.000584162
-0.000737691
-0.000582731
-0.000452039
-0.000555467
-0.000634516
-0.000580044
-0.000632857
-0.000581252
-0.000562411
-0.000774631
-0.00149082
-0.0014875
-0.00302129
-0.00589729
-0.0107881
-0.0101408
-0.0142799
-0.0147013
-0.0109058
-0.0106054
-0.0081096
-0.0042859
-0.00213641
-0.00213262
-0.00301539
-0.00586156
-0.010694
-0.0143226
-0.0135287
-0.0184995
-0.0173435
-0.0238066
-0.0239801
-0.0239188
-0.0248296
-0.0173809
-0.0185154
-0.0189933
-0.0130882
-0.0109004
-0.0145891
-0.0144346
-0.0240433
-0.0243171
-0.0241953
-0.0259818
-0.0320937
-0.0236037
-0.0264292
-0.0166358
-0.0147097
-0.0175277
-0.0173978
-0.0186003
-0.0278237
-0.0278093
-0.0302293
-0.0218317
-0.0247595
-0.0175226
-0.0277987
-0.0378543
-0.0372285
-0.0243965
-0.0238911
-0.0145498
-0.0148163
-0.0187222
-0.0187776
-0.018741
-0.011003
-0.00840242
-0.00838487
-0.00441211
-0.00434009
-0.00440856
-0.00446349
-0.0084893
-0.00739832
-0.00820167
-0.00431213
-0.00426499
-0.00427985
-0.00429894
-0.0021276
-0.00211986
-0.00104045
-0.00104091
-0.000576758
-0.00213806
-0.0081441
-0.00811201
-0.0144498
-0.0145184
-0.0146371
-0.0241917
-0.0240677
-0.0243399
-0.0145995
-0.0301939
-0.0379377
-0.0336215
-0.045646
-0.0379286
-0.0374001
-0.0531255
-0.0532475
-0.0543984
-0.0697432
-0.0957207
-0.0971608
-0.0545533
-0.0689714
-0.0961977
-0.0781035
-0.0603021
-0.076747
-0.0775997
-0.0613142
-0.0586616
-0.101626
-0.0795788
-0.0769553
-0.100932
-0.0860467
-0.0861233
-0.0810404
-0.0764501
-0.0519874
-0.0714535
-0.0508207
-0.0438261
-0.0296631
-0.0244294
-0.0148605
-0.0148311
-0.0175742
-0.0175225
-0.0173842
-0.0278163
-0.0277912
-0.0264181
-0.0166272
-0.00974313
-0.0146869
-0.0189852
-0.0173793
-0.0239158
-0.0223176
-0.0301269
-0.0299343
-0.0276279
-0.03706
-0.034224
-0.0371502
-0.0277696
-0.0175029
-0.0148091
-0.0150286
-0.0247504
-0.0218369
-0.0243933
-0.0238881
-0.0145478
-0.00823646
-0.00837548
-0.0056077
-0.00285709
-0.00138543
-0.0020051
-0.00212641
-0.00283356
-0.00104584
-0.00134952
-0.00100467
-0.000587355
-0.0006223
-0.000524464
-0.000362715
-0.000567275
-0.000781856
-0.00426027
-0.00427876
-0.00409506
-0.00302481
-0.00421765
-0.00512344
-0.00591762
-0.00590346
-0.00799702
-0.00811965
-0.0108939
-0.00932443
-0.013067
-0.0130722
-0.0168547
-0.0141471
-0.0186901
-0.0184409
-0.0107992
-0.0080952
-0.0079159
-0.00805002
-0.00789811
-0.0107266
-0.014296
-0.0142752
-0.014189
-0.0184795
-0.0182664
-0.0235134
-0.0239692
-0.0233579
-0.0248079
-0.0298799
-0.0256112
-0.0341198
-0.0337795
-0.0393377
-0.0359571
-0.0293936
-0.0436238
-0.0574832
-0.0576981
-0.0591422
-0.0645287
-0.0603949
-0.0502166
-0.0359406
-0.0374333
-0.0289998
-0.0429484
-0.0567336
-0.0653754
-0.0613971
-0.0496665
-0.0353904
-0.0232539
-0.0299639
-0.0238463
-0.0182664
-0.0107307
-0.028992
-0.0429681
-0.056831
-0.0656454
-0.0614686
-0.0496778
-0.03535
-0.0232079
-0.0238363
-0.0236127
-0.0143738
-0.00814211
-0.00553423
-0.00282857
-0.00138145
-0.00124562
-0.00269968
-0.0101188
-0.0172172
-0.0272829
-0.0360734
-0.050415
-0.0572196
-0.0669461
-0.0612509
-0.0506115
-0.0564689
-0.0598371
-0.0567379
-0.0430563
-0.0427307
-0.0288598
-0.0181804
-0.0106757
-0.00585028
-0.00300838
-0.00148687
-0.00148997
-0.000776191
-0.00104822
-0.00104705
-0.000586221
-0.000637477
-0.000579067
-0.000560434
-0.000771418
-0.00148028
-0.00213099
-0.0019505
-0.00281066
-0.00283554
-0.00285476
-0.00217104
-0.00214334
-0.00100991
-0.00216819
-0.00218988
-0.00130598
-0.000675102
-0.000743148
-0.00104531
-0.000738851
-0.00270198
-0.00445749
-0.0044081
-0.00433716
-0.00440279
-0.00836571
-0.00823163
-0.00837556
-0.00560604
-0.0102712
-0.0102755
-0.0175119
-0.0243638
-0.0223544
-0.0238528
-0.0172978
-0.023815
-0.0299695
-0.0275591
-0.0370804
-0.0371674
-0.0299136
-0.0299967
-0.02763
-0.0370402
-0.0374537
-0.0299285
-0.0223382
-0.030149
-0.0306793
-0.0217504
-0.0181315
-0.0235579
-0.0184225
-0.0293652
-0.0435782
-0.0442169
-0.0503903
-0.0576957
-0.0591579
-0.0574286
-0.0645601
-0.0603932
-0.0502792
-0.036005
-0.0289141
-0.0182119
-0.0233192
-0.0142303
-0.0184986
-0.0184719
-0.0184893
-0.0184722
-0.0173366
-0.0238955
-0.0238317
-0.022353
-0.029944
-0.0276379
-0.0372487
-0.0371378
-0.0342501
-0.0452766
-0.045461
-0.0453512
-0.0342146
-0.0378434
-0.0372338
-0.0296655
-0.0297147
-0.0363631
-0.043827
-0.0411801
-0.0412646
-0.068499
-0.0507407
-0.0488655
-0.0712888
-0.0763307
-0.0803059
-0.0775473
-0.0809872
-0.0812376
-0.0758567
-0.0510478
-0.0703216
-0.0491753
-0.0685606
-0.0688341
-0.0685645
-0.0688582
-0.0686469
-0.0613279
-0.0799519
-0.105095
-0.0547374
-0.0781292
-0.0844438
-0.0808868
-0.0861953
-0.0809922
-0.0764754
-0.102209
-0.0786754
-0.0534147
-0.0588965
-0.101139
-0.0583136
-0.0716564
-0.053153
-0.0692071
-0.049305
-0.0438912
-0.0363893
-0.0372229
-0.0372308
-0.0378435
-0.0371883
-0.0243535
-0.0372018
-0.0364247
-0.0238894
-0.0243665
-0.0148119
-0.0150084
-0.0175155
-0.0278134
-0.027779
-0.0371985
-0.0412084
-0.0391337
-0.0352002
-0.0592677
-0.0417588
-0.053215
-0.0540876
-0.0496156
-0.0530702
-0.0609072
-0.0686455
-0.0505141
-0.0487274
-0.0714759
-0.0508278
-0.0493079
-0.0688533
-0.0509245
-0.0705239
-0.0759833
-0.0764264
-0.0805101
-0.0722642
-0.0799155
-0.105029
-0.0781221
-0.0809099
-0.0810504
-0.081167
-0.0813542
-0.0759789
-0.0513593
-0.0705237
-0.0781304
-0.081221
-0.0781057
-0.0761177
-0.0512585
-0.0707301
-0.0494411
-0.0691992
-0.069478
-0.062819
-0.0412431
-0.0411957
-0.0626213
-0.0623135
-0.0392112
-0.0413237
-0.0411963
-0.050875
-0.0622823
-0.06253
-0.0628391
-0.058025
-0.0668264
-0.0494253
-0.0353322
-0.0291207
-0.0183327
-0.0107525
-0.00587885
-0.00300965
-0.00427794
-0.00567938
-0.00564344
-0.00398377
-0.00530921
-0.00847818
-0.00760585
-0.0105776
-0.0106278
-0.010129
-0.0142469
-0.0142183
-0.0106064
-0.00763685
-0.0106202