/*--------------------------------*- C++ -*----------------------------------*\
| =========                 |                                                 |
| \\      /  F ield         | OpenFOAM: The Open Source CFD Toolbox           |
|  \\    /   O peration     | Version:  2306                                  |
|   \\  /    A nd           | Website:  www.openfoam.com                      |
|    \\/     M anipulation  |                                                 |
\*---------------------------------------------------------------------------*/
FoamFile
{
    version     2.0;
    format      ascii;
    arch        "LSB;label=32;scalar=64";
    class       volScalarField;
    location    "1.2";
    object      gradTx;
}
// * * * * * * * * * * * * * * * * * * * * * * * * * * * * * * * * * * * * * //

dimensions      [0 -1 0 1 0 0 0];

internalField   nonuniform List<scalar> 
5322
(
-0.0175756
0.00117925
0.00118835
-2.4251e-05
-8.02605e-05
-6.05648e-05
-3.60057e-05
-1.99119e-05
-1.09808e-05
-5.06354e-06
-1.28815e-06
7.51424e-06
9.16591e-06
-0.000118505
1.45974e-06
0.0002529
-0.000193054
1.13964e-05
-0.000175569
0.000234104
-0.000302967
0.000547017
-0.000569784
0.00112444
-0.00117639
0.00204364
-0.00205827
0.00360334
-0.00365536
0.00572173
-0.00543822
0.00910157
-0.00666725
0.0142895
0.0016636
0.0224703
0.0159654
-0.00632215
0.0173944
-0.00105242
-0.0165233
0.0165449
-0.00100014
-0.0175832
0.0175129
-0.000589783
-0.0186796
0.0165258
-0.000369995
-0.0196239
-0.0195384
-0.0279441
-0.00944979
0.0172762
-0.00114516
-0.0280778
-0.000883468
0.0266384
-0.00031707
-0.0266248
-0.000111616
0.0259408
-0.000128487
-0.0261525
4.11797e-05
0.0256127
0.000402486
-0.0259084
0.00146261
0.0214291
0.00139322
-0.0195554
0.0222336
-0.0228706
0.0220036
-0.0224187
0.0224331
-0.0224629
0.0256102
-0.0189086
0.00873175
-0.014409
-0.00988907
0.0147908
0.00112544
-0.00578685
0.0111731
-0.0312026
-0.00917604
0.0332579
-0.00153499
0.000238331
0.000396109
0.0032185
0.0180424
-0.00326724
0.000614695
-0.000896212
0.0114872
-0.0275134
-0.0274308
0.0545587
-0.000933247
0.0139813
0.022857
0.000875028
0.000303509
0.000191634
8.47167e-05
2.12093e-05
-3.13787e-06
-8.93606e-06
-8.2536e-06
-5.5569e-06
-1.20658e-06
-1.95872e-06
-7.95217e-05
-7.3139e-05
1.20102e-05
4.22737e-05
-1.37567e-07
5.92888e-05
-7.22219e-05
-6.26214e-06
-2.16104e-05
0.000112839
8.96559e-05
2.09811e-05
7.14562e-05
4.24462e-05
3.06978e-05
7.69812e-05
3.43916e-05
3.73795e-05
7.81952e-05
2.89442e-05
6.20369e-05
8.90098e-05
9.84949e-05
3.69365e-06
-7.62956e-05
1.40089e-06
5.44674e-05
-7.12486e-05
-8.11568e-05
1.52486e-05
2.68048e-05
1.14372e-05
-6.29935e-05
-7.01557e-05
1.7739e-05
1.38856e-05
1.86824e-05
-6.96496e-05
-6.40823e-05
1.80524e-05
6.37532e-06
3.38762e-05
-6.9134e-05
9.1354e-05
-0.000224682
-0.000289751
0.000357453
-0.000551577
-3.42437e-05
-0.000265964
6.99762e-06
0.000217083
-4.80385e-05
0.000195761
9.53337e-05
0.000144628
-0.000270202
9.30921e-05
-0.000234519
0.000212736
0.000276433
-0.000466654
4.89334e-05
-0.000397596
0.000507868
0.000633136
-0.00096326
6.91495e-05
-0.000809242
0.00109606
0.00134339
-0.00192839
0.000134696
-0.0016127
0.00216981
0.00264341
-0.00364177
0.000242618
-0.00304538
0.00394363
0.00481709
-0.0064676
0.000404311
-0.00541656
0.0065929
0.0081292
-0.0107715
0.000637863
-0.00900165
0.0101248
0.0126894
-0.0165706
0.000975297
-0.0136588
0.0139524
0.0173628
-0.0028532
0.0109957
-0.0272213
-0.0277667
0.0547695
-0.00248871
-0.00264191
0.000473753
0.00350396
0.017979
-0.00232181
0.000798453
-0.00288128
0.0105701
-0.0276681
-0.0273077
0.0544318
-0.00130998
0.0139696
0.000590466
0.000475918
0.000225621
0.000110887
3.56229e-05
2.98875e-06
-6.76179e-06
-7.67494e-06
-5.33426e-06
-1.30296e-06
-1.98564e-06
5.99535e-05
-6.83661e-05
6.9064e-05
-5.92578e-05
8.74861e-07
5.88872e-05
-5.28792e-05
5.29368e-07
-5.98005e-05
2.36378e-07
-5.80061e-05
1.20655e-07
5.37017e-05
2.03019e-06
5.51449e-05
-5.07915e-06
-6.10262e-05
-2.06958e-07
6.00353e-05
8.01636e-08
1.84321e-07
0.000117059
-0.000241409
0.00024222
-0.000236855
0.000344172
-0.000492785
0.000751764
-0.00106805
0.00156473
-0.00216564
0.00305037
-0.00408298
0.00555128
-0.00715547
0.0094258
-0.0116341
0.0148564
-0.0172762
0.0213754
-0.0127926
0.00033782
0.0129772
0.000383728
-0.0208054
0.0168435
0.000103241
-0.0143951
0.01141
5.93231e-05
-0.00912524
0.00703946
3.41902e-05
-0.00537062
0.00402095
1.88566e-05
-0.0029485
0.0021338
1.03579e-05
-0.00150995
0.00105357
5.88001e-06
-0.000722983
0.000489616
3.25874e-06
-0.000329336
7.97553e-07
0.000331231
-0.000486697
-1.68844e-06
-0.000342112
0.000237897
-7.91098e-07
-0.000117836
-7.90037e-06
0.000118601
-0.000250546
0.000327555
-0.000487213
0.0007125
-0.00103624
0.00149442
-0.00208777
0.00292929
-0.00392215
0.00536076
-0.00685269
0.00917681
-0.0110799
0.014606
-0.0162224
0.0210677
-0.0126455
-0.00325132
0.00525533
0.00056547
-0.0196337
0.014855
9.39504e-05
-0.0131711
0.01034
-6.82241e-05
-0.00807776
0.0063114
-7.99517e-05
-0.00471417
0.00357029
-5.82667e-05
-0.00258923
0.0018907
-4.13724e-05
-0.00132617
0.000939347
-2.8287e-05
-0.000633685
0.000442263
-2.00692e-05
-0.000287799
0.000192531
-6.76484e-07
-5.92477e-05
9.45172e-05
0.000158432
-2.02144e-05
1.21904e-05
-3.04345e-05
9.88478e-05
-0.000309554
0.000318548
-0.000561527
-0.000378181
-0.000476012
5.07454e-05
0.00022344
0.00025037
-0.000265867
8.84268e-05
-0.00023167
-2.88186e-05
1.4835e-06
-7.94963e-05
5.54989e-06
-3.86512e-06
-7.89465e-05
-1.17704e-05
-2.79607e-05
-0.000241584
-0.000262604
0.000258021
-0.000463286
-4.10384e-05
0.000612491
-0.000958808
0.00131927
-0.00192121
-0.000174633
0.00261342
-0.0036315
0.0047718
-0.00645264
-0.000168155
0.00804391
-0.0107015
0.0124743
-0.0162224
0.00336746
0.000468114
2.00377e-05
5.48467e-05
-0.000178883
-0.000147926
0.00835799
-0.0109907
0.000715038
-0.00891307
0.00945318
0.013057
-0.0162861
0.00119435
-0.0143278
0.012398
0.0249528
-0.00172162
0.00155648
-0.0298746
-0.0278173
0.0522378
-0.00363103
0.000434062
0.000810326
-0.0114404
0.00211954
0.00588569
-0.00613137
0.000361663
0.00398502
-0.00352354
-8.69707e-06
0.00224107
-0.00205485
-4.27321e-05
0.00112988
-0.00108673
-5.04623e-05
0.000595577
-0.000532813
-4.47997e-05
0.000298307
-0.000217648
-3.38729e-05
0.000183281
5.74656e-05
3.81202e-05
-2.69088e-06
-1.54209e-06
0.000126487
-5.30259e-05
0.000755573
-0.00115994
0.00163774
-0.00233475
-0.00150517
-0.00197405
0.000137844
0.0010786
0.0013549
-0.00098334
7.08369e-05
-0.00075142
-7.18031e-05
-3.6721e-05
-1.5009e-05
-2.51386e-05
-4.5886e-05
2.50726e-05
9.54552e-06
-4.47789e-05
-0.000199557
-6.23218e-05
0.000104324
0.000132717
0.000116176
4.30434e-05
0.000220189
7.00404e-05
0.000112143
0.000142086
-0.00017865
-0.000392127
-0.000707919
-0.000368823
0.00022107
-0.000166097
3.69841e-05
0.000396845
-0.000353161
0.00324659
-0.00442062
0.00595609
-0.0079223
-0.00517208
-0.00664938
0.00042768
0.00380137
0.00493347
-0.00373765
0.000251091
-0.00286552
-0.000173275
-6.79389e-05
-5.9157e-05
-7.41041e-05
-0.000179063
-1.03327e-05
-5.42282e-05
-0.000101221
-4.6706e-06
-2.20469e-05
0.000223356
1.7383e-05
-4.59114e-05
-4.22844e-06
7.4501e-06
2.17523e-06
-6.76497e-06
1.20676e-05
-0.000145313
-1.90584e-05
-1.17615e-05
-3.89216e-06
-2.45297e-06
0.000496346
3.02436e-06
-0.000747405
0.000727981
-0.0010461
-1.36302e-06
0.00107797
8.79263e-06
-0.00155576
0.00152276
-0.00211674
1.60179e-06
0.00218945
1.90639e-05
-0.00303204
0.00297856
-0.00398494
9.63776e-06
0.00413532
3.86549e-05
-0.00551775
0.00543449
-0.00696999
2.80186e-05
0.00726055
6.68151e-05
-0.00937124
0.00924356
-0.0112905
6.56291e-05
0.0118008
5.87024e-05
-0.0147596
0.0145557
-0.0166884
0.000112005
0.0173666
-0.000124649
-0.0211746
0.0208759
-0.0128679
-3.3854e-05
0.0127566
-0.000930007
-0.00227713
-0.00165591
-0.00279162
-0.0265813
0.00532501
0.00313371
-0.00199705
-0.00398425
-0.0011352
-0.0192327
0.00453139
-0.00882779
-0.0113781
-0.00176402
-0.00338184
-0.00456968
-0.00232213
-0.00125744
0.000585546
-0.000655386
-0.00125887
-0.00115705
-0.000646846
-0.000367524
-0.0001988
-6.16388e-05
0.000126244
0.000115575
0.000119858
0.000137513
0.000198076
0.00018995
0.000128042
0.000129118
9.29125e-05
-8.18233e-05
2.44662e-05
-9.19508e-06
-6.3181e-06
2.2238e-05
-7.12437e-05
-2.04153e-07
1.71958e-08
-5.42024e-08
3.2918e-07
-4.5504e-05
-5.3445e-05
-5.34025e-05
-4.56258e-05
4.611e-05
-3.53219e-05
2.53733e-06
5.45128e-05
-4.30441e-05
-4.28365e-05
2.63397e-06
5.39539e-05
3.08036e-07
7.08183e-07
7.63173e-07
6.69689e-07
-3.86274e-06
4.60759e-07
-2.10327e-06
-2.09116e-06
1.95723e-06
1.52739e-05
4.68436e-05
-9.4231e-06
-9.2895e-05
-0.000411281
0.000128784
-0.000223296
0.00111378
-0.00155046
0.0103022
-0.0132853
0.0168931
-7.67955e-05
-0.00477498
-0.000977422
0.00133639
9.17691e-05
0.000610548
0.0008715
-0.00214186
-0.00409933
-0.00820186
-0.0192943
-0.0198986
-0.0443443
-0.0172368
-0.0145903
-0.000169441
-0.00557469
0.00546978
-0.0398893
-0.0244402
-0.011976
0.0172899
0.00138738
0.000710363
-0.0175576
0.0184804
0.000132317
-0.002312
-0.0191267
0.0185253
3.74106e-05
-0.00255574
-0.0186848
0.0184676
0.000141095
-0.00408583
-0.0178459
0.0131857
-0.0115648
0.0101973
0.00778868
0.0218573
-0.0102854
-0.00566725
0.00319924
0.0121977
-0.0363878
-0.00171016
-0.0210797
0.0210452
0.020463
0.0186112
0.0235682
0.0101921
0.00143333
0.00840926
0.0121488
0.0188229
-0.00587861
0.00160061
0.0101679
-0.00580974
0.000126704
0.00591532
-0.0037675
2.3477e-05
0.00353724
-0.00212774
2.80829e-05
0.00203193
-0.00113266
2.07223e-05
0.00109477
-0.00057231
8.5595e-06
0.000540933
-0.000290868
-9.91198e-06
0.000233018
-0.000171847
-5.30426e-05
2.55905e-05
-0.00015759
-9.56409e-05
6.01103e-05
-0.000191613
0.000292762
-0.000438002
2.07233e-05
-0.00032652
0.000250811
1.5783e-06
-0.000117806
8.24623e-06
0.000118233
-0.000116508
1.41265e-06
1.68463e-06
6.77993e-07
1.02858e-06
2.60242e-06
5.66423e-06
1.68085e-05
3.38076e-05
6.75369e-05
-0.000279994
-5.63971e-06
-0.000116619
0.000696174
-0.000707697
9.61922e-05
7.05267e-05
0.000363785
0.00038328
0.00210278
0.00269491
-0.000173548
-0.00160871
0.00217557
0.000243241
-0.0030417
0.00394347
0.000407128
-0.00543213
0.00657523
0.000645538
-0.00911027
0.0100649
0.00097825
-0.0140266
0.000670431
0.000991158
-0.00208426
-0.00208971
-0.0077733
-0.00385338
-0.00207322
-0.00114536
-0.000647456
-0.000371302
-0.000201573
-6.40744e-05
0.00012398
0.00011187
0.000114986
0.000189843
0.00011895
-6.46281e-05
-0.000203543
-0.000384603
-0.000677272
-0.00118378
-0.00210176
-0.00386576
-0.00755467
-0.0176091
-0.0183602
-0.0313213
-0.0258138
-0.00872798
-0.00866697
0.0156937
0.00162638
-0.00195883
-0.00156091
0.00724234
0.00023439
-0.00592297
-0.00565335
0.00577888
-1.14642e-05
-0.00648107
-0.00618892
0.00510461
9.49112e-06
-0.00804967
-0.00767096
0.00257912
-0.0114226
0.00805937
0.00782854
0.00817284
0.00716314
-0.00969443
0.000752259
0.00340959
-0.0113635
0.00256498
-0.0105127
0.0119841
-0.025661
-0.00100693
-0.0247071
0.0194728
0.0210011
0.0200387
0.0196458
0.0203285
0.0195526
-0.0267642
-0.00123634
-0.0241335
0.0148078
0.0158993
0.014872
0.0157031
-0.00101464
-0.0257561
-0.0255775
0.0120192
0.0200775
0.018791
0.0176611
0.0220555
0.022123
0.0170717
0.00481992
0.00988388
0.00421408
-0.00236684
0.0034965
0.000873538
-0.00257526
0.00169896
0.000300178
-0.00177821
0.00104734
0.000191936
-0.00113064
0.000598317
0.000104317
-0.000651584
0.000341353
7.40433e-05
-0.00035868
0.00016401
2.80073e-05
-0.00018776
7.12888e-05
5.12784e-06
-0.000107002
1.34561e-05
-3.36595e-05
-9.42917e-05
-4.0042e-05
-0.000113379
-0.000138007
-0.000133092
-8.93679e-05
-6.20358e-05
-9.83587e-05
-3.54812e-06
7.62917e-05
-5.50779e-05
6.17577e-06
6.23349e-05
-6.15095e-05
2.73875e-06
6.44508e-05
-6.66238e-05
-2.78412e-06
-5.56891e-06
-0.000126811
-7.9815e-07
-0.000247435
5.8169e-07
-0.000333744
3.76498e-06
0.000494239
-0.000498585
-1.41049e-07
-0.000713511
3.13931e-05
0.00104487
-0.000940308
4.738e-05
0.00134773
4.4241e-05
-0.00189203
8.14066e-05
0.00261802
6.68211e-05
-0.00355488
0.000131908
0.00473325
6.96211e-05
-0.00621451
0.00019283
0.00796076
8.4031e-05
-0.0100934
0.000279822
0.0124809
-4.6133e-05
-0.0150782
0.000483721
0.0180431
-8.60197e-05
-0.000661741
-0.0225491
-0.0163487
0.000785826
0.0174096
-0.000320513
-0.015337
-0.0106496
0.00062078
0.0119773
-0.000188343
-0.00974127
-0.00670278
0.000379263
0.00744767
-0.000123713
-0.00576664
-0.00395027
0.00023376
0.00429057
-6.45524e-05
-0.00316124
-0.00216987
0.000135681
0.00229102
-3.62868e-05
-0.00160609
-0.00110704
6.74696e-05
0.00114749
-1.35603e-05
-0.000744997
-0.000525518
3.15978e-05
0.000557337
2.64145e-06
-0.000315695
-0.000227775
2.73036e-05
0.00030739
3.14248e-05
-1.37243e-05
5.99842e-05
-9.56453e-05
-0.000157788
2.57178e-05
-5.37526e-05
2.12395e-05
0.0001479
-1.12169e-05
2.93391e-06
-0.000119945
1.46526e-06
0.000247886
-0.000240243
1.01103e-06
-0.000328182
2.09585e-05
-0.00044277
2.45007e-05
0.000646864
3.95142e-05
9.1025e-06
6.09076e-06
5.06939e-06
0.000347729
5.08709e-06
-1.52181e-06
-5.29127e-05
2.19478e-07
6.00056e-05
7.3836e-07
4.7162e-07
3.86608e-07
-9.16695e-06
-1.0742e-05
-7.89453e-06
-7.70492e-05
-1.25095e-05
-2.73269e-05
-3.69376e-05
-3.61509e-05
-4.11864e-05
0.000621616
0.000514141
-3.53114e-05
0.000103441
3.89846e-05
3.37339e-05
0.000227105
4.92595e-05
-0.000400313
0.000519744
6.88789e-05
-0.000808723
0.00110559
0.000134272
6.17138e-06
-7.856e-05
-9.25114e-05
-0.000135813
-0.000190994
-0.00024235
-0.000199317
-0.000139967
-8.05657e-05
-9.20621e-05
-7.73638e-05
-3.65238e-05
-4.21086e-05
-0.000389106
0.000508064
0.000824574
-0.00114128
0.00172811
-0.00229421
-6.53036e-05
-0.00128065
8.863e-06
0.000974561
-4.19314e-05
-0.00061182
-7.6459e-06
0.000480131
-5.00985e-05
-1.89762e-05
-0.000482334
-4.71575e-05
0.000657742
-0.000751983
2.56922e-06
-0.00177851
-1.92337e-05
0.00244362
-0.00216765
5.30466e-06
-0.00302822
5.22705e-06
0.00409907
-0.0040442
2.50666e-06
-0.00536633
8.08026e-06
0.00700651
-0.00720377
-2.81044e-05
-0.00885879
0.000101567
0.0110982
-0.0138044
3.09269e-05
0.0165772
-0.0195632
-0.000181827
-0.000603341
-9.42525e-05
-1.41047e-05
2.39217e-05
2.70835e-05
2.09271e-05
1.40509e-05
8.0664e-06
2.45252e-06
2.41254e-06
-5.93263e-05
6.95283e-05
-6.80221e-05
-5.90954e-05
5.3431e-07
9.43276e-07
-3.48825e-06
3.06256e-06
5.49813e-05
1.26027e-07
-6.65137e-07
-5.05462e-06
5.40342e-06
-6.04935e-06
-7.48644e-05
-1.18432e-05
-3.06827e-05
0.00020079
5.1487e-05
-7.30995e-06
-4.03969e-06
-9.21722e-07
-1.3459e-06
4.3164e-05
4.42253e-05
-1.67036e-06
3.55821e-05
6.02051e-05
-1.38506e-06
-2.03579e-06
-2.77824e-06
-1.9409e-05
-4.0478e-06
-6.46598e-05
0.000257807
7.68011e-06
-0.000400568
-7.05861e-06
0.000564232
-0.000504993
-1.92409e-06
-0.000751887
5.39944e-07
-0.00106498
4.31945e-07
-0.00152544
8.8375e-06
0.0021443
-0.00219182
-5.14203e-06
-0.00290745
7.20174e-05
0.00394225
-0.00526504
9.34086e-05
0.00686479
3.02168e-06
1.15587e-05
1.10605e-05
8.23478e-06
4.82039e-06
4.23742e-06
7.76307e-07
2.56914e-07
-2.74666e-06
-5.06409e-06
-3.92407e-06
-8.1399e-06
-2.18722e-06
-2.64159e-06
1.77453e-06
1.75184e-06
2.15644e-06
4.18761e-06
5.01443e-06
9.2703e-06
1.04003e-05
1.12523e-05
2.04173e-05
3.01117e-05
0.000127909
0.000196481
-0.000649131
0.000144484
-0.00109887
0.00345577
-0.0226961
-0.00630549
0.00023601
-0.00205303
0.0109556
-0.0108155
-0.0323195
-0.0127813
2.6856e-05
0.00332546
0.00035328
-0.0260059
-0.0114935
-0.00778738
0.0149326
0.00160973
-0.0016958
-0.00282326
0.00786745
0.000239617
-0.00552949
-0.00678936
0.00676737
7.90797e-06
-0.00605886
-0.00711726
0.00630415
5.79747e-05
-0.00777621
-0.00808457
0.00148462
-0.000435955
7.32382e-05
7.39877e-05
0.0166445
-0.0150887
0.000282735
0.012816
-0.000355771
0.000186464
-0.0161937
0.000475554
-0.00999428
0.0122433
0.000276672
-0.0142102
-0.0249704
0.0177969
-0.0015133
0.00251302
0.0082688
-0.000249313
0.0201674
0.0146973
0.0164857
-0.0190925
0.000798364
-0.0161144
-0.000508681
-0.0178201
0.000950729
-0.0170773
-0.000515776
-0.0171698
0.000983773
-0.018347
0.0153201
0.0150266
-0.000999846
-0.0312902
-0.0251238
0.0118873
-0.00848412
0.0120396
0.00696368
0.00819449
-0.0103922
0.00285748
0.00221528
-0.0116853
0.00432217
0.00783311
-0.00981926
0.0168259
-0.00900242
0.00146868
-0.00857599
0.00130042
-0.00922275
-0.00720807
0.00120584
-0.000602187
-9.14709e-05
-4.47188e-05
1.53626e-05
3.95682e-05
3.40551e-05
2.35912e-05
1.48985e-05
8.31454e-06
2.47858e-06
2.5006e-06
-3.55432e-05
4.65356e-05
7.32174e-07
9.00866e-06
6.34672e-06
5.27063e-06
-5.50278e-05
-1.08142e-06
7.20012e-05
-5.37365e-05
-2.6817e-05
7.12862e-05
-6.20633e-05
-8.98556e-05
-9.88192e-05
8.01887e-05
7.65166e-05
-3.5789e-06
-5.52742e-06
-2.17731e-05
3.50331e-06
7.95486e-05
-9.88141e-06
-1.50678e-05
-1.64785e-05
7.01512e-05
7.04911e-05
-1.54669e-05
-9.44919e-06
8.2459e-05
-3.33531e-05
-8.10731e-05
-3.36619e-05
7.82449e-05
1.34631e-05
1.22771e-05
-1.0616e-06
1.11551e-05
2.18182e-05
0.000148848
-1.14095e-05
7.8671e-06
-4.05333e-07
-3.06497e-06
-7.04062e-06
-1.35099e-05
-2.67597e-05
-5.55972e-05
-0.00011204
2.03208e-05
-4.67932e-05
0.000119168
-0.000712097
-0.000180913
0.000864199
-0.00144692
-0.000483834
-0.000510334
-0.0155257
0.0149139
-0.000446931
-0.000339443
0.00102007
-0.000736007
-0.000363173
0.00274564
0.00488197
0.00262216
0.0140019
-0.00639105
0.00177621
0.0111044
0.012264
-0.00330449
0.00134803
-0.000141441
0.000757374
-0.000181638
5.08169e-05
-0.00117867
-4.59759e-05
6.03225e-05
1.90368e-05
2.55057e-06
-1.93325e-06
6.14165e-06
8.62728e-08
4.40243e-06
3.76763e-06
6.0404e-06
4.9812e-05
0.000106021
0.000190022
0.000309174
0.000470106
0.000734952
0.000351519
0.000102633
0.000204163
0.000112723
4.71516e-05
1.87754e-05
1.38712e-05
6.85418e-06
1.40798e-05
9.59534e-06
-0.000708959
0.000641926
-0.000928696
0.0013347
-0.00186961
5.04381e-05
-0.00148102
0.00103878
3.12842e-05
7.85136e-06
5.17229e-06
9.5698e-07
0.000488526
4.9898e-06
-1.5567e-06
6.12719e-05
9.98379e-07
4.40052e-06
9.6568e-06
-1.40799e-05
8.14603e-05
6.35657e-05
-2.37559e-05
1.03096e-05
-4.50629e-08
-1.66625e-07
3.66905e-05
-1.57956e-06
-1.47098e-07
2.50952e-05
-8.16003e-05
2.20129e-05
6.74994e-07
9.34311e-06
6.67234e-06
7.32605e-07
-5.4739e-06
3.65837e-06
6.78761e-06
-2.37983e-05
-2.18689e-05
8.17881e-05
-2.71332e-05
-5.34248e-05
-1.43337e-05
7.22339e-05
-9.96422e-07
9.55839e-06
5.50219e-06
1.95594e-06
1.78229e-06
4.79343e-06
5.58143e-06
3.70473e-05
1.58769e-05
2.42867e-05
4.00505e-05
4.71095e-05
9.44348e-06
5.55593e-07
1.49453e-05
1.63424e-07
0.0020943
-0.00289266
0.00259617
-0.00352388
0.00471326
-0.00619964
0.000137288
-0.00526868
0.00393677
8.31853e-05
1.09031e-05
7.28504e-05
8.10219e-05
0.000118834
0.000122857
2.25567e-05
-1.23721e-06
1.85039e-05
1.91106e-05
3.17962e-05
2.77987e-05
3.97467e-05
9.39323e-05
0.000229672
9.97171e-05
0.0007964
0.000114891
4.34501e-05
1.28493e-05
4.01582e-07
-3.63924e-06
-9.74428e-07
-1.54773e-06
4.16827e-06
1.78688e-06
5.04086e-07
8.95948e-06
9.3839e-06
6.45565e-06
-7.77596e-06
-8.06068e-06
-4.36976e-07
-9.08539e-07
-1.89629e-06
1.57787e-06
3.58948e-06
7.36615e-06
1.3641e-05
1.75264e-05
2.62943e-05
2.07491e-05
2.90118e-05
5.62648e-05
4.85295e-05
3.48423e-05
8.70344e-05
0.000241061
8.1087e-05
7.9917e-05
0.00337345
-0.000561666
0.000386435
6.76246e-05
0.00023237
0.00711434
-0.000268309
-0.00102993
0.00592257
0.00209732
-0.0259142
-0.00954702
-0.0157417
0.0159474
-0.0114521
-0.012295
0.0144364
-0.0168412
-0.000909679
-0.00126337
-0.0164677
0.0147911
-0.00010627
-0.000708952
-1.96755e-05
0.000284194
0.000382965
0.00626087
0.00223172
-0.011364
-0.0106424
0.0174872
0.00155352
-0.00411947
-0.00126843
0.00677334
0.000166836
-0.00792468
-0.00514975
0.00516492
-1.73104e-05
-0.00823282
-0.00565285
0.00453794
-3.65609e-05
0.00722657
0.00702374
0.000402064
0.0100532
-0.00984824
8.62913e-05
-0.00764835
-6.19462e-05
-0.000129139
-1.88447e-05
7.39729e-06
1.38545e-05
1.03946e-05
6.13853e-06
3.20596e-06
1.44337e-06
-1.06229e-06
-3.96404e-06
7.21502e-05
-0.000794258
0.00110596
0.000137537
-0.00158949
0.00218949
0.0033674
-0.00433834
0.00610467
-0.00770606
-0.000147151
-0.00464121
9.76089e-05
0.00364472
-0.000104216
-0.00251592
3.63824e-05
0.00194296
-0.000282407
-0.000198171
-0.00199541
-0.000134391
0.00249922
-0.00285686
2.62468e-05
-0.0062194
-2.31171e-05
0.00808435
-0.00707459
2.42217e-05
-0.00915239
2.46247e-05
-0.0113991
-2.08046e-05
-0.0139756
-4.42812e-05
0.0167799
-0.0174324
-1.71142e-05
0.0200116
-4.49171e-05
-0.0196819
0.0196086
-6.06903e-05
-0.0169786
0.0171709
-0.0198624
-1.13877e-05
2.07823e-05
0.000110636
7.48039e-05
3.00473e-05
7.85881e-06
-4.97078e-07
-2.90893e-06
-3.96373e-05
-6.40379e-05
-0.000133439
-0.000167853
-0.000191642
-0.00024013
-0.00300537
0.00397908
0.000411594
-0.00534563
0.00666164
0.0102996
-0.0128867
0.0161305
-0.0199687
0.000285871
-0.0143331
0.00140749
0.010443
-0.00013641
-0.0082136
0.000336197
0.00640898
-0.000730354
-0.000402439
-0.0060064
-0.000146511
0.0075481
-0.00829542
0.000118957
-0.0162378
6.19426e-05
0.0198213
-0.0169575
-4.25973e-05
0.0198577
0.000130525
-0.0226479
0.0133046
1.08914e-05
-0.0128901
0.0111284
-0.0151855
0.000359112
-0.00293486
-0.00145036
-0.00240509
-0.0039709
0.0150497
-0.0246549
0.00523046
-0.00619307
-0.0029117
-0.00156762
-0.000908678
-0.000528396
-0.000293217
-0.000139249
-2.42843e-06
0.000385462
0.000166515
-8.55909e-05
5.86576e-05
1.90646e-05
0.000230651
-0.000207646
0.000183109
-1.17982e-05
-0.000123694
3.76936e-06
0.000263154
-0.000257344
-2.60527e-06
-0.000346858
-1.15851e-08
-0.000495116
-4.8701e-09
-0.000731256
6.32971e-06
0.00106132
-0.00108148
-2.01463e-06
-0.0014912
4.7506e-05
0.00210403
1.17177e-05
4.80858e-06
0.00157784
5.17977e-06
0.000759366
-8.86075e-07
-1.51365e-06
-4.23909e-06
-1.27936e-05
-3.81248e-07
0.000122843
6.50206e-06
3.83628e-06
4.43431e-05
7.8677e-05
-0.0001842
-2.40093e-05
-0.000355279
1.9418e-06
-0.000860562
-1.29815e-05
0.00120764
-0.00107582
7.46698e-07
-0.00156066
1.77545e-06
-0.00215321
1.75211e-06
-0.00296795
1.05682e-05
0.00402433
-0.00412386
-1.24858e-05
0.00552136
-3.53575e-06
3.25539e-06
0.0030613
-2.09515e-07
1.15328e-05
3.75542e-06
-2.59277e-06
0.00073795
-6.26174e-06
0.000340291
2.06013e-05
-2.71225e-05
0.000330364
-1.764e-05
2.83018e-05
-7.93511e-05
0.000523021
-5.72324e-05
-0.000102788
-0.00102841
-8.48177e-05
-0.00151884
9.35648e-06
-0.00344563
-2.49294e-05
0.00460674
-0.00406405
1.36573e-05
-0.00546469
1.27238e-05
-0.00704904
-1.93692e-06
-0.00900478
-7.06681e-06
0.0113077
-0.0116796
-4.96447e-05
0.0142977
-2.79067e-05
-1.45743e-06
1.21578e-05
1.58551e-05
2.9268e-05
2.18665e-05
1.43779e-05
7.7785e-06
6.58382e-06
6.59301e-06
1.12958e-05
9.57867e-06
8.21123e-05
0.000150456
0.000245454
8.99377e-06
2.82319e-05
1.8842e-05
1.65324e-05
1.07135e-05
2.40611e-06
4.21304e-06
-6.44944e-05
-0.000568956
3.88921e-05
-0.000555999
0.000894288
8.91944e-05
-0.00119745
-0.00122724
0.000910852
0.000850982
8.72404e-05
-0.00114433
-0.00130883
0.000964841
-0.000601434
3.76279e-05
-0.000537899
0.000420423
0.000442918
0.000436838
0.000424997
3.86716e-05
-0.000589993
-0.000550214
-6.45652e-05
0.000864654
8.86818e-05
-0.00128322
-0.00117308
-0.000125291
0.00170863
0.000179871
-0.00255046
-0.00231634
-0.00237548
-0.00243506
0.000183019
0.00176929
0.00180545
-0.00012466
0.00167818
0.000178726
-0.00225844
-0.00260132
0.00191957
-0.000129119
-0.00108128
-0.00161652
6.45191e-05
0.000775624
-6.75021e-05
-0.000514122
-0.000751503
2.92756e-05
0.000391569
0.000468795
-0.000242466
2.64434e-05
-0.00023567
-4.75093e-05
-0.00023981
2.63903e-05
-0.000235324
-4.74862e-05
-0.000239901
2.70176e-05
-0.000238451
0.000462555
0.000394723
-4.95868e-05
-3.65791e-05
6.53468e-05
-0.00012462
-0.000117085
-0.000117006
-0.000130995
-0.000124524
-0.000125641
-0.000121849
-0.000127349
-0.0001904
-0.000129876
-0.000117775
-0.00011701
-7.82587e-05
-2.86599e-05
-3.74766e-05
8.23773e-05
-9.18685e-05
0.000248939
0.000252357
0.000250658
0.000250064
0.000260007
0.000236571
-8.75072e-05
7.15241e-05
-2.83466e-05
-7.81542e-05
-3.77057e-05
7.94597e-05
1.23899e-05
3.71509e-05
3.78287e-05
8.39371e-05
0.000153492
-3.22999e-06
-0.000223549
0.00335264
0.000319737
-0.00434645
-0.00445689
-0.00412087
-0.00476499
0.000310065
0.00311675
0.00357512
-0.00022943
-0.0021185
-0.00318931
0.000132624
0.00153481
0.00230538
-3.02339e-05
0.000182943
-0.000367405
6.9538e-05
0.00036066
-0.000678568
0.000117538
0.000670348
-0.00114998
0.000222714
0.00128897
-0.00168617
0.000662862
0.00301099
0.000297544
0.00191734
-0.00060182
0.00100918
-0.000513194
0.00062637
-0.000333131
0.000381905
-0.000196206
0.000211768
3.41071e-05
-0.000189265
0.00115298
-1.2124e-05
8.03729e-05
-0.000106881
7.13568e-06
7.56857e-05
-0.00011734
-9.74732e-05
1.82327e-05
3.38976e-06
-0.000318647
2.61794e-05
-0.000223767
-4.96772e-05
-3.61319e-05
7.03129e-05
-9.79435e-05
-0.000133391
-0.000137327
-0.000113882
-3.94885e-05
-9.5021e-05
-3.29921e-05
-5.55946e-05
-0.000217978
3.18452e-05
0.000308508
0.000236076
0.000261894
-8.74791e-05
-0.000197927
-0.0001243
6.62993e-05
0.000211585
0.000216162
0.000409478
0.000697375
0.00111621
0.000230104
-0.0038507
-0.0058396
0.00431945
0.00286866
-0.000357646
-0.000198666
-9.55646e-05
-8.44619e-05
0.00038104
0.000627056
0.000975793
-0.000578488
-0.000374657
0.00618683
0.000483241
-0.00696689
-0.00810442
-0.00647236
-0.0100079
0.000354032
0.00502364
0.00754957
-6.88358e-05
0.00010958
4.71026e-05
2.96733e-05
5.86751e-05
0.000106724
-0.00896161
0.00801067
-0.0101456
0.000104481
0.00027884
0.000181536
0.000151797
3.06076e-05
-4.8742e-06
0.00688675
3.46331e-05
-1.78041e-06
0.0111863
0.000218134
-5.96992e-06
0.000361844
0.0004809
-7.6674e-05
1.10892e-05
3.21796e-05
1.48264e-05
2.15832e-05
-1.81753e-05
2.74791e-05
2.07785e-05
3.1229e-05
5.41198e-07
2.2116e-05
1.93766e-05
5.02305e-06
-4.3982e-07
5.04272e-07
-1.33882e-06
6.83136e-06
0.000246381
0.00042585
0.000240922
0.000191408
0.000192874
0.000213889
9.17695e-05
9.17428e-05
3.34734e-05
5.44141e-05
0.000216203
0.000122045
0.000347494
0.000343676
0.000538359
0.000544526
0.000616895
0.000706018
0.00070591
0.000926826
0.000674447
-0.00888299
0.0102586
0.00103208
-0.0133502
0.000971101
0.000728389
-0.00203701
-0.00285158
-0.0212396
-0.0227386
-0.0381631
0.00968034
0.0031099
0.0176112
-0.00642197
0.0104243
-0.00114408
-0.0116928
0.0106299
-0.000237496
0.00713057
-0.000261218
0.00999055
-0.0109691
-0.000884481
-0.000272895
-0.000323577
0.000137398
-0.00113162
0.00740109
-0.000308391
0.000448853
0.000225983
0.000107603
0.000135038
5.78539e-05
5.20531e-05
-0.000196389
-0.000196421
-0.000178733
-5.96547e-06
0.000444145
4.38348e-05
-7.55733e-05
-8.61814e-05
0.00378659
-0.00501723
6.36422e-05
-0.0104451
2.18703e-06
0.0132078
-0.0114192
2.31809e-05
-0.0141692
2.7715e-05
0.0140227
-2.46026e-06
8.06282e-06
1.34336e-05
2.89168e-05
8.06421e-05
0.000660093
0.000124567
3.84776e-05
1.53065e-05
4.06189e-06
4.50144e-06
4.82505e-06
2.6707e-06
1.27365e-06
0.000740438
1.57198e-06
0.00107566
3.71908e-07
0.000497083
0.000338341
5.46919e-07
0.000245687
0.000123261
3.20845e-06
2.31426e-07
-3.69368e-07
3.89156e-06
1.61414e-06
0.00153817
4.60151e-05
-0.000147274
0.00131537
-0.000106335
8.0332e-05
-0.000245897
0.00209028
-0.000163329
-0.00031058
-0.00359016
-0.000173104
0.00448296
-0.000380927
-0.000230583
0.000227638
0.000138783
1.07165e-05
0.00299645
8.5713e-06
0.00299838
2.37197e-05
3.49685e-05
0.00542866
1.8072e-05
0.00715322
3.82405e-05
9.74649e-05
0.00913473
-0.000609517
0.0063767
-0.000428525
-0.000583025
-0.00963738
3.99965e-05
0.00987743
-0.00118236
0.000292388
-0.000145911
-0.00200541
-0.00542825
-9.95394e-05
-0.000853811
-0.000356531
0.000218139
0.000217666
0.0142063
4.03723e-05
-4.1109e-06
-5.07566e-05
-7.69918e-05
-0.000322986
-1.15509e-05
4.50316e-05
3.3986e-05
0.0115691
0.00906986
-8.54843e-06
-1.14442e-06
-3.36148e-05
-9.11469e-05
-0.000127498
-0.000567517
-0.000188641
-0.000169119
-7.53713e-05
-2.42595e-05
0.00924042
-2.15229e-05
6.35599e-06
1.13416e-05
0.000190475
0.000105533
4.96624e-05
-1.02053e-05
2.47339e-07
0.000310791
0.000470166
0.000704016
-5.29882e-05
0.000299085
0.00023721
-0.000463572
0.00227452
0.00524256
-0.00353621
0.0228167
0.00234491
0.00154828
0.000734341
0.00130759
0.0012899
0.00095562
0.000621485
0.000377926
0.000209497
0.000212194
6.71077e-05
-3.12587e-05
-3.14472e-05
-0.000190277
-9.18818e-05
-0.000197635
-9.82248e-05
6.90421e-05
0.000213508
-9.6375e-05
-6.77356e-05
0.000786169
0.000949108
8.19024e-05
3.96064e-06
6.23448e-06
4.68163e-06
6.05741e-06
7.49638e-06
1.59907e-05
-9.53119e-07
7.9787e-05
0.000293947
2.88367e-05
3.99546e-05
7.6959e-06
1.70449e-06
9.69721e-06
9.10847e-06
1.24626e-05
1.39977e-05
-5.10904e-06
0.000149191
0.000242012
0.000249948
0.000367808
-6.06772e-05
-0.000570439
-0.00757514
0.00050876
-0.00737011
0.00892496
0.000788658
-0.0116108
-0.0120095
0.00917895
0.00859295
0.00071486
-0.0109413
-0.0128629
0.00984477
-0.000578185
0.00821304
0.012247
-2.59016e-05
9.48591e-05
-0.000872195
0.00167364
0.00231941
0.00289375
0.00512038
0.0055535
0.0126616
0.0296295
0.00403222
0.0155508
0.0230613
-0.00217102
-0.00128592
0.00157399
0.00137397
-0.000789252
-0.000524612
0.00539254
0.00578329
0.00565134
0.00548005
0.000499751
-0.00791458
-0.00719577
-0.000577916
0.00873357
0.000786704
-0.0124725
-0.011446
-0.000858535
0.0126702
0.0135104
0.0119906
-0.000839784
-0.000142003
-0.000208637
-1.2977e-05
1.992e-05
8.74743e-05
1.9675e-05
1.99132e-05
-2.76765e-05
-1.08723e-05
-0.000208805
0.00211886
-0.000240545
-0.000144542
-0.000321309
-0.000297144
-0.000186138
-0.000314444
-0.00014319
0.00559189
-0.00017771
9.63885e-05
2.49911e-05
1.00843e-05
0.000209448
0.000182456
-0.00260321
0.0128432
-0.00688373
-0.0239028
-0.0275322
0.00244564
-0.0132143
0.00564254
0.00184034
-0.0082006
-0.00917753
-0.000886882
-0.00130062
0.00851204
0.00790643
-0.000806252
-0.00777414
-0.000172346
0.00769259
-2.02865e-05
7.59748e-05
-2.2195e-06
7.27217e-05
0.000276751
0.000287293
0.000182686
4.33417e-05
2.92613e-05
-4.96125e-05
-4.75183e-05
3.79773e-06
-7.06929e-05
-2.28826e-05
-5.97161e-06
0.000356855
0.000485079
0.000488682
-0.000192284
0.000611326
0.000519003
-0.000200318
0.0187604
-0.00105017
0.00128295
-0.0208031
0.000535999
0.000267072
0.00301633
0.000361562
0.000590308
0.00190769
-0.000160735
-2.47641e-05
-0.000130872