/*--------------------------------*- C++ -*----------------------------------*\
| =========                 |                                                 |
| \\      /  F ield         | OpenFOAM: The Open Source CFD Toolbox           |
|  \\    /   O peration     | Version:  2306                                  |
|   \\  /    A nd           | Website:  www.openfoam.com                      |
|    \\/     M anipulation  |                                                 |
\*---------------------------------------------------------------------------*/
FoamFile
{
    version     2.0;
    format      ascii;
    arch        "LSB;label=32;scalar=64";
    class       volScalarField;
    location    "1.2";
    object      gradTy;
}
// * * * * * * * * * * * * * * * * * * * * * * * * * * * * * * * * * * * * * //

dimensions      [0 -1 0 1 0 0 0];

internalField   nonuniform List<scalar> 
5322
(
0.649382
0.0611489
-0.00421368
-0.0269597
-0.0148094
-0.00510228
2.32957e-05
0.00495119
0.0141471
0.0256585
0.000269049
-0.190443
-0.211645
-0.189967
-0.164911
0.356915
0.477403
-0.00075477
0.329705
-0.39096
0.371907
-0.377962
0.370875
-0.379774
0.378604
-0.371659
0.371469
-0.379519
0.378666
-0.374362
0.376914
-0.377276
0.389824
-0.335206
0.321728
-0.160995
0.316362
0.397022
0.198329
0.214801
0.293018
0.244742
0.25341
0.273512
0.260766
0.258279
0.264924
0.283027
0.262325
0.250435
0.31419
0.152026
0.17024
-0.560858
-0.0305795
-0.324509
0.170632
-0.425556
-0.024193
-0.369852
0.173259
-0.418494
-0.0215994
-0.367107
0.173957
-0.433078
-0.0278327
-0.355046
0.17558
-0.47649
0.0167491
0.418308
0.232993
0.325508
0.243139
0.307949
0.25696
0.306594
0.260333
0.360196
0.0327614
0.121253
0.183213
0.304867
-0.0259133
-0.127257
0.0362657
0.0713012
0.132236
0.0151968
0.0346164
0.00639285
0.00100635
0.00118168
0.443114
-0.236707
0.00713363
0.238651
0.00648246
-0.00627868
0.0326256
0.00638211
0.2527
-0.432017
0.386597
0.00523076
-0.00740185
-0.00137727
-0.00022456
0.000416632
0.000472746
0.000577345
0.00131063
0.00262602
-0.00445671
0.00116679
0.135742
-0.0558332
-0.0191885
-0.104768
0.128853
-0.0717108
-0.13974
-0.191155
-0.216013
-0.0087045
0.158328
-0.119477
0.0111933
0.130483
-0.129966
0.00547463
0.135643
-0.139081
-0.00439123
0.126682
-0.15196
-0.0120955
-0.0350723
0.232651
0.192745
-0.126319
0.0837564
0.0651046
-0.13316
0.0143558
-0.130468
0.102344
0.105178
-0.115972
-0.00175215
-0.108219
0.108618
0.117243
-0.105329
-0.000355485
-0.100676
0.127803
-0.00833819
-0.00630716
0.401646
-0.314793
0.348117
-0.369747
0.0124909
-0.238557
-0.00510581
-0.00217162
-0.0446432
0.11523
-0.230564
0.229392
-0.385099
0.000877408
0.393335
-0.388637
0.404617
-0.413586
0.00171896
0.407447
-0.417549
0.433075
-0.431897
0.00160644
0.422306
-0.425363
0.439073
-0.437452
0.000985945
0.427263
-0.428558
0.441487
-0.439858
0.000831531
0.429754
-0.431406
0.444305
-0.441205
0.0010824
0.431169
-0.434703
0.447903
-0.440812
0.00142738
0.430167
-0.436647
0.449795
-0.432445
0.00183738
0.420056
-0.432831
0.436444
-0.236676
-0.00106458
-0.0175017
0.00729661
-0.00704225
-0.000432442
0.00277208
0.00367764
1.85233e-05
0.444077
-0.235592
0.00199021
0.280876
-0.0381854
-0.0112622
0.00931354
-0.0138367
0.237947
-0.437299
0.00254089
0.00194916
0.00547455
0.00353938
0.00188837
0.000849056
6.01066e-05
-0.00115786
-0.00292002
0.00434664
-0.00156153
-0.109272
-0.116387
-0.11644
-0.109526
0.0223785
0.0385609
0.0243111
-0.147144
0.077178
-0.156036
0.038651
0.0224232
0.0243579
-0.154206
0.0537
0.147551
0.0952509
-0.147088
0.0773369
0.160174
0.223655
0.236221
-0.386945
-0.386067
-0.415505
0.301478
-0.374073
0.343392
-0.36779
0.355886
-0.366678
0.360621
-0.368788
0.361953
-0.374607
0.360879
-0.384025
0.357684
-0.39314
0.350716
-0.0771383
0.166735
-0.0528391
-0.0090613
0.303635
-0.362039
0.0036091
0.324341
-0.362712
0.00168117
0.334696
-0.355824
0.000802414
0.339208
-0.349721
0.000225533
0.338911
-0.346919
-0.000757852
0.332804
-0.347429
-0.00253929
0.315532
-0.353179
0.00828974
0.264168
-0.0243914
0.263937
-0.353751
0.00830534
0.303054
-0.413114
0.165794
0.274135
0.204899
0.191779
-0.364447
0.239125
-0.34028
0.301035
-0.333624
0.319853
-0.332944
0.326146
-0.335946
0.327096
-0.34341
0.325097
-0.352363
0.320069
-0.349562
0.305635
-0.0503268
0.120687
-0.137841
-0.0024816
0.418983
-0.512154
0.00893064
0.45961
-0.499717
0.00451977
0.467434
-0.481304
0.00178678
0.467034
-0.471697
0.00047406
0.466415
-0.468532
-0.000864222
0.465198
-0.468083
-0.00189333
0.457124
-0.471904
0.0105508
0.406303
-0.469712
0.164814
0.38291
0.340271
-0.170852
0.324444
-0.0770118
0.0611342
0.388744
-0.336436
0.313943
-0.295616
0.473518
-0.416899
-0.00329669
-0.466488
0.397905
-0.406998
0.0119608
0.428511
0.0191346
0.0083022
-0.121257
0.0118924
-0.00973545
0.00636435
-0.00232192
-0.000828866
0.391767
-0.392529
0.392867
-0.408487
6.69348e-05
0.421543
-0.424383
0.42942
-0.429494
0.000300347
0.433013
-0.431638
0.436606
-0.432361
0.000356214
0.440716
-0.430488
0.442575
-0.420277
-0.000681033
0.00057462
0.0009501
0.00316785
0.00177893
0.00115524
0.444684
-0.429859
0.00227171
0.508359
-0.502579
0.450205
-0.416029
0.004367
0.505347
-0.480697
0.306374
-0.213284
-0.341067
-0.0231931
-0.0052076
-0.123278
-0.031683
0.00951953
0.226516
0.295543
0.023544
-0.480964
0.36519
0.00360872
-0.407272
0.37204
-0.000830518
-0.382703
0.37638
0.00014887
-0.369244
0.374685
-0.00265613
-0.368622
0.388958
-0.00666752
-0.351299
0.396942
-0.0249595
-0.313282
0.101668
0.152873
-0.188551
0.00158696
0.308045
-0.262274
0.307807
-0.301025
0.305789
-0.302701
0.492525
-0.431714
-0.00101693
-0.493502
0.430057
-0.42862
-0.00257126
0.487714
-1.5867e-05
-0.00110328
-0.000718359
-0.0282498
0.00633104
0.0394107
0.0428282
0.0174417
0.00748617
0.0246798
0.0174759
-0.0224884
0.364202
0.116757
0.0253895
0.0871702
0.0185989
0.0055689
0.00388527
0.00132374
0.000757874
0.00100365
0.000959241
-0.276898
0.000279975
0.282698
-0.279637
0.3053
-0.303842
0.308662
-0.304796
0.501138
-0.433158
0.00080983
-0.497009
0.438456
-0.433048
-5.38187e-05
0.495968
0.00097714
0.000983716
-0.000126621
-0.00284477
-0.00151029
0.00422448
0.00306305
0.000460858
0.0132867
0.00952868
0.288612
0.0013924
-0.0132704
-0.00109092
-0.0193928
0.00245376
0.191637
0.365914
0.672598
0.0704726
-0.0102115
-0.00472004
-0.0182211
-0.371706
0.00160904
0.345974
0.314887
-0.347607
-0.00251849
-0.366437
0.00268281
0.358109
0.332258
-0.346744
-0.000720001
-0.366662
0.00231247
0.36163
0.338897
-0.349406
0.000287727
-0.370206
0.00622213
0.361053
0.340271
-0.355739
0.000928074
-0.377984
0.0175956
0.355752
0.33826
-0.364126
0.00189415
-0.388783
0.0429724
0.342882
0.333358
-0.368562
0.00393862
-0.393096
0.0960851
0.321357
0.321336
-0.0617757
-0.00880414
-0.0715514
0.84704
-0.378642
-0.38665
0.625848
0.162728
0.0675028
-0.583528
-0.120386
-0.0704779
0.299516
-0.312681
-0.00545838
0.0065681
-0.0392653
-0.0472087
-0.00489131
0.0125282
0.00725752
0.00289641
-0.00389184
0.00169083
0.00278893
0.000823556
9.94275e-05
-0.000734304
-0.00254275
-0.00489141
-0.0169744
-0.00909065
0.236844
-0.236939
0.00285264
0.00153038
-0.240662
0.237127
-0.000560209
0.000986151
-0.00107167
-0.0179614
-0.0113819
0.0430006
0.00466206
0.0494833
-0.0175508
-0.0215198
2.51371e-05
0.0792642
-0.0921361
0.0925066
-0.0789687
-0.0799422
-0.0683406
0.00254834
0.0917341
0.0825532
-0.0824035
-0.00245434
-0.092428
-3.66992e-06
1.49439e-05
0.00587238
0.0166488
0.0149027
-0.0330467
0.00063614
0.000148577
0.000946691
0.00276466
0.00676883
0.00291502
0.0238846
-0.0189585
-0.00219944
0.0134749
0.298025
-0.272184
0.314193
-0.3098
0.317973
-0.00766811
-0.281986
0.00810064
0.315667
-0.00119016
-0.0138846
0.00285256
0.00196927
0.00392052
0.00464255
-0.00334134
-0.0469426
0.1609
-0.0718111
-0.308358
-0.0391352
-0.0372674
-0.608251
-0.167702
0.0213918
-0.245441
0.181443
0.00834876
0.0102657
0.21963
0.184238
0.025809
-0.0206023
0.244285
0.219538
0.0278205
-0.0248289
0.22167
0.250362
0.0259318
-0.0572241
0.183876
0.255652
-0.08859
0.133397
-0.116281
0.124299
-0.490765
-0.266536
0.0481543
-0.121122
0.263669
-0.0158975
-0.432178
0.228172
-0.00454751
-0.270943
-0.267855
-0.389391
0.163635
-0.21407
-0.137122
0.238056
-0.493327
-0.0554382
0.346804
-0.426525
-0.011042
0.370996
-0.39005
0.000751828
0.373443
-0.37553
0.0018419
0.371324
-0.371383
0.00203682
0.370719
-0.370178
0.00565221
0.372386
-0.367577
0.0227374
0.383909
-0.329224
0.0926127
0.319312
-0.178287
0.338771
0.382613
-0.474482
0.404977
-0.476354
0.0109776
0.238353
-0.364621
0.16463
0.190855
0.206631
0.274111
0.235749
0.165674
0.319204
0.190105
-0.00161361
-0.0277704
-0.0156379
-0.00985119
-0.0060358
-0.0116696
-0.00621285
0.00162642
0.0060731
0.284255
-0.275684
-2.37097e-05
0.00045596
5.77941e-05
3.11109e-05
-0.494617
0.433969
0.000202348
0.434835
-0.43728
0.000462391
0.438065
-0.439813
0.00110697
0.44031
-0.442645
0.00197274
0.44035
-0.443171
0.00251274
0.429926
0.00276436
0.00532943
0.00082665
2.62558e-06
-0.00125523
-5.78315e-05
0.000376413
0.000411265
0.000360128
0.000234907
0.00017975
0.00023047
0.00224686
0.00637416
-0.230698
0.00343388
0.0114205
-0.000601792
0.000403525
0.000612175
0.000392231
-4.30634e-05
-0.000783722
-0.00195392
-0.00285108
0.0104174
-0.00295538
-0.00782108
-0.01023
0.204241
-0.21798
0.276204
0.000398725
-0.0371857
0.0310678
0.102498
0.000581226
-0.0910886
0.0857403
0.0879095
0.00032729
-0.0974389
0.0914657
0.0785047
2.05993e-05
-0.122391
0.116421
0.108814
-0.00207002
0.135695
-0.14288
0.139328
-0.150082
-0.0138554
-0.0828526
0.120374
-0.00989702
-0.11446
-0.00242936
-0.000759554
0.410859
-0.00142762
-0.413269
0.239091
-0.00831856
-0.247255
0.247715
-0.00537898
-0.259623
0.416269
-0.00391328
-0.416073
0.408187
-0.406263
0.403966
-0.413738
0.000943618
-0.412365
0.406872
-0.000830463
-0.247402
-0.00905746
0.249568
-0.212283
0.00194548
0.373514
0.133278
0.393234
0.143769
-0.202993
0.310167
0.0286435
-0.271333
0.29302
0.00595299
-0.283436
0.286438
0.00140125
-0.28281
0.285413
0.000257051
-0.28522
0.282896
-0.00130734
-0.28492
0.283068
-0.00678914
-0.291194
0.268843
-0.0307974
-0.308235
0.201444
-0.146579
-0.390901
-0.118366
-0.366029
0.239231
0.0223948
0.0119569
0.152883
0.0357716
-0.235403
-0.193981
-0.0539369
-0.150063
-0.0972911
-0.0759964
-0.166211
-0.0830427
-0.0882339
-0.165099
-0.241769
-0.250519
-0.165461
0.411132
0.0226734
-0.241963
-0.00851183
0.331785
0.39037
-0.00438684
-0.287942
0.00187471
0.321911
0.477577
0.00453423
-0.470588
0.000345555
0.475445
0.00111007
-0.472971
0.00130081
0.474416
0.00062164
-0.474931
-0.000979975
0.47358
0.000504453
-0.477161
-0.000149267
0.47219
-0.00100199
-0.480694
-0.0041276
0.464916
-0.00685479
-0.486413
-0.0170502
0.00216963
-0.298987
0.48572
0.00305057
0.311876
9.54861e-07
-0.303322
0.496064
-0.000160456
0.307188
6.8264e-05
-0.305247
0.498294
-0.000127617
0.306113
-0.000252037
-0.304654
0.498678
0.000100257
0.304663
0.000461749
-0.30546
0.498681
0.000328031
0.304714
0.000120401
-0.305661
0.498405
0.000545091
0.302238
0.00052122
-0.30891
0.495119
-0.00135561
0.298951
8.62854e-05
-0.31558
0.472143
-0.0186459
0.338734
-0.0605769
0.0778502
-0.384521
-0.339095
0.176922
-0.323356
-0.0948579
-0.0655168
-0.676099
-0.368037
-0.322955
-0.229461
-0.165903
0.368392
0.426116
0.0309322
-0.229241
-0.010866
0.482383
0.0143158
-0.461614
0.00546117
0.00345319
0.0073331
0.0185965
-0.317911
-0.015349
0.154856
-0.022787
-0.0219471
-0.0417356
0.148056
-0.0489546
0.0201662
0.0177194
0.000465359
0.00133475
0.00121823
0.000712399
0.000607694
0.000185461
-0.00240201
-0.00174703
0.422445
-0.489703
0.00186948
-0.00254044
-0.00475853
-0.00035071
-0.402635
-0.000412101
0.410413
-0.428908
-0.000424135
0.428585
-0.434873
-2.46143e-05
-0.000129345
-0.00105547
-0.000507998
-4.32247e-05
0.000744663
0.000673577
0.000592913
0.000383263
0.000250467
0.00015432
0.00119266
0.00186182
0.000733113
0.407253
-0.410162
0.372749
-0.375088
0.37631
-0.375839
0.0021005
-0.196533
7.47162e-05
0.185362
0.00668328
-0.20729
-0.000729987
0.157495
-0.0160813
-0.0129633
0.0589689
0.00270179
-0.0636901
0.469757
-0.00636515
-0.295088
0.00109865
0.302291
0.39358
-0.00277755
-0.310782
0.000360224
0.315171
0.381227
0.000109227
-0.315
-8.42554e-05
0.312685
0.38247
0.00254085
-0.318729
-0.000678554
0.306877
-0.322367
-0.00119055
0.289467
-0.330175
0.0129548
-0.00939921
-0.00240272
-0.000913035
-2.76296e-05
0.000259005
0.000533311
0.00142826
0.0029818
-0.00442715
0.00134976
0.10942
0.115255
0.116636
-0.0347084
0.1577
-0.0165307
-0.0171658
0.161985
-0.0306479
0.147703
-0.047668
0.00582138
-0.0131427
0.0126646
-0.00316721
0.00286356
-0.00232483
-0.387552
0.0102031
0.0114401
0.00243929
0.00013982
-4.23933e-05
-0.082265
0.0815931
0.00256759
-0.069398
0.106427
-0.0216833
0.00914417
-0.00371221
-0.00422132
-0.0206731
0.15349
-0.381721
0.0230535
-0.256336
-0.0105254
0.324719
0.398695
-0.00936234
-0.293288
0.00256176
0.384162
-0.00701148
-0.304042
0.00116202
0.318314
0.385327
-0.00170316
-0.312713
0.000392256
0.316132
-0.316109
-0.000193045
0.313311
0.000638459
0.000253346
-9.04654e-05
-0.000360189
-0.00126635
0.00935277
-0.00617291
-0.000280928
0.00252259
3.7891e-05
-0.00234919
-0.0110475
-0.00931161
-0.00254021
-0.00252486
0.00233208
0.00657722
0.00124344
0.00579131
0.00157369
0.00372828
-0.00854532
-0.0120646
-0.0256806
-0.0284493
-0.060771
-0.0510183
-0.0308097
-0.118166
-0.367561
0.0317256
-0.568058
-0.41745
-0.29943
-0.199033
-0.179614
0.071123
-0.161415
-0.0157647
0.0378669
0.00148912
-0.00620528
0.193714
-0.228926
0.281381
0.00267108
-0.0329718
0.0523447
0.119512
0.00506138
-0.0813272
0.111724
0.111982
0.00551334
-0.0872183
0.11552
0.104787
0.00417436
-0.116627
0.130463
-0.00621713
0.00371852
0.0186266
0.0798894
-0.342823
-0.497329
0.00551741
0.465212
0.0133014
0.00982112
0.300735
0.0018189
-0.493446
0.499798
-0.000745629
-0.472679
0.27782
-0.318708
0.283989
-0.0313037
-0.29697
0.0160805
-0.330679
0.460907
-0.403743
0.419521
-0.00142279
-0.420528
0.000773168
0.416795
-0.00124767
-0.418463
0.000244077
0.420336
-0.00122574
-0.422099
0.410564
-0.472632
0.0272079
-0.327677
0.448443
0.0208476
0.010801
-0.123513
0.133998
-0.138282
2.72882e-05
-0.115436
0.106033
0.00753404
-0.131835
0.0938314
-0.107129
0.00484981
0.19195
-0.11576
0.0710099
0.0176821
-0.136347
0.107223
-0.00212723
-0.00232849
-7.16895e-05
0.0045223
0.00281175
0.0014546
0.000643762
1.83358e-06
-0.00112454
-0.00284869
0.00437945
-0.00135663
0.0686078
0.0789393
0.000146096
-0.0187026
-0.0115626
0.148725
0.0538862
-0.12622
0.0649092
0.083873
-0.132128
0.00431308
-0.152985
-0.0118781
-0.0356703
-0.123569
0.193738
0.235644
0.0123064
0.0432321
-0.0105063
0.0059083
0.103356
-0.111067
-0.00134286
-0.116508
0.116179
0.111062
-0.103312
-0.000710734
-0.140955
-6.9496e-05
0.140908
3.1052e-05
7.10818e-05
-0.00256242
0.00841582
0.00373472
0.0629629
0.671975
0.365541
0.188088
-0.00155211
-0.0247708
-0.0139646
-0.00777506
-0.0105058
-0.0224818
-0.0471351
-0.0515093
-0.104733
-0.116011
-0.246767
-0.416599
-0.370923
-0.374146
0.158933
-0.249566
-0.0969446
-0.105101
-0.323915
-0.426154
-0.378369
-0.377934
-0.383118
-0.376753
-0.42717
0.161174
-0.045691
-0.133744
0.511081
-0.160128
-0.306346
-0.299014
-0.0782666
-0.0971114
-0.22648
-0.238002
-0.0624542
-0.0962265
-0.0233802
-0.00756154
-0.00124993
0.000110077
0.000303736
-0.000705551
-0.00437549
-0.00513489
-0.0191174
-0.00802643
-0.00300477
-0.00572103
-0.00363522
-0.00497791
-0.0119757
-0.0304834
-0.0125505
-0.0122361
-0.0142191
-0.00671652
-0.00181954
-8.14285e-05
-0.000268943
-0.00117887
-0.00117077
-0.00359181
0.300214
0.453517
-0.47004
0.461969
-0.468494
-0.000598065
0.318817
-0.334125
-0.00152175
-0.00284911
0.00149059
0.00520187
-0.340815
0.015669
-0.15526
0.0957943
-0.0298305
-0.0092709
-0.0110095
0.01418
-0.133377
0.104774
-0.000785337
-0.000377792
-0.000386293
8.74599e-05
0.0683374
-0.00234759
0.000293818
0.000289858
-0.000198422
-0.0432022
0.00022075
0.0179049
0.0111059
0.0146646
-0.0121916
0.0102422
-0.000165609
0.00106197
-0.0430842
0.133102
0.13214
-0.0835709
-0.0140864
-0.0661802
0.126983
0.0111472
0.00245947
5.44844e-05
6.74545e-06
-0.00252366
-0.0023007
-0.00236778
-0.000477548
-0.0103097
-0.000874791
-0.00235095
0.000774475
0.00528384
0.00118578
0.00341433
-0.333
0.32501
0.464403
-0.469993
0.465769
-0.475745
0.00123384
0.325688
-0.335111
0.000322182
4.96214e-05
7.64895e-05
0.000541257
0.0012401
0.00302976
0.00250185
0.00556846
0.00305705
0.00649998
0.00667772
0.0160727
0.0136949
0.0145312
0.00644518
0.086016
0.00118273
0.00206464
0.000975239
0.000223667
-0.000764353
-0.00275229
-0.00305878
-0.0011697
-0.00109781
-0.000709467
-0.000157393
0.000110195
0.000249611
0.000394562
0.000348315
0.00020737
-0.00103062
0.00139017
0.00131476
3.32154e-05
0.000156295
0.000283963
0.000455146
0.000805291
0.000928143
0.000862227
0.00173823
0.00205002
0.00148297
0.00331535
0.00435766
0.00359245
0.0225878
-0.0288043
-0.0410414
-0.00797289
0.00449902
0.00599076
0.00610623
-0.100944
-0.00170444
-0.000977567
-0.00149842
-0.00982861
-0.00382091
0.21388
-0.00279515
-0.284813
-0.00206593
-0.0128995
-0.263756
-0.0114582
-0.0155729
-0.165575
-0.0737003
-0.126793
-0.315361
0.0306038
0.0804037
0.0054205
-0.00423747
-0.00356821
-0.00662454
0.00185306
-0.191497
0.272725
0.00192443
-0.0600373
0.0265051
0.0944877
0.000448178
-0.117775
0.0748153
0.075889
-0.000549995
-0.121862
0.0801223
0.0668061
-0.00130089
-0.111676
0.0253255
-0.151208
0.0668487
0.105955
-0.146931
0.0443894
0.0218407
-0.00890647
-0.00198368
-0.000703951
0.000164768
0.000331566
0.000497248
0.00132462
0.00246435
0.00310615
0.00293163
0.00432664
0.416622
-0.416527
0.00181554
0.41891
-0.41915
0.376857
-0.377258
0.377873
-0.379613
0.00138553
-0.19792
-0.000982292
0.192896
0.00138309
-0.195541
-0.000199414
0.192239
-0.00113052
-0.000766731
0.0622025
0.00119223
-0.0617279
0.46689
-0.000209061
-0.298977
3.41609e-05
0.302107
0.390186
0.00188927
-0.315281
-0.000681537
0.372538
0.00713421
-0.321423
-0.00241581
0.288943
0.366844
0.00633886
-0.396249
0.00923218
-0.329331
-0.392396
0.00849729
0.356499
0.296514
-0.323698
0.0101305
-0.00876183
0.00311046
0.00162639
0.000928525
0.000214599
-0.000574339
-0.00158829
-0.000769768
-4.82377e-05
0.000660232
0.000404773
0.000587759
0.000246595
0.420249
-0.421747
0.00173941
0.421446
-0.425531
0.380598
-0.381521
0.386697
-0.374256
-0.0144722
-0.197138
-0.00619882
0.199961
-0.00129498
-0.202776
-0.00269284
0.194105
-0.00254781
0.00220687
0.0696944
0.0050262
-0.0554653
0.465003
0.00202919
-0.294618
-0.00241632
0.301873
0.364124
0.00568926
-0.406679
0.0107752
-0.288763
-0.515684
-0.00216676
0.445497
-0.0299411
0.168114
0.00126405
0.121684
0.0766959
0.0448031
0.0288032
0.22771
-0.144258
-0.012994
0.00607585
0.000214898
-0.000433409
-0.00012045
-2.28583e-05
-0.00082237
-0.00505412
0.00162642
0.274652
-0.197043
-0.318879
-0.072845
0.060591
-0.156567
0.501885
-0.231423
-0.282777
-0.273644
-0.160024
0.377043
0.416887
0.0217599
-0.258051
-0.00936627
0.386098
-0.00828294
-0.287759
0.00276337
0.322544
0.386845
-0.00477392
-0.305836
0.000956236
0.318322
0.00162244
0.00188189
-0.376356
0.00577136
-0.362785
0.0335946
0.0343672
0.00108674
-0.202106
-0.338437
-0.236194
-0.166885
-0.351912
-0.124514
-0.0632206
0.0369067
0.0104958
0.476693
-0.00739053
-0.288037
0.00210628
0.306543
0.395223
-0.00735206
-0.305183
0.00113507
0.382756
-0.00262283
-0.311378
0.000338804
0.315681
0.384114
0.000311581
-0.384507
-0.000434783
0.000302757
-0.381708
0.00700102
0.00715492
0.0191994
0.00572965
-0.355921
0.0161059
-0.287713
0.00109923
-0.0527886
-0.0822182
-0.0222482
0.022522
-0.00914057
-0.439648
-0.00113482
-0.00305746
0.0621072
0.00122319
0.467643
-0.00235331
-0.297775
0.000405812
0.301201
0.392268
-0.000192258
-0.313504
3.55976e-05
0.378778
0.00276271
-0.317796
-0.000888288
0.305795
0.37837
0.00610687
-0.39052
0.00106069
-0.000607018
6.42949e-05
0.000297935
0.000336448
0.000242758
0.000152056
7.9607e-05
-0.00117337
-0.00305887
-0.0007265
-0.000807672
-0.00102168
-0.00011989
0.000427492
0.000662227
0.000832943
0.000197094
0.000314524
-0.00018784
-0.000227019
-0.00109149
-0.000552502
0.42687
-1.75323e-05
-0.426713
0.429291
3.72368e-05
-0.433814
0.434025
-0.428768
0.432939
-0.000638723
-0.439916
0.432997
-0.430442
0.426407
-0.00190834
-0.434683
0.414854
-0.4134
0.41379
-0.415042
0.00186184
-0.426719
0.435365
0.000987314
-0.433151
0.000732957
-0.433396
0.440777
0.000591094
-0.438984
0.000265958
-0.435387
0.441921
-0.435705
0.436028
0.000110092
0.434308
-0.433698
-0.000160492
0.438848
-4.16901e-05
-0.441029
0.435073
-0.433564
-0.000942412
-0.495758
0.305485
-0.000449789
0.490366
-0.00234477
-0.492768
0.30843
0.00129627
0.477331
-0.419082
0.40201
-0.00146229
-0.408914
-0.000479044
0.398906
4.25795e-05
-0.398804
0.000895143
0.40923
0.00148772
-0.402113
0.420119
-0.478635
0.00338899
0.00506183
0.00461589
0.0170138
0.011598
-0.239922
0.247443
-0.243806
0.243753
-7.37886e-05
-0.000720688
-0.000683272
-0.247421
0.239761
-0.0117293
-0.00675795
0.128218
-0.143202
0.000504962
-0.000934737
0.39815
-0.403084
0.403316
-0.39835
0.411693
-0.433443
-0.0117984
-0.0045189
-0.128217
0.00673375
0.143136
-0.00590936
0.00262832
0.0025297
7.43881e-05
0.000131117
0.00019146
0.000215792
0.000174232
-0.435654
7.06144e-05
-0.436217
0.436617
-0.441246
0.436205
0.000120755
0.441319
-0.434893
-0.000100641
-0.496085
0.304793
2.82734e-05
0.494476
-0.303817
-1.06451e-05
-0.277685
0.282802
0.0027598
-0.27877
0.283644
0.00379628
-0.278148
0.288238
0.00714866
-0.276538
0.295217
0.00613042
-0.280114
-0.00948196
-0.000155885
-0.00143685
0.00233323
0.000255902
0.00120146
-0.000223545
0.000317103
-0.000989104
0.00132669
0.0054189
0.287748
-0.301849
-0.000429785
-0.267258
0.303847
0.0296633
0.0121648
-0.000515338
0.0119731
-0.200996
-0.000285836
0.315493
0.0183982
-0.470797
-0.00301925
-0.00470098
0.0246502
0.016946
-0.0224228
-0.238889
0.365307
0.118613
0.388551
0.144413
0.0821853
0.0197412
0.0599751
-0.338661
0.432834
-0.410989
0.0117557
0.00196252
-0.0186468
-0.00497455
-0.0025862
0.00741093
0.001705
0.000700584
0.000830492
0.000641432
-0.496447
0.304894
-0.305169
0.496858
3.08409e-05
-0.000761729
-0.00225688
-0.000498025
-0.00064804
-9.1392e-06
0.000156989
0.000820429
0.000605287
-0.435256
3.3524e-05
-0.440317
0.436675
-0.496543
0.304751
0.00131842
0.499459
-0.307473
0.00295243
0.000296513
-0.00086506
-0.00168412
-0.00581878
-0.00428588
0.322211
0.466483
-0.487008
0.0400831
0.00703925
0.00328281
0.01173
0.00566069
0.013703
-0.340454
0.0119173
0.0326257
-0.346488
0.00282902
0.00150897
0.00107229
0.00197444
0.00302149
0.00412019
0.00189753
0.00123426
0.000710382
0.000531656
0.000414218
0.000609749
0.00080782
0.000569622
0.000444934
0.000582438
0.000728123
0.000605983
0.00105537
0.00109955
0.000578784
0.00129962
0.00107564
0.00152863
0.001136
6.86416e-05
-0.000916154
-0.000319
0.00214594
0.00402152
0.000336442
-0.0229211
0.00273569
0.000563811
0.000932796
0.00114407
0.001268
0.00105629
0.00225125
0.00139464
0.002634
0.00145898
0.421055
-0.429772
0.00216729
0.413546
0.00691831
0.00135582
0.00336988
0.0175913
-0.0678188
0.168479
-0.134353
0.283288
0.0413876
0.193412
-0.15577
0.12605
-0.135861
0.0860862
0.0981079
-0.14837
0.033945
-0.154687
0.0909664
0.0945108
0.185412
-0.00862783
-0.00234558
-0.0235964
-0.00114225
-0.107502
-0.00167388
-0.00075173
0.00065597
0.000885496
0.00167468
0.000989129
0.000654592
0.00085186
0.000646994
0.000163116
0.000589381
0.000345586
0.00241524
0.00116346
0.00050722
-0.46872
0.467004
0.00110829
-0.298562
-0.000796358
0.304408
0.383667
0.00513931
-0.317253
-0.00198931
-0.38761
0.00170389
0.00096539
0.000219936
0.000468224
0.000234538
0.00251463
0.000602656
0.000278612
0.000454588
0.000434308
0.000437718
-0.00055995
-0.00137116
-0.00307576
-0.349907
0.00620101
0.322369
0.0184329
0.334052
-0.295303
-0.322212
0.38017
-0.254817
-0.239948
-0.198818
0.00227521
0.0020679
0.0018778
-0.378482
0.0129485
-0.00154114
-0.0614792
-1.07936e-05
0.00509007
-0.000595528
-0.464141
7.63627e-05
-6.71795e-05
0.063094
0.00225792
-0.0612335
0.000350267
0.00302017
0.00112019
0.00184532
0.000318975
-0.387606
0.00037359
-0.377284
0.00144598
-0.0003437
-0.391879
-0.000328265
0.313446
-0.00290066
-0.00152858
-0.395274
0.00609937
-0.475915
0.0189259
0.0127694
0.0968257
0.0100908
-0.489455
0.0336566
0.00162543
0.00425162
0.0281482
0.186079
0.440614
0.228825
0.336499
-0.0165971
-0.00479364
-0.399724
-0.0111275
-0.022413
0.0108438
0.227024
0.327391
-0.0172921
-0.00567388
-0.00179175
0.309275
-0.384114
-0.00550408
0.000602257
-0.0172497
-0.0312715
0.000875621
0.209644
0.329728
-0.0182353
-0.00604333
-0.00207464
-0.387065
-0.00207214
-0.000373148
3.57117e-05
0.00193299
0.00474329
0.00147951
-0.0255359
-0.00724043
-0.000144521
-0.00244267
-0.00614892
-0.0041276
-0.00699882
-0.00103522
0.191437
0.369177
-0.0689699
0.0596525
0.0266023
0.03298
0.00915714
-0.00211636
-0.000802703
-0.000181016
0.000101736
0.000292072
0.00076605
0.00238948
-0.000126392
-0.00015573
-0.00104555
0.00155439
0.000872109
0.000966506
-0.00187446
-0.0182737
-0.0254057
-0.00769938
0.00268875
0.00272017
-0.492253
0.431713
0.00129991
0.00135521
0.00135731
0.00259976
0.00322741
0.0030713
0.000650279
-0.00836731
0.122811
-0.411143
0.0209171
0.00118132
0.00108688
0.000613632
0.000594705
0.00107532
0.000389793
0.000363468
0.000330865
0.000526543
0.000184277
0.000241145
0.000235231
0.00090017
0.000893076
0.435842
-0.000162144
-0.435529
0.436062
-0.000649611
-0.432053
0.43176
-0.435588
0.442177
-0.000440641
-0.436205
0.434637
-0.433908
0.00165894
0.502456
-0.312263
0.00588037
0.00257707
0.00209387
0.00122383
3.90721e-06
-0.0104012
-0.017681
-0.0356743
-0.0839915
0.0045204
-0.0360898
-0.0119392
-0.00354909
0.00484866
0.0041305
-0.000484354
4.41244e-05
0.00096365
0.000498841
0.442461
-0.436299
0.436962
-0.442306
-0.00014698
-0.435827
0.440916
-1.0751e-05
-0.442375
-0.000639306
-0.433525
0.436467
-0.000250869
-0.438348
0.431373
-0.497321
-0.00159144
-0.00240148
-0.00102308
0.000308817
0.00058589
0.00221413
0.00513057
0.0212776
0.085615
-0.0267549
0.85509
-0.0204663
-0.00447837
-0.0156271
-0.150055
0.0304081
0.0859498
0.00747494
-0.00124018
-0.0838769
-0.00137113
0.00256702
0.00621465
0.00039624
0.000480931
0.00656389
0.00348643
-0.264488
0.218025
-0.00872546
-0.00611057
-0.000437103
0.044689
-0.0101901
0.0369709
0.0592587
0.095636
0.190081
0.0471165
-0.122653
0.0483012
-0.154413
0.0378765
0.0210332
-0.117213
0.00661573
-0.00238732
0.000272403
-0.000585385
7.31164e-06
0.00220763
-0.00104224
-0.00233316
-0.000333417
-0.00273114
-0.000956334
1.32915e-05
-0.000144479
0.000180267
-6.21468e-05
-0.000153642
-0.000875642
4.108e-05
0.0012266
0.00247994
0.0101754
0.108204
0.454341
0.0260158
-0.0806131
0.291876
-0.00457161
-0.0622508
-0.0207802
-0.0299108
0.848774
-0.0162392
-0.00471511
0.00534061
0.00215246
0.00543133
-0.0758957
-0.00164017
-0.00176705
-0.0163453
-0.151091
-0.129194
-0.0779817
-0.304769
0.0310663
0.0759082
0.00388847
-0.00428198
-0.00449607
-0.00239541
-0.0936872
-0.00463977
0.0449368
-0.0269877
0.0478301
-0.00270461
-0.0854691
-0.00505352
-0.00279572
-7.9202e-05
0.00521504
0.0191426
0.00253394
0.0033452
0.0178033
0.0173681
0.000849646
-0.00177328
-0.000444955
0.0010491
0.00299254
-0.00136285
-0.00110607
0.0135115
0.322632
0.0141388
-0.000261311
0.00186213
0.000436995
0.000127503
-0.000163164
-0.00150343
0.00116078
0.434907
-0.496321
0.00126409
0.000540292
0.000429911
0.000448083
-0.498003
0.436147
9.63193e-05
-0.436029
0.442051
-0.441285
0.000348607
0.436305
0.000317079
0.000126279
9.1018e-06
-7.95362e-05
0.000547577
0.00104066
0.000197619
8.17319e-05
-0.000214602
-0.000954056
0.00151761
0.4362
-0.430268
0.43002
-6.20333e-05
0.000113155
0.000205711
0.00018057
-1.59051e-05
0.436635
-0.499185
-5.29934e-05
-0.000162865
0.00017058
-0.000687139
-0.000715039
-0.499956
0.436001
-0.000535675
-0.000318585
-0.000957805
0.0010593
0.000107397
0.000148465
-0.0129278
-0.0206234
-0.0837989
-0.0133687
-0.00137176
7.4902e-05
0.000414719
5.51537e-05
0.000145174
0.00126645
-0.00136163
-0.00155878
-0.000351129
-0.000235741
-0.00190044
-0.00118945
-0.00112097
0.000321643
-0.00173565
0.00132194
-0.001948
-0.0067704
-0.00058951
-0.00240048
-0.0149996
0.0107126
0.0298645
-0.000589568
0.00119424
-0.427179
0.00324675
0.0132537
0.0866588
-0.00176702
-0.00251404
-0.0186663
-0.176555
-0.108431
0.0246594
-0.00313566
-0.00247838
-0.00196278
-0.0223743
-0.00287162
0.163071
0.0492893
-0.00836011
0.0346948
0.24579
0.0214121
-0.00361027
-0.00642756
-0.00758745
-0.0113973
-0.282759
-0.251722
0.00186209
0.0254972
0.00945336
0.0410264
-0.0776234
0.000479421
0.00451155
-0.0115555
0.000209309
-0.381131
0.00544629
0.00119604
-0.000186395
-0.00157551
8.97649e-05
-0.0013519
-0.457935
0.317427
-0.369101
0.0193314
0.184385
0.31369
-0.000116027
-0.000361715
0.00107157
-0.0787129
-0.29862
-0.020752
-0.004746
-0.00117627
-0.00252775
-0.0879303
0.000667637
-0.278475
0.00708925
-0.270274
-0.00208646
0.0366947
0.00134977
-0.105229
0.0495872
-0.0100123
0.330555
0.000392723
-0.281789
0.0214103
0.0890488
0.0165094
2.07363e-05
0.00148976
0.000322254
0.00502737
0.319564
-0.501266
0.00165218
-0.166304
-3.61701e-05
0.0218856
0.0343861
0.0193177
0.00665749
-0.000324818
-0.00730697
-0.0199138
-0.0349581
0.000450064
0.205971
0.245209
0.24387
0.170852
-0.405642
-0.381776
-0.0188516
0.386336
-0.00823831
-0.471941
0.0795071
0.0130347
-0.055015
0.0605909
0.0038268
-0.0564857
0.0585474
0.00239623
-0.0542046
0.0590973
0.00191725
-0.0537294
0.0579826
0.000122621
-0.0553667
0.0556205
-0.0040008
-0.0603738
0.0503909
-0.014919
-0.0797396
0.0300435
-0.0644091
-0.154514
-0.0740894
-0.2315
-0.284265
-0.278006
-0.236422
-0.251652
-0.261629
-0.250312
-0.27036
-0.257003
-0.255341
-0.26616
-0.254455
-0.271641
-0.26984
-0.251614
-0.334675
-0.15679
-0.150858
0.578461
0.0367572
0.325711
-0.160914
0.421352
0.0266426
0.373944
-0.165419
0.398935
0.0221583
0.385598
-0.165928
0.394455
0.0229134
0.405851
-0.16065
0.38287
0.0244459
0.497588
0.0600411
-0.0428328
-0.318873
-0.0030127
-0.241383
0.155395
-0.210054
0.184427
-0.198374
0.192552
-0.193308
0.195743
-0.192511
0.196159
-0.191198
0.199368
-0.18527
0.210022
-0.156833
0.242277
0.00444995
0.302684
0.213295
-0.0847244
0.238627
-0.22256
-0.0108792
-0.00523458
-0.122079
0.12886
-0.114753
0.212149
0.0287216