/*--------------------------------*- C++ -*----------------------------------*\
| =========                 |                                                 |
| \\      /  F ield         | OpenFOAM: The Open Source CFD Toolbox           |
|  \\    /   O peration     | Version:  2306                                  |
|   \\  /    A nd           | Website:  www.openfoam.com                      |
|    \\/     M anipulation  |                                                 |
\*---------------------------------------------------------------------------*/
FoamFile
{
    version     2.0;
    format      ascii;
    arch        "LSB;label=32;scalar=64";
    class       volScalarField;
    location    "1.2";
    object      gradTy;
}
// * * * * * * * * * * * * * * * * * * * * * * * * * * * * * * * * * * * * * //

dimensions      [0 -1 0 1 0 0 0];

internalField   nonuniform List<scalar> 
5322
(
0.0445685
0.00575572
0.00185892
0.00121213
0.00158143
0.00142349
0.00102635
0.000656877
0.000389997
0.000209225
6.70507e-05
-0.000116682
-9.97632e-05
-9.47752e-05
-9.11245e-05
0.000225366
0.000289849
-5.22737e-06
0.00026407
-0.000481782
0.000611957
-0.000975906
0.00126532
-0.00195865
0.00253398
-0.00359369
0.00450165
-0.00635679
0.00776451
-0.0101496
0.0121071
-0.0153487
0.0183045
-0.0189955
0.0200279
-0.0119606
0.0242437
0.029217
0.0148445
0.0168897
0.0215995
0.0181832
0.0197104
0.0201978
0.0192674
0.0200972
0.019577
0.02093
0.0204709
0.0186276
0.0235709
0.0102059
0.0121786
-0.0366114
-0.00169401
-0.0209532
0.0117672
-0.0272166
-0.00119086
-0.0236372
0.0119395
-0.0267323
-0.00105587
-0.023467
0.0119966
-0.0277551
-0.00149795
-0.0228032
0.0121975
-0.0311539
0.000863591
0.0230053
0.0127383
0.0178967
0.0132776
0.0169044
0.0140437
0.0168653
0.0143672
0.020275
0.00133612
0.0084024
0.0121355
0.0189346
-0.00108916
-0.00639106
0.00261947
0.00490492
0.0110653
0.00170402
0.00298855
0.000509399
6.49745e-05
5.78895e-05
0.0216018
-0.0128871
0.000429141
0.0130285
0.000419031
-0.00085337
0.00264706
0.000450105
0.013994
-0.0209953
0.0188529
0.000533358
-0.000456582
-5.0587e-05
1.50343e-05
4.09143e-05
3.51335e-05
2.40919e-05
1.50495e-05
8.26025e-06
2.57264e-06
2.38507e-06
8.18278e-05
-2.62779e-05
-1.45757e-05
-5.4061e-05
7.13404e-05
-2.8565e-05
-6.20556e-05
-8.98202e-05
-9.89022e-05
-3.34699e-06
7.68948e-05
-5.54525e-05
6.04043e-06
6.25068e-05
-6.15171e-05
2.80004e-06
6.45326e-05
-6.65356e-05
-2.59489e-06
5.94187e-05
-7.23618e-05
-6.46871e-06
-2.15666e-05
0.000111942
8.96453e-05
-6.90595e-05
4.29428e-05
3.32667e-05
-7.95037e-05
1.27279e-05
-7.29786e-05
5.5289e-05
6.02132e-05
-6.77947e-05
-1.09538e-06
-5.90726e-05
6.03064e-05
6.95777e-05
-5.90548e-05
2.48297e-07
-5.30799e-05
7.24422e-05
-9.19954e-07
1.31432e-06
0.000253556
-0.000193153
0.000294069
-0.000441228
2.62779e-05
-0.000174335
1.11159e-05
2.63973e-05
-1.46612e-05
6.0304e-05
-0.000118738
0.000120037
-0.000240763
1.47917e-06
0.00024847
-0.000333576
0.000348261
-0.000499143
3.76734e-06
0.00049603
-0.000731039
0.000760864
-0.00108255
7.08897e-06
0.00106702
-0.00152729
0.00158489
-0.00219562
1.22481e-05
0.00216167
-0.00298291
0.00309073
-0.00413959
2.14654e-05
0.00407336
-0.00543391
0.00562498
-0.00725609
3.74758e-05
0.00712899
-0.00923418
0.0095489
-0.011799
5.92141e-05
0.011547
-0.01457
0.0150369
-0.0175089
8.99104e-05
0.0170188
-0.021065
0.0212313
-0.0129378
-0.000102879
-0.0016285
0.000833602
-0.000467834
-2.29513e-05
0.000110175
0.000188468
1.75254e-05
0.0216237
-0.0128816
4.98069e-05
0.0155278
-0.00248645
-0.00118154
0.00104079
-0.000917763
0.0129373
-0.0213029
0.000134724
9.12353e-05
0.000264657
0.000131351
4.58615e-05
8.1272e-06
-4.17967e-06
-6.43582e-06
-4.82495e-06
-9.84833e-07
-1.817e-06
-6.43257e-05
-6.98039e-05
-7.01857e-05
-6.4079e-05
1.87185e-05
1.69561e-05
7.48489e-06
-8.08896e-05
3.23226e-05
-7.62005e-05
1.66745e-05
1.87654e-05
7.83774e-06
-7.51881e-05
2.11824e-05
6.97571e-05
4.1388e-05
-8.09563e-05
3.25066e-05
7.59002e-05
0.000106718
0.000119847
-0.000246761
-0.000246681
-0.000263524
0.000263128
-0.000448006
0.000601566
-0.000918545
0.00127543
-0.00183423
0.00251007
-0.00346033
0.00457517
-0.00614488
0.00772679
-0.0102513
0.0121008
-0.0158511
0.0173541
-0.00285567
0.0116778
-0.00152821
0.000663948
0.0150299
-0.0145809
0.00101612
0.0109699
-0.00968997
0.000656078
0.00715414
-0.00585055
0.000412675
0.00427619
-0.0032927
0.000246465
0.00235136
-0.0017425
0.000136458
0.00118899
-0.000871546
7.00704e-05
0.000551801
-0.00042499
4.934e-05
0.000230856
-2.49139e-05
0.000231071
-0.000424413
4.94038e-05
0.000264109
-0.000262772
9.35528e-05
0.000140091
9.71893e-05
9.65677e-05
-0.000230464
0.000209033
-0.000401091
0.000529311
-0.0008215
0.00115534
-0.0016489
0.00229342
-0.00312899
0.0041839
-0.00560235
0.00706517
-0.00937612
0.0110351
-0.0140701
0.0153198
-0.0014418
0.00881777
-0.00616671
0.000989475
0.0212495
-0.0205122
0.00123821
0.0160201
-0.0131655
0.000740123
0.0103096
-0.00774156
0.000436739
0.00608699
-0.00431577
0.000255229
0.00335456
-0.00227066
0.000140046
0.0017219
-0.00112386
7.2853e-05
0.000821064
-0.000541219
5.15537e-05
0.00035462
-0.000286287
9.19738e-05
0.000196117
0.000167878
-8.3162e-05
0.000217535
-4.78644e-05
1.96047e-05
0.000232615
-0.000207947
0.00025883
-0.000354196
0.000565562
-0.000506342
-6.79514e-06
-0.000399302
0.000340801
-0.000257893
4.29296e-06
0.000263544
8.60875e-06
-3.42589e-06
-6.4021e-05
5.24755e-06
-5.08179e-06
3.20894e-06
-3.18457e-06
-2.06669e-06
0.000246497
-0.000247607
0.000338953
-0.000495616
1.36768e-06
0.000742786
-0.0010668
0.00155294
-0.00215984
9.44794e-06
0.0030368
-0.00406607
0.00554025
-0.00711047
2.787e-05
0.00941976
-0.0115165
0.0148156
-0.0170202
-3.39347e-05
2.95999e-05
4.7883e-05
0.000138794
6.37274e-05
7.11027e-05
0.00953047
-0.0115209
4.81996e-05
0.0137148
-0.0169622
0.0151358
-0.0168649
0.000150672
0.0206266
-0.0236755
0.0152637
-0.0119193
-0.0232453
-0.00185666
0.000120795
-0.00831696
-0.00227124
0.000263627
0.0111799
0.0133877
0.00081339
-0.0165541
0.010458
-7.21956e-05
-0.00863318
0.00641026
-0.000152876
-0.00472812
0.00367627
-9.53741e-05
-0.00248339
0.00194789
-6.99127e-05
-0.00126202
0.000999836
-4.55224e-05
-0.000572943
0.000487093
-3.91243e-05
-0.000250456
4.50676e-05
8.50924e-05
-0.000172286
-2.21626e-05
0.00033406
-0.00047702
0.000527135
-0.000757186
0.00109266
-0.00153163
0.00246912
-0.00217884
-1.58561e-05
-0.00178597
0.00154997
-0.00108006
-1.21251e-05
0.00121551
6.76254e-06
-3.75305e-05
-1.83752e-05
-2.87415e-05
-0.000128719
-2.57742e-05
2.33545e-06
-7.65683e-06
2.95571e-05
2.13115e-05
7.59494e-06
-1.20064e-05
0.000184262
5.80944e-05
7.63517e-06
4.91746e-05
-1.96786e-05
-6.71175e-05
-5.16875e-05
4.86502e-05
9.04202e-05
-9.58541e-05
-0.000141372
-0.00102883
-7.9829e-05
0.00132973
-0.00203688
0.00213255
-0.00288222
0.00391755
-0.00505457
0.00828665
-0.00714267
-2.8151e-06
-0.00631576
0.00556717
-0.00409315
-1.5817e-05
0.00467986
4.33081e-05
-7.80132e-05
-5.98071e-05
3.36969e-05
-0.000534336
-0.000270124
-0.000190742
-0.00028552
-0.000127445
-9.17426e-05
0.000667298
-4.14247e-05
-1.47466e-05
0.000126031
-0.000200141
-6.37384e-05
0.000118651
0.00021589
0.000384285
2.65863e-06
-1.75377e-06
5.61431e-05
3.22825e-05
-0.000446403
-4.1274e-05
0.000605066
0.000551892
-0.000869215
7.03219e-05
-0.00091807
-8.81505e-05
0.00128158
0.00119055
-0.00173659
0.000137289
-0.00184104
-0.00015891
0.00251473
0.00235987
-0.00328202
0.000248577
-0.00348851
-0.000209629
0.00456244
0.00430779
-0.00584042
0.000418224
-0.00622796
-6.58033e-05
0.00762292
0.00726392
-0.00972564
0.000669252
-0.0104178
0.000834648
0.0116224
0.0113191
-0.0148618
0.00103865
-0.0158773
0.00408379
0.015926
0.015923
-0.0020445
0.000673478
-0.00254811
0.0545128
-0.0273425
-0.0283195
0.0408503
0.0108106
0.00367961
-0.0303998
-0.00736475
-0.00450843
0.0123273
-0.0129804
-0.000251631
0.000687144
-0.00271286
-0.00297949
-0.00065121
0.000784013
0.000393437
-0.00020932
-0.00046085
-0.000155652
0.000181707
4.76215e-05
2.02837e-05
7.20985e-06
-5.56651e-08
-3.5805e-06
-1.20405e-05
-5.34303e-06
0.000123054
-0.000123528
-7.55487e-08
7.00834e-07
-0.000126341
0.000124126
-5.19272e-07
2.88968e-07
-5.10483e-07
-9.42199e-06
-6.12051e-06
2.22708e-05
-2.58971e-08
2.55677e-05
-9.25906e-06
-1.1417e-05
-1.22187e-06
4.36857e-05
-5.31541e-05
5.44031e-05
-4.24299e-05
-4.33849e-05
-3.49254e-05
2.4936e-06
5.42895e-05
4.66459e-05
-4.56435e-05
-1.47462e-06
-5.37009e-05
3.46992e-07
7.92996e-07
-8.54382e-07
-1.1392e-05
-1.14439e-05
-3.01812e-05
-3.60748e-05
-7.59742e-05
-0.000128773
-0.000177092
-0.000151593
-6.3511e-05
0.000638473
-0.00178773
-0.000810453
-0.000300066
0.00476034
-0.00610235
0.00674401
-0.00841544
0.0107693
-0.000554872
-0.0102386
-0.000633153
0.00839996
-0.000291877
-0.00101617
0.000159628
0.00010697
0.000225751
0.000273614
-0.000261152
-0.00306129
0.0105656
-0.00514202
-0.0169636
-0.00276536
-0.00358294
-0.0420625
-0.0119892
0.00156797
-0.0179847
0.0129237
0.000666226
0.000548644
0.0155999
0.0130511
0.00163384
-0.00150883
0.0170983
0.0153891
0.00172136
-0.00179922
0.0155736
0.0174974
0.00160894
-0.00400878
0.0130129
0.0176879
-0.00636456
0.0105051
-0.00909921
0.00974952
-0.0381227
-0.0205603
0.00319547
-0.0094262
0.0174517
-0.00110563
-0.028188
0.0166402
-0.000302131
-0.0195916
-0.0195372
-0.0279709
0.00885383
-0.0144427
-0.00982359
0.0146952
-0.0244891
-0.00394247
0.0149227
-0.0142034
-0.00139386
0.0103512
-0.00813299
-0.000718953
0.00635302
-0.00459637
-0.000458358
0.00361232
-0.00249348
-0.00027854
0.00192561
-0.00127106
-0.000145567
0.000966233
-0.000608129
-4.98019e-05
0.000476561
-0.000265199
3.80344e-05
0.000215793
-8.647e-05
0.000166453
0.000195324
-0.000288632
0.000353826
-0.000546595
5.20036e-05
0.000208243
-0.00023077
9.16741e-05
9.58754e-05
9.77894e-05
0.000139869
0.000119531
9.34183e-05
0.000187955
0.000118279
-6.70609e-05
-0.000204909
-0.000379796
-0.000382794
-0.000685495
-0.00122822
-0.000956958
-0.000476
-0.000292515
0.00257178
-0.00361298
-0.000206595
-0.000132638
-0.000246758
1.99724e-05
-0.00347378
0.00303952
1.38906e-05
0.0022012
-0.00304793
1.6353e-05
0.00415877
-0.00554362
3.97561e-05
0.00730112
-0.00940034
8.20369e-05
0.011862
-0.0147745
0.000117817
0.0174472
0.000142802
0.000349402
3.83963e-06
-3.29612e-05
-7.04921e-05
9.81624e-06
2.36806e-05
1.60333e-05
8.21668e-06
3.23517e-06
9.26188e-07
3.17752e-07
1.00713e-06
3.38315e-06
-0.000120513
2.83739e-06
7.99291e-06
-8.00018e-07
-3.58722e-06
-7.73048e-06
-1.45398e-05
-2.90979e-05
-6.16043e-05
-0.000125367
-0.000170337
0.00071643
-0.000220184
-0.00057069
-0.000787674
0.0151352
-0.0162202
0.0187178
1.43029e-05
-0.0026493
0.0021984
0.00672806
1.74527e-05
-0.00607336
0.00566715
0.00577579
-9.51672e-08
-0.00646008
0.00601607
0.00520227
-1.26378e-05
-0.00816313
0.00773367
0.00731589
-0.000165651
0.0106078
-0.0111561
0.0108851
-0.0116688
-0.00109226
-0.00569403
0.00803683
-0.000732517
-0.00776544
-0.000186416
-5.60111e-05
0.0265638
-8.32066e-05
-0.0267385
0.0172388
-0.000621616
-0.0178337
0.0178868
-0.000396771
-0.0187342
0.026922
-0.000262107
-0.0269409
0.0227413
-0.0226727
0.0225112
-0.0230802
0.000120888
-0.0266362
0.0263514
-2.19986e-05
-0.017891
-0.000698896
0.0180276
-0.0154178
7.26247e-05
0.0274743
0.00999074
0.0260247
0.00969416
-0.010639
0.0152936
0.00219173
-0.010446
0.00996358
0.000881285
-0.00719447
0.00620725
0.000558131
-0.00443221
0.00372462
0.000340646
-0.00251852
0.0020286
0.000208803
-0.00134383
0.00106137
9.47686e-05
-0.000668118
0.000486473
1.65937e-05
-0.000336623
0.000185393
-8.00847e-05
-0.00023235
-5.8148e-05
-0.000183419
0.000124144
1.21238e-05
6.53043e-06
7.23729e-05
2.19685e-05
-0.000112192
-8.93052e-05
-2.08453e-05
-7.03982e-05
-4.18532e-05
-3.11993e-05
-7.82817e-05
-3.45342e-05
-3.7127e-05
-7.75099e-05
-0.00011454
-0.000126479
-9.22441e-05
0.000263157
2.52854e-05
-0.000210444
-4.77788e-05
0.000398612
0.000468364
3.9864e-05
-0.000502618
-6.96932e-05
0.000793087
0.0011455
-4.51522e-06
-0.00172925
6.31435e-05
0.00229748
-2.7674e-05
-0.00336681
0.000114904
0.00431249
-5.75355e-05
-0.00609912
0.000144573
0.00753117
-9.72741e-05
-0.0102734
0.000218157
0.0122105
-0.000187262
-0.0161385
0.000133677
0.0181851
-0.000472708
-0.0236849
-0.000558663
0.00067212
-0.014279
0.0233322
0.000128891
0.0125964
0.000422433
-0.00997809
0.0163975
-4.42e-05
0.00819807
0.000320469
-0.00642301
0.010549
-3.24603e-05
0.00503944
0.000220979
-0.00380904
0.00629612
-1.47937e-05
0.0028824
0.000149066
-0.00210903
0.00349073
-6.57333e-06
0.00153925
8.56876e-05
-0.00108268
0.00180154
-2.04302e-06
0.000760662
4.68916e-05
-0.00052575
0.000870244
-1.99472e-06
0.000358841
2.38489e-05
-0.000258185
0.000403673
-7.68467e-06
0.0002091
-1.87998e-05
4.82137e-05
-0.000195322
-0.000165764
8.55861e-05
-0.000216974
-3.92767e-05
2.78983e-06
-0.000383573
-0.000215534
-0.000188869
-0.000115327
-9.26312e-05
0.000235241
0.000270249
2.96228e-05
-0.000198998
-5.04626e-05
0.000552833
1.19396e-05
-0.000824479
4.40764e-05
-0.00011866
-5.30463e-05
-3.11263e-05
-0.000275592
1.21486e-05
7.53712e-05
-5.9966e-06
-1.75339e-05
-1.81221e-05
8.1751e-05
-2.49225e-05
1.10243e-05
9.62864e-06
4.18154e-07
7.79198e-07
6.92606e-07
1.26288e-06
1.01403e-06
2.10614e-06
-1.92595e-06
-4.32966e-07
0.000740261
-0.000861214
3.73557e-06
-1.35384e-06
-6.06414e-06
5.58686e-07
-0.000346393
2.7055e-07
0.000499525
-0.000751645
1.71557e-06
0.00108325
-0.0015639
5.81192e-06
4.4772e-06
-6.12806e-07
4.35924e-06
5.48391e-06
2.27149e-05
3.35811e-05
2.15321e-05
1.08591e-05
4.97145e-06
3.89487e-06
9.79566e-06
5.26085e-06
6.61623e-07
0.000492575
-0.00071445
0.000645818
-0.000936021
0.00134404
-0.00188469
4.43153e-05
-0.000584375
4.66382e-05
0.000550152
3.5379e-05
-0.000296965
2.40986e-05
0.000236691
-1.03286e-05
6.26869e-06
8.27233e-05
-1.43713e-05
-0.000196032
0.00116379
6.18079e-05
-0.0010562
-0.000130079
0.0014958
0.00197288
0.00017356
-0.00214205
-0.000225646
0.00294913
0.00357393
0.000308202
-0.00392741
-0.000376803
0.00508279
0.00622508
0.000464589
-0.00674947
-0.00058022
0.00802205
-0.0106827
-0.000815086
0.0113797
-0.0159171
-0.000397834
-0.000592265
-0.000112582
-1.89111e-05
2.22997e-05
2.62927e-05
2.0252e-05
1.36236e-05
7.89349e-06
2.2775e-06
2.28908e-06
6.46892e-05
7.01643e-05
7.07285e-05
-1.35068e-05
7.73373e-05
1.25854e-05
1.17852e-05
7.99026e-05
-1.07963e-05
8.19275e-05
-2.42332e-05
3.83942e-06
-5.52113e-06
6.75084e-06
-1.3343e-06
5.26914e-06
1.18983e-06
-0.00032884
2.03504e-05
9.56517e-06
4.51695e-06
1.01249e-06
3.63852e-07
-4.587e-05
4.66138e-05
2.53186e-06
-3.57599e-05
6.35942e-05
-1.70854e-05
5.28625e-06
3.64344e-05
1.52937e-05
-1.31125e-06
8.07398e-05
-0.000320602
2.53616e-05
-0.000219383
-5.0008e-05
0.000383678
0.000479983
3.5388e-05
-0.000510512
-6.5531e-05
0.000965457
8.57606e-05
-0.0010802
-0.000128188
0.00159261
0.00192677
0.000170942
-0.00217354
-0.000233998
0.00292985
-0.00397712
-0.000383702
0.00505872
0.0003353
0.000231079
0.000143969
8.01631e-05
3.74142e-05
5.23871e-06
2.01699e-06
1.71946e-06
4.78141e-06
2.04329e-06
-1.51858e-06
-6.82466e-06
-3.59243e-06
-2.36773e-06
-4.62681e-06
-3.59913e-05
-3.61862e-05
-7.87685e-05
-8.36433e-05
-0.000136444
-0.00015992
-0.000663836
-0.00117035
-0.00210955
-0.00227974
-0.0043931
-0.0037836
-0.00214865
-0.0083695
-0.0251165
0.0013727
-0.0403173
-0.0301902
-0.0231395
-0.0154549
-0.0135456
0.00506667
-0.0119135
-0.00057035
0.00309771
0.000388573
-0.000102691
0.0146799
-0.01697
0.0190612
0.000172841
-0.00238015
0.00357422
0.00780764
0.000269839
-0.00547811
0.00730842
0.00728716
0.000278232
-0.00585248
0.0075247
0.00685331
0.000202792
-0.00784569
0.00859209
-0.000382751
0.000342992
0.000437915
0.00326037
-0.0137375
-0.0197224
0.00106339
0.0159573
0.000308021
6.18767e-05
0.0100025
0.000135126
-0.0163517
0.0199987
3.20191e-05
-0.0227807
0.0134735
-0.0129821
0.0112494
-0.00239616
-0.0153
0.000400335
-0.0189768
0.0258073
-0.0225845
0.0200436
-3.15593e-05
-0.0200644
2.76997e-05
0.0198687
-6.1309e-05
-0.0199654
9.95704e-06
0.0200511
-7.69306e-05
-0.0201272
0.0229864
-0.0263055
0.00191295
-0.0212887
0.0294147
0.00158385
0.000904582
-0.00981347
0.0104111
-0.0107963
4.05068e-05
-0.0077889
0.00716642
0.000511072
-0.00891568
0.00646404
-0.00765871
0.000708107
0.0151865
-0.00827263
0.00485902
0.000991947
-0.00908034
0.00717737
-0.000163756
-0.000133108
-1.05056e-05
0.00021858
9.93612e-05
2.8479e-05
3.41326e-07
-7.17303e-06
-7.37959e-06
-5.04898e-06
-1.09189e-06
-1.75054e-06
3.60072e-05
4.38657e-05
5.4877e-08
-9.7968e-06
-6.17561e-06
7.01843e-05
2.11576e-05
-6.88565e-05
3.33342e-05
4.27503e-05
-7.36081e-05
-2.85478e-07
-7.2529e-05
-6.39348e-06
-2.18646e-05
-6.51063e-05
8.9822e-05
0.000113009
5.40012e-06
2.2321e-05
-5.45792e-06
2.9993e-06
5.54511e-05
-6.04625e-05
-6.96583e-07
-6.84026e-05
6.90528e-05
6.12368e-05
-5.45773e-05
2.97846e-07
-6.64691e-05
1.03758e-07
6.67567e-05
1.85813e-07
5.78828e-07
-3.49565e-06
-3.54725e-06
7.91912e-06
-5.08707e-06
0.000383903
0.000215527
0.000116453
-6.79583e-05
-0.000208873
-0.000393375
-0.000689366
-0.00119705
-0.00211024
-0.00385065
-0.00389143
-0.00773388
-0.00841587
-0.0182937
-0.0296734
-0.0269328
-0.0270518
0.0111683
-0.0154853
-0.00809927
-0.00874863
-0.025215
-0.0302382
-0.0273901
-0.0274145
-0.0272016
-0.0272282
-0.0311659
0.0113157
-0.0012039
-0.00569338
0.0333546
-0.00911005
-0.0227343
-0.0209272
-0.00615048
-0.0074716
-0.0172116
-0.0177537
-0.00196242
-0.00374243
0.000674285
0.000910386
0.000687291
0.000431337
0.000247234
0.000190374
9.08183e-05
8.89387e-05
3.13965e-05
5.31414e-05
-0.000143785
-0.00030062
-0.000538712
-0.000921603
-0.00158029
-0.00291064
0.00100546
0.000767804
0.000701571
0.00070611
0.000540561
0.000342986
0.000339242
0.000187447
0.000237883
0.000119826
0.000527197
0.000815075
-0.00112846
0.00170726
-0.00226585
0.000139511
0.00114768
-0.000825186
7.31855e-05
-3.46269e-06
-3.50337e-05
-3.64215e-05
-0.000402928
-1.09498e-05
-7.55684e-05
4.16965e-05
-2.78231e-05
-3.61985e-06
-6.93778e-06
1.25793e-05
-7.98107e-05
6.00932e-05
-3.82336e-07
-4.03071e-08
-2.06622e-08
3.89574e-08
3.63422e-05
-1.41861e-06
5.62571e-07
4.66587e-07
7.60168e-07
-2.1967e-05
4.88047e-07
9.64256e-06
6.17664e-06
8.13181e-06
-5.174e-06
5.50921e-06
2.43091e-08
8.0495e-07
-2.19557e-05
8.01843e-05
7.41454e-05
-4.19366e-05
-1.18434e-05
-3.33999e-05
6.94749e-05
8.43398e-06
3.83003e-06
7.20481e-07
2.97622e-07
-2.48036e-06
-1.80559e-06
-2.32245e-06
-1.8306e-05
-5.01776e-06
-3.77245e-05
1.33039e-05
-7.48571e-05
-8.10526e-05
-0.000129399
-0.000153722
-0.0016518
0.00227281
0.00332669
-0.00428188
0.0060315
-0.00760293
0.000418855
0.0041338
-0.00312149
0.00024993
8.74912e-06
-6.10097e-05
4.24369e-05
-8.12276e-05
0.000105427
-0.000184708
-0.000219056
-0.000191892
-0.000222087
-0.000179065
-0.000118615
6.10185e-05
0.000118379
5.31341e-05
0.00299863
0.000130434
0.000121823
4.82437e-05
1.52943e-05
1.90857e-06
-2.56538e-06
-2.49754e-07
-1.00164e-06
-7.21431e-06
6.57658e-06
1.68449e-06
-6.01747e-06
2.32393e-05
8.9346e-06
1.04836e-05
4.93236e-06
4.33294e-07
7.1023e-06
6.68243e-06
1.78219e-06
4.07597e-06
8.43975e-06
1.59119e-05
4.21273e-06
6.11151e-05
2.56385e-05
3.92751e-05
0.000144806
5.80355e-05
0.000124976
0.000315082
0.000243893
0.000626719
-0.00244852
-0.00280019
-0.000441081
0.000383725
0.00053134
0.000263824
-0.00671658
-0.000166657
-9.18619e-05
-9.18737e-05
-0.000707849
-0.000229919
0.015929
-0.000222329
-0.0193515
-0.000155276
-0.000811314
-0.018015
-0.000835729
-0.000992342
-0.0122046
-0.00636907
-0.0103103
-0.0245463
0.00261256
0.00613461
0.000366465
-0.000341154
-0.000296031
-0.000531151
7.11701e-05
-0.0143002
0.0185178
0.000107338
-0.0041723
0.00190546
0.00623901
4.26588e-05
-0.00783323
0.0049913
0.00503871
-1.0317e-05
-0.00806701
0.00532502
0.00448127
-6.0338e-05
-0.00743335
0.00183073
-0.0112782
0.00562962
0.00866697
-0.010464
0.00304541
0.0012279
-0.00061572
-9.85878e-05
-1.3626e-05
2.84206e-05
2.98916e-05
2.20141e-05
1.43326e-05
7.67538e-06
4.0851e-06
7.94544e-06
3.0783e-05
0.00104819
-0.00149343
4.96651e-05
0.00211408
-0.00291782
0.00261549
-0.003553
0.00474857
-0.00625255
0.000101041
-0.00217559
0.000120477
0.0020709
6.73841e-05
-0.00115736
8.00248e-05
0.00111546
1.98399e-05
6.76203e-05
0.000374302
-5.88282e-05
-0.00070034
0.00435985
0.000223142
-0.00375898
-0.000377073
0.00489449
0.00636347
0.000475642
-0.00661738
-0.000574475
0.00980829
0.000771526
-0.0105698
-0.000877647
0.0113689
0.0144964
0.000818269
-0.0189721
-0.000602022
-0.015782
-0.0187503
0.000938007
0.0140808
0.0116838
-0.0154973
-0.000542255
-0.000608455
0.000604952
0.000478977
0.00036086
0.00024441
0.000149545
8.1287e-05
3.93013e-05
7.20053e-05
1.58595e-05
2.9516e-07
2.41145e-05
-8.55746e-07
0.00397405
-0.00531576
0.000135188
0.00695114
-0.0090448
0.00806852
-0.0102347
0.0128989
-0.0152151
-0.000384754
-0.00594777
8.75676e-05
0.00601877
8.0201e-05
-0.00385381
0.000145488
0.00360318
1.75739e-05
0.000219273
0.00133146
-3.69769e-05
-0.00174599
0.012349
0.000468946
-0.00977742
-0.000873235
0.0119459
0.014423
0.000821892
-0.0195222
-0.000514786
-0.0139699
-0.0251616
0.000281513
0.0179244
-0.00160285
0.00835526
-0.000279445
0.00554756
0.00508301
0.00250724
0.00158319
0.0103047
-0.00604043
-0.000238309
0.00133027
0.000728226
0.000471455
0.00031197
0.000192542
0.000107526
5.03521e-05
2.16671e-05
0.000149409
-9.60084e-05
-0.00015858
-3.95984e-05
3.17382e-05
-9.5889e-05
0.000311152
-0.000114388
-0.000133247
-0.000136494
-8.77324e-05
0.000233977
0.000266845
2.51396e-05
-0.000224021
-4.79463e-05
0.000466722
3.68432e-05
-0.000500656
-6.62228e-05
0.00080732
0.000967168
8.68774e-05
-0.00109493
-0.000132707
0.00157414
-0.000231367
-0.00017955
-0.00134061
-8.59094e-05
-0.000631948
0.000211172
0.000212227
6.76382e-05
-0.000122885
-0.00019704
-0.000118437
-9.86278e-05
-0.000218002
-5.63393e-05
-3.34367e-05
1.87653e-05
2.34209e-06
0.000564947
2.7678e-05
-0.000502722
-6.81455e-05
0.000756742
0.000990458
8.4072e-05
-0.00108539
-0.0001264
0.00192071
0.000176109
-0.00214475
-0.000229062
0.00295205
0.00359258
0.000292622
-0.00480068
-0.000521902
-0.000323601
-0.00263523
0.000627174
0.000630784
0.000382398
-9.56732e-05
-0.000618988
-3.58129e-05
-0.000249231
7.04493e-05
-9.84198e-05
-0.000110034
7.35434e-05
0.000215821
-0.000118941
-0.000756887
0.000208369
3.23669e-05
0.000189076
-3.38983e-05
0.00232715
0.000128105
-0.0020684
-0.000231013
0.0027951
0.00367693
0.000302647
-0.00390935
-0.000370164
0.00617267
0.000493206
-0.0066724
-0.000585809
0.00802716
0.00995855
0.000714711
-0.0128345
0.000438379
-6.85653e-05
-2.10705e-05
1.73074e-05
1.19925e-05
6.84867e-06
3.45668e-06
1.60325e-06
-1.35891e-06
-5.00003e-07
5.76156e-06
-4.21379e-07
-2.08004e-06
1.00045e-06
1.0647e-05
3.31688e-05
5.62489e-05
2.10883e-05
6.24082e-06
6.29e-07
1.21114e-06
-7.35446e-07
2.97772e-07
0.000750134
1.18413e-06
-0.000746079
0.00108292
2.44321e-06
-0.00155495
0.00156272
-0.00107729
0.00109099
2.44374e-06
-0.001579
0.00155339
-0.00108377
0.000745105
-9.34159e-07
-0.000760448
0.000504054
-0.000501153
0.000503771
-0.00050132
3.11282e-06
-0.00074108
0.00076408
4.10974e-06
-0.0010857
2.1483e-06
-0.00154647
0.00158683
6.37793e-06
-0.00220098
8.39048e-07
-0.00301398
0.00307857
-0.00302387
0.00303763
4.59667e-06
0.00218914
-0.00217839
1.85021e-06
0.0022105
8.07637e-06
-0.00306415
0.00302585
-0.00218437
-1.78447e-05
-0.00179081
0.00108886
5.1872e-06
0.00121956
-1.22973e-05
-0.00086595
0.000528768
3.37519e-06
0.000569607
-0.000508524
0.000343554
-2.49464e-06
-0.000350917
-1.43054e-07
0.000343526
5.51425e-07
-0.00034169
2.24049e-06
0.00035225
3.47746e-06
-0.000341479
0.000510759
-0.000567535
8.36653e-06
8.06872e-06
4.34225e-06
1.22648e-05
6.84406e-06
-0.000123592
0.000129417
-0.000126951
0.000127338
1.4851e-07
-1.35758e-07
-4.87843e-07
-0.000129229
0.000124082
-6.56875e-06
-3.69714e-06
5.98387e-05
-6.81311e-05
-4.3241e-08
-7.5229e-07
0.000250068
-0.000253743
0.000254733
-0.000248906
0.000260571
-0.000264302
-3.66972e-06
4.55052e-07
-5.94683e-05
3.94543e-06
6.82614e-05
-2.68106e-06
4.48977e-06
4.81234e-06
1.37007e-06
2.88746e-06
5.45792e-06
6.14715e-06
6.25967e-06
-0.00409176
6.41896e-06
-0.00546555
0.00548655
-0.0055297
0.0054822
1.7742e-05
0.00415789
-0.00409622
-2.20635e-05
-0.00347051
0.00211579
1.36582e-05
0.00246765
-0.00153439
-8.04624e-05
-0.00103773
0.00133441
-0.00019199
-0.00201432
0.00253335
-0.000301853
-0.0036258
0.00454049
-0.000391723
-0.00606704
0.00763745
-0.000567767
-0.00973195
-0.00118282
-0.000408334
-0.000610009
-0.000215929
-0.000381456
-0.000154475
-0.000246175
-0.000100836
-0.000147638
-5.43953e-05
-9.94002e-05
0.000667347
-0.000759711
-4.44243e-05
-0.000486953
0.000334625
-1.71741e-05
-1.6031e-05
-7.94858e-05
-2.73067e-05
-0.000185899
-2.28571e-05
0.000259985
8.20653e-06
-0.000402639
-6.60327e-06
-6.09142e-06
2.17539e-05
7.06863e-06
-1.20182e-05
-0.000124236
0.000183967
5.87881e-05
0.000232256
7.91907e-05
4.49766e-05
3.54344e-06
1.91494e-05
-0.000209598
0.000265416
-0.000259897
4.03862e-06
-6.37287e-07
-1.2678e-05
-3.47656e-06
-4.39647e-08
3.01579e-05
4.93017e-05
8.59988e-05
0.000148246
3.3332e-05
-0.00626559
0.0038335
-0.00288576
0.0046515
1.26971e-05
2.71211e-06
-2.00443e-06
1.1964e-06
6.36216e-06
1.56987e-05
3.03965e-05
3.87799e-05
-1.77865e-05
-0.00713084
3.0723e-05
-0.00925962
0.00922429
-0.0105218
0.00645717
7.4226e-05
0.00816303
-0.00506678
-0.00016237
-0.000145471
0.000674639
0.000536286
0.000713599
0.000936008
0.00692545
0.0101791
-0.012714
0.00142459
5.94199e-05
-6.68318e-05
0.000347441
-0.0001832
-0.000146746
-0.00554563
1.96184e-05
0.000488496
-0.00918793
0.00067478
9.04525e-05
3.5742e-05
8.61599e-05
0.000204119
0.000302411
0.000135731
4.73081e-05
1.97692e-05
1.69411e-05
1.74184e-05
2.51154e-05
3.4062e-05
2.04694e-05
1.43119e-05
2.07847e-05
1.23522e-05
1.1059e-05
2.49347e-06
9.98198e-06
1.18545e-05
8.22867e-05
2.30981e-05
1.34841e-05
8.8854e-06
8.57246e-06
5.64005e-06
2.78151e-06
5.93892e-06
4.98081e-06
5.56134e-06
-1.15127e-05
8.98866e-06
2.17143e-05
1.65131e-05
3.10763e-05
5.04848e-05
5.68475e-05
0.000104487
4.96023e-05
9.79485e-05
4.50042e-05
0.0112833
-0.0143422
0.000267476
0.0167617
0.000330561
6.21158e-05
0.000193487
0.00124564
-0.0033806
0.0123142
-0.0103746
0.0218622
0.00314771
0.0131584
-0.011655
0.0101629
-0.00974707
0.00712695
0.00807945
-0.0105572
0.00236698
-0.0114904
0.00753298
0.00778064
0.0145131
-0.000790874
-0.000330119
-0.00182021
-0.000142397
-0.00710993
-0.000158351
-3.14877e-05
2.9155e-05
4.20785e-05
7.10815e-05
3.50763e-05
3.13535e-05
3.71203e-05
3.22912e-05
-5.28256e-06
3.40213e-05
-5.06296e-06
0.000274974
0.000179917
0.000117921
-0.00588885
0.00761777
0.000345383
-0.00632192
-0.000582641
0.00800487
0.0101206
0.000714426
-0.0104251
-0.000853847
-0.0127291
0.000480987
0.00036452
-1.69977e-05
1.03285e-05
-5.97202e-06
0.000212706
3.51364e-05
1.75337e-05
2.33996e-05
1.74504e-05
-2.67251e-06
0.000152399
8.33079e-05
3.74384e-05
-0.0006102
-8.43503e-05
0.000807688
-3.06589e-05
0.000402003
-0.000256817
-0.000188877
0.000242512
-0.000128884
-0.000114087
-0.000121756
6.82849e-05
-0.000178429
-0.000198867
-0.00134688
0.000408957
-0.000197669
-0.000379736
0.00037696
0.000697119
-0.000334283
-0.00321578
0.000619047
0.000115052
0.000695871
-7.66161e-05
-0.00118689
-0.000514418
0.000997058
0.00166891
0.00111556
-0.000357687
-0.00267614
-0.000323504
-0.00260142
0.000982299
-0.00057887
-0.00489922
-0.000522737
0.00510086
0.00138205
-0.000876972
-0.00832681
-0.000603112
-0.0100929
0.00190019
0.000657461
0.0030808
0.000169985
-0.0163317
0.00029995
0.00230478
0.00286858
0.0039866
0.0126047
0.0295428
0.0155524
0.0229187
-0.00221807
-0.00130196
-0.0131969
0.00158219
0.0012727
0.00292588
0.015274
0.0222421
-0.0021274
-0.00118105
-0.00078912
0.00813076
-0.00806122
0.00131575
0.000966633
0.00136435
0.000864729
0.00237419
0.0140331
0.0224435
-0.00218488
-0.00118831
-0.000790209
-0.00812918
-0.000970498
-0.000649005
-0.000409712
0.000517095
0.000293493
0.000139749
4.69314e-05
0.000142499
0.000825856
0.00119005
0.00148316
-0.00134825
-0.0018044
0.00231473
0.0127965
0.0250881
-0.0042655
0.00534036
0.0023563
0.0018756
0.000151954
-0.000139134
-7.10733e-05
-3.39188e-05
-1.53017e-05
-6.19199e-06
-1.47717e-06
2.15821e-06
1.08705e-06
4.75497e-07
-2.76011e-07
2.60313e-06
1.34836e-06
1.29588e-06
1.29732e-06
-7.47934e-06
-2.13382e-05
-2.88163e-05
6.00754e-06
1.6067e-05
-0.00121708
0.00108918
7.37169e-06
5.28485e-06
6.28368e-06
4.65394e-06
4.00376e-06
6.81824e-06
2.02005e-05
4.31088e-06
6.46443e-05
-0.000356815
3.5228e-05
4.20266e-05
7.12933e-06
7.90939e-06
9.91888e-06
1.97071e-06
-4.16868e-06
1.46564e-05
1.07617e-05
9.36879e-06
8.93461e-06
9.00541e-06
1.12406e-05
3.66512e-05
3.40731e-05
0.00918815
2.90145e-06
-0.00916538
0.0115469
-1.74916e-05
-0.0142068
0.0142023
-0.0115294
0.0117345
3.13735e-05
-0.0143283
0.0143449
-0.011507
1.24119e-05
0.0133328
-0.00836975
-0.000130707
-0.000131222
0.00010481
0.000242958
0.000314608
-0.000124697
-0.00142566
-0.00292372
-0.00540717
-1.66166e-05
-0.00201508
-0.000841751
-0.000253164
0.000253303
0.000234216
5.22901e-05
4.79607e-05
4.51983e-05
2.18095e-05
0.00725588
-0.00713169
0.00715548
-0.00723249
-1.60509e-05
-0.00917191
0.00928492
-9.49356e-07
-0.0117208
-4.56064e-05
-0.0142619
0.0143421
-1.79908e-05
-0.0174943
0.017232
-0.0197782
5.01416e-06
-0.00014637
-5.14173e-05
1.43493e-05
2.72183e-05
0.00010511
0.000259859
0.000545084
0.00351759
-0.00235184
0.0549644
-0.00149278
-0.000242497
-0.00104503
-0.0111149
0.00254138
0.00648669
0.000494403
-0.000124448
-0.0056254
-0.00015333
0.000122706
0.000259894
2.21848e-05
2.89851e-05
0.0005546
0.000325195
-0.0179941
0.0160274
-0.000794282
-0.000474479
-0.000173649
0.0031765
-0.000877624
0.00260029
0.00426818
0.00776324
0.014869
0.00318855
-0.00812027
0.00329384
-0.011458
0.00262567
0.00117013
-0.00776365
0.000568489
-0.000129213
7.79592e-06
-2.74274e-05
9.30528e-06
0.00010701
-8.28933e-05
-0.000195009
-5.96838e-05
-0.00021219
-4.68444e-05
5.92592e-06
-2.81179e-06
1.05318e-05
-6.07442e-06
-1.17365e-06
-3.77836e-05
3.71317e-06
5.89269e-05
0.000132977
0.000264711
0.00526317
0.0226714
0.00118179
-0.00274582
0.0144842
0.000919542
-0.00191364
-0.00147748
-0.00251803
0.0546333
-0.00123075
-0.000261852
0.000496019
9.92478e-05
0.000224712
-0.00513302
-0.00016898
-0.000160144
-0.00110632
-0.0112199
-0.0104758
-0.00681579
-0.0238062