/*--------------------------------*- C++ -*----------------------------------*\
| =========                 |                                                 |
| \\      /  F ield         | OpenFOAM: The Open Source CFD Toolbox           |
|  \\    /   O peration     | Version:  2306                                  |
|   \\  /    A nd           | Website:  www.openfoam.com                      |
|    \\/     M anipulation  |                                                 |
\*---------------------------------------------------------------------------*/
FoamFile
{
    version     2.0;
    format      ascii;
    arch        "LSB;label=32;scalar=64";
    class       volScalarField;
    location    "1.2";
    object      gradTx;
}
// * * * * * * * * * * * * * * * * * * * * * * * * * * * * * * * * * * * * * //

dimensions      [0 -1 0 1 0 0 0];

internalField   nonuniform List<scalar> 
5322
(
-0.251398
0.00577731
0.007039
0.000785604
-0.000139555
-0.000177999
-2.51213e-06
0.00012409
7.27833e-05
-0.00021082
-0.00100114
0.0108742
0.0167543
-0.230777
-0.00611891
0.40165
-0.315621
-0.00498145
-0.240829
0.155288
-0.211135
0.183738
-0.194346
0.19555
-0.198091
0.190463
-0.190878
0.198234
-0.195293
0.195587
-0.185597
0.211126
-0.158596
0.242053
0.00356131
0.304136
0.214427
-0.0855213
0.240314
-0.0138112
-0.22793
0.229192
-0.0138765
-0.243847
0.242343
-0.00833142
-0.259175
0.226368
-0.00570926
-0.271642
-0.268006
-0.389182
-0.121621
0.260877
-0.0166297
-0.430735
-0.012236
0.411652
-0.00493312
-0.411336
-0.00176982
0.400891
-0.00231486
-0.404034
-0.000146519
0.394749
0.00501219
-0.400132
0.0172468
0.327676
0.0130481
-0.349508
0.396005
-0.409857
0.394546
-0.401787
0.402573
-0.401733
0.457342
-0.329535
0.161436
-0.213507
-0.138109
0.239599
0.0248637
-0.135587
0.158817
-0.427699
-0.161195
0.509446
-0.0219065
0.0095034
0.017526
0.0793007
0.364838
-0.0847505
-0.0102657
-0.0417254
0.163749
-0.379239
-0.379634
0.847746
-0.0410227
0.281412
0.458062
-0.00559877
0.00278064
0.00378235
0.00229
0.00111944
0.000442993
-0.000119617
-0.00116671
-0.00286222
0.00450543
-0.00151747
-0.132608
-0.130838
0.0138544
0.0833957
0.00473793
0.127224
-0.152172
-0.0113971
-0.0350487
0.235908
0.19406
0.0539665
0.151733
0.0980838
0.0745852
0.162906
0.0822468
0.0882359
0.165742
0.0720057
0.13886
0.188405
0.21358
0.00917731
-0.156551
0.00863379
0.104291
-0.126339
-0.135548
0.0193831
0.0560103
0.0308195
-0.106084
-0.116593
0.0218204
0.0347306
0.041858
-0.115054
-0.109165
0.0220008
0.0228322
0.0662744
-0.126276
0.164765
-0.355188
-0.476096
0.410394
-0.480647
-0.0201268
-0.330665
0.00267111
0.322329
-0.0774105
0.384136
0.190422
0.283951
-0.425566
0.166055
-0.366685
0.243984
0.31809
-0.389115
0.00874348
-0.330822
0.291252
0.362538
-0.385394
-0.00236125
-0.323012
0.307546
0.375727
-0.38525
-0.000716208
-0.321473
0.313313
0.380505
-0.38788
0.000117535
-0.323812
0.313191
0.381738
-0.394036
0.000508908
-0.329789
0.308548
0.380263
-0.403293
0.001103
-0.337343
0.299138
0.375586
-0.410834
0.00251866
-0.339622
0.281409
0.351303
-0.0766159
0.156439
-0.376439
-0.383885
0.852944
-0.0293628
-0.0321656
0.0196124
0.0855964
0.362486
-0.0668817
-0.00655846
-0.0745838
0.149026
-0.383546
-0.377248
0.848058
-0.0494688
0.281486
-0.0105829
0.00467859
0.00453754
0.00291709
0.00151676
0.000657738
-1.69473e-06
-0.00107711
-0.00259964
0.00449654
-0.001391
0.105378
-0.116963
0.116553
-0.105871
0.000211464
0.105982
-0.100164
-0.000562219
-0.126159
7.08155e-05
-0.106005
-7.95306e-05
0.0999058
0.0039297
0.117829
-0.00962108
-0.127391
0.000417715
0.125985
-0.000130126
-2.06584e-05
0.223156
-0.3836
0.383139
-0.378956
0.398976
-0.408271
0.427075
-0.425925
0.432889
-0.431274
0.435265
-0.433679
0.438088
-0.434995
0.441763
-0.434648
0.444074
-0.426763
0.438254
-0.234957
0.00494637
0.23716
0.00639322
-0.427533
0.415355
0.00215551
-0.431353
0.424749
0.00146333
-0.429379
0.425506
0.000969811
-0.42609
0.424006
0.000672826
-0.423262
0.421506
0.000699324
-0.420156
0.416636
0.00112049
-0.412648
0.401716
0.0012727
-0.383642
0.00022599
0.383512
-0.401965
-0.00180311
-0.398382
0.378382
-0.000708544
-0.225056
-0.0146222
0.228929
-0.397261
0.383633
-0.404059
0.406018
-0.413422
0.41313
-0.415231
0.416536
-0.4162
0.420594
-0.416649
0.42658
-0.414076
0.432587
-0.400187
0.430029
-0.231533
-0.0497419
0.100683
0.0126969
-0.399139
0.358959
0.00502187
-0.392653
0.379249
0.000711927
-0.380162
0.37836
-0.00047445
-0.37505
0.37524
-0.000664209
-0.373341
0.37413
-0.00190995
-0.37191
0.374419
-0.00482487
-0.366556
0.369282
-0.0111308
-0.341063
0.312254
0.00673631
-0.113151
0.192584
0.316693
0.0100905
0.0394145
-0.0578914
0.162039
-0.499819
0.379308
-0.475719
-0.320339
-0.396077
0.0103151
0.260777
0.288432
-0.41519
0.160559
-0.372613
-0.0276876
0.0199646
-0.150819
0.0129049
-0.00608979
-0.160008
0.0163147
-0.0258383
-0.378057
-0.410022
0.295873
-0.383735
0.00491325
0.350208
-0.381867
0.36893
-0.382514
0.00266585
0.376125
-0.385783
0.377843
-0.392403
0.0146198
0.375691
-0.400238
0.368706
-0.402044
0.0830472
0.0193859
0.0124021
0.0130536
0.00624942
0.0153638
0.388328
-0.410702
0.00326554
-0.333119
0.274697
0.382951
-0.403524
0.00732388
-0.354292
0.24654
0.492744
-0.0578956
0.00939301
-0.411639
-0.379884
0.802722
-0.0498546
0.0133208
0.0224268
-0.244556
0.0559166
0.191971
-0.198693
0.0163181
0.205774
-0.186639
0.00258466
0.200067
-0.191276
-0.000350962
0.191116
-0.185463
-0.00494103
0.198758
-0.179231
-0.0121494
0.209475
-0.14094
-0.0203197
0.247553
0.0939976
0.0695116
-0.0182707
-0.00951266
0.0974826
-0.0428577
0.439183
-0.469371
0.458867
-0.468756
-0.303479
-0.393527
-0.000870343
0.300252
0.37884
-0.392918
-0.002126
-0.304446
0.00254857
0.000220822
0.00331618
-0.000323113
0.00650664
0.0251902
0.0233038
0.0422998
-0.0124635
0.00665957
0.176301
0.280097
0.233601
0.0789627
0.355188
0.141373
0.0663292
0.0198251
0.0125925
-0.00586219
-0.00383186
0.00354951
0.00601261
-0.0557911
-0.000843456
0.0643746
-0.0594324
0.465114
-0.471401
0.468449
-0.481241
-0.31565
-0.404187
0.0011883
0.29849
0.389369
-0.397149
0.000201904
-0.306888
0.00442686
0.00196503
0.000489866
0.000327483
0.000816462
0.00152479
0.00240732
0.00191752
0.00520699
0.00792189
0.0756448
-0.00130785
-0.000503505
-0.00242208
0.000426957
0.00101473
-0.00997173
0.0231621
-0.266983
-0.000668664
0.00367071
0.000179864
-0.00361093
0.408339
-6.16797e-05
-0.42689
0.412607
-0.416665
-0.00146213
0.426551
1.36378e-05
-0.432822
0.420468
-0.421201
-0.000605911
0.43232
0.000256263
-0.435043
0.424092
-0.423181
3.4156e-05
0.435297
0.000481068
-0.437683
0.427646
-0.423901
0.000647179
0.437466
0.000403628
-0.441029
0.431791
-0.422056
0.00154907
0.437535
-0.00082702
-0.442277
0.434045
-0.412127
0.00245716
0.42706
-0.00375977
-0.434652
0.428508
-0.235302
-0.000285561
0.233653
-0.0143446
-0.0298742
-0.0313243
-0.0328004
-0.410298
0.102254
0.0908472
-0.0349074
-0.0719324
-0.0357854
-0.467518
0.0985349
-0.119997
-0.200762
-0.0733244
-0.0576342
-0.0604498
-0.0258372
-0.0115823
0.00198246
-0.000598063
-0.00947651
-0.0117593
-0.00693312
-0.0132413
-0.0260924
0.0045618
0.207039
0.24274
0.238033
0.274255
0.339189
0.322928
0.252562
0.254225
0.165868
-0.14751
0.0476143
-0.0173067
-0.0121207
0.043218
-0.128602
-0.000349849
-0.000202165
-0.000415329
3.30338e-05
-0.0812377
-0.0925528
-0.0917247
-0.0822329
0.0815209
-0.0692028
0.0025683
0.0921473
-0.0795155
-0.0798391
0.00254739
0.0918087
-5.1294e-06
1.54678e-05
4.13658e-05
4.61576e-05
-0.00242432
0.00325699
-0.00165937
-0.000911834
-0.000111172
0.000510846
0.0012695
0.00536419
0.00395345
0.00209998
0.00939704
-0.0026693
0.0563321
-0.0803715
0.476344
-0.491932
0.490006
-0.0101658
-0.143925
-0.021552
0.0396477
-0.00424065
-0.00939775
-0.00487575
-0.0276665
-0.0577658
-0.115131
-0.263108
-0.269012
-0.669905
-0.315887
-0.276169
-0.00936919
-0.108876
0.0856653
-0.541712
-0.323746
-0.151472
0.245334
0.019765
0.012798
-0.2565
0.271458
0.0015994
-0.0321172
-0.28179
0.272764
0.000476492
-0.0358118
-0.275004
0.271855
0.00233721
-0.0586934
-0.2624
0.193833
-0.154521
0.126621
0.0959877
0.283308
-0.133125
-0.0770332
0.042087
0.170488
-0.557524
-0.0310204
-0.326417
0.284611
0.262265
0.250229
0.314156
0.151832
0.0344241
0.121332
0.183439
0.303027
-0.140922
0.0291042
0.224512
-0.193003
0.000233437
0.196174
-0.198632
-0.0024816
0.190071
-0.193968
-0.00144945
0.188667
-0.191724
-0.00127052
0.187877
-0.192793
-0.0026928
0.18139
-0.203407
-0.0160393
0.153924
-0.235463
-0.0876912
-0.00379075
-0.317131
-0.196352
0.114554
-0.31247
0.345741
-0.367019
0.0103041
-0.384544
0.396633
-0.00603006
-0.228698
0.0146026
0.225397
-0.222969
0.000790692
0.00131639
0.000386937
0.000311677
0.000481126
0.000447243
0.000155691
0.000335151
0.000876346
0.00121277
0.00380364
0.00053745
0.06108
-0.0642256
-0.00183567
-0.000444562
0.0026786
0.000361125
0.300503
0.387066
0.00247428
-0.320465
0.313563
0.000244533
-0.323043
0.312563
0.000641719
-0.330103
0.307103
0.00126402
-0.340629
0.296845
0.00251352
-0.348097
-0.0152072
-0.0121019
-0.0659107
-0.0654985
-0.106373
-0.0516391
-0.0253342
-0.0114136
-0.00763907
-0.0150073
-0.0276434
0.00174707
0.201975
0.234669
0.227856
0.323489
0.193641
0.00212473
-0.0220429
-0.0116276
-0.00610863
-0.00957999
-0.022279
-0.0477942
-0.0989993
-0.232703
-0.247684
-0.44086
-0.332044
-0.104632
-0.105396
0.224426
0.0262962
-0.0275323
-0.0218902
0.11109
0.00459223
-0.0885109
-0.0847092
0.0877747
-5.5253e-05
-0.097889
-0.093689
0.0768093
-0.000396127
-0.121693
-0.116113
0.0371664
-0.154025
0.0980368
0.0950431
0.0994767
0.0865085
-0.135181
0.00947854
0.0500776
-0.153158
0.0367614
-0.147899
0.17379
-0.402146
-0.0215847
-0.386971
0.262951
0.270896
0.271186
0.266126
0.261411
0.264571
-0.418645
-0.025306
-0.377669
0.27057
0.289736
0.271744
0.285994
-0.021337
-0.402707
-0.400166
0.174198
0.272184
0.240421
0.237981
0.296293
0.283801
0.227485
0.0692069
0.151213
0.061614
-0.032757
0.0757723
0.0116212
-0.0552684
0.0573775
0.00251317
-0.0569725
0.0564476
0.000368849
-0.0580216
0.0556712
-0.000146593
-0.056234
0.0573477
-0.000747668
-0.0576671
0.0555105
-0.00380396
-0.0603533
0.05263
-0.0140559
-0.0803003
0.0307515
-0.0638715
-0.155106
-0.07403
-0.230258
-0.277435
-0.283162
-0.190683
-0.140156
-0.215498
-0.0090808
0.157578
-0.119061
0.01157
0.130627
-0.130277
0.00549951
0.136143
-0.139632
-0.00461948
-0.00938533
-0.242142
-0.000773782
-0.392713
0.000462215
-0.3892
0.00208317
0.407269
-0.413396
0.000485449
-0.410252
0.00480121
0.416477
-0.377607
7.81915e-05
0.378294
0.00197966
-0.377979
8.96863e-05
0.378599
0.00130735
-0.378514
0.000126556
0.378797
-0.000671829
-0.379201
0.000212505
0.379224
-0.00101518
-0.379872
0.00056722
0.380022
-0.00567267
-0.376657
0.00277873
0.377062
-0.00764314
-0.00841764
-0.470278
-0.339917
0.00782506
0.437966
-0.00287478
-0.465018
-0.322604
0.00646296
0.454534
-0.00093907
-0.462134
-0.317535
0.00244746
0.458394
-0.000695168
-0.460575
-0.314704
0.000199577
0.460518
0.000644422
-0.457632
-0.312817
-0.00192129
0.461307
0.000769711
-0.452964
-0.309821
-0.00543719
0.464338
0.0030064
-0.434777
-0.30191
-0.0057679
0.471661
0.0105675
-0.377887
-0.267135
0.0247874
0.497429
0.060078
-0.0430311
0.114967
-0.196902
-0.318368
-0.00322233
-0.0891026
0.00138738
0.272964
-0.0225423
0.00382425
-0.230031
0.00102642
0.3937
-0.384894
-0.00241312
-0.387626
0.0108036
-0.372031
-0.000721212
0.374213
0.00839411
0.00304329
0.000769557
0.00446345
0.405072
0.0027797
-0.00346288
-0.100673
-0.000282617
0.108808
-0.000151539
0.000356725
0.000490743
-0.0173321
-0.0200328
-0.0143608
-0.156935
0.0157838
-0.0257238
0.00240458
0.00274905
0.00486469
0.356483
0.294197
0.00168322
-0.00318214
-0.0133437
-0.0159693
0.261081
0.00963168
-0.332601
0.297969
-0.00216206
-0.32253
0.309748
-0.000644464
-0.000695415
0.00111113
0.00408226
0.00124997
0.00269139
0.00560216
0.00265279
0.00134113
0.00114382
0.00451836
0.000336757
0.000983285
0.00242621
-0.329689
0.290187
0.460168
-0.47531
0.468727
-0.474222
-0.00116956
-0.373493
-0.00357304
0.376745
-0.00467192
-0.37055
-0.0118818
0.388292
0.0231622
0.029047
-0.264898
-0.000915171
0.284497
-0.298484
-0.000680953
-0.491945
-0.000940546
0.490329
-0.429973
-0.000188385
-0.435421
0.000123644
0.435513
-0.430455
-5.43005e-05
-0.427841
-5.5066e-05
0.428106
-0.440392
-0.000229556
-0.419443
-0.00131599
0.418779
-0.418216
-0.00373773
0.414718
-0.409007
-0.00772848
-0.00983048
-0.00226921
-0.000979507
-0.000131456
0.000151169
0.000439827
0.00127959
0.00264039
-0.00457251
0.00119877
-0.105483
0.117172
-0.115825
-0.108362
0.0010848
0.000651218
-0.00225279
0.00634646
0.102768
0.000936109
-0.00122318
-0.00956659
0.0125288
-0.010973
-0.15371
0.0150141
-0.0325817
0.230502
0.0111726
-0.011031
-0.00931144
0.00612943
9.09328e-05
0.078809
0.0798521
-0.00240668
0.068117
0.10537
-0.00181774
-0.00229393
-0.00236358
-0.000816162
0.00815303
-0.122504
0.313474
0.018267
-0.467774
-0.00298813
0.473693
-0.415651
-0.00207477
-0.429096
-0.000210318
-0.423604
-0.000174534
-0.42509
0.00093098
0.426062
-0.437086
0.000181162
-0.418348
0.000632656
0.419022
-0.419047
-0.000386376
0.419376
-0.000270165
8.96366e-05
0.000453916
0.00114827
0.00187397
0.00249055
0.000134929
-7.53103e-05
-0.00253135
-0.00241303
-0.00910659
-0.0114638
-0.00240256
-0.00246992
4.08835e-05
5.35414e-05
0.000307033
0.000130195
0.000329954
0.000262453
0.000337669
0.000404792
0.000383364
0.000263674
0.00156741
0.00191205
0.00240024
0.00902465
-0.000610132
0.0640412
-0.329936
-0.0835232
-8.95057e-05
-0.031177
0.14182
-0.144694
-0.470361
-0.170355
-0.00271754
0.0411949
-0.000181421
-0.333522
-0.141378
-0.0935111
0.21326
0.025722
-0.0235708
-0.0413254
0.12024
0.00437229
-0.0822764
-0.102418
0.102904
0.000228782
-0.0909641
-0.107945
0.0954275
0.000563217
-0.116955
-0.122344
0.0257024
-0.0070655
0.00114104
0.00145133
0.410546
-0.371244
0.00251501
0.384038
-0.0139526
0.0102798
-0.485246
0.00182302
-0.301274
0.309146
-0.00257358
-0.29381
-0.511714
0.442284
-0.0277992
0.0448574
0.166375
0.00172129
0.358236
0.266153
0.299633
-0.397715
0.00472675
-0.33692
0.0105228
-0.373043
0.00807621
-0.357419
0.0104109
-0.359191
0.00911224
-0.38332
0.279361
0.27315
-0.0192209
-0.481438
-0.387094
0.171009
-0.118976
0.149376
0.0839169
0.0997128
-0.146231
0.0412094
0.0312708
-0.157848
0.062284
0.114208
-0.136868
0.214587
-0.114974
0.0179041
-0.127063
0.0221138
-0.138577
-0.108594
0.0212422
-0.00879151
-0.0020084
-0.00137588
-0.00029671
0.000320715
0.00038961
0.000521806
0.00125681
0.00258186
-0.00462845
0.00129751
-0.0689549
0.0814132
0.000592962
0.0164252
0.0117861
0.00949506
-0.118506
-0.00869662
0.126634
-0.104252
-0.0570695
0.128459
-0.139943
-0.191226
-0.215836
0.152196
0.157153
-0.00942032
-0.013247
-0.0429134
0.0049915
0.16111
-0.0292962
-0.0377397
-0.0212869
0.11533
0.115413
-0.0379138
-0.029028
0.148269
-0.0814038
-0.172362
-0.0818304
0.158716
-0.0159019
-0.016871
-0.0206242
-0.00547586
0.00170514
0.272566
-0.0230111
0.0104819
-0.000450137
0.000340601
0.00056038
0.000344913
-5.18482e-05
-0.000707817
-0.00177262
-0.000238323
-0.00125534
0.000344398
-0.0112162
-0.00417417
0.00616575
-0.0157996
-0.00757488
-0.00748378
-0.209351
0.201186
-0.00575843
-0.00471353
0.00982943
-0.00487611
-0.00448665
0.0340682
0.0709071
0.0362819
0.252596
-0.127119
0.0163517
0.133011
0.167795
-0.0664574
0.00673779
-0.00242054
0.0110136
-0.00269098
0.00127582
-0.0191776
-0.00378567
0.000144905
3.67699e-06
-0.000510794
-0.00118702
-0.000813778
-0.0020596
0.00146127
0.00278507
0.000599568
-0.00522884
-0.00107327
-0.000192338
-0.000151304
-0.000307347
0.000638049
0.00752684
0.00233933
0.00386693
0.00221641
0.000846406
2.77505e-05
0.000758305
0.000798788
0.00168433
0.00294996
-0.406522
0.369658
-0.372075
0.373039
-0.372772
0.00191948
-0.412602
0.412432
0.00440333
0.00290381
0.00179529
0.000791942
0.40323
0.00243375
-0.003751
0.127566
-0.00275317
0.00238263
0.0114383
-0.0188099
0.135012
0.106024
-0.0468866
0.0186475
-0.000397326
-0.000167845
0.0692147
-0.00238069
-0.000140433
0.048835
-0.147737
0.0428373
0.000513831
0.0171545
0.0125504
0.00133579
-0.0131061
0.00531191
0.0115408
-0.046985
-0.0431494
0.135476
-0.057206
-0.104147
-0.0189758
0.127924
-0.00852552
0.0115212
0.00920554
-0.00641457
-0.000349473
0.00251998
0.00920613
-0.00363053
-0.00402913
-0.00106869
-0.000620926
-0.000170994
0.00116349
0.000737342
0.000630313
0.000418682
0.414716
-0.415156
0.373598
-0.374151
0.374692
-0.376446
0.00183199
-0.417742
0.41612
0.00136567
0.000555269
4.7537e-05
-0.000346658
0.000557334
-0.00103854
0.000549135
0.000238533
0.000440395
0.000340211
0.000647034
0.000222538
0.000681595
0.00200627
0.01119
0.010124
0.0364121
0.00173837
0.000742742
0.000143265
-0.00074851
-0.00268958
-0.00112224
-0.00112733
0.000127978
-0.000258138
-0.000203335
0.000244339
0.000272108
0.000261919
1.55833e-05
-0.00108846
-0.00288505
-0.00301988
-0.00117612
1.64127e-05
0.000111081
0.000196386
0.000302437
0.000414538
0.000732118
0.000628626
0.000587305
0.00130099
0.00110736
0.000607438
0.00176449
0.0033909
0.00138709
0.00204737
0.0490651
-0.0100024
0.00442564
0.00143143
0.00535296
0.108427
-0.0050426
-0.0156603
0.0776493
0.0233211
-0.33366
-0.116116
-0.253709
0.227536
-0.154952
-0.165912
0.203695
-0.269772
-0.0145207
-0.0197494
-0.224467
0.197696
-0.00313635
-0.0110179
-0.00113188
0.00403998
0.00565572
0.082658
0.0258157
-0.153331
-0.131832
0.250218
0.0249151
-0.0591818
-0.0171811
0.103312
0.00337114
-0.118045
-0.076531
0.0777083
-0.000279495
-0.123585
-0.0849345
0.0675224
-0.00111858
0.107628
0.103532
0.00618889
0.129522
-0.125938
0.000485646
-0.113688
-0.000636445
-0.00261568
-0.000444952
-3.65648e-05
0.000178607
0.000197545
0.000172169
0.000138361
4.11498e-05
-0.00103784
-0.00282739
-0.00145432
-0.322039
0.307956
-0.000627117
-0.320754
0.313628
0.470971
-0.475968
0.472105
-0.481942
0.000252746
-0.379276
0.00258033
0.375244
-0.000382386
-0.37499
-0.000193591
0.374957
0.00195371
0.00221982
-0.276151
0.000756591
0.280314
-0.301869
0.000450173
-0.49252
0.000430645
0.495067
-0.431696
-0.000149825
-0.434963
0.000460222
-0.430638
-0.000687906
-0.424633
-0.00131158
0.420941
-0.436736
0.000103953
0.418742
-0.00118091
-0.412168
0.411165
-0.00121739
-0.425729
0.430287
-0.416253
-0.000149874
0.000426627
0.00186697
0.00156736
0.000808453
0.000270397
-0.000216311
-0.00107173
-0.00118341
-0.000178511
0.000808779
0.00204572
0.00210098
0.00457352
-0.322863
0.313837
0.00101021
-0.32834
0.310079
0.472512
-0.493338
0.470538
-0.5033
0.0126997
-0.430325
0.0397148
0.374543
0.00240439
-0.3939
0.0113728
0.377159
0.000600737
0.00696643
-0.273707
0.00563946
0.292009
-0.309323
0.00154738
-0.4899
0.00272062
0.495512
-0.424296
-0.00168201
0.415596
0.00378429
-0.469961
0.274387
-0.00110065
-0.31637
0.281032
-0.294727
0.0153589
-0.0361085
-0.0180121
-0.0312902
-0.0558282
0.349858
-0.496595
0.107585
-0.0795587
-0.0309822
-0.0118803
-0.00446341
-0.00265337
-0.00420771
-0.00114744
0.0656433
0.67725
0.339549
-0.176285
0.118856
0.060777
0.386528
-0.335248
0.364167
-0.0216821
-0.237573
0.0115278
0.429833
-0.406408
-0.00108353
-0.403407
-0.000102058
-0.408038
-0.000254582
-0.41782
0.00181143
0.421693
-0.431642
0.000413269
-0.416413
0.00171397
0.41845
0.00160573
0.00108899
0.438822
0.0024419
0.433477
-0.000341272
-0.00276485
-0.00521542
-0.0177349
0.0028268
0.237606
0.0165215
0.0206587
0.081903
0.143926
-0.199051
-0.000565978
-0.295334
0.0010274
-0.489164
-0.00226014
0.48637
-0.426908
-0.000793897
-0.434269
-4.16529e-05
-0.428495
-3.87047e-05
-0.42715
0.000360156
0.42769
-0.439253
-9.21672e-06
0.439737
-6.77473e-05
0.000400611
0.439742
-2.92256e-05
-0.000163851
-0.000850424
-0.00226512
0.422814
-0.00449158
0.398749
0.0238405
0.012196
0.300854
0.011924
0.00711232
-0.000554171
0.305754
0.00115412
0.0047697
-0.275243
-0.000383153
-0.300498
-0.000151458
-0.492186
-0.000196538
0.492624
-0.431284
-1.54227e-05
-0.435717
0.000276854
-0.431164
-0.000272053
-0.427484
-0.000573003
0.427055
-0.440691
-0.000449919
0.43469
-0.000940143
-0.000404368
5.04187e-06
0.000144966
0.000234113
0.000427862
0.00124485
0.00232985
0.00126073
0.00124156
0.000621385
0.00109128
-0.00153191
-0.000569965
0.0001873
0.000441599
0.000523412
0.000474434
0.000337264
0.000546397
0.00103188
0.00307854
0.00258104
-0.326565
-0.00847263
-0.3199
0.355468
-0.00727656
-0.337401
-0.345074
0.362347
0.338785
-0.00714263
-0.322077
-0.367845
0.385027
-0.34595
-0.00875902
-0.309466
0.348239
0.36628
0.360935
0.353027
-0.00803509
-0.340652
-0.316339
0.00261188
0.345141
-0.00663551
-0.361739
-0.329904
0.00114531
0.341415
-0.00240042
-0.370322
-0.336105
-0.345349
-0.353415
-0.00273735
0.352314
0.359771
0.00119405
0.334553
-0.00267343
-0.327963
-0.376787
0.382962
0.00109934
-0.302276
-0.454083
-0.00619169
0.313591
0.0020898
-0.294852
-0.436315
-0.00705011
0.33067
0.389459
-0.280052
0.0225597
-0.272237
-0.00964129
-0.275927
0.0222376
-0.271411
-0.00959431
-0.277004
0.0233553
-0.276538
0.384761
0.334718
-0.01048
0.0150699
-0.00134335
-0.206462
-0.247468
-0.23432
-0.259785
-0.247359
-0.249324
-0.256139
-0.21034
-0.3255
-0.257358
-0.235221
-0.24675
-0.166696
-0.0720105
-0.0893836
0.147953
-0.165468
0.389353
0.393668
0.390636
0.392294
0.40661
0.382192
-0.160307
0.129237
-0.0717175
-0.166851
-0.0898293
0.161248
-0.0166959
-0.00343131
-0.00343345
-0.00158581
-0.000685852
0.000385897
0.000334154
0.357648
2.8835e-05
-0.349181
-0.357566
-0.330763
-0.381142
-0.000205809
0.332504
0.381426
0.000419887
-0.305139
-0.460132
-0.00223613
0.309667
0.463111
0.0015176
0.0602328
-0.059158
-0.000649864
0.0601185
-0.0595495
-4.79866e-05
0.0609644
-0.059094
0.0021994
0.0676063
-0.0533248
0.0127976
0.0947069
0.0336341
0.0189714
0.00613008
0.00303909
0.00038499
4.78213e-05
-0.000543938
6.32919e-05
-0.00130116
-0.00083224
-0.00273861
-0.0611443
0.465182
0.00309292
0.0574013
-0.0796491
-0.0125077
-0.0216221
-0.00853593
-0.0521347
0.0360044
0.01079
-0.37935
0.0234436
-0.261877
-0.0106823
0.0155576
0.000703462
-0.166147
-0.282973
-0.275383
-0.23046
-0.0727644
-0.155421
-0.0627088
-0.123984
-0.352461
0.0601476
0.497358
0.379781
0.409092
-0.159903
-0.340513
-0.205512
-0.000490612
0.034651
0.0226557
0.013057
0.00508695
0.00181779
-0.00013697
-0.306415
-0.464653
0.462467
0.308707
0.000256769
0.00182732
0.0056489
0.00621051
0.0195804
0.00728513
0.00147027
-0.000358075
3.34849e-05
0.379361
0.00169434
-0.332239
-0.384711
-0.305802
-0.471804
0.00107008
0.30972
0.462743
0.0023708
0.00153827
0.00163444
0.00112898
0.00173946
0.00301675
-0.421462
0.377591
-0.378292
-0.00583454
0.00249173
0.00120613
-0.00259678
0.000613551
0.000177611
0.417389
0.000608754
0.00040509
0.417305
0.00267442
0.000251709
0.000862256
0.0015507
-0.000903607
-1.461e-05
0.000488605
8.95539e-05
0.000311347
0.000140567
4.14908e-05
0.000374103
0.00136954
0.000604879
0.000138545
6.19007e-05
-0.000770374
-0.000245368
-0.000258169
-0.000848658
-6.61894e-05
0.000242453
0.000269722
-0.000366541
-0.000284294
-0.000139478
-0.000100631
-0.00364169
-0.00376119
-0.016776
-0.00638874
0.367877
-0.00235408
0.000297654
0.000210572
-0.00161287
-0.00173476
-0.000914158
-0.00684948
-0.00623808
-0.00466755
-0.000837227
-0.33512
0.30177
0.00471162
-0.333321
-0.0135561
-0.0134851
-0.0648744
-0.0827957
-0.303954
-0.306348
-0.491483
0.123199
0.04683
0.254392
-0.0895698
0.132022
-0.0148118
-0.150783
0.135718
-0.00339136
0.105774
-0.0034533
0.127642
-0.140868
-0.0118954
-0.00374555
-0.0046153
0.00202909
-0.0170155
0.113245
-0.00565591
0.0042088
0.00422871
0.00270709
0.00154316
0.000669705
0.000572418
0.00594988
0.00511535
0.0128242
0.0111039
0.0318021
0.00657609
0.00295881
0.000986433
0.301528
-0.304271
0.00112518
-0.492723
0.00135423
0.498031
-0.430547
-0.000628794
-0.431192
0.000458886
0.426194
-0.000278961
1.59493e-05
0.00031152
0.000438726
0.00110981
0.00240731
0.00140191
0.000868323
0.000480931
0.000186795
9.3501e-05
0.00014272
0.000165628
0.000154452
0.421823
8.33935e-06
0.427567
3.30763e-05
0.409935
0.393512
0.00159425
0.391939
0.236367
0.00623057
0.0013544
-0.000158639
8.10568e-05
-0.000825714
0.429186
0.00151911
-0.00106809
0.279392
0.000145602
0.000557663
-0.000353139
0.301594
0.00102445
0.00341049
-0.275375
0.00271212
0.284952
9.77013e-05
0.0020977
0.00100049
0.000669556
-7.47664e-05
0.431197
0.000159418
0.430601
2.72212e-06
0.000645025
0.432215
0.000295539
0.436505
-0.000129396
0.00182736
0.43261
-0.00162019
0.301243
-0.000418006
0.00593829
-0.277339
0.009485
0.297143
-0.00971913
-0.000281879
-0.0106122
-0.0359715
-0.0843029
0.00312209
-0.0122585
-0.00530483
0.00405669
0.00367092
0.430512
-0.000634249
-0.00137088
-0.00134617
-0.000287048
-0.00485224
-0.000237688
0.000665075
0.000511302
0.43612
0.430226
-0.000329059
-6.701e-05
-0.000874281
-0.00167986
-0.00186347
-0.00799279
-0.00299474
-0.00310601
-0.00164963
-0.000632655
0.438698
-0.00124913
-0.000216568
0.000389075
-0.00024187
-0.0014935
-0.00543276
-0.0164734
-0.00395436
0.000153441
0.000469003
0.0018803
-0.00209989
0.0024497
0.00419647
-0.00733275
0.0324091
0.0671695
-0.0488288
0.348016
-0.0014443
-0.0229193
-0.033775
-0.0186357
-0.00629448
0.000155291
0.00657006
0.0187316
0.0335945
0.0361349
0.00069091
0.0176793
0.0175209
-0.325565
-0.165612
-0.340943
-0.16734
-0.000427376
0.0211264
0.0053035
0.00220507
0.31909
0.37918
-0.00140387
0.00307977
0.00126578
0.00251768
0.00137977
0.00298303
-0.00383754
-0.0204214
0.152098
0.348803
0.0145821
-0.000477538
0.000989978
0.00101594
0.00051559
0.000597423
0.000256636
0.000259144
0.000322851
-0.000533389
0.000167475
0.000137177
0.000922817
-0.000413489
-0.000746894
-0.3611
0.00262712
-0.3517
0.33939
0.00690637
-0.353921
-0.365837
0.34873
0.326432
0.00463623
-0.333294
-0.389601
0.373192
-0.000771924
0.312026
0.461102
0.00512236
-0.00104677
-0.00136886
0.00125027
0.00199168
0.00474018
0.0771609
0.121838
0.18688
0.441816
0.028874
0.228639
0.33851
-0.0157148
-0.00438655
-0.0109883
-0.00283077
-0.00167479
-0.00031292
0.330878
0.354943
0.346885
0.336824
0.00280963
-0.376822
-0.343074
-0.00096092
0.332125
0.00729259
-0.379296
-0.34877
-0.00230267
0.321056
0.342178
0.304583
-0.001639
-0.00242167
-0.00270233
-0.00081318
0.000260143
0.00166107
0.000322708
0.000267129
-0.000810724
-0.000344661
-0.00311736
0.0294584
-0.00323089
-0.00203192
-0.00491419
-0.00389462
-0.00241235
-0.00410942
-0.00175808
0.0842148
-0.00200357
0.00187472
0.000256772
-7.90469e-06
0.00508882
0.00445638
-0.0315853
0.181248
-0.0788912
-0.306222
-0.387582
0.0290737
-0.177457
0.0737251
0.0233429
-0.109344
-0.117609
-0.0128222
-0.0193976
0.128912
0.118156
-0.0110934
-0.114939
-0.0019899
0.115434
-0.00058355
0.00150119
-0.000113684
0.00134474
0.00330085
0.0034349
0.00236162
0.000688669
0.000547566
-0.00132728
-0.00114698
-0.000182295
-0.000690278
-1.54679e-05
-0.000149961
0.000879014
0.00185573
0.00173489
-0.00235251
0.00311321
0.00657824
-0.0122561
0.384675
-0.0252315
0.0184123
-0.428115
0.00530943
0.00467621
0.0350746
0.00405813
0.00859675
0.026295
-0.00193575
-0.000736087
-0.00259233
0.00680288
0.0740871
-0.00479722
-0.00276375
-0.00141527
0.00189363
-0.188049
0.218029
-0.00651811
0.00139393
-0.00893634
-0.0224159
-0.025356
-0.00471266
-0.00223485
0.0903584
-0.00230588
-0.00281168
-0.00530579
-0.000883493
-0.00310333
0.0796362
-0.00519671
-0.00297999
0.00681236
0.00520137
-0.0011834
-0.0013277
-0.000864829
-0.00219639
0.00202986
0.00553829
0.00443241
0.0035865
-0.00873788
0.0173858
0.0174688
0.0201646
0.026815
0.384922
0.0523232
0.00805524
-0.0127318
-0.0044011
-4.54266e-05
0.00406988
0.0117428
0.00170184
0.376501
0.315815
0.00109779
-6.27298e-05
0.000349394
0.000298885
0.314131
0.374421
0.000179652
-0.374272
-0.339539
0.339151
0.000289394
0.349954
0.000283302
0.00769306
0.0211077
0.00205941
0.00199208
0.00605373
0.00031398
0.000683923
-0.0058927
-0.0183822
-0.00532615
0.312671
0.333788
0.320943
-0.00598844
-0.00202083
-0.000400123
-0.000155077
-0.000390356
0.371199
0.313063
-0.000199092
0.000384968
0.000126411
-0.000729915
-0.000905072
0.310958
0.363142
-0.00188961
0.000950969
-1.70631e-05
-0.00051363
-0.00192355
-0.0103835
-0.054731
-0.353671
-0.127592
-0.0249097
-0.00331798
-0.000392853
0.000192605
-0.00017058
-0.000485762
0.000939346
-0.00532543
-0.0136728
0.0125954
-0.0167109
-0.0329442
-0.0220828
0.0127542
0.229792
0.330562
-0.0161658
0.00297362
0.21984
0.332355
0.00211605
0.209305
0.345648
0.164871
0.00105491
-0.00201184
0.354645
-0.00221474
0.02026
0.121355
0.0209165
0.0447583
0.0474209
0.0450562
0.0596714
0.0376373
-0.00100475
-0.00492361
0.0458587
-0.021588
-0.0100374
-0.00779406
0.049002
0.00475376
0.0338659
0.0296782
0.207409
0.175074
0.194391
0.185596
0.190138
0.0411005
0.00667047
-0.000791743
-0.00696179
-0.0838442
-0.283349
-0.267871
-4.00295e-05
0.0113018
0.171031
0.000112789
0.431065
0.00325748
0.000585279
0.000188228
-0.000636386
-0.0110849
0.00170543
0.302488
0.433228
0.428765
-0.000218023
-0.0107558
-0.425685
0.0011949
0.0015224
0.00138573
-0.0439324
0.472287
0.0125544
0.00669162
0.00224629
0.00574649
0.0938188
0.00327154
0.214583
-0.253915
-0.0315681
-0.449023
-0.00020523
-0.0212521
0.10626
0.000711794
-0.455402
0.407354
0.00549561
0.230208
0.0153346
0.0888351
0.2144
0.0345185
0.03677
0.00172134
0.00148382
-0.00171676
0.291463
0.013154
-0.0183426
-0.0259947
-0.00834409
0.00211903
0.000448543
0.000189755
0.000342662
0.000403562
0.00012477
-0.00097011
-0.0015163
-0.0135728
-0.00688534
0.243655
0.0197145
-0.408182
0.444769
0.0269698
0.321176
0.00209426
-0.297174
0.30765
0.030245
-0.269521
0.291783
0.00591138
-0.28062
0.286587
0.00371283
-0.282726
0.286045
0.00266678
-0.284049
0.285598
-0.000550972
-0.287016
0.282169
-0.0070988
-0.293547
0.269571
-0.0331739
-0.30857
0.201163
-0.146809
-0.390554
-0.118956
-0.366213
0.0228592
0.239318
-0.241167
0.0137342
0.250196
-0.24756
0.00514217
0.25132
-0.258392
-0.00291135
0.250542
-0.257277
-0.0212681
0.24192
0.253983
0.39153
0.099071
-0.282617
0.0036975
0.415478
-0.000760255
-0.423363
-0.00188014
0.40594
-0.00247927
-0.409916
-7.08028e-05
0.407524
0.000423356
-0.401418
0.00128614
0.413138
-0.0122063
-0.4342
-0.0188646
0.338731
-0.0601495
0.0778454
0.176584
-0.323279
0.329298
-0.391581
0.368856
-0.381025
0.375035
-0.375654
0.377087
-0.373163
0.378821
-0.37191
0.377898
-0.374461
0.379815
-0.372835
0.390408
-0.331913
0.321166
-0.158495
0.313414
0.394034
0.196137
0.290702
0.21199
0.163534
0.107335