/*--------------------------------*- C++ -*----------------------------------*\
| =========                 |                                                 |
| \\      /  F ield         | OpenFOAM: The Open Source CFD Toolbox           |
|  \\    /   O peration     | Version:  2306                                  |
|   \\  /    A nd           | Website:  www.openfoam.com                      |
|    \\/     M anipulation  |                                                 |
\*---------------------------------------------------------------------------*/
FoamFile
{
    version     2.0;
    format      ascii;
    arch        "LSB;label=32;scalar=64";
    class       volScalarField;
    location    "1.2";
    object      gradTz;
}
// * * * * * * * * * * * * * * * * * * * * * * * * * * * * * * * * * * * * * //

dimensions      [0 -1 0 1 0 0 0];

internalField   nonuniform List<scalar> 
5322
(
-0.871012
-0.888406
-0.915852
-0.992797
-0.983473
-0.979189
-0.977053
-0.976751
-0.978688
-0.986059
-0.974447
-0.97709
-0.735309
-1.01375
-1.10852
-0.884934
-1.04605
-0.783164
-1.10274
-1.11299
-1.12032
-1.11562
-1.11662
-1.12297
-1.12351
-1.11788
-1.11899
-1.12488
-1.12613
-1.1213
-1.12201
-1.12495
-1.11819
-1.10115
-1.04781
-0.860727
-0.979335
-0.997826
-1.02998
-0.725598
-0.957804
-0.988469
-0.712579
-0.989922
-0.980244
-0.724422
-1.00364
-0.94739
-0.714791
-0.981334
-1.09925
-0.788422
-1.0732
-1.00778
-0.944521
-0.958102
-1.13694
-0.943227
-0.954337
-0.959088
-1.15079
-0.955935
-0.954723
-0.935439
-1.14999
-0.988084
-0.950181
-0.88844
-1.12272
-1.04902
-0.787066
-1.22605
-1.16766
-1.15106
-1.16327
-1.15761
-1.15702
-1.15295
-1.16801
-1.10597
-1.05226
-0.809172
-0.838743
-1.13331
-0.772597
-1.02742
-1.38741
-0.847928
-0.869116
-0.780804
-0.987204
-0.881365
-0.929914
-0.922596
-1.1205
-0.97106
-0.967329
-0.984988
-1.412
-0.825226
-0.832175
-0.793545
-0.992451
-1.10733
-1.20463
-0.938788
-0.995891
-0.997367
-0.992524
-0.992417
-0.99146
-0.990008
-0.987998
-0.990765
-1.14034
-1.12915
-0.790197
-0.856267
-1.14059
-0.943717
-0.836486
-1.0174
-1.00314
-1.41325
-1.05276
-1.38383
-0.993603
-1.03751
-1.36007
-0.989398
-1.01542
-1.37234
-1.00472
-0.996512
-1.37862
-1.01894
-1.0027
-1.41549
-1.05354
-1.38394
-0.996079
-0.839336
-0.943812
-0.844282
-0.791664
-1.14073
-0.856305
-0.850288
-0.781155
-0.786302
-1.13847
-0.851448
-0.848159
-0.781599
-0.788188
-1.13818
-0.853158
-0.843882
-0.839043
-1.10835
-0.883634
-1.04742
-1.21815
-1.19086
-0.755414
-1.10295
-0.783238
-1.06086
-0.726329
-0.982265
-1.01498
-0.942826
-0.976377
-1.1332
-0.932165
-1.14816
-1.14013
-1.10131
-0.920327
-1.0994
-1.12559
-1.12791
-1.11801
-0.935223
-1.11929
-1.12324
-1.12466
-1.1214
-0.939329
-1.12243
-1.12435
-1.12533
-1.12267
-0.941696
-1.12411
-1.1263
-1.12779
-1.12283
-0.943969
-1.12512
-1.12902
-1.13156
-1.1222
-0.946002
-1.12546
-1.13037
-1.13422
-1.12238
-0.944491
-1.12702
-1.1123
-1.11597
-0.982778
-1.41279
-0.82554
-0.822619
-0.796281
-1.12133
-1.11826
-0.929989
-0.92285
-1.11706
-0.978772
-0.955495
-0.991258
-1.40781
-0.829952
-0.822458
-0.797748
-0.9792
-1.11365
-0.966962
-0.978213
-0.99564
-0.99235
-0.99285
-0.991856
-0.99025
-0.988097
-0.990729
-1.14029
-1.12943
-0.786716
-0.78428
-0.783671
-0.786667
-1.13804
-0.848094
-0.852861
-0.858058
-1.01517
-1.42613
-0.848333
-1.13808
-0.8526
-1.41813
-1.03442
-1.35551
-0.988698
-0.858264
-1.01507
-1.3558
-0.723856
-0.972465
-0.932739
-0.931658
-0.976676
-1.13929
-1.1015
-1.12723
-1.11803
-1.12434
-1.12129
-1.12524
-1.12259
-1.12795
-1.12275
-1.13212
-1.12186
-1.13549
-1.12122
-1.12297
-0.970175
-1.41218
-0.988771
-0.966975
-1.10971
-1.12972
-0.944979
-1.13
-1.12685
-0.946435
-1.12949
-1.12567
-0.944277
-1.12698
-1.1242
-0.94187
-1.12505
-1.12223
-0.939397
-1.12419
-1.11864
-0.935206
-1.12715
-1.09822
-0.920073
-1.14972
-0.943028
-1.14843
-1.09946
-0.92008
-1.14045
-0.976435
-1.13295
-0.940777
-0.732682
-1.01716
-0.885116
-1.15338
-1.10373
-1.12509
-1.12455
-1.12369
-1.12545
-1.12607
-1.12568
-1.12942
-1.12526
-1.13545
-1.12056
-1.14289
-1.11066
-1.12582
-0.975473
-1.39163
-1.02985
-0.931737
-1.19499
-1.21295
-0.914434
-1.21435
-1.20856
-0.916369
-1.21163
-1.20532
-0.91329
-1.2067
-1.20311
-0.910684
-1.20452
-1.20256
-0.908877
-1.2039
-1.20135
-0.906244
-1.20786
-1.19127
-0.893134
-1.21797
-1.04721
-1.10797
-0.981915
-1.03737
-0.905084
-1.06432
-0.72427
-0.826633
-0.94032
-0.863211
-1.18029
-1.14966
-1.10757
-1.1001
-0.91781
-1.14072
-1.1573
-0.898455
-1.13778
-0.999402
-0.950553
-0.934352
-1.37702
-1.11109
-1.0534
-1.41381
-1.01361
-0.944949
-0.965004
-0.937856
-1.14965
-1.0982
-0.930111
-1.12796
-1.11863
-1.12479
-1.12226
-0.926168
-1.12597
-1.12361
-1.12869
-1.12369
-0.926057
-1.13254
-1.12256
-1.13462
-1.12312
-0.923843
-0.930984
-0.930817
-0.93091
-0.931217
-0.927771
-1.13619
-1.12265
-0.944619
-1.13234
-1.12199
-1.1407
-1.1172
-0.941318
-1.13844
-1.09404
-1.21821
-0.936003
-1.38035
-0.839143
-0.802865
-0.816089
-1.07959
-0.875058
-0.779051
-1.13805
-0.761898
-1.09491
-1.13446
-0.759673
-1.11645
-1.12635
-0.756816
-1.12369
-1.1253
-0.755473
-1.11902
-1.11705
-0.755199
-1.12228
-1.11598
-0.755942
-1.11906
-1.10709
-0.754952
-1.1086
-0.849465
-0.819011
-1.02039
-0.890954
-0.993028
-1.03007
-1.14854
-1.16088
-1.15087
-1.15812
-1.12308
-1.12537
-0.937429
-1.1267
-1.12602
-1.12299
-0.93394
-1.11963
-0.928712
-0.87871
-0.881177
-0.783399
-0.913455
-0.886659
-0.850584
-0.991609
-0.984425
-0.973899
-0.982804
-0.763172
-1.24359
-0.688766
-0.924641
-0.981775
-0.95962
-0.964101
-0.992275
-0.97734
-0.975208
-0.994611
-0.96477
-1.02989
-0.905515
-1.01954
-1.02353
-1.15661
-1.15601
-1.16101
-1.15419
-1.12794
-1.12584
-0.942343
-1.12796
-1.13089
-1.12609
-0.93976
-1.12552
-0.928264
-0.880385
-0.879203
-0.781029
-0.911817
-0.901849
-0.863397
-0.910886
-0.88086
-0.845749
-1.01596
-0.903881
-0.781193
-0.985235
-0.989454
-0.978058
-0.97773
-0.92258
-0.895554
-0.88934
-0.781254
-0.973873
-0.961188
-1.10088
-0.928704
-1.12812
-1.12614
-1.11956
-0.935365
-1.11771
-0.924939
-1.12485
-1.1237
-1.12255
-0.939647
-1.12155
-0.924234
-1.12533
-1.12539
-1.12367
-0.942242
-1.12357
-0.924237
-1.12742
-1.12848
-1.12363
-0.944783
-1.12489
-0.923972
-1.12985
-1.13312
-1.1218
-0.946923
-1.12618
-0.923025
-1.129
-1.13674
-1.1206
-0.944661
-1.12863
-0.919379
-1.10938
-1.12003
-0.981185
-0.965241
-0.981347
-0.801204
-0.82565
-0.793455
-0.751485
-1.07642
-0.76642
-1.03422
-0.849959
-0.814426
-1.06369
-1.09046
-0.917124
-0.967336
-0.967349
-0.974162
-0.99323
-0.974004
-0.974676
-0.998105
-0.969736
-0.996479
-0.974884
-0.967875
-0.969328
-0.972403
-0.980117
-0.967949
-0.968662
-0.737002
-1.00662
-0.890964
-0.926655
-0.93099
-0.948856
-0.980444
-1.13584
-0.85628
-1.05507
-1.04178
-1.05301
-1.06858
-0.837148
-1.05168
-1.05543
-1.05042
-1.13692
-0.768294
-0.773348
-0.771982
-0.770753
-0.768277
-0.765556
-1.13873
-0.770745
-0.769934
-0.770204
-1.1388
-0.772032
-1.14347
-1.14494
-1.14256
-1.01364
-1.01182
-0.940025
-0.927418
-0.925573
-0.926792
-0.928014
-0.92891
-0.881033
-0.783085
-0.911027
-0.900972
-0.861569
-1.02763
-1.02308
-1.17294
-1.13765
-1.19924
-0.920169
-0.991263
-0.845176
-1.03864
-0.916801
-0.973279
-0.993379
-0.966609
-0.965457
-0.968178
-1.00553
-0.992407
-0.977497
-0.927501
-0.888249
-0.896825
-0.93306
-0.736644
-0.806964
-1.09231
-0.989218
-1.03547
-1.06163
-0.70293
-0.877572
-0.92556
-1.09384
-0.728463
-0.914162
-0.930669
-1.09912
-0.731397
-0.902675
-0.941608
-1.09505
-0.74522
-0.891868
-0.996826
-1.36192
-1.01707
-0.992468
-1.24792
-1.20977
-0.985038
-0.745166
-1.07325
-1.00855
-0.944048
-0.956108
-0.949283
-0.715116
-0.979604
-1.09975
-0.788196
-1.05296
-0.809628
-0.839487
-1.13371
-1.07484
-0.869748
-1.13932
-1.10537
-0.891732
-1.13064
-1.11753
-0.89297
-1.1255
-1.11985
-0.893422
-1.12197
-1.11982
-0.891867
-1.12045
-1.11889
-0.89283
-1.11764
-1.11877
-0.87739
-1.11343
-1.10224
-0.855089
-1.0613
-0.900454
-1.03608
-0.980751
-1.04686
-1.21836
-1.19056
-0.893134
-1.15556
-0.883285
-1.10846
-1.01675
-0.732832
-0.939588
-0.973123
-1.13321
-0.928083
-0.97487
-0.976253
-0.986772
-0.978584
-0.981101
-0.978561
-0.977455
-0.912362
-0.88548
-0.849847
-1.02981
-1.03117
-0.910366
-0.90689
-0.966773
-0.983114
-1.12635
-1.12766
-0.927951
-1.12194
-1.1247
-0.942438
-1.1238
-1.12674
-0.944865
-1.12488
-1.12934
-0.946724
-1.12509
-1.12986
-0.944396
-1.12483
-0.990009
-0.999059
-0.980237
-0.985931
-0.973549
-0.967298
-0.967641
-0.968751
-0.970355
-0.973483
-0.981303
-0.971003
-0.971808
-0.732561
-0.973126
-0.927637
-0.975986
-0.975097
-0.986412
-0.978402
-0.975658
-0.974371
-0.973389
-0.97294
-0.977071
-1.02207
-1.01627
-0.742613
-1.32598
-0.999501
-0.959326
-0.931904
-1.0991
-0.73265
-0.734435
-0.803868
-1.14586
-0.766449
-0.778006
-0.793065
-1.1524
-0.769948
-0.781489
-0.786215
-1.14759
-0.786325
-0.799819
-0.868563
-1.44789
-1.03074
-1.00634
-1.01113
-1.00203
-0.848819
-0.817771
-0.871754
-1.44254
-0.862478
-0.864372
-1.15003
-0.957518
-0.954196
-0.934553
-0.994558
-0.712089
-0.98456
-0.985309
-0.725934
-0.999797
-0.945748
-0.953755
-0.955738
-1.15869
-1.15481
-1.16509
-1.14927
-0.954729
-0.900965
-0.980733
-1.15181
-0.965291
-0.732739
-1.02507
-0.899455
-0.731501
-1.22501
-0.675949
-0.933402
-0.817856
-1.00445
-1.00996
-0.843364
-1.03281
-1.02241
-0.866066
-1.025
-1.03078
-0.847518
-1.03049
-1.02191
-0.867081
-1.02072
-1.0296
-0.843683
-1.02798
-1.02092
-0.863594
-1.01556
-1.03016
-0.840128
-1.00327
-1.01009
-0.820969
-0.940872
-0.686249
-1.23935
-0.891764
-0.76401
-1.41505
-1.00347
-1.05296
-1.38231
-0.995072
-1.03564
-1.35851
-0.988062
-1.01683
-1.37218
-1.00726
-0.993812
-1.37779
-0.739157
-0.947789
-1.13638
-0.934944
-0.943527
-1.14712
-0.920124
-1.09937
-1.09991
-0.928678
-1.1255
-0.90617
-1.12313
-1.20098
-0.781444
-1.20401
-0.754276
-1.20154
-0.780952
-1.20281
-0.754457
-1.20343
-0.781634
-1.2042
-0.755361
-1.20493
-0.782844
-1.20526
-0.756869
-1.20872
-0.784979
-1.20724
-0.758997
-1.2145
-0.78796
-1.19836
-0.758521
-0.893698
-1.14457
-1.11783
-0.940012
-1.16211
-0.90664
-1.161
-1.12688
-0.933826
-1.16017
-0.906298
-1.15782
-1.12683
-0.931138
-1.15718
-0.904934
-1.1571
-1.12586
-0.929329
-1.15698
-0.903917
-1.15444
-1.12541
-0.92884
-1.15509
-0.903346
-1.15436
-1.12609
-0.929397
-1.15721
-0.90238
-1.15305
-1.13033
-0.934395
-1.14247
-0.890554
-1.18622
-1.14035
-0.950647
-0.859503
-0.825859
-0.725167
-0.982239
-1.03744
-0.900624
-1.06165
-0.852759
-0.886563
-0.898134
-0.924696
-0.928728
-0.970452
-1.13365
-0.932499
-0.974327
-0.940064
-1.1535
-0.893574
-1.19035
-0.783554
-1.20757
-0.755202
-0.986014
-0.97552
-0.963216
-1.14123
-1.01195
-1.41708
-0.852844
-1.13809
-0.848582
-0.856971
-1.05387
-1.04908
-1.04092
-1.04978
-1.05622
-1.42568
-1.013
-0.943348
-0.928551
-0.929844
-0.932557
-1.1294
-1.13094
-0.93404
-0.978338
-0.970158
-0.964071
-1.13989
-0.920554
-1.10121
-1.12618
-0.935539
-1.11853
-1.12386
-0.939856
-1.01785
-0.927881
-0.928831
-0.929088
-0.930287
-0.927871
-0.930125
-0.92893
-0.927401
-0.926882
-0.925678
-0.927596
-0.928791
-1.10173
-1.1263
-1.20714
-1.20092
-1.20331
-1.20133
-0.754566
-1.12
-0.780913
-1.11788
-0.75543
-1.12019
-0.783335
-1.11369
-0.876229
-0.84173
-1.02726
-0.902477
-1.01822
-1.15582
-0.929321
-1.12549
-0.93618
-1.12285
-1.12423
-0.928355
-1.12338
-0.940633
-1.12354
-1.12402
-0.927318
-1.1243
-0.941483
-1.12592
-1.12599
-0.927284
-1.12735
-0.911596
-1.12917
-1.12841
-0.911645
-1.1346
-1.10923
-0.901255
-0.999827
-0.999424
-0.993254
-0.9926
-0.991538
-0.990095
-0.988078
-0.99087
-1.14035
-1.12888
-0.787311
-0.780911
-0.785265
-0.851113
-1.42475
-1.01321
-1.01388
-1.4124
-0.850631
-0.855636
-1.05588
-1.05318
-1.11162
-1.05244
-1.41788
-1.0117
-0.939962
-1.15467
-0.893927
-0.989659
-0.97074
-1.14272
-1.13664
-0.770008
-0.767472
-1.13879
-0.764923
-0.780459
-1.13835
-0.971241
-0.929792
-0.881312
-0.934208
-1.37529
-1.18825
-0.951029
-1.13867
-0.917614
-1.10882
-1.09776
-0.932433
-1.12564
-0.93502
-1.11744
-0.927012
-1.12274
-0.938593
-1.12215
-1.12122
-0.924973
-1.12445
-0.909351
-1.12551
-1.12586
-0.910429
-1.12694
-0.929258
-0.928034
-0.926911
-0.925771
-0.927636
-0.970666
-1.14267
-1.13644
-0.949363
-0.993789
-0.971327
-0.989567
-0.970418
-0.94931
-0.993562
-0.928127
-0.929954
-0.92696
-0.926487
-0.928497
-0.925803
-0.975655
-0.974301
-0.973406
-0.976248
-0.975107
-0.903915
-0.885126
-0.890075
-0.898568
-0.733162
-1.01815
-0.749963
-1.35915
-0.980932
-0.958152
-0.959422
-1.11247
-0.985969
-1.03265
-0.981033
-1.3495
-0.966673
-0.957708
-0.930379
-1.09444
-0.730945
-0.744325
-0.811434
-1.13952
-0.763197
-0.789811
-0.80342
-1.14583
-0.766637
-0.790999
-0.798937
-1.14106
-0.784594
-0.804572
-1.16081
-0.996024
-0.930035
-0.922871
-1.12906
-1.20391
-0.914498
-1.21576
-0.760507
-0.911254
-1.17706
-0.93057
-1.11765
-1.1439
-0.933147
-1.09708
-1.18286
-1.12931
-1.04733
-0.834416
-0.955466
-0.887866
-1.10573
-1.16906
-1.151
-1.1149
-0.936983
-1.10522
-0.929424
-1.11091
-0.936752
-1.10542
-0.930164
-1.11191
-0.939341
-1.10582
-1.17181
-1.14518
-0.954646
-0.84693
-1.00783
-1.1529
-0.844628
-1.01259
-1.03018
-0.990696
-0.863599
-0.862283
-0.867543
-1.43385
-0.868672
-0.957264
-1.37494
-1.03397
-0.993978
-0.844074
-0.857408
-1.15806
-0.796181
-0.795652
-1.15467
-0.981897
-1.00197
-0.997507
-0.992686
-0.99258
-0.991586
-0.990104
-0.988054
-0.990801
-1.14036
-1.12917
-0.764903
-0.768047
-1.045
-1.04089
-1.05261
-1.35522
-1.03479
-0.838904
-0.84409
-0.943473
-0.856364
-0.836841
-1.00323
-1.41551
-1.05303
-1.37512
-0.994619
-1.38157
-1.11168
-1.06952
-1.05344
-1.41282
-0.850728
-0.851277
-1.13847
-0.783367
-0.782868
-0.851448
-0.850628
-0.855025
-1.00866
-1.39024
-1.00921
-1.42415
-1.01259
-1.01361
-0.93428
-0.783695
-0.888325
-0.895089
-0.925058
-0.977682
-0.977447
-0.989337
-0.981421
-0.978826
-0.977693
-0.976868
-0.97651
-0.973334
-0.979456
-0.978342
-1.01258
-0.747185
-0.818854
-0.823491
-1.41279
-0.957501
-0.968478
-0.99871
-1.32238
-0.740045
-0.821805
-0.824288
-0.752468
-0.832137
-0.847338
-1.38757
-0.995077
-1.0274
-0.781235
-0.869198
-0.948418
-0.891605
-0.90347
-0.980395
-1.02383
-1.02143
-0.980622
-0.979059
-1.00769
-1.00008
-0.99243
-0.988318
-0.9864
-0.970691
-0.96757
-0.967293
-0.961339
-0.974473
-0.913735
-0.912293
-0.912258
-0.912451
-0.911974
-0.909195
-1.0025
-0.986824
-0.987442
-0.982745
-0.977831
-0.973921
-0.97338
-0.970254
-0.984992
-0.984123
-1.127
-1.20721
-1.20068
-1.20348
-1.20121
-0.908049
-1.12449
-1.12262
-0.905703
-1.02832
-0.927442
-0.92871
-1.10112
-1.01205
-1.41729
-0.98872
-0.940163
-0.970427
-0.989661
-1.14055
-0.790361
-0.781898
-1.05689
-1.04836
-1.05621
-1.04458
-0.764196
-1.13886
-1.045
-1.0531
-0.857578
-1.06958
-1.04543
-1.04018
-1.05229
-1.05528
-1.11186
-1.05316
-1.05568
-1.05718
-1.0703
-0.789287
-0.856666
-0.943388
-1.14048
-0.844573
-0.838501
-0.989763
-0.971579
-1.14284
-1.13615
-0.94937
-0.971575
-0.929977
-0.881342
-0.783535
-0.87882
-0.781195
-0.925517
-0.92508
-0.926637
-0.9243
-1.12441
-1.1254
-1.20359
-1.20169
-1.20584
-1.20207
-0.911667
-1.1271
-1.12571
-0.909587
-1.03389
-0.879165
-0.780735
-0.879937
-0.78116
-0.927731
-0.924278
-0.929736
-0.925823
-0.930635
-0.925926
-0.93062
-0.928547
-0.879822
-0.784315
-0.925769
-1.03678
-1.036
-1.03438
-1.03257
-1.02837
-1.01203
-0.99307
-0.99162
-1.01677
-0.998056
-0.994107
-1.01879
-1.00029
-0.994286
-0.99181
-1.0131
-1.01224
-0.993025
-0.996054
-0.994591
-0.99745
-0.999109
-0.995744
-1.02023
-1.00151
-0.996629
-1.02067
-1.00152
-0.996162
-1.01729
-1.03302
-0.927626
-1.11422
-0.73942
-1.1667
-0.993909
-0.977371
-1.14306
-0.785986
-1.15708
-1.06697
-1.03601
-0.977243
-1.33997
-0.968934
-0.961514
-0.902551
-1.06977
-1.07991
-0.850161
-0.962011
-1.07081
-1.07907
-0.988738
-0.968043
-1.33215
-0.981479
-1.03899
-1.04514
-1.04776
-1.03951
-0.977338
-1.06966
-0.944391
-0.94175
-1.09522
-0.745768
-0.730043
-0.799056
-1.14134
-0.783989
-0.772883
-0.786297
-1.14808
-0.784939
-0.77637
-0.779415
-1.14303
-0.80062
-0.868811
-1.43716
-1.05829
-0.992501
-0.866207
-0.861026
-1.1546
-0.98109
-1.00173
-0.996613
-0.996516
-0.99561
-0.994074
-0.991662
-0.993728
-1.0129
-1.02828
-0.906465
-1.12283
-1.12398
-0.908753
-1.12434
-1.12492
-1.20332
-1.20168
-1.2055
-1.20196
-0.755623
-1.12066
-0.780738
-1.12249
-0.754699
-1.12081
-0.7804
-1.12094
-0.891124
-0.854407
-1.02461
-0.904164
-1.02475
-1.15516
-0.928818
-1.1247
-0.938737
-1.1278
-1.12676
-0.930023
-1.12379
-0.942245
-1.12812
-0.931414
-1.1245
-0.941
-1.13469
-1.13567
-0.935812
-1.11138
-0.929595
-1.10735
-1.10971
-0.937151
-1.13417
-1.13501
-1.10625
-0.929138
-0.980279
-0.935392
-0.931703
-0.930911
-0.92987
-0.928798
-0.927725
-0.87871
-0.878991
-0.926754
-0.924334
-0.927783
-0.92421
-1.12542
-1.12658
-0.912199
-1.12649
-1.12938
-1.20974
-1.20251
-1.21507
-1.20415
-0.760442
-1.10607
-0.782947
-1.13108
-0.757469
-1.11825
-0.781652
-1.12607
-0.892271
-0.854852
-1.02305
-0.908375
-1.03148
-1.14791
-0.93069
-1.11773
-0.937311
-1.14324
-1.12969
-0.937108
-1.11404
-0.922431
-1.09762
-1.18245
-0.933378
-1.12905
-1.04644
-0.954781
-0.887275
-0.954929
-0.986218
-0.833548
-0.869067
-1.13955
-1.07541
-0.78131
-0.90103
-0.906566
-0.909419
-0.910002
-0.909905
-0.910006
-0.911498
-0.886497
-0.89641
-1.03754
-0.900637
-0.686098
-0.826145
-0.940612
-0.858455
-1.24023
-0.762401
-0.888823
-1.13842
-0.99882
-0.896517
-0.945245
-1.13884
-0.920375
-1.09651
-0.929901
-1.12503
-0.93484
-1.1191
-1.1171
-0.92539
-1.12359
-0.908315
-1.12437
-0.986481
-0.971843
-1.12475
-0.969385
-1.1286
-0.980777
-0.979766
-0.966619
-0.969199
-0.929327
-1.00719
-0.982452
-0.925964
-0.980729
-0.822261
-1.00773
-0.890909
-1.14074
-0.934396
-1.12933
-0.933236
-1.12025
-1.12122
-0.929017
-1.12326
-0.938851
-1.12171
-0.926693
-1.12341
-0.940337
-1.124
-1.12366
-0.925673
-1.12469
-0.974901
-0.973693
-1.12428
-0.971659
-0.970647
-0.973051
-0.977225
-1.13075
-0.970502
-1.1591
-0.973377
-0.960047
-1.00437
-0.991351
-0.984317
-0.963738
-1.15471
-0.992882
-0.85554
-1.02374
-0.903454
-1.15493
-0.92848
-1.12476
-0.93756
-1.12494
-1.12575
-0.928824
-1.12379
-0.941801
-1.12589
-0.928825
-1.12501
-0.942139
-1.12846
-1.12907
-0.930051
-1.12446
-0.930579
-1.02061
-1.01983
-1.00137
-0.995903
-0.994348
-0.991909
-0.993973
-0.993051
-1.01199
-1.01667
-1.03236
-0.927995
-0.92913
-0.930236
-1.03522
-1.02003
-1.01862
-1.00021
-0.998009
-1.01791
-1.01323
-0.93539
-1.12771
-0.929688
-1.12681
-1.1184
-0.927135
-1.12394
-1.12449
-1.11787
-1.11809
-0.929136
-1.12398
-1.12624
-1.1214
-1.1303
-0.932365
-1.1266
-1.10064
-1.0973
-1.09823
-1.09973
-0.932292
-1.12926
-1.1273
-0.935386
-1.1176
-0.929097
-1.12563
-1.12439
-0.939256
-1.12142
-0.92857
-1.1258
-1.1243
-1.12419
-1.12468
-0.926874
-1.12223
-1.1219
-0.939248
-1.12171
-0.928576
-1.12395
-1.12642
-1.12435
-0.936813
-1.12567
-1.15478
-0.929128
-1.12037
-0.933826
-1.12949
-1.15529
-0.934089
-1.10875
-1.0982
-1.15806
-0.945025
-1.13985
-0.920893
-1.14957
-0.943669
-1.14813
-0.920852
-1.14119
-0.944949
-1.15665
-1.09908
-1.1077
-0.918075
-0.971632
-0.963563
-0.968636
-0.741752
-1.00364
-0.954047
-0.97722
-0.978874
-0.737787
-0.965927
-0.932918
-0.95238
-1.00481
-0.741611
-1.38341
-1.01877
-0.992621
-0.855274
-1.13654
-0.964543
-0.93517
-0.9368
-0.962871
-0.899203
-0.996917
-1.13835
-0.836346
-1.01865
-1.383
-0.993252
-1.41259
-1.01368
-0.930033
-0.928824
-0.927732
-0.929296
-1.01976
-0.941038
-1.12405
-0.927473
-1.12476
-1.12549
-1.12424
-1.12769
-0.929012
-1.12406
-1.12582
-0.938265
-1.12495
-1.156
-0.928348
-1.12311
-1.15513
-0.904072
-1.02447
-1.02449
-0.855513
-1.0254
-1.02574
-0.856707
-1.02586
-1.02822
-0.855933
-1.02402
-1.03245
-0.853546
-1.00697
-0.967151
-0.994545
-0.967398
-0.99592
-0.966444
-0.995021
-0.965215
-0.994135
-0.964186
-0.993555
-0.856226
-1.01946
-1.15576
-0.903038
-1.02745
-1.00529
-0.843004
-0.991777
-0.964056
-0.960095
-1.0081
-0.891514
-1.18845
-0.950563
-1.1389
-0.918169
-0.971587
-0.972063
-0.98269
-0.763145
-0.890468
-1.23975
-0.686239
-0.941469
-0.822432
-0.980417
-0.926042
-0.826522
-0.858736
-0.998242
-0.898032
-1.13837
-0.929395
-0.968353
-0.963642
-0.976582
-0.982932
-0.976667
-0.974718
-0.974721
-0.928716
-1.12492
-1.15833
-1.15551
-1.12528
-0.981638
-0.980057
-0.978751
-0.973096
-0.97024
-0.967871
-0.967633
-0.983209
-0.939491
-1.12673
-0.930208
-1.124
-1.1298
-1.12365
-1.16382
-0.929605
-1.12824
-1.15475
-0.906533
-0.755629
-0.989973
-0.976973
-0.981487
-0.995349
-1.1298
-1.21025
-1.20258
-0.783467
-0.881137
-0.880775
-0.782103
-0.928691
-0.924425
-1.12706
-0.929065
-0.924707
-1.12778
-0.914224
-1.03611
-0.931285
-0.932031
-1.0338
-1.0179
-1.02063
-1.00162
-1.00144
-1.02099
-0.99681
-0.999869
-0.996748
-0.995898
-1.01986
-1.01883
-1.01692
-0.997975
-1.01751
-1.03225
-1.03373
-0.910231
-0.988537
-0.986856
-0.972806
-0.974702
-0.980393
-0.971079
-0.969768
-0.963211
-0.975688
-0.924255
-0.986
-0.97809
-0.975814
-0.979193
-0.981754
-0.98721
-0.985947
-0.983425
-0.996739
-0.991547
-1.12679
-1.13173
-0.91487
-1.12748
-1.00368
-0.988458
-0.984575
-0.98952
-0.890656
-0.949759
-1.21051
-1.24731
-0.745079
-0.996516
-1.36219
-1.01678
-0.849057
-1.00185
-1.01293
-0.865587
-0.867873
-1.44992
-1.03679
-1.00453
-1.27771
-1.10225
-1.10367
-1.04439
-1.06626
-0.789406
-1.15905
-0.978897
-1
-0.99625
-1.02163
-1.02126
-1.02016
-0.930939
-0.928668
-0.924216
-0.92898
-0.924423
-0.880859
-0.880504
-0.879705
-1.15775
-1.15434
-0.929671
-1.12347
-0.939399
-1.13299
-1.12705
-0.93217
-1.12203
-0.940663
-1.12545
-0.931881
-0.931007
-1.02054
-1.03499
-1.03586
-0.914687
-1.02069
-1.00153
-1.00136
-1.00015
-1.01932
-0.92875
-0.92725
-0.928422
-1.12868
-0.9704
-1.11812
-0.964171
-1.10101
-1.15085
-0.932666
-0.965486
-0.98024
-0.730975
-0.97071
-0.969813
-0.973253
-0.978436
-1.12633
-0.977839
-0.963763
-1.02355
-0.993406
-0.97583
-0.964719
-1.15545
-0.994242
-0.855683
-1.02494
-0.905735
-1.02721
-0.965889
-0.995116
-0.977125
-0.97583
-0.979941
-1.12632
-0.975326
-1.12469
-0.970466
-0.981463
-1.12746
-0.976616
-1.12578
-0.972115
-0.983
-1.12941
-0.966868
-1.16322
-0.993796
-0.852502
-1.00606
-0.910549
-1.17652
-0.966759
-0.979888
-0.986469
-0.974721
-0.950155
-0.892289
-0.937459
-0.919988
-0.976419
-0.984187
-1.13101
-0.975973
-0.984701
-0.974845
-0.960145
-0.9388
-0.97295
-0.97676
-0.97708
-1.12878
-1.12607
-0.973808
-0.971689
-0.978332
-0.987725
-0.978703
-0.966557
-0.938869
-0.972479
-0.975721
-0.975517
-1.1252
-0.98987
-0.988503
-0.987333
-0.909882
-0.909908
-0.911225
-0.873651
-0.901509
-0.91102
-0.912183
-0.914172
-0.991432
-0.982334
-0.982285
-0.979572
-0.932094
-0.726104
-0.812526
-0.918059
-0.974853
-0.987696
-0.982793
-0.974359
-0.969772
-0.967499
-0.967432
-0.969723
-0.976182
-0.974825
-0.963653
-0.966385
-0.966414
-0.932773
-1.13655
-0.928976
-0.983081
-0.97178
-0.982535
-0.979163
-0.933857
-1.11984
-1.12199
-0.928081
-1.01323
-0.993033
-0.949431
-1.01212
-1.02844
-0.881586
-0.934397
-1.37541
-1.2188
-0.754802
-0.879054
-1.03248
-1.0179
-0.997965
-1.01675
-1.01856
-1.00013
-1.01975
-0.929223
-0.930358
-0.930512
-0.931562
-1.02157
-0.942685
-1.12648
-0.92893
-1.12501
-1.12978
-0.931464
-1.12356
-1.12618
-1.12754
-1.12967
-0.932251
-1.12179
-1.13156
-1.12679
-0.940177
-1.13353
-1.14832
-0.909228
-0.757531
-0.984728
-0.976008
-0.978736
-0.985128
-0.986653
-0.954986
-0.950034
-0.892331
-0.973413
-0.9375
-0.919656
-0.977369
-0.985732
-0.973041
-0.969257
-0.980012
-0.979605
-1.12647
-1.12574
-1.12677
-1.12585
-0.930864
-1.12757
-1.12561
-0.942823
-1.12843
-0.93374
-1.12714
-1.12527
-0.941525
-1.13381
-1.13859
-1.13588
-0.939591
-1.03518
-1.02
-0.996875
-0.999321
-0.998167
-0.999912
-0.930846
-0.923932
-1.12036
-0.797844
-0.733039
-1.15726
-1.06553
-1.06675
-0.977634
-1.04061
-1.04821
-1.06501
-0.776674
-1.14742
-0.955882
-1.14937
-1.15536
-1.14954
-1.14896
-1.11951
-0.891442
-1.04537
-1.33275
-0.753994
-0.985485
-1.11698
-1.03887
-1.10275
-1.02647
-0.992743
-1.29386
-1.08643
-0.804418
-0.870868
-1.44334
-0.863317
-1.15329
-0.801468
-1.15555
-0.957397
-1.00334
-0.998767
-1.01793
-1.01815
-1.03357
-1.01891
-1.02113
-1.01892
-0.999502
-1.00172
-1.02178
-1.02102
-1.03523
-0.931563
-0.932881
-0.93235
-1.01927
-0.935583
-0.881576
-0.781766
-1.20556
-0.772744
-0.988939
-1.10606
-0.938105
-0.983093
-0.987125
-1.1193
-0.794356
-0.729616
-1.15921
-0.978831
-0.957457
-1.14889
-0.772665
-1.14942
-1.06547
-1.06573
-1.06868
-0.946051
-1.04501
-1.33192
-0.985341
-1.03914
-1.04457
-1.0459
-1.0497
-1.06537
-0.781454
-1.1494
-1.08264
-1.04646
-1.08088
-1.06603
-0.777658
-1.15145
-0.958989
-1.15558
-1.15497
-1.02627
-0.935484
-0.93604
-1.02652
-1.02186
-0.887946
-0.937857
-0.936337
-0.980515
-1.0215
-1.02568
-1.02772
-0.943593
-1.19588
-0.96232
-0.968624
-0.980635
-0.976744
-0.974654
-0.974394
-0.976229
-0.980533
-1.12467
-1.12289
-0.936906
-0.879582
-1.03395
-0.938263
-1.12483
-1.12644
-0.929222
-1.12673
-1.12489
-1.12372
-0.941036
-1.1245
-0.978398
-0.966509
-0.968772
-0.97612
-0.976273
-0.97325
-0.978286
-0.966406
-0.968537
-0.973021
-0.979402
-1.13621
-1.13264
-1.13666
-0.979615
-0.980028
-0.979648
-0.942219
-0.983111
-1.12836
-1.12708
-0.939401
-0.881765
-0.880339
-1.0364
-0.940348
-1.1301
-1.13136
-0.984045
-0.967543
-0.966257
-0.965135
-0.964227
-0.963961
-0.959795
-0.925819
-0.980558
-0.992087
-0.994257
-0.994291
-0.981933
-0.99579
-0.996745
-0.998807
-0.984882
-0.979034
-0.926048
-0.975534
-0.98153
-0.981437
-0.971685
-0.958788
-0.938207
-0.97482
-0.972072
-0.958685
-0.941561
-0.971341
-0.970927
-0.937233
-0.966713
-0.883404
-0.940999
-1.12887
-0.937975
-0.99685
-0.978036
-1.15316
-1.08343
-1.08631
-1.11673
-1.02616
-1.10239
-1.10367
-1.10219
-1.08374
-1.0438
-1.09925
-1.29253
-1.10187
-1.10474
-1.18397
-1.1545
-1.29911
-1.30031
-1.28012
-1.29635
-1.29428
-0.953716
-0.957472
-0.998843
-1.16083
-0.818455
-0.953653
-0.985335
-0.942215
-0.922901
-1.13661
-0.929941
-1.12532
-0.903735
-0.881545
-0.905349
-0.877301
-0.891061
-0.892744
-1.15424
-1.1214
-1.1248
-0.973897
-1.29437
-1.13173
-0.986807
-0.754633
-0.904877
-0.7263
-1.1406
-0.755377
-0.755271
-0.754438
-0.892588
-0.854809
-0.925178
-0.89906
-0.958371
-0.95026
-0.754119
-0.926229
-1.13843
-0.781855
-1.05201
-0.750981
-1.10217
-0.926045
-0.944737
-0.876776
-0.849344
-0.73359
-0.926188
-0.927351
-0.92787
-0.781662
-0.927255
-1.12865
-0.927947
0.981063
0.969635
0.980788
0.974147
0.968653
0.966952
0.967461
0.969975
0.974644
0.983069
0.971179
0.966944
0.720457
1.01576
1.15106
0.904165
1.00493
0.953715
1.19406
0.893322
1.14532
1.0077
0.845104
1.03201
1.02295
0.85894
1.02956
1.02526
0.858934
1.02768
1.02463
0.853851
1.02668
1.02269
0.854354
1.02274
1.0239
0.852619
1.0167
1.02737
0.84203
1.00115
1.00813
0.820987
0.93867
0.684912
1.23728
0.763013
0.890084
1.00246
0.742508
0.951967
0.979831
0.739642
0.97247
0.970638
0.74515
0.983319
0.942508
0.738769
0.973208
1.16885
0.810593
1.08632
1.02376
0.943119
0.947779
1.12333
0.938978
0.943787
0.943626
1.13261
0.945488
0.942204
0.92698
1.13399
0.963351
0.94336
0.89451
1.13633
0.994785
0.948978
0.856642
0.823641
0.723255
0.898537
1.05901
1.1008
1.11085
1.11754
1.11571
1.1179
1.11848
1.11843
1.12105
1.12108
1.12242
1.12282
1.1244
1.12285
1.12439
1.11725
1.10125
1.04754
0.860563
0.977012
0.996457
1.0274
0.955546
0.72065
1.29037
0.997554
1.0564
0.993604
1.03149
1.15453
1.18258
1.10038
1.04923
1.05346
1.0498
1.10026
1.29058
1.05634
0.845692
0.856336
0.956171
0.868819
0.846146
1.01014
1.301
1.03139
1.37425
0.99347
1.15451
0.97683
0.996522
1.04934
1.22481
1.19847
0.90123
1.1671
0.889443
1.12075
1.02798
0.720032
0.95461
0.986478
1.15136
1.11163
1.13608
1.12537
1.12964
1.12602
1.12718
1.12437
1.12672
1.12135
1.12773
1.11764
1.12799
1.11467
1.11211
0.961449
1.39458
0.977144
0.958176
1.10006
1.12138
0.938761
1.12341
1.12121
0.942436
1.1263
1.12258
0.942914
1.12789
1.12343
0.943261
1.12946
1.12443
0.943399
1.13075
1.12498
0.941875
1.1356
1.1088
0.929854
1.16136
0.941226
1.14833
0.984121
0.709435
0.990716
0.945691
1.1508
0.960627
0.719193
1.01965
0.903903
1.17051
1.10851
1.13728
1.1323
1.12757
1.13718
1.1208
1.13865
1.1236
1.12209
1.12787
1.11833
1.12959
1.10771
1.12117
0.968245
1.39917
1.00546
0.949837
1.06163
1.21808
0.9075
1.20201
1.19952
0.909182
1.20161
1.20083
0.909773
1.21828
1.09619
0.941361
1.15124
1.113
0.941679
1.14027
1.12278
0.940151
1.13922
1.11651
0.925738
1.14615
1.00722
1.15103
0.899629
0.732492
1.22594
0.850815
1.19229
1.14889
0.893863
1.01073
0.933247
0.813451
0.676787
0.862717
0.726653
1.04895
1.10518
0.758868
1.19969
1.11015
0.900361
1.22415
1.16789
0.889031
1.12054
1.05059
0.78566
0.943135
1.37498
0.993271
1.15443
1.03155
1.30106
1.01047
0.846513
0.956409
0.868811
0.804507
1.15799
0.856296
0.86705
0.799791
0.79697
1.15488
0.861905
0.86137
0.796174
0.799959
1.15481
0.867575
0.855906
0.803136
0.869135
1.15772
0.956178
0.845899
1.03166
1.0101
1.30154
1.03161
1.15445
0.992493
1.05671
1.28801
1.00099
1.0268
1.27632
1.02609
1.00174
1.28761
1.05632
0.846013
1.09563
1.18187
1.10034
1.43761
1.02612
0.949709
0.987792
0.943574
1.16242
1.10945
1.10929
1.11255
0.929717
1.16289
1.15066
0.98869
1.14888
0.942263
0.95392
1.02825
1.45058
1.10409
1.1004
1.43722
1.02612
0.949644
0.887708
1.05086
1.22442
1.19903
0.758796
1.10214
0.786157
1.0472
0.727002
0.995371
1.12063
1.03154
0.950242
0.988111
0.987042
1.14879
0.951179
1.03053
0.995675
0.975938
0.866362
0.890738
0.842088
0.812162
0.977386
0.917039
0.970043
0.976907
0.990005
0.996851
0.854461
1.0034
1.03233
1.15854
1.16881
1.14648
1.18367
0.902073
1.04572
1.02423
0.906478
0.759012
1.12196
1.13306
0.754897
1.20417
1.12935
0.91023
1.20451
1.12791
1.1299
0.910746
1.20795
0.784649
0.883939
0.887785
0.94024
0.787898
1.12457
0.890006
1.11278
0.919584
0.919111
0.890127
0.855717
1.0007
0.970103
0.962328
0.977389
0.975974
0.96887
0.935019
0.941011
0.975972
0.954304
1.15144
1.16263
1.10856
0.930248
1.111
0.94009
1.13618
1.13645
1.1269
0.942418
1.12344
0.934372
1.1331
1.12894
1.1285
0.944166
1.12117
0.930985
1.13294
1.12618
1.12685
0.944145
1.12109
0.926905
1.12937
1.12643
1.1225
0.943176
1.12177
0.92196
1.12591
1.12756
1.11772
0.942068
1.12022
0.919264
1.12256
1.12804
1.11442
0.938482
1.12128
0.916188
1.09892
1.10984
0.971037
0.958333
0.975898
0.792517
0.824922
0.795631
0.825855
0.897608
1.39834
0.954335
0.875874
1.14467
0.876377
1.07767
0.758966
1.09292
1.12428
0.751858
1.11875
1.12759
0.760542
1.07342
1.2791