/*--------------------------------*- C++ -*----------------------------------*\
| =========                 |                                                 |
| \\      /  F ield         | OpenFOAM: The Open Source CFD Toolbox           |
|  \\    /   O peration     | Version:  2306                                  |
|   \\  /    A nd           | Website:  www.openfoam.com                      |
|    \\/     M anipulation  |                                                 |
\*---------------------------------------------------------------------------*/
FoamFile
{
    version     2.0;
    format      ascii;
    arch        "LSB;label=32;scalar=64";
    class       volVectorField;
    location    "1.5";
    object      flux;
}
// * * * * * * * * * * * * * * * * * * * * * * * * * * * * * * * * * * * * * //

dimensions      [0 1 -1 1 0 0 0];

internalField   nonuniform List<vector> 
2658
(
(9.95838e-07 9.75344e-07 -8.52583e-06)
(1.46007e-06 5.67004e-07 -8.18696e-06)
(4.73218e-07 1.75898e-07 -5.79187e-06)
(-2.67218e-08 -1.66394e-08 -5.24609e-06)
(-1.93655e-06 -1.90456e-06 -6.60906e-06)
(-1.63541e-06 2.33349e-06 -6.76183e-06)
(1.64801e-06 -1.92316e-06 -5.92597e-06)
(1.62869e-06 1.62096e-06 -5.72459e-06)
(-2.71938e-08 -1.89731e-08 -5.24165e-06)
(2.31674e-06 -1.65595e-06 -6.74196e-06)
(-1.60225e-06 5.05796e-07 -6.89817e-06)
(-1.18601e-06 -3.95382e-06 -5.58915e-06)
(8.08741e-07 2.43777e-06 -7.57134e-06)
(9.53555e-07 2.4779e-06 -7.11341e-06)
(7.26481e-07 2.01255e-06 -7.31513e-06)
(-5.89962e-08 2.0639e-06 -7.51822e-06)
(-3.25642e-08 2.25683e-06 -7.27106e-06)
(-1.5726e-08 2.03239e-06 -7.50124e-06)
(-7.97274e-07 2.05977e-06 -7.30521e-06)
(-1.03735e-06 2.44699e-06 -7.01887e-06)
(-9.94334e-07 2.36092e-06 -7.44494e-06)
(-2.30995e-06 2.06527e-06 -6.70656e-06)
(-2.74711e-06 6.8631e-07 -7.65075e-06)
(2.04879e-06 -4.52741e-07 -5.77246e-06)
(-8.59245e-07 7.49293e-07 -9.074e-06)
(-1.09227e-06 2.25439e-06 -7.43392e-06)
(-2.34975e-06 -4.87339e-07 -6.66928e-06)
(-3.30975e-07 1.37376e-07 -7.80585e-06)
(-1.72035e-06 1.83885e-06 -8.00105e-06)
(-1.86001e-06 -9.32165e-11 -6.62592e-06)
(-1.72033e-06 -1.83888e-06 -8.00098e-06)
(-2.3498e-06 4.87348e-07 -6.66928e-06)
(-1.09233e-06 -2.25451e-06 -7.43385e-06)
(-2.74727e-06 -6.86297e-07 -7.65066e-06)
(-8.59195e-07 -7.49267e-07 -9.07399e-06)
(2.04877e-06 4.52798e-07 -5.77237e-06)
(-1.0647e-06 -1.14037e-07 -7.31912e-06)
(5.14806e-07 1.94268e-07 -1.04315e-05)
(-2.30958e-06 -2.0659e-06 -6.70648e-06)
(-9.94613e-07 -2.36106e-06 -7.44513e-06)
(-1.03732e-06 -2.44717e-06 -7.01896e-06)
(-7.97226e-07 -2.05985e-06 -7.30522e-06)
(-1.58776e-08 -2.03224e-06 -7.50117e-06)
(7.1352e-08 1.00743e-06 -1.07341e-05)
(-1.32374e-06 -1.31775e-07 -6.67821e-06)
(1.23607e-06 -5.43487e-08 -6.6044e-06)
(-1.60222e-06 -5.05827e-07 -6.8982e-06)
(-6.27398e-08 1.04897e-06 -1.07268e-05)
(-5.92268e-08 -2.06427e-06 -7.51833e-06)
(7.26501e-07 -2.01257e-06 -7.31518e-06)
(9.53604e-07 -2.47772e-06 -7.11334e-06)
(8.08719e-07 -2.43778e-06 -7.5714e-06)
(2.19007e-06 -2.17012e-06 -6.78064e-06)
(-4.60976e-07 4.45867e-07 -1.08212e-05)
(2.45108e-06 -8.1015e-07 -7.57805e-06)
(2.02036e-06 -7.50852e-07 -7.32495e-06)
(-1.06582e-06 5.36106e-08 -1.07273e-05)
(7.542e-08 -1.25472e-06 -6.63485e-06)
(-3.73988e-06 -1.41362e-11 -5.8255e-06)
(2.0388e-06 -1.45091e-08 -7.50906e-06)
(-1.06576e-06 -5.35821e-08 -1.07274e-05)
(2.02041e-06 7.50816e-07 -7.32505e-06)
(2.45107e-06 8.10201e-07 -7.57812e-06)
(-4.60902e-07 -4.45926e-07 -1.08213e-05)
(4.81449e-07 4.88125e-07 -6.85918e-06)
(-3.96174e-06 -1.15031e-06 -5.60032e-06)
(4.73444e-07 -1.58997e-06 -6.88019e-06)
(-5.31304e-08 -7.51917e-08 -6.1108e-06)
(-1.22637e-06 -2.58505e-06 -6.68569e-06)
(-1.22651e-06 2.58506e-06 -6.68555e-06)
(-4.07218e-08 2.36823e-11 -5.32105e-06)
(1.18289e-06 2.11895e-06 -5.80851e-06)
(-9.24519e-08 -2.6081e-08 -4.41573e-06)
(-1.2383e-06 1.68548e-06 -4.97962e-06)
(3.6725e-08 -1.11202e-09 -3.74914e-06)
(-1.3063e-06 -1.2797e-06 -4.92767e-06)
(1.66926e-06 -1.26638e-06 -4.96525e-06)
(-7.36815e-09 4.5074e-08 -3.74392e-06)
(-1.38161e-06 1.17807e-06 -4.17962e-06)
(1.53973e-06 7.71688e-07 -4.09531e-06)
(-1.92094e-06 -8.49169e-07 -4.9655e-06)
(-4.15831e-08 -7.69096e-08 -4.41364e-06)
(2.12563e-06 1.12906e-06 -5.77847e-06)
(-1.9321e-06 1.70087e-06 -5.94497e-06)
(-4.68061e-08 -3.32674e-08 -4.93947e-06)
(-2.64896e-08 -1.73594e-08 -3.51393e-06)
(-1.9222e-09 3.61088e-09 -2.38227e-06)
(6.5112e-09 9.96967e-09 -1.52812e-06)
(7.43705e-09 9.91468e-09 -9.27318e-07)
(5.96172e-09 8.08678e-09 -5.34767e-07)
(3.88054e-09 5.59749e-09 -2.99825e-07)
(-5.87282e-09 -1.07084e-08 -2.31148e-07)
(5.20997e-09 5.47276e-09 -1.836e-07)
(-3.81367e-08 2.88897e-08 -1.53826e-07)
(2.49816e-08 -1.19555e-08 -1.60474e-07)
(-4.93627e-09 -3.25555e-08 -1.79572e-07)
(-3.09295e-08 -4.63693e-09 -1.574e-07)
(1.32902e-10 -3.12036e-08 -2.35872e-07)
(3.10141e-08 -5.10375e-09 -1.57471e-07)
(-2.54617e-08 -1.13195e-08 -1.59495e-07)
(1.361e-08 -3.40651e-08 -2.37021e-07)
(3.50249e-08 -8.71757e-09 -1.61517e-07)
(3.21704e-08 -3.20722e-08 -1.79532e-07)
(2.44157e-08 -1.57668e-08 -1.93843e-07)
(2.54787e-08 -1.34047e-08 -1.64307e-07)
(-5.36051e-08 3.12131e-08 -1.83579e-07)
(-9.76683e-09 -1.10681e-08 -1.32892e-07)
(-6.97359e-09 -8.91244e-10 -2.37401e-07)
(-3.14683e-09 4.44841e-09 -1.43007e-07)
(1.43576e-08 -3.21075e-08 -2.09936e-07)
(3.07989e-08 1.0675e-08 -1.94161e-07)
(1.20184e-08 -1.43669e-08 -1.59124e-07)
(2.42982e-08 -4.20309e-13 -2.16923e-07)
(1.20164e-08 1.43672e-08 -1.59118e-07)
(3.07991e-08 -1.06773e-08 -1.94162e-07)
(1.43571e-08 3.2107e-08 -2.09939e-07)
(2.54814e-08 1.34053e-08 -1.64313e-07)
(-5.36051e-08 -3.12151e-08 -1.8358e-07)
(3.21739e-08 3.20706e-08 -1.79533e-07)
(2.44196e-08 1.57658e-08 -1.93845e-07)
(3.50238e-08 8.71249e-09 -1.6151e-07)
(1.3606e-08 3.40646e-08 -2.37007e-07)
(-2.54635e-08 1.13189e-08 -1.59494e-07)
(3.10146e-08 5.1029e-09 -1.57469e-07)
(-5.0728e-08 -2.46972e-08 -1.60571e-07)
(5.0645e-08 -2.38654e-08 -1.61329e-07)
(-3.81369e-08 -2.88918e-08 -1.53821e-07)
(-4.93663e-09 3.25591e-08 -1.7958e-07)
(-3.09295e-08 4.63953e-09 -1.574e-07)
(2.49796e-08 1.19578e-08 -1.60479e-07)
(-1.3955e-08 3.34913e-08 -2.36834e-07)
(-3.43183e-08 8.13494e-09 -1.60067e-07)
(-2.29596e-08 1.58876e-08 -1.91698e-07)
(-2.08446e-08 1.48876e-08 -1.59e-07)
(-1.36767e-08 3.00601e-08 -2.08146e-07)
(1.36471e-09 -1.39489e-08 -1.50624e-07)
(-6.67486e-09 1.3945e-09 -1.4708e-07)
(-4.10918e-08 1.99583e-09 -1.79645e-07)
(3.13138e-08 -3.29542e-08 -1.53034e-07)
(3.12978e-08 3.29627e-08 -1.53039e-07)
(-6.67292e-09 -1.3969e-09 -1.47075e-07)
(1.35707e-09 1.39508e-08 -1.50623e-07)
(1.37307e-08 -8.04904e-09 -1.64507e-07)
(-1.49377e-08 -8.34366e-09 -1.72664e-07)
(-1.71529e-08 -7.66904e-11 -2.1653e-07)
(-1.4903e-08 8.31711e-09 -1.72584e-07)
(7.70867e-09 1.54395e-11 -2.03764e-07)
(9.61042e-09 1.85244e-11 -2.0147e-07)
(-3.02662e-08 -1.67666e-08 -1.40163e-07)
(-3.14879e-08 1.65239e-08 -1.40855e-07)
(-2.62027e-08 3.95287e-11 -1.32188e-07)
(-3.32083e-08 1.34761e-09 -1.89046e-07)
(-3.25802e-08 9.0616e-09 -1.89623e-07)
(-3.36385e-08 -1.02861e-08 -1.18165e-07)
(-2.68188e-08 4.04333e-08 -1.61584e-07)
(-4.69662e-08 9.20214e-09 -1.53836e-07)
(-4.22568e-08 3.8035e-08 -1.39725e-07)
(-1.80012e-08 4.52038e-08 -1.52792e-07)
(-2.09846e-08 4.81019e-08 -1.42497e-07)
(-1.5407e-08 3.76787e-08 -1.50103e-07)
(3.26184e-10 3.79487e-08 -1.54653e-07)
(-2.82078e-11 4.41062e-08 -1.45593e-07)
(-6.03449e-10 3.79754e-08 -1.54738e-07)
(1.45502e-08 3.82281e-08 -1.49879e-07)
(2.0719e-08 4.90958e-08 -1.41506e-07)
(1.81e-08 4.56053e-08 -1.51781e-07)
(4.26797e-08 3.96467e-08 -1.39016e-07)
(5.42662e-08 1.26161e-08 -1.59709e-07)
(-1.26333e-08 -1.67514e-09 -2.46391e-07)
(4.15075e-08 1.11093e-08 -2.26249e-07)
(-1.1124e-07 -7.21177e-08 -3.32715e-07)
(1.45762e-07 1.06623e-07 -4.60783e-07)
(-1.91538e-07 -1.33448e-07 -6.20547e-07)
(2.60705e-07 1.86101e-07 -8.25258e-07)
(-3.3566e-07 -2.42007e-07 -1.09402e-06)
(4.47697e-07 3.15354e-07 -1.42188e-06)
(-5.63534e-07 -4.1435e-07 -1.83223e-06)
(7.29536e-07 5.0794e-07 -2.32063e-06)
(-8.97071e-07 -6.68897e-07 -2.90206e-06)
(1.12835e-06 7.7298e-07 -3.58106e-06)
(-1.35117e-06 -1.02302e-06 -4.34557e-06)
(1.66606e-06 1.11144e-06 -5.21807e-06)
(-1.92695e-06 -1.49632e-06 -6.16054e-06)
(2.40794e-06 1.51226e-06 -7.00283e-06)
(-2.40417e-06 1.48368e-06 -6.7755e-06)
(2.55398e-06 1.24466e-06 -6.64862e-06)
(-2.6401e-06 1.18283e-06 -6.71471e-06)
(2.31668e-06 1.65602e-06 -6.74187e-06)
(-1.93665e-06 1.9045e-06 -6.60899e-06)
(-2.67295e-08 1.66183e-08 -5.24601e-06)
(-1.63531e-06 -2.33355e-06 -6.7619e-06)
(4.73357e-07 1.58998e-06 -6.88009e-06)
(-3.96166e-06 1.15022e-06 -5.60032e-06)
(4.81458e-07 -4.88142e-07 -6.85919e-06)
(-1.18603e-06 3.95376e-06 -5.58917e-06)
(4.79896e-07 -4.90675e-07 -9.08158e-06)
(-4.68131e-08 3.32363e-08 -4.93946e-06)
(-2.64914e-08 1.73395e-08 -3.51392e-06)
(-1.93888e-09 -3.61785e-09 -2.38226e-06)
(6.49735e-09 -9.98498e-09 -1.52811e-06)
(7.44303e-09 -9.92776e-09 -9.27309e-07)
(5.9665e-09 -8.08506e-09 -5.34757e-07)
(3.88191e-09 -5.59703e-09 -2.99819e-07)
(-5.87336e-09 1.07089e-08 -2.31149e-07)
(5.21057e-09 -5.47026e-09 -1.83601e-07)
(5.27886e-10 4.73304e-11 -1.27566e-07)
(-1.3898e-08 -1.34848e-08 -1.39146e-07)
(-1.39007e-09 5.60624e-09 -2.3168e-07)
(1.89836e-08 -1.72527e-08 -1.42957e-07)
(1.89829e-08 1.72519e-08 -1.42957e-07)
(-1.38992e-08 1.34865e-08 -1.39148e-07)
(5.29819e-10 -4.87986e-11 -1.27565e-07)
(-1.385e-09 -5.60855e-09 -2.31681e-07)
(5.79525e-09 -4.95265e-09 -1.32059e-07)
(5.06455e-08 2.38675e-08 -1.61327e-07)
(-5.07312e-08 2.46963e-08 -1.60572e-07)
(3.60004e-09 -3.29217e-08 -1.79121e-07)
(3.89948e-08 2.80977e-08 -1.54787e-07)
(-3.41895e-09 6.56457e-09 -1.83818e-07)
(7.92862e-10 -4.76627e-10 -1.28321e-07)
(-5.58174e-09 -4.52742e-09 -1.31742e-07)
(-2.48898e-11 4.20745e-09 -1.87909e-07)
(4.31908e-10 -2.92948e-09 -2.32077e-07)
(5.15756e-09 -2.60758e-09 -2.31056e-07)
(3.84687e-09 -1.12795e-13 -2.38913e-07)
(5.15748e-09 2.60629e-09 -2.31054e-07)
(-3.42527e-09 -6.57169e-09 -1.83817e-07)
(-9.76464e-09 1.10671e-08 -1.3289e-07)
(-2.49089e-08 -2.19473e-08 -1.44393e-07)
(-6.97111e-09 8.93868e-10 -2.37402e-07)
(5.46767e-09 -2.40552e-08 -1.52725e-07)
(5.46866e-09 2.40592e-08 -1.52726e-07)
(-2.49104e-08 2.1949e-08 -1.44392e-07)
(-9.40401e-10 5.43662e-13 -1.93977e-07)
(1.56945e-08 -1.52693e-08 -1.40788e-07)
(-1.87955e-08 -1.683e-08 -1.42126e-07)
(-1.87988e-08 1.68326e-08 -1.42125e-07)
(3.41782e-10 -5.38506e-09 -2.31273e-07)
(1.56979e-08 1.52718e-08 -1.40787e-07)
(-3.05962e-10 -2.314e-09 -1.78612e-07)
(-3.18707e-09 2.0158e-13 -1.65248e-07)
(-4.21316e-09 -1.15019e-08 -1.62118e-07)
(-3.9388e-09 -5.20804e-09 -1.50042e-07)
(1.76867e-08 1.52669e-08 -1.71299e-07)
(-4.00018e-09 -3.92794e-09 -1.627e-07)
(-1.16287e-09 1.57457e-12 -1.6971e-07)
(-2.92173e-08 1.14339e-12 -2.41837e-07)
(2.22243e-09 -4.46331e-13 -2.1515e-07)
(-1.30377e-08 -2.50399e-08 -1.57227e-07)
(2.08117e-08 1.70546e-08 -2.14068e-07)
(2.04954e-08 4.56591e-08 -1.52779e-07)
(4.46716e-08 -1.14217e-08 -1.30948e-07)
(3.1664e-08 3.61676e-08 -1.60989e-07)
(-8.91945e-08 -5.10397e-08 -1.81547e-07)
(6.57596e-08 6.91282e-08 -2.91472e-07)
(-1.21052e-07 -8.3019e-08 -3.55008e-07)
(-1.21045e-07 8.30146e-08 -3.55007e-07)
(-2.83357e-09 1.16634e-08 -2.66677e-07)
(-1.37872e-07 1.0954e-07 -4.86537e-07)
(3.17711e-09 7.54746e-09 -3.538e-07)
(1.73549e-07 -1.53291e-07 -6.49283e-07)
(-2.38136e-07 1.98836e-07 -8.70586e-07)
(2.65834e-09 4.66084e-09 -6.2739e-07)
(3.07296e-07 -2.6662e-07 -1.14017e-06)
(-4.07002e-07 3.45962e-07 -1.49227e-06)
(2.14262e-10 -7.48296e-11 -1.06456e-06)
(5.16375e-07 -4.43598e-07 -1.90924e-06)
(-6.62462e-07 5.68907e-07 -2.42623e-06)
(-5.62544e-09 -1.04224e-08 -1.71119e-06)
(8.21089e-07 -6.99069e-07 -3.02648e-06)
(-1.01737e-06 8.83882e-07 -3.73057e-06)
(-1.79466e-08 -3.72787e-08 -2.6019e-06)
(1.24283e-06 -1.04044e-06 -4.5374e-06)
(-1.46604e-06 1.30205e-06 -5.42542e-06)
(-3.61421e-08 -1.10196e-07 -3.7412e-06)
(1.84039e-06 -1.46184e-06 -6.39896e-06)
(-1.93776e-06 1.81979e-06 -7.57504e-06)
(-1.08015e-07 -3.22123e-07 -5.27475e-06)
(3.04653e-06 -2.06626e-06 -8.19722e-06)
(4.99858e-07 -9.72477e-07 -5.69939e-06)
(3.60992e-06 -2.18561e-06 -7.34173e-06)
(3.60991e-06 2.18564e-06 -7.3417e-06)
(-3.30917e-07 -1.37305e-07 -7.80573e-06)
(8.18559e-07 -6.15168e-07 -7.87856e-06)
(-2.90388e-07 1.14366e-06 -7.02252e-06)
(1.16209e-06 1.01965e-06 -6.50374e-06)
(6.19352e-08 -1.18322e-11 -9.39271e-06)
(-7.32143e-07 -7.1972e-07 -6.2136e-06)
(-7.32142e-07 7.19723e-07 -6.21365e-06)
(8.01379e-07 7.53803e-07 -6.26344e-06)
(-3.89539e-08 -7.59778e-12 -9.40389e-06)
(-9.42141e-07 -9.07288e-07 -6.34444e-06)
(-9.42127e-07 9.07285e-07 -6.34446e-06)
(2.52492e-07 3.68982e-07 -6.03268e-06)
(-3.06219e-07 -6.03154e-12 -9.28657e-06)
(-1.34519e-06 -2.3799e-06 -7.70054e-06)
(-1.3452e-06 2.37987e-06 -7.70051e-06)
(4.65161e-07 -1.50495e-06 -8.9635e-06)
(1.92452e-06 1.46375e-11 -1.27254e-05)
(4.65175e-07 1.50491e-06 -8.96353e-06)
(7.39043e-07 -1.17533e-06 -9.10941e-06)
(2.10413e-06 7.45961e-07 -1.25799e-05)
(8.91537e-07 1.71902e-06 -9.08207e-06)
(1.20866e-06 1.20452e-06 -1.05599e-05)
(1.53864e-06 1.53449e-06 -9.08658e-06)
(-2.32879e-06 -2.30998e-06 -8.87659e-06)
(-1.35382e-06 1.62521e-06 -7.33522e-06)
(1.30626e-06 2.1193e-07 -8.54917e-06)
(8.74333e-07 1.3741e-07 -1.00463e-05)
(-4.49037e-09 1.84322e-08 -9.32714e-06)
(2.52501e-07 -3.68995e-07 -6.03268e-06)
(-1.51909e-07 -1.34716e-07 -5.76525e-06)
(-3.95961e-07 -3.87759e-07 -9.17522e-06)
(1.61759e-06 -1.32262e-06 -7.36711e-06)
(-1.19336e-06 7.35142e-07 -9.11269e-06)
(7.4082e-07 2.07579e-06 -1.25803e-05)
(1.72001e-06 8.88505e-07 -9.08791e-06)
(9.83468e-07 9.84638e-07 -1.00763e-05)
(-5.25035e-07 -5.12714e-07 -9.19713e-06)
(-7.04275e-07 1.05379e-11 -9.29357e-06)
(-5.25008e-07 5.12741e-07 -9.19709e-06)
(-3.9598e-07 3.8776e-07 -9.17521e-06)
(-1.35379e-06 -1.62523e-06 -7.3352e-06)
(-2.32876e-06 2.30993e-06 -8.87662e-06)
(8.91555e-07 -1.71918e-06 -9.08182e-06)
(2.10421e-06 -7.46069e-07 -1.258e-05)
(7.39096e-07 1.17529e-06 -9.10932e-06)
(1.30627e-06 -2.11978e-07 -8.54928e-06)
(8.7435e-07 -1.37422e-07 -1.00463e-05)
(9.83599e-07 -9.84542e-07 -1.00763e-05)
(1.71987e-06 -8.88571e-07 -9.08829e-06)
(7.40701e-07 -2.07575e-06 -1.25802e-05)
(-1.19338e-06 -7.3518e-07 -9.11281e-06)
(1.61754e-06 1.3226e-06 -7.36709e-06)
(1.98339e-07 -1.31471e-06 -8.54131e-06)
(1.48313e-06 -5.08074e-07 -9.02266e-06)
(-3.69513e-08 -1.92021e-06 -1.27349e-05)
(-1.54648e-06 -4.49987e-07 -8.97521e-06)
(2.36911e-06 1.24527e-06 -7.72539e-06)
(-3.661e-08 2.99275e-07 -9.29958e-06)
(-4.20194e-07 -2.83681e-07 -6.02867e-06)
(-2.43714e-06 1.35285e-06 -7.70816e-06)
(-4.21275e-08 -2.76673e-07 -8.67532e-06)
(-2.85066e-07 -3.38432e-07 -8.78191e-06)
(1.81483e-08 -7.71738e-09 -5.23234e-06)
(1.46638e-08 -2.3379e-08 -3.73671e-06)
(7.09316e-09 -3.23987e-08 -2.5387e-06)
(3.89541e-09 -2.9201e-08 -1.63071e-06)
(2.19298e-09 -2.23138e-08 -9.9065e-07)
(9.76555e-10 -1.56881e-08 -5.71646e-07)
(2.3263e-10 -1.02586e-08 -3.20555e-07)
(-3.20148e-09 -1.0551e-08 -3.12391e-07)
(1.13454e-07 -6.74074e-08 -3.25129e-07)
(-1.22991e-07 -5.72747e-08 -3.2157e-07)
(1.23372e-07 -5.14195e-08 -3.22275e-07)
(-1.12088e-07 -7.93538e-08 -3.24329e-07)
(1.40313e-07 1.21131e-07 -4.38273e-07)
(-1.99211e-07 -1.50673e-07 -5.9388e-07)
(2.56792e-07 2.13474e-07 -7.83931e-07)
(-3.48893e-07 -2.73896e-07 -1.04723e-06)
(4.45618e-07 3.6204e-07 -1.35226e-06)
(-5.82614e-07 -4.70817e-07 -1.75551e-06)
(7.31638e-07 5.82512e-07 -2.20922e-06)
(-9.22497e-07 -7.65252e-07 -2.78486e-06)
(1.13698e-06 8.84682e-07 -3.41091e-06)
(-1.38151e-06 -1.17807e-06 -4.17963e-06)
(1.66917e-06 1.26646e-06 -4.96514e-06)
(-1.93205e-06 -1.70091e-06 -5.94502e-06)
(-2.71704e-08 1.89089e-08 -5.24156e-06)
(1.6287e-06 -1.62091e-06 -5.72461e-06)
(1.64779e-06 1.92329e-06 -5.9259e-06)
(1.18311e-06 -2.119e-06 -5.80865e-06)
(-8.99429e-07 1.88371e-06 -4.95823e-06)
(3.79633e-08 -7.85901e-12 -3.82431e-06)
(-8.99253e-07 -1.8837e-06 -4.95828e-06)
(8.19956e-07 1.52829e-06 -4.11212e-06)
(1.13497e-06 -1.37575e-06 -4.17092e-06)
(1.12605e-06 1.11684e-06 -4.05411e-06)
(-8.87307e-07 -8.68626e-07 -3.34954e-06)
(-8.61203e-07 1.14832e-06 -3.41941e-06)
(4.03488e-08 1.17588e-08 -2.52962e-06)
(7.36385e-07 7.28627e-07 -2.71227e-06)
(8.64614e-09 4.65009e-08 -2.52538e-06)
(1.13711e-06 -8.84599e-07 -3.411e-06)
(-2.17215e-08 -5.54406e-08 -3.08445e-06)
(-1.30582e-06 -5.86665e-07 -3.40111e-06)
(1.27018e-06 -6.70553e-07 -3.38622e-06)
(-3.31384e-09 4.75641e-08 -2.57705e-06)
(-1.03024e-06 5.73478e-07 -2.75528e-06)
(9.51563e-07 6.26548e-07 -2.7527e-06)
(-1.19347e-06 -7.49799e-07 -3.40404e-06)
(-2.03183e-09 -6.05981e-08 -3.08564e-06)
(-1.5412e-06 8.80199e-07 -4.12602e-06)
(-6.62822e-09 4.04249e-08 -3.81059e-06)
(1.86099e-06 -9.52278e-07 -4.92607e-06)
(-2.14084e-06 1.25542e-06 -5.84181e-06)
(-1.19926e-08 -3.79495e-08 -5.30723e-06)
(-2.64011e-06 -1.18281e-06 -6.7147e-06)
(-8.95895e-08 -3.29779e-08 -6.11672e-06)
(1.23606e-06 5.43539e-08 -6.60444e-06)
(-6.2744e-08 -1.04899e-06 -1.07268e-05)
(1.98382e-07 1.31467e-06 -8.54134e-06)
(-2.43717e-06 -1.3529e-06 -7.7081e-06)
(-4.20173e-07 2.83652e-07 -6.02864e-06)
(7.20572e-08 9.29184e-08 -8.79601e-06)
(-3.60734e-08 -1.77811e-08 -6.45976e-06)
(-2.55435e-08 -1.11826e-11 -5.4997e-06)
(-2.18773e-08 9.58159e-09 -5.16368e-06)
(-1.30754e-08 -9.32327e-09 -3.6979e-06)
(-6.43913e-09 -2.14855e-08 -2.51203e-06)
(-2.94529e-09 -2.15472e-08 -1.61305e-06)
(-1.30558e-09 -1.72075e-08 -9.7943e-07)
(-5.87536e-10 -1.23708e-08 -5.65021e-07)
(-2.42364e-10 -8.01158e-09 -3.17049e-07)
(4.33024e-10 2.92916e-09 -2.32077e-07)
(-2.26944e-11 -4.20759e-09 -1.87906e-07)
(-5.57698e-09 4.52585e-09 -1.31742e-07)
(3.40803e-10 5.38203e-09 -2.31271e-07)
(7.92257e-10 4.77549e-10 -1.28318e-07)
(3.89945e-08 -2.81003e-08 -1.54787e-07)
(3.59756e-09 3.29221e-08 -1.79121e-07)
(-1.50016e-09 -2.00187e-08 -2.64064e-07)
(-5.34588e-08 1.99185e-08 -2.17423e-07)
(4.81481e-08 1.23031e-08 -2.16726e-07)
(-4.87495e-08 1.0578e-08 -2.15815e-07)
(5.11909e-08 2.38594e-08 -2.19141e-07)
(-2.28896e-08 1.73608e-08 -2.02427e-07)
(8.88284e-08 -5.04889e-09 -1.48507e-07)
(-2.86704e-08 -5.82522e-08 -2.32994e-07)
(7.56074e-08 1.09853e-07 -3.26143e-07)
(8.24958e-09 -9.97118e-10 -3.11856e-07)
(-1.15784e-07 -1.43088e-07 -4.47741e-07)
(-1.15898e-07 1.14521e-07 -4.19668e-07)
(9.12895e-08 -8.35216e-08 -3.15624e-07)
(4.0588e-09 -1.04515e-08 -3.07411e-07)
(1.20217e-09 -5.69295e-09 -3.31047e-07)
(-8.30064e-09 2.26075e-08 -2.16127e-07)
(1.54948e-10 2.28083e-08 -2.17179e-07)
(9.3347e-09 2.26744e-08 -2.15697e-07)
(1.9368e-08 1.45007e-08 -2.05143e-07)
(2.59746e-08 1.71225e-08 -2.09118e-07)
(-4.67513e-09 -2.03417e-09 -3.3899e-07)
(5.72881e-10 5.06444e-09 -3.34705e-07)
(1.27519e-08 1.01449e-08 -2.50459e-07)
(-1.26683e-09 -5.59264e-09 -3.32029e-07)
(-7.71211e-09 -2.45327e-08 -5.97645e-07)
(-9.19116e-09 -6.05001e-09 -6.05831e-07)
(-1.24861e-08 -8.75066e-09 -6.02655e-07)
(-2.22459e-08 -1.71886e-08 -1.04375e-06)
(-2.09999e-08 -1.90688e-08 -1.06181e-06)
(6.84245e-09 6.8126e-09 -8.12255e-07)
(6.5327e-09 7.00669e-09 -4.53486e-07)
(3.48986e-09 9.58399e-09 -4.39442e-07)
(-1.47054e-07 1.05101e-07 -4.34258e-07)
(1.58231e-07 9.24761e-08 -4.3638e-07)
(-2.20817e-07 -1.1042e-07 -5.88249e-07)
(2.21576e-07 -9.61812e-08 -5.87854e-07)
(-2.33123e-09 1.1168e-08 -4.162e-07)
(-1.61389e-07 8.36891e-08 -4.34707e-07)
(-2.89645e-10 -1.16951e-08 -3.1528e-07)
(-9.5377e-12 -3.77201e-09 -3.32598e-07)
(1.96454e-10 -2.33729e-08 -5.97505e-07)
(5.19076e-10 -4.89953e-08 -1.05019e-06)
(-1.37986e-08 -4.93493e-08 -1.04916e-06)
(-2.22078e-08 -8.58491e-08 -1.74218e-06)
(-3.94407e-08 -3.84648e-08 -1.76263e-06)
(-3.69438e-08 -2.9587e-08 -1.71924e-06)
(-5.78854e-08 -4.72069e-08 -2.68102e-06)
(-6.94406e-08 -7.16126e-08 -2.76575e-06)
(2.47366e-09 1.30502e-09 -2.22854e-06)
(6.36186e-09 5.60456e-09 -1.38362e-06)
(7.42886e-09 1.39291e-08 -1.3454e-06)
(-4.68827e-07 3.04575e-07 -1.34596e-06)
(5.00394e-07 2.76835e-07 -1.3439e-06)
(-6.49953e-07 -3.5221e-07 -1.73877e-06)
(6.52476e-07 -3.0441e-07 -1.73244e-06)
(-7.32141e-09 2.8042e-08 -1.26022e-06)
(-5.12036e-07 2.41814e-07 -1.34424e-06)
(3.89911e-07 -1.75951e-07 -1.03503e-06)
(-4.36276e-09 1.84308e-08 -7.41353e-07)
(-2.95416e-07 1.44462e-07 -7.78409e-07)
(-5.19058e-10 -1.7959e-08 -5.67857e-07)
(2.89101e-07 1.63717e-07 -7.79564e-07)
(-3.88361e-07 -2.03601e-07 -1.03761e-06)
(1.20665e-09 1.94783e-08 -7.42942e-07)
(-2.70088e-07 1.80994e-07 -7.79096e-07)
(2.04974e-07 -1.25899e-07 -5.92316e-07)
(1.05167e-09 1.18963e-08 -4.17062e-07)
(3.61853e-10 2.13465e-09 -4.67474e-07)
(-5.99475e-09 -6.17064e-09 -4.48538e-07)
(-1.37854e-07 -1.09524e-07 -4.86536e-07)
(4.52047e-09 1.29027e-09 -2.60007e-07)
(9.44079e-08 8.67995e-08 -3.68526e-07)
(3.9688e-09 -1.07982e-08 -2.04056e-07)
(-9.50847e-08 -6.33986e-08 -2.62892e-07)
(-4.46996e-08 -1.33041e-08 -1.44148e-07)
(2.02895e-08 -6.16143e-09 -2.06403e-07)
(-5.5359e-09 -2.22478e-09 -2.47602e-07)
(-5.07652e-11 2.77643e-09 -2.55622e-07)
(-5.83969e-10 9.00138e-09 -2.39367e-07)
(2.10644e-09 1.25627e-08 -2.46396e-07)
(-2.92005e-09 1.20763e-08 -2.46214e-07)
(1.34476e-09 -2.05958e-08 -2.6324e-07)
(-1.23835e-08 1.03682e-08 -2.56529e-07)
(-1.54372e-08 1.45163e-08 -2.04874e-07)
(-7.90681e-09 8.68854e-09 -2.11417e-07)
(1.14922e-08 -1.08624e-09 -3.39116e-07)
(-4.12228e-09 2.65068e-09 -3.28268e-07)
(-8.01775e-09 7.55949e-09 -4.59953e-07)
(-4.76653e-09 8.95435e-09 -4.38738e-07)
(8.67593e-09 -2.46642e-08 -5.94994e-07)
(1.64663e-08 -4.99793e-08 -1.04528e-06)
(2.74307e-08 -8.77722e-08 -1.73851e-06)
(8.3568e-10 -8.72107e-08 -1.74659e-06)
(9.70197e-10 -1.48219e-07 -2.74132e-06)
(-3.4439e-08 -1.42376e-07 -2.73071e-06)
(-5.60249e-08 -2.39817e-07 -4.04973e-06)
(-1.23814e-07 -1.40105e-07 -4.1122e-06)
(-8.71439e-08 -7.29998e-08 -3.95782e-06)
(-1.61461e-07 -1.4462e-07 -5.51835e-06)
(-2.79326e-07 -3.30078e-07 -5.83963e-06)
(-4.95855e-08 -4.18448e-08 -4.89462e-06)
(-1.01547e-08 -1.09124e-08 -3.39557e-06)
(9.25867e-09 1.09124e-08 -3.32353e-06)
(-1.19344e-06 7.49805e-07 -3.40395e-06)
(1.27011e-06 6.7063e-07 -3.38614e-06)
(-1.54124e-06 -8.8016e-07 -4.12601e-06)
(1.53975e-06 -7.71564e-07 -4.09526e-06)
(-2.17737e-08 5.54458e-08 -3.08447e-06)
(-1.30574e-06 5.8669e-07 -3.40107e-06)
(1.03279e-06 -4.976e-07 -2.74146e-06)
(-1.22678e-08 4.01524e-08 -2.02796e-06)
(-8.3992e-07 3.86456e-07 -2.19859e-06)
(-1.67062e-09 -3.77373e-08 -1.64592e-06)
(8.19313e-07 4.43599e-07 -2.19435e-06)
(-1.03024e-06 -5.73439e-07 -2.75526e-06)
(1.60853e-10 4.32695e-08 -2.0301e-06)
(-7.69187e-07 4.90105e-07 -2.20109e-06)
(6.0217e-07 -3.8671e-07 -1.74102e-06)
(1.02817e-09 2.98353e-08 -1.26237e-06)
(5.11993e-10 5.21365e-09 -1.40084e-06)
(5.70914e-10 3.45347e-09 -8.2821e-07)
(-8.95473e-09 -1.01213e-08 -7.92373e-07)
(-2.38126e-07 -1.98811e-07 -8.70573e-07)
(2.4562e-09 9.97516e-10 -4.70274e-07)
(1.73552e-07 1.5329e-07 -6.49265e-07)
(3.18489e-09 -7.54881e-09 -3.53797e-07)
(1.28929e-08 -3.32695e-09 -3.60701e-07)
(-2.03173e-07 -1.52807e-07 -6.34964e-07)
(2.51263e-07 2.15464e-07 -8.46177e-07)
(-3.50699e-07 -2.71044e-07 -1.1103e-06)
(-3.50698e-07 2.71052e-07 -1.11028e-06)
(-8.42821e-10 6.7435e-09 -8.18034e-07)
(4.37693e-07 -3.67217e-07 -1.44478e-06)
(6.34307e-09 5.85064e-09 -1.08276e-06)
(-5.83168e-07 4.56659e-07 -1.85313e-06)
(-9.18483e-10 3.78224e-09 -1.3485e-06)
(7.17139e-07 -5.94314e-07 -2.34636e-06)
(6.97355e-10 8.17276e-09 -1.73813e-06)
(-9.16508e-07 7.26589e-07 -2.92982e-06)
(-1.96482e-10 -6.38003e-09 -2.10519e-06)
(1.1107e-06 -9.07791e-07 -3.60509e-06)
(-1.90796e-08 8.51137e-09 -2.63678e-06)
(-1.34306e-06 1.09154e-06 -4.38345e-06)
(8.08949e-09 -4.22886e-08 -3.10999e-06)
(1.64045e-06 -1.3025e-06 -5.22698e-06)
(-9.45328e-08 -2.96659e-09 -3.77673e-06)
(-1.79039e-06 1.54949e-06 -6.22438e-06)
(5.64982e-08 -1.79192e-07 -4.34451e-06)
(2.38126e-06 -1.70834e-06 -7.03323e-06)
(-4.02683e-07 -1.42747e-07 -5.15429e-06)
(-1.93063e-06 1.98408e-06 -8.52342e-06)
(-2.60556e-07 -3.80316e-11 -6.9396e-06)
(-1.93059e-06 -1.98409e-06 -8.52342e-06)
(4.9985e-07 9.72317e-07 -5.69939e-06)
(3.04657e-06 2.06637e-06 -8.19708e-06)
(-1.07987e-07 3.21986e-07 -5.27471e-06)
(-1.93765e-06 -1.81971e-06 -7.57504e-06)
(-7.8806e-08 -1.99264e-08 -4.34448e-06)
(1.84031e-06 1.46179e-06 -6.39886e-06)
(-3.61288e-08 1.10117e-07 -3.74116e-06)
(-1.46602e-06 -1.30198e-06 -5.42539e-06)
(-3.924e-08 -5.32881e-09 -3.12863e-06)
(1.24288e-06 1.04057e-06 -4.53735e-06)
(-1.79148e-08 3.72032e-08 -2.60191e-06)
(-1.01722e-06 -8.83784e-07 -3.73059e-06)
(-1.72388e-08 -2.29821e-09 -2.11823e-06)
(8.21129e-07 6.99153e-07 -3.02646e-06)
(-5.59604e-09 1.03385e-08 -1.71116e-06)
(-6.62431e-07 -5.68882e-07 -2.42624e-06)
(-6.63286e-09 -5.86891e-10 -1.35517e-06)
(5.16372e-07 4.43625e-07 -1.90918e-06)
(2.41534e-10 4.16646e-11 -1.06454e-06)
(-4.06985e-07 -3.45936e-07 -1.49228e-06)
(-9.52436e-10 4.36651e-10 -8.19655e-07)
(3.07297e-07 2.66636e-07 -1.14013e-06)
(2.67883e-09 -4.65528e-09 -6.27379e-07)
(9.30508e-09 -4.06486e-09 -6.38782e-07)
(-1.61783e-08 -1.62569e-08 -8.19174e-07)
(-1.22603e-08 -9.63392e-09 -4.71321e-07)
(-8.43595e-09 -3.55119e-09 -2.75092e-07)
(2.5192e-08 1.22535e-08 -1.94105e-07)
(1.5689e-09 -6.95606e-12 -1.81078e-07)
(-1.58851e-08 -5.96055e-13 -2.21824e-07)
(-2.76439e-08 -1.87761e-11 -3.54925e-07)
(-4.05416e-08 1.93179e-12 -6.103e-07)
(-5.89905e-08 1.86684e-11 -1.04143e-06)
(-8.37449e-08 3.88671e-11 -1.70434e-06)
(-1.06586e-07 8.44297e-11 -2.64624e-06)
(-9.76706e-08 3.1693e-10 -3.88628e-06)
(-2.7596e-09 9.91987e-11 -5.3802e-06)
(1.39617e-07 -3.39866e-11 -6.80287e-06)
(-1.66984e-07 -1.15104e-10 -7.90634e-06)
(-1.31036e-06 6.18295e-07 -7.76314e-06)
(-1.31037e-06 -6.18385e-07 -7.76314e-06)
(-1.34954e-06 -8.60192e-07 -7.16885e-06)
(-1.11881e-06 -8.36798e-07 -8.41229e-06)
(-3.85619e-07 -2.29294e-07 -6.61638e-06)
(-1.49042e-07 -4.55192e-07 -5.72856e-06)
(-6.09639e-07 -1.40883e-06 -8.13221e-06)
(9.69094e-07 4.05708e-06 -5.70459e-06)
(1.53595e-06 -3.37407e-07 -6.7324e-06)
(3.11201e-08 4.71407e-08 -6.11797e-06)
(9.78118e-09 -1.03218e-08 -6.26916e-06)
(8.69859e-08 -3.19883e-08 -6.09204e-06)
(-4.02627e-07 1.42751e-07 -5.15427e-06)
(2.38112e-06 1.70844e-06 -7.03314e-06)
(5.65554e-08 1.79085e-07 -4.34445e-06)
(-1.79039e-06 -1.54943e-06 -6.22438e-06)
(-1.70835e-07 -1.41113e-11 -5.09579e-06)
(-6.79778e-08 -1.39984e-11 -5.25287e-06)
(-6.37882e-08 -1.57596e-11 -3.7487e-06)
(8.17431e-09 4.22665e-08 -3.10992e-06)
(-1.34304e-06 -1.09153e-06 -4.38348e-06)
(1.6404e-06 1.30252e-06 -5.22685e-06)
(-9.45324e-08 2.95971e-09 -3.77679e-06)
(-5.93207e-09 -2.53549e-08 -4.63468e-06)
(-1.89209e-08 -2.49706e-08 -3.24105e-06)
(-1.91138e-08 -8.53702e-09 -2.63677e-06)
(1.11055e-06 9.07808e-07 -3.605e-06)
(-1.5235e-10 6.3553e-09 -2.10517e-06)
(-9.16441e-07 -7.26601e-07 -2.92987e-06)
(-2.98013e-08 1.12648e-11 -2.45742e-06)
(-5.19511e-08 -1.3129e-12 -2.54593e-06)
(-3.85349e-08 -5.05688e-12 -1.63645e-06)
(-2.59179e-08 -6.6879e-12 -9.95942e-07)
(-8.20902e-10 -6.77375e-09 -8.18023e-07)
(4.37684e-07 3.67224e-07 -1.44472e-06)
(-5.83166e-07 -4.56653e-07 -1.85318e-06)
(7.17111e-07 5.94351e-07 -2.3463e-06)
(7.01048e-10 -8.15635e-09 -1.73808e-06)
(-1.76252e-08 -2.07008e-08 -2.1417e-06)
(-1.31758e-08 -1.51754e-08 -1.33831e-06)
(1.59331e-09 -6.14045e-12 -1.04636e-06)
(1.00356e-09 -3.32485e-12 -6.04583e-07)
(3.80522e-10 5.24424e-13 -3.41516e-07)
(-7.91705e-09 -6.64667e-13 -3.27214e-07)
(-2.83176e-09 -1.16681e-08 -2.66678e-07)
(1.35476e-07 1.22324e-07 -4.82058e-07)
(7.32507e-09 -1.42591e-12 -3.17157e-07)
(1.35486e-07 -1.22327e-07 -4.82059e-07)
(1.28828e-08 3.33023e-09 -3.60701e-07)
(-2.03163e-07 1.52814e-07 -6.34961e-07)
(-1.24621e-09 8.35131e-09 -4.72732e-07)
(2.51291e-07 -2.15472e-07 -8.46211e-07)
(9.31582e-09 4.06102e-09 -6.38788e-07)
(-8.95511e-09 1.0115e-08 -7.92378e-07)
(-1.55083e-08 1.68703e-12 -5.77123e-07)
(-1.24188e-09 -8.36932e-09 -4.72718e-07)
(1.91708e-09 3.85003e-12 -5.54788e-07)
(-5.99292e-09 6.16858e-09 -4.48538e-07)
(-5.53447e-09 2.22443e-09 -2.47603e-07)
(-9.50889e-08 6.34014e-08 -2.62892e-07)
(3.96901e-09 1.07906e-08 -2.0406e-07)
(9.44065e-08 -8.67988e-08 -3.68535e-07)
(2.02869e-08 6.16232e-09 -2.06409e-07)
(6.57567e-08 -6.91273e-08 -2.91473e-07)
(-1.30374e-08 2.5043e-08 -1.57224e-07)
(-8.9197e-08 5.10397e-08 -1.81546e-07)
(8.39698e-09 2.26955e-12 -2.0176e-07)
(3.16651e-08 -3.61658e-08 -1.60993e-07)
(4.4673e-08 1.14259e-08 -1.30948e-07)
(2.04915e-08 -4.5661e-08 -1.52777e-07)
(5.42673e-08 -1.26172e-08 -1.59708e-07)
(2.08137e-08 -1.70536e-08 -2.14074e-07)
(7.71461e-09 -1.64174e-09 -1.64858e-07)
(-1.65367e-08 -9.94752e-09 -1.53181e-07)
(9.54676e-09 -5.39651e-09 -1.79955e-07)
(-4.00055e-09 3.92731e-09 -1.62697e-07)
(-4.21132e-09 1.15006e-08 -1.62113e-07)
(1.76862e-08 -1.52699e-08 -1.71301e-07)
(-3.94086e-09 5.20941e-09 -1.50028e-07)
(2.68729e-09 -1.58188e-08 -1.76128e-07)
(8.09447e-11 1.15142e-08 -1.63962e-07)
(1.00546e-10 -1.32236e-13 -1.68292e-07)
(8.01766e-11 -1.15147e-08 -1.63961e-07)
(-3.49314e-12 -5.78708e-09 -1.50231e-07)
(1.32029e-10 3.12024e-08 -2.35868e-07)
(2.68816e-09 1.58187e-08 -1.76132e-07)
(-3.0426e-10 2.31588e-09 -1.78615e-07)
(9.54714e-09 5.39841e-09 -1.79957e-07)
(-3.15012e-09 -4.44843e-09 -1.43006e-07)
(-1.65383e-08 9.9494e-09 -1.53181e-07)
(7.71453e-09 1.64109e-09 -1.64856e-07)
(-1.07189e-11 2.37474e-09 -1.78893e-07)
(5.17441e-09 -1.10162e-08 -1.61508e-07)
(4.42555e-09 -4.81628e-09 -1.49871e-07)
(-2.92814e-09 1.57981e-08 -1.76679e-07)
(-1.7472e-08 1.47939e-08 -1.71539e-07)
(5.14866e-09 -3.27623e-09 -1.62675e-07)
(-9.51917e-09 3.95612e-09 -1.75781e-07)
(1.76611e-08 2.24065e-08 -1.36805e-07)
(5.38692e-08 -3.07274e-08 -1.82208e-07)
(-3.27571e-08 3.09596e-08 -1.82255e-07)
(1.03175e-08 -3.10011e-09 -2.51415e-07)
(4.68983e-09 2.83186e-13 -1.64515e-07)
(2.68858e-09 2.27855e-12 -1.92676e-07)
(2.85355e-09 1.30148e-12 -2.34483e-07)
(1.53961e-10 -3.8593e-13 -2.37468e-07)
(-1.78702e-10 6.62157e-13 -1.96362e-07)
(-3.17413e-10 -1.36124e-12 -3.41227e-07)
(-7.29196e-10 -5.45432e-13 -6.03985e-07)
(-1.50255e-09 1.79449e-12 -1.04572e-06)
(-3.27046e-09 -3.74288e-12 -1.72075e-06)
(2.20464e-09 -2.787e-12 -1.72151e-06)
(3.48435e-09 1.15585e-11 -2.67921e-06)
(8.13844e-09 1.03208e-11 -3.94187e-06)
(2.10262e-08 -8.65801e-12 -5.50959e-06)
(-1.40932e-07 -1.40888e-11 -8.44074e-06)
(-4.02428e-07 7.72458e-13 -7.78794e-06)
(1.58902e-06 -5.23012e-11 -1.18593e-05)
(-2.90384e-07 -1.14371e-06 -7.02248e-06)