/*--------------------------------*- C++ -*----------------------------------*\
| =========                 |                                                 |
| \\      /  F ield         | OpenFOAM: The Open Source CFD Toolbox           |
|  \\    /   O peration     | Version:  2306                                  |
|   \\  /    A nd           | Website:  www.openfoam.com                      |
|    \\/     M anipulation  |                                                 |
\*---------------------------------------------------------------------------*/
FoamFile
{
    version     2.0;
    format      ascii;
    arch        "LSB;label=32;scalar=64";
    class       volScalarField;
    location    "1.5";
    object      gradTz;
}
// * * * * * * * * * * * * * * * * * * * * * * * * * * * * * * * * * * * * * //

dimensions      [0 -1 0 1 0 0 0];

internalField   nonuniform List<scalar> 
2658
(
-0.0728703
-0.069974
-0.0495031
-0.0448384
-0.0564877
-0.0577934
-0.0506493
-0.0489281
-0.0448004
-0.0576236
-0.0589587
-0.0477705
-0.0647123
-0.0607983
-0.0625224
-0.0642583
-0.0621458
-0.0641132
-0.0624377
-0.0599903
-0.063632
-0.0573211
-0.065391
-0.0493373
-0.0775556
-0.0635378
-0.0570024
-0.0667167
-0.068385
-0.0566318
-0.0683844
-0.0570024
-0.0635372
-0.0653903
-0.0775555
-0.0493365
-0.0625566
-0.0891584
-0.0573203
-0.0636336
-0.0599911
-0.0624378
-0.0641126
-0.0917441
-0.0570788
-0.0564478
-0.058959
-0.0916821
-0.0642592
-0.0625229
-0.0607977
-0.0647128
-0.0579542
-0.0924893
-0.0647696
-0.0626064
-0.0916861
-0.0567081
-0.0497906
-0.06418
-0.0916871
-0.0626072
-0.0647702
-0.0924895
-0.0586255
-0.047866
-0.0588051
-0.0522291
-0.0571427
-0.0571414
-0.045479
-0.0496454
-0.0377413
-0.0425609
-0.0320439
-0.0421168
-0.042438
-0.0319993
-0.0357232
-0.0350026
-0.0424401
-0.0377234
-0.0493886
-0.0508117
-0.0422177
-0.0300336
-0.0203613
-0.0130609
-0.00792579
-0.00457066
-0.00256261
-0.00197562
-0.00156923
-0.00131475
-0.00137157
-0.0015348
-0.0013453
-0.002016
-0.0013459
-0.00136321
-0.00202582
-0.00138048
-0.00153446
-0.00165678
-0.00140433
-0.00156905
-0.00113583
-0.00202907
-0.00122228
-0.00179433
-0.0016595
-0.00136003
-0.00185404
-0.00135998
-0.00165951
-0.00179435
-0.00140438
-0.00156906
-0.00153447
-0.0016568
-0.00138043
-0.0020257
-0.00136319
-0.00134589
-0.0013724
-0.00137888
-0.00131471
-0.00153487
-0.0013453
-0.00137161
-0.00202422
-0.0013681
-0.00163844
-0.00135898
-0.00177903
-0.00128738
-0.0012571
-0.00153542
-0.00130798
-0.00130802
-0.00125705
-0.00128738
-0.00140604
-0.00147576
-0.00185069
-0.00147507
-0.00174157
-0.00172197
-0.00119797
-0.00120389
-0.00112981
-0.00161578
-0.00162071
-0.00100995
-0.00138106
-0.00131484
-0.00119423
-0.00130592
-0.00121792
-0.00128293
-0.00132182
-0.00124439
-0.00132255
-0.00128102
-0.00120945
-0.00129727
-0.00118817
-0.00136503
-0.00210591
-0.00193375
-0.00284372
-0.00393832
-0.00530382
-0.00705349
-0.00935059
-0.0121528
-0.0156601
-0.0198344
-0.024804
-0.0306074
-0.0371416
-0.0445989
-0.0526542
-0.0598533
-0.0579103
-0.0568258
-0.0573907
-0.0576228
-0.0564871
-0.0448377
-0.057794
-0.0588042
-0.047866
-0.0586256
-0.0477707
-0.0776203
-0.0422176
-0.0300335
-0.0203612
-0.0130608
-0.00792571
-0.00457057
-0.00256256
-0.00197564
-0.00156924
-0.0010903
-0.00118928
-0.00198017
-0.00122185
-0.00122186
-0.0011893
-0.0010903
-0.00198018
-0.00112871
-0.00137886
-0.00137241
-0.00153095
-0.00132296
-0.00157109
-0.00109676
-0.001126
-0.00160606
-0.00198356
-0.00197484
-0.00204199
-0.00197482
-0.00157108
-0.00113581
-0.00123413
-0.00202907
-0.00130535
-0.00130535
-0.00123412
-0.00165792
-0.00120331
-0.00121476
-0.00121474
-0.0019767
-0.00120331
-0.0015266
-0.00141237
-0.00138563
-0.00128241
-0.0014641
-0.0013906
-0.00145051
-0.00206698
-0.00183889
-0.00134382
-0.00182964
-0.0013058
-0.00111921
-0.00137598
-0.00155169
-0.00249121
-0.00303425
-0.00303425
-0.00227929
-0.00415844
-0.00302393
-0.00554942
-0.00744091
-0.00536231
-0.00974502
-0.0127545
-0.00909876
-0.0163183
-0.020737
-0.0146256
-0.0258674
-0.0318852
-0.0222385
-0.0387812
-0.0463712
-0.031976
-0.054692
-0.0647439
-0.0450833
-0.0700617
-0.0487127
-0.0627498
-0.0627495
-0.0667157
-0.0673381
-0.0600215
-0.0555875
-0.0802796
-0.0531077
-0.0531081
-0.0535337
-0.0803752
-0.054226
-0.0542262
-0.0515614
-0.0793724
-0.0658166
-0.0658163
-0.0766111
-0.108764
-0.0766113
-0.0778582
-0.10752
-0.0776245
-0.0902555
-0.0776631
-0.0758683
-0.0626942
-0.0730699
-0.0858657
-0.0797192
-0.0515614
-0.0492757
-0.0784206
-0.0629667
-0.0778863
-0.107524
-0.0776744
-0.0861224
-0.078608
-0.0794322
-0.0786076
-0.0784206
-0.062694
-0.0758686
-0.0776224
-0.107521
-0.0778574
-0.0730708
-0.0858658
-0.0861224
-0.0776777
-0.107523
-0.0778873
-0.0629665
-0.0730026
-0.0771168
-0.108845
-0.0767112
-0.066029
-0.0794835
-0.0515271
-0.0658817
-0.074148
-0.075059
-0.0447209
-0.0319377
-0.0216983
-0.0139377
-0.00846709
-0.00488586
-0.00273978
-0.00267001
-0.00277888
-0.00274846
-0.00275449
-0.00277205
-0.00374593
-0.0050759
-0.00670026
-0.00895071
-0.0115578
-0.0150044
-0.0188823
-0.0238022
-0.0291531
-0.0357233
-0.0424371
-0.0508121
-0.0447997
-0.0489283
-0.0506487
-0.0496466
-0.042378
-0.0326864
-0.0423785
-0.0351464
-0.0356489
-0.0346505
-0.0286285
-0.0292257
-0.0216207
-0.0231818
-0.0215845
-0.0291539
-0.0263629
-0.0290693
-0.028942
-0.0220261
-0.0235494
-0.0235273
-0.0290944
-0.026373
-0.0352651
-0.0325692
-0.0421032
-0.04993
-0.045361
-0.0573906
-0.0522797
-0.0564482
-0.0916823
-0.0730029
-0.0658812
-0.0515268
-0.0751795
-0.0552117
-0.0470059
-0.0441341
-0.031606
-0.0214703
-0.0137867
-0.0083712
-0.00482924
-0.00270982
-0.00198356
-0.00160604
-0.001126
-0.00197667
-0.00109674
-0.00132297
-0.00153095
-0.00225695
-0.00185832
-0.00185236
-0.00184457
-0.001873
-0.00173014
-0.00126929
-0.0019914
-0.00278755
-0.00266543
-0.00382684
-0.00358691
-0.00269764
-0.00262744
-0.00282946
-0.00184724
-0.00185623
-0.00184357
-0.00175336
-0.00178734
-0.00289735
-0.00286073
-0.00214067
-0.00283786
-0.00510807
-0.00517804
-0.00515089
-0.00892091
-0.00907527
-0.00694235
-0.00387595
-0.00375592
-0.00371161
-0.00372974
-0.00502777
-0.00502439
-0.00355726
-0.00371545
-0.0026947
-0.00284272
-0.00510688
-0.00897596
-0.00896718
-0.0148904
-0.0150652
-0.0146943
-0.0229147
-0.0236389
-0.0190474
-0.0118258
-0.0114992
-0.011504
-0.0114863
-0.0148613
-0.0148072
-0.0107711
-0.0114893
-0.00884645
-0.00633635
-0.00665307
-0.00485348
-0.00666294
-0.00886845
-0.00634993
-0.00665894
-0.00506253
-0.00356463
-0.0039955
-0.00383366
-0.00415842
-0.00222229
-0.00314979
-0.00174407
-0.00224694
-0.00123203
-0.00176413
-0.00211625
-0.0021848
-0.00204587
-0.00210595
-0.00210439
-0.00224992
-0.00219256
-0.00175106
-0.00180699
-0.00289842
-0.00280571
-0.00393122
-0.0037499
-0.00508542
-0.00893398
-0.0148591
-0.0149282
-0.0234301
-0.0233394
-0.0346131
-0.035147
-0.0338275
-0.0471654
-0.0499114
-0.0418344
-0.029022
-0.0284063
-0.0290936
-0.0289413
-0.0352651
-0.0350022
-0.026363
-0.029069
-0.0234313
-0.017333
-0.0187914
-0.0140677
-0.0187552
-0.0235492
-0.0173513
-0.0188127
-0.0148805
-0.0107895
-0.011973
-0.00707872
-0.00677242
-0.00744079
-0.00401944
-0.00554927
-0.00302391
-0.00308292
-0.00542704
-0.00723228
-0.00948974
-0.00948959
-0.00699175
-0.0123485
-0.00925433
-0.0158387
-0.0115257
-0.0200544
-0.0148558
-0.0250412
-0.0179931
-0.0308127
-0.0225366
-0.0374654
-0.0265811
-0.0446751
-0.0322798
-0.0531999
-0.0371325
-0.0601131
-0.0440538
-0.0728497
-0.0593128
-0.0728497
-0.0487128
-0.0700605
-0.045083
-0.0647439
-0.0371323
-0.0546911
-0.0319757
-0.0463709
-0.0267404
-0.0387807
-0.0222385
-0.0318853
-0.0181046
-0.0258671
-0.0146253
-0.0207371
-0.0115827
-0.0163177
-0.00909861
-0.0127545
-0.0070056
-0.00974471
-0.00536222
-0.00545968
-0.00700149
-0.00402838
-0.00235121
-0.00165902
-0.00154768
-0.00189593
-0.00303355
-0.00521624
-0.00890112
-0.014567
-0.0226174
-0.033216
-0.0459846
-0.0581442
-0.0675756
-0.0663517
-0.0663516
-0.0612722
-0.0718999
-0.0565502
-0.0489621
-0.069506
-0.0487572
-0.0575419
-0.0522903
-0.0535826
-0.0520687
-0.0440536
-0.0601123
-0.037132
-0.0531999
-0.0435538
-0.0448964
-0.0320401
-0.0265805
-0.0374656
-0.0446739
-0.0322802
-0.0396126
-0.0277013
-0.0225365
-0.030812
-0.0179929
-0.0250417
-0.0210036
-0.0217601
-0.0139867
-0.00851233
-0.00699165
-0.0123481
-0.0158391
-0.0200538
-0.0148554
-0.0183052
-0.0114385
-0.00894322
-0.00516738
-0.00291894
-0.0027967
-0.0022793
-0.00412015
-0.00271074
-0.00412016
-0.00308291
-0.00542702
-0.00404044
-0.00723257
-0.00545973
-0.00677246
-0.00493268
-0.00404032
-0.00474177
-0.00383366
-0.00211627
-0.00224694
-0.0017441
-0.00314988
-0.00176418
-0.00249122
-0.0013438
-0.00155168
-0.00172445
-0.00137601
-0.00111922
-0.00130579
-0.00136503
-0.00182969
-0.00140904
-0.00130924
-0.00153808
-0.00139057
-0.00138558
-0.00146412
-0.00128229
-0.00150537
-0.00140139
-0.00143839
-0.00140138
-0.00128403
-0.00201597
-0.0015054
-0.00152662
-0.00153809
-0.00122227
-0.00130924
-0.00140903
-0.001529
-0.00138041
-0.00128095
-0.00151008
-0.00146614
-0.00139038
-0.0015024
-0.00116928
-0.00155733
-0.00155774
-0.00214885
-0.00140611
-0.0016468
-0.00200413
-0.00202964
-0.00167831
-0.00291647
-0.00516227
-0.00893777
-0.0147073
-0.0147137
-0.0228992
-0.0336912
-0.0470905
-0.072143
-0.0665636
-0.101362
-0.0600212
-0.0673394
-0.09301
-0.0775033
-0.0775014
-0.0930104
-0.0986401
-0.0596149
-0.0791768
-0.0772676
-0.0788605
-0.0500858
-0.0640216
-0.0723121
-0.0784633
-0.107936
-0.078677
-0.0912719
-0.0754104
-0.084922
-0.0779625
-0.0801247
-0.080447
-0.0861341
-0.103183
-0.0804496
-0.0986403
-0.0791782
-0.0596142
-0.0526614
-0.0788602
-0.064021
-0.0500855
-0.0508643
-0.0794837
-0.0660302
-0.0767101
-0.108844
-0.0771177
-0.0857117
-0.0797688
-0.0801248
-0.0809694
-0.0808996
-0.0526611
-0.0780708
-0.0786442
-0.0851318
-0.0797705
-0.077727
-0.0857116
-0.07686
-0.0797194
-0.0492758
-0.0751795
-0.0552116
-0.0522795
-0.0556875
-0.0491326
-0.0347774
-0.0411459
-0.0424902
-0.0421022
-0.0499308
-0.0493879
-0.0377234
-0.0424399
-0.0325684
-0.041281
-0.034735
-0.0233454
-0.0284628
-0.0185888
-0.0114925
-0.00672006
-0.00672926
-0.00890114
-0.00842028
-0.00704981
-0.00646461
-0.00477141
-0.00675983
-0.00893995
-0.00832445
-0.0116043
-0.0112053
-0.00876133
-0.00829741
-0.0146511
-0.0137949
-0.0189304
-0.0184033
-0.013766
-0.0231816
-0.0216204
-0.0292259
-0.0286284
-0.0215844
-0.0346503
-0.0320437
-0.0425613
-0.0421165
-0.0319994
-0.0432271
-0.0492731
-0.0699466
-0.069542
-0.0621474
-0.05551
-0.0500312
-0.0591136
-0.0497172
-0.049503
-0.0349698
-0.0235275
-0.0149939
-0.00904298
-0.00518273
-0.00507335
-0.00677317
-0.00634543
-0.00670032
-0.00491179
-0.00670064
-0.00887981
-0.00854016
-0.0115245
-0.0115241
-0.00888008
-0.00834227
-0.00482197
-0.00272824
-0.00223703
-0.00203847
-0.0020748
-0.00193961
-0.00156419
-0.0019398
-0.0028588
-0.00276957
-0.00377593
-0.00377559
-0.00285903
-0.0022376
-0.00252019
-0.0015426
-0.00154249
-0.00128808
-0.00143668
-0.00252028
-0.00199147
-0.0012692
-0.00173016
-0.00269761
-0.00266555
-0.00358718
-0.00382668
-0.00278776
-0.00207483
-0.00223704
-0.00218481
-0.00273981
-0.0022223
-0.00284372
-0.00267001
-0.00371165
-0.00356462
-0.00502778
-0.00485364
-0.00665325
-0.0063365
-0.0088465
-0.00895079
-0.00829778
-0.0112058
-0.0116043
-0.00832489
-0.00876142
-0.00646501
-0.00675971
-0.00477163
-0.00498663
-0.00474239
-0.00670046
-0.00507591
-0.00502442
-0.00371552
-0.00355737
-0.00374605
-0.00262756
-0.00277207
-0.0027545
-0.00269471
-0.0037298
-0.00274849
-0.0027789
-0.00185832
-0.00204586
-0.00185234
-0.00121578
-0.00184461
-0.00203845
-0.00187296
-0.00113151
-0.00128293
-0.00132181
-0.00224992
-0.00210445
-0.00210597
-0.00214074
-0.00178736
-0.00165905
-0.00235124
-0.00402844
-0.00289731
-0.00515122
-0.00700162
-0.0117575
-0.00892141
-0.0146951
-0.0187663
-0.0187661
-0.0117572
-0.00925413
-0.0283388
-0.0283391
-0.0229154
-0.0338278
-0.0404004
-0.0403992
-0.0533978
-0.0533986
-0.0471653
-0.0612729
-0.0719076
-0.0565502
-0.0598553
-0.0450703
-0.05791
-0.0522904
-0.0570788
-0.0500311
-0.0741482
-0.0750591
-0.0447211
-0.0319378
-0.0216984
-0.0139379
-0.00846717
-0.0048859
-0.00401949
-0.00530387
-0.00481877
-0.00665902
-0.00635013
-0.00886846
-0.00848695
-0.0114895
-0.0107711
-0.0148074
-0.0150044
-0.0137663
-0.0184037
-0.0189301
-0.0137952
-0.0146511
-0.0149884
-0.0107795
-0.0148489
-0.014127
-0.0188165
-0.0188164
-0.0148491
-0.0107796
-0.014988
-0.0115291
-0.00910321
-0.00524239
-0.00298068
-0.00185805
-0.00223783
-0.00180669
-0.00138015
-0.00101087
-0.00162647
-0.00177884
-0.00135918
-0.00163854
-0.00155767
-0.00136811
-0.00202419
-0.00121784
-0.00130588
-0.00214874
-0.0011942
-0.00131481
-0.00175086
-0.0018472
-0.00185615
-0.00184353
-0.00120944
-0.00128104
-0.00225694
-0.00132254
-0.00124445
-0.00116009
-0.00193377
-0.00123204
-0.00210591
-0.00129728
-0.00118811
-0.00175321
-0.00283789
-0.00286076
-0.00387613
-0.00393839
-0.00375606
-0.00506264
-0.00510827
-0.00517852
-0.00694251
-0.00705375
-0.00935071
-0.00842029
-0.0115042
-0.0107895
-0.0148807
-0.0148614
-0.0140682
-0.0187917
-0.0173326
-0.0234318
-0.0238022
-0.0188828
-0.018589
-0.0185794
-0.0188131
-0.0173515
-0.0187557
-0.0137868
-0.00837131
-0.0048293
-0.00270984
-0.00399552
-0.00707874
-0.011973
-0.0114386
-0.0183052
-0.0191762
-0.0191762
-0.0290254
-0.0263723
-0.0351267
-0.0322755
-0.0414311
-0.037713
-0.049597
-0.0450698
-0.0426527
-0.0298718
-0.0197179
-0.0123006
-0.00726692
-0.00409874
-0.00357292
-0.0050688
-0.00506844
-0.00506818
-0.0050692
-0.00357288
-0.00409877
-0.00726696
-0.00634552
-0.00894033
-0.00677347
-0.00383101
-0.00289849
-0.00518283
-0.00904331
-0.0115293
-0.0120455
-0.00705006
-0.00672038
-0.00672951
-0.00890129
-0.00896736
-0.00907579
-0.0118263
-0.0121533
-0.0156602
-0.0139476
-0.0198349
-0.0248039
-0.021827
-0.0306085
-0.037142
-0.0322764
-0.042491
-0.0377131
-0.0495976
-0.0526544
-0.0371327
-0.0445997
-0.0267406
-0.0418354
-0.0290225
-0.0190478
-0.0150664
-0.014891
-0.0233405
-0.0236413
-0.0346148
-0.0351502
-0.0489639
-0.0499095
-0.0695091
-0.0487573
-0.0625564
-0.0891595
-0.0754105
-0.0786763
-0.107935
-0.0784638
-0.0723123
-0.0917448
-0.057543
-0.0555105
-0.0568269
-0.0441341
-0.0316062
-0.0214705
-0.0228882
-0.0336602
-0.0414312
-0.0396126
-0.0277013
-0.0290255
-0.0298719
-0.0213856
-0.0137323
-0.0197179
-0.0123007
-0.0173453
-0.0237704
-0.0235044
-0.0221067
-0.0290752
-0.029075
-0.0235045
-0.0173451
-0.02377
-0.0186218
-0.0194735
-0.0148373
-0.0120453
-0.00891305
-0.0298129
-0.0233582
-0.0285019
-0.0356484
-0.0351466
-0.0263827
-0.0314863
-0.0439815
-0.0740196
-0.0710366
-0.0535338
-0.0744577
-0.0535826
-0.0520689
-0.0780713
-0.0555879
-0.0808992
-0.0786442
-0.0851313
-0.0849212
-0.0772695
-0.091272
-0.0779634
-0.0777279
-0.0813784
-0.0776204
-0.0567078
-0.0556688
-0.0494245
-0.0413153
-0.0377411
-0.0556684
-0.0699739
-0.072872
-0.0607317
-0.069663
-0.0641801
-0.0622059
-0.0522289
-0.0350352
-0.0236178
-0.0150695
-0.0186219
-0.0149943
-0.0235272
-0.028502
-0.0263829
-0.0298132
-0.0194738
-0.0148594
-0.00893437
-0.00508562
-0.00282953
-0.00284269
-0.00510697
-0.00897611
-0.0114997
-0.0114866
-0.0149286
-0.0234307
-0.0284071
-0.0351269
-0.0411465
-0.0412805
-0.0284637
-0.0233457
-0.0347355
-0.0347787
-0.0491342
-0.069544
-0.0556869
-0.0492747
-0.0699469
-0.0591143
-0.0432272
-0.0413158
-0.0349701
-0.0348562
-0.0497179
-0.02336
-0.0114928
-0.0115581
-0.0037501
-0.00393139
-0.00219255
-0.00280599
-0.00507375
-0.00891372
-0.0148399
-0.0426527
-0.0348523
-0.0181048
-0.0115828
-0.00700585
-0.00666307
-0.00383091
-0.00498661
-0.00474223
-0.00128094
-0.00138042
-0.00152901
-0.00150242
-0.00141724
-0.00139043
-0.00146617
-0.0015101
-0.00128398
-0.00155732
-0.00116917
-0.00153542
-0.00162297
-0.00128802
-0.00143672
-0.00140651
-0.00162579
-0.0185787
-0.0235271
-0.0218269
-0.0453599
-0.0508642
-0.0744576
-0.0768564
-0.00112869
-0.00108254
-0.0115258
-0.0134584
-0.00817435
-0.0310456
-0.0139471
-0.0220257
-0.00481864
-0.00848679
-0.00116013
-0.00121578
-0.00113143
-0.0776629
-0.0902554
-0.0768082
-0.0774953
-0.0768069
-0.0579548
-0.0607326
0.00175096
0.00180694
0.00289837
0.00266545
0.0026976
0.00278751
0.00382688
0.00358685
0.0026274
0.00277205
0.00187298
0.00113144
0.00130598
0.001218
0.00128298
0.00132187
0.00124449
0.00132259
0.00128109
0.00120954
0.00129737
0.00118833
0.00136507
0.00123202
0.00182967
0.00130584
0.00111923
0.00140901
0.00137598
0.0010826
0.00137597
0.00111921
0.00130582
0.00136508
0.00182969
0.00123203
0.00193375
0.00210587
0.00118828
0.00129736
0.00120954
0.0012811
0.00132259
0.00225696
0.00185231
0.00184455
0.00187293
0.00224987
0.00132187
0.00128297
0.00121798
0.00130597
0.00119439
0.00214875
0.00131486
0.0014367
0.00252024
0.00193979
0.00156416
0.00154258
0.00252015
0.00143671
0.00131481
0.00214884
0.0017301
0.00126923
0.00199137
0.00207484
0.00285906
0.00285879
0.00276955
0.00377555
0.00357289
0.00506878
0.00477145
0.00498658
0.00507587
0.00474216
0.0067001
0.00665295
0.00502431
0.00355725
0.00371542
0.00374584
0.00256255
0.00457055
0.00792565
0.0130607
0.020361
0.0300334
0.0422174
0.0776203
0.0784204
0.0629666
0.0778878
0.0730025
0.0771172
0.108844
0.0767104
0.0784632
0.107937
0.0786759
0.0754105
0.0912718
0.0791766
0.0772677
0.052661
0.0780706
0.0596146
0.09864
0.0930097
0.0775033
0.103184
0.0775008
0.09301
0.0986395
0.0791773
0.0772677
0.0754105
0.0912719
0.0786759
0.107934
0.0784631
0.0767106
0.066029
0.0658816
0.0629663
0.0730025
0.0771171
0.0778879
0.107522
0.0776772
0.0902559
0.077622
0.107521
0.0778579
0.0766106
0.0730708
0.0658164
0.0658165
0.0766109
0.0778582
0.10752
0.0776244
0.0902553
0.0776627
0.0776748
0.107523
0.0607975
0.0647117
0.0924892
0.0579539
0.06477
0.0607318
0.0626067
0.06418
0.0622054
0.06418
0.0497906
0.056708
0.0567081
0.091686
0.0626065
0.0607309
0.0647701
0.0579555
0.0647126
0.060797
0.0625225
0.0642579
0.062145
0.0641128
0.0624372
0.0599901
0.0636315
0.057322
0.0653895
0.0891586
0.0625563
0.0598543
0.0526539
0.0445997
0.0371412
0.0306085
0.0248038
0.019835
0.01566
0.0121531
0.00935062
0.00705369
0.00530384
0.00393838
0.00284368
0.0027789
0.00274843
0.00275448
0.002772
0.00269756
0.00266549
0.00278775
0.00199141
0.00126923
0.00173012
0.00113151
0.00197563
0.00256259
0.00457062
0.00792574
0.0130608
0.0203611
0.0300333
0.0422174
0.0776202
0.0784204
0.0492757
0.0515611
0.0751793
0.0542261
0.0542258
0.0515612
0.0492756
0.0751794
0.0515268
0.0658809
0.0660293
0.0723121
0.0640206
0.0788601
0.0500856
0.0508642
0.0794834
0.074148
0.0750589
0.0721428
0.0750589
0.07886
0.0526608
0.0555871
0.0780706
0.0600211
0.0600211
0.055587
0.0802795
0.0531082
0.0535335
0.0535333
0.0744575
0.0531077
0.0786438
0.0809698
0.0801241
0.0779619
0.0849218
0.0804473
0.0861344
0.101361
0.0665633
0.0487122
0.0775552
0.0635368
0.0570016
0.0683847
0.0627489
0.0728489
0.0601122
0.0601118
0.0371323
0.0546909
0.031975
0.0463707
0.0387808
0.0222384
0.031885
0.0258671
0.0146254
0.0207369
0.016318
0.00909861
0.0127544
0.0097449
0.00536222
0.00744077
0.0055493
0.00302384
0.00415837
0.00314979
0.00174406
0.0022469
0.00134381
0.00155162
0.00155163
0.00140899
0.00130925
0.00130535
0.00123412
0.0016579
0.00120329
0.00120329
0.00121474
0.00167827
0.00122184
0.00122183
0.00118928
0.00164677
0.00130795
0.00130799
0.00125705
0.00174159
0.00147508
0.00147576
0.00162643
0.00177891
0.00135928
0.00163874
0.00136826
0.00202438
0.00137169
0.00131477
0.00156924
0.00116918
0.00155734
0.00155776
0.0014662
0.00151014
0.00134542
0.00201627
0.00134602
0.00137241
0.00160602
0.00112869
0.00137885
0.00153476
0.00198358
0.00197483
0.00273979
0.00488585
0.00846712
0.0139378
0.0216983
0.0319377
0.0447208
0.0450701
0.05791
0.0568262
0.0573905
0.0576226
0.050812
0.0424368
0.0357231
0.0291531
0.0238021
0.0188825
0.0150043
0.011558
0.00895063
0.00670036
0.00507585
0.00374601
0.00262749
0.00358702
0.00382662
0.00377591
0.00506814
0.00491168
0.00506849
0.00670019
0.00675978
0.0064646
0.00876131
0.00893997
0.00832444
0.0112053
0.00829733
0.00895066
0.00633637
0.00884632
0.00886836
0.00848663
0.011486
0.0115036
0.00890117
0.00634985
0.00666279
0.00485351
0.00502771
0.00372969
0.00269461
0.00275447
0.00203843
0.00184452
0.00224987
0.00153484
0.00137166
0.00202435
0.00136818
0.00163861
0.00135904
0.00177906
0.00162573
0.00140656
0.00125707
0.00128735
0.00153539
0.00116927
0.00109031
0.00156925
0.00155733
0.00131473
0.00137888
0.00112871
0.00198017
0.00118927
0.00200412
0.00272823
0.00482192
0.00834224
0.0137322
0.0213856
0.0314862
0.0439813
0.0740196
0.0793722
0.0794319
0.0786074
0.0768579
0.0857109
0.077729
0.108843
0.0851307
0.0640219
0.0500856
0.0508638
0.0744574
0.0535825
0.0522901
0.0570788
0.0564476
0.0589588
0.0586256
0.0478663
0.0588045
0.0577937
0.044838
0.0506486
0.0489282
0.0564869
0.0447999
0.049273
0.0699468
0.069543
0.0695091
0.0719077
0.0612725
0.0471653
0.0499124
0.0565501
0.0489642
0.034613
0.0351481
0.0338289
0.0229152
0.0236401
0.029023
0.0418339
0.0411456
0.0495974
0.0499298
0.0421024
0.0424396
0.0377232
0.049388
0.0453605
0.0441339
0.0741479
0.0794832
0.0515269
0.0797193
0.0797706
0.0786438
0.0808997
0.0596142
0.0673372
0.0667159
0.0663502
0.0675748
0.058144
0.0459844
0.0332157
0.0226176
0.0145672
0.00890129
0.0052162
0.00303353
0.00189588
0.00154764
0.00165899
0.00165899
0.00178735
0.00289734
0.00515106
0.00892122
0.0146949
0.0150657
0.0190481
0.0233402
0.0148908
0.00896727
0.00907541
0.0118263
0.0114993
0.0148807
0.0148612
0.0114864
0.0114893
0.010771
0.0148072
0.0187914
0.0173327
0.0234314
0.0290687
0.026363
0.0350024
0.0325682
0.035265
0.0289415
0.0263731
0.035127
0.0424897
0.037713
0.0414309
0.0316059
0.0214702
0.0220258
0.0235492
0.0187554
0.0173513
0.0235274
0.0290936
0.0218271
0.0284067
0.0347779
0.0491329
0.0555096
0.0575423
0.0917442
0.0723121
0.0487571
0.055687
0.0916817
0.059114
0.0728706
0.0699741
0.0495037
0.0497235
0.0432257
0.0412799
0.0347348
0.0233453
0.0234302
0.0149283
0.00897595
0.00510683
0.00510817
0.00517809
0.00694251
0.00672928
0.00890118
0.00886836
0.00666293
0.00665306
0.00633641
0.00884646
0.00848679
0.00837122
0.0137867
0.014068
0.0119729
0.0107893
0.0115039
0.00842027
0.0114385
0.0163183
0.0115828
0.020737
0.0146256
0.0258678
0.0181046
0.0318853
0.022239
0.0387817
0.0267405
0.0463706
0.0319757
0.0546916
0.0371326
0.0647434
0.045083
0.0700603
0.0493365
0.0440537
0.0520686
0.0520686
0.0700603
0.0450829
0.0647434
0.0440536
0.0728496
0.0487121
0.0627489
0.0593125
0.068385
0.0570017
0.063537
0.0653899
0.0775553
0.0667156
0.067339
0.0808995
0.0804481
0.0801256
0.0849213
0.0779601
0.0851305
0.0797688
0.0813785
0.080375
0.0710364
0.0470058
0.0470903
0.0448963
0.0371324
0.0531991
0.0446748
0.0374652
0.030813
0.0308121
0.0179933
0.0250415
0.0148554
0.020054
0.0115257
0.0158389
0.00925426
0.0123483
0.00699162
0.00948975
0.00545976
0.00723233
0.0040404
0.005427
0.00308281
0.00412008
0.00227932
0.00303423
0.00176411
0.00249118
0.00172443
0.00249119
0.0013438
0.00224689
0.00174406
0.00314987
0.00222232
0.00415841
0.00302391
0.00554938
0.00401949
0.00744084
0.00536222
0.00974496
0.00700571
0.0127546
0.00909875
0.00925435
0.0123484
0.00817443
0.00948961
0.00723252
0.00542692
0.00412017
0.00271076
0.00303426
0.00176414
0.00211625
0.00383364
0.00308288
0.00402837
0.00700166
0.0117576
0.0187667
0.0283394
0.0403999
0.0533978
0.0533975
0.0663513
0.0612727
0.0471644
0.0403993
0.0531999
0.0322798
0.0446739
0.0265803
0.0374657
0.0225364
0.0277011
0.03204
0.0265806
0.0310456
0.0217601
0.0179932
0.0250411
0.0200545
0.0158388
0.0115258
0.0139867
0.0134586
0.00851233
0.00699168
0.00493268
0.00404041
0.00474166
0.0027967
0.00227929
0.00183888
0.00206697
0.00130534
0.00130925
0.00165965
0.00136017
0.00136011
0.00165963
0.00179443
0.00122229
0.00140439
0.00156907
0.00157108
0.00109674
0.00132295
0.001531
0.00136331
0.00202593
0.0013806
0.00165698
0.00153448
0.00146414
0.00128234
0.00138562
0.00139061
0.00145054
0.00185432
0.00139064
0.00179451
0.00140448
0.00122229
0.00113584
0.00157108
0.00132296
0.00109676
0.00112601
0.00160604
0.00137242
0.00134597
0.00201617
0.00134544
0.00151013
0.00140136
0.00138558
0.00141235
0.00153808
0.00113581
0.00202906
0.0015266
0.00150542
0.00140136
0.00128409
0.00143836
0.0015266
0.00153808
0.00123412
0.00202908
0.00211625
0.00291893
0.00516735
0.00894319
0.0147137
0.0228992
0.0336911
0.0396124
0.0322804
0.0396124
0.0447208
0.0371328
0.0598538
0.0450697
0.0495971
0.037713
0.0421018
0.0325682
0.035002
0.0263624
0.0290686
0.0291528
0.0215843
0.0231813
0.02377
0.0216203
0.0286279
0.03465
0.0356483
0.0320432
0.0421159
0.0319987
0.035723
0.042437
0.0424391
0.049388
0.0377237
0.0508113
0.0448004
0.0489278
0.0506486
0.0448376
0.056487
0.0576229
0.0573899
0.0453603
0.04993
0.0568258
0.0579095
0.0575423
0.0522902
0.0570787
0.0500309
0.0564479
0.0522795
0.0589585
0.0477705
0.0586256
0.0588049
0.0478655
0.069974
0.0696627
0.0556687
0.0522289
0.0571415
0.0454794
0.0496456
0.0496459
0.0377404
0.0425608
0.032043
0.0356485
0.0346502
0.0421156
0.0319992
0.0286282
0.0216206
0.0237703
0.0231815
0.0215847
0.0184036
0.0137952
0.0149883
0.0146508
0.0137661
0.0148592
0.00893414
0.00508547
0.00282942
0.00284268
0.00283782
0.00286076
0.00387617
0.00375598
0.00506263
0.00502773
0.00372979
0.00371542
0.00355722
0.00502441
0.00485353
0.00482923
0.00270982
0.00269462
0.0021848
0.00204586
0.00185827
0.00116013
0.00184351
0.00175322
0.00214066
0.00210588
0.00185614
0.00124457
0.00121578
0.00210439
0.00374992
0.00672018
0.0114925
0.0185887
0.028463
0.0298135
0.0348559
0.03497
0.0235262
0.023358
0.0194737
0.0186214
0.0285016
0.0292254
0.0290747
0.0221068
0.0235042
0.0235043
0.017345
0.0188164
0.0141267
0.0148488
0.0148488
0.0107794
0.0116041
0.00832463
0.00894026
0.00876132
0.0112057
0.00829751
0.0120454
0.0148389
0.014994
0.00904305
0.0089116
0.00704994
0.00677325
0.00675958
0.00477153
0.00506911
0.00498654
0.00646483
0.00474228
0.00393124
0.00507358
0.00518283
0.0028984
0.00280567
0.00219248
0.00184717
0.00175091
0.00180671
0.0013802
0.00101088
0.00119796
0.00112978
0.00120391
0.00101004
0.00138107
0.00128802
0.00162075
0.00185802
0.00298069
0.00383103
0.00357283
0.00409872
0.0039955
0.00356464
0.00371158
0.00266998
0.00707871
0.00635
0.0066589
0.00481861
0.00677242
0.00545972
0.0067724
0.0114385
0.0183052
0.0216982
0.0319375
0.0267403
0.0445985
0.0322755
0.0351265
0.0263726
0.0289409
0.0220255
0.0234312
0.0173324
0.0187911
0.0188821
0.0137659
0.0146508
0.014988
0.0137948
0.0184032
0.01893
0.017345
0.0188162
0.0186215
0.0236174
0.0350349
0.0494242
0.0413143
0.0413154
0.0556675
0.0522289
0.0577931
0.057142
0.0552116
0.0535825
0.0414309
0.044134
0.0316059
0.0336601
0.0290255
0.0277013
0.0225364
0.0183052
0.0148557
0.0191761
0.0228881
0.0147072
0.0089377
0.00516221
0.00291645
0.00202965
0.00204199
0.00197484
0.00273978
0.00488583
0.00846707
0.0139377
0.0115826
0.0198343
0.0139472
0.0148804
0.0107892
0.0148612
0.0140677
0.0148071
0.010771
0.0114891
0.0115576
0.0150042
0.0114921
0.0114989
0.0118256
0.0146948
0.022915
0.033828
0.0283386
0.0187662
0.0117574
0.0070015
0.00892122
0.00515099
0.0040284
0.00235118
0.0028972
0.0017873
0.00175336
0.00214058
0.00284369
0.00266997
0.00277884
0.00204582
0.00185231
0.00121576
0.00198357
0.0027098
0.00482921
0.00837114
0.0137867
0.0214702
0.0290254
0.0191761
0.0173511
0.0188123
0.0187549
0.023549
0.0235271
0.0248037
0.0218263
0.0306076
0.0181045
0.0371415
0.0290214
0.0418331
0.0526537
0.0565511
0.0625563
0.048757
0.0636333
0.0573201
0.0891586
0.0719015
0.0695056
0.0599897
0.0624376
0.0917441
0.0641125
0.0621474
0.0642591
0.0916817
0.0625228
0.0699461
0.0695417
0.0555108
0.048962
0.0499116
0.0346124
0.0351488
0.0233389
0.0236393
0.0190471
0.0185782
0.0284061
0.0290932
0.035265
0.0411451
0.0424898
0.0491318
0.034777
0.0234295
0.0149279
0.0148901
0.0150653
0.0089668
0.00842006
0.00935053
0.00705354
0.00481853
0.00506257
0.00356459
0.00371157
0.00393832
0.00222228
0.00530378
0.00401943
0.00387605
0.0069422
0.00907538
0.00672906
0.00665876
0.00510804
0.00517818
0.00283786
0.00286055
0.00184358
0.00116011
0.0019337
0.00210589
0.00153458
0.00138057
0.00202597
0.00136334
0.00153103
0.00225696
0.00185828
0.00210586
0.00274846
0.00375583
0.00374977
0.00671979
0.00897565
0.00510671
0.00284263
0.0018562
0.00210429
0.00282939
0.0050853
0.00893385
0.0148588
0.0233449
0.0347347
0.0492726
0.0556877
0.0591144
0.0495026
0.0349691
0.0285019
0.0351463
0.0351462
0.0326861
0.0423773
0.0425602
0.0377409
0.0426525
0.0426525
0.0552116
0.0522796
0.0298716
0.0263822
0.0298716
0.026382
0.0292254
0.0290747
0.0197177
0.0197178
0.0123006
0.0123006
0.0119728
0.0070787
0.00399548
0.00383363
0.0021848
0.00197668
0.00121474
0.00223703
0.00409872
0.00726689
0.0072669
0.00634544
0.00887981
0.00853991
0.00888005
0.00634544
0.00677324
0.00910302
0.0115289
0.0115243
0.0115241
0.0116042
0.0107794
0.0115291
0.0150692
0.0149938
0.0235268
0.0194734
0.0298124
0.0284623
0.0412797
0.0432256
0.0497225
0.0348553
0.0185881
0.0238019
0.0233595
0.0148396
0.0120449
0.00904283
0.00518267
0.00524236
0.00383091
0.00393112
0.00704985
0.0089125
0.00507343
0.0021925
0.00280561
0.00223762
0.00193959
0.00223778
0.00207482
0.00223702
0.00203842
0.00198016
0.0010903
0.00152897
0.00138041
0.00128086
0.00140608
0.00152898
0.00150239
0.00138039
0.00128075
0.0014662
0.00139033
0.00141722
0.00139049
0.00150241
0.00128738
0.00140606
0.00128809
0.00154246
0.00172194
0.00162303
0.00161575
0.00153542
0.00185054
0.00155786
0.00184723
0.00670057
0.00197563
0.0423775
0.0728705
0.00150542
0.00146414
0.00156909
0.00165702
0.00128239
0.00128402
0.00700561
0.0121529
0.0156597
0.0493363
0.0023512
0.0916865
0.0730699
0.0626937
0.0758684
0.0861215
0.0786077
0.0797192
0.0858651
0.0774952
0.0858649
0.0768083
0.0861212
0.0758684
0.0626941
0.0776625
0.092489
0.108764
0.0768068
0.0857111
0.0777301
0.0768583
0.01893
0.0185788
0.0188127
0.0139475
0.00197667
0.00112599
0.0210034
0.0435548
0.0566331
0.0322752
0.0500311
0.0477705
0.00119426
)
;

boundaryField
{
    face
    {
        type            calculated;
        value           nonuniform List<scalar> 
154
(
-0.08
-0.08
-0.08
-0.08
-0.08
-0.08
-0.08
-0.08
-0.08
-0.08
-0.08
-0.08
-0.08
-0.08
-0.08
-0.08
-0.08
-0.08
-0.08
-0.08
-0.08
-0.08
-0.08
-0.08
-0.08
-0.08
-0.08
-0.08
-0.08
-0.08
-0.08
-0.08
-0.08
-0.08
-0.08