/*--------------------------------*- C++ -*----------------------------------*\
| =========                 |                                                 |
| \\      /  F ield         | OpenFOAM: The Open Source CFD Toolbox           |
|  \\    /   O peration     | Version:  2306                                  |
|   \\  /    A nd           | Website:  www.openfoam.com                      |
|    \\/     M anipulation  |                                                 |
\*---------------------------------------------------------------------------*/
FoamFile
{
    version     2.0;
    format      ascii;
    arch        "LSB;label=32;scalar=64";
    class       volScalarField;
    location    "1.5";
    object      gradTx;
}
// * * * * * * * * * * * * * * * * * * * * * * * * * * * * * * * * * * * * * //

dimensions      [0 -1 0 1 0 0 0];

internalField   nonuniform List<scalar> 
2658
(
0.00851144
0.0124793
0.00404459
-0.000228392
-0.0165517
-0.0139778
0.0140855
0.0139204
-0.000232426
0.0198012
-0.0136945
-0.0101368
0.00691232
0.00815004
0.00620924
-0.000504241
-0.000278327
-0.00013441
-0.00681431
-0.00886621
-0.00849858
-0.0197432
-0.0234796
0.017511
-0.00734398
-0.00933564
-0.0200833
-0.00282885
-0.0147039
-0.0158975
-0.0147037
-0.0200837
-0.00933618
-0.0234809
-0.00734355
0.0175109
-0.00910001
0.00440005
-0.01974
-0.00850096
-0.00886602
-0.0068139
-0.000135706
0.000609846
-0.011314
0.0105647
-0.0136942
-0.000536238
-0.000506212
0.00620941
0.00815046
0.00691213
0.0187186
-0.00393997
0.0209494
0.017268
-0.00910961
0.000644615
-0.0319648
0.0174257
-0.0091091
0.0172684
0.0209494
-0.00393934
0.00411495
-0.033861
0.00404653
-0.000454106
-0.0104818
-0.010483
-0.00034805
0.0101101
-0.000790187
-0.0105837
0.000313889
-0.0111649
0.0142672
-6.29756e-05
-0.0118087
0.0131601
-0.0164183
-0.000355411
0.0181678
-0.0165137
-0.000400053
-0.000226407
-1.64291e-05
5.56513e-05
6.35645e-05
5.09549e-05
3.3167e-05
-5.01951e-05
4.45297e-05
-0.000325955
0.000213518
-4.21903e-05
-0.000264354
1.13592e-06
0.000265078
-0.000217621
0.000116325
0.000299358
0.00027496
0.000208681
0.000217766
-0.000458163
-8.34771e-05
-5.96033e-05
-2.6896e-05
0.000122715
0.000263239
0.000102721
0.000207677
0.000102704
0.00026324
0.000122711
0.000217789
-0.000458164
0.000274991
0.000208715
0.000299348
0.000116291
-0.000217637
0.000265082
-0.000433573
0.000432863
-0.000325957
-4.21934e-05
-0.000264354
0.000213501
-0.000119274
-0.000293319
-0.000196236
-0.000178159
-0.000116895
1.16642e-05
-5.70501e-05
-0.000351212
0.00026764
0.000267502
-5.70335e-05
1.15989e-05
0.000117357
-0.000127672
-0.000146606
-0.000127376
6.58861e-05
8.21404e-05
-0.000258686
-0.000269128
-0.000223955
-0.000283831
-0.000278463
-0.000287509
-0.000229221
-0.000401421
-0.000361169
-0.000153856
-0.000179355
-0.000131684
2.7879e-06
-2.41092e-07
-5.15769e-06
0.000124361
0.000177085
0.000154701
0.000364784
0.000463814
-0.000107977
0.000354765
-0.000950771
0.00124583
-0.00163708
0.00222825
-0.00286889
0.00382647
-0.00481653
0.00623535
-0.00766727
0.00964401
-0.0115485
0.0142398
-0.0164697
0.0205807
-0.0205485
0.0218289
-0.022565
0.0198007
-0.0165526
-0.000228458
-0.013977
0.00404578
-0.0338603
0.00411503
-0.010137
0.00410168
-0.000400112
-0.000226422
-1.65716e-05
5.55329e-05
6.36156e-05
5.09958e-05
3.31787e-05
-5.01997e-05
4.45348e-05
4.51185e-06
-0.000118786
-1.18809e-05
0.000162253
0.000162247
-0.000118796
4.52836e-06
-1.18376e-05
4.9532e-05
0.000432867
-0.0004336
3.07696e-05
0.000333289
-2.92218e-05
6.7766e-06
-4.77072e-05
-2.12733e-07
3.69152e-06
4.40817e-05
3.28792e-05
4.4081e-05
-2.92758e-05
-8.34585e-05
-0.000212897
-5.95821e-05
4.67322e-05
4.67407e-05
-0.000212909
-8.03762e-06
0.000134141
-0.000160645
-0.000160674
2.92121e-06
0.00013417
-2.61506e-06
-2.724e-05
-3.60099e-05
-3.36649e-05
0.000151168
-3.41895e-05
-9.93902e-06
-0.000249721
1.89952e-05
-0.000111434
0.000177877
0.000175174
0.000381809
0.000270633
-0.000762347
0.000562048
-0.00103463
-0.00103458
-2.42185e-05
-0.00117839
2.71548e-05
0.00148333
-0.00203535
2.27208e-05
0.00262646
-0.00347865
1.8313e-06
0.00441347
-0.00566207
-4.80807e-05
0.00701785
-0.00869549
-0.000153389
0.0106225
-0.0125302
-0.000308907
0.0157298
-0.016562
-0.000923202
0.0260388
0.00427229
0.0308541
0.0308539
-0.00282835
0.00699623
-0.00248195
0.00993237
0.000529361
-0.00625763
-0.00625762
0.00684939
-0.000332939
-0.00805249
-0.00805237
0.00215805
-0.00261726
-0.0114973
-0.0114974
0.00397573
0.0164489
0.00397585
0.00631661
0.0179841
0.00761998
0.0103304
0.0131508
-0.0199042
-0.0115711
0.0111646
0.00747294
-3.83793e-05
0.00215813
-0.00129837
-0.00338428
0.0138256
-0.0101997
0.0063318
0.0147009
0.00840571
-0.00448748
-0.00601944
-0.00448725
-0.00338445
-0.0115708
-0.0199039
0.00762013
0.0179847
0.00631706
0.0111647
0.00747308
0.00840683
0.0146998
0.00633078
-0.0101998
0.0138251
0.00169521
0.0126763
-0.000315823
-0.0132178
0.0202488
-0.000312906
-0.0035914
-0.0208302
-0.000360065
-0.00243647
0.000155114
0.000125332
6.06253e-05
3.32941e-05
1.87434e-05
8.34662e-06
1.98829e-06
-2.7363e-05
0.000969694
-0.00105121
0.00105446
-0.000958016
0.00119926
-0.00170266
0.0021948
-0.00298199
0.0038087
-0.0049796
0.00625332
-0.00788459
0.0097178
-0.0118078
0.0142664
-0.0165132
-0.000232226
0.0139205
0.0140837
0.010112
-0.00768742
0.000324473
-0.00768593
0.00700817
0.00970059
0.00962434
-0.00758382
-0.00736071
0.000344861
0.00629389
7.38986e-05
0.00971887
-0.000185654
-0.0111608
0.0108563
-2.83234e-05
-0.00880544
0.00813301
-0.0102006
-1.7366e-05
-0.0131727
-5.66514e-05
0.0159059
-0.0182978
-0.000102501
-0.022565
-0.000765722
0.0105646
-0.000536274
0.00169557
-0.0208305
-0.00359123
0.000615874
-0.00030832
-0.000218321
-0.000186986
-0.000111756
-5.50353e-05
-2.51734e-05
-1.11588e-05
-5.02168e-06
-2.07149e-06
3.70106e-06
-1.93969e-07
-4.76665e-05
2.91285e-06
6.77143e-06
0.000333286
3.07484e-05
-1.28219e-05
-0.000456913
0.000411522
-0.000416663
0.000437529
-0.000195637
0.000759217
-0.000245046
0.000646217
7.05093e-05
-0.000989609
-0.00099058
0.000780252
3.46906e-05
1.02749e-05
-7.09457e-05
1.32434e-06
7.97837e-05
0.000165538
0.000222005
-3.99584e-05
4.89642e-06
0.00010899
-1.08276e-05
-6.59155e-05
-7.85569e-05
-0.000106719
-0.000190136
-0.000179486
5.84825e-05
5.58351e-05
2.98279e-05
-0.00125687
0.0013524
-0.00188732
0.00189381
-1.99251e-05
-0.00137939
-2.4756e-06
-8.15188e-08
1.6791e-06
4.43655e-06
-0.000117936
-0.00018981
-0.0003371
-0.000315759
-0.000494747
-0.000593509
2.11424e-05
5.43748e-05
6.34945e-05
-0.00400706
0.00427687
-0.00555515
0.00557672
-6.25762e-05
-0.00437638
0.00333257
-3.72886e-05
-0.00252492
-4.43639e-06
0.00247094
-0.00331933
1.03133e-05
-0.00230845
0.00175192
8.9886e-06
3.09276e-06
-5.12372e-05
-0.00117824
3.86365e-05
0.000806905
3.39213e-05
-0.00081269
-0.000382048
0.000173415
-4.73154e-05
-4.33891e-07
-4.99119e-06
1.80038e-05
-2.49577e-05
1.14937e-05
-0.000105842
-0.000131942
-6.75796e-05
9.82243e-05
-3.52332e-05
-6.85278e-05
-4.07396e-05
7.41533e-05
0.000140738
0.000234451
7.14256e-06
8.29228e-06
-0.000294351
-0.000478845
-0.00105824
-0.00074482
-0.00138001
-0.0023874
-0.000423808
-8.67923e-05
7.9134e-05
-0.0102003
0.0108557
-0.013173
0.0131603
-0.0001861
-0.0111602
0.0088273
-0.000104853
-0.00717881
-1.42788e-05
0.00700268
-0.0088055
1.37481e-06
-0.00657424
0.00514675
8.78777e-06
4.37601e-06
4.87961e-06
-7.65361e-05
-0.00203527
2.09932e-05
0.00148335
2.72213e-05
0.000110196
-0.00173652
0.00214755
-0.00299743
-0.00299742
-7.2036e-06
0.00374097
5.42142e-05
-0.00498434
-7.85029e-06
0.00612939
5.9603e-06
-0.0078334
-1.67933e-06
0.00949318
-0.000163074
-0.0114791
6.91409e-05
0.0140209
-0.000807973
-0.0153025
0.000482891
0.0203527
-0.00344174
-0.0165011
-0.00222698
-0.0165007
0.00427223
0.026039
-0.000922965
-0.0165611
-0.000673556
0.0157291
-0.000308793
-0.0125301
-0.000335385
0.0106229
-0.000153118
-0.00869415
-0.00014734
0.0070182
-4.78294e-05
-0.0056618
-5.66911e-05
0.00441344
2.0644e-06
-0.0034785
-8.14048e-06
0.00262647
2.2896e-05
7.95306e-05
-0.000138276
-0.000104789
-7.21021e-05
0.000215317
1.34094e-05
-0.00013577
-0.000236272
-0.000346509
-0.000504193
-0.000715768
-0.00091099
-0.000834791
-2.35863e-05
0.0011933
-0.00142722
-0.0111997
-0.0111997
-0.0115345
-0.00956244
-0.00329589
-0.00127387
-0.00521059
0.00828285
0.0131278
0.000265984
8.35998e-05
0.000743469
-0.00344126
0.0203515
0.00048338
-0.0153024
-0.00146013
-0.000581007
-0.000545198
6.98659e-05
-0.011479
0.0140205
-0.000807969
-5.07014e-05
-0.000161717
-0.000163366
0.00949189
-1.30214e-06
-0.00783283
-0.000254712
-0.000444026
-0.000329358
-0.000221521
-7.01626e-06
0.00374089
-0.00498433
0.00612916
5.99187e-06
-0.000150643
-0.000112614
1.36181e-05
8.5774e-06
3.25232e-06
-6.76671e-05
-2.42031e-05
0.00115791
6.26075e-05
0.001158
0.00011011
-0.00173643
-1.06514e-05
0.00214779
7.96224e-05
-7.65394e-05
-0.000132549
-1.06144e-05
1.63853e-05
-5.12215e-05
-4.73032e-05
-0.000812726
3.39232e-05
0.000806893
0.000173392
0.000562023
-0.000111431
-0.000762368
7.17691e-05
0.000270641
0.000381821
0.000175141
0.000463823
0.000177895
6.59369e-05
-0.000141339
8.15962e-05
-3.41928e-05
-3.59942e-05
0.000151164
-3.36826e-05
2.29683e-05
6.91835e-07
8.59371e-07
6.8527e-07
-2.98559e-08
1.12845e-06
2.29757e-05
-2.60051e-06
8.15995e-05
-2.69241e-05
-0.000141353
6.59361e-05
-9.16148e-08
4.42257e-05
3.78252e-05
-2.50268e-05
-0.000149333
4.40057e-05
-8.13604e-05
0.00015095
0.00046042
-0.000279975
8.81838e-05
4.0084e-05
2.29793e-05
2.43893e-05
1.31591e-06
-1.52737e-06
-2.71293e-06
-6.23244e-06
-1.28423e-05
-2.79526e-05
1.88431e-05
2.97807e-05
6.95593e-05
0.000179711
-0.00120454
-0.00343956
0.0135814
-0.00248191
0.00699635
-0.0151209
-0.00704255
-0.00704188
-0.0151219
-0.00769346
-1.72104e-05
-0.0135595
0.0225598
0.00156923
-0.000907717
-0.0162162
-0.00148709
0.00963765
-0.00723681
-0.0157407
-0.0130423
-0.0132711
-0.00913746
0.000921377
0.00197594
0.000922384
0.000291814
-0.0128688
0.000922809
-0.00769267
-0.0135598
-1.65698e-05
0.00436196
0.00156973
-0.0162163
-0.000907447
0.00204601
-0.000312808
0.0202491
-0.0132184
-0.000315358
0.0126772
0.000997513
-0.000557924
0.00197656
0.0015936
-0.00419967
0.00436226
0.00304257
0.000203586
-0.00147765
-0.000557333
-0.000176372
0.000996962
-0.0019043
-3.84662e-05
-0.00129823
0.000615882
-0.000308394
-0.000765975
-0.000338612
-5.70148e-05
-2.85036e-06
6.08879e-05
-0.0149295
0.0159059
-0.0182986
0.0181683
-0.000356205
-0.0164178
-5.64757e-05
-0.000297795
0.000631324
0.000378499
-0.000196819
-0.000138698
-9.6081e-05
-6.46952e-05
4.57868e-05
0.00308133
-6.11302e-05
-6.71348e-05
-0.0017674
0.000107615
-0.00176546
0.00225732
0.000172438
-0.00300147
-0.00302932
0.00229846
8.39866e-05
0.00390309
0.000259951
-0.00483605
-0.00492366
9.71255e-05
0.00629441
0.000344043
-0.00735967
-0.00758431
7.41599e-05
0.00962472
0.000313625
-0.0105829
-0.0111664
-6.22573e-05
0.000698456
0.00141366
0.00460201
-0.000237307
-0.000270399
-7.96661e-05
-0.00043463
0.00283142
0.00304646
0.0040437
0.00213856
0.00125077
0.000749961
0.000440981
0.000239156
4.15964e-05
-8.42855e-05
-0.000173867
-0.00127339
0.000132152
-0.00127288
0.00162874
0.000209237
-0.00218095
-0.00218159
0.00162934
0.000113203
7.55397e-05
4.25746e-05
-2.00725e-05
-2.29602e-06
-8.73744e-05
-9.12265e-05
0.000715032
-9.09572e-05
0.000510637
8.47302e-05
-0.000692133
-0.000692701
0.000511239
-6.16758e-05
0.000213569
-4.08317e-05
-4.11321e-05
0.00029746
-3.40547e-05
0.000213778
-0.000245349
0.000759457
-0.000195519
0.000780226
7.04896e-05
-0.000990365
-0.00099016
0.000646971
-8.73368e-05
-2.00686e-05
-4.41868e-07
1.98295e-06
3.86133e-05
-0.000950794
-2.7329e-05
-0.00125697
9.04843e-06
-0.00188746
-4.39583e-06
-0.00252488
-3.72648e-05
0.00333286
-0.00298237
8.39722e-05
-0.00302911
-0.0030022
0.000172169
0.00229846
-0.0017672
-0.00176593
0.0001074
0.00130067
6.35669e-05
0.00219516
-0.00170299
0.00189396
-0.00137941
-1.99168e-05
0.00119956
3.46945e-05
-0.000958266
0.00105456
-2.48937e-06
0.00135249
-0.00105127
0.0009697
-0.000456937
-4.96943e-06
0.000411542
5.28988e-06
-0.000416694
-2.27595e-06
0.000437695
0.00025961
-0.000131667
2.81203e-06
1.14812e-05
-2.49042e-05
1.80047e-05
0.000108959
0.000222014
0.000215371
-7.2127e-05
-0.000104819
-3.9928e-05
-0.000106772
-0.000138709
-0.000198176
-0.000190207
-0.000315618
-0.000279035
-0.000277752
-0.000197581
5.40316e-05
-0.000306186
-0.000308975
-0.000494183
-0.000745208
-9.4735e-05
-9.07886e-05
0.000285471
0.000285083
-0.00138164
-0.0115353
-0.00957086
-0.00329959
0.0205806
7.76564e-05
-0.020548
0.000266106
-0.0113138
-0.000434592
-0.000360008
-0.00243644
0.000155238
0.000125306
6.07374e-05
3.32519e-05
1.87474e-05
8.35082e-06
2.09909e-05
-0.00163714
-4.73396e-05
-0.00230849
1.02769e-05
-0.0033195
-7.37973e-06
-0.00437662
-6.25128e-05
0.00557695
-0.00498012
9.69163e-05
-0.00492337
-0.00483711
0.000259942
0.00390278
0.00387088
-0.000266037
0.00279299
0.000305798
-0.00351643
-0.0035172
0.00279374
-0.000265936
0.0038701
-0.000108988
0.000450615
0.000244735
0.000112526
0.000150063
-6.16446e-05
-6.76479e-05
-0.00022899
-0.000289035
-0.000213627
-0.000116878
-0.000178221
-0.000196316
-0.000279892
-0.00029335
-0.000119268
-0.000179312
-0.000153858
8.83005e-05
-0.000361241
-0.000401569
-0.000131954
-7.0982e-05
1.32273e-06
7.97415e-05
0.000177084
0.000124352
-1.28561e-05
-5.12952e-06
-2.84015e-07
-0.00021464
0.000354783
-0.000382057
-0.000108019
0.000154761
0.000364694
0.000165424
-1.07531e-05
4.8199e-06
5.57573e-05
0.00124585
2.98541e-05
0.00175195
-6.59827e-05
-7.82282e-05
5.8232e-05
0.0022282
-0.00286927
-6.10107e-05
-0.00400754
8.87547e-06
0.0051467
-0.00555529
-1.42738e-05
-0.00717916
-0.000104987
0.00882738
-0.00788494
0.00625396
-0.000138329
7.87603e-05
-0.0065746
1.21667e-06
0.00700305
-2.51955e-05
-1.11889e-05
-5.02447e-06
-2.04678e-06
3.11551e-06
4.97978e-06
4.33063e-06
-0.000112516
-0.00015042
-1.29431e-07
-6.16499e-08
-6.28809e-06
-1.73119e-05
0.0121221
9.53194e-07
6.31872e-06
-3.86362e-05
0.0167545
7.75731e-05
-0.000340174
-0.000211209
-0.00013687
-8.86506e-05
-5.5743e-05
-3.23654e-05
-0.000109638
0.00124978
0.000909793
0.000909288
0.00125045
-0.000109614
-3.23615e-05
-5.58205e-05
-0.00017378
0.0022581
-8.41473e-05
-5.88342e-05
9.83368e-05
0.000239346
0.00044107
-0.00010886
-5.52912e-05
-6.69198e-05
-6.46281e-05
4.59824e-05
0.0030814
-0.000118227
-0.000178818
5.39829e-05
0.00382658
-0.00481674
-7.51998e-05
0.0062355
-0.00766754
-7.31414e-05
0.00964433
-0.0115491
1.84718e-06
-0.0149296
-3.84713e-05
0.0167533
-0.0164708
-0.000673229
0.0142396
-0.00033594
-0.000423406
-8.73065e-05
2.07134e-05
-0.000335999
-0.000190258
-0.000295593
-0.000590259
-0.000479812
-0.00105186
-0.00127354
-0.00239227
-0.00521324
0.00828231
-0.0090997
0.00439829
-0.0132713
-0.0157405
-0.00723677
0.00963782
-0.00148747
0.000609494
0.0131273
-7.8866e-05
0.0218289
-0.000187034
-0.000111756
-5.51691e-05
-5.9671e-05
-0.000119924
6.08254e-06
-5.05034e-05
-0.00016164
-6.43516e-06
-0.000211174
0.000122261
0.000141503
-0.000136875
-8.8584e-05
-0.000388273
0.00628923
0.00454624
0.000388874
-0.00534325
-0.0053441
0.00454721
-0.000388333
0.00628847
-0.000121798
-1.67255e-06
0.000292958
-5.58947e-05
0.000139983
0.000181363
0.000589542
-8.79871e-05
0.00969883
0.0070095
-0.000551203
-1.15969e-05
-0.000198583
0.00238517
-0.000119906
0.00684947
-0.000181032
8.36375e-05
0.000743686
0.00304154
0.0099328
-0.00420019
0.000203179
-0.00147748
-0.00913692
0.0225593
-0.0130419
0.000921681
-0.000176631
-0.000886644
0.00410172
0.000644201
0.001635
0.00419655
2.28079e-05
-0.000790355
0.00163432
0.0124785
0.00851417
0.0214957
0.0119954
0.0174262
0.0192819
-0.00045421
0.00221952
0.00129596
0.000771053
-0.000121614
0.000749595
0.00125089
-8.74951e-05
-0.00055136
0.000182225
-1.62723e-06
0.000234381
0.000140784
7.42938e-05
1.03343e-05
-1.17243e-07
1.56749e-06
4.19256e-06
6.3694e-05
0.00427718
6.70446e-06
7.84237e-06
7.97331e-05
0.0121211
6.11717e-05
-0.000296836
-0.000196359
0.000378184
0.000631239
-3.60339e-06
-5.78623e-05
-0.000236689
-0.000339219
0.00141368
0.00460145
0.00283106
0.00069829
2.37289e-05
0.00213719
0.00127271
0.00304716
0.000590174
-9.60346e-05
0.00380922
-4.07096e-05
-6.83881e-05
-0.000105655
-3.50768e-05
4.17061e-05
0.000140576
0.000296167
-0.000340029
0.00126707
-0.00014783
-5.68203e-05
-8.15194e-06
0.002471
-5.8872e-05
0.00130071
6.35376e-05
3.78256e-05
4.42182e-05
-9.10769e-08
-8.13714e-05
5.48049e-05
4.39995e-05
-0.000149345
-2.50285e-05
-4.58387e-09
0.000460376
0.000151065
-0.000351256
-0.000275011
0.000296819
-3.42027e-05
0.000117243
-0.000213332
7.83396e-05
0.00813289
-7.27107e-05
-0.000102363
0.00204609
-0.000180726
-0.00190482
4.95258e-05
0.000281232
-7.50536e-06
-0.000120706
-4.54175e-05
-0.000614115
-7.52926e-05
-2.81652e-05
-4.72664e-05
-7.487e-06
-0.000214649
5.28776e-06
0.000259754
0.0131515
0.0103307
0.000155081
-0.0013011
0.000154513
0.0187189
0.0214967
-0.000131787
-6.75753e-05
9.83348e-05
7.0511e-05
0.000780211
0.000646294
-0.000989686
-0.00099048
3.46984e-05
-0.000958032
0.000437523
0.000259715
-0.000153926
-0.00017939
-0.000131683
2.78592e-06
-2.38052e-07
-5.1491e-06
0.000124416
0.00017708
0.00015472
0.000364901
0.000463822
-0.00038203
0.000177901
0.000175204
0.000381842
6.5998e-05
0.000270651
0.000281243
0.000270658
0.000381834
0.000175208
0.000463856
0.000177897
-0.000382023
0.000354761
-0.000107989
0.000364838
0.00015475
0.000177127
0.000124382
-5.16595e-06
-1.28282e-05
0.000411554
-0.00041665
0.000437616
1.14651e-05
2.84794e-06
-0.000131717
-0.000179415
-0.000153876
-0.000361344
8.8206e-05
-0.000401549
-3.40599e-05
0.000213765
-9.09944e-05
0.000715011
-4.08721e-05
0.000213561
-3.42224e-05
-0.000401392
8.81545e-05
-0.00019565
0.000759227
-0.000245055
-8.73673e-05
0.000511153
0.000510642
8.46733e-05
-0.00069261
-0.000109641
0.00124992
0.000107474
0.0013007
-0.00170279
6.36296e-05
0.00219479
-0.00252478
0.00189383
-1.992e-05
-0.00137931
0.00119925
3.31721e-05
5.0978e-05
6.36611e-05
5.57705e-05
-1.63272e-05
-0.000226074
-0.000399674
0.00410188
-0.00338437
0.0138254
-0.0101994
0.00169538
0.0126768
-0.00031572
-0.0132182
0.00963765
-0.00723666
-0.0157401
-0.0132709
-0.0130418
-0.0135597
0.0225594
0.00436193
0.00304233
-1.73046e-05
-0.00769374
-0.0151216
-0.00704257
-0.012869
-0.00704215
-0.0151224
-0.00769356
-0.0135602
0.0225593
-0.0132708
-0.0130421
-0.0157406
-0.00723671
0.0096376
-0.0132184
0.0202488
-0.0208302
0.0138252
0.00169576
0.0126771
-0.0101995
0.00633022
0.0146992
0.0103301
0.00761943
0.0179836
0.006317
0.00397534
0.0111641
-0.0114979
-0.0114976
0.00397535
0.00631651
0.0179833
0.00761937
0.0103297
0.0131498
0.0147006
0.00633125
0.00815012
0.00691166
-0.00394038
0.0187181
0.0209489
0.0214946
0.0172682
0.0174256
0.0192815
0.017426
-0.0319651
0.000643897
0.000644377
-0.00911057
0.0172679
0.0214946
0.020949
0.0187189
0.00691128
0.00815006
0.00620977
-0.000504059
-0.000278061
-0.000134461
-0.00681429
-0.00886624
-0.00849915
-0.0197413
-0.0234792
0.00439885
-0.00909978
0.0205803
-0.01647
0.0142396
-0.0115491
0.00964376
-0.00766745
0.00623512
-0.00481685
0.00382661
-0.00286899
0.00222823
-0.00163717
0.00124585
-0.000950804
0.000969672
-0.00105117
0.0010545
-0.000958162
0.000780159
7.04253e-05
0.000646874
-0.000245342
0.000759435
-0.000195554
0.000259608
-5.02085e-05
3.31815e-05
5.10507e-05
6.36145e-05
5.55413e-05
-1.65795e-05
-0.000226393
-0.000399972
0.00410167
-0.0033843
-0.00129845
0.00215796
0.000615706
-0.00805235
-0.00805241
0.00215797
-0.00129834
0.00061583
-0.00359131
-0.0208305
0.0202489
-0.00148728
-0.0162164
0.00156917
-0.000907768
0.00204612
-0.000312654
-0.000360048
-0.00243656
-0.00120466
-0.00243651
0.00156888
0.00436183
0.00993226
0.00304246
-0.00248216
-0.00248201
0.00993239
0.000528982
-0.00625773
0.00684931
0.00684923
-0.000180962
-0.00625771
0.000203145
0.00159359
0.00197578
0.00092175
-0.00913729
0.000921654
0.000291166
0.0135816
-0.00343987
0.00427198
-0.00734403
-0.00933625
-0.0200849
-0.0147041
0.0308544
-0.016501
0.0203514
0.0203523
0.000483056
0.0157295
-0.000308679
-0.0125302
0.0106227
-0.000153
-0.00869436
0.007018
-4.78313e-05
-0.00566171
0.00441353
2.02281e-06
-0.00347875
0.00262655
2.28314e-05
-0.0020353
0.00148337
2.71417e-05
-0.00117831
0.000806933
3.39335e-05
-0.000812621
-0.00011139
-0.00076229
-0.000762292
6.59861e-05
-0.000141287
4.6745e-05
-0.000212881
-8.04888e-06
0.000134165
0.000134142
-0.000160631
-1.51853e-06
0.000162256
0.000162249
-0.0001188
2.29758e-05
0.000267616
0.000267489
-5.70479e-05
6.58781e-05
-0.000127366
-0.000127688
-0.00021361
-0.000116884
-0.000178262
-0.000196365
-0.000293377
-0.000119298
0.000213509
-0.000325996
4.45198e-05
0.000151051
0.000460362
-0.00028
-0.000149368
-2.50387e-05
-0.000264358
1.15157e-06
0.000265078
-0.000433548
-1.90947e-07
4.9532e-05
0.000432854
-4.22183e-05
3.69841e-06
4.40983e-05
1.9981e-06
8.333e-06
1.87173e-05
3.32925e-05
6.06973e-05
0.000125453
0.000155234
7.76537e-05
-0.0205485
0.0218289
-0.0225649
0.0198005
-0.0165127
0.0142663
-0.0118073
0.0097173
-0.00788423
0.00625304
-0.0049797
0.00380872
-0.00298216
0.00219499
-0.00170289
0.0011995
3.464e-05
-0.00099034
-0.000990048
-0.000692271
0.00090933
0.00013221
0.000909647
-0.00127317
-0.00176564
-0.00176727
0.00229845
0.00225758
0.000172099
-0.00302919
8.41549e-05
-0.00298228
-3.71913e-05
0.00333266
-0.00331931
-7.36947e-06
0.0042769
-0.00400702
0.0030813
1.03649e-05
0.00247085
-4.35957e-06
-0.00188731
0.00135239
-2.48785e-06
0.00105449
-2.28752e-06
-0.000416655
1.15286e-05
-4.22002e-05
0.000213515
-0.000119319
-0.000293362
-0.000196336
-0.000178182
-0.000116903
-0.000213301
0.000117217
-5.70613e-05
1.1681e-05
-0.00035119
0.00015095
4.49382e-06
4.45242e-05
0.000460389
-0.000325944
0.000432848
4.95418e-05
-1.18588e-05
-0.00011879
2.44016e-05
4.2588e-05
7.55629e-05
0.000113183
0.000141514
0.000122262
-1.13731e-05
-0.000198456
0.00238516
-0.00261753
-0.00601955
-0.0044874
-0.00190478
0.000997264
-0.000176823
-0.000315247
-0.00147748
-0.0162162
-0.000907661
0.00204599
-0.000180722
8.35274e-05
0.00026602
-0.0113141
0.0105648
-0.0136942
0.00411483
-0.0338611
0.00404557
-0.0139773
-0.000227904
0.0140843
0.0139204
-0.0165527
-0.000232147
0.00141348
0.00460203
-0.00023708
-0.00521217
-0.0095642
-0.0115344
-0.00137946
-0.00239679
-0.00329897
-0.0012734
-0.000479652
-0.00104922
-0.000746341
-0.000495697
-0.000589796
-8.70542e-05
-0.00042376
6.12005e-05
0.0167535
-0.0182978
0.0159054
-0.0164178
-0.00035604
0.0181681
-0.000102707
-0.000186949
-0.000360161
-0.000312877
-0.00359135
-3.85893e-05
-0.000557515
0.000203504
-0.00419963
-1.72328e-05
0.0069963
-0.00282842
-0.0111999
-0.00142655
0.00119411
-2.37131e-05
-0.00083582
-0.000910997
-0.000716265
-0.000504254
-0.00034667
-0.000236237
-0.000135765
1.34853e-05
0.000215342
0.000215354
0.000222002
-3.99227e-05
-0.000106899
-0.000190542
-0.000316452
-0.000335394
2.0895e-05
-0.000295137
-0.000190388
-0.00011827
-0.000178269
5.4187e-05
6.37068e-05
0.00514656
-0.00555528
0.00427681
-0.0043763
-6.25432e-05
0.00557689
-0.00717863
-0.000104796
0.00882722
-0.0111605
-0.000185571
0.0131591
-5.59877e-05
-0.0131724
0.0108559
-1.7647e-05
0.0121216
-0.01493
-3.86809e-05
6.30021e-06
-0.000111618
-5.51277e-05
-2.8305e-05
-0.00880531
0.00700253
1.46646e-06
0.00813254
-0.0102002
-7.29814e-05
8.00256e-05
-3.38619e-06
-5.78974e-05
-7.9277e-05
0.0131273
0.000609741
-0.00148735
0.00828179
-0.000338715
-0.000535808
0.00283045
0.0085121
0.0124779
0.00404294
0.00305374
0.000698821
-0.000297804
0.000631507
0.000378549
7.88478e-06
6.9434e-06
4.19245e-06
1.63487e-06
-6.60268e-05
-7.74546e-05
5.83885e-05
4.59903e-05
0.00308132
-0.0033194
0.00247093
-0.00252488
-3.73182e-05
0.00333276
-7.50955e-06
-1.1177e-05
-2.51711e-05
-1.42793e-05
4.36162e-06
8.89403e-06
-0.00400734
-6.11592e-05
-0.000112521
0.0044134
-5.6656e-05
-0.00566234
-4.81417e-05
0.00701803
-0.000146863
-0.00869472
-0.000153367
0.0106222
-0.000335006
-0.01253
-0.000309764
0.0157293
-0.000673558
-0.016561
-0.000923113
0.0260386
0.0175102
-0.00344214
0.000743604
0.000743523
0.026039
-0.000923004
-0.0165609
-0.00344202
-0.0165003
0.00427232
0.0308541
-0.00222646
-0.0147037
-0.0200836
-0.00933582
-0.0234803
-0.00734392
-0.00282822
0.00699633
-0.00419979
0.000922007
0.00197633
-0.00913718
0.000921952
-0.00147761
-0.000557926
-0.000886697
-0.000333005
-0.000119984
-0.000218306
0.000179674
-0.000581251
0.000483053
-0.0153018
0.0140216
-0.0114793
0.00949232
0.00949201
-1.22749e-06
-0.0078333
6.19261e-06
0.00612903
-7.63468e-06
-0.00498434
5.43193e-05
0.00374091
-7.11764e-06
-0.0029977
7.96229e-05
0.00214774
-1.06519e-05
-0.00173646
0.000110183
0.00115795
-2.41959e-05
-0.00103459
0.000173458
0.000562088
7.17757e-05
0.000562049
-0.000111403
-0.000812672
3.39187e-05
0.000806931
3.86452e-05
-0.00117832
2.71636e-05
0.00148333
2.10639e-05
-0.00203536
2.27718e-05
0.00262642
-8.09289e-06
-0.00347879
1.84888e-06
5.42221e-05
0.00374086
-4.52414e-05
-0.00299749
0.00214765
-0.0017364
0.00115795
6.25552e-05
-0.00103458
0.000173388
-4.7294e-05
-5.12115e-05
0.000110184
-0.00010498
-0.000138779
-0.000198375
-0.00027923
-0.000308213
-9.2246e-05
0.000285629
0.000285992
-0.0111996
-0.0115342
-0.00137934
-9.31707e-05
-0.0153011
-0.000808588
0.0140215
6.95769e-05
-0.0114791
-0.000163232
-0.00016164
-0.000545356
6.92578e-05
-0.000613744
-0.000443949
-1.40092e-06
-0.00783314
0.00612926
-0.00498452
-7.79836e-06
-0.000329102
-0.000120078
-0.000221407
-7.19869e-06
-0.000132524
-1.06818e-05
1.65499e-05
-6.76563e-05
-2.41912e-05
1.9021e-05
-0.000249641
4.67592e-05
-0.000141268
0.000263291
0.000102794
0.000102777
0.000263299
0.000122762
-2.6884e-05
0.00021779
-0.000458146
-2.92633e-05
6.79504e-06
0.000333281
3.07464e-05
-0.000217617
0.000116335
0.000299391
0.000208751
0.00027499
0.000151181
-3.36691e-05
-3.60131e-05
-3.41625e-05
-9.91932e-06
0.000207693
-3.4174e-05
0.000122768
0.000217827
-2.68882e-05
-8.34538e-05
-2.92158e-05
0.000333299
6.78599e-06
-4.76847e-05
-2.14398e-07
-0.000433563
0.000265091
1.12043e-06
-0.000264359
-2.50323e-05
6.90213e-07
-3.59789e-05
-2.72413e-05
8.15971e-05
-8.34699e-05
-5.95801e-05
-2.59704e-06
2.2966e-05
7.02601e-07
-1.20121e-09
8.61385e-07
-2.60529e-06
8.161e-05
-0.000212894
-5.95164e-05
-4.73082e-05
3.25942e-06
8.58288e-06
1.36208e-05
1.88173e-05
2.98536e-05
6.94796e-05
-5.07126e-05
-0.000807599
-5.07104e-05
0.000155051
-0.000673194
0.0205807
7.74086e-05
0.0167541
-3.84179e-05
0.0159059
-5.63385e-05
0.0131603
-0.000185792
-0.0111603
0.00971801
7.44027e-05
0.00629378
0.00628876
0.000344204
-0.00758433
0.00962327
0.00969954
0.000313262
-0.0111659
-6.18507e-05
-0.0118088
0.0142664
-0.0164179
0.0181678
-0.000355498
-0.0165137
-0.000231648
0.0139194
0.0140848
-0.000228423
-0.0165521
0.0198014
-0.022565
-0.000102462
-0.018298
0.021829
-0.0205484
0.0131278
0.000266089
-0.0113141
-0.000434578
0.010565
-0.000765906
-0.0136946
-0.0101364
0.00411478
0.00404638
-0.0338619
0.0124786
0.0119946
0.00163414
-0.000454295
-0.0104837
-0.000347495
0.01011
0.0101114
-0.000789147
-0.0105819
0.000313404
0.00969842
0.00962451
-0.0111659
-6.26514e-05
-0.00758437
0.000344537
0.00628841
0.00629429
7.41475e-05
-0.00492363
0.000259904
0.00386997
0.00390304
9.70487e-05
0.000234611
0.000140985
7.4306e-05
1.03227e-05
-1.56933e-07
-1.07775e-05
4.33354e-06
5.58151e-05
2.9855e-05
0.00175191
-0.00188734
0.00135253
-0.00137943
-1.98539e-05
0.00189393
-4.43181e-06
-5.04018e-06
-2.04646e-06
-2.53216e-06
-4.40815e-07
-4.98452e-06
-0.000456918
-0.000214621
7.9754e-05
0.000165536
0.000108876
1.80479e-05
1.33289e-06
-2.96017e-07
5.29498e-06
-2.49445e-05
-4.0705e-05
-6.46358e-05
-9.61128e-05
-0.000138695
-0.000196865
0.000182931
0.00126977
0.00213645
0.00125036
0.000594079
-1.19148e-06
-0.000121722
-8.77394e-05
-0.00735942
-0.00534437
0.000388561
0.0045459
0.00454688
-0.000388357
-0.00351744
0.000306175
0.00279291
0.00279348
-0.000266013
-0.00300161
0.000172339
0.00225763
0.00229866
-0.0030293
8.41539e-05
-5.49586e-05
0.000298382
0.000749204
0.000440865
0.000140678
-6.71523e-05
-8.42387e-05
-0.00176571
0.000107446
0.00125016
0.00130077
-0.00176715
6.35496e-05
-6.84599e-05
4.15024e-05
0.000239269
9.83508e-05
-3.54974e-05
-0.000105754
-7.10299e-05
-0.000132142
-6.76193e-05
-0.000229
-0.000289009
-0.000258683
-0.00022389
-0.00026912
-0.000287471
-0.000229223
0.000296806
-0.000278417
0.000150064
0.000112535
-5.87878e-05
-0.000109653
-3.2331e-05
3.10803e-06
9.01425e-06
-0.00125699
-2.73518e-05
4.96241e-06
1.03735e-05
-0.00230848
-4.72648e-05
-7.65492e-05
7.96697e-05
-7.65128e-05
-0.000112536
-0.000150493
6.06273e-05
0.000125404
-0.000335518
0.0142398
1.02561e-06
0.0121221
-1.74027e-05
0.0108559
-2.85078e-05
0.00882777
-0.000105088
-0.00717872
0.0062535
9.72471e-05
0.00390272
0.00387034
0.00025969
-0.00492316
-0.00483721
-0.000388531
-0.00351656
-0.000121941
0.00129499
0.00221772
0.00419534
2.24033e-05
2.24714e-05
0.00163391
-0.000454173
-0.0139789
-0.010482
-0.000308322
8.35511e-05
6.17297e-06
-0.000187001
-0.000111779
-0.000119931
-6.39199e-06
-0.000161531
-0.000163355
-0.000150501
6.30595e-06
-6.42668e-08
-5.96288e-05
-2.79581e-05
-1.27774e-05
-6.22932e-06
-2.71241e-06
1.32122e-06
3.2879e-05
4.41135e-05
1.99433e-06
8.37574e-06
1.87082e-05
3.32166e-05
-5.62608e-05
0.0062348
-7.51769e-05
0.00514687
8.96505e-06
-0.00555531
-1.42981e-05
0.00557682
-6.2568e-05
-0.0043763
0.0038088
-0.00498001
-9.63314e-05
6.34391e-05
5.44131e-05
-0.000316506
-0.000495675
-0.000745179
-0.000306214
-0.00027804
-0.00019755
-0.00013817
-0.000190746
-0.000106984
-0.000104561
-7.20776e-05
-3.98286e-05
0.000222034
0.000165736
0.00010901
-0.000950751
-2.73292e-05
0.000969657
-4.95856e-06
0.000411543
5.2858e-06
3.70227e-06
-2.05431e-06
-5.03981e-06
-1.11814e-05
-2.52687e-05
-5.50354e-05
-6.29295e-06
-1.17781e-07
1.28402e-06
-0.00657397
0.00700251
-0.00880559
0.00813324
-0.00766761
-7.31565e-05
0.00964364
-0.000147023
-0.0115492
-8.61595e-05
-0.000422985
-0.0164704
-0.00329794
-0.00910017
0.00828247
-0.008501
-0.0197397
0.0043991
-0.00956208
-0.00521151
-0.00886573
-0.00681384
0.000609866
-0.000135429
-0.000270263
-0.000505949
-0.000536243
0.00620951
0.00460145
-0.000236456
-7.88829e-05
-0.00127451
-0.00239536
-0.000479038
-0.00105233
-0.000294575
-0.000591321
2.14636e-05
7.84297e-05
7.9345e-05
-0.0102001
-0.0131728