/*--------------------------------*- C++ -*----------------------------------*\
| =========                 |                                                 |
| \\      /  F ield         | OpenFOAM: The Open Source CFD Toolbox           |
|  \\    /   O peration     | Version:  2306                                  |
|   \\  /    A nd           | Website:  www.openfoam.com                      |
|    \\/     M anipulation  |                                                 |
\*---------------------------------------------------------------------------*/
FoamFile
{
    version     2.0;
    format      ascii;
    arch        "LSB;label=32;scalar=64";
    class       volScalarField;
    location    "1.5";
    object      gradTy;
}
// * * * * * * * * * * * * * * * * * * * * * * * * * * * * * * * * * * * * * //

dimensions      [0 -1 0 1 0 0 0];

internalField   nonuniform List<scalar> 
2658
(
0.00833627
0.00484619
0.0015034
-0.000142217
-0.0162783
0.0199444
-0.0164372
0.0138544
-0.000162163
-0.0141534
0.00432304
-0.0337933
0.0208356
0.0211786
0.0172013
0.0176401
0.0192891
0.0173708
0.0176049
0.0209145
0.0201788
0.0176519
0.0058659
-0.00386958
0.00640421
0.0192683
-0.00416529
0.00117415
0.0157167
-7.96722e-07
-0.0157169
0.00416537
-0.0192693
-0.00586578
-0.00640399
0.00387007
-0.000974673
0.00166041
-0.0176573
-0.02018
-0.020916
-0.0176056
-0.0173695
0.00861054
-0.00112628
-0.000464519
-0.0043233
0.00896558
-0.0176433
-0.0172015
-0.0211771
-0.0208357
-0.018548
0.00381083
-0.00692436
-0.00641753
0.00045821
-0.0107241
-1.20822e-07
-0.000124009
-0.000457967
0.00641723
0.0069248
-0.00381133
0.00417201
-0.00983175
-0.0135895
-0.000642664
-0.0220944
0.0220945
2.02412e-07
0.0181107
-0.000222915
0.0144058
-9.50448e-06
-0.0109376
-0.0108238
0.000385248
0.0100689
0.00659563
-0.00725785
-0.000657347
0.00965009
0.0145373
-0.000284337
-0.000148371
3.08622e-05
8.52109e-05
8.47408e-05
6.91178e-05
4.78418e-05
-9.1525e-05
4.67758e-05
0.00024692
-0.000102183
-0.000278252
-3.96319e-05
-0.000266698
-4.36218e-05
-9.6748e-05
-0.000291154
-7.45091e-05
-0.000274121
-0.000134759
-0.00011457
0.000266779
-9.45991e-05
-7.61747e-06
3.80206e-05
-0.000274423
9.12389e-05
-0.000122794
-3.59238e-09
0.000122797
-9.12586e-05
0.000274419
0.000114575
-0.000266795
0.000274107
0.00013475
7.44657e-05
0.00029115
9.67428e-05
4.36145e-05
-0.000211087
-0.000203978
-0.000246939
0.000278283
3.96541e-05
0.000102204
0.000286251
6.95294e-05
0.000135791
0.000127244
0.000256924
-0.000119222
1.19188e-05
1.70583e-05
-0.00028166
0.000281732
-1.19393e-05
0.000119238
-6.87952e-05
-7.13133e-05
-6.55474e-07
7.10864e-05
1.31962e-07
1.58328e-07
-0.000143304
0.00014123
3.37852e-07
1.15181e-05
7.74496e-05
-8.79158e-05
0.000345584
7.86508e-05
0.000325086
0.000386358
0.000411128
0.00032204
0.000324348
0.000376976
0.000324576
0.000326736
0.000419622
0.000389789
0.000338861
0.00010783
-1.43175e-05
9.49511e-05
-0.00061639
0.000911311
-0.00114058
0.00159061
-0.00206843
0.00269533
-0.00354145
0.00434137
-0.00571706
0.00660666
-0.00874378
0.00949946
-0.0127891
0.0129253
0.012681
0.0106381
0.0101096
0.014154
0.0162778
0.000142037
-0.0199448
0.0135896
0.00983093
-0.00417215
0.0337928
-0.0041938
0.000284071
0.000148201
-3.09218e-05
-8.53417e-05
-8.48527e-05
-6.91031e-05
-4.78378e-05
9.15292e-05
-4.67543e-05
4.04533e-07
-0.000115255
4.79166e-05
-0.000147459
0.000147452
0.000115269
-4.17082e-07
-4.79363e-05
-4.23303e-05
0.000203996
0.000211079
-0.000281382
0.000240151
5.61075e-05
-4.07374e-06
-3.86959e-05
3.59611e-05
-2.50383e-05
-2.2287e-05
-9.6406e-10
2.2276e-05
-5.61683e-05
9.45905e-05
-0.000187583
7.63989e-06
-0.0002056
0.000205634
0.000187598
4.64668e-09
-0.000130507
-0.000143846
0.000143869
-4.60262e-05
0.000130528
-1.97778e-05
1.7229e-09
-9.83067e-05
-4.45132e-05
0.000130486
-3.35721e-05
1.34579e-08
9.7726e-09
-3.81479e-09
-0.000214017
0.000145766
0.000390249
-9.76212e-05
0.000309125
-0.000436237
0.000590839
-0.000709564
0.000709526
9.9687e-05
0.000936243
6.45082e-05
-0.00131018
0.00169945
3.98362e-05
-0.0022788
0.00295694
-6.39569e-07
-0.00379144
0.00486246
-8.90807e-05
-0.00597495
0.00755455
-0.000318622
-0.00889268
0.0111286
-0.000941845
-0.0124943
0.0155537
-0.00275319
-0.0176603
-0.00831177
-0.0186805
0.0186807
-0.00117355
-0.00525785
0.00977484
0.00871493
-1.0113e-07
-0.00615145
0.00615148
0.00644276
-6.49383e-08
-0.00775459
0.00775457
0.00315369
-5.15516e-08
-0.020341
0.0203407
-0.0128628
1.25107e-07
0.0128625
-0.0100455
0.00637574
0.0146925
0.010295
0.0131153
-0.0197435
0.0138907
0.00181137
0.00117444
0.00015754
-0.00315381
-0.00115142
-0.00331418
-0.0113045
0.00628326
0.0177418
0.00759406
0.00841571
-0.00438217
9.00674e-08
0.0043824
0.00331418
-0.0138908
0.019743
-0.0146938
-0.00637666
0.0100452
-0.00181178
-0.00117455
-0.00841489
-0.00759462
-0.0177415
-0.00628359
0.0113043
-0.0112368
-0.00434251
-0.016412
-0.00384604
0.0106433
0.00255791
-0.00242462
0.0115628
-0.00236473
-0.00289258
-6.59606e-05
-0.000199821
-0.000276912
-0.000249581
-0.000190716
-0.000134087
-8.768e-05
-9.01798e-05
-0.000576131
-0.000489527
-0.000439483
-0.000678238
0.00103531
-0.0012878
0.00182456
-0.00234099
0.00309436
-0.00402408
0.00497874
-0.00654061
0.00756139
-0.010069
0.0108244
-0.0145377
0.000161614
-0.0138539
0.0164384
-0.0181111
0.0161001
-6.7171e-08
-0.0161
0.0130623
-0.0117585
0.00954567
-0.00742415
0.00981468
0.000100502
0.00622758
0.000397444
-0.00756068
-0.000473851
-0.00501423
-0.00573122
0.000406531
0.00490152
0.00535511
-0.00640854
-0.000517932
0.00752306
0.000345512
-0.00813913
0.0107301
-0.000324354
-0.0101095
-0.000281862
0.000464564
-0.00896577
0.0112365
-0.0115632
0.00242438
0.000794174
-0.000151975
-9.55776e-08
8.18939e-05
-7.96861e-05
-0.000183637
-0.000184164
-0.000147072
-0.000105733
-6.84751e-05
2.50356e-05
-3.59623e-05
3.86825e-05
4.60003e-05
4.08162e-06
-0.000240174
0.000281385
-0.0001711
0.000170244
0.000105154
9.04099e-05
0.000203927
0.000148383
-4.31529e-05
-0.000497882
0.000938912
-8.52237e-06
-0.00122297
0.00097881
-0.00071386
-8.93294e-05
-4.86577e-05
0.000193226
0.000194943
0.000193798
0.000123938
0.000146346
-1.73861e-05
4.32858e-05
8.67081e-05
-4.78003e-05
-0.000209681
-5.17095e-05
-7.4792e-05
-0.000146911
-0.000162981
5.82273e-05
5.98863e-05
8.19145e-05
0.000898296
0.000790394
-0.000943762
-0.000822061
9.5453e-05
0.000715292
-9.99582e-05
-3.22394e-05
-0.000199768
-0.000418763
-0.000421789
-0.000733753
-0.000328759
-0.00025288
-0.000403478
-0.000612074
1.1154e-05
4.79022e-05
0.000119052
0.0026032
0.00236611
-0.00301034
-0.0026018
0.000239675
0.00206679
-0.00150385
0.000157528
0.00123472
-0.000153495
0.00139929
-0.00174018
0.000166481
0.00154696
-0.00107606
0.000101677
1.82449e-05
-5.27405e-05
-0.000936099
1.10279e-05
0.000741876
-9.22927e-05
-0.000541868
-0.00011371
-5.26618e-05
-1.90152e-05
2.37302e-05
7.69349e-05
0.000107373
0.000103216
-0.000176033
8.86171e-05
0.000124071
7.4261e-05
-9.28406e-06
2.26554e-05
6.4611e-05
7.65329e-05
-0.000210805
-0.000427173
-0.00075019
-0.000745391
-0.00126683
-0.00121689
-0.00204971
-0.00119748
-0.00062393
-0.00123607
-0.00282118
-0.000357648
-9.32686e-05
9.32687e-05
0.00640859
0.00573188
-0.00752273
-0.00659457
0.000473896
0.00501444
-0.004253
0.000343183
0.00330304
-0.000322541
0.00379144
-0.00490119
0.000369825
0.00418893
-0.00330521
0.000255003
4.45611e-05
2.95168e-05
-8.65066e-05
-0.00169924
8.52578e-06
0.00131017
-6.45197e-05
-2.84355e-05
-0.00130604
0.00184158
-0.00231661
0.00231669
5.76367e-05
-0.0031386
5.00055e-05
0.00390307
3.23268e-05
-0.00507961
6.98526e-05
0.00621016
-5.45302e-05
-0.0077589
7.27467e-05
0.00932937
-0.000361441
-0.0111325
-2.53555e-05
0.0132435
-0.00153155
-0.0146012
-0.00122006
0.016958
-3.25057e-07
-0.016958
0.0083104
0.0176613
0.00275202
-0.0155531
-0.000170311
0.0124939
0.000941167
-0.011128
-4.55454e-05
0.00889377
0.000317976
-0.00755371
-1.96429e-05
0.00597567
8.83636e-05
-0.00486224
-5.01616e-06
0.00379167
3.56107e-07
-0.00295672
3.73206e-06
0.00227894
-3.97887e-05
-3.47424e-05
-0.000138948
-8.23412e-05
-3.0352e-05
0.000104731
-5.94535e-08
-5.09449e-09
-1.60479e-07
1.6511e-08
1.59559e-07
3.32198e-07
7.21621e-07
2.7088e-06
8.47852e-07
-2.90484e-07
-9.83792e-07
0.00528457
-0.00528534
-0.00735206
-0.00715212
-0.00195978
-0.00389053
-0.0120412
0.0346759
-0.00288382
0.000402912
-8.82205e-05
-0.000273404
0.00122009
0.014602
0.00153064
-0.013243
-1.20609e-07
-1.19645e-07
-1.34698e-07
0.000361252
-0.00932928
0.0111326
2.52967e-05
-0.000216708
-0.000213424
-7.2966e-05
0.00775905
5.43188e-05
-0.00621027
9.62806e-08
-1.12214e-08
-4.32212e-08
-5.71615e-08
-5.78953e-05
0.00313867
-0.00390302
0.00507992
-6.97124e-05
-0.00017693
-0.000129705
-5.24824e-08
-2.84175e-08
4.48225e-09
-5.68092e-09
-9.97271e-05
0.0010455
-1.21873e-08
-0.00104553
2.84635e-05
0.0013061
7.13788e-05
-0.00184164
3.47096e-05
8.64526e-05
1.4419e-08
-7.15326e-05
3.29062e-08
5.27229e-05
1.90123e-05
0.000541893
9.22278e-05
-0.00074187
5.26694e-05
-0.000590832
0.000214043
0.000436237
1.93978e-08
-0.00030911
9.76573e-05
-0.000390265
-0.000107839
-0.000145757
-1.4032e-05
-8.50215e-05
-4.6124e-05
3.35667e-05
9.82955e-05
-0.000130512
4.45249e-05
-0.000135204
9.84121e-05
-1.13022e-09
-9.84166e-05
-4.94622e-05
0.000266687
0.000135203
1.97938e-05
4.61403e-05
-3.80208e-05
8.50376e-05
1.40264e-05
2.02969e-05
-9.41555e-05
-4.11648e-05
0.000135027
0.000126443
-2.80019e-05
3.3813e-05
0.000191509
-0.000262628
0.000264612
-2.64967e-05
2.42039e-09
1.94748e-08
1.11238e-08
-3.29855e-09
5.65946e-09
-1.16346e-08
-4.66181e-09
1.53375e-08
-3.19904e-08
-2.38205e-08
9.87905e-08
8.82122e-08
-7.40001e-08
-1.20417e-07
6.60221e-09
-4.47019e-07
-0.00977533
0.0052581
-0.00451343
0.00749486
-0.00749508
0.00451318
-0.0149099
0.00155052
-0.00597748
0.0136512
0.00345872
-0.000308223
0.0127617
-0.0111994
-0.00676408
-0.017564
-0.00573699
-0.00859885
-0.0123333
-0.00711871
0.00072658
0.00623428
0.00192359
-1.66534e-06
2.67773e-07
-0.00192279
0.0149096
0.0059773
-0.00155091
0.00459358
-0.00345895
-0.0127622
0.00030788
0.00146847
-0.00255809
-0.0106435
0.00384519
0.016411
0.0043424
0.00745287
-0.0060955
-0.00623576
9.0017e-07
-0.00223568
-0.00459372
0.000386653
-0.000423756
-0.00723552
0.00609539
0.00125398
-0.00745291
-0.000144917
-0.000157736
0.00115118
-0.000794189
0.000151824
0.000281789
-0.00176042
-0.00420284
-0.00218494
-1.15165e-05
0.00934444
0.00814055
-0.0107302
-0.00964914
0.000657523
0.00725788
-0.000345606
-8.73869e-05
-0.00217818
-0.00126727
5.15097e-05
0.000102351
0.00010304
9.07191e-05
0.000100678
-0.001934
-0.000199546
5.71353e-05
0.00174019
-5.05729e-05
-0.00222163
0.00296039
-8.1103e-05
-0.00384633
0.00297204
-0.00225664
-0.000205563
-0.00385167
-0.000106267
-0.00631379
0.00482228
-0.00029887
-0.0062272
-0.000100672
-0.00981453
0.00742366
-0.000397658
-0.00954542
1.00803e-05
-0.0144065
0.0109367
-0.000386075
-0.000772982
-0.00411129
-0.0123544
-0.0123368
-0.0192945
-0.00171763
0.0317404
-0.00287714
-0.00305378
-0.00150333
-0.000680918
-0.000402732
-0.000245163
-0.00014376
-7.19051e-05
-5.92966e-05
5.13534e-05
2.01995e-05
0.00247655
9.25994e-08
-0.00247673
0.00328724
4.65395e-08
-0.00429145
0.00429139
-0.00328722
-2.67655e-08
-2.27554e-08
6.1617e-09
2.53245e-05
7.23487e-05
-6.77993e-06
0.000444756
1.52814e-07
-0.000444843
0.00100183
7.87568e-08
-0.00135438
0.00135425
-0.00100172
2.0286e-05
0.000116269
-0.000134598
0.000134618
-7.14285e-05
-3.41209e-05
-0.000116314
0.000497935
4.32391e-05
-0.000148461
0.000714085
8.57753e-06
-0.000978981
0.00122301
-0.000938827
6.71909e-06
-2.53189e-05
-2.37336e-05
8.76577e-05
-1.09759e-05
0.000616419
9.02446e-05
-0.000898259
-0.000101643
0.000943799
0.00015349
-0.00123463
-0.000157546
0.00150445
0.0023409
0.000205684
-0.0029722
0.00384597
8.12596e-05
0.00225709
-0.00174038
0.00222163
5.05774e-05
0.00126016
0.000138542
-0.00182434
0.00128781
0.00082233
-0.000715376
-9.54239e-05
-0.00103517
8.92694e-05
0.000678216
0.000439579
9.99163e-05
-0.000790348
0.000489553
0.000576201
-0.000170249
-7.69072e-05
-0.000105101
0.00076786
-9.04223e-05
-7.23493e-05
-0.000203871
0.000796109
-0.000322045
-0.000324397
0.000176066
-0.000103202
-0.000107381
-8.66702e-05
-0.000146357
-0.000104727
3.0325e-05
8.24466e-05
1.74205e-05
7.49617e-05
0.000138862
0.000215278
0.000147176
0.000253228
0.000306661
-0.000307108
-0.000215302
-4.9989e-05
-0.000375278
0.000374559
0.000403731
0.000624333
0.00034775
-0.000348741
-0.000401111
0.000401783
0.00123826
0.00735342
0.00715391
0.00196327
-0.0129249
-0.000357711
-0.0126807
-0.000403
0.00112615
-0.0317406
0.00236455
0.00289228
6.55335e-05
0.00019951
0.000276511
0.000249392
0.000190586
0.000134043
-8.47442e-06
0.00114072
0.000138784
-0.00154691
-0.000166576
0.00174019
0.000227816
-0.00206667
-0.000239248
0.00260263
0.00402424
0.000298624
-0.00482273
0.00631362
0.00010635
0.00385209
-0.00495591
-3.66973e-05
0.00551124
-1.62408e-08
-0.00704153
0.0070414
-0.00551126
3.66307e-05
0.00495631
7.80654e-05
8.90661e-08
1.46041e-07
4.27859e-08
2.49859e-07
-2.03714e-05
-7.45105e-05
-0.000346002
8.87869e-05
5.14699e-05
-0.000257011
-0.000127335
-0.00013583
-0.000264672
-6.95136e-05
-0.000286232
-0.000410994
-0.000386304
2.63487e-05
-0.000325208
-7.86956e-05
-0.000124029
-0.000193146
-0.000194941
-0.000193789
-0.000419608
-0.000326748
0.000171088
-0.000324583
-0.00037715
0.000808458
-9.49622e-05
0.000113719
1.42737e-05
-0.000389807
-0.000338937
-0.000123813
4.78946e-05
-4.34548e-05
-5.97468e-05
-0.000911212
-8.18367e-05
0.0010763
0.000209714
5.31749e-05
-5.78504e-05
-0.00159047
0.00206876
0.000199706
-0.00260302
-0.000254923
0.00330575
0.00301036
0.000322481
-0.00330331
-0.000343229
0.00425397
0.00654029
-0.00497815
-0.000102179
-0.000127007
-0.00418835
-0.000369386
-0.00379092
0.000184055
0.000146946
0.000105657
6.84599e-05
-1.82515e-05
-2.95181e-05
-4.45533e-05
0.000129653
0.000176804
-6.57358e-05
6.55717e-05
9.62428e-05
0.000517685
-0.00825671
-0.000242245
0.000139715
0.000717659
-0.0121712
0.000357323
0.000203556
0.000130037
9.10767e-05
6.28469e-05
4.14949e-05
2.48998e-05
8.22091e-06
0.00168198
-0.00185998
0.00186011
-0.0016818
-8.3017e-06
-2.48769e-05
-4.15132e-05
-2.02867e-05
-0.0029602
-5.14211e-05
-3.07171e-05
9.47891e-06
7.20507e-05
0.000143879
-7.80392e-05
-3.58372e-05
-5.69371e-05
-9.06753e-05
-0.000100547
0.00193425
0.000422134
0.000165826
-4.71177e-05
-0.00269503
0.00354192
0.000272964
-0.00434107
0.00571776
0.000327436
-0.0066059
0.00874401
0.000241951
-0.00934496
-0.000718195
0.0121718
0.0127896
0.000170269
-0.0094987
4.58561e-05
0.000358272
9.50076e-05
-9.96415e-06
0.000332553
0.000734263
0.00121771
0.000618876
0.00204979
0.00120857
0.00389119
0.00281648
0.012041
-0.0346756
0.000974193
-0.00165879
0.0123325
0.00573637
0.0175642
0.00676409
0.0111992
-0.00861038
0.00288431
0.00171725
-0.0106376
-8.21806e-05
7.94633e-05
0.000183452
-1.10621e-07
-1.25334e-07
-0.000139838
0.000216588
0.000213224
-9.62538e-05
-0.000130255
-3.04678e-08
-3.80337e-08
-9.11082e-05
-6.29395e-05
-6.07394e-05
-0.0078541
0.00874
-1.72189e-08
-0.0109469
0.0109467
-0.00874014
6.07807e-05
0.00785471
0.00010927
-3.13058e-05
-0.000327687
3.60816e-05
-0.000163159
-0.000233882
-0.000632239
0.000143364
0.0117587
-0.013062
0.000106605
-9.94244e-08
-5.37763e-08
-4.92759e-08
-9.65701e-08
-0.00644315
0.00115809
8.80406e-05
0.000273053
-0.000386505
-0.00871587
0.00223578
0.000423234
0.00723509
0.00711798
-0.0136506
0.00859818
-0.000726841
-0.00125477
-2.98079e-07
0.00419359
0.010724
-0.000146154
8.08231e-07
0.000197136
0.000222919
0.000146378
-0.00484648
-0.00833696
-0.00825914
4.99189e-08
0.000123902
8.50673e-07
0.000642471
7.20354e-07
1.63959e-07
1.30067e-08
-0.000109319
0.000245541
0.000402884
-0.000143459
-0.000106956
0.000234027
3.14989e-05
0.000750668
0.000427347
0.000211042
4.86809e-05
3.2314e-05
0.000199871
0.000418918
-0.000118766
-0.00236588
0.000745563
0.00126713
-9.27513e-05
0.00825783
1.2584e-05
8.77794e-05
-5.08727e-05
0.00126808
0.00217985
0.00218586
0.00420431
0.0123368
0.00176032
0.00411121
0.0123538
0.0028763
0.000773021
-0.000197664
0.000680421
0.00131031
0.00305425
0.000634229
-0.000103005
-0.00309372
-7.65031e-05
-6.45959e-05
-8.86902e-05
-2.25597e-05
5.94776e-05
0.000164255
0.000327867
-0.000203628
-0.00130832
1.98914e-05
5.10596e-06
-3.63834e-06
-0.00139913
3.06889e-05
-0.00125988
-0.000138571
4.11607e-05
9.4162e-05
-2.02965e-05
-3.38173e-05
-3.44669e-08
2.80091e-05
-0.00012645
-0.000135026
4.94749e-05
0.000262637
-0.000191521
-1.71628e-05
-7.75727e-05
7.12726e-05
3.41399e-05
6.89903e-05
-5.12769e-05
0.000127398
-0.00535364
-0.000327634
0.000324401
-0.00146875
-0.00115835
0.000145037
4.23183e-05
-7.69173e-09
-3.2754e-05
1.25743e-08
6.74379e-08
1.22452e-07
-0.000273063
-0.000406262
-0.000138751
-0.000227805
-0.000808423
-0.000767818
-0.000796048
-0.0131149
-0.0102952
0.00181676
-2.25578e-07
-0.00181695
0.0185485
0.00825818
-0.000124172
-7.42409e-05
9.33502e-06
8.48578e-06
0.000713792
-0.000938877
0.00122295
-0.000978885
8.93248e-05
0.000678125
-0.000203964
0.000795987
-0.000386373
-0.000411203
-0.000322099
-0.000324393
-0.000377021
-0.000324608
-0.000326775
-0.000419642
-0.000389837
-0.00033897
-0.000107896
0.000113697
-0.000145791
-0.000390273
9.75912e-05
-1.40103e-05
-0.000309123
1.19052e-08
0.000309109
-9.76236e-05
0.000390273
0.000107887
0.000145785
-0.000113706
9.49809e-05
-1.42369e-05
0.000339097
0.000389865
0.000419638
0.000326784
0.000324633
-0.000171044
0.000105163
9.04371e-05
0.000203912
-0.000176
0.000324459
0.000322094
0.000411129
0.000386377
0.000325298
-2.62853e-05
7.87869e-05
3.41477e-05
0.000116362
0.000444896
-1.41566e-07
0.000134597
-0.000116288
-3.41659e-05
-7.86969e-05
2.64102e-05
-0.000148448
4.31281e-05
0.000497835
6.76137e-06
0.00100171
-0.00100178
-1.08647e-07
-0.00135427
-8.22773e-06
-0.00168179
5.05475e-05
0.00125989
0.00128764
0.00013859
-0.00182446
-0.00123477
0.00082211
-9.5519e-05
-0.000715358
-0.00103531
4.7842e-05
6.91282e-05
8.4798e-05
8.52047e-05
3.11266e-05
-0.000148049
-0.000283905
0.00419395
-0.00331389
-0.0113043
0.00628369
0.011237
0.00434269
0.0164113
0.00384566
0.00676446
0.0175649
0.00573696
0.0123328
0.00859847
0.00597688
-0.0136514
0.00459347
-0.000386778
-0.00155074
0.0149098
-0.00451258
0.00749509
4.08931e-08
-0.0074956
0.00451284
-0.0149093
-0.00597681
0.0136514
-0.0123322
-0.00859821
-0.00573672
-0.0175644
-0.00676387
-0.00384544
0.0106438
0.0115628
0.0113043
-0.0112366
-0.00434236
-0.0062838
-0.017742
-0.00759497
-0.0102952
-0.0146939
-0.00637621
0.0100453
-0.0128629
-0.00181164
0.0203411
-0.0203409
0.012863
-0.0100455
0.00637555
0.0146928
0.0102954
0.0131157
0.0075947
0.0177412
0.021178
0.0208357
-0.0038113
0.0185485
0.0069248
0.0082581
0.00641724
-0.000123486
1.22444e-06
0.000123914
-1.5517e-07
0.0107243
-0.0107242
0.000457965
-0.00641745
-0.0082583
-0.00692527
-0.0185486
-0.0208363
-0.0211773
-0.0172012
-0.0176399
-0.0192887
-0.0173706
-0.0176048
-0.0209155
-0.0201784
-0.0176537
-0.00586433
0.00165997
-0.000974361
0.0129252
-0.0127905
0.00949847
-0.0087439
0.00660665
-0.00571755
0.00434108
-0.00354188
0.00269535
-0.00206852
0.0015906
-0.0011407
0.000911224
-0.000616409
-0.00057613
-0.000489505
-0.000439507
-0.000678168
-0.000713962
-8.57619e-06
0.000938885
-0.000497884
-4.31795e-05
0.0001485
-0.000796001
9.15525e-05
-4.78272e-05
-6.90976e-05
-8.47285e-05
-8.51838e-05
-3.08377e-05
0.000148102
0.000283849
-0.00419392
0.0033138
0.00115127
0.00315368
-0.000794307
0.0077546
-0.0077545
-0.00315361
-0.00115122
0.000794384
0.0024246
-0.0115631
-0.0106434
0.0111993
-0.012762
-0.00345884
0.00030813
0.00146859
-0.00255785
0.00236482
0.00289255
3.78081e-08
-0.00289236
0.0034588
-0.00459341
0.00871518
0.000386315
0.00977479
-0.00977515
-0.00871551
-1.11038e-07
0.00615159
0.00644279
-0.006443
0.00115812
-0.00615149
0.000423283
3.44785e-07
0.00623429
0.000726604
-0.00711787
0.00192353
-3.61888e-07
-5.10939e-07
1.18878e-08
0.00831106
-0.0064043
-0.0192684
0.00416493
-0.0157176
0.01868
-0.0169575
0.0146012
-0.0146016
-0.00153111
-0.0124937
-0.000941134
0.0111277
-0.00889359
-0.000317572
0.00755367
-0.0059757
-8.8022e-05
0.00486196
-0.00379176
-1.17815e-07
0.00295667
-0.00227896
3.98977e-05
0.00169925
-0.00131019
6.45558e-05
0.000936153
-0.000741943
9.22317e-05
0.000541828
0.000213986
0.000436154
-0.000436198
1.3994e-05
8.50183e-05
-0.000205588
-0.000187558
1.37931e-08
0.000130512
-0.000130506
-0.000143835
1.16559e-08
0.000147448
-0.000147449
-0.000115255
-7.06498e-09
0.00028164
-0.000281705
1.19523e-05
-1.12329e-07
-7.10932e-05
7.13289e-05
-5.14697e-05
0.000257034
0.000127353
0.000135877
6.95943e-05
0.000286309
0.000102236
-0.000246908
-4.67659e-05
0.000191541
-0.000262619
0.000264733
0.000126452
0.00013506
3.97145e-05
0.000266767
4.36756e-05
-0.000211051
-3.59586e-05
4.2335e-05
-0.000203977
0.000278309
2.50616e-05
2.23105e-05
-8.76551e-05
-0.000134071
-0.000190672
-0.000249454
-0.000276659
-0.000199636
-6.56451e-05
0.000357937
0.0126796
0.0106387
0.010109
0.0141545
-0.0145377
0.0108248
-0.0100693
0.00756159
-0.00654068
0.00497866
-0.00402461
0.0030941
-0.00234106
0.00182444
-0.00128784
0.00103526
-8.92852e-05
0.000978946
-0.00122301
0.00135441
-0.00186004
-2.87025e-08
0.00185992
-0.00247674
0.00222158
-0.00174041
0.00225686
-0.00296023
8.11432e-05
-0.00297234
0.000205785
0.00234071
-0.000157517
0.00150408
0.00173987
0.000227904
-0.00236605
-0.00260322
0.00193389
-0.000166594
-0.00139926
0.000153519
0.000943611
-0.000790425
9.99677e-05
0.00043946
-7.24097e-05
-9.04453e-05
0.000175971
-0.00027833
-0.00010222
-0.000286305
-6.95642e-05
-0.000135845
-0.000127297
-0.000256963
5.1267e-05
-6.90086e-05
-1.19207e-05
0.00011922
-1.7098e-05
-0.000191535
-4.56632e-07
4.67677e-05
0.000262616
0.000246915
0.000203965
-4.23585e-05
-4.79646e-05
0.000115268
-4.34405e-09
-8.91639e-09
-7.44968e-09
2.52364e-08
4.60482e-08
5.30855e-08
9.47377e-08
4.24454e-08
3.13146e-08
5.37571e-10
2.47759e-07
0.00438204
-0.000145022
-0.00745263
0.00125462
-0.0164106
-0.00723495
0.0127615
-0.000308154
-0.00146853
-0.0011583
-8.8186e-05
0.000402979
-0.00112651
-0.000464232
-0.00432346
-0.0041722
0.00983096
0.0135897
-0.0199447
0.000141996
0.0164381
-0.0138535
0.0162778
0.000161637
-0.00411057
-0.012355
-0.0123359
-0.0120396
-0.00715501
-0.00735244
-0.00123826
-0.0028184
-0.00196289
-0.00389174
-0.00204879
-0.001208
-0.000624354
-0.000404062
-0.000617855
-9.47288e-05
-0.000358432
-1.19405e-05
-0.0121712
-0.0107305
0.00813997
0.00725717
0.000657659
-0.00964894
0.0003232
8.20135e-05
-0.00236471
0.00255806
-0.00242462
-0.000157698
0.00609556
-0.00042371
-0.00223597
0.00155087
-0.00525808
-0.001174
-0.00528463
1.14263e-07
2.94162e-07
8.80083e-07
3.32317e-07
-2.05954e-07
-2.61956e-07
-2.0586e-07
-3.76706e-07
-1.68699e-07
8.24661e-10
2.54129e-08
-0.000104747
0.000104739
0.00014634
-1.75093e-05
-7.49395e-05
-0.000147184
-0.000253311
-0.000332323
1.00616e-05
-0.00121681
-0.000733833
-0.000421939
-0.000165329
4.72368e-05
0.000119078
-0.00330567
-0.00301066
0.00236589
0.00206652
0.000239438
-0.00260219
0.0033027
0.000343168
-0.00425331
0.00501394
0.000473863
-0.00659445
-0.000345993
-0.00752338
0.00573184
0.000517829
-0.00825673
0.00934397
0.000717722
0.000139738
-7.9513e-05
-0.000183536
-0.000406688
-0.0049016
0.00379115
0.000369444
-0.00535419
0.00640872
-0.000327834
9.34132e-05
-0.00218467
-0.00420325
-0.00171678
-0.00288367
0.00861081
-0.0111991
0.0346752
-0.00176065
0.00896579
-0.00287646
-0.00833647
-0.00484656
-0.00150374
-0.00305404
-0.000772321
-8.70936e-05
-0.00217831
-0.00126697
-0.00126623
-0.000744846
-0.000418619
-0.000199709
-0.000209584
-5.29215e-05
5.78498e-05
0.000100688
-0.00193408
-0.00174019
0.00139928
0.00123459
0.000157477
-0.00150411
-0.000227922
-0.000147019
-0.000184024
-0.000322796
4.45875e-05
0.0002549
0.00260289
-0.000199746
-0.000129648
0.00379152
-5.3964e-06
-0.00486261
8.85876e-05
0.00597543
-1.97055e-05
-0.00755437
0.000318478
0.00889304
-4.57242e-05
-0.0111282
0.000941374
0.0124935
-0.000170654
-0.0155535
0.00275285
0.0176602
0.00386989
0.0012198
-0.000273298
0.000273302
-0.0176608
-0.00275218
0.0155532
-0.00122005
0.0169577
-0.00831085
-0.0186803
-9.16349e-08
0.0157168
-0.00416493
0.0192694
0.00586469
0.00640424
0.00117389
0.00525842
0.00223577
-0.00192376
-0.00623469
0.0071185
-0.000726739
0.00723513
-0.00609526
-3.53845e-07
7.49348e-08
-5.65536e-09
-3.40978e-08
2.84164e-08
6.11088e-08
0.00153174
-0.0132428
0.011132
-0.00932939
0.0077592
-0.00775966
-5.447e-05
0.0062104
6.99834e-05
-0.00507953
3.25427e-05
0.00390296
5.02024e-05
-0.00313863
5.7811e-05
0.00231668
3.47478e-05
-0.00184156
7.14795e-05
0.00130607
2.84245e-05
-0.00104558
9.97057e-05
0.0007095
5.26141e-05
-0.0005909
-1.15443e-08
0.000590851
-0.000213973
-0.000541865
-9.22456e-05
0.000741881
1.09931e-05
-0.000936198
-6.45223e-05
0.00131019
8.47034e-06
-0.00169941
-3.98334e-05
0.00227882
3.61759e-06
-0.00295701
3.68903e-07
-5.0216e-05
0.00313853
1.43723e-08
-0.00231685
0.00184159
-0.00130613
0.00104556
-4.30664e-08
-0.000709538
-5.26546e-05
-1.89995e-05
-5.27374e-05
-2.84816e-05
-8.23149e-05
-0.000138975
-0.000215605
-0.000307329
-0.000375164
-0.000348166
-0.000400814
0.000400927
0.0052845
0.0073527
0.00123791
0.000347132
0.0132427
-2.53941e-05
-0.0111324
-0.000361483
0.00932876
7.32354e-05
0.000213383
1.91637e-07
0.000362118
5.20622e-08
-4.86715e-08
5.49059e-05
-0.00621057
0.00507944
-0.00390316
-3.25169e-05
-3.47503e-08
-6.49741e-08
-1.97097e-08
-5.78285e-05
-1.80795e-08
-7.14104e-05
-3.10404e-08
5.17595e-09
-9.96404e-05
-1.10423e-08
9.59274e-09
0.000205591
-8.50256e-05
9.12476e-05
-0.000122816
0.000122797
-9.12475e-05
0.000274429
-3.80029e-05
0.000114593
-0.000266747
-5.61579e-05
4.09944e-06
-0.000240159
0.000281462
9.67953e-05
0.000291181
7.45443e-05
0.000134836
0.000274155
0.00013052
-4.44984e-05
-9.83034e-05
-3.35701e-05
2.70941e-08
-2.17775e-08
3.35363e-05
-0.000274461
-0.00011459
3.79708e-05
-9.46295e-05
5.6116e-05
0.000240143
-4.10702e-06
-3.8709e-05
3.59643e-05
0.000211066
-4.36589e-05
-0.000266721
-3.97095e-05
-0.000135057
9.8413e-05
9.83021e-05
-6.73467e-09
4.61423e-05
9.45994e-05
7.64946e-06
1.97926e-05
0.000135228
-9.84083e-05
-4.9461e-05
-2.02192e-09
-1.97909e-05
-4.61504e-05
0.00018758
-7.70773e-06
1.89823e-05
-1.27185e-08
1.30326e-08
1.7794e-08
7.11582e-08
-5.80902e-08
9.57317e-08
-0.000216465
2.57123e-05
0.000216671
6.59717e-05
0.000170289
-0.0129255
-0.000357386
0.0121714
-0.000717963
-0.00814091
0.000345265
0.00659442
-0.000473633
-0.00501488
-0.0075614
0.000397016
0.00622703
-0.00785423
0.000100429
-0.00742465
0.00954482
-0.0117585
-9.56422e-06
-0.0109382
0.000385796
0.0100684
-0.010824
-0.00725907
0.00964911
-0.000657107
0.0145371
-0.00016088
0.0138538
-0.0164371
-0.00014181
-0.0162786
-0.014154
-0.01011
-0.000323599
0.0107294
-0.0106383
-0.0126808
0.00288381
-0.000403046
0.00112629
-0.0317407
0.000464689
-0.00028167
0.00432307
-0.0337928
0.00417244
-0.0135896
-0.00983149
0.00484604
5.10395e-07
0.000146141
0.000642532
0.0220941
-8.93537e-09
0.0181104
-0.0181101
0.000222737
-0.0144068
9.93464e-06
0.0117593
-0.00954471
0.0109367
-0.000385822
0.00742363
-0.000100627
0.00785471
-0.00622679
-0.000397416
0.00482223
-0.000106562
0.00495628
-0.00385158
-0.000299047
-0.000750148
-0.000427047
-0.000210843
-4.86102e-05
-3.22702e-05
-4.78815e-05
4.34566e-05
5.97962e-05
8.18692e-05
-0.00107618
-0.00094387
0.000790372
0.000715281
9.54158e-05
-0.00082222
-0.0001536
-0.0001057
-6.8462e-05
-9.99041e-05
2.37376e-05
7.6963e-05
0.000170299
-0.000808339
0.000193876
0.000123927
8.66561e-05
0.000107407
0.000195013
0.000377227
-0.000767754
0.000103258
7.65935e-05
9.07488e-05
0.000103196
0.000102516
5.13995e-05
-0.000234068
-0.00131017
-0.000680118
-0.000402823
-0.000634409
-3.17114e-05
0.000109298
0.000143024
-0.00981511
0.0109469
3.62638e-08
0.00874007
-0.00873985
6.08459e-05
0.00704135
-2.8076e-08
0.00551153
-0.00551147
3.66815e-05
-0.00384615
-8.13301e-05
0.00296033
-0.00225689
0.00297193
-0.000205702
3.56148e-05
-0.000328004
-0.000245469
-0.000143865
-0.000164284
5.71683e-05
5.13876e-05
-0.00222172
-5.0631e-05
0.00168185
-0.00126005
0.00174026
-0.000138523
6.46594e-05
-5.94575e-05
-7.19641e-05
-9.34851e-06
2.25937e-05
8.87472e-05
0.000193243
0.000124155
7.45867e-05
0.000346046
-8.8767e-05
0.000143298
-3.05032e-07
-0.00014122
8.78964e-05
-0.000345645
-7.12807e-05
-7.74283e-05
-2.25583e-07
-4.704e-08
3.06803e-05
8.23045e-06
2.48868e-05
1.82659e-05
0.000101607
0.00089826
-9.0201e-05
2.9513e-05
0.000166638
0.00154686
-0.000138806
-8.64372e-05
-3.4742e-05
8.63985e-05
0.000129658
0.000176937
0.000276885
0.000199894
4.57391e-05
-0.00949955
0.000241932
0.00825625
-0.000518072
-0.00573202
0.000406844
0.00425315
-0.000343066
-0.00330358
-0.00497807
0.000299311
0.00385176
-0.00495605
0.000106493
-0.00482274
0.00631355
-6.09018e-05
-0.00704121
-0.000109153
-1.45242e-07
7.4147e-09
-6.32445e-07
0.000197633
-0.000196957
-0.000145796
-0.00064243
0.0199445
-0.0220942
-0.000151843
8.81712e-05
-0.000139637
-8.17785e-05
7.99212e-05
-2.1748e-08
9.62941e-05
-0.000213175
-7.30354e-05
-0.00017679
-6.98492e-05
6.56739e-05
6.46396e-08
1.46124e-08
3.14077e-09
-1.79669e-08
-1.49889e-08
1.80679e-09
3.15975e-09
-2.23125e-05
8.76713e-05
0.000134068
0.000190709
0.000249476
5.06353e-06
-0.00434132
0.000273155
0.00330533
-0.000254986
0.00300998
0.000322621
0.00260206
-0.000239462
-0.00206691
-0.00309402
0.00402392
-0.000103307
-0.000119263
-4.79527e-05
0.000252907
0.000403469
0.000623504
0.000375265
0.000307316
0.000215727
0.00013908
0.000147029
7.4865e-05
8.23594e-05
3.02691e-05
1.73891e-05
-0.000146398
-0.000124073
-8.67463e-05
0.000616365
9.02173e-05
0.000576089
-7.69872e-05
-0.000105172
0.000767769
-2.50583e-05
6.84811e-05
0.000105721
0.00014706
0.000184147
0.0001837
-9.61878e-05
-6.5692e-05
-0.00036964
-0.0041886
-0.00379121
0.00490101
0.00535387
0.00571712
0.000327694
-0.00660662
1.95483e-05
0.00874359
9.30837e-05
0.000357679
0.0127886
0.00196076
0.000974431
-0.0346763
0.0201796
0.0176567
-0.00166081
0.00715326
0.0120399
0.0209162
0.0176054
-0.0086107
0.0173696
0.0192941
0.0176433
-0.0089657
0.0172016
0.0123536
0.0123374
0.00171707
0.00389027
0.00282217
0.00204893
0.00119727
0.00121655
0.000611303
-1.13236e-05
-0.000127836
-9.36506e-05
-0.00640927
0.0075217
1.15608e-05
-0.00934525