/*--------------------------------*- C++ -*----------------------------------*\
| =========                 |                                                 |
| \\      /  F ield         | OpenFOAM: The Open Source CFD Toolbox           |
|  \\    /   O peration     | Version:  2306                                  |
|   \\  /    A nd           | Website:  www.openfoam.com                      |
|    \\/     M anipulation  |                                                 |
\*---------------------------------------------------------------------------*/
FoamFile
{
    version     2.0;
    format      ascii;
    arch        "LSB;label=32;scalar=64";
    class       volScalarField;
    location    "0.5";
    object      mag(U);
}
// * * * * * * * * * * * * * * * * * * * * * * * * * * * * * * * * * * * * * //

dimensions      [0 1 -1 0 0 0 0];

internalField   nonuniform List<scalar> 
1681
(
0.000243194
0.00022636
0.000404028
0.000503312
0.00204306
0.00226068
0.00469842
0.00497535
0.00802742
0.00828211
0.0116199
0.0117728
0.0150791
0.0150668
0.0180613
0.0178441
0.0202939
0.0198574
0.0215818
0.0209345
0.0218113
0.0209798
0.0216435
0.0199772
0.0204234
0.0179964
0.018214
0.0151989
0.0152033
0.0118417
0.0116769
0.00827176
0.00800654
0.00490386
0.00462215
0.00217106
0.00195538
0.000440168
0.000346428
0.00026166
0.000276766
0.000230097
0.00021547
0.000534118
0.000619988
0.00236958
0.00255029
0.00525843
0.00547321
0.0088399
0.00900719
0.0126807
0.0127236
0.0163594
0.0162212
0.0195107
0.0191638
0.0218465
0.0212933
0.023163
0.0224313
0.023315
0.0224787
0.023226
0.021419
0.0219815
0.0193238
0.0196715
0.0163603
0.0164917
0.0127966
0.0127432
0.00899713
0.00882032
0.00539852
0.00517933
0.00245565
0.00227652
0.000551332
0.00046989
0.000252693
0.000266126
0.000370711
0.000502954
0.0023827
0.00279898
0.00632462
0.00697946
0.0117199
0.0125603
0.0180397
0.019
0.0246767
0.025674
0.0310043
0.0319429
0.0364489
0.037228
0.0405391
0.0410603
0.0429299
0.0431049
0.0433716
0.0431768
0.0430246
0.0412521
0.0407424
0.0374769
0.0366957
0.0321691
0.0312174
0.0258101
0.0247949
0.0190152
0.0180391
0.0124709
0.0116217
0.00683833
0.00618358
0.00266882
0.00225947
0.000423331
0.00029661
0.000462761
0.000582169
0.00280176
0.00320308
0.0071767
0.00780979
0.0130382
0.0138617
0.019829
0.0207941
0.0269134
0.0279558
0.0336319
0.0346723
0.03938
0.04033
0.0436627
0.0444302
0.0461218
0.046617
0.0465038
0.0466937
0.0462218
0.044635
0.0438777
0.0405966
0.0396428
0.0349166
0.0338622
0.0281061
0.0270459
0.0208165
0.0198365
0.0137711
0.01294
0.00765995
0.00702753
0.00306032
0.00266594
0.000494194
0.000378888
0.00200421
0.00233905
0.00642079
0.00727717
0.0136258
0.0147385
0.0223379
0.0236172
0.0318737
0.0332378
0.0415307
0.0428855
0.0505607
0.051795
0.0582435
0.0592391
0.0639676
0.06461
0.0672794
0.0674678
0.0678456
0.0675701
0.0674133
0.0648891
0.0642667
0.0596208
0.0586297
0.0521802
0.0509361
0.0431798
0.0418055
0.033378
0.0319912
0.0235883
0.0222896
0.0145773
0.0134542
0.00706654
0.0062142
0.00217601
0.00184682
0.00221978
0.00251699
0.00711591
0.00794902
0.0148047
0.0158941
0.0239429
0.0252159
0.0338368
0.0352338
0.043788
0.0452375
0.0530505
0.0544576
0.0609026
0.0621551
0.0667307
0.0677077
0.0700806
0.0706629
0.0706206
0.0707704
0.0702218
0.068002
0.067045
0.06256
0.0613116
0.0548714
0.0534545
0.0455614
0.0440935
0.0353988
0.0339808
0.0252001
0.0239095
0.0157301
0.0146318
0.00772287
0.0068945
0.00234097
0.00204776
0.00485534
0.00545318
0.0123987
0.01378
0.0232779
0.0248435
0.0351449
0.0367897
0.0472818
0.0489243
0.0590453
0.0606028
0.0697534
0.0711254
0.0787189
0.0797947
0.0853359
0.086006
0.0891459
0.0893118
0.0898771
0.0894631
0.0893449
0.0864308
0.0857967
0.080412
0.0793548
0.0718164
0.0704438
0.0612329
0.0596565
0.0493687
0.0476934
0.0369636
0.035281
0.0247384
0.0231428
0.0134994
0.0121132
0.00518639
0.00459392
0.00515813
0.00568737
0.0133792
0.0147389
0.0247893
0.0263474
0.0370556
0.0387293
0.0494684
0.0511997
0.0614097
0.0631392
0.0722249
0.0738672
0.0812508
0.0826951
0.0878997
0.0890189
0.0917246
0.0923873
0.092461
0.0925474
0.0919374
0.08947
0.088389
0.0833548
0.0819298
0.074613
0.0729702
0.0638291
0.0620812
0.0516975
0.0499352
0.0389374
0.0372285
0.0262491
0.0246639
0.0144409
0.0130788
0.00540398
0.0048782
0.0088749
0.00979965
0.0203113
0.0223068
0.0353411
0.0373615
0.0503076
0.0522563
0.0645965
0.0664103
0.077751
0.0793774
0.0893044
0.0906758
0.0987574
0.0997929
0.105646
0.106259
0.109606
0.109716
0.110417
0.109953
0.109921
0.106942
0.106393
0.10083
0.099838
0.0919152
0.09056
0.0806178
0.0789758
0.0674263
0.0655663
0.0528511
0.0508372
0.0374503
0.0353687
0.02201
0.0199911
0.00942997
0.00850694
0.00921215
0.0100301
0.021599
0.0235934
0.0372189
0.0392761
0.0525695
0.054617
0.0670669
0.0690626
0.0802992
0.0822113
0.0918495
0.0936214
0.101265
0.10281
0.108117
0.109324
0.112067
0.11281
0.112749
0.113064
0.112407
0.110053
0.108915
0.10392
0.102419
0.0949572
0.0931989
0.0835585
0.0816275
0.0701769
0.0681335
0.0552811
0.0531703
0.0393913
0.0372778
0.0232826
0.0212701
0.00964107
0.00882328
0.0140124
0.0153281
0.0301734
0.0328777
0.0499344
0.0524221
0.0680471
0.0702474
0.0841326
0.0860191
0.0980496
0.0996195
0.109688
0.110928
0.118885
0.119766
0.125455
0.125933
0.129237
0.129256
0.129872
0.129627
0.129726
0.127011
0.126641
0.121447
0.120649
0.113019
0.111822
0.101824
0.100248
0.0879698
0.0860232
0.0715859
0.0692858
0.0529425
0.0503498
0.0326934
0.0299334
0.0148953
0.0135713
0.0143308
0.0154941
0.0317952
0.0345472
0.0522207
0.0548306
0.0707142
0.0731337
0.0869502
0.0891655
0.100852
0.102873
0.112381
0.114196
0.12144
0.123012
0.127901
0.129156
0.131637
0.132476
0.132318
0.13287
0.132169
0.130305
0.129164
0.12481
0.123318
0.116441
0.114657
0.10525
0.103209
0.0912808
0.0889947
0.0745981
0.0720761
0.0554154
0.0527058
0.0343631
0.0315642
0.0150408
0.0138689
0.0202501
0.0220175
0.0420129
0.0455165
0.0671504
0.0701201
0.0885155
0.0909181
0.106081
0.107945
0.120151
0.121542
0.131111
0.132092
0.139287
0.139901
0.144919
0.145184
0.148167
0.14807
0.148741
0.148611
0.148882
0.146779
0.146678
0.142443
0.141965
0.135346
0.134453
0.125109
0.123734
0.111281
0.10935
0.0934466
0.090907
0.0714451
0.0683143
0.0456841
0.0420729
0.0216241
0.019828
0.020505
0.0220702
0.0439982
0.0476387
0.0698852
0.0731171
0.0916347
0.0944409
0.109296
0.111702
0.123259
0.125328
0.134001
0.135787
0.141932
0.143463
0.147366
0.148637
0.150513
0.151476
0.151136
0.152052
0.151291
0.150332
0.149229
0.146171
0.14476
0.139264
0.137535
0.129155
0.127065
0.115296
0.112792
0.0971824
0.0942237
0.0745728
0.0711814
0.0478407
0.0441043
0.0216577
0.0200665
0.0276117
0.0298865
0.0558847
0.0602682
0.0870522
0.0905107
0.111761
0.11431
0.130453
0.132194
0.144012
0.145099
0.153462
0.154056
0.15977
0.160009
0.163757
0.16374
0.166046
0.165818
0.166502
0.166544
0.167002
0.165907
0.166149
0.163542
0.163507
0.158724
0.15828
0.150418
0.14939
0.137427
0.13563
0.118603
0.115886
0.0931774
0.0894924
0.0611748
0.0566071
0.0297248
0.0273852
0.0277753
0.029801
0.0582663
0.062932
0.0902733
0.0942021
0.115369
0.118581
0.134097
0.136669
0.14745
0.14951
0.156562
0.158245
0.162501
0.163931
0.16618
0.167445
0.168287
0.169422
0.168775
0.170188
0.169325
0.169737
0.168698
0.167678
0.166418
0.163213
0.161619
0.155191
0.153118
0.142282
0.139589
0.123214
0.119792
0.0971084
0.0929412
0.06394
0.0591001
0.0296266
0.0275442
0.036162
0.0389946
0.0718807
0.0772094
0.109679
0.113615
0.137715
0.140339
0.157047
0.158554
0.16929
0.169945
0.176257
0.176338
0.179703
0.179465
0.181198
0.180842
0.181986
0.181634
0.182244
0.182506
0.18313
0.1835
0.184133
0.183946
0.184459
0.182504
0.182657
0.177304
0.176784
0.166197
0.164676
0.147079
0.144277
0.118341
0.114111
0.0794219
0.0738036
0.0393739
0.0364199
0.0362322
0.0387836
0.0746933
0.0805255
0.113422
0.118117
0.141832
0.145459
0.161122
0.16382
0.173042
0.175019
0.179532
0.181023
0.182463
0.183708
0.183508
0.184731
0.183996
0.185356
0.184235
0.186269
0.185233
0.187518
0.186571
0.188427
0.187405
0.187548
0.186196
0.182848
0.180884
0.171994
0.169163
0.152714
0.14882
0.123247
0.118216
0.082956
0.0768321
0.0391664
0.0365091
0.046011
0.0494451
0.0901286
0.0964474
0.135035
0.139408
0.166156
0.168754
0.185383
0.186525
0.195262
0.19535
0.198549
0.197999
0.197933
0.197134
0.195887
0.195166
0.194466
0.194037
0.194409
0.194936
0.195634
0.198006
0.199027
0.202213
0.20335
0.205445
0.206329
0.204809
0.204968
0.196992
0.195924
0.17867
0.175921
0.147072
0.142348
0.100732
0.0939886
0.0508163
0.0471792
0.0460223
0.0491742
0.0934075
0.10055
0.139324
0.144837
0.170778
0.174793
0.189849
0.192589
0.199255
0.201028
0.201898
0.20305
0.200592
0.201503
0.197917
0.198992
0.196029
0.197641
0.196362
0.198563
0.197273
0.201916
0.201142
0.206778
0.206152
0.210858
0.209926
0.211031
0.209342
0.203744
0.200895
0.185441
0.181118
0.153137
0.147177
0.105237
0.0976368
0.0505837
0.0472522
0.0499694
0.0614004
0.110794
0.118119
0.163045
0.16777
0.176536
0.18044
0.195092
0.197868
0.203565
0.205397
0.218811
0.217534
0.202769
0.211267
0.199311
0.199719
0.197045
0.197581
0.197472
0.198428
0.198139
0.202474
0.208427
0.208498
0.208197
0.225567
0.213163
0.231294
0.232305
0.228651
0.22825
0.191828
0.2103
0.179352
0.174249
0.109681
0.10263
0.0549041
0.0599902
0.0573684
0.0612073
0.114577
0.123167
0.167892
0.174226
0.201706
0.206014
0.219344
0.221964
0.224776
0.226131
0.22204
0.222605
0.214997
0.215298
0.20726
0.207892
0.202001
0.203565
0.201151
0.204208
0.202881
0.210211
0.209876
0.220198
0.220265
0.230877
0.230668
0.237865
0.236734
0.236194
0.23356
0.220716
0.216102
0.186744
0.179848
0.131151
0.121884
0.0642854
0.060163
0.0619868
0.06591
0.119169
0.127167
0.173593
0.179467
0.207362
0.211334
0.224185
0.226531
0.228383
0.22942
0.224281
0.224353
0.21598
0.215472
0.207308
0.206673
0.201635
0.201358
0.20098
0.201846
0.20233
0.208602
0.209587
0.219916
0.220882
0.232297
0.232682
0.241119
0.240395
0.241111
0.238815
0.226742
0.222499
0.192882
0.186454
0.135953
0.127278
0.0695765
0.0653725
0.0706188
0.0752404
0.13842
0.148573
0.198881
0.205964
0.233714
0.238111
0.248073
0.250287
0.24757
0.248176
0.237566
0.237168
0.22301
0.222274
0.208579
0.208278
0.198653
0.19961
0.196782
0.1995
0.198543
0.208755
0.209291
0.225198
0.226411
0.244348
0.24532
0.260475
0.260344
0.267092
0.26507
0.257159
0.252547
0.223658
0.215934
0.161034
0.149937
0.0808069
0.0757645
0.0759621
0.0807593
0.143218
0.152749
0.204583
0.211058
0.239
0.242809
0.252144
0.253752
0.250055
0.249959
0.238397
0.2371
0.222348
0.220393
0.206807
0.204819
0.196398
0.195079
0.194746
0.194717
0.196075
0.204642
0.206979
0.22249
0.225069
0.243533
0.245565
0.261814
0.262548
0.270579
0.269311
0.262386
0.258472
0.229656
0.222599
0.166144
0.155692
0.0871512
0.0819319
0.0863408
0.0918401
0.165206
0.176981
0.231737
0.239354
0.265225
0.269338
0.27359
0.274959
0.264626
0.264021
0.245162
0.243322
0.221124
0.218833
0.198098
0.196316
0.181795
0.181712
0.177418
0.18012
0.179725
0.193101
0.194966
0.217421
0.220327
0.247004
0.24973
0.274793
0.27626
0.292916
0.292106
0.292277
0.288187
0.262787
0.254538
0.195067
0.182065
0.100866
0.0947784
0.0924866
0.0982287
0.170206
0.181318
0.237232
0.244079
0.269742
0.273008
0.276384
0.276829
0.265451
0.263811
0.244066
0.24102
0.218331
0.214558
0.193999
0.190298
0.177074
0.174428
0.173099
0.172457
0.17476
0.186118
0.190068
0.211925
0.216473
0.243503
0.247611
0.273647
0.276351
0.294333
0.294661
0.296119
0.293069
0.268259
0.260916
0.200385
0.18811
0.108327
0.101993
0.105472
0.111919
0.195203
0.208523
0.265265
0.272965
0.293509
0.296737
0.292118
0.292032
0.271719
0.269347
0.240629
0.236836
0.205326
0.200951
0.171672
0.167799
0.14654
0.144846
0.140763
0.140571
0.140921
0.158223
0.16194
0.192179
0.197348
0.233944
0.239018
0.275591
0.279338
0.308554
0.309744
0.321912
0.319155
0.301801
0.293654
0.233026
0.218241
0.125427
0.118213
0.112549
0.119258
0.200371
0.212968
0.270183
0.27694
0.296648
0.298785
0.292939
0.291671
0.270246
0.266617
0.237111
0.231967
0.200038
0.194126
0.16489
0.159074
0.138804
0.134423
0.134148
0.12952
0.132829
0.148113
0.153997
0.183778
0.190616
0.227514
0.234056
0.271464
0.276636
0.307182
0.309784
0.323584
0.322173
0.306147
0.299159
0.238345
0.224403
0.134049
0.126568
0.129513
0.136891
0.228383
0.242896
0.296891
0.30384
0.313898
0.315346
0.298074
0.2958
0.263566
0.258925
0.219912
0.213852
0.173191
0.166419
0.127764
0.121102
0.0894513
0.0848798
0.0789465
0.0746147
0.0762187
0.10088
0.107426
0.147325
0.155224
0.201649
0.209403
0.257441
0.263992
0.307328
0.311363
0.33956
0.339255
0.336196
0.329253
0.273674
0.257621
0.155714
0.147421
0.137728
0.145316
0.233553
0.247251
0.300537
0.306374
0.314715
0.314892
0.296054
0.292471
0.259253
0.253341
0.213929
0.206672
0.165954
0.157999
0.119247
0.111123
0.0790748
0.0719829
0.069756
0.0597388
0.06447
0.0887854
0.097164
0.137343
0.146443
0.192983
0.201888
0.250305
0.258159
0.30253
0.308034
0.338063
0.339292
0.338461
0.332908
0.278551
0.263498
0.165517
0.157017
0.160741
0.168804
0.263523
0.278295
0.321094
0.325894
0.318633
0.317184
0.284288
0.279278
0.236249
0.229454
0.185014
0.177505
0.135875
0.128246
0.0909407
0.0834814
0.0511762
0.0443787
0.0380247
0.0263623
0.0298393
0.0568329
0.0646724
0.103371
0.112106
0.158239
0.167392
0.219685
0.228564
0.282795
0.29006
0.33606
0.339414
0.357791
0.353766
0.313431
0.297371
0.193105
0.184093
0.170455
0.178564
0.268115
0.281947
0.322109
0.325653
0.31577
0.312997
0.278739
0.272562
0.229646
0.222039
0.179041
0.171295
0.132199
0.125216
0.0913838
0.0859983
0.0583979
0.05608
0.0416779
0.045241
0.0437048
0.0642344
0.0684869
0.102469
0.109717
0.152575
0.161455
0.211698
0.221116
0.274769
0.283153
0.330347
0.335182
0.35647
0.353974
0.316928
0.302049
0.204105
0.195061
0.201857
0.209825
0.2956
0.30849
0.326464
0.327027
0.29668
0.291582
0.247446
0.240687
0.201773
0.195908
0.171641
0.168155
0.159441
0.158417
0.159235
0.159576
0.162748
0.163199
0.163964
0.164208
0.164048
0.161576
0.161013
0.158693
0.159023
0.164362
0.167331
0.189997
0.196394
0.23948
0.247928
0.30241
0.309727
0.353029
0.354127
0.343458
0.330008
0.238135
0.229394
0.213179
0.220891
0.29785
0.309656
0.322473
0.321785
0.28912
0.283056
0.240347
0.233391
0.199339
0.194435
0.1769
0.175481
0.172285
0.173903
0.177058
0.180309
0.182824
0.186514
0.183719
0.188215
0.184875
0.1845
0.181079
0.177982
0.175582
0.176279
0.176722
0.191843
0.196601
0.233103
0.241281
0.292969
0.301121
0.346187
0.348671
0.343474
0.331353
0.249786
0.241311
0.248155
0.254487
0.308772
0.31562
0.295716
0.290395
0.249935
0.24435
0.227398
0.226243
0.238478
0.241387
0.267595
0.272208
0.298846
0.30342
0.324241
0.327806
0.340634
0.34259
0.344486
0.346715
0.346227
0.339758
0.337228
0.321789
0.317681
0.294228
0.289367
0.262581
0.258727
0.241966
0.242197
0.256382
0.262439
0.308532
0.315466
0.343759
0.337315
0.281723
0.275016
0.256854
0.262725
0.304312
0.310048
0.286049
0.280343
0.245246
0.240854
0.234921
0.236123
0.256652
0.261902
0.291302
0.297988
0.324663
0.331265
0.350506
0.356319
0.366587
0.371264
0.372116
0.375429
0.37217
0.368463
0.36378
0.350226
0.34431
0.321435
0.314803
0.285905
0.279951
0.255799
0.253522
0.25545
0.259809
0.298082
0.305184
0.336308
0.331092
0.289012
0.282702
0.259462
0.262481
0.277434
0.276202
0.266472
0.26634
0.304541
0.312388
0.371615
0.380799
0.435118
0.44336
0.486665
0.493439
0.525361
0.530504
0.552138
0.555571
0.568125
0.569727
0.571774
0.57358
0.573364
0.56709
0.564842
0.549494
0.545291
0.519293
0.513113
0.474594
0.466446
0.414492
0.404755
0.343927
0.334824
0.290949
0.289917
0.296675
0.297846
0.281921
0.278911
0.256283
0.258908
0.272048
0.271439
0.280613
0.284061
0.336917
0.347345
0.409538
0.420399
0.472997
0.482571
0.522828
0.530874
0.559509
0.566079
0.584458
0.589677
0.598976
0.602933
0.601684
0.606524
0.603929
0.600431
0.596469
0.583886
0.578414
0.555309
0.548094
0.512473
0.503299
0.453377
0.442299
0.379454
0.368059
0.310388
0.305719
0.291978
0.292274
0.277318
0.274499
0.299763
0.308494
0.356955
0.373955
0.463616
0.489351
0.57512
0.598439
0.654924
0.673816
0.708001
0.724121
0.744116
0.758381
0.768657
0.781409
0.784612
0.795993
0.793755
0.803774
0.795699
0.805551
0.796165
0.801427
0.790894
0.790792
0.779113
0.772124
0.75911
0.742551
0.727747
0.696856
0.679168
0.624937
0.602243
0.515312
0.488967
0.393473
0.375306
0.321641
0.312661
0.31288
0.321812
0.373176
0.391951
0.484554
0.511557
0.597261
0.620752
0.676239
0.694581
0.727709
0.742928
0.762198
0.775422
0.785366
0.797073
0.800254
0.810699
0.80864
0.817934
0.810299
0.819568
0.810931
0.815706
0.806115
0.805755
0.795109
0.788222
0.776229
0.760255
0.746335
0.716511
0.699374
0.646352
0.623496
0.537012
0.509355
0.411235
0.391151
0.334676
0.325359
)
;

boundaryField
{
    movingWall
    {
        type            calculated;
        value           uniform 1;
    }
    fixedWalls
    {
        type            calculated;
        value           uniform 0;
    }
    frontAndBack
    {
        type            empty;
    }
}


// ************************************************************************* //
