/*--------------------------------*- C++ -*----------------------------------*\
| =========                 |                                                 |
| \\      /  F ield         | OpenFOAM: The Open Source CFD Toolbox           |
|  \\    /   O peration     | Version:  2306                                  |
|   \\  /    A nd           | Website:  www.openfoam.com                      |
|    \\/     M anipulation  |                                                 |
\*---------------------------------------------------------------------------*/
FoamFile
{
    version     2.0;
    format      ascii;
    arch        "LSB;label=32;scalar=64";
    class       volScalarField;
    location    "0.5";
    object      Ux;
}
// * * * * * * * * * * * * * * * * * * * * * * * * * * * * * * * * * * * * * //

dimensions      [0 1 -1 0 0 0 0];

internalField   nonuniform List<scalar> 
1681
(
0.00017342
0.000172482
-0.000264361
-0.000350709
-0.00181696
-0.00204287
-0.00447668
-0.00477168
-0.0078468
-0.00812124
-0.0114892
-0.0116595
-0.0149951
-0.014996
-0.0180156
-0.0178069
-0.0202756
-0.0198434
-0.0215787
-0.0209327
-0.0218106
-0.0209786
-0.0216412
-0.0199646
-0.0204065
-0.0179599
-0.0181688
-0.0151266
-0.0151173
-0.0117235
-0.0115405
-0.00810292
-0.00781712
-0.00469132
-0.0043912
-0.0019474
-0.00172386
-0.00028534
-0.00020496
0.000200454
0.000198937
0.000152369
0.000153813
-0.000354902
-0.000429447
-0.00208661
-0.00227872
-0.00498298
-0.00521953
-0.00861623
-0.0088068
-0.0125194
-0.0125825
-0.0162562
-0.0161331
-0.019455
-0.0191176
-0.0218245
-0.021276
-0.0231595
-0.0224291
-0.0233134
-0.0224772
-0.0232234
-0.0214033
-0.0219612
-0.0192784
-0.0196165
-0.0162703
-0.0163861
-0.0126495
-0.0125749
-0.00878701
-0.00858594
-0.00513413
-0.0048927
-0.0021774
-0.0019873
-0.000360493
-0.000291323
0.000182038
0.00017847
-0.000278805
-0.000371859
-0.00168086
-0.00202694
-0.00523591
-0.00587964
-0.0106081
-0.0114784
-0.0170969
-0.0181049
-0.0239727
-0.0250205
-0.0305408
-0.031524
-0.0361914
-0.0370044
-0.0404335
-0.0409759
-0.0429112
-0.0430943
-0.0433665
-0.0431691
-0.0430098
-0.041174
-0.0406432
-0.0372564
-0.03644
-0.0317423
-0.0307438
-0.0251332
-0.0240651
-0.0180841
-0.0170593
-0.0113533
-0.0104759
-0.0057235
-0.005084
-0.0019149
-0.00157888
-0.00032242
-0.000234584
-0.000331044
-0.000416862
-0.00192458
-0.00226117
-0.00585036
-0.0064833
-0.0116904
-0.0125591
-0.0186879
-0.0197171
-0.026063
-0.0271705
-0.0330739
-0.0341698
-0.0390715
-0.0400623
-0.0435373
-0.0443293
-0.0461002
-0.0466043
-0.0464974
-0.0466845
-0.0462047
-0.0445416
-0.0437599
-0.0403325
-0.0393366
-0.0344046
-0.0332921
-0.0272928
-0.0261648
-0.0196967
-0.0186512
-0.0124265
-0.0115517
-0.00631668
-0.00568867
-0.00214148
-0.00181508
-0.000365206
-0.000284248
-0.000928502
-0.00112399
-0.00368629
-0.00431885
-0.00981757
-0.0108664
-0.0184637
-0.0197958
-0.0285341
-0.0300161
-0.0389932
-0.0404902
-0.0488665
-0.0502379
-0.0572925
-0.0584004
-0.0635748
-0.0642922
-0.0672096
-0.0674282
-0.0678278
-0.0675404
-0.0673565
-0.0645927
-0.0638952
-0.0587928
-0.0576855
-0.0505986
-0.0492108
-0.0407118
-0.0391894
-0.0300482
-0.0285425
-0.0196661
-0.0183215
-0.0106698
-0.00962349
-0.00416456
-0.00354422
-0.00105157
-0.000862918
-0.0009652
-0.00114819
-0.00393672
-0.00455087
-0.0104401
-0.0114759
-0.0195162
-0.0208587
-0.0300234
-0.0315588
-0.0408921
-0.0425048
-0.0511191
-0.0526817
-0.0598201
-0.061199
-0.0662844
-0.0673457
-0.0700013
-0.0706178
-0.0706008
-0.0707366
-0.0701572
-0.0676642
-0.0666229
-0.0616161
-0.0602371
-0.0530676
-0.0514884
-0.0427463
-0.0411094
-0.0316016
-0.0300447
-0.0207299
-0.0193774
-0.0112739
-0.0102423
-0.00439096
-0.0037894
-0.00107476
-0.000898157
-0.00156444
-0.00185374
-0.00567376
-0.00657835
-0.0143259
-0.0157553
-0.0260643
-0.0278151
-0.0393829
-0.0412771
-0.0529779
-0.0548501
-0.0656651
-0.067349
-0.0764091
-0.0777461
-0.0843791
-0.0852265
-0.0889764
-0.0892144
-0.0898489
-0.0893903
-0.0892074
-0.0857056
-0.0848949
-0.0783977
-0.0770714
-0.0679993
-0.0663012
-0.0553376
-0.0534346
-0.0415064
-0.0395781
-0.0277923
-0.026018
-0.0155859
-0.0141516
-0.00640968
-0.00551562
-0.00176499
-0.00148308
-0.00155632
-0.00182684
-0.00588652
-0.00675901
-0.0149064
-0.016319
-0.0270537
-0.0288313
-0.0407708
-0.0427613
-0.0547272
-0.0567881
-0.0677198
-0.0696968
-0.0787026
-0.0804325
-0.08684
-0.0881579
-0.0915331
-0.0922796
-0.0924332
-0.0924671
-0.0917818
-0.0886696
-0.0873906
-0.0811309
-0.0794121
-0.0703986
-0.0684081
-0.0573219
-0.0552326
-0.0430238
-0.0410036
-0.0288252
-0.027029
-0.0161525
-0.0147385
-0.00658715
-0.00572628
-0.00173821
-0.00147457
-0.00214658
-0.00252237
-0.0075526
-0.00871187
-0.0186566
-0.020444
-0.0333837
-0.0355223
-0.0497824
-0.0520482
-0.066283
-0.068482
-0.0815218
-0.0834679
-0.0943361
-0.0958575
-0.103808
-0.104753
-0.10928
-0.109525
-0.110363
-0.109816
-0.109664
-0.10556
-0.104683
-0.0969955
-0.0955063
-0.0846834
-0.082731
-0.0695211
-0.0672857
-0.052732
-0.050416
-0.0358035
-0.0336208
-0.0204225
-0.0186127
-0.00858051
-0.00742297
-0.00243136
-0.00206119
-0.00208566
-0.00243484
-0.00772238
-0.00883312
-0.0191914
-0.020959
-0.0343131
-0.0365015
-0.0510859
-0.053504
-0.0679172
-0.0703988
-0.0834325
-0.0858014
-0.0964669
-0.0985376
-0.106106
-0.107688
-0.111697
-0.112603
-0.112664
-0.112916
-0.112115
-0.108554
-0.107045
-0.099762
-0.0977232
-0.0871152
-0.084739
-0.0715314
-0.0690148
-0.0542617
-0.0517982
-0.0368286
-0.034603
-0.0209561
-0.0191719
-0.00870327
-0.00759668
-0.00234496
-0.00200106
-0.00269971
-0.00315721
-0.00937224
-0.0107724
-0.0228906
-0.0250163
-0.0405491
-0.0430488
-0.0599278
-0.0625306
-0.0791869
-0.0816723
-0.0968036
-0.0989705
-0.111523
-0.113193
-0.122378
-0.123398
-0.128685
-0.128928
-0.12971
-0.129407
-0.129317
-0.12474
-0.123842
-0.115137
-0.113537
-0.101144
-0.0989883
-0.0836786
-0.0811528
-0.0640524
-0.0613772
-0.0439373
-0.041361
-0.0253369
-0.0231568
-0.0107672
-0.00934869
-0.00309096
-0.00263334
-0.00258337
-0.00300566
-0.00950299
-0.0108386
-0.0233891
-0.0254969
-0.0414321
-0.0440162
-0.0611646
-0.0639949
-0.0807291
-0.083618
-0.0985989
-0.101353
-0.113525
-0.115944
-0.124552
-0.126426
-0.131007
-0.132121
-0.132173
-0.132635
-0.131699
-0.127868
-0.126122
-0.118035
-0.115681
-0.103697
-0.100944
-0.0857909
-0.0828552
-0.0656551
-0.0627528
-0.0449983
-0.0423439
-0.0258629
-0.0237084
-0.010843
-0.00949356
-0.00294078
-0.00251863
-0.00325576
-0.00379294
-0.0112058
-0.0128382
-0.0271458
-0.0295923
-0.0477054
-0.0505383
-0.069972
-0.0728743
-0.0918377
-0.0945663
-0.111647
-0.113992
-0.128093
-0.129876
-0.140205
-0.141277
-0.147307
-0.147547
-0.148471
-0.148298
-0.148297
-0.143403
-0.14253
-0.133013
-0.131358
-0.117608
-0.115306
-0.0980674
-0.0952998
-0.0757384
-0.0727368
-0.0524486
-0.0494928
-0.0305316
-0.0279806
-0.0130922
-0.011406
-0.00379484
-0.003246
-0.00308362
-0.00357744
-0.011304
-0.0128603
-0.02762
-0.0300621
-0.0485551
-0.0515264
-0.0711524
-0.074384
-0.0932929
-0.0965793
-0.113326
-0.116465
-0.129961
-0.132743
-0.142246
-0.144451
-0.149522
-0.150913
-0.150903
-0.15172
-0.150611
-0.146732
-0.144731
-0.136111
-0.133436
-0.120352
-0.117225
-0.100352
-0.0969991
-0.0774805
-0.0741354
-0.0536017
-0.0505072
-0.0310883
-0.0285492
-0.0131367
-0.0115337
-0.00357921
-0.00307522
-0.00384503
-0.00446232
-0.0131251
-0.0149851
-0.0315324
-0.034282
-0.0549599
-0.0580922
-0.0799712
-0.0831251
-0.104204
-0.107121
-0.125916
-0.128388
-0.14381
-0.145669
-0.15697
-0.15808
-0.164778
-0.165027
-0.166074
-0.166137
-0.166235
-0.161242
-0.160431
-0.150402
-0.148753
-0.133972
-0.131593
-0.112714
-0.109769
-0.0879267
-0.0846457
-0.0615362
-0.0582223
-0.0361979
-0.0332731
-0.0156789
-0.0137107
-0.00459424
-0.0039462
-0.00361889
-0.00418673
-0.0131988
-0.0149813
-0.0319943
-0.0347733
-0.0557848
-0.0591379
-0.0810923
-0.0847115
-0.105554
-0.109221
-0.127443
-0.130955
-0.145491
-0.148647
-0.158812
-0.161395
-0.166812
-0.16857
-0.168415
-0.169759
-0.168419
-0.164783
-0.162499
-0.153719
-0.150722
-0.136942
-0.13345
-0.115222
-0.111459
-0.0898727
-0.0860802
-0.062847
-0.0592933
-0.0368362
-0.0338842
-0.0157166
-0.0138349
-0.00431443
-0.00371924
-0.00449831
-0.00519829
-0.0152009
-0.0172864
-0.0361433
-0.0391748
-0.0623596
-0.0657449
-0.0898498
-0.0931894
-0.116033
-0.119066
-0.139156
-0.141691
-0.158025
-0.159919
-0.171867
-0.173009
-0.180187
-0.180481
-0.181588
-0.182015
-0.182192
-0.177408
-0.176681
-0.16659
-0.165003
-0.149717
-0.147343
-0.127326
-0.124291
-0.100547
-0.0970575
-0.0712917
-0.0676578
-0.0424897
-0.039193
-0.0186454
-0.0163762
-0.00554165
-0.00478282
-0.00422309
-0.00487168
-0.0152606
-0.0172848
-0.0366049
-0.0397299
-0.063161
-0.0668883
-0.0908907
-0.0948711
-0.117226
-0.121235
-0.140449
-0.144297
-0.159408
-0.16292
-0.173374
-0.176364
-0.181888
-0.184113
-0.183693
-0.185755
-0.184104
-0.18107
-0.178483
-0.17005
-0.166751
-0.152873
-0.149051
-0.130066
-0.125921
-0.102745
-0.0985129
-0.0728296
-0.0687983
-0.0432744
-0.0398706
-0.0187135
-0.0165138
-0.00520408
-0.00450237
-0.00525524
-0.00604293
-0.0175152
-0.0198256
-0.041062
-0.0443452
-0.0698808
-0.0734525
-0.0993654
-0.102799
-0.12679
-0.129844
-0.150519
-0.153041
-0.169596
-0.171489
-0.183511
-0.184703
-0.191989
-0.192406
-0.193432
-0.194382
-0.194553
-0.190404
-0.189743
-0.180246
-0.178764
-0.163779
-0.161499
-0.141181
-0.138168
-0.113233
-0.109639
-0.081647
-0.0777602
-0.0495073
-0.0458546
-0.0221098
-0.0195196
-0.00669797
-0.00581362
-0.00494102
-0.00568201
-0.0175777
-0.0198694
-0.0415379
-0.0450212
-0.0706522
-0.074734
-0.100282
-0.104568
-0.127736
-0.132005
-0.151438
-0.155528
-0.170498
-0.17428
-0.184464
-0.18782
-0.193107
-0.195877
-0.196256
-0.197989
-0.195945
-0.193897
-0.191044
-0.183598
-0.180082
-0.166948
-0.162892
-0.144069
-0.139623
-0.115684
-0.111057
-0.0834734
-0.0789622
-0.0505178
-0.0466203
-0.0222642
-0.019694
-0.00631822
-0.00548817
-0.00549801
-0.00706375
-0.0201865
-0.022722
-0.0463784
-0.0498676
-0.0725933
-0.0764325
-0.102488
-0.10637
-0.129977
-0.133626
-0.158664
-0.161091
-0.172359
-0.178652
-0.186042
-0.188049
-0.194397
-0.195715
-0.197257
-0.197858
-0.197064
-0.194249
-0.197272
-0.184584
-0.182143
-0.174403
-0.165383
-0.152975
-0.150118
-0.125197
-0.121646
-0.0857891
-0.0882703
-0.0572758
-0.0533111
-0.0234037
-0.0208072
-0.00699866
-0.00711862
-0.00584541
-0.00669688
-0.0202818
-0.0228779
-0.0468912
-0.0507404
-0.0781405
-0.0825276
-0.108773
-0.113256
-0.136132
-0.140502
-0.158993
-0.163133
-0.17692
-0.180764
-0.189901
-0.193403
-0.198051
-0.201123
-0.199999
-0.203609
-0.201392
-0.200609
-0.197703
-0.191975
-0.188458
-0.177172
-0.173088
-0.155755
-0.151184
-0.127801
-0.122899
-0.094439
-0.0894911
-0.0586032
-0.0541824
-0.0265258
-0.0235214
-0.00775518
-0.00676752
-0.00651569
-0.00740425
-0.0212403
-0.0239035
-0.048373
-0.0521537
-0.0799484
-0.08407
-0.110588
-0.114557
-0.137688
-0.14122
-0.160135
-0.163056
-0.177606
-0.179829
-0.190175
-0.191678
-0.198009
-0.198803
-0.199423
-0.201256
-0.201125
-0.198832
-0.197873
-0.191047
-0.189192
-0.177234
-0.174457
-0.156787
-0.153145
-0.129578
-0.125257
-0.0965346
-0.0918849
-0.0605116
-0.0561587
-0.0278706
-0.0247805
-0.0086211
-0.0075926
-0.00706638
-0.00805538
-0.0235883
-0.0265375
-0.0527847
-0.0569888
-0.0853663
-0.089952
-0.115525
-0.120005
-0.140926
-0.145128
-0.161012
-0.164882
-0.176054
-0.179603
-0.186657
-0.189906
-0.193405
-0.196296
-0.195145
-0.198911
-0.196936
-0.197573
-0.194986
-0.191769
-0.188614
-0.180544
-0.176788
-0.162746
-0.15837
-0.137508
-0.132578
-0.104968
-0.0997183
-0.0674306
-0.0624976
-0.0316917
-0.0281852
-0.00966774
-0.00848467
-0.00788209
-0.00892788
-0.0246828
-0.027743
-0.054299
-0.0584449
-0.0869378
-0.0912003
-0.116722
-0.120548
-0.141458
-0.14459
-0.160768
-0.163099
-0.175081
-0.176606
-0.185114
-0.185892
-0.191511
-0.191627
-0.194606
-0.194137
-0.19477
-0.193289
-0.193185
-0.188439
-0.187446
-0.17849
-0.176475
-0.162111
-0.159013
-0.13819
-0.134084
-0.106562
-0.101739
-0.0693171
-0.0644721
-0.0332459
-0.0296086
-0.0107532
-0.00950464
-0.00884026
-0.0100067
-0.0278447
-0.0312051
-0.0593238
-0.0638241
-0.0917679
-0.0963411
-0.119095
-0.123235
-0.139804
-0.143418
-0.154441
-0.157582
-0.164277
-0.167059
-0.170699
-0.173247
-0.174847
-0.17723
-0.177392
-0.179563
-0.178021
-0.180201
-0.17831
-0.178429
-0.176103
-0.172833
-0.169912
-0.161445
-0.157767
-0.14217
-0.137648
-0.113594
-0.10834
-0.0766214
-0.0712808
-0.037995
-0.0339292
-0.0123034
-0.010878
-0.00985873
-0.0110958
-0.0291336
-0.0326287
-0.0608395
-0.0652515
-0.0929086
-0.0970537
-0.119314
-0.122626
-0.138824
-0.141141
-0.152245
-0.153584
-0.161041
-0.16152
-0.166722
-0.166508
-0.170486
-0.169752
-0.173011
-0.171905
-0.173361
-0.172956
-0.173892
-0.172167
-0.172345
-0.168051
-0.167214
-0.158501
-0.156426
-0.141169
-0.137745
-0.11426
-0.109619
-0.0782854
-0.0731075
-0.0397462
-0.0355326
-0.0136553
-0.0121456
-0.0115782
-0.0129787
-0.0335502
-0.0373743
-0.0664122
-0.0710405
-0.096065
-0.100235
-0.116906
-0.120173
-0.129104
-0.13154
-0.134855
-0.136678
-0.136682
-0.138158
-0.136833
-0.138231
-0.136995
-0.138548
-0.137337
-0.140038
-0.139051
-0.142834
-0.141955
-0.146183
-0.145172
-0.148357
-0.146887
-0.146644
-0.144356
-0.137573
-0.134144
-0.117617
-0.112911
-0.0851776
-0.079719
-0.0456366
-0.0410026
-0.0160469
-0.0143257
-0.0128896
-0.0143651
-0.0350942
-0.0390439
-0.0677969
-0.0722488
-0.0963808
-0.099958
-0.115544
-0.117777
-0.125893
-0.126821
-0.12995
-0.129789
-0.13044
-0.129467
-0.129709
-0.128215
-0.129481
-0.127733
-0.129952
-0.128976
-0.131245
-0.132105
-0.134213
-0.136399
-0.138047
-0.14015
-0.140959
-0.140598
-0.140157
-0.134088
-0.132022
-0.116692
-0.112834
-0.0862461
-0.081093
-0.0475186
-0.0427655
-0.0177219
-0.0159085
-0.015899
-0.0176058
-0.0411888
-0.045471
-0.0731296
-0.0774843
-0.0952859
-0.098366
-0.104205
-0.105815
-0.102936
-0.103442
-0.0958345
-0.0956887
-0.0867386
-0.086383
-0.0786029
-0.0784587
-0.0734814
-0.0739342
-0.0725755
-0.0739695
-0.0735797
-0.0788855
-0.0792306
-0.0880805
-0.0887919
-0.099835
-0.100435
-0.11106
-0.110981
-0.117132
-0.115746
-0.112122
-0.108883
-0.0906648
-0.085716
-0.0544292
-0.0493537
-0.0213744
-0.0193113
-0.0176001
-0.019372
-0.0429597
-0.0473038
-0.0739577
-0.0779674
-0.0939587
-0.0962149
-0.100232
-0.100577
-0.096424
-0.0952465
-0.0872235
-0.0849981
-0.0766047
-0.0737838
-0.0675524
-0.0645368
-0.0621028
-0.0592299
-0.061649
-0.0589876
-0.0619578
-0.0641414
-0.0674513
-0.0741571
-0.0774831
-0.0874225
-0.0903141
-0.100939
-0.102817
-0.110053
-0.110237
-0.108546
-0.106412
-0.0904038
-0.085979
-0.0561949
-0.0510989
-0.0233889
-0.021242
-0.02235
-0.0244226
-0.0503481
-0.0548685
-0.0759738
-0.0791852
-0.0826428
-0.0835121
-0.0721838
-0.0710995
-0.051842
-0.0496062
-0.0282117
-0.0255277
-0.00601003
-0.00346488
0.01163
0.0135201
0.0227371
0.0234983
0.0251033
0.0253584
0.0252141
0.0186513
0.0170631
0.00363419
0.00101881
-0.0184595
-0.0215639
-0.0449061
-0.047802
-0.0707725
-0.0725506
-0.0882334
-0.0878186
-0.0873445
-0.0841024
-0.0625716
-0.0575158
-0.0283583
-0.0259647
-0.0243846
-0.0264984
-0.05193
-0.0563607
-0.0750706
-0.0776681
-0.0780086
-0.0777658
-0.0638587
-0.0612852
-0.0404705
-0.0364376
-0.0146139
-0.00985937
0.00902027
0.0139234
0.0273961
0.0320047
0.0386408
0.0426056
0.0416746
0.0447097
0.041265
0.0378798
0.0335165
0.0222882
0.0172832
-0.00101075
-0.00623145
-0.0295352
-0.034329
-0.0585639
-0.0620055
-0.0802843
-0.0812021
-0.0842847
-0.0818479
-0.0634676
-0.0585866
-0.0304915
-0.0280363
-0.0297862
-0.0321721
-0.0566905
-0.0606229
-0.0644859
-0.0648386
-0.0433152
-0.0403575
-0.00494954
-8.58777e-05
0.0388878
0.0444325
0.080569
0.085968
0.115775
0.120439
0.142201
0.145651
0.158649
0.160441
0.162337
0.164137
0.163643
0.1563
0.153735
0.136704
0.132424
0.105587
0.10003
0.064289
0.0580763
0.0164441
0.0105452
-0.0302304
-0.0343283
-0.0623007
-0.0627934
-0.0632785
-0.0594355
-0.0346256
-0.0320951
-0.0313125
-0.0337347
-0.0564418
-0.0600104
-0.0589641
-0.0583502
-0.0321629
-0.0278072
0.0105311
0.0170374
0.0572726
0.0646153
0.100681
0.10802
0.136731
0.143533
0.163369
0.169284
0.179574
0.184337
0.182312
0.188158
0.184576
0.180338
0.175313
0.160573
0.154256
0.128892
0.121544
0.0862804
0.0783979
0.0358847
0.0283908
-0.0151217
-0.0206725
-0.0535484
-0.0551316
-0.061291
-0.057922
-0.0357666
-0.033166
-0.0277183
-0.0301367
-0.042116
-0.0433188
-0.011294
-0.00589067
0.0528135
0.0613442
0.124332
0.133428
0.190462
0.198982
0.246147
0.253543
0.289684
0.295623
0.320832
0.325052
0.339829
0.342048
0.344154
0.346702
0.346155
0.338753
0.335836
0.317512
0.312426
0.281966
0.274878
0.231217
0.222384
0.165582
0.155537
0.0887
0.0786678
0.0122016
0.00510707
-0.0356301
-0.0354598
-0.027505
-0.0253161
-0.0240875
-0.0267995
-0.034324
-0.0347343
0.00545395
0.0121615
0.0761534
0.0862093
0.151029
0.161716
0.218463
0.228587
0.274301
0.283349
0.317379
0.325131
0.347785
0.354146
0.365944
0.370837
0.372115
0.375419
0.372112
0.367665
0.362666
0.346845
0.340125
0.311788
0.303314
0.261262
0.251122
0.194949
0.18357
0.115341
0.103943
0.0324422
0.0240716
-0.0250654
-0.0257577
-0.0229553
-0.0203974
0.042399
0.0398116
0.0605599
0.0658753
0.150321
0.164329
0.260593
0.274702
0.354834
0.366415
0.42828
0.437518
0.483781
0.490996
0.52417
0.529514
0.551708
0.55523
0.568029
0.569663
0.571731
0.573578
0.573355
0.566959
0.564662
0.548943
0.544607
0.517698
0.51119
0.470355
0.461391
0.403056
0.391162
0.311199
0.296002
0.194929
0.179152
0.0854921
0.0784579
0.050446
0.052191
0.0740636
0.0692719
0.095404
0.102007
0.192283
0.207658
0.304415
0.319743
0.397129
0.409843
0.467927
0.478267
0.520684
0.529069
0.55862
0.565346
0.584135
0.589425
0.598903
0.602886
0.601653
0.606522
0.603921
0.600333
0.596331
0.583476
0.577899
0.554126
0.546658
0.509341
0.49954
0.444954
0.432212
0.355377
0.33922
0.238356
0.221375
0.122295
0.114021
0.080438
0.0844261
0.241743
0.255806
0.319679
0.341385
0.450068
0.478514
0.57088
0.595081
0.653468
0.67267
0.707459
0.7237
0.743906
0.75822
0.768577
0.781349
0.784585
0.795974
0.79375
0.803771
0.795696
0.805551
0.796164
0.801418
0.790882
0.790757
0.779066
0.772019
0.758972
0.742256
0.727364
0.695984
0.678048
0.622123
0.598644
0.505326
0.476347
0.3613
0.338232
0.2676
0.25289
0.264429
0.277446
0.342363
0.3653
0.4733
0.502714
0.593801
0.61806
0.675076
0.69368
0.727284
0.742603
0.762036
0.7753
0.785304
0.797028
0.800234
0.810685
0.808636
0.817932
0.810297
0.819568
0.81093
0.815699
0.806105
0.805728
0.795072
0.788143
0.776123
0.760029
0.746036
0.715833
0.698486
0.64412
0.620582
0.528938
0.49894
0.385101
0.360683
0.28944
0.275715
)
;

boundaryField
{
    movingWall
    {
        type            calculated;
        value           uniform 1;
    }
    fixedWalls
    {
        type            calculated;
        value           uniform 0;
    }
    frontAndBack
    {
        type            empty;
    }
}


// ************************************************************************* //
