/*--------------------------------*- C++ -*----------------------------------*\
| =========                 |                                                 |
| \\      /  F ield         | OpenFOAM: The Open Source CFD Toolbox           |
|  \\    /   O peration     | Version:  2306                                  |
|   \\  /    A nd           | Website:  www.openfoam.com                      |
|    \\/     M anipulation  |                                                 |
\*---------------------------------------------------------------------------*/
FoamFile
{
    version     2.0;
    format      ascii;
    arch        "LSB;label=32;scalar=64";
    class       volScalarField;
    location    "0.5";
    object      Uy;
}
// * * * * * * * * * * * * * * * * * * * * * * * * * * * * * * * * * * * * * //

dimensions      [0 1 -1 0 0 0 0];

internalField   nonuniform List<scalar> 
1681
(
-0.000170496
-0.000146591
0.000305536
0.000361007
0.000934219
0.000968161
0.00142635
0.00140897
0.00169326
0.00162444
0.00173798
0.0016297
0.00158926
0.00145919
0.00128429
0.00115169
0.000862527
0.000744823
0.000364122
0.000274499
-0.000169346
-0.000223366
-0.000312205
-0.000710635
-0.000830387
-0.00114527
-0.00128182
-0.00148096
-0.00161516
-0.0016689
-0.00177965
-0.00166274
-0.00173126
-0.00142806
-0.0014428
-0.000959757
-0.000922948
-0.000335155
-0.000279292
0.000168179
0.000192415
-0.000172419
-0.000150894
0.000399158
0.00044717
0.00112293
0.00114517
0.00167958
0.00164698
0.00197596
0.00188937
0.00201637
0.00188986
0.00183435
0.00168841
0.00147366
0.00133018
0.000980959
0.000858879
0.000403756
0.000315757
0.000269953
-0.000258436
-0.000345268
-0.000820672
-0.00094432
-0.00132332
-0.00147045
-0.00171343
-0.00186352
-0.00193464
-0.00206392
-0.00193309
-0.00201981
-0.00166876
-0.0016991
-0.0011354
-0.00111048
-0.000417147
-0.000368683
0.000175259
0.000197412
0.000244325
0.00033865
0.00168878
0.00193023
0.00354769
0.00376068
0.00498234
0.00509986
0.00575545
0.00576303
0.00585224
0.00575562
0.00534084
0.00515609
0.00432523
0.00407412
0.00292475
0.00263185
0.00126642
0.000957678
0.000663282
-0.000813158
-0.00112783
-0.0025366
-0.00284173
-0.00405938
-0.00432409
-0.00522274
-0.00541727
-0.00587246
-0.00597142
-0.00587747
-0.00586422
-0.00515994
-0.0050318
-0.00374224
-0.00351988
-0.00185897
-0.00161628
-0.000274326
-0.000181515
0.000323353
0.000406383
0.00203614
0.00226867
0.00415672
0.00435427
0.00577315
0.00586657
0.00662947
0.00660519
0.00671197
0.00657943
0.00610114
0.00588165
0.00491938
0.00463948
0.00330702
0.00299315
0.00141288
0.00108789
0.000771886
-0.000925294
-0.00125748
-0.00288619
-0.00321319
-0.00462351
-0.00491745
-0.00595781
-0.00618719
-0.00671252
-0.00684736
-0.00673561
-0.00675416
-0.00593508
-0.00583107
-0.00433295
-0.00412617
-0.00218623
-0.00195262
-0.000332945
-0.000250518
0.00177616
0.00205129
0.00525717
0.00585703
0.00944862
0.00995711
0.0125727
0.0128801
0.0142035
0.0142753
0.0142944
0.014132
0.0129787
0.0126047
0.0104823
0.00993315
0.00707783
0.00639997
0.00306436
0.00231232
0.00155477
-0.0020022
-0.00276758
-0.00619542
-0.00689977
-0.00990171
-0.01048
-0.0127499
-0.0131448
-0.014389
-0.0145564
-0.0145326
-0.0144486
-0.013025
-0.0126944
-0.00993237
-0.00940235
-0.00570898
-0.00510439
-0.00190505
-0.00163282
0.00199895
0.00223984
0.00592777
0.0065174
0.0104968
0.0109966
0.0138701
0.0141689
0.0156053
0.0156672
0.0156597
0.0154846
0.0141844
0.0137938
0.0114316
0.0108598
0.0077046
0.00699235
0.0033337
0.00252546
0.00167247
-0.00218687
-0.0030124
-0.0067692
-0.00751102
-0.0108261
-0.0114282
-0.0139535
-0.0143642
-0.015767
-0.0159454
-0.0159503
-0.0158748
-0.0143288
-0.0140065
-0.0109697
-0.0104491
-0.00635312
-0.00575974
-0.00207967
-0.00184028
0.0045964
0.00512843
0.0110244
0.0121084
0.0183475
0.0192086
0.0235757
0.0240791
0.026164
0.0262639
0.0260708
0.0257714
0.0235295
0.0228677
0.0189291
0.0179647
0.0127432
0.0115529
0.00549549
0.00417013
-0.00225313
-0.00360841
-0.00495473
-0.0111729
-0.0124069
-0.0178854
-0.0188994
-0.0231017
-0.0238009
-0.0262148
-0.0265262
-0.0267299
-0.0266127
-0.02437
-0.0238288
-0.0192111
-0.0183118
-0.0118806
-0.0107846
-0.00487683
-0.00434794
0.00491774
0.00538598
0.0120147
0.0130977
0.0198068
0.0206852
0.0253222
0.0258595
0.0280155
0.0281582
0.0278582
0.0275984
0.025109
0.0244688
0.0201891
0.0192117
0.0136077
0.0123511
0.00592404
0.00445951
-0.00226694
-0.00385326
-0.00534637
-0.0119408
-0.0132473
-0.0191257
-0.0201548
-0.0247211
-0.0253965
-0.0280777
-0.028345
-0.0286633
-0.0284996
-0.0261769
-0.0256007
-0.0206909
-0.0197758
-0.012851
-0.0117586
-0.0051168
-0.00465
0.00861139
0.00946947
0.0188549
0.0205353
0.0300154
0.0312718
0.0376349
0.0383261
0.0411633
0.0412469
0.0406422
0.0401371
0.036462
0.035429
0.0292186
0.0277482
0.0196226
0.0178275
0.00845281
0.00646459
-0.00346001
-0.00549097
-0.00750785
-0.01714
-0.0190005
-0.0275407
-0.0290892
-0.0357368
-0.0368334
-0.0408172
-0.0413498
-0.0420195
-0.0419186
-0.0388761
-0.0381322
-0.0313918
-0.0300751
-0.0202686
-0.0185619
-0.00911114
-0.00825346
0.00897294
0.00973005
0.0201713
0.0218775
0.0318894
0.0332164
0.0398267
0.0406283
0.0434534
0.0436688
0.0428395
0.0424583
0.0384103
0.0374578
0.0308001
0.0293287
0.020758
0.0188428
0.00909911
0.00683884
0.0043751
-0.00579103
-0.00809382
-0.018102
-0.0200945
-0.0291033
-0.0306571
-0.0377865
-0.0387987
-0.0431889
-0.043589
-0.0445024
-0.044262
-0.0412269
-0.0403697
-0.0333544
-0.0319699
-0.0215947
-0.0198673
-0.00935155
-0.00859337
0.0137499
0.0149994
0.0286809
0.0310628
0.0443786
0.046068
0.0546459
0.0555112
0.0590504
0.0590696
0.05782
0.0570411
0.0515797
0.0500985
0.0411851
0.0391309
0.0276171
0.0251431
0.0119283
0.00920843
0.00647727
-0.00754106
-0.0102968
-0.0239097
-0.0264772
-0.0386381
-0.0408108
-0.050429
-0.0520152
-0.0580176
-0.0588544
-0.060299
-0.060273
-0.056516
-0.0555859
-0.046486
-0.0447087
-0.0308695
-0.0284361
-0.0145711
-0.0133134
0.014096
0.0151998
0.0303419
0.032803
0.0466899
0.0485418
0.0573052
0.0584047
0.0617999
0.0620897
0.0604486
0.0599234
0.0539237
0.0526152
0.0431262
0.0410955
0.0290774
0.0264132
0.0128647
0.00968885
0.00619215
-0.00789444
-0.0111331
-0.0250845
-0.0278662
-0.0405616
-0.0427215
-0.052966
-0.0543748
-0.0609713
-0.0615398
-0.063416
-0.0631042
-0.0594982
-0.0583263
-0.04901
-0.0470724
-0.0326075
-0.0301027
-0.0147505
-0.0136383
0.0199867
0.0216883
0.0404909
0.0436684
0.0614189
0.0635698
0.07456
0.0755777
0.0797318
0.0796332
0.077473
0.076352
0.0687391
0.0667395
0.0547084
0.0520056
0.0366633
0.0334541
0.0159376
0.0124378
0.00895259
-0.0096393
-0.01318
-0.031298
-0.0346362
-0.050965
-0.0538428
-0.0669843
-0.0691521
-0.0776856
-0.0789179
-0.0815297
-0.0816503
-0.0773396
-0.0762532
-0.0645927
-0.0623212
-0.0437679
-0.0404973
-0.0212885
-0.0195605
0.0202718
0.0217783
0.0425213
0.04587
0.0641956
0.0666512
0.0777131
0.0791462
0.082964
0.0833334
0.0805564
0.0798719
0.071508
0.0698133
0.05705
0.0544148
0.0385062
0.035027
0.0172414
0.0130536
0.00838968
-0.0100399
-0.0143237
-0.0327036
-0.0363618
-0.0532901
-0.0561267
-0.070071
-0.071932
-0.0813044
-0.0820778
-0.0853814
-0.0850062
-0.0810634
-0.0795432
-0.0677836
-0.0652053
-0.0460017
-0.0425695
-0.0213599
-0.0198295
0.0273427
0.0295515
0.0543216
0.0583755
0.0811406
0.0837671
0.0973131
0.0984486
0.103066
0.102789
0.0994029
0.0978719
0.0877255
0.0851463
0.0696062
0.0662072
0.0466563
0.0426786
0.0204841
0.0161807
0.0119365
-0.0116421
-0.0159865
-0.039065
-0.0432139
-0.064228
-0.0678764
-0.0851157
-0.0879534
-0.099605
-0.101332
-0.105617
-0.105974
-0.10139
-0.100198
-0.0858588
-0.083077
-0.0591314
-0.0549216
-0.0293676
-0.0270994
0.0275385
0.0295054
0.0567517
0.0611228
0.0844135
0.0875492
0.100985
0.102782
0.106799
0.107249
0.102956
0.102098
0.090939
0.0888386
0.0723804
0.0691179
0.0489329
0.0446048
0.0222295
0.0169682
0.0110241
-0.0120761
-0.0174896
-0.0407091
-0.0453102
-0.0669812
-0.0705541
-0.0887993
-0.0911686
-0.103962
-0.104986
-0.110305
-0.109887
-0.105981
-0.104088
-0.0898506
-0.0865444
-0.0619783
-0.057458
-0.0293108
-0.0272919
0.0358811
0.0386466
0.070255
0.0752494
0.103553
0.106648
0.122787
0.123987
0.128805
0.128277
0.12327
0.121263
0.108176
0.10497
0.0855646
0.0814462
0.0573962
0.0526473
0.025527
0.020429
0.0154536
-0.0133832
-0.0185136
-0.046888
-0.0518537
-0.0779989
-0.0824578
-0.104368
-0.107952
-0.123389
-0.125715
-0.132332
-0.133034
-0.128646
-0.12743
-0.11045
-0.107169
-0.0772022
-0.0719638
-0.038982
-0.0361045
0.0359852
0.0384764
0.0731177
0.0786485
0.107353
0.111235
0.126992
0.129168
0.133038
0.133553
0.127286
0.126229
0.111829
0.109305
0.0887802
0.0848858
0.0601376
0.0549655
0.027774
0.0214289
0.0141253
-0.0138244
-0.0204162
-0.0487516
-0.0543364
-0.0811639
-0.0855269
-0.108647
-0.111592
-0.128515
-0.129858
-0.137933
-0.137519
-0.134229
-0.131963
-0.1154
-0.111289
-0.0808177
-0.0750364
-0.0388191
-0.0362304
0.0457099
0.0490744
0.0884103
0.0943877
0.12864
0.132167
0.150746
0.15193
0.156503
0.15564
0.148497
0.145952
0.129482
0.125626
0.102053
0.0972291
0.068522
0.0630435
0.0309401
0.0251017
0.0194623
-0.0146825
-0.0205331
-0.0543397
-0.0600781
-0.0916593
-0.0969255
-0.124032
-0.128412
-0.148373
-0.151399
-0.161196
-0.162375
-0.158924
-0.157802
-0.138489
-0.13476
-0.0982753
-0.0919393
-0.0503729
-0.0468196
0.0457563
0.0488448
0.0917387
0.0985671
0.132988
0.137662
0.155478
0.158011
0.161202
0.161728
0.152925
0.151614
0.133527
0.130538
0.105676
0.101143
0.0717219
0.0657383
0.0337191
0.0263479
-0.0064429
-0.0150852
-0.0228545
-0.0563399
-0.0629322
-0.0951258
-0.100344
-0.1288
-0.13242
-0.154202
-0.155979
-0.167716
-0.167407
-0.165591
-0.162999
-0.144565
-0.139598
-0.102855
-0.09563
-0.0501876
-0.0469324
0.049666
0.0609927
0.10894
0.115913
0.15631
0.160187
0.16092
0.163452
0.166003
0.166845
0.156667
0.155987
0.150679
0.146187
0.106806
0.11277
0.0715063
0.0672708
0.0321955
0.0270871
-0.00921241
-0.0150329
-0.0206124
-0.0571237
-0.0672738
-0.0969553
-0.100846
-0.143053
-0.134487
-0.173481
-0.177286
-0.19133
-0.193133
-0.171576
-0.190878
-0.169961
-0.165893
-0.107155
-0.100499
-0.0544562
-0.0595663
0.0570698
0.0608398
0.112768
0.121024
0.161211
0.166674
0.185955
0.188762
0.190474
0.190895
0.178864
0.177185
0.154994
0.151461
0.12216
0.116952
0.083031
0.0762512
0.0397543
0.0314368
0.0214953
-0.0156312
-0.0245379
-0.062808
-0.0704376
-0.107856
-0.114019
-0.148034
-0.152474
-0.179778
-0.182171
-0.198631
-0.198611
-0.199491
-0.196701
-0.17731
-0.171492
-0.128441
-0.119593
-0.0638159
-0.0597812
0.0616434
0.0654928
0.117261
0.1249
0.166717
0.171722
0.19133
0.193892
0.195011
0.19543
0.182211
0.180805
0.157031
0.1541
0.122896
0.118701
0.0825228
0.077286
0.0380659
0.031974
0.0249704
-0.0154202
-0.0220447
-0.063091
-0.069088
-0.108922
-0.113997
-0.150166
-0.153966
-0.183183
-0.185301
-0.203332
-0.203331
-0.205166
-0.20264
-0.183144
-0.177796
-0.133066
-0.124842
-0.0690403
-0.0649301
0.0702644
0.0748079
0.136395
0.146184
0.191748
0.197923
0.217566
0.220466
0.219532
0.219641
0.203545
0.201319
0.174679
0.170477
0.136888
0.130952
0.0930815
0.0855303
0.0453613
0.0362234
0.0253332
-0.0153219
-0.0252134
-0.0674058
-0.076047
-0.118063
-0.125246
-0.164651
-0.170082
-0.203374
-0.206635
-0.228975
-0.229533
-0.23476
-0.232026
-0.213251
-0.206692
-0.157885
-0.147264
-0.0802265
-0.0752879
0.0755521
0.0802643
0.141075
0.150208
0.197246
0.202805
0.222627
0.22503
0.223501
0.22329
0.206197
0.203895
0.17603
0.172091
0.13706
0.131846
0.0922068
0.085995
0.0435383
0.0365339
-0.00738206
-0.0150156
-0.0225816
-0.0672149
-0.0742964
-0.11829
-0.124579
-0.16568
-0.170759
-0.205589
-0.208917
-0.23263
-0.233559
-0.239773
-0.237607
-0.218945
-0.213058
-0.162784
-0.152851
-0.0864853
-0.0813787
0.085887
0.0912933
0.162843
0.174208
0.224015
0.230688
0.248843
0.251518
0.246309
0.245796
0.224682
0.221672
0.1904
0.185401
0.148017
0.141348
0.100522
0.092334
0.0497791
0.0401089
-0.00301936
-0.0141542
-0.0246877
-0.0693946
-0.0788497
-0.124237
-0.132407
-0.176464
-0.183017
-0.222366
-0.22678
-0.2561
-0.257641
-0.2693
-0.267047
-0.251369
-0.244354
-0.191331
-0.178876
-0.100113
-0.0941521
0.0919596
0.0976
0.167694
0.178358
0.229298
0.235195
0.253237
0.255174
0.249304
0.248188
0.226257
0.22288
0.190761
0.185749
0.147425
0.141232
0.0991939
0.0921325
0.0478496
0.0401166
-0.00551223
-0.0137927
-0.0220686
-0.0687461
-0.0767301
-0.123574
-0.130988
-0.176218
-0.182622
-0.22307
-0.227817
-0.25827
-0.260483
-0.273187
-0.271796
-0.256582
-0.250464
-0.196404
-0.184724
-0.107463
-0.101267
0.104835
0.111164
0.192298
0.205146
0.256817
0.263559
0.277343
0.279295
0.267705
0.26616
0.239089
0.235043
0.19929
0.193418
0.153221
0.145923
0.103672
0.0951245
0.052023
0.0422486
0.0308691
-0.012228
-0.0228823
-0.0680651
-0.0779309
-0.124753
-0.133683
-0.180887
-0.188557
-0.233336
-0.239147
-0.276187
-0.279189
-0.299656
-0.298515
-0.289532
-0.282626
-0.228514
-0.214355
-0.124396
-0.117342
0.111808
0.11839
0.197274
0.209358
0.261539
0.26735
0.280554
0.281569
0.269189
0.266834
0.239131
0.234523
0.198329
0.192259
0.15166
0.144648
0.101805
0.0941561
0.0500128
0.0418797
0.0332889
-0.0118539
-0.0204536
-0.0669759
-0.0755118
-0.123165
-0.131444
-0.179222
-0.186849
-0.232217
-0.238503
-0.276372
-0.280243
-0.30181
-0.301768
-0.293747
-0.287958
-0.23356
-0.22029
-0.132872
-0.125564
0.128533
0.135754
0.224638
0.238602
0.287743
0.293794
0.299086
0.299612
0.279266
0.276226
0.242634
0.237364
0.197932
0.191249
0.149905
0.142244
0.100723
0.0922491
0.05101
0.041693
0.03107
-0.00979083
-0.0198827
-0.0628789
-0.0725459
-0.118095
-0.12732
-0.175201
-0.183745
-0.232253
-0.239531
-0.284131
-0.28905
-0.320515
-0.321307
-0.32374
-0.3179
-0.268207
-0.252849
-0.15424
-0.146151
0.136599
0.144019
0.229568
0.242684
0.291295
0.296287
0.300362
0.299833
0.278571
0.274633
0.240654
0.234755
0.19534
0.188384
0.147216
0.139713
0.0982677
0.0904613
0.0489497
0.0409067
0.0326389
-0.00944414
-0.0178215
-0.06139
-0.0699369
-0.115602
-0.124265
-0.172046
-0.180561
-0.22905
-0.236801
-0.281803
-0.287633
-0.320163
-0.322173
-0.326164
-0.321614
-0.272824
-0.258496
-0.163856
-0.155574
0.15918
0.167028
0.258669
0.272832
0.311976
0.316127
0.307729
0.305992
0.274971
0.270076
0.230491
0.224028
0.18285
0.17566
0.135742
0.128199
0.090194
0.0823793
0.0458479
0.037647
0.0285605
-0.00720565
-0.0159573
-0.0536853
-0.0623808
-0.103307
-0.112101
-0.157159
-0.165997
-0.215046
-0.223509
-0.273796
-0.28084
-0.32427
-0.327856
-0.346966
-0.343624
-0.307122
-0.291756
-0.191011
-0.182253
0.168702
0.176587
0.263038
0.276256
0.313239
0.316255
0.305983
0.303182
0.271325
0.265583
0.226052
0.219029
0.178444
0.171011
0.131891
0.124439
0.0871806
0.0798211
0.0437859
0.0364654
0.0005263
-0.0069134
-0.0143983
-0.0518766
-0.0597252
-0.100016
-0.108347
-0.152572
-0.161335
-0.209628
-0.218435
-0.268455
-0.276281
-0.320443
-0.325197
-0.346362
-0.344381
-0.310508
-0.296313
-0.201815
-0.193036
0.199647
0.207344
0.290113
0.302475
0.320032
0.320535
0.293501
0.288776
0.247396
0.240687
0.19799
0.190803
0.151556
0.144519
0.109625
0.102909
0.0716569
0.0651939
0.0362944
0.0298756
0.023039
-0.00484447
-0.0115206
-0.0409521
-0.04786
-0.0805942
-0.0880458
-0.125961
-0.13414
-0.17879
-0.187611
-0.238915
-0.247704
-0.300895
-0.307819
-0.347488
-0.348515
-0.337578
-0.324612
-0.235604
-0.227138
0.210867
0.2183
0.292453
0.303785
0.317036
0.31645
0.287325
0.281687
0.240116
0.232768
0.190934
0.183384
0.145454
0.138294
0.104818
0.0981859
0.068264
0.0620839
0.034319
0.0284167
0.0226958
-0.00461535
-0.0105116
-0.0389688
-0.0453309
-0.076771
-0.0838689
-0.120255
-0.128288
-0.171346
-0.180293
-0.230324
-0.239605
-0.292578
-0.300411
-0.34202
-0.344285
-0.337961
-0.326251
-0.247212
-0.239021
0.246602
0.252696
0.305886
0.312633
0.2955
0.290335
0.244291
0.236524
0.190398
0.18271
0.143513
0.136652
0.10497
0.0990606
0.0734304
0.0683427
0.0468934
0.0424054
0.0234045
0.0192557
0.0151299
-0.00295978
-0.00708226
-0.0261094
-0.0306118
-0.0522926
-0.0575416
-0.0840548
-0.0904167
-0.124448
-0.13223
-0.176438
-0.185654
-0.240549
-0.250371
-0.308291
-0.315425
-0.341908
-0.335446
-0.280377
-0.273848
0.255722
0.261355
0.30237
0.308096
0.285997
0.280079
0.233123
0.224897
0.179939
0.172052
0.134701
0.127831
0.0980591
0.092251
0.0683871
0.063455
0.0435868
0.0392903
0.0216996
0.0177998
0.000957771
-0.00278856
-0.00655687
-0.0242399
-0.0284519
-0.0485441
-0.0535215
-0.0781567
-0.08427
-0.116119
-0.123734
-0.165614
-0.174859
-0.227928
-0.23811
-0.296311
-0.304233
-0.335373
-0.330089
-0.288099
-0.281965
0.255974
0.259444
0.270744
0.268231
0.220025
0.209602
0.157596
0.148744
0.11041
0.103674
0.0768343
0.0717362
0.0529022
0.0490387
0.0353591
0.0323968
0.0217878
0.0194615
0.0104629
0.00855715
0.00700466
-0.00160368
-0.00329318
-0.012203
-0.0142711
-0.0245992
-0.0273124
-0.0406748
-0.0443849
-0.0632865
-0.0684834
-0.0966941
-0.104012
-0.146428
-0.156493
-0.215996
-0.227939
-0.28409
-0.287327
-0.277371
-0.273984
0.245348
0.249469
0.254771
0.251543
0.204379
0.193827
0.144377
0.135695
0.100051
0.0936149
0.0690707
0.0643074
0.0472999
0.0437385
0.0315216
0.0287945
0.0194134
0.0172499
0.00934923
0.00755272
0.00610256
-0.00146698
-0.00307189
-0.010872
-0.0128115
-0.0218874
-0.0243926
-0.036234
-0.0396452
-0.0565743
-0.0613995
-0.0869844
-0.0939224
-0.133013
-0.142818
-0.198815
-0.210849
-0.265132
-0.269116
-0.265396
-0.261193
0.177251
0.17243
0.158815
0.152639
0.11126
0.102413
0.0697076
0.0633106
0.0436434
0.0392897
0.0276889
0.0246963
0.0176837
0.0156221
0.011116
0.00970753
0.00647389
0.00553816
0.00284658
0.00226426
0.00210804
-0.000674254
-0.00105197
-0.00374404
-0.00443102
-0.00748475
-0.00859621
-0.0127269
-0.0144496
-0.0209466
-0.0236037
-0.0348515
-0.038994
-0.0592346
-0.0657376
-0.100958
-0.110374
-0.15583
-0.162647
-0.178447
-0.183857
0.167245
0.163054
0.148485
0.142061
0.103826
0.094706
0.0641977
0.0577524
0.0396486
0.0353599
0.0248649
0.0219681
0.015736
0.0137607
0.00983154
0.00848175
0.00571223
0.00480248
0.00252243
0.00193715
0.00175158
-0.000622919
-0.00101771
-0.00329607
-0.00397448
-0.00656697
-0.00763813
-0.0111919
-0.0128444
-0.0185377
-0.021109
-0.0311564
-0.0352366
-0.053663
-0.0602148
-0.0927735
-0.102476
-0.144261
-0.151351
-0.168026
-0.172742
)
;

boundaryField
{
    movingWall
    {
        type            calculated;
        value           uniform 0;
    }
    fixedWalls
    {
        type            calculated;
        value           uniform 0;
    }
    frontAndBack
    {
        type            empty;
    }
}


// ************************************************************************* //
