/*--------------------------------*- C++ -*----------------------------------*\
| =========                 |                                                 |
| \\      /  F ield         | OpenFOAM: The Open Source CFD Toolbox           |
|  \\    /   O peration     | Version:  2306                                  |
|   \\  /    A nd           | Website:  www.openfoam.com                      |
|    \\/     M anipulation  |                                                 |
\*---------------------------------------------------------------------------*/
FoamFile
{
    version     2.0;
    format      ascii;
    arch        "LSB;label=32;scalar=64";
    class       volScalarField;
    location    "2.1";
    object      gradTz;
}
// * * * * * * * * * * * * * * * * * * * * * * * * * * * * * * * * * * * * * //

dimensions      [0 -1 0 1 0 0 0];

internalField   nonuniform List<scalar> 
5712
(
7271.19
23890
5770.83
24497.7
4334.78
25342
6845.17
39081.9
8411.96
53740.1
8347.5
39132.3
8050.21
32472.1
8366.7
29010.5
5063.18
3128.52
13534
8026.66
4962.84
2674.99
14821.7
7357.45
5530.48
4002.88
17736
12464.7
4182.54
3004.82
17445.5
12660.4
9807.88
4150.35
8466.63
3770.87
3891.46
9143.7
33933.8
9199.57
12149.7
4113.82
43729.6
11877.6
11384
3940.8
24223.4
7518.53
12431
4339.55
21051.3
6694.79
5919.22
2934.8
8749.24
3405.52
6404.61
3463.23
8533.61
3270.73
8135.77
4634.97
7354.83
3191.79
10887.8
3910.05
3746.83
1307.27
12322.7
8536.4
7626.83
5573.71
13789.5
11345.4
7537.34
6523.08
7220.41
4874.17
10169.8
6796.08
5028.44
3695.59
2557.11
2098.05
4861.48
4199.87
2518.33
2429.31
4820.99
3159.24
2472.14
1585.74
6446.87
3502.66
4829.93
5833.19
8815.9
6272.21
6989.42
9974.76
4268.53
2020.6
2850.36
3342.09
2120.94
880.216
1232.41
1239.46
7784.72
13964.9
5283.43
15595
9132.82
13676.9
6501.42
16336.4
10384.6
12391
8380.43
15958.9
12298.9
14686.3
9237.19
8891.85
9734.19
14670.5
13540.9
13286.1
13615.6
19660
11925.1
9167.81
7925.04
8876.08
13927.4
16155.6
14410.2
18740.4
17995.2
14793.4
13696.7
18515.1
17625.5
12806.8
12477.7
17375.3
16992.2
10705.6
8392.19
9949.03
8653.67
10850.2
9680.47
11651.2
11162.8
16008.4
16362.2
10007.7
8658.28
9536.79
9142.53
9822.57
10385.3
11045.9
12376.8
14407.6
16633.9
8265.92
6489.59
5678.4
7228.94
11184.3
13627.4
7757.78
12272.6
4807.47
6324.48
7157.94
5900.21
1375.57
4799.54
715.794
1726.26
3965.21
8253.24
1466.57
2862.9
654.924
4066.93
368.469
1426.35
4721.9
4797.29
5366.39
3333.65
7470.76
5974.71
8785.55
6056.94
1104.21
2627.84
2663.01
1514.71
1486.98
1928.5
2103.2
1588.71
11462.7
6957.28
2187.02
12979.3
7441.96
2435.05
10994.3
6884.81
2321.24
12781.5
7452.54
2433.44
10116.2
6321.65
2076.3
12478.6
7492.49
2501.88
5482.31
2967.13
802.404
7006.63
4610.05
1601.03
8345.77
5753.9
1983.1
9642.82
6236.48
2069.31
12363.8
7701.69
2692.52
6512.5
3660.16
1160.9
6590.71
4739.7
1786.64
7814.39
5769.46
2117.05
9763.8
6847.33
2446.9
12504.8
7794.7
2763.78
299.433
2013.54
2848.32
4110.88
2183.58
2507.56
5485.69
5204.14
602.823
1034.15
643.641
1077.21
488.417
1417.21
871.308
1858.72
3229.23
1578.77
4082.31
2359.45
2174.12
3796.22
3408.38
938.538
6086.8
1488.97
-1912.66
724.48
1789.23
1336.76
1243.24
1150.3
9835.7
4521.38
2688.2
1673.48
9989.95
4701.07
3383.68
2118.19
9862.46
5060.81
4911.4
3460.76
3521.98
2545.26
1744.53
1674.18
12627.4
11228.6
5948.82
6175.61
13557.9
12727.1
6691.5
6748.92
5303.97
5462.31
10877.9
9098.98
3554.1
3720.3
1992.47
2263.99
4126.67
4101.89
2271.07
2432.41
3109.75
3354.38
1750.4
2151.74
4744.9
3343.82
4741.93
3394.23
7383.76
4407.29
7054.4
4693.35
2865.8
2425.07
3005.36
2197.61
1609.55
1525.64
1915.47
1292.66
11670.7
8168.9
5921.03
6045.77
11622.1
8365.22
5954.54
6017.27
12060.7
8693.23
6039.83
5849.62
13852.2
14912.3
12674
8529.53
4902.78
14129
13126.8
12254.3
10192.1
6672.6
13248.9
12013.4
9647.46
7481.47
4738.98
6976.73
6235.75
6546.13
7517.5
7189.93
6125.49
6610.71
7420.75
7490.16
6081.6
6676.26
7320.99
10660.9
7521.33
9991.43
6963.47
7920.92
6425.11
7467.96
6429.32
6196.22
7255.48
8856.22
7684.4
7868.98
6883.16
6765.33
6160.78
6031.09
6027.39
4885.79
6904.63
7035.17
4757.93
4678.38
2789.41
9158.28
7057.57
6372.44
5120.54
3844.48
2312.68
5577.61
4135.05
4734.55
2235.74
1736.94
999.882
4997.55
3611.95
1749.14
1448.81
4115.1
1841.58
1623.16
856.088
3234.65
2997
2883.77
4247.91
4502.45
4287.07
3679.31
5444.66
3270.14
2136.17
2086.78
2880.46
995.681
485.351
231.446
545.9
4323.47
1802.86
531.862
4993.16
1291.22
343.556
4374.46
1947.23
597.704
4983.49
1343.45
375.047
4081.82
1927.58
498.201
4898.35
1367.73
320.395
4635.61
2341.38
518.92
4220.97
2028.5
474.799
4176.54
1995.53
538.023
4176.66
1952.48
411.762
4884.26
1344.09
200.707
5881.76
2948.06
783.833
5334.72
2644.36
720.265
4889.38
2410.29
699.509
4674.77
1992.92
488.143
5293.14
1257.33
306.917
1769.44
635.639
127.343
-192.019
737.249
279.616
76.6265
-37.7091
1876.01
697.595
181.352
-116.783
937.499
388.957
187.667
87.2994
2016.31
776.889
274.698
0.214324
1607.13
749.251
290.451
65.1444
1227.24
691.282
243.406
-13.8654
1152.45
754.619
437.916
258.638
1673.2
742.555
225.819
-174.778
1432.34
627.449
274.351
-174.074
1975.38
766.271
248.093
-123.328
1787.32
697.004
278.233
-285.428
1344.67
691.929
275.022
-56.8361
1101.63
555.194
296.235
2.29177
996.001
610.63
361.686
221.166
761.256
469.902
313.262
183.686
2250.78
765.647
126.105
-382.092
2226.19
704.663
182.578
-520.36
2249.83
777.643
146.758
-363.789
2158.16
686.16
190.637
-504.553
2208.86
781.722
224.327
-255.919
2016.56
650.418
235.028
-410.868
1939.1
724.225
309.976
-26.9173
2212.95
729.569
331.219
-479.4
1733.46
648.659
310.844
-112.161
1762.3
496.623
163.928
-350.751
701.157
180.515
44.5248
-72.3128
1822.63
531.262
182.936
-333.863
731.532
195.608
57.1996
-58.305
1858.93
570.657
226.338
-291.75
746.486
213
73.8354
-41.2174
1678.26
539.234
260.786
-228.435
726.158
220.58
101.538
-10.6826
1539.12
537.709
283.248
-130.488
651.752
233.436
138.63
30.7842
1074.82
434.719
212.223
-39.9117
615.382
305.433
185.123
97.5222
1240.45
441.215
217.403
-95.1741
620.512
265.79
162.489
64.7753
867.492
420.854
232.175
36.1125
552.624
321.186
202.856
129.563
614.374
381.845
259.376
160.1
461.748
319.205
222.743
167.524
-17.3541
7.14624
7.26645
5.041
3.80285
-2.61033
4.85686
4.104
2.78618
2.10204
8.75473
20.7675
14.8735
9.67806
7.18112
25.62
20.3265
12.8924
8.15065
6.00264
37.2889
37.4062
24.564
15.7465
11.6591
104.471
69.0359
41.9015
26.2652
19.3047
125.373
81.4383
49.4047
31.0429
22.888
182.595
107.863
63.5207
39.5421
29.1066
65.6973
54.714
34.7306
22.0705
16.244
70.5282
51.6531
32.0509
20.3174
14.9622
45.2769
43.8909
28.382
18.1962
13.4595
83.9096
53.7168
32.1646
20.2321
14.8505
85.8084
65.312
40.9534
25.9767
19.1705
94.7899
61.8199
37.5163
23.6335
17.4107
145.104
86.8936
51.3041
31.9651
23.5204
121.299
71.75
42.296
26.3524
19.3596
-31.9593
3.59118
5.38279
3.87134
2.94469
-17.4475
1.12266
2.11115
1.54835
1.19362
-14.8109
12.1493
10.0874
6.73241
5.0475
-11.3232
4.1542
3.74848
2.52702
1.9146
6.81686
22.1119
15.4546
10.0418
7.51101
11.8693
14.2294
9.05116
5.68068
4.2258
54.8732
43.418
26.9697
17.1658
12.7589
36.6966
27.4512
16.6568
10.5106
7.81223
101.902
57.0428
33.0412
20.5405
15.0726
1669.81
3815.56
1688.85
3778.05
1848.1
3749.35
2200.66
3899.79
2294.82
4020.73
929.999
1429.59
1518.37
2407.66
499.05
703.623
180.928
237.518
8692.5
2075.84
475.677
106.234
26.3895
2369.33
637.959
169.666
38.5795
8.38523
8593.54
2035.56
465.996
103.2
25.8253
2411.51
711.277
175.29
40.7515
10.1203
8211.66
1931.56
440.522
97.4323
24.4103
2340.72
687.776
169.046
39.1037
9.74625
7528.24
1755.09
399.055
88.1838
22.0994
2274.48
654.35
158.75
36.3971
9.02302
6311.5
1463.85
333.004
73.6863
18.4893
2149.65
601.745
144.396
32.8987
8.13155
2992.23
725.688
167.908
37.4244
9.40529
1049.25
298.395
71.0382
15.9053
3.9221
4455.03
1065.28
244.583
54.2488
13.612
1543.75
433.365
104.04
23.6899
5.89458
1757.27
429.578
99.8572
22.3655
5.6315
587.707
173.842
41.1431
9.20847
2.2923
607.526
147.64
34.4023
7.73242
1.94839
236.032
63.3668
13.8959
3.89691
0.758396
99.9938
489.756
4579.07
-854.196
754.75
808.855
2359.86
3021.76
1905.19
3571.46
3001.79
4628.68
3619.15
4491.27
1880.29
2532.09
2004.69
2377.96
1042.43
1083.88
2311.09
1684.13
542.265
-416.559
-711.808
-852.732
-229.774
13036.4
3225.64
4316.67
2829.11
-104.222
26.5254
3020.15
-1319.95
-710.583
-1000.29
-519.833
7154.17
3797.84
1365.59
1104.86
3688.67
2070.49
677.65
1413.51
-1410.61
-792.273
747.998
604.902
8730.39
4315.31
5375.88
2881.37
4096.06
4529.66
1579.84
-822.28
981.191
1632.86
1332.43
1144.19
1024.3
778.176
1331.61
1070.34
835.58
587.345
252.085
476.015
395.13
299.72
190.507
66.2774
-372.012
-310.355
-231.541
-142.234
-47.8921
-635.94
-531.026
-396.864
-244.268
-82.3175
-762.915
-638.224
-477.954
-294.708
-99.4183
-199.825
-159.524
-111.597
-63.6311
-20.1823
9406.5
8101.86
6864.51
6232.34
5722.61
2836.1
2463.09
2268.18
1870.17
978.124
3293.53
2609.63
2173.89
1683.61
869.831
2163.86
1725.72
1479.94
1128.76
470.152
30.4489
57.2664
154.283
160.227
78.3909
109.09
174.847
202.011
169.959
70.8863
2553.07
2120.08
1658.49
1146.65
467.992
-795.727
-386.055
-151.05
-26.9529
6.25226
-564.758
-401.046
-242.064
-115.118
-29.797
-702.508
-434.086
-223.134
-87.0981
-18.1042
-471.366
-392.202
-286.884
-170.987
-55.7391
5279.54
4745.12
4074.94
3729.61
3440.65
2915.18
2290.82
1883.6
1416.3
684.13
1251.03
1116.47
933.159
661.508
259.329
969.727
824.911
658.018
448.027
169.34
3070.09
2468.53
1872.07
1238.12
474.717
1829.34
1546.49
1209.34
799.177
288.706
589.914
492.828
382.574
252.124
91.6658
1244.66
1038.93
793.857
508.848
178.703
-1223.34
-986.928
-712.67
-426.444
-141.138
-697.283
-569.167
-412.744
-245.991
-80.8591
666.512
571.411
455.438
306.775
112.976
541.591
466.444
372.634
250.324
91.2614
5627.46
4090.58
3495.38
3186.36
2759.64
3289.72
2551
1961.91
1390.96
622.764
3947.02
3218.3
2585.83
1992.47
964.68
2298.5
1867.21
1447.42
1009.83
437.045
3480.89
2840.03
2161.79
1414.44
522.019
3425.52
2529.04
2031.78
1507.37
632.65
1378.23
1142.87
872.246
561.858
199.157
-730.006
-602.898
-443.42
-268.047
-89.0465
862.834
733.361
583.432
394.857
146.464
-27854
-45602.7
-23096.3
-36910.5
-24740.6
-51827.7
-29611.8
-65816.7
-17642.4
-12064.8
-19846.9
-12360
-16264.6
-10445.1
-20139.9
-10595.6
-23048.5
-17370.6
-33562.1
-24183.4
-19798.7
-15784.1
-28047.6
-21076.2
-15865.6
-16214.7
-13025.3
-12523.6
-15343
-14445
-38669.4
-10665.2
-14724.4
-5495.99
-47280.5
-13106.3
-13161.4
-4893.48
-28771.2
-9057.86
-15077.9
-5772.62
-25585
-7950.64
-11911.4
-4792.88
-15168.2
-5496.52
-11306.6
-4972.93
-13183.3
-4772.35
-11718.2
-5687.82
-10531.9
-4181.4
-13495.7
-4765.5
-4732.84
-1661.8
-10083.9
-6706.8
-8703.85
-5309.77
-8885.09
-7146.35
-7630.58
-5441.27
-8857.71
-5047.14
-10374.5
-6479.88
-5962.01
-3559.5
-3205.22
-1969.58
-5141.27
-3544.45
-2670.57
-1901.02
-6061.48
-3298.76
-3343.69
-1677.33
-7812.19
-3967.96
-5059.22
-5881.93
-9916.81
-6665.98
-7127.54
-9931.82
-5294.92
-2375.38
-3027.26
-3394.95
-2854.82
-1149.13
-1362.23
-1285.54
-11716.4
-14263
-6606.26
-16140.2
-12182.8
-13610.8
-7588.11
-16503
-12313.2
-12393.5
-9043.48
-15704.8
-8413.31
-6781.77
-9225.32
-10228.1
-10205.9
-9274.78
-10730.1
-12461.8
-13410.3
-19045.4
-6381.84
-6596.71
-7186.4
-8695.67
-13579.2
-13547.5
-9451.78
-17194.2
-13230
-12558.7
-9303.2
-16941.1
-13177.6
-11116.5
-8693.33
-15812.6
-13047.1
-7602.69
-6051.9
-7862.44
-6286.21
-8787.48
-7102.41
-9614.75
-8154.3
-14408.1
-13117.7
-7140.12
-6159.81
-7194.93
-6246.05
-7924.94
-7406.41
-9524.26
-9441.83
-13294.4
-13686.3
-6564.5
-5242.67
-4829.01
-6324.32
-8196.56
-11317.6
-6198.55
-10456.1
-4437.27
-5852.49
-6341.5
-5188
-855.339
-4166.45
-253.178
-1230.34
-2983.21
-7182.6
-665.324
-2009.66
-430.388
-3730.37
-149.496
-1152.96
-4566.28
-4545.83
-5260.21
-3169.56
-7073.18
-5502.99
-8514.56
-5604.52
-1014.08
-2456.84
-2588.83
-1408.82
-1392.01
-1783.22
-2031.35
-1493.21
-5735.3
-1972.78
-7762.52
-2648.38
-5863.12
-2059.12
-7946.84
-2852.7
-5817.87
-2027.66
-8415.82
-3245.79
-3559.73
-1000.33
-4444.51
-1705.93
-5024.01
-1950.93
-6051.87
-2292.09
-8886.02
-3539.77
-4531.03
-1374.96
-4093.36
-2026.45
-4945.51
-2357.9
-6672.04
-2919.93
-9216.6
-3485.8
-6129.54
-5745.38
-4626.2
-4543.5
-10287.8
-7864.76
-8363.68
-6928.98
-4140.34
-3587.31
-1695.21
-1216.53
-3902.87
-3768.39
-1562.35
-1629.02
-2961.71
-4612.36
-3520.97
-4984.54
-3753.44
-2475.34
-3221.8
-511.535
-6789.49
-1780.15
2587.34
418.343
-925.004
-289.334
229.032
664.497
-2429.7
-1707.71
-905.31
-537.66
-2586.68
-1810.69
-1362.43
-626.884
-2891.88
-2177.58
-1812.64
-874.152
-1191.46
-93.7378
634.702
1066.28
-5076.82
-5466.69
-3920.09
-3672.7
-6859.09
-6874.28
-5692.38
-4782.43
-2558.19
-2864.78
-3833.18
-4417.37
-2368.99
-2060
-988.907
-908.83
-3653.13
-2868.98
-1843.98
-1450.33
-1326.5
-1491.36
-221.671
-574.037
-1684.16
-1186.97
-2439.92
-1765.58
-2641.81
-2146.13
-3769.58
-2898.12
-602.304
-360.199
-1188.54
-687.633
398.925
527.345
-300.909
160.481
-3534.41
-4440.3
-2994.33
-4433.31
-3497.04
-4436.82
-3063.33
-4424.94
-3692.21
-4114.19
-3235.51
-4204.54
-2849.77
-4758.53
-2423.71
-2119.72
-2296.83
-7137.74
-5042.54
-4605.58
-4758.67
-4863.37
-5730.34
-4797.96
-4045.48
-3753.95
-2939.2
-5263.56
-5272.19
-6843.69
-10580.7
-4993.3
-4747.71
-6568.65
-10086
-4603.52
-4398.34
-6063.43
-9301.43
-6946.9
-5325.46
-6238.51
-4730.46
-5421.49
-4295.81
-5499.08
-5033.9
-5626.22
-8594.14
-5627.38
-5301.14
-4744.89
-4747.31
-4236.12
-4461.95
-4333.8
-5148.8
-3934.77
-7510.33
-3883.53
-2762.21
-2665.25
-969.274
-5622.41
-4920.47
-4360.55
-3216.7
-2043.71
-719.821
-3124.28
-2478.79
-3215.52
-978.393
-451.543
109.302
-3624.78
-2373.05
-647.37
-376.915
-2638.22
-701.322
-291.233
179.57
-1845.39
-1895.75
-2004.45
-3781.34
-2866.55
-3228.33
-2865.47
-5272.64
-1989.23
-1244.01
-1103.4
-2302.05
252.807
394.986
814.597
145.725
-3770
-1097.41
-7097.89
-701.575
-3527.8
-1185.05
-6903.57
-728.544
-2713.03
-717.686
-6274.48
-560.848
-2928
-657.795
-2674.57
-621.347
-2875.76
-872.171
-2974.92
-551.919
-5900.13
-738.007
-4066.77
-798.404
-3711.34
-594.565
-3729.19
-726.754
-4093.49
-598.717
-6197.98
-741.918
-745.098
-154.27
161.859
408.465
-250.841
-39.2138
62.002
127.741
-734.428
-121.315
175.967
381.921
-171.178
31.2814
60.5892
70.2034
-751.688
-83.0779
172.12
330.802
-10.7443
229.213
359.158
392.508
531.591
458.524
529.783
541.309
980.096
690.108
527.131
380.652
-327.146
115.461
372.05
622.419
-262.702
167.683
289.917
619.554
-810.212
-68.0911
233.451
508.004
-617.105
55.0488
255.673
759.609
129.603
298.8
398.72
526.405
59.8675
266.429
293.938
444.333
571.744
471.034
388.587
303.879
401.103
368.278
297.999
278.692
-1181.75
-263.538
191.628
667.395
-1471.06
-310.477
56.2918
829.795
-1133.61
-228.149
208.827
680.012
-1414.88
-286.943
57.5501
821.003
-1054.36
-174.225
161.776
583.688
-1285.3
-242.219
23.9941
743.21
-699.31
-34.9
144.032
413.707
-1329.96
-206.319
19.9729
921.588
-650.073
20.154
169.773
583.21
-1365.14
-237.234
-5.295
581.107
-593.96
-90.6732
21.9997
146.598
-1275.35
-203.447
12.3312
583.475
-565.213
-79.5487
24.8615
144.033
-1093.42
-137.472
18.6798
565.562
-481.295
-51.8545
37.3664
150.252
-897.101
-82.7112
1.19229
505.442
-393.704
-23.6888
36.1104
143.166
-655.282
5.9828
48.3856
432.038
-202.175
40.6756
48.7609
138.806
-290.903
127.163
202.665
406.754
98.9553
196.935
171.793
199.544
-539.402
33.0155
121.465
415.849
-16.8886
125.891
109.687
169.32
10.903
228.49
248.871
367.689
214.887
253.57
215.347
212.189
311.923
314.141
255.79
262.623
333.236
295.197
226.248
194.822
90.449
25.6114
10.1549
5.45064
3.85178
38.1227
12.209
5.17424
2.83527
2.00538
105.057
36.8815
17.2877
9.98094
7.22041
59.9855
26.5053
13.8664
8.31812
6.08401
128.872
51.3797
25.9565
15.3285
11.1479
151.899
76.5843
42.4649
25.8911
19.0268
168.671
88.4758
49.6098
30.2731
22.1941
187.948
108.512
63.1114
39.025
28.6947
154.231
67.6353
35.8282
21.5093
15.7821
130.58
59.5709
32.0167
19.2481
14.1195
139.185
55.5667
28.5095
16.864
12.29
114.159
55.1759
30.484
18.4316
13.5555
165.562
77.6433
42.003
25.3507
18.5705
133.132
67.3249
37.4111
22.7472
16.7183
156.663
88.2962
51.0463
31.5057
23.1551
130.468
73.0219
42.0878
25.9388
19.0706
98.6638
22.7977
8.20326
4.24517
2.96563
45.8776
9.19197
3.11102
1.56163
1.06936
105.817
29.3335
12.4538
6.95318
4.96015
48.4795
11.5778
4.68197
2.57611
1.81396
108.58
35.2418
16.6355
9.60937
6.89264
54.1772
19.1527
9.75946
5.86051
4.23611
119.705
48.9065
25.6654
15.2374
11.0268
70.773
29.2902
15.7081
9.41218
6.80936
100.1
54.2366
30.9991
18.9781
13.955
-1817.29
-3431.89
-1867.53
-3436.83
-2031.43
-3460.41
-2228.64
-3550.17
-2155.68
-3566.14
-851.12
-1320.94
-1410.28
-2193.84
-425.009
-626.193
-107.316
-169.093
-8781.97
-2080.32
-473.985
-105.391
-26.0799
-2364.11
-638.072
-169.212
-38.3164
-8.29023
-8629.68
-2031.56
-463.066
-102.198
-25.4954
-2410.45
-711.642
-174.693
-40.4488
-10.0078
-8159.37
-1914.52
-435.789
-96.209
-24.0574
-2332.88
-685.483
-167.946
-38.7259
-9.62319
-7401.35
-1727.76
-393.01
-86.827
-21.7444
-2240.95
-646.882
-156.845
-35.9096
-8.88687
-6173.26
-1436.02
-327.175
-72.4425
-18.1796
-2087.13
-589.56
-141.824
-32.3296
-7.98805
-2945.27
-714.152
-165.246
-36.8358
-9.25853
-1006.62
-288.179
-68.7991
-15.4285
-3.80759
-4368.49
-1045.72
-240.312
-53.3327
-13.3873
-1485.98
-421.401
-101.551
-23.1623
-5.76734
-1731.18
-423.05
-98.2862
-22.0068
-5.53968
-555.665
-165.424
-39.1664
-8.77168
-2.18425
-590.109
-143.368
-33.3535
-7.48676
-1.88408
-208.783
-56.0073
-12.0885
-3.48209
-0.653904
127.346
-1119.13
-5487.72
834.916
-6481.84
-2849.79
-6276.05
-2892.37
-11457.6
-6111.17
-12843.9
-6805.75
-128.137
-498.078
-780.993
-920.246
-823.597
-319.773
-209.984
-775.985
-1178.19
-1304.14
-1052.83
-351.951
-108.359
-115.336
-397.954
-400.137
-568.256
-562.439
-546.349
-519.403
-485.55
-470.048
-370.275
-340.411
851.919
2179.34
3533.76
2509.63
2303.36
1103.96
791.901
2255.67
3655.71
4242.03
3541.96
1609.58
-115.508
-97.5922
-73.9123
-46.0368
-15.6278
-449.629
-380.581
-288.797
-180.167
-61.2142
-704.973
-596.65
-452.722
-282.426
-95.9598
-830.39
-702.521
-532.847
-332.311
-112.892
-743.101
-628.526
-476.523
-297.037
-100.873
-290.608
-247.318
-188.008
-117.057
-39.6525
-189.17
-159.711
-120.877
-75.2539
-25.5405
-700.043
-592.082
-448.973
-279.959
-95.0983
-1062.55
-898.384
-681.071
-424.638
-144.244
-1175.26
-992.885
-752.216
-468.819
-159.232
-947.991
-800.179
-605.783
-377.401
-128.168
-318.116
-269.432
-204.35
-127.305
-43.1991
-97.7501
-82.6666
-62.6683
-39.0619
-13.2645
-104.111
-88.1115
-66.8476
-41.6931
-14.1632
-359.385
-304.345
-231.056
-144.194
-48.9984
-361.422
-306.127
-232.452
-145.086
-49.3056
-513.134
-434.497
-329.829
-205.818
-69.9358
-507.847
-429.974
-326.362
-203.64
-69.1938
-493.343
-417.718
-317.048
-197.803
-67.2008
-468.726
-396.587
-300.812
-187.592
-63.72
-438.392
-371.032
-281.368
-175.352
-59.5251
-423.635
-357.85
-270.951
-168.718
-57.2594
-334.763
-283.371
-214.481
-133.206
-45.0803
-306.574
-258.588
-195.343
-121.325
-41.0991
755.807
629.86
473.997
295.898
101.037
1925.29
1600.06
1204.01
753.821
258.658
3085.32
2546.74
1918.55
1213.23
423.331
2176.11
1792.23
1354.28
861.175
301.752
2029.28
1676.41
1261.15
788.618
256.879
1003.22
846.482
646.119
405.412
129.084
703.639
586.867
441.389
275.037
93.7318
1999.27
1664.77
1252.06
781.505
267.028
3219.88
2669.67
2006.95
1257.4
432.244
3711.09
3063.5
2302.84
1448.93
501.43
3098.21
2557.27
1923.88
1211.67
417.891
1423.15
1187.15
901.138
570.432
196.553
270.752
639.859
920.571
1055.73
951.971
453.825
409.167
971.069
1361.69
1462.93
1172.73
432.611
220.115
209.439
506.811
492.526
669.347
648.254
632.318
587.215
565.728
484.833
507.296
386.143
-697.345
-1945.46
-3129.34
-1969.19
-1646.57
-387.033
-724.605
-2147.73
-3416.65
-3811.82
-2923.18
-872.056
244.865
207.738
158.017
98.7715
33.5945
578.333
490.251
372.604
232.753
79.1403
831.797
704.865
535.537
334.449
113.704
953.723
807.998
613.76
383.241
130.282
860.312
729.126
553.981
345.938
117.599
413.214
352.749
269.337
168.475
57.2539
369.936
313.729
238.56
149.083
50.7014
877.243
743.201
564.556
352.534
119.848
1229.44
1040.96
790.32
493.34
167.692
1319.98
1116.84
847.454
528.845
179.744
1057.55
894.308
678.341
423.255
143.861
391.865
332.824
253.231
158.201
53.7747
199.091
168.923
128.505
80.328
27.3215
189.432
160.72
122.257
76.4178
25.9904
458.164
388.483
295.326
184.506
62.7366
445.261
377.546
287.011
179.311
60.97
604.962
512.824
389.75
243.448
82.7683
585.842
496.549
377.329
235.666
80.1193
571.576
484.598
368.332
230.072
78.2167
530.526
449.515
341.475
213.217
72.4757
511.78
434.215
330.173
206.242
70.1047
437.929
370.94
281.674
175.81
59.7454
460.345
391.655
298.253
186.294
63.2777
349.137
295.957
224.776
140.239
47.6313
-614.771
-508.88
-380.952
-237.266
-81.0247
-1712.24
-1417.66
-1064.1
-665.949
-228.764
-2714.1
-2225.9
-1670.17
-1056.28
-369.894
-1665.56
-1337.34
-990.62
-623.966
-218.536
-1402.11
-1113.42
-806.762
-487.995
-148.999
-316.717
-228.208
-145.214
-72.6579
-9.6674
-642.537
-534.811
-401.644
-250.143
-85.2603
-1901.65
-1581.99
-1189.2
-742.358
-253.77
-3001.49
-2482.09
-1862.55
-1166.41
-401.221
-3313.19
-2716.79
-2031.72
-1275.52
-441.611
-2520.84
-2049.58
-1522.86
-952.423
-327.533
-732.365
-577.148
-417.091
-256.124
-86.6945
-1429.78
-900.646
-239.03
674.285
974.731
1238.52
580.637
-10829.8
-1696.65
-3134.1
-1498.02
263.64
-3946.98
846.852
2472.04
1174.01
-5874.07
-2668.06
-444.954
-538.705
-3326.35
-1250.9
-244.04
-1000.06
2143.24
1344.2
-495.572
-150.78
-7708.34
-3567.24
-4244.65
-2045.66
-3486.78
-3310.44
-1058.84
1361.61
-367.419
-690.152
-448.673
-385.76
-482.769
-556.274
-553.859
-351.412
-236.914
-176.354
-97.2891
-197.226
-153.883
-112.54
-71.7318
-25.5802
610.004
517.395
393.124
245.34
83.3628
878.9
742.532
562.06
349.759
118.632
1116.77
943.676
714.626
444.948
150.979
527.103
447.281
338.335
209.296
70.4656
-7694.79
-6801.7
-6046.9
-6044.18
-6252.84
-1076.67
-709.179
-820.011
-951.139
-674.066
-2183.19
-1591.68
-1363.43
-1184.45
-728.922
-953.461
-619.517
-565.904
-506.803
-227.422
245.376
201.892
134.817
63.4896
12.3084
-3277.86
-2669.43
-2042.12
-1381.78
-554.089
766.85
642.269
474.313
283.927
91.7116
2147.13
1751.9
1293.54
796.044
269.515
1053.44
882.768
661.477
407.422
136.844
-4062.33
-3731.66
-3343.39
-3379.16
-3534.35
-1817.74
-1288.55
-1081.42
-909.403
-525.078
-341.395
-278.538
-251.071
-216.515
-106.478
-429.677
-340.625
-271.536
-199.084
-84.2283
-2761.9
-2221.58
-1697.25
-1140.53
-447.99
-1046.1
-842.921
-646.256
-434.175
-162.123
-185.07
-136.421
-101.623
-71.8335
-29.6187
-860.243
-702.519
-530.577
-341.108
-121.261
1912.39
1597.75
1197.93
740.629
250.182
1211.43
1020.83
768.654
474.877
159.958
-411.516
-330.94
-255.809
-174.588
-67.016
-111.072
-82.1103
-66.3652
-52.4607
-22.9814
-4665.54
-3222.93
-2799.5
-2758.74
-2682.31
-2576.08
-1907.03
-1440.94
-1048.1
-502.176
-2806.32
-2187.68
-1742.13
-1439.14
-752.383
-1501.95
-1148.95
-868.855
-632.346
-307.648
-2913.47
-2341.58
-1771.44
-1166.8
-438.147
-2276.44
-1482.96
-1201.82
-982.036
-457.002
-896.181
-722.942
-544.875
-353.916
-128.108
1228.97
1037.86
783.608
485.497
163.925
-281.065
-214.228
-170.148
-128.287
-54.638
1.85551
43.4552
98.7692
127.742
90.0804
-18.6112
-19700.4
-17390.6
-16578.7
-18895.7
-14435.2
-11426.3
-13001.4
-9868.99
-17073.2
-14963.5
-15730.7
-14793.4
-13804.2
-11757.4
-14510.2
-16209.7
-14487.8
-13318.8
-15021.9
-12177.5
-10312.1
-10884.1
-8727.49
-15311.2
-13602.4
-14106.3
-12849.6
-12215.4
-11409.9
-11776.2
-12726.3
-11662.7
-10542
-11534.6
-10120
-8688.84
-9092.22
-7810.72
-12815.6
-11639.5
-11929.1
-10880.9
-10376.7
-9597.07
-9872.8
-8883.27
-8357.08
-7438.39
-7888.8
-7497.25
-6723.29
-6755.75
-6183.92
-9227.47
-9320.36
-8705.5
-8778.29
-7762.35
-7015.35
-7789.84
-5678.87
-5427.43
-4787.95
-4996.56
-5021.87
-4547.05
-4460.86
-4124.21
-6109.58
-6104.84
-5836.91
-5707.02
-5313.21
-4799.71
-5190.88
-2043.97
-1971.13
-1732.57
-1794.29
-1855.65
-1734.64
-1635.35
-1525.67
-2317.3
-2312.09
-2167.8
-2065.83
-1997.03
-1832.72
-1961.11
-7487.61
-7382.62
-11177.9
-12050.6
-7048.88
-6261.91
-9806.97
-7974.99
-5885.84
-4408.51
-5844.04
-4371.82
-5871.6
-5614.25
-4440.15
-7462.96
-7084.03
-9945.12
-10847
-6580.96
-5962.37
-8650.89
-7455.42
-5864.46
-3897.08
-5763.28
-4114.23
-5269.95
-5065.42
-4489.89
-6818.8
-6504.26
-8431.04
-9040.49
-6118.68
-5699.79
-7547.8
-6686.11
-4865.62
-4250.48
-4854.89
-4479.67
-4542.68
-4544.68
-4639.41
-5513.13
-5313.29
-6318.94
-6635.24
-5052.19
-4731.04
-5854.4
-5349.12
-4683.44
-3843.98
-4607.65
-4095.88
-4317.59
-4283.13
-4172.4
-3811.44
-3696.01
-4179.37
-4337.23
-3439.09
-3187.85
-3940.82
-3622.59
-3297.08
-2969.38
-3223.88
-3118.86
-3021.49
-2964.4
-2971.79
-1420.13
-1378.52
-1527.79
-1577.89
-1276.56
-1174.4
-1449.17
-1335.99
-1078.07
-1089.17
-1152.13
-1184.99
-1119.78
-1086.44
-1085.4
7238.29
23396.9
5739.08
24495.6
4318.36
25343.9
6840.92
39090.2
8407.01
53751.8
8330.87
39128.8
8015.93
32454.7
8343.12
28381.9
5055.96
3126.82
13534.8
8026.79
4961.31
2674.8
14824.9
7358.62
5495.89
3975.86
17380.8
12231.1
4161.73
2996.13
17460.1
12678.1
9813.99
4143.65
8467.1
3768.5
3886.71
9151.55
33943
9200.85
12151.8
4113.87
43739.9
11879.9
11386.2
3941.47
24236.1
7520.83
12434.6
4340.13
21067.9
6697.78
5861.88
2906.81
8595.4
3347.74
6405.33
3463.76
8547.94
3276.15
8134.84
4635.14
7359.48
3194.02
10896.8
3913.45
3749
1308.12
12321.7
8535.7
7626.66
5573.52
13787.9
11344.1
7537.48
6522.91
7220.54
4874.14
10169
6795.79
5028.82
3695.61
2556.75
2097.87
4862.13
4200.01
2518.39
2429.31
4821.79
3159.31
2471.92
1585.55
6447.71
3503.2
4830.11
5833.49
8815.77
6272.52
6989.5
9975.16
4269.87
2021.18
2850.53
3342.28
2121.08
880.317
1232.31
1239.47
7738.61
13960.1
5250.85
15586.2
9134.83
13672.7
6504.7
16333.4
10384.8
12389.9
8381.22
15958.2
12297.9
14684.1
9236.75
8892.29
9734.95
14668.6
13539.8
13285.3
13615.2
19660
11923.5
9166.92
7924.64
8876.1
13927.8
16179.7
14449.5
18746.7
17976.7
14786.2
13691.3
18507
17620.5
12804.1
12474.2
17374
16990.3
10704.2
8391.15
9947.95
8652.6
10849.1
9679.11
11649.6
11161
16007.7
16361.2
10006.5
8657.26
9535.96
9141.54
9821.88
10384.4
11045.4
12375.9
14407.7
16633.4
8265.42
6489.34
5678.19
7228.89
11183.3
13626.6
7757.38
12272.2
4807.42
6324.57
7157.7
5900.11
1375.44
4799.53
715.708
1726.22
3965.08
8253.06
1466.57
2862.87
654.833
4066.99
368.359
1426.32
4722
4797.41
5366.61
3333.74
7470.76
5974.74
8785.82
6057
1104.2
2627.9
2663.11
1514.74
1486.96
1928.52
2103.24
1588.73
11490.7
6971.65
2195.68
12986.2
7451.89
2438.46
10990.6
6883.77
2321.16
12778.3
7450.91
2433.25
10113.6
6320.4
2076
12476.7
7491.19
2501.54
5481.53
2966.63
802.234
7005.68
4609.4
1600.82
8344.49
5753.04
1982.82
9641.11
6235.42
2068.99
12362.6
7700.7
2692.18
6511.68
3659.61
1160.7
6589.77
4738.99
1786.37
7813.34
5768.63
2116.73
9762.74
6846.44
2446.55
12503.9
7793.83
2763.42
304.89
2015.64
2862.74
4115.38
2185.98
2508.66
5493.73
5206.75
585.864
1021.57
624.408
1060.34
492.746
1416.8
875.736
1857.87
3241.51
1584.04
4086.97
2360.76
2177.85
3804.25
3413.13
942.485
6089.67
1491
-1900.59
732.912
1795
1341.99
1253.04
1158.13
9848.49
4517.89
2677.42
1665.78
9981.03
4700.9
3381.52
2118.03
9857.49
5059.81
4912.83
3460.44
3526.05
2545.81
1749.51
1676
12623.7
11226.6
5949.81
6175.69
13555.3
12725.4
6692.06
6748.92
5305.02
5462.32
10874.3
9097.23
3556.29
3720.9
1994.25
2264.59
4128
4102.28
2271.93
2432.72
3112.23
3354.98
1752.72
2152.44
4745.31
3343.83
4741.84
3394.14
7381.36
4406.59
7053.14
4692.77
2867.61
2425.64
3005.81
2197.87
1611.7
1526.68
1916.11
1293.12
11701
8173.88
5923.48
6046.19
11613.7
8364.5
5953.2
6017.1
12052.9
8689.77
6038.08
5848.38
13847.2
14908.6
12668.9
8525.98
4901.69
14126.1
13122.9
12250
10188.5
6671.17
13246.5
12010.6
9644.98
7479.66
4738.21
6975.58
6238.5
6542.09
7511.49
7187.94
6125.21
6608.26
7419.64
7487.99
6080.15
6675.36
7320.31
10659
7520.15
9988.96
6962.04
7918.49
6423.62
7465.81
6427.87
6195.14
7254.55
8854.64
7683.18
7867.03
6881.76
6763.46
6159.41
6029.59
6026.2
4884.97
6903.71
7033.57
4756.92
4677.87
2788.94
9156.85
7056.62
6371.94
5120.06
3844.05
2312.29
5576.26
4134.16
4734.54
2235.61
1737.21
999.993
4997.49
3611.8
1749.28
1448.86
4115.09
1841.49
1623.47
856.222
3234.33
2996.63
2883.55
4247.51
4501.49
4286.32
3678.81
5444.01
3270.14
2136.06
2086.81
2880.31
995.998
485.495
231.74
546.021
4327.4
1807.24
534.142
4997.94
1298.81
345.466
4373.19
1947.41
597.724
4981.36
1342.07
375.082
4080.84
1927.26
498.18
4897.57
1367.15
320.274
4634.85
2340.94
518.779
4220.15
2028.08
474.67
4175.66
1995.12
537.907
4175.75
1952.07
411.641
4883.58
1343.75
200.603
5880.91
2947.58
783.666
5333.81
2643.89
720.113
4888.48
2409.85
699.371
4673.95
1992.52
488.014
5292.48
1257.11
306.85
1762.43
631.641
124.994
-192.893
729.951
275.936
74.9071
-38.431
1876.3
697.658
181.317
-116.964
937.614
388.989
187.595
87.1588
2016.21
776.857
274.658
0.098256
1607.02
749.224
290.425
65.0375
1227.35
691.342
243.454
-13.8656
1153.04
754.881
438.048
258.687
1673.21
742.583
225.841
-174.794
1432.38
627.496
274.387
-174.039
1975.21
766.236
248.089
-123.367
1787.2
696.988
278.24
-285.407
1344.89
692.044
275.091
-56.8072
1101.8
555.301
296.302
2.33701
996.444
610.847
361.803
221.222
761.536
470.063
313.361
183.747
2249.95
764.695
124.625
-383.198
2228.58
705.24
182.026
-521.994
2249.37
777.432
146.722
-363.87
2157.7
685.993
190.712
-504.425
2208.47
781.599
224.32
-255.913
2016.11
650.278
235.046
-410.77
1938.79
724.115
309.937
-26.9661
2212.55
729.459
331.212
-479.332
1733.26
648.604
310.819
-112.211
1767.59
498.574
164.344
-353.006
704.553
181.629
44.6941
-73.1694
1820.17
530.486
182.779
-333.479
730.501
195.315
57.1133
-58.1366
1858.37
570.453
226.346
-291.616
746.195
212.901
73.8273
-41.1365
1677.9
539.11
260.77
-228.369
725.981
220.515
101.524
-10.6546
1538.88
537.635
283.227
-130.458
651.641
233.394
138.612
30.7871
1074.82
434.751
212.25
-39.8798
615.401
305.454
185.134
97.5304
1240.34
441.2
217.405
-95.1483
620.461
265.772
162.478
64.7731
867.6
420.937
232.231
36.1595
552.721
321.253
202.897
129.592
614.57
381.975
259.459
160.161
461.909
319.315
222.813
167.574
-18.4156
6.47563
6.86101
4.77621
3.59777
-3.31802
4.39618
3.81171
2.58661
1.9432
8.73106