/*--------------------------------*- C++ -*----------------------------------*\
| =========                 |                                                 |
| \\      /  F ield         | OpenFOAM: The Open Source CFD Toolbox           |
|  \\    /   O peration     | Version:  2306                                  |
|   \\  /    A nd           | Website:  www.openfoam.com                      |
|    \\/     M anipulation  |                                                 |
\*---------------------------------------------------------------------------*/
FoamFile
{
    version     2.0;
    format      ascii;
    arch        "LSB;label=32;scalar=64";
    class       volScalarField;
    location    "2.1";
    object      gradTx;
}
// * * * * * * * * * * * * * * * * * * * * * * * * * * * * * * * * * * * * * //

dimensions      [0 -1 0 1 0 0 0];

internalField   nonuniform List<scalar> 
5712
(
-6642.99
-8490.73
-15779
-23038.8
-23499.3
-40566.7
-18067
-46031.3
-14718.9
-32341.4
-22010.3
-33479.1
-19754.6
-25897.9
-8686.11
-9930.42
-14809.3
-16962.9
-19148.6
-18987.6
-15070.8
-18624
-22217.3
-19934.2
-5400.13
-4055.94
-6717.37
-4514.96
-12514.1
-10001.3
-21374.4
-15473.4
-16562.9
-17210.8
-18379.6
-17520.3
-6440.34
-5047.9
-39215.6
-52498.9
-25331.1
-31100.2
-52752.5
-68447.2
-27284.3
-31235.8
-29065.8
-41060.7
-25361.3
-33617.2
-14835
-23920.1
-2844.93
-958.878
-2996.52
-1080.02
-8590.16
-3466.89
-11786.9
-4335.53
-8383.47
-3216.72
-8922.51
-2860.88
-15210
-4838.84
-19624.2
-6620.18
-24027.4
-11925.8
-21997.1
-13037.5
-22535.8
-14574
-19820.8
-14906.7
-17290.9
-10269.9
-17288.7
-8806.88
-22695.2
-14512.3
-22744.8
-14647.5
-20935.1
-15781.6
-21188
-15853.1
-18676.4
-11861.9
-19344.1
-12154.5
-17662.4
-7646.76
-8156.8
-9931.79
-17735
-8358.99
-7114.89
-10062.7
-18704.9
-7611.7
-9246.93
-10006.8
-19632.6
-7795.82
-10058.8
-10455.5
-3686.45
-4025.71
-1238.18
-2420.98
-10796.2
-11411.6
-4169.08
-7392.49
-13826.3
-15366.4
-6662.03
-11329.1
-12283.5
-1075.75
-13583.8
-16757.1
-9097.3
-735.71
-7451.42
-12213.2
-19678.3
-13657.5
-9895.89
-12014.6
-10500.7
-9061.01
-14212.6
-3542.77
-2921.46
-2023.71
-2007.53
-9988.44
-8426.95
-6013.5
-5719.81
-12473.5
-10562.7
-7854.83
-7046.03
-5853.7
-7450.77
-12086
-12524.7
-14058.5
-12792.4
-15853.5
-13801.7
-10722.4
-9023.38
-9067.02
-9552.03
-11969.8
-9456.8
-10906.7
-7949.27
-9442.9
-6518.26
-11000.7
-7214.16
-10252.5
-4798.75
-8801.88
-9543.3
-12575.3
-16407.1
-13834.5
-20142.1
-7004.04
-7783.73
-9081.74
-2916.38
-7843.94
-15120.5
-7441.44
-16210.5
-13696.9
-24863.7
-13935.7
-26386.8
-5929.88
-12990.4
-5388.61
-13843.1
-8192.36
-6199.57
-11395.1
-4519.46
-8434.58
-1688.86
-9937.48
-773.409
-7870.78
-9287.72
-11937.4
-5520.52
-6509.62
-10950.2
-10562.6
-7241.39
-2326.45
-2052.74
-1838.46
-1670.51
-1534.2
-1373.74
-6891.26
-5664.99
-4910.97
-4423.61
-3566.04
-3098.35
-8452.39
-7299.55
-6746.94
-5326.12
-4353.11
-4116.72
-6555.86
-5807.66
-5667.59
-10932
-8326.53
-7018.48
-10294.6
-7624.05
-6190.98
-10808.7
-8546.88
-7438.36
-6709.12
-4432.12
-3461.64
-15729.5
-13628.2
-11811.1
-10105.4
-8422.1
-7001.45
-8971.43
-6984.88
-5582.76
-7529.99
-5448.28
-4191.24
-7738.46
-4316.19
-2438.01
-10366.8
-14044.7
-8198.46
-10595.4
-11159.2
-16395.8
-9968.68
-14515.3
-37.3659
-727.083
508.471
-99.9377
-2958.46
-3346.84
-1222.87
-654.729
-682.195
-2393.14
-9388.81
-13711.1
-6648.73
-3650.45
-9888.41
-9815.8
-15241
-16788.2
613.024
4136.78
-7559.65
-7126.33
-7176.26
-5535.55
-1022.71
-543.502
-663.197
-266.591
-1976.82
-195.145
362.775
864.784
-9222.94
-2389.43
-6234.78
-1621.58
-9025.02
-2752.72
-10928.8
-3523.05
-8806.89
-11911.8
-8147.71
-11621.5
-14160.4
-14998.3
-13519
-14207
-5635.94
-9418.41
-6505.31
-9354.76
-8648.4
-11197.9
-9543.13
-11316.6
-14087.4
-13956.7
-14752.7
-14018.1
-5691.46
-9117.52
-6195.94
-9289.94
133.334
-1359.72
-7440.77
-4694.58
701.288
-944.282
-6893.46
-4149.82
-326.235
-1618.37
-7611.2
-5116.86
-782.99
-1892.14
-7655.81
-5302.33
698.445
805.19
-166.45
-15.5033
2940.62
2979.05
220.997
384.132
615.477
2013.07
-1686.65
-1031.01
10267.5
9570.42
5587.92
4292.45
441.139
10492.8
10810.5
4337.58
6412.82
836.6
-10236.2
-8039.63
-7163.44
-6745.19
-4130.28
820.499
762.183
35.9867
-67.7108
2594.84
2555.89
108.938
-138.925
2613.3
3171.35
-699.009
-1026.93
5137.74
2333.95
8181.07
5138.16
3664.51
2789.65
4142.94
3606.18
-454.444
-1407.15
-3764.21
-2376.78
-1029.96
1032.33
-1005.54
769.391
-1727.57
-385.046
-2143.27
-2454.09
-5226.3
-4782.88
-9946.51
-6002.57
-8114.2
-8176.58
-12320.9
-9986.35
-7867.05
-4638.51
-3927
-3906.52
-11727.2
-5179.54
-12901.3
-5809.1
-13742.8
-10191.8
-14667.2
-10925
-9544.2
-3778.65
-10693.4
-4381.02
-6247.55
-4975.18
-4868.75
-7221.88
-4049.47
-4574.25
-4164.73
-6696.69
-7208.16
-4922.47
-5500.7
-8290.67
-8756.67
-5350.93
-6880.17
-8563.02
779.54
835.138
940.123
23.6929
292.4
328.951
2841.21
3022.99
3023.92
220.005
837.959
843.153
3592.62
4017.11
4126.29
-595.148
814.189
1104.68
1254.15
1072.37
770.385
3790.89
3878.09
3619.31
3105.93
3515.27
3460.13
3844.79
4142.14
4045.83
-1357.02
362.419
493.606
-3454.14
-1965.37
-1038.77
1023.89
2155.18
2759.58
985.71
2436.17
3069.02
436.209
2010.74
2464.93
-2335.56
511.981
850.493
28.9154
40.2601
51.6562
78.0967
269.664
153.21
128.109
124.477
11.9935
79.1937
183.511
283.684
439.77
282.529
318.715
342.636
-221.491
32.1409
262.754
506.408
165.883
231.685
298.201
339.44
40.0663
139.487
143.108
140.599
-212.467
-5.52328
121.014
204.999
-944.002
-192.781
97.3605
305.364
-1478.95
-343.392
1.48158
526.46
-653.975
-78.7157
181.035
452.104
-1214.45
-260.366
-17.2748
459.687
-1007.31
-231.768
124.933
387.669
-1659.78
-409.399
-0.910709
619.568
-1126.51
-308.691
114.985
462.742
-1789.73
-469.557
-22.5325
647.905
9.5315
23.7656
45.189
98.3391
39.0517
32.5615
26.9527
89.9107
73.9316
81.2019
140.531
266.307
168.954
110.143
84.1603
243.448
-400.538
-47.1969
153.202
454.062
-178.669
31.5122
110.964
429.771
-74.9646
122.496
228.032
454.828
-15.1634
98.5995
94.4815
433.565
-1043.42
-198.135
22.697
604.37
86.1648
45.6189
33.1414
68.4943
163.521
66.5338
35.08
32.0495
176.664
108.542
72.5013
175.922
417.231
176.911
88.1655
82.2612
104.301
121.062
100.626
289.399
527.193
248.843
133.098
129.715
-92.2144
110.654
127.024
402.794
413.14
269.136
158.346
164.925
-542.836
16.1486
63.7134
385.143
119.512
232.309
145.747
168.648
-1212.34
-120.299
49.5713
444.675
-389.224
58.859
92.2034
156.561
-935.733
-33.2701
60.6338
414.124
-230.057
136.484
123.525
169.918
-1467.27
-227.458
14.495
482.84
-532.638
-17.645
60.0094
146.376
-1659.15
-333.986
-34.5653
476.433
-665.043
-100.641
17.4663
126.445
34.4674
15.1567
7.75958
4.52332
3.2473
45.3732
23.2408
12.7482
7.64409
5.53334
82.3453
35.2889
18.0197
10.5609
7.64254
102.745
52.1038
28.6338
17.2678
12.5491
109.256
44.2194
22.2972
13.057
9.47707
138.241
69.1652
38.1197
23.1295
16.877
72.4678
35.4279
19.4479
11.8259
8.63677
51.5095
20.7999
10.4373
6.16185
4.45444
109.684
45.2654
23.2899
13.8206
10.0053
52.3672
18.5334
8.97326
5.20628
3.73854
115.569
52.6094
28.3325
17.079
12.4438
49.4597
18.4364
9.20382
5.38507
3.86331
84.4688
29.5991
14.0977
8.15424
5.86469
49.6456
16.5641
7.86334
4.56164
3.28442
73.5547
19.0937
7.31089
3.85072
2.6655
40.6442
9.03328
3.15164
1.59123
1.08021
28.7609
11.443
5.63668
3.21421
2.28536
20.7693
9.06647
4.67064
2.70127
1.92753
70.2581
28.7138
14.5112
8.39926
6.02914
53.6318
23.8732
12.5164
7.30991
5.23791
98.6028
35.4296
17.1607
9.78604
7.00258
72.7972
32.888
17.4388
10.2238
7.37845
88.6839
40.4321
21.8794
13.1231
9.56812
49.4969
25.0255
13.7344
8.15909
5.94962
45.9744
22.2297
12.3184
7.47456
5.45394
-325.38
-451.754
-723.99
-1103
-735.221
-1374.47
-197.356
-1101.55
455.758
-154.956
-706.082
-1204.56
248.067
167.534
-1133.45
-1804.25
-1444.26
-2066.34
-625.363
-145.338
-32.751
-7.23593
-1.81539
-208.865
-94.073
-13.3033
-3.52281
-1.5318
-1920.75
-444.332
-100.47
-22.0874
-5.54866
-498.367
-134.233
-32.5823
-6.85111
-1.84306
-3226.62
-747.941
-169.561
-37.3968
-9.37367
-790.945
-227.319
-55.0338
-12.7427
-3.19754
-4328.33
-1006.23
-229.033
-50.6631
-12.7132
-917.778
-285.35
-71.3238
-16.7044
-4.18318
-5405.32
-1268.99
-290.824
-64.6508
-16.2899
-1009.77
-345.773
-89.0114
-21.1246
-5.35253
-6401.75
-1549.17
-359.935
-80.6868
-20.4201
-1564.76
-480.197
-118.722
-27.285
-6.83624
-5961.35
-1437.52
-332.536
-74.2377
-18.7293
-1214.59
-406.817
-103.679
-24.3055
-6.09789
-6602.56
-1600.16
-372.485
-83.6303
-21.197
-1773.64
-526.584
-128.266
-29.0675
-7.26392
-6880.72
-1653.49
-385.432
-86.4972
-21.9107
-1840.11
-548.054
-134.689
-28.3606
-7.49867
-508.368
-6949.24
-6341.42
-2265.79
1648.47
2807.6
7822.13
11432.8
1769.4
8399.37
-1630.33
2599.02
2505.92
4949.61
9346.33
13226.6
14135.6
17742.2
5772.05
7475.18
-19851.2
-14351.7
-4749.36
-3714.33
-2669.14
-3811.53
-3554.57
-12214
-11680
-9972.55
-10792.8
-8909.7
-6386.63
-8325.11
-5518.79
-4674.63
-5681.99
-3901.54
-19786.5
-10295.9
-3642.55
-6212.44
-8431.82
-5887.62
-6425.7
-4780.92
-2907.35
-4111.45
-4368.76
-4723.57
-19524.4
-12810
-12175.8
-8798.51
-8741.18
-9183.37
-3947.48
-5205.61
-6606.55
-14161.2
-12275.9
-10345.2
-9598.96
-8283.43
-9325.67
-6395.19
-4976.35
-3832.61
-1978.51
-4190.2
-3471.55
-2598.91
-1617.89
-553.11
-3315.5
-2773.76
-2085.5
-1294.99
-439.663
-2369.31
-1968.2
-1468.43
-905.73
-306.229
-3406.72
-2851.44
-2141.8
-1326.95
-449.455
-3152.9
-2619.58
-1957.67
-1210.92
-410.51
-7851.5
-6019.67
-4734.04
-4410.93
-4783.04
-6382.7
-4698.66
-3358.38
-2799.79
-1962.13
-6225.24
-3739.27
-2595.37
-1814.36
-874.754
-5543.6
-3736.22
-2489.86
-1818.87
-1076.64
-4160.23
-2597.51
-1619.48
-1125.62
-553.064
-5051.64
-3769.8
-2601.98
-1554.53
-534.846
-5663.92
-3635.95
-2377.22
-1424.71
-533.636
-3622.02
-2163.93
-1296.74
-702.675
-237.385
-3849.38
-2968.39
-2088.1
-1248.28
-421.017
-4532.87
-3381.03
-2303.54
-1341.37
-445.439
-3247.29
-2524.78
-1781.17
-1060.65
-354.367
-13092.3
-9990.62
-8092.16
-7227.23
-6909.77
-7579.12
-5491.59
-4021.73
-2734.7
-1233.38
-3029.11
-2368.05
-1694.81
-1033.12
-355.981
-5257.55
-4196.5
-3070.5
-1910.48
-670.236
-6905.29
-5417.67
-3985.87
-2565.21
-971.702
-5006.25
-4029.19
-2983.19
-1881.25
-667.471
-5557.42
-4534.3
-3376.9
-2119.47
-739.608
-4156.59
-3394.28
-2514.34
-1559.37
-534.79
-2505.11
-2016.61
-1464.72
-888.567
-298.83
-3617.19
-2978.31
-2207.59
-1357.99
-459.424
-3713.64
-2956.19
-2136.01
-1299.16
-440.907
-4087.25
-3317.29
-2440.32
-1503.74
-513.529
-13586.9
-11272.3
-9437.43
-8439.32
-7381.87
-8894.9
-6372.93
-4915.32
-3653.91
-1868.19
-8982.26
-7118.01
-5427.96
-4021.62
-1959.85
-6917.05
-5247.3
-3950.82
-2691.78
-1099.37
-7286.63
-5822.99
-4347.82
-2821.52
-1060.96
-7162.22
-5390.81
-4032.63
-2735.24
-1103.65
-3385.39
-2734.65
-2017.3
-1257.65
-437.628
-4583.87
-3783.53
-2817.07
-1742.83
-592.454
-5680.49
-4603.43
-3407.84
-2129.96
-741.099
-5592.75
-11387
-11867.6
-32498.2
-11697.6
-43499.1
-6380.85
-15479.2
-11709.9
-9038.93
-19449.7
-16213
-11678.4
-10982.1
-21820.1
-17266.7
-4116.69
-3058.49
-7964.92
-5473.51
-9225.84
-6952.21
-24746.7
-18285.4
-15204.7
-11538.6
-15627.7
-9289.8
-1195.15
-3759.17
-40486.9
-53015.4
-24478
-30951.4
-53514.1
-68755.4
-26347.4
-31009.3
-30167.3
-41626.7
-24583.9
-33557
-16307.9
-24617.2
-1966.09
-518.488
-3452.48
-1177.91
-6688.04
-2985.86
-13564.7
-4897.98
-2942.14
-1669.59
-7360.87
-2314.09
-15229.4
-4784.2
-19800.4
-6668.86
-16521.8
-8556.87
-19042.4
-11313.3
-15046.7
-10761.7
-16892.9
-13081.1
-15211.2
-8898.84
-12036
-6216.02
-21551.7
-13734.7
-22458.5
-14434.6
-19769.2
-14988.1
-20876.3
-15637
-17908.8
-11227.2
-19162
-11979
-16658
-7356.32
-7254
-9575.03
-14905.9
-7520.36
-5436.22
-9411.62
-18432.8
-7536.94
-8825.49
-9831.33
-19599.1
-7788.99
-9939.75
-10404.3
-1131.08
-1017.95
-274.292
-1209.93
-4594.97
-4753.21
-2876.53
-5709.99
-2577.06
-3212.44
-4470.56
-8451.49
-12102.6
-9684.47
-9383.03
-11722
-7736.31
-7624.15
-8170.38
-6924.21
-13573.8
-11814.3
-11551.6
-9689.7
-6742.46
-5798.5
-12729.9
-1098.53
-823.947
-613.891
-688.778
-4272.26
-3391.75
-3620.07
-3190.59
-622.875
511.483
-4279.17
-3361.38
-10160.4
-10789.3
-9501.79
-8697.21
-7093.89
-5152.49
-9290.1
-7397.04
-8336.65
-6529.99
-11575.8
-11766.9
-9912.75
-7735.84
-7343.88
-4974.39
-6486.54
-4096.45
-9705.22
-5898.98
-9311.82
-5062.09
-8306.84
-9454.84
-13068.4
-17372.9
-13785.2
-20125.5
-6373.68
-7561.75
-7730.34
-2866.22
-7659.74
-14985.6
-7396.83
-16157.8
-13624.8
-24968.7
-13908.8
-26369.5
-5689.11
-12824
-5330.39
-13791.1
-7727.82
-6067.86
-11204.3
-4527.95
-7433.51
-1783.04
-9639.74
-1214.43
-7684.15
-9185.02
-11850
-5507.36
-6459.84
-10915.8
-10538.5
-7229.59
-811.016
-753.505
-552.674
-638.309
-2586.19
-1891.58
-2345.32
-2134.2
1076.06
583.348
-2747.47
-3048.51
-10673.6
-10119.2
-7706.29
-6645.54
-4096.54
-3448.47
-5803.08
-4785.71
-5491.19
-4007.89
-18296.6
-16004.9
-7992.21
-6790.98
-6079.7
-4616.6
-5035.5
-3226.55
-5380.13
-2330.79
-5605.09
-9223
-4910.87
-9347.42
-8345.54
-10421.5
-9373.69
-12766.3
-990.472
-718.073
-769.4
-654.13
-3635.78
-2593.42
-2975.75
-1668.32
-1385.35
-1661.66
-8337.76
-8952.55
-4687.68
-4236.15
-9356.11
-9692.48
-14399.9
-16552.5
372.622
3945.66
-7365.43
-7142.57
-7076.18
-5582.4
-1069.68
-966.966
-1163.95
-959.071
-1728.03
-1167.7
-597.615
-503.492
-8131.92
-3762.69
-6912.42
-3154.98
-9309.45
-3671.88
-11051.9
-3899.01
-5387.52
-10256.9
-6993.37
-10740.2
-8682.15
-11680.3
-11407.3
-12664.1
-5228.3
-9220.58
-4729.9
-9182.59
-8178.46
-10835.3
-9404.77
-11220.7
-13199.6
-13310.9
-14499.4
-13843.3
-5599.42
-9062.66
-6182.04
-9284.44
-471.111
-2190.91
-7865.84
-5354.54
-450.526
-2268.38
-7794.35
-5127.85
-778.2
-2203.73
-7847.89
-5521.29
-969.567
-2128.05
-7726.74
-5441.67
-1070.54
-1173.12
-1003.7
-1084.35
-2080.24
-2124.95
-1420.26
-1537.78
-8374.84
-7694.56
-3891.61
-3916.21
-3726.17
-5202.91
-4028.63
-260.634
-1796.97
-1293.52
-1386.82
-3590.64
2684.36
-843.493
-13807.9
-11728.6
-10602.7
-9221.3
-5756.1
-1178.61
-1060.93
-1222.96
-1519.94
-2102.62
-1648.7
-1977.49
-2627.14
-8035.76
-7917.93
-4341.32
-5611.76
-5032.55
-6701.27
-3154.3
-5082.15
-4828.57
-5266.44
-1129.03
-1501.53
-2878.29
-4306.52
-9667.71
-7938.67
-7616.67
-5591.97
-6649.85
-4745.26
-5896.93
-4289.05
-4323.34
-4752.88
-8331.15
-8225.53
-11229.5
-7243.99
-10419
-11178.5
-13052.6
-10983.5
-9417.65
-5841.88
-6925.8
-6912.05
-12231.3
-5952.64
-13031.6
-5996.8
-13942.6
-10838.8
-14706.2
-11063.7
-10258.7
-4534.04
-10894.8
-4582.06
-7723.37
-6066.53
-6176.38
-8449.74
-6599.05
-6998.12
-6057.2
-8700.37
-7979.87
-5636.26
-6243.67
-9073.47
-8997.85
-5575.26
-7120.61
-8786.79
-853.158
-735.751
-1096.85
-807.794
-1409.01
-1679.03
-1608.6
-1183
-7730.81
-6769.23
-3747.79
-1671.94
-7869.07
-7465.38
-6119.27
-5502.47
-5103.68
-4378.72
-1835.3
-1895.08
-4103.24
-1857.02
-8637.14
-7401.53
-4881.77
-3879.49
-3785.74
-2402.17
-2785.28
-1236.42
-4268.32
-103.22
-232.269
-106.557
-36.7925
22.9792
-217.677
-135.901
-47.4684
13.8907
-627.898
-277.832
-10.2545
174.045
-565.864
-326.654
-41.9083
115.516
-1028.61
-411.903
31.327
398.647
-1013.4
-496.255
-167.609
18.045
-697.823
-334.669
-164.662
-52.8211
-536.083
-220.507
-19.4646
113.919
-1538.86
-540.342
-129.768
139.85
-1829.22
-521.353
-97.8939
505.426
-1476.52
-519.022
-85.5497
267.022
-1661
-469.159
-126.032
459.123
-1438.97
-497.876
-40.6781
290.556
-1895.7
-537.198
-80.0038
588.388
-1303.59
-421.705
43.4466
419.572
-1876
-518.343
-53.1759
636.037
-215.702
-87.4998
-13.3713
71.4539
-185.656
-66.6676
-27.9828
67.9954
-556.457
-228.704
-20.1602
185.702
-467.037
-175.678
-73.3332
176.067
-1099.51
-382.864
-9.94798
399.407
-999.356
-333.387
-85.1171
364.27
-1222.1
-452.335
-84.6888
296.732
-923.107
-315.743
-114.176
406.114
-1673.59
-468.653
-110.336
639.909
-134.199
-49.9755
-15.2281
44.5931
-62.0498
-34.9529
-15.7525
0.157972
-404.187
-144.507
-63.3227
105.912
-204.806
-104.539
-56.2365
-7.80995
-717.542
-240.466
-96.444
191.005
-416.064
-183.231
-88.0884
-6.59673
-1091.33
-346.399
-121.971
289.669
-727.41
-270.048
-117.083
-1.47302
-1437.36
-416.015
-191.927
245.575
-980.366
-326.267
-155.325
-21.6181
-1921.13
-539.105
-205.388
305.839
-970.936
-303.095
-127.734
12.3907
-1851.68
-529.012
-234.229
253.737
-1074.2
-337.718
-149.568
-9.91017
-1896.33
-494.344
-151.219
395.108
-869.968
-244.365
-79.5864
58.8479
-1799.85
-424.12
-91.1897
446.37
-770.662
-174.398
-28.4836
97.8665
-5.77551
-10.0056
-7.19833
-4.78043
-3.59729
-26.587
-19.6455
-12.4343
-7.97255
-5.94856
-11.0959
-22.8152
-16.4464
-10.864
-8.11683
-57.5827
-43.5067
-27.5455
-17.5867
-13.0841
-5.42123
-27.4247
-20.1721
-13.3387
-9.93954
-75.3142
-57.2352
-36.0005
-22.8383
-16.9299
-36.6244
-28.6952
-18.1182
-11.4719
-8.49938
-4.43803
-12.1558
-8.90433
-5.85271
-4.39998
-16.3856
-29.8729
-20.8458
-13.5615
-10.1348
5.24553
-9.97519
-7.81615
-5.21414
-3.92621
-45.0727
-41.3661
-26.52
-16.8897
-12.5276
-0.753163
-11.541
-8.38002
-5.51543
-4.15129
11.8303
-14.1696
-11.698
-7.86866
-5.92851
8.60607
-7.97867
-6.55373
-4.38575
-3.30183
40.3151
-1.02297
-4.59722
-3.58226
-2.84299
26.8898
0.649398
-1.81762
-1.5153
-1.22885
0.0986784
-7.01363
-5.36126
-3.6256
-2.74551
-5.85299
-6.94777
-4.70486
-3.10174
-2.33557
-8.03446
-19.8673
-14.1449
-9.37454
-7.03524
-20.6646
-19.7996
-12.8955
-8.39409
-6.29447
9.44803
-21.4015
-16.5005
-11.1151
-8.36596
-34.4647
-28.986
-18.4157
-11.918
-8.88012
-41.6055
-34.4901
-21.5845
-13.7419
-10.1685
-38.9406
-24.3907
-14.7236
-9.39342
-6.93607
-29.4048
-20.0087
-12.0774
-7.59258
-5.61468
-58.0121
-202.298
-99.7835
-515.287
-35.5761
-709.393
261.456
-635.145
534.704
-79.2693
-762.121
-1260.52
132.014
-43.1468
-1161.2
-1821.87
-1451.95
-2070
-598.095
-141.448
-32.0473
-7.09522
-1.78138
-158.774
-87.0172
-12.1524
-3.34329
-1.49647
-1848.26
-433.432
-98.4481
-21.6787
-5.44912
-381.174
-116.321
-29.8262
-6.43267
-1.77028
-3115.78
-730.184
-166.199
-36.7155
-9.20884
-660.073
-206.477
-51.7003
-12.2053
-3.09961
-4200.8
-983.896
-224.649
-49.7655
-12.497
-830.359
-269.655
-68.5669
-16.2193
-4.08917
-5292.51
-1246.04
-285.99
-63.6299
-16.0415
-992.491
-338.877
-87.3651
-20.7771
-5.27689
-6352.26
-1535.68
-356.653
-79.94
-20.2311
-1573.59
-480.426
-118.514
-27.2056
-6.8124
-5888.29
-1418.62
-328.161
-73.2755
-18.4919
-1232.24
-405.888
-103.012
-24.1179
-6.05159
-6573.75
-1592.17
-370.486
-83.1663
-21.0776
-1775.75
-526.488
-128.149
-29.0298
-7.25292
-6871.16
-1650.85
-384.76
-86.339
-21.8698
-1840.15
-547.928
-134.639
-28.3513
-7.49554
-521.085
-6869.21
-6074.75
-2204.89
-1570.94
-931.319
-3693.27
-2686.56
-6418.86
-6001.9
-3056.89
-2303.56
-386.284
-591.996
-1016.19
-1649.33
-2468.88
-3397.04
-278.948
-599.504
-1246.68
-2169.28
-3263.51
-4373.46
-293.699
-135.365
-504.574
-345.238
-929.345
-771.552
-1550.53
-1440.15
-2226.43
-2142.11
-2911.88
-2631.21
-4200.12
-4732.98
-5135.96
-7633.1
-8537.28
-9400.98
-5294.06
-5809.25
-5768.71
-5254.66
-4493.56
-3925.83
-348.95
-295.598
-224.494
-140.144
-47.6332
-534.423
-452.362
-343.288
-214.181
-72.7756
-916.648
-775.206
-587.802
-366.523
-124.506
-1486.12
-1255.27
-950.784
-592.446
-201.189
-2220.71
-1872.34
-1416.07
-881.629
-299.314
-3046.78
-2561.45
-1933.2
-1202.56
-408.283
-251.855
-213.245
-161.874
-101.014
-34.3234
-540.911
-457.592
-347.071
-216.456
-73.5325
-1124
-950.066
-720.068
-448.872
-152.46
-1953.57
-1649.25
-1248.72
-777.963
-264.183
-2933.82
-2472.32
-1869.32
-1163.83
-395.171
-3921.1
-3295.74
-2487.53
-1547.88
-525.696
-265.428
-224.912
-170.858
-106.687
-36.2717
-122.341
-103.671
-78.7577
-49.1787
-16.7202
-455.698
-385.877
-292.94
-182.819
-62.133
-311.843
-264.112
-200.536
-125.165
-42.5404
-838.722
-709.658
-538.335
-335.778
-114.082
-696.46
-589.43
-447.223
-278.983
-94.7887
-1397.81
-1181.27
-895.083
-557.847
-189.452
-1298.45
-1097.42
-831.561
-518.229
-175.985
-2003.66
-1690.08
-1278.48
-795.92
-270.172
-1927.82
-1625.96
-1229.64
-765.221
-259.674
-2612.21
-2196
-1656.64
-1029.78
-349.405
-2360.15
-1983.16
-1494.69
-928.023
-314.596
-3748.73
-3137.55
-2361.74
-1468.84
-499.342
-4187.67
-3479.89
-2611.44
-1627.53
-556.22
-4470.97
-3671.91
-2748.16
-1727.2
-600.353
-6436.38
-5188.86
-3891.86
-2513.45
-922.529
-6801.64
-5335.59
-4037.73
-2747.17
-1132.91
-7169.12
-5519.74
-4208.13
-2975.84
-1329.58
-4727.39
-3959.07
-2982.13
-1855.69
-630.974
-5155.8
-4296.13
-3229.21
-2012.32
-686.512
-5070.49
-4194.72
-3147.24
-1970.02
-677.713
-4541.16
-3715.62
-2786.21
-1764.6
-620.277
-3755.32
-3014.27
-2265.91
-1475.53
-548.017
-3161.7
-2486.79
-1876.26
-1260.91
-497.394
-406.48
-654.181
-1124.95
-1811.24
-2693.2
-3673.57
-307.111
-686.231
-1396.52
-2383.93
-3531.85
-4659.87
-312.997
-151.766
-564.355
-397.294
-1035.67
-868.022
-1713.55
-1594.62
-2466.27
-2412.73
-3224.98
-3042.41
-4490.83
-5006.07
-5388.69
-7790.18
-8608.04
-9422.99
-5541.52
-5961.71
-5803.27
-5190.96
-4397.47
-3881.44
-367.303
-311.259
-236.479
-147.674
-50.2012
-590.975
-500.66
-380.285
-237.44
-80.7127
-1015.69
-859.944
-652.836
-407.474
-138.492
-1633.93
-1382.14
-1048.48
-654.13
-222.29
-2426.3
-2049.6
-1553.22
-968.569
-329.12
-3301.94
-2783.24
-2106.23
-1312.99
-446.293
-277.452
-235.081
-178.579
-111.506
-37.9024
-619.758
-524.911
-398.622
-248.857
-84.5873
-1260.44
-1066.79
-809.646
-505.274
-171.722
-2149.54
-1817.45
-1378.24
-859.747
-292.16
-3179.78
-2684.46
-2033.51
-1267.94
-430.871
-4185.36
-3525.47
-2666.79
-1662.31
-565.092
-282.941
-239.843
-182.273
-113.853
-38.7146
-137.223
-116.348
-88.4417
-55.2536
-18.7912
-510.025
-432.235
-328.419
-205.109
-69.737
-359.118
-304.422
-231.361
-144.518
-49.1396
-935.495
-792.396
-601.787
-375.708
-127.715
-784.239
-664.457
-504.745
-315.171
-107.143
-1546.62
-1308.98
-993.397
-619.911
-210.68
-1439.62
-1218.73
-925.091
-577.341
-196.216
-2223.4
-1879.48
-1424.95
-888.729
-301.983
-2175.9
-1839.91
-1395.22
-870.201
-295.669
-2901.06
-2447.06
-1852.47
-1154.71
-392.382
-2738.75
-2311.44
-1750.12
-1090.66
-370.487
-4020.23
-3376.84
-2551.04
-1591.06
-541.703
-4448.28
-3715.01
-2801.72
-1752.71
-600.162
-4720.82
-3905.19
-2943.05
-1859.02
-647.664
-6615.81
-5375.78
-4063.36
-2639.63
-971.772
-6905.2
-5454.9
-4156.67
-2843.28
-1175.78
-7207.25
-5565.32
-4255.18
-3015.62
-1348.33
-4958.6
-4163
-3143.62
-1960.05
-667.165
-5302.93
-4430.52
-3339.31
-2085.47
-712.333
-5112.08
-4240.47
-3190.69
-2002.17
-689.855
-4494.27
-3686.12
-2772.45
-1761.48
-620.855
-3677.59
-2956.08
-2228.5
-1457.26
-543.856
-3125.33
-2458.83
-1857.66
-1251.49
-495.172
-19791.5
-14408.2
-5131.21
-4125.11
-3144.54
-4406.07
-4049.3
-12998.8
-14618.3
-11562.7
-13343.7
-7918.29
-11295.7
-6056.48
-6322.56
-4618.24
-20479.9
-11316
-4361.97
-7136.48
-9302.48
-6404.55
-7094.22
-5372.24
-3308.37
-4787.35
-5312.71
-5448.91
-19412.5
-13010.2
-12836.9
-9197.3
-9193.65
-9722.84
-4631.86
-5858.65
-7253.14
-14178.2
-12353.4
-10463.1
-9759.21
-8434.34
-9420.92
-6494.05
-5072.39
-3912.94
-2013.69
-4556.68
-3804.03
-2869.18
-1796.26
-615.842
-3698.25
-3110.22
-2350.9
-1465.85
-498.765
-2816.32
-2365.04
-1784.35
-1110.5
-377.318
-3958.74
-3334.8
-2521.61
-1570.68
-533.591
-3620.05
-3036.02
-2290.32
-1427.06
-485.643
-9557.67
-7992.14
-6626.7
-6003.64
-5947.59
-10921.8
-9459.86
-7686.94
-6152.98
-3644.16
-8344.94
-5878.37
-4443.06
-3106.47
-1349.36
-9943.52
-8240.46
-6478.93
-4762.32
-2299.09
-6702.54
-5382.56
-3977.39
-2488.07
-867.489
-8872.61
-6624.1
-4847.22
-3082.02
-1128.45
-5251.29
-4289.83
-3188.64
-1985.08
-681.969
-5460.82
-4447.32
-3300.37
-2054.9
-706.87
-4038.81
-3320.36
-2473.33
-1536.17
-524.704
-14463
-11623.1
-9717.18
-8631.73
-7906.32
-8814.16
-6766.24
-5158.38
-3552.63
-1560.77
-3773.55
-3083.06
-2299.77
-1442.61
-502.108
-6196.55
-5089.66
-3823.43
-2420.87
-853.608
-7852.77
-6361.7
-4811.21
-3144.86
-1190.29
-5540.81
-4545.97
-3425.78
-2185.98
-778.641
-6212.93
-5140.8
-3878.71
-2455.85
-859.604
-4736.89
-3931.52
-2958.12
-1855.46
-639.594
-2925.2
-2427.74
-1818.34
-1130.16
-385.09
-4265.75
-3566.27
-2684.48
-1671.48
-569.155
-4657.18
-3840.46
-2871.2
-1790.77
-614.8
-4803.13
-3982.79
-2991.2
-1871.38
-643.54
-13727.7
-11569.4
-9832.9
-8892.79
-7837.97
-9188.9
-6680.79
-5208.9
-3890.51
-1975.45
-9918.29
-8113.6
-6370.08
-4758.82
-2296.32
-7381.48
-5728.19
-4388.38
-3015.4
-1225.73
-7790.17
-6336.65
-4808.19
-3153.08
-1188.95
-7800.31
-6041.03
-4623.62
-3169.6
-1276.07
-4053.92
-3350.28
-2523.57
-1594.73
-557.1
-5209.87
-4350.46
-3276.61
-2044.91
-698.228
-6333.15
-5222.83
-3930.42
-2484.83
-868.544
-481.477
-1371.86
-2183.28
-2951.01
-3681.24
-4363.92
-2635.54
-7079.8
-6724.24
-2579.09
-8999.17
-7547.06
-8995.17
-9954.49
-2389.98
-1543.17
-5551.34
-3210.81
-10557.8
-7488.02
233.738
-2137.98
-5900.44
-5525.35
-2076.82
-7656.04
-6156.07
-7543.64
-8489.84
-1978.56
-910.901
-4769.36
-1676.81
-8749.21
-4488.54
1556.67
-1561.76
-4487.13
-4188.88
-1521.73
-6048.45
-3697.33
-6118.35
-6772.39
-1492.25
-829.373
-3378.33
-1744.15
-6984.43
-1787.74
1695.27
-1150.04
-3472.71
-3308.86
-1161.59
-4628.99
-2251.56
-5082.33
-5976.69
-1122.97
-871.488
-2473.5
-1763.24
-6146.18
-367.987
1274.43
-929.374
-2944.81
-2851.17
-979.617
-3719.96
-1867.23
-4558.39
-5799.56
-888.922
-949.452
-1779.44
-1694.16
-5362.61
-150.792
140.883
-820.908
-2628.4
-2618.63
-887.479
-3445.07
-2127.83
-4222.91
-5544.43
-686.622
-745.045
-1470.64
-1658.64
-5276.06
-954.105
-472.099
-1390.83
-3401.21
-4965.97
-1920.45
-5510.23
-9629.94
-7280.69
-10491.4
-1013.59
-719.247
-3895.36
-2413.6
-1178.94
-9243.85
-4840.98
-1296.2
-3176.78
-4371.19
-1671.69
-5103.89
-8723.1
-6584.39
-8953.23
-1038.67
-638.886
-4040.91
-2290.24
-359.035
-9087.14
-3657.67
-1144.07
-2813.51
-3594.61
-1348.14
-4663.46
-7835.05
-5623.44
-7907.93
-926.34
-734.565
-3473.15
-2392.8
-575.878
-7379.86
-3509.31
-994.617
-2548.31
-2997.81
-1100.62
-4370.45
-7149.21
-5027.54
-7209.57
-855.083
-744.804
-3229.72
-2497.67
-377.916
-6874.7
-3551.93
-903.014
-2301.63
-2672.65
-966.88
-3984.59
-6587.54
-4603.06
-6871.29
-804.512
-801.898
-2949.37
-2707.98
-519.875
-6622.44
-3631.22
-841.081
-2060.47
-2484.52
-892.066
-3687.08
-6512.05
-4285.79
-6655.88
-837.029
-929.044
-2635.25
-2579.64
-772.233
-6782.63
-4021.84
6040.41
7626.89
15815.1
23115.2
23530.2
40552.2
18075.5
46034.2
14731.9
32347.3
22055.2
33481.5
19769.1
25979.6
7468.31
8467.8
14821.9
16965.9
19143.7
18985.1
15072.3
18621.9
22214.6
19931.2
4980.25
3775.42
6111.98
4122.39
12515.8
9973.69
21423.8
15495.6
16539.9
17215.5
18371.7
17521.1
6439.03
5027
39221.1
52505.7
25331.7
31102.2
52759.2
68455
27284.1
31236.8
29069.9
41066.6
25360.8
33620
14840.6
23925.4
2684.38
919.923
2754.61
1004.03
8561.66
3453.44
11791.6
4336.53
8378.21
3213.58
8910.07
2856.05
15210.8
4838.85
19627
6621.11
24027.1
11924.8
21995.6
13036.3
22533.2
14571.7
19818.3
14904.8
17288.5
10268.7
17288
8805.85
22694.8
14511.4
22744.8
14646.7
20933.7
15780.2
21187.2
15851.9
18676
11861.3
19344.5
12154
17658.9
7645.57
8155.6
9931.66
17732.4
8357.84
7113.52
10062.4
18704.8
7611.74
9246.41
10007
19633.8
7796.34
10058.6
10455.7
3464.96
3742.12
1188.75
2275.32
10747.2
11369.8
4146.36
7359.3
13817.9
15357.5
6658.17
11322.7
12283.6
1076.61
13583
16753.9
9095.83
736.647
7451.7
12212.5
19674.4
13655.2
9894.55
12013.7
10499.4
9058.96
14211.9
3233.72
2639
1826.86
1836.55
10012.2
8447.92
6066.45
5752.92
12466.5
10559.9
7852.07
7045.38
5853.89
7450.69
12085.9
12524.4
14057.5
12791.6
15850.1
13799.9
10721.3
9023.26
9066.4
9551.75
11969.3
9456.58
10905.8
7948.87
9441.54
6517.69
11000.5
7214.28
10251.9
4798.67
8801.06
9543.06
12574.3
16406.5
13833.2
20141.3
7003.44
7783.68
9081.17
2916.35
7843.18
15120.3
7440.71
16210.3
13695.7
24862.9
13934.7
26386
5929.38
12990.5
5388.14
13843.2
8192.12
6199.65
11395.4
4519.67
8434.08
1688.9
9937.71
773.673
7870.71
9287.91
11937.8
5520.75
6509.52
10950.4
10563.1
7241.68
2068.15
1839.63
1673.34
1527.47
1413.08
1277.78
6918.66
5675.28
4911.25
4453.1
3579.43
3101.74
8452.51
7300.41
6747.67
5327.16
4355.45
4119.06
6555.87
5807.82
5667.79
10931.9
8326.72
7018.75
10294.3
7624.29
6191.35
10808.4
8547.51
7439.14
6709.59
4433.22
3462.87
15729.3
13628.3
11811.5
10105.3
8422.17
7001.67
8971.27
6984.99
5583.04
7529.85
5448.46
4191.58
7738.56
4316.5
2438.44
10341.3
14028.6
8170.57
10581.3
11147.2
16386.8
9954.32
14507.3
76.3333
632.778
-425.494
57.8241
2957.92
3420.19
1223.88
734.102
657.103
2367.66
9372.63
13691
6631.4
3637.47
9881.27
9812.65
15236.8
16786.4
-618.869
-4138.67
7550.34
7122.01
7170.88
5533.5
893.072
493.915
560.057
229.543
2032.16
206.389
-302.121
-848.053
9212.05
2387.89
6228.3
1621.62
9018.37
2751.14
10925.4
3521.96
8797.08
11906.8
8140
11617.5
14153.6
14994.3
13513.7
14203.9
5628.94
9414.66
6496.7
9350.28
8643.7
11195.1
9540.56
11314.7
14084.1
13954.4
14750.7
14016.4
5687.1
9114.85
6193.64
9288.15
-137.083
1359.2
7438.08
4693.54
-705.651
943.572
6890.51
4148.76
323.367
1617.65
7609.09
5115.91
781.464
1891.64
7654.36
5301.6
-662.63
-759.243
152.223
7.07826
-2915.91
-2952.77
-216.926
-373.62
-614.149
-2011.65
1686.18
1030.72
-10267.4
-9569.61
-5588.22
-4292.63
-441.271
-10491.7
-10809.3
-4337.52
-6411.62
-836.534
10234.2
8036.58
7160.42
6742.78
4129.27
-785.123
-724.789
-56.6216
40.8653
-2565.55
-2530.53
-85.973
160.034
-2611.8
-3169.03
698.745
1026.36
-5137.53
-2333.97
-8180.78
-5138.1
-3664.81
-2789.73
-4142.43
-3605.4
454.171
1406.7
3763.25
2376.42
1028.59
-1032.72
1004.33
-769.684
1726.77
384.881
2142.75
2453.63
5224.17
4781.87
9944.28
6001.42
8112.51
8175.7
12319.1
9985.29
7864.99
4637.48
3925.11
3905.59
11725.5
5178.53
12899.9
5808.27
13741.3
10190.8
14665.9
10924.1
9542.5
3777.77
10692
4380.31
6246.01
4974.27
4867.83
7220.97
4048.04
4573.41
4163.86
6695.8
7206.86
4921.64
5499.84
8289.74
8755.57
5350.23
6879.4
8562.21
-743.593
-779.089
-875.208
-47.9064
-288.799
-319.571
-2814.46
-3008
-3013.44
-194.942
-824.373
-833.763
-3589.83
-4014.57
-4124.49
594.018
-813.729
-1104.35
-1254.11
-1072.25
-770.269
-3790.83
-3877.88
-3619.11
-3105.74
-3514.91
-3459.79
-3843.78
-4140.94
-4044.79
1356.41
-362.382
-493.448
3453.92
1965.44
1038.95
-1024.03
-2155.03
-2759.34
-985.762
-2435.91
-3068.7
-436.138
-2010.36
-2464.5
2335.1
-512.005
-850.419
-24.1376
-35.6416
-46.4014
-70.1093
-251.204
-141.942
-118.556
-114.567
-11.4765
-78.8981
-183.714
-284.952
-435.146
-280.767
-317.41
-341.78
221.466
-32.1338
-262.693
-506.246