/*--------------------------------*- C++ -*----------------------------------*\
| =========                 |                                                 |
| \\      /  F ield         | OpenFOAM: The Open Source CFD Toolbox           |
|  \\    /   O peration     | Version:  2306                                  |
|   \\  /    A nd           | Website:  www.openfoam.com                      |
|    \\/     M anipulation  |                                                 |
\*---------------------------------------------------------------------------*/
FoamFile
{
    version     2.0;
    format      ascii;
    arch        "LSB;label=32;scalar=64";
    class       volScalarField;
    location    "0.2";
    object      gradTz;
}
// * * * * * * * * * * * * * * * * * * * * * * * * * * * * * * * * * * * * * //

dimensions      [0 -1 0 1 0 0 0];

internalField   nonuniform List<scalar> 
5712
(
15444
49486.9
12676.6
49773.8
9170.51
49048.1
12718.1
68043.3
15137.9
91639
15945.1
71483.8
16268
62207.5
17079.3
57442.4
10096.5
6298.99
27029.8
15935.8
9295.35
4584.81
26767.5
12634.8
12765.7
10385.8
40065.8
31488.6
9710.14
8126.66
38532.2
31229.8
22115.2
9668.64
18593.2
8434.14
9844.32
21909.2
64984.5
17165.3
23790.6
7560.44
76241.5
20223.2
20148.8
6426.74
50903.4
15615.4
25753.3
8930.55
48063.6
15015.7
18750
9303.11
24505.8
9984.02
19974.9
10777.8
23420.4
9467.06
23160.3
13890.7
19289
9035.55
27611.7
10633.1
9444.98
3544.21
22187.7
14358.2
13883.9
8902.99
18504
13418.8
10699.4
7299.1
16018.4
10680.5
23192.2
15406.6
9087.66
5822.14
4272.36
3263.57
6887.58
4743.83
3114.19
2721.41
10595.3
6749.46
5244.82
3360.14
16535.2
10148.1
13639.9
19238.1
22764.9
18305.6
19664.7
31952.3
10815.2
5791.43
7995.43
11081.7
5276.88
2505.16
3412.82
4033.07
25384.9
43016.3
17080.3
50009.8
28312.8
40430
20491.7
51270.6
29968.2
34234.1
25446.3
48548.9
21342.5
18459.8
21564.2
23456.1
28621.7
15899.9
21318
27780.7
34865.2
58951.4
13980
15144.6
17018.6
23297
42757.1
45725.9
33402.4
53972.7
41108.7
40422.4
30662.3
52517.3
39774.3
32672.3
26419.9
47875.9
37563.5
10243.6
6317.78
14770.2
10667.5
20838.1
16378.9
27720.3
22866.1
43215.2
35465
9432.05
6774.95
13081.7
11343.5
17826.1
16762.6
24870.6
23526.8
37794.5
33972.7
11081.3
6397.16
6876.57
5669.53
10112.3
8060.92
6321.93
6667.83
8316.74
6876.6
13137
8011.53
2345.47
3466.74
654.304
996.654
3002.41
4162.3
770.067
1223.95
2610.03
4085.03
715.401
1180.62
10692
7141.61
15120.2
6860.21
17281.6
10319.4
24407.5
12532.2
4205.09
3781.27
7810.96
3173.15
2918.23
2486.15
4155.21
2394
21296.1
10169.3
2809.05
24470
11132
3107.37
20021.6
9774.99
2852.94
23549.3
10829
2994.59
17172.6
8263.94
2297.31
22140.7
10273.9
2825.9
3509.32
1687.93
460.479
6861.59
3497.93
982.769
11058.9
5617.22
1578.2
15537.5
7617.09
2091
21389.9
10054.9
2778.47
4167.86
2001.9
596.295
7477.01
4158.07
1297.98
11306.5
6246.83
1889.38
15952.9
8429.08
2454.5
21599
10318.4
2928.51
767.369
1946.15
3739.89
4227.79
3862.65
3207.08
8936.22
7160.91
529.341
444.621
565.341
464.82
417.577
716.125
717.457
975.684
2503.87
1187.96
3015.13
1663.11
1207.78
2198
4020.52
419.296
9196.53
1907.6
-2232.43
-385.603
1277.09
402.843
305.151
-130.539
3322.58
900.649
853.92
323.34
3540.64
946.792
1171.88
415.533
3789.63
1034.38
1804.67
648.585
1284.45
426.949
102.934
47.9194
9396.59
6905.09
4560.56
3562.57
13665.1
10783.3
7137.16
5436.65
2779.75
2171.46
5953.23
3910.72
2617.56
2111.24
1044.08
1189.02
4355.61
3341.92
1933.26
1910.71
1446.16
1274.71
441.694
736.98
1569.96
510.935
1207.17
393.924
2612.31
716.496
1932.45
589.303
744.002
300.126
696.61
217.043
112.572
69.8322
380.898
87.3828
3443.21
1418.13
985.553
621.948
3624.58
1602.3
997.54
637.134
4239.7
2050.71
1060.57
693.855
9659.48
14055.6
6348.28
2775.45
724.777
11319.8
7679.06
5033.2
2743.77
810.343
11135.8
7282.23
4086.66
2018.77
568.055
596.329
238.659
335.208
172.678
751.12
298.599
379.936
199.074
1092.8
467.149
471.392
256.488
7118.65
3658.69
4745.84
2211.2
2540.48
1265.86
1508.06
742.97
521.366
315.68
6050.37
3803.98
3864.35
2259.04
2258.87
1293.26
1206.13
703.515
387.342
292.62
3713.43
1792.63
2261.73
1074.73
6548.77
3536.72
4129.84
2458.57
1251.73
577.684
1977.1
972.252
1868.98
741.618
456.23
189.613
2719.94
1526.87
659.208
415.891
1123.98
408.273
283.079
104.926
569.421
319.878
178.12
158.842
901.181
486.626
249.351
204.233
556.485
223.097
126.816
103.603
111.846
43.269
-81.7522
-12.8846
85.9113
23.1246
4.80407
69.7551
15.1065
2.99474
114
31.6025
6.95808
82.9214
18.6558
3.78643
176.231
50.408
11.0008
110.103
25.2
5.04085
1734.83
743.844
192.693
913.319
334.457
84.6128
517.8
171.05
41.5554
287.966
83.8859
18.0974
141.097
32.182
5.97228
2099.22
828.201
219.842
1127.99
378.439
90.2703
616.744
192.674
43.0126
325.011
94.4376
19.6623
158.802
35.0994
6.55205
169.826
28.0972
3.89819
0.440158
70.4767
12.0741
1.73784
0.217743
176
29.4959
4.2724
0.5584
83.4278
14.4411
2.67625
0.487106
184.458
30.9739
5.22105
0.878012
128.728
22.2296
2.7784
0.292618
64.1125
11.8463
0.225479
-0.245705
16.3361
4.47067
0.348926
0.0114357
123.129
22.4287
2.93187
0.143931
80.3111
14.383
2.68507
0.360583
159.541
27.8722
4.60215
0.649176
115.382
19.9474
3.71401
0.463235
77.4527
14.7442
2.00953
0.174482
48.1023
8.99109
1.79762
0.298481
27.0306
5.75568
0.862522
0.143104
16.2547
3.34435
0.743592
0.163016
188.755
31.6469
4.69643
0.560776
142.02
25.3238
4.76516
0.699417
187.66
31.416
4.65593
0.543873
140.775
24.8702
4.75196
0.686033
183.72
30.4864
5.1066
0.718448
140.166
24.1375
4.90232
0.757206
142.738
24.3788
4.71803
0.911782
153.888
26.2106
5.90768
1.0141
112.202
19.2338
3.90728
0.583425
82.1083
15.0487
3.31493
0.581056
27.3744
5.00688
1.01888
0.207417
89.8609
16.1026
3.46462
0.59031
30.353
5.43087
1.10156
0.223674
100.578
17.3047
3.6895
0.615526
34.3587
5.88998
1.17165
0.239525
98.2481
16.5353
3.74624
0.615965
36.8443
6.08811
1.26528
0.253057
91.6663
15.4429
3.51328
0.571268
33.6733
5.63931
1.26433
0.247867
54.1021
9.14641
1.78574
0.301571
23.7846
4.14426
0.817994
0.160736
72.0237
12.0032
2.5348
0.425031
28.7775
4.90128
1.04879
0.209902
33.9554
5.80083
1.10978
0.20741
15.0351
2.69277
0.495768
0.104005
12.2142
2.18011
0.472241
0.101373
5.49167
1.05631
0.2135
0.0478223
0.0624599
0.00847668
0.0011175
0.000147393
2.20292e-05
0.027948
0.00385151
0.000518312
6.98332e-05
1.06682e-05
0.0722569
0.0097449
0.00133437
0.000186628
2.98578e-05
0.0411434
0.00556253
0.000811796
0.000121346
2.05964e-05
0.0767138
0.0103145
0.00149303
0.000221815
3.75138e-05
0.0575485
0.0102957
0.00174108
0.000284701
5.14874e-05
0.0355819
0.00808267
0.00147418
0.000250341
4.64455e-05
0.0216349
0.00538675
0.00109327
0.00020063
3.95052e-05
0.054277
0.00905648
0.00145651
0.000231265
4.10859e-05
0.0386835
0.006574
0.0011169
0.000185607
3.41451e-05
0.0699783
0.0097315
0.00145278
0.000222222
3.85538e-05
0.0370332
0.00683774
0.00121218
0.000205597
3.82059e-05
0.0444985
0.0078378
0.00130643
0.000212413
3.84603e-05
0.0303721
0.00540125
0.00095859
0.000165311
3.13896e-05
0.021559
0.00429339
0.000831032
0.000151596
2.99818e-05
0.0178876
0.00340621
0.000651301
0.000119251
2.3777e-05
0.0641832
0.00802243
0.00101704
0.000130781
1.91197e-05
0.0293433
0.00335704
0.000412015
5.23269e-05
7.60209e-06
0.0686344
0.00890352
0.00117266
0.000158045
2.44178e-05
0.0309619
0.00370944
0.000475533
6.3256e-05
9.6774e-06
0.0684624
0.00862347
0.0011759
0.000167284
2.7378e-05
0.0350251
0.00450063
0.000638355
9.42109e-05
1.59012e-05
0.0652789
0.00906184
0.00138467
0.000215934
3.79888e-05
0.0422391
0.00576515
0.00088465
0.000138594
2.44633e-05
0.039261
0.00748323
0.00133612
0.000227301
4.22771e-05
3049.45
8776.74
3083.54
8577
3264.31
8166.99
3371.36
7763.05
2895.79
7313.99
330.627
2136.54
1216.89
4002.92
4.68029
965.146
-31.5633
340.536
41244.5
20420.2
14383.7
11841.1
10382.3
12074.6
6835.62
4977.13
4024.97
3421.63
40678.6
20105.4
14183
11675.9
10249
12197.7
7119
5054.81
4099.66
3551.76
38790
19181.5
13535
11141.8
9777.31
11721.3
6844.42
4866.26
3950.49
3425.06
35777.1
17690
12485.5
10273.8
9009.03
11129.8
6458.09
4568.99
3690.44
3181.36
30750.7
15188.7
10725.4
8826.43
7738.74
10288.9
5922.78
4180.42
3370.96
2900.09
16009.2
8151.12
5765.96
4733.52
4139.83
5095.23
2966.76
2098.72
1692.9
1456.58
22851.4
11516.8
8137.57
6684.68
5853.51
7423
4323.48
3074.57
2490.85
2150.79
9658.01
4952.26
3507.86
2881.06
2518.88
2932.23
1735.36
1228.27
990.221
855.847
3345.06
1710.32
1213.33
998.089
873.519
1084.4
579.474
401.318
323.203
274.056
-811.987
407.609
7999.82
-363.601
1003.64
1070.05
2617.01
3470.12
2544.27
4758.17
4777.79
7220.84
6466.07
7920.07
3247.13
4236.37
2896.54
3445.14
1547.43
1605.15
760.966
279.169
25.9207
1.58541
2.44001
2.32058
10.181
5828.4
1693.24
1417.37
1022.51
228.7
100.779
597.356
90.3932
61.7138
61.111
16.7635
3109.2
1070.95
277.172
156.432
451.898
198.755
63.2767
80.8543
9.41416
17.5234
92.8269
67.278
3285.49
856.33
1573.58
489.254
402.224
1228.36
109.263
12.9158
129.263
363.296
187.407
101.018
51.0481
19.8275
157.422
87.3512
44.6982
20.5564
6.39895
18.7344
12.0289
6.75523
3.23654
0.94242
1.26206
0.890118
0.542593
0.276518
0.082604
1.81194
1.19424
0.685576
0.333519
0.0974084
1.71572
1.1274
0.646494
0.314691
0.0921553
7.50031
4.923
2.82397
1.37575
0.403938
2923.68
1603.39
828.164
393.666
168.702
941.654
500.583
264.184
122.601
42.0309
796.509
443.151
231.06
106.005
34.959
536.345
263.933
131.375
59.432
18.1868
120.804
57.6509
28.2942
12.6475
3.74707
70.772
44.2952
24.3625
11.5035
3.36345
373.924
215.181
110.447
49.8168
14.8916
63.2225
38.6339
20.5263
9.47105
2.77176
42.5305
26.2266
14.2708
6.69663
1.9485
43.4692
27.3124
15.037
7.10862
2.07851
11.0135
6.48651
3.39392
1.54808
0.443506
1606.32
907.31
481.047
230.033
96.1713
617.321
348.768
185.559
85.9867
27.894
188.642
115.842
62.9615
29.5223
8.71194
106.491
65.3464
35.4826
16.6226
4.87915
292.552
173.224
91.5414
42.1125
12.5356
139.459
87.4183
48.1849
22.7709
6.61323
43.4746
26.8435
14.6506
6.89249
2.01344
57.3772
36.2463
20.0818
9.5245
2.76701
6.70911
4.2841
2.41028
1.16135
0.342817
12.6501
8.11324
4.55299
2.18022
0.634914
64.6222
40.1572
21.955
10.3197
3.00212
47.573
29.9917
16.5994
7.87101
2.29082
1597.14
800.864
427.873
204.313
84.2271
489.282
271.737
139.789
64.0682
20.116
855.923
486.516
252.837
115.988
37.625
289.83
165.903
85.953
39.637
12.2168
265.453
159.273
85.2174
39.6117
11.6496
731.279
409.533
216.29
99.3262
30.3335
76.5937
47.8967
26.3301
12.4232
3.60913
9.33515
5.99515
3.3683
1.61434
0.469954
89.8528
55.9175
30.6585
14.4449
4.20794
-57424.1
-91668.1
-47760.3
-74095.2
-47070
-94287.9
-56317.6
-119693
-36272.5
-24316
-40568.9
-25322.3
-31014.7
-18839.4
-38158.6
-20101
-51707.4
-42297.8
-73975.6
-57642
-44253.5
-38332.7
-61408.2
-49812.1
-35219.8
-36246.9
-28509.4
-27652.4
-36029.7
-33464
-75412.6
-20550.5
-29745.1
-11033.2
-84938.8
-23580.4
-24984.1
-9554.59
-60802.7
-19016.9
-31692.4
-12256.9
-57845.4
-17739.6
-30745
-12994.3
-38292.8
-14396.1
-29197.4
-13683.9
-33262.7
-12591
-29442.5
-15920.8
-25941.2
-11096.9
-33170.8
-12437.2
-11559.6
-4295.56
-19441.7
-13042.1
-17346.7
-10196.3
-14610.2
-10734.3
-13350.6
-8250.94
-19841.9
-12015.8
-23193.7
-15660.7
-12046.4
-7019
-6543.31
-4291.69
-9296.45
-5744.47
-5047.23
-3626.6
-13655.3
-7881.43
-7516.22
-4305.34
-19547
-11242.4
-14704.7
-19736.1
-24965
-19374.8
-20668.8
-32618.6
-13164
-6613.47
-8834.09
-11430.1
-7001.01
-3127.52
-4093.08
-4302.92
-31669.3
-40502.1
-19311.2
-50694.3
-32456.4
-37764
-22317.1
-51684.3
-31752.3
-32552.9
-26719.8
-48785.6
-15384.5
-10922.8
-19868.1
-25550.6
-30056.3
-13689.3
-19190.9
-26718.8
-34862.6
-59565.4
-9734.87
-12658.6
-16636.2
-24054.9
-43472.2
-38093.8
-24131.6
-52080.5
-35545.9
-34336.3
-22953.1
-51039.5
-35200.3
-28626.1
-20680.6
-46972.3
-34358.4
-10384.8
-7109.58
-14314.4
-10365.4
-19200.7
-14529.1
-25299
-19952
-42725.1
-33802.8
-8527.1
-6728.41
-11998.9
-10553
-16795.5
-15428.6
-24215.5
-22092.6
-37930.3
-32919.7
-10041.5
-6124.43
-6958.39
-5730.14
-8503.32
-7473.45
-6109.34
-6425.5
-8639.98
-7129.75
-12847.4
-8043.15
-2754.88
-3668.52
-1110.84
-1223.26
-3274.55
-4199.25
-1146.35
-1362.59
-3056.09
-4351.01
-1166.32
-1419.54
-11077.9
-7432.23
-15428.6
-7079
-17492.9
-10542.2
-24775
-12735.7
-4576.16
-4019.54
-8043.32
-3329.67
-3269.23
-2686.08
-4350.94
-2515.67
-13711.6
-4541.68
-19591.3
-6398.95
-13658.1
-4658.7
-19702.5
-6708.1
-12765.3
-4251.71
-19806.1
-6992.29
-3982.33
-1259.84
-6400.1
-2180.11
-9284.13
-3266.3
-13200.1
-4535.48
-20313.4
-7314.73
-4233.41
-1424.8
-6877.13
-2712.93
-10215.4
-3963.97
-14788.2
-5536.1
-20780.2
-7252.55
-9809.69
-8268
-8248.84
-7447.69
-18343.3
-12842.3
-15975.9
-12261.2
-5532.91
-3275.84
-2451.19
-1301.49
-5351.2
-3647.47
-2477.02
-1813.75
-4501.56
-5860.92
-5012.12
-5957.51
-4180.96
-3330.36
-6234.26
-2287.95
-12534.4
-4443.81
716.121
-1160.83
-2759.98
-1772.53
-1145.51
-933.073
-1617.5
-533.772
-678.017
-209.175
-1792.33
-586.609
-1014.26
-294.27
-2218.62
-700.185
-1831.35
-545.842
-1563.56
-427.974
-600.571
-126.046
-6176.78
-4992.51
-5368.88
-3673.16
-9842.84
-8010.58
-8814.19
-5911.84
-3044.95
-2113.37
-3752.35
-2875.24
-3717.36
-2485.99
-2093.87
-1609.76
-6084.68
-4020.64
-3431.68
-2582.5
-2064.27
-1432.15
-1103.7
-952.562
-1449.25
-436.078
-1120.89
-354.218
-1771.56
-529.159
-1509.92
-482.704
-934.122
-304.806
-743.679
-216.215
-403.536
-112.527
-472.466
-102.847
-1874.44
-1686.9
-672.034
-626.623
-1981.53
-1828.65
-679.48
-625.989
-2291.57
-1985.04
-718.437
-623.628
-4290.29
-7203.59
-2820.17
-1503.95
-470.243
-9271.05
-5728.28
-3775.33
-2115.48
-679.349
-7006.9
-4546.2
-2677.34
-1460.79
-439.672
-1302.45
-836.593
-514.854
-420.776
-1422.87
-919.217
-530.03
-435.345
-1642.46
-1124.36
-546.712
-459.048
-7456.94
-4802.28
-5163.54
-3215.87
-3187.18
-1999.06
-1744.82
-1117.77
-526.855
-423.341
-5387
-4077.53
-3407.27
-2515.72
-1991.98
-1435.26
-1073.36
-766.765
-316.359
-305.481
-2803.54
-1535.7
-2026.54
-924.638
-5103.24
-3142.1
-3818.66
-2234.55
-1106.19
-486.902
-1514.59
-827.148
-1914.42
-720.815
-613.183
-227.266
-2850.02
-1516.72
-922.835
-490.495
-1130.13
-390.101
-361.736
-121.209
-500.223
-275.929
-155.908
-142.344
-716.133
-419.27
-198.328
-179.354
-549.86
-211.534
-122.292
-98.4915
-140.372
-47.9452
75.7024
11.7338
-452.755
-143.224
-234.323
-44.5351
-521.372
-172.68
-248.62
-49.5238
-626.09
-201.891
-252.728
-47.4448
-2525.78
-769.148
-1689.46
-517.89
-1134.45
-365.126
-604.02
-184.111
-229.646
-47.4462
-2449.47
-701.695
-1438.12
-373.127
-813.021
-205.526
-422.226
-100.157
-200.715
-39.4399
-119.404
-21.8504
-3.08181
-0.31944
-49.3211
-9.10406
-1.36805
-0.172857
-126.614
-23.0892
-3.39926
-0.430068
-58.5765
-10.4993
-2.16872
-0.432897
-139.521
-24.8584
-4.3463
-0.756136
-100.179
-16.6153
-1.75552
-0.108919
-51.2903
-7.77161
0.736803
0.443333
-13.3008
-1.24894
0.548698
0.174299
-103.921
-18.6164
-2.15376
0.0229321
-69.3967
-11.9882
-2.16673
-0.243302
-129.475
-23.2627
-3.83655
-0.514541
-94.3387
-16.268
-3.01295
-0.30383
-69.9126
-12.2242
-1.38912
-0.0388928
-44.2484
-7.64429
-1.42507
-0.203224
-26.0598
-4.03597
-0.316501
-0.0152618
-15.7616
-2.53219
-0.449196
-0.0791958
-147.093
-26.5946
-3.89819
-0.41207
-137.546
-24.242
-4.65085
-0.620689
-145.428
-26.1193
-3.78973
-0.379489
-134.105
-23.4692
-4.57466
-0.593557
-141.517
-25.038
-4.29472
-0.583412
-127.528
-22.0429
-4.67138
-0.661618
-104.573
-18.7132
-3.81559
-0.770187
-134.054
-23.0511
-5.4918
-0.886665
-88.4947
-15.1968
-3.14289
-0.391557
-98.1323
-16.0913
-3.53128
-0.573713
-36.9502
-5.68763
-1.05548
-0.209332
-98.5399
-16.036
-3.50443
-0.556738
-37.5136
-5.72952
-1.08085
-0.216358
-95.3639
-15.3602
-3.5038
-0.555231
-36.0757
-5.42455
-1.03076
-0.211114
-85.0203
-13.8502
-3.48548
-0.5475
-32.9113
-4.99761
-1.05392
-0.210067
-73.7097
-12.1451
-3.09717
-0.489567
-25.5599
-3.94511
-0.978956
-0.191224
-47.5827
-7.71498
-1.47966
-0.222965
-17.5441
-2.69472
-0.530251
-0.0987017
-61.0146
-9.9376
-2.17948
-0.341807
-19.8867
-3.03794
-0.712521
-0.141521
-31.0404
-4.911
-0.871935
-0.14102
-12.1717
-1.85444
-0.29747
-0.0568489
-11.4114
-1.63017
-0.290096
-0.0462296
-4.55643
-0.589752
-0.0778635
-0.0120442
-0.0460269
-0.00601301
-0.000740022
-8.8621e-05
-1.16071e-05
-0.0207544
-0.00267305
-0.000328912
-3.95539e-05
-5.21272e-06
-0.0514024
-0.00620379
-0.000740314
-8.84027e-05
-1.17192e-05
-0.0277353
-0.00299671
-0.00035535
-4.33898e-05
-5.91053e-06
-0.0507804
-0.00556728
-0.000656213
-7.87941e-05
-1.04741e-05
-0.0213477
-0.00322597
-0.000439919
-5.64597e-05
-7.6015e-06
-0.000479012
-0.000935525
-0.000111152
-4.85402e-06
1.75466e-06
0.0177034
0.00291591
0.000526487
9.59633e-05
1.95116e-05
-0.0257924
-0.0035158
-0.000428587
-4.92993e-05
-5.78138e-06
-0.0144156
-0.00175365
-0.000215662
-2.51367e-05
-2.84142e-06
-0.042813
-0.00469535
-0.000550543
-6.61825e-05
-8.79292e-06
-0.00675954
-0.00128633
-0.000218928
-3.36634e-05
-5.37575e-06
-0.0172116
-0.00218631
-0.000217002
-1.45126e-05
6.88619e-07
-0.00780923
-0.000566964
-1.19785e-05
8.25922e-06
3.18579e-06
0.00722825
0.00197197
0.000414088
7.92199e-05
1.63792e-05
0.00318402
0.00137546
0.000321585
6.37329e-05
1.33567e-05
-0.0472336
-0.00578725
-0.000696649
-8.26552e-05
-1.07661e-05
-0.0217349
-0.00242704
-0.000283359
-3.33278e-05
-4.33566e-06
-0.0486525
-0.00596792
-0.000713172
-8.4817e-05
-1.1199e-05
-0.0221819
-0.00251023
-0.000294345
-3.48976e-05
-4.61511e-06
-0.0474692
-0.00517079
-0.000597281
-7.11038e-05
-9.5164e-06
-0.0219806
-0.00236486
-0.000282004
-3.52898e-05
-5.02528e-06
-0.035069
-0.00382027
-0.000478257
-6.25718e-05
-9.2111e-06
-0.0222519
-0.00234811
-0.000299581
-4.03894e-05
-6.16135e-06
-0.00376285
-0.00122129
-0.000241637
-4.09527e-05
-7.17526e-06
-3391.91
-8415.49
-3482.78
-8349.17
-3743.14
-8153.56
-3792
-7885.02
-3178.65
-7420.88
-495.462
-2269.7
-1431.02
-4154.41
-123.698
-1057.96
-60.6923
-408.533
-41811.5
-20509.8
-14396.6
-11842.8
-10382.6
-12182.4
-6859.71
-4982.06
-4025.79
-3421.84
-41196.6
-20186.6
-14194.6
-11677.6
-10249.4
-12316.7
-7148.08
-5059.82
-4100.48
-3551.97
-39204.7
-19246.5
-13544.1
-11143.2
-9777.92
-11842.5
-6871.69
-4870.79
-3951.34
-3425.47
-36066.4
-17735.6
-12491.9
-10274.9
-9009.66
-11239.6
-6481.08
-4572.63
-3691.07
-3181.68
-30919.8
-15215.3
-10729
-8827.05
-7739.13
-10372.5
-5939.68
-4182.98
-3371.44
-2900.39
-16051.2
-8157.36
-5766.89
-4733.8
-4140.06
-5132.21
-2973.22
-2099.69
-1693.16
-1456.8
-22935.4
-11529.8
-8139.32
-6685
-5853.78
-7475.62
-4333.55
-3076.02
-2491.1
-2151.01
-9679.57
-4955.46
-3508.48
-2881.37
-2519.13
-2956.45
-1739.36
-1228.86
-990.394
-855.973
-3357.29
-1711.78
-1213.43
-998.056
-873.481
-1101.44
-582.219
-401.737
-323.388
-274.18
-1584.32
-3632.34
-11737.5
-1882.33
-10797.3
-5012.51
-10202.6
-5149.1
-20999.3
-11532.9
-23722
-12766
-0.0195899
-0.070974
-0.152465
-0.225068
0.0731796
2.65452
-0.06512
-0.250149
-0.601752
-1.15013
-1.41655
0.840347
-0.00800687
-0.00491596
-0.0283709
-0.0204805
-0.0473514
-0.0491628
0.0416602
-0.047644
0.456137
0.0210643
2.09081
0.620133
15.4995
55.212
158.096
124.48
73.5816
9.19134
11.8022
43.0628
103.851
159.052
138.945
53.1214
-0.0153962
-0.0108361
-0.00664959
-0.0034227
-0.00103474
-0.0555596
-0.0389155
-0.0237601
-0.0121772
-0.00367207
-0.118518
-0.0823136
-0.0498133
-0.025336
-0.00760568
-0.173316
-0.119087
-0.0712964
-0.035939
-0.0107325
0.0558755
0.0376387
0.0219132
0.0107427
0.00314853
1.99004
1.3246
0.767673
0.376553
0.110708
-0.0508208
-0.035456
-0.0215515
-0.0110002
-0.00330851
-0.194308
-0.134798
-0.0814561
-0.0413703
-0.0124068
-0.463806
-0.31877
-0.190768
-0.0960896
-0.0286773
-0.878051
-0.596756
-0.353088
-0.176161
-0.0522862
-1.06917
-0.717383
-0.419167
-0.207002
-0.0610947
0.628683
0.417039
0.24075
0.117688
0.0345316
-0.0063267
-0.00448488
-0.00277427
-0.00143825
-0.000436627
-0.00390628
-0.00278914
-0.00173919
-0.000908149
-0.000276912
-0.0223254
-0.0157462
-0.00968826
-0.00499951
-0.00151359
-0.0161998
-0.0114996
-0.00712486
-0.00369927
-0.00112411
-0.03707
-0.0259872
-0.0158881
-0.00815425
-0.0024604
-0.0386539
-0.0272281
-0.0167263
-0.00861822
-0.00260663
0.0314558
0.0210196
0.0121784
0.00595291
0.00174532
-0.0376239
-0.0266252
-0.0164222
-0.00848581
-0.00257005
0.345904
0.233165
0.13676
0.0677147
0.0200093
0.0139799
0.00783705
0.00364461
0.00140619
0.000348345
1.56855
1.04534
0.606684
0.29793
0.0876502
0.463464
0.30746
0.1776
0.0868609
0.0254952
11.3862
7.42525
4.22567
2.04442
0.597274
39.5125
25.1447
14.0203
6.6854
1.94401
108.856
67.1218
36.5481
17.1668
4.99312
82.2193
49.0286
26.354
12.3997
3.60661
59.8447
37.9287
20.6868
9.75953
2.48336
14.6269
10.3579
5.9053
2.85205
0.60116
8.67243
5.65247
3.21404
1.55382
0.453677
31.0713
19.8976
11.1468
5.33202
1.5504
73.3352
46.0676
25.4239
12.0426
3.49332
110.027
67.9276
37.0549
17.442
5.05775
97.5596
60.4821
32.9764
15.5015
4.4471
37.9809
23.6993
12.9654
6.11083
1.74247
0.0193828
0.0706306
0.151988
0.225391
-0.0663248
-2.61064
0.064395
0.248631
0.598339
1.14359
1.40918
-0.828814
0.00794723
0.0049065
0.0283323
0.0205728
0.0477411
0.0499996
-0.0379989
0.0513083
-0.437258
-0.0386093
-1.99482
-0.587795
-15.3139
-54.6498
-156.575
-125.481
-79.8443
-17.7911
-11.71
-42.773
-103.327
-159.135
-141.054
-56.6515
0.015248
0.0107473
0.00660773
0.00340802
0.00103173
0.0553284
0.0387922
0.0237155
0.0121706
0.00367343
0.11826
0.0822472
0.0498596
0.0254043
0.00763528
0.173904
0.119813
0.0719687
0.0363968
0.010893
-0.0496609
-0.0325523
-0.0183063
-0.00865776
-0.00247246
-1.95452
-1.299
-0.751662
-0.368194
-0.108139
0.050298
0.0351369
0.0213952
0.0109409
0.00329497
0.193234
0.134164
0.0811621
0.0412689
0.0123863
0.461452
0.317437
0.190196
0.0959224
0.0286522
0.873678
0.594412
0.352192
0.175974
0.0522839
1.06469
0.715434
0.418837
0.207257
0.0612551
-0.618779
-0.409397
-0.235629
-0.114861
-0.0336378
0.00628617
0.00446297
0.00276622
0.00143704
0.000436873
0.00390266
0.00279059
0.00174333
0.000912034
0.000278449
0.0223144
0.0157581
0.00971085
0.00501914
0.00152114
0.0162876
0.0115768
0.0071843
0.00373615
0.00113653
0.0374338
0.0262992
0.0161215
0.00829556
0.00250735
0.0393656
0.0277824
0.017107
0.00883482
0.00267625
-0.0284857
-0.0188439
-0.0107825
-0.00520499
-0.00151336
0.0406155
0.0288377
0.0178594
0.0092654
0.00281377
-0.33086
-0.222417
-0.130061
-0.0642202
-0.0189422
-0.0269298
-0.0162268
-0.00831169
-0.00358928
-0.000966579
-1.49297
-0.99233
-0.57434
-0.281382
-0.0826438
-0.43749
-0.288811
-0.165942
-0.0807749
-0.0236345
-11.2467
-7.33275
-4.17299
-2.01936
-0.590095
-39.1043
-24.8844
-13.8787
-6.62133
-1.92637
-107.723
-66.3663
-36.1141
-16.96
-4.93417
-82.3347
-48.6701
-25.8884
-12.0637
-3.48422
-63.6208
-39.8402
-21.4175
-9.93525
-2.49927
-20.2897
-13.5804
-7.41301
-3.40633
-0.72839
-8.60329
-5.60717
-3.18873
-1.54205
-0.450348
-30.8578
-19.7596
-11.0709
-5.29742
-1.54083
-72.931
-45.7884
-25.2583
-11.9615
-3.46954
-109.976
-67.8023
-36.9269
-17.3552
-5.0269
-98.9152
-61.2108
-33.2853
-15.5967
-4.46314
-40.3784
-25.1038
-13.6406
-6.36901
-1.80501
-811.891
-299.465
-25.3552
-1.37175
-1.77146
-1.41279
-9.34457
-5551.32
-1545.16
-1322.24
-701.926
-76.7005
-565.671
-37.0096
35.1764
-7.46262
-2975.59
-1016.06
-251.513
-147.485
-441.489
-190.909
-61.7663
-78.1175
0.780706
-13.0768
-82.9998
-61.9967
-3258.1
-858.264
-1553.54
-486.216
-395.291
-1190.75
-106.587
-10.6347
-123.474
-392.605
-202.024
-107.179
-52.8952
-20.2282
-170.244
-94.4022
-47.8505
-21.6338
-6.62685
-18.3113
-11.748
-6.59412
-3.15903
-0.920099
-1.07774
-0.747307
-0.447107
-0.22415
-0.0662275
-1.29255
-0.834576
-0.468937
-0.223928
-0.0646084
-1.01934
-0.650746
-0.362069
-0.171706
-0.0495125
-6.81934
-4.42723
-2.51215
-1.21336
-0.354772
-2866.41
-1601.02
-840.79
-405.865
-177.004
-866.394
-459.273
-245.288
-115.694
-40.1304
-751.78
-421.856
-222.437
-103.235
-34.6283
-391.421
-203.223
-107.248
-50.0387
-15.4247
-52.9997
-32.8571
-18.0124
-8.52
-2.51255
-362.132
-214.273
-112.741
-51.7637
-15.6103
-24.8721
-15.1202
-8.18095
-3.83395
-1.12313
23.7657
14.2646
7.51296
3.40555
0.950355
-4.59596
-2.54439
-1.26421
-0.555077
-0.159084
-1507.41
-847.278
-449.827
-217.268
-93.1388
-579.524
-324.253
-172.012
-79.9341
-26.2979
-170.295
-104.249
-56.6513
-26.646
-7.92172
-100.288
-61.5314
-33.455
-15.7143
-4.63241
-288.349
-172.526
-92.1976
-42.8289
-12.8264
-132.539
-82.1707
-44.8615
-21.0692
-6.10539
-42.2883
-26.0015
-14.1334
-6.6295
-1.93532
-55.3843
-34.9692
-19.3796
-9.20126
-2.67695
0.842956
0.677843
0.430105
0.216867
0.0596332
-9.33267
-5.91723
-3.28808
-1.56366
-0.454381
-57.7119
-35.9122
-19.7075
-9.30782
-2.72175
-43.7537
-27.556
-15.256
-7.24446
-2.11358
-1575.8
-787.048
-419.228
-200.156
-83.076
-489.726
-271.296
-139.09
-63.5378
-19.9172
-829.156
-464.452
-238.297
-108.461
-34.9904
-285.726
-162.004
-83.1126
-38.046
-11.7051
-260.013
-155.485
-82.9809
-38.5323
-11.3417
-704.592
-392.087
-206.532
-94.8845
-29.1507
-74.691
-46.7042
-25.6894
-12.1355
-3.53078
-7.60198
-4.8243
-2.6805
-1.27377
-0.369444
-85.4294
-52.9146
-28.9054
-13.5945
-3.96279
-2.44004
-8.40682
-18.7133
-36.5455
-64.9342
-107.677
-41170.9
-36123
-31505.9
-36387.7
-29226.1
-22076.7
-23794.3
-16718.4
-39397.7
-37068.2
-35961.4
-35976.2
-31085.5
-25628.3
-34043.3
-33926.3
-29997.9
-25007
-28701.3
-24446.2
-19535.2
-19522.8
-14378.6
-35295.1
-34139.7
-32134.3
-31605.2
-27099.5
-23967.2
-28088.1
-26128.7
-23538.6
-18884.5
-21196.8
-19624.9
-15910.3
-15338.8
-11837
-28898.6
-29485.5
-26406.6
-26937.4
-22188.8
-19434
-23357.1
-17237.3
-15829.4
-12059.5
-13227.7
-13498.9
-11286
-10183.8
-8207.23
-20387.4
-22205.3
-18752.1
-20403.3
-16037.3
-13788.1
-17361
-10215.9
-9491.44
-6954.02
-7530.3
-8220.25
-6913.15
-6004.16
-4932.84
-12622.8
-13794.9
-11666.5
-12676.6
-10110.6
-8638.42
-10833.5
-3472.41
-3247.38
-2331.24
-2506.86
-2847.66
-2450.64
-2041.42
-1712.2
-4391.08
-4946.16
-4053.9
-4409.77
-3567.76
-3072.89
-3835.92
-11557.3
-10910.2
-19420.3
-21501.5
-9834.52
-8058.89
-16123.1
-11872.4
-6711.24
-3705.41
-6615.02
-3904.3
-6284.15
-5963.93
-4254.12
-10902.2
-9966.06
-16707.2
-18744.2
-8710.32
-7254.13
-13677.2
-10503.1
-6456.88
-2914.91
-6244.83
-3135.5
-5403.41
-5181.51
-3538.19
-8990.12
-8204.02
-13105.2
-14560.7
-7154.12
-5981.15
-10895
-8500.47
-4854.25
-2349.78
-4697.65
-2573.47
-4021.53
-3934.42
-2830.35
-6063.96
-5552.27
-8508.56
-9326.51
-4850.37
-4051.91
-7234.7
-5785.29
-3513.05
-1625.4
-3358.96
-1761.12
-2874.6
-2752.49
-1925.19
-3492.98
-3214.75
-4862.78
-5279.66
-2786.21
-2288.24
-4204.86
-3393.03
-2013.47
-927.441
-1930.62
-1021.37
-1659.9
-1564.24
-1115.03
-1155.66
-1067.22
-1613.17
-1741.64
-927.137
-763.429
-1410.18
-1155
-640.349
-308.106
-627.969
-336.658
-553.744
-518.092
-368.712
15396.3
48575.5
12617.4
49780.8
9141.52
49056.2
12709.4
68053.6
15127.5
91651.1
15914.5
71476.2
16205.6
62179.2
17059.2
56366.5
10083.2
6295.97
27033.1
15936.5
9291.57
4584.13
26771.5
12636.1
12702.9
10327.2
39336.2
30945.6
9668.13
8106.66
38572.8
31277
22132.1
9656.09
18595.9
8429.7
9835.01
21931
65003.1
17167.3
23794.7
7560
76255.5
20225
20151.5
6426.3
50933.8
15621.1
25762
8932.1
48106.1
15023.5
18611.3
9230.56
24118
9831.72
19974.2
10779.4
23458.6
9482.18
23157.4
13891.2
19302.1
9041.89
27636.3
10642.8
9451.15
3546.71
22185.5
14357.3
13883.8
8902.87
18501.4
13417.1
10699.3
7298.78
16019.3
10680.9
23190.3
15406.3
9088.46
5822.24
4271.19
3262.94
6888.02
4743.75
3113.17
2720.78
10597.8
6749.97
5244.45
3359.78
16537.8
10149.8
13640.7
19238.8
22764.3
18306.4
19665.1
31953.2
10819.2
5793.2
7996.19
11082.2
5277.63
2505.61
3412.74
4033.14
25292.3
43073
17000.5
50041.7
28315.1
40417.9
20502
51262.6
29966.9
34230.4
25448.5
48547.3
21340.5
18456.7
21562.9
23456.8
28623.8
15897.2
21315.6
27778.3
34863.6
58951.6
13977.9
15143.3
17018
23297.3
42758.2
45871.7
33548.1
54084.2
41153.5
40401.8
30650.5
52493.9
39764.4
32664.6
26411.5
47872.8
37560.3
10241.7
6316.57
14768.2
10665.7
20835.3
16376
27715.9
22861.8
43213.7
35463.3
9430.52
6773.78
13080.2
11342
17824.6
16760.8
24869.3
23525.2
37794.9
33972.4
11080.3
6396.83
6876.3
5669.56
10110.9
8059.84
6321.34
6667.26
8316.79
6876.97
13136.5
8011.53
2345.42
3466.85
654.067
996.602
3002.17
4162.04
769.799
1223.8
2610.16
4085.34
715.272
1180.65
10692.3
7142.11
15120.8
6860.69
17281.6
10319.7
24408.2
12532.6
4205.39
3781.64
7811.34
3173.47
2918.32
2486.3
4155.37
2394.13
21389.9
10215.3
2828
24526.8
11170
3118.9
20016.5
9775.32
2853.48
23546.5
10828.3
2995.08
17168.3
8262.81
2297.22
22138.7
10273
2825.82
3508.59
1687.57
460.379
6860.31
3497.25
982.584
11056.8
5616.2
1577.94
15534.5
7615.88
2090.74
21388.5
10054
2778.25
4167.04
2001.48
596.169
7475.79
4157.32
1297.74
11305
6245.87
1889.09
15951.3
8428.08
2454.2
21598.1
10317.6
2928.24
773.522
1948.37
3757
4232.6
3864.8
3208.06
8945.52
7163.55
512.301
437.042
546.422
455.464
421.327
715.664
721.551
975.05
2517.53
1193.15
3019.97
1664.27
1210.56
2206.63
4025.27
422.367
9199.2
1908.47
-2218.85
-377.434
1283.06
407.435
315.962
-122.961
3322.75
901.072
849.762
322.753
3533.29
945.709
1170.28
415.099
3784.69
1033.19
1806.67
648.57
1288.97
427.758
107.521
49.3193
9392.42
6902.86
4561.4
3562.48
13661.7
10781
7137.46
5436.42
2780.74
2171.39
5949.43
3909.05
2619.4
2111.48
1044.98
1188.98
4356.55
3341.94
1933.07
1910.34
1448.37
1274.99
443.271
737.133
1570.37
510.963
1207.08
393.884
2610.14
715.942
1931.48
588.975
745.598
300.539
696.823
217.14
114.106
70.3995
381.095
87.5155
3447.93
1415.6
986.182
621.527
3617.25
1600.46
996.104
636.414
4232.57
2047.76
1059.03
692.897
9654.02
14051.3
6343.17
2772.5
724.02
11316.6
7675.15
5029.36
2740.93
809.42
11133
7279.29
4084.42
2017.42
567.638
594.15
237.415
335.114
172.529
750.418
298.498
379.402
198.87
1091.49
466.697
470.802
256.206
7116.68
3657.72
4743.63
2210.27
2538.59
1265.05
1506.54
742.32
520.778
315.352
6048.74
3802.97
3862.62
2258.1
2257.42
1292.49
1205.13
702.973
386.973
292.354
3711.92
1791.94
2261.21
1074.43
6547.18
3535.88
4129.23
2458.17
1251.37
577.484
1976
971.749
1868.79
741.488
456.167
189.571
2719.68
1526.69
659.022
415.796
1123.87
408.194
283.098
104.917
569.226
319.743
178.054
158.771
900.558
486.319
249.152
204.087
556.434
223.047
126.823
103.583
111.907
43.2797
-81.6758
-12.8647
85.4663
23.0134
4.78406
69.6921
15.1218
2.99536
113.989
31.6152
6.96262
82.8537
18.6358
3.78508
176.097
50.3806
10.9963
109.995
25.1767
5.03685