/*--------------------------------*- C++ -*----------------------------------*\
| =========                 |                                                 |
| \\      /  F ield         | OpenFOAM: The Open Source CFD Toolbox           |
|  \\    /   O peration     | Version:  2306                                  |
|   \\  /    A nd           | Website:  www.openfoam.com                      |
|    \\/     M anipulation  |                                                 |
\*---------------------------------------------------------------------------*/
FoamFile
{
    version     2.0;
    format      ascii;
    arch        "LSB;label=32;scalar=64";
    class       volScalarField;
    location    "0.2";
    object      gradTy;
}
// * * * * * * * * * * * * * * * * * * * * * * * * * * * * * * * * * * * * * //

dimensions      [0 -1 0 1 0 0 0];

internalField   nonuniform List<scalar> 
5712
(
18199.1
10387
27578.3
18708.2
29853
22891.6
42868.9
59098.4
58194.2
77618.9
39463.6
36042.3
25072.7
21071.1
13337.6
9136.57
24998.4
21746.2
22738.9
23884.5
32064.5
24009.3
41765
27986.9
12691
9957.33
7303.99
6347.65
13495.4
12541
8616.77
8408.24
30830.6
28880.9
26368.7
17907.7
20408.1
17540.6
14528.7
17311
22180.9
22709
56647.9
59083.7
33263.6
35434.8
28083.4
23103.1
24839.2
15616.6
12131.3
13195.1
15069
25405.1
7925.82
11105
19573.6
32784.8
12056.7
16235.7
19221.8
42540.1
13780.6
28242.6
4646.9
16558.7
3770.52
12262.7
16916.4
19849.7
19501.2
20830
17868.3
15768
20504.3
16322.8
20497
28316
19435.9
26635.6
19952.3
21275.1
20215.4
21361
22090.6
16525.4
22512.5
16418.1
19195.8
29134
18592.5
29427.8
34938.7
51799.2
43225.9
80734.8
36453.5
60414.9
41881.9
88049.6
33377.6
45113.4
43891
77532
33161.1
41765.1
44669.9
77133.7
15504.2
20369.6
40532.5
71999.7
18034.6
20361
49715.5
78335.5
20416.1
19817.4
59706.1
82305.4
24881.9
18383.6
29711.1
38297.7
74374.6
17232.7
23152.2
28966.2
32280.7
86064.1
15912.1
20650.7
25776.2
38277.6
99605.6
3625.33
3860.7
5935.51
19906.6
5209.82
5007.86
8630.69
20898.8
7262.04
4865.95
11852.5
22120.2
13875.4
9880.06
17833.8
12488.6
22185.2
14367.1
20145.3
13135.3
14726.8
24131.5
13274.8
9539.45
17779.7
13192.3
21247.3
15208
23221.1
16490.7
15211.5
23474.7
17902.1
16812.3
17410.7
16983.8
13588.4
11447.6
13101.7
11620.7
21296.3
18716
21971.1
18723
16856.9
16858.3
16732
16833.7
12522.6
11767.5
12382.9
11740.4
20626.1
18126
20512.8
17976.3
23343
19870.1
14988.9
20598.4
24054.9
19928.8
14841.6
20848.7
22898.4
19264.4
15326.3
20563.1
22577.1
18740.4
15758.2
20356.6
1885.97
700.275
257.948
952.187
296.068
154.688
2710.66
749.316
288.521
1719.89
735.57
251.334
2437.07
821.282
382.466
2893.08
1123.53
462.206
5511.25
2304.72
960.831
6919.3
2954.72
1258.59
6741.79
2790.43
1201.18
6263.69
2395.52
974.952
4386.66
1359.31
474.854
5652.27
2412.25
954.57
7785.81
3204.21
1233.13
8052.65
2976.87
1062.76
7061.92
2367.57
816.941
4621.13
1308.47
385.187
25974.3
21624.6
31852.8
24128
34346.6
24770
47438.8
29335.5
15569.9
11926.1
16210.1
11569.2
18219.2
13337.2
19183.1
12825
18849.4
16837
16838.4
16127.7
17371.2
17422.7
27710.1
29390.8
34819.9
37403.5
20340.7
22390.2
18044.7
18376.8
18640.9
20023.1
7222.58
2748.19
7092.6
3129.88
7867.59
2800.92
7503.98
3113.49
8432
2843.28
8337
3437.75
8614.26
3737.84
9152.88
3686.25
14296.3
9675.81
15743.5
10059.6
17984.4
13529.2
20256.6
13990.8
13234.5
6651.13
12573.6
6312.76
17282
10216.8
17988.6
10058.2
22399.7
14232.6
22943.6
14038.3
13982.7
6773.02
14337.3
6675.06
6265.04
2592.84
3876.81
1700.47
5305.41
2129.43
3584.04
1526.21
6771.01
2880.57
3983.35
1760.71
6900.46
3017.23
3925.3
1736.52
727.787
253.615
1059.95
412.399
752.032
297.645
1107
485.523
910.686
467.815
1226.73
659.059
5184.11
10408.5
3242.26
2650.07
1362.51
9012.32
4711.8
2057.42
1892.9
947.085
10845.2
6931.9
4464.85
2650.12
1185.25
74.2488
18.7231
162.034
76.0449
97.464
24.4735
214.463
103.848
189.366
58.2433
329.073
164.625
7462.75
5095.13
3577.99
2213.55
1638.6
964.017
1150.67
549.301
571.996
286.94
7798.06
4950.99
4544.56
2494.35
2687.42
1335.38
1532.24
712.192
774.128
416.064
5407.63
2579.89
5680.11
2740.14
8358.05
4829.05
8559.86
5096.37
3581.25
1589.34
3302.57
1449.14
5777.33
2775.4
5697.4
2744.34
8552.98
5315.12
8423.41
5274.09
3719.05
1612.08
3671.18
1602.14
2008.81
840.467
958.943
503.515
1843.35
758.171
900.683
451.009
2123.39
866.466
984.1
524.62
2145.3
863.82
1033.86
528.983
9.86768
4.093
1.62418
61.2291
11.6112
4.12167
7.65316
5.3838
2.3342
74.8258
15.6085
6.06381
23.0879
13.7104
6.56136
102.692
24.9284
10.1349
2690.03
1146.2
497.069
1114.01
477.978
213.394
472.324
198.389
91.2385
226.668
88.0246
38.737
155.16
41.1471
16.2567
2614.54
1061.19
409.377
1149.91
432.96
165.001
546.314
188.489
71.1926
283.202
91.1333
32.3976
237.612
53.0097
17.2777
690.026
145.407
29.2597
5.2353
830.749
173.937
34.3222
5.93784
693.633
145.186
29.1718
5.22484
850.34
180.827
36.5354
6.46192
693.365
140.934
30.1479
5.76957
893.359
184.142
39.931
7.6131
1006.22
203.521
39.3848
6.7262
1018.94
209.02
38.7746
6.45315
694.813
150.271
32.9991
6.34909
464.316
103.988
23.6492
4.85856
564.465
123.169
28.2725
5.94635
417.561
94.5585
21.8857
4.66113
780.822
169.234
35.3558
6.38603
487.201
109.748
24.3804
4.89148
817.53
178.6
36.4888
6.54944
490.04
112.315
24.9176
5.05788
407.414
99.5078
22.1504
4.38723
205.338
57.9963
14.6719
3.27032
405.747
98.4416
22.0379
4.42183
218.128
59.9939
14.9907
3.3407
422.356
98.4094
22.5423
4.64592
261.726
66.665
16.156
3.53374
396.719
89.9888
21.042
4.56772
299.129
70.8018
17.3492
3.81475
346.178
81.3045
19.3285
4.31912
96.2886
33.894
8.3839
1.51271
42.7871
23.4974
5.99478
1.08459
110.864
37.2314
9.07358
1.65512
51.7847
26.2831
6.52395
1.16792
145.889
43.9372
10.1282
1.7773
72.7873
31.7116
7.38419
1.28366
196.376
52.5825
11.814
2.06977
104.741
38.7255
8.58826
1.46511
237.815
60.7597
13.8347
2.48442
128.95
45.0207
9.71672
1.63585
272.759
69.5023
14.879
2.54729
147.034
52.5208
11.4342
1.90249
260.62
66.2111
14.4127
2.49491
135.888
49.572
10.6826
1.77999
277.325
71.003
14.6889
2.42801
150.32
54.2197
11.6861
1.93175
286.603
72.2559
14.8802
2.45825
154.333
55.2357
11.9002
1.96718
0.887768
0.185912
0.036524
0.00675212
0.000994121
0.96244
0.196221
0.0379421
0.00694182
0.00101615
0.906206
0.193722
0.0379473
0.00698907
0.0010265
1.03154
0.207395
0.0397274
0.00723349
0.00105622
0.977415
0.202157
0.0392519
0.00721539
0.00105908
1.14896
0.216575
0.0411777
0.00749297
0.00109402
1.09126
0.223159
0.0430041
0.00783944
0.0011443
1.09521
0.228474
0.0444971
0.00814905
0.00119167
1.04772
0.212922
0.0411845
0.00755592
0.0011077
0.906295
0.203196
0.0406782
0.00757487
0.00111774
1.0096
0.203378
0.0396718
0.00732027
0.00107647
0.885724
0.198455
0.0397185
0.00740046
0.0010926
1.04419
0.218141
0.0426323
0.00783943
0.00114955
0.920453
0.207292
0.0417369
0.00779083
0.00115065
1.08369
0.22393
0.043896
0.00809745
0.00118964
0.950097
0.212352
0.0427597
0.00799478
0.00118237
0.79514
0.172862
0.0347745
0.00652577
0.0009686
0.672222
0.161819
0.0335174
0.00637246
0.000951694
0.81451
0.178642
0.0358815
0.00671427
0.000994427
0.692047
0.166862
0.0344635
0.00653205
0.000973368
0.857641
0.18753
0.0373996
0.00696928
0.00102975
0.73551
0.17644
0.0360913
0.00679619
0.00100894
0.859202
0.191627
0.0383782
0.00715965
0.00105805
0.776561
0.186359
0.0377171
0.00706206
0.00104533
0.841623
0.193805
0.0389547
0.00727099
0.00107449
26634.4
36989.1
27191.3
36785.8
27885.4
36329.9
27881.4
35622.2
26757.8
34335.5
26221.3
28906.1
25750.8
29420.2
26646
29013.3
27327.4
29252.3
28019.4
4864.31
1325.75
598.439
219.347
27700.1
8923.82
2965.01
1402.55
519.695
28015.3
4808.45
1308.44
590.655
216.357
27575.3
8858.39
2947.08
1397.68
520.088
27879.2
4781.39
1303.62
589.753
216.18
27309.8
8811.1
2942.07
1398.23
520.988
27579.1
4696.9
1282.1
581.582
213.348
26835.7
8723.73
2931.12
1399.06
521.763
27031
4514.37
1232.54
559.285
204.785
26106.9
8536.67
2881.39
1377.21
512.978
26273
4565.66
1281.32
576.509
206.602
24311.4
8207.97
2820.84
1356.13
505.507
26379.1
4494.56
1246.15
563.031
203.892
24692.4
8280.95
2820.63
1349.72
502.431
26321.6
4628.18
1306.38
585.763
208.477
24313.9
8213.86
2832.49
1364.54
509.532
26400.5
4626.61
1306.69
584.983
207.459
24387.3
8245.55
2845.79
1373.13
513.642
40220.5
67915.3
65562
37785.7
17365.6
19252.6
26607.1
30014.6
24688.4
30602.3
43876.1
67696.2
58078.3
84689.7
35543.1
44023.2
25250.7
29050.9
12690.3
14737.4
1403.94
630.476
6.84146
1.76867
1.31441
0.953266
2.9797
1121.36
673.17
299.554
265.315
110.802
43.6436
105.999
37.0521
18.0334
20.5138
10.7911
1088.02
242.025
41.8645
33.9266
90.2912
59.0651
26.4681
14.8433
5.00749
3.66715
15.0057
12.5909
1256.17
449.981
610.516
191.218
100.36
272.369
24.9683
6.64253
34.2067
2320.24
1475.25
888.99
520.334
476.958
1116.4
800.931
501.866
297.954
208.362
14.5444
13.9423
10.5017
7.09168
5.16588
3.85329
3.84662
3.01135
2.10534
1.57157
2.88519
2.91389
2.30399
1.62367
1.21846
2.10141
2.13839
1.70482
1.21137
0.914705
6.45574
6.37994
4.938
3.41176
2.52254
1889.31
1240.45
731.72
408.552
376.687
1124.8
696.956
379.35
203.695
146.523
544.274
403.226
249.596
143.377
96.181
436.362
271.732
144.953
75.4973
47.4149
175.864
109.334
58.2651
29.4735
17.5258
85.7593
71.9513
48.0229
29.1715
19.7735
197.915
152.314
95.1902
54.8931
36.1314
70.3187
55.564
35.2422
20.4247
13.3008
36.6211
32.4275
22.6002
14.2061
9.82101
40.8403
34.9616
23.6304
14.4456
9.77169
22.2543
20.194
14.3472
9.14754
6.37129
1865.22
1268.68
769.796
442.738
407.374
452.602
353.909
229.473
137.328
94.4862
83.9263
72.9608
50.3505
31.5096
21.8425
68.8332
61.1063
43.0045
27.3882
19.2133
176.531
147.933
99.9796
61.7502
42.7701
119.062
104.712
73.2986
46.5448
32.6387
54.6425
49.9618
36.1262
23.5694
16.7936
31.1439
29.1743
21.4645
14.1774
10.162
10.6567
10.2084
7.64976
5.12344
3.70171
7.873
7.65959
5.83446
3.97039
2.90337
30.9978
28.2786
20.2858
13.0916
9.23236
26.3089
24.4762
17.8918
11.7467
8.38491
2111.57
1389.12
845.195
493.703
452.62
813.483
603.856
384.681
230.74
161.275
1128.7
852.27
538.47
319.837
238.023
367.713
301.404
202.34
124.941
87.027
199.187
171.215
118.19
74.3489
51.9791
514.63
410.61
270.949
164.151
113.34
51.5836
47.1808
34.0758
22.1905
15.782
14.1274
13.5333
10.1637
6.83482
4.95881
69.8538
62.6818
44.5277
28.5919
20.1587
25392
18224.6
25392.4
19922.9
30602.5
53319.1
33496.1
53826.9
24560.5
23305.8
22819.9
24673.3
24524.7
20162.2
38559.9
25956
22376.7
25767.3
11117.8
11544
23652.3
25895
12448.3
11996.2
33446.7
32837.8
29399.1
23182.4
33210
21940.1
14445.1
17379.9
22500.7
22833.9
56660.9
59251.1
32659
35341.3
29530
23446.9
26604.6
15974.9
13636.4
13580.1
32327.6
39419.6
13477.7
16178.9
34484
44575.7
16603.9
20450.3
30273.5
51472.3
17707
32821.2
5561.95
18137.5
3957.71
12573.4
19579.3
19926.9
20217
20916.3
16823.7
15024.4
19673.7
15936.6
23183.3
28939
26307
27630.6
20159.7
21326.6
20255.1
21377
21715.1
16350.8
22417.6
16369.3
20162
29448.6
18807.4
29519.2
37143.7
54626
44287.2
82046.2
39960.2
65064.8
43660.2
90463.6
34433.5
46488.5
44418.7
78180.4
33449.9
42151.4
44821
77327.7
44162.5
45388.4
62232.3
95386
42530.5
40679.3
66351.2
95902.3
38610.5
35083.7
70787.3
93588.9
18527.4
14410.5
26532.9
39976
79975.7
13176.3
15571.7
26114.6
33192.4
92444.1
13431.4
18212.7
25139.6
40069
103354
13214.1
8556.41
15186.8
24436
15321.6
10181.8
15714.1
24552.1
17746.4
11094.7
16501.3
24483.6
10528.8
7331.43
12621.7
8871.05
20448.4
13713.4
20974.5
13930.4
17026.7
25273.5
11255.4
8236.25
15446.9
11741.5
20288
14684.3
24240
17238.7
16419.4
23968.3
17242.1
16147.5
17222.9
16731
12696.8
10774.6
12715.6
11301.9
21439
18739.9
21977.6
18591.1
16794
16767.9
16718.1
16811.6
12362.1
11630
12339.4
11703.4
20711.4
18158.2
20537
17986.5
23749.7
20105.3
15371.6
20869.3
24723.8
20316.6
15569.9
21355.7
23099.1
19383.1
15509.9
20691.2
22636.7
18775.2
15816.2
20394.5
6101.03
5995.98
3596.95
2720
7245.93
5988.67
4194.84
3367.92
6874.78
4802.58
4824.77
3683.63
4871.14
3108.89
6118.72
4228.9
8187.16
5288.82
8337.21
4994.49
6353
3558.49
5433.6
3216.76
7761.73
4574.2
8736.71
4775.2
8560.81
4291.75
5610.85
2173.84
18999.2
15272.8
29157.7
21080.7
25402
18797.6
43884.5
26532.5
15354.4
9499.82
19197
11282.3
14826.5
9828.61
19235.6
11798.5
16890.3
12261.2
14212.6
10984.9
12168.4
15457.6
26315.2
28998.5
33687.8
37123.9
19236.5
22046.1
16819.2
18052.8
17443.1
19608.9
5548.69
2643.11
6427.69
2951.15
5896.56
2625.03
6760.99
2911.37
6254.44
2603.98
7472.29
3175.58
8044.9
3539.79
8941
3614.15
10799.3
8495.45
13995.4
9353.18
14593.9
11954.1
18467.3
13151
11613
6189.71
9383.63
5661.27
16432.3
9860.45
17745.4
9954.19
21605.9
13839.2
22733.2
13927.7
13147.5
6520.63
14083.4
6598.95
5655.92
2446.86
3658.24
1638.37
4613.46
2072.7
3353.52
1496.69
6412.72
2765.44
3848.86
1715.69
6789.78
2975.97
3883.16
1721.57
4323.36
3318.92
2030.28
1416.93
4501.56
3501.78
1964.93
1406.7
4613.29
3492.05
1907.5
1455.43
7568.93
10824.5
6697.08
3508.29
1668.72
9268.33
7388.85
6521.63
3183.85
1439.11
10546.8
7378.97
4993.09
2987.8
1322.69
2279.52
1334.73
948.279
591.203
2415.88
1419.3
980.544
621.689
2391.58
1409.03
1031.04
648.978
7510.93
4974.33
5479.29
3474.82
4153.86
2658.07
2301.73
1426.9
1029.43
645.145
7608.39
4777.77
5203.88
2954.61
3414.56
1865.47
2009.2
1070.34
961.734
571.717
5199.47
2618.13
5419.09
2666.21
7834.48
4610.63
8194
4925.96
3435.82
1566.23
3277.92
1556.19
5624.18
2716.75
5650.11
2725.02
8370.75
5220.96
8370.6
5246.72
3616.86
1579.06
3638.01
1590.05
1950.56
841.484
945.295
509.308
1883.76
847.45
936.586
504.992
2071.41
852.326
966.584
519.756
2126.97
857.884
1026.46
526.255
811.779
562.41
528.856
370.808
886.107
596.268
525.501
353.979
862.723
570.789
511.688
320.445
3096.32
1912.53
2051.24
1207.39
1587.08
975.552
834.733
479.863
473.147
252.513
2720.82
1511.56
1514.62
816.513
921.218
508.13
532.982
276.466
400.865
171.737
753.523
167.208
34.3977
6.20129
845.396
187.304
38.3003
6.7769
739.598
163.592
33.5767
6.03936
848.439
189.764
39.6163
7.15279
718
154.711
33.7851
6.48601
875.649
189.053
42.1932
8.19192
981.468
204.466
40.4419
7.02082
1008.12
208.904
39.0587
6.54145
686.508
153.311
34.4347
6.73505
460.235
105.48
24.4099
5.08188
585.194
132.256
30.9487
6.55993
427.071
99.6948
23.4385
5.03078
767.122
169.584
35.9865
6.58412
481.496
109.898
24.6983
5.00429
811.6
178.453
36.6564
6.60945
487.739
112.249
25
5.09137
596.311
135.171
29.0281
5.57359
423.967
98.9618
22.4084
4.59767
576.234
130.681
28.253
5.48656
419.194
97.6868
22.0684
4.5529
557.725
124.177
27.7269
5.5589
431.104
97.6835
22.0183
4.52722
473.529
107.51
24.8541
5.28744
409.988
93.5974
21.9165
4.60192
388.048
92.6668
21.9998
4.85835
281.746
71.7174
14.7864
2.41076
171.977
57.258
12.0667
1.97468
288.829
72.8897
15.1316
2.5241
178.012
58.2572
12.2628
2.01036
306.99
74.5033
15.2148
2.48934
191.309
59.4904
12.2914
2.00022
301.173
74.2136
15.7466
2.64459
189.276
59.335
12.3859
2.03556
284.764
72.4164
16.3622
2.91053
169.343
57.3527
12.2338
2.03814
273.695
71.054
15.4876
2.6812
150.162
54.5563
12.0491
2.02396
274.298
71.0337
15.7208
2.74153
151.103
55.2991
12.0329
2.01646
275.39
71.3155
14.9302
2.48746
149.829
54.6973
11.9082
1.98214
285.498
72.2619
14.94
2.47463
153.826
55.2824
11.9508
1.98025
1.05854
0.22294
0.0439452
0.00813713
0.00119911
1.1173
0.230655
0.0449405
0.00825938
0.00121207
1.05051
0.225766
0.0444509
0.00821272
0.00120858
1.15927
0.235965
0.0455816
0.0083442
0.0012223
1.10128
0.228991
0.0447174
0.00825137
0.00121413
1.25411
0.239118
0.0458129
0.00837913
0.0012273
1.15289
0.237439
0.0460211
0.00842599
0.00123344
1.11572
0.233474
0.0455814
0.00836308
0.00122448
1.12786
0.231686
0.0451067
0.00831361
0.00122245
0.962382
0.217776
0.043856
0.0082023
0.0012139
1.11933
0.226735
0.0444503
0.00823253
0.00121372
0.966775
0.217363
0.0437119
0.00817556
0.00121031
1.09001
0.229714
0.045146
0.00833586
0.00122568
0.951725
0.216111
0.0437399
0.00819644
0.00121369
1.09811
0.227609
0.044718
0.00826291
0.00121529
0.959772
0.215183
0.0434196
0.00813078
0.00120373
0.993606
0.213374
0.0426816
0.00798181
0.00118274
0.898295
0.205159
0.0417669
0.0078754
0.0011717
0.991846
0.215041
0.0430543
0.00804436
0.00119094
0.898487
0.206645
0.0421017
0.00793255
0.00117922
1.00784
0.218219
0.0435104
0.00811412
0.0012001
0.907943
0.21033
0.0427025
0.00802252
0.00119053
0.981537
0.217003
0.0435128
0.0081336
0.00120413
0.914392
0.213857
0.0432095
0.00809707
0.00120004
0.945271
0.215914
0.0435174
0.00814584
0.0012065
30053.9
38425.7
30054.3
38061.9
30038.1
37392.9
29172.2
36349.3
27462.7
34713.5
26435.4
29099.2
26154.6
29775
26748.9
29102.1
27357.4
29277
29085.3
4979.89
1340.49
600.359
219.547
28462.7
9099.78
2994.36
1406.8
520.172
28947.1
4910.28
1321.51
592.332
216.522
28247.4
9014.17
2973.12
1401.32
520.466
28589.4
4860.7
1313.94
591.031
216.286
27836.4
8935.43
2963.03
1401
521.206
28043.8
4750.44
1289.21
582.448
213.413
27203.4
8812.74
2946.34
1401.01
521.89
27303.5
4545.4
1236.66
559.77
204.817
26341.9
8595.22
2891.45
1378.47
513.085
26357.4
4574.92
1282.49
576.642
206.615
24404
8226.59
2823.79
1356.49
505.536
26537.6
4511.94
1248.38
563.28
203.905
24863.4
8316.56
2826.41
1350.36
502.465
26362
4632.64
1306.95
585.829
208.486
24356.1
8222.19
2833.75
1364.7
509.566
26412.4
4627.84
1306.83
584.988
207.454
24399.2
8247.91
2846.12
1373.17
513.645
39834.7
67852.1
64941
36471.7
23934.4
33318.5
22192.7
32984
31381.5
62223.2
34942.3
64466.7
0.00246269
0.00651896
0.0211349
0.0699856
0.235127
0.801511
0.00587989
0.0148642
0.0454616
0.139029
0.414637
1.19588
0.00107448
0.000587986
0.00324625
0.00204817
0.011847
0.00842231
0.0431232
0.0340634
0.153958
0.12718
0.525704
0.381492
2.73957
8.91681
26.9465
75.1324
167.232
245.538
3.30171
8.55087
20.3841
43.2773
76.1393
101.648
0.0056495
0.00618882
0.00538502
0.00419885
0.00341213
0.0148573
0.0160771
0.0137797
0.0105691
0.00847752
0.0478365
0.0511054
0.0431344
0.0325432
0.025765
0.157161
0.165514
0.137394
0.101867
0.0795542
0.522919
0.541304
0.440752
0.320416
0.24644
1.76085
1.78426
1.41992
1.00921
0.762979
0.0134111
0.014534
0.0124808
0.00959287
0.00770713
0.0336664
0.0360153
0.0304489
0.023014
0.018246
0.102226
0.10792
0.0898319
0.0667903
0.0522719
0.310199
0.322915
0.264527
0.19346
0.149475
0.916996
0.939747
0.756628
0.54384
0.414633
2.61788
2.63543
2.08205
1.4692
1.10473
0.00247607
0.00273679
0.00240896
0.00190259
0.00156187
0.00136087
0.00151673
0.00134923
0.0010782
0.000893367
0.00742928
0.00810567
0.00702103
0.00544806
0.00441006
0.00470643
0.00517462
0.00452531
0.0035484
0.00289612
0.0269229
0.0289906
0.0247123
0.0188458
0.0150468
0.0192173
0.0208495
0.0179347
0.0138101
0.0111098
0.0972534
0.103252
0.0865457
0.0648275
0.0510332
0.077141
0.0825206
0.0697725
0.0527312
0.0417946
0.344127
0.359429
0.295587
0.217042
0.168212
0.285647
0.300863
0.24966
0.184925
0.144252
1.16208
1.18989
0.957038
0.687014
0.523171
0.849574
0.880827
0.717448
0.521083
0.400192
5.92576
5.84727
4.52926
3.13824
2.32844
18.9169
18.0737
13.5776
9.15495
6.66543
55.7977
51.2589
37.2186
24.3966
17.4497
150.682
131.628
91.9531
58.5281
41.226
322.159
264.132
176.987
109.711
76.6754
464.404
369.732
243.235
149.016
103.822
7.14139
7.04287
5.44879
3.77049
2.79495
18.2336
17.5576
13.2747
8.9997
6.57657
42.736
40.0222
29.5104
19.5901
14.121
88.9409
80.6679
57.9229
37.6633
26.8235
153.234
134.46
94.1839
60.1804
42.5047
202.288
174.384
120.592
76.3767
53.7339
0.002454
0.00647786
0.0209916
0.069491
0.233339
0.794791
0.00585815
0.0147641
0.0451283
0.137972
0.41133
1.18593
0.00107074
0.000586329
0.00322864
0.00204181
0.011784
0.00841842
0.042916
0.034237
0.153194
0.128615
0.523354
0.396158
2.71249
8.81749
26.6298
74.278
165.886
244.856
3.2731
8.475
20.2073
42.9422
75.7202
101.453
0.00563042
0.00617003
0.00537156
0.00419139
0.0034083
0.0147681
0.015991
0.0137199
0.010538
0.00846359
0.0475299
0.050819
0.0429465
0.0324576
0.0257389
0.156122
0.164584
0.13683
0.101661
0.0795512
0.519247
0.538175
0.43903
0.319985
0.246713
1.74739
1.77337
1.41449
1.00849
0.764731
0.0133635
0.0144872
0.0124472
0.00957391
0.00769701
0.0334489
0.0358043
0.0302998
0.0229325
0.0182049
0.101508
0.107236
0.0893617
0.066546
0.0521602
0.307943
0.32081
0.263125
0.192775
0.149202
0.910011
0.933356
0.752491
0.54192
0.413966
2.59706
2.61675
2.07025
1.46396
1.10312
0.002468
0.00272905
0.00240362
0.00189989
0.00156078
0.00135736
0.00151354
0.0013473
0.0010776
0.00089357
0.00739162
0.00807077
0.00699893
0.00543937
0.00440924
0.00469372
0.00516511
0.00452285
0.00355251
0.00290386
0.0267927
0.0288799
0.0246558
0.0188411
0.0150712
0.0192196
0.0208775
0.0179911
0.013886
0.0111942
0.0968507
0.102967
0.0864814
0.0649517
0.0512557
0.0776002
0.083157
0.0704864
0.053442
0.0424805
0.342775
0.358757
0.295881
0.21806
0.169575
0.28928
0.305533
0.254487
0.18939
0.148366
1.15888
1.19041
0.961387
0.693681
0.530792
0.884348
0.920826
0.754037
0.551259
0.425949
5.8722
5.80483
4.50824
3.13495
2.33427
18.7207
17.9175
13.4968
9.13536
6.67663
55.1771
50.767
36.9558
24.3162
17.4605
149.015
130.288
91.1817
58.2155
41.149
319.503
261.912
175.58
109.002
76.3428
463.052
368.582
242.478
148.607
103.606
7.08213
6.99055
5.41631
3.75633
2.79079
18.0777
17.4217
13.1907
8.96249
6.56462
42.3757
39.7107
29.3169
19.5015
14.0885
88.2624
80.0817
57.551
37.4821
26.7448
152.385
133.717
93.6934
59.9215
42.3723
201.892
174.031
120.352
76.2453
53.6621
1398.24
628.273
6.75579
1.75562
1.47137
0.996089
2.98402
1060.27
653.338
291.495
287.838
45.8172
108.953
20.4741
27.8837
13.5796
1045.63
235.097
42.1394
33.5863
88.3504
57.9999
26.0521
14.7051
5.91844
4.02597
15.6455
12.6562
1239.26
445.105
594.998
188.127
98.4912
265.628
24.6036
6.61657
33.7132
2309.52
1466.78
883.732
517.683
475.446
1112.14
797.433
499.611
296.774
207.757
14.3904
13.851
10.4921
7.13663
5.23394
3.83204
3.83985
3.02142
2.12593
1.5963
3.23996
3.29332
2.627
1.8713
1.41773
2.20214
2.25376
1.81052
1.29834
0.988348
6.48589
6.45079
5.03494
3.51403
2.62152
1828.92
1267.14
784.173
457.629
426.567
1144.38
791.675
483.408
285.357
209.558
540.851
419.844
273.955
165.554
114.646
519.97
375.409
231.723
138.098
92.6876
91.8218
80.1561
56.0226
35.6671
25.0196
209.141
170.624
113.991
70.2423
48.2905
42.3373
38.8097
28.1354
18.4193
13.1404
57.2014
51.724
37.0198
23.9571
16.9399
28.5103
26.7627
19.7722
13.1364
9.45724
1805.24
1249.74
774.165
455.643
424.653
443.373
353.31
234.462
143.922
101.023
85.3581
75.7917
53.671
34.5412
24.4834
68.5961
61.7336
44.2037
28.7107
20.478
173.991
148.08
102.045
64.4213
45.4389
117.341
104.009
73.5764
47.3215
33.5678
53.8863
49.4752
35.9874
23.6617
16.985
30.9736
29.2463
21.7455
14.5454
10.5433
12.696
12.3527
9.43825
6.46143
4.7557
8.69304
8.55281
6.60795
4.57081
3.38955
32.653
30.3947
22.3404
14.805
10.6686
26.6158
25.0814
18.6333
12.4613
9.03573
2080.82
1366.37
832.142
487.993
450.531
804.266
596.63
380.292
228.655
160.409
1102.71
837.651
533.788
320.779
241.745
362.032
297.343
200.338
124.408
87.2
195.852
169.093
117.489
74.5535
52.5684
503.698
405.333
270.651
166.399
116.452
50.9881
46.9419
34.2047
22.518
16.1742
14.1324
13.6541
10.3684
7.06377
5.18364
69.1494
62.6242
45.0294
29.3331
20.9454
26.3045
37.6871
59.4555
85.3653
97.9924
48.9323
23497
23061.2
22967.7
25139.4
19796.3
18771.9
19674
16526.7
22301.6
38517.4
21891.1
37278.6
25206.9
19324.9
43301.4
20467.9
19824.8
19539.3
21169
16519.3
15674.2
16973.3
14548.4
20868.2
44881.9
20184.8
41650.3
23810.9
25178.3
44224.1
16355.7
15584.2
14815.5
15860.9
13066.6
12986.5
13103.5
11689.5
21657.7
32855.3
21619.8
31132.6
23245.4
26221
33086.2
11825.7
11200.1
9905.86
10521.3
9610.49
9769.84
8764.03
7993.01
15729.2
22807.7
15651.2
20580.7
16160.1
17992.9
21349.4
7917.48
7445.55
6358.41
6723.99
6869.7
7135.17
5643.78
5280.2
11185.9
13640.6
11137.2
11604.9
10579.2
9979.24
11866.6
5626.1
5301.97
4029.62
4257.72
4808.12
4745.08
3645.23
3387.4
7996.11
7914.86
7711.62
6739.42
6922.69
5250.14
7083.36
17834.9
16020.9
21314.5
23997.5
13997.4
12258.3
17521.5
14411.5
12322.6
6135.04
11771.6
6164.87
9287.77
7903.79
7869.85
14796.7
13446.5
17308.8
19190.9
11985.6
10702.7
14602.5
12124.2
9401.46
4545.78
9002.25
4591.73
6785.15
5413.57
5421.61
10571.3
9747.31
12165.4
13211.6
8813.88
7836.28
10617.7
8995.89
6559.44
3084.23
6047.15
2959.71
4568.32
3142.48
3699.45
6366.75
5931.21
7589.28
8129.61
5367.83
4666.17
6832.96
5777.58
3795.13
1769.85
3500.17
1723.61
2652.2
1875.12
2201.59
3742.46
3512.27
4656.84
4947.23
3083.69
2610.72
4286.79
3632.19
2134.42
1178.44
1954.96
1140.52
1595.5
1314.25
1409.85
2115.14
1988.84
2855.56
3021.57
1785.27
1608.64
2624.16
2305.86
1235.61
808.753
1155.11
810.781
1009.03
1003.25
1008.97
17982.1
10082
27557
18711.8
29880
22855.8
42902.6
59106.2
58263.5
77642.6
39539.5
36031.4
25092.8
21126.1
13007.5
8740.07
24995.3
21744.1
22727.4
23880.1
32076.8
24012.4
41768.8
27988
12466.7
9762.21
7073.98
6164.13
13441.5
12522.3
8606.17
8435.07
30814.5
28866.2
26360.9
17904
20398
17544.8
14526.6
17311.7
22179.9
22709.6
56653.5
59088
33264.7
35435.7
28083
23105
24839.8
15617.9
12132.2
13196.6
14816.7
25050.5
7724.94
10851
19580.8
32818.7
12091.7
16281
19226.4
42557.7
13795.6
28264
4649.99
16566.9
3771.43
12265.6
16914.7
19848.9
19500.2
20829.6
17868.9
15767.6
20504.4
16322.3
20498.9
28316.8
19434.3
26635.7
19951.7
21275
20215.2
21361.1
22090.5
16525
22512.1
16417.6
19196.7
29134.9
18593.2
29429
34942.4
51808.8
43228.9
80739.7
36456.4
60425.2
41885
88056
33380.7
45119.8
43893.5
77535.8
33164.1
41770
44672.2
77137.1
15304.3
20191.8
40096.1
71567.2
18047
20366.5
49756.3
78386.2
20422.2
19821.9
59724.8
82324.7
24878.9
18382
29708.1
38299.6
74385.1
17230.8
23148.9
28961.8
32281.1
86075.2
15910.9
20649
25775.5
38280.5
99613.8
3562.4
3827.88
5768.43
19748.5
5217.52
5016.81
8659.66
20921.2
7266.14
4867.89
11861.6
22125.6
13873.5
9878.52
17831
12486.6
22181.7
14365.1
20146.2
13136.2
14731.3
24134.4
13273.4
9538.19
17778
13191
21246.5
15207.5
23222.9
16491.9
15214.2
23476.5
17901.2
16811.3
17410.2
16983.1
13587.4
11446.5
13100.9
11619.9
21296.6
18716.1
21971.1
18723
16856.6
16857.9
16731.9
16833.4
12522
11766.9
12382.4
11739.9
20626.5
18126.1
20513.3
17976.5
23344.2
19870.9
14990.3
20599.4
24056.4
19929.8
14843.4
20850.1
22899.5
19265.1
15327.4
20563.8
22578.1
18741
15759.2
20357.2
1869.63
692.993
254.339
953.842
295.001
153.123
2722.08
753.398
289.198
1728.83
739.006
252.027
2437.34
821.512
382.652
2893.75
1124.26
462.649
5510.34
2304.4
960.734
6918.38
2954.49
1258.58
6741.38
2790.55
1201.34
6264.05
2395.83
975.206
4387.19
1359.66
475.06
5651.42
2411.91
954.462
7784.94
3203.91
1233.06
8052.34
2976.82
1062.8
7062.29
2367.72
817.051
4621.56
1308.65
385.274
25977
21624
31853.8
24127.2
34360.8
24773.8
47450.1
29338.3
15379.9
11854.2
15968.3
11481.6
18177.5
13305.3
19138.2
12794.1
18841.5
16829.6
16837
16124.4
17351.7
17405
27709.1
29389.2
34821.7
37403.8
20337.2
22387.7
18042.4
18374.4
18631.7
20018.1
7207.91
2748.78
7072.08
3130.39
7849.15
2795.68
7487.74
3108.64
8419.08
2838.8
8325.54
3433.02
8607.61
3734.38
9149.28
3684.21
14293.1
9674.46
15740.8
10058.3
17984.6
13528.6
20256.5
13989.9
13227.7
6649.44
12565.3
6310.77
17280
10215.6
17986.6
10057
22399.2
14231.6
22942.6
14037.2
13978.3
6771.61
14334.2
6673.78
6261.66
2590.68
3875.19
1699.54
5301.84
2127.3
3582.16
1525.15
6768.46
2878.82
3982.05
1759.97
6898.53
3015.94
3924.23
1735.91
725.299
251.636
1056.8
410.011
751.178
297.494
1105.75
485.224
909.501
467.336
1225.12
658.345
5184.18
10408.3
3241.75
2648.6
1361.24
9011.91
4711.67
2057.4
1891.93
946.236
10844.6
6931.12
4463.57
2648.67
1184.32
73.4017
18.2152
160.93
75.4741
97.4897
24.4241
214.341
103.77
189.231
58.2267
328.785
164.504
7461.93
5094.36
3577.53
2213.17
1638.38
963.824
1150.14
549.082
571.551
286.747
7797.27
4950.29
4543.94
2493.93
2686.72
1335.02
1531.5
711.887
773.593
415.804
5406.85
2579.44
5679.38
2739.73
8357.38
4828.5
8559.22
5095.9
3580.46
1588.96
3301.69
1448.73
5776.65
2775.05
5696.71
2744
8552.36
5314.71
8422.76
5273.71
3718.36
1611.77
3670.53
1601.85
2008.14
840.191
958.499
503.28
1842.57
757.863
900.158
450.747
2122.82
866.239
983.74
524.423
2144.78
863.618
1033.54
528.817
9.65135
4.00806
1.58782
60.857
11.4865
4.06017
7.59977
5.37178
2.33318
74.7585
15.6046
6.0645
23.0851
13.7069
6.55971
102.618
24.9169
10.1314
2689.56
1146
496.994
1113.79
477.88
213.353
472.198
198.338
91.2164
226.583
87.995
38.7253
155.052
41.1268
16.2502
2614.09
1061
409.311
1149.67
432.867
164.967
546.163
188.437
71.1742
283.085
91.0994
32.3871
237.45
52.982
17.2703
690.228
145.351
29.23
5.22871
830.691
173.731
34.2624
5.92767
692.735
145.04
29.1444
5.22042
849.446
180.679
36.5071
6.45701
692.423
140.772
30.1161
5.76398
892.289
183.956
39.8938
7.6064
1005.26
203.341
39.3516
6.72075
1018.29
208.886
38.7499
6.4491
694.178
150.132
32.9689
6.34338
464.002
103.91
23.6303
4.85453
563.864
123.038
28.2432
5.94039
417.213
94.4726
21.8653
4.65675
780.257
169.105
35.3284
6.38107
486.937
109.68
24.3641
4.88803
817.096
178.496
36.4669
6.54546
489.824
112.259
24.9041
5.055
407.317
99.4951
22.1422
4.3841
205.034
57.9489
14.6639
3.2703
405.279
98.3421
22.0166
4.41794
217.924
59.9382
14.9773
3.33789
421.818
98.2945
22.5176
4.64116
261.419
66.5891
16.1383
3.53006
396.293
89.8886
21.0189
4.56289
298.807
70.7219
17.3298
3.81065
345.855
81.2222
19.3087
4.31473
96.1609
33.8795
8.38433
1.51395
42.6813
23.4554
5.98639
1.08343
110.772
37.1978
9.06506
1.65348
51.7481
26.265
6.51936
1.16712
145.735
43.8885
10.117
1.77536
72.7191
31.678
7.37623
1.28228
196.181
52.5246
11.8006
2.06744
104.645
38.6836
8.57848
1.46341
237.607
60.6993
13.8203
2.4818
128.844
44.9759
9.70631
1.63405
272.598
69.4538
14.8674
2.5452
146.951
52.4839
11.4253
1.90093
260.43
66.1548
14.3994
2.49254
135.793
49.5293
10.6726
1.77825
277.193
70.9627
14.6795
2.42635
150.253
54.1893
11.6788
1.93047
286.49
72.2221
14.8724
2.45689
154.277
55.2106
11.8942
1.96614
0.886942
0.18566
0.0364684
0.00674156
0.000992572
0.960885
0.195788
0.037859
0.00692708
0.00101405
0.905536
0.19359
0.0379225
0.00698461
0.00102586
1.03079
0.207262
0.0397017
0.00722886
0.00105555
0.976561
0.201995
0.0392222
0.00721013
0.00105833
1.14802
0.216414
0.0411481
0.00748772
0.00109327
1.09042
0.222994
0.0429734
0.00783399
0.00114352
1.09453
0.228336
0.0444708
0.00814435
0.001191
1.04681
0.212749
0.0411524
0.00755024
0.00110689
0.905523
0.203028
0.0406456
0.007569
0.00111689
1.00866