/*--------------------------------*- C++ -*----------------------------------*\
| =========                 |                                                 |
| \\      /  F ield         | OpenFOAM: The Open Source CFD Toolbox           |
|  \\    /   O peration     | Version:  2306                                  |
|   \\  /    A nd           | Website:  www.openfoam.com                      |
|    \\/     M anipulation  |                                                 |
\*---------------------------------------------------------------------------*/
FoamFile
{
    version     2.0;
    format      ascii;
    arch        "LSB;label=32;scalar=64";
    class       volVectorField;
    location    "0.4";
    object      flux;
}
// * * * * * * * * * * * * * * * * * * * * * * * * * * * * * * * * * * * * * //

dimensions      [0 1 -1 1 0 0 0];

internalField   nonuniform List<vector> 
5322
(
(-0.000983778 0.00253411 -0.00339328)
(2.95334e-05 0.000252423 -0.00338631)
(3.44204e-05 4.38497e-06 -0.00336693)
(2.28833e-06 -7.56699e-05 -0.00364831)
(-1.38012e-06 -2.90773e-05 -0.00347005)
(-1.4346e-06 4.3222e-06 -0.00331996)
(-7.20854e-07 1.91527e-05 -0.00319162)
(-2.0652e-07 3.14565e-05 -0.00308687)
(-2.55581e-07 5.55114e-05 -0.00300933)
(-9.15583e-07 8.52334e-05 -0.00297054)
(-3.02684e-06 4.61081e-06 -0.00289995)
(3.22886e-05 -0.000564901 -0.00289498)
(4.95875e-05 -0.000625817 -0.00217484)
(-0.000682815 -0.000561915 -0.00300047)
(-1.7853e-05 -0.000488342 -0.00328261)
(0.00119127 0.0010586 -0.00262541)
(-0.000935834 0.00141534 -0.00310248)
(-1.39797e-05 -2.66565e-06 -0.0023273)
(-0.000715957 0.000981425 -0.00328541)
(0.000467897 -0.00117278 -0.00333483)
(-0.000635735 0.00112307 -0.00338807)
(0.000564497 -0.00115576 -0.00340581)
(-0.000597157 0.00114505 -0.00345493)
(0.000616948 -0.00119217 -0.00351842)
(-0.000626251 0.00120338 -0.00357971)
(0.000621591 -0.00120513 -0.00361586)
(-0.000623372 0.00122157 -0.00369083)
(0.000670982 -0.00127642 -0.00377376)
(-0.000662655 0.00129385 -0.00385968)
(0.000689675 -0.00131041 -0.00391386)
(-0.000654594 0.00134092 -0.00400593)
(0.000775238 -0.00137607 -0.0040927)
(-0.000580741 0.00144556 -0.00416218)
(0.000924498 -0.00127311 -0.00417277)
(2.63398e-05 0.00123772 -0.00405234)
(0.00120073 -0.000636174 -0.00337727)
(0.00084767 0.00125638 -0.00387475)
(-0.000337518 0.00156637 -0.00392045)
(0.00094569 0.000784597 -0.00404528)
(-5.47367e-05 0.000856768 -0.00287481)
(-0.000897037 0.00115638 -0.00375904)
(0.00090145 0.000967086 -0.00387962)
(-5.45979e-05 0.00100892 -0.00282218)
(-0.000958995 0.00107971 -0.00388444)
(0.000953228 0.00102951 -0.00384619)
(-3.27828e-05 0.00102838 -0.0028698)
(-0.00101928 0.00104593 -0.00393893)
(0.000891755 0.00111754 -0.00371932)
(-2.22371e-05 0.00104498 -0.00283358)
(-0.0010687 0.00098974 -0.00385715)
(-0.00105587 0.00124343 -0.00433972)
(-0.00152949 0.000591334 -0.00307425)
(-0.000484258 0.000668767 -0.00420877)
(0.00101257 -0.00217237 -0.00390222)
(-6.50993e-05 -0.000115606 -0.00361993)
(-0.00166825 -0.00125501 -0.00370637)
(-4.82661e-05 0.000666492 -0.00443912)
(0.00159237 -0.00164343 -0.00364593)
(-1.91633e-05 -9.01703e-05 -0.0036513)
(-0.00159146 -0.00142827 -0.00370742)
(-6.89637e-06 0.000676652 -0.00449152)
(0.00155082 -0.00161593 -0.00369503)
(-8.79862e-06 -8.0441e-05 -0.00365231)
(-0.00156313 -0.0014177 -0.00361617)
(-1.17551e-07 0.00067944 -0.00448913)
(0.00152775 -0.00167309 -0.00382102)
(2.01096e-05 -0.000104893 -0.00363597)
(-0.001548 -0.00137201 -0.00343558)
(6.98071e-05 0.000686538 -0.00438737)
(0.00126968 -0.00184613 -0.00406154)
(5.5402e-05 6.2979e-05 -0.0030151)
(-0.00132505 0.00158243 -0.00464743)
(0.00150203 0.000880791 -0.00442546)
(-0.00155329 0.00123137 -0.00436196)
(0.00149514 0.000919002 -0.0044073)
(-0.00152275 0.00116474 -0.00438593)
(0.00152533 0.000971326 -0.00438348)
(-0.00152301 0.00115996 -0.00436895)
(0.00173395 0.00098533 -0.0044285)
(-0.00125363 0.00136693 -0.00420007)
(0.000609447 0.000119892 -0.00401329)
(-0.000831171 0.000473939 -0.0031181)
(-0.000542549 0.000711269 -0.0032324)
(0.000920792 0.00117263 -0.00432268)
(9.16294e-05 -9.47392e-05 -0.00291565)
(-0.000498274 -0.000475988 -0.00390145)
(0.000622229 0.000142747 -0.00535126)
(-0.00168503 0.000278533 -0.00331373)
(-0.000612752 0.000533271 -0.00338023)
(0.00197323 6.51651e-05 -0.00301421)
(-8.58754e-05 0.00014057 -0.00379261)
(3.31216e-05 2.58764e-05 -0.00324538)
(6.06556e-05 3.97077e-06 -0.00342323)
(0.000289058 4.46531e-06 -0.00340016)
(0.00136142 0.00165061 -0.0041741)
(-0.000308354 -0.000894146 -0.0036879)
(-2.81678e-05 2.73925e-05 -0.00363855)
(-0.000145634 0.000902018 -0.00374006)
(0.000641286 2.51499e-05 -0.00544502)
(-0.00149284 -2.79605e-05 -0.00322316)
(-0.00149331 0.000130959 -0.00325273)
(0.00327684 2.51157e-05 -0.00306199)
(-0.000143648 0.000956873 -0.00376868)
(0.00105069 -0.00160847 -0.00412576)
(0.00171119 0.0014402 -0.00449137)
(-1.05097e-05 2.21091e-05 -0.00353285)
(1.179e-05 -2.8373e-05 -0.00374094)
(1.40957e-05 -4.88648e-06 -0.00366819)
(8.21909e-06 -4.55445e-07 -0.00350342)
(3.79283e-06 1.91258e-06 -0.00336538)
(1.36402e-06 2.04051e-06 -0.00323876)
(-4.51054e-07 2.20308e-06 -0.00312847)
(-3.57846e-06 4.22921e-06 -0.00303725)
(-8.53654e-06 7.95777e-06 -0.00298356)
(1.31929e-05 -1.29776e-05 -0.00339016)
(-4.53289e-06 3.53225e-06 -0.00334421)
(-0.000392997 0.00040231 -0.0023422)
(-0.000387463 -0.000165079 -0.00253688)
(4.1315e-05 -5.70845e-05 -0.0033868)
(0.000246748 -0.000310045 -0.00279524)
(1.38736e-05 0.000381533 -0.00247589)
(0.000376082 -0.000211673 -0.003009)
(-0.000449866 -0.000412876 -0.00296683)
(-3.371e-05 -0.000565072 -0.00417835)
(-0.00010392 -0.000638449 -0.00311329)
(0.000697451 -2.57298e-05 -0.00409143)
(0.000573567 0.000468165 -0.00293864)
(0.000159245 -0.000353155 -0.00306848)
(0.000448582 3.31283e-05 -0.00402129)
(0.0002897 0.000385768 -0.00292638)
(0.0002202 -0.000384208 -0.00300333)
(0.000481621 1.6201e-05 -0.00405766)
(0.00024286 0.000401013 -0.00297174)
(0.000260568 -0.000411184 -0.00294745)
(0.000489995 -1.29951e-05 -0.00407619)
(0.000212555 0.00037449 -0.00301367)
(0.000410293 -0.000449251 -0.00296565)
(0.000556964 -3.57666e-05 -0.00418518)
(0.00063129 -0.000103985 -0.00311575)
(2.71305e-05 0.000687859 -0.00409197)
(-0.000462929 0.000569719 -0.0029461)
(2.53752e-05 -0.000373996 -0.0024844)
(0.000308665 0.000247843 -0.00279564)
(-0.000374188 0.000192639 -0.00250145)
(-0.00040171 -0.000394621 -0.0023466)
(5.76916e-05 4.28168e-05 -0.00338732)
(0.000165629 -0.000386385 -0.00253709)
(9.09716e-05 0.000303038 -0.0025194)
(-0.000314375 0.000311594 -0.00231561)
(-0.000345555 -0.000343606 -0.00233096)
(6.49772e-05 -5.1749e-06 -0.0033813)
(0.000102555 -0.00032042 -0.00252285)
(0.000123713 0.000321666 -0.00251312)
(-0.00034102 0.000347437 -0.00231704)
(-0.000323462 -0.000311964 -0.00233637)
(6.55217e-05 -1.0451e-06 -0.00338037)
(6.72759e-05 -0.000298022 -0.00252779)
(0.000196102 0.000378542 -0.00250021)
(-0.000373881 -2.44815e-05 -0.00248343)
(0.000487919 -1.84202e-05 -0.00328221)
(-0.0010535 0.00119129 -0.00262163)
(-0.0014115 -0.000933412 -0.00310664)
(0.00122325 0.00103692 -0.00362965)
(-0.00143959 -0.00110847 -0.00356949)
(-6.07937e-05 3.78649e-05 -0.00225613)
(-0.00098431 -0.000709194 -0.00328624)
(8.38335e-06 -1.4358e-05 -0.00232762)
(0.000956959 -4.78813e-06 -0.00314671)
(-0.000229522 -0.000131614 -0.00215047)
(0.00113647 0.000341 -0.00290713)
(0.000563279 -0.000682211 -0.0030042)
(0.000840084 0.000678824 -0.00279091)
(-0.00126232 -0.00114211 -0.00289669)
(0.00049183 2.6476e-06 -0.00335638)
(-0.00108774 0.00116665 -0.00276574)
(0.000727308 -0.00115796 -0.00342184)
(0.000948093 0.00120558 -0.00339773)
(-0.00116638 -0.00124003 -0.00330253)
(2.85642e-05 5.20491e-06 -0.00275008)
(-0.000991623 0.00122174 -0.00329693)
(0.000880955 -0.00126264 -0.00340461)
(0.00109649 0.0013096 -0.00341141)
(-0.00117712 -0.00131938 -0.00341574)
(-3.77318e-06 4.96967e-06 -0.00284178)
(-0.000986588 0.00129024 -0.00341976)
(0.000951263 -0.0013155 -0.00347496)
(0.00116215 0.00135805 -0.0034792)
(-0.00120766 -0.00137146 -0.00351618)
(2.21448e-06 3.24856e-06 -0.00292455)
(-0.00100778 0.00133985 -0.00351954)
(0.000997767 -0.00136456 -0.0035815)
(0.00121182 0.00140608 -0.0035845)
(-0.00125551 -0.00142381 -0.00363461)
(5.84757e-06 2.95797e-06 -0.00302319)
(-0.00104823 0.00139163 -0.00363944)
(0.00103262 -0.00142192 -0.00371398)
(0.00125874 0.00146496 -0.00371883)
(-0.00132326 -0.00148162 -0.00377111)
(8.20863e-06 3.96828e-06 -0.00314051)
(-0.00110761 0.00144854 -0.00377901)
(0.00105784 -0.00148925 -0.00386954)
(0.00130375 0.00153506 -0.00387814)
(-0.00140978 -0.00154088 -0.00392305)
(1.1486e-05 5.31046e-06 -0.00327336)
(-0.00117923 0.0015042 -0.00393461)
(0.00106973 -0.00155901 -0.00403701)
(0.0013429 0.00160645 -0.0040506)
(-0.00149708 -0.00157615 -0.00409091)
(1.81308e-05 6.93281e-06 -0.00340603)
(-0.00123729 0.00153127 -0.0041078)
(0.0010504 -0.00161179 -0.00414384)
(0.00131081 0.00162532 -0.00415695)
(-0.000277898 -0.000894558 -0.00373197)
(0.000612848 -4.41341e-06 -0.00544747)
(-0.00148102 -7.1929e-05 -0.00322392)
(-0.00151032 3.14082e-05 -0.0032128)
(0.00329592 -2.72993e-05 -0.00307238)
(-0.000118911 -1.57716e-06 -0.00430221)
(-0.000129518 1.0098e-05 -0.00429077)
(6.82085e-05 1.38162e-05 -0.00342349)
(0.000312338 2.55246e-07 -0.00340163)
(0.00135308 0.00165385 -0.00416202)
(-0.000241184 -0.000890585 -0.00371743)
(-1.43657e-05 6.92589e-06 -0.00359614)
(-0.000271513 0.00106315 -0.00376751)
(0.000584566 -0.00014794 -0.00543096)
(-0.00150837 -4.75756e-05 -0.00324189)
(-0.00148446 3.97208e-05 -0.00321161)
(0.00327678 -5.37698e-05 -0.00307839)
(-0.000174788 0.000898787 -0.00371805)
(0.00105082 -0.00162866 -0.00414872)
(-2.94279e-05 9.59597e-06 -0.00363695)
(1.96147e-05 7.27062e-06 -0.00367152)
(1.68984e-05 2.03799e-05 -0.00366175)
(1.05325e-05 1.27979e-05 -0.00350307)
(5.24362e-06 6.5807e-06 -0.00336718)
(2.13419e-06 2.82931e-06 -0.00324034)
(-4.41303e-08 2.0781e-07 -0.00312944)
(-3.2936e-06 -3.4963e-06 -0.00303769)
(-7.75355e-06 -8.67921e-06 -0.00298354)
(1.31628e-05 1.27356e-05 -0.00339008)
(-4.16067e-06 -4.65612e-06 -0.00334512)
(0.000312164 -0.000323793 -0.00233207)
(-0.000346546 -0.000344933 -0.00232497)
(0.000345386 -0.00034511 -0.00232317)
(-0.00031357 -0.000324521 -0.00233187)
(6.49521e-07 6.66684e-05 -0.00337996)
(0.000313855 0.000113953 -0.00251292)
(-0.000296511 7.16765e-05 -0.00252692)
(-1.62873e-06 -0.000435671 -0.00254009)
(-0.000372967 0.000227887 -0.00300263)
(2.19341e-07 -0.000461419 -0.00422314)
(-0.000313874 0.000114199 -0.00251362)
(-2.07102e-07 6.68005e-05 -0.00338012)
(0.000295799 7.18299e-05 -0.00252621)
(1.16454e-05 -0.000456006 -0.00419939)
(0.000348309 0.00015848 -0.00305948)
(-2.84636e-05 0.000436239 -0.00400798)
(-0.000376627 0.00028134 -0.0029244)
(1.22161e-06 -0.000435505 -0.00254073)
(0.000372464 0.000228363 -0.00300238)
(-3.78121e-07 0.000473577 -0.00400884)
(-5.05069e-08 0.000661463 -0.00214125)
(0.000660389 0.000698855 -0.00287872)
(-0.00113772 -0.0011478 -0.00276744)
(0.00113642 -0.00114522 -0.00276424)
(-0.00112389 -0.00123247 -0.00289759)
(0.0011888 0.000898637 -0.00339532)
(-0.0012241 -0.00112126 -0.00330314)
(0.00129149 0.00103866 -0.0034095)
(-0.00130117 -0.00112334 -0.00341587)
(0.00133895 0.00110088 -0.00347838)
(-0.00135215 -0.00114943 -0.00351588)
(0.0013863 0.00114861 -0.00358445)
(-0.00140389 -0.0011937 -0.00363442)
(0.00144451 0.00119364 -0.00371958)
(-0.00146084 -0.00125798 -0.00377089)
(0.00151408 0.00123746 -0.00388036)
(-0.0015194 -0.00134238 -0.00392191)
(0.0015861 0.0012791 -0.00405543)
(-0.00155546 -0.00143255 -0.0040867)
(0.00163258 0.00130885 -0.00418354)
(-0.000887573 -0.000279611 -0.00368467)
(1.9342e-05 0.000652842 -0.00544607)
(0.000896602 -0.000187816 -0.00375479)
(2.45187e-05 -2.37182e-05 -0.00363737)
(-0.00159211 0.00113318 -0.00413432)
(0.00151424 -0.00131911 -0.00411788)
(8.05652e-06 2.21139e-05 -0.00340793)
(-0.0015402 0.00115981 -0.00403593)
(0.00148532 -0.001268 -0.00393968)
(5.38151e-06 1.35677e-05 -0.00327501)
(-0.00147113 0.00114753 -0.00387139)
(0.00142953 -0.00119511 -0.00378101)
(3.52454e-06 9.2594e-06 -0.00314166)
(-0.00140452 0.00111848 -0.0037164)
(0.00137302 -0.00113216 -0.00363986)
(2.38334e-06 6.25206e-06 -0.00302385)
(-0.00134779 0.00107935 -0.00358387)
(0.00132179 -0.00108761 -0.00351898)
(2.30849e-06 2.12767e-06 -0.00292483)
(-0.00129946 0.00102944 -0.00347802)
(0.00127292 -0.00106121 -0.00341784)
(3.46697e-06 -4.27707e-06 -0.00284178)
(-0.00124785 0.00095442 -0.00340938)
(0.00120456 -0.00105867 -0.00329342)
(3.85936e-06 2.72452e-05 -0.00274935)
(-0.00114308 0.000787483 -0.00342651)
(7.08157e-07 -7.26884e-05 -0.0028035)
(0.00114279 0.000786811 -0.00342272)
(-0.00120516 -0.00106032 -0.00329707)
(-5.35032e-06 2.72925e-05 -0.00274939)
(-0.00118695 0.000903309 -0.00339876)
(0.00112226 -0.00122541 -0.00289693)
(-2.11282e-06 0.000491083 -0.0033557)
(-0.000665992 0.00081107 -0.00278494)
(-4.32688e-05 0.000605926 -0.00216725)
(0.000677414 0.000567325 -0.0030108)
(-0.00117826 -0.00108096 -0.00262609)
(0.00114299 0.000712838 -0.00343721)
(-0.00121127 -0.00101959 -0.00330942)
(0.00122791 0.000910699 -0.00340309)
(-0.00126263 -0.00101843 -0.00343525)
(0.00127806 0.000989755 -0.00347665)
(-0.00130158 -0.0010431 -0.00352854)
(0.00132697 0.00103936 -0.00358767)
(-0.0013471 -0.00108681 -0.00364423)
(0.00138734 0.00107952 -0.00372545)
(-0.00139904 -0.00115267 -0.00377945)
(0.00146292 0.0011161 -0.00389352)
(-0.00144736 -0.0012313 -0.00391797)
(0.00154637 0.00114674 -0.00408451)
(-0.00145882 -0.00127354 -0.00404915)
(0.00160266 0.00114239 -0.00419647)
(-0.000875168 -0.000178802 -0.00370566)
(-0.000192822 0.000475696 -0.00537036)
(0.000378285 -0.000509051 -0.00391718)
(4.66758e-05 8.17274e-07 -0.0035087)
(-0.00148846 0.00156836 -0.00446276)
(0.00131156 -0.00186474 -0.0044268)
(1.7087e-05 4.15773e-05 -0.00330005)
(-0.00140284 0.0016485 -0.00434399)
(0.001328 -0.0017445 -0.00422651)
(1.36358e-06 2.3594e-05 -0.00317207)
(-0.00130251 0.00160662 -0.00415639)
(0.00127198 -0.00161376 -0.00404777)
(-2.72329e-06 1.26681e-05 -0.00303901)
(-0.001236 0.0015431 -0.00398125)
(0.0012155 -0.00152442 -0.00389401)
(-3.17961e-06 7.14388e-06 -0.00292384)
(-0.00118845 0.00148785 -0.00383813)
(0.00117338 -0.0014666 -0.00376926)
(-6.78922e-06 1.8484e-06 -0.00282967)
(-0.00114975 0.00144058 -0.0037249)
(0.00114393 -0.00142792 -0.00366877)
(-1.52494e-05 -2.32867e-06 -0.00275344)
(-0.00110796 0.00138344 -0.00365302)
(0.00110713 -0.00141335 -0.00357068)
(-3.36406e-05 3.39443e-05 -0.00266836)
(-0.00101587 0.00121107 -0.00362909)
(0.000925927 -0.00139258 -0.0031061)
(1.97107e-05 0.000488101 -0.00328124)
(-0.000334856 0.0011329 -0.00290622)
(0.000569549 0.00100636 -0.00306847)
(0.00093687 -0.000505281 -0.00267894)
(2.83725e-05 0.000963168 -0.00315691)
(0.000116152 -0.000228352 -0.00214444)
(-0.000171186 0.00018008 -0.00244765)
(0.000480518 0.00115233 -0.00278896)
(-0.00148207 -0.000997638 -0.00256125)
(0.00113003 0.00093491 -0.00351685)
(-0.00142552 -0.000886088 -0.00344647)
(-0.000959925 0.0014195 -0.00332075)
(-0.00118721 -0.00124994 -0.00329888)
(3.32765e-05 -9.95344e-06 -0.00274231)
(0.000777152 -0.00138982 -0.0033993)
(0.000859749 0.0011856 -0.00344902)
(-0.00123165 -0.00120721 -0.00266578)
(0.000475463 3.53004e-05 -0.00336963)
(-0.00110494 0.00127062 -0.0029647)
(-8.2554e-05 5.65952e-05 -0.00282539)
(5.86673e-05 2.41606e-05 -0.00277654)
(-0.000446342 -0.000358862 -0.00407686)
(3.81324e-05 3.51456e-05 -0.00328582)
(-1.80497e-05 -2.87991e-05 -0.00311537)
(-0.000473214 1.88462e-05 -0.00418663)
(4.71989e-05 -6.94647e-06 -0.00301234)
(-7.71242e-05 -2.50554e-06 -0.00280915)
(-0.00112149 0.00116199 -0.00286315)
(-0.00121632 -0.00116424 -0.00278266)
(0.000881959 0.00117067 -0.00342634)
(-0.00115035 -0.00122477 -0.00329342)
(1.28085e-05 2.63044e-07 -0.00280026)
(0.00105929 0.00127493 -0.0034118)
(-0.00116643 -0.00129637 -0.00341783)
(0.00114119 0.0013284 -0.00347984)
(-0.00119918 -0.00134647 -0.00351908)
(3.85646e-06 1.15145e-06 -0.00292631)
(0.00119792 0.0013793 -0.00358679)
(-0.00124886 -0.00139717 -0.00363789)
(0.00124598 0.00143983 -0.00372206)
(-0.00131792 -0.00145185 -0.00377428)
(4.34028e-05 1.55638e-06 -0.00314189)
(0.00128823 0.00151075 -0.00388186)
(-0.00139922 -0.0015047 -0.00392458)
(0.00131848 0.00158087 -0.00405226)
(-0.00146511 -0.00153182 -0.00409378)
(0.000302718 -2.47238e-06 -0.00340485)
(6.7401e-05 2.22607e-06 -0.00342668)
(3.96408e-05 3.64619e-06 -0.00328693)
(4.21327e-05 1.17189e-05 -0.00328771)
(1.70065e-05 6.4993e-06 -0.00315895)
(4.60409e-05 4.663e-06 -0.00314812)
(0.00133209 0.00152461 -0.00389528)
(-0.00143587 -0.00150273 -0.00392544)
(1.93017e-05 7.78945e-06 -0.00326965)
(-0.00116468 0.00177831 -0.00396034)
(0.000984029 -0.00179654 -0.00401046)
(0.00137044 0.00160872 -0.0040754)
(-0.00147056 -0.00151654 -0.00407256)
(3.58911e-05 1.56307e-05 -0.00339627)
(-0.00129148 0.00184358 -0.00415249)
(0.000921895 -0.00179277 -0.00407989)
(0.00184402 0.00114419 -0.00455352)
(-0.000206414 -0.000808609 -0.00356641)
(4.45023e-05 -0.00132975 -0.00535094)
(-0.00162042 -9.29048e-05 -0.00328602)
(-0.00149767 -1.64332e-05 -0.00313838)
(0.00310767 -0.000480008 -0.00315509)
(-0.000196594 -0.000124576 -0.00415282)
(4.73945e-05 3.34799e-05 -0.00322574)
(8.069e-05 0.000844945 -0.00288185)
(-0.000906601 0.00109136 -0.00417055)
(0.000202176 8.41071e-05 -0.00275764)
(0.000679934 -0.00172276 -0.00392921)
(-0.00070418 0.00128467 -0.00397185)
(5.6111e-05 1.04312e-05 -0.00263185)
(0.000699964 -0.00139515 -0.00383388)
(-0.000633563 0.00125374 -0.00378283)
(7.95791e-06 -4.99523e-06 -0.00251869)
(0.00065476 -0.00125991 -0.00370885)
(-0.000624177 0.001221 -0.00364151)
(-1.81139e-06 -1.51338e-06 -0.00242548)
(0.000604028 -0.00117376 -0.00356643)
(-0.00058561 0.00117648 -0.00350021)
(-1.60027e-05 -9.87296e-06 -0.00235077)
(0.000611057 -0.00113811 -0.00347235)
(-0.000550569 0.00118911 -0.00340662)
(-3.74289e-05 -2.14004e-05 -0.00229606)
(0.000630592 -0.00106054 -0.00338386)
(-0.000424898 0.00119056 -0.00331682)
(-6.12081e-05 -7.52122e-05 -0.00225455)
(0.000736084 -0.000932471 -0.00330265)
(0.000278816 0.000300488 -0.002524)
(0.000205938 0.000452793 -0.00243324)
(-5.35977e-05 -0.00056245 -0.00303966)
(-2.78465e-05 3.50377e-06 -0.00266093)
(0.000292696 0.000921812 -0.00297538)
(-0.000128403 -0.000793996 -0.00311418)
(0.00132787 0.000930341 -0.00347319)
(-0.00143304 -0.000919463 -0.00354572)
(0.00141922 0.000945538 -0.0035601)
(-0.00146899 -0.00094909 -0.0036308)
(-0.00095095 0.00154405 -0.00352112)
(-0.00123356 -0.00135349 -0.00352867)
(1.83512e-06 -3.37486e-06 -0.00291863)
(0.000928936 -0.00152647 -0.00348577)
(0.00117187 0.00133029 -0.00348368)
(-0.0012 -0.00130928 -0.0034309)
(-3.0244e-06 -7.94927e-06 -0.00283774)
(-0.000929522 0.00148968 -0.00342019)
(5.42093e-06 3.14482e-07 -0.00285383)
(-3.21235e-07 -4.40159e-06 -0.00270134)
(9.32113e-06 -2.82467e-06 -0.00265321)
(-2.00476e-06 -8.41611e-05 -0.00235758)
(1.70575e-05 1.24201e-05 -0.00275142)
(7.53933e-05 0.000114592 -0.00266765)
(6.90707e-05 0.000126005 -0.00255883)
(0.000122409 5.08905e-05 -0.00298469)
(-4.59135e-05 2.35257e-05 -0.00296519)
(1.59905e-05 7.36071e-05 -0.00289821)
(0.000522667 5.16425e-05 -0.00291172)
(0.000828112 -6.65495e-05 -0.00225715)
(0.000690942 0.00107744 -0.00368021)
(0.000233879 0.000345333 -0.00203916)
(0.00105343 7.47568e-05 -0.00274252)
(0.000418403 0.0002582 -0.00291918)
(0.000200671 5.34922e-05 -0.00286934)
(6.44016e-05 1.36992e-05 -0.00293066)
(3.12238e-05 9.68005e-06 -0.00304909)
(-3.09196e-05 5.75166e-06 -0.00300484)
(-2.92361e-05 4.65586e-06 -0.00308252)
(1.46625e-06 5.59819e-07 -0.0031426)
(2.45686e-05 -1.32182e-06 -0.00300502)
(-0.000171127 -0.000857608 -0.0031858)
(-1.28768e-06 -1.47739e-06 -0.00281882)
(0.000203625 0.000884033 -0.0031955)
(-0.000187467 -0.000892678 -0.00326115)
(0.00148159 0.000972233 -0.00368466)
(-0.00152561 -0.000983774 -0.00374267)
(0.00154536 0.0010178 -0.00382981)
(-0.00161631 -0.001024 -0.00387766)
(-0.00105989 0.00168356 -0.00378891)
(-0.00135747 -0.00145475 -0.00378173)
(1.06967e-05 2.50499e-06 -0.00313564)
(0.000984892 -0.00163901 -0.00372056)
(0.00128424 0.00144596 -0.00372978)
(-0.00128555 -0.00140189 -0.00364594)
(6.28151e-06 -4.1482e-07 -0.00301721)
(-0.000993037 0.00160568 -0.00364387)
(1.05869e-05 3.84472e-06 -0.00303284)
(4.91323e-06 1.65251e-06 -0.00287693)
(2.32535e-07 -1.74122e-06 -0.00277875)
(-7.82567e-07 -7.46067e-06 -0.00246763)
(-1.97111e-06 -1.80991e-05 -0.00288249)
(4.42913e-06 5.80169e-06 -0.00284925)
(5.94259e-06 4.31023e-06 -0.00272743)
(2.26187e-06 -8.70667e-06 -0.00280072)
(1.54058e-05 3.48643e-05 -0.00270624)
(2.28124e-05 2.49712e-05 -0.00259804)
(0.000232231 0.000879702 -0.00310182)
(-3.00039e-06 2.48958e-06 -0.00274554)
(-2.96313e-06 -3.95852e-05 -0.00240038)
(-7.2271e-06 2.01689e-06 -0.00299533)
(1.64935e-06 -6.63625e-05 -0.0029808)
(3.11142e-06 3.57755e-06 -0.00291082)
(-2.96012e-05 0.000568531 -0.00289707)
(6.85319e-05 0.00108448 -0.00273613)
(-0.000790418 0.00199246 -0.00265366)
(-3.02742e-06 0.000206529 -0.00264676)
(1.01307e-05 -2.98484e-05 -0.00232169)
(3.62327e-07 -1.07469e-05 -0.00291228)
(-1.07046e-05 -5.15747e-05 -0.0028751)
(0.00122444 -0.00111421 -0.00330133)
(2.44605e-08 3.06029e-06 -0.00279584)
(-0.00129076 0.00104641 -0.00341211)
(0.00124791 0.00095251 -0.00340639)
(-0.00127276 -0.00106165 -0.00342054)
(-4.32469e-06 -4.20787e-06 -0.00284228)
(0.00130333 -0.00111928 -0.00341499)
(4.37161e-07 5.17253e-06 -0.00284265)
(-0.00133847 0.00110767 -0.00347988)
(0.00130074 0.00102784 -0.00347664)
(-0.00132045 -0.00108693 -0.00351988)
(-1.72022e-06 2.26103e-06 -0.00292566)
(0.00135585 -0.00114952 -0.00351697)
(1.32033e-06 3.18963e-06 -0.00292026)
(-0.0013852 0.00115174 -0.00358473)
(0.00135094 0.00107948 -0.0035852)
(-0.0013698 -0.00113098 -0.003638)
(3.34486e-07 6.48062e-06 -0.00302516)
(0.00140979 -0.00119853 -0.00363806)
(2.22221e-06 1.53505e-05 -0.00301962)
(-0.00144266 0.00119062 -0.00371797)
(0.00141037 0.00112227 -0.00372175)
(-0.00142347 -0.00119468 -0.00377404)
(2.46326e-06 9.73235e-06 -0.00314355)
(0.00147006 -0.0012697 -0.00377886)
(2.20945e-06 5.41923e-05 -0.0031354)
(-0.00151099 0.00121993 -0.0038729)
(0.0014803 0.00116019 -0.00388435)
(-0.00147528 -0.00127289 -0.00392196)
(5.7296e-06 1.44025e-05 -0.00327698)
(0.00153056 -0.00135946 -0.0039381)
(-1.98716e-06 0.000146709 -0.00326316)
(-0.00157921 0.00122638 -0.00403282)
(0.00155063 0.00119254 -0.00406049)
(-0.00150216 -0.00134303 -0.00408466)
(9.09953e-06 2.34108e-05 -0.00340707)
(0.00155736 -0.00143267 -0.00411468)
(-1.3463e-05 0.000352101 -0.00338962)
(-0.00161888 0.00119951 -0.00413329)
(0.00159601 0.00119941 -0.0041728)
(-0.000889471 -0.000221827 -0.0037263)
(-1.25793e-06 -2.2784e-05 -0.00363086)
(0.000882974 -0.000258478 -0.00372711)
(-5.55881e-05 0.00327416 -0.00309244)
(-0.000118666 -0.00148927 -0.00322592)
(-0.000118238 -0.0015243 -0.00310222)
(-0.000132923 0.00242399 -0.00291159)
(-0.00158769 0.000632096 -0.00413555)
(0.000383771 0.000254703 -0.00290403)
(0.000326507 -0.0021915 -0.0038894)
(-0.000132775 -0.000462473 -0.00315394)
(-0.000272374 -0.000272639 -0.00302158)
(-0.000127586 0.00109397 -0.00390067)
(-0.0017074 -0.0011428 -0.00398342)
(0.000364194 -2.02978e-05 -0.00338697)
(-0.000475137 2.78713e-05 -0.00358051)
(-0.000762775 -0.000153676 -0.00358612)
(-0.000254887 -0.000182798 -0.00353349)
(-0.000221994 -2.28842e-05 -0.00352093)
(-0.000244188 4.87987e-05 -0.00345202)
(-0.000113231 2.82411e-05 -0.00331138)
(-5.38008e-05 6.08304e-06 -0.00339003)
(1.55283e-05 -1.94205e-05 -0.00323027)
(-1.38672e-05 2.25568e-06 -0.00325644)
(-5.21558e-05 1.19569e-05 -0.00318697)
(-5.73343e-05 3.48077e-06 -0.00316403)
(-3.70954e-05 9.14333e-07 -0.00306428)
(-5.20063e-05 -1.80779e-06 -0.00299036)
(-8.59958e-05 -7.38432e-06 -0.00295297)
(9.8731e-06 -1.44842e-05 -0.0028809)
(0.000614056 -5.03995e-05 -0.00287033)
(0.000717799 -2.69141e-05 -0.00217999)
(0.000704164 0.000700866 -0.00297964)
(0.000811273 -0.000701148 -0.00263721)
(0.00100521 8.37499e-06 -0.00274835)
(0.000957097 4.53827e-06 -0.0027614)
(0.000747189 -0.000712201 -0.00280884)
(0.000752124 0.00070173 -0.00290232)
(0.000491278 -1.65748e-06 -0.00336425)
(-0.000436791 2.91383e-06 -0.00253486)
(0.000140904 -3.16156e-06 -0.00312306)
(-5.12076e-05 -5.31382e-05 -0.00308144)
(-3.58574e-05 -3.36838e-05 -0.00311426)
(0.000127893 0.000127257 -0.00316259)
(-0.000380797 1.36552e-05 -0.00247795)
(-1.03013e-06 0.000146441 -0.00311303)
(-5.91374e-07 -5.19345e-05 -0.00312144)
(-1.21946e-06 -6.36761e-05 -0.00310705)
(1.16932e-07 3.23632e-08 -0.00336743)
(-0.000240604 0.000234749 -0.00227777)
(-0.000274185 -0.000272947 -0.00229288)
(-0.000271756 0.000274106 -0.00228884)
(-0.000243523 -0.000233804 -0.00228499)
(0.000241467 -0.00023671 -0.00227767)
(-0.000204806 -0.000202249 -0.00226942)
(7.64455e-06 7.59115e-06 -0.00338301)
(0.000273057 0.000271837 -0.00228519)
(-0.000235452 0.000244531 -0.00228258)
(-0.00023639 -0.000244032 -0.00228338)
(7.58853e-06 -7.2524e-06 -0.00338323)
(0.000272033 -0.000273834 -0.00228899)
(2.9316e-09 1.02075e-08 -0.00338702)
(8.07282e-08 8.68195e-08 -0.00340462)
(1.59531e-07 1.72241e-05 -0.00339714)
(1.6965e-07 4.81933e-05 -0.00301255)
(-7.28879e-06 4.30522e-05 -0.00300697)
(9.58519e-06 -9.83835e-05 -0.00279441)
(-4.88539e-06 4.63291e-07 -0.00279261)
(-2.66309e-06 -1.88206e-06 -0.00284548)
(-1.95993e-07 -1.32856e-07 -0.00292906)
(1.89227e-06 5.33611e-06 -0.00303218)
(4.63728e-06 1.90233e-05 -0.0031512)
(1.66682e-05 8.23048e-06 -0.00298979)
(1.10734e-05 8.37393e-05 -0.00265804)
(7.91156e-07 -8.43597e-05 -0.0030957)
(3.12485e-05 -1.83171e-05 -0.0030588)
(-1.14746e-05 3.79047e-05 -0.0029248)
(0.000191691 0.000998903 -0.00345244)
(-0.000272925 -0.000936982 -0.00351195)
(0.00163466 0.00107726 -0.00402363)
(-0.00172123 -0.00108426 -0.00398121)
(0.00175553 0.00113699 -0.00429181)
(-3.36983e-05 -3.06769e-05 -0.0033315)
(-0.000513286 -0.0010159 -0.00355618)
(-7.98433e-05 1.88347e-05 -0.0029942)
(0.000141548 0.00110312 -0.00363786)
(-1.22519e-05 -7.47524e-06 -0.00317668)
(-2.21409e-05 -5.64813e-05 -0.00337727)
(-4.58979e-06 1.10254e-05 -0.00344506)
(-0.000116501 7.71821e-06 -0.0032831)
(-0.000230464 1.51025e-05 -0.00341841)
(-0.000453379 1.77688e-05 -0.00357799)
(-0.00103753 -1.33728e-05 -0.00386391)
(-0.00106231 -0.000181961 -0.00382072)
(-0.00260006 0.000623707 -0.00377779)
(-0.00119328 -0.000282349 -0.00351179)
(-0.00103885 -0.00116647 -0.00334042)
(-3.24547e-05 -0.000153804 -0.00339942)
(-0.000408385 -0.000154355 -0.00357947)
(0.000330762 -0.00237651 -0.00286498)
(-0.00213732 -0.000658699 -0.00316513)
(-0.00128269 8.43063e-05 -0.00434348)
(-0.000604878 -0.000967695 -0.00393062)
(0.000961059 0.000711969 -0.00405371)
(7.72217e-05 3.32671e-05 -0.00416354)
(4.82007e-05 3.8469e-05 -0.00273518)
(-0.00100075 0.000861593 -0.00342826)
(0.00105788 0.000722371 -0.00361161)
(6.34189e-06 9.94511e-05 -0.00428275)
(-0.000126428 -8.13913e-05 -0.00283022)
(-0.00109792 0.000956143 -0.00356602)
(0.00106275 0.000859459 -0.00363059)
(1.91268e-06 0.000106884 -0.00430336)
(-0.000140644 -9.78311e-05 -0.00284177)
(-0.00107151 0.000868099 -0.00352128)
(0.00105937 0.000979718 -0.00367407)
(9.06137e-06 9.96534e-05 -0.004289)
(-0.000229511 -0.000224114 -0.00289847)
(-0.00102243 0.00072085 -0.00348181)
(0.00075553 0.000998851 -0.00389511)
(-0.000611211 -0.000348255 -0.00533822)
(0.000507137 0.000532049 -0.00404056)
(0.00038499 -0.00046355 -0.0039449)
(0.00112638 0.000495398 -0.00496924)
(-0.00052932 -0.00195346 -0.00482961)
(-0.000303732 -0.00105976 -0.00391112)
(0.000167096 0.000186922 -0.00293745)
(0.000669751 -0.000482382 -0.00420904)
(-0.00215944 0.00102336 -0.00390526)
(-0.000117204 -6.22926e-05 -0.00361816)
(-0.0012624 -0.00167392 -0.0036987)
(0.00112378 0.000898767 -0.00372683)
(0.00104473 -1.77689e-05 -0.00283494)
(0.000988921 -0.00106607 -0.00385046)
(0.00124329 -0.00105535 -0.00434174)
(0.000590577 -0.00153039 -0.00307341)
(0.000126234 0.000617794 -0.00401597)
(0.00047426 -0.00083332 -0.00311987)
(0.000712132 -0.000538717 -0.00323526)
(0.00116558 0.000914866 -0.00432417)
(-0.000515682 -0.0018417 -0.00402059)
(0.000110162 -0.00021838 -0.00321217)
(0.000829127 0.00127295 -0.00415876)
(-0.000682421 -0.0015228 -0.0039557)
(2.15919e-06 -5.10454e-05 -0.00315248)
(0.000693732 0.00130201 -0.00395187)
(-0.000674656 -0.00133448 -0.00383353)
(-7.4739e-06 -7.86232e-06 -0.00302918)
(0.00064452 0.00125738 -0.00377766)
(-0.00063408 -0.00123566 -0.00369478)
(-3.9989e-06 -2.93998e-06 -0.00291824)
(0.000615822 0.00120442 -0.00362991)
(-0.000605982 -0.00118056 -0.00356855)
(-3.4104e-06 -1.00906e-06 -0.00281754)
(0.000593098 0.00116407 -0.00351096)
(-0.000592606 -0.00114311 -0.0034623)
(-7.81933e-06 1.15766e-05 -0.00274345)
(0.000557284 0.00113886 -0.00341241)
(-0.000612419 -0.00111011 -0.00338379)
(-4.7761e-05 6.44363e-05 -0.00264038)
(0.000463814 0.00115179 -0.00333653)
(-0.000700004 -0.000980044 -0.00328423)
(-0.000260067 0.000273579 -0.00254094)
(-9.5886e-06 0.000948056 -0.00314812)
(-0.000938105 -0.000527255 -0.00266519)
(-0.000580635 0.00100186 -0.00306449)
(0.000339032 0.00113198 -0.00290267)
(-0.000926516 -0.00140671 -0.00310501)
(0.00102988 0.00120715 -0.00363034)
(-0.00110031 -0.00142675 -0.00356871)
(3.12313e-05 3.52201e-05 -0.00266837)
(-0.00114563 0.000710544 -0.00344365)
(0.00117644 -0.00108149 -0.00262064)
(-1.75841e-05 0.000487549 -0.00328258)
(-0.000676679 0.000564586 -0.00300947)
(4.32302e-05 0.000611048 -0.00216765)
(0.000667001 0.000810989 -0.00278137)
(-0.000659813 0.000697452 -0.00288064)
(2.3816e-06 0.000490722 -0.00335644)
(3.94639e-06 0.000946069 -0.00275276)
(1.17395e-06 0.000564071 -0.00288895)
(9.66448e-07 -8.50172e-06 -0.00290576)
(1.5231e-06 -9.12154e-05 -0.00297314)
(1.5013e-06 -5.95517e-05 -0.00300956)
(1.11595e-06 -4.24881e-05 -0.00301694)
(1.91228e-06 -3.53643e-05 -0.00309346)
(3.95274e-06 -5.83564e-05 -0.0031955)
(-1.4181e-06 -3.67593e-05 -0.00298299)
(1.16211e-05 -3.88557e-06 -0.00289321)
(-4.67074e-07 1.31299e-05 -0.00277649)
(0.000199874 0.000918286 -0.00333343)
(-0.000209584 -0.000911321 -0.00340242)
(-4.0755e-06 -3.39544e-06 -0.00302993)
(2.63552e-07 -1.44666e-06 -0.00291181)