/*--------------------------------*- C++ -*----------------------------------*\
| =========                 |                                                 |
| \\      /  F ield         | OpenFOAM: The Open Source CFD Toolbox           |
|  \\    /   O peration     | Version:  2306                                  |
|   \\  /    A nd           | Website:  www.openfoam.com                      |
|    \\/     M anipulation  |                                                 |
\*---------------------------------------------------------------------------*/
FoamFile
{
    version     2.0;
    format      ascii;
    arch        "LSB;label=32;scalar=64";
    class       volVectorField;
    location    "0.4";
    object      flux;
}
// * * * * * * * * * * * * * * * * * * * * * * * * * * * * * * * * * * * * * //

dimensions      [0 1 -1 1 0 0 0];

internalField   nonuniform List<vector> 
5322
(
(-1.84954e-06 4.6036e-06 -6.04108e-06)
(1.79687e-07 7.1907e-07 -4.57152e-06)
(1.45034e-07 2.74332e-07 -2.59404e-06)
(-5.51125e-09 2.54603e-07 -2.7702e-06)
(-6.09374e-09 1.62871e-07 -1.15691e-06)
(-2.25023e-09 7.2508e-08 -3.9443e-07)
(-4.81487e-10 2.39676e-08 -1.10658e-07)
(-4.26138e-11 6.28075e-09 -2.58726e-08)
(1.10701e-11 1.36541e-09 -5.1377e-09)
(7.02248e-12 2.52539e-10 -9.00407e-10)
(2.76658e-12 3.54994e-11 -1.57976e-10)
(2.14847e-12 -1.25591e-11 -5.21658e-11)
(1.29769e-12 -3.51876e-12 -1.79538e-11)
(-6.53675e-12 -4.65438e-12 -3.65423e-11)
(2.89277e-12 -6.26915e-12 -4.77202e-11)
(3.26913e-11 3.03322e-11 -7.18026e-11)
(-1.8088e-11 3.14362e-11 -7.32621e-11)
(1.09139e-11 5.61147e-12 -8.07166e-11)
(-1.6484e-11 4.19054e-11 -1.81444e-10)
(1.2521e-10 -1.81633e-10 -4.59661e-10)
(-9.25902e-11 3.30452e-10 -1.27694e-09)
(7.99239e-10 -1.11771e-09 -3.03511e-09)
(-5.42758e-10 2.0546e-09 -7.80556e-09)
(4.26184e-09 -6.15355e-09 -1.71138e-08)
(-3.70529e-09 1.12186e-08 -4.01068e-08)
(1.87851e-08 -2.81675e-08 -7.96861e-08)
(-1.64368e-08 4.78491e-08 -1.69914e-07)
(7.02305e-08 -1.09913e-07 -3.1016e-07)
(-6.92333e-08 1.76785e-07 -5.95906e-07)
(2.13564e-07 -3.43449e-07 -9.80301e-07)
(-1.96827e-07 5.12669e-07 -1.69186e-06)
(5.60062e-07 -8.82742e-07 -2.54009e-06)
(-3.91163e-07 1.25638e-06 -3.88905e-06)
(1.2613e-06 -1.60968e-06 -5.14451e-06)
(2.92581e-07 1.88047e-06 -6.59311e-06)
(2.46355e-06 -1.31743e-06 -6.5034e-06)
(1.7572e-06 2.74368e-06 -8.14602e-06)
(-7.06021e-07 3.19931e-06 -7.66008e-06)
(1.86903e-06 1.64961e-06 -7.86855e-06)
(-1.25979e-07 1.94816e-06 -6.12927e-06)
(-1.79393e-06 2.36638e-06 -7.25659e-06)
(1.7799e-06 2.00478e-06 -7.4901e-06)
(-1.06692e-07 2.25407e-06 -5.99358e-06)
(-1.88838e-06 2.21553e-06 -7.47971e-06)
(1.89665e-06 2.11332e-06 -7.40526e-06)
(-5.36636e-08 2.2989e-06 -6.11069e-06)
(-1.99829e-06 2.14912e-06 -7.59805e-06)
(1.81065e-06 2.2981e-06 -7.20873e-06)
(-2.59109e-08 2.3474e-06 -6.07535e-06)
(-2.10609e-06 2.0579e-06 -7.56757e-06)
(-2.11656e-06 2.62254e-06 -8.93162e-06)
(-2.99506e-06 1.03083e-06 -5.52493e-06)
(-1.07122e-06 1.29478e-06 -8.05817e-06)
(1.72775e-06 -3.60662e-06 -6.45427e-06)
(-1.08188e-07 -1.48475e-07 -5.22892e-06)
(-2.74732e-06 -2.03613e-06 -6.05333e-06)
(-8.52279e-08 1.21126e-06 -8.07797e-06)
(2.60654e-06 -2.62644e-06 -5.90077e-06)
(-2.43188e-08 -8.72802e-08 -5.14931e-06)
(-2.5877e-06 -2.27107e-06 -5.99493e-06)
(-5.68516e-09 1.22956e-06 -8.13443e-06)
(2.53008e-06 -2.57067e-06 -5.97319e-06)
(-9.81721e-09 -7.5983e-08 -5.13892e-06)
(-2.54948e-06 -2.25719e-06 -5.85248e-06)
(5.49864e-09 1.23716e-06 -8.1459e-06)
(2.49662e-06 -2.6742e-06 -6.20955e-06)
(4.14817e-08 -1.2352e-07 -5.13895e-06)
(-2.53587e-06 -2.2084e-06 -5.59022e-06)
(1.6802e-07 1.26681e-06 -8.06378e-06)
(2.10339e-06 -3.06687e-06 -6.70352e-06)
(1.78375e-07 5.75045e-08 -4.32919e-06)
(-1.64173e-06 1.88674e-06 -5.75862e-06)
(1.8684e-06 1.03321e-06 -5.47127e-06)
(-1.91374e-06 1.46564e-06 -5.3828e-06)
(1.83641e-06 1.07601e-06 -5.4179e-06)
(-1.87053e-06 1.37941e-06 -5.39195e-06)
(1.87629e-06 1.14068e-06 -5.39158e-06)
(-1.87636e-06 1.37782e-06 -5.38603e-06)
(2.1566e-06 1.18031e-06 -5.51539e-06)
(-1.62687e-06 1.69882e-06 -5.35003e-06)
(6.98421e-07 5.84869e-08 -5.43912e-06)
(-1.45939e-06 8.71683e-07 -4.8353e-06)
(-1.05679e-06 1.20735e-06 -5.02714e-06)
(1.36972e-06 1.76475e-06 -5.85622e-06)
(8.20287e-08 -7.08339e-08 -3.37541e-06)
(-2.98615e-07 -4.64626e-07 -4.96821e-06)
(1.1713e-06 2.75351e-07 -8.42426e-06)
(-3.393e-06 4.94323e-07 -6.10738e-06)
(-7.7175e-07 1.32466e-06 -5.9004e-06)
(3.27776e-06 2.28702e-07 -4.79524e-06)
(-1.55372e-07 3.5556e-07 -5.69068e-06)
(2.82589e-09 4.78045e-08 -2.55977e-06)
(-1.57531e-09 4.70186e-09 -2.67934e-06)
(1.83101e-07 2.10308e-09 -2.67555e-06)
(1.31472e-06 1.55159e-06 -3.96362e-06)
(-1.23595e-07 -1.05029e-06 -4.71123e-06)
(1.51687e-07 3.55441e-08 -4.01055e-06)
(7.51802e-08 1.05441e-06 -4.7569e-06)
(1.19878e-06 3.61823e-08 -8.53543e-06)
(-2.97455e-06 -1.40716e-07 -5.89736e-06)
(-2.96564e-06 3.01354e-07 -6.01175e-06)
(5.29455e-06 4.04209e-08 -4.84013e-06)
(6.5997e-08 1.15125e-06 -4.80161e-06)
(1.02531e-06 -1.51046e-06 -3.93577e-06)
(1.68685e-06 1.3529e-06 -4.32391e-06)
(1.76866e-07 6.10097e-08 -3.92258e-06)
(4.13737e-08 -4.34885e-08 -4.06757e-06)
(1.42603e-08 -2.5668e-09 -2.81152e-06)
(2.79804e-09 2.34321e-09 -1.17211e-06)
(-9.97798e-10 2.82349e-09 -4.01248e-07)
(-1.02983e-09 1.47146e-09 -1.13659e-07)
(-4.54431e-10 5.34715e-10 -2.69862e-08)
(-1.38296e-10 1.49538e-10 -5.44798e-09)
(-3.22319e-11 3.34101e-11 -9.60904e-10)
(-7.81329e-12 8.00802e-12 -1.80735e-10)
(-1.86115e-12 1.93172e-12 -6.36383e-11)
(-1.24412e-11 1.28194e-11 -5.75342e-11)
(-7.08493e-12 1.30227e-12 -4.96021e-11)
(6.27261e-13 -7.97796e-13 -1.24803e-10)
(-9.51696e-13 2.24819e-13 -4.50489e-11)
(-1.86476e-12 7.97941e-12 -3.09234e-11)
(1.36529e-12 1.36312e-12 -2.4842e-11)
(-3.20259e-12 -5.9032e-13 -2.382e-11)
(-9.67506e-13 -2.8314e-12 -2.48919e-11)
(-2.63824e-12 -1.3917e-12 -2.12938e-11)
(4.2617e-12 5.75926e-13 -2.49017e-11)
(2.31086e-12 3.87042e-12 -2.36627e-11)
(-1.20742e-12 -1.27683e-12 -2.55032e-11)
(2.49065e-12 8.24712e-13 -2.83264e-11)
(3.41449e-15 3.00261e-12 -2.68315e-11)
(-8.04056e-13 -2.41941e-12 -2.7699e-11)
(2.80058e-12 8.61633e-14 -3.01931e-11)
(-7.31911e-13 2.45125e-12 -2.74145e-11)
(-3.73889e-13 -3.26286e-12 -2.6796e-11)
(2.6191e-12 -8.16822e-13 -2.80285e-11)
(-1.42646e-12 1.36605e-12 -2.4691e-11)
(4.88248e-13 -3.14629e-12 -2.37055e-11)
(2.76279e-12 -9.50313e-13 -2.48047e-11)
(1.26374e-12 -2.62553e-12 -2.12316e-11)
(-6.42202e-13 4.24424e-12 -2.49245e-11)
(-3.93421e-12 2.38561e-12 -2.38701e-11)
(-2.11236e-12 -7.16853e-12 -3.12347e-11)
(-3.99945e-13 -8.59704e-13 -4.5151e-11)
(-7.3937e-12 7.08097e-14 -4.93948e-11)
(-1.28981e-11 -1.23481e-11 -5.78138e-11)
(6.12996e-13 9.18214e-13 -1.25324e-10)
(-1.52916e-12 -6.82433e-12 -4.95331e-11)
(-5.06456e-12 9.70038e-13 -4.95227e-11)
(-8.9978e-12 5.42703e-12 -5.83373e-11)
(-1.14345e-11 -9.48236e-12 -6.16767e-11)
(1.41033e-12 -1.32536e-12 -1.40074e-10)
(-3.82246e-12 -3.96174e-12 -5.20738e-11)
(-3.27405e-12 3.93458e-12 -5.19876e-11)
(-1.12946e-11 9.63061e-12 -6.14104e-11)
(-8.83504e-12 -5.15883e-12 -5.84511e-11)
(1.70448e-12 8.80061e-13 -1.39857e-10)
(-5.22177e-12 -9.25242e-13 -4.95264e-11)
(-1.67277e-13 7.12807e-12 -4.88967e-11)
(-7.28808e-12 2.01791e-12 -3.09434e-11)
(6.2001e-12 2.74487e-12 -4.76656e-11)
(-3.0129e-11 3.24242e-11 -7.14472e-11)
(-3.14701e-11 -1.83182e-11 -7.35789e-11)
(6.83806e-11 6.537e-11 -2.25482e-10)
(-2.02705e-10 -1.50986e-10 -5.44489e-10)
(-2.52109e-11 2.99212e-11 -1.8899e-10)
(-4.27568e-11 -1.68334e-11 -1.83567e-10)
(-5.06978e-12 1.04488e-11 -8.12021e-11)
(2.68667e-11 1.28507e-11 -6.91938e-11)
(-5.74015e-12 4.37585e-12 -2.58872e-11)
(1.04915e-11 4.64589e-12 -3.26977e-11)
(4.64393e-12 -6.56526e-12 -3.64945e-11)
(8.09997e-12 8.38609e-12 -3.68294e-11)
(-3.53151e-11 -2.75894e-11 -7.9447e-11)
(6.65452e-12 8.12984e-13 -5.46627e-11)
(-3.276e-11 3.12108e-11 -7.88273e-11)
(3.81303e-11 -7.39928e-11 -2.40049e-10)
(5.33619e-11 8.05929e-11 -2.36038e-10)
(-1.97537e-10 -1.9275e-10 -5.63777e-10)
(1.19746e-11 5.11644e-12 -2.8524e-10)
(-1.77027e-10 2.04644e-10 -5.75193e-10)
(2.85122e-10 -4.9926e-10 -1.47588e-09)
(3.76174e-10 5.3574e-10 -1.46895e-09)
(-1.16888e-09 -1.23882e-09 -3.46531e-09)
(5.63959e-11 2.38535e-11 -1.80413e-09)
(-1.01717e-09 1.27708e-09 -3.51637e-09)
(1.81945e-09 -2.94469e-09 -8.42452e-09)
(2.31871e-09 3.1202e-09 -8.40638e-09)
(-6.19312e-09 -6.83465e-09 -1.86399e-08)
(4.13237e-10 9.60174e-11 -1.01324e-08)
(-5.293e-09 6.92499e-09 -1.88104e-08)
(9.76254e-09 -1.48919e-08 -4.16623e-08)
(1.21988e-08 1.56264e-08 -4.16172e-08)
(-2.83687e-08 -3.18819e-08 -8.52849e-08)
(2.38061e-09 3.34323e-10 -4.86013e-08)
(-2.39794e-08 3.18986e-08 -8.57968e-08)
(4.33772e-08 -6.36221e-08 -1.74233e-07)
(5.37758e-08 6.62748e-08 -1.74199e-07)
(-1.10458e-07 -1.24141e-07 -3.26519e-07)
(1.0743e-08 9.84093e-10 -1.95787e-07)
(-9.27317e-08 1.22874e-07 -3.27877e-07)
(1.57435e-07 -2.26383e-07 -6.06797e-07)
(1.95347e-07 2.34472e-07 -6.07187e-07)
(-3.58924e-07 -3.96828e-07 -1.03132e-06)
(3.80859e-08 2.3204e-09 -6.5287e-07)
(-2.98991e-07 3.88668e-07 -1.03434e-06)
(4.58676e-07 -6.57445e-07 -1.72952e-06)
(5.74589e-07 6.7763e-07 -1.73252e-06)
(-9.42704e-07 -1.00889e-06 -2.64544e-06)
(1.04635e-07 4.786e-09 -1.76804e-06)
(-7.72086e-07 9.77799e-07 -2.65265e-06)
(1.01936e-06 -1.51546e-06 -3.94222e-06)
(1.26423e-06 1.52279e-06 -3.94275e-06)
(-9.02306e-08 -1.05188e-06 -4.75494e-06)
(1.14912e-06 -1.01661e-08 -8.52661e-06)
(-2.93796e-06 -2.07747e-07 -5.89106e-06)
(-2.99946e-06 1.13998e-07 -5.87857e-06)
(5.29643e-06 -4.79843e-08 -4.84884e-06)
(-2.9041e-07 -2.82546e-09 -6.3243e-06)
(-3.01448e-07 8.63585e-09 -6.31752e-06)
(1.28103e-09 1.37444e-08 -2.68015e-06)
(2.0033e-07 2.91132e-09 -2.68484e-06)
(1.31836e-06 1.55831e-06 -3.97003e-06)
(-4.22713e-08 -1.04108e-06 -4.75122e-06)
(1.68508e-07 4.55427e-09 -4.00468e-06)
(-1.05703e-07 1.29081e-06 -4.87289e-06)
(1.118e-06 -2.34944e-07 -8.56489e-06)
(-2.98413e-06 -1.47138e-07 -5.94418e-06)
(-2.94582e-06 1.56059e-07 -5.86191e-06)
(5.26584e-06 -8.50586e-08 -4.86839e-06)
(3.96155e-08 1.05089e-06 -4.73387e-06)
(1.02126e-06 -1.53176e-06 -3.94468e-06)
(1.49058e-07 1.16235e-08 -4.00513e-06)
(5.85067e-08 6.07466e-09 -3.94055e-06)
(1.59093e-08 1.78134e-08 -2.80653e-06)
(3.7133e-09 4.52138e-09 -1.17515e-06)
(-7.17284e-10 -3.22591e-10 -4.0333e-07)
(-1.00281e-09 -8.23458e-10 -1.14371e-07)
(-4.64835e-10 -4.00948e-10 -2.71569e-08)
(-1.44049e-10 -1.26396e-10 -5.47892e-09)
(-3.38057e-11 -2.9885e-11 -9.6533e-10)
(-8.24047e-12 -7.3551e-12 -1.81362e-10)
(-2.01115e-12 -1.73023e-12 -6.38536e-11)
(4.97027e-12 -8.55753e-12 -5.8588e-11)
(-9.52005e-12 -1.10859e-11 -6.17866e-11)
(9.5255e-12 -1.11071e-11 -6.17541e-11)
(-4.95735e-12 -8.54723e-12 -5.85267e-11)
(1.1754e-12 2.2004e-12 -1.40785e-10)
(4.0472e-12 -3.11664e-12 -5.25316e-11)
(-9.12522e-13 -4.93165e-12 -5.0022e-11)
(6.57318e-13 -9.0346e-12 -3.62328e-11)
(-2.40087e-12 -5.4818e-13 -2.84694e-11)
(-4.59715e-16 -4.30283e-12 -7.25616e-11)
(-4.04863e-12 -3.1243e-12 -5.25536e-11)
(-1.12661e-12 2.18643e-12 -1.40877e-10)
(8.84083e-13 -4.94502e-12 -5.00317e-11)
(-6.50907e-13 -4.02015e-12 -6.87967e-11)
(1.19532e-12 -1.15685e-12 -2.58028e-11)
(-8.61672e-13 2.47208e-12 -2.88263e-11)
(-3.08063e-12 1.18874e-13 -2.74437e-11)
(-6.75813e-13 -9.05973e-12 -3.62425e-11)
(2.36323e-12 -5.65641e-13 -2.84088e-11)
(-1.79917e-14 2.89606e-12 -3.09328e-11)
(-3.20147e-14 4.14805e-12 -1.94072e-11)
(7.83551e-12 6.62672e-12 -3.9229e-11)
(-3.10454e-11 -3.45231e-11 -8.02852e-11)
(3.10218e-11 -3.44874e-11 -8.02428e-11)
(-2.72256e-11 -3.45453e-11 -8.07992e-11)
(8.1535e-11 5.23698e-11 -2.40178e-10)
(-1.90961e-10 -1.90017e-10 -5.70593e-10)
(5.3886e-10 3.64858e-10 -1.48836e-09)
(-1.22425e-09 -1.11496e-09 -3.49245e-09)
(3.11893e-09 2.23081e-09 -8.48391e-09)
(-6.74254e-09 -5.88267e-09 -1.87196e-08)
(1.55407e-08 1.1673e-08 -4.18662e-08)
(-3.14298e-08 -2.68981e-08 -8.54451e-08)
(6.56658e-08 5.12688e-08 -1.74838e-07)
(-1.22321e-07 -1.04713e-07 -3.26623e-07)
(2.31821e-07 1.85955e-07 -6.08674e-07)
(-3.91026e-07 -3.41019e-07 -1.03063e-06)
(6.69683e-07 5.48128e-07 -1.73614e-06)
(-9.95263e-07 -9.01137e-07 -2.64138e-06)
(1.53475e-06 1.26377e-06 -3.97493e-06)
(-1.04392e-06 -9.16243e-08 -4.70869e-06)
(2.91036e-08 1.21645e-06 -8.54265e-06)
(1.05224e-06 2.12053e-08 -4.7815e-06)
(3.06465e-08 1.5328e-07 -4.01048e-06)
(-1.49635e-06 1.09556e-06 -3.93327e-06)
(9.68254e-07 -8.25981e-07 -2.66093e-06)
(5.47966e-09 1.06369e-07 -1.76949e-06)
(-6.49168e-07 4.9669e-07 -1.72977e-06)
(3.84429e-07 -3.22353e-07 -1.03679e-06)
(2.42776e-09 3.8875e-08 -6.53641e-07)
(-2.23633e-07 1.71477e-07 -6.07744e-07)
(1.21594e-07 -1.00215e-07 -3.28677e-07)
(1.01609e-09 1.11053e-08 -1.96175e-07)
(-6.29029e-08 4.7509e-08 -1.74762e-07)
(3.163e-08 -2.59097e-08 -8.61201e-08)
(3.57052e-10 2.51751e-09 -4.87774e-08)
(-1.47475e-08 1.078e-08 -4.18833e-08)
(6.89096e-09 -5.70891e-09 -1.89306e-08)
(1.05073e-10 4.53968e-10 -1.01955e-08)
(-2.92453e-09 2.03514e-09 -8.49912e-09)
(1.27649e-09 -1.09271e-09 -3.55088e-09)
(2.61492e-11 6.62651e-11 -1.82151e-09)
(-4.97729e-10 3.24262e-10 -1.49559e-09)
(2.0542e-10 -1.88734e-10 -5.83057e-10)
(5.59651e-12 1.40009e-11 -2.89059e-10)
(-7.38648e-11 4.39104e-11 -2.44243e-10)
(-7.58258e-15 -1.29128e-11 -1.20398e-10)
(7.38201e-11 4.36607e-11 -2.4388e-10)
(-2.04874e-10 -1.88582e-10 -5.83477e-10)
(-5.4944e-12 1.39647e-11 -2.89102e-10)
(-8.12199e-11 5.2505e-11 -2.40125e-10)
(2.71651e-11 -3.43374e-11 -8.06364e-11)
(-9.26426e-13 7.04448e-12 -5.58517e-11)
(-8.5217e-12 8.07268e-12 -3.76376e-11)
(-1.31949e-12 3.39724e-12 -1.81539e-11)
(6.50341e-12 4.83572e-12 -3.7076e-11)
(-3.2693e-11 -3.09793e-11 -7.24943e-11)
(6.36559e-11 3.61844e-11 -2.29345e-10)
(-2.08629e-10 -1.71651e-10 -5.62907e-10)
(4.49645e-10 2.98245e-10 -1.4431e-09)
(-1.28459e-09 -1.0055e-09 -3.49685e-09)
(2.76608e-09 1.96085e-09 -8.38606e-09)
(-6.87984e-09 -5.32304e-09 -1.88469e-08)
(1.44054e-08 1.06135e-08 -4.19597e-08)
(-3.13046e-08 -2.4408e-08 -8.62526e-08)
(6.28798e-08 4.73583e-08 -1.7682e-07)
(-1.19405e-07 -9.55566e-08 -3.30022e-07)
(2.27671e-07 1.73656e-07 -6.20061e-07)
(-3.75318e-07 -3.11878e-07 -1.03825e-06)
(6.69161e-07 5.14351e-07 -1.77885e-06)
(-9.36387e-07 -7.97825e-07 -2.63311e-06)
(1.53109e-06 1.1361e-06 -4.03351e-06)
(-1.01955e-06 2.59483e-08 -4.74978e-06)
(-3.11022e-07 9.53267e-07 -8.50722e-06)
(4.08914e-07 -3.54815e-07 -5.1162e-06)
(4.32823e-08 1.80633e-07 -3.94209e-06)
(-1.42475e-06 1.59998e-06 -4.4248e-06)
(8.78343e-07 -1.15842e-06 -2.93947e-06)
(3.0006e-10 1.21804e-07 -1.74179e-06)
(-5.97101e-07 7.61296e-07 -1.93124e-06)
(3.54383e-07 -4.31584e-07 -1.12405e-06)
(-6.46159e-09 4.30075e-08 -6.40585e-07)
(-1.98294e-07 2.62131e-07 -6.68223e-07)
(1.08401e-07 -1.28072e-07 -3.4949e-07)
(-3.78329e-09 1.21774e-08 -1.90724e-07)
(-5.53878e-08 7.2473e-08 -1.89372e-07)
(2.70427e-08 -3.19449e-08 -8.98854e-08)
(-1.42864e-09 2.83334e-09 -4.69497e-08)
(-1.3037e-08 1.66269e-08 -4.46454e-08)
(5.62624e-09 -6.7602e-09 -1.92896e-08)
(-4.29321e-10 5.32673e-10 -9.67024e-09)
(-2.59249e-09 3.18897e-09 -8.81598e-09)
(9.89578e-10 -1.22614e-09 -3.48934e-09)
(-1.05922e-10 8.28228e-11 -1.69042e-09)
(-4.40995e-10 5.15236e-10 -1.48611e-09)
(1.49015e-10 -1.97857e-10 -5.44712e-10)
(-2.24377e-11 1.6585e-11 -2.58421e-10)
(-6.54071e-11 6.8198e-11 -2.25856e-10)
(1.77744e-11 -3.0891e-11 -7.35322e-11)
(-2.95458e-12 6.43263e-12 -4.8206e-11)
(-4.73831e-12 1.06072e-11 -3.28987e-11)
(2.82642e-12 7.20815e-12 -2.29686e-11)
(5.74305e-12 -2.69822e-12 -2.754e-11)
(-1.22959e-11 2.64344e-11 -6.77177e-11)
(-5.01408e-12 -5.70433e-12 -2.55495e-11)
(-3.66124e-12 -2.61081e-12 -2.96045e-11)
(7.83599e-12 1.80871e-11 -5.52334e-11)
(-3.61389e-11 -2.3142e-11 -6.31496e-11)
(4.66472e-11 4.13322e-11 -2.03508e-10)
(-2.19229e-10 -1.38737e-10 -5.24214e-10)
(-1.49522e-10 1.91161e-10 -5.18835e-10)
(-2.08206e-10 -2.15604e-10 -5.5687e-10)
(1.06265e-11 -1.46165e-11 -2.6467e-10)
(3.65338e-11 -8.87501e-11 -2.17742e-10)
(4.07811e-11 6.52377e-11 -2.26172e-10)
(-3.65158e-11 -3.34971e-11 -7.23891e-11)
(4.99619e-12 -1.80809e-12 -4.88706e-11)
(-2.68841e-11 2.47807e-11 -7.18663e-11)
(-1.56996e-11 -5.08006e-12 -1.00939e-10)
(-1.26093e-11 -8.84682e-12 -1.16736e-10)
(-5.88983e-12 -4.6947e-12 -5.60142e-11)
(-6.77628e-13 -4.71458e-13 -2.49052e-11)
(-1.34978e-12 -7.65158e-13 -2.73447e-11)
(-4.6091e-12 -5.38462e-13 -6.81235e-11)
(-2.03185e-11 -4.94686e-12 -1.38889e-10)
(-1.45504e-11 -4.90733e-12 -1.13251e-10)
(-3.20355e-11 2.76176e-11 -7.88776e-11)
(-3.6643e-11 -3.16385e-11 -7.94378e-11)
(4.76998e-11 7.39265e-11 -2.39638e-10)
(-2.05474e-10 -2.07088e-10 -5.76059e-10)
(-9.77663e-11 -1.80572e-12 -7.21907e-10)
(3.53057e-10 5.00608e-10 -1.47434e-09)
(-1.2022e-09 -1.28871e-09 -3.52258e-09)
(2.23126e-09 2.96725e-09 -8.41931e-09)
(-6.31016e-09 -6.96356e-09 -1.88522e-08)
(-2.38961e-09 1.53934e-12 -2.2211e-08)
(1.19169e-08 1.50863e-08 -4.16876e-08)
(-2.86997e-08 -3.19703e-08 -8.5981e-08)
(5.29845e-08 6.47699e-08 -1.7462e-07)
(-1.1111e-07 -1.22871e-07 -3.28343e-07)
(-1.97868e-08 4.82232e-10 -3.62428e-07)
(1.93163e-07 2.30939e-07 -6.08842e-07)
(-3.57922e-07 -3.8861e-07 -1.03424e-06)
(5.65276e-07 6.67795e-07 -1.73474e-06)
(-9.23545e-07 -9.81203e-07 -2.64855e-06)
(1.89547e-07 -4.1786e-09 -2.67871e-06)
(1.13615e-09 6.84197e-10 -2.67395e-06)
(-1.95486e-08 1.67731e-09 -1.11617e-06)
(-1.74805e-08 6.14172e-09 -1.1212e-06)
(-1.60584e-08 9.18152e-10 -3.83097e-07)
(-1.97272e-08 1.49026e-09 -3.65045e-07)
(2.02066e-07 2.34303e-07 -6.1569e-07)
(-3.69343e-07 -3.91248e-07 -1.04069e-06)
(4.12914e-08 3.67786e-12 -6.58931e-07)
(-2.976e-07 4.65142e-07 -1.05618e-06)
(4.38032e-07 -7.7847e-07 -1.75481e-06)
(5.99964e-07 6.88214e-07 -1.76147e-06)
(-9.27757e-07 -9.7392e-07 -2.64253e-06)
(1.20035e-07 7.44517e-09 -1.78358e-06)
(-8.1664e-07 1.20082e-06 -2.72848e-06)
(9.21036e-07 -1.7243e-06 -3.95134e-06)
(1.87995e-06 1.13291e-06 -4.58589e-06)
(2.70034e-08 -9.88548e-07 -4.7772e-06)
(2.45651e-07 -2.37309e-06 -8.9653e-06)
(-3.23667e-06 -2.05639e-07 -6.19976e-06)
(-3.02472e-06 7.77067e-08 -5.79612e-06)
(5.136e-06 -8.31868e-07 -5.11573e-06)
(-3.81276e-07 -2.35897e-07 -6.33231e-06)
(1.83541e-08 5.51041e-09 -2.6014e-06)
(4.28172e-08 8.18167e-07 -2.43812e-06)
(-7.79876e-07 8.78675e-07 -2.99894e-06)
(1.14825e-07 4.54201e-08 -1.54384e-06)
(2.29665e-07 -7.77762e-07 -1.88203e-06)
(-2.47627e-07 3.84899e-07 -1.09048e-06)
(6.11627e-09 -9.0249e-09 -5.40143e-07)
(8.06426e-08 -2.08401e-07 -6.35508e-07)
(-7.29904e-08 1.16874e-07 -3.27689e-07)
(-3.55456e-09 -6.19113e-09 -1.56613e-07)
(1.95365e-08 -5.22086e-08 -1.7769e-07)
(-1.92727e-08 2.95769e-08 -8.29754e-08)
(-1.71755e-09 -2.00736e-09 -3.79019e-08)
(3.44754e-09 -1.11343e-08 -4.11027e-08)
(-4.24964e-09 6.23761e-09 -1.73659e-08)
(-5.83058e-10 -5.61854e-10 -7.606e-09)
(6.06952e-10 -2.06634e-09 -7.9125e-09)
(-7.86386e-10 1.1416e-09 -3.04029e-09)
(-1.54339e-10 -1.27279e-10 -1.28315e-09)
(8.60508e-11 -3.02638e-10 -1.26656e-09)
(-1.19661e-10 1.81591e-10 -4.51183e-10)
(-3.49094e-11 -2.70158e-11 -1.85991e-10)
(1.78149e-11 -3.90668e-11 -1.78676e-10)
(1.5451e-12 1.34318e-12 -7.9496e-11)
(9.32787e-13 5.05795e-12 -7.10532e-11)
(-1.39406e-12 -3.52252e-11 -1.65095e-10)
(-7.36576e-12 -2.26781e-11 -2.21421e-10)
(4.74545e-11 8.42878e-11 -3.89975e-10)
(-4.85088e-11 -2.9711e-10 -1.1658e-09)
(3.8894e-10 3.00733e-10 -1.33724e-09)
(-1.34206e-09 -8.9514e-10 -3.37503e-09)
(2.64851e-09 1.9222e-09 -8.1217e-09)
(-7.33001e-09 -4.94264e-09 -1.87334e-08)
(-4.70462e-09 7.32727e-09 -1.81817e-08)
(-6.49404e-09 -7.15613e-09 -1.87536e-08)
(4.01604e-10 -2.63228e-10 -9.91557e-09)
(1.75838e-09 -3.51036e-09 -8.27746e-09)
(2.20133e-09 2.80979e-09 -8.26541e-09)
(-1.22765e-09 -1.3312e-09 -3.46745e-09)
(5.13252e-11 -6.99485e-11 -1.73076e-09)
(-8.73886e-10 1.27905e-09 -3.29335e-09)
(-5.03962e-10 -6.34176e-11 -4.0357e-09)
(-3.63316e-10 -2.5993e-10 -4.66178e-09)
(-7.56752e-11 -5.40645e-11 -7.82113e-10)
(-5.42092e-11 -4.98014e-11 -5.48482e-10)
(-8.51471e-11 -1.47786e-10 -8.43594e-10)
(-1.42672e-11 -5.30941e-11 -5.82748e-10)
(-2.10646e-11 -2.78007e-11 -5.18692e-10)
(-1.08614e-10 -2.27644e-11 -6.77458e-10)
(-2.5105e-10 1.70414e-12 -8.23791e-10)
(-3.38325e-11 -2.16484e-12 -1.39658e-10)
(8.64422e-12 -1.98759e-12 -4.3503e-11)
(3.87099e-12 -1.50729e-12 -1.50913e-11)
(4.51364e-12 8.37956e-12 -3.60449e-11)
(2.20228e-12 2.22249e-12 -2.28858e-11)
(1.96395e-11 -1.96029e-12 -5.8445e-11)
(-1.61817e-12 2.29003e-12 -1.06084e-10)
(4.41694e-11 -2.43065e-11 -3.14628e-10)
(2.15298e-10 -1.56171e-10 -2.01668e-09)
(-7.67896e-10 -1.78156e-10 -4.30973e-09)
(-1.44572e-09 6.57176e-11 -4.90808e-09)
(-7.06254e-09 5.50967e-10 -2.57025e-08)
(-3.93151e-09 -8.32064e-10 -2.35904e-08)
(1.10865e-09 -8.49529e-10 -1.15713e-08)
(-3.87367e-10 -1.88077e-09 -7.26832e-09)
(4.2198e-11 -5.50246e-10 -9.25024e-09)
(1.58474e-09 3.34796e-09 -1.57779e-08)
(-1.97564e-09 -1.01614e-08 -3.75496e-08)
(1.46556e-08 1.02461e-08 -4.193e-08)
(-3.42578e-08 -2.29269e-08 -8.74812e-08)
(6.65334e-08 4.55536e-08 -1.80334e-07)
(-1.36389e-07 -8.89828e-08 -3.40139e-07)
(-8.79945e-08 1.41347e-07 -3.29755e-07)
(-1.15185e-07 -1.24808e-07 -3.30384e-07)
(1.11394e-08 -1.38567e-09 -1.96369e-07)
(4.21028e-08 -7.53182e-08 -1.7627e-07)
(5.45519e-08 6.44733e-08 -1.75332e-07)
(-2.96823e-08 -3.26778e-08 -8.61374e-08)
(2.40538e-09 -7.52715e-10 -4.82624e-08)
(-2.20136e-08 3.52854e-08 -8.48272e-08)
(-7.3101e-09 2.74966e-10 -9.8111e-08)
(-3.91938e-09 -3.0335e-09 -1.02849e-07)
(-1.37761e-09 -1.0076e-09 -2.38437e-08)
(-1.04071e-09 -2.51045e-10 -1.86333e-08)
(-2.08698e-09 -4.87615e-09 -2.58296e-08)
(-4.63825e-10 -2.49016e-09 -2.13104e-08)
(-8.05536e-10 -1.65012e-09 -1.94695e-08)
(-4.69768e-10 -9.48016e-10 -5.00515e-09)
(-1.33213e-10 -4.57356e-10 -3.79263e-09)
(-1.75416e-10 -3.06942e-10 -3.42652e-09)
(2.97804e-10 5.66971e-10 -2.71798e-09)
(-9.05472e-12 -1.14384e-10 -1.55061e-09)
(-2.56953e-10 -1.62047e-10 -3.45964e-09)
(-4.17973e-11 2.48421e-10 -2.15956e-09)
(-7.16571e-12 -2.48465e-10 -9.13149e-10)
(-2.98432e-12 -3.46914e-11 -1.6049e-10)
(-2.3093e-12 1.30443e-11 -5.29493e-11)
(-1.33464e-12 1.97449e-11 -6.46267e-11)
(-1.14949e-11 3.22224e-11 -4.56028e-11)
(-1.34567e-11 -1.15181e-11 -1.41579e-10)
(-1.13427e-11 -7.01922e-12 -8.02484e-11)
(-1.21618e-11 3.89635e-11 -3.51162e-10)
(-6.35627e-12 2.31871e-11 -3.71379e-10)
(1.91623e-10 -1.89018e-10 -5.70342e-10)
(-1.32826e-11 -9.32771e-11 -7.14077e-10)
(-5.36972e-10 3.67293e-10 -1.49032e-09)
(4.99737e-10 3.23115e-10 -1.49564e-09)
(-1.26928e-09 -1.09015e-09 -3.55324e-09)
(-2.25996e-11 6.65031e-11 -1.82447e-09)
(1.23642e-09 -1.11506e-09 -3.50142e-09)
(-3.74969e-11 -5.06612e-10 -4.26352e-09)
(-3.10696e-09 2.24575e-09 -8.50866e-09)
(2.95078e-09 2.03692e-09 -8.51305e-09)
(-6.83508e-09 -5.69197e-09 -1.89405e-08)
(-6.75108e-11 4.57878e-10 -1.02263e-08)
(6.8477e-09 -5.92177e-09 -1.88257e-08)
(-4.0922e-11 -2.23923e-09 -2.22919e-08)
(-1.54664e-08 1.17233e-08 -4.20337e-08)
(1.49422e-08 1.08417e-08 -4.20181e-08)
(-3.13152e-08 -2.58454e-08 -8.61259e-08)
(-1.06799e-10 2.54482e-09 -4.89728e-08)
(3.20587e-08 -2.72438e-08 -8.61377e-08)
(3.19907e-10 -7.64445e-09 -9.87985e-08)
(-6.5315e-08 5.12782e-08 -1.75599e-07)
(6.39197e-08 4.80464e-08 -1.75583e-07)
(-1.20288e-07 -1.00187e-07 -3.28365e-07)
(2.03658e-10 1.12622e-08 -1.97045e-07)
(1.25115e-07 -1.06702e-07 -3.29927e-07)
(2.28894e-09 -1.68321e-08 -3.65047e-07)
(-2.30637e-07 1.84148e-07 -6.10643e-07)
(2.27445e-07 1.7501e-07 -6.11668e-07)
(-3.80569e-07 -3.24324e-07 -1.03328e-06)
(2.02899e-09 3.95926e-08 -6.5627e-07)
(3.99282e-07 -3.48096e-07 -1.04261e-06)
(6.21308e-09 3.39537e-09 -1.10693e-06)
(-6.66035e-07 5.28629e-07 -1.7345e-06)
(6.57752e-07 5.1477e-07 -1.74374e-06)
(-9.61236e-07 -8.44564e-07 -2.64196e-06)
(6.1474e-09 1.0822e-07 -1.7729e-06)
(1.00362e-06 -9.04048e-07 -2.67136e-06)
(-3.12876e-09 2.46549e-07 -2.6867e-06)
(-1.52123e-06 1.16208e-06 -3.93537e-06)
(1.49942e-06 1.16137e-06 -3.9681e-06)
(-1.04646e-06 -2.50417e-08 -4.75346e-06)
(-3.25578e-09 1.53681e-07 -4.00422e-06)
(1.04184e-06 -6.51003e-08 -4.76231e-06)
(-8.39533e-08 5.28735e-06 -4.90513e-06)
(-2.43915e-07 -2.95385e-06 -5.93342e-06)
(-1.04764e-07 -3.08673e-06 -5.74469e-06)
(-3.2244e-07 4.03021e-06 -4.8498e-06)
(-2.58711e-06 1.07338e-06 -6.19586e-06)
(4.28014e-07 3.18324e-07 -3.58408e-06)
(1.03439e-07 -2.37418e-06 -4.33014e-06)
(-1.70849e-07 -6.57075e-07 -2.81979e-06)
(-3.30166e-07 -4.11694e-07 -2.67405e-06)
(-3.27148e-08 7.15337e-07 -2.84085e-06)
(-1.12235e-06 -7.75591e-07 -2.69717e-06)
(3.10269e-07 -1.14053e-08 -2.76935e-06)
(-8.79236e-07 8.3224e-08 -3.11185e-06)
(-9.55287e-07 -2.63612e-07 -3.15618e-06)
(-2.5324e-08 -2.47774e-07 -2.15832e-06)
(-2.32816e-07 -5.31973e-08 -1.29244e-06)
(-3.44659e-07 5.4211e-08 -1.29745e-06)
(-1.0788e-07 1.49809e-08 -4.23949e-07)
(-6.02214e-08 -1.10611e-08 -4.10881e-07)
(1.94702e-08 -1.50018e-08 -2.2857e-07)
(-1.62712e-08 -3.46905e-09 -1.07787e-07)
(-2.95471e-08 3.17719e-09 -1.1407e-07)
(-2.60336e-08 9.82222e-11 -1.13556e-07)
(-6.18401e-09 -1.46918e-10 -2.59853e-08)
(-1.28776e-09 -6.99944e-11 -5.0887e-09)
(-2.36982e-10 -2.14767e-11 -8.86928e-10)
(-3.37722e-11 -5.77797e-12 -1.55524e-10)
(1.30763e-11 -3.45312e-12 -5.17771e-11)
(4.05891e-12 -1.37403e-12 -1.757e-11)
(5.55238e-12 6.64655e-12 -3.57658e-11)
(6.17578e-12 -8.11611e-12 -3.03534e-11)
(1.54207e-11 -3.26665e-12 -6.25126e-11)
(1.65887e-11 -1.29848e-12 -6.93962e-11)
(6.79068e-12 -9.08713e-12 -3.70728e-11)
(6.97479e-12 8.06921e-12 -3.86802e-11)
(6.45372e-12 -8.95051e-13 -5.47211e-11)
(-9.4459e-12 -5.96316e-13 -3.5632e-11)
(5.05941e-13 -3.82419e-13 -4.61492e-11)
(-1.39754e-12 -1.29856e-12 -3.32854e-11)
(-8.94716e-13 -1.22885e-12 -2.79418e-11)
(4.60982e-13 6.58021e-13 -4.09076e-11)
(-8.11868e-12 -1.79698e-12 -3.09107e-11)
(-4.10465e-13 7.56565e-13 -4.63123e-11)
(-7.80937e-15 -1.52496e-12 -2.97856e-11)
(-1.0943e-14 -1.57012e-12 -3.55983e-11)
(1.14431e-14 -1.8979e-12 -6.80966e-11)
(-4.1362e-12 1.98769e-12 -6.19885e-11)
(-6.91101e-12 -6.79579e-12 -6.59729e-11)
(-6.93204e-12 7.00466e-12 -6.58991e-11)
(-4.02505e-12 -1.70781e-12 -6.17967e-11)
(4.07591e-12 -1.83146e-12 -6.17461e-11)
(7.72386e-13 6.9592e-13 -5.78418e-11)
(1.76225e-12 1.66123e-12 -1.62439e-10)
(7.02856e-12 6.97998e-12 -6.58453e-11)
(-1.64051e-12 4.02644e-12 -6.17106e-11)
(-1.583e-12 -3.87088e-12 -6.17247e-11)
(1.81384e-12 -1.47428e-12 -1.62684e-10)
(6.9287e-12 -6.84889e-12 -6.59144e-11)
(2.77027e-14 4.80325e-14 -7.26218e-11)
(9.7492e-14 2.16471e-13 -2.03112e-10)
(7.95595e-14 -8.40222e-12 -1.9163e-10)
(3.78516e-14 -1.97805e-11 -1.46022e-10)
(-5.4696e-12 -1.82709e-11 -1.39544e-10)
(-4.00458e-12 -1.35387e-11 -1.14784e-10)
(-2.18364e-11 -1.03568e-10 -8.67268e-10)
(-8.85691e-11 -5.14848e-10 -5.04258e-09)
(-2.59605e-10 -2.07934e-09 -2.53201e-08)
(-4.14268e-10 -6.54022e-09 -1.07708e-07)
(4.18237e-10 -1.43571e-08 -3.82628e-07)
(-6.8034e-09 -6.42772e-09 -3.69218e-07)
(-8.13421e-09 1.57932e-08 -3.14442e-07)
(-2.33023e-08 -8.00367e-08 -4.11677e-07)
(-6.18152e-10 -3.85318e-08 -3.65024e-07)
(-1.10621e-08 -2.11985e-08 -3.40656e-07)
(2.51637e-08 7.53669e-08 -3.00975e-07)
(-3.76499e-08 -1.57241e-07 -5.79682e-07)
(2.51779e-07 1.67308e-07 -6.47502e-07)
(-4.51899e-07 -2.92481e-07 -1.08052e-06)
(7.90141e-07 4.97465e-07 -1.9301e-06)
(1.8043e-08 -4.00788e-08 -1.88741e-06)
(-2.23717e-07 -5.09464e-07 -1.69633e-06)
(-5.87214e-08 -7.28247e-08 -1.06474e-06)
(6.29158e-08 2.75075e-07 -1.00811e-06)
(8.91427e-09 -1.84793e-08 -6.6116e-07)
(5.2761e-08 -5.94955e-08 -7.78851e-07)
(6.48146e-08 7.1522e-09 -7.69766e-07)
(-9.51943e-08 2.68051e-09 -4.15696e-07)
(-2.98015e-07 1.34178e-08 -1.24982e-06)
(-7.98551e-07 2.40068e-08 -3.02142e-06)
(-2.10132e-06 -2.25929e-08 -5.8096e-06)
(-2.18112e-06 -2.8846e-07 -5.89327e-06)
(-4.43121e-06 1.05161e-06 -6.10225e-06)
(-1.42931e-06 -5.32431e-07 -4.35057e-06)
(-1.16805e-06 -1.39595e-06 -3.71605e-06)
(2.39279e-08 -2.69552e-07 -4.22573e-06)
(-4.06577e-07 -4.59391e-07 -5.26254e-06)
(5.26301e-07 -4.36517e-06 -4.99141e-06)
(-4.37677e-06 -1.27548e-06 -6.08051e-06)
(-2.72465e-06 1.74653e-07 -9.61136e-06)
(-1.37856e-06 -1.95684e-06 -8.63111e-06)
(1.84354e-06 1.39087e-06 -7.63981e-06)
(1.58472e-07 8.84839e-08 -7.97889e-06)
(7.97227e-08 6.27614e-08 -4.77719e-06)
(-1.79357e-06 1.66249e-06 -6.2847e-06)
(1.90612e-06 1.39348e-06 -6.54627e-06)
(2.4194e-08 1.62713e-07 -8.04965e-06)
(-2.35621e-07 -1.50092e-07 -4.85235e-06)
(-1.94418e-06 1.79654e-06 -6.42467e-06)
(1.89247e-06 1.62093e-06 -6.54787e-06)
(2.47318e-09 1.6517e-07 -8.08483e-06)
(-2.7094e-07 -1.85724e-07 -4.87815e-06)
(-1.91371e-06 1.64468e-06 -6.35066e-06)
(1.87537e-06 1.83485e-06 -6.638e-06)
(1.92272e-09 1.56059e-07 -8.09568e-06)
(-4.31698e-07 -4.13515e-07 -5.0438e-06)
(-1.8413e-06 1.38841e-06 -6.34628e-06)
(1.33872e-06 1.84155e-06 -7.16554e-06)
(-1.29056e-06 -6.76427e-07 -1.01785e-05)
(1.19408e-06 1.22627e-06 -8.86082e-06)
(9.13175e-07 -1.03437e-06 -8.68724e-06)
(2.48505e-06 1.13282e-06 -1.11462e-05)
(-1.17807e-06 -4.35747e-06 -1.10948e-05)
(-6.34833e-07 -2.33093e-06 -8.52661e-06)
(3.45025e-07 3.22497e-07 -5.95184e-06)
(1.29608e-06 -1.07024e-06 -8.05918e-06)
(-3.58446e-06 1.74382e-06 -6.46002e-06)
(-1.49793e-07 -1.05909e-07 -5.22704e-06)
(-2.04997e-06 -2.76112e-06 -6.04255e-06)
(2.3103e-06 1.82062e-06 -7.22438e-06)
(2.34603e-06 -2.08974e-08 -6.07977e-06)
(2.05557e-06 -2.10518e-06 -7.55719e-06)
(2.62189e-06 -2.1177e-06 -8.93682e-06)
(1.02897e-06 -2.99964e-06 -5.52414e-06)
(6.66477e-08 7.08022e-07 -5.44227e-06)
(8.72305e-07 -1.46267e-06 -4.83778e-06)
(1.20805e-06 -1.05056e-06 -5.03091e-06)
(1.75382e-06 1.36033e-06 -5.85761e-06)
(-3.37748e-07 -1.80272e-06 -4.09411e-06)
(1.29172e-07 -3.77864e-07 -2.63517e-06)
(6.6452e-07 9.21289e-07 -2.76208e-06)
(-2.20639e-07 -6.34903e-07 -1.76931e-06)
(1.32544e-08 -1.10132e-07 -1.07257e-06)
(2.30428e-07 3.65891e-07 -1.03027e-06)
(-7.34074e-08 -1.90726e-07 -6.10463e-07)
(4.09592e-09 -3.49114e-08 -3.48905e-07)
(7.12981e-08 1.1288e-07 -3.17278e-07)
(-1.77665e-08 -4.9851e-08 -1.72841e-07)
(1.66733e-09 -1.02724e-08 -9.3717e-08)
(1.88853e-08 2.86828e-08 -8.1085e-08)
(-3.49897e-09 -1.11374e-08 -4.04938e-08)
(5.31887e-10 -2.48856e-09 -2.08126e-08)
(4.22495e-09 6.12758e-09 -1.72721e-08)
(-5.67679e-10 -2.09522e-09 -7.90192e-09)
(1.28343e-10 -4.77491e-10 -3.86344e-09)
(7.96659e-10 1.11631e-09 -3.07792e-09)
(-8.58176e-11 -3.32672e-10 -1.29576e-09)