/*--------------------------------*- C++ -*----------------------------------*\
| =========                 |                                                 |
| \\      /  F ield         | OpenFOAM: The Open Source CFD Toolbox           |
|  \\    /   O peration     | Version:  2306                                  |
|   \\  /    A nd           | Website:  www.openfoam.com                      |
|    \\/     M anipulation  |                                                 |
\*---------------------------------------------------------------------------*/
FoamFile
{
    version     2.0;
    format      ascii;
    arch        "LSB;label=32;scalar=64";
    class       volScalarField;
    location    "0.4";
    object      gradTz;
}
// * * * * * * * * * * * * * * * * * * * * * * * * * * * * * * * * * * * * * //

dimensions      [0 -1 0 1 0 0 0];

internalField   nonuniform List<scalar> 
5322
(
-0.848321
-0.846578
-0.841732
-0.912077
-0.867511
-0.829989
-0.797905
-0.771718
-0.752331
-0.742634
-0.724988
-0.723744
-0.543711
-0.750119
-0.820653
-0.656353
-0.775619
-0.581824
-0.821354
-0.833708
-0.847018
-0.851452
-0.863733
-0.879605
-0.894927
-0.903966
-0.922707
-0.943441
-0.96492
-0.978466
-1.00148
-1.02317
-1.04054
-1.04319
-1.01308
-0.844318
-0.968687
-0.980112
-1.01132
-0.718701
-0.939761
-0.969904
-0.705544
-0.971111
-0.961548
-0.717451
-0.984734
-0.929831
-0.708396
-0.964288
-1.08493
-0.768563
-1.05219
-0.975555
-0.904982
-0.926592
-1.10978
-0.911483
-0.912824
-0.926855
-1.12288
-0.923757
-0.913078
-0.904043
-1.12228
-0.955255
-0.908993
-0.858895
-1.09684
-1.01539
-0.753775
-1.16186
-1.10637
-1.09049
-1.10182
-1.09648
-1.09587
-1.09224
-1.10712
-1.05002
-1.00332
-0.779524
-0.8081
-1.08067
-0.728913
-0.975364
-1.33782
-0.828432
-0.845057
-0.753553
-0.948153
-0.811344
-0.855807
-0.850039
-1.04352
-0.921975
-0.909639
-0.935014
-1.36126
-0.805789
-0.813183
-0.765498
-0.942171
-1.03144
-1.12284
-0.883213
-0.935235
-0.917047
-0.875856
-0.841344
-0.809691
-0.782118
-0.759313
-0.745891
-0.84754
-0.836054
-0.585551
-0.63422
-0.846701
-0.698811
-0.618973
-0.75225
-0.741706
-1.04459
-0.778323
-1.02286
-0.734659
-0.76712
-1.00532
-0.731595
-0.750833
-1.01441
-0.742935
-0.736863
-1.01905
-0.753418
-0.741412
-1.04629
-0.778939
-1.02299
-0.736525
-0.6211
-0.698911
-0.625363
-0.586651
-0.84683
-0.634273
-0.62985
-0.578903
-0.58274
-0.845326
-0.630712
-0.62828
-0.57926
-0.584092
-0.845092
-0.631946
-0.625052
-0.620858
-0.820552
-0.655407
-0.776659
-0.907414
-0.892372
-0.564032
-0.82156
-0.581905
-0.786678
-0.537617
-0.726783
-0.751051
-0.697728
-0.724172
-0.839095
-0.691434
-0.85546
-0.849433
-0.825632
-0.687521
-0.824232
-0.851153
-0.852853
-0.853934
-0.710444
-0.854939
-0.868741
-0.869801
-0.879046
-0.731137
-0.879884
-0.895374
-0.896126
-0.908651
-0.755798
-0.90986
-0.928495
-0.929706
-0.942777
-0.785129
-0.944752
-0.967384
-0.969536
-0.980763
-0.818341
-0.983653
-1.00925
-1.01265
-1.02273
-0.851507
-1.02695
-1.03596
-1.03924
-0.932993
-1.36187
-0.805981
-0.8032
-0.768094
-1.07555
-1.07269
-0.855873
-0.850408
-1.0405
-0.929358
-0.899035
-0.941878
-1.35774
-0.810473
-0.802902
-0.769597
-0.929513
-1.03718
-0.909236
-0.91788
-0.915439
-0.875768
-0.841795
-0.810086
-0.782361
-0.759423
-0.745886
-0.847521
-0.83628
-0.583017
-0.581243
-0.580793
-0.582968
-0.844989
-0.62823
-0.63173
-0.635021
-0.750658
-1.05578
-0.628404
-0.84503
-0.631553
-1.04985
-0.764871
-1.002
-0.731101
-0.635183
-0.750595
-1.00221
-0.535313
-0.71968
-0.69186
-0.69106
-0.724398
-0.848829
-0.825784
-0.852375
-0.853967
-0.869596
-0.878971
-0.896112
-0.908606
-0.929894
-0.942723
-0.970089
-0.980477
-1.01386
-1.02167
-1.04588
-0.921167
-1.36152
-0.938698
-0.909342
-1.03358
-1.02947
-0.851983
-1.00898
-0.984919
-0.818752
-0.967848
-0.945254
-0.785415
-0.929101
-0.909965
-0.755962
-0.895968
-0.879745
-0.731208
-0.869506
-0.85446
-0.710444
-0.852346
-0.823355
-0.687339
-0.856627
-0.700875
-0.855681
-0.824268
-0.687348
-0.84969
-0.724233
-0.838925
-0.696234
-0.541813
-0.7527
-0.656523
-0.859304
-0.827355
-0.850774
-0.858812
-0.869164
-0.882135
-0.896918
-0.911056
-0.931362
-0.944861
-0.97338
-0.979493
-1.02113
-1.01229
-1.04912
-0.926416
-1.34259
-0.979296
-0.877174
-1.11569
-1.1067
-0.825012
-1.086
-1.05663
-0.793017
-1.0391
-1.01194
-0.759753
-0.995312
-0.973502
-0.73096
-0.959531
-0.942316
-0.707418
-0.931225
-0.917192
-0.688361
-0.913256
-0.892669
-0.667091
-0.907274
-0.776525
-0.82031
-0.726555
-0.767118
-0.669735
-0.789227
-0.53611
-0.611914
-0.697241
-0.640312
-0.879213
-0.861617
-0.830188
-0.82472
-0.685576
-0.849825
-0.862256
-0.666445
-0.842408
-0.741174
-0.706347
-0.694135
-1.01922
-0.821455
-0.778842
-1.04666
-0.753086
-0.702288
-0.715787
-0.695664
-0.856585
-0.823354
-0.700066
-0.852949
-0.854458
-0.86996
-0.879771
-0.731578
-0.896697
-0.909472
-0.930516
-0.94357
-0.785471
-0.970465
-0.981146
-1.01307
-1.02344
-0.851214
-0.856669
-0.821733
-0.821927
-0.789737
-0.78703
-0.97382
-0.98136
-0.817412
-0.990085
-1.00262
-1.01885
-1.01814
-0.849067
-1.03812
-1.01997
-1.13838
-0.891604
-1.33774
-0.821505
-0.784594
-0.788773
-1.0382
-0.806435
-0.720463
-1.04264
-0.689411
-0.982303
-0.992964
-0.657963
-0.958471
-0.945706
-0.629672
-0.927211
-0.910377
-0.60637
-0.891606
-0.875054
-0.587693
-0.868088
-0.851655
-0.574015
-0.845966
-0.829205
-0.563637
-0.825663
-0.631
-0.608311
-0.759916
-0.665231
-0.743845
-0.778546
-0.868297
-0.886431
-0.890024
-0.907701
-0.88028
-0.882167
-0.729658
-0.871441
-0.870921
-0.857726
-0.709434
-0.855048
-0.713458
-0.675335
-0.663302
-0.589394
-0.687856
-0.666913
-0.639707
-0.746173
-0.741298
-0.724552
-0.727931
-0.564289
-0.920053
-0.50979
-0.685631
-0.729794
-0.717336
-0.732665
-0.762272
-0.751211
-0.770631
-0.78565
-0.751256
-0.796451
-0.704705
-0.798874
-0.815289
-0.921165
-0.935668
-0.957453
-0.969414
-0.947229
-0.945432
-0.783911
-0.930141
-0.932445
-0.911486
-0.754301
-0.910967
-0.758209
-0.719232
-0.694688
-0.616908
-0.720624
-0.712312
-0.681859
-0.700179
-0.67656
-0.649511
-0.775455
-0.686385
-0.600095
-0.748833
-0.745201
-0.727706
-0.724267
-0.684033
-0.663416
-0.66169
-0.580424
-0.728069
-0.718776
-0.825334
-0.69896
-0.853028
-0.851598
-0.855135
-0.71057
-0.853747
-0.710663
-0.869971
-0.86916
-0.87997
-0.731416
-0.879241
-0.730064
-0.896182
-0.896301
-0.9095
-0.756289
-0.909516
-0.754906
-0.929493
-0.930437
-0.94351
-0.785886
-0.944715
-0.78385
-0.968225
-0.971088
-0.98049
-0.819245
-0.984526
-0.81579
-1.0082
-1.01512
-1.02116
-0.851767
-1.02867
-0.847406
-1.03332
-1.0432
-0.931576
-0.907716
-0.931776
-0.77311
-0.806481
-0.775555
-0.727896
-1.03389
-0.726009
-0.97235
-0.788486
-0.755394
-0.975166
-0.995856
-0.846742
-0.895127
-0.89653
-0.883373
-0.880231
-0.863004
-0.827845
-0.847508
-0.807567
-0.814109
-0.796742
-0.791008
-0.766069
-0.747591
-0.738243
-0.720225
-0.717583
-0.544996
-0.74491
-0.659302
-0.687087
-0.69035
-0.70221
-0.725581
-0.841063
-0.633714
-0.780764
-0.770361
-0.778565
-0.790648
-0.619487
-0.778257
-0.78036
-0.776763
-0.841858
-0.569442
-0.57322
-0.572211
-0.571248
-0.569418
-0.567356
-0.845753
-0.571297
-0.570646
-0.570844
-0.845809
-0.572248
-0.846754
-0.851154
-0.849285
-0.753137
-0.751743
-0.698603
-0.698153
-0.711371
-0.732266
-0.758044
-0.787799
-0.747449
-0.66451
-0.773924
-0.764701
-0.731199
-0.863109
-0.877988
-1.00591
-0.995302
-1.07295
-0.832876
-0.889045
-0.748551
-0.909465
-0.79417
-0.844319
-0.861264
-0.820774
-0.854602
-0.894497
-0.965976
-0.955181
-0.944448
-0.877946
-0.835106
-0.849855
-0.894866
-0.716245
-0.791281
-1.08587
-0.982655
-1.01343
-1.04088
-0.683795
-0.857066
-0.902902
-1.07069
-0.707556
-0.891504
-0.907648
-1.07584
-0.710443
-0.880321
-0.918517
-1.07225
-0.724616
-0.870453
-0.973777
-1.33456
-1.01014
-0.986224
-1.24231
-1.2074
-0.977779
-0.734363
-1.05226
-0.976315
-0.90454
-0.924676
-0.931708
-0.708734
-0.962616
-1.08544
-0.768352
-1.00399
-0.779967
-0.808815
-1.08104
-1.00515
-0.803042
-1.03969
-0.988925
-0.78812
-0.987967
-0.958383
-0.757294
-0.944416
-0.923694
-0.72956
-0.907477
-0.892136
-0.704386
-0.877739
-0.865575
-0.685861
-0.853102
-0.845946
-0.660096
-0.834131
-0.821057
-0.635235
-0.787029
-0.666298
-0.766124
-0.725668
-0.776253
-0.907586
-0.892176
-0.667091
-0.860912
-0.655159
-0.820646
-0.752369
-0.541913
-0.695342
-0.72016
-0.839109
-0.68819
-0.722237
-0.72644
-0.743284
-0.752391
-0.754234
-0.773365
-0.798876
-0.745747
-0.723302
-0.694123
-0.833359
-0.850605
-0.757482
-0.727952
-0.776436
-0.789578
-0.897103
-0.898097
-0.733001
-0.879552
-0.895661
-0.756434
-0.90969
-0.928889
-0.785928
-0.944671
-0.967715
-0.819026
-0.983488
-1.00884
-0.851449
-1.02505
-0.895269
-0.904204
-0.925124
-0.929868
-0.899242
-0.855948
-0.821493
-0.791663
-0.766873
-0.748442
-0.73915
-0.722514
-0.719942
-0.541726
-0.720155
-0.68784
-0.722948
-0.725483
-0.742903
-0.752136
-0.770988
-0.796158
-0.826227
-0.860767
-0.902307
-0.981867
-0.976058
-0.730445
-1.3228
-0.991727
-0.951699
-0.908755
-1.07575
-0.7116
-0.713378
-0.779489
-1.11919
-0.742919
-0.754162
-0.768784
-1.12554
-0.746311
-0.757526
-0.762476
-1.12139
-0.763147
-0.776294
-0.845408
-1.41708
-1.02347
-0.999065
-1.00376
-0.994812
-0.832534
-0.796908
-0.848611
-1.41185
-0.839475
-0.847419
-1.12214
-0.925237
-0.91255
-0.903047
-0.975765
-0.705063
-0.965825
-0.966516
-0.718977
-0.980984
-0.913932
-0.912286
-0.923595
-1.09748
-1.0938
-1.10351
-1.08862
-0.913148
-0.870707
-0.94785
-1.12395
-0.946887
-0.725711
-1.00607
-0.883167
-0.724709
-1.20462
-0.661432
-0.902571
-0.783389
-0.951819
-0.939544
-0.775921
-0.939685
-0.912271
-0.764262
-0.89476
-0.882958
-0.718324
-0.864546
-0.842397
-0.707835
-0.825653
-0.819927
-0.666172
-0.805387
-0.789527
-0.663247
-0.775236
-0.778727
-0.631922
-0.751606
-0.752301
-0.609771
-0.697634
-0.507891
-0.916837
-0.65984
-0.564851
-1.04588
-0.74193
-0.778434
-1.02169
-0.735717
-0.765714
-1.00413
-0.730581
-0.751848
-1.01425
-0.74478
-0.734836
-1.01838
-0.546569
-0.701398
-0.841438
-0.693489
-0.701224
-0.854666
-0.687352
-0.824189
-0.824571
-0.69891
-0.851021
-0.68826
-0.857688
-0.916864
-0.600274
-0.931229
-0.58695
-0.941377
-0.616726
-0.957932
-0.605341
-0.973401
-0.638146
-0.992734
-0.628058
-1.01084
-0.66355
-1.03245
-0.654367
-1.05504
-0.692709
-1.07717
-0.683853
-1.10482
-0.724833
-1.11448
-0.712533
-0.839314
-1.06374
-1.03896
-0.864372
-1.05744
-0.816882
-1.03548
-1.00506
-0.823938
-1.01298
-0.783579
-0.991459
-0.964993
-0.789189
-0.971103
-0.752463
-0.953599
-0.927945
-0.758699
-0.936122
-0.725296
-0.919157
-0.896155
-0.733507
-0.90522
-0.702997
-0.89264
-0.870895
-0.71395
-0.883626
-0.685272
-0.87169
-0.854641
-0.703108
-0.856247
-0.664969
-0.883606
-0.849514
-0.706391
-0.637534
-0.611298
-0.536735
-0.726737
-0.767092
-0.666385
-0.787233
-0.633457
-0.659614
-0.665287
-0.685563
-0.688634
-0.718153
-0.839403
-0.691664
-0.722635
-0.698596
-0.859343
-0.667386
-0.891961
-0.58953
-0.913018
-0.573469
-0.749443
-0.729307
-0.720288
-0.850237
-0.751803
-1.04901
-0.631695
-0.845006
-0.628573
-0.634194
-0.779841
-0.775751
-0.769705
-0.776285
-0.780937
-1.05545
-0.75267
-0.701107
-0.699048
-0.699992
-0.701897
-0.854031
-0.855133
-0.70284
-0.743736
-0.725445
-0.720966
-0.849294
-0.687714
-0.825617
-0.85158
-0.71071
-0.854401
-0.869211
-0.731577
-0.792494
-0.713151
-0.713674
-0.734079
-0.759892
-0.757858
-0.759714
-0.733937
-0.712788
-0.712186
-0.711417
-0.698266
-0.69901
-0.825846
-0.851652
-0.912734
-0.916852
-0.93074
-0.941269
-0.5872
-0.866401
-0.599901
-0.853238
-0.573679
-0.846981
-0.589397
-0.834292
-0.659203
-0.633182
-0.776611
-0.6854
-0.777333
-0.882625
-0.713932
-0.870465
-0.728623
-0.879988
-0.881188
-0.733208
-0.894469
-0.754849
-0.909207
-0.909593
-0.757085
-0.926539
-0.782825
-0.944892
-0.944995
-0.785915
-0.965423
-0.788168
-0.985811
-1.00644
-0.821291
-1.0322
-1.03086
-0.846122
-0.938972
-0.919009
-0.876488
-0.841467
-0.809724
-0.782163
-0.759357
-0.745958
-0.847538
-0.83584
-0.583434
-0.57874
-0.581962
-0.630445
-1.05473
-0.752799
-0.753266
-1.04558
-0.63008
-0.633216
-0.781342
-0.778653
-0.821804
-0.778119
-1.04963
-0.751637
-0.698538
-0.86023
-0.667671
-0.739366
-0.725404
-0.849403
-0.841652
-0.570709
-0.568834
-0.845801
-0.566897
-0.578374
-0.845211
-0.725774
-0.699927
-0.663394
-0.69401
-1.0179
-0.885164
-0.706706
-0.848294
-0.685416
-0.831127
-0.822959
-0.701798
-0.851164
-0.710289
-0.853529
-0.712256
-0.868318
-0.730516
-0.879568
-0.878838
-0.730501
-0.895386
-0.729702
-0.91065
-0.927926
-0.757009
-0.945673
-0.787792
-0.757874
-0.732252
-0.71146
-0.698277
-0.725332
-0.849353
-0.84149
-0.709667
-0.74824
-0.725859
-0.739318
-0.72517
-0.709636
-0.748069
-0.698726
-0.699951
-0.712454
-0.711892
-0.733605
-0.73131
-0.771105
-0.796259
-0.826472
-0.829065
-0.863389
-0.801222
-0.783999
-0.824304
-0.864183
-0.712557
-0.996129
-0.739546
-1.35566
-0.973291
-0.951696
-0.940157
-1.10393
-0.984414
-1.02819
-0.979476
-1.34633
-0.959539
-0.950159
-0.907388
-1.07115
-0.709883
-0.723157
-0.787057
-1.11302
-0.739765
-0.76585
-0.779067
-1.11918
-0.743114
-0.766985
-0.77503
-1.11503
-0.761484
-0.781069
-1.11649
-0.935367
-0.855935
-0.850311
-1.02868
-1.09684
-0.824571
-1.08609
-0.686571
-0.822463
-1.05084
-0.821541
-0.997154
-1.04113
-0.859013
-1.02014
-1.10132
-1.02883
-0.955707
-0.769993
-0.892862
-0.837004
-1.04979
-1.10815
-1.09041
-1.03593
-0.861445
-1.02672
-0.87207
-1.03192
-0.861074
-1.02684
-0.872791
-1.03291
-0.863498
-1.02738
-1.11008
-1.08499
-0.913393
-0.818008
-0.974986
-1.12587
-0.828961
-1.00601
-1.02301
-0.98349
-0.846741
-0.839321
-0.844593
-1.40359
-0.84616
-0.933893
-1.34808
-1.02799
-0.987501
-0.828591
-0.835304
-1.11497
-0.773526
-0.772547
-1.11027
-0.921492
-0.921123
-0.917182
-0.876007
-0.841492
-0.809805
-0.782203
-0.759363
-0.745924
-0.847556
-0.83607
-0.566886
-0.56926
-0.773467
-0.769684
-0.778256
-1.00178
-0.765126
-0.620757
-0.625209
-0.698636
-0.634299
-0.619237
-0.741774
-1.04625
-0.778515
-1.01778
-0.735419
-1.02118
-0.821854
-0.791326
-0.778848
-1.0459
-0.630157
-0.630572
-0.845306
-0.58056
-0.580191
-0.630702
-0.630066
-0.632759
-0.745799
-1.02758
-0.746222
-1.0543
-0.752355
-0.75307
-0.69407
-0.582258
-0.660978
-0.663084
-0.685872
-0.724228
-0.727267
-0.745156
-0.754516
-0.773553
-0.798933
-0.829237
-0.863964
-0.861396
-0.90479
-0.904225
-0.973002
-0.735329
-0.799588
-0.804033
-1.36215
-0.933573
-0.960903
-0.99095
-1.31923
-0.727901
-0.802486
-0.804858
-0.740497
-0.81316
-0.827842
-1.33798
-0.944688
-0.975351
-0.75397
-0.845134
-0.935081
-0.855034
-0.834252
-0.905377
-0.98353
-0.981082
-0.925079
-0.924724
-0.912591
-0.867235
-0.826422
-0.793741
-0.76815
-0.756056
-0.735635
-0.735447
-0.718902
-0.728578
-0.688173
-0.701346
-0.720946
-0.745593
-0.774075
-0.80437
-0.906229
-0.892243
-0.89317
-0.85182
-0.814206
-0.782226
-0.781758
-0.755724
-0.767088
-0.748081
-0.852211
-0.912818
-0.9167
-0.930911
-0.941205
-0.706744
-0.869744
-0.857357
-0.68795
-0.781322
-0.69816
-0.698973
-0.825411
-0.751902
-1.0492
-0.731111
-0.698704
-0.725171
-0.739375
-0.846674
-0.585675
-0.579442
-0.782096
-0.775221
-0.781063
-0.77316
-0.566375
-0.845864
-0.773463
-0.779295
-0.634663
-0.791366
-0.773775
-0.769138
-0.777983
-0.780209
-0.821953
-0.778622
-0.780505
-0.782299
-0.791875
-0.584869
-0.63451
-0.698546
-0.846598
-0.625546
-0.620436
-0.739427
-0.726026
-0.849482
-0.841279
-0.709674
-0.726031
-0.700074
-0.663429
-0.589568
-0.675403
-0.600142
-0.711307
-0.71077
-0.732102
-0.730082
-0.881314
-0.896276
-0.958702
-0.972154
-0.994361
-1.00878
-0.758231
-0.929228
-0.911022
-0.729993
-0.829898
-0.694586
-0.616634
-0.718697
-0.63791
-0.75774
-0.754849
-0.759413
-0.756167
-0.789185
-0.785408
-0.82159
-0.819879
-0.77744
-0.694003
-0.818846
-0.896908
-0.861837
-0.830388
-0.803919
-0.781381
-0.769052
-0.754745
-0.762142
-0.791653
-0.777116
-0.785394
-0.817862
-0.802992
-0.78553
-0.762285
-0.769864
-0.769198
-0.754697
-0.750009
-0.764441
-0.788021
-0.815931
-0.813222
-0.848623
-0.832974
-0.844929
-0.882748
-0.865994
-0.879028
-0.916557
-0.931166
-0.853761
-1.06892
-0.718458
-1.12101
-0.933532
-0.917139
-1.09288
-0.762131
-1.11109
-1.04782
-1.03114
-0.97579
-1.33672
-0.961155
-0.937307
-0.880018
-1.05886
-1.06923
-0.830109
-0.938195
-1.05239
-1.06843
-0.981088
-0.960402
-1.32893
-0.98002
-1.03414
-1.03955
-1.04217
-1.03469
-0.975933
-1.05897
-0.937068
-0.918633
-1.07238
-0.72512
-0.709345
-0.775149
-1.11531
-0.760892
-0.74951
-0.762571
-1.12189
-0.761811
-0.752897
-0.756206
-1.11745
-0.777425
-0.845957
-1.40705
-1.05127
-0.985456
-0.849413
-0.838141
-1.11027
-0.920786
-0.920917
-0.879386
-0.844772
-0.813056
-0.785325
-0.762146
-0.748176
-0.769681
-0.781279
-0.68851
-0.857494
-0.869315
-0.707271
-0.88123
-0.895847
-0.958443
-0.97211
-0.994034
-1.00867
-0.628432
-0.924336
-0.637542
-0.907852
-0.605621
-0.892894
-0.616345
-0.878081
-0.703775
-0.674694
-0.816029
-0.725587
-0.829003
-0.934739
-0.758355
-0.92706
-0.780588
-0.946471
-0.945654
-0.78826
-0.962186
-0.814614
-0.98497
-0.821684
-1.00269
-0.847605
-1.0322
-1.03325
-0.860396
-1.03259
-0.872334
-1.02877
-1.03083
-0.861478
-1.03179
-1.03256
-1.02771
-0.871811
-0.919887
-0.860347
-0.822236
-0.789211
-0.759396
-0.733766
-0.712987
-0.675304
-0.694432
-0.732177
-0.730077
-0.757762
-0.754758
-0.910753
-0.928763
-0.758648
-0.945715
-0.967745
-1.03687
-1.05043
-1.08544
-1.09706
-0.686504
-0.989546
-0.691805
-0.988325
-0.655409
-0.958976
-0.662876
-0.944854
-0.75668
-0.724798
-0.876879
-0.785884
-0.901363
-1.00285
-0.821632
-0.997224
-0.844495
-1.04049
-1.02784
-0.861553
-1.03512
-0.865948
-1.02063
-1.10091
-0.859212
-1.02859
-0.954881
-0.89222
-0.836444
-0.897906
-0.909062
-0.769182
-0.802409
-1.03989
-1.00569
-0.720605
-0.83202
-0.802029
-0.77187
-0.743545
-0.719036
-0.699536
-0.686444
-0.659587
-0.664037
-0.767208
-0.666424
-0.507798
-0.611531
-0.697473
-0.636786
-0.917537
-0.563692
-0.657692
-0.842844
-0.740723
-0.664991
-0.702496
-0.848502
-0.687562
-0.822077
-0.699897
-0.850711
-0.71013
-0.854761
-0.853223
-0.710951
-0.868974
-0.706891
-0.881174
-0.768125
-0.756853
-0.869816
-0.737008
-0.853347
-0.738772
-0.738015
-0.719245
-0.717967
-0.689062
-0.745301
-0.727666
-0.686623
-0.729067
-0.610765
-0.750596
-0.665278
-0.854994
-0.703146
-0.853922
-0.708877
-0.855498
-0.856356
-0.713789
-0.868708
-0.730734
-0.879262
-0.731892
-0.89451
-0.754599
-0.909532
-0.909278
-0.755737
-0.926827
-0.810744
-0.781665
-0.895159
-0.767749
-0.766957
-0.748094
-0.742952
-0.855027
-0.725746
-0.863577
-0.724199
-0.717758
-0.752491
-0.746111
-0.741305
-0.732526
-0.872997
-0.762832
-0.657117
-0.791776
-0.703111
-0.905152
-0.733268
-0.895683
-0.752379
-0.910204
-0.910968
-0.758334
-0.9261
-0.783096
-0.944907
-0.787194
-0.963253
-0.814528
-0.985213
-0.985843
-0.82056
-1.00264
-0.821248
-0.88251
-0.848143
-0.832817
-0.813299
-0.785546
-0.76234
-0.748366
-0.75472
-0.769008
-0.791552
-0.803706
-0.713202
-0.734037
-0.759705
-0.861017
-0.848428
-0.8177
-0.802906
-0.777063
-0.792489
-0.76994
-0.710577
-0.85275
-0.699753
-0.852053
-0.854277
-0.712366
-0.869227
-0.86968
-0.853867
-0.854049
-0.713888
-0.869252
-0.871036
-0.856498
-0.8547
-0.701752
-0.851881
-0.825188
-0.822681
-0.823381
-0.824483
-0.701675
-0.853864
-0.852403
-0.710564
-0.853637
-0.713832
-0.870511
-0.869558
-0.731044
-0.879024
-0.733357
-0.896377
-0.895179
-0.895092
-0.895508
-0.732046
-0.879691
-0.879421
-0.731051
-0.87929
-0.733391
-0.894908
-0.896935
-0.88129
-0.729126
-0.870612
-0.893053
-0.713798
-0.855611
-0.709334
-0.85405
-0.873461
-0.702926
-0.831087
-0.823298
-0.862811
-0.702332
-0.849253
-0.687955
-0.856516
-0.701333
-0.855429
-0.687916
-0.850242
-0.702258
-0.861726
-0.823938
-0.830254
-0.685739
-0.726553
-0.716937
-0.71752
-0.548469
-0.742654
-0.706014
-0.723164
-0.724397
-0.545557
-0.715569
-0.691764
-0.704791
-0.743542
-0.548378
-1.02255
-0.753269
-0.733963
-0.632951
-0.841554
-0.715431
-0.693662
-0.694872
-0.714176
-0.666966
-0.739284
-0.842769
-0.618851
-0.75315
-1.02221
-0.734413
-1.04571
-0.753107
-0.700097
-0.699241
-0.713015
-0.734165
-0.818552
-0.755181
-0.909617
-0.757215
-0.926854
-0.927497
-0.926448
-0.929393
-0.758497
-0.909662
-0.911032
-0.752958
-0.895843
-0.920516
-0.733179
-0.88022
-0.905326
-0.703613
-0.792362
-0.802752
-0.675585
-0.816679
-0.829835
-0.699474
-0.845846
-0.862948
-0.725732
-0.877728
-0.90223
-0.754107
-0.900245
-0.872761
-0.878615
-0.837197
-0.844516
-0.804056
-0.812519
-0.774954
-0.785205
-0.75084
-0.763368
-0.657662
-0.778308
-0.88259
-0.685849
-0.77678
-0.7532
-0.634155
-0.746446
-0.732782
-0.717805
-0.750894
-0.665745
-0.885324
-0.706365
-0.848465
-0.685836
-0.72656
-0.723222
-0.727842
-0.56424
-0.658908
-0.91718
-0.507912
-0.698124
-0.610905
-0.728847
-0.686687
-0.611822
-0.636999
-0.740299
-0.666115
-0.842807
-0.689109
-0.717331
-0.717019
-0.735617
-0.740267
-0.750757
-0.770133
-0.796109
-0.758288
-0.927248
-0.954794
-0.935032
-0.91051
-0.788098
-0.763259
-0.744118
-0.739909
-0.745939
-0.764769
-0.790266
-0.817807
-0.781228
-0.945633
-0.788426
-0.962346
-0.967478
-0.962426
-0.997027
-0.788082
-0.946877
-0.969276
-0.753943
-0.628459
-0.82403
-0.813376
-0.850478
-0.862268
-0.968142
-1.03734
-1.0505
-0.692279
-0.777987
-0.746885
-0.663281
-0.787506
-0.78405
-0.946222
-0.820217
-0.816968
-0.985518
-0.790843
-0.89607
-0.789538
-0.822531
-0.931565
-0.917108
-0.882679
-0.866061
-0.83289
-0.849128
-0.845023
-0.847608
-0.845021
-0.813341
-0.818717
-0.817853
-0.791738
-0.777033
-0.792172
-0.80361
-0.829753
-0.730486
-0.793762
-0.76848
-0.757659
-0.759178
-0.763542
-0.73833
-0.737288
-0.720277
-0.729448
-0.685259
-0.749451
-0.785543
-0.783653
-0.815158
-0.817404
-0.822053
-0.854458
-0.852086
-0.863434
-0.825289
-0.984625
-1.01056
-0.824892
-1.02723
-0.907286
-0.893656
-0.928486
-0.932821
-0.854176
-0.936415
-1.20813
-1.24172
-0.734276
-0.97348
-1.33482
-1.00986
-0.832762
-0.994614
-1.0056
-0.848634
-0.844802
-1.41916
-1.02962
-0.997269
-1.27499
-1.09771
-1.09905
-1.03904
-1.04734
-0.765437
-1.11315
-0.918633
-0.919264
-0.879095
-0.88356
-0.849471
-0.848518
-0.789419
-0.787465
-0.783836
-0.820123
-0.816685
-0.777728
-0.746638
-0.718488
-0.954275
-0.968923
-0.788121
-0.962274
-0.812275
-0.989386
-0.984105
-0.822448
-1.00046
-0.847269
-1.00344
-0.822333
-0.789256
-0.848746
-0.860815
-0.895837
-0.79122
-0.882711
-0.865982
-0.832819
-0.802853
-0.818197
-0.733727
-0.712636
-0.698928
-0.853474
-0.737845
-0.854049
-0.721063
-0.825452
-0.857458
-0.691583
-0.716126
-0.725404
-0.540536
-0.719119
-0.721628
-0.757997
-0.761988
-0.871087
-0.751648
-0.750493
-0.801986
-0.78461
-0.770999
-0.774538
-0.920045
-0.811863
-0.698622
-0.845067
-0.753258
-0.862071
-0.803575
-0.843812
-0.828559
-0.796999
-0.786724
-0.896842
-0.783006
-0.895507
-0.792572
-0.81634
-0.929188
-0.812196
-0.944829
-0.824053
-0.850072
-0.967124
-0.836719
-0.996472
-0.877931
-0.753171
-0.899423
-0.821814
-1.05031
-0.872385
-0.865191
-0.907717
-0.930323
-0.910632
-0.865976
-0.915017
-0.891599
-0.915182
-0.886491
-1.00866
-0.860979
-0.904652
-0.928756
-0.935612
-0.909325
-0.911084
-0.879102
-0.844618
-0.985577
-0.964103
-0.825387
-0.793534
-0.862849
-0.90716
-0.93215
-0.941502
-0.909538
-0.910721
-0.878159
-0.843238
-0.963387
-0.855817
-0.822096
-0.792575
-0.718913
-0.69942
-0.68621
-0.657208
-0.692452
-0.744063
-0.773343
-0.806656
-0.892687
-0.920485
-0.935956
-0.955077
-0.903455
-0.710122
-0.794269
-0.888784
-0.928777
-0.907367
-0.902583
-0.859317
-0.821944
-0.79009
-0.764379
-0.745504
-0.735283
-0.734311
-0.717042
-0.722728
-0.722736
-0.691648
-0.841544
-0.688768
-0.728088
-0.722964
-0.739903
-0.744379
-0.709323
-0.855146
-0.856927
-0.713245
-0.769929
-0.754695
-0.709712
-0.769081
-0.781379
-0.663576
-0.694127
-1.01796
-0.90786
-0.563548
-0.675539
-0.803757
-0.792472
-0.777013
-0.791567
-0.81757
-0.802829
-0.818529
-0.734083
-0.759772
-0.759908
-0.789726
-0.883338
-0.814996
-0.964457
-0.787277
-0.963171
-0.986406
-0.821707
-1.00175
-1.00409
-0.984446
-0.986396
-0.822525
-1.00021
-1.00916
-0.983881
-0.81296
-0.989893
-1.00321
-0.78664
-0.655479
-0.851585
-0.827631
-0.864199
-0.906522
-0.909487
-0.897981
-0.91053
-0.866047
-0.929128
-0.915121
-0.891323
-0.916108
-0.887909
-0.858407
-0.821641
-0.84715
-0.814685
-0.945451
-0.944778
-0.945656
-0.944868
-0.788922
-0.965446
-0.963708
-0.815103
-0.985247
-0.823744
-1.00507
-1.00328
-0.848037
-1.03147
-1.03581
-1.03333
-0.846394
-0.93266
-0.918828
-0.879616
-0.881708
-0.898937
-0.919196
-0.856584
-0.851362
-1.07471
-0.769681
-0.712084
-1.11131
-1.04647
-1.05601
-0.976245
-1.0358
-1.04263
-1.04502
-0.752888
-1.10106
-0.895987
-1.09876
-1.10431
-1.09891
-1.09907
-1.07432
-0.870013
-1.03753
-1.32952
-0.742037
-0.984005
-1.10651
-1.03414
-1.09845
-1.02413
-0.986481
-1.29111
-1.06883
-0.780933
-0.847775
-1.41265
-0.840291
-1.10884
-0.777938
-1.10528
-0.897525
-0.922139
-0.899492
-0.917108
-0.917305
-0.931347
-0.917829
-0.882956
-0.917868
-0.900181
-0.866146
-0.883516
-0.849134
-0.860946
-0.789739
-0.823257
-0.822738
-0.918146
-0.860523
-0.811546
-0.721029
-1.12371
-0.729053
-0.932272
-1.03026
-0.882575
-0.927145
-0.948083
-1.07415
-0.766299
-0.708961
-1.11334
-0.918598
-0.897582
-1.09901
-0.749314
-1.10316
-1.04568
-1.04685
-1.05805
-0.938752
-1.03715
-1.32869
-0.983863
-1.03442
-1.03921
-1.04057
-1.04411
-1.04559
-0.75751
-1.10314
-1.06451
-1.04115
-1.06301
-1.04643
-0.75416
-1.10529
-0.899142
-1.10529
-1.1054
-0.984579
-0.860527
-0.860865
-0.984351
-0.979832
-0.816927
-0.862655
-0.86111
-0.92009
-0.979467
-0.983466
-0.985819
-0.905829
-1.13322
-0.901797
-0.872327
-0.86506
-0.827923
-0.795918
-0.769795
-0.750349
-0.763571
-0.881518
-0.879978
-0.72916
-0.694858
-0.829887
-0.752908
-0.910052
-0.911502
-0.75863
-0.928524
-0.926983
-0.909333
-0.755165
-0.909998
-0.785455
-0.763691
-0.74483
-0.760244
-0.760343
-0.740009
-0.785391
-0.78922
-0.820904
-0.858125
-0.881468
-1.03369
-1.03037
-1.03401
-0.88152
-0.847075
-0.814675
-0.783435
-0.817572
-0.946951
-0.945745
-0.781093
-0.747555
-0.718934
-0.896195
-0.813001
-0.986598
-0.987789
-0.850639
-0.836603
-0.803649
-0.774771
-0.750786
-0.732625
-0.717515
-0.686475
-0.728898
-0.746602
-0.763822
-0.785236
-0.788256
-0.812994
-0.844813
-0.881246
-0.886455
-0.91683
-0.869195
-0.913356
-0.901404
-0.901681
-0.925819
-0.934378
-0.908769
-0.912821
-0.925838
-0.933803
-0.911987
-0.925253
-0.946321
-0.908107
-0.942609
-0.779665
-0.847565
-1.0271
-0.845102
-0.916407
-0.934064
-1.10868
-1.06525
-1.06871
-1.10629
-1.02384
-1.09809
-1.09904
-1.0976
-1.06572
-1.03866
-1.09486
-1.28975
-1.08506
-1.10022
-1.17961
-1.15205
-1.29639
-1.29746
-1.27737
-1.29351
-1.29153
-0.930625
-0.933599
-0.899564
-1.1165
-0.79756
-0.930553
-0.978059
-0.783446
-0.866399
-1.10948
-0.759438
-0.927344
-0.797561
-0.747227
-0.739148
-0.692796
-0.787514
-0.728984
-0.892602
-0.879016
-0.869901
-0.748749
-1.29154
-1.01059
-0.792431
-0.605591
-0.726181
-0.537599
-0.8549
-0.564022
-0.573582
-0.587124
-0.685651
-0.635012
-0.710817
-0.876718
-0.934413
-0.927001
-0.742092
-0.818412
-0.845271
-0.579398
-0.778492
-0.739992
-0.826154
-0.756316
-0.699121
-0.806726
-0.813502
-0.542458
-0.81831
-0.819508
-0.732888
-0.63848
-0.687578
-0.967566
-0.787388
0.72722
0.721985
0.739202
0.734362
0.745253
0.764515
0.790501
0.822469
0.859821
0.902987
0.925141
0.942324
0.713504
0.997031
1.12414
0.873879
0.972257
0.912585
1.13166
0.839115
1.06462
0.937671
0.777722
0.939248
0.91312
0.758289
0.899169
0.878712
0.728419
0.862737
0.845229
0.697522
0.831071
0.815034
0.675097
0.801885
0.792426
0.655317
0.7767
0.777249
0.633873
0.750642
0.751476
0.610315
0.696604
0.50734
0.9161
0.564603
0.65917
0.742424
0.549502
0.705092
0.72573
0.547403
0.720299
0.718944
0.55148
0.728326
0.698076
0.546743
0.720746
0.865279
0.600927
0.804657
0.759724
0.70119
0.703538
0.832479
0.697088
0.701998
0.700558
0.839391
0.701932
0.700848
0.688198
0.840383
0.715156
0.701681
0.664065
0.842003
0.738341
0.705754
0.635961
0.610184
0.535779
0.665419
0.78595
0.820606
0.8328
0.845596
0.852183
0.865362
0.876731
0.891554
0.907193
0.925044
0.941958
0.962625
0.981656
1.00262
1.02298
1.03991
1.04347
1.01293
0.844201
0.966426
0.978806
1.00884
0.937626
0.713812
1.28764
0.990557
1.04943
0.987143
1.02554
1.1521
1.1783
1.09606
1.0442
1.04833
1.04478
1.09595
1.28785
1.04936
0.83024
0.834344
0.932893
0.846434
0.830512
1.00356
1.29831
1.02542
1.34747
0.986997
1.15208
0.966231
0.978852
1.01575
1.16078
1.11475
0.846201
1.10597
0.859932
1.09497
1.00941
0.713203
0.9367
0.953815
1.09089
1.03301
1.0338
1.00371
0.98657
0.964381
0.946235
0.926851
0.911962
0.893058
0.884068
0.864452
0.861598
0.842945
0.833745
0.716558
1.03574
0.728286
0.715967
0.824722
0.848023
0.713357
0.85811
0.867202
0.733734
0.882949
0.893992
0.75692
0.912891
0.926028
0.784562
0.948113
0.962977
0.815856
0.987474
1.00331
0.848582
1.03326
1.03027
0.872703
1.10019
0.909754
1.12075
0.965701
0.702465
0.972048
0.914006
1.12305
0.942448
0.712251
1.00083
0.873653
1.109
1.03005
1.03482
1.00992
0.984688
0.973967
0.940749
0.938576
0.909185
0.893598
0.883952
0.865043
0.862686
0.837787
0.840513
0.721654
1.03912
0.749185
0.709586
0.795779
0.921116
0.689521
0.917831
0.927849
0.707733
0.941475
0.956234
0.730139
0.985417
0.90358
0.783111
0.96655
0.95362
0.814449
0.995865
1.00173
0.847092
1.03661
1.03794
0.869022
1.08603
0.974481
1.12409
0.883331
0.725742
1.2056
0.821895
1.13002
1.06805
0.839733
0.958085
0.902615
0.795246
0.662327
0.846337
0.710697
1.01438
1.04736
0.713072
1.11599
1.03197
0.84543
1.16026
1.10677
0.859588
1.09477
1.01701
0.75255
0.905502
1.34821
0.986804
1.15201
1.02556
1.29836
1.00388
0.830881
0.933127
0.846419
0.781814
1.11508
0.834358
0.844321
0.776742
0.773769
1.11079
0.839221
0.838673
0.772969
0.776922
1.11072
0.844857
0.833955
0.780453
0.846718
1.11481
0.932898
0.83027
1.02458
1.0035
1.29883
1.02564
1.15202
0.986019
1.04973
1.28529
0.994038
1.01974
1.27365
1.01901
0.9948
1.28488
1.04933
0.830567
1.07909
1.17759
1.09604
1.4077
0.984617
0.908676
0.955152
0.912157
1.10128
1.03102
1.03084
1.03396
0.872628
1.10175
1.09027
0.956026
1.12132
0.910865
0.912484
0.986351
1.42012
1.09973
1.09609
1.40729
0.984604
0.908592
0.858271
1.01724
1.16044
1.1153
0.712904
1.04429
0.752971
1.01257
0.711019
0.977705
1.09485
1.01291
0.932454
0.969675
0.968609
1.12124
0.9334
1.01191
0.978025
0.965355
0.843863
0.848968
0.806737
0.778118
0.933697
0.887949
0.946023