/*--------------------------------*- C++ -*----------------------------------*\
| =========                 |                                                 |
| \\      /  F ield         | OpenFOAM: The Open Source CFD Toolbox           |
|  \\    /   O peration     | Version:  2306                                  |
|   \\  /    A nd           | Website:  www.openfoam.com                      |
|    \\/     M anipulation  |                                                 |
\*---------------------------------------------------------------------------*/
FoamFile
{
    version     2.0;
    format      ascii;
    arch        "LSB;label=32;scalar=64";
    class       volScalarField;
    location    "0.4";
    object      gradTy;
}
// * * * * * * * * * * * * * * * * * * * * * * * * * * * * * * * * * * * * * //

dimensions      [0 -1 0 1 0 0 0];

internalField   nonuniform List<scalar> 
5322
(
0.039347
0.0061459
0.00234472
0.0021761
0.00139206
0.000619727
0.000204851
5.36816e-05
1.16701e-05
2.15845e-06
3.03414e-07
-1.07343e-07
-3.00748e-08
-3.97811e-08
-5.35825e-08
2.59249e-07
2.68686e-07
4.79613e-08
3.58166e-07
-1.55242e-06
2.82438e-06
-9.55307e-06
1.75607e-05
-5.25945e-05
9.58853e-05
-0.000240748
0.000408967
-0.000939428
0.00151098
-0.00293546
0.00438179
-0.00754481
0.0107383
-0.013758
0.0160724
-0.0112601
0.0234502
0.0273446
0.0140992
0.0166509
0.0202255
0.0171349
0.0192656
0.0189361
0.0180626
0.0196487
0.0183685
0.0196419
0.0200632
0.0175889
0.0224149
0.00881049
0.0110665
-0.0308258
-0.00126902
-0.0174028
0.0103526
-0.0224482
-0.000745985
-0.0194109
0.0105091
-0.0219715
-0.000649427
-0.0192922
0.010574
-0.0228564
-0.00105572
-0.0188752
0.0108274
-0.0262126
0.000491491
0.016126
0.00883088
0.0125268
0.00919664
0.0117898
0.00974939
0.0117763
0.0100882
0.0145198
0.000499888
0.00745028
0.0103192
0.0150833
-0.000605418
-0.00397116
0.00235343
0.00422498
0.0113219
0.00195472
0.00303897
0.000408586
4.01869e-05
1.7975e-05
0.0132615
-0.00897686
0.000303796
0.00901203
0.000309251
-0.0012027
0.00257568
0.000345478
0.0098397
-0.0129099
0.0115633
0.000521451
-0.000371697
-2.19384e-05
2.00274e-05
2.41324e-05
1.25766e-05
4.57022e-06
1.2781e-06
2.85556e-07
6.84446e-08
1.65104e-08
1.09568e-07
1.11305e-08
-6.81877e-09
1.92153e-09
6.82001e-08
1.16506e-08
-5.04547e-09
-2.42e-08
-1.18949e-08
4.92245e-09
3.30805e-08
-1.09131e-08
7.04882e-09
2.56634e-08
-2.06787e-08
7.36438e-10
2.09509e-08
-2.78877e-08
-6.98138e-09
1.16756e-08
-2.68914e-08
-8.12233e-09
-2.24404e-08
3.62756e-08
2.03898e-08
-6.12695e-08
-7.3479e-09
6.05211e-10
-1.05539e-07
7.84798e-09
-5.83276e-08
8.29092e-09
4.63849e-08
-8.10459e-08
-1.13278e-08
-3.38611e-08
3.36289e-08
8.23129e-08
-4.40925e-08
7.52189e-09
-7.90805e-09
6.09236e-08
1.72471e-08
2.34604e-08
2.7713e-07
-1.56565e-07
5.58718e-07
-1.29048e-06
2.55737e-07
-1.43875e-07
8.93063e-08
1.09835e-07
3.74004e-08
3.97084e-08
-5.61133e-08
7.1676e-08
-2.35807e-07
6.94858e-09
2.66759e-07
-6.32417e-07
6.88828e-07
-1.64744e-06
4.37303e-08
1.74909e-06
-4.26718e-06
4.57897e-06
-1.05882e-05
2.03876e-07
1.09152e-05
-2.51683e-05
2.66684e-05
-5.84158e-05
8.20661e-07
5.91879e-05
-0.000127281
0.000133559
-0.000272495
2.85746e-06
0.000272638
-0.000543778
0.000566451
-0.00106103
8.41105e-06
0.0010502
-0.0019349
0.00200404
-0.00339169
1.98324e-05
0.00332194
-0.00561919
0.00579171
-0.00862303
4.0906e-05
0.00835725
-0.0129527
0.0130153
-0.0089904
-8.68899e-05
-0.00177561
0.000974341
-0.000410122
-2.41493e-05
7.38107e-05
0.000117473
2.48831e-05
0.0133189
-0.00889812
3.89254e-05
0.0110326
-0.00200807
-0.00125759
0.00133383
-0.000726997
0.008982
-0.0130919
9.93461e-05
5.19202e-05
0.000152251
3.86443e-05
-2.75719e-06
-7.0381e-06
-3.42691e-06
-1.08031e-06
-2.55427e-07
-6.28641e-08
-1.47883e-08
-7.31412e-08
-9.47515e-08
-9.49323e-08
-7.30532e-08
1.88069e-08
-2.6638e-08
-4.21509e-08
-7.72188e-08
-4.6853e-09
-3.67763e-08
-2.67034e-08
1.86875e-08
-4.22651e-08
-3.43602e-08
-9.88762e-09
2.11289e-08
1.01601e-09
-7.74336e-08
-4.83454e-09
2.47527e-08
3.54534e-08
5.66386e-08
-2.9507e-07
-2.94764e-07
-2.95259e-07
4.47605e-07
-1.62408e-06
3.11845e-06
-9.52961e-06
1.90668e-05
-5.02793e-05
9.9769e-05
-0.000229898
0.000438195
-0.00089498
0.00158936
-0.0029147
0.00468486
-0.00770203
0.0108015
-0.000783114
0.010397
0.000181242
0.00131009
0.0093638
-0.00705967
0.000909135
0.00424521
-0.00275515
0.000332265
0.00146561
-0.000856538
9.49175e-05
0.00040606
-0.000221451
2.15172e-05
9.21364e-05
-4.87941e-05
3.88007e-06
1.73944e-05
-9.33941e-06
5.66369e-07
2.77147e-06
-1.61311e-06
1.19666e-07
3.75302e-07
-1.10365e-07
3.73169e-07
-1.61181e-06
1.19356e-07
4.4876e-07
-2.93482e-07
6.02093e-08
6.89972e-08
2.90362e-08
4.13309e-08
-2.6478e-07
3.09269e-07
-1.4671e-06
2.5491e-06
-8.59403e-06
1.67594e-05
-4.5496e-05
9.0714e-05
-0.000208615
0.000404772
-0.000816723
0.00148424
-0.00266563
0.00439616
-0.00681902
0.00971029
0.00022178
0.00814758
-0.0030326
0.00154387
0.013675
-0.00990101
0.00104106
0.0065068
-0.00368876
0.000367586
0.00224044
-0.00109463
0.00010408
0.000619427
-0.000273034
2.42166e-05
0.000142111
-5.77795e-05
4.55276e-06
2.72562e-05
-1.04799e-05
7.07887e-07
4.40372e-06
-1.69109e-06
1.41752e-07
5.82889e-07
-2.64025e-07
5.49798e-08
9.066e-08
6.16081e-08
-2.30617e-08
2.25935e-07
-4.8755e-08
-2.23146e-08
1.54591e-07
-1.97795e-07
3.53267e-07
-1.18578e-06
1.63386e-06
-1.84277e-06
-1.24928e-07
-7.58548e-07
5.57587e-07
-2.863e-07
-1.54537e-08
2.11801e-07
-4.34193e-08
-7.56139e-08
-4.01256e-08
-4.02955e-09
-6.53981e-09
-4.60224e-09
-4.22808e-08
-4.1943e-08
2.36048e-07
-2.70415e-07
6.3185e-07
-1.76998e-06
-1.54335e-08
4.2787e-06
-1.10146e-05
2.53611e-05
-5.95176e-05
1.31568e-08
0.000128943
-0.00027325
0.000553589
-0.00105018
4.12164e-06
0.00197384
-0.00332146
0.00570765
-0.00838635
-3.57145e-05
5.84784e-06
1.4336e-05
5.24933e-05
7.84745e-06
1.27372e-05
0.00200259
-0.003344
3.14347e-08
0.00397557
-0.00665359
0.00588217
-0.0083241
6.36339e-05
0.0102634
-0.0147376
0.00968297
-0.00844913
-0.0202828
-0.0017576
0.00066416
-0.00710998
-0.00201622
4.70975e-05
0.00699288
0.00751004
0.000388206
-0.00664753
0.00328974
-7.71359e-05
-0.0017812
0.000998924
-5.29156e-05
-0.000446227
0.000252794
-1.7157e-05
-9.51652e-05
5.33129e-05
-4.80217e-06
-1.7661e-05
9.75727e-06
-1.08786e-06
-2.58665e-06
1.55206e-06
-2.30905e-07
-3.33904e-07
1.14802e-08
4.32304e-08
-3.0107e-07
-1.9383e-07
7.20409e-07
-2.5394e-06
2.57036e-06
-7.65077e-06
1.64291e-05
-4.22448e-05
6.26262e-05
-6.11635e-05
-2.24981e-06
-3.00031e-05
2.40153e-05
-1.13778e-05
-5.9785e-07
1.0932e-05
-5.42031e-07
-2.22162e-06
-4.62089e-07
-4.25653e-07
-1.26313e-06
-4.53796e-07
-2.37613e-07
-1.94567e-07
1.45653e-08
-1.85029e-08
-1.69879e-08
-1.28828e-08
7.16201e-08
1.89956e-08
-1.67546e-08
1.95729e-08
-2.07748e-07
-1.3348e-06
-1.5227e-06
5.61689e-07
4.70912e-06
-7.11165e-06
-7.26093e-06
-1.60749e-05
-4.70296e-06
2.8615e-05
-8.68499e-05
8.75731e-05
-0.000195956
0.000389347
-0.000760537
0.00120809
-0.00106673
-1.18433e-05
-0.000643745
0.000551054
-0.000279298
-6.43347e-06
0.000301585
2.35014e-06
-2.59274e-05
-8.61198e-06
-2.14569e-06
-4.16765e-05
-2.12834e-05
-1.41036e-05
-8.1027e-06
-3.90903e-06
-2.62344e-06
4.84591e-06
-9.77643e-07
-1.38502e-06
2.12326e-06
-2.12363e-06
-2.96507e-07
1.11489e-07
1.6876e-07
2.75405e-07
-9.84455e-08
-5.99933e-08
3.33021e-07
1.98181e-07
-1.61554e-06
-7.9724e-07
3.13925e-06
2.76166e-06
-9.31756e-06
5.68402e-07
-9.53039e-06
-4.33002e-06
1.91944e-05
1.74096e-05
-4.86493e-05
3.91349e-06
-5.06135e-05
-1.91387e-05
0.000100199
9.2664e-05
-0.0002209
2.17506e-05
-0.000232853
-6.53372e-05
0.000438275
0.000410653
-0.000856296
9.6258e-05
-0.000911982
-0.000143864
0.00157392
0.00149581
-0.002772
0.000338399
-0.00297518
2.90203e-05
0.0045182
0.00439974
-0.0072185
0.000924958
-0.00772691
0.00210726
0.00993235
0.00992623
-0.000214031
0.00131352
-0.000556413
0.045191
-0.0252466
-0.0263823
0.0344462
0.00917416
0.00272072
-0.0202921
-0.00561602
-0.00351876
0.00611399
-0.00662898
-9.74811e-05
0.000711317
-0.00225309
-0.00211773
-0.000454678
0.000463342
0.000128042
-9.45394e-05
-0.000128221
-2.965e-05
2.71555e-05
8.39506e-07
-1.25571e-06
-5.98243e-07
-1.83561e-07
-4.93844e-08
-2.95139e-08
-1.17439e-08
5.68081e-08
-6.93685e-08
-2.79201e-08
-1.10981e-08
-7.76678e-08
6.89676e-08
-7.65001e-09
-5.09672e-09
-3.26854e-09
-1.10988e-08
-1.0503e-08
5.62411e-09
-1.53588e-08
6.46637e-09
-1.30339e-08
-1.34198e-08
-1.62213e-08
1.69888e-08
-5.80837e-08
5.98689e-08
-1.45966e-08
-1.56535e-08
5.94803e-09
1.41985e-08
5.96579e-08
3.4414e-08
-3.30844e-08
-1.26007e-08
-5.85375e-08
4.10534e-10
1.85018e-09
-7.18138e-08
-1.69064e-07
-1.56161e-07
-1.15715e-07
-8.85199e-07
-4.40041e-06
-1.77721e-05
-5.58994e-05
-0.00012271
-5.49378e-05
0.000134985
-0.000684074
-0.000329332
-0.000181184
0.000644162
-0.00134394
0.00142998
-0.00249984
0.00425184
-0.000342554
-0.00435439
-0.000622434
0.00235107
-0.000157943
-0.000508508
6.11299e-05
2.29103e-05
0.000114682
0.000205187
-0.000193101
-0.00246547
0.0089881
-0.00455069
-0.0119312
-0.00230386
-0.00392642
-0.0373091
-0.0109015
0.00149276
-0.0167251
0.0118878
0.000756273
0.000536422
0.0142093
0.0119101
0.00139071
-0.00128284
0.0153551
0.0138541
0.00141171
-0.00158738
0.0140571
0.0156825
0.00133384
-0.00353432
0.0118668
0.0157397
-0.00578142
0.010481
-0.00884073
0.00968226
-0.0372433
-0.0199225
0.00275638
-0.00914736
0.0149044
-0.000905203
-0.0235993
0.0155609
-0.00017861
-0.017993
-0.0181
-0.0256379
0.00605147
-0.0125015
-0.00897911
0.0116268
-0.0154079
-0.00322961
0.00787426
-0.00542652
-0.000941303
0.00312728
-0.00163014
-0.000298388
0.000964784
-0.000426077
-8.77986e-05
0.000245152
-9.51914e-05
-2.12697e-05
5.23725e-05
-1.79079e-05
-4.08112e-06
9.54115e-06
-2.84335e-06
-5.69936e-07
1.55381e-06
-3.65067e-07
9.13858e-10
2.31325e-07
-2.42561e-08
6.23691e-08
9.09992e-08
-2.67872e-07
5.89099e-07
-1.71691e-06
1.44859e-07
3.12751e-07
-2.66e-07
5.52542e-08
4.132e-08
2.94059e-08
6.9039e-08
5.66938e-08
6.04694e-08
1.47727e-07
1.17112e-07
-3.09107e-07
-2.12628e-06
-1.13785e-05
-1.17849e-05
-5.68807e-05
-0.000238913
-0.000180051
-9.20405e-05
-5.97234e-05
0.000149226
-0.000366414
-6.29382e-05
-1.88939e-05
-3.19144e-05
-2.81578e-06
-0.000151141
0.000125606
-1.50771e-06
5.82516e-05
-0.000132771
-8.08944e-07
0.000273764
-0.000561327
2.68389e-06
0.00107111
-0.00197884
2.09588e-05
0.00342187
-0.00569661
5.32399e-05
0.0085928
7.50632e-05
0.000260701
2.75479e-05
-3.76081e-05
-6.70083e-05
-4.2381e-06
2.43639e-06
5.67023e-07
-1.11142e-08
-4.34899e-08
-1.60085e-08
-3.80893e-09
-1.80279e-09
9.62879e-10
-6.86197e-08
1.06374e-08
1.79137e-08
2.14569e-08
5.27753e-08
7.45713e-08
-4.04287e-07
-4.3048e-06
-2.23702e-05
-7.8472e-05
-0.000144686
0.000578604
-0.000219124
-0.000543525
-0.000777156
0.0142394
-0.0153348
0.0163169
-9.06747e-06
-0.0023854
0.00193972
0.00566221
-1.39574e-05
-0.00518124
0.00476862
0.00483998
-2.56146e-05
-0.00549312
0.0050645
0.00438132
-2.18068e-05
-0.00699823
0.00661398
0.00628862
-0.000158597
0.0104044
-0.0109094
0.0107535
-0.01131
-0.00101614
-0.00486482
0.0069127
-0.000636103
-0.00664983
-0.000148359
-1.24598e-05
0.0221306
-5.31099e-05
-0.0222669
0.0158463
-0.000578624
-0.0163748
0.0165409
-0.000303264
-0.0171565
0.0224968
-0.000176383
-0.0223982
0.0162486
-0.016175
0.0160496
-0.0164955
0.000115488
-0.022212
0.021932
-9.89661e-06
-0.016545
-0.00073044
0.0165429
-0.0143563
-5.00259e-05
0.0256641
0.00947807
0.0221405
0.00835452
-0.00702024
0.00947199
0.00180447
-0.00473874
0.00386967
0.000585231
-0.00186389
0.00129602
0.000214193
-0.000574771
0.000373912
5.99367e-05
-0.00013936
8.39853e-05
1.49027e-05
-2.89232e-05
1.67986e-05
2.54571e-06
-4.80555e-06
2.57105e-06
3.15465e-07
-7.46815e-07
3.27563e-07
-4.03492e-08
-1.57186e-07
-1.92715e-08
-7.16525e-08
6.96914e-08
1.25833e-08
7.96347e-09
2.68292e-08
2.2643e-08
-3.6194e-08
-2.01248e-08
1.02095e-08
-2.11525e-08
-3.21877e-10
6.2853e-09
-2.49098e-08
5.65993e-09
2.76747e-09
-2.25377e-08
-3.4618e-08
-5.80772e-08
-5.60535e-08
3.1583e-07
1.1571e-07
-3.27938e-07
-1.07749e-07
1.51897e-06
1.69499e-06
8.05139e-07
-2.38403e-06
-6.6025e-07
8.27526e-06
1.06585e-05
1.16529e-06
-2.70228e-05
4.59082e-06
5.80117e-05
2.81186e-06
-0.000139725
1.83722e-05
0.000268572
2.09725e-06
-0.00060269
5.40965e-05
0.00103981
-1.6087e-05
-0.00213726
0.000141759
0.00331361
-0.000100368
-0.00618205
0.000224372
0.00850341
-0.000366992
-0.0144848
-0.000137244
0.000852662
-0.0085744
0.0140781
7.11428e-05
0.00619257
0.000420821
-0.00375221
0.00622091
-1.92203e-05
0.00235662
0.000190222
-0.00130945
0.00219206
-3.1829e-06
0.000743925
6.83626e-05
-0.000367141
0.000631157
2.29017e-06
0.000193748
2.0508e-05
-8.46005e-05
0.000150368
1.57618e-06
4.21458e-05
4.89222e-06
-1.6075e-05
3.01161e-05
6.12347e-07
7.67116e-06
1.0101e-06
-2.56062e-06
5.15623e-06
1.73092e-07
1.20642e-06
1.92966e-07
-3.55524e-07
7.67426e-07
4.25945e-08
1.99754e-07
2.28996e-08
4.91401e-08
-8.98802e-08
-6.12185e-08
2.4373e-08
-2.29593e-07
-3.22441e-09
1.10914e-07
-2.7444e-07
-1.66501e-07
-1.44848e-07
-5.23502e-08
-5.76213e-08
2.82392e-07
3.02842e-07
1.17994e-07
-2.8966e-07
-1.35804e-07
1.73238e-06
3.51406e-07
-4.396e-06
1.05104e-06
-2.00981e-06
-3.17605e-07
-1.86359e-07
-4.63112e-07
1.5865e-07
3.48908e-08
4.41637e-08
-1.59382e-08
2.69822e-08
7.90135e-08
-5.71385e-09
1.35247e-08
1.1753e-08
2.81116e-10
2.69238e-10
-1.43722e-10
4.0062e-10
-1.98993e-09
1.38593e-09
-1.71533e-07
-1.69685e-07
3.90711e-06
-5.10899e-06
-1.75219e-07
-4.92265e-07
-1.39398e-07
-5.07571e-08
-6.97172e-07
-4.2249e-08
1.62069e-06
-4.58473e-06
-1.80987e-07
1.04773e-05
-2.65963e-05
-5.58445e-07
-6.70235e-07
-6.76232e-07
-6.0763e-07
-1.88215e-06
-2.36721e-06
-9.47663e-07
1.83403e-06
3.25776e-07
3.64398e-08
-4.56196e-08
7.98128e-07
1.81752e-07
1.01852e-07
1.7719e-06
-3.86062e-06
3.77531e-06
-8.47543e-06
2.21144e-05
-4.77699e-05
4.43499e-06
-5.12826e-06
2.0558e-06
6.81786e-06
1.13864e-06
-7.84412e-07
4.24377e-07
1.06812e-06
1.80134e-07
2.51085e-07
5.61323e-07
2.09302e-08
-2.37633e-06
1.14785e-05
4.03696e-06
-1.48318e-05
-3.47418e-06
3.94118e-05
5.50645e-05
2.0049e-05
-8.25278e-05
-1.91727e-05
0.000194655
0.000238356
7.26453e-05
-0.000364112
-8.70162e-05
0.000729234
0.000891742
0.000206509
-0.0013548
-0.000299859
0.0022098
-0.00400138
-0.000756839
0.00533186
-0.00961344
-0.0010966
-0.000471259
-5.79962e-05
6.78315e-06
1.93359e-05
1.11437e-05
4.21054e-06
1.20369e-06
2.72264e-07
6.54685e-08
1.54487e-08
7.44046e-08
9.57443e-08
9.70852e-08
3.13469e-08
3.8613e-08
1.74519e-07
1.68147e-07
3.9954e-08
4.24942e-08
8.02172e-08
-4.81173e-09
1.10948e-08
5.35386e-09
7.38727e-09
5.14785e-09
4.46785e-08
3.06329e-08
-5.5045e-07
1.77361e-07
1.43902e-07
5.8916e-08
1.75292e-09
4.20647e-10
-3.33376e-08
3.47112e-08
1.43475e-08
5.8999e-09
7.52565e-08
-1.33578e-08
1.41054e-07
9.46139e-07
6.09818e-07
1.01895e-07
5.06785e-08
-4.14602e-07
1.26403e-07
-3.14794e-07
-1.01473e-07
1.28855e-06
1.79662e-06
8.10489e-07
-2.51915e-06
-4.59804e-07
1.0329e-05
4.39771e-06
-1.54085e-05
-3.55373e-06
4.43834e-05
5.25399e-05
1.94754e-05
-8.40161e-05
-2.20674e-05
0.000192472
-0.000372959
-9.19989e-05
0.000720708
0.000165021
6.1586e-05
1.84074e-05
4.46911e-06
8.95441e-07
1.36063e-07
7.58599e-08
1.74721e-08
7.1748e-08
9.95954e-09
-5.227e-08
-1.23749e-07
-1.28836e-07
-6.25681e-08
-2.81313e-07
-9.4627e-07
-7.82518e-07
-4.72429e-06
-4.29545e-06
-1.91397e-05
-1.92341e-05
-5.38694e-05
-0.000223845
-0.000803546
-0.00087635
-0.00276306
-0.00239895
-0.00130526
-0.00707185
-0.0221907
0.000549131
-0.0366523
-0.0279069
-0.0225196
-0.0150175
-0.0128993
0.00467327
-0.0110817
2.47748e-05
0.00324891
0.000706308
0.000281816
0.014249
-0.0159012
0.0167171
0.000209873
-0.00208072
0.00314105
0.00660724
0.000213965
-0.00466497
0.00613899
0.00609634
0.000193455
-0.00499642
0.00631631
0.00574175
0.000150119
-0.00673899
0.0073344
-0.000269392
0.000365625
-2.62368e-06
0.00159213
-0.0066123
-0.00939848
0.00092677
0.0063166
5.67937e-05
-0.00011996
0.0038337
7.92876e-05
-0.00623154
0.00968011
8.71253e-05
-0.0137981
0.00826199
-0.00645906
0.00530031
-0.00201424
-0.00997811
-5.41879e-06
-0.0139614
0.0185627
-0.0161399
0.0120473
1.34147e-05
-0.0119963
2.42372e-05
0.0118829
-3.54394e-05
-0.0119441
-1.59722e-06
0.0119946
-5.73989e-05
-0.0120497
0.0164676
-0.0187651
0.00167176
-0.0178645
0.0247833
0.00145965
0.000879314
-0.00983937
0.0100998
-0.0106415
5.05412e-05
-0.00670134
0.00612599
0.000403448
-0.00775291
0.00561482
-0.00703568
0.000886952
0.0150497
-0.00763523
0.00421105
0.000675717
-0.00782053
0.00613297
-0.000170858
-0.000100863
-1.38652e-05
0.000128688
2.66968e-05
-7.05112e-06
-8.06655e-06
-3.59797e-06
-1.09704e-06
-2.55211e-07
-6.25941e-08
-1.47996e-08
-4.63086e-09
1.70868e-08
-3.69047e-09
-1.1342e-08
-1.03089e-08
2.154e-08
-9.51752e-09
-6.0999e-08
8.27036e-10
-6.7311e-09
-5.85772e-08
-1.53628e-08
-2.6904e-08
-8.11046e-09
-2.25265e-08
-4.08701e-08
2.09882e-08
3.75725e-08
-3.77022e-09
5.83266e-09
-6.62725e-09
-4.29351e-09
9.03059e-09
-3.40945e-08
-9.62668e-09
-8.14849e-08
8.22132e-08
3.46395e-08
-8.41247e-09
5.18144e-09
-2.19519e-08
-3.40749e-11
2.1994e-08
9.20945e-11
6.89428e-10
-4.17958e-08
-7.52853e-08
-4.48464e-08
-1.18587e-07
2.79506e-07
1.6988e-07
1.10148e-07
-3.09407e-07
-2.1864e-06
-1.19133e-05
-5.64533e-05
-0.000231793
-0.000818322
-0.0024719
-0.00245008
-0.00654812
-0.00709445
-0.0171831
-0.0270565
-0.024899
-0.0249557
0.00996999
-0.0122675
-0.00827395
-0.00893153
-0.0246362
-0.0274759
-0.0253118
-0.025325
-0.0247432
-0.0251758
-0.0289663
0.0101176
0.000362672
-0.00250129
0.028088
-0.00654896
-0.0214515
-0.0188267
-0.00535966
-0.00643329
-0.0164405
-0.0167471
-0.000265766
-0.00147367
0.00123228
0.000615617
0.000206912
5.45304e-05
1.18675e-05
8.32804e-06
1.38284e-06
1.36732e-06
1.96361e-07
3.28794e-07
-1.37363e-06
-8.31802e-06
-4.12423e-05
-0.000172351
-0.000613421
-0.00191179
0.00130522
0.00105653
0.00103727
0.000471108
0.000157241
4.04161e-05
3.99395e-05
8.23127e-06
1.15049e-05
2.06923e-06
2.55835e-06
4.39364e-06
-1.05314e-05
2.69281e-05
-5.74319e-05
4.47875e-06
1.66209e-05
-8.63158e-06
7.10427e-07
-5.84389e-07
-8.76229e-07
-7.75631e-07
-1.47711e-06
-1.54632e-07
-3.45234e-08
1.38806e-09
-1.12299e-07
-1.28437e-07
-1.22711e-07
8.25173e-09
-1.05589e-07
4.66089e-08
-3.07583e-09
7.53734e-12
3.40479e-11
-3.69012e-09
-4.45658e-09
-1.28209e-08
4.47865e-09
3.27303e-09
5.38078e-09
-4.43979e-09
4.2857e-09
1.13691e-08
1.07729e-08
1.32189e-08
4.04508e-09
6.73645e-09
1.33492e-11
3.39734e-09
-5.41766e-09
1.06193e-07
5.94068e-08
7.78834e-09
-6.84855e-09
7.97477e-11
6.19967e-08
1.28308e-07
5.66811e-08
1.35825e-09
2.85509e-10
-6.26229e-08
-5.14394e-08
-1.70332e-07
-4.61346e-07
-3.25236e-07
-2.23563e-06
-1.06535e-06
-4.37142e-06
-4.22594e-06
-1.77698e-05
-1.88381e-05
-4.54531e-05
8.91607e-05
0.000139508
-0.000268497
0.000604699
-0.00106153
9.93635e-05
0.00039466
-0.000207099
2.34551e-05
-5.14378e-06
-8.77774e-06
-2.23645e-06
-2.69764e-05
2.40746e-06
-5.6695e-05
-6.53885e-05
-6.04459e-05
-6.65224e-05
-0.000135714
-0.000154231
-0.000152791
-0.000116317
-5.33777e-05
0.00118456
9.56696e-05
3.80294e-05
-1.22208e-06
-4.44047e-06
-1.99334e-06
-5.76941e-07
-6.30331e-07
-2.59134e-07
-1.20996e-06
-2.1761e-06
-8.78632e-07
-3.93044e-06
-4.76303e-06
-1.97202e-06
4.56994e-07
7.63586e-08
-2.14596e-07
2.75963e-07
3.22571e-07
1.10489e-08
7.22769e-08
3.90262e-07
1.64102e-06
-8.57339e-06
-4.83328e-07
-1.16793e-06
-6.07746e-06
4.59188e-05
1.0456e-05
3.55573e-05
0.000205605
0.000160738
0.000105866
-0.00244363
-0.0023708
-0.000264399
0.000395278
0.000520901
0.000134585
-0.00569195
-0.00016501
-7.74926e-05
1.07719e-07
-0.000560458
-9.35274e-05
0.0151671
-0.000182044
-0.0168358
-0.000111527
-0.000543088
-0.0157116
-0.000670282
-0.000722957
-0.011349
-0.00665598
-0.0103274
-0.023982
0.00282814
0.0059981
0.000366782
-0.000355154
-0.000317057
-0.000545302
-4.41945e-05
-0.0136713
0.0160836
-5.19041e-06
-0.00374338
0.00161927
0.00522104
-1.1924e-05
-0.00671203
0.0041793
0.00422099
-3.18473e-05
-0.006888
0.00448161
0.00377167
-6.94571e-05
-0.00635614
0.00159084
-0.0106852
0.00579128
0.00878499
-0.00959278
0.00260284
0.000858838
-0.000508022
-5.32669e-05
8.51183e-06
2.21922e-05
1.26871e-05
4.77484e-06
1.35802e-06
3.05192e-07
6.97559e-07
6.89938e-07
8.57932e-07
1.09502e-05
-2.35217e-05
3.67198e-06
5.89067e-05
-0.000121494
0.000111099
-0.000227462
0.000471552
-0.000901604
4.21434e-05
-0.000157324
3.01948e-05
0.000163297
1.52072e-05
-3.11874e-05
8.69488e-06
3.63539e-05
4.2862e-06
7.28536e-06
1.72271e-05
-4.61185e-06
-6.00065e-05
0.000284638
6.26154e-05
-0.000349998
-8.67956e-05
0.000693869
0.000923222
0.000213489
-0.00131403
-0.00029312
0.00272706
0.000511729
-0.00391808
-0.000792131
0.00532418
0.00684272
0.000776117
-0.0113611
-0.00122355
-0.00945476
-0.0112051
0.000852865
0.00663991
0.00548485
-0.00927272
-0.00117943
-0.000510245
0.000624119
0.000371065
0.000176841
6.59957e-05
1.96732e-05
4.75239e-06
2.96927e-06
1.17156e-05
2.80561e-06
9.46451e-07
7.62562e-06
1.4489e-06
0.000269119
-0.000525995
4.24634e-05
0.00103079
-0.00188797
0.00167627
-0.00292839
0.00494479
-0.0075125
-8.64118e-05
-0.00193967
0.000158399
0.00200047
7.95624e-05
-0.000646229
8.30251e-05
0.000618042
3.24417e-05
9.1543e-05
0.000272245
-5.18671e-05
-0.000640776
0.00348611
0.000370682
-0.00366994
-0.000798033
0.0056439
0.00683341
0.000794018
-0.0117607
-0.00119094
-0.00847185
-0.0154692
0.000373616
0.00867541
-0.00110093
0.00534143
-0.000497225
0.0031311
0.00394881
0.00175668
0.00109516
0.0057556
-0.0029819
7.67427e-05
0.00146895
0.000581793
0.000209918
6.6714e-05
1.78079e-05
3.93502e-06
7.24178e-07
1.14896e-07
9.87643e-08
-2.58407e-08
-5.07079e-08
-1.74807e-08
3.02322e-08
-6.83891e-08
3.12659e-07
-3.83076e-08
-3.3475e-08
-5.30696e-08
-4.4005e-08
2.31663e-07
3.14968e-07
1.18209e-07
-3.59221e-07
-1.00561e-07
1.77274e-06
8.05822e-07
-2.43089e-06
-5.02794e-07
8.65549e-06
1.00029e-05
4.35249e-06
-1.55921e-05
-4.22754e-06
4.3094e-05
-1.10718e-05
-7.79664e-06
-1.99147e-05
-1.29734e-06
-3.25362e-06
2.13341e-06
2.1235e-06
3.07309e-07
-1.1064e-07
-1.3416e-07
-4.77248e-08
-7.14517e-08
-1.70457e-07
3.61589e-08
-1.69974e-09
3.5474e-08
4.89376e-08
1.89057e-06
7.66179e-07
-2.36808e-06
-4.78363e-07
7.44982e-06
1.05405e-05
4.43239e-06
-1.56197e-05
-3.35682e-06
5.35654e-05
1.98827e-05
-8.22498e-05
-1.99076e-05
0.000196224
0.000236344
7.04859e-05
-0.000451927
-0.000141857
-3.73235e-05
-0.000103734
5.04103e-05
5.08598e-05
1.11824e-05
-1.30354e-06
-2.87811e-06
-1.73804e-07
-3.56388e-07
3.12228e-07
-3.58358e-07
-3.7559e-07
1.0639e-06
2.26057e-06
-1.72299e-06
-3.40345e-06
6.86557e-06
1.54429e-06
3.55071e-06
-5.93705e-07
6.19147e-05
1.7711e-05
-7.90244e-05
-1.97872e-05
0.000180005
0.000246238
7.31112e-05
-0.000363332
-8.49283e-05
0.000890207
0.000213854
-0.00132365
-0.000297807
0.00221783
0.00276348
0.00048898
-0.00476782
0.000347931
-1.54188e-05
8.48662e-06
7.74139e-06
1.16706e-06
2.86821e-07
5.30657e-08
8.30505e-09
-2.62062e-07
-6.31859e-07
-2.20404e-06
-2.08776e-06
-6.97239e-07
-2.12336e-06
-3.94286e-06
-4.80341e-06
-1.52446e-06
-4.96693e-06
-2.18419e-06
-9.112e-07
-7.57071e-07
-2.20648e-07
-1.80439e-07
4.33104e-06
2.36257e-09
-4.3149e-06
1.10952e-05
2.00376e-08
-2.53671e-05
2.54698e-05
-1.10618e-05
1.05477e-05
-6.04969e-07
-2.66936e-05
2.39722e-05
-1.13847e-05
3.94367e-06
-1.62512e-07
-4.61696e-06
1.64353e-06
-1.78149e-06
1.78656e-06
-1.63483e-06
1.70674e-07
-3.90962e-06
4.63005e-06
2.06934e-07
-1.04965e-05
6.57662e-07
-2.37943e-05
2.67714e-05
7.89028e-07
-5.78761e-05
2.01497e-06
-0.000122776
0.000132664
-0.000127485
0.000127997
1.06367e-07
5.97884e-05
-5.95891e-05
-6.29728e-07
5.81661e-05
-1.70176e-06
-0.000132233
0.000123685
-6.09684e-05
-2.33058e-06
-3.00046e-05
1.62866e-05
-5.44996e-07
1.09537e-05
-5.95804e-07
-5.14496e-06
2.59999e-06
-1.6175e-07
1.65721e-06
-1.84994e-06
5.66965e-07
-4.04921e-08
-7.03243e-07
-4.02236e-08
6.44503e-07
4.72087e-10
-6.42068e-07
4.4935e-08
7.04592e-07
4.16793e-08
-5.61518e-07
1.85396e-06
-1.64059e-06
1.27758e-07
1.44051e-07
4.8986e-08
2.81239e-08
1.17946e-08
-5.76311e-08
7.8657e-08
-7.14606e-08
7.15416e-08
-3.44282e-11
-4.93688e-10
-1.08554e-08
-7.84964e-08
5.79618e-08
-1.16707e-08
-7.07292e-09
1.21243e-08
-2.79633e-08
-5.05379e-09
-7.1988e-09
2.4212e-07
-2.75781e-07
2.76315e-07
-2.40844e-07
2.88934e-07
-2.13496e-07
1.57588e-08
1.56056e-08
-1.18638e-08
7.23918e-09
2.80807e-08
4.627e-09
4.34536e-08
1.82055e-07
5.0809e-09
3.45269e-08
1.86513e-07
-1.76051e-06
-1.46082e-06
-0.000271995
3.85669e-07
-0.000538468
0.000540477
-0.000552021
0.000533094
-2.67683e-06
0.000270513
-0.000276745
-7.16271e-06
-0.000149828
8.55881e-05
-1.18279e-06
6.20317e-05
-4.21542e-05
-4.73835e-06
-1.64248e-05
2.87362e-05
-1.41824e-05
-8.48044e-05
0.000142831
-5.82755e-05
-0.000364384
0.000594967
-0.000186617
-0.00129181
0.00203727
-0.000515448
-0.00389159
-0.00100762
-0.000317811
-0.000350683
-9.70251e-05
-0.000113502
-2.95717e-05
-3.18535e-05
-7.51452e-06
-7.40531e-06
-1.51399e-06
-2.66663e-06
4.87826e-06
-7.69199e-06
-9.8419e-07
-2.62158e-06
7.50963e-07
-3.23596e-07
-2.36777e-07
-1.44558e-06
-2.30377e-07
-3.33727e-07
-1.88847e-07
3.62394e-07
-4.08618e-08
-7.67166e-07
-1.21743e-07
-1.35164e-07
-1.37465e-08
-1.69018e-08
-1.26227e-08
-7.00419e-08
7.23285e-08
1.99487e-08
1.58346e-07
3.85384e-08
1.54617e-08
-2.02716e-08
-2.17476e-08
-2.01257e-07
2.15649e-07
-2.88555e-07
-1.5279e-08
-2.74116e-08
-2.85537e-08
-4.70831e-08
-1.74581e-07
3.27146e-08
5.68273e-07
4.19086e-06
2.18605e-05
3.56504e-07
-0.000629624
0.000373179
-0.000194575
0.00029498
-3.56404e-06
-1.58594e-06
-4.9384e-07
-1.95272e-07
-5.8951e-07
-1.43698e-06
-1.21032e-06
-1.56042e-06
-1.55781e-05
-0.00104913
2.31376e-06
-0.00191036
0.00189064
-0.00219435
0.00133445
1.69443e-05
0.00116371
-0.000751707
-5.88348e-05
-5.33655e-05
0.000198847
0.00015493
0.000465102
0.000590282
0.00142775
0.00216639
-0.00350814
0.000551168
-5.6954e-05
-5.84702e-05
6.59139e-05
-0.000130354
-0.000156358
-0.000803058
-0.000158571
-9.42707e-05
-0.00259118
0.000339733
2.44114e-05
7.48327e-07
3.15284e-05
0.000134145
0.000199709
4.24277e-05
7.66437e-06
-2.10859e-06
-1.49463e-06
3.21569e-06
4.77525e-06
6.63142e-06
2.09161e-06
-1.13521e-06
3.62733e-06
1.11183e-06
1.27059e-06
2.55401e-06
2.6069e-06
7.48659e-06
1.35503e-05
3.72334e-06
1.13663e-06
6.98967e-07
-5.48443e-07
-1.46917e-06
-1.9607e-07
1.93603e-07
5.01042e-08
8.67115e-08
7.68664e-09
3.13692e-07
-5.5989e-07
2.34881e-06
7.00802e-06
4.61437e-06
2.81763e-06
3.16939e-05
1.58369e-05
3.74984e-05
1.16e-05
0.00325777
-0.00553012
0.000214287
0.00825443
0.000188298
2.25111e-05
0.000106067
0.00107509
-0.0020856
0.0114003
-0.0101437
0.0212573
0.00291626
0.0114342
-0.0111044
0.0101891
-0.00903706
0.00723508
0.0082164
-0.00967982
0.00203376
-0.0108453
0.00768051
0.00789707
0.0142411
-0.000928719
-0.000512907
-0.00183875
-0.000231132
-0.00605446
-0.000206612
-3.7733e-05
4.01373e-06
1.21091e-05
1.64887e-05
1.52097e-06
8.98773e-06
6.81486e-06
1.50487e-05
-1.26626e-06
1.89639e-05
-1.15425e-05
0.000201645
9.54449e-05
3.73081e-05
-0.000551976
0.00109716
0.000175751
-0.00126608
-0.000297745
0.00221672
0.00283147
0.000498
-0.00386358
-0.000779464
-0.00472135
0.000372248
0.00017765
9.52385e-06
1.44607e-05
9.2171e-06
0.000111105
1.39794e-05
9.64275e-06
8.77646e-06
3.94855e-06
6.73463e-06
1.99473e-05
4.84377e-06
9.68455e-07
-3.05398e-06
-1.24387e-06
8.45865e-06
-1.75216e-07
1.47857e-06
-4.14737e-07
-1.43488e-07
2.75751e-07
-6.04124e-08
-3.77469e-08
-1.15953e-07
3.11046e-07
-7.62371e-06
-8.14863e-06
-1.88134e-05
1.25145e-05
-9.03178e-06
-1.30667e-05
3.27647e-05
5.83009e-05
-4.09513e-05
-0.000123057
0.000128603
2.73664e-05
7.0733e-05
-2.01122e-05
-0.000222688
-0.000149091
0.000421056
0.000714222
0.000226063
-4.00057e-05
-0.000101881
-3.69811e-05
-0.000101046
0.000194223
-0.000155622
-0.000454822
-0.00014174
0.00073065
0.000593246
-0.000482957
-0.00166333
-0.000401414
-0.00204062
0.00125253
0.00035594
0.00117808
-4.05487e-05
-0.00621024
-0.000394258
0.00178606
0.00333999
0.00488238
0.0109084
0.025525
0.013601
0.0200586
-0.00250518
-0.00119587
-0.00493846
0.00134975
0.00212636
0.00402427
0.0132354
0.0194178
-0.0023331
-0.00104618
-0.000430609
0.00224953
-0.00160529
0.000572425
0.000190956
0.00124888
0.00187579
0.00363065
0.0121036
0.0196345
-0.00237661
-0.00104422
-0.000428821
-0.00162449
-0.000539174
-0.000183885
-5.04793e-05
3.93626e-05
8.04438e-06
1.32157e-06
5.51514e-07
4.01005e-06
0.000156422
0.000495052
0.00119867
-0.00124019
-0.00226952
0.0036305
0.0110368
0.0219519
-0.00338221
0.00571976
0.00246609
0.00133372
-6.57637e-05
-0.000103338
-3.18514e-05
-2.65485e-06
2.76866e-06
1.80277e-06
6.60151e-07
1.86524e-07
2.93671e-09
5.09598e-10
-4.87685e-08
5.49452e-08
1.16905e-08
7.62838e-09
2.85113e-08
1.66791e-08
1.69183e-08
-1.48697e-08
5.40542e-07
6.33983e-07
-1.08691e-05
1.14188e-05
7.72628e-07
2.57521e-07
3.13247e-07
7.02937e-08
6.74091e-07
6.18988e-07
4.75106e-07
7.75925e-08
4.06618e-08
-5.856e-07
2.16469e-07
2.3169e-06
2.28129e-06
9.76497e-07
1.21575e-06
2.44977e-06
6.36955e-06
3.68209e-06
2.84847e-06
2.55227e-06
6.07761e-06
7.60417e-07
1.87948e-06
6.53873e-06
6.05585e-06
0.00188529
2.45781e-07
-0.0018804
0.00325858
-6.57994e-06
-0.00533866
0.00533699
-0.00325698
0.00330971
2.15953e-05
-0.00538942
0.0054182
-0.00327551
-1.64747e-05
0.00375818
-0.00242751
-0.000126387
-0.000107618
3.08302e-05
8.58211e-05
0.00023539
0.000167597
-0.00125434
-0.00275454
-0.00449152
-0.000245291
-0.0013671
-0.000686421
-0.000152701
0.000206168
0.000149349
3.45375e-05
7.19895e-06
1.13118e-05
-2.54888e-07
0.00104557
-0.00103695
0.00103944
-0.00104038
2.51659e-06
-0.00186968
0.00191459
2.70961e-06
-0.00330075
-1.78888e-05
-0.0053571
0.00539348
-1.0328e-05
-0.00842663
0.00833019
-0.00948221
4.31628e-05
-8.63685e-05
-2.77277e-05
3.20848e-06
7.12666e-06
4.46971e-05
0.000153207
4.03506e-05
0.00171922
-0.00240056
0.0454608
-0.00129366
-0.000149552
-0.000830297
-0.0103784
0.00270805
0.00627368
0.000460698
-0.00012594
-0.00478465
-0.000170804
6.50053e-05
0.000115646
9.1325e-06
1.23071e-05
0.000532461
0.000304757
-0.0158593
0.0149279
-0.000953283
-0.000554426
-0.000373039
0.002792
-0.00100789
0.00224544
0.00379995
0.0077878
0.0145871
0.0026698
-0.00698099
0.00280502
-0.0108185
0.00222106
0.000796414
-0.00663758
0.000563746
-0.000100023