/*--------------------------------*- C++ -*----------------------------------*\
| =========                 |                                                 |
| \\      /  F ield         | OpenFOAM: The Open Source CFD Toolbox           |
|  \\    /   O peration     | Version:  2306                                  |
|   \\  /    A nd           | Website:  www.openfoam.com                      |
|    \\/     M anipulation  |                                                 |
\*---------------------------------------------------------------------------*/
FoamFile
{
    version     2.0;
    format      ascii;
    arch        "LSB;label=32;scalar=64";
    class       volScalarField;
    location    "0.4";
    object      gradTx;
}
// * * * * * * * * * * * * * * * * * * * * * * * * * * * * * * * * * * * * * //

dimensions      [0 -1 0 1 0 0 0];

internalField   nonuniform List<scalar> 
5322
(
-0.0158081
0.00153579
0.00123961
-4.71047e-05
-5.20833e-05
-1.92327e-05
-4.11527e-06
-3.64221e-07
9.46166e-08
6.00212e-08
2.3646e-08
1.83629e-08
1.10914e-08
-5.58696e-08
2.47245e-08
2.79413e-07
-1.54599e-07
9.32816e-08
-1.40889e-07
1.07017e-06
-7.91369e-07
6.8311e-06
-4.63896e-06
3.6426e-05
-3.16691e-05
0.000160556
-0.000140485
0.00060026
-0.000591738
0.00182533
-0.00168229
0.00478685
-0.00334328
0.0107803
0.0025007
0.021056
0.0150188
-0.00603436
0.0159746
-0.00107674
-0.0153327
0.0152128
-0.000911894
-0.01614
0.0162107
-0.000458663
-0.0170794
0.0154756
-0.00022146
-0.0180008
-0.0180903
-0.0255988
-0.00915574
0.0147671
-0.000924681
-0.0234814
-0.000728444
0.0222781
-0.000207853
-0.0221171
-4.85911e-05
0.0216246
-8.39078e-05
-0.0217905
4.69969e-05
0.0213386
0.000354545
-0.0216741
0.00143607
0.0179777
0.00152457
-0.0140319
0.0159693
-0.0163567
0.0156958
-0.0159875
0.0160366
-0.0160373
0.0184325
-0.0139049
0.00596941
-0.0124734
-0.00903239
0.011707
0.0007011
-0.00255226
0.0100111
-0.029
-0.00659615
0.0280151
-0.00132796
2.41529e-05
-1.34642e-05
0.00156497
0.011237
-0.00105637
0.00129647
0.000642565
0.010246
-0.0254235
-0.0253474
0.0452526
0.000564076
0.00876332
0.0144175
0.00151167
0.000353621
0.000121883
2.39149e-05
-8.52819e-06
-8.80193e-06
-3.88402e-06
-1.18202e-06
-2.75487e-07
-6.67803e-08
-1.59072e-08
-1.06335e-07
-6.05549e-08
5.3612e-09
-8.13415e-09
-1.59382e-08
1.16692e-08
-2.73726e-08
-8.26928e-09
-2.2549e-08
3.64248e-08
1.9751e-08
-1.03198e-08
2.12876e-08
2.91837e-11
-6.87227e-09
2.39365e-08
-6.25565e-09
-3.19563e-09
2.23855e-08
-1.21919e-08
4.17306e-09
2.36136e-08
1.08012e-08
-5.48891e-09
-3.36257e-08
-1.80543e-08
-3.41833e-09
-6.3194e-08
-1.1024e-07
5.23928e-09
-1.30698e-08
-4.32869e-08
-7.69043e-08
-9.7731e-08
1.20541e-08
-3.26706e-08
-2.79833e-08
-9.65354e-08
-7.55132e-08
1.45682e-08
-4.46306e-08
-1.42971e-09
-6.22913e-08
5.29923e-08
-2.57513e-07
-2.68975e-07
5.84449e-07
-1.73252e-06
-2.15478e-07
-3.65443e-07
-4.33314e-08
2.2963e-07
-4.90611e-08
8.96713e-08
3.96917e-08
6.92305e-08
-3.01838e-07
5.68763e-08
-2.8e-07
3.259e-07
4.56085e-07
-1.68835e-06
1.02347e-07
-1.51305e-06
2.43694e-06
3.21516e-06
-9.99046e-06
4.82017e-07
-8.6938e-06
1.55508e-05
1.9818e-05
-5.29326e-05
3.53194e-06
-4.52393e-05
8.34405e-05
0.000104264
-0.000242468
2.03471e-05
-0.000204952
0.000370745
0.000459622
-0.000944088
9.18208e-05
-0.000792579
0.00134559
0.00166964
-0.00306773
0.00032552
-0.00255548
0.00392031
0.00491102
-0.0080573
0.000894319
-0.00659902
0.00871246
0.0108054
-0.000771201
0.00982155
-0.0251107
-0.0256364
0.0452686
-0.00248214
-0.00257648
1.09489e-05
0.00171222
0.0112681
-0.000361293
0.00144024
-0.000903441
0.00955558
-0.0255054
-0.0251779
0.0450072
0.000338594
0.00872873
0.001274
0.000500057
0.000135977
3.17376e-05
-6.13063e-06
-8.57101e-06
-3.97295e-06
-1.23119e-06
-2.88937e-07
-7.04313e-08
-1.71893e-08
4.24809e-08
-8.1368e-08
8.14146e-08
-4.23705e-08
1.00462e-08
3.45914e-08
-7.79933e-09
5.6181e-09
-2.05202e-08
-3.92919e-12
-3.46037e-08
-9.62914e-09
7.55627e-09
-5.56331e-09
1.02164e-08
-7.36472e-09
-2.63301e-08
-5.77618e-09
2.01985e-08
-1.53776e-10
-2.7363e-10
6.69702e-08
-2.65345e-07
2.65144e-07
-2.32697e-07
6.9688e-07
-1.63215e-06
4.60564e-06
-1.04636e-05
2.66576e-05
-5.76285e-05
0.000132826
-0.000268631
0.000561247
-0.00104548
0.00198138
-0.00334211
0.00572379
-0.00850652
0.0131175
-0.00892242
0.000248749
0.00899352
0.000261935
-0.0127893
0.00827568
4.68347e-05
-0.00554845
0.00328572
2.07501e-05
-0.00191139
0.00103927
8.68449e-06
-0.000537632
0.000270342
3.05173e-06
-0.000126047
5.88971e-05
8.98056e-07
-2.4996e-05
1.09102e-05
2.23497e-07
-4.25409e-06
1.75572e-06
4.78334e-08
-6.31323e-07
-6.48084e-11
6.30941e-07
-1.75106e-06
-4.69607e-08
-6.94187e-07
2.32181e-07
-7.91817e-09
-7.2835e-08
-1.12777e-08
5.55847e-08
-2.79427e-07
5.44067e-07
-1.78315e-06
3.84312e-06
-1.09794e-05
2.36417e-05
-5.8802e-05
0.000123123
-0.00026756
0.000537434
-0.00102055
0.0019459
-0.00320785
0.00571932
-0.00800331
0.0130863
-0.00871412
-0.00265831
0.00349499
0.000369934
-0.0121774
0.0075072
2.56462e-06
-0.00510343
0.00302892
-5.52273e-05
-0.00169482
0.000926508
-3.23358e-05
-0.0004734
0.000231134
-1.22106e-05
-0.000111427
4.80875e-05
-3.66941e-06
-2.2158e-05
8.45793e-06
-9.05313e-07
-3.76919e-06
1.27363e-06
-1.91775e-07
-5.59035e-07
1.51918e-07
-2.52528e-08
-4.04983e-08
2.41575e-08
4.90859e-08
-1.05093e-07
-4.28554e-08
-3.12927e-08
6.69743e-08
-3.08879e-07
3.98694e-07
-1.87375e-06
-1.27797e-06
-1.77954e-06
9.08248e-08
3.12255e-07
3.48556e-07
-3.12101e-07
4.27025e-08
-2.29779e-07
-1.34185e-07
-1.07772e-07
-5.03404e-08
-5.79169e-09
-1.15366e-08
-3.9394e-08
-1.73662e-07
-1.24362e-07
-2.73808e-07
-3.13188e-07
4.07691e-07
-1.75618e-06
-8.3561e-07
3.01758e-06
-1.02753e-05
1.90706e-05
-5.3933e-05
-2.0424e-05
0.000101854
-0.000245296
0.000452859
-0.000949661
-0.000169118
0.00165096
-0.00305917
0.00483142
-0.00789355
0.00162006
9.71065e-06
-0.000167082
-0.000149406
-0.000137252
-0.000168608
0.00172706
-0.00315678
0.000352918
-0.00254359
0.00374386
0.0051279
-0.00792954
0.00102594
-0.00697983
0.0078721
0.016068
0.000230798
0.00209958
-0.0276638
-0.0258523
0.0438975
-0.00325877
0.000156873
0.000365959
-0.00666561
0.000981409
0.00196295
-0.00211647
5.22758e-05
0.000689253
-0.000623849
-3.03809e-05
0.000166979
-0.000164724
-1.468e-05
2.94661e-05
-3.63217e-05
-4.98341e-06
5.18762e-06
-6.72125e-06
-1.31913e-06
7.35477e-07
-1.02274e-06
-2.98371e-07
1.52264e-07
1.3206e-08
7.97254e-09
-1.1915e-08
-6.29552e-08
4.05594e-07
-4.14605e-07
3.32428e-06
-1.14706e-05
2.26368e-05
-6.26497e-05
-4.02104e-05
-5.55046e-05
3.43251e-06
1.50289e-05
1.88147e-05
-1.04927e-05
4.38677e-07
-7.46911e-06
-4.30737e-06
-3.10526e-06
-6.46797e-07
-4.63326e-07
-7.27753e-07
-1.21942e-07
-1.80039e-07
-9.28326e-07
-2.14573e-06
-2.89166e-07
7.38822e-08
3.30854e-08
3.85781e-08
1.88229e-08
1.67859e-07
-1.38305e-08
3.77516e-07
1.84016e-06
-6.56321e-06
-1.23566e-05
-6.03636e-05
-3.36027e-05
9.47567e-06
-3.31083e-06
3.60667e-07
1.35448e-05
-1.68858e-05
0.000125261
-0.000292802
0.000568662
-0.00116571
-0.00075209
-0.000984486
9.52086e-05
0.000359853
0.000466256
-0.000253695
2.05588e-05
-0.000188151
-6.24795e-05
-3.3499e-05
-1.17745e-05
-8.89495e-06
-1.78375e-05
-3.96432e-06
-6.88493e-06
-4.01511e-06
-1.13858e-06
-1.49929e-06
2.54534e-06
-7.73908e-08
-2.19618e-06
-3.57242e-07
-6.12454e-08
-2.5507e-08
-1.97376e-08
-1.14072e-08
-9.82467e-08
-1.15014e-07
-9.69461e-08
-1.03947e-07
-5.43271e-08
1.6378e-06
-1.13526e-07
-4.58951e-06
4.27126e-06
-1.08485e-05
-1.93159e-07
1.05677e-05
-3.20486e-07
-2.65552e-05
2.52204e-05
-5.84195e-05
-5.77016e-07
5.85273e-05
-3.49761e-07
-0.000132191
0.000127711
-0.000267652
-9.12816e-07
0.000274006
2.73425e-06
-0.000558248
0.000546322
-0.0010281
1.74067e-06
0.00106936
1.95636e-05
-0.00197125
0.00194398
-0.00325273
1.73418e-05
0.00341267
5.31033e-05
-0.00569261
0.00562182
-0.00821569
5.25419e-05
0.00857791
-2.67415e-05
-0.013002
0.0128155
-0.00894408
-2.78271e-05
0.00890463
-0.00071755
-0.00208474
-0.000895421
-0.0027559
-0.0221121
0.00365824
0.000884098
-0.00146025
-0.00282193
-0.000279613
-0.00959273
0.00265187
-0.00751484
-0.00816485
-0.000216445
-0.00198988
-0.0029458
-0.000922049
-0.000514713
0.000166412
-0.00013907
-0.000252539
-0.000222509
-5.28548e-05
-1.10065e-05
-2.02549e-06
-2.88651e-07
1.11763e-07
3.46916e-08
4.74563e-08
5.27845e-08
1.31801e-07
1.41784e-07
5.804e-08
5.96136e-08
5.516e-08
-8.07342e-08
4.32428e-09
-1.19448e-08
-7.64715e-09
3.94001e-09
-6.93905e-08
-3.50825e-09
-6.67467e-11
-9.353e-11
9.78039e-11
-3.53522e-08
-5.90684e-08
-5.92482e-08
-3.44021e-08
3.48369e-08
6.60159e-09
1.50619e-08
6.00732e-08
-1.40214e-08
-1.35299e-08
1.55029e-08
5.92197e-08
2.36775e-10
8.33265e-10
6.79995e-10
3.23518e-10
-4.67487e-08
-3.42272e-08
-1.86636e-07
-7.57001e-07
-2.21885e-06
-3.54075e-06
3.57468e-06
-5.81487e-05
-6.95232e-05
-0.000199165
-5.28335e-06
-9.45475e-05
0.000215074
-0.000321794
0.00215195
-0.00386238
0.00675334
0.000154214
-0.00191212
-0.000501892
0.000537742
7.61903e-05
0.000450949
0.000553971
-0.000813627
-0.00254714
-0.00682522
-0.01796
-0.0186421
-0.0378736
-0.0122164
-0.00998337
0.000204512
-0.00347502
0.0044983
-0.0374083
-0.0232876
-0.0117826
0.0157568
0.00135446
0.00068139
-0.0153297
0.0162916
0.000206786
-0.00201385
-0.0166169
0.0161749
2.11383e-05
-0.00231573
-0.0163565
0.0160288
1.64335e-05
-0.00368973
-0.0157376
0.011442
-0.0110305
0.0102058
0.00780492
0.0212397
-0.0100689
-0.00542592
0.00294893
0.0110776
-0.0306364
-0.00128028
-0.0175211
0.0197462
0.0200515
0.0175689
0.0224093
0.00879459
0.000569638
0.00745559
0.0103252
0.0149899
-0.00288673
0.00110403
0.00567966
-0.0018858
0.000113285
0.00196947
-0.000627414
3.50079e-05
0.000609386
-0.000151851
1.42506e-05
0.000161413
-2.99058e-05
4.54604e-06
3.61107e-05
-4.85196e-06
1.09695e-06
6.80905e-06
-7.33483e-07
1.93031e-07
1.07554e-06
-1.35909e-07
-9.53045e-09
1.12437e-07
-4.88858e-08
-2.48701e-08
4.10342e-08
-1.53181e-07
5.68533e-07
-1.27201e-06
1.8941e-07
-5.47607e-07
2.79892e-07
2.55222e-08
-5.56428e-08
1.11089e-08
7.29944e-08
-6.72606e-08
7.75718e-09
1.10347e-08
2.38167e-10
7.58284e-10
9.89355e-09
8.23677e-08
-3.02668e-08
1.06127e-06
8.81013e-06
-6.47573e-05
-1.38072e-05
-2.92365e-05
5.97126e-05
-7.37264e-05
2.17517e-05
4.48334e-06
4.30741e-05
4.24218e-05
8.05893e-05
0.000103138
-2.07575e-05
-4.46108e-05
8.40826e-05
1.9845e-05
-0.000203852
0.000372275
9.11705e-05
-0.000795541
0.00134693
0.000327001
-0.00259449
0.00390709
0.000895003
-0.00679938
0.00102409
0.00131455
-0.000282613
-0.000322208
-0.00653836
-0.00241291
-0.000787739
-0.000218994
-5.24791e-05
-1.10453e-05
-2.06149e-06
-2.97736e-07
1.16332e-07
3.61212e-08
5.15472e-08
1.43439e-07
1.07674e-07
-2.96795e-07
-2.12108e-06
-1.16558e-05
-5.56492e-05
-0.000229812
-0.000814965
-0.00247392
-0.00647658
-0.0167647
-0.0172297
-0.0284917
-0.0251943
-0.00891114
-0.00875663
0.0141076
0.00134452
-0.00169323
-0.00132217
0.00607821
0.000174814
-0.00503808
-0.00478511
0.00485041
-2.88235e-05
-0.00550915
-0.00524811
0.00426859
-2.02152e-05
-0.00688196
-0.00655971
0.00219894
-0.0107791
0.00816715
0.00793796
0.00828741
0.00726617
-0.00900234
0.000593245
0.0028865
-0.0107387
0.00216842
-0.00965064
0.0105446
-0.02108
-0.000582295
-0.0202975
0.0182951
0.0204727
0.0187928
0.0184015
0.019864
0.0183433
-0.0220711
-0.000772657
-0.0198286
0.0102923
0.0110757
0.0103294
0.0109588
-0.000614349
-0.0212388
-0.0210246
0.0105854
0.0187997
0.0184357
0.0166326
0.0208178
0.0216633
0.0162254
0.00429251
0.00831189
0.00367302
-0.00217345
0.0020615
0.000721231
-0.00152537
0.000603494
0.000209595
-0.000636464
0.000210472
8.75911e-05
-0.000210689
6.0902e-05
2.53799e-05
-5.64388e-05
1.61675e-05
7.7556e-06
-1.22602e-05
3.23546e-06
1.46201e-06
-2.26749e-06
5.21604e-07
2.47896e-07
-3.57883e-07
3.10104e-08
-1.64773e-09
-6.50087e-08
-1.71608e-08
-3.73025e-08
-5.30044e-08
-3.35719e-08
-2.39568e-08
-4.32406e-09
-1.16063e-08
4.98163e-09
3.33015e-08
-1.0523e-08
7.35235e-09
2.61031e-08
-2.09268e-08
8.92352e-10
2.12756e-08
-2.84176e-08
-7.19484e-09
-1.18443e-08
-7.89142e-08
-8.12411e-09
-2.72555e-07
-2.15401e-09
-6.3688e-07
4.61106e-08
1.75491e-06
-1.64801e-06
1.11483e-07
-3.84182e-06
8.97879e-07
1.09644e-05
-8.44605e-06
2.15298e-06
2.22562e-05
4.70649e-06
-4.75598e-05
9.00646e-06
0.000111063
1.61118e-05
-0.00022523
3.15882e-05
0.000466571
4.03794e-05
-0.000884071
8.99511e-05
0.00162851
8.46318e-05
-0.00283485
0.000217384
0.00467615
8.56944e-05
-0.00727785
0.000495216
0.0108083
0.000140652
-0.000629143
-0.0135458
-0.00985107
0.000693636
0.00829695
-0.000252898
-0.00571469
-0.003968
0.000426832
0.00333891
-8.78252e-05
-0.00194237
-0.00133569
0.00018275
0.0010645
-2.48847e-05
-0.000534999
-0.000366634
6.4348e-05
0.00027903
-4.21143e-06
-0.000119674
-8.26178e-05
1.83906e-05
6.08708e-05
-4.41526e-07
-2.20059e-05
-1.54662e-05
4.21617e-06
1.13163e-05
8.25028e-08
-3.28678e-06
-2.45309e-06
8.0599e-07
1.8674e-06
6.014e-08
-3.98394e-07
-3.21584e-07
1.32855e-07
3.08645e-07
3.09124e-08
3.90911e-08
4.02442e-08
-2.53553e-08
-4.9858e-08
1.10356e-07
-1.04516e-08
1.17555e-07
9.87617e-08
9.82487e-09
1.16235e-08
-6.90466e-08
7.50179e-09
2.68764e-07
-2.35861e-07
3.31423e-08
-5.4774e-07
1.86611e-07
-1.28456e-06
4.45302e-07
3.80664e-06
1.23383e-06
3.65456e-07
9.88192e-08
5.559e-08
6.95613e-07
4.62459e-08
5.35702e-09
-7.66737e-09
8.02797e-09
3.43779e-08
5.60028e-09
3.42672e-09
2.29122e-10
-1.1397e-08
-1.37044e-08
-1.33826e-08
-3.84443e-08
-1.78622e-07
-1.20102e-07
-9.92858e-07
-9.78011e-07
-8.50629e-07
2.84084e-06
2.37905e-06
-8.20324e-07
1.31317e-06
1.68865e-07
1.75107e-07
3.56298e-07
9.40472e-08
-1.47423e-06
2.5263e-06
4.36516e-07
-8.51053e-06
1.58005e-05
3.34493e-06
-2.47668e-06
-4.87346e-06
-4.6479e-06
-1.97017e-05
-6.19152e-05
-7.18902e-05
-6.28234e-05
-1.99439e-05
-4.93828e-06
-4.56305e-06
-4.53861e-06
-9.13101e-07
-8.24214e-07
-1.42441e-06
2.39883e-06
4.3861e-06
-1.06594e-05
2.7014e-05
-5.82174e-05
-4.68683e-06
-1.80313e-05
-1.0605e-06
9.54177e-06
-1.04184e-06
-2.85524e-06
-3.24279e-07
1.54432e-06
-5.81282e-07
-3.41147e-07
-2.60741e-06
-1.05749e-06
4.76187e-06
-7.63671e-06
-6.4948e-07
-2.99404e-05
-2.48912e-06
6.12255e-05
-6.07434e-05
-2.00816e-06
-0.000131289
-1.7491e-06
0.000266406
-0.000269465
-6.66563e-07
-0.000530634
4.37969e-06
0.00101731
-0.00103829
-5.51629e-06
-0.00181987
7.97936e-05
0.00315284
-0.00521401
0.000106802
0.00802025
-0.0117625
1.71034e-05
-0.000481952
-4.52833e-05
1.0663e-05
2.12042e-05
1.20131e-05
4.53641e-06
1.29658e-06
2.93519e-07
7.04512e-08
1.71769e-08
-4.31176e-08
8.19683e-08
-8.13537e-08
-3.50227e-08
-3.16288e-10
-2.80578e-10
-4.47029e-08
-5.02057e-09
8.04705e-09
-5.51027e-09
-3.57161e-09
-6.74726e-09
-4.14496e-09
-1.09883e-08
-3.46552e-08
-1.61517e-07
-1.20802e-07
2.90075e-07
1.31848e-07
-1.31686e-07
-1.40215e-07
-7.73264e-08
-1.78751e-08
1.37754e-08
1.52361e-08
-1.4627e-08
-6.05556e-09
4.44538e-08
-1.24297e-08
-5.73576e-08
-1.86789e-07
-4.87172e-07
-7.95416e-08
-4.09947e-08
3.56574e-07
-4.46462e-08
-7.70357e-07
-1.30297e-07
1.62988e-06
-1.85318e-06
-1.81976e-07
-4.61725e-06
-2.01186e-07
-1.10188e-05
-8.80037e-08
-2.5127e-05
7.67146e-07
5.85525e-05
-5.80436e-05
9.11928e-07
-0.000120181
1.31921e-05
0.000265645
-0.000515318
3.67965e-05
0.00100702
9.62419e-06
6.68455e-06
2.71987e-06
8.10345e-07
1.88119e-07
5.9957e-08
6.3472e-10
1.33824e-10
-6.90514e-08
-3.07341e-07
-1.45906e-07
-1.50922e-07
-5.90239e-08
-7.00459e-08
7.31738e-09
6.34453e-09
5.74614e-09
6.08215e-08
6.39298e-08
4.08439e-07
4.40971e-07
5.06386e-07
2.37403e-06
7.68301e-06
4.27618e-05
0.000129433
-0.000578112
-3.28147e-05
-0.00140167
0.00241718
-0.019986
-0.005935
0.000520537
-0.00161903
0.0108374
-0.0101952
-0.028391
-0.0120383
0.000338972
0.00346582
0.000744181
-0.0254435
-0.0114712
-0.00794096
0.0134925
0.0013655
-0.00142346
-0.00238095
0.00667269
0.000206186
-0.00469734
-0.00572819
0.00569992
-1.53832e-05
-0.00517312
-0.00604834
0.00526321
-4.67653e-06
-0.00667791
-0.00695018
0.00103033
-0.000364662
4.15528e-05
2.47199e-05
0.00819173
-0.0074504
0.000218972
0.00491289
-7.06245e-05
-3.00182e-05
-0.00615699
0.000378919
-0.00375221
0.00578764
0.000376018
-0.00862222
-0.0153556
0.00861302
-0.00105618
0.00175978
0.00528258
-0.000479834
0.01444
0.0103204
0.0115091
-0.0115049
0.000789251
-0.00963992
-0.00115736
-0.0106502
0.000874201
-0.0102032
-0.00115885
-0.0102669
0.000882931
-0.0110015
0.0106624
0.0104971
-0.000735024
-0.0262523
-0.0209925
0.0105367
-0.00783495
0.0120688
0.00708337
0.00831446
-0.00953203
0.00244374
0.00189639
-0.0110152
0.00376441
0.00677513
-0.00904449
0.0164935
-0.00895134
0.00142227
-0.00746919
0.00093451
-0.00794897
-0.00617073
0.000837438
-0.000503632
-4.91645e-05
-1.97815e-05
2.0519e-05
2.45433e-05
1.29144e-05
4.73358e-06
1.33169e-06
2.99111e-07
7.11946e-08
1.73903e-08
6.19791e-09
3.57596e-08
4.78455e-09
1.17312e-08
7.52076e-09
7.40081e-09
-1.0546e-08
1.79611e-08
6.33809e-08
3.20536e-09
1.29402e-08
6.92621e-08
-4.17787e-09
-2.40671e-08
-1.11269e-08
5.11116e-08
3.39997e-08
5.77369e-09
5.73311e-09
-3.82795e-09
1.14467e-08
4.02767e-08
4.43138e-08
3.23898e-08
-1.00546e-08
9.80036e-08
9.83366e-08
3.19403e-08
4.45442e-08
8.17363e-08
7.29377e-09
-2.52359e-08
7.21602e-09
4.01868e-08
1.81644e-07
1.73612e-07
1.06947e-07
9.47328e-08
1.2255e-07
1.01858e-07
1.08154e-08
2.03525e-08
2.66717e-08
7.72288e-08
1.82073e-07
-1.30824e-08
-3.08581e-06
-1.91352e-05
-7.06216e-05
9.6441e-06
-3.54884e-05
0.000150621
-0.000526727
1.4811e-05
0.00121559
-0.0015627
-0.000369227
-0.00040771
-0.0146365
0.014023
-0.000452372
-0.00032756
0.00113941
-0.0010961
-0.000468109
0.00264684
0.00419435
0.00234678
0.00984237
-0.00399037
0.00200602
0.0113373
0.011346
-0.00204074
0.00146407
-0.00012696
0.000605848
-0.000170386
3.90924e-05
-0.000869338
5.62257e-05
3.5974e-05
1.65685e-06
-2.09086e-06
-1.05626e-06
-4.02753e-07
-1.81828e-07
2.08136e-07
5.23132e-08
1.04287e-07
7.56008e-07
4.0653e-06
1.81758e-05
6.75692e-05
0.000210648
0.000581577
0.000192996
4.26325e-05
0.000122507
4.10933e-05
6.67597e-06
7.28516e-08
2.54501e-06
7.65744e-07
1.43211e-06
3.94834e-07
-3.83702e-06
3.81736e-06
-8.35844e-06
2.22377e-05
-4.71804e-05
3.8944e-06
-2.33399e-05
1.09799e-05
9.15711e-07
7.23914e-07
1.96236e-07
1.23301e-07
1.7864e-06
4.71678e-08
5.65399e-09
2.63027e-08
3.42853e-08
6.25142e-08
1.51289e-07
-4.35591e-09
1.10018e-07
7.74406e-08
-3.80663e-09
1.35711e-08
-6.16601e-11
-4.44013e-09
-5.74385e-09
-1.47017e-08
-4.26292e-09
5.25841e-09
-7.94177e-08
5.00358e-09
4.75062e-09
1.19463e-08
7.61592e-09
2.44322e-10
5.53674e-09
1.13931e-08
1.34185e-08
-3.87652e-09
-3.97551e-09
1.10201e-07
1.20809e-08
3.27991e-09
-5.33279e-09
6.25455e-08
1.78018e-08
1.4885e-07
1.47766e-07
7.91808e-08
1.84868e-08
7.45574e-08
1.48941e-07
9.72469e-07
6.38987e-07
4.5261e-07
3.0951e-06
2.1937e-06
8.57442e-07
4.42788e-07
2.97873e-06
1.24575e-06
5.87898e-05
-0.000120447
0.00011114
-0.000224868
0.000470096
-0.000892273
4.38971e-05
-0.000521192
0.000267693
1.42009e-05
7.7672e-06
1.21414e-05
9.18101e-06
3.83648e-05
3.17066e-05
7.963e-06
2.18787e-06
1.97989e-06
2.15003e-06
6.68241e-06
6.98908e-06
1.29581e-05
3.44864e-05
1.2979e-05
-6.05469e-05
8.31078e-05
3.45824e-05
-4.46859e-06
-5.95836e-06
-2.49569e-06
-7.035e-07
-2.47958e-07
-2.93987e-07
6.37446e-08
-8.09169e-07
-1.01508e-06
4.05769e-07
-1.64127e-06
-2.39822e-06
-4.31347e-06
-1.32163e-06
-7.07982e-07
-6.84799e-07
-2.92437e-07
6.64146e-09
5.33381e-08
3.23381e-07
1.44483e-06
1.89149e-06
-1.09572e-07
-2.20082e-06
6.0158e-06
1.19319e-05
8.29751e-06
1.08389e-05
3.83764e-05
0.000163451
5.8016e-05
6.4509e-05
0.00299537
-0.00034743
0.00040908
4.09823e-05
0.000125282
0.00600282
-0.0001538
-0.000795102
0.00580421
0.00237252
-0.0252756
-0.00962
-0.0124648
0.0143512
-0.0106658
-0.0114633
0.0131506
-0.0134088
-0.000632167
-0.000918731
-0.0152965
0.0141439
8.43384e-05
-0.000487679
0.000108812
0.000309631
0.000377772
0.00608375
0.00244889
-0.0106148
-0.0105986
0.0156858
0.00130469
-0.00359711
-0.00105259
0.00570009
0.000138256
-0.00678461
-0.0043621
0.00436426
-1.82798e-05
-0.00705179
-0.00480456
0.00381819
-5.41236e-05
0.00617249
0.00601155
0.00027996
0.00972564
-0.00974222
9.27117e-05
-0.00657398
-8.92131e-05
-8.99072e-05
-1.38183e-05
2.668e-06
2.99252e-06
1.04235e-06
2.269e-07
3.476e-08
3.54344e-09
-2.47632e-07
-6.26243e-07
6.45366e-07
-8.30467e-06
1.57298e-05
4.20482e-06
-4.37385e-05
8.49512e-05
0.000140417
-0.000272442
0.000610132
-0.00107731
-5.3827e-05
-0.000430386
2.24065e-06
0.000246506
-1.78535e-05
-9.604e-05
-2.27804e-06
5.24795e-05
-2.16527e-05
-1.45934e-05
-8.41432e-05
-2.0152e-05
0.000140222
-0.000192974
-9.71172e-07
-0.000625979
-1.68048e-05
0.00115146
-0.00104147
6.58977e-07
-0.00188982
4.45605e-06
-0.00321971
-9.03517e-06
-0.00525837
-1.68736e-05
0.00807523
-0.00839872
-2.68241e-05
0.0119911
-2.92288e-05
-0.011787
0.0117318
-3.64347e-05
-0.00817294
0.00827821
-0.01187
7.49144e-06
2.30531e-05
8.67283e-05
2.97952e-05
-2.69721e-07
-4.48737e-06
-2.3516e-06
-7.66871e-07
-2.35212e-06
-9.20443e-06
-1.83833e-05
-1.98495e-05
-5.8446e-05
-6.89395e-05
-0.000199393
0.000377675
9.69409e-05
-0.000773951
0.00137035
0.00218895
-0.00355948
0.00638426
-0.00952041
4.87693e-05
-0.0054774
0.000544851
0.00315292
-0.00010887
-0.00164669
6.4269e-05
0.000971144
-0.000302794
-0.00019044
-0.00127879
-0.000133891
0.00201036
-0.00240724
7.24409e-05
-0.00618646
1.04464e-05
0.00959696
-0.00819723
1.1917e-05
0.0119418
8.02202e-05
-0.0137081
0.0081616
7.73737e-05
-0.0064123
0.00524151
-0.00989793
-2.59991e-05
-0.00274614
-0.00127026
-0.00202389
-0.0032512
0.00794125
-0.0155118
0.00320338
-0.00537194
-0.0019053
-0.000608081
-0.000170182
-4.05479e-05
-8.12228e-06
-1.32861e-06
-1.10777e-07
2.75037e-07
6.15235e-08
-2.49114e-08
1.94084e-08
-2.36822e-08
1.56927e-07
-2.00264e-07
7.13464e-08
-1.31086e-08
-7.06629e-08
-1.6544e-08
2.11897e-07
-2.88954e-07
-4.36201e-08
-7.05526e-07
-4.47906e-08
-1.77909e-06
-1.94729e-08
-4.28427e-06
2.08929e-07
1.08817e-05
-1.05615e-05
3.75786e-07
-2.33752e-05
3.74832e-06
5.86239e-05
1.29105e-06
6.56036e-07
2.66152e-05
2.08416e-07
4.60441e-06
-2.23573e-08
-1.96214e-07
-5.1684e-08
-3.09206e-08
-2.88448e-08
5.71896e-08
-1.85614e-08
-2.14187e-08
1.35353e-08
3.9016e-08
-3.32397e-07
-2.00364e-07
-1.20438e-06
-1.83079e-07
-5.14806e-06
-6.31952e-07
1.07946e-05
-1.13699e-05
-6.92859e-07
-2.65848e-05
-7.11761e-07
-5.91664e-05
-2.75122e-07
-0.000125933
2.23255e-06
0.000267042
-0.000269008
7.22899e-07
0.000550147
1.86317e-06
1.57098e-06
0.000131822
-3.28057e-07
-1.77232e-06
-6.827e-07
-5.24011e-07
3.89858e-06
-1.42576e-07
5.59728e-07
-1.86592e-08
-2.36379e-07
7.33387e-07
-2.60762e-07
8.95194e-09
-1.47544e-06
2.55446e-06
-1.61079e-06
-2.72935e-06
-1.63095e-05
-5.04051e-06
-4.18065e-05
-1.59073e-06
-0.000149223
-7.63517e-06
0.000291596
-0.00027507
-3.44289e-06
-0.000546806
-1.7671e-06
-0.00102561
-1.831e-06
-0.00185107
2.54709e-06
0.00319109
-0.0032914
-2.69876e-05
0.00538121
-3.03593e-06
5.2653e-06
6.4888e-06
8.05288e-06
1.31366e-05
4.97518e-06
1.42079e-06
3.20654e-07
3.3537e-07
2.92224e-07
1.16771e-06
2.72212e-06
4.86557e-06
2.00438e-05
6.69082e-05
1.48022e-05
9.0618e-06
3.74615e-06
4.06621e-06
1.31649e-06
2.66918e-06
7.3099e-07
-4.01989e-07
-2.76703e-06
8.39667e-07
-2.69351e-06
9.59261e-06
4.56521e-06
-1.70497e-05
-1.75259e-05
9.77565e-06
8.92606e-06
4.56489e-06
-1.63893e-05
-1.81012e-05
1.02854e-05
-2.7538e-06
8.38993e-07
-2.63146e-06
1.54851e-06
1.68844e-06
1.66483e-06
1.56271e-06
8.40535e-07
-2.68314e-06
-2.70148e-06
-4.04691e-07
9.04963e-06
4.56765e-06
-1.76645e-05
-1.68489e-05
-3.15258e-06
4.69384e-05
2.05555e-05
-9.61719e-05
-8.92019e-05
-9.09962e-05
-9.34747e-05
2.06312e-05
4.94121e-05
5.04597e-05
-3.11864e-06
4.62008e-05
2.06097e-05
-8.68176e-05
-9.84336e-05
5.3643e-05
-3.27702e-06
-1.50946e-05
-2.23418e-05
4.17532e-06
7.68276e-06
-4.2871e-07
-2.39782e-06
-3.3559e-06
7.93709e-07
1.32541e-06
1.7581e-06
-3.38889e-07
1.23609e-07
-3.7187e-07
-8.83942e-08
-3.73021e-07
1.22684e-07
-3.64379e-07
-8.86019e-08
-3.79727e-07
1.2416e-07
-3.30367e-07
1.73201e-06
1.32947e-06
-9.17749e-08
-1.64375e-07
2.95943e-07
-1.0946e-07
-3.54856e-08
-4.59043e-08
-5.92453e-08
-5.59494e-08
-5.6552e-08
-4.00995e-08
-1.16395e-07
-1.40914e-07
-5.85414e-08
-4.63323e-08
-3.55512e-08
-2.24358e-08
1.21848e-08
3.74669e-09
8.19623e-08
-5.36331e-08
2.83852e-07
3.03536e-07
3.01288e-07
2.84652e-07
3.066e-07
2.3517e-07
-4.24772e-08
6.91761e-08
1.22701e-08
-2.23986e-08
3.65636e-09
4.0031e-08
1.7299e-07
9.67927e-07
9.9988e-07
4.98133e-06
2.04306e-05
7.01535e-06
-1.84533e-05
0.000223833
7.53171e-05
-0.000402759
-0.000413653
-0.000382684
-0.000440906
7.50278e-05
0.000206207
0.000239606
-1.9134e-05
-8.06592e-05
-0.000121677
1.82959e-05
4.06486e-05
6.15276e-05
-2.50992e-07
3.52827e-06
-1.26061e-05
7.39609e-06
1.69027e-05
-5.80674e-05
2.7722e-05
6.87233e-05
-0.000216242
9.27391e-05
0.000264053
-0.00062165
0.000358719
0.00115003
-0.000398692
0.00126449
-0.000400225
0.000425806
-0.00014799
0.000129849
-4.03601e-05
3.30941e-05
-8.83353e-06
6.93472e-06
1.57331e-06
-2.2763e-06
1.14215e-05
1.0086e-07
5.66991e-07
-3.61556e-07
2.55142e-07
1.08103e-06
-1.66404e-06
-3.46225e-07
3.80455e-08
6.33587e-08
-4.08196e-07
1.31035e-07
-3.15559e-07
-9.14914e-08
-1.65044e-07
3.10174e-07
-6.97332e-08
-3.35213e-08
-5.26554e-08
-3.77367e-08
-1.69545e-08
-6.64581e-08
-1.36955e-09
3.75849e-08
-1.6811e-07
3.22288e-08
3.11657e-07
2.35855e-07
3.09217e-07
-4.24512e-08
-1.32033e-07
-1.09249e-07
3.00313e-07
2.09396e-06
2.2541e-06
1.25005e-05
5.82715e-05
0.000226225
6.45853e-05
-0.000357965
-0.000546416
0.000282508
0.000185414
-3.95348e-05
-7.97684e-06
-1.26046e-06
-1.20343e-06
1.10546e-05
5.0349e-05
0.000192635
-0.000154682
-8.52384e-05
0.000897867
0.000218125
-0.00138316
-0.00161662
-0.00129565
-0.00202196
0.000180677
0.000713887
0.00108833
-1.68653e-05
4.63958e-05
1.3399e-05
7.61378e-06
1.97218e-05
4.0671e-05
-0.00187032
0.00166686
-0.00290041
0.000167052
0.000203152
9.71907e-05
8.65946e-05
1.53075e-05
-1.01858e-08
0.00102281
1.87757e-05
-9.99645e-06
0.0032299
0.000113448
9.24279e-06
0.00017829
0.000372383
-5.87837e-05
2.08384e-06
1.38998e-05
9.85546e-06
8.97347e-06
9.91101e-06
2.28836e-05
4.29611e-06
-8.14115e-06
-9.57719e-06
-5.63764e-06
-5.55219e-06
-2.4036e-06
-1.02628e-06
-8.54076e-07
-2.24669e-06
-5.6041e-06
2.25477e-05
5.24567e-05
1.13113e-05
8.02975e-06
7.91372e-06
8.42331e-06
1.26685e-06
1.31379e-06
1.85822e-07
3.16295e-07
1.65428e-07
2.01621e-06
3.93734e-05
3.93932e-05
0.00015378
0.000155375
0.000171963
0.000468651
0.000462526
0.00058724
0.000197484
-0.00250411
0.00399802
0.000916098
-0.00642082
0.00129426
0.0010443
-0.000274632
-0.000736232
-0.0190791
-0.0214596
-0.0372641
0.00963225
0.00269237
0.0156903
-0.00581644
0.0104308
-0.00104402
-0.0113026
0.0105274
-0.000179894
0.00614627
-0.000246944
0.00979655
-0.0107054
-0.000828829
-0.000253269
-0.000224736
0.000175553
-0.000892449
0.00623725
-0.000189926
0.000480751
0.00014235
3.12889e-05
4.33991e-05
-2.23124e-06
-2.76556e-06
-0.00014159
-0.000134328
-0.000166683
-0.000165956
-0.000116927
-6.11989e-05
-6.109e-05
-2.81603e-05
0.00036824
-0.00074499
1.35749e-05
-0.00217952
-1.88849e-05
0.00372248
-0.00324958
1.94382e-05
-0.00532964
1.69533e-05
0.00527163
-4.77272e-07
1.42609e-06
-2.03526e-06
-5.79284e-06
2.26617e-05
0.000334475
4.01146e-05
5.96732e-06
-2.92923e-06
-2.53021e-06
-2.03121e-06
5.31951e-08
-5.56081e-09
-4.10921e-09
4.28612e-06
-2.10748e-07
1.03807e-05
-5.14856e-08
1.61706e-06
6.3649e-07
-1.13606e-08
2.36701e-07
6.93803e-08
1.05176e-09
-2.39126e-09
-4.38882e-09
-6.95705e-07
-1.69627e-06
2.37016e-05
4.54111e-07
-7.49294e-06
2.81056e-05
-8.0335e-06
3.7118e-06
-3.20709e-05
8.43156e-05
-3.11733e-05
-5.93999e-05
-0.000360855
-6.20284e-05
0.000585509
-0.000113365
-0.000102307
8.09881e-05
2.02136e-05
-3.84362e-06
0.000122384
-1.54407e-06
0.000126416
-2.2439e-06
-2.0958e-06
0.000527705
-7.46115e-07
0.00103026
4.67345e-06
3.00368e-05
0.00187236
-0.000348686
0.00131691
-0.000328457
-0.000523687
-0.0038513
-0.000130767
0.00378647
-0.000998344
0.000224458
0.000153358
-0.00135036
-0.00450336
-0.000300672
-0.000680873
-0.000222585
0.000194019
0.000146096
0.00536755
2.96294e-05
4.54649e-05
3.80301e-05
-3.63436e-05
-0.000235749
1.29612e-05
3.10521e-05
9.13934e-06
0.00326284
0.00186164
-3.72605e-06
-1.05803e-06
-1.55984e-05
-5.95759e-05
-0.000106176
-0.000507182
-0.000183406
-0.000130085
-3.85465e-05
-5.0387e-06
0.00190477
4.32455e-06
7.04857e-06
3.55337e-06
1.80961e-05
4.01071e-06
7.38894e-07
1.92013e-07
9.1589e-07
6.7282e-05
0.000206539
0.000533861
-2.2668e-06
0.000318692
0.000138168
-0.000440445
0.00197894
0.00501319
-0.00330775
0.0192906
0.00367149
0.00247068
0.00178779
0.00122401
0.000565831
0.000189353
4.98682e-05
1.09476e-05
2.06826e-06
2.10544e-06
3.05839e-07
-1.67164e-07
-1.68001e-07
-1.40886e-07
-5.37633e-08
-1.31333e-07
-6.9209e-08
3.04299e-07
2.22089e-06
-1.26015e-06
-4.36019e-07
7.74595e-06
1.00962e-05
4.82945e-06
7.22531e-07
3.27451e-07
7.35073e-08
2.74135e-07
7.08506e-07
6.33922e-07
1.05976e-07
5.03616e-08
5.64175e-07
2.75076e-07
3.06316e-06
2.61879e-06
2.62449e-06
1.26872e-06
1.05102e-06
3.14847e-06
3.83256e-06
6.80219e-06
1.9837e-05
6.59865e-05
6.78643e-05
0.000180126
-1.28834e-05
-0.000290073
-0.00150406
0.000220977
-0.00146112
0.00247395
0.000525944
-0.00429674
-0.00445017
0.00254991
0.00238217
0.000504444
-0.00405418
-0.00481227
0.00275423
-0.000294966
0.00227727
0.00345809
-4.49358e-05
8.78519e-05
-0.000480922
0.000715886
0.00179359
0.00335692
0.00397935
0.00312694
0.0109581
0.025598
0.00491905
0.0136067
0.0201828
-0.00247821
-0.00118995
0.00134191
0.000589335
-0.000431074
-0.000141551
0.00077421
0.000834054
0.000813693
0.000785187
0.000218974
-0.00156955
-0.00142882
-0.000292008
0.00241809
0.000523109
-0.00463089
-0.00423924
-0.000779036
0.00595966
0.00637081
0.00562179
-0.00077581
-8.4916e-05
-0.000141472
9.66452e-06
6.10716e-06
3.98747e-05
1.69291e-06
2.86465e-06
-2.32454e-05
-1.28313e-05
-0.000192181
0.00189487
-0.000206955
-0.000107311
-0.000231983
-0.000304798
-0.000199761
-0.000322225
-0.000129202
0.00472377
-0.000177533
5.63878e-05
1.32909e-05
5.84219e-06
9.41938e-05
9.07884e-05
-0.00255267
0.0117278
-0.00723187
-0.0233998
-0.0250533
0.0026328
-0.0124006
0.00554304
0.00190612
-0.00768867
-0.0088917
-0.000694866
-0.00103006
0.00728591
0.00682685
-0.000689271
-0.00663714