/*--------------------------------*- C++ -*----------------------------------*\
| =========                 |                                                 |
| \\      /  F ield         | OpenFOAM: The Open Source CFD Toolbox           |
|  \\    /   O peration     | Version:  2306                                  |
|   \\  /    A nd           | Website:  www.openfoam.com                      |
|    \\/     M anipulation  |                                                 |
\*---------------------------------------------------------------------------*/
FoamFile
{
    version     2.0;
    format      ascii;
    arch        "LSB;label=32;scalar=64";
    class       volScalarField;
    location    "0.4";
    object      gradTz;
}
// * * * * * * * * * * * * * * * * * * * * * * * * * * * * * * * * * * * * * //

dimensions      [0 -1 0 1 0 0 0];

internalField   nonuniform List<scalar> 
5322
(
-0.0516332
-0.0390728
-0.0221712
-0.023677
-0.00988813
-0.00337119
-0.000945792
-0.000221134
-4.3912e-05
-7.69579e-06
-1.35022e-06
-4.45862e-07
-1.53451e-07
-3.12328e-07
-4.07865e-07
-6.13697e-07
-6.26172e-07
-6.89886e-07
-1.5508e-06
-3.92872e-06
-1.0914e-05
-2.59411e-05
-6.67142e-05
-0.000146272
-0.000342793
-0.000681078
-0.00145226
-0.00265094
-0.00509321
-0.00837864
-0.0144604
-0.0217102
-0.0332397
-0.0439702
-0.0563514
-0.0555846
-0.0696241
-0.0654708
-0.0672526
-0.052387
-0.0620222
-0.064018
-0.0512272
-0.0639291
-0.0632929
-0.0522281
-0.0649406
-0.0616131
-0.0519261
-0.0646801
-0.0763387
-0.0472216
-0.0688733
-0.0551647
-0.0446916
-0.0517379
-0.0690425
-0.0504339
-0.0440112
-0.0512387
-0.0695251
-0.0510529
-0.0439224
-0.0500212
-0.0696231
-0.053073
-0.0439227
-0.0477796
-0.0689212
-0.0572951
-0.0370016
-0.049219
-0.046763
-0.0460068
-0.0463069
-0.0460851
-0.0460818
-0.0460344
-0.0471401
-0.0457268
-0.0464882
-0.0413273
-0.042967
-0.0500532
-0.0288497
-0.0424633
-0.0720022
-0.0521999
-0.0504308
-0.0409849
-0.0486383
-0.0218784
-0.0229004
-0.0228679
-0.0338771
-0.0402669
-0.0342782
-0.0406573
-0.0729524
-0.0504048
-0.0513824
-0.0413686
-0.0410394
-0.0336391
-0.0369565
-0.0335263
-0.0347656
-0.0240301
-0.0100181
-0.00342947
-0.000971441
-0.000230651
-4.6564e-05
-8.21285e-06
-1.54474e-06
-5.43917e-07
-4.91745e-07
-4.23949e-07
-1.0667e-06
-3.85033e-07
-2.64303e-07
-2.12325e-07
-2.0359e-07
-2.12751e-07
-1.81998e-07
-2.12835e-07
-2.02245e-07
-2.17976e-07
-2.42106e-07
-2.29329e-07
-2.36744e-07
-2.58061e-07
-2.34312e-07
-2.29026e-07
-2.3956e-07
-2.11034e-07
-2.02611e-07
-2.12006e-07
-1.81467e-07
-2.1303e-07
-2.04018e-07
-2.66963e-07
-3.85906e-07
-4.22178e-07
-4.94135e-07
-1.07115e-06
-4.2336e-07
-4.23271e-07
-4.98609e-07
-5.27151e-07
-1.19721e-06
-4.45075e-07
-4.44339e-07
-5.24875e-07
-4.99582e-07
-1.19536e-06
-4.23303e-07
-4.17921e-07
-2.64474e-07
-4.07398e-07
-6.1066e-07
-6.2888e-07
-1.92719e-06
-4.65375e-06
-1.6153e-06
-1.56895e-06
-6.94035e-07
-5.914e-07
-2.21258e-07
-2.79467e-07
-3.11919e-07
-3.14781e-07
-6.79034e-07
-4.67203e-07
-6.73738e-07
-2.0517e-06
-2.01742e-06
-4.81861e-06
-2.43795e-06
-4.91618e-06
-1.26143e-05
-1.25552e-05
-2.9618e-05
-1.54199e-05
-3.00544e-05
-7.20045e-05
-7.18494e-05
-0.000159316
-8.66021e-05
-0.000160773
-0.000356088
-0.000355703
-0.000728931
-0.000415395
-0.000733306
-0.00148917
-0.00148888
-0.00279076
-0.0016734
-0.00280237
-0.0051863
-0.00518963
-0.00881466
-0.00558009
-0.00884053
-0.0147822
-0.0148079
-0.0226106
-0.0151115
-0.0226722
-0.0336942
-0.0336987
-0.0406405
-0.072877
-0.0503509
-0.0502442
-0.0414431
-0.0540538
-0.0539959
-0.0229073
-0.0229473
-0.0339318
-0.0406087
-0.034228
-0.0416486
-0.0732042
-0.050805
-0.0501018
-0.0416101
-0.0404604
-0.0337152
-0.0342319
-0.0336799
-0.0239874
-0.010044
-0.00344727
-0.000977534
-0.000232111
-4.68284e-05
-8.25069e-06
-1.5501e-06
-5.45757e-07
-5.00752e-07
-5.28091e-07
-5.27813e-07
-5.00229e-07
-1.20329e-06
-4.48988e-07
-4.27539e-07
-3.09682e-07
-2.43328e-07
-6.20185e-07
-4.49176e-07
-1.20408e-06
-4.27622e-07
-5.88006e-07
-2.20537e-07
-2.46378e-07
-2.34561e-07
-3.09765e-07
-2.4281e-07
-2.64383e-07
-1.65874e-07
-3.3529e-07
-6.86199e-07
-6.85836e-07
-6.90592e-07
-2.0528e-06
-4.87686e-06
-1.27211e-05
-2.985e-05
-7.2512e-05
-0.000159997
-0.00035783
-0.0007303
-0.00149434
-0.00279165
-0.00520234
-0.00880878
-0.0148388
-0.0225759
-0.0339738
-0.0402452
-0.0730141
-0.0408675
-0.0342776
-0.0336177
-0.022743
-0.0151239
-0.0147844
-0.00886143
-0.00558667
-0.00519439
-0.00280921
-0.00167671
-0.00149369
-0.00073607
-0.000416901
-0.000357977
-0.0001618
-8.71413e-05
-7.26421e-05
-3.03494e-05
-1.55685e-05
-1.27828e-05
-4.98339e-06
-2.47059e-06
-2.08755e-06
-1.02905e-06
-2.08444e-06
-4.98698e-06
-2.47095e-06
-2.05235e-06
-6.892e-07
-4.77365e-07
-3.21689e-07
-1.55161e-07
-3.16889e-07
-6.19609e-07
-1.96021e-06
-4.81117e-06
-1.23342e-05
-2.98876e-05
-7.16758e-05
-0.000161085
-0.00035863
-0.000737202
-0.00151128
-0.0028207
-0.00529967
-0.00887391
-0.0152038
-0.0225052
-0.0344745
-0.0405964
-0.0727113
-0.0437282
-0.0336931
-0.0378188
-0.0251237
-0.0148871
-0.0165063
-0.00960724
-0.00547509
-0.00571131
-0.0029871
-0.00163012
-0.00161856
-0.000768251
-0.000401279
-0.000381584
-0.000164869
-8.26517e-05
-7.53502e-05
-2.98234e-05
-1.4448e-05
-1.27018e-05
-4.65566e-06
-2.20872e-06
-1.93039e-06
-6.2848e-07
-4.12017e-07
-2.81185e-07
-1.96313e-07
-2.35384e-07
-5.78784e-07
-2.18372e-07
-2.5303e-07
-4.7208e-07
-5.3974e-07
-1.73938e-06
-4.48046e-06
-4.43448e-06
-4.75958e-06
-2.26214e-06
-1.86104e-06
-1.93309e-06
-6.18711e-07
-4.17697e-07
-6.14242e-07
-8.62722e-07
-9.97742e-07
-4.78754e-07
-2.12865e-07
-2.33715e-07
-5.82252e-07
-1.18708e-06
-9.67954e-07
-6.74168e-07
-6.78956e-07
-2.04819e-06
-4.92358e-06
-6.17015e-06
-1.26012e-05
-3.01076e-05
-7.19599e-05
-0.00016113
-0.000189837
-0.000356304
-0.00073488
-0.00149248
-0.00280635
-0.00309767
-0.00520378
-0.00883966
-0.0148269
-0.0226372
-0.0228949
-0.0228543
-0.00953992
-0.00958289
-0.00327434
-0.00312004
-0.00526231
-0.00889476
-0.00563189
-0.00902718
-0.0149983
-0.0150553
-0.0225857
-0.0152443
-0.0233204
-0.0337722
-0.0391956
-0.0408307
-0.0766265
-0.0529894
-0.0495395
-0.0437242
-0.0541223
-0.0222342
-0.0208386
-0.025632
-0.0131952
-0.0160858
-0.00932036
-0.00461661
-0.0054317
-0.00280076
-0.00133857
-0.00151872
-0.000709191
-0.000323947
-0.000351305
-0.000148427
-6.50086e-05
-6.76282e-05
-2.59854e-05
-1.09671e-05
-1.08253e-05
-3.85627e-06
-1.58967e-06
-1.52714e-06
-6.79453e-07
-6.07292e-07
-1.41107e-06
-1.89249e-06
-3.33312e-06
-9.96407e-06
-1.14294e-05
-2.88464e-05
-6.94162e-05
-0.000160115
-0.000155399
-0.000160287
-8.47485e-05
-7.07475e-05
-7.06445e-05
-2.96364e-05
-1.47928e-05
-2.81483e-05
-3.44932e-05
-3.98443e-05
-6.68473e-06
-4.68788e-06
-7.21021e-06
-4.98075e-06
-4.43326e-06
-5.79024e-06
-7.04095e-06
-1.19366e-06
-3.71821e-07
-1.28985e-07
-3.08076e-07
-1.95605e-07
-4.9953e-07
-9.06698e-07
-2.68913e-06
-1.72366e-05
-3.68353e-05
-4.19494e-05
-0.00021968
-0.000201628
-9.89003e-05
-6.21224e-05
-7.90618e-05
-0.000134854
-0.000320937
-0.000358376
-0.000747702
-0.00154132
-0.00290717
-0.00281842
-0.00282379
-0.00167837
-0.00150658
-0.00149857
-0.000736217
-0.000412499
-0.000725018
-0.000838556
-0.000879054
-0.000203792
-0.000159259
-0.000220766
-0.00018214
-0.000166406
-4.27791e-05
-3.24157e-05
-2.92865e-05
-2.32306e-05
-1.32531e-05
-2.95696e-05
-1.84578e-05
-7.8047e-06
-1.37171e-06
-4.52558e-07
-5.52365e-07
-3.89768e-07
-1.21008e-06
-6.85884e-07
-3.00138e-06
-3.17418e-06
-4.87471e-06
-6.10322e-06
-1.27378e-05
-1.27833e-05
-3.03696e-05
-1.55938e-05
-2.99267e-05
-3.64403e-05
-7.27236e-05
-7.27611e-05
-0.000161884
-8.74042e-05
-0.000160904
-0.000190529
-0.000359263
-0.000359129
-0.000736119
-0.000418571
-0.00073622
-0.000844431
-0.00150085
-0.00150071
-0.00280654
-0.00168415
-0.00281989
-0.00312006
-0.00521917
-0.00522794
-0.00883145
-0.00560915
-0.0089112
-0.00946093
-0.0148248
-0.0149038
-0.0225809
-0.015153
-0.0228321
-0.0229633
-0.0336356
-0.0339154
-0.0406278
-0.0342241
-0.0407035
-0.0419242
-0.050713
-0.0490999
-0.0414513
-0.0529561
-0.0306332
-0.0370097
-0.0241007
-0.0228552
-0.0242807
-0.0230528
-0.0236696
-0.026597
-0.0269759
-0.0184472
-0.0110465
-0.0110893
-0.00362349
-0.0035118
-0.00195359
-0.000921253
-0.000974957
-0.000970565
-0.000222097
-4.34932e-05
-7.58058e-06
-1.32926e-06
-4.42539e-07
-1.50171e-07
-3.05691e-07
-2.59431e-07
-5.34296e-07
-5.9313e-07
-3.16861e-07
-3.306e-07
-4.67702e-07
-3.04547e-07
-3.94437e-07
-2.84491e-07
-2.38819e-07
-3.49637e-07
-2.64194e-07
-3.95831e-07
-2.54578e-07
-3.04259e-07
-5.82022e-07
-5.29816e-07
-5.63871e-07
-5.6324e-07
-5.28177e-07
-5.27744e-07
-4.94375e-07
-1.38837e-06
-5.6278e-07
-5.27441e-07
-5.27561e-07
-1.39047e-06
-5.63371e-07
-6.20699e-07
-1.736e-06
-1.63786e-06
-1.24805e-06
-1.19268e-06
-9.81063e-07
-7.41254e-06
-4.3099e-05
-0.000216411
-0.000920577
-0.00327033
-0.00315571
-0.00268754
-0.00351861
-0.00311987
-0.00291159
-0.00257243
-0.00495455
-0.0055342
-0.00923519
-0.0164966
-0.0161317
-0.0144985
-0.00910038
-0.00861635
-0.00565094
-0.00665684
-0.00657919
-0.00355296
-0.0106823
-0.0258241
-0.0496547
-0.0503698
-0.052156
-0.0371843
-0.0317611
-0.0361174
-0.044979
-0.0426616
-0.0519701
-0.0821484
-0.0737702
-0.0652975
-0.0681956
-0.0408307
-0.0537154
-0.055951
-0.0688004
-0.0414731
-0.0549117
-0.0559647
-0.0691011
-0.0416936
-0.0542792
-0.056735
-0.0691939
-0.0431094
-0.0542417
-0.0612439
-0.0869953
-0.0757335
-0.0742499
-0.0952668
-0.094827
-0.072877
-0.0508704
-0.0688819
-0.0552138
-0.0446755
-0.0516458
-0.0617468
-0.0519638
-0.0645914
-0.0763831
-0.0472148
-0.0465151
-0.0413485
-0.0429992
-0.0500651
-0.0349924
-0.0225228
-0.0236076
-0.0151223
-0.00916723
-0.00880569
-0.00521763
-0.00298209
-0.00271178
-0.00147728
-0.000801
-0.000693034
-0.000346101
-0.000177886
-0.000147625
-6.75378e-05
-3.30209e-05
-2.6307e-05
-1.10749e-05
-5.06786e-06
-3.99466e-06
-1.57825e-06
-7.07655e-07
-5.93449e-07
-2.37354e-07
-1.97825e-07
-2.82198e-07
-6.33878e-07
-1.94768e-06
-4.68552e-06
-2.2144e-06
-1.96944e-06
-6.20624e-07
-4.13416e-07
-3.17676e-07
-1.55654e-07
-3.21429e-07
-3.35829e-07
-4.7768e-07
-6.06858e-07
-4.91934e-07
-1.44218e-06
-8.02268e-06
-4.5214e-05
-4.47674e-05
-0.00022795
-0.000992158
-0.000962664
-0.000812451
-0.000753258
-0.000650034
-0.00139022
-0.00163386
-0.000394932
-0.000480001
-0.000480407
-0.00035613
-0.000354471
-0.000189276
-0.000159834
-0.00035691
-0.000416906
-0.000733226
-0.00149467
-0.00168053
-0.00281238
-0.00520412
-0.00559962
-0.00888054
-0.0147976
-0.0151249
-0.0226884
-0.0174377
-0.017985
-0.0373851
-0.0371389
-0.0258406
-0.0106006
-0.00353136
-0.000969927
-0.000223595
-4.42205e-05
-7.8001e-06
-1.3926e-06
-4.73657e-07
-1.61666e-07
-3.28214e-07
-5.89451e-07
-4.42172e-07
-1.34123e-06
-7.66194e-06
-4.39782e-05
-0.00022373
-0.000971916
-0.00353829
-0.0106275
-0.0258653
-0.0505036
-0.0499945
-0.049639
-0.103442
-0.0736241
-0.0705349
-0.0559717
-0.0690485
-0.0417187
-0.0418284
-0.0447951
-0.0701283
-0.0424727
-0.0431204
-0.0439721
-0.0704874
-0.0426769
-0.0433243
-0.0438316
-0.0706465
-0.0443679
-0.0451674
-0.0508578
-0.0910251
-0.07649
-0.0745393
-0.0748781
-0.0742095
-0.0547157
-0.0486068
-0.051171
-0.0907249
-0.0504744
-0.0553934
-0.0694778
-0.051101
-0.043884
-0.0498747
-0.0643216
-0.0511934
-0.0635645
-0.0636155
-0.0523608
-0.0647151
-0.0505747
-0.0439995
-0.0510523
-0.0461578
-0.0459646
-0.0463516
-0.0458174
-0.0439894
-0.0482172
-0.0524589
-0.069638
-0.0623227
-0.0528493
-0.0665835
-0.058774
-0.0529258
-0.0814552
-0.0423475
-0.0502352
-0.0384728
-0.0403141
-0.0298718
-0.0202067
-0.0200853
-0.0131107
-0.00841369
-0.00772753
-0.0046462
-0.00270682
-0.00244393
-0.00132277
-0.000742294
-0.000624062
-0.000314238
-0.000159177
-0.000133209
-6.10338e-05
-2.97683e-05
-2.32733e-05
-1.00614e-05
-4.44375e-06
-3.42593e-06
-1.42765e-06
-6.19472e-07
-4.80109e-07
-1.96032e-07
-3.06141e-07
-2.58055e-07
-1.2879e-07
-2.12755e-07
-2.01845e-07
-1.81183e-07
-2.11973e-07
-2.02468e-07
-2.18533e-07
-2.43842e-07
-2.30994e-07
-2.38969e-07
-2.605e-07
-2.36732e-07
-2.30416e-07
-2.41703e-07
-1.52234e-07
-3.1937e-07
-4.71715e-07
-6.82903e-07
-1.01607e-06
-2.06193e-06
-2.44628e-06
-4.93797e-06
-4.82872e-06
-6.03883e-06
-1.21993e-05
-1.42825e-05
-2.9492e-05
-2.94943e-05
-2.92628e-05
-7.4203e-05
-6.40938e-05
-0.000161683
-0.000155753
-0.000372148
-0.000314531
-0.000747506
-0.000694004
-0.00156469
-0.00128877
-0.00287379
-0.00255675
-0.00543145
-0.00432603
-0.00909987
-0.00771782
-0.0154431
-0.0118849
-0.0235305
-0.0189343
-0.0352416
-0.0263075
-0.0309324
-0.0332948
-0.032561
-0.0223692
-0.022658
-0.0142708
-0.0147278
-0.0143228
-0.00910282
-0.00882095
-0.00522615
-0.00516239
-0.00505757
-0.00300897
-0.00279307
-0.00156312
-0.00147979
-0.0014601
-0.000813772
-0.000727515
-0.00038209
-0.000348512
-0.000348561
-0.000182085
-0.000156994
-7.78955e-05
-6.85992e-05
-6.97917e-05
-3.41799e-05
-2.85597e-05
-1.32114e-05
-1.14203e-05
-1.1975e-05
-5.55224e-06
-4.4618e-06
-1.91405e-06
-1.75087e-06
-1.85445e-06
-8.63463e-07
-5.38611e-07
-2.53718e-07
-2.19272e-07
-2.79086e-07
-1.96521e-07
-2.35366e-07
-5.84787e-07
-6.9411e-07
-1.20833e-06
-3.91794e-07
-5.5005e-07
-5.9655e-07
-3.2979e-07
-4.70824e-07
-6.79137e-07
-6.81928e-07
-9.71055e-07
-1.94437e-06
-2.19343e-06
-4.63602e-06
-4.69136e-06
-1.25957e-05
-1.09226e-05
-1.83206e-05
-2.99826e-06
-3.15071e-06
-2.02985e-06
-1.18378e-06
-5.83443e-07
-4.23878e-07
-1.19715e-06
-4.46015e-07
-3.06001e-07
-3.9447e-07
-3.02275e-07
-2.83183e-07
-3.02394e-07
-2.4914e-07
-6.13258e-07
-1.23715e-06
-1.00733e-06
-7.55766e-06
-7.38648e-06
-6.02892e-06
-1.21546e-05
-1.20661e-05
-5.5582e-06
-1.79979e-05
-2.94715e-06
-3.13157e-06
-2.02519e-06
-2.44082e-06
-4.82072e-06
-1.25685e-05
-1.54403e-05
-2.96617e-05
-7.2003e-05
-8.68086e-05
-0.000107023
-4.29907e-05
-3.6077e-05
-0.000216205
-0.000920927
-0.000842064
-0.000919585
-0.000217011
-4.34801e-05
-3.65062e-05
-4.27245e-05
-7.34996e-06
-6.02401e-06
-4.74993e-06
-1.22165e-05
-1.26353e-05
-2.96283e-05
-7.45081e-05
-0.000162654
-6.44581e-05
-6.73638e-05
-2.94156e-05
-2.62264e-05
-1.10081e-05
-1.10322e-05
-4.71715e-06
-3.9733e-06
-5.04749e-06
-4.52277e-06
-1.01727e-05
-1.33476e-05
-2.35919e-05
-2.87668e-05
-3.44691e-05
-7.02468e-05
-8.38903e-05
-0.000153497
-0.000158722
-0.00018735
-0.000352414
-0.000410995
-0.000720097
-0.000724024
-0.00082518
-0.00146048
-0.00164273
-0.00273716
-0.002738
-0.00301402
-0.00506208
-0.00526209
-0.00858498
-0.0143412
-0.0142997
-0.022044
-0.0322629
-0.0310071
-0.0349182
-0.0241039
-0.0100116
-0.00342086
-0.000968326
-0.000229924
-4.64382e-05
-8.19727e-06
-1.5432e-06
-5.43423e-07
-4.98928e-07
-5.2462e-07
-5.26702e-07
-4.46419e-07
-6.15299e-07
-1.24019e-06
-1.18787e-06
-5.82766e-07
-4.23744e-07
-3.05654e-07
-3.95296e-07
-2.34617e-07
-2.12596e-07
-2.35417e-07
-5.82121e-07
-1.1821e-06
-9.65924e-07
-1.9433e-06
-2.19482e-06
-2.96829e-06
-3.18798e-06
-1.63309e-06
-5.79619e-07
-5.28101e-07
-5.27531e-07
-1.389e-06
-4.94867e-07
-4.96721e-07
-1.19745e-06
-3.19126e-06
-7.36444e-06
-6.66002e-06
-9.96614e-07
-4.7707e-07
-1.77322e-06
-8.74357e-07
-1.87026e-06
-2.26829e-06
-4.45521e-06
-4.77216e-06
-6.05628e-06
-1.25893e-05
-1.54212e-05
-3.00748e-05
-3.64847e-05
-7.17628e-05
-8.61376e-05
-0.000159645
-0.000158362
-0.000187056
-0.000350358
-0.000391974
-0.000720094
-0.00146299
-0.00158074
-0.00273659
-0.00321465
-0.000905569
-0.000213331
-4.2589e-05
-7.34281e-06
-3.18744e-06
-1.63209e-06
-5.79766e-07
-3.48576e-06
-8.4934e-06
-3.19558e-06
-2.98139e-06
-3.20747e-06
-3.49294e-06
-8.51316e-06
-7.61081e-06
-6.27039e-06
-4.36939e-05
-3.69185e-05
-0.000217625
-0.000191198
-0.000227481
-0.000983054
-0.00357068
-0.00362331
-0.0108939
-0.0105976
-0.00968523
-0.0250666
-0.0452167
-0.0422406
-0.0638244
-0.0516185
-0.105853
-0.0722734
-0.0714014
-0.0612526
-0.0819494
-0.0775446
-0.0789651
-0.0771431
-0.105329
-0.0715189
-0.0704596
-0.0560707
-0.0687417
-0.0415525
-0.0425706
-0.0454589
-0.0697735
-0.0422765
-0.0439967
-0.0447736
-0.0701369
-0.0424946
-0.0440747
-0.0447388
-0.0702829
-0.0442768
-0.0456078
-0.0581344
-0.0347706
-0.0229053
-0.022874
-0.0226709
-0.0241367
-0.0146592
-0.0160452
-0.0124731
-0.0149415
-0.0153225
-0.00922777
-0.0143395
-0.0224504
-0.022721
-0.03225
-0.0356037
-0.0226234
-0.0216897
-0.0212323
-0.0307163
-0.0327909
-0.0457203
-0.0471893
-0.0459785
-0.0323331
-0.0222396
-0.0318965
-0.0316711
-0.0320076
-0.0221329
-0.031863
-0.03171
-0.0320737
-0.0222267
-0.0319874
-0.0467815
-0.0458459
-0.0442406
-0.0449973
-0.0546503
-0.070403
-0.054863
-0.0756397
-0.0764874
-0.0733771
-0.0554051
-0.0505141
-0.0509074
-0.090363
-0.0514249
-0.0577394
-0.0884247
-0.0777818
-0.0742428
-0.0549754
-0.0508582
-0.0588552
-0.0455933
-0.0451447
-0.0575713
-0.0338987
-0.0240408
-0.0240331
-0.0100196
-0.00343031
-0.000971828
-0.000230811
-4.66138e-05
-8.22553e-06
-1.54794e-06
-5.45268e-07
-4.96048e-07
-5.29629e-07
-4.58494e-07
-2.83921e-07
-2.39174e-07
-2.48377e-07
-2.21592e-07
-2.66924e-07
-4.21858e-07
-3.86328e-07
-4.23186e-07
-2.64158e-07
-2.02676e-07
-2.12331e-07
-1.81782e-07
-4.78803e-07
-2.04742e-07
-2.14256e-07
-2.13406e-07
-3.49979e-07
-2.32899e-07
-5.81589e-07
-4.22636e-07
-4.44252e-07
-1.19537e-06
-5.25249e-07
-5.25018e-07
-4.44359e-07
-4.21512e-07
-3.02817e-07
-2.32669e-07
-2.56939e-07
-2.32828e-07
-6.11701e-07
-1.23589e-06
-1.18573e-06
-1.0001e-06
-7.00313e-07
-1.23559e-06
-3.97886e-07
-5.60735e-07
-4.55913e-07
-1.38265e-06
-7.85162e-06
-4.47744e-05
-0.000226585
-0.0009806
-0.00356069
-0.0106752
-0.0107033
-0.0260419
-0.0262957
-0.0501948
-0.0502523
-0.0500332
-0.0502629
-0.0730666
-0.0573935
-0.0713072
-0.0735723
-0.103168
-0.0494481
-0.0502503
-0.0503261
-0.0505827
-0.0513877
-0.0521459
-0.072013
-0.0411543
-0.0424661
-0.0410037
-0.0504289
-0.0651073
-0.0430812
-0.0240268
-0.0259448
-0.0505622
-0.0502886
-0.0370821
-0.0378118
-0.0184001
-0.00668264
-0.00197763
-0.000490019
-0.000102655
-0.000102101
-1.88024e-05
-1.88245e-05
-3.18601e-06
-3.04529e-06
-7.32861e-06
-4.28765e-05
-0.000218232
-0.000940533
-0.00339076
-0.0100842
-0.0175474
-0.0173188
-0.017491
-0.00643552
-0.00192814
-0.000481624
-0.000479298
-0.000101902
-0.000102072
-1.85566e-05
-1.23368e-05
-1.27347e-05
-2.97586e-05
-7.4916e-05
-0.000163114
-8.19822e-05
-7.12796e-05
-2.9774e-05
-1.44077e-05
-1.9157e-05
-7.39293e-06
-6.10887e-06
-4.80799e-06
-1.19217e-06
-5.87595e-07
-2.35239e-07
-9.84513e-07
-3.20372e-06
-2.97635e-06
-1.07012e-06
-4.93057e-07
-4.98359e-07
-3.94836e-07
-3.01388e-07
-3.23329e-07
-4.58397e-07
-4.96696e-07
-1.3916e-06
-4.57852e-07
-3.93313e-07
-3.04846e-07
-3.48721e-07
-4.57985e-07
-2.82501e-07
-2.36135e-07
-2.50293e-07
-2.11848e-07
-2.32226e-07
-2.46554e-07
-3.94414e-07
-3.48556e-07
-4.91022e-07
-4.2229e-07
-3.83637e-07
-1.06499e-06
-4.19105e-07
-2.64361e-07
-2.96224e-06
-3.18412e-06
-1.63096e-06
-5.79036e-07
-3.48887e-06
-3.18841e-06
-7.35671e-06
-6.67834e-06
-4.75421e-06
-3.95856e-05
-2.95722e-05
-4.28925e-05
-3.63469e-05
-0.000215012
-0.000189381
-0.000159993
-0.000354836
-0.000376574
-0.000755256
-0.00158971
-0.00291642
-0.00160514
-0.00148896
-0.00073092
-0.00039634
-0.000489522
-0.000201369
-0.000157415
-0.000864267
-0.000703495
-0.000913875
-0.000837231
-0.000920811
-0.000842754
-0.00326198
-0.00310484
-0.00954295
-0.00957005
-0.00930132
-0.00834389
-0.00968301
-0.0063174
-0.0019422
-0.000494649
-0.000105775
-1.92499e-05
-1.99283e-05
-2.06398e-05
-4.76293e-05
-0.000107213
-0.000108635
-0.00023413
-0.000493654
-0.000492579
-0.000233919
-4.75512e-05
-1.98663e-05
-1.98111e-05
-2.05864e-05
-8.79258e-06
-4.84463e-05
-0.00023625
-0.00098405
-0.000980565
-0.00191582
-0.00188891
-0.00344745
-0.00618157
-0.00604418
-0.0100375
-0.0163389
-0.016768
-0.0228802
-0.0538769
-0.0423524
-0.0575593
-0.0348102
-0.0336755
-0.0525145
-0.043788
-0.0565515
-0.0698392
-0.0788829
-0.0769384
-0.104504
-0.0711904
-0.0574994
-0.0541035
-0.0766743
-0.0776609
-0.0518994
-0.0578777
-0.0707423
-0.0776248
-0.0728563
-0.0712313
-0.103903
-0.0772707
-0.0791378
-0.079026
-0.0792301
-0.0791841
-0.0769842
-0.0768328
-0.0695811
-0.0567438
-0.0691866
-0.0431139
-0.0417334
-0.0447603
-0.0703029
-0.0442323
-0.0430611
-0.0438538
-0.0706947
-0.0442924
-0.0432822
-0.0436915
-0.0707951
-0.0454608
-0.0510797
-0.090748
-0.0788523
-0.0736603
-0.0556643
-0.0504758
-0.0576112
-0.0339009
-0.0240396
-0.0100222
-0.00343443
-0.000975843
-0.000232933
-4.73935e-05
-8.47634e-06
-1.97888e-05
-1.91192e-05
-1.43241e-05
-2.95218e-05
-7.08151e-05
-8.16896e-05
-0.000159119
-0.000353417
-0.000375249
-0.000754195
-0.0015863
-0.00291438
-0.00130661
-0.0014767
-0.000701978
-0.000692451
-0.000317848
-0.000345724
-0.000156848
-0.000147275
-0.000177598
-0.000162734
-0.000315838
-0.000385925
-0.000632528
-0.000732487
-0.000819693
-0.00146826
-0.00163577
-0.00273227
-0.00274934
-0.00302475
-0.00502828
-0.00544109
-0.00858175
-0.00905513
-0.0142016
-0.0147146
-0.0219895
-0.0220783
-0.0222203
-0.0321504
-0.0317352
-0.0319871
-0.0319853
-0.0221623
-0.0220005
-0.0220363
-0.0319342
-0.0316642
-0.0337873
-0.0227453
-0.00945347
-0.0032257
-0.000908979
-0.000214055
-4.27137e-05
-3.95013e-05
-0.00020108
-0.000214512
-0.000188256
-0.000912776
-0.000834433
-0.000728542
-0.00148559
-0.00160418
-0.00279054
-0.00519021
-0.00556725
-0.00929482
-0.0160341
-0.0241467
-0.0124718
-0.0151336
-0.00799218
-0.00880657
-0.00444751
-0.00521899
-0.00260884
-0.00271035
-0.00297957
-0.002777
-0.00472702
-0.00535778
-0.00803469
-0.00889707
-0.00922836
-0.0143407
-0.0147556
-0.0224311
-0.0219993
-0.0222396
-0.0323043
-0.0317274
-0.0322586
-0.0355814
-0.0227221
-0.0226179
-0.0216674
-0.0306947
-0.0327682
-0.0343128
-0.0247504
-0.0212094
-0.0225075
-0.02361
-0.0350185
-0.0198036
-0.0239756
-0.0100516
-0.00337532
-0.000934626
-0.000216339
-4.23592e-05
-7.21158e-06
-1.2121e-06
-3.92762e-07
-1.97008e-07
-2.37131e-07
-1.98318e-07
-2.56981e-07
-4.88911e-07
-5.44633e-07
-3.09168e-07
-1.29549e-07
-2.60192e-07
-4.20637e-07
-6.18443e-07
-6.22786e-07
-9.76797e-07
-2.03699e-06
-2.44985e-06
-4.94143e-06
-6.19968e-06
-1.26375e-05
-1.5415e-05
-3.00355e-05
-2.95785e-05
-3.5962e-05
-7.05331e-05
-8.12651e-05
-0.000158216
-0.000100589
-0.000100295
-7.16416e-05
-1.86266e-05
-1.25843e-05
-7.87241e-06
-7.67349e-06
-1.3502e-06
-4.49577e-07
-5.45445e-07
-3.08179e-07
-3.80534e-07
-5.14375e-07
-9.35159e-07
-6.31858e-07
-1.44715e-06
-1.93758e-06
-4.50049e-06
-5.61311e-06
-1.20708e-05
-1.47471e-05
-2.80598e-05
-2.9549e-05
-3.60093e-05
-7.16799e-05
-8.61851e-05
-0.000159958
-0.000188358
-0.000352436
-0.000410711
-0.000722447
-0.000720225
-0.000823166
-0.0014603
-0.00181787
-0.000465793
-0.000352211
-0.00022067
-0.000218918
-4.35539e-05
-1.81374e-05
-1.21679e-05
-3.00279e-06
-1.94611e-06
-1.22414e-06
-2.77238e-06
-3.48091e-06
-5.94497e-06
-7.17608e-06
-1.74787e-05
-1.15436e-05
-3.70923e-05
-2.98574e-05
-6.17612e-05
-7.83841e-05
-0.000158108
-0.000183364
-0.000350666
-0.000405237
-0.000709626
-0.000723152
-0.000825396
-0.00146116
-0.00164422
-0.0027423
-0.00301383
-0.00502937
-0.00543906
-0.00857124
-0.00859472
-0.00907056
-0.014204
-0.00943588
-0.00612881
-0.001896
-0.00188225
-0.000975923
-0.000232902
-4.73729e-05
-8.47127e-06
-2.05996e-05
-1.98854e-05
-0.000106903
-0.000104946
-4.26912e-05
-0.000214037
-0.000909147
-0.00191921
-0.00191028
-0.000492076
-0.000491372
-0.000108376
-0.000106321
-1.97725e-05
-1.53601e-05
-1.25497e-05
-6.1432e-06
-1.25313e-05
-2.99298e-05
-3.62675e-05
-7.1304e-05
-7.13854e-05
-2.99346e-05
-2.95193e-05
-3.58757e-05
-7.13772e-05
-7.0076e-05
-2.94654e-05
-1.21318e-05
-6.01984e-06
-1.25092e-05
-4.8163e-06
-4.90786e-06
-4.90927e-06
-4.80057e-06
-5.99973e-06
-1.20686e-05
-1.24912e-05
-1.53375e-05
-2.94378e-05
-3.57652e-05
-6.976e-05
-7.12522e-05
-8.5877e-05
-0.000157801
-0.000186447
-0.000347182
-0.000350969
-0.000350775
-0.000351135
-0.000187646
-0.000159462
-0.000159496
-8.59923e-05
-0.00015819
-0.000186979
-0.000351517
-0.000348738
-0.000158467
-8.3908e-05
-7.01561e-05
-6.92305e-05
-3.4427e-05
-2.80672e-05
-1.47379e-05
-1.20422e-05
-1.15673e-05
-5.60045e-06
-4.45343e-06
-4.75167e-06
-1.9369e-06
-9.6788e-07
-2.0197e-06
-2.43556e-06
-2.04555e-06
-1.00361e-06
-2.04149e-06
-2.43202e-06
-2.01763e-06
-9.64649e-07
-1.92552e-06
-4.73718e-06
-4.41667e-06
-2.25334e-06
-2.95844e-06
-1.31855e-06
-4.39894e-07
-1.50156e-07
-3.0354e-07
-3.1632e-07
-3.27641e-07
-3.28255e-07
-1.60314e-07
-4.68394e-07
-5.9343e-07
-3.16329e-07
-3.05068e-07
-1.50524e-07
-2.39991e-07
-2.1086e-07
-2.26852e-07
-3.03213e-07
-4.66017e-07
-6.74615e-07
-6.76614e-07
-6.77201e-07
-6.72034e-07
-6.17558e-07
-6.11614e-07
-4.16112e-07
-2.6276e-07
-2.10019e-07
-2.39213e-07
-2.2666e-07
-5.80234e-07
-1.18253e-06
-7.33533e-06
-7.52776e-06
-4.32147e-05
-0.00021522
-0.000489413
-0.000410623
-0.000722881
-0.000823483
-0.00145566
-0.00145746
-0.00145896
-0.00145984
-0.000824604
-0.000720445
-0.000722622
-0.000405435
-0.000350341
-0.000352146
-0.000183224
-0.000153596
-0.000158182
-7.85718e-05
-6.18978e-05
-0.000134194
-0.000162906
-0.00031635
-0.000633311
-0.000741105
-0.00134565
-0.00248041
-0.00278018
-0.00473271
-0.00804362
-0.00858058
-0.0135807
-0.0163878
-0.0101261
-0.00610438
-0.00331861
-0.0018567
-0.000892466
-0.000467292
-0.000198843
-9.81525e-05
-3.70902e-05
-2.98497e-05
-2.36296e-05
-2.8775e-05
-1.33861e-05
-1.0197e-05
-3.49147e-06
-4.53015e-06
-5.93914e-06
-1.74561e-05
-2.76558e-06
-1.45131e-06
-1.94388e-06
-1.77643e-06
-8.72089e-07
-1.86463e-06
-2.26532e-06
-2.98298e-06
-1.21291e-06
-3.77701e-07
-1.29438e-07
-2.59227e-07
-3.09356e-07
-1.98364e-07
-4.88259e-07
-6.31119e-07
-9.33048e-07
-5.1217e-07
-2.56878e-07
-5.44334e-07
-6.16738e-07
-6.1924e-07
-4.18148e-07
-5.39541e-07
-4.41702e-07
-1.32585e-06
-7.5706e-06
-7.12726e-06
-4.1891e-05
-0.000215694
-0.000938505
-0.00081939
-0.00146772
-0.00149733
-0.000732706
-0.000710164
-0.000466903
-9.91328e-05
-1.8072e-05
-1.86207e-05
-4.31337e-05
-0.000217352
-0.000932349
-0.00184346
-0.00163707
-0.00274859
-0.00302395
-0.00502367
-0.00506464
-0.00508285
-0.00527619
-0.00303672
-0.00273457
-0.00281975
-0.00158382
-0.00130815
-0.00192865
-0.00191285
-0.00636602
-0.00642786
-0.00519578
-0.00557426
-0.00929513
-0.00799797
-0.00909817
-0.00309014
-0.00261244
-0.00324801
-0.00308875
-0.00279566
-0.00952855
-0.00937153
-0.00883007
-0.00537784
-0.00624402
-0.00322666
-0.00945623
-0.0166331
-0.0163415
-0.00617032
-0.00603861
-0.00188516
-0.00189948
-0.00343504
-0.00344841
-0.00344715
-0.000980206
-0.000493388
-0.000491507
-0.000106658
-0.00010833
-0.000106356
-0.000104802
-0.000489094
-0.000395665
-0.000481175
-0.000101357
-0.000100975
-0.000101288
-0.000100114
-1.85954e-05
-1.85479e-05
-3.11884e-06
-2.99351e-06
-5.48758e-07
-1.83437e-05
-0.000479469
-0.000477005
-0.00190911
-0.00192365
-0.001948
-0.0064194
-0.00636378
-0.00643037
-0.00192638
-0.00881929
-0.014836
-0.0146656
-0.0226427
-0.0175697
-0.0173289
-0.0370309
-0.0370241
-0.0430728
-0.0652144
-0.0948775
-0.0952307
-0.0508662
-0.06124
-0.0870008
-0.075732
-0.0547273
-0.0741753
-0.0750665
-0.0554883
-0.0508723
-0.091204
-0.0770586
-0.0744066
-0.0999436
-0.0844329
-0.0844889
-0.0791532
-0.0699577
-0.0439917
-0.0567724
-0.0337746
-0.0239788
-0.0100374
-0.00618498
-0.00191632
-0.00190945
-0.0032602
-0.00324633
-0.00308343
-0.00952662
-0.00936451
-0.0090947
-0.00308822
-0.000863425
-0.00149564
-0.00281867
-0.00303697
-0.00508361
-0.00544716
-0.00866834
-0.00860814
-0.00910032
-0.0141731
-0.0147018
-0.0141865
-0.00942872
-0.00322024
-0.00189892
-0.00191816
-0.00624201
-0.00537848
-0.00616957
-0.00603807
-0.00188488
-0.000491246
-0.000489375
-0.000215437
-4.33071e-05
-7.55162e-06
-1.263e-05
-1.87104e-05
-2.95862e-05
-3.17632e-06
-4.83723e-06
-2.06297e-06
-6.02815e-07
-6.79875e-07
-3.33164e-07
-1.6319e-07
-4.80609e-07
-1.4099e-06
-0.000100529
-9.92815e-05
-7.01827e-05
-4.2087e-05
-9.82014e-05
-0.000133923
-0.000198759
-0.000216399
-0.00046734
-0.000351652
-0.000891821
-0.000740707
-0.00134372
-0.00158124
-0.00247651
-0.00185602
-0.00331526
-0.00340226
-0.000940608
-0.000466928
-0.000348981
-0.000466638
-0.000351852
-0.000937346
-0.00184154
-0.00146
-0.0018219
-0.00273854
-0.00334792
-0.00599689
-0.0050632
-0.0061009
-0.00527068
-0.0101155
-0.00857213
-0.0135679
-0.014927
-0.0153102
-0.0163764
-0.0101177
-0.0242846
-0.0437938
-0.0451718
-0.0505454
-0.0570426
-0.0511187
-0.0331416
-0.0158761
-0.0143584
-0.00982906
-0.0234742
-0.042606
-0.0572099
-0.0517591
-0.0324608
-0.0154352
-0.00587496
-0.00859314
-0.00502494
-0.00334
-0.000939258
-0.00978204
-0.0233953
-0.0425643
-0.0572998
-0.0518727
-0.0325023
-0.0154188
-0.00586116
-0.00502965
-0.00599677
-0.00185177
-0.00047196
-0.000213597
-4.20863e-05
-7.18103e-06
-4.97041e-06
-3.29879e-05
-0.000912232
-0.00323219
-0.00940808
-0.0158413
-0.0331855
-0.0430269
-0.0587895
-0.0519081
-0.0451524
-0.0502839
-0.050333
-0.0426354
-0.023516
-0.0232563
-0.00972626
-0.00331409
-0.00092794
-0.00021642
-4.29278e-05
-7.52931e-06
-7.73036e-06
-1.37623e-06
-3.14876e-06
-3.14174e-06
-5.92039e-07
-4.65373e-07
-5.34844e-07
-3.727e-07
-1.19586e-06
-7.03925e-06
-1.79524e-05
-1.46655e-05
-2.78708e-05
-2.93761e-05
-4.25631e-05
-1.97422e-05
-2.05561e-05
-3.48283e-06
-1.97646e-05
-1.90608e-05
-6.63124e-06
-9.92511e-07
-4.75856e-07
-1.9241e-06
-1.60206e-06
-3.9317e-05
-0.000104405
-0.000106154
-0.000108137
-0.000106195
-0.000488538
-0.000490363
-0.000488694
-0.0002134
-0.000906623
-0.000909952
-0.00322068
-0.00613591
-0.00544223
-0.0050241
-0.00301026
-0.00501553
-0.00858542
-0.00904645
-0.0141563
-0.0141896
-0.0085739
-0.00860445
-0.00909998
-0.0141613
-0.0143661
-0.00860675
-0.0054519
-0.0086754
-0.00889922
-0.00536474
-0.0044497
-0.00600712
-0.00339726
-0.0101082
-0.0242675
-0.0247719
-0.0343239
-0.0451723
-0.0505672
-0.0437692
-0.0570924
-0.0511329
-0.0331936
-0.0159083
-0.00979736
-0.00333439
-0.00588681
-0.00182431
-0.00274141
-0.00273989
-0.0027409
-0.00273396
-0.00301579
-0.00503156
-0.00502256
-0.00543846
-0.00857903
-0.00907981
-0.0142463
-0.0141844
-0.014708
-0.0220031
-0.0221028
-0.0220464
-0.0147113
-0.016579
-0.0162906
-0.0100237
-0.0100275
-0.0158878
-0.0239799
-0.0228644
-0.0229198
-0.0540576
-0.0415736
-0.0418009
-0.0565903
-0.0697947
-0.0765729
-0.0770217
-0.0792819
-0.0792686
-0.0689922
-0.0430653
-0.0555085
-0.032335
-0.0526766
-0.0528062
-0.0526769
-0.0532038
-0.0543768
-0.0541997