/*--------------------------------*- C++ -*----------------------------------*\
| =========                 |                                                 |
| \\      /  F ield         | OpenFOAM: The Open Source CFD Toolbox           |
|  \\    /   O peration     | Version:  2306                                  |
|   \\  /    A nd           | Website:  www.openfoam.com                      |
|    \\/     M anipulation  |                                                 |
\*---------------------------------------------------------------------------*/
FoamFile
{
    version     2.0;
    format      ascii;
    arch        "LSB;label=32;scalar=64";
    class       volScalarField;
    location    "0.4";
    object      gradTy;
}
// * * * * * * * * * * * * * * * * * * * * * * * * * * * * * * * * * * * * * //

dimensions      [0 -1 0 1 0 0 0];

internalField   nonuniform List<scalar> 
5322
(
0.633528
0.0631057
0.00109624
-0.0189175
-0.00726933
0.00108055
0.00478816
0.00786412
0.0138779
0.0213083
0.0011527
-0.141225
-0.156454
-0.140479
-0.122086
0.264651
0.353834
-0.000666412
0.245356
-0.293195
0.280769
-0.288941
0.286263
-0.298043
0.300846
-0.301283
0.305393
-0.319106
0.323461
-0.327601
0.335231
-0.344017
0.361391
-0.318277
0.309429
-0.159043
0.314094
0.391592
0.196149
0.214192
0.289094
0.241772
0.252231
0.269928
0.257377
0.257094
0.261481
0.279386
0.261246
0.247435
0.310856
0.147834
0.167192
-0.543093
-0.0289015
-0.313751
0.166623
-0.410856
-0.0225426
-0.357067
0.169163
-0.403984
-0.0201102
-0.354424
0.16986
-0.418272
-0.0262234
-0.343002
0.171634
-0.461533
0.0157447
0.395608
0.220198
0.307842
0.22975
0.291184
0.242831
0.289991
0.246332
0.341733
0.029973
0.118485
0.177817
0.293159
-0.0236848
-0.118997
0.0356869
0.0696333
0.133318
0.0162913
0.0351426
0.00646911
0.000992693
0.00111633
0.412653
-0.223537
0.00684811
0.225505
0.00628747
-0.00699012
0.0327398
0.00627893
0.239218
-0.402118
0.360051
0.00552728
-0.00709325
-0.00122162
-0.000113861
0.000478145
0.000510126
0.000550771
0.0010573
0.00198944
-0.00324439
0.000883064
0.100578
-0.0412697
-0.0142711
-0.0775112
0.0953832
-0.0529182
-0.103219
-0.141268
-0.159612
-0.00643244
0.117041
-0.0882887
0.00828208
0.0964419
-0.096052
0.00405024
0.100253
-0.102796
-0.00324878
0.0936225
-0.112313
-0.00894164
-0.0259964
0.171965
0.14243
-0.0934989
0.0619608
0.0481597
-0.0986553
0.0107042
-0.0965963
0.0757595
0.0778985
-0.0859014
-0.00129372
-0.080105
0.0804166
0.0868592
-0.077991
-0.000261275
-0.0745056
0.0946355
-0.00612037
-0.00460504
0.297821
-0.233353
0.25923
-0.277118
0.00946621
-0.177298
-0.0035895
-0.00119703
-0.0329035
0.0852499
-0.170553
0.169706
-0.285528
0.0006619
0.291663
-0.289491
0.301395
-0.310007
0.00130123
0.305435
-0.31566
0.3274
-0.329844
0.00124242
0.32256
-0.328874
0.339512
-0.342864
0.000812139
0.334962
-0.341141
0.351521
-0.355953
0.000739492
0.347907
-0.35548
0.366241
-0.370404
0.000992069
0.362134
-0.372312
0.383764
-0.385221
0.00132762
0.376051
-0.389753
0.401612
-0.394037
0.0017332
0.382818
-0.402948
0.406331
-0.223639
-0.00110335
-0.0179822
0.00785205
-0.00682483
-0.00039429
0.00252451
0.00345406
6.38116e-05
0.413463
-0.222646
0.00173147
0.265788
-0.036985
-0.0118939
0.0099302
-0.0134425
0.224697
-0.407166
0.00239899
0.00181766
0.00509497
0.00319947
0.00164517
0.000707326
5.19525e-05
-0.000874074
-0.0021698
0.0031839
-0.00116403
-0.0809482
-0.0862333
-0.0862775
-0.0811303
0.0166671
0.0284883
0.0179191
-0.108918
0.0569717
-0.115355
0.0285498
0.0167001
0.0179575
-0.114001
0.0396201
0.10906
0.0703349
-0.108876
0.0570908
0.118394
0.165366
0.174714
-0.28695
-0.286306
-0.308117
0.224659
-0.280316
0.259665
-0.280835
0.275219
-0.287357
0.287152
-0.298424
0.298411
-0.314496
0.309366
-0.335595
0.319775
-0.358139
0.327212
-0.0699027
0.16321
-0.0469541
-0.00592956
0.283295
-0.329777
0.00552848
0.289953
-0.316999
0.00339193
0.286882
-0.298777
0.00231485
0.279619
-0.28304
0.00156302
0.269837
-0.271903
0.000531917
0.257359
-0.265303
-0.00106927
0.238605
-0.264668
0.0068113
0.196871
-0.0181721
0.196703
-0.265081
0.00682311
0.225827
-0.306353
0.122771
0.202768
0.151481
0.141831
-0.270239
0.17821
-0.254897
0.227675
-0.254606
0.247439
-0.260774
0.259839
-0.271704
0.269879
-0.288168
0.279024
-0.307825
0.286684
-0.318384
0.285598
-0.0447004
0.118924
-0.127263
0.000204319
0.39209
-0.466185
0.0103943
0.412126
-0.436124
0.0058985
0.401656
-0.403441
0.00316703
0.385774
-0.381104
0.00178597
0.371963
-0.366649
0.000462101
0.360145
-0.35698
-0.000582167
0.345859
-0.353338
0.00848608
0.302768
-0.348146
0.122025
0.283225
0.25159
-0.12632
0.240792
-0.057088
0.04502
0.288083
-0.24941
0.233727
-0.221522
0.354875
-0.312485
-0.00248836
-0.347456
0.2964
-0.301803
0.00882509
0.317655
0.0141488
0.00604014
-0.0897155
0.00878639
-0.00719977
0.00471156
-0.00173662
-0.000626385
0.290498
-0.291059
0.292667
-0.306192
6.57611e-05
0.318731
-0.324094
0.3321
-0.336617
0.000287862
0.344825
-0.349293
0.359958
-0.362963
0.000389095
0.377687
-0.376174
0.395218
-0.382956
-0.000618095
0.000556516
0.000911547
0.00292973
0.00162483
0.00116575
0.381152
-0.375682
0.00194736
0.444578
-0.449134
0.402179
-0.379134
0.00390769
0.460896
-0.448193
0.286049
-0.202152
-0.332437
-0.0232262
-0.00410831
-0.120002
-0.031144
0.00836997
0.211236
0.272839
0.0210268
-0.43069
0.321168
0.00260779
-0.348788
0.313435
-0.00124881
-0.314977
0.305249
-0.000378344
-0.293441
0.294119
-0.00246824
-0.284527
0.297278
-0.00535009
-0.265136
0.297639
-0.018803
-0.233118
0.0751219
0.113198
-0.140612
0.000875941
0.230453
-0.198499
0.232585
-0.229866
0.236384
-0.237273
0.386012
-0.338373
-0.000843715
-0.381617
0.332572
-0.327319
-0.00198732
0.372419
7.86205e-05
-0.0011004
-0.000706168
-0.0210403
0.00310502
0.0286481
0.0315014
0.0127226
0.00588142
0.0184018
0.0129106
-0.0166374
0.269359
0.0863333
0.0186892
0.0645501
0.0133731
0.0034248
0.00242001
0.00143792
0.00116397
0.000139955
-0.000330454
-0.214402
-0.000369348
0.221008
-0.223169
0.243058
-0.245944
0.254451
-0.256001
0.420889
-0.363686
0.000626248
-0.409753
0.36149
-0.350473
-0.000103705
0.40142
0.00096118
0.000413127
-0.000435306
-0.00186517
-0.00452477
0.00145042
0.00107756
-0.00217667
0.00871608
0.0062428
0.219926
0.000622394
-0.00989629
0.000504223
-0.0165906
0.000894388
0.142133
0.27112
0.498114
0.0516322
-0.00746211
-0.00268672
-0.0128937
-0.278552
0.000765072
0.261603
0.238128
-0.265413
-0.00105197
-0.27982
0.00129313
0.276918
0.256959
-0.271732
0.000565258
-0.28738
0.000797407
0.287936
0.26987
-0.282746
0.00162015
-0.299634
0.00383763
0.297656
0.280568
-0.298669
0.00243309
-0.317426
0.0135481
0.304982
0.290046
-0.318222
0.00360064
-0.339865
0.0366772
0.306594
0.298134
-0.335757
0.00585269
-0.358168
0.0880253
0.299877
0.299852
-0.0554567
-0.00569601
-0.0646195
0.81854
-0.372318
-0.381074
0.605997
0.158024
0.0636758
-0.547875
-0.115618
-0.0681597
0.273491
-0.285699
-0.00507446
0.00696782
-0.038419
-0.0456995
-0.00572104
0.0121997
0.00706027
0.00152076
-0.00485511
0.000563919
0.00298923
0.000870193
0.000228583
-0.000451947
-0.00184608
-0.00362104
-0.0125999
-0.00672853
0.175217
-0.175287
0.00209375
0.00113457
-0.17805
0.175433
-0.00041437
0.000728459
-0.00079039
-0.0132845
-0.00842095
0.0318141
0.00341379
0.0366102
-0.0129836
-0.015919
8.0908e-06
0.0586872
-0.0682367
0.0685265
-0.0584511
-0.0591775
-0.0505623
0.00189779
0.0679592
0.0611327
-0.0610081
-0.0018131
-0.0684585
2.55188e-06
2.17049e-05
0.00430604
0.0120483
0.0107631
-0.0245959
0.000115823
-0.000470516
-3.3214e-05
0.00133403
0.00475582
0.00205762
0.0209348
-0.0210899
-0.00457927
0.00947618
0.249726
-0.234245
0.269315
-0.271065
0.284246
-0.00766923
-0.253976
0.00470868
0.275779
-0.00186881
-0.0141203
0.00275636
0.00192955
0.00377562
0.00444219
-0.0033432
-0.0454903
0.155927
-0.0705872
-0.291617
-0.038451
-0.0385887
-0.594126
-0.164675
0.0210766
-0.241924
0.177992
0.00831677
0.00961724
0.215398
0.180593
0.0248628
-0.0203478
0.239036
0.214865
0.0267209
-0.0244578
0.217025
0.244929
0.0249133
-0.0560285
0.180212
0.249713
-0.0870636
0.133012
-0.115888
0.123849
-0.488365
-0.264941
0.0467304
-0.120595
0.255841
-0.0155731
-0.418481
0.224692
-0.00444222
-0.266517
-0.263837
-0.382597
0.154448
-0.20833
-0.134679
0.228717
-0.460426
-0.054595
0.318237
-0.380699
-0.0127614
0.325503
-0.33362
-0.00196558
0.314345
-0.308915
-0.000734994
0.301104
-0.29514
-0.000252265
0.291019
-0.285778
0.00289415
0.284715
-0.277527
0.0161091
0.287946
-0.245011
0.0683948
0.237014
-0.131814
0.250466
0.282996
-0.351677
0.301789
-0.356687
0.00880503
0.177636
-0.270372
0.121887
0.141147
0.152762
0.202747
0.174363
0.12268
0.236517
0.141018
-0.00212543
-0.0228039
-0.0148879
-0.010622
-0.00884109
-0.0145891
-0.00918982
-0.000971392
0.00328248
0.229571
-0.22783
-0.000848861
-0.000361664
-0.00128463
0.000156885
-0.393863
0.345571
0.000265529
0.340935
-0.348076
0.000451746
0.354682
-0.362406
0.001028
0.36989
-0.379101
0.00182965
0.385068
-0.395545
0.00234715
0.391876
0.0026142
0.00518971
0.00067205
-6.48057e-05
-0.00117088
1.1056e-06
0.000390673
0.000394936
0.000323524
0.000201551
0.000142668
0.000173705
0.00165952
0.00471817
-0.170671
0.00255495
0.00847912
-0.000457316
0.000240224
0.000365416
0.000186419
-0.000173156
-0.000823396
-0.00190082
-0.00271527
0.0101906
-0.00290727
-0.00769
-0.0101515
0.201676
-0.215359
0.268959
0.000374081
-0.0364944
0.0304898
0.0993552
0.000531849
-0.0884852
0.0832129
0.0852354
0.000281742
-0.0945712
0.0886932
0.0762188
-2.93626e-06
-0.118892
0.113038
0.10586
-0.00206693
0.135179
-0.142301
0.138759
-0.149389
-0.0138386
-0.0809048
0.116964
-0.00978169
-0.111511
-0.00241684
-0.000756165
0.397312
-0.00135699
-0.399676
0.235062
-0.00822267
-0.243097
0.243573
-0.00532367
-0.255294
0.40254
-0.00381533
-0.40245
0.386657
-0.384923
0.382683
-0.391973
0.00106
-0.398688
0.393572
-0.000723579
-0.243318
-0.00898308
0.24545
-0.208907
0.00179408
0.368393
0.131855
0.381585
0.139918
-0.190807
0.289289
0.0286086
-0.24595
0.26215
0.00726629
-0.246598
0.245837
0.00308888
-0.236686
0.235832
0.00180086
-0.230063
0.225617
0.000363628
-0.222797
0.219278
-0.00417992
-0.22186
0.20346
-0.0224286
-0.230635
0.150253
-0.108512
-0.28966
-0.0875119
-0.270682
0.176976
0.0165758
0.00884468
0.112989
0.0265168
-0.173981
-0.143327
-0.0397895
-0.110907
-0.0718363
-0.0560904
-0.122844
-0.0612987
-0.0651356
-0.122018
-0.178723
-0.185278
-0.122511
0.304903
0.0169227
-0.180317
-0.00695595
0.248629
0.292543
-0.00282732
-0.217749
0.000598073
0.245685
0.364236
0.00324656
-0.36425
0.000697684
0.372049
0.0005963
-0.377029
0.00158549
0.383203
0.000171752
-0.391952
-0.000183323
0.396685
3.91023e-05
-0.409238
0.000570665
0.41145
-0.00132472
-0.429434
-0.00297032
0.422104
-0.00670281
-0.452926
-0.0152412
0.00333235
-0.277724
0.451529
0.00279835
0.284117
0.00110891
-0.27038
0.442441
-0.00025087
0.268389
0.00106993
-0.261248
0.426716
-0.000215872
0.257008
0.000698104
-0.250927
0.411008
-3.18599e-06
0.246601
0.00114947
-0.243071
0.397076
0.00018182
0.238859
0.000716398
-0.236231
0.385426
0.000356603
0.230815
0.000852049
-0.233396
0.374321
-0.00104521
0.224041
0.000378328
-0.234922
0.351672
-0.0137722
0.251115
-0.0446066
0.0577059
-0.284393
-0.250693
0.130813
-0.239982
-0.0700372
-0.04792
-0.500663
-0.27267
-0.239277
-0.169697
-0.122839
0.273197
0.315985
0.0230388
-0.170833
-0.00870438
0.361195
0.0105974
-0.349227
0.00445065
0.00131024
0.00463976
0.0131814
-0.236884
-0.0110815
0.114479
-0.0167796
-0.0163338
-0.0308316
0.109596
-0.0362133
0.0149231
0.0131103
0.000346893
0.000988883
0.000902706
0.000540157
0.000460217
0.000160737
-0.00176409
-0.00126463
0.319395
-0.370209
0.0014464
-0.00185201
-0.00354763
-0.000239948
-0.299911
-0.000289311
0.307683
-0.324221
-0.000280941
0.327395
-0.336207
4.00754e-05
-4.55346e-05
-0.000758106
-0.000308101
2.68713e-05
0.000691446
0.000689479
0.000559452
0.000358122
0.000228815
0.00014919
0.00093793
0.00140478
0.000529762
0.305236
-0.310064
0.281696
-0.286459
0.290873
-0.294603
0.00183892
-0.151025
0.000432634
0.142352
0.00523094
-0.156027
-0.000280636
0.118627
-0.011975
-0.00947784
0.0443005
0.00181403
-0.0489554
0.358603
-0.00427197
-0.228221
-0.000231796
0.2368
0.308441
-0.00105372
-0.247371
-0.00100907
0.255007
0.308475
0.00148573
-0.259493
-0.00161268
0.262356
0.320929
0.0036304
-0.273001
-0.00236595
0.267686
-0.287616
-0.00306745
0.262984
-0.307064
0.00973466
-0.00904897
-0.00221117
-0.000762823
6.52241e-05
0.000308118
0.000497199
0.00113586
0.00224964
-0.00322475
0.00101691
0.0810635
0.0854105
0.0864292
-0.0256172
0.116589
-0.0119466
-0.0124227
0.119765
-0.0226079
0.109341
-0.0352615
0.0043158
-0.00970745
0.00936881
-0.00234347
0.00216284
-0.00168977
-0.288643
0.00773158
0.00848184
0.00183627
0.00011624
-2.57769e-05
-0.0609085
0.0604273
0.0019113
-0.0513498
0.0788541
-0.0161342
0.00673516
-0.00238249
-0.0029911
-0.0151825
0.113558
-0.284307
0.0171943
-0.190978
-0.0084635
0.243275
0.298781
-0.00654356
-0.221764
0.00112583
0.293379
-0.00452822
-0.235088
-0.000171791
0.249453
0.301976
-0.000259028
-0.249018
-0.00101587
0.255632
-0.260558
-0.00172143
0.262742
0.00168482
0.0012303
0.00077419
0.000349529
-0.000563927
0.00688953
-0.00451095
-0.000186471
0.00189841
5.03488e-05
-0.00173172
-0.00816399
-0.00683922
-0.00188122
-0.00187197
0.00137166
0.00448153
0.000325169
0.00363871
0.000395915
0.00185396
-0.0105962
-0.0146332
-0.0274672
-0.0302116
-0.060823
-0.0513092
-0.0306413
-0.116126
-0.358294
0.0292194
-0.557067
-0.410577
-0.297709
-0.198071
-0.177872
0.0697684
-0.159316
-0.0143274
0.0379824
0.00202751
-0.0053905
0.191913
-0.226068
0.273947
0.00257282
-0.0324519
0.0510447
0.115742
0.0047677
-0.0791405
0.108239
0.108401
0.00516132
-0.0848157
0.111838
0.101518
0.0038871
-0.11345
0.126493
-0.00597571
0.00381969
0.0161739
0.0728539
-0.312099
-0.452204
0.00719492
0.416491
0.0114882
0.00805403
0.268364
0.00182847
-0.440197
0.454846
-0.000546005
-0.439571
0.258541
-0.290603
0.258222
-0.0312401
-0.278496
0.0140638
-0.314492
0.436876
-0.382664
0.389709
-0.00123513
-0.390588
0.000698326
0.387088
-0.00115574
-0.388661
0.000233183
0.390415
-0.00117267
-0.392006
0.389177
-0.447639
0.0266674
-0.317074
0.434592
0.0206927
0.0109087
-0.123341
0.13337
-0.137697
0.000119116
-0.112349
0.103253
0.0073541
-0.128335
0.091638
-0.105163
0.00555886
0.191597
-0.113614
0.0692781
0.0167807
-0.132409
0.104243
-0.00210376
-0.00220178
-7.21615e-05
0.00420457
0.00252458
0.00124439
0.000515812
-8.3212e-06
-0.00085556
-0.00211907
0.00320668
-0.0010119
0.0507761
0.0584519
0.000109583
-0.0138325
-0.00855256
0.109928
0.0397587
-0.0934261
0.0480173
0.0620432
-0.0978222
0.00315348
-0.113068
-0.00878482
-0.0264422
-0.0914259
0.14316
0.174168
0.00909106
0.0319842
-0.00776955
0.00437441
0.0765051
-0.0822115
-0.000988286
-0.0863036
0.0860734
0.0822214
-0.0764573
-0.000517749
-0.10417
-4.76744e-05
0.104143
2.64102e-05
6.13437e-05
-0.00191738
0.00612041
0.0028904
0.0460221
0.497664
0.270845
0.139507
-0.00209617
-0.0206458
-0.0137643
-0.0101769
-0.0135663
-0.0249792
-0.0484539
-0.0520477
-0.103763
-0.114558
-0.243696
-0.408773
-0.365071
-0.367985
0.155653
-0.239968
-0.0977165
-0.105865
-0.322468
-0.417901
-0.372204
-0.371916
-0.375738
-0.370509
-0.420741
0.15782
-0.0403498
-0.122837
0.494878
-0.152161
-0.302559
-0.292571
-0.0784236
-0.0969464
-0.224598
-0.235284
-0.0557231
-0.0874748
-0.0171649
-0.00314944
0.00178821
0.00241546
0.00207917
0.000921249
-0.00226232
-0.00284224
-0.0135613
-0.00514963
-0.00393099
-0.00688933
-0.00615415
-0.00809508
-0.014934
-0.0325274
-0.00754894
-0.00791764
-0.00969283
-0.00311278
0.000768397
0.00180853
0.00164732
0.000546394
0.000910165
-0.00140549
0.227055
0.343148
-0.358491
0.357645
-0.366611
0.00065913
0.246621
-0.255019
-0.000304411
-0.00208788
0.00075494
0.0034662
-0.255317
0.0113305
-0.114777
0.0707396
-0.022202
-0.00680966
-0.00813746
0.0105735
-0.0988176
0.0775998
-0.000578545
-0.000276728
-0.000282962
6.64239e-05
0.0505827
-0.00173333
0.000221826
0.000217459
-0.000136347
-0.0319581
0.00016755
0.0132473
0.00821974
0.0108536
-0.00900351
0.00757753
-0.000120241
0.00078818
-0.0318699
0.0986245
0.09784
-0.0618095
-0.0104924
-0.0489476
0.0939921
0.0082577
0.00184341
5.0209e-05
9.70698e-06
-0.00187032
-0.00169904
-0.00174225
-0.000529198
-0.00756667
-0.000932154
-0.00154467
3.27027e-06
0.00328606
0.000143219
0.00165945
-0.260845
0.258879
0.370309
-0.379663
0.384595
-0.398622
0.0026717
0.268598
-0.27104
0.00164605
0.000120452
-0.000288244
0.000746031
0.000596599
0.00285624
0.00109829
0.00329117
0.00149172
0.0039887
0.00458578
0.0121651
0.0110679
0.0119024
0.00528507
0.0771386
0.00129894
0.00201304
0.000962988
0.000284619
-0.00050945
-0.00200826
-0.00219801
-0.000851889
-0.000830152
-0.000422336
-8.354e-05
8.31769e-05
0.000355177
0.000363711
0.00032882
0.000195537
-0.000738264
0.00107722
0.00101354
4.42921e-05
0.000150855
0.00026834
0.00042802
0.00065828
0.000980932
0.000781292
0.00150361
0.00207084
0.00136308
0.0029986
0.00432038
0.00352269
0.0198566
-0.0291679
-0.0400327
-0.00755427
0.00455488
0.0061192
0.00561586
-0.0980336
-0.00176755
-0.00100359
-0.00145075
-0.00967865
-0.00367508
0.211328
-0.00279504
-0.277448
-0.00204577
-0.0124553
-0.257159
-0.0113157
-0.0150505
-0.163389
-0.0747445
-0.127196
-0.313945
0.0309084
0.0797424
0.00527128
-0.00422869
-0.00357698
-0.00661312
0.00171392
-0.189271
0.265673
0.00185565
-0.0586766
0.0261042
0.0916893
0.000488576
-0.114357
0.0727307
0.0737102
-0.000456828
-0.118241
0.0778303
0.0649937
-0.00118938
-0.108451
0.0249474
-0.149457
0.0674692
0.106377
-0.144141
0.0433444
0.0207268
-0.00870024
-0.0018326
-0.000577189
0.000237711
0.00037697
0.000475007
0.00105783
0.00186052
0.0022666
0.00218693
0.00346901
0.318147
-0.322052
0.00168726
0.328345
-0.333671
0.299942
-0.305346
0.311346
-0.318766
0.00146018
-0.161762
-0.000207819
0.157378
0.00137087
-0.154516
0.000331028
0.151689
-0.000750407
-0.000165443
0.0490888
0.000565697
-0.050488
0.377694
0.000827994
-0.246433
-0.00152578
0.253417
0.327433
0.00315969
-0.269853
-0.00234334
0.325169
0.00792213
-0.28655
-0.00420715
0.262539
0.33346
0.00718506
-0.368203
0.00621523
-0.306055
-0.36453
0.00923568
0.324045
0.269457
-0.300787
0.00709175
-0.00856119
0.00404164
0.00268956
0.00199977
0.00125594
0.000436752
-0.000561084
-0.000302983
0.000356309
0.000571808
0.000287201
0.000552089
0.000177408
0.340139
-0.347543
0.00188259
0.353882
-0.364476
0.325964
-0.333505
0.345212
-0.341191
-0.0126438
-0.174293
-0.00469714
0.176749
-0.000770492
-0.172202
-0.00159593
0.164518
-0.00193926
0.00249689
0.0591209
0.00385229
-0.0491833
0.406166
0.00296954
-0.262904
-0.00419506
0.274451
0.331078
0.00667016
-0.377996
0.00769092
-0.268668
-0.480277
-0.00102764
0.405753
-0.0282005
0.156882
0.000426956
0.112424
0.074684
0.0424997
0.0272559
0.210216
-0.132021
-0.01113
0.00814662
0.00223152
0.00132592
0.00134388
0.00117664
0.000302878
-0.00314176
0.00149928
0.203279
-0.145679
-0.235831
-0.0539468
0.044789
-0.116077
0.372056
-0.171115
-0.208999
-0.202356
-0.118461
0.279516
0.30917
0.0162532
-0.192293
-0.00758652
0.28937
-0.0057303
-0.217591
0.00127029
0.246289
0.295401
-0.00285686
-0.236542
-0.0003419
0.249325
-0.00053081
3.10209e-05
-0.290992
0.00333783
-0.274297
0.0271633
0.0277406
0.00175662
-0.149854
-0.250736
-0.174673
-0.123691
-0.260927
-0.0920537
-0.0468148
0.0272833
0.00770014
0.357151
-0.00519505
-0.217812
0.000767819
0.233994
0.301787
-0.0047989
-0.23597
-0.00018157
0.299989
-0.000917567
-0.247844
-0.00104113
0.255407
0.31078
0.00156576
-0.316758
-0.00245552
-0.0015459
-0.303827
0.00921829
0.0093512
0.0175513
0.0032012
-0.269125
0.0112878
-0.214398
0.00180157
-0.0400558
-0.0617601
-0.0155219
0.0190627
-0.00797867
-0.332334
0.000951699
-0.00200526
0.047672
0.000631922
0.36639
-0.00103423
-0.237116
-0.00100196
0.243593
0.317389
0.00122426
-0.25826
-0.00149431
0.317857
0.00390989
-0.272013
-0.00254339
0.266853
0.330246
0.00693356
-0.348125
0.00211926
-0.000682184
-4.69764e-05
0.000304357
0.000320001
0.000228888
0.0001438
7.73502e-05
-0.000857287
-0.00220012
-0.000440115
-0.000556623
-0.000743074
-5.5631e-05
0.000395214
0.000662526
0.000888442
0.000304873
0.000289636
-0.000112856
-0.000139377
-0.00079257
-0.000387398
0.322752
2.90251e-06
-0.322587
0.327896
5.15057e-05
-0.335401
0.335627
-0.327449
0.330709
-0.000419583
-0.340097
0.334811
-0.328717
0.322382
-0.00138862
-0.328584
0.311012
-0.309876
0.310199
-0.311115
0.00138139
-0.32257
0.329131
0.000756409
-0.330815
0.00053352
-0.335052
0.340811
0.000476008
-0.344063
0.000184195
-0.346519
0.351798
-0.346796
0.347133
0.00011697
0.340451
-0.339909
-8.73214e-05
0.344032
4.87265e-05
-0.351024
0.346355
-0.339816
-0.000800556
-0.383357
0.236146
-0.00025833
0.374442
-0.00182116
-0.372535
0.233072
0.0010167
0.357737
-0.314125
0.299453
-0.00109744
-0.304581
-0.000341661
0.297163
4.14972e-05
-0.29706
0.000676511
0.304834
0.00112899
-0.299501
0.314919
-0.358674
0.00257717
0.00379705
0.0034296
0.012632
0.00858561
-0.177479
0.18306
-0.180366
0.180337
-4.80927e-05
-0.000526561
-0.000501497
-0.183042
0.177367
-0.00867925
-0.00499836
0.0947527
-0.105836
0.000372731
-0.000690432
0.295227
-0.298879
0.299069
-0.295356
0.305283
-0.321277
-0.00869709
-0.00330221
-0.0947479
0.00498333
0.10579
-0.00437064
0.0019801
0.00189149
7.18222e-05
0.000124398
0.000182622
0.000213909
0.000182068
-0.352501
9.20639e-05
-0.359343
0.359761
-0.363475
0.359423
0.00019549
0.357186
-0.351918
-0.000169338
-0.39498
0.242603
0.000133544
0.387497
-0.238143
-0.000594651
-0.215072
0.221139
0.000840975
-0.222402
0.228935
0.00149016
-0.229802
0.241313
0.00419423
-0.237575
0.257284
0.00328816
-0.251152
-0.0106989
-0.00126902
-0.00304794
0.00105986
-0.00133754
0.000198274
-0.0014946
-0.000405269
-0.0018305
0.000499891
0.00312752
0.2193
-0.230512
-0.000759622
-0.20229
0.227387
0.0215916
0.0087416
-0.00119179
0.0084085
-0.14993
-0.000513487
0.234881
0.0135993
-0.350669
-0.00228329
-0.00350695
0.0183839
0.0125115
-0.0165934
-0.176729
0.270161
0.0876997
0.287938
0.10692
0.0608325
0.0144886
0.0441655
-0.25107
0.320849
-0.304759
0.00866872
0.00143192
-0.0138351
-0.00368021
-0.0018758
0.00583075
0.0017267
0.00109822
0.00134327
0.000661609
-0.409139
0.251215
-0.246991
0.401994
0.000120903
-0.00051067
-0.00164872
-0.000337224
-0.000391646
0.000123034
0.00028476
0.000808157
0.000409703
-0.365301
0.000146778
-0.376837
0.373872
-0.425227
0.260969
0.00129792
0.419157
-0.258152
0.0016324
-0.000345576
0.00204462
0.00085878
-0.00237514
-0.000462968
0.27631
0.400512
-0.424707
0.0360337
0.00577542
0.00233437
0.010418
0.00377896
0.0102138
-0.285668
0.00953662
0.0274284
-0.302608
0.00436251
0.00147562
0.00097321
0.0018231
0.00295626
0.0040943
0.00192158
0.00113148
0.000640491
0.000491665
0.000396316
0.000576689
0.000763829
0.000536331
0.000428636
0.000543949
0.000615373
0.000511397
0.000743115
0.000839925
0.000466055
0.00140591
0.000927346
0.00121879
0.000898248
0.00013002
-0.000606763
-0.000192276
0.00162856
0.00300724
0.000311112
-0.016949
0.00208798
0.000557989
0.000788089
0.00101178
0.00119645
0.00106114
0.00212004
0.00126873
0.00239162
0.00130684
0.368011
-0.383621
0.00246085
0.376893
0.00643796
0.00127134
0.00322799
0.0172703
-0.0633577
0.166019
-0.133538
0.281589
0.041086
0.188474
-0.15403
0.126235
-0.133415
0.0866293
0.0986179
-0.145528
0.0332346
-0.152795
0.0915301
0.0950022
0.184748
-0.0088162
-0.00261734
-0.0234244
-0.00122715
-0.104289
-0.00170804
-0.000666972
0.000621634
0.000843554
0.00155874
0.000917704
0.000636758
0.000809029
0.000626055
0.000113014
0.00058345
0.000273115
0.00272539
0.00153738
0.000898344
-0.386286
0.391898
0.00207201
-0.255737
-0.00246479
0.265675
0.33493
0.00616354
-0.282813
-0.00379893
-0.3455
0.00275989
0.00204506
8.86863e-05
0.000391587
0.000177376
0.00266254
0.000603494
0.000292535
0.000449604
0.000411733
0.000275725
0.000465614
-0.000384095
-0.00190536
-0.264583
0.00366847
0.246175
0.0130649
0.250346
-0.220058
-0.238735
0.281935
-0.188461
-0.17739
-0.147436
0.00263517
0.000175351
-0.000122111
-0.292651
0.013132
-0.00263307
-0.0486256
0.00235536
0.00820023
-0.00226539
-0.36951
0.0029193
0.000472001
0.0514797
0.00142659
-0.0520185
-0.00180765
0.00588695
0.00678478
0.00657534
-0.00172352
-0.308538
-0.00149371
-0.300298
0.00566859
-0.00261873
-0.322863
-0.00237728
0.263015
0.00264799
-0.00397071
-0.338403
0.00291903
-0.407664
0.0205007
0.0120573
0.0859615
0.00858659
-0.436974
0.0279088
0.00786214
0.010438
0.0320354
0.181225
0.428359
0.222925
0.327925
-0.0186707
-0.00723548
-0.356478
-0.00433848
-0.0150822
0.0154406
0.22083
0.318926
-0.0190408
-0.00763912
-0.00390244
0.269923
-0.328753
0.000387248
0.00495647
-0.00983111
-0.0232639
0.00600999
0.20377
0.321292
-0.0199471
-0.00795831
-0.00413079
-0.3313
-0.00470034
-0.00291559
-0.00220029
0.00474842
0.00611054
0.00276823
-0.0181935
-0.00409214
0.00374971
0.00233352
-0.000660988
-0.00684123
-0.00987539
0.00430149
0.186031
0.359631
-0.0662774
0.0608848
0.0271123
0.0313446
0.00781219
-0.00204893
-0.000834922
-0.000259723
-2.74452e-06
0.000157891
0.00052523
0.00175682
-7.87964e-05
-0.000105552
-0.000758501
0.0011642
0.000654824
0.000723278
-0.00135817
-0.0134865
-0.0189305
-0.00602842
0.0020087
0.00213726
-0.37582
0.329717
0.000998367
0.00103534
0.00104224
0.00195418
0.00235785
0.00228554
0.000677616
-0.00607444
0.0908645
-0.306357
0.0157905
0.00119748
0.000816623
0.000500402
0.000496218
0.000756832
0.000233585
0.000344387
0.00030227
0.000433044
0.000174859
0.000233728
0.000234023
0.000835109
0.000822263
0.373111
-0.000105713
-0.372763
0.380747
-0.00055722
-0.38512
0.384896
-0.380291
0.386157
-0.000258054
-0.388784
0.387574
-0.378886
0.00135072
0.438784
-0.272913
0.00422758
0.00161559
0.0019891
0.00182667
0.000898349
-0.00876953
-0.0177948
-0.0359291
-0.0811634
0.0036988
-0.0342256
-0.0117194
-0.0035069
0.00454029
0.00393297
-0.000229342
0.000220044
0.000914195
0.00048806
0.371419
-0.36613
0.366761
-0.371192
-0.000167868
-0.373019
0.377417
-3.55478e-07
-0.386253
-0.000629834
-0.386446
0.389055
-0.000237515
-0.3988
0.392516
-0.452286
-0.00125731
-0.00229814
-0.000943587
0.000300336
0.000560012
0.00206795
0.00480031
0.0185887
0.0781413
-0.0272644
0.826191
-0.0201907
-0.00422664
-0.0152025
-0.148192
0.0305975
0.0850958
0.00724899
-0.00128956
-0.0815625
-0.00146097
0.00239538
0.0056963
0.000387184
0.000474246
0.00665568
0.00361335
-0.257645
0.215023
-0.00889822
-0.00604474
-0.000697031
0.0438743
-0.0102904
0.036246
0.058304
0.0959029
0.189379
0.0459129
-0.118991
0.0471148
-0.152493
0.0370603
0.0199382
-0.113733
0.00672555
-0.00223465
0.000255232
-0.000522287
5.16411e-05
0.00207225
-0.00103115
-0.00236079
-0.000437432
-0.00272848
-0.000874448
4.52515e-05
-0.000108948
0.000187036
-8.13004e-05
-0.000118106
-0.000792851
5.47097e-05
0.00114886
0.00233852
0.00890186
0.100725
0.424331
0.0239849
-0.0723946
0.272409
-0.00167198
-0.055445
-0.0204036
-0.0302322
0.820232
-0.0161398
-0.00446456
0.00550436
0.00199925
0.00497093
-0.0739065
-0.00171947
-0.00180523
-0.0159298
-0.149274
-0.129541
-0.07925
-0.303583
0.0312165
0.0752684
0.00375338
-0.00425334
-0.00447763
-0.00243632
-0.090929
-0.004557
0.0437785
-0.0267261
0.0466696
-0.00272645
-0.0830584
-0.00495044
-0.00262839
-6.9035e-05
0.00535323
0.0207181
0.00345185
0.00423891
0.0194455
0.0189326
0.00136537
-0.00166845
-0.000418914
0.00096016
0.00277292
-0.00130654
-0.000895643
0.0141128
0.306492
0.0156324
0.00178618
0.000904051
-0.000322527
-0.000504932
-0.000634917
-0.00154754
0.000866559
0.340911
-0.388863
0.00109539
0.000816607
0.000324952
0.000508478
-0.40281
0.352988
5.02668e-05
-0.359172
0.364212
-0.357067
0.000304837
0.353105
0.000259046
0.000130533
3.09835e-05
-9.92845e-06
0.000426046
0.000787538
0.000220164
0.000101675
-0.000150814
-0.000826559
0.00142603
0.396865
-0.391423
0.391178
-8.46894e-05
8.53637e-05
0.000172963
0.00017456
-5.45135e-05
0.366514
-0.418775
0.000126228
0.000388711
0.000613987
-0.000660298
-0.000444345
-0.43637
0.380748
-0.000522642
0.00151056
0.000795371
0.00221507
0.00118465
0.000941587
-0.00911045
-0.0151424
-0.0620322
-0.0096334
-0.000534202
0.000772917
0.000298991
0.00081975
0.00109245
0.00214745
-0.00128366
-0.0013266
-9.25812e-05
-0.000246225
-0.00175511
-0.000940715
-0.00102232
0.000181088
-0.00171585
0.0012314
-0.00187805
-0.00660917
-0.000577399
-0.00231054
-0.0144323
0.0105733
0.0293204
3.5774e-05
0.00110361
-0.38871
0.00282562
0.0135888
0.0846062
-0.00182162
-0.00251511
-0.0182056
-0.174537
-0.10735
0.0245237
-0.00311099
-0.00245984
-0.00198092
-0.0221827
-0.00312729
0.162621
0.04819
-0.00834427
0.0342167
0.244522
0.0209999
-0.00365358
-0.00638326
-0.00749577
-0.0111845
-0.272452
-0.242044
0.00173824
0.0242745
0.00948716
0.0405806
-0.0765196
0.000447535
0.00405951
-0.0114232
0.00127078
-0.31396
0.00765746
0.00362557
0.00209823
0.000666564
0.000397307
-0.000931631
-0.354066
0.248771
-0.285392
0.0176475
0.183698
0.28057
0.00220418
-0.000807451
0.000136219
-0.0583446
-0.223795
-0.0156626
-0.00389803
-0.00132835
-0.00183523
-0.0652027
0.000473719
-0.271271
0.0069467
-0.260068
-0.0019675
0.0309952
0.00100642
-0.0779222
0.0366868
-0.00918789
0.247621
0.000393558
-0.208415
0.0227961
0.0880218
0.0122178
8.94483e-05
0.00152808
0.000375318
0.00459199
0.236786
-0.429659
0.00161934
-0.123351
0.000957594
0.0185957
0.0277561
0.0176224
0.00891721
0.00415302
-0.00120093
-0.0122434
-0.026709
0.00562904
0.200347
0.244192
0.240904
0.167073
-0.391636
-0.369423
-0.0176558
0.366004
-0.00821909
-0.438685
0.0735683
0.0128651
-0.0509435
0.053488
0.00405786
-0.0500744
0.0495918
0.00262721
-0.0461602
0.0482288
0.00210266
-0.0440541
0.0457633
0.000542007
-0.0438684
0.0426837
-0.00272019
-0.0464515
0.0378383
-0.0109565
-0.0599463
0.0221848
-0.047724
-0.114647
-0.0549101
-0.17131
-0.210266
-0.205753
-0.174986
-0.186179
-0.193663
-0.185282
-0.200026
-0.190242
-0.189013
-0.196916
-0.188353
-0.20108
-0.199633
-0.186255
-0.247733
-0.116276
-0.111719
0.429121
0.0273927
0.241709
-0.119246
0.312746
0.0199135
0.277582
-0.122587
0.296123
0.0165827
0.286233
-0.122959
0.292784
0.0171397
0.301249
-0.119024
0.284076
0.0182587
0.369184
0.0444278
-0.0315748
-0.236011
-0.00182493
-0.17956
0.11715
-0.158234
0.141752
-0.152546
0.152052
-0.152803
0.159736
-0.157337
0.166159
-0.162194
0.175753
-0.163442
0.19289
-0.143574
0.231363
0.00742251
0.29876