/*--------------------------------*- C++ -*----------------------------------*\
| =========                 |                                                 |
| \\      /  F ield         | OpenFOAM: The Open Source CFD Toolbox           |
|  \\    /   O peration     | Version:  2306                                  |
|   \\  /    A nd           | Website:  www.openfoam.com                      |
|    \\/     M anipulation  |                                                 |
\*---------------------------------------------------------------------------*/
FoamFile
{
    version     2.0;
    format      ascii;
    arch        "LSB;label=32;scalar=64";
    class       volVectorField;
    location    "1.9";
    object      flux;
}
// * * * * * * * * * * * * * * * * * * * * * * * * * * * * * * * * * * * * * //

dimensions      [0 1 -1 1 0 0 0];

internalField   nonuniform List<vector> 
2658
(
(1.00401e-06 9.83554e-07 -8.71667e-06)
(1.46769e-06 5.69537e-07 -8.40596e-06)
(4.74214e-07 1.77218e-07 -6.17024e-06)
(-3.59543e-08 -2.04647e-08 -5.60469e-06)
(-2.04425e-06 -2.01031e-06 -6.98199e-06)
(-1.72781e-06 2.46825e-06 -7.14908e-06)
(1.78218e-06 -2.07941e-06 -6.40546e-06)
(1.75973e-06 1.7513e-06 -6.1809e-06)
(-3.19594e-08 -2.76988e-08 -5.59996e-06)
(2.45033e-06 -1.7494e-06 -7.12789e-06)
(-1.66684e-06 5.39825e-07 -7.15345e-06)
(-1.21483e-06 -4.03798e-06 -5.71362e-06)
(8.12998e-07 2.46286e-06 -7.67115e-06)
(9.66722e-07 2.50463e-06 -7.18443e-06)
(7.39122e-07 2.02891e-06 -7.41907e-06)
(-6.5247e-08 2.08324e-06 -7.62781e-06)
(-3.32325e-08 2.28247e-06 -7.34398e-06)
(-1.16042e-08 2.05099e-06 -7.61047e-06)
(-8.11917e-07 2.07678e-06 -7.41099e-06)
(-1.05194e-06 2.4735e-06 -7.08991e-06)
(-1.00088e-06 2.38438e-06 -7.5445e-06)
(-2.32664e-06 2.07958e-06 -6.79564e-06)
(-2.78077e-06 6.87976e-07 -7.76509e-06)
(2.08663e-06 -4.67087e-07 -5.91632e-06)
(-8.81005e-07 7.65551e-07 -9.27261e-06)
(-1.09971e-06 2.28045e-06 -7.53064e-06)
(-2.36714e-06 -4.96856e-07 -6.73791e-06)
(-3.38837e-07 1.36824e-07 -7.92923e-06)
(-1.73343e-06 1.8602e-06 -8.10426e-06)
(-1.86551e-06 -9.40955e-11 -6.67727e-06)
(-1.73341e-06 -1.86022e-06 -8.10419e-06)
(-2.36719e-06 4.96867e-07 -6.73791e-06)
(-1.09977e-06 -2.28057e-06 -7.53057e-06)
(-2.78093e-06 -6.8796e-07 -7.76501e-06)
(-8.80955e-07 -7.65524e-07 -9.27261e-06)
(2.08661e-06 4.67146e-07 -5.91623e-06)
(-1.12054e-06 -1.32733e-07 -7.57759e-06)
(5.27366e-07 1.95224e-07 -1.06584e-05)
(-2.32625e-06 -2.08022e-06 -6.79555e-06)
(-1.00116e-06 -2.38452e-06 -7.54469e-06)
(-1.05192e-06 -2.47368e-06 -7.09e-06)
(-8.11872e-07 -2.07687e-06 -7.41101e-06)
(-1.17603e-08 -2.05083e-06 -7.6104e-06)
(7.15295e-08 1.02472e-06 -1.09955e-05)
(-1.38656e-06 -1.51566e-07 -6.93238e-06)
(1.29582e-06 -7.1163e-08 -6.85519e-06)
(-1.66681e-06 -5.39855e-07 -7.15349e-06)
(-6.31935e-08 1.06674e-06 -1.09862e-05)
(-6.54804e-08 -2.08361e-06 -7.62792e-06)
(7.39143e-07 -2.02893e-06 -7.41912e-06)
(9.66773e-07 -2.50445e-06 -7.18435e-06)
(8.12977e-07 -2.46287e-06 -7.67122e-06)
(2.20549e-06 -2.18569e-06 -6.8678e-06)
(-4.67956e-07 4.52153e-07 -1.10472e-05)
(2.47585e-06 -8.15198e-07 -7.67796e-06)
(2.0368e-06 -7.64881e-07 -7.42963e-06)
(-1.08429e-06 5.33651e-08 -1.0987e-05)
(9.30953e-08 -1.31539e-06 -6.88701e-06)
(-3.83094e-06 -1.32814e-11 -5.96398e-06)
(2.05746e-06 -1.92452e-08 -7.61833e-06)
(-1.08423e-06 -5.33327e-08 -1.09871e-05)
(2.03685e-06 7.64848e-07 -7.42972e-06)
(2.47584e-06 8.15247e-07 -7.67803e-06)
(-4.67881e-07 -4.52214e-07 -1.10472e-05)
(5.13492e-07 5.20767e-07 -7.08599e-06)
(-4.04673e-06 -1.17788e-06 -5.72505e-06)
(5.05728e-07 -1.65348e-06 -7.13467e-06)
(-4.20136e-08 -7.52612e-08 -6.4011e-06)
(-1.29466e-06 -2.7338e-06 -7.07141e-06)
(-1.2948e-06 2.73381e-06 -7.07126e-06)
(-5.22447e-08 2.57512e-11 -5.68961e-06)
(1.28108e-06 2.29396e-06 -6.2828e-06)
(-8.81807e-08 -2.57441e-08 -4.83836e-06)
(-1.37362e-06 1.87078e-06 -5.52409e-06)
(3.20737e-08 -4.36313e-09 -4.21454e-06)
(-1.44745e-06 -1.41826e-06 -5.46421e-06)
(1.85335e-06 -1.40523e-06 -5.5086e-06)
(-1.12955e-08 4.09765e-08 -4.20885e-06)
(-1.57606e-06 1.3443e-06 -4.76617e-06)
(1.75981e-06 8.82355e-07 -4.67344e-06)
(-2.13021e-06 -9.41134e-07 -5.50863e-06)
(-4.22603e-08 -7.15217e-08 -4.83635e-06)
(2.30176e-06 1.22305e-06 -6.25092e-06)
(-2.0889e-06 1.83923e-06 -6.42593e-06)
(-5.34083e-08 -3.88734e-08 -5.27716e-06)
(-3.15232e-08 -2.16133e-08 -3.94974e-06)
(-4.09583e-09 2.02464e-09 -2.84958e-06)
(6.76597e-09 1.07323e-08 -1.96978e-06)
(9.21796e-09 1.22786e-08 -1.30629e-06)
(8.50446e-09 1.14537e-08 -8.37598e-07)
(6.35177e-09 8.87398e-09 -5.34207e-07)
(-1.31622e-08 -2.3965e-08 -4.79791e-07)
(1.18287e-08 1.24864e-08 -4.01473e-07)
(-8.23233e-08 6.35007e-08 -3.33786e-07)
(5.50586e-08 -2.73197e-08 -3.5641e-07)
(-1.02112e-08 -6.78079e-08 -3.87399e-07)
(-6.82406e-08 -1.12024e-08 -3.49685e-07)
(3.38373e-10 -6.96078e-08 -5.27252e-07)
(6.85941e-08 -1.21731e-08 -3.49916e-07)
(-5.60279e-08 -2.60173e-08 -3.5476e-07)
(3.02085e-08 -7.61935e-08 -5.30108e-07)
(7.75721e-08 -2.00957e-08 -3.59224e-07)
(6.89295e-08 -6.80787e-08 -3.90627e-07)
(5.49636e-08 -3.55029e-08 -4.31691e-07)
(5.72614e-08 -2.97579e-08 -3.65355e-07)
(-1.17586e-07 6.89592e-08 -3.99763e-07)
(-2.22669e-08 -2.46633e-08 -2.86892e-07)
(-1.59208e-08 -9.29482e-10 -4.939e-07)
(-6.12984e-09 9.35749e-09 -3.11495e-07)
(3.19879e-08 -7.17325e-08 -4.67113e-07)
(6.86699e-08 2.38181e-08 -4.32829e-07)
(2.71836e-08 -3.23546e-08 -3.54021e-07)
(5.44152e-08 -1.19535e-12 -4.85147e-07)
(2.71796e-08 3.23547e-08 -3.54008e-07)
(6.86705e-08 -2.38229e-08 -4.3283e-07)
(3.19858e-08 7.17308e-08 -4.67114e-07)
(5.72655e-08 2.97597e-08 -3.65366e-07)
(-1.17585e-07 -6.89614e-08 -3.99765e-07)
(6.89353e-08 6.80769e-08 -3.90629e-07)
(5.49704e-08 3.55024e-08 -4.31695e-07)
(7.75713e-08 2.00885e-08 -3.59217e-07)
(3.02025e-08 7.61925e-08 -5.30082e-07)
(-5.60312e-08 2.60163e-08 -3.54757e-07)
(6.85955e-08 1.21726e-08 -3.49914e-07)
(-1.09799e-07 -5.44152e-08 -3.47831e-07)
(1.09978e-07 -5.26626e-08 -3.49503e-07)
(-8.23211e-08 -6.35042e-08 -3.33774e-07)
(-1.021e-08 6.78139e-08 -3.87413e-07)
(-6.82413e-08 1.12065e-08 -3.49685e-07)
(5.50557e-08 2.73244e-08 -3.5642e-07)
(-3.08348e-08 7.4783e-08 -5.28624e-07)
(-7.57416e-08 1.88187e-08 -3.55248e-07)
(-5.14577e-08 3.56457e-08 -4.25633e-07)
(-4.67709e-08 3.27281e-08 -3.52696e-07)
(-3.0081e-08 6.6927e-08 -4.62082e-07)
(3.27696e-09 -3.05122e-08 -3.29042e-07)
(-1.42017e-08 2.42337e-09 -3.19494e-07)
(-8.46038e-08 3.6392e-09 -3.81364e-07)
(6.75111e-08 -7.05409e-08 -3.2823e-07)
(6.74757e-08 7.05574e-08 -3.28241e-07)
(-1.41969e-08 -2.42979e-09 -3.19483e-07)
(3.26054e-09 3.0515e-08 -3.29042e-07)
(3.12535e-08 -1.80103e-08 -3.62641e-07)
(-3.3061e-08 -1.8728e-08 -3.83332e-07)
(-3.80066e-08 -1.71391e-10 -4.8157e-07)
(-3.29836e-08 1.8667e-08 -3.83153e-07)
(1.78734e-08 3.34473e-11 -4.48669e-07)
(2.28447e-08 3.8651e-11 -4.35916e-07)
(-6.66153e-08 -3.73292e-08 -3.08185e-07)
(-6.93131e-08 3.67916e-08 -3.0972e-07)
(-5.78171e-08 8.3417e-11 -2.92531e-07)
(-7.32756e-08 2.95828e-09 -4.15484e-07)
(-7.17819e-08 1.98175e-08 -4.09306e-07)
(-7.42638e-08 -2.23341e-08 -2.60352e-07)
(-5.79998e-08 8.88607e-08 -3.52254e-07)
(-1.02507e-07 2.04882e-08 -3.33433e-07)
(-9.29042e-08 8.34022e-08 -3.02464e-07)
(-3.93558e-08 9.88588e-08 -3.32081e-07)
(-4.52143e-08 1.04864e-07 -3.1182e-07)
(-3.30174e-08 8.28252e-08 -3.25521e-07)
(3.83001e-10 8.33935e-08 -3.35564e-07)
(2.38773e-11 9.603e-08 -3.19212e-07)
(-6.9113e-10 8.33746e-08 -3.35778e-07)
(3.15668e-08 8.42068e-08 -3.25455e-07)
(4.48834e-08 1.07168e-07 -3.10206e-07)
(3.99509e-08 9.97986e-08 -3.30466e-07)
(9.44656e-08 8.70977e-08 -3.01835e-07)
(1.18424e-07 2.7988e-08 -3.46234e-07)
(-2.74035e-08 -5.33635e-09 -5.22161e-07)
(8.01917e-08 1.97232e-08 -4.55042e-07)
(-2.08998e-07 -1.34928e-07 -6.19902e-07)
(2.52421e-07 1.86495e-07 -7.98303e-07)
(-3.1295e-07 -2.17073e-07 -1.00712e-06)
(3.98697e-07 2.86803e-07 -1.26243e-06)
(-4.8897e-07 -3.51086e-07 -1.58599e-06)
(6.17867e-07 4.37948e-07 -1.96298e-06)
(-7.46552e-07 -5.46856e-07 -2.41819e-06)
(9.23586e-07 6.46369e-07 -2.93951e-06)
(-1.09727e-06 -8.15366e-07 -3.5392e-06)
(1.32832e-06 9.13751e-07 -4.21931e-06)
(-1.54621e-06 -1.16703e-06 -4.96111e-06)
(1.84673e-06 1.23572e-06 -5.79095e-06)
(-2.08836e-06 -1.61685e-06 -6.6649e-06)
(2.54406e-06 1.60158e-06 -7.40287e-06)
(-2.54327e-06 1.5678e-06 -7.16642e-06)
(2.70206e-06 1.31438e-06 -7.03394e-06)
(-2.79203e-06 1.24852e-06 -7.10206e-06)
(2.45026e-06 1.74948e-06 -7.1278e-06)
(-2.04436e-06 2.01025e-06 -6.98191e-06)
(-3.59629e-08 2.04435e-08 -5.6046e-06)
(-1.72771e-06 -2.46831e-06 -7.14916e-06)
(5.05638e-07 1.65349e-06 -7.13456e-06)
(-4.04665e-06 1.17779e-06 -5.72505e-06)
(5.13503e-07 -5.20782e-07 -7.086e-06)
(-1.21485e-06 4.03793e-06 -5.71364e-06)
(4.84167e-07 -4.95852e-07 -9.30962e-06)
(-5.34158e-08 3.88411e-08 -5.27715e-06)
(-3.15256e-08 2.1593e-08 -3.94973e-06)
(-4.11577e-09 -2.03281e-09 -2.84957e-06)
(6.74792e-09 -1.0752e-08 -1.96977e-06)
(9.22635e-09 -1.22959e-08 -1.30628e-06)
(8.51166e-09 -1.14512e-08 -8.37584e-07)
(6.35382e-09 -8.87306e-09 -5.34199e-07)
(-1.31634e-08 2.39654e-08 -4.79795e-07)
(1.1831e-08 -1.24809e-08 -4.01474e-07)
(6.74707e-10 6.03699e-10 -2.74497e-07)
(-2.9815e-08 -2.9118e-08 -2.97499e-07)
(-2.34152e-09 1.10603e-08 -4.79746e-07)
(4.1421e-08 -3.74242e-08 -3.05624e-07)
(4.14197e-08 3.74232e-08 -3.05624e-07)
(-2.98176e-08 2.9121e-08 -2.97502e-07)
(6.77586e-10 -6.0651e-10 -2.74495e-07)
(-2.33234e-09 -1.10637e-08 -4.79748e-07)
(1.32822e-08 -1.10876e-08 -2.83849e-07)
(1.0998e-07 5.26678e-08 -3.49497e-07)
(-1.09805e-07 5.44138e-08 -3.47832e-07)
(7.64486e-09 -6.85738e-08 -3.86635e-07)
(8.4565e-08 6.19196e-08 -3.36169e-07)
(-7.81346e-09 1.47205e-08 -4.0229e-07)
(2.47352e-09 -1.58564e-09 -2.76414e-07)
(-1.23961e-08 -1.00094e-08 -2.831e-07)
(8.08473e-11 9.50652e-09 -4.10384e-07)
(1.1086e-09 -7.877e-09 -4.7908e-07)
(1.13898e-08 -7.89119e-09 -4.78683e-07)
(7.83837e-09 -3.64777e-13 -4.88859e-07)
(1.13895e-08 7.88932e-09 -4.78679e-07)
(-7.82602e-09 -1.47344e-08 -4.02288e-07)
(-2.22631e-08 2.4662e-08 -2.86887e-07)
(-5.42745e-08 -4.7603e-08 -3.09814e-07)
(-1.59172e-08 9.33598e-10 -4.93901e-07)
(1.19831e-08 -5.25447e-08 -3.29182e-07)
(1.19841e-08 5.25506e-08 -3.29182e-07)
(-5.42767e-08 4.76053e-08 -3.09813e-07)
(-2.22616e-09 2.99388e-13 -4.22082e-07)
(3.40434e-08 -3.31147e-08 -3.01335e-07)
(-4.05272e-08 -3.63608e-08 -3.03824e-07)
(-4.05325e-08 3.63646e-08 -3.0382e-07)
(7.13723e-10 -1.05809e-08 -4.79224e-07)
(3.40488e-08 3.31171e-08 -3.01333e-07)
(-7.06779e-10 -4.95376e-09 -3.92327e-07)
(-7.23151e-09 -3.33455e-13 -3.68668e-07)
(-9.52183e-09 -2.58622e-08 -3.61696e-07)
(-8.82269e-09 -1.16155e-08 -3.35429e-07)
(3.95396e-08 3.39027e-08 -3.80927e-07)
(-8.97799e-09 -8.81107e-09 -3.63549e-07)
(-2.83432e-09 3.06851e-12 -3.78636e-07)
(-6.56167e-08 2.18729e-12 -5.26863e-07)
(7.26753e-09 -9.51833e-13 -4.41625e-07)
(-2.77098e-08 -5.23358e-08 -3.23887e-07)
(4.34517e-08 3.65546e-08 -4.54423e-07)
(4.47139e-08 1.00014e-07 -3.32748e-07)
(9.83757e-08 -2.46293e-08 -2.87594e-07)
(6.97566e-08 7.94129e-08 -3.51605e-07)
(-1.88513e-07 -1.08846e-07 -3.81638e-07)
(1.30004e-07 1.36301e-07 -5.76131e-07)
(-2.23749e-07 -1.54488e-07 -6.5492e-07)
(-2.23737e-07 1.5448e-07 -6.54918e-07)
(-5.49306e-09 2.08325e-08 -4.7695e-07)
(-2.39611e-07 1.90453e-07 -8.41446e-07)
(5.28133e-09 1.3466e-08 -5.93154e-07)
(2.82303e-07 -2.49633e-07 -1.05311e-06)
(-3.65006e-07 3.0502e-07 -1.33095e-06)
(4.14925e-09 7.86056e-09 -9.34612e-07)
(4.46832e-07 -3.87887e-07 -1.65327e-06)
(-5.62737e-07 4.78642e-07 -2.05987e-06)
(6.02907e-10 9.62978e-10 -1.43767e-06)
(6.8346e-07 -5.87319e-07 -2.52126e-06)
(-8.40123e-07 7.21766e-07 -3.07358e-06)
(-6.6289e-09 -1.17081e-08 -2.12778e-06)
(1.00371e-06 -8.54729e-07 -3.6936e-06)
(-1.19999e-06 1.04267e-06 -4.39686e-06)
(-2.05593e-08 -4.17711e-08 -3.01885e-06)
(1.42133e-06 -1.19012e-06 -5.18449e-06)
(-1.62898e-06 1.44629e-06 -6.02434e-06)
(-3.99884e-08 -1.19292e-07 -4.10104e-06)
(1.9929e-06 -1.58381e-06 -6.92965e-06)
(-2.0538e-06 1.926e-06 -8.01842e-06)
(-1.13138e-07 -3.36718e-07 -5.52298e-06)
(3.15862e-06 -2.14094e-06 -8.50261e-06)
(5.15019e-07 -9.98304e-07 -5.87031e-06)
(3.69921e-06 -2.233e-06 -7.51764e-06)
(3.6992e-06 2.23303e-06 -7.51761e-06)
(-3.38777e-07 -1.36751e-07 -7.92911e-06)
(8.23213e-07 -6.1863e-07 -7.96357e-06)
(-2.97685e-07 1.16404e-06 -7.14805e-06)
(1.18113e-06 1.03816e-06 -6.62835e-06)
(6.07231e-08 -1.07392e-11 -9.53188e-06)
(-7.49032e-07 -7.35144e-07 -6.34054e-06)
(-7.49033e-07 7.3515e-07 -6.34059e-06)
(8.15676e-07 7.68415e-07 -6.3907e-06)
(-4.06144e-08 -6.46712e-12 -9.54557e-06)
(-9.61792e-07 -9.25676e-07 -6.47376e-06)
(-9.61778e-07 9.25675e-07 -6.47378e-06)
(2.57195e-07 3.75023e-07 -6.14613e-06)
(-3.09214e-07 -4.66015e-12 -9.41187e-06)
(-1.36153e-06 -2.41842e-06 -7.82312e-06)
(-1.36154e-06 2.4184e-06 -7.8231e-06)
(4.59736e-07 -1.51667e-06 -9.00365e-06)
(1.93253e-06 1.52772e-11 -1.27457e-05)
(4.59749e-07 1.51663e-06 -9.00368e-06)
(7.35941e-07 -1.18378e-06 -9.1484e-06)
(2.11162e-06 7.51473e-07 -1.25988e-05)
(8.9043e-07 1.73173e-06 -9.11654e-06)
(1.21198e-06 1.20838e-06 -1.0596e-05)
(1.56775e-06 1.56402e-06 -9.20327e-06)
(-2.35408e-06 -2.33452e-06 -8.99359e-06)
(-1.36943e-06 1.65218e-06 -7.4446e-06)
(1.34158e-06 2.17514e-07 -8.68887e-06)
(8.81307e-07 1.39758e-07 -1.01052e-05)
(-3.10585e-09 2.09756e-08 -9.42685e-06)
(2.57205e-07 -3.75034e-07 -6.14612e-06)
(-1.54833e-07 -1.36682e-07 -5.8681e-06)
(-3.99017e-07 -3.8988e-07 -9.28687e-06)
(1.64301e-06 -1.33693e-06 -7.47592e-06)
(-1.20286e-06 7.32311e-07 -9.15163e-06)
(7.45526e-07 2.08352e-06 -1.25991e-05)
(1.73192e-06 8.88116e-07 -9.12237e-06)
(9.90022e-07 9.91869e-07 -1.01217e-05)
(-5.25635e-07 -5.12342e-07 -9.22092e-06)
(-7.06659e-07 1.18397e-11 -9.31872e-06)
(-5.25609e-07 5.12371e-07 -9.22087e-06)
(-3.99037e-07 3.89881e-07 -9.28687e-06)
(-1.3694e-06 -1.6522e-06 -7.44458e-06)
(-2.35405e-06 2.33447e-06 -8.99362e-06)
(8.90445e-07 -1.73189e-06 -9.11629e-06)
(2.11168e-06 -7.5158e-07 -1.25989e-05)
(7.35993e-07 1.18374e-06 -9.14831e-06)
(1.34158e-06 -2.17556e-07 -8.68898e-06)
(8.81322e-07 -1.39768e-07 -1.01052e-05)
(9.9015e-07 -9.91769e-07 -1.01217e-05)
(1.73179e-06 -8.88182e-07 -9.12275e-06)
(7.45406e-07 -2.08348e-06 -1.2599e-05)
(-1.20287e-06 -7.32347e-07 -9.15174e-06)
(1.64296e-06 1.33692e-06 -7.4759e-06)
(2.02892e-07 -1.35051e-06 -8.6807e-06)
(1.49364e-06 -5.03626e-07 -9.06331e-06)
(-3.77926e-08 -1.92833e-06 -1.27552e-05)
(-1.559e-06 -4.44613e-07 -9.01585e-06)
(2.40626e-06 1.25962e-06 -7.84782e-06)
(-3.80795e-08 3.01568e-07 -9.42538e-06)
(-4.28576e-07 -2.90452e-07 -6.14324e-06)
(-2.47735e-06 1.36899e-06 -7.8312e-06)
(-4.46214e-08 -2.76028e-07 -8.91807e-06)
(-2.90025e-07 -3.35461e-07 -9.01941e-06)
(1.75545e-08 1.54757e-09 -5.596e-06)
(1.44387e-08 -1.80803e-08 -4.20341e-06)
(7.05359e-09 -3.13433e-08 -3.03877e-06)
(4.03568e-09 -3.14096e-08 -2.10329e-06)
(2.36232e-09 -2.6542e-08 -1.39625e-06)
(9.11193e-10 -2.08841e-08 -8.95762e-07)
(-6.26033e-11 -1.53474e-08 -5.71356e-07)
(-5.17094e-09 -1.68217e-08 -5.61605e-07)
(2.11649e-07 -1.26852e-07 -6.04325e-07)
(-2.29053e-07 -1.07939e-07 -5.96986e-07)
(2.30571e-07 -9.71373e-08 -5.98718e-07)
(-2.08249e-07 -1.48667e-07 -6.02291e-07)
(2.44062e-07 2.1121e-07 -7.59442e-07)
(-3.23132e-07 -2.45478e-07 -9.62318e-07)
(3.93959e-07 3.28359e-07 -1.19939e-06)
(-5.05674e-07 -3.97825e-07 -1.51615e-06)
(6.16407e-07 5.01885e-07 -1.8668e-06)
(-7.6867e-07 -6.21861e-07 -2.31404e-06)
(9.27957e-07 7.39943e-07 -2.79789e-06)
(-1.12438e-06 -9.33239e-07 -3.39215e-06)
(1.34068e-06 1.04387e-06 -4.01766e-06)
(-1.57595e-06 -1.34431e-06 -4.76619e-06)
(1.85325e-06 1.40532e-06 -5.50849e-06)
(-2.08884e-06 -1.83927e-06 -6.42599e-06)
(-3.19367e-08 2.76337e-08 -5.59987e-06)
(1.75975e-06 -1.75124e-06 -6.18092e-06)
(1.78195e-06 2.07955e-06 -6.40538e-06)
(1.28132e-06 -2.29401e-06 -6.28295e-06)
(-9.96786e-07 2.08928e-06 -5.5002e-06)
(3.20872e-08 -8.44228e-12 -4.30123e-06)
(-9.96591e-07 -2.08926e-06 -5.50025e-06)
(9.37333e-07 1.74579e-06 -4.69156e-06)
(1.29553e-06 -1.56989e-06 -4.75625e-06)
(1.28484e-06 1.2739e-06 -4.61857e-06)
(-1.04511e-06 -1.0236e-06 -3.94463e-06)
(-1.01546e-06 1.35318e-06 -4.02688e-06)
(4.00429e-08 1.09068e-08 -3.02939e-06)
(8.98379e-07 8.88363e-07 -3.30116e-06)
(7.43477e-09 4.67664e-08 -3.02458e-06)
(1.34082e-06 -1.04377e-06 -4.01776e-06)
(-2.23844e-08 -5.34871e-08 -3.57692e-06)
(-1.53763e-06 -6.91469e-07 -4.00523e-06)
(1.49769e-06 -7.90769e-07 -3.98942e-06)
(-3.5543e-09 4.71898e-08 -3.08811e-06)
(-1.25698e-06 7.00696e-07 -3.35805e-06)
(1.16176e-06 7.65582e-07 -3.35541e-06)
(-1.40651e-06 -8.84179e-07 -4.01056e-06)
(-2.9722e-09 -5.89482e-08 -3.5794e-06)
(-1.76002e-06 1.00613e-06 -4.70805e-06)
(-7.01442e-09 3.48182e-08 -4.28685e-06)
(2.06584e-06 -1.0561e-06 -5.46685e-06)
(-2.31721e-06 1.35972e-06 -6.31929e-06)
(-1.26035e-08 -4.92173e-08 -5.67547e-06)
(-2.79204e-06 -1.24851e-06 -7.10204e-06)
(-9.06527e-08 -2.06561e-08 -6.40724e-06)
(1.29581e-06 7.11695e-08 -6.85523e-06)
(-6.31979e-08 -1.06676e-06 -1.09862e-05)
(2.02934e-07 1.35047e-06 -8.68072e-06)
(-2.47738e-06 -1.36903e-06 -7.83114e-06)
(-4.28556e-07 2.90426e-07 -6.14321e-06)
(7.56405e-08 9.75564e-08 -9.03838e-06)
(-3.40794e-08 -1.46447e-08 -6.77107e-06)
(-2.71844e-08 -1.11377e-11 -5.88765e-06)
(-2.32045e-08 1.67415e-08 -5.52337e-06)
(-1.41771e-08 -4.95951e-09 -4.15958e-06)
(-7.11292e-09 -2.0443e-08 -3.00668e-06)
(-3.26206e-09 -2.32268e-08 -2.08046e-06)
(-1.39293e-09 -2.0639e-08 -1.38047e-06)
(-5.55952e-10 -1.66864e-08 -8.85401e-07)
(-1.09444e-10 -1.22034e-08 -5.64778e-07)
(1.11041e-09 7.87645e-09 -4.7908e-07)
(8.29346e-11 -9.50672e-09 -4.1038e-07)
(-1.2389e-08 1.00077e-08 -2.831e-07)
(7.1035e-10 1.05743e-08 -4.7922e-07)
(2.47224e-09 1.58833e-09 -2.76408e-07)
(8.45637e-08 -6.19236e-08 -3.3617e-07)
(7.63945e-09 6.85754e-08 -3.86636e-07)
(-3.34873e-09 -4.45903e-08 -5.54737e-07)
(-1.05876e-07 3.6804e-08 -4.33822e-07)
(9.42423e-08 2.18207e-08 -4.31774e-07)
(-9.47217e-08 1.83165e-08 -4.29617e-07)
(1.01943e-07 4.50218e-08 -4.37529e-07)
(-4.33481e-08 3.22563e-08 -4.08205e-07)
(1.87987e-07 -9.24573e-09 -3.11137e-07)
(-5.48862e-08 -1.15486e-07 -4.61792e-07)
(1.41296e-07 2.03945e-07 -6.03295e-07)
(1.27542e-08 -7.70427e-10 -5.59381e-07)
(-2.00738e-07 -2.47783e-07 -7.73889e-07)
(-2.01496e-07 1.99465e-07 -7.27952e-07)
(1.7174e-07 -1.56571e-07 -5.86446e-07)
(6.68809e-09 -1.65185e-08 -5.5256e-07)
(-6.0091e-10 -1.39274e-09 -5.94678e-07)
(-1.91689e-08 5.18565e-08 -4.46511e-07)
(4.61958e-10 5.25325e-08 -4.48474e-07)
(2.16995e-08 5.21735e-08 -4.46145e-07)
(4.38751e-08 3.29686e-08 -4.3237e-07)
(5.71399e-08 3.76979e-08 -4.24543e-07)
(-4.60685e-09 -7.78841e-10 -6.02964e-07)
(5.49673e-09 1.32621e-08 -6.04625e-07)
(2.4844e-08 1.90765e-08 -4.84232e-07)
(2.89461e-10 -1.14579e-09 -5.96611e-07)
(-9.13148e-09 -2.71924e-08 -9.40166e-07)
(-9.08594e-09 -4.19282e-09 -9.5628e-07)
(-1.49229e-08 -1.00775e-08 -9.43171e-07)
(-2.52383e-08 -1.9366e-08 -1.46908e-06)
(-2.27737e-08 -2.01477e-08 -1.50282e-06)
(9.24083e-09 9.26369e-09 -1.20675e-06)
(1.02121e-08 1.09485e-08 -7.59411e-07)
(4.7713e-09 1.37509e-08 -7.37711e-07)
(-2.55101e-07 1.82886e-07 -7.52131e-07)
(2.74864e-07 1.60902e-07 -7.55675e-07)
(-3.58911e-07 -1.8058e-07 -9.53698e-07)
(3.61125e-07 -1.57558e-07 -9.5354e-07)
(-2.64177e-09 1.42603e-08 -6.97547e-07)
(-2.79428e-07 1.45496e-07 -7.5218e-07)
(-2.43958e-10 -1.85421e-08 -5.66291e-07)
(5.82978e-11 1.95979e-09 -5.97637e-07)
(2.85012e-10 -2.54107e-08 -9.40398e-07)
(6.34464e-10 -5.44728e-08 -1.48245e-06)
(-1.56414e-08 -5.5003e-08 -1.48063e-06)
(-2.37544e-08 -9.19415e-08 -2.24665e-06)
(-4.21668e-08 -4.10306e-08 -2.27854e-06)
(-3.96693e-08 -3.18147e-08 -2.21441e-06)
(-5.93545e-08 -4.86934e-08 -3.20474e-06)
(-7.24704e-08 -7.50732e-08 -3.31273e-06)
(1.70244e-09 3.94149e-10 -2.76332e-06)
(7.42571e-09 6.52946e-09 -1.86313e-06)
(8.31368e-09 1.55142e-08 -1.81309e-06)
(-6.47666e-07 4.21729e-07 -1.85802e-06)
(6.92175e-07 3.83481e-07 -1.85534e-06)
(-8.58442e-07 -4.66224e-07 -2.29323e-06)
(8.63119e-07 -4.03261e-07 -2.28548e-06)
(-8.08e-09 3.08533e-08 -1.70123e-06)
(-7.06894e-07 3.3483e-07 -1.85481e-06)
(5.67027e-07 -2.56543e-07 -1.49987e-06)
(-5.04873e-09 2.19443e-08 -1.10407e-06)
(-4.51992e-07 2.21863e-07 -1.19009e-06)
(-5.43147e-10 -2.39401e-08 -8.95282e-07)
(4.4341e-07 2.5156e-07 -1.19262e-06)
(-5.63633e-07 -2.96527e-07 -1.50305e-06)
(1.61495e-09 2.31692e-08 -1.10666e-06)
(-4.13607e-07 2.77981e-07 -1.19174e-06)
(3.33494e-07 -2.05842e-07 -9.60505e-07)
(1.53659e-09 1.52356e-08 -6.99106e-07)
(4.47095e-10 2.72338e-09 -7.79576e-07)
(-8.52048e-09 -8.34239e-09 -7.46989e-07)
(-2.39582e-07 -1.90424e-07 -8.41445e-07)
(7.80247e-09 2.24517e-09 -4.66866e-07)
(1.75387e-07 1.61937e-07 -6.84173e-07)
(7.4326e-09 -2.15776e-08 -3.9451e-07)
(-1.92e-07 -1.28254e-07 -5.25816e-07)
(-9.74393e-08 -2.68905e-08 -3.02473e-07)
(3.7206e-08 -1.1642e-08 -3.9667e-07)
(-1.02106e-08 -3.09773e-09 -4.73052e-07)
(-2.80719e-10 4.61015e-09 -4.88466e-07)
(-1.45865e-09 1.35667e-08 -4.61716e-07)
(3.29916e-09 2.24259e-08 -4.76443e-07)
(-4.29489e-09 2.16291e-08 -4.76103e-07)
(3.4084e-09 -4.57644e-08 -5.5277e-07)
(-2.36264e-08 1.97416e-08 -4.96173e-07)
(-3.51167e-08 3.28405e-08 -4.31069e-07)
(-2.13343e-08 2.01465e-08 -4.34558e-07)
(1.23979e-08 8.13631e-10 -6.06215e-07)
(-1.11211e-08 8.68103e-09 -5.92683e-07)
(-1.26419e-08 1.21201e-08 -7.70397e-07)
(-6.25327e-09 1.29591e-08 -7.36544e-07)
(1.01395e-08 -2.73837e-08 -9.35712e-07)
(1.86449e-08 -5.57946e-08 -1.47442e-06)
(2.9414e-08 -9.42017e-08 -2.24036e-06)
(9.12732e-10 -9.35779e-08 -2.25231e-06)
(9.41349e-10 -1.53591e-07 -3.27616e-06)
(-3.51239e-08 -1.46895e-07 -3.26423e-06)
(-5.56002e-08 -2.41665e-07 -4.54439e-06)
(-1.26837e-07 -1.44997e-07 -4.62198e-06)
(-8.63896e-08 -7.31734e-08 -4.44627e-06)
(-1.59608e-07 -1.44291e-07 -5.89791e-06)
(-2.84113e-07 -3.38981e-07 -6.23237e-06)
(-5.54407e-08 -4.79547e-08 -5.3492e-06)
(-1.32457e-08 -1.41714e-08 -3.92881e-06)
(8.04586e-09 7.55599e-09 -3.8444e-06)
(-1.40648e-06 8.8419e-07 -4.01046e-06)
(1.49761e-06 7.90864e-07 -3.98933e-06)
(-1.76007e-06 -1.00608e-06 -4.70805e-06)
(1.75984e-06 -8.82213e-07 -4.67339e-06)
(-2.24451e-08 5.34946e-08 -3.57695e-06)
(-1.53754e-06 6.915e-07 -4.00519e-06)
(1.26159e-06 -6.08292e-07 -3.3418e-06)
(-1.29753e-08 4.10807e-08 -2.52047e-06)
(-1.0636e-06 4.90379e-07 -2.78344e-06)
(-1.80326e-09 -4.08043e-08 -2.12809e-06)
(1.03919e-06 5.63137e-07 -2.77942e-06)
(-1.25699e-06 -7.00651e-07 -3.35804e-06)
(-1.50889e-10 4.44402e-08 -2.52382e-06)
(-9.74704e-07 6.22011e-07 -2.78788e-06)
(7.96054e-07 -5.11961e-07 -2.29658e-06)
(1.16509e-09 3.28438e-08 -1.70453e-06)
(5.62663e-10 5.70711e-09 -1.88714e-06)
(7.56559e-10 4.1038e-09 -1.22927e-06)
(-1.10639e-08 -1.23828e-08 -1.17473e-06)
(-3.64993e-07 -3.04984e-07 -1.33093e-06)
(4.25929e-09 1.45604e-09 -7.41125e-07)
(2.82308e-07 2.49634e-07 -1.05309e-06)
(5.2951e-09 -1.34685e-08 -5.93152e-07)
(2.04333e-08 -4.88704e-09 -6.03833e-07)
(-3.28945e-07 -2.48992e-07 -1.02759e-06)
(3.85822e-07 3.2864e-07 -1.29198e-06)
(-5.08004e-07 -3.94706e-07 -1.60818e-06)
(-5.07999e-07 3.94719e-07 -1.60816e-06)
(-1.26101e-09 9.14492e-09 -1.15728e-06)
(6.06955e-07 -5.06196e-07 -1.99333e-06)
(7.4165e-09 6.57755e-09 -1.46198e-06)
(-7.69458e-07 6.05238e-07 -2.44566e-06)
(-1.18535e-09 4.25136e-09 -1.74432e-06)
(9.12206e-07 -7.52139e-07 -2.97214e-06)
(-5.16553e-10 8.50776e-09 -2.16137e-06)
(-1.11775e-06 8.89465e-07 -3.57466e-06)
(-2.28538e-10 -8.48147e-09 -2.52513e-06)
(1.3136e-06 -1.06913e-06 -4.24991e-06)
(-2.39954e-08 7.98721e-09 -3.06006e-06)
(-1.53423e-06 1.25055e-06 -5.00924e-06)
(8.94212e-09 -4.85802e-08 -3.50375e-06)
(1.82687e-06 -1.44574e-06 -5.80755e-06)
(-1.0658e-07 -5.23979e-09 -4.14182e-06)
(-1.94031e-06 1.68227e-06 -6.74556e-06)
(5.99498e-08 -1.93048e-07 -4.65401e-06)
(2.52792e-06 -1.80949e-06 -7.45711e-06)
(-4.27994e-07 -1.50116e-07 -5.4057e-06)
(-2.00996e-06 2.06756e-06 -8.86867e-06)
(-2.70461e-07 -3.9183e-11 -7.16606e-06)
(-2.00991e-06 -2.06757e-06 -8.86867e-06)
(5.15011e-07 9.98143e-07 -5.87032e-06)
(3.15865e-06 2.14106e-06 -8.50247e-06)
(-1.13108e-07 3.36577e-07 -5.52294e-06)
(-2.05369e-06 -1.92592e-06 -8.01843e-06)
(-8.48789e-08 -2.12275e-08 -4.64834e-06)
(1.99281e-06 1.58376e-06 -6.92955e-06)
(-3.99729e-08 1.19208e-07 -4.101e-06)
(-1.62896e-06 -1.44621e-06 -6.02431e-06)
(-4.31023e-08 -6.24712e-09 -3.52237e-06)
(1.4214e-06 1.19027e-06 -5.18444e-06)
(-2.05225e-08 4.16866e-08 -3.01886e-06)
(-1.1998e-06 -1.04255e-06 -4.39689e-06)
(-1.93126e-08 -2.86044e-09 -2.53993e-06)
(1.00376e-06 8.54835e-07 -3.69357e-06)
(-6.59212e-09 1.16058e-08 -2.12774e-06)
(-8.40085e-07 -7.21734e-07 -3.0736e-06)
(-7.40013e-09 -8.09945e-10 -1.75287e-06)
(6.83459e-07 5.87358e-07 -2.52119e-06)
(6.39981e-10 -1.00677e-09 -1.43765e-06)
(-5.62716e-07 -4.78608e-07 -2.05988e-06)
(-5.25445e-10 5.45416e-10 -1.16e-06)
(4.46836e-07 3.87913e-07 -1.65323e-06)
(4.18031e-09 -7.85267e-09 -9.346e-07)
(1.28084e-08 -5.07242e-09 -9.51019e-07)
(-2.00972e-08 -1.97254e-08 -1.21028e-06)
(-1.75671e-08 -1.29505e-08 -7.80005e-07)
(-1.39792e-08 -4.88662e-09 -5.177e-07)
(5.5399e-08 2.68848e-08 -4.0656e-07)
(4.14498e-09 -1.36989e-11 -3.86234e-07)
(-2.75901e-08 -8.76617e-13 -4.41645e-07)
(-4.12225e-08 -2.95983e-11 -6.25064e-07)
(-5.26274e-08 2.85628e-12 -9.52235e-07)
(-6.86631e-08 2.66486e-11 -1.46495e-06)
(-8.94561e-08 4.95853e-11 -2.19609e-06)
(-1.05324e-07 1.01185e-10 -3.16685e-06)
(-8.56452e-08 3.54634e-10 -4.37595e-06)
(2.0455e-08 1.15278e-10 -5.7743e-06)
(1.62871e-07 -3.47955e-11 -7.057e-06)
(-1.64157e-07 -1.16373e-10 -8.05827e-06)
(-1.32377e-06 6.2596e-07 -7.94764e-06)
(-1.32377e-06 -6.26051e-07 -7.94763e-06)
(-1.36527e-06 -8.72062e-07 -7.39211e-06)
(-1.12905e-06 -8.4127e-07 -8.60842e-06)
(-4.00083e-07 -2.40863e-07 -6.90982e-06)
(-1.49645e-07 -4.55236e-07 -6.10807e-06)
(-6.13458e-07 -1.4142e-06 -8.35233e-06)
(9.92634e-07 4.14842e-06 -5.8336e-06)
(1.59994e-06 -3.66063e-07 -6.98522e-06)
(3.03409e-08 3.57798e-08 -6.41052e-06)
(8.13689e-09 -1.35673e-08 -6.57565e-06)
(9.32823e-08 -2.88687e-08 -6.38604e-06)
(-4.27937e-07 1.50124e-07 -5.40568e-06)
(2.52777e-06 1.80959e-06 -7.457e-06)
(6.00103e-08 1.92939e-07 -4.65395e-06)
(-1.94031e-06 -1.6822e-06 -6.74556e-06)
(-1.80542e-07 -1.38991e-11 -5.46204e-06)
(-6.27947e-08 -1.39983e-11 -5.62226e-06)
(-6.11307e-08 -1.60475e-11 -4.2178e-06)
(9.03647e-09 4.85589e-08 -3.50368e-06)
(-1.53422e-06 -1.25054e-06 -5.00927e-06)
(1.82682e-06 1.44577e-06 -5.80741e-06)
(-1.06579e-07 5.23493e-09 -4.14188e-06)
(-3.13746e-09 -2.2364e-08 -5.07826e-06)
(-1.81618e-08 -2.39694e-08 -3.75609e-06)
(-2.4037e-08 -8.01426e-09 -3.06005e-06)
(1.31343e-06 1.06915e-06 -4.24981e-06)
(-1.76121e-10 8.4552e-09 -2.5251e-06)
(-1.11767e-06 -8.8948e-07 -3.57473e-06)
(-3.21961e-08 1.41176e-11 -2.94764e-06)
(-5.23243e-08 -1.68375e-12 -3.04742e-06)
(-4.14126e-08 -6.19365e-12 -2.11029e-06)
(-3.00508e-08 -8.70929e-12 -1.40308e-06)
(-1.2303e-09 -9.18653e-09 -1.15726e-06)
(6.06946e-07 5.06209e-07 -1.99326e-06)
(-7.69458e-07 -6.05232e-07 -2.44572e-06)
(9.12173e-07 7.52188e-07 -2.97206e-06)
(-5.13218e-10 -8.48544e-09 -2.16132e-06)
(-1.83377e-08 -2.14006e-08 -2.65734e-06)
(-1.48042e-08 -1.69844e-08 -1.80133e-06)
(1.81456e-09 -8.22104e-12 -1.47582e-06)
(1.15476e-09 -4.75488e-12 -9.47914e-07)
(1.32664e-10 1.19356e-12 -6.08265e-07)
(-1.08832e-08 -9.61162e-13 -5.81719e-07)
(-5.4905e-09 -2.08406e-08 -4.76953e-07)
(2.34687e-07 2.10549e-07 -8.30942e-07)
(1.38282e-08 -2.28646e-12 -5.65869e-07)
(2.34705e-07 -2.10555e-07 -8.30943e-07)
(2.0417e-08 4.89338e-09 -6.03831e-07)
(-3.28928e-07 2.49003e-07 -1.02758e-06)
(-2.15533e-09 1.29632e-08 -7.44007e-07)
(3.85863e-07 -3.28649e-07 -1.29203e-06)
(1.28248e-08 5.06759e-09 -9.51026e-07)
(-1.10648e-08 1.23742e-08 -1.17473e-06)
(-1.95096e-08 2.80563e-12 -9.03465e-07)
(-2.14877e-09 -1.29907e-08 -7.43987e-07)
(4.64557e-09 6.73328e-12 -8.72465e-07)
(-8.51718e-09 8.33931e-09 -7.46988e-07)
(-1.02079e-08 3.0972e-09 -4.73054e-07)
(-1.92008e-07 1.28259e-07 -5.25815e-07)
(7.43329e-09 2.15634e-08 -3.94515e-07)
(1.75384e-07 -1.61935e-07 -6.84189e-07)
(3.72006e-08 1.1644e-08 -3.9668e-07)
(1.29998e-07 -1.36299e-07 -5.76133e-07)
(-2.77093e-08 5.23414e-08 -3.23882e-07)
(-1.88519e-07 1.08847e-07 -3.81636e-07)
(1.63818e-08 4.57678e-12 -4.11532e-07)
(6.97579e-08 -7.94092e-08 -3.51611e-07)
(9.83768e-08 2.4636e-08 -2.87594e-07)
(4.47079e-08 -1.00021e-07 -3.32745e-07)
(1.18429e-07 -2.79896e-08 -3.46232e-07)
(4.34541e-08 -3.6552e-08 -4.54432e-07)
(1.56482e-08 -3.9096e-09 -3.57522e-07)
(-3.69358e-08 -2.24215e-08 -3.37123e-07)
(2.08606e-08 -1.17901e-08 -3.9645e-07)
(-8.97943e-09 8.81e-09 -3.63545e-07)
(-9.51804e-09 2.58597e-08 -3.61687e-07)
(3.95384e-08 -3.39078e-08 -3.8093e-07)
(-8.82765e-09 1.1619e-08 -3.35396e-07)
(6.01302e-09 -3.51435e-08 -3.90655e-07)
(2.52976e-10 2.58891e-08 -3.65674e-07)
(3.08202e-10 -1.02533e-12 -3.75417e-07)
(2.50704e-10 -2.58895e-08 -3.6567e-07)
(5.50023e-11 -1.29177e-08 -3.35776e-07)
(3.36823e-10 6.96054e-08 -5.27242e-07)
(6.0148e-09 3.5144e-08 -3.90663e-07)
(-7.03266e-10 4.95746e-09 -3.92332e-07)
(2.08611e-08 1.17936e-08 -3.96452e-07)
(-6.13507e-09 -9.3564e-09 -3.11495e-07)
(-3.69383e-08 2.24235e-08 -3.37121e-07)
(1.56493e-08 3.90841e-09 -3.57521e-07)
(1.62414e-10 5.08739e-09 -3.92691e-07)
(1.17223e-08 -2.47961e-08 -3.59857e-07)
(1.00067e-08 -1.07145e-08 -3.34344e-07)
(-6.42247e-09 3.50711e-08 -3.91547e-07)
(-3.88634e-08 3.27503e-08 -3.80554e-07)
(1.16952e-08 -7.45135e-09 -3.62542e-07)
(-2.07605e-08 8.58548e-09 -3.87405e-07)
(3.88122e-08 4.81514e-08 -2.95725e-07)
(1.18335e-07 -6.7973e-08 -3.96512e-07)
(-6.96762e-08 6.5519e-08 -3.95495e-07)
(2.3204e-08 -8.29014e-09 -5.31973e-07)
(1.06049e-08 2.80349e-13 -3.66678e-07)
(6.00857e-09 4.08521e-12 -4.18802e-07)
(5.64641e-09 2.62025e-12 -4.79649e-07)
(6.21142e-10 -7.41773e-13 -4.84689e-07)
(-2.13764e-10 5.58137e-13 -4.2675e-07)
(-2.15817e-10 -2.11691e-12 -6.07353e-07)
(-7.46407e-10 -6.18049e-13 -9.46649e-07)
(-1.62312e-09 3.42357e-12 -1.47455e-06)
(-3.62641e-09 -4.13662e-12 -2.22053e-06)
(2.22176e-09 -3.39476e-12 -2.22194e-06)
(3.13427e-09 1.47466e-11 -3.20903e-06)
(7.40504e-09 1.25183e-11 -4.43703e-06)
(2.0045e-08 -8.09767e-12 -5.89875e-06)
(-1.46399e-07 -1.36749e-11 -8.70283e-06)
(-3.96334e-07 9.92543e-13 -8.0142e-06)
(1.59991e-06 -5.21122e-11 -1.2024e-05)
(-2.97679e-07 -1.1641e-06 -7.14802e-06)