/*--------------------------------*- C++ -*----------------------------------*\
| =========                 |                                                 |
| \\      /  F ield         | OpenFOAM: The Open Source CFD Toolbox           |
|  \\    /   O peration     | Version:  2306                                  |
|   \\  /    A nd           | Website:  www.openfoam.com                      |
|    \\/     M anipulation  |                                                 |
\*---------------------------------------------------------------------------*/
FoamFile
{
    version     2.0;
    format      ascii;
    arch        "LSB;label=32;scalar=64";
    class       volScalarField;
    location    "1.9";
    object      gradTz;
}
// * * * * * * * * * * * * * * * * * * * * * * * * * * * * * * * * * * * * * //

dimensions      [0 -1 0 1 0 0 0];

internalField   nonuniform List<scalar> 
2658
(
-0.0745014
-0.0718458
-0.0527371
-0.0479033
-0.0596751
-0.0611032
-0.0547475
-0.0528282
-0.0478629
-0.0609221
-0.0611406
-0.0488344
-0.0655654
-0.0614053
-0.0634109
-0.065195
-0.062769
-0.0650468
-0.0633418
-0.0605975
-0.0644829
-0.0580824
-0.0663683
-0.0505668
-0.0792531
-0.0643644
-0.0575889
-0.0677712
-0.0692672
-0.0570707
-0.0692666
-0.057589
-0.0643638
-0.0663676
-0.0792531
-0.0505661
-0.0647658
-0.0910972
-0.0580817
-0.0644845
-0.0605983
-0.0633419
-0.0650462
-0.0939783
-0.0592511
-0.0585914
-0.0611409
-0.0938993
-0.0651959
-0.0634113
-0.0614047
-0.065566
-0.0586992
-0.0944205
-0.0656236
-0.0635011
-0.0939058
-0.0588633
-0.0509742
-0.0651139
-0.0939068
-0.0635019
-0.0656242
-0.0944207
-0.060564
-0.0489321
-0.0609801
-0.0547103
-0.0604394
-0.0604381
-0.0486291
-0.0536992
-0.0413535
-0.0472144
-0.0360217
-0.0467026
-0.047082
-0.035973
-0.0407365
-0.0399439
-0.0470823
-0.0413363
-0.0534267
-0.0549225
-0.045104
-0.0337585
-0.0243554
-0.0168357
-0.0111649
-0.00715896
-0.00456587
-0.00410078
-0.00343139
-0.00285287
-0.00304624
-0.0033111
-0.00298876
-0.00450643
-0.00299073
-0.00303214
-0.00453084
-0.00307029
-0.00333869
-0.00368966
-0.0031227
-0.00341678
-0.00245207
-0.00422137
-0.00266235
-0.00399242
-0.00369939
-0.00302582
-0.00414656
-0.00302571
-0.0036994
-0.00399243
-0.00312278
-0.00341679
-0.00333871
-0.0036897
-0.00307023
-0.00453062
-0.00303212
-0.00299072
-0.00297292
-0.00298721
-0.00285277
-0.00331122
-0.00298876
-0.00304632
-0.00451816
-0.00303631
-0.00363789
-0.0030145
-0.00394942
-0.00281233
-0.00273072
-0.00325952
-0.00280539
-0.00280548
-0.00273062
-0.00281233
-0.0030995
-0.00327634
-0.00411598
-0.00327481
-0.00383477
-0.00372578
-0.00263406
-0.00264718
-0.00250026
-0.00355115
-0.00349834
-0.00222523
-0.00301072
-0.00284985
-0.00258516
-0.0028383
-0.00266513
-0.00278223
-0.00286807
-0.00272831
-0.0028699
-0.00278167
-0.00265134
-0.00282449
-0.00257979
-0.00295926
-0.00446292
-0.00388925
-0.00529831
-0.0068231
-0.00860783
-0.01079
-0.0135555
-0.0167776
-0.0206683
-0.025124
-0.0302496
-0.0360624
-0.0424026
-0.0494953
-0.056965
-0.0632724
-0.0612514
-0.0601192
-0.0607014
-0.0609213
-0.0596745
-0.0479026
-0.0611039
-0.0609792
-0.0489321
-0.0605641
-0.0488345
-0.0795694
-0.0451039
-0.0337583
-0.0243553
-0.0168356
-0.0111648
-0.00715884
-0.0045658
-0.00410081
-0.0034314
-0.00234613
-0.00254273
-0.00410039
-0.00261217
-0.00261217
-0.00254275
-0.00234611
-0.00410041
-0.00242606
-0.00298716
-0.00297292
-0.00330458
-0.00287324
-0.00343837
-0.00236251
-0.00241965
-0.00350755
-0.0040947
-0.00409131
-0.00417828
-0.00409127
-0.00343836
-0.00245203
-0.00264799
-0.00422138
-0.00281352
-0.00281352
-0.00264797
-0.00360754
-0.00257552
-0.00259678
-0.00259675
-0.00409593
-0.0025755
-0.00335323
-0.00315101
-0.00309142
-0.00286691
-0.00325578
-0.00310726
-0.00323621
-0.0045031
-0.00377458
-0.00276826
-0.00388396
-0.002844
-0.00245807
-0.00300517
-0.00326186
-0.0049242
-0.00559761
-0.00559759
-0.00407649
-0.00719184
-0.00506969
-0.00900096
-0.0113756
-0.00798814
-0.0141306
-0.0176057
-0.0122878
-0.0215493
-0.02627
-0.0181862
-0.0315692
-0.03758
-0.0258021
-0.0443119
-0.0514901
-0.0350516
-0.0592278
-0.0685335
-0.047205
-0.0726719
-0.0501736
-0.0642533
-0.0642531
-0.0677702
-0.0680647
-0.0610944
-0.0566525
-0.0814691
-0.0541926
-0.054193
-0.0546214
-0.0815861
-0.0553313
-0.0553315
-0.052531
-0.0804433
-0.0668643
-0.0668641
-0.0769543
-0.108938
-0.0769545
-0.0781914
-0.107682
-0.0779191
-0.0905637
-0.0786604
-0.0768683
-0.063629
-0.0742638
-0.0863695
-0.0805714
-0.052531
-0.0501547
-0.079375
-0.0638968
-0.078219
-0.107685
-0.077969
-0.0865103
-0.0788113
-0.0796472
-0.0788109
-0.079375
-0.0636289
-0.0768686
-0.077917
-0.107683
-0.0781907
-0.0742648
-0.0863695
-0.0865102
-0.0779722
-0.107683
-0.07822
-0.0638966
-0.074194
-0.0774642
-0.109019
-0.0770586
-0.0670754
-0.0805588
-0.0525063
-0.0669333
-0.0762229
-0.0770889
-0.047829
-0.0359266
-0.0259724
-0.0179768
-0.0119338
-0.00765609
-0.00488339
-0.00480004
-0.00516517
-0.00510245
-0.00511724
-0.00514779
-0.00649095
-0.00822494
-0.0102512
-0.0129585
-0.0159555
-0.0197781
-0.0239136
-0.0289928
-0.034339
-0.0407367
-0.0470811
-0.054923
-0.0478621
-0.0528284
-0.0547468
-0.0537004
-0.0470102
-0.0367627
-0.0470107
-0.0400988
-0.0406517
-0.039475
-0.0337148
-0.0344177
-0.0258922
-0.028215
-0.0258511
-0.0343398
-0.0305719
-0.0342328
-0.0340976
-0.0263941
-0.0287013
-0.0286788
-0.0342783
-0.0305931
-0.0402397
-0.0366397
-0.0467252
-0.054011
-0.0485083
-0.0607012
-0.0547628
-0.0585917
-0.0938995
-0.0741942
-0.0669328
-0.0525061
-0.0772511
-0.0578724
-0.0503218
-0.0472083
-0.035552
-0.0256981
-0.0177817
-0.0117989
-0.00756753
-0.00482716
-0.0040947
-0.00350752
-0.00241966
-0.00409589
-0.00236246
-0.00287325
-0.00330458
-0.00474135
-0.00370788
-0.00369038
-0.00367194
-0.00373956
-0.00348893
-0.00265929
-0.00394694
-0.00515637
-0.00478104
-0.00661443
-0.00622181
-0.00501236
-0.00472274
-0.00508272
-0.00381633
-0.00383311
-0.00381321
-0.00369547
-0.00362858
-0.00515354
-0.00516773
-0.00413874
-0.00509924
-0.00803561
-0.00817333
-0.00806129
-0.0125562
-0.0128446
-0.0103141
-0.00649069
-0.00630523
-0.00642847
-0.00645876
-0.00815127
-0.00814992
-0.00596194
-0.00642889
-0.0048401
-0.00510801
-0.00803759
-0.0126705
-0.012655
-0.0192021
-0.0194747
-0.0189266
-0.0273909
-0.0283139
-0.0236181
-0.0159242
-0.0154965
-0.0158805
-0.0158576
-0.0196003
-0.019534
-0.0145404
-0.015853
-0.0128194
-0.00943647
-0.0101717
-0.00765198
-0.0101933
-0.0128466
-0.00945866
-0.0101858
-0.00820945
-0.00597527
-0.00666305
-0.00638452
-0.00719184
-0.00399031
-0.00584763
-0.00337188
-0.00449416
-0.00258524
-0.00339034
-0.00404318
-0.00417492
-0.00394629
-0.00407216
-0.00406925
-0.00472453
-0.00424079
-0.00368435
-0.00371417
-0.00518132
-0.00506566
-0.00658459
-0.00629524
-0.00799754
-0.0126019
-0.0191484
-0.0192505
-0.0280013
-0.0278994
-0.0388409
-0.0395041
-0.0380023
-0.0504095
-0.0532681
-0.0457196
-0.0335796
-0.0328581
-0.0342775
-0.0340969
-0.0402397
-0.0399435
-0.0305722
-0.0342324
-0.0285624
-0.0215425
-0.0237901
-0.0181888
-0.0237557
-0.0287012
-0.0215711
-0.0238281
-0.0196289
-0.0145687
-0.0161294
-0.0105066
-0.0100404
-0.0113755
-0.0063344
-0.00900075
-0.00506968
-0.00516096
-0.00878282
-0.0110426
-0.0137452
-0.0137449
-0.00989126
-0.017037
-0.0124955
-0.0209031
-0.0149088
-0.0254029
-0.0184733
-0.0305527
-0.0215823
-0.036324
-0.0261544
-0.042814
-0.0299466
-0.0496372
-0.0354002
-0.0576543
-0.0397779
-0.063736
-0.0462026
-0.0758006
-0.0612484
-0.0758006
-0.0501737
-0.0726706
-0.0472046
-0.0685336
-0.0397294
-0.0592269
-0.0350513
-0.0514898
-0.0301057
-0.0443114
-0.0258022
-0.0375802
-0.0217088
-0.031569
-0.0181858
-0.0262701
-0.0149818
-0.0215486
-0.0122876
-0.0176058
-0.00991453
-0.0141301
-0.00798803
-0.00812837
-0.0103443
-0.00666671
-0.00442479
-0.00347487
-0.00330114
-0.00377474
-0.00534243
-0.00813876
-0.0125209
-0.01877
-0.0270671
-0.0374012
-0.049353
-0.0603163
-0.0688741
-0.0679285
-0.0679285
-0.0631804
-0.0735763
-0.0590583
-0.0522057
-0.0713874
-0.0498598
-0.0597027
-0.0547908
-0.0562022
-0.0545816
-0.0462024
-0.0637351
-0.0397773
-0.0576543
-0.0466841
-0.0480535
-0.0360496
-0.029946
-0.0428143
-0.049636
-0.0354007
-0.043404
-0.0321033
-0.0261543
-0.0363232
-0.0215821
-0.0305533
-0.0251935
-0.0260463
-0.0180366
-0.0119921
-0.00989114
-0.0170364
-0.0209036
-0.0254023
-0.0184728
-0.0227124
-0.015396
-0.0126138
-0.00810183
-0.00519884
-0.00497196
-0.00407652
-0.00710207
-0.00483649
-0.00710208
-0.00516095
-0.00878277
-0.00635903
-0.011043
-0.00812843
-0.0100405
-0.00772192
-0.00635886
-0.00745696
-0.00638451
-0.0040432
-0.00449415
-0.00337192
-0.00584777
-0.00339043
-0.00492421
-0.00276822
-0.00326184
-0.00351736
-0.00300522
-0.00245807
-0.00284398
-0.00295925
-0.00388403
-0.00305575
-0.0028814
-0.00338846
-0.00310722
-0.00309135
-0.00325581
-0.00286663
-0.00333894
-0.00312542
-0.00320869
-0.00312539
-0.00286988
-0.00450634
-0.003339
-0.00335327
-0.00338847
-0.00266235
-0.00288138
-0.00305573
-0.00335633
-0.0030757
-0.00285764
-0.00334656
-0.0032526
-0.00309865
-0.00331115
-0.00252757
-0.00338899
-0.0033803
-0.00454678
-0.003134
-0.0035795
-0.00409956
-0.00414264
-0.00364744
-0.00519105
-0.00809102
-0.012603
-0.0189789
-0.0189909
-0.0274276
-0.0379233
-0.0504167
-0.0743832
-0.0684974
-0.10277
-0.0610942
-0.068066
-0.0932886
-0.0778166
-0.0778146
-0.093289
-0.0990322
-0.060449
-0.0795362
-0.0783555
-0.0798808
-0.051025
-0.0650155
-0.0734954
-0.0788006
-0.108098
-0.0789828
-0.0915999
-0.0764029
-0.0853186
-0.0780397
-0.0803386
-0.0805707
-0.0863398
-0.103318
-0.0805732
-0.0990324
-0.0795376
-0.0604483
-0.053585
-0.0798805
-0.0650149
-0.0510247
-0.0518303
-0.0805589
-0.0670766
-0.0770574
-0.109018
-0.0774651
-0.0862158
-0.079985
-0.0803386
-0.0812118
-0.0816899
-0.0535847
-0.0801539
-0.079515
-0.0856351
-0.0799866
-0.0778068
-0.0862157
-0.0769387
-0.0805715
-0.0501548
-0.077251
-0.0578723
-0.0547626
-0.058176
-0.0523847
-0.0390126
-0.0449445
-0.047157
-0.0467243
-0.0540119
-0.053426
-0.0413364
-0.047082
-0.036639
-0.0450708
-0.0389355
-0.0278808
-0.0329089
-0.0230466
-0.0154843
-0.00999866
-0.0100133
-0.0128961
-0.0119171
-0.0104715
-0.0098972
-0.0075158
-0.0103311
-0.0129377
-0.0117728
-0.0160108
-0.0154746
-0.0126789
-0.0117384
-0.0193007
-0.0178261
-0.0239667
-0.0233097
-0.0177916
-0.0282148
-0.0258919
-0.034418
-0.0337146
-0.0258511
-0.0394748
-0.0360214
-0.047215
-0.0467023
-0.0359732
-0.0471528
-0.0524892
-0.0718114
-0.0714592
-0.0627705
-0.0580107
-0.0512215
-0.0616374
-0.0529723
-0.052737
-0.0391967
-0.0280933
-0.019315
-0.0127453
-0.00813425
-0.00800476
-0.0100584
-0.00944377
-0.010232
-0.00772895
-0.0102325
-0.0128547
-0.0120747
-0.0158938
-0.0158933
-0.0128551
-0.0117529
-0.00754992
-0.00484856
-0.00427492
-0.00393147
-0.00397885
-0.00382039
-0.00322661
-0.00382073
-0.00527643
-0.00494929
-0.00651286
-0.00651229
-0.00527686
-0.0042782
-0.00519555
-0.0032782
-0.00327796
-0.00280868
-0.00307583
-0.00519569
-0.00394706
-0.0026591
-0.00348894
-0.00501228
-0.00478122
-0.00622224
-0.00661412
-0.00515673
-0.00397889
-0.00427493
-0.00417493
-0.00488343
-0.00399032
-0.0052983
-0.00480003
-0.00642852
-0.00597524
-0.00815126
-0.00765221
-0.0101719
-0.00943667
-0.0128194
-0.0129586
-0.0117389
-0.0154753
-0.0160108
-0.0117733
-0.012679
-0.00989775
-0.0103308
-0.00751612
-0.00807937
-0.00747599
-0.0102515
-0.00822492
-0.00814992
-0.00642899
-0.0059621
-0.00649114
-0.00472293
-0.00514781
-0.00511724
-0.00484009
-0.00645883
-0.00510249
-0.0051652
-0.00370788
-0.00394626
-0.00369034
-0.00256071
-0.00367201
-0.00393143
-0.00373947
-0.00239239
-0.00278223
-0.00286806
-0.00472457
-0.00406935
-0.00407219
-0.00413885
-0.00362862
-0.00347492
-0.00442484
-0.00666677
-0.00515344
-0.0080617
-0.0103444
-0.0157886
-0.0125568
-0.0189275
-0.0232479
-0.0232477
-0.0157883
-0.0124953
-0.0328174
-0.0328177
-0.0273917
-0.0380025
-0.0442928
-0.0442915
-0.0561581
-0.0561588
-0.0504093
-0.0631811
-0.073584
-0.0590581
-0.0632744
-0.0481941
-0.0612511
-0.0547908
-0.0592511
-0.0512214
-0.076223
-0.077089
-0.0478293
-0.0359267
-0.0259725
-0.017977
-0.0119339
-0.00765613
-0.00633447
-0.00860786
-0.00759795
-0.0101859
-0.00945894
-0.0128466
-0.01201
-0.0158534
-0.0145404
-0.0195343
-0.0197781
-0.017792
-0.0233101
-0.0239664
-0.0178264
-0.0193006
-0.0197545
-0.014547
-0.0195783
-0.0182562
-0.0238159
-0.0238158
-0.0195786
-0.0145471
-0.019754
-0.0155209
-0.0128312
-0.00822153
-0.0053064
-0.00378134
-0.00427859
-0.0037135
-0.00300875
-0.00222721
-0.00361528
-0.00394902
-0.00301496
-0.00363812
-0.00338016
-0.00303639
-0.0045181
-0.00266497
-0.00283823
-0.00454654
-0.0025851
-0.00284981
-0.00368393
-0.00381623
-0.00383295
-0.00381313
-0.00265131
-0.0027817
-0.00474132
-0.00286989
-0.00272845
-0.00245516
-0.00388927
-0.00258526
-0.00446292
-0.00282452
-0.00257967
-0.00369516
-0.00509927
-0.00516776
-0.00649093
-0.00682321
-0.00630541
-0.0082096
-0.00803584
-0.00817399
-0.0103143
-0.0107904
-0.0135556
-0.011917
-0.0158808
-0.0145686
-0.0196292
-0.0196004
-0.0181893
-0.0237904
-0.0215421
-0.028563
-0.0289927
-0.0239142
-0.0230467
-0.0230423
-0.0238285
-0.0215714
-0.0237563
-0.0177818
-0.011799
-0.00756761
-0.0048272
-0.00666307
-0.0105066
-0.0161294
-0.015396
-0.0227124
-0.0238085
-0.0238085
-0.0336534
-0.0305924
-0.040086
-0.0363175
-0.0454111
-0.0413381
-0.0536458
-0.0481935
-0.0467328
-0.0346255
-0.0244765
-0.0165691
-0.0107856
-0.00683514
-0.00597895
-0.00820349
-0.00820297
-0.00820255
-0.0082041
-0.00597887
-0.00683517
-0.0107857
-0.00944389
-0.0129382
-0.0100588
-0.00639942
-0.00518136
-0.00813433
-0.0127457
-0.0155212
-0.0162092
-0.0104718
-0.00999906
-0.0100136
-0.0128963
-0.0126551
-0.0128452
-0.0159247
-0.0167781
-0.0206684
-0.0180366
-0.0251245
-0.0302494
-0.0261616
-0.0360637
-0.0424029
-0.0363185
-0.0471579
-0.0413382
-0.0536463
-0.0569652
-0.0397297
-0.049496
-0.0301059
-0.0457206
-0.03358
-0.0236185
-0.0194761
-0.0192027
-0.0279006
-0.0283166
-0.0388427
-0.0395076
-0.0522076
-0.053266
-0.0713905
-0.0498599
-0.0647655
-0.0910983
-0.0764029
-0.0789821
-0.108097
-0.0788011
-0.0734956
-0.093979
-0.0597038
-0.0580112
-0.0601203
-0.0472084
-0.0355522
-0.0256982
-0.0274106
-0.0378849
-0.0454112
-0.0434039
-0.0321034
-0.0336535
-0.0346256
-0.0255906
-0.0177061
-0.0244765
-0.0165692
-0.0215536
-0.028953
-0.0286413
-0.0264815
-0.0342347
-0.0342345
-0.0286414
-0.0215534
-0.0289525
-0.0230778
-0.0241195
-0.0191607
-0.0162091
-0.0126064
-0.0344394
-0.0279384
-0.0329465
-0.0406512
-0.040099
-0.0305912
-0.0354105
-0.0470363
-0.0760824
-0.0732747
-0.0546215
-0.076546
-0.0562022
-0.0545817
-0.0801545
-0.0566529
-0.0816895
-0.0795151
-0.0856346
-0.0853179
-0.0783575
-0.0916
-0.0780405
-0.0778077
-0.0816189
-0.0795695
-0.058863
-0.0581568
-0.0526892
-0.0451041
-0.0413533
-0.0581564
-0.0718457
-0.0745032
-0.0613421
-0.0715835
-0.0651141
-0.0628305
-0.0547101
-0.0392892
-0.0282116
-0.0194179
-0.0230779
-0.0193154
-0.0280929
-0.0329466
-0.0305914
-0.0344397
-0.0241198
-0.0191487
-0.0126024
-0.00799777
-0.0050828
-0.00510791
-0.00803768
-0.0126706
-0.0154971
-0.015858
-0.019251
-0.0280019
-0.032859
-0.040086
-0.044945
-0.0450702
-0.0329099
-0.0278811
-0.0389359
-0.039014
-0.0523864
-0.0714612
-0.0581753
-0.052491
-0.0718117
-0.0616382
-0.0471528
-0.0451047
-0.0391969
-0.039108
-0.052973
-0.0279404
-0.0154846
-0.0159559
-0.00629552
-0.00658481
-0.00424074
-0.0050661
-0.0080053
-0.0126072
-0.0191638
-0.0467329
-0.0391038
-0.021709
-0.014982
-0.00991485
-0.0101935
-0.0063993
-0.0080794
-0.00747578
-0.00285765
-0.00307573
-0.00335634
-0.00331119
-0.00315658
-0.00309883
-0.0032527
-0.00334659
-0.00286975
-0.00338897
-0.00252734
-0.00325951
-0.0035033
-0.00280856
-0.00307591
-0.00310054
-0.00361374
-0.0230415
-0.0286786
-0.0261616
-0.0485071
-0.0518303
-0.0765459
-0.0769351
-0.00242603
-0.00239212
-0.0149089
-0.0174067
-0.0115607
-0.0349828
-0.0180361
-0.0263937
-0.00759778
-0.0120098
-0.00245523
-0.00256071
-0.00239222
-0.0786602
-0.0905637
-0.0768864
-0.077574
-0.0768851
-0.0586996
-0.061343
0.00368421
0.0037141
0.00518123
0.00478107
0.0050123
0.0051563
0.00661449
0.00622174
0.00472268
0.00514782
0.00373953
0.00239224
0.00283841
0.00266525
0.00278231
0.00286814
0.00272848
0.00286996
0.00278177
0.00265146
0.00282464
0.00258001
0.00295933
0.00258522
0.003884
0.00284405
0.0024581
0.0030557
0.00300517
0.00239223
0.00300515
0.00245806
0.00284401
0.00295933
0.00388403
0.00258524
0.00388926
0.00446287
0.00257992
0.00282464
0.00265147
0.00278179
0.00286996
0.00474137
0.00369029
0.00367192
0.00373942
0.00472446
0.00286816
0.00278229
0.0026652
0.00283837
0.0025854
0.00454656
0.00284991
0.00307585
0.00519564
0.00382072
0.00322656
0.00327818
0.0051955
0.0030759
0.0028498
0.00454676
0.00348886
0.00265918
0.0039469
0.00397892
0.00527691
0.0052764
0.00494926
0.00651223
0.0059789
0.00820346
0.00751589
0.00807936
0.00822492
0.0074757
0.010251
0.0101715
0.0081498
0.00596193
0.00642885
0.00649082
0.00456579
0.00715881
0.0111647
0.0168355
0.0243551
0.0337582
0.0451036
0.0795694
0.0793748
0.0638966
0.0782206
0.0741938
0.0774646
0.109018
0.0770578
0.0788006
0.108099
0.0789817
0.0764029
0.0915997
0.079536
0.0783557
0.0535846
0.0801538
0.0604488
0.0990322
0.0932884
0.0778165
0.103319
0.077814
0.0932887
0.0990316
0.0795367
0.0783557
0.076403
0.0915999
0.0789817
0.108097
0.0788005
0.077058
0.0670754
0.0669332
0.0638964
0.0741939
0.0774646
0.0782207
0.107683
0.0779719
0.0905642
0.0779166
0.107682
0.0781912
0.0769539
0.0742648
0.0668641
0.0668643
0.0769542
0.0781915
0.107681
0.077919
0.0905636
0.0786601
0.0779694
0.107684
0.0614045
0.0655648
0.0944204
0.0586988
0.065624
0.0613422
0.0635014
0.0651139
0.0628301
0.065114
0.0509742
0.0588632
0.0588633
0.0939057
0.0635012
0.0613414
0.0656241
0.0587004
0.0655658
0.061404
0.0634109
0.0651945
0.0627682
0.0650464
0.0633413
0.0605973
0.0644824
0.0580834
0.0663668
0.0910974
0.0647654
0.0632733
0.0569646
0.0494961
0.042402
0.0360637
0.0302493
0.0251247
0.0206681
0.0167779
0.0135555
0.0107903
0.00860783
0.00682319
0.00529824
0.0051652
0.0051024
0.00511723
0.00514771
0.00501222
0.00478112
0.0051567
0.00394698
0.00265916
0.00348888
0.00239239
0.00410079
0.00456584
0.0071589
0.0111648
0.0168356
0.0243552
0.0337582
0.0451037
0.0795694
0.0793748
0.0501548
0.0525307
0.0772509
0.0553314
0.0553311
0.0525308
0.0501547
0.0772509
0.052506
0.0669326
0.0670758
0.0734954
0.0650145
0.0798804
0.0510247
0.0518303
0.0805587
0.0762228
0.0770888
0.074383
0.0770888
0.0798804
0.0535844
0.0566521
0.0801538
0.061094
0.061094
0.056652
0.081469
0.0541931
0.0546212
0.054621
0.0765458
0.0541926
0.0795147
0.0812122
0.0803379
0.0780392
0.0853185
0.080571
0.0863401
0.102769
0.0684971
0.0501731
0.0792527
0.0643635
0.0575881
0.0692669
0.0642524
0.0757999
0.0637351
0.0637346
0.0397777
0.0592267
0.0350505
0.0514897
0.0443115
0.0258021
0.0375799
0.031569
0.0181859
0.0262699
0.0215489
0.0122876
0.0176056
0.0141304
0.00798802
0.0113754
0.00900079
0.00506956
0.00719175
0.00584764
0.00337186
0.0044941
0.00276826
0.00326175
0.00326176
0.00305566
0.00288143
0.00281353
0.00264798
0.0036075
0.00257547
0.00257548
0.00259676
0.00364739
0.00261214
0.00261213
0.00254273
0.00357946
0.00280535
0.00280544
0.00273064
0.00383483
0.00327484
0.00327635
0.00361524
0.00394914
0.00301512
0.00363847
0.00303663
0.00451837
0.0030464
0.0028529
0.0034314
0.00252736
0.003389
0.00338028
0.00325273
0.00334666
0.00298897
0.00450682
0.00299092
0.00297294
0.0035075
0.00242603
0.00298714
0.00331103
0.00409472
0.00409129
0.0048834
0.00765606
0.0119338
0.017977
0.0259723
0.0359265
0.0478289
0.0481938
0.0612511
0.0601196
0.0607011
0.0609211
0.0549228
0.0470808
0.0407364
0.034339
0.0289925
0.0239139
0.019778
0.0159557
0.0129584
0.0102513
0.00822484
0.00649108
0.00472283
0.006222
0.00661403
0.00651284
0.0082025
0.0077288
0.00820307
0.0102318
0.010331
0.00989719
0.0126789
0.0129377
0.0117728
0.0154747
0.0117383
0.0129585
0.00943653
0.0128192
0.0128465
0.0120096
0.0158573
0.0158801
0.0128962
0.00945855
0.0101931
0.00765206
0.0081512
0.00645868
0.00483996
0.00511722
0.0039314
0.00367187
0.00472448
0.00331117
0.00304636
0.00451833
0.00303644
0.0036381
0.00301458
0.00394946
0.00361365
0.00310062
0.0027307
0.00281228
0.00325948
0.00252756
0.00234613
0.00343142
0.00338897
0.00285281
0.00298718
0.00242606
0.00410039
0.00254271
0.00409955
0.00484854
0.00754985
0.0117529
0.017706
0.0255906
0.0354104
0.0470361
0.0760824
0.0804432
0.0796468
0.0788107
0.0769366
0.086215
0.0778089
0.109017
0.0856341
0.0650158
0.0510248
0.0518299
0.0765457
0.0562021
0.0547905
0.0592511
0.0585911
0.0611408
0.0605641
0.0489324
0.0609794
0.0611035
0.047903
0.0547468
0.0528283
0.0596743
0.0478623
0.0524892
0.0718116
0.0714602
0.0713906
0.0735842
0.0631808
0.0504093
0.053269
0.059058
0.0522079
0.0388407
0.0395052
0.0380037
0.0273914
0.0283153
0.0335806
0.045719
0.0449441
0.0536462
0.0540107
0.0467244
0.0470817
0.0413362
0.053426
0.0485078
0.0472082
0.0762227
0.0805584
0.0525061
0.0805714
0.0799867
0.0795147
0.08169
0.0604483
0.0680638
0.0677704
0.0679271
0.0688733
0.0603161
0.0493528
0.0374009
0.0270672
0.0187702
0.0125211
0.0081387
0.0053424
0.00377466
0.00330109
0.00347484
0.00347483
0.00362859
0.00515352
0.00806148
0.0125565
0.0189272
0.0194753
0.0236188
0.0279003
0.0192025
0.012655
0.0128447
0.0159247
0.0154967
0.0196291
0.0196002
0.0158578
0.0158531
0.0145403
0.019534
0.0237901
0.0215421
0.0285626
0.0342321
0.0305722
0.0399437
0.0366387
0.0402397
0.034097
0.0305933
0.0400863
0.0471564
0.0413381
0.0454109
0.0355518
0.025698
0.0263938
0.0287012
0.0237559
0.0215711
0.0286789
0.0342774
0.0261618
0.0328586
0.0390132
0.0523851
0.0580102
0.0597031
0.0939784
0.0734954
0.0498598
0.0581754
0.0938988
0.0616378
0.0745017
0.071846
0.0527377
0.052979
0.0471512
0.0450696
0.0389353
0.0278808
0.0280014
0.0192507
0.0126705
0.00803751
0.00803572
0.00817334
0.0103143
0.0100133
0.0128962
0.0128464
0.0101933
0.0101716
0.00943656
0.0128194
0.0120098
0.0117989
0.0177817
0.0181891
0.0161293
0.0145685
0.0158805
0.011917
0.0153959
0.0215492
0.014982
0.0262699
0.0181862
0.0315697
0.0217088
0.0375801
0.0258027
0.0443124
0.0301057
0.0514895
0.0350512
0.0592273
0.0397296
0.068533
0.0472046
0.0726704
0.050566
0.0462026
0.0545815
0.0545814
0.0726704
0.0472045
0.068533
0.0462024
0.0758006
0.050173
0.0642525
0.061248
0.0692672
0.0575883
0.0643636
0.0663672
0.0792529
0.0677701
0.0680656
0.0816898
0.0805719
0.0803394
0.085318
0.0780373
0.0856339
0.0799849
0.0816189
0.081586
0.0732745
0.0503217
0.0504164
0.0480534
0.0397777
0.0576535
0.0496369
0.0428137
0.0363243
0.0363233
0.0215826
0.0305531
0.0184728
0.0254025
0.0149089
0.0209033
0.0124954
0.0170367
0.00989108
0.0137452
0.00812847
0.0110427
0.00635898
0.00878277
0.00516078
0.00710195
0.00407657
0.00559758
0.00339031
0.00492416
0.00351735
0.00492417
0.00276822
0.00449408
0.00337186
0.00584776
0.00399036
0.00719179
0.00506967
0.00900089
0.00633447
0.0113755
0.00798801
0.0141305
0.00991465
0.0176058
0.0122878
0.0124955
0.0170368
0.0115608
0.0137449
0.0110429
0.00878262
0.00710209
0.00483653
0.00559761
0.00339037
0.00404318
0.00638449
0.00516089
0.00666666
0.0103445
0.0157887
0.0232483
0.0328181
0.0442922
0.0561581
0.0561577
0.0679282
0.063181
0.0504084
0.0442917
0.0576544
0.0354002
0.0496359
0.0299457
0.0428144
0.0261542
0.0321031
0.0360495
0.029946
0.0349827
0.0260463
0.0215825
0.0305526
0.0254031
0.0209031
0.0149089
0.0180366
0.0174069
0.0119921
0.00989116
0.00772192
0.00635899
0.00745678
0.00497195
0.00407649
0.00377457
0.00450311
0.00281352
0.00288142
0.0036996
0.00302604
0.00302591
0.00369959
0.00399256
0.00266238
0.00312278
0.00341681
0.00343836
0.00236246
0.00287322
0.00330464
0.00303231
0.00453095
0.00307048
0.00368998
0.00333873
0.00325585
0.00286677
0.00309143
0.00310728
0.00323625
0.004147
0.00310735
0.00399268
0.00312296
0.00266237
0.00245209
0.00343835
0.00287324
0.00236251
0.00241967
0.00350752
0.00297296
0.00299084
0.00450667
0.00298899
0.00334665
0.00312539
0.00309134
0.00315097
0.00338846
0.00245204
0.00422136
0.00335324
0.00333903
0.00312537
0.00286998
0.00320865
0.00335323
0.00338845
0.00264798
0.00422139
0.00404317
0.00519883
0.00810179
0.0126138
0.0189908
0.0274275
0.0379233
0.0434037
0.0354009
0.0434037
0.047829
0.0397299
0.0632729
0.0481934
0.0536459
0.0413381
0.0467238
0.0366387
0.0399433
0.0305715
0.034232
0.0343386
0.0258509
0.0282145
0.0289525
0.0258918
0.0337141
0.0394745
0.0406511
0.036021
0.0467017
0.0359725
0.0407363
0.047081
0.0470812
0.0534261
0.0413367
0.0549221
0.0478629
0.0528278
0.0547467
0.0479026
0.0596744
0.0609214
0.0607005
0.0485076
0.054011
0.0601192
0.0612506
0.0597032
0.0547906
0.059251
0.0512212
0.0585914
0.0547626
0.0611404
0.0488343
0.0605641
0.0609798
0.0489316
0.0718458
0.0715832
0.0581567
0.0547101
0.0604382
0.0486295
0.0536994
0.0536997
0.0413526
0.0472143
0.0360207
0.0406512
0.0394747
0.0467013
0.035973
0.0337144
0.0258921
0.0289528
0.0282146
0.0258514
0.0233099
0.0178265
0.0197544
0.0193003
0.0177918
0.0191485
0.0126021
0.00799757
0.00508264
0.00510792
0.00509916
0.00516775
0.006491
0.0063053
0.00820959
0.00815119
0.00645884
0.00642883
0.00596186
0.00814994
0.00765206
0.00756751
0.00482717
0.00483995
0.00417491
0.00394627
0.00370781
0.00245523
0.0038131
0.00369516
0.00413872
0.00407205
0.00383295
0.00272862
0.00256071
0.00406926
0.00629525
0.00999881
0.0154843
0.0230465
0.0329091
0.0344401
0.0391077
0.0391969
0.0280918
0.027938
0.0241197
0.0230773
0.0329461
0.0344174
0.0342342
0.0264816
0.0286411
0.0286412
0.0215532
0.0238158
0.0182558
0.0195782
0.0195782
0.0145469
0.0160105
0.011773
0.0129381
0.0126789
0.0154752
0.0117386
0.0162091
0.0191625
0.0193151
0.0127454
0.0126042
0.0104717
0.0100585
0.0103307
0.00751598
0.00820397
0.00807927
0.0098975
0.00747585
0.00658458
0.00800506
0.00813435
0.00518121
0.00506557
0.00424065
0.00381619
0.00368403
0.00371355
0.00300883
0.00222723
0.00263403
0.00250021
0.0026472
0.00222537
0.00301072
0.00280857
0.00349842
0.00378128
0.00530643
0.00639946
0.00597879
0.00683511
0.00666304
0.00597527
0.00642841
0.00479997
0.0105065
0.00945876
0.0101857
0.00759772
0.0100404
0.0081284
0.0100404
0.0153959
0.0227124
0.0259722
0.0359264
0.0301056
0.0494948
0.0363176
0.0400857
0.0305927
0.0340963
0.0263935
0.0285623
0.0215418
0.0237897
0.0239134
0.0177915
0.0193003
0.019754
0.0178259
0.0233095
0.0239663
0.0215532
0.0238156
0.0230775
0.0282111
0.0392889
0.0526889
0.0451032
0.0451043
0.0581555
0.0547101
0.0611029
0.0604387
0.0578723
0.0562021
0.045411
0.0472082
0.0355518
0.0378849
0.0336534
0.0321033
0.0261542
0.0227123
0.0184731
0.0238084
0.0274105
0.0189789
0.0126029
0.00809095
0.00519103
0.00414264
0.00417828
0.0040913
0.00488338
0.00765604
0.0119338
0.0179768
0.0149818
0.0251239
0.0180362
0.0196288
0.0145684
0.0196002
0.0181888
0.0195339
0.0145403
0.0158528
0.0159553
0.0197779
0.0154838
0.0154962
0.0159239
0.0189272
0.0273913
0.0380029
0.0328173
0.0232478
0.0157884
0.0103443
0.0125566
0.00806138
0.00666674
0.00442475
0.00515331
0.00362852
0.00369547
0.00413859
0.00529827
0.00479998
0.00516511
0.0039462
0.0036903
0.00256068
0.00409471
0.00482713
0.00756748
0.0117988
0.0177816
0.025698
0.0336533
0.0238084
0.021571
0.0238276
0.0237554
0.028701
0.0286786
0.0302492
0.0261609
0.0360627
0.0217087
0.0424024
0.033579
0.0457183
0.0569645
0.0590591
0.0647655
0.0498596
0.0644842
0.0580814
0.0910974
0.0735779
0.071387
0.0605968
0.0633417
0.0939783
0.0650461
0.0627706
0.0651957
0.0938989
0.0634112
0.0718109
0.0714589
0.0580115
0.0522057
0.0532682
0.0388402
0.0395062
0.0278989
0.0283145
0.0236177
0.0230411
0.032858
0.034277
0.0402396
0.0449437
0.0471566
0.0523839
0.0390123
0.0280007
0.0192502
0.0192018
0.0194749
0.0126545
0.0119168
0.0135554
0.0107901
0.00759763
0.00820952
0.0059752
0.00642841
0.00682311
0.00399031
0.00860778
0.00633439
0.00649085
0.0103139
0.0128448
0.010013
0.0101855
0.0080356
0.00817356
0.00509925
0.0051674
0.00381325
0.00245519
0.00388917
0.00446288
0.00333888
0.00307044
0.00453102
0.00303234
0.00330471
0.00474136
0.00370783
0.00407203
0.00510246
0.00630511
0.00629506
0.00999831
0.0126701
0.00803737
0.00510788
0.00383307
0.00406909
0.00508263
0.00799737
0.0126018
0.019148
0.0278804
0.0389352
0.0524888
0.0581762
0.0616382
0.0527366
0.0391959
0.0329465
0.0400987
0.0400986
0.0367623
0.0470094
0.0472138
0.0413532
0.0467326
0.0467326
0.0578723
0.0547627
0.0346253
0.0305906
0.0346253
0.0305905
0.0344174
0.0342343
0.0244762
0.0244764
0.0165691
0.0165691
0.0161292
0.0105065
0.00666301
0.00638447
0.00417492
0.00409591
0.00259676
0.00427492
0.00683511
0.0107856
0.0107856
0.00944377
0.0128547
0.0120743
0.0128551
0.00944379
0.0100585
0.0128309
0.0155207
0.0158936
0.0158933
0.0160108
0.0145469
0.0155209
0.0194176
0.0193149
0.0280925
0.0241194
0.0344389
0.0329084
0.0450694
0.0471512
0.0529778
0.039107
0.0230458
0.0289924
0.02794
0.0191635
0.0162085
0.0127451
0.00813418
0.00822151
0.0063993
0.00658443
0.0104716
0.0126056
0.00800488
0.00424072
0.00506552
0.00427823
0.00382034
0.00427851
0.00397887
0.0042749
0.00393137
0.00410038
0.00234612
0.00335629
0.00307571
0.0028575
0.00313397
0.0033563
0.00331113
0.00307568
0.00285724
0.00325271
0.00309857
0.00315655
0.00309892
0.00331119
0.00281234
0.00309954
0.0028087
0.00327791
0.00372573
0.00350341
0.00355111
0.00325952
0.00411577
0.00338049
0.00381632
0.0102324
0.00410079
0.0470096
0.0745016
0.00333904
0.00325583
0.00341686
0.00369005
0.00286685
0.00286987
0.00991454
0.0167776
0.0206679
0.0505659
0.00442476
0.0939062
0.0742639
0.0636286
0.0768685
0.0865095
0.078811
0.0805713
0.086369
0.0775739
0.0863687
0.0768867
0.0865092
0.0768685
0.0636289
0.0786598
0.0944202
0.108937
0.0768851
0.0862152
0.0778101
0.0769371
0.0239662
0.0230417
0.023828
0.0180365
0.00409588
0.00241966
0.0251933
0.0466852
0.057072
0.0363172
0.0512214
0.0488344
0.00258519
)
;

boundaryField
{
    face
    {
        type            calculated;
        value           nonuniform List<scalar> 
154
(
-0.08
-0.08
-0.08
-0.08
-0.08
-0.08
-0.08
-0.08
-0.08
-0.08
-0.08
-0.08
-0.08
-0.08
-0.08
-0.08
-0.08
-0.08
-0.08
-0.08
-0.08
-0.08
-0.08
-0.08
-0.08
-0.08
-0.08
-0.08
-0.08
-0.08
-0.08
-0.08
-0.08
-0.08
-0.08
-0.08
-0.08
-0.08
-0.08
-0.08
-0.08
-0.08
-0.08
-0.08
-0.08
-0.08
-0.08
-0.08
-0.08
-0.08
-0.08
-0.08
-0.08
-0.08
-0.08
-0.08
-0.08
-0.08
-0.08
-0.08
-0.08
-0.08
-0.08
-0.08
-0.08
-0.08