/*--------------------------------*- C++ -*----------------------------------*\
| =========                 |                                                 |
| \\      /  F ield         | OpenFOAM: The Open Source CFD Toolbox           |
|  \\    /   O peration     | Version:  2306                                  |
|   \\  /    A nd           | Website:  www.openfoam.com                      |
|    \\/     M anipulation  |                                                 |
\*---------------------------------------------------------------------------*/
FoamFile
{
    version     2.0;
    format      ascii;
    arch        "LSB;label=32;scalar=64";
    class       volScalarField;
    location    "1.9";
    object      gradTy;
}
// * * * * * * * * * * * * * * * * * * * * * * * * * * * * * * * * * * * * * //

dimensions      [0 -1 0 1 0 0 0];

internalField   nonuniform List<scalar> 
2658
(
0.00840644
0.00486784
0.00151468
-0.000174912
-0.0171821
0.0210961
-0.0177727
0.0149684
-0.000236742
-0.0149521
0.00461389
-0.0345127
0.0210501
0.0214071
0.0173411
0.0178055
0.0195083
0.0175298
0.0177503
0.021141
0.0203793
0.0177742
0.00588013
-0.0039922
0.00654317
0.019491
-0.00424664
0.00116943
0.0158991
-8.04235e-07
-0.0158993
0.00424672
-0.0194921
-0.00588
-0.00654294
0.0039927
-0.00113447
0.00166858
-0.0177796
-0.0203805
-0.0211426
-0.017751
-0.0175285
0.00875827
-0.00129543
-0.000608231
-0.00461415
0.00911743
-0.0178087
-0.0173413
-0.0214056
-0.0210502
-0.0186811
0.00386455
-0.0069675
-0.00653744
0.000456112
-0.0112426
-1.13516e-07
-0.000164489
-0.000455835
0.00653716
0.00696793
-0.00386507
0.004451
-0.0100674
-0.0141323
-0.000643258
-0.0233658
0.0233659
2.20096e-07
0.0196065
-0.000220035
0.0159896
-3.72917e-05
-0.0121219
-0.0120106
0.000350227
0.0114897
0.0075415
-0.00804388
-0.000611297
0.0104535
0.0157199
-0.000332252
-0.000184729
1.73046e-05
9.17287e-05
0.000104945
9.78951e-05
7.5846e-05
-0.000204829
0.000106722
0.000542741
-0.000233502
-0.000579554
-9.57474e-05
-0.000594938
-0.000104044
-0.00022237
-0.000651226
-0.000171758
-0.00058187
-0.000303444
-0.000254341
0.000589395
-0.000210798
-7.94429e-06
7.99786e-05
-0.000613098
0.000203574
-0.000276535
-1.02167e-08
0.000276536
-0.000203614
0.000613083
0.000254356
-0.000589414
0.000581854
0.000303439
0.000171696
0.000651218
0.000222362
0.000104039
-0.000465087
-0.000450108
-0.000542771
0.000579606
9.57824e-05
0.000233542
0.000639171
0.000160843
0.000304664
0.000279727
0.000572026
-0.000260788
2.07126e-05
3.11043e-05
-0.000602914
0.000603055
-2.07674e-05
0.000260812
-0.000153934
-0.000160068
-1.46488e-06
0.000159547
2.85875e-07
3.30351e-07
-0.000319053
0.000314458
7.12966e-07
2.52844e-05
0.00016938
-0.00019089
0.000759493
0.000175112
0.000712839
0.000844947
0.000896274
0.000707908
0.000712765
0.000820769
0.000712604
0.000719716
0.000915969
0.000852979
0.000744425
0.000239214
-4.56098e-05
0.000168574
-0.00115324
0.00159397
-0.00185532
0.00245131
-0.00300073
0.00374315
-0.00467398
0.00552452
-0.00696894
0.00780984
-0.00997459
0.0105617
-0.0138192
0.0136887
0.0134
0.011234
0.0106712
0.0149528
0.0171816
0.000174731
-0.0210966
0.0141324
0.0100666
-0.00445113
0.0345122
-0.00423805
0.000331975
0.000184555
-1.73745e-05
-9.18972e-05
-0.000105094
-9.78739e-05
-7.58381e-05
0.000204832
-0.000106674
5.15982e-06
-0.000248872
9.45321e-05
-0.000319865
0.000319857
0.000248897
-5.18384e-06
-9.45619e-05
-9.47659e-05
0.000450152
0.000465075
-0.000586101
0.000529228
0.000125817
-1.35525e-05
-8.55504e-05
8.12523e-05
-6.73248e-05
-6.74461e-05
-3.11775e-09
6.74301e-05
-0.000125935
0.000210786
-0.000406863
7.97947e-06
-0.0004491
0.00044915
0.000406883
2.55887e-09
-0.000283032
-0.000310776
0.000310808
-9.04352e-05
0.000283052
-4.23399e-05
-2.85004e-09
-0.000221045
-9.92775e-05
0.000289767
-7.53083e-05
2.62266e-08
1.86948e-08
-8.13532e-09
-0.000447315
0.000312433
0.00085482
-0.000210506
0.000678743
-0.000930311
0.00116497
-0.00132041
0.00132035
0.000178056
0.0016278
0.000115094
-0.00213362
0.00260701
6.71843e-05
-0.00331528
0.00409095
8.23058e-06
-0.00501982
0.00616894
-0.00010007
-0.00730537
0.0089117
-0.000357018
-0.0101719
0.0123614
-0.00101959
-0.0135369
0.0164616
-0.00287793
-0.0182986
-0.00853252
-0.0190855
0.0190858
-0.00116881
-0.00528744
0.00994906
0.00887314
-9.17878e-08
-0.00628328
0.00628333
0.00656765
-5.52745e-08
-0.00791176
0.00791176
0.00320533
-3.98303e-08
-0.0206703
0.0206701
-0.012963
1.30574e-07
0.0129627
-0.0101178
0.00642285
0.0148011
0.010328
0.0133677
-0.0199532
0.0141212
0.00185909
0.00119451
0.000179278
-0.00320542
-0.00116822
-0.0033323
-0.0114268
0.00625906
0.0178078
0.00759073
0.00847751
-0.00437899
1.01194e-07
0.00437924
0.00333232
-0.0141214
0.0199528
-0.0148024
-0.00642376
0.0101175
-0.00185946
-0.0011946
-0.00847665
-0.0075913
-0.0178075
-0.00625938
0.0114266
-0.0115428
-0.0043045
-0.0164815
-0.00380011
0.010766
0.0025775
-0.00248249
0.0117008
-0.00235921
-0.00286719
1.32271e-05
-0.000154533
-0.000267892
-0.000268458
-0.000226855
-0.000178496
-0.000131175
-0.000143775
-0.00108421
-0.000922554
-0.000830233
-0.00127066
0.00180521
-0.0020981
0.00280649
-0.00340021
0.00428962
-0.00531505
0.0063243
-0.0079764
0.00892198
-0.0114898
0.0120113
-0.0157203
0.000236185
-0.0149679
0.017774
-0.0196069
0.0178571
-7.21562e-08
-0.0178569
0.0149212
-0.0134179
0.010888
-0.00874871
0.0115656
9.32204e-05
0.00759284
0.000399713
-0.00892112
-0.000457154
-0.00590999
-0.00675871
0.000403331
0.00598886
0.00654344
-0.00755709
-0.000503831
0.00859936
0.000297592
-0.00902647
0.0116215
-0.00042066
-0.010671
-0.000176548
0.000608286
-0.00911762
0.0115425
-0.0117011
0.00248227
0.000833815
-0.000125168
-9.51941e-08
0.00014309
-4.2389e-05
-0.000174726
-0.00019852
-0.000176401
-0.000142618
-0.000104303
6.732e-05
-8.12541e-05
8.55363e-05
9.03783e-05
1.35754e-05
-0.000529262
0.000586115
-0.000381114
0.000314564
0.000186502
0.000156551
0.000384801
0.000275695
-7.90233e-05
-0.000987057
0.00174312
-6.58485e-06
-0.0021178
0.00170483
-0.00133822
-0.000141184
-1.19038e-05
0.000443218
0.000448996
0.000445927
0.000281783
0.000322204
-6.65676e-06
0.000113351
0.000163047
-9.79305e-06
-0.000232414
-3.58361e-05
-8.61328e-05
-0.000165521
-0.000172203
7.91768e-05
9.3577e-05
0.000117529
0.00156312
0.00137523
-0.00154342
-0.00134665
0.000121883
0.00124356
-0.00015848
1.67503e-05
-0.000217186
-0.00046558
-0.000470111
-0.000785825
-0.000350689
-0.00027192
-0.000416183
-0.000641652
3.3688e-06
5.58073e-05
0.0001326
0.00360453
0.00327762
-0.00398482
-0.00344667
0.000263703
0.0028618
-0.00219268
0.000187558
0.00189626
-0.000204616
0.00215008
-0.00253442
0.000198027
0.0023759
-0.00175933
0.000130219
2.32767e-05
-7.13025e-05
-0.00162756
1.91895e-05
0.00138408
-0.000184424
-0.00109619
-0.000229833
-9.95041e-05
-2.64763e-05
3.9403e-05
0.000115955
0.000191674
0.000184864
-0.000391149
0.000168732
0.000280688
0.000172192
6.95411e-06
7.41969e-05
0.00010359
0.000110762
-0.000234048
-0.000476877
-0.000805142
-0.000799811
-0.00131274
-0.00125552
-0.00206551
-0.00123929
-0.000625414
-0.00123325
-0.00289727
-0.000409869
-0.000121123
6.45811e-05
0.00755718
0.00675952
-0.008599
-0.00754029
0.000457219
0.00591026
-0.00519908
0.000351117
0.00419128
-0.000348755
0.00481313
-0.00598847
0.000379831
0.00531633
-0.00437573
0.000280717
4.87787e-05
3.50752e-05
-0.000105836
-0.0026067
1.24448e-05
0.00213362
-0.000115115
-4.17696e-05
-0.00212814
0.00280889
-0.00337356
0.00337366
7.81617e-05
-0.00432646
5.62184e-05
0.00517297
3.63365e-05
-0.00642854
7.27159e-05
0.00760226
-7.24912e-05
-0.00913786
6.82667e-05
0.0106885
-0.000415216
-0.0123568
-4.47846e-05
0.0143784
-0.00164999
-0.0154657
-0.00128305
0.0176715
-3.34898e-07
-0.0176715
0.00853114
0.0182997
0.00287673
-0.0164609
-0.000181431
0.0135364
0.00101887
-0.0123608
-5.33942e-05
0.0101732
0.000356296
-0.00891071
-2.44482e-05
0.00730628
9.91945e-05
-0.00616867
-6.92261e-06
0.00502016
-8.60485e-06
-0.00409067
4.66168e-06
0.0033155
-6.71168e-05
-4.3354e-05
-0.000168593
-0.000110688
-4.1766e-05
0.000229785
-1.17085e-07
-7.49246e-09
-2.52977e-07
2.44127e-08
2.27766e-07
4.23806e-07
8.64829e-07
3.03106e-06
9.85281e-07
-2.97398e-07
-9.94644e-07
0.00535009
-0.00535086
-0.00745352
-0.00719034
-0.00205866
-0.0038909
-0.0120872
0.0354566
-0.00312875
0.00030581
-0.00011596
-0.000246741
0.00128311
0.0154666
0.00164905
-0.0143778
-1.18796e-07
-1.19644e-07
-1.37158e-07
0.000415034
-0.0106883
0.012357
4.4743e-05
-0.000191145
-0.000204866
-6.8498e-05
0.00913806
7.22666e-05
-0.00760239
1.20663e-07
-1.4391e-08
-5.29372e-08
-7.44384e-08
-7.85174e-05
0.00432657
-0.00517292
0.00642896
-7.25251e-05
-0.000182911
-0.000145166
-7.02653e-08
-4.064e-08
1.02013e-08
-8.21506e-09
-0.000178124
0.00179957
-1.95424e-08
-0.00179961
4.18238e-05
0.00212823
0.000110797
-0.00280897
4.33128e-05
0.000105762
2.39798e-08
-0.000111031
5.75494e-08
7.12762e-05
2.64718e-05
0.00109623
0.000184302
-0.00138406
9.95217e-05
-0.00116495
0.000447362
0.000930314
3.91178e-08
-0.000678711
0.000210564
-0.000854877
-0.000239228
-0.000312411
-3.34153e-05
-0.000191637
-0.00010077
7.52992e-05
0.000221023
-0.00028981
9.93077e-05
-0.000300372
0.000221274
-8.76348e-09
-0.000221278
-0.000110408
0.000594918
0.000300376
4.23715e-05
0.0001008
-7.99692e-05
0.000191654
3.34053e-05
4.3482e-05
-0.000211932
-9.1577e-05
0.000299753
0.000279917
-6.36867e-05
7.33802e-05
0.00041155
-0.000580966
0.000559991
-7.08559e-05
2.39615e-09
3.49163e-08
2.23953e-08
-6.33994e-09
4.7704e-09
-1.80932e-08
-5.28247e-09
2.92613e-08
-3.53557e-08
-2.9015e-08
1.26039e-07
1.06994e-07
-6.92108e-08
-1.16879e-07
8.48327e-09
-4.45403e-07
-0.00994955
0.0052877
-0.00452209
0.0075176
-0.0075178
0.00452184
-0.0149791
0.00156071
-0.00600726
0.013798
0.00349016
-0.000319506
0.0129194
-0.011499
-0.00673635
-0.0176217
-0.00570379
-0.00861469
-0.0125806
-0.0071811
0.000705436
0.00624785
0.00192311
-1.66128e-06
2.76051e-07
-0.0019223
0.0149787
0.0060071
-0.0015611
0.00466427
-0.00349039
-0.01292
0.000319168
0.00150103
-0.00257768
-0.0107661
0.00379927
0.0164805
0.0043044
0.00751705
-0.00611093
-0.00624934
9.14658e-07
-0.00227934
-0.00466439
0.000366603
-0.000447146
-0.00729653
0.00611082
0.00123151
-0.00751707
-0.000178568
-0.000179463
0.001168
-0.000833809
0.000125023
0.000176489
-0.00189149
-0.00422337
-0.00221366
-7.03532e-05
0.0103658
0.00902808
-0.0116217
-0.0104524
0.000611506
0.00804393
-0.000297676
-0.000148631
-0.00220415
-0.00131201
2.11094e-05
9.67515e-05
0.000114611
0.000115169
0.000127151
-0.00281695
-0.000237936
7.98003e-05
0.00267178
-6.71774e-05
-0.00340085
0.00429326
-9.69621e-05
-0.00531313
0.00411342
-0.00327729
-0.00024352
-0.00508656
-0.000114212
-0.00800026
0.00611694
-0.000324184
-0.0075924
-9.34333e-05
-0.0115654
0.00874815
-0.000399977
-0.0108877
3.79395e-05
-0.0159904
0.0121209
-0.000351145
-0.000856212
-0.00412385
-0.0124184
-0.0123936
-0.0195138
-0.00184891
0.0325123
-0.00300768
-0.00314742
-0.00151461
-0.000687369
-0.000416007
-0.000263526
-0.000162147
-8.21278e-05
-5.04556e-05
6.12281e-05
2.19793e-05
0.00378756
1.4516e-07
-0.00378781
0.00477189
7.79638e-08
-0.00592526
0.00592521
-0.00477185
-3.14515e-08
-3.0976e-08
1.41657e-08
4.088e-05
0.000108535
-1.72332e-05
0.000864152
3.11363e-07
-0.000864326
0.0018564
1.42404e-07
-0.0023398
0.00233958
-0.00185619
2.88767e-05
0.0002347
-0.000291022
0.000291047
-0.000160151
-7.82553e-05
-0.000234785
0.000987161
7.91946e-05
-0.000275857
0.00133863
6.68939e-06
-0.00170512
0.00211786
-0.00174295
1.71133e-05
-4.08672e-05
-3.94073e-05
0.000131135
-1.91e-05
0.00115328
0.000143888
-0.00156306
-0.000130159
0.00154347
0.000204601
-0.00189612
-0.000187577
0.00219354
0.00340007
0.000243686
-0.00411362
0.00531262
9.7185e-05
0.00327793
-0.00267206
0.00340086
6.71815e-05
0.00205324
0.00018425
-0.00280613
0.00209811
0.00134708
-0.0012437
-0.000121831
-0.00180496
0.000141064
0.00127061
0.000830411
0.000158395
-0.00137514
0.000922599
0.00108433
-0.000314565
-0.000115904
-0.000186399
0.00162568
-0.000156579
-0.000108537
-0.000384691
0.00169758
-0.00070792
-0.000712877
0.000391203
-0.000184829
-0.000191691
-0.000162962
-0.000322229
-0.000229771
4.1715e-05
0.000110871
6.71536e-06
8.63896e-05
0.00016847
0.000239525
0.000165887
0.000272374
0.000317511
-0.000318048
-0.000239547
-5.61817e-05
-0.000363207
0.000362392
0.000416498
0.00062586
0.000309345
-0.000310402
-0.000366604
0.000367328
0.00123559
0.00745495
0.00719232
0.00206226
-0.0136883
-0.000448062
-0.0133996
-0.000305887
0.00129531
-0.0325125
0.00235904
0.00286688
-1.36676e-05
0.000154203
0.000267424
0.000268219
0.00022668
0.000178427
-1.23651e-05
0.00185553
0.000186589
-0.00237581
-0.000198164
0.00253442
0.000270376
-0.00286162
-0.000263124
0.00344777
0.00531525
0.000323861
-0.00611749
0.00800005
0.000114305
0.00508709
-0.00654275
-3.93025e-05
0.00728213
-1.4311e-08
-0.00891893
0.00891877
-0.00728214
3.923e-05
0.00654328
8.59511e-05
1.24158e-07
2.22716e-07
6.15948e-08
4.95527e-07
-2.90479e-05
-0.000172768
-0.000760405
0.000192833
0.000114861
-0.000572212
-0.000279929
-0.000304741
-0.00056012
-0.000160823
-0.00063914
-0.000896
-0.000844845
7.05388e-05
-0.000713119
-0.00017522
-0.000280595
-0.000443064
-0.000449007
-0.000445928
-0.000915953
-0.000719744
0.000381091
-0.00071262
-0.00082114
0.00172381
-0.000168584
0.000229849
4.55415e-05
-0.000853013
-0.000744566
-0.000281543
9.94559e-06
-0.000113655
-9.33565e-05
-0.00159379
-0.000117397
0.00175971
0.000232461
3.81345e-05
-7.86126e-05
-0.00245109
0.0030012
0.000238159
-0.00360425
-0.000280597
0.00437643
0.00398483
0.00034868
-0.00419161
-0.000351169
0.00520025
0.00797599
-0.00632353
-9.65323e-05
-0.000122971
-0.00531559
-0.000379275
-0.00481246
0.000198385
0.000176223
0.000142505
0.000104278
-2.32836e-05
-3.507e-05
-4.87604e-05
0.000145109
0.000182767
-6.6885e-05
6.66897e-05
9.28092e-05
0.000503568
-0.00943683
-0.000193898
0.000131708
0.000675099
-0.0131769
0.000447683
0.000191764
0.000124678
9.27226e-05
6.90878e-05
4.94896e-05
3.14658e-05
6.90819e-06
0.00272883
-0.00302101
0.00302122
-0.00272852
-7.03248e-06
-3.14213e-05
-4.95081e-05
-2.21046e-05
-0.00429296
-6.13226e-05
-3.89405e-05
-6.62063e-06
8.23373e-05
0.000162306
-8.59173e-05
-4.22556e-05
-7.95076e-05
-0.000115097
-0.000126953
0.0028173
0.00047058
0.0001762
-5.47405e-05
-0.0037427
0.00467458
0.000294749
-0.00552411
0.00696975
0.000320918
-0.00780888
0.00997484
0.000193597
-0.0103664
-0.000675668
0.0131774
0.0138198
0.00018139
-0.0105608
5.37608e-05
0.0004106
0.000123151
-1.88613e-06
0.000355581
0.000786477
0.00125649
0.000649814
0.0020656
0.00125174
0.00389159
0.00289227
0.012087
-0.0354563
0.00113396
-0.00166695
0.0125798
0.00570315
0.0176218
0.00673637
0.0114988
-0.00875809
0.00312926
0.00184854
-0.0112335
-0.000143384
4.2153e-05
0.000174515
-1.23712e-07
-1.32834e-07
-0.000131831
0.000191033
0.000204648
-9.28035e-05
-0.000124917
-3.05865e-08
-4.19192e-08
-9.27504e-05
-6.92008e-05
-6.20689e-05
-0.00957788
0.0106676
-1.23146e-08
-0.0128933
0.0128931
-0.0106677
6.21359e-05
0.00957863
0.000110887
-4.59192e-05
-0.000353258
4.25862e-05
-0.000175688
-0.000279142
-0.000670249
0.000134915
0.0134181
-0.0149209
0.000105712
-1.06572e-07
-5.3423e-08
-4.28757e-08
-9.20085e-08
-0.00656802
0.00120688
0.000115786
0.000246394
-0.000366441
-0.00887407
0.00227945
0.000446632
0.0072961
0.00718038
-0.0137975
0.00861401
-0.000705689
-0.0012323
-2.94408e-07
0.00423784
0.0112425
-0.000113818
8.65887e-07
0.000177775
0.000220051
0.000114074
-0.00486812
-0.00840714
-0.00838006
6.56499e-08
0.000164421
8.83527e-07
0.000643069
8.04638e-07
1.93014e-07
1.25655e-08
-0.000110949
0.000264003
0.000416183
-0.000135012
-0.000106105
0.000279307
4.61495e-05
0.000805746
0.000477121
0.000234399
1.19282e-05
-1.66317e-05
0.000217339
0.000465787
-0.000132207
-0.00327728
0.000800024
0.00131308
-6.39734e-05
0.00943809
7.15155e-05
0.000149076
-2.03639e-05
0.00131294
0.00220602
0.00221469
0.00422497
0.0123936
0.00189139
0.00412381
0.0124178
0.00300682
0.000856274
-0.000178343
0.000686807
0.00137035
0.00314792
0.000672621
-0.00011455
-0.00428871
-0.000110707
-0.000103565
-0.000168883
-7.40438e-05
5.07203e-05
0.000177225
0.000353446
-0.000191832
-0.00136818
2.47574e-05
7.04835e-06
-4.52282e-06
-0.00214984
3.88979e-05
-0.0020528
-0.000184307
9.1575e-05
0.000211948
-4.34799e-05
-7.33943e-05
-7.90604e-08
6.36973e-05
-0.000279938
-0.000299749
0.000110433
0.000580978
-0.000411573
-3.13285e-05
-0.000169692
0.000159814
7.82902e-05
0.000154359
-0.000114438
0.000123462
-0.00654165
-0.000321139
0.000420745
-0.0015013
-0.00120713
0.00017869
9.47486e-05
-1.50903e-08
-3.68672e-05
1.70705e-08
1.00475e-07
1.51805e-07
-0.000294879
-0.000403007
-0.00018654
-0.000270365
-0.00172373
-0.0016256
-0.00169746
-0.0133673
-0.0103281
0.00179929
-2.01957e-07
-0.00179946
0.0186816
0.00837908
-0.000280889
-0.000172144
-6.87143e-06
6.52747e-06
0.00133811
-0.00174304
0.00211776
-0.00170496
0.000141182
0.00127046
-0.000384866
0.00169739
-0.000844968
-0.000896395
-0.000708
-0.000712831
-0.000820821
-0.000712645
-0.000719771
-0.000915964
-0.000853052
-0.000744559
-0.000239326
0.000229818
-0.00031246
-0.000854867
0.00021046
-3.33726e-05
-0.000678738
3.14706e-08
0.000678716
-0.000210508
0.000854884
0.000239314
0.000312453
-0.000229834
0.000168619
-4.54881e-05
0.000744798
0.000853106
0.000915971
0.000719791
0.000712691
-0.000381032
0.000186502
0.000156595
0.000384767
-0.000391096
0.00071296
0.000707991
0.000896227
0.000844966
0.000713224
-7.0444e-05
0.000175377
7.82802e-05
0.000234871
0.000864415
-3.00302e-07
0.000291028
-0.000234729
-7.83301e-05
-0.000175171
7.0709e-05
-0.000275801
7.89963e-05
0.000986996
1.72034e-05
0.00185616
-0.00185629
-1.94309e-07
-0.00233963
-6.91248e-06
-0.00272853
6.71356e-05
0.00205282
0.00209786
0.000184339
-0.00280633
-0.00189635
0.00134673
-0.000121991
-0.00124367
-0.00180522
7.58508e-05
9.79082e-05
0.000105016
9.17138e-05
1.75994e-05
-0.000184393
-0.000331809
0.00423821
-0.00333202
-0.0114266
0.00625951
0.011543
0.0043047
0.0164808
0.00379975
0.00673675
0.0176226
0.00570377
0.0125801
0.00861431
0.00600668
-0.0137982
0.00466416
-0.000366711
-0.00156092
0.014979
-0.00452124
0.00751782
5.1706e-08
-0.00751831
0.0045215
-0.0149784
-0.00600663
0.0137982
-0.0125796
-0.00861408
-0.00570356
-0.0176221
-0.00673617
-0.00379958
0.0107664
0.0117007
0.0114266
-0.0115426
-0.00430441
-0.00625964
-0.0178081
-0.00759171
-0.0103282
-0.0148026
-0.00642334
0.0101176
-0.0129631
-0.00185934
0.0206703
-0.0206702
0.0129632
-0.0101178
0.00642267
0.0148014
0.0103283
0.0133681
0.00759139
0.0178073
0.0214065
0.0210502
-0.00386505
0.0186815
0.00696791
0.00837903
0.00653716
-0.000164003
1.23572e-06
0.000164426
-1.68241e-07
0.0112429
-0.0112428
0.000455859
-0.00653737
-0.00837925
-0.00696841
-0.0186818
-0.0210508
-0.0214058
-0.0173411
-0.0178052
-0.019508
-0.0175296
-0.0177502
-0.021142
-0.0203789
-0.0177761
-0.00587855
0.00166814
-0.00113415
0.0136886
-0.0138208
0.0105606
-0.0099747
0.00780977
-0.0069695
0.00552412
-0.00467452
0.00374315
-0.00300084
0.00245129
-0.00185549
0.00159381
-0.00115327
-0.00108421
-0.00092252
-0.000830284
-0.00127053
-0.00133842
-6.68888e-06
0.00174305
-0.000987088
-7.90936e-05
0.000275912
-0.00169742
0.000204867
-7.58273e-05
-9.78684e-05
-0.000104933
-9.16968e-05
-1.72838e-05
0.000184442
0.000331716
-0.0042382
0.00333191
0.00116806
0.00320532
-0.00083394
0.00791178
-0.00791168
-0.00320525
-0.00116804
0.000834007
0.00248247
-0.011701
-0.010766
0.0114989
-0.0129197
-0.00349028
0.000319427
0.00150115
-0.00257744
0.00235931
0.00286716
3.73875e-08
-0.00286698
0.00349023
-0.0046641
0.00887337
0.000366251
0.00994902
-0.00994936
-0.0088737
-1.1273e-07
0.00628342
0.00656767
-0.00656789
0.0012069
-0.00628332
0.000446668
3.4776e-07
0.00624786
0.000705422
-0.0071803
0.00192305
-3.56811e-07
-5.06821e-07
1.55587e-08
0.00853181
-0.00654328
-0.0194911
0.00424629
-0.0159
0.019085
-0.017671
0.0154657
-0.0154662
-0.00164954
-0.0135361
-0.00101884
0.0123605
-0.010173
-0.000355821
0.00891066
-0.00730631
-9.87673e-05
0.00616832
-0.00502025
8.92605e-06
0.00409059
-0.00331552
6.72731e-05
0.00260672
-0.00213364
0.000115177
0.00162765
-0.0013842
0.000184323
0.00109613
0.000447277
0.000930166
-0.000930244
3.33352e-05
0.000191617
-0.000449079
-0.000406824
1.70752e-08
0.000283032
-0.000283031
-0.000310757
1.35887e-08
0.000319845
-0.00031985
-0.000248877
-2.30654e-08
0.000602889
-0.000603015
2.07843e-05
-2.52814e-07
-0.000159567
0.000160097
-0.000114866
0.000572243
0.000279954
0.000304804
0.000160948
0.000639255
0.000233569
-0.000542723
-0.000106709
0.000411602
-0.000580958
0.000560212
0.000279928
0.000299807
9.58748e-05
0.000595027
0.000104121
-0.00046503
-8.12492e-05
9.47693e-05
-0.000450119
0.000579657
6.7358e-05
6.74824e-05
-0.000131132
-0.000178471
-0.000226802
-0.0002683
-0.000267599
-0.000154335
1.35542e-05
0.000448303
0.0133985
0.0112347
0.0106705
0.0149533
-0.0157203
0.0120117
-0.0114902
0.00892221
-0.00797648
0.00632418
-0.00531575
0.00428924
-0.00340031
0.0028063
-0.00209816
0.00180512
-0.000141099
0.00170506
-0.00211787
0.00233984
-0.00302111
-5.03735e-08
0.00302091
-0.00378784
0.00340078
-0.00267212
0.00327761
-0.00429302
9.70194e-05
-0.00411384
0.000243831
0.00339981
-0.000187545
0.00219302
0.00253398
0.000270506
-0.00327754
-0.00360457
0.00281679
-0.000198197
-0.00215005
0.000204655
0.00154318
-0.00137528
0.000158505
0.000830198
-0.000108645
-0.000156612
0.000391033
-0.000579688
-0.000233547
-0.000639259
-0.000160892
-0.000304731
-0.000279819
-0.000572076
0.000114415
-0.000154389
-2.07128e-05
0.000260798
-3.11626e-05
-0.000411593
-5.24362e-06
0.000106696
0.000580955
0.000542739
0.0004501
-9.48057e-05
-9.46019e-05
0.000248898
-1.24116e-08
-1.80845e-08
-1.75698e-08
2.9346e-08
5.22512e-08
5.688e-08
1.00036e-07
3.86567e-08
2.4632e-08
1.68551e-10
2.45838e-07
0.00437887
-0.000178708
-0.00751684
0.00123214
-0.0164801
-0.00729599
0.0129193
-0.000319449
-0.00150111
-0.00120709
-0.000115937
0.000305866
-0.00129568
-0.000607943
-0.0046143
-0.0044512
0.0100666
0.0141325
-0.0210965
0.000174666
0.0177736
-0.0149674
0.0171816
0.000236191
-0.00412308
-0.0124191
-0.0123928
-0.0120856
-0.00719345
-0.00745395
-0.00123558
-0.00289429
-0.00206187
-0.00389219
-0.00206447
-0.00125111
-0.000625897
-0.000416897
-0.000648597
-0.000122816
-0.000410771
-7.08113e-05
-0.0131769
-0.0116219
0.00902743
0.00804314
0.000611647
-0.0104522
0.00041944
0.000143212
-0.00235922
0.00257763
-0.00248253
-0.000179438
0.00611098
-0.000447109
-0.00227963
0.00156106
-0.00528766
-0.00116927
-0.00535015
1.46358e-07
3.09496e-07
1.00263e-06
3.22118e-07
-2.64677e-07
-3.4573e-07
-2.90766e-07
-5.9489e-07
-2.67165e-07
8.41447e-09
6.25703e-08
-0.000229804
0.000229795
0.000322186
-6.88026e-06
-8.63573e-05
-0.000165899
-0.000272485
-0.000355293
2.01283e-06
-0.00125543
-0.000785925
-0.00047032
-0.000175513
5.49018e-05
0.000132624
-0.00437633
-0.00398525
0.0032773
0.00286142
0.000263377
-0.00344718
0.00419083
0.000351093
-0.00519946
0.00590966
0.000457167
-0.00754015
-0.000298123
-0.00859974
0.00675945
0.000503721
-0.00943685
0.0103653
0.000675165
0.000131725
-4.2208e-05
-0.00017461
-0.000403523
-0.00598897
0.00481275
0.000379348
-0.00654232
0.00755731
-0.000321393
6.47354e-05
-0.00221335
-0.00422383
-0.00184807
-0.0031286
0.00875851
-0.0114987
0.0354559
-0.00189173
0.00911764
-0.00300698
-0.00840664
-0.0048682
-0.00151506
-0.00314764
-0.000855491
-0.000148314
-0.00220433
-0.00131162
-0.00131202
-0.000799111
-0.000465384
-0.000217088
-0.000232267
-3.77448e-05
7.86188e-05
0.000127166
-0.00281706
-0.00253443
0.00215007
0.00189607
0.000187471
-0.00219305
-0.000270534
-0.000176335
-0.00019835
-0.000349094
4.88055e-05
0.000280565
0.00360408
-0.000238218
-0.000145101
0.00501992
-7.42503e-06
-0.00616912
9.94526e-05
0.00730595
-2.45371e-05
-0.00891147
0.000356858
0.0101724
-5.36035e-05
-0.012361
0.00101909
0.0135359
-0.000181805
-0.0164613
0.00287757
0.0182986
0.0039925
0.00128279
-0.000246644
0.000246645
-0.0182991
-0.00287688
0.0164609
-0.00128306
0.0176711
-0.00853158
-0.0190853
-8.45239e-08
0.0158992
-0.00424628
0.0194922
0.00587889
0.00654321
0.00116917
0.00528801
0.00227943
-0.00192328
-0.00624828
0.00718092
-0.000705569
0.00729615
-0.0061107
-3.60918e-07
7.46536e-08
-1.07959e-08
-4.69271e-08
2.47038e-08
6.20509e-08
0.0016502
-0.0143776
0.0123562
-0.0106885
0.0091382
-0.00913876
-7.24248e-05
0.00760255
7.2872e-05
-0.00642846
3.66069e-05
0.00517282
5.64801e-05
-0.0043265
7.84035e-05
0.00337365
4.33647e-05
-0.00280887
0.000110945
0.00212818
4.17545e-05
-0.0017997
0.000178093
0.0013203
9.94227e-05
-0.00116507
-1.29011e-08
0.00116499
-0.000447245
-0.0010962
-0.000184344
0.00138408
1.91274e-05
-0.00162772
-0.00011512
0.00213363
1.23583e-05
-0.00260695
-6.71787e-05
0.00331531
4.49583e-06
-0.00409105
-8.59759e-06
-5.64998e-05
0.00432635
1.88027e-08
-0.00337389
0.0028089
-0.00212827
0.00179967
-7.51354e-08
-0.00132036
-9.94962e-05
-2.64502e-05
-7.12969e-05
-4.18481e-05
-0.000110647
-0.000168624
-0.000239949
-0.000318342
-0.000363116
-0.000309793
-0.000366284
0.000366407
0.00535002
0.00745422
0.00123519
0.000308659
0.0143775
-4.48459e-05
-0.0123567
-0.000415274
0.0106878
6.88234e-05
0.000204827
2.06884e-07
0.000415976
5.33309e-08
-6.20094e-08
7.29419e-05
-0.00760275
0.00642832
-0.00517309
-3.65715e-05
-4.48949e-08
-9.27209e-08
-2.90974e-08
-7.84302e-05
-2.89371e-08
-0.000110839
-4.97005e-08
1.11062e-08
-0.000177967
-1.96096e-08
1.93905e-08
0.000449085
-0.000191628
0.000203591
-0.000276558
0.000276525
-0.000203588
0.000613107
-7.99458e-05
0.000254376
-0.000589334
-0.000125917
1.36017e-05
-0.000529244
0.000586225
0.00022244
0.000651249
0.000171806
0.000303561
0.000581919
0.000289814
-9.92573e-05
-0.000221038
-7.53077e-05
6.02985e-08
-3.83822e-08
7.52409e-05
-0.000613156
-0.000254371
7.98887e-05
-0.000210846
0.000125831
0.000529218
-1.36095e-05
-8.55729e-05
8.12572e-05
0.000465054
-0.000104097
-0.000594959
-9.58685e-05
-0.0002998
0.000221278
0.00022104
-1.95364e-08
0.000100805
0.000210797
7.99572e-06
4.23693e-05
0.000300411
-0.000221265
-0.000110412
-9.68642e-09
-4.23649e-05
-0.000100819
0.000406862
-8.09729e-06
2.64235e-05
-2.24816e-08
1.82844e-08
2.10787e-08
8.64187e-08
-7.24679e-08
9.91228e-08
-0.000190895
4.51916e-05
0.000191106
-1.32174e-05
0.000181411
-0.0136889
-0.000447738
0.013177
-0.000675436
-0.00902849
0.00029729
0.00754012
-0.000456921
-0.00591079
-0.00892202
0.000399197
0.00759219
-0.00957806
9.31321e-05
-0.00874931
0.010887
-0.0134179
-3.73746e-05
-0.0121226
0.000350833
0.0114892
-0.0120108
-0.00804526
0.0104524
-0.000611056
0.0157197
-0.000235399
0.0149678
-0.0177726
-0.000174492
-0.0171825
-0.0149528
-0.0106715
-0.000419886
0.0116208
-0.0112342
-0.0133998
0.00312873
-0.00030595
0.00129544
-0.0325127
0.000608396
-0.000176371
0.00461389
-0.0345122
0.00445143
-0.0141325
-0.0100671
0.00486767
5.17324e-07
0.000113812
0.000643128
0.0233655
-1.58781e-08
0.0196062
-0.0196059
0.000219841
-0.0159907
3.77631e-05
0.0134187
-0.0108869
0.012121
-0.000350872
0.00874809
-9.33786e-05
0.00957863
-0.0075919
-0.00039969
0.00611686
-0.00011459
0.00654323
-0.00508643
-0.00032442
-0.000805101
-0.000476709
-0.000234094
-1.18111e-05
1.66981e-05
-9.9291e-06
0.000113657
9.3436e-05
0.000117447
-0.00175952
-0.00154359
0.00137519
0.00124354
0.000121815
-0.00134691
-0.000204779
-0.000142571
-0.000104283
-0.000158385
3.94126e-05
0.000115998
0.000314653
-0.00172361
0.000446059
0.00028169
0.000162922
0.000191728
0.000449113
0.000821222
-0.00162552
0.000184925
0.000110856
0.000115205
0.000114817
9.69577e-05
2.09805e-05
-0.000279368
-0.00137022
-0.000686501
-0.000416129
-0.0006729
-4.64214e-05
0.000110921
0.000134512
-0.0115661
0.0128933
3.85062e-08
0.0106677
-0.0106674
6.22011e-05
0.00891871
-4.13772e-08
0.0072825
-0.00728244
3.92772e-05
-0.00531289
-9.72964e-05
0.00429316
-0.00327764
0.00411326
-0.000243717
4.19516e-05
-0.000353673
-0.000263931
-0.000162299
-0.000177291
7.98456e-05
6.12716e-05
-0.003401
-6.72747e-05
0.00272862
-0.00205308
0.00267187
-0.000184228
0.000103674
-5.07043e-05
-8.22105e-05
6.84548e-06
7.40847e-05
0.000168979
0.000443226
0.000280782
0.000172901
0.000760459
-0.0001928
0.00031904
-6.55255e-07
-0.000314436
0.00019086
-0.000759586
-0.000159829
-0.000169333
-4.54016e-07
-7.08998e-08
3.88815e-05
6.91926e-06
3.14363e-05
2.33082e-05
0.000130098
0.00156306
-0.000143813
3.50625e-05
0.000198256
0.00237575
-0.000186627
-0.000105737
-4.33585e-05
0.000105677
0.000145104
0.000182924
0.000267863
0.000154617
5.36171e-05
-0.0105618
0.000193546
0.00943632
-0.000504009
-0.00675969
0.0004037
0.00519927
-0.000350975
-0.00419197
-0.00632347
0.000324754
0.00508667
-0.00654295
0.000114489
-0.00611752
0.00799995
-6.22906e-05
-0.00891855
-0.000110756
-1.90355e-07
-7.98538e-09
-6.93936e-07
0.00017831
-0.000177592
-0.000113459
-0.000643041
0.0210963
-0.0233656
-0.000125048
0.00011591
-0.000131624
-0.000142979
4.2649e-05
-2.56923e-08
9.28545e-05
-0.000204596
-6.8601e-05
-0.000182747
-7.27121e-05
6.68091e-05
7.15132e-08
1.27209e-08
-4.5463e-09
-3.16728e-08
-2.68761e-08
3.22991e-09
6.43092e-09
-6.74808e-05
0.000131165
0.000178464
0.000226849
0.000268326
6.98504e-06
-0.00552446
0.000294997
0.0043759
-0.000280689
0.00398435
0.000348863
0.00344703
-0.00026342
-0.00286196
-0.00428916
0.00531484
-0.00011496
-0.000132883
-5.58703e-05
0.000271963
0.000416181
0.000624933
0.00036322
0.000318328
0.000240115
0.000168782
0.000165677
8.624e-05
0.000110726
4.16195e-05
6.66747e-06
-0.000322294
-0.00028198
-0.000163111
0.0011532
0.000143847
0.00108413
-0.000116048
-0.000186521
0.00162554
-6.73531e-05
0.000104317
0.000142598
0.00017638
0.000198496
0.000174795
-9.27437e-05
-6.68392e-05
-0.0003796
-0.00531593
-0.00481285
0.00598826
0.00654196
0.00696901
0.000321221
-0.00780978
2.43361e-05
0.00997438
0.000120919
0.000409901
0.0138187
0.00205969
0.00113422
-0.035457
0.0203801
0.0177791
-0.001669
0.00719153
0.0120858
0.0211428
0.0177509
-0.00875842
0.0175285
0.0195134
0.0178086
-0.00911755
0.0173414
0.0124176
0.0123942
0.00184836
0.0038906
0.00289833
0.00206463
0.00123904
0.00125511
0.000640731
-3.57508e-06
-0.000124014
-6.50177e-05
-0.00755798
0.00859783
7.03946e-05
-0.0103667
0.00422354
0.00221272
0.00131159
0.000798797
0.000785337
0.000350774
0.000469873
0.000238141
0.00300042
-0.00245132