/*--------------------------------*- C++ -*----------------------------------*\
| =========                 |                                                 |
| \\      /  F ield         | OpenFOAM: The Open Source CFD Toolbox           |
|  \\    /   O peration     | Version:  2306                                  |
|   \\  /    A nd           | Website:  www.openfoam.com                      |
|    \\/     M anipulation  |                                                 |
\*---------------------------------------------------------------------------*/
FoamFile
{
    version     2.0;
    format      ascii;
    arch        "LSB;label=32;scalar=64";
    class       volScalarField;
    location    "1.9";
    object      gradTx;
}
// * * * * * * * * * * * * * * * * * * * * * * * * * * * * * * * * * * * * * //

dimensions      [0 -1 0 1 0 0 0];

internalField   nonuniform List<scalar> 
2658
(
0.00858131
0.0125443
0.00405311
-0.000307302
-0.0174723
-0.0147676
0.0152323
0.0150405
-0.000273158
0.020943
-0.0142465
-0.0103832
0.0069487
0.00826258
0.00631728
-0.000557666
-0.000284038
-9.91813e-05
-0.00693947
-0.00899091
-0.00855449
-0.0198858
-0.0237673
0.0178344
-0.00752996
-0.00939921
-0.020232
-0.00289604
-0.0148156
-0.0159446
-0.0148155
-0.0202324
-0.00939976
-0.0237687
-0.00752953
0.0178342
-0.00957724
0.0045074
-0.0198825
-0.0085569
-0.00899073
-0.00693908
-0.000100515
0.000611363
-0.0118509
0.0110753
-0.0142463
-0.000540115
-0.000559661
0.00631746
0.00826302
0.00694852
0.0188503
-0.00399962
0.0211611
0.0174086
-0.00926742
0.000795687
-0.0327431
0.0175851
-0.00926688
0.017409
0.021161
-0.00399898
0.00438882
-0.0345874
0.00432246
-0.000359091
-0.0110654
-0.0110667
-0.000446536
0.0109494
-0.000753681
-0.0117404
0.000274134
-0.0123714
0.0158406
-9.65423e-05
-0.0134706
0.0150411
-0.0182069
-0.000361199
0.0196732
-0.0178539
-0.000456481
-0.000269429
-3.50071e-05
5.78288e-05
7.8786e-05
7.26877e-05
5.42887e-05
-0.000112498
0.0001011
-0.000703618
0.000470587
-8.7275e-05
-0.000583253
2.89208e-06
0.000586275
-0.000478871
0.000258192
0.00066301
0.000589141
0.000469774
0.000489414
-0.00100501
-0.000190316
-0.000136075
-5.23918e-05
0.000273401
0.000586922
0.000232338
0.000465088
0.000232305
0.000586927
0.000273383
0.000489449
-0.001005
0.000589191
0.000469833
0.000663003
0.000258141
-0.000478899
0.000586286
-0.000938454
0.000939982
-0.000703599
-8.72652e-05
-0.000583259
0.000470561
-0.000263546
-0.000647365
-0.000439809
-0.000399752
-0.000257103
2.80082e-05
-0.000121382
-0.00072311
0.000577018
0.000576716
-0.000121341
2.78679e-05
0.000267124
-0.000282572
-0.000324842
-0.000281911
0.000152765
0.000195254
-0.000569361
-0.00059242
-0.000494163
-0.000626287
-0.000613521
-0.000634733
-0.000495725
-0.000876131
-0.000794053
-0.000336374
-0.000386447
-0.0002822
3.27352e-06
2.0408e-07
-5.90709e-06
0.000269802
0.000383619
0.00034146
0.000807399
0.00101217
-0.000234218
0.000685399
-0.00178631
0.00215744
-0.00267478
0.00340767
-0.00417923
0.00528092
-0.00638079
0.0078939
-0.00937838
0.0113532
-0.0132155
0.015784
-0.0178492
0.0217441
-0.0217374
0.0230945
-0.0238635
0.0209424
-0.0174731
-0.000307375
-0.0147667
0.00432169
-0.0345868
0.00438892
-0.0103833
0.00413818
-0.000456546
-0.00026945
-3.51775e-05
5.76745e-05
7.88577e-05
7.27492e-05
5.43061e-05
-0.000112507
0.00010112
5.76672e-06
-0.000254829
-2.0013e-05
0.000354026
0.000354014
-0.000254851
5.79133e-06
-1.99345e-05
0.000113523
0.000940001
-0.000938508
6.53407e-05
0.000722777
-6.67817e-05
2.11412e-05
-0.00010595
6.91003e-07
9.47518e-06
9.73484e-05
6.69946e-05
9.73464e-05
-6.68891e-05
-0.000190283
-0.000463884
-0.000136044
0.00010242
0.000102428
-0.000463904
-1.9027e-05
0.000290969
-0.000346387
-0.000346432
6.1002e-06
0.000291015
-6.04085e-06
-6.18078e-05
-8.13832e-05
-7.54076e-05
0.000337945
-7.6735e-05
-2.42249e-05
-0.000560826
6.21156e-05
-0.000236836
0.000371382
0.00038217
0.000840818
0.00059621
-0.00161122
0.00111115
-0.00191238
-0.00191228
-4.69492e-05
-0.00204796
4.51396e-05
0.00241284
-0.00311971
3.54637e-05
0.00381907
-0.00480972
5.15305e-06
0.00584154
-0.00718054
-5.66573e-05
0.00857868
-0.0102563
-0.000175721
0.0121481
-0.0139229
-0.000341781
0.0170333
-0.0175539
-0.000966991
0.0269967
0.00440187
0.0316172
0.0316171
-0.00289553
0.00703601
-0.00254431
0.0100951
0.000519001
-0.00640198
-0.00640199
0.00697159
-0.000347132
-0.00822044
-0.00822033
0.00219825
-0.00264285
-0.011637
-0.0116371
0.00392937
0.0165173
0.00392947
0.0062901
0.018048
0.00761051
0.0103588
0.0133996
-0.0201203
-0.0117045
0.0114665
0.00753254
-2.65457e-05
0.00219833
-0.00132336
-0.0034104
0.0140428
-0.0102808
0.00637202
0.0148028
0.00846172
-0.0044926
-0.00603982
-0.00449238
-0.00341058
-0.0117043
-0.02012
0.00761065
0.0180486
0.00629054
0.0114665
0.00753267
0.00846282
0.0148016
0.00637099
-0.010281
0.0140424
0.00173412
0.0127662
-0.000323013
-0.0133248
0.0205664
-0.000325466
-0.00366304
-0.021174
-0.000381379
-0.00247884
0.000150038
0.000123408
6.02871e-05
3.4493e-05
2.01908e-05
7.78798e-06
-5.35071e-07
-4.4196e-05
0.00180897
-0.00195771
0.0019707
-0.00177991
0.002086
-0.00276181
0.00336717
-0.004322
0.00526844
-0.00656983
0.00793125
-0.00961006
0.0114588
-0.0134697
0.0158397
-0.0178533
-0.000272964
0.0150406
0.0152304
0.0109515
-0.00851954
0.00027425
-0.00851787
0.00801139
0.0110729
0.0109815
-0.0089326
-0.00867913
0.000342247
0.00767845
6.3545e-05
0.01146
-0.00019132
-0.0131422
0.0128008
-3.03787e-05
-0.0107434
0.00992955
-0.0120215
-2.54035e-05
-0.0150429
-5.99523e-05
0.0176567
-0.0198052
-0.000107722
-0.0238636
-0.00077481
0.0110753
-0.000540153
0.00173448
-0.0211742
-0.00366287
0.0006465
-0.000291277
-0.000232345
-0.000198329
-0.000121172
-6.07942e-05
-2.78808e-05
-1.19054e-05
-4.75173e-06
-9.3542e-07
9.49067e-06
7.08843e-07
-0.000105889
6.07137e-06
2.11303e-05
0.000722767
6.52945e-05
-2.86216e-05
-0.000904925
0.000805489
-0.000809588
0.000871305
-0.000370496
0.00160673
-0.000469113
0.00120765
0.000109011
-0.00171571
-0.00172218
0.00146787
5.71632e-05
-5.13599e-06
-0.000163836
3.94836e-06
0.000185465
0.000375001
0.000488375
-3.93748e-05
4.69806e-05
0.000212342
2.47403e-06
-7.80469e-05
-7.76576e-05
-0.000127546
-0.000215712
-0.000194647
7.89815e-05
8.72825e-05
4.07804e-05
-0.00218035
0.00234927
-0.00306761
0.00308654
-2.25792e-05
-0.00238827
-2.08511e-06
4.98272e-07
2.436e-06
5.42277e-06
-0.000133687
-0.000203029
-0.0003604
-0.000339054
-0.000507303
-0.000619405
1.45508e-05
6.34676e-05
7.10571e-05
-0.00553561
0.00591603
-0.00733711
0.00737709
-6.90598e-05
-0.00604183
0.00484638
-4.31515e-05
-0.00386318
-4.64229e-06
0.00378983
-0.00481738
1.3803e-05
-0.0035351
0.00285038
1.31333e-05
3.82133e-06
-7.28246e-05
-0.00204771
6.66877e-05
0.00149903
6.35265e-05
-0.00164103
-0.000832814
0.000318
-8.72704e-05
-2.39931e-06
-1.24671e-05
2.81979e-05
-3.67084e-05
2.91316e-05
-0.000201935
-0.000300143
-0.000182345
0.000105965
-9.50519e-05
-0.00010805
-5.34468e-05
8.66625e-05
0.000159359
0.000251402
7.80113e-06
8.04571e-06
-0.000300204
-0.000475215
-0.00108408
-0.000738372
-0.00136417
-0.00242831
-0.000473853
-0.000113211
6.8768e-05
-0.0120212
0.0128001
-0.0150433
0.0150414
-0.000191839
-0.0131414
0.0107828
-0.0001109
-0.00909056
-1.54125e-05
0.00888196
-0.0107435
-1.28965e-06
-0.0083308
0.00680388
9.95807e-06
4.80908e-06
6.46632e-06
-9.4563e-05
-0.0031196
3.64042e-05
0.00241289
4.52573e-05
0.000174643
-0.0028115
0.00329762
-0.00434192
-0.00434187
-1.07779e-05
0.00518765
6.33889e-05
-0.00657656
-1.01312e-05
0.00779663
-4.41499e-06
-0.00955346
-1.95332e-06
0.0112274
-0.000205089
-0.013113
7.64284e-05
0.0156143
-0.000910938
-0.0165839
0.000512392
0.0216062
-0.00365807
-0.0171791
-0.00231163
-0.0171787
0.0044018
0.026997
-0.000966737
-0.0175529
-0.000725461
0.0170326
-0.000341649
-0.0139228
-0.000368396
0.0121487
-0.000175406
-0.0102547
-0.000165065
0.00857912
-5.63429e-05
-0.00718022
-6.3249e-05
0.00584153
5.46992e-06
-0.00480954
-4.49098e-06
0.00381911
3.57292e-05
0.000109474
-0.000171771
-0.000150146
-0.00011948
0.000473496
3.54272e-05
-0.000235813
-0.000352329
-0.000449807
-0.000586864
-0.000764582
-0.000900205
-0.00073201
0.000174829
0.00139206
-0.00140306
-0.0113142
-0.0113143
-0.0116689
-0.00964998
-0.00341952
-0.00127902
-0.00524323
0.00848405
0.0136747
0.000259324
6.95461e-05
0.000797284
-0.00365758
0.0216049
0.000512909
-0.0165838
-0.00154309
-0.000536707
-0.000522485
7.72348e-05
-0.013113
0.0156139
-0.000910931
-2.68159e-05
-0.000155229
-0.000205444
0.0112259
-1.50531e-06
-0.00955278
-0.00027518
-0.000447216
-0.000353954
-0.000256844
-1.05153e-05
0.00518757
-0.00657656
0.00779635
-4.38648e-06
-0.000156733
-0.000126531
1.55091e-05
9.86972e-06
1.13388e-06
-9.3019e-05
-4.69274e-05
0.00200587
0.00011819
0.00200603
0.000174505
-0.00281135
-1.84216e-05
0.00329797
0.000109614
-9.4571e-05
-0.000166748
-1.83656e-05
3.97057e-05
-7.27964e-05
-8.72471e-05
-0.0016411
6.35324e-05
0.00149901
0.000317954
0.00111109
-0.000236832
-0.00161127
0.000140015
0.000596222
0.000840827
0.000382118
0.00101221
0.000371402
0.000133745
-0.000315691
0.000178295
-7.67472e-05
-8.13507e-05
0.000337935
-7.545e-05
5.13934e-05
2.16219e-06
2.6342e-06
2.14277e-06
4.70105e-07
2.87883e-06
5.14085e-05
-6.01082e-06
0.0001783
-5.24365e-05
-0.000315712
0.000133754
1.38815e-06
0.000100191
8.5527e-05
-5.48929e-05
-0.000332166
9.99591e-05
-0.00017744
0.000331729
0.00101141
-0.000595523
0.000198325
9.06404e-05
5.13553e-05
4.82599e-05
5.30891e-06
-1.82704e-06
-1.84459e-06
-6.37955e-06
-1.38728e-05
-3.0995e-05
1.89894e-05
2.67886e-05
6.3291e-05
0.000171324
-0.00125127
-0.00338747
0.0136744
-0.00254426
0.00703612
-0.015174
-0.00703101
-0.00703034
-0.015175
-0.00771892
9.89672e-07
-0.0136305
0.0228287
0.00156481
-0.000931873
-0.0164977
-0.00153301
0.00970493
-0.00729196
-0.0158608
-0.0131047
-0.0135189
-0.00920989
0.000893827
0.00195384
0.000895608
0.000260841
-0.0129016
0.000896035
-0.00771812
-0.0136308
1.64573e-06
0.00440005
0.00156532
-0.0164978
-0.000931598
0.00206882
-0.000325369
0.0205667
-0.0133254
-0.000322528
0.0127671
0.00100818
-0.000570951
0.00195447
0.00157799
-0.00428636
0.00440035
0.00306848
0.000183747
-0.00150517
-0.000570358
-0.000186054
0.00100762
-0.00189536
-2.66386e-05
-0.00132324
0.000646504
-0.000291352
-0.000775073
-0.000315882
-6.27578e-05
-5.1359e-06
3.8694e-05
-0.0165713
0.0176567
-0.0198061
0.0196738
-0.000362057
-0.0182064
-5.97495e-05
-0.000285525
0.000631589
0.000388371
-0.000193138
-0.000143729
-0.000107021
-7.84481e-05
5.68167e-05
0.00447665
-7.43826e-05
-9.15499e-05
-0.00271033
0.000139234
-0.00270795
0.00328043
0.000201358
-0.00415402
-0.0041888
0.00334202
0.000103222
0.00515903
0.000279296
-0.00613641
-0.00624109
0.000104803
0.0076791
0.00034127
-0.00867791
-0.00893318
6.38597e-05
0.010982
0.000273841
-0.0117394
-0.012373
-9.57357e-05
0.000776001
0.00141601
0.00461209
-0.000247479
-0.000275973
-0.00011625
-0.00044933
0.00295624
0.00313941
0.00405218
0.00216166
0.00129498
0.000807949
0.000499851
0.000282767
2.63199e-05
-0.000103135
-0.000207277
-0.00195061
0.000172993
-0.00194981
0.00237252
0.000246265
-0.00301597
-0.00301687
0.00237339
0.00013364
9.96844e-05
6.40482e-05
-2.69143e-05
4.76489e-06
-0.000132912
-0.000158934
0.00148271
-0.000158415
0.000956311
0.000131485
-0.00119568
-0.00119667
0.000957431
-0.000101394
0.000459317
-9.00152e-05
-9.06524e-05
0.000652689
-7.41249e-05
0.000459745
-0.000469704
0.00160722
-0.000370264
0.00146781
0.000108966
-0.0017218
-0.00171666
0.00120905
-0.000132842
-2.69074e-05
-2.4121e-06
-5.42501e-07
6.66503e-05
-0.00178634
-4.41338e-05
-0.0021805
1.32419e-05
-0.00306782
-4.57701e-06
-0.00386311
-4.31168e-05
0.00484679
-0.00432252
0.000103213
-0.00418848
-0.00415502
0.000200976
0.003342
-0.00271001
-0.00270866
0.000138888
0.00212288
8.97212e-05
0.00336771
-0.00276233
0.00308677
-0.0023883
-2.25666e-05
0.00208653
5.71815e-05
-0.00178037
0.00197087
-2.10758e-06
0.00234941
-0.00195783
0.00180897
-0.00090497
-1.24276e-05
0.000805527
1.23311e-05
-0.000809661
4.79889e-06
0.000871628
0.000547273
-0.000282181
3.31975e-06
2.90952e-05
-3.66056e-05
2.82011e-05
0.000212276
0.000488389
0.000473594
-0.000119524
-0.000150171
-3.93141e-05
-0.000127642
-0.000172419
-0.000221905
-0.000215795
-0.000338887
-0.000289009
-0.000287432
-0.000221106
6.31391e-05
-0.000287987
-0.000291171
-0.000506624
-0.000738737
-3.25906e-05
-2.82294e-05
0.000376727
0.000376321
-0.00136591
-0.0116698
-0.00965859
-0.00342338
0.0217439
0.000100311
-0.0217368
0.000259452
-0.0118507
-0.000449288
-0.000381323
-0.0024788
0.000150174
0.000123378
6.04216e-05
3.44451e-05
2.01956e-05
7.79236e-06
3.63967e-05
-0.00267487
-6.62438e-05
-0.00353516
1.37562e-05
-0.0048176
-7.84067e-06
-0.00604214
-6.89764e-05
0.00737738
-0.0065705
0.000104531
-0.0062407
-0.00613774
0.00027929
0.0051586
0.00511608
-0.000293804
0.00369847
0.000329057
-0.00445881
-0.00445979
0.00369946
-0.000293664
0.00511507
-0.000119791
0.000511742
0.000291493
0.000136254
0.000285111
-0.00010134
-0.000182513
-0.000495201
-0.000638071
-0.000473744
-0.00025705
-0.000399889
-0.000439985
-0.000595351
-0.000647454
-0.000263555
-0.00038639
-0.000336384
0.000198576
-0.000794207
-0.000876446
-0.000300181
-0.000163912
3.94307e-06
0.00018538
0.000383593
0.000269777
-2.86909e-05
-5.85023e-06
1.00771e-07
-0.000450024
0.000685437
-0.000832833
-0.000234285
0.000341589
0.000807231
0.000374763
2.61464e-06
4.68475e-05
8.7154e-05
0.00215748
4.08193e-05
0.00285043
-7.81484e-05
-7.71463e-05
7.86094e-05
0.00340757
-0.00417977
-7.42158e-05
-0.00553625
1.0074e-05
0.00680379
-0.00733727
-1.5404e-05
-0.00909099
-0.000111069
0.0107829
-0.00961047
0.00793206
-0.000143278
7.91831e-05
-0.00833123
-1.48562e-06
0.00888241
-2.79147e-05
-1.19424e-05
-4.75025e-06
-8.8872e-07
3.85944e-06
6.61431e-06
4.75067e-06
-0.000126399
-0.000156462
-2.61835e-06
-2.53753e-06
-1.27973e-05
-2.53399e-05
0.0138477
2.00766e-05
-4.00079e-06
-5.23038e-05
0.0181333
0.000100232
-0.000336741
-0.000211974
-0.00014284
-9.8097e-05
-6.60754e-05
-4.03696e-05
-0.000141633
0.00203549
0.00148615
0.00148532
0.00203657
-0.000141594
-4.0361e-05
-6.61891e-05
-0.000207146
0.00328155
-0.000102935
-7.90364e-05
0.000106167
0.000283051
0.000499979
-0.000119633
-6.44608e-05
-9.12296e-05
-7.83437e-05
5.71106e-05
0.00447675
-0.000134094
-0.000193715
6.29402e-05
0.00528104
-0.00638104
-8.14958e-05
0.00789406
-0.00937866
-6.90404e-05
0.0113535
-0.0132162
2.1077e-05
-0.0165715
-5.21278e-05
0.0181319
-0.0178504
-0.000725125
0.0157836
-0.000369023
-0.000473433
-0.000113804
1.4016e-05
-0.000358984
-0.000203606
-0.000301672
-0.000615509
-0.000476309
-0.00107693
-0.00127862
-0.00243344
-0.00524596
0.0084835
-0.0095769
0.0045056
-0.0135192
-0.0158606
-0.00729191
0.00970512
-0.00153338
0.000611021
0.0136742
-0.000115401
0.0230946
-0.000198382
-0.000121176
-6.09457e-05
-6.59645e-05
-0.000130526
-4.26085e-06
-2.66025e-05
-0.000155137
-1.29628e-05
-0.000211935
0.000107491
0.000149339
-0.000142848
-9.80059e-05
-0.000401057
0.00767393
0.00555613
0.000383498
-0.00629549
-0.0062965
0.00555732
-0.000401128
0.00767302
-0.000117804
9.50843e-06
0.000313293
-6.52517e-05
0.000147423
0.000222224
0.00062408
-6.06922e-05
0.0110709
0.00801291
-0.00054118
-5.49668e-05
-0.000266954
0.00237883
-0.000138387
0.00697166
-0.000197412
6.95861e-05
0.000797509
0.00306743
0.0100956
-0.00428688
0.000183336
-0.001505
-0.00920936
0.0228282
-0.0131043
0.000894143
-0.000186298
-0.000903026
0.00413823
0.000795265
0.00175941
0.00421454
7.90883e-05
-0.000753859
0.00175871
0.0125435
0.0085841
0.0217259
0.0120443
0.0175857
0.0194987
-0.000359201
0.00224912
0.0013452
0.000832269
-0.000117597
0.000807483
0.00129513
-6.01423e-05
-0.000541373
0.000223199
9.56432e-06
0.000251327
0.000159443
8.68874e-05
-5.01836e-06
4.38231e-07
2.2694e-06
5.08466e-06
7.13206e-05
0.00591643
7.24207e-06
7.50671e-06
6.94614e-05
0.0138466
3.8994e-05
-0.000284484
-0.00019262
0.000387996
0.000631498
-5.98443e-06
-6.36649e-05
-0.000246832
-0.000316518
0.00141605
0.00461151
0.00295588
0.000775821
8.00588e-05
0.00216012
0.00133167
0.00314014
0.00062481
-0.00010696
0.00526915
-5.33888e-05
-0.000107812
-0.000201573
-9.47567e-05
2.64913e-05
0.000148278
0.000317527
-0.000336585
0.00132529
-0.000165652
-6.34208e-05
-4.50862e-06
0.00378992
-7.90957e-05
0.00212296
8.96676e-05
8.55184e-05
0.000100172
1.38886e-06
-0.000177467
0.000125357
9.99342e-05
-0.000332204
-5.4901e-05
5.34483e-07
0.00101129
0.000331966
-0.000723211
-0.000605878
0.000651279
-7.44342e-05
0.000266869
-0.000473087
7.86694e-05
0.00992942
-6.85284e-05
-0.000107578
0.00206889
-0.000197104
-0.00189588
0.000113509
0.000626388
-9.69228e-06
-0.000130953
-4.47666e-05
-0.000659878
-8.16168e-05
-3.01827e-05
-6.61261e-05
-7.99719e-06
-0.000450037
1.23317e-05
0.000547595
0.0134003
0.0103591
0.000183623
-0.00128194
0.000183088
0.0188506
0.0217269
-0.00029984
-0.000182343
0.000106158
0.000109011
0.0014678
0.00120779
-0.00171584
-0.00172202
5.71842e-05
-0.00177994
0.000871299
0.000547529
-0.000336494
-0.00038651
-0.000282188
3.25232e-06
2.15335e-07
-5.89172e-06
0.000269887
0.000383584
0.000341483
0.000807581
0.00101219
-0.000832798
0.000371397
0.000382193
0.000840858
0.000133842
0.000596228
0.000626389
0.000596236
0.000840844
0.000382211
0.00101227
0.000371397
-0.000832773
0.000685392
-0.000234242
0.000807446
0.000341553
0.00038367
0.000269832
-5.90663e-06
-2.86312e-05
0.000805551
-0.000809592
0.0008715
2.9073e-05
3.36671e-06
-0.000282244
-0.000386579
-0.000336407
-0.000794363
0.000198397
-0.000876416
-7.41317e-05
0.000459724
-0.00015848
0.00148268
-9.00815e-05
0.000459311
-7.44697e-05
-0.000876096
0.000198293
-0.000370509
0.00160676
-0.000469133
-0.000132905
0.00095727
0.000956322
0.000131385
-0.00119652
-0.000141644
0.00203572
0.000139012
0.00212294
-0.00276204
8.98134e-05
0.00336716
-0.00386298
0.00308657
-2.25797e-05
-0.00238816
0.00208599
5.42924e-05
7.27151e-05
7.89143e-05
5.79769e-05
-3.48903e-05
-0.000269058
-0.000456075
0.0041384
-0.00341048
0.0140427
-0.0102805
0.0017343
0.0127666
-0.000322894
-0.0133252
0.00970493
-0.00729181
-0.0158602
-0.0135187
-0.0131042
-0.0136307
0.0228283
0.00440002
0.00306824
8.96014e-07
-0.00771922
-0.0151747
-0.00703106
-0.0129018
-0.00703062
-0.0151755
-0.00771903
-0.0136313
0.0228281
-0.0135186
-0.0131046
-0.0158607
-0.00729186
0.00970491
-0.0133253
0.0205664
-0.0211739
0.0140424
0.00173468
0.012767
-0.0102806
0.00637044
0.0148011
0.0103586
0.00761001
0.0180476
0.00629053
0.00392904
0.0114661
-0.0116375
-0.0116373
0.00392904
0.00629005
0.0180473
0.00760996
0.0103582
0.0133987
0.0148025
0.00637151
0.0082627
0.00694807
-0.00400002
0.0188499
0.0211606
0.0217249
0.0174087
0.0175851
0.0194984
0.0175855
-0.0327434
0.000794951
0.000795463
-0.00926836
0.0174084
0.0217249
0.0211608
0.0188507
0.00694767
0.00826262
0.00631782
-0.000557485
-0.000283767
-9.92072e-05
-0.00693942
-0.00899093
-0.00855506
-0.0198839
-0.0237669
0.00450619
-0.00957698
0.0217436
-0.0178496
0.0157836
-0.0132161
0.0113528
-0.00937857
0.00789357
-0.00638117
0.00528109
-0.00417937
0.00340763
-0.00267492
0.00215748
-0.00178637
0.00180892
-0.00195766
0.00197077
-0.00178018
0.00146769
0.00010885
0.00120886
-0.000469692
0.0016072
-0.000370332
0.000547293
-0.000112519
5.43095e-05
7.28263e-05
7.88564e-05
5.76842e-05
-3.51838e-05
-0.000269418
-0.000456386
0.00413819
-0.00341042
-0.00132341
0.00219818
0.000646334
-0.0082203
-0.00822036
0.0021982
-0.00132332
0.000646466
-0.00366295
-0.0211742
0.0205665
-0.00153321
-0.0164979
0.00156476
-0.00093193
0.00206893
-0.000325212
-0.00038136
-0.00247893
-0.00125139
-0.00247888
0.00156448
0.00439993
0.010095
0.00306838
-0.00254452
-0.00254436
0.0100952
0.000518626
-0.00640207
0.00697152
0.00697144
-0.000197332
-0.00640205
0.000183305
0.00157799
0.00195371
0.000894218
-0.00920974
0.000894857
0.000260175
0.0136746
-0.00338779
0.00440156
-0.00753002
-0.00939983
-0.0202335
-0.0148158
0.0316176
-0.017179
0.0216049
0.0216058
0.000512555
0.0170329
-0.000341532
-0.0139229
0.0121484
-0.000175277
-0.010255
0.00857886
-5.63509e-05
-0.00718008
0.00584163
5.40609e-06
-0.00480987
0.00381922
3.56276e-05
-0.00311964
0.00241292
4.51164e-05
-0.00204784
0.00149909
6.35478e-05
-0.00164092
-0.000236765
-0.00161114
-0.00161114
0.000133814
-0.000315606
0.000102445
-0.000463863
-1.90459e-05
0.000291011
0.000290971
-0.000346365
-1.81833e-06
0.000354023
0.000354013
-0.000254856
5.13502e-05
0.000576979
0.000576698
-0.00012137
0.000152756
-0.000281899
-0.000282603
-0.000473726
-0.000257066
-0.000399953
-0.000440045
-0.000647494
-0.000263603
0.000470587
-0.000703685
0.000101084
0.000331944
0.00101128
-0.00059554
-0.000332233
-5.49173e-05
-0.000583263
2.91615e-06
0.000586273
-0.000938417
7.12306e-07
0.000113514
0.000939977
-8.73071e-05
9.4824e-06
9.73728e-05
-5.1735e-07
7.76571e-06
2.01555e-05
3.4494e-05
6.03688e-05
0.000123537
0.000150178
0.000100303
-0.0217374
0.0230945
-0.0238634
0.0209423
-0.0178527
0.0158396
-0.013469
0.0114582
-0.00960963
0.00793089
-0.00656997
0.00526845
-0.00432224
0.00336746
-0.0027622
0.00208642
5.70744e-05
-0.00172177
-0.00171647
-0.00119592
0.00148539
0.000173089
0.00148591
-0.00195027
-0.00270822
-0.00271014
0.00334201
0.00328081
0.000200872
-0.00418862
0.00010347
-0.00432242
-4.30143e-05
0.00484651
-0.00481738
-7.8351e-06
0.00591607
-0.00553558
0.00447662
1.38759e-05
0.0037897
-4.52271e-06
-0.00306761
0.00234925
-2.10775e-06
0.00197075
4.77873e-06
-0.000809592
2.91976e-05
-8.7292e-05
0.000470592
-0.000263629
-0.000647443
-0.000439973
-0.000399783
-0.000257118
-0.000473039
0.000266838
-0.000121399
2.80387e-05
-0.000723076
0.000331727
5.74661e-06
0.000101104
0.00101136
-0.000703589
0.000939968
0.00011353
-1.99705e-05
-0.000254829
4.82748e-05
6.4068e-05
9.97135e-05
0.000133606
0.00014935
0.000107493
-5.47229e-05
-0.000266808
0.00237883
-0.00264311
-0.00603992
-0.00449252
-0.00189584
0.00100793
-0.000186487
-0.000322412
-0.00150498
-0.0164977
-0.000931806
0.00206881
-0.000197083
6.94858e-05
0.000259381
-0.011851
0.0110755
-0.0142463
0.00438873
-0.0345875
0.00432148
-0.0147671
-0.000306765
0.015231
0.0150404
-0.0174732
-0.000272865
0.00141583
0.00461211
-0.000247231
-0.00524485
-0.00965179
-0.0116688
-0.00136356
-0.0024383
-0.00342273
-0.00127851
-0.000476117
-0.00107395
-0.000740068
-0.000508428
-0.000614934
-0.000113529
-0.000473772
3.90232e-05
0.0181322
-0.0198052
0.0176562
-0.0182064
-0.000361875
0.0196735
-0.000107934
-0.000198284
-0.000381469
-0.000325431
-0.00366301
-2.67569e-05
-0.000570533
0.000183675
-0.00428631
9.78758e-07
0.00703607
-0.00289561
-0.0113145
-0.00140232
0.00139289
0.000174679
-0.000733167
-0.000900221
-0.000765208
-0.000586944
-0.000450055
-0.000352264
-0.000235804
3.55845e-05
0.000473543
0.000473565
0.000488363
-3.93089e-05
-0.000127837
-0.000216272
-0.000339944
-0.000358185
1.4241e-05
-0.00030114
-0.000203773
-0.00013416
-0.000192926
6.32132e-05
7.13423e-05
0.00680362
-0.00733727
0.00591594
-0.00604171
-6.90179e-05
0.00737731
-0.00909033
-0.00011083
0.0107827
-0.0131418
-0.000191226
0.01504
-5.91987e-05
-0.0150426
0.0128004
-2.57276e-05
0.0138472
-0.0165719
-5.23428e-05
-4.0147e-06
-0.000121018
-6.09054e-05
-3.03501e-05
-0.0107433
0.00888177
-1.17368e-06
0.00992897
-0.0120211
-6.88627e-05
6.98014e-05
-5.74311e-06
-6.36956e-05
-0.00011581
0.0136742
0.0006113
-0.00153324
0.00848297
-0.000315991
-0.00053968
0.00295525
0.00858198
0.0125429
0.00405135
0.00314724
0.000776366
-0.000285533
0.000631797
0.000388417
7.55316e-06
7.54004e-06
5.0796e-06
2.36744e-06
-7.82159e-05
-7.59038e-05
7.88455e-05
5.71222e-05
0.00447664
-0.00481746
0.00378981
-0.0038631
-4.31984e-05
0.00484665
-8.02626e-06
-1.19334e-05
-2.78804e-05
-1.54157e-05
4.78968e-06
1.01041e-05
-0.00553598
-7.44256e-05
-0.000126403
0.00584145
-6.31944e-05
-0.00718086
-5.67305e-05
0.00857887
-0.000164492
-0.0102554
-0.000175695
0.0121478
-0.000367973
-0.0139226
-0.000342711
0.0170327
-0.000725459
-0.0175528
-0.000966886
0.0269965
0.0178336
-0.0036585
0.00079743
0.000797345
0.026997
-0.000966774
-0.0175527
-0.00365838
-0.0171783
0.0044019
0.0316172
-0.00231109
-0.0148155
-0.0202323
-0.00939939
-0.023768
-0.00752991
-0.00289541
0.0070361
-0.00428648
0.000895206
0.00195424
-0.00920965
0.000894401
-0.00150514
-0.000570948
-0.000903076
-0.000347197
-0.000138456
-0.000232325
0.000171293
-0.000536972
0.000512563
-0.0165831
0.015615
-0.0131132
0.0112263
0.011226
-1.4127e-06
-0.00955335
-4.12769e-06
0.00779618
-9.85333e-06
-0.00657656
6.35295e-05
0.00518757
-1.06567e-05
-0.00434229
0.000109614
0.0032979
-1.8422e-05
-0.0028114
0.000174619
0.00200594
-4.69134e-05
-0.00191232
0.00031808
0.00111122
0.000140018
0.00111115
-0.000236785
-0.00164101
6.35176e-05
0.00149908
6.67039e-05
-0.00204783
4.51569e-05
0.00241285
3.65156e-05
-0.00311972
3.55443e-05
0.00381903
-4.41584e-06
-0.00480991
5.18398e-06
6.34047e-05
0.0051875
-4.45241e-05
-0.00434198
0.00329776
-0.00281129
0.00200594
0.000118097
-0.0019123
0.000317945
-8.72337e-05
-7.27825e-05
0.000174624
-0.000150438
-0.000172521
-0.000222161
-0.000289242
-0.000290298
-2.98787e-05
0.000376892
0.000377275
-0.0113142
-0.0116686
-0.00136344
-3.08389e-05
-0.0165823
-0.000911612
0.0156149
7.6916e-05
-0.0131131
-0.000205281
-0.000155143
-0.000522663
7.65563e-05
-0.000659459
-0.000447119
-1.61971e-06
-0.00955311
0.00779644
-0.00657679
-1.00673e-05
-0.000353622
-0.000130134
-0.000256681
-1.07697e-05
-0.000166714
-1.84726e-05
3.99645e-05
-9.30061e-05
-4.69065e-05
6.21483e-05
-0.000560682
0.000102459
-0.000315574
0.00058699
0.000232449
0.000232412
0.000587013
0.000273463
-5.23704e-05
0.000489446
-0.00100498
-6.68685e-05
2.11657e-05
0.00072276
6.52922e-05
-0.000478864
0.000258204
0.000663065
0.000469886
0.000589192
0.000337961
-7.54156e-05
-8.13879e-05
-7.66978e-05
-2.42067e-05
0.000465088
-7.67313e-05
0.000273458
0.000489505
-5.23918e-05
-0.000190273
-6.67767e-05
0.000722787
2.11435e-05
-0.000105909
6.79855e-07
-0.00093844
0.000586297
2.86873e-06
-0.000583263
-5.49072e-05
2.15143e-06
-8.13163e-05
-6.181e-05
0.000178296
-0.000190305
-0.00013604
-6.00524e-06
5.13881e-05
2.17905e-06
5.35103e-07
2.6325e-06
-6.0233e-06
0.000178321
-0.000463884
-0.000135911
-8.72638e-05
1.14292e-06
9.87748e-06
1.55089e-05
1.89561e-05
2.68765e-05
6.3203e-05
-2.6826e-05
-0.000910526
-2.68241e-05
0.000149977
-0.000725071
0.021744
0.000100051
0.0181329
-5.2069e-05
0.0176568
-5.96004e-05
0.0150414
-0.0001915
-0.0131415
0.0114591
6.41611e-05
0.00767835
0.00767338
0.00034146
-0.00893321
0.0109803
0.0110717
0.00027344
-0.0123725
-9.52703e-05
-0.0134708
0.0158397
-0.0182065
0.0196732
-0.000361291
-0.0178539
-0.000272328
0.0150393
0.0152316
-0.000307323
-0.0174727
0.0209432
-0.0238635
-0.000107685
-0.0198054
0.0230947
-0.0217373
0.0136747
0.000259432
-0.011851
-0.00044927
0.0110757
-0.000774996
-0.0142467
-0.0103827
0.00438868
0.00432233
-0.0345883
0.0125436
0.0120435
0.00175854
-0.000359276
-0.0110674
-0.000445938
0.0109493
0.0109508
-0.000752542
-0.0117384
0.000273609
0.0110705
0.0109817
-0.0123725
-9.61829e-05
-0.00893324
0.000341847
0.00767295
0.00767895
6.38398e-05
-0.00624104
0.00027923
0.00511489
0.00515894
0.000104695
0.000251602
0.000159707
8.69008e-05
-5.04703e-06
3.64503e-07
2.56415e-06
4.59641e-05
8.72439e-05
4.08226e-05
0.00285037
-0.00306764
0.00234948
-0.00238834
-2.24642e-05
0.00308673
-4.63144e-06
-4.7765e-06
-8.91329e-07
-2.18857e-06
-2.41418e-06
-1.24595e-05
-0.000904942
-0.00045
0.000185387
0.00037494
0.000212117
2.82808e-05
3.96423e-06
7.15313e-08
1.23346e-05
-3.66874e-05
-5.33849e-05
-7.83552e-05
-0.00010707
-0.000143729
-0.000193199
0.000224041
0.00132842
0.00215934
0.00129448
0.000629406
1.01104e-05
-0.00011772
-6.04119e-05
-0.00867761
-0.00629682
0.000383133
0.00555572
0.00555691
-0.000401163
-0.0044601
0.000329543
0.00369836
0.00369912
-0.000293777
-0.00415422
0.000201211
0.00328087
0.0033423
-0.00418875
0.000103459
-6.40098e-05
0.000320335
0.000806974
0.000499696
0.000148322
-9.15726e-05
-0.000103064
-0.00270833
0.000138961
0.00203609
0.00212305
-0.00270994
8.96847e-05
-0.00010794
2.61635e-05
0.000282943
0.000106194
-9.55318e-05
-0.000201762
-0.000163996
-0.000300525
-0.000182447
-0.00049522
-0.000638035
-0.000569353
-0.000494031
-0.000592408
-0.000634669
-0.000495727
0.000651248
-0.00061342
0.000285116
0.00013628
-7.89591e-05
-0.000141663
-4.03154e-05
3.84371e-06
1.31769e-05
-0.00218055
-4.41765e-05
6.58888e-06
1.38967e-05
-0.00353514
-6.6126e-05
-9.45817e-05
0.000109683
-9.45305e-05
-0.000126427
-0.000156547
6.02865e-05
0.000123491
-0.000368561
0.015784
2.01612e-05
0.0138478
-2.54531e-05
0.0128003
-3.06014e-05
0.0107834
-0.000111205
-0.00909047
0.0079315
0.000104967
0.00515853
0.00511539
0.000278954
-0.00624046
-0.00613789
-0.000401377
-0.00445898
-0.000118002
0.00134407
0.00224714
0.00421323
7.86304e-05
7.87086e-05
0.0017583
-0.000359153
-0.0147688
-0.0110656
-0.000291274
6.95047e-05
-4.15556e-06
-0.000198344
-0.000121204
-0.000130536
-1.29171e-05
-0.000155017
-0.000205418
-0.000156559
-3.98542e-06
-2.53879e-06
-6.59161e-05
-3.10039e-05
-1.37837e-05
-6.37914e-06
-1.84747e-06
5.31528e-06
6.69921e-05
9.74012e-05
-5.27443e-07
7.82829e-06
2.0141e-05
3.43946e-05
-6.27032e-05
0.00789321
-8.14613e-05
0.00680404
1.01903e-05
-0.00733733
-1.54436e-05
0.00737722
-6.9053e-05
-0.00604173
0.00526859
-0.00657038
-0.000107365
7.09802e-05
6.35156e-05
-0.000340026
-0.000508388
-0.000738786
-0.000288025
-0.000287793
-0.000221065
-0.000171612
-0.000216557
-0.000127939
-0.000149767
-0.000119436
-3.91418e-05
0.000488428
0.000375366
0.000212378
-0.00178628
-4.41466e-05
0.00180889
-1.24156e-05
0.000805523
1.23235e-05
9.4924e-06
-9.07974e-07
-4.78026e-06
-1.19385e-05
-2.80142e-05
-6.07879e-05
-1.28008e-05
-2.60656e-06
-1.40673e-06
-0.00833047
0.00888176
-0.0107436
0.00992986
-0.0093788
-6.90647e-05
0.0113527
-0.000164696
-0.0132163
-0.000112483
-0.000472932
-0.01785
-0.00342168
-0.0095774
0.00848366
-0.00855695
-0.0198823
0.00450644
-0.00964963
-0.00524419
-0.00899043
-0.006939
0.000611385
-0.000100221
-0.000275826
-0.000559396
-0.000540118
0.00631758
0.00461152
-0.000246604
-0.000115426
-0.00127968
-0.00243677
-0.00047544
-0.0010775
-0.000300468
-0.000616809
1.49457e-05
7.87674e-05
6.90107e-05
-0.0120209
-0.0150431
3.87536e-05
-0.0165715
-6.32559e-05
-4.88359e-06
7.88521e-06
7.88452e-06
-0.000203143
-0.000359531