/*--------------------------------*- C++ -*----------------------------------*\
| =========                 |                                                 |
| \\      /  F ield         | OpenFOAM: The Open Source CFD Toolbox           |
|  \\    /   O peration     | Version:  2306                                  |
|   \\  /    A nd           | Website:  www.openfoam.com                      |
|    \\/     M anipulation  |                                                 |
\*---------------------------------------------------------------------------*/
FoamFile
{
    version     2.0;
    format      ascii;
    arch        "LSB;label=32;scalar=64";
    class       volScalarField;
    location    "280";
    object      epsilon;
}
// * * * * * * * * * * * * * * * * * * * * * * * * * * * * * * * * * * * * * //

dimensions      [0 2 -3 0 0 0 0];

internalField   nonuniform List<scalar> 
12225
(
1085.71
2467.78
3645.43
4414.74
4812.13
4980.48
4972.15
4932.32
4837.74
4728.37
4620.48
4517.15
4425.48
4339.5
4269.02
4198.39
4150.98
4085.21
81.2306
262.521
438.552
584.511
691.144
762.909
804.74
829.967
846.785
856.857
866.586
873.729
883.001
890.965
900.641
910.057
918.871
933.043
20.5772
51.175
83.4692
112.537
136.923
156.2
170.148
179.902
186.374
190.791
193.486
195.624
196.866
198.384
199.326
201.027
201.383
206.449
14.7578
21.8682
30.0194
38.5022
46.2155
53.0394
58.6214
63.2644
66.7557
69.6469
71.6136
73.3321
74.3227
75.332
75.7579
76.3742
76.3251
77.5879
14.361
16.3335
18.456
21.4875
24.4383
27.2622
29.7362
31.9834
33.8188
35.4796
36.7451
37.9278
38.745
39.5743
40.0604
40.6406
40.8899
41.3805
14.6447
14.9541
15.4274
16.4564
17.6088
18.8289
19.9697
21.0769
22.0337
22.9483
23.6896
24.4159
24.9564
25.5272
25.8937
26.3475
26.5687
26.9707
14.7184
14.6387
14.6737
14.8757
15.2175
15.6834
16.1628
16.6724
17.1383
17.6109
18.0104
18.4208
18.7386
19.0877
19.3218
19.6221
19.773
20.0696
14.7545
14.5907
14.4691
14.4209
14.4418
14.5153
14.6476
14.8246
15.0022
15.2023
15.3793
15.576
15.7327
15.9148
16.0404
16.2071
16.295
16.4713
14.7641
14.5919
14.4345
14.3029
14.2031
14.1371
14.0973
14.0987
14.1107
14.1415
14.1782
14.2346
14.2793
14.3426
14.3855
14.4491
14.486
14.5566
14.7656
14.5942
14.432
14.2828
14.1465
14.0296
13.9256
13.8437
13.7744
13.7224
13.6771
13.6482
13.6204
13.6063
13.5892
13.5835
13.573
13.5818
14.7657
14.5945
14.4323
14.2806
14.137
14.0051
13.8816
13.7705
13.6679
13.5777
13.4938
13.4219
13.3537
13.2971
13.2406
13.1973
13.1473
13.1179
14.7657
14.5944
14.4323
14.2801
14.1357
14.0007
13.8728
13.754
13.6417
13.5385
13.4409
13.3523
13.2677
13.1922
13.1185
13.0549
12.9895
12.9368
14.7657
14.5941
14.4321
14.2796
14.1353
13.9995
13.8707
13.7496
13.6347
13.5271
13.4247
13.3294
13.2383
13.1542
13.0731
12.999
12.9266
12.8616
14.7657
14.594
14.4319
14.2792
14.1349
13.9987
13.8698
13.7481
13.6326
13.5236
13.4201
13.3224
13.2294
13.1417
13.0581
12.9795
12.9043
12.8337
14.7657
14.5938
14.4317
14.2789
14.1345
13.9981
13.8691
13.7471
13.6315
13.5221
13.4183
13.32
13.2265
13.1379
13.0536
12.9737
12.8975
12.8253
14.7657
14.5938
14.4316
14.2786
14.1341
13.9976
13.8685
13.7463
13.6306
13.5211
13.4171
13.3185
13.2249
13.136
13.0515
12.9713
12.8948
12.8222
14.7657
14.5937
14.4315
14.2784
14.1338
13.9972
13.868
13.7457
13.6299
13.5202
13.4162
13.3174
13.2237
13.1347
13.0501
12.9696
12.8931
12.8203
14.7657
14.5937
14.4314
14.2783
14.1336
13.9969
13.8677
13.7453
13.6294
13.5196
13.4155
13.3167
13.2228
13.1337
13.049
12.9685
12.8919
12.819
14.7657
14.5937
14.4314
14.2782
14.1336
13.9969
13.8675
13.7451
13.6292
13.5194
13.4152
13.3163
13.2224
13.1333
13.0485
12.9679
12.8913
12.8184
14.7657
14.5937
14.4315
14.2783
14.1337
13.997
13.8677
13.7453
13.6294
13.5196
13.4154
13.3166
13.2227
13.1336
13.0489
12.9683
12.8917
12.8188
14.7657
14.5937
14.4316
14.2785
14.1339
13.9972
13.868
13.7457
13.63
13.5202
13.4163
13.3176
13.2241
13.1352
13.051
12.9708
12.8948
12.8224
14.7657
14.5938
14.4317
14.2786
14.1343
13.9977
13.869
13.7473
13.6325
13.524
13.4219
13.3252
13.2344
13.1482
13.0676
12.9907
12.9192
12.8504
14.7657
14.5937
14.4319
14.2789
14.1361
14.002
13.8782
13.7628
13.6573
13.5595
13.4707
13.3883
13.3141
13.2446
13.1828
13.1237
13.0728
13.0213
14.7644
14.5922
14.4335
14.287
14.1628
14.0551
13.9689
13.8978
13.8459
13.8048
13.7783
13.758
13.7482
13.7415
13.7415
13.7457
13.7516
13.7512
14.7478
14.5944
14.4764
14.4101
14.4234
14.4613
14.5554
14.6706
14.8169
14.9612
15.1237
15.2711
15.4319
15.5683
15.7195
15.8373
15.978
16.0719
14.6504
14.7821
14.9369
15.3416
15.9227
16.5508
17.2338
17.878
18.5377
19.1216
19.7127
20.2095
20.72
21.1248
21.5587
21.8755
22.2452
22.4805
14.572
16.1273
17.9726
20.4196
22.9236
25.2654
27.5467
29.5525
31.4906
33.1025
34.6855
35.9137
37.1756
38.0655
39.0607
39.6723
40.4608
40.8521
16.5442
25.8796
36.7208
46.5546
55.8657
64.2733
72.1012
78.7409
84.8017
89.5901
94.0126
97.1742
100.312
102.189
104.451
105.414
107.132
107.488
45.7965
105.211
164.439
217.233
267.842
313.448
353.657
386.102
413.216
433.649
450.586
462.692
472.879
479.758
486.797
490.285
496.128
497.461
632.343
1081.16
1534.74
1880.99
2183.47
2431.77
2631.53
2773.03
2876.15
2932.21
2969.07
2970.17
2963.16
2946.23
2918.32
2885.07
2849.27
2811.95
0.170745
0.171587
0.297126
0.434555
0.56813
0.691329
0.802559
0.90212
0.991332
1.07751
1.16522
1.2555
1.35105
1.4543
1.56669
1.6886
1.82006
1.96211
2.12016
2.31019
2.55564
2.85753
3.20989
3.61439
4.0779
4.60968
5.22024
5.91997
6.71801
7.61957
8.62703
9.74427
10.9724
12.3099
13.7564
15.3102
16.9705
18.7361
20.6065
22.5818
24.663
26.8528
29.1557
31.5793
34.1353
36.8413
39.7234
42.8201
46.0518
49.4365
52.9701
56.662
60.5136
64.5313
68.7184
73.08
77.6202
82.3437
87.2542
92.3563
97.6533
103.149
108.847
114.75
120.861
127.182
133.714
140.46
147.421
154.596
161.986
169.59
177.407
185.435
193.672
202.115
210.759
219.601
228.636
237.858
247.259
256.835
266.575
276.473
286.517
296.699
307.007
317.43
327.956
338.571
349.26
360.008
370.797
381.608
392.421
403.212
413.955
424.623
435.189
445.629
455.938
466.154
476.297
486.27
496.104
505.77
515.259
524.551
533.632
542.483
551.089
559.433
567.501
575.277
582.745
589.893
596.706
603.172
609.279
615.015
620.369
625.331
629.891
634.041
637.774
641.085
643.968
646.421
648.438
650.015
651.142
651.863
652.21
652.026
651.352
650.22
648.763
646.945
644.636
641.937
638.835
635.347
631.481
627.252
622.673
617.752
612.504
606.941
601.079
594.932
588.517
581.849
574.944
567.819
560.49
552.976
545.292
537.457
529.487
521.402
513.219
504.961
496.656
488.357
480.288
474.318
470.927
467.813
464.696
461.55
458.377
455.179
451.953
448.685
445.342
441.846
438.04
433.448
427.178
402.841
0.663955
0.392769
0.356666
0.370863
0.405386
0.451006
0.504339
0.564793
0.633347
0.711934
0.801759
0.903473
1.01849
1.14855
1.29547
1.46109
1.64744
1.85695
2.09256
2.3569
2.65773
2.99902
3.38197
3.80835
4.28077
4.80179
5.37294
5.99328
6.65722
7.35785
8.10268
8.89096
9.72205
10.5943
11.5081
12.4614
13.4523
14.482
15.5517
16.6635
17.8198
19.0234
20.2778
21.5865
22.9534
24.382
25.875
27.4324
29.0487
30.7283
32.4717
34.2811
36.1578
38.1035
40.1196
42.2077
44.369
46.6049
48.9165
51.3048
53.7708
56.3153
58.9391
61.6428
64.4267
67.2913
70.2365
73.2625
76.3689
79.5554
82.8214
86.1663
89.5889
93.0882
96.6627
100.311
104.031
107.821
111.678
115.601
119.585
123.629
127.729
131.881
136.082
140.328
144.614
148.936
153.288
157.665
162.062
166.472
170.888
175.303
179.709
184.098
188.463
192.797
197.096
201.362
205.612
209.88
214.177
218.408
222.586
226.7
230.744
234.713
238.6
242.398
246.102
249.704
253.199
256.58
259.843
262.98
265.988
268.86
271.593
274.18
276.618
278.902
281.029
282.994
284.796
286.431
287.897
289.192
290.314
291.263
292.036
292.639
293.067
293.298
293.341
293.211
292.932
292.494
291.869
291.08
290.124
289.007
287.731
286.3
284.72
282.994
281.126
279.122
276.987
274.726
272.345
269.85
267.247
264.542
261.741
258.852
255.88
252.832
249.716
246.538
243.306
240.029
236.717
233.393
230.133
227.287
224.967
222.768
220.588
218.409
216.229
214.05
211.876
209.707
207.544
205.389
203.225
201.093
198.905
195.221
1.43521
0.703063
0.555289
0.526003
0.537257
0.570856
0.620917
0.685251
0.763615
0.857105
0.967104
1.09497
1.24206
1.40966
1.59906
1.81157
2.04868
2.31222
2.60446
2.92842
3.28356
3.66923
4.08515
4.53079
5.00552
5.5087
6.03998
6.59997
7.19174
7.81946
8.47889
9.17001
9.89373
10.6508
11.4292
12.2349
13.0758
13.9539
14.8707
15.8278
16.8268
17.8692
18.9564
20.09
21.2712
22.501
23.7805
25.1099
26.4891
27.9193
29.4016
30.9371
32.5267
34.1715
35.8724
37.6305
39.4464
41.3212
43.2556
45.2499
47.3049
49.4211
51.5988
53.8385
56.1404
58.5046
60.9311
63.42
65.971
68.5838
71.258
73.993
76.788
79.6421
82.5545
85.5237
88.5486
91.6275
94.7587
97.9405
101.171
104.447
107.767
111.128
114.527
117.961
121.427
124.922
128.441
131.98
135.536
139.104
142.679
146.257
149.834
153.405
156.966
160.516
164.053
167.579
171.097
174.611
178.103
181.554
184.96
188.316
191.616
194.856
198.029
201.13
204.154
207.097
209.952
212.716
215.382
217.948
220.407
222.757
224.993
227.11
229.106
230.977
232.72
234.331
235.809
237.151
238.355
239.42
240.344
241.126
241.766
242.263
242.615
242.805
242.854
242.766
242.544
242.185
241.683
241.044
240.269
239.363
238.327
237.165
235.88
234.476
232.957
231.327
229.589
227.749
225.811
223.78
221.661
219.458
217.178
214.824
212.404
209.921
207.382
204.793
202.16
199.489
196.789
194.077
191.395
188.865
186.533
184.279
182.053
179.837
177.632
175.438
173.261
171.104
168.976
166.891
164.865
162.976
161.234
159.5
2.24371
1.00863
0.772456
0.716233
0.719147
0.753203
0.809506
0.885145
0.979625
1.09357
1.22805
1.38418
1.56293
1.76504
1.99103
2.24124
2.51597
2.81544
3.13983
3.48906
3.86245
4.25928
4.67901
5.12143
5.58668
6.07528
6.58821
7.12683
7.69272
8.28703
8.90972
9.56106
10.241
10.9494
11.6954
12.4796
13.3007
14.1596
15.0576
15.9961
16.9763
17.9983
19.063
20.1711
21.3231
22.5193
23.7589
25.0434
26.375
27.7547
29.1835
30.6624
32.1922
33.7741
35.4088
37.0974
38.8405
40.6392
42.4941
44.406
46.3753
48.4027
50.4888
52.6339
54.8385
57.1029
59.4273
61.8118
64.2565
66.7611
69.3256
71.9495
74.6323
77.3734
80.172
83.0272
85.9379
88.9026
91.9201
94.9886
98.1063
101.271
104.481
107.733
111.025
114.354
117.717
121.111
124.532
127.976
131.441
134.921
138.413
141.913
145.417
148.922
152.423
155.919
159.407
162.885
166.352
169.801
173.22
176.599
179.936
183.222
186.453
189.624
192.729
195.762
198.719
201.594
204.381
207.077
209.676
212.173
214.565
216.846
219.013
221.062
222.99
224.792
226.466
228.009
229.419
230.693
231.829
232.827
233.684
234.4
234.974
235.406
235.688
235.81
235.811
235.667
235.387
234.969
234.413
233.722
232.898
231.945
230.864
229.661
228.338
226.899
225.348
223.689
221.927
220.065
218.11
216.065
213.936
211.727
209.444
207.093
204.677
202.204
199.679
197.106
194.493
191.846
189.173
186.488
183.818
181.22
178.72
176.275
173.857
171.457
169.075
166.712
164.375
162.07
159.808
157.609
155.498
153.552
151.797
150.246
2.96247
1.3001
0.998061
0.924084
0.922962
0.96062
1.02537
1.11312
1.22274
1.35437
1.50856
1.68588
1.88668
2.11099
2.35854
2.62884
2.9213
3.23528
3.57021
3.92556
4.30091
4.69607
5.11122
5.54693
6.00412
6.48399
6.98797
7.51754
8.07415
8.65906
9.27333
9.9181
10.5946
11.3046
12.0504
12.833
13.6528
14.5105
15.407
16.3427
17.3185
18.3358
19.3953
20.498
21.6447
22.8364
24.0747
25.3603
26.6935
28.0751
29.5064
30.9882
32.5216
34.1078
35.7477
37.4424
39.193
41.0005
42.8662
44.7908
46.7751
48.8197
50.9254
53.0931
55.3233
57.6166
59.9736
62.3946
64.88
67.4298
70.0442
72.723
75.4661
78.273
81.1431
84.0758
87.07
90.1248
93.2386
96.41
99.6373
102.918
106.251
109.633
113.062
116.534
120.047
123.596
127.18
130.793
134.432
138.093
141.772
145.464
149.165
152.872
156.579
160.282
163.977
167.66
171.322
174.959
178.563
182.126
185.641
189.104
192.508
195.847
199.115
202.306
205.413
208.432
211.357
214.182
216.902
219.513
222.008
224.384
226.636
228.759
230.752
232.608
234.326
235.903
237.335
238.621
239.759
240.747
241.584
242.269
242.802
243.181
243.392
243.454
243.374
243.142
242.763
242.238
241.566
240.753
239.799
238.709
237.486
236.134
234.657
233.06
231.346
229.521
227.589
225.555
223.425
221.203
218.896
216.509
214.047
211.516
208.922
206.271
203.568
200.821
198.034
195.215
192.372
189.517
186.669
183.86
181.105
178.391
175.705
173.042
170.403
167.792
165.216
162.683
160.207
157.812
155.527
153.424
151.522
149.797
3.56032
1.58228
1.22592
1.13777
1.13433
1.17586
1.2482
1.34597
1.46726
1.61157
1.77886
1.96913
2.18215
2.41742
2.67419
2.9516
3.24876
3.56491
3.89952
4.25233
4.62341
5.01316
5.42235
5.85204
6.30354
6.7783
7.27785
7.80372
8.35736
8.94015
9.55341
10.1985
10.8766
11.5893
12.3378
13.1231
13.9461
14.8077
15.7087
16.6501
17.6328
18.6579
19.7265
20.8394
21.9977
23.2027
24.4553
25.7566
27.1076
28.5094
29.9632
31.4704
33.0321
34.6496
36.3243
38.0575
39.8504
41.7042
43.6201
45.5993
47.6433
49.7534
51.9306
54.1763
56.4913
58.8766
61.333
63.8614
66.4623
69.1363
71.8836
74.7046
77.5991
80.567
83.608
86.7214
89.9064
93.162
96.4869
99.8795
103.338
106.86
110.444
114.087
117.785
121.536
125.336
129.182
133.07
136.994
140.952
144.937
148.946
152.974
157.015
161.063
165.115
169.163
173.201
177.225
181.225
185.195
189.127
193.015
196.85
200.627
204.338
207.976
211.534
215.006
218.385
221.665
224.839
227.901
230.844
233.665
236.356
238.913
241.331
243.605
245.731
247.706
249.526
251.187
252.688
254.025
255.196
256.201
257.039
257.707
258.207
258.532
258.673
258.663
258.487
258.144
257.639
256.973
256.149
255.169
254.038
252.759
251.336
249.774
248.077
246.251
244.301
242.232
240.049
237.759
235.368
232.88
230.304
227.644
224.907
222.099
219.228
216.298
213.317
210.292
207.229
204.135
201.018
197.89
194.764
191.661
188.593
185.559
182.553
179.575
176.628
173.717
170.849
168.037
165.294
162.646
160.125
157.79
155.648
153.618
4.03573
1.83964
1.44428
1.3456
1.34054
1.38495
1.46267
1.56717
1.69578
1.84736
2.02135
2.21728
2.43457
2.67246
2.93008
3.20653
3.50105
3.81309
4.14243
4.48918
4.85381
5.23711
5.64015
6.0642
6.51068
6.9811
7.47697
7.99978
8.55098
9.13196
9.74407
10.3886
11.0669
11.7803
12.5298
13.3166
14.1418
15.0065
15.9118
16.8587
17.8485
18.8822
19.9611
21.0863
22.2592
23.481
24.753
26.0766
27.453
28.8838
30.3705
31.9147
33.5179
35.1817
36.9079
38.6981
40.5539
42.4769
44.4689
46.5315
48.6665
50.8756
53.1602
55.5221
57.9626
60.4831
63.0848
65.769
68.5365
71.3884
74.3251
77.3473
80.4552
83.6488
86.928
90.2922
93.7408
97.2727
100.887
104.581
108.354
112.202
116.125
120.118
124.178
128.302
132.485
136.724
141.014
145.349
149.725
154.137
158.578
163.042
167.523
172.016
176.512
181.005
185.488
189.952
194.39
198.793
203.153
207.462
211.712
215.895
220.003
224.028
227.962
231.797
235.526
239.142
242.636
246.003
249.235
252.325
255.269
258.059
260.691
263.16
265.46
267.588
269.54
271.313
272.903
274.308
275.527
276.558
277.399
278.052
278.514
278.772
278.844
278.737
278.443
277.966
277.307
276.471
275.459
274.276
272.926
271.414
269.744
267.923
265.955
263.847
261.604
259.234
256.741
254.134
251.419
248.602
245.69
242.692
239.613
236.461
233.243
229.966
226.638
223.266
219.857
216.419
212.959
209.489
206.019
202.565
199.138
195.741
192.374
189.04
185.744
182.492
179.294
176.161
173.11
170.166
167.36
164.743
162.302
159.914
4.45039
2.08086
1.65072
1.54067
1.53232
1.57706
1.65706
1.76463
1.89631
2.05038
2.22587
2.422
2.63801
2.87312
3.12653
3.39753
3.68561
3.99052
4.31234
4.65146
5.00859
5.38471
5.781
6.19877
6.63942
7.10442
7.59523
8.11334
8.66017
9.23713
9.84559
10.4869
11.1624
11.8734
12.621
13.4065
14.2314
15.0968
16.0042
16.9549
17.9502
18.9915
20.0801
21.2177
22.4058
23.6459
24.9396
26.2884
27.6943
29.1592
30.6849
32.2735
33.9269
35.6472
37.4364
39.2968
41.2303
43.2392
45.3257
47.4919
49.74
52.0722
54.4906
56.9973
59.5941
62.2829
65.0656
67.9436
70.9184
73.9911
77.163
80.4346
83.8067
87.2793
90.8525
94.526
98.299
102.17
106.139
110.203
114.36
118.607
122.942
127.361
131.86
136.435
141.082
145.795
150.568
155.397
160.275
165.195
170.15
175.134
180.139
185.156
190.178
195.197
200.202
205.186
210.139
215.052
219.914
224.718
229.453
234.111
238.682
243.157
247.527
251.783
255.917
259.92
263.783
267.5
271.061
274.46
277.691
280.746
283.619
286.306
288.801
291.098
293.196
295.088
296.774
298.25
299.515
300.566
301.405
302.029
302.436
302.617
302.597
302.369
301.932
301.291
300.448
299.407
298.173
296.748
295.14
293.353
291.394
289.269
286.984
284.546
281.962
279.241
276.388
273.412
270.32
267.121
263.822
260.432
256.957
253.407
249.79
246.113
242.385
238.612
234.805
230.969
227.115
223.251
219.388
215.539
211.713
207.917
204.155
200.432
196.753
193.127
189.564
186.077
182.684
179.409
176.28
173.339
170.56
167.79
5.32533
2.39764
1.86698
1.72575
1.7059
1.74568
1.82382
1.93065
2.06165
2.21445
2.38766
2.5803
2.79156
3.02072
3.26714
3.53036
3.81012
4.10641
4.41952
4.75002
5.09873
5.4667
5.85515
6.26534
6.69858
7.15608
7.63949
8.15032
8.69002
9.26003
9.86181
10.4968
11.1666
11.8726
12.6162
13.3985
14.2209
15.0849
15.9922
16.9443
17.9429
18.9899
20.0875
21.2375
22.4416
23.7015
25.0191
26.3958
27.8345
29.3378
30.908
32.5477
34.2593
36.0455
37.9087
39.8517
41.8771
43.9876
46.1861
48.4753
50.8579
53.3367
55.9144
58.5936
61.3767
64.2663
67.2644
70.3733
73.5947
76.9302
80.3814
83.9492
87.6344
91.4374
95.3584
99.397
103.552
107.824
112.209
116.706
121.312
126.025
130.841
135.756
140.765
145.863
151.045
156.304
161.635
167.03
172.482
177.983
183.525
189.099
194.696
200.308
205.923
211.533
217.127
222.694
228.223
233.705
239.128
244.481
249.754
254.936
260.017
264.986
269.834
274.549
279.123
283.545
287.806
291.898
295.811
299.538
303.071
306.404
309.528
312.439
315.131
317.599
319.838
321.846
323.618
325.153
326.449
327.504
328.32
328.895
329.22
329.306
329.16
328.779
328.167
327.328
326.265
324.983
323.486
321.781
319.873
317.77
315.478
313.005
310.358
307.546
304.576
301.457
298.198
294.807
291.294
287.667
283.935
280.107
276.192
272.2
268.138
264.017
259.845
255.629
251.38
247.106
242.815
238.517
234.223
229.943
225.686
221.462
217.276
213.135
209.046
205.019
201.064
197.196
193.432
189.796
186.312
183.016
179.871
176.705
6.37195
2.73701
2.07624
1.89246
1.85526
1.88567
1.95836
2.06128
2.18864
2.3374
2.50579
2.69264
2.89713
3.11862
3.35664
3.6109
3.88136
4.16821
4.47184
4.79279
5.1319
5.49042
5.86967
6.27108
6.69636
7.14673
7.62311
8.12683
8.65933
9.22208
9.81658
10.4444
11.1069
11.8058
12.5424
13.3186
14.136
14.9966
15.9025
16.8554
17.8574
18.9105
20.0165
21.1778
22.3967
23.6757
25.0177
26.4261
27.9025
29.4502
31.0722
32.7718
34.552
36.4158
38.3666
40.4074
42.5418
44.773
47.1045
49.5398
52.0821
54.7349
57.5016
60.3853
63.3892
66.5162
69.7691
73.1505
76.6626
80.3075
84.0868
88.0018
92.0536
96.2425
100.569
105.032
109.631
114.365
119.231
124.227
129.35
134.596
139.961
145.44
151.028
156.718
162.504
168.378
174.333
180.361
186.453
192.6
198.791
205.017
211.266
217.529
223.793
230.048
236.28
242.479
248.631
254.725
260.748
266.688
272.533
278.271
283.89
289.378
294.725
299.917
304.946
309.799
314.467
318.939
323.207
327.261
331.094
334.697
338.063
341.187
344.061
346.681
349.043
351.143
352.978
354.545
355.844
356.873
357.633
358.123
358.339
358.29
357.978
357.406
356.579
355.502
354.177
352.61
350.809
348.78
346.529
344.066
341.397
338.533
335.481
332.25
328.851
325.293
321.585
317.738
313.762
309.666
305.461
301.156
296.763
292.29
287.747
283.145
278.493
273.8
269.075
264.329
259.569
254.806
250.05
245.31
240.598
235.922
231.29
226.709
222.188
217.737
213.369
209.098
204.941
200.92
197.058
193.383
189.85
186.281
7.39332
3.05442
2.2616
2.03264
1.9756
1.9941
2.05889
2.15559
2.27721
2.42005
2.58197
2.76167
2.95828
3.17123
3.40016
3.64483
3.90534
4.18225
4.47632
4.78877
5.12013
5.47101
5.84245
6.23559
6.65151
7.09127
7.55636
8.04854
8.56941
9.12059
9.70368
10.3204
10.9724
11.6615
12.3897
13.1589
13.9714
14.8293
15.7346
16.6898
17.6971
18.7591
19.8783
21.0576
22.3
23.6081
24.9851
26.4325
27.9546
29.5563
31.242
33.0154
34.88
36.8394
38.8976
41.0585
43.3261
45.7047
48.1982
50.811
53.547
56.4104
59.4053
62.5354
65.8044
69.216
72.7733
76.4794
80.3368
84.3479
88.5146
92.8383
97.3198
101.96
106.758
111.714
116.826
122.092
127.51
133.076
138.787
144.638
150.623
156.737
162.973
169.323
175.78
182.334
188.978
195.7
202.49
209.338
216.231
223.159
230.108
237.066
244.02
250.957
257.863
264.723
271.525
278.255
284.898
291.441
297.87
304.173
310.335
316.344
322.188
327.853
333.327
338.6
343.659
348.495
353.096
357.454
361.56
365.405
368.983
372.285
375.307
378.043
380.489
382.641
384.496
386.053
387.311
388.268
388.926
389.286
389.346
389.114
388.587
387.776
386.686
385.321
383.686
381.789
379.636
377.235
374.596
371.727
368.637
365.337
361.837
358.147
354.277
350.239
346.044
341.703
337.226
332.626
327.913
323.098
318.193
313.209
308.155
303.043
297.883
292.685
287.459
282.215
276.962
271.711
266.471
261.252
256.065
250.92
245.825
240.788
235.82
230.931
226.134
221.444
216.877
212.455
208.196
204.127
200.194
196.22
8.34514
3.3364
2.41669
2.14317
2.06545
2.07076
2.12614
2.21507
2.32953
2.46523
2.61972
2.79146
2.97952
3.1836
3.40371
3.64031
3.89322
4.16245
4.44834
4.75121
5.07163
5.41098
5.77051
6.15141
6.55494
6.98263
7.43624
7.91716
8.42698
8.9674
9.54023
10.1474
10.7908
11.4726
12.1951
12.9605
13.7714
14.6302
15.5395
16.5023
17.5214
18.5996
19.7402
20.9466
22.2228
23.5713
24.9945
26.4949
28.0808
29.7564
31.5264
33.3968
35.3719
37.4558
39.653
41.9683
44.4065
46.9727
49.6717
52.5084
55.4876
58.6143
61.893
65.3282
68.9241
72.6848
76.6137
80.7143
84.9893
89.441
94.0714
98.8816
103.872
109.044
114.395
119.925
125.632
131.512
137.563
143.779
150.156
156.688
163.369
170.189
177.143
184.22
191.411
198.705
206.092
213.56
221.097
228.69
236.325
243.989
251.668
259.346
267.011
274.646
282.235
289.765
297.218
304.581
311.837
318.972
325.97
332.818
339.5
346.002
352.312
358.414
364.297
369.949
375.356
380.508
385.394
390.005
394.331
398.363
402.095
405.519
408.629
411.421
413.89
416.032
417.847
419.331
420.485
421.309
421.805
421.973
421.819
421.34
420.54
419.433
418.022
416.314
414.315
412.033
409.477
406.655
403.578
400.257
396.701
392.922
388.932
384.741
380.363
375.808
371.091
366.222
361.213
356.079
350.829
345.478
340.036
334.515
328.928
323.285
317.597
311.875
306.13
300.371
294.61
288.856
283.118
277.409
271.737
266.112
260.545
255.045
249.621
244.286
239.052
233.934
228.948
224.113
219.448
214.975
210.637
206.261
9.20381
3.57789
2.54025
2.2245
2.12559
2.11773
2.16276
2.24297
2.3493
2.47712
2.62398
2.78864
2.97009
3.1674
3.3801
3.60774
3.85035
4.10866
4.38326
4.67489
4.98472
5.31367
5.66278
6.03328
6.42654
6.8441
7.28761
7.75876
8.25937
8.79135
9.35677
9.95783
10.5969
11.2764
11.9991
12.7675
13.5846
14.4534
15.3771
16.3595
17.4041
18.514
19.6925
20.9429
22.2668
23.6707
25.1611
26.7446
28.4262
30.2111
32.1049
34.1138
36.2437
38.4997
40.8873
43.4124
46.0806
48.8977
51.8694
55.0014
58.299
61.7679
65.413
69.2392
73.2512
77.453
81.8483
86.4403
91.2317
96.2243
101.42
106.818
112.42
118.225
124.23
130.433
136.832
143.421
150.197
157.152
164.28
171.574
179.025
186.624
194.361
202.225
210.205
218.287
226.46
234.709
243.021
251.381
259.773
268.183
276.594
284.99
293.355
301.672
309.924
318.094
326.167
334.124
341.949
349.627
357.141
364.476
371.616
378.547
385.254
391.722
397.939
403.891
409.567
414.954
420.042
424.821
429.281
433.415
437.214
440.672
443.784
446.545
448.951
451
452.689
454.017
454.986
455.597
455.851
455.755
455.311
454.508
453.367
451.895
450.099
447.985
445.561
442.836
439.821
436.525
432.961
429.139
425.072
420.772
416.252
411.525
406.603
401.5
396.23
390.805
385.24
379.548
373.741
367.833
361.837
355.765
349.63
343.443
337.217
330.962
324.689
318.41
312.134
305.871
299.633
293.429
287.27
281.166
275.127
269.162
263.283
257.501
251.829
246.282
240.875
235.627
230.552
225.673
220.931
216.163
9.95879
3.7779
2.63326
2.27861
2.15899
2.13833
2.17273
2.24426
2.34372
2.46529
2.60576
2.763
2.93576
3.12379
3.32689
3.5451
3.77886
4.02844
4.29439
4.57746
4.87862
5.19895
5.53964
5.90206
6.28775
6.69839
7.13583
7.602
8.09898
8.62901
9.19449
9.79804
10.4425
11.1311
11.8673
12.6537
13.4938
14.3912
15.3492
16.3704
17.4575
18.6172
19.8548
21.1761
22.5881
24.0956
25.7049
27.4228
29.2556
31.2097
33.2921
35.5103
37.8699
40.378
43.0415
45.8672
48.8618
52.0319
55.3836
58.923
62.6559
66.5881
70.7247
75.0705
79.6298
84.4065
89.4034
94.6232
100.068
105.737
111.633
117.753
124.096
130.661
137.443
144.438
151.64
159.045
166.645
174.431
182.396
190.528
198.819
207.256
215.826
224.518
233.318
242.211
251.182
260.217
269.299
278.411
287.538
296.661
305.764
314.829
323.839
332.774
341.618
350.353
358.96
367.423
375.724
383.846
391.773
399.488
406.975
414.219
421.206
427.922
434.351
440.482
446.303
451.801
456.967
461.79
466.261
470.373
474.118
477.491
480.486
483.1
485.329
487.171
488.626
489.693
490.375
490.673
490.593
490.145
489.305
488.1
486.536
484.623
482.369
479.779
476.864
473.635
470.104
466.281
462.179
457.811
453.19
448.33
443.245
437.948
432.454
426.777
420.932
414.932
408.793
402.529
396.153
389.68
383.123
376.494
369.808
363.076
356.311
349.524
342.727
335.93
329.144
322.38
315.648
308.958
302.32
295.745
289.242
282.823
276.498
270.278
264.176
258.207
252.386
246.73
241.252
235.973
230.837
225.693
10.6007
3.93482
2.69687
2.30813
2.16983
2.13766
2.16375
2.22793
2.31918
2.4324
2.56462
2.71405
2.87975
3.06098
3.25746
3.4692
3.69652
3.93989
4.19999
4.47767
4.77396
5.09009
5.42745
5.78764
6.17243
6.58392
7.02462
7.49679
8.00271
8.54507
9.12679
9.75092
10.4204
11.1378
11.9052
12.7286
13.6128
14.5628
15.5836
16.6811
17.8615
19.1299
20.4929
21.9575
23.5313
25.2212
27.0347
28.9793
31.0627
33.2927
35.6774
38.225
40.943
43.8396
46.9233
50.2024
53.6841
57.3748
61.2806
65.407
69.7596
74.3432
79.1622
84.2203
89.5204
95.0648
100.855
106.891
113.173
119.7
126.468
133.476
140.719
148.193
155.89
163.804
171.928
180.253
188.769
197.465
206.331
215.354
224.522
233.82
243.236
252.753
262.356
272.031
281.759
291.524
301.31
311.097
320.87
330.608
340.295
349.912
359.439
368.86
378.155
387.307
396.297
405.108
413.721
422.121
430.291
438.213
445.873
453.256
460.346
467.131
473.596
479.73
485.52
490.955
496.026
500.723
505.038
508.964
512.495
515.625
518.352
520.67
522.578
524.076
525.163
525.838
526.111
525.982
525.463
524.529
523.206
521.502
519.426
516.988
514.195
511.056
507.582
503.787
499.681
495.279
490.592
485.636
480.424
474.971
469.292
463.402
457.316
451.049
444.616
438.033
431.315
424.476
417.531
410.495
403.381
396.204
388.977
381.711
374.42
367.116
359.81
352.513
345.236
337.988
330.782
323.625
316.529
309.503
302.558
295.704
288.952
282.313
275.8
269.427
263.208
257.16
251.293
245.63
240.114
234.618
11.1788
4.06119
2.7384
2.31929
2.1648
2.12236
2.13825
2.1935
2.27761
2.38475
2.51161
2.65625
2.81755
2.99488
3.18801
3.39704
3.62242
3.8649
4.12572
4.40567
4.706
5.02826
5.3742
5.74579
6.14511
6.57419
7.03459
7.52888
8.06129
8.63569
9.25605
9.92658
10.6519
11.4371
12.2882
13.21
14.2087
15.2907
16.4632
17.7338
19.1104
20.6008
22.2133
23.9568
25.8402
27.8726
30.0628
32.4201
34.9536
37.672
40.5833
43.6942
47.0152
50.5562
54.3272
58.3401
62.601
67.1126
71.8783
76.9016
82.1854
87.7319
93.5425
99.6179
105.958
112.56
119.424
126.545
133.92
141.543
149.408
157.51
165.839
174.388
183.147
192.107
201.256
210.583
220.076
229.721
239.506
249.417
259.438
269.554
279.751
290.011
300.319
310.657
321.008
331.356
341.681
351.968
362.197
372.35
382.41
392.358
402.176
411.846
421.351
430.672
439.793
448.696
457.365
465.782
473.933
481.801
489.372
496.631
503.566
510.162
516.409
522.293
527.805
532.933
537.671
542.008
545.939
549.457
552.558
555.236
557.49
559.317
560.716
561.688
562.233
562.348
562.07
561.359
560.228
558.693
556.76
554.438
551.739
548.671
545.242
541.465
537.351
532.914
528.167
523.123
517.798
512.205
506.36
500.279
493.976
487.467
480.769
473.896
466.865
459.692
452.392
444.979
437.471
429.88
422.221
414.509
406.755
398.974
391.178
383.378
375.586
367.813
360.069
352.365
344.71
337.113
329.586
322.137
314.777
307.515
300.363
293.33
286.431
279.677
273.083
266.663
260.429
254.402
248.528
242.708
11.7089
4.16209
2.76133
2.31599
2.1477
2.09578
2.10547
2.15648
2.23768
2.34316
2.46971
2.61551
2.77931
2.96059
3.1593
3.37576
3.61049
3.86409
4.13674
4.43061
4.74794
5.09102
5.46235
5.86475
6.30137
6.77581
7.29255
7.85594
8.47041
9.14124
9.87431
10.6761
11.5535
12.5143
13.5667
14.7188
15.9794
17.358
18.8645
20.5096
22.3039
24.2583
26.3836
28.6911
31.1916
33.8957
36.8137
39.9556
43.331
46.9486
50.8158
54.9396
59.3282
63.9892
68.9305
74.1602
79.6786
85.4828
91.5709
97.9405
104.589
111.512
118.705
126.164
133.881
141.85
150.063
158.511
167.187
176.079
185.179
194.475
203.957
213.613
223.431
233.398
243.503
253.732
264.071
274.507
285.026
295.612
306.252
316.93
327.632
338.34
349.04
359.715
370.35
380.928
391.433
401.848
412.157
422.342
432.388
442.277
451.994
461.522
470.845
479.946
488.81
497.422
505.766
513.827
521.59
529.042
536.169
542.958
549.398
555.476
561.182
566.506
571.437
575.967
580.09
583.798
587.084
589.946
592.38
594.378
595.947
597.079
597.777
598.042
597.881
597.306
596.283
594.849
593.002
590.751
588.104
585.071
581.665
577.893
573.765
569.295
564.494
559.377
553.958
548.252
542.274
536.037
529.559
522.854
515.939
508.829
501.541
494.09
486.493
478.766
470.923
462.981
454.953
446.856
438.703
430.508
422.284
414.043
405.798
397.56
389.34
381.149
372.997
364.894
356.848
348.87
340.967
333.151
325.429
317.812
310.31
302.934
295.695
288.606
281.68
274.931
268.369
262.018
255.821
249.722
12.1693
4.23211
2.76832
2.30508
2.12886
2.07461
2.08486
2.13868
2.2246
2.33652
2.47078
2.62483
2.79852
2.99192
3.20548
3.44009
3.69703
3.97814
4.28606
4.62308
4.99234
5.39747
5.84265
6.33261
6.87279
7.46945
8.1296
8.8606
9.6702
10.5672
11.5613
12.6633
13.8846
15.2374
16.7343
18.3883
20.2126
22.2212
24.4285
26.8483
29.4939
32.3782
35.5138
38.9127
42.5854
46.5404
50.7852
55.3266
60.171
65.3219
70.7799
76.5461
82.6241
89.0135
95.7183
102.728
110.024
117.598
125.439
133.538
141.883
150.463
159.266
168.281
177.495
186.897
196.474
206.215
216.108
226.141
236.302
246.579
256.961
267.435
277.992
288.618
299.302
310.032
320.797
331.583