/*--------------------------------*- C++ -*----------------------------------*\
| =========                 |                                                 |
| \\      /  F ield         | OpenFOAM: The Open Source CFD Toolbox           |
|  \\    /   O peration     | Version:  2306                                  |
|   \\  /    A nd           | Website:  www.openfoam.com                      |
|    \\/     M anipulation  |                                                 |
\*---------------------------------------------------------------------------*/
FoamFile
{
    version     2.0;
    format      ascii;
    arch        "LSB;label=32;scalar=64";
    class       volScalarField;
    location    "280";
    object      nut;
}
// * * * * * * * * * * * * * * * * * * * * * * * * * * * * * * * * * * * * * //

dimensions      [0 2 -1 0 0 0 0];

internalField   nonuniform List<scalar> 
12225
(
2.70744e-05
3.55747e-05
4.05232e-05
4.31924e-05
4.44516e-05
4.49643e-05
4.49774e-05
4.47478e-05
4.45662e-05
4.42013e-05
4.38556e-05
4.35243e-05
4.32274e-05
4.29455e-05
4.27116e-05
4.24752e-05
4.23129e-05
4.20928e-05
0.000212995
8.46395e-05
5.59095e-05
4.40555e-05
3.83785e-05
3.535e-05
3.38607e-05
3.30678e-05
3.28559e-05
3.28775e-05
3.32155e-05
3.36052e-05
3.42287e-05
3.48015e-05
3.55803e-05
3.62456e-05
3.70677e-05
3.77726e-05
0.000656992
0.000306531
0.000194015
0.000142102
0.000113226
9.44943e-05
8.20287e-05
7.33124e-05
6.67995e-05
6.19628e-05
5.804e-05
5.51135e-05
5.253e-05
5.07135e-05
4.89065e-05
4.77855e-05
4.66442e-05
4.52987e-05
0.000863008
0.000609449
0.000451629
0.00035084
0.000289304
0.000246495
0.000216685
0.000194294
0.000177763
0.00016429
0.000154045
0.000145065
0.000138194
0.000131734
0.000126858
0.000121937
0.000118625
0.000113428
0.000877432
0.00077641
0.000690868
0.000591925
0.000517328
0.00045809
0.000413482
0.000377227
0.000349673
0.000325962
0.000307902
0.000291296
0.000278923
0.000266594
0.000257866
0.000248255
0.00024203
0.000233765
0.000858411
0.000835293
0.000807288
0.000753094
0.000699393
0.000648246
0.000604836
0.000565863
0.000534207
0.000505358
0.000482495
0.000460719
0.000444084
0.000427083
0.000414948
0.000401173
0.000392385
0.00038038
0.000854258
0.000849543
0.000840712
0.000823039
0.000798601
0.000768464
0.000739182
0.000709551
0.000683358
0.000657721
0.000636208
0.000614795
0.000597704
0.000579791
0.00056652
0.00055123
0.000541289
0.000527057
0.00085239
0.000851591
0.000849792
0.000844527
0.000835946
0.000824519
0.000810178
0.000793463
0.000777243
0.000760012
0.00074456
0.000728287
0.000714565
0.000699768
0.000688161
0.000674774
0.000665428
0.000652328
0.000851903
0.00085148
0.000851079
0.000849881
0.000847545
0.000843616
0.000838592
0.000831271
0.000823646
0.000814989
0.000806298
0.000796549
0.000787793
0.00077807
0.000769835
0.000760517
0.000753041
0.000743776
0.000851815
0.000851373
0.000851073
0.000850609
0.000850034
0.000848808
0.000847331
0.000844857
0.000841997
0.000838303
0.000834501
0.000829861
0.000825421
0.000820272
0.000815566
0.000810277
0.000805553
0.00079975
0.000851799
0.000851357
0.000851021
0.000850623
0.000850325
0.000849824
0.000849338
0.000848517
0.000847604
0.00084626
0.000844872
0.000843007
0.0008412
0.000838881
0.000836816
0.000834102
0.00083204
0.000828842
0.000851792
0.000851359
0.000851001
0.000850611
0.000850306
0.000849938
0.000849631
0.00084921
0.000848815
0.000848233
0.000847676
0.000846875
0.000846137
0.000845092
0.000844212
0.000842914
0.000841974
0.000840423
0.000851787
0.000851362
0.000850989
0.000850607
0.00085028
0.000849936
0.000849644
0.000849319
0.00084904
0.000848697
0.000848398
0.000848001
0.000847658
0.000847179
0.000846786
0.00084621
0.000845771
0.0008451
0.000851783
0.000851364
0.00085098
0.000850604
0.000850263
0.000849925
0.000849622
0.000849315
0.000849043
0.000848758
0.000848506
0.000848232
0.00084799
0.000847714
0.000847472
0.000847185
0.000846936
0.000846635
0.000851781
0.000851364
0.000850974
0.0008506
0.000850251
0.000849916
0.000849602
0.0008493
0.000849018
0.000848744
0.000848488
0.000848238
0.000848004
0.000847773
0.000847556
0.00084734
0.000847136
0.000846932
0.00085178
0.000851363
0.00085097
0.000850596
0.000850242
0.000849906
0.000849588
0.000849285
0.000848998
0.000848724
0.000848463
0.000848213
0.000847976
0.000847748
0.000847531
0.000847322
0.000847123
0.000846931
0.000851779
0.000851362
0.000850967
0.000850592
0.000850236
0.000849899
0.000849578
0.000849273
0.000848984
0.000848707
0.000848444
0.000848192
0.000847952
0.000847722
0.000847502
0.000847292
0.00084709
0.000846898
0.000851779
0.000851362
0.000850965
0.000850589
0.000850233
0.000849894
0.000849572
0.000849265
0.000848974
0.000848695
0.00084843
0.000848177
0.000847934
0.000847703
0.000847481
0.000847269
0.000847066
0.000846871
0.000851779
0.000851362
0.000850965
0.000850589
0.000850232
0.000849892
0.00084957
0.000849262
0.00084897
0.000848691
0.000848424
0.00084817
0.000847927
0.000847694
0.000847471
0.000847258
0.000847054
0.000846858
0.000851779
0.000851362
0.000850966
0.000850591
0.000850234
0.000849895
0.000849573
0.000849266
0.000848973
0.000848695
0.000848428
0.000848174
0.00084793
0.000847697
0.000847473
0.000847259
0.000847052
0.000846855
0.000851779
0.000851364
0.000850968
0.000850595
0.000850238
0.000849902
0.000849578
0.000849274
0.000848979
0.0008487
0.000848427
0.000848168
0.00084791
0.000847667
0.00084742
0.000847187
0.000846947
0.000846723
0.000851778
0.000851367
0.000850969
0.000850603
0.000850243
0.00084991
0.000849573
0.000849254
0.000848916
0.000848587
0.000848223
0.000847865
0.000847456
0.00084706
0.000846596
0.00084616
0.000845637
0.00084517
0.000851779
0.000851381
0.000850972
0.000850624
0.000850209
0.000849789
0.000849233
0.000848616
0.000847803
0.000846896
0.000845768
0.00084456
0.000843125
0.000841663
0.000839961
0.000838329
0.000836387
0.000834699
0.000851855
0.000851467
0.000850932
0.000850394
0.000849126
0.000847458
0.000844947
0.00084194
0.000838072
0.000833847
0.00082896
0.000823929
0.00081845
0.000813001
0.000807321
0.000801583
0.00079591
0.000790791
0.000852785
0.00085138
0.000849189
0.000845095
0.000836884
0.000827817
0.000815748
0.000802823
0.000788374
0.000774368
0.000759663
0.000746077
0.000732118
0.000719683
0.00070682
0.00069584
0.000684088
0.000674695
0.000858211
0.000842299
0.000828961
0.000803015
0.000769257
0.000735475
0.000700803
0.000669705
0.000639499
0.000613594
0.000588613
0.000567745
0.000547316
0.000530659
0.000513866
0.00050061
0.000486568
0.000476068
0.000864337
0.000785613
0.000712709
0.000628304
0.00055828
0.00050309
0.000455748
0.000418868
0.000386625
0.000361594
0.000338764
0.000321228
0.000304415
0.000291772
0.000278912
0.000269549
0.00025937
0.000252305
0.000775957
0.000540063
0.000397942
0.000312965
0.000258158
0.000219635
0.000190507
0.000169565
0.000152553
0.000139992
0.000129095
0.000121018
0.000113528
0.000108076
0.000102634
9.88117e-05
9.46879e-05
9.19153e-05
0.000323583
0.00016484
0.000111417
8.60758e-05
7.08266e-05
6.13546e-05
5.50185e-05
5.08857e-05
4.79533e-05
4.60098e-05
4.45906e-05
4.36882e-05
4.30394e-05
4.2695e-05
4.24553e-05
4.24393e-05
4.24359e-05
4.26226e-05
3.26574e-05
3.90518e-05
4.3892e-05
4.69715e-05
4.93654e-05
5.11699e-05
5.25343e-05
5.34595e-05
5.41141e-05
5.44634e-05
5.46907e-05
5.46975e-05
5.46544e-05
5.45501e-05
5.43773e-05
5.41699e-05
5.3945e-05
5.37084e-05
2.83959e-06
7.82379e-06
9.39346e-06
1.0661e-05
1.16552e-05
1.24403e-05
1.30712e-05
1.3587e-05
1.40168e-05
1.44028e-05
1.47756e-05
1.51395e-05
1.55055e-05
1.58816e-05
1.62714e-05
1.66739e-05
1.70865e-05
1.75092e-05
1.79522e-05
1.84484e-05
1.90515e-05
1.97547e-05
2.0521e-05
2.13356e-05
2.21974e-05
2.31088e-05
2.40722e-05
2.5088e-05
2.61538e-05
2.72625e-05
2.84018e-05
2.95652e-05
3.0745e-05
3.19324e-05
3.31219e-05
3.43083e-05
3.54885e-05
3.66596e-05
3.78203e-05
3.89697e-05
4.01078e-05
4.12355e-05
4.23544e-05
4.34673e-05
4.45781e-05
4.56924e-05
4.68178e-05
4.7965e-05
4.91078e-05
5.02433e-05
5.13733e-05
5.24983e-05
5.36187e-05
5.47351e-05
5.58478e-05
5.69571e-05
5.80634e-05
5.91668e-05
6.02674e-05
6.13655e-05
6.24609e-05
6.35536e-05
6.46436e-05
6.57307e-05
6.68148e-05
6.78955e-05
6.89727e-05
7.0046e-05
7.1115e-05
7.21795e-05
7.32389e-05
7.42929e-05
7.53409e-05
7.63826e-05
7.74172e-05
7.84445e-05
7.94637e-05
8.04744e-05
8.14759e-05
8.24678e-05
8.34493e-05
8.442e-05
8.5379e-05
8.63261e-05
8.72604e-05
8.81813e-05
8.90883e-05
8.99807e-05
9.08578e-05
9.1719e-05
9.25637e-05
9.3391e-05
9.42001e-05
9.49903e-05
9.57605e-05
9.65097e-05
9.72367e-05
9.79403e-05
9.86194e-05
9.92732e-05
9.99022e-05
0.00010051
0.000101099
0.000101663
0.000102205
0.000102724
0.00010322
0.000103692
0.00010414
0.000104565
0.000104964
0.000105339
0.000105689
0.000106013
0.000106312
0.000106585
0.000106833
0.000107054
0.000107249
0.000107417
0.00010756
0.000107675
0.000107764
0.000107827
0.000107863
0.000107873
0.000107856
0.000107814
0.000107745
0.00010765
0.000107529
0.000107383
0.000107217
0.00010702
0.000106796
0.000106544
0.000106273
0.000105983
0.000105665
0.000105325
0.000104961
0.000104576
0.000104168
0.000103739
0.00010329
0.000102821
0.000102332
0.000101823
0.000101296
0.000100751
0.000100188
9.96088e-05
9.90131e-05
9.8402e-05
9.7776e-05
9.71358e-05
9.64821e-05
9.58156e-05
9.51372e-05
9.44474e-05
9.37472e-05
9.30376e-05
9.23199e-05
9.15965e-05
9.08763e-05
9.02475e-05
8.98129e-05
8.94052e-05
8.89962e-05
8.85835e-05
8.81671e-05
8.77468e-05
8.73225e-05
8.68931e-05
8.64564e-05
8.60072e-05
8.55352e-05
8.50092e-05
8.43699e-05
8.25089e-05
4.46463e-06
1.82979e-05
4.05539e-05
5.99037e-05
7.41065e-05
8.4119e-05
9.12111e-05
9.6272e-05
9.98317e-05
0.000102191
0.000103904
0.000105547
0.000107345
0.000109327
0.00011143
0.00011356
0.000115635
0.000117599
0.000119444
0.000121223
0.000122749
0.00012408
0.000125387
0.000126778
0.000128326
0.000130103
0.000132192
0.000134701
0.000137781
0.00014153
0.000145726
0.000150351
0.000155384
0.00016082
0.000166632
0.000172778
0.000179253
0.000186019
0.000193041
0.000200285
0.000207715
0.000215297
0.000222995
0.000230777
0.000238613
0.000246477
0.000254354
0.000262249
0.000270198
0.000278188
0.000286229
0.000294319
0.000302464
0.000310666
0.000318928
0.000327253
0.000335646
0.000344109
0.000352647
0.000361263
0.00036996
0.00037874
0.000387606
0.000396561
0.000405605
0.000414739
0.000423965
0.000433282
0.00044269
0.000452189
0.000461777
0.000471452
0.000481213
0.000491056
0.000500978
0.000510977
0.000521047
0.000531185
0.000541386
0.000551644
0.000561955
0.000572312
0.00058271
0.000593142
0.000603603
0.000614085
0.000624582
0.000635088
0.000645596
0.000656101
0.000666596
0.000677075
0.000687533
0.000697964
0.00070836
0.000718713
0.000729009
0.000739224
0.000749318
0.00075922
0.000768799
0.000777834
0.00078629
0.000794688
0.000802932
0.000811041
0.000819005
0.000826819
0.000834477
0.000841973
0.000849301
0.000856456
0.000863432
0.000870224
0.000876825
0.000883233
0.000889441
0.000895445
0.000901242
0.000906826
0.000912195
0.000917344
0.000922271
0.000926971
0.000931442
0.000935681
0.000939687
0.000943458
0.000946994
0.000950296
0.000953362
0.000956185
0.000958779
0.000961205
0.000963299
0.000965008
0.000966524
0.000967972
0.000969107
0.000969988
0.000970632
0.000971038
0.00097121
0.00097115
0.000970861
0.000970347
0.000969612
0.00096866
0.000967496
0.000966122
0.000964544
0.000962766
0.000960794
0.000958633
0.000956288
0.000953766
0.000951071
0.000948211
0.000945191
0.000942017
0.000938695
0.000935226
0.000931608
0.000927806
0.000923622
0.000918072
0.000910834
0.000903043
0.000895044
0.000886935
0.000878752
0.000870509
0.000862213
0.00085386
0.000845429
0.000836872
0.000828036
0.000818652
0.000807295
0.000779328
5.78031e-06
2.7276e-05
6.27334e-05
9.55565e-05
0.000121973
0.000142002
0.000156689
0.000167358
0.000175162
0.000180965
0.000185501
0.000189354
0.000192914
0.000196397
0.000199891
0.000203406
0.000206916
0.000210382
0.000213768
0.000217038
0.000220453
0.000224201
0.000228393
0.000233132
0.000238515
0.000244621
0.0002515
0.000259143
0.000267446
0.000276293
0.000285882
0.000296213
0.000307244
0.000318938
0.000331608
0.000345007
0.000358874
0.000373144
0.000387761
0.000402671
0.000417828
0.000433191
0.000448723
0.000464391
0.00048017
0.000496043
0.000511995
0.000528028
0.00054416
0.00056039
0.000576721
0.000593157
0.000609705
0.000626367
0.000643151
0.000660061
0.000677102
0.00069428
0.000711599
0.000729067
0.000746689
0.000764467
0.000782404
0.000800502
0.000818762
0.000837183
0.000855764
0.000874505
0.000893403
0.000912455
0.000931656
0.000951001
0.000970485
0.000990101
0.00100984
0.0010297
0.00104967
0.00106973
0.00108989
0.00111012
0.00113042
0.00115077
0.00117117
0.0011916
0.00121205
0.0012325
0.00125295
0.00127337
0.00129377
0.00131411
0.00133439
0.00135459
0.0013747
0.0013947
0.00141457
0.00143428
0.0014538
0.00147308
0.00149208
0.00151071
0.00152889
0.00154654
0.00156381
0.00158082
0.00159755
0.00161398
0.00163011
0.00164592
0.0016614
0.00167653
0.00169131
0.00170572
0.00171975
0.00173339
0.00174663
0.00175947
0.00177188
0.00178386
0.00179541
0.00180651
0.00181716
0.00182735
0.00183708
0.00184633
0.0018551
0.00186339
0.0018712
0.00187851
0.00188533
0.00189166
0.0018975
0.00190285
0.00190772
0.00191221
0.00191611
0.0019192
0.00192189
0.00192429
0.00192613
0.00192746
0.00192829
0.00192864
0.00192851
0.0019279
0.00192682
0.00192527
0.00192328
0.00192083
0.00191795
0.00191465
0.00191092
0.00190678
0.00190224
0.00189732
0.00189202
0.00188635
0.00188033
0.00187397
0.00186728
0.00186028
0.00185297
0.00184537
0.00183746
0.0018292
0.00182035
0.00181012
0.00179819
0.00178537
0.0017721
0.00175856
0.00174482
0.00173092
0.00171688
0.00170269
0.00168832
0.00167365
0.00165842
0.00164185
0.00162119
0.00157899
6.71569e-06
3.76086e-05
8.42565e-05
0.000126277
0.00016002
0.000185916
0.000205298
0.00021962
0.000230218
0.000238226
0.000244569
0.000249955
0.00025489
0.000259702
0.000264583
0.000269634
0.000274908
0.000280442
0.000286289
0.000292527
0.000299283
0.000306676
0.00031481
0.00032377
0.000333624
0.00034442
0.000356177
0.00036889
0.000382538
0.000397112
0.000412635
0.000429096
0.000446477
0.000464748
0.000483482
0.000502658
0.000522331
0.000542448
0.000562944
0.000583751
0.000604825
0.000626153
0.000647705
0.000669458
0.0006914
0.000713538
0.0007359
0.000758453
0.000781158
0.00080401
0.000827016
0.000850178
0.000873505
0.000897
0.000920672
0.000944525
0.000968564
0.000992796
0.00101723
0.00104186
0.0010667
0.00109176
0.00111703
0.00114251
0.00116821
0.00119411
0.00122023
0.00124656
0.00127308
0.0012998
0.00132671
0.0013538
0.00138106
0.00140847
0.00143604
0.00146375
0.00149158
0.00151952
0.00154756
0.00157568
0.00160387
0.00163211
0.00166038
0.00168866
0.00171695
0.00174521
0.00177343
0.0018016
0.00182968
0.00185767
0.00188554
0.00191326
0.00194082
0.00196819
0.00199533
0.00202222
0.00204882
0.00207509
0.00210097
0.00212641
0.00215136
0.00217584
0.00219991
0.0022236
0.00224689
0.00226978
0.00229223
0.00231424
0.00233579
0.00235685
0.00237741
0.00239747
0.00241699
0.00243597
0.0024544
0.00247225
0.00248952
0.0025062
0.00252227
0.00253772
0.00255254
0.00256673
0.00258027
0.00259315
0.00260538
0.00261693
0.00262781
0.00263801
0.00264752
0.00265636
0.00266452
0.002672
0.00267887
0.00268523
0.00269058
0.00269495
0.0026989
0.00270224
0.00270487
0.0027068
0.00270805
0.00270862
0.00270853
0.00270778
0.00270638
0.00270434
0.00270167
0.00269838
0.00269448
0.00268999
0.00268491
0.00267927
0.00267306
0.00266631
0.00265904
0.00265125
0.00264297
0.0026342
0.00262498
0.0026153
0.0026052
0.00259468
0.00258373
0.00257232
0.00256024
0.00254701
0.0025324
0.00251686
0.00250071
0.00248416
0.0024673
0.0024502
0.00243289
0.00241537
0.00239761
0.00237949
0.00236068
0.00234026
0.00231497
0.00227013
7.37239e-06
4.82422e-05
0.000104894
0.000154299
0.000193788
0.000224091
0.000246928
0.000264021
0.000276898
0.00028685
0.000294923
0.000301926
0.000308447
0.000314893
0.000321526
0.000328508
0.000335945
0.000343917
0.000352503
0.000361787
0.000371861
0.000382814
0.000394722
0.000407647
0.00042163
0.000436693
0.000452839
0.000470054
0.000488311
0.000507578
0.000527816
0.000548965
0.000570948
0.000593664
0.000616983
0.00064085
0.000665235
0.000690091
0.000715373
0.000741047
0.000767073
0.00079339
0.000819967
0.000846782
0.000873815
0.000901045
0.000928436
0.000955995
0.000983749
0.0010117
0.00103986
0.00106822
0.0010968
0.0011256
0.00115462
0.00118386
0.00121334
0.00124304
0.00127298
0.00130316
0.00133358
0.00136425
0.00139517
0.00142634
0.00145776
0.00148941
0.0015213
0.00155342
0.00158576
0.00161831
0.00165107
0.00168402
0.00171714
0.00175044
0.00178388
0.00181747
0.00185117
0.00188498
0.00191887
0.00195283
0.00198683
0.00202087
0.00205491
0.00208895
0.00212294
0.00215688
0.00219074
0.0022245
0.00225813
0.00229162
0.00232492
0.00235803
0.00239091
0.00242353
0.00245586
0.00248788
0.00251954
0.00255081
0.00258167
0.00261208
0.00264204
0.00267154
0.00270058
0.00272917
0.00275728
0.0027849
0.00281201
0.00283858
0.0028646
0.00289004
0.00291489
0.00293914
0.00296276
0.00298573
0.00300805
0.00302969
0.00305063
0.00307088
0.0030904
0.0031092
0.00312725
0.00314455
0.00316109
0.00317685
0.00319183
0.00320601
0.0032194
0.00323199
0.00324377
0.00325474
0.00326491
0.0032743
0.00328308
0.00329099
0.0032978
0.00330354
0.00330883
0.00331328
0.00331691
0.00331972
0.00332172
0.00332292
0.00332333
0.00332296
0.00332182
0.00331991
0.00331725
0.00331386
0.00330973
0.00330489
0.00329935
0.00329313
0.00328623
0.00327868
0.00327049
0.00326167
0.00325225
0.00324224
0.00323167
0.00322055
0.0032089
0.00319673
0.00318405
0.00317082
0.00315692
0.00314207
0.00312613
0.0031093
0.00309182
0.00307385
0.00305549
0.00303681
0.00301787
0.00299867
0.00297921
0.00295938
0.00293884
0.00291658
0.00288949
0.00284669
7.8412e-06
5.80096e-05
0.000123739
0.000179734
0.00022427
0.000258481
0.000284428
0.000304081
0.000319139
0.00033102
0.000340868
0.000349571
0.000357789
0.000365989
0.000374486
0.000383491
0.000393143
0.000403544
0.000414778
0.000426922
0.000440047
0.000454214
0.000469474
0.000485861
0.000503391
0.000522064
0.000541863
0.000562758
0.000584706
0.000607655
0.000631546
0.000656305
0.000681856
0.000708117
0.000735012
0.000762483
0.000790483
0.000818966
0.000847887
0.000877206
0.000906883
0.000936882
0.000967173
0.000997734
0.00102855
0.0010596
0.00109087
0.00112238
0.00115411
0.00118608
0.00121828
0.00125072
0.0012834
0.00131632
0.00134949
0.00138292
0.00141659
0.00145053
0.00148474
0.00151921
0.00155394
0.00158893
0.00162417
0.00165965
0.00169539
0.00173135
0.00176756
0.00180398
0.00184062
0.00187746
0.0019145
0.00195171
0.00198909
0.00202663
0.0020643
0.00210209
0.00213999
0.00217797
0.00221601
0.00225411
0.00229223
0.00233035
0.00236846
0.00240654
0.00244455
0.00248249
0.00252031
0.00255801
0.00259555
0.00263291
0.00267007
0.00270699
0.00274365
0.00278003
0.00281608
0.0028518
0.00288713
0.00292206
0.00295656
0.00299062
0.00302421
0.00305731
0.00308993
0.00312204
0.00315364
0.00318469
0.00321517
0.00324507
0.00327436
0.00330303
0.00333104
0.00335839
0.00338505
0.00341101
0.00343624
0.00346073
0.00348447
0.00350744
0.00352962
0.003551
0.00357157
0.00359131
0.00361022
0.00362827
0.00364547
0.0036618
0.00367726
0.00369184
0.00370553
0.00371834
0.00373026
0.00374139
0.00375184
0.00376115
0.00376936
0.00377656
0.00378314
0.00378879
0.00379354
0.00379739
0.00380035
0.00380243
0.00380363
0.00380398
0.00380347
0.00380213
0.00379995
0.00379695
0.00379315
0.00378855
0.00378317
0.00377703
0.00377013
0.00376251
0.00375416
0.00374511
0.00373538
0.00372498
0.00371394
0.00370228
0.00369001
0.00367715
0.00366371
0.00364967
0.00363495
0.00361942
0.00360298
0.00358574
0.00356782
0.00354937
0.00353048
0.00351123
0.00349167
0.00347185
0.00345176
0.00343134
0.00341029
0.00338768
0.00336078
0.00332182
8.17732e-06
6.70796e-05
0.000140651
0.000202434
0.000251546
0.00028946
0.000318471
0.000340725
0.000358048
0.000371958
0.000383678
0.000394166
0.000404142
0.000414126
0.000424481
0.000435454
0.000447211
0.000459866
0.000473505
0.000488192
0.000503979
0.000520907
0.000538999
0.000558268
0.000578708
0.000600302
0.000623018
0.000646812
0.000671632
0.00069742
0.000724111
0.000751636
0.000779926
0.000808916
0.000838543
0.000868754
0.000899498
0.000930729
0.000962407
0.000994494
0.00102695
0.00105976
0.00109288
0.00112631
0.00116001
0.00119399
0.00122823
0.00126272
0.00129747
0.00133248
0.00136773
0.00140323
0.00143899
0.001475
0.00151126
0.00154778
0.00158456
0.0016216
0.00165889
0.00169645
0.00173425
0.00177231
0.00181061
0.00184915
0.00188793
0.00192693
0.00196616
0.00200559
0.00204523
0.00208506
0.00212507
0.00216525
0.00220557
0.00224604
0.00228663
0.00232732
0.00236811
0.00240896
0.00244987
0.00249081
0.00253177
0.00257272
0.00261364
0.0026545
0.0026953
0.002736
0.00277658
0.00281701
0.00285728
0.00289736
0.00293722
0.00297683
0.00301617
0.00305521
0.00309392
0.00313229
0.00317027
0.00320785
0.00324499
0.00328169
0.00331792
0.00335366
0.00338889
0.0034236
0.00345776
0.00349135
0.00352436
0.00355675
0.00358851
0.00361961
0.00365003
0.00367975
0.00370875
0.00373702
0.00376452
0.00379125
0.00381719
0.00384232
0.00386662
0.00389009
0.00391269
0.00393443
0.00395529
0.00397526
0.00399432
0.00401247
0.00402969
0.00404599
0.00406136
0.00407579
0.00408929
0.00410207
0.00411387
0.00412461
0.00413417
0.00414284
0.00415069
0.00415758
0.00416351
0.0041685
0.00417254
0.00417566
0.00417785
0.00417914
0.00417952
0.004179
0.00417761
0.00417535
0.00417223
0.00416826
0.00416347
0.00415785
0.00415143
0.00414422
0.00413625
0.00412751
0.00411804
0.00410784
0.00409695
0.00408537
0.00407313
0.00406024
0.00404672
0.00403257
0.00401774
0.00400216
0.0039858
0.00396868
0.00395091
0.00393257
0.00391377
0.00389457
0.00387504
0.00385525
0.00383522
0.00381492
0.00379411
0.00377202
0.00374634
0.00371126
8.44205e-06
7.47233e-05
0.000154836
0.000221816
0.000275245
0.000316845
0.000349008
0.000373995
0.000393727
0.000409799
0.000423502
0.00043585
0.000447618
0.000459375
0.000471526
0.000484348
0.000498029
0.000512696
0.000528433
0.000545295
0.000563321
0.000582529
0.000602928
0.000624512
0.000647261
0.000671145
0.000696122
0.00072214
0.000749143
0.000777072
0.000805863
0.000835454
0.000865783
0.000896794
0.000928449
0.000960685
0.000993451
0.0010267
0.0010604
0.00109452
0.00112901
0.00116387
0.00119907
0.00123458
0.00127038
0.00130648
0.00134286
0.00137952
0.00141644
0.00145361
0.00149104
0.00152871
0.00156663
0.0016048
0.00164321
0.00168186
0.00172076
0.00175991
0.0017993
0.00183893
0.00187879
0.00191889
0.00195921
0.00199976
0.00204053
0.0020815
0.00212268
0.00216406
0.00220562
0.00224736
0.00228927
0.00233133
0.00237353
0.00241586
0.00245831
0.00250085
0.00254348
0.00258617
0.00262891
0.00267168
0.00271447
0.00275725
0.0028
0.00284271
0.00288534
0.00292788
0.00297031
0.0030126
0.00305473
0.00309668
0.00313841
0.0031799
0.00322114
0.00326208
0.00330271
0.003343
0.00338292
0.00342246
0.00346157
0.00350024
0.00353846
0.00357619
0.00361341
0.00365011
0.00368625
0.00372183
0.0037568
0.00379115
0.00382486
0.0038579
0.00389025
0.00392189
0.00395279
0.00398294
0.00401232
0.0040409
0.00406867
0.00409561
0.0041217
0.00414693
0.00417128
0.00419474
0.00421729
0.00423892
0.00425963
0.00427939
0.0042982
0.00431605
0.00433294
0.00434885
0.00436387
0.0043781
0.0043912
0.00440334
0.00441426
0.00442435
0.00443348
0.00444163
0.00444879
0.00445497
0.00446018
0.00446444
0.00446774
0.0044701
0.00447153
0.00447204
0.00447163
0.00447033
0.00446813
0.00446506
0.00446113
0.00445634
0.00445072
0.00444427
0.00443702
0.00442897
0.00442015
0.00441056
0.00440023
0.00438918
0.00437742
0.00436498
0.00435186
0.00433808
0.00432362
0.00430844
0.00429254
0.00427592
0.00425866
0.00424083
0.00422251
0.00420378
0.0041847
0.00416537
0.00414582
0.00412608
0.00410597
0.00408485
0.00406089
0.0040301
8.94581e-06
7.84183e-05
0.000164304
0.000236756
0.000294724
0.000340255
0.000375769
0.000403661
0.000425952
0.000444312
0.000460092
0.00047436
0.000487936
0.000501431
0.000515287
0.000529813
0.000545215
0.000561631
0.000579149
0.00059782
0.000617669
0.000638703
0.000660914
0.000684286
0.000708799
0.000734432
0.000761116
0.000788791
0.000817401
0.000846886
0.000877187
0.000908244
0.000939998
0.000972383
0.00100538
0.00103895
0.00107307
0.00110768
0.00114277
0.00117828
0.00121419
0.00125045
0.00128703
0.0013239
0.00136106
0.00139851
0.00143625
0.00147429
0.00151261
0.00155116
0.00158994
0.00162896
0.00166819
0.00170765
0.00174733
0.00178724
0.00182736
0.00186771
0.00190827
0.00194905
0.00199005
0.00203125
0.00207267
0.00211428
0.0021561
0.00219812
0.00224032
0.00228271
0.00232527
0.00236801
0.00241091
0.00245396
0.00249715
0.00254047
0.00258392
0.00262747
0.00267111
0.00271483
0.00275861
0.00280245
0.00284631
0.00289019
0.00293406
0.0029779
0.0030217
0.00306544
0.00310908
0.00315261
0.00319601
0.00323925
0.00328231
0.00332515
0.00336777
0.00341012
0.00345219
0.00349394
0.00353535
0.0035764
0.00361705
0.00365729
0.00369708
0.00373641
0.00377524
0.00381356
0.00385134
0.00388855
0.00392517
0.00396117
0.00399653
0.00403122
0.00406522
0.0040985
0.00413105
0.00416284
0.00419385
0.00422406
0.00425345
0.004282
0.00430969
0.00433651
0.00436243
0.00438745
0.00441155
0.00443471
0.00445693
0.00447819
0.00449848
0.0045178
0.00453613
0.00455346
0.00456995
0.00458545
0.00459992
0.00461339
0.00462573
0.00463719
0.00464764
0.00465706
0.00466548
0.00467291
0.00467935
0.00468482
0.00468932
0.00469286
0.00469546
0.00469711
0.00469784
0.00469765
0.00469655
0.00469456
0.00469169
0.00468795
0.00468334
0.0046779
0.00467162
0.00466453
0.00465663
0.00464795
0.00463849
0.00462828
0.00461734
0.00460567
0.0045933
0.00458024
0.00456648
0.00455203
0.00453687
0.00452103
0.00450455
0.00448749
0.00446993
0.00445193
0.00443359
0.00441499
0.00439621
0.00437729
0.00435814
0.00433823
0.00431614
0.00428962
9.50105e-06
7.97874e-05
0.00017014
0.000247695
0.000310103
0.000359632
0.0003986
0.000429507
0.000454461
0.000475196
0.000493116
0.000509333
0.000524708
0.000539889
0.00055535
0.000571425
0.000588343
0.000606249
0.000625239
0.000645379
0.000666695
0.000689156
0.00071273
0.000737375
0.00076302
0.000789649
0.000817275
0.000845856
0.000875342
0.000905677
0.00093681
0.000968688
0.00100127
0.0010345
0.00106837
0.0011028
0.00113777
0.00117322
0.0012091
0.00124539
0.00128206
0.00131909
0.00135647
0.00139417
0.00143219
0.00147047
0.00150901
0.00154772
0.00158668
0.00162585
0.00166521
0.00170475
0.00174448
0.00178439
0.00182449
0.00186478
0.00190527
0.00194594
0.00198681
0.00202787
0.00206912
0.00211056
0.0021522
0.00219403
0.00223606
0.00227827
0.00232068
0.00236327
0.00240604
0.002449
0.00249213
0.00253543
0.00257889
0.00262251
0.00266627
0.00271017
0.0027542
0.00279834
0.00284258
0.00288691
0.00293131
0.00297577
0.00302027
0.00306478
0.00310929
0.00315379
0.00319824
0.00324262
0.00328692
0.0033311
0.00337514
0.00341902
0.00346271
0.00350618
0.0035494
0.00359235
0.00363499
0.00367731
0.00371926
0.00376083
0.00380199
0.0038427
0.00388294
0.00392269
0.00396191
0.00400057
0.00403866
0.00407615
0.004113
0.00414919
0.00418469
0.00421949
0.00425356
0.00428686
0.00431939
0.00435111
0.00438202
0.00441208
0.00444127
0.00446959
0.00449701
0.00452351
0.00454909
0.00457372
0.00459739
0.0046201
0.00464183
0.00466257
0.0046823
0.00470106
0.00471891
0.00473572
0.00475156
0.00476638
0.00478016
0.00479299
0.00480477
0.0048155
0.00482522
0.00483395
0.00484168
0.00484843
0.0048542
0.00485901
0.00486286
0.00486577
0.00486774
0.00486879
0.00486892
0.00486815
0.00486649
0.00486395
0.00486055
0.00485628
0.00485118
0.00484524
0.00483849
0.00483093
0.00482258
0.00481345
0.00480356
0.00479293
0.00478157
0.00476949
0.00475671
0.00474322
0.00472904
0.00471419
0.00469869
0.00468261
0.004666
0.00464895
0.00463154
0.00461387
0.00459604
0.00457811
0.00456004
0.00454143
0.00452118
0.00449814
9.98871e-06
7.99665e-05
0.000173436
0.000255305
0.000321752
0.00037511
0.000417482
0.00045141
0.000479052
0.000502189
0.000522265
0.000540426
0.000557564
0.000574355
0.000591304
0.000608784
0.000627033
0.00064617
0.000666259
0.000687292
0.000709353
0.000732505
0.000756746
0.000782058
0.000808432
0.000835858
0.000864273
0.000893592
0.000923754
0.000954709
0.000986406
0.0010188
0.00105184
0.00108549
0.00111971
0.00115443
0.00118961
0.00122522
0.00126124
0.00129763
0.00133436
0.00137142
0.00140878
0.00144641
0.00148428
0.00152239
0.00156074
0.00159941
0.00163831
0.00167736
0.0017165
0.00175575
0.00179512
0.00183463
0.00187429
0.00191411
0.00195409
0.00199424
0.00203455
0.00207505
0.00211573
0.0021566
0.00219766
0.00223892
0.00228039
0.00232206
0.00236395
0.00240605
0.00244837
0.0024909
0.00253365
0.00257662
0.0026198
0.00266319
0.00270677
0.00275056
0.00279453
0.00283867
0.00288298
0.00292744
0.00297204
0.00301676
0.00306159
0.0031065
0.00315147
0.00319649
0.00324153
0.00328657
0.00333157
0.00337652
0.00342139
0.00346615
0.00351078
0.00355523
0.00359949
0.00364351
0.00368728
0.00373076
0.00377392
0.00381673
0.00385915
0.00390116
0.00394273
0.00398382
0.00402441
0.00406446
0.00410396
0.00414286
0.00418114
0.00421877
0.00425573
0.00429199
0.00432752
0.0043623
0.0043963
0.0044295
0.00446188
0.00449341
0.00452408
0.00455387
0.00458276
0.00461072
0.00463776
0.00466384
0.00468896
0.0047131
0.00473626
0.00475842
0.00477958
0.00479975
0.00481893
0.00483711
0.00485434
0.00487055
0.00488575
0.00490004
0.00491318
0.00492525
0.00493632
0.0049464
0.00495548
0.00496357
0.00497069
0.00497685
0.00498205
0.0049863
0.00498961
0.004992
0.00499348
0.00499406
0.00499374
0.00499254
0.00499047
0.00498755
0.00498378
0.00497916
0.00497373
0.00496748
0.00496042
0.00495258
0.00494395
0.00493457
0.00492443
0.00491355
0.00490196
0.00488965
0.00487664
0.00486295
0.00484861
0.00483368
0.0048182
0.00480225
0.00478593
0.00476934
0.00475259
0.00473576
0.00471886
0.00470158
0.00468308
0.00466294
1.0405e-05
7.92914e-05
0.000174701
0.000260032
0.000330004
0.000386869
0.000432471
0.000469323
0.000499598
0.000525095
0.000547282
0.00056734
0.000586188
0.000604474
0.000622673
0.000641082
0.000660043
0.000679803
0.000700505
0.000722268
0.000745154
0.000769097
0.000794062
0.000820022
0.000846944
0.000874767
0.000903409
0.000932851
0.000963054
0.000993976