/*--------------------------------*- C++ -*----------------------------------*\
| =========                 |                                                 |
| \\      /  F ield         | OpenFOAM: The Open Source CFD Toolbox           |
|  \\    /   O peration     | Version:  2306                                  |
|   \\  /    A nd           | Website:  www.openfoam.com                      |
|    \\/     M anipulation  |                                                 |
\*---------------------------------------------------------------------------*/
FoamFile
{
    version     2.0;
    format      ascii;
    arch        "LSB;label=32;scalar=64";
    class       volScalarField;
    location    "1.2";
    object      gradTz;
}
// * * * * * * * * * * * * * * * * * * * * * * * * * * * * * * * * * * * * * //

dimensions      [0 -1 0 1 0 0 0];

internalField   nonuniform List<scalar> 
5712
(
8075.5
26473.9
6439.11
27126.5
4797.49
27933.3
7492.93
42663.6
9192.85
58551.3
9172.82
42881.8
8895.59
35724.6
9251.01
31996.4
5594.11
3535.01
14985.9
8977.42
5432.52
2948.47
16210.2
8053.43
6211.85
4611.43
19865.7
14250.3
4702.7
3494.73
19524.9
14442.4
11060.4
4717.58
9622.89
4340.41
4513.85
10438.4
37390.4
10047.8
13425
4399.8
47752.2
12831.7
12395.1
4099.55
26957.1
8309.59
13857
4748.6
23663.7
7479.61
7529.5
3733.89
10335.3
4087.49
8166.78
4397.79
10043.3
3922.05
10147.2
5825.25
8657.39
3833.95
12457.9
4533.23
4248.33
1500.02
14247.4
10068.2
8645.77
6403.42
15263.8
12607.6
8251.03
7128.12
8443.76
5873.67
12273.5
8479.5
5571.94
4123.35
2672.04
2199.9
5198.75
4478.89
2505.07
2440.71
5504.14
3689.94
2690.38
1739.89
7725.01
4256.98
5953.37
7041.96
10854.4
7760.16
8851.46
12235.4
4989.72
2403.67
3436.03
3970.45
2382.91
1013.09
1414.63
1442.29
10388
18510.9
6960.57
20559.9
12023.4
18041.5
8489.59
21365.8
13457.3
16197.4
10775.8
20593.1
14495.9
16378.4
11717.5
11502.4
12387
16463.3
16158.8
16723.9
17606.5
24981.7
13411.4
11061.1
10106.8
11430.4
17378.5
21620.6
19487.2
24954.8
24273.7
19802.4
18499.5
24537.5
23677.2
17089.2
16827.5
22867.1
22698.2
12179.9
9770.25
12231.4
10978.2
13792.1
12833.8
15232.2
15047.6
20756.3
21716.2
11304.1
10128.2
11494.7
11695.2
12336.7
13775.5
14102.7
16509.4
18268.9
21880.5
9535.02
7527.39
6404.2
7995.73
12239.1
14580.6
8349.19
12997.4
5672.52
7268.33
8630.6
7195.01
1627.45
5226.09
697.658
1784.34
4183.11
8593.07
1404.31
2864.92
957.936
4596.81
394.695
1541.74
5705.9
5758.23
6521.57
4215.64
9168.54
7483.39
10790.2
7696.08
1508.43
3135.51
3245.54
1948.06
1689.78
2165.42
2379.15
1805.2
15732
9654.82
3088.62
17709.1
10289.1
3390.1
15113.4
9556.81
3270.14
17367.4
10288.2
3388.93
13888.2
8797.29
2917.11
16854.9
10291.7
3454.34
6745.69
3911.71
1146
9115.89
6085.44
2097.89
11213.5
7730.52
2668.75
13188.6
8643.48
2889.4
16618.2
10509.6
3666.29
7790.46
4649.48
1566.19
8891.99
6470.65
2464.8
10850
8011.79
2976.28
13451.7
9496.23
3431.96
16853.6
10706.8
3836.32
281.068
2047.43
2861.53
4162.89
2343.92
2656.13
5837.42
5507.86
597.658
983.094
637.596
1022.73
459.471
1358.22
836.135
1783.8
3108.17
1531.13
3994.69
2333.7
2078.92
3592.54
3375.32
606.775
6413.96
1313.68
-2334.91
234.165
1548.5
948.468
916.396
642.59
9337.69
4004.67
2528.39
1480.17
9490.09
4143.94
3196.96
1872.07
9381.58
4432.5
4561.22
2998.14
3180.7
2149.93
1257.8
1207.87
12952.2
11409.6
6002.21
6180.59
14457.5
13480.5
7056.06
7059.3
5101.28
5204.92
10738.6
8830.27
3438.09
3620.13
1716.84
2061.94
4219.6
4188.15
2118.74
2331.88
2828.41
3102.24
1378.09
1875.84
4346.07
2797.73
4266.56
2754.83
6920.17
3717.86
6455.51
3858.14
2466.4
1956.29
2626.92
1724.93
1178.89
1107.22
1587.91
953.911
10812.7
6955.05
5082.65
4805.19
10799.3
7229.34
5095.09
4789.24
11343.1
7751.91
5168.95
4705.22
14225
15958.3
12486.3
7977.07
4110.76
15137.7
13379
11865.4
9311.51
5394.63
14130.5
12262
9398.16
6858.67
3859
5379.62
4402.46
4725.39
4984.7
5728.06
4481.34
4851.91
5010.8
6288.72
4767.91
5032.26
5099.79
11412.8
8154.46
10082.2
6965.61
7501.48
5888.05
6572.84
5355.25
4761.89
5182.59
9512.48
8310.68
7998.96
6910.11
6447.68
5697.45
5269.1
4996.97
3701.41
4912.52
7129.06
4860.38
4685.79
2901.41
9720.32
7516.57
6666.29
5455.7
3621.54
2191.6
5305.23
3857.22
4598.81
2203.59
1546.89
871.474
5065.24
3711.9
1623.54
1358.12
3806.7
1677.89
1382.58
699.099
2752.04
2414.11
2139.22
3009.88
3876.11
3472.01
2726.36
3814.35
2820.92
1717.02
1572.13
2064.38
748.022
329.835
14.4684
292.62
2941.65
1236.81
365.752
3221.73
862.211
231.707
3087.37
1380.65
424.946
3281.4
918.783
259.188
3103.54
1474.89
393.567
3336.15
972.222
236.374
5211.8
2803.01
715.574
4277.26
2159.03
561.166
3783.57
1861.98
525.428
3393.82
1609.15
373.659
3420.5
989.953
167.932
6354.01
3355.12
979.513
5250.56
2666.32
766.905
4385.9
2192.27
649.965
3774.25
1663.08
432.143
3729.35
948.427
239.404
1465.64
501.743
118.784
-71.3434
611.075
218.011
63.2709
-8.8756
1541.83
541.886
151.542
-33.0285
765.365
291.803
135.728
59.1947
1636.81
590.804
212.766
32.3457
1265.57
528.996
172.879
30.1271
903.816
446.364
101.237
-34.1268
761.57
441.491
204.862
98.8547
1302.79
527.093
137.875
-90.3808
1085.31
431.597
173.014
-76.7214
1572.22
571.877
186.289
-37.8868
1391.17
504.924
196.476
-121.812
995.487
455.659
147.863
-34.9024
797.684
356.161
168.239
2.00742
671.897
362.549
178.779
91.3366
506.718
273.107
158.28
78.1461
1833.59
606.276
135.067
-151.504
1754.55
553.517
189.197
-200.186
1826.89
610.285
144.257
-145.546
1701.68
537.063
191.579
-195.811
1784.84
604.995
194.855
-88.2386
1594.97
505.774
218.652
-150.28
1557.08
549.585
240.786
29.5759
1746.68
559.65
290.025
-171.207
1363.87
480.201
229.602
-29.6892
1337.2
384.557
160.041
-123.378
520.178
138.671
43.4008
-19.3443
1397.48
410.773
170.84
-116.588
549.003
150.201
51.7794
-11.8161
1447.56
439.593
197.651
-97.5944
571.303
163.326
61.49
-3.44239
1316.37
411.78
217.998
-70.1847
563.926
168.074
79.535
11.3061
1208.34
402.357
221.158
-30.1873
513.467
174.399
101.118
29.7902
805.452
296.926
130.816
-12.2725
466.357
205.258
106.793
49.0432
954.426
319.57
156.516
-26.5821
485.884
190.152
105.779
40.698
622.238
265.797
124.033
14.726
393.432
198.313
103.294
56.4829
405.477
218.172
126.545
65.3907
298.673
179.069
105.158
68.231
-5.67635
2.31131
1.99528
1.14554
0.727393
-0.41956
1.5893
1.11641
0.619816
0.390272
4.81071
6.91839
4.13469
2.20476
1.37338
10.9997
6.83869
3.60886
1.864
1.15094
15.1801
12.1705
6.68892
3.49423
2.16543
40.1408
22.6339
11.5076
5.88492
3.62756
45.2995
25.7885
13.2179
6.80465
4.21287
65.6289
33.7399
16.802
8.59601
5.32357
23.4395
17.3813
9.35482
4.87368
3.0265
25.5494
16.4239
8.59957
4.4557
2.76391
17.0225
14.0354
7.60182
3.95233
2.44739
32.3242
17.6848
8.78255
4.46247
2.744
29.6487
20.2659
10.8325
5.65262
3.51721
34.1461
19.3912
9.94508
5.1335
3.18612
51.883
27.0326
13.5138
6.92622
4.29376
43.4581
22.2938
11.1267
5.70633
3.54023
-11.8134
1.0601
1.45959
0.875063
0.56058
-6.65467
0.277579
0.550098
0.333803
0.213924
-4.91969
3.99379
2.78733
1.52403
0.953941
-4.14564
1.34605
1.02789
0.565502
0.353673
3.34418
7.19644
4.19618
2.21161
1.3712
5.58183
4.91624
2.58063
1.31513
0.806076
22.2079
14.2089
7.23157
3.66996
2.2468
15.4369
9.23127
4.56569
2.29529
1.39992
41.1368
19.24
9.13739
4.55057
2.77377
2264.79
5147.06
2347.58
5130.1
2633.59
5127.38
3113.52
5315.62
3193.26
5411.76
1356.58
1949.8
2146.41
3251.38
747.087
982.895
258.317
323.617
11538.4
2775.03
641.222
144.572
36.3391
3166.9
857.027
229.255
52.5764
11.5816
11335.7
2706.58
625.246
139.883
35.4364
3228.84
954.52
236.772
55.5041
13.9368
10703.1
2541.56
585.667
130.996
33.2557
3133.83
920.975
227.752
53.1174
13.3876
9653.18
2275.95
523.672
117.184
29.7954
3026.43
870.564
212.618
49.1736
12.3357
7939.13
1865.34
430.049
96.4923
24.5984
2825.06
791.671
191.466
44.0463
11.028
3639.37
895.689
210.533
47.7001
12.2129
1370.14
390.064
93.7634
21.23
5.3088
5500.42
1333.99
310.826
70.0036
17.8721
2018.34
566.992
137.253
31.5668
7.95921
2115.69
524.877
124.024
28.2575
7.25552
769.233
227.361
54.4631
12.3367
3.1136
726.688
179.459
42.5445
9.73361
2.5023
300.803
82.0737
18.4547
5.13319
1.03693
-370.11
181.074
4803.92
-1140.98
787.499
843.827
2458.31
3157.54
1998.91
3760.88
3220.7
4970.58
3938.97
4883.8
2028.51
2726.44
2135.37
2534.85
1107.99
1152.11
2271.17
1567.3
677.687
-158.609
-420.053
-495.074
29.244
14012.1
4140.64
4930.46
3503.47
304.339
419.719
3348.24
-758.677
-242.515
-495.672
-299.223
7634.36
4212.49
1872.77
1375.48
3785.81
2277.98
820.37
1514.18
-932.271
-380.675
984.23
849.519
8937.99
4252.82
5631.89
2949.47
4029.97
4939.18
1734.86
-411.336
1249.41
1527.24
1175.79
952.368
794.921
551.194
1199.04
928.464
694.917
467.491
192.492
589.339
480.956
355.654
219.793
74.8923
-141.512
-117.798
-87.5415
-53.531
-17.9718
-374.167
-311.19
-231.49
-141.889
-47.6952
-441.634
-367.975
-274.295
-168.437
-56.6816
27.2927
25.5179
22.694
16.6894
6.35114
9708.81
7829.5
6129.24
5002.71
4068.74
3358.02
2661.71
2199.28
1630.12
776.848
3690.41
2807.33
2160.34
1518.87
706.057
2586.59
1915.22
1485.17
1028.49
401.113
305.521
229.301
234.2
183.112
77.2601
418.437
392.012
330.807
229.245
85.4511
2747.89
2180.22
1611.84
1046.04
401.859
-395.109
-137.175
-11.5302
35.8217
22.1208
-175.9
-104.965
-43.4924
-5.86392
3.71501
-305.926
-150.398
-44.4291
5.83819
9.38541
-275.812
-231.327
-169.376
-100.649
-32.6776
5398.4
4538.55
3619.66
2997.43
2445.91
3183.43
2420.74
1860.28
1286.78
566.529
1637.25
1368.8
1058.15
695.024
255.929
1178.56
962.928
726.869
466.68
167.841
3104.53
2435.11
1780.15
1127.04
413.663
1970.98
1616.06
1215.36
771.809
270.736
703.882
572.677
427.604
269.856
94.6266
1313.87
1073.02
797.073
496.438
170.735
-802.59
-641.556
-458.707
-272.185
-89.6354
-334.854
-272.168
-195.621
-115.234
-37.4945
853.133
700.556
527.7
335.568
118.247
740.764
611.268
461.325
292.554
102.224
5611.11
3892.15
3095.71
2556.65
1973.29
3171.3
2381.95
1750.42
1173.24
494.464
4032.13
3149.77
2383.57
1698.27
760.827
2308.49
1815.14
1347.11
891.113
362.277
3367.19
2681.62
1977.53
1249.93
447.516
3697.48
2682.48
2023.06
1382.4
540.807
1492.97
1211.33
897.118
559.554
193.445
-365.522
-301.408
-220.643
-132.515
-43.7787
1074.31
878.533
662.3
423.363
150.157
-32013.5
-51846
-26623.1
-41903.9
-28215
-58138
-33692.3
-73900.5
-20416.5
-14115.7
-22671.1
-14323.8
-18701.3
-12139.2
-22862.9
-12267
-26794.6
-20443.4
-38608.7
-28109.1
-23063.9
-18620.9
-32182.6
-24421.8
-18314.4
-18944.9
-15133.8
-14756.9
-18031.5
-16734.2
-43445.2
-12010.9
-16809.3
-6368.51
-52712.6
-14715.7
-15013.9
-5748.05
-32605.2
-10272.8
-17214.9
-6655.86
-29190.8
-9039.44
-14132.9
-5726.69
-17765.4
-6471.59
-13457.3
-5961.74
-15417.5
-5620.44
-13915.1
-6835.18
-12325.4
-4937.98
-15573.7
-5537.04
-5451.17
-1925.46
-11820.6
-8143.78
-10195
-6412.77
-10294.1
-8428.61
-8886.3
-6436.99
-10448.5
-6188.41
-12316.1
-8015.37
-7016.14
-4331.22
-3807.68
-2436.38
-6066.19
-4267.25
-3236.38
-2372.26
-7149.69
-4054.92
-3941.6
-2084.57
-9280.24
-4746.84
-6209.57
-7053.33
-11864.3
-8023.78
-8802.38
-11979.5
-6262.09
-2825.74
-3725.7
-4050.06
-3353.14
-1356.51
-1687.46
-1535.19
-14145.2
-17455.2
-8047.97
-19887.1
-14707.4
-16652.2
-9252.35
-20313.4
-14848.7
-15110.5
-11020.4
-19276.2
-10008.8
-8023.18
-11152.1
-12438.5
-12435.8
-10852
-12774.3
-15055.6
-16428.3
-23297.7
-7646.61
-8117.47
-8946.62
-10789.7
-16516
-16721.1
-11714.5
-21309.3
-16490.4
-15505.7
-11521.9
-20997.2
-16439.5
-13716
-10815.1
-19605.1
-16306.6
-8853.68
-7062.14
-9490.12
-7686.47
-10731.7
-8847.08
-11936.7
-10288
-17831.2
-16418
-8238.95
-7231.32
-8654.88
-7856.35
-9738.81
-9478.04
-11765.8
-12011.3
-16288.8
-17117.7
-7696.62
-6147.62
-5670.52
-7164.5
-9226.3
-12270.2
-6989.51
-11359
-5343.3
-6794.28
-7618.88
-6250.98
-1333.3
-4763.98
-525.483
-1508.25
-3517.93
-7775.28
-973.385
-2318.46
-872.82
-4356.62
-378.561
-1413.49
-5529.36
-5435.54
-6347.16
-3932.92
-8544.39
-6709.76
-10271.6
-6890.7
-1479.64
-2991.84
-3178.7
-1820.97
-1710.24
-2099
-2355.68
-1739.75
-7149.53
-2458.96
-9698.76
-3301.43
-7313.04
-2573.34
-9932.21
-3556.05
-7272.73
-2538.13
-10491.2
-4018.95
-4236.93
-1241.18
-5424.38
-2051.89
-6275.74
-2411.93
-7640.84
-2868.66
-11109.5
-4392.16
-5258.43
-1667.2
-5246.66
-2484.67
-6448.06
-2953.52
-8576.37
-3667.68
-11636.6
-4384.33
-7088.54
-6598.37
-5574.83
-5385.44
-11879.9
-9116.65
-9796.23
-8111.25
-4608.16
-3766.04
-1919.16
-1320.46
-4417.56
-4036.64
-1853.51
-1826.21
-3610.31
-5180.73
-4144.96
-5564.24
-4136.97
-3013.99
-3994.78
-1065.21
-7929.58
-2408.31
2137.04
-209.559
-1483.51
-847.365
-310.204
27.1319
-2394.63
-1483.93
-926.239
-488.285
-2616.6
-1600.3
-1457.4
-630.531
-3001.96
-1949.91
-2153.7
-1017.8
-1677.97
-448.847
69.8422
577.66
-5728.57
-6053.37
-4568.59
-4193.14
-7883.14
-7856.44
-6631.32
-5567.81
-2969.23
-3127.44
-4172.82
-4626.67
-2934.18
-2507.02
-1431.45
-1268.7
-4387.49
-3468.64
-2348.98
-1877.42
-1751.79
-1787.12
-609.148
-861.724
-1882.35
-1146.85
-2450.98
-1537.2
-2678.83
-1824.11
-3621.83
-2402.5
-906.735
-515.549
-1331.56
-676.841
55.8346
246.772
-514.492
10.1465
-3285.01
-3853.57
-2446.96
-3355.54
-3302.45
-3940.55
-2506.93
-3352.78
-3591.1
-3793.64
-2670.17
-3210.36
-3457.57
-5667.73
-2773.76
-2135.56
-1846.14
-8268.04
-5727.44
-4847.58
-4430.43
-3747.88
-6674.24
-5373.53
-4234.87
-3542.9
-2331
-4269.34
-4025.3
-4883.56
-7374.23
-4167.85
-3723.26
-4720.14
-7071.48
-4037.96
-3671.41
-4403.35
-6591.98
-7812.89
-5969.43
-6683.74
-5000.62
-5394.08
-4153.11
-4901.43
-4250.04
-4150.37
-6101.37
-6326.74
-5898.77
-5055.73
-4905.79
-4128.27
-4144.36
-3718.59
-4144.94
-2800.72
-5210.18
-4173.76
-2985.07
-2975.58
-1329.32
-6289.98
-5431.27
-4920.87
-3762.02
-2128.86
-849.474
-3078.26
-2344.08
-3476.53
-1241.31
-702.076
-111.516
-4069.58
-2756.04
-942.952
-634.813
-2716.17
-816.24
-482.645
12.2294
-1634.18
-1500.05
-1466.85
-2616.54
-2428.1
-2495.61
-2021
-3572.65
-1888.63
-1055.87
-886.997
-1652.06
102.21
271.088
680.04
165.599
-2821.75
-831.253
-4871.01
-439.945
-2706.46
-919.458
-4768.28
-462.882
-2234.73
-612.763
-4349.85
-329.761
-3354.1
-827.613
-2856.8
-718.921
-2739.61
-843.589
-2480.14
-494.313
-4099.42
-477.543
-4414.92
-972.809
-3699.8
-664.311
-3320.87
-664.552
-3211.78
-476.708
-4309.39
-523.195
-640.387
-177.065
37.2031
167.947
-229.594
-59.6549
9.96512
48.1248
-649.532
-165.352
36.0461
148.072
-198.292
-28.2768
-10.2471
5.82233
-684.898
-153.687
14.7135
106.746
-168.603
50.9211
149.996
161.091
236.401
210.983
277.569
253.714
576.661
367.7
258.505
161.918
-387.364
-25.7399
157.156
278.987
-308.89
23.2894
99.337
261.907
-725.461
-145.221
55.1634
199.856
-566.876
-55.7839
67.8181
322.68
-48.1385
103.03
176.886
228.473
-63.3765
98.3659
110.774
180.227
305.136
236.49
178.157
121.873
208.356
182.314
127.471
108.423
-957.415
-260.174
39.4511
280.824
-1131.69
-278.847
-63.1857
338.656
-928.984
-239.662
47.7726
287.09
-1094.13
-262.875
-62.0674
336.558
-880.314
-207.325
6.73403
230.438
-1007.14
-232.456
-87.7203
294.81
-616.048
-108.954
-7.86374
134.148
-1058.18
-220.944
-115.846
360.245
-572.238
-67.872
11.893
230.776
-1009.59
-204.127
-77.8
225.6
-430.982
-76.3552
-6.46076
52.6888
-954.602
-185.475
-68.7005
227.215
-413.994
-70.456
-6.5637
50.1476
-839.625
-147.395
-70.7319
217.581
-360.626
-54.3363
-0.815184
52.0957
-707.187
-112.434
-86.3969
189.38
-303.719
-37.8697
-6.78043
46.8788
-546.323
-59.5081
-56.4416
158.136
-175.178
0.290311
-5.31141
43.3897
-287.915
22.268
66.853
163.797
12.464
84.389
64.8131
73.7551
-458.39
-35.8712
8.81696
161.197
-55.3868
47.8443
29.7252
58.5259
-71.5288
89.9057
100.287
149.254
90.5539
117.823
91.5196
81.491
158.896
155.675
110.236
104.109
184.208
149.893
99.9746
75.9377
34.2934
8.46776
2.72144
1.15826
0.678364
14.0797
3.96573
1.38369
0.612708
0.364
38.1487
11.5549
4.45487
2.08659
1.26509
20.5371
7.96327
3.49111
1.72029
1.06024
46.2502
15.8922
6.70244
3.26091
2.00193
52.8467
22.9004
10.7429
5.42791
3.3695
60.2437
27.0354
12.8331
6.49211
4.02515
66.4663
33.2294
16.4173
8.40181
5.21829
56.4906
20.889
9.24986
4.57594
2.8177
47.5578
18.3616
8.29178
4.12412
2.54358
50.8209
17.259
7.43497
3.65413
2.24991
40.3833
16.5382
7.78383
3.93873
2.44855
60.6701
24.1895
10.9844
5.46938
3.37196
47.6007
20.7035
9.72577
4.89639
3.02737
55.5274
27.1523
13.3263
6.80546
4.2237
46.045
22.4596
10.998
5.60941
3.47914
38.606
7.75912
2.24363
0.911539
0.525523
18.2372
3.19736
0.878041
0.351862
0.20236
40.2555
9.4986
3.27333
1.47194
0.881868
18.8009
3.81191
1.24696
0.553771
0.331194
40.2574
11.1379
4.35998
2.07525
1.26763
19.3781
5.74705
2.43533
1.2039
0.745275
42.6586
14.991
6.72285
3.37529
2.10036
24.6528
8.75714
4.03152
2.04401
1.27689
33.3141
15.806
7.8123
4.03762
2.53121
-2182.48
-4214.56
-2276.23
-4245.4
-2531.91
-4315.18
-2828.8
-4469.24
-2768.86
-4512.14
-1192.86
-1739.53
-1870.76
-2815.12
-645.15
-872.981
-188.927
-258.298
-11039
-2651.13
-612.76
-138.333
-34.8516
-2988.27
-816.668
-218.954
-50.2845
-11.1044
-10824.8
-2583.61
-597.432
-133.897
-34.0076
-3049.37
-909.24
-226.004
-53.0631
-13.3536
-10190.4
-2424.16
-559.855
-125.532
-31.9622
-2953.74
-875.504
-217.113
-50.7544
-12.8265
-9181.49
-2173.19
-501.655
-112.588
-28.7168
-2835.03
-824.696
-202.348
-46.9611
-11.8199
-7588.36
-1790.28
-414.041
-93.1546
-23.8165
-2631.24
-748.547
-182.208
-42.1035
-10.5817
-3556.54
-874.55
-205.53
-46.5902
-11.9421
-1281.52
-367.959
-88.8129
-20.1817
-5.0651
-5319.58
-1291.54
-301.368
-67.9871
-17.3945
-1878.32
-535.38
-130.465
-30.1506
-7.63412
-2078.37
-514.778
-121.482
-27.6669
-7.10552
-717.471
-212.934
-50.9668
-11.5579
-2.92426
-706.563
-173.78
-41.0428
-9.36947
-2.4065
-268.012
-72.0199
-15.8136
-4.50804
-0.878901
-492.833
-1767.06
-6619.16
231.304
-7415.86
-3279
-7219.06
-3398
-13191
-7051.28
-14720
-7773.68
-88.3238
-297.278
-462.216
-545.73
-473.958
-94.9778
-146.912
-483.901
-738.024
-834.666
-681.883
-182.958
-71.3822
-72.255
-229.382
-227.461
-324.685
-323.925
-305.123
-304.378
-255.101
-280.126
-144.092
-186.834
837.389
1994.14
3252.77
2313.43
2076.79
919.786
710.399
1940.24
3190.94
3746.38
3121.67
1347.71
-79.4374
-66.9237
-50.5293
-31.3916
-10.6406
-267.641
-225.772
-170.705
-106.178
-36.0148
-416.005
-350.802
-265.149
-164.881
-55.9196
-490.941
-413.763
-312.562
-194.279
-65.8744
-426.601
-359.71
-271.805
-168.952
-57.2828
-88.8321
-77.8212
-60.5714
-38.2611
-13.038
-131.977
-111.034
-83.7189
-51.9566
-17.6017
-435.104
-366.49
-276.696
-171.914
-58.2788
-663.106
-558.07
-421.014
-261.442
-88.6067
-748.962
-629.406
-474.196
-294.195
-99.6647
-611.085
-512.82
-385.882
-239.21
-81.0097
-165.575
-140.373
-106.502
-66.333
-22.5001
-64.268
-54.2132
-40.9861
-25.4893
-8.64484
-65.0956
-54.955
-41.5813
-25.8768
-8.7795
-206.675
-174.507
-132.067
-82.2047
-27.894
-204.992
-173.134
-131.065
-81.5989
-27.6918
-292.479
-246.89
-186.796
-116.246
-39.4403
-291.738
-246.206
-186.233
-115.872
-39.3095
-274.969
-232.205
-175.741
-109.383
-37.1135
-273.93
-230.965
-174.535
-108.508
-36.7951
-230.233
-194.691
-147.469
-91.7995
-31.1418
-251.736
-211.855
-159.767
-99.1548
-33.5895
-131.649
-112.613
-85.9528
-53.6446
-18.1905
-168.101
-141.562
-106.715
-66.1477
-22.3817
736.123
605.739
448.967
276.292
93.4801
1742.4
1427.16
1055.95
650.87
221.055
2801.62
2271.69
1675.78
1038.39
356.98
1975.64
1595.78
1179.37
734.298
253.387
1804.17
1461.11
1075.24
660.449
214.844
825.582
682.875
510.379
315.236
100.338
625.302
515.141
382.051
235.092
79.5025
1701.45
1397.64
1035.4
637.707
216.104
2776.23
2266.15
1674.08
1032.41
351.293
3232.69
2622.4
1932.92
1194.42
408.366
2691.15
2180.25
1606.34
992.774
338.377
1172.95
959.414
713.206
443.495
151.235
135.498
347.668
518.234
609.046
545.334
183.34
216.9
557.458
815.448
910.566
746.723
232.579
106.684
101.386
266.9
259.706
364.799
359.846
345.354
338.413
303.434
288.763
243.582
223.73
-724.553
-1825.41
-2966.95
-1947.12
-1665.12
-489.502
-665.085
-1871.87
-3045.29
-3491.87
-2763.71
-925.691
122.255
103.409
78.41
48.8849
16.6032
313.401
264.791
200.544
124.91
42.4019
466.927
394.275
298.437
185.801
63.0567
548.569
463.038
350.353
218.061
73.9939
491.662
415.442
314.628
195.94
66.5042
169.294
146.657
113.388
71.5054
24.3883
195.537
165.233
125.168
77.9798
26.4748
501.956
423.551
320.378
199.361
67.6419
733.569
618.313
467.213
290.512
98.5317
818.159
688.693
519.763
322.921
109.482
670.295
563.651
425.028
263.928
89.4654
210.801
179.11
136.262
85.0847
28.9064
96.2969
81.4921
61.8213
38.5565
13.0976
91.5214
77.4573
58.7646
36.6517
12.4509
240.734
203.535
154.254
96.1283
32.6404
234.265
198.084
150.136
93.5676
31.7718
328.929
277.992
210.598
131.198
44.5401
324.392
274.084
207.58
129.289
43.8867
311.564
263.471
199.701
124.451
42.2557
304.928
257.49
194.896
121.33
41.1742
274.347
232.537
176.594
110.178
37.4262
260.133
219.586
166.128
103.374
35.0704
222.269
190.165
145.484
91.1334
30.9944
202.081
171.025
129.632
80.7288
27.3897
-633.778
-518.609
-382.472
-234.643
-79.3064
-1589.67
-1297.41
-957.2
-589.219
-200.144
-2540.87
-2047.94
-1503.83
-930.326
-320.284
-1629.98
-1288.56
-934.619
-575.206
-197.689
-1409.05
-1105.36
-787.709
-470.185
-146.58
-410.096
-306.359
-204.023
-111.215
-27.0281
-584.403
-480.526
-355.8
-218.74
-73.9568
-1640
-1345.89
-996.386
-613.549
-207.952
-2643.64
-2152.72
-1587.11
-977.803
-332.709
-2997.15
-2417.1
-1772.4
-1091.79
-372.965
-2355.88
-1884.48
-1372.11
-841.099
-285.456
-775.547
-606.81
-432.331
-260.623
-87.2125
-1693.87
-1073.32
-434.344
361.726
638.892
804.512
278.085
-11677.6
-2230.24
-3576.67
-1671.96
31.2254
-3885.06
571.376
2072.43
895.667
-6408.56
-3083.66
-861.6
-805.039
-3410.87
-1534.02
-463.771
-1137.21
1626.59
891.037
-657.369
-395.96
-8164.45
-3742.28
-4676.35
-2311.9
-3526.71
-3816.99
-1282.63
882.745
-674.538
-896.438
-580.93
-441.152
-431.211
-403.307
-702.759
-466.656
-309.066
-202.471
-92.8183
-367.611
-291.152
-209.998
-128.16
-43.6372
327.544
278.008
211.283
131.838
44.793
574.214
483.095
363.991
225.608
76.3438
722.931
608.195
458.357
284.224
96.2143
255.384
218.997
166.863
103.549
34.8672
-7965.67
-6554.75
-5319.77
-4740.02
-4397.83
-1450.64
-920.326
-837.932
-789.307
-496.444
-2490.31
-1768.31
-1367.66
-1038.37
-563.155
-1072.44
-676.562
-546.958
-429.401
-177.872
45.3561
44.3123
27.7042
6.51569
-3.41675
-3160.64
-2493.33
-1829.98
-1180.23
-451.609
520.733
437.132
322.684
193.011
62.3453
1778.06
1429.32
1038.79
630.684
211.83
799.819
665.49
494.672
302.681
101.332
-4266.91
-3621.57
-2964.01
-2666.87
-2477.02
-2126.82
-1490.84
-1137.66
-836.825
-423.121
-686.298
-533.203
-404.489
-279.805
-114.774
-650.845
-504.776
-371.655
-242.37
-91.7355
-2788.08
-2184.49
-1603.57
-1026.69
-384.186
-1274.82
-1004.82
-736.431
-466.19
-165.625
-374.87
-287.019
-205.474
-128.787
-46.33
-969.159
-777.091
-569.698
-353.525
-122.111
1440.85
1192.92
885.86
543.392
182.758
801.858
673.927
505.688
311.409
104.688
-544.775
-428.32
-313.796
-199.069
-71.5467
-322.038
-248.231
-179.795
-114.256
-41.2898
-4886.77
-3244.6
-2580.53
-2240.38
-1909.94
-2684.46
-1943.48
-1396.85
-941.368
-413.063
-3083.54
-2307.71
-1705.24
-1258.55
-594.155
-1705.16
-1275.95
-916.987
-612.69
-267.115
-2904.36
-2280.92
-1668.01
-1055.38
-381.788
-2663.68
-1766.37
-1311.98
-937.662
-392.341
-1080.16
-857.326
-625.317
-388.835
-135.42
795.878
670.653
504.821
311.861
105.106
-541.49
-414.637
-301.313
-194.33
-71.8744
-3.31046
13.3155
34.0009
28.968
-33.6239
-161.544
-22909.4
-20274.3
-19126.1
-21760.9
-16879.1
-13426.8
-15054.1
-11480.7
-20134.9
-17851.8
-18581.5
-17641.6
-16365
-14017
-17259.8
-19010
-17044
-15496.3
-17431.9
-14388.8
-12208.8
-12715.3
-10224.1
-18206.7
-16395.8
-16812.4
-15498.7
-14623.1
-13633.7
-14221.2
-15079.5
-13857.3
-12352.4
-13490.2
-12072.7
-10415
-10677.4
-9168.55
-15367.8
-14216.9
-14330.8
-13317.5
-12519.3
-11572.7
-12102.6
-10668.8
-10058.5
-8786.68
-9311.12
-9055.26
-8148.32
-7982.55
-7275.74
-11250.7
-11440.1
-10632.7
-10808
-9527.57
-8645.33
-9641.95
-6880.88
-6587.22
-5680.83
-5926.56
-6100.49
-5539.96
-5290.73
-4877.78
-7498.05
-7547.82
-7169.07
-7093.56
-6553.3
-5942.55
-6468.88
-2487.3
-2401.49
-2059.56
-2132.71
-2259.5
-2109.82
-1942.86
-1808.97
-2830.95
-2855.25
-2661.91
-2574.28
-2463.13
-2263.37
-2436.8
-8489.94
-8349.92
-12846.7
-13848.2
-7953.27
-7055.56
-11269.9
-9168.95
-6372.85
-4508.82
-6344.07
-4529.71
-6352.28
-6124.51
-4668.08
-8419.95
-7988.87
-11466.7
-12492.1
-7415
-6697.91
-9984.4
-8574.19
-6306.61
-3831.34
-6210.44
-4097.81
-5674.18
-5493.08
-4551.62
-7620.73
-7256.54
-9718.09
-10419
-6806.96
-6308.62
-8693.3
-7667.78
-5133.52
-3958.04
-5124.36
-4250.43
-4770.69
-4807.78
-4506.7
-6060.96
-5824.61
-7264.83
-7635.76
-5520.09
-5141.5
-6714.3
-6104.5
-4740.84
-3408.67
-4669.2
-3697.09
-4359.76
-4360.25
-3881.88
-4126.52
-3990.45
-4786.83
-4973.87
-3714.01
-3424.41
-4502.45
-4121.11
-3250.29
-2534.44
-3188.73
-2723.39
-2985.61
-2957.77
-2697.83
-1524.8
-1476.92
-1745.82
-1805.03
-1370.35
-1256.59
-1653.29
-1520.16
-1063.68
-918.218
-1130.1
-1022.45
-1097.21
-1076.8
-976.526
8039.38
25931
6404.27
27124.9
4779.55
27935.6
7488.22
42672.5
9187.35
58563.8
9154.56
42877.9
8858
35705.6
9225.81
31309.6
5586.21
3533.16
14986.9
8977.6
5430.79
2948.24
16213.7
8054.67
6173.08
4580.25
19469.7
13985.2
4679.77
3485.09
19541.8
14462.9
11067.5
4710.28
9623.53
4337.84
4508.72
10447.5
37400.7
10049.2
13427.3
4399.78
47763.4
12834.1
12397.5
4100.18
26971.4
8312.18
13861
4749.23
23682.6
7483.02
7461.34
3700.26
10158
4020.32
8167.64
4398.59
10059.9
3928.36
10146.3
5825.55
8662.86
3836.58
12468.3
4537.18
4250.83
1501.01
14246.3
10067.4
8645.6
6403.21
15262
12606.2
8251.16
7127.92
8443.97
5873.67
12272.7
8479.24
5572.35
4123.37
2671.59
2199.67
5199.4
4479.01
2505.05
2440.66
5505.07
3690.04
2690.11
1739.67
7726.04
4257.64
5953.61
7042.33
10854.3
7760.57
8851.62
12235.9
4991.3
2404.35
3436.25
3970.69
2383.08
1013.21
1414.52
1442.3
10333.7
18510.4
6921.12
20555.6
12025.8
18036.8
8493.92
21362.3
13457.5
16196.3
10776.9
20592.5
14494.9
16376.1
11717
11503
12388
16461.2
16157.5
16723
17606.1
24981.9
13409.7
11060.2
10106.4
11430.5
17379.1
21655.6
19540.1
24969.4
24254.4
19793.7
18493.3
24527.5
23671.2
17086
16823.2
22865.7
22696.2
12178.3
9769.13
12230.2
10977
13790.8
12832.3
15230.4
15045.4
20755.6
21715.1
11302.9
10127.1
11493.8
11694.1
12335.9
13774.4
14102.1
16508.4
18269
21880
9534.49
7527.13
6403.99
7995.68
12238
14579.7
8348.73
12996.9
5672.48
7268.45
8630.36
7194.92
1627.31
5226.08
697.55
1784.3
4182.96
8592.86
1404.29
2864.87
957.845
4596.88
394.569
1541.7
5706.03
5758.38
6521.84
4215.76
9168.58
7483.46
10790.5
7696.19
1508.44
3135.59
3245.67
1948.11
1689.77
2165.45
2379.21
1805.22
15769.6
9675.21
3101.2
17721.5
10303.5
3394.96
15108.9
9555.8
3270.15
17363.6
10286.3
3388.79
13885.2
8795.87
2916.79
16852.8
10290.2
3453.95
6744.85
3911.17
1145.82
9114.82
6084.7
2097.65
11212
7729.55
2668.44
13186.6
8642.25
2889.04
16616.8
10508.5
3665.9
7789.57
4648.89
1565.97
8890.94
6469.86
2464.49
10848.8
8010.85
2975.92
13450.5
9495.21
3431.56
16852.7
10705.8
3835.92
286.796
2049.63
2876.76
4167.61
2346.41
2657.28
5845.91
5510.59
580.792
971.411
618.503
1007.01
463.794
1357.56
840.602
1782.74
3121.04
1536.54
3999.54
2335.03
2082.58
3600.83
3380.31
610.877
6416.96
1315.75
-2322.18
243.009
1554.55
953.929
926.68
650.785
9351.92
4003.61
2519.28
1474.56
9480.7
4143.44
3194.56
1871.73
9376.21
4431.28
4562.61
2997.69
3184.92
2150.43
1262.98
1209.68
12948.4
11407.4
6003.21
6180.64
14454.7
13478.6
7056.62
7059.26
5102.33
5204.89
10734.7
8828.37
3440.35
3620.73
1718.67
2062.54
4220.97
4188.53
2119.58
2332.16
2830.98
3102.82
1380.48
1876.54
4346.43
2797.67
4266.41
2754.7
6917.59
3717.05
6454.14
3857.48
2468.25
1956.83
2627.35
1725.15
1181.11
1108.26
1588.55
954.359
10842.2
6957.57
5086.09
4805.28
10790.5
7228.42
5093.49
4788.79
11334.9
7748.27
5167.01
4703.85
14219.7
15954.4
12480.8
7973.3
4109.53
15134.6
13374.8
11860.8
9307.69
5393.08
14127.9
12259
9395.5
6856.72
3858.14
5375.28
4399.94
4722.04
4979.66
5726.48
4481.35
4849.75
5009.81
6286.61
4766.69
5031.22
5099.07
11410.7
8153.2
10079.6
6964.12
7498.94
5886.54
6570.62
5353.85
4760.73
5181.64
9510.78
8309.38
7996.89
6908.63
6445.7
5696.03
5267.52
4995.75
3700.54
4911.57
7127.34
4859.31
4685.22
2900.92
9718.78
7515.54
6665.73
5455.17
3621.05
2191.19
5303.78
3856.29
4598.77
2203.44
1547.15
871.58
5065.16
3711.71
1623.67
1358.16
3806.66
1677.78
1382.89
699.23
2751.68
2413.71
2138.98
3009.47
3875.1
3471.23
2725.82
3813.68
2820.9
1716.89
1572.14
2064.22
748.339
329.978
14.7604
292.737
2941.19
1238.11
366.809
3223.65
866.485
232.745
3086.7
1380.89
424.998
3279.98
917.914
259.211
3102.83
1474.69
393.556
3335.51
971.828
236.292
5211
2802.56
715.431
4276.43
2158.61
561.042
3782.74
1861.6
525.323
3393.02
1608.82
373.568
3419.87
989.687
167.856
6353.11
3354.62
979.342
5249.63
2665.86
766.758
4385.01
2191.85
649.839
3773.46
1662.73
432.035
3728.7
948.23
239.348
1460.42
499.082
117.482
-71.7273
605.45
215.506
62.3307
-9.1797
1541.99
541.914
151.523
-33.1097
765.385
291.793
135.657
59.1064
1636.64
590.756
212.735
32.2899
1265.36
528.908
172.82
30.0553
903.839
446.347
101.227
-34.1449
762.084
441.675
204.936
98.8772
1302.75
527.086
137.878
-90.3863
1085.31
431.613
173.025
-76.7038
1571.99
571.815
186.268
-37.9106
1391
504.877
196.456
-121.813
995.651
455.728
147.901
-34.8842
797.82
356.236
168.279
2.03278
672.294
362.718
178.858
91.3695
506.969
273.237
158.35
78.1843
1833.17
605.731
134.191
-152.118
1756.43
554.068
189.035
-200.966
1826.42
610.078
144.198
-145.614
1701.28
536.909
191.58
-195.824
1784.41
604.846
194.806
-88.2709
1594.54
505.629
218.614
-150.288
1556.71
549.443
240.714
29.5153
1746.25
559.519
289.97
-171.216
1363.63
480.117
229.549
-29.7423
1341.33
386.063
160.607
-124.296
522.687
139.479
43.5887
-19.6596
1395.61
410.159
170.643
-116.514
548.222
149.951
51.6705
-11.7822
1447.03
439.363
197.576
-97.6048
571.035
163.213
61.4386
-3.45093
1316
411.637
217.937
-70.1956
563.745
167.998
79.495
11.2849
1208.08
402.26
221.108
-30.2007
513.342
174.344
101.082
29.7645
805.428
296.937
130.823
-12.2626
466.356
205.26
106.788
49.0352
954.29
319.535
156.498
-26.5841
485.814
190.119
105.752
40.6758
622.322
265.856
124.067
14.7514
393.511
198.361
103.318
56.4952
405.653
218.277
126.604
65.43
298.817
179.159
105.208
68.2631
-6.07673
2.10681
1.8986
1.0982
0.699087
-0.672084