/*--------------------------------*- C++ -*----------------------------------*\
| =========                 |                                                 |
| \\      /  F ield         | OpenFOAM: The Open Source CFD Toolbox           |
|  \\    /   O peration     | Version:  2306                                  |
|   \\  /    A nd           | Website:  www.openfoam.com                      |
|    \\/     M anipulation  |                                                 |
\*---------------------------------------------------------------------------*/
FoamFile
{
    version     2.0;
    format      ascii;
    arch        "LSB;label=32;scalar=64";
    class       volScalarField;
    location    "1.2";
    object      gradTy;
}
// * * * * * * * * * * * * * * * * * * * * * * * * * * * * * * * * * * * * * //

dimensions      [0 -1 0 1 0 0 0];

internalField   nonuniform List<scalar> 
5712
(
12648.1
7298.08
20402.2
13439.2
22325.9
16582.8
34808.7
43509.8
45883.9
56518.1
29786.3
25985.6
18897.9
15059.7
9524.82
6454.86
20908.9
21078.3
18152.4
21158.3
28226.5
24849.7
32914
26277.1
8829.59
6259.6
4996.91
3736.83
10463.2
8481.44
6425.17
5257.73
19643.4
20112.6
19786.4
16242.9
15062.5
12054.1
12036.5
13762.2
19350.1
19358.2
41091.1
42606.5
28747.1
29752
16879.1
14237
18114.9
12862.8
8428.57
8736.91
7137.3
10599.5
3751.59
4695.54
9739.4
14065.6
5857.59
7020.1
10627.6
18885.7
7435.03
12576.9
2804.33
7419.74
2339.61
5514.6
18422.5
22891.7
19311.2
22977.6
22400.4
22508.3
23113.6
22407.4
16646.2
22734.3
16845.7
22330.9
19159.9
22929.5
19233.9
22940.2
23488.5
22237.2
23507.6
22088.2
15475.5
22899.8
14997.3
23027.3
19486.2
23474.5
24598
35201.5
20675.3
27436.2
24410
38644.6
18463.8
20518.5
24671.7
33651.9
18282.9
19147.1
24943.8
33333.5
6420.91
8588.98
16537.6
29641.2
7822
9050.08
20976.8
33177.9
9515.41
9664.35
26145.4
36178.3
25599.9
26702.9
22391.4
22324
33961.8
26673.6
25781.6
22739
20214.7
39345.5
24407.9
24618.6
22556.2
23386.1
44191.5
2389.28
2898.01
5253.53
12640.8
3347.83
3872.61
7064.57
13797.8
4865.78
4145.41
9379.82
15324.3
25926.7
24786.6
23850.5
22634.6
21240.1
18653.1
16420.2
14152
12095.2
17501.2
23842.9
22355
24559.2
23524.4
21934.7
20061.9
18748.8
16546.9
12772.8
17351.2
24655.2
27555.2
24689.5
28398.2
23373.3
23901.4
22940
24278.3
22967.7
23268.7
22748.5
22525.9
24544.4
28584.5
24486.4
28620.7
22339.9
24685.4
22207.5
24688.7
23060.6
23216.8
23092.2
23234.4
19736.5
18726.1
12862.6
14488.6
19643.5
18291.8
12708.1
14721.7
19979.6
18632.7
13124.9
14467.5
20064.7
18439.2
13530
14448
1847.78
1156.85
756.047
1017.14
631.307
577.079
2605.6
1395.67
991.442
1955.37
1474.15
1199.08
2873.02
2127.23
2023.36
3387.21
2590.35
2235.61
22526.6
19143.4
16956.7
21124.3
18505.3
16645.7
15406.4
13488.4
12415.8
10879
8755.68
7818.64
5211.21
3522.96
2842.64
20641.4
17924.4
15908.9
21712.2
18533
16308.4
16491.7
13151.2
11317.1
11026.2
8107.01
6896.68
5507.51
3474.27
2642.57
28200.8
27287.4
30990.3
27501
31974.2
27526.1
38992.9
29264.3
21517.8
21468.9
21344.1
19536
24193.7
22419.3
23907.5
20150.2
23660.3
23266
21739
23009.7
28411.2
25802.4
29167.6
29740.8
32015.2
33260.3
24100.9
25128.3
21575.7
21008.1
25979.5
26744.8
16425
8858.25
15468.4
9800.23
16712.1
8937.7
15471.8
9742.14
16519.7
8973.85
15480.7
10155.8
15124
10626.1
15342.1
10524.9
21505.1
18071.3
21606.1
18185.4
23980.7
21410.2
24479.3
21360.9
20963
14947.1
21645
14637.1
22244.2
18182.3
22603.2
18002.2
25294.8
21288.7
25403
21058.8
20897.4
15053
20897.4
14970.2
13549.8
8993.69
11687.3
7627.53
12503
8039.99
11155.5
7124.63
13956.9
9558.69
11915.4
7862.9
14004.3
9883.82
11889.6
7915.08
2570.48
1342.33
4767.38
2694.93
2728.2
1619.93
5063.76
3165.96
3328.05
2405.2
5580.55
4047.38
12780.3
20158.3
9169.62
8781.23
6395.17
19537.9
13336.4
7703.19
7747.98
5271.23
20603.1
15950
12510
9663.48
6244.5
717.4
501.995
1653.78
1246.18
974.037
632.14
2193.17
1726.86
1644.81
1170.27
3048.03
2441.11
19492.5
18201.2
12891.3
11818.4
8195.53
7814.91
6861.33
5887.95
4474.69
3581.08
18494.5
16241.1
14020.4
11754
10703.5
8968.15
8069.78
6801.03
5444.8
5011.56
14598
11235.9
14816.6
11123.9
17949
14428.7
18074.5
14447.9
12121.3
9281.22
11670.1
9187.76
14903
11043.1
14832.3
11045.3
18093.7
14843.5
17956.6
14837.9
12395.7
9207.47
12379.9
9328.59
9312.3
7377.51
6381.35
6220.93
8914.16
7130.77
6087.09
5841.46
9732.33
7557.71
6552.56
6573.39
9950.45
7556.85
6799.24
6664.38
1232.09
1049
850.073
5231.21
2735.02
2192.43
1209.38
1155.26
1003.21
5764.71
3278.1
2721.21
1705.78
1842.63
1841.28
6523.5
4176.99
3631.54
16194.7
14249.9
13009.6
10626.8
9658.45
9108.11
7435.02
6876.89
6628.95
6065.53
5527.1
5213.71
7604.37
5243.38
4604.11
13993.8
12025.6
10798.5
9941.55
8579.36
7836.61
7876.48
6780.06
6207.34
7187.86
5976.85
5320.01
9380.69
5952.12
5154.52
4808.36
2823.71
1744.46
1138.51
5383.04
3053.81
1836.06
1171.01
4837.16
2826.28
1750.09
1145.06
5497.67
3118.84
1882.47
1197.87
4838.2
2808.89
1779.4
1166.58
5615.22
3164.1
1952.69
1236.19
6028.17
3337.81
1961.13
1237.01
6188.6
3454.68
2001.48
1263.44
5145.2
2988.89
1863.17
1196.71
4313.97
2669.8
1729.36
1141.99
4555.39
2728.31
1756.97
1139.7
4003.28
2528.1
1666.48
1104.99
5540.04
3184.14
1930.72
1229.57
4500.47
2772.22
1767.26
1168.75
5756.97
3314.72
1981.99
1262.05
4582.78
2844.67
1803.27
1193.62
3688.74
2448.11
1606.91
1085.96
2541.37
2011.1
1440.36
1019.4
3707.6
2442.96
1609.32
1086.32
2646.56
2040.51
1450.65
1025.57
3807.55
2452.41
1632.55
1102.63
2951.79
2130.61
1487.13
1049.6
3791.61
2412.09
1619.56
1129.49
3221.65
2198.58
1538.81
1057.9
3590.15
2362.34
1595.8
1089.78
1471.79
1667.84
1172.84
356.928
374.528
1483.94
1071.43
362.053
1672.42
1735.64
1201.44
375.726
601.689
1557.52
1095.39
369.992
2057.85
1857.57
1240.78
375.373
1000.57
1684.2
1128.91
374.575
2544.92
2007.52
1307.69
406.993
1451.4
1830.13
1180.28
391.15
2898.05
2151.33
1391.84
467.978
1637.67
1949.84
1229.12
405.968
3125.42
2318.51
1428.18
451.026
1525.38
2097.29
1322.05
432.754
3035.47
2245.53
1402.38
449.965
1454.83
2030.09
1274.78
417.206
3167.65
2368.68
1439.15
424.329
1515.05
2151.75
1349.12
435.268
3232.3
2417.53
1471.34
431.451
1609.58
2203.77
1381.25
444.645
812.371
527.244
314.749
163.875
50.4944
806.441
526.574
315.081
164.136
50.5776
823.135
532.452
316.966
164.788
50.7439
821.763
533.201
317.996
165.366
50.9169
845.998
539.715
319.788
165.928
51.0542
842.065
540.775
321.337
166.788
51.3115
851.473
549.014
325.629
168.731
51.8621
870.413
560.355
331.518
171.425
52.6299
868.473
548.27
323.745
167.649
51.5355
922.103
558.106
326.395
168.544
51.7648
872.391
545.943
321.875
166.716
51.2643
920.693
554.448
324.326
167.593
51.4937
875.342
555.439
327.562
169.392
52.031
939.009
565.03
329.836
170.103
52.2082
895.998
566.514
333.091
171.895
52.743
960.827
574.921
334.603
172.252
52.8197
831.2
529.563
314.661
163.661
50.4205
868.481
532.366
314.698
163.539
50.3762
841.621
533.717
316.343
164.339
50.6037
877.067
535.562
315.999
164.063
50.5181
863.358
540.626
318.956
165.385
50.8876
895.98
541.388
318.291
164.994
50.7712
895.83
548.252
321.554
166.4
51.1614
918.492
547.59
320.851
166.058
51.0629
925.823
552.141
322.998
166.987
51.3214
12588.1
19592.9
13019.2
19735.8
13600.7
19836.7
13834.1
19709.6
12948.1
18549.8
11569.1
13111.3
11724
14010.4
11558.7
12866.5
11731.7
12969
11278.8
1941.74
417.838
94.4331
16.8278
12581.4
3597.29
878.71
200.77
35.7561
11287.7
1911.19
408.801
92.1213
16.3804
12563.6
3553.53
865.769
197.042
34.8133
11200.9
1874.49
398.357
89.5141
15.8986
12439.2
3489.99
847.265
192.389
33.9719
10865
1782.63
376.207
84.4672
15.0097
12055.5
3358.38
813.802
184.754
32.6242
10067.9
1611
339.813
76.6554
13.6689
11193.5
3128.3
761.567
173.607
30.7302
8616.33
1434.92
313.154
71.9603
12.9543
8831.69
2600.66
651.869
151.47
27.1248
9069.81
1486.09
320.344
73.0922
13.1058
9550.86
2805.9
696.391
160.344
28.5344
8417.68
1415.26
310.285
71.49
12.8866
8549.89
2500.61
627.398
146.317
26.2909
8351.77
1398.24
306.257
70.5892
12.7147
8513.19
2470.54
618.115
144.488
25.9254
35720.5
51325.3
50005.8
34529
19974.7
21090.1
29522
31008.3
23365.9
26362.9
37462.1
51554.6
47510.1
63356
30873.6
35379.1
24065.5
25833.2
12999.4
14302.1
4726.51
2986.96
542.435
376.75
427.5
361.505
476.486
4416.28
4133.34
2402.06
3269.03
2983.59
1219.02
1788.51
1529.54
952.223
1116.34
877.086
4038.04
1962.39
1088.95
947.894
1300.96
1102.01
811.824
732.905
645.11
550.065
821.62
730.593
4328.05
2465.53
2871.58
1685.33
1310.5
1984.95
822.029
582.374
922.986
9333.42
8887.85
8529.21
8984.56
13852.3
6419.44
6964.72
7185.11
7647.84
8596.51
1405.65
1960.4
2350.97
2599.4
2722.72
987.36
1400.16
1702.6
1898.4
1994.66
1119.5
1584.85
1922.55
2138.24
2242.86
949.492
1350.62
1646.13
1837.41
1931
1242.64
1748.6
2110.87
2341.19
2453.43
9027.74
8831.1
8230.31
8215.25
12139
8437.55
8107.03
7418.92
7200.02
7951.48
5369.42
6058.48
6210.75
6344.54
6664.68
6850.1
6841.48
6327.26
6009.83
6004.93
6254.65
6318.28
5850.24
5478.24
5350.43
2972.23
3786.9
4208.8
4429.87
4546.87
4145.38
4910.49
5167.74
5274.98
5373.7
3601.19
4356.46
4635.1
4722.6
4758.8
2381.72
3146.56
3594.23
3839.11
3954.06
2739.57
3519.34
3926.24
4125.08
4213.3
2210.8
2952.17
3398.21
3642.82
3753.52
8410.42
8496.4
8144.99
8343.08
12457.8
4536.13
5387.98
5756.66
6043.42
6414.78
2697.37
3518.32
3989.95
4262.29
4411.2
2376.82
3158.27
3640.09
3931.68
4088.79
3162.56
4026.43
4504.27
4806.79
5019.63
2734.22
3583.05
4096.76
4423.18
4619.74
2060.28
2789.21
3269.88
3574.8
3737.57
1875
2564.53
3023.93
3307.62
3449.68
1663.12
2297.91
2725.96
2983.97
3105.83
1427.72
1993.77
2388.96
2634.45
2752.37
2083.92
2811.41
3270.8
3539.38
3669.43
1868.24
2552.36
3003.68
3277.38
3411.74
8754.62
8598.68
8305.03
8698
13258.4
5470.82
6198.52
6541.25
6982.02
7700.2
6482.81
7218.64
7330.88
7714.54
9045.6
3994.91
4935.1
5454.3
5859.7
6235.76
3200.39
4108.08
4640.65
5002.99
5257.5
4594.8
5484.56
5905.33
6262.99
6711.29
2085.64
2820.75
3300.82
3600.81
3758.57
1506.08
2092.82
2499.43
2753.43
2877.62
2321.09
3098.69
3588.27
3891.16
4055.72
20134.3
13449.6
20677.2
14868.8
26564.5
38601
27884
38511.3
21162.3
22213.9
18247.9
21587.6
23708.1
22312.1
30661.1
24758.5
15751.9
15068.1
7716.54
6724.66
17100.7
15930.4
8827.62
7326.15
21263.5
22857.5
21577.2
19504.1
22258
14626.5
11967.5
13785.4
19472.9
19402.1
40899.2
42634.3
28178.2
29623.2
17730.7
14435.4
19123.8
13063.3
9319.16
8963.49
16190
18146.4
6746.37
7445.6
17700.4
20505.4
8365.83
9344.42
16689.3
23811.6
9652.99
15135.5
3331.61
8315.37
2449.01
5692.75
19493.4
22147.9
19453.1
22569.2
20842.2
21003
22113.5
21593.8
18091.8
22837.6
20583
22530.9
19124.9
22718.4
19205.9
22872.3
22997.8
21834
23368.4
21965.3
15972.7
22937.9
15099.7
23032.6
20715
25003
25061.2
35690
22664.5
29865.9
25240
39477
19052.5
21285.9
24893
33907.6
18442.9
19366.8
25003.5
33411.2
22283.7
24001.2
28412.9
42570
22262.9
22667.7
30327.2
43001.4
21696.5
21208.6
32469.6
42375.7
19671.1
20084.7
21591.1
23636.5
36717.3
19213.4
18330.4
22934.5
21434.6
42256.6
20047
21389.7
21780.7
24404.2
45348
12598.9
11337.9
12158
16142
13821.9
12466.2
12563
16517
15278.7
13008
13083.5
16772.2
18386.8
17290.3
17625.5
16791.9
21033
19227.6
17694.9
15676.9
13641.7
17410.2
19505.9
18878
21146.1
20920.3
20818.4
19303.5
19395.8
17058.6
13372.6
16729.9
23128
25849.4
23974.3
27520.6
21388.5
22064.5
22027.4
23397.5
22681.9
22836
22198.6
21811.7
24210.8
28181.1
24387.8
28504.4
21926.8
24271.6
22087.2
24570.2
22912.7
23008.4
23045.5
23174.3
19795.6
18635.1
13019.1
14485.6
19825.5
18227.9
13058.9
14698.9
19993.6
18579.2
13191.6
14469.2
20065.4
18422
13548.9
14448.1
10248
10422.8
4522.83
4120.54
11434.4
11006.9
5063.05
4806.28
11099.1
10258
5729.25
5482.27
16633.8
15828.7
16663.9
16487.9
17074.7
16268.8
13187.6
11559.2
6803.85
5501.43
18657.9
17525.7
20539.9
19342
16788.1
15191.2
12383.4
10342.5
6215.1
4501.15
23010.3
21606.8
28752.6
24741.9
26080.3
22934.2
36398.3
26974.8
20828.7
16840.2
22969.6
17863.5
20661.2
17137
23068.8
18139.3
21513.4
18751.8
19279.2
17654.1
21415.2
23059.8
27829.5
29345.2
30984.6
32978
22812.6
24693.8
20455.2
20691.2
24416.7
26222.6
13499.4
9846.52
14065.6
10109.7
13800.6
9775.92
14300.2
9986.4
13716.2
9645.14
14295.6
10223.8
14415.3
10576.9
15101.8
10499.1
17575.8
16795.7
19681.3
17398.3
20487.3
19427.8
22673.4
20278.8
19071.8
14608.7
17862.1
14299.8
21303.1
17765.6
22326.6
17876.2
24447.4
20753.2
25163.4
20899.1
19951.1
14841.4
20616.5
14903.6
13077.7
9302.98
11809
7941.82
12342.8
8952.24
11639
7826.52
13609.9
9646.82
11930.4
8001.16
13885.9
9898.96
11889.8
7958.37
12768.4
12565.4
9183.65
8415.58
12902.8
12692.6
9048.96
8350.8
12843.7
12222
8839.24
8276.49
15247.6
18348.1
15789.4
11570.5
8561.73
16926.3
15542.7
16986
11468.4
8241.03
18722.8
16198.9
14049.5
11597.4
7709.52
12565
12894.6
8153.71
8414.76
12504.6
12652.6
8106.54
8335.64
11751.3
11608.3
7827.3
7689.73
16503.9
15234
14552.3
13536.7
14688.4
14502.3
11227.7
11351.4
7645.43
7261.39
16719.4
14877.8
14633.1
12813.6
12800.7
11611.4
10638.8
10011
7114.98
7085.95
14384.8
11673.6
14540.4
11239.3
16786
13785.6
17394.7
14083.4
12240.7
9746.48
12244.8
10350.9
14721.5
11071.3
14774.4
11048.6
17754.3
14654.9
17855.7
14782.5
12387.4
9384.26
12365
9368.72
9716.3
8024.2
6800.38
6826.63
9916.35
8569.2
6950.75
7107.82
9876.83
7822.07
6739.03
6877.09
9987.98
7629.03
6859.21
6755.81
14491.5
14288.4
18341.3
15679.5
14071
13917
17625.4
15012.4
12470.4
12717.7
16232.9
13952.9
14355.5
13579
12704.3
12203.4
14109.1
14117.4
12307
11965
14899.6
12669.2
13397.1
12406.9
11600.4
11089.4
11225.3
11172.8
11366.5
10849.3
14318.7
11423.2
6054.23
3602.85
2169.42
1376.3
6269.36
3708.25
2221.81
1392.46
5965.38
3548.7
2138.65
1361.01
6229.93
3681.15
2216.26
1391.19
5804.76
3443.91
2124.24
1358.79
6179.97
3615.36
2233.1
1401.65
6345.21
3617.71
2144.41
1348.71
6292.35
3551.23
2063.45
1302.08
5635.32
3349.28
2092.38
1338.6
4656.11
2931.96
1896.34
1249.38
5359.4
3251
2062.61
1318.52
4577.18
2935.06
1895.14
1238.4
5801.29
3396.44
2072.32
1319.25
4681.43
2919.38
1869.75
1239.56
5836.57
3385.16
2030.1
1293.09
4639.21
2892.38
1837.88
1217.82
5620.59
3409.66
2086.98
1345.14
4943.25
3132.06
1976.01
1298.92
5500.73
3352.83
2060.57
1328.33
4863.55
3099.76
1958.92
1291.87
5336.75
3261.87
2040.15
1322.94
4810.01
3058.27
1942.18
1287.9
4968.64
3091.65
1971.24
1323.69
4669.87
2988
1928.63
1255.34
4460.08
2920.03
1884.68
1244.28
4004.97
2854.66
1679.51
480.74
2618.74
2682.04
1592.13
504.838
4026.73
2852.91
1684.13
497.356
2720.66
2682.72
1591.52
507.233
4072.46
2836.61
1667.28
478.906
2864.16
2670.62
1572.16
496.931
4025.58
2797.85
1679.59
502.14
2853.19
2635.29
1560.72
498.397
3806.94
2721.86
1691.22
556.97
2460.14
2553.71
1537.14
496.306
3403.03
2555.64
1594.79
507.879
1712.12
2352.96
1480.37
484.263
3545.72
2625.79
1635.98
523.087
1859.52
2439
1503.57
487.453
3305.04
2498.12
1538.05
458.785
1592.32
2289.07
1440.16
465.814
3272.22
2458.59
1503.74
442.939
1628.27
2246.36
1410.43
454.573
959.099
605.445
353.593
181.357
55.4555
940.56
600.644
352.34
180.98
55.3642
958.391
603.658
352.323
180.706
55.2624
939.677
597.761
350.461
180.05
55.0913
968.966
602.473
350.821
179.891
55.0182
941.565
594.21
348.165
178.924
54.7623
919.311
585.968
344.285
177.193
54.2707
895.268
574.244
338.574
174.634
53.5443
958.967
596.507
347.715
178.461
54.6077
1006.84
600.922
347.433
178.008
54.4526
987.503
603.377
350.071
179.385
54.8599
1030.18
606.056
349.457
178.865
54.692
934.807
588.399
344.089
176.872
54.1591
993.707
593.922
344.163
176.572
54.0479
916.508
577.895
338.836
174.503
53.4857
979.56
584.953
339.608
174.518
53.4647
997.801
612.689
355.119
181.754
55.5455
1061.55
619.34
356.203
182.009
55.6016
1000.01
611.694
354.259
181.296
55.4083
1062.44
618.4
355.525
181.658
55.4969
1009.82
610.555
352.87
180.556
55.1873
1066.81
616.594
354.189
180.989
55.2996
1032.11
610.57
351.628
179.849
54.9738
1073.28
613.587
352.459
180.167
55.0604
1055.3
609.471
350.706
179.388
54.8379
14091.3
18728.6
14129.2
18696.1
14207.7
18608.4
13860.3
18268.6
12805.3
17217
11577.9
13028.8
11732
13746.6
11565.6
12842
11734.4
12964.4
11114.4
1873.35
399.973
90.2641
16.0919
11967.9
3434.49
839.057
191.796
34.1857
11037.9
1837.65
390.89
88.0531
15.6716
11883.6
3383.16
825.759
188.21
33.2977
10834.6
1794.57
380.631
85.6416
15.2356
11685.8
3312.67
807.598
183.898
32.538
10436.3
1705.77
360.357
81.1029
14.4405
11302.2
3189.29
777.281
177.105
31.3477
9726.97
1554.35
328.211
74.1725
13.2461
10589.4
2992.41
732.033
167.394
29.6922
8546.65
1419.96
309.283
71.0038
12.7788
8736.43
2563.68
641.553
148.981
26.6782
8915.7
1455.8
313.286
71.4714
12.8202
9311.86
2728.6
677.258
156.071
27.801
8388.84
1408.54
308.405
70.9975
12.7931
8515.1
2485.38
622.708
145.105
26.0639
8344.12
1396.33
305.697
70.4383
12.6855
8504.59
2466.53
616.804
144.133
25.8572
35319.3
51165.8
49302.9
33272.1
25646.7
31006.7
24705.7
30858.5
29177.1
47264.6
31077.8
48505.1
58.7447
68.8236
91.1659
128.813
187.076
273.39
66.8514
77.7228
101.684
141.574
201.795
288.276
52.8058
49.9333
63.0972
61.0101
86.0818
85.9929
125.305
129.666
185.479
196.14
269.879
280.932
398.321
574.986
826.707
1187.02
1618.9
1932.17
408.148
568.293
774.188
1019.27
1262.3
1421.35
156.712
228.562
285.492
324.722
344.679
183.415
267.068
333.028
378.282
401.235
242.546
352.194
437.964
496.392
525.887
341.906
494.611
612.786
692.549
732.576
494.944
712.322
878.159
988.793
1043.94
719.881
1028.44
1259.26
1411.05
1486.21
178.207
259.598
323.858
368.003
390.413
206.937
300.861
374.601
425.007
450.513
270.188
391.542
485.946
549.967
582.197
375.147
541.278
668.96
754.69
797.594
532.785
764.362
939.638
1055.96
1113.82
757.385
1078.42
1316.7
1472.78
1550.06
140.947
205.754
257.236
292.796
310.915
133.317
194.703
243.532
277.3
294.52
168.257
245.237
306.107
347.973
369.243
162.734
237.289
296.312
336.951
357.612
229.184
333.173
414.773
470.509
498.69
229.003
333.038
414.756
470.617
498.875
332.883
482.209
598.18
676.669
716.112
344.526
499.197
619.377
700.726
741.605
491.245
708.15
874.273
985.37
1040.78
519.524
748.964
924.624
1041.99
1100.47
711.767
1019.22
1250.35
1402.64
1477.99
741.262
1062.07
1303.31
1462.05
1540.41
1041.2
1471.13
1783.95
1986.34
2086.34
1486.19
2065.58
2471.5
2730.76
2860.89
2099.85
2847.45
3344.82
3663.43
3833.94
2934.55
3835.89
4395.89
4773.12
5013.09
3863.02
4819.71
5370.96
5794.24
6150.58
4509.08
5462.49
5984.91
6437.22
6890.27
1065.12
1501.3
1817.09
2021.19
2122.27
1469.52
2043.66
2446.6
2704.33
2833.59
1977.69
2702.87
3193.03
3506.12
3669.09
2564.3
3431.04
3992.75
4357.43
4562.16
3125.14
4091.82
4694.58
5100.16
5352.71
3484.03
4501.8
5122.92
5554.24
5842.54
59.5814
71.4891
96.13
136.902
199.501
291.677
67.7721
80.6228
106.971
149.899
213.937
304.859
53.6079
50.7399
65.6842
63.6452
91.0264
91.1528
133.668
138.72
198.834
210.78
290.967
305.429
423.076
604.132
855.743
1208.46
1629.19
1934.69
428.983
591.704
797.026
1037.55
1273.4
1424.95
158.968
231.908
289.743
329.626
349.925
190.601
277.732
346.592
393.942
417.996
255.947
372.127
463.374
525.778
557.37
363.791
527.278
654.576
741.014
784.581
528.676
762.95
943.276
1064.63
1125.51
769.783
1103.94
1357.11
1525.69
1609.92
180.691
263.288
328.557
373.432
396.227
214.766
312.505
389.445
442.174
468.904
284.482
412.854
513.179
581.521
616.039
397.711
575.047
712.271
805.023
851.664
565.806
814.055
1003.72
1130.74
1194.35
802.718
1147.18
1406.04
1577.66
1663.36
143.107
208.951
261.292
297.47
315.912
135.488
197.915
247.603
281.988
299.531
175.226
255.565
319.225
363.1
385.422
169.83
247.799
309.651
352.325
374.051
242.521
352.984
439.992
499.642
529.883
242.918
353.698
441.046
500.977
531.375
355.491
515.914
641.246
726.564
769.624
369.007
535.701
666.026
754.782
799.582
527.491
762.526
944.178
1066.75
1128.3
559.313
808.786
1001.7
1131.88
1197.21
769.272
1106.12
1362.84
1534.31
1619.99
808.064
1163.02
1434.03
1615.11
1705.5
1109.36
1575.62
1921.04
2148.46
2262.18
1567.73
2193.45
2642.62
2936.14
3085.49
2183.73
2984.47
3534.25
3896.19
4091.99
3001.28
3953.86
4567.9
4992.58
5262.36
3900.74
4894.99
5487.45
5949.26
6332.58
4520.42
5487.68
6025.54
6492.87
6957.1
1122.53
1589.4
1932.8
2158.14
2270.91
1534.82
2145.63
2582.62
2867.24
3011.56
2042.66
2807.06
3335.08
3679.04
3859.77
2618.01
3520.5
4118.29
4513.5
4736.48
3159.22
4151.17
4780.3
5208.99
5476.03
3495.49
4522.39
5153.21
5593.22
5887.14
4711.12
2984.54
580.445
406.529
476.296
397.273
520.716
4213.9
3939.04
2423.79
3108.55
1314.46
1862.1
1047.56
1194.85
958.464
3940.78
2002.69
1173.02
1018.03
1366.47
1156.19
852.62
789.517
727.077
617.292
904.859
799.447
4284.28
2466.1
2850.93
1705.66
1349
2012.28
873.007
635.743
983.064
9327.1
8920.79
8596.92
9096.32
14055.6
6425.62
6993.96
7239.67
7729.69
8703.71
1511.89
2126.74
2573.13
2865.51
3013.33
1069.23
1525.38
1866.51
2091.85
2204.23
1253.29
1788.72
2188.61
2451.68
2582.16
1047.44
1499.56
1840.08
2065.47
2177.57
1365.14
1937.93
2360.92
2638.16
2776.19
9009.06
9507.57
9509.16
10030.2
14812.5
8608.73
9277.87
9453.54
9938.11
11218.5
5614.76
6749.87
7372.77
7906.68
8486.45
7214.63
8284.83
8620.57
9025.21
9454.2
3290.8
4379.08
5081.44
5533.98
5784.59
4492.76
5688.99
6391.55
6869
7183.63
2675.92
3658.87
4325.31
4748.56
4965.2
3028.28
4094.51
4798.39
5242.17
5472.16
2465.22
3402.52
4049.07
4458.85
4664.07
8383.89
8844.02
8882.03
9434.67
14167.8
4731.21
5840.59
6491.08
7026.32
7565.22
2960.26
3983.08
4660.94
5104.09
5352.24
2587.63
3517.44
4148.74
4563.76
4792.54
3379.47
4430.36
5105.28
5575.94
5891.83
2901.41
3876.22
4520.57
4957.82
5220.87
2179
2984.81
3541.72
3909.66
4109.11
2037.51
2827.77
3384.77
3747.24
3933.96
1893.43
2660.74
3212.59
3568.35
3744.88
1614
2281.8
2769.53
3086.78
3244.34
2328.75
3218.46
3837.29
4234.81
4437.87
2066.36
2873.88
3444.41
3813.83
4002.16
8743.19
8713.55
8533.98
9062
13907.2
5501.51
6292.95
6706.57
7219.56
7999.55
6528.06
7455.14
7777.96
8369.59
9913.57
4074.31
5101.09
5717.23
6212.88
6651.71
3325.94
4340.04
4987.08
5450.19
5768.31
4728.65
5800.75
6428.19
6975.19
7557
2234.27
3066.04
3641.78
4020.35
4223.52
1656.09
2329.31
2816.8
3134.52
3294.18
2499.92
3400.58
4013.98
4419.43
4643.74
6205.47
5949.47
5483.35
4749.32
3589.08
1438.87
20336.2
20636.7
23073.3
23922.9
19701.7
20708.9
21881.5
20987.4
16937.9
21816.3
17540.3
22298.3
20076.6
18005.9
28904.7
19388.9
19532.1
21599.9
22173.4
18455.5
19454.1
20759.9
20121.4
16785.2
26356.4
17284.8
26008.3
20217.1
22132.5
30989.5
18255.8
18257.5
19673.8
19967.4
17432.2
18897.7
19214.7
19136.4
19145.8
22975.1
19902.6
22866.4
21879.4
24396
27550.5
17125.3
17149.5
17802.7
17915.4
16697.6
18405.4
17534.3
17762.3
17660.2
19769.7
18376
19131.9
19657
21490
23321.1
15979
16039.9
16446.6
16464.8
16122.4
17960.9
16336.8
16753.2
16467
15922.7
17203.5
15143.2
17722.7
17557.5
18761.1
15417.4
15529
15512.1
15492.3
15521.1
16971.5
15536.8
15866.8
15508.6
13369.1
16015.7
12977
16210.8
14989.9
16633.6
22341.8
21366.5
23759.2
25101.6
20426.5
20234.2
21929.1
20743.6
19330.9
13992
19223.5
14046.5
16970.7
15255.5
18175.7
20844.3
20130.5
21723
22619.2
19525.3
19520.5
20483.8
19485.4
17588.6
13251.4
17518.7
13334.9
15234.7
13459.9
16449.3
18807.8
18371.6
19215.2
19670.6
17994
18000.1
18564.9
17927.2
16259.1
12588.8
15992.8
12339.5
14208.6
11961.5
15668.9
16703.6
16441.7
17110.7
17334.8
16171.8
16108.4
16844.9
16322.5
14725.2
12351.3
14569.3
12082.3
13090.9
11598
15250.8
15405.3
15222.4
15798.5
15922.6
14850.4
14786.1
15695.1
15329.1
13959.7
12760.9
13848.7
12620.8
12702.9
11715.6
15162.7
14462
14297.8
14967.8
15055.7
14022.6
14174.1
14850.5
14657.6
13512.6
13002.1
13467.7
12939.1
12479.3
11953.5
15412.8
12447.2
7066.32
20393.5
13446.4
22348.7
16568.3
34838.7
43524.2
45938.5
56544.7
29840.2
25985.7
18906.9
15088.8
9243.85
6161.85
20911.8
21080.5
18150.4
21159.2
28240.4
24855.6
32922.7
26281.6
8649.03
6131.23
4828.52
3623.17
10432.4
8470.58
6422.89
5272.66
19637.7
20107
19784.4
16243.1
15057.7
12057.3
12037.4
13763.7
19351.7
19360
41098.5
42611.6
28750.6
29754.5
16880
14238.7
18116.5
12864.3
8429.78
8738.12
7008.98
10437.6
3651.39
4582.33
9741.71
14080
5873.87
7039.45
10629.1
18893
7442.04
12586
2805.88
7423.24
2340.14
5515.94
18423.5
22892.8
19312.5
22978.7
22403.2
22509.8
23116.1
22408.6
16648.2
22735.6
16845.8
22331.9
19161.2
22930.5
19235
22941.1
23490.3
22238.1
23508.8
22088.8
15476.9
22901.1
14998.5
23028.6
19488.4
23478.9
24600
35204.5
20677.1
27440.8
24411.9
38648
18465.8
20521.6
24673.6
33654.5
18284.9
19149.6
24945.7
33336.1
6324.49
8495.19
16332.4
29420.7
7828.31
9054.17
20995.1
33200.8
9518.31
9666.75
26153.6
36187.1
25599.8
26703.6
22390.9
22325.3
33966.6
26674
25781.3
22737.8
20215.4
39350.7
24408.7
24619
22556.7
23387.9
44195.6
2344.75
2864.75
5150.7
12527.9
3352.82
3877.93
7079.05
13810.4
4868.11
4146.67
9384.44
15327.1
25926.7
24786.5
23850.1
22634.4
21239.2
18652.6
16421.1
14152.9
12097.6
17502.8
23843.1
22355
24559.4
23524.4
21935.1
20062.3
18750.1
16547.9
12774.3
17352.3
24655.7
27555.4
24690.1
28398.4
23373.8
23901.4
22940.5
24278.3
22968.5
23269.3
22749.3
22526.4
24545
28584.6
24486.8
28620.8
22340.2
24685.4
22207.6
24688.6
23061.3
23217.3
23092.9
23234.9
19737.6
18726.9
12863.5
14489.4
19644.6
18292.8
12709.2
14722.6
19980.6
18633.4
13125.7
14468.2
20065.6
18439.9
13530.8
14448.7
1824.45
1139.56
742.572
1013.83
626.253
570.996
2614.61
1400.18
993.023
1963.16
1478.7
1201.25
2873.51
2127.91
2024.15
3388.13
2591.75
2236.96
22526.6
19143.7
16957.2
21124.4
18505.9
16646.4
15406.8
13489.2
12416.7
10879.6
8756.54
7819.61
5211.85
3523.72
2843.36
20641.4
17924.6
15909.3
21712.3
18533.5
16309.1
16492.2
13151.9
11317.9
11026.8
8107.64
6897.37
5508.01
3474.74
2642.97
28205.4
27288.7
30993.5
27502.2
31989.2
27532
39006.2
29269.5
21332.6
21412.4
21123.8
19466.8
24160.5
22389.2
23870.8
20121
23654.5
23261
21738.8
23007.8
28393.2
25786.4
29168.6
29741.1
32019
33262.5
24098.8
25127.2
21574.7
21007
25971.6
26741
16428.3
8863.07
15464.9
9806.92
16692.3
8932.5
15455.1
9738.05
16506.8
8968.93
15469.4
10150.7
15117.6
10622.2
15338.8
10522.5
21503.2
18070.8
21604.9
18185
23982.7
21411
24481.2
21361.5
20957.3
14945.7
21637.6
14635.4
22243.6
18181.9
22602.6
18001.7
25296.1
21289
25403.6
21058.9
20893.9
15051.9
20895.3
14969.2
13546.4
8991.04
11685.4
7626.14
12499.4
8037.38
11153.4
7123.1
13954.3
9556.46
11913.9
7861.72
14002.5
9882.13
11888.4
7914.08
2558.31
1327.65
4753.3
2677.78
2728.49
1620.84
5063.51
3166.7
3327.04
2404.95
5578.85
4046.68
12780.9
20159.5
9169.14
8779.52
6393.55
19538.8
13336.7
7703.01
7746.7
5270.15
20603.9
15949.9
12508.8
9661.76
6243.17
702.998
486.159
1636.08
1234.72
975.143
631.951
2193.43
1726.43
1644.97
1170.7
3047.85
2441.31
19492.7
18201.1
12891
11817.9
8195.07
7814.33
6860.52
5887.54
4474.06
3580.85
18494.7
16241
14020.2
11753.6
10702.7
8967.59
8068.77
6800.46
5443.91
5010.97
14597.7
11235.5
14816.3
11123.5
17949.4
14428.7
18074.7
14447.8
12120.4
9280.59
11669.2
9187.1
14902.7
11042.7
14831.8
11044.9
18093.7
14843.4
17956.5
14837.7
12395
9206.9
12379.2
9328.04
9311.29
7376.83
6380.48
6220.18
8913.04
7130.06
6086.14
5840.71
9731.45
7557.07
6551.8
6572.67
9949.65
7556.27
6798.56
6663.73
1209.81
1031.02
835.925
5199.11
2708.3
2167.49
1207.51
1154.44
1003.22
5762.36
3278
2721.35
1706.18
1842.9
1841.49
6523.34
4177.23
3631.84
16194.5
14249.8
13009.7
10626.3
9658.11
9107.87
7434.41
6876.41
6628.58
6065.2
5526.83
5213.48
7603.82
5243.28
4604.11
13993.6
12025.5
10798.5
9941.22
8579.1
7836.42
7876.04
6779.75
6207.12
7187.36
5976.56
5319.8
9379.69
5951.78
5154.36
4808.02
2823.11
1743.87
1137.92
5381.32
3051.88
1834.95
1170.21
4835.91
2825.78
1749.82
1144.94
5496.84
3118.51
1882.28
1197.76
4836.82
2808.38
1779.14
1166.44
5613.79
3163.6
1952.44
1236.05
6026.74
3337.29
1960.88
1236.87
6187.49
3454.21
2001.25
1263.31
5144.05
2988.37
1862.9
1196.57
4313.19
2669.37
1729.11
1141.84
4554.3
2727.81
1756.7
1139.56
4002.48
2527.65
1666.22
1104.84
5538.95
3183.64
1930.46
1229.42
4499.76
2771.81
1767.02
1168.6
5756.06
3314.27
1981.76
1261.92
4582.16
2844.3
1803.05
1193.48
3687.02
2447.85
1606.76
1085.55
2538.27
2010.23
1440.26
1019
3706.79
2442.53
1609.08
1086.21
2646
2040.2
1450.47
1025.49
3806.64
2451.97
1632.3
1102.5
2951.17
2130.26
1486.92
1049.49
3790.76
2411.66
1619.31
1129.33
3220.97
2198.2
1538.58
1057.77
3589.41
2361.92
1595.55
1089.62
1469.98
1667.04
1172.97
357.013
373.687
1482.48
1070.95
361.885
1671.98
1735.46
1201.27
375.665
601.227
1557.47
1095.32
369.973
2057.44
1857.3
1240.6
375.311
1000.32
1683.98
1128.78
374.53
2544.44
2007.19
1307.49
406.931
1451.14
1829.84
1180.1
391.094
2897.51
2150.95
1391.62
467.908
1637.4
1949.51
1228.93
405.906
3124.93
2318.14
1427.96
450.965
1525.17
2096.96
1321.84
432.69
3034.94
2245.15
1402.17
449.902
1454.6
2029.75
1274.57
417.143
3167.22
2368.34
1438.95
424.275
1514.88
2151.44
1348.93
435.209
3231.92
2417.23
1471.16
431.402
1609.42
2203.5
1381.08
444.591
811.693
526.941
314.63
163.828
50.482
805.675
526.199
314.924
164.073
50.5605
823.106
532.415
316.944
164.778
50.7412
821.715
533.163
317.975
165.356
50.9142
845.935
539.672
319.764
165.916
51.051
841.995
540.731
321.313
166.777
51.3082
851.392
548.965
325.602
168.718
51.8583
870.33
560.305
331.49
171.411
52.626
868.384
548.221
323.719
167.637
51.5318
921.992
558.051
326.366
168.53
51.7608
872.307
545.897
321.849
166.704
51.2608
920.585
554.396
324.299
167.58
51.4898
875.248
555.386
327.534
169.378
52.0269
938.895
564.974
329.806
170.089
52.204
895.905
566.461
333.063
171.881
52.7389
960.717
574.866
334.574
172.238
52.8155
830.523
529.305
314.564
163.624
50.4108
867.857
532.149
314.617
163.508
50.368
841.606
533.682
316.321
164.329
50.6011
877.064
535.525
315.979
164.054
50.5156
863.299
540.585
318.932
165.374
50.8845
895.923
541.347
318.268
164.984
50.7681
895.744
548.204
321.528
166.388
51.158
918.406
547.544
320.826
166.046
51.0595
925.72
552.091
322.971
166.975
51.3178
12529.6
19527.2
13022.4
19738.5
13602.7
19837.9
13835.4
19710.4
12949
18550.5
11569.8
13112
11724.8
14011.2
11559.4
12867.2
11732.4
12969.7
11269.4
1929.52
414.604
93.6781
16.6928
12565.9
3590.55
876.657
200.262
35.6615
11284.4
1912.01
408.957
92.1457
16.3835
12561.6
3552.73
865.475
196.957
34.7964
11200.2
1874.58
398.37
89.5117
15.8974
12438.7
3489.72
847.157
192.353
33.9642
10865.1
1782.65
376.205
84.4639
15.0086
12055.6
3358.33
813.766
184.739
32.6207
10068.2
1611.04