/*--------------------------------*- C++ -*----------------------------------*\
| =========                 |                                                 |
| \\      /  F ield         | OpenFOAM: The Open Source CFD Toolbox           |
|  \\    /   O peration     | Version:  2306                                  |
|   \\  /    A nd           | Website:  www.openfoam.com                      |
|    \\/     M anipulation  |                                                 |
\*---------------------------------------------------------------------------*/
FoamFile
{
    version     2.0;
    format      ascii;
    arch        "LSB;label=32;scalar=64";
    class       volScalarField;
    location    "1.2";
    object      gradTx;
}
// * * * * * * * * * * * * * * * * * * * * * * * * * * * * * * * * * * * * * //

dimensions      [0 -1 0 1 0 0 0];

internalField   nonuniform List<scalar> 
5712
(
-7328.46
-9368.8
-17282.7
-25337.6
-25903.2
-44631
-19794.4
-50305.8
-16046.8
-35237.2
-24000.1
-36560
-21459.1
-28268.5
-9463.12
-10855.2
-16604.2
-19066.2
-21260.8
-21101.6
-16640.9
-20469.6
-24425.7
-21870.2
-6041.44
-4626.03
-7496.79
-5116.82
-14060
-11413.4
-23861.3
-17471.8
-18432.3
-19246.3
-20681.5
-20060.3
-7524.1
-5751.72
-43267.3
-57929.9
-28043.9
-34402.3
-57739.5
-75015.8
-29914.2
-34264.6
-32301.8
-45616.3
-28320.4
-37453.1
-16706.4
-26788.7
-3295.32
-1119.44
-3451.87
-1252.58
-9923.17
-4034.84
-13491.5
-5004.04
-9772.04
-3723.05
-10161.3
-3277.09
-17199
-5501.01
-22162.7
-7517.11
-26344
-13247.7
-24131.8
-14292
-24405.2
-15814.5
-21497.8
-16000.2
-19255.4
-11491.3
-19335.6
-10013
-24928.6
-15793
-25005.5
-15902.3
-22737.7
-16849.7
-23018.1
-16876.6
-20769.7
-13150.5
-21509
-13445.4
-19810.5
-8717.92
-9307.03
-11518.3
-19874.3
-9579.2
-8232.81
-11831.3
-20958.5
-8631.22
-10462.5
-11510.9
-22002.4
-8823.6
-11336.3
-11975.7
-4261.01
-4676.45
-1453.75
-2954.82
-12357.7
-13100.3
-4896.61
-8977.86
-15838.2
-17445.4
-7977.34
-13707.7
-12258.4
-463.613
-14373.9
-18377.4
-10337.7
-96.1457
-7013.61
-13238.2
-21672.9
-16128.7
-10877.6
-13473.2
-12156
-10827.1
-17149.5
-3985.81
-3201.77
-2310.76
-2272.2
-11116.6
-9092.36
-6936.67
-6541.27
-13727
-11132.4
-9050.82
-8024.41
-5583.39
-7281.89
-11814.9
-12422.9
-14909
-13487
-16908.4
-14435.8
-12173.8
-10261.1
-9383.87
-9433
-12515
-9212.73
-11638.2
-7849.55
-10313.8
-6594.84
-12522.6
-7978.82
-10574.2
-4141.65
-9262.28
-9585.49
-12925.9
-16331.8
-14293.3
-20424
-7507.17
-7903.18
-9471.31
-2113.89
-8323.98
-15606.8
-7926.96
-16865.7
-14187.3
-25313.8
-14440.1
-27014.2
-6466.95
-13668.4
-5939.93
-14698.8
-9041.46
-6424.11
-12834
-4765.43
-9021.41
-857.726
-11039.5
47.1811
-8787.97
-9976
-13491
-6075.68
-7352.71
-11879.1
-12023.7
-8052.82
-2436.12
-2076.49
-1743.77
-1770.45
-1573.06
-1341.36
-7094.58
-5456.06
-4459.8
-4720.56
-3533.29
-2892.22
-8334.9
-6770.06
-6064.44
-5620.55
-4242.99
-3858.12
-6095.37
-4996.93
-4730.63
-10555.9
-7348.72
-5897.5
-10395.9
-7033.07
-5361.11
-10816.2
-7918.83
-6599.76
-7362.08
-4467.42
-3283.43
-15138.1
-12206.4
-9973.66
-10137.7
-7841.75
-6024.63
-9463.4
-6770.89
-4927.32
-8324.2
-5529.1
-3832.79
-9179.46
-4814.22
-2437.61
-10963.7
-14708.7
-8792.77
-11209.3
-12138.6
-17638.3
-10950.6
-15697.3
-11.5449
-702.6
517.244
-127.753
-3017.39
-3317.36
-1319.44
-730.196
-831.38
-2514.56
-9714.67
-14012.6
-6670.01
-3854.26
-10521.2
-10450.1
-16514.3
-18200
562.091
4297.73
-7886.05
-7387.41
-7437.14
-5711.57
-1021.88
-532.607
-720.213
-325.493
-1988.86
-151.722
259.107
772.623
-9292.29
-2248.82
-6441.73
-1641.12
-9268.46
-2773.58
-11166.9
-3475.68
-9364.38
-12176.7
-8586.32
-11825.4
-15285.5
-15819
-14508.3
-14900.8
-5737.69
-9197.63
-6665.7
-9169.46
-9064.86
-11357.1
-9945.91
-11419.9
-15089.2
-14588.8
-15764.1
-14597.8
-5759.89
-8865.06
-6219.85
-8973.64
334.661
-979.426
-6835.82
-3791.24
830.461
-597.971
-6334.97
-3329.55
-104.12
-1241.64
-6960.8
-4137.45
-500.23
-1469.97
-6943.14
-4243.2
685.089
778.64
-140.346
31.3154
2861.45
2835.81
276.163
482.957
676.382
1952.97
-1368.1
-674.801
10102.4
9933.81
5400.92
4183.97
628.584
10790.7
10617.8
4093.06
6031.09
1034.15
-10806.3
-8240.75
-6926.3
-6113.64
-3268.79
731.725
625.334
83.835
26.8708
2340.47
2110.17
277.402
119.828
2380.07
2644.81
-336.676
-479.349
5042.79
1990.01
7723.8
4463.96
3325.98
2308.51
3775.04
3048.38
-33.5268
-710.534
-3964.91
-2468.16
-1188.39
789.519
-934.237
658.15
-1307.99
-109.981
-1332.18
-1438.17
-5142.65
-4569.4
-9729.81
-5802.21
-8261.8
-8054.54
-12484.6
-9957.74
-7271.71
-4139
-3574.04
-3422.37
-11466.9
-5013.34
-12582.1
-5609.01
-13915.7
-10175.7
-14829.7
-10945.3
-8860.56
-3348.02
-9902.33
-3878.73
-5227.98
-3856.18
-3416.04
-4950.26
-3260.42
-3494.81
-2867.11
-4573.3
-6076.97
-3753.25
-3871.62
-5694.73
-7475.63
-4065.98
-5056.88
-5852.71
566.408
558.154
607.88
48.531
197.74
213.429
2055.83
2031.85
1967.96
228.279
566.661
550.069
2681.22
2758.97
2721.16
-293.851
562.837
722.293
904.743
747.359
449.678
2911.67
2868.68
2594.32
2308.67
2482.73
2381.69
2880.03
2882.08
2719.38
-811.6
257.139
327.365
-3579.74
-2050.87
-1138.47
546.349
1389.85
1823.82
601.526
1602.05
2014.93
299.204
1327.1
1603.34
-1509.92
336.081
543.762
23.5102
23.1193
23.3077
33.6059
213.52
103.672
75.9476
62.4585
11.6805
41.4807
100.659
135.634
340.281
182.617
193.201
175.264
-173.336
0.177718
147.01
250.477
106.434
129.517
153.834
155.069
-0.19413
70.2585
58.9277
52.6447
-190.4
-24.929
60.1967
94.9411
-757.351
-176.152
6.21724
115.792
-1136.87
-275.765
-62.7073
219.39
-506.739
-84.0568
72.885
206.54
-925.385
-210.235
-72.0552
183.466
-813.095
-204.16
33.7708
167.569
-1277.86
-325.442
-68.1643
263.233
-897.742
-252.842
36.0486
209.467
-1373.2
-366.891
-82.7707
273.897
13.1818
14.0495
21.7931
44.216
40.9728
23.415
10.4114
39.5463
76.5001
52.0821
76.0367
124.979
161.006
80.5513
38.3097
108.915
-294.398
-51.5202
66.6871
204.81
-104.46
15.4096
38.8129
189.559
-21.8294
77.3844
120.085
213.78
28.5374
68.0771
29.5755
190.167
-779.518
-161.355
-43.6706
260.315
74.9377
34.0009
18.7208
32.6155
130.852
50.2272
22.5863
16.6473
160.389
80.7157
35.771
80.6819
338.221
133.914
54.998
41.8363
117.5
88.8123
45.3766
130.332
440.434
188.519
81.9886
64.7845
-22.2656
78.742
55.0409
181.956
373.021
203.105
94.6123
80.0344
-368.863
4.12654
-3.43263
162.076
155.776
172.062
78.9671
77.5446
-896.091
-113.133
-29.7938
180.189
-270.349
29.3634
35.6133
63.0912
-670.046
-41.6804
-18.777
166.611
-126.274
93.4201
59.1831
73.2914
-1094.15
-190.625
-51.6595
195.857
-390.032
-27.4937
17.037
57.0893
-1235.08
-260.147
-78.0684
190.937
-489.732
-81.4235
-4.91437
47.9584
14.5725
5.56934
2.36641
1.1194
0.668141
19.1376
8.28219
3.76643
1.83683
1.11021
34.802
12.8255
5.40669
2.55712
1.52755
42.2395
18.1965
8.29358
4.05986
2.46023
46.0789
15.9814
6.6367
3.13019
1.86968
55.68
23.7885
10.849
5.32331
3.23112
28.2036
11.9189
5.42913
2.67307
1.62785
20.686
7.18122
2.96106
1.40269
0.843446
44.4947
15.9432
6.75631
3.22477
1.93751
21.3817
6.64413
2.65412
1.2401
0.739321
47.5828
18.383
8.13904
3.9497
2.38611
20.4755
6.63721
2.72935
1.28708
0.769436
34.4345
10.5588
4.13735
1.91764
1.14176
20.2503
5.87496
2.28865
1.06418
0.635083
31.0722
7.25118
2.29479
0.953628
0.544064
17.2242
3.4956
1.01793
0.40717
0.229024
12.3827
4.33716
1.78466
0.832428
0.493727
9.1968
3.47124
1.48756
0.704584
0.419892
30.4928
10.7527
4.50904
2.12815
1.26963
23.8678
9.03555
3.9246
1.87482
1.12252
42.4655
13.3066
5.36489
2.50117
1.48724
32.2201
12.283
5.40773
2.6043
1.56644
37.5319
14.3655
6.39603
3.10186
1.87095
21.8561
9.16903
4.17667
2.03772
1.23191
19.0306
7.70491
3.50463
1.71033
1.03376
-193.56
-376.069
-337.627
-887.297
-118.472
-1044.35
609.168
-667.01
1335.65
467.422
-469.196
-1076.96
909.471
799.266
-1120.11
-1912.34
-1550.05
-2275
-790.05
-187.111
-42.7466
-9.56972
-2.43702
-214.445
-112.354
-15.3428
-4.28382
-1.98064
-2423.99
-570.806
-130.85
-29.1491
-7.43425
-494.947
-144.434
-36.8469
-7.9388
-2.23119
-4042.57
-953.651
-219.28
-49.0346
-12.4847
-809.643
-251.077
-63.2551
-15.1455
-3.91183
-5357.86
-1267.67
-292.869
-65.7416
-16.7727
-942.753
-317.093
-82.3685
-19.902
-5.11863
-6592.59
-1575.66
-366.837
-82.836
-21.2444
-1049.32
-389.017
-103.767
-25.3414
-6.58865
-7601.09
-1872.52
-442.565
-100.966
-26.0685
-1782.2
-561.636
-141.729
-33.2434
-8.51812
-7158.28
-1758.63
-413.664
-93.9087
-24.1452
-1312.72
-464.653
-121.862
-29.2836
-7.52698
-7781.06
-1918.15
-454.245
-103.84
-26.8701
-2064.38
-623.879
-154.609
-35.6908
-9.11186
-8080.6
-1974.24
-468.13
-106.984
-27.6764
-2162.01
-653.468
-163.134
-35.0161
-9.44178
-586.679
-7621.31
-6960.48
-2474.19
1738.79
2943.91
8167.78
11981
1742.92
8743.43
-2045.25
2452.75
2495.49
5137.62
9889.87
14081.3
14961.3
18850.5
6113.72
7934.5
-20115.8
-14319.6
-3887.83
-2776.24
-1962.07
-2719.94
-2733.45
-12035.4
-10714.5
-9393.55
-9542.11
-7457.13
-5423.37
-7390.01
-4534.75
-3842.45
-4532.17
-3106.87
-19645.9
-9702.55
-3070.28
-5361.54
-7757.1
-5247.94
-5496.16
-4000.59
-2271.83
-3177.19
-3570.94
-3899.11
-19699.2
-12627.3
-11858.8
-8395.87
-8064.75
-8726.38
-3295.39
-4203.29
-5767.47
-13769.7
-11342.7
-8926.45
-7568.62
-5904.56
-9119.21
-6089.22
-4474.44
-3178.92
-1507.47
-3392.56
-2772.55
-2044.95
-1256.53
-426.084
-2458.87
-2037.43
-1516.4
-933.679
-315.458
-1728.89
-1423.09
-1051.43
-643.268
-216.484
-2415.64
-2005.98
-1494.17
-919.293
-310.15
-2404.24
-1976.68
-1460.7
-894.973
-301.731
-7469.41
-5442.61
-3987.82
-3366.01
-3286.9
-5654.59
-3957.61
-2640.2
-2035.11
-1341.42
-5826.91
-3496.15
-2336.58
-1524.94
-682.716
-4817.04
-3134.7
-1988.14
-1348.35
-742.319
-3443.69
-2099.1
-1258.43
-812.946
-374.774
-4238.06
-3115.29
-2110.26
-1235.89
-418.284
-5014.62
-3228.07
-2080.89
-1213.92
-437.727
-2963.46
-1786.04
-1069.13
-574.395
-190.422
-3130.81
-2382.59
-1650.46
-972.127
-324.451
-3578.89
-2637.82
-1772.74
-1018.75
-335.149
-2561.18
-1967.9
-1369.95
-805.898
-267.126
-12587.1
-9177.04
-6954.99
-5652.59
-4856.43
-7010.9
-4969.39
-3505.09
-2262.73
-959.149
-2522.03
-1941.47
-1364.53
-816.955
-277.649
-4474.69
-3509.51
-2515.31
-1533.05
-529.106
-6247.98
-4794.61
-3425.72
-2131.92
-781.175
-4396.27
-3470.64
-2510.5
-1546.01
-538.131
-4684.99
-3754.17
-2739.48
-1686.6
-580.458
-3436.9
-2764.71
-2013.77
-1229.81
-417.455
-1939.35
-1543.1
-1106.66
-663.955
-221.792
-2770.67
-2256.34
-1652.76
-1006.47
-338.473
-3002.65
-2357.93
-1677.8
-1006.09
-338.201
-3336.06
-2669.61
-1933.08
-1174.13
-397.145
-13213.1
-10429.7
-8164.81
-6660.67
-5229.43
-8578.49
-5980.29
-4381.51
-3035.1
-1435.62
-8509.35
-6516.71
-4713.64
-3255.35
-1480.03
-6469.91
-4782.59
-3462.31
-2247.07
-876.303
-6603.52
-5154.85
-3735.62
-2345.3
-854.993
-6672.46
-4901.91
-3527.89
-2279.17
-877.259
-2783.84
-2207.4
-1595
-975.393
-334.851
-3664.71
-2987.29
-2194.04
-1341.31
-452.668
-4892.4
-3896.4
-2826.29
-1731.85
-593.888
-6261.88
-12829.1
-13204.6
-36512.8
-12874.1
-48375.6
-7083.88
-17263.8
-12881.6
-9886.21
-21643.7
-17943.7
-12681.3
-11746.5
-24048.6
-18820.5
-4633.96
-3466.53
-9054.79
-6278.12
-10363.4
-7829.79
-28073.3
-20895.2
-16975.2
-12747.8
-17515.8
-10368
-1253.55
-4239.07
-45086.4
-58703.4
-27133.3
-34271.4
-59085.6
-75598.6
-28885.5
-34022.8
-33808.6
-46401.7
-27502.3
-37437.7
-18527.5
-27677.4
-2253.36
-599.682
-3987.72
-1365.5
-7663.32
-3463.35
-15610.7
-5665.61
-3331.23
-1921.04
-8349.78
-2642.09
-17272.4
-5450.84
-22396.7
-7581.76
-17837.5
-9378.21
-20819.1
-12340.2
-15927
-11501.6
-18167.1
-13950.9
-16918
-9926.57
-13305.1
-7012.12
-23667.5
-14926.2
-24695.5
-15667.5
-21414.9
-15960.9
-22664.5
-16636.7
-19936.4
-12440.2
-21319.4
-13251.1
-18757.2
-8408.6
-8275.53
-11113
-16751
-8640.95
-6290.39
-11050.2
-20726
-8568.89
-9991.11
-11322.7
-21995.5
-8825.58
-11207.1
-11923.6
-1292.22
-1191.53
-327.949
-1491.81
-5260.03
-5522.78
-3377.31
-6865.46
-3088.9
-3846.64
-5347.7
-10187.6
-12505.4
-9559.26
-10154.9
-12984.3
-8877.21
-7410.08
-8226.92
-7736.56
-15139.4
-13915.2
-12465.2
-10820.6
-7848.55
-6967.77
-15220.8
-1299.41
-969.148
-745.599
-840.349
-4929.08
-3873.43
-4268.76
-3769.21
-859.878
409.465
-5085.2
-4008.14
-10081
-10719.9
-9502.27
-8765.23
-7594.33
-5519.54
-10101.7
-7992.86
-9614.49
-7527.7
-11850.4
-11733.4
-10374.8
-7697.01
-7890.73
-5020.32
-7186.28
-4281.69
-11166.3
-6629.21
-9545.21
-4669.02
-8598.35
-9543.65
-13266.1
-17388.8
-14045.5
-20420.7
-6771.74
-7785.92
-8106.69
-2442.96
-8017.5
-15481.2
-7838.82
-16811
-13980.1
-25375.1
-14367.5
-26983.4
-6141.47
-13543.6
-5849.79
-14653.3
-8555.26
-6420.77
-12696
-4903.99
-8082.7
-1396.86
-10889.5
-885.315
-8575.5
-9920.08
-13426.7
-6101.26
-7288.66
-11855
-12002.7
-8050.87
-935.629
-863.667
-672.297
-773.833
-2943.67
-2163.21
-2741.34
-2502.3
1007.47
424.914
-3197.04
-3498.66
-10532.8
-9804.04
-7859.38
-6583.37
-4410.97
-3607.93
-6303.53
-5133.99
-6352.61
-4589.52
-18126.2
-15428.8
-8212.59
-6638
-6545.36
-4649.97
-5639.29
-3343.09
-6276.98
-2475.47
-5657.31
-9312.94
-4878.55
-9575.14
-8803.62
-10853
-9964.45
-13557.8
-936.587
-624.574
-639.323
-505.885
-3544.21
-2374.42
-2771.22
-1347.55
-1060.28
-1447.32
-8251.31
-8790.14
-4415.16
-3889.34
-9680.18
-10201.5
-15420.5
-17870.4
584.152
4233.27
-7308.16
-7225.54
-7111.68
-5651.31
-964.516
-841.066
-1028.58
-822.993
-1496.64
-865.939
-318.095
-206.338
-7756.39
-3250.03
-6568.67
-2672.73
-9180.77
-3360.75
-11124.3
-3703.9
-5311.92
-10234.8
-7069.27
-10753.4
-8970.54
-12120.9
-12001.4
-13157.9
-5022.23
-8807.17
-4456.39
-8737.01
-8371.96
-10879.8
-9733.38
-11288.6
-14000.2
-13839.1
-15448
-14394.1
-5454.38
-8684.64
-6126.23
-8925.84
21.9588
-1535.46
-7052.94
-4243.85
49.6229
-1573.04
-6966.11
-4046.8
-324.811
-1621.64
-7060.93
-4403.47
-587.135
-1619.91
-6969.75
-4332.58
-959.812
-1029.37
-862.683
-894.877
-1817.02
-1817.87
-1092.9
-1130.69
-7839.88
-7043.72
-3213.85
-3111.96
-3359.76
-4822.05
-3656.11
222.62
-1167.68
-898.626
-1119.13
-3484.98
2816.11
-298.277
-14366.8
-11745.6
-10062.1
-8222.18
-4540.49
-1013.36
-879.334
-979.318
-1154.26
-1770.27
-1366.72
-1438.87
-1877.89
-7175.39
-6853.97
-3396.19
-4238.59
-4797.36
-6517.79
-2841.67
-4771.33
-4440.54
-4793.62
-699.701
-1108.72
-1960.26
-2993.52
-9637.22
-7727.73
-7282.64
-5204.83
-5978.24
-4164.32
-4870.09
-3381.18
-3041.37
-3224.22
-7827.57
-7608.91
-10686
-6821.51
-10276.2
-10829.7
-12953
-10801.3
-8459.3
-5099.43
-6102.18
-5979.7
-11773.1
-5606.69
-12646.8
-5741.37
-13952
-10670.3
-14814.6
-11037
-9354.04
-3920.3
-10030.2
-4021.55
-6339.04
-4680.11
-4353.26
-5818.96
-5329.85
-5460.77
-4295.13
-6082.72
-6622.71
-4271.55
-4381.67
-6227.58
-7638.11
-4221.02
-5217.16
-5999.83
-674.239
-589.221
-827.084
-639.579
-1199.73
-1449.35
-1175.77
-934.365
-6543.91
-5728.04
-2767.42
-1274.77
-7603.76
-7090.8
-5740.65
-5071.12
-4581.72
-3922.46
-1497.62
-1594.06
-2847
-1359.29
-8396.52
-7044.82
-4609.37
-3697.45
-3408.24
-2330.72
-2294.03
-1204.73
-2920.11
-92.7323
-157.902
-66.9716
-23.0928
9.85693
-122.45
-70.8083
-12.6605
16.4918
-433.802
-178.259
1.36812
90.4316
-340.724
-180.55
14.6425
82.9179
-736.872
-274.963
29.4561
208.95
-676.241
-299.714
-78.5478
21.4348
-479.332
-203.82
-93.6093
-28.5529
-395.228
-146.877
-7.93649
57.6292
-1150.77
-384.975
-112.46
43.3162
-1373.01
-386.526
-118.591
208.297
-1083.02
-358.58
-67.3772
128.151
-1237.92
-343.97
-136.11
179.551
-1091.81
-360.598
-50.202
126.322
-1432.98
-403.195
-111.075
248.996
-1010.15
-318.137
0.606159
191.632
-1429.04
-396.084
-99.0943
268.543
-151.354
-57.4382
-9.93378
32.6217
-129.59
-43.0808
-21.3705
29.2431
-387.677
-147.894
-10.0702
90.6082
-322.513
-110.697
-51.5965
77.7157
-799.304
-266.295
-21.3725
181.526
-719.161
-226.434
-73.1047
158.687
-867.091
-292.135
-46.5809
145.779
-655.607
-205.811
-88.8102
176.007
-1237.6
-338.916
-122.413
273.678
-93.915
-31.3346
-8.94496
21.3409
-42.9373
-19.7189
-6.59139
1.31657
-283.775
-91.4987
-42.5863
47.0566
-140.87
-59.2077
-27.9104
-1.42931
-508.595
-155.036
-66.9931
83.3388
-285.174
-105.321
-43.1246
0.20131
-776.216
-224.535
-83.3057
129.553
-498.693
-157.632
-57.8305
2.66522
-1027.96
-275.195
-143.948
97.8415
-668.958
-191.282
-83.4837
-8.92756
-1372.88
-360.295
-159.508
119.495
-667.584
-184.877
-73.8716
1.45631
-1316.43
-347.602
-174.606
94.3159
-734.19
-201.986
-82.5313
-6.00298
-1372.26
-343.353
-134.025
158.211
-608.746
-155.842
-50.0772
20.624
-1324.03
-310.66
-105.716
178.245
-555.721
-121.921
-26.4871
36.2735
0.114922
-2.27847
-1.58327
-0.902779
-0.583722
-6.88311
-5.13185
-2.88804
-1.55784
-0.98987
1.26045
-5.29681
-3.69395
-2.10012
-1.35572
-15.4816
-11.6171
-6.51884
-3.50403
-2.22186
5.04492
-6.33357
-4.563
-2.60032
-1.67829
-21.2799
-15.6103
-8.67959
-4.64495
-2.93966
-11.0473
-8.03396
-4.46143
-2.38048
-1.50279
0.696736
-3.02314
-2.10938
-1.19197
-0.765309
-1.14476
-7.5137
-4.88665
-2.72051
-1.7431
4.32257
-2.26209
-1.78173
-1.02742
-0.665076
-10.7884
-11.0307
-6.34107
-3.42259
-2.17334
2.19959
-2.75222
-1.91893
-1.08308
-0.696962
8.24223
-3.07576
-2.6627
-1.56202
-1.0145
5.46107
-1.77041
-1.51117
-0.878681
-0.56897
19.2221
1.05109
-0.805036
-0.634813
-0.440702
12.3263
0.916991
-0.271248
-0.253313
-0.180307
2.07078
-1.4349
-1.12449
-0.655455
-0.426641
-0.652025
-1.59413
-1.00362
-0.559621
-0.360128
2.11896
-4.49252
-3.08163
-1.74109
-1.12201
-3.63903
-4.78793
-2.82978
-1.54761
-0.988746
10.4178
-4.46884
-3.53613
-2.04417
-1.32424
-7.42404
-7.28355
-4.11541
-2.21952
-1.4102
-10.2092
-9.2044
-5.10953
-2.7381
-1.73682
-10.9264
-6.47329
-3.38288
-1.78641
-1.12765
-8.69608
-5.58887
-2.9505
-1.56315
-0.988398
1.08185
-187.578
82.1538
-463.013
276.283
-609.355
711.153
-463.049
1068.03
241.079
-622.604
-1237.95
544.401
296.817
-1178.54
-1962.2
-1563.03
-2284.16
-738.703
-177.509
-40.8259
-9.18086
-2.34738
-180.407
-105.063
-14.5816
-4.13676
-1.91272
-2279.99
-543.175
-125.244
-28.0154
-7.17186
-424.849
-134.744
-35.4559
-7.77487
-2.19953
-3827.35
-911.234
-210.578
-47.2627
-12.075
-742.612
-241.15
-61.7567
-14.897
-3.86559
-5123.89
-1219.43
-282.753
-63.6549
-16.2872
-930.606
-314.399
-81.805
-19.7672
-5.0899
-6396.33
-1530.66
-356.904
-80.7285
-20.7458
-1112.06
-395.558
-104.348
-25.3456
-6.57743
-7535.06
-1852.12
-437.329
-99.7508
-25.7635
-1818.52
-567.173
-142.467
-33.3223
-8.52378
-7044.63
-1725.94
-405.785
-92.1609
-23.7215
-1394.46
-474.801
-123.078
-29.4037
-7.53872
-7748.77
-1907.65
-451.406
-103.157
-26.6932
-2074.61
-625.46
-154.796
-35.7038
-9.11012
-8070.87
-1971.02
-467.23
-106.762
-27.6183
-2163.03
-653.547
-163.119
-35.0132
-9.43959
-506.568
-7477.1
-6523.2
-2196.98
-1612.71
-860.279
-3760.69
-2571.18
-6862.73
-6355.22
-3308.32
-2437.27
-220.531
-353.64
-633.895
-1075.62
-1691.09
-2458.74
-164.048
-369.097
-794.272
-1439.35
-2272.04
-3209.36
-164.417
-75.3756
-294.226
-197.93
-563.658
-457.879
-983.704
-896.629
-1485.45
-1399.34
-2068.1
-1817.67
-3222.72
-3847.13
-4419.4
-7002.31
-8176.16
-9208.05
-4096.83
-4726.93
-4912.7
-4672.94
-4168.97
-3767.15
-198.694
-167.765
-126.965
-79.0311
-26.8181
-318.276
-268.382
-202.846
-126.135
-42.7788
-569.749
-479.683
-361.997
-224.84
-76.2088
-965.026
-810.786
-610.661
-378.746
-128.284
-1513.16
-1267.53
-952.092
-589.43
-199.479
-2190.8
-1826.93
-1367.08
-844.41
-285.545
-147.713
-124.625
-94.2461
-58.6304
-19.8892
-331.919
-279.619
-211.144
-131.203
-44.4813
-713.307
-599.983
-452.388
-280.81
-95.1507
-1290.16
-1082.87
-814.869
-505.118
-171.046
-2030.93
-1699.45
-1275.46
-789.273
-267.077
-2857.46
-2381.18
-1781.02
-1099.98
-371.999
-148.199
-125.195
-94.7978
-59.0319
-20.036
-67.9536
-57.4183
-43.4866
-27.0843
-9.19345
-264.968
-223.596
-169.12
-105.222
-35.6962
-178.319
-150.548
-113.922
-70.9047
-24.0587
-507.033
-427.288
-322.75
-200.598
-68.0146
-412.084
-347.47
-262.605
-163.282
-55.3737
-883.383
-742.964
-560.105
-347.612
-117.772
-805.508
-677.757
-511.131
-317.287
-107.507
-1330.54
-1115.75
-838.8
-519.535
-175.849
-1253.91
-1051.86
-790.922
-489.874
-165.794
-1844.05
-1538.63
-1151.54
-711.121
-240.39
-1621.54
-1353.31
-1012.65
-625.003
-211.16
-2852.31
-2362.66
-1759.01
-1083.98
-366.553
-3366.93
-2760.43
-2041.68
-1256.54
-426.129
-3792.89
-3060.32
-2245.37
-1385.42
-475.41
-5798.69
-4566.87
-3328.88
-2086.37
-746.325
-6374.96
-4856.89
-3533.15
-2294.6
-902.706
-6868.32
-5119.72
-3723.87
-2484.86
-1045.97
-3627.34
-3006.01
-2239.09
-1380.35
-466.82
-4152
-3415.46
-2531.88
-1559.08
-528.086
-4263.98
-3472.24
-2560.09
-1577.58
-537.22
-3976.23
-3189.86
-2338.19
-1448.83
-501.159
-3418.02
-2675.76
-1950.32
-1229.21
-443.785
-2971.86
-2270.52
-1647.64
-1059.32
-401.12
-228.809
-380.538
-685.45
-1161.55
-1824.53
-2641.88
-175.006
-404.95
-862.846
-1549.54
-2425.78
-3391.36
-171.771
-81.0389
-318.834
-218.031
-613.12
-502.2
-1071.47
-982.586
-1634.11
-1577.97
-2285.94
-2120.04
-3435.73
-4068.66
-4641.84
-7159.98
-8249.84
-9229.27
-4273.21
-4858.46
-4976.77
-4669.75
-4131.11
-3746.54
-206.218
-174.188
-131.883
-82.1223
-27.8727
-342.742
-289.285
-218.865
-136.21
-46.2172
-616.703
-519.863
-392.839
-244.263
-82.8426
-1043.45
-878.066
-662.438
-411.421
-139.457
-1635.28
-1372.65
-1033.27
-640.802
-217.074
-2359.29
-1972.86
-1480.48
-916.543
-310.326
-157.672
-133.126
-100.754
-62.7199
-21.2842
-364.532
-307.485
-232.499
-144.634
-49.0653
-775.778
-653.46
-493.45
-306.676
-103.987
-1390.78
-1169.23
-881.376
-547.111
-185.41
-2171.78
-1820.84
-1369.33
-848.742
-287.46
-3025.11
-2526.6
-1894.21
-1172.08
-396.789
-154.88
-130.894
-99.1571
-61.7696
-20.9696
-73.0944
-61.7994
-46.8349
-29.1853
-9.90956
-287.336
-242.691
-183.74
-114.409
-38.8304
-196.58
-166.125
-125.84
-78.3894
-26.6112
-552.05
-465.777
-352.267
-219.172
-74.3562
-452.408
-381.934
-289.024
-179.901
-61.0466
-963.436
-811.596
-612.888
-380.903
-129.153
-883.969
-745.082
-562.954
-349.996
-118.693
-1466.42
-1232.52
-928.835
-576.436
-195.323
-1417.02
-1191.89
-898.76
-557.969
-189.088
-2044.18
-1711.66
-1285.74
-796.346
-269.638
-1898.25
-1591.44
-1196.5
-741.325
-250.997
-3050.12
-2535.8
-1894.98
-1171.22
-396.685
-3575.98
-2946.57
-2190.29
-1353.22
-459.838
-4008.36
-3257.07
-2406.2
-1492.23
-513.285
-5968.38
-4735.21
-3476.85
-2191.34
-786.107
-6471.07
-4961.04
-3631.81
-2370.65
-935.091
-6901.1
-5157.11
-3760.87
-2514.82
-1059.49
-3791.42
-3149.95
-2352.39
-1453.19
-492.007
-4276.97
-3527.62
-2622.14
-1618.18
-548.763
-4329.03
-3534.47
-2613.11
-1613.93
-550.348
-3981.18
-3201.38
-2352.92
-1461.68
-506.591
-3390.75
-2658.37
-1941.96
-1227.41
-444.495
-2956.11
-2259.35
-1641.05
-1056.68
-400.848
-20071
-14360.3
-4200.16
-3087.99
-2377.86
-3195.87
-3144.09
-12876.3
-14068.5
-11053.8
-12691.4
-7030.24
-10459.6
-5252.8
-5531.97
-3936.05
-20355.3
-10726.3
-3807.04
-6242.75
-8565.58
-5729.6
-6069.43
-4535.74
-2724.1
-3800.36
-4510.83
-4581.21
-19607.8
-12786.2
-12467.8
-8743.55
-8490.72
-9231.91
-3903.48
-4773.51
-6367.21
-13782.1
-11398.8
-9010.4
-7678.75
-6003.83
-9189.48
-6162.73
-4544.93
-3236.35
-1531.88
-3688.59
-3037.26
-2257.01
-1394.81
-474.365
-2747.31
-2288.8
-1712.89
-1059.25
-358.718
-2113.79
-1758.65
-1313.8
-810.945
-274.243
-2853.32
-2384.83
-1788.37
-1106.32
-374.377
-2787.09
-2312.98
-1725.42
-1064.98
-360.446
-9053.35
-7190.18
-5591.72
-4650.81
-4159.96
-10076.4
-8320.36
-6420.07
-4842.34
-2681.36
-7814.43
-5397.32
-3918.76
-2596.1
-1063.24
-9120.56
-7248.53
-5455.98
-3815.01
-1745.84
-5857.09
-4614.66
-3336.12
-2043.57
-701.431
-8080.77
-5936.36
-4231.92
-2613.35
-930.206
-4493.8
-3610.61
-2634.51
-1612.61
-547.769
-4712.98
-3773.39
-2747
-1680.35
-571.13
-3400.57
-2753.63
-2017.26
-1234.49
-417.721
-13819.4
-10576.8
-8290.71
-6750.27
-5574.83
-8164.4
-6104.37
-4478.13
-2939.1
-1220.49
-3246.17
-2605.31
-1904.64
-1172.31
-402.428
-5338.71
-4303.15
-3163.85
-1962.26
-681.012
-7093.57
-5608.32
-4115.45
-2603.91
-955.49
-4877.65
-3920.88
-2884.72
-1797.54
-628.408
-5237.06
-4254.95
-3145.78
-1954.58
-675.053
-3949.63
-3227.38
-2386.84
-1474.1
-502.974
-2383.22
-1952.02
-1441.31
-884.835
-299.244
-3355.23
-2773.11
-2061.97
-1270.57
-429.983
-3905.43
-3171.31
-2331.01
-1431.87
-486.691
-3989.67
-3258.87
-2407.36
-1483.99
-505.406
-13317.7
-10651.2
-8453.99
-6979.88
-5534.94
-8808.45
-6218.71
-4604.21
-3209.33
-1511.49
-9324.23
-7352.29
-5478.4
-3832.42
-1732.21
-6862.31
-5178.67
-3813.23
-2499.54
-972.328
-7057.06
-5600.23
-4121.33
-2615
-956.624
-7241.97
-5461.8
-4019.74
-2629.33
-1012.52
-3365.4
-2730.82
-2016.06
-1250.85
-431.424
-4201.71
-3464.01
-2573.03
-1586.68
-537.853
-5479.58
-4436.71
-3269.4
-2026.14
-698.129
-393.459
-1141.08
-1858.24
-2570.94
-3270.92
-3939.69
-2906.96
-7765.85
-7263.4
-2800.71
-9784.7
-8265.18
-9613.97
-10601.5
-2662.52
-1709.83
-6196.58
-3472.67
-11531.1
-8364.44
399.307
-2339.89
-6417.25
-5900.74
-2231.21
-8236.82
-6634.3
-7962.51
-8880.95
-2200.32
-974.702
-5343.84
-1714.47
-9374.23
-4972.65
1983.14
-1680.2
-4791.82
-4370.69
-1598.13
-6383.71
-3792.64
-6308.49
-6855.95
-1637.41
-894.123
-3727.13
-1818.01
-7297.91
-1731.27
2137.48
-1203.55
-3618.45
-3343.61
-1180.73
-4746.96
-2134.62
-5092.28
-5861.26
-1206.77
-953.217
-2685.64
-1872.06
-6274.25
-150.405
1612.02
-946.7
-2996.68
-2801.75
-966.957
-3692.63
-1702.32
-4455.88
-5593.81
-931.661
-1057.02
-1871.52
-1822.55
-5396.26
51.0732
265.679
-818.939
-2612.26
-2523.99
-857.792
-3356.74
-2014.55
-4050.89
-5298.39
-699.432
-830.488
-1485.88
-1771.06
-5326.43
-930.557
-516.076
-1402.9
-3412.09
-5211.34
-2025.22
-5500.56
-9676.14
-7568.73
-10865.8
-960.127
-624.925
-3777.46
-2153.76
-975.722
-8988.07
-4495.82
-1296.01
-3157.61
-4534.75
-1743.43
-5039.44
-8657.16
-6759.28
-9128.33
-974.967
-529.521
-3883.18
-1985.03
-150.452
-8711.65
-3221.04
-1121.69
-2741.63
-3643.66
-1374.04
-4519.94
-7559.17
-5646.69
-7842.9
-846.384
-605.962
-3240.37
-2036.67
-395.973
-6825.47
-2996.04
-946.048
-2422.04
-2943.68
-1085.59
-4130.59
-6676.41
-4912.94
-6951.62
-755.066
-600.397
-2916.04
-2070.61
-275.571
-6172.54
-2939.43
-836.702
-2141.82
-2555.36
-927.019
-3668.49
-5992.54
-4393.42
-6499.12
-690.543
-652.284
-2582
-2224.12
-459.608
-5805.2
-2970.52
-765.458
-1882.4
-2333.58
-838.663
-3343.04
-5876.43
-4018.62
-6226.18
-709.512
-765.122
-2268.41
-2115.23
-734.939
-5924.03
-3315.65
6664
8415.59
17322.5
25422.5
25936.8
44614.7
19803.8
50309
16061
35243.4
24049.2
36562.5
21476.9
28360
8134.13
9254.36
16617.9
19069.4
21255.4
21098.9
16642.7
20467.5
24422.8
21867
5572.1
4304.35
6821.22
4670.75
14062
11384
23917.2
17498.8
18406.4
19251
20672.6
20061
7522.22
5727.96
43273.3
57937.5
28044.6
34404.5
57746.8
75024.4
29914.1
34265.7
32306.4
45623
28320
37456.2
16712.9
26794.8
3107.48
1073.83
3171.58
1163.83
9891.54
4019.13
13498.3
5005.68
9765.81
3719.36
10147.1
3271.5
17200
5501.03
22165.9
7518.19
26343.6
13246.6
24130.1
14290.6
24402.4
15812.1
21495.1
15998.1
19252.6
11490
19334.8
10011.8
24928
15792
25005.5
15901.4
22736.2
16848.1
23017.2
16875.3
20769.2
13149.7
21509.5
13444.8
19806.3
8716.54
9305.64
11518.2
19871.1
9577.84
8231.2
11831
20958.3
8631.25
10461.9
11511.1
22003.8
8824.19
11336
11976
4006.32
4347.21
1396.89
2776.96
12299.9
13052
4868.76
8936.64
15828.5
17435.1
7972.76
13699.9
12258.4
464.498
14372.9
18373.5
10336
97.113
7013.82
13237.3
21668.3
16125.8
10876.2
13472.1
12154.5
10824.7
17148.7
3628.77
2882.81
2075.88
2071.44
11152.5
9124.02
7007.29
6586.3
13718.7
11129.5
9047.4
8023.46
5583.54
7281.77
11814.6
12422.5
14907.7
13485.9
16904.3
14433.7
12172.5
10260.9
9383.17
9432.64
12514.3
9212.43
11637.1
7849.04
10312.2
6594.15
12522.3
7978.94
10573.5
4141.52
9261.35
9585.18
12924.7
16331
14291.9
20423
7506.47
7903.08
9470.61
2113.81
8323.12
15606.6
7926.14
16865.4
14186
25312.9
14438.9
27013.3
6466.38
13668.4
5939.4
14698.8
9041.16
6424.18
12834.4
4765.67
9020.8
857.72
11039.8
-46.9099
8787.88
9976.19
13491.5
6075.93
7352.59
11879.3
12024.2
8053.14
2151.86
1853.78
1584.3
1610.66
1444.29
1246.35
7134.08
5471.89
4461.62
4760.24
3551.01
2895.89
8335.63
6771.58
6065.59
5621.62
4245.64
3860.64
6095.36
4997.08
4730.83
10555.8
7348.93
5897.8
10395.6
7033.36
5361.55
10816
7919.72
6600.77
7362.51
4468.63
3284.78
15137.8
12206.5
9974.01
10137.5
7841.8
6024.85
9463.21
6771.01
4927.63
8324.06
5529.33
3833.2
9179.56
4814.53
2438.07
10936.6
14691.6
8763.12
11194.3
12126
17628.7
10935.4
15688.8
55.4195
610.72
-429.94
84.5339
3016.12
3391.48
1319.13
809.925
804.885
2487.95
9697.53
13991.5
6652.3
3840.64
10513.6
10446.7
16509.8
18198.1
-568.262
-4299.7
7876.17
7382.8
7431.43
5709.39
893.295
483.966
614.031
285.282
2043.75
162.921
-199.211
-756.85
9281.01
2247.41
6434.75
1641.13
9261.41
2771.92
11163.2
3474.51
9353.99
12171.4
8578.13
11821.1
15278.3
15814.8
14502.7
14897.4
5730.28
9193.62
6656.63
9164.69
9059.84
11354.1
9943.15
11417.8
15085.7
14586.4
15761.9
14596
5755.25
8862.18
6217.38
8971.69
-338.596
978.893
6832.96
3790.15
-834.95
597.315
6331.85
3328.46
101.099
1240.89
6958.55
4136.44
498.611
1469.44
6941.57
4242.4
-650.013
-733.337
127.614
-35.2158
-2836.75
-2811.27
-271.741
-473.57
-674.969
-1951.38
1367.84
674.805
-10102.3
-9932.92
-5401.18
-4184.08
-628.578
-10789.5
-10616.5
-4092.95
-6029.74
-1033.89
10804.2
8237.5
6923.09
6111.1
3267.79
-698.001
-592.69
-95.6401
-41.1138
-2316.18
-2090.92
-259.582
-104.269
-2378.44
-2642.71
336.712
479.175
-5042.55
-1990.03
-7723.46
-4463.89
-3326.24
-2308.57
-3774.42
-3047.61
33.4252
710.292
3963.88
2467.77
1186.94
-789.931
932.979
-658.453
1307.17
109.824
1331.72
1437.8
5140.37
4568.31
9727.41
5800.95
8259.97
8053.56
12482.5
9956.56
7269.51
4137.9
3572.04
3421.37
11465
5012.24
12580.6
5608.09
13914
10174.6
14828.2
10944.3
8858.72
3347.07
9900.86
3877.95
5226.35
3855.23
3415.1
4949.34
3258.93
3493.94
2866.25
4572.42
6075.58
3752.36
3870.74
5693.78
7474.43
4065.23
5056.06
5851.86
-538.795
-520.575
-565.799
-62.2136
-194.749
-207.054
-2037.46
-2021.86
-1961.19
-211.859
-557.944
-544.209
-2679.07
-2757.17
-2719.91
293.214
-562.497
-722.046
-904.712
-747.261
-449.584
-2911.63
-2868.52
-2594.17
-2308.51
-2482.46
-2381.44
-2879.19
-2881.19
-2718.65
811.21
-257.097
-327.251
3579.46
2050.9
1138.61
-546.523
-1389.74
-1823.64
-601.61
-1601.86
-2014.68
-299.166
-1326.82
-1603.02
1509.55
-336.091
-543.701
-19.4309
-20.1506
-20.6525
-30.0306
-198.791
-96.0669
-70.4591
-57.6287
-11.1756
-41.2703
-100.823
-136.178
-336.299
-181.183
-192.102
-174.538
173.489
-0.0353083
-146.856
-250.306
-105.772
-129.217
-153.655