/*--------------------------------*- C++ -*----------------------------------*\
| =========                 |                                                 |
| \\      /  F ield         | OpenFOAM: The Open Source CFD Toolbox           |
|  \\    /   O peration     | Version:  2306                                  |
|   \\  /    A nd           | Website:  www.openfoam.com                      |
|    \\/     M anipulation  |                                                 |
\*---------------------------------------------------------------------------*/
FoamFile
{
    version     2.0;
    format      ascii;
    arch        "LSB;label=32;scalar=64";
    class       volVectorField;
    location    "0.6";
    object      flux;
}
// * * * * * * * * * * * * * * * * * * * * * * * * * * * * * * * * * * * * * //

dimensions      [0 1 -1 1 0 0 0];

internalField   nonuniform List<vector> 
2658
(
(9.53159e-07 9.30472e-07 -7.54595e-06)
(1.41951e-06 5.52424e-07 -7.07439e-06)
(4.48079e-07 1.62679e-07 -4.01997e-06)
(1.24507e-08 -1.48483e-09 -3.56371e-06)
(-1.41168e-06 -1.39131e-06 -4.81546e-06)
(-1.18606e-06 1.68459e-06 -4.90255e-06)
(1.03587e-06 -1.21277e-06 -3.74983e-06)
(1.03081e-06 1.02418e-06 -3.6474e-06)
(-5.65725e-09 1.54823e-08 -3.56099e-06)
(1.67697e-06 -1.2043e-06 -4.89129e-06)
(-1.27444e-06 3.36115e-07 -5.61845e-06)
(-1.03629e-06 -3.51669e-06 -4.94874e-06)
(7.89193e-07 2.30697e-06 -7.0529e-06)
(8.87292e-07 2.3389e-06 -6.74536e-06)
(6.6371e-07 1.92832e-06 -6.77651e-06)
(-2.34509e-08 1.96336e-06 -6.94916e-06)
(-2.64366e-08 2.12438e-06 -6.89321e-06)
(-3.3505e-08 1.93759e-06 -6.93577e-06)
(-7.17551e-07 1.97212e-06 -6.75644e-06)
(-9.59433e-07 2.31108e-06 -6.65129e-06)
(-9.58412e-07 2.24175e-06 -6.9299e-06)
(-2.22195e-06 1.99317e-06 -6.2469e-06)
(-2.57223e-06 6.78895e-07 -7.05979e-06)
(1.85199e-06 -3.80568e-07 -5.03756e-06)
(-7.47761e-07 6.65435e-07 -8.05475e-06)
(-1.05414e-06 2.11988e-06 -6.93439e-06)
(-2.26007e-06 -4.38147e-07 -6.31385e-06)
(-2.91364e-07 1.4028e-07 -7.16759e-06)
(-1.6529e-06 1.72804e-06 -7.46649e-06)
(-1.83155e-06 -9.119e-11 -6.35953e-06)
(-1.65288e-06 -1.72807e-06 -7.46641e-06)
(-2.26011e-06 4.38157e-07 -6.31384e-06)
(-1.05418e-06 -2.12e-06 -6.93431e-06)
(-2.57234e-06 -6.78917e-07 -7.05967e-06)
(-7.47696e-07 -6.65425e-07 -8.05471e-06)
(1.85198e-06 3.80605e-07 -5.03744e-06)
(-7.85869e-07 -2.26669e-08 -6.02419e-06)
(4.50227e-07 1.8544e-07 -9.26818e-06)
(-2.22163e-06 -1.99378e-06 -6.24682e-06)
(-9.58681e-07 -2.24187e-06 -6.93005e-06)
(-9.59438e-07 -2.31125e-06 -6.6514e-06)
(-7.17517e-07 -1.97219e-06 -6.75644e-06)
(-3.36595e-08 -1.93744e-06 -6.93569e-06)
(7.24329e-08 9.14156e-07 -9.39505e-06)
(-1.00745e-06 -3.51377e-08 -5.40774e-06)
(9.43292e-07 2.54855e-08 -5.3528e-06)
(-1.27442e-06 -3.36136e-07 -5.61846e-06)
(-5.74902e-08 9.53593e-07 -9.39656e-06)
(-2.36704e-08 -1.96371e-06 -6.94926e-06)
(6.63707e-07 -1.92834e-06 -6.77655e-06)
(8.87295e-07 -2.33875e-06 -6.74527e-06)
(7.89139e-07 -2.30701e-06 -7.05299e-06)
(2.11203e-06 -2.08925e-06 -6.33015e-06)
(-4.2069e-07 4.111e-07 -9.65807e-06)
(2.32432e-06 -7.83971e-07 -7.05978e-06)
(1.93618e-06 -6.77384e-07 -6.78163e-06)
(-9.65306e-07 5.43758e-08 -9.39439e-06)
(-8.25608e-09 -9.53203e-07 -5.37413e-06)
(-3.2655e-06 -1.19819e-11 -5.11386e-06)
(1.94324e-06 9.7649e-09 -6.94197e-06)
(-9.65239e-07 -5.43384e-08 -9.39448e-06)
(1.93622e-06 6.77377e-07 -6.78169e-06)
(2.3243e-06 7.84023e-07 -7.05981e-06)
(-4.20608e-07 -4.11154e-07 -9.65805e-06)
(3.25091e-07 3.26229e-07 -5.71764e-06)
(-3.51731e-06 -1.00881e-06 -4.95836e-06)
(3.15691e-07 -1.2713e-06 -5.60569e-06)
(-9.73575e-08 -7.33538e-08 -4.68272e-06)
(-8.92878e-07 -1.86791e-06 -4.83496e-06)
(-8.92977e-07 1.86792e-06 -4.83485e-06)
(7.58742e-09 1.42978e-11 -3.59521e-06)
(7.35908e-07 1.3242e-06 -3.65892e-06)
(-9.65497e-08 -2.52763e-08 -2.56144e-06)
(-6.63285e-07 9.00315e-07 -2.67862e-06)
(4.26223e-08 6.15494e-09 -1.8522e-06)
(-7.05247e-07 -6.91522e-07 -2.65857e-06)
(8.92076e-07 -6.78803e-07 -2.67104e-06)
(3.99017e-09 4.66704e-08 -1.84939e-06)
(-6.21201e-07 5.24825e-07 -1.8905e-06)
(6.83925e-07 3.38349e-07 -1.84412e-06)
(-1.03189e-06 -4.57996e-07 -2.67063e-06)
(-3.39665e-08 -8.84781e-08 -2.55993e-06)
(1.329e-06 7.00761e-07 -3.63983e-06)
(-1.21659e-06 1.06741e-06 -3.76131e-06)
(-1.59694e-08 -9.36105e-09 -3.36976e-06)
(-8.55647e-09 -4.36749e-09 -1.74901e-06)
(1.56735e-09 3.80521e-09 -8.02723e-07)
(2.2652e-09 3.3827e-09 -3.23668e-07)
(1.17014e-09 1.70362e-09 -1.15085e-07)
(4.42274e-10 6.89273e-10 -3.62935e-08)
(1.37701e-10 2.48191e-10 -1.02303e-08)
(-5.91543e-11 -9.082e-11 -3.28585e-09)
(2.65723e-11 2.83258e-11 -1.72782e-09)
(-4.0361e-10 2.53994e-10 -1.54511e-09)
(2.16207e-10 -8.11696e-11 -1.32859e-09)
(-7.44493e-11 -4.51089e-10 -1.89847e-09)
(-2.69997e-10 -1.85913e-11 -1.29977e-09)
(-1.43118e-12 -2.47834e-10 -1.83246e-09)
(2.61113e-10 -2.56928e-11 -1.29454e-09)
(-2.24625e-10 -7.24233e-11 -1.2916e-09)
(1.09852e-10 -2.60615e-10 -1.81206e-09)
(2.93921e-10 -5.42341e-11 -1.30339e-09)
(3.63562e-10 -3.8815e-10 -1.76163e-09)
(1.73094e-10 -1.14367e-10 -1.53944e-09)
(1.87151e-10 -1.14927e-10 -1.32092e-09)
(-4.78221e-10 2.55687e-10 -1.76693e-09)
(-5.61291e-11 -9.22065e-11 -1.3734e-09)
(-3.42294e-11 -6.21013e-11 -3.21063e-09)
(-4.99266e-11 4.51999e-11 -1.37614e-09)
(1.17099e-10 -2.49224e-10 -1.67319e-09)
(2.42193e-10 7.8295e-11 -1.51347e-09)
(8.60766e-11 -1.02982e-10 -1.26115e-09)
(1.81643e-10 -1.59694e-15 -1.63503e-09)
(8.60469e-11 1.0301e-10 -1.26112e-09)
(2.42177e-10 -7.83379e-11 -1.5135e-09)
(1.17113e-10 2.49235e-10 -1.6734e-09)
(1.87249e-10 1.14894e-10 -1.32109e-09)
(-4.78293e-10 -2.5582e-10 -1.76696e-09)
(3.63663e-10 3.8806e-10 -1.76163e-09)
(1.73205e-10 1.14301e-10 -1.53943e-09)
(2.93841e-10 5.40197e-11 -1.30302e-09)
(1.09688e-10 2.60603e-10 -1.81172e-09)
(-2.24672e-10 7.24118e-11 -1.29155e-09)
(2.61105e-10 2.56352e-11 -1.29442e-09)
(-5.15743e-10 -2.08219e-10 -1.62302e-09)
(4.92171e-10 -1.97076e-10 -1.62943e-09)
(-4.03735e-10 -2.54097e-10 -1.54507e-09)
(-7.45425e-11 4.51154e-10 -1.8986e-09)
(-2.69942e-10 1.86938e-11 -1.29975e-09)
(2.16116e-10 8.12138e-11 -1.32864e-09)
(-1.20663e-10 2.62506e-10 -1.86595e-09)
(-3.03527e-10 4.67431e-11 -1.335e-09)
(-1.75541e-10 1.19685e-10 -1.59359e-09)
(-1.63918e-10 1.38437e-10 -1.33596e-09)
(-1.27822e-10 2.45124e-10 -1.73242e-09)
(-1.336e-11 -1.26016e-10 -1.44536e-09)
(-9.40609e-11 3.74932e-11 -1.47448e-09)
(-6.19588e-10 5.49658e-11 -2.15787e-09)
(3.153e-10 -3.57321e-10 -1.67588e-09)
(3.15196e-10 3.57514e-10 -1.67594e-09)
(-9.40987e-11 -3.74262e-11 -1.47437e-09)
(-1.34897e-11 1.26055e-10 -1.44534e-09)
(7.64281e-11 -6.3721e-11 -1.45421e-09)
(-1.32391e-10 -6.29466e-11 -1.43664e-09)
(-1.47163e-10 -5.88047e-13 -1.77584e-09)
(-1.32119e-10 6.2823e-11 -1.43604e-09)
(2.46526e-11 1.82075e-13 -1.81837e-09)
(1.36531e-12 2.41085e-13 -2.11143e-09)
(-2.79405e-10 -1.36983e-10 -1.2809e-09)
(-2.90143e-10 1.34906e-10 -1.28681e-09)
(-2.32646e-10 5.02424e-13 -1.13921e-09)
(-2.938e-10 1.2553e-11 -1.73977e-09)
(-2.94515e-10 8.79771e-11 -2.04269e-09)
(-2.99786e-10 -1.03347e-10 -1.06045e-09)
(-2.88931e-10 3.7432e-10 -1.59899e-09)
(-4.68839e-10 7.93211e-11 -1.59053e-09)
(-3.93141e-10 3.60652e-10 -1.46454e-09)
(-1.79482e-10 4.38964e-10 -1.53882e-09)
(-2.27213e-10 4.75546e-10 -1.3618e-09)
(-1.7768e-10 3.54443e-10 -1.53585e-09)
(1.31204e-11 3.58097e-10 -1.56945e-09)
(-5.12396e-12 4.40376e-10 -1.36524e-09)
(-3.37914e-11 3.63202e-10 -1.56765e-09)
(1.44123e-10 3.49368e-10 -1.50106e-09)
(2.09778e-10 4.76288e-10 -1.31743e-09)
(1.59194e-10 4.39746e-10 -1.48782e-09)
(3.63649e-10 3.67474e-10 -1.39704e-09)
(5.28666e-10 1.1358e-10 -1.61602e-09)
(-1.08249e-10 7.36997e-11 -2.98661e-09)
(8.51874e-10 3.27686e-10 -3.85017e-09)
(-2.70663e-09 -1.73917e-09 -8.67605e-09)
(5.54887e-09 3.91478e-09 -1.77098e-08)
(-9.86913e-09 -6.86694e-09 -3.37683e-08)
(1.95912e-08 1.35425e-08 -6.24633e-08)
(-3.30323e-08 -2.3956e-08 -1.12497e-07)
(6.1372e-08 4.19039e-08 -1.95742e-07)
(-9.82617e-08 -7.30371e-08 -3.3104e-07)
(1.7008e-07 1.14995e-07 -5.41534e-07)
(-2.57852e-07 -1.95012e-07 -8.57986e-07)
(4.16103e-07 2.77749e-07 -1.31736e-06)
(-5.93516e-07 -4.56732e-07 -1.95034e-06)
(8.99588e-07 5.87969e-07 -2.80097e-06)
(-1.19504e-06 -9.44653e-07 -3.87721e-06)
(1.75179e-06 1.08159e-06 -5.08515e-06)
(-1.7338e-06 1.07601e-06 -4.90256e-06)
(1.84458e-06 9.06772e-07 -4.80414e-06)
(-1.90526e-06 8.62949e-07 -4.85658e-06)
(1.67692e-06 1.20435e-06 -4.89121e-06)
(-1.41176e-06 1.39127e-06 -4.81539e-06)
(1.24419e-08 1.47187e-09 -3.56364e-06)
(-1.18599e-06 -1.68463e-06 -4.9026e-06)
(3.15609e-07 1.2713e-06 -5.6056e-06)
(-3.51726e-06 1.00874e-06 -4.95838e-06)
(3.25075e-07 -3.26226e-07 -5.71764e-06)
(-1.03633e-06 3.51666e-06 -4.94875e-06)
(4.59368e-07 -4.63163e-07 -7.91911e-06)
(-1.59773e-08 9.33833e-09 -3.36975e-06)
(-8.55309e-09 4.35283e-09 -1.749e-06)
(1.56333e-09 -3.80758e-09 -8.02717e-07)
(2.26342e-09 -3.38552e-09 -3.23663e-07)
(1.17107e-09 -1.70569e-09 -1.15083e-07)
(4.42762e-10 -6.89085e-10 -3.62922e-08)
(1.37783e-10 -2.48241e-10 -1.02299e-08)
(-5.91787e-11 9.0818e-11 -3.28583e-09)
(2.6546e-11 -2.83376e-11 -1.72785e-09)
(1.45679e-11 -1.17231e-11 -1.37001e-09)
(-1.56643e-10 -1.35401e-10 -1.56209e-09)
(-5.1471e-11 1.12595e-10 -3.27097e-09)
(1.64907e-10 -1.60274e-10 -1.593e-09)
(1.64912e-10 1.60257e-10 -1.59305e-09)
(-1.56664e-10 1.35485e-10 -1.56214e-09)
(1.46163e-11 1.16469e-11 -1.37003e-09)
(-5.13141e-11 -1.12694e-10 -3.27101e-09)
(2.16949e-11 -3.66124e-11 -1.41939e-09)
(4.92066e-10 1.97037e-10 -1.62943e-09)
(-5.15782e-10 2.08158e-10 -1.62308e-09)
(4.10297e-11 -4.5448e-10 -1.87471e-09)
(3.82735e-10 2.34581e-10 -1.52274e-09)
(-2.00745e-11 4.21753e-11 -1.69493e-09)
(-2.60117e-11 1.30916e-11 -1.34843e-09)
(-5.00872e-11 -4.46597e-11 -1.4185e-09)
(-8.7188e-12 2.40962e-11 -1.77369e-09)
(-1.47028e-11 2.39272e-11 -3.38879e-09)
(3.93667e-11 5.13588e-11 -3.28391e-09)
(4.81333e-11 -5.19225e-15 -3.63937e-09)
(3.93631e-11 -5.14311e-11 -3.28376e-09)
(-2.01763e-11 -4.23306e-11 -1.69491e-09)
(-5.60634e-11 9.21709e-11 -1.37337e-09)
(-2.33947e-10 -2.09716e-10 -1.55627e-09)
(-3.41113e-11 6.22192e-11 -3.21057e-09)
(4.53768e-11 -2.10869e-10 -1.58395e-09)
(4.54395e-11 2.11061e-10 -1.58398e-09)
(-2.33995e-10 2.09814e-10 -1.55629e-09)
(-5.52797e-12 6.35362e-14 -1.86731e-09)
(1.42288e-10 -1.39049e-10 -1.54381e-09)
(-1.98189e-10 -1.67295e-10 -1.58472e-09)
(-1.98342e-10 1.67451e-10 -1.58475e-09)
(-5.73462e-13 -1.10566e-10 -3.22688e-09)
(1.42439e-10 1.39242e-10 -1.54386e-09)
(-3.82291e-12 -2.67819e-11 -1.58827e-09)
(-2.19833e-11 4.76224e-14 -1.26664e-09)
(-2.90995e-11 -7.91691e-11 -1.24902e-09)
(-2.94887e-11 -3.84564e-11 -1.14714e-09)
(1.35646e-10 1.27068e-10 -1.37189e-09)
(-2.63679e-11 -2.56323e-11 -1.23728e-09)
(8.59092e-13 3.6977e-14 -1.30162e-09)
(-1.9963e-10 2.70147e-14 -2.29895e-09)
(-7.09295e-11 -1.52091e-14 -3.2423e-09)
(-1.25145e-10 -3.06809e-10 -2.26695e-09)
(2.86557e-10 2.01086e-10 -2.52468e-09)
(2.04802e-10 4.30844e-10 -1.49359e-09)
(3.95701e-10 -1.13309e-10 -1.17921e-09)
(2.82071e-10 3.26976e-10 -1.51531e-09)
(-1.05828e-09 -5.67549e-10 -2.29632e-09)
(1.23869e-09 1.30775e-09 -5.44858e-09)
(-3.18674e-09 -2.10879e-09 -9.7227e-09)
(-3.1866e-09 2.10858e-09 -9.72275e-09)
(4.90241e-12 2.87288e-10 -8.53777e-09)
(-5.03705e-09 3.92862e-09 -1.87146e-08)
(1.53504e-10 3.9032e-11 -1.59921e-08)
(9.29639e-09 -8.19456e-09 -3.53915e-08)
(-1.72905e-08 1.42326e-08 -6.5663e-08)
(2.06095e-10 -3.77381e-10 -5.46798e-08)
(3.09692e-08 -2.68318e-08 -1.16965e-07)
(-5.42153e-08 4.56299e-08 -2.04568e-07)
(-6.33006e-11 -1.77623e-09 -1.66198e-07)
(9.14663e-08 -7.84545e-08 -3.43563e-07)
(-1.50813e-07 1.28708e-07 -5.63907e-07)
(-1.64668e-09 -6.09005e-09 -4.46052e-07)
(2.38632e-07 -2.02822e-07 -8.90469e-07)
(-3.67449e-07 3.18385e-07 -1.36692e-06)
(-7.22237e-09 -2.04001e-08 -1.05153e-06)
(5.5053e-07 -4.59858e-07 -2.02531e-06)
(-7.7581e-07 6.90312e-07 -2.90015e-06)
(-1.85849e-08 -6.95926e-08 -2.16594e-06)
(1.14979e-06 -9.09068e-07 -4.00275e-06)
(-1.38025e-06 1.30874e-06 -5.4544e-06)
(-8.24561e-08 -2.48011e-07 -4.05595e-06)
(2.4827e-06 -1.6897e-06 -6.67203e-06)
(4.21134e-07 -8.40367e-07 -4.83316e-06)
(3.15136e-06 -1.94146e-06 -6.44397e-06)
(3.15134e-06 1.94149e-06 -6.44393e-06)
(-2.91298e-07 -1.40216e-07 -7.16746e-06)
(7.94859e-07 -5.96965e-07 -7.43619e-06)
(-2.50777e-07 1.03643e-06 -6.37349e-06)
(1.06448e-06 9.23608e-07 -5.86071e-06)
(7.04389e-08 -2.60225e-11 -8.67004e-06)
(-6.4059e-07 -6.37583e-07 -5.55655e-06)
(-6.40579e-07 6.37563e-07 -5.55659e-06)
(7.30166e-07 6.7828e-07 -5.60658e-06)
(-2.67329e-08 -1.82474e-11 -8.66715e-06)
(-8.34927e-07 -8.09168e-07 -5.67391e-06)
(-8.34908e-07 8.0915e-07 -5.67393e-06)
(2.3146e-07 3.38129e-07 -5.44579e-06)
(-2.8709e-07 -1.35318e-11 -8.6328e-06)
(-1.25641e-06 -2.17761e-06 -7.06169e-06)
(-1.25642e-06 2.17759e-06 -7.06167e-06)
(4.96052e-07 -1.44291e-06 -8.75495e-06)
(1.88328e-06 2.19495e-11 -1.26192e-05)
(4.96063e-07 1.44289e-06 -8.75497e-06)
(7.57447e-07 -1.1309e-06 -8.90688e-06)
(2.06562e-06 7.16608e-07 -1.2481e-05)
(8.99901e-07 1.65225e-06 -8.90296e-06)
(1.19286e-06 1.18387e-06 -1.03723e-05)
(1.3911e-06 1.38261e-06 -8.48179e-06)
(-2.19314e-06 -2.18005e-06 -8.26542e-06)
(-1.26868e-06 1.48311e-06 -6.76393e-06)
(1.12844e-06 1.8321e-07 -7.82577e-06)
(8.40261e-07 1.25022e-07 -9.73894e-06)
(-8.01836e-09 5.40522e-09 -8.80599e-06)
(2.31475e-07 -3.38159e-07 -5.44578e-06)
(-1.33636e-07 -1.23609e-07 -5.23258e-06)
(-3.76523e-07 -3.75993e-07 -8.59194e-06)
(1.48865e-06 -1.24764e-06 -6.80172e-06)
(-1.14087e-06 7.51036e-07 -8.90999e-06)
(7.18185e-07 2.03473e-06 -1.24818e-05)
(1.66003e-06 8.89952e-07 -8.90847e-06)
(9.51428e-07 9.46674e-07 -9.8398e-06)
(-5.1859e-07 -5.14356e-07 -9.07257e-06)
(-6.88206e-07 1.08365e-11 -9.16193e-06)
(-5.1858e-07 5.14379e-07 -9.07249e-06)
(-3.76573e-07 3.75997e-07 -8.59191e-06)
(-1.26867e-06 -1.48313e-06 -6.76393e-06)
(-2.19317e-06 2.18005e-06 -8.26547e-06)
(8.99894e-07 -1.65237e-06 -8.90269e-06)
(2.06563e-06 -7.1667e-07 -1.2481e-05)
(7.57479e-07 1.13091e-06 -8.9068e-06)
(1.12844e-06 -1.83236e-07 -7.82588e-06)
(8.40258e-07 -1.25031e-07 -9.73893e-06)
(9.51487e-07 -9.46527e-07 -9.83967e-06)
(1.65981e-06 -8.90024e-07 -8.90881e-06)
(7.18017e-07 -2.0347e-06 -1.24816e-05)
(-1.14091e-06 -7.51059e-07 -8.9101e-06)
(1.48858e-06 1.24762e-06 -6.80169e-06)
(1.77937e-07 -1.13241e-06 -7.81943e-06)
(1.4311e-06 -5.31645e-07 -8.81112e-06)
(-2.97583e-08 -1.87796e-06 -1.26285e-05)
(-1.47755e-06 -4.80182e-07 -8.7638e-06)
(2.17951e-06 1.16966e-06 -7.09087e-06)
(-2.5483e-08 2.86433e-07 -8.644e-06)
(-3.71752e-07 -2.46718e-07 -5.43351e-06)
(-2.2233e-06 1.26651e-06 -7.06698e-06)
(-2.67164e-08 -2.788e-07 -7.44325e-06)
(-2.57526e-07 -3.51415e-07 -7.57718e-06)
(2.05727e-08 -4.34828e-08 -3.54694e-06)
(1.39679e-08 -3.2579e-08 -1.85076e-06)
(5.35699e-09 -2.21558e-08 -8.5098e-07)
(1.90031e-09 -1.12927e-08 -3.43248e-07)
(6.08056e-10 -4.71695e-09 -1.21975e-07)
(1.61823e-10 -1.7048e-09 -3.83975e-08)
(3.05638e-11 -5.60313e-10 -1.07862e-08)
(-1.42332e-10 -4.17259e-10 -9.80569e-09)
(2.88939e-09 -1.57327e-09 -8.60664e-09)
(-3.19899e-09 -1.33391e-09 -8.60023e-09)
(3.11379e-09 -1.17143e-09 -8.59776e-09)
(-2.98948e-09 -1.94628e-09 -8.71964e-09)
(5.2083e-09 4.52345e-09 -1.69854e-08)
(-1.09287e-08 -7.78986e-09 -3.29237e-08)
(1.88993e-08 1.57075e-08 -5.96581e-08)
(-3.60064e-08 -2.71404e-08 -1.09246e-07)
(6.00677e-08 4.86285e-08 -1.86895e-07)
(-1.05469e-07 -8.29557e-08 -3.20883e-07)
(1.68252e-07 1.33359e-07 -5.17118e-07)
(-2.73154e-07 -2.22834e-07 -8.31215e-07)
(4.14517e-07 3.21713e-07 -1.25805e-06)
(-6.21151e-07 -5.24825e-07 -1.89049e-06)
(8.92024e-07 6.78837e-07 -2.67097e-06)
(-1.21655e-06 -1.06743e-06 -3.76132e-06)
(-5.64341e-09 -1.55315e-08 -3.56092e-06)
(1.03081e-06 -1.02415e-06 -3.64739e-06)
(1.03573e-06 1.21285e-06 -3.74978e-06)
(7.36043e-07 -1.32424e-06 -3.659e-06)
(-4.84391e-07 1.01187e-06 -2.66736e-06)
(4.60913e-08 -7.14172e-12 -1.88255e-06)
(-4.843e-07 -1.01187e-06 -2.66739e-06)
(3.60702e-07 6.80186e-07 -1.85352e-06)
(5.05596e-07 -6.18467e-07 -1.88696e-06)
(5.038e-07 4.99692e-07 -1.84494e-06)
(-3.26279e-07 -3.19106e-07 -1.2377e-06)
(-3.13802e-07 4.19528e-07 -1.26218e-06)
(2.60007e-08 7.78002e-09 -8.37773e-07)
(2.14775e-07 2.12972e-07 -8.13411e-07)
(6.72189e-09 2.85673e-08 -8.35946e-07)
(4.14569e-07 -3.21689e-07 -1.25811e-06)
(-1.50298e-08 -4.83729e-08 -1.25054e-06)
(-4.80127e-07 -2.14727e-07 -1.25561e-06)
(4.63461e-07 -2.44657e-07 -1.24686e-06)
(-1.81069e-09 2.97306e-08 -8.49564e-07)
(-3.02019e-07 1.64227e-07 -8.18821e-07)
(2.78298e-07 1.79601e-07 -8.17339e-07)
(-4.36315e-07 -2.73541e-07 -1.25309e-06)
(1.08281e-09 -5.14467e-08 -1.24854e-06)
(-6.86967e-07 3.86955e-07 -1.8585e-06)
(-3.77424e-09 4.62858e-08 -1.87364e-06)
(9.95923e-07 -5.12048e-07 -2.6448e-06)
(-1.33813e-06 7.79596e-07 -3.67896e-06)
(-6.95715e-09 7.47343e-09 -3.58486e-06)
(-1.90527e-06 -8.62944e-07 -4.85659e-06)
(-8.00678e-08 -8.61426e-08 -4.68815e-06)
(9.43302e-07 -2.548e-08 -5.35285e-06)
(-5.74893e-08 -9.53604e-07 -9.39661e-06)
(1.7798e-07 1.13239e-06 -7.81948e-06)
(-2.22333e-06 -1.26655e-06 -7.06694e-06)
(-3.71726e-07 2.46679e-07 -5.43348e-06)
(5.82601e-08 7.04434e-08 -7.56017e-06)
(-4.06424e-08 -3.10442e-08 -4.93894e-06)
(-1.53431e-08 -9.25488e-12 -3.70059e-06)
(-1.32872e-08 -1.88369e-08 -3.49505e-06)
(-7.02042e-09 -1.81588e-08 -1.83067e-06)
(-3.11311e-09 -1.48332e-08 -8.41788e-07)
(-1.3147e-09 -8.14626e-09 -3.39498e-07)
(-5.3182e-10 -3.53249e-09 -1.20628e-07)
(-2.00895e-10 -1.30537e-09 -3.79929e-08)
(-6.95705e-11 -4.26419e-10 -1.0721e-08)
(-1.46615e-11 -2.3982e-11 -3.38875e-09)
(-8.55649e-12 -2.41133e-11 -1.7736e-09)
(-4.98948e-11 4.456e-11 -1.41842e-09)
(-5.36774e-13 1.10524e-10 -3.22679e-09)
(-2.60261e-11 -1.31267e-11 -1.34837e-09)
(3.82763e-10 -2.34702e-10 -1.52273e-09)
(4.09891e-11 4.54437e-10 -1.87465e-09)
(-1.09582e-11 -1.18311e-10 -3.40643e-09)
(-9.71594e-10 5.07243e-10 -3.8756e-09)
(9.21092e-10 3.60937e-10 -3.90158e-09)
(-9.93407e-10 3.39517e-10 -3.92277e-09)
(8.89043e-10 5.53983e-10 -3.91989e-09)
(-5.41226e-10 4.45979e-10 -3.47277e-09)
(1.06026e-09 -1.18786e-10 -1.96259e-09)
(-6.41412e-10 -1.04552e-09 -4.35151e-09)
(1.87977e-09 2.94467e-09 -8.9721e-09)
(3.57975e-10 -7.12663e-11 -1.00381e-08)
(-4.47335e-09 -5.45775e-09 -1.7612e-08)
(-4.45848e-09 4.36684e-09 -1.632e-08)
(2.19501e-09 -2.04838e-09 -8.48712e-09)
(1.10803e-10 -4.43787e-10 -9.77331e-09)
(2.39939e-10 -9.1617e-10 -1.10315e-08)
(-4.80095e-11 1.17503e-10 -3.23297e-09)
(-1.18042e-11 1.18132e-10 -3.22975e-09)
(3.01466e-11 1.16305e-10 -3.16467e-09)
(1.08707e-10 8.04588e-11 -2.59845e-09)
(2.44046e-10 1.76403e-10 -3.46206e-09)
(-4.38783e-10 -2.33463e-10 -1.18602e-08)
(-4.13551e-10 -2.07301e-10 -1.03914e-08)
(2.98458e-10 3.04706e-10 -5.54164e-09)
(-2.70093e-10 -8.99923e-10 -1.09337e-08)
(-1.18462e-09 -3.88732e-09 -3.98197e-08)
(-1.85377e-09 -1.5393e-09 -3.86613e-08)
(-1.6838e-09 -1.14661e-09 -4.16334e-08)
(-5.31824e-09 -3.94621e-09 -1.31476e-07)
(-6.05083e-09 -5.59569e-09 -1.26198e-07)
(1.07413e-09 1.3178e-09 -7.41465e-08)
(4.73505e-10 5.96255e-10 -2.15316e-08)
(2.72095e-10 9.74082e-10 -2.05478e-08)
(-5.57793e-09 3.96493e-09 -1.67708e-08)
(5.90552e-09 3.47959e-09 -1.68642e-08)
(-1.18612e-08 -5.50419e-09 -3.23634e-08)
(1.16272e-08 -4.71088e-09 -3.22772e-08)
(-3.41902e-10 1.24485e-09 -1.89468e-08)
(-6.22098e-09 3.18262e-09 -1.69363e-08)
(-6.10687e-11 -4.74077e-10 -9.98094e-09)
(-3.03256e-11 -8.07339e-10 -1.09811e-08)
(-4.29247e-11 -3.74446e-09 -3.97555e-08)
(-9.14526e-12 -1.25706e-08 -1.29169e-07)
(-3.60501e-09 -1.27361e-08 -1.29179e-07)
(-9.47069e-09 -3.55592e-08 -3.68649e-07)
(-1.69255e-08 -1.63806e-08 -3.62585e-07)
(-1.47427e-08 -1.13596e-08 -3.68656e-07)
(-3.54057e-08 -2.78004e-08 -9.1241e-07)
(-4.1784e-08 -4.23747e-08 -9.16575e-07)
(3.01742e-09 3.41953e-09 -6.00024e-07)
(2.14145e-09 2.48814e-09 -2.24689e-07)
(2.23473e-09 5.70375e-09 -2.16895e-07)
(-6.3901e-08 4.12119e-08 -1.85688e-07)
(6.75108e-08 3.73308e-08 -1.85295e-07)
(-1.16223e-07 -6.07597e-08 -3.16245e-07)
(1.15261e-07 -5.20443e-08 -3.14673e-07)
(-2.69414e-09 1.00389e-08 -1.97642e-07)
(-7.02904e-08 3.27776e-08 -1.86209e-07)
(3.89266e-08 -1.67471e-08 -1.07128e-07)
(-1.01382e-09 3.75935e-09 -6.49592e-08)
(-2.23019e-08 1.07558e-08 -5.94047e-08)
(-1.63937e-10 -1.70193e-09 -3.61781e-08)
(2.13111e-08 1.20989e-08 -5.91283e-08)
(-3.94523e-08 -1.96323e-08 -1.07579e-07)
(9.24504e-11 3.97954e-09 -6.48404e-08)
(-2.01952e-08 1.34366e-08 -5.91418e-08)
(1.0858e-08 -6.26557e-09 -3.24581e-08)
(3.767e-11 1.32034e-09 -1.88829e-08)
(-2.84069e-11 2.50744e-10 -2.21705e-08)
(-5.07818e-10 -5.17822e-10 -2.15723e-08)
(-5.03619e-09 -3.92801e-09 -1.87141e-08)
(1.9579e-10 1.1457e-10 -8.16278e-09)
(2.47863e-09 2.25334e-09 -9.75573e-09)
(1.0511e-10 -1.23631e-10 -4.2933e-09)
(-1.52859e-09 -9.87512e-10 -4.57973e-09)
(-4.08917e-10 -1.95345e-10 -1.84385e-09)
(5.5966e-10 -1.23925e-10 -4.48731e-09)
(-1.56576e-10 -1.04957e-10 -5.7007e-09)
(-1.41952e-11 1.13387e-10 -5.84573e-09)
(-8.43269e-12 4.45772e-10 -5.09667e-09)
(8.09138e-11 4.46801e-10 -5.43666e-09)
(-1.64588e-10 4.26265e-10 -5.46217e-09)
(-1.75938e-11 -1.29672e-10 -3.42711e-09)
(-3.41636e-10 2.82352e-10 -5.73877e-09)
(-8.46777e-11 8.29437e-11 -2.67499e-09)
(9.23149e-11 4.09979e-11 -3.2832e-09)
(1.08364e-09 -2.59643e-10 -1.16128e-08)
(2.22482e-10 -2.78911e-10 -1.03852e-08)
(-6.16711e-10 5.37574e-10 -2.20424e-08)
(-5.147e-10 9.02303e-10 -2.05932e-08)
(1.24007e-09 -3.94548e-09 -3.99939e-08)
(4.07222e-09 -1.29545e-08 -1.29633e-07)
(1.13261e-08 -3.63298e-08 -3.70314e-07)
(1.86493e-10 -3.56899e-08 -3.69545e-07)
(7.19399e-10 -8.95397e-08 -9.29482e-07)
(-2.20711e-08 -8.74733e-08 -9.24985e-07)
(-4.81108e-08 -1.95888e-07 -2.03879e-06)
(-9.53853e-08 -1.04252e-07 -2.0368e-06)
(-7.39554e-08 -5.92902e-08 -1.98434e-06)
(-1.5947e-07 -1.3853e-07 -3.76317e-06)
(-2.45539e-07 -2.79151e-07 -3.99648e-06)
(-2.46188e-08 -1.58555e-08 -2.9039e-06)
(-1.46937e-10 7.68991e-10 -1.40992e-06)
(9.97288e-09 1.85284e-08 -1.37971e-06)
(-4.363e-07 2.73536e-07 -1.25304e-06)
(4.63431e-07 2.44678e-07 -1.24681e-06)
(-6.86972e-07 -3.86931e-07 -1.85847e-06)
(6.83932e-07 -3.38292e-07 -1.84408e-06)
(-1.50489e-08 4.83735e-08 -1.25053e-06)
(-4.80088e-07 2.14731e-07 -1.25557e-06)
(3.00486e-07 -1.41709e-07 -8.14018e-07)
(-6.54013e-09 2.35105e-08 -5.30641e-07)
(-1.95618e-07 8.91295e-08 -5.15501e-07)
(-8.631e-10 -1.358e-08 -3.3697e-07)
(1.88538e-07 1.01925e-07 -5.12703e-07)
(-3.02016e-07 -1.64213e-07 -8.18799e-07)
(5.67764e-10 2.4991e-08 -5.29981e-07)
(-1.78069e-07 1.1281e-07 -5.14357e-07)
(1.07026e-07 -6.66753e-08 -3.16138e-07)
(2.40349e-10 1.06441e-08 -1.97401e-07)
(1.99104e-11 1.99507e-09 -2.24604e-07)
(-4.33736e-11 7.47066e-10 -7.48685e-08)
(-1.51592e-09 -1.64975e-09 -7.25131e-08)
(-1.72892e-08 -1.42305e-08 -6.56602e-08)
(1.87007e-10 2.81343e-10 -2.9831e-08)
(9.29626e-09 8.19404e-09 -3.53896e-08)
(1.53535e-10 -3.90233e-11 -1.59916e-08)
(8.43497e-10 -1.85416e-10 -1.64361e-08)
(-1.08499e-08 -7.92759e-09 -3.50194e-08)
(1.85523e-08 1.64435e-08 -6.46566e-08)
(-3.5301e-08 -2.66139e-08 -1.14598e-07)
(-3.53021e-08 2.66148e-08 -1.14598e-07)
(3.22814e-10 4.14134e-10 -9.64884e-08)
(5.8448e-08 -5.06834e-08 -1.99553e-07)
(2.48811e-09 1.50728e-09 -1.69241e-07)
(-1.03533e-07 7.92805e-08 -3.34717e-07)
(5.64031e-10 2.69357e-10 -2.7459e-07)
(1.62417e-07 -1.38773e-07 -5.47489e-07)
(3.25764e-09 3.73197e-09 -4.53053e-07)
(-2.67374e-07 2.0782e-07 -8.63705e-07)
(1.06755e-09 -2.32627e-09 -6.89089e-07)
(3.97578e-07 -3.33651e-07 -1.32207e-06)
(-1.89787e-09 6.91136e-09 -1.06435e-06)
(-5.9573e-07 4.76589e-07 -1.95597e-06)
(5.63026e-09 -1.95606e-08 -1.51544e-06)
(8.59311e-07 -6.96818e-07 -2.787e-06)
(-4.34602e-08 4.46539e-09 -2.18144e-06)
(-1.11065e-06 9.52021e-07 -3.87791e-06)
(4.03935e-08 -1.15742e-07 -2.90514e-06)
(1.68211e-06 -1.22375e-06 -5.01649e-06)
(-2.81519e-07 -1.07332e-07 -3.9247e-06)
(-1.53552e-06 1.56949e-06 -6.80946e-06)
(-2.11514e-07 -2.70022e-11 -5.79701e-06)
(-1.53548e-06 -1.56949e-06 -6.80944e-06)
(4.21128e-07 8.40219e-07 -4.83314e-06)
(2.48272e-06 1.68976e-06 -6.67186e-06)
(-8.24296e-08 2.47892e-07 -4.05589e-06)
(-1.38016e-06 -1.30868e-06 -5.45436e-06)
(-4.91871e-08 -1.36401e-08 -2.92609e-06)
(1.14972e-06 9.09031e-07 -4.00266e-06)
(-1.85778e-08 6.95416e-08 -2.1659e-06)
(-7.758e-07 -6.90275e-07 -2.90011e-06)
(-2.03038e-08 -5.94778e-10 -1.53083e-06)
(5.50548e-07 4.59908e-07 -2.02528e-06)
(-7.20829e-09 2.03667e-08 -1.05152e-06)
(-3.67387e-07 -3.18347e-07 -1.36692e-06)
(-6.61999e-09 7.90831e-10 -6.94903e-07)
(2.38642e-07 2.02844e-07 -8.90454e-07)
(-1.63912e-09 6.06722e-09 -4.46038e-07)
(-1.50803e-07 -1.28702e-07 -5.63903e-07)
(-1.71964e-09 8.34814e-10 -2.7614e-07)
(9.14637e-08 7.84566e-08 -3.43548e-07)
(-5.94507e-11 1.77061e-09 -1.66191e-07)
(-5.42114e-08 -4.56258e-08 -2.04565e-07)
(-1.72117e-10 5.5089e-10 -9.65444e-08)
(3.09686e-08 2.68323e-08 -1.16959e-07)
(2.07639e-10 3.77867e-10 -5.46775e-08)
(1.45703e-09 -5.25549e-10 -5.58549e-08)
(-2.51363e-09 -2.7641e-09 -7.8035e-08)
(-9.06509e-10 -8.39301e-10 -2.40611e-08)
(-3.04251e-10 -1.79592e-10 -7.0683e-09)
(2.25751e-10 1.25397e-10 -2.5725e-09)
(-1.63448e-11 -1.15161e-13 -2.08451e-09)
(-5.00724e-10 -1.47544e-14 -4.09188e-09)
(-1.75423e-09 -1.09529e-12 -1.29394e-08)
(-5.24922e-09 2.11731e-14 -4.25932e-08)
(-1.45182e-08 2.05634e-12 -1.31147e-07)
(-3.58244e-08 9.21031e-12 -3.63661e-07)
(-7.4086e-08 3.00923e-11 -8.92304e-07)
(-1.13993e-07 1.66433e-10 -1.9175e-06)
(-9.0574e-08 3.88315e-11 -3.57167e-06)
(2.92479e-08 -2.43487e-11 -5.53882e-06)
(-1.81138e-07 -1.03079e-10 -7.1281e-06)
(-1.24102e-06 5.78642e-07 -6.82543e-06)
(-1.24102e-06 -5.78719e-07 -6.82541e-06)
(-1.26755e-06 -7.9814e-07 -6.05016e-06)
(-1.06242e-06 -8.13175e-07 -7.40867e-06)
(-3.13661e-07 -1.7392e-07 -5.17974e-06)
(-1.39202e-07 -4.33414e-07 -3.957e-06)
(-5.86587e-07 -1.37934e-06 -7.01624e-06)
(8.50636e-07 3.58338e-06 -5.04213e-06)
(1.21937e-06 -1.98537e-07 -5.47088e-06)
(3.64271e-08 9.49784e-08 -4.68163e-06)
(1.95751e-08 3.74436e-09 -4.77586e-06)
(5.77486e-08 -4.52294e-08 -4.66285e-06)
(-2.81472e-07 1.07332e-07 -3.92466e-06)
(1.68201e-06 1.22382e-06 -5.01642e-06)
(4.04298e-08 1.1567e-07 -2.90509e-06)
(-1.11064e-06 -9.51984e-07 -3.8779e-06)
(-1.22914e-07 -1.07798e-11 -3.39599e-06)
(-8.30286e-08 -1.04213e-11 -3.54555e-06)
(-5.89488e-08 -1.09074e-11 -1.85583e-06)
(5.67128e-09 1.95501e-08 -1.5154e-06)
(-5.95715e-07 -4.76581e-07 -1.95597e-06)
(8.59268e-07 6.96816e-07 -2.78691e-06)
(-4.34664e-08 -4.46922e-09 -2.18146e-06)
(-1.31729e-08 -3.23598e-08 -2.70506e-06)
(-1.49375e-08 -2.04064e-08 -1.33065e-06)
(-1.90873e-09 -6.92331e-09 -1.06434e-06)
(3.97517e-07 3.33655e-07 -1.32203e-06)
(1.08136e-09 2.31668e-09 -6.89078e-07)
(-2.67352e-07 -2.07822e-07 -8.63718e-07)
(-1.46677e-08 2.75712e-12 -8.04903e-07)
(-3.30657e-08 5.26661e-13 -8.5433e-07)
(-1.54275e-08 -1.3026e-12 -3.45241e-07)
(-6.05471e-09 -1.08292e-12 -1.23074e-07)
(3.25343e-10 -4.17931e-10 -9.64857e-08)
(5.8445e-08 5.06831e-08 -1.99543e-07)
(-1.03531e-07 -7.92786e-08 -3.34722e-07)
(1.62408e-07 1.38779e-07 -5.4747e-07)
(3.25958e-09 -3.72838e-09 -4.53037e-07)
(-8.76887e-09 -1.05246e-08 -5.72821e-07)
(-3.97832e-09 -4.51925e-09 -2.16762e-07)
(3.41773e-10 -9.23095e-13 -1.27553e-07)
(9.30566e-11 -3.12256e-13 -4.01653e-08)
(2.70498e-11 -2.12237e-14 -1.14085e-08)
(-5.5127e-10 -7.72392e-14 -1.11583e-08)
(5.09956e-12 -2.8759e-10 -8.53776e-09)
(5.19739e-09 4.82458e-09 -1.89982e-08)
(2.19218e-10 -1.01323e-13 -1.03288e-08)
(5.19773e-09 -4.8249e-09 -1.89985e-08)
(8.4277e-10 1.85352e-10 -1.64364e-08)
(-1.08497e-08 7.92782e-09 -3.50198e-08)
(1.26177e-10 3.31963e-10 -3.01711e-08)
(1.8555e-08 -1.64447e-08 -6.46603e-08)
(1.45774e-09 5.24994e-10 -5.58562e-08)
(-1.51581e-09 1.64885e-09 -7.25139e-08)
(-2.00307e-09 3.6333e-14 -3.90018e-08)
(1.26463e-10 -3.33285e-10 -3.01696e-08)
(-7.43898e-11 -8.43411e-14 -3.56614e-08)
(-5.07704e-10 5.17566e-10 -2.15724e-08)
(-1.56514e-10 1.04884e-10 -5.70082e-09)
(-1.52873e-09 9.87589e-10 -4.57996e-09)
(1.05194e-10 1.23524e-10 -4.29354e-09)
(2.47855e-09 -2.25342e-09 -9.75625e-09)
(5.59522e-10 1.23849e-10 -4.48759e-09)
(1.23866e-09 -1.30779e-09 -5.44869e-09)
(-1.25139e-10 3.06873e-10 -2.26695e-09)
(-1.0583e-09 5.67562e-10 -2.29636e-09)
(1.84242e-10 3.2994e-14 -3.10132e-09)
(2.82117e-10 -3.2695e-10 -1.51536e-09)
(3.95775e-10 1.13435e-10 -1.1792e-09)
(2.04682e-10 -4.30775e-10 -1.4935e-09)
(5.28609e-10 -1.13638e-10 -1.61599e-09)
(2.86714e-10 -2.01125e-10 -2.52497e-09)
(1.27305e-10 -1.23217e-11 -1.64016e-09)
(-1.16399e-10 -7.41445e-11 -1.33793e-09)
(8.82057e-11 -5.22379e-11 -1.55341e-09)
(-2.63322e-11 2.56e-11 -1.23714e-09)
(-2.9071e-11 7.91364e-11 -1.24882e-09)
(1.35651e-10 -1.27164e-10 -1.37196e-09)
(-2.94838e-11 3.84385e-11 -1.14707e-09)
(1.94675e-11 -1.32578e-10 -1.44931e-09)
(-3.60364e-12 8.0078e-11 -1.27471e-09)
(-4.42857e-12 3.78071e-14 -1.29946e-09)
(-3.57523e-12 -8.01199e-11 -1.27478e-09)
(-3.42056e-12 -4.23826e-11 -1.15886e-09)
(-1.43292e-12 2.47822e-10 -1.83252e-09)
(1.94814e-11 1.32548e-10 -1.44933e-09)
(-3.79756e-12 2.6817e-11 -1.58836e-09)
(8.82227e-11 5.2295e-11 -1.55349e-09)
(-5.00218e-11 -4.52364e-11 -1.37611e-09)
(-1.16491e-10 7.42864e-11 -1.33803e-09)
(1.27226e-10 1.23286e-11 -1.64008e-09)
(-9.54529e-12 2.71616e-11 -1.61104e-09)
(3.17321e-11 -7.64177e-11 -1.27668e-09)
(2.79768e-11 -3.74807e-11 -1.18268e-09)
(-2.87064e-11 1.3369e-10 -1.47391e-09)
(-1.44952e-10 1.27806e-10 -1.42786e-09)
(2.93821e-11 -1.86583e-11 -1.29724e-09)
(-9.55873e-11 4.06421e-11 -1.54264e-09)
(1.48793e-10 2.43345e-10 -1.41618e-09)
(4.76657e-10 -2.52775e-10 -1.78721e-09)
(-4.00403e-10 3.89182e-10 -1.86125e-09)
(4.82266e-11 5.1594e-11 -3.13878e-09)
(2.87704e-11 2.59187e-14 -1.29087e-09)
(1.35472e-11 8.92753e-14 -1.89938e-09)
(3.53914e-11 2.30395e-14 -3.63828e-09)
(-2.70673e-11 -9.76476e-15 -3.69801e-09)
(-1.31859e-11 6.31618e-14 -1.92247e-09)
(-8.25631e-11 -5.95897e-14 -1.14879e-08)
(-2.37339e-10 1.34857e-14 -4.03184e-08)
(-6.1745e-10 -4.81164e-14 -1.27875e-07)
(-1.48929e-09 -9.62274e-13 -3.59821e-07)
(1.12225e-09 -4.23372e-13 -3.59317e-07)
(3.4047e-09 3.44454e-12 -8.91893e-07)
(9.92909e-09 4.67983e-12 -1.94115e-06)
(2.50311e-08 -8.39556e-12 -3.7065e-06)
(-1.11904e-07 -1.55133e-11 -7.11668e-06)
(-4.31162e-07 1.24273e-12 -6.64731e-06)
(1.53155e-06 -5.63899e-11 -1.10062e-05)
(-2.50787e-07 -1.03651e-06 -6.37346e-06)