/*--------------------------------*- C++ -*----------------------------------*\
| =========                 |                                                 |
| \\      /  F ield         | OpenFOAM: The Open Source CFD Toolbox           |
|  \\    /   O peration     | Version:  2306                                  |
|   \\  /    A nd           | Website:  www.openfoam.com                      |
|    \\/     M anipulation  |                                                 |
\*---------------------------------------------------------------------------*/
FoamFile
{
    version     2.0;
    format      ascii;
    arch        "LSB;label=32;scalar=64";
    class       volScalarField;
    location    "0.6";
    object      gradTy;
}
// * * * * * * * * * * * * * * * * * * * * * * * * * * * * * * * * * * * * * //

dimensions      [0 -1 0 1 0 0 0];

internalField   nonuniform List<scalar> 
2658
(
0.00795275
0.00472157
0.00139041
-1.26909e-05
-0.0118915
0.0143982
-0.0103655
0.00875371
0.000132328
-0.0102932
0.00287278
-0.0300572
0.0197177
0.0199906
0.0164814
0.0167808
0.0181571
0.0165606
0.0168558
0.0197528
0.0191602
0.0170357
0.00580252
-0.00325272
0.00568748
0.0181186
-0.00374484
0.00119897
0.0147696
-7.79402e-07
-0.0147699
0.00374493
-0.0181197
-0.00580271
-0.0056874
0.00325303
-0.000193734
0.00158496
-0.0170408
-0.0191613
-0.0197543
-0.0168563
-0.0165593
0.0078133
-0.000300322
0.000217825
-0.00287295
0.00815037
-0.0167838
-0.0164816
-0.0199893
-0.019718
-0.0178569
0.00351368
-0.00670061
-0.00578961
0.00046475
-0.00814704
-1.02409e-07
8.34607e-05
-0.000464431
0.00578955
0.00670105
-0.00351413
0.00278828
-0.00862227
-0.0108658
-0.000626956
-0.0159651
0.0159651
1.22203e-07
0.011318
-0.000216037
0.007695
5.26063e-05
-0.00591044
-0.00580174
0.000398893
0.00448569
0.00289187
-0.0039145
-0.000756223
0.00598941
0.00912319
-8.00089e-05
-3.7329e-05
3.25231e-05
2.8912e-05
1.45609e-05
5.89122e-06
2.12129e-06
-7.76239e-07
2.42101e-07
2.17089e-06
-6.93757e-07
-3.85546e-06
-1.589e-07
-2.11824e-06
-2.19597e-07
-6.19002e-07
-2.22748e-06
-4.63539e-07
-3.31752e-06
-9.77498e-07
-9.82285e-07
2.18536e-06
-7.8809e-07
-5.3078e-07
3.86324e-07
-2.13012e-06
6.69188e-07
-8.80186e-07
-1.36491e-11
8.80427e-07
-6.69555e-07
2.13022e-06
9.82004e-07
-2.1865e-06
3.31675e-06
9.76932e-07
4.61707e-07
2.22738e-06
6.18904e-07
2.19105e-07
-1.77965e-06
-1.68441e-06
-2.17177e-06
3.85602e-06
1.59776e-07
6.94135e-07
2.24364e-06
3.99514e-07
1.02295e-06
1.18322e-06
2.09507e-06
-1.07706e-06
3.20455e-07
4.69794e-07
-3.05403e-06
3.05567e-06
-3.19882e-07
1.07739e-06
-5.44624e-07
-5.38005e-07
-5.02604e-09
5.36949e-07
1.5562e-09
2.06055e-09
-1.1708e-06
1.15304e-06
4.29422e-09
1.07291e-07
7.51941e-07
-8.83308e-07
3.19932e-06
6.77958e-07
3.08249e-06
3.75183e-06
4.06449e-06
3.02943e-06
3.06066e-06
3.7639e-06
3.10429e-06
2.98605e-06
4.07084e-06
3.75852e-06
3.1408e-06
9.70771e-07
6.29912e-07
2.80073e-06
-1.48647e-05
3.34597e-05
-5.86918e-05
0.000115748
-0.000204752
0.000358153
-0.000624248
0.00098286
-0.00166677
0.00237393
-0.00390369
0.00502537
-0.00807396
0.00924439
0.00919667
0.00775019
0.00737564
0.0102936
0.0118912
1.258e-05
-0.0143985
0.0108658
0.00862169
-0.00278826
0.0300569
-0.00395866
7.98148e-05
3.72037e-05
-3.25434e-05
-2.89361e-05
-1.45785e-05
-5.88961e-06
-2.12172e-06
7.76222e-07
-2.42202e-07
-1.00197e-07
-1.15727e-06
9.62354e-07
-1.36986e-06
1.36972e-06
1.15799e-06
9.95461e-08
-9.63198e-07
-3.12927e-07
1.68408e-06
1.77913e-06
-3.88445e-06
2.00496e-06
3.60473e-07
1.11894e-07
-3.81707e-07
2.0595e-07
2.04506e-07
4.38964e-07
-4.43782e-11
-4.39582e-07
-3.618e-07
7.87785e-07
-1.79244e-06
5.31788e-07
-1.8023e-06
1.80394e-06
1.79328e-06
5.43045e-10
-1.18845e-06
-1.42987e-06
1.4312e-06
-9.45008e-07
1.1901e-06
-2.28905e-07
4.07029e-10
-6.76659e-07
-3.28687e-07
1.08605e-06
-2.19079e-07
3.16043e-10
2.30895e-10
-1.29992e-10
-2.6223e-06
1.71868e-06
3.68243e-06
-9.68456e-07
2.79466e-06
-4.85085e-06
1.11774e-05
-1.80239e-05
1.80221e-05
2.45546e-06
3.3578e-05
3.33607e-07
-7.0039e-05
0.000121646
-3.22548e-06
-0.000229331
0.000389999
-1.51815e-05
-0.000670551
0.00110007
-5.20517e-05
-0.00173352
0.00272124
-0.00017436
-0.00393041
0.0059001
-0.000594809
-0.00776981
0.0111859
-0.00211975
-0.0144418
-0.00718262
-0.0165937
0.0165939
-0.00119843
-0.00510227
0.00885842
0.00789409
-2.22415e-07
-0.00544943
0.00544926
0.00579727
-1.55961e-07
-0.00691596
0.00691581
0.00288999
-1.15657e-07
-0.0186121
0.0186119
-0.0123325
1.87603e-07
0.0123324
-0.00966584
0.00612485
0.0141218
0.0101185
0.0118171
-0.0186329
0.0126761
0.0015659
0.00106856
4.61985e-05
-0.00289025
-0.00105649
-0.00321362
-0.0106636
0.00641911
0.0173909
0.00760642
0.00809123
-0.00439621
9.26197e-08
0.0043964
0.00321365
-0.0126763
0.0186329
-0.0141228
-0.00612539
0.00966591
-0.00156612
-0.00106864
-0.00808997
-0.00760705
-0.0173906
-0.00641931
0.0106634
-0.0096787
-0.00454398
-0.016051
-0.00410412
0.00999714
0.00244814
-0.0021087
0.0108249
-0.0023829
-0.00300355
-0.000371648
-0.000278453
-0.000189366
-9.65188e-05
-4.03158e-05
-1.45709e-05
-4.789e-06
-3.56631e-06
-1.34467e-05
-1.14009e-05
-1.00122e-05
-1.66349e-05
3.8662e-05
-6.658e-05
0.000134252
-0.000231969
0.000415629
-0.000709023
0.00113982
-0.00190457
0.00274969
-0.00448568
0.00580202
-0.00912335
-0.000132748
-0.00875339
0.0103663
-0.0113183
0.00864844
-6.10403e-08
-0.00864844
0.00581356
-0.00528604
0.00427087
-0.0027274
0.00358571
6.64959e-05
0.00182027
0.000244165
-0.00274948
-0.000413444
-0.00183528
-0.00209109
0.000254107
0.00140365
0.00153505
-0.00233796
-0.000439716
0.00330731
0.000395605
-0.00437648
0.00666321
6.38755e-05
-0.00737559
-0.000736261
-0.000217778
-0.00815046
0.00967856
-0.0108252
0.00210837
0.00060208
-0.000265335
-7.91016e-08
-0.000160999
-0.000155203
-0.000126779
-6.96261e-05
-3.01922e-05
-1.1157e-05
-3.6446e-06
-2.04974e-07
-2.06096e-07
3.80855e-07
9.44652e-07
-1.12194e-07
-2.006e-06
3.88408e-06
-1.01121e-06
4.33541e-06
3.08493e-06
2.90186e-06
4.7349e-06
3.81179e-06
-1.01527e-06
-8.93603e-06
2.51681e-05
-6.09114e-07
-4.66475e-05
3.73234e-05
-1.75075e-05
-3.79305e-06
-7.83051e-06
1.0043e-06
1.00968e-06
9.94059e-07
6.87682e-07
1.50772e-06
-1.99541e-06
-1.77181e-06
2.60432e-06
-7.69165e-06
-3.3225e-05
-1.31564e-05
-9.80005e-06
-3.37283e-05
-4.78264e-05
1.12633e-05
5.0962e-06
8.32549e-06
3.38883e-05
2.97401e-05
-4.70444e-05
-4.02639e-05
1.06397e-05
2.72019e-05
-4.05194e-06
-6.90033e-06
-3.2004e-05
-0.000107441
-0.000108855
-0.000303924
-0.000140005
-9.70902e-05
-0.000237611
-0.000362177
2.92267e-05
2.12662e-05
4.875e-05
0.000352238
0.000319066
-0.000519314
-0.000444823
8.58029e-05
0.000280151
-0.000143138
3.21312e-05
9.19301e-05
-1.45464e-05
0.000103409
-0.000167798
3.40131e-05
0.000114843
-5.35518e-05
1.1285e-05
2.14311e-06
-4.42583e-06
-3.35728e-05
9.7923e-07
1.92593e-05
-1.05667e-06
-8.44027e-06
-1.66962e-06
-1.05919e-06
-8.9707e-07
9.6912e-07
3.81002e-06
3.81881e-06
3.64329e-06
-1.10831e-06
2.41326e-06
7.08921e-07
3.50409e-07
-2.21917e-06
-2.38386e-06
4.59465e-06
7.71199e-06
-3.3722e-05
-0.000110722
-0.000310512
-0.000305042
-0.000765296
-0.000747635
-0.00167426
-0.000891047
-0.000506754
-0.00118402
-0.0023859
-0.000135517
6.57257e-06
0.000158362
0.00233791
0.00209127
-0.0033071
-0.00289138
0.000413449
0.00183531
-0.00121119
0.000200945
0.000761791
-0.000116068
0.000871158
-0.00140353
0.000213598
0.00096419
-0.000569874
9.09756e-05
1.70519e-05
6.38518e-06
-1.41004e-05
-0.000121628
2.40464e-06
7.00345e-05
-3.33532e-07
-1.58475e-06
-6.77571e-05
0.000140542
-0.000227469
0.000227477
3.53961e-06
-0.000433192
1.28827e-05
0.000677611
2.3022e-06
-0.00118609
3.18972e-05
0.00177624
-1.98827e-05
-0.00285171
5.90715e-05
0.00407341
-0.000167184
-0.00595571
3.81658e-05
0.00813693
-0.000989244
-0.0104594
-0.000917365
0.0134145
-2.30788e-07
-0.0134144
0.00718136
0.0144424
0.00211873
-0.0111853
-0.000116582
0.00776949
0.000594372
-0.00589978
-5.08357e-06
0.00393083
0.000174074
-0.00272092
6.75924e-06
0.00173371
5.18566e-05
-0.00110002
7.13516e-06
0.000670569
1.51334e-05
-0.000389964
4.70846e-06
0.000229336
3.22964e-06
-4.49187e-06
-2.36248e-05
-7.17352e-06
-1.53498e-06
1.07177e-06
-9.84284e-10
-1.26106e-10
-9.36149e-09
1.80967e-10
1.75756e-08
7.87206e-08
2.57199e-07
1.4225e-06
3.31893e-07
-2.08108e-07
-8.8102e-07
0.00494566
-0.00494632
-0.00682171
-0.00695021
-0.0014865
-0.00370439
-0.0117892
0.0306272
-0.0016969
0.000811781
3.20031e-05
-0.000386576
0.000917371
0.01046
0.000988631
-0.00813662
-9.21349e-08
-8.90708e-08
-9.3226e-08
0.000167095
-0.00407334
0.00595569
-3.81985e-05
-0.000276579
-0.000174414
-5.91736e-05
0.00285175
1.98007e-05
-0.00177626
2.35652e-08
4.50137e-09
-1.11333e-08
-9.25569e-09
-3.57206e-06
0.000433189
-0.000677595
0.00118615
-3.18665e-05
-8.99534e-05
-3.86261e-05
-7.8897e-09
-2.66886e-09
-1.814e-10
-6.60164e-10
-2.45804e-06
4.12357e-05
-8.66009e-10
-4.12384e-05
1.58421e-06
6.77592e-05
2.83729e-06
-0.000140553
4.48713e-06
1.40927e-05
3.10538e-10
-2.84859e-06
-7.20864e-10
4.42364e-06
8.96441e-07
8.44093e-06
1.05576e-06
-1.926e-05
1.05854e-06
-1.11777e-05
2.62285e-06
4.85095e-06
2.82e-10
-2.79444e-06
9.69531e-07
-3.68184e-06
-9.71263e-07
-1.71902e-06
-1.05314e-07
-6.33713e-07
-4.46477e-07
2.18803e-07
6.76379e-07
-1.08687e-06
3.28534e-07
-1.13315e-06
6.84428e-07
3.23137e-10
-6.84786e-07
-3.62245e-07
2.11814e-06
1.13289e-06
2.29205e-07
4.46966e-07
-3.86636e-07
6.34927e-07
1.05373e-07
2.3215e-07
-6.53143e-07
-3.20348e-07
1.14265e-06
1.09236e-06
-1.59473e-07
3.47368e-07
2.07987e-06
-2.16047e-06
3.32635e-06
4.40974e-07
2.21528e-10
7.63037e-10
1.96919e-10
-8.34595e-11
5.39844e-10
-5.09314e-10
1.15262e-10
-4.11251e-10
-8.22456e-09
-3.61856e-09
2.94405e-08
3.99986e-08
-7.1757e-08
-1.32592e-07
1.06216e-08
-4.81965e-07
-0.00885903
0.00510247
-0.00446793
0.00737454
-0.00737477
0.00446761
-0.0145524
0.00150263
-0.0058316
0.0128789
0.00328746
-0.000234931
0.0119188
-0.00968127
-0.0069156
-0.017271
-0.00592986
-0.00852587
-0.011075
-0.00679948
0.00082704
0.00615654
0.0019231
-1.70058e-06
2.57955e-07
-0.00192245
0.0145519
0.0058312
-0.00150302
0.00422788
-0.00328781
-0.0119194
0.000234557
0.00131104
-0.0024484
-0.00999732
0.00410339
0.0160503
0.00454394
0.00712127
-0.00600765
-0.00615809
7.70189e-07
-0.00200886
-0.0042281
0.000475267
-0.000304909
-0.00692513
0.00600742
0.00136467
-0.00712124
3.35619e-05
-4.64875e-05
0.00105622
-0.000602144
0.000265176
0.000736173
-0.00113683
-0.00392149
-0.00174921
0.000208667
0.00501313
0.00437713
-0.00666327
-0.00598878
0.000756307
0.00391446
-0.000395695
0.000151914
-0.00175655
-0.000772973
0.000131613
8.47962e-05
4.3544e-05
1.93373e-05
2.12789e-05
-0.000186169
-3.81363e-05
9.26823e-06
0.000130623
-4.50905e-06
-0.000166013
0.000304365
-1.44132e-05
-0.000523269
0.000405642
-0.000224887
-4.11193e-05
-0.000681544
-3.60666e-05
-0.00145949
0.00111811
-0.000109129
-0.00182012
-6.65245e-05
-0.00358565
0.00272719
-0.000244211
-0.00427072
-5.2299e-05
-0.00769532
0.00590995
-0.000399309
-0.000405448
-0.00386666
-0.0120027
-0.0120234
-0.0181619
-0.00110021
0.0277421
-0.00223472
-0.00252882
-0.00139027
-0.000551337
-0.000245156
-0.000100241
-3.63218e-05
-1.1068e-05
-1.35169e-05
1.02137e-05
5.17439e-06
0.000187287
5.03512e-09
-0.000187305
0.000333099
-6.751e-09
-0.000588464
0.000588435
-0.000333101
-6.60456e-09
-2.26658e-09
-1.57121e-10
1.07164e-06
3.6175e-06
1.55759e-07
9.18832e-06
2.33476e-09
-9.18988e-06
2.67299e-05
1.1993e-09
-5.28431e-05
5.28372e-05
-2.67268e-05
1.14232e-06
2.01409e-06
-1.37804e-06
1.37881e-06
-5.5505e-07
-2.54146e-07
-2.01519e-06
8.93712e-06
1.01673e-06
-3.81317e-06
1.75123e-05
6.08307e-07
-3.73308e-05
4.66492e-05
-2.51665e-05
-1.54926e-07
-1.07168e-06
-9.69499e-07
4.78885e-06
-9.76497e-07
1.48668e-05
3.56859e-06
-3.38864e-05
-1.12823e-05
4.70476e-05
1.45465e-05
-9.19267e-05
-3.21348e-05
0.0001432
0.000231966
4.11362e-05
-0.000405673
0.000523231
1.44337e-05
0.000224938
-0.000130643
0.000166018
4.50889e-06
6.5569e-05
1.37014e-05
-0.00013424
6.65829e-05
4.02789e-05
-2.72058e-05
-1.06381e-05
-3.86572e-05
3.79262e-06
1.66348e-05
1.00145e-05
4.05126e-06
-2.97386e-05
1.14017e-05
1.34495e-05
-4.33604e-06
-3.80888e-06
-3.08386e-06
9.03562e-06
-2.90196e-06
-3.61742e-06
-4.73402e-06
9.03062e-06
-3.02944e-06
-3.06075e-06
1.10976e-06
-3.6432e-06
-3.81899e-06
-2.60415e-06
-1.50797e-06
-1.07195e-06
1.53419e-06
7.17753e-06
1.99666e-06
9.81415e-06
2.36162e-05
6.6518e-05
3.37665e-05
9.71673e-05
0.000158336
-0.000158465
-6.65261e-05
-1.28878e-05
-0.000303286
0.000302982
0.000237691
0.000507018
0.000431424
-0.000432052
-0.000533806
0.000534283
0.00118554
0.00682266
0.00695103
0.0014894
-0.00924433
1.23362e-05
-0.00919655
-0.000811921
0.000300159
-0.0277424
0.00238273
0.00300328
0.000371327
0.000278298
0.000189226
9.6482e-05
4.02994e-05
1.45704e-05
-2.40029e-06
5.87033e-05
1.2874e-05
-0.00011484
-3.40206e-05
0.000167802
4.40478e-05
-0.000280141
-8.57355e-05
0.000444973
0.000709064
0.000109082
-0.00111823
0.00145945
3.61125e-05
0.000681654
-0.000894194
-1.47832e-05
0.000982165
-1.81236e-08
-0.0016376
0.00163754
-0.000982203
1.47562e-05
0.000894276
2.73996e-05
1.07305e-08
1.06484e-08
2.59979e-09
4.51898e-09
-1.14401e-06
-3.51488e-07
-3.20347e-06
8.90166e-07
3.89572e-07
-2.09627e-06
-1.18412e-06
-1.02382e-06
-3.32711e-06
-3.99035e-07
-2.24307e-06
-4.06258e-06
-3.75084e-06
-4.42883e-07
-3.08341e-06
-6.78229e-07
-7.08598e-07
-1.00271e-06
-1.00893e-06
-9.93128e-07
-4.07013e-06
-2.98607e-06
1.01105e-06
-3.10418e-06
-3.76572e-06
9.01291e-06
-2.80162e-06
1.66967e-06
-6.31492e-07
-3.7589e-06
-3.14265e-06
-6.84988e-07
7.69647e-06
1.76686e-06
-5.08769e-06
-3.34556e-05
-8.32314e-06
5.35679e-05
3.32305e-05
1.32548e-05
-1.12297e-05
-0.00011574
0.000204796
3.81586e-05
-0.000352219
-9.09635e-05
0.000569986
0.000519326
0.000116055
-0.000761875
-0.00020096
0.0012115
0.00190451
-0.00113971
-8.47595e-05
-9.69672e-05
-0.000964068
-0.000213498
-0.000871064
6.96001e-05
3.01776e-05
1.11516e-05
3.64396e-06
-2.14369e-06
-6.38616e-06
-1.70537e-05
3.861e-05
8.99121e-05
-4.07614e-05
4.07179e-05
8.60274e-05
0.000439591
-0.00363939
-0.000315936
0.000154016
0.000794722
-0.00759142
-1.27159e-05
0.000225526
0.000115954
5.43194e-05
2.25414e-05
8.32453e-06
2.74918e-06
1.54808e-06
9.21044e-05
-0.000100184
0.000100191
-9.20958e-05
-1.55325e-06
-2.74846e-06
-8.32792e-06
-5.17699e-06
-0.000304351
-1.0223e-05
-3.41606e-06
2.22748e-06
1.10833e-05
3.6343e-05
-2.7397e-05
-1.52394e-05
-9.2487e-06
-1.93355e-05
-2.12704e-05
0.000186203
0.000108912
4.8183e-05
-2.11451e-05
-0.000358125
0.000624353
9.86465e-05
-0.00098282
0.00166703
0.000211122
-0.00237373
0.00390385
0.000315738
-0.00501352
-0.000795059
0.00759181
0.00807436
0.000116524
-0.00502506
5.21448e-06
0.000135738
-5.87139e-06
-2.89117e-05
0.000140807
0.000304047
0.000747956
0.000364425
0.00167427
0.000896584
0.00370496
0.00238267
0.0117888
-0.0306272
0.000193354
-0.00158364
0.0110742
0.00592926
0.0172711
0.00691565
0.0096811
-0.0078132
0.00169721
0.00109984
-0.00774998
0.000160772
0.000155078
0.000126703
-4.2693e-08
-6.70831e-08
-0.0001541
0.000276489
0.00017433
-8.60498e-05
-0.000116061
-1.86765e-08
-1.46155e-08
-5.43396e-05
-2.25627e-05
-3.74541e-05
-0.00232132
0.00255526
-3.04829e-08
-0.00402137
0.00402127
-0.00255535
3.74352e-05
0.0023215
6.45663e-05
1.04804e-05
-0.00013718
1.5278e-05
-4.7188e-05
-6.41381e-05
-0.000361818
0.000132912
0.00528605
-0.00581344
8.91494e-05
-5.89431e-08
-4.64597e-08
-7.21806e-08
-1.12075e-07
-0.00579781
0.000922376
-3.21865e-05
0.000386289
-0.000475146
-0.00789511
0.00200883
0.000304285
0.00692471
0.00679864
-0.0128785
0.00852493
-0.000827292
-0.00136535
-3.50616e-07
0.0039585
0.00814693
-0.000291611
5.71598e-07
0.000248277
0.000216034
0.000291825
-0.00472185
-0.00795347
-0.00762801
5.58482e-08
-8.33496e-05
8.28325e-07
0.000626814
3.79261e-07
6.32584e-08
5.69214e-09
-6.45774e-05
0.000100334
0.000245223
-0.000132973
-8.93291e-05
6.4221e-05
-1.04107e-05
0.000310639
0.000110751
3.37448e-05
7.83323e-06
6.90446e-06
3.20145e-05
0.00010747
-4.87095e-05
-0.000319043
0.000305098
0.000765455
-0.000158172
0.00363995
-0.000207999
-0.000151702
-0.00013136
0.000773339
0.00175742
0.0017497
0.00392242
0.0120232
0.00113675
0.00386642
0.0120022
0.00223405
0.000405425
-0.000248585
0.000551116
0.000933168
0.00252916
0.00036251
-4.35462e-05
-0.000415548
-7.71205e-06
-4.59354e-06
-2.414e-06
2.38875e-06
1.35339e-05
4.73321e-05
0.000137268
-0.000225587
-0.000932018
-6.6979e-06
-7.12168e-06
-4.70018e-06
-0.000103402
3.41328e-06
-6.55522e-05
-1.37005e-05
3.19967e-07
6.52992e-07
-2.32229e-07
-3.47206e-07
-1.40636e-10
1.59719e-07
-1.09229e-06
-1.14281e-06
3.62522e-07
2.16086e-06
-2.08057e-06
-4.71066e-07
-7.51378e-07
5.53377e-07
2.54387e-07
5.46542e-07
-3.8756e-07
9.70619e-05
-0.0015346
-0.000211198
-6.39244e-05
-0.00131136
-0.000922648
-3.3411e-05
3.12354e-07
-1.2722e-10
-2.39537e-06
-5.81017e-10
4.48455e-09
2.10056e-08
-9.86544e-05
-0.000254015
-1.2871e-05
-4.40431e-05
-9.01273e-06
-9.03466e-06
-9.02945e-06
-0.0118164
-0.0101185
0.00191003
-1.50066e-07
-0.00190994
0.0178569
0.00762733
-7.1039e-07
-3.50214e-07
2.22211e-06
6.06579e-07
1.75039e-05
-2.51672e-05
4.66449e-05
-3.73252e-05
3.79243e-06
1.66307e-05
-4.7358e-06
9.02698e-06
-3.75208e-06
-4.06656e-06
-3.03099e-06
-3.06188e-06
-3.76569e-06
-3.10524e-06
-2.98718e-06
-4.07256e-06
-3.7596e-06
-3.14516e-06
-9.72538e-07
1.66904e-06
-1.72002e-06
-3.68288e-06
9.67616e-07
-1.04948e-07
-2.79446e-06
-9.20734e-12
2.79416e-06
-9.688e-07
3.68225e-06
9.72006e-07
1.71964e-06
-1.66932e-06
2.80127e-06
6.32211e-07
3.14769e-06
3.75999e-06
4.07158e-06
2.98714e-06
3.10564e-06
-1.00938e-06
3.08502e-06
2.90204e-06
4.73446e-06
-1.10811e-06
3.06288e-06
3.0306e-06
4.06573e-06
3.75237e-06
3.08683e-06
4.44857e-07
6.80247e-07
2.55348e-07
2.01624e-06
9.1912e-06
-1.45116e-09
1.3772e-06
-2.0148e-06
-2.55113e-07
-6.79884e-07
-4.43291e-07
-3.81401e-06
1.01388e-06
8.93392e-06
-1.55198e-07
2.67259e-05
-2.6729e-05
-3.60674e-09
-5.28377e-05
-1.55185e-06
-9.20924e-05
4.50639e-06
6.55506e-05
6.65676e-05
1.3699e-05
-0.000134244
-9.19335e-05
4.02654e-05
-1.06427e-05
-2.7204e-05
-3.86617e-05
2.12126e-06
5.89119e-06
1.45696e-05
2.89116e-05
3.2644e-05
-3.71225e-05
-7.97306e-05
0.00395872
-0.00321346
-0.0106636
0.00641924
0.00967862
0.00454394
0.0160503
0.00410359
0.00691582
0.0172716
0.00592973
0.0110745
0.00852533
0.00583107
-0.0128792
0.00422781
-0.000475506
-0.00150293
0.0145522
-0.00446717
0.00737456
-5.74874e-08
-0.00737517
0.00446753
-0.0145516
-0.00583085
0.0128794
-0.0110739
-0.0085249
-0.00592933
-0.0172713
-0.0069152
-0.00410345
0.00999772
0.0108249
0.0106636
-0.00967839
-0.00454378
-0.00641939
-0.0173908
-0.00760711
-0.0101186
-0.014123
-0.00612519
0.00966608
-0.0123326
-0.00156586
0.0186121
-0.018612
0.0123327
-0.00966609
0.00612464
0.014122
0.0101187
0.0118173
0.00760667
0.0173902
0.0199898
0.0197175
-0.00351421
0.0178568
0.00670092
0.00762727
0.0057894
8.36251e-05
1.10301e-06
-8.31689e-05
-1.13613e-07
0.0081472
-0.008147
0.00046463
-0.00578947
-0.00762733
-0.0067013
-0.017857
-0.0197181
-0.0199892
-0.0164812
-0.0167806
-0.0181569
-0.0165603
-0.0168555
-0.0197537
-0.0191597
-0.017037
-0.00580119
0.00158479
-0.000193299
0.00924461
-0.00807488
0.00502493
-0.0039038
0.00237401
-0.00166696
0.000982833
-0.000624345
0.000358168
-0.000204768
0.000115749
-5.87001e-05
3.34564e-05
-1.48662e-05
-1.34469e-05
-1.14003e-05
-1.00127e-05
-1.66328e-05
-1.75083e-05
-6.08741e-07
2.51685e-05
-8.93516e-06
-1.01538e-06
3.81447e-06
-9.02751e-06
7.76835e-07
-2.12026e-06
-5.88939e-06
-1.45579e-05
-2.8907e-05
-3.25134e-05
3.7136e-05
7.97412e-05
-0.00395869
0.00321342
0.00105644
0.00288998
-0.000602158
0.00691591
-0.0069158
-0.00288995
-0.00105632
0.000602274
0.00210856
-0.0108252
-0.00999726
0.00968095
-0.0119191
-0.00328763
0.000234731
0.00131118
-0.00244815
0.00238287
0.00300342
1.05376e-08
-0.00300319
0.00328776
-0.00422767
0.00789447
0.000475083
0.00885847
-0.00885898
-0.00789488
-2.00727e-07
0.00544945
0.00579737
-0.00579765
0.00092238
-0.00544947
0.000304325
3.01625e-07
0.00615677
0.000827215
-0.00679844
0.00192332
-4.07464e-07
-5.67358e-07
-1.26271e-08
0.00718216
-0.00568746
-0.0181187
0.00374474
-0.0147706
0.0165934
-0.013414
0.0104594
-0.0104597
-0.000988929
-0.00776933
-0.000594345
0.00589963
-0.00393078
-0.000173916
0.0027209
-0.00173372
-5.17701e-05
0.00109995
-0.000670597
-1.50969e-05
0.000389961
-0.000229341
-3.21842e-06
0.00012163
-7.00361e-05
3.35918e-07
3.35748e-05
-1.92615e-05
1.05522e-06
8.43911e-06
2.62119e-06
4.84898e-06
-4.85004e-06
1.04906e-07
6.34266e-07
-1.80219e-06
-1.79141e-06
8.61149e-10
1.18928e-06
-1.18844e-06
-1.43012e-06
7.41262e-10
1.37043e-06
-1.37015e-06
-1.15762e-06
3.79477e-10
3.05364e-06
-3.05491e-06
3.2068e-07
-6.6642e-10
-5.36905e-07
5.38459e-07
-3.89552e-07
2.09665e-06
1.18462e-06
1.02552e-06
4.01444e-07
2.24551e-06
6.9567e-07
-2.17054e-06
-2.41963e-07
2.08106e-06
-2.16022e-06
3.32916e-06
1.09257e-06
1.14354e-06
1.6131e-07
2.12092e-06
2.21319e-07
-1.7788e-06
-2.06138e-07
3.13249e-07
-1.68408e-06
3.85615e-06
-2.04317e-07
-4.38851e-07
-4.78893e-06
-1.45717e-05
-4.031e-05
-9.64981e-05
-0.000189284
-0.000278348
-0.000371322
-1.21223e-05
0.00919583
0.00775082
0.00737528
0.010294
-0.00912339
0.00580225
-0.00448581
0.00274977
-0.00190459
0.00113982
-0.000709122
0.000415593
-0.000231976
0.000134246
-6.65823e-05
3.86603e-05
-3.79279e-06
3.73282e-05
-4.66481e-05
5.28433e-05
-0.000100184
9.409e-10
0.000100177
-0.000187297
0.000166004
-0.000130642
0.0002249
-0.000304354
1.44086e-05
-0.000405688
4.11453e-05
0.000231936
-3.21293e-05
0.000143156
0.000167759
4.4051e-05
-0.000319054
-0.00035223
0.000186156
-3.40221e-05
-0.000103406
1.45464e-05
4.70347e-05
-2.97406e-05
4.05186e-06
1.00114e-05
-3.61833e-06
-2.90235e-06
1.10769e-06
-3.85726e-06
-6.95248e-07
-2.24512e-06
-4.00833e-07
-1.02515e-06
-1.18454e-06
-2.09669e-06
3.87832e-07
-5.47131e-07
-3.20416e-07
1.0764e-06
-4.71345e-07
-2.0805e-06
9.85761e-08
2.4287e-07
2.15986e-06
2.17064e-06
1.68341e-06
-3.13686e-07
-9.6405e-07
1.15817e-06
1.98624e-10
-3.18781e-11
1.24011e-09
6.04578e-09
1.46596e-08
2.90165e-08
5.95838e-08
4.21405e-08
3.74552e-08
-5.78442e-08
2.21067e-07
0.00439615
3.36764e-05
-0.00712093
0.00136535
-0.01605
-0.00692448
0.0119189
-0.000234698
-0.00131104
-0.00092253
3.21088e-05
0.000812013
-0.000300285
0.000218187
-0.00287298
-0.00278831
0.00862171
0.010866
-0.0143984
1.26073e-05
0.010366
-0.00875311
0.0118912
-0.000132694
-0.00386614
-0.0120031
-0.0120225
-0.0117875
-0.00695179
-0.00682177
-0.00118555
-0.00238408
-0.00148901
-0.00370529
-0.00167383
-0.000896287
-0.000506968
-0.000237798
-0.00036407
5.9646e-06
-0.000135815
0.000208402
-0.00759144
-0.00666344
0.00437691
0.00391411
0.000756403
-0.00598865
-6.46172e-05
-0.000160857
-0.00238274
0.00244843
-0.00210851
-4.63424e-05
0.00600779
-0.000304735
-0.00200898
0.00150317
-0.0051024
-0.00119877
-0.00494573
-5.94608e-09
2.42314e-07
3.73732e-07
3.23867e-07
-2.40774e-08
-4.26255e-08
-2.59088e-08
-2.56359e-08
-1.00355e-08
-3.39136e-10
-2.2951e-11
-1.0724e-06
1.07204e-06
1.50737e-06
-1.99986e-06
-9.8129e-06
-3.37693e-05
-9.71831e-05
-0.000140747
2.89295e-05
-0.000747599
-0.000303949
-0.000108875
-4.81153e-05
2.11638e-05
4.87648e-05
-0.00056996
-0.000519369
0.000319042
0.000280117
8.57652e-05
-0.00044489
0.000761723
0.000200941
-0.00121128
0.00183515
0.000413446
-0.00289133
-0.000395845
-0.00330742
0.00209128
0.000439657
-0.00363943
0.00501294
0.000794798
0.000154048
-0.000155091
-0.000126749
-0.000254146
-0.00140365
0.000871103
0.000213501
-0.00153477
0.002338
-0.000211249
0.000158446
-0.00174907
-0.00392169
-0.00109931
-0.00169655
0.00781375
-0.00968074
0.0306272
-0.00113694
0.0081506
-0.00223412
-0.00795288
-0.00472189
-0.00139054
-0.00252921
-0.000405065
0.000152103
-0.00175654
-0.000772911
-0.000765126
-0.000304923
-0.000107419
-3.20013e-05
-3.32175e-05
-1.32358e-05
1.12276e-05
2.12821e-05
-0.000186178
-0.0001678
0.000103412
9.19229e-05
3.2128e-05
-0.000143162
-4.40534e-05
-3.01848e-05
-6.95934e-05
-0.000116109
1.7054e-05
9.09634e-05
0.000352198
-3.81601e-05
-3.86124e-05
0.000670565
7.06115e-06
-0.00110012
5.19209e-05
0.00173369
6.75383e-06
-0.0027212
0.00017429
0.0039306
-5.14972e-06
-0.00589994
0.000594548
0.00776931
-0.000116742
-0.0111856
0.00211962
0.0144418
0.00325304
0.000917203
-0.000386431
0.000386424
-0.0144422
-0.00211904
0.0111854
-0.000917399
0.0134141
-0.00718204
-0.0165938
-1.0682e-07
0.0147697
-0.00374474
0.0181198
0.00580166
0.00568751
0.00119866
0.0051027
0.00200875
-0.00192345
-0.00615705
0.00679928
-0.000827234
0.00692468
-0.00600742
-3.65288e-07
3.75028e-08
-1.40885e-09
-2.9375e-09
1.90286e-08
3.17933e-08
0.000989388
-0.00813648
0.00595541
-0.00407343
0.00285186
-0.00285199
-1.98548e-05
0.0017763
3.19393e-05
-0.00118607
2.34908e-06
0.000677591
1.29194e-05
-0.000433199
3.56469e-06
0.000227476
4.49448e-06
-0.000140546
2.84672e-06
6.77564e-05
1.58464e-06
-4.12401e-05
2.45748e-06
1.80217e-05
1.05791e-06
-1.11794e-05
-8.52283e-10
1.11776e-05
-2.62121e-06
-8.43988e-06
-1.05626e-06
1.92597e-05
9.77365e-07
-3.35774e-05
-3.34367e-07
7.00364e-05
2.39982e-06
-0.000121644
3.22267e-06
0.00022933
4.69486e-06
-0.000390011
1.51333e-05
-1.29152e-05
0.000433182
-2.1405e-09
-0.000227497
0.000140548
-6.77613e-05
4.12387e-05
-2.00883e-09
-1.80235e-05
-1.05886e-06
-8.96623e-07
-4.42558e-06
-1.5864e-06
-7.17166e-06
-2.36313e-05
-6.65821e-05
-0.000158506
-0.000303166
-0.000431669
-0.000533601
0.000533663
0.00494561
0.00682198
0.00118538
0.000431057
0.00813638
3.81589e-05
-0.00595563
-0.000167217
0.00407314
5.92803e-05
0.000174388
1.08418e-07
0.000167557
2.87257e-08
-1.1317e-08
2.00126e-05
-0.00177636
0.00118606
-0.000677636
-2.34259e-06
-1.355e-08
-1.52563e-08
-3.50827e-09
-3.56438e-06
-1.76526e-09
-2.84105e-06
-3.16122e-09
-2.98227e-10
-2.456e-06
-4.20447e-10
2.18298e-10
1.80268e-06
-6.34231e-07
6.69542e-07
-8.81024e-07
8.80724e-07
-6.69502e-07
2.13036e-06
-3.8589e-07
9.82953e-07
-2.18499e-06
-3.617e-07
-1.11418e-07
-2.00569e-06
3.88642e-06
6.2048e-07
2.22859e-06
4.6447e-07
9.79689e-07
3.31838e-06
1.08733e-06
-3.28121e-07
-6.768e-07
-2.18973e-07
2.63259e-10
-4.10535e-10
2.18414e-07
-2.13139e-06
-9.8291e-07
3.85123e-07
-7.8928e-07
3.61067e-07
2.00499e-06
1.11095e-07
-3.8178e-07
2.0646e-07
1.77913e-06
-2.20962e-07
-2.11946e-06
-1.61262e-07
-1.14351e-06
6.8459e-07
6.76517e-07
2.03348e-10
4.46864e-07
7.88253e-07
5.31866e-07
2.29107e-07
1.1337e-06
-6.84633e-07
-3.62153e-07
2.62421e-10
-2.29068e-07
-4.47015e-07
1.79239e-06
-5.33428e-07
8.95662e-07
-6.4293e-10
7.4003e-10
2.19751e-09
1.45935e-08
-2.0537e-08
5.72784e-08
-0.000276412
-3.7963e-05
0.000276544
0.000371611
0.000116524
-0.0092447
1.2576e-05
0.0075915
-0.00079491
-0.00437733
0.000395504
0.00289129
-0.000413327
-0.00183545
-0.00274964
0.000244005
0.00182007
-0.00232133
6.64678e-05
-0.00272756
0.00427045
-0.00528593
5.26081e-05
-0.00591073
0.000399151
0.00448539
-0.00580175
-0.0039151
0.00598876
-0.000756078
0.00912297
0.000133202
0.00875333
-0.0103654
-1.2441e-05
-0.0118918
-0.0102936
-0.00737595
6.44029e-05
0.00666276
-0.00775041
-0.00919664
0.00169674
-0.000812021
0.000300136
-0.0277428
-0.000217846
-0.000736185
0.00287264
-0.0300572
0.00278846
-0.0108659
-0.00862213
0.00472144
4.67978e-07
0.000291679
0.000626867
0.0159648
2.06177e-08
0.0113178
-0.0113176
0.000215956
-0.00769545
-5.23795e-05
0.00528631
-0.0042704
0.00590991
-0.000399178
0.00272718
-6.65455e-05
0.00232148
-0.00182003
-0.000244138
0.0011181
-3.61433e-05
0.000894264
-0.000681551
-0.000109162
-0.000310492
-0.000110704
-3.37274e-05
-7.82943e-06
-6.90136e-06
-7.69513e-06
-1.76661e-06
5.09039e-06
8.32464e-06
-5.35586e-05
-4.70501e-05
2.97391e-05
2.7201e-05
1.06381e-05
-4.0272e-05
-1.45523e-05
-1.11549e-05
-3.6445e-06
-4.05055e-06
9.69151e-07
3.81039e-06
4.33656e-06
-9.01021e-06
9.95566e-07
6.89317e-07
2.60386e-06
3.8195e-06
1.01105e-06
3.76921e-06
-9.03266e-06
3.64435e-06
7.71599e-06
1.93441e-05
4.35731e-05
8.48391e-05
0.00013157
-6.4209e-05
-0.000933015
-0.000550882
-0.000245182
-0.000362461
1.03607e-05
6.45698e-05
0.000132781
-0.00358584
0.00402133
3.05808e-08
0.00255529
-0.0025552
3.74839e-05
0.00163753
-3.57366e-09
0.000982227
-0.000982206
1.47886e-05
-0.000523237
-1.44334e-05
0.000304361
-0.000224912
0.000405632
-4.11387e-05
1.52051e-05
-0.000137247
-0.0001003
-3.63347e-05
-4.73221e-05
9.27079e-06
1.022e-05
-0.000166019
-4.51213e-06
9.20971e-05
-6.55613e-05
0.00013063
-1.36974e-05
4.59618e-06
-1.35282e-05
-1.10752e-05
-2.22225e-06
-2.38598e-06
2.41551e-06
1.00483e-06
7.12723e-07
3.53242e-07
3.20487e-06
-8.89754e-07
1.17077e-06
-3.61924e-09
-1.15316e-06
8.82947e-07
-3.2011e-06
-5.53477e-07
-7.51658e-07
-3.89678e-09
-2.61927e-09
3.41359e-06
1.54774e-06
2.74939e-06
2.14363e-06
1.1281e-05
3.38864e-05
-3.56743e-06
6.38397e-06
3.40274e-05
0.000114836
-1.28747e-05
-1.40937e-05
-4.49163e-06
1.40887e-05
3.86146e-05
8.99523e-05
0.000189359
0.000278497
5.1778e-06
-0.00502541
0.000315777
0.00363916
-0.000439753
-0.00209132
0.000254199
0.00121122
-0.000200913
-0.000761907
-0.00113965
0.00010921
0.000681572
-0.000894215
3.61255e-05
-0.00111823
0.00145942
-3.7473e-05
-0.00163747
-6.45195e-05
-2.53579e-08
4.30544e-08
-3.5545e-07
0.000248579
-0.000248128
-0.00029139
-0.000626742
0.0143983
-0.0159648
-0.000265227
-3.20985e-05
-0.00015398
0.000161047
0.000155326
-1.43281e-08
8.60615e-05
-0.0001743
-5.91712e-05
-8.99167e-05
-3.18856e-05
4.07394e-05
2.80373e-08
4.85474e-09
2.92451e-09
-7.9996e-10
-4.88694e-10
7.16556e-11
4.36657e-11
4.38361e-07
4.78898e-06
1.45721e-05
4.0312e-05
9.64955e-05
-7.12562e-06
-0.000982838
9.86723e-05
0.000569888
-9.09733e-05
0.000519235
0.000116073
0.000444857
-8.57655e-05
-0.000280165
-0.000415576
0.000708983
-4.35969e-05
-4.87847e-05
-2.12772e-05
9.7092e-05
0.000237593
0.000506566
0.000303243
0.000158507
6.66017e-05
2.36398e-05
3.3749e-05
9.80719e-06
7.17351e-06
1.53253e-06
1.99529e-06
-1.509e-06
-6.92162e-07
-2.60512e-06
1.48644e-05
3.56752e-06
1.34461e-05
-3.81059e-06
-3.08535e-06
9.03296e-06
2.04343e-07
3.64506e-06
1.11568e-05
3.019e-05
6.96196e-05
0.00012681
-8.60049e-05
-4.07491e-05
-0.000213548
-0.000964082
-0.000871093
0.00140345
0.00153464
0.00166678
0.000211202
-0.00237391
-6.78921e-06
0.00390359
-6.67007e-06
0.000135541
0.00807367
0.0014871
0.000193416
-0.030628