/*--------------------------------*- C++ -*----------------------------------*\
| =========                 |                                                 |
| \\      /  F ield         | OpenFOAM: The Open Source CFD Toolbox           |
|  \\    /   O peration     | Version:  2306                                  |
|   \\  /    A nd           | Website:  www.openfoam.com                      |
|    \\/     M anipulation  |                                                 |
\*---------------------------------------------------------------------------*/
FoamFile
{
    version     2.0;
    format      ascii;
    arch        "LSB;label=32;scalar=64";
    class       volScalarField;
    location    "0.6";
    object      gradTx;
}
// * * * * * * * * * * * * * * * * * * * * * * * * * * * * * * * * * * * * * //

dimensions      [0 -1 0 1 0 0 0];

internalField   nonuniform List<scalar> 
2658
(
0.00814666
0.0121326
0.00382973
0.000106416
-0.0120657
-0.0101373
0.00885357
0.00881035
-4.83526e-05
0.0143331
-0.0108926
-0.00885717
0.00674524
0.00758369
0.00567274
-0.000200435
-0.000225954
-0.000286367
-0.00613292
-0.00820028
-0.00819156
-0.018991
-0.0219848
0.015829
-0.00639112
-0.00900978
-0.0193168
-0.00249029
-0.0141274
-0.0156542
-0.0141272
-0.0193172
-0.00901011
-0.0219858
-0.00639057
0.0158289
-0.00671683
0.00384809
-0.0189883
-0.00819385
-0.00820032
-0.00613263
-0.000287688
0.000619085
-0.0086107
0.00806232
-0.0108924
-0.00049137
-0.000202311
0.00567271
0.00758372
0.00674477
0.0180515
-0.00359564
0.019866
0.0165485
-0.00825048
-7.05648e-05
-0.0279103
0.0166089
-0.00824991
0.0165489
0.0198658
-0.00359494
0.00277855
-0.0300625
0.00269822
-0.000832115
-0.00763144
-0.00763228
6.48497e-05
0.00628981
-0.000825211
-0.0056691
0.000364294
-0.00602775
0.00762458
3.4104e-05
-0.00530941
0.00584551
-0.0088196
-0.000290312
0.011359
-0.0103982
-0.00013649
-7.31322e-05
1.33962e-05
1.93607e-05
1.00012e-05
3.78012e-06
1.17693e-06
-5.05592e-07
2.27114e-07
-3.44966e-06
1.84792e-06
-6.36319e-07
-2.30766e-06
-1.22323e-08
2.23173e-06
-1.91987e-06
9.38907e-07
2.51214e-06
3.10737e-06
1.47943e-06
1.59958e-06
-4.08736e-06
-4.79736e-07
-2.92559e-07
-4.26723e-07
1.00085e-06
2.07003e-06
7.35697e-07
1.5525e-06
7.35443e-07
2.06989e-06
1.00097e-06
1.60041e-06
-4.08797e-06
3.10823e-06
1.48038e-06
2.51147e-06
9.37502e-07
-1.92028e-06
2.23167e-06
-4.40806e-06
4.20659e-06
-3.45073e-06
-6.37115e-07
-2.3072e-06
1.84715e-06
-1.03131e-06
-2.59425e-06
-1.50035e-06
-1.40101e-06
-1.09249e-06
-1.14188e-07
-8.03939e-07
-5.29562e-06
2.69487e-06
2.69398e-06
-8.04263e-07
-1.15296e-07
6.53232e-07
-1.13155e-06
-1.2578e-06
-1.12923e-06
2.10706e-07
1.16693e-08
-2.38808e-06
-2.47985e-06
-1.98843e-06
-2.51111e-06
-2.51722e-06
-2.56227e-06
-2.46949e-06
-4.00717e-06
-3.36018e-06
-1.53403e-06
-1.942e-06
-1.51863e-06
1.1214e-07
-4.37945e-08
-2.88816e-07
1.23182e-06
1.79297e-06
1.36064e-06
3.10811e-06
4.51851e-06
-9.25202e-07
7.28097e-06
-2.31336e-05
4.74262e-05
-8.43516e-05
0.000167446
-0.000282328
0.000524547
-0.000839844
0.00145367
-0.00220386
0.00355643
-0.00507278
0.00768878
-0.010214
0.0149726
-0.0148188
0.0157656
-0.0162843
0.0143326
-0.0120663
0.000106341
-0.0101367
0.00269751
-0.0300621
0.00277842
-0.00885752
0.00392622
-0.000136558
-7.31033e-05
1.33618e-05
1.93455e-05
1.00091e-05
3.78429e-06
1.17763e-06
-5.05801e-07
2.26889e-07
1.24512e-07
-1.33883e-06
-4.39923e-07
1.40946e-06
1.4095e-06
-1.33901e-06
1.24925e-07
-4.38582e-07
1.85426e-07
4.20569e-06
-4.4084e-06
3.50681e-07
3.27124e-06
-1.71577e-07
-2.22323e-07
-4.28096e-07
-7.45197e-08
-1.25665e-07
3.36467e-07
4.11396e-07
3.36437e-07
-1.72447e-07
-4.79175e-07
-1.99955e-06
-2.9155e-07
3.87836e-07
3.88372e-07
-1.99996e-06
-4.72476e-08
1.21614e-06
-1.69392e-06
-1.69523e-06
-4.90139e-09
1.21743e-06
-3.26745e-08
-1.87891e-07
-2.48714e-07
-2.5204e-07
1.15937e-06
-2.25367e-07
7.34267e-09
-1.70624e-06
-6.06235e-07
-1.06961e-06
2.4492e-06
1.75044e-06
3.38206e-06
2.41087e-06
-9.04513e-06
1.05871e-05
-2.72371e-05
-2.72359e-05
4.19009e-08
-4.30517e-05
1.312e-06
7.94563e-05
-0.000147782
1.7615e-06
0.000264694
-0.000463379
-5.41031e-07
0.000781763
-0.001289
-1.40742e-05
0.00203959
-0.00314059
-6.17297e-05
0.00470538
-0.00663086
-0.000158845
0.00982725
-0.011797
-0.000704753
0.0212197
0.00359943
0.0269347
0.0269345
-0.00248973
0.00679367
-0.0021434
0.00909814
0.000602042
-0.00547513
-0.00547503
0.00624073
-0.000228486
-0.00713613
-0.00713596
0.00197829
-0.00245376
-0.0107385
-0.0107387
0.00423976
0.0160964
0.00423985
0.00647391
0.0176549
0.00769146
0.0101954
0.0118898
-0.0187448
-0.0108434
0.0096448
0.00718172
-6.8533e-05
0.00197842
-0.00114219
-0.00321815
0.0127235
-0.00975102
0.00613834
0.0141883
0.00813186
-0.00443239
-0.0058821
-0.0044323
-0.00321857
-0.0108433
-0.0187451
0.0076914
0.017655
0.00647418
0.00964476
0.00718169
0.00813237
0.0141864
0.0061369
-0.00975139
0.0127229
0.00152083
0.0122316
-0.000254345
-0.0126286
0.0186283
-0.000217803
-0.00317737
-0.0190026
-0.000228346
-0.00220108
0.000175835
0.000119384
4.57862e-05
1.6242e-05
5.19706e-06
1.3831e-06
2.61229e-07
-1.21652e-06
2.46957e-05
-2.73418e-05
2.66136e-05
-2.55511e-05
4.45154e-05
-9.34075e-05
0.000161533
-0.000307747
0.0005134
-0.000901446
0.00143805
-0.00233465
0.00354288
-0.00530898
0.00762413
-0.0103979
-4.82342e-05
0.00881036
0.00885239
0.00629097
-0.00414009
0.000393942
-0.00413931
0.00308292
0.00432133
0.00430598
-0.00278871
-0.00268207
0.000222229
0.00183568
5.7452e-05
0.00354332
-0.00012846
-0.00410365
0.00396121
-1.5476e-05
-0.00258136
0.00237862
-0.00372919
9.25477e-06
-0.00587151
-3.22584e-05
0.00851216
-0.011437
-5.94628e-05
-0.0162844
-0.00068434
0.00806241
-0.000491362
0.0015212
-0.0190028
-0.00317714
0.000497949
-0.000347371
-0.000131137
-0.000113565
-6.00036e-05
-2.66077e-05
-1.12368e-05
-4.54547e-06
-1.71705e-06
-5.94619e-07
-1.25312e-07
-7.31324e-08
-4.26451e-07
-4.58781e-09
-2.22446e-07
3.27148e-06
3.50334e-07
-9.36594e-08
-8.30422e-06
7.87259e-06
-8.49066e-06
7.59866e-06
-4.62586e-06
9.06203e-06
-5.48216e-06
1.60664e-05
3.05961e-06
-3.82337e-05
-3.81066e-05
1.87608e-05
9.47035e-07
2.05076e-06
-4.10338e-07
-1.0089e-07
2.57663e-07
9.2912e-07
2.08587e-06
-3.75028e-06
-3.53463e-06
2.55092e-06
-2.30848e-06
-1.0125e-05
-1.58441e-05
-1.43915e-05
-4.5455e-05
-5.17165e-05
9.18061e-06
4.04705e-06
2.3256e-06
-4.76746e-05
5.04746e-05
-0.000101378
9.93778e-05
-2.92224e-06
-5.31708e-05
-5.21955e-07
-2.59193e-07
-3.66878e-07
-7.81646e-08
-3.0812e-05
-8.09461e-05
-0.000144662
-0.000126006
-0.000302613
-0.000357128
2.57899e-05
1.8303e-05
1.91003e-05
-0.000546162
0.000577015
-0.000993363
0.000985134
-2.30268e-05
-0.000600773
0.000332706
-8.66515e-06
-0.000190614
-1.40117e-06
0.000182146
-0.000337199
7.90174e-07
-0.000172609
9.28033e-05
3.21966e-07
-2.42794e-07
-4.34032e-06
-4.30444e-05
1.67342e-06
2.11849e-05
8.98372e-07
-1.30648e-05
-3.49502e-06
4.78342e-06
-1.33825e-06
-1.21326e-07
-7.20743e-08
6.91571e-07
-1.40674e-06
-1.50374e-07
-2.91996e-06
-7.23741e-07
7.89016e-07
9.26186e-06
1.90156e-06
-5.27103e-06
-4.39915e-06
1.05989e-05
3.48053e-05
9.68046e-05
1.59396e-06
6.14871e-06
-0.000188642
-0.000411204
-0.000815259
-0.000632097
-0.00136299
-0.00209863
-0.000210417
-1.25587e-06
8.52383e-05
-0.00372906
0.00396095
-0.00587155
0.00584557
-0.000128623
-0.00410332
0.00256826
-5.58986e-05
-0.00167195
-7.37693e-06
0.00161143
-0.00258133
4.85269e-06
-0.00152195
0.000914754
2.05426e-06
1.70175e-07
-3.70714e-07
-1.29566e-05
-0.000147771
1.59835e-06
7.94552e-05
1.31227e-06
7.20937e-06
-9.27343e-05
0.000158567
-0.000301718
-0.000301727
2.75909e-06
0.000499555
2.12659e-05
-0.000884901
4.82078e-06
0.00138818
2.7843e-05
-0.00228525
9.12436e-06
0.0033981
-1.62211e-05
-0.00509171
4.81219e-05
0.00734454
-0.000371455
-0.00949271
0.000345243
0.0143771
-0.00240614
-0.0131241
-0.00180781
-0.0131237
0.00359938
0.0212198
-0.000704527
-0.0117962
-0.000420403
0.0098267
-0.000158785
-0.00663077
-0.000173537
0.00470554
-6.16093e-05
-0.00314006
-5.65811e-05
0.00203968
-1.40096e-05
-0.00128891
-1.46978e-05
0.000781741
-5.08125e-07
-0.000463345
-1.47108e-06
0.000264689
1.77469e-06
1.24532e-05
-2.1484e-05
-7.74794e-06
-2.60043e-06
1.9295e-06
-1.39699e-07
-4.27969e-06
-1.49934e-05
-4.48651e-05
-0.000124087
-0.000306191
-0.000633214
-0.000974299
-0.000774137
0.000249982
-0.00154818
-0.010607
-0.010607
-0.0108338
-0.00908052
-0.00268087
-0.00118976
-0.00501357
0.00727039
0.010422
0.000311342
0.000167309
0.000493577
-0.00240574
0.0143761
0.000345554
-0.00949266
-0.00105055
-0.000709646
-0.000503836
4.84725e-05
-0.00509158
0.00734417
-0.000371508
-0.000112589
-0.000127671
-1.63139e-05
0.00339759
9.24236e-06
-0.00228506
-0.000125365
-0.000282613
-0.000131859
-5.17497e-05
2.78071e-06
0.00049953
-0.000884883
0.00138811
2.78597e-05
-7.49476e-05
-3.40028e-05
2.92114e-06
7.95355e-07
2.31195e-07
-4.71171e-06
4.3586e-08
4.44222e-05
1.87366e-06
4.4425e-05
7.20316e-06
-9.27329e-05
1.07844e-06
0.00015859
1.24593e-05
-1.29557e-05
-1.71203e-05
1.08088e-06
-6.3581e-07
-4.33935e-06
-1.33773e-06
-1.30661e-05
8.99093e-07
2.11842e-05
4.78224e-06
1.05869e-05
-1.06957e-06
-9.04527e-06
1.57471e-06
2.41126e-06
3.38269e-06
1.74942e-06
4.51802e-06
2.45055e-06
1.08808e-06
-9.94863e-07
7.53894e-07
-2.25062e-07
-2.4847e-07
1.15941e-06
-2.51998e-07
1.66389e-07
-3.08004e-08
-3.78511e-08
-3.05575e-08
-2.92356e-08
-1.22472e-08
1.66508e-07
-3.24577e-08
7.5404e-07
-4.27537e-07
-9.9565e-07
1.0874e-06
-8.15837e-08
2.71214e-07
2.39118e-07
-2.45354e-07
-1.2389e-06
2.51129e-07
-8.16985e-07
1.27174e-06
4.07399e-06
-3.42225e-06
4.12193e-07
2.45901e-07
1.15788e-07
3.02491e-07
-2.31345e-07
-1.127e-07
-7.05667e-07
-2.02854e-06
-5.27735e-06
-1.2729e-05
9.59192e-06
2.91e-05
8.4864e-05
0.000213941
-0.000956446
-0.00368515
0.0130902
-0.00214348
0.00679363
-0.0148424
-0.00710218
-0.00710154
-0.0148433
-0.00755642
-9.50128e-05
-0.0131708
0.0211755
0.00161224
-0.000744254
-0.0147194
-0.00122438
0.0093145
-0.00692638
-0.0150949
-0.0126988
-0.0119797
-0.00873857
0.00109163
0.00211637
0.001075
0.000462316
-0.012696
0.00107527
-0.00755582
-0.0131712
-9.44999e-05
0.00416939
0.00161274
-0.0147195
-0.000743987
0.00195438
-0.000217673
0.0186287
-0.012629
-0.000253828
0.0122325
0.000968517
-0.000458284
0.00211702
0.0016984
-0.00373035
0.00416972
0.00290837
0.000336851
-0.00130479
-0.000457756
-9.58457e-05
0.000967868
-0.0019273
-6.86246e-05
-0.00114209
0.000498001
-0.000347434
-0.00068455
-0.000413583
-1.58237e-05
9.5307e-06
0.000138756
-0.0079767
0.00851203
-0.0114374
0.0113593
-0.000290763
-0.00881927
-3.21577e-05
-0.000300955
0.000537708
0.000238471
-0.000157521
-7.63308e-05
-3.29612e-05
-1.27156e-05
7.05952e-06
0.000309901
-1.19036e-05
-1.14253e-05
-0.000133562
1.09618e-05
-0.000132296
0.000222906
3.51674e-05
-0.000407332
-0.000415511
0.000227362
1.32644e-05
0.000687467
9.7302e-05
-0.00111323
-0.001145
3.22605e-05
0.00183582
0.000221944
-0.00268168
-0.00278888
5.75442e-05
0.00430609
0.000364153
-0.00566863
-0.00602852
3.4474e-05
0.000372497
0.00135956
0.00455485
-0.000165721
-0.000218849
0.000107963
-0.000339264
0.0022363
0.0025421
0.00382902
0.00173821
0.000766021
0.000308755
0.000111328
3.51144e-05
1.17321e-05
-1.975e-05
-3.53651e-05
-9.63503e-05
1.30405e-05
-9.63161e-05
0.000156872
4.13692e-05
-0.000297917
-0.000298
0.000156933
2.36902e-05
8.07128e-06
2.21024e-06
-1.30524e-06
-7.50109e-07
-4.28949e-06
-3.0076e-06
9.69734e-06
-3.00191e-06
1.24072e-05
3.65058e-06
-2.73363e-05
-2.73574e-05
1.24233e-05
-3.06257e-06
1.93161e-06
-5.52134e-07
-5.55925e-07
2.63503e-06
-4.98743e-07
1.93438e-06
-5.48807e-06
9.06542e-06
-4.62305e-06
1.87604e-05
3.06023e-06
-3.80997e-05
-3.82555e-05
1.60872e-05
-4.28871e-06
-1.30514e-06
-1.21476e-07
2.6129e-07
1.67337e-06
-2.31339e-05
-1.2143e-06
-4.76778e-05
3.22479e-07
-0.000101388
-1.40148e-06
-0.000190621
-8.66215e-06
0.000332734
-0.000307793
1.32579e-05
-0.000415495
-0.000407438
3.51365e-05
0.000227373
-0.00013355
-0.000132333
1.09503e-05
6.69549e-05
4.50462e-06
0.000161565
-9.34292e-05
9.93867e-05
-5.31727e-05
-2.92178e-06
4.4528e-05
9.45113e-07
-2.55584e-05
2.66157e-05
-5.24219e-07
5.0477e-05
-2.73433e-05
2.46964e-05
-8.30519e-06
-7.14942e-08
7.8732e-06
-3.86321e-08
-8.49107e-06
-7.49499e-07
7.60255e-06
3.15272e-06
-1.51779e-06
1.12456e-07
-1.5006e-07
-1.40558e-06
6.91583e-07
2.55073e-06
2.08624e-06
1.93069e-06
-2.60168e-06
-7.75572e-06
-3.75055e-06
-1.43932e-05
-2.15269e-05
-5.85952e-05
-4.54731e-05
-0.000125962
-0.000141558
-0.000141187
-5.84915e-05
2.12391e-05
-0.000262912
-0.00026418
-0.000302417
-0.000632475
-0.000282505
-0.00028031
-0.000123243
-0.000123537
-0.00136416
-0.0108345
-0.00908804
-0.00268379
0.0149726
-4.09464e-06
-0.0148186
0.000311404
-0.00861046
-0.000339154
-0.000228272
-0.00220108
0.000175891
0.000119372
4.58278e-05
1.62284e-05
5.19949e-06
1.38541e-06
1.59985e-06
-8.43524e-05
-4.46194e-06
-0.000172611
7.82125e-07
-0.00033723
-3.34286e-06
-0.000600829
-2.30137e-05
0.000985184
-0.000901548
3.22179e-05
-0.00114496
-0.00111348
9.72953e-05
0.000687441
0.000679679
-9.36391e-05
0.000480715
0.000112282
-0.000813717
-0.000813893
0.000480851
-9.36188e-05
0.000679537
-4.6295e-05
0.000111859
3.50388e-05
9.27415e-06
3.2175e-06
-3.06183e-06
7.89125e-07
-2.46808e-06
-2.57709e-06
-1.82189e-06
-1.09283e-06
-1.40141e-06
-1.5011e-06
-3.42097e-06
-2.59371e-06
-1.03055e-06
-1.94013e-06
-1.53383e-06
4.13543e-07
-3.36103e-06
-4.00903e-06
-7.23438e-07
-4.10778e-07
-1.00862e-07
2.56986e-07
1.79398e-06
1.23209e-06
-9.42063e-08
-2.88383e-07
-4.39618e-08
-2.76896e-06
7.28133e-06
-3.49506e-06
-9.26633e-07
1.36122e-06
3.10608e-06
9.27388e-07
-2.3062e-06
-3.53756e-06
4.044e-06
4.74305e-05
2.32781e-06
9.28085e-05
-1.01295e-05
-1.58223e-05
9.15931e-06
0.000167453
-0.000282368
-1.18809e-05
-0.000546233
2.07258e-06
0.000914757
-0.000993409
-7.3885e-06
-0.00167207
-5.59245e-05
0.00256832
-0.00233478
0.00143822
-7.62253e-05
4.44899e-05
-0.00152206
4.81008e-06
0.00161155
-1.12379e-05
-4.55287e-06
-1.71887e-06
-5.94186e-07
-2.40937e-07
-3.59216e-07
1.65693e-07
-3.39884e-05
-7.48824e-05
3.28333e-06
3.3019e-06
1.47452e-05
9.28044e-06
0.00540892
-4.18657e-05
5.35495e-05
2.31942e-05
0.0105139
-4.14066e-06
-0.000304097
-0.000157808
-7.44479e-05
-3.14089e-05
-1.1809e-05
-3.94556e-06
-1.20237e-05
6.46755e-05
4.57122e-05
4.56859e-05
6.47135e-05
-1.20231e-05
-3.94607e-06
-1.1818e-05
-3.536e-05
0.000222988
-1.97358e-05
-7.38033e-06
9.26599e-06
3.5131e-05
0.00011134
-4.62605e-05
-2.09546e-05
-1.14066e-05
-1.2712e-05
7.07641e-06
0.000309918
-3.08479e-05
-5.16333e-05
1.82404e-05
0.000524583
-0.000839896
-2.75297e-05
0.00145376
-0.002204
-4.98811e-05
0.00355663
-0.00507313
-4.14167e-05
-0.00797688
2.32972e-05
0.0105132
-0.0102148
-0.000420214
0.00768873
-0.000173823
-0.00021013
-1.48588e-06
2.56721e-05
-0.000144435
-8.10444e-05
-0.000189105
-0.000356067
-0.000411684
-0.000812044
-0.00118972
-0.00210229
-0.00501572
0.00726997
-0.00671666
0.00384666
-0.0119802
-0.0150945
-0.00692617
0.00931476
-0.0012247
0.000618762
0.0104216
0.000108598
0.0157658
-0.000113594
-6.00034e-05
-2.66745e-05
-2.90448e-05
-6.28242e-05
5.34205e-05
-0.000112484
-0.000127654
1.46797e-05
-0.000157803
0.000100973
5.64008e-05
-7.44554e-05
-3.14035e-05
-0.00021838
0.00182787
0.00130058
0.000250261
-0.00195667
-0.00195697
0.00130087
-0.000218391
0.00182762
-9.23926e-05
-2.29661e-05
0.000126762
-2.10649e-05
4.26473e-05
4.12645e-05
0.000343786
-0.000147376
0.0043205
0.0030835
-0.000448872
0.000108991
0.000101927
0.00242929
-1.97522e-06
0.00624091
-7.26544e-05
0.000167331
0.000493705
0.00290747
0.00909862
-0.00373089
0.000336481
-0.00130465
-0.00873803
0.0211752
-0.0126984
0.00109203
-9.61108e-05
-0.000768447
0.00392634
-7.08662e-05
0.00105696
0.00393105
-0.000183289
-0.000825322
0.0010564
0.012132
0.00814906
0.0203075
0.0117266
0.0166095
0.0181622
-0.000832202
0.0017805
0.000781946
0.00031265
-9.23088e-05
0.000308675
0.000766052
-0.000147118
-0.000448922
4.16867e-05
-2.29519e-05
9.67756e-05
3.48039e-05
1.06086e-05
2.05201e-06
-2.61021e-07
-3.77366e-07
-1.14037e-07
1.91367e-05
0.000577066
1.48874e-06
5.98172e-06
8.54771e-05
0.00540856
0.000138955
-0.000300365
-0.000157305
0.000238361
0.000537645
9.14131e-06
-1.63775e-05
-0.000165167
-0.000413979
0.00135956
0.00455451
0.00223599
0.000372399
-0.000182613
0.00173752
0.000915514
0.00254261
0.000344042
-3.29531e-05
0.000513483
-4.39927e-06
-5.26512e-06
-2.91561e-06
1.90529e-06
1.17385e-05
4.27125e-05
0.000127342
-0.000304019
0.000912847
-5.67555e-05
-1.47257e-05
-1.47383e-06
0.000182149
-7.38224e-06
6.69543e-05
4.50596e-06
2.39452e-07
2.71247e-07
-8.15084e-08
-8.16956e-07
2.87607e-07
2.51744e-07
-1.23843e-06
-2.45206e-07
-2.93752e-08
4.07447e-06
1.27372e-06
-5.29582e-06
-2.48761e-06
2.62903e-06
-5.00827e-07
6.52429e-07
-1.81953e-06
4.43683e-05
0.00237855
-4.97387e-05
-5.93989e-05
0.00195446
-7.23814e-05
-0.00192751
1.85416e-07
2.21848e-06
4.8924e-06
-4.22599e-05
-1.14513e-05
-0.000375584
-2.75484e-05
-1.54174e-05
-4.46283e-06
-3.34654e-06
-2.76922e-06
-3.88176e-08
3.1536e-06
0.0118899
0.0101954
2.23502e-05
-0.00138226
2.23359e-05
0.0180516
0.0203085
-7.20905e-07
7.8928e-07
9.26544e-06
3.05955e-06
1.87585e-05
1.60683e-05
-3.82367e-05
-3.81019e-05
9.45387e-07
-2.55513e-05
7.5988e-06
3.15265e-06
-1.53592e-06
-1.94293e-06
-1.51911e-06
1.12584e-07
-4.38535e-08
-2.88573e-07
1.23375e-06
1.79387e-06
1.36142e-06
3.11155e-06
4.5186e-06
-3.49393e-06
2.45103e-06
1.75203e-06
3.38339e-06
1.08972e-06
2.41172e-06
2.21899e-06
2.41197e-06
3.3831e-06
1.75156e-06
4.51866e-06
2.45043e-06
-3.49433e-06
7.28107e-06
-9.25563e-07
3.1109e-06
1.36176e-06
1.79478e-06
1.23253e-06
-2.89462e-07
-9.41139e-08
7.87268e-06
-8.48919e-06
7.59998e-06
-1.50591e-07
1.13902e-07
-1.51963e-06
-1.94235e-06
-1.53447e-06
-3.36407e-06
4.116e-07
-4.0083e-06
-4.99104e-07
1.93375e-06
-3.00274e-06
9.69602e-06
-5.53892e-07
1.93023e-06
-5.0143e-07
-4.00573e-06
4.10728e-07
-4.62631e-06
9.06146e-06
-5.48202e-06
-4.28843e-06
1.24207e-05
1.24071e-05
3.64872e-06
-2.73534e-05
-1.20226e-05
6.46811e-05
1.09526e-05
6.6953e-05
-9.34114e-05
4.51094e-06
0.000161531
-0.000190602
9.9375e-05
-2.92039e-06
-5.31667e-05
4.4515e-05
1.17704e-06
3.78401e-06
1.00182e-05
1.93953e-05
1.34483e-05
-7.29425e-05
-0.000136235
0.00392638
-0.00321844
0.0127233
-0.00975118
0.00152089
0.0122321
-0.000254237
-0.012629
0.00931467
-0.00692611
-0.0150943
-0.0119795
-0.0126981
-0.0131707
0.0211754
0.00416951
0.00290836
-9.48145e-05
-0.00755647
-0.0148428
-0.00710201
-0.0126958
-0.00710163
-0.0148436
-0.00755632
-0.0131714
0.0211753
-0.0119795
-0.0126985
-0.0150947
-0.00692605
0.00931483
-0.0126291
0.0186286
-0.0190027
0.0127232
0.00152133
0.0122325
-0.00975102
0.00613666
0.0141865
0.010195
0.00769078
0.0176545
0.0064742
0.00423952
0.0096443
-0.0107389
-0.0107387
0.00423955
0.00647378
0.0176543
0.00769091
0.0101948
0.0118889
0.0141881
0.00613769
0.00758362
0.00674474
-0.00359581
0.018051
0.0198655
0.0203068
0.0165486
0.0166089
0.0181622
0.0166093
-0.0279105
-7.11432e-05
-7.08102e-05
-0.00825135
0.0165484
0.0203069
0.0198656
0.0180515
0.00674423
0.00758355
0.00567302
-0.000200319
-0.000225717
-0.000286336
-0.00613268
-0.00820028
-0.0081921
-0.0189891
-0.0219843
0.00384719
-0.00671666
0.0149725
-0.0102143
0.00768879
-0.00507309
0.00355644
-0.00220396
0.00145368
-0.000839922
0.000524584
-0.000282341
0.000167453
-8.4356e-05
4.74301e-05
-2.31341e-05
2.46951e-05
-2.73403e-05
2.66143e-05
-2.5555e-05
1.87586e-05
3.05793e-06
1.60845e-05
-5.48779e-06
9.06416e-06
-4.62355e-06
3.15216e-06
-5.05396e-07
1.17814e-06
3.79068e-06
1.00071e-05
1.93399e-05
1.33389e-05
-7.30974e-05
-0.00013647
0.00392619
-0.00321837
-0.00114233
0.00197818
0.000497853
-0.00713594
-0.007136
0.00197817
-0.00114223
0.000497871
-0.00317719
-0.0190029
0.0186286
-0.00122445
-0.0147194
0.00161228
-0.000744136
0.00195455
-0.000217484
-0.000228293
-0.00220107
-0.000956516
-0.00220105
0.00161202
0.00416938
0.00909821
0.00290842
-0.00214345
-0.00214335
0.00909838
0.000601694
-0.00547517
0.00624074
0.00624074
-7.24909e-05
-0.00547517
0.000336503
0.00169845
0.00211635
0.00109222
-0.00873832
0.00107449
0.000461931
0.0130907
-0.00368531
0.00359928
-0.00639093
-0.00901001
-0.0193181
-0.0141273
0.0269352
-0.0131239
0.0143762
0.0143767
0.000345384
0.00982697
-0.000158712
-0.00663082
0.00470547
-6.15471e-05
-0.00314016
0.00203962
-1.40116e-05
-0.00128891
0.000781771
-5.08975e-07
-0.000463386
0.000264699
1.77157e-06
-0.000147775
7.94574e-05
1.3114e-06
-4.30463e-05
2.11851e-05
8.99033e-07
-1.30631e-05
-1.06845e-06
-9.04341e-06
-9.04361e-06
1.08967e-06
-9.93604e-07
3.88133e-07
-1.9988e-06
-4.78391e-08
1.21682e-06
1.216e-06
-1.69415e-06
-1.12277e-07
1.41073e-06
1.41042e-06
-1.33924e-06
1.15737e-07
2.69491e-06
2.69402e-06
-8.04198e-07
2.10351e-07
-1.12873e-06
-1.13165e-06
-1.82117e-06
-1.09286e-06
-1.40293e-06
-1.50303e-06
-2.59451e-06
-1.03118e-06
1.8471e-06
-3.45094e-06
2.26795e-07
1.27332e-06
4.07364e-06
-3.42368e-06
-1.23934e-06
-2.45499e-07
-2.30741e-06
-1.16781e-08
2.23154e-06
-4.40763e-06
-7.30893e-08
1.86239e-07
4.20605e-06
-6.37711e-07
-1.25192e-07
3.36905e-07
2.61383e-07
1.38255e-06
5.19407e-06
1.6243e-05
4.58253e-05
0.000119478
0.000175914
-4.04772e-06
-0.0148189
0.0157658
-0.0162843
0.0143326
-0.0103975
0.0076241
-0.00530872
0.0035427
-0.00233454
0.00143799
-0.000901459
0.000513409
-0.000307767
0.000161551
-9.3418e-05
4.45253e-05
9.45054e-07
-3.80966e-05
-3.8251e-05
-2.73416e-05
4.56867e-05
1.30425e-05
4.57045e-05
-9.63336e-05
-0.000132307
-0.00013355
0.000227355
0.00022293
3.51344e-05
-0.000415486
1.32728e-05
-0.000307776
-8.65143e-06
0.000332709
-0.000337187
-3.33475e-06
0.000577011
-0.000546136
0.000309899
7.97405e-07
0.000182134
-1.39988e-06
-0.000101375
5.04724e-05
-5.22996e-07
2.66136e-05
-7.49824e-07
-8.48993e-06
-1.49517e-07
-6.36668e-07
1.84719e-06
-1.03242e-06
-2.59519e-06
-1.50338e-06
-1.40218e-06
-1.09256e-06
-1.81852e-06
6.50924e-07
-8.04572e-07
-1.14014e-07
-5.29414e-06
1.27201e-06
1.23612e-07
2.26453e-07
4.07247e-06
-3.44971e-06
4.20543e-06
1.86096e-07
-4.3898e-07
-1.33946e-06
3.03803e-07
2.21092e-06
8.0762e-06
2.36924e-05
5.64074e-05
0.000100969
0.00010913
0.000101985
0.00242922
-0.00245401
-0.00588221
-0.00443235
-0.00192755
0.000968301
-9.63174e-05
-0.000253736
-0.00130457
-0.0147194
-0.000744058
0.00195432
-7.23136e-05
0.000167265
0.000311418
-0.00861069
0.0080625
-0.0108925
0.00277831
-0.0300627
0.00269734
-0.0101369
0.000106691
0.00885271
0.00881025
-0.0120664
-4.81761e-05
0.00135949
0.00455494
-0.00016547
-0.00501478
-0.00908191
-0.0108336
-0.00136274
-0.00210519
-0.00268325
-0.00118947
-0.000411616
-0.000810762
-0.000632894
-0.000302949
-0.000355938
-1.31684e-06
-0.000210482
0.000139022
0.0105133
-0.011437
0.00851183
-0.00881924
-0.000290673
0.0113591
-5.96087e-05
-0.000113544
-0.00022842
-0.00021781
-0.00317722
-6.8725e-05
-0.000457906
0.00033683
-0.0037302
-9.47713e-05
0.00679396
-0.00248966
-0.0106073
-0.00154732
0.000250628
-0.000774145
-0.000974783
-0.000633196
-0.000306316
-0.000124101
-4.48779e-05
-1.49924e-05
-4.27953e-06
-1.38348e-07
1.93002e-06
1.93025e-06
2.08601e-06
-3.74942e-06
-1.44018e-05
-4.55105e-05
-0.000126153
-0.000144319
2.57353e-05
-0.000188914
-8.10672e-05
-3.08517e-05
-5.15725e-05
1.82791e-05
1.91374e-05
0.000914729
-0.000993388
0.000577003
-0.000600772
-2.30217e-05
0.000985159
-0.00167193
-5.58858e-05
0.00256823
-0.00410349
-0.000128408
0.00584507
-3.19129e-05
-0.00587137
0.00396107
9.14924e-06
0.00540876
-0.00797704
2.31825e-05
5.35445e-05
-5.99356e-05
-2.66389e-05
-1.54629e-05
-0.00258128
0.00161141
4.87712e-06
0.00237847
-0.00372902
-4.98051e-05
8.56028e-05
9.28282e-06
-1.63801e-05
0.000108285
0.0104216
0.000619099
-0.00122441
0.00726958
-0.000413586
-0.000491027
0.00223552
0.00814732
0.0121315
0.00382859
0.00254685
0.000372844
-0.00030093
0.00053781
0.00023852
6.01282e-06
1.55231e-06
-1.09024e-07
-3.70598e-07
-1.01342e-05
-1.5777e-05
9.17246e-06
7.07794e-06
0.000309903
-0.000337208
0.000182142
-0.000190614
-8.66644e-06
0.000332722
-3.35442e-06
-4.54736e-06
-1.12356e-05
-7.38094e-06
1.72081e-07
2.0744e-06
-0.000546199
-1.19026e-05
-3.39891e-05
0.000781758
-1.46889e-05
-0.00128907
-1.40789e-05
0.00203968
-5.64181e-05
-0.00314034
-6.16998e-05
0.00470531
-0.000173343
-0.00663073
-0.000159353
0.00982689
-0.000420445
-0.0117962
-0.000704659
0.0212196
0.0158285
-0.00240639
0.000493716
0.000493655
0.02122
-0.000704534
-0.0117961
-0.0024063
-0.0131233
0.00359955
0.0269349
-0.00180724
-0.0141271
-0.019317
-0.00900959
-0.0219851
-0.00639083
-0.00248959
0.00679401
-0.00373032
0.00107481
0.00211688
-0.0087382
0.00109239
-0.00130475
-0.000458301
-0.000768501
-0.000228519
-2.04856e-06
-0.000131132
0.000213936
-0.000709768
0.000345339
-0.00949231
0.00734489
-0.0050918
0.00339781
0.00339764
9.27388e-06
-0.00228519
2.79093e-05
0.00138809
4.87171e-06
-0.000884888
2.12903e-05
0.000499548
2.77505e-06
-0.000301748
1.24652e-05
0.000158586
1.08069e-06
-9.27297e-05
7.21004e-06
4.44236e-05
4.44196e-08
-2.72353e-05
4.7847e-06
1.05882e-05
1.57518e-06
1.05873e-05
-1.06898e-06
-1.30641e-05
8.9918e-07
2.11861e-05
1.67472e-06
-4.3047e-05
1.31194e-06
7.94578e-05
1.60518e-06
-0.00014778
1.7667e-06
0.000264691
-1.4639e-06
-0.000463396
-5.36502e-07
2.12695e-05
0.000499544
-1.14269e-05
-0.00030173
0.00015858
-9.27291e-05
4.44236e-05
1.87213e-06
-2.72354e-05
4.78326e-06
-1.33727e-06
-4.33838e-06
7.20939e-06
-7.7621e-06
-2.15311e-05
-5.86305e-05
-0.000141612
-0.000263842
-0.000280988
-0.000123079
-0.00012285
-0.010607
-0.0108334
-0.00136262
-0.000281672
-0.00949176
-0.000371797
0.00734477
4.83374e-05
-0.00509164
-1.62665e-05
-0.000127641
-0.000503902
4.81859e-05
-0.000375371
-0.000282597
9.21203e-06
-0.0022852
0.00138818
-0.000884933
4.83284e-06
-0.000131803
-4.21289e-05
-5.17326e-05
2.76083e-06
-1.71144e-05
1.07831e-06
-6.24599e-07
-4.7099e-06
4.42672e-08
-6.05119e-07
-1.70446e-06
3.893e-07
-9.93039e-07
2.072e-06
7.38121e-07
7.38015e-07
2.07186e-06
1.00248e-06
-4.26589e-07
1.60064e-06
-4.08687e-06
-1.72175e-07
-2.21526e-07
3.2717e-06
3.50215e-07
-1.91957e-06
9.39235e-07
2.51309e-06
1.48161e-06
3.10832e-06
1.1601e-06
-2.5198e-07
-2.48861e-07
-2.24192e-07
8.46477e-09
1.55371e-06
-2.2408e-07
1.00319e-06
1.60189e-06
-4.26068e-07
-4.79373e-07
-1.71298e-07
3.27227e-06
-2.21499e-07
-4.27399e-07
-7.41454e-08
-4.40773e-06
2.23188e-06
-1.25808e-08
-2.30743e-06
-2.45318e-07
-3.0472e-08
-2.48414e-07
-1.87944e-07
7.53931e-07
-4.7958e-07
-2.91565e-07
-3.2406e-08
1.66339e-07
-3.04262e-08
-2.92759e-08
-3.76328e-08
-3.24461e-08
7.54204e-07
-1.99946e-06
-2.90464e-07
-1.3375e-06
2.31558e-07
7.95201e-07
2.92406e-06
9.58939e-06
2.91294e-05
8.48384e-05
-0.000112583
-0.000371249
-0.000112585
0.00017581
-0.0004202
0.0149727
-4.2169e-06
0.0105137
2.33734e-05
0.00851204
-3.2113e-05
0.00584554
-0.000128476
-0.00410334
0.00354295
5.76066e-05
0.00183561
0.0018277
0.000222001
-0.00278887
0.00430542
0.00432078
0.000363972
-0.00602822
3.46698e-05
-0.00530939
0.00762411
-0.00881931
0.0113589
-0.000290341
-0.0103981
-4.78184e-05
0.00880965
0.00885302
0.000106386
-0.012066
0.0143332
-0.0162843
-5.94614e-05
-0.011437
0.0157658
-0.0148187
0.010422
0.000311455
-0.00861068
-0.000339182
0.00806261
-0.000684521
-0.0108928
-0.00885692
0.0027783
0.002698
-0.0300634
0.0121321
0.011726
0.00105622
-0.000832323
-0.00763282
6.52225e-05
0.00628963
0.00629053
-0.000824595
-0.00566807
0.000364006
0.00432031
0.00430599
-0.00602823
3.42919e-05
-0.00278892
0.000222125
0.0018276
0.00183578
5.75478e-05
-0.001145
9.72937e-05
0.000679509
0.000687472
3.22489e-05
9.68454e-05
3.48373e-05
1.06102e-05
2.05216e-06
-2.62022e-07
-2.30659e-06
-3.55209e-06
4.04748e-06
2.32761e-06
9.28045e-05
-0.00010138
5.04776e-05
-5.3173e-05
-2.91757e-06
9.93831e-05
-1.40355e-06
-1.71947e-06
-5.93706e-07
-5.24634e-07
-1.21457e-07
-7.15399e-08
-8.30389e-06
-2.76793e-06
2.57756e-07
9.31097e-07
2.54888e-06
6.92716e-07
-1.00701e-07
-4.39162e-08
-3.84115e-08
-1.40595e-06
-4.39806e-06
-1.27122e-05
-3.29637e-05
-7.63273e-05
-0.000157518
4.19153e-05
0.000913926
0.00173699
0.000765897
0.000345481
-2.2843e-05
-9.23563e-05
-0.000147252
-0.0026816
-0.00195706
0.000250131
0.00130048
0.00130077
-0.000218398
-0.000813942
0.000112358
0.000480698
0.000480803
-9.3628e-05
-0.000407349
3.51579e-05
0.000222937
0.000227384
-0.000415514
1.32815e-05
-2.09004e-05
0.000127852
0.000308593
0.000111308
4.27728e-05
-1.1428e-05
-1.97465e-05
-0.000132313
1.09522e-05
6.4697e-05
6.696e-05
-0.000133541
4.50769e-06
-5.26742e-06
1.17272e-05
3.51226e-05
9.26589e-06
1.89308e-06
-2.918e-06
-4.11771e-07
-7.27748e-07
7.89435e-07
-2.46821e-06
-2.57599e-06
-2.38826e-06
-1.98801e-06
-2.47985e-06
-2.56137e-06
-2.46965e-06
2.62884e-06
-2.51676e-06
3.21704e-06
9.27326e-06
-7.37783e-06
-1.2024e-05
-3.94311e-06
-2.41466e-07
3.23954e-07
-4.76782e-05
-1.21546e-06
-3.62136e-07
7.96068e-07
-0.00017261
-4.46011e-06
-1.2957e-05
1.24681e-05
-1.29533e-05
-3.39898e-05
-7.49115e-05
4.5797e-05
0.000119428
-0.000173584
0.00768878
-4.18353e-05
0.00540895
9.27367e-06
0.00396098
-1.55386e-05
0.00256837
-5.59355e-05
-0.00167191
0.00143808
3.22696e-05
0.000687408
0.000679567
9.72546e-05
-0.00114488
-0.00111348
-0.000218446
-0.000813735
-9.24032e-05
0.000781567
0.00177948
0.00393031
-0.000183465
-0.000183433
0.00105604
-0.000832201
-0.010138
-0.00763154
-0.000347401
0.000167306
5.34816e-05
-0.000113573
-6.00058e-05
-6.28259e-05
1.47123e-05
-0.000127585
-1.63317e-05
-7.49027e-05
2.79423e-05
3.30672e-06
-2.90252e-05
-1.27267e-05
-5.26822e-06
-2.02693e-06
-7.04991e-07
-2.3099e-07
4.11362e-07
3.37407e-07
2.62019e-07
1.38683e-06
5.19362e-06
1.62274e-05
-1.46107e-05
0.00145354
-2.75197e-05
0.000914766
2.0903e-06
-0.000993372
-7.3782e-06
0.000985144
-2.30184e-05
-0.00060076
0.00051341
-0.000901505
-3.29972e-05
1.90924e-05
1.83127e-05
-0.000126161
-0.000302979
-0.000632249
-0.00026291
-0.000141256
-5.84855e-05
-2.14753e-05
-4.55404e-05
-1.44152e-05
-7.73729e-06
-2.59977e-06
-3.74602e-06
2.08657e-06
9.33425e-07
2.55153e-06
-2.31318e-05
-1.2132e-06
2.46959e-05
-7.04596e-08
7.87326e-06
-3.87408e-08
-1.25244e-07
-5.93508e-07
-1.71833e-06
-4.54798e-06
-1.12433e-05
-2.6621e-05
1.47581e-05
3.29757e-06
4.83158e-06
-0.00152186
0.00161138
-0.00258131
0.00237862
-0.00220394
-4.98683e-05
0.00355628
-5.64829e-05
-0.00507304
-9.89563e-07