/*--------------------------------*- C++ -*----------------------------------*\
| =========                 |                                                 |
| \\      /  F ield         | OpenFOAM: The Open Source CFD Toolbox           |
|  \\    /   O peration     | Version:  2306                                  |
|   \\  /    A nd           | Website:  www.openfoam.com                      |
|    \\/     M anipulation  |                                                 |
\*---------------------------------------------------------------------------*/
FoamFile
{
    version     2.0;
    format      ascii;
    arch        "LSB;label=32;scalar=64";
    class       volScalarField;
    location    "0.6";
    object      gradTz;
}
// * * * * * * * * * * * * * * * * * * * * * * * * * * * * * * * * * * * * * //

dimensions      [0 -1 0 1 0 0 0];

internalField   nonuniform List<scalar> 
2658
(
-0.0644953
-0.0604648
-0.0343587
-0.030459
-0.0411578
-0.0419022
-0.0320498
-0.0311744
-0.0304358
-0.0418059
-0.0480209
-0.0422969
-0.0602812
-0.0576527
-0.0579189
-0.0593946
-0.0589163
-0.0592801
-0.0577474
-0.0568487
-0.0592299
-0.0533923
-0.0603401
-0.0430561
-0.068844
-0.0592683
-0.0539645
-0.0612614
-0.0638161
-0.054355
-0.0638155
-0.0539645
-0.0592676
-0.0603391
-0.0688437
-0.0430551
-0.0514888
-0.0792152
-0.0533916
-0.0592312
-0.0568496
-0.0577473
-0.0592794
-0.0802995
-0.04622
-0.0457505
-0.048021
-0.0803124
-0.0593954
-0.0579192
-0.0576519
-0.060282
-0.0541038
-0.0825476
-0.06034
-0.0579627
-0.0802939
-0.0459327
-0.0437082
-0.0593331
-0.0802947
-0.0579632
-0.0603402
-0.0825475
-0.0488687
-0.0423792
-0.0479119
-0.0400233
-0.0413244
-0.0413235
-0.0307283
-0.0312728
-0.0218927
-0.0228942
-0.0158308
-0.0227228
-0.0228294
-0.0158067
-0.0161582
-0.0157617
-0.0228259
-0.0218797
-0.0311096
-0.0321479
-0.0288014
-0.0149488
-0.00686088
-0.00276639
-0.000983635
-0.000310201
-8.74385e-05
-2.80841e-05
-1.47677e-05
-1.32061e-05
-1.13555e-05
-1.62263e-05
-1.11092e-05
-1.5662e-05
-1.10644e-05
-1.10393e-05
-1.54877e-05
-1.11401e-05
-1.50567e-05
-1.31576e-05
-1.12899e-05
-1.5102e-05
-1.17384e-05
-2.74413e-05
-1.17619e-05
-1.43008e-05
-1.29356e-05
-1.07791e-05
-1.39746e-05
-1.07788e-05
-1.29359e-05
-1.43026e-05
-1.12914e-05
-1.51022e-05
-1.50567e-05
-1.31575e-05
-1.11369e-05
-1.54848e-05
-1.10389e-05
-1.10634e-05
-1.3872e-05
-1.39267e-05
-1.32058e-05
-1.62273e-05
-1.1109e-05
-1.13559e-05
-1.59483e-05
-1.14103e-05
-1.36204e-05
-1.14185e-05
-1.4807e-05
-1.23535e-05
-1.26024e-05
-1.84433e-05
-1.43238e-05
-1.43243e-05
-1.26015e-05
-1.23533e-05
-1.24291e-05
-1.2279e-05
-1.51781e-05
-1.22738e-05
-1.55416e-05
-1.80464e-05
-1.09479e-05
-1.09983e-05
-9.73685e-06
-1.48698e-05
-1.74589e-05
-9.06368e-06
-1.36666e-05
-1.35943e-05
-1.25175e-05
-1.31523e-05
-1.16393e-05
-1.31269e-05
-1.34141e-05
-1.16687e-05
-1.33987e-05
-1.28296e-05
-1.12601e-05
-1.27164e-05
-1.19406e-05
-1.38121e-05
-2.55266e-05
-3.29074e-05
-7.41543e-05
-0.000151366
-0.000288618
-0.000533875
-0.000961512
-0.00167301
-0.0028294
-0.0046285
-0.00733322
-0.0112595
-0.0166696
-0.0239399
-0.0331386
-0.0434628
-0.0419022
-0.041061
-0.0415093
-0.0418052
-0.0411572
-0.0304585
-0.0419026
-0.0479111
-0.0423793
-0.0488687
-0.042297
-0.0676847
-0.0288012
-0.0149487
-0.00686083
-0.00276635
-0.000983612
-0.00031019
-8.74352e-05
-2.8084e-05
-1.4768e-05
-1.17095e-05
-1.33512e-05
-2.7957e-05
-1.36154e-05
-1.36158e-05
-1.33516e-05
-1.17097e-05
-2.79573e-05
-1.21315e-05
-1.39267e-05
-1.38725e-05
-1.60232e-05
-1.30149e-05
-1.44866e-05
-1.15251e-05
-1.21239e-05
-1.51597e-05
-2.89641e-05
-2.80676e-05
-3.11057e-05
-2.80663e-05
-1.44864e-05
-1.17382e-05
-1.33015e-05
-2.74407e-05
-1.3538e-05
-1.35383e-05
-1.33016e-05
-1.59599e-05
-1.3195e-05
-1.35446e-05
-1.35448e-05
-2.75801e-05
-1.31953e-05
-1.35749e-05
-1.0826e-05
-1.06753e-05
-9.80465e-06
-1.17256e-05
-1.0575e-05
-1.11249e-05
-1.96491e-05
-2.7712e-05
-1.93757e-05
-2.15785e-05
-1.27657e-05
-1.00787e-05
-1.29513e-05
-1.96267e-05
-4.65691e-05
-8.31e-05
-8.31004e-05
-7.29724e-05
-0.000159954
-0.000136685
-0.000302491
-0.000561222
-0.000467349
-0.000999697
-0.00174844
-0.00142049
-0.00293644
-0.00481972
-0.00381241
-0.00761084
-0.0116831
-0.00898741
-0.0173104
-0.0247876
-0.0185123
-0.0342115
-0.0466188
-0.0346662
-0.0570259
-0.0413091
-0.0550766
-0.0550763
-0.0612603
-0.0635571
-0.0544742
-0.0500915
-0.0741029
-0.0474919
-0.0474922
-0.0479194
-0.0740782
-0.048495
-0.0484952
-0.0465452
-0.0737846
-0.0603563
-0.0603562
-0.0748286
-0.107856
-0.0748288
-0.0761272
-0.106675
-0.0760937
-0.088652
-0.0724939
-0.0706447
-0.0578114
-0.0668869
-0.0832388
-0.0752648
-0.0465452
-0.0447229
-0.0734354
-0.0581344
-0.0761538
-0.106682
-0.0761408
-0.0841009
-0.0775434
-0.0783071
-0.0775426
-0.0734351
-0.0578113
-0.0706451
-0.0760913
-0.106675
-0.0761265
-0.0668878
-0.0832387
-0.0840998
-0.0761437
-0.10668
-0.0761547
-0.0581341
-0.0668327
-0.0753087
-0.107936
-0.0749043
-0.0606057
-0.0738804
-0.0464403
-0.0604015
-0.0636176
-0.0647622
-0.0303157
-0.0158184
-0.00727333
-0.00293374
-0.00104252
-0.000328184
-9.21894e-05
-8.38094e-05
-7.3561e-05
-7.35062e-05
-7.34852e-05
-7.45268e-05
-0.000145174
-0.0002814
-0.000509898
-0.000933726
-0.0015974
-0.00274259
-0.00441981
-0.0071044
-0.0107526
-0.0161581
-0.0228288
-0.0321481
-0.0304352
-0.0311743
-0.0320494
-0.0312735
-0.022798
-0.0160901
-0.0227982
-0.015842
-0.0161279
-0.0157688
-0.0105786
-0.0107878
-0.00716045
-0.00695223
-0.00714484
-0.010753
-0.0106883
-0.0107317
-0.0106569
-0.00726123
-0.00699847
-0.00698581
-0.0107101
-0.0106713
-0.0158846
-0.0160141
-0.0226052
-0.0314441
-0.0306399
-0.0415093
-0.0400696
-0.0457509
-0.0803129
-0.0668331
-0.0604012
-0.04644
-0.0646168
-0.0422131
-0.0316289
-0.0298722
-0.0156468
-0.00719477
-0.0029017
-0.00103101
-0.000324726
-9.16325e-05
-2.89637e-05
-1.5159e-05
-1.21232e-05
-2.75794e-05
-1.15245e-05
-1.30148e-05
-1.60227e-05
-2.91148e-05
-3.31248e-05
-3.33469e-05
-3.3528e-05
-3.35034e-05
-2.96818e-05
-1.67743e-05
-3.71924e-05
-7.66846e-05
-8.57956e-05
-0.00015053
-0.000139487
-7.25395e-05
-8.35326e-05
-9.42861e-05
-2.76323e-05
-2.76047e-05
-2.70485e-05
-2.2209e-05
-2.95903e-05
-0.000101369
-8.8815e-05
-4.73644e-05
-9.34508e-05
-0.000340339
-0.000330439
-0.000355841
-0.00112372
-0.00107862
-0.000633731
-0.000184031
-0.000175622
-0.000143341
-0.000144139
-0.00027661
-0.000275874
-0.000161938
-0.000144755
-8.53072e-05
-9.38555e-05
-0.00033979
-0.001104
-0.00110409
-0.00315084
-0.00309902
-0.00315091
-0.00779838
-0.00783398
-0.00512841
-0.00192042
-0.0018538
-0.00158708
-0.00158372
-0.00270295
-0.00268951
-0.00168925
-0.00159153
-0.000915623
-0.000555207
-0.000507733
-0.000309215
-0.00050537
-0.00091948
-0.000554192
-0.000505486
-0.000277419
-0.000161392
-0.000189492
-0.000184379
-0.000159949
-6.97674e-05
-8.33823e-05
-3.66948e-05
-3.9143e-05
-1.57594e-05
-3.83531e-05
-4.8724e-05
-4.99635e-05
-4.35613e-05
-4.64672e-05
-4.66852e-05
-2.92915e-05
-4.90493e-05
-2.28632e-05
-2.80615e-05
-9.92548e-05
-8.87625e-05
-0.000188397
-0.00017601
-0.000341828
-0.00110797
-0.00316508
-0.0031585
-0.00794429
-0.00790585
-0.0174255
-0.0174086
-0.0169602
-0.0321638
-0.0341579
-0.0248197
-0.0120506
-0.0117924
-0.0107097
-0.0106565
-0.0158844
-0.0157613
-0.0106883
-0.0107314
-0.00695742
-0.0045354
-0.00440599
-0.00288008
-0.00438207
-0.00699828
-0.00452975
-0.00439621
-0.00270204
-0.00168719
-0.00191969
-0.000639901
-0.00061977
-0.000561198
-0.000254965
-0.000302475
-0.00013668
-0.00014048
-0.000299311
-0.000552621
-0.000979472
-0.000979468
-0.000824687
-0.00170558
-0.00144651
-0.00286083
-0.00234693
-0.00467939
-0.00387225
-0.0073821
-0.00588965
-0.0112998
-0.00909701
-0.0167177
-0.0129525
-0.0238205
-0.0186448
-0.0331445
-0.0248303
-0.042876
-0.0335444
-0.0582005
-0.0495471
-0.0582003
-0.0413089
-0.0570245
-0.0346657
-0.0466185
-0.0250093
-0.0342107
-0.018512
-0.0247873
-0.013084
-0.01731
-0.00898735
-0.0116831
-0.00593934
-0.00761072
-0.00381229
-0.00481968
-0.00236017
-0.00293631
-0.00142044
-0.00174842
-0.000825166
-0.000999649
-0.000467329
-0.000477392
-0.000666966
-0.00020565
-6.04128e-05
-2.19872e-05
-1.78164e-05
-3.49733e-05
-0.000110593
-0.000364044
-0.00112092
-0.00310822
-0.00762653
-0.0163889
-0.0305271
-0.0473404
-0.0609239
-0.058337
-0.0583369
-0.0517107
-0.063322
-0.0442713
-0.0338205
-0.0599679
-0.0430951
-0.0467597
-0.0400139
-0.0408193
-0.0398534
-0.0335441
-0.0428754
-0.0248298
-0.0331444
-0.0290256
-0.0303038
-0.0158618
-0.0129521
-0.0167177
-0.0238198
-0.018645
-0.0231201
-0.0113731
-0.00909692
-0.0112994
-0.00588955
-0.00738221
-0.00687951
-0.00730197
-0.00295078
-0.00105191
-0.000824664
-0.0017055
-0.00286087
-0.00467923
-0.00387211
-0.00489591
-0.00185267
-0.0010902
-0.000343293
-9.75087e-05
-9.53701e-05
-7.29723e-05
-0.000162378
-8.828e-05
-0.00016238
-0.000140482
-0.000299315
-0.000257873
-0.000552652
-0.000477404
-0.000619777
-0.000333349
-0.00025786
-0.000304799
-0.00018438
-4.87249e-05
-3.9145e-05
-3.6697e-05
-8.33868e-05
-3.83555e-05
-4.657e-05
-1.93757e-05
-1.9627e-05
-2.6507e-05
-1.29518e-05
-1.00786e-05
-1.27649e-05
-1.38119e-05
-2.15809e-05
-1.40184e-05
-1.14353e-05
-1.3277e-05
-1.05738e-05
-1.06737e-05
-1.17262e-05
-9.804e-06
-1.23872e-05
-1.0895e-05
-1.11065e-05
-1.08955e-05
-9.9048e-06
-1.56626e-05
-1.23875e-05
-1.35757e-05
-1.32777e-05
-1.17616e-05
-1.14362e-05
-1.40178e-05
-1.37696e-05
-1.09118e-05
-1.01084e-05
-1.25975e-05
-1.22039e-05
-1.10875e-05
-1.31849e-05
-1.21041e-05
-1.52753e-05
-1.59081e-05
-2.68272e-05
-1.10331e-05
-1.6234e-05
-3.10964e-05
-3.16069e-05
-1.64314e-05
-9.81871e-05
-0.000344602
-0.00109295
-0.00307539
-0.00307108
-0.00762302
-0.016591
-0.0316795
-0.0608264
-0.0568146
-0.0940702
-0.054474
-0.0635585
-0.0915555
-0.0758705
-0.0758686
-0.0915558
-0.0965974
-0.0552925
-0.0772978
-0.0716282
-0.0735504
-0.0452112
-0.0588443
-0.0661904
-0.0767082
-0.107088
-0.077084
-0.089563
-0.0702755
-0.0828424
-0.0775582
-0.079008
-0.0798021
-0.0850607
-0.102479
-0.0798047
-0.0965977
-0.0772992
-0.055292
-0.0478859
-0.0735502
-0.0588439
-0.045211
-0.0458726
-0.0738806
-0.060607
-0.0749033
-0.107935
-0.0753098
-0.0830789
-0.078638
-0.079008
-0.0797035
-0.076778
-0.0478855
-0.0674751
-0.074098
-0.0825021
-0.0786396
-0.0773103
-0.0830786
-0.0764494
-0.0752651
-0.0447231
-0.0646168
-0.042213
-0.0400694
-0.0434499
-0.0339301
-0.0175329
-0.024453
-0.0228037
-0.0226044
-0.0314444
-0.031109
-0.0218796
-0.0228256
-0.0160135
-0.0245992
-0.017608
-0.00796178
-0.0118484
-0.00499919
-0.00185721
-0.000608147
-0.000607254
-0.000920509
-0.000994375
-0.000648455
-0.00049302
-0.00030749
-0.000518119
-0.000935579
-0.000992351
-0.00160978
-0.00155071
-0.000916552
-0.000986719
-0.00268778
-0.00283936
-0.00443953
-0.00431276
-0.00283012
-0.00695211
-0.00716035
-0.0107879
-0.0105784
-0.00714471
-0.0157685
-0.0158306
-0.0228944
-0.0227225
-0.0158067
-0.0259347
-0.0342154
-0.0604745
-0.0598087
-0.0589177
-0.0432306
-0.0439213
-0.0466912
-0.0343626
-0.0343584
-0.0177295
-0.00803253
-0.003202
-0.00112766
-0.000352597
-0.000328038
-0.00062061
-0.000558957
-0.00051562
-0.000317542
-0.000515654
-0.000926435
-0.00101797
-0.00160254
-0.00160247
-0.000926457
-0.00103191
-0.000326619
-9.37078e-05
-5.14461e-05
-4.37056e-05
-4.61297e-05
-3.75818e-05
-2.26692e-05
-3.75873e-05
-7.93195e-05
-9.06173e-05
-0.000150082
-0.000150068
-7.93256e-05
-5.28113e-05
-3.71237e-05
-1.84237e-05
-1.84229e-05
-1.2593e-05
-1.62972e-05
-3.7127e-05
-3.71936e-05
-1.67731e-05
-2.96836e-05
-7.25403e-05
-8.58017e-05
-0.000139501
-0.000150528
-7.6694e-05
-4.61312e-05
-5.14466e-05
-4.99642e-05
-9.21909e-05
-6.97689e-05
-7.41566e-05
-8.38109e-05
-0.000143342
-0.000161392
-0.000276616
-0.000309234
-0.000507763
-0.000555231
-0.000915644
-0.000933753
-0.000986786
-0.0015508
-0.00160982
-0.000992431
-0.000916593
-0.000493067
-0.000518121
-0.000307511
-0.000277
-0.000304023
-0.000509927
-0.000281407
-0.000275881
-0.00014476
-0.000161943
-0.000145182
-8.3537e-05
-7.45281e-05
-7.34864e-05
-8.53095e-05
-0.000144143
-7.35068e-05
-7.35618e-05
-3.3125e-05
-4.35595e-05
-3.33466e-05
-1.5365e-05
-3.3529e-05
-4.37047e-05
-3.35032e-05
-1.40436e-05
-1.31267e-05
-1.34136e-05
-2.92907e-05
-4.66879e-05
-4.64682e-05
-4.73675e-05
-2.95916e-05
-2.19879e-05
-6.04143e-05
-0.000205658
-0.000101369
-0.000355888
-0.000667001
-0.0019601
-0.00112384
-0.00315116
-0.00512048
-0.00512034
-0.00196001
-0.00144646
-0.0117637
-0.0117641
-0.00779876
-0.0169605
-0.0235697
-0.0235688
-0.0401154
-0.0401163
-0.0321643
-0.0517119
-0.0633295
-0.0442719
-0.0434647
-0.0304652
-0.0419023
-0.0400141
-0.0462201
-0.0439213
-0.0636178
-0.0647625
-0.030316
-0.0158186
-0.00727341
-0.00293379
-0.00104254
-0.000328189
-0.000254976
-0.000288629
-0.000306135
-0.000505498
-0.000554216
-0.000919499
-0.00100425
-0.0015916
-0.00168927
-0.00268959
-0.00274264
-0.00283025
-0.0043129
-0.00443951
-0.00283946
-0.00268784
-0.00274307
-0.00169505
-0.00270848
-0.0029036
-0.00441984
-0.0044198
-0.00270851
-0.00169504
-0.00274295
-0.00187372
-0.00113176
-0.000356866
-0.00010374
-3.06071e-05
-5.28197e-05
-2.806e-05
-1.36571e-05
-9.07358e-06
-1.33805e-05
-1.4805e-05
-1.14194e-05
-1.36203e-05
-1.59072e-05
-1.14087e-05
-1.59476e-05
-1.16374e-05
-1.31518e-05
-2.68263e-05
-1.25167e-05
-1.3594e-05
-2.28605e-05
-2.76324e-05
-2.76032e-05
-2.70482e-05
-1.12602e-05
-1.283e-05
-2.91153e-05
-1.33983e-05
-1.16693e-05
-1.41194e-05
-3.29086e-05
-1.576e-05
-2.55265e-05
-1.2716e-05
-1.19396e-05
-2.22071e-05
-9.34556e-05
-8.88199e-05
-0.000184048
-0.000151373
-0.000175635
-0.00027743
-0.000340369
-0.000330491
-0.000633781
-0.000533911
-0.000961552
-0.000994408
-0.00158715
-0.00168723
-0.00270214
-0.00270303
-0.00288022
-0.00440613
-0.00453536
-0.0069577
-0.00710452
-0.00441999
-0.0049994
-0.00498458
-0.00439641
-0.00452991
-0.00438227
-0.00290172
-0.00103103
-0.000324733
-9.1634e-05
-0.000189493
-0.000639907
-0.0019197
-0.00185268
-0.00489594
-0.0050879
-0.00508787
-0.011846
-0.0106709
-0.0158196
-0.0158504
-0.0240846
-0.0218355
-0.0312735
-0.0304645
-0.0248393
-0.0122067
-0.00523794
-0.00197513
-0.000658355
-0.00019513
-0.00016452
-0.000283298
-0.000282773
-0.000282761
-0.000283326
-0.00016452
-0.000195132
-0.000658363
-0.000558975
-0.00093564
-0.000620653
-0.000184951
-9.92652e-05
-0.00035262
-0.00112773
-0.00187378
-0.00197062
-0.000648508
-0.000608202
-0.000607303
-0.000920552
-0.00110417
-0.00107875
-0.0019206
-0.00167311
-0.00282949
-0.0028508
-0.00462871
-0.00733335
-0.00718471
-0.0112601
-0.01667
-0.0158511
-0.0228044
-0.0218357
-0.0312741
-0.0331391
-0.0250097
-0.0239406
-0.0130842
-0.0248209
-0.0120512
-0.00512874
-0.00309942
-0.00315113
-0.00790659
-0.00783512
-0.017427
-0.0174107
-0.0338223
-0.0341571
-0.0599708
-0.0430954
-0.0514891
-0.0792169
-0.070276
-0.0770834
-0.107087
-0.0767088
-0.0661908
-0.0803004
-0.0467607
-0.0432313
-0.0410621
-0.0298723
-0.0156469
-0.00719485
-0.00762586
-0.0165805
-0.0240847
-0.0231202
-0.0113732
-0.011846
-0.0122068
-0.00717903
-0.00289821
-0.00523798
-0.00197514
-0.00454473
-0.00709844
-0.00699474
-0.00730375
-0.0107425
-0.0107424
-0.00699477
-0.00454465
-0.00709827
-0.00502144
-0.00528722
-0.00308176
-0.00197054
-0.00107053
-0.0125064
-0.00782039
-0.0118783
-0.0161276
-0.0158421
-0.0107028
-0.0156053
-0.0297981
-0.0635392
-0.0597186
-0.0479196
-0.0638299
-0.0408194
-0.0398536
-0.0674758
-0.0500919
-0.0767776
-0.0740981
-0.0825017
-0.0828417
-0.0716303
-0.0895632
-0.0775586
-0.0773118
-0.0801222
-0.0676849
-0.0459325
-0.043427
-0.0341442
-0.0246245
-0.0218925
-0.0434266
-0.0604649
-0.064497
-0.0575686
-0.0599026
-0.0593333
-0.0589666
-0.040023
-0.0176907
-0.00803278
-0.00320615
-0.0050215
-0.00320208
-0.00803242
-0.0118784
-0.0107029
-0.0125066
-0.00528736
-0.00316525
-0.00110806
-0.000341861
-9.42921e-05
-9.38575e-05
-0.00033981
-0.00110407
-0.00185398
-0.00158379
-0.00315871
-0.00794473
-0.0117931
-0.0158199
-0.0244538
-0.0245993
-0.0118491
-0.007962
-0.0176085
-0.017534
-0.0339315
-0.0598106
-0.0434496
-0.0342168
-0.0604748
-0.0466919
-0.0259349
-0.0246249
-0.0177297
-0.0174601
-0.0343631
-0.00782122
-0.00185733
-0.00159747
-0.000176027
-0.000188416
-4.9052e-05
-8.87769e-05
-0.000328086
-0.00107069
-0.00308243
-0.0248393
-0.0174577
-0.00593951
-0.00236024
-0.000825211
-0.000505386
-0.000184939
-0.00027699
-0.000304004
-1.01079e-05
-1.09116e-05
-1.37697e-05
-1.31846e-05
-1.1347e-05
-1.1085e-05
-1.22028e-05
-1.25984e-05
-9.906e-06
-1.52752e-05
-1.21029e-05
-1.84433e-05
-1.74803e-05
-1.25925e-05
-1.62974e-05
-1.24323e-05
-1.33767e-05
-0.00498417
-0.00698559
-0.00718453
-0.0306389
-0.0458725
-0.0638297
-0.0764462
-1.21308e-05
-9.19963e-06
-0.00234692
-0.00274565
-0.000967685
-0.0151168
-0.00285063
-0.00726097
-0.000306118
-0.00100421
-1.41199e-05
-1.53646e-05
-1.40424e-05
-0.0724938
-0.0886522
-0.0764028
-0.0770911
-0.0764029
-0.0541037
-0.0575693
2.28592e-05
2.80595e-05
9.92525e-05
8.57946e-05
7.25367e-05
7.66838e-05
0.000150529
0.000139481
8.35282e-05
7.45244e-05
3.35021e-05
1.40424e-05
1.31535e-05
1.16413e-05
1.31281e-05
1.34148e-05
1.16713e-05
1.33998e-05
1.28315e-05
1.1263e-05
1.27187e-05
1.1946e-05
1.3813e-05
1.57594e-05
2.15805e-05
1.27665e-05
1.00793e-05
1.40175e-05
1.2951e-05
9.20119e-06
1.29507e-05
1.00784e-05
1.27661e-05
1.38129e-05
2.15803e-05
1.57594e-05
3.2907e-05
2.55243e-05
1.19448e-05
1.27175e-05
1.12625e-05
1.28313e-05
1.3399e-05
2.91147e-05
3.33444e-05
3.35267e-05
3.35013e-05
2.92888e-05
1.34146e-05
1.3127e-05
1.16407e-05
1.31536e-05
1.25219e-05
2.68253e-05
1.35942e-05
1.62969e-05
3.71246e-05
3.75855e-05
2.26669e-05
1.84225e-05
3.71208e-05
1.6296e-05
1.35932e-05
2.68264e-05
2.96803e-05
1.6772e-05
3.71902e-05
4.6132e-05
7.93253e-05
7.93185e-05
9.06143e-05
0.000150062
0.000164515
0.000283289
0.000307484
0.000276984
0.00028139
0.000303992
0.000509876
0.000507716
0.000275863
0.000161935
0.000144751
0.000145169
8.74329e-05
0.000310183
0.000983596
0.00276631
0.00686074
0.0149486
0.0288011
0.0676848
0.0734351
0.0581343
0.0761552
0.0668326
0.0753091
0.107935
0.0749035
0.0767081
0.107088
0.0770829
0.0702757
0.0895626
0.0772976
0.0716288
0.0478856
0.0674753
0.0552924
0.0965973
0.091555
0.0758703
0.102479
0.0758678
0.0915553
0.0965967
0.0772983
0.0716289
0.0702759
0.0895627
0.0770829
0.107086
0.076708
0.0749037
0.0606061
0.0604017
0.0581342
0.0668328
0.0753092
0.0761553
0.10668
0.0761434
0.0886522
0.0760909
0.106676
0.0761269
0.0748282
0.0668876
0.0603563
0.0603565
0.0748285
0.0761272
0.106675
0.0760935
0.0886517
0.0724935
0.076141
0.106681
0.057652
0.0602806
0.0825473
0.0541029
0.0603401
0.0575687
0.0579627
0.059333
0.0589661
0.059333
0.0437081
0.0459326
0.0459327
0.0802936
0.0579624
0.0575678
0.0603401
0.0541044
0.0602815
0.0576513
0.0579189
0.059394
0.0589156
0.0592796
0.0577468
0.0568484
0.0592293
0.0533927
0.0603387
0.0792161
0.051489
0.0434639
0.0331388
0.0239406
0.0166696
0.0112601
0.00733329
0.00462873
0.00282944
0.00167308
0.000961529
0.000533898
0.000288623
0.000151372
7.41544e-05
7.35608e-05
7.35047e-05
7.34844e-05
7.45251e-05
7.25367e-05
8.57972e-05
7.66926e-05
3.71906e-05
1.67721e-05
2.9681e-05
1.40426e-05
2.80834e-05
8.74363e-05
0.000310193
0.000983616
0.00276635
0.00686081
0.0149486
0.0288011
0.0676847
0.0734351
0.0447231
0.0465451
0.0646168
0.0484953
0.048495
0.0465452
0.044723
0.0646168
0.0464402
0.0604011
0.0606063
0.0661904
0.0588435
0.0735504
0.0452111
0.0458726
0.0738805
0.0636176
0.0647623
0.0608263
0.0647623
0.0735503
0.0478854
0.0500913
0.0674752
0.0544741
0.0544741
0.0500913
0.074103
0.0474924
0.0479195
0.0479193
0.0638298
0.0474919
0.0740978
0.0797039
0.0790074
0.0775575
0.0828424
0.0798022
0.0850608
0.0940696
0.0568145
0.0413086
0.0688436
0.0592674
0.0539639
0.063816
0.0550761
0.0581999
0.0428753
0.042875
0.02483
0.0342107
0.0185116
0.0247872
0.0173101
0.00898731
0.011683
0.00761071
0.0038123
0.00481967
0.00293637
0.00142044
0.00174842
0.000999674
0.000467331
0.000561203
0.000302479
0.000136677
0.000159947
8.33828e-05
3.66951e-05
3.91427e-05
1.93758e-05
1.96254e-05
1.96252e-05
1.40173e-05
1.14354e-05
1.3538e-05
1.33011e-05
1.59587e-05
1.31947e-05
1.31943e-05
1.3544e-05
1.64297e-05
1.36153e-05
1.36149e-05
1.33503e-05
1.62318e-05
1.43223e-05
1.43225e-05
1.25998e-05
1.55394e-05
1.22732e-05
1.22788e-05
1.3379e-05
1.48057e-05
1.14217e-05
1.36245e-05
1.14124e-05
1.59521e-05
1.13584e-05
1.32061e-05
1.47672e-05
1.21026e-05
1.52757e-05
1.59103e-05
1.22027e-05
1.25979e-05
1.11115e-05
1.56697e-05
1.10673e-05
1.38721e-05
1.51581e-05
1.21308e-05
1.3926e-05
1.6224e-05
2.8964e-05
2.80667e-05
9.21892e-05
0.000328182
0.00104253
0.00293377
0.00727335
0.0158185
0.0303158
0.030465
0.0419024
0.0410615
0.0415092
0.0418051
0.032148
0.0228286
0.016158
0.0107526
0.00710437
0.00441988
0.00274257
0.00159743
0.000933716
0.000509907
0.000281397
0.000145178
8.35322e-05
0.000139491
0.000150521
0.000150079
0.00028275
0.000317525
0.000282768
0.000515602
0.000518104
0.000493019
0.000916534
0.000935575
0.000992333
0.00155069
0.00098669
0.000933704
0.000555199
0.000915591
0.000919453
0.00100417
0.00158366
0.00158701
0.000920505
0.000554185
0.00050535
0.000309211
0.0002766
0.000144134
8.53041e-05
7.34829e-05
4.37027e-05
3.35259e-05
2.92889e-05
1.62267e-05
1.13574e-05
1.59521e-05
1.14123e-05
1.36259e-05
1.14206e-05
1.48076e-05
1.33742e-05
1.24334e-05
1.26004e-05
1.23519e-05
1.84416e-05
1.21037e-05
1.17095e-05
1.47677e-05
1.52753e-05
1.32059e-05
1.39271e-05
1.21314e-05
2.79566e-05
1.33504e-05
3.10953e-05
9.37057e-05
0.000326612
0.0010319
0.00289818
0.007179
0.0156052
0.0297979
0.0635391
0.0737846
0.0783068
0.0775427
0.0764473
0.0830781
0.0773131
0.107935
0.0825012
0.0588448
0.0452111
0.0458722
0.0638297
0.0408193
0.0400139
0.0462201
0.0457504
0.048021
0.0488688
0.0423795
0.0479113
0.0419023
0.0304587
0.0320493
0.0311743
0.0411571
0.0304354
0.0342154
0.0604747
0.0598097
0.0599707
0.0633294
0.0517115
0.032164
0.0341593
0.0442718
0.0338229
0.0174257
0.0174095
0.0169614
0.00779882
0.00783467
0.0120514
0.02482
0.0244532
0.031274
0.0314438
0.0226046
0.0228255
0.0218796
0.0311091
0.0306394
0.0298721
0.0636175
0.0738803
0.0464402
0.0752652
0.0786397
0.0740979
0.0767783
0.0552921
0.0635565
0.061261
0.0583359
0.0609236
0.0473403
0.0305268
0.0163887
0.00762666
0.00310831
0.00112096
0.000364045
0.000110592
3.49718e-05
1.78149e-05
2.19862e-05
2.1986e-05
2.95911e-05
0.00010137
0.000355871
0.00112382
0.00315116
0.00309925
0.0051288
0.00790632
0.00315102
0.00110413
0.00107868
0.00192058
0.00185386
0.00270209
0.00270295
0.00158374
0.00159155
0.00168923
0.00268952
0.00440602
0.00453532
0.00695749
0.0107313
0.0106883
0.0157615
0.0160135
0.0158845
0.0106566
0.0106712
0.0158199
0.0228036
0.0218356
0.0240845
0.0156467
0.00719474
0.00726104
0.00699832
0.00438214
0.00452979
0.00698575
0.0107098
0.00718471
0.0117927
0.0175333
0.0339303
0.0432305
0.0467601
0.0802998
0.0661904
0.0430952
0.0434495
0.0803124
0.0466915
0.0644956
0.060465
0.0343589
0.0343672
0.0259337
0.0245987
0.0176079
0.00796176
0.00794439
0.00315857
0.00110401
0.00033979
0.000340353
0.000330452
0.000633773
0.000607265
0.000920518
0.000919471
0.000505367
0.000507735
0.00055521
0.000915623
0.00100421
0.00103101
0.00290169
0.00288014
0.00191968
0.00168718
0.00158708
0.00099438
0.00185267
0.00293645
0.00236025
0.00481975
0.00381244
0.00761104
0.00593944
0.0116832
0.00898765
0.0173107
0.0130842
0.0247874
0.0185122
0.0342113
0.0250097
0.0466183
0.0346659
0.0570247
0.0430553
0.0335444
0.0398534
0.0398534
0.0570247
0.0346658
0.0466182
0.0335442
0.0582004
0.0413086
0.0550762
0.0495469
0.0638163
0.0539639
0.0592676
0.0603389
0.0688439
0.0612608
0.0635582
0.0767781
0.0798033
0.079009
0.0828418
0.0775554
0.0825009
0.0786379
0.0801222
0.0740783
0.0597185
0.0316288
0.0316794
0.0303038
0.0248302
0.033144
0.0238204
0.0167176
0.0112999
0.0112995
0.0058897
0.00738218
0.00387212
0.00467931
0.00234694
0.00286087
0.00144649
0.00170556
0.000824668
0.000979479
0.000477403
0.000552631
0.000257865
0.000299309
0.000140476
0.000162376
7.29724e-05
8.30993e-05
3.83533e-05
4.65691e-05
2.6506e-05
4.65688e-05
1.93751e-05
3.91422e-05
3.6695e-05
8.33857e-05
6.97692e-05
0.000159952
0.000136684
0.000302487
0.000254972
0.000561212
0.000467336
0.000999689
0.00082519
0.00174846
0.00142049
0.00144652
0.00170557
0.000967702
0.000979469
0.000552647
0.000299307
0.000162379
8.82801e-05
8.31013e-05
3.83545e-05
4.87238e-05
0.000184377
0.00014048
0.000205656
0.00066701
0.00196015
0.00512067
0.0117643
0.0235694
0.0401155
0.0401152
0.0583369
0.0517116
0.0321634
0.0235689
0.0331444
0.0186447
0.0238198
0.012952
0.0167178
0.00909692
0.011373
0.0158617
0.0129523
0.0151168
0.00730196
0.00588974
0.00738214
0.00467947
0.00286086
0.00234696
0.00295078
0.00274573
0.00105192
0.000824679
0.000333349
0.000257869
0.000304792
9.53693e-05
7.29718e-05
2.7712e-05
1.96479e-05
1.35379e-05
1.14352e-05
1.29401e-05
1.07829e-05
1.0782e-05
1.29395e-05
1.43041e-05
1.17621e-05
1.1292e-05
1.51026e-05
1.44859e-05
1.15245e-05
1.30147e-05
1.60243e-05
1.10412e-05
1.5491e-05
1.11422e-05
1.31636e-05
1.50569e-05
1.17265e-05
9.80079e-06
1.06739e-05
1.0574e-05
1.11253e-05
1.3983e-05
1.05739e-05
1.43063e-05
1.12937e-05
1.1762e-05
1.17387e-05
1.44861e-05
1.3015e-05
1.15251e-05
1.21237e-05
1.51587e-05
1.38721e-05
1.10656e-05
1.56659e-05
1.11121e-05
1.25977e-05
1.08933e-05
1.06731e-05
1.0825e-05
1.3277e-05
1.17383e-05
2.74404e-05
1.35746e-05
1.23876e-05
1.08943e-05
9.90579e-06
1.11053e-05
1.35743e-05
1.32767e-05
1.33011e-05
2.7441e-05
4.87241e-05
9.75078e-05
0.000343289
0.00109019
0.00307106
0.00762299
0.016591
0.0231201
0.0186451
0.02312
0.0303158
0.0250097
0.0434635
0.0304646
0.0312736
0.0218355
0.0226041
0.0160133
0.0157612
0.010688
0.0107312
0.0107524
0.00714462
0.00695196
0.00709823
0.00716022
0.0105782
0.0157683
0.0161274
0.0158303
0.022722
0.0158062
0.0161578
0.0228287
0.0228251
0.031109
0.0218797
0.0321475
0.0304357
0.0311739
0.0320491
0.0304584
0.0411571
0.0418053
0.0415087
0.0306392
0.0314439
0.0410612
0.0419018
0.0467602
0.0400139
0.04622
0.0439211
0.0457506
0.0400694
0.0480207
0.0422969
0.0488687
0.0479116
0.0423788
0.0604648
0.0599019
0.0434267
0.0400231
0.0413235
0.0307285
0.0312728
0.031273
0.0218921
0.022894
0.0158302
0.0161275
0.0157685
0.022722
0.0158066
0.0105784
0.0071604
0.00709835
0.00695208
0.00714484
0.00431282
0.00283944
0.00274301
0.00268776
0.00283017
0.00316514
0.001108
0.000341841
9.42858e-05
9.38564e-05
9.34524e-05
8.88199e-05
0.000184048
0.000175628
0.000277425
0.000276609
0.00014414
0.000144754
0.000161936
0.000275874
0.00030922
0.000324724
9.1632e-05
8.53049e-05
4.9963e-05
4.35603e-05
3.31228e-05
1.41192e-05
2.7047e-05
2.22076e-05
4.7365e-05
4.64653e-05
2.76022e-05
1.16724e-05
1.53642e-05
4.66848e-05
0.000176014
0.000608165
0.00185723
0.00499921
0.0118486
0.0125065
0.0174598
0.0177295
0.00803196
0.00782069
0.00528727
0.00502128
0.0118781
0.0107876
0.0107422
0.00730375
0.00699466
0.00699469
0.00454462
0.00441978
0.00290349
0.00270844
0.00270843
0.00169502
0.00160976
0.000992374
0.000935611
0.000916556
0.00155077
0.000986733
0.00197058
0.00308226
0.00320199
0.00112767
0.00107042
0.000648478
0.000620616
0.000518102
0.000307497
0.000283315
0.000276987
0.000493042
0.000304008
0.000188401
0.000328063
0.000352613
9.92595e-05
8.87625e-05
4.90479e-05
2.76298e-05
2.28607e-05
2.80591e-05
1.36579e-05
9.07295e-06
1.0947e-05
9.73585e-06
1.09985e-05
9.06583e-06
1.36668e-05
1.25914e-05
1.74591e-05
3.06055e-05
0.000103738
0.000184947
0.000164513
0.000195128
0.00018949
0.000161393
0.00014334
8.38082e-05
0.000639898
0.000554201
0.000505484
0.000306117
0.000619772
0.000477401
0.000619769
0.00185266
0.00489591
0.00727326
0.0158184
0.0130839
0.0239396
0.0158504
0.0158195
0.0106709
0.0106562
0.00726083
0.00695734
0.0045352
0.00440587
0.00441972
0.00283008
0.00268772
0.00274295
0.00283931
0.00431269
0.00443941
0.0045446
0.00441972
0.00502131
0.0080325
0.0176904
0.0341439
0.0246238
0.0246243
0.0434258
0.0400231
0.0419018
0.0413238
0.042213
0.0408193
0.0240845
0.0298722
0.0156467
0.0165805
0.011846
0.0113731
0.00909701
0.00489593
0.00387224
0.00508786
0.00762581
0.00307537
0.00109294
0.000344596
9.81854e-05
3.16069e-05
3.11057e-05
2.80674e-05
9.21885e-05
0.00032818
0.00104251
0.00293373
0.00236017
0.00462847
0.00285065
0.00270201
0.00168714
0.0027029
0.00288006
0.00268946
0.0016892
0.00159149
0.00159735
0.00274252
0.00185711
0.00185371
0.00192038
0.00315105
0.00779853
0.0169604
0.0117637
0.00512042
0.00196007
0.000666986
0.00112379
0.000355864
0.000205653
6.04112e-05
0.000101362
2.95892e-05
2.22095e-05
4.73615e-05
7.41539e-05
8.38069e-05
7.35592e-05
4.35585e-05
3.33451e-05
1.53641e-05
2.89642e-05
9.16304e-05
0.000324719
0.00103099
0.00290166
0.0071947
0.0118459
0.00508783
0.00452967
0.00439609
0.00438197
0.00699813
0.00698553
0.0073331
0.00718431
0.0112595
0.00593932
0.0166695
0.0120503
0.0248191
0.0331384
0.0442724
0.0514889
0.0430951
0.0592309
0.053391
0.0792158
0.0633238
0.0599676
0.0568479
0.0577471
0.0802996
0.0592794
0.0589177
0.0593952
0.0803123
0.0579192
0.0604741
0.0598086
0.0432313
0.0338208
0.0341585
0.0174251
0.0174092
0.0079056
0.00783403
0.0051283
0.00498395
0.0117922
0.0107095
0.0158843
0.0244525
0.0228035
0.0339295
0.0175327
0.00794396
0.00315838
0.00315072
0.003099
0.00110402
0.000994342
0.000961507
0.000533879
0.000306109
0.000277418
0.000161388
0.000143336
0.000151365
6.97666e-05
0.000288616
0.000254966
0.000184035
0.000633719
0.00107862
0.000607217
0.000505465
0.000340328
0.000330442
9.34512e-05
8.88116e-05
2.70485e-05
1.41196e-05
3.29065e-05
2.55268e-05
1.50606e-05
1.11412e-05
1.54925e-05
1.10425e-05
1.60249e-05
2.91155e-05
3.31234e-05
4.64637e-05
7.35041e-05
0.000175613
0.000175998
0.000608104
0.00110394
0.000339767
9.38487e-05
2.76032e-05
4.66807e-05
9.42802e-05
0.000341812
0.00110794
0.00316496
0.0079615
0.0176077
0.034215
0.0434501
0.0466918
0.0343581
0.0177288
0.0118781
0.0158419
0.0158418
0.0160898
0.0227974
0.0228937
0.0218923
0.0248391
0.0248391
0.042213
0.0400695
0.0122066
0.0107025
0.0122066
0.0107025
0.0107876
0.0107422
0.00523787
0.00523792
0.00197512
0.00197511
0.00191966
0.000639895
0.000189489
0.000184376
4.99632e-05
2.75795e-05
1.35442e-05
5.14448e-05
0.000195126
0.000658348
0.00065835
0.000558961
0.000926417
0.00101792
0.000926446
0.000558954
0.000620607
0.00113171
0.00187367
0.00160249