/*--------------------------------*- C++ -*----------------------------------*\
| =========                 |                                                 |
| \\      /  F ield         | OpenFOAM: The Open Source CFD Toolbox           |
|  \\    /   O peration     | Version:  2306                                  |
|   \\  /    A nd           | Website:  www.openfoam.com                      |
|    \\/     M anipulation  |                                                 |
\*---------------------------------------------------------------------------*/
FoamFile
{
    version     2.0;
    format      ascii;
    arch        "LSB;label=32;scalar=64";
    class       volScalarField;
    location    "0.6";
    object      mag(U);
}
// * * * * * * * * * * * * * * * * * * * * * * * * * * * * * * * * * * * * * //

dimensions      [0 1 -1 0 0 0 0];

internalField   nonuniform List<scalar> 
1681
(
8.02077e-05
0.000158949
0.000157303
5.20293e-05
0.000272857
0.000685568
0.00121321
0.00183032
0.00251209
0.00323449
0.00397478
0.00471185
0.00542629
0.00610056
0.00671898
0.00726774
0.00773497
0.0081107
0.00838691
0.00855757
0.00861873
0.00856851
0.00840727
0.00813764
0.00776457
0.00729547
0.00674018
0.00611102
0.00542274
0.0046924
0.00393932
0.00318474
0.00245164
0.00176426
0.00114758
0.000626662
0.000226961
6.96498e-05
0.00017356
0.000163416
7.95868e-05
0.000160038
0.000108863
0.000209011
0.000801219
0.00169779
0.00288857
0.0043392
0.0060015
0.00782076
0.00974013
0.0117035
0.0136571
0.0155508
0.0173382
0.0189777
0.0204327
0.0216711
0.0226663
0.0233968
0.0238467
0.0240054
0.0238686
0.0234374
0.0227193
0.0217282
0.020484
0.0190134
0.0173491
0.0155301
0.0136012
0.0116123
0.00961776
0.00767502
0.0058434
0.00418156
0.00274444
0.00157838
0.000714049
0.000157429
0.000133939
0.000164192
0.000162713
0.000201937
0.00101804
0.00223567
0.00383939
0.005813
0.00811911
0.0107015
0.0134914
0.0164135
0.0193903
0.0223455
0.025206
0.0279042
0.0303781
0.0325724
0.0344394
0.0359389
0.0370385
0.0377142
0.0379508
0.0377415
0.0370887
0.0360042
0.0345091
0.0326338
0.0304184
0.0279122
0.0251726
0.0222657
0.0192641
0.0162456
0.0132913
0.0104825
0.00789681
0.00560331
0.00365637
0.0020898
0.000915495
0.000146676
0.000178994
5.54488e-05
0.000790464
0.00224098
0.00418507
0.00656369
0.00934086
0.0124715
0.0158951
0.0195375
0.0233152
0.0271395
0.0309206
0.0345712
0.0380088
0.0411567
0.0439468
0.0463189
0.048223
0.0496182
0.0504748
0.0507734
0.050506
0.0496762
0.0482988
0.0464008
0.0440207
0.0412085
0.0380251
0.034542
0.0308393
0.0270045
0.0231304
0.0193114
0.0156404
0.0122039
0.00907701
0.00631997
0.00397652
0.00208104
0.000690245
8.05826e-05
0.000248592
0.00169784
0.00388794
0.00663194
0.00983032
0.0134242
0.0173572
0.0215645
0.0259699
0.0304879
0.0350257
0.0394881
0.0437801
0.0478109
0.0514953
0.0547565
0.0575267
0.0597486
0.061376
0.0623749
0.0627234
0.0624127
0.0614467
0.0598431
0.0576326
0.054859
0.0515789
0.0478609
0.0437842
0.0394375
0.0349161
0.0303195
0.0257483
0.0212994
0.0170624
0.0131162
0.00952797
0.00635606
0.00366127
0.00154343
0.000190103
0.000660881
0.00293738
0.00597991
0.0095922
0.0136473
0.0180668
0.0227831
0.0277269
0.0328223
0.0379853
0.0431245
0.0481449
0.0529503
0.0574472
0.0615475
0.0651701
0.0682436
0.0707069
0.0725108
0.073619
0.0740081
0.0736689
0.0726055
0.0708371
0.0683964
0.0653296
0.0616968
0.0575693
0.0530297
0.0481687
0.0430836
0.0378745
0.0326416
0.027481
0.0224824
0.0177271
0.0132902
0.00924564
0.00567834
0.00272018
0.00057211
0.00120891
0.00450669
0.00852743
0.0130831
0.0180338
0.0232887
0.0287721
0.0344122
0.0401351
0.0458612
0.0515048
0.0569756
0.0621817
0.0670324
0.0714407
0.0753265
0.0786181
0.0812543
0.0831852
0.0843739
0.0847968
0.0844441
0.0833205
0.0814449
0.0788502
0.0755826
0.0717015
0.0672774
0.0623906
0.0571295
0.051587
0.0458588
0.0400402
0.0342226
0.0284934
0.0229351
0.0176303
0.012666
0.00814567
0.00421986
0.00108693
0.00188233
0.00639674
0.0115318
0.0171162
0.0230088
0.0291142
0.0353534
0.0416555
0.0479509
0.0541676
0.0602289
0.0660537
0.0715587
0.0766606
0.0812786
0.0853377
0.0887696
0.0915158
0.0935285
0.0947722
0.0952236
0.0948734
0.0937257
0.091798
0.0891215
0.0857397
0.0817076
0.0770908
0.0719629
0.0664046
0.0605
0.0543354
0.047997
0.0415688
0.0351331
0.0287726
0.0225741
0.0166346
0.0110689
0.00603594
0.00172399
0.00267363
0.00859718
0.0149898
0.0216983
0.0285885
0.035567
0.0425572
0.0494926
0.0563118
0.0629533
0.0693527
0.0754423
0.0811516
0.0864092
0.0911449
0.0952925
0.0987913
0.101589
0.103641
0.104916
0.105392
0.105061
0.103924
0.101998
0.09931
0.0958972
0.0918074
0.0870968
0.0818279
0.0760687
0.0698902
0.063365
0.0565662
0.0495673
0.0424432
0.0352735
0.028147
0.0211657
0.0144503
0.00816154
0.0024767
0.00357738
0.0110992
0.018896
0.0268326
0.0347849
0.0426673
0.0504104
0.0579567
0.0652562
0.0722616
0.0789246
0.0851946
0.0910179
0.0963394
0.101104
0.105258
0.108753
0.111543
0.113594
0.114878
0.115375
0.115079
0.11399
0.11212
0.10949
0.106128
0.102072
0.0973644
0.0920519
0.0861852
0.0798175
0.0730033
0.0657992
0.0582646
0.050464
0.042471
0.0343727
0.0262724
0.0182925
0.0105925
0.00334118
0.00459018
0.0138968
0.0232471
0.0325209
0.0416073
0.0504315
0.0589358
0.0670754
0.074816
0.082128
0.0889831
0.0953514
0.101201
0.106496
0.111202
0.115281
0.1187
0.121426
0.123436
0.124705
0.125221
0.124976
0.123971
0.122211
0.119709
0.116482
0.112552
0.107944
0.102686
0.0968045
0.0903314
0.0832986
0.0757421
0.0677035
0.0592336
0.0503967
0.0412747
0.0319688
0.0226009
0.0133286
0.00431609
0.00571044
0.0169869
0.0280412
0.0387659
0.0490633
0.0588724
0.0681508
0.0768703
0.0850158
0.0925792
0.0995561
0.105941
0.111728
0.116906
0.121463
0.125386
0.128656
0.13126
0.133184
0.134416
0.134947
0.134771
0.133886
0.132291
0.12999
0.126983
0.123275
0.118867
0.113762
0.107962
0.101469
0.0942896
0.0864337
0.0779218
0.068787
0.0590808
0.048877
0.0382722
0.0273856
0.0163744
0.00540256
0.00693815
0.0203695
0.0332797
0.0455711
0.0571597
0.0680003
0.0780683
0.0873561
0.0958712
0.103631
0.110659
0.116978
0.122612
0.12758
0.131898
0.135575
0.138621
0.14104
0.142833
0.144001
0.144541
0.144451
0.143725
0.142355
0.140329
0.137632
0.134244
0.130141
0.125296
0.119677
0.113255
0.106004
0.0979047
0.0889515
0.0791561
0.0685535
0.0572059
0.0452031
0.0326618
0.0197393
0.00660397
0.00827466
0.024048
0.0389669
0.0529424
0.0659037
0.0778232
0.088697
0.0985409
0.107389
0.115289
0.122294
0.128462
0.133848
0.138508
0.142488
0.14583
0.14857
0.150735
0.152347
0.153421
0.153964
0.153977
0.153448
0.152363
0.150691
0.148399
0.145438
0.141752
0.137278
0.131949
0.125696
0.118456
0.110176
0.100819
0.0903701
0.0788444
0.0662899
0.0527873
0.0384499
0.0234371
0.00792583
0.0097226
0.0280276
0.0451102
0.0608873
0.0753025
0.0883471
0.10004
0.110425
0.119567
0.127544
0.134448
0.140372
0.145412
0.149658
0.153196
0.156105
0.158449
0.160286
0.161662
0.162609
0.163144
0.163273
0.162982
0.162244
0.161013
0.159227
0.156805
0.153657
0.149678
0.144756
0.138782
0.131647
0.123258
0.113542
0.102454
0.0899831
0.07616
0.0610544
0.0447754
0.0274863
0.00937563
0.0112857
0.0323169
0.0517194
0.069416
0.085364
0.0995761
0.112098
0.123003
0.13239
0.140376
0.147092
0.152673
0.157257
0.160977
0.16396
0.166326
0.168178
0.169605
0.170682
0.17146
0.171973
0.172232
0.172219
0.171895
0.171192
0.17002
0.168262
0.165784
0.162434
0.158054
0.15248
0.145557
0.137146
0.12713
0.115427
0.101998
0.0868497
0.0700387
0.0516692
0.0319093
0.0109627
0.0129686
0.0369264
0.0588075
0.0785398
0.0960959
0.111512
0.124862
0.136256
0.145832
0.153747
0.160178
0.165305
0.169313
0.172382
0.174688
0.176393
0.177643
0.178568
0.179272
0.179836
0.180308
0.180706
0.181012
0.181171
0.181092
0.18065
0.17969
0.178026
0.175456
0.171766
0.166734
0.160151
0.151822
0.141581
0.129305
0.114915
0.0983934
0.079778
0.0591668
0.036733
0.0126983
0.0147774
0.0418692
0.0663901
0.0882725
0.107506
0.124152
0.138321
0.150161
0.159853
0.167604
0.173637
0.178185
0.181483
0.183765
0.185256
0.186168
0.186697
0.187014
0.187265
0.187556
0.187962
0.188507
0.18917
0.189884
0.19053
0.190946
0.190927
0.190239
0.188616
0.185783
0.181457
0.175363
0.167245
0.15688
0.144091
0.128757
0.110826
0.0903135
0.0673079
0.0419879
0.0145955
0.0167193
0.0471611
0.0744858
0.0986296
0.119601
0.137492
0.152453
0.164676
0.174394
0.181868
0.187374
0.191201
0.193641
0.194983
0.195506
0.195481
0.195153
0.194745
0.194444
0.194399
0.194702
0.195396
0.196457
0.1978
0.199279
0.200687
0.20177
0.202231
0.201743
0.199961
0.196529
0.191101
0.183351
0.172991
0.159778
0.14354
0.124181
0.101689
0.0761369
0.047709
0.0166692
0.0188029
0.0528217
0.0831168
0.109629
0.132387
0.151521
0.167226
0.179749
0.18938
0.19644
0.201268
0.204212
0.205625
0.205855
0.205243
0.204118
0.202783
0.201515
0.200555
0.200091
0.200251
0.201089
0.202585
0.204634
0.207058
0.209605
0.211962
0.213766
0.214621
0.214105
0.211785
0.207235
0.200048
0.189855
0.176343
0.159271
0.13849
0.113948
0.0857022
0.0539355
0.0189366
0.0210388
0.0588745
0.0923101
0.12129
0.145869
0.166222
0.182598
0.195308
0.204709
0.211191
0.215161
0.217034
0.217229
0.216159
0.214225
0.211819
0.209309
0.207033
0.205288
0.204313
0.204273
0.205246
0.207209
0.210044
0.213533
0.217373
0.221188
0.224548
0.226977
0.227971
0.227016
0.223592
0.217202
0.207386
0.19374
0.175943
0.153777
0.127139
0.0960566
0.0607115
0.0214177
0.0234408
0.0653489
0.102097
0.133635
0.160051
0.181569
0.198508
0.211256
0.220247
0.225953
0.228855
0.229445
0.228208
0.225625
0.222163
0.218279
0.214407
0.210954
0.208281
0.206687
0.20638
0.207466
0.20993
0.213629
0.218307
0.223605
0.229078
0.23422
0.238477
0.241257
0.241951
0.239945
0.234637
0.225456
0.211896
0.193532
0.170058
0.141305
0.107256
0.0680865
0.0241348
0.0260257
0.0722816
0.11252
0.146694
0.174932
0.197525
0.214877
0.227466
0.235826
0.240515
0.242106
0.241166
0.238258
0.233929
0.228715
0.223136
0.2177
0.212882
0.209118
0.206775
0.20612
0.207292
0.210281
0.214927
0.220924
0.227851
0.235192
0.242361
0.248718
0.253585
0.256255
0.256004
0.252114
0.243892
0.2307
0.211989
0.187339
0.156489
0.119363
0.0761168
0.0271143
0.0288155
0.0797199
0.123627
0.160495
0.190505
0.214036
0.231595
0.243777
0.251227
0.254613
0.254606
0.25186
0.247016
0.240689
0.233479
0.225977
0.218753
0.212363
0.207324
0.204085
0.202981
0.204198
0.207737
0.213411
0.220864
0.229601
0.239029
0.248479
0.257229
0.264509
0.269511
0.2714
0.269329
0.262458
0.249994
0.231233
0.205607
0.172732
0.132445
0.084867
0.0303874
0.0318393
0.0877244
0.13548
0.175075
0.20676
0.231026
0.248518
0.259972
0.266173
0.267916
0.265983
0.261122
0.254052
0.245458
0.236001
0.226329
0.217081
0.208892
0.202369
0.198058
0.196386
0.197597
0.201707
0.208498
0.217548
0.228282
0.240019
0.252011
0.263454
0.273491
0.281217
0.28568
0.285888
0.28084
0.269556
0.251136
0.224822
0.190063
0.146572
0.0944123
0.0339916
0.0351354
0.0963746
0.148161
0.190475
0.22367
0.248387
0.265447
0.27577
0.280308
0.280008
0.275776
0.268463
0.258865
0.247728
0.235766
0.223676
0.212157
0.201921
0.193674
0.188086
0.185698
0.186837
0.191542
0.199551
0.210355
0.223278
0.237549
0.252338
0.266769
0.279913
0.290774
0.298281
0.301296
0.298628
0.289081
0.271512
0.244913
0.208505
0.161826
0.104842
0.0379728
0.0387561
0.105775
0.161766
0.206739
0.241185
0.26596
0.282115
0.2908
0.29318
0.290375
0.283434
0.27331
0.260877
0.246931
0.23222
0.217475
0.203436
0.190883
0.180636
0.173512
0.17022
0.17121
0.176549
0.185906
0.198644
0.213958
0.230976
0.248795
0.266488
0.283071
0.297475
0.308524
0.314927
0.315291
0.308159
0.292088
0.265752
0.228059
0.178292
0.116264
0.042389
0.042773
0.116066
0.176422
0.223906
0.259223
0.283516
0.298152
0.304576
0.30421
0.298381
0.288291
0.275004
0.259453
0.242469
0.224812
0.20721
0.190417
0.175259
0.162672
0.153671
0.149215
0.149958
0.15601
0.166913
0.18182
0.199743
0.219697
0.240732
0.261899
0.282197
0.300519
0.315605
0.326017
0.330144
0.326236
0.312483
0.287141
0.248697
0.196063
0.128814
0.0473155
0.0472853
0.127432
0.19228
0.242006
0.277632
0.300716
0.313047
0.316451
0.312661
0.303248
0.289575
0.272809
0.253932
0.233778
0.213078
0.192512
0.172791
0.154733
0.139365
0.127966
0.121922
0.122287
0.129249
0.142062
0.159485
0.180258
0.203284
0.227615
0.252344
0.276516
0.299033
0.31859
0.33363
0.342318
0.342576
0.332152
0.308769
0.27034
0.215241
0.142659
0.0528529
0.0524337
0.140121
0.209523
0.261027
0.296154
0.317055
0.326089
0.32557
0.317611
0.304049
0.286421
0.265982
0.243734
0.220479
0.196867
0.17346
0.150822
0.129636
0.110898
0.0961692
0.0876451
0.0874035
0.0958364
0.111364
0.131873
0.155722
0.181793
0.209267
0.237395
0.265357
0.292141
0.316457
0.336663
0.350723
0.356203
0.350331
0.330161
0.292825
0.235918
0.158017
0.05914
0.0584222
0.154465
0.228349
0.280877
0.314349
0.331775
0.33629
0.330819
0.317923
0.299735
0.277959
0.253916
0.228603
0.202746
0.176867
0.151332
0.126428
0.102451
0.0799133
0.0600664
0.046253
0.0446473
0.056799
0.0770633
0.101362
0.128088
0.156581
0.186439
0.217247
0.24843
0.279143
0.308179
0.333876
0.354026
0.365837
0.365952
0.35059
0.315842
0.258168
0.175169
0.0663748
0.0655542
0.170902
0.248948
0.301287
0.331468
0.343745
0.34228
0.330766
0.312275
0.289246
0.263541
0.236533
0.209195
0.182185
0.155909
0.130578
0.106252
0.082872
0.0603017
0.0384045
0.0175464
0.010709
0.0306169
0.053714
0.0783273
0.104535
0.132484
0.162229
0.193663
0.226445
0.259914
0.292981
0.324009
0.35067
0.36984
0.377526
0.368949
0.338829
0.281996
0.194477
0.074851
0.0742946
0.190008
0.271416
0.321655
0.346259
0.351273
0.342214
0.323684
0.299323
0.27188
0.243374
0.215249
0.188515
0.163861
0.141745
0.122445
0.106112
0.0927998
0.0824942
0.0751702
0.0708628
0.0697364
0.0720963
0.0783025
0.0886417
0.103254
0.122139
0.145177
0.172132
0.202592
0.235887
0.270947
0.306132
0.339024
0.366197
0.383013
0.383553
0.360789
0.307233
0.216402
0.0850207
0.0853811
0.212493
0.295577
0.340731
0.356653
0.351911
0.333733
0.307777
0.278274
0.248314
0.220117
0.195266
0.174818
0.15933
0.148798
0.142655
0.139902
0.139366
0.139951
0.140793
0.14131
0.141211
0.140493
0.139466
0.138802
0.139569
0.143203
0.151288
0.16517
0.185552
0.212318
0.244556
0.280592
0.31787
0.352668
0.379722
0.391875
0.379967
0.333315
0.241475
0.0976045
0.100006
0.239115
0.320555
0.356079
0.359328
0.342303
0.3143
0.282128
0.250679
0.223411
0.202621
0.189433
0.183665
0.184002
0.188524
0.19533
0.202874
0.21004
0.216074
0.220488
0.222984
0.223406
0.221716
0.218004
0.212527
0.205786
0.198643
0.192483
0.189333
0.191748
0.202228
0.222247
0.251525
0.287914
0.327504
0.364419
0.390229
0.393329
0.358821
0.270174
0.113768
0.120062
0.270311
0.343903
0.363205
0.349314
0.31865
0.282872
0.250055
0.225591
0.212301
0.210182
0.216866
0.229076
0.243904
0.259272
0.273849
0.28683
0.297737
0.306288
0.312318
0.31572
0.31643
0.314407
0.309636
0.302148
0.29205
0.279597
0.265314
0.250196
0.236016
0.225663
0.223161
0.232638
0.256159
0.291979
0.334368
0.373732
0.395831
0.380567
0.302458
0.135339
0.148469
0.305065
0.359812
0.35443
0.320566
0.279928
0.246722
0.229155
0.229
0.242377
0.263464
0.287567
0.311781
0.33452
0.354981
0.372788
0.38779
0.399943
0.409248
0.41572
0.419366
0.420175
0.418112
0.413117
0.405108
0.393995
0.379697
0.362196
0.341623
0.318444
0.293789
0.270058
0.251735
0.245663
0.258633
0.291901
0.337754
0.379754
0.391911
0.336537
0.165068
0.189753
0.337863
0.355688
0.318896
0.272481
0.243129
0.241599
0.262772
0.295383
0.331146
0.365827
0.39761
0.425855
0.450451
0.471506
0.489209
0.503759
0.515334
0.524082
0.530109
0.533479
0.534213
0.532285
0.527621
0.520098
0.509537
0.49571
0.478338
0.457111
0.431736
0.402049
0.368278
0.331627
0.295529
0.267771
0.261392
0.286722
0.336139
0.379956
0.365793
0.20709
0.2467
0.350199
0.310717
0.259864
0.250276
0.282441
0.332619
0.384607
0.432244
0.473954
0.50979
0.5403
0.566124
0.587855
0.605995
0.620958
0.633073
0.642595
0.649716
0.65457
0.65724
0.657758
0.656108
0.652224
0.645981
0.637194
0.625604
0.61086
0.592515
0.569991
0.542579
0.509451
0.469753
0.422946
0.369819
0.315349
0.27495
0.27621
0.326512
0.370657
0.262799
0.285298
0.300183
0.260467
0.315106
0.398054
0.473747
0.536464
0.587063
0.627791
0.66079
0.687735
0.709876
0.728134
0.743195
0.755572
0.765651
0.773722
0.779998
0.784641
0.787758
0.789418
0.78965
0.788445
0.785757
0.781495
0.775518
0.767625
0.757537
0.744873
0.729117
0.709562
0.685242
0.654822
0.616468
0.567737
0.505819
0.428956
0.34159
0.278171
0.311876
0.295257
0.335765
0.420663
0.568441
0.682566
0.751933
0.79673
0.82791
0.850554
0.867577
0.880764
0.891208
0.899601
0.906408
0.911946
0.916444
0.920066
0.922935
0.925138
0.926741
0.927787
0.928303
0.928302
0.927781
0.926721
0.925088
0.922827
0.919858
0.916067
0.9113
0.905335
0.897863
0.888433
0.876363
0.860584
0.839325
0.809625
0.766272
0.698033
0.583256
0.430702
0.340671
)
;

boundaryField
{
    movingWall
    {
        type            calculated;
        value           uniform 1;
    }
    fixedWalls
    {
        type            calculated;
        value           uniform 0;
    }
    frontAndBack
    {
        type            empty;
    }
}


// ************************************************************************* //
