/*--------------------------------*- C++ -*----------------------------------*\
| =========                 |                                                 |
| \\      /  F ield         | OpenFOAM: The Open Source CFD Toolbox           |
|  \\    /   O peration     | Version:  2306                                  |
|   \\  /    A nd           | Website:  www.openfoam.com                      |
|    \\/     M anipulation  |                                                 |
\*---------------------------------------------------------------------------*/
FoamFile
{
    version     2.0;
    format      ascii;
    arch        "LSB;label=32;scalar=64";
    class       volScalarField;
    location    "0.6";
    object      p;
}
// * * * * * * * * * * * * * * * * * * * * * * * * * * * * * * * * * * * * * //

dimensions      [0 2 -2 0 0 0 0];

internalField   nonuniform List<scalar> 
1681
(
2.10059e-07
-0.00110725
-0.00371267
-0.00726227
-0.0111169
-0.0148018
-0.0179701
-0.0203745
-0.0218471
-0.0222841
-0.0216333
-0.019884
-0.0170591
-0.0132098
-0.00841054
-0.00275541
0.00364499
0.010666
0.0181711
0.0260146
0.0340428
0.042097
0.0500157
0.0576369
0.0648017
0.0713572
0.0771607
0.0820835
0.0860158
0.0888713
0.0905929
0.0911583
0.0905862
0.0889443
0.0863571
0.0830167
0.0791955
0.07526
0.0716962
0.069138
0.068104
0.00110627
-4.87069e-07
-0.00211992
-0.00488362
-0.00786747
-0.0107211
-0.0131694
-0.0150035
-0.0160736
-0.016281
-0.0155706
-0.0139234
-0.0113515
-0.00789296
-0.0036079
0.00142494
0.00711085
0.0133417
0.0199982
0.026952
0.0340676
0.0412048
0.0482212
0.0549743
0.061325
0.0671403
0.072297
0.0766857
0.0802145
0.0828138
0.0844406
0.0850834
0.0847676
0.0835608
0.0815784
0.0789896
0.0760225
0.0729677
0.0701848
0.0681004
0.0670717
0.00372376
0.00211255
-3.37637e-05
-0.00251596
-0.00509705
-0.00751767
-0.00956111
-0.0110586
-0.0118847
-0.0119532
-0.0112136
-0.00964636
-0.00725914
-0.00408286
-0.000168567
0.00441529
0.00958534
0.0152456
0.0212895
0.0276017
0.0340603
0.0405392
0.0469097
0.0530437
0.0588159
0.0641074
0.0688082
0.0728215
0.0760667
0.0784838
0.080037
0.0807191
0.0805551
0.0796065
0.0779743
0.0758015
0.0732746
0.0706248
0.068122
0.0660164
0.0645122
0.00735417
0.00490433
0.00238418
-0.000161671
-0.00266728
-0.00493956
-0.00680884
-0.00814488
-0.00884855
-0.00885043
-0.00810948
-0.00661058
-0.00436157
-0.00139063
0.00225611
0.00651683
0.0113161
0.0165665
0.022171
0.0280242
0.0340143
0.0400253
0.0459389
0.0516371
0.0570045
0.0619313
0.0663164
0.0700702
0.0731186
0.075406
0.0768987
0.0775886
0.077496
0.0766722
0.0752011
0.0731995
0.0708163
0.0682373
0.065669
0.0632005
0.0608893
0.01143
0.0079981
0.00493622
0.0021513
-0.00044938
-0.00272572
-0.00454793
-0.00582134
-0.00647311
-0.00645184
-0.0057282
-0.00429374
-0.00215908
0.000647919
0.00408384
0.00809135
0.0126008
0.0175318
0.0227946
0.0282919
0.0339202
0.0395716
0.0451361
0.0505033
0.0555653
0.060219
0.0643689
0.0679303
0.0708321
0.0730203
0.0744604
0.0751406
0.0750738
0.0742995
0.0728839
0.0709187
0.068519
0.0658335
0.0630194
0.0600157
0.0567495
0.015542
0.0110834
0.00738905
0.00425067
0.00143582
-0.000956144
-0.00282751
-0.00411491
-0.00476996
-0.00475906
-0.00406539
-0.00268852
-0.000643507
0.00204031
0.00532035
0.00914196
0.0134396
0.0181378
0.0231529
0.0283934
0.0337623
0.0391582
0.0444769
0.0496138
0.0544661
0.0589348
0.0629279
0.0663626
0.0691686
0.0712906
0.0726912
0.0733525
0.0732789
0.0724972
0.0710565
0.0690256
0.066491
0.0635728
0.0603918
0.0567556
0.0524832
0.0193919
0.0139097
0.00953672
0.00597051
0.00285831
0.00026947
-0.00172299
-0.00308223
-0.00378172
-0.00380457
-0.00314642
-0.00181553
0.000167573
0.0027707
0.00595066
0.00965389
0.0138173
0.018369
0.0232292
0.028311
0.0335221
0.0387652
0.0439406
0.0489473
0.0536852
0.0580576
0.0619732
0.0653492
0.0681134
0.0702075
0.0715886
0.0722319
0.0721316
0.071302
0.0697763
0.0676034
0.0648464
0.0616048
0.0579747
0.0536518
0.0483677
0.022755
0.0162716
0.011202
0.00716493
0.00370292
0.000863997
-0.00129741
-0.00276668
-0.00353638
-0.00360486
-0.00297963
-0.00167778
0.000274041
0.00283995
0.00597499
0.00962549
0.0137295
0.0182171
0.0230113
0.0280281
0.0331781
0.038367
0.0434974
0.0484701
0.0531862
0.0575489
0.0614659
0.0648521
0.0676319
0.0697415
0.0711314
0.0717682
0.0716357
0.0707357
0.0690869
0.0667212
0.063683
0.0600579
0.0559267
0.0508891
0.0446055
0.0254556
0.0179978
0.0122283
0.00769746
0.00385524
0.000734533
-0.00162422
-0.00322496
-0.0040768
-0.00419179
-0.00358855
-0.00229291
-0.000337862
0.00223634
0.00538222
0.00904504
0.0131629
0.0176668
0.022481
0.0275234
0.0327061
0.0379363
0.0431174
0.0481507
0.0529364
0.0573761
0.0613748
0.0648432
0.0677004
0.0698758
0.0713116
0.0719649
0.0718086
0.0708321
0.069041
0.0664526
0.0630966
0.0590499
0.0543851
0.0486178
0.0413475
0.02735
0.0189401
0.0124735
0.00743857
0.00320075
-0.000217843
-0.00278727
-0.00452707
-0.0054609
-0.00561315
-0.00501286
-0.00369432
-0.00169701
0.00093412
0.00414845
0.00788943
0.0120943
0.0166941
0.0216133
0.0267706
0.0320785
0.0374444
0.0427715
0.0479598
0.0529076
0.0575131
0.0616771
0.0653045
0.0683073
0.0706068
0.0721356
0.0728401
0.0726816
0.0716376
0.0697013
0.0668772
0.0631831
0.0586917
0.0534724
0.0469642
0.0387121
0.0283124
0.0189652
0.0118052
0.00626333
0.0016248
-0.00209611
-0.00487748
-0.00675236
-0.00775736
-0.00792828
-0.00730399
-0.00592699
-0.00384333
-0.00110287
0.00224014
0.00612675
0.0104927
0.0152683
0.0203775
0.0257388
0.0312644
0.0368608
0.0424299
0.0478692
0.0530738
0.0579375
0.0623551
0.0662244
0.0694489
0.07194
0.0736195
0.0744219
0.0742964
0.0732079
0.0711377
0.0680789
0.0640397
0.0590909
0.0533024
0.0460408
0.0367998
0.0282257
0.0179467
0.0100962
0.00404837
-0.000988983
-0.00500775
-0.00799244
-0.00998841
-0.0110443
-0.0112065
-0.0105236
-0.00904603
-0.00682647
-0.00392002
-0.000384835
0.00371726
0.00832008
0.0133524
0.0187375
0.0243927
0.0302292
0.0361521
0.0420609
0.0478499
0.0534099
0.0586289
0.0633946
0.0675964
0.0711275
0.073888
0.0757874
0.0767472
0.076703
0.0756069
0.0734277
0.0701478
0.0657666
0.0603552
0.0539863
0.0459549
0.0357043
0.0269739
0.0157601
0.00721905
0.00066859
-0.00476059
-0.00906564
-0.0122367
-0.0143309
-0.0154084
-0.0155263
-0.0147424
-0.0131154
-0.0107047
-0.00757076
-0.0037761
0.000614311
0.00553199
0.010904
0.0166522
0.0226927
0.0289351
0.0352824
0.0416313
0.0478723
0.0538907
0.0595681
0.0647839
0.0694172
0.0733501
0.0764695
0.0786709
0.0798611
0.0799607
0.0789076
0.0766576
0.0731817
0.0684711
0.062598
0.055639
0.0468161
0.0355211
0.0244379
0.0122777
0.00304279
-0.00400582
-0.00981578
-0.0143893
-0.0177223
-0.0198835
-0.020945
-0.0209744
-0.0200393
-0.0182068
-0.0155434
-0.0121153
-0.00798957
-0.0032345
0.00207885
0.00787567
0.0140763
0.0205953
0.0273406
0.034213
0.0411058
0.0479052
0.0544908
0.0607365
0.0665125
0.0716866
0.0761278
0.0797084
0.0823079
0.0838162
0.0841372
0.0831926
0.0809237
0.0772889
0.0722705
0.0659417
0.058384
0.0487423
0.0363546
0.0204907
0.00736424
-0.00257078
-0.0101121
-0.0162882
-0.0211068
-0.0245697
-0.0267584
-0.0277571
-0.0276452
-0.0265003
-0.0243985
-0.0214141
-0.0176193
-0.013086
-0.00788591
-0.00209283
0.0042166
0.0109612
0.0180543
0.025402
0.0329028
0.040447
0.0479161
0.0551836
0.0621151
0.0685707
0.0744058
0.0794746
0.083633
0.0867421
0.0886728
0.0893095
0.0885551
0.0863341
0.0825903
0.0772952
0.0705229
0.0623588
0.0518656
0.0383239
0.0149945
0.000874356
-0.00977027
-0.017798
-0.0243217
-0.0293555
-0.0329086
-0.0350759
-0.0359556
-0.0356395
-0.0342168
-0.0317736
-0.0283922
-0.0241517
-0.0191287
-0.0133989
-0.00703848
-0.000125752
0.00725695
0.0150218
0.0230738
0.0313096
0.0396163
0.0478713
0.0559416
0.0636845
0.0709491
0.0775772
0.083407
0.0882754
0.0920232
0.0944988
0.0955642
0.0951002
0.093011
0.0892226
0.0836933
0.0764961
0.06772
0.0563378
0.041568
0.00779752
-0.00735128
-0.018718
-0.0272245
-0.0340727
-0.039285
-0.0428789
-0.0449654
-0.0456584
-0.0450642
-0.0432851
-0.0404183
-0.0365553
-0.0317824
-0.0261817
-0.0198324
-0.0128131
-0.00520336
0.00291385
0.0114504
0.0203108
0.0293905
0.0385745
0.0477361
0.0567365
0.0654247
0.073638
0.0812041
0.0879431
0.0936714
0.0982061
0.10137
0.102999
0.102946
0.101093
0.0973413
0.0916335
0.0840393
0.0746488
0.0623358
0.0462517
-0.00126836
-0.0174894
-0.0295937
-0.0385692
-0.0457132
-0.0510579
-0.0546321
-0.0565654
-0.0569905
-0.0560309
-0.0538038
-0.0504195
-0.04598
-0.0405795
-0.0343058
-0.0272419
-0.0194681
-0.0110647
-0.00211442
0.00729539
0.0170699
0.0271046
0.0372833
0.0474765
0.0575402
0.0673153
0.0766277
0.0852898
0.0931027
0.0998597
0.105351
0.109371
0.111722
0.112227
0.110736
0.107124
0.101311
0.0933584
0.0833562
0.0700678
0.052571
-0.0123915
-0.0297382
-0.0425986
-0.0520304
-0.0594334
-0.0648528
-0.068332
-0.0700235
-0.0700827
-0.0686535
-0.0658714
-0.0618618
-0.0567387
-0.0506053
-0.0435555
-0.0356756
-0.0270475
-0.0177511
-0.00786739
0.00251825
0.0133133
0.0244149
0.0357076
0.0470604
0.0583255
0.0693366
0.0799086
0.0898384
0.0989069
0.106882
0.113524
0.118593
0.121854
0.123093
0.12212
0.118776
0.112951
0.104694
0.0940906
0.0797798
0.0607596
-0.0257846
-0.0443222
-0.0579606
-0.0678311
-0.0754455
-0.0808663
-0.0841564
-0.0854966
-0.0850703
-0.0830468
-0.0795833
-0.0748234
-0.0688951
-0.0619117
-0.0539733
-0.0451696
-0.0355829
-0.0252914
-0.0143732
-0.00290923
0.00901218
0.0212923
0.0338182
0.0464601
0.0590681
0.0714703
0.0834719
0.0948545
0.105378
0.114782
0.122796
0.129137
0.13353
0.135712
0.135447
0.132531
0.126815
0.118328
0.107145
0.0917641
0.0710962
-0.0416893
-0.0614986
-0.0759405
-0.086225
-0.0939885
-0.0993164
-0.102298
-0.10315
-0.102091
-0.0993223
-0.0950272
-0.0893712
-0.0824986
-0.0745339
-0.0655841
-0.0557414
-0.0450875
-0.0336972
-0.0216431
-0.00899989
0.00415142
0.0177189
0.0315955
0.045655
0.0597487
0.0737015
0.0873105
0.100343
0.112538
0.123607
0.133241
0.141114
0.146898
0.150274
0.15095
0.148662
0.143209
0.134592
0.122865
0.106368
0.0839138
-0.060384
-0.081566
-0.0968412
-0.107505
-0.115334
-0.120446
-0.122966
-0.123157
-0.121283
-0.117585
-0.112278
-0.105554
-0.0975771
-0.0884838
-0.0783878
-0.0673833
-0.0555493
-0.0429553
-0.0296657
-0.0157455
-0.00126533
0.0136934
0.0290331
0.0446353
0.0603558
0.0760201
0.0914201
0.106311
0.120412
0.133404
0.144938
0.15464
0.16212
0.166992
0.168891
0.16748
0.162491
0.153879
0.141666
0.124009
0.0996113
-0.082194
-0.104877
-0.12102
-0.132011
-0.139793
-0.144526
-0.146386
-0.145697
-0.14278
-0.137924
-0.131389
-0.123395
-0.114129
-0.103741
-0.0923509
-0.0800535
-0.0669232
-0.0530208
-0.0383992
-0.0231102
-0.00720961
0.00923584
0.0261428
0.0434053
0.0608885
0.078423
0.0957998
0.112766
0.129022
0.14422
0.157969
0.169839
0.179371
0.1861
0.189569
0.189348
0.185079
0.176652
0.164042
0.145186
0.118668
-0.107506
-0.131854
-0.148903
-0.160147
-0.167726
-0.171863
-0.172802
-0.17095
-0.166702
-0.160411
-0.152384
-0.142881
-0.132112
-0.120242
-0.107396
-0.0936674
-0.0791221
-0.0638088
-0.0477648
-0.0310238
-0.0136221
0.00439347
0.0229594
0.0419878
0.0613593
0.0809158
0.100453
0.119716
0.13839
0.1561
0.172414
0.186839
0.198841
0.207856
0.21332
0.214684
0.211466
0.203468
0.190589
0.170505
0.141661
-0.136789
-0.163015
-0.181011
-0.192397
-0.199554
-0.2028
-0.202476
-0.199096
-0.193154
-0.185081
-0.175245
-0.163949
-0.151431
-0.137869
-0.123393
-0.108087
-0.0920082
-0.0751866
-0.0576389
-0.0393753
-0.020407
-0.000754669
0.0195442
0.0404269
0.0617968
0.0835146
0.105389
0.127169
0.148532
0.169083
0.188345
0.205766
0.220723
0.232542
0.240524
0.243967
0.242234
0.234993
0.22203
0.200706
0.169298
-0.170626
-0.199008
-0.217989
-0.229347
-0.235775
-0.237726
-0.235682
-0.230302
-0.222206
-0.211923
-0.199896
-0.186474
-0.171926
-0.156439
-0.140143
-0.123113
-0.105384
-0.0869658
-0.0678469
-0.0480075
-0.0274272
-0.00609373
0.0159888
0.0387907
0.0622465
0.0862453
0.110619
0.135129
0.159457
0.183192
0.205824
0.226736
0.245214
0.260454
0.271598
0.277751
0.278067
0.27203
0.259255
0.236701
0.202444
-0.209758
-0.240659
-0.260652
-0.271721
-0.276978
-0.277078
-0.272703
-0.264709
-0.253877
-0.24086
-0.226182
-0.210248
-0.193351
-0.175686
-0.157374
-0.13847
-0.118986
-0.0988972
-0.0781588
-0.0567136
-0.0345022
-0.0114715
0.0124155
0.0371708
0.0627702
0.0891418
0.116152
0.14359
0.171154
0.198431
0.224885
0.249844
0.272496
0.291898
0.306998
0.316665
0.319777
0.315555
0.303363
0.279633
0.242181
-0.255154
-0.289051
-0.310048
-0.320421
-0.323865
-0.321342
-0.313817
-0.302411
-0.288112
-0.271718
-0.253848
-0.234959
-0.215361
-0.19525
-0.174723
-0.153808
-0.132477
-0.110667
-0.0882884
-0.0652378
-0.041409
-0.0167005
0.00897457
0.0356793
0.0634412
0.09224
0.121991
0.152529
0.183584
0.214762
0.245518
0.275138
0.302719
0.327166
0.347208
0.361418
0.368319
0.366762
0.355735
0.330956
0.289882
-0.308118
-0.345634
-0.36755
-0.376582
-0.377271
-0.371043
-0.359269
-0.34342
-0.32474
-0.304196
-0.282505
-0.260165
-0.237492
-0.214661
-0.191733
-0.168688
-0.14545
-0.121901
-0.0978965
-0.0732796
-0.0478883
-0.0215645
0.00583723
0.0344404
0.064336
0.0955687
0.12812
0.161888
0.196661
0.232088
0.267645
0.302595
0.335964
0.366507
0.39271
0.412793
0.424816
0.42712
0.418128
0.392553
0.347328
-0.370461
-0.4124
-0.434978
-0.441637
-0.438174
-0.426725
-0.409228
-0.387611
-0.363425
-0.337819
-0.311595
-0.285271
-0.259142
-0.233334
-0.207846
-0.182594
-0.15743
-0.132168
-0.106601
-0.0805057
-0.0536566
-0.0258312
0.00318239
0.0335776
0.0655198
0.0991333
0.134484
0.171557
0.210228
0.250223
0.291075
0.332071
0.372196
0.410077
0.443949
0.47162
0.49057
0.498438
0.492804
0.466923
0.416891
-0.44478
-0.492144
-0.514789
-0.517395
-0.507697
-0.488895
-0.463711
-0.434644
-0.403594
-0.371878
-0.340348
-0.309498
-0.279556
-0.250558
-0.22241
-0.194931
-0.167885
-0.141002
-0.113995
-0.0865686
-0.0584254
-0.029272
0.00117702
0.0331931
0.0670264
0.102895
0.140968
0.181346
0.224022
0.268845
0.315462
0.363239
0.411184
0.457851
0.501242
0.538722
0.567057
0.582944
0.582724
0.557459
0.501838
-0.534953
-0.588899
-0.610314
-0.606113
-0.587053
-0.557913
-0.522451
-0.483845
-0.444339
-0.405361
-0.367737
-0.331859
-0.297818
-0.265506
-0.234687
-0.205054
-0.176255
-0.14792
-0.119672
-0.091133
-0.0619281
-0.0316882
-4.98158e-05
0.0333425
0.0688321
0.106743
0.147368
0.190947
0.237633
0.287452
0.340229
0.395501
0.452398
0.509497
0.564652
0.614793
0.65587
0.683356
0.691792
0.668895
0.606859
-0.647024
-0.708599
-0.726084
-0.710526
-0.677416
-0.633791
-0.584702
-0.534036
-0.484291
-0.436871
-0.392433
-0.351144
-0.312858
-0.277247
-0.243883
-0.212291
-0.181981
-0.152463
-0.123262
-0.0939095
-0.0639521
-0.0329423
-0.000437077
0.0340053
0.0708267
0.110467
0.153357
0.199904
0.250464
0.305296
0.364493
0.427879
0.494852
0.564187
0.63376
0.700186
0.758572
0.802901
0.825188
0.808007
0.739016
-0.790882
-0.860168
-0.868211
-0.833761
-0.779614
-0.715846
-0.648924
-0.583301
-0.521472
-0.464543
-0.41277
-0.365915
-0.323467
-0.284786
-0.249189
-0.215994
-0.184549
-0.154236
-0.124469
-0.0946932
-0.0643747
-0.0329912
-2.31567e-05
0.0350555
0.0727849
0.113725
0.158456
0.207575
0.261677
0.321322
0.386971
0.458877
0.536916
0.620327
0.707326
0.794525
0.876366
0.945213
0.989737
0.984736
0.909539
-0.983679
-1.05724
-1.04465
-0.978889
-0.893473
-0.802078
-0.712313
-0.628679
-0.553113
-0.48596
-0.426731
-0.374541
-0.328354
-0.287118
-0.249836
-0.21559
-0.183547
-0.152953
-0.123118
-0.0934011
-0.0631971
-0.0319167
0.00102761
0.0362378
0.0743455
0.116026
0.162014
0.213106
0.270168
0.334119
0.405889
0.486334
0.576067
0.675181
0.782752
0.89602
1.00936
1.11383
1.19415
1.21396
1.13748
-1.25675
-1.32066
-1.26477
-1.14753
-1.01637
-0.888028
-0.770034
-0.665709
-0.575432
-0.49808
-0.431953
-0.375234
-0.326198
-0.283292
-0.245162
-0.210637
-0.178705
-0.148481
-0.119184
-0.0901007
-0.0605681
-0.0299453
0.00240786
0.0371535
0.0749993
0.116723
0.163198
0.215422
0.274542
0.341872
0.418901
0.507254
0.608586
0.724336
0.85522
1.00021
1.15501
1.31067
1.44854
1.51798
1.45699
-1.66755
-1.68087
-1.53755
-1.33735
-1.14118
-0.96543
-0.814505
-0.688159
-0.583623
-0.497348
-0.425891
-0.366226
-0.315809
-0.272542
-0.234711
-0.200906
-0.169959
-0.140883
-0.112826
-0.0850284
-0.056792
-0.0274464
0.00367867
0.037282
0.074122
0.115051
0.161055
0.213303
0.2732
0.342459
0.423164
0.517837
0.629455
0.761363
0.916922
1.09856
1.30591
1.53339
1.76229
1.92858
1.92915
-2.32076
-2.17828
-1.8679
-1.54012
-1.25551
-1.02227
-0.836021
-0.688926
-0.572801
-0.480572
-0.406567
-0.346377
-0.296613
-0.254671
-0.218531
-0.186605
-0.15762
-0.130532
-0.104458
-0.0786248
-0.0523286
-0.0248978
0.00433954
0.0360886
0.0711242
0.110333
0.154766
0.205705
0.264756
0.33396
0.415958
0.514185
0.633116
0.778501
0.957486
1.17833
1.44894
1.77314
2.14013
2.48676
2.66217
-3.45062
-2.86289
-2.23634
-1.72627
-1.33263
-1.03786
-0.820307
-0.658898
-0.537477
-0.44464
-0.372371
-0.315001
-0.268483
-0.22988
-0.197013
-0.168228
-0.142236
-0.118
-0.0946576
-0.0714641
-0.0477453
-0.022861
0.00382956
0.0330021
0.0654055
0.101908
0.143556
0.191658
0.247895
0.314489
0.394444
0.491915
0.612732
0.765166
0.960991
1.21694
1.5551
1.99801
2.56127
3.24428
3.89595
-5.67056
-3.7636
-2.50157
-1.76579
-1.28067
-0.951867
-0.728739
-0.573384
-0.461597
-0.378806
-0.315869
-0.266798
-0.227552
-0.195313
-0.168051
-0.144257
-0.122766
-0.102654
-0.0831562
-0.0636129
-0.0434301
-0.0220439
0.0011103
0.026629
0.0551753
0.0875217
0.124607
0.167614
0.21809
0.278118
0.350599
0.439709
0.551655
0.695947
0.887726
1.15215
1.52938
2.07411
2.88251
4.23276
6.24797
-9.44944
-4.64468
-2.37433
-1.46579
-0.990914
-0.707051
-0.531273
-0.416019
-0.335702
-0.277179
-0.233092
-0.198911
-0.171668
-0.149315
-0.130373
-0.113729
-0.0985184
-0.0840447
-0.0697248
-0.0550524
-0.0395673
-0.0228312
-0.00440466
0.0161752
0.0394205
0.0659236
0.0963982
0.131737
0.173095
0.222022
0.280674
0.352181
0.44132
0.555821
0.709296
0.92801
1.2624
1.80477
2.80763
5.19291
10.1183
)
;

boundaryField
{
    movingWall
    {
        type            zeroGradient;
    }
    fixedWalls
    {
        type            zeroGradient;
    }
    frontAndBack
    {
        type            empty;
    }
}


// ************************************************************************* //
