/*--------------------------------*- C++ -*----------------------------------*\
| =========                 |                                                 |
| \\      /  F ield         | OpenFOAM: The Open Source CFD Toolbox           |
|  \\    /   O peration     | Version:  2306                                  |
|   \\  /    A nd           | Website:  www.openfoam.com                      |
|    \\/     M anipulation  |                                                 |
\*---------------------------------------------------------------------------*/
FoamFile
{
    version     2.0;
    format      ascii;
    arch        "LSB;label=32;scalar=64";
    class       surfaceScalarField;
    location    "0.6";
    object      phi;
}
// * * * * * * * * * * * * * * * * * * * * * * * * * * * * * * * * * * * * * //

dimensions      [0 3 -1 0 0 0 0];

oriented        oriented;

internalField   nonuniform List<scalar> 
3280
(
2.3423e-09
-2.34281e-09
3.89623e-09
-1.55388e-09
2.41648e-09
1.47985e-09
-2.65532e-09
5.07154e-09
-1.11856e-08
8.53058e-09
-2.27431e-08
1.15574e-08
-3.67695e-08
1.40265e-08
-5.2668e-08
1.58986e-08
-6.98449e-08
1.71767e-08
-8.77302e-08
1.78853e-08
-1.05789e-07
1.80593e-08
-1.23529e-07
1.77392e-08
-1.40498e-07
1.6969e-08
-1.56291e-07
1.57936e-08
-1.7055e-07
1.42589e-08
-1.82961e-07
1.24112e-08
-1.93258e-07
1.0297e-08
-2.01222e-07
7.96362e-09
-2.06681e-07
5.45893e-09
-2.09513e-07
2.83225e-09
-2.09648e-07
1.34423e-10
-2.07066e-07
-2.58195e-09
-2.01804e-07
-5.26233e-09
-1.93953e-07
-7.85026e-09
-1.83666e-07
-1.02875e-08
-1.71151e-07
-1.25147e-08
-1.5668e-07
-1.44717e-08
-1.40581e-07
-1.60987e-08
-1.23243e-07
-1.73375e-08
-1.05111e-07
-1.81326e-08
-8.6678e-08
-1.84329e-08
-6.84845e-08
-1.81936e-08
-5.11061e-08
-1.73785e-08
-3.51429e-08
-1.59632e-08
-2.12028e-08
-1.394e-08
-9.87522e-09
-1.13276e-08
-1.68452e-09
-8.19071e-09
2.99789e-09
-4.68238e-09
4.12487e-09
-1.12691e-09
2.3562e-09
1.7687e-09
2.35618e-09
1.60661e-09
-3.94959e-09
-6.17803e-10
6.70712e-10
-9.80607e-09
1.06682e-08
-2.70098e-08
2.22756e-08
-5.21275e-08
3.36479e-08
-8.43705e-08
4.38004e-08
-1.2257e-07
5.22262e-08
-1.65373e-07
5.87011e-08
-2.11359e-07
6.31628e-08
-2.59115e-07
6.56422e-08
-3.07282e-07
6.62258e-08
-3.54577e-07
6.5034e-08
-3.99815e-07
6.22076e-08
-4.41922e-07
5.78998e-08
-4.79935e-07
5.22718e-08
-5.13014e-07
4.54904e-08
-5.40443e-07
3.77263e-08
-5.61633e-07
2.9154e-08
-5.76127e-07
1.99526e-08
-5.83601e-07
1.03063e-08
-5.83872e-07
4.04725e-10
-5.76897e-07
-9.55623e-09
-5.62785e-07
-1.93744e-08
-5.41794e-07
-2.88415e-08
-5.14337e-07
-3.77446e-08
-4.80984e-07
-4.58676e-08
-4.42462e-07
-5.29943e-08
-3.99649e-07
-5.89116e-08
-3.53572e-07
-6.34144e-08
-3.05394e-07
-6.6311e-08
-2.56396e-07
-6.74299e-08
-2.07962e-07
-6.6628e-08
-1.61539e-07
-6.38009e-08
-1.18606e-07
-5.88967e-08
-8.0608e-08
-5.1938e-08
-4.888e-08
-4.30556e-08
-2.45185e-08
-3.25522e-08
-8.18732e-09
-2.10136e-08
1.77622e-10
-9.49185e-09
1.81754e-09
1.28805e-10
4.17374e-09
-1.3208e-09
-2.62858e-09
-1.04159e-08
9.76568e-09
-2.99088e-08
3.01612e-08
-6.06994e-08
5.30662e-08
-1.02519e-07
7.54681e-08
-1.54295e-07
9.55765e-08
-2.14442e-07
1.12372e-07
-2.81082e-07
1.25342e-07
-3.52206e-07
1.34286e-07
-4.25772e-07
1.39208e-07
-4.99786e-07
1.4024e-07
-5.72347e-07
1.37595e-07
-6.41681e-07
1.31542e-07
-7.06167e-07
1.22386e-07
-7.6435e-07
1.10455e-07
-8.14953e-07
9.60939e-08
-8.56888e-07
7.96605e-08
-8.89257e-07
6.15235e-08
-9.11367e-07
4.20627e-08
-9.2273e-07
2.16692e-08
-9.23072e-07
7.45943e-10
-9.12336e-07
-2.02914e-08
-8.90696e-07
-4.10151e-08
-8.58551e-07
-6.09863e-08
-8.16538e-07
-7.97579e-08
-7.65527e-07
-9.68788e-08
-7.06621e-07
-1.119e-07
-6.41151e-07
-1.24382e-07
-5.7066e-07
-1.33906e-07
-4.96886e-07
-1.40085e-07
-4.21734e-07
-1.42582e-07
-3.4724e-07
-1.41122e-07
-2.75519e-07
-1.35522e-07
-2.08697e-07
-1.25719e-07
-1.48824e-07
-1.11811e-07
-9.77529e-08
-9.41265e-08
-5.69782e-08
-7.33268e-08
-2.74141e-08
-5.05777e-08
-9.113e-09
-2.77929e-08
-9.33344e-10
-8.05072e-09
3.2404e-09
-4.84914e-09
2.2205e-09
-2.20624e-08
2.6979e-08
-5.3125e-08
6.12236e-08
-9.83358e-08
9.8277e-08
-1.57012e-07
1.34145e-07
-2.27717e-07
1.66281e-07
-3.08482e-07
1.93137e-07
-3.97008e-07
2.13868e-07
-4.90824e-07
2.28102e-07
-5.87403e-07
2.35787e-07
-6.84254e-07
2.37091e-07
-7.78988e-07
2.32328e-07
-8.69361e-07
2.21915e-07
-9.53314e-07
2.06338e-07
-1.02899e-06
1.8613e-07
-1.09476e-06
1.6186e-07
-1.14922e-06
1.34123e-07
-1.19123e-06
1.03536e-07
-1.2199e-06
7.07355e-08
-1.23461e-06
3.63801e-08
-1.23502e-06
1.14751e-09
-1.22104e-06
-3.42641e-08
-1.19292e-06
-6.91374e-08
-1.15117e-06
-1.02738e-07
-1.09661e-06
-1.34322e-07
-1.03035e-06
-1.63138e-07
-9.53801e-07
-1.88444e-07
-8.68665e-07
-2.09518e-07
-7.76897e-07
-2.25674e-07
-6.80695e-07
-2.36287e-07
-5.82459e-07
-2.40818e-07
-4.84739e-07
-2.38842e-07
-3.90169e-07
-2.30092e-07
-3.01385e-07
-2.14503e-07
-2.2091e-07
-1.92285e-07
-1.51027e-07
-1.6401e-07
-9.36034e-08
-1.3075e-07
-4.98979e-08
-9.42831e-08
-2.03393e-08
-5.73514e-08
-4.31891e-09
-2.40709e-08
-1.07852e-09
-8.39997e-09
1.06204e-08
-3.40827e-08
5.26619e-08
-7.71873e-08
1.04328e-07
-1.37156e-07
1.58246e-07
-2.12706e-07
2.09694e-07
-3.01929e-07
2.55505e-07
-4.02448e-07
2.93657e-07
-5.11567e-07
3.22987e-07
-6.26416e-07
3.4295e-07
-7.44064e-07
3.53436e-07
-8.61621e-07
3.54647e-07
-9.76301e-07
3.47008e-07
-1.08548e-06
3.31099e-07
-1.18676e-06
3.0761e-07
-1.27794e-06
2.77312e-07
-1.35711e-06
2.41032e-07
-1.42263e-06
1.99643e-07
-1.47315e-06
1.54053e-07
-1.50762e-06
1.05204e-07
-1.5253e-06
5.40669e-08
-1.5258e-06
1.64478e-09
-1.50903e-06
-5.1031e-08
-1.47527e-06
-1.02902e-07
-1.42512e-06
-1.52887e-07
-1.35955e-06
-1.99892e-07
-1.27987e-06
-2.42816e-07
-1.18774e-06
-2.80575e-07
-1.08514e-06
-3.12116e-07
-9.7437e-07
-3.36447e-07
-8.5799e-07
-3.52667e-07
-7.38802e-07
-3.60006e-07
-6.19774e-07
-3.5787e-07
-5.03969e-07
-3.45897e-07
-3.94448e-07
-3.24024e-07
-2.94155e-07
-2.92579e-07
-2.05781e-07
-2.52384e-07
-1.31608e-07
-2.04923e-07
-7.33504e-08
-1.52541e-07
-3.20029e-08
-9.8699e-08
-7.749e-09
-4.83248e-08
-8.82756e-09
-1.17755e-08
2.23959e-08
-4.58285e-08
8.67151e-08
-1.00979e-07
1.59478e-07
-1.75706e-07
2.32973e-07
-2.68008e-07
3.01996e-07
-3.75418e-07
3.62916e-07
-4.95098e-07
4.13336e-07
-6.23942e-07
4.51831e-07
-7.58702e-07
4.7771e-07
-8.9609e-07
4.90824e-07
-1.03287e-06
4.91425e-07
-1.16592e-06
4.80063e-07
-1.29232e-06
4.575e-07
-1.40937e-06
4.24655e-07
-1.51462e-06
3.82561e-07
-1.60592e-06
3.32334e-07
-1.68143e-06
2.75157e-07
-1.73964e-06
2.12263e-07
-1.77937e-06
1.44936e-07
-1.79981e-06
7.44976e-08
-1.80048e-06
2.31501e-09
-1.7813e-06
-7.02076e-08
-1.74257e-06
-1.4163e-07
-1.68497e-06
-2.10484e-07
-1.60958e-06
-2.75282e-07
-1.51787e-06
-3.34535e-07
-1.41167e-06
-3.86775e-07
-1.2932e-06
-4.30579e-07
-1.16504e-06
-4.64612e-07
-1.03004e-06
-4.87663e-07
-8.91344e-07
-4.98704e-07
-7.52269e-07
-4.96945e-07
-6.16255e-07
-4.81911e-07
-4.86753e-07
-4.53526e-07
-3.67116e-07
-4.12215e-07
-2.60466e-07
-3.59035e-07
-1.69557e-07
-2.95831e-07
-9.66578e-08
-2.2544e-07
-4.34503e-08
-1.51906e-07
-1.10193e-08
-8.07558e-08
-1.98468e-08
-1.49311e-08
3.73268e-08
-5.70705e-08
1.28855e-07
-1.24036e-07
2.26444e-07
-2.13332e-07
3.22269e-07
-3.22177e-07
4.10841e-07
-4.47482e-07
4.88221e-07
-5.85894e-07
5.51747e-07
-7.33874e-07
5.99811e-07
-8.87792e-07
6.31629e-07
-1.04402e-06
6.47049e-07
-1.199e-06
6.46408e-07
-1.34934e-06
6.30402e-07
-1.49184e-06
6.00002e-07
-1.62357e-06
5.56381e-07
-1.74186e-06
5.00857e-07
-1.84439e-06
4.34863e-07
-1.92915e-06
3.59917e-07
-1.9945e-06
2.77608e-07
-2.03915e-06
1.89586e-07
-2.06221e-06
9.75551e-08
-2.06317e-06
3.27464e-09
-2.04193e-06
-9.14479e-08
-1.9988e-06
-1.8476e-07
-1.93451e-06
-2.74773e-07
-1.85021e-06
-3.59575e-07
-1.74749e-06
-4.37255e-07
-1.62835e-06
-5.05923e-07
-1.49517e-06
-5.63757e-07
-1.35074e-06
-6.09039e-07
-1.19819e-06
-6.40216e-07
-1.04092e-06
-6.55967e-07
-8.82596e-07
-6.55274e-07
-7.26989e-07
-6.37517e-07
-5.77942e-07
-6.02573e-07
-4.39227e-07
-5.5093e-07
-3.14435e-07
-4.83827e-07
-2.06858e-07
-4.03409e-07
-1.19388e-07
-3.12911e-07
-5.44623e-08
-2.16832e-07
-1.40853e-08
-1.21133e-07
-3.39321e-08
-1.78877e-08
5.52146e-08
-6.77955e-08
1.78763e-07
-1.46271e-07
3.04919e-07
-2.49872e-07
4.2587e-07
-3.7502e-07
5.35989e-07
-5.1796e-07
6.31161e-07
-6.74785e-07
7.08572e-07
-8.41493e-07
7.6652e-07
-1.01406e-06
8.04196e-07
-1.18851e-06
8.21503e-07
-1.36101e-06
8.18901e-07
-1.52788e-06
7.97273e-07
-1.68571e-06
7.57831e-07
-1.83135e-06
7.02024e-07
-1.96198e-06
6.31488e-07
-2.07511e-06
5.47992e-07
-2.16861e-06
4.53416e-07
-2.24072e-06
3.49724e-07
-2.29009e-06
2.38954e-07
-2.31575e-06
1.23214e-07
-2.31715e-06
4.67714e-09
-2.29418e-06
-1.14425e-07
-2.24713e-06
-2.31805e-07
-2.17677e-06
-3.45131e-07
-2.08431e-06
-4.5204e-07
-1.97139e-06
-5.50169e-07
-1.84014e-06
-6.37181e-07
-1.69308e-06
-7.10814e-07
-1.53318e-06
-7.68937e-07
-1.36378e-06
-8.09616e-07
-1.18855e-06
-8.31194e-07
-1.01144e-06
-8.32387e-07
-8.36578e-07
-8.12381e-07
-6.68194e-07
-7.70958e-07
-5.10511e-07
-7.08613e-07
-3.67633e-07
-6.26705e-07
-2.4344e-07
-5.27601e-07
-1.41505e-07
-4.14846e-07
-6.50499e-08
-2.93287e-07
-1.69739e-08
-1.69209e-07
-5.09059e-08
-2.06896e-08
7.59043e-08
-7.80881e-08
2.36161e-07
-1.67783e-07
3.94614e-07
-2.85432e-07
5.4352e-07
-4.26657e-07
6.77214e-07
-5.87014e-07
7.91517e-07
-7.62013e-07
8.83572e-07
-9.47164e-07
9.5167e-07
-1.13803e-06
9.95061e-07
-1.33029e-06
1.01377e-06
-1.51981e-06
1.00842e-06
-1.70269e-06
9.80152e-07
-1.8753e-06
9.30438e-07
-2.03432e-06
8.61045e-07
-2.17678e-06
7.7395e-07
-2.30008e-06
6.71287e-07
-2.40197e-06
5.55312e-07
-2.48063e-06
4.28383e-07
-2.53463e-06
2.92945e-07
-2.56293e-06
1.51522e-07
-2.56497e-06
6.71084e-09
-2.54058e-06
-1.38816e-07
-2.49006e-06
-2.82322e-07
-2.41418e-06
-4.21013e-07
-2.31416e-06
-5.5206e-07
-2.19171e-06
-6.7262e-07
-2.049e-06
-7.79882e-07
-1.8887e-06
-8.71115e-07
-1.71391e-06
-9.43733e-07
-1.52814e-06
-9.95379e-07
-1.33532e-06
-1.02401e-06
-1.13968e-06
-1.02803e-06
-9.45701e-07
-1.00636e-06
-7.58024e-07
-9.58635e-07
-5.81354e-07
-8.85283e-07
-4.20351e-07
-7.87708e-07
-2.79531e-07
-6.68422e-07
-1.63184e-07
-5.31192e-07
-7.53329e-08
-3.81138e-07
-1.97391e-08
-2.24802e-07
-7.0645e-08
-2.33854e-08
9.92897e-08
-8.80691e-08
3.00844e-07
-1.88759e-07
4.95304e-07
-3.20251e-07
6.75011e-07
-4.77372e-07
8.34335e-07
-6.54979e-07
9.69125e-07
-8.47978e-07
1.07657e-06
-1.05136e-06
1.15506e-06
-1.26027e-06
1.20397e-06
-1.47004e-06
1.22353e-06
-1.67624e-06
1.21462e-06
-1.87473e-06
1.17865e-06
-2.06171e-06
1.11741e-06
-2.2337e-06
1.03304e-06
-2.38762e-06
9.27871e-07
-2.52076e-06
8.04428e-07
-2.63082e-06
6.65366e-07
-2.71589e-06
5.1345e-07
-2.77448e-06
3.51537e-07
-2.80553e-06
1.82576e-07
-2.80842e-06
9.59645e-09
-2.78295e-06
-1.64285e-07
-2.7294e-06
-3.35873e-07
-2.6485e-06
-5.01906e-07
-2.5415e-06
-6.59067e-07
-2.41009e-06
-8.04022e-07
-2.25652e-06
-9.33455e-07
-2.08351e-06
-1.04413e-06
-1.89426e-06
-1.13297e-06
-1.69249e-06
-1.19715e-06
-1.48232e-06
-1.23418e-06
-1.26827e-06
-1.24208e-06
-1.05518e-06
-1.21945e-06
-8.48137e-07
-1.16568e-06
-6.52348e-07
-1.08107e-06
-4.73074e-07
-9.66982e-07
-3.1551e-07
-8.25986e-07
-1.847e-07
-6.62002e-07
-8.54764e-08
-4.80361e-07
-2.2442e-08
-2.87837e-07
-9.3087e-08
-2.60211e-08
1.25311e-07
-9.78673e-08
3.72691e-07
-2.09414e-07
6.06852e-07
-3.5462e-07
8.20216e-07
-5.27522e-07
1.00724e-06
-7.22267e-07
1.16387e-06
-9.33137e-07
1.28744e-06
-1.1546e-06
1.37652e-06
-1.38135e-06
1.43072e-06
-1.60837e-06
1.45055e-06
-1.83094e-06
1.4372e-06
-2.04472e-06
1.39242e-06
-2.24571e-06
1.3184e-06
-2.43032e-06
1.21766e-06
-2.59538e-06
1.09293e-06
-2.73811e-06
9.47151e-07
-2.85613e-06
7.83392e-07
-2.94751e-06
6.04831e-07
-3.01072e-06
4.14747e-07
-3.04465e-06
2.1651e-07
-3.04864e-06
1.35842e-08
-3.02245e-06
-1.90472e-07
-2.96632e-06
-3.92007e-07
-2.88094e-06
-5.87284e-07
-2.76752e-06
-7.72494e-07
-2.62775e-06
-9.43792e-07
-2.46386e-06
-1.09734e-06
-2.27864e-06
-1.22936e-06
-2.07537e-06
-1.33624e-06
-1.8579e-06
-1.41462e-06
-1.63056e-06
-1.46152e-06
-1.39816e-06
-1.47448e-06
-1.1659e-06
-1.45171e-06
-9.39316e-07
-1.39227e-06
-7.24177e-07
-1.29621e-06
-5.26375e-07
-1.16478e-06
-3.51827e-07
-1.00053e-06
-2.06367e-07
-8.07463e-07
-9.56592e-08
-5.91069e-07
-2.51434e-08
-3.58352e-07
-1.1823e-07
-2.86379e-08
1.53949e-07
-1.07606e-07
4.51659e-07
-2.29964e-07
7.29209e-07
-3.88838e-07
9.79091e-07
-5.77476e-07
1.19588e-06
-7.89296e-07
1.37569e-06
-1.01794e-06
1.51609e-06
-1.25734e-06
1.61592e-06
-1.50174e-06
1.67512e-06
-1.74575e-06
1.69456e-06
-1.98439e-06
1.67584e-06
-2.2131e-06
1.62113e-06
-2.42774e-06
1.53304e-06
-2.62462e-06
1.41453e-06
-2.80048e-06
1.26879e-06
-2.95251e-06
1.09918e-06
-3.07831e-06
9.09194e-07
-3.17591e-06
7.02434e-07
-3.24377e-06
4.82598e-07
-3.28073e-06
2.53474e-07
-3.28609e-06
1.89487e-08
-3.25958e-06
-2.16986e-07
-3.20136e-06
-4.50229e-07
-3.11207e-06
-6.76574e-07
-2.99284e-06
-8.91718e-07
-2.84534e-06
-1.09129e-06
-2.67176e-06
-1.27092e-06
-2.47488e-06
-1.42624e-06
-2.25805e-06
-1.55307e-06
-2.02522e-06
-1.64745e-06
-1.78092e-06
-1.70583e-06
-1.53021e-06
-1.72518e-06
-1.27869e-06
-1.70323e-06
-1.03235e-06
-1.6386e-06
-7.97548e-07
-1.53101e-06
-5.80855e-07
-1.38148e-06
-3.88953e-07
-1.19243e-06
-2.2851e-07
-9.67906e-07
-1.06059e-07
-7.13519e-07
-2.79005e-08
-4.36511e-07
-1.46131e-07
-3.1272e-08
1.85221e-07
-1.17397e-07
5.37784e-07
-2.5061e-07
8.62422e-07
-4.23193e-07
1.15167e-06
-6.27584e-07
1.40027e-06
-8.56458e-07
1.60456e-06
-1.1028e-06
1.76243e-06
-1.35999e-06
1.8731e-06
-1.6218e-06
1.93693e-06
-1.8825e-06
1.95526e-06
-2.13683e-06
1.93017e-06
-2.38005e-06
1.86434e-06
-2.60789e-06
1.76088e-06
-2.81658e-06
1.62323e-06
-3.00285e-06
1.45505e-06
-3.16384e-06
1.26017e-06
-3.29717e-06
1.04252e-06
-3.40086e-06
8.06127e-07
-3.47336e-06
5.55093e-07
-3.5135e-06
2.93614e-07
-3.52053e-06
2.59827e-08
-3.49412e-06
-2.43395e-07
-3.43437e-06
-5.09985e-07
-3.34182e-06
-7.69124e-07
-3.21751e-06
-1.01602e-06
-3.06303e-06
-1.24578e-06
-2.88049e-06
-1.45346e-06
-2.67263e-06
-1.6341e-06
-2.44281e-06
-1.78289e-06
-2.19506e-06
-1.8952e-06
-1.93407e-06
-1.96682e-06
-1.66517e-06
-1.99408e-06
-1.39431e-06
-1.9741e-06
-1.12798e-06
-1.90493e-06
-8.73147e-07
-1.78585e-06
-6.37101e-07
-1.61752e-06
-4.27348e-07
-1.40219e-06
-2.51445e-07
-1.14381e-06
-1.16848e-07
-8.48116e-07
-3.07666e-08
-5.22592e-07
-1.76897e-07
-3.39549e-08
2.19176e-07
-1.27342e-07
6.31171e-07
-2.71536e-07
1.00662e-06
-4.57943e-07
1.33808e-06
-6.78161e-07
1.62048e-06
-9.24092e-07
1.85049e-06
-1.18805e-06
2.02639e-06
-1.46282e-06
2.14787e-06
-1.74174e-06
2.21586e-06
-2.01872e-06
2.23224e-06
-2.28825e-06
2.1997e-06
-2.54541e-06
2.1215e-06
-2.78586e-06
2.00133e-06
-3.00578e-06
1.84315e-06
-3.20189e-06
1.65116e-06
-3.37138e-06
1.42966e-06
-3.51187e-06
1.18302e-06
-3.62144e-06
9.15693e-07
-3.69852e-06
6.32177e-07
-3.74196e-06
3.37052e-07
-3.75097e-06
3.49875e-08
-3.72514e-06
-2.69223e-07
-3.66448e-06
-5.70641e-07
-3.56944e-06
-8.64169e-07
-3.44092e-06
-1.14454e-06
-3.28036e-06
-1.40634e-06
-3.08977e-06
-1.64405e-06
-2.87179e-06
-1.85208e-06
-2.62975e-06
-2.02492e-06
-2.36771e-06
-2.15724e-06
-2.09047e-06
-2.24406e-06
-1.80359e-06
-2.28096e-06
-1.51339e-06
-2.2643e-06
-1.22686e-06
-2.19146e-06
-9.51597e-07
-2.06111e-06
-6.95667e-07
-1.87345e-06
-4.67453e-07
-1.6304e-06
-2.75473e-07
-1.33579e-06
-1.28186e-07
-9.95403e-07
-3.37911e-08
-6.16987e-07
-2.10689e-07
-3.67149e-08
2.55891e-07
-1.37533e-07
7.3199e-07
-2.9291e-07
1.16199e-06
-4.93325e-07
1.5385e-06
-7.29484e-07
1.85664e-06
-9.9248e-07
2.11349e-06
-1.27392e-06
2.30782e-06
-1.566e-06
2.43995e-06
-1.8616e-06
2.51146e-06
-2.15429e-06
2.52493e-06
-2.43833e-06
2.48374e-06
-2.70867e-06
2.39185e-06
-2.96091e-06
2.25357e-06
-3.19126e-06
2.0735e-06
-3.39647e-06
1.85637e-06
-3.57379e-06
1.60698e-06
-3.72094e-06
1.33017e-06
-3.83603e-06
1.03078e-06
-3.91756e-06
7.13705e-07
-3.96437e-06
3.83859e-07
-3.97564e-06
4.62603e-08
-3.95091e-06
-2.93952e-07
-3.89008e-06
-6.31476e-07
-3.79344e-06
-9.60811e-07
-3.66173e-06
-1.27624e-06
-3.49622e-06
-1.57185e-06
-3.29874e-06
-1.84153e-06
-3.07177e-06
-2.07905e-06
-2.81854e-06
-2.27815e-06
-2.54306e-06
-2.43272e-06
-2.25022e-06
-2.5369e-06
-1.94578e-06
-2.5854e-06
-1.63638e-06
-2.5737e-06
-1.32952e-06
-2.49832e-06
-1.03345e-06
-2.35718e-06
-7.57056e-07
-2.14985e-06
-5.09675e-07
-1.87778e-06
-3.00878e-07
-1.54459e-06
-1.40226e-07
-1.15605e-06
-3.7021e-08
-7.20193e-07
-2.4771e-07
-3.95786e-08
2.95469e-07
-1.48057e-07
8.40468e-07
-3.1489e-07
1.32883e-06
-5.29552e-07
1.75316e-06
-7.81795e-07
2.10889e-06
-1.06185e-06
2.39354e-06
-1.36057e-06
2.60654e-06
-1.66956e-06
2.74895e-06
-1.98124e-06
2.82313e-06
-2.28884e-06
2.83254e-06
-2.58646e-06
2.78136e-06
-2.86894e-06
2.67433e-06
-3.13188e-06
2.51652e-06
-3.37156e-06
2.31318e-06
-3.58484e-06
2.06965e-06
-3.76909e-06
1.79124e-06
-3.92216e-06
1.48323e-06
-4.04225e-06
1.15088e-06
-4.12794e-06
7.99399e-07
-4.17811e-06
4.3403e-07
-4.19193e-06
6.00778e-08
-4.16886e-06
-3.17026e-07
-4.10867e-06
-6.91666e-07
-4.01149e-06
-1.05799e-06
-3.87785e-06
-1.40988e-06
-3.70878e-06
-1.74093e-06
-3.50586e-06
-2.04445e-06
-3.27135e-06
-2.31356e-06
-3.00829e-06
-2.54121e-06
-2.72059e-06
-2.72042e-06
-2.41312e-06
-2.84437e-06
-2.09179e-06
-2.90674e-06
-1.76353e-06
-2.90195e-06
-1.43635e-06
-2.82551e-06
-1.11915e-06
-2.67437e-06
-8.21714e-07
-2.44729e-06
-5.54395e-07
-2.1451e-06
-3.2793e-07
-1.77105e-06
-1.53117e-07
-1.33087e-06
-4.05015e-08
-8.32808e-07
-2.88211e-07
-4.25728e-08
3.38042e-07
-1.59e-07
9.56895e-07
-3.3763e-07
1.50746e-06
-5.6683e-07
1.98236e-06
-8.35308e-07
2.37736e-06
-1.13236e-06
2.69059e-06
-1.44806e-06
2.92224e-06
-1.77339e-06
3.07427e-06
-2.1003e-06
3.15005e-06
-2.42175e-06
3.15399e-06
-2.73167e-06
3.09127e-06
-3.02489e-06
2.96755e-06
-3.29708e-06
2.78871e-06
-3.54464e-06
2.56075e-06
-3.76461e-06
2.28962e-06
-3.95456e-06
1.98119e-06
-4.11252e-06
1.64119e-06
-4.23686e-06
1.27522e-06
-4.32627e-06
8.88808e-07
-4.37969e-06
4.87449e-07
-4.39629e-06
7.66756e-08
-4.37546e-06
-3.37855e-07
-4.31684e-06
-7.50282e-07
-4.22036e-06
-1.15447e-06
-4.08629e-06
-1.54395e-06
-3.91535e-06
-1.91186e-06
-3.70882e-06
-2.25099e-06
-3.46862e-06
-2.55375e-06
-3.19752e-06
-2.81231e-06
-2.89922e-06
-3.01871e-06
-2.5785e-06
-3.16509e-06
-2.24131e-06
-3.24393e-06
-1.89485e-06
-3.24841e-06
-1.54756e-06
-3.1728e-06
-1.20906e-06
-3.01287e-06
-8.90027e-07
-2.76632e-06
-6.01961e-07
-2.43317e-06
-3.56887e-07
-2.01613e-06
-1.67002e-07
-1.52075e-06
-4.42777e-08
-9.55532e-07
-3.32489e-07
-4.57263e-08
3.83768e-07
-1.70455e-07
1.08162e-06
-3.61293e-07
1.69829e-06
-6.05366e-07
2.22643e-06
-8.90226e-07
2.66222e-06
-1.20415e-06
3.00452e-06
-1.53637e-06
3.25446e-06
-1.87722e-06
3.41512e-06
-2.21822e-06
3.49105e-06
-2.55207e-06
3.48784e-06
-2.87262e-06
3.41182e-06
-3.17474e-06
3.26966e-06
-3.45425e-06
3.06822e-06
-3.70779e-06
2.81429e-06
-3.93266e-06
2.51449e-06
-4.1267e-06
2.17523e-06
-4.28818e-06
1.80267e-06
-4.41573e-06
1.40276e-06
-4.50818e-06
9.81261e-07
-4.56458e-06
5.43853e-07
-4.58413e-06
9.62225e-08
-4.56615e-06
-3.55831e-07
-4.51014e-06
-8.06292e-07
-4.41579e-06
-1.24882e-06
-4.28307e-06
-1.67667e-06
-4.11233e-06
-2.08261e-06
-3.90442e-06
-2.4589e-06
-3.66087e-06
-2.7973e-06
-3.38404e-06
-3.08914e-06
-3.0773e-06
-3.32546e-06
-2.74521e-06
-3.49718e-06
-2.39367e-06
-3.59546e-06
-2.03005e-06
-3.61204e-06
-1.66318e-06
-3.53967e-06
-1.30339e-06
-3.37266e-06
-9.62318e-07
-3.10739e-06
-6.52697e-07
-2.74279e-06
-3.88002e-07
-2.28082e-06
-1.82027e-07
-1.72673e-06
-4.8396e-08
-1.08916e-06
-3.80885e-07
-4.90734e-08
4.32842e-07
-1.82532e-07
1.21508e-06
-3.86065e-07
1.90183e-06
-6.45391e-07
2.48576e-06
-9.46757e-07
2.96359e-06
-1.27731e-06
3.33507e-06
-1.62539e-06
3.60253e-06
-1.98065e-06
3.77039e-06
-2.33421e-06
3.8446e-06
-2.67856e-06
3.83219e-06
-3.00754e-06
3.74079e-06
-3.31618e-06
3.5783e-06
-3.60056e-06
3.3526e-06
-3.85763e-06
3.07136e-06
-4.08508e-06
2.74193e-06
-4.28111e-06
2.37126e-06
-4.44436e-06
1.96592e-06
-4.57371e-06
1.53212e-06
-4.66827e-06
1.07581e-06
-4.72721e-06
6.02791e-07
-4.74977e-06
1.18791e-07
-4.73526e-06
-3.70349e-07
-4.68299e-06
-8.58562e-07
-4.5924e-06
-1.33941e-06
-4.46311e-06
-1.80596e-06
-4.29501e-06
-2.2507e-06
-4.08847e-06
-2.66544e-06
-3.84447e-06
-3.04131e-06
-3.56483e-06
-3.36879e-06
-3.25244e-06
-3.63784e-06
-2.9115e-06
-3.83812e-06
-2.54772e-06
-3.95924e-06
-2.16849e-06
-3.99126e-06
-1.78301e-06
-3.92516e-06
-1.40224e-06
-3.75343e-06
-1.03884e-06
-3.47078e-06
-7.06903e-07
-3.07473e-06
-4.21528e-07
-2.5662e-06
-1.98344e-07
-1.94991e-06
-5.29067e-08
-1.2346e-06
-4.33791e-07
-5.26572e-08
4.85499e-07
-1.95365e-07
1.35779e-06
-4.12175e-07
2.11864e-06
-6.87179e-07
2.76076e-06
-1.00514e-06
3.28155e-06
-1.35194e-06
3.68187e-06
-1.71493e-06
3.96553e-06
-2.08312e-06
4.13858e-06
-2.44721e-06
4.20869e-06
-2.79959e-06
4.18457e-06
-3.13419e-06
4.07539e-06
-3.44632e-06
3.89043e-06
-3.73244e-06
3.63872e-06
-3.98998e-06
3.3289e-06
-4.21709e-06
2.96905e-06
-4.41248e-06
2.56665e-06
-4.57522e-06
2.12866e-06
-4.70459e-06
1.66149e-06
-4.79998e-06
1.1712e-06
-4.86078e-06
6.63584e-07
-4.88631e-06
1.44323e-07
-4.87583e-06
-3.80827e-07
-4.82852e-06
-9.05869e-07
-4.74354e-06
-1.4244e-06
-4.62007e-06
-1.92943e-06
-4.45753e-06
-2.41325e-06
-4.25564e-06
-2.86733e-06
-4.01472e-06
-3.28222e-06
-3.73591e-06
-3.6476e-06
-3.42143e-06
-3.95232e-06
-3.07494e-06
-4.18461e-06
-2.70176e-06
-4.33242e-06
-2.30916e-06
-4.38386e-06
-1.90656e-06
-4.32776e-06
-1.50553e-06
-4.15446e-06
-1.11979e-06
-3.85653e-06
-7.6487e-07
-3.42965e-06
-4.5773e-07
-2.87333e-06
-2.1612e-07
-2.19152e-06
-5.7866e-08
-1.39285e-06
-4.91657e-07
-5.6534e-08
5.42033e-07
-2.0913e-07
1.51038e-06
-4.39915e-07
2.34942e-06
-7.31076e-07
3.05192e-06
-1.06565e-06
3.61612e-06
-1.42811e-06
4.04433e-06
-1.80474e-06
4.34216e-06
-2.18386e-06
4.51769e-06
-2.55586e-06
4.58069e-06
-2.9131e-06
4.54182e-06
-3.24976e-06
4.41206e-06
-3.56157e-06
4.20224e-06
-3.84555e-06
3.9227e-06
-4.09973e-06
3.58309e-06
-4.32291e-06
3.19223e-06
-4.51441e-06
2.75815e-06
-4.67383e-06
2.28808e-06
-4.80096e-06
1.78862e-06
-4.89554e-06
1.26579e-06
-4.95724e-06
7.25278e-07
-4.98551e-06
1.72591e-07
-4.9796e-06
-3.86736e-07
-4.93854e-06
-9.46928e-07
-4.86118e-06
-1.50175e-06
-4.74628e-06
-2.04433e-06
-4.59264e-06
-2.56689e-06
-4.39928e-06
-3.06069e-06
-4.16571e-06
-3.5158e-06
-3.89218e-06
-3.92113e-06
-3.58007e-06
-4.26442e-06
-3.23224e-06
-4.53244e-06
-2.85341e-06
-4.71125e-06
-2.45053e-06
-4.78674e-06
-2.03303e-06
-4.74526e-06
-1.61303e-06
-4.57446e-06
-1.20527e-06
-4.26429e-06
-8.26877e-07
-3.80804e-06
-4.96896e-07
-3.20332e-06
-2.35546e-07
-2.45287e-06
-6.33399e-08
-1.56506e-06
-5.54997e-07
-6.078e-08
6.02813e-07
-2.2406e-07
1.67366e-06
-4.69671e-07
2.59503e-06
-7.7753e-07
3.35978e-06
-1.12866e-06
3.96726e-06
-1.50592e-06
4.4216e-06
-1.89445e-06
4.73069e-06
-2.2819e-06
4.90514e-06
-2.65842e-06
4.95721e-06
-3.01651e-06
4.89991e-06
-3.35078e-06
4.74632e-06
-3.65756e-06
4.50902e-06
-3.93463e-06
4.19977e-06
-4.1808e-06
3.82926e-06
-4.39567e-06
3.4071e-06
-4.57931e-06
2.94178e-06
-4.73201e-06
2.44078e-06
-4.85411e-06
1.91072e-06
-4.94583e-06
1.35751e-06
-5.00715e-06
7.86601e-07
-5.03773e-06
2.03164e-07
-5.03682e-06
-3.87638e-07
-5.00334e-06
-9.80412e-07
-4.93582e-06
-1.56928e-06
-4.83253e-06
-2.14761e-06
-4.69162e-06
-2.7078e-06
-4.5113e-06
-3.241e-06
-4.29011e-06
-3.73699e-06
-4.02725e-06
-4.18399e-06
-3.723e-06
-4.56868e-06
-3.37915e-06
-4.87629e-06
-2.99953e-06
-5.09087e-06
-2.59048e-06
-5.1958e-06
-2.16123e-06
-5.1745e-06
-1.72426e-06
-5.01143e-06
-1.29531e-06
-4.69324e-06
-8.93211e-07
-4.21013e-06
-5.39355e-07
-3.55717e-06
-2.56848e-07
-2.73538e-06
-6.94091e-08
-1.7525e-06
-6.24406e-07
-6.54994e-08
6.68312e-07
-2.40472e-07
1.84864e-06
-5.01956e-07
2.85652e-06
-8.27127e-07
3.68495e-06
-1.19463e-06
4.33476e-06
-1.58548e-06
4.81244e-06
-1.98358e-06
5.12879e-06
-2.37596e-06
5.29752e-06
-2.75269e-06
5.33393e-06
-3.1066e-06
5.25383e-06
-3.43295e-06
5.07267e-06
-3.72895e-06
4.80502e-06
-3.99332e-06
4.46414e-06
-4.2259e-06
4.06183e-06
-4.42723e-06
3.60844e-06
-4.5983e-06
3.11285e-06
-4.7402e-06
2.58268e-06
-4.85395e-06
2.02447e-06
-4.9403e-06
1.44387e-06
-4.99964e-06
8.45936e-07
-5.03184e-06
2.35366e-07
-5.03626e-06
-3.83225e-07
-5.01166e-06
-1.005e-06
-4.95631e-06
-1.62463e-06
-4.86798e-06
-2.23595e-06
-4.7441e-06
-2.83168e-06
-4.58197e-06
-3.40313e-06
-4.37902e-06
-3.93993e-06
-4.13321e-06
-4.4298e-06
-3.84345e-06
-4.85844e-06
-3.51017e-06
-5.20957e-06
-3.13595e-06
-5.46509e-06
-2.72614e-06
-5.60561e-06
-2.28946e-06
-5.61118e-06
-1.83847e-06
-5.46241e-06
-1.38984e-06
-5.14188e-06
-9.6417e-07
-4.63581e-06
-5.85495e-07
-3.93585e-06
-2.80307e-07
-3.04057e-06
-7.61757e-08
-1.95663e-06
-7.00582e-07
-7.08355e-08
7.39148e-07
-2.58796e-07
2.0366e-06
-5.37457e-07
3.13518e-06
-8.80634e-07
4.02813e-06
-1.26413e-06
4.71826e-06
-1.66685e-06
5.21516e-06
-2.07142e-06
5.53336e-06
-2.46434e-06
5.69044e-06
-2.8358e-06
5.70539e-06
-3.17927e-06
5.5973e-06
-3.49095e-06
5.38435e-06
-3.7692e-06
5.08327e-06
-4.01398e-06
4.70892e-06
-4.22635e-06
4.27421e-06
-4.40803e-06
3.79012e-06
-4.56105e-06
3.26586e-06
-4.68741e-06
2.70904e-06
-4.78891e-06
2.12596e-06
-4.86692e-06
1.52188e-06
-4.92228e-06
9.01297e-07
-4.95517e-06
2.68249e-07
-4.96504e-06
-3.73356e-07
-4.9506e-06
-1.01944e-06
-4.90984e-06
-1.66539e-06
-4.84003e-06
-2.30576e-06
-4.73787e-06
-2.93383e-06
-4.5997e-06
-3.54131e-06
-4.42171e-06
-4.11792e-06
-4.2004e-06
-4.65111e-06
-3.93305e-06
-5.12579e-06
-3.61838e-06
-5.52424e-06
-3.25729e-06
-5.82618e-06
-2.85369e-06
-6.00921e-06
-2.41535e-06
-6.04953e-06
-1.95456e-06
-5.9232e-06
-1.48866e-06
-5.60777e-06
-1.04008e-06
-5.08439e-06
-6.35793e-07
-4.34013e-06
-3.06281e-07
-3.37008e-06
-8.3773e-08
-2.17914e-06
-7.84355e-07
-7.69879e-08
8.16136e-07
-2.79617e-07
2.23923e-06
-5.77089e-07
3.43265e-06
-9.39037e-07
4.39008e-06
-1.33785e-06
5.11707e-06
-1.75004e-06
5.62736e-06
-2.15695e-06
5.94027e-06
-2.54472e-06
6.07822e-06
-2.90402e-06
6.06469e-06
-3.22929e-06
5.92257e-06
-3.51809e-06
5.67315e-06
-3.77028e-06
5.33546e-06
-3.98737e-06
4.926e-06
-4.17188e-06
4.45872e-06
-4.32687e-06
3.94512e-06
-4.45557e-06
3.39456e-06
-4.56101e-06
2.81448e-06
-4.64583e-06
2.21078e-06
-4.71208e-06
1.58814e-06
-4.76112e-06
9.50329e-07
-4.79345e-06
3.00579e-07
-4.8087e-06
-3.58101e-07
-4.80557e-06
-1.02256e-06
-4.78181e-06
-1.68916e-06
-4.73424e-06
-2.35333e-06
-4.65884e-06
-3.00923e-06
-4.55092e-06
-3.64923e-06
-4.40538e-06
-4.26346e-06
-4.21709e-06
-4.8394e-06
-3.98143e-06
-5.36145e-06
-3.69502e-06
-5.81065e-06
-3.3566e-06
-6.16459e-06
-2.9681e-06
-6.39771e-06
-2.53569e-06
-6.48194e-06
-2.07089e-06
-6.38799e-06
-1.59138e-06
-6.08729e-06
-1.12128e-06
-5.55449e-06
-6.90853e-07
-4.77055e-06
-3.35243e-07
-3.72569e-06
-9.23806e-08
-2.422e-06
-8.76735e-07
-8.42355e-08
9.00371e-07
-3.03735e-07
2.45873e-06
-6.22062e-07
3.75098e-06
-1.00358e-06
4.7716e-06
-1.41655e-06
5.53004e-06
-1.83484e-06
6.04565e-06
-2.23855e-06
6.34397e-06
-2.61385e-06
6.45352e-06
-2.95229e-06
6.40313e-06
-3.24987e-06
6.22014e-06
-3.50594e-06
5.92922e-06
-3.72231e-06
5.55182e-06
-3.90233e-06
5.10602e-06
-4.05025e-06
4.60664e-06
-4.17067e-06
4.06554e-06
-4.26809e-06
3.49198e-06
-4.34666e-06
2.89305e-06
-4.40991e-06
2.27403e-06
-4.4606e-06
1.63883e-06
-4.50063e-06
9.90351e-07
-4.53088e-06
3.3083e-07
-4.55121e-06
-3.37772e-07
-4.56035e-06
-1.01342e-06
-4.55589e-06
-1.69361e-06
-4.53427e-06
-2.37495e-06
-4.49083e-06
-3.05268e-06
-4.41988e-06
-3.72018e-06
-4.31497e-06
-4.36837e-06
-4.16923e-06
-4.98514e-06
-3.97591e-06
-5.55477e-06
-3.72915e-06
-6.05741e-06
-3.42499e-06
-6.46874e-06
-3.06269e-06
-6.76002e-06
-2.64608e-06
-6.89855e-06
-2.18515e-06
-6.84892e-06
-1.69731e-06
-6.57514e-06
-1.20815e-06
-6.04364e-06
-7.51449e-07
-5.22726e-06
-3.67829e-07
-4.10931e-06
-1.02246e-07
-2.68758e-06
-9.78981e-07
-9.29725e-08
9.93344e-07
-3.32247e-07
2.698e-06
-6.7397e-07
4.0927e-06
-1.07578e-06
5.17341e-06
-1.50099e-06
5.95525e-06
-1.92058e-06
6.46523e-06
-2.31367e-06
6.73707e-06
-2.66701e-06
6.80686e-06
-2.97376e-06
6.70988e-06
-3.23207e-06
6.47846e-06
-3.44375e-06
6.1409e-06
-3.61297e-06
5.72104e-06
-3.74531e-06
5.23836e-06
-3.84697e-06
4.7083e-06
-3.92418e-06
4.14276e-06
-3.98284e-06
3.55064e-06
-4.02819e-06
2.9384e-06
-4.06466e-06
2.3105e-06
-4.09573e-06
1.6699e-06
-4.12381e-06
1.01843e-06
-4.1502e-06
3.57228e-07
-4.17503e-06
-3.12948e-07
-4.19713e-06
-9.91318e-07
-4.21405e-06
-1.6767e-06
-4.22195e-06
-2.36705e-06
-4.21561e-06
-3.05901e-06
-4.1885e-06
-3.74729e-06
-4.13287e-06
-4.424e-06
-4.04007e-06
-5.07795e-06
-3.90104e-06
-5.69381e-06
-3.70709e-06
-6.25136e-06
-3.45104e-06
-6.7248e-06
-3.12865e-06
-7.08241e-06
-2.74049e-06
-7.2867e-06
-2.29397e-06
-7.29544e-06
-1.80531e-06
-7.0638e-06
-1.30106e-06
-6.54789e-06
-8.18582e-07
-5.70974e-06
-4.0491e-07
-4.52298e-06
-1.13718e-07
-2.97878e-06
-1.0927e-06
-1.03763e-07
1.09711e-06
-3.66661e-07
2.9609e-06
-7.34882e-07
4.46092e-06
-1.15743e-06
5.59595e-06
-1.59169e-06
6.38951e-06
-2.0057e-06
6.87924e-06
-2.37819e-06
7.10956e-06
-2.69735e-06
7.12601e-06
-2.95888e-06
6.97141e-06
-3.16401e-06
6.68359e-06
-3.31766e-06
6.29454e-06
-3.42689e-06
5.83028e-06
-3.49983e-06
5.3113e-06
-3.54479e-06
4.75325e-06
-3.56971e-06
4.16768e-06
-3.58185e-06
3.56278e-06
-3.5875e-06
2.94406e-06
-3.59192e-06
2.31492e-06
-3.59921e-06
1.67719e-06
-3.61231e-06
1.03152e-06
-3.63289e-06
3.77811e-07
-3.66137e-06
-2.84471e-07
-3.69678e-06
-9.55902e-07
-3.73674e-06
-1.63674e-06
-3.77731e-06
-2.32649e-06
-3.81292e-06
-3.0234e-06
-3.83636e-06
-3.72385e-06
-3.83876e-06
-4.4216e-06
-3.80979e-06
-5.10691e-06
-3.73806e-06
-5.76554e-06
-3.6118e-06
-6.37761e-06
-3.42005e-06
-6.91656e-06
-3.15426e-06
-7.3482e-06
-2.81055e-06
-7.63041e-06
-2.39239e-06
-7.71361e-06
-1.91346e-06
-7.54272e-06
-1.40026e-06
-7.06109e-06
-8.93541e-07
-6.21646e-06
-4.47696e-07
-4.96883e-06
-1.27304e-07
-3.29917e-06
-1.22e-06
-1.17431e-07
1.21454e-06
-4.09063e-07
3.25253e-06
-8.07445e-07
4.8593e-06
-1.25041e-06
6.03892e-06
-1.68847e-06
6.82757e-06
-2.08701e-06
7.27778e-06
-2.42541e-06
7.44797e-06
-2.69465e-06
7.39526e-06
-2.89431e-06
7.17106e-06
-3.02974e-06
6.81902e-06
-3.10975e-06
6.37456e-06
-3.14482e-06
5.86535e-06
-3.14583e-06
5.31232e-06
-3.12328e-06
4.7307e-06
-3.08679e-06
4.13118e-06
-3.04481e-06
3.5208e-06
-3.00455e-06
2.9038e-06