/*--------------------------------*- C++ -*----------------------------------*\
| =========                 |                                                 |
| \\      /  F ield         | OpenFOAM: The Open Source CFD Toolbox           |
|  \\    /   O peration     | Version:  2306                                  |
|   \\  /    A nd           | Website:  www.openfoam.com                      |
|    \\/     M anipulation  |                                                 |
\*---------------------------------------------------------------------------*/
FoamFile
{
    version     2.0;
    format      ascii;
    arch        "LSB;label=32;scalar=64";
    class       volVectorField;
    location    "0.6";
    object      U;
}
// * * * * * * * * * * * * * * * * * * * * * * * * * * * * * * * * * * * * * //

dimensions      [0 1 -1 0 0 0 0];

internalField   nonuniform List<vector> 
1681
(
(5.68159e-05 -5.66148e-05 0)
(0.000149012 -5.53188e-05 0)
(0.000156997 -9.80165e-06 0)
(2.56225e-05 4.52828e-05 0)
(-0.000254913 9.73154e-05 0)
(-0.000670759 0.000141723 0)
(-0.00120021 0.000177119 0)
(-0.00181898 0.00020345 0)
(-0.00250233 0.000221181 0)
(-0.00322623 0.000230955 0)
(-0.00396792 0.000233462 0)
(-0.00470626 0.000229393 0)
(-0.00542185 0.000219423 0)
(-0.00609714 0.000204203 0)
(-0.00671645 0.000184361 0)
(-0.00726597 0.000160514 0)
(-0.00773382 0.000133263 0)
(-0.00811004 0.000103207 0)
(-0.00838661 7.09462e-05 0)
(-0.00855749 3.70986e-05 0)
(-0.00861873 2.30107e-06 0)
(-0.00856845 -3.27849e-05 0)
(-0.008407 -6.74687e-05 0)
(-0.00813701 -0.000101028 0)
(-0.00776344 -0.000132711 0)
(-0.00729368 -0.000161738 0)
(-0.00673758 -0.000187313 0)
(-0.00610746 -0.000208631 0)
(-0.00541807 -0.000224891 0)
(-0.0046865 -0.000235308 0)
(-0.00393205 -0.000239136 0)
(-0.00317601 -0.000235675 0)
(-0.00244136 -0.000224296 0)
(-0.00175237 -0.000204466 0)
(-0.00113403 -0.000175797 0)
(-0.000611241 -0.000138167 0)
(-0.00020746 -9.20418e-05 0)
(5.7518e-05 -3.92782e-05 0)
(0.000172901 1.51091e-05 0)
(0.000152709 5.81779e-05 0)
(5.63799e-05 5.61726e-05 0)
(5.68223e-05 -0.000149611 0)
(7.84653e-05 -7.54603e-05 0)
(-0.000140213 0.000155003 0)
(-0.000676805 0.000428821 0)
(-0.00154868 0.000695748 0)
(-0.00273416 0.000931774 0)
(-0.00419059 0.00112588 0)
(-0.00586473 0.00127397 0)
(-0.00769883 0.00137561 0)
(-0.00963425 0.00143226 0)
(-0.0116138 0.00144638 0)
(-0.013583 0.00142105 0)
(-0.0154912 0.00135965 0)
(-0.0172919 0.0012657 0)
(-0.0189433 0.00114286 0)
(-0.0204085 0.000994817 0)
(-0.0216554 0.000825332 0)
(-0.0226573 0.000638202 0)
(-0.0233927 0.000437308 0)
(-0.0238456 0.000226634 0)
(-0.0240054 1.0288e-05 0)
(-0.0238677 -0.000207482 0)
(-0.0234336 -0.000422281 0)
(-0.0227106 -0.000629563 0)
(-0.0217125 -0.000824655 0)
(-0.0204594 -0.0010028 0)
(-0.018978 -0.00115919 0)
(-0.0173011 -0.00128907 0)
(-0.015468 -0.00138783 0)
(-0.0135236 -0.00145108 0)
(-0.0115183 -0.00147483 0)
(-0.00950697 -0.00145563 0)
(-0.00754796 -0.00139079 0)
(-0.00570179 -0.00127865 0)
(-0.00402905 -0.00111903 0)
(-0.00258776 -0.000914034 0)
(-0.00142927 -0.000669669 0)
(-0.000592201 -0.000398954 0)
(-9.21548e-05 -0.000127638 0)
(9.62758e-05 9.31156e-05 0)
(5.95182e-05 0.000153025 0)
(1.38619e-05 -0.000162121 0)
(-0.000145204 0.000140337 0)
(-0.000714976 0.000724711 0)
(-0.00174477 0.00139785 0)
(-0.00324049 0.00205916 0)
(-0.00517271 0.00265218 0)
(-0.00748465 0.00314642 0)
(-0.0101034 0.00352747 0)
(-0.012948 0.00379057 0)
(-0.0159344 0.00393668 0)
(-0.0189795 0.00397032 0)
(-0.0220028 0.00389825 0)
(-0.0249287 0.00372856 0)
(-0.0276876 0.00347023 0)
(-0.0302161 0.00313281 0)
(-0.0324581 0.00272622 0)
(-0.0343651 0.00226067 0)
(-0.0358964 0.00174667 0)
(-0.0370192 0.00119496 0)
(-0.0377092 0.000616637 0)
(-0.0379508 2.3108e-05 0)
(-0.0377371 -0.000573846 0)
(-0.0370705 -0.00116208 0)
(-0.0359627 -0.00172911 0)
(-0.0344349 -0.00226217 0)
(-0.0325179 -0.00274838 0)
(-0.0302523 -0.00317482 0)
(-0.0276882 -0.00352885 0)
(-0.0248844 -0.00379832 0)
(-0.0219086 -0.00397194 0)
(-0.0188358 -0.00403969 0)
(-0.0157472 -0.00399334 0)
(-0.0127284 -0.00382708 0)
(-0.00986723 -0.00353841 0)
(-0.00725027 -0.00312941 0)
(-0.00495895 -0.00260882 0)
(-0.00306384 -0.00199548 0)
(-0.0016166 -0.00132434 0)
(-0.000638992 -0.000655607 0)
(-0.000114495 -9.16779e-05 0)
(1.95365e-05 0.000177925 0)
(-3.87879e-05 -3.96241e-05 0)
(-0.000416355 0.000671924 0)
(-0.00139412 0.00175454 0)
(-0.00296414 0.00295444 0)
(-0.00510528 0.0041253 0)
(-0.0077749 0.00517713 0)
(-0.0109019 0.00605701 0)
(-0.0143967 0.00673709 0)
(-0.0181601 0.00720589 0)
(-0.0220887 0.00746254 0)
(-0.0260788 0.00751318 0)
(-0.0300298 0.00736859 0)
(-0.0338463 0.00704264 0)
(-0.0374399 0.00655126 0)
(-0.0407299 0.00591176 0)
(-0.0436449 0.00514245 0)
(-0.0461224 0.00426241 0)
(-0.0481105 0.00329133 0)
(-0.0495672 0.00224956 0)
(-0.0504615 0.00115803 0)
(-0.0507734 3.83395e-05 0)
(-0.0504943 -0.00108726 0)
(-0.0496276 -0.0021959 0)
(-0.0481884 -0.00326411 0)
(-0.0462041 -0.00426805 0)
(-0.0437144 -0.00518369 0)
(-0.0407712 -0.00598716 0)
(-0.0374382 -0.00665516 0)
(-0.0337906 -0.00716555 0)
(-0.0299139 -0.00749799 0)
(-0.0259028 -0.00763477 0)
(-0.0218594 -0.00756184 0)
(-0.0178907 -0.00726999 0)
(-0.0141057 -0.00675656 0)
(-0.0106114 -0.00602766 0)
(-0.0075078 -0.00510148 0)
(-0.00488207 -0.0040134 0)
(-0.0027997 -0.00282389 0)
(-0.00129464 -0.00162931 0)
(-0.000374935 -0.000579536 0)
(-3.0734e-05 7.44915e-05 0)
(-9.01696e-05 0.000231662 0)
(-0.000693327 0.00154982 0)
(-0.00209861 0.00327291 0)
(-0.00422792 0.00510953 0)
(-0.00702316 0.00687826 0)
(-0.0104227 0.00846035 0)
(-0.0143384 0.00978176 0)
(-0.0186646 0.0108009 0)
(-0.0232855 0.0114988 0)
(-0.0280814 0.0118721 0)
(-0.0329321 0.0119281 0)
(-0.0377205 0.0116821 0)
(-0.0423353 0.0111542 0)
(-0.0466731 0.0103682 0)
(-0.0506392 0.00935075 0)
(-0.0541496 0.00813 0)
(-0.057131 0.00673569 0)
(-0.059522 0.0051987 0)
(-0.0612732 0.00355097 0)
(-0.0623482 0.00182549 0)
(-0.0627234 5.62353e-05 0)
(-0.0623889 -0.00172178 0)
(-0.0613485 -0.00347263 0)
(-0.0596203 -0.00515957 0)
(-0.0572365 -0.00674535 0)
(-0.0542438 -0.00819254 0)
(-0.0507032 -0.00946411 0)
(-0.0466895 -0.0105241 0)
(-0.0422906 -0.0113385 0)
(-0.0376067 -0.0118765 0)
(-0.0327482 -0.0121114 0)
(-0.027834 -0.0120225 0)
(-0.0229887 -0.0115972 0)
(-0.0183388 -0.010833 0)
(-0.0140087 -0.00974077 0)
(-0.0101155 -0.00834937 0)
(-0.00676305 -0.00671143 0)
(-0.00403361 -0.00491218 0)
(-0.00197927 -0.00308016 0)
(-0.00064275 -0.00140323 0)
(-8.00968e-05 -0.000172405 0)
(-0.000137226 0.000646477 0)
(-0.000959929 0.0027761 0)
(-0.00279166 0.00528828 0)
(-0.00548149 0.00787169 0)
(-0.0089294 0.0103206 0)
(-0.0130502 0.0124941 0)
(-0.0177361 0.0143004 0)
(-0.0228634 0.0156858 0)
(-0.0283008 0.0166244 0)
(-0.0339132 0.0171107 0)
(-0.0395661 0.0171537 0)
(-0.0451286 0.0167732 0)
(-0.0504762 0.0159965 0)
(-0.055493 0.0148563 0)
(-0.0600735 0.0133893 0)
(-0.0641231 0.0116351 0)
(-0.0675599 0.00963552 0)
(-0.070315 0.00743416 0)
(-0.0723329 0.00507625 0)
(-0.0735728 0.00260854 0)
(-0.0740081 7.92064e-05 0)
(-0.0736277 -0.00246216 0)
(-0.0724356 -0.0049647 0)
(-0.070452 -0.00737654 0)
(-0.0677129 -0.0096451 0)
(-0.0642702 -0.0117177 0)
(-0.0601922 -0.0135424 0)
(-0.0555622 -0.0150689 0)
(-0.0504787 -0.0162497 0)
(-0.0450533 -0.0170419 0)
(-0.0394096 -0.0174091 0)
(-0.0336807 -0.017323 0)
(-0.0280062 -0.0167669 0)
(-0.0225282 -0.0157381 0)
(-0.0173876 -0.0142524 0)
(-0.0127185 -0.0123487 0)
(-0.00864329 -0.0100957 0)
(-0.0052641 -0.00760073 0)
(-0.00265597 -0.0050189 0)
(-0.000901439 -0.00256647 0)
(-0.000125323 -0.000558215 0)
(-0.000179732 0.00119547 0)
(-0.0012115 0.0043408 0)
(-0.00345906 0.00779435 0)
(-0.00670114 0.0112366 0)
(-0.0107942 0.0144466 0)
(-0.0156266 0.0172677 0)
(-0.0210681 0.0195951 0)
(-0.026976 0.0213657 0)
(-0.0332022 0.0225487 0)
(-0.0395969 0.0231374 0)
(-0.0460123 0.0231434 0)
(-0.0523051 0.022592 0)
(-0.0583397 0.0215185 0)
(-0.06399 0.0199654 0)
(-0.0691409 0.0179807 0)
(-0.07369 0.0156164 0)
(-0.077548 0.0129275 0)
(-0.0806401 0.00997169 0)
(-0.0829061 0.00680884 0)
(-0.0843012 0.00350078 0)
(-0.0847967 0.000111273 0)
(-0.0843798 -0.00329408 0)
(-0.0830549 -0.00664805 0)
(-0.0808432 -0.00988211 0)
(-0.0777833 -0.0129269 0)
(-0.0739313 -0.015713 0)
(-0.0693606 -0.0181719 0)
(-0.0641615 -0.0202375 0)
(-0.0584404 -0.0218474 0)
(-0.052319 -0.0229456 0)
(-0.0459317 -0.023484 0)
(-0.039424 -0.0234261 0)
(-0.0329493 -0.0227499 0)
(-0.0266649 -0.0214516 0)
(-0.0207279 -0.0195506 0)
(-0.0152907 -0.0170943 0)
(-0.0104961 -0.0141654 0)
(-0.00646922 -0.0108893 0)
(-0.00331128 -0.00744227 0)
(-0.00114645 -0.00406114 0)
(-0.000166137 -0.00107416 0)
(-0.000218463 0.00186961 0)
(-0.00144875 0.00623052 0)
(-0.00409886 0.0107788 0)
(-0.0078814 0.0151937 0)
(-0.0126096 0.0192459 0)
(-0.0181437 0.0227693 0)
(-0.0243294 0.0256504 0)
(-0.0310032 0.0278205 0)
(-0.0379993 0.0292462 0)
(-0.0451534 0.0299216 0)
(-0.0523043 0.0298627 0)
(-0.0592975 0.0291014 0)
(-0.0659875 0.0276821 0)
(-0.0722392 0.0256582 0)
(-0.0779299 0.0230899 0)
(-0.0829506 0.0200428 0)
(-0.0872063 0.0165862 0)
(-0.0906173 0.0127927 0)
(-0.0931195 0.00873775 0)
(-0.0946653 0.00449939 0)
(-0.0952235 0.000157988 0)
(-0.0947802 -0.00420382 0)
(-0.0933393 -0.00850135 0)
(-0.0909225 -0.0126483 0)
(-0.08757 -0.0165573 0)
(-0.0833405 -0.0201409 0)
(-0.0783112 -0.0233129 0)
(-0.0725777 -0.0259898 0)
(-0.0662529 -0.028093 0)
(-0.0594665 -0.0295517 0)
(-0.0523627 -0.030305 0)
(-0.0450983 -0.0303064 0)
(-0.03784 -0.0295271 0)
(-0.03076 -0.0279604 0)
(-0.0240328 -0.0256273 0)
(-0.0178304 -0.0225818 0)
(-0.0123181 -0.018917 0)
(-0.00764646 -0.014773 0)
(-0.00394475 -0.0103421 0)
(-0.00137898 -0.00587631 0)
(-0.000203382 -0.00171195 0)
(-0.000254432 0.0026615 0)
(-0.00167452 0.00843253 0)
(-0.00471499 0.0142289 0)
(-0.00902646 0.0197317 0)
(-0.01438 0.0247087 0)
(-0.0206071 0.0289889 0)
(-0.0275279 0.032455 0)
(-0.0349569 0.0350362 0)
(-0.0427101 0.0366997 0)
(-0.0506076 0.0374431 0)
(-0.0584755 0.0372883 0)
(-0.0661483 0.036276 0)
(-0.0734713 0.0344609 0)
(-0.0803019 0.0319086 0)
(-0.0865108 0.0286928 0)
(-0.0919836 0.0248933 0)
(-0.0966208 0.0205947 0)
(-0.100339 0.0158854 0)
(-0.103071 0.0108572 0)
(-0.104766 0.00560499 0)
(-0.105392 0.000226378 0)
(-0.104933 -0.00517818 0)
(-0.103392 -0.0105058 0)
(-0.10079 -0.0156515 0)
(-0.0971692 -0.0205092 0)
(-0.0925887 -0.0249722 0)
(-0.0871284 -0.0289352 0)
(-0.0808875 -0.0322964 0)
(-0.0739841 -0.0349594 0)
(-0.0665545 -0.0368367 0)
(-0.0587519 -0.0378531 0)
(-0.0507438 -0.0379498 0)
(-0.0427098 -0.0370892 0)
(-0.0348379 -0.0352596 0)
(-0.0273206 -0.0324809 0)
(-0.0203513 -0.0288105 0)
(-0.0141198 -0.0243492 0)
(-0.00880391 -0.0192478 0)
(-0.00456242 -0.0137111 0)
(-0.00160267 -0.00800264 0)
(-0.000238195 -0.00246522 0)
(-0.000288592 0.00356572 0)
(-0.00189226 0.0109367 0)
(-0.00531381 0.0181335 0)
(-0.0101451 0.0248408 0)
(-0.0161162 0.0308263 0)
(-0.0230293 0.0359187 0)
(-0.0306784 0.0400006 0)
(-0.038855 0.0430031 0)
(-0.047356 0.0448974 0)
(-0.0559855 0.0456876 0)
(-0.0645567 0.045404 0)
(-0.0728937 0.0440979 0)
(-0.0808331 0.0418362 0)
(-0.0882255 0.0386982 0)
(-0.0949364 0.0347722 0)
(-0.100847 0.0301532 0)
(-0.105854 0.0249418 0)
(-0.109871 0.019243 0)
(-0.112829 0.0131652 0)
(-0.114675 0.00682073 0)
(-0.115375 0.000324854 0)
(-0.114912 -0.0062038 0)
(-0.113287 -0.0126437 0)
(-0.110521 -0.0188707 0)
(-0.106654 -0.0247589 0)
(-0.101746 -0.030182 0)
(-0.0958788 -0.0350146 0)
(-0.0891533 -0.0391346 0)
(-0.0816917 -0.0424266 0)
(-0.0736359 -0.0447845 0)
(-0.0651468 -0.0461165 0)
(-0.0564023 -0.0463494 0)
(-0.0475952 -0.0454338 0)
(-0.0389297 -0.0433502 0)
(-0.0306177 -0.0401145 0)
(-0.0228754 -0.0357841 0)
(-0.0159189 -0.0304643 0)
(-0.00995502 -0.0243133 0)
(-0.00517325 -0.0175457 0)
(-0.00182195 -0.0104346 0)
(-0.000271705 -0.00333011 0)
(-0.000321766 0.00457889 0)
(-0.00210539 0.0137364 0)
(-0.00590238 0.0224853 0)
(-0.0112478 0.0305139 0)
(-0.0178314 0.0375927 0)
(-0.0254261 0.0435528 0)
(-0.0337988 0.0482811 0)
(-0.0427173 0.0517141 0)
(-0.0519587 0.0538306 0)
(-0.0613109 0.0546442 0)
(-0.070574 0.0541969 0)
(-0.0795619 0.0525528 0)
(-0.0881033 0.0497932 0)
(-0.096043 0.0460124 0)
(-0.103242 0.0413145 0)
(-0.109578 0.0358111 0)
(-0.114945 0.0296194 0)
(-0.119255 0.0228611 0)
(-0.122438 0.0156619 0)
(-0.124438 0.00815155 0)
(-0.12522 0.000463107 0)
(-0.124765 -0.00726653 0)
(-0.123073 -0.014897 0)
(-0.120162 -0.0222847 0)
(-0.116072 -0.0292838 0)
(-0.110861 -0.0357472 0)
(-0.104611 -0.0415283 0)
(-0.097423 -0.046484 0)
(-0.0894224 -0.0504774 0)
(-0.0807554 -0.0533823 0)
(-0.0715901 -0.0550874 0)
(-0.0621142 -0.0555021 0)
(-0.0525337 -0.0545626 0)
(-0.0430695 -0.0522377 0)
(-0.0339543 -0.0485358 0)
(-0.0254285 -0.0435111 0)
(-0.0177364 -0.0372696 0)
(-0.0111155 -0.0299742 0)
(-0.00578724 -0.0218474 0)
(-0.00204138 -0.0131713 0)
(-0.000304942 -0.0043053 0)
(-0.000354642 0.00569942 0)
(-0.00231703 0.0168281 0)
(-0.00648758 0.0272804 0)
(-0.0123453 0.0367476 0)
(-0.0195397 0.0450045 0)
(-0.0278138 0.0518879 0)
(-0.0369071 0.0572922 0)
(-0.0465628 0.0611633 0)
(-0.0565378 0.0634914 0)
(-0.0666034 0.0643032 0)
(-0.0765468 0.0636554 0)
(-0.0861719 0.0616276 0)
(-0.0953006 0.0583177 0)
(-0.103772 0.0538371 0)
(-0.111444 0.0483072 0)
(-0.118193 0.0418567 0)
(-0.123911 0.0346201 0)
(-0.128508 0.0267364 0)
(-0.131914 0.0183485 0)
(-0.134072 0.00960346 0)
(-0.134945 0.000651952 0)
(-0.134512 -0.00835108 0)
(-0.132771 -0.0172466 0)
(-0.129737 -0.0258716 0)
(-0.125449 -0.0340599 0)
(-0.119961 -0.0416432 0)
(-0.113354 -0.048453 0)
(-0.105728 -0.0543234 0)
(-0.0972094 -0.0590946 0)
(-0.087948 -0.0626174 0)
(-0.0781177 -0.0647584 0)
(-0.0679155 -0.0654065 0)
(-0.0575605 -0.0644793 0)
(-0.047291 -0.0619303 0)
(-0.0373613 -0.0577562 0)
(-0.0280377 -0.0520041 0)
(-0.0195945 -0.0447774 0)
(-0.0123018 -0.0362412 0)
(-0.00641452 -0.0266238 0)
(-0.00226538 -0.0162169 0)
(-0.000338822 -0.00539192 0)
(-0.000387797 0.0069273 0)
(-0.00252997 0.0202118 0)
(-0.0070758 0.0325188 0)
(-0.0134477 0.0435418 0)
(-0.0212542 0.0530612 0)
(-0.0302079 0.0609223 0)
(-0.0400198 0.0670304 0)
(-0.0504082 0.071345 0)
(-0.0611089 0.0738714 0)
(-0.0718768 0.0746535 0)
(-0.0824864 0.0737658 0)
(-0.0927323 0.0713069 0)
(-0.10243 0.0673937 0)
(-0.111415 0.0621566 0)
(-0.119543 0.0557356 0)
(-0.126688 0.0482777 0)
(-0.132744 0.0399353 0)
(-0.137621 0.0308647 0)
(-0.141247 0.0212259 0)
(-0.143566 0.0111827 0)
(-0.144538 0.000903097 0)
(-0.144142 -0.00944059 0)
(-0.142372 -0.0196711 0)
(-0.139242 -0.0296065 0)
(-0.134783 -0.0390602 0)
(-0.129049 -0.0478424 0)
(-0.122115 -0.0557618 0)
(-0.114081 -0.0626284 0)
(-0.105071 -0.0682576 0)
(-0.0952364 -0.0724745 0)
(-0.084756 -0.0751206 0)
(-0.0738355 -0.0760601 0)
(-0.0627067 -0.0751878 0)
(-0.0516253 -0.0724376 0)
(-0.0408683 -0.0677899 0)
(-0.0307295 -0.0612803 0)
(-0.021515 -0.0530058 0)
(-0.0135299 -0.0431308 0)
(-0.00706489 -0.0318886 0)
(-0.00249809 -0.0195806 0)
(-0.000374168 -0.00659336 0)
(-0.000421719 0.00826391 0)
(-0.0027467 0.0238906 0)
(-0.00767283 0.038204 0)
(-0.0145642 0.0508997 0)
(-0.0229871 0.0617648 0)
(-0.0326222 0.0706558 0)
(-0.0431512 0.0774928 0)
(-0.0542664 0.0822525 0)
(-0.0656826 0.0849603 0)
(-0.077138 0.0856809 0)
(-0.0883948 0.0845111 0)
(-0.0992395 0.0815714 0)
(-0.109482 0.0770006 0)
(-0.118956 0.0709503 0)
(-0.127516 0.0635807 0)
(-0.135037 0.0550582 0)
(-0.141414 0.0455532 0)
(-0.146558 0.0352393 0)
(-0.150398 0.0242932 0)
(-0.152878 0.012895 0)
(-0.153959 0.00122882 0)
(-0.153617 -0.0105165 0)
(-0.151841 -0.0221465 0)
(-0.148643 -0.0334606 0)
(-0.144047 -0.0442527 0)
(-0.138104 -0.0543111 0)
(-0.130881 -0.0634214 0)
(-0.122475 -0.0713681 0)
(-0.113008 -0.0779395 0)
(-0.102629 -0.0829327 0)
(-0.0915202 -0.0861599 0)
(-0.079895 -0.0874567 0)
(-0.0679969 -0.0866903 0)
(-0.0560992 -0.0837694 0)
(-0.0445021 -0.0786531 0)
(-0.0335284 -0.0713602 0)
(-0.0235186 -0.0619776 0)
(-0.014815 -0.0506657 0)
(-0.00774766 -0.0376612 0)
(-0.00274338 -0.023276 0)
(-0.00041173 -0.00791513 0)
(-0.000456836 0.00971186 0)
(-0.00296943 0.0278699 0)
(-0.00828398 0.044343 0)
(-0.0157033 0.0588275 0)
(-0.0247491 0.0711193 0)
(-0.0350686 0.0810889 0)
(-0.0463124 0.088675 0)
(-0.0581462 0.0938765 0)
(-0.0702633 0.0967432 0)
(-0.0823856 0.097366 0)
(-0.0942637 0.0958675 0)
(-0.105677 0.0923944 0)
(-0.116432 0.0871104 0)
(-0.126361 0.0801904 0)
(-0.13532 0.0718167 0)
(-0.143188 0.0621757 0)
(-0.149861 0.0514563 0)
(-0.155254 0.0398491 0)
(-0.159298 0.0275469 0)
(-0.161939 0.0147447 0)
(-0.163136 0.00164154 0)
(-0.162863 -0.0115585 0)
(-0.161108 -0.0246449 0)
(-0.157874 -0.0374002 0)
(-0.153183 -0.0495989 0)
(-0.147075 -0.0610084 0)
(-0.139611 -0.0713901 0)
(-0.130881 -0.0805025 0)
(-0.121 -0.0881046 0)
(-0.110116 -0.0939622 0)
(-0.0984113 -0.0978548 0)
(-0.0861036 -0.0995842 0)
(-0.0734475 -0.0989846 0)
(-0.0607335 -0.0959333 0)
(-0.0482853 -0.0903619 0)
(-0.0364566 -0.0822671 0)
(-0.0256243 -0.0717199 0)
(-0.0161717 -0.0588737 0)
(-0.00847168 -0.0439667 0)
(-0.00300495 -0.0273215 0)
(-0.000452213 -0.00936472 0)
(-0.000493549 0.0112749 0)
(-0.00320028 0.0321581 0)
(-0.00891422 0.0509454 0)
(-0.0168729 0.0673341 0)
(-0.02655 0.0811302 0)
(-0.0375569 0.0922219 0)
(-0.0495116 0.100571 0)
(-0.0620519 0.106204 0)
(-0.0748492 0.1092 0)
(-0.0876095 0.109681 0)
(-0.100073 0.107803 0)
(-0.112014 0.10374 0)
(-0.123237 0.0976847 0)
(-0.133576 0.0898388 0)
(-0.14289 0.0804077 0)
(-0.151064 0.0695987 0)
(-0.157999 0.0576194 0)
(-0.163615 0.0446768 0)
(-0.167847 0.0309785 0)
(-0.170642 0.0167332 0)
(-0.17196 0.00215319 0)
(-0.171775 -0.0125443 0)
(-0.170068 -0.0271349 0)
(-0.166839 -0.0413853 0)
(-0.162099 -0.0550523 0)
(-0.15588 -0.067883 0)
(-0.148235 -0.0796151 0)
(-0.139241 -0.0899795 0)
(-0.129005 -0.0987045 0)
(-0.11767 -0.105522 0)
(-0.105414 -0.110173 0)
(-0.0924579 -0.112421 0)
(-0.079065 -0.112061 0)
(-0.0655419 -0.108933 0)
(-0.0522362 -0.102931 0)
(-0.0395332 -0.094025 0)
(-0.0278496 -0.0822634 0)
(-0.0176135 -0.0677878 0)
(-0.00924542 -0.0508353 0)
(-0.00328636 -0.0317396 0)
(-0.000496303 -0.0109515 0)
(-0.000532259 0.0129577 0)
(-0.00344136 0.0367657 0)
(-0.00956852 0.0580238 0)
(-0.0180805 0.0764303 0)
(-0.0283989 0.0918037 0)
(-0.0400958 0.104054 0)
(-0.0527543 0.11317 0)
(-0.065983 0.119214 0)
(-0.0794313 0.122301 0)
(-0.09279 0.12259 0)
(-0.105791 0.120272 0)
(-0.118203 0.115558 0)
(-0.129835 0.108672 0)
(-0.140523 0.0998443 0)
(-0.150135 0.0893053 0)
(-0.158561 0.0772843 0)
(-0.165711 0.0640072 0)
(-0.171513 0.0496967 0)
(-0.175907 0.0345737 0)
(-0.178844 0.0188586 0)
(-0.180287 0.0027745 0)
(-0.180205 -0.0134505 0)
(-0.178579 -0.0295805 0)
(-0.175398 -0.0453689 0)
(-0.170667 -0.060557 0)
(-0.164404 -0.0748724 0)
(-0.15665 -0.0880297 0)
(-0.147468 -0.0997322 0)
(-0.136953 -0.109676 0)
(-0.125238 -0.117554 0)
(-0.112493 -0.123067 0)
(-0.0989389 -0.125934 0)
(-0.0848443 -0.125902 0)
(-0.0705299 -0.122763 0)
(-0.056367 -0.116372 0)
(-0.0427741 -0.106658 0)
(-0.0302103 -0.0936408 0)
(-0.0191533 -0.0774447 0)
(-0.0100771 -0.0583023 0)
(-0.00359115 -0.036557 0)
(-0.000544694 -0.0126866 0)
(-0.000573408 0.0147663 0)
(-0.00369498 0.0417058 0)
(-0.0102522 0.0655937 0)
(-0.0193342 0.0861291 0)
(-0.0303048 0.103146 0)
(-0.0426928 0.116581 0)
(-0.0560434 0.126459 0)
(-0.0699347 0.132881 0)
(-0.0839936 0.136007 0)
(-0.097897 0.136041 0)
(-0.11137 0.133216 0)
(-0.124182 0.127784 0)
(-0.136144 0.120004 0)
(-0.147102 0.110139 0)
(-0.156934 0.0984452 0)
(-0.165541 0.0851748 0)
(-0.172845 0.0705715 0)
(-0.178783 0.0548725 0)
(-0.183304 0.0383098 0)
(-0.186364 0.0211134 0)
(-0.187929 0.00351405 0)
(-0.187967 -0.0142524 0)
(-0.186454 -0.0319416 0)
(-0.183373 -0.0492967 0)
(-0.178717 -0.0660459 0)
(-0.17249 -0.0818999 0)
(-0.164715 -0.0965513 0)
(-0.155441 -0.109676 0)
(-0.144744 -0.120935 0)
(-0.132741 -0.129982 0)
(-0.119591 -0.136472 0)
(-0.10551 -0.140071 0)
(-0.0907662 -0.140472 0)
(-0.0756931 -0.137411 0)
(-0.060684 -0.130689 0)
(-0.0461915 -0.120186 0)
(-0.0327205 -0.105886 0)
(-0.0208034 -0.0878849 0)
(-0.0109751 -0.0664071 0)
(-0.00392297 -0.0418042 0)
(-0.00059812 -0.0145832 0)
(-0.000617525 0.0167079 0)
(-0.00396385 0.0469942 0)
(-0.0109715 0.0736733 0)
(-0.0206431 0.0964451 0)
(-0.0322776 0.115163 0)
(-0.0453552 0.129796 0)
(-0.0593798 0.140413 0)
(-0.0738971 0.147164 0)
(-0.0885121 0.150263 0)
(-0.102889 0.149966 0)
(-0.116749 0.146556 0)
(-0.129866 0.140331 0)
(-0.142058 0.131592 0)
(-0.153185 0.120634 0)
(-0.163138 0.107744 0)
(-0.171836 0.093195 0)
(-0.179213 0.0772488 0)
(-0.185222 0.0601549 0)
(-0.18982 0.0421544 0)
(-0.192975 0.0234834 0)
(-0.194653 0.00437708 0)
(-0.194825 -0.0149249 0)
(-0.193462 -0.0341735 0)
(-0.190538 -0.0531058 0)
(-0.186033 -0.0714403 0)
(-0.179936 -0.0888735 0)
(-0.172249 -0.105078 0)
(-0.162999 -0.119703 0)
(-0.15224 -0.132376 0)
(-0.140068 -0.142707 0)
(-0.126625 -0.150299 0)
(-0.112111 -0.15476 0)
(-0.0967952 -0.155719 0)
(-0.0810156 -0.152847 0)
(-0.0651861 -0.145876 0)
(-0.0497939 -0.134627 0)
(-0.0353927 -0.119031 0)
(-0.0225759 -0.0991509 0)
(-0.0119479 -0.0751936 0)
(-0.00428574 -0.0475161 0)
(-0.000657395 -0.0166562 0)
(-0.000665286 0.0187911 0)
(-0.00425137 0.0526503 0)
(-0.011734 0.0822844 0)
(-0.0220182 0.107395 0)
(-0.0343286 0.127859 0)
(-0.0480907 0.143687 0)
(-0.0627627 0.155001 0)
(-0.0778562 0.162013 0)
(-0.0929544 0.164998 0)
(-0.107712 0.164277 0)
(-0.12185 0.160192 0)
(-0.13515 0.153092 0)
(-0.147445 0.143323 0)
(-0.158612 0.131219 0)
(-0.168563 0.117095 0)
(-0.177236 0.101249 0)
(-0.184586 0.0839569 0)
(-0.19058 0.0654792 0)
(-0.195194 0.0460627 0)
(-0.198402 0.0259459 0)
(-0.200179 0.00536425 0)
(-0.200495 -0.0154432 0)
(-0.199319 -0.0362279 0)
(-0.196615 -0.0567251 0)
(-0.192349 -0.0766482 0)
(-0.186491 -0.0956836 0)
(-0.17902 -0.113488 0)
(-0.169935 -0.129684 0)
(-0.159264 -0.143865 0)
(-0.147072 -0.155598 0)
(-0.133477 -0.164429 0)
(-0.11866 -0.169901 0)
(-0.102876 -0.171569 0)
(-0.0864677 -0.169022 0)
(-0.0698637 -0.161913 0)
(-0.0535854 -0.149986 0)
(-0.0382382 -0.133106 0)
(-0.0244834 -0.111287 0)
(-0.0130048 -0.0847098 0)
(-0.00468384 -0.0537317 0)
(-0.000723458 -0.0189228 0)
(-0.000717583 0.0210266 0)
(-0.00456202 0.0586975 0)
(-0.0125497 0.091453 0)
(-0.0234734 0.118997 0)
(-0.0364722 0.141236 0)
(-0.0509085 0.158234 0)
(-0.06619 0.170179 0)
(-0.0817922 0.177356 0)
(-0.0972782 0.180119 0)
(-0.112296 0.178861 0)
(-0.126573 0.173993 0)
(-0.139903 0.165925 0)
(-0.152142 0.155053 0)
(-0.16319 0.141752 0)
(-0.172985 0.126367 0)
(-0.181491 0.109216 0)
(-0.188688 0.0905926 0)
(-0.194564 0.0707627 0)
(-0.199112 0.0499756 0)
(-0.20232 0.0284678 0)
(-0.204171 0.0064701 0)
(-0.204638 -0.0157845 0)
(-0.203685 -0.0380532 0)
(-0.20127 -0.0600752 0)
(-0.197341 -0.0815644 0)
(-0.191848 -0.102202 0)
(-0.184742 -0.121633 0)
(-0.175991 -0.139459 0)
(-0.165588 -0.155239 0)
(-0.153561 -0.168493 0)
(-0.139995 -0.178711 0)
(-0.125039 -0.185361 0)
(-0.108931 -0.187912 0)
(-0.0920034 -0.185861 0)
(-0.0746973 -0.178761 0)
(-0.0575651 -0.166259 0)
(-0.0412668 -0.148136 0)
(-0.0265387 -0.124338 0)
(-0.0141562 -0.0950077 0)
(-0.00512238 -0.060495 0)
(-0.000797437 -0.0214028 0)
(-0.000775639 0.023428 0)
(-0.00490178 0.0651648 0)
(-0.0134317 0.10121 0)
(-0.0250272 0.131271 0)
(-0.0387267 0.155295 0)
(-0.0538198 0.173409 0)
(-0.0696579 0.185885 0)
(-0.0856793 0.193101 0)
(-0.101429 0.195502 0)
(-0.116554 0.193571 0)
(-0.130794 0.187797 0)
(-0.143965 0.178659 0)
(-0.155951 0.166608 0)
(-0.166685 0.152061 0)
(-0.176138 0.135395 0)
(-0.184305 0.11695 0)
(-0.191196 0.0970289 0)
(-0.196826 0.0759026 0)
(-0.201208 0.0538178 0)
(-0.204348 0.0310039 0)
(-0.206237 0.00768151 0)
(-0.206854 -0.0159284 0)
(-0.206162 -0.0395953 0)
(-0.204107 -0.0630689 0)
(-0.200624 -0.0860703 0)
(-0.195637 -0.108283 0)
(-0.189069 -0.129343 0)
(-0.18085 -0.148837 0)
(-0.17093 -0.166295 0)
(-0.159294 -0.181191 0)
(-0.14598 -0.192951 0)
(-0.131098 -0.200965 0)
(-0.114852 -0.204606 0)
(-0.0975562 -0.203257 0)
(-0.0796546 -0.196354 0)
(-0.0617265 -0.183424 0)
(-0.0444875 -0.164136 0)
(-0.0287565 -0.138348 0)
(-0.0154144 -0.106143 0)
(-0.00560761 -0.0678552 0)
(-0.000880747 -0.0241187 0)
(-0.000841148 0.0260121 0)
(-0.00527884 0.0720886 0)
(-0.0143976 0.111595 0)
(-0.0267037 0.144243 0)
(-0.0411158 0.170031 0)
(-0.0568385 0.189171 0)
(-0.0731607 0.202039 0)
(-0.0894831 0.209126 0)
(-0.105337 0.210993 0)
(-0.120376 0.208224 0)
(-0.134359 0.201402 0)
(-0.147138 0.19108 0)
(-0.158632 0.177771 0)
(-0.168817 0.161937 0)
(-0.177704 0.143985 0)
(-0.185327 0.124273 0)
(-0.191732 0.103113 0)
(-0.196963 0.0807738 0)
(-0.201059 0.0574959 0)
(-0.204044 0.0334953 0)
(-0.205924 0.00897612 0)
(-0.206684 -0.0158593 0)
(-0.206285 -0.0407996 0)
(-0.204667 -0.0656126 0)
(-0.201746 -0.0900343 0)
(-0.197422 -0.113757 0)
(-0.191586 -0.136419 0)
(-0.184126 -0.157596 0)
(-0.174943 -0.176793 0)
(-0.163968 -0.193442 0)
(-0.151182 -0.206907 0)
(-0.136639 -0.21649 0)
(-0.120495 -0.221455 0)
(-0.103034 -0.22106 0)
(-0.0846881 -0.214594 0)
(-0.0660559 -0.201435 0)
(-0.0479079 -0.18111 0)
(-0.0311532 -0.153357 0)
(-0.0167945 -0.118176 0)
(-0.00614738 -0.0758682 0)
(-0.000975211 -0.0270968 0)
(-0.00091649 0.0288009 0)
(-0.00570443 0.0795155 0)
(-0.0154713 0.122655 0)
(-0.0285351 0.157938 0)
(-0.0436701 0.185432 0)
(-0.0599811 0.20546 0)
(-0.0766884 0.21853 0)
(-0.0931562 0.225276 0)
(-0.108909 0.226393 0)
(-0.123617 0.222591 0)
(-0.137075 0.214557 0)
(-0.149176 0.202929 0)
(-0.159893 0.188285 0)
(-0.16925 0.17113 0)
(-0.177308 0.151903 0)
(-0.184149 0.130976 0)
(-0.189856 0.108663 0)
(-0.19451 0.0852283 0)
(-0.198179 0.0608976 0)
(-0.200908 0.0358681 0)
(-0.202718 0.0103209 0)
(-0.203604 -0.0155675 0)
(-0.203527 -0.0416126 0)
(-0.202419 -0.0676083 0)
(-0.200183 -0.0933142 0)
(-0.196693 -0.118441 0)
(-0.191805 -0.142638 0)
(-0.185361 -0.165478 0)
(-0.177208 -0.186451 0)
(-0.167212 -0.204951 0)
(-0.155283 -0.22028 0)
(-0.141407 -0.231651 0)
(-0.125673 -0.238211 0)
(-0.108312 -0.239066 0)
(-0.0897293 -0.233336 0)
(-0.0705298 -0.220214 0)
(-0.0515344 -0.199044 0)
(-0.0337487 -0.169403 0)
(-0.0183156 -0.131172 0)
(-0.00675194 -0.084598 0)
(-0.00108325 -0.0303681 0)
(-0.00100503 0.0318234 0)
(-0.00619411 0.0875054 0)
(-0.0166851 0.134449 0)
(-0.0305636 0.172387 0)
(-0.0464277 0.20148 0)
(-0.0632653 0.222195 0)
(-0.0802226 0.235214 0)
(-0.096632 0.241346 0)
(-0.112022 0.241452 0)
(-0.126096 0.236387 0)
(-0.138697 0.226958 0)
(-0.149779 0.213895 0)
(-0.159378 0.197841 0)
(-0.167582 0.179349 0)
(-0.174509 0.158881 0)
(-0.180293 0.136818 0)
(-0.185063 0.113472 0)
(-0.188939 0.089095 0)
(-0.192018 0.0638915 0)
(-0.194372 0.0380334 0)
(-0.196039 0.0116713 0)
(-0.197023 -0.0150511 0)
(-0.197289 -0.041984 0)
(-0.196765 -0.068956 0)
(-0.195339 -0.0957594 0)
(-0.192862 -0.122134 0)
(-0.189154 -0.14775 0)
(-0.184011 -0.172191 0)
(-0.177218 -0.19494 0)
(-0.168569 -0.215365 0)
(-0.157891 -0.232709 0)
(-0.145081 -0.246099 0)
(-0.13014 -0.25455 0)
(-0.113223 -0.257005 0)
(-0.0946823 -0.25238 0)
(-0.0751116 -0.23964 0)
(-0.0553712 -0.217897 0)
(-0.0365671 -0.186512 0)
(-0.0200024 -0.145201 0)
(-0.00743505 -0.0941191 0)
(-0.00120819 -0.0339701 0)
(-0.00111159 0.0351178 0)
(-0.00676951 0.0961366 0)
(-0.0180826 0.147053 0)
(-0.0328444 0.187622 0)
(-0.0494354 0.218138 0)
(-0.0667073 0.239262 0)
(-0.0837297 0.251896 0)
(-0.0998124 0.257073 0)
(-0.114507 0.255853 0)
(-0.127568 0.249261 0)
(-0.138911 0.238236 0)
(-0.148568 0.223607 0)
(-0.156655 0.206083 0)
(-0.163332 0.186257 0)
(-0.168786 0.164611 0)
(-0.173208 0.141527 0)
(-0.176776 0.117307 0)
(-0.179651 0.0921816 0)
(-0.181962 0.0663289 0)
(-0.183808 0.0398873 0)
(-0.185244 0.0129706 0)
(-0.186288 -0.0143177 0)
(-0.18691 -0.0418698 0)
(-0.187036 -0.0695576 0)
(-0.186543 -0.0972159 0)
(-0.185262 -0.124624 0)
(-0.182979 -0.151487 0)
(-0.179442 -0.177412 0)
(-0.174373 -0.20189 0)
(-0.167488 -0.224275 0)
(-0.158518 -0.243765 0)
(-0.14725 -0.259401 0)
(-0.133575 -0.270068 0)
(-0.117539 -0.274524 0)
(-0.0994121 -0.27145 0)
(-0.0797447 -0.259537 0)
(-0.0594186 -0.237596 0)
(-0.0396383 -0.204703 0)
(-0.0218878 -0.160339 0)
(-0.00821555 -0.10452 0)
(-0.00135471 -0.0379486 0)
(-0.00124319 0.0387362 0)
(-0.00746097 0.105512 0)
(-0.0197228 0.160559 0)
(-0.0354479 0.203677 0)
(-0.0527465 0.235347 0)
(-0.0703143 0.256497 0)
(-0.087147 0.268318 0)
(-0.10255 0.272118 0)
(-0.116125 0.269202 0)
(-0.127707 0.260785 0)
(-0.13731 0.247953 0)
(-0.145068 0.231633 0)
(-0.151189 0.2126 0)
(-0.155922 0.191476 0)
(-0.159527 0.168752 0)
(-0.162255 0.144805 0)
(-0.164338 0.119913 0)
(-0.165975 0.0942793 0)
(-0.167329 0.0680467 0)
(-0.168522 0.0413137 0)
(-0.169631 0.0141507 0)
(-0.170686 -0.0133853 0)
(-0.171666 -0.0412353 0)
(-0.172498 -0.069322 0)
(-0.173052 -0.0975322 0)
(-0.173143 -0.125697 0)
(-0.17253 -0.153568 0)
(-0.170918 -0.180793 0)
(-0.167965 -0.20689 0)
(-0.163304 -0.231216 0)
(-0.156561 -0.252943 0)
(-0.147396 -0.271038 0)
(-0.13556 -0.284258 0)
(-0.120957 -0.291166 0)
(-0.103729 -0.290176 0)
(-0.0843425 -0.279646 0)
(-0.0636689 -0.258012 0)
(-0.0429988 -0.223969 0)
(-0.0240161 -0.176667 0)
(-0.00911992 -0.115906 0)
(-0.00152957 -0.0423614 0)
(-0.00141026 0.0427497 0)
(-0.00831155 0.115768 0)
(-0.0216853 0.175084 0)
(-0.0384624 0.220578 0)
(-0.0564172 0.253009 0)
(-0.0740717 0.273669 0)
(-0.0903613 0.284129 0)
(-0.10462 0.286044 0)
(-0.116538 0.281003 0)
(-0.126071 0.270439 0)
(-0.133364 0.255589 0)
(-0.138675 0.237479 0)
(-0.142325 0.216932 0)
(-0.144658 0.19459 0)
(-0.146013 0.17094 0)
(-0.146704 0.146335 0)
(-0.147009 0.121024 0)
(-0.147168 0.0951704 0)
(-0.147372 0.0688744 0)
(-0.147766 0.0421885 0)
(-0.148446 0.0151341 0)
(-0.149454 -0.012283 0)
(-0.15078 -0.040058 0)
(-0.152357 -0.0681708 0)
(-0.154055 -0.0965683 0)
(-0.155681 -0.125143 0)
(-0.156973 -0.153709 0)
(-0.1576 -0.181973 0)
(-0.157166 -0.209499 0)
(-0.15522 -0.235673 0)
(-0.151279 -0.259666 0)
(-0.144862 -0.280395 0)
(-0.135549 -0.296502 0)
(-0.123061 -0.306351 0)
(-0.10736 -0.308065 0)
(-0.0887703 -0.299609 0)
(-0.0680983 -0.278949 0)
(-0.0466923 -0.244274 0)
(-0.0264475 -0.194271 0)
(-0.0101861 -0.128411 0)
(-0.00174287 -0.0472834 0)
(-0.00162874 0.0472572 0)
(-0.00938318 0.127086 0)
(-0.0240771 0.190767 0)
(-0.041995 0.238334 0)
(-0.060495 0.270961 0)
(-0.0779177 0.290446 0)