/*--------------------------------*- C++ -*----------------------------------*\
| =========                 |                                                 |
| \\      /  F ield         | OpenFOAM: The Open Source CFD Toolbox           |
|  \\    /   O peration     | Version:  2306                                  |
|   \\  /    A nd           | Website:  www.openfoam.com                      |
|    \\/     M anipulation  |                                                 |
\*---------------------------------------------------------------------------*/
FoamFile
{
    version     2.0;
    format      ascii;
    arch        "LSB;label=32;scalar=64";
    class       volScalarField;
    location    "0.6";
    object      Ux;
}
// * * * * * * * * * * * * * * * * * * * * * * * * * * * * * * * * * * * * * //

dimensions      [0 1 -1 0 0 0 0];

internalField   nonuniform List<scalar> 
1681
(
5.68159e-05
0.000149012
0.000156997
2.56225e-05
-0.000254913
-0.000670759
-0.00120021
-0.00181898
-0.00250233
-0.00322623
-0.00396792
-0.00470626
-0.00542185
-0.00609714
-0.00671645
-0.00726597
-0.00773382
-0.00811004
-0.00838661
-0.00855749
-0.00861873
-0.00856845
-0.008407
-0.00813701
-0.00776344
-0.00729368
-0.00673758
-0.00610746
-0.00541807
-0.0046865
-0.00393205
-0.00317601
-0.00244136
-0.00175237
-0.00113403
-0.000611241
-0.00020746
5.7518e-05
0.000172901
0.000152709
5.63799e-05
5.68223e-05
7.84653e-05
-0.000140213
-0.000676805
-0.00154868
-0.00273416
-0.00419059
-0.00586473
-0.00769883
-0.00963425
-0.0116138
-0.013583
-0.0154912
-0.0172919
-0.0189433
-0.0204085
-0.0216554
-0.0226573
-0.0233927
-0.0238456
-0.0240054
-0.0238677
-0.0234336
-0.0227106
-0.0217125
-0.0204594
-0.018978
-0.0173011
-0.015468
-0.0135236
-0.0115183
-0.00950697
-0.00754796
-0.00570179
-0.00402905
-0.00258776
-0.00142927
-0.000592201
-9.21548e-05
9.62758e-05
5.95182e-05
1.38619e-05
-0.000145204
-0.000714976
-0.00174477
-0.00324049
-0.00517271
-0.00748465
-0.0101034
-0.012948
-0.0159344
-0.0189795
-0.0220028
-0.0249287
-0.0276876
-0.0302161
-0.0324581
-0.0343651
-0.0358964
-0.0370192
-0.0377092
-0.0379508
-0.0377371
-0.0370705
-0.0359627
-0.0344349
-0.0325179
-0.0302523
-0.0276882
-0.0248844
-0.0219086
-0.0188358
-0.0157472
-0.0127284
-0.00986723
-0.00725027
-0.00495895
-0.00306384
-0.0016166
-0.000638992
-0.000114495
1.95365e-05
-3.87879e-05
-0.000416355
-0.00139412
-0.00296414
-0.00510528
-0.0077749
-0.0109019
-0.0143967
-0.0181601
-0.0220887
-0.0260788
-0.0300298
-0.0338463
-0.0374399
-0.0407299
-0.0436449
-0.0461224
-0.0481105
-0.0495672
-0.0504615
-0.0507734
-0.0504943
-0.0496276
-0.0481884
-0.0462041
-0.0437144
-0.0407712
-0.0374382
-0.0337906
-0.0299139
-0.0259028
-0.0218594
-0.0178907
-0.0141057
-0.0106114
-0.0075078
-0.00488207
-0.0027997
-0.00129464
-0.000374935
-3.0734e-05
-9.01696e-05
-0.000693327
-0.00209861
-0.00422792
-0.00702316
-0.0104227
-0.0143384
-0.0186646
-0.0232855
-0.0280814
-0.0329321
-0.0377205
-0.0423353
-0.0466731
-0.0506392
-0.0541496
-0.057131
-0.059522
-0.0612732
-0.0623482
-0.0627234
-0.0623889
-0.0613485
-0.0596203
-0.0572365
-0.0542438
-0.0507032
-0.0466895
-0.0422906
-0.0376067
-0.0327482
-0.027834
-0.0229887
-0.0183388
-0.0140087
-0.0101155
-0.00676305
-0.00403361
-0.00197927
-0.00064275
-8.00968e-05
-0.000137226
-0.000959929
-0.00279166
-0.00548149
-0.0089294
-0.0130502
-0.0177361
-0.0228634
-0.0283008
-0.0339132
-0.0395661
-0.0451286
-0.0504762
-0.055493
-0.0600735
-0.0641231
-0.0675599
-0.070315
-0.0723329
-0.0735728
-0.0740081
-0.0736277
-0.0724356
-0.070452
-0.0677129
-0.0642702
-0.0601922
-0.0555622
-0.0504787
-0.0450533
-0.0394096
-0.0336807
-0.0280062
-0.0225282
-0.0173876
-0.0127185
-0.00864329
-0.0052641
-0.00265597
-0.000901439
-0.000125323
-0.000179732
-0.0012115
-0.00345906
-0.00670114
-0.0107942
-0.0156266
-0.0210681
-0.026976
-0.0332022
-0.0395969
-0.0460123
-0.0523051
-0.0583397
-0.06399
-0.0691409
-0.07369
-0.077548
-0.0806401
-0.0829061
-0.0843012
-0.0847967
-0.0843798
-0.0830549
-0.0808432
-0.0777833
-0.0739313
-0.0693606
-0.0641615
-0.0584404
-0.052319
-0.0459317
-0.039424
-0.0329493
-0.0266649
-0.0207279
-0.0152907
-0.0104961
-0.00646922
-0.00331128
-0.00114645
-0.000166137
-0.000218463
-0.00144875
-0.00409886
-0.0078814
-0.0126096
-0.0181437
-0.0243294
-0.0310032
-0.0379993
-0.0451534
-0.0523043
-0.0592975
-0.0659875
-0.0722392
-0.0779299
-0.0829506
-0.0872063
-0.0906173
-0.0931195
-0.0946653
-0.0952235
-0.0947802
-0.0933393
-0.0909225
-0.08757
-0.0833405
-0.0783112
-0.0725777
-0.0662529
-0.0594665
-0.0523627
-0.0450983
-0.03784
-0.03076
-0.0240328
-0.0178304
-0.0123181
-0.00764646
-0.00394475
-0.00137898
-0.000203382
-0.000254432
-0.00167452
-0.00471499
-0.00902646
-0.01438
-0.0206071
-0.0275279
-0.0349569
-0.0427101
-0.0506076
-0.0584755
-0.0661483
-0.0734713
-0.0803019
-0.0865108
-0.0919836
-0.0966208
-0.100339
-0.103071
-0.104766
-0.105392
-0.104933
-0.103392
-0.10079
-0.0971692
-0.0925887
-0.0871284
-0.0808875
-0.0739841
-0.0665545
-0.0587519
-0.0507438
-0.0427098
-0.0348379
-0.0273206
-0.0203513
-0.0141198
-0.00880391
-0.00456242
-0.00160267
-0.000238195
-0.000288592
-0.00189226
-0.00531381
-0.0101451
-0.0161162
-0.0230293
-0.0306784
-0.038855
-0.047356
-0.0559855
-0.0645567
-0.0728937
-0.0808331
-0.0882255
-0.0949364
-0.100847
-0.105854
-0.109871
-0.112829
-0.114675
-0.115375
-0.114912
-0.113287
-0.110521
-0.106654
-0.101746
-0.0958788
-0.0891533
-0.0816917
-0.0736359
-0.0651468
-0.0564023
-0.0475952
-0.0389297
-0.0306177
-0.0228754
-0.0159189
-0.00995502
-0.00517325
-0.00182195
-0.000271705
-0.000321766
-0.00210539
-0.00590238
-0.0112478
-0.0178314
-0.0254261
-0.0337988
-0.0427173
-0.0519587
-0.0613109
-0.070574
-0.0795619
-0.0881033
-0.096043
-0.103242
-0.109578
-0.114945
-0.119255
-0.122438
-0.124438
-0.12522
-0.124765
-0.123073
-0.120162
-0.116072
-0.110861
-0.104611
-0.097423
-0.0894224
-0.0807554
-0.0715901
-0.0621142
-0.0525337
-0.0430695
-0.0339543
-0.0254285
-0.0177364
-0.0111155
-0.00578724
-0.00204138
-0.000304942
-0.000354642
-0.00231703
-0.00648758
-0.0123453
-0.0195397
-0.0278138
-0.0369071
-0.0465628
-0.0565378
-0.0666034
-0.0765468
-0.0861719
-0.0953006
-0.103772
-0.111444
-0.118193
-0.123911
-0.128508
-0.131914
-0.134072
-0.134945
-0.134512
-0.132771
-0.129737
-0.125449
-0.119961
-0.113354
-0.105728
-0.0972094
-0.087948
-0.0781177
-0.0679155
-0.0575605
-0.047291
-0.0373613
-0.0280377
-0.0195945
-0.0123018
-0.00641452
-0.00226538
-0.000338822
-0.000387797
-0.00252997
-0.0070758
-0.0134477
-0.0212542
-0.0302079
-0.0400198
-0.0504082
-0.0611089
-0.0718768
-0.0824864
-0.0927323
-0.10243
-0.111415
-0.119543
-0.126688
-0.132744
-0.137621
-0.141247
-0.143566
-0.144538
-0.144142
-0.142372
-0.139242
-0.134783
-0.129049
-0.122115
-0.114081
-0.105071
-0.0952364
-0.084756
-0.0738355
-0.0627067
-0.0516253
-0.0408683
-0.0307295
-0.021515
-0.0135299
-0.00706489
-0.00249809
-0.000374168
-0.000421719
-0.0027467
-0.00767283
-0.0145642
-0.0229871
-0.0326222
-0.0431512
-0.0542664
-0.0656826
-0.077138
-0.0883948
-0.0992395
-0.109482
-0.118956
-0.127516
-0.135037
-0.141414
-0.146558
-0.150398
-0.152878
-0.153959
-0.153617
-0.151841
-0.148643
-0.144047
-0.138104
-0.130881
-0.122475
-0.113008
-0.102629
-0.0915202
-0.079895
-0.0679969
-0.0560992
-0.0445021
-0.0335284
-0.0235186
-0.014815
-0.00774766
-0.00274338
-0.00041173
-0.000456836
-0.00296943
-0.00828398
-0.0157033
-0.0247491
-0.0350686
-0.0463124
-0.0581462
-0.0702633
-0.0823856
-0.0942637
-0.105677
-0.116432
-0.126361
-0.13532
-0.143188
-0.149861
-0.155254
-0.159298
-0.161939
-0.163136
-0.162863
-0.161108
-0.157874
-0.153183
-0.147075
-0.139611
-0.130881
-0.121
-0.110116
-0.0984113
-0.0861036
-0.0734475
-0.0607335
-0.0482853
-0.0364566
-0.0256243
-0.0161717
-0.00847168
-0.00300495
-0.000452213
-0.000493549
-0.00320028
-0.00891422
-0.0168729
-0.02655
-0.0375569
-0.0495116
-0.0620519
-0.0748492
-0.0876095
-0.100073
-0.112014
-0.123237
-0.133576
-0.14289
-0.151064
-0.157999
-0.163615
-0.167847
-0.170642
-0.17196
-0.171775
-0.170068
-0.166839
-0.162099
-0.15588
-0.148235
-0.139241
-0.129005
-0.11767
-0.105414
-0.0924579
-0.079065
-0.0655419
-0.0522362
-0.0395332
-0.0278496
-0.0176135
-0.00924542
-0.00328636
-0.000496303
-0.000532259
-0.00344136
-0.00956852
-0.0180805
-0.0283989
-0.0400958
-0.0527543
-0.065983
-0.0794313
-0.09279
-0.105791
-0.118203
-0.129835
-0.140523
-0.150135
-0.158561
-0.165711
-0.171513
-0.175907
-0.178844
-0.180287
-0.180205
-0.178579
-0.175398
-0.170667
-0.164404
-0.15665
-0.147468
-0.136953
-0.125238
-0.112493
-0.0989389
-0.0848443
-0.0705299
-0.056367
-0.0427741
-0.0302103
-0.0191533
-0.0100771
-0.00359115
-0.000544694
-0.000573408
-0.00369498
-0.0102522
-0.0193342
-0.0303048
-0.0426928
-0.0560434
-0.0699347
-0.0839936
-0.097897
-0.11137
-0.124182
-0.136144
-0.147102
-0.156934
-0.165541
-0.172845
-0.178783
-0.183304
-0.186364
-0.187929
-0.187967
-0.186454
-0.183373
-0.178717
-0.17249
-0.164715
-0.155441
-0.144744
-0.132741
-0.119591
-0.10551
-0.0907662
-0.0756931
-0.060684
-0.0461915
-0.0327205
-0.0208034
-0.0109751
-0.00392297
-0.00059812
-0.000617525
-0.00396385
-0.0109715
-0.0206431
-0.0322776
-0.0453552
-0.0593798
-0.0738971
-0.0885121
-0.102889
-0.116749
-0.129866
-0.142058
-0.153185
-0.163138
-0.171836
-0.179213
-0.185222
-0.18982
-0.192975
-0.194653
-0.194825
-0.193462
-0.190538
-0.186033
-0.179936
-0.172249
-0.162999
-0.15224
-0.140068
-0.126625
-0.112111
-0.0967952
-0.0810156
-0.0651861
-0.0497939
-0.0353927
-0.0225759
-0.0119479
-0.00428574
-0.000657395
-0.000665286
-0.00425137
-0.011734
-0.0220182
-0.0343286
-0.0480907
-0.0627627
-0.0778562
-0.0929544
-0.107712
-0.12185
-0.13515
-0.147445
-0.158612
-0.168563
-0.177236
-0.184586
-0.19058
-0.195194
-0.198402
-0.200179
-0.200495
-0.199319
-0.196615
-0.192349
-0.186491
-0.17902
-0.169935
-0.159264
-0.147072
-0.133477
-0.11866
-0.102876
-0.0864677
-0.0698637
-0.0535854
-0.0382382
-0.0244834
-0.0130048
-0.00468384
-0.000723458
-0.000717583
-0.00456202
-0.0125497
-0.0234734
-0.0364722
-0.0509085
-0.06619
-0.0817922
-0.0972782
-0.112296
-0.126573
-0.139903
-0.152142
-0.16319
-0.172985
-0.181491
-0.188688
-0.194564
-0.199112
-0.20232
-0.204171
-0.204638
-0.203685
-0.20127
-0.197341
-0.191848
-0.184742
-0.175991
-0.165588
-0.153561
-0.139995
-0.125039
-0.108931
-0.0920034
-0.0746973
-0.0575651
-0.0412668
-0.0265387
-0.0141562
-0.00512238
-0.000797437
-0.000775639
-0.00490178
-0.0134317
-0.0250272
-0.0387267
-0.0538198
-0.0696579
-0.0856793
-0.101429
-0.116554
-0.130794
-0.143965
-0.155951
-0.166685
-0.176138
-0.184305
-0.191196
-0.196826
-0.201208
-0.204348
-0.206237
-0.206854
-0.206162
-0.204107
-0.200624
-0.195637
-0.189069
-0.18085
-0.17093
-0.159294
-0.14598
-0.131098
-0.114852
-0.0975562
-0.0796546
-0.0617265
-0.0444875
-0.0287565
-0.0154144
-0.00560761
-0.000880747
-0.000841148
-0.00527884
-0.0143976
-0.0267037
-0.0411158
-0.0568385
-0.0731607
-0.0894831
-0.105337
-0.120376
-0.134359
-0.147138
-0.158632
-0.168817
-0.177704
-0.185327
-0.191732
-0.196963
-0.201059
-0.204044
-0.205924
-0.206684
-0.206285
-0.204667
-0.201746
-0.197422
-0.191586
-0.184126
-0.174943
-0.163968
-0.151182
-0.136639
-0.120495
-0.103034
-0.0846881
-0.0660559
-0.0479079
-0.0311532
-0.0167945
-0.00614738
-0.000975211
-0.00091649
-0.00570443
-0.0154713
-0.0285351
-0.0436701
-0.0599811
-0.0766884
-0.0931562
-0.108909
-0.123617
-0.137075
-0.149176
-0.159893
-0.16925
-0.177308
-0.184149
-0.189856
-0.19451
-0.198179
-0.200908
-0.202718
-0.203604
-0.203527
-0.202419
-0.200183
-0.196693
-0.191805
-0.185361
-0.177208
-0.167212
-0.155283
-0.141407
-0.125673
-0.108312
-0.0897293
-0.0705298
-0.0515344
-0.0337487
-0.0183156
-0.00675194
-0.00108325
-0.00100503
-0.00619411
-0.0166851
-0.0305636
-0.0464277
-0.0632653
-0.0802226
-0.096632
-0.112022
-0.126096
-0.138697
-0.149779
-0.159378
-0.167582
-0.174509
-0.180293
-0.185063
-0.188939
-0.192018
-0.194372
-0.196039
-0.197023
-0.197289
-0.196765
-0.195339
-0.192862
-0.189154
-0.184011
-0.177218
-0.168569
-0.157891
-0.145081
-0.13014
-0.113223
-0.0946823
-0.0751116
-0.0553712
-0.0365671
-0.0200024
-0.00743505
-0.00120819
-0.00111159
-0.00676951
-0.0180826
-0.0328444
-0.0494354
-0.0667073
-0.0837297
-0.0998124
-0.114507
-0.127568
-0.138911
-0.148568
-0.156655
-0.163332
-0.168786
-0.173208
-0.176776
-0.179651
-0.181962
-0.183808
-0.185244
-0.186288
-0.18691
-0.187036
-0.186543
-0.185262
-0.182979
-0.179442
-0.174373
-0.167488
-0.158518
-0.14725
-0.133575
-0.117539
-0.0994121
-0.0797447
-0.0594186
-0.0396383
-0.0218878
-0.00821555
-0.00135471
-0.00124319
-0.00746097
-0.0197228
-0.0354479
-0.0527465
-0.0703143
-0.087147
-0.10255
-0.116125
-0.127707
-0.13731
-0.145068
-0.151189
-0.155922
-0.159527
-0.162255
-0.164338
-0.165975
-0.167329
-0.168522
-0.169631
-0.170686
-0.171666
-0.172498
-0.173052
-0.173143
-0.17253
-0.170918
-0.167965
-0.163304
-0.156561
-0.147396
-0.13556
-0.120957
-0.103729
-0.0843425
-0.0636689
-0.0429988
-0.0240161
-0.00911992
-0.00152957
-0.00141026
-0.00831155
-0.0216853
-0.0384624
-0.0564172
-0.0740717
-0.0903613
-0.10462
-0.116538
-0.126071
-0.133364
-0.138675
-0.142325
-0.144658
-0.146013
-0.146704
-0.147009
-0.147168
-0.147372
-0.147766
-0.148446
-0.149454
-0.15078
-0.152357
-0.154055
-0.155681
-0.156973
-0.1576
-0.157166
-0.15522
-0.151279
-0.144862
-0.135549
-0.123061
-0.10736
-0.0887703
-0.0680983
-0.0466923
-0.0264475
-0.0101861
-0.00174287
-0.00162874
-0.00938318
-0.0240771
-0.041995
-0.060495
-0.0779177
-0.093172
-0.105674
-0.115258
-0.122053
-0.12637
-0.12862
-0.12925
-0.128706
-0.127404
-0.125715
-0.123963
-0.122415
-0.121287
-0.120742
-0.120889
-0.121787
-0.123434
-0.125776
-0.128689
-0.131981
-0.135383
-0.138543
-0.14102
-0.142292
-0.141767
-0.138815
-0.132824
-0.123285
-0.109915
-0.0928162
-0.0726512
-0.050767
-0.0292637
-0.0114696
-0.00201018
-0.00192377
-0.0107666
-0.0270417
-0.0461675
-0.0649948
-0.0816995
-0.095231
-0.105171
-0.111579
-0.114815
-0.115402
-0.113924
-0.110964
-0.107068
-0.10272
-0.0983409
-0.0942821
-0.0908319
-0.0882185
-0.0866143
-0.0861388
-0.0868594
-0.0887905
-0.0918892
-0.0960498
-0.101094
-0.106761
-0.112696
-0.118435
-0.123405
-0.12692
-0.128206
-0.12644
-0.120845
-0.11082
-0.0961415
-0.0772102
-0.0552675
-0.0325749
-0.0130532
-0.00235645
-0.00233654
-0.0125971
-0.030768
-0.0511006
-0.0698507
-0.0850953
-0.0959469
-0.102279
-0.104478
-0.103207
-0.0992372
-0.0933425
-0.0862389
-0.0785575
-0.0708355
-0.0635191
-0.0569717
-0.0514832
-0.0472804
-0.0445344
-0.0433664
-0.0438505
-0.0460137
-0.0498324
-0.0552252
-0.0620422
-0.0700507
-0.0789169
-0.0881868
-0.0972662
-0.105408
-0.111712
-0.115154
-0.114657
-0.109229
-0.0981991
-0.0815397
-0.0602122
-0.0365264
-0.015063
-0.00282312
-0.0029371
-0.0150799
-0.0354966
-0.0568719
-0.0748199
-0.0874798
-0.0943324
-0.0957202
-0.0924812
-0.0856509
-0.0762749
-0.0653107
-0.0535854
-0.0417867
-0.0304717
-0.0200832
-0.0109687
-0.00339803
0.00242203
0.00633549
0.00822918
0.00802788
0.00569335
0.00122716
-0.00532222
-0.0138476
-0.0241659
-0.0359954
-0.0489279
-0.0623958
-0.07564
-0.0876849
-0.0973344
-0.103213
-0.103886
-0.098099
-0.0851804
-0.0655395
-0.0412974
-0.0176929
-0.00348152
-0.0038482
-0.0185287
-0.041506
-0.0634132
-0.0792993
-0.0876947
-0.0887687
-0.0835628
-0.0734952
-0.0600204
-0.0444514
-0.0278923
-0.0112316
0.00483779
0.0197863
0.0332149
0.0448251
0.0543943
0.0617558
0.0667842
0.0693854
0.0694899
0.0670512
0.0620473
0.054487
0.0444219
0.0319641
0.0173117
0.000783125
-0.0171384
-0.0357532
-0.0540894
-0.0708565
-0.0844324
-0.0929265
-0.0943916
-0.0872583
-0.0709891
-0.0470768
-0.0212411
-0.00445755
-0.00528846
-0.0234143
-0.0490402
-0.0702756
-0.0819788
-0.0836673
-0.0766536
-0.0629323
-0.0445946
-0.0235015
-0.00116642
0.0212456
0.0428706
0.0630854
0.0814497
0.0976568
0.111494
0.122814
0.131511
0.137504
0.14073
0.141131
0.138657
0.133263
0.124915
0.113599
0.0993399
0.0822222
0.0624308
0.0402997
0.0163811
-0.00847013
-0.0329992
-0.0554637
-0.0735985
-0.0847261
-0.08614
-0.0758443
-0.0539666
-0.026152
-0.00597534
-0.00764165
-0.0303976
-0.0580655
-0.0761145
-0.0802028
-0.0717975
-0.0539017
-0.0296576
-0.00180612
0.0275127
0.0567425
0.0848059
0.110987
0.134827
0.156045
0.174478
0.190034
0.202663
0.212337
0.219033
0.222724
0.223374
0.220932
0.215333
0.206501
0.194355
0.178821
0.159852
0.137462
0.111777
0.0831048
0.0520473
0.0196377
-0.0124846
-0.041901
-0.0653348
-0.0788329
-0.0783983
-0.0616971
-0.0330276
-0.00842385
-0.0115239
-0.0401978
-0.0675664
-0.0775959
-0.0688406
-0.0460282
-0.0143009
0.0221015
0.0600512
0.0974352
0.132925
0.165739
0.195458
0.221892
0.244983
0.264749
0.281244
0.29453
0.304664
0.311685
0.315607
0.316416
0.314068
0.308483
0.29955
0.287126
0.271041
0.251115
0.227173
0.19909
0.166853
0.130672
0.0911371
0.0494684
0.00783239
-0.0303091
-0.0599843
-0.0748792
-0.0688575
-0.0424329
-0.012406
-0.0176429
-0.0527526
-0.0736539
-0.0671741
-0.0384209
0.00340786
0.0511609
0.100092
0.147324
0.191291
0.231255
0.266967
0.298445
0.325839
0.349354
0.369204
0.385589
0.398679
0.408609
0.415472
0.419322
0.420169
0.417975
0.412656
0.404076
0.392047
0.376324
0.35661
0.332557
0.30379
0.26994
0.230728
0.186105
0.136509
0.0832816
0.029283
-0.0203388
-0.0573913
-0.0709588
-0.0539163
-0.0185319
-0.0256823
-0.0642324
-0.0650065
-0.0289283
0.0276065
0.0913351
0.154659
0.213759
0.267049
0.314156
0.355292
0.390907
0.421519
0.447626
0.469673
0.488041
0.503042
0.514923
0.523875
0.53003
0.533466
0.534211
0.532238
0.527466
0.519753
0.508891
0.494596
0.476501
0.45414
0.426943
0.394235
0.355257
0.309238
0.255568
0.194164
0.126199
0.0553503
-0.0103073
-0.0560938
-0.0628535
-0.0261349
-0.0292045
-0.0582417
-0.0131185
0.068272
0.156105
0.238345
0.310915
0.373116
0.42575
0.470089
0.507397
0.538777
0.565138
0.587212
0.605578
0.620693
0.632911
0.642503
0.64967
0.654553
0.657237
0.657757
0.656096
0.652186
0.645899
0.637042
0.625343
0.610433
0.591827
0.568885
0.540781
0.506455
0.464573
0.413529
0.351565
0.277238
0.190586
0.0953046
0.0037445
-0.0518623
-0.0278778
0.0109332
0.0252022
0.148538
0.279289
0.385193
0.468453
0.53401
0.585806
0.627094
0.66038
0.687483
0.709716
0.728031
0.743128
0.755529
0.765624
0.773705
0.779989
0.784636
0.787756
0.789418
0.78965
0.788444
0.785753
0.781486
0.775501
0.767596
0.75749
0.744798
0.728997
0.709367
0.684917
0.654256
0.615424
0.565652
0.501209
0.417435
0.308468
0.171001
0.0381026
0.0165116
0.302156
0.400918
0.563423
0.681208
0.751506
0.796577
0.827848
0.850525
0.867562
0.880756
0.891203
0.899598
0.906406
0.911945
0.916443
0.920066
0.922935
0.925138
0.926741
0.927787
0.928303
0.928302
0.927781
0.926721
0.925088
0.922827
0.919857
0.916066
0.911298
0.905332
0.897859
0.888426
0.876351
0.86056
0.839273
0.809496
0.765902
0.696808
0.578513
0.411247
0.306755
)
;

boundaryField
{
    movingWall
    {
        type            calculated;
        value           uniform 1;
    }
    fixedWalls
    {
        type            calculated;
        value           uniform 0;
    }
    frontAndBack
    {
        type            empty;
    }
}


// ************************************************************************* //
