/*--------------------------------*- C++ -*----------------------------------*\
| =========                 |                                                 |
| \\      /  F ield         | OpenFOAM: The Open Source CFD Toolbox           |
|  \\    /   O peration     | Version:  2306                                  |
|   \\  /    A nd           | Website:  www.openfoam.com                      |
|    \\/     M anipulation  |                                                 |
\*---------------------------------------------------------------------------*/
FoamFile
{
    version     2.0;
    format      ascii;
    arch        "LSB;label=32;scalar=64";
    class       volScalarField;
    location    "0.6";
    object      Uy;
}
// * * * * * * * * * * * * * * * * * * * * * * * * * * * * * * * * * * * * * //

dimensions      [0 1 -1 0 0 0 0];

internalField   nonuniform List<scalar> 
1681
(
-5.66148e-05
-5.53188e-05
-9.80165e-06
4.52828e-05
9.73154e-05
0.000141723
0.000177119
0.00020345
0.000221181
0.000230955
0.000233462
0.000229393
0.000219423
0.000204203
0.000184361
0.000160514
0.000133263
0.000103207
7.09462e-05
3.70986e-05
2.30107e-06
-3.27849e-05
-6.74687e-05
-0.000101028
-0.000132711
-0.000161738
-0.000187313
-0.000208631
-0.000224891
-0.000235308
-0.000239136
-0.000235675
-0.000224296
-0.000204466
-0.000175797
-0.000138167
-9.20418e-05
-3.92782e-05
1.51091e-05
5.81779e-05
5.61726e-05
-0.000149611
-7.54603e-05
0.000155003
0.000428821
0.000695748
0.000931774
0.00112588
0.00127397
0.00137561
0.00143226
0.00144638
0.00142105
0.00135965
0.0012657
0.00114286
0.000994817
0.000825332
0.000638202
0.000437308
0.000226634
1.0288e-05
-0.000207482
-0.000422281
-0.000629563
-0.000824655
-0.0010028
-0.00115919
-0.00128907
-0.00138783
-0.00145108
-0.00147483
-0.00145563
-0.00139079
-0.00127865
-0.00111903
-0.000914034
-0.000669669
-0.000398954
-0.000127638
9.31156e-05
0.000153025
-0.000162121
0.000140337
0.000724711
0.00139785
0.00205916
0.00265218
0.00314642
0.00352747
0.00379057
0.00393668
0.00397032
0.00389825
0.00372856
0.00347023
0.00313281
0.00272622
0.00226067
0.00174667
0.00119496
0.000616637
2.3108e-05
-0.000573846
-0.00116208
-0.00172911
-0.00226217
-0.00274838
-0.00317482
-0.00352885
-0.00379832
-0.00397194
-0.00403969
-0.00399334
-0.00382708
-0.00353841
-0.00312941
-0.00260882
-0.00199548
-0.00132434
-0.000655607
-9.16779e-05
0.000177925
-3.96241e-05
0.000671924
0.00175454
0.00295444
0.0041253
0.00517713
0.00605701
0.00673709
0.00720589
0.00746254
0.00751318
0.00736859
0.00704264
0.00655126
0.00591176
0.00514245
0.00426241
0.00329133
0.00224956
0.00115803
3.83395e-05
-0.00108726
-0.0021959
-0.00326411
-0.00426805
-0.00518369
-0.00598716
-0.00665516
-0.00716555
-0.00749799
-0.00763477
-0.00756184
-0.00726999
-0.00675656
-0.00602766
-0.00510148
-0.0040134
-0.00282389
-0.00162931
-0.000579536
7.44915e-05
0.000231662
0.00154982
0.00327291
0.00510953
0.00687826
0.00846035
0.00978176
0.0108009
0.0114988
0.0118721
0.0119281
0.0116821
0.0111542
0.0103682
0.00935075
0.00813
0.00673569
0.0051987
0.00355097
0.00182549
5.62353e-05
-0.00172178
-0.00347263
-0.00515957
-0.00674535
-0.00819254
-0.00946411
-0.0105241
-0.0113385
-0.0118765
-0.0121114
-0.0120225
-0.0115972
-0.010833
-0.00974077
-0.00834937
-0.00671143
-0.00491218
-0.00308016
-0.00140323
-0.000172405
0.000646477
0.0027761
0.00528828
0.00787169
0.0103206
0.0124941
0.0143004
0.0156858
0.0166244
0.0171107
0.0171537
0.0167732
0.0159965
0.0148563
0.0133893
0.0116351
0.00963552
0.00743416
0.00507625
0.00260854
7.92064e-05
-0.00246216
-0.0049647
-0.00737654
-0.0096451
-0.0117177
-0.0135424
-0.0150689
-0.0162497
-0.0170419
-0.0174091
-0.017323
-0.0167669
-0.0157381
-0.0142524
-0.0123487
-0.0100957
-0.00760073
-0.0050189
-0.00256647
-0.000558215
0.00119547
0.0043408
0.00779435
0.0112366
0.0144466
0.0172677
0.0195951
0.0213657
0.0225487
0.0231374
0.0231434
0.022592
0.0215185
0.0199654
0.0179807
0.0156164
0.0129275
0.00997169
0.00680884
0.00350078
0.000111273
-0.00329408
-0.00664805
-0.00988211
-0.0129269
-0.015713
-0.0181719
-0.0202375
-0.0218474
-0.0229456
-0.023484
-0.0234261
-0.0227499
-0.0214516
-0.0195506
-0.0170943
-0.0141654
-0.0108893
-0.00744227
-0.00406114
-0.00107416
0.00186961
0.00623052
0.0107788
0.0151937
0.0192459
0.0227693
0.0256504
0.0278205
0.0292462
0.0299216
0.0298627
0.0291014
0.0276821
0.0256582
0.0230899
0.0200428
0.0165862
0.0127927
0.00873775
0.00449939
0.000157988
-0.00420382
-0.00850135
-0.0126483
-0.0165573
-0.0201409
-0.0233129
-0.0259898
-0.028093
-0.0295517
-0.030305
-0.0303064
-0.0295271
-0.0279604
-0.0256273
-0.0225818
-0.018917
-0.014773
-0.0103421
-0.00587631
-0.00171195
0.0026615
0.00843253
0.0142289
0.0197317
0.0247087
0.0289889
0.032455
0.0350362
0.0366997
0.0374431
0.0372883
0.036276
0.0344609
0.0319086
0.0286928
0.0248933
0.0205947
0.0158854
0.0108572
0.00560499
0.000226378
-0.00517818
-0.0105058
-0.0156515
-0.0205092
-0.0249722
-0.0289352
-0.0322964
-0.0349594
-0.0368367
-0.0378531
-0.0379498
-0.0370892
-0.0352596
-0.0324809
-0.0288105
-0.0243492
-0.0192478
-0.0137111
-0.00800264
-0.00246522
0.00356572
0.0109367
0.0181335
0.0248408
0.0308263
0.0359187
0.0400006
0.0430031
0.0448974
0.0456876
0.045404
0.0440979
0.0418362
0.0386982
0.0347722
0.0301532
0.0249418
0.019243
0.0131652
0.00682073
0.000324854
-0.0062038
-0.0126437
-0.0188707
-0.0247589
-0.030182
-0.0350146
-0.0391346
-0.0424266
-0.0447845
-0.0461165
-0.0463494
-0.0454338
-0.0433502
-0.0401145
-0.0357841
-0.0304643
-0.0243133
-0.0175457
-0.0104346
-0.00333011
0.00457889
0.0137364
0.0224853
0.0305139
0.0375927
0.0435528
0.0482811
0.0517141
0.0538306
0.0546442
0.0541969
0.0525528
0.0497932
0.0460124
0.0413145
0.0358111
0.0296194
0.0228611
0.0156619
0.00815155
0.000463107
-0.00726653
-0.014897
-0.0222847
-0.0292838
-0.0357472
-0.0415283
-0.046484
-0.0504774
-0.0533823
-0.0550874
-0.0555021
-0.0545626
-0.0522377
-0.0485358
-0.0435111
-0.0372696
-0.0299742
-0.0218474
-0.0131713
-0.0043053
0.00569942
0.0168281
0.0272804
0.0367476
0.0450045
0.0518879
0.0572922
0.0611633
0.0634914
0.0643032
0.0636554
0.0616276
0.0583177
0.0538371
0.0483072
0.0418567
0.0346201
0.0267364
0.0183485
0.00960346
0.000651952
-0.00835108
-0.0172466
-0.0258716
-0.0340599
-0.0416432
-0.048453
-0.0543234
-0.0590946
-0.0626174
-0.0647584
-0.0654065
-0.0644793
-0.0619303
-0.0577562
-0.0520041
-0.0447774
-0.0362412
-0.0266238
-0.0162169
-0.00539192
0.0069273
0.0202118
0.0325188
0.0435418
0.0530612
0.0609223
0.0670304
0.071345
0.0738714
0.0746535
0.0737658
0.0713069
0.0673937
0.0621566
0.0557356
0.0482777
0.0399353
0.0308647
0.0212259
0.0111827
0.000903097
-0.00944059
-0.0196711
-0.0296065
-0.0390602
-0.0478424
-0.0557618
-0.0626284
-0.0682576
-0.0724745
-0.0751206
-0.0760601
-0.0751878
-0.0724376
-0.0677899
-0.0612803
-0.0530058
-0.0431308
-0.0318886
-0.0195806
-0.00659336
0.00826391
0.0238906
0.038204
0.0508997
0.0617648
0.0706558
0.0774928
0.0822525
0.0849603
0.0856809
0.0845111
0.0815714
0.0770006
0.0709503
0.0635807
0.0550582
0.0455532
0.0352393
0.0242932
0.012895
0.00122882
-0.0105165
-0.0221465
-0.0334606
-0.0442527
-0.0543111
-0.0634214
-0.0713681
-0.0779395
-0.0829327
-0.0861599
-0.0874567
-0.0866903
-0.0837694
-0.0786531
-0.0713602
-0.0619776
-0.0506657
-0.0376612
-0.023276
-0.00791513
0.00971186
0.0278699
0.044343
0.0588275
0.0711193
0.0810889
0.088675
0.0938765
0.0967432
0.097366
0.0958675
0.0923944
0.0871104
0.0801904
0.0718167
0.0621757
0.0514563
0.0398491
0.0275469
0.0147447
0.00164154
-0.0115585
-0.0246449
-0.0374002
-0.0495989
-0.0610084
-0.0713901
-0.0805025
-0.0881046
-0.0939622
-0.0978548
-0.0995842
-0.0989846
-0.0959333
-0.0903619
-0.0822671
-0.0717199
-0.0588737
-0.0439667
-0.0273215
-0.00936472
0.0112749
0.0321581
0.0509454
0.0673341
0.0811302
0.0922219
0.100571
0.106204
0.1092
0.109681
0.107803
0.10374
0.0976847
0.0898388
0.0804077
0.0695987
0.0576194
0.0446768
0.0309785
0.0167332
0.00215319
-0.0125443
-0.0271349
-0.0413853
-0.0550523
-0.067883
-0.0796151
-0.0899795
-0.0987045
-0.105522
-0.110173
-0.112421
-0.112061
-0.108933
-0.102931
-0.094025
-0.0822634
-0.0677878
-0.0508353
-0.0317396
-0.0109515
0.0129577
0.0367657
0.0580238
0.0764303
0.0918037
0.104054
0.11317
0.119214
0.122301
0.12259
0.120272
0.115558
0.108672
0.0998443
0.0893053
0.0772843
0.0640072
0.0496967
0.0345737
0.0188586
0.0027745
-0.0134505
-0.0295805
-0.0453689
-0.060557
-0.0748724
-0.0880297
-0.0997322
-0.109676
-0.117554
-0.123067
-0.125934
-0.125902
-0.122763
-0.116372
-0.106658
-0.0936408
-0.0774447
-0.0583023
-0.036557
-0.0126866
0.0147663
0.0417058
0.0655937
0.0861291
0.103146
0.116581
0.126459
0.132881
0.136007
0.136041
0.133216
0.127784
0.120004
0.110139
0.0984452
0.0851748
0.0705715
0.0548725
0.0383098
0.0211134
0.00351405
-0.0142524
-0.0319416
-0.0492967
-0.0660459
-0.0818999
-0.0965513
-0.109676
-0.120935
-0.129982
-0.136472
-0.140071
-0.140472
-0.137411
-0.130689
-0.120186
-0.105886
-0.0878849
-0.0664071
-0.0418042
-0.0145832
0.0167079
0.0469942
0.0736733
0.0964451
0.115163
0.129796
0.140413
0.147164
0.150263
0.149966
0.146556
0.140331
0.131592
0.120634
0.107744
0.093195
0.0772488
0.0601549
0.0421544
0.0234834
0.00437708
-0.0149249
-0.0341735
-0.0531058
-0.0714403
-0.0888735
-0.105078
-0.119703
-0.132376
-0.142707
-0.150299
-0.15476
-0.155719
-0.152847
-0.145876
-0.134627
-0.119031
-0.0991509
-0.0751936
-0.0475161
-0.0166562
0.0187911
0.0526503
0.0822844
0.107395
0.127859
0.143687
0.155001
0.162013
0.164998
0.164277
0.160192
0.153092
0.143323
0.131219
0.117095
0.101249
0.0839569
0.0654792
0.0460627
0.0259459
0.00536425
-0.0154432
-0.0362279
-0.0567251
-0.0766482
-0.0956836
-0.113488
-0.129684
-0.143865
-0.155598
-0.164429
-0.169901
-0.171569
-0.169022
-0.161913
-0.149986
-0.133106
-0.111287
-0.0847098
-0.0537317
-0.0189228
0.0210266
0.0586975
0.091453
0.118997
0.141236
0.158234
0.170179
0.177356
0.180119
0.178861
0.173993
0.165925
0.155053
0.141752
0.126367
0.109216
0.0905926
0.0707627
0.0499756
0.0284678
0.0064701
-0.0157845
-0.0380532
-0.0600752
-0.0815644
-0.102202
-0.121633
-0.139459
-0.155239
-0.168493
-0.178711
-0.185361
-0.187912
-0.185861
-0.178761
-0.166259
-0.148136
-0.124338
-0.0950077
-0.060495
-0.0214028
0.023428
0.0651648
0.10121
0.131271
0.155295
0.173409
0.185885
0.193101
0.195502
0.193571
0.187797
0.178659
0.166608
0.152061
0.135395
0.11695
0.0970289
0.0759026
0.0538178
0.0310039
0.00768151
-0.0159284
-0.0395953
-0.0630689
-0.0860703
-0.108283
-0.129343
-0.148837
-0.166295
-0.181191
-0.192951
-0.200965
-0.204606
-0.203257
-0.196354
-0.183424
-0.164136
-0.138348
-0.106143
-0.0678552
-0.0241187
0.0260121
0.0720886
0.111595
0.144243
0.170031
0.189171
0.202039
0.209126
0.210993
0.208224
0.201402
0.19108
0.177771
0.161937
0.143985
0.124273
0.103113
0.0807738
0.0574959
0.0334953
0.00897612
-0.0158593
-0.0407996
-0.0656126
-0.0900343
-0.113757
-0.136419
-0.157596
-0.176793
-0.193442
-0.206907
-0.21649
-0.221455
-0.22106
-0.214594
-0.201435
-0.18111
-0.153357
-0.118176
-0.0758682
-0.0270968
0.0288009
0.0795155
0.122655
0.157938
0.185432
0.20546
0.21853
0.225276
0.226393
0.222591
0.214557
0.202929
0.188285
0.17113
0.151903
0.130976
0.108663
0.0852283
0.0608976
0.0358681
0.0103209
-0.0155675
-0.0416126
-0.0676083
-0.0933142
-0.118441
-0.142638
-0.165478
-0.186451
-0.204951
-0.22028
-0.231651
-0.238211
-0.239066
-0.233336
-0.220214
-0.199044
-0.169403
-0.131172
-0.084598
-0.0303681
0.0318234
0.0875054
0.134449
0.172387
0.20148
0.222195
0.235214
0.241346
0.241452
0.236387
0.226958
0.213895
0.197841
0.179349
0.158881
0.136818
0.113472
0.089095
0.0638915
0.0380334
0.0116713
-0.0150511
-0.041984
-0.068956
-0.0957594
-0.122134
-0.14775
-0.172191
-0.19494
-0.215365
-0.232709
-0.246099
-0.25455
-0.257005
-0.25238
-0.23964
-0.217897
-0.186512
-0.145201
-0.0941191
-0.0339701
0.0351178
0.0961366
0.147053
0.187622
0.218138
0.239262
0.251896
0.257073
0.255853
0.249261
0.238236
0.223607
0.206083
0.186257
0.164611
0.141527
0.117307
0.0921816
0.0663289
0.0398873
0.0129706
-0.0143177
-0.0418698
-0.0695576
-0.0972159
-0.124624
-0.151487
-0.177412
-0.20189
-0.224275
-0.243765
-0.259401
-0.270068
-0.274524
-0.27145
-0.259537
-0.237596
-0.204703
-0.160339
-0.10452
-0.0379486
0.0387362
0.105512
0.160559
0.203677
0.235347
0.256497
0.268318
0.272118
0.269202
0.260785
0.247953
0.231633
0.2126
0.191476
0.168752
0.144805
0.119913
0.0942793
0.0680467
0.0413137
0.0141507
-0.0133853
-0.0412353
-0.069322
-0.0975322
-0.125697
-0.153568
-0.180793
-0.20689
-0.231216
-0.252943
-0.271038
-0.284258
-0.291166
-0.290176
-0.279646
-0.258012
-0.223969
-0.176667
-0.115906
-0.0423614
0.0427497
0.115768
0.175084
0.220578
0.253009
0.273669
0.284129
0.286044
0.281003
0.270439
0.255589
0.237479
0.216932
0.19459
0.17094
0.146335
0.121024
0.0951704
0.0688744
0.0421885
0.0151341
-0.012283
-0.040058
-0.0681708
-0.0965683
-0.125143
-0.153709
-0.181973
-0.209499
-0.235673
-0.259666
-0.280395
-0.296502
-0.306351
-0.308065
-0.299609
-0.278949
-0.244274
-0.194271
-0.128411
-0.0472834
0.0472572
0.127086
0.190767
0.238334
0.270961
0.290446
0.29886
0.298285
0.290642
0.277601
0.260546
0.240586
0.218577
0.195159
0.170793
0.145797
0.120374
0.0946401
0.0686435
0.0423864
0.0158378
-0.0110507
-0.0383314
-0.0660455
-0.0942057
-0.122776
-0.151644
-0.180595
-0.209263
-0.237095
-0.263292
-0.286758
-0.30605
-0.319347
-0.324464
-0.31892
-0.3001
-0.26553
-0.213242
-0.142197
-0.0528147
0.0523984
0.139707
0.207771
0.256912
0.288934
0.306348
0.311874
0.308115
0.297367
0.281537
0.262144
0.240349
0.21701
0.192737
0.167944
0.14289
0.117721
0.0924931
0.0672008
0.0417908
0.0161791
-0.00973724
-0.0360676
-0.0629148
-0.0903603
-0.118445
-0.147142
-0.17633
-0.205741
-0.234916
-0.263131
-0.289324
-0.312017
-0.329246
-0.338525
-0.336881
-0.321006
-0.287562
-0.233658
-0.157477
-0.059093
0.0583755
0.15395
0.226267
0.276189
0.30649
0.320677
0.322312
0.314611
0.300266
0.281406
0.25964
0.236137
0.211712
0.186908
0.162062
0.137356
0.112864
0.0885757
0.0644259
0.0403071
0.0160839
-0.00839755
-0.0332996
-0.0587834
-0.0849972
-0.112059
-0.140037
-0.168913
-0.198543
-0.228597
-0.258476
-0.287219
-0.313389
-0.334945
-0.34915
-0.352531
-0.340976
-0.310049
-0.255571
-0.17452
-0.0663147
0.0654884
0.170235
0.246404
0.295871
0.322913
0.332427
0.329024
0.316613
0.298267
0.276274
0.252262
0.227338
0.202216
0.177328
0.152902
0.129024
0.105684
0.0828023
0.060253
0.0378783
0.015497
-0.00708765
-0.0300829
-0.0537
-0.0781463
-0.103614
-0.130261
-0.158185
-0.18738
-0.217679
-0.248664
-0.279552
-0.309043
-0.335137
-0.35495
-0.364558
-0.358981
-0.33243
-0.278956
-0.193671
-0.07477
0.0741949
0.189102
0.268224
0.315342
0.337056
0.340151
0.3305
0.312712
0.29016
0.265172
0.23928
0.213434
0.18818
0.16379
0.140357
0.117854
0.0961798
0.0751869
0.0546948
0.0345027
0.0143944
-0.0058586
-0.0264955
-0.0477641
-0.0699179
-0.0932102
-0.117882
-0.144141
-0.17213
-0.201866
-0.233162
-0.265493
-0.297819
-0.328342
-0.35421
-0.3712
-0.373496
-0.353736
-0.303605
-0.215357
-0.0849038
0.0852172
0.211199
0.29148
0.333405
0.347103
0.34182
0.324811
0.301274
0.274678
0.247199
0.220114
0.194107
0.16948
0.146309
0.124526
0.103988
0.0845081
0.0658754
0.047867
0.0302526
0.0127952
-0.00474963
-0.0226364
-0.0411317
-0.0605165
-0.0810856
-0.103144
-0.126994
-0.152917
-0.181123
-0.211685
-0.244409
-0.278645
-0.312994
-0.344903
-0.370149
-0.38229
-0.372321
-0.328917
-0.240055
-0.0974214
0.0997139
0.237175
0.315252
0.347849
0.350263
0.334689
0.309643
0.280565
0.250672
0.22171
0.194514
0.169389
0.146338
0.125213
0.105789
0.0878139
0.0710277
0.0551757
0.0400102
0.025289
0.0107725
-0.00378161
-0.0186237
-0.0340183
-0.0502505
-0.0676309
-0.0864992
-0.107224
-0.130196
-0.155798
-0.184363
-0.216067
-0.250757
-0.287643
-0.324813
-0.358514
-0.382183
-0.385437
-0.353477
-0.268148
-0.113456
0.119508
0.267305
0.3372
0.354819
0.342464
0.315308
0.28251
0.249076
0.217451
0.188622
0.162811
0.139862
0.119465
0.101258
0.0848832
0.0700083
0.0563315
0.0435796
0.0315036
0.019871
0.00845908
-0.00295295
-0.0145918
-0.0266984
-0.0395369
-0.0534039
-0.0686389
-0.085633
-0.104836
-0.126754
-0.151934
-0.180902
-0.214043
-0.251337
-0.291874
-0.332991
-0.368887
-0.388684
-0.374286
-0.299467
-0.134769
0.147417
0.300469
0.352193
0.348006
0.318255
0.279907
0.241359
0.20614
0.175319
0.148844
0.126231
0.106879
0.09021
0.0757121
0.0629528
0.0515701
0.0412607
0.0317669
0.0228648
0.0143534
0.00604586
-0.00224009
-0.0106901
-0.0195023
-0.0288971
-0.0391284
-0.050497
-0.0633665
-0.078182
-0.095489
-0.11595
-0.140342
-0.169515
-0.204244
-0.244858
-0.290428
-0.337141
-0.375392
-0.385434
-0.33219
-0.164024
0.188007
0.331701
0.349697
0.317581
0.271079
0.225321
0.185609
0.152827
0.126237
0.104707
0.0871606
0.0727001
0.0606186
0.0503704
0.0415353
0.033787
0.0268679
0.0205694
0.0147178
0.00916219
0.00376538
-0.00160392
-0.0070787
-0.0128012
-0.0189316
-0.0256581
-0.0332105
-0.0418773
-0.0520295
-0.0641516
-0.0788821
-0.097063
-0.119785
-0.1484
-0.184395
-0.22891
-0.281329
-0.335981
-0.375793
-0.360353
-0.205434
0.244965
0.345322
0.31044
0.250735
0.195626
0.15154
0.118183
0.0933099
0.0746421
0.0604064
0.0493333
0.0405356
0.0333952
0.0274775
0.0224709
0.0181473
0.0143348
0.0108999
0.00773476
0.00474819
0.00185918
-0.00100886
-0.00393293
-0.00699561
-0.0102907
-0.0139303
-0.0180545
-0.0228449
-0.028544
-0.0354852
-0.0441372
-0.0551726
-0.0695691
-0.0887515
-0.114754
-0.150281
-0.198178
-0.259247
-0.326491
-0.367011
-0.261316
0.285088
0.299123
0.213962
0.145909
0.100367
0.0706249
0.0512492
0.0383914
0.0295684
0.023279
0.0186269
0.0150674
0.0122597
0.0099834
0.00809073
0.0064789
0.00507361
0.003819
0.00267116
0.00159383
0.00055531
-0.000474026
-0.00152382
-0.00262589
-0.00381668
-0.0051404
-0.00665335
-0.00843039
-0.010575
-0.0132355
-0.016633
-0.0211091
-0.0272133
-0.0358602
-0.0486122
-0.0681356
-0.0987476
-0.146736
-0.219403
-0.30954
-0.294795
0.146423
0.127365
0.0753606
0.0430276
0.0253267
0.0155922
0.0101527
0.00700811
0.00508888
0.00384204
0.00298208
0.00235704
0.00188229
0.00150813
0.00120376
0.000949018
0.000729995
0.000536621
0.000361216
0.000197583
4.03976e-05
-0.000115257
-0.000274287
-0.000441972
-0.000624429
-0.000829204
-0.00106613
-0.00134867
-0.00169615
-0.00213766
-0.0027194
-0.00351909
-0.00467556
-0.00645151
-0.00936655
-0.0144647
-0.0238039
-0.0413311
-0.0742345
-0.127986
-0.148183
)
;

boundaryField
{
    movingWall
    {
        type            calculated;
        value           uniform 0;
    }
    fixedWalls
    {
        type            calculated;
        value           uniform 0;
    }
    frontAndBack
    {
        type            empty;
    }
}


// ************************************************************************* //
