/*--------------------------------*- C++ -*----------------------------------*\
| =========                 |                                                 |
| \\      /  F ield         | OpenFOAM: The Open Source CFD Toolbox           |
|  \\    /   O peration     | Version:  2306                                  |
|   \\  /    A nd           | Website:  www.openfoam.com                      |
|    \\/     M anipulation  |                                                 |
\*---------------------------------------------------------------------------*/
FoamFile
{
    version     2.0;
    format      ascii;
    arch        "LSB;label=32;scalar=64";
    class       volScalarField;
    location    "2.3";
    object      gradTz;
}
// * * * * * * * * * * * * * * * * * * * * * * * * * * * * * * * * * * * * * //

dimensions      [0 -1 0 1 0 0 0];

internalField   nonuniform List<scalar> 
5712
(
7180.56
23597.8
5696.1
24200.6
4281.38
25046
6768.06
38659.3
8319.46
53167.1
8251.75
38695.2
7953.89
32097.6
8266.1
28668.7
5001.61
3082.83
13368.8
7918.45
4906.4
2642.62
14657.2
7273.85
5455.29
3937.78
17500.4
12272.7
4124.77
2952.59
17215.6
12468.8
9670.07
4088.18
8339.22
3709.01
3824.84
9003.88
33541.7
9098.64
12002.1
4071.38
43258.9
11758.1
11261.1
3908.84
23920.4
7427.79
12270.5
4287.42
20767.2
6607.85
5755.1
2853.39
8583.27
3334.82
6224.94
3367.87
8375.59
3203.24
7929.36
4513.19
7217.42
3124.92
10720.3
3844.37
3691.46
1286.2
12118.9
8373.97
7513.19
5480.3
13628.8
11206.9
7453.34
6450.53
7088.45
4765.97
9951.17
6621
4961.69
3641.28
2532.69
2075.22
4814.28
4159.2
2505.54
2414.51
4742.5
3096.78
2439.57
1559.77
6311.94
3424.19
4711.55
5708.36
8605.22
6119.42
6797.74
9743.26
4189.08
1979.46
2785.11
3275.75
2086.98
863.919
1206.43
1215.44
7521.52
13503.9
5113.42
15091.4
8839.79
13233.7
6299.49
15825.7
10072.3
12003.7
8136.52
15487.2
12069.5
14505.3
8983.76
8625.46
9463.41
14479.6
13267.5
12932.6
13208.3
19117.3
11766.2
8970.65
7700.38
8614.45
13574.7
15601.3
13894.8
18110
17357.7
14285.1
13208.7
17903.6
17010.3
12371.5
12035
16816.7
16411
10551.4
8250.23
9713.44
8414.99
10547.7
9358.11
11285.7
10767
15524.3
15815.8
9869.41
8505.58
9331.88
8879.64
9562.18
10037.5
10731.5
11953.6
14012.1
16096.7
8128.81
6376.83
5595.42
7138.97
11065.6
13513.9
7685.67
12179.4
4712.6
6218.96
7002.47
5763
1342.64
4744.14
706.753
1709.14
3931.8
8201.3
1460.7
2849.47
618.465
4003.17
356.256
1404.74
4616.6
4693.22
5245.3
3240.59
7293.8
5817
8578.6
5887.29
1058.34
2569.45
2599.22
1466.31
1457.69
1895.78
2067.56
1559.66
11029.4
6683.45
2095.61
12498.9
7152.84
2338.05
10576.1
6613.33
2224.91
12315.2
7164.29
2336.3
9732.5
6069.8
1990.75
12032.6
7207.34
2404.77
5355.21
2873.46
768.79
6791.03
4459.61
1550.35
8052.8
5551.68
1912.91
9281.44
5991.09
1985.67
11929.2
7414.81
2592.83
6381.53
3560.62
1120.64
6356.19
4563.42
1717.67
7505
5540.58
2029.38
9387.49
6576.69
2346.23
12060.1
7496.91
2654.04
298.297
2005.95
2833.52
4095.3
2161.22
2487.33
5434.46
5161.78
601.687
1037.52
642.496
1080.88
488.143
1418.47
871.196
1860.92
3226.75
1578.87
4081.12
2358.48
2178.3
3800.94
3399.13
956.116
6037.74
1491.82
-1875.63
752.695
1804.15
1358.22
1260.51
1179.61
9876.92
4584.89
2702.03
1696.39
10032.4
4769.55
3395.92
2144.02
9907.25
5138
4934.45
3503.88
3534.93
2570.9
1772.38
1705.44
12589.8
11204
5936.33
6167.9
13457.3
12639.5
6644.24
6706.7
5321.46
5486.54
10892.6
9127.59
3555.33
3720.85
2007.08
2272.29
4104.88
4081.29
2272.23
2429.13
3130.31
3373.67
1776.77
2169.34
4786.25
3407.62
4794.84
3473.73
7440.09
4499.14
7126.34
4803.65
2900.8
2471.34
3041.62
2251.48
1643.66
1561.36
1940.97
1324.85
11766.2
8339.04
6033.33
6227.61
11717
8524.1
6070.21
6198.06
12145.1
8823.85
6157.34
6018.55
13812.4
14799.2
12695.1
8598.86
5011.73
14023.4
13107.6
12313.3
10314.4
6860.27
13151.2
11984.8
9678.02
7561.45
4862.46
7215.92
6519.83
6824.46
7913.01
7406.16
6379.19
6877.73
7795.07
7666.02
6283.18
6923.62
7662.68
10584.6
7461.55
9992.23
6979.67
7989.52
6512.68
7600.03
6592.32
6412.23
7571.93
8788.95
7624.21
7864.4
6895.36
6818.88
6238.31
6146.86
6186.86
5067.8
7211.07
7030.44
4758.42
4676.64
2782.95
9096.66
7009.77
6334.98
5081.7
3873.85
2340.31
5621.05
4187.73
4739.18
2237.63
1745.6
1005.93
4978.82
3594.01
1749.89
1448.21
4142.01
1863.92
1639.17
868.208
3302.33
3088.9
2990.6
4432.84
4597.78
4418.59
3823.59
5695.56
3320.1
2194.42
2151.99
2994.99
1021.1
504.387
257.427
580.79
4538.86
1891.39
557.212
5272.29
1359.31
361.106
4573.83
2035.79
624.277
5250.39
1411.13
393.093
4234.54
1999.63
515.808
5141.83
1431.44
334.465
4583.9
2300.2
501.201
4231.66
2026.13
469.533
4246.04
2026.51
544.563
4300.5
2009.78
421.034
5111
1401.12
208.222
5839.09
2912.21
766.439
5359.34
2653.66
719.682
4969.5
2449.44
709.947
4812.18
2046.57
498.977
5531.79
1305.28
317.528
1807.72
651.964
128.189
-206.835
752.375
286.834
77.851
-41.4514
1917.46
716.249
184.293
-127.352
956.568
399.748
192.239
89.7523
2062.85
798.85
280.33
-4.98038
1642.06
772.647
304.837
70.6938
1255.76
715.916
263.111
-7.99873
1185.37
785.904
466.09
280.381
1715.08
766.532
237.559
-182.649
1472.55
649.142
285.869
-184.75
2025.68
789.259
254.663
-133.793
1836.37
719.066
286.769
-304.439
1380.28
717.051
291.097
-57.5618
1134.11
576.595
310.874
3.17902
1025.65
636.163
383.338
238.339
785.366
490.412
331.17
197.402
2306.34
785.923
124.843
-410.431
2292.27
724.717
178.654
-560.896
2305.59
798.587
146.774
-390.425
2221.96
705.794
187.297
-543.489
2264.08
803.414
226.035
-277.241
2075.04
669.19
232.68
-444.369
1986.73
744.622
315.107
-36.0391
2276.72
751.02
330.056
-519.396
1780.16
668.125
317.606
-122.598
1823.6
511.721
161.411
-380.194
727.661
186.176
44.4156
-79.3191
1882.66
546.961
181.372
-361.971
757.773
201.552
57.4599
-64.6007
1915.09
586.965
226.152
-317.088
770.81
219.175
74.8423
-46.4399
1726.96
554.711
261.399
-249.465
748.074
226.867
103.189
-14.0712
1582.08
553.436
286.494
-144.136
669.215
239.989
141.604
30.2038
1107.51
450.02
221.486
-42.7696
631.318
315.741
194.076
103.735
1277.42
455.258
222.757
-103.922
635.949
273.648
168.226
67.4523
894.526
437.468
245.14
39.623
568.465
333.849
214.842
139.222
634.518
398.92
275.034
172.56
476.779
333.691
236.79
180.508
-18.5968
8.03615
8.21853
5.80456
4.45005
-2.77967
5.41829
4.63603
3.20776
2.45961
9.67136
23.0494
16.7678
11.1295
8.39781
27.8131
22.4832
14.5177
9.36981
7.01938
40.7363
41.4069
27.6482
18.082
13.6137
113.834
76.305
47.1432
30.1638
22.5494
137.052
90.1644
55.6497
35.6817
26.752
199.397
119.493
71.6346
45.5172
34.0726
72.1645
60.6093
39.1038
25.3472
18.9698
77.2157
57.167
36.0695
23.3237
17.4645
49.5708
48.5351
31.9094
20.8675
15.693
91.2748
59.2609
36.1314
23.1964
17.3162
94.2678
72.4244
46.1551
29.8604
22.4046
103.617
68.4526
42.2554
27.1567
20.3411
158.504
96.2779
57.858
36.7914
27.5289
132.449
79.4912
47.6943
30.3261
22.6548
-34.2983
4.12211
6.09646
4.45807
3.44531
-18.7329
1.30633
2.39104
1.78288
1.39607
-15.7488
13.5431
11.3825
7.74506
5.90389
-12.1081
4.64415
4.2323
2.90912
2.24082
7.65527
24.5037
17.4019
11.5358
8.77252
12.9156
15.7298
10.1936
6.53739
4.94807
59.5452
47.8785
30.2872
19.6786
14.8719
39.7052
30.2394
18.7021
12.0531
9.11077
110.334
62.8164
37.0945
23.554
17.5827
1609.58
3680.59
1622.13
3640.9
1768.31
3609.27
2107.29
3755.25
2202.13
3877.96
883.655
1374.27
1452.48
2320.11
469.576
671.843
167.341
224.1
8405.21
2005.63
459.163
102.442
25.417
2288.88
615.972
163.717
37.1927
8.07267
8316.57
1968.17
450.115
99.5749
24.8869
2329.08
686.847
169.151
39.2896
9.74627
7959.79
1870.29
426.059
94.1203
23.5487
2260.68
664.341
163.182
37.7149
9.38936
7313.24
1702.81
386.661
85.3314
21.3533
2198.46
632.597
153.366
35.1307
8.69842
6146.88
1423.64
323.391
71.4562
17.9018
2081.18
582.606
139.688
31.794
7.84803
2927.04
708.809
163.739
36.4355
9.14055
1016.17
289.011
68.7278
15.3685
3.78384
4349.54
1038.49
238.062
52.7207
13.2064
1495.39
419.841
100.704
22.9064
5.69179
1720.97
420.096
97.4913
21.7986
5.47852
568.26
168.164
39.7361
8.8799
2.20675
594.685
144.292
33.5594
7.52854
1.89301
227.723
60.9988
13.3145
3.74416
0.722542
127.871
504.519
4540.17
-833.435
749.532
803.273
2343.11
2999.65
1888.13
3541.61
2971.82
4583.48
3579.98
4443.23
1860.96
2506.81
1986.79
2356.56
1033.4
1074.48
2303.35
1685.5
526.262
-441.275
-738.225
-885.251
-255.293
12922.3
3133.83
4250.61
2761.16
-142.435
-11.3734
2983.57
-1370.39
-753.782
-1046.23
-539.585
7094.55
3749.71
1313.18
1075.25
3670.66
2043.08
660.33
1398.55
-1453
-830.206
723.028
578.81
8690.39
4307.63
5337.4
2864.11
4089.94
4479.54
1558.89
-860.247
951.754
1634.38
1342.09
1160.77
1049.25
808.091
1336.25
1078.01
845.642
597.858
258.2
462.715
385.196
293.408
187.329
65.3808
-394.074
-328.753
-245.266
-150.67
-50.7338
-659.636
-550.925
-411.827
-253.523
-85.4436
-792.137
-662.813
-496.486
-306.196
-103.305
-222.127
-177.58
-124.582
-71.3175
-22.702
9374.8
8142.11
6969.07
6409.91
5968.86
2787.17
2451.49
2288.32
1911.02
1010.79
3253.29
2593.78
2184.19
1712.71
896.137
2124.46
1713.39
1489.1
1149.32
482.888
5.57667
43.3453
149.729
160.919
79.9232
79.8526
155.177
191.393
166.011
70.303
2532.53
2116.25
1668.3
1163.07
478.346
-830.677
-406.07
-160.745
-30.0849
5.92796
-600.197
-427.434
-259.104
-123.976
-32.3365
-738.069
-458.743
-237.831
-94.1026
-19.9671
-488.808
-406.457
-297.186
-177.058
-57.6955
5264.29
4770.08
4134.19
3830.2
3586.41
2885.1
2278.1
1890.4
1437.03
702.392
1212.11
1092.57
923.495
661.465
261.426
947.36
810.841
652.016
447.591
170.312
3061.25
2469.81
1882.5
1252.43
483.047
1810.17
1536.57
1207.88
802.452
291.032
576.097
483.229
377.311
250.229
91.4482
1233.95
1033.07
792.437
509.937
179.601
-1260.6
-1017.49
-735.103
-440.028
-145.655
-730.539
-596.251
-432.369
-257.681
-84.6978
647.232
558.695
449.122
305.031
113.02
520.681
451.693
364.149
246.763
90.5184
5619.11
4108.85
3543.49
3270.51
2873.35
3291.4
2561.95
1981.81
1415.57
639.021
3930.91
3222.65
2609.44
2030.82
993.313
2289.64
1867.62
1455.94
1022.95
446.347
3482.59
2849.9
2178.13
1431.64
530.57
3393.05
2512.28
2036.15
1527.34
647.638
1362.57
1133.39
868.692
562.099
199.937
-763.59
-630.569
-463.751
-280.33
-93.1246
839.995
718.253
576.013
393.013
146.68
-27453.5
-44980.8
-22759.6
-36412.1
-24403.4
-51176.5
-29212.1
-64983.2
-17381.6
-11878.8
-19570.6
-12176.4
-16036.2
-10294.4
-19870.8
-10442
-22695
-17086.3
-33072.8
-23810.4
-19492.3
-15523
-27644.9
-20756.6
-15631
-15961.2
-12827.5
-12320.7
-15094.8
-14226.8
-38179
-10529.2
-14521.9
-5416.49
-46709.6
-12942.3
-12983
-4817.94
-28386.5
-8937.31
-14869.6
-5690.65
-25228.4
-7842.64
-11708.2
-4708.33
-14924.9
-5405.99
-11111
-4883.83
-12973.7
-4693.72
-11518.5
-5585.01
-10364.2
-4111.69
-13295.5
-4692.18
-4664.48
-1637.14
-9929.04
-6586.84
-8570.09
-5217.9
-8761.92
-7040.32
-7520.45
-5359.58
-8714.35
-4951.65
-10201.2
-6351.15
-5869.59
-3497.44
-3156.42
-1935.84
-5062.78
-3487.39
-2626.94
-1867.33
-5964.9
-3237.73
-3293.85
-1648.6
-7680.16
-3898.26
-4961.45
-5777.51
-9743.07
-6545.04
-6984.71
-9749.95
-5208.65
-2335.37
-2970.01
-3337.04
-2812.71
-1131.8
-1339.36
-1265.5
-11500.1
-13983.7
-6479.08
-15813.8
-11958.3
-13345.2
-7441.49
-16170.8
-12088.4
-12156.2
-8869.46
-15392.8
-8274.17
-6677.21
-9057.69
-10034.8
-10009.9
-9143.68
-10554
-12237.1
-13149
-18673
-6278.88
-6470.84
-7038.84
-8517.06
-13320.6
-13273.1
-9257.83
-16838.2
-12949.9
-12304.5
-9113.29
-16590.4
-12897.7
-10893
-8513.16
-15485
-12768
-7501.33
-5972.56
-7726.88
-6172.33
-8622.13
-6957.48
-9416.85
-7975.23
-14112.2
-12835.5
-7048.68
-6074.71
-7072.2
-6116.29
-7771.06
-7236.32
-9332.02
-9226.88
-13033.2
-13393.3
-6466.35
-5164.02
-4757.5
-6247.83
-8105.97
-11225.5
-6129.98
-10368.7
-4360.49
-5767.96
-6230.92
-5096.08
-823.318
-4115.22
-239.015
-1212.38
-2942.41
-7126.02
-647.07
-1987.24
-401.756
-3677.07
-139.035
-1136.4
-4483.71
-4468.4
-5165.05
-3105.19
-6944.48
-5398.54
-8358.98
-5493.43
-981.137
-2413.56
-2540.42
-1377.27
-1370.25
-1759.86
-2006.14
-1475.32
-5615.09
-1931.53
-7596.73
-2592.39
-5740.14
-2015.65
-7776.98
-2792.43
-5695.15
-1984.7
-8238.09
-3179.28
-3508.78
-982.959
-4365.35
-1677.77
-4920.8
-1912.74
-5918.75
-2243.51
-8696.08
-3466.6
-4473.73
-1353.01
-4001.84
-1988.99
-4823.59
-2308.34
-6513.77
-2856.76
-9011.41
-3409.42
-6056.34
-5683.21
-4548.78
-4478.54
-10147.5
-7760.2
-8235.21
-6827.52
-4113.85
-3589.26
-1680.74
-1214.49
-3874.12
-3763.38
-1543.61
-1618
-2914.55
-4580.18
-3477.72
-4950.22
-3741.8
-2437.89
-3162.83
-474.464
-6688.81
-1733.19
2602.91
459.573
-891.398
-252.275
264.211
706.94
-2456.63
-1754.15
-911.8
-552.026
-2607.7
-1857.92
-1360.27
-636.622
-2908.98
-2229.44
-1795.67
-876.022
-1152.74
-66.5777
674.102
1102.78
-5035.84
-5431.74
-3876.31
-3641.04
-6776.52
-6797.29
-5616.01
-4722.22
-2541.91
-2861.4
-3828.41
-4423.91
-2331.21
-2032.34
-961.478
-887.066
-3595.88
-2824.98
-1808.27
-1421.53
-1305.09
-1479.67
-201.761
-558.916
-1690.83
-1216.48
-2464.11
-1816.99
-2671.81
-2214.68
-3816.47
-2986.39
-593.652
-362.627
-1192.61
-709.036
414.085
541.41
-292.362
163.128
-3595.76
-4547.57
-3087.2
-4600.22
-3554.55
-4533.4
-3158.82
-4592.22
-3740.63
-4190.36
-3333.36
-4362.58
-2816.56
-4689.82
-2421.59
-2157.22
-2384.68
-7054.24
-5009.66
-4626.26
-4843.17
-5042.47
-5658.93
-4765.92
-4056.86
-3811.66
-3046.77
-5422.29
-5460.88
-7127.7
-11022.8
-5131.01
-4909.29
-6838.74
-10502.7
-4709.47
-4521.04
-6310.82
-9678.39
-6884.01
-5283.24
-6220.88
-4729.96
-5457.46
-4344.44
-5601.49
-5160.07
-5847.96
-8945.72
-5577.83
-5263.21
-4739.27
-4758.61
-4280.86
-4531.48
-4442.84
-5307.4
-4118.56
-7846.91
-3877.97
-2765.92
-2652.92
-957.143
-5573.22
-4885.7
-4318.65
-3178.33
-2058.99
-738.224
-3160.01
-2528.73
-3201.54
-968.002
-438.362
120.315
-3591.76
-2346.1
-630.042
-361.836
-2644.49
-710.105
-283.455
185.075
-1898.71
-1979.66
-2098.15
-3963.18
-2953.87
-3358.87
-3004.93
-5532.14
-2018.44
-1289.48
-1148.05
-2405.58
251.56
392.72
813.214
127.05
-3910.08
-1137.76
-7407.23
-744.184
-3653.09
-1225.7
-7200.89
-772.35
-2796.92
-739.924
-6545.95
-602.402
-2902.66
-647.909
-2676.71
-619.629
-2915.33
-884.968
-3060.52
-569.796
-6156.51
-782.159
-4047.45
-789.07
-3733
-597.249
-3799.05
-744.422
-4225.66
-624.497
-6466.05
-776.75
-767.362
-155.022
176.451
438.375
-257.51
-38.2905
68.4002
137.989
-755.57
-120.056
192.789
411.68
-173.924
36.0571
70.4553
79.918
-772.447
-79.3461
192.181
360.845
-4.0168
245.664
382.668
421.456
555.142
483.264
555.689
575.273
1014.4
722.687
557.405
408.391
-332.806
127.432
395.469
663.511
-269.539
180.522
312.636
663.71
-834.001
-63.7658
254.936
547.071
-637.135
63.5712
278.743
813.548
138.707
317.337
423.323
562.881
63.9672
282.443
315.842
477.7
592.436
494.334
412.905
327.416
415.465
386.862
318.343
300.856
-1221.42
-268.216
209.508
715.132
-1525.47
-318.43
73.9853
891.634
-1171.34
-231.207
227.811
728.519
-1466.83
-293.918
75.3418
881.905
-1088.93
-174.912
181.767
628.624
-1331.54
-247.336
42.0551
800.521
-722.356
-30.5289
164.91
451.608
-1377.54
-209.162
42.7223
993.884
-672.553
26.4725
191.183
628.216
-1419.67
-244.282
6.7337
626.648
-618.495
-93.5104
25.5986
158.784
-1325.91
-208.822
25.2979
629.089
-588.451
-81.8212
28.9384
156.354
-1136.07
-139.719
33.2152
610.429
-500.845
-52.8294
42.2705
163.17
-931.463
-82.465
16.4966
546.671
-409.568
-23.33
42.137
156.095
-679.902
10.4143
65.2279
468.011
-210.508
44.04
56.6654
151.819
-300.803
136.637
219.097
437.339
103.057
208.267
184.759
215.856
-559.086
38.3092
136.755
448.508
-17.8848
133.503
120.107
184.042
12.1363
241.968
266.265
395.167
223.529
267.431
229.836
228.925
323.14
330.157
273.107
282.999
345.395
310.148
241.199
210.188
97.8181
28.1081
11.4025
6.27392
4.51711
41.3342
13.4316
5.81912
3.26568
2.35302
114.077
40.6989
19.4907
11.511
8.47451
65.456
29.3561
15.6609
9.59737
7.13966
140.193
56.8481
29.3197
17.7013
13.0988
165.767
84.972
48.0161
29.8971
22.3432
183.927
98.1257
56.0724
34.9465
26.0596
205.326
120.382
71.2929
45.004
33.6534
167.633
74.8982
40.4924
24.8466
18.5452
142.07
66.0384
36.2191
22.2571
16.6099
151.331
61.5488
32.2436
19.5016
14.4613
124.599
61.3462
34.5552
21.3481
15.9695
180.06
85.9755
47.447
29.2635
21.8083
145.117
74.6434
42.2859
26.2673
19.6378
171.085
97.9246
57.6545
36.3303
27.1557
142.494
80.9731
47.5302
29.9086
22.3641
106.416
24.9543
9.19583
4.88359
3.47744
49.4298
10.0521
3.48622
1.79665
1.25481
114.458
32.2752
14.0193
8.01408
5.8208
52.3545
12.7232
5.26709
2.96755
2.12807
117.799
38.9326
18.7832
11.0982
8.10368
58.9063
21.2015
11.0198
6.75633
4.96706
130.495
54.3007
29.071
17.6376
12.9895
77.284
32.5663
17.8027
10.8951
8.02048
109.756
60.3957
35.1408
21.9616
16.4213
-1784.87
-3363.86
-1831.84
-3366.97
-1988.67
-3387.24
-2178.23
-3472.26
-2104.86
-3486.5
-825.708
-1287.8
-1373.5
-2142.49
-411.147
-608.911
-106.266
-166.292
-8588.95
-2032.14
-462.432
-102.689
-25.3734
-2311
-623.048
-165.073
-37.3339
-8.06391
-8441.58
-1984.88
-451.861
-99.5946
-24.8088
-2356.12
-694.997
-170.422
-39.4131
-9.73773
-7984.59
-1871.25
-425.403
-93.7923
-23.418
-2280.13
-669.471
-163.851
-37.7375
-9.36443
-7247.09
-1689.69
-383.861
-84.693
-21.1779
-2190.45
-631.876
-153.049
-35
-8.6496
-6049.38
-1405.46
-319.801
-70.7145
-17.719
-2040.75
-576.093
-138.442
-31.5225
-7.77765
-2890.69
-700.069
-161.775
-36.0124
-9.03737
-983.741
-281.556
-67.1575
-15.0443
-3.7079
-4284.34
-1024.31
-235.087
-52.1019
-13.0582
-1452.71
-411.778
-99.1369
-22.5868
-5.61636
-1700.23
-415.003
-96.2925
-21.531
-5.4114
-543.007
-161.695
-38.2555
-8.56045
-2.12936
-580.473
-140.884
-32.7406
-7.34066
-1.8448
-205.466
-55.1438
-11.9079
-3.42813
-0.644509
167.664
-1072.39
-5390.08
868.523
-6407.08
-2814.1
-6201.57
-2851.26
-11301
-6024.38
-12671.6
-6714.14
-130.994
-515.632
-809.376
-953.811
-855.278
-341.264
-214.777
-801.369
-1216.85
-1345.36
-1085.43
-367.501
-111.062
-118.687
-412.842
-415.53
-590.189
-583.946
-568.362
-538.851
-506.908
-487.257
-391.77
-354.552
849.345
2188.64
3547.88
2517.65
2313.88
1113.11
796.494
2277.7
3687.19
4273.92
3567.65
1624.92
-118.103
-99.8062
-75.6068
-47.1015
-15.991
-465.563
-394.16
-299.176
-186.682
-63.4353
-730.736
-618.609
-469.51
-292.964
-99.5526
-860.856
-728.486
-552.696
-344.771
-117.139
-771.813
-652.945
-495.146
-308.703
-104.845
-309.867
-263.446
-200.087
-124.497
-42.1595
-193.529
-163.437
-123.734
-77.0525
-26.1547
-723.112
-611.775
-464.056
-289.441
-98.3343
-1097.71
-928.422
-704.097
-439.126
-149.191
-1212.78
-1024.99
-776.864
-484.35
-164.539
-977.684
-825.603
-625.323
-389.726
-132.382
-332.149
-281.3
-213.342
-132.903
-45.0976
-100.204
-84.7571
-64.2658
-40.0643
-13.6063
-107.15
-90.6996
-68.8239
-42.9325
-14.5856
-372.891
-315.845
-239.839
-149.702
-50.8755
-375.383
-318.012
-241.527
-150.777
-51.2447
-533.03
-451.438
-342.767
-213.932
-72.701
-527.359
-446.592
-339.056
-211.602
-71.9075
-513.298
-434.69
-329.993
-205.913
-69.9632
-486.372
-411.617
-312.293
-194.794
-66.1751
-457.701
-387.396
-293.798
-183.111
-62.1622
-439.239
-371.127
-281.082
-175.068
-59.423
-354.053
-299.556
-226.632
-140.709
-47.6137
-319.333
-269.375
-203.514
-126.412
-42.8256
754.371
629.664
474.776
296.94
101.517
1935.84
1611.48
1215.03
762.184
261.874
3102.16
2565.81
1937.75
1228.51
429.517
2186.43
1804.53
1367.08
871.573
306.003
2041.43
1689.93
1274.36
798.408
259.886
1012.81
856.168
654.828
411.416
130.762
708.437
591.68
445.727
278.155
94.8844
2020.97
1685.24
1269.55
793.635
271.444
3251.63
2700.45
2034.05
1276.75
439.465
3744.17
3096.52
2332.81
1470.97
509.858
3125.18
2584.54
1948.9
1230.16
424.883
1438.77
1202.42
914.682
580.145
200.135
283.713
666.709
956.743
1095.15
987.308
477.428
427.128
1008.29
1409.77
1510.6
1208.93
449.846
231.153
219.965
529.109
514.114
697.036
674.238
658.067
609.126
588.732
501.601
529.793
399.667
-693.211
-1951.92
-3138.17
-1969.41
-1644.93
-381.502
-727.916
-2167.01
-3442.1
-3833.07
-2933.69
-869.387
256.624
217.753
165.667
103.57
35.2298
602.699
511.014
388.472
242.711
82.5344
864.638
732.866
556.95
347.894
118.288
989.53
838.542
637.132
397.922
135.29
892.39
756.466
574.879
359.054
122.07
434.463
370.655
282.841
176.842
60.0832
386.244
327.633
249.193
155.759
52.9782
911.054
772.053
586.642
366.414
124.583
1273.17
1078.32
818.96
511.361
173.844
1363.39
1154
876
546.839
185.895
1090.55
922.597
700.109
436.998
148.563
407.462
346.066
263.307
164.497
55.914
209.101
177.444
135.009
84.4059
28.7109
198.976
168.843
128.456
80.3034
27.3142
478.391
405.707
308.48
192.756
65.5479
464.843
394.219
299.743
187.294
63.6905
630.088
534.229
406.104
253.708
86.2657
609.427
516.646
392.689
245.305
83.4053
594.939
504.493
383.525
239.6
81.464
550.427
466.486
354.456
221.369
75.2562
532.628
451.938
343.68
214.697
72.983
453.166
383.941
291.623
182.061
61.878
480.649
408.817
311.242
194.37
66.0149
361.399
306.387
232.729
145.218
49.3259
-611.806
-507.266
-380.556
-237.524
-81.2284
-1720.06
-1426.6
-1073.09
-672.978
-231.515
-2725.81
-2240.23
-1685.48
-1068.99
-375.188
-1668.1
-1342.28
-997.188
-630.111
-221.253
-1402.3
-1115.8
-810.643
-491.415
-149.662
-311.914
-224.571
-142.815
-71.0905
-8.57391
-646.148
-538.581
-405.161
-252.735
-86.2323
-1920.82
-1600.26
-1204.99
-753.414
-257.82
-3027.66
-2507.99
-1885.82
-1183.32
-407.601
-3336.3
-2741
-2054.69
-1293.03
-448.463
-2533.48
-2064.07
-1537.63
-964.196
-332.168
-730.911
-577.118
-418.303
-257.721
-87.4143
-1410.99
-889.261
-222.571
699.386
1000.74
1272.39
603.839
-10749.3
-1658.13
-3098.3
-1483.77
279.569
-3944.98
865.549
2496.43
1193.04
-5824.33
-2634.64
-414.817
-518.433
-3315.11
-1229.16
-226.873
-988.338
2179.41
1377.4
-482.881
-132.156
-7661.14
-3549.81
-4206.64
-2023.41
-3479.75
-3268.66
-1040.12
1397.47
-344.332
-678.249
-444.295
-389.224
-497.536
-581.575
-545.145
-346.033
-235.499
-178.582
-100.13
-183.189
-142.984
-105.223
-67.7882
-24.3977
632.701
536.629
407.728
254.452
86.4601
902.556
762.747
577.547
359.489
121.947
1147.59
970.033
734.838
457.661
155.315
547.865
464.618
351.24
217.171
73.0945
-7680.79
-6847.55
-6153.86
-6227.62
-6514.02
-1054.36
-704.649
-836.072
-985.809
-704.534
-2162.82
-1586.38
-1377.38
-1214.27
-755.943
-945.988
-619.597
-574.515
-521.433
-236.34
258.567
211.566
140.493
65.6647
12.5304
-3284.33
-2685.2
-2064.95
-1405.69
-567.026
783.446
655.939
484.17
289.575
93.4158
2170.63
1773.45
1311.42
808.127
273.835
1070.99
898.016
673.338
414.925
139.385
-4050.96
-3755.7
-3400.66
-3480.01
-3685.41
-1796.63
-1279.29
-1087.92
-928.898
-543.153
-318.151
-263.726
-245.225
-217.396
-108.665
-413.949
-330.41
-267.137
-199.023
-85.2357
-2758.64
-2227.01
-1710.47
-1156.56
-457.014
-1030.05
-833.641
-643.754
-436.046
-163.832
-170.724
-125.681
-94.9472
-68.7851
-28.9613
-851.705
-697.726
-529.373
-342.044
-122.059
1945.81
1626.89
1220.75
755.222
255.194
1241.46
1046.29
787.937
486.819
163.974
-401.804
-324.814
-253.346
-174.683
-67.5863
-95.6622
-70.7515
-59.4753
-49.4092
-22.3245
-4649.15
-3232.38
-2839.48
-2837.68
-2796.01
-2567.8
-1908.3
-1452.43
-1066.87
-516.316
-2787.18
-2186.43
-1759.31
-1472.42
-778.774
-1487.14
-1142.8
-871.178
-640.973
-315.335
-2913.39
-2348.93
-1785.12
-1182.02
-445.998
-2248.42
-1466.74
-1204.28
-999.956
-471.323
-881.745
-713.684
-540.868
-353.576
-128.643
1261.44
1065.43
804.537
498.507
168.317
-262.455
-201.189
-163.146
-126.142
-54.6564
1.44983
44.2972
102.36
134.338
99.0229
-7.64039
-19402.1
-17125.1
-16344.3
-18628.8
-14213.7
-11249
-12817.7
-9729.78
-16793.6
-14703.2
-15471.8
-14537.1
-13574.4
-11557.8
-14263.1
-15955.6
-14258.3
-13125.2
-14804.6
-11982.4
-10147.4
-10725.7
-8602.04
-15051.6
-13355
-13865.4
-12615.9
-12003.7
-11215.3
-11562.1
-12519.1
-11471.3
-10387.4
-11365.5
-9952.38
-8543.36
-8959.89
-7700.17
-12590.9
-11415.7
-11719
-10670.5
-10191.6
-9427.54
-9681.95
-8732.04
-8214.02
-7329.38
-7772.67
-7368.02
-6606.75
-6658.26
-6098.49
-9054.56
-9138.16
-8541.79
-8605.06
-7614.05
-6880.01
-7633.75
-5579.75
-5332.32
-4718.68
-4923.87
-4934.22
-4467.26
-4397.3
-4067.14
-5992.6
-5982.19
-5725.24
-5590.18
-5210.26
-4705.94
-5084.34
-2007.93
-1936.29
-1707.78
-1768.48
-1823.17
-1704.62
-1612.26
-1504.54
-2274.04
-2266.03
-2126.58
-2023.2
-1958.51
-1797.47
-1921.5
-7411.73
-7311.01
-11033.4
-11892.5
-6984.84
-6208.94
-9684.05
-7878.93
-5861.25
-4429.69
-5820.19
-4389.66
-5852.4
-5592.38
-4453.58
-7394.55
-7021.57
-9818.29
-10707.3
-6526.05
-5917.03
-8543.26
-7368.3
-5850.69
-3943.2
-5750.01
-4154.3
-5262.6
-5056.15
-4520.5
-6768.53
-6459.16
-8329.55
-8929.78
-6079.66
-5667.93
-7460.2
-6613.9
-4875.32
-4323.28
-4864.11
-4544.24
-4555.51
-4552.68
-4691.96
-5488.48
-5292.02
-6250.95
-6562.08
-5034.21
-4717.58
-5794.24
-5298.1
-4713.62
-3932.95
-4636.78
-4179.06
-4347.38
-4307.04
-4240.44
-3804.04
-3690.27
-4139.39
-4294.68
-3434.3
-3185.32
-3904.65
-3591.49
-3330.99
-3048.84
-3255.79
-3191.92
-3051.86
-2989.31
-3028.78
-1419.32
-1378.14
-1514.22
-1563.57
-1276.2
-1174.52
-1436.68
-1324.98
-1091.41
-1120.42
-1165.7
-1213.95
-1132.61
-1096.89
-1107.62
7148.03
23110.4
5664.7
24198.4
4265.13
25047.8
6763.86
38667.5
8314.57
53178.7
8235.31
38691.7
7919.99
32080.3
8242.72
28046.9
4994.47
3081.14
13369.6
7918.57
4904.89
2642.43
14660.5
7275.01
5421.15
3911.21
17149.7
12042.6
4104.2
2944.01
17229.9
12486.2
9676.09
4081.54
8339.67
3706.67
3820.13
9011.6
33550.8
9099.91
12004.2
4071.43
43269
11760.3
11263.3
3909.51
23932.9
7430.06
12274
4287.98
20783.6
6610.8
5698.91
2825.98
8431.9
3278.02
6225.65
3368.37
8389.69
3208.56
7928.43
4513.35
7221.99
3127.11
10729.1
3847.71
3693.59
1287.03
12117.9
8373.28
7513.02
5480.1
13627.1
11205.6
7453.48
6450.37
7088.58
4765.94
9950.42
6620.71
4962.07
3641.3
2532.34
2075.04
4814.92
4159.34
2505.6
2414.51
4743.28
3096.86
2439.34
1559.58
6312.76
3424.72
4711.72
5708.65
8605.09
6119.72
6797.82
9743.65
4190.4
1980.02
2785.28
3275.94
2087.13
864.018
1206.33
1215.45
7476.31
13498.7
5081.55
15082.2
8841.74
13229.5
6302.66
15822.6
10072.5
12002.6
8137.27
15486.5
12068.6
14503.2
8983.33
8625.89
9464.15
14477.7
13266.3
12931.7
13207.9
19117.3
11764.5
8969.77
7699.99
8614.46
13575.1
15624.4
13932.8
18115.6
17339.3
14278.1
13203.5
17895.7
17005.4
12368.8
12031.5
16815.3
16409.1
10550
8249.21
9712.37
8413.93
10546.6
9356.78
11284.1
10765.1
15523.6
15814.7
9868.28
8504.57
9331.06
8878.66
9561.5
10036.5
10731
11952.7
14012.1
16096.1
8128.32
6376.59
5595.22
7138.93
11064.6
13513.1
7685.27
12179
4712.55
6219.05
7002.24
5762.91
1342.51
4744.13
706.67
1709.1
3931.68
8201.13
1460.7
2849.44
618.375
4003.23
356.148
1404.71
4616.69
4693.33
5245.51
3240.67
7293.8
5817.03
8578.85
5887.36
1058.34
2569.51
2599.31
1466.34
1457.67
1895.8
2067.61
1559.68
11056.4
6697.19
2103.87
12505.3
7162.3
2341.29
10572.4
6612.26
2224.81
12312
7162.64
2336.09
9730.01
6068.55
1990.45
12030.7
7206.04
2404.42
5354.44
2872.96
768.623
6790.09
4458.97
1550.14
8051.54
5550.83
1912.63
9279.76
5990.04
1985.36
11928
7413.82
2592.49
6380.73
3560.08
1120.44
6355.27
4562.72
1717.4
7503.96
5539.76
2029.06
9386.44
6575.81
2345.89
12059.2
7496.05
2653.69
303.711
2008.04
2847.81
4099.76
2163.61
2488.43
5442.42
5164.36
584.787
1024.88
623.321
1063.93
492.455
1418.09
875.601
1860.1
3238.93
1584.1
4085.75
2359.79
2182.02
3808.91
3403.84
960.032
6040.59
1493.84
-1863.65
761.059
1809.88
1363.41
1270.23
1187.37
9889.35
4581.07
2691.06
1688.45
10023.6
4769.43
3393.79
2143.88
9902.33
5137.04
4935.88
3503.57
3538.97
2571.45
1777.32
1707.24
12586.2
11202
5937.32
6167.99
13454.7
12637.7
6644.8
6706.7
5322.51
5486.55
10889
9125.86
3557.51
3721.45
2008.86
2272.89
4106.21
4081.68
2273.08
2429.44
3132.77
3374.26
1779.07
2170.04
4786.67
3407.64
4794.76
3473.65
7437.72
4498.46
7125.1
4803.09
2902.61
2471.92
3042.07
2251.73
1645.79
1562.4
1941.61
1325.31
11796.2
8344.33
6035.58
6228.11
11708.7
8523.42
6068.92
6197.93
12137.4
8820.42
6155.62
6017.33
13807.5
14795.6
12690
8595.35
5010.66
14020.5
13103.7
12309
10310.8
6858.86
13148.8
11982
9675.57
7559.66
4861.71
7215.29
6523.47
6820.39
7906.94
7404.13
6378.88
6875.25
7793.97
7663.85
6281.7
6922.74
7662.02
10582.7
7460.37
9989.77
6978.26
7987.1
6511.19
7597.89
6590.87
6411.16
7571.01
8787.39
7623
7862.47
6893.96
6817.02
6236.95
6145.37
6185.67
5066.99
7210.15
7028.85
4757.43
4676.13
2782.49
9095.25
7008.83
6334.49
5081.23
3873.42
2339.93
5619.71
4186.85
4739.18
2237.5
1745.86
1006.05
4978.77
3593.86
1750.04
1448.26
4142
1863.83
1639.48
868.342
3302.01
3088.53
2990.39
4432.44
4596.83
4417.84
3823.09
5694.91
3320.1
2194.31
2152.03
2994.84
1021.41
504.531
257.721
580.911
4543.52
1896.25
559.674
5277.58
1367.42
363.151
4572.48
2035.97
624.295
5248.17
1409.67
393.129
4233.52
1999.31
515.786
5141.03
1430.83
334.338
4583.14
2299.76
501.062
4230.84
2025.71
469.404
4245.16
2026.09
544.446
4299.58
2009.35
420.908
5110.31
1400.77
208.115
5838.25
2911.73
766.273
5358.43
2653.19
719.53
4968.61
2449
709.808
4811.36
2046.17
498.845
5531.13
1305.06
317.46
1800.54
647.837
125.73
-207.759
744.931
283.054
76.0615
-42.2094
1917.77
716.319
184.257
-127.545
956.696
399.785
192.168
89.6068
2062.77
798.823
280.292
-5.09942
1641.95
772.625
304.814
70.5888
1255.87
715.979
263.162
-7.99553
1185.96
786.171
466.227
280.434
1715.1
766.565
237.584
-182.663
1472.6
649.192
285.907
-184.711
2025.52
789.228
254.661
-133.831
1836.26
719.052
286.778
-304.416
1380.5
717.169
291.17
-57.5295
1134.29
576.706
310.944
3.22746
1026.09
636.385
383.46
238.398
785.647
490.577
331.272
197.466
2305.47
784.921
123.294
-411.588
2294.74
725.303
178.054
-562.628
2305.13
798.369
146.73
-390.52
2221.49
705.618
187.367
-543.368
2263.7
803.288
226.025
-277.24
2074.59
669.045
232.695
-444.274
1986.42
744.511
315.068
-36.0901
2276.32
750.908
330.048
-519.329
1779.96
668.072
317.582
-122.648
1829.04
513.723
161.783
-382.63
731.168
187.317
44.5712
-80.2548
1880.11
546.161
181.215
-361.565
756.7
201.247
57.3731
-64.4217
1914.51
586.752
226.156
-316.954
770.51
219.071
74.8324
-46.3571
1726.6
554.584
261.381
-249.399
747.894
226.799
103.174
-14.0431
1581.85
553.362
286.474
-144.105
669.105
239.947
141.585
30.2066
1107.52
450.055
221.515
-42.7354
631.34
315.763
194.088
103.744
1277.31
455.244
222.761
-103.895
635.899
273.631
168.215
67.4505
894.636
437.554
245.198
39.6728
568.564
333.918
214.885
139.252
634.716
399.052
275.119
172.623
476.942
333.804
236.862
180.56
-19.7409
7.3021
7.76673
5.50379
4.21374
-3.54181
4.91288
4.30889
2.97972