/*--------------------------------*- C++ -*----------------------------------*\
| =========                 |                                                 |
| \\      /  F ield         | OpenFOAM: The Open Source CFD Toolbox           |
|  \\    /   O peration     | Version:  2306                                  |
|   \\  /    A nd           | Website:  www.openfoam.com                      |
|    \\/     M anipulation  |                                                 |
\*---------------------------------------------------------------------------*/
FoamFile
{
    version     2.0;
    format      ascii;
    arch        "LSB;label=32;scalar=64";
    class       volScalarField;
    location    "2.3";
    object      gradTx;
}
// * * * * * * * * * * * * * * * * * * * * * * * * * * * * * * * * * * * * * //

dimensions      [0 -1 0 1 0 0 0];

internalField   nonuniform List<scalar> 
5712
(
-6565.43
-8391.3
-15605.7
-22776.6
-23229.6
-40105.7
-17872.8
-45536.2
-14564.6
-32000.3
-21776.3
-33118.2
-19550.4
-25618.7
-8594.19
-9822.15
-14618.4
-16741.2
-18917.9
-18760.5
-14902.8
-18427.6
-21972.2
-19724.8
-5329.72
-3994.99
-6631.45
-4450.32
-12346.5
-9850.65
-21101.1
-15257.8
-16359.3
-16990.5
-18135.7
-17255
-6327.81
-4974.01
-38764.5
-51899.3
-25037
-30742.7
-52183.4
-67705.3
-26995.1
-30903.3
-28712.5
-40567.7
-25044.9
-33207.6
-14634.6
-23614.1
-2797.72
-942.175
-2948.69
-1062.02
-8450.05
-3407.49
-11606.6
-4265.42
-8240.6
-3164.28
-8793.14
-2817.71
-15001.1
-4769.97
-19360
-6527.66
-23773.4
-11785.6
-21763.8
-12902.7
-22331
-14440.4
-19637.9
-14786.8
-17080.9
-10142
-17070.3
-8681.83
-22452.2
-14373.3
-22500.3
-14511.5
-20737.9
-15663.1
-20988.2
-15739.1
-18452.9
-11726.1
-19114.3
-12019
-17433.2
-7534.85
-8038.95
-9770.38
-17505.7
-8231.42
-7000.62
-9882.14
-18465.7
-7505.51
-9122.36
-9854.81
-19383.4
-7689.7
-9928.35
-10303.1
-3625.8
-3957.1
-1215.67
-2365.93
-10630.3
-11232.4
-4093.2
-7228.95
-13613
-15144.2
-6526.26
-11084.1
-12267.5
-1131.71
-13489.3
-16579.4
-8967.02
-793.804
-7481.26
-12095.2
-19457.9
-13400.7
-9790.93
-11858.1
-10327.8
-8880.2
-13912.3
-3494.88
-2890.03
-1993.2
-1978.99
-9865.33
-8350.24
-5916.14
-5632.02
-12335.1
-10492.6
-7729.36
-6941.79
-5870.76
-7456.71
-12094.4
-12516.6
-13956.2
-12706.5
-15730.5
-13721.2
-10569.4
-8891.94
-9026.26
-9550.7
-11901.3
-9467.71
-10822.5
-7948.99
-9348.48
-6503.56
-10842.5
-7131.97
-10210.5
-4858.14
-8750.72
-9527.76
-12528.3
-16392.1
-13777.2
-20086.4
-6951.34
-7763.7
-9035.46
-2993.45
-7792.65
-15052.3
-7389.49
-16123.2
-13637
-24785.2
-13873.4
-26287.2
-5875.77
-12907.5
-5333.33
-13741
-8105.25
-6172.61
-11247.8
-4493.39
-8371.31
-1771.2
-9823.85
-856.352
-7777.91
-9210.88
-11779.2
-5463.06
-6425.69
-10847.2
-10415.9
-7156.57
-2312.22
-2047.03
-1844.48
-1658.25
-1527.87
-1374.47
-6861.05
-5676.2
-4946.58
-4388.07
-3563.32
-3112.86
-8451.47
-7339.79
-6802.46
-5289.93
-4356.77
-4134.6
-6591.53
-5878.17
-5750.53
-10953.9
-8411.51
-7119.58
-10269.9
-7670.97
-6263.36
-10792.5
-8595.27
-7508.44
-6636.41
-4421.76
-3472.8
-15763.4
-13745
-11971.2
-10087.5
-8467.13
-7087.68
-8909.74
-6995.28
-5638.61
-7441.01
-5431.77
-4219.46
-7586.42
-4260.64
-2433.74
-10305.9
-13977.4
-8139.61
-10534.5
-11058.8
-16266.1
-9869.32
-14391.5
-45.6224
-734.445
500.596
-102.573
-2960.22
-3357.5
-1222.99
-658.208
-688.177
-2403.16
-9361.7
-13685.3
-6644.32
-3629.79
-9823.84
-9749.71
-15105.1
-16635.5
603.033
4096.68
-7531.26
-7101.4
-7125.8
-5498
-1027.21
-548.501
-660.218
-262.544
-1994.05
-218.11
352.675
855.84
-9217.24
-2418.5
-6216.17
-1633.86
-8977.76
-2747.87
-10869
-3517.85
-8771.03
-11888.1
-8119.38
-11604.6
-14050.7
-14909.2
-13419.6
-14131.4
-5648.14
-9454.01
-6513.78
-9385.8
-8617.55
-11186.3
-9508.79
-11310.2
-13983.8
-13887.7
-14645.7
-13954.2
-5703.38
-9157.4
-6208.1
-9335.89
68.581
-1434.68
-7525.1
-4828.65
639.738
-1017.57
-6972.17
-4274.04
-386.44
-1686.96
-7700.71
-5258.78
-844.216
-1961.01
-7752.41
-5454.6
686.003
793.345
-175.14
-28.214
2908.97
2954.24
195.533
350.327
567.804
1972.81
-1747.93
-1103.91
10254.6
9519.51
5570.14
4251.6
386.803
10449.1
10809.5
4333.33
6394.62
772.954
-10175.5
-8029.54
-7209.03
-6837.88
-4263.79
818.065
768.414
22.7895
-88.8249
2586.56
2577.93
64.2408
-198.44
2599.32
3199.64
-771.401
-1128.57
5137.68
2363.33
8206.69
5191.08
3665.95
2812.2
4131.81
3624.9
-546.767
-1538.57
-3747.98
-2369.3
-1032.09
1042.71
-1043.31
755.321
-1814
-456.697
-2285.91
-2629.65
-5250.75
-4818.51
-9978.98
-6036.75
-8100.55
-8186.2
-12301.5
-9985.19
-7954.45
-4722.92
-3995.13
-3988.04
-11759.7
-5213.09
-12936.6
-5845.54
-13719.8
-10190.6
-14642.8
-10918.5
-9635.76
-3860.16
-10793.1
-4470.03
-6406.07
-5155.29
-5098.23
-7570.69
-4183.14
-4746.51
-4373.49
-7021.86
-7376.65
-5112.86
-5753.24
-8685.52
-8932.45
-5558.18
-7148.67
-8973.77
798.89
864.6
977.309
14.4341
301.553
341.426
2918.09
3132.12
3143.47
203.406
865.314
875.205
3679.44
4154.19
4283.57
-656.768
836.732
1145.98
1289.72
1109.33
808.322
3874.01
3983.22
3728.91
3176.18
3623.12
3577.42
3929.9
4274.54
4190.88
-1457.18
365.179
509.348
-3438.04
-1947.11
-1016.65
1064.56
2237.93
2865.35
1008.65
2524.71
3187.75
425.671
2081.37
2561.22
-2474.85
524.449
884.187
26.909
41.2688
54.9672
83.726
273.004
157.728
133.486
131.814
5.25653
81.0756
191.62
301.172
443.974
291.286
330.661
361.859
-236.964
32.2909
273.343
535.688
162.007
239.389
313.992
362.303
38.0706
144.867
153.366
152.464
-219.142
-4.86538
127.223
218.233
-977.693
-198.982
108.919
330.324
-1532.56
-355.44
11.2738
565.189
-683.757
-82.4475
193.157
481.996
-1261.36
-270.119
-7.96635
495.184
-1040.2
-238.698
135.204
414.971
-1717.83
-423.312
9.30758
664.107
-1161.48
-318.14
123.064
493.226
-1851.1
-485.391
-13.0552
694.626
6.64556
24.036
47.733
104.963
36.5649
32.899
29.1377
96.1969
67.3299
82.391
147.058
283.228
164.182
111.723
89.9725
260.134
-423.524
-50.1427
162.317
484.307
-197.554
30.1787
120.071
459.625
-92.9035
123.728
239.3
483.765
-29.7723
99.1497
103.226
463.813
-1088.47
-206.492
32.8788
647.129
85.7371
46.4142
34.7273
72.7987
166.302
68.0114
36.3802
33.8836
173.706
110.25
77.1341
187.724
423.495
180.752
91.9346
87.2442
95.0187
122.452
107.653
309.199
532.154
253.969
138.818
137.712
-111.053
111.183
135.882
429.907
410.05
274.236
165.444
175.403
-575.909
13.8983
73.9629
413.582
105.884
236.405
153.812
180.255
-1265.14
-125.489
61.6555
478.752
-411.571
59.8914
99.2547
168.794
-982.512
-36.7054
72.9941
446.346
-251.806
138.688
131.377
182.431
-1526.06
-235.65
24.8434
519.523
-556.718
-18.347
65.2687
157.992
-1722.49
-345.901
-27.0033
512.912
-691.776
-104.192
20.1758
136.601
37.1575
16.6346
8.70657
5.19751
3.8017
49.0015
25.5723
14.3215
8.78341
6.47404
88.7328
38.7389
20.2267
12.1407
8.95027
111.111
57.3594
32.1706
19.8379
14.6768
117.688
48.5346
25.0251
15.0077
11.0953
149.631
76.1483
42.8187
26.558
19.7227
78.6202
39.0532
21.866
13.5887
10.0989
55.6504
22.8543
11.7131
7.07356
5.20557
118.508
49.7283
26.1343
15.8661
11.6954
56.5278
20.3414
10.0692
5.98188
4.37606
124.824
57.8519
31.8091
19.6084
14.5428
53.3538
20.2354
10.3258
6.18416
4.51949
91.1385
32.4692
15.8119
9.36504
6.86091
53.5477
18.1703
8.81857
5.23673
3.83985
78.9854
20.7922
8.14887
4.40583
3.11134
43.616
9.81936
3.50789
1.8199
1.2614
30.9611
12.5458
6.32483
3.69737
2.68051
22.3427
9.94537
5.24271
3.10752
2.26071
75.617
31.5156
16.2984
9.6681
7.07412
57.6983
26.2201
14.0661
8.41778
6.14888
106.096
38.8661
19.2732
11.2688
8.22131
78.4037
36.1776
19.6218
11.7854
8.66893
95.6903
44.4846
24.5898
15.0901
11.2024
53.3965
27.5729
15.4656
9.40773
6.98874
49.694
24.4732
13.8417
8.58771
6.37839
-338.043
-458.699
-761.48
-1123.09
-795.857
-1405.89
-278.024
-1144.18
366.372
-217.844
-730.736
-1217.79
180.267
103.005
-1135.03
-1793.35
-1432.78
-2044.66
-608.647
-141.137
-31.7555
-7.00615
-1.7551
-208.188
-92.222
-13.1034
-3.44954
-1.48822
-1869.73
-431.628
-97.4483
-21.3935
-5.36618
-498.457
-133.209
-32.1713
-6.75033
-1.80765
-3143.98
-727.312
-164.629
-36.2569
-9.07392
-788.858
-224.978
-54.2468
-12.5177
-3.13243
-4224.28
-980.106
-222.73
-49.1955
-12.3252
-915.363
-282.301
-70.2837
-16.4092
-4.09917
-5285.87
-1238.54
-283.381
-62.8986
-15.8221
-1006.37
-341.711
-87.6417
-20.7398
-5.24266
-6282.89
-1517.68
-352.037
-78.7876
-19.904
-1544.05
-472.529
-116.598
-26.7468
-6.68846
-5841.76
-1405.91
-324.679
-72.3672
-18.2259
-1205.67
-401.419
-102.006
-23.8562
-5.9724
-6486.96
-1569.57
-364.782
-81.7681
-20.6879
-1745.73
-517.399
-125.83
-28.4691
-7.10156
-6764.41
-1623.07
-377.761
-84.6406
-21.4023
-1809.22
-538.121
-132.063
-27.7618
-7.32827
-508.607
-6879.41
-6278.31
-2250.57
1630.62
2781.95
7757.13
11338.2
1746
8325.61
-1602.7
2591.5
2492.01
4911.74
9259.95
13102.4
14011.8
17582.4
5720.35
7407.69
-19793.7
-14330.7
-4818.35
-3793.22
-2729.45
-3905.02
-3623.14
-12212.9
-11754.5
-10011.5
-10895.1
-9034.18
-6465.3
-8398.45
-5601.43
-4743.46
-5778.83
-3968.05
-19769.5
-10334.1
-3689.15
-6280.01
-8479.64
-5935.33
-6499.43
-4843.33
-2960.76
-4189.77
-4434.56
-4790.59
-19476.3
-12806.2
-12186.9
-8821.21
-8786.85
-9210.38
-4001.72
-5287.19
-6670.93
-14189.8
-12377
-10518.6
-9866.94
-8622.66
-9334.82
-6425.37
-5038.94
-3922.15
-2047.18
-4255.56
-3530.52
-2647.2
-1650.39
-564.791
-3388.19
-2836.99
-2135.05
-1326.84
-450.701
-2424.34
-2015.48
-1505.01
-928.992
-314.237
-3492.08
-2924.81
-2198.48
-1362.9
-461.797
-3216.15
-2674.7
-2001.03
-1238.93
-420.256
-7885.1
-6084.93
-4830.44
-4557.16
-5004.68
-6448.62
-4776.34
-3443.77
-2898.5
-2046.15
-6254.78
-3760.32
-2625.94
-1854.21
-903.58
-5606.4
-3794.37
-2544.61
-1875.3
-1118.43
-4221.19
-2641.85
-1654.64
-1159.64
-573.593
-5119.54
-3826.38
-2646.82
-1585.41
-546.774
-5714.69
-3667.61
-2403.32
-1446.46
-544.842
-3675.68
-2192.09
-1313.2
-712.335
-241.307
-3909.63
-3018.62
-2126.89
-1273.69
-430.184
-4613.52
-3444.38
-2349.6
-1370.07
-455.486
-3305.19
-2572.41
-1817.06
-1083.41
-362.31
-13132.8
-10080.6
-8236.57
-7444.47
-7212.01
-7622.98
-5539
-4077.49
-2792.9
-1270.87
-3071.41
-2404.92
-1724.76
-1053.75
-363.798
-5322.15
-4256.14
-3121.72
-1947.5
-684.826
-6957.28
-5473.04
-4041.81
-2613.07
-994.562
-5054.77
-4077.11
-3027.2
-1914.89
-681.249
-5629.38
-4601.79
-3435.13
-2161.16
-755.606
-4215.78
-3447.95
-2558.83
-1589.88
-545.989
-2553.15
-2057.4
-1496.15
-908.665
-305.822
-3688.97
-3040.46
-2256.21
-1389.34
-470.339
-3773.28
-3007.63
-2176.7
-1326.09
-450.608
-4149.69
-3372.76
-2485.36
-1534.09
-524.55
-13614.1
-11364.7
-9595.25
-8678.39
-7694.56
-8915.32
-6410.98
-4979.04
-3736.19
-1930.12
-9020.29
-7179.47
-5512.99
-4122.37
-2028.1
-6950.71
-5289.75
-4003.36
-2745.57
-1129.07
-7339.08
-5881.09
-4407.71
-2873.01
-1085.1
-7199.35
-5435.12
-4086.63
-2790.34
-1133.86
-3436.9
-2781.55
-2056.63
-1285.19
-448.055
-4660.1
-3851.17
-2871.49
-1778.83
-605.212
-5743.86
-4663.67
-3460.71
-2168.41
-755.989
-5523.98
-11240.1
-11728
-32085.8
-11571.5
-42981.8
-6307.08
-15291.8
-11584.4
-8948.74
-19218.9
-16030.3
-11568.1
-10896.1
-21579.4
-17097.8
-4064.13
-3017.63
-7856.39
-5394.98
-9109.71
-6862.78
-24413.4
-18028.2
-15019.9
-11409.7
-15434
-9180.01
-1186.13
-3709.66
-40000.9
-52399.6
-24195.4
-30594.7
-52908.3
-67996.5
-26070.7
-30679.6
-29789.7
-41120.3
-24279.9
-33147.2
-16085.1
-24299.1
-1938.09
-510.709
-3401.06
-1160
-6592.64
-2940.27
-13366
-4824.15
-2903.58
-1645.32
-7261.64
-2281.57
-15023.4
-4717.46
-19534.7
-6576.25
-16374.5
-8474.47
-18850.7
-11206.5
-14942.9
-10684.9
-16752.2
-12987.6
-15034
-8795.91
-11903.4
-6139.66
-21324.3
-13607.5
-22217.8
-14301.7
-19589.3
-14881
-20681.3
-15526
-17697
-11102.2
-18934.9
-11846.5
-16445
-7252.94
-7154.94
-9428.82
-14719.1
-7412.04
-5356.42
-9259.61
-18197.5
-7433.58
-8709.63
-9686.53
-19350.2
-7683.43
-9811.69
-10253.9
-1115.35
-1001.91
-269.43
-1185.36
-4530.22
-4680.93
-2829.91
-5606.38
-2531.98
-3156.7
-4391.56
-8296.75
-12036.5
-9667.56
-9296.12
-11589.5
-7626.13
-7617.93
-8140.97
-6843.3
-13413.7
-11621.1
-11463.5
-9583.69
-6643.49
-5695.96
-12505.6
-1080.34
-810.84
-602.265
-675.47
-4210.19
-3345.71
-3560.54
-3137.76
-604.731
516.436
-4206.27
-3303.3
-10141.4
-10771
-9474.72
-8670.5
-7035.89
-5111.45
-9200.43
-7330.64
-8215.24
-6435.7
-11531.6
-11743.5
-9853.26
-7718.89
-7281.77
-4956.02
-6413.75
-4069.06
-9564.89
-5825.36
-9269.36
-5076.75
-8263.91
-9423.08
-13025.5
-17333.5
-13737.7
-20060.5
-6324.29
-7521.4
-7677.95
-2886.96
-7614.6
-14910
-7347.13
-16068.9
-13571.8
-24884.4
-13848.8
-26268.3
-5638.43
-12732.2
-5276.56
-13686.9
-7639.7
-6020.56
-11054.3
-4483.23
-7359.77
-1803.32
-9513.35
-1232.04
-7591.59
-9100.25
-11691
-5443.5
-6376.38
-10810.9
-10391.9
-7143.54
-799.433
-743.145
-542.154
-626.369
-2551.98
-1865.85
-2308.7
-2100.41
1077.3
593.116
-2705.78
-3005.83
-10661.7
-10119.9
-7677.67
-6635.05
-4062.95
-3427.86
-5749.54
-4746.64
-5410.7
-3952.63
-18267.5
-16009.2
-7956.4
-6785.71
-6028.38
-4601.31
-4975.87
-3208.36
-5297.38
-2312.67
-5594.69
-9202.71
-4904.31
-9313.6
-8291.34
-10367.8
-9302.16
-12675.3
-994.395
-726.61
-777.722
-664.523
-3638.66
-2609.85
-2984.44
-1691.33
-1416.22
-1689.57
-8336.65
-8958.93
-4695.89
-4245.13
-9312.8
-9634.99
-14284.2
-16406.9
346.472
3897.47
-7361.45
-7129.12
-7038.38
-5551.27
-1078.53
-978.697
-1171.23
-967.505
-1758.42
-1208.05
-631.095
-539.714
-8150.08
-3815.2
-6926.27
-3201.38
-9284.02
-3689.25
-11002.1
-3903.81
-5405.5
-10259.1
-6994.46
-10740.2
-8651.65
-11632.1
-11344.4
-12609.8
-5262.97
-9270.63
-4770.94
-9232.51
-8164.92
-10833.4
-9376.13
-11217.3
-13114
-13252.5
-14398
-13782.4
-5626.57
-9111.86
-6199.83
-9333.5
-556.321
-2286.17
-7964.09
-5503.51
-536.674
-2366.85
-7890.14
-5270.51
-854.462
-2287.32
-7946.7
-5673.21
-1037.63
-2203.15
-7826.43
-5597.59
-1081.23
-1188.25
-1017.74
-1104.86
-2112.83
-2165.05
-1462.37
-1591.95
-8418.12
-7756.38
-3974
-4018.26
-3762.19
-5223.91
-4075.36
-336.46
-1882.63
-1321.94
-1410.38
-3610.91
2632.2
-934.229
-13750.6
-11732
-10665.9
-9335.3
-5914.86
-1196.16
-1081.12
-1249.78
-1563.42
-2147.73
-1688.53
-2049.85
-2727.12
-8114.02
-8018.53
-4455.7
-5779.91
-5043.94
-6707.11
-3181.84
-5110.18
-4874.9
-5319.66
-1198.95
-1565.93
-3009.37
-4488.26
-9660.78
-7945.71
-7651.15
-5628.76
-6728.19
-4813.43
-6025.28
-4410.66
-4501.91
-4968.39
-8380.79
-8286
-11280.7
-7292.66
-10419.9
-11194.4
-13047.2
-10988.8
-9527.2
-5943.53
-7024.15
-7024.04
-12274.7
-5996.62
-13070.6
-6036.56
-13928
-10843.2
-14684.6
-11059.2
-10363.4
-4627.72
-10998.8
-4675
-7906.23
-6266.63
-6433.24
-8825.73
-6765
-7202.45
-6299.54
-9060.01
-8163.29
-5840.82
-6513.6
-9487.27
-9178.72
-5787.57
-7395.03
-9203.55
-874.926
-753.106
-1129.81
-826.729
-1437.49
-1704.98
-1667.6
-1214.14
-7845.9
-6869.05
-3873.97
-1722.96
-7879.23
-7481.42
-6153.05
-5535.29
-5159.07
-4421.35
-1886.4
-1934.47
-4278.42
-1924.23
-8643.31
-7410.69
-4906.97
-3884.46
-3833.31
-2403.18
-2856.47
-1239.7
-4460.04
-110.614
-240.722
-111.043
-38.2389
24.4929
-226.764
-142.668
-52.1848
12.6863
-650.361
-289.224
-13.0574
182.822
-588.408
-342.123
-51.23
116.801
-1063.76
-427.995
28.6825
418.642
-1050.06
-517.949
-178.757
16.3217
-721.419
-349.159
-172.279
-55.5298
-552.729
-229.121
-21.6519
120.109
-1589.03
-559.939
-130.362
152.801
-1892.04
-539.739
-92.727
542.694
-1526.25
-538.683
-87.7252
282.833
-1718.66
-485.914
-121.261
494.966
-1484.47
-515.505
-39.7324
310.466
-1960.34
-555.882
-73.735
630.568
-1343.93
-435.832
47.3713
446.691
-1939.86
-536.061
-45.2792
681.852
-223.389
-91.0158
-13.841
76.0011
-192.412
-69.4207
-28.2962
72.7382
-576.299
-238.018
-22.1298
196.346
-483.949
-183.073
-74.9178
187.952
-1137.87
-397.201
-9.23851
425.165
-1034.66
-346.306
-85.1347
389.417
-1264.43
-470.89
-90.0595
313.743
-955.743
-328.575
-115.271
434.415
-1732.41
-485.612
-105.667
685.205
-138.783
-52.0357
-15.9505
47.2493
-63.5598
-36.4749
-16.8902
-0.0927897
-418.205
-150.435
-64.9977
113.051
-210.397
-109.112
-59.3417
-8.68977
-742.711
-250.233
-98.754
204.202
-429.143
-191.329
-93.1834
-7.62508
-1130.08
-360.55
-125.48
308.871
-752.587
-282.124
-123.949
-2.26219
-1489.52
-432.971
-194.447
264.356
-1016.36
-341.158
-163.082
-23.1869
-1993.15
-561.305
-207.563
329.863
-1008.63
-316.822
-133.517
14.0396
-1920.46
-551.029
-237.503
274.709
-1115.2
-353.119
-156.853
-10.2249
-1967.74
-513.924
-150.405
425.308
-904.076
-254.997
-82.7991
63.8914
-1867.53
-439.982
-86.9413
480.605
-800.759
-181.306
-28.6191
105.853
-6.81852
-11.2562
-8.16966
-5.51752
-4.21536
-29.5613
-21.9489
-14.0897
-9.20347
-6.97608
-13.38
-25.6679
-18.6629
-12.5368
-9.5109
-63.9361
-48.5814
-31.2059
-20.3011
-15.345
-7.63143
-30.8714
-22.889
-15.3911
-11.6466
-83.4721
-63.8958
-40.7928
-26.3768
-19.8698
-40.4985
-32.0271
-20.5335
-13.2552
-9.98167
-5.45476
-13.681
-10.1179
-6.76952
-5.16931
-19.1183
-33.5463
-23.6707
-15.6785
-11.9014
5.05051
-11.2728
-8.88796
-6.03024
-4.61046
-50.4251
-46.241
-30.0624
-19.5087
-14.7032
-1.45224
-12.983
-9.51507
-6.37296
-4.87065
11.7761
-16.0753
-13.3182
-9.10717
-6.96698
8.71581
-9.04621
-7.46028
-5.07738
-3.8819
42.6716
-1.51213
-5.29224
-4.15822
-3.34197
28.5869
0.523619
-2.10099
-1.75923
-1.44342
-0.366406
-7.90854
-6.08115
-4.17858
-3.21124
-6.68392
-7.78395
-5.32786
-3.57265
-2.7308
-9.89422
-22.3126
-16.0281
-10.8016
-8.22911
-23.2971
-22.1317
-14.5899
-9.66426
-7.35756
8.65865
-24.1128
-18.7004
-12.8018
-9.77973
-38.5189
-32.3273
-20.8141
-13.7122
-10.3751
-46.3665
-38.4782
-24.4302
-15.8461
-11.9137
-42.9587
-27.1324
-16.6293
-10.8065
-8.10585
-32.4489
-22.2916
-13.6716
-8.76244
-6.58517
-61.9659
-202.578
-112.256
-517.035
-57.4509
-713.798
228.832
-644.862
495.493
-101.328
-767.988
-1256.62
103.323
-66.3614
-1154.71
-1804.39
-1438.42
-2046.75
-585.846
-138.356
-31.306
-6.92193
-1.73527
-156.612
-85.3986
-11.9318
-3.27432
-1.4615
-1810.61
-424.014
-96.1836
-21.1519
-5.30871
-376.545
-114.543
-29.307
-6.31225
-1.73324
-3053.44
-714.581
-162.435
-35.836
-8.97466
-651.569
-203.188
-50.7816
-11.9674
-3.03396
-4119.24
-963.446
-219.689
-48.601
-12.186
-819.88
-265.396
-67.3564
-15.9054
-4.00336
-5193.76
-1221.07
-279.882
-62.1854
-15.653
-979.926
-333.492
-85.8153
-20.3736
-5.1656
-6242.86
-1507.09
-349.52
-78.2275
-19.7651
-1549.53
-472.247
-116.319
-26.6606
-6.66444
-5783.18
-1391.3
-321.397
-71.6641
-18.0564
-1215.58
-399.335
-101.174
-23.6485
-5.92364
-6463.22
-1563.19
-363.219
-81.4129
-20.5982
-1746.88
-517.184
-125.704
-28.4327
-7.09141
-6756.49
-1620.95
-377.231
-84.5186
-21.3714
-1809.17
-538.002
-132.019
-27.7536
-7.32563
-527.368
-6803.99
-6023.85
-2203.32
-1565.24
-934.801
-3683.28
-2689.55
-6368.28
-5956.41
-3029.35
-2286.39
-401.185
-613.233
-1049.93
-1699.43
-2535.85
-3476.33
-289.154
-619.808
-1286.34
-2232.66
-3348.35
-4471.03
-305.375
-140.755
-523.394
-358.443
-961.837
-799.617
-1600.43
-1488.36
-2290.83
-2207.21
-2983.86
-2701.35
-4280.68
-4803.77
-5190.81
-7675.52
-8554.78
-9401.99
-5391.65
-5894.33
-5832.87
-5295.25
-4513.28
-3932.55
-362.472
-307.12
-233.299
-145.67
-49.5168
-553.71
-468.812
-355.874
-222.086
-75.4718
-947.331
-801.416
-607.888
-379.159
-128.819
-1531.75
-1294.34
-980.808
-611.379
-207.662
-2281.9
-1924.94
-1456.67
-907.339
-308.127
-3119.62
-2624.51
-1982.29
-1233.9
-419.082
-261.125
-221.149
-167.919
-104.81
-35.6183
-559.366
-473.348
-359.138
-224.043
-76.1219
-1160.09
-980.93
-743.752
-463.789
-157.556
-2011.38
-1698.82
-1286.88
-802.064
-272.431
-3011.46
-2539.22
-1921.1
-1196.69
-406.454
-4010.95
-3373.78
-2548.51
-1586.93
-539.18
-276.014
-233.927
-177.742
-111.005
-37.7423
-127.227
-107.831
-81.9337
-51.1698
-17.3983
-472.773
-400.428
-304.062
-189.799
-64.5119
-323.819
-274.313
-208.327
-130.052
-44.2056
-868.232
-734.833
-557.601
-347.883
-118.21
-721.934
-611.143
-463.825
-289.404
-98.3417
-1443.19
-1220.06
-924.825
-576.567
-195.844
-1342.26
-1134.81
-860.193
-536.228
-182.127
-2062.36
-1740.4
-1317.19
-820.36
-278.534
-1987.06
-1676.61
-1268.51
-789.703
-268.039
-2678.11
-2252.82
-1700.67
-1057.76
-359.02
-2424.1
-2038.01
-1536.94
-954.731
-323.742
-3823.5
-3203.18
-2413.67
-1502.53
-511.086
-4254.68
-3540.26
-2660.76
-1660.58
-568.045
-4525.15
-3723.36
-2792.91
-1759.27
-612.555
-6484.73
-5241.85
-3945.37
-2557.96
-942.27
-6832.19
-5378.6
-4090.89
-2800.48
-1162.35
-7188.46
-5557.15
-4262.56
-3037.23
-1367.58
-4818.22
-4039.06
-3045.66
-1897.02
-645.397
-5236.43
-4368.83
-3288.55
-2051.96
-700.626
-5133.27
-4253.61
-3197.54
-2005.18
-690.703
-4583.55
-3758.37
-2825.72
-1794.51
-632.171
-3779.54
-3042.42
-2295.74
-1501.32
-559.798
-3174.52
-2505.65
-1899.85
-1284.16
-509.358
-422.428
-678.367
-1162.98
-1866.14
-2764.67
-3755.84
-318.945
-711.074
-1442.69
-2454.45
-3622.9
-4761.24
-325.78
-158.252
-586.27
-413.518
-1072.55
-900.242
-1768.09
-1646.73
-2534.82
-2481.32
-3299.42
-3115.04
-4571.93
-5074.94
-5440.1
-7827.75
-8622.3
-9422.93
-5639.54
-6043.74
-5861.81
-5225.22
-4412.26
-3886.29
-381.776
-323.593
-245.906
-153.59
-52.2181
-612.945
-519.403
-394.629
-246.452
-83.7868
-1050.29
-889.513
-675.509
-421.743
-143.364
-1683.98
-1425.02
-1081.46
-674.947
-229.409
-2491.67
-2105.89
-1596.74
-996.163
-338.585
-3377.68
-2849.01
-2157.57
-1345.84
-457.626
-288.199
-244.245
-185.588
-115.907
-39.4035
-642.34
-544.192
-413.39
-258.143
-87.7564
-1302.47
-1102.75
-837.247
-522.661
-177.663
-2213.89
-1872.66
-1420.78
-886.625
-301.36
-3263.19
-2756.41
-2089.27
-1303.36
-443.037
-4278.87
-3606.85
-2730.5
-1703.18
-579.213
-294.533
-249.715
-189.814
-118.582
-40.3256
-143.103
-121.354
-92.2636
-57.6497
-19.6073
-529.914
-449.189
-341.381
-213.245
-72.5102
-373.836
-316.961
-240.941
-150.528
-51.1877
-969.002
-820.998
-623.688
-389.474
-132.411
-813.5
-689.416
-523.841
-327.166
-111.233
-1596.26
-1351.45
-1026.01
-640.456
-217.699
-1487.03
-1259.26
-956.18
-596.911
-202.899
-2285.99
-1933.24
-1466.41
-914.951
-310.964
-2238.46
-1893.59
-1436.55
-896.302
-304.6
-2969.46
-2506.29
-1898.56
-1184.1
-402.504
-2805.33
-2368.92
-1794.69
-1118.99
-380.218
-4095.81
-3443.53
-2604.08
-1625.6
-553.767
-4514.04
-3774.83
-2851.04
-1786.01
-612.12
-4772.57
-3955.28
-2987.37
-1891.16
-659.975
-6660.72
-5426.79
-4116.2
-2684.29
-991.749
-6933.73
-5497.01
-4209.9
-2897.25
-1205.75
-7226.05
-5602.61
-4309.84
-3077.44
-1386.64
-5050.09
-4243.86
-3208.06
-2002.07
-681.853
-5381.11
-4501.47
-3397.6
-2124.61
-726.308
-5170.08
-4295.61
-3238.41
-2035.88
-702.39
-4531.19
-3724.48
-2808.86
-1789.61
-632.19
-3697.53
-2980.78
-2255.87
-1481.65
-555.216
-3136.53
-2476.38
-1880.32
-1274.21
-506.983
-19732
-14386.6
-5198.12
-4204.48
-3200.86
-4498.52
-4115.6
-12979.8
-14624.4
-11575.8
-13360.5
-7967.93
-11333.1
-6104.87
-6369.04
-4660.76
-20446.7
-11338.3
-4395.47
-7191.95
-9341.63
-6445.8
-7163.25
-5428.23
-3347.16
-4856.89
-5363.77
-5506.4
-19359.6
-13004.2
-12840.3
-9216.3
-9232.56
-9742.79
-4680.53
-5934.78
-7309.47
-14206.4
-12455.2
-10638.3
-10030.3
-8777.28
-9430.49
-6525.15
-5136.24
-4003.85
-2083.11
-4620.91
-3862.82
-2918
-1829.45
-627.832
-3771.88
-3174.78
-2401.89
-1498.83
-510.231
-2868.61
-2410.92
-1820.59
-1133.94
-385.461
-4043.92
-3408.82
-2579.43
-1607.69
-546.358
-3682.1
-3091.02
-2334.3
-1455.83
-495.723
-9589.97
-8066.22
-6739.71
-6170.07
-6190.01
-10974.8
-9554.86
-7809.2
-6293.58
-3757.34
-8371.7
-5910.94
-4490.74
-3162.11
-1385.21
-9993.64
-8319.12
-6572.5
-4857.97
-2359.15
-6754.64
-5434.83
-4025.57
-2524.38
-881.911
-8916.05
-6667.63
-4894.06
-3123.14
-1147.75
-5299.93
-4336.71
-3229.8
-2014.54
-693.047
-5508.15
-4493.57
-3341.55
-2084.75
-718.197
-4080.61
-3359.69
-2506.93
-1559.57
-533.282
-14502.4
-11721.7
-9877.29
-8868.51
-8228.56
-8852.2
-6815.86
-5221.25
-3618.82
-1602.48
-3807.76
-3116.63
-2329.9
-1464.77
-510.739
-6253.9
-5146.79
-3875.62
-2460.07
-869.301
-7901.41
-6418.48
-4871.66
-3197.61
-1215.46
-5585.59
-4592.82
-3470.69
-2221.16
-793.19
-6282.34
-5207.89
-3938.08
-2499.08
-876.323
-4791.98
-3983.46
-3002.7
-1886.77
-651.226
-2962.36
-2461.65
-1846.37
-1149.08
-391.87
-4331.3
-3624.91
-2731.85
-1702.79
-580.208
-4707.4
-3887.75
-2911.72
-1819.15
-625.309
-4859.34
-4035.4
-3035.98
-1902.57
-655.057
-13754.9
-11664.7
-9996.45
-9140.47
-8161.61
-9209.85
-6720.98
-5275.83
-3976.3
-2039.49
-9955.87
-8179.82
-6463.44
-4868.74
-2370.1
-7414.3
-5772.17
-4444.05
-3072.59
-1257.18
-7838.98
-6394.07
-4869.63
-3206.85
-1214.32
-7834.66
-6086.19
-4681
-3228.73
-1308.41
-4102.21
-3396.3
-2563.73
-1623.62
-568.167
-5282.62
-4416.65
-3331.13
-2081.61
-711.356
-6391.55
-5281.2
-3983.76
-2524.62
-884.129
-489.479
-1391.47
-2208.4
-2977.14
-3706.16
-4386.58
-2606.92
-7006.27
-6664.5
-2554.91
-8912.97
-7473.24
-8924.41
-9883.19
-2361.77
-1525.42
-5485.32
-3179.96
-10450.6
-7400.59
221.182
-2116.35
-5843.89
-5482.33
-2059.53
-7590.07
-6104.29
-7493.12
-8441.27
-1955.68
-902.88
-4711.79
-1667.79
-8674.05
-4440.09
1520.96
-1548.49
-4451.7
-4165.38
-1512.33
-6006.93
-3681.47
-6090.47
-6752.1
-1476.87
-821.723
-3342.48
-1732.7
-6938.91
-1787.01
1658.1
-1143.12
-3453.01
-3299.57
-1157.79
-4608.83
-2255.34
-5071.8
-5973.38
-1113.54
-862.71
-2451.09
-1749.78
-6118.21
-383.162
1246.21
-925.922
-2934.1
-2849.68
-978.794
-3713.57
-1875.55
-4557.92
-5803.43
-883.398
-938.738
-1768.2
-1679.99
-5345.17
-165.502
131.194
-819.247
-2623.74
-2621.12
-888.179
-3444.08
-2131.79
-4228.19
-5551.47
-684.03
-736.673
-1466.09
-1646.03
-5258.59
-953.89
-468.104
-1388.41
-3398.27
-4936.8
-1908.14
-5507.1
-9616.17
-7244.61
-10445.1
-1018.34
-728.193
-3902.95
-2434.52
-1208.86
-9262.27
-4857.65
-1295.22
-3177.24
-4350.52
-1662.85
-5106.53
-8719.77
-6559.42
-8925.23
-1045
-649.309
-4054.47
-2315.67
-388.651
-9114.29
-3684.37
-1145.53
-2819.57
-3585.56
-1344.03
-4674.32
-7849.5
-5613.64
-7900.94
-934.761
-747.221
-3495.41
-2425.31
-599.776
-7421.71
-3544.96
-998.626
-2559.45
-2998.59
-1100.51
-4389.52
-7181.02
-5030.46
-7219.13
-865.582
-760.806
-3260.69
-2541.16
-392.378
-6930.1
-3602.19
-908.54
-2315.41
-2678.96
-969.014
-4009.33
-6630.95
-4614.12
-6890.65
-816.183
-819.296
-2984.81
-2758.77
-527.545
-6689.82
-3692.75
-847.254
-2074.91
-2493.5
-895.34
-3713.31
-6559.89
-4301.2
-6679.66
-849.404
-946.868
-2669.2
-2627.63
-776.694
-6856.82
-4091.07
5969.87
7537.6
15641.3
22852
23260.2
40091.3
17881.2
45539.1
14577.5
32006.1
21820.8
33120.6
19564.6
25699.3
7389.46
8375.65
14630.8
16744.1
18913
18758.1
14904.3
18425.5
21969.5
19721.9
4915.29
3718.85
6033.82
4063.49
12348
9823.3
21149.8
15279.6
16336.6
16995.2
18127.9
17255.8
6326.56
4953.41
38769.9
51906.1
25037.6
30744.6
52190
67713.1
26995
30904.2
28716.5
40573.6
25044.5
33210.3
14640.2
23619.3
2640.02
903.905
2710.79
987.362
8421.89
3394.28
11611
4266.35
8235.44
3161.2
8780.89
2812.95
15001.9
4769.98
19362.8
6528.58
23773.1
11784.7
21762.3
12901.5
22328.4
14438.2
19635.4
14784.9
17078.5
10140.8
17069.7
8680.82
22451.7
14372.4
22500.3
14510.8
20736.6
15661.6
20987.4
15737.9
18452.5
11725.4
19114.7
12018.5
17429.7
7533.68
8037.77
9770.25
17503.2
8230.29
6999.27
9881.85
18465.6
7505.54
9121.84
9854.94
19384.6
7690.21
9928.13
10303.4
3407.83
3678.35
1167.02
2223.59
10582.2
11191.3
4071.02
7196.58
13604.8
15135.5
6522.47
11077.9
12267.6
1132.57
13488.5
16576.2
8965.58
794.733
7481.54
12094.5
19454.1
13398.4
9789.61
11857.2
10326.5
8878.19
13911.6
3190.96
2611.57
1800.31
1811.14
9887.81
8370.06
5967.25
5663.88
12328.2
10489.8
7726.68
6941.2
5870.94
7456.64
12094.3
12516.3
13955.2
12705.7
15727.1
13719.4
10568.3
8891.84
9025.65
9550.42
11900.7
9467.49
10821.6
7948.6
9347.15
6503
10842.3
7132.1
10209.9
4858.06
8749.92
9527.53
12527.2
16391.5
13775.9
20085.6
6950.75
7763.65
9034.91
2993.43
7791.9
15052.1
7388.77
16123
13635.8
24784.4
13872.3
26286.5
5875.29
12907.6
5332.87
13741.1
8105.01
6172.7
11248.2
4493.6
8370.83
1771.24
9824.07
856.615
7777.84
9211.06
11779.7
5463.28
6425.59
10847.5
10416.3
7156.85
2056.91
1835.26
1679.08
1517.03
1407.63
1278.46
6887.14
5685.85
4946.62
4416.47
3576.22
3116.18
8451.56
7340.62
6803.2
5291
4359.13
4136.98
6591.55
5878.33
5750.73
10953.8
8411.7
7119.85
10269.6
7671.21
6263.74
10792.3
8595.9
7509.23
6636.89
4422.88
3474.06
15763.2
13745.2
11971.6
10087.4
8467.2
7087.89
8909.59
6995.4
5638.9
7440.88
5431.95
4219.81
7586.53
4260.95
2434.18
10280.6
13961.4
8111.98
10520.6
11047
16257.1
9855.08
14383.5
83.5342
639.649
-418.761
60.2214
2959.74
3430.51
1224.14
737.277
663.31
2377.88
9345.66
13665.4
6627.1
3616.94
9816.77
9746.59
15100.9
16633.6
-608.829
-4098.55
7522.03
7097.12
7120.46
5495.97
897.389
498.607
557.355
225.694
2049.18
229.262
-292.177
-839.033
9206.43
2416.96
6209.77
1633.93
8971.17
2746.31
10865.6
3516.77
8761.3
11883.1
8111.74
11600.6
14044
14905.3
13414.4
14128.3
5641.2
9450.29
6505.24
9381.36
8612.89
11183.6
9506.25
11308.3
13980.5
13885.5
14643.7
13952.6
5699.05
9154.75
6205.82
9334.12
-72.2965
1434.17
7522.43
4827.62
-644.078
1016.86
6969.24
4272.99
383.598
1686.25
7698.62
5257.84
842.705
1960.52
7750.98
5453.87
-651.006
-748.449
160.363
18.677
-2884.47
-2927.92
-191.575
-339.721
-566.488
-1971.41
1747.46
1103.6
-10254.6
-9518.71
-5570.44
-4251.79
-386.949
-10448
-10808.3
-4333.27
-6393.44
-772.909
10173.5
8026.51
7206.03
6835.49
4262.78
-783.563
-731.426
-45.1386
59.6908
-2556.68
-2551.78
-40.5721
220.296
-2597.85
-3197.3
771.105
1127.95
-5137.47
-2363.35
-8206.4
-5191.03
-3666.26
-2812.29
-4131.32
-3624.13
546.474
1538.09
3747.03
2368.95
1030.73
-1043.09
1042.11
-755.614
1813.2
456.53
2285.38
2629.18
5248.63
4817.51
9976.77
6035.6
8098.87
8185.33
12299.7
9984.14
7952.41
4721.89
3993.25
3987.11
11757.9
5212.1
12935.3
5844.72
13718.3
10189.6
14641.5
10917.7
9634.07
3859.3
10791.7
4469.32
6404.55
5154.39
5097.32
7569.78
4181.71
4745.67
4372.62
7020.97
7375.37
5112.03
5752.4
8684.6
8931.35
5557.49
7147.91
8972.96
-762.751
-806.766
-909.902
-40.5373
-298.093
-331.796
-2890.16
-3116.47
-3132.54
-177.088
-851.078
-865.372
-3676.58
-4151.55
-4281.71
655.562
-836.256
-1145.63
-1289.68
-1109.21
-808.205
-3873.95
-3983.01
-3728.71
-3175.99
-3622.75
-3577.07
-3928.87
-4273.3
-4189.81
1456.54
-365.143
-509.183
3437.82
1947.18
1016.83
-1064.7
-2237.77
-2865.1
-1008.7
-2524.44
-3187.42
-425.598
-2080.98
-2560.78
2474.38
-524.475
-884.112
-22.2876
-36.5468
-49.4211
-75.1832
-254.401
-146.162
-123.52
-121.299
-4.76348
-80.7986
-191.833
-302.526
-439.273
-289.492
-329.353
-361.001
236.939
-32.2836
-273.283
-535.522
-161.427
-239.198