/*--------------------------------*- C++ -*----------------------------------*\
| =========                 |                                                 |
| \\      /  F ield         | OpenFOAM: The Open Source CFD Toolbox           |
|  \\    /   O peration     | Version:  2306                                  |
|   \\  /    A nd           | Website:  www.openfoam.com                      |
|    \\/     M anipulation  |                                                 |
\*---------------------------------------------------------------------------*/
FoamFile
{
    version     2.0;
    format      ascii;
    arch        "LSB;label=32;scalar=64";
    class       volScalarField;
    location    "2.3";
    object      gradTy;
}
// * * * * * * * * * * * * * * * * * * * * * * * * * * * * * * * * * * * * * //

dimensions      [0 -1 0 1 0 0 0];

internalField   nonuniform List<scalar> 
5712
(
11622.3
6701.69
18849.5
12352.3
20561.7
15219.3
32290
40003.7
42441.5
51917.7
27442.7
23840.2
17434.4
13814.2
8749.75
5917.94
19529.8
19991.7
16814.9
19761.1
26381.8
23573.5
30420.4
24635.8
8213.15
5923.48
4612.37
3426.21
9836.21
8014.67
5961.31
4813.46
17825
18526.6
18230.7
15426.9
14233.1
11097.8
11143
12647.4
17961.3
17865.7
37637.4
38899.9
26696.4
27487.5
15198.3
12816
16573.9
11822.6
7708.61
7908.43
6289.59
8716.98
3288.49
3940.17
8628.18
11716.4
5131.03
5963.05
9579.77
15946.5
6630.24
10804.2
2530.99
6432.79
2105.72
4804.26
17645.8
21784.1
18176.3
21673.8
21599.1
21825
21964.7
21524.1
15446.6
20913
15905.8
20668.6
17888.2
21513
17872.7
21455.6
22126.5
21234.7
22039.8
21024.6
14261.4
20993.5
13761.4
21063.9
17344.1
20280.7
21904.6
30452.1
18359.3
23357.2
21699
32995.4
16450.5
17881
21998.8
29316.6
16278
16745.5
22238.6
29113.3
5106.79
6650.97
13000.3
22562
6360.26
7209.54
16803.4
25765.5
7963.01
8035.85
21392.3
28933.1
24270.1
26136
20469.7
19705.3
28344
26342.3
24826
20911.5
18085.2
32299.5
23990.8
23636.9
21005.1
20783
37062
1989.57
2383.25
4235.49
9537.96
2833.02
3192.17
5888.33
10763.9
4248.54
3592.82
8053.81
12447.9
26153.8
25972.5
23546.1
23290
20096
18526.3
15185.9
13488
10644.6
14689.4
23777.6
23071.8
23913
23627.5
20728.1
19502
17090.4
15357
11369.2
14893.6
23639.2
26652.5
23555
27281.9
22898.7
23764.3
22332.5
23895.4
21435
21821
21265.5
21198.6
23361.5
27386.2
23245.7
27350.5
21667.1
24170.3
21478.8
24103.5
21517.2
21772.2
21506.3
21754.5
17997.2
17116
11588.2
12862.1
17865.5
16653.9
11404.3
12875.4
18255.2
17073.8
11845.5
12932.2
18330
16903.9
12215.8
12948.1
1636.71
1124.48
789.373
959.093
672.071
629.11
2269.86
1385.77
1061.34
1900.75
1545.55
1345.24
2665.43
2263.9
2290.08
3352.54
2772.99
2505.9
25008.5
22780.4
21189.1
22961.1
21458.7
20215
16447.2
15394
14819.6
11119.3
9749.76
9175.15
5102.9
3816.5
3256.52
22573.9
21092
19776.6
23102.5
21247.4
19762.5
17064.7
14819.2
13535.4
11102.3
8996.05
8139.72
5433.8
3804.01
3075.37
26815.5
26297.8
29164.5
26223.4
30010.2
26236.1
36177.5
27586.6
20822.8
21203
20546.2
19104
23362.8
22063.3
22912.6
19613.8
22674.2
22549.4
20918
22424.6
27960.2
25048.2
27589.4
27994.1
29921
30925.1
22980.4
23834.1
20596.9
19986.3
25065
25695.1
16383.5
8756.3
15285.4
9704.73
16620.4
8834.41
15232
9638.91
16409.5
8884.65
15201.5
10051.3
14771.9
10519.4
14942.9
10432.7
21090.1
18094.9
20928.4
18042.9
23251.8
21049.1
23441.2
20812.4
20520.4
15100.3
21451.3
14925.5
21363.4
17940.8
21618.8
17732.1
24013.5
20623.1
24014.9
20350.9
20293.6
15132.3
20221.3
15035.6
13469.5
8918.8
11959.7
7549.45
12575.1
7984.45
11508.6
7045.78
13786
9483.38
12143.4
7781.93
13796.5
9833.34
12108.9
7836.88
2543.15
1309.32
4590.67
2347.82
2723.03
1629.18
4899.98
2862.84
3374.1
2502.51
5450
3839.03
13183.3
20349.5
9494.98
9098.2
6348.17
19973.7
13971.4
8204.56
8237.05
5197.12
20716.2
16374.3
13053.4
10150.4
6159.06
682.986
521.479
1239.57
866.46
1005.79
697.495
1865.04
1463.51
1799.34
1432.71
2837.11
2296.57
20361.1
19875.5
13886
13467.5
9064.09
9287.66
7627.97
7154.98
4424.88
3634.08
19054.5
17483
14858.7
13212.8
11623.8
10500.8
8833.48
8147.33
5444.73
5527.89
15176.4
12465.1
15238.3
12126.9
18136.1
15196.6
18056.9
14929.8
12835
10598.5
12473
10669.8
15222.4
11914.7
15122.9
11889.7
17967
15182.1
17785.8
15127.2
13052.8
10413.9
13027.9
10551.9
10007.2
8649.54
6474.17
7021.61
9656.72
8485.14
6166.97
6668.74
10429.5
8812.89
6639.37
7447.57
10683.1
8814.88
6909.34
7557.96
1949.36
1725.95
1433.78
8542.28
4563.32
3734.52
1884.04
1873.55
1669.79
9223.52
5381.16
4570.26
2573.54
2909.37
2994.62
10129.6
6714.86
5998.87
18931.3
17875.6
17073.2
13121.5
12867.4
12680.8
9697.16
9692.54
9737.63
8452.85
8257.72
8093.02
11470.8
8273.87
7505.23
16111.6
15024.7
14263
12178.1
11484.2
11073.4
10284.4
9671.22
9299.88
10055.7
9015.88
8389.42
13922.8
9330.11
8419.59
4767.18
3016.62
2215.13
1971.74
5406.35
3300.48
2346.08
2018.67
4786.91
3008.91
2218.68
1986.97
5526.28
3369.23
2390.36
2038.53
4761.45
2965.38
2211.48
1969.02
5634.97
3407.54
2432.17
2025.7
6084.82
3623.14
2501.35
2122.64
6274.4
3771.49
2589.94
2210.59
5088.31
3164.24
2297.02
1988.73
4051.15
2715.91
2080.7
1911.71
4414.07
2836.02
2126.68
1840.41
3693.78
2543.96
1990.82
1830.52
5538.6
3411.46
2419.34
2087.17
4263.29
2841.49
2138.7
1976.48
5791.83
3578.53
2504.8
2155.1
4353.59
2930.58
2185.49
2010.66
3509.25
2544.97
1996.76
1865.23
2109.9
1973.33
1728.91
1751.43
3511.66
2526.72
1990.62
1859.4
2214.83
2001.45
1739.16
1761.17
3591.63
2517.06
1993.51
1863.85
2548.68
2099.12
1777.47
1805.66
3521.47
2435.94
1944.82
1896.7
2831.99
2164.11
1823.42
1789.66
3213.21
2342.83
1887.62
1801.21
650.641
1503.63
1345.22
403.714
-1036.93
1237.61
1183.8
433.833
902.571
1586.03
1377.07
427.107
-713.821
1330.37
1211.95
443.455
1373.28
1731.41
1427.73
425.899
-169.884
1486.13
1254.5
449.09
1944.21
1902.12
1496.92
463.683
399.839
1656.61
1313.71
469.058
2309.11
2055.07
1581.92
544.715
525.358
1781.6
1368.26
486.4
2463.57
2217.93
1622.26
515.547
140.077
1904
1467.4
516.419
2403.18
2145.75
1591.75
516.206
111.796
1846.87
1417.79
498.651
2475.57
2269.1
1650.39
478.762
63.9964
1953.92
1502.5
519.884
2531.78
2324.37
1698.11
490.321
169.218
2011.59
1545.04
533.48
1877.62
1459.2
1019.6
599.148
197.348
1856.02
1456.19
1020.35
599.931
197.619
1900.51
1470.61
1025.25
601.8
198.125
1883.65
1470.8
1027.92
603.57
198.699
1943.59
1486.95
1032.6
605.161
199.105
1917.71
1488.33
1036.88
607.886
199.989
1947.78
1508.51
1048.76
613.95
201.843
1993.79
1537.74
1065.78
622.634
204.498
1988.02
1506.66
1043.22
610.419
200.696
2123.53
1531.05
1050.19
613.039
201.419
1997.42
1501.61
1038.08
607.488
199.764
2120.55
1522.29
1044.5
610.069
200.495
2006.71
1524.45
1053.88
615.897
202.38
2162.07
1548.31
1059.89
617.985
202.941
2051.53
1552.79
1069.89
624
204.858
2209.69
1573.57
1073.76
624.989
205.091
1930.6
1466.56
1019.56
598.52
197.11
2031.49
1474.75
1019.78
598.156
196.967
1952.03
1475.56
1023.76
600.442
197.664
2048.43
1481.51
1022.98
599.631
197.395
1995.54
1490.65
1030.38
603.458
198.535
2085.75
1493.81
1028.69
602.28
198.162
2067.39
1508.09
1037.1
606.419
199.383
2130.48
1507.07
1035.22
605.353
199.043
2135.88
1517.09
1040.92
608.186
199.901
9396.25
14412.6
9873.94
14718.9
10583.5
15125.1
11086.1
15400.9
10681.3
14854.3
9966.03
11215.1
9952.52
11710
10036.9
11143.1
10218.9
11290.5
8303.25
1419.78
302.785
67.778
11.9828
9228.51
2623.94
636.079
144.05
25.4592
8401.14
1410.32
298.521
66.5595
11.7346
9324.19
2616.11
631.618
142.34
24.9388
8503.54
1407.48
295.3
65.5395
11.5288
9413.41
2611.55
626.918
140.726
24.616
8457.42
1369.52
284.677
63.0066
11.0742
9334.61
2564.67
613.25
137.395
24.005
8053.84
1271.26
263.639
58.5168
10.3069
8872.13
2441.54
585.6
131.553
23.016
7219.14
1184.87
253.707
57.2226
10.1549
7386.71
2131.36
524.602
119.77
21.1508
7457.59
1204.31
254.82
57.1136
10.1029
7803.07
2247.24
548.276
124.19
21.8165
7131.2
1181.82
254.253
57.4857
10.2116
7253.72
2081.14
512.737
117.433
20.7963
7110.52
1173.7
252.332
57.0781
10.1309
7269.28
2070.92
508.947
116.845
20.6593
33261
47086.8
46027.6
32292.1
19063.8
20051.5
28109.5
29339.2
21970.5
24600.1
34901.3
47555.1
44097.4
58360.4
28816.7
32818.7
22636.5
24165.8
12295.9
13475
4932.19
3279.03
904.551
704.533
790.527
696.273
841.171
4848.34
4816.65
2921.07
4113.61
3963.77
1733.43
2378.21
2171.59
1442.7
1658.55
1366.74
4364.17
2398.35
1557.03
1381.38
1741.3
1514.61
1196.04
1136.33
1073.76
946.848
1272.84
1151.6
4553.4
2786.29
3190.67
2052.46
1702.49
2373.6
1221.28
969.775
1339.1
10056.7
10213.1
10495.3
11876.7
19690.9
7286.38
8414.31
9273.19
10486.5
12269.6
2381.72
3409.64
4198.22
4740.07
5021.74
1868.73
2702.92
3353.75
3800.52
4029.02
2093.92
3021.06
3737.5
4223.91
4470.31
1848.42
2676.3
3322.05
3763.59
3988.1
2222.98
3197.4
3947.58
4458.35
4719.01
10221.1
10587.9
10529.6
11257.3
17718.8
10124.8
10306.3
10066.1
10372.2
11879.8
6731.97
8023.25
8716.86
9371.29
10145
8920.05
9417.66
9237.05
9217.57
9477.4
8587.37
9141.7
8930.11
8751.77
8777.58
4330.28
5747.73
6661.36
7253.75
7585.82
5667.51
7045.92
7795.2
8294.82
8648.45
5240.78
6614.11
7351.02
7766.38
7987.48
3683.13
5035.71
5958.55
6549.12
6852.56
4160.27
5545.62
6426.75
6965.6
7238.88
3509.97
4836.58
5751.52
6331.55
6621.13
9382.33
10057.5
10303.1
11298.1
18002.7
5719.74
7171.16
8102.92
8923.5
9739.06
3948.37
5356.28
6322.55
6975.71
7347.61
3542.77
4886.79
5849.31
6511.35
6882.95
4351.12
5800.28
6797.21
7531.33
8027.5
3853.41
5265.28
6280.94
7015.91
7464.16
3101.43
4349.99
5284.16
5941.57
6306.8
2961.87
4178.35
5084.44
5703.04
6029.9
2810.49
3982.85
4850.33
5423.94
5712.75
2492.22
3562.19
4371.83
4915.67
5191.24
3290.38
4582.03
5506.74
6117
6433.49
2998.61
4221.52
5122.58
5728.37
6043.79
9522.5
9963.35
10293.5
11561.7
18910.2
6396.74
7702.24
8654.36
9761.92
11146.8
7433.11
8766.48
9499.21
10624.7
12980.7
5017.16
6531.63
7617.55
8559.57
9345.46
4274.52
5748.19
6808.64
7628.4
8188.17
5670.71
7150.16
8152
9085.65
10026.4
3164.61
4431.45
5370.84
6024.39
6383.59
2547.73
3633.54
4456.01
5014.06
5301.34
3444.3
4773.03
5739.56
6413.65
6794.09
18248.5
12112.6
18804.5
13423
24389.2
34793
25480.9
34615.2
19340.7
20473.9
16589.6
19772.5
21993.7
20928.9
27969.5
22953.4
14051.8
13108.9
6884.57
5864.4
15319.6
13977.6
7910.45
6445.92
18935.8
20474.7
19426.6
17738.4
19781.2
13032.7
10935.4
12607.2
17857.2
17829.4
37074.2
38774.6
25948.8
27282.3
15769.9
12936.4
17231.4
11936.6
8347.68
8061.86
13757.4
15204.3
5758.08
6272.72
15148.4
17256.8
7186.19
7924.76
14465.9
20173.6
8402.84
12934
2939.43
7163.38
2187.07
4946.52
18030.3
20623.6
17969.1
20993.4
19698.3
19989.8
20744.7
20493.8
16380.9
20731.6
18579
20438.6
17673.7
21147.6
17790.1
21337
21496.2
20706.9
21853.7
20860.9
14525.9
20869.2
13799.3
21016
18214.7
21514
22123.6
30781.1
19835.2
25450.9
22185.6
33707.7
16841.5
18469.1
22074.3
29454.3
16377
16907.5
22249.8
29147.9
18859.5
20379.2
23615.2
34990.1
18988.5
19440.9
25284
35460.7
18732.9
18413.9
27227.2
35211.1
18238.6
19142.5
19457
20662.8
30988.1
18405.4
17172.9
20777.1
18902.4
35398.2
19202.2
19998.9
19807.2
21428.6
38311.1
11362.8
10411.3
10502.8
13553.7
12435.9
11411.1
10886.3
13936.5
13682.1
11885.2
11394.2
14257.3
17864.9
17212.5
16742.7
16316.3
19289.5
18071.4
15914.8
14349.1
11940.9
14885.9
18879.1
18699.3
19970.5
20132
19131
18029.1
17329.3
15404
11766.7
14406.5
21732.2
24477.3
22584.7
26108.7
20576.3
21502.6
21209.8
22775.4
20899.5
21132.4
20355.6
20096.6
22884.9
26814.7
23100.4
27179.7
21140.3
23625.6
21322.3
23944
21225.5
21417
21413.6
21647.7
17851.5
16837.1
11616
12770.9
17759.6
16340.7
11575.9
12799.6
18146.9
16906.7
11834
12866.8
18290.4
16849.5
12206.6
12923.2
9542.7
9686.41
4098.66
3777.82
10644.8
10302.8
4592.65
4397.41
10376.5
9731.04
5231.71
5052.99
16990.9
16501.4
16548.9
16632.9
16477.3
15990.9
12376.5
11090.9
6167.38
5098.19
19041.9
18293.3
20306
19536.7
16099.2
14946.7
11554.5
9943.9
5675.7
4278.19
21973.4
20917.2
26905.4
23535.2
24426.6
21799.1
33404
25232.4
20106.9
16610.7
21881
17410
19992.5
16895.1
21975.9
17636.2
20523
18219.3
18594.7
17322.4
21143.5
22381
26233.1
27580.5
28770.8
30590.1
21627.9
23355
19555.2
19688.4
23540
25181.4
13557.7
9985.4
13979.5
10211.7
13839.4
9895.09
14163.4
10059
13771.2
9747.41
14118.9
10251.8
14148.1
10558.9
14740.7
10438.8
17227
16768.7
19000.7
17223.2
19710.7
18917.1
21553.1
19623.6
18714.1
14795.6
17814.9
14633.6
20405.1
17504.5
21333.5
17599.7
23090.6
20022.7
23746.8
20169.2
19399.2
14940.8
19961
14976
13065.3
9337.38
12167
7928.66
12526.4
9057.64
12116.1
7850.59
13470.3
9638.39
12208.5
7958.66
13684.9
9870.21
12125.4
7894.46
13090.5
13333.7
9372.13
8627.6
13237.8
13449.3
9224.95
8554.82
13205.5
12920
8990.71
8454.8
15294.4
17990.9
16129.6
12016.8
8737.31
16705.1
15682.9
17582
12087.8
8440.2
18415.2
16383.9
14590
12255.8
7781.11
14023
15335
8611.15
9370.63
13867.4
14905
8528.92
9232.58
12930.1
13535.3
8144.83
8335.49
16559.9
15752.7
15032
14545.6
15676.9
16223.5
12269
13183.3
7896.15
7766.89
16770.2
15443.5
15185.8
13973.3
13727.7
13251
11635.1
11771.2
7268.06
7880.97
14862.7
12832.1
14926.4
12246.7
16732.5
14283.2
17251.5
14454.5
12999.7
11165.8
13091.4
11955.2
15025.7
11965.7
15061.6
11903.3
17563
14948.4
17665.1
15060.5
13070.8
10660.5
13019.6
10614.3
10510.4
9453.55
6965.53
7763.28
10803.7
10160.9
7139.01
8158.49
10630.3
9172.23
6867.54
7845.59
10740.3
8920.14
6987.09
7683.5
18443
18413.2
25505.5
21412.2
17664.1
17771.4
24443.9
20457.4
15485.6
16182.8
22418.4
19010.9
15324.3
14844.2
14201.5
14054.3
16526.3
17036.5
15410.2
15432.4
20563.8
17415.6
14508.2
13858
13421.8
13300.3
13798.1
14196.8
14901
14602.1
20135.2
16029.4
6263.54
4018.72
2826.45
2403.33
6518.12
4161.03
2912.03
2423.4
6141.88
3939.67
2776.48
2379.99
6454.86
4114.02
2878.57
2389.35
5918.8
3783.44
2696.98
2309.9
6355.58
4006.86
2839.45
2319.94
6505.97
4000.03
2778.9
2333.26
6415.38
3902.49
2683.52
2283.87
5693.91
3635.78
2630.33
2248.96
4454.94
3050.45
2313.93
2106.89
5365.1
3505.79
2557.06
2155.55
4353.45
3059.58
2299.69
2061.33
5873.51
3693.03
2629.31
2254.72
4481.27
3030.01
2285.72
2110.11
5895.57
3672.85
2577.15
2213.84
4422.25
2991.95
2235.84
2056.6
5729.75
3748.11
2665.66
2325.39
4832.59
3347.62
2454.02
2240.63
5568.25
3665.78
2616.79
2288.08
4721.17
3301.33
2428.48
2229.07
5340.89
3532.27
2553.91
2251.4
4639.26
3241.48
2396.72
2226.92
4862.59
3287.61
2423.66
2234.77
4456.93
3140.81
2345.38
2128.63
4191.2
3040.72
2269.76
2058.06
3497.82
2938.54
2017.07
561.576
1418.37
2674.46
1866.81
628.911
3539.27
2937.63
2016.35
581.369
1595.96
2679.19
1863.76
631.149
3612.77
2918.14
1993.32
553.088
1842.31
2668.08
1839.13
616.176
3577.39
2865.13
1994.91
582.749
1878.3
2622.13
1817.98
615.481
3301.47
2755.42
1984.61
662.449
1339.32
2507.92
1779.63
611.173
2763.02
2513.12
1869
607.017
276.801
2216.96
1686.68
592.507
2956.04
2616.67
1923.99
623.875
466.891
2342.2
1727.55
597.968
2623.61
2430.56
1800.92
537.466
108.108
2123.89
1631.47
566.743
2574.13
2375.77
1747.95
510.277
175.731
2064.7
1586.83
548.961
2214.79
1663.98
1134.87
656.862
214.805
2163.98
1650.57
1131.08
655.585
214.471
2213.63
1657.51
1130.31
654.395
214.035
2155.57
1640.61
1124.55
652.136
213.406
2229.56
1652
1124.93
651.342
213.072
2147.23
1629.16
1116.84
648.059
212.155
2105.8
1606.29
1104.49
642.001
210.343
2051.91
1574.62
1086.91
633.294
207.733
2198.89
1634.07
1114.72
646.228
211.532
2324.66
1644.58
1113.04
644.419
210.909
2265.56
1652.88
1122.04
649.407
212.438
2379.98
1658.63
1119.43
647.4
211.777
2146.1
1611.93
1103.31
640.714
209.896
2292.4
1625.31
1102.82
639.474
209.446
2099.83
1583.1
1087.11
632.67
207.491
2254.48
1600.39
1088.78
632.534
207.385
2313.16
1683.52
1139.38
658.189
215.134
2475.23
1701.12
1142.52
659.029
215.337
2317.88
1679.5
1136.17
656.408
214.57
2476.73
1697.54
1139.98
657.654
214.905
2336.55
1674.05
1131.1
653.582
213.676
2484.1
1690.57
1135.14
655.086
214.101
2387.72
1671.96
1126.55
650.898
212.817
2495.16
1680.36
1129.15
651.994
213.126
2442.19
1668.15
1123.42
649.225
212.298
11436.5
15051.2
11499.7
15063.5
11636.4
15071.5
11453.9
14896.6
10716.2
14174.6
9954.34
11139.8
9977.82
11574.3
10020.1
11097.9
10211.6
11275.2
8795.18
1463.22
307.439
68.2894
12.0234
9469.73
2677.58
644.567
145.138
25.5542
8760.95
1439.67
301.343
66.8063
11.7419
9431.43
2645.25
636.187
142.826
24.9563
8654
1414.8
295.251
65.3681
11.4826
9328.44
2605.24
625.765
140.334
24.5206
8416.18
1357.77
282.159
62.4706
10.9808
9098.6
2529.17
607.193
136.226
23.8079
7945.1
1253.6
260.302
57.8452
10.1951
8615
2397.65
577.625
130.026
22.7689
7177.46
1176.78
251.806
56.783
10.0771
7329.15
2112.73
519.885
118.7
20.9651
7394.13
1191.73
252.044
56.5084
9.99928
7696.21
2216.62
541.37
122.741
21.5756
7106.59
1177.2
253.149
57.2228
10.1641
7222.49
2071.09
510.075
116.804
20.6838
7102.29
1172.18
251.968
56.9905
10.1149
7259.07
2067.76
508.099
116.64
20.622
32808
46783.2
44969.5
30930.2
24183
28788.3
23382.5
28678.3
27061.7
42889.4
28681.9
43911.1
231.737
248.684
286.443
347.607
436.631
558.772
246.038
263.447
302.084
364.09
452.529
571.045
220.956
215.643
238.946
235.437
279.158
279.855
344.81
353.695
439.268
458.841
562.57
585.13
720.272
927.923
1199.45
1561.99
1981.35
2283.19
723.285
911.843
1138.42
1394.02
1639.38
1798.71
620.469
910.267
1143.8
1307.37
1391.57
665.604
975.96
1225.73
1400.47
1490.34
766.196
1122.37
1408.3
1607.92
1710.47
928.869
1358.55
1702.17
1941.37
2064.06
1164.89
1699.62
2124.84
2419.73
2570.75
1486.88
2161.05
2692.82
3060.12
3248.17
658.586
965.835
1213.24
1386.4
1475.49
704.893
1033.09
1296.94
1481.37
1576.17
807.665
1182.33
1482.66
1692.12
1799.67
972.278
1420.69
1778.59
2027.49
2155.11
1206.24
1757.75
2195.34
2498.65
2654.07
1517.96
2203.1
2742.48
3115.26
3306.54
591.656
868.161
1091.13
1247.36
1327.81
577.436
847.352
1065.08
1217.68
1296.25
639.628
938.101
1178.48
1346.73
1433.29
630.247
924.406
1161.38
1327.28
1412.63
746.845
1094.36
1373.56
1568.58
1668.79
748.717
1097.16
1377.15
1572.74
1673.23
921.621
1348.47
1690.11
1928.01
2050.03
945.334
1383.1
1733.42
1977.3
2102.33
1172.31
1711.24
2140.1
2437.48
2589.66
1224.38
1786.83
2234.03
2543.78
2702.13
1497.81
2178.52
2715.74
3086.3
3275.57
1557.81
2265.4
2823.07
3206.88
3402.46
1908.17
2755.85
3416.87
3872.33
4106.72
2439.88
3487.53
4292.39
4849.75
5142.65
3113.1
4374.02
5324.85
5999.25
6374.97
3964.71
5415.21
6487.71
7300.15
7817.97
4873.71
6402.33
7517.77
8465.55
9206.11
5499.7
7038.84
8159.88
9201.12
10121.9
1914.63
2762.39
3423.14
3879.44
4115.11
2398.75
3431.29
4226.33
4777.95
5067.83
2967.72
4194.05
5125.41
5781.44
6139.05
3589.75
4993.05
6044.33
6807.92
7251.45
4164.5
5693.56
6827.21
7686.23
8226.76
4529.56
6125.9
7304.86
8226.81
8838.42
234.55
257.231
301.251
369.489
466.645
598.064
248.924
272.208
317.13
385.984
481.78
607.705
223.793
218.579
247.638
244.486
294.357
295.815
367.613
377.998
470.972
492.43
605.691
632.057
768.337
980.688
1249.81
1599.83
2001.48
2288.89
766.061
957.354
1181.39
1428.3
1660.67
1805.8
628.015
921.41
1157.93
1323.63
1408.94
688.623
1010.06
1269.01
1450.34
1543.66
806.12
1181.62
1483.66
1694.91
1803.57
987.995
1446.61
1814.57
2071.5
2203.56
1246.29
1821.56
2281.41
2601.86
2766.51
1594.05
2323.06
2902.69
3305.95
3513.43
666.348
977.328
1227.84
1403.23
1493.49
728.514
1068.14
1341.51
1532.81
1631.23
848.282
1242.73
1559.63
1781.12
1895.01
1031.51
1509.08
1891.65
2158.59
2295.79
1285.64
1876.89
2348.56
2677.1
2846.02
1617.97
2354.35
2938.51
3344.99
3554.5
599.273
879.408
1105.37
1263.74
1345.3
585.322
858.993
1079.81
1234.61
1314.33
663.019
972.706
1222.35
1397.23
1487.25
654.588
960.398
1206.98
1379.75
1468.69
787.797
1155.07
1450.69
1657.54
1763.95
791.712
1160.88
1458.09
1666.07
1773.05
983.206
1440.13
1807.01
2063.27
2194.98
1010.99
1480.86
1858.18
2121.7
2257.11
1258.31
1840.13
2305.66
2630.1
2796.73
1315.65
1924.01
2410.71
2749.79
2923.85
1615.54
2356.76
2946.93
3357.36
3568.2
1686.22
2460.51
3077.05
3505.51
3725.34
2040.5
2958.76
3683.28
4187.68
4448.97
2587.41
3718.82
4602.21
5222.13
5550.28
3257.95
4609.8
5650.66
6400.04
6819.75
4080.09
5615.48
6777.43
7668.96
8236.75
4942.21
6532.22
7714.71
8725.58
9510.62
5521.47
7083.15
8229.15
9294.83
10234
2032.19
2942.2
3658.72
4157.88
4417.08
2525.19
3627.82
4487.68
5090.42
5408.92
3089.09
4387.07
5387.23
6099.3
6489.15
3688.98
5155.75
6270.48
7087.69
7563.28
4228.07
5801.3
6980.47
7879.31
8444.81
4551.21
6163.41
7358.99
8295.78
8916.96
4913.96
3278.16
967.711
758.7
864.499
756.652
910.928
4525.42
4368.15
2865.67
3615.46
1799.42
2359.85
1525.95
1685.94
1433.87
4220.35
2421.92
1638.46
1464.15
1810.08
1584.38
1259.38
1214.71
1172.06
1037.63
1364.59
1238.99
4500.11
2792.75
3161.53
2085.29
1756.94
2399.65
1293.48
1047.18
1416.53
10055.5
10268.4
10601.6
12050.1
20009.2
7301.41
8464.41
9362.1
10618.1
12441.8
2558.99
3689.13
4574.41
5193.56
5518.75
2018.02
2932.3
3655.51
4158.15
4417.33
2299.28
3340
4161.37
4730.22
5022.46
2014.92
2932.28
3659.03
4163.2
4422.13
2417.88
3502.79
4356.33
4948.88
5255.14
10024.6
11249.8
12006.7
13513.1
21272.4
9889.14
11332
12291.9
13652.7
15988.5
6857.8
8711.96
10060.1
11309.5
12485.1
8683.94
10557
11626.3
12732.6
13697.2
4614.07
6384.17
7699.79
8645.6
9188.95
5861.07
7783.09
9162.98
10223.2
10916.4
3975.19
5612.81
6852.56
7718.22
8183.93
4364.21
6109.42
7414.12
8328.16
8826.86
3754.2
5335.46
6540.21
7374.44
7814.48
9303.03
10455.2
11225.6
12734.8
20381.3
5909.13
7698.7
9029.2
10221
11295.2
4230.36
5908.04
7174.4
8089.94
8619
3803.17
5355.3
6541.21
7395.95
7882.33
4599.99
6303.39
7587.2
8577.96
9235.85
4075.38
5669.15
6882.47
7791.15
8345.84
3286.65
4657.78
5716.14
6478.14
6904.99
3191.06
4559.39
5619.03
6365.6
6766.44
3096.44
4455.48
5510.98
6240.9
6619.7
2748.93
3971.29
4927.56
5589.87
5932.49
3575.74
5089.66
6250.79
7062.4
7496.32
3257.55
4658.7
5742.29
6500.78
6904.41
9520.48
10137.5
10632.2
12102.8
19898.5
6453.97
7855.5
8915.87
10136.1
11619.5
7488.35
9078.78
10109
11543
14223.1
5140.54
6785.11
8019.37
9102.72
9988.59
4454.09
6085.39
7320.7
8298.77
8960.24
5826.77
7554.33
8852.97
10071.3
11218.6
3378.39
4792.07
5882.22
6663.19
7097.29
2768.37
3988.7
4942.01
5606.26
5953.74
3681.58
5188.77
6344.09
7180.39
7657.42
9734.55
9173.24
8192.89
6821.7
4955.6
1939.51
18579.8
18925.8
21489.4
22163.1
18230.7
19345.7
20561.2
19936.2
15236.6
18732.9
15894.2
19293.3
18240.6
16451.3
25439.6
17878.9
18087.5
20300.8
20737
17272.1
18369.3
19675.3
19247.1
15178.1
22617.3
15751.1
22514.5
18418.9
19973.6
27293.4
17098.3
17180.6
18792.9
18989
16567.3
18056.8
18493.4
18553.2
17412.8
20036.4
18171.6
20055.6
20006
21984.1
24599.3
16366.1
16467.1
17440.1
17480.6
16163.8
17887.5
17308.7
17638.4
16340.6
17545.5
17073.4
17114.7
18319.8
19806.7
21301.3
15596
15730.3
16527
16484.9
15888.6
17766.7
16540.2
17053.4
15492.4
14514.8
16252.2
13953.4
16876.2
16743.5
17642
15261.5
15437.9
15925.3
15851.5
15528
17089.2
16050.6
16485.3
14809.9
12509.1
15380.5
12271.6
15729.3
14760.8
16008.7
21437.6
20623
22460.7
23581.1
19898.3
19896
20945.5
20020.1
18971.4
14113.1
18937.8
14194.1
16833.3
15289
18411.5
20255.5
19669.6
20783.3
21515.8
19238.2
19397.8
19782.3
19008.3
17627.8
13697.4
17621.3
13796.5
15472.1
13807.9
17088.6
18711.6
18369.7
18779.9
19130.4
18128.5
18302.1
18287.1
17827.5
16789.7
13482.1
16598.5
13224.5
14906.7
12670.5
16839.7
17271.2
17080.9
17260.7
17412.6
16927.7
17043.4
17098.3
16739.2
15915.3
13972.5
15818.5
13654.9
14372.3
12786.6
17232.4
16546.6
16423.8
16433.1
16499.7
16137.3
16247.3
16406.3
16186.2
15760.3
15101.7
15699.5
14955.1
14517.4
13340.9
17875.2
16029.5
15915.4
15962.8
16001.5
15678.4
15968
15911.8
15827.5
15702.8
15813.3
15701.7
15731.1
14646.6
13898
18620.9
11432.9
6487.35
18842.3
12359.5
20582.9
15206.8
32317.9
40017.5
42491.8
51942.7
27492
23840.8
17442.1
13840.1
8487.15
5647.82
19532.9
19994
16813.6
19762.2
26394.8
23579.1
30428.8
24640.2
8044.67
5805.89
4457.08
3323.12
9808.91
8005.02
5959.81
4826.9
17820.3
18521.9
18229.2
15427.3
14228.9
11100.8
11143.9
12648.8
17962.9
17867.4
37644.3
38904.6
26699.7
27489.9
15199.2
12817.5
16575.4
11823.9
7709.74
7909.52
6177.39
8579.15
3200.66
3843.24
8629.89
11728.5
5145.18
5979.55
9580.93
15952.6
6636.34
10812
2532.35
6435.78
2106.2
4805.41
17646.8
21785.2
18177.6
21674.8
21601.9
21826.5
21967.1
21525.3
15448.5
20914.2
15905.9
20669.5
17889.4
21514
17873.7
21456.5
22128.2
21235.6
22040.9
21025.2
14262.7
20994.7
13762.5
21065.1
17346
20284.4
21906.3
30454.6
18360.7
23361.1
21700.7
32998.3
16452.3
17883.7
22000.4
29318.8
16279.8
16747.7
22240.2
29115.5
5024.45
6570.06
12826.3
22372.6
6365.74
7213.33
16818.7
25784
7965.48
8037.93
21399.2
28940.2
24270.2
26136.8
20469.3
19706.5
28348
26342.8
24825.9
20910.5
18085.8
32303.8
23991.7
23637.4
21005.7
20784.5
37065.4
1948.92
2351.86
4148.9
9446.09
2837.41
3196.43
5899.79
10773.6
4250.53
3593.98
8057.56
12450.2
26154
25972.5
23545.9
23289.9
20095.4
18526
15186.7
13488.7
10646.5
14690.8
23778
23071.9
23913.2
23627.7
20728.5
19502.4
17091.5
15357.9
11370.4
14894.5
23639.8
26652.8
23555.6
27282.2
22899.3
23764.3
22332.9
23895.5
21435.7
21821.5
21266.2
21199.1
23362
27386.4
23246.1
27350.7
21667.5
24170.4
21479
24103.5
21518
21772.7
21507
21755
17998.2
17116.7
11588.9
12862.8
17866.5
16654.7
11405.2
12876.2
18256.1
17074.5
11846.2
12932.8
18330.8
16904.5
12216.5
12948.7
1614.32
1107
774.937
954.545
666.562
622.556
2276.55
1389.36
1062.95
1907.03
1549.55
1347.58
2666
2264.65
2290.91
3353.57
2774.39
2507.28
25008.5
22780.7
21189.5
22961.3
21459.3
20215.7
16447.6
15394.7
14820.4
11119.9
9750.58
9176.06
5103.56
3817.27
3257.24
22573.9
21092.2
19777
23102.7
21247.9
19763.1
17065.1
14819.8
13536.1
11102.9
8996.68
8140.4
5434.28
3804.47
3075.78
26820
26299.1
29167.6
26224.7
30024.2
26241.6
36190
27591.5
20647.5
21150.2
20339.9
19040
23332.4
22035.2
22878.6
19586.5
22669
22545
20918
22422.9
27943.5
25033.3
27590.3
27994.4
29924.6
30927.2
22978.6
23833.2
20596
19985.4
25057.7
25691.7
16387.9
8761.42
15283.5
9711.77
16601.7
8829.57
15216.2
9635.23
16397.4
8880.08
15191
10046.6
14766
10515.8
14939.9
10430.5
21088.4
18094.5
20927.4
18042.6
23253.8
21050
23443.1
20813
20515.2
15099.1
21444.4
14924
21362.9
17940.5
21618.3
17731.7
24014.9
20623.4
24015.5
20351
20290.4
15131.3
20219.5
15034.8
13466.4
8916.39
11958
7548.21
12571.8
7982.07
11506.7
7044.41
13783.7
9481.36
12142.1
7780.88
13794.9
9831.82
12107.8
7836.01
2530.32
1293.19
4576.11
2329.13
2723.51
1630.27
4899.92
2863.72
3373.25
2502.38
5448.49
3838.45
13183.9
20350.7
9494.62
9096.7
6346.72
19974.6
13971.7
8204.48
8235.96
5196.19
20717
16374.3
13052.4
10148.9
6157.88
665.317
500.379
1219.83
856.591
1007.17
697.296
1865.3
1462.87
1799.63
1433.37
2837.06
2297.04
20361.4
19875.5
13885.8
13467.1
9063.75
9287.15
7627.33
7154.7
4424.37
3634.02
19054.8
17483.1
14858.6
13212.6
11623.1
10500.3
8832.62
8146.88
5443.97
5527.42
15176.1
12464.8
15238.1
12126.5
18136.5
15196.6
18057.1
14929.8
12834.2
10597.9
12472.2
10669.2
15222.1
11914.4
15122.6
11889.3
17967.1
15182.1
17785.8
15127
13052.1
10413.4
13027.3
10551.4
10006.3
8648.92
6473.41
7020.94
9655.73
8484.52
6166.14
6668.07
10428.7
8812.32
6638.71
7446.93
10682.4
8814.35
6908.75
7557.39
1914.85
1697.05
1410.6
8494.29
4520.87
3693.8
1881.21
1872.25
1669.8
9219.64
5380.98
4570.5
2574.22
2909.87
2995.02
10129.6
6715.39
5999.51
18931.2
17875.5
17073.2
13121
12867
12680.5
9696.55
9691.98
9737.18
8452.65
8257.5
8092.81
11470.4
8273.94
7505.43
16111.4
15024.7
14263
12177.8
11483.9
11073.2
10284.1
9670.95
9299.67
10055.3
9015.66
8389.28
13921.9
9329.87
8419.55
4767.37
3016.48
2215.1
1971.12
5404.85
3298.72
2345.23
2017.62
4785.73
3008.41
2218.33
1986.75
5525.6
3368.95
2390.14
2038.34
4760.17
2964.88
2211.17
1968.8
5633.69
3407.09
2431.89
2025.49
6083.54
3622.66
2501.09
2122.46
6273.42
3771.08
2589.71
2210.43
5087.28
3163.77
2296.74
1988.54
4050.47
2715.52
2080.45
1911.52
4413.08
2835.55
2126.4
1840.22
3693.07
2543.56
1990.57
1830.34
5537.62
3411.01
2419.08
2086.99
4262.67
2841.13
2138.47
1976.3
5791.03
3578.14
2504.58
2154.93
4353.06
2930.26
2185.28
2010.49
3508.2
2545.27
1997.27
1864.8
2107.45
1972.79
1729.32
1750.43
3510.84
2526.28
1990.28
1859.2
2214.18
2001.14
1738.91
1761.07
3590.77
2516.62
1993.22
1863.66
2548.07
2098.78
1777.23
1805.51
3520.69
2435.53
1944.55
1896.49
2831.36
2163.75
1823.18
1789.49
3212.56
2342.45
1887.37
1801.01
650.182
1503.15
1345.9
403.778
-1035.73
1236.16
1183.44
433.662
901.983
1585.91
1376.89
427.092
-714.505
1330.43
1211.96
443.484
1372.86
1731.17
1427.56
425.853
-170.156
1485.97
1254.4
449.066
1943.77
1901.82
1496.72
463.629
399.615
1656.35
1313.56
469.011
2308.64
2054.73
1581.71
544.65
525.145
1781.31
1368.08
486.342
2463.16
2217.61
1622.06
515.491
139.934
1903.71
1467.21
516.358
2402.73
2145.41
1591.54
516.148
111.634
1846.57
1417.6
498.59
2475.21
2268.81
1650.2
478.714
63.8825
1953.66
1502.33
519.829
2531.47
2324.11
1697.95
490.279
169.119
2011.36
1544.88
533.431
1876.15
1458.51
1019.31
599.018
197.31
1854.39
1455.33
1019.95
599.746
197.564
1900.45
1470.53
1025.21
601.78
198.12
1883.55
1470.72
1027.88
603.554
198.697
1943.48
1486.87
1032.56
605.144
199.1
1917.59
1488.25
1036.84
607.868
199.987
1947.65
1508.43
1048.71
613.929
201.838
1993.67
1537.66
1065.73
622.612
204.492
1987.88
1506.58
1043.17
610.398
200.691
2123.36
1530.96
1050.14
613.016
201.413
1997.28
1501.53
1038.03
607.468
199.759
2120.39
1522.21
1044.45
610.047
200.489
2006.57
1524.36
1053.83
615.874
202.374
2161.9
1548.22
1059.84
617.961
202.934
2051.4
1552.7
1069.84
623.976
204.851
2209.53
1573.48
1073.71
624.965
205.084
1929.1
1465.97
1019.32
598.418
197.08
2030.06
1474.26
1019.59
598.076
196.947
1952
1475.48
1023.72
600.425
197.661
2048.43
1481.43
1022.94
599.618
197.396
1995.44
1490.57
1030.34
603.441
198.532
2085.66
1493.74
1028.64
602.264
198.16
2067.25
1508.01
1037.05
606.399
199.378
2130.33
1506.99
1035.17
605.334
199.039
2135.71
1517
1040.87
608.165
199.895
9346.5
14356.9
9876.31
14720.7
10585
15126
11087.1
15401.5
10682.1
14854.9
9966.63
11215.7
9953.17
11710.6
10037.5
11143.7
10219.5
11291.1
8292.39
1410.31
300.345
67.2174
11.8837
9213.03
2618.08
634.402
143.649
25.3859
8398.64
1410.92
298.635
66.5775
11.7369
9322.56
2615.49
631.402
142.278
24.9269
8502.98
1407.54
295.309
65.5379
11.528
9412.99
2611.35
626.838
140.7
24.6105
8457.48
1369.54
284.675
63.0043
11.0735
9334.66
2564.62
613.223
137.384
24.0025
8054.11
1271.29
263.643
58.5166
10.3067
8872.37