/*--------------------------------*- C++ -*----------------------------------*\
| =========                 |                                                 |
| \\      /  F ield         | OpenFOAM: The Open Source CFD Toolbox           |
|  \\    /   O peration     | Version:  2306                                  |
|   \\  /    A nd           | Website:  www.openfoam.com                      |
|    \\/     M anipulation  |                                                 |
\*---------------------------------------------------------------------------*/
FoamFile
{
    version     2.0;
    format      ascii;
    arch        "LSB;label=32;scalar=64";
    class       volVectorField;
    location    "2.8";
    object      flux;
}
// * * * * * * * * * * * * * * * * * * * * * * * * * * * * * * * * * * * * * //

dimensions      [0 1 -1 1 0 0 0];

internalField   nonuniform List<vector> 
5322
(
(-2.15882e-06 5.51291e-06 -7.34333e-06)
(1.10724e-07 6.41375e-07 -6.82683e-06)
(1.19854e-07 1.45203e-07 -5.95182e-06)
(-3.31246e-11 2.79795e-08 -6.43825e-06)
(-8.13895e-09 1.16798e-07 -5.1485e-06)
(-7.37746e-09 1.52658e-07 -4.0169e-06)
(-5.40041e-09 1.45709e-07 -3.05851e-06)
(-3.98971e-09 1.26089e-07 -2.28459e-06)
(-3.17084e-09 1.0735e-07 -1.69688e-06)
(-2.24897e-09 8.62919e-08 -1.294e-06)
(-1.57783e-09 2.53216e-08 -1.04587e-06)
(1.10329e-08 -1.90913e-07 -9.65967e-07)
(1.62288e-08 -2.00164e-07 -7.02132e-07)
(-2.22329e-07 -1.81818e-07 -9.8267e-07)
(-4.283e-09 -1.61548e-07 -1.08526e-06)
(4.0491e-07 3.59998e-07 -8.97342e-07)
(-3.16701e-07 4.77496e-07 -1.05482e-06)
(3.93469e-11 -3.53259e-09 -8.18547e-07)
(-2.53447e-07 3.55177e-07 -1.20703e-06)
(2.04157e-07 -4.79626e-07 -1.34078e-06)
(-2.7452e-07 5.05416e-07 -1.55619e-06)
(3.14989e-07 -6.10735e-07 -1.76499e-06)
(-3.33336e-07 6.7453e-07 -2.08377e-06)
(4.49186e-07 -8.29454e-07 -2.40515e-06)
(-4.64021e-07 9.34391e-07 -2.83791e-06)
(5.91037e-07 -1.0945e-06 -3.22606e-06)
(-5.95372e-07 1.22396e-06 -3.77408e-06)
(8.03172e-07 -1.47291e-06 -4.29182e-06)
(-8.04247e-07 1.63242e-06 -4.95307e-06)
(1.01932e-06 -1.87094e-06 -5.51335e-06)
(-9.68529e-07 2.0648e-06 -6.26869e-06)
(1.36302e-06 -2.35609e-06 -6.93712e-06)
(-1.00999e-06 2.64059e-06 -7.71206e-06)
(1.8759e-06 -2.53468e-06 -8.24465e-06)
(1.40587e-07 2.5729e-06 -8.56908e-06)
(2.70527e-06 -1.43711e-06 -7.47063e-06)
(1.91703e-06 2.87997e-06 -8.78599e-06)
(-7.60122e-07 3.52209e-06 -8.70699e-06)
(2.11015e-06 1.77846e-06 -8.97427e-06)
(-1.24912e-07 1.98837e-06 -6.54493e-06)
(-2.00254e-06 2.60236e-06 -8.32071e-06)
(2.00858e-06 2.18455e-06 -8.5891e-06)
(-1.21665e-07 2.32939e-06 -6.41812e-06)
(-2.13588e-06 2.43193e-06 -8.59384e-06)
(2.12463e-06 2.31953e-06 -8.50753e-06)
(-7.27805e-08 2.37477e-06 -6.53128e-06)
(-2.26992e-06 2.3566e-06 -8.7188e-06)
(1.99699e-06 2.51886e-06 -8.24066e-06)
(-4.76089e-08 2.41642e-06 -6.46164e-06)
(-2.38255e-06 2.23683e-06 -8.57645e-06)
(-2.36401e-06 2.82158e-06 -9.77757e-06)
(-3.39942e-06 1.27327e-06 -6.67105e-06)
(-1.118e-06 1.4841e-06 -9.29501e-06)
(2.16624e-06 -4.61648e-06 -8.28379e-06)
(-1.42511e-07 -2.27079e-07 -7.43174e-06)
(-3.54355e-06 -2.65373e-06 -7.84419e-06)
(-1.08032e-07 1.45372e-06 -9.67206e-06)
(3.36985e-06 -3.45924e-06 -7.69685e-06)
(-4.07914e-08 -1.68136e-07 -7.45346e-06)
(-3.36922e-06 -3.00577e-06 -7.82761e-06)
(-1.46753e-08 1.47529e-06 -9.77499e-06)
(3.28217e-06 -3.39969e-06 -7.80019e-06)
(-1.74545e-08 -1.49551e-07 -7.45234e-06)
(-3.30898e-06 -2.98377e-06 -7.63613e-06)
(2.78645e-09 1.48184e-06 -9.77473e-06)
(3.23779e-06 -3.52552e-06 -8.07778e-06)
(4.73498e-08 -2.03591e-07 -7.42614e-06)
(-3.27708e-06 -2.89379e-06 -7.26241e-06)
(1.68434e-07 1.50242e-06 -9.58473e-06)
(2.70093e-06 -3.92646e-06 -8.61923e-06)
(1.50229e-07 1.20561e-07 -6.18067e-06)
(-2.6221e-06 3.10739e-06 -9.19194e-06)
(2.97701e-06 1.72528e-06 -8.74844e-06)
(-3.06987e-06 2.41787e-06 -8.61887e-06)
(2.95419e-06 1.79915e-06 -8.70204e-06)
(-3.00963e-06 2.28552e-06 -8.66023e-06)
(3.01245e-06 1.90221e-06 -8.65434e-06)
(-3.01325e-06 2.27849e-06 -8.63147e-06)
(3.43209e-06 1.93823e-06 -8.76651e-06)
(-2.5099e-06 2.7136e-06 -8.36044e-06)
(1.18811e-06 2.07326e-07 -8.10682e-06)
(-1.79436e-06 1.03595e-06 -6.51668e-06)
(-1.20434e-06 1.52213e-06 -6.7582e-06)
(1.90726e-06 2.4357e-06 -8.73324e-06)
(1.63801e-07 -1.64221e-07 -5.67799e-06)
(-8.77127e-07 -8.97531e-07 -7.76409e-06)
(1.37009e-06 3.18519e-07 -1.12182e-05)
(-3.77327e-06 6.07229e-07 -7.24079e-06)
(-1.22329e-06 1.27596e-06 -7.27694e-06)
(4.19329e-06 1.80768e-07 -6.33675e-06)
(-1.89101e-07 3.42202e-07 -7.84915e-06)
(4.62341e-08 6.18008e-08 -5.77273e-06)
(8.1508e-08 8.75024e-09 -6.08254e-06)
(4.93967e-07 8.60592e-09 -6.06685e-06)
(2.54588e-06 3.06662e-06 -7.75739e-06)
(-5.20805e-07 -1.74718e-06 -7.34261e-06)
(1.78811e-08 5.64344e-08 -7.00392e-06)
(-2.01376e-07 1.76576e-06 -7.44118e-06)
(1.41022e-06 5.35543e-08 -1.14071e-05)
(-3.33426e-06 -8.46162e-08 -7.0304e-06)
(-3.32839e-06 3.09104e-07 -7.11151e-06)
(6.91755e-06 5.57785e-08 -6.42764e-06)
(-2.02079e-07 1.88519e-06 -7.50017e-06)
(1.96886e-06 -2.98322e-06 -7.67282e-06)
(3.2131e-06 2.67635e-06 -8.37373e-06)
(5.26391e-08 5.90822e-08 -6.81174e-06)
(3.21186e-08 -5.84707e-08 -7.16721e-06)
(2.64247e-08 -7.59632e-09 -6.49433e-06)
(1.33229e-08 1.47604e-09 -5.20763e-06)
(4.66055e-09 5.66076e-09 -4.07539e-06)
(7.4524e-10 5.33246e-09 -3.10398e-06)
(-8.84355e-10 4.23615e-09 -2.31334e-06)
(-2.04326e-09 3.79259e-09 -1.70823e-06)
(-3.21242e-09 3.82782e-09 -1.29269e-06)
(3.49214e-09 -2.96451e-09 -1.20168e-06)
(-1.73225e-09 1.62986e-09 -1.10795e-06)
(-1.31729e-07 1.35002e-07 -7.87556e-07)
(-1.28225e-07 -5.31207e-08 -8.46065e-07)
(1.55241e-08 -2.06124e-08 -1.17543e-06)
(8.05269e-08 -1.01483e-07 -9.28019e-07)
(3.68821e-09 1.25792e-07 -8.11321e-07)
(1.20147e-07 -6.58371e-08 -9.71411e-07)
(-1.4403e-07 -1.30706e-07 -9.57769e-07)
(-1.10433e-08 -1.80733e-07 -1.34034e-06)
(-3.51354e-08 -2.03355e-07 -1.00307e-06)
(2.23829e-07 -8.02449e-09 -1.31328e-06)
(1.82855e-07 1.50561e-07 -9.48793e-07)
(4.9333e-08 -1.12736e-07 -9.90756e-07)
(1.43468e-07 1.08047e-08 -1.29151e-06)
(9.1265e-08 1.23692e-07 -9.46052e-07)
(6.88066e-08 -1.22984e-07 -9.708e-07)
(1.54119e-07 5.2684e-09 -1.30371e-06)
(7.60912e-08 1.28497e-07 -9.60897e-07)
(8.17974e-08 -1.31805e-07 -9.53055e-07)
(1.56788e-07 -4.25764e-09 -1.30949e-06)
(6.62244e-08 1.19792e-07 -9.73767e-07)
(1.30051e-07 -1.43934e-07 -9.58315e-07)
(1.78338e-07 -1.1654e-08 -1.34411e-06)
(2.01374e-07 -3.51301e-08 -1.00502e-06)
(8.53277e-09 2.21007e-07 -1.31503e-06)
(-1.48966e-07 1.81854e-07 -9.52128e-07)
(7.28144e-09 -1.2302e-07 -8.14574e-07)
(1.01291e-07 8.10551e-08 -9.28886e-07)
(-1.24006e-07 6.28674e-08 -8.34731e-07)
(-1.34582e-07 -1.32152e-07 -7.89336e-07)
(2.10365e-08 1.61635e-08 -1.17633e-06)
(5.34825e-08 -1.27896e-07 -8.46703e-07)
(2.84709e-08 1.00033e-07 -8.41638e-07)
(-1.05223e-07 1.03784e-07 -7.79877e-07)
(-1.15894e-07 -1.14652e-07 -7.85589e-07)
(2.38616e-08 -1.62104e-09 -1.17838e-06)
(3.2304e-08 -1.05682e-07 -8.42828e-07)
(3.96115e-08 1.06481e-07 -8.39695e-07)
(-1.14529e-07 1.16314e-07 -7.8103e-07)
(-1.08026e-07 -1.03467e-07 -7.8631e-07)
(2.41034e-08 -3.07856e-10 -1.17766e-06)
(2.03616e-08 -9.78814e-08 -8.43727e-07)
(6.40241e-08 1.25625e-07 -8.33944e-07)
(-1.23012e-07 -6.85241e-09 -8.13643e-07)
(1.61524e-07 -4.47126e-09 -1.08579e-06)
(-3.58397e-07 4.05161e-07 -8.9656e-07)
(-4.76419e-07 -3.16056e-07 -1.0569e-06)
(4.52718e-07 3.79513e-07 -1.33598e-06)
(-5.75321e-07 -4.49361e-07 -1.44358e-06)
(-2.74284e-08 1.80005e-08 -8.62454e-07)
(-3.56541e-07 -2.51141e-07 -1.20863e-06)
(5.65056e-09 -1.36055e-10 -8.19309e-07)
(3.31032e-07 8.40591e-09 -1.0715e-06)
(-7.77844e-08 -4.01656e-08 -7.08784e-07)
(3.69364e-07 1.11248e-07 -9.51532e-07)
(1.82386e-07 -2.2225e-07 -9.84466e-07)
(2.72918e-07 2.21625e-07 -9.16056e-07)
(-4.30029e-07 -3.88012e-07 -9.89997e-07)
(1.63199e-07 1.16931e-09 -1.11337e-06)
(-3.70967e-07 3.96959e-07 -9.46498e-07)
(2.69575e-07 -4.26019e-07 -1.26404e-06)
(3.50678e-07 4.43458e-07 -1.25404e-06)
(-4.72034e-07 -5.03696e-07 -1.34481e-06)
(2.57986e-08 2.41496e-09 -1.06017e-06)
(-4.01174e-07 4.96897e-07 -1.34331e-06)
(4.05359e-07 -5.79301e-07 -1.56797e-06)
(5.04081e-07 6.00872e-07 -1.56972e-06)
(-6.13569e-07 -6.89092e-07 -1.78713e-06)
(1.91565e-08 3.01051e-09 -1.38958e-06)
(-5.14296e-07 6.75009e-07 -1.78995e-06)
(5.713e-07 -7.89371e-07 -2.09361e-06)
(6.98081e-07 8.1595e-07 -2.09508e-06)
(-8.2925e-07 -9.42826e-07 -2.42133e-06)
(2.96421e-08 3.29924e-09 -1.88043e-06)
(-6.92377e-07 9.23431e-07 -2.42457e-06)
(7.87081e-07 -1.07564e-06 -2.83404e-06)
(9.56582e-07 1.11078e-06 -2.83574e-06)
(-1.1255e-06 -1.27701e-06 -3.26475e-06)
(4.07856e-08 4.44428e-09 -2.54678e-06)
(-9.40357e-07 1.25173e-06 -3.27038e-06)
(1.0527e-06 -1.44699e-06 -3.79203e-06)
(1.28405e-06 1.49434e-06 -3.79642e-06)
(-1.51335e-06 -1.6946e-06 -4.31801e-06)
(5.28628e-08 6.77057e-09 -3.39371e-06)
(-1.26734e-06 1.66099e-06 -4.32852e-06)
(1.35926e-06 -1.90653e-06 -4.96616e-06)
(1.67553e-06 1.96905e-06 -4.97642e-06)
(-1.99958e-06 -2.18588e-06 -5.56879e-06)
(6.8414e-08 9.64818e-09 -4.41455e-06)
(-1.67236e-06 2.13733e-06 -5.58609e-06)
(1.6857e-06 -2.43994e-06 -6.3267e-06)
(2.11463e-06 2.51728e-06 -6.34677e-06)
(-2.55355e-06 -2.69132e-06 -6.98719e-06)
(9.26173e-08 1.33305e-08 -5.56543e-06)
(-2.1082e-06 2.61635e-06 -7.01559e-06)
(1.96642e-06 -2.99129e-06 -7.70327e-06)
(2.45057e-06 3.01665e-06 -7.72375e-06)
(-4.63116e-07 -1.75144e-06 -7.42731e-06)
(1.34894e-06 -1.12958e-08 -1.14083e-05)
(-3.30266e-06 -1.81041e-07 -7.02907e-06)
(-3.36812e-06 8.7996e-08 -7.00678e-06)
(6.9508e-06 -5.82482e-08 -6.4482e-06)
(-2.87253e-07 -2.78331e-09 -8.8648e-06)
(-3.08048e-07 1.72249e-08 -8.84362e-06)
(9.40528e-08 2.64503e-08 -6.08296e-06)
(5.35975e-07 1.75207e-09 -6.07322e-06)
(2.53346e-06 3.07053e-06 -7.74019e-06)
(-3.91557e-07 -1.74427e-06 -7.40302e-06)
(4.35949e-08 9.65015e-09 -6.93679e-06)
(-4.59416e-07 2.09231e-06 -7.5211e-06)
(1.29196e-06 -3.14346e-07 -1.13921e-05)
(-3.3596e-06 -1.27633e-07 -7.07329e-06)
(-3.31194e-06 1.09501e-07 -7.00031e-06)
(6.90886e-06 -1.15272e-07 -6.46323e-06)
(-2.57744e-07 1.75578e-06 -7.39739e-06)
(1.96812e-06 -3.02408e-06 -7.71141e-06)
(1.49958e-08 1.87248e-08 -6.99927e-06)
(5.185e-08 1.35184e-08 -7.01356e-06)
(3.15509e-08 3.77916e-08 -6.48242e-06)
(1.7452e-08 2.11598e-08 -5.209e-06)
(7.13912e-09 9.19216e-09 -4.08001e-06)
(1.96245e-09 3.04403e-09 -3.10756e-06)
(-3.43701e-10 1.85569e-10 -2.31553e-06)
(-1.81377e-09 -1.65015e-09 -1.70941e-06)
(-2.91208e-09 -3.0794e-09 -1.29326e-06)
(3.466e-09 3.4235e-09 -1.20214e-06)
(-1.63424e-09 -1.72106e-09 -1.10873e-06)
(1.03865e-07 -1.08222e-07 -7.85262e-07)
(-1.15643e-07 -1.15633e-07 -7.83615e-07)
(1.15576e-07 -1.15811e-07 -7.83043e-07)
(-1.03998e-07 -1.08333e-07 -7.8489e-07)
(3.3917e-10 2.46212e-08 -1.17754e-06)
(1.03876e-07 3.63836e-08 -8.39563e-07)
(-9.74356e-08 2.19143e-08 -8.43555e-07)
(-2.94044e-10 -1.43428e-07 -8.34331e-07)
(-1.19417e-07 7.14064e-08 -9.7088e-07)
(1.42776e-10 -1.48483e-07 -1.39556e-06)
(-1.03573e-07 3.63533e-08 -8.39746e-07)
(1.24103e-10 2.467e-08 -1.17783e-06)
(9.75342e-08 2.20778e-08 -8.43718e-07)
(3.91579e-09 -1.46731e-07 -1.38734e-06)
(1.11376e-07 4.92115e-08 -9.88783e-07)
(-9.21788e-09 1.39617e-07 -1.28835e-06)
(-1.20746e-07 8.86821e-08 -9.45985e-07)
(2.99369e-10 -1.43408e-07 -8.34714e-07)
(1.19371e-07 7.15971e-08 -9.70962e-07)
(-6.95616e-11 1.51604e-07 -1.28858e-06)
(5.26951e-11 2.12006e-07 -6.92558e-07)
(2.15793e-07 2.2683e-07 -9.45263e-07)
(-3.86747e-07 -3.91193e-07 -9.47064e-07)
(3.86685e-07 -3.90484e-07 -9.46009e-07)
(-3.81827e-07 -4.19765e-07 -9.90455e-07)
(4.37448e-07 3.32729e-07 -1.25364e-06)
(-4.97303e-07 -4.53614e-07 -1.34528e-06)
(5.92801e-07 4.77961e-07 -1.56969e-06)
(-6.79804e-07 -5.85432e-07 -1.78751e-06)
(8.04721e-07 6.61846e-07 -2.09572e-06)
(-9.29908e-07 -7.8917e-07 -2.4215e-06)
(1.09543e-06 9.07404e-07 -2.8371e-06)
(-1.25957e-06 -1.06994e-06 -3.26501e-06)
(1.47386e-06 1.21857e-06 -3.79889e-06)
(-1.67125e-06 -1.43846e-06 -4.31817e-06)
(1.9427e-06 1.59152e-06 -4.98121e-06)
(-2.15565e-06 -1.90364e-06 -5.56742e-06)
(2.48611e-06 2.01549e-06 -6.35626e-06)
(-2.65599e-06 -2.44314e-06 -6.97995e-06)
(3.03377e-06 2.44837e-06 -7.77675e-06)
(-1.73448e-06 -4.64741e-07 -7.33699e-06)
(4.22723e-08 1.4346e-06 -1.14117e-05)
(1.75686e-06 -2.85327e-07 -7.4731e-06)
(5.04082e-08 2.57485e-08 -7.00258e-06)
(-2.95487e-06 2.12e-06 -7.68645e-06)
(2.58816e-06 -2.24882e-06 -7.03457e-06)
(1.51357e-08 9.93583e-08 -5.56949e-06)
(-2.41091e-06 1.82719e-06 -6.32645e-06)
(2.11102e-06 -1.79899e-06 -5.59488e-06)
(9.49671e-09 7.16992e-08 -4.41771e-06)
(-1.88399e-06 1.47475e-06 -4.96994e-06)
(1.63943e-06 -1.36799e-06 -4.33201e-06)
(5.92759e-09 5.44576e-08 -3.39574e-06)
(-1.42993e-06 1.14067e-06 -3.79564e-06)
(1.23509e-06 -1.01607e-06 -3.2716e-06)
(3.61309e-09 4.14911e-08 -2.54793e-06)
(-1.06294e-06 8.51863e-07 -2.83676e-06)
(9.11049e-07 -7.47604e-07 -2.42478e-06)
(2.44475e-09 2.98624e-08 -1.88105e-06)
(-7.801e-07 6.18566e-07 -2.09601e-06)
(6.66027e-07 -5.53512e-07 -1.78934e-06)
(2.14494e-09 1.91454e-08 -1.38987e-06)
(-5.72681e-07 4.39342e-07 -1.57048e-06)
(4.89991e-07 -4.28516e-07 -1.34209e-06)
(1.82639e-09 2.55038e-08 -1.06006e-06)
(-4.20564e-07 2.91916e-07 -1.26589e-06)
(4.52303e-10 -2.7529e-08 -9.9286e-07)
(4.21075e-07 2.91784e-07 -1.26482e-06)
(-4.89297e-07 -4.28799e-07 -1.34325e-06)
(-1.77735e-09 2.55261e-08 -1.06019e-06)
(-4.36239e-07 3.34298e-07 -1.25478e-06)
(3.81741e-07 -4.17605e-07 -9.90529e-07)
(-7.64568e-10 1.63149e-07 -1.11366e-06)
(-2.17431e-07 2.63645e-07 -9.14623e-07)
(-1.41015e-08 1.9403e-07 -7.00697e-07)
(2.2096e-07 1.83893e-07 -9.8744e-07)
(-4.00562e-07 -3.67676e-07 -8.98498e-07)
(4.20362e-07 2.64438e-07 -1.26872e-06)
(-4.90564e-07 -4.09999e-07 -1.34525e-06)
(5.64323e-07 4.20086e-07 -1.56738e-06)
(-6.5758e-07 -5.27261e-07 -1.79446e-06)
(7.69486e-07 5.97231e-07 -2.09667e-06)
(-8.93631e-07 -7.12493e-07 -2.42791e-06)
(1.05069e-06 8.24762e-07 -2.84375e-06)
(-1.20757e-06 -9.70434e-07 -3.27291e-06)
(1.41909e-06 1.10766e-06 -3.81207e-06)
(-1.59947e-06 -1.31442e-06 -4.3291e-06)
(1.88334e-06 1.44465e-06 -5.0104e-06)
(-2.05271e-06 -1.74339e-06 -5.56613e-06)
(2.43308e-06 1.82196e-06 -6.4206e-06)
(-2.49249e-06 -2.17033e-06 -6.92242e-06)
(2.98344e-06 2.14941e-06 -7.81704e-06)
(-1.71342e-06 -2.70833e-07 -7.38476e-06)
(-4.10454e-07 1.06652e-06 -1.12775e-05)
(7.25324e-07 -9.13877e-07 -7.84026e-06)
(8.27901e-08 7.15668e-08 -6.7817e-06)
(-2.77664e-06 2.96669e-06 -8.37117e-06)
(2.26213e-06 -3.17014e-06 -7.6009e-06)
(2.1096e-08 1.33058e-07 -5.40903e-06)
(-2.20137e-06 2.63181e-06 -6.85675e-06)
(1.89986e-06 -2.45851e-06 -6.01048e-06)
(-5.57875e-09 8.66245e-08 -4.28662e-06)
(-1.66807e-06 2.09252e-06 -5.35993e-06)
(1.46441e-06 -1.8285e-06 -4.63237e-06)
(-1.06281e-08 5.90765e-08 -3.288e-06)
(-1.2566e-06 1.59525e-06 -4.0795e-06)
(1.09584e-06 -1.3509e-06 -3.49113e-06)
(-9.60439e-09 4.29218e-08 -2.46461e-06)
(-9.34893e-07 1.19062e-06 -3.04551e-06)
(8.09508e-07 -9.93432e-07 -2.58684e-06)
(-9.82012e-09 3.00902e-08 -1.81908e-06)
(-6.87198e-07 8.76244e-07 -2.24662e-06)
(5.98262e-07 -7.33233e-07 -1.9094e-06)
(-1.11263e-08 2.01024e-08 -1.34464e-06)
(-5.05278e-07 6.4149e-07 -1.67968e-06)
(4.49214e-07 -5.64578e-07 -1.44388e-06)
(-1.51485e-08 2.78688e-08 -1.02582e-06)
(-3.7155e-07 4.48336e-07 -1.33575e-06)
(3.13877e-07 -4.70155e-07 -1.05722e-06)
(5.0749e-09 1.61782e-07 -1.08634e-06)
(-1.09228e-07 3.68561e-07 -9.52054e-07)
(1.83919e-07 3.24974e-07 -9.93442e-07)
(3.0359e-07 -1.62809e-07 -8.78208e-07)
(1.11653e-10 3.32761e-07 -1.07446e-06)
(3.52628e-08 -7.74068e-08 -7.07247e-07)
(-5.57808e-08 5.42121e-08 -8.07947e-07)
(1.62533e-07 3.88054e-07 -9.48458e-07)
(-5.01954e-07 -3.37813e-07 -8.77195e-07)
(4.14687e-07 3.40918e-07 -1.29454e-06)
(-5.74102e-07 -3.58326e-07 -1.39689e-06)
(-3.86725e-07 5.7527e-07 -1.34895e-06)
(-4.80233e-07 -5.07456e-07 -1.34324e-06)
(2.77057e-08 -4.34871e-09 -1.05554e-06)
(2.86625e-07 -5.10462e-07 -1.25329e-06)
(3.1836e-07 4.36452e-07 -1.27377e-06)
(-4.2015e-07 -4.10889e-07 -9.12692e-07)
(1.57259e-07 1.09907e-08 -1.11619e-06)
(-3.74686e-07 4.30359e-07 -1.01157e-06)
(-3.12944e-08 1.84575e-08 -9.9775e-07)
(1.66757e-08 5.52515e-09 -9.76685e-07)
(-1.45921e-07 -1.17376e-07 -1.34256e-06)
(1.21148e-08 1.11994e-08 -1.05928e-06)
(-6.0017e-09 -9.32708e-09 -1.00534e-06)
(-1.52605e-07 6.22136e-09 -1.38345e-06)
(8.90266e-09 -2.66215e-09 -1.06136e-06)
(-2.9742e-08 -1.06371e-09 -9.94546e-07)
(-3.8257e-07 3.95368e-07 -9.79724e-07)
(-4.14979e-07 -3.95985e-07 -9.52515e-07)
(3.26717e-07 4.31301e-07 -1.26603e-06)
(-4.66134e-07 -4.97587e-07 -1.34243e-06)
(-6.99794e-09 4.93602e-10 -1.20873e-06)
(4.87533e-07 5.86239e-07 -1.57155e-06)
(-6.0858e-07 -6.76863e-07 -1.78953e-06)
(6.85822e-07 7.99427e-07 -2.09698e-06)
(-8.24159e-07 -9.25508e-07 -2.42476e-06)
(-2.70754e-08 2.18735e-09 -2.15968e-06)
(9.45866e-07 1.09093e-06 -2.83906e-06)
(-1.12047e-06 -1.253e-06 -3.26948e-06)
(1.27155e-06 1.47041e-06 -3.80165e-06)
(-1.50828e-06 -1.66018e-06 -4.32375e-06)
(1.03681e-08 4.23421e-09 -3.81351e-06)
(1.65671e-06 1.94012e-06 -4.98358e-06)
(-1.9855e-06 -2.13385e-06 -5.57287e-06)
(2.07743e-06 2.47872e-06 -6.35108e-06)
(-2.49945e-06 -2.6158e-06 -6.9931e-06)
(5.17253e-07 -4.26712e-09 -6.07589e-06)
(9.28044e-08 4.6078e-09 -6.08531e-06)
(3.07191e-08 7.35268e-09 -4.89533e-06)
(3.57398e-08 2.11239e-08 -4.89966e-06)
(-7.8517e-09 1.10572e-08 -3.83346e-06)
(1.43217e-08 1.07338e-08 -3.82406e-06)
(1.71684e-06 1.95985e-06 -5.00731e-06)
(-2.03801e-06 -2.13268e-06 -5.5778e-06)
(8.12502e-08 1.0065e-08 -4.41704e-06)
(-1.65335e-06 2.53178e-06 -5.63474e-06)
(1.56238e-06 -2.82623e-06 -6.30846e-06)
(2.16644e-06 2.52667e-06 -6.39731e-06)
(-2.50905e-06 -2.59097e-06 -6.95956e-06)
(1.24684e-07 2.47988e-08 -5.5612e-06)
(-2.20577e-06 3.15988e-06 -7.11356e-06)
(1.73722e-06 -3.34578e-06 -7.61269e-06)
(3.4854e-06 2.14643e-06 -8.56943e-06)
(-3.17543e-07 -1.59977e-06 -7.18052e-06)
(1.49931e-07 -2.88409e-06 -1.14001e-05)
(-3.61961e-06 -2.17923e-07 -7.22494e-06)
(-3.36018e-06 -8.8413e-09 -6.86271e-06)
(6.59388e-06 -1.03659e-06 -6.66465e-06)
(-4.40781e-07 -2.77035e-07 -8.63056e-06)
(7.32488e-08 4.88119e-08 -5.7628e-06)
(1.30772e-07 1.5784e-06 -5.21667e-06)
(-1.65382e-06 1.96177e-06 -7.27981e-06)
(3.34545e-07 1.32445e-07 -4.57588e-06)
(1.02596e-06 -2.73423e-06 -6.28913e-06)
(-1.06551e-06 1.87863e-06 -5.67959e-06)
(7.34168e-08 6.24241e-11 -3.57152e-06)
(8.61674e-07 -1.78507e-06 -4.9717e-06)
(-7.70922e-07 1.46385e-06 -4.33105e-06)
(4.28117e-09 -2.04981e-08 -2.72721e-06)
(6.34843e-07 -1.27204e-06 -3.81043e-06)
(-5.93183e-07 1.11281e-06 -3.26058e-06)
(-6.10124e-09 -1.44907e-08 -2.04404e-06)
(4.46524e-07 -9.12512e-07 -2.8347e-06)
(-4.29562e-07 8.20487e-07 -2.39556e-06)
(-1.44068e-08 -1.67506e-08 -1.50822e-06)
(3.43417e-07 -6.7076e-07 -2.09433e-06)
(-3.06741e-07 6.267e-07 -1.7639e-06)
(-2.16665e-08 -1.77059e-08 -1.11664e-06)
(2.71464e-07 -4.75542e-07 -1.5521e-06)
(-1.86865e-07 4.85934e-07 -1.33165e-06)
(-2.67727e-08 -3.29358e-08 -8.60642e-07)
(2.61447e-07 -3.37172e-07 -1.21217e-06)
(9.46563e-08 9.51288e-08 -8.85561e-07)
(6.81561e-08 1.5013e-07 -8.5218e-07)
(-1.47811e-08 -2.1081e-07 -1.11441e-06)
(-7.48346e-09 -6.05904e-09 -1.01726e-06)
(1.21448e-07 3.6327e-07 -1.19632e-06)
(-5.17416e-08 -3.69713e-07 -1.42494e-06)
(6.07668e-07 4.24037e-07 -1.59421e-06)
(-7.43438e-07 -4.79558e-07 -1.84899e-06)
(8.51942e-07 5.66436e-07 -2.14274e-06)
(-1.00605e-06 -6.53267e-07 -2.49728e-06)
(-6.50548e-07 1.06114e-06 -2.42281e-06)
(-8.46927e-07 -9.30896e-07 -2.43048e-06)
(3.00639e-08 -3.57091e-09 -1.87668e-06)
(5.5938e-07 -9.17621e-07 -2.10077e-06)
(7.04445e-07 7.99992e-07 -2.09962e-06)
(-6.24979e-07 -6.83403e-07 -1.79475e-06)
(1.97601e-08 -4.73602e-09 -1.38666e-06)
(-4.82284e-07 7.76729e-07 -1.7863e-06)
(-1.25572e-08 2.43625e-09 -1.59672e-06)
(-6.70763e-09 -8.94428e-09 -1.51992e-06)
(-1.99265e-10 -5.27986e-09 -1.14746e-06)
(-7.35251e-09 -3.10436e-08 -1.01151e-06)
(-8.30882e-09 -3.55185e-08 -1.19642e-06)
(2.96222e-08 2.43917e-08 -1.14041e-06)
(2.28319e-08 3.63297e-08 -1.09182e-06)
(2.20227e-08 1.20592e-08 -1.28384e-06)
(-7.18693e-08 1.62892e-08 -1.2891e-06)
(-1.80028e-08 2.76329e-08 -1.04454e-06)
(1.75389e-07 1.65909e-08 -9.70537e-07)
(2.65345e-07 -2.17085e-08 -7.28683e-07)
(2.23573e-07 3.49806e-07 -1.20252e-06)
(7.71622e-08 1.11766e-07 -6.71545e-07)
(3.57472e-07 2.2411e-08 -9.33187e-07)
(1.35865e-07 8.58921e-08 -1.03688e-06)
(9.21604e-08 8.11068e-09 -1.11783e-06)
(5.7346e-08 -1.33284e-08 -1.44125e-06)
(-2.99398e-08 -8.79251e-09 -1.70581e-06)
(-9.91288e-08 1.38368e-08 -1.69244e-06)
(-1.33134e-07 1.81032e-08 -2.28518e-06)
(-6.24094e-08 -1.64841e-08 -2.32011e-06)
(5.32287e-08 -2.84278e-08 -1.9424e-06)
(-9.39912e-08 -5.22494e-07 -1.91711e-06)
(7.62071e-09 -1.60021e-08 -1.8097e-06)
(1.51884e-07 5.93045e-07 -2.19225e-06)
(-1.36598e-07 -7.18475e-07 -2.5862e-06)
(1.17164e-06 7.67418e-07 -2.91851e-06)
(-1.36621e-06 -8.84189e-07 -3.36312e-06)
(1.58124e-06 1.03896e-06 -3.91973e-06)
(-1.85007e-06 -1.17461e-06 -4.44878e-06)
(-1.21126e-06 1.9303e-06 -4.34318e-06)
(-1.55345e-06 -1.66504e-06 -4.33402e-06)
(5.70992e-08 1.42874e-09 -3.39226e-06)
(1.00902e-06 -1.67382e-06 -3.80642e-06)
(1.31236e-06 1.47694e-06 -3.81294e-06)
(-1.15285e-06 -1.25841e-06 -3.27692e-06)
(4.22488e-08 -1.9847e-09 -2.54337e-06)
(-8.88127e-07 1.44185e-06 -3.27356e-06)
(-1.59162e-08 8.03296e-09 -2.90849e-06)
(-5.42617e-09 -8.89181e-09 -2.76468e-06)
(-8.55925e-09 -1.01044e-08 -2.05804e-06)
(-1.24522e-08 4.27341e-09 -1.82081e-06)
(-3.10707e-08 -9.99544e-08 -2.14006e-06)
(6.56686e-10 -4.46663e-08 -2.10173e-06)
(-6.51729e-09 -3.16013e-08 -2.00921e-06)
(-2.174e-08 -6.88342e-08 -1.57924e-06)
(4.7452e-09 -1.81463e-08 -1.51084e-06)
(2.93946e-09 -1.31851e-08 -1.44803e-06)
(1.28613e-07 4.46979e-07 -1.60936e-06)
(4.43416e-09 -9.63741e-09 -1.33626e-06)
(-1.07042e-08 -1.48232e-08 -1.34224e-06)
(-2.65985e-09 3.41856e-08 -1.47556e-06)
(3.11557e-09 -7.8115e-08 -1.29889e-06)
(1.89974e-09 -2.19102e-08 -1.05068e-06)
(-1.00447e-08 1.92563e-07 -9.67869e-07)
(2.2639e-08 3.63593e-07 -9.29426e-07)
(-2.60205e-07 6.63253e-07 -8.87454e-07)
(-7.33991e-09 5.4989e-08 -9.55158e-07)
(-1.15021e-09 -7.5705e-09 -8.17041e-07)
(-7.27129e-10 1.61702e-08 -1.13649e-06)
(-3.4662e-09 -2.59351e-09 -1.12671e-06)
(4.9836e-07 -4.51047e-07 -1.34495e-06)
(1.44643e-09 -9.90903e-09 -1.20566e-06)
(-5.91357e-07 4.81175e-07 -1.57054e-06)
(5.73941e-07 4.38739e-07 -1.56966e-06)
(-6.64235e-07 -5.53079e-07 -1.79015e-06)
(-1.34971e-09 1.92157e-08 -1.3903e-06)
(6.82627e-07 -5.83845e-07 -1.78787e-06)
(2.76388e-09 -1.67792e-08 -1.59314e-06)
(-8.02605e-07 6.65439e-07 -2.0963e-06)
(7.83057e-07 6.18235e-07 -2.0962e-06)
(-9.07445e-07 -7.46221e-07 -2.42459e-06)
(-1.06328e-11 3.00517e-08 -1.88201e-06)
(9.35376e-07 -7.90245e-07 -2.42406e-06)
(4.30246e-09 -2.46338e-08 -2.15571e-06)
(-1.09188e-06 9.09357e-07 -2.83741e-06)
(1.06896e-06 8.53184e-07 -2.83958e-06)
(-1.22841e-06 -1.01393e-06 -3.26897e-06)
(1.81744e-09 4.18855e-08 -2.54992e-06)
(1.26949e-06 -1.07605e-06 -3.27169e-06)
(6.51729e-09 -1.86767e-08 -2.89544e-06)
(-1.46841e-06 1.21513e-06 -3.79817e-06)
(1.44103e-06 1.1466e-06 -3.80384e-06)
(-1.62781e-06 -1.36646e-06 -4.32312e-06)
(4.83406e-09 5.53522e-08 -3.39925e-06)
(1.68831e-06 -1.45455e-06 -4.33286e-06)
(8.49528e-09 2.81492e-08 -3.80985e-06)
(-1.93474e-06 1.56928e-06 -4.97401e-06)
(1.90213e-06 1.49408e-06 -4.99024e-06)
(-2.09235e-06 -1.80555e-06 -5.56923e-06)
(1.0347e-08 7.35101e-08 -4.42244e-06)
(2.17904e-06 -1.93108e-06 -5.59801e-06)
(3.59496e-09 1.83639e-07 -4.88402e-06)
(-2.47202e-06 1.93389e-06 -6.32476e-06)
(2.43303e-06 1.88212e-06 -6.36839e-06)
(-2.56528e-06 -2.29062e-06 -6.97791e-06)
(1.65927e-08 1.02234e-07 -5.57006e-06)
(2.665e-06 -2.44533e-06 -7.03454e-06)
(-2.1184e-08 6.14522e-07 -6.05724e-06)
(-3.00625e-06 2.24534e-06 -7.68592e-06)
(2.96409e-06 2.24509e-06 -7.75823e-06)
(-1.742e-06 -3.53461e-07 -7.41855e-06)
(-3.56151e-09 2.73194e-08 -6.99024e-06)
(1.7279e-06 -4.23323e-07 -7.4216e-06)
(-1.18032e-07 6.91208e-06 -6.49763e-06)
(-2.7182e-07 -3.3185e-06 -7.04415e-06)
(-2.29467e-07 -3.41984e-06 -6.78789e-06)
(-3.21605e-07 5.15051e-06 -6.19275e-06)
(-3.36288e-06 1.35502e-06 -8.56001e-06)
(7.33698e-07 4.96436e-07 -5.73605e-06)
(5.24234e-07 -4.19533e-06 -7.48292e-06)
(-2.65607e-07 -9.55685e-07 -5.777e-06)
(-5.36674e-07 -5.75961e-07 -5.53033e-06)
(-1.97585e-07 1.88346e-06 -6.82672e-06)
(-2.93823e-06 -1.97316e-06 -6.865e-06)
(6.57768e-07 -3.72176e-08 -6.09162e-06)
(-1.07619e-06 7.54235e-08 -6.49785e-06)
(-1.51994e-06 -3.36681e-07 -6.54503e-06)
(-3.50169e-07 -3.86321e-07 -5.91948e-06)
(-4.58775e-07 -7.31216e-08 -5.33713e-06)
(-5.77008e-07 1.04403e-07 -5.22943e-06)
(-3.12453e-07 5.90512e-08 -4.05337e-06)
(-1.64464e-07 -1.81912e-08 -4.14103e-06)
(7.72564e-08 -6.47896e-08 -3.52175e-06)
(-9.29562e-08 -1.9615e-08 -3.1284e-06)
(-1.91788e-07 3.04709e-08 -3.07087e-06)
(-1.81475e-07 8.59556e-09 -3.04848e-06)
(-1.26263e-07 4.53403e-09 -2.27377e-06)
(-1.00847e-07 1.79054e-09 -1.68869e-06)
(-8.32666e-08 -1.49321e-09 -1.28854e-06)
(-1.94784e-08 -4.71879e-09 -1.04079e-06)
(2.07294e-07 -1.74082e-08 -9.59586e-07)
(2.30066e-07 -8.87147e-09 -7.04559e-07)
(2.28323e-07 2.28765e-07 -9.77424e-07)
(2.62856e-07 -2.28783e-07 -8.64622e-07)
(3.36483e-07 2.48119e-09 -9.34119e-07)
(3.20754e-07 1.58309e-09 -9.39623e-07)
(2.42534e-07 -2.32663e-07 -9.22403e-07)
(2.44206e-07 2.29228e-07 -9.52982e-07)
(1.62998e-07 -5.30311e-10 -1.11639e-06)
(-1.44047e-07 9.33396e-10 -8.32827e-07)
(4.59946e-08 -9.61556e-10 -1.02419e-06)
(-1.66539e-08 -1.72529e-08 -9.96894e-07)
(-1.16196e-08 -1.09352e-08 -1.00526e-06)
(4.17641e-08 4.15892e-08 -1.03452e-06)
(-1.25544e-07 3.67065e-09 -8.12614e-07)
(-2.90444e-10 4.78292e-08 -1.02086e-06)
(-1.48354e-10 -1.68424e-08 -1.00766e-06)
(-3.39116e-10 -2.07299e-08 -1.00544e-06)
(1.46917e-10 -2.6445e-10 -1.11696e-06)
(-7.97354e-08 7.77255e-08 -7.68852e-07)
(-9.13054e-08 -9.08761e-08 -7.74738e-07)
(-9.06519e-08 9.16338e-08 -7.73449e-07)
(-8.05488e-08 -7.70257e-08 -7.70884e-07)
(8.01761e-08 -7.81295e-08 -7.68537e-07)
(-6.69666e-08 -6.61322e-08 -7.64653e-07)
(2.75781e-09 2.75155e-09 -1.18469e-06)
(9.13842e-08 9.09944e-08 -7.72276e-07)
(-7.77099e-08 8.12047e-08 -7.70183e-07)
(-7.78798e-08 -8.06999e-08 -7.70406e-07)
(2.77375e-09 -2.28806e-09 -1.18498e-06)
(9.09103e-08 -9.12995e-08 -7.73493e-07)
(1.09955e-10 1.32384e-10 -1.12458e-06)
(2.51032e-10 2.93764e-10 -1.21159e-06)
(2.87904e-10 4.70505e-09 -1.20653e-06)
(2.64002e-10 9.24147e-09 -1.06201e-06)
(-2.98629e-09 7.80594e-09 -1.05911e-06)
(2.98819e-09 -3.61692e-08 -9.88776e-07)
(-1.37897e-09 -8.8675e-09 -1.20882e-06)
(-6.31171e-10 -1.60588e-08 -1.60142e-06)
(8.48517e-10 -2.06253e-08 -2.16854e-06)
(3.33728e-09 -1.96758e-08 -2.9109e-06)
(7.96763e-09 -3.72749e-09 -3.82457e-06)
(9.87674e-09 -1.29918e-09 -3.63601e-06)
(-2.49948e-09 1.20214e-07 -3.2351e-06)
(-4.22411e-08 -2.39425e-07 -3.79455e-06)
(3.35675e-08 -9.63642e-08 -3.72728e-06)
(-3.04086e-08 -7.41062e-09 -3.56155e-06)
(2.36865e-07 1.12931e-06 -3.96073e-06)
(-3.33324e-07 -1.23004e-06 -4.54553e-06)
(2.11119e-06 1.38523e-06 -5.1887e-06)
(-2.45262e-06 -1.54753e-06 -5.68016e-06)
(2.78901e-06 1.79125e-06 -6.78745e-06)
(-3.42111e-08 -7.07343e-08 -5.53558e-06)
(-7.99792e-07 -1.65267e-06 -5.68461e-06)
(-1.44793e-07 -3.97544e-08 -4.52469e-06)
(2.21772e-07 1.56227e-06 -5.21233e-06)
(2.27918e-10 -3.31151e-08 -4.31459e-06)
(4.18127e-08 -1.34519e-07 -4.62454e-06)
(7.86432e-08 2.28868e-08 -4.70283e-06)
(-2.96289e-07 1.64515e-08 -4.01254e-06)
(-5.26967e-07 3.12178e-08 -5.15524e-06)
(-1.01075e-06 3.63062e-08 -6.45429e-06)
(-2.32945e-06 -3.11276e-08 -8.00266e-06)
(-2.39505e-06 -3.87142e-07 -7.9626e-06)
(-5.56132e-06 1.32903e-06 -7.97121e-06)
(-2.33243e-06 -6.27863e-07 -6.92034e-06)
(-2.00062e-06 -2.29046e-06 -6.42646e-06)
(-4.28037e-08 -3.41059e-07 -6.72345e-06)
(-7.77482e-07 -3.95741e-07 -7.37298e-06)
(6.95774e-07 -5.18889e-06 -6.16727e-06)
(-4.8068e-06 -1.46111e-06 -6.99342e-06)
(-2.91986e-06 1.89119e-07 -9.99403e-06)
(-1.40818e-06 -2.17158e-06 -9.02453e-06)
(2.11621e-06 1.57569e-06 -8.90604e-06)
(1.69177e-07 7.7369e-08 -9.19605e-06)
(9.39194e-08 7.36167e-08 -5.89632e-06)
(-2.17514e-06 1.90489e-06 -7.48211e-06)
(2.29213e-06 1.59478e-06 -7.8549e-06)
(1.47762e-08 2.08078e-07 -9.41149e-06)
(-2.81958e-07 -1.83327e-07 -6.07215e-06)
(-2.37648e-06 2.09934e-06 -7.74778e-06)
(2.30079e-06 1.88832e-06 -7.88952e-06)
(4.57205e-09 2.21358e-07 -9.45647e-06)
(-3.11823e-07 -2.18896e-07 -6.09802e-06)
(-2.31985e-06 1.90925e-06 -7.65121e-06)
(2.29418e-06 2.14965e-06 -7.98922e-06)
(1.9094e-08 2.06596e-07 -9.43546e-06)
(-5.02508e-07 -4.92744e-07 -6.23998e-06)
(-2.21412e-06 1.59065e-06 -7.58378e-06)
(1.63736e-06 2.18117e-06 -8.5077e-06)
(-1.38519e-06 -7.74466e-07 -1.1771e-05)
(1.19078e-06 1.23524e-06 -9.27211e-06)
(9.07387e-07 -1.07386e-06 -9.06621e-06)
(2.59034e-06 1.14781e-06 -1.148e-05)
(-1.21787e-06 -4.50739e-06 -1.12387e-05)
(-6.82205e-07 -2.43747e-06 -8.96065e-06)
(3.8221e-07 4.00112e-07 -6.58906e-06)
(1.48639e-06 -1.11448e-06 -9.29603e-06)
(-4.58868e-06 2.18888e-06 -8.2906e-06)
(-2.29709e-07 -1.369e-07 -7.4284e-06)
(-2.66948e-06 -3.55636e-06 -7.82833e-06)
(2.53282e-06 2.01186e-06 -8.25775e-06)
(2.41565e-06 -3.8464e-08 -6.46518e-06)
(2.23493e-06 -2.37765e-06 -8.56235e-06)
(2.82128e-06 -2.36334e-06 -9.78253e-06)
(1.27161e-06 -3.40203e-06 -6.66946e-06)
(2.20168e-07 1.20466e-06 -8.11222e-06)
(1.03675e-06 -1.79872e-06 -6.52041e-06)
(1.5239e-06 -1.19612e-06 -6.76405e-06)
(2.42124e-06 1.89502e-06 -8.73614e-06)
(-8.94194e-07 -3.44959e-06 -7.58672e-06)
(2.16647e-07 -4.8687e-07 -5.77853e-06)
(1.4907e-06 2.23536e-06 -7.14502e-06)
(-1.02153e-06 -2.38226e-06 -6.25429e-06)
(1.24965e-08 -1.59341e-07 -4.71816e-06)
(1.03916e-06 1.8825e-06 -5.60448e-06)
(-8.23396e-07 -1.69574e-06 -4.94267e-06)
(-2.54973e-09 -8.05318e-08 -3.67379e-06)
(7.79528e-07 1.46054e-06 -4.30894e-06)
(-6.09779e-07 -1.24309e-06 -3.78595e-06)
(1.17898e-09 -6.25246e-08 -2.79347e-06)
(5.86255e-07 1.09641e-06 -3.24409e-06)
(-4.48088e-07 -9.17625e-07 -2.83311e-06)
(1.52978e-09 -4.90237e-08 -2.07689e-06)
(4.34173e-07 8.12043e-07 -2.40304e-06)
(-3.32226e-07 -6.74847e-07 -2.09063e-06)
(-1.36327e-09 -3.00847e-08 -1.53405e-06)
(3.11004e-07 6.0272e-07 -1.77113e-06)
(-2.64185e-07 -5.0035e-07 -1.5569e-06)
(-1.72227e-08 2.91459e-09 -1.13238e-06)