/*--------------------------------*- C++ -*----------------------------------*\
| =========                 |                                                 |
| \\      /  F ield         | OpenFOAM: The Open Source CFD Toolbox           |
|  \\    /   O peration     | Version:  2306                                  |
|   \\  /    A nd           | Website:  www.openfoam.com                      |
|    \\/     M anipulation  |                                                 |
\*---------------------------------------------------------------------------*/
FoamFile
{
    version     2.0;
    format      ascii;
    arch        "LSB;label=32;scalar=64";
    class       volScalarField;
    location    "2.8";
    object      gradTx;
}
// * * * * * * * * * * * * * * * * * * * * * * * * * * * * * * * * * * * * * //

dimensions      [0 -1 0 1 0 0 0];

internalField   nonuniform List<scalar> 
5322
(
-0.0184514
0.000946361
0.00102439
-2.83117e-07
-6.95637e-05
-6.30552e-05
-4.61574e-05
-3.41001e-05
-2.71012e-05
-1.9222e-05
-1.34857e-05
9.42982e-05
0.000138708
-0.00190025
-3.66069e-05
0.00346077
-0.00270684
3.36299e-07
-0.00216621
0.00174493
-0.00234633
0.00269221
-0.00284902
0.0038392
-0.00396599
0.0050516
-0.00508865
0.00686471
-0.00687391
0.00871217
-0.00827802
0.0116498
-0.00863242
0.0160334
0.0012016
0.0231219
0.0163849
-0.00649677
0.0180355
-0.00106762
-0.0171157
0.0171673
-0.00103987
-0.0182554
0.0181592
-0.000622055
-0.019401
0.0170683
-0.000406914
-0.0203637
-0.0202052
-0.0290549
-0.00955558
0.0185149
-0.00121804
-0.0302867
-0.000923352
0.0288022
-0.000348645
-0.0287968
-0.00012543
0.0280528
-0.000149184
-0.0282819
2.38158e-05
0.0276734
0.000404699
-0.0280093
0.00143961
0.0230849
0.00128401
-0.0224111
0.0254446
-0.0262382
0.0252495
-0.0257233
0.0257474
-0.0257542
0.0293341
-0.0214521
0.0101548
-0.0153364
-0.0102935
0.0163014
0.0014
-0.00749681
0.0117102
-0.0322501
-0.0104555
0.0358401
-0.00161625
0.000395163
0.000696649
0.00422194
0.0217597
-0.00445133
0.00015283
-0.00172116
0.0120531
-0.028498
-0.0284478
0.0591243
-0.00172718
0.0168279
0.0274624
0.000449907
0.000274518
0.000225852
0.000113871
3.98337e-05
6.36957e-06
-7.55859e-06
-1.74638e-05
-2.74566e-05
2.98473e-05
-1.48055e-05
-0.00112589
-0.00109594
0.000132685
0.000688264
3.15232e-05
0.0010269
-0.00123103
-9.43871e-05
-0.000300302
0.00191307
0.00156286
0.000421649
0.00122622
0.000780043
0.000588091
0.00131726
0.000650352
0.000699123
0.00134007
0.00056602
0.00111155
0.00152426
0.00172114
7.29297e-05
-0.00127321
6.22346e-05
0.000865738
-0.00105988
-0.00115027
0.000179799
0.000457116
0.000243341
-0.000899345
-0.000990549
0.000203945
0.000276103
0.00033856
-0.000978884
-0.000923301
0.000206012
0.00017403
0.000547214
-0.00105138
0.00138055
-0.00306322
-0.00407196
0.00386938
-0.00491728
-0.000234431
-0.00304736
4.82954e-05
0.00282933
-0.000664824
0.00315696
0.00155886
0.00233263
-0.00367546
0.00139486
-0.00317066
0.00230406
0.00299724
-0.00403448
0.000220501
-0.00342884
0.0034646
0.00430839
-0.00524418
0.000163731
-0.0043957
0.00488291
0.0059665
-0.00708761
0.000253351
-0.00591775
0.00672719
0.00817592
-0.00961962
0.000348595
-0.00803724
0.00899743
0.0109748
-0.0129346
0.000451819
-0.010832
0.0116176
0.0143208
-0.0170904
0.000584735
-0.0142937
0.0144077
0.0180737
-0.0218252
0.000791601
-0.0180188
0.016807
0.020945
-0.00395826
0.0115294
-0.0282279
-0.0287874
0.0594086
-0.00245515
-0.00263289
0.00080387
0.00458098
0.0216535
-0.00334664
0.000372606
-0.00392664
0.0110424
-0.0287145
-0.0283072
0.0590501
-0.00220294
0.0168215
0.000128169
0.000443163
0.000269666
0.000149162
6.10181e-05
1.67731e-05
-2.93762e-06
-1.55023e-05
-2.48896e-05
2.96239e-05
-1.39678e-05
0.000887732
-0.000988401
0.000987829
-0.000888874
2.89889e-06
0.000887828
-0.000832783
-2.5132e-06
-0.00102066
1.22031e-06
-0.00088524
1.06071e-06
0.000833625
3.34683e-05
0.00095193
-7.87853e-05
-0.00103202
2.55871e-06
0.00102026
-5.94543e-07
4.50385e-07
0.00184439
-0.00330553
0.003305
-0.00326348
0.00373887
-0.00425045
0.00506668
-0.00581029
0.00687796
-0.00794793
0.00936263
-0.0107656
0.0125971
-0.0142842
0.0166043
-0.0184244
0.0212488
-0.0227007
0.0259297
-0.0148246
0.000361302
0.0150159
0.000430839
-0.0252553
0.0221211
0.000129365
-0.0206061
0.0180429
8.11684e-05
-0.0161025
0.0140122
5.06632e-05
-0.0122216
0.0105563
3.08811e-05
-0.00908497
0.00778674
2.08953e-05
-0.00666752
0.00569253
1.83328e-05
-0.00489471
0.00418796
1.56102e-05
-0.00359457
3.86584e-06
0.00359893
-0.00418202
-1.5191e-05
-0.00372854
0.00326274
-6.53477e-06
-0.00185839
-0.000120526
0.00188854
-0.00342361
0.00359284
-0.00419286
0.00482327
-0.00562034
0.0065768
-0.00763787
0.00898027
-0.0103211
0.012129
-0.0136707
0.0160969
-0.0175446
0.0207956
-0.0213034
0.0254995
-0.0146446
-0.00350815
0.00619935
0.000707608
-0.023732
0.0193344
0.000180307
-0.0188151
0.0162381
-4.76816e-05
-0.014257
0.0125163
-9.08389e-05
-0.0107402
0.00936619
-8.20888e-05
-0.00799054
0.00691887
-8.39327e-05
-0.00587349
0.00511335
-9.50963e-05
-0.00431862
0.00383944
-0.000129474
-0.00317564
0.00268271
4.33752e-05
-0.000933572
0.00157196
0.00259478
9.54303e-07
0.000301392
-0.000476759
0.00138917
-0.00429021
0.00354433
-0.00490685
-0.00330534
-0.00410455
0.000236801
0.00244979
0.00272102
-0.00359102
0.00134409
-0.00320244
-0.000267473
0.000142528
-0.00124719
0.000103545
-5.12966e-05
-0.00130432
7.60911e-05
-0.000254205
-0.00326983
-0.00354683
0.00279245
-0.00398405
-5.98114e-05
0.00416695
-0.00520153
0.00586172
-0.0070441
-0.000231413
0.00808432
-0.00957665
0.010868
-0.0128913
8.86166e-05
0.0141599
-0.0169701
0.0177558
-0.0213628
0.00442096
0.0007932
0.000262556
0.000305468
-6.71086e-05
0.000122408
0.0146738
-0.0174189
0.000694446
-0.0141312
0.0133537
0.0185166
-0.0214449
0.00106568
-0.0188527
0.0148481
0.0297897
-0.00271404
0.00128146
-0.0309368
-0.0287195
0.056358
-0.00376736
0.000626058
0.00111771
-0.0141353
0.00285936
0.00876889
-0.00910694
0.000627494
0.00736473
-0.00658908
3.65912e-05
0.00542601
-0.00506994
-5.21474e-05
0.00381644
-0.00367147
-0.000123135
0.00293519
-0.00262172
-0.000185183
0.00232021
-0.00159714
-0.000228827
0.00223459
0.000809028
0.000582531
-0.000126334
-6.39612e-05
0.00103802
-0.000442236
0.00519374
-0.00635417
0.00728155
-0.00859868
-0.00556024
-0.00723869
0.000256956
0.00478102
0.0060209
-0.0053417
0.00016889
-0.00412208
-0.000107327
-5.73302e-05
-1.70312e-06
-6.28419e-05
-7.10156e-05
0.000253181
0.000195144
0.000188228
-0.000614268
-0.00015387
0.00149906
0.00226791
0.00191088
0.000659506
0.00305532
0.00116124
0.000787696
0.000490137
-0.000255896
-0.000847254
-0.0011379
-0.000533413
0.000454946
-0.000803344
6.51342e-05
0.00129815
-0.00116751
0.010014
-0.011677
0.0135149
-0.0158125
-0.0103526
-0.0132773
0.000488028
0.00862414
0.0112168
-0.00985341
0.000361101
-0.00759083
-0.000136036
-4.63775e-05
-7.3156e-05
-0.000106429
-0.000265561
5.6127e-06
-5.57033e-05
-0.000185812
4.05573e-05
2.51236e-05
0.00109926
3.78988e-05
-9.1489e-05
-2.27338e-05
2.66288e-05
1.62371e-05
-8.58522e-05
0.000193496
-0.00222397
-6.27343e-05
-9.83085e-06
-6.21478e-06
-2.96257e-05
0.00425949
1.23626e-05
-0.00505433
0.00490548
-0.00567722
-1.1536e-05
0.00583442
2.36229e-05
-0.00685987
0.00669279
-0.00775594
-9.08788e-08
0.00799466
3.67732e-05
-0.0093323
0.00913639
-0.0104992
1.55337e-05
0.0108503
5.57033e-05
-0.0125505
0.0123165
-0.0139129
4.13167e-05
0.01443
7.26093e-05
-0.0165362
0.0162575
-0.0178834
8.84361e-05
0.0186243
3.07261e-05
-0.0211283
0.0207951
-0.0219255
0.000141818
0.0227778
-0.00018106
-0.0256945
0.0253341
-0.0148889
-3.04403e-05
0.0147684
-0.00100882
-0.00232324
-0.00196126
-0.00274876
-0.0287426
0.00627093
0.00448063
-0.00227015
-0.00458696
-0.00168876
-0.0251131
0.00562195
-0.00919819
-0.012991
-0.0029929
-0.00392116
-0.00493169
-0.00267054
-0.00140567
0.000660312
-0.000794498
-0.00163921
-0.00155107
-0.00107917
-0.000861938
-0.00071168
-0.000166482
0.00177174
0.00196638
0.00195148
0.00224663
0.00287592
0.00274149
0.00207294
0.00208723
0.00139315
-0.00123117
0.000393116
-0.000142341
-9.93127e-05
0.000356958
-0.00107303
-2.48243e-06
-1.26798e-06
-2.89843e-06
1.2557e-06
-0.000681499
-0.000780388
-0.000774803
-0.000688452
0.000685266
-0.000572364
2.3571e-05
0.000781061
-0.000664188
-0.000665639
2.37072e-05
0.000777011
9.39789e-07
2.14557e-06
2.46072e-06
2.25643e-06
-2.55238e-05
2.55401e-05
-1.17861e-05
-5.39463e-06
7.25228e-06
2.85238e-05
6.80994e-05
8.44166e-05
-2.1363e-05
-0.000361035
0.000286901
-0.000259903
0.00202449
-0.00284893
0.0180444
-0.0209625
0.0238377
-0.000292403
-0.00683583
-0.00123755
0.00189548
1.94801e-06
0.000357373
0.000672164
-0.00253238
-0.00450399
-0.00863889
-0.0199099
-0.0204705
-0.0475326
-0.0199353
-0.0170993
-0.000365844
-0.00664514
0.00594679
-0.0410837
-0.0249561
-0.0120357
0.0180872
0.00144596
0.00080273
-0.0185909
0.0195908
0.000126293
-0.00240989
-0.0203118
0.0196648
3.90774e-05
-0.00266515
-0.0198278
0.0196084
0.000163197
-0.00429494
-0.0189241
0.0139946
-0.0118392
0.0101776
0.00775544
0.0221397
-0.0104091
-0.00583081
0.00326675
0.0127042
-0.0392195
-0.00196332
-0.0228161
0.021648
0.0206466
0.019102
0.0241135
0.0108685
0.00188177
0.00886113
0.0130247
0.0206943
-0.00764268
0.00185168
0.012741
-0.00873106
0.000106807
0.0088817
-0.00703758
-2.17926e-05
0.00666263
-0.00521178
1.00768e-05
0.00501073
-0.00382981
1.30751e-05
0.00371088
-0.00283954
-1.16519e-05
0.00265815
-0.00225799
-0.000147203
0.00173145
-0.00211855
-0.000753353
5.82163e-05
-0.00259496
-0.00160025
0.000945688
-0.0026815
0.00322302
-0.00381336
0.000125475
-0.00359675
0.00342057
-3.5787e-05
-0.00188445
0.000121539
0.00186194
-0.00184141
9.00306e-06
1.28989e-05
4.70517e-06
5.08511e-06
9.80653e-06
1.45866e-05
4.02472e-05
5.97846e-05
9.51649e-05
-0.000318648
4.88487e-05
-0.000130998
0.00165791
-0.001706
7.96702e-05
9.66102e-05
0.000532093
0.000536613
0.00648248
0.00832753
-0.000230915
-0.0059022
0.00673634
0.000351233
-0.00802284
0.00898698
0.00045704
-0.010852
0.011575
0.000594598
-0.0144492
0.0143114
0.000793929
-0.0184869
0.000156
0.000463999
-0.00313412
-0.00312528
-0.00812309
-0.0041825
-0.00242948
-0.00153409
-0.00108885
-0.000885508
-0.000730769
-0.000193219
0.00173091
0.00190105
0.00186821
0.00274458
0.00166016
-0.000192513
-0.000696074
-0.000884394
-0.00111924
-0.00155645
-0.00240704
-0.00411509
-0.00779092
-0.0179716
-0.0188736
-0.0326877
-0.0260822
-0.00861246
-0.0085955
0.0164727
0.00178555
-0.00205205
-0.00163901
0.00781052
0.000277256
-0.00632777
-0.00604876
0.00621281
-8.28671e-06
-0.00694803
-0.0066423
0.00547278
-5.24203e-07
-0.00862928
-0.00822785
0.00272521
-0.011735
0.00798877
0.00775475
0.00810252
0.00708467
-0.0100739
0.000766965
0.00362521
-0.0116716
0.00270547
-0.0109628
0.0126535
-0.0279051
-0.00124478
-0.0268612
0.0200191
0.0212379
0.0206176
0.0202209
0.0205354
0.0201165
-0.0290804
-0.00149705
-0.0262297
0.0171336
0.0183754
0.0172082
0.0181435
-0.00124283
-0.0279806
-0.0277976
0.0126873
0.0206707
0.018948
0.0181422
0.0226316
0.0223287
0.0174659
0.00506928
0.0106487
0.00446495
-0.00245567
0.00433615
0.00090952
-0.00317915
0.00255878
0.000296896
-0.0026172
0.0019596
0.000191788
-0.00207244
0.00146025
0.00012186
-0.00154089
0.00112794
0.000104738
-0.00116911
0.00079718
2.19019e-05
-0.000897888
0.000561144
-8.95631e-05
-0.000863448
0.000243292
-0.000531018
-0.00132897
-0.000617417
-0.0018797
-0.00226902
-0.00228895
-0.00154018
-0.00111989
-0.00173294
-7.17456e-05
0.00127987
-0.000959617
9.51914e-05
0.00105745
-0.00105309
4.49708e-05
0.00110116
-0.00113032
-3.84956e-05
-7.84808e-05
-0.00199972
-6.83365e-06
-0.00338531
5.02143e-06
-0.00364602
2.30632e-05
0.00424162
-0.00430328
-1.84674e-06
-0.00486075
0.000102221
0.00566773
-0.00514562
9.11962e-05
0.00597686
8.41809e-05
-0.00696574
0.00012235
0.00809791
9.6373e-05
-0.00939509
0.000158013
0.010823
5.91714e-05
-0.0124382
0.000190025
0.0141401
5.3495e-05
-0.0160488
0.000240781
0.018008
-0.000160898
-0.0199177
0.00041712
0.0220697
-0.000250442
-0.000668826
-0.0275568
-0.0199536
0.000764373
0.0230809
-0.000307985
-0.0220932
-0.0153369
0.000643139
0.0191271
-0.000186063
-0.0172829
-0.0118879
0.000406076
0.0149728
-0.00014757
-0.0131951
-0.00903175
0.000274934
0.0113809
-8.67188e-05
-0.0098133
-0.00672436
0.00017567
0.00845833
-6.47996e-05
-0.00717438
-0.00492537
7.40262e-05
0.00629106
-1.59991e-05
-0.00513827
-0.00358859
2.6022e-05
0.00486933
7.44415e-05
-0.00352743
-0.00250699
0.000243394
0.00426824
0.000494356
-0.000329785
0.000947988
-0.0016037
-0.00260346
6.26952e-05
-0.000764927
7.47826e-05
0.00227196
-0.000186519
3.35802e-05
-0.0018989
1.08614e-05
0.0033934
-0.0033136
-1.52635e-05
-0.0036229
0.000129993
-0.00386226
5.39074e-05
0.00441185
0.000143848
3.89978e-05
1.93505e-05
4.27651e-05
0.00379195
3.17211e-05
-2.87086e-05
-0.000836083
-2.33061e-06
0.000910265
9.65232e-07
3.41536e-06
4.47458e-06
-0.000142476
-0.000165189
-0.000118558
-0.00127777
7.02756e-05
-0.000251627
-6.31015e-05
-5.89329e-05
-6.01457e-05
0.00423947
0.00349995
-6.54675e-05
0.000228586
3.22777e-05
-1.70001e-06
0.00246225
0.000227699
-0.00345095
0.00354243
0.000164941
-0.00439265
0.00491846
0.0002536
1.79434e-05
-0.000132111
-0.000139426
-0.000181917
-0.000184548
-0.00020729
-0.000195678
-0.000187407
-0.000135582
-0.000135332
-0.000137724
-7.3816e-05
-8.04514e-05
-0.00339712
0.00345793
0.00551728
-0.00636683
0.00753772
-0.0085914
-0.000121243
-0.00581576
4.31601e-06
0.00520555
-0.000128056
-0.00430769
-9.14004e-05
0.00407529
2.72865e-05
0.000154703
-0.00319404
-0.000113872
0.00376881
-0.00406871
6.78446e-06
-0.00781829
-3.53465e-05
0.00901096
-0.00792401
1.24035e-05
-0.00933439
1.15392e-05
0.0108122
-0.0106714
3.00785e-06
-0.0122454
7.39854e-06
0.0140239
-0.0144238
-3.19467e-05
-0.0156832
6.54283e-05
0.0176595
-0.0198643
-5.84887e-05
0.0219074
-0.0239266
-0.000320526
-0.000665008
-0.000120472
-2.92559e-05
2.06432e-05
3.02094e-05
2.89904e-05
2.95786e-05
3.19469e-05
-2.67233e-05
1.41046e-05
-0.000886442
0.000993505
-0.000979742
-0.000904233
8.8534e-06
7.38148e-06
-2.31136e-05
5.2613e-05
0.000856771
7.12074e-06
-9.70726e-06
-7.85097e-05
0.000100376
-9.05188e-05
-0.00124975
6.6507e-05
-0.000307412
0.00217749
0.000242945
-8.91574e-05
-6.64039e-05
4.19967e-05
-2.11207e-06
0.000659761
0.00067004
-1.98255e-05
0.000565966
0.000888416
-1.5192e-05
-1.88462e-05
-1.82493e-05
-4.80263e-05
4.44167e-05
-0.00101349
0.00290802
0.000148992
-0.00437624
-3.56514e-05
0.00491636
-0.00432576
-1.40892e-05
-0.00508355
3.40007e-06
-0.0057769
-2.56204e-07
-0.00674323
2.14052e-05
0.00785414
-0.00805163
-1.079e-05
-0.00897547
0.000100383
0.0103892
-0.0120049
9.24505e-05
0.0137341
-2.15858e-06
1.19594e-05
1.62288e-05
1.95071e-05
2.02442e-05
2.6612e-05
3.26254e-06
3.53087e-07
-2.22964e-05
-2.20587e-05
-6.44783e-05
-9.39997e-05
-2.02509e-05
-2.15949e-05
4.56036e-06
4.6014e-06
7.5106e-06
9.03267e-06
1.24384e-05
1.66414e-05
1.91792e-05
2.10462e-05
2.96141e-05
3.45884e-05
0.000150737
0.000198913
-0.000472127
0.000306385
-0.000791507
0.00401866
-0.0239829
-0.00644463
0.000143129
-0.00221509
0.0110787
-0.0110853
-0.0341707
-0.0130865
-6.8292e-05
0.00330569
0.000214011
-0.0262486
-0.0114446
-0.00769035
0.0156623
0.00175783
-0.00177312
-0.00300104
0.00846962
0.000274354
-0.00589928
-0.00727994
0.0072765
1.27906e-05
-0.00648084
-0.00764154
0.00677182
5.86926e-05
-0.00831968
-0.00866801
0.0016845
-0.000477579
8.27906e-05
9.05369e-05
0.0218604
-0.0197962
0.000274469
0.0183551
-0.00058044
0.000374247
-0.0231992
0.00042786
-0.0143599
0.0162617
0.000147887
-0.0173016
-0.0302858
0.023468
-0.00175145
0.00288644
0.00994063
-0.000121003
0.0230686
0.0169432
0.0190339
-0.0233163
0.000699824
-0.0197117
-7.44574e-05
-0.0218102
0.000890688
-0.0208983
-8.28171e-05
-0.021009
0.000939337
-0.0224349
0.0177121
0.0173504
-0.0011722
-0.0337781
-0.0271405
0.0125132
-0.00883579
0.0120116
0.00688185
0.00812231
-0.0108386
0.00301789
0.00232453
-0.0120126
0.00455778
0.00829414
-0.0102089
0.0169512
-0.00906484
0.0014609
-0.00912612
0.00146326
-0.00986338
-0.00771934
0.00137646
-0.00063807
-0.000111303
-6.20385e-05
9.65296e-06
4.3613e-05
4.14713e-05
3.3465e-05
3.06441e-05
3.18791e-05
-2.71801e-05
1.49876e-05
-0.000571543
0.000685857
5.66915e-06
0.000135958
9.72199e-05
7.86012e-05
-0.000955948
-6.15932e-05
0.00106425
-0.00086319
-0.00046422
0.00107227
-0.00111869
-0.00154546
-0.00173688
0.00125854
0.0012779
-7.41168e-05
-0.000105695
-0.000353472
4.29238e-05
0.00131352
-0.00022836
-0.000299862
-0.000196536
0.000982149
0.000983856
-0.000302342
-0.000225081
0.00123826
-0.000641367
-0.00139251
-0.000645226
0.00129338
-6.83637e-05
-7.8376e-05
-0.000145688
-3.95805e-06
7.8253e-05
0.00227244
-0.000190427
9.27615e-05
-7.25932e-06
-1.04139e-05
-1.56371e-05
-2.26422e-05
-3.60525e-05
-6.62886e-05
-0.00012627
1.38113e-05
-6.13339e-05
9.36756e-05
-0.000779208
-0.000239199
0.000730745
-0.00138386
-0.00052733
-0.000542974
-0.0159489
0.0153255
-0.0004503
-0.000351034
0.000942656
-0.000608586
-0.000354774
0.00274612
0.00516422
0.00272451
0.0161145
-0.00766753
0.00162415
0.0109528
0.0126727
-0.00398395
0.00112734
-0.000157748
0.000804658
-0.000191709
6.73868e-05
-0.00130537
-0.000123326
5.45992e-05
2.15286e-05
7.42343e-07
-9.27497e-06
6.12761e-06
-1.26768e-05
1.73181e-05
2.71441e-05
1.74981e-05
8.9664e-05
0.000201489
0.000288191
0.000367855
0.000449348
0.000609562
0.00043562
0.000132492
0.000242649
0.000142098
6.4881e-05
2.80122e-05
2.47125e-05
1.53402e-05
3.42661e-05
3.86042e-05
-0.00482065
0.0043637
-0.00507443
0.0059021
-0.00687496
9.9087e-05
-0.00655053
0.00561904
9.81758e-05
2.77901e-05
2.01422e-05
2.77978e-06
0.00419128
2.88836e-05
-3.07589e-05
0.00103396
-1.78083e-05
2.6023e-05
9.78938e-05
-0.00017236
0.0011477
0.000900733
-0.000386087
0.000154688
-2.75107e-06
-1.07144e-06
0.000576807
-1.93504e-05
-8.36881e-07
0.000403096
-0.00123199
0.000353586
4.97611e-06
0.000141843
0.000103311
1.11447e-05
-0.000104564
4.55524e-05
9.64807e-05
-0.000386851
-0.000355284
0.00115192
-0.000466065
-0.000861367
-0.000174197
0.00107364
-6.01192e-05
9.84112e-05
6.94441e-05
-4.10319e-05
1.75742e-06
2.77183e-05
6.95892e-05
5.44815e-05
-1.58305e-06
5.04121e-05
6.00163e-05
8.77993e-05
2.13742e-05
7.56225e-07
2.33175e-05
-1.01003e-06
0.00764546
-0.00891623
0.00800657
-0.00929828
0.0107382
-0.0123768
0.000172292
-0.0119879
0.0103417
0.000123316
1.19156e-05
9.93089e-05
0.000116259
0.000141152
0.000130051
3.0848e-05
-1.71132e-06
2.82695e-05
2.75707e-05
4.28662e-05
3.16439e-05
4.85493e-05
0.000118151
0.000413237
0.00028886
0.00140074
0.000133192
6.18071e-05
2.76735e-05
5.31765e-06
-1.71368e-05
-7.11548e-06
-7.6432e-06
8.99719e-06
4.37498e-06
3.50967e-06
1.60019e-05
1.85937e-05
1.50981e-05
-3.48598e-06
-1.53727e-05
-9.29878e-06
-1.16706e-05
-8.73802e-06
3.9606e-06
7.84847e-06
1.32093e-05
2.06397e-05
2.67626e-05
4.08784e-05
3.33823e-05
3.91095e-05
7.52398e-05
6.40685e-05
4.28204e-05
0.000106883
0.000255834
9.13149e-05
0.000105456
0.00356409
-0.000647011
0.000374193
8.34057e-05
0.000296038
0.00765191
-0.000316712
-0.00111331
0.00601522
0.00200663
-0.0261925
-0.00946837
-0.0173198
0.016724
-0.0117894
-0.0126455
0.0150747
-0.0184857
-0.00100419
-0.00138129
-0.0169898
0.0151403
-0.000161718
-0.000774749
-4.92228e-05
0.0002939
0.000403449
0.00637596
0.00216423
-0.0116865
-0.0106209
0.0183609
0.00169943
-0.00434041
-0.00131958
0.00728988
0.00019863
-0.00845417
-0.00549533
0.00553325
-1.92047e-05
-0.00880496
-0.00605196
0.00484538
-5.14378e-05
0.00770897
0.00746743
0.000437126
0.0101667
-0.00992509
7.07955e-05
-0.00815442
-5.7616e-05
-0.000155182
-2.39165e-05
6.01329e-06
1.70884e-05
1.54461e-05
1.13217e-05
7.56491e-06
3.96512e-06
-6.19316e-06
-1.96809e-05
0.000174528
-0.00435417
0.00490586
0.000256113
-0.00587051
0.00675942
0.0102528
-0.0116344
0.0137343
-0.0156075
-0.000152823
-0.0107291
0.000162267
0.00946269
-0.000142294
-0.00791613
6.91618e-05
0.00701259
-0.000425658
-0.000290834
-0.00604477
-0.000172586
0.00679377
-0.00750349
4.12371e-05
-0.0141397
-1.61678e-05
0.0162003
-0.0141456
2.24082e-05
-0.0162319
3.07494e-05
-0.0181506
-3.09543e-05
-0.020139
-6.27348e-05
0.0222029
-0.0230537
-9.97005e-06
0.0244856
-6.07203e-05
-0.0240906
0.0240122
-7.36163e-05
-0.0224623
0.022708
-0.0243211
-1.37822e-05
2.35178e-05
0.000122068
9.19122e-05
4.35295e-05
1.6616e-05
2.9232e-06
-7.83896e-06
-8.07326e-05
-9.28479e-05
-0.000184422
-0.000227111
-0.000194692
-0.000219445
-0.00797209
0.00904694
0.000466548
-0.0107342
0.0117088
0.0179736
-0.0206555
0.0228242
-0.0264889
0.000493659
-0.0205449
0.00196485
0.016237
-7.77414e-05
-0.0146366
0.000522647
0.0126001
-0.000701706
-0.000275889
-0.010458
-2.61704e-05
0.0121674
-0.013123
0.000125922
-0.0233256
0.000104724
0.0261839
-0.0224137
-7.38951e-05
0.024294
0.000181294
-0.0276168
0.0161748
-2.44715e-05
-0.0168905
0.0147816
-0.0180104
0.000630894
-0.00294491
-0.00147031
-0.00247941
-0.00419116
0.01927
-0.0296816
0.00635066
-0.00634289
-0.00299787
-0.00172111
-0.00116273
-0.00085843
-0.000643298
-0.00038461
0.000421736
0.00570366
0.00276812
-0.001435
0.000970783
0.000459228
0.00329591
-0.00287888
0.00298563
-0.00017963
-0.0019601
8.93919e-05
0.00368602
-0.00350642
-1.24119e-05
-0.00377761
1.77459e-06
-0.00424928
-1.67532e-06
-0.00495525
2.54796e-05
0.00575377
-0.0058874
-6.46237e-06
-0.0066054
9.28997e-05
0.00770249
3.03471e-05
1.53279e-05
0.00696
2.72897e-05
0.005136
-4.88834e-06
-1.79464e-05
-4.44499e-05
-0.000156238
2.00492e-05
0.0019595
0.000131899
0.000147919
0.000683665
0.00120329
-0.00190989
-7.2089e-05
-0.00306463
1.92348e-05
-0.00580302
-3.96934e-05
0.00661468
-0.00582019
1.92295e-06
-0.00688471
6.58913e-06
-0.00789265
2.86246e-06
-0.00915967
1.67902e-05
0.0106119
-0.0108915
-1.7823e-05
0.0125909
-5.74678e-06
6.93381e-06
0.00943339
-3.77688e-07
2.25904e-05
7.64021e-06
-1.50071e-05
0.00501644
-4.31523e-05
0.00373532
0.000228392
3.74787e-06
0.00304614
3.72607e-05
0.000133204
-0.000189178
0.00360058
-0.000109074
-0.000175718
-0.00445228
-0.000151849
-0.00554308
1.90127e-05
-0.0105835
-3.09255e-05
0.0121936
-0.0107013
2.02357e-05
-0.0124665
1.94978e-05
-0.014115
-5.83656e-06
-0.0159629
-1.65429e-05
0.0180032
-0.0185872
-4.98726e-05
0.0206097
-4.11156e-05
-7.94765e-06
1.24876e-05
1.83956e-05
3.33544e-05
2.92068e-05
2.86822e-05
2.79605e-05
1.95046e-05
1.99857e-05
2.09274e-05
1.45249e-05
0.000135195
0.000211343
0.000288503
1.17545e-05
3.75039e-05
2.79447e-05
2.28518e-05
1.86486e-05
-4.62974e-07
1.88406e-05
-0.000152281
-0.00388352
2.8004e-05
-0.00380115
0.00484772
0.0001055
-0.00534816
-0.00547451
0.00493946
0.00461951
0.000102111
-0.00510619
-0.00583758
0.00523942
-0.00411239
2.21427e-05
-0.00367564
0.00361814
0.00380535
0.00375105
0.00366479
3.03412e-05
-0.0040445
-0.00375821
-0.000152159
0.00470153
0.000109725
-0.00573399
-0.00523224
-0.000233716
0.0062825
0.000242515
-0.00793236
-0.00720092
-0.00739262
-0.00757153
0.000244172
0.00649111
0.00662543
-0.000232257
0.00616252
0.000237355
-0.00702339
-0.00807963
0.00704539
-0.000240258
-0.00480731
-0.00720283
6.11729e-05
0.0042517
-0.000162168
-0.0035067
-0.00516481
1.04462e-05
0.00341655
0.0040391
-0.00264118
0.000227513
-0.00256453
-0.00022323
-0.00260325
0.000225497
-0.00255901
-0.000222836
-0.00260976
0.000234684
-0.0026053
0.00398923
0.00345442
-0.000235085
-1.39235e-05
0.000200177
-0.00176279
-0.00200216
-0.00191783
-0.00212997
-0.00202729
-0.00204385
-0.00207422
-0.00179689
-0.00276031
-0.00211048
-0.00192633
-0.00199732
-0.00134653
-0.00056511
-0.000706957
0.0012359
-0.00138727
0.00336845
0.00340635
0.00338101
0.00339142
0.00351615
0.00328186
-0.00133952
0.00107819
-0.000562073
-0.00134712
-0.000710592
0.00131411
-7.6694e-05
5.64838e-05
5.74435e-05
0.000138003
0.000214734
-1.04722e-05
-0.00031833
0.0088643
0.00038046
-0.00997588
-0.0102232
-0.00945393
-0.0109125
0.000364449
0.00824336
0.00944946
-0.000325105
-0.00656153
-0.0098808
0.000166923
0.00567499
0.0084978
-4.71787e-05
0.000876084
-0.00119823
9.86828e-05
0.00118729
-0.00161739
0.000139396
0.00161807
-0.00210809
0.000252528
0.00238135
-0.00246494
0.000803827
0.00439289
0.000980766
0.00195401
-0.000418372
0.00103129
-0.000550201
0.000756702
-0.000465998
0.000593709
-0.000366946
0.000423581
4.35422e-05
-0.000907526
0.00630823
-1.19874e-05
0.000619699
-0.000858353
-7.31247e-05
4.22867e-05
-0.000345188
-0.000647906
0.000293492
7.81387e-05
-0.00354595
0.000230822
-0.00245907
-0.000236714
-9.07431e-06
0.000228222
-0.00141165
-0.0022889
-0.00225347
-0.0018828
-0.000607318
-0.00133341
-0.00052117
-0.00100007
-0.00303073
0.000496171
0.00427125
0.00326431
0.00353848
-0.00133681
-0.00288456
-0.00175552
0.000208544
0.000807137
0.000731098
0.00094363
0.00113732
0.00137297
0.000264875
-0.00879827
-0.0133352
0.0114397
0.00762214
-0.000496049
-0.000349059
-0.000191372
-0.00016016
0.000943576
0.00105453
0.00120244
-0.000635751
-0.000413422
0.0124126
0.000497141
-0.0123915
-0.0143819
-0.0114637
-0.0177002
0.000356684
0.0101105
0.0151431
-4.23263e-05
0.000134384
7.28412e-05
4.76016e-05
8.49664e-05
0.000150035
-0.0158101
0.0141538
-0.016059
-3.56761e-05
0.000280925
0.000192771
0.000101006
3.9679e-05
-2.55236e-06
0.0137213
4.28901e-05
8.09605e-06
0.0177031
0.000243018
3.58879e-08
0.000363609
0.000429675
-7.44268e-05
1.10909e-05
3.94261e-05
1.66481e-05
2.708e-05
-2.22626e-05
2.72e-05
2.72994e-05
5.39014e-05
1.3465e-05
4.15985e-05
3.67311e-05
1.49658e-05
1.57503e-06
2.72417e-06
6.17469e-07
1.64251e-05
0.000353025
0.000590175
0.000432822
0.000348353
0.000352726
0.000391705
0.000196583
0.000195218
-8.21544e-06
0.000122355
0.00312202
0.000273875
0.000485839
0.000479406
0.000557912
0.000562422
0.000653601
0.000490368
0.00050263
0.000728059
0.000715476
-0.0141468
0.0145703
0.000885211
-0.0176426
0.000423712
0.000239411
-0.00307266
-0.00409035
-0.0222993
-0.023352
-0.0385715
0.00973377
0.00332629
0.0185558
-0.00668558
0.0104643
-0.00116383
-0.0118305
0.0107045
-0.00025193
0.0075943
-0.000267389
0.0100684
-0.0110777
-0.000909238
-0.000283011
-0.000344387
0.000141618
-0.00121744
0.00797092
-0.00035986
0.000412225
0.00026164
0.000141154
0.000146727
7.65554e-05
6.86152e-05
-9.02231e-05
-0.000104233
4.81121e-05
0.000215373
0.00101752
0.000167219
-2.29e-05
-8.57175e-05
0.00863303
-0.00999842
8.12139e-05
-0.0184591
2.62627e-05
0.0210102
-0.0181642
5.04699e-06
-0.0204332
3.06382e-05
0.0202097
-7.39062e-06
8.67317e-06
2.06087e-05
4.10502e-05
9.06228e-05
0.00062983
0.000134517
5.02409e-05
2.51827e-05
1.10301e-05
1.03139e-05
9.31774e-06
7.04836e-06
4.59153e-06
0.00500855
7.37642e-06
0.00584169
3.88928e-06
0.00427513
0.00368938
1.34773e-05
0.00337797
0.00195133
5.13382e-05
9.61092e-06
-2.2652e-06
1.14513e-05
3.47992e-06
0.00681096
0.000114827
-0.000272025
0.00501601
-0.000165716
0.000137822
-0.000340316
0.00646018
-0.000185538
-0.000334381
-0.0080507
-0.000145352
0.00916434
-0.000409972
-0.000189741
0.000239773
0.000181168
2.00361e-05
0.00925149
1.66331e-05
0.00924419
3.31304e-05
5.07276e-05
0.0123809
2.58095e-05
0.01431
3.71183e-05
0.000120478
0.0161735
-0.000569483
0.0112732
-0.000356403
-0.000352419
-0.0135655
0.000235996
0.0141635
-0.00111472
0.000231787
-0.000364228
-0.00230981
-0.00588097
1.76978e-05
-0.000904173
-0.000387063
0.000248777
0.000244876
0.0204434
1.9839e-05
-3.80402e-05
-7.47563e-05
-6.45292e-05
-0.000349204
-1.6546e-05
4.83111e-05
4.01734e-05
0.0184028
0.0160733
-1.33125e-05
-1.77002e-06
-4.53081e-05
-0.000106702
-0.000136376
-0.000594195
-0.00020534
-0.000195737
-9.45696e-05
-3.3484e-05
0.0163818
-4.31206e-05
1.7248e-06
1.62458e-05
0.000289638
0.000198202
8.87938e-05
-0.000151011
-3.93692e-05
0.000375178
0.000464068
0.000613138
-8.84175e-05
0.000268077
0.000271781
-0.000503054
0.00238862
0.00529876
-0.00366181
0.0245491
0.00154242
0.000578613
-0.000268258
0.000696794
0.00115528
0.00116171
0.00103927
0.000930883
0.000794668
0.000819892
0.000219246
2.02064e-05
1.85344e-05
-0.00276031
-0.00138822
-0.0028864
-0.00142041
0.000217165
0.000714176
-0.000196188
-0.0001617
0.00432058
0.00515857
0.000136343
1.84311e-05
1.89334e-05
2.74908e-05
2.04026e-05
2.80267e-05
4.60812e-07
-0.000143804
0.00125656
0.00324802
0.000175058
6.16779e-05
1.08725e-05
-1.63375e-06
1.68136e-05
1.7604e-05
1.73375e-05
1.86783e-05
-1.35635e-05
0.000210398
0.000284735
0.000293679
0.000371261
-6.0222e-05
-0.00052015
-0.0134713
0.000539174
-0.0131121
0.0142712
0.000793392
-0.0167634
-0.0173352
0.0146688
0.0137336
0.000685004
-0.0157927
-0.0185167
0.0157136
-0.000528632
0.0131256
0.0194826
7.16304e-05
6.19858e-05
-0.000799539
0.00164829
0.00193626
0.00220253
0.00554227
0.00693816
0.0134622
0.0316028
0.00347463
0.0164978
0.0244527
-0.00189476
-0.00107425
0.0010681
0.00129316
-0.000731823
-0.000576043
0.0108279
0.0116116
0.0113493
0.011012
0.000532795
-0.0140652
-0.0127984
-0.000530961
0.0139639
0.000799019
-0.0179883
-0.0165249
-0.000700823
0.0168543
0.0179681
0.015968
-0.000673061
-0.000159389
-0.000215077
-2.40401e-05
2.29072e-05
0.000103841
2.38747e-05
2.29772e-05
-3.71637e-05
-1.50296e-05
-0.000221405
0.00220686
-0.000247929
-0.000152164
-0.000348233
-0.000300626
-0.000187016
-0.000318094
-0.000143524
0.00599136
-0.000172894
0.000114294
2.5026e-05
7.38649e-06
0.000273512
0.000238116
-0.00259076
0.01341
-0.0066934
-0.0241172
-0.0287342
0.0023942
-0.0135646
0.00572382
0.00184279
-0.0084008
-0.00926798
-0.00094235
-0.00139477
0.00912892
0.00844031
-0.000838803
-0.00827659
-0.000170532
0.00822476
-2.92397e-05
8.99823e-05
-3.11868e-06
8.47829e-05
0.000279618
0.000291193
0.00018751
4.75217e-05
3.61439e-05
-6.64068e-05
-5.98074e-05
1.4322e-06
-7.44593e-05
-2.96004e-05
-1.2928e-05
0.000359359
0.000438979
0.000440545
-0.000194351
0.000524619
0.000539226
-0.000437028
0.0227622
-0.00135922
0.00135358
-0.0252671
0.000508501
0.000307168
0.00295565
0.000354217
0.000629119
0.00198711
-0.000155652
-3.2625e-05
-0.000153986
0.000569592
0.00530487
-0.000350711
-0.0002263
-0.000132947
0.000113433
-0.0143748
0.0165221
-0.000588437
2.58544e-05
-0.000749466
-0.00174316
-0.00195146
-0.000362204
-0.000177447
0.00640496
-0.000195197
-0.000212992
-0.000403253
-7.5121e-05
-0.000246575
0.00568524
-0.000377577
-0.000179455
0.000577687
0.000462553
-1.51674e-05
-7.19318e-05
-4.84448e-05
-0.000139756
0.000115014
0.000476367
0.000598097
0.000549104
-0.000635002
0.00186432
0.00189942
0.00208452
0.00221931
0.0246039