/*--------------------------------*- C++ -*----------------------------------*\
| =========                 |                                                 |
| \\      /  F ield         | OpenFOAM: The Open Source CFD Toolbox           |
|  \\    /   O peration     | Version:  2306                                  |
|   \\  /    A nd           | Website:  www.openfoam.com                      |
|    \\/     M anipulation  |                                                 |
\*---------------------------------------------------------------------------*/
FoamFile
{
    version     2.0;
    format      ascii;
    arch        "LSB;label=32;scalar=64";
    class       volScalarField;
    location    "2.8";
    object      gradTz;
}
// * * * * * * * * * * * * * * * * * * * * * * * * * * * * * * * * * * * * * //

dimensions      [0 -1 0 1 0 0 0];

internalField   nonuniform List<scalar> 
5322
(
-0.0627635
-0.058349
-0.0508703
-0.0550278
-0.0440043
-0.0343325
-0.0261411
-0.0195264
-0.0145033
-0.0110598
-0.0089391
-0.00825613
-0.00600112
-0.00839889
-0.00927572
-0.00766959
-0.00901559
-0.00699613
-0.0103165
-0.0114596
-0.0133007
-0.0150854
-0.01781
-0.0205569
-0.0242557
-0.0275732
-0.0322571
-0.0366823
-0.0423339
-0.0471227
-0.0535786
-0.0592916
-0.065915
-0.0704671
-0.07324
-0.0638515
-0.0750939
-0.0744187
-0.0767031
-0.0559396
-0.0711172
-0.0734111
-0.0548557
-0.0734516
-0.0727139
-0.0558229
-0.0745196
-0.070433
-0.0552277
-0.073303
-0.083569
-0.0570175
-0.0794445
-0.0708016
-0.0635192
-0.0670444
-0.0826672
-0.065785
-0.0637048
-0.0669027
-0.0835469
-0.0666683
-0.0636952
-0.0652661
-0.0835447
-0.0690409
-0.0634713
-0.0620719
-0.0819208
-0.0736686
-0.0528262
-0.0785636
-0.074773
-0.0736656
-0.0743764
-0.0740191
-0.0739687
-0.0737733
-0.0749274
-0.0714568
-0.0692891
-0.0556981
-0.0577624
-0.0746431
-0.0485299
-0.0663598
-0.095882
-0.0618871
-0.062196
-0.0541602
-0.0670867
-0.0493396
-0.0519876
-0.0518534
-0.0663025
-0.0627573
-0.0598625
-0.0635998
-0.0974963
-0.0600889
-0.0607821
-0.0549371
-0.064104
-0.0655796
-0.0715704
-0.05822
-0.0612582
-0.0555071
-0.0445096
-0.0348324
-0.0265297
-0.0197722
-0.0146003
-0.0110486
-0.0102708
-0.00946965
-0.00673125
-0.00723132
-0.0100464
-0.00793179
-0.00693437
-0.00830266
-0.00818606
-0.0114559
-0.00857324
-0.0112246
-0.00810934
-0.008468
-0.0110385
-0.00808591
-0.00829744
-0.0111428
-0.0082128
-0.00814577
-0.0111922
-0.0083228
-0.00819073
-0.0114881
-0.00858991
-0.0112396
-0.00813785
-0.00696217
-0.00793919
-0.00713446
-0.00674647
-0.0100541
-0.00723678
-0.00719349
-0.00666561
-0.00671443
-0.0100716
-0.00720366
-0.00717688
-0.00667547
-0.0067206
-0.0100655
-0.00721134
-0.00712772
-0.00695422
-0.00928023
-0.0076629
-0.00903336
-0.0114186
-0.0123383
-0.0073714
-0.0103302
-0.00700264
-0.00915811
-0.00605798
-0.00813275
-0.00841424
-0.00782953
-0.00846152
-0.00951597
-0.00808973
-0.0108037
-0.0107183
-0.0114941
-0.00906127
-0.0114813
-0.0134015
-0.0134164
-0.0152746
-0.0118767
-0.0152987
-0.0178941
-0.0179067
-0.0206951
-0.016072
-0.0207228
-0.0242226
-0.0242371
-0.0279039
-0.0217674
-0.027952
-0.0324105
-0.0324481
-0.036906
-0.0290061
-0.0369959
-0.0424459
-0.0425335
-0.0475965
-0.0377312
-0.0477444
-0.0540744
-0.0542459
-0.0597195
-0.0475678
-0.0599623
-0.0658399
-0.0660149
-0.0634813
-0.0975071
-0.0600775
-0.059887
-0.0551128
-0.0757675
-0.0755865
-0.0519911
-0.0519079
-0.0661555
-0.0632737
-0.0592888
-0.0642829
-0.0973687
-0.0604554
-0.0598317
-0.0552413
-0.0632255
-0.0659094
-0.0598228
-0.059945
-0.0554053
-0.0445214
-0.0348718
-0.0265603
-0.0197908
-0.0146104
-0.0110535
-0.0102747
-0.00947632
-0.00671164
-0.00669756
-0.00669268
-0.00670846
-0.0100645
-0.00717575
-0.00720987
-0.00713103
-0.00829812
-0.0119279
-0.00717731
-0.0100669
-0.00721126
-0.0118576
-0.00845114
-0.0110115
-0.00808534
-0.00713431
-0.00829882
-0.0110135
-0.0059193
-0.00807917
-0.00809457
-0.00808555
-0.00846543
-0.0107149
-0.0114981
-0.0134162
-0.0152778
-0.0179121
-0.0206966
-0.0242487
-0.0279061
-0.0324692
-0.0369074
-0.0425744
-0.0475848
-0.054327
-0.0596577
-0.0664679
-0.0627093
-0.0975358
-0.0638727
-0.0598511
-0.0656961
-0.0601246
-0.0476025
-0.0540722
-0.0478195
-0.0377582
-0.0424781
-0.0370257
-0.0290234
-0.0324413
-0.0279624
-0.0217772
-0.0242458
-0.0207246
-0.0160773
-0.0179146
-0.0152935
-0.0118792
-0.0134229
-0.0114709
-0.00906036
-0.0108196
-0.00848598
-0.0108104
-0.0114808
-0.00906149
-0.0107246
-0.00846606
-0.00951844
-0.00781729
-0.00598886
-0.00843965
-0.00767947
-0.0108437
-0.0114979
-0.0133964
-0.0153373
-0.0179203
-0.0207514
-0.0243056
-0.0279736
-0.0325818
-0.0370009
-0.0428239
-0.0475738
-0.0548769
-0.059166
-0.0668123
-0.0631176
-0.0963885
-0.0670107
-0.0579632
-0.0715484
-0.0649649
-0.046231
-0.0586047
-0.0513717
-0.0366378
-0.0458114
-0.0395929
-0.0281026
-0.0348676
-0.0298387
-0.021065
-0.02603
-0.0221098
-0.0155477
-0.0192019
-0.0163197
-0.0114927
-0.0143562
-0.0123408
-0.00876765
-0.0114166
-0.00903608
-0.00928494
-0.00813721
-0.00849096
-0.00750605
-0.0091834
-0.00604485
-0.00690553
-0.00810648
-0.00749739
-0.0110645
-0.0119392
-0.0115295
-0.0114807
-0.00902174
-0.0107119
-0.010887
-0.00780078
-0.00954009
-0.00864592
-0.00852778
-0.00834774
-0.0114748
-0.00905365
-0.00859265
-0.0118244
-0.00907141
-0.00850039
-0.00837371
-0.00814115
-0.0108208
-0.0114738
-0.010331
-0.0134321
-0.0152951
-0.0179229
-0.0207245
-0.0184588
-0.0242655
-0.0279443
-0.0324928
-0.0369551
-0.0325941
-0.0425947
-0.0476314
-0.0542827
-0.0597701
-0.0519307
-0.0520112
-0.0418404
-0.0418774
-0.0327646
-0.0326843
-0.0427975
-0.0476735
-0.0377525
-0.0481601
-0.0539185
-0.0546779
-0.0594834
-0.0475316
-0.0607997
-0.0650657
-0.073243
-0.0613719
-0.0974368
-0.0617516
-0.0586557
-0.0569628
-0.0737655
-0.0492547
-0.044587
-0.0622206
-0.0391101
-0.0537532
-0.0485435
-0.0305258
-0.0424932
-0.0370175
-0.0233095
-0.0325678
-0.0278682
-0.0174705
-0.0242282
-0.0204749
-0.0128908
-0.0179003
-0.0150761
-0.00954394
-0.0132658
-0.0113816
-0.00735591
-0.0103604
-0.0075689
-0.00728359
-0.00952484
-0.00869449
-0.0102249
-0.0121789
-0.0136257
-0.0158033
-0.018314
-0.0213443
-0.0207078
-0.0207733
-0.01604
-0.0179553
-0.0179455
-0.0153397
-0.0118518
-0.0152676
-0.0136472
-0.0129908
-0.00980732
-0.00864535
-0.0102258
-0.00974709
-0.00933176
-0.010973
-0.011018
-0.00892773
-0.00829519
-0.00622806
-0.0102779
-0.0057397
-0.00797596
-0.00886222
-0.00955414
-0.0123184
-0.0145796
-0.0144653
-0.0195315
-0.01983
-0.0166017
-0.0163856
-0.0154676
-0.0187372
-0.0221043
-0.0249445
-0.0287446
-0.0335019
-0.0380237
-0.0371212
-0.0370429
-0.0289937
-0.0325335
-0.0325892
-0.0280079
-0.0217382
-0.0279791
-0.0248589
-0.0236298
-0.0175901
-0.0155625
-0.0182911
-0.0179635
-0.0171727
-0.0134978
-0.0129132
-0.0123763
-0.0137552
-0.011421
-0.0114721
-0.0126116
-0.0111017
-0.00898017
-0.00827238
-0.00794381
-0.00758507
-0.00816375
-0.00698326
-0.00971357
-0.00963003
-0.0114953
-0.0103048
-0.0134234
-0.0134159
-0.0153005
-0.0118829
-0.0152809
-0.0136166
-0.0179171
-0.0179163
-0.020723
-0.0160856
-0.0207184
-0.0184248
-0.0242513
-0.0242699
-0.0279399
-0.0217942
-0.0279632
-0.0247474
-0.032463
-0.0325114
-0.0369497
-0.0290534
-0.037033
-0.0325628
-0.0425129
-0.0426516
-0.0476003
-0.0377986
-0.0478462
-0.0417437
-0.0540578
-0.0544307
-0.0596403
-0.0476073
-0.0601243
-0.0517713
-0.0656917
-0.0663097
-0.0634064
-0.0597456
-0.0634325
-0.0555353
-0.0602064
-0.0580161
-0.0529295
-0.0731625
-0.049026
-0.0639566
-0.049376
-0.0472678
-0.058348
-0.0586752
-0.0520651
-0.0555372
-0.0559405
-0.0505939
-0.0456165
-0.044696
-0.0346442
-0.0353934
-0.0301005
-0.0267385
-0.0262468
-0.0260554
-0.0194339
-0.0144333
-0.0110132
-0.00889563
-0.00820159
-0.00602187
-0.00835405
-0.00738993
-0.00798393
-0.00803097
-0.00788379
-0.00814514
-0.00954182
-0.00711818
-0.00875374
-0.00852046
-0.00859198
-0.00884204
-0.00694542
-0.00872527
-0.00861246
-0.00859348
-0.00954669
-0.00657138
-0.00662169
-0.00661067
-0.00658875
-0.00656869
-0.00653549
-0.0101255
-0.00660065
-0.00658276
-0.00658466
-0.010128
-0.00661105
-0.00961182
-0.0103555
-0.0103122
-0.00907697
-0.00905225
-0.00845108
-0.0103318
-0.0136874
-0.0185345
-0.0248795
-0.0326887
-0.031077
-0.0276504
-0.0324321
-0.0318571
-0.0304406
-0.0338524
-0.0388507
-0.0443479
-0.0485484
-0.0580124
-0.0473126
-0.0485864
-0.0386726
-0.0445499
-0.0368768
-0.039526
-0.0401951
-0.0342952
-0.0440619
-0.0551649
-0.0683988
-0.0680564
-0.06813
-0.0591482
-0.054927
-0.0574654
-0.063017
-0.0527117
-0.0597728
-0.085419
-0.0771327
-0.07612
-0.0785987
-0.0503959
-0.0639497
-0.0671359
-0.0804401
-0.0518988
-0.0662203
-0.0674318
-0.0808245
-0.0521199
-0.0653949
-0.0682839
-0.080645
-0.0533332
-0.0648186
-0.0727154
-0.100607
-0.0792488
-0.077489
-0.09812
-0.0960569
-0.0765868
-0.0563167
-0.0794533
-0.0708599
-0.0634906
-0.0669088
-0.070579
-0.0552579
-0.0731825
-0.0836114
-0.057004
-0.0693352
-0.05573
-0.0578124
-0.0746679
-0.0648438
-0.0493892
-0.0610686
-0.0534555
-0.0403261
-0.0479015
-0.042245
-0.0313999
-0.0368285
-0.0323586
-0.0238758
-0.0277272
-0.0242146
-0.0177512
-0.0205388
-0.0178686
-0.0131116
-0.0151379
-0.0133068
-0.00967842
-0.0114851
-0.0103283
-0.00763112
-0.00916443
-0.00746426
-0.00847304
-0.00812243
-0.00903081
-0.011425
-0.01234
-0.00876725
-0.0108614
-0.0076623
-0.00928395
-0.00843154
-0.00598718
-0.00780532
-0.00808329
-0.00951862
-0.00800486
-0.00826519
-0.00898001
-0.0110952
-0.0145364
-0.0145529
-0.0196202
-0.0263251
-0.0246007
-0.0237268
-0.0227473
-0.0255639
-0.0298175
-0.0280575
-0.0209876
-0.0225032
-0.0228826
-0.0243024
-0.0243168
-0.0184987
-0.0207272
-0.0242337
-0.0217954
-0.0279662
-0.0324333
-0.029049
-0.0370231
-0.0424736
-0.0377775
-0.0477759
-0.0540613
-0.0475713
-0.0598766
-0.05068
-0.0513666
-0.0616823
-0.0618499
-0.0554061
-0.0440635
-0.0342873
-0.0260619
-0.0194518
-0.0144538
-0.0110301
-0.0089272
-0.00823389
-0.00598735
-0.00808169
-0.00799703
-0.00825159
-0.00894818
-0.0110653
-0.0145062
-0.0195397
-0.026188
-0.0344513
-0.0442712
-0.0555512
-0.0695251
-0.0690582
-0.0556971
-0.105105
-0.0775866
-0.0744177
-0.0674913
-0.0808011
-0.0521911
-0.052331
-0.0568744
-0.0835308
-0.0541402
-0.0549681
-0.05604
-0.0839962
-0.0543877
-0.0552106
-0.0556564
-0.083812
-0.0558378
-0.0568109
-0.0624208
-0.106432
-0.0802372
-0.078286
-0.0786384
-0.0779572
-0.0629347
-0.0590562
-0.0626808
-0.10604
-0.0619805
-0.0639748
-0.0834923
-0.0667627
-0.0636527
-0.0651622
-0.073828
-0.0548191
-0.0730458
-0.0730887
-0.0559481
-0.074241
-0.0659642
-0.0636717
-0.0666624
-0.0740816
-0.0738323
-0.0744793
-0.0734986
-0.0637153
-0.0628564
-0.0684362
-0.0836421
-0.0716063
-0.0564709
-0.0762062
-0.0669848
-0.0564432
-0.0917765
-0.0496457
-0.0652728
-0.0549292
-0.0643515
-0.0594484
-0.0470628
-0.0545303
-0.0487334
-0.038819
-0.0431703
-0.0386768
-0.0296769
-0.0336784
-0.0293917
-0.0231086
-0.0252426
-0.0221796
-0.0167476
-0.0188638
-0.0162422
-0.0126419
-0.0137676
-0.0122038
-0.00923304
-0.0103483
-0.00944036
-0.00730216
-0.00810757
-0.00571111
-0.010226
-0.00738537
-0.00622405
-0.0114644
-0.00818407
-0.00856948
-0.0112049
-0.00811604
-0.00844754
-0.0110185
-0.00806973
-0.00830291
-0.0111326
-0.00822679
-0.00811723
-0.011175
-0.00603444
-0.0078696
-0.00953958
-0.0081121
-0.00848537
-0.0107898
-0.00905478
-0.0114761
-0.0114758
-0.0102963
-0.0133851
-0.0114797
-0.015306
-0.0163013
-0.01147
-0.0191805
-0.0128664
-0.0220522
-0.0155277
-0.0259281
-0.0173893
-0.0297491
-0.0208534
-0.0346525
-0.0231524
-0.0393641
-0.0274292
-0.0452345
-0.0300799
-0.0508784
-0.0351903
-0.0575376
-0.0380974
-0.0640715
-0.0439412
-0.0704419
-0.0467113
-0.0549772
-0.0670674
-0.0655209
-0.0523202
-0.0613877
-0.0455124
-0.0552111
-0.0535923
-0.0418255
-0.0489262
-0.0360278
-0.0433566
-0.0422146
-0.0326065
-0.0378914
-0.0277508
-0.033217
-0.0323447
-0.0247835
-0.028676
-0.0208457
-0.0248226
-0.0242263
-0.0184642
-0.0212585
-0.0154223
-0.0183457
-0.0179239
-0.0136466
-0.0157497
-0.0114058
-0.0136734
-0.0134335
-0.0103344
-0.0118656
-0.00869761
-0.0111129
-0.0106995
-0.00852196
-0.00745847
-0.00688991
-0.00604388
-0.00812708
-0.00847629
-0.00745863
-0.00915624
-0.00759971
-0.008135
-0.00759843
-0.00795319
-0.00800301
-0.0080542
-0.00951367
-0.00808812
-0.00843971
-0.00844292
-0.0108325
-0.00876354
-0.0123249
-0.00864984
-0.0143448
-0.00953629
-0.0126234
-0.00973011
-0.00964825
-0.0107234
-0.00904458
-0.0118361
-0.00720462
-0.0100598
-0.00717576
-0.00711675
-0.00873669
-0.00857838
-0.00850895
-0.00858773
-0.00861659
-0.0119247
-0.00907319
-0.00848753
-0.0103538
-0.0103616
-0.0103558
-0.0134465
-0.0134506
-0.0103326
-0.0125563
-0.00971049
-0.00966631
-0.0107257
-0.00906896
-0.0115067
-0.0134054
-0.0118869
-0.0152977
-0.0179026
-0.0160887
-0.0174835
-0.0137227
-0.0136788
-0.01858
-0.0249381
-0.0248398
-0.0249207
-0.0185719
-0.013717
-0.0136516
-0.0136799
-0.0103286
-0.0103017
-0.011475
-0.0134004
-0.0143506
-0.0163106
-0.0191837
-0.0220629
-0.0128781
-0.0178778
-0.0114716
-0.0151318
-0.00954876
-0.0133158
-0.00865534
-0.0114811
-0.00966135
-0.00926415
-0.0121875
-0.0114207
-0.0138193
-0.0157451
-0.0136562
-0.0179248
-0.0160015
-0.0206747
-0.0207295
-0.0184769
-0.0241667
-0.0217168
-0.0278855
-0.0278968
-0.0247379
-0.0322678
-0.0288643
-0.0368746
-0.0368898
-0.0324709
-0.0422325
-0.0362407
-0.0475921
-0.0536665
-0.0457342
-0.0598761
-0.0649883
-0.0553552
-0.0615121
-0.0556421
-0.0445382
-0.0348293
-0.0265229
-0.0197671
-0.0145966
-0.0110464
-0.010268
-0.00946445
-0.00671137
-0.00666725
-0.00670341
-0.00719631
-0.0119097
-0.00906972
-0.00906817
-0.0118045
-0.00719096
-0.00710787
-0.00875539
-0.0085837
-0.00904833
-0.00858104
-0.0118492
-0.00904708
-0.00844626
-0.0108488
-0.0087722
-0.00975777
-0.00961063
-0.0103138
-0.00954434
-0.00658535
-0.0065648
-0.0101276
-0.00653266
-0.00665685
-0.0100647
-0.00961415
-0.0103546
-0.00980587
-0.00834214
-0.0114513
-0.0111426
-0.00853273
-0.0106913
-0.00901631
-0.0115414
-0.0114543
-0.0103523
-0.0133949
-0.0118729
-0.015273
-0.0136455
-0.0178753
-0.0160464
-0.0206926
-0.0206753
-0.0184006
-0.0242046
-0.0209826
-0.027896
-0.0323404
-0.0279129
-0.0368883
-0.0326149
-0.0248285
-0.0185075
-0.0136737
-0.0103241
-0.00960543
-0.0103096
-0.0095391
-0.00945265
-0.0110991
-0.00962034
-0.00976203
-0.0096093
-0.00945426
-0.0110965
-0.0103487
-0.0103302
-0.0137115
-0.0136484
-0.0185659
-0.0184569
-0.0195693
-0.0262279
-0.0345155
-0.0346684
-0.0445749
-0.0415831
-0.0405272
-0.0513089
-0.0614179
-0.0523708
-0.0747339
-0.0568183
-0.107662
-0.0761427
-0.0746805
-0.0708771
-0.0863858
-0.0783968
-0.0812478
-0.0780007
-0.106988
-0.0751558
-0.0743114
-0.0674198
-0.0804459
-0.0520505
-0.0530889
-0.0574814
-0.0830764
-0.0539092
-0.0558766
-0.0568465
-0.0835335
-0.0541572
-0.0559564
-0.056623
-0.0833436
-0.0557198
-0.0571987
-0.0793646
-0.0612683
-0.0519991
-0.0518741
-0.0600357
-0.0640015
-0.0460867
-0.0583273
-0.0385723
-0.0461626
-0.0562742
-0.0418177
-0.053248
-0.0605034
-0.0522226
-0.0644453
-0.0699107
-0.0600216
-0.056127
-0.0472504
-0.0574469
-0.0555738
-0.0714432
-0.0750019
-0.0736554
-0.0652611
-0.0521107
-0.064628
-0.0569363
-0.0649355
-0.0520502
-0.0646224
-0.0569895
-0.0650115
-0.0522072
-0.0646943
-0.0749739
-0.0733105
-0.0638085
-0.058942
-0.0706146
-0.083983
-0.0627881
-0.0789963
-0.0802216
-0.0770553
-0.0639417
-0.0619779
-0.0624009
-0.105475
-0.0626271
-0.0694502
-0.101802
-0.0808909
-0.0775401
-0.0628003
-0.06185
-0.0795186
-0.0567859
-0.056605
-0.0788508
-0.060217
-0.0557168
-0.0555164
-0.0445191
-0.0348409
-0.0265357
-0.0197762
-0.0146026
-0.01105
-0.0102717
-0.00947053
-0.00653306
-0.0065696
-0.00870298
-0.00850939
-0.0085846
-0.0110041
-0.00844881
-0.00695433
-0.0071301
-0.00793094
-0.00723305
-0.00693791
-0.00818754
-0.011476
-0.00857691
-0.0114515
-0.00811985
-0.0112094
-0.00905044
-0.00884469
-0.00858599
-0.0118091
-0.00719254
-0.00719902
-0.010067
-0.00668812
-0.00668412
-0.00720092
-0.00718819
-0.0071017
-0.00823553
-0.011276
-0.00824149
-0.0119064
-0.00906738
-0.00906708
-0.00834411
-0.00700917
-0.00816362
-0.00758271
-0.00796558
-0.00827096
-0.0089776
-0.0111093
-0.0145648
-0.0196185
-0.0262935
-0.0345901
-0.0444444
-0.0443694
-0.0557696
-0.0558454
-0.0689557
-0.056158
-0.0596317
-0.0599443
-0.0975896
-0.0693011
-0.0751654
-0.0775276
-0.104822
-0.0554985
-0.0598519
-0.0600155
-0.0565446
-0.0607831
-0.0618401
-0.0958962
-0.0642812
-0.0663609
-0.0541901
-0.0622006
-0.0718034
-0.0601977
-0.0513462
-0.0557399
-0.0696352
-0.0694285
-0.0615827
-0.061823
-0.0519806
-0.0405126
-0.0307878
-0.0230008
-0.0169836
-0.0167451
-0.0124379
-0.0124392
-0.00963452
-0.00973232
-0.0102521
-0.0135368
-0.0182906
-0.0245396
-0.0322804
-0.0413787
-0.0512217
-0.0504739
-0.0506142
-0.039699
-0.0303155
-0.0226755
-0.0226532
-0.0167387
-0.0169654
-0.0126173
-0.0134153
-0.0143585
-0.0163137
-0.0191951
-0.022068
-0.0155247
-0.0179206
-0.0153145
-0.0114847
-0.0131002
-0.0103288
-0.0103059
-0.0114735
-0.00905112
-0.0118456
-0.00808324
-0.00845155
-0.00960752
-0.00975917
-0.0100472
-0.00673313
-0.00666937
-0.00876458
-0.00857275
-0.00864427
-0.008701
-0.00653011
-0.0101304
-0.00870261
-0.0087347
-0.00712607
-0.00884415
-0.00870477
-0.0084997
-0.0085745
-0.00860282
-0.00904481
-0.00857977
-0.008605
-0.00876514
-0.00884589
-0.0067216
-0.0072329
-0.00792425
-0.0100408
-0.00712947
-0.00694563
-0.00975451
-0.00961721
-0.010312
-0.00953736
-0.0094531
-0.00961908
-0.0103579
-0.00980845
-0.00866191
-0.0129869
-0.011481
-0.0136805
-0.0136175
-0.0185196
-0.0184164
-0.0207292
-0.0242601
-0.0259831
-0.0297486
-0.0347736
-0.0393661
-0.0280042
-0.032453
-0.0279574
-0.0210152
-0.0239382
-0.0175693
-0.0155441
-0.0235705
-0.0208813
-0.0248512
-0.0247231
-0.0249147
-0.0247795
-0.0327271
-0.0326026
-0.0418402
-0.0417821
-0.0397609
-0.0357071
-0.0420502
-0.0413781
-0.0318939
-0.0239764
-0.0177278
-0.0131072
-0.0129188
-0.0127012
-0.0146649
-0.0174654
-0.0171532
-0.0198635
-0.0236119
-0.0231803
-0.0198659
-0.0146671
-0.0129331
-0.0129175
-0.0126972
-0.011139
-0.0147122
-0.0199264
-0.0267321
-0.0266529
-0.0313845
-0.0307874
-0.0349841
-0.040673
-0.0398564
-0.0446615
-0.0510778
-0.0519947
-0.0518777
-0.0753457
-0.05276
-0.079419
-0.0611845
-0.059908
-0.0761695
-0.0556039
-0.0785591
-0.0795141
-0.0813912
-0.0777307
-0.106202
-0.0751401
-0.0695372
-0.065331
-0.0822484
-0.0831294
-0.0618962
-0.0696963
-0.0800405
-0.0830735
-0.0767629
-0.0751112
-0.105585
-0.0780674
-0.081637
-0.081903
-0.0821138
-0.0816841
-0.0777527
-0.0823055
-0.0733153
-0.0682879
-0.080649
-0.0533633
-0.0520882
-0.0566331
-0.0833655
-0.0556751
-0.0547013
-0.0556673
-0.0838555
-0.0557418
-0.05495
-0.0552738
-0.083636
-0.0569756
-0.0625323
-0.105788
-0.0825172
-0.0772483
-0.0641704
-0.0619003
-0.0788647
-0.0601829
-0.0557065
-0.0446694
-0.0349623
-0.0266337
-0.0198516
-0.0146582
-0.0110939
-0.0129222
-0.0130974
-0.0114903
-0.015311
-0.017904
-0.0155317
-0.0207205
-0.0242395
-0.0259674
-0.0297406
-0.034753
-0.0393554
-0.0232036
-0.0323745
-0.0208639
-0.0277298
-0.0174177
-0.0242276
-0.0155315
-0.0205376
-0.0177308
-0.0169753
-0.0220936
-0.0208762
-0.0253676
-0.0286564
-0.0247903
-0.0323318
-0.0287929
-0.0369387
-0.0369185
-0.0325733
-0.0420464
-0.0374448
-0.0475678
-0.0416822
-0.0534049
-0.0471688
-0.0598573
-0.0599546
-0.0520537
-0.0650305
-0.0569777
-0.0647743
-0.0648726
-0.0520839
-0.0598458
-0.0598942
-0.0646963
-0.0569215
-0.060092
-0.0521438
-0.0417989
-0.0326784
-0.024884
-0.0185515
-0.0137089
-0.0129821
-0.0175618
-0.0185179
-0.0184091
-0.0248476
-0.0247121
-0.0279417
-0.0324272
-0.0280139
-0.0369898
-0.0424729
-0.0455662
-0.0508504
-0.0582871
-0.0640144
-0.038567
-0.0534883
-0.0353573
-0.0479128
-0.0302527
-0.0422666
-0.0274819
-0.0368371
-0.0313701
-0.0300066
-0.0385422
-0.0362557
-0.0437137
-0.048573
-0.0418193
-0.0532514
-0.0470464
-0.0604599
-0.0596462
-0.0521158
-0.0652067
-0.0566404
-0.0644749
-0.0698788
-0.0522319
-0.0600069
-0.0560757
-0.0574049
-0.0555355
-0.059087
-0.0555518
-0.0471986
-0.0493492
-0.0610775
-0.0648806
-0.0441341
-0.0512137
-0.0412549
-0.03218
-0.0244617
-0.0182308
-0.0134909
-0.0102171
-0.00814034
-0.00758936
-0.0084823
-0.00746409
-0.00571462
-0.00689803
-0.00811429
-0.00745627
-0.0102408
-0.00621512
-0.00736592
-0.00953786
-0.00863636
-0.00778031
-0.00849974
-0.0107121
-0.00906246
-0.0114533
-0.0103256
-0.0133905
-0.0118655
-0.0152868
-0.0152564
-0.0136077
-0.0178876
-0.0155139
-0.0207013
-0.01696
-0.0167381
-0.0178935
-0.0124579
-0.0134177
-0.0110273
-0.0110168
-0.00888478
-0.0082025
-0.00800533
-0.00835222
-0.00829101
-0.00799014
-0.00886388
-0.00732213
-0.00943064
-0.008711
-0.0118593
-0.010344
-0.0134313
-0.0118368
-0.0152696
-0.0153101
-0.0136734
-0.0178804
-0.0160552
-0.0206942
-0.0184428
-0.0241703
-0.0217065
-0.0278855
-0.0278817
-0.024693
-0.0322707
-0.0299453
-0.0225704
-0.0241783
-0.0194375
-0.0194193
-0.0144426
-0.0125553
-0.0134559
-0.0097232
-0.0108991
-0.0089305
-0.00958077
-0.0103746
-0.0109989
-0.0110359
-0.0123437
-0.0137065
-0.0146088
-0.0125385
-0.0163041
-0.0154321
-0.0212707
-0.0184696
-0.0242256
-0.0216448
-0.0278862
-0.0279341
-0.0247837
-0.0322501
-0.0288759
-0.0368858
-0.0325168
-0.0420964
-0.0374419
-0.0475674
-0.0476205
-0.0416441
-0.0533997
-0.0417491
-0.0406164
-0.0313301
-0.0307706
-0.0266423
-0.0198579
-0.0146627
-0.0110976
-0.0126981
-0.0129152
-0.0174585
-0.0177106
-0.0137145
-0.0185603
-0.0248962
-0.0318228
-0.031368
-0.0236
-0.0231723
-0.017148
-0.017472
-0.0129279
-0.0118791
-0.0134251
-0.0103261
-0.0134099
-0.0152894
-0.0136503
-0.0178892
-0.0179041
-0.0152806
-0.0152868
-0.0136766
-0.0178889
-0.0179331
-0.0153134
-0.0134525
-0.0103522
-0.0134042
-0.0114993
-0.0114629
-0.0114735
-0.0114836
-0.0103461
-0.0134296
-0.0134103
-0.0118764
-0.0152714
-0.0136694
-0.0179101
-0.0178932
-0.0160606
-0.0206845
-0.0184751
-0.0242128
-0.0241803
-0.0241771
-0.0241954
-0.0184484
-0.0207078
-0.020699
-0.0160638
-0.0207009
-0.0184832
-0.0241748
-0.0242432
-0.0207331
-0.0160147
-0.0179285
-0.0183737
-0.013656
-0.0152754
-0.0118459
-0.0134335
-0.0137184
-0.0103423
-0.0115431
-0.0114591
-0.0108904
-0.00849753
-0.0107206
-0.00906853
-0.0108172
-0.00848737
-0.0108003
-0.0090661
-0.0107312
-0.00849279
-0.0108691
-0.0114633
-0.011521
-0.00901558
-0.00972529
-0.00884884
-0.00819145
-0.0060523
-0.00831802
-0.00791847
-0.00811108
-0.00812615
-0.00602399
-0.00817987
-0.00804402
-0.0079069
-0.00833265
-0.00605405
-0.0112209
-0.00831426
-0.00810719
-0.00710523
-0.00954044
-0.00836635
-0.00811542
-0.00812921
-0.00834833
-0.00779953
-0.00861391
-0.00953157
-0.00692956
-0.0083081
-0.0112119
-0.00810994
-0.0118024
-0.00906398
-0.0103542
-0.0103534
-0.013714
-0.0185624
-0.0236109
-0.0217278
-0.0278977
-0.0247425
-0.0322658
-0.032296
-0.0322573
-0.0323834
-0.0247909
-0.0279076
-0.0279377
-0.0216642
-0.0242307
-0.0248859
-0.0184704
-0.0206855
-0.0212771
-0.0154477
-0.0163211
-0.0188245
-0.0170013
-0.022116
-0.0253993
-0.0228614
-0.0295592
-0.0336891
-0.030049
-0.0385832
-0.0437607
-0.0385162
-0.048509
-0.0489745
-0.0448689
-0.0387099
-0.0349972
-0.0297858
-0.0265905
-0.0224039
-0.0198
-0.016598
-0.0146224
-0.012552
-0.0138421
-0.0157465
-0.0114325
-0.0121948
-0.0103886
-0.00928105
-0.0110065
-0.0123506
-0.00958303
-0.00943722
-0.00871987
-0.0111473
-0.00852941
-0.0106935
-0.0090226
-0.00973402
-0.00891787
-0.00829278
-0.00622209
-0.00737985
-0.0102386
-0.00571689
-0.00812314
-0.00732509
-0.00886278
-0.00799124
-0.00690231
-0.00745926
-0.00863236
-0.00779329
-0.00953761
-0.00800521
-0.00819328
-0.00885503
-0.0109804
-0.0110209
-0.0144679
-0.0194905
-0.0261066
-0.0247915
-0.0323391
-0.0333013
-0.0286674
-0.0279022
-0.0227692
-0.0168823
-0.0125756
-0.0125237
-0.0144014
-0.0193647
-0.0259018
-0.0302431
-0.0288195
-0.0369193
-0.0325817
-0.0420471
-0.0423112
-0.0421417
-0.0437015
-0.0326069
-0.0369621
-0.0378713
-0.0278415
-0.0232094
-0.0306151
-0.0302567
-0.0395764
-0.0400736
-0.0424991
-0.0455956
-0.0508576
-0.0353847
-0.039641
-0.0309702
-0.0275037
-0.0326499
-0.0325261
-0.0370174
-0.04177
-0.04173
-0.0477978
-0.0364603
-0.0412775
-0.0326938
-0.0418149
-0.0519436
-0.0511069
-0.0406611
-0.0398559
-0.0307783
-0.03137
-0.0349731
-0.0350783
-0.0349859
-0.0266552
-0.0236351
-0.0236016
-0.0174607
-0.0171466
-0.0174635
-0.0177058
-0.0239307
-0.0210241
-0.0229638
-0.016983
-0.01677
-0.0168132
-0.0168959
-0.0124889
-0.0124613
-0.00964725
-0.00973599
-0.00795431
-0.0126286
-0.0227637
-0.0226945
-0.0303074
-0.0304179
-0.0306179
-0.0397891
-0.0396343
-0.040119
-0.03065
-0.0477475
-0.0541663
-0.0461013
-0.0599468
-0.0512792
-0.050539
-0.0617338
-0.0619452
-0.0601496
-0.0719088
-0.0961131
-0.0980743
-0.0563096
-0.0726951
-0.100626
-0.0792306
-0.0629514
-0.0779364
-0.078796
-0.0640722
-0.062392
-0.106608
-0.0807528
-0.0781447
-0.101383
-0.0867924
-0.0868819
-0.0819165
-0.079525
-0.0558438
-0.078744
-0.0600204
-0.0555928
-0.0446625
-0.0407061
-0.0314132
-0.0313676
-0.0327313
-0.0326436
-0.0325088
-0.0417611
-0.0417082
-0.0396251
-0.0309561
-0.0235597
-0.0332747
-0.0378557
-0.0326049
-0.0421347
-0.0373659
-0.0478215
-0.0475432
-0.0417447
-0.0532801
-0.0471427
-0.0534251
-0.0417892
-0.0326712
-0.0313545
-0.0318116
-0.0412635
-0.0364724
-0.0406583
-0.0398512
-0.0307745
-0.0231698
-0.023599
-0.0185502
-0.0137052
-0.0103467
-0.0134335
-0.0124862
-0.0152817
-0.00967154
-0.0114998
-0.0108267
-0.00804266
-0.00837317
-0.00813744
-0.00597025
-0.00822209
-0.0089156
-0.0167738
-0.0168527
-0.0179314
-0.0144837
-0.0165871
-0.0188003
-0.019781
-0.0195102
-0.0223882
-0.0248656
-0.0265647
-0.0228301
-0.0295274
-0.0278115
-0.0336485
-0.029764
-0.0349634
-0.0343488
-0.0261329
-0.0227274
-0.0242371
-0.0226159
-0.0241924
-0.0259763
-0.0301861
-0.0323721
-0.0300048
-0.0368868
-0.0341005
-0.0391507
-0.0422917
-0.0386834
-0.0436685
-0.0448292
-0.0384656
-0.0484627
-0.0461239
-0.0562386
-0.0489486
-0.0440869
-0.0551091
-0.0644672
-0.0639756
-0.0633622
-0.0681515
-0.0649449
-0.0595328
-0.0493498
-0.0537642
-0.0436923
-0.0545824
-0.063965
-0.0693292
-0.066119
-0.0590662
-0.0487714
-0.0388188
-0.0476048
-0.0421218
-0.0341313
-0.0259992
-0.0437365
-0.0546697
-0.0641327
-0.0696828
-0.0661682
-0.0590613
-0.0487169
-0.0387485
-0.0420966
-0.0393686
-0.0303756
-0.0228777
-0.0182028
-0.0134785
-0.0102067
-0.00961981
-0.0132202
-0.0244042
-0.0320334
-0.0409903
-0.0496159
-0.0598208
-0.0644875
-0.0708948
-0.065838
-0.0532103
-0.0594314
-0.0645225
-0.0639694
-0.0547364
-0.0543822
-0.04355
-0.0339831
-0.0258803
-0.0193447
-0.0143846
-0.0109684
-0.0109647
-0.0088583
-0.00969524
-0.00969243
-0.00804065
-0.00953832
-0.00799545
-0.00828741
-0.00890463
-0.0110013
-0.0125684
-0.0118381
-0.0152531
-0.0153153
-0.01371
-0.0129252
-0.012695
-0.00945183
-0.0129093
-0.0130935
-0.00980266
-0.00833847
-0.0114456
-0.0114163
-0.00735833
-0.0129792
-0.0177014
-0.0174684
-0.0171431
-0.0174473
-0.023578
-0.0231651
-0.0236063
-0.0185547
-0.0248904
-0.0248973
-0.0326903
-0.0406542
-0.0374624
-0.0421377
-0.0325185
-0.0420748
-0.0476336
-0.0416778
-0.0533302
-0.0534568
-0.0475395
-0.0476527
-0.0417495
-0.0532596
-0.0537944
-0.0475338
-0.0374001
-0.0478534
-0.0485915
-0.0362946
-0.0302597
-0.0392243
-0.0343142
-0.0440419
-0.0550453
-0.055583
-0.0590967
-0.0639714
-0.0633743
-0.0643965
-0.0681736
-0.0649352
-0.0596011
-0.0494348
-0.0435646
-0.0340023
-0.0389337
-0.0300971
-0.0369198
-0.0368797
-0.0369164
-0.0368828
-0.0325879
-0.0421946
-0.0421022
-0.0374644
-0.047583
-0.0417883
-0.0535391
-0.0534138
-0.0471833
-0.0598308
-0.06008
-0.0599348
-0.0471147
-0.0519688
-0.0511617
-0.0446806
-0.0447714
-0.0500032
-0.0555917
-0.0520155
-0.0519552
-0.0757265
-0.0552446
-0.0522507
-0.0785861
-0.0794261
-0.0820593
-0.0777811
-0.081777
-0.0821514
-0.0791019
-0.05488
-0.0776757
-0.0582953
-0.0765447
-0.0768873
-0.0765517
-0.0767315
-0.0758004
-0.064781
-0.0812344
-0.105629
-0.0566713
-0.0783803
-0.0861596
-0.0816629
-0.086903
-0.081395
-0.077505
-0.102665
-0.0815399
-0.0571924
-0.0626258
-0.106104
-0.0620401
-0.0787218
-0.0569419
-0.0771413
-0.0584233
-0.0557215
-0.0500374
-0.0511021
-0.0511122
-0.051929
-0.0511015
-0.040636
-0.0511126
-0.0500819
-0.0398575
-0.0406613
-0.0313667
-0.031799
-0.0326935
-0.0418459
-0.0418073
-0.0511179
-0.0521542
-0.0493533
-0.0441606
-0.0716269
-0.0485394
-0.0619084
-0.0655039
-0.058179
-0.0616581
-0.0670831
-0.0757945
-0.0549983
-0.052068
-0.0787638
-0.0600243
-0.0584271
-0.0767268
-0.0546912
-0.0778647
-0.0791978
-0.0794947
-0.0822468
-0.0734556
-0.0812006
-0.105563
-0.0783712
-0.0816859
-0.0819283
-0.0820416
-0.082269
-0.0791924
-0.0552145
-0.0778637
-0.0810787
-0.0820923
-0.081014
-0.0793016
-0.0550464
-0.0780565
-0.0585579
-0.0771369
-0.0773061
-0.0694091
-0.052177
-0.0521563
-0.0692845
-0.0689539
-0.0495655
-0.0522928
-0.0521645
-0.0601007
-0.0689238
-0.0692015
-0.0694616
-0.0639908
-0.0766115
-0.0586233
-0.0485294
-0.0438907
-0.034247
-0.0260681
-0.0194628
-0.0144438
-0.0168756
-0.0207322
-0.0206629
-0.0160066
-0.0175623
-0.0239231
-0.0216511
-0.0278649
-0.0279444
-0.024786
-0.0323335
-0.0322738
-0.0278852
-0.0217239
-0.0279124
-0.0226819
-0.0193364
-0.0143842
-0.0168259
-0.0168234
-0.0125215
-0.0226861
-0.0258568
-0.0339413
-0.0434866
-0.0488994
-0.0599673
-0.0597588
-0.059964
-0.0488689
-0.0389092
-0.0300859
-0.028886
-0.0301978
-0.0369587
-0.0368805
-0.0287993
-0.0309568
-0.0235564
-0.0412521
-0.0373761
-0.0476223
-0.0477008
-0.0390958
-0.0385101
-0.0297105
-0.0223705
-0.0165771
-0.0123293
-0.00956492
-0.00797979
-0.00885186
-0.0109917
-0.014612
-0.0197791
-0.0227553
-0.02657
-0.0349139
-0.0447325
-0.0491896
-0.0594502
-0.056817
-0.0591785
-0.0543065
-0.0544093
-0.0637795
-0.069258
-0.0660824
-0.0591753
-0.063699
-0.0691055
-0.0663094
-0.0636848
-0.0701689
-0.0660997
-0.0699848
-0.0396485
-0.0471578
-0.0596057
-0.0470824
-0.0554187
-0.0648558
-0.0787049
-0.0811256
-0.0815311
-0.0861463
-0.0813778
-0.0868753
-0.0868777
-0.086771
-0.0811988
-0.0819323
-0.0865959
-0.102553
-0.083015
-0.0869978
-0.093384
-0.0916114
-0.103097
-0.103153
-0.101567
-0.102839
-0.1027
-0.0692545
-0.0693153
-0.0500421
-0.0793643
-0.0591005
-0.0692467
-0.0766053
-0.0288899
-0.0566722
-0.0826498
-0.0248812
-0.0322885
-0.0405305
-0.0308924
-0.0241538
-0.0174392
-0.0402926
-0.0238523
-0.0183582
-0.0206877
-0.0179055
-0.014456
-0.102683
-0.0541734
-0.0229383
-0.0174219
-0.0208981
-0.00605885
-0.0118595