/*--------------------------------*- C++ -*----------------------------------*\
| =========                 |                                                 |
| \\      /  F ield         | OpenFOAM: The Open Source CFD Toolbox           |
|  \\    /   O peration     | Version:  2306                                  |
|   \\  /    A nd           | Website:  www.openfoam.com                      |
|    \\/     M anipulation  |                                                 |
\*---------------------------------------------------------------------------*/
FoamFile
{
    version     2.0;
    format      ascii;
    arch        "LSB;label=32;scalar=64";
    class       volScalarField;
    location    "2.8";
    object      gradTy;
}
// * * * * * * * * * * * * * * * * * * * * * * * * * * * * * * * * * * * * * //

dimensions      [0 -1 0 1 0 0 0];

internalField   nonuniform List<scalar> 
5322
(
0.0471189
0.00548184
0.00124105
0.000239141
0.000998271
0.00130477
0.00124537
0.00107768
0.000917521
0.000737538
0.000216424
-0.00163173
-0.00171081
-0.001554
-0.00138075
0.0030769
0.00408117
-3.01931e-05
0.0030357
-0.00409937
0.00431979
-0.00521995
0.00576521
-0.00708935
0.00798625
-0.00935471
0.0104612
-0.012589
0.0139523
-0.0159909
0.0176479
-0.0201375
0.0225692
-0.0216639
0.0219906
-0.012283
0.0246152
0.0301034
0.0152005
0.0169946
0.0222424
0.0186713
0.0199093
0.0207857
0.019825
0.0202972
0.0201419
0.0215287
0.0206532
0.0191182
0.0241161
0.0108827
0.0126846
-0.0394571
-0.00194085
-0.0226815
0.012425
-0.0295662
-0.00143706
-0.0256903
0.0126093
-0.0290572
-0.00127822
-0.0255023
0.0126653
-0.0301326
-0.00174009
-0.0247333
0.0128412
-0.0335595
0.00103043
0.0265589
0.014746
0.0206655
0.0153773
0.0195343
0.0162582
0.0194743
0.0165661
0.0231931
0.00177202
0.0088543
0.0130097
0.020818
-0.0014036
-0.00767121
0.00272239
0.00518999
0.0109056
0.00154503
0.0029248
0.000528212
7.47884e-05
7.35549e-05
0.0262104
-0.0149332
0.000482345
0.015092
0.000457729
-0.000723215
0.00264191
0.000476739
0.0161127
-0.0254976
0.0228748
0.000504976
-0.00049975
-6.49258e-05
1.26157e-05
4.83826e-05
4.55766e-05
3.62064e-05
3.24153e-05
3.27164e-05
-2.53377e-05
1.39305e-05
0.00115386
-0.000454023
-0.000176175
-0.000867377
0.00107514
-0.00056271
-0.00111715
-0.00154473
-0.00173807
-6.85854e-05
0.00128685
-0.000963554
9.23477e-05
0.0010572
-0.00105115
4.50291e-05
0.00109827
-0.00112654
-3.63901e-05
0.00102386
-0.00123021
-9.96069e-05
-0.000300257
0.00188895
0.00155431
-0.00105145
0.000692779
0.000537328
-0.0011295
0.00013815
-0.00109313
0.000854981
0.000887039
-0.000979935
-1.3855e-05
-0.000903261
0.000910093
0.000994136
-0.000884333
-2.63125e-06
-0.000836593
0.00107372
-5.85676e-05
-3.82159e-05
0.00346292
-0.00270133
0.0032437
-0.00384069
0.00015385
-0.00214651
-1.16286e-06
7.18454e-05
-0.000343296
0.000950841
-0.00189957
0.00189423
-0.00331634
9.99411e-06
0.00339282
-0.00364119
0.00379024
-0.00430509
2.06407e-05
0.00424698
-0.00495129
0.00513566
-0.00588967
2.57309e-05
0.0057693
-0.00674676
0.00697393
-0.00805834
2.81987e-05
0.00789257
-0.00919346
0.00949385
-0.0109146
3.79853e-05
0.0106986
-0.0123674
0.0127722
-0.0144838
5.78681e-05
0.0141965
-0.0162952
0.0168295
-0.0186828
8.24631e-05
0.0182677
-0.0208542
0.0215152
-0.0230027
0.000113936
0.022362
-0.0255666
0.0257833
-0.0149696
-9.65457e-05
-0.00154736
0.000752103
-0.000497848
-2.3789e-05
0.000147221
0.000226071
1.4975e-05
0.0262439
-0.0149083
8.24799e-05
0.017883
-0.00268672
-0.00109088
0.000935909
-0.000985232
0.0150067
-0.0258468
0.000160041
0.000115542
0.000323005
0.000180853
7.85655e-05
2.60174e-05
1.58606e-06
-1.41038e-05
-2.63197e-05
2.92607e-05
-1.47099e-05
-0.000924973
-0.000988319
-0.000989838
-0.000925923
0.000210438
0.000310971
0.000187301
-0.00122588
0.000610311
-0.00126909
0.000310712
0.000210854
0.000188699
-0.00125411
0.000420611
0.00119331
0.000757967
-0.00122571
0.000611941
0.00129576
0.00181201
0.00193872
-0.00334353
-0.00333747
-0.00358773
0.00284384
-0.00387704
0.00408514
-0.00500369
0.00565681
-0.00674505
0.00775559
-0.0091448
0.0104152
-0.0122945
0.0136027
-0.0162705
0.0172264
-0.0208815
0.0209263
-0.00397215
0.0122616
-0.0024387
0.000220072
0.0181196
-0.0192206
0.000849216
0.015617
-0.015376
0.000612813
0.0126047
-0.0116922
0.000465449
0.00974934
-0.00868439
0.000354624
0.00728088
-0.00638978
0.000255234
0.00528689
-0.00473088
0.000163636
0.00375506
-0.00366253
0.000217981
0.00249501
-0.00023529
0.00249388
-0.00366495
0.000218172
0.00285724
-0.00356928
0.00139444
0.00225337
0.00165837
0.00157174
-0.00314253
0.00226016
-0.00350426
0.00359048
-0.0045065
0.00510454
-0.00608968
0.00704924
-0.00829431
0.00946721
-0.0112343
0.0123474
-0.0149007
0.0155723
-0.0185499
0.0183711
-0.00231481
0.00911557
-0.00781091
0.000611682
0.0253564
-0.0270952
0.00113725
0.0224941
-0.0210129
0.00074038
0.0178848
-0.0156282
0.000504927
0.0136346
-0.0115462
0.000366853
0.0101763
-0.00849087
0.000257181
0.00748927
-0.00626695
0.000171815
0.00548282
-0.00482545
0.000238195
0.00383193
-0.00401842
0.00138276
0.0031501
0.00277756
-0.00139153
0.00284411
-0.000661597
0.000463351
0.0033167
-0.00288729
0.00291383
-0.00306261
0.00491684
-0.00433723
-3.71684e-05
-0.00436292
0.00373036
-0.00351187
9.3938e-05
0.00367828
0.000157756
4.72235e-05
-0.00100321
9.57213e-05
-7.97186e-05
5.31741e-05
-2.27534e-05
-9.09158e-06
0.00337921
-0.00338448
0.00368633
-0.00425288
4.21882e-06
0.00501059
-0.00578515
0.00683271
-0.00791032
1.86953e-05
0.0093242
-0.0107094
0.0125676
-0.0141896
3.61898e-05
0.0165822
-0.0182381
0.0211856
-0.0223573
-3.64711e-05
3.93829e-05
6.28434e-05
0.000180546
9.45058e-05
9.17421e-05
0.0167509
-0.018228
8.60256e-05
0.0216392
-0.0241558
0.0215955
-0.022145
0.000211955
0.0270075
-0.0285964
0.0183456
-0.0136732
-0.0246503
-0.00186259
-7.55667e-05
-0.00885976
-0.00236782
0.000417195
0.0134906
0.0167673
0.00113201
-0.0233695
0.0160566
5.33539e-07
-0.015257
0.0125115
-0.000175197
-0.0108722
0.00951124
-0.000123853
-0.00779925
0.00701271
-0.000143168
-0.00573299
0.00535641
-0.000151333
-0.00406446
0.00415328
-0.000281503
-0.00288181
0.000813067
0.00128316
-0.0018018
-5.17867e-05
0.00310487
-0.00315994
0.00362425
-0.00409879
0.00484134
-0.00558348
0.00906959
-0.00795638
-3.05206e-05
-0.00784291
0.00683754
-0.00584105
-4.04788e-05
0.00663871
2.08227e-05
-7.64468e-05
-4.5127e-05
-0.00026533
-0.000303577
0.000208476
0.00031051
0.00010307
0.000139224
0.000236179
0.000141802
-0.000185543
0.00298979
0.000955265
0.000191547
0.00073412
6.93221e-05
-0.000113918
-7.51496e-05
0.000118263
0.000154729
-0.00014089
-0.000242973
-0.00446576
-0.00013677
0.00506876
-0.00614081
0.00655913
-0.00755717
0.00887996
-0.0100394
0.0164983
-0.0142311
1.22115e-05
-0.0143061
0.0126234
-0.0107557
-1.69632e-05
0.0123235
6.86578e-05
-7.59984e-05
-8.63625e-05
3.65249e-05
-0.000854311
-0.000381764
-0.000270096
-0.000588326
-0.000155097
-0.000112694
0.00382034
-8.2371e-05
-0.000126694
0.000292185
-0.000667649
-0.000187266
0.00164584
0.00310763
0.00566883
0.000469991
-6.47051e-05
0.000138206
-2.21667e-05
-0.00385511
-8.46926e-05
0.00411261
0.0037499
-0.00472717
0.000164237
-0.00499013
-0.000143412
0.00568752
0.00528406
-0.00637795
0.000256852
-0.00675423
-0.000210546
0.00777229
0.00729217
-0.00866604
0.000357995
-0.00919698
-0.00015963
0.0103857
0.0098
-0.0116792
0.000473095
-0.0124321
0.000240592
0.0134127
0.0127699
-0.015432
0.000628291
-0.016505
0.00156957
0.016529
0.0160865
-0.019578
0.000873793
-0.0209002
0.00525232
0.019191
0.0191888
-0.00302104
0.000233499
-0.00361815
0.0590776
-0.0283632
-0.0292294
0.0440215
0.0115814
0.00424304
-0.0358575
-0.00816825
-0.00492274
0.0160979
-0.0168647
-0.000318099
0.000644646
-0.00287761
-0.00330189
-0.000624971
0.000892337
0.000504711
-0.00015548
-0.000553758
-0.00016765
0.000260435
7.34663e-05
3.87524e-05
1.53038e-05
-1.27625e-05
-4.03316e-05
-0.000148788
-7.58245e-05
0.00195526
-0.00195541
2.12068e-05
1.35306e-05
-0.00198857
0.00195921
-4.53257e-06
7.97775e-06
-8.21843e-06
-0.000147461
-9.34628e-05
0.000355463
3.13731e-05
0.000408796
-0.000143952
-0.000177179
-2.26026e-06
0.000664321
-0.000776719
0.000783195
-0.00065834
-0.000667773
-0.000565233
2.35175e-05
0.00077773
0.000694057
-0.000689743
-1.95561e-05
-0.000780338
1.13149e-06
2.5108e-06
4.02141e-05
7.8987e-05
6.67175e-05
-0.000309139
-7.57906e-05
-0.000137255
-0.000176285
-0.000168169
-3.18589e-05
-1.11041e-05
0.00102747
-0.00204637
-0.000823625
-6.33387e-05
0.0096522
-0.0105132
0.0118396
-0.0132267
0.0153099
-0.000604567
-0.0141254
-0.000339781
0.0133527
-0.000283035
-0.00114974
0.000195614
0.000140611
0.000266819
0.000310309
-0.000266048
-0.0033089
0.0113592
-0.00536635
-0.0195766
-0.00291503
-0.00338241
-0.0443495
-0.0124882
0.0016164
-0.0185605
0.0134674
0.000661273
0.000629203
0.0162811
0.0136306
0.00177844
-0.00156689
0.017943
0.0161395
0.00189195
-0.00187091
0.0163184
0.0183731
0.00176577
-0.00421149
0.0135953
0.0186425
-0.00661937
0.0105576
-0.0091783
0.00981036
-0.0385247
-0.0208331
0.00341976
-0.00952545
0.0187084
-0.00117008
-0.0303962
0.0171954
-0.000328752
-0.0203218
-0.0201995
-0.0290772
0.0102962
-0.0153737
-0.0102233
0.0161967
-0.0294837
-0.00416128
0.0191056
-0.0203612
-0.00136189
0.0160898
-0.0144935
-0.000688306
0.0124833
-0.0106247
-0.000534399
0.009371
-0.00784295
-0.000419006
0.00694054
-0.00576792
-0.000257134
0.00515145
-0.0042765
2.49111e-05
0.00403419
-0.00303555
0.000730625
0.00280531
-0.00145116
0.00276297
0.00314564
-0.00405792
0.00382145
-0.00487352
0.000242666
0.00225302
-0.00314492
0.00138066
0.00156347
0.00167164
0.0022525
0.00193462
0.00139325
0.00270996
0.00163437
-0.000224881
-0.000740275
-0.000907885
-0.000864987
-0.00112971
-0.00163476
-0.0012413
-0.000556801
-0.000275299
0.00693291
-0.00807673
-0.000222906
-0.000174411
-0.000336793
3.38535e-05
-0.0106467
0.00934088
2.9744e-05
0.00804087
-0.00937983
3.11226e-05
0.0109174
-0.0126086
6.26999e-05
0.0145191
-0.0165892
0.00011305
0.0187338
-0.0211561
0.000149956
0.0229067
0.00017446
0.000382635
2.13806e-05
-2.01164e-05
-7.5979e-05
1.15323e-05
3.25645e-05
2.65043e-05
1.70509e-05
8.50534e-06
3.55083e-06
2.48077e-06
1.80429e-05
5.2882e-05
-0.00190513
3.07914e-05
9.96043e-05
-9.08089e-06
-1.06284e-05
-1.55002e-05
-2.22303e-05
-3.69209e-05
-7.15012e-05
-0.000139198
-0.000187749
0.000762058
-0.00022259
-0.000586484
-0.000795286
0.0155558
-0.0166394
0.0198874
2.35449e-05
-0.00276354
0.0023067
0.00724077
3.05376e-05
-0.00649298
0.0060862
0.00621595
1.14648e-05
-0.00692074
0.00647018
0.00558161
-6.11901e-06
-0.00872467
0.00828152
0.00780236
-0.000164981
0.0106968
-0.0112531
0.0109743
-0.0117925
-0.00110165
-0.00602955
0.00858995
-0.000755398
-0.0082546
-0.000190018
-5.88358e-05
0.0287386
-9.30438e-05
-0.0289181
0.017897
-0.000636454
-0.0185112
0.0185552
-0.000411743
-0.0194465
0.0291183
-0.000282061
-0.0291314
0.0261067
-0.02601
0.0258428
-0.02648
0.00010902
-0.0288225
0.0284931
-3.5258e-05
-0.0185484
-0.000704064
0.0187063
-0.0159561
0.000106176
0.0283156
0.0102261
0.0279051
0.0103248
-0.0125354
0.0184765
0.0022682
-0.0140501
0.0141624
0.000844396
-0.0116978
0.0108735
0.000570415
-0.00907915
0.00834973
0.000420965
-0.00688132
0.00617216
0.000317961
-0.0051204
0.00458758
0.00014253
-0.00384658
0.00323555
-0.000173051
-0.00311586
0.00193031
-0.00122539
-0.00333041
-0.000965823
-0.00299878
0.00197256
0.000185451
9.89899e-05
0.00123623
0.000306257
-0.00190759
-0.00156109
-0.000420979
-0.00121176
-0.000772791
-0.000598843
-0.001343
-0.000655882
-0.000698129
-0.00133348
-0.00195647
-0.00205432
-0.00138822
0.00355617
0.000225007
-0.00228366
-0.000215463
0.00343925
0.0040491
6.05534e-05
-0.0034283
-0.000165238
0.00435187
0.00639653
1.23629e-05
-0.00755848
0.000109981
0.00861202
-4.6026e-05
-0.0102768
0.000168221
0.0115851
-7.06608e-05
-0.0137718
0.000139147
0.0152987
-8.98304e-05
-0.0180378
0.000190364
0.0196683
-0.000173104
-0.0230583
1.08758e-05
0.0242762
-0.000502617
-0.0287565
-0.00081839
0.000521313
-0.0174748
0.0284898
0.000166945
0.0165701
0.000323411
-0.0143795
0.0235863
-3.91827e-05
0.0130013
0.000286425
-0.0113899
0.0186586
-3.44747e-05
0.0100535
0.000235125
-0.00870495
0.0143194
-1.95143e-05
0.00757436
0.000208404
-0.00653254
0.0107262
-1.23002e-05
0.00562141
0.000151888
-0.00482552
0.00792328
-6.57475e-06
0.00411965
0.000110929
-0.00363185
0.00587367
-2.16497e-05
0.00310076
6.87649e-05
-0.0029238
0.00441613
-0.000151437
0.00290681
-0.000456859
0.000668351
-0.00315799
-0.00276266
0.0014392
-0.00283595
-0.000749242
-0.000419469
-0.00569002
-0.0031209
-0.0027379
-0.0018797
-0.00139229
0.0031844
0.00367954
0.00029321
-0.00216378
-0.000237741
0.00493404
0.000120038
-0.0055291
0.000139358
-0.000257548
-0.000112005
2.75059e-05
-0.0029937
-6.75242e-05
0.00125892
-0.000172387
-0.000203848
-0.00033578
0.00123466
-0.000403237
0.000167056
0.000146533
4.42793e-06
1.13033e-05
1.02661e-05
8.79117e-06
7.36939e-06
6.94107e-06
-1.66276e-05
-8.01914e-06
0.00501713
-0.00580668
3.01262e-05
-1.45222e-05
-4.45136e-05
1.67742e-06
-0.00377051
3.30765e-07
0.0042839
-0.0050801
4.2115e-06
0.00586373
-0.00689365
1.37464e-05
1.08493e-05
-3.47017e-06
1.14001e-05
1.38182e-05
4.14796e-05
5.41963e-05
3.55591e-05
2.15383e-05
1.24138e-05
9.56498e-06
2.34278e-05
2.15705e-05
2.35618e-06
0.00423177
-0.0048608
0.00439772
-0.00511365
0.00595094
-0.0069292
8.64417e-05
-0.00289508
9.01267e-05
0.00271151
0.000121811
-0.00230144
5.3207e-05
0.00176747
-0.000148249
-7.8688e-05
0.000637606
-1.92731e-05
-0.000942543
0.00636967
5.50104e-05
-0.0046937
-0.000240717
0.00553636
0.00724131
0.000229105
-0.00665834
-0.000319501
0.00780744
0.0094494
0.000368388
-0.00900766
-0.000415348
0.0102196
0.0125062
0.000494141
-0.0119486
-0.000527881
0.0128617
-0.0153545
-0.000644617
0.015164
-0.0194061
6.35989e-05
-0.000646095
-0.000135617
-3.01236e-05
2.26367e-05
3.24047e-05
3.03635e-05
3.10643e-05
3.46924e-05
-2.58202e-05
1.49305e-05
0.000927196
0.000982016
0.000992841
-0.000274573
0.00128371
-7.4742e-05
-8.13956e-05
0.0013204
-0.000239996
0.00123288
-0.000392626
4.95293e-05
-0.000104922
0.000104359
-2.60858e-05
3.30167e-05
-1.39123e-05
-0.00362368
0.000124399
9.82101e-05
2.71958e-05
4.0444e-06
9.36725e-07
-0.000689499
0.000687492
2.37076e-05
-0.000574951
0.000903761
-0.000200797
6.88297e-05
5.31575e-05
-3.5223e-06
-0.000146294
0.00126883
-0.00356743
0.000225918
-0.00240775
-0.000235973
0.00335297
0.00413533
1.24125e-05
-0.00348528
-0.000153916
0.00523691
0.000101545
-0.00482238
-0.000237099
0.00585495
0.00708875
0.000236821
-0.00672741
-0.000327732
0.00779197
-0.00907961
-0.000423704
0.0102026
0.000336004
0.000274925
0.000209437
0.000143959
7.45588e-05
7.03594e-05
-3.88044e-05
2.20395e-06
2.80747e-05
5.52767e-06
-1.78726e-05
-8.81758e-05
-6.55121e-05
-2.1374e-05
-2.20647e-05
-6.20662e-05
-3.54742e-05
-0.000132193
-0.000107886
-0.000180426
-0.000197671
-0.00112345
-0.00157232
-0.00246943
-0.00267659
-0.00479948
-0.00410133
-0.00237468
-0.00881067
-0.0265839
0.00177528
-0.042092
-0.0312985
-0.0234254
-0.0156255
-0.0138352
0.00527908
-0.012268
-0.000817448
0.00306782
0.000287655
-0.00024524
0.0149529
-0.0174398
0.0202473
0.000184894
-0.0024764
0.00379023
0.00841218
0.000315658
-0.00583769
0.00787411
0.00786643
0.000333794
-0.00624387
0.00811825
0.00738533
0.000246713
-0.00836073
0.00922718
-0.00042325
0.000328252
0.000755946
0.00426824
-0.0181488
-0.0261673
0.000929093
0.0225748
0.000524985
0.000261617
0.0143412
0.000146256
-0.0234898
0.0264179
1.26339e-06
-0.0277754
0.0163807
-0.0170116
0.0149411
-0.00247291
-0.0181455
0.000679505
-0.0215269
0.0295641
-0.0258865
0.0245254
-5.71932e-05
-0.0245666
3.92263e-05
0.0243382
-7.25365e-05
-0.0244442
1.52084e-05
0.0245555
-8.2947e-05
-0.0246476
0.0263379
-0.0302101
0.00200914
-0.0229844
0.0316497
0.00161788
0.000894866
-0.00983198
0.0105248
-0.0108859
2.91321e-05
-0.0082927
0.00763122
0.000546099
-0.00948029
0.00683391
-0.00797253
0.00060127
0.0152473
-0.00860944
0.00515008
0.00113872
-0.00970839
0.00766685
-0.000163986
-0.000148807
-6.67432e-06
0.000265718
0.000138808
5.40764e-05
1.4039e-05
-3.33924e-06
-1.54555e-05
-2.62527e-05
2.91728e-05
-1.31404e-05
0.000570613
0.000662709
1.68629e-06
-0.000153532
-9.48152e-05
0.00120238
0.000421752
-0.00105021
0.000536235
0.000692947
-0.0011062
2.82039e-05
-0.00123748
-9.79857e-05
-0.000305232
-0.00102199
0.00156134
0.00191194
9.89058e-05
0.00035715
-8.59935e-05
4.95101e-05
0.000862251
-0.0009266
-9.86626e-06
-0.00098539
0.000985487
0.000929289
-0.000858906
-4.14924e-06
-0.00113924
-4.70546e-08
0.00114
8.71663e-07
2.37405e-06
-2.53323e-05
4.7516e-05
5.86835e-05
0.000395638
0.00566415
0.00310428
0.00161545
-0.000227237
-0.000729176
-0.000921289
-0.00115486
-0.00158421
-0.00241806
-0.00408861
-0.00420919
-0.00805374
-0.00880925
-0.0188027
-0.0309381
-0.0278871
-0.028052
0.0117123
-0.0170358
-0.00798822
-0.00863786
-0.025465
-0.0315721
-0.0283885
-0.0283967
-0.0283944
-0.0282353
-0.0322113
0.0118696
-0.00203141
-0.00738389
0.03595
-0.0103825
-0.0233491
-0.0219583
-0.00628079
-0.00768515
-0.0175393
-0.0182086
-0.0029583
-0.00504655
-2.73751e-05
0.000655236
0.000720451
0.000594033
0.000449114
0.000341472
0.00018744
0.000177145
-3.08982e-05
0.00010677
-0.000409624
-0.000670713
-0.000884364
-0.00118486
-0.0017347
-0.00298645
0.000473342
0.000298393
0.000202469
0.000492972
0.000556147
0.000473889
0.000466816
0.000331869
0.000418801
0.000258156
0.0035804
0.00544315
-0.00629633
0.00743643
-0.00848703
0.000259312
0.0050831
-0.00452011
0.000175767
-1.90068e-05
-6.68972e-05
-4.56957e-05
-0.00351388
7.33081e-05
-0.00126225
0.000762537
-0.000280248
-6.5278e-05
-8.82011e-05
0.000136556
-0.00113192
0.000883979
-5.9193e-06
-2.56249e-06
-2.57116e-06
1.24347e-06
0.000569811
-1.86867e-05
3.22648e-06
2.99612e-06
7.6017e-07
-0.000355885
2.52746e-06
0.00014786
9.18589e-05
0.00012138
-9.73773e-05
8.44892e-05
-9.63102e-07
9.18253e-06
-0.000354941
0.00113145
0.0011081
-0.000688213
-0.000133505
-0.000544828
0.00105722
9.34793e-05
2.5448e-05
2.62799e-06
1.06779e-06
-2.15364e-05
-1.82792e-05
-1.72418e-05
-4.31233e-05
-7.23651e-05
-7.46467e-05
2.49306e-05
-0.00012963
-0.000106468
-0.000174675
-0.000190744
-0.00609715
0.00700969
0.0101188
-0.0114863
0.0135604
-0.0154031
0.000478112
0.00939361
-0.00827668
0.000358564
2.06367e-05
-8.56904e-05
8.77026e-05
-7.6116e-05
0.000179433
-0.000180889
-0.000180413
-0.000181632
-0.000171964
-6.0469e-05
0.000161999
0.000324441
0.000389396
0.00017438
0.00421403
0.000127567
0.000146746
7.05702e-05
3.11665e-05
6.59732e-06
-1.63896e-05
-1.10175e-05
-6.71652e-06
-1.40237e-05
1.77665e-05
6.27815e-06
2.57674e-07
4.40763e-05
2.07671e-05
2.04123e-05
1.17749e-05
-2.93595e-06
2.30642e-05
2.07655e-05
4.84043e-06
9.68629e-06
1.66526e-05
2.67892e-05
2.11958e-05
8.43415e-05
4.35301e-05
6.93558e-05
0.000166205
8.15376e-05
0.000170059
0.000335182
0.000264772
0.000988318
-0.00241101
-0.00297377
-0.000509469
0.000377001
0.000517494
0.000339671
-0.00718769
-0.000155431
-8.62308e-05
-0.000103998
-0.000738495
-0.000259375
0.0163346
-0.000222858
-0.0205388
-0.000158559
-0.000893517
-0.0190868
-0.000869851
-0.00108468
-0.0125739
-0.00621167
-0.010262
-0.0247904
0.00254715
0.00623278
0.000388479
-0.000337314
-0.000289085
-0.000527359
0.000103735
-0.0146442
0.0196655
0.000130343
-0.004389
0.00199362
0.00670332
4.62271e-05
-0.0083801
0.00534591
0.00540442
-1.7088e-05
-0.00864556
0.00570813
0.00478911
-7.1519e-05
-0.00795132
0.00190772
-0.011563
0.00553533
0.00860362
-0.0109056
0.00322941
0.00140729
-0.000649861
-0.000114487
-2.05962e-05
3.20028e-05
3.70699e-05
3.15283e-05
3.02723e-05
2.93293e-05
1.95882e-05
2.91469e-05
9.75534e-05
0.00567505
-0.0066082
9.82517e-05
0.00772219
-0.00899616
0.00807319
-0.00937319
0.0108255
-0.0124796
0.000125051
-0.0053216
0.000129288
0.00511531
9.92367e-05
-0.00390779
0.00011757
0.00379009
1.36585e-05
9.44004e-05
0.00123096
-7.1166e-05
-0.00167245
0.0115485
0.000256493
-0.00858622
-0.00041462
0.00985652
0.0127673
0.000493851
-0.0117648
-0.000521375
0.0156724
0.00078434
-0.0152448
-0.000717373
0.0151454
0.0192705
0.000752208
-0.0231973
-0.000172425
-0.0192897
-0.0229444
0.000891563
0.0187232
0.015554
-0.0189497
-0.000107488
-0.000640254
0.000520466
0.000430738
0.00036521
0.000289182
0.000211367
0.000134266
5.85844e-05
9.85823e-05
2.64992e-05
6.44349e-07
3.49647e-05
7.31376e-07
0.0104439
-0.0120964
0.00017039
0.0138537
-0.0159571
0.0142619
-0.0161964
0.0184778
-0.0199586
-0.000613333
-0.00892792
-5.62725e-05
0.00904404
4.58501e-05
-0.00719036
9.43558e-05
0.0067952
-2.83377e-05
0.000249185
0.00245778
6.06516e-05
-0.0025575
0.0196463
0.0004273
-0.0140459
-0.000713866
0.0158717
0.0191538
0.000740118
-0.0238399
-7.04802e-05
-0.0170076
-0.0305179
0.000161297
0.0236374
-0.0018676
0.0100441
-0.00015387
0.00692917
0.00550384
0.00288066
0.00183171
0.0129162
-0.00783929
-0.000481944
0.00109863
0.000596209
0.000449993
0.000373484
0.000295703
0.000208381
9.35966e-05
7.79507e-05
0.00228809
-0.00160578
-0.00260936
-0.000608109
0.000498856
-0.00134358
0.0043096
-0.00189058
-0.00228696
-0.00223912
-0.00133821
0.00323952
0.0036057
0.000218304
-0.00243267
-0.00022201
0.0040113
2.44889e-05
-0.00342121
-0.000153552
0.0043893
0.00526655
0.000122862
-0.00486692
-0.000243841
0.00582247
-0.000404168
-0.000312194
-0.00596813
-0.00016597
-0.00430805
0.000799091
0.000806638
0.000223165
-0.00172844
-0.00286764
-0.00193467
-0.00141865
-0.00302684
-0.0010059
-0.000525978
0.000301403
7.36948e-05
0.00492544
4.40285e-06
-0.00342639
-0.000162566
0.00415343
0.00537869
9.46288e-05
-0.00484044
-0.000234677
0.00704909
0.000235501
-0.00667064
-0.000323961
0.00781685
0.00951261
0.000351522
-0.0109979
-0.000574069
-0.000446666
-0.00817925
0.001053
0.00105902
0.000943054
-0.000190357
-0.00423012
-3.93294e-06
-0.0027131
0.000231248
-0.000654682
-0.000884949
3.22086e-05
0.000729258
-0.000352928
-0.00520243
0.000414037
3.72634e-05
0.000904944
-5.53422e-05
0.00858032
0.000159639
-0.00640415
-0.000326006
0.00743247
0.00971876
0.000356586
-0.00896478
-0.000406576
0.0123925
0.000526918
-0.0118609
-0.000535524
0.0128472
0.0159145
0.000715089
-0.0185152
0.000385224
-6.95961e-05
-2.48439e-05
2.40151e-05
2.05745e-05
1.39898e-05
8.6199e-06
4.85689e-06
-7.43686e-06
-1.15022e-05
1.63123e-05
2.45806e-06
-5.77172e-06
6.53383e-06
2.29034e-05
4.98498e-05
7.77241e-05
4.06743e-05
1.6287e-05
4.30947e-06
4.59469e-06
-5.80264e-06
2.32989e-07
0.00507128
3.23007e-06
-0.00505942
0.00586395
5.82971e-06
-0.00687862
0.00689671
-0.00584612
0.00591956
6.7306e-06
-0.00697102
0.00687491
-0.00586669
0.00506153
-1.03745e-05
-0.00514733
0.0043295
-0.00430416
0.00431479
-0.00432308
1.60628e-05
-0.00505419
0.00516251
1.40374e-05
-0.00590934
4.20377e-06
-0.00686536
0.00699574
1.41894e-05
-0.00808587
-7.50711e-07
-0.00932475
0.0094846
-0.00933794
0.00936434
9.39292e-06
0.00801321
-0.00798679
5.89251e-06
0.00810156
1.85992e-05
-0.00945023
0.00933927
-0.00798807
-3.29396e-05
-0.00787663
0.00483504
1.39222e-05
0.00667343
-3.89414e-05
-0.00584405
0.00363507
2.47375e-05
0.00495698
-0.00436014
0.00376749
-1.46725e-05
-0.00382762
-1.23872e-06
0.00374207
2.13085e-06
-0.00373548
1.04811e-05
0.00383425
1.80674e-05
-0.00376193
0.0043744
-0.00496104
4.24815e-05
5.24685e-05
4.08703e-05
0.000149932
9.72912e-05
-0.00197709
0.00204322
-0.00201221
0.0020133
9.49548e-08
-5.05609e-06
-4.82486e-06
-0.00204239
0.0019778
-9.71312e-05
-5.55006e-05
0.00103527
-0.00115872
3.73291e-06
-7.75329e-06
0.00343326
-0.00347428
0.00347928
-0.00343062
0.00355217
-0.00371357
-9.07086e-05
-2.89454e-05
-0.0010339
5.62465e-05
0.00115876
-4.83885e-05
2.89836e-05
2.51719e-05
4.32701e-06
7.44149e-06
1.144e-05
1.48282e-05
1.42732e-05
-0.0107979
1.04689e-05
-0.0124778
0.0125118
-0.0126192
0.0125008
2.78881e-05
0.0109633
-0.0107882
-2.55158e-05
-0.0106642
0.00653405
2.76393e-05
0.00909311
-0.00560228
-0.000141121
-0.00449204
0.00508184
-0.000275519
-0.00610189
0.00688006
-0.000318407
-0.00813068
0.00927617
-0.00026228
-0.0105641
0.0123072
-0.000335616
-0.0136986
-0.00110819
-0.000333516
-0.000565642
-0.000171024
-0.000407771
-0.000172163
-0.000339287
-0.000155429
-0.000272216
-0.000101834
-0.000163131
0.00381623
-0.00411311
-0.000104401
-0.00322345
0.0030791
0.000163874
4.30438e-05
-0.000189618
1.39807e-06
-0.00192839
-6.71852e-05
0.00292846
0.000151414
-0.00440344
-3.47352e-05
-4.42666e-05
0.000237347
0.000136508
-0.000185235
-0.00197067
0.00299607
0.000969627
0.00331469
0.00120838
0.00068759
0.000140848
0.000454178
-0.00290786
0.00371321
-0.00354516
9.17029e-05
1.34595e-05
-0.000161856
-4.04686e-05
-1.27156e-05
0.000140158
0.000123114
0.000148352
0.000195394
5.28236e-05
-0.0142484
0.00873581
-0.00758248
0.0123061
2.44645e-05
6.1109e-06
-1.36744e-05
2.8432e-06
1.4925e-05
3.12767e-05
4.43623e-05
5.85448e-05
-6.85551e-06
-0.0142591
3.33514e-05
-0.0164252
0.0163315
-0.0185974
0.0114117
9.57338e-05
0.0163531
-0.0100999
-0.00013008
-0.000149952
0.00071489
0.000554223
0.000517556
0.0007436
0.0121706
0.0177554
-0.0203844
0.00198827
0.000191081
-8.09592e-06
0.000541409
-8.12748e-05
9.47373e-05
-0.0111321
0.000254947
0.00107205
-0.0146284
0.000651876
0.000108372
5.49959e-05
0.000111672
0.000220862
0.000319727
0.000155157
6.69548e-05
3.48527e-05
2.91721e-05
2.63933e-05
3.73668e-05
4.96698e-05
3.38387e-05
2.83275e-05
3.34523e-05
2.49478e-05
2.07834e-05
1.05476e-06
1.65812e-05
1.50227e-05
0.000123046
4.14506e-05
3.35521e-05
2.32836e-05
1.95222e-05
9.39562e-06
7.43499e-06
2.68955e-05
3.959e-05
1.52239e-05
-0.000189783
3.69546e-05
3.9786e-05
3.20513e-05
5.13811e-05
7.69166e-05
8.13541e-05
0.000138121
7.26701e-05
0.00013654
6.98552e-05
0.0178603
-0.0205274
0.000255953
0.0220177
0.000406706
8.16014e-05
0.000224608
0.00130694
-0.0040713
0.0127243
-0.0105017
0.0221419
0.00321342
0.0139646
-0.0119329
0.0101386
-0.0101272
0.00704963
0.00800269
-0.0110053
0.00249645
-0.0117979
0.00744781
0.00770882
0.0146279
-0.000749985
-0.000273666
-0.00183737
-0.000119163
-0.00762162
-0.000145697
-3.59695e-05
4.09663e-05
5.67067e-05
9.74988e-05
5.5778e-05
4.47937e-05
5.34488e-05
4.36708e-05
-1.31903e-06
4.35983e-05
5.77488e-06
0.000277206
0.000191953
0.000141058
-0.0134479
0.0152817
0.000349802
-0.0111946
-0.000531916
0.0127985
0.0161546
0.000695574
-0.0150413
-0.000689097
-0.0183686
0.000434635
0.000370196
-1.82923e-05
1.52232e-05
1.21141e-06
0.000236664
4.63199e-05
2.45988e-05
3.29655e-05
2.66323e-05
-7.70427e-06
0.00021596
0.000139887
5.99658e-05
-0.00416009
-0.000159333
0.00439119
2.75522e-05
0.00346698
-0.00278526
-0.00273331
0.00328705
-0.0020902
-0.0019427
-0.00170295
0.000233503
-0.000308902
-0.000348158
-0.00600499
0.000941748
-0.000371163
-0.00124157
0.000585157
0.00113713
-0.000467548
-0.00996339
0.000748043
0.000136004
0.00167769
-5.14179e-05
-0.00217964
-0.000551709
0.00101903
0.0016419
0.00137282
-0.000494552
-0.00830967
-0.000446089
-0.00808233
0.00121017
-0.000635225
-0.0112176
-0.0005735
0.0102501
0.00130019
-0.00080627
-0.0147743
-0.000420069
-0.0178504
0.00193885
0.000798628
0.00449298
0.000357477
-0.0233968
0.000982486
0.00191731
0.00217311
0.00342503
0.0134023
0.0315118
0.0165036
0.0243033
-0.00194992
-0.00109545
-0.0189956
0.00107245
0.000389974
0.00225614
0.0162701
0.023608
-0.00190693
-0.00102494
-0.000733342
0.013003
-0.0143301
0.00119375
0.00118128
0.000771515
-0.000114413
0.00162199
0.0149773
0.0238041
-0.00197094
-0.00103929
-0.000739921
-0.0144458
-0.000900401
-0.000709469
-0.000565338
0.000834832
0.000649323
0.000389091
-5.2053e-05
0.00023802
0.00100471
0.00112304
0.00109129
-0.00112061
-0.00142365
0.00153093
0.013664
0.0266229
-0.00469764
0.00514686
0.00228183
0.00213852
0.000328518
-0.000149552
-7.33762e-05
-3.6227e-05
-1.98018e-05
-1.18502e-05
-3.27197e-06
1.70228e-05
2.13342e-06
5.44386e-07
-5.30683e-06
1.57592e-05
9.02391e-06
9.87369e-06
-1.06658e-05
-0.000146481
-0.000241201
-0.000139028
2.6463e-05
5.08573e-05
-0.00668441
0.0058904
1.95306e-05
1.88655e-05
2.03656e-05
2.83432e-05
2.07228e-05
2.85962e-05
4.93228e-05
-4.48067e-05
0.0010155
-0.00387295
0.000242854
8.6227e-05
1.25873e-05
1.64128e-05
1.89026e-05
7.74295e-07
-9.90722e-06
2.21737e-05
1.71229e-05
1.52405e-05
1.1314e-05
1.57321e-05
1.71742e-05
5.13939e-05
4.91669e-05
0.0162859
2.39431e-06
-0.0162537
0.0183865
-2.53192e-05
-0.0204785
0.020474
-0.0183565
0.0186654
1.7742e-05
-0.0206641
0.0206443
-0.018303
4.26141e-05
0.0212061
-0.0132433
-7.11353e-06
-6.9236e-05
0.000133645
0.000259563
0.000257452
-0.000341912
-0.00144318
-0.00292444
-0.00585726
0.000112096
-0.00231745
-0.000885475
-0.000268583
0.000295667
0.000269934
3.4905e-05
5.12092e-05
6.05987e-05
3.4391e-05
0.0145127
-0.0142803
0.0143207
-0.0144824
-1.77219e-05
-0.0162655
0.0164649
1.18897e-06
-0.0186532
-4.86106e-05
-0.0205531
0.0206856
-1.69862e-05
-0.0231345
0.022782
-0.0261972
-2.94731e-05
-0.000161402
-5.89275e-05
2.10224e-05
3.77967e-05
0.000132127
0.000310406
0.000896948
0.00459297
-0.00229163
0.0595984
-0.00155132
-0.000281714
-0.00111978
-0.0114314
0.00249554
0.00661705
0.000529166
-0.000114694
-0.00600382
-0.000137312
0.000152711
0.000339742
2.81149e-05
3.55281e-05
0.000550964
0.000315384
-0.0190775
0.0165235
-0.000753735
-0.000472018
-0.000117589
0.00332242
-0.000848741
0.00273215
0.0044426
0.00772908
0.0149896
0.00339847
-0.00869825
0.00349954
-0.0117682
0.00277712
0.00134821
-0.0083175
0.00056084
-0.000145921
1.56284e-05
-2.92683e-05
1.22561e-05
0.000134594
-8.11427e-05
-0.000194876
-5.64145e-05
-0.000217401
-5.30695e-05
8.9736e-06
-2.27463e-06
1.50524e-05
-9.89183e-06
-2.72032e-06
-4.61847e-05
6.36515e-06
7.39739e-05
0.0001554
0.000432493
0.0063908
0.0272411
0.00146937
-0.00396048
0.0174436
0.000509166
-0.00291941
-0.00154584
-0.00248689
0.059204
-0.00126578
-0.000301066
0.000476204
0.000125252
0.000294819
-0.00546365
-0.00015552
-0.000153259
-0.00117996
-0.0115286
-0.0104375
-0.0066226
-0.0240133
0.00253615
0.0058795
0.000270439
-0.000334469
-0.000354932
-0.000205563
-0.00665455
-0.000347078
0.00323886
-0.00208086
0.00346988
-0.000224256
-0.00610224
-0.0003738
-0.000173937
-3.88297e-06
0.000457656
0.00200757
0.000471198
0.000528142
0.00192049
0.00186144
0.000219206
-0.000111025
-2.83605e-05
5.67592e-05
0.000173264
-9.23051e-05
-2.58882e-05
0.00126159
0.0208977
0.00157692
0.000577856
-0.000129212
-0.000175442
-0.000155601
-0.00012822
-0.000114472
1.14481e-05