/*--------------------------------*- C++ -*----------------------------------*\
| =========                 |                                                 |
| \\      /  F ield         | OpenFOAM: The Open Source CFD Toolbox           |
|  \\    /   O peration     | Version:  2306                                  |
|   \\  /    A nd           | Website:  www.openfoam.com                      |
|    \\/     M anipulation  |                                                 |
\*---------------------------------------------------------------------------*/
FoamFile
{
    version     2.0;
    format      ascii;
    arch        "LSB;label=32;scalar=64";
    class       volVectorField;
    location    "2.9";
    object      flux;
}
// * * * * * * * * * * * * * * * * * * * * * * * * * * * * * * * * * * * * * //

dimensions      [0 1 -1 1 0 0 0];

internalField   nonuniform List<vector> 
2658
(
(1.01653e-06 9.95514e-07 -9.00866e-06)
(1.4792e-06 5.73179e-07 -8.74275e-06)
(4.73753e-07 1.78476e-07 -6.76872e-06)
(-5.04003e-08 -2.67039e-08 -6.17125e-06)
(-2.2117e-06 -2.17539e-06 -7.56613e-06)
(-1.87163e-06 2.67923e-06 -7.75617e-06)
(1.9966e-06 -2.32903e-06 -7.17195e-06)
(1.96928e-06 1.95903e-06 -6.90968e-06)
(-3.9088e-08 -4.20559e-08 -6.16609e-06)
(2.6604e-06 -1.89559e-06 -7.73345e-06)
(-1.76556e-06 5.92506e-07 -7.54796e-06)
(-1.25816e-06 -4.16625e-06 -5.90431e-06)
(8.20513e-07 2.50062e-06 -7.8232e-06)
(9.87847e-07 2.5454e-06 -7.29309e-06)
(7.59702e-07 2.05415e-06 -7.57826e-06)
(-7.39898e-08 2.11279e-06 -7.79533e-06)
(-3.37434e-08 2.32187e-06 -7.45574e-06)
(-4.7851e-09 2.0798e-06 -7.77781e-06)
(-8.34123e-07 2.10298e-06 -7.57284e-06)
(-1.07423e-06 2.51424e-06 -7.19871e-06)
(-1.01091e-06 2.42049e-06 -7.69686e-06)
(-2.35228e-06 2.102e-06 -6.93222e-06)
(-2.83215e-06 6.90992e-07 -7.94012e-06)
(2.14424e-06 -4.8905e-07 -6.1373e-06)
(-9.14539e-07 7.9066e-07 -9.57743e-06)
(-1.11119e-06 2.32054e-06 -7.67887e-06)
(-2.39388e-06 -5.11399e-07 -6.84299e-06)
(-3.51198e-07 1.35938e-07 -8.11812e-06)
(-1.7536e-06 1.89273e-06 -8.26223e-06)
(-1.87422e-06 -2.11746e-10 -6.7561e-06)
(-1.75359e-06 -1.89289e-06 -8.2622e-06)
(-2.39392e-06 5.11444e-07 -6.84305e-06)
(-1.11139e-06 -2.32056e-06 -7.67883e-06)
(-2.83241e-06 -6.9074e-07 -7.94015e-06)
(-9.14506e-07 -7.90518e-07 -9.57744e-06)
(2.14428e-06 4.8919e-07 -6.13729e-06)
(-1.20709e-06 -1.62059e-07 -7.97746e-06)
(5.46465e-07 1.96018e-07 -1.10066e-05)
(-2.35182e-06 -2.10268e-06 -6.9321e-06)
(-1.01109e-06 -2.42077e-06 -7.69712e-06)
(-1.07412e-06 -2.5145e-06 -7.19898e-06)
(-8.33832e-07 -2.1031e-06 -7.5729e-06)
(-4.81336e-09 -2.07959e-06 -7.77757e-06)
(7.21571e-08 1.0505e-06 -1.13971e-05)
(-1.48333e-06 -1.82591e-07 -7.32588e-06)
(1.38942e-06 -9.79846e-08 -7.2439e-06)
(-1.76558e-06 -5.92565e-07 -7.54808e-06)
(-6.31621e-08 1.09333e-06 -1.13846e-05)
(-7.42892e-08 -2.11316e-06 -7.79538e-06)
(7.59566e-07 -2.05409e-06 -7.57819e-06)
(9.87816e-07 -2.54495e-06 -7.29282e-06)
(8.20676e-07 -2.50052e-06 -7.82327e-06)
(2.22996e-06 -2.20935e-06 -7.0011e-06)
(-4.7736e-07 4.61508e-07 -1.13928e-05)
(2.5142e-06 -8.22895e-07 -7.83034e-06)
(2.06218e-06 -7.8661e-07 -7.58921e-06)
(-1.11131e-06 5.27729e-08 -1.1385e-05)
(1.21585e-07 -1.40971e-06 -7.27714e-06)
(-3.96895e-06 -2.40133e-10 -6.17604e-06)
(2.08635e-06 -2.67793e-08 -7.78518e-06)
(-1.11132e-06 -5.28223e-08 -1.13853e-05)
(2.06221e-06 7.86401e-07 -7.58939e-06)
(2.51377e-06 8.22985e-07 -7.83005e-06)
(-4.77546e-07 -4.61584e-07 -1.13927e-05)
(5.64285e-07 5.71701e-07 -7.43615e-06)
(-4.17525e-06 -1.21985e-06 -5.91597e-06)
(5.56672e-07 -1.75162e-06 -7.5282e-06)
(-2.31193e-08 -7.52413e-08 -6.85265e-06)
(-1.40076e-06 -2.96674e-06 -7.67634e-06)
(-1.40086e-06 2.96659e-06 -7.67609e-06)
(-7.05304e-08 -6.15996e-11 -6.2723e-06)
(1.4381e-06 2.57349e-06 -7.04119e-06)
(-7.91219e-08 -2.49499e-08 -5.52168e-06)
(-1.59439e-06 2.17394e-06 -6.41593e-06)
(2.29921e-08 -1.05481e-08 -4.98641e-06)
(-1.6776e-06 -1.64468e-06 -6.34273e-06)
(2.15515e-06 -1.63237e-06 -6.39911e-06)
(-1.82548e-08 3.22138e-08 -4.98002e-06)
(-1.9033e-06 1.6236e-06 -5.7548e-06)
(2.1312e-06 1.06854e-06 -5.64876e-06)
(-2.47205e-06 -1.09121e-06 -6.39836e-06)
(-4.26773e-08 -6.12958e-08 -5.52007e-06)
(2.5838e-06 1.37318e-06 -7.00699e-06)
(-2.3388e-06 2.05971e-06 -7.19461e-06)
(-6.35556e-08 -4.80932e-08 -5.81272e-06)
(-4.01524e-08 -2.94043e-08 -4.67499e-06)
(-8.7358e-09 -2.00238e-09 -3.68231e-06)
(6.0872e-09 1.06691e-08 -2.83153e-06)
(1.17323e-08 1.57095e-08 -2.13614e-06)
(1.36428e-08 1.82521e-08 -1.60083e-06)
(1.25483e-08 1.66436e-08 -1.22597e-06)
(-4.00447e-08 -7.23798e-08 -1.33171e-06)
(3.57904e-08 3.80938e-08 -1.17881e-06)
(-2.38129e-07 1.86807e-07 -9.71532e-07)
(1.62911e-07 -8.45613e-08 -1.0648e-06)
(-2.83578e-08 -1.89622e-07 -1.12127e-06)
(-2.02376e-07 -3.68669e-08 -1.04498e-06)
(1.1202e-09 -2.09319e-07 -1.58681e-06)
(2.03895e-07 -3.95505e-08 -1.04583e-06)
(-1.65529e-07 -8.1024e-08 -1.06138e-06)
(9.02865e-08 -2.29721e-07 -1.59612e-06)
(2.311e-07 -6.27117e-08 -1.0745e-06)
(1.98463e-07 -1.93899e-07 -1.14037e-06)
(1.6678e-07 -1.07906e-07 -1.29373e-06)
(1.73405e-07 -8.91295e-08 -1.09247e-06)
(-3.45539e-07 2.04058e-07 -1.16772e-06)
(-6.76441e-08 -7.35409e-08 -8.30237e-07)
(-4.82734e-08 2.03772e-10 -1.37277e-06)
(-1.51935e-08 2.59822e-08 -9.10482e-07)
(9.61287e-08 -2.15936e-07 -1.39785e-06)
(2.06052e-07 7.12591e-08 -1.29741e-06)
(8.30271e-08 -9.81259e-08 -1.05892e-06)
(1.64294e-07 -5.44977e-12 -1.45945e-06)
(8.30221e-08 9.81213e-08 -1.05888e-06)
(2.06062e-07 -7.12722e-08 -1.29741e-06)
(9.61147e-08 2.1592e-07 -1.39781e-06)
(1.73401e-07 8.91317e-08 -1.09247e-06)
(-3.45529e-07 -2.04052e-07 -1.16772e-06)
(1.98463e-07 1.93895e-07 -1.14036e-06)
(1.66787e-07 1.07911e-07 -1.29372e-06)
(2.31101e-07 6.27093e-08 -1.0745e-06)
(9.02833e-08 2.2972e-07 -1.59604e-06)
(-1.65529e-07 8.10196e-08 -1.06136e-06)
(2.03897e-07 3.95465e-08 -1.0458e-06)
(-3.18328e-07 -1.60413e-07 -1.01042e-06)
(3.19873e-07 -1.55469e-07 -1.01536e-06)
(-2.3811e-07 -1.86814e-07 -9.71486e-07)
(-2.83433e-08 1.89613e-07 -1.12127e-06)
(-2.02379e-07 3.68575e-08 -1.04495e-06)
(1.62904e-07 8.45677e-08 -1.06481e-06)
(-9.181e-08 2.25083e-07 -1.58861e-06)
(-2.2495e-07 5.89569e-08 -1.06058e-06)
(-1.5551e-07 1.0798e-07 -1.27205e-06)
(-1.41519e-07 9.69967e-08 -1.05228e-06)
(-8.91854e-08 2.00871e-07 -1.38007e-06)
(1.00783e-08 -8.92937e-08 -9.6498e-07)
(-4.07309e-08 5.32314e-09 -9.31342e-07)
(-2.33141e-07 8.65647e-09 -1.08471e-06)
(1.94785e-07 -2.02171e-07 -9.43457e-07)
(1.94671e-07 2.02194e-07 -9.4349e-07)
(-4.06997e-08 -5.35611e-09 -9.31313e-07)
(1.00459e-08 8.9302e-08 -9.64982e-07)
(9.56883e-08 -5.43252e-08 -1.07374e-06)
(-9.86318e-08 -5.67337e-08 -1.14426e-06)
(-1.13407e-07 -5.14636e-10 -1.43987e-06)
(-9.84043e-08 5.65413e-08 -1.14373e-06)
(5.52613e-08 9.73385e-11 -1.3275e-06)
(7.21043e-08 1.09509e-10 -1.26617e-06)
(-1.97035e-07 -1.11663e-07 -9.10227e-07)
(-2.0504e-07 1.10071e-07 -9.14804e-07)
(-1.71295e-07 2.37105e-10 -8.6979e-07)
(-2.16625e-07 8.72699e-09 -1.22623e-06)
(-2.12374e-07 5.82893e-08 -1.1859e-06)
(-2.20328e-07 -6.46096e-08 -7.70869e-07)
(-1.68612e-07 2.62849e-07 -1.03154e-06)
(-3.00556e-07 6.15438e-08 -9.69918e-07)
(-2.74737e-07 2.45963e-07 -8.78591e-07)
(-1.15597e-07 2.90517e-07 -9.6877e-07)
(-1.31017e-07 3.07671e-07 -9.17045e-07)
(-9.50501e-08 2.447e-07 -9.47292e-07)
(1.64336e-10 2.46336e-07 -9.77002e-07)
(3.04405e-10 2.81389e-07 -9.40635e-07)
(-2.15249e-10 2.46054e-07 -9.77703e-07)
(9.20161e-08 2.49287e-07 -9.48246e-07)
(1.30708e-07 3.14852e-07 -9.13868e-07)
(1.18374e-07 2.93487e-07 -9.65693e-07)
(2.81243e-07 2.57315e-07 -8.79322e-07)
(3.47089e-07 8.36082e-08 -1.00706e-06)
(-7.92112e-08 -2.02744e-08 -1.48195e-06)
(2.04024e-07 4.47497e-08 -1.21704e-06)
(-5.1286e-07 -3.28802e-07 -1.50686e-06)
(5.55499e-07 4.16292e-07 -1.75955e-06)
(-6.33948e-07 -4.36179e-07 -2.0228e-06)
(7.3354e-07 5.33782e-07 -2.32634e-06)
(-8.37677e-07 -5.97041e-07 -2.70058e-06)
(9.78367e-07 6.99786e-07 -3.11228e-06)
(-1.11403e-06 -8.1096e-07 -3.59209e-06)
(1.29192e-06 9.10685e-07 -4.11709e-06)
(-1.46145e-06 -1.08026e-06 -4.69712e-06)
(1.67685e-06 1.16e-06 -5.33407e-06)
(-1.87521e-06 -1.40892e-06 -5.99963e-06)
(2.14227e-06 1.43929e-06 -6.72985e-06)
(-2.34628e-06 -1.80901e-06 -7.47187e-06)
(2.75737e-06 1.74131e-06 -8.03067e-06)
(-2.76099e-06 1.69917e-06 -7.78002e-06)
(2.93475e-06 1.42334e-06 -7.63911e-06)
(-3.02942e-06 1.35092e-06 -7.70977e-06)
(2.66037e-06 1.89569e-06 -7.73351e-06)
(-2.21188e-06 2.17526e-06 -7.56605e-06)
(-5.04894e-08 2.65817e-08 -6.17112e-06)
(-1.87156e-06 -2.67947e-06 -7.75632e-06)
(5.56647e-07 1.75152e-06 -7.52793e-06)
(-4.17489e-06 1.2197e-06 -5.91589e-06)
(5.64417e-07 -5.7167e-07 -7.43617e-06)
(-1.25818e-06 4.16626e-06 -5.90434e-06)
(4.9154e-07 -5.0389e-07 -9.66033e-06)
(-6.35749e-08 4.78851e-08 -5.81275e-06)
(-4.01452e-08 2.92755e-08 -4.67495e-06)
(-8.76858e-09 1.88551e-09 -3.68227e-06)
(6.03397e-09 -1.07735e-08 -2.83149e-06)
(1.17305e-08 -1.57785e-08 -2.13611e-06)
(1.36538e-08 -1.82918e-08 -1.6008e-06)
(1.2551e-08 -1.66678e-08 -1.22596e-06)
(-4.00497e-08 7.23648e-08 -1.33171e-06)
(3.58013e-08 -3.80763e-08 -1.1788e-06)
(5.42606e-10 3.18376e-09 -7.91782e-07)
(-8.57603e-08 -8.42824e-08 -8.5224e-07)
(-4.8578e-09 2.88267e-08 -1.32696e-06)
(1.21111e-07 -1.08822e-07 -8.75363e-07)
(1.21109e-07 1.08822e-07 -8.75361e-07)
(-8.57723e-08 8.42837e-08 -8.52244e-07)
(5.33845e-10 -3.1985e-09 -7.91785e-07)
(-4.84602e-09 -2.88326e-08 -1.32697e-06)
(4.05385e-08 -3.30913e-08 -8.17638e-07)
(3.19888e-07 1.55483e-07 -1.01535e-06)
(-3.18344e-07 1.60411e-07 -1.01042e-06)
(2.18523e-08 -1.91731e-07 -1.11959e-06)
(2.45695e-07 1.82596e-07 -9.79211e-07)
(-2.37878e-08 4.41655e-08 -1.18206e-06)
(9.39937e-09 -6.16338e-09 -7.98066e-07)
(-3.67666e-08 -2.95281e-08 -8.1526e-07)
(6.24561e-10 2.86451e-08 -1.20321e-06)
(3.63709e-09 -2.78541e-08 -1.32114e-06)
(3.40257e-08 -3.01705e-08 -1.32537e-06)
(2.12127e-08 -1.16983e-11 -1.33392e-06)
(3.40166e-08 3.01631e-08 -1.32535e-06)
(-2.38179e-08 -4.41947e-08 -1.18205e-06)
(-6.76383e-08 7.35431e-08 -8.30218e-07)
(-1.5838e-07 -1.38327e-07 -8.9076e-07)
(-4.82698e-08 -2.03966e-10 -1.37276e-06)
(3.54519e-08 -1.53859e-07 -9.5102e-07)
(3.54361e-08 1.53844e-07 -9.51016e-07)
(-1.58377e-07 1.38309e-07 -8.90753e-07)
(-7.04585e-09 -1.87914e-11 -1.23258e-06)
(9.8928e-08 -9.62576e-08 -8.64079e-07)
(-1.17153e-07 -1.05334e-07 -8.70127e-07)
(-1.17141e-07 1.05318e-07 -8.70105e-07)
(2.00638e-09 -2.74172e-08 -1.32627e-06)
(9.89253e-08 9.62295e-08 -8.64063e-07)
(-2.18478e-09 -1.41899e-08 -1.15691e-06)
(-2.19575e-08 -9.78862e-12 -1.10449e-06)
(-2.88019e-08 -7.80424e-08 -1.08355e-06)
(-2.64135e-08 -3.44792e-08 -1.00776e-06)
(1.19292e-07 1.01651e-07 -1.13913e-06)
(-2.67751e-08 -2.63496e-08 -1.09155e-06)
(-9.03639e-09 4.72775e-12 -1.13488e-06)
(-1.97694e-07 1.43618e-12 -1.54032e-06)
(2.89443e-08 -1.38408e-11 -1.20961e-06)
(-7.84019e-08 -1.45759e-07 -8.90112e-07)
(1.21449e-07 1.05384e-07 -1.2919e-06)
(1.31256e-07 2.94528e-07 -9.73037e-07)
(2.91084e-07 -7.08767e-08 -8.48339e-07)
(2.06648e-07 2.34073e-07 -1.03085e-06)
(-5.32784e-07 -3.10777e-07 -1.07329e-06)
(3.40649e-07 3.55828e-07 -1.50852e-06)
(-5.37494e-07 -3.74457e-07 -1.57159e-06)
(-5.37473e-07 3.74406e-07 -1.57157e-06)
(-1.36767e-08 4.72525e-08 -1.09752e-06)
(-5.29419e-07 4.20658e-07 -1.84937e-06)
(1.08812e-08 3.00165e-08 -1.24735e-06)
(5.68287e-07 -5.03471e-07 -2.11313e-06)
(-6.73299e-07 5.62931e-07 -2.44947e-06)
(7.73635e-09 1.55941e-08 -1.65528e-06)
(7.63475e-07 -6.63326e-07 -2.81578e-06)
(-8.92887e-07 7.59793e-07 -3.26439e-06)
(1.553e-09 3.24611e-09 -2.20663e-06)
(1.01867e-06 -8.75758e-07 -3.74797e-06)
(-1.17747e-06 1.01191e-06 -4.30481e-06)
(-8.33093e-09 -1.39592e-08 -2.90179e-06)
(1.33586e-06 -1.13785e-06 -4.90677e-06)
(-1.51832e-06 1.31937e-06 -5.56049e-06)
(-2.49135e-08 -4.92959e-08 -3.73398e-06)
(1.72255e-06 -1.44259e-06 -6.27707e-06)
(-1.89562e-06 1.68227e-06 -7.00616e-06)
(-4.61798e-08 -1.33742e-07 -4.68328e-06)
(2.23669e-06 -1.77869e-06 -7.77935e-06)
(-2.23584e-06 2.09258e-06 -8.71477e-06)
(-1.21091e-07 -3.58958e-07 -5.90944e-06)
(3.33166e-06 -2.25606e-06 -8.97531e-06)
(5.38038e-07 -1.0379e-06 -6.13358e-06)
(3.83596e-06 -2.30559e-06 -7.78793e-06)
(3.83589e-06 2.30547e-06 -7.78782e-06)
(-3.51172e-07 -1.35876e-07 -8.11801e-06)
(8.29978e-07 -6.23979e-07 -8.09358e-06)
(-3.08903e-07 1.19506e-06 -7.34019e-06)
(1.21027e-06 1.06639e-06 -6.81924e-06)
(5.90941e-08 -6.78881e-11 -9.74479e-06)
(-7.7444e-07 -7.58552e-07 -6.53481e-06)
(-7.74425e-07 7.58528e-07 -6.53485e-06)
(8.3821e-07 7.90928e-07 -6.58578e-06)
(-4.23991e-08 -6.27375e-11 -9.76221e-06)
(-9.90855e-07 -9.53395e-07 -6.67142e-06)
(-9.90783e-07 9.53307e-07 -6.67139e-06)
(2.65513e-07 3.84505e-07 -6.31994e-06)
(-3.126e-07 -1.56723e-10 -9.60292e-06)
(-1.38539e-06 -2.47666e-06 -8.00967e-06)
(-1.38527e-06 2.47629e-06 -8.00944e-06)
(4.52381e-07 -1.53451e-06 -9.06525e-06)
(1.94508e-06 -2.19861e-10 -1.27766e-05)
(4.5234e-07 1.53404e-06 -9.06509e-06)
(7.31952e-07 -1.19605e-06 -9.20804e-06)
(2.12314e-06 7.60265e-07 -1.26276e-05)
(8.89561e-07 1.75115e-06 -9.16916e-06)
(1.21787e-06 1.21406e-06 -1.06512e-05)
(1.61345e-06 1.60931e-06 -9.38151e-06)
(-2.39104e-06 -2.371e-06 -9.17097e-06)
(-1.39213e-06 1.69295e-06 -7.61078e-06)
(1.39683e-06 2.26189e-07 -8.90246e-06)
(8.92804e-07 1.4342e-07 -1.01954e-05)
(3.88265e-11 2.4937e-08 -9.57875e-06)
(2.65508e-07 -3.84649e-07 -6.31998e-06)
(-1.58121e-07 -1.39117e-07 -6.02565e-06)
(-4.02389e-07 -3.92759e-07 -9.45692e-06)
(1.68301e-06 -1.35883e-06 -7.64229e-06)
(-1.21602e-06 7.28324e-07 -9.2112e-06)
(7.53925e-07 2.09503e-06 -1.26281e-05)
(1.75125e-06 8.87035e-07 -9.17501e-06)
(1.00116e-06 1.00304e-06 -1.01914e-05)
(-5.2527e-07 -5.11515e-07 -9.25745e-06)
(-7.09062e-07 -9.03744e-11 -9.35741e-06)
(-5.25149e-07 5.11509e-07 -9.25746e-06)
(-4.02363e-07 3.92756e-07 -9.4569e-06)
(-1.39189e-06 -1.69289e-06 -7.61067e-06)
(-2.39101e-06 2.37097e-06 -9.17097e-06)
(8.89864e-07 -1.75116e-06 -9.16905e-06)
(2.12344e-06 -7.60048e-07 -1.26273e-05)
(7.32183e-07 1.19586e-06 -9.20798e-06)
(1.39703e-06 -2.26453e-07 -8.90261e-06)
(8.92959e-07 -1.43658e-07 -1.01955e-05)
(1.00132e-06 -1.00285e-06 -1.01912e-05)
(1.75117e-06 -8.87067e-07 -9.17536e-06)
(7.5364e-07 -2.09484e-06 -1.26275e-05)
(-1.21606e-06 -7.2835e-07 -9.21122e-06)
(1.68296e-06 1.35876e-06 -7.64225e-06)
(2.10791e-07 -1.40578e-06 -8.89394e-06)
(1.51033e-06 -4.96973e-07 -9.12547e-06)
(-3.85861e-08 -1.9408e-06 -1.27862e-05)
(-1.57738e-06 -4.36953e-07 -9.07803e-06)
(2.4636e-06 1.28127e-06 -8.03509e-06)
(-3.95853e-08 3.04743e-07 -9.61747e-06)
(-4.40386e-07 -3.00562e-07 -6.31818e-06)
(-2.53764e-06 1.39311e-06 -8.01868e-06)
(-4.78859e-08 -2.75086e-07 -9.29227e-06)
(-2.97444e-07 -3.30844e-07 -9.38552e-06)
(1.67354e-08 1.70411e-08 -6.1734e-06)
(1.39759e-08 -7.46378e-09 -4.98061e-06)
(6.66844e-09 -2.65479e-08 -3.93028e-06)
(3.77286e-09 -3.18225e-08 -3.02563e-06)
(1.97581e-09 -3.1217e-08 -2.2844e-06)
(-2.41651e-10 -2.91701e-08 -1.71239e-06)
(-1.77474e-09 -2.56552e-08 -1.31122e-06)
(-1.00503e-08 -3.15406e-08 -1.30151e-06)
(5.14982e-07 -3.11542e-07 -1.46474e-06)
(-5.56263e-07 -2.65628e-07 -1.44488e-06)
(5.62269e-07 -2.39704e-07 -1.45047e-06)
(-5.04555e-07 -3.63374e-07 -1.45869e-06)
(5.4048e-07 4.69444e-07 -1.67515e-06)
(-6.48512e-07 -4.94801e-07 -1.92953e-06)
(7.28447e-07 6.09446e-07 -2.21163e-06)
(-8.60651e-07 -6.78047e-07 -2.57764e-06)
(9.79458e-07 7.99891e-07 -2.96042e-06)
(-1.141e-06 -9.23464e-07 -3.432e-06)
(1.30155e-06 1.03992e-06 -3.91832e-06)
(-1.49063e-06 -1.23731e-06 -4.49479e-06)
(1.6964e-06 1.32184e-06 -5.0774e-06)
(-1.90317e-06 -1.62358e-06 -5.75485e-06)
(2.15496e-06 1.63247e-06 -6.39885e-06)
(-2.33876e-06 -2.05976e-06 -7.19468e-06)
(-3.92055e-08 4.20306e-08 -6.16605e-06)
(1.96916e-06 -1.95905e-06 -6.90968e-06)
(1.99626e-06 2.32905e-06 -7.17176e-06)
(1.43842e-06 -2.5737e-06 -7.04144e-06)
(-1.15535e-06 2.42541e-06 -6.38792e-06)
(2.06131e-08 -1.12053e-10 -5.09262e-06)
(-1.15517e-06 -2.42557e-06 -6.38806e-06)
(1.13501e-06 2.1122e-06 -5.66865e-06)
(1.5658e-06 -1.89714e-06 -5.743e-06)
(1.55218e-06 1.53785e-06 -5.56918e-06)
(-1.31997e-06 -1.29399e-06 -4.98385e-06)
(-1.28427e-06 1.71043e-06 -5.08756e-06)
(3.66868e-08 8.07088e-09 -3.91788e-06)
(1.19222e-06 1.17766e-06 -4.36947e-06)
(4.26948e-09 4.38549e-08 -3.91216e-06)
(1.69666e-06 -1.32174e-06 -5.07759e-06)
(-2.27331e-08 -4.76845e-08 -4.42119e-06)
(-1.94156e-06 -8.74104e-07 -5.05995e-06)
(1.89491e-06 -1.00047e-06 -5.04312e-06)
(-3.82707e-09 4.27797e-08 -3.99716e-06)
(-1.66855e-06 9.31272e-07 -4.453e-06)
(1.54375e-06 1.01768e-06 -4.45051e-06)
(-1.77808e-06 -1.11856e-06 -5.07011e-06)
(-4.5356e-09 -5.34882e-08 -4.42623e-06)
(-2.12848e-06 1.21791e-06 -5.68968e-06)
(-7.32383e-09 2.32926e-08 -5.07743e-06)
(2.40152e-06 -1.22578e-06 -6.35336e-06)
(-2.59863e-06 1.52614e-06 -7.08309e-06)
(-1.3058e-08 -6.76159e-08 -6.25814e-06)
(-3.02937e-06 -1.35092e-06 -7.70969e-06)
(-9.14768e-08 -7.10131e-10 -6.85931e-06)
(1.38942e-06 9.79477e-08 -7.24388e-06)
(-6.31149e-08 -1.0934e-06 -1.13845e-05)
(2.1082e-07 1.40564e-06 -8.89393e-06)
(-2.53768e-06 -1.3932e-06 -8.01866e-06)
(-4.40367e-07 3.00437e-07 -6.31813e-06)
(8.20648e-08 1.04835e-07 -9.41125e-06)
(-3.00875e-08 -9.63841e-09 -7.25672e-06)
(-2.92475e-08 -7.48358e-11 -6.50346e-06)
(-2.48039e-08 2.86285e-08 -6.09429e-06)
(-1.56295e-08 3.60939e-09 -4.92816e-06)
(-8.02961e-09 -1.64169e-08 -3.8883e-06)
(-3.6718e-09 -2.36043e-08 -2.99256e-06)
(-1.40948e-09 -2.47722e-08 -2.25858e-06)
(-2.7209e-10 -2.41105e-08 -1.69263e-06)
(5.76346e-10 -2.13349e-08 -1.29514e-06)
(3.63944e-09 2.78383e-08 -1.32112e-06)
(6.074e-10 -2.86518e-08 -1.2032e-06)
(-3.67692e-08 2.9532e-08 -8.15266e-07)
(1.98563e-09 2.73962e-08 -1.32626e-06)
(9.39715e-09 6.17869e-09 -7.98053e-07)
(2.45691e-07 -1.82599e-07 -9.79212e-07)
(2.18397e-08 1.91724e-07 -1.11957e-06)
(-9.93139e-09 -1.32567e-07 -1.55927e-06)
(-2.77536e-07 8.84886e-08 -1.1492e-06)
(2.43631e-07 4.95344e-08 -1.14177e-06)
(-2.42809e-07 4.01082e-08 -1.13515e-06)
(2.68926e-07 1.11346e-07 -1.16015e-06)
(-1.07756e-07 7.82769e-08 -1.09596e-06)
(5.31936e-07 -2.14465e-08 -8.72171e-07)
(-1.38399e-07 -3.03184e-07 -1.21377e-06)
(3.44279e-07 4.93637e-07 -1.45384e-06)
(2.25073e-08 1.7175e-09 -1.29308e-06)
(-4.42735e-07 -5.45474e-07 -1.70119e-06)
(-4.46424e-07 4.43051e-07 -1.60854e-06)
(4.21996e-07 -3.82966e-07 -1.42119e-06)
(1.31003e-08 -3.05608e-08 -1.28082e-06)
(-1.04876e-08 2.51332e-08 -1.38045e-06)
(-5.94374e-08 1.5946e-07 -1.23271e-06)
(1.65299e-09 1.6228e-07 -1.23715e-06)
(6.75311e-08 1.60964e-07 -1.23301e-06)
(1.33117e-07 1.00324e-07 -1.21962e-06)
(1.68883e-07 1.11736e-07 -1.14869e-06)
(1.53806e-09 7.80983e-09 -1.3814e-06)
(2.66034e-08 4.38738e-08 -1.41096e-06)
(6.43408e-08 4.74042e-08 -1.23569e-06)
(8.87779e-09 2.59817e-08 -1.38485e-06)
(-9.09589e-09 -1.93567e-08 -1.80824e-06)
(-2.49439e-09 7.1269e-09 -1.84475e-06)
(-1.50209e-08 -8.40726e-09 -1.80197e-06)
(-2.62271e-08 -1.94518e-08 -2.40105e-06)
(-2.09194e-08 -1.65702e-08 -2.47049e-06)
(1.40218e-08 1.46606e-08 -2.13346e-06)
(1.95043e-08 2.11631e-08 -1.59841e-06)
(6.61191e-09 2.25256e-08 -1.55768e-06)
(-5.6303e-07 4.05338e-07 -1.65753e-06)
(6.07424e-07 3.56449e-07 -1.66485e-06)
(-7.22088e-07 -3.65673e-07 -1.91326e-06)
(7.29012e-07 -3.19687e-07 -1.91437e-06)
(-1.92839e-09 1.6865e-08 -1.46676e-06)
(-6.15152e-07 3.22038e-07 -1.65565e-06)
(1.43192e-10 -3.44054e-08 -1.31106e-06)
(2.39278e-10 3.28287e-08 -1.38732e-06)
(3.12363e-10 -1.58777e-08 -1.80992e-06)
(6.6397e-10 -5.32272e-08 -2.43117e-06)
(-1.64417e-08 -5.42822e-08 -2.42745e-06)
(-2.40563e-08 -9.30266e-08 -3.23124e-06)
(-4.26701e-08 -4.11678e-08 -3.28499e-06)
(-4.03107e-08 -3.22427e-08 -3.18129e-06)
(-5.84649e-08 -4.84724e-08 -4.13883e-06)
(-7.42223e-08 -7.76254e-08 -4.28588e-06)
(-2.3226e-10 -1.52143e-09 -3.75742e-06)
(8.91495e-09 8.17695e-09 -2.85203e-06)
(8.82733e-09 1.70445e-08 -2.77772e-06)
(-1.02736e-06 6.70999e-07 -2.94603e-06)
(1.09965e-06 6.10406e-07 -2.94206e-06)
(-1.27586e-06 -6.94218e-07 -3.40354e-06)
(1.28546e-06 -6.00986e-07 -3.39332e-06)
(-8.56053e-09 3.21201e-08 -2.61006e-06)
(-1.12027e-06 5.32671e-07 -2.93915e-06)
(9.69034e-07 -4.39249e-07 -2.55301e-06)
(-5.37274e-09 2.48433e-08 -1.95514e-06)
(-8.32737e-07 4.10788e-07 -2.19198e-06)
(-4.69996e-10 -3.28582e-08 -1.7235e-06)
(8.19337e-07 4.66044e-07 -2.19837e-06)
(-9.60765e-07 -5.07067e-07 -2.55705e-06)
(2.18755e-09 2.62166e-08 -1.96003e-06)
(-7.63015e-07 5.14814e-07 -2.19643e-06)
(6.7154e-07 -4.16595e-07 -1.92723e-06)
(2.34983e-09 1.82526e-08 -1.47006e-06)
(1.34334e-10 3.19356e-09 -1.62946e-06)
(-1.35169e-08 -1.14409e-08 -1.55925e-06)
(-5.29358e-07 -4.20589e-07 -1.84933e-06)
(1.72848e-08 5.3496e-09 -1.08003e-06)
(4.245e-07 3.94307e-07 -1.6553e-06)
(1.82693e-08 -5.64336e-08 -1.00479e-06)
(-5.15136e-07 -3.44596e-07 -1.39623e-06)
(-2.84267e-07 -7.19439e-08 -8.48935e-07)
(8.84952e-08 -2.85998e-08 -1.00283e-06)
(-2.43473e-08 -3.94725e-09 -1.18875e-06)
(-1.45186e-09 9.32309e-09 -1.22746e-06)
(-4.82109e-09 2.26254e-08 -1.17279e-06)
(5.90036e-09 5.1772e-08 -1.21581e-06)
(-6.82694e-09 5.01836e-08 -1.2152e-06)
(1.12416e-08 -1.3577e-07 -1.55317e-06)
(-5.97273e-08 4.97245e-08 -1.26735e-06)
(-1.06934e-07 9.94252e-08 -1.21407e-06)
(-7.48482e-08 6.27612e-08 -1.19311e-06)
(2.50352e-09 1.0835e-08 -1.39818e-06)
(-3.73618e-08 3.2441e-08 -1.38305e-06)
(-2.46496e-08 2.41807e-08 -1.62286e-06)
(-8.0899e-09 2.16224e-08 -1.55554e-06)
(9.24536e-09 -1.97471e-08 -1.79961e-06)
(1.9256e-08 -5.54357e-08 -2.41616e-06)
(2.98775e-08 -9.58927e-08 -3.21945e-06)
(9.20262e-10 -9.50412e-08 -3.23913e-06)
(8.99221e-10 -1.54973e-07 -4.22795e-06)
(-3.42218e-08 -1.46888e-07 -4.21419e-06)
(-5.34134e-08 -2.39679e-07 -5.36633e-06)
(-1.29418e-07 -1.50872e-07 -5.46801e-06)
(-8.28821e-08 -7.17368e-08 -5.26009e-06)
(-1.5555e-07 -1.43087e-07 -6.50107e-06)
(-2.90304e-07 -3.52077e-07 -6.85308e-06)
(-6.49843e-08 -5.81059e-08 -6.08503e-06)
(-1.88132e-08 -1.99794e-08 -4.84386e-06)
(5.43342e-09 7.59879e-10 -4.7372e-06)
(-1.778e-06 1.11858e-06 -5.0699e-06)
(1.89483e-06 1.00062e-06 -5.043e-06)
(-2.12852e-06 -1.21784e-06 -5.68961e-06)
(2.13124e-06 -1.06837e-06 -5.64868e-06)
(-2.27651e-08 4.764e-08 -4.42122e-06)
(-1.94139e-06 8.74149e-07 -5.05988e-06)
(1.67753e-06 -8.08927e-07 -4.43266e-06)
(-1.33457e-08 3.9265e-08 -3.43528e-06)
(-1.48842e-06 6.88044e-07 -3.89599e-06)
(-1.94031e-09 -4.17108e-08 -3.06833e-06)
(1.45756e-06 7.90656e-07 -3.89296e-06)
(-1.6685e-06 -9.31177e-07 -4.453e-06)
(-8.37476e-10 4.2857e-08 -3.44106e-06)
(-1.36538e-06 8.73044e-07 -3.90472e-06)
(1.18461e-06 -7.62477e-07 -3.40923e-06)
(1.19013e-09 3.42896e-08 -2.61582e-06)
(4.18647e-10 5.9041e-09 -2.88908e-06)
(7.97764e-10 4.63227e-09 -2.16845e-06)
(-1.37986e-08 -1.48029e-08 -2.06992e-06)
(-6.73275e-07 -5.62866e-07 -2.44946e-06)
(9.42539e-09 2.86182e-09 -1.42548e-06)
(5.68297e-07 5.03484e-07 -2.11308e-06)
(1.09295e-08 -3.00188e-08 -1.24734e-06)
(3.96233e-08 -8.01933e-09 -1.26715e-06)
(-6.57165e-07 -5.02268e-07 -2.05555e-06)
(7.14171e-07 6.02431e-07 -2.37426e-06)
(-8.62583e-07 -6.75724e-07 -2.73496e-06)
(-8.62591e-07 6.7567e-07 -2.73487e-06)
(-2.01616e-09 1.3529e-08 -1.90043e-06)
(9.67746e-07 -8.00267e-07 -3.15769e-06)
(9.05719e-09 6.97369e-09 -2.24333e-06)
(-1.14118e-06 9.03651e-07 -3.63277e-06)
(-1.49488e-09 4.40989e-09 -2.51652e-06)
(1.28452e-06 -1.05162e-06 -4.16309e-06)
(-3.13696e-09 8.2733e-09 -2.9478e-06)
(-1.48233e-06 1.18611e-06 -4.7474e-06)
(-1.04167e-10 -1.2741e-08 -3.27297e-06)
(1.66883e-06 -1.35033e-06 -5.37702e-06)
(-3.26792e-08 6.5371e-09 -3.78632e-06)
(-1.85607e-06 1.51936e-06 -6.06644e-06)
(1.04619e-08 -5.92737e-08 -4.15847e-06)
(2.13298e-06 -1.68019e-06 -6.76039e-06)
(-1.26274e-07 -9.15258e-09 -4.73286e-06)
(-2.17999e-06 1.89512e-06 -7.58096e-06)
(6.53805e-08 -2.14983e-07 -5.14463e-06)
(2.75844e-06 -1.96819e-06 -8.12389e-06)
(-4.67754e-07 -1.61612e-07 -5.79761e-06)
(-2.13298e-06 2.19702e-06 -9.40414e-06)
(-2.85951e-07 -1.04781e-10 -7.51524e-06)
(-2.13293e-06 -2.1971e-06 -9.40411e-06)
(5.38052e-07 1.03769e-06 -6.13358e-06)
(3.33167e-06 2.25623e-06 -8.97502e-06)
(-1.20993e-07 3.58816e-07 -5.90938e-06)
(-2.2357e-06 -2.09248e-06 -8.71484e-06)
(-9.42451e-08 -2.33964e-08 -5.12945e-06)
(2.23666e-06 1.77864e-06 -7.77926e-06)
(-4.59898e-08 1.33605e-07 -4.68321e-06)
(-1.89555e-06 -1.68216e-06 -7.00616e-06)
(-4.89751e-08 -7.7361e-09 -4.1765e-06)
(1.72267e-06 1.4428e-06 -6.27699e-06)
(-2.47424e-08 4.91924e-08 -3.73399e-06)
(-1.51805e-06 -1.31921e-06 -5.56055e-06)
(-2.2257e-08 -3.68455e-09 -3.29053e-06)
(1.33596e-06 1.13801e-06 -4.90676e-06)
(-8.19763e-09 1.3818e-08 -2.90172e-06)
(-1.17741e-06 -1.01184e-06 -4.30485e-06)
(-8.02905e-09 -9.57768e-10 -2.52861e-06)
(1.01869e-06 8.75835e-07 -3.74787e-06)
(1.67316e-09 -3.31259e-09 -2.20659e-06)
(-8.92853e-07 -7.59722e-07 -3.26441e-06)
(1.27026e-09 1.09743e-09 -1.90587e-06)
(7.63484e-07 6.63376e-07 -2.81573e-06)
(7.83327e-09 -1.56031e-08 -1.65526e-06)
(2.01682e-08 -6.23264e-09 -1.68287e-06)
(-2.49423e-08 -2.30798e-08 -2.12483e-06)
(-2.78256e-08 -1.7495e-08 -1.61596e-06)
(-2.80773e-08 -6.05253e-09 -1.27719e-06)
(1.63578e-07 7.92873e-08 -1.13938e-06)
(1.48354e-08 -3.36085e-11 -1.10405e-06)
(-6.00224e-08 -5.02104e-12 -1.16752e-06)
(-6.9794e-08 -6.47424e-11 -1.41193e-06)
(-7.01246e-08 -7.6048e-12 -1.8104e-06)
(-7.752e-08 2.39637e-11 -2.3916e-06)
(-9.02478e-08 4.39083e-11 -3.15626e-06)
(-9.54255e-08 1.13707e-10 -4.09613e-06)
(-6.08732e-08 4.05866e-10 -5.19314e-06)
(5.95856e-08 1.2891e-10 -6.40215e-06)
(1.99491e-07 -7.2247e-11 -7.45091e-06)
(-1.60015e-07 -1.88107e-10 -8.29145e-06)
(-1.34436e-06 6.37677e-07 -8.2316e-06)
(-1.34438e-06 -6.37808e-07 -8.23154e-06)
(-1.38927e-06 -8.90243e-07 -7.73744e-06)
(-1.14443e-06 -8.48181e-07 -8.90962e-06)
(-4.22537e-07 -2.59207e-07 -7.36726e-06)
(-1.49703e-07 -4.53042e-07 -6.70918e-06)
(-6.18896e-07 -1.42227e-06 -8.69161e-06)
(1.02892e-06 4.28781e-06 -6.03156e-06)
(1.69951e-06 -4.11179e-07 -7.37702e-06)
(2.94944e-08 1.71062e-08 -6.86615e-06)
(5.97669e-09 -1.8845e-08 -7.05439e-06)
(1.03319e-07 -2.38153e-08 -6.84553e-06)
(-4.67685e-07 1.61643e-07 -5.79752e-06)
(2.75828e-06 1.96828e-06 -8.12376e-06)
(6.54309e-08 2.14872e-07 -5.14462e-06)
(-2.17998e-06 -1.8951e-06 -7.58098e-06)
(-1.95555e-07 -4.75423e-11 -6.04302e-06)
(-5.34122e-08 -5.2621e-11 -6.20926e-06)
(-5.42613e-08 -5.93313e-11 -4.99953e-06)
(1.06073e-08 5.92168e-08 -4.15842e-06)
(-1.85605e-06 -1.51939e-06 -6.06651e-06)
(2.13295e-06 1.68017e-06 -6.76021e-06)
(-1.26227e-07 9.14166e-09 -4.7329e-06)
(2.18765e-09 -1.67695e-08 -5.79796e-06)
(-1.55386e-08 -2.08368e-08 -4.6413e-06)
(-3.26647e-08 -6.58316e-09 -3.7863e-06)
(1.66864e-06 1.35031e-06 -5.3769e-06)
(-2.28228e-11 1.26771e-08 -3.27298e-06)
(-1.48222e-06 -1.18621e-06 -4.74756e-06)
(-3.50104e-08 -1.28819e-11 -3.82087e-06)
(-4.92219e-08 -4.93073e-11 -3.94185e-06)
(-4.20938e-08 -5.7245e-11 -3.03523e-06)
(-3.33806e-08 -4.90848e-11 -2.2944e-06)
(-1.94489e-09 -1.36455e-08 -1.90043e-06)
(9.67751e-07 8.00214e-07 -3.15754e-06)
(-1.14117e-06 -9.03731e-07 -3.63289e-06)
(1.28449e-06 1.0516e-06 -4.16295e-06)
(-3.09408e-09 -8.26141e-09 -2.94771e-06)
(-1.78886e-08 -2.06489e-08 -3.61644e-06)
(-1.6052e-08 -1.81354e-08 -2.75542e-06)
(1.74525e-09 -4.98663e-11 -2.41604e-06)
(7.20633e-10 -3.28519e-11 -1.81258e-06)
(-1.66343e-09 -1.40573e-11 -1.39366e-06)
(-1.47813e-08 -2.0491e-11 -1.33038e-06)
(-1.36473e-08 -4.73187e-08 -1.09754e-06)
(5.16784e-07 4.59508e-07 -1.81858e-06)
(3.41969e-08 -1.86923e-11 -1.29812e-06)
(5.16798e-07 -4.59574e-07 -1.81862e-06)
(3.95435e-08 7.99937e-09 -1.26717e-06)
(-6.57161e-07 5.0221e-07 -2.05552e-06)
(-4.43869e-09 2.37806e-08 -1.42829e-06)
(7.14214e-07 -6.02523e-07 -2.37436e-06)
(2.01653e-08 6.19703e-09 -1.68288e-06)
(-1.37948e-08 1.47347e-08 -2.06994e-06)
(-2.37218e-08 -2.66974e-11 -1.72493e-06)
(-4.40801e-09 -2.38753e-08 -1.42827e-06)
(1.36595e-08 -2.22952e-11 -1.67325e-06)
(-1.34966e-08 1.13898e-08 -1.55925e-06)
(-2.43321e-08 3.92177e-09 -1.18876e-06)
(-5.15158e-07 3.44608e-07 -1.39625e-06)
(1.82782e-08 5.64118e-08 -1.00482e-06)
(4.24503e-07 -3.94309e-07 -1.65535e-06)
(8.84517e-08 2.85804e-08 -1.00286e-06)
(3.40628e-07 -3.55854e-07 -1.50854e-06)
(-7.8403e-08 1.45755e-07 -8.90126e-07)
(-5.32817e-07 3.10769e-07 -1.07329e-06)
(4.25426e-08 -1.19555e-13 -1.11804e-06)
(2.06643e-07 -2.34061e-07 -1.03086e-06)
(2.91063e-07 7.08753e-08 -8.48338e-07)
(1.31252e-07 -2.94581e-07 -9.73052e-07)
(3.47117e-07 -8.36152e-08 -1.00707e-06)
(1.21447e-07 -1.05382e-07 -1.29193e-06)
(4.23295e-08 -1.25502e-08 -1.04012e-06)
(-1.10635e-07 -6.80714e-08 -9.96285e-07)
(6.13553e-08 -3.46241e-08 -1.173e-06)
(-2.67847e-08 2.63465e-08 -1.09157e-06)
(-2.8794e-08 7.80369e-08 -1.08356e-06)
(1.1929e-07 -1.0166e-07 -1.13916e-06)
(-2.64312e-08 3.4494e-08 -1.00768e-06)
(1.81672e-08 -1.05455e-07 -1.16469e-06)
(9.64941e-10 7.81169e-08 -1.095e-06)
(1.15761e-09 -1.0117e-11 -1.12454e-06)
(9.51101e-10 -7.81147e-08 -1.09497e-06)
(3.42439e-10 -3.83996e-08 -1.0086e-06)
(1.11821e-09 2.09306e-07 -1.58674e-06)
(1.81717e-08 1.05457e-07 -1.16469e-06)
(-2.17686e-09 1.41947e-08 -1.15691e-06)
(6.13566e-08 3.46271e-08 -1.17299e-06)
(-1.51905e-08 -2.59706e-08 -9.10489e-07)
(-1.10635e-07 6.8062e-08 -9.96261e-07)
(4.23488e-08 1.25466e-08 -1.04012e-06)
(1.00672e-09 1.4583e-08 -1.15729e-06)
(3.55368e-08 -7.4913e-08 -1.07674e-06)
(3.02306e-08 -3.17153e-08 -1.00253e-06)
(-1.90341e-08 1.0516e-07 -1.1664e-06)
(-1.1671e-07 9.79209e-08 -1.13555e-06)
(3.54573e-08 -2.25751e-08 -1.0858e-06)
(-6.09881e-08 2.50505e-08 -1.14705e-06)
(1.13909e-07 1.38384e-07 -8.57132e-07)
(3.48234e-07 -2.01401e-07 -1.15761e-06)
(-1.99129e-07 1.86136e-07 -1.15174e-06)
(6.94979e-08 -2.84337e-08 -1.50772e-06)
(3.20919e-08 -1.72752e-12 -1.09759e-06)
(1.78128e-08 -2.2698e-13 -1.22185e-06)
(1.44817e-08 1.54988e-12 -1.30889e-06)
(2.528e-09 -7.47681e-12 -1.31893e-06)
(-1.3975e-10 -6.78228e-12 -1.24471e-06)
(3.78609e-10 -1.463e-11 -1.39058e-06)
(-5.94889e-10 -1.29888e-11 -1.80949e-06)
(-1.70575e-09 -1.47519e-11 -2.4133e-06)
(-4.10467e-09 -3.55477e-11 -3.1957e-06)
(1.90529e-09 -4.92711e-11 -3.19849e-06)
(2.33684e-09 -2.66975e-11 -4.15345e-06)
(6.16723e-09 -4.04552e-11 -5.26152e-06)
(1.85899e-08 -6.28512e-11 -6.51666e-06)
(-1.54611e-07 -4.79751e-11 -9.10742e-06)
(-3.86875e-07 -5.09362e-11 -8.3635e-06)
(1.61628e-06 -1.12508e-10 -1.22758e-05)
(-3.08907e-07 -1.19519e-06 -7.34016e-06)