/*--------------------------------*- C++ -*----------------------------------*\
| =========                 |                                                 |
| \\      /  F ield         | OpenFOAM: The Open Source CFD Toolbox           |
|  \\    /   O peration     | Version:  2306                                  |
|   \\  /    A nd           | Website:  www.openfoam.com                      |
|    \\/     M anipulation  |                                                 |
\*---------------------------------------------------------------------------*/
FoamFile
{
    version     2.0;
    format      ascii;
    arch        "LSB;label=32;scalar=64";
    class       volScalarField;
    location    "2.9";
    object      gradTz;
}
// * * * * * * * * * * * * * * * * * * * * * * * * * * * * * * * * * * * * * //

dimensions      [0 -1 0 1 0 0 0];

internalField   nonuniform List<scalar> 
2658
(
-0.0769971
-0.0747243
-0.0578523
-0.0527457
-0.0646677
-0.0662921
-0.0612987
-0.0590571
-0.0527016
-0.0660978
-0.0645125
-0.0504642
-0.0668649
-0.0623341
-0.0647714
-0.0666268
-0.0637243
-0.066477
-0.0647252
-0.0615274
-0.0657851
-0.0592497
-0.0678642
-0.0524556
-0.0818584
-0.0656313
-0.0584871
-0.0693857
-0.0706173
-0.0577444
-0.0706171
-0.0584876
-0.065631
-0.0678645
-0.0818585
-0.0524555
-0.0681834
-0.0940731
-0.0592487
-0.0657874
-0.0615297
-0.0647257
-0.0664749
-0.0974115
-0.0626143
-0.0619136
-0.0645135
-0.097304
-0.0666272
-0.0647709
-0.0623318
-0.0668656
-0.0598384
-0.0973743
-0.066926
-0.064865
-0.0973073
-0.0621978
-0.0527866
-0.06654
-0.09731
-0.0648666
-0.0669235
-0.0973739
-0.0635569
-0.0505638
-0.0643436
-0.0585697
-0.0656098
-0.0656076
-0.0536094
-0.0601811
-0.0471938
-0.054837
-0.0426188
-0.0542113
-0.0546933
-0.0425643
-0.0491864
-0.04828
-0.0546869
-0.0471801
-0.0598888
-0.0614924
-0.0496814
-0.0399572
-0.0314727
-0.0242011
-0.0182576
-0.0136823
-0.0104784
-0.0113821
-0.0100753
-0.0083037
-0.00910084
-0.00958354
-0.00893148
-0.0135625
-0.00893868
-0.00907161
-0.013642
-0.00918377
-0.00974674
-0.0110575
-0.00933737
-0.00998052
-0.00709604
-0.0117331
-0.0077819
-0.0119474
-0.011089
-0.00905059
-0.012474
-0.00905027
-0.011089
-0.0119471
-0.00933732
-0.00998051
-0.00974665
-0.0110575
-0.00918376
-0.0136414
-0.00907144
-0.00893848
-0.00863606
-0.00867832
-0.0083033
-0.00958352
-0.00893118
-0.00910092
-0.0135779
-0.00906474
-0.0108723
-0.00899382
-0.0117955
-0.00824769
-0.00796018
-0.009271
-0.00806373
-0.00806402
-0.00795994
-0.00824771
-0.00917725
-0.00978001
-0.0123066
-0.00977544
-0.0113462
-0.0108219
-0.00777972
-0.00781883
-0.0074341
-0.0104806
-0.0101359
-0.00658862
-0.00881659
-0.0082899
-0.00750933
-0.00828008
-0.00783799
-0.00809651
-0.00835045
-0.00803961
-0.00835644
-0.00810467
-0.00781084
-0.00825378
-0.00751558
-0.00860734
-0.0126663
-0.010402
-0.0128791
-0.0150389
-0.0172889
-0.0198832
-0.0230819
-0.0266007
-0.0307016
-0.0351888
-0.0401463
-0.0455903
-0.0512789
-0.0575201
-0.0638621
-0.0686382
-0.0664959
-0.0652916
-0.0658954
-0.0660984
-0.0646671
-0.0527446
-0.0662933
-0.0643413
-0.0505632
-0.063557
-0.0504645
-0.082567
-0.0496816
-0.0399568
-0.0314724
-0.0242008
-0.0182573
-0.013682
-0.0104783
-0.0113821
-0.0100752
-0.00676737
-0.0072841
-0.0113415
-0.00748174
-0.00748171
-0.00728414
-0.00676739
-0.0113416
-0.00698836
-0.00867821
-0.00863608
-0.00956914
-0.00836932
-0.0101031
-0.00682108
-0.00696804
-0.0102838
-0.0112918
-0.0113279
-0.011401
-0.0113277
-0.010103
-0.00709588
-0.00761333
-0.011733
-0.00812838
-0.00812834
-0.00761327
-0.0105349
-0.00738529
-0.00743699
-0.0074368
-0.0113357
-0.00738515
-0.00988812
-0.00944005
-0.00926111
-0.00861334
-0.00973619
-0.00932946
-0.00969985
-0.0131651
-0.0103386
-0.0076078
-0.0110419
-0.00831655
-0.00725076
-0.00881067
-0.00917346
-0.0128933
-0.0134324
-0.0134323
-0.00938055
-0.0158065
-0.0106611
-0.0180609
-0.0209357
-0.0141477
-0.0240665
-0.0279008
-0.0188601
-0.032034
-0.0367932
-0.0248016
-0.0419382
-0.0475256
-0.0319144
-0.0536501
-0.0598817
-0.040028
-0.0664902
-0.0744852
-0.050508
-0.076712
-0.0524237
-0.0665635
-0.0665626
-0.0693847
-0.0691759
-0.0627366
-0.0582841
-0.0832888
-0.0558531
-0.0558534
-0.0562888
-0.0834377
-0.0570207
-0.0570204
-0.0540165
-0.0820762
-0.0684587
-0.0684568
-0.0774808
-0.109202
-0.0774794
-0.0787012
-0.107929
-0.0783689
-0.091036
-0.0801838
-0.0783844
-0.0650494
-0.0760894
-0.08714
-0.0818697
-0.0540169
-0.0515013
-0.0808283
-0.0653187
-0.0787282
-0.107932
-0.0784189
-0.0871064
-0.0791235
-0.0799779
-0.0791236
-0.0808282
-0.0650485
-0.0783843
-0.0783679
-0.107926
-0.0787007
-0.0760906
-0.0871409
-0.0871045
-0.0784219
-0.107928
-0.0787284
-0.0653184
-0.0760166
-0.0779955
-0.109284
-0.07759
-0.068676
-0.0822006
-0.0540016
-0.0685358
-0.0794211
-0.0802181
-0.0527641
-0.0425693
-0.0335921
-0.0258601
-0.0195248
-0.0146358
-0.011207
-0.011124
-0.0125191
-0.0123494
-0.0123972
-0.0124674
-0.0143175
-0.0164917
-0.0189028
-0.0220311
-0.0253027
-0.0293333
-0.0334899
-0.038417
-0.0433966
-0.0491867
-0.054691
-0.061493
-0.0527013
-0.0590571
-0.0612971
-0.0601833
-0.0545976
-0.0435267
-0.0545988
-0.04845
-0.0490855
-0.0475998
-0.042597
-0.0434834
-0.0334862
-0.0373459
-0.0334372
-0.0433982
-0.037788
-0.0432474
-0.0431036
-0.0341638
-0.0380598
-0.0380386
-0.0433343
-0.037831
-0.0486298
-0.0433969
-0.0543023
-0.0605392
-0.0534884
-0.0658948
-0.0586265
-0.0619135
-0.0973032
-0.0760165
-0.0685356
-0.0540011
-0.0804381
-0.0620232
-0.0555851
-0.052088
-0.042121
-0.0332334
-0.0255774
-0.0193041
-0.0144669
-0.0110696
-0.0112917
-0.0102838
-0.00696809
-0.0113355
-0.00682096
-0.00836934
-0.00956898
-0.0133271
-0.00982222
-0.00975872
-0.00970215
-0.00991578
-0.00936722
-0.00745445
-0.0103741
-0.012426
-0.011052
-0.0145401
-0.0137482
-0.0121469
-0.0109472
-0.0117987
-0.010536
-0.0105739
-0.0105386
-0.0104241
-0.00981784
-0.0118068
-0.0120595
-0.0105614
-0.0118363
-0.015455
-0.0157671
-0.0154015
-0.0205218
-0.0211153
-0.0182347
-0.0136616
-0.0133135
-0.0141669
-0.0142295
-0.0163527
-0.0163622
-0.0125364
-0.0141509
-0.0112056
-0.0118574
-0.0154694
-0.0207793
-0.0207474
-0.0276175
-0.0280769
-0.0271905
-0.0353746
-0.0366315
-0.0321147
-0.0243763
-0.0237412
-0.0251797
-0.0251458
-0.0290901
-0.0290027
-0.0223082
-0.0251209
-0.0218206
-0.0167106
-0.0187348
-0.0147308
-0.0187895
-0.0218551
-0.0167524
-0.0187729
-0.016472
-0.0125646
-0.013927
-0.0133269
-0.0158062
-0.00923103
-0.0141479
-0.00858794
-0.0119336
-0.00725585
-0.00857117
-0.0101603
-0.0104911
-0.0100238
-0.0103916
-0.0103864
-0.013275
-0.010832
-0.0103767
-0.0101975
-0.0119503
-0.0118209
-0.0138706
-0.0132952
-0.0153813
-0.020651
-0.0275167
-0.0276849
-0.0361364
-0.0360187
-0.0458661
-0.0467351
-0.044958
-0.0555647
-0.0585733
-0.0520088
-0.0414005
-0.0404889
-0.0433325
-0.0431025
-0.0486292
-0.0482793
-0.0377882
-0.0432468
-0.037886
-0.0293614
-0.0332991
-0.026225
-0.0332732
-0.0380598
-0.0294108
-0.0333736
-0.0291387
-0.0223575
-0.024693
-0.0185338
-0.0176916
-0.0209355
-0.0121836
-0.0180605
-0.0106611
-0.0108303
-0.0175688
-0.0202928
-0.0233757
-0.023375
-0.016243
-0.0269888
-0.0191738
-0.0310493
-0.0215087
-0.0355819
-0.0251948
-0.0405761
-0.0279741
-0.0459575
-0.0323617
-0.05185
-0.0355425
-0.0577811
-0.0404518
-0.0647945
-0.0439712
-0.069435
-0.0495522
-0.0803772
-0.0642328
-0.080377
-0.0524237
-0.0767096
-0.0505075
-0.0744858
-0.0438414
-0.0664894
-0.0400274
-0.0598817
-0.0356966
-0.0536495
-0.0319144
-0.0475261
-0.0281242
-0.0419381
-0.024801
-0.0367936
-0.0216121
-0.032033
-0.0188598
-0.027901
-0.0162895
-0.024066
-0.0141476
-0.0143835
-0.0181609
-0.0138116
-0.0109161
-0.00973827
-0.00943635
-0.00997879
-0.0120678
-0.0154735
-0.020441
-0.0269765
-0.0350096
-0.0443858
-0.0547192
-0.063683
-0.0708671
-0.0703556
-0.070355
-0.066132
-0.0761506
-0.062968
-0.0573434
-0.0742872
-0.0515518
-0.0630515
-0.058685
-0.0602939
-0.0585088
-0.0495514
-0.0694339
-0.0439711
-0.0647947
-0.0516498
-0.0530706
-0.042731
-0.035542
-0.0518505
-0.0577796
-0.0404522
-0.0495552
-0.0396692
-0.0323615
-0.0459564
-0.0279742
-0.0405774
-0.032657
-0.0336911
-0.0259421
-0.0196103
-0.016243
-0.0269876
-0.0310503
-0.0355808
-0.0251941
-0.0309098
-0.0235506
-0.0206499
-0.0154921
-0.0119116
-0.0113708
-0.00938068
-0.0155434
-0.0110951
-0.0155438
-0.0108305
-0.0175685
-0.0122076
-0.0202937
-0.0143836
-0.0176918
-0.014743
-0.0122074
-0.0143013
-0.013327
-0.0101603
-0.0119338
-0.00858817
-0.0141483
-0.00857143
-0.0128935
-0.00760791
-0.00917345
-0.00955589
-0.00881079
-0.00725075
-0.00831668
-0.00860745
-0.0110421
-0.00888992
-0.00851525
-0.0100256
-0.00932962
-0.0092612
-0.00973638
-0.00861268
-0.0099546
-0.009359
-0.00961144
-0.00935868
-0.00862049
-0.0135618
-0.00995466
-0.00988811
-0.0100255
-0.00778196
-0.00851506
-0.00888995
-0.00989136
-0.00920288
-0.00856859
-0.00996923
-0.00970557
-0.00928036
-0.00980382
-0.00732592
-0.00989409
-0.00984393
-0.0128865
-0.00938114
-0.0104432
-0.0111871
-0.0112729
-0.0106385
-0.0118853
-0.0154657
-0.0206265
-0.0273137
-0.0273375
-0.0354996
-0.0449703
-0.0556979
-0.0778412
-0.0714829
-0.104922
-0.0627364
-0.0691762
-0.0937146
-0.0782958
-0.0782949
-0.0937155
-0.0996333
-0.0617257
-0.0800847
-0.080017
-0.0814394
-0.0524609
-0.0665317
-0.0753076
-0.0793173
-0.108349
-0.0794516
-0.0921013
-0.0779202
-0.0859236
-0.0781588
-0.0806666
-0.0807605
-0.0866544
-0.103526
-0.0807628
-0.0996328
-0.0800869
-0.0617243
-0.0549986
-0.0814392
-0.0665316
-0.0524606
-0.0533106
-0.0822011
-0.0686773
-0.0775895
-0.109285
-0.0779969
-0.0869847
-0.080317
-0.0806668
-0.0815834
-0.0828964
-0.0549984
-0.0833601
-0.0808433
-0.0864034
-0.0803185
-0.0779281
-0.0869844
-0.077059
-0.0818699
-0.0515018
-0.0804376
-0.0620236
-0.0586274
-0.06205
-0.0575332
-0.0460457
-0.0510854
-0.0548058
-0.0543008
-0.0605398
-0.0598881
-0.047179
-0.0546861
-0.0433955
-0.0511938
-0.0459081
-0.03595
-0.0405261
-0.0313254
-0.0237168
-0.017711
-0.0177373
-0.0219427
-0.0195823
-0.0185139
-0.0182721
-0.0144539
-0.0190212
-0.0219839
-0.0193294
-0.0253719
-0.0245565
-0.0215418
-0.0192815
-0.0286
-0.0256836
-0.0335494
-0.032651
-0.0256397
-0.0373452
-0.0334855
-0.0434836
-0.0425962
-0.0334371
-0.0475995
-0.042619
-0.0548383
-0.0542108
-0.0425648
-0.053494
-0.0575777
-0.0746815
-0.0744129
-0.0637242
-0.0619062
-0.0530484
-0.0655618
-0.058107
-0.057852
-0.0462121
-0.0362152
-0.0277424
-0.0208628
-0.0155997
-0.0154419
-0.0177693
-0.0167095
-0.0188163
-0.0148406
-0.0188169
-0.0218519
-0.0198168
-0.0251697
-0.0251689
-0.0218527
-0.0192191
-0.0144183
-0.0110845
-0.0107451
-0.00998662
-0.0100374
-0.00996645
-0.00888598
-0.0099672
-0.0126765
-0.011383
-0.0142751
-0.0142737
-0.0126776
-0.0107657
-0.0143026
-0.00933616
-0.00933551
-0.00822089
-0.00882968
-0.0143028
-0.0103745
-0.00745396
-0.00936728
-0.0121468
-0.0110523
-0.0137491
-0.0145392
-0.0124268
-0.0100375
-0.0107452
-0.0104912
-0.0112072
-0.00923119
-0.0128793
-0.0111241
-0.0141672
-0.0125647
-0.0163527
-0.0147312
-0.0187352
-0.0167109
-0.021821
-0.0220312
-0.0192827
-0.0245577
-0.0253714
-0.0193302
-0.0215418
-0.0182727
-0.0190207
-0.0144546
-0.0161972
-0.0143932
-0.0189032
-0.0164916
-0.0163618
-0.0141512
-0.0125368
-0.014318
-0.0109477
-0.0124675
-0.012397
-0.0112055
-0.0142295
-0.0123496
-0.0125192
-0.0098223
-0.010024
-0.0097587
-0.00721781
-0.00970249
-0.00998658
-0.00991568
-0.0067741
-0.00809671
-0.00835066
-0.0132755
-0.0103866
-0.0103916
-0.0105617
-0.00981798
-0.00973846
-0.0109163
-0.0138117
-0.0118066
-0.015402
-0.0181611
-0.0240963
-0.0205225
-0.0271916
-0.0315912
-0.0315911
-0.024096
-0.0191733
-0.0405274
-0.0405275
-0.0353752
-0.0449582
-0.0506234
-0.050622
-0.0604852
-0.060486
-0.0555642
-0.0661323
-0.0761579
-0.0629669
-0.0686391
-0.053136
-0.0664952
-0.0586839
-0.0626137
-0.053048
-0.0794205
-0.0802173
-0.052764
-0.0425695
-0.0335924
-0.0258603
-0.019525
-0.0146359
-0.0121837
-0.0172889
-0.0146267
-0.018773
-0.016753
-0.0218556
-0.0197339
-0.0251216
-0.022308
-0.0290035
-0.0293332
-0.0256404
-0.0326518
-0.0335488
-0.0256841
-0.0285998
-0.0292941
-0.0223091
-0.0290478
-0.0263051
-0.0333246
-0.0333242
-0.0290481
-0.0223096
-0.0292928
-0.0237468
-0.0210009
-0.0157446
-0.0121667
-0.0102643
-0.0107665
-0.0101956
-0.00881096
-0.00659429
-0.0108052
-0.0117944
-0.00899535
-0.0108731
-0.00984348
-0.00906537
-0.0135781
-0.0078378
-0.00828002
-0.0128858
-0.00750922
-0.00828978
-0.0103755
-0.0105358
-0.0105736
-0.0105385
-0.00781084
-0.00810484
-0.0133271
-0.00835664
-0.00804026
-0.00695748
-0.0104022
-0.00725607
-0.0126664
-0.00825404
-0.00751538
-0.0104233
-0.0118363
-0.0120595
-0.0136619
-0.0150393
-0.0133138
-0.0164723
-0.0154553
-0.0157682
-0.0182348
-0.019884
-0.0230818
-0.0195822
-0.0251805
-0.0223573
-0.029139
-0.0290905
-0.0262263
-0.0332999
-0.0293613
-0.037887
-0.038417
-0.0334918
-0.0313257
-0.0313333
-0.0333745
-0.0294107
-0.033274
-0.0255776
-0.0193046
-0.0144671
-0.0110697
-0.0139271
-0.0185339
-0.0246931
-0.0235507
-0.0309099
-0.032421
-0.0324209
-0.0416023
-0.0378294
-0.0484528
-0.0430291
-0.0518631
-0.0472029
-0.0601255
-0.0531365
-0.0533429
-0.0427868
-0.0333212
-0.0253629
-0.0190267
-0.0142884
-0.0125472
-0.0164214
-0.0164196
-0.0164187
-0.0164228
-0.0125471
-0.0142885
-0.0190269
-0.0167094
-0.0219847
-0.0177699
-0.0134213
-0.0119501
-0.0155997
-0.0208634
-0.0237472
-0.0247939
-0.0185142
-0.0177116
-0.0177377
-0.0219431
-0.0207476
-0.0211159
-0.0243769
-0.0266016
-0.0307017
-0.0260117
-0.0351894
-0.0401464
-0.0338742
-0.0455913
-0.0512795
-0.04303
-0.0548078
-0.0472036
-0.0601252
-0.0638624
-0.043841
-0.0575208
-0.0356967
-0.0520097
-0.0414007
-0.0321149
-0.0280785
-0.027618
-0.0360199
-0.0366343
-0.045868
-0.046739
-0.0573453
-0.0585709
-0.0742899
-0.051551
-0.0681824
-0.0940723
-0.0779211
-0.0794502
-0.108346
-0.0793172
-0.0753073
-0.0974108
-0.0630514
-0.0619064
-0.0652923
-0.0520879
-0.0421214
-0.0332336
-0.0354709
-0.0449181
-0.0518633
-0.0495551
-0.0396694
-0.0416025
-0.0427871
-0.0330842
-0.0254592
-0.0333214
-0.0253631
-0.0293692
-0.0383637
-0.0379719
-0.0342608
-0.0432422
-0.0432413
-0.0379719
-0.0293689
-0.0383622
-0.03135
-0.0327471
-0.0275896
-0.0247936
-0.0207106
-0.0423654
-0.0360766
-0.0405587
-0.0490842
-0.0484504
-0.0378054
-0.0419422
-0.0518832
-0.0792591
-0.076729
-0.056289
-0.0797611
-0.0602936
-0.0585087
-0.0833607
-0.0582844
-0.0828954
-0.0808435
-0.0864027
-0.0859238
-0.0800183
-0.0921015
-0.0781582
-0.077931
-0.0819879
-0.0825666
-0.0621975
-0.0620276
-0.0578537
-0.0512234
-0.047194
-0.0620263
-0.0747228
-0.0770004
-0.0622727
-0.0745371
-0.066539
-0.0637839
-0.0585689
-0.0463501
-0.0363827
-0.0278972
-0.0313502
-0.0277431
-0.0362149
-0.040559
-0.0378057
-0.0423661
-0.0327478
-0.0275172
-0.0206517
-0.0153815
-0.0117989
-0.0118571
-0.0154693
-0.0207796
-0.0237421
-0.0251469
-0.0276854
-0.0361372
-0.0404899
-0.0484525
-0.051086
-0.051193
-0.0405274
-0.0359507
-0.0459087
-0.0460473
-0.0575351
-0.0744153
-0.062049
-0.0575793
-0.0746816
-0.0655633
-0.0534941
-0.0512241
-0.0462128
-0.0461524
-0.0581076
-0.0360795
-0.0237173
-0.0253038
-0.0132957
-0.0138708
-0.0108318
-0.0118218
-0.0154427
-0.0207115
-0.0275941
-0.0533431
-0.046147
-0.0281243
-0.0216121
-0.0162899
-0.0187899
-0.0134212
-0.0161972
-0.0143927
-0.00856883
-0.00920307
-0.00989136
-0.00980407
-0.00944535
-0.0092812
-0.00970606
-0.00996939
-0.0086201
-0.00989413
-0.00732538
-0.00927106
-0.0101506
-0.00822061
-0.00882985
-0.0091806
-0.0108005
-0.0313325
-0.0380385
-0.0338741
-0.0534865
-0.053311
-0.0797613
-0.0770562
-0.00698828
-0.00710509
-0.021509
-0.0251101
-0.0189784
-0.0415322
-0.0260109
-0.0341635
-0.0146265
-0.0197328
-0.00695746
-0.00721766
-0.0067735
-0.0801836
-0.0910351
-0.0770033
-0.0776972
-0.0770054
-0.059837
-0.062274
0.0103767
0.0101975
0.0119502
0.0110523
0.0121472
0.012426
0.0145401
0.0137483
0.0109476
0.012468
0.00991598
0.00677352
0.00828015
0.00783802
0.00809649
0.00835044
0.00803972
0.00835629
0.00810448
0.00781067
0.00825368
0.00751522
0.0086073
0.00725582
0.0110419
0.00831652
0.00725061
0.00888967
0.00881051
0.007105
0.00881035
0.00725048
0.00831629
0.00860714
0.0110418
0.00725576
0.0104021
0.0126661
0.00751504
0.00825373
0.00781057
0.00810441
0.00835622
0.0133267
0.00975843
0.0097021
0.00991538
0.0132747
0.00835028
0.00809633
0.00783769
0.00827972
0.00750901
0.0128855
0.00828971
0.00882947
0.0143027
0.0099673
0.00888608
0.00933634
0.0143027
0.00883012
0.00828986
0.0128865
0.00936735
0.00745426
0.0103743
0.0100375
0.0126776
0.0126766
0.0113832
0.0142738
0.012547
0.0164217
0.0144546
0.0161974
0.0164917
0.014393
0.0189027
0.0187348
0.0163622
0.0125364
0.0141511
0.0143174
0.0104784
0.0136821
0.0182572
0.0242008
0.0314723
0.0399567
0.0496808
0.0825641
0.0808266
0.0653171
0.0787286
0.076014
0.0779957
0.109284
0.077589
0.0793165
0.108348
0.0794501
0.0779189
0.092101
0.0800853
0.0800154
0.0549964
0.0833576
0.0617228
0.0996305
0.0937146
0.0782953
0.103523
0.0782923
0.0937138
0.0996304
0.0800864
0.0800138
0.077919
0.0921014
0.0794499
0.108345
0.0793154
0.0775913
0.0686732
0.068534
0.065316
0.0760142
0.0779975
0.0787294
0.107929
0.0784235
0.0910361
0.0783686
0.107927
0.0787007
0.0774817
0.0760895
0.0684577
0.0684585
0.0774812
0.0787019
0.107928
0.0783703
0.0910347
0.0801825
0.0784209
0.107929
0.0623297
0.066862
0.0973706
0.0598342
0.066924
0.0622736
0.0648658
0.0665395
0.0637855
0.0665392
0.0527852
0.0621968
0.0621972
0.0973051
0.0648652
0.0622712
0.0669244
0.0598363
0.0668636
0.0623305
0.064768
0.0666236
0.0637225
0.0664735
0.0647209
0.0615244
0.065781
0.0592464
0.0678593
0.0940659
0.0681795
0.0686362
0.0638605
0.0575203
0.0512778
0.0455911
0.0401457
0.0351896
0.030701
0.026601
0.0230815
0.0198838
0.017289
0.0150391
0.0128789
0.0125192
0.0123492
0.0123969
0.0124671
0.0121467
0.0110523
0.0124266
0.0103745
0.00745402
0.0093672
0.00677385
0.0113819
0.0104783
0.0136822
0.0182573
0.024201
0.0314724
0.0399564
0.0496805
0.0825644
0.0808275
0.0515012
0.0540152
0.0804362
0.0570201
0.0570201
0.0540156
0.0515004
0.080436
0.0540004
0.068534
0.0686759
0.0753054
0.0665309
0.0814391
0.0524602
0.0533099
0.0822006
0.0794183
0.0802149
0.0778396
0.0802144
0.0814375
0.0549965
0.0582814
0.0833575
0.0627339
0.0627346
0.0582818
0.0832874
0.055852
0.0562874
0.0562883
0.0797595
0.0558525
0.0808422
0.0815843
0.0806667
0.0781588
0.085926
0.0807595
0.0866539
0.104916
0.07148
0.0524213
0.081854
0.0656263
0.0584834
0.0706136
0.0665586
0.0803752
0.0694322
0.0694322
0.0439705
0.0664881
0.0400267
0.0598815
0.0536494
0.0319142
0.0475249
0.0419371
0.0248007
0.0367925
0.032033
0.0188597
0.0279003
0.0240666
0.0141477
0.0209357
0.0180613
0.0106612
0.0158065
0.0141482
0.00858803
0.0119336
0.00760797
0.00917329
0.0091733
0.0088895
0.00851504
0.00812838
0.00761332
0.0105347
0.00738506
0.00738515
0.007437
0.0106386
0.00748165
0.00748169
0.00728415
0.0104432
0.00806372
0.00806405
0.00795985
0.011346
0.0097754
0.00977965
0.0108048
0.0117941
0.00899528
0.0108732
0.00906546
0.0135777
0.00910062
0.00830365
0.0100752
0.00732534
0.00989402
0.0098431
0.00970581
0.00996933
0.0089314
0.0135617
0.00893846
0.00863602
0.0102836
0.00698812
0.00867803
0.00958308
0.0112915
0.0113276
0.011207
0.0146358
0.0195247
0.0258601
0.0335918
0.0425687
0.0527626
0.053135
0.0664935
0.06529
0.0658925
0.0660957
0.0614916
0.0546904
0.049186
0.0433967
0.0384168
0.0334906
0.0293331
0.0253028
0.022031
0.0189029
0.0164915
0.0143177
0.0109476
0.0137487
0.0145392
0.0142748
0.0164188
0.0148407
0.0164196
0.0188158
0.0190209
0.018272
0.0215418
0.021984
0.0193296
0.0245565
0.0192818
0.0220311
0.016711
0.0218208
0.0218552
0.019733
0.0251458
0.0251794
0.0219429
0.0167522
0.0187893
0.0147311
0.0163529
0.0142295
0.0112053
0.0123973
0.00998674
0.00970231
0.0132751
0.00958349
0.00910094
0.0135779
0.00906504
0.0108721
0.00899383
0.0117954
0.0108002
0.00918013
0.0079602
0.00824766
0.00927094
0.00732601
0.00676741
0.0100753
0.00989415
0.0083035
0.00867827
0.0069883
0.0113416
0.00728404
0.011187
0.0110844
0.0144182
0.0192189
0.0254591
0.0330841
0.0419419
0.0518824
0.0792569
0.0820764
0.0799773
0.0791228
0.0770578
0.0869849
0.0779332
0.109286
0.0864028
0.0665297
0.0524601
0.0533095
0.0797592
0.0602919
0.0586824
0.0626115
0.0619109
0.0645115
0.0635558
0.0505621
0.0643409
0.0662928
0.0527453
0.0612967
0.0590564
0.0646665
0.0527013
0.0575765
0.0746782
0.0744095
0.074286
0.076153
0.0661283
0.0555627
0.0585723
0.0629647
0.0573439
0.0458653
0.046736
0.0449587
0.0353744
0.0366326
0.0414012
0.0520068
0.0510842
0.0601245
0.0605376
0.0543004
0.0546852
0.0471784
0.0598872
0.0534859
0.0520866
0.0794179
0.0821988
0.0540011
0.0818694
0.0803184
0.0808422
0.0828944
0.0617218
0.069171
0.0693801
0.0703506
0.0708643
0.0636807
0.0547176
0.0443849
0.035009
0.0269761
0.0204412
0.0154737
0.0120679
0.00997876
0.00943634
0.00973831
0.00973824
0.00981779
0.0118068
0.0154018
0.020522
0.0271907
0.0280773
0.0321151
0.0360195
0.0276177
0.0207473
0.021115
0.0243767
0.0237414
0.0291388
0.0290902
0.0251463
0.025121
0.0223081
0.0290032
0.0332991
0.0293611
0.0378866
0.0432464
0.0377882
0.0482794
0.0433947
0.0486287
0.0431026
0.0378304
0.0484524
0.054805
0.0472027
0.0518622
0.0421204
0.0332332
0.0341635
0.0380601
0.0332736
0.0294112
0.038039
0.0433327
0.0338742
0.0404892
0.0460459
0.0575322
0.061903
0.0630481
0.0974043
0.0753039
0.051548
0.0620471
0.0972978
0.0655618
0.0769957
0.0747225
0.0578526
0.0581136
0.0534919
0.0511916
0.0459076
0.0359499
0.0361364
0.0276851
0.0207791
0.0154692
0.0154552
0.0157671
0.0182348
0.0177372
0.0219429
0.0218549
0.0187893
0.0187347
0.0167107
0.0218205
0.0197328
0.0193041
0.0255774
0.0262255
0.0246928
0.0223572
0.0251797
0.0195821
0.0235503
0.0320333
0.0216119
0.0367928
0.0248013
0.0419382
0.0281236
0.0475249
0.0319146
0.05365
0.0356961
0.0598804
0.0400269
0.0664885
0.0438402
0.0744825
0.0505055
0.076707
0.0524521
0.0495505
0.0585068
0.0585068
0.076707
0.0505056
0.0744829
0.0495502
0.0803751
0.0524206
0.0665585
0.0642305
0.0706143
0.0584841
0.0656267
0.0678604
0.0818543
0.0693805
0.0691722
0.0828944
0.0807613
0.0806684
0.0859259
0.0781556
0.0864027
0.0803173
0.0819884
0.0834379
0.076727
0.0555841
0.0556968
0.0530694
0.0439702
0.064793
0.0577802
0.0518488
0.0459566
0.0459561
0.0279741
0.0405753
0.0251934
0.0355805
0.0215086
0.0310489
0.0191731
0.0269879
0.0162428
0.0233756
0.0143839
0.0202937
0.012208
0.0175691
0.0108303
0.0155436
0.00938088
0.0134324
0.00857114
0.0128935
0.00955609
0.0128934
0.00760779
0.0119336
0.00858789
0.0141481
0.00923105
0.0158062
0.0106612
0.0180611
0.0121837
0.0209357
0.0141475
0.0240665
0.0162894
0.0279004
0.0188598
0.0191733
0.0269874
0.0189784
0.0233755
0.0202939
0.0175689
0.0155435
0.011095
0.0134323
0.00857126
0.0101602
0.013327
0.0108305
0.0138117
0.0181613
0.0240962
0.031591
0.0405273
0.0506219
0.0604834
0.060483
0.0703515
0.0661293
0.0555621
0.0506215
0.0647932
0.0404517
0.0577802
0.0355416
0.0518493
0.032361
0.0396687
0.0427306
0.0355414
0.0415316
0.0336903
0.0279737
0.0405751
0.0355811
0.0310487
0.0215083
0.0259416
0.0251097
0.0196101
0.0162427
0.0147433
0.0122079
0.0143015
0.0113708
0.00938041
0.0103384
0.0131651
0.00812836
0.00851517
0.0110888
0.00905064
0.00905023
0.0110888
0.0119472
0.00778179
0.00933737
0.00998046
0.0101029
0.00682089
0.00836919
0.0095686
0.00907157
0.0136413
0.00918379
0.0110575
0.00974657
0.00973626
0.0086129
0.00926104
0.00932945
0.0096997
0.0124739
0.00932972
0.0119474
0.00933774
0.00778192
0.00709605
0.0101029
0.00836927
0.006821
0.00696811
0.0102838
0.00863622
0.00893867
0.0135623
0.00893163
0.00996953
0.00935889
0.00926097
0.00943989
0.0100253
0.00709586
0.0117329
0.00988803
0.00995446
0.00935853
0.0086201
0.00961136
0.00988812
0.0100254
0.00761328
0.0117331
0.0101602
0.0119116
0.0154922
0.0206498
0.0273371
0.0354991
0.0449698
0.0495543
0.0404522
0.0495545
0.052763
0.0438407
0.068636
0.053135
0.0601248
0.047203
0.0543004
0.0433952
0.0482793
0.037788
0.0432465
0.043397
0.0334369
0.0373447
0.0383631
0.0334862
0.0425963
0.0475992
0.049085
0.042619
0.0542104
0.0425637
0.0491863
0.0546916
0.0546862
0.0598875
0.0471794
0.0614909
0.0527024
0.0590566
0.0612981
0.0527457
0.064667
0.0660971
0.0658933
0.0534865
0.0605391
0.0652906
0.0664943
0.0630486
0.0586828
0.0626121
0.0530456
0.0619115
0.0586254
0.0645103
0.0504609
0.0635549
0.0643421
0.0505616
0.0747226
0.0745359
0.0620268
0.0585691
0.065608
0.0536105
0.060182
0.060182
0.0471924
0.0548369
0.0426184
0.0490843
0.0475996
0.0542097
0.0425645
0.0425957
0.0334862
0.0383629
0.037345
0.0334374
0.0326514
0.0256848
0.0292939
0.0285991
0.0256399
0.0275168
0.0206512
0.0153812
0.0117986
0.0118573
0.0118362
0.0120595
0.0136622
0.0133137
0.0164724
0.0163525
0.0142296
0.0141507
0.0125363
0.0163621
0.0147307
0.0144668
0.0110695
0.0112051
0.010491
0.0100237
0.00982191
0.00695733
0.0105382
0.0104229
0.0105615
0.0103914
0.0105734
0.00803986
0.00721748
0.0103865
0.0132952
0.0177112
0.0237168
0.0313253
0.0405263
0.0423662
0.0461516
0.0462125
0.0362133
0.0360756
0.0327474
0.0313493
0.0405582
0.0434829
0.043241
0.034261
0.0379714
0.0379717
0.0293682
0.0333244
0.0263046
0.0290473
0.0290472
0.0223084
0.0253708
0.0193298
0.0219844
0.0215419
0.0245573
0.0192819
0.0247936
0.0275919
0.0277424
0.0208628
0.0207065
0.018514
0.0177693
0.0190205
0.0144545
0.0164223
0.0161969
0.0182725
0.0143929
0.0138704
0.0154423
0.0155998
0.0119498
0.0118207
0.0108318
0.0105356
0.0103756
0.0101957
0.00881074
0.00659412
0.00777948
0.0074336
0.00781861
0.00658865
0.00881661
0.0082205
0.0101361
0.0102643
0.0121668
0.0134215
0.0125466
0.0142883
0.013927
0.0125646
0.0141668
0.0111238
0.0185337
0.0167526
0.0187726
0.0146263
0.0176918
0.0143838
0.0176918
0.0235503
0.0309094
0.0335916
0.0425691
0.0356965
0.0575199
0.0430296
0.0484525
0.0378301
0.0431019
0.0341627
0.0378859
0.029361
0.0332985
0.0334905
0.0256396
0.0285993
0.0292932
0.025684
0.0326512
0.0335483
0.029368
0.0333243
0.0313497
0.0363823
0.0463496
0.0578535
0.0512222
0.0512237
0.0620256
0.0585683
0.0662916
0.0656091
0.062022
0.0602921
0.0518627
0.0520871
0.0421207
0.0449176
0.0416021
0.0396688
0.0323608
0.0309094
0.0251941
0.0324207
0.0354706
0.0273136
0.0206263
0.0154656
0.0118852
0.0112728
0.011401
0.0113277
0.0112072
0.014636
0.0195248
0.0258597
0.0216115
0.0351882
0.0260107
0.0291382
0.0223571
0.02909
0.0262252
0.0290027
0.022308
0.0251208
0.0253027
0.0293325
0.0237162
0.0237409
0.0243759
0.0271909
0.0353744
0.0449585
0.0405266
0.0315904
0.0240958
0.0181611
0.0205222
0.0154018
0.013812
0.0109163
0.0118066
0.00981775
0.0104238
0.0105614
0.0128794
0.0111242
0.0125193
0.010024
0.00975874
0.00721758
0.0112917
0.0110697
0.014467
0.0193041
0.0255772
0.0332331
0.041602
0.0324206
0.0294104
0.0333728
0.0332727
0.0380594
0.0380385
0.0401455
0.0338733
0.0455901
0.0281238
0.0512787
0.0413996
0.0520069
0.0638607
0.062967
0.0681807
0.0515487
0.0657837
0.0592451
0.0940677
0.0761484
0.0742838
0.0615253
0.0647235
0.0974072
0.066474
0.0637235
0.0666249
0.0972978
0.0647687
0.0746771
0.0744106
0.0619057
0.0573426
0.0585724
0.0458653
0.0467377
0.0360177
0.0366316
0.0321138
0.0313317
0.0404889
0.0433321
0.0486293
0.0510844
0.054806
0.0575319
0.0460454
0.0361356
0.0276845
0.0276169
0.0280772
0.0207469
0.0195822
0.0230821
0.0198837
0.0146267
0.0164725
0.0125647
0.0141674
0.0150393
0.00923124
0.0172894
0.0121839
0.0136622
0.0182346
0.0211155
0.0177372
0.0187729
0.0154554
0.0157679
0.0118366
0.0120588
0.0105387
0.00695736
0.010402
0.012666
0.00974658
0.0091839
0.0136415
0.00907161
0.00956897
0.013327
0.00982231
0.0103916
0.0123499
0.0133136
0.0132951
0.0177107
0.0207788
0.0154693
0.0118575
0.0105739
0.0103863
0.0117989
0.0153812
0.0206508
0.0275163
0.0359498
0.0459079
0.0575766
0.0620488
0.0655623
0.0578518
0.0462113
0.0405587
0.0484498
0.04845
0.0435263
0.0545968
0.0548361
0.0471931
0.0533424
0.053342
0.062022
0.0586252
0.0427864
0.0378043
0.0427865
0.0378039
0.0434826
0.0432413
0.0333209
0.0333212
0.0253627
0.0253627
0.0246926
0.0185339
0.0139271
0.013327
0.0104911
0.0113356
0.00743693
0.0107452
0.0142884
0.0190267
0.0190266
0.0167089
0.0218519
0.0198165
0.0218523
0.0167091
0.0177694
0.0210005
0.0237463
0.0251691
0.0251688
0.0253711
0.0223084
0.0237466
0.0278967
0.0277423
0.0362144
0.0327471
0.042365
0.0405258
0.0511921
0.0534923
0.0581126
0.0461511
0.0313245
0.0384161
0.0360788
0.0275936
0.0247927
0.0208624
0.0155996
0.0157445
0.0134213
0.0138704
0.018514
0.0207093
0.0154421
0.0108322
0.011821
0.0107659
0.00996646
0.0107665
0.0100374
0.010745
0.00998618
0.0113414
0.00676726
0.00989126
0.00920286
0.00856824
0.0093811
0.00989139
0.00980376
0.00920302
0.00856757
0.00970572
0.00928014
0.00944505
0.0092809
0.00980391
0.00824768
0.00917717
0.00822085
0.00933533
0.0108217
0.0101507
0.0104803
0.00927079
0.0123055
0.0098439
0.0105361
0.0188168
0.0113822
0.054597
0.0769953
0.00995478
0.00973616
0.00998069
0.0110577
0.00861295
0.00862041
0.0162896
0.0266009
0.0307006
0.0524522
0.0109162
0.0973059
0.0760878
0.0650491
0.0783835
0.0871053
0.0791218
0.0818696
0.0871396
0.0776979
0.0871401
0.0770092
0.087105
0.078384
0.0650499
0.0801801
0.0973695
0.109204
0.0770066
0.0869848
0.0779341
0.0770603
0.0335486
0.0313326
0.0333736
0.0260113
0.0113354
0.00696796
0.0326557
0.0516495
0.0577414
0.0430282
0.0530446
0.0504616
0.00750921
)
;

boundaryField
{
    face
    {
        type            calculated;
        value           nonuniform List<scalar> 
154
(
-0.08
-0.08
-0.08
-0.08
-0.08
-0.08
-0.08
-0.08
-0.08
-0.08
-0.08
-0.08
-0.08
-0.08
-0.08
-0.08
-0.08
-0.08
-0.08
-0.08
-0.08
-0.08
-0.08
-0.08
-0.08
-0.08
-0.08
-0.08
-0.08
-0.08
-0.08
-0.08
-0.08
-0.08
-0.08
-0.08
-0.08
-0.08
-0.08
-0.08
-0.08
-0.08
-0.08
-0.08
-0.08
-0.08
-0.08
-0.08
-0.08
-0.08
-0.08
-0.08
-0.08
-0.08
-0.08
-0.08
-0.08
-0.08
-0.08
-0.08
-0.08
-0.08
-0.08
-0.08
-0.08
-0.08
-0.08
-0.08
-0.08
-0.08
-0.08
-0.08
-0.08
-0.08
-0.08
-0.08
-0.08
0.08
0.08
0.08
0.08
0.08
0.08
0.08
0.08
0.08
0.08
0.08
0.08
0.08
0.08
0.08
0.08
0.08
0.08
0.08
0.08
0.08
0.08
0.08
0.08
0.08
0.08
0.08
0.08
0.08
0.08
0.08
0.08
0.08
0.08
0.08
0.08
0.08
0.08
0.08
0.08
0.08
0.08
0.08
0.08
0.08
0.08
0.08
0.08
0.08
0.08
0.08
0.08
0.08
0.08
0.08
0.08
0.08
0.08
0.08
0.08
0.08
0.08
0.08
0.08
0.08
0.08
0.08
0.08
0.08
0.08
0.08
0.08
0.08
0.08
0.08
0.08
0.08
)
;
    }
    outlet
    {
        type            calculated;
        value           nonuniform List<scalar> 
154
(
-0.00889391