/*--------------------------------*- C++ -*----------------------------------*\
| =========                 |                                                 |
| \\      /  F ield         | OpenFOAM: The Open Source CFD Toolbox           |
|  \\    /   O peration     | Version:  2306                                  |
|   \\  /    A nd           | Website:  www.openfoam.com                      |
|    \\/     M anipulation  |                                                 |
\*---------------------------------------------------------------------------*/
FoamFile
{
    version     2.0;
    format      ascii;
    arch        "LSB;label=32;scalar=64";
    class       volScalarField;
    location    "2.9";
    object      gradTx;
}
// * * * * * * * * * * * * * * * * * * * * * * * * * * * * * * * * * * * * * //

dimensions      [0 -1 0 1 0 0 0];

internalField   nonuniform List<scalar> 
2658
(
0.0086883
0.0126428
0.00404917
-0.000430772
-0.0189034
-0.0159968
0.017065
0.0168314
-0.000334086
0.0227384
-0.0150903
-0.0107535
0.00701294
0.00844314
0.00649318
-0.000632392
-0.000288405
-4.08983e-05
-0.00712926
-0.00918145
-0.00864022
-0.0201049
-0.0242064
0.0183269
-0.00781657
-0.00949733
-0.0204605
-0.00300169
-0.014988
-0.0160189
-0.0149879
-0.0204608
-0.00949905
-0.0242086
-0.00781629
0.0183271
-0.010317
0.00467064
-0.020101
-0.00864177
-0.00918055
-0.00712677
-4.11399e-05
0.000616728
-0.012678
0.0118754
-0.0150904
-0.000539847
-0.000634951
0.00649202
0.00844287
0.00701433
0.0190595
-0.00408
0.0214889
0.0176255
-0.00949835
0.00103919
-0.0339226
0.017832
-0.00949846
0.0176257
0.0214852
-0.00408159
0.00482295
-0.0356859
0.00475788
-0.000197601
-0.0119723
-0.0119731
-0.000602824
0.0122915
-0.000676256
-0.0136273
0.000196514
-0.0143385
0.0184201
-0.000156024
-0.0162676
0.0182154
-0.0211286
-0.000364763
0.0220838
-0.0199898
-0.000543211
-0.000343183
-7.46649e-05
5.20273e-05
0.000100276
0.000116606
0.00010725
-0.000342263
0.000305901
-0.00203529
0.0013924
-0.000242375
-0.00172971
9.57435e-06
0.0017427
-0.00141478
0.00077168
0.00197521
0.00169627
0.00142547
0.00148209
-0.00295333
-0.000578155
-0.000412594
-0.000129859
0.000821612
0.00176113
0.000709633
0.00140422
0.00070959
0.00176122
0.000821493
0.00148206
-0.00295324
0.00169627
0.00142553
0.00197522
0.000771652
-0.00141478
0.00174271
-0.00272075
0.00273396
-0.00203513
-0.00024225
-0.00172974
0.00139235
-0.000784701
-0.00192265
-0.00132915
-0.00120957
-0.000762269
8.61397e-05
-0.000348128
-0.00199266
0.00166483
0.00166386
-0.00034786
8.58624e-05
0.000817849
-0.000843007
-0.000969294
-0.000841062
0.000472319
0.000616276
-0.00168406
-0.00175248
-0.00146406
-0.0018515
-0.00181517
-0.00188314
-0.00144113
-0.00256885
-0.00234818
-0.000988009
-0.00111981
-0.000812394
1.40458e-06
2.60175e-06
-1.83973e-06
0.000786463
0.00111716
0.00101175
0.00240378
0.00296657
-0.000677019
0.0017438
-0.00438342
0.00474785
-0.00541836
0.00626957
-0.00715963
0.00836211
-0.0095216
0.0110421
-0.012491
0.0143321
-0.0160274
0.01831
-0.0200537
0.0235673
-0.0235982
0.0250833
-0.0258925
0.0227382
-0.018905
-0.000431534
-0.0159963
0.00475767
-0.0356828
0.00482408
-0.0107536
0.0042012
-0.000543375
-0.000343121
-7.49452e-05
5.15724e-05
0.00010026
0.000116699
0.000107274
-0.000342305
0.000305994
4.63766e-06
-0.000732994
-4.15197e-05
0.00103513
0.00103512
-0.000733097
4.56278e-06
-4.1419e-05
0.000346483
0.00273409
-0.00272089
0.000186772
0.00209995
-0.000203315
8.03365e-05
-0.000314244
5.33813e-06
3.10862e-05
0.000290818
0.000181306
0.00029074
-0.000203572
-0.000578105
-0.00135368
-0.000412562
0.000303007
0.000302872
-0.00135365
-6.02209e-05
0.000845539
-0.00100131
-0.00100121
1.71485e-05
0.000845516
-1.86733e-05
-0.000187671
-0.00024617
-0.000225757
0.00101959
-0.000228847
-7.72341e-05
-0.00168969
0.000247387
-0.000670102
0.00103802
0.00112185
0.00248789
0.00176623
-0.00455371
0.00291153
-0.00459397
-0.00459378
-0.000116895
-0.00452495
9.30013e-05
0.00485715
-0.00575469
6.61226e-05
0.00652543
-0.00763151
1.32735e-05
0.00870655
-0.0100639
-7.12046e-05
0.0114176
-0.0129771
-0.000212935
0.0147226
-0.0162019
-0.000394699
0.019117
-0.0191098
-0.00103497
0.0284757
0.00459861
0.0327859
0.0327854
-0.00300147
0.00709383
-0.0026402
0.0103442
0.000505078
-0.00661915
-0.00661901
0.00716419
-0.000362386
-0.00846885
-0.00846823
0.00226934
-0.00267179
-0.0118409
-0.0118399
0.0038665
0.0166246
0.00386615
0.006256
0.0181465
0.00760308
0.0104091
0.0137901
-0.0204362
-0.0118985
0.0119387
0.0076308
3.3185e-07
0.0022693
-0.00135147
-0.00343922
0.0143847
-0.0103933
0.0064438
0.0149679
0.00855693
-0.00448949
-0.00606036
-0.00448845
-0.003439
-0.0118965
-0.020436
0.00760568
0.018149
0.00625798
0.0119404
0.00763213
0.00855828
0.0149672
0.00644137
-0.0103936
0.0143843
0.00180163
0.0129088
-0.000329796
-0.0134818
0.0210564
-0.000338336
-0.00376399
-0.0216892
-0.000409281
-0.00254225
0.000143037
0.000119452
5.69952e-05
3.22467e-05
1.68872e-05
-2.0654e-06
-1.51687e-05
-8.59002e-05
0.00440156
-0.00475439
0.00480572
-0.00431243
0.00461949
-0.00554284
0.00622604
-0.00735599
0.00837143
-0.00975217
0.0111243
-0.0127404
0.0144992
-0.0162664
0.0184185
-0.0199894
-0.00033509
0.0168304
0.0170621
0.0122942
-0.00987478
0.000176181
-0.00987328
0.00970094
0.0133829
0.0132665
-0.0112818
-0.0109767
0.000313562
0.01019
3.64913e-05
0.0145014
-0.0001943
-0.0165945
0.0161958
-3.271e-05
-0.0142611
0.0131944
-0.0151972
-3.87658e-05
-0.0181922
-6.25968e-05
0.0205258
-0.0222105
-0.000111607
-0.025892
-0.000781853
0.0118754
-0.000539443
0.00180188
-0.0216896
-0.00376382
0.000701409
-0.000257158
-0.000249978
-0.000211999
-0.000133586
-6.86292e-05
-3.13829e-05
-1.20468e-05
-2.32556e-06
4.92603e-06
3.11063e-05
5.19145e-06
-0.000314267
1.69712e-05
8.03175e-05
0.00209992
0.000186664
-8.48836e-05
-0.0023721
0.00208232
-0.00207529
0.00229851
-0.000920991
0.00454646
-0.0011829
0.00294256
0.00019237
-0.00378406
-0.00381559
0.0036068
0.000111968
-8.96377e-05
-0.000508012
1.41281e-05
0.000577189
0.00113775
0.00144344
1.31458e-05
0.000227379
0.000549921
7.58786e-05
-7.77426e-05
-2.13196e-05
-0.000128384
-0.000224163
-0.000178798
0.000119845
0.000166703
5.6512e-05
-0.00481223
0.00519166
-0.00617169
0.00623087
-1.64819e-05
-0.00525771
1.22386e-06
2.04511e-06
2.66977e-06
5.67496e-06
-0.000140527
-0.00020561
-0.000364701
-0.000344536
-0.0004997
-0.000634379
-1.98513e-06
7.61962e-05
7.54473e-05
-0.00878086
0.00939874
-0.0109048
0.0109868
-7.3167e-05
-0.00957499
0.00828234
-4.59208e-05
-0.00711741
-4.01706e-06
0.00700288
-0.00821166
1.8697e-05
-0.00652149
0.00573966
2.0084e-05
1.14816e-06
-0.000115529
-0.00452443
0.000147733
0.00362821
0.000156148
-0.00440287
-0.00242963
0.000756369
-0.000208097
-1.2409e-05
-4.12059e-05
5.04304e-05
-5.83499e-05
9.60822e-05
-0.00051049
-0.000913965
-0.000639729
2.13976e-05
-0.000319331
-0.00021068
-6.91445e-05
7.90202e-05
0.000164582
0.000255363
7.86549e-06
7.68565e-06
-0.000292494
-0.000456525
-0.00110614
-0.000708394
-0.00132949
-0.00248123
-0.000555422
-0.000160796
4.64395e-05
-0.0151966
0.0161951
-0.0181925
0.0182157
-0.000194573
-0.016593
0.0143379
-0.000114066
-0.0127216
-1.65839e-05
0.0124578
-0.0142607
-7.15791e-06
-0.01167
0.0101249
1.01721e-05
3.57818e-06
6.8185e-06
-0.000117936
-0.00575449
8.05589e-05
0.00485724
9.34144e-05
0.000338661
-0.0056168
0.00610403
-0.00737251
-0.00737257
-1.72322e-05
0.00827134
7.74119e-05
-0.00975365
-1.27768e-05
0.0109788
-2.68116e-05
-0.0126695
-8.9032e-07
0.0142635
-0.00027931
-0.0158639
8.94176e-05
0.0182306
-0.00107927
-0.0186324
0.000558808
0.0235764
-0.0039979
-0.0182306
-0.00244403
-0.0182301
0.00459874
0.0284758
-0.00103413
-0.0191086
-0.000805513
0.0191167
-0.000393075
-0.0162013
-0.00041859
0.0147237
-0.000211473
-0.0129748
-0.000190231
0.0114185
-7.00652e-05
-0.0100633
-6.86244e-05
0.00870672
1.43005e-05
-0.00763122
1.08569e-05
0.0065255
6.6951e-05
0.000172378
-0.000213182
-0.000237825
-0.000239977
0.0013981
0.000126799
-0.000513012
-0.00059653
-0.000599356
-0.000662564
-0.000771348
-0.000815603
-0.000520284
0.000509279
0.00170505
-0.00136765
-0.0114902
-0.0114904
-0.0118741
-0.00978146
-0.00361143
-0.00127951
-0.00528971
0.00879418
0.0145257
0.000252089
5.10828e-05
0.000883069
-0.00399731
0.023575
0.000559238
-0.0186323
-0.00167141
-0.000456514
-0.000463772
9.06608e-05
-0.0158636
0.0182303
-0.00107886
1.86979e-05
-0.000132808
-0.000279186
0.0142619
-1.95067e-07
-0.0126686
-0.000299234
-0.0004207
-0.000359776
-0.000285305
-1.6623e-05
0.00827137
-0.00975356
0.0109785
-2.64451e-05
-0.000152894
-0.000137197
1.49166e-05
6.15926e-06
-1.42174e-05
-0.000126336
-0.000116643
0.00441696
0.000292281
0.00441707
0.000337978
-0.00561676
-3.79375e-05
0.00610439
0.000172353
-0.000117904
-0.000202751
-3.76753e-05
0.000116748
-0.000115355
-0.000207967
-0.00440306
0.000156224
0.00362823
0.000755997
0.00291135
-0.000670111
-0.00455399
0.000363612
0.00176618
0.00248772
0.00112181
0.00296681
0.00103801
0.00036179
-0.0009456
0.000524404
-0.000228929
-0.000246103
0.00101957
-0.000225908
0.000155275
8.24736e-06
9.89414e-06
8.12907e-06
2.92683e-06
9.55738e-06
0.000155314
-1.86056e-05
0.000524416
-0.000129834
-0.000945599
0.000361956
8.60441e-06
0.000303733
0.000258381
-0.000162685
-0.00099752
0.000303054
-0.000521266
0.000973578
0.00297636
-0.00170196
0.000593999
0.000274289
0.000152246
0.000123776
2.16069e-05
-1.19445e-06
3.23598e-06
-5.08452e-06
-1.45791e-05
-3.50827e-05
1.62846e-05
1.9973e-05
5.27114e-05
0.000158888
-0.00132146
-0.00330662
0.0138144
-0.00264023
0.00709494
-0.015256
-0.00701474
-0.00701489
-0.0152575
-0.00775892
2.76866e-05
-0.0137372
0.0232393
0.00155932
-0.000965492
-0.016923
-0.00159866
0.00981093
-0.00737509
-0.0160436
-0.0132001
-0.0138981
-0.00931916
0.000853931
0.00192228
0.000854743
0.000212609
-0.0129533
0.000855656
-0.00775712
-0.0137369
2.92427e-05
0.00445819
0.00155903
-0.0169245
-0.000965141
0.00210906
-0.000338612
0.0210563
-0.0134844
-0.00032867
0.0129109
0.00103321
-0.000584281
0.00192225
0.00155628
-0.00441849
0.00445828
0.00310615
0.000158041
-0.0015424
-0.000583373
-0.000194557
0.00103257
-0.00187019
5.84665e-07
-0.00135059
0.000701962
-0.000257143
-0.000782142
-0.000273248
-6.82683e-05
-7.11691e-06
1.8304e-06
-0.0192565
0.0205259
-0.0222116
0.0220854
-0.000364864
-0.0211279
-6.24274e-05
-0.000257377
0.000620437
0.000384982
-0.000176664
-0.000140634
-0.000114776
-9.35972e-05
6.92944e-05
0.0076398
-9.3032e-05
-0.000143436
-0.0050116
0.000176914
-0.00500625
0.00559544
0.000223661
-0.00660518
-0.00665421
0.00570696
0.000128278
0.00767189
0.000282718
-0.00861004
-0.00874602
0.000105701
0.0101904
0.000312126
-0.0109754
-0.0112828
3.60854e-05
0.013267
0.000195803
-0.0136265
-0.0143404
-0.000155089
0.000906083
0.00141741
0.00463157
-0.000258914
-0.000280066
-0.00017079
-0.000468036
0.0031563
0.00327964
0.0040479
0.00215809
0.00130629
0.000830818
0.000520648
0.00027558
-5.95547e-05
-0.000129299
-0.000236013
-0.00359833
0.000227336
-0.00359677
0.00405847
0.000279101
-0.0047891
-0.00479053
0.00405986
0.00015345
0.00013581
0.000108386
-3.19666e-05
3.99601e-05
-0.000226473
-0.000351061
0.00410125
-0.00034975
0.00233577
0.000234751
-0.00262344
-0.0026257
0.00233845
-0.00020662
0.00131911
-0.000268799
-0.000270556
0.0019227
-0.000218132
0.0013204
-0.00118435
0.00454792
-0.000920273
0.00360679
0.000192264
-0.00381451
-0.00378602
0.00294599
-0.000226246
-3.19514e-05
-1.24188e-05
-1.50581e-05
0.000147622
-0.00438353
-8.5425e-05
-0.00481239
2.04873e-05
-0.00617195
-3.75619e-06
-0.00711739
-4.63716e-05
0.00828311
-0.00735654
0.000129182
-0.00665326
-0.00660667
0.000223014
0.00570701
-0.00501069
-0.00500745
0.000176267
0.00429156
0.000139536
0.0062269
-0.00554369
0.00623092
-0.005258
-1.67118e-05
0.00462081
0.000112381
-0.00431339
0.00480608
1.19357e-06
0.00519189
-0.00475477
0.00440155
-0.00237229
-4.12189e-05
0.00208237
3.77955e-05
-0.00207568
3.99825e-05
0.00229948
0.001541
-0.000812362
1.52069e-06
9.59727e-05
-5.80823e-05
5.03664e-05
0.000549707
0.00144349
0.00139824
-0.000240194
-0.000238009
1.32956e-05
-0.000128734
-0.000214521
-0.000237371
-0.000224288
-0.000344389
-0.000280881
-0.000278707
-0.0002361
7.74078e-05
-0.000238431
-0.000242385
-0.000498843
-0.000708856
7.81325e-05
8.31788e-05
0.000522646
0.000522113
-0.00133147
-0.0118748
-0.00979136
-0.00361599
0.0235658
0.000138546
-0.0235989
0.000250947
-0.0126782
-0.000467963
-0.000409367
-0.00254237
0.00014295
0.000119352
5.73558e-05
3.23471e-05
1.69942e-05
-1.88864e-06
8.02698e-05
-0.00541846
-0.000103685
-0.00652139
1.85857e-05
-0.00821206
-7.69901e-06
-0.00957538
-7.34609e-05
0.0109876
-0.00975279
0.000106051
-0.00874529
-0.00861173
0.000282635
0.00767127
0.00760527
-0.000308587
0.00551058
0.000333717
-0.00624904
-0.00625038
0.00551204
-0.000308535
0.0076035
-0.00012685
0.000534946
0.000291607
0.000106354
0.000706205
-0.000206478
-0.000640275
-0.00143955
-0.00189285
-0.00141322
-0.000762094
-0.00121002
-0.00132968
-0.00170143
-0.00192301
-0.000784838
-0.00111986
-0.000988011
0.000594786
-0.00234862
-0.00256977
-0.000914031
-0.000508221
1.40762e-05
0.000576982
0.00111695
0.000786257
-8.5143e-05
-1.71961e-06
2.24066e-06
-0.00125998
0.00174396
-0.00242972
-0.000677113
0.00101219
0.00240351
0.00113714
7.61977e-05
0.000227206
0.000166325
0.0047481
5.64858e-05
0.00573992
-7.791e-05
-2.02857e-05
0.000119053
0.00626971
-0.00716048
-9.25249e-05
-0.00878236
9.69249e-06
0.0101244
-0.0109051
-1.60787e-05
-0.012722
-0.00011457
0.0143379
-0.0127405
0.0111263
-0.000140051
7.14879e-05
-0.0116713
-8.10549e-06
0.0124583
-3.12792e-05
-1.1855e-05
-2.181e-06
5.09027e-06
1.28848e-06
7.16496e-06
3.54814e-06
-0.000137056
-0.000152621
-8.12534e-06
-7.99178e-06
-2.34439e-05
-3.87477e-05
0.0167594
5.73156e-05
-1.87431e-05
-7.26793e-05
0.0203408
0.000139683
-0.000323489
-0.000204033
-0.000142795
-0.000104383
-7.48147e-05
-4.4771e-05
-0.000174389
0.00410077
0.00300499
0.00300337
0.00410306
-0.000174246
-4.47328e-05
-7.49787e-05
-0.000235677
0.00559745
-0.00012893
-0.000112348
2.18929e-05
0.000276186
0.000520956
-0.000126758
-7.83133e-05
-0.000142785
-9.34566e-05
6.96833e-05
0.0076402
-0.000141273
-0.000177181
7.50747e-05
0.00836223
-0.009522
-8.45024e-05
0.011042
-0.0124917
-5.39876e-05
0.0143317
-0.0160292
5.77028e-05
-0.0192579
-7.26551e-05
0.0203381
-0.0200561
-0.000806859
0.0183088
-0.00042069
-0.000555733
-0.000162159
-3.14352e-06
-0.0003627
-0.000206582
-0.00029474
-0.000629256
-0.000458427
-0.0010977
-0.00127972
-0.00248669
-0.00529361
0.00879266
-0.0103174
0.00466799
-0.0138996
-0.0160442
-0.00737567
0.00980837
-0.00160139
0.000615309
0.0145236
-0.000170874
0.0250826
-0.000212167
-0.00013375
-6.89582e-05
-7.46343e-05
-0.000144755
-1.91664e-05
1.85404e-05
-0.00013298
-2.37361e-05
-0.000204069
6.65438e-05
0.000143567
-0.000142709
-0.000104102
-0.000390674
0.0101839
0.00738793
0.000344904
-0.00795288
-0.00795411
0.00738952
-0.000390904
0.0101823
-9.77659e-05
3.46389e-05
0.000317566
-7.96739e-05
0.000120986
0.000296375
0.000659303
-3.45995e-06
0.0133798
0.0097028
-0.000498387
-0.000134188
-0.000374887
0.00237543
-0.000161685
0.00716434
-0.000219085
5.08966e-05
0.000883009
0.00310538
0.0103448
-0.00441888
0.00015734
-0.00154383
-0.00931928
0.0232371
-0.0131999
0.000852796
-0.000195002
-0.000921111
0.00420056
0.0010379
0.00196074
0.00422479
0.000179181
-0.000676282
0.00195981
0.0126424
0.00869541
0.0220813
0.0121176
0.0178321
0.0198323
-0.000196964
0.00225498
0.00136313
0.000858624
-9.74961e-05
0.000830111
0.00130663
-2.57044e-06
-0.000498447
0.000297988
3.49463e-05
0.000255301
0.000164782
7.9488e-05
-8.93109e-05
1.83483e-06
2.26564e-06
5.04837e-06
7.55816e-05
0.00939956
6.96728e-06
6.74785e-06
4.67828e-05
0.0167573
1.47833e-06
-0.000256327
-0.000176181
0.000384449
0.000620282
-8.51975e-06
-6.96163e-05
-0.00025844
-0.000273667
0.00141758
0.00463091
0.00315541
0.000906043
0.000180407
0.0021564
0.00141346
0.00328063
0.000660325
-0.000114674
0.00837306
-6.90253e-05
-0.000210084
-0.000509538
-0.000318486
-5.90375e-05
0.000122474
0.000323847
-0.000323451
0.00140546
-0.000192003
-6.94828e-05
1.03546e-05
0.00700309
-0.00011253
0.00429156
0.000138922
0.00025834
0.000303678
8.61173e-06
-0.000521345
0.00038397
0.000302926
-0.00099769
-0.000162721
3.17895e-06
0.00297599
0.000974186
-0.00199288
-0.00179248
0.00191849
-0.000219042
0.000816974
-0.00141132
7.11483e-05
0.0131945
-5.36147e-05
-0.000111824
0.00211002
-0.000218595
-0.00187073
0.000346376
0.00188045
-1.19753e-05
-0.000134975
-2.4662e-05
-0.000728047
-8.47269e-05
-3.19969e-05
-0.000103803
-8.43689e-06
-0.00126005
3.78822e-05
0.00154189
0.0137925
0.0104113
0.000236604
-0.00124464
0.000233932
0.0190572
0.0220804
-0.00091323
-0.000639728
2.18933e-05
0.000192489
0.0036069
0.00294304
-0.0037842
-0.00381507
0.000112346
-0.00431253
0.00229869
0.00154188
-0.000988143
-0.00111985
-0.00081216
1.14455e-06
2.64815e-06
-1.82325e-06
0.000786325
0.00111685
0.00101172
0.00240378
0.00296664
-0.00242968
0.00103784
0.0011216
0.00248775
0.000361846
0.00176605
0.00187999
0.00176604
0.0024877
0.00112164
0.00296683
0.00103788
-0.0024295
0.00174386
-0.000677018
0.00240341
0.00101198
0.001117
0.000786353
-1.68632e-06
-8.48498e-05
0.00208239
-0.00207569
0.00229919
9.59023e-05
1.37871e-06
-0.000812252
-0.00112017
-0.000987944
-0.00234843
0.000594511
-0.00256964
-0.000218131
0.00132033
-0.000349758
0.00410141
-0.000268842
0.00131926
-0.00021918
-0.00256904
0.000594143
-0.000920866
0.00454671
-0.00118288
-0.000226456
0.00233803
0.00233583
0.00023445
-0.00262544
-0.000174408
0.00410141
0.00017659
0.00429167
-0.00554333
0.000139199
0.00622604
-0.00711714
0.00623103
-1.6805e-05
-0.00525784
0.00461949
0.000107254
0.000116573
0.000100472
5.23268e-05
-7.42531e-05
-0.000342489
-0.00054328
0.00419985
-0.00344011
0.0143834
-0.0103918
0.00180201
0.0129108
-0.000328509
-0.0134833
0.00980758
-0.00737686
-0.0160441
-0.0138991
-0.0132001
-0.0137404
0.0232353
0.00445609
0.00310435
2.59445e-05
-0.00776021
-0.015258
-0.00701601
-0.0129517
-0.00701476
-0.0152571
-0.00775935
-0.0137407
0.0232347
-0.0138995
-0.0132002
-0.0160438
-0.00737549
0.00980818
-0.013484
0.0210541
-0.0216886
0.0143816
0.00180099
0.0129095
-0.0103942
0.00644025
0.0149644
0.0104073
0.00760307
0.0181462
0.00625612
0.00386553
0.0119373
-0.0118413
-0.0118416
0.00386547
0.00625585
0.0181463
0.00760174
0.0104059
0.0137864
0.014966
0.00644325
0.00844413
0.00701153
-0.00408421
0.0190531
0.0214857
0.0220775
0.0176259
0.0178317
0.01983
0.0178319
-0.0339231
0.00103693
0.00103801
-0.00950034
0.0176249
0.0220756
0.0214865
0.0190562
0.00701065
0.00844237
0.00649096
-0.00063314
-0.000288764
-4.06509e-05
-0.00712695
-0.0091811
-0.00864095
-0.0201015
-0.0242067
0.00466826
-0.0103176
0.0235646
-0.0200548
0.0183083
-0.0160291
0.0143306
-0.0124917
0.0110415
-0.00952199
0.00836248
-0.00715943
0.00626999
-0.00541834
0.00474811
-0.00438339
0.00440161
-0.00475439
0.00480572
-0.00431302
0.00360632
0.000191856
0.00294541
-0.00118429
0.00454796
-0.000920456
0.0015411
-0.000342228
0.000107176
0.000116672
0.000100141
5.16155e-05
-7.48398e-05
-0.000343083
-0.000543596
0.00419949
-0.00344029
-0.00135146
0.00226792
0.000701616
-0.00846791
-0.00846818
0.00226821
-0.00135191
0.000701726
-0.00376308
-0.021688
0.0210554
-0.00160098
-0.0169249
0.00155703
-0.000966462
0.00210899
-0.000337937
-0.000409414
-0.00254286
-0.00132232
-0.00254283
0.00155753
0.00445703
0.0103413
0.0031047
-0.00264162
-0.00264248
0.0103418
0.000503048
-0.00661853
0.00716277
0.00716443
-0.000218393
-0.00661964
0.000156936
0.00155485
0.00192075
0.000852791
-0.00932125
0.000851734
0.000210023
0.0138127
-0.003307
0.00459863
-0.00781708
-0.00949791
-0.0204609
-0.0149867
0.0327845
-0.0182297
0.023574
0.0235747
0.00055791
0.0191159
-0.000394769
-0.0162021
0.0147231
-0.000212632
-0.0129753
0.0114176
-7.08962e-05
-0.0100628
0.00870688
1.34301e-05
-0.00763145
0.00652595
6.65591e-05
-0.00575464
0.00485738
9.28855e-05
-0.00452481
0.00362842
0.000156121
-0.00440269
-0.000670123
-0.00455379
-0.00455377
0.00036177
-0.000945605
0.00030305
-0.00135365
-6.02971e-05
0.000845373
0.000845386
-0.0010013
-1.19913e-06
0.00103501
0.00103503
-0.000733049
0.000152323
0.00166486
0.00166407
-0.000347809
0.000472399
-0.000841031
-0.000843045
-0.00141321
-0.000762015
-0.00120997
-0.00132944
-0.001923
-0.000784864
0.00139247
-0.00203536
0.000305918
0.000974271
0.00297598
-0.0017016
-0.000997661
-0.000162764
-0.00172977
9.57354e-06
0.00174268
-0.00272063
5.2324e-06
0.000346223
0.00273386
-0.000242364
3.10384e-05
0.000290749
-1.50873e-05
-1.94639e-06
1.70213e-05
3.23193e-05
5.68302e-05
0.000119107
0.000142666
0.00013809
-0.0235983
0.0250825
-0.0258912
0.0227364
-0.0199882
0.0184181
-0.0162653
0.0144986
-0.0127399
0.0111239
-0.00975244
0.00837101
-0.00735659
0.00622621
-0.00554379
0.00462019
0.000111726
-0.00381482
-0.00378574
-0.00262395
0.00300353
0.000227374
0.0030044
-0.00359768
-0.00500648
-0.00501126
0.00570726
0.0055963
0.000222761
-0.00665354
0.000129437
-0.00735628
-4.58468e-05
0.00828257
-0.00821177
-8.34105e-06
0.00939896
-0.0087809
0.00764002
1.9018e-05
0.00700289
-3.7022e-06
-0.00617184
0.00519172
1.19946e-06
0.00480589
3.99777e-05
-0.00207563
9.62271e-05
-0.000242428
0.00139249
-0.000784769
-0.00192275
-0.00132928
-0.0012096
-0.000762388
-0.0014112
0.000817162
-0.00034795
8.6274e-05
-0.00199231
0.000973676
4.62825e-06
0.00030602
0.00297644
-0.00203516
0.00273397
0.000346331
-4.15264e-05
-0.000732909
0.000123826
0.0001084
0.000135782
0.00015336
0.000143749
6.68024e-05
-0.000133754
-0.000375234
0.00237415
-0.00267316
-0.00606176
-0.00449057
-0.00187223
0.00103201
-0.000195913
-0.000329048
-0.00154386
-0.0169229
-0.000966687
0.00210909
-0.000218435
5.06229e-05
0.000251976
-0.0126777
0.0118752
-0.0150913
0.00482127
-0.0356859
0.0047557
-0.0159971
-0.000431086
0.0170623
0.0168299
-0.0189056
-0.000335378
0.00141701
0.00463012
-0.000258905
-0.00529141
-0.00978216
-0.0118736
-0.00132911
-0.00249251
-0.00361516
-0.00127929
-0.000457788
-0.00109449
-0.000710613
-0.000501138
-0.000628697
-0.000161506
-0.000555689
1.93064e-06
0.0203384
-0.0222102
0.0205251
-0.0211276
-0.000364705
0.0220848
-0.000112124
-0.000212325
-0.000409879
-0.000339645
-0.00376512
-4.74066e-07
-0.000584523
0.000157205
-0.00442031
2.62781e-05
0.00709286
-0.00300122
-0.0114895
-0.00136477
0.00170555
0.000509189
-0.000521412
-0.000815486
-0.000772198
-0.000662745
-0.000599902
-0.000596398
-0.000512982
0.00012721
0.00139815
0.00139819
0.00144333
1.33174e-05
-0.000128958
-0.000224896
-0.000345593
-0.00036149
-2.52515e-06
-0.000293894
-0.00020666
-0.000141227
-0.000175754
7.58949e-05
7.58908e-05
0.0101244
-0.010905
0.00939893
-0.00957486
-7.33978e-05
0.0109874
-0.0127211
-0.000114112
0.0143381
-0.0165933
-0.000193815
0.0182142
-6.1586e-05
-0.0181915
0.0161956
-3.92269e-05
0.0167579
-0.0192576
-7.23986e-05
-1.91392e-05
-0.000133718
-6.88579e-05
-3.17927e-05
-0.0142605
0.0124574
-7.14618e-06
0.0131936
-0.0151969
-5.46606e-05
4.7486e-05
-8.01951e-06
-6.94121e-05
-0.000170591
0.0145233
0.000616682
-0.00160042
0.00879116
-0.00027377
-0.000540175
0.00315412
0.00868848
0.0126405
0.00404677
0.00328781
0.000906192
-0.000257376
0.000620682
0.000385168
6.9748e-06
7.44661e-06
5.0913e-06
2.53095e-06
-7.79451e-05
-1.7823e-05
0.000119748
6.99076e-05
0.0076402
-0.00821173
0.00700284
-0.00711738
-4.63222e-05
0.00828259
-8.45203e-06
-1.20347e-05
-3.14137e-05
-1.65334e-05
3.64128e-06
1.06168e-05
-0.00878133
-9.28239e-05
-0.000136817
0.00870644
-6.84398e-05
-0.0100643
-7.08703e-05
0.0114176
-0.000190094
-0.0129758
-0.00021256
0.014722
-0.000419231
-0.0162014
-0.000395332
0.0191158
-0.000807149
-0.0191085
-0.00103506
0.0284736
0.0183238
-0.00399824
0.000882194
0.000882259
0.0284741
-0.00103502
-0.0191085
-0.00399982
-0.0182293
0.00459845
0.0327832
-0.00244361
-0.0149872
-0.0204616
-0.00949857
-0.0242085
-0.00781762
-0.00300272
0.00709239
-0.0044208
0.000851391
0.00192079
-0.0093216
0.000852133
-0.00154399
-0.000583876
-0.0009216
-0.000362871
-0.000162098
-0.000250325
0.000158447
-0.000457587
0.000558504
-0.0186316
0.018231
-0.015864
0.0142619
0.0142615
-4.8159e-07
-0.012669
-2.64539e-05
0.0109781
-1.23073e-05
-0.00975335
7.80042e-05
0.00827119
-1.67616e-05
-0.00737326
0.000172712
0.00610473
-3.77957e-05
-0.00561677
0.000338355
0.0044171
-0.000116662
-0.00459384
0.0007565
0.00291169
0.000363559
0.00291148
-0.000670139
-0.00440291
0.000156195
0.00362835
0.000147931
-0.00452459
9.33596e-05
0.0048573
8.10166e-05
-0.00575469
6.68602e-05
0.00652565
1.14236e-05
-0.00763139
1.41108e-05
7.83105e-05
0.00827125
-2.44474e-05
-0.00737264
0.00610448
-0.00561653
0.00441699
0.000292215
-0.00459376
0.000756166
-0.000207993
-0.000115354
0.0003385
-0.000238354
-0.000214481
-0.000237423
-0.000280824
-0.00024114
8.12762e-05
0.000522879
0.000522573
-0.0114902
-0.0118739
-0.00132922
8.00371e-05
-0.0186305
-0.00108095
0.0182312
8.93681e-05
-0.015864
-0.000279949
-0.000133411
-0.000464858
8.92345e-05
-0.000727274
-0.000421005
-5.86875e-07
-0.0126684
0.0109787
-0.00975319
-1.24632e-05
-0.000359193
-0.000133523
-0.00028454
-1.67847e-05
-0.000202478
-3.78167e-05
0.000117346
-0.000126324
-0.000116686
0.000247264
-0.00168938
0.000302966
-0.000945505
0.00176108
0.000709686
0.000709567
0.00176112
0.000821485
-0.000129827
0.00148216
-0.00295315
-0.000203529
8.02588e-05
0.00209993
0.000186698
-0.0014147
0.000771586
0.00197521
0.00142553
0.00169634
0.00101965
-0.000225753
-0.000246189
-0.000228829
-7.73078e-05
0.00140386
-0.000228972
0.000821426
0.00148222
-0.0001299
-0.000578084
-0.000203362
0.0020999
8.0186e-05
-0.000314183
5.22927e-06
-0.00272079
0.0017427
9.57015e-06
-0.00172979
-0.000162745
8.14305e-06
-0.000246022
-0.000187707
0.000524387
-0.000578144
-0.000412532
-1.86196e-05
0.000155276
8.22556e-06
3.11858e-06
9.83785e-06
-1.86859e-05
0.00052445
-0.00135362
-0.000412171
-0.000208144
-1.42894e-05
6.1905e-06
1.50516e-05
1.62301e-05
1.9751e-05
5.21582e-05
1.78798e-05
-0.00107926
1.79785e-05
0.00014257
-0.00080722
0.0235649
0.00013863
0.0203397
-7.25165e-05
0.0205261
-6.21541e-05
0.0182154
-0.000195106
-0.0165936
0.0145001
3.77341e-05
0.0101898
0.0101833
0.000312256
-0.0112829
0.0132655
0.0133812
0.000195384
-0.0143397
-0.000153237
-0.0162676
0.0184195
-0.0211292
0.022084
-0.000364391
-0.019989
-0.000333671
0.0168291
0.0170638
-0.000431382
-0.0189047
0.0227384
-0.025892
-0.000111689
-0.0222112
0.0250829
-0.0235991
0.014523
0.000251148
-0.0126782
-0.000467594
0.0118757
-0.000782178
-0.0150903
-0.0107522
0.00482189
0.00475685
-0.0356865
0.0126415
0.0121165
0.00195942
-0.000198372
-0.0119746
-0.000602262
0.0122912
0.0122928
-0.000675119
-0.0136255
0.000195559
0.0133793
0.0132667
-0.0143402
-0.000155794
-0.0112826
0.000312844
0.0101824
0.0101903
3.61589e-05
-0.00874606
0.000282412
0.00760327
0.00767167
0.000105501
0.000255668
0.000165149
7.94407e-05
-8.94776e-05
1.69359e-06
7.6138e-05
0.000225069
0.000166665
5.66583e-05
0.00573989
-0.0061717
0.00519215
-0.00525805
-1.6536e-05
0.00623105
-4.0946e-06
-2.30608e-06
5.01945e-06
8.9395e-07
-1.24735e-05
-4.12049e-05
-0.00237203
-0.00126001
0.00057684
0.00113712
0.000549361
5.06399e-05
1.41218e-05
2.12534e-06
3.77313e-05
-5.83668e-05
-6.90968e-05
-9.34802e-05
-0.000114883
-0.000140583
-0.000176661
0.000298684
0.00140933
0.00215533
0.00130552
0.000665839
3.54761e-05
-9.77901e-05
-3.19952e-06
-0.0109751
-0.00795457
0.000344216
0.00738739
0.0073889
-0.000390865
-0.00625095
0.000334205
0.00551028
0.00551134
-0.000308752
-0.00660558
0.000223308
0.00559605
0.00570737
-0.00665413
0.000128519
-7.77779e-05
0.000327657
0.000829227
0.000520397
0.000122221
-0.000143537
-0.000129216
-0.0050071
0.000176242
0.00410193
0.00429166
-0.00501104
0.000138836
-0.000210519
-5.98456e-05
0.000275869
2.19079e-05
-0.000320494
-0.000510085
-0.000508314
-0.000914533
-0.000639968
-0.0014394
-0.00189281
-0.00168399
-0.00146342
-0.00175244
-0.00188298
-0.00144113
0.00191853
-0.00181486
0.000706274
0.000106463
-0.000112336
-0.000174479
-4.47565e-05
1.2118e-06
2.03168e-05
-0.00481246
-8.55082e-05
7.17563e-06
1.91664e-05
-0.00652114
-0.00010336
-0.000117696
0.000173139
-0.000117664
-0.000136908
-0.00015292
5.68621e-05
0.000119252
-0.000420516
0.0183089
5.69166e-05
0.0167589
-3.94417e-05
0.0161953
-3.24527e-05
0.0143384
-0.000114969
-0.0127212
0.0111254
0.000106743
0.00767138
0.00760433
0.00028219
-0.00874518
-0.00861183
-0.000390936
-0.0062494
-9.82244e-05
0.00136149
0.00225264
0.00422319
0.000178434
0.000178724
0.00195954
-0.000198299
-0.0159988
-0.0119729
-0.000257223
5.05702e-05
-1.92434e-05
-0.000212182
-0.000133838
-0.000145064
-2.39083e-05
-0.000133298
-0.000280045
-0.000152926
-2.59173e-05
-8.06978e-06
-7.46892e-05
-3.50544e-05
-1.43526e-05
-5.05134e-06
3.20157e-06
2.15767e-05
0.000181232
0.000290783
-1.5173e-05
-1.8692e-06
1.69862e-05
3.22822e-05
-6.863e-05
0.0110408
-8.3949e-05
0.010125
1.03932e-05
-0.010905
-1.63744e-05
0.0109872
-7.31881e-05
-0.00957485
0.00837219
-0.00975218
-0.000115116
7.51945e-05
7.58754e-05
-0.000345985
-0.000501212
-0.000709126
-0.000238582
-0.000279136
-0.000236057
-0.00021303
-0.00022542
-0.000129125
-0.000237085
-0.000239944
1.37099e-05
0.00144355
0.0011383
0.000549942
-0.00438353
-8.57665e-05
0.00440127
-4.13984e-05
0.0020822
3.77505e-05
3.10702e-05
4.9656e-06
-2.28418e-06
-1.19317e-05
-3.14028e-05
-6.86503e-05
-2.36538e-05
-8.09864e-06
-8.07854e-06
-0.0116696
0.0124572
-0.0142612
0.0131948
-0.0124918
-5.4417e-05
0.0143306
-0.000191134
-0.0160292
-0.000160492
-0.000555223
-0.0200552
-0.00361453
-0.0103181
0.00879229
-0.00864275
-0.0201003
0.00466827
-0.00978053
-0.00529132
-0.0091816
-0.00712901
0.00061521
-4.18773e-05
-0.000279262
-0.000633215
-0.000539138
0.0064939
0.00463023
-0.000258157
-0.00017081
-0.00128085
-0.00249061
-0.000457244
-0.00109847
-0.000293149
-0.000631051
-1.80227e-06
7.09394e-05
4.6217e-05
-0.0151965
-0.0181926
1.31826e-06
-0.0192574
-6.92429e-05
-7.31261e-06
7.17833e-06
7.9312e-06
-0.000205797
-0.000363505
-0.000140653
-9.28529e-05
-0.00715978
0.00626958
-0.000103794
0.00573947
2.02729e-05
-0.00481246
0.00474808
0.000147519
-0.0054187
8.04715e-05
0.00016641
0.000119851
-0.000177407
6.93426e-05
-0.00652139
-7.77214e-05
-2.03118e-05
7.57955e-05
0.000225855
0.000577157
-0.00126008
0.00174358
-0.000676763
0.00169653
0.00197518