/*--------------------------------*- C++ -*----------------------------------*\
| =========                 |                                                 |
| \\      /  F ield         | OpenFOAM: The Open Source CFD Toolbox           |
|  \\    /   O peration     | Version:  2306                                  |
|   \\  /    A nd           | Website:  www.openfoam.com                      |
|    \\/     M anipulation  |                                                 |
\*---------------------------------------------------------------------------*/
FoamFile
{
    version     2.0;
    format      ascii;
    arch        "LSB;label=32;scalar=64";
    class       volScalarField;
    location    "2.9";
    object      gradTy;
}
// * * * * * * * * * * * * * * * * * * * * * * * * * * * * * * * * * * * * * //

dimensions      [0 -1 0 1 0 0 0];

internalField   nonuniform List<scalar> 
2658
(
0.00850867
0.00489896
0.00152544
-0.000228238
-0.018593
0.0228994
-0.0199063
0.0167438
-0.000359452
-0.0162016
0.00506415
-0.035609
0.0213728
0.0217556
0.0175568
0.018058
0.019845
0.017776
0.0179742
0.0214892
0.0206879
0.0179658
0.00590591
-0.00417992
0.00675778
0.0198337
-0.00437094
0.00116187
0.0161772
-1.80979e-06
-0.0161786
0.00437132
-0.0198338
-0.00590376
-0.00675657
0.00418111
-0.00138512
0.00167537
-0.0179717
-0.0206903
-0.0214915
-0.0179752
-0.0177743
0.00897865
-0.0015606
-0.000837476
-0.00506465
0.00934472
-0.0180612
-0.0175564
-0.0217517
-0.021372
-0.0188834
0.00394451
-0.00703329
-0.00672316
0.000451051
-0.0120488
-2.05242e-06
-0.000228882
-0.000451473
0.00672138
0.00703406
-0.00394516
0.00488633
-0.0104261
-0.0149711
-0.000643088
-0.0253567
0.0253555
-5.26493e-07
0.0219956
-0.000213247
0.0185807
-9.01547e-05
-0.0140571
-0.0139519
0.000275331
0.0138769
0.00913278
-0.0093266
-0.000523896
0.0117366
0.0176044
-0.000411053
-0.000251318
-1.71143e-05
9.11885e-05
0.000134269
0.000156001
0.000142253
-0.000618631
0.000325588
0.00159664
-0.000722746
-0.0016207
-0.000315102
-0.00178905
-0.000338039
-0.000692512
-0.00196343
-0.000535998
-0.00165726
-0.000922276
-0.000761791
0.00174409
-0.000628555
1.74165e-06
0.00022207
-0.00184561
0.000609052
-0.000838683
-4.65792e-08
0.000838644
-0.000609164
0.00184547
0.000761809
-0.00174404
0.00165722
0.000922312
0.000535977
0.00196342
0.000692475
0.000338005
-0.00137105
-0.00132879
-0.0015967
0.00162062
0.000315021
0.000722801
0.00192379
0.000503905
0.000922907
0.000829032
0.00171684
-0.000763194
4.54969e-05
7.3987e-05
-0.00172796
0.00172815
-4.57787e-05
0.000763265
-0.000464318
-0.000484903
-4.3986e-06
0.000483259
8.31953e-07
9.35978e-07
-0.000954383
0.000940776
2.02654e-06
7.45897e-05
0.000498199
-0.000552218
0.00224657
0.000526015
0.00210225
0.00248305
0.00262967
0.00209145
0.00210544
0.00240503
0.00210302
0.00213066
0.00269104
0.00250844
0.00219928
0.0007146
-0.000173286
0.000382476
-0.00281027
0.00355805
-0.00372802
0.00456224
-0.00510291
0.00598108
-0.00693128
0.00778363
-0.00923301
0.00991454
-0.0120421
0.0123016
-0.0154616
0.014883
0.0145228
0.0121653
0.0115463
0.0162024
0.018592
0.000227194
-0.0229014
0.0149702
0.0104247
-0.00488607
0.035609
-0.00430675
0.000409274
0.000250218
1.61155e-05
-9.2081e-05
-0.000134859
-0.00015634
-0.00014246
0.000618502
-0.000325439
2.72117e-05
-0.000720363
0.000246382
-0.000930106
0.000930104
0.000720373
-2.73376e-05
-0.000246433
-0.000282831
0.00132891
0.00137103
-0.00163872
0.00156065
0.000377483
-5.26785e-05
-0.000252377
0.00024483
-0.000238069
-0.000257867
-9.99853e-08
0.000257804
-0.000377733
0.000628573
-0.00118228
-1.7433e-06
-0.00131503
0.00131491
0.00118213
-1.6061e-07
-0.000822714
-0.000900294
0.000900156
-0.000234335
0.000822474
-0.000121281
-8.36634e-08
-0.000667029
-0.000294694
0.000868812
-0.00022521
4.04081e-08
1.2275e-08
-1.18297e-07
-0.0012458
0.000900719
0.00251733
-0.000605784
0.00200062
-0.00265621
0.00304126
-0.00320049
0.00320005
0.000403868
0.00359537
0.000256551
-0.00430317
0.00481138
0.000133283
-0.00566945
0.00649396
2.77446e-05
-0.00748511
0.00864881
-0.000119309
-0.0097252
0.0112767
-0.000421332
-0.0123298
0.0143784
-0.0011431
-0.0152025
0.0178853
-0.00306802
-0.0192826
-0.00887096
-0.0197059
0.0197049
-0.00116134
-0.00533315
0.0102142
0.00911447
-5.8024e-07
-0.00648335
0.00648315
0.00676007
-5.36218e-07
-0.00814867
0.00814793
0.00328637
-1.33952e-06
-0.0211681
0.0211649
-0.0131155
-1.87915e-06
0.0131115
-0.0102226
0.00649799
0.0149671
0.0103765
0.0137548
-0.020265
0.0144697
0.00193324
0.00122581
0.000213137
-0.0032876
-0.00118903
-0.00335692
-0.0116139
0.00622499
0.0179062
0.0075815
0.00857298
-0.00437192
-7.72431e-07
0.00437187
0.00335688
-0.0144691
0.0202647
-0.0149672
-0.00649614
0.010221
-0.00193549
-0.00122784
-0.00857133
-0.00758177
-0.0179046
-0.00622522
0.0116134
-0.0120152
-0.00424763
-0.016588
-0.00373464
0.0109511
0.00260464
-0.00256891
0.0119069
-0.00235116
-0.00282772
0.000145651
-6.3793e-05
-0.000226905
-0.000271987
-0.000266812
-0.000249317
-0.000219275
-0.000269578
-0.00266275
-0.00227033
-0.00204875
-0.00310576
0.00401234
-0.00422907
0.00520894
-0.00579527
0.00683668
-0.00789285
0.00888817
-0.0105753
0.0112977
-0.0138768
0.0139527
-0.0176048
0.000359236
-0.016744
0.0199064
-0.0219975
0.02073
-9.57715e-07
-0.0207314
0.018053
-0.0162149
0.013144
-0.0110598
0.0146191
6.89818e-05
0.0100655
0.000374828
-0.0112969
-0.00040756
-0.00747097
-0.00855107
0.000365638
0.00795959
0.00869809
-0.00956036
-0.000457164
0.0104095
0.000199082
-0.0104768
0.0130439
-0.000577913
-0.0115463
-6.06949e-06
0.00083716
-0.00934532
0.012014
-0.0119077
0.00256784
0.000896025
-8.23796e-05
-6.39622e-07
0.000244688
3.08495e-05
-0.000140315
-0.000201746
-0.000211728
-0.000206073
-0.00018235
0.000237935
-0.000244887
0.00025241
0.000234155
5.28093e-05
-0.00156067
0.00163867
-0.00113305
0.000756313
0.000423371
0.000342805
0.000951674
0.000669033
-0.000183303
-0.00259131
0.00421912
1.46795e-05
-0.00466217
0.00378676
-0.00327321
-0.000261203
0.000214813
0.00136291
0.00138701
0.00137576
0.000857473
0.00095501
6.67507e-05
0.000374989
0.000405164
0.000222066
-0.000165442
6.09137e-05
-7.18569e-05
-0.000166255
-0.000141626
0.000125305
0.000180881
0.000192527
0.00346443
0.00304657
-0.00312541
-0.00273237
0.000144145
0.00275246
-0.000294063
0.000280587
-0.000135707
-0.000454934
-0.000463951
-0.000795099
-0.000351862
-0.000275579
-0.000414294
-0.000663465
-1.30036e-05
6.98885e-05
0.00014568
0.00573503
0.00521714
-0.00593349
-0.00513663
0.000274531
0.00455275
-0.00375427
0.000212336
0.00351101
-0.00028084
0.00398328
-0.00433391
0.000224074
0.00440012
-0.00356064
0.000156005
2.72954e-05
-9.77852e-05
-0.00359477
4.57231e-05
0.00337014
-0.000482339
-0.00294526
-0.000614905
-0.000244443
-3.37371e-05
7.96845e-05
0.00019338
0.000442496
0.00042892
-0.00116043
0.000424996
0.000849788
0.00053642
9.26073e-05
0.000277273
0.000206673
0.000184807
-0.000168779
-0.00047381
-0.000819596
-0.000812318
-0.00132456
-0.00125546
-0.00204854
-0.0012895
-0.000613135
-0.00122296
-0.0030092
-0.000496632
-0.000170764
6.49469e-06
0.00956053
0.00855228
-0.0104089
-0.00913136
0.00040718
0.00747136
-0.00691391
0.000335599
0.00588072
-0.000356503
0.00675774
-0.00795878
0.000366299
0.00746192
-0.0065169
0.000293074
5.04624e-05
3.95921e-05
-0.000126521
-0.00481082
2.446e-05
0.00430328
-0.000256571
-6.85413e-05
-0.00429289
0.00514898
-0.00577542
0.00577496
0.000115632
-0.00683989
5.96042e-05
0.00772352
3.76914e-05
-0.00898821
7.0712e-05
0.0101377
-0.000108897
-0.0115413
5.58726e-05
0.012986
-0.000506613
-0.0143606
-7.82272e-05
0.0161976
-0.00183746
-0.0168222
-0.0013813
0.0187779
-8.95568e-07
-0.0187786
0.00886918
0.019284
0.0030668
-0.0178845
-0.000199969
0.0152021
0.00114192
-0.0143775
-6.61205e-05
0.0123316
0.000420448
-0.0112753
-3.14919e-05
0.00972657
0.000118103
-0.00864825
-8.18605e-06
0.00748577
-2.83128e-05
-0.00649335
9.37974e-06
0.00566988
-0.00013336
-5.32704e-05
-0.000197263
-0.00014953
-5.17311e-05
0.000677669
-2.87252e-07
-4.29149e-08
-5.53354e-07
-6.49983e-08
2.04818e-07
3.75284e-07
9.71856e-07
3.46894e-06
1.1018e-06
-6.17495e-07
-1.60775e-06
0.00545023
-0.00545135
-0.00760891
-0.00724941
-0.00221544
-0.00387215
-0.0121562
0.0366479
-0.00351435
0.000146207
-0.000161068
-0.000203549
0.00138157
0.0168229
0.00183651
-0.0161974
-4.06344e-07
-4.49752e-07
-5.07105e-07
0.000506127
-0.0129863
0.0143604
7.81338e-05
-0.000143329
-0.000178092
-5.62663e-05
0.0115411
0.000108351
-0.0101385
-1.10102e-07
-4.2143e-07
-4.89273e-07
-4.19528e-07
-0.000116629
0.00683943
-0.0077242
0.00898806
-7.06103e-05
-0.000176486
-0.000155004
-4.26207e-07
-2.80786e-07
-1.20148e-07
-1.75137e-07
-0.000404434
0.00392742
-1.59763e-07
-0.00392798
6.83707e-05
0.00429239
0.000203253
-0.00514977
5.29661e-05
0.000125938
-2.28183e-07
-0.000204062
-1.90558e-07
9.73489e-05
3.35194e-05
0.00294536
0.000482152
-0.00337016
0.000244277
-0.00304149
0.00124577
0.00265614
-1.02184e-09
-0.00200052
0.000605772
-0.00251778
-0.00071466
-0.000900703
-0.000107267
-0.000581806
-0.000295932
0.000225184
0.000666982
-0.00086889
0.000294821
-0.000901323
0.000667666
-8.64701e-08
-0.000667647
-0.000328202
0.00178894
0.000901345
0.000121323
0.000295958
-0.000221971
0.000581727
0.000107236
0.000124641
-0.000640282
-0.000271071
0.000898807
0.000836931
-0.00019295
0.000214107
0.00118277
-0.00172138
0.0015909
-0.000243023
-1.47651e-08
-1.94e-09
1.32469e-08
-6.39043e-08
-5.79682e-08
-1.25043e-07
-1.11015e-07
-1.26085e-07
-3.03826e-07
-4.2112e-07
-2.28183e-07
-3.45771e-07
-5.3719e-07
-4.10043e-07
-4.35352e-07
-9.61605e-07
-0.0102153
0.00533311
-0.00453543
0.00755208
-0.00755324
0.00453543
-0.0150855
0.00157532
-0.006055
0.01402
0.00353568
-0.000336461
0.0131566
-0.0119633
-0.00669648
-0.0177114
-0.00565652
-0.00864252
-0.0129627
-0.00727852
0.000671477
0.00626607
0.00192091
-1.76867e-06
-2.85891e-07
-0.00191987
0.015086
0.00605717
-0.00157543
0.00477392
-0.00353575
-0.0131573
0.000335972
0.00155368
-0.00260577
-0.010952
0.00373282
0.0165876
0.00424684
0.0076155
-0.00613271
-0.00626757
8.40696e-07
-0.00234691
-0.00477352
0.00033404
-0.000484064
-0.00739199
0.00613193
0.00119507
-0.00761599
-0.000229021
-0.000214078
0.00118826
-0.000896328
8.11064e-05
4.86658e-06
-0.00209916
-0.00423634
-0.00221716
-0.000172013
0.0120348
0.0104788
-0.0130438
-0.0117355
0.000523449
0.00932646
-0.000199426
-0.000253122
-0.00220301
-0.001322
-3.8448e-05
7.64221e-05
0.000125825
0.000156934
0.00017109
-0.0048172
-0.000277747
0.000130275
0.00494882
-9.16211e-05
-0.00626983
0.0073126
-0.000113928
-0.00842697
0.00654337
-0.00558681
-0.000281133
-0.00755422
-0.000114881
-0.0112061
0.00858181
-0.000334922
-0.010065
-6.96859e-05
-0.0146193
0.0110589
-0.000375374
-0.0131439
8.99766e-05
-0.0185825
0.0140556
-0.000276371
-0.000991108
-0.00412292
-0.0125122
-0.0124785
-0.0198501
-0.00205797
0.0336909
-0.00321023
-0.00328392
-0.00152573
-0.000683372
-0.000416571
-0.000268953
-0.000166256
-6.88505e-05
2.42745e-05
6.90719e-05
1.78628e-05
0.00697336
2.33716e-07
-0.00697404
0.00813626
5.8078e-07
-0.00939181
0.00939175
-0.00813616
-2.48262e-08
-9.60739e-08
1.7686e-08
7.81921e-05
0.000178843
-5.70264e-05
0.00221585
8.29513e-07
-0.00221644
0.00447884
4.49269e-07
-0.00513534
0.00513474
-0.00447846
4.13965e-05
0.000631456
-0.00084401
0.000844025
-0.000483167
-0.000244583
-0.000631677
0.00259155
0.000183664
-0.000669556
0.00327419
-1.43233e-05
-0.00378748
0.00466216
-0.00421887
5.64229e-05
-7.83036e-05
-7.98217e-05
0.000219078
-4.55894e-05
0.00281045
0.000269998
-0.00346418
-0.000155897
0.00312555
0.000280788
-0.00351065
-0.000212582
0.00375581
0.00579493
0.000281241
-0.00654364
0.00842584
0.000114491
0.00558806
-0.00494929
0.00626963
9.15965e-05
0.00414067
0.000252445
-0.00520834
0.00422891
0.00273323
-0.00275276
-0.000144232
-0.00401192
0.000260709
0.00310555
0.00204923
0.000293864
-0.00304631
0.00227048
0.00266308
-0.000756297
-0.000193335
-0.000423136
0.00459981
-0.000342933
-0.000178981
-0.000951428
0.00484347
-0.00209154
-0.00210588
0.00116049
-0.000428776
-0.000442527
-0.00040482
-0.000955145
-0.00067766
5.14968e-05
0.000149841
-6.66118e-05
7.24207e-05
0.00019694
0.000252442
0.000166925
0.00027643
0.000308453
-0.000309319
-0.000252642
-5.98006e-05
-0.000323141
0.000322111
0.000414861
0.000613857
0.000237328
-0.000238544
-0.000309781
0.000310595
0.00122566
0.00761101
0.00725291
0.00221937
-0.0148822
-0.000594605
-0.0145225
-0.000147363
0.0015603
-0.0336914
0.00234998
0.00282701
-0.000147021
6.26521e-05
0.000225854
0.000271293
0.0002663
0.000248968
-2.44084e-05
0.00372868
0.000261857
-0.00439968
-0.000224404
0.00433404
0.000312227
-0.00455247
-0.000274061
0.00513827
0.00789303
0.000334523
-0.00858261
0.0112053
0.000114351
0.00755489
-0.0097211
-3.8625e-05
0.0108292
1.48204e-07
-0.0124863
0.0124858
-0.010829
3.8124e-05
0.00972105
8.91658e-05
1.69142e-07
4.10727e-07
9.49107e-08
1.29026e-06
-4.19444e-05
-0.00053827
-0.00224937
0.000557952
0.00034337
-0.00171739
-0.000829633
-0.000923131
-0.00159123
-0.000504017
-0.00192383
-0.00262904
-0.00248297
0.000242071
-0.0021032
-0.000526349
-0.000849516
-0.00136259
-0.00138721
-0.00137598
-0.00269106
-0.00213079
0.00113299
-0.00210318
-0.00240614
0.00491671
-0.000382416
0.000614832
0.000173282
-0.00250854
-0.00219959
-0.000856924
-0.000221791
-0.000375737
-0.000180217
-0.0035576
-0.000192214
0.00356151
0.000165491
-5.65622e-05
-0.000124013
-0.00456163
0.00510382
0.000278639
-0.00573445
-0.000293011
0.00651805
0.00593355
0.000356368
-0.00588116
-0.000336266
0.00691554
0.0105747
-0.00888733
-7.58291e-05
-0.000103388
-0.00746067
-0.000365919
-0.00675666
0.000200916
0.000211097
0.000205724
0.000182137
-2.75369e-05
-3.98796e-05
-5.09541e-05
0.000154435
0.000175792
-6.4312e-05
6.33551e-05
8.28841e-05
0.000456462
-0.0114229
-9.76906e-05
0.000115888
0.000591758
-0.0147831
0.000594974
0.000168742
0.000109611
8.76934e-05
7.16307e-05
5.57847e-05
3.51471e-05
-6.02056e-06
0.00547761
-0.00607131
0.00607159
-0.00547714
5.61095e-06
-3.52547e-05
-5.6029e-05
-1.88392e-05
-0.00731238
-6.93498e-05
-4.48151e-05
-9.20128e-05
6.91031e-05
0.000166425
-8.93298e-05
-5.3722e-05
-0.000129951
-0.000156771
-0.000170597
0.00481801
0.00046467
0.000148065
-6.7953e-05
-0.00598015
0.00693242
0.00030039
-0.00778273
0.00923417
0.000282156
-0.00991306
0.0120427
9.80708e-05
-0.0120352
-0.000592918
0.0147838
0.0154625
0.000199222
-0.0123003
6.61118e-05
0.000497914
0.000173603
1.52582e-05
0.000358571
0.000795717
0.00125649
0.000673566
0.00204842
0.00130359
0.00387271
0.00300307
0.012156
-0.036647
0.00138541
-0.00167388
0.0129633
0.00565521
0.0177108
0.00669644
0.0119623
-0.00897884
0.00351433
0.0020581
-0.0121649
-0.000246437
-3.20469e-05
0.000139317
-5.14285e-07
-6.62788e-07
-0.000117183
0.000142666
0.000177353
-8.37373e-05
-0.000110955
-3.68861e-07
-1.67541e-07
-8.83746e-05
-7.21622e-05
-6.01078e-05
-0.0127088
0.0141675
-2.51127e-07
-0.0162876
0.0162862
-0.0141681
5.95353e-05
0.0127087
0.000103566
-7.41663e-05
-0.000364074
5.41087e-05
-0.000156105
-0.000357203
-0.000707965
0.000113091
0.0162139
-0.0180537
0.000100385
-7.67121e-07
-7.2159e-07
-7.62282e-07
-4.82255e-07
-0.00676081
0.00128346
0.000160108
0.000202889
-0.00033348
-0.00911575
0.00234705
0.000483232
0.00739101
0.00727877
-0.0140183
0.00864233
-0.00067098
-0.00119684
-6.14873e-07
0.00430602
0.0120463
-6.24137e-05
3.19045e-07
0.00014185
0.000212915
6.12183e-05
-0.00490029
-0.00851165
-0.00856676
-9.68681e-07
0.000224897
-1.66259e-06
0.000642074
5.22798e-07
6.16456e-08
-8.91345e-08
-0.00010403
0.000269398
0.000416464
-0.00011379
-0.000101864
0.000357277
7.42554e-05
0.000820061
0.000473946
0.0001693
-0.000214875
-0.000280422
0.000135824
0.000455115
-0.000144854
-0.00521662
0.000812438
0.00132473
-5.48213e-06
0.0114244
0.000173935
0.000254044
3.949e-05
0.00132273
0.00220489
0.00221826
0.00423814
0.0124786
0.00209936
0.00412327
0.0125126
0.00320959
0.000991006
-0.000143302
0.000682238
0.0014496
0.00328454
0.000710545
-0.000125636
-0.00683552
-0.000184649
-0.000206746
-0.000425515
-0.000277014
-2.38766e-05
0.000158305
0.000363964
-0.000170225
-0.00144728
3.14168e-05
8.16265e-06
-9.34309e-06
-0.00398273
4.46708e-05
-0.00413994
-0.000252766
0.000271084
0.000640341
-0.000124644
-0.000214181
-2.51877e-07
0.000192968
-0.000837031
-0.00089882
0.000328266
0.00172141
-0.00118278
-7.46676e-05
-0.00049926
0.000482207
0.00024461
0.000465531
-0.000342131
0.000104325
-0.00869553
-0.000282174
0.000578486
-0.00155483
-0.00128338
0.000228896
0.000282746
-1.20606e-08
-3.88258e-05
-3.03434e-07
-8.96267e-08
8.99503e-08
-0.000300248
-0.000365234
-0.00026139
-0.000312195
-0.00491645
-0.00459967
-0.00484317
-0.0137563
-0.0103787
0.00177044
-1.83274e-06
-0.00177
0.0188835
0.00856527
-0.000850265
-0.00053632
-9.25088e-05
-1.48148e-05
0.00327311
-0.00421917
0.00466188
-0.00378727
0.000261173
0.00310546
-0.000951774
0.00484334
-0.00248311
-0.00262964
-0.00209149
-0.00210537
-0.00240479
-0.00210295
-0.00213059
-0.00269057
-0.00250841
-0.00219882
-0.000714712
0.000614912
-0.000900729
-0.00251753
0.000605644
-0.000107249
-0.00200066
8.08113e-08
0.00200054
-0.00060567
0.00251768
0.000714813
0.000900725
-0.000614932
0.000382518
-0.000173334
0.00219927
0.00250842
0.00269063
0.00213061
0.002103
-0.00113304
0.000423243
0.000342866
0.000951485
-0.00116038
0.00210562
0.00209141
0.00262909
0.00248295
0.0021028
-0.000242093
0.000526563
0.000244484
0.000631894
0.00221632
-1.12951e-06
0.000843943
-0.000631554
-0.000244871
-0.000525954
0.0002428
-0.000669185
0.000183313
0.00259126
5.67211e-05
0.00447812
-0.00447881
-6.65399e-07
-0.00513513
5.87652e-06
-0.00547735
9.12084e-05
0.00413981
0.00422863
0.000252705
-0.00520869
-0.00351124
0.00273251
-0.000144576
-0.00275275
-0.00401239
0.000142249
0.00015603
0.000134141
9.10073e-05
-1.6734e-05
-0.000251276
-0.000410711
0.00430626
-0.0033561
-0.0116124
0.00622586
0.0120148
0.00424725
0.0165874
0.00373364
0.00669698
0.0177113
0.00565651
0.0129613
0.00864087
0.00605398
-0.0140185
0.0047726
-0.000333978
-0.00157491
0.0150852
-0.00453374
0.00755251
-1.99097e-07
-0.00755396
0.0045323
-0.0150866
-0.00605565
0.0140173
-0.0129622
-0.00864135
-0.00565747
-0.0177111
-0.00669686
-0.00373544
0.0109502
0.011905
0.0116112
-0.0120157
-0.00424933
-0.0062266
-0.0179072
-0.00758662
-0.0103792
-0.0149697
-0.00649792
0.0102218
-0.013116
-0.00193442
0.0211658
-0.0211675
0.0131144
-0.0102229
0.0064979
0.0149689
0.0103788
0.0137571
0.00758659
0.0179068
0.0217528
0.0213745
-0.00394347
0.0188835
0.00703557
0.00856622
0.00672176
-0.000226494
1.16123e-07
0.0002254
-8.50346e-07
0.0120467
-0.0120482
0.000451457
-0.00672204
-0.0085668
-0.00703639
-0.0188846
-0.0213755
-0.0217526
-0.0175562
-0.0180581
-0.0198432
-0.0177761
-0.0179735
-0.0214881
-0.020687
-0.0179648
-0.0059032
0.00167618
-0.00138529
0.0148824
-0.0154628
0.0123006
-0.0120418
0.00991448
-0.00923355
0.0077829
-0.00693206
0.00598093
-0.00510308
0.00456207
-0.00372848
0.00355771
-0.00281037
-0.00266283
-0.00227029
-0.00204892
-0.00310554
-0.00327392
1.41976e-05
0.00421876
-0.00259158
-0.000183591
0.000669524
-0.00484339
0.000618457
-0.000142589
-0.000156383
-0.000134657
-9.17838e-05
1.62548e-05
0.00025026
0.000409195
-0.00430726
0.00335535
0.00118799
0.00328555
-0.000896845
0.0081472
-0.00814825
-0.00328662
-0.00118919
0.000895904
0.00256774
-0.0119063
-0.010951
0.0119621
-0.0131567
-0.00353528
0.000336965
0.00155345
-0.00260493
0.00234982
0.00282679
-9.01342e-07
-0.00282746
0.00353436
-0.00477425
0.00911225
0.000332157
0.0102131
-0.0102155
-0.00911461
-1.68928e-06
0.00648113
0.00675814
-0.00676098
0.0012834
-0.00648388
0.000482908
-7.35317e-07
0.00626454
0.000669053
-0.00727945
0.00191948
-1.07239e-06
-9.27738e-07
-5.78186e-07
0.00886797
-0.00675897
-0.0198338
0.00436779
-0.0161794
0.019703
-0.0187783
0.016821
-0.016823
-0.00183844
-0.0152022
-0.0011431
0.0143766
-0.0123317
-0.000420781
0.0112746
-0.00972663
-0.000118048
0.00864771
-0.00748571
2.85122e-05
0.00649328
-0.00566987
0.000133557
0.0048109
-0.0043034
0.000256755
0.00359515
-0.00337044
0.000482216
0.00294523
0.00124567
0.00265583
-0.00265614
0.000107044
0.000581613
-0.00131497
-0.00118218
-7.65038e-08
0.000822428
-0.000822608
-0.000900285
-1.07369e-07
0.000929992
-0.00093014
-0.000720446
-1.84402e-07
0.00172789
-0.00172835
4.57077e-05
-7.80303e-07
-0.000483394
0.000484922
-0.000343388
0.00171733
0.000829651
0.000922994
0.0005041
0.00192372
0.000722629
-0.00159662
-0.000325636
0.00118282
-0.00172138
0.00159121
0.000836953
0.000898879
0.000315104
0.00178878
0.000337984
-0.00137096
-0.000244938
0.000282555
-0.00132882
0.00162079
0.00023782
0.00025775
-0.000219357
-0.000249427
-0.00026692
-0.000271815
-0.000226273
-6.30221e-05
0.000146761
0.000595374
0.014521
0.0121658
0.0115454
0.0162024
-0.0176047
0.013953
-0.0138773
0.011298
-0.0105755
0.00888801
-0.0078939
0.00683603
-0.00579544
0.00520851
-0.00422914
0.00401211
-0.000260935
0.00378721
-0.00466245
0.00513515
-0.00607164
-2.44146e-07
0.00607067
-0.00697421
0.00626917
-0.00494956
0.00558721
-0.00731261
0.000113892
-0.00654422
0.000281283
0.0057944
-0.000212614
0.00375493
0.00433331
0.00031222
-0.00521694
-0.00573498
0.00481712
-0.000224482
-0.00398323
0.000280721
0.003125
-0.00304666
0.000294251
0.00204875
-0.000179161
-0.000342915
0.00116022
-0.00162089
-0.000722708
-0.00192386
-0.000504058
-0.000922925
-0.000829232
-0.00171681
0.000342034
-0.000465569
-4.56074e-05
0.000763295
-7.40595e-05
-0.00118287
-2.73128e-05
0.000325479
0.00172143
0.00159664
0.00132879
-0.000282755
-0.000246392
0.00072034
-1.77861e-07
-2.76359e-07
-3.13319e-07
-1.74367e-07
-1.42705e-07
-1.10723e-07
-1.09428e-07
-4.41889e-07
-5.34057e-07
-7.22063e-07
-2.93472e-07
0.00437025
-0.000231105
-0.00761727
0.0011953
-0.0165874
-0.00739262
0.0131547
-0.000338292
-0.00155536
-0.00128508
-0.000161308
0.000146675
-0.00156103
-0.000837161
-0.00506525
-0.00488683
0.0104235
0.0149697
-0.022901
0.000227567
0.019906
-0.0167433
0.018592
0.000358375
-0.00412264
-0.0125127
-0.0124773
-0.0121535
-0.00725072
-0.00760937
-0.00122511
-0.00300548
-0.00221825
-0.00387333
-0.00204716
-0.00130325
-0.00061329
-0.000415077
-0.000672355
-0.000172749
-0.000497511
-0.000172996
-0.0147827
-0.013044
0.0104777
0.00932536
0.000523447
-0.0117349
0.000577042
0.000245222
-0.00235114
0.00260355
-0.00257013
-0.000214914
0.00613082
-0.000485477
-0.00234849
0.00157359
-0.00533387
-0.00116302
-0.00545108
3.46615e-07
2.03001e-07
7.4049e-07
-1.44153e-07
-6.42418e-07
-7.42056e-07
-6.94741e-07
-1.36578e-06
-6.57071e-07
-1.75467e-08
1.46195e-07
-0.000677729
0.000677644
0.000954882
6.62141e-05
-7.2356e-05
-0.00016704
-0.000276493
-0.000358494
-1.48433e-05
-0.00125528
-0.000795093
-0.000464365
-0.000147081
6.84224e-05
0.000145776
-0.00651785
-0.00593411
0.00521666
0.00455222
0.00027394
-0.0051373
0.00588019
0.000335442
-0.0069144
0.00747053
0.00040692
-0.00913126
-0.000199961
-0.01041
0.00855203
0.000456728
-0.0114227
0.0120341
0.00059238
0.000116191
3.12862e-05
-0.000140005
-0.000365721
-0.00795947
0.00675723
0.00036578
-0.00869633
0.00956067
-0.000282428
6.39001e-06
-0.00221674
-0.0042368
-0.00205759
-0.00351365
0.00897801
-0.011963
0.0366448
-0.00209971
0.00934413
-0.00321033
-0.00850935
-0.00490003
-0.00152646
-0.00328457
-0.000990568
-0.000252905
-0.00220318
-0.00132149
-0.00132347
-0.000811329
-0.000454493
-0.000135516
-0.000165159
5.72491e-05
0.000124267
0.000171324
-0.00481744
-0.00433381
0.00398328
0.00351068
0.000212065
-0.00375481
-0.00031212
-0.000211902
-0.000201609
-0.000356642
5.03662e-05
0.000292659
0.00573418
-0.00027828
-0.000155018
0.00748532
-8.94363e-06
-0.00864867
0.000118457
0.00972608
-3.13358e-05
-0.0112758
0.000421601
0.0123306
-6.58299e-05
-0.0143772
0.00114309
0.0152016
-0.000199756
-0.0178841
0.00306811
0.0192815
0.0041798
0.00138058
-0.000204024
0.000202503
-0.0192829
-0.00306781
0.0178834
-0.00138241
0.0187769
-0.00886997
-0.0197041
-4.51325e-07
0.0161784
-0.0043699
0.0198324
0.00590207
0.00675725
0.0011618
0.00533284
0.00234648
-0.0019213
-0.00626686
0.00727902
-0.000670374
0.0073916
-0.00613217
-1.29612e-06
-7.14597e-07
-7.86412e-07
-7.64357e-07
-7.79328e-07
-6.9403e-07
0.00183761
-0.0161974
0.0143595
-0.012986
0.0115412
-0.0115428
-0.000109491
0.0101375
7.06288e-05
-0.00898827
3.77761e-05
0.00772287
6.00326e-05
-0.00683997
0.000116237
0.00577493
5.31976e-05
-0.00514974
0.000203494
0.0042924
6.82663e-05
-0.00392829
0.000404111
0.00319998
0.000244213
-0.00304171
-1.03551e-07
0.00304132
-0.00124568
-0.0029454
-0.000482294
0.00337007
4.5532e-05
-0.00359518
-0.000256639
0.00430335
2.41977e-05
-0.00481138
-0.000133653
0.00566922
8.91335e-06
-0.00649407
-2.85877e-05
-6.0444e-05
0.00683877
-3.63103e-07
-0.00577605
0.00514908
-0.00429321
0.00392769
-4.37787e-07
-0.00320035
-0.000244376
-3.36893e-05
-9.77603e-05
-6.85335e-05
-0.000149502
-0.000197388
-0.000253272
-0.000309649
-0.000322951
-0.000237783
-0.000309709
0.000309095
0.00545035
0.00760881
0.00122459
0.0002359
0.0161956
-7.93015e-05
-0.0143616
-0.00050821
0.0129841
5.57124e-05
0.000177159
-2.39708e-07
0.000508157
-5.65159e-07
-3.68418e-07
0.000109653
-0.0101385
0.00898681
-0.00772443
-3.84217e-05
-5.69673e-07
-7.0055e-07
-4.21642e-07
-0.000116929
-3.95379e-07
-0.000203688
-4.97212e-07
-1.83535e-07
-0.000403929
-1.25833e-07
-4.64555e-09
0.00131486
-0.000581673
0.000609031
-0.000838611
0.000838494
-0.000608991
0.00184566
-0.000221949
0.000761826
-0.00174386
-0.000377708
5.27553e-05
-0.00156066
0.00163864
0.000692509
0.00196321
0.000535944
0.000922193
0.00165716
0.000868852
-0.000294682
-0.00066703
-0.0002252
1.60643e-07
-9.36612e-08
0.000225055
-0.00184568
-0.000761773
0.00022182
-0.000628666
0.000377485
0.00156065
-5.27859e-05
-0.000252367
0.000244837
0.001371
-0.000338016
-0.00178882
-0.000315118
-0.000898899
0.0006677
0.000667054
-1.08375e-07
0.000295977
0.000628568
-1.67135e-06
0.000121302
0.000901351
-0.00066768
-0.000328263
-8.41605e-08
-0.000121325
-0.000296028
0.00118214
1.45877e-06
3.34809e-05
-2.75006e-07
-3.10978e-07
-4.2773e-07
-3.54059e-07
-4.196e-07
-3.66172e-07
-0.000143049
7.90571e-05
0.000142095
-0.000147155
0.000198961
-0.014883
-0.000594502
0.0147831
-0.000593169
-0.0104791
0.000199241
0.00913105
-0.000407409
-0.00747221
-0.0112982
0.000374546
0.0100644
-0.012709
6.86402e-05
-0.0110605
0.0131425
-0.016215
-8.99925e-05
-0.014058
0.000275938
0.0138756
-0.0139527
-0.00932818
0.0117352
-0.000523736
0.0176036
-0.000357773
0.0167431
-0.0199066
-0.000227924
-0.0185933
-0.0162027
-0.0115468
-0.000577208
0.0130429
-0.0121653
-0.0145228
0.00351321
-0.000147409
0.00156037
-0.0336906
0.000837202
-6.03789e-06
0.00506409
-0.0356067
0.00488712
-0.0149708
-0.0104251
0.00489884
8.46894e-08
6.12818e-05
0.00064182
0.025355
-4.11006e-07
0.0219956
-0.0219957
0.000212436
-0.0185822
9.01937e-05
0.016215
-0.0131431
0.0140557
-0.000276449
0.0110584
-6.95535e-05
0.0127092
-0.0100641
-0.000375109
0.00858132
-0.000115315
0.00972143
-0.00755382
-0.00033531
-0.000819465
-0.000473535
-0.000168852
0.00021507
0.000280462
0.000221774
0.000375696
0.000180605
0.000192524
-0.00356105
-0.00312567
0.00304652
0.00275248
0.000143969
-0.00273279
-0.000280921
-0.000206272
-0.000182532
-0.000293779
7.955e-05
0.000193283
0.000756313
-0.00491652
0.00137579
0.000856507
0.000404668
0.000442613
0.00138703
0.00240562
-0.00459973
0.000428954
0.000185082
0.000157128
0.000126284
7.67788e-05
-3.86748e-05
-0.000357661
-0.00144979
-0.000682463
-0.000416768
-0.000711444
-7.49259e-05
0.000103687
0.00011269
-0.01462
0.0162871
-2.48828e-08
0.0141678
-0.0141677
6.00864e-05
0.0124861
-2.29651e-07
0.0108292
-0.0108296
3.79233e-05
-0.0084264
-0.000114541
0.00731249
-0.00558751
0.00654308
-0.00028137
5.30294e-05
-0.000364668
-0.000269512
-0.000166575
-0.000158751
0.000130356
6.90577e-05
-0.00627027
-9.19246e-05
0.00547708
-0.00414048
0.00494884
-0.000252547
0.000206866
2.37043e-05
-6.90086e-05
9.23717e-05
0.000277004
0.000425612
0.00136262
0.00084938
0.000538379
0.00224917
-0.000558033
0.000954355
-1.94924e-06
-0.000940719
0.000551999
-0.00224678
-0.00048228
-0.000498149
-1.3382e-06
-2.84274e-07
4.45308e-05
-5.95078e-06
3.48869e-05
2.71846e-05
0.000155537
0.00346431
-0.000269601
3.93352e-05
0.000224234
0.00439973
-0.000261537
-0.000126405
-5.35205e-05
0.000125669
0.00015423
0.000175764
0.000226134
6.28119e-05
6.55881e-05
-0.0123017
9.78289e-05
0.0114224
-0.000457621
-0.0085524
0.00036605
0.00691405
-0.000336009
-0.00588184
-0.0088874
0.000335819
0.00755396
-0.00972144
0.000114447
-0.00858284
0.0112049
-6.02343e-05
-0.0124861
-0.000103796
-4.16806e-07
-1.51534e-07
-1.00281e-06
0.000142629
-0.000142403
-6.17155e-05
-0.000642956
0.0228995
-0.0253567
-8.22513e-05
0.000159837
-0.000117049
-0.000246077
-3.15996e-05
-3.81991e-07
8.32229e-05
-0.000177637
-5.58827e-05
-0.000176234
-7.07686e-05
6.35528e-05
-1.84522e-07
-3.67103e-07
-4.47469e-07
-4.00833e-07
-2.92547e-07
-1.14771e-07
-7.15484e-08
-0.0002578
0.000219205
0.000248912
0.000266384
0.000271251
7.83417e-06
-0.00778354
0.00030059
0.00651733
-0.000293024
0.00593287
0.000356531
0.00513717
-0.000274747
-0.00455299
-0.00683622
0.00789228
-0.000126167
-0.000146053
-6.96044e-05
0.000275749
0.00041417
0.000612281
0.000322744
0.000309398
0.000253263
0.000197433
0.00016663
7.22187e-05
0.000149507
5.13369e-05
-6.66412e-05
-0.000955141
-0.000857238
-0.000405151
0.00281037
0.000269934
0.00266269
-0.000193643
-0.000423285
0.00459985
-0.000237983
0.000182186
0.000205753
0.000211222
0.00020102
0.000139704
-8.36336e-05
-6.42506e-05
-0.000366577
-0.00746126
-0.00675739
0.00795851
0.00869604
0.00923297
0.000282762
-0.00991424
3.06669e-05
0.0120418
0.000170754
0.00049696
0.0154606
0.00221607
0.00138501
-0.0366473
0.0206881
0.017968
-0.00167711
0.00724859
0.0121537
0.0214898
0.0179745
-0.00897909
0.0177738
0.0198488
0.0180602
-0.00934515
0.0175563
0.0125109
0.0124786
0.00205784
0.00387146
0.00300951
0.00204723
0.00128852
0.00125486
0.000661851
1.28004e-05
-0.000104908
-6.74999e-06
-0.00956153
0.0104075
0.000172592
-0.0120359
0.00423654
0.00221609
0.00132289
0.000810677
0.000794039
0.000351564
0.000463421
0.000278287
0.00510253
-0.00456208
0.00026181
0.00356105
-0.000156081
-0.00346452
-0.00355778
-4.56218e-05
0.00372815
-2.44529e-05
-0.000180673
-0.000125278
0.000140797
-0.000171428
-0.00440045
0.000164777