/*--------------------------------*- C++ -*----------------------------------*\
| =========                 |                                                 |
| \\      /  F ield         | OpenFOAM: The Open Source CFD Toolbox           |
|  \\    /   O peration     | Version:  2306                                  |
|   \\  /    A nd           | Website:  www.openfoam.com                      |
|    \\/     M anipulation  |                                                 |
\*---------------------------------------------------------------------------*/
FoamFile
{
    version     2.0;
    format      ascii;
    arch        "LSB;label=32;scalar=64";
    class       volScalarField;
    location    "2.5";
    object      gradTx;
}
// * * * * * * * * * * * * * * * * * * * * * * * * * * * * * * * * * * * * * //

dimensions      [0 -1 0 1 0 0 0];

internalField   nonuniform List<scalar> 
5712
(
-6502.32
-8310.27
-15463.8
-22562.3
-23010.9
-39729.7
-17715.4
-45129.7
-14438
-31718.5
-21583.6
-32820.7
-19381.2
-25388.4
-8518.26
-9732.98
-14467
-16566.5
-18732.5
-18579.3
-14769.7
-18273.3
-21774.4
-19558
-5273.07
-3946.47
-6562.11
-4398.63
-12212.2
-9730.95
-20880.9
-15085.3
-16195.7
-16814.4
-17941.8
-17046.2
-6239.43
-4915.39
-38398.8
-51414
-24800.8
-30455.2
-51718.5
-67100.7
-26762.3
-30635.1
-28427.9
-40171
-24791.8
-32879.3
-14474.3
-23369.1
-2760.42
-929.014
-2910.75
-1047.78
-8339.33
-3360.62
-11463.3
-4209.88
-8128.66
-3122.98
-8690.71
-2783.57
-14834.9
-4715.3
-19149.9
-6454.27
-23570.7
-11675.6
-21577.1
-12796
-22168.8
-14336.1
-19492.5
-14692.3
-16913.5
-10040.9
-16896.9
-8583.65
-22257.3
-14262.6
-22304.3
-14403.2
-20580.3
-15569
-20828.3
-15648.5
-18274.4
-11618.2
-18930.8
-11911.4
-17250.1
-7446.09
-7945.99
-9643.2
-17322.7
-8130.42
-6910.8
-9740.24
-18274.6
-7421.17
-9023.84
-9734.9
-19184.6
-7605.48
-9825.12
-10183
-3577.87
-3903.02
-1197.97
-2322.94
-10498.9
-11090.6
-4033.5
-7101.12
-13444.3
-14968
-6419.91
-10892.5
-12248.5
-1171.58
-13410.6
-16436
-8863.57
-835.351
-7499.28
-11999.6
-19280.8
-13198.9
-9709.8
-11735.3
-10192.3
-8738.94
-13677.5
-3456.82
-2864.82
-1969.06
-1956.38
-9767.05
-8288.15
-5839.31
-5562.69
-12224.1
-10434.6
-7630.32
-6859.36
-5880.52
-7458.61
-12094.8
-12505.5
-13872
-12636
-15629.5
-13653.9
-10448.1
-8787.94
-8992.9
-9546.88
-11844.5
-9472.27
-10753.7
-7945.32
-9272.39
-6489.4
-10717.1
-7066.17
-10175
-4901.41
-8709.73
-9512.69
-12489.7
-16376.5
-13731.3
-20039
-6909.04
-7745.36
-8996.52
-3050.7
-7752.25
-14995.1
-7348.75
-16051
-13589.4
-24718.8
-13823.8
-26204.2
-5833.11
-12839.2
-5289.98
-13657.7
-8035.74
-6149.48
-11130.9
-4471.62
-8319.48
-1832.97
-9732.89
-919.019
-7704.31
-9148.51
-11653.9
-5417.05
-6359.57
-10764.3
-10300
-7088.98
-2300.43
-2041.88
-1848.39
-1648.21
-1522.43
-1374.48
-6835.21
-5682.57
-4971.91
-4359.14
-3559.81
-3122.72
-8447.34
-7367.74
-6842.41
-5260.11
-4357.82
-4146.66
-6616.63
-5930.08
-5812.11
-10967
-8474.05
-7195.06
-10247.4
-7704.33
-6316.79
-10775.9
-8629.12
-7559.41
-6578.23
-4412.13
-3480.01
-15784.7
-13829.9
-12089.5
-10070.6
-8499.14
-7151.68
-8859.48
-7000.98
-5679.57
-7370.27
-5417.25
-4239.61
-7467.47
-4216.7
-2429.62
-10259.5
-13927
-8094.68
-10488.6
-10981.3
-16165.8
-9792.26
-14294.7
-54.0835
-741.994
492.09
-106.508
-2964.74
-3368.98
-1226.58
-664.766
-700.007
-2419.15
-9343.64
-13669
-6640.98
-3613.96
-9773.99
-9698.13
-14997.5
-16513.5
590.326
4057.89
-7511.32
-7083.1
-7079
-5462.7
-1032.39
-553.809
-658.943
-260.135
-2014.1
-242.352
337.888
842.721
-9214.5
-2446.43
-6203.15
-1648.46
-8934.23
-2743.52
-10811.7
-3510.93
-8752.11
-11873
-8104.08
-11594.7
-13969.1
-14840.7
-13344
-14073.1
-5666.15
-9487.75
-6530.09
-9415.71
-8598.36
-11180.7
-9485.2
-11308.4
-13903.6
-13834.4
-14561.8
-13904.7
-5719.71
-9194.76
-6223.19
-9377.86
3.01515
-1505.34
-7599.42
-4947.28
575.094
-1087.53
-7041.73
-4384.53
-446.065
-1750.58
-7779.26
-5383.58
-902.883
-2023.41
-7836.77
-5588.17
671.578
779.082
-184.003
-40.8186
2870.79
2921.31
168.914
315.941
516.165
1925.12
-1805.58
-1173.15
10235.5
9477.22
5543.87
4202.07
332.562
10412.4
10802.9
4319.75
6360.58
708.592
-10129.7
-8027.44
-7253.38
-6920.58
-4383.23
812.052
770.301
9.68184
-109.135
2567.91
2586.13
20.0955
-255.982
2574.89
3211.85
-839.726
-1222.98
5134.91
2383.8
8219.7
5226.01
3655.13
2819.46
4105.78
3625.06
-635.381
-1661.11
-3737.74
-2365.27
-1040.99
1044.87
-1083.89
734.811
-1896.44
-527.722
-2416.92
-2790.14
-5276.45
-4852.82
-10009.7
-6070.52
-8091.99
-8195.23
-12287.8
-9986.24
-8032.78
-4801.66
-4059.96
-4063.62
-11789.2
-5247.31
-12967.8
-5882.06
-13702.7
-10192.1
-14624.2
-10915.9
-9715.95
-3938.08
-10879
-4553.92
-6548.35
-5318.33
-5303.76
-7880.54
-4305.5
-4901.85
-4561.22
-7310.37
-7526.3
-5285.62
-5978.38
-9035.37
-9085.31
-5745.77
-7384.97
-9337.44
812.675
887.371
1006.71
4.8564
308.274
351.111
2975.24
3217.83
3238.48
184.827
885.879
900.273
3743.14
4261.48
4408.08
-715.261
852.641
1178.16
1316.72
1138.6
838.685
3935.05
4064.34
3814.52
3225.4
3706.09
3669.4
3989.59
4376.54
4304.69
-1550.07
364.272
520.866
-3426.68
-1931.8
-997.328
1091.56
2301.77
2948.98
1019.23
2592.61
3281.62
407.92
2134.89
2637.12
-2601.63
531.672
910.526
24.3973
41.6233
57.3441
87.8758
274.662
160.781
137.212
137.115
-2.48055
81.4268
196.8
313.576
444.94
296.971
338.429
375.444
-252.85
30.7462
279.659
556.005
155.231
243.587
325.068
379.124
34.1972
147.899
160.981
161.536
-225.989
-5.15745
131.267
227.696
-1009.16
-206.03
117.128
348.888
-1580.77
-367.099
18.4909
593.177
-712.212
-87.4802
201.357
503.479
-1303.94
-279.782
-0.762817
521.038
-1070.46
-246.115
141.957
434.639
-1769.63
-436.492
16.7767
696.192
-1192.83
-327.263
127.852
514.797
-1905.38
-500.027
-6.18183
728.249
3.48616
23.8695
49.4551
109.719
33.8073
32.866
30.7924
100.755
59.8801
82.3651
151.304
295.27
158.448
112.21
94.3202
272.213
-445.767
-54.1053
168.157
505.827
-216.295
27.6871
126.676
481.161
-111.36
122.926
246.789
504.408
-44.7748
98.2805
109.826
485.582
-1129.86
-215.082
40.5583
677.767
84.8244
46.8256
35.8399
75.8724
168.226
69.0369
37.3005
35.2231
169.712
110.984
80.6089
196.289
427.619
183.377
94.7216
90.94
84.932
122.556
112.884
323.562
534.514
257.329
142.994
143.621
-129.858
110.227
142.325
449.404
405.057
277.288
170.58
183.13
-606.963
10.4875
82.06
434.422
91.8181
238.488
159.854
188.937
-1313.32
-131.669
71.0431
503.774
-432.502
59.626
104.475
177.95
-1025.71
-41.4552
82.7824
470.163
-272.587
139.236
137.204
191.805
-1578.92
-244.074
32.7786
546.287
-578.746
-19.799
69.0315
166.582
-1778.61
-357.056
-21.2621
539.439
-715.588
-107.683
21.9569
144.019
39.204
17.8118
9.48889
5.77158
4.28313
51.8059
27.4396
15.6199
9.74986
7.28694
93.5797
41.4852
22.0485
13.4841
10.0836
117.572
61.5611
35.0821
22.0104
16.5077
124.059
51.9647
27.275
16.6652
12.4962
158.429
81.7258
46.6817
29.451
22.1668
83.3756
41.9479
23.8536
15.0763
11.3548
58.7851
24.4782
12.7574
7.84096
5.8492
125.221
53.2692
28.4675
17.5906
13.1463
59.6617
21.7698
10.9678
6.63633
4.92398
131.921
62.0333
34.6679
21.7443
16.3469
56.2967
21.6601
11.2459
6.85781
5.08268
96.1479
34.7312
17.2158
10.3864
7.71689
56.4716
19.4343
9.59929
5.80449
4.31549
82.9609
22.0998
8.82637
4.87021
3.49142
45.779
10.4199
3.79444
2.01044
1.41526
32.6232
13.4239
6.89484
4.11061
3.02546
23.5453
10.6494
5.71768
3.45537
2.55183
79.6782
33.75
17.7766
10.7493
7.9816
60.8148
28.1015
15.3501
9.36256
6.94049
111.724
41.596
21.018
12.5315
9.27902
82.718
38.8213
21.4329
13.1186
9.79142
101.081
47.7315
26.8281
16.7591
12.6141
56.4367
29.6287
16.9043
10.4748
7.89333
52.5763
26.2717
15.0975
9.52966
7.17447
-347.514
-463.771
-789.627
-1137.86
-841.585
-1429.14
-339.231
-1176.06
298.19
-265.573
-749.338
-1227.41
128.501
53.843
-1135.87
-1784.36
-1423.44
-2027.31
-595.646
-137.875
-30.9838
-6.82823
-1.70847
-207.576
-90.7713
-12.9456
-3.39235
-1.45444
-1830.04
-421.763
-95.1056
-20.8561
-5.22506
-498.29
-132.369
-31.8446
-6.67094
-1.78004
-3079.64
-711.284
-160.802
-35.3739
-8.84207
-786.901
-223.095
-53.6248
-12.3415
-3.08174
-4143.16
-959.78
-217.837
-48.0578
-12.025
-913.1
-279.856
-69.4629
-16.1781
-4.03381
-5192.55
-1214.81
-277.594
-61.5394
-15.4601
-1003.34
-338.475
-86.5644
-20.4394
-5.15733
-6189.73
-1493.08
-345.888
-77.3136
-19.5048
-1527.69
-466.514
-114.94
-26.3287
-6.57418
-5748.14
-1381.25
-318.565
-70.9154
-17.8362
-1198.37
-397.148
-100.694
-23.5059
-5.8751
-6396.33
-1545.69
-358.789
-80.324
-20.2944
-1723.84
-510.223
-123.935
-28.0054
-6.97625
-6673.32
-1599.35
-371.8
-83.2035
-21.0102
-1785.05
-530.377
-130.023
-27.2986
-7.19695
-511.485
-6824.36
-6229.04
-2240.72
1613.75
2758.06
7696.66
11252
1718.69
8255.48
-1586.22
2578.46
2476.2
4876.15
9182.29
12993.4
13902.4
17442.6
5674.48
7348.33
-19745
-14311.6
-4868.3
-3850.45
-2773.35
-3972.98
-3672.96
-12209
-11807.4
-10038.7
-10969.3
-9125.68
-6522.63
-8451.61
-5661.81
-4793.65
-5849.51
-4016.58
-19751.6
-10360.7
-3723.09
-6329.11
-8513.94
-5969.73
-6552.92
-4888.67
-2999.72
-4246.8
-4482.52
-4839.36
-19434.9
-12800.6
-12192.7
-8836.52
-8819.19
-9228.79
-4041.28
-5346.46
-6717.52
-14212.7
-12460.6
-10664.8
-10096.1
-8918.07
-9342.21
-6451.97
-5093.92
-4000.85
-2107.87
-4303.34
-3574.15
-2683.43
-1675.06
-573.737
-3441.14
-2883.3
-2171.56
-1350.44
-458.907
-2464.53
-2050.17
-1531.98
-946.217
-320.184
-3554.29
-2978.46
-2240.09
-1389.38
-470.907
-3262.34
-2715.23
-2033.14
-1259.82
-427.559
-7911.71
-6139.37
-4913.08
-4684.31
-5199.53
-6498.72
-4838.39
-3514.61
-2982.04
-2118.05
-6277.04
-3778
-2653.03
-1889.82
-929.477
-5653.41
-3839.81
-2589.11
-1922.2
-1153.35
-4266.11
-2675.23
-1682.04
-1187.01
-590.3
-5169.61
-3868.85
-2681.27
-1609.72
-556.335
-5751.98
-3691.44
-2424.13
-1464.62
-554.422
-3714.59
-2212.02
-1324.9
-719.423
-244.309
-3953.91
-3055.96
-2156.17
-1293.18
-437.302
-4672.56
-3491.02
-2383.84
-1391.66
-463.126
-3347.62
-2607.56
-1843.82
-1100.57
-368.345
-13164.9
-10156
-8360.31
-7633.03
-7477.56
-7655.98
-5576.87
-4124.01
-2842.78
-1303.59
-3102.58
-2432.54
-1747.64
-1069.84
-369.99
-5369.92
-4301.17
-3161.3
-1976.73
-696.546
-6996.26
-5516.26
-4087.02
-2652.76
-1013.88
-5090.7
-4113.63
-3061.69
-1941.87
-692.485
-5682.44
-4652.51
-3479.8
-2193.75
-768.298
-4259.3
-3488
-2592.6
-1613.39
-554.716
-2588.36
-2087.49
-1519.54
-923.75
-311.102
-3741.5
-3086.25
-2292.33
-1412.79
-478.548
-3817.1
-3045.86
-2207.38
-1346.68
-458.108
-4195.59
-3414.06
-2519.41
-1557.36
-533.09
-13636
-11441.8
-9729.2
-8884.14
-7968.25
-8931.17
-6443.1
-5033.99
-3807.87
-1984.6
-9049.78
-7229.95
-5584.97
-4209.18
-2087.86
-6976.15
-5323.73
-4047.01
-2791.31
-1154.84
-7378.12
-5926.16
-4455.79
-2915.4
-1105.36
-7227.31
-5470.47
-4131.43
-2837.21
-1160.09
-3474.96
-2816.76
-2086.71
-1306.64
-456.292
-4715.93
-3901.23
-2912.22
-1806.07
-614.933
-5790.63
-4709.16
-3501.58
-2198.74
-767.908
-5469.38
-11123.6
-11616.8
-31758
-11470.5
-42566.8
-6248.2
-15141.8
-11484.1
-8877.13
-19034.6
-15884.6
-11479.6
-10827.3
-21385.9
-16962.4
-4022.53
-2985.42
-7770.82
-5333.41
-9017.83
-6792.08
-24150.4
-17826.1
-14872.6
-11306.8
-15280.5
-9093.38
-1178.51
-3670.38
-39611.7
-51903.5
-23969.2
-30308.5
-52419.3
-67380.7
-25848
-30413.8
-29488.8
-40714.7
-24037.8
-32819.6
-15909.3
-24045.9
-1916.16
-504.648
-3360.89
-1146.03
-6517.99
-2904.8
-13210.5
-4766.52
-2873.39
-1626.38
-7183.44
-2256.01
-14860.5
-4664.84
-19324
-6503
-16256
-8410.32
-18697.3
-11122.4
-14859
-10625.4
-16639.6
-12914.3
-14893.3
-8715.1
-11797.9
-6080.39
-21142.3
-13506.5
-22025.1
-14196
-19445.2
-14796
-20525.1
-15437.9
-17528.3
-11003.3
-18753.7
-11741.3
-16276.5
-7171.78
-7077.47
-9314.89
-14571.4
-7327.37
-5294.58
-9141.92
-18010.9
-7352.05
-8618.46
-9573.09
-19152.2
-7599.85
-9710.57
-10135.6
-1103.08
-989.597
-265.712
-1166.72
-4479.7
-4625.07
-2793.89
-5527.1
-2497.77
-3114.41
-4331.01
-8178.46
-11979.7
-9649.01
-9225.92
-11483.8
-7539.97
-7608
-8113.57
-6780.11
-13287.1
-11472.1
-11396.9
-9502.73
-6568.19
-5617.92
-12333.6
-1066.43
-800.843
-593.408
-665.36
-4162.2
-3310.09
-3514.71
-3097.2
-591.598
519.199
-4150.26
-3258.82
-10122.4
-10753.7
-9448.89
-8646.8
-6989.11
-5078.85
-9128.33
-7277.35
-8120.75
-6362.53
-11495.2
-11722
-9804.73
-7702.43
-7231.73
-4939.25
-6355.86
-4045.87
-9455.27
-5767.27
-9232.88
-5083.98
-8228.22
-9394.36
-12989
-17298.2
-13698.1
-20005.6
-6283.76
-7486.5
-7634.04
-2899.17
-7578.07
-14846.4
-7307.8
-15995.1
-13528.6
-24812.7
-13800.7
-26184
-5597.72
-12656.6
-5234.07
-13601.8
-7569.2
-5981.07
-10935.7
-4446.58
-7299.91
-1815.67
-9413.26
-1242.81
-7517.98
-9031.51
-11565.3
-5392.32
-6310.51
-10726.4
-10276.2
-7075
-790.542
-735.184
-534.176
-617.319
-2525.57
-1846.1
-2280.55
-2074.52
1077.05
599.439
-2673.68
-2972.89
-10649.7
-10117.1
-7653.94
-6624.96
-4036.71
-3411.41
-5707.12
-4715.55
-5348.58
-3909.93
-18239.3
-16005.7
-7926.59
-6778.68
-5987.69
-4587.63
-4929.42
-3193.17
-5233.77
-2297.91
-5586.21
-9185.15
-4897.37
-9285.21
-8247.6
-10324.3
-9243.42
-12601.9
-997.279
-733.261
-783.17
-671.599
-3639.77
-2621.69
-2988.51
-1707.21
-1440.82
-1714.26
-8334.24
-8962.58
-4697.47
-4245.32
-9276.83
-9589.01
-14190.8
-16289.9
324.084
3853.7
-7356.58
-7118.01
-6999.04
-5519.88
-1085.16
-987.722
-1175.29
-972.621
-1784.86
-1242.86
-659.352
-570.105
-8159.66
-3857.04
-6931.92
-3237.37
-9253.39
-3698.85
-10950.9
-3903.23
-5424.46
-10262.8
-6999.48
-10742.6
-8629.24
-11595.2
-11295.8
-12568.1
-5295.58
-9314.07
-4808.53
-9274.75
-8157.57
-10834.9
-9356.44
-11217.7
-13046.9
-13207.3
-14318.2
-13735.2
-5652.82
-9155.49
-6218.58
-9377.56
-634.508
-2369.94
-8047.17
-5631.79
-615.69
-2452.88
-7970.01
-5392.79
-924.164
-2360.66
-8031.21
-5804.51
-1100.62
-2269.59
-7912.81
-5733.58
-1089.69
-1200.56
-1028.83
-1121.51
-2140.82
-2199.88
-1498.39
-1638.65
-8450.2
-7805.18
-4043.23
-4105.02
-3792.6
-5238.25
-4116.39
-404.959
-1956.81
-1343.17
-1429.74
-3630.75
2579.17
-1016.31
-13707.5
-11738.3
-10719.9
-9429.77
-6050.53
-1210.48
-1097.81
-1271.69
-1599.7
-2187.29
-1723.93
-2112.32
-2813.21
-8174.61
-8097.46
-4551.65
-5921.28
-5052.33
-6711.6
-3204.87
-5134.21
-4915.31
-5365.21
-1262.87
-1624.99
-3124.03
-4645.82
-9655.53
-7950.84
-7681.1
-5659.95
-6794.98
-4872.07
-6134.82
-4516.46
-4657.04
-5156
-8422.44
-8336.71
-11323.2
-7336.2
-10420.2
-11206.3
-13042.3
-10993.8
-9619.44
-6033.96
-7108.23
-7119.99
-12310.9
-6037.48
-13103.9
-6075.22
-13916.3
-10847.6
-14667.7
-11057.5
-10451.7
-4713.69
-11087.4
-4761.51
-8064.17
-6443.18
-6656.92
-9153.78
-6908.07
-7378.99
-6509.27
-9370.72
-8322.53
-6023.09
-6750.31
-9849.83
-9334.83
-5978.55
-7635.25
-9571.3
-893.349
-767.751
-1157.55
-842.386
-1462.89
-1727.21
-1718.81
-1240.78
-7937.06
-6948.1
-3981.54
-1766.64
-7886.59
-7492.4
-6181.6
-5561.57
-5205.74
-4456.36
-1932.88
-1969.47
-4430.39
-1982.28
-8647.82
-7415.54
-4929.68
-3888.45
-3876.15
-2405.17
-2920.46
-1244.28
-4627.28
-118.89
-247.575
-114.627
-39.4112
25.467
-233.561
-147.743
-56.0299
11.3915
-668.708
-298.385
-16.0591
188.459
-605.675
-353.891
-59.4421
116.512
-1092.93
-441.168
25.0559
431.682
-1079.2
-534.925
-187.87
14.1904
-740.103
-360.472
-178.045
-57.6635
-566.428
-236.113
-23.9047
124.145
-1631.68
-576.58
-131.202
162.128
-1946.48
-555.907
-88.9154
569.503
-1568.21
-555.119
-90.2011
293.427
-1768.47
-500.544
-117.362
521.036
-1523.34
-530.604
-39.9507
324.42
-2016.6
-572.467
-69.191
660.794
-1378.95
-448.321
49.0487
465.658
-1995.83
-552.044
-39.5792
714.762
-229.75
-93.8842
-14.3657
79.1387
-198.026
-71.6594
-28.4882
76.0959
-592.634
-245.554
-24.238
203.503
-497.872
-189.007
-76.056
196.305
-1170.38
-409.269
-9.66454
443.137
-1064.46
-357.059
-85.2852
407.265
-1299.46
-485.895
-95.0162
325.153
-982.991
-339.029
-115.964
454.612
-1783.1
-500.3
-102.011
717.683
-142.531
-53.6693
-16.5591
49.0486
-64.6173
-37.608
-17.7926
-0.348931
-429.756
-155.172
-66.2094
118.026
-214.524
-112.545
-61.686
-9.47585
-763.671
-258.126
-100.463
213.475
-439.34
-197.497
-97.0893
-8.61896
-1162.53
-372.041
-128.257
322.253
-772.891
-291.451
-129.262
-3.16047
-1533.64
-446.948
-195.848
277.766
-1045.82
-352.775
-168.88
-24.5889
-2054.54
-579.783
-208.832
347.156
-1040.15
-327.783
-137.929
15.0852
-1978.72
-569.176
-239.371
289.888
-1149.19
-365.295
-162.371
-10.6743
-2029.29
-530.592
-149.602
447.079
-933.047
-263.659
-85.3999
67.4422
-1926.64
-453.996
-83.6798
505.403
-826.902
-187.236
-28.9752
111.608
-7.71542
-12.2741
-8.96876
-6.13662
-4.74299
-31.9529
-23.8082
-15.4525
-10.241
-7.85718
-15.3692
-27.9919
-20.4879
-13.9435
-10.7031
-69.0557
-52.6843
-34.2261
-22.5958
-17.2905
-9.6494
-33.6845
-25.1272
-17.1179
-13.1075
-90.0485
-69.2848
-44.7516
-29.3728
-22.404
-43.6288
-34.7261
-22.5306
-14.7667
-11.2608
-6.37658
-14.9355
-11.1263
-7.54897
-5.83515
-21.5004
-36.548
-26.0113
-17.4739
-13.4263
4.75311
-12.3434
-9.77763
-6.72269
-5.20121
-54.8119
-50.1905
-32.9878
-21.7248
-16.5776
-2.12508
-14.1644
-10.4557
-7.10022
-5.49163
11.4896
-17.6562
-14.6652
-10.1587
-7.86409
8.65408
-9.93306
-8.21533
-5.66621
-4.38455
44.2265
-1.9648
-5.87973
-4.65151
-3.77636
29.7459
0.390373
-2.3423
-1.96892
-1.63077
-0.80791
-8.63783
-6.67179
-4.64126
-3.60709
-7.37376
-8.4585
-5.83762
-3.96614
-3.06636
-11.5227
-24.2982
-17.5755
-11.9998
-9.24861
-25.4497
-24.0108
-15.9793
-10.7297
-8.26477
7.7522
-26.3278
-20.5103
-14.2186
-10.9877
-41.7985
-35.0117
-22.7782
-15.2161
-11.65
-50.2238
-41.6918
-26.7702
-17.6185
-13.4102
-46.1354
-29.3253
-18.1876
-11.9897
-9.10253
-34.8767
-24.1291
-14.9846
-9.75036
-7.4198
-64.7042
-202.577
-120.968
-517.755
-72.838
-716.179
205.629
-651.007
467.487
-116.654
-771.027
-1252.3
83.2496
-82.4439
-1148.7
-1789.93
-1427.31
-2028.06
-576.538
-136.014
-30.7462
-6.79142
-1.70064
-154.906
-84.1567
-11.7615
-3.22156
-1.43504
-1781.99
-416.877
-94.4724
-20.755
-5.20322
-372.836
-113.148
-28.9039
-6.21909
-1.70483
-3005.95
-702.737
-159.586
-35.1723
-8.79847
-644.788
-200.617
-50.0692
-11.784
-2.98364
-4056.93
-947.881
-215.926
-47.72
-11.9514
-811.472
-262.058
-66.4157
-15.6631
-3.93744
-5118
-1201.99
-275.23
-61.0887
-15.359
-969.803
-329.264
-84.6096
-20.0617
-5.08003
-6158.06
-1485.02
-344.037
-76.9159
-19.4096
-1530.55
-465.853
-114.614
-26.2389
-6.55048
-5702.11
-1370.31
-316.223
-70.4355
-17.7255
-1202.24
-394.189
-99.7411
-23.285
-5.82505
-6377.16
-1540.72
-357.608
-80.0643
-20.231
-1724.23
-509.928
-123.806
-27.9709
-6.96703
-6666.88
-1597.68
-371.397
-83.1134
-20.9881
-1784.93
-530.268
-129.985
-27.2915
-7.19477
-534.056
-6752.02
-5982.71
-2201.89
-1560.58
-936.785
-3675.23
-2690.16
-6327.5
-5918.4
-3007.25
-2272.04
-411.927
-628.619
-1074.4
-1735.74
-2584.36
-3533.73
-296.537
-634.569
-1315.13
-2278.61
-3409.78
-4541.58
-313.802
-144.659
-537.038
-368.037
-985.403
-819.986
-1636.62
-1523.33
-2337.51
-2254.45
-3036.05
-2752.28
-4338.94
-4854.88
-5230.27
-7705.4
-8566
-9400.74
-5462.07
-5955.48
-5878.68
-5323.85
-4526.7
-3936.66
-372.226
-315.437
-239.661
-149.665
-50.879
-567.693
-480.75
-365.016
-227.834
-77.4331
-969.599
-820.462
-622.505
-388.365
-131.964
-1564.87
-1322.75
-1002.68
-625.194
-212.39
-2326.31
-1963.21
-1486.3
-926.15
-314.584
-3172.51
-2670.49
-2018.25
-1256.94
-427.043
-267.836
-226.877
-172.304
-107.566
-36.5589
-572.796
-484.826
-367.94
-229.583
-78.014
-1186.32
-1003.4
-761.022
-474.68
-161.28
-2053.35
-1734.88
-1314.71
-819.676
-278.465
-3067.81
-2587.92
-1958.92
-1220.77
-414.733
-4076.15
-3430.67
-2593.19
-1615.67
-549.132
-283.656
-240.438
-182.718
-114.127
-38.806
-130.767
-110.846
-84.2368
-52.6144
-17.8904
-485.16
-410.992
-312.143
-194.874
-66.2421
-332.525
-281.732
-213.999
-133.611
-45.4188
-889.651
-753.125
-571.615
-356.696
-121.218
-740.435
-626.927
-475.904
-296.993
-100.93
-1476.13
-1248.25
-946.48
-590.214
-200.508
-1374.07
-1161.99
-881.038
-549.347
-186.607
-2104.99
-1777.01
-1345.43
-838.221
-284.653
-2030.1
-1713.48
-1296.85
-807.587
-274.155
-2726.02
-2294.26
-1732.9
-1078.32
-366.097
-2470.63
-2078.02
-1567.84
-974.32
-330.461
-3877.85
-3251.21
-2451.97
-1527.55
-519.842
-4303.52
-3584.77
-2697.58
-1685.54
-577.047
-4564.84
-3761.82
-2827.08
-1784.21
-622.175
-6520.43
-5282.55
-3987.85
-2594.2
-958.631
-6855.08
-5412.88
-4134.78
-2845.48
-1187.59
-7203.23
-5587.89
-4308.54
-3089.86
-1400.49
-4884.13
-4097.53
-3092.48
-1927.69
-656.146
-5294.94
-4422.19
-3332.66
-2081.76
-711.309
-5178.83
-4297.13
-3235.43
-2032.12
-700.763
-4614.32
-3790.36
-2856.15
-1818.07
-641.688
-3797.19
-3063.98
-2319.46
-1522.38
-569.595
-3184.03
-2520.64
-1919.29
-1303.73
-519.561
-433.826
-695.571
-1189.99
-1905.08
-2815.31
-3814.08
-327.374
-728.7
-1475.45
-2504.47
-3687.47
-4833.14
-334.912
-162.875
-601.856
-425.048
-1098.74
-923.116
-1806.75
-1683.66
-2583.33
-2529.78
-3352
-3166.2
-4629.32
-5123.61
-5476.26
-7853.76
-8631.02
-9420.84
-5709.14
-6102.09
-5903.56
-5249.69
-4422.64
-3889.27
-392.126
-332.42
-252.659
-157.831
-53.6643
-628.583
-532.758
-404.86
-252.886
-85.9826
-1074.88
-910.558
-691.67
-431.926
-146.843
-1719.52
-1455.55
-1104.99
-689.82
-234.501
-2538.1
-2145.98
-1627.84
-1015.93
-345.378
-3431.5
-2895.96
-2194.42
-1369.51
-465.815
-295.86
-250.783
-190.593
-119.053
-40.477
-658.376
-557.899
-423.902
-264.759
-90.0161
-1332.33
-1128.33
-856.914
-535.068
-181.906
-2259.61
-1911.98
-1451.14
-905.851
-307.949
-3322.5
-2807.74
-2129.18
-1328.8
-451.789
-4345.45
-3665.09
-2776.36
-1732.73
-589.456
-302.818
-256.774
-195.209
-121.968
-41.4792
-147.295
-124.924
-94.9911
-59.3604
-20.1899
-544.066
-461.261
-350.619
-219.048
-74.4887
-384.301
-325.882
-247.762
-154.809
-52.6471
-992.814
-841.345
-639.287
-399.289
-135.761
-834.288
-707.163
-537.433
-335.71
-114.148
-1631.5
-1381.65
-1049.23
-655.109
-222.709
-1520.66
-1288.05
-978.295
-610.85
-207.662
-2330.37
-1971.45
-1495.96
-933.681
-317.387
-2282.75
-1931.66
-1465.93
-914.897
-310.971
-3017.93
-2548.43
-1931.5
-1205.2
-409.783
-2852.36
-2409.65
-1826.4
-1139.21
-387.178
-4149.64
-3491.38
-2642.47
-1650.78
-562.605
-4561.03
-3818.16
-2887.28
-1810.78
-621.095
-4809.77
-3992.15
-3020.77
-1915.87
-669.573
-6693.6
-5465.78
-4157.98
-2720.47
-1008.22
-6955
-5530.5
-4253.72
-2942.61
-1231.31
-7240.35
-5633.2
-4355.94
-3130.35
-1419.74
-5115.47
-4302.09
-3254.87
-2032.84
-692.657
-5437.3
-4553.12
-3440.6
-2153.83
-736.818
-5212.19
-4336.44
-3274.45
-2061.77
-712.12
-4558.42
-3753.65
-2837.3
-1812.03
-641.353
-3712.56
-3000.24
-2278.11
-1501.87
-564.768
-3145.08
-2490.6
-1899.21
-1293.47
-517.101
-19682
-14366.8
-5245.21
-4260.41
-3240.2
-4563.44
-4162.05
-12961.1
-14622.7
-11581.5
-13367.5
-8000.88
-11356.4
-6137.67
-6400.4
-4689.76
-20415.4
-11351.3
-4418.2
-7229.88
-9367.69
-6474.21
-7211.17
-5467.13
-3373.88
-4905.28
-5398.75
-5546.16
-19314.8
-12996.3
-12838.8
-9227.8
-9258.95
-9754.78
-4713.96
-5988.01
-7348.48
-14228.9
-12539.2
-10785.5
-10261.5
-9075.14
-9437.94
-6552.24
-5191.98
-4083.42
-2144.31
-4666.66
-3905.31
-2953.84
-1854.15
-636.841
-3824.03
-3220.81
-2438.5
-1522.67
-518.554
-2905.34
-2443.38
-1846.43
-1150.76
-391.33
-4103.96
-3461.24
-2620.62
-1634.17
-555.519
-3725.89
-3130.19
-2365.93
-1476.7
-503.074
-9613.97
-8125.42
-6832.96
-6310.53
-6398.66
-11012.8
-9627.87
-7906.36
-6407.89
-3851.28
-8390.25
-5936.16
-4529.83
-3208.96
-1416.07
-10029.4
-8379.12
-6646.18
-4934.79
-2408.06
-6790.72
-5472.44
-4061.42
-2552.11
-893.128
-8945.95
-6699.45
-4930.18
-3155.91
-1163.48
-5333.79
-4370.28
-3260.09
-2036.69
-701.487
-5541.1
-4526.78
-3371.98
-2107.3
-726.88
-4109.73
-3387.72
-2531.43
-1576.94
-539.722
-14532
-11801.6
-10010.8
-9069.77
-8507.37
-8879.35
-6854.15
-5272.1
-3673.96
-1638.04
-3831.68
-3140.84
-2352.28
-1481.62
-517.413
-6294.36
-5188.39
-3914.78
-2490.21
-881.594
-7936.26
-6461.35
-4919.11
-3240.2
-1236.21
-5617.68
-4627.64
-3505.15
-2248.83
-804.842
-6331.64
-5256.74
-3982.41
-2532.06
-889.286
-4830.97
-4020.99
-3035.61
-1910.31
-660.08
-2988.33
-2485.73
-1866.6
-1162.92
-396.876
-4377.35
-3666.56
-2765.92
-1725.54
-588.292
-4742.51
-3921.57
-2941.35
-1840.3
-633.241
-4898.92
-4073.19
-3068.82
-1925.86
-663.759
-13776.5
-11743.3
-10133.9
-9351.72
-8442.53
-9225.38
-6754.1
-5332.64
-4050.18
-2095.37
-9983.44
-8232.36
-6540.27
-4961.3
-2433.44
-7438.14
-5806.42
-4489.28
-3120.33
-1284.04
-7874.45
-6437.87
-4918.22
-3250.51
-1235.32
-7859.46
-6121.26
-4727.54
-3278.04
-1336
-4136.1
-3429.39
-2593.32
-1645.37
-576.642
-5334.08
-4464.15
-3370.85
-2108.69
-721.121
-6433.21
-5324.11
-4024.08
-2555.39
-896.37
-495.814
-1406.73
-2227.42
-2996.22
-3723.56
-4401.56
-2584.16
-6947.64
-6616.67
-2535.59
-8844.05
-7415.46
-8867.66
-9827.02
-2339.43
-1511.29
-5433.28
-3154.96
-10364.5
-7332.19
211.952
-2099.16
-5798.74
-5447.84
-2045.69
-7537.14
-6063.59
-7452.45
-8402.52
-1937.63
-896.34
-4666.76
-1659.94
-8612.71
-4402.43
1494.06
-1537.92
-4423.25
-4146.4
-1504.79
-5973.36
-3668.58
-6067.7
-6735.16
-1464.73
-815.576
-3314.45
-1723.19
-6900.79
-1785.69
1630.07
-1137.54
-3437.01
-3291.79
-1154.67
-4592.13
-2257.63
-5062.72
-5969.38
-1106.05
-855.783
-2433.63
-1738.97
-6093.87
-394.346
1224.93
-923.062
-2925.15
-2847.95
-977.993
-3707.6
-1881.39
-4556.6
-5804.85
-878.947
-930.418
-1759.35
-1668.86
-5329.4
-176.548
123.927
-817.776
-2619.41
-2622.45
-888.551
-3442.23
-2134.41
-4231.2
-5555.3
-681.871
-730.223
-1462.29
-1636.12
-5243.17
-953.826
-465.254
-1386.47
-3396.28
-4913.43
-1898.26
-5504.88
-9604.6
-7215.68
-10408.4
-1022.17
-735.288
-3908.51
-2450.14
-1236.21
-9276.39
-4866.38
-1294.5
-3178.1
-4333.99
-1655.77
-5109
-8716.34
-6539.29
-8902.63
-1050.23
-657.592
-4065.33
-2334.93
-415.566
-9134.48
-3701.39
-1146.82
-2824.99
-3578.34
-1340.75
-4683.46
-7859.37
-5605.59
-7894.23
-941.798
-757.389
-3513.52
-2450.8
-621.533
-7452.79
-3569.51
-1001.93
-2568.87
-2999.09
-1100.37
-4404.95
-7204.24
-5032.33
-7225.08
-874.306
-774.128
-3285.93
-2576.45
-406.377
-6971.76
-3639.66
-913.002
-2326.8
-2683.7
-970.621
-4028.83
-6663.35
-4622.21
-6904.15
-825.798
-834.004
-3013.4
-2800.37
-535.596
-6741.32
-3741
-852.172
-2086.57
-2500.23
-897.808
-3733.74
-6596.03
-4312.48
-6696.48
-859.42
-961.682
-2696.29
-2666.88
-782.064
-6914.59
-4146.3
5912.47
7464.85
15499.1
22636.9
23041.2
39715.4
17723.8
45132.7
14450.8
31724.3
21627.6
32823
19395.1
25468.1
7324.29
8299.75
14479.4
16569.4
18727.7
18577
14771.2
18271.2
21771.7
19555.1
4863.03
3673.8
5970.74
4016.39
12213.8
9703.79
20928.9
15106.6
16173.2
16819
17934.1
17047.1
6238.22
4895.04
38404.1
51420.7
24801.5
30457.1
51725
67108.4
26762.1
30636.1
28431.8
40176.8
24791.4
32882
14479.8
23374.3
2604.95
891.282
2676.04
974.174
8311.46
3347.6
11467.5
4210.76
8123.58
3119.94
8678.61
2778.88
14835.7
4715.31
19152.6
6455.17
23570.4
11674.6
21575.6
12794.8
22166.2
14334
19490
14690.4
16911.1
10039.8
16896.3
8582.66
22256.8
14261.8
22304.3
14402.4
20579
15567.5
20827.5
15647.4
18274
11617.5
18931.2
11910.9
17246.7
7444.94
7944.82
9643.07
17320.2
8129.31
6909.47
9739.95
18274.5
7421.2
9023.33
9735.03
19185.8
7605.97
9824.9
10183.3
3362.68
3628.07
1149.93
2183.18
10451.5
11050
4011.73
7069.38
13436.1
14959.5
6416.18
10886.4
12248.6
1172.44
13409.8
16432.8
8862.16
836.275
7499.56
11998.9
19277.1
13196.7
9708.49
11734.3
10191.1
8736.96
13676.8
3156.93
2589.53
1779.27
1790.99
9788.55
8307.08
5888.99
5593.57
12217.4
10431.9
7627.7
6858.79
5880.71
7458.55
12094.7
12505.3
13871
12635.1
15626.2
13652.2
10447
8787.85
8992.3
9546.61
11843.9
9472.07
10752.8
7944.94
9271.08
6488.85
10716.9
7066.3
10174.5
4901.34
8708.93
9512.46
12488.6
16375.9
13730
20038.2
6908.46
7745.31
8995.97
3050.67
7751.51
14994.9
7348.04
16050.8
13588.3
24718.1
13822.8
26203.5
5832.63
12839.3
5289.53
13657.7
8035.51
6149.57
11131.2
4471.83
8319
1833.01
9733.11
919.283
7704.24
9148.69
11654.3
5417.27
6359.47
10764.5
10300.4
7089.26
2047.48
1831.19
1682.82
1508.42
1402.9
1278.48
6860.27
5691.7
4971.75
4386.69
3572.32
3125.97
8447.41
7368.55
6843.16
5261.2
4360.19
4149.07
6616.65
5930.24
5812.31
10966.9
8474.25
7195.32
10247.2
7704.58
6317.17
10775.7
8629.74
7560.2
6578.72
4413.25
3481.27
15784.5
13830.1
12089.9
10070.4
8499.2
7151.9
8859.33
7001.09
5679.86
7370.14
5417.43
4239.96
7467.58
4217.01
2430.06
10234.4
13911.1
8067.28
10474.8
10969.5
16156.9
9778.15
14286.8
90.9743
646.713
-411.383
63.8444
2964.3
3441.63
1227.83
743.516
675.342
2394.06
9327.72
13649.2
6623.86
3601.23
9766.97
9695.04
14993.3
16511.6
-596.078
-4059.74
7502.16
7078.85
7073.71
5460.69
902.379
503.593
556.272
223.393
2069
253.407
-277.582
-825.859
9203.76
2444.91
6196.82
1648.56
8927.7
2741.97
10808.3
3509.86
8742.45
11868.1
8096.49
11590.7
13962.5
14836.8
13338.9
14070
5659.26
9484.07
6521.61
9411.3
8593.73
11178
9482.68
11306.6
13900.3
13832.3
14559.9
13903.1
5715.42
9192.14
6220.93
9376.11
-6.69941
1504.84
7596.77
4946.27
-579.411
1086.82
7038.83
4383.49
443.247
1749.88
7777.2
5382.65
901.385
2022.93
7835.35
5587.46
-637.529
-735.392
168.661
30.1977
-2846.51
-2894.99
-165.067
-305.267
-514.864
-1923.75
1805.11
1172.81
-10235.4
-9476.43
-5544.17
-4202.27
-332.72
-10411.3
-10801.7
-4319.7
-6359.43
-708.564
10127.7
8024.44
7250.4
6918.21
4382.23
-778.599
-733.956
-33.6352
77.8899
-2537.53
-2559.3
4.17958
278.476
-2573.45
-3209.5
839.404
1222.32
-5134.7
-2383.82
-8219.43
-5225.97
-3655.44
-2819.55
-4105.3
-3624.3
635.072
1660.62
3736.8
2364.92
1039.64
-1045.26
1082.69
-735.104
1895.64
527.554
2416.38
2789.67
5274.35
4851.83
10007.5
6069.38
8090.33
8194.37
12286
9985.2
8030.76
4800.65
4058.1
4062.71
11787.4
5246.32
12966.4
5881.25
13701.2
10191.1
14623
10915
9714.28
3937.22
10877.7
4553.22
6546.84
5317.44
5302.85
7879.64
4304.08
4901.02
4560.36
7309.48
7525.02
5284.8
5977.55
9034.46
9084.23
5745.09
7384.22
9336.65
-776.642
-828.226
-937.354
-32.7015
-304.997
-341.313
-2946.3
-3201.64
-3227.18
-157.417
-871.094
-890.074
-3740.21
-4258.77
-4406.16
713.987
-852.15
-1177.79
-1316.68
-1138.48
-838.565
-3934.99
-4064.13
-3814.31
-3225.21
-3705.72
-3669.04
-3988.55
-4375.27
-4303.59
1549.41
-364.237
-520.697
3426.46
1931.87
997.515
-1091.7
-2301.61
-2948.73
-1019.28
-2592.35
-3281.28
-407.845
-2134.5
-2636.67
2601.15
-531.701
-910.45
-19.9859
-36.8623
-51.598
-78.9304
-256.037
-149.028
-126.963
-126.16
2.95396
-81.1674
-197.017
-314.988
-440.173
-295.151
-337.125
-374.59
252.825
-30.7398
-279.6
-555.838
-154.638
-243.391
-325.008
-379.053
-34.2214
-147.882
-160.964