/*--------------------------------*- C++ -*----------------------------------*\
| =========                 |                                                 |
| \\      /  F ield         | OpenFOAM: The Open Source CFD Toolbox           |
|  \\    /   O peration     | Version:  2306                                  |
|   \\  /    A nd           | Website:  www.openfoam.com                      |
|    \\/     M anipulation  |                                                 |
\*---------------------------------------------------------------------------*/
FoamFile
{
    version     2.0;
    format      ascii;
    arch        "LSB;label=32;scalar=64";
    class       volScalarField;
    location    "2.5";
    object      gradTz;
}
// * * * * * * * * * * * * * * * * * * * * * * * * * * * * * * * * * * * * * //

dimensions      [0 -1 0 1 0 0 0];

internalField   nonuniform List<scalar> 
5712
(
7106.86
23359.9
5635.52
23958.8
4237.63
24804.2
6704.24
38310.5
8243
52692.7
8173.13
38335.8
7875.25
31790.7
8183.99
28389.3
4951.2
3046.21
13234.4
7831.16
4859.65
2616.39
14521.7
7205.54
5394.61
3885.93
17310.1
12119.5
4078.08
2911.08
17030
12315.8
9559.34
4038.35
8237.33
3659.87
3771.94
8892.28
33222.1
9015.39
11882
4035.09
42871.4
11658.1
11159.7
3880.12
23675.5
7353.84
12140.8
4244.16
20539.1
6537.7
5627.56
2790.09
8452.34
3279.29
6085.44
3293.75
8250.9
3150.24
7768.77
4418.46
7109.02
3072.44
10586.9
3792.34
3647.03
1269.36
11959.8
8247.97
7422.94
5406.68
13503.1
11099.2
7386.07
6392.97
6984.35
4681.17
9781
6485.29
4907.43
3597.34
2511.21
2055.24
4775.03
4125.64
2492.8
2400.48
4679.55
3046.92
2412.19
1537.83
6206.01
3362.76
4618.97
5610.57
8441.11
6000.34
6648.87
9562.55
4125.97
1946.97
2733.46
3223.45
2059.15
850.719
1185.01
1196.1
7318.09
13147.1
4981.77
14701.3
8613.13
12890.8
6143.04
15429.8
9830.65
11704
7947.31
15121.3
11891.9
14365.2
8788.23
8419.35
9253.12
14332.7
13056
12659.2
12893.1
18695.8
11643.6
8818.63
7526.93
8411.8
13300.2
15172.6
13496.5
17622.2
16864.8
13892.1
12831.7
17430.3
16534.7
12035
11693.2
16384.2
15961.6
10433.6
8142.73
9532.2
8231.94
10314
9109.9
11003.1
10461.6
15149
15393.1
9763.17
8389.53
9173.64
8677.89
9360.67
9769.51
10487.8
11626.8
13704.8
15680.8
8021.88
6288.93
5529.89
7067.41
10973.1
13424.7
7628.51
12104.9
4638.03
6135.6
6881.34
5656.25
1316.37
4699.26
697.967
1693.93
3904.47
8158.49
1454.03
2836.71
589.678
3952.11
345.325
1386.36
4533.97
4611.55
5150.4
3167.99
7155.81
5694.37
8417.04
5755.44
1022.22
2523.15
2548.85
1428.24
1433.49
1868.91
2038.51
1535.94
10694.9
6472.18
2025.16
12127.9
6929.71
2263.22
10253.2
6403.94
2150.67
11955
6941.85
2261.38
9436.57
5875.7
1924.85
11688
6987.32
2329.88
5259.66
2803.25
743.646
6626.02
4344.61
1511.63
7827.44
5396.19
1858.97
9002.89
5802.11
1921.3
11593.4
7193.45
2515.94
6282.62
3485.8
1090.44
6176.86
4428.65
1664.96
7267.32
5364.75
1962.06
9097.53
6368.27
2268.77
11716.5
7267.24
2569.47
296.571
1999.18
2818.23
4080.89
2141.96
2470.44
5390.03
5126.16
600.314
1039.64
641.089
1083.23
486.918
1418.03
870.027
1861.08
3220.65
1577.67
4077.91
2357.05
2180.08
3800.04
3389.03
966.052
5995.61
1490.67
-1847.94
769.081
1813.77
1370.5
1269.45
1196.45
9906.84
4638.35
2712.28
1715.45
10063.8
4827.18
3403.6
2164.57
9942.14
5203.02
4949.11
3536.5
3538.7
2586.35
1788.06
1724.79
12561.9
11186
5926.15
6161.83
13379.3
12571.4
6606.09
6672.92
5335.62
5506.57
10906.5
9152.59
3554.49
3719.99
2015.75
2276.39
4085.67
4063.48
2270.27
2424.02
3145.06
3388.09
1794.94
2180.93
4819.9
3460.46
4838.79
3540.78
7488.48
4578.38
7187.45
4898.34
2927.27
2507.29
3070.16
2295.64
1668.07
1587.25
1959.17
1349.45
11844.2
8487.44
6130.08
6387.73
11795.8
8662.85
6170.04
6357.48
12216.2
8938.18
6258.9
6167.75
13784.1
14712.9
12714.6
8658.71
5106.42
13944.4
13098.4
12368.5
10422.2
7025.96
13076.4
11964.6
9705.87
7630.67
4970.27
7427.49
6772.92
7071.57
8265.52
7597.07
6605.24
7114.47
8128.34
7821.39
6463.05
7142.59
7966.34
10528.7
7419.76
9999.09
7000.31
8053.54
6593.5
7717.63
6737.88
6603.68
7852.73
8739.61
7581.85
7866.37
6912.43
6869.58
6310.6
6250.83
6330.02
5230.08
7483.53
7030.9
4765.08
4677.09
2782.01
9050.52
6975.61
6306.01
5053.03
3900.52
2368.74
5661.91
4238.72
4741.75
2240.56
1750.32
1009.58
4962.71
3579.89
1748.28
1446.08
4162.97
1884.62
1650
877.302
3362.1
3172.23
3084.21
4596.15
4683.47
4538.03
3951.72
5918.75
3361.28
2245.7
2207.19
3094.51
1041.72
520.888
279.158
611.137
4731
1970.54
579.723
5521.63
1420.36
376.799
4751.55
2115.03
647.957
5488.6
1471.91
409.209
4371.38
2064.62
531.96
5358.94
1488.87
347.3
4548.46
2271.66
488.664
4247.44
2029.18
467.032
4311.31
2057.33
551.725
4412.26
2062.3
430.307
5312.95
1452.58
215.589
5810.48
2888.01
754.38
5385.91
2666.06
721.082
5042.78
2486.42
720.162
4934.88
2095.47
509.327
5743.45
1348.17
327.075
1840.04
665.676
129.612
-217.052
764.926
292.771
78.9726
-44.035
1952.22
731.706
187.138
-134.572
971.85
408.271
195.429
91.4085
2101.68
816.828
284.823
-8.59972
1668.98
790.491
316.339
75.709
1275.97
733.894
279.287
-1.9752
1207.97
808.499
487.634
297.469
1748.83
785.342
247.566
-186.804
1505.22
666.007
294.92
-191.343
2067.86
808.03
260.236
-140.675
1877.3
736.689
293.539
-316.993
1407.6
736.085
304.048
-56.7823
1159.55
592.832
322.06
4.69599
1047.07
654.961
399.807
251.719
803.096
505.566
344.615
208.073
2354.07
803.293
124.983
-430.206
2349.82
742.169
175.726
-589.786
2353.3
816.355
147.823
-408.882
2277.5
722.814
184.739
-571.162
2311.12
821.586
227.739
-292.196
2125.84
685.337
230.388
-468.309
2026.68
761.222
318.706
-42.7084
2331.86
769.198
328.134
-548.043
1819.44
683.801
322.386
-129.481
1877.34
524.889
159.248
-401.372
750.966
191.111
44.5333
-84.348
1934.96
560.465
179.921
-382.134
780.732
206.666
57.8081
-69.1354
1963.53
600.691
225.489
-335.266
791.88
224.365
75.7189
-50.1754
1768.8
567.57
260.943
-264.604
766.902
232.043
104.348
-16.5065
1618.56
566.16
288.062
-153.877
683.891
245.152
143.529
29.8098
1134.5
461.901
228.669
-44.112
643.786
323.348
200.822
108.672
1308.7
466.502
226.59
-109.808
648.438
279.551
172.366
69.6125
915.945
450.003
255.169
42.9832
580.388
343.12
223.993
146.81
649.444
411.506
286.856
182.306
487.604
344.265
247.406
190.526
-19.3211
8.80555
9.01509
6.45322
5.00838
-2.81694
5.8934
5.08141
3.56732
2.76948
10.6125
24.9302
18.3382
12.3576
9.44436
29.6124
24.2348
15.8605
10.4003
7.89331
43.6533
44.6593
30.1918
20.0511
15.289
121.311
82.1611
51.4544
33.4461
25.3277
146.355
97.192
60.788
39.5899
30.0634
212.631
128.842
78.3181
50.5636
38.3408
77.4696
65.3738
42.6986
28.101
21.2989
82.6183
61.6083
39.3672
25.8466
19.5995
53.1587
52.2912
34.808
23.1114
17.6005
97.1263
63.7052
39.3804
25.6809
19.4181
101.124
78.1686
50.4351
33.1298
25.1732
110.649
73.7892
46.1496
30.1203
22.8476
169.067
103.821
63.2539
40.8648
30.9716
141.229
85.7104
52.1364
33.6775
25.4825
-35.8299
4.60443
6.69581
4.9568
3.87744
-19.5935
1.47915
2.62785
1.98384
1.57236
-16.2031
14.7154
12.4617
8.60514
6.64348
-12.5837
5.06233
4.63786
3.23573
2.52451
8.54727
26.4665
19.0148
12.8006
9.85878
13.8353
16.9553
11.1431
7.26717
5.57433
63.3521
51.4774
33.0181
21.7968
16.6835
42.1358
32.486
20.3871
13.3553
10.2261
116.941
67.441
40.4222
26.0893
19.731
1563.04
3576.23
1570.64
3534.93
1706.82
3501.1
2035.31
3643.62
2130.58
3767.59
847.643
1331.29
1401.52
2252.34
446.346
646.892
156.077
213.089
8182.75
1951.29
446.39
99.5107
24.6658
2226.63
598.961
159.116
36.1208
7.83128
8102.01
1915.99
437.827
96.7717
24.162
2265.3
667.943
164.403
38.1596
9.45731
7764.47
1822.82
414.861
91.5583
22.883
2198.75
646.205
158.646
36.6412
9.11363
7146.28
1662.25
377.057
83.1233
20.7765
2139.61
615.754
149.199
34.1512
8.44757
6018.77
1392.39
315.932
69.7283
17.4473
2028.12
567.773
136.041
30.939
7.62881
2876.06
695.644
160.494
35.6678
8.9355
990.449
281.717
66.933
14.9519
3.67661
4267.25
1017.63
232.996
51.5355
12.8925
1457.88
409.348
98.118
22.2995
5.53487
1692.5
412.681
95.6463
21.3577
5.35983
553.04
163.723
38.6364
8.62321
2.13995
584.503
141.648
32.8956
7.36837
1.84959
221.031
59.0967
12.8475
3.6218
0.693707
144.705
512.06
4505.45
-819.116
744.879
798.293
2327.96
2979.84
1872.41
3515.06
2945.99
4545
3547.32
4403.18
1844.56
2485.37
1971.38
2338.16
1025.63
1066.39
2295.19
1684.51
514.295
-459.428
-757.52
-909.008
-274.107
12834
3065.29
4201.04
2710.62
-170.615
-39.224
2956.35
-1407.34
-785.436
-1079.87
-554.031
7047.89
3713.17
1274.42
1053.24
3656.86
2022.25
647.216
1387.23
-1483.98
-857.997
704.6
559.496
8656.93
4299.82
5306.72
2849.88
4084.29
4441.08
1543.05
-888.065
929.794
1633.97
1348.63
1173.46
1069.61
833.686
1338.17
1082.75
852.793
605.918
263.111
452.878
377.991
288.984
185.219
64.8214
-410.26
-342.23
-255.304
-156.828
-52.8064
-676.94
-565.452
-422.747
-260.273
-87.7224
-813.485
-680.774
-510.021
-314.583
-106.141
-238.516
-190.784
-134.013
-76.8577
-24.5075
9353.93
8180.62
7062.2
6566.18
6185.89
2752.64
2446.97
2309.48
1948.87
1040.43
3224.63
2585.01
2196.72
1740.33
920.054
2096.82
1707.52
1500.46
1169.35
494.899
-12.3043
34.0308
147.615
162.607
81.6368
58.6861
141.375
184.474
163.944
70.2509
2518.32
2115.64
1678.76
1178.58
487.816
-855.858
-419.851
-166.788
-31.4481
6.09985
-625.962
-446.356
-271.037
-129.949
-33.9673
-763.851
-476.281
-247.926
-98.627
-21.0684
-501.534
-416.822
-304.631
-181.408
-59.0831
5253.79
4792.52
4185.6
3917.44
3714.27
2863.27
2270.45
1898.66
1456.54
718.947
1183.98
1076.24
918.223
663.291
263.88
931.098
801.138
648.607
448.298
171.526
3055.14
2472.19
1892.5
1265.48
490.525
1795.98
1529.84
1207.89
806.025
293.293
565.772
476.244
373.716
249.171
91.4567
1226.07
1029.11
792.005
511.361
180.542
-1287.82
-1039.79
-751.461
-449.917
-148.935
-754.843
-615.972
-446.582
-266.093
-87.4446
633.293
549.905
445.267
304.504
113.392
505.431
441.239
358.494
244.71
90.2226
5612.39
4124.76
3584.99
3343.44
2972.98
3291.69
2570.37
1998.19
1436.39
652.989
3918.69
3227.38
2630.39
2064.34
1018.47
2282.45
1868.19
1463.38
1034.33
454.401
3483.63
2857.96
2191.84
1446.26
537.902
3369.08
2501.27
2042.48
1546.32
661.512
1351
1126.79
866.794
563.028
200.857
-788.154
-650.757
-478.531
-289.223
-96.0664
823.26
707.611
571.35
392.48
147.227
-27140.7
-44490.5
-22497.5
-36019.1
-24139.8
-50657.9
-28898.6
-64319.3
-17179.8
-11736.7
-19354
-12034.7
-15859.9
-10180.5
-19659.4
-10324.3
-22420.5
-16866.9
-32689.9
-23520.3
-19254.9
-15321.8
-27329.4
-20507.7
-15448.3
-15765.6
-12674.5
-12165.5
-14903.6
-14057.1
-37789.2
-10421.6
-14363.6
-5355.37
-46252.8
-12812.1
-12844.2
-4760.61
-28082.7
-8842.33
-14706.4
-5627.21
-24947.9
-7757.6
-11551.8
-4643.43
-14736.3
-5336
-10960.7
-4815.56
-12811.1
-4632.94
-11365.3
-5506.38
-10234.5
-4057.95
-13139.2
-4635.12
-4611.18
-1617.99
-9811.51
-6498
-8468.33
-5149.89
-8669.69
-6962.84
-7437.74
-5299.99
-8604.83
-4880.43
-10069.3
-6255.09
-5799.7
-3451.96
-3120.33
-1911.87
-5004.41
-3446.24
-2595.53
-1843.81
-5891.35
-3192.65
-3256.45
-1628.16
-7579.16
-3844.97
-4887.88
-5697.63
-9610.51
-6452.68
-6877.14
-9611.02
-5142.73
-2304.8
-2927.32
-3292.8
-2780.86
-1118.73
-1322.98
-1250.51
-11335
-13771.7
-6382.22
-15566.1
-11787
-13143.7
-7329.89
-15918.7
-11917.1
-11976.3
-8737.03
-15155.8
-8169.37
-6599.94
-8931.05
-9888.27
-9860.74
-9047.28
-10422
-12067.6
-12951.4
-18389.9
-6203.92
-6377.85
-6928.77
-8382.61
-13123.7
-13065.4
-9111.41
-16568.5
-12738.2
-12112.3
-8970.04
-16324.8
-12686.2
-10724.4
-8377.68
-15237
-12557.3
-7427.55
-5915.61
-7626.37
-6088.58
-8498.17
-6849.6
-9267.94
-7841.16
-13888.2
-12622.8
-6981.84
-6013.56
-6981.09
-6021.17
-7655.86
-7110.21
-9187.13
-9066.17
-12835
-13172.5
-6392.9
-5105.08
-4704.41
-6189.87
-8038.87
-11156.1
-6079.56
-10302.7
-4303.08
-5703.74
-6147.63
-5026.92
-801.708
-4077.15
-230.521
-1200.3
-2913.88
-7083.64
-635.583
-1971.92
-382.402
-3637.22
-133.095
-1125.14
-4421.44
-4409.9
-5092.69
-3056.87
-6846.88
-5319.7
-8240.33
-5409.43
-957.784
-2381.52
-2504.21
-1354.24
-1354.83
-1742.86
-1987.4
-1462.29
-5524.54
-1900.47
-7471.52
-2550.1
-5647.6
-1982.98
-7648.77
-2746.93
-5603.04
-1952.48
-8103.97
-3129.03
-3472.78
-970.816
-4307.3
-1657.07
-4844.18
-1884.36
-5819.14
-2207.1
-8552.96
-3411.39
-4432.81
-1337.5
-3935.04
-1961.37
-4733.49
-2271.43
-6395.68
-2809.41
-8857.21
-3352.01
-6004.75
-5640.66
-4492.3
-4432.62
-10041.8
-7683.41
-8137.66
-6752.03
-4098.42
-3596.23
-1671.46
-1215.19
-3857.59
-3765.44
-1531.62
-1611.72
-2882.14
-4561.69
-3448.97
-4929.84
-3740.12
-2412.88
-3121.32
-449.991
-6612.97
-1700.09
2607.27
486.264
-871.054
-228.135
286.839
734.443
-2484.38
-1797.62
-919.329
-566.08
-2630.97
-1902.67
-1360.59
-647.264
-2930.43
-2278.75
-1787.18
-882.458
-1125.06
-48.0305
700.175
1127.28
-5010.56
-5411.19
-3847.83
-3622.03
-6717.17
-6742.89
-5560.73
-4680.02
-2536.23
-2865.44
-3833.06
-4437.07
-2306.64
-2015.33
-944.366
-873.648
-3555.08
-2794.6
-1783.84
-1402.27
-1294.24
-1475.62
-191.369
-550.775
-1703.79
-1247.38
-2490.58
-1865.93
-2705.15
-2279.26
-3862.66
-3067.09
-593.226
-370.183
-1201.25
-732.1
420.402
547.909
-289.362
161.27
-3654.15
-4645.39
-3171.05
-4748.11
-3610.41
-4622.4
-3245.26
-4740.72
-3789.54
-4262.61
-3422.14
-4503.51
-2797.89
-4641.7
-2428.94
-2197.71
-2466.07
-6996.38
-4993.54
-4655.04
-4924.22
-5202.57
-5609.07
-4747.89
-4074.46
-3867.5
-3144.85
-5563.48
-5626.98
-7375.65
-11404.4
-5254.52
-5052.69
-7075
-10862.7
-4806.49
-4631.4
-6528.2
-10004.5
-6840.9
-5256
-6214.52
-4736.89
-5495.19
-4392.25
-5694.1
-5272.68
-6043.27
-9250.86
-5544.77
-5239.54
-4742.28
-4775.29
-4325.93
-4596.94
-4542.25
-5448.62
-4283.19
-8141.55
-3880.77
-2777
-2648.98
-955.219
-5540.16
-4864.03
-4290.26
-3153.72
-2078.19
-762.453
-3197.4
-2579.01
-3194.22
-965.083
-431.068
125.783
-3569.27
-2328.92
-619.421
-352.941
-2653.58
-723.497
-280.413
186.054
-1950.15
-2058.84
-2183.5
-4124.91
-3035.24
-3478.24
-3130.48
-5761.68
-2047.04
-1333.31
-1189.97
-2498.11
245.689
386.335
807.42
107.154
-4032.79
-1173.3
-7674.84
-782.341
-3763.54
-1261.58
-7458.2
-811.682
-2872.9
-760.678
-6781.54
-640.278
-2887.21
-641.852
-2683.92
-620.366
-2953.63
-897.739
-3137.97
-587.255
-6379.48
-821.976
-4036.77
-783.794
-3755.93
-601.925
-3862.23
-761.453
-4341.97
-648.556
-6698.98
-807.812
-788.667
-157.416
186.61
460.092
-264.278
-38.3251
73.0032
145.55
-776.344
-121.052
204.783
433.579
-178.024
38.8009
78.1292
87.636
-793.489
-78.6695
207.002
383.535
-2.29662
256.666
399.581
442.94
570.772
501.02
573.68
599.833
1038.14
746.329
579.712
429.38
-341.548
134.701
411.823
693.111
-279.078
188.749
329.305
695.946
-857.842
-62.6943
270.438
575.869
-657.975
68.1681
295.719
852.812
142.272
329.967
440.889
589.545
63.9067
293.406
332.112
502.469
605.816
510.952
430.942
345.345
424.438
400.135
333.641
317.746
-1257.95
-274.192
221.843
749.634
-1574.4
-326.974
87.3622
936.69
-1206.41
-235.933
241.021
763.612
-1513.69
-301.638
88.8592
926.262
-1121.57
-177.795
196.39
661.61
-1373.54
-253.485
56.2742
842.607
-745.286
-29.1521
180.884
480.341
-1421.3
-213.768
61.0049
1047.19
-695.094
29.5219
207.599
661.561
-1468.12
-251.497
16.1499
660.064
-640.182
-96.3516
28.1135
167.76
-1371.16
-214.742
35.4114
662.573
-609.102
-84.2339
31.8598
165.488
-1174.82
-143.184
44.7553
643.495
-518.444
-54.2213
45.8416
172.785
-963.232
-83.8789
29.0208
577.241
-424.132
-23.6719
46.7644
165.832
-703.673
12.3348
78.8397
494.834
-218.878
46.0725
62.9408
161.738
-311.96
142.781
231.247
459.913
104.487
216.392
194.507
228.181
-578.383
41.1257
148.477
472.693
-20.3967
138.827
128.128
195.213
10.3687
251.337
279.074
415.557
228.633
277.468
240.608
241.571
330.031
341.664
286.098
298.437
353.507
321.021
252.416
221.912
103.314
30.0489
12.4164
6.96658
5.08858
43.7465
14.3859
6.34283
3.62643
2.65029
120.91
43.7102
21.2953
12.8034
9.55482
69.6675
31.6251
17.1358
10.679
8.04945
148.847
61.196
32.0873
19.7122
14.7844
176.531
91.6926
52.5974
33.2963
25.2105
195.787
105.864
61.4063
38.9105
29.4002
218.964
129.925
78.0425
50.0667
37.9288
177.919
80.7017
44.3442
27.6841
20.94
150.928
71.2211
39.6967
24.8207
18.7728
160.627
66.3229
35.3267
21.7446
16.3438
132.717
66.3122
37.9314
23.8369
18.0689
191.233
92.6396
51.9398
32.5854
24.6097
154.424
80.5146
46.3144
29.2587
22.1663
182.388
105.662
63.107
40.4167
30.6064
151.919
87.3626
52.0213
33.2719
25.2057
112.15
26.6194
10.0001
5.42025
3.9167
52.0462
10.7127
3.78827
1.99254
1.41243
120.918
34.5763
15.2957
8.90699
6.5593
55.2349
13.6145
5.74172
3.29495
2.39569
124.771
41.8497
20.5437
12.3553
9.14594
62.5065
22.8247
12.0501
7.50846
5.59193
138.803
58.6134
31.8792
19.6727
14.6857
82.3141
35.1894
19.5292
12.1511
9.06562
117.34
65.3556
38.5661
24.4967
18.5563
-1760.11
-3312.23
-1804.74
-3314.07
-1956.44
-3332.02
-2140.47
-3413.68
-2066.96
-3426.77
-807.416
-1263.42
-1346.42
-2104.22
-401.708
-596.664
-106.516
-165.032
-8443.03
-1995.81
-453.745
-100.662
-24.8451
-2270.89
-611.732
-161.961
-36.5971
-7.89475
-8299.3
-1949.66
-443.43
-97.6408
-24.2951
-2315.12
-682.456
-167.212
-38.6364
-9.53578
-7852.21
-1838.56
-417.579
-91.9766
-22.939
-2240.33
-657.408
-160.772
-36.9962
-9.17087
-7130
-1660.87
-376.956
-83.0865
-20.7528
-2152.35
-620.567
-150.194
-34.3174
-8.47203
-5955.04
-1382.26
-314.217
-69.4098
-17.3723
-2005.73
-565.934
-135.897
-30.9163
-7.62004
-2848.82
-689.298
-159.129
-35.3868
-8.86994
-966.586
-276.587
-65.9282
-14.7574
-3.63366
-4219.99
-1007.99
-231.116
-51.1697
-12.8097
-1427.64
-404.526
-97.321
-22.1549
-5.50335
-1676.45
-408.84
-94.7709
-21.1691
-5.31424
-533.661
-158.934
-37.5831
-8.40504
-2.08914
-573.171
-139.005
-32.2789
-7.23117
-1.81551
-203.241
-54.5702
-11.7926
-3.39232
-0.638882
193.853
-1040.01
-5317.04
888.018
-6353
-2787.86
-6148.06
-2821.31
-11181.7
-5957.75
-12539.5
-6643.18
-133.321
-528.525
-830.058
-978.216
-878.32
-356.976
-218.618
-819.997
-1245
-1375.3
-1109.1
-378.834
-113.212
-121.267
-423.754
-426.775
-606.162
-599.584
-584.374
-552.979
-522.463
-499.77
-407.48
-364.862
847.199
2194.84
3557.15
2522.26
2319.97
1118.1
799.647
2293.25
3709.18
4295.72
3584.58
1634.22
-120.219
-101.613
-76.9908
-47.9719
-16.288
-477.273
-404.147
-306.818
-191.482
-65.0724
-749.521
-634.634
-481.772
-300.667
-102.18
-883.022
-747.395
-567.165
-353.861
-120.24
-792.706
-670.725
-508.715
-317.208
-107.742
-323.928
-275.199
-208.867
-129.892
-43.9745
-197.026
-166.43
-126.032
-78.5005
-26.6494
-740.056
-626.256
-475.159
-296.43
-100.721
-1123.33
-950.342
-720.924
-449.727
-152.813
-1240.06
-1048.36
-794.846
-495.699
-168.421
-999.266
-844.115
-639.579
-398.734
-135.466
-342.373
-289.945
-219.889
-136.977
-46.4787
-102.156
-86.4222
-65.5393
-40.8641
-13.8791
-109.492
-92.6946
-70.3485
-43.8892
-14.9117
-382.796
-324.285
-246.288
-153.75
-52.2554
-385.587
-326.705
-248.168
-154.943
-52.6651
-547.528
-463.791
-352.207
-219.856
-74.7208
-541.555
-458.692
-348.304
-217.407
-73.8869
-527.82
-447.049
-339.424
-211.824
-71.9772
-499.2
-422.552
-320.653
-200.042
-67.9648
-471.765
-399.314
-302.851
-188.762
-64.0828
-450.592
-380.795
-288.466
-179.699
-61.0017
-368.138
-311.357
-235.475
-146.16
-49.4522
-328.635
-277.239
-209.47
-130.12
-44.0836
753.192
629.536
475.473
297.853
101.936
1943.29
1619.92
1223.45
768.724
264.42
3114.02
2579.96
1952.56
1240.6
434.489
2193.19
1813.27
1376.67
879.618
309.355
2049.16
1699.19
1283.88
805.642
262.041
1018.37
862.146
660.463
415.37
131.767
711.842
595.206
448.992
280.547
95.7777
2036.56
1700.23
1282.61
802.839
274.826
3274.34
2723.03
2054.4
1291.57
445.057
3767.51
3120.59
2355.3
1487.88
516.419
3143.67
2603.97
1967.34
1244.14
430.244
1448.62
1212.47
923.944
586.986
202.694
292.744
685.699
982.396
1123.11
1012.31
494.001
439.62
1034.58
1443.85
1544.41
1234.58
461.998
238.876
227.357
544.908
529.433
716.691
692.69
676.33
624.664
604.978
513.448
545.563
409.161
-690.606
-1957.05
-3145.26
-1970.59
-1645.09
-379.098
-730.44
-2181.03
-3460.8
-3849.12
-2942.48
-869.084
264.822
224.739
171.007
106.922
36.3724
619.942
525.717
399.718
249.772
84.9424
887.945
752.754
572.174
357.46
121.552
1014.94
860.238
653.75
408.371
138.855
915.097
775.834
589.697
368.36
125.243
449.365
383.19
292.273
182.674
62.0519
397.593
337.317
256.606
160.417
54.5674
934.964
792.478
602.295
376.26
127.944
1304.19
1104.86
839.337
524.198
178.23
1394.21
1180.43
896.342
559.683
190.288
1113.97
942.714
715.623
446.811
151.924
418.458
355.402
270.409
168.933
57.4209
216.108
183.411
139.566
87.2642
29.685
205.681
174.552
132.815
83.0367
28.2456
492.73
417.924
317.816
198.614
67.5449
478.744
406.062
308.791
192.971
65.6257
647.935
549.442
417.735
261.01
88.7557
626.184
530.936
403.619
252.169
85.7462
611.518
518.62
394.32
246.373
83.7734
564.55
478.541
363.685
227.17
77.2357
547.356
464.461
353.226
220.673
75.0178
463.94
393.143
298.673
186.494
63.3914
494.871
420.825
320.317
200.005
67.923
370.01
313.715
238.319
148.717
50.517
-610.116
-506.609
-380.775
-238.098
-81.524
-1726.39
-1433.95
-1080.57
-678.878
-233.835
-2735.42
-2252.18
-1698.39
-1079.78
-379.703
-1671.22
-1347.38
-1003.53
-635.87
-223.764
-1403.96
-1119.2
-815.085
-495.095
-150.484
-309.997
-223.403
-142.318
-70.7711
-7.98998
-648.961
-541.576
-407.999
-254.849
-87.0297
-1935
-1614.03
-1217.09
-762.003
-260.992
-3047.29
-2527.83
-1904
-1196.73
-412.709
-3354.2
-2760.17
-2073.23
-1307.35
-454.12
-2544.18
-2076.44
-1550.31
-974.358
-336.178
-731.519
-578.731
-420.65
-259.948
-88.333
-1398.61
-882.475
-211.429
716.794
1018.88
1296.01
619.717
-10689.7
-1631.54
-3073.36
-1473.71
290.2
-3943.21
878.22
2512.82
1206.11
-5787.72
-2611.57
-394.718
-504.889
-3307.5
-1214.99
-215.433
-980.736
2204.34
1400.26
-474.404
-119.683
-7625.98
-3537.98
-4179.74
-2008.61
-3475.55
-3239.63
-1027.73
1422.25
-328.897
-671.564
-443.531
-394.647
-511.971
-604.352
-540.513
-343.971
-236.385
-181.953
-103.132
-173.843
-135.927
-100.696
-65.504
-23.7586
648.436
549.957
417.84
260.756
88.602
919.069
776.878
588.389
366.306
124.271
1169.12
988.47
749
466.58
158.359
562.035
476.399
359.956
222.452
74.8472
-7675.04
-6890.69
-6248.24
-6386.96
-6740.62
-1040.74
-705.486
-853.56
-1018.18
-732.067
-2150.4
-1586.29
-1392.84
-1242.27
-780.216
-941.557
-621.426
-583.288
-534.944
-244.51
267.161
217.568
143.615
66.4301
12.341
-3289.72
-2698.52
-2084.38
-1426.17
-578.152
794.645
665.095
490.669
293.194
94.4586
2186.72
1788.49
1324.13
816.856
276.983
1083.11
908.605
681.617
420.176
141.161
-4045.37
-3778.72
-3451.28
-3567.55
-3816.84
-1783.55
-1275.77
-1096.96
-947.983
-559.691
-303.354
-255.348
-243.508
-220.245
-111.273
-403.909
-324.566
-265.59
-200.382
-86.59
-2757.65
-2233.18
-1722.98
-1171.09
-465.059
-1020.3
-829.099
-644.228
-439.319
-165.88
-161.394
-119.001
-91.1606
-67.3953
-28.8193
-846.59
-695.487
-529.772
-343.752
-123.055
1968.96
1647.2
1236.76
765.515
258.736
1262.14
1063.82
801.197
495.01
166.719
-395.639
-321.389
-252.628
-175.645
-68.3793
-85.6012
-63.6835
-55.6039
-48.0731
-22.2002
-4639.69
-3244.43
-2876.96
-2907.95
-2895.89
-2563.59
-1912
-1464.46
-1084.55
-529.124
-2775.73
-2189.46
-1777.32
-1503.3
-802.687
-1478.32
-1140.86
-875.813
-650.128
-322.562
-2914.97
-2356.67
-1798
-1195.85
-453.035
-2230.55
-1458.41
-1210.79
-1018.32
-485.004
-872.674
-708.555
-539.583
-354.644
-129.571
1283.88
1084.49
818.994
507.478
171.34
-250.428
-193.341
-159.687
-125.912
-55.2281
0.876289
44.3669
104.404
138.642
105.125
0.059653
-19171.8
-16920.8
-16164.3
-18422.9
-14044.4
-11114.6
-12678.3
-9625.71
-16578.6
-14503.9
-15273.2
-14341
-13399
-11406.3
-14074.2
-15760.9
-14083.1
-12978.4
-14638.9
-11834.4
-10023.3
-10606.8
-8509.2
-14853.2
-13166.6
-13681.7
-12438.2
-11843.1
-11068.1
-11399.7
-12362
-11326.6
-10271.7
-11238.3
-9826.5
-8434.94
-8861.91
-7619.28
-12420.3
-11246.3
-11559.8
-10511.6
-10051.9
-9300.11
-9538.22
-8618.93
-8107.33
-7249.6
-7687.29
-7272.18
-6520.86
-6587.47
-6037.02
-8924.55
-9000.71
-8418.97
-8474.7
-7503.25
-6779.36
-7516.8
-5506.36
-5262.06
-4668.84
-4871.38
-4869.75
-4408.84
-4351.88
-4026.66
-5905.1
-5889.95
-5641.88
-5502.58
-5133.66
-4636.5
-5004.79
-1981.39
-1910.68
-1690.12
-1750.04
-1799.38
-1682.7
-1595.91
-1489.67
-2241.7
-2231.41
-2095.85
-1991.29
-1929.9
-1771.39
-1891.93
-7358.28
-7261.23
-10925.2
-11773.2
-6941.58
-6174.56
-9593.3
-7809.57
-5848.35
-4454.92
-5808.54
-4412.98
-5845.36
-5583.31
-4474.29
-7347.72
-6979.7
-9724.68
-10603.4
-6490.39
-5888.97
-8465.01
-7306.14
-5848
-3990.28
-5748.05
-4196.35
-5265.82
-5058.05
-4554.73
-6736.65
-6431.48
-8256.37
-8849.24
-6056.79
-5650.62
-7398.03
-6563.76
-4892.67
-4392.38
-4881.04
-4606.35
-4575.22
-4568.32
-4744.01
-5476.84
-5283.01
-6204.01
-6511.08
-5027.61
-4714.33
-5753.37
-5264.26
-4746.91
-4015.27
-4669.1
-4256.27
-4379.96
-4334.41
-4304.61
-3804.44
-3691.9
-4113.08
-4266.39
-3436.48
-3188.96
-3881.21
-3571.84
-3365.4
-3121.06
-3288.44
-3258.46
-3082.93
-3015.46
-3081.65
-1421.18
-1380.31
-1505.6
-1554.38
-1278.28
-1176.84
-1428.85
-1318.22
-1105.05
-1148.81
-1179.38
-1240.19
-1145.53
-1107.66
-1128.18
7074.63
22877.2
5604.42
23956.6
4221.53
24806
6700.08
38318.6
8238.16
52704.2
8156.84
38332.3
7841.66
31773.6
8160.77
27773
4944.12
3044.54
13235.2
7831.28
4858.16
2616.2
14524.9
7206.69
5360.84
3859.71
16963
11892
4057.71
2902.59
17044.2
12332.9
9565.27
4031.77
8237.77
3657.55
3767.27
8899.89
33231.1
9016.65
11884
4035.14
42881.5
11660.3
11161.9
3880.79
23687.7
7356.08
12144.2
4244.72
20555.2
6540.61
5572.26
2763.14
8302.92
3223.26
6086.13
3294.23
8264.8
3155.49
7767.84
4418.61
7113.52
3074.6
10595.7
3795.64
3649.14
1270.18
11958.8
8247.28
7422.77
5406.49
13501.5
11098
7386.21
6392.81
6984.48
4681.13
9780.26
6485
4907.8
3597.36
2510.86
2055.06
4775.67
4125.78
2492.87
2400.49
4680.33
3046.99
2411.97
1537.64
6206.82
3363.28
4619.14
5610.85
8440.97
6000.63
6648.94
9562.94
4127.27
1947.53
2733.63
3223.64
2059.28
850.815
1184.91
1196.1
7273.57
13141.6
4950.47
14691.9
8615.04
12886.6
6146.12
15426.8
9830.8
11702.9
7948.04
15120.6
11891
14363.1
8787.79
8419.75
9253.84
14330.8
13054.9
12658.4
12892.7
18695.8
11642
8817.76
7526.53
8411.8
13300.6
15194.9
13533.4
17627.1
16846.5
13885.2
12826.5
17422.4
16529.8
12032.4
11689.7
16382.8
15959.7
10432.2
8141.71
9531.14
8230.9
10312.9
9108.58
11001.5
10459.8
15148.3
15392
9762.06
8388.53
9172.83
8676.91
9360
9768.54
10487.3
11625.9
13704.8
15680.3
8021.39
6288.68
5529.69
7067.37
10972.1
13424
7628.11
12104.5
4637.98
6135.69
6881.1
5656.16
1316.24
4699.25
697.884
1693.89
3904.35
8158.32
1454.03
2836.68
589.587
3952.16
345.218
1386.33
4534.06
4611.66
5150.6
3168.07
7155.81
5694.4
8417.28
5755.5
1022.21
2523.21
2548.95
1428.27
1433.47
1868.93
2038.55
1535.95
10721.1
6485.46
2033.11
12133.9
6938.81
2266.33
10249.6
6402.85
2150.55
11951.8
6940.2
2261.15
9434.1
5874.46
1924.54
11686.2
6986.02
2329.53
5258.9
2802.75
743.479
6625.09
4343.97
1511.42
7826.19
5395.36
1858.69
9001.23
5801.07
1920.98
11592.2
7192.46
2515.59
6281.83
3485.26
1090.24
6175.94
4427.95
1664.7
7266.29
5363.94
1961.75
9096.48
6367.39
2268.42
11715.7
7266.37
2569.11
301.945
2001.26
2832.41
4085.32
2144.33
2471.53
5397.93
5128.72
583.476
1026.97
621.978
1066.24
491.215
1417.68
874.412
1860.28
3232.75
1582.88
4082.52
2358.36
2183.79
3807.96
3393.71
969.94
5998.44
1492.68
-1836.06
777.382
1819.46
1375.65
1279.1
1204.16
9918.91
4634.24
2701.16
1707.32
10055.1
4827.11
3401.51
2164.46
9937.28
5202.08
4950.54
3536.2
3542.7
2586.89
1792.96
1726.59
12558.4
11184
5927.14
6161.91
13376.7
12569.6
6606.66
6672.92
5336.66
5506.59
10903
9150.88
3556.65
3720.59
2017.51
2276.98
4086.99
4063.86
2271.13
2424.33
3147.51
3388.68
1797.22
2181.63
4820.32
3460.5
4838.71
3540.71
7486.14
4577.72
7186.23
4897.79
2929.06
2507.86
3070.61
2295.9
1670.2
1588.28
1959.8
1349.91
11874
8492.97
6132.15
6388.29
11787.6
8662.18
6168.78
6357.39
12208.5
8934.78
6257.22
6166.55
13779.2
14709.3
12709.6
8655.23
5105.38
13941.6
13094.5
12364.2
10418.6
7024.57
13074
11961.9
9703.44
7628.91
4969.53
7427.34
6777.37
7067.48
8259.42
7595
6604.9
7111.98
8127.25
7819.22
6461.55
7141.73
7965.7
10526.8
7418.6
9996.65
6998.9
8051.14
6592.02
7715.5
6736.43
6602.63
7851.81
8738.05
7580.66
7864.44
6911.04
6867.74
6309.25
6249.36
6328.84
5229.28
7482.62
7029.33
4764.09
4676.58
2781.56
9049.12
6974.68
6305.52
5052.56
3900.09
2368.36
5660.58
4237.84
4741.74
2240.43
1750.58
1009.7
4962.66
3579.74
1748.43
1446.13
4162.96
1884.53
1650.31
877.435
3361.79
3171.86
3084
4595.77
4682.54
4537.29
3951.23
5918.1
3361.28
2245.6
2207.23
3094.36
1042.04
521.032
279.45
611.258
4736.33
1975.8
582.344
5527.38
1428.93
378.965
4750.14
2115.2
647.974
5486.3
1470.38
409.245
4370.34
2064.28
531.937
5358.13
1488.24
347.168
4547.71
2271.23
488.525
4246.62
2028.76
466.903
4310.43
2056.91
551.607
4411.32
2061.86
430.179
5312.26
1452.22
215.478
5809.65
2887.53
754.215
5385.01
2665.6
720.93
5041.89
2485.97
720.022
4934.07
2095.07
509.193
5742.79
1347.94
327.006
1832.73
661.454
127.069
-218.017
757.371
288.916
77.129
-44.8226
1952.54
731.783
187.102
-134.774
971.989
408.314
195.36
91.26
2101.61
816.805
284.786
-8.72058
1668.87
790.473
316.32
75.6065
1276.08
733.96
279.342
-1.96897
1208.56
808.77
487.775
297.525
1748.86
785.378
247.594
-186.816
1505.26
666.059
294.961
-191.303
2067.7
808.001
260.235
-140.713
1877.18
736.676
293.549
-316.97
1407.83
736.207
304.124
-56.7478
1159.72
592.944
322.132
4.74634
1047.52
655.185
399.932
251.78
803.378
505.733
344.719
208.14
2353.17
802.257
123.387
-431.398
2352.36
742.769
175.093
-591.585
2352.84
816.132
147.774
-408.988
2277
722.631
184.802
-571.049
2310.74
821.458
227.726
-292.199
2125.38
685.186
230.399
-468.217
2026.38
761.112
318.666
-42.7616
2331.46
769.084
328.125
-547.978
1819.25
683.748
322.362
-129.531
1882.9
526.938
159.584
-403.939
754.571
192.277
44.6798
-85.3417
1932.34
559.644
179.764
-381.712
779.622
206.352
57.721
-68.9493
1962.94
600.47
225.49
-335.134
791.571
224.256
75.7072
-50.0919
1768.44
567.44
260.924
-264.539
766.721
231.974
104.332
-16.4788
1618.33
566.086
288.041
-153.847
683.781
245.109
143.51
29.8121
1134.5
461.937
228.699
-44.077
643.809
323.371
200.835
108.682
1308.6
466.489
226.594
-109.781
648.39
279.535
172.356
69.6105
916.057
450.09
255.228
43.0345
580.488
343.191
224.038
146.842
649.643
411.64
286.943
182.372
487.768
344.379
247.48
190.58
-20.5297
8.02057
8.52477
6.12156
4.74471
-3.62266
5.3509
4.7242
3.3138
2.56211
10.5954
24.9228
18.3301