/*--------------------------------*- C++ -*----------------------------------*\
| =========                 |                                                 |
| \\      /  F ield         | OpenFOAM: The Open Source CFD Toolbox           |
|  \\    /   O peration     | Version:  2306                                  |
|   \\  /    A nd           | Website:  www.openfoam.com                      |
|    \\/     M anipulation  |                                                 |
\*---------------------------------------------------------------------------*/
FoamFile
{
    version     2.0;
    format      ascii;
    arch        "LSB;label=32;scalar=64";
    class       volVectorField;
    location    "2.3";
    object      flux;
}
// * * * * * * * * * * * * * * * * * * * * * * * * * * * * * * * * * * * * * //

dimensions      [0 1 -1 1 0 0 0];

internalField   nonuniform List<vector> 
2658
(
(1.01001e-06 9.89414e-07 -8.85601e-06)
(1.47323e-06 5.71311e-07 -8.56624e-06)
(4.74276e-07 1.77926e-07 -6.45225e-06)
(-4.28945e-08 -2.34305e-08 -5.87179e-06)
(-2.12371e-06 -2.0885e-06 -7.25821e-06)
(-1.79602e-06 2.56799e-06 -7.436e-06)
(1.88281e-06 -2.19665e-06 -6.76536e-06)
(1.85803e-06 1.84889e-06 -6.52317e-06)
(-3.54637e-08 -3.44501e-08 -5.86686e-06)
(2.54947e-06 -1.81858e-06 -7.41398e-06)
(-1.714e-06 5.64756e-07 -7.34077e-06)
(-1.23575e-06 -4.09934e-06 -5.80446e-06)
(8.16252e-07 2.48106e-06 -7.74383e-06)
(9.76448e-07 2.52407e-06 -7.23617e-06)
(7.48521e-07 2.04084e-06 -7.49483e-06)
(-6.96023e-08 2.09729e-06 -7.7076e-06)
(-3.35611e-08 2.30117e-06 -7.39711e-06)
(-8.39617e-09 2.06462e-06 -7.69011e-06)
(-8.22378e-07 2.0892e-06 -7.48804e-06)
(-1.06244e-06 2.49288e-06 -7.14169e-06)
(-1.00552e-06 2.40159e-06 -7.61708e-06)
(-2.3387e-06 2.0901e-06 -6.8606e-06)
(-2.80524e-06 6.8926e-07 -7.84845e-06)
(2.1143e-06 -4.77572e-07 -6.02147e-06)
(-8.96851e-07 7.77435e-07 -9.41764e-06)
(-1.1051e-06 2.29948e-06 -7.60117e-06)
(-2.3798e-06 -5.03773e-07 -6.78791e-06)
(-3.44539e-07 1.36449e-07 -8.01914e-06)
(-1.74295e-06 1.87576e-06 -8.17949e-06)
(-1.86952e-06 -9.45811e-11 -6.71468e-06)
(-1.74293e-06 -1.87578e-06 -8.17941e-06)
(-2.37985e-06 5.03784e-07 -6.78792e-06)
(-1.10517e-06 -2.29961e-06 -7.6011e-06)
(-2.8054e-06 -6.89244e-07 -7.84837e-06)
(-8.968e-07 -7.77407e-07 -9.41764e-06)
(2.11427e-06 4.77632e-07 -6.02138e-06)
(-1.16146e-06 -1.46529e-07 -7.76731e-06)
(5.3659e-07 1.95779e-07 -1.08241e-05)
(-2.3383e-06 -2.09074e-06 -6.86052e-06)
(-1.0058e-06 -2.40173e-06 -7.61727e-06)
(-1.06242e-06 -2.49306e-06 -7.14178e-06)
(-8.22334e-07 -2.08928e-06 -7.48805e-06)
(-8.55535e-09 -2.06446e-06 -7.69003e-06)
(7.1795e-08 1.0372e-06 -1.11864e-05)
(-1.43249e-06 -1.66124e-07 -7.11899e-06)
(1.34001e-06 -8.36566e-08 -7.03948e-06)
(-1.71397e-06 -5.64787e-07 -7.34081e-06)
(-6.3358e-08 1.07961e-06 -1.11757e-05)
(-6.98376e-08 -2.09767e-06 -7.70771e-06)
(7.48543e-07 -2.04087e-06 -7.49489e-06)
(9.76499e-07 -2.52389e-06 -7.2361e-06)
(8.16231e-07 -2.48107e-06 -7.7439e-06)
(2.21683e-06 -2.19699e-06 -6.93134e-06)
(-4.72855e-07 4.56703e-07 -1.12121e-05)
(2.494e-06 -8.18827e-07 -7.75077e-06)
(2.04883e-06 -7.75049e-07 -7.50587e-06)
(-1.09754e-06 5.31832e-08 -1.11766e-05)
(1.06274e-07 -1.35999e-06 -7.07218e-06)
(-3.89713e-06 -1.2537e-11 -6.06505e-06)
(2.07112e-06 -2.27233e-08 -7.69792e-06)
(-1.09747e-06 -5.31481e-08 -1.11767e-05)
(2.04888e-06 7.75018e-07 -7.50596e-06)
(2.49399e-06 8.18876e-07 -7.75083e-06)
(-4.7278e-07 -4.56765e-07 -1.12121e-05)
(5.37227e-07 5.44745e-07 -7.25232e-06)
(-4.10844e-06 -1.19803e-06 -5.81607e-06)
(5.29623e-07 -1.70012e-06 -7.32149e-06)
(-3.33861e-08 -7.52816e-08 -6.61504e-06)
(-1.345e-06 -2.84391e-06 -7.35726e-06)
(-1.34515e-06 2.84392e-06 -7.3571e-06)
(-6.09517e-08 2.72761e-11 -5.96424e-06)
(1.35476e-06 2.42527e-06 -6.63889e-06)
(-8.4284e-08 -2.54158e-08 -5.15801e-06)
(-1.47666e-06 2.01206e-06 -5.9396e-06)
(2.79849e-08 -7.14563e-09 -4.57278e-06)
(-1.55489e-06 -1.52387e-06 -5.87361e-06)
(1.99393e-06 -1.51115e-06 -5.92341e-06)
(-1.44681e-08 3.71406e-08 -4.56675e-06)
(-1.72719e-06 1.47333e-06 -5.22257e-06)
(1.93122e-06 9.68342e-07 -5.12358e-06)
(-2.2896e-06 -1.01117e-06 -5.92313e-06)
(-4.25132e-08 -6.69902e-08 -5.15611e-06)
(2.43414e-06 1.29352e-06 -6.60577e-06)
(-2.20633e-06 1.9428e-06 -6.78684e-06)
(-5.82532e-08 -4.31563e-08 -5.52928e-06)
(-3.54641e-08 -2.51093e-08 -4.28592e-06)
(-6.07078e-09 3.94714e-10 -3.22716e-06)
(6.64593e-09 1.0939e-08 -2.34908e-06)
(1.04844e-08 1.39856e-08 -1.65785e-06)
(1.07622e-08 1.44417e-08 -1.14629e-06)
(8.89221e-09 1.21201e-08 -8.00221e-07)
(-2.27679e-08 -4.13686e-08 -7.92965e-07)
(2.05523e-08 2.17648e-08 -6.8391e-07)
(-1.39226e-07 1.08481e-07 -5.66112e-07)
(9.41996e-08 -4.77138e-08 -6.12539e-07)
(-1.68508e-08 -1.12282e-07 -6.54853e-07)
(-1.16841e-07 -2.0153e-08 -6.01075e-07)
(6.18225e-10 -1.19921e-07 -9.09387e-07)
(1.17591e-07 -2.17615e-08 -6.0153e-07)
(-9.57778e-08 -4.55807e-08 -6.10162e-07)
(5.18854e-08 -1.3145e-07 -9.14515e-07)
(1.33093e-07 -3.52626e-08 -6.17788e-07)
(1.16067e-07 -1.14009e-07 -6.63523e-07)
(9.51551e-08 -6.14819e-08 -7.42943e-07)
(9.90527e-08 -5.11376e-08 -6.28239e-07)
(-2.0063e-07 1.18121e-07 -6.79313e-07)
(-3.88077e-08 -4.2474e-08 -4.85097e-07)
(-2.7755e-08 -6.49774e-10 -8.1712e-07)
(-9.7001e-09 1.55536e-08 -5.29405e-07)
(5.5074e-08 -1.23677e-07 -8.03482e-07)
(1.18259e-07 4.1019e-08 -7.45274e-07)
(4.71988e-08 -5.60307e-08 -6.08896e-07)
(9.39352e-08 -2.298e-12 -8.36863e-07)
(4.71924e-08 5.60305e-08 -6.08873e-07)
(1.1826e-07 -4.10269e-08 -7.45276e-07)
(5.50693e-08 1.23674e-07 -8.03481e-07)
(9.9058e-08 5.11411e-08 -6.28254e-07)
(-2.00627e-07 -1.18123e-07 -6.79315e-07)
(1.16075e-07 1.14007e-07 -6.63527e-07)
(9.51653e-08 6.14826e-08 -7.42951e-07)
(1.33094e-07 3.52539e-08 -6.17782e-07)
(5.18776e-08 1.31449e-07 -9.14475e-07)
(-9.57827e-08 4.55793e-08 -6.10158e-07)
(1.17594e-07 2.17618e-08 -6.01529e-07)
(-1.85951e-07 -9.30714e-08 -5.89322e-07)
(1.86567e-07 -9.01462e-08 -5.9218e-07)
(-1.3922e-07 -1.08486e-07 -5.66092e-07)
(-1.6847e-08 1.1229e-07 -6.54875e-07)
(-1.16842e-07 2.01585e-08 -6.01075e-07)
(9.41958e-08 4.77214e-08 -6.12556e-07)
(-5.28407e-08 1.28904e-07 -9.11022e-07)
(-1.29722e-07 3.3078e-08 -6.103e-07)
(-8.88912e-08 6.16085e-08 -7.31402e-07)
(-8.08669e-08 5.59334e-08 -6.05758e-07)
(-5.14298e-08 1.15188e-07 -7.93977e-07)
(5.82006e-09 -5.19737e-08 -5.60261e-07)
(-2.38586e-08 3.52585e-09 -5.42237e-07)
(-1.39149e-07 5.52426e-09 -6.38679e-07)
(1.14031e-07 -1.18671e-07 -5.52942e-07)
(1.1397e-07 1.18697e-07 -5.5296e-07)
(-2.38501e-08 -3.53779e-09 -5.42219e-07)
(5.79219e-09 5.19771e-08 -5.60263e-07)
(5.44083e-08 -3.10876e-08 -6.20633e-07)
(-5.67246e-08 -3.23788e-08 -6.58684e-07)
(-6.52405e-08 -2.95576e-10 -8.28321e-07)
(-5.65912e-08 3.22723e-08 -6.58375e-07)
(3.14042e-08 5.67098e-11 -7.67362e-07)
(4.06305e-08 6.39916e-11 -7.38214e-07)
(-1.13932e-07 -6.42499e-08 -5.26712e-07)
(-1.18554e-07 6.33271e-08 -5.29347e-07)
(-9.90131e-08 1.39193e-10 -5.01775e-07)
(-1.25485e-07 5.05144e-09 -7.09936e-07)
(-1.22829e-07 3.37716e-08 -6.92248e-07)
(-1.27224e-07 -3.7895e-08 -4.45479e-07)
(-9.82159e-08 1.51837e-07 -5.99134e-07)
(-1.74495e-07 3.52728e-08 -5.65236e-07)
(-1.58794e-07 1.42331e-07 -5.12375e-07)
(-6.7068e-08 1.68454e-07 -5.63806e-07)
(-7.6385e-08 1.78353e-07 -5.31482e-07)
(-5.56184e-08 1.41558e-07 -5.51962e-07)
(3.21209e-10 1.42502e-07 -5.69137e-07)
(1.15967e-10 1.63205e-07 -5.4466e-07)
(-5.85866e-10 1.42402e-07 -5.69524e-07)
(5.35195e-08 1.44073e-07 -5.522e-07)
(7.60417e-08 1.82392e-07 -5.29215e-07)
(6.84214e-08 1.70112e-07 -5.61564e-07)
(1.62031e-07 1.48784e-07 -5.12108e-07)
(2.01526e-07 4.80912e-08 -5.86897e-07)
(-4.64172e-08 -1.06352e-08 -8.73539e-07)
(1.26579e-07 2.93098e-08 -7.37521e-07)
(-3.2408e-07 -2.08537e-07 -9.56356e-07)
(3.70365e-07 2.75575e-07 -1.17218e-06)
(-4.40818e-07 -3.04641e-07 -1.41249e-06)
(5.35865e-07 3.87616e-07 -1.69779e-06)
(-6.3487e-07 -4.54322e-07 -2.05295e-06)
(7.72324e-07 5.49834e-07 -2.45491e-06)
(-9.06783e-07 -6.62322e-07 -2.93045e-06)
(1.08724e-06 7.63582e-07 -3.46221e-06)
(-1.26129e-06 -9.34913e-07 -4.06092e-06)
(1.48753e-06 1.02612e-06 -4.72813e-06)
(-1.69804e-06 -1.27882e-06 -5.4404e-06)
(1.98451e-06 1.3306e-06 -6.22835e-06)
(-2.20943e-06 -1.70713e-06 -7.04366e-06)
(2.6449e-06 1.66769e-06 -7.69943e-06)
(-2.64616e-06 1.62997e-06 -7.45619e-06)
(2.81195e-06 1.36595e-06 -7.31971e-06)
(-2.90431e-06 1.29704e-06 -7.38911e-06)
(2.5494e-06 1.81866e-06 -7.41389e-06)
(-2.12382e-06 2.08844e-06 -7.25814e-06)
(-4.29036e-08 2.34092e-08 -5.8717e-06)
(-1.79591e-06 -2.56805e-06 -7.43609e-06)
(5.29531e-07 1.70013e-06 -7.32139e-06)
(-4.10836e-06 1.19793e-06 -5.81608e-06)
(5.37239e-07 -5.4476e-07 -7.25233e-06)
(-1.23577e-06 4.09928e-06 -5.80447e-06)
(4.87414e-07 -4.99583e-07 -9.4764e-06)
(-5.8261e-08 4.31231e-08 -5.52927e-06)
(-3.54669e-08 2.50888e-08 -4.2859e-06)
(-6.09327e-09 -4.03797e-10 -3.22715e-06)
(6.6244e-09 -1.09624e-08 -2.34907e-06)
(1.04951e-08 -1.40067e-08 -1.65784e-06)
(1.07718e-08 -1.44385e-08 -1.14628e-06)
(8.89487e-09 -1.21186e-08 -8.00211e-07)
(-2.27698e-08 4.13686e-08 -7.92972e-07)
(2.05573e-08 -2.17554e-08 -6.83912e-07)
(6.60663e-10 1.52807e-09 -4.63316e-07)
(-5.02483e-08 -4.92296e-08 -5.00251e-07)
(-3.35593e-09 1.77282e-08 -7.9156e-07)
(7.0416e-08 -6.34178e-08 -5.13851e-07)
(7.04138e-08 6.34168e-08 -5.13851e-07)
(-5.02527e-08 4.92342e-08 -5.00255e-07)
(6.64166e-10 -1.53268e-09 -4.63313e-07)
(-3.34201e-09 -1.77328e-08 -7.91563e-07)
(2.3177e-08 -1.91291e-08 -4.78756e-07)
(1.86571e-07 9.01553e-08 -5.9217e-07)
(-1.85961e-07 9.30695e-08 -5.89322e-07)
(1.27938e-08 -1.13551e-07 -6.53732e-07)
(1.43342e-07 1.0591e-07 -5.70376e-07)
(-1.36419e-08 2.54144e-08 -6.85553e-07)
(4.9005e-09 -3.2281e-09 -4.66777e-07)
(-2.13181e-08 -1.71725e-08 -4.77428e-07)
(2.54e-10 1.64823e-08 -6.9855e-07)
(2.00902e-09 -1.48291e-08 -7.89096e-07)
(1.94874e-08 -1.55531e-08 -7.90122e-07)
(1.27671e-08 -7.54908e-13 -8.00779e-07)
(1.94869e-08 1.55506e-08 -7.90117e-07)
(-1.36621e-08 -2.54365e-08 -6.8555e-07)
(-3.88019e-08 4.24723e-08 -4.85089e-07)
(-9.22511e-08 -8.06818e-08 -5.21972e-07)
(-2.77505e-08 6.55266e-10 -8.17122e-07)
(2.04156e-08 -8.93948e-08 -5.56041e-07)
(2.04162e-08 8.94021e-08 -5.56041e-07)
(-9.2254e-08 8.06845e-08 -5.21969e-07)
(-3.97096e-09 -2.03046e-13 -7.16891e-07)
(5.767e-08 -5.6096e-08 -5.06947e-07)
(-6.849e-08 -6.14924e-08 -5.10802e-07)
(-6.84971e-08 6.1497e-08 -5.10794e-07)
(1.16163e-09 -1.69182e-08 -7.9096e-07)
(5.76773e-08 5.60975e-08 -5.06943e-07)
(-1.25084e-09 -8.33874e-09 -6.69948e-07)
(-1.25816e-08 -1.27366e-12 -6.35059e-07)
(-1.65249e-08 -4.47367e-08 -6.2308e-07)
(-1.52347e-08 -2.0001e-08 -5.78515e-07)
(6.81921e-08 5.82605e-08 -6.55023e-07)
(-1.55104e-08 -1.52151e-08 -6.26802e-07)
(-5.10899e-09 4.88535e-12 -6.52235e-07)
(-1.13413e-07 3.45613e-12 -8.95453e-07)
(1.46825e-08 -1.62753e-12 -7.24886e-07)
(-4.63605e-08 -8.676e-08 -5.32633e-07)
(7.20678e-08 6.15912e-08 -7.60884e-07)
(7.60909e-08 1.70557e-07 -5.65551e-07)
(1.68252e-07 -4.15983e-08 -4.91097e-07)
(1.19337e-07 1.35589e-07 -5.98483e-07)
(-3.14753e-07 -1.82701e-07 -6.35331e-07)
(2.08416e-07 2.18137e-07 -9.23566e-07)
(-3.4318e-07 -2.38011e-07 -1.00371e-06)
(-3.43162e-07 2.37999e-07 -1.00371e-06)
(-8.62702e-09 3.10882e-08 -7.1565e-07)
(-3.52367e-07 2.80052e-07 -1.23386e-06)
(7.50301e-09 1.99672e-08 -8.50968e-07)
(3.96419e-07 -3.50859e-07 -1.47632e-06)
(-4.91235e-07 4.10646e-07 -1.7889e-06)
(5.64135e-09 1.10511e-08 -1.2331e-06)
(5.79454e-07 -5.03205e-07 -2.14033e-06)
(-7.04132e-07 5.99087e-07 -2.57558e-06)
(1.0243e-09 1.9375e-09 -1.77011e-06)
(8.29717e-07 -7.1314e-07 -3.0565e-06)
(-9.89943e-07 8.50657e-07 -3.62016e-06)
(-7.3753e-09 -1.27382e-08 -2.47402e-06)
(1.15338e-06 -9.82289e-07 -4.24012e-06)
(-1.34534e-06 1.16905e-06 -4.928e-06)
(-2.25259e-08 -4.52589e-08 -3.34716e-06)
(1.56041e-06 -1.30667e-06 -5.68863e-06)
(-1.75319e-06 1.55627e-06 -6.48168e-06)
(-4.28128e-08 -1.2609e-07 -4.37336e-06)
(2.10744e-06 -1.67535e-06 -7.32843e-06)
(-2.13971e-06 2.00468e-06 -8.34726e-06)
(-1.16839e-07 -3.47347e-07 -5.706e-06)
(3.24088e-06 -2.19567e-06 -8.72695e-06)
(5.26102e-07 -1.01714e-06 -5.99547e-06)
(3.76445e-06 -2.26758e-06 -7.64626e-06)
(3.76444e-06 2.26761e-06 -7.64623e-06)
(-3.44478e-07 -1.36374e-07 -8.01903e-06)
(8.26701e-07 -6.21158e-07 -8.02548e-06)
(-3.02856e-07 1.17881e-06 -7.23955e-06)
(1.19517e-06 1.05169e-06 -6.71926e-06)
(6.00197e-08 -1.00783e-11 -9.63326e-06)
(-7.61072e-07 -7.46264e-07 -6.43301e-06)
(-7.61074e-07 7.46272e-07 -6.43306e-06)
(8.26337e-07 7.79128e-07 -6.48357e-06)
(-4.1591e-08 -5.79129e-12 -9.64873e-06)
(-9.75806e-07 -9.38941e-07 -6.56794e-06)
(-9.75793e-07 9.38942e-07 -6.56796e-06)
(2.60861e-07 3.795e-07 -6.22888e-06)
(-3.11192e-07 -3.72307e-12 -9.50303e-06)
(-1.37325e-06 -2.44638e-06 -7.9123e-06)
(-1.37326e-06 2.44636e-06 -7.91227e-06)
(4.55923e-07 -1.52515e-06 -9.03292e-06)
(1.93838e-06 1.59393e-11 -1.27605e-05)
(4.55935e-07 1.52511e-06 -9.03294e-06)
(7.33797e-07 -1.18993e-06 -9.17682e-06)
(2.11711e-06 7.55431e-07 -1.26125e-05)
(8.89785e-07 1.74091e-06 -9.14165e-06)
(1.2145e-06 1.21112e-06 -1.06222e-05)
(1.58913e-06 1.58554e-06 -9.28829e-06)
(-2.37229e-06 -2.35233e-06 -9.07867e-06)
(-1.38059e-06 1.67169e-06 -7.5241e-06)
(1.36754e-06 2.21573e-07 -8.79069e-06)
(8.86517e-07 1.41445e-07 -1.01482e-05)
(-1.86969e-09 2.28187e-08 -9.49937e-06)
(2.6087e-07 -3.79509e-07 -6.22887e-06)
(-1.56751e-07 -1.38061e-07 -5.94308e-06)
(-4.01042e-07 -3.91429e-07 -9.36809e-06)
(1.66176e-06 -1.3474e-06 -7.55523e-06)
(-1.20959e-06 7.30269e-07 -9.17996e-06)
(7.49081e-07 2.08908e-06 -1.26128e-05)
(1.74074e-06 8.87741e-07 -9.14746e-06)
(9.94927e-07 9.97083e-07 -1.01548e-05)
(-5.25872e-07 -5.12092e-07 -9.23821e-06)
(-7.08185e-07 1.27409e-11 -9.33699e-06)
(-5.25847e-07 5.12121e-07 -9.23816e-06)
(-4.01063e-07 3.91431e-07 -9.36808e-06)
(-1.38055e-06 -1.6717e-06 -7.52408e-06)
(-2.37226e-06 2.35228e-06 -9.07871e-06)
(8.89799e-07 -1.74107e-06 -9.1414e-06)
(2.11717e-06 -7.55536e-07 -1.26126e-05)
(7.33849e-07 1.1899e-06 -9.17674e-06)
(1.36755e-06 -2.21612e-07 -8.7908e-06)
(8.86532e-07 -1.41453e-07 -1.01482e-05)
(9.95054e-07 -9.9698e-07 -1.01547e-05)
(1.74059e-06 -8.87808e-07 -9.14783e-06)
(7.48959e-07 -2.08905e-06 -1.26126e-05)
(-1.2096e-06 -7.30305e-07 -9.18007e-06)
(1.66171e-06 1.34738e-06 -7.55521e-06)
(2.064e-07 -1.37666e-06 -8.78227e-06)
(1.50148e-06 -5.00356e-07 -9.09289e-06)
(-3.82359e-08 -1.93425e-06 -1.277e-05)
(-1.56791e-06 -4.40782e-07 -9.04544e-06)
(2.43357e-06 1.27008e-06 -7.93709e-06)
(-3.89297e-08 3.03226e-07 -9.51694e-06)
(-4.34384e-07 -2.95254e-07 -6.22662e-06)
(-2.50637e-06 1.38066e-06 -7.92071e-06)
(-4.62582e-08 -2.75501e-07 -9.09577e-06)
(-2.93487e-07 -3.33221e-07 -9.19328e-06)
(1.71938e-08 8.73668e-09 -5.86767e-06)
(1.4267e-08 -1.34194e-08 -4.5636e-06)
(6.9503e-09 -2.95982e-08 -3.44296e-06)
(4.01859e-09 -3.21592e-08 -2.50923e-06)
(2.31881e-09 -2.9171e-08 -1.77253e-06)
(5.79654e-10 -2.48823e-08 -1.2261e-06)
(-6.39012e-10 -1.99067e-08 -8.55926e-07)
(-7.18414e-09 -2.29883e-08 -8.45714e-07)
(3.26682e-07 -1.96827e-07 -9.30883e-07)
(-3.53228e-07 -1.67658e-07 -9.18891e-07)
(3.56323e-07 -1.51099e-07 -9.21994e-07)
(-3.20693e-07 -2.30075e-07 -9.27332e-07)
(3.59242e-07 3.11425e-07 -1.11545e-06)
(-4.53009e-07 -3.44977e-07 -1.34842e-06)
(5.30743e-07 4.43189e-07 -1.61341e-06)
(-6.54413e-07 -5.15313e-07 -1.96096e-06)
(7.7177e-07 6.29328e-07 -2.33477e-06)
(-9.31195e-07 -7.53617e-07 -2.80201e-06)
(1.09379e-06 8.73066e-07 -3.29516e-06)
(-1.28948e-06 -1.07041e-06 -3.88909e-06)
(1.50307e-06 1.17079e-06 -4.50137e-06)
(-1.72707e-06 -1.47334e-06 -5.22259e-06)
(1.99382e-06 1.51125e-06 -5.92329e-06)
(-2.20627e-06 -1.94284e-06 -6.78691e-06)
(-3.54414e-08 3.43843e-08 -5.86676e-06)
(1.85804e-06 -1.84883e-06 -6.52319e-06)
(1.88257e-06 2.1968e-06 -6.76528e-06)
(1.35501e-06 -2.42532e-06 -6.63904e-06)
(-1.07085e-06 2.24601e-06 -5.91379e-06)
(2.69328e-08 -8.88268e-12 -4.66844e-06)
(-1.07064e-06 -2.24598e-06 -5.91385e-06)
(1.02859e-06 1.91499e-06 -5.14256e-06)
(1.42032e-06 -1.72096e-06 -5.21175e-06)
(1.40827e-06 1.39583e-06 -5.05751e-06)
(-1.17072e-06 -1.14709e-06 -4.41898e-06)
(-1.13828e-06 1.5163e-06 -4.51101e-06)
(3.8879e-08 9.77887e-09 -3.43263e-06)
(1.03083e-06 1.01884e-06 -3.78274e-06)
(6.11217e-09 4.59073e-08 -3.4274e-06)
(1.50323e-06 -1.17068e-06 -4.50147e-06)
(-2.26342e-08 -5.12024e-08 -3.96454e-06)
(-1.72211e-06 -7.74918e-07 -4.48668e-06)
(1.67905e-06 -8.8656e-07 -4.47034e-06)
(-3.67039e-09 4.56937e-08 -3.50062e-06)
(-1.44246e-06 8.04663e-07 -3.85147e-06)
(1.33391e-06 8.79258e-07 -3.84889e-06)
(-1.57615e-06 -9.91223e-07 -4.4941e-06)
(-3.67696e-09 -5.6838e-08 -3.96813e-06)
(-1.93015e-06 1.10394e-06 -5.1611e-06)
(-7.19202e-09 2.97537e-08 -4.65365e-06)
(2.22226e-06 -1.13525e-06 -5.87979e-06)
(-2.44938e-06 1.43785e-06 -6.67777e-06)
(-1.28976e-08 -5.78745e-08 -5.94993e-06)
(-2.90432e-06 -1.29702e-06 -7.38908e-06)
(-9.12028e-08 -1.13699e-08 -6.62136e-06)
(1.34e-06 8.3664e-08 -7.03952e-06)
(-6.33627e-08 -1.07963e-06 -1.11757e-05)
(2.06443e-07 1.37662e-06 -8.7823e-06)
(-2.5064e-06 -1.38071e-06 -7.92065e-06)
(-4.34364e-07 2.95229e-07 -6.2266e-06)
(7.85105e-08 1.00971e-07 -9.21562e-06)
(-3.2334e-08 -1.22795e-08 -7.00085e-06)
(-2.82096e-08 -1.11001e-11 -6.17742e-06)
(-2.40134e-08 2.22886e-08 -5.79202e-06)
(-1.48838e-08 -1.16126e-09 -4.51581e-06)
(-7.55108e-09 -1.89284e-08 -3.40642e-06)
(-3.45422e-09 -2.3809e-08 -2.48192e-06)
(-1.40818e-09 -2.28646e-08 -1.75249e-06)
(-4.59168e-10 -2.01523e-08 -1.21193e-06)
(1.20035e-10 -1.61225e-08 -8.45736e-07)
(2.01153e-09 1.48281e-08 -7.89095e-07)
(2.55098e-10 -1.64827e-08 -6.98546e-07)
(-2.13091e-08 1.71712e-08 -4.77429e-07)
(1.15473e-09 1.69067e-08 -7.90953e-07)
(4.89829e-09 3.23316e-09 -4.66768e-07)
(1.43339e-07 -1.05915e-07 -5.70378e-07)
(1.27845e-08 1.13555e-07 -6.53734e-07)
(-5.77473e-09 -7.66486e-08 -9.2324e-07)
(-1.69888e-07 5.63383e-08 -6.99625e-07)
(1.50029e-07 3.23869e-08 -6.95654e-07)
(-1.50145e-07 2.66915e-08 -6.91881e-07)
(1.641e-07 6.99262e-08 -7.05929e-07)
(-6.75628e-08 4.96048e-08 -6.62879e-07)
(3.14163e-07 -1.40389e-08 -5.17027e-07)
(-8.61534e-08 -1.85401e-07 -7.41655e-07)
(2.18303e-07 3.13908e-07 -9.26489e-07)
(1.69582e-08 -5.53757e-11 -8.41247e-07)
(-2.94842e-07 -3.63623e-07 -1.13472e-06)
(-2.96602e-07 2.93983e-07 -1.07011e-06)
(2.66498e-07 -2.42395e-07 -9.03273e-07)
(9.3509e-09 -2.24213e-08 -8.32146e-07)
(-3.85028e-09 7.13325e-09 -8.9597e-07)
(-3.36684e-08 9.06653e-08 -7.3599e-07)
(8.79149e-10 9.20656e-08 -7.38931e-07)
(3.81835e-08 9.13805e-08 -7.35814e-07)
(7.61666e-08 5.73522e-08 -7.21015e-07)
(9.77016e-08 6.45219e-08 -6.92325e-07)
(-2.9646e-09 1.91364e-09 -9.02442e-07)
(1.28367e-08 2.42734e-08 -9.13646e-07)
(3.95449e-08 2.97007e-08 -7.65805e-07)
(3.09937e-09 7.59267e-09 -8.9891e-07)
(-9.59508e-09 -2.59497e-08 -1.29067e-06)
(-7.24574e-09 -4.94471e-10 -1.31503e-06)
(-1.57541e-08 -1.00776e-08 -1.29046e-06)
(-2.64197e-08 -2.0065e-08 -1.86381e-06)
(-2.27825e-08 -1.94723e-08 -1.91257e-06)
(1.13421e-08 1.15373e-08 -1.59036e-06)
(1.39605e-08 1.50239e-08 -1.08966e-06)
(5.7024e-09 1.75157e-08 -1.06023e-06)
(-3.74856e-07 2.69277e-07 -1.10426e-06)
(4.0416e-07 2.36858e-07 -1.1093e-06)
(-5.03817e-07 -2.54383e-07 -1.33673e-06)
(5.07803e-07 -2.2218e-07 -1.33699e-06)
(-2.55397e-09 1.6013e-08 -1.0006e-06)
(-4.10057e-07 2.1408e-07 -1.10364e-06)
(-1.26405e-10 -2.52217e-08 -8.52304e-07)
(1.26271e-10 1.21361e-08 -9.00472e-07)
(3.22373e-10 -2.35021e-08 -1.29141e-06)
(6.8203e-10 -5.57989e-08 -1.88409e-06)
(-1.643e-08 -5.65374e-08 -1.88149e-06)
(-2.42709e-08 -9.39708e-08 -2.68e-06)
(-4.30777e-08 -4.18005e-08 -2.72164e-06)
(-4.06018e-08 -3.25672e-08 -2.63988e-06)
(-5.94293e-08 -4.89999e-08 -3.62816e-06)
(-7.37894e-08 -7.6764e-08 -3.75426e-06)
(9.29831e-10 -4.20266e-10 -3.20792e-06)
(8.18269e-09 7.27807e-09 -2.29052e-06)
(8.7305e-09 1.64427e-08 -2.22998e-06)
(-8.10204e-07 5.28374e-07 -2.32365e-06)
(8.666e-07 4.80575e-07 -2.32042e-06)
(-1.04062e-06 -5.65784e-07 -2.7778e-06)
(1.04739e-06 -4.89595e-07 -2.76893e-06)
(-8.43512e-09 3.2069e-08 -2.09411e-06)
(-8.839e-07 4.19491e-07 -2.31892e-06)
(7.35367e-07 -3.33091e-07 -1.94107e-06)
(-5.35404e-09 2.38816e-08 -1.45649e-06)
(-6.07833e-07 2.99101e-07 -1.60002e-06)
(-5.27101e-10 -2.83787e-08 -1.22996e-06)
(5.972e-07 3.39238e-07 -1.60408e-06)
(-7.30009e-07 -3.84752e-07 -1.94468e-06)
(1.9125e-09 2.5193e-08 -1.46006e-06)
(-5.56561e-07 3.74786e-07 -1.60277e-06)
(4.68371e-07 -2.89899e-07 -1.34641e-06)
(1.91657e-09 1.71746e-08 -1.00287e-06)
(3.94193e-10 3.05728e-09 -1.11485e-06)
(-1.0746e-08 -9.91692e-09 -1.06748e-06)
(-3.52325e-07 -2.8001e-07 -1.23386e-06)
(1.14268e-08 3.3847e-09 -7.0241e-07)
(2.69952e-07 2.5002e-07 -1.05294e-06)
(1.15016e-08 -3.46796e-08 -6.23437e-07)
(-3.11833e-07 -2.08484e-07 -8.49187e-07)
(-1.65622e-07 -4.36586e-08 -5.02992e-07)
(5.67223e-08 -1.8081e-08 -6.24436e-07)
(-1.5675e-08 -3.64339e-09 -7.42184e-07)
(-6.88853e-10 6.52259e-09 -7.66359e-07)
(-2.68314e-09 1.75487e-08 -7.28537e-07)
(4.39677e-09 3.36332e-08 -7.53489e-07)
(-5.4518e-09 3.25155e-08 -7.53014e-07)
(6.22144e-09 -7.85734e-08 -9.19788e-07)
(-3.71426e-08 3.09671e-08 -7.85023e-07)
(-6.11166e-08 5.6968e-08 -7.18259e-07)
(-4.02197e-08 3.54357e-08 -7.14125e-07)
(1.01083e-08 4.12524e-09 -9.10363e-07)
(-2.05535e-08 1.71043e-08 -8.95498e-07)
(-1.74477e-08 1.69148e-08 -1.10578e-06)
(-7.25717e-09 1.66399e-08 -1.05863e-06)
(1.03866e-08 -2.6215e-08 -1.28446e-06)
(1.94888e-08 -5.74739e-08 -1.87311e-06)
(3.01098e-08 -9.64977e-08 -2.67133e-06)
(9.42186e-10 -9.5794e-08 -2.68668e-06)
(9.26251e-10 -1.55389e-07 -3.70794e-06)
(-3.50163e-08 -1.48057e-07 -3.6951e-06)
(-5.47909e-08 -2.41464e-07 -4.92559e-06)
(-1.28389e-07 -1.48056e-07 -5.01453e-06)
(-8.50564e-08 -7.27441e-08 -4.82338e-06)
(-1.57816e-07 -1.43804e-07 -6.18167e-06)
(-2.87224e-07 -3.45313e-07 -6.52489e-06)
(-5.98639e-08 -5.26426e-08 -5.69332e-06)
(-1.57415e-08 -1.67904e-08 -4.34883e-06)
(6.93446e-09 4.63453e-09 -4.25436e-06)
(-1.57612e-06 9.91239e-07 -4.494e-06)
(1.67897e-06 8.86668e-07 -4.47025e-06)
(-1.9302e-06 -1.1039e-06 -5.16111e-06)
(1.93126e-06 -9.68187e-07 -5.12353e-06)
(-2.27015e-08 5.12118e-08 -3.96458e-06)
(-1.72202e-06 7.74955e-07 -4.48664e-06)
(1.449e-06 -6.98767e-07 -3.83333e-06)
(-1.32705e-08 4.08125e-08 -2.92971e-06)
(-1.25227e-06 5.78153e-07 -3.27729e-06)
(-1.86954e-09 -4.19111e-08 -2.54211e-06)
(1.22492e-06 6.64143e-07 -3.27363e-06)
(-1.44248e-06 -8.04612e-07 -3.85146e-06)
(-4.26215e-10 4.42983e-08 -2.93413e-06)
(-1.14815e-06 7.33445e-07 -3.28355e-06)
(9.65617e-07 -6.21361e-07 -2.78216e-06)
(1.2269e-09 3.41526e-08 -2.09847e-06)
(5.56405e-10 5.91814e-09 -2.3203e-06)
(8.40893e-10 4.46391e-09 -1.61843e-06)
(-1.24913e-08 -1.3772e-08 -1.54568e-06)
(-4.91219e-07 -4.10599e-07 -1.78889e-06)
(6.26603e-09 1.98254e-09 -1.01777e-06)
(3.96429e-07 3.50862e-07 -1.47629e-06)
(7.52328e-09 -1.99711e-08 -8.50968e-07)
(2.81602e-08 -6.25857e-09 -8.65425e-07)
(-4.60248e-07 -3.50005e-07 -1.43833e-06)
(5.20086e-07 4.40927e-07 -1.73522e-06)
(-6.56815e-07 -5.12322e-07 -2.08041e-06)
(-6.56806e-07 5.12338e-07 -2.08037e-06)
(-1.58812e-09 1.11355e-08 -1.47212e-06)
(7.61231e-07 -6.32236e-07 -2.49181e-06)
(8.24514e-09 6.90956e-09 -1.79983e-06)
(-9.31875e-07 7.35369e-07 -2.96367e-06)
(-1.33232e-09 4.43037e-09 -2.08426e-06)
(1.07733e-06 -8.852e-07 -3.50073e-06)
(-1.59095e-09 8.52729e-09 -2.51319e-06)
(-1.28218e-06 1.02304e-06 -4.10293e-06)
(-1.71854e-10 -1.03459e-08 -2.86432e-06)
(1.47565e-06 -1.19758e-06 -4.76425e-06)
(-2.78893e-08 7.40079e-09 -3.39348e-06)
(-1.68284e-06 1.37454e-06 -5.49695e-06)
(9.66447e-09 -5.35124e-08 -3.80734e-06)
(1.96942e-06 -1.55502e-06 -6.25125e-06)
(-1.15698e-07 -7.03767e-09 -4.41824e-06)
(-2.05282e-06 1.78213e-06 -7.13747e-06)
(6.25603e-08 -2.03381e-07 -4.885e-06)
(2.6368e-06 -1.88446e-06 -7.77186e-06)
(-4.46664e-07 -1.55547e-07 -5.59122e-06)
(-2.06823e-06 2.12896e-06 -9.12262e-06)
(-2.77704e-07 -3.98745e-11 -7.33204e-06)
(-2.06818e-06 -2.12897e-06 -9.12263e-06)
(5.26094e-07 1.01698e-06 -5.99547e-06)
(3.24092e-06 2.19579e-06 -8.72681e-06)
(-1.16808e-07 3.47203e-07 -5.70597e-06)
(-2.1396e-06 -2.0046e-06 -8.34727e-06)
(-8.92586e-08 -2.22165e-08 -4.87492e-06)
(2.10735e-06 1.6753e-06 -7.32833e-06)
(-4.27959e-08 1.26004e-07 -4.37332e-06)
(-1.75318e-06 -1.55618e-06 -6.48165e-06)
(-4.58637e-08 -6.9318e-09 -3.82578e-06)
(1.56048e-06 1.30684e-06 -5.68858e-06)
(-2.24852e-08 4.51674e-08 -3.34718e-06)
(-1.34513e-06 -1.16892e-06 -4.92802e-06)
(-2.07218e-08 -3.25075e-09 -2.88045e-06)
(1.15344e-06 9.82412e-07 -4.2401e-06)
(-7.33247e-09 1.26206e-08 -2.47398e-06)
(-9.899e-07 -8.5062e-07 -3.62018e-06)
(-7.77153e-09 -9.14856e-10 -2.09442e-06)
(8.29718e-07 7.1319e-07 -3.05642e-06)
(1.06999e-09 -1.99066e-09 -1.77009e-06)
(-7.04108e-07 -5.99046e-07 -2.5756e-06)
(1.3469e-10 7.31762e-10 -1.47597e-06)
(5.79462e-07 5.0324e-07 -2.14027e-06)
(5.68264e-09 -1.10411e-08 -1.23309e-06)
(1.59908e-08 -5.71672e-09 -1.25425e-06)
(-2.26868e-08 -2.17658e-08 -1.58938e-06)
(-2.21382e-08 -1.53139e-08 -1.11037e-06)
(-1.96913e-08 -5.68645e-09 -8.04571e-07)
(9.46721e-08 4.59233e-08 -6.755e-07)
(7.73546e-09 -2.18993e-11 -6.48583e-07)
(-4.03434e-08 -1.11853e-12 -7.11472e-07)
(-5.3576e-08 -4.06313e-11 -9.28962e-07)
(-6.14044e-08 3.42182e-12 -1.29983e-06)
(-7.41354e-08 3.39776e-11 -1.85762e-06)
(-9.12909e-08 5.86746e-11 -2.61861e-06)
(-1.0194e-07 1.14785e-10 -3.58798e-06)
(-7.48454e-08 3.83716e-10 -4.75442e-06)
(3.85486e-08 1.27694e-10 -6.06945e-06)
(1.80156e-07 -3.53115e-11 -7.24388e-06)
(-1.62072e-07 -1.17177e-10 -8.16926e-06)
(-1.33351e-06 6.31563e-07 -8.08265e-06)
(-1.33352e-06 -6.31655e-07 -8.08265e-06)
(-1.37667e-06 -8.80722e-07 -7.55602e-06)
(-1.13636e-06 -8.44549e-07 -8.75174e-06)
(-4.10666e-07 -2.49474e-07 -7.12635e-06)
(-1.49785e-07 -4.54526e-07 -6.39115e-06)
(-6.16079e-07 -1.41809e-06 -8.51351e-06)
(1.00996e-06 4.21497e-06 -5.92779e-06)
(1.64715e-06 -3.87282e-07 -7.171e-06)
(2.99133e-08 2.71552e-08 -6.62621e-06)
(7.10496e-09 -1.60143e-08 -6.80203e-06)
(9.80814e-08 -2.6503e-08 -6.60332e-06)
(-4.46606e-07 1.55557e-07 -5.59121e-06)
(2.63665e-06 1.88458e-06 -7.77176e-06)
(6.26233e-08 2.03268e-07 -4.88494e-06)
(-2.05281e-06 -1.78206e-06 -7.13748e-06)
(-1.87641e-07 -1.3655e-11 -5.73552e-06)
(-5.85103e-08 -1.39179e-11 -5.8984e-06)
(-5.8296e-08 -1.61245e-11 -4.58002e-06)
(9.76604e-09 5.3492e-08 -3.80726e-06)
(-1.68284e-06 -1.37452e-06 -5.49699e-06)
(1.96937e-06 1.55505e-06 -6.25111e-06)
(-1.15697e-07 7.03445e-09 -4.41831e-06)
(-7.33872e-10 -1.98559e-08 -5.41459e-06)
(-1.71371e-08 -2.2736e-08 -4.1622e-06)
(-2.7937e-08 -7.42884e-09 -3.39347e-06)
(1.47546e-06 1.19761e-06 -4.76415e-06)
(-1.12789e-10 1.03186e-08 -2.86429e-06)
(-1.28209e-06 -1.02306e-06 -4.10302e-06)
(-3.36645e-08 1.6459e-11 -3.34365e-06)
(-5.14604e-08 -1.97087e-12 -3.45287e-06)
(-4.24167e-08 -7.09264e-12 -2.51734e-06)
(-3.22522e-08 -1.04064e-11 -1.78071e-06)
(-1.54933e-09 -1.11875e-08 -1.4721e-06)
(7.61222e-07 6.32254e-07 -2.49172e-06)
(-9.31876e-07 -7.35362e-07 -2.96374e-06)
(1.07729e-06 8.85259e-07 -3.50064e-06)
(-1.58808e-09 -8.49989e-09 -2.51313e-06)
(-1.83812e-08 -2.13572e-08 -3.0862e-06)
(-1.56313e-08 -1.78431e-08 -2.21377e-06)
(1.87952e-09 -1.00434e-11 -1.87419e-06)
(1.09128e-09 -6.10109e-12 -1.29774e-06)
(-4.42845e-10 2.00135e-12 -9.1054e-07)
(-1.30089e-08 -1.29477e-12 -8.69938e-07)
(-8.62383e-09 -3.11002e-08 -7.15654e-07)
(3.44468e-07 3.07693e-07 -1.21586e-06)
(2.15181e-08 -3.2638e-12 -8.47743e-07)
(3.44494e-07 -3.077e-07 -1.21586e-06)
(2.81375e-08 6.26836e-09 -8.65422e-07)
(-4.60223e-07 3.5002e-07 -1.43832e-06)
(-3.0791e-09 1.7457e-08 -1.02075e-06)
(5.20138e-07 -4.40937e-07 -1.73529e-06)
(1.60128e-08 5.71108e-09 -1.25426e-06)
(-1.24928e-08 1.37613e-08 -1.54569e-06)
(-2.19925e-08 3.94837e-12 -1.23586e-06)
(-3.07037e-09 -1.74939e-08 -1.02073e-06)
(8.01796e-09 9.74225e-12 -1.19639e-06)
(-1.0741e-08 9.91276e-09 -1.06747e-06)
(-1.56707e-08 3.64255e-09 -7.42187e-07)
(-3.11846e-07 2.08491e-07 -8.49184e-07)
(1.1503e-08 3.46575e-08 -6.23444e-07)
(2.69949e-07 -2.50016e-07 -1.05296e-06)
(5.67131e-08 1.80844e-08 -6.2445e-07)
(2.08406e-07 -2.18133e-07 -9.23569e-07)
(-4.636e-08 8.67684e-08 -5.32625e-07)
(-3.14764e-07 1.82702e-07 -6.35327e-07)
(2.6061e-08 7.43028e-12 -6.72686e-07)
(1.19338e-07 -1.35582e-07 -5.98493e-07)
(1.68252e-07 4.16074e-08 -4.91096e-07)
(7.60829e-08 -1.70571e-07 -5.65549e-07)
(2.01536e-07 -4.80932e-08 -5.86896e-07)
(7.20701e-08 -6.15867e-08 -7.60896e-07)
(2.5501e-08 -6.99681e-09 -6.0609e-07)
(-6.36395e-08 -3.88584e-08 -5.76302e-07)
(3.5511e-08 -2.00774e-08 -6.78096e-07)
(-1.55134e-08 1.52136e-08 -6.26797e-07)
(-1.65186e-08 4.47326e-08 -6.23067e-07)
(6.819e-08 -5.82679e-08 -6.55028e-07)
(-1.52435e-08 2.00076e-08 -5.78459e-07)
(1.03712e-08 -6.04121e-08 -6.70803e-07)
(4.97306e-10 4.47861e-08 -6.29833e-07)
(6.00896e-10 -2.41494e-12 -6.46682e-07)
(4.92888e-10 -4.47863e-08 -6.29825e-07)
(1.49208e-10 -2.22546e-08 -5.79075e-07)
(6.15954e-10 1.19917e-07 -9.09369e-07)
(1.03741e-08 6.04134e-08 -6.70817e-07)
(-1.24505e-09 8.34465e-09 -6.69955e-07)
(3.55118e-08 2.00828e-08 -6.78099e-07)
(-9.70715e-09 -1.55507e-08 -5.29406e-07)
(-6.36426e-08 3.886e-08 -5.76297e-07)
(2.55039e-08 6.99503e-09 -6.06089e-07)
(4.46863e-10 8.56648e-09 -6.70365e-07)
(2.03575e-08 -4.29234e-08 -6.19519e-07)
(1.73601e-08 -1.84279e-08 -5.76031e-07)
(-1.09664e-08 6.02638e-08 -6.72052e-07)
(-6.68561e-08 5.61872e-08 -6.5361e-07)
(2.03373e-08 -1.29677e-08 -6.24273e-07)
(-3.53246e-08 1.45648e-08 -6.62884e-07)
(6.62728e-08 8.12108e-08 -5.00461e-07)
(2.02076e-07 -1.16531e-07 -6.73609e-07)
(-1.16858e-07 1.09545e-07 -6.70877e-07)
(4.00787e-08 -1.55212e-08 -8.89293e-07)
(1.83963e-08 1.77942e-13 -6.31365e-07)
(1.03392e-08 6.20603e-12 -7.10975e-07)
(9.01576e-09 4.22272e-12 -7.85681e-07)
(1.28106e-09 -1.1963e-12 -7.92784e-07)
(-2.12857e-10 1.81327e-13 -7.24358e-07)
(-2.18818e-11 -2.90055e-12 -9.08822e-07)
(-7.01579e-10 -6.3346e-13 -1.29575e-06)
(-1.66737e-09 5.15039e-12 -1.8723e-06)
(-3.84725e-09 -4.38866e-12 -2.64976e-06)
(2.15544e-09 -3.8701e-12 -2.65177e-06)
(2.827e-09 1.74273e-11 -3.63723e-06)
(6.87394e-09 1.43092e-11 -4.81915e-06)
(1.94029e-08 -7.60987e-12 -6.18949e-06)
(-1.5025e-07 -1.34028e-11 -8.89488e-06)
(-3.91719e-07 1.23403e-12 -8.18006e-06)
(1.60786e-06 -5.19429e-11 -1.21441e-05)
(-3.02849e-07 -1.17887e-06 -7.23952e-06)
(8.26715e-07 6.21189e-07 -8.02563e-06)