/*--------------------------------*- C++ -*----------------------------------*\
| =========                 |                                                 |
| \\      /  F ield         | OpenFOAM: The Open Source CFD Toolbox           |
|  \\    /   O peration     | Version:  2306                                  |
|   \\  /    A nd           | Website:  www.openfoam.com                      |
|    \\/     M anipulation  |                                                 |
\*---------------------------------------------------------------------------*/
FoamFile
{
    version     2.0;
    format      ascii;
    arch        "LSB;label=32;scalar=64";
    class       volScalarField;
    location    "2.3";
    object      gradTx;
}
// * * * * * * * * * * * * * * * * * * * * * * * * * * * * * * * * * * * * * //

dimensions      [0 -1 0 1 0 0 0];

internalField   nonuniform List<scalar> 
2658
(
0.00863257
0.0125917
0.00405364
-0.00036662
-0.0181514
-0.0153506
0.0160924
0.0158806
-0.000303109
0.0217903
-0.0146496
-0.010562
0.00697651
0.00834571
0.00639762
-0.000594892
-0.000286847
-7.17621e-05
-0.00702887
-0.00908065
-0.00859415
-0.0199889
-0.0239764
0.0180709
-0.00766539
-0.00944534
-0.0203402
-0.00294478
-0.014897
-0.0159788
-0.0148968
-0.0203406
-0.0094459
-0.0239778
-0.00766495
0.0180707
-0.00992699
0.00458624
-0.0199855
-0.00859658
-0.00908048
-0.0070285
-7.31227e-05
0.000613633
-0.0122435
0.011453
-0.0146493
-0.000541521
-0.000596903
0.0063978
0.00834614
0.00697633
0.0189473
-0.0040415
0.0213163
0.0175114
-0.00938067
0.000908322
-0.0333088
0.0177018
-0.00938013
0.0175118
0.0213162
-0.00404085
0.00459169
-0.0351149
0.00452669
-0.000285352
-0.0114957
-0.011497
-0.000520955
0.0115791
-0.000720376
-0.012621
0.000239187
-0.0132896
0.0170421
-0.000123659
-0.0147623
0.0165062
-0.0195692
-0.000363361
0.0208046
-0.0188575
-0.00049789
-0.000303112
-5.1887e-05
5.68028e-05
8.96101e-05
9.19846e-05
7.60018e-05
-0.000194597
0.000175661
-0.00118996
0.000805125
-0.000144024
-0.000998639
5.28398e-06
0.00100505
-0.000818613
0.000443465
0.00113755
0.000992024
0.000813291
0.000846605
-0.00171478
-0.000331689
-0.000237222
-8.29069e-05
0.000470718
0.00101076
0.000403409
0.000802865
0.000403354
0.00101077
0.000470678
0.00084665
-0.00171476
0.000992095
0.000813378
0.00113755
0.000443398
-0.000818655
0.00100507
-0.00158933
0.00159459
-0.00118991
-0.000143992
-0.000998654
0.000805092
-0.00045163
-0.00110873
-0.000759754
-0.00069117
-0.000439571
4.97441e-05
-0.000203919
-0.00118931
0.00097462
0.000974103
-0.000203847
4.95059e-05
0.000465028
-0.000484825
-0.000557611
-0.000483686
0.000268412
0.000347269
-0.000973778
-0.00101328
-0.000846266
-0.00107252
-0.00104982
-0.00108738
-0.000839452
-0.00149141
-0.00135721
-0.000573231
-0.000652863
-0.000475371
2.74538e-06
9.91175e-07
-5.0074e-06
0.000457432
0.000649929
0.000584798
0.00138488
0.00172245
-0.000396728
0.00108187
-0.00276991
0.00316551
-0.00376768
0.00458004
-0.00542624
0.00660106
-0.00775028
0.00929265
-0.0107803
0.0127139
-0.0145132
0.0169616
-0.018884
0.022606
-0.0226167
0.0240337
-0.0248232
0.0217898
-0.0181523
-0.000366697
-0.0153496
0.0045259
-0.0351142
0.00459179
-0.0105622
0.00416593
-0.000497958
-0.000303136
-5.20792e-05
5.66188e-05
8.97018e-05
9.20668e-05
7.60245e-05
-0.000194613
0.000175704
5.64669e-06
-0.000429473
-2.86831e-05
0.000601846
0.000601828
-0.00042951
5.67663e-06
-2.85642e-05
0.000198094
0.00159463
-0.00158941
0.000109348
0.00122514
-0.000116597
4.18846e-05
-0.000182206
2.17094e-06
1.71711e-05
0.000166559
0.000109121
0.000166555
-0.00011677
-0.00033164
-0.000788471
-0.000237184
0.000174493
0.000174498
-0.000788496
-3.39399e-05
0.000492906
-0.000585384
-0.000585445
9.92849e-06
0.000492969
-1.0691e-05
-0.000107535
-0.000141238
-0.000130211
0.000582839
-0.000132567
-4.36665e-05
-0.000969338
0.000125492
-0.000396243
0.000615964
0.000650349
0.00143805
0.00101997
-0.0026902
0.00178134
-0.00293316
-0.00293301
-7.37352e-05
-0.00301169
6.41283e-05
0.0033882
-0.00419859
4.82166e-05
0.0049526
-0.00601822
8.75472e-06
0.0070916
-0.00846105
-6.30367e-05
0.00985797
-0.0114986
-0.000192529
0.0133368
-0.0149846
-0.000365922
0.0180123
-0.0182882
-0.000998626
0.0276998
0.0044966
0.0321748
0.0321747
-0.00294426
0.00706582
-0.00258851
0.0102151
0.000512989
-0.00650489
-0.00650491
0.00706271
-0.000355478
-0.00834022
-0.00834011
0.00222958
-0.00265976
-0.0117371
-0.0117372
0.00389678
0.0165674
0.00389688
0.00627177
0.0180949
0.007605
0.0103804
0.0135823
-0.020276
-0.0117999
0.0116884
0.00757707
-1.59803e-05
0.00222966
-0.00133975
-0.00342771
0.0142031
-0.0103383
0.0064024
0.0148781
0.00850365
-0.00449463
-0.00605286
-0.00449442
-0.00342789
-0.0117996
-0.0202758
0.00760512
0.0180955
0.00627221
0.0116884
0.00757719
0.00850473
0.0148769
0.00640136
-0.0103385
0.0142026
0.00176411
0.0128332
-0.000326803
-0.013401
0.0207997
-0.000332733
-0.00371268
-0.021422
-0.00039537
-0.00250843
0.000146955
0.00012194
5.94043e-05
3.43469e-05
1.98189e-05
4.9543e-06
-5.46165e-06
-6.14029e-05
0.00279216
-0.00301904
0.0030455
-0.00274097
0.00307045
-0.00387187
0.00453627
-0.00559327
0.00659632
-0.00795894
0.00934865
-0.0110212
0.0128467
-0.0147612
0.0170412
-0.018857
-0.000302918
0.0158807
0.0160903
0.0115813
-0.00915256
0.000230195
-0.00915076
0.00879133
0.0121395
0.0120365
-0.0100062
-0.00972885
0.000332299
0.0088105
5.22408e-05
0.0128481
-0.000193454
-0.0147189
0.0143509
-3.13709e-05
-0.0123287
0.011401
-0.0134714
-3.1427e-05
-0.016497
-6.14703e-05
0.0189937
-0.0209349
-0.000110236
-0.0248232
-0.000779511
0.011453
-0.000541562
0.00176447
-0.0214222
-0.00371252
0.00067103
-0.000276359
-0.000241107
-0.000205242
-0.000127212
-6.45391e-05
-2.95233e-05
-1.20358e-05
-3.92451e-06
1.02594e-06
1.71925e-05
2.18033e-06
-0.000182129
9.86949e-06
4.18657e-05
0.00122512
0.000109269
-4.93567e-05
-0.00145204
0.0012823
-0.00128329
0.00140256
-0.00057746
0.00268515
-0.000736354
0.00186584
0.000144942
-0.00252002
-0.00253506
0.00227776
7.99223e-05
-3.29083e-05
-0.000287764
7.51409e-06
0.000326355
0.000650997
0.000835056
-2.53385e-05
0.000109715
0.000337991
2.64904e-05
-8.20092e-05
-6.19294e-05
-0.000134651
-0.000225809
-0.000194722
9.69413e-05
0.00011932
4.87384e-05
-0.0032039
0.00345436
-0.00430613
0.0043402
-2.18288e-05
-0.00350476
-1.08039e-06
1.07924e-06
2.75532e-06
5.82932e-06
-0.000140428
-0.000207444
-0.000368186
-0.000347024
-0.000507943
-0.000630678
7.94727e-06
6.99375e-05
7.46197e-05
-0.00692482
0.00740684
-0.0088942
0.00895209
-7.2095e-05
-0.0075547
0.00628519
-4.5761e-05
-0.00519515
-4.50513e-06
0.00510427
-0.00623939
1.63461e-05
-0.00475693
0.00400317
1.6381e-05
3.36917e-06
-9.18457e-05
-0.00301132
9.7665e-05
0.00230728
9.83039e-05
-0.00266524
-0.00141557
0.000484806
-0.000133974
-5.88763e-06
-2.29328e-05
3.75792e-05
-4.65966e-05
5.31747e-05
-0.000317458
-0.000522364
-0.000343758
8.63956e-05
-0.000175671
-0.000149125
-6.20271e-05
8.8774e-05
0.000166571
0.000257349
8.05288e-06
7.91667e-06
-0.000299285
-0.000468298
-0.00109734
-0.000726978
-0.00134885
-0.00245491
-0.000511657
-0.000134543
5.92689e-05
-0.0134711
0.0143502
-0.0164974
0.0165065
-0.00019403
-0.0147181
0.0123846
-0.000113423
-0.0107032
-1.5979e-05
0.0104694
-0.0123289
-3.64287e-06
-0.00981327
0.00825314
1.04863e-05
4.75559e-06
7.18712e-06
-0.000106763
-0.00419845
5.35558e-05
0.00338828
6.43016e-05
0.000240686
-0.00393374
0.00444518
-0.0056138
-0.00561373
-1.35736e-05
0.00650624
7.04713e-05
-0.00796475
-1.13874e-05
0.00920797
-1.35979e-05
-0.0109588
-1.46884e-06
0.0126124
-0.00023837
-0.0143833
8.26023e-05
0.0168327
-0.00098887
-0.0175455
0.000534703
0.0225368
-0.00381764
-0.0176771
-0.00237354
-0.0176768
0.00449653
0.0277002
-0.00099836
-0.0182872
-0.000762894
0.0180116
-0.000365777
-0.0149844
-0.000391997
0.0133374
-0.000192181
-0.0114968
-0.000177109
0.00985848
-6.26707e-05
-0.00846069
-6.64233e-05
0.00709161
9.14521e-06
-0.00601801
1.15119e-06
0.00495267
4.85696e-05
0.000136673
-0.000193905
-0.000189215
-0.000168302
0.000809164
6.61151e-05
-0.000344815
-0.000457915
-0.000524824
-0.000633636
-0.000780265
-0.000871285
-0.000639704
0.000329475
0.0015398
-0.00138523
-0.0113976
-0.0113976
-0.0117664
-0.0097125
-0.00350996
-0.00128022
-0.00526563
0.00863215
0.0140782
0.000255669
6.07262e-05
0.000838302
-0.00381714
0.0225355
0.000535242
-0.0175454
-0.00160377
-0.000500088
-0.000498256
8.34705e-05
-0.0143832
0.0168322
-0.000988861
-6.27241e-06
-0.000146471
-0.000238777
0.0126108
-9.64011e-07
-0.010958
-0.000287731
-0.000439833
-0.000362536
-0.00027566
-1.32422e-05
0.00650617
-0.00796476
0.00920765
-1.35734e-05
-0.000157104
-0.000133601
1.60642e-05
9.32718e-06
-3.785e-06
-0.000111187
-7.3708e-05
0.00294417
0.000183915
0.0029444
0.000240492
-0.00393353
-2.63171e-05
0.00444563
0.000136861
-0.000106776
-0.00018797
-2.62425e-05
6.85295e-05
-9.1803e-05
-0.000133938
-0.00266535
9.83164e-05
0.00230725
0.000484728
0.00178125
-0.000396239
-0.00269029
0.000222744
0.00101999
0.00143805
0.000650281
0.00172253
0.000615983
0.000217957
-0.000543927
0.000303513
-0.000132593
-0.000141185
0.00058282
-0.000130287
8.86427e-05
4.25048e-06
5.13586e-06
4.21272e-06
1.27529e-06
5.26457e-06
8.86675e-05
-1.06414e-05
0.00030352
-8.29671e-05
-0.000543953
0.000217982
3.81934e-06
0.000173995
0.000148377
-9.37302e-05
-0.00057142
0.000173823
-0.000301919
0.000566434
0.00172715
-0.000998784
0.000342553
0.000157233
8.83692e-05
7.70577e-05
1.09493e-05
-1.81929e-06
-1.87024e-07
-5.9964e-06
-1.42511e-05
-3.28825e-05
1.84226e-05
2.41624e-05
5.87517e-05
0.000165836
-0.00128419
-0.00334803
0.0137424
-0.00258846
0.00706594
-0.0152122
-0.00702227
-0.00702159
-0.0152132
-0.00773696
1.54621e-05
-0.0136809
0.0230256
0.00156309
-0.000947074
-0.0167007
-0.00156492
0.00975551
-0.00733083
-0.015947
-0.0131491
-0.0136987
-0.00926132
0.000875354
0.00193943
0.000877131
0.000239213
-0.0129251
0.000877558
-0.00773615
-0.0136812
1.61269e-05
0.00442891
0.0015636
-0.0167008
-0.000946796
0.0020874
-0.000332637
0.0208001
-0.0134015
-0.000326304
0.0128341
0.00101762
-0.000578455
0.00194007
0.00156834
-0.0043481
0.0044292
0.00308812
0.000171289
-0.00152345
-0.000577861
-0.000191266
0.00101705
-0.00188733
-1.60775e-05
-0.00133965
0.000671031
-0.000276435
-0.000779781
-0.000297167
-6.59066e-05
-6.29643e-06
2.17041e-05
-0.0178229
0.0189936
-0.0209358
0.0208053
-0.000364266
-0.0195687
-6.12453e-05
-0.000273653
0.00062808
0.000389895
-0.000187057
-0.000144144
-0.000112477
-8.70563e-05
6.38486e-05
0.00580185
-8.35724e-05
-0.000113813
-0.00365117
0.000160033
-0.00364786
0.00425084
0.000216412
-0.00520287
-0.00524383
0.00433284
0.0001163
0.00625606
0.000285496
-0.00723466
-0.00735345
0.000107219
0.00881127
0.000331195
-0.00972749
-0.0100068
5.25994e-05
0.0120371
0.000238871
-0.01262
-0.0132913
-0.000122784
0.000835784
0.00141685
0.00462019
-0.000253655
-0.000278682
-0.000142264
-0.000458788
0.00304945
0.00320658
0.00405268
0.00216602
0.00130982
0.000830975
0.000523806
0.000295357
-2.13448e-06
-0.000116566
-0.000225946
-0.00262501
0.00020138
-0.00262392
0.00307879
0.00026676
-0.00377518
-0.0037763
0.00307991
0.000145641
0.000117664
8.3535e-05
-3.06914e-05
1.66332e-05
-0.000173652
-0.00023311
0.0024476
-0.000232293
0.00147938
0.000175593
-0.00175173
-0.00175318
0.00148111
-0.000143053
0.00077414
-0.000154557
-0.000155623
0.00111377
-0.000126419
0.000774839
-0.000737295
0.00268596
-0.000577091
0.00227766
0.000144866
-0.00253448
-0.00252141
0.00186798
-0.000173544
-3.06811e-05
-5.90491e-06
-5.47035e-06
9.76139e-05
-0.00276996
-6.13083e-05
-0.00320411
1.65434e-05
-0.00430642
-4.4141e-06
-0.00519506
-4.57148e-05
0.00628571
-0.00559393
0.000116297
-0.00524341
-0.00520412
0.000215927
0.0043328
-0.00365073
-0.00364881
0.000159552
0.00298747
0.00011199
0.00453698
-0.00387258
0.0043405
-0.0035048
-2.18111e-05
0.00307122
7.9959e-05
-0.00274166
0.00304576
-1.11286e-06
0.00345457
-0.00301922
0.00279216
-0.00145211
-2.28718e-05
0.00128235
2.15538e-05
-0.00128342
1.66815e-05
0.00140308
0.00091242
-0.000475357
2.8177e-06
5.31042e-05
-4.64348e-05
3.7586e-05
0.00033788
0.000835076
0.00080931
-0.000168368
-0.000189228
-2.5242e-05
-0.000134795
-0.000194765
-0.0002332
-0.000225899
-0.000346836
-0.000289048
-0.000287225
-0.000232218
7.01616e-05
-0.000267718
-0.000271212
-0.00050717
-0.00072732
1.79491e-05
2.26274e-05
0.000445557
0.000445139
-0.00135067
-0.0117673
-0.00972124
-0.00351394
0.0226058
0.000118674
-0.0226161
0.000255803
-0.0122432
-0.000458743
-0.000395313
-0.00250839
0.000147099
0.000121908
5.95562e-05
3.42948e-05
1.98247e-05
4.95859e-06
5.35433e-05
-0.00376779
-8.27683e-05
-0.004757
1.62902e-05
-0.00623966
-7.98342e-06
-0.00755507
-7.19934e-05
0.00895243
-0.00795974
0.000106893
-0.00735298
-0.00723621
0.000285492
0.00625552
0.00620311
-0.000306329
0.00448948
0.000336661
-0.00525412
-0.00525528
0.00449067
-0.000306154
0.00620188
-0.000125333
0.000537062
0.000307108
0.000136822
0.000444616
-0.000142975
-0.000344064
-0.000838538
-0.00109307
-0.000813615
-0.000439465
-0.000691406
-0.000760053
-0.000998499
-0.00110891
-0.000451667
-0.000652805
-0.000573254
0.000342978
-0.00135747
-0.00149194
-0.000522442
-0.000287889
7.50347e-06
0.000326216
0.000649864
0.000457385
-4.94692e-05
-4.91462e-06
8.0619e-07
-0.00074807
0.00108193
-0.0014156
-0.00039682
0.000585014
0.00138462
0.000650603
2.67093e-05
0.000109519
0.000119139
0.00316555
4.87893e-05
0.00400324
-8.21448e-05
-6.12343e-05
9.64523e-05
0.00457989
-0.00542692
-8.33611e-05
-0.00692561
1.06289e-05
0.00825302
-0.00889437
-1.59688e-05
-0.0107037
-0.000113622
0.0123847
-0.0110216
0.00934958
-0.000143626
7.71595e-05
-0.00981376
-3.86897e-06
0.0104699
-2.95685e-05
-1.20787e-05
-3.91717e-06
1.09823e-06
3.4241e-06
7.38171e-06
4.68661e-06
-0.000133438
-0.000156794
-4.72046e-06
-4.62937e-06
-1.74809e-05
-3.13551e-05
0.0151917
3.68314e-05
-1.08525e-05
-6.18594e-05
0.0191694
0.000118598
-0.000331442
-0.000209476
-0.000144257
-0.000102537
-7.17195e-05
-4.42511e-05
-0.000161323
0.00285982
0.00209188
0.00209072
0.00286132
-0.000161268
-4.4237e-05
-7.18682e-05
-0.000225774
0.00425228
-0.000116306
-9.48779e-05
8.67013e-05
0.000295734
0.000523973
-0.00012515
-7.13086e-05
-0.00011339
-8.69144e-05
6.42396e-05
0.00580198
-0.000140942
-0.000193549
6.92908e-05
0.00660118
-0.00775057
-8.39164e-05
0.00929281
-0.0107806
-6.31346e-05
0.0127143
-0.014514
3.79141e-05
-0.0178231
-6.16761e-05
0.0191679
-0.0188852
-0.00076255
0.0169612
-0.000392679
-0.000511225
-0.000135197
7.32484e-06
-0.000366501
-0.000208133
-0.000300933
-0.000626262
-0.000469491
-0.00108961
-0.00127978
-0.00246023
-0.00526843
0.00863161
-0.00992663
0.0045844
-0.013699
-0.0159468
-0.00733076
0.0097557
-0.00156527
0.000613297
0.0140777
-0.000141379
0.0240338
-0.000205298
-0.00012722
-6.47042e-05
-7.0068e-05
-0.000137373
-1.11311e-05
-6.04705e-06
-0.000146367
-1.76608e-05
-0.000209433
9.1275e-05
0.000150017
-0.000144268
-0.000102424
-0.000401467
0.00880568
0.00638189
0.000369737
-0.0070531
-0.00705423
0.00638326
-0.000401547
0.00880465
-0.000111127
1.99758e-05
0.000320365
-7.2262e-05
0.000142273
0.000255473
0.000643984
-3.65278e-05
0.0121373
0.00879299
-0.000525365
-9.04405e-05
-0.000317879
0.00237534
-0.000150155
0.00706276
-0.000207601
6.07675e-05
0.000838532
0.00308706
0.0102156
-0.00434863
0.000170876
-0.00152327
-0.00926079
0.0230251
-0.0131487
0.000875677
-0.000191501
-0.000912864
0.00416598
0.000907895
0.00185268
0.00422188
0.000123782
-0.000720561
0.00185196
0.0125908
0.00863541
0.0218941
0.0120797
0.0177024
0.019657
-0.000285467
0.00225796
0.00136336
0.000857238
-0.000110902
0.000830424
0.00130999
-3.59338e-05
-0.000525589
0.000256533
2.00408e-05
0.000257272
0.000166696
8.90877e-05
-3.27197e-05
9.93247e-07
2.53552e-06
5.40544e-06
7.49403e-05
0.00740733
7.39077e-06
7.30527e-06
6.00369e-05
0.0151904
2.20161e-05
-0.00027255
-0.000186494
0.000389473
0.000627985
-7.21886e-06
-6.68588e-05
-0.000252988
-0.000297826
0.00141689
0.00461959
0.00304909
0.000835593
0.000124789
0.00216435
0.00137203
0.00320735
0.00064479
-0.000112403
0.0065972
-6.1936e-05
-0.00014878
-0.000316884
-0.000175211
-1.90099e-06
0.000143375
0.000325493
-0.000331277
0.00136508
-0.000177775
-6.66324e-05
1.12819e-06
0.00510439
-9.49588e-05
0.00298759
0.00011191
0.000148353
0.00017396
3.82021e-06
-0.000301966
0.000218822
0.00017377
-0.000571496
-9.37484e-05
1.3933e-06
0.00172693
0.000566824
-0.00118949
-0.00103671
0.00111136
-0.000126931
0.000464588
-0.000812485
7.65686e-05
0.0114008
-6.25565e-05
-0.000110086
0.00208748
-0.000207291
-0.00188785
0.000198071
0.00107804
-1.08693e-05
-0.000134844
-3.87888e-05
-0.000692458
-8.4062e-05
-3.11443e-05
-8.26057e-05
-8.18496e-06
-0.000748083
2.15595e-05
0.000912973
0.013583
0.0103807
0.00020547
-0.00126693
0.000204962
0.0189475
0.0218951
-0.000521885
-0.000343764
8.668e-05
0.000144941
0.00227766
0.00186604
-0.00252021
-0.00253482
7.99593e-05
-0.00274103
0.00140256
0.000912881
-0.000573403
-0.00065296
-0.000475339
2.69296e-06
1.0148e-06
-4.98414e-06
0.000457543
0.000649847
0.000584819
0.00138512
0.00172247
-0.00141556
0.000615955
0.000650346
0.00143809
0.000218085
0.00101998
0.00107802
0.00101999
0.00143807
0.000650388
0.0017226
0.000615962
-0.00141551
0.00108186
-0.000396767
0.00138489
0.000584942
0.000649977
0.000457467
-4.98841e-06
-4.93691e-05
0.00128239
-0.00128333
0.0014029
5.3079e-05
2.86756e-06
-0.000475418
-0.000653092
-0.000573277
-0.00135767
0.000342698
-0.0014919
-0.000126426
0.000774809
-0.000232388
0.00244757
-0.00015465
0.000774135
-0.000126985
-0.00149138
0.000342529
-0.000577466
0.0026852
-0.000736391
-0.000173645
0.00148086
0.0014794
0.000175446
-0.00175296
-0.000161342
0.00286014
0.000159728
0.00298758
-0.0038722
0.000112112
0.00453627
-0.0051949
0.00434025
-2.18364e-05
-0.0035046
0.00307045
7.60021e-05
9.20154e-05
8.9768e-05
5.69763e-05
-5.17572e-05
-0.00030271
-0.00049746
0.00416617
-0.00342778
0.014203
-0.0103381
0.00176429
0.0128336
-0.000326671
-0.0134013
0.00975551
-0.00733068
-0.0159465
-0.0136986
-0.0131486
-0.0136811
0.0230252
0.00442888
0.00308789
1.5373e-05
-0.00773727
-0.015213
-0.00702232
-0.0129253
-0.00702188
-0.0152138
-0.00773707
-0.0136817
0.0230251
-0.0136984
-0.0131489
-0.0159469
-0.00733072
0.00975551
-0.0134015
0.0207998
-0.0214219
0.0142027
0.00176468
0.012834
-0.0103381
0.00640082
0.0148764
0.0103802
0.00760453
0.0180945
0.00627223
0.00389649
0.011688
-0.0117376
-0.0117374
0.00389649
0.00627176
0.0180943
0.00760449
0.0103798
0.0135814
0.0148778
0.00640191
0.00834585
0.0069759
-0.00404189
0.0189468
0.0213158
0.0218931
0.0175115
0.0177018
0.0196567
0.0177022
-0.0333091
0.000907574
0.000908111
-0.0093816
0.0175113
0.0218931
0.0213159
0.0189476
0.00697549
0.00834575
0.00639816
-0.000594707
-0.000286569
-7.17686e-05
-0.0070288
-0.00908067
-0.00859473
-0.019987
-0.023976
0.00458502
-0.0099267
0.0226055
-0.0188844
0.0169612
-0.0145139
0.0127135
-0.0107805
0.00929223
-0.00775072
0.00660125
-0.00542641
0.00457997
-0.00376785
0.00316555
-0.00277
0.00279209
-0.00301897
0.00304561
-0.00274139
0.00227748
0.00014469
0.00186769
-0.000737275
0.00268594
-0.000577196
0.000912478
-0.000194624
7.6029e-05
9.21651e-05
8.97015e-05
5.66294e-05
-5.20838e-05
-0.000303101
-0.000497783
0.00416595
-0.00342772
-0.0013398
0.00222953
0.000670867
-0.00834007
-0.00834014
0.00222954
-0.00133971
0.000671003
-0.00371258
-0.0214222
0.0207999
-0.0015651
-0.0167008
0.00156303
-0.00094713
0.00208752
-0.000332476
-0.000395347
-0.00250852
-0.0012843
-0.00250846
0.00156276
0.00442881
0.010215
0.00308804
-0.00258871
-0.00258855
0.0102151
0.000512621
-0.00650497
0.00706264
0.00706257
-0.000207511
-0.00650495
0.000170848
0.00156834
0.00193931
0.000875761
-0.00926118
0.000876372
0.00023854
0.0137426
-0.00334834
0.00449629
-0.00766546
-0.00944596
-0.0203418
-0.0148972
0.0321752
-0.017677
0.0225354
0.0225364
0.000534866
0.0180119
-0.000365658
-0.0149846
0.0133371
-0.000192042
-0.0114971
0.00985817
-6.26832e-05
-0.00846051
0.00709172
9.06205e-06
-0.00601841
0.0049528
4.84321e-05
-0.0041985
0.00338833
6.40945e-05
-0.00301153
0.00230738
9.83363e-05
-0.00266508
-0.000396146
-0.00269012
-0.00269011
0.000218038
-0.000543812
0.000174532
-0.000788445
-3.39676e-05
0.000492967
0.000492908
-0.000585357
-1.81459e-06
0.000601835
0.000601823
-0.000429516
8.83628e-05
0.000974564
0.000974085
-0.000203891
0.000268406
-0.000483675
-0.000484873
-0.000813602
-0.000439497
-0.000691488
-0.000760111
-0.00110895
-0.000451732
0.000805144
-0.00119006
0.00017564
0.000566795
0.00172694
-0.000998775
-0.000571525
-9.37701e-05
-0.000998658
5.31524e-06
0.00100505
-0.00158928
2.18282e-06
0.000198073
0.00159459
-0.000144051
1.71765e-05
0.000166589
-5.43483e-06
4.92308e-06
1.97759e-05
3.43514e-05
5.94947e-05
0.000122077
0.000147113
0.000118666
-0.0226167
0.0240338
-0.0248231
0.0217896
-0.0188564
0.017041
-0.0147606
0.0128461
-0.0110207
0.00934821
-0.0079591
0.00659633
-0.00559358
0.00453665
-0.00387242
0.00307106
7.97911e-05
-0.00253445
-0.00252113
-0.00175207
0.00209082
0.000201519
0.00209155
-0.00262455
-0.00364823
-0.00365093
0.00433284
0.00425133
0.000215793
-0.00524361
0.000116623
-0.00559382
-4.55848e-05
0.00628536
-0.00623941
-7.98149e-06
0.00740691
-0.0069248
0.00580182
1.64395e-05
0.0051041
-4.34307e-06
-0.00430614
0.00345434
-1.11582e-06
0.00304558
1.6652e-05
-0.00128331
5.32774e-05
-0.000144049
0.000805147
-0.000451757
-0.00110885
-0.000759981
-0.000691204
-0.000439595
-0.000812422
0.000464557
-0.000203942
4.97888e-05
-0.00118926
0.000566428
5.63102e-06
0.000175682
0.00172709
-0.00118991
0.00159458
0.000198093
-2.86146e-05
-0.000429465
7.70735e-05
8.35611e-05
0.000117699
0.000145597
0.000150029
9.12777e-05
-9.01803e-05
-0.000317718
0.00237535
-0.00266001
-0.00605296
-0.00449456
-0.00188781
0.00101737
-0.000191684
-0.000326182
-0.00152324
-0.0167006
-0.000946997
0.00208741
-0.000207255
6.06766e-05
0.000255744
-0.0122436
0.0114532
-0.0146494
0.00459161
-0.0351149
0.0045257
-0.0153499
-0.000366045
0.016091
0.0158805
-0.0181524
-0.000302803
0.00141666
0.00462021
-0.000253391
-0.00526729
-0.00971434
-0.0117663
-0.00134819
-0.00246535
-0.00351327
-0.00127968
-0.000469273
-0.00108637
-0.000728807
-0.000509208
-0.000625594
-0.000134904
-0.00051155
2.20469e-05
0.0191682
-0.0209349
0.0189931
-0.0195687
-0.000364071
0.020805
-0.000110451
-0.000205189
-0.000395453
-0.000332692
-0.00371265
-1.61901e-05
-0.000578029
0.000171227
-0.00434804
1.54626e-05
0.0070659
-0.00294434
-0.0113978
-0.00138446
0.00154065
0.000329307
-0.000640959
-0.00087131
-0.000781002
-0.000633732
-0.000525158
-0.000457816
-0.000344801
6.63752e-05
0.000809234
0.000809268
0.000835032
-2.52375e-05
-0.000135057
-0.000226508
-0.000348083
-0.000365533
7.58712e-06
-0.00030034
-0.000208329
-0.000141031
-0.000192533
6.96248e-05
7.49712e-05
0.00825282
-0.00889438
0.00740673
-0.00755455
-7.2045e-05
0.00895235
-0.0107029
-0.000113343
0.0123845
-0.0147185
-0.000193351
0.016505
-6.06458e-05
-0.0164967
0.0143505
-3.17835e-05
0.0151911
-0.0178235
-6.18938e-05
-1.08611e-05
-0.000127044
-6.46645e-05
-3.1334e-05
-0.0123286
0.0104691
-3.50536e-06
0.0114003
-0.013471
-6.29404e-05
6.04151e-05
-6.95812e-06
-6.68845e-05
-0.000141786
0.0140777
0.0006136
-0.00156511
0.00863107
-0.000297279
-0.00054108
0.00304845
0.00863325
0.0125903
0.00405179
0.00321482
0.000836148
-0.00027366
0.000628308
0.000389936
7.35547e-06
7.73851e-06
5.39531e-06
2.66182e-06
-8.22357e-05
-5.95037e-05
9.67662e-05
6.42548e-05
0.00580183
-0.00623949
0.00510424
-0.00519505
-4.58242e-05
0.00628553
-8.21916e-06
-1.20729e-05
-2.9524e-05
-1.59842e-05
4.73291e-06
1.0669e-05
-0.00692527
-8.36278e-05
-0.000133439
0.00709149
-6.63494e-05
-0.00846142
-6.3119e-05
0.00985817
-0.000176457
-0.0114975
-0.0001925
0.0133364
-0.000391538
-0.0149842
-0.000366907
0.0180117
-0.000762885
-0.018287
-0.000998509
0.0276997
0.0180701
-0.00381808
0.000838458
0.00083837
0.0277002
-0.000998395
-0.018287
-0.00381797
-0.0176763
0.00449663
0.0321748
-0.00237299
-0.0148969
-0.0203405
-0.00944551
-0.0239771
-0.00766534
-0.00294415
0.00706592
-0.00434822
0.000876717
0.00193984
-0.00926109
0.00087593
-0.00152342
-0.000578448
-0.00091291
-0.000355539
-0.000150216
-0.000241082
0.000165811
-0.000500367
0.000534882
-0.0175446
0.0168334
-0.0143835
0.0126113
0.0126109
-8.56332e-07
-0.0109586
-1.3265e-05
0.00920744
-1.10566e-05
-0.00796475
7.06433e-05
0.00650615
-1.34203e-05
-0.00561428
0.000136861
0.00444555
-2.6317e-05
-0.00393362
0.000240649
0.00294427
-7.36859e-05
-0.00293309
0.000484928
0.00178145
0.000222736
0.00178133
-0.000396174
-0.00266522
9.82868e-05
0.00230735
9.76911e-05
-0.0030115
6.41554e-05
0.00338822
5.37097e-05
-0.0041986
4.83265e-05
0.00495255
1.25368e-06
-0.00601845
8.79798e-06
7.0495e-05
0.00650606
-3.84855e-05
-0.00561386
0.00444535
-0.00393345
0.00294427
0.000183775
-0.00293305
0.000484715
-0.000133921
-9.17858e-05
0.000240659
-0.000189608
-0.000194897
-0.000233504
-0.000289312
-0.000270252
2.08305e-05
0.000445729
0.000446127
-0.0113976
-0.0117661
-0.00134807
1.98461e-05
-0.0175438
-0.000989587
0.0168334
8.313e-05
-0.0143834
-0.000238588
-0.000146375
-0.000498448
8.27399e-05
-0.000692001
-0.000439717
-1.0893e-06
-0.0109583
0.00920773
-0.007965
-1.13133e-05
-0.000362138
-0.000133861
-0.000275449
-1.35624e-05
-0.000187929
-2.63902e-05
6.88851e-05
-0.000111174
-7.36768e-05
0.000125524
-0.00096912
0.000174541
-0.000543767
0.00101083
0.000403548
0.000403488
0.00101088
0.000470782
-8.28756e-05
0.00084664
-0.00171475
-0.000116741
4.19106e-05
0.00122512
0.000109267
-0.000818602
0.000443472
0.00113762
0.000813444
0.000992098
0.000582855
-0.000130223
-0.000141244
-0.000132525
-4.36594e-05
0.000802831
-0.00013259
0.000470759
0.000846719
-8.29237e-05
-0.000331624
-0.000116597
0.00122515
4.18704e-05
-0.000182143
2.14528e-06
-0.00158931
0.00100508
5.25424e-06
-0.000998656
-9.37567e-05
4.22544e-06
-0.000141125
-0.000107539
0.000303512
-0.000331676
-0.000237178
-1.0634e-05
8.86333e-05
4.27304e-06
1.38787e-06
5.12719e-06
-1.06647e-05
0.000303551
-0.000788475
-0.000236967
-0.000133971
-3.77486e-06
9.33734e-06
1.6061e-05
1.83839e-05
2.42641e-05
5.86592e-05
-6.27954e-06
-0.000988427
-6.27811e-06
0.000146897
-0.000762481
0.0226059
0.000118407
0.019169
-6.16107e-05
0.0189938
-6.10873e-05
0.0165065
-0.000193664
-0.0147182
0.012847
5.29479e-05
0.00881041
0.00880507
0.000331409
-0.0100069
0.0120352
0.0121382
0.000238442
-0.0132909
-0.000122274
-0.0147625
0.0170412
-0.0195689
0.0208046
-0.000363454
-0.0188576
-0.000302239
0.0158794
0.0160916
-0.000366632
-0.0181518
0.0217906
-0.0248232
-0.0001102
-0.0209351
0.0240339
-0.0226166
0.0140781
0.000255782
-0.0122436
-0.000458721
0.0114534
-0.000779698
-0.0146497
-0.0105615
0.00459156
0.00452658
-0.0351157
0.012591
0.0120789
0.0018518
-0.000285534
-0.0114978
-0.000520324
0.011579
0.0115806
-0.000719161
-0.0126189
0.000238632
0.0121368
0.0120368
-0.0132908
-0.000123271
-0.0100069
0.000331838
0.00880457
0.00881108
5.2574e-05
-0.00735339
0.000285413
0.00620166
0.00625593
0.000107084
0.000257583
0.000167015
8.90998e-05
-3.2771e-05
8.79433e-07
2.66267e-05
0.00010818
0.00011926
4.87961e-05
0.00400315
-0.00430616
0.00345468
-0.00350487
-2.16667e-05
0.00434046
-4.48668e-06
-3.95392e-06
1.09176e-06
-1.23819e-06
-5.91262e-06
-2.29253e-05
-0.00145207
-0.000748045
0.000326209
0.000650839
0.000337631
3.77083e-05
7.53852e-06
7.53192e-07
2.15526e-05
-4.65675e-05
-6.19342e-05
-8.69295e-05
-0.000112541
-0.000144147
-0.000187129
0.000257486
0.00136854
0.00216354
0.00130925
0.000649936
2.06803e-05
-0.000111036
-3.6222e-05
-0.00972716
-0.00705459
0.000369332
0.00638143
0.00638279
-0.000401592
-0.00525565
0.00033724
0.00448935
0.00449027
-0.000306299
-0.00520314
0.000216221
0.0042514
0.0043332
-0.00524376
0.000116602
-7.07503e-05
0.000328803
0.000829814
0.000523619
0.000143342
-0.00011384
-0.00011647
-0.00364838
0.000159651
0.00286065
0.0029877
-0.00365065
0.000111933
-0.000148971
-2.3571e-06
0.000295598
8.67418e-05
-0.0001764
-0.000317181
-0.000288012
-0.000522964
-0.000343948
-0.00083857
-0.00109303
-0.000973762
-0.000846052
-0.00101327
-0.00108729
-0.000839452
0.00111131
-0.00104965
0.000444624
0.000136871
-9.47671e-05
-0.00016137
-4.41756e-05
3.39874e-06
1.64444e-05
-0.00320418
-6.1374e-05
7.3489e-06
1.64736e-05
-0.00475698
-8.26075e-05
-0.000106787
0.000136951
-0.000106722
-0.000133473
-0.000156888
5.94023e-05
0.000122033
-0.000392186
0.0169616
3.69266e-05
0.0151918
-3.14839e-05
0.0143504
-3.16247e-05
0.0123853
-0.000113786
-0.0107031
0.00934894
0.000107418
0.00625544
0.00620228
0.000285084
-0.00735271
-0.0072364
-0.000401837
-0.00525434
-0.000111371
0.00136209
0.00225583
0.00422049
0.000123283
0.000123369
0.00185155
-0.000285409
-0.0153518
-0.0114959
-0.000276351
6.06923e-05
-1.10122e-05
-0.000205255
-0.000127251
-0.000137383
-1.76116e-05
-0.000146236
-0.000238734
-0.000156904
-1.30973e-05
-4.62771e-06
-7.00133e-05
-3.28935e-05
-1.41394e-05
-5.99927e-06
-1.94454e-07
1.09555e-05
0.000109114
0.000166632
-5.45293e-06
5.00488e-06
1.97566e-05
3.42312e-05
-6.57793e-05
0.00929183
-8.38718e-05
0.00825335
1.07678e-05
-0.00889448
-1.60203e-05
0.00895226
-7.2089e-05
-0.00755459
0.00659652
-0.00795961
-0.000112905
7.45244e-05
6.99954e-05
-0.000348193
-0.000509152
-0.000727436
-0.000267766
-0.000287648
-0.00023217
-0.000193694
-0.000226871
-0.000135168
-0.000188672
-0.000168237
-2.49875e-05
0.000835137
0.000651554
0.000338045
-0.00276989
-6.13388e-05
0.00279204
-2.28615e-05
0.00128234
2.15421e-05
1.71948e-05
1.06422e-06
-3.96314e-06
-1.20785e-05
-2.96899e-05
-6.45258e-05
-1.74816e-05
-4.70771e-06
-3.78051e-06
-0.00981289
0.0104691
-0.012329
0.0114014
-0.0107808
-6.31648e-05
0.0127135
-0.000176697
-0.0145141
-0.000133738
-0.00051066
-0.0188848
-0.00351221
-0.00992714
0.00863176
-0.00859664
-0.0199853
0.00458527
-0.00971215
-0.00526663
-0.00908017
-0.0070284
0.000613658
-7.28143e-05
-0.000278525
-0.000596635
-0.000541523
0.00639792
0.00461961
-0.00025276
-0.000141409
-0.00128089
-0.00246374
-0.000468547
-0.00109025
-0.00029958
-0.000627756
8.40392e-06
7.66728e-05
5.95381e-05
-0.0134708
-0.0164972
2.17551e-05
-0.0178231
-6.64257e-05
-6.02724e-06
7.7343e-06
8.15392e-06
-0.000207584
-0.000367162
-0.000140457
-8.37929e-05
-0.00542629
0.00457992
-8.26581e-05
0.00400305
1.65853e-05
-0.00320384
0.00316567
9.7648e-05