/*--------------------------------*- C++ -*----------------------------------*\
| =========                 |                                                 |
| \\      /  F ield         | OpenFOAM: The Open Source CFD Toolbox           |
|  \\    /   O peration     | Version:  2306                                  |
|   \\  /    A nd           | Website:  www.openfoam.com                      |
|    \\/     M anipulation  |                                                 |
\*---------------------------------------------------------------------------*/
FoamFile
{
    version     2.0;
    format      ascii;
    arch        "LSB;label=32;scalar=64";
    class       volScalarField;
    location    "2.3";
    object      gradTy;
}
// * * * * * * * * * * * * * * * * * * * * * * * * * * * * * * * * * * * * * //

dimensions      [0 -1 0 1 0 0 0];

internalField   nonuniform List<scalar> 
2658
(
0.00845653
0.004883
0.00152073
-0.000200261
-0.0178504
0.0219486
-0.0187747
0.0158025
-0.000294445
-0.0155434
0.00482698
-0.0350371
0.0212057
0.0215732
0.0174431
0.0179255
0.0196681
0.0176463
0.0178564
0.0213066
0.0205264
0.0178641
0.00589111
-0.00408181
0.00664475
0.0196537
-0.00430575
0.00116623
0.0160321
-8.08386e-07
-0.0160323
0.00430584
-0.0196548
-0.00589097
-0.0066445
0.00408232
-0.00125239
0.00167332
-0.0178696
-0.0205276
-0.0213082
-0.0178571
-0.0176449
0.00886496
-0.00141987
-0.000715013
-0.00482724
0.0092274
-0.0179288
-0.0174433
-0.0215717
-0.0212057
-0.0187777
0.00390344
-0.00699853
-0.00662435
0.000454557
-0.0116238
-1.07154e-07
-0.000194216
-0.000454257
0.00662408
0.00699894
-0.00390397
0.00465594
-0.0102396
-0.0145309
-0.000643432
-0.0243069
0.0243071
2.33129e-07
0.0207288
-0.000217229
0.0171971
-6.10738e-05
-0.0130246
-0.0129159
0.000317441
0.0125926
0.00827642
-0.00864247
-0.000572565
0.0110557
0.0166051
-0.000368857
-0.000214609
3.37362e-06
9.34958e-05
0.000119535
0.000123433
0.00010359
-0.000353578
0.000186024
0.00092719
-0.00040781
-0.000959673
-0.000172248
-0.00102497
-0.000185996
-0.000389578
-0.00112351
-0.000301389
-0.000974433
-0.000525487
-0.000437074
0.00100958
-0.000363025
-5.55362e-06
0.000132937
-0.00105707
0.00035059
-0.000478894
-1.9641e-08
0.000478893
-0.000350657
0.00105704
0.000437104
-0.00100959
0.000974419
0.000525492
0.000301315
0.00112349
0.000389567
0.000185999
-0.000795482
-0.000770481
-0.000927232
0.000959746
0.000172295
0.000407875
0.00110175
0.000282718
0.000526568
0.000478063
0.000984516
-0.000444219
3.01354e-05
4.72159e-05
-0.00101428
0.0010145
-3.02375e-05
0.000444249
-0.000265706
-0.000276742
-2.52629e-06
0.000275831
4.84699e-07
5.46937e-07
-0.000549144
0.000541257
1.18968e-06
4.31747e-05
0.000288647
-0.000323889
0.00129775
0.000301477
0.0012165
0.00143978
0.00152438
0.0012099
0.00121796
0.00139492
0.00121711
0.00123139
0.00155891
0.00145395
0.00127165
0.000411036
-9.08993e-05
0.000250512
-0.00178236
0.00235534
-0.00260377
0.00331296
-0.0038831
0.00469944
-0.00566087
0.00652634
-0.00799071
0.00877025
-0.0109301
0.0113726
-0.0145908
0.0142537
0.0139314
0.0116748
0.0110858
0.0155441
0.0178499
0.000200079
-0.0219492
0.014531
0.0102387
-0.00465607
0.0350366
-0.00426994
0.000368574
0.000214434
-3.45126e-06
-9.36961e-05
-0.000119715
-0.000123406
-0.000103578
0.000353578
-0.000185943
1.30605e-05
-0.000420765
0.000151523
-0.000542033
0.000542024
0.000420805
-1.30998e-05
-0.000151562
-0.000163497
0.000770559
0.000795466
-0.000970522
0.00090521
0.000217217
-2.75906e-05
-0.000146773
0.000140875
-0.000126744
-0.000132932
-6.4522e-09
0.000132911
-0.000217406
0.000363011
-0.000689588
5.60057e-06
-0.000764058
0.00076412
0.000689611
-1.73544e-09
-0.000479453
-0.000525576
0.000525616
-0.0001446
0.000479466
-7.12713e-05
-1.0886e-08
-0.000382365
-0.000170949
0.000497953
-0.000130044
4.17551e-08
2.95396e-08
-1.39105e-08
-0.000741538
0.000526421
0.00145776
-0.000355541
0.00115888
-0.00156155
0.00186442
-0.00203428
0.00203418
0.000265711
0.0023936
0.00017066
-0.0029988
0.0035098
9.44538e-05
-0.0043009
0.00512041
1.65598e-05
-0.00609521
0.00727057
-0.000108874
-0.00839563
0.00999189
-0.000386828
-0.0111682
0.0133014
-0.0010777
-0.0143192
0.017134
-0.00296878
-0.0187664
-0.00869354
-0.019381
0.0193813
-0.00116559
-0.00530904
0.0100753
0.00898876
-8.6139e-08
-0.00637832
0.00637839
0.00665921
-4.94982e-08
-0.00802513
0.00802515
0.00324359
-3.18211e-08
-0.0209092
0.020909
-0.0130354
1.36233e-07
0.0130351
-0.0101703
0.00645668
0.0148796
0.0103515
0.0135516
-0.0201054
0.0142879
0.00189378
0.00120893
0.000195032
-0.00324367
-0.00118001
-0.00334555
-0.0115162
0.00624161
0.0178554
0.00758753
0.00852208
-0.00437685
1.08896e-07
0.00437711
0.00334557
-0.0142881
0.020105
-0.0148809
-0.00645757
0.0101701
-0.00189412
-0.001209
-0.0085212
-0.0075881
-0.0178551
-0.00624192
0.0115161
-0.0117663
-0.00427655
-0.0165321
-0.00376737
0.0108554
0.00259168
-0.00252354
0.0118005
-0.00235471
-0.00284804
7.46724e-05
-0.000114696
-0.000252976
-0.000274865
-0.000249324
-0.00021267
-0.000170143
-0.000196481
-0.00168228
-0.00143298
-0.00129145
-0.00196646
0.00266175
-0.00294852
0.00378794
-0.00440438
0.00537887
-0.00644117
0.0074621
-0.0091488
0.0100068
-0.0125927
0.0129167
-0.0166055
0.000293883
-0.015802
0.0187761
-0.0207292
0.0191967
-7.59203e-08
-0.0191964
0.0163675
-0.0147091
0.0119302
-0.00980415
0.0129598
8.35801e-05
0.00870801
0.00039237
-0.0100058
-0.000437628
-0.00662323
-0.00757743
0.000390545
0.00687746
0.00751503
-0.00847199
-0.000485795
0.0094354
0.000254305
-0.00970297
0.0122893
-0.000494654
-0.0110857
-9.71782e-05
0.000715077
-0.00922759
0.011766
-0.0118009
0.00252333
0.000863001
-0.000104953
-9.4873e-08
0.000190501
-9.92532e-06
-0.000161781
-0.000203496
-0.000195424
-0.000172242
-0.000137799
0.000126736
-0.000140878
0.000146763
0.000144502
2.76339e-05
-0.000905255
0.000970551
-0.000655116
0.000481524
0.000276811
0.000228132
0.000597659
0.000423973
-0.00011999
-0.00158462
0.00268298
-4.73296e-07
-0.00310789
0.00251268
-0.00207175
-0.000191635
6.0968e-05
0.000774917
0.000786886
0.00078103
0.00049019
0.000551469
1.63559e-05
0.000207465
0.000253852
6.48946e-05
-0.000221792
-4.22625e-06
-8.61336e-05
-0.000171495
-0.00016643
9.86092e-05
0.000128409
0.000149707
0.00230151
0.00202442
-0.00217422
-0.00189897
0.000136863
0.00182975
-0.00021557
0.000103727
-0.000200873
-0.000476914
-0.000483226
-0.000803169
-0.000357269
-0.000278352
-0.000418803
-0.000656102
-3.59202e-06
6.22057e-05
0.000140536
0.00451602
0.00410748
-0.00483576
-0.00418458
0.000274094
0.00358539
-0.00284693
0.000204116
0.00255642
-0.000242553
0.00289947
-0.00328848
0.000215325
0.0032033
-0.00247777
0.000146792
2.61306e-05
-8.476e-05
-0.00239325
2.8929e-05
0.00213692
-0.000296407
-0.00178191
-0.00037315
-0.000154538
-3.11401e-05
5.57486e-05
0.000149989
0.000287463
0.00027791
-0.000671568
0.000264676
0.000486906
0.000302869
3.52585e-05
0.00014619
0.000144571
0.000142221
-0.00022406
-0.00049123
-0.000824767
-0.000818752
-0.00132811
-0.00126544
-0.00206379
-0.00126543
-0.000621744
-0.00122909
-0.00295139
-0.000449937
-0.000143507
3.96114e-05
0.00847213
0.00757836
-0.00943502
-0.0082751
0.000437708
0.00662355
-0.00597237
0.000348825
0.00494148
-0.000358215
0.00567644
-0.00687702
0.000378618
0.00626876
-0.00531077
0.000291902
5.05824e-05
3.81531e-05
-0.000117709
-0.00350939
1.69448e-05
0.00299882
-0.000170693
-5.34921e-05
-0.0029915
0.00376861
-0.00437882
0.00437896
9.51755e-05
-0.00540373
5.90561e-05
0.00628521
3.78664e-05
-0.00756581
7.28828e-05
0.00874392
-8.84264e-05
-0.0102358
6.32547e-05
0.0117482
-0.000457371
-0.0132908
-6.0151e-05
0.0152319
-0.0017383
-0.0161065
-0.00132946
0.0181962
-3.40807e-07
-0.0181963
0.00869215
0.0187675
0.00296755
-0.0171333
-0.000189885
0.0143188
0.00107695
-0.0133007
-5.92461e-05
0.0111696
0.000386046
-0.00999078
-2.77842e-05
0.00839668
0.000107868
-0.00727026
-7.81928e-06
0.00609564
-1.70142e-05
-0.00512006
6.25438e-06
0.0043012
-9.43681e-05
-4.88609e-05
-0.000186032
-0.000130888
-4.86022e-05
0.000392507
-1.87174e-07
-9.56006e-09
-3.47276e-07
2.92463e-08
2.90407e-07
5.01492e-07
9.81065e-07
3.27962e-06
1.0914e-06
-3.01808e-07
-1.00151e-06
0.00539798
-0.00539876
-0.00752754
-0.00721837
-0.00213225
-0.00388484
-0.0121204
0.0360254
-0.00331011
0.000232095
-0.000136875
-0.000226521
0.00132954
0.0161075
0.00173734
-0.0152312
-1.16709e-07
-1.18957e-07
-1.37817e-07
0.000457196
-0.0117481
0.013291
6.01235e-05
-0.000169709
-0.000194324
-6.34944e-05
0.010236
8.81931e-05
-0.00874407
1.40675e-07
-1.68451e-08
-6.06208e-08
-8.89432e-08
-9.56197e-05
0.00540388
-0.00628515
0.00756632
-7.26487e-05
-0.00018254
-0.000152505
-8.58406e-08
-5.2146e-08
1.71056e-08
-1.10664e-08
-0.000265813
0.00262985
-2.78957e-08
-0.00262992
5.35757e-05
0.00299162
0.000149205
-0.00376869
4.88127e-05
0.000117618
3.37467e-08
-0.000149521
8.32671e-08
8.47244e-05
3.11329e-05
0.00178197
0.000296218
-0.00213689
0.000154568
-0.00186439
0.00074161
0.00156155
6.35066e-08
-0.00115882
0.000355619
-0.00145787
-0.000411053
-0.000526382
-5.98018e-05
-0.000332123
-0.000171602
0.00013003
0.00038233
-0.000498016
0.000171005
-0.000516342
0.000382788
-2.06405e-08
-0.000382789
-0.00019021
0.00102493
0.000516354
7.13218e-05
0.000171648
-0.000132912
0.000332137
5.97866e-05
7.32178e-05
-0.000366866
-0.000157503
0.000515075
0.000480232
-0.000110835
0.000124486
0.00069411
-0.000995988
0.000936279
-0.00013266
1.52087e-09
5.3043e-08
3.60916e-08
-1.02248e-08
1.54981e-09
-2.4791e-08
-5.41419e-09
4.40204e-08
-3.751e-08
-3.30778e-08
1.48952e-07
1.22301e-07
-6.50416e-08
-1.14554e-07
1.05473e-08
-4.43956e-07
-0.0100758
0.0053093
-0.00452819
0.00753416
-0.00753435
0.00452795
-0.0150297
0.00156831
-0.00602952
0.0139048
0.00351279
-0.0003268
0.0130334
-0.0117183
-0.00671631
-0.0176641
-0.00568057
-0.00862673
-0.0127617
-0.00722682
0.000689609
0.00625749
0.00192255
-1.6589e-06
2.83062e-07
-0.00192174
0.0150294
0.00602937
-0.00156869
0.00471633
-0.00351301
-0.013034
0.000326464
0.00152547
-0.00259184
-0.0108555
0.00376653
0.016531
0.00427647
0.00756362
-0.00612207
-0.00625898
9.23861e-07
-0.00231117
-0.00471645
0.00035143
-0.000464213
-0.00734113
0.00612197
0.0012151
-0.00756362
-0.000202575
-0.00019521
0.0011798
-0.000862982
0.000104812
9.71294e-05
-0.00198864
-0.00423221
-0.00222158
-0.00011651
0.0111442
0.00970473
-0.0122895
-0.0110546
0.0005728
0.00864254
-0.00025438
-0.000196112
-0.0022099
-0.00132652
-4.64675e-06
8.94821e-05
0.000121493
0.000134657
0.000147848
-0.00365524
-0.000261061
0.000101126
0.00360226
-7.93608e-05
-0.00457482
0.0055584
-0.000106537
-0.00664593
0.0051529
-0.00424537
-0.000265703
-0.0061642
-0.000116297
-0.00942338
0.00721109
-0.000334259
-0.00870752
-8.38284e-05
-0.0129596
0.00980353
-0.000392674
-0.0119299
6.17772e-05
-0.017198
0.0130236
-0.000318429
-0.000918905
-0.00412651
-0.0124642
-0.0124344
-0.0196736
-0.00194667
0.0330751
-0.00310358
-0.00321373
-0.00152067
-0.000687515
-0.000419515
-0.000270222
-0.000168932
-8.19425e-05
-2.71993e-05
6.66059e-05
2.1552e-05
0.00509185
1.98032e-07
-0.00509217
0.00618135
1.06841e-07
-0.00740955
0.0074095
-0.00618128
-3.51409e-08
-3.82756e-08
2.35567e-08
5.63825e-05
0.000139703
-3.1394e-05
0.00137005
5.08247e-07
-0.00137033
0.00285306
2.12538e-07
-0.0034284
0.00342808
-0.00285275
3.51894e-05
0.000381421
-0.000492508
0.000492532
-0.000276754
-0.000137021
-0.000381553
0.00158479
0.000120266
-0.00042424
0.00207238
6.32519e-07
-0.00251309
0.00310797
-0.00268271
3.12044e-05
-5.6361e-05
-5.57539e-05
0.000170083
-2.87979e-05
0.00178242
0.000196645
-0.00230141
-0.000146704
0.00217427
0.000242525
-0.00255622
-0.000204134
0.00284804
0.00440418
0.000265913
-0.00515314
0.00664529
0.000106821
0.00424617
-0.00360261
0.00457483
7.93626e-05
0.00288606
0.000218149
-0.00378744
0.00294852
0.00189957
-0.00182995
-0.000136787
-0.00266138
0.000191443
0.00196637
0.00129172
0.000215432
-0.00202429
0.00143304
0.00168246
-0.000481517
-0.000149911
-0.000276649
0.00271727
-0.000228182
-0.000139707
-0.000597482
0.00284983
-0.00120992
-0.00121816
0.000671645
-0.000277849
-0.000287492
-0.000253706
-0.000551513
-0.000392478
4.85221e-05
0.000131154
-1.62714e-05
8.64764e-05
0.000185874
0.000250402
0.000171954
0.000278898
0.000317673
-0.000318283
-0.000250421
-5.89995e-05
-0.000347537
0.000346648
0.000419169
0.000622223
0.000276993
-0.000278098
-0.000340067
0.00034083
0.00123154
0.00752903
0.00722048
0.00213593
-0.0142532
-0.000517105
-0.013931
-0.000232164
0.00141975
-0.0330752
0.00235454
0.00284772
-7.51213e-05
0.000114352
0.000252455
0.000274585
0.000249111
0.000212574
-1.68363e-05
0.00260405
0.000223094
-0.00320316
-0.0002155
0.00328846
0.000295242
-0.00358516
-0.000273378
0.00418591
0.00644141
0.000333871
-0.00721172
0.00942313
0.000116399
0.00616482
-0.00792987
-3.98553e-05
0.00883009
-1.37935e-08
-0.0105031
0.010503
-0.00883009
3.97793e-05
0.00793051
8.93001e-05
1.55803e-07
2.9776e-07
7.60962e-08
7.95236e-07
-3.54675e-05
-0.00030388
-0.0012993
0.000327237
0.000197878
-0.00098483
-0.000478412
-0.000526693
-0.000936497
-0.000282697
-0.0011017
-0.00152393
-0.00143962
0.000132125
-0.00121699
-0.000301669
-0.000486746
-0.000774674
-0.000786918
-0.00078105
-0.00155889
-0.00123144
0.000655083
-0.00121714
-0.00139554
0.00289327
-0.000250515
0.000373174
9.08085e-05
-0.001454
-0.00127187
-0.000489814
-6.46817e-05
-0.000207923
-0.000128107
-0.00235508
-0.000149515
0.00247829
0.000221854
7.3742e-06
-9.78623e-05
-0.00331265
0.00388368
0.00026134
-0.00451566
-0.000291746
0.00531161
0.00483576
0.000358128
-0.00494185
-0.000348879
0.00597369
0.00914832
-0.00746118
-8.92239e-05
-0.000116363
-0.00626787
-0.000377964
-0.00567562
0.00020334
0.000195196
0.000172092
0.000137762
-2.61366e-05
-3.81396e-05
-5.05532e-05
0.000152445
0.000182383
-6.6278e-05
6.60579e-05
8.8959e-05
0.000485519
-0.0103542
-0.000151335
0.00012489
0.000638562
-0.0139311
0.000516733
0.000181805
0.000118782
9.17637e-05
7.17454e-05
5.38485e-05
3.47555e-05
3.01876e-06
0.0038261
-0.00423844
0.00423874
-0.00382567
-3.18753e-06
-3.46859e-05
-5.3865e-05
-2.17108e-05
-0.005558
-6.6726e-05
-4.33047e-05
-3.47728e-05
8.22116e-05
0.000169127
-8.9261e-05
-4.75627e-05
-0.000100741
-0.000134557
-0.000147586
0.00365569
0.000483808
0.000171494
-6.08862e-05
-0.00469885
0.00566158
0.000302368
-0.00652583
0.00799162
0.000307053
-0.00876914
0.0109303
0.00015103
-0.0111447
-0.000639155
0.0139317
0.0145914
0.000189846
-0.0113717
5.96567e-05
0.00045075
0.000145763
5.31796e-06
0.000363104
0.000803945
0.00126653
0.000665365
0.00206391
0.00127894
0.00388554
0.00294616
0.0121203
-0.036025
0.00125185
-0.00167168
0.0127608
0.00567993
0.0176642
0.00671633
0.0117181
-0.00886477
0.00331064
0.0019463
-0.0116743
-0.0001908
9.68004e-06
0.00016155
-1.33791e-07
-1.38274e-07
-0.000125012
0.000169605
0.000194092
-8.89385e-05
-0.000119036
-3.06907e-08
-4.47874e-08
-9.17874e-05
-7.18744e-05
-6.17921e-05
-0.0109889
0.0122451
-8.91999e-09
-0.0144432
0.0144429
-0.0122453
6.18808e-05
0.0109897
0.000109261
-5.81853e-05
-0.000363675
4.7971e-05
-0.000174014
-0.000314635
-0.000691758
0.000126154
0.0147094
-0.0163671
0.000104022
-1.11947e-07
-5.30922e-08
-3.85676e-08
-8.92283e-08
-0.00665957
0.00124292
0.000136705
0.000226177
-0.000351257
-0.00898969
0.00231129
0.000463702
0.0073407
0.00722609
-0.0139042
0.00862604
-0.000689858
-0.00121589
-2.92664e-07
0.00426974
0.0116238
-8.96908e-05
9.0877e-07
0.000161927
0.000217253
8.9969e-05
-0.00488327
-0.00845723
-0.00846775
7.73004e-08
0.000194179
9.09173e-07
0.000643246
8.69127e-07
2.1564e-07
1.10183e-08
-0.000109336
0.000270782
0.000419708
-0.000126253
-0.000104447
0.000314815
5.84459e-05
0.000825478
0.000491543
0.000224524
-6.09482e-05
-0.000103564
0.000201077
0.000477168
-0.000140049
-0.00410703
0.000819001
0.00132848
-3.89334e-05
0.0103555
0.000117742
0.000196595
5.47764e-06
0.00132755
0.00221193
0.00222268
0.00423391
0.0124345
0.00198855
0.00412651
0.0124636
0.0031027
0.000918985
-0.000162526
0.000686901
0.00141025
0.00321425
0.000694438
-0.000121408
-0.00537773
-0.000142138
-0.000144534
-0.000264926
-0.000145979
2.75438e-05
0.000175959
0.000363865
-0.000181869
-0.00140793
2.81431e-05
7.97682e-06
-6.0724e-06
-0.00289913
4.32465e-05
-0.00288546
-0.000218237
0.000157506
0.000366895
-7.32132e-05
-0.000124515
-1.3815e-07
0.000110848
-0.000480274
-0.000515066
0.000190248
0.000996
-0.000694146
-4.75944e-05
-0.000289218
0.000276182
0.000137074
0.000266426
-0.000197156
0.000116936
-0.00751298
-0.000307291
0.000494765
-0.00152573
-0.00124317
0.000202698
0.000163475
-2.40889e-08
-3.84831e-05
2.10128e-08
1.31763e-07
1.74889e-07
-0.000302524
-0.000390176
-0.00022303
-0.000295233
-0.00289314
-0.00271714
-0.00284965
-0.0135512
-0.0103516
0.00178693
-1.84936e-07
-0.00178709
0.0187781
0.00846676
-0.000487227
-0.000302783
-3.51415e-05
3.95434e-07
0.0020716
-0.00268285
0.00310783
-0.00251287
0.000191642
0.00196617
-0.000597751
0.00284957
-0.0014398
-0.00152454
-0.00121002
-0.00121804
-0.00139496
-0.00121715
-0.00123145
-0.00155885
-0.00145404
-0.00127178
-0.000411194
0.000373139
-0.000526443
-0.00145783
0.00035548
-5.97326e-05
-0.00115887
5.92829e-08
0.00115884
-0.00035554
0.00145787
0.000411181
0.000526434
-0.000373162
0.000250566
-9.07456e-05
0.00127215
0.00145412
0.00155888
0.00123149
0.00121722
-0.00065502
0.000276792
0.000228191
0.000597597
-0.000671499
0.00121825
0.00121
0.00152425
0.00143979
0.00121708
-0.000132006
0.000301894
0.00013703
0.000381684
0.00137046
-5.01617e-07
0.000492525
-0.000381458
-0.000137124
-0.000301535
0.000132451
-0.000424121
0.000119971
0.00158456
3.13557e-05
0.0028527
-0.0028529
-2.90504e-07
-0.00342815
-3.01924e-06
-0.00382569
7.93025e-05
0.00288548
0.00294819
0.000218283
-0.00378773
-0.00255655
0.00189909
-0.000137015
-0.00182992
-0.00266176
0.000103604
0.000123449
0.000119616
9.34716e-05
3.68979e-06
-0.000214265
-0.000368409
0.00427009
-0.00334528
-0.0115161
0.00624207
0.0117665
0.00427677
0.0165314
0.00376702
0.00671671
0.0176649
0.00568056
0.0127611
0.00862635
0.00602895
-0.013905
0.00471622
-0.00035153
-0.0015685
0.0150296
-0.00452734
0.00753437
5.70277e-08
-0.00753485
0.00452761
-0.0150291
-0.00602892
0.013905
-0.0127606
-0.00862613
-0.00568036
-0.0176645
-0.00671613
-0.00376687
0.0108558
0.0118004
0.011516
-0.0117661
-0.0042765
-0.00624221
-0.0178557
-0.00758855
-0.0103517
-0.0148811
-0.00645718
0.0101701
-0.0130356
-0.00189402
0.0209093
-0.0209092
0.0130356
-0.0101704
0.00645649
0.0148799
0.0103518
0.013552
0.00758819
0.0178549
0.0215726
0.0212058
-0.00390396
0.0187781
0.0069989
0.00846672
0.00662407
-0.000193761
1.24369e-06
0.000194178
-1.78442e-07
0.0116241
-0.011624
0.000454296
-0.00662429
-0.00846695
-0.00699944
-0.0187783
-0.0212063
-0.0215719
-0.0174431
-0.0179253
-0.0196678
-0.017646
-0.0178563
-0.0213077
-0.020526
-0.017866
-0.00588952
0.00167289
-0.00125205
0.0142536
-0.0145925
0.0113714
-0.0109302
0.00877014
-0.00799133
0.00652584
-0.0056615
0.00469942
-0.00388322
0.00331292
-0.00260401
0.0023551
-0.00178242
-0.00168229
-0.00143293
-0.00129153
-0.00196627
-0.00207207
-6.35796e-07
0.00268286
-0.0015847
-0.000120123
0.000424306
-0.00284962
0.00035362
-0.000103571
-0.000123401
-0.000119525
-9.34604e-05
-3.35748e-06
0.000214309
0.000368285
-0.0042701
0.00334515
0.00117983
0.00324358
-0.000863123
0.00802516
-0.00802508
-0.00324351
-0.00117983
0.000863179
0.00252352
-0.0118008
-0.0108554
0.0117182
-0.0130337
-0.00351291
0.000326724
0.00152557
-0.00259161
0.0023548
0.00284801
3.51771e-08
-0.00284783
0.00351285
-0.00471617
0.00898899
0.000351067
0.0100753
-0.0100756
-0.00898932
-1.15966e-07
0.00637846
0.00665922
-0.00665946
0.00124294
-0.00637837
0.000463727
3.47547e-07
0.0062575
0.000689573
-0.00722603
0.0019225
-3.55568e-07
-5.06301e-07
1.63528e-08
0.00869282
-0.00664487
-0.0196538
0.00430541
-0.016033
0.0193805
-0.0181958
0.0161065
-0.0161071
-0.00173786
-0.0143185
-0.00107693
0.0133004
-0.0111693
-0.000385516
0.00999073
-0.00839671
-0.000107371
0.00726984
-0.00609574
1.74081e-05
0.00511996
-0.00430123
9.45692e-05
0.00350941
-0.00299884
0.000170786
0.0023934
-0.0021371
0.000296269
0.00178183
0.000741505
0.00156134
-0.00156145
5.9668e-05
0.000332078
-0.000764027
-0.000689536
1.77392e-08
0.000479444
-0.000479455
-0.00052555
1.27124e-08
0.000542004
-0.000542015
-0.000420781
-4.59656e-08
0.00101426
-0.00101446
3.02554e-05
-4.37263e-07
-0.000275869
0.000276786
-0.000197892
0.000984861
0.000478438
0.00052676
0.00028286
0.00110184
0.000407876
-0.00092717
-0.000186013
0.000694181
-0.000995984
0.000936611
0.000480241
0.000515148
0.000172412
0.00102505
0.000186085
-0.000795408
-0.000140873
0.000163496
-0.000770514
0.000959825
0.000126781
0.000132977
-0.000170083
-0.000212635
-0.000249266
-0.000274682
-0.000252653
-0.00011449
7.50057e-05
0.000517355
0.0139298
0.0116755
0.0110852
0.0155446
-0.0166056
0.0129171
-0.0125931
0.010007
-0.00914889
0.00746195
-0.00644201
0.0053784
-0.00440451
0.00378767
-0.0029486
0.00266161
-0.000191506
0.00251302
-0.00310798
0.00342846
-0.00423858
-7.25964e-08
0.0042383
-0.00509224
0.00457474
-0.00360271
0.00424578
-0.0055581
0.000106608
-0.00515343
0.000266097
0.00440387
-0.000204101
0.00284737
0.00328791
0.000295411
-0.00410739
-0.00451608
0.00365504
-0.00021555
-0.00289943
0.000242608
0.00217389
-0.0020245
0.000215617
0.0012914
-0.000139866
-0.000228219
0.000671392
-0.000959862
-0.000407852
-0.00110187
-0.000282773
-0.00052663
-0.000478197
-0.000984565
0.000197116
-0.000266469
-3.01316e-05
0.000444248
-4.72884e-05
-0.000694168
-1.3174e-05
0.000185976
0.000995981
0.000927196
0.000770486
-0.000163542
-0.000151608
0.00042081
-2.3399e-08
-2.85295e-08
-2.87733e-08
3.16612e-08
5.56279e-08
5.81011e-08
1.0226e-07
3.4262e-08
1.80517e-08
-2.83806e-09
2.41914e-07
0.00437673
-0.000202735
-0.00756342
0.00121573
-0.0165307
-0.00734061
0.0130332
-0.00032675
-0.00152555
-0.00124314
-0.000136861
0.000232142
-0.00142013
-0.000714724
-0.0048274
-0.00465615
0.0102387
0.0145311
-0.021949
0.000199996
0.0187757
-0.0158015
0.0178499
0.000293875
-0.00412571
-0.0124649
-0.0124336
-0.0121188
-0.00722163
-0.00752802
-0.00123152
-0.00294826
-0.00213555
-0.00388618
-0.00206266
-0.00127826
-0.000622276
-0.000419626
-0.000663991
-0.000145386
-0.000450931
-0.000116993
-0.0139311
-0.0122898
0.00970401
0.00864168
0.000572944
-0.0110544
0.000493383
0.000190624
-0.00235473
0.00259179
-0.00252359
-0.000195195
0.00612212
-0.000464182
-0.00231146
0.00156865
-0.00530926
-0.00116606
-0.00539804
1.6715e-07
3.18416e-07
1.09539e-06
3.1194e-07
-3.13785e-07
-4.19516e-07
-3.70755e-07
-8.19713e-07
-3.67223e-07
2.06036e-08
1.13475e-07
-0.000392524
0.000392515
0.000551432
1.60154e-05
-8.64359e-05
-0.000171969
-0.000279034
-0.000362768
-5.16783e-06
-0.00126535
-0.000803287
-0.000483491
-0.000170632
6.10841e-05
0.000140558
-0.0053115
-0.00483627
0.00410707
0.00358492
0.000273687
-0.0041852
0.00494095
0.000348791
-0.0059728
0.00662287
0.00043764
-0.00827496
-0.000254875
-0.00943583
0.00757827
0.000485678
-0.0103542
0.0111436
0.000638628
0.0001249
-9.74046e-06
-0.000161654
-0.000390765
-0.0068776
0.00567597
0.000378048
-0.00751375
0.00847225
-0.000307592
3.97724e-05
-0.00222124
-0.00423271
-0.00194584
-0.00330997
0.00886519
-0.011718
0.0360247
-0.00198889
0.00922761
-0.00310286
-0.00845673
-0.00488336
-0.00152115
-0.00321392
-0.000918138
-0.000195776
-0.00221011
-0.00132607
-0.00132728
-0.000817921
-0.000476672
-0.000200733
-0.000221599
-6.84789e-06
9.78762e-05
0.000147867
-0.00365538
-0.00328848
0.00289944
0.00255615
0.000203992
-0.00284741
-0.000295452
-0.000195347
-0.000203302
-0.000358627
5.06072e-05
0.000291706
0.00451545
-0.000261418
-0.000152436
0.00609533
-8.42833e-06
-0.00727077
0.000108151
0.00839627
-2.78967e-05
-0.00999162
0.000386652
0.0111686
-5.94809e-05
-0.0133009
0.00107717
0.0143183
-0.000190282
-0.0171337
0.00296839
0.0187663
0.00408211
0.0013292
-0.000226433
0.000226428
-0.0187669
-0.00296769
0.0171334
-0.00132949
0.0181959
-0.00869259
-0.0193809
-8.15414e-08
0.0160322
-0.0043054
0.0196549
0.00588985
0.00664479
0.00116596
0.00530962
0.00231126
-0.00192273
-0.00625793
0.00722665
-0.000689728
0.00734076
-0.00612185
-3.68339e-07
7.19407e-08
-1.63774e-08
-5.82721e-08
2.0331e-08
6.14258e-08
0.00173853
-0.015231
0.0132901
-0.0117482
0.0102361
-0.0102368
-8.83562e-05
0.00874425
7.30588e-05
-0.00756572
3.81817e-05
0.00628501
5.93742e-05
-0.00540378
9.54782e-05
0.00437893
4.88768e-05
-0.00376856
0.0001494
0.00299156
5.34746e-05
-0.00263004
0.000265775
0.00203412
0.000154421
-0.00186457
-1.02709e-08
0.00186445
-0.000741445
-0.00178194
-0.000296294
0.00213692
2.88345e-05
-0.00239349
-0.000170702
0.00299883
1.68261e-05
-0.00350971
-9.44461e-05
0.00430093
6.04043e-06
-0.00512052
-1.70141e-05
-5.94006e-05
0.00540358
2.19494e-08
-0.00437925
0.00376861
-0.00299168
0.00263
-1.10077e-07
-0.0020342
-0.000154532
-3.11037e-05
-8.47517e-05
-5.36063e-05
-0.000130831
-0.000186064
-0.00025091
-0.000318641
-0.000347469
-0.000277465
-0.00033973
0.000339859
0.00539791
0.00752829
0.0012311
0.000276253
0.0152309
-6.02306e-05
-0.0132907
-0.000457444
0.0117474
6.38642e-05
0.000194285
2.17039e-07
0.000458192
5.36681e-08
-7.41515e-08
8.89346e-05
-0.00874448
0.00756554
-0.00628534
-3.81398e-05
-5.40702e-08
-1.1805e-07
-3.83192e-08
-9.55144e-05
-3.97062e-08
-0.000149258
-6.82452e-08
1.90693e-08
-0.000265576
-2.89853e-08
3.1866e-08
0.000764038
-0.000332092
0.000350617
-0.000478908
0.000478862
-0.000350611
0.00105708
-0.000132888
0.000437119
-0.00100948
-0.000217381
2.76663e-05
-0.000905241
0.000970679
0.000389662
0.00112351
0.000301441
0.000525635
0.00097449
0.000498009
-0.000170927
-0.000382354
-0.000130046
1.04061e-07
-5.63698e-08
0.00012994
-0.00105714
-0.00043711
0.000132803
-0.00036309
0.000217239
0.000905203
-2.76706e-05
-0.000146803
0.000140883
0.000795438
-0.000186058
-0.00102497
-0.000172406
-0.000515136
0.000382796
0.000382362
-3.73859e-08
0.000171657
0.000363021
5.62299e-06
7.13183e-05
0.000516393
-0.000382773
-0.000190223
-2.11807e-08
-7.13099e-05
-0.000171677
0.000689595
-5.77107e-06
3.10683e-05
-3.2919e-08
2.34037e-08
2.32147e-08
9.78676e-08
-8.57437e-08
9.97375e-08
-0.000169455
6.05946e-05
0.000169667
-7.4665e-05
0.000189865
-0.0142539
-0.000516785
0.0139313
-0.000638927
-0.00970518
0.000253956
0.00827492
-0.000437385
-0.00662415
-0.0100069
0.000391779
0.00870728
-0.0109891
8.34785e-05
-0.00980483
0.0119292
-0.0147091
-6.11766e-05
-0.0130254
0.000318089
0.012592
-0.0129162
-0.00864398
0.0110546
-0.000572326
0.0166049
-0.000293063
0.0158018
-0.0187747
-0.000199833
-0.0178508
-0.0155441
-0.0110862
-0.000493869
0.0122886
-0.011675
-0.0139312
0.00331008
-0.000232243
0.00141987
-0.0330754
0.000715175
-9.70146e-05
0.00482696
-0.0350366
0.00465637
-0.0145311
-0.0102393
0.00488281
5.21307e-07
8.96874e-05
0.000643302
0.0243066
-2.24295e-08
0.0207284
-0.0207281
0.000217023
-0.0171983
6.15748e-05
0.01471
-0.0119291
0.0130236
-0.000318141
0.00980345
-8.37679e-05
0.0109897
-0.00870695
-0.000392353
0.00721098
-0.000116748
0.00793046
-0.00616403
-0.000334548
-0.000824728
-0.000491026
-0.00022411
6.11146e-05
0.000103652
6.46992e-05
0.000207924
0.000128216
0.000149582
-0.00247802
-0.00217446
0.00202436
0.00182972
0.00013676
-0.00189934
-0.000242775
-0.000172182
-0.000137775
-0.000215431
5.57583e-05
0.000150042
0.000481642
-0.00289301
0.000781215
0.000489965
0.000253627
0.000287534
0.00078705
0.0013956
-0.00271708
0.000277984
0.000142348
0.000134697
0.000121743
8.9722e-05
-4.79055e-06
-0.000314895
-0.00141013
-0.000686597
-0.000419663
-0.000694804
-5.87683e-05
0.0001093
0.000125699
-0.0129604
0.0144432
3.87231e-08
0.0122452
-0.012245
6.19445e-05
0.0105029
-5.46821e-08
0.00883053
-0.00883048
3.98213e-05
-0.00664565
-0.000106973
0.00555826
-0.00424582
0.00515269
-0.000265957
4.71853e-05
-0.000364176
-0.000270713
-0.000169129
-0.000176066
0.000101182
6.66579e-05
-0.00457503
-7.94988e-05
0.00382581
-0.00288584
0.00360235
-0.000218126
0.000144693
-2.75363e-05
-8.20463e-05
3.51011e-05
0.000146019
0.00026506
0.000774899
0.000486979
0.000304072
0.00129935
-0.00032719
0.000549122
-1.10533e-06
-0.000541218
0.00032385
-0.00129787
-0.000276206
-0.000288566
-7.36e-07
-9.17512e-08
4.32225e-05
3.02924e-06
3.47055e-05
2.61717e-05
0.000146615
0.00230142
-0.000196539
3.81298e-05
0.000215622
0.00320308
-0.00022315
-0.000117582
-4.8871e-05
0.000117501
0.000152429
0.000182556
0.000252946
0.000114786
5.94915e-05
-0.0113728
0.000150952
0.0103536
-0.000486005
-0.00757855
0.000390955
0.00597258
-0.000348662
-0.0049423
-0.00746114
0.000334937
0.00616432
-0.00793013
0.000116617
-0.00721177
0.00942301
-6.20657e-05
-0.0105027
-0.000109122
-2.29579e-07
-2.21678e-08
-7.41344e-07
0.000162489
-0.000161742
-8.93321e-05
-0.000643227
0.0219487
-0.0243067
-0.000104843
0.000136822
-0.000124804
-0.000190394
1.0203e-05
-3.03915e-08
8.89967e-05
-0.000194039
-6.36269e-05
-0.000182357
-7.288e-05
6.61892e-05
7.50995e-08
9.37139e-09
-1.3704e-08
-4.62851e-08
-3.97973e-08
5.17702e-09
1.08545e-08
-0.000132969
0.000170138
0.000212624
0.000249321
0.00027471
7.89483e-06
-0.00652628
0.000302664
0.00531098
-0.000291865
0.00483519
0.000358345
0.00418501
-0.00027375
-0.00358561
-0.0053783
0.00644092
-0.000121917
-0.000140885
-6.22798e-05
0.000278409
0.000418807
0.00062122
0.000347572
0.000318626
0.000251115
0.000186274
0.000171684
8.62737e-05
0.000130948
4.83853e-05
-1.63333e-05
-0.0005516
-0.000490431
-0.000253943
0.00178232
0.000196596
0.00168218
-0.000150124
-0.000276823
0.0027171
-0.000126775
0.000137826
0.000172214
0.000195395
0.000203465
0.000161853
-8.88863e-05
-6.62326e-05
-0.000378352
-0.0062683
-0.00567612
0.00687679
0.00751336
0.00799079
0.000307388
-0.00877017
2.76577e-05
0.0109298
0.000143287
0.000449967
0.0145902
0.00213333
0.00125212
-0.0360258
0.0205272
0.0178691
-0.00167376
0.00721959
0.012119
0.0213085
0.017857
-0.0088651
0.017645
0.0196732
0.0179287
-0.00922753
0.0174434
0.0124634
0.012435
0.00194611
0.00388451
0.00295249
0.00206284
0.00126515
0.00126498
0.000655061
3.35487e-06
-0.000117585
-4.00925e-05
-0.00847303
0.00943374
0.000116546
-0.0111452
0.00423238
0.00222055
0.0013268
0.000817549
0.000802599
0.000357363
0.000482915
0.00026132
0.00388269
-0.00331298
0.000223112
0.00247792
-0.000146846
-0.00230156
-0.00235522
-2.88109e-05
0.00260362
-1.6878e-05
-0.000128392
-9.87668e-05