/*--------------------------------*- C++ -*----------------------------------*\
| =========                 |                                                 |
| \\      /  F ield         | OpenFOAM: The Open Source CFD Toolbox           |
|  \\    /   O peration     | Version:  2306                                  |
|   \\  /    A nd           | Website:  www.openfoam.com                      |
|    \\/     M anipulation  |                                                 |
\*---------------------------------------------------------------------------*/
FoamFile
{
    version     2.0;
    format      ascii;
    arch        "LSB;label=32;scalar=64";
    class       volScalarField;
    location    "2.3";
    object      gradTz;
}
// * * * * * * * * * * * * * * * * * * * * * * * * * * * * * * * * * * * * * //

dimensions      [0 -1 0 1 0 0 0];

internalField   nonuniform List<scalar> 
2658
(
-0.0756924
-0.0732157
-0.0551475
-0.0501862
-0.062036
-0.0635556
-0.0578236
-0.0557536
-0.0501441
-0.0633674
-0.0627416
-0.0496107
-0.0661866
-0.0618476
-0.0640584
-0.065877
-0.0632231
-0.0657274
-0.0640003
-0.0610401
-0.0651033
-0.0586376
-0.0670808
-0.0514655
-0.0804927
-0.0649672
-0.0580163
-0.0685397
-0.0699101
-0.0573905
-0.0699095
-0.0580164
-0.0649667
-0.0670801
-0.0804927
-0.0514648
-0.0663873
-0.0925133
-0.0586369
-0.0651049
-0.0610409
-0.0640005
-0.0657268
-0.0956105
-0.0608461
-0.0601665
-0.062742
-0.0955187
-0.0658779
-0.0640589
-0.061847
-0.0661872
-0.0592423
-0.0958297
-0.0662459
-0.0641527
-0.0955265
-0.060446
-0.0518381
-0.0657942
-0.0955274
-0.0641535
-0.0662464
-0.0958299
-0.0619856
-0.04971
-0.0625768
-0.0565388
-0.0628825
-0.0628812
-0.0509764
-0.0567426
-0.0440856
-0.0507658
-0.0390836
-0.0502018
-0.0506274
-0.039032
-0.0446373
-0.0437912
-0.0506251
-0.0440693
-0.0564596
-0.0580072
-0.0472588
-0.0366318
-0.0275826
-0.0200776
-0.0141697
-0.00979738
-0.0068395
-0.00677748
-0.00584538
-0.00483856
-0.00523538
-0.00559704
-0.00513739
-0.00777254
-0.00514128
-0.00521506
-0.00781636
-0.00528024
-0.00567114
-0.00634994
-0.00536957
-0.0058061
-0.00414613
-0.00698393
-0.00452483
-0.00686737
-0.00636986
-0.00520424
-0.00715267
-0.00520404
-0.00636988
-0.00686736
-0.0053697
-0.00580611
-0.00567117
-0.00635001
-0.00528019
-0.00781603
-0.00521502
-0.00514128
-0.00503694
-0.00506137
-0.0048384
-0.00559722
-0.00513739
-0.00523552
-0.00778651
-0.00521624
-0.0062513
-0.00517742
-0.00678613
-0.00478856
-0.0046345
-0.0054588
-0.004726
-0.00472615
-0.00463435
-0.00478857
-0.00530455
-0.00562978
-0.00707966
-0.00562714
-0.00655865
-0.00630952
-0.00450181
-0.00452434
-0.00428867
-0.00606783
-0.00591665
-0.00380752
-0.00512081
-0.00483107
-0.00437928
-0.00481885
-0.00454258
-0.00471763
-0.00486442
-0.00465522
-0.00486773
-0.00471966
-0.00452321
-0.00479969
-0.00437699
-0.00501622
-0.00746614
-0.0063036
-0.00817398
-0.0100187
-0.0120726
-0.014511
-0.0175466
-0.0209822
-0.0250466
-0.0295916
-0.0347087
-0.0404114
-0.0464991
-0.0532337
-0.0602022
-0.0658071
-0.0637281
-0.0625616
-0.0631547
-0.0633666
-0.0620354
-0.0501855
-0.0635563
-0.0625759
-0.0497101
-0.0619857
-0.0496109
-0.0809948
-0.0472587
-0.0366316
-0.0275825
-0.0200775
-0.0141696
-0.00979723
-0.00683941
-0.00677754
-0.0058454
-0.00395997
-0.00427565
-0.00676547
-0.00439188
-0.00439189
-0.00427569
-0.00395994
-0.00676549
-0.00409193
-0.00506129
-0.00503694
-0.00558745
-0.00487501
-0.00585943
-0.00398955
-0.00408058
-0.00597051
-0.00674441
-0.00675318
-0.00684426
-0.00675313
-0.0058594
-0.00414606
-0.0044613
-0.00698395
-0.00475249
-0.00475248
-0.00446127
-0.00612727
-0.00433288
-0.00436583
-0.00436576
-0.00676034
-0.00433284
-0.00572605
-0.00542785
-0.00532547
-0.00494457
-0.00559849
-0.00535728
-0.00557466
-0.00765345
-0.0061956
-0.00455242
-0.00650328
-0.00483377
-0.00419741
-0.00511524
-0.00543018
-0.00789373
-0.00857871
-0.00857868
-0.00611666
-0.0105458
-0.00727323
-0.0126181
-0.0152898
-0.0105394
-0.0182934
-0.0220135
-0.0151291
-0.026124
-0.0309416
-0.0211455
-0.0362404
-0.0421196
-0.0286082
-0.0486208
-0.055399
-0.0373791
-0.0626361
-0.0713441
-0.0487692
-0.0745893
-0.0512433
-0.0653527
-0.0653524
-0.0685387
-0.0685938
-0.0618765
-0.0574296
-0.0823355
-0.054983
-0.0549834
-0.0554151
-0.0824678
-0.0561362
-0.0561364
-0.0532383
-0.0812225
-0.0676265
-0.0676263
-0.0772044
-0.109064
-0.0772046
-0.0784344
-0.107799
-0.0781337
-0.0907882
-0.0793871
-0.0775955
-0.0643085
-0.0751341
-0.0867364
-0.0811912
-0.0532382
-0.0507956
-0.0800691
-0.0645746
-0.0784612
-0.107802
-0.0781834
-0.0867928
-0.0789591
-0.0798034
-0.0789587
-0.0800691
-0.0643084
-0.0775958
-0.0781316
-0.1078
-0.0784336
-0.075135
-0.0867365
-0.0867927
-0.0781866
-0.1078
-0.0784622
-0.0645744
-0.0750621
-0.077717
-0.109145
-0.0773114
-0.0678384
-0.0813414
-0.053219
-0.0676984
-0.0777416
-0.078575
-0.050151
-0.0390051
-0.029427
-0.0214464
-0.0151498
-0.0104795
-0.00731561
-0.00722833
-0.00795626
-0.00785377
-0.00788029
-0.00792591
-0.00953378
-0.0115249
-0.0137899
-0.0167603
-0.0199553
-0.0239488
-0.0281638
-0.0332401
-0.0384732
-0.0446376
-0.0506264
-0.0580078
-0.0501433
-0.0557538
-0.0578229
-0.0567439
-0.0505452
-0.0399012
-0.0505457
-0.0439535
-0.0445448
-0.0432266
-0.037769
-0.0385556
-0.0293387
-0.0323311
-0.029294
-0.0384741
-0.033885
-0.0383477
-0.038208
-0.0299199
-0.0329185
-0.0328965
-0.0384111
-0.0339156
-0.044112
-0.0397747
-0.0502546
-0.057075
-0.0508541
-0.0631546
-0.0565928
-0.0601668
-0.0955189
-0.0750624
-0.0676978
-0.0532188
-0.0787659
-0.0598363
-0.0527985
-0.0495045
-0.0385967
-0.0291147
-0.021213
-0.0149786
-0.0103584
-0.00722851
-0.0067444
-0.00597048
-0.00408059
-0.00676029
-0.00398947
-0.00487503
-0.00558747
-0.00789094
-0.0059797
-0.00594576
-0.00591352
-0.00603358
-0.00566563
-0.00441904
-0.00633893
-0.00791871
-0.00719014
-0.00969845
-0.00914627
-0.00772028
-0.00711236
-0.00765787
-0.00629052
-0.00631565
-0.00628901
-0.00616252
-0.00591731
-0.00771318
-0.00780894
-0.00654534
-0.00768299
-0.0110313
-0.0112396
-0.0110295
-0.01593
-0.0163468
-0.0135928
-0.00931338
-0.00906177
-0.00943814
-0.00948118
-0.011425
-0.0114273
-0.00855211
-0.00943282
-0.00728465
-0.00769634
-0.0110377
-0.0161034
-0.0160811
-0.022906
-0.0232618
-0.0225631
-0.0310099
-0.0320877
-0.0274181
-0.0195771
-0.0190596
-0.0198602
-0.0198327
-0.0237419
-0.023666
-0.0178984
-0.0198198
-0.0165904
-0.0124486
-0.0136754
-0.0105125
-0.0137101
-0.0166212
-0.0124791
-0.0136989
-0.0115077
-0.00857156
-0.00952862
-0.00912374
-0.0105458
-0.0060035
-0.0089995
-0.00532852
-0.00725801
-0.00429908
-0.00533706
-0.00634346
-0.00655008
-0.00622682
-0.00644007
-0.00643602
-0.00786144
-0.0067096
-0.00613897
-0.00610363
-0.00778088
-0.00765383
-0.00945114
-0.00904812
-0.0109783
-0.0160095
-0.0228319
-0.0229631
-0.0316918
-0.0315821
-0.042099
-0.0428592
-0.0412254
-0.0528348
-0.0557683
-0.0486609
-0.0371695
-0.036362
-0.0384103
-0.0382073
-0.0441121
-0.0437908
-0.0338853
-0.0383474
-0.0327635
-0.0250402
-0.028011
-0.0217274
-0.0279798
-0.0329185
-0.025078
-0.0280645
-0.0237792
-0.0179356
-0.0198316
-0.0138328
-0.013211
-0.0152896
-0.00869888
-0.0126178
-0.00727323
-0.0073968
-0.0122934
-0.014831
-0.0177813
-0.0177809
-0.0125822
-0.0212975
-0.0153831
-0.0253305
-0.0178142
-0.0299208
-0.0214803
-0.0350678
-0.0244814
-0.0407201
-0.0290041
-0.0469825
-0.0325414
-0.0534295
-0.0377628
-0.061004
-0.0417522
-0.0664261
-0.0477882
-0.0779711
-0.062667
-0.0779712
-0.0512434
-0.0745881
-0.0487689
-0.0713442
-0.041666
-0.0626353
-0.0373788
-0.0553987
-0.032699
-0.0486203
-0.0286084
-0.0421199
-0.0246192
-0.0362401
-0.0211451
-0.0309417
-0.017901
-0.0261232
-0.015129
-0.0220137
-0.0126152
-0.0182929
-0.0105393
-0.0107201
-0.0135845
-0.00949035
-0.00687668
-0.00577351
-0.00554345
-0.00608096
-0.00793984
-0.0111096
-0.0158771
-0.0223813
-0.0306665
-0.0406361
-0.0518756
-0.0619135
-0.0698227
-0.0690824
-0.0690824
-0.0645813
-0.0748012
-0.060909
-0.0546252
-0.0727651
-0.0506649
-0.0612906
-0.0566342
-0.058137
-0.0564387
-0.0477881
-0.0664253
-0.0417516
-0.0610041
-0.0490216
-0.0504136
-0.0391454
-0.0325407
-0.0469828
-0.0534283
-0.0377633
-0.0462785
-0.0355744
-0.029004
-0.0407192
-0.0244811
-0.0350685
-0.0285782
-0.0295117
-0.0215158
-0.0152197
-0.0125821
-0.0212967
-0.0253311
-0.02992
-0.0214798
-0.0263778
-0.0189211
-0.0160187
-0.0110918
-0.0077824
-0.00743536
-0.0061167
-0.0103919
-0.00724567
-0.010392
-0.00739677
-0.0122933
-0.00872438
-0.0148315
-0.0107202
-0.013211
-0.0105629
-0.00872417
-0.0102256
-0.00912372
-0.00634348
-0.00725798
-0.00532858
-0.00899968
-0.00533718
-0.00789375
-0.00455235
-0.00543014
-0.00574945
-0.00511532
-0.0041974
-0.00483375
-0.0050162
-0.00650339
-0.00518025
-0.00492565
-0.0057957
-0.00535724
-0.00532536
-0.00559853
-0.00494409
-0.00573336
-0.00538319
-0.00552719
-0.00538312
-0.00494936
-0.00777238
-0.00573348
-0.00572611
-0.00579571
-0.00452484
-0.00492561
-0.00518024
-0.00572962
-0.00529503
-0.00492334
-0.00574404
-0.00558641
-0.00533567
-0.00566568
-0.00427745
-0.00575735
-0.00573399
-0.00760079
-0.00539628
-0.00607671
-0.00671522
-0.00677594
-0.0061911
-0.00776771
-0.0110748
-0.0160026
-0.0226476
-0.0226647
-0.0310874
-0.0411893
-0.0529016
-0.0760246
-0.0699151
-0.103796
-0.0618762
-0.0685951
-0.0934912
-0.0780444
-0.0780425
-0.0934917
-0.0993177
-0.0610568
-0.0797973
-0.0791487
-0.0806237
-0.0517087
-0.0657386
-0.0743579
-0.0790461
-0.108217
-0.0792053
-0.0918384
-0.0771263
-0.0856067
-0.0780958
-0.0804941
-0.0806607
-0.0864895
-0.103416
-0.0806632
-0.0993178
-0.0797988
-0.0610561
-0.0542588
-0.0806234
-0.0657379
-0.0517084
-0.0525351
-0.0813415
-0.0678397
-0.0773103
-0.109144
-0.077718
-0.0865824
-0.0801422
-0.0804942
-0.0813881
-0.0822649
-0.0542584
-0.0816781
-0.0801486
-0.0860012
-0.0801438
-0.0778648
-0.0865823
-0.076996
-0.0811914
-0.0507957
-0.0787659
-0.0598363
-0.0565927
-0.0600104
-0.0548096
-0.0422751
-0.0478175
-0.0507201
-0.0502536
-0.057076
-0.0564589
-0.0440694
-0.0506248
-0.0397739
-0.047936
-0.0421703
-0.0315416
-0.0364071
-0.0267504
-0.0190423
-0.0131897
-0.0132094
-0.0166869
-0.0151643
-0.0137998
-0.0133211
-0.0103201
-0.0138868
-0.016729
-0.0149742
-0.0200169
-0.0193599
-0.0163937
-0.0149339
-0.0233608
-0.0212866
-0.0282199
-0.0274552
-0.0212478
-0.0323309
-0.0293385
-0.0385559
-0.0377689
-0.029294
-0.0432264
-0.0390834
-0.0507664
-0.0502014
-0.0390323
-0.0501205
-0.0548866
-0.0731763
-0.0728626
-0.0632246
-0.0598547
-0.0520906
-0.0634976
-0.055394
-0.0551475
-0.0424515
-0.0317782
-0.0230249
-0.0161828
-0.0111503
-0.0110068
-0.0132511
-0.0124529
-0.0137457
-0.0106046
-0.0137463
-0.016625
-0.015355
-0.0198644
-0.0198638
-0.0166256
-0.0149162
-0.0103288
-0.00724923
-0.00670759
-0.00620333
-0.00625543
-0.00611166
-0.00531125
-0.00611218
-0.00809065
-0.00742398
-0.00953563
-0.00953482
-0.00809132
-0.00671702
-0.00855022
-0.00549352
-0.00549312
-0.00477744
-0.00517698
-0.00855041
-0.00633911
-0.00441871
-0.00566563
-0.00772013
-0.00719039
-0.00914687
-0.00969796
-0.00791921
-0.00625548
-0.0067076
-0.00655009
-0.00731566
-0.0060035
-0.00817396
-0.00722829
-0.00943821
-0.00857151
-0.011425
-0.0105128
-0.0136757
-0.0124489
-0.0165904
-0.0167604
-0.0149345
-0.0193607
-0.0200168
-0.0149749
-0.0163937
-0.0133218
-0.0138865
-0.0103205
-0.0113202
-0.0102709
-0.0137902
-0.0115249
-0.0114272
-0.00943295
-0.00855232
-0.00953404
-0.00711262
-0.00792593
-0.00788026
-0.00728462
-0.00948126
-0.00785382
-0.00795629
-0.0059797
-0.00622677
-0.00594569
-0.00426826
-0.00591363
-0.00620326
-0.00603342
-0.00399711
-0.00471764
-0.00486442
-0.00786152
-0.00643615
-0.0064401
-0.0065455
-0.00591737
-0.00577359
-0.00687675
-0.0094904
-0.00771302
-0.01103
-0.0135846
-0.0193795
-0.0159307
-0.022564
-0.0269773
-0.0269771
-0.0193792
-0.0153828
-0.0363527
-0.0363529
-0.0310107
-0.0412256
-0.0472491
-0.0472477
-0.058203
-0.0582037
-0.0528345
-0.0645819
-0.074809
-0.0609087
-0.0658092
-0.0505226
-0.0637278
-0.0566343
-0.060846
-0.0520905
-0.0777418
-0.0785751
-0.0501513
-0.0390052
-0.0294271
-0.0214466
-0.0151499
-0.0104796
-0.00869894
-0.0120726
-0.0104385
-0.013699
-0.0124795
-0.0166212
-0.0152816
-0.0198202
-0.0178983
-0.0236663
-0.0239488
-0.0212482
-0.0274556
-0.0282194
-0.021287
-0.0233606
-0.0239185
-0.0179025
-0.0237111
-0.0218008
-0.0280368
-0.0280367
-0.0237114
-0.0179028
-0.0239178
-0.0190769
-0.0162914
-0.0112625
-0.00794528
-0.00617605
-0.00671757
-0.00610247
-0.00511749
-0.00381088
-0.00621639
-0.00678544
-0.00517824
-0.00625173
-0.00573376
-0.00521643
-0.00778645
-0.00454233
-0.00481874
-0.00760037
-0.00437919
-0.004831
-0.00613825
-0.00629033
-0.0063154
-0.00628888
-0.00452315
-0.00471971
-0.0078909
-0.00486773
-0.00465546
-0.0041038
-0.00630362
-0.00429911
-0.00746615
-0.00479976
-0.00437679
-0.00616202
-0.007683
-0.00780895
-0.00931366
-0.0100188
-0.009062
-0.0115079
-0.0110316
-0.0112404
-0.0135929
-0.0145115
-0.0175467
-0.0151641
-0.0198606
-0.0179356
-0.0237794
-0.023742
-0.021728
-0.0280114
-0.0250397
-0.0327641
-0.03324
-0.0281645
-0.0267504
-0.0267512
-0.028065
-0.0250783
-0.0279804
-0.021213
-0.0149787
-0.0103585
-0.00722855
-0.00952865
-0.0138328
-0.0198317
-0.0189212
-0.0263779
-0.0276601
-0.0276601
-0.037301
-0.0339148
-0.0439476
-0.0394313
-0.048427
-0.0440811
-0.056687
-0.0505221
-0.0498232
-0.0383709
-0.0284323
-0.0203709
-0.0142003
-0.0097751
-0.00856782
-0.0114854
-0.0114845
-0.0114839
-0.0114862
-0.00856769
-0.00977514
-0.0142003
-0.012453
-0.0167296
-0.0132516
-0.00916602
-0.00778084
-0.0111503
-0.0161833
-0.0190771
-0.0199194
-0.0138001
-0.0131902
-0.0132097
-0.0166871
-0.0160812
-0.0163475
-0.0195776
-0.0209827
-0.0250467
-0.0215482
-0.0295921
-0.0347084
-0.029661
-0.0404127
-0.0464994
-0.0394323
-0.0507209
-0.0440811
-0.0566875
-0.0602024
-0.0416663
-0.0532345
-0.0326991
-0.0486618
-0.0371699
-0.0274184
-0.0232634
-0.0229066
-0.0315832
-0.0320906
-0.0421008
-0.0428628
-0.0546271
-0.0557661
-0.0727682
-0.0506649
-0.066387
-0.0925143
-0.0771263
-0.0792047
-0.108216
-0.0790466
-0.0743581
-0.0956112
-0.0612917
-0.0598552
-0.0625628
-0.0495045
-0.0385968
-0.0291148
-0.0310652
-0.0411446
-0.0484271
-0.0462785
-0.0355745
-0.0373011
-0.038371
-0.0289883
-0.0211187
-0.0284324
-0.020371
-0.0250498
-0.033194
-0.032846
-0.0300118
-0.0383462
-0.038346
-0.0328461
-0.0250496
-0.0331935
-0.026779
-0.0279793
-0.0228722
-0.0199194
-0.0160379
-0.0380794
-0.0316323
-0.0364427
-0.0445443
-0.0439538
-0.0339033
-0.038438
-0.0493175
-0.077592
-0.0749143
-0.0554152
-0.0780738
-0.0581371
-0.0564388
-0.0816786
-0.05743
-0.0822645
-0.0801487
-0.0860007
-0.0856059
-0.0791507
-0.0918386
-0.0780966
-0.0778658
-0.0817937
-0.0809949
-0.0604456
-0.0599906
-0.0551227
-0.0479681
-0.0440854
-0.0599902
-0.0732157
-0.0756941
-0.0617869
-0.0729889
-0.0657944
-0.0632856
-0.0565386
-0.042565
-0.0319188
-0.0231509
-0.0267792
-0.0230254
-0.0317777
-0.0364427
-0.0339036
-0.0380797
-0.0279796
-0.0228323
-0.0160101
-0.0109785
-0.00765795
-0.00769615
-0.0110378
-0.0161035
-0.0190603
-0.0198331
-0.0229635
-0.0316923
-0.0363628
-0.0439475
-0.047818
-0.0479352
-0.0364081
-0.0315418
-0.0421707
-0.0422764
-0.0548113
-0.0728646
-0.0600097
-0.0548883
-0.0731765
-0.0634983
-0.0501205
-0.0479687
-0.0424518
-0.0423781
-0.0553947
-0.0316345
-0.0190426
-0.0199558
-0.00904847
-0.00945138
-0.00670947
-0.00765442
-0.0110075
-0.0160388
-0.0228758
-0.0498232
-0.0423736
-0.0246194
-0.0179011
-0.0126155
-0.0137103
-0.00916589
-0.0113202
-0.0102707
-0.00492339
-0.00529511
-0.00572962
-0.00566576
-0.00543351
-0.00533604
-0.00558661
-0.00574408
-0.00494911
-0.00575731
-0.00427706
-0.00545879
-0.0059251
-0.00477724
-0.00517711
-0.00530637
-0.0062137
-0.0267504
-0.0328963
-0.0296611
-0.050853
-0.0525351
-0.0780736
-0.0769924
-0.00409189
-0.00409881
-0.0178144
-0.0207976
-0.0147032
-0.0380191
-0.0215476
-0.0299195
-0.0104383
-0.0152814
-0.0041039
-0.00426825
-0.00399684
-0.0793869
-0.0907882
-0.0769435
-0.0776317
-0.0769424
-0.0592427
-0.0617878
0.00613878
0.00610353
0.00778073
0.00719021
0.00772022
0.0079186
0.00969854
0.00914619
0.00711229
0.00792598
0.00603354
0.00399686
0.004819
0.00454272
0.00471773
0.00486451
0.00465543
0.00486779
0.00471979
0.00452335
0.00479988
0.00437724
0.00501631
0.00429905
0.00650334
0.00483384
0.00419743
0.00518019
0.00511525
0.00409896
0.0051152
0.00419738
0.00483378
0.00501631
0.00650337
0.00429907
0.00630362
0.00746609
0.0043771
0.0047999
0.00452336
0.00471981
0.0048678
0.00789098
0.00594563
0.00591349
0.00603337
0.00786135
0.00486454
0.00471771
0.00454264
0.00481892
0.00437958
0.00760042
0.00483116
0.005177
0.00855034
0.00611218
0.00531119
0.00549351
0.00855015
0.00517712
0.00483099
0.00760076
0.00566555
0.00441886
0.00633888
0.00625553
0.00809139
0.00809061
0.00742394
0.00953472
0.00856775
0.0114854
0.0103202
0.0113202
0.0115249
0.0102706
0.0137896
0.0136752
0.0114271
0.00855211
0.00943279
0.0095336
0.00683939
0.00979719
0.0141695
0.0200774
0.0275823
0.0366315
0.0472584
0.0809949
0.0800689
0.0645745
0.0784627
0.075062
0.0777175
0.109144
0.0773107
0.0790461
0.108218
0.0792043
0.0771263
0.0918383
0.0797972
0.079149
0.0542584
0.081678
0.0610566
0.0993176
0.093491
0.0780444
0.103417
0.0780419
0.0934913
0.099317
0.0797979
0.0791489
0.0771264
0.0918385
0.0792043
0.108215
0.079046
0.0773109
0.0678384
0.0676983
0.0645742
0.0750621
0.0777175
0.0784629
0.1078
0.0781863
0.0907887
0.0781313
0.1078
0.0784341
0.077204
0.0751351
0.0676263
0.0676265
0.0772043
0.0784345
0.107799
0.0781337
0.0907881
0.0793869
0.0781839
0.107801
0.0618468
0.066186
0.0958296
0.0592419
0.0662462
0.061787
0.064153
0.0657942
0.0632852
0.0657943
0.051838
0.0604459
0.060446
0.0955264
0.0641527
0.0617863
0.0662463
0.0592435
0.066187
0.0618463
0.0640585
0.0658765
0.0632223
0.065727
0.0639999
0.0610399
0.0651028
0.0586387
0.0670793
0.0925135
0.0663869
0.065808
0.0602018
0.0532345
0.0464984
0.0404127
0.0347083
0.0295923
0.0250464
0.0209825
0.0175466
0.0145114
0.0120726
0.0100188
0.00817386
0.00795631
0.0078537
0.00788027
0.00792579
0.00772007
0.00719027
0.00791918
0.00633901
0.00441882
0.00566557
0.00399712
0.0067775
0.00683946
0.00979731
0.0141696
0.0200775
0.0275824
0.0366314
0.0472585
0.0809948
0.0800689
0.0507957
0.053238
0.0787657
0.0561364
0.056136
0.0532381
0.0507956
0.0787657
0.0532187
0.0676977
0.0678388
0.074358
0.0657376
0.0806233
0.0517085
0.0525351
0.0813413
0.0777416
0.0785749
0.0760244
0.0785749
0.0806233
0.0542582
0.0574292
0.0816779
0.0618761
0.0618761
0.0574291
0.0823354
0.0549835
0.0554149
0.0554147
0.0780735
0.0549829
0.0801483
0.0813885
0.0804935
0.0780953
0.0856066
0.080661
0.0864898
0.103795
0.0699148
0.0512428
0.0804924
0.0649663
0.0580155
0.0699098
0.0653517
0.0779704
0.0664252
0.0664248
0.041752
0.062635
0.037378
0.0553986
0.0486204
0.0286083
0.0421195
0.0362401
0.0211452
0.0309415
0.0261236
0.0151289
0.0220134
0.0182932
0.0105392
0.0152895
0.0126179
0.00727306
0.0105457
0.00899952
0.00532851
0.00725794
0.00455243
0.00543002
0.00543004
0.00518012
0.00492571
0.00475251
0.0044613
0.00612723
0.00433281
0.00433283
0.00436581
0.00619104
0.00439184
0.00439183
0.00427566
0.00607666
0.00472595
0.0047261
0.00463439
0.00655875
0.00562721
0.00562978
0.00621635
0.0067856
0.00517845
0.00625221
0.00521675
0.00778674
0.00523556
0.00483861
0.00584539
0.0042771
0.00575735
0.0057339
0.00558663
0.0057442
0.00513767
0.00777298
0.00514151
0.00503698
0.00597045
0.00409189
0.00506126
0.00559692
0.00674443
0.00675315
0.00731562
0.0104795
0.0151498
0.0214465
0.0294269
0.0390051
0.0501509
0.0505223
0.0637278
0.0625621
0.0631544
0.0633663
0.0580075
0.050626
0.0446373
0.0384732
0.0332399
0.0281641
0.0239486
0.0199555
0.0167602
0.01379
0.0115248
0.00953396
0.00711249
0.00914653
0.00969784
0.0095356
0.0114838
0.0106044
0.0114846
0.0137454
0.0138867
0.0133211
0.0163937
0.016729
0.0149742
0.01936
0.0149338
0.0167603
0.0124487
0.0165902
0.0166211
0.0152812
0.0198323
0.0198597
0.016687
0.012479
0.0137098
0.0105126
0.0114249
0.00948108
0.00728444
0.00788028
0.00620323
0.00591342
0.00786138
0.00559712
0.00523552
0.00778668
0.00521641
0.00625153
0.00517752
0.00678615
0.00621359
0.00530646
0.00463449
0.0047885
0.00545874
0.00427743
0.00395997
0.00584543
0.00575731
0.00483846
0.00506133
0.00409192
0.00676548
0.00427562
0.00671521
0.0072492
0.0103287
0.0149162
0.0211186
0.0289883
0.0384379
0.0493173
0.0775919
0.0812223
0.0798031
0.0789585
0.0769939
0.0865816
0.077867
0.109143
0.0860002
0.0657389
0.0517085
0.0525347
0.0780735
0.0581369
0.056634
0.0608461
0.0601662
0.0627418
0.0619858
0.0497103
0.0625762
0.0635559
0.0501859
0.0578228
0.0557537
0.0620352
0.0501435
0.0548865
0.0731765
0.0728636
0.0727684
0.0748093
0.0645817
0.0528346
0.0557692
0.0609087
0.0546273
0.0420988
0.0428603
0.0412268
0.0310103
0.0320891
0.0371705
0.0486601
0.0478171
0.0566873
0.0570747
0.0502538
0.0506245
0.0440691
0.0564589
0.0508536
0.0495043
0.0777415
0.081341
0.0532189
0.0811913
0.0801439
0.0801483
0.082265
0.0610561
0.0685929
0.0685389
0.069081
0.069822
0.0619134
0.0518754
0.0406357
0.0306667
0.0223814
0.0158773
0.0111095
0.00793982
0.00608086
0.00554338
0.00577348
0.00577346
0.00591732
0.00771314
0.0110297
0.0159303
0.0225636
0.0232624
0.0274188
0.031583
0.0229063
0.0160812
0.0163468
0.0195776
0.0190599
0.0237793
0.0237417
0.0198329
0.0198199
0.0178981
0.0236661
0.028011
0.0250398
0.0327637
0.038347
0.0338852
0.0437911
0.0397737
0.044112
0.0382074
0.0339158
0.0439479
0.0507193
0.044081
0.0484267
0.0385965
0.0291145
0.0299196
0.0329184
0.02798
0.025078
0.0328966
0.0384102
0.0296613
0.0363625
0.0422756
0.05481
0.0598542
0.061291
0.0956106
0.0743579
0.0506648
0.0600098
0.0955182
0.063498
0.0756927
0.0732159
0.0551482
0.055401
0.0501189
0.0479347
0.0421701
0.0315415
0.0316918
0.0229632
0.0161033
0.0110376
0.0110314
0.0112396
0.0135929
0.0132093
0.0166869
0.016621
0.01371
0.0136754
0.0124487
0.0165903
0.0152814
0.0149786
0.0212129
0.0217277
0.0198315
0.0179354
0.0198601
0.0151642
0.0189211
0.0261239
0.0179012
0.0309415
0.0211455
0.0362409
0.0246191
0.0421196
0.0286088
0.0486214
0.0326989
0.0553983
0.0373787
0.0626357
0.0416662
0.0713435
0.0487689
0.0745879
0.0514647
0.0477882
0.0564386
0.0564385
0.0745878
0.0487688
0.0713435
0.0477881
0.0779711
0.0512427
0.0653518
0.0626667
0.0699101
0.0580156
0.0649665
0.0670797
0.0804925
0.0685386
0.0685947
0.0822648
0.0806619
0.080495
0.0856061
0.0780934
0.086
0.0801421
0.0817938
0.0824676
0.0749141
0.0527983
0.0529013
0.0504135
0.041752
0.0610032
0.0534292
0.0469821
0.0407204
0.0407193
0.0244817
0.0350683
0.0214797
0.0299203
0.0178143
0.0253308
0.015383
0.0212971
0.012582
0.0177813
0.0107202
0.014831
0.00872432
0.0122933
0.00739654
0.0103918
0.00611679
0.00857869
0.00533702
0.00789368
0.00574946
0.0078937
0.00455236
0.0072579
0.00532849
0.00899968
0.00600357
0.0105457
0.0072732
0.012618
0.00869894
0.0152897
0.0105392
0.0182933
0.0126153
0.0220136
0.0151291
0.0153831
0.0212972
0.0147033
0.017781
0.0148314
0.0122931
0.010392
0.00724574
0.00857872
0.0053371
0.00634345
0.00912368
0.00739668
0.00949025
0.0135847
0.0193796
0.0269777
0.0363533
0.0472484
0.058203
0.0582026
0.0690822
0.0645819
0.0528336
0.0472479
0.0610041
0.0377628
0.0534282
0.0325404
0.0469829
0.0290039
0.0355742
0.0391453
0.0325407
0.0380191
0.0295116
0.0244815
0.0350677
0.029921
0.0253305
0.0178143
0.0215157
0.0207979
0.0152197
0.0125821
0.0105629
0.00872433
0.0102253
0.00743536
0.00611666
0.00619558
0.00765349
0.0047525
0.0049257
0.0063701
0.00520452
0.00520431
0.00637012
0.00686753
0.00452488
0.00536966
0.00580614
0.0058594
0.00398947
0.00487497
0.00558751
0.00521528
0.00781642
0.0052805
0.00635035
0.00567118
0.00559858
0.00494434
0.00532548
0.00535732
0.00557471
0.00715327
0.00535742
0.00686768
0.00536993
0.00452487
0.00414616
0.0058594
0.00487501
0.00398953
0.00408061
0.00597047
0.005037
0.00514142
0.00777281
0.0051377
0.00574416
0.00538314
0.00532534
0.0054278
0.00579569
0.00414607
0.00698391
0.00572608
0.00573349
0.00538309
0.00494947
0.00552713
0.00572607
0.00579567
0.00446129
0.00698397
0.00634344
0.00778238
0.0110918
0.0160187
0.0226645
0.0310873
0.0411892
0.0462783
0.0377635
0.0462783
0.050151
0.0416665
0.0658076
0.050522
0.0566871
0.044081
0.0502531
0.0397737
0.0437907
0.0338846
0.038347
0.0384728
0.0292938
0.0323306
0.0331936
0.0293383
0.0377684
0.0432261
0.0445442
0.0390829
0.0502008
0.0390314
0.0446372
0.0506263
0.050624
0.056459
0.0440697
0.0580068
0.0501441
0.0557532
0.0578228
0.0501855
0.0620352
0.0633667
0.0631538
0.0508534
0.057075
0.0625617
0.0637273
0.0612911
0.0566341
0.060846
0.0520903
0.0601666
0.0565926
0.0627414
0.0496107
0.0619857
0.0625766
0.0497096
0.0732157
0.0729886
0.0599906
0.0565386
0.0628813
0.0509768
0.0567429
0.0567432
0.0440846
0.0507657
0.0390826
0.0445444
0.0432263
0.0502004
0.039032
0.0377686
0.0293387
0.0331939
0.0323307
0.0292944
0.0274555
0.0212871
0.0239183
0.0233602
0.021248
0.022832
0.0160098
0.0109783
0.00765774
0.00769619
0.00768285
0.00780895
0.00931378
0.00906187
0.0115079
0.0114249
0.00948129
0.00943274
0.00855199
0.0114273
0.0105126
0.0103583
0.00722852
0.00728443
0.00655006
0.00622679
0.0059796
0.00410392
0.00628884
0.00616199
0.00654532
0.00643992
0.0063154
0.00465566
0.00426827
0.00643604
0.00904812
0.0131899
0.0190423
0.0267503
0.0364074
0.0380801
0.0423778
0.0424518
0.0317765
0.0316317
0.0279795
0.0267785
0.0364423
0.0385552
0.0383456
0.030012
0.0328458
0.0328459
0.0250494
0.0280367
0.0218003
0.023711
0.0237109
0.0179024
0.0200165
0.0149745
0.0167295
0.0163936
0.0193606
0.014934
0.0199194
0.0228741
0.023025
0.0161829
0.016035
0.0137999
0.0132512
0.0138863
0.0103203
0.0114861
0.01132
0.0133215
0.0102708
0.0094511
0.0110072
0.0111504
0.00778063
0.00765367
0.00670938
0.0062903
0.00613843
0.00610255
0.00511759
0.00381091
0.00450177
0.0042886
0.00452436
0.00380771
0.0051208
0.00477726
0.00591677
0.00617597
0.00794533
0.00916608
0.00856757
0.00977506
0.00952861
0.00857156
0.00943806
0.00722821
0.0138327
0.0124792
0.0136988
0.0104382
0.0132109
0.0107201
0.0132109
0.018921
0.0263778
0.0294268
0.0390049
0.0326988
0.0532333
0.0394314
0.0439472
0.0339152
0.0382067
0.0299193
0.0327634
0.0250394
0.0280106
0.0281636
0.0212477
0.0233603
0.0239179
0.0212865
0.0274551
0.0282193
0.0250494
0.0280365
0.0267788
0.0319184
0.0425647
0.0551224
0.0479671
0.0479683
0.0599893
0.0565386
0.0635553
0.0628818
0.0598363
0.058137
0.0484268
0.0495044
0.0385965
0.0411446
0.037301
0.0355744
0.0290038
0.0263778
0.02148
0.02766
0.0310651
0.0226475
0.0160025
0.0110747
0.00776769
0.00677594
0.00684425
0.00675316
0.00731561
0.0104794
0.0151498
0.0214464
0.0179009
0.0295914
0.0215478
0.0237791
0.0179353
0.0237418
0.0217275
0.023666
0.0178982
0.0198196
0.019955
0.0239486
0.0190418
0.0190593
0.0195767
0.0225637
0.0310103
0.0412261
0.0363525
0.0269772
0.0193793
0.0135844
0.0159304
0.0110296
0.00949039
0.00687665
0.00771287
0.00591723
0.00616251
0.00654515
0.00817394
0.00722824
0.00795619
0.0062267
0.00594565
0.0042682
0.00674442
0.00722847
0.0103583
0.0149785
0.0212128
0.0291145
0.0373008
0.02766
0.0250778
0.028064
0.0279794
0.0329182
0.0328963
0.0347083
0.0296604
0.0404117
0.0246191
0.0464989
0.0371688
0.0486594
0.0602017
0.0609098
0.066387
0.0506647
0.0651046
0.0586366
0.0925135
0.0748029
0.0727646
0.0610394
0.0640002
0.0956105
0.0657267
0.0632246
0.0658777
0.0955182
0.0640588
0.0731758
0.0728622
0.0598555
0.0546251
0.0557684
0.0420983
0.0428615
0.0315815
0.0320884
0.0274177
0.0267499
0.036362
0.0384098
0.044112
0.0478167
0.0507196
0.0548088
0.0422747
0.0316911
0.0229627
0.0229056
0.0232621
0.0160806
0.0151639
0.0175465
0.0145111
0.0104381
0.0115079
0.00857147
0.00943808
0.0100187
0.0060035
0.0120725
0.00869886
0.00931361
0.0135925
0.016347
0.0132091
0.0136986
0.0110314
0.0112399
0.00768302
0.00780843
0.00628908
0.00410385
0.00630348
0.00746607
0.00567137
0.00528045
0.00781651
0.00521531
0.00558763
0.00789095
0.00597965
0.0064399
0.00785381
0.00906165
0.0090479
0.0131893
0.0161029
0.0110374
0.00769618
0.00631561
0.0064358
0.00765777
0.0109781
0.0160094
0.0228315
0.0315412
0.04217
0.0548862
0.0600106
0.0634984
0.0551471
0.0424507
0.0364427
0.0439535
0.0439534
0.0399008
0.0505443
0.0507652
0.0440853
0.0498229
0.0498229
0.0598363
0.0565927
0.0383707
0.0339027
0.0383707
0.0339026
0.0385552
0.0383457
0.028432
0.0284322
0.0203709
0.0203709
0.0198314
0.0138327
0.00952857
0.00912366
0.00655007
0.00676031
0.00436579
0.00670758
0.00977506
0.0142002
0.0142002
0.0124529
0.0166251
0.0153546
0.0166255
0.0124529
0.0132512
0.0162911
0.0190766
0.0198641
0.0198638
0.0200168
0.0179025
0.0190768
0.0231505
0.0230248
0.0317772
0.0279792
0.0380789
0.0364066
0.0479346
0.0501188
0.0553998
0.0423771
0.0267495
0.0332397
0.031634
0.0228755
0.0199187
0.0161826
0.0111502
0.0112625
0.00916588
0.00945093
0.0137999
0.016037
0.011007
0.00670952
0.00765365
0.00671706
0.00611158
0.00671746
0.00625546
0.00670755
0.00620317
0.00676546
0.00395995
0.00572956
0.00529507
0.00492314
0.00539624
0.00572958
0.00566566
0.00529503
0.00492267
0.00558657
0.00533557
0.00543347
0.00533615
0.00566576
0.00478859
0.00530462
0.00477747
0.00549305
0.00630944
0.00592527
0.00606778
0.00545881
0.00707939
0.00573424
0.0062905
0.0137462
0.00677752
0.0505446
0.0756926
0.00573353
0.00559852
0.00580622
0.00635047
0.00494444
0.00494932
0.0126152
0.0209822
0.0250461
0.0514646
0.00687665
0.0955269
0.0751341
0.0643081
0.0775957
0.086792
0.0789587
0.0811912
0.086736
0.0776316
0.0867357
0.0769439
0.0867918
0.0775957
0.0643085
0.0793866
0.0958294
0.109063
0.0769423
0.0865818
0.0778682
0.0769944
0.0282193
0.0267505
0.0280644
0.021548
0.00676027
0.00408059
0.028578
0.0490227
0.0573917
0.0394309
0.0520905
0.0496108
0.00437929
)
;

boundaryField
{
    face
    {
        type            calculated;
        value           nonuniform List<scalar> 
154
(
-0.08
-0.08
-0.08
-0.08
-0.08
-0.08
-0.08
-0.08
-0.08
-0.08
-0.08
-0.08
-0.08
-0.08
-0.08
-0.08
-0.08
-0.08
-0.08
-0.08
-0.08
-0.08
-0.08
-0.08
-0.08
-0.08
-0.08
-0.08
-0.08
-0.08
-0.08
-0.08
-0.08
-0.08
-0.08
-0.08
-0.08
-0.08
-0.08
-0.08
-0.08
-0.08
-0.08
-0.08
-0.08
-0.08
-0.08
-0.08
-0.08
-0.08
-0.08
-0.08
-0.08
-0.08
-0.08
-0.08
-0.08
-0.08
-0.08
-0.08
-0.08
-0.08
-0.08
-0.08
-0.08
-0.08
-0.08
-0.08
-0.08
-0.08
-0.08
-0.08
-0.08
-0.08
-0.08
-0.08
-0.08
0.08
0.08
0.08
0.08
0.08
0.08
0.08
0.08
0.08
0.08
0.08
0.08
0.08
0.08
0.08
0.08
0.08
0.08