/*--------------------------------*- C++ -*----------------------------------*\
| =========                 |                                                 |
| \\      /  F ield         | OpenFOAM: The Open Source CFD Toolbox           |
|  \\    /   O peration     | Version:  2306                                  |
|   \\  /    A nd           | Website:  www.openfoam.com                      |
|    \\/     M anipulation  |                                                 |
\*---------------------------------------------------------------------------*/
FoamFile
{
    version     2.0;
    format      ascii;
    arch        "LSB;label=32;scalar=64";
    class       volVectorField;
    location    "2.7";
    object      flux;
}
// * * * * * * * * * * * * * * * * * * * * * * * * * * * * * * * * * * * * * //

dimensions      [0 1 -1 1 0 0 0];

internalField   nonuniform List<vector> 
5712
(
(-0.258021 0.457986 0.281857)
(-0.329747 0.264061 0.926586)
(-0.613868 0.743233 0.223441)
(-0.89543 0.486742 0.950415)
(-0.91329 0.810342 0.16806)
(-1.57681 0.599547 0.984204)
(-0.703481 1.27317 0.266039)
(-1.79173 1.57586 1.5208)
(-0.573332 1.6728 0.327171)
(-1.25935 2.04494 2.09186)
(-0.856936 1.08137 0.324321)
(-1.30293 0.938995 1.52151)
(-0.769586 0.687149 0.312419)
(-1.00787 0.54412 1.26149)
(-0.3382 0.344736 0.324656)
(-0.386356 0.233107 1.12635)
(-0.573855 0.770966 0.196384)
(-0.657135 0.790824 0.120669)
(-0.743295 0.663108 0.524968)
(-0.737355 0.780238 0.310415)
(-0.586551 1.04125 0.192825)
(-0.726066 0.932353 0.103803)
(-0.86454 1.19913 0.576366)
(-0.776969 0.972934 0.28598)
(-0.209085 0.324132 0.21381)
(-0.156302 0.234329 0.153773)
(-0.260227 0.181853 0.686209)
(-0.17428 0.135012 0.479846)
(-0.484161 0.388646 0.161602)
(-0.385407 0.316993 0.115115)
(-0.828073 0.235167 0.675159)
(-0.597841 0.189644 0.487708)
(-0.642524 0.701667 0.378789)
(-0.666906 0.730589 0.159926)
(-0.711459 0.718851 0.326215)
(-0.67524 0.610492 0.144825)
(-0.246785 0.563035 0.149187)
(-0.194741 0.437591 0.352103)
(-1.52398 0.439397 1.31838)
(-2.04069 0.4984 0.357852)
(-0.984389 0.708658 0.471342)
(-1.20888 0.704483 0.160168)
(-2.05341 1.48249 1.702)
(-2.66413 1.53194 0.462957)
(-1.06294 1.05322 0.443028)
(-1.21668 1.08388 0.154189)
(-1.12786 0.597816 0.939033)
(-1.59395 0.504169 0.291727)
(-0.983504 0.652996 0.481406)
(-1.30456 0.466046 0.16833)
(-0.573798 0.303721 0.814177)
(-0.926847 0.311286 0.259227)
(-0.109231 0.246659 0.221121)
(-0.0367433 0.338662 0.109627)
(-0.115218 0.128878 0.333936)
(-0.0414578 0.153528 0.129417)
(-0.330052 0.338625 0.239068)
(-0.132936 0.456076 0.129436)
(-0.453943 0.201096 0.326075)
(-0.166623 0.232789 0.124335)
(-0.32162 0.376808 0.305734)
(-0.12361 0.621978 0.173779)
(-0.344362 0.260444 0.28092)
(-0.110255 0.422462 0.121242)
(-0.588061 0.0995638 0.4192)
(-0.186862 0.251905 0.150034)
(-0.759253 0.0828236 0.144447)
(-0.255821 0.188332 0.0502338)
(-0.936322 0.699197 0.473418)
(-0.463558 0.862826 0.326011)
(-0.857067 0.718656 0.294044)
(-0.508452 0.857487 0.21395)
(-0.881598 0.856291 0.536195)
(-0.570194 0.86614 0.440635)
(-0.775055 0.869136 0.293288)
(-0.584712 0.853153 0.253901)
(-0.671161 0.60979 0.276079)
(-0.398425 0.825023 0.184586)
(-0.670339 0.629272 0.385928)
(-0.340249 0.816002 0.2552)
(-0.883998 0.706565 0.194534)
(-0.566965 0.850575 0.142479)
(-0.885842 0.705578 0.0997086)
(-0.572658 0.84802 0.0815282)
(-0.818145 0.874568 0.189704)
(-0.619767 0.841049 0.16393)
(-0.827977 0.870655 0.099238)
(-0.623054 0.832409 0.0955154)
(-0.725229 0.562545 0.18516)
(-0.461282 0.827901 0.120288)
(-0.751319 0.542595 0.095576)
(-0.473012 0.83053 0.0607844)
(-0.684114 0.681382 0.244902)
(-0.295007 0.793758 0.132579)
(-0.314887 0.860772 0.181857)
(-0.381691 1.19232 0.221344)
(-0.687025 0.721011 0.332513)
(-0.321997 0.912206 0.236285)
(-0.273592 0.852419 0.261318)
(-0.385121 1.28937 0.376834)
(-0.72483 0.646449 0.163028)
(-0.294146 0.700796 0.0768495)
(-0.357815 0.864741 0.107703)
(-0.385583 1.14919 0.127282)
(-0.760984 0.639748 0.0814565)
(-0.301521 0.656783 0.0336021)
(-0.389711 0.874314 0.0467014)
(-0.403499 1.14189 0.0472217)
(-0.141591 0.197423 0.286412)
(-0.154406 0.256053 0.514796)
(-0.0473585 0.501685 0.195178)
(-0.091568 0.866228 0.575921)
(-0.415763 0.246712 0.337489)
(-0.439115 0.278792 0.504974)
(-0.15945 0.650349 0.240854)
(-0.280028 0.992414 0.604874)
(-0.532397 0.310195 0.385722)
(-0.593101 0.312746 0.458849)
(-0.253447 0.830621 0.311999)
(-0.429679 1.11955 0.593453)
(-0.489115 0.961218 0.47017)
(-0.0479732 1.03886 0.570279)
(-0.533785 0.807028 0.345485)
(-0.652778 0.773341 0.330377)
(-0.351235 1.1038 0.363567)
(-0.0345771 1.04838 0.568798)
(-0.300351 0.985216 0.515699)
(-0.476869 0.825155 0.4979)
(-0.765504 0.711077 0.505939)
(-0.521584 1.25479 0.734682)
(-0.385891 0.953993 0.461974)
(-0.465548 0.937479 0.348059)
(-0.403432 0.830032 0.295714)
(-0.345123 0.816392 0.330177)
(-0.539713 1.44449 0.523421)
(-0.137056 0.0774391 0.593593)
(-0.113781 0.0925907 0.527507)
(-0.0779943 0.164064 0.689729)
(-0.0775355 0.365606 0.659299)
(-0.387526 0.110529 0.543486)
(-0.329505 0.124063 0.501578)
(-0.231134 0.229229 0.682501)
(-0.220306 0.414833 0.646627)
(-0.485384 0.16649 0.470968)
(-0.41546 0.140645 0.457136)
(-0.302068 0.314876 0.64192)
(-0.271753 0.482745 0.624515)
(-0.235405 1.0438 0.413761)
(-0.298316 1.04171 0.322469)
(-0.483598 0.937407 0.37571)
(-0.499718 0.932027 0.323663)
(-0.552097 0.795906 0.405319)
(-0.503111 0.738261 0.356737)
(-0.62185 0.599685 0.431356)
(-0.543904 0.534726 0.409013)
(-0.414052 0.417589 0.594284)
(-0.348209 0.572461 0.602604)
(-0.358627 0.947502 0.387272)
(-0.381672 0.923612 0.332068)
(-0.471891 0.950274 0.362055)
(-0.378904 0.942744 0.340921)
(-0.427886 0.8207 0.368177)
(-0.317581 0.775015 0.382511)
(-0.368425 0.673581 0.411934)
(-0.259039 0.606714 0.454955)
(-0.424678 0.446699 0.538607)
(-0.280526 0.582278 0.614321)
(-0.405798 0.93749 0.317538)
(-0.197309 1.05848 0.248814)
(-0.347071 0.933549 0.219128)
(-0.379939 1.08251 0.280419)
(-0.498325 0.910398 0.436046)
(-0.654461 0.947075 0.534198)
(-0.547791 0.887173 0.303338)
(-0.79997 0.951078 0.481823)
(-0.274992 0.847267 0.183174)
(-0.309146 0.863153 0.242785)
(-0.35854 0.840754 0.27147)
(-0.12372 0.838924 0.222921)
(-0.308816 0.925617 0.0518276)
(-0.597879 1.08629 0.186522)
(-0.292674 0.920759 0.0276024)
(-0.639644 1.08456 0.0672337)
(-0.542077 0.860343 0.1553)
(-0.986536 0.961387 0.324943)
(-0.551395 0.852581 0.0579004)
(-1.04543 0.958399 0.11301)
(-0.231969 0.850523 0.022686)
(-0.511303 0.861256 0.156451)
(-0.210233 0.849948 0.0134389)
(-0.543574 0.860453 0.0548407)
(-0.31919 0.709358 0.17876)
(-0.245178 0.674851 0.181892)
(-0.441486 0.456051 0.203029)
(-0.178128 0.505257 0.124449)
(-0.331063 0.703909 0.281914)
(-0.0751647 0.656279 0.22395)
(-0.386376 0.448558 0.331615)
(-0.0386492 0.50471 0.226105)
(-0.305819 0.71976 0.0397547)
(-0.363899 0.673461 0.0994589)
(-0.462146 0.466333 0.100362)
(-0.215194 0.50855 0.0559326)
(-0.252282 0.722763 0.0565484)
(-0.427877 0.666868 0.0738802)
(-0.408305 0.480995 0.0805963)
(-0.281387 0.509437 0.0606668)
(-0.0916248 0.0642671 0.417432)
(-0.0814916 0.0446911 0.252349)
(-0.0740323 0.0316402 0.0788277)
(-0.0655979 0.037972 0.473613)
(-0.0607107 0.0269969 0.27028)
(-0.0549624 0.0253369 0.0882133)
(-0.272525 0.0889268 0.400133)
(-0.227426 0.0552225 0.249679)
(-0.199592 0.0426651 0.0837317)
(-0.173419 0.0755469 0.467031)
(-0.142238 0.0619797 0.270788)
(-0.125171 0.0543458 0.0881374)
(-0.337653 0.105315 0.368307)
(-0.295475 0.0909536 0.229029)
(-0.274842 0.092624 0.0749587)
(-0.209418 0.133551 0.456842)
(-0.174288 0.11147 0.272683)
(-0.166184 0.101234 0.0908786)
(-0.265365 1.01022 0.207528)
(-0.238732 0.927505 0.110034)
(-0.234315 0.867167 0.0289965)
(-0.438971 0.924921 0.259989)
(-0.340803 0.8707 0.170267)
(-0.290059 0.824238 0.0592816)
(-0.409091 0.661065 0.306152)
(-0.309116 0.623367 0.211058)
(-0.25425 0.60296 0.072698)
(-0.43039 0.444648 0.351507)
(-0.346101 0.39371 0.226249)
(-0.303856 0.372571 0.0748654)
(-0.261259 0.203022 0.453331)
(-0.176134 0.153638 0.280888)
(-0.139379 0.131883 0.0982587)
(-0.631901 0.910214 0.248332)
(-0.555663 0.857647 0.137192)
(-0.487082 0.808846 0.0427148)
(-0.4022 0.928291 0.241588)
(-0.340871 0.860978 0.173023)
(-0.28797 0.805483 0.0649869)
(-0.352738 0.683382 0.283378)
(-0.280142 0.599242 0.209178)
(-0.228384 0.55078 0.0764117)
(-0.292553 0.443146 0.354944)
(-0.216184 0.363113 0.248296)
(-0.170157 0.330704 0.0883606)
(-0.294962 0.216366 0.458018)
(-0.167273 0.153307 0.283586)
(-0.0970307 0.124749 0.100165)
(-0.408967 1.05988 0.0117815)
(-0.555587 1.04161 0.0797301)
(-0.322414 1.15117 0.112127)
(-0.418166 1.03694 0.162717)
(-0.436852 1.18481 0.085012)
(-0.643538 1.03805 0.098253)
(-0.389292 1.42643 0.214058)
(-0.568751 1.08989 0.203851)
(-0.00250107 0.823649 0.0239529)
(-0.0299815 0.840323 0.0416359)
(0.0193337 0.812012 0.0255821)
(-0.00444974 0.755526 0.0433866)
(-0.118846 0.924398 0.0194036)
(-0.135234 0.874423 0.0566583)
(-0.0492983 0.905402 0.0347282)
(-0.0269309 0.775439 0.0743952)
(-0.028625 0.895269 0.128498)
(-0.0975635 0.891978 0.0630279)
(-0.373296 0.82743 0.162947)
(-0.546392 0.889169 0.0942189)
(-0.265542 1.10868 0.0872104)
(-0.144069 0.990583 0.151821)
(-0.389418 1.08988 0.13516)
(-0.386311 1.10527 0.0388435)
(-0.596468 1.18093 0.238383)
(-0.656617 1.21994 0.0594937)
(0.0230412 0.906948 -0.073077)
(0.160832 0.940391 0.0311039)
(-0.299909 0.813974 0.0727987)
(-0.282795 0.789688 0.0550708)
(-0.281427 0.990235 0.0509126)
(-0.217188 1.0145 0.048198)
(-0.0415183 0.648528 0.397138)
(-0.0223694 0.342238 0.187353)
(-0.0263544 0.603639 0.108796)
(-0.0103559 0.379925 0.0692598)
(-0.0814314 0.65783 0.403483)
(-0.0106807 0.345194 0.195048)
(0.0128075 0.601109 0.136322)
(0.0330803 0.377046 0.0872441)
(-0.368562 0.650148 0.398788)
(-0.0989224 0.347243 0.210336)
(-0.247772 0.60053 0.198318)
(-0.0665745 0.39351 0.142455)
(-0.355768 0.58302 0.141455)
(-0.109583 0.412091 0.103786)
(-0.430298 0.589484 0.0718218)
(-0.14012 0.40861 0.0694359)
(-0.349831 0.837018 0.501678)
(-0.474586 0.719915 0.446936)
(-0.323938 0.828907 0.236729)
(-0.463615 0.7169 0.246301)
(-0.55637 0.922209 0.532765)
(-0.591534 0.836412 0.500754)
(-0.531476 0.928056 0.263021)
(-0.561139 0.82599 0.265849)
(-0.227522 0.812863 0.213903)
(-0.380795 0.600122 0.220949)
(-0.262072 0.851634 0.436803)
(-0.377783 0.594003 0.367)
(-0.343517 0.845057 0.14211)
(-0.447196 0.712268 0.148748)
(-0.378793 0.854639 0.0808292)
(-0.452417 0.703778 0.0911225)
(-0.553658 0.949615 0.162766)
(-0.551744 0.817841 0.161941)
(-0.57984 0.949157 0.0906728)
(-0.554669 0.806788 0.0967346)
(-0.229559 0.802736 0.126239)
(-0.369199 0.60091 0.135972)
(-0.249608 0.799314 0.0723053)
(-0.376664 0.596921 0.087545)
(-0.00247665 0.532315 0.193914)
(-0.0628655 0.34823 0.140194)
(-0.30662 0.474094 0.195038)
(-0.202115 0.293128 0.14392)
(0.0203779 0.497659 0.301227)
(-0.0461536 0.311139 0.185897)
(-0.284149 0.456643 0.289605)
(-0.179332 0.272957 0.199216)
(-0.0201672 0.544303 0.117907)
(-0.0723819 0.370715 0.101424)
(-0.313955 0.481058 0.123725)
(-0.219763 0.302349 0.0932959)
(-0.0383482 0.544408 0.0674309)
(-0.0832056 0.38478 0.0642446)
(-0.316449 0.479509 0.0788938)
(-0.228249 0.30443 0.0547408)
(0.0262414 0.09926 0.476346)
(0.0305354 0.0501635 0.34471)
(-0.00771286 0.176054 0.248565)
(-0.00212431 0.0852482 0.26118)
(0.11315 0.106463 0.474482)
(0.115331 0.0630634 0.351395)
(0.00567979 0.188088 0.250276)
(0.0112723 0.105681 0.259954)
(0.0185068 0.132548 0.491074)
(0.0749227 0.0982294 0.361561)
(-0.074384 0.209889 0.253897)
(-0.0495399 0.144885 0.252011)
(0.408496 0.525303 0.55059)
(0.377681 0.811016 0.585896)
(0.220485 0.377056 0.509323)
(0.165894 0.360447 0.34844)
(0.011177 0.245864 0.207576)
(0.415267 0.797382 0.555449)
(0.431706 0.558145 0.523878)
(0.171994 0.326504 0.496814)
(0.25264 0.327411 0.420722)
(0.0257981 0.199728 0.286924)
(-0.403826 0.825517 0.52078)
(-0.321254 0.653304 0.478048)
(-0.291852 0.520749 0.389266)
(-0.279794 0.403349 0.307651)
(-0.179622 0.237443 0.202604)
(0.0321446 0.0252804 0.304622)
(0.0307626 0.019229 0.27997)
(-0.000124513 0.0406488 0.291675)
(-0.00513949 0.0260567 0.343232)
(0.10169 0.0385379 0.31066)
(0.103373 0.02644 0.272296)
(-0.000912672 0.0657689 0.293012)
(-0.0124411 0.0503024 0.337046)
(0.10174 0.0708347 0.318377)
(0.128496 0.0572378 0.264967)
(-0.0361552 0.104899 0.293493)
(-0.0524186 0.0837816 0.32949)
(0.205213 0.815417 0.419546)
(0.0959021 0.800844 0.295668)
(0.328945 0.557284 0.400417)
(0.209901 0.545006 0.280955)
(0.145431 0.363456 0.324534)
(0.112626 0.376979 0.266727)
(0.162786 0.30517 0.312917)
(0.14448 0.290372 0.274737)
(-0.0287881 0.168744 0.270968)
(-0.0710021 0.137903 0.324117)
(-0.149285 0.76181 0.348167)
(-0.0945606 0.703271 0.302125)
(-0.0421875 0.595453 0.314929)
(0.0416408 0.533994 0.277314)
(-0.0450333 0.466281 0.276703)
(0.0283991 0.426029 0.255119)
(-0.0789833 0.352827 0.253787)
(-0.0238824 0.330094 0.258361)
(-0.101489 0.209494 0.215016)
(-0.117477 0.217299 0.309071)
(-0.212114 0.606958 0.281416)
(-0.195439 0.503279 0.191052)
(-0.401557 0.608766 0.187179)
(-0.244156 0.48871 0.111415)
(-0.323502 0.723359 0.360664)
(-0.32817 0.609826 0.278085)
(-0.491157 0.719294 0.251362)
(-0.39958 0.597805 0.201302)
(-0.324141 0.513849 0.157005)
(-0.195013 0.429238 0.0959008)
(-0.164858 0.499699 0.228019)
(-0.165356 0.432853 0.171512)
(-0.472661 0.607688 0.189733)
(-0.211276 0.479587 0.0897846)
(-0.519838 0.603571 0.0701084)
(-0.236743 0.478426 0.0404771)
(-0.547628 0.715245 0.197973)
(-0.407845 0.607156 0.14277)
(-0.584431 0.707805 0.0698251)
(-0.436667 0.604706 0.0577382)
(-0.391479 0.522343 0.167191)
(-0.160497 0.421342 0.076166)
(-0.438161 0.521285 0.0662976)
(-0.185324 0.426973 0.0353786)
(-0.267066 0.399454 0.136616)
(-0.218657 0.350006 0.129925)
(-0.21954 0.251548 0.126674)
(-0.326278 0.279411 0.189646)
(-0.176707 0.385641 0.190438)
(-0.201698 0.343804 0.185872)
(-0.189222 0.239082 0.162644)
(-0.302698 0.265552 0.244724)
(-0.306401 0.416411 0.135832)
(-0.217717 0.356622 0.0916534)
(-0.247198 0.258094 0.0901788)
(-0.373871 0.297095 0.127265)
(-0.368777 0.4268 0.0423578)
(-0.236648 0.356887 0.0214226)
(-0.303767 0.269035 0.011908)
(-0.38644 0.30165 0.0255146)
(0.0328895 0.0827859 0.19612)
(0.0361977 0.0735386 0.0816606)
(0.0411999 0.0611349 0.0239917)
(-0.000190759 0.368203 0.229803)
(0.0125253 0.195494 0.0590095)
(0.0143449 0.159709 0.015635)
(0.120691 0.0795652 0.196422)
(0.13141 0.0795799 0.0874461)
(0.132568 0.0710069 0.0267654)
(0.00660739 0.39567 0.228076)
(0.0360485 0.229621 0.061066)
(0.0367955 0.194841 0.0169459)
(0.151566 0.108298 0.179776)
(0.173821 0.12307 0.0849352)
(0.180275 0.126865 0.0218712)
(-0.0308176 0.431639 0.222128)
(0.0345404 0.285215 0.0616305)
(0.0481287 0.254851 0.0143607)
(0.0534822 0.769526 0.181011)
(0.0464709 0.732651 0.0901037)
(0.0345193 0.703166 0.0191998)
(0.159169 0.536922 0.170663)
(0.165076 0.531394 0.0814409)
(0.155259 0.526178 0.0186608)
(0.130348 0.399535 0.174897)
(0.150791 0.403189 0.0834989)
(0.149665 0.406803 0.0223675)
(0.161201 0.351858 0.180535)
(0.178197 0.346403 0.0844184)
(0.175764 0.340587 0.0175765)
(-0.0654423 0.486011 0.219739)
(0.0144299 0.350247 0.0599641)
(0.0211657 0.31808 0.00890848)
(-0.136772 0.65391 0.2317)
(-0.0767716 0.615757 0.114901)
(-0.0392295 0.588018 0.029852)
(0.0443245 0.498173 0.21654)
(0.0940301 0.474862 0.107219)
(0.120605 0.460485 0.028954)
(0.0408253 0.424385 0.204397)
(0.105776 0.403291 0.100847)
(0.134236 0.389643 0.0292008)
(0.0154094 0.419557 0.201796)
(0.0870042 0.378989 0.085604)
(0.107879 0.353819 0.0207655)
(-0.108686 0.589002 0.237277)
(0.0213992 0.394587 0.0554661)
(0.0372438 0.35678 0.0134274)
(0.000862852 0.181989 0.0747044)
(0.00165895 0.114303 0.0270958)
(0.00235705 0.0861426 0.00526994)
(0.00362892 0.0811369 -0.00892153)
(0.0110046 0.207959 0.0310181)
(0.00650838 0.126009 0.0119092)
(0.00558416 0.0915979 0.00320439)
(0.00562701 0.0830728 -0.00182086)
(-0.000431785 0.182578 0.0792673)
(0.00322386 0.113856 0.0297889)
(0.00798129 0.086248 0.00760663)
(0.0128613 0.0818004 -0.00554515)
(0.0177448 0.212648 0.0393686)
(0.0120119 0.128696 0.0166024)
(0.0137129 0.0932693 0.00790514)
(0.0153682 0.0837339 0.00370031)
(-0.0107505 0.181159 0.0853777)
(0.0011157 0.111812 0.0332704)
(0.0112962 0.085575 0.0115478)
(0.0227395 0.0806801 -0.000421472)
(0.00586172 0.21674 0.0675939)
(0.00980367 0.130038 0.032164)
(0.0132897 0.0945583 0.0130263)
(0.0156291 0.0826827 0.00321872)
(0.00116322 0.23477 0.0516029)
(0.00596511 0.138822 0.0298719)
(0.0066553 0.0978142 0.0117063)
(0.00672674 0.0873648 0.00017388)
(-0.00931368 0.242309 0.0489232)
(-0.000247501 0.144781 0.0329789)
(0.0053398 0.101619 0.0201552)
(0.00935446 0.0913024 0.0124288)
(-0.0415416 0.194043 0.0710531)
(-0.00854947 0.11967 0.0320082)
(0.00489411 0.0888647 0.0102544)
(0.0144692 0.0813155 -0.00749948)
(-0.0649738 0.15066 0.0612811)
(-0.0151378 0.100626 0.0271665)
(0.000930427 0.0796366 0.0120871)
(0.0244606 0.078171 -0.00776272)
(-0.02957 0.166493 0.0841443)
(-0.00374044 0.106134 0.0329427)
(0.00824671 0.081667 0.0106116)
(0.0207025 0.074772 -0.00576472)
(-0.0537082 0.13604 0.0764718)
(-0.0115743 0.0936365 0.0300357)
(0.000175759 0.0759421 0.0119657)
(0.0215271 0.0746709 -0.0129419)
(-0.0439356 0.212341 0.0571487)
(-0.0101568 0.129818 0.030019)
(0.00582467 0.0940898 0.012585)
(0.0179008 0.0857076 -0.00217788)
(-0.0726455 0.159265 0.0471857)
(-0.0179641 0.105719 0.0242044)
(0.000865034 0.0820449 0.0132241)
(0.0286846 0.0809918 0.000281332)
(-0.048845 0.222556 0.0424981)
(-0.0134465 0.136614 0.0267449)
(0.00518955 0.0976727 0.0164871)
(0.0211383 0.0886169 0.0104805)
(-0.0781497 0.162814 0.0326446)
(-0.0205498 0.109292 0.0206649)
(-7.33884e-05 0.0839163 0.0141815)
(0.030005 0.0823542 0.0086525)
(7.41595e-06 0.130715 0.0958173)
(0.000934672 0.0947584 0.0327372)
(0.00201896 0.0768955 0.00506389)
(0.00451282 0.0765313 -0.0176871)
(0.00123617 0.0726893 0.0960125)
(0.00130198 0.0708819 0.0303038)
(0.00127916 0.0655083 0.00696116)
(0.00415094 0.0717222 -0.0243217)
(0.00207812 0.130525 0.0957806)
(0.00325615 0.0938749 0.0332673)
(0.00614509 0.0765666 0.00600182)
(0.0121206 0.0762518 -0.0167947)
(0.00608506 0.0767163 0.0930476)
(0.00447437 0.0719491 0.029512)
(0.00389572 0.0659079 0.00732913)
(0.0112078 0.0721289 -0.0235421)
(-0.0186844 0.133324 0.0940633)
(-0.00235387 0.0932516 0.033482)
(0.00684657 0.0764434 0.00919168)
(0.0207837 0.0762741 -0.0120494)
(-0.0093847 0.0900383 0.0868122)
(0.000972469 0.0758265 0.0279778)
(0.00524275 0.0674 0.00914217)
(0.0198109 0.0740134 -0.0193379)
(-0.00519473 0.129754 0.0824207)
(0.0048227 0.0895758 0.030996)
(0.0100437 0.0741682 0.0128552)
(0.0207103 0.0775026 -0.00187392)
(-0.00239203 0.101213 0.0951972)
(0.00385313 0.078312 0.0313934)
(0.00458071 0.0690837 0.0130437)
(0.0199905 0.0731805 -0.0226476)
(-0.0467176 0.116291 0.0741122)
(-0.00895321 0.0854171 0.027862)
(0.0018351 0.0716358 0.0130336)
(0.0279008 0.0733771 -0.00531621)
(0.0033432 0.0109095 0.076989)
(0.00187766 0.0511205 0.0214613)
(0.00146212 0.0498968 0.00630713)
(0.00311447 0.0148782 -0.0165984)
(0.00678009 -0.0619929 0.030863)
(0.00278848 0.039785 0.00781879)
(0.00151644 0.0431197 0.00179658)
(0.0014455 0.016192 -0.00350165)
(0.00660184 0.0212683 0.0792337)
(0.00443872 0.0544801 0.0228897)
(0.00332323 0.0511453 0.00715454)
(0.00807945 0.0157807 -0.0157995)
(0.0172055 -0.0483704 0.0320378)
(0.00740237 0.0435955 0.00844501)
(0.00386788 0.0442481 0.00233236)
(0.00374096 0.0165709 -0.00288072)
(0.00297769 0.0405577 0.0802253)
(0.00486699 0.0603913 0.024496)
(0.00466211 0.053225 0.00898986)
(0.0133237 0.0157585 -0.0138728)
(0.0213989 -0.0255863 0.0324104)
(0.0103731 0.0499673 0.00915121)
(0.00583582 0.0460088 0.00306277)
(0.00590898 0.0168161 -0.00209969)
(-0.00593251 0.0637777 0.0722019)
(0.00432569 0.0672589 0.0231356)
(0.00586691 0.0558715 0.0103973)
(0.0184857 0.0172109 -0.0109698)
(0.0159518 -0.0020602 0.0313281)
(0.0111508 0.056862 0.00945409)
(0.00696373 0.0483706 0.00420784)
(0.00753874 0.017604 -0.000719279)
(-0.0254416 0.0782213 0.0659922)
(0.00024831 0.0733 0.0230623)
(0.00352772 0.059089 0.011542)
(0.017939 0.0203842 -0.00639552)
(0.00310784 0.00214017 0.0278533)
(0.0095615 0.0617816 0.00996949)
(0.00656817 0.0505312 0.00578792)
(0.00780291 0.0182865 0.00118848)
(-0.0542945 0.0836845 0.0462801)
(-0.00554311 0.079552 0.0188459)
(0.00311853 0.0607517 0.00937169)
(0.0208276 0.0192311 -0.00175578)
(-0.0180817 -0.0156352 0.026144)
(0.00233524 0.0662531 0.0131551)
(0.00432551 0.0543661 0.00823322)
(0.00737565 0.019453 0.00450553)
(-0.0426242 0.081555 0.0534169)
(-0.00188728 0.0767816 0.0190233)
(0.00360872 0.0595223 0.00917519)
(0.019458 0.0192572 -0.00451714)
(-0.011692 -0.016454 0.0263451)
(0.00554125 0.0641551 0.0113579)
(0.00565301 0.0524727 0.00701131)
(0.00793721 0.0187678 0.00285832)
(-0.0650655 0.0838612 0.037323)
(-0.0101057 0.0815098 0.0183762)
(0.00153841 0.0620166 0.0105162)
(0.0225661 0.0178067 0.00185747)
(-0.0239567 -0.0192019 0.023575)
(-0.000872469 0.0681082 0.0139915)
(0.00286035 0.0557819 0.0092353)
(0.00689929 0.0196066 0.00610971)
(-0.0731459 0.0859689 0.0264201)
(-0.014704 0.0836643 0.0168262)
(-0.000692331 0.0639633 0.0118253)
(0.0222802 0.0182898 0.00759554)
(-0.0294763 -0.014917 0.0198133)
(-0.00444458 0.0703463 0.0140736)
(0.000916367 0.0574759 0.0102111)
(0.00595906 0.020157 0.0079247)
(0.00162743 0.0807689 -0.000781977)
(0.000748712 0.0643972 0.000378778)
(0.000404575 0.0459406 0.000386536)
(0.000249732 0.0273999 0.000279414)
(0.000187412 0.00909542 0.000218875)
(0.00215585 0.079822 -0.000108855)
(0.00115558 0.0642647 0.00025166)
(0.000666309 0.0459734 0.000217747)
(0.000421639 0.0274346 0.000154536)
(0.000318508 0.00910754 0.000121114)
(0.00388299 0.0817446 0.000464874)
(0.00174388 0.0648862 0.00105817)
(0.000940165 0.046187 0.000784065)
(0.000583477 0.0275173 0.00053443)
(0.000441147 0.00913011 0.000412417)
(0.00489529 0.0809751 0.00124368)
(0.00259271 0.0648915 0.00102498)
(0.00149613 0.0463045 0.000677454)
(0.000951312 0.0275959 0.000449646)
(0.000720946 0.00915575 0.00034464)
(0.00514476 0.0835418 0.0018464)
(0.00218389 0.0655868 0.00188981)
(0.00116285 0.046508 0.00128904)
(0.000720987 0.0276662 0.000866123)
(0.000546528 0.00917382 0.000666815)
(0.00659905 0.0823759 0.00508766)
(0.00344177 0.0656471 0.00347026)
(0.00199028 0.0466967 0.00219563)
(0.00127227 0.0277872 0.00144452)
(0.000967458 0.00921334 0.00110465)
(0.00347655 0.0837248 0.00614531)
(0.00176751 0.0665235 0.00410814)
(0.00101743 0.0472178 0.00259542)
(0.000651505 0.0280561 0.00171072)
(0.000495702 0.00929604 0.00131176)
(0.0024415 0.0857221 0.00891198)
(0.00102867 0.0677966 0.00544604)
(0.000543365 0.0479669 0.00334616)
(0.000338564 0.0284421 0.00218713)
(0.000255188 0.00941476 0.00167486)
(0.00520322 0.0854273 0.00327251)
(0.00223934 0.0664371 0.00276527)
(0.00121279 0.046973 0.00182251)
(0.000759742 0.0278991 0.00121337)
(0.000573782 0.00924481 0.000928526)
(0.00247555 0.0912758 0.00347773)
(0.000914289 0.0674909 0.00260381)
(0.000467215 0.0472772 0.00167957)
(0.000286765 0.028015 0.00111556)
(0.000215079 0.00927705 0.000854053)
(0.0054856 0.0858051 0.00224743)
(0.00261056 0.0662172 0.00221031)
(0.00147776 0.0467471 0.00148465)
(0.000939397 0.027769 0.000997191)
(0.000713552 0.0092032 0.000766695)
(0.00233611 0.091129 0.00406779)
(0.000909975 0.06711 0.00268684)
(0.000479041 0.0470276 0.00167829)
(0.000296234 0.0278834 0.00110756)
(0.000221909 0.00923584 0.000845626)
(0.00398761 0.0862617 0.00426538)
(0.00145788 0.0672117 0.00330772)
(0.000733105 0.0474413 0.00215396)
(0.000448698 0.0281422 0.00143145)
(0.000336972 0.00932001 0.00109814)
(0.00234126 0.092941 0.00464625)
(0.000815673 0.0682418 0.00311883)
(0.000408649 0.0477036 0.00197003)
(0.000250602 0.0282345 0.00130103)
(0.000188288 0.009345 0.000996406)
(0.00342576 0.0881806 0.00708802)
(0.000922279 0.0684445 0.00438872)
(0.000374167 0.0481457 0.0027024)
(0.000209783 0.0285023 0.00176736)
(0.000152113 0.00943078 0.00135269)
(0.00188889 0.0949775 0.00591928)
(0.000434165 0.0693398 0.00362284)
(0.00016065 0.0483136 0.00222718)
(8.65353e-05 0.0285458 0.00145626)
(6.16321e-05 0.00944116 0.00111272)
(0.00135243 0.0830543 -0.00146436)
(0.000563946 0.0647167 0.000201831)
(0.000294076 0.0459382 0.000287438)
(0.000178071 0.0273719 0.000214648)
(0.000132607 0.00908479 0.000169454)
(0.00097694 0.0874117 -0.000802466)
(0.000447815 0.0650714 6.57091e-05)
(0.000243985 0.0459476 0.000112914)
(0.000149716 0.0273557 8.60044e-05)
(0.000111863 0.00907842 6.88023e-05)
(0.00330403 0.083962 -0.000647495)
(0.00141891 0.0651018 0.000627639)
(0.000758422 0.0461213 0.000533404)
(0.000465555 0.027457 0.000372413)
(0.000349604 0.00910954 0.00029032)
(0.00252416 0.0881278 -0.000510704)
(0.00118254 0.0653605 0.000216651)
(0.000655243 0.0460871 0.000198723)
(0.000405627 0.0274211 0.00014021)
(0.000304106 0.00909754 0.000110476)
(0.00462829 0.0857955 0.000381307)
(0.00174757 0.0657482 0.00112185)
(0.000896545 0.0464106 0.00081242)
(0.0005428 0.0275907 0.00055336)
(0.000406506 0.00914846 0.000430342)
(0.00343635 0.0897052 0.000586615)
(0.00163531 0.0658867 0.000717342)
(0.00091558 0.0463364 0.000476331)
(0.000568721 0.0275386 0.000314693)
(0.000429254 0.00913186 0.000243874)
(0.0042026 0.0888553 0.00265803)
(0.00201017 0.0664978 0.00217228)
(0.00114475 0.0467041 0.00140783)
(0.000725058 0.0277219 0.000940764)
(0.000551511 0.0091863 0.000727084)
(0.0023494 0.0915928 0.00176359)
(0.00124964 0.0664551 0.00136993)
(0.000722532 0.0466223 0.000869264)
(0.000454223 0.027675 0.000576631)
(0.000346055 0.00917126 0.000445895)
(0.00218934 0.0917831 0.00487952)
(0.00110684 0.0668856 0.0028416)
(0.000644014 0.0468712 0.00172271)
(0.000411962 0.0278003 0.00112588)
(0.000313364 0.00920944 0.00085997)
(-0.0141833 0.359581 0.0610779)
(-0.0186979 0.550165 0.139811)
(-0.0324291 0.378856 0.0612319)
(-0.0459456 0.56316 0.138111)
(-0.0350414 0.407771 0.0663729)
(-0.0578504 0.580817 0.136692)
(-0.0154263 0.429114 0.0791879)
(-0.0479934 0.593753 0.142287)
(0.00984733 0.415294 0.0830097)
(-0.0120705 0.574918 0.147281)
(-0.0305311 0.390027 0.0327872)
(-0.04937 0.438468 0.0519147)
(0.00356051 0.388629 0.0544832)
(0.000656904 0.456216 0.087991)
(-0.045445 0.393321 0.017125)
(-0.0710734 0.436514 0.025094)
(-0.0566309 0.400725 0.00587673)
(-0.0805316 0.442729 0.00816759)
(-0.0234195 0.317033 0.320392)
(-0.00541326 0.0541529 0.0763623)
(-0.0012153 0.0115332 0.0174587)
(-0.000267591 0.00257807 0.00388939)
(-6.68892e-05 0.000455272 0.000963321)
(-0.00828077 0.352138 0.08713)
(-0.00358508 0.100039 0.0234298)
(-0.000512787 0.0242236 0.00622171)
(-0.000133893 0.00547871 0.00141155)
(-5.71234e-05 0.000967235 0.000305761)
(-0.071961 0.321366 0.317404)
(-0.0165627 0.053877 0.0750168)
(-0.0037312 0.0113861 0.0171311)
(-0.000817509 0.00253474 0.00378378)
(-0.000204614 0.000446334 0.000943977)
(-0.0199178 0.356499 0.0886296)
(-0.00526685 0.0999004 0.0261303)
(-0.00126327 0.0240867 0.0064286)
(-0.000264304 0.00542028 0.00149129)
(-7.03305e-05 0.000948529 0.000369325)
(-0.121172 0.326366 0.304495)
(-0.0279507 0.0539275 0.071435)
(-0.00631272 0.0112928 0.0162461)
(-0.00138744 0.00250183 0.00358269)
(-0.000346468 0.000439483 0.000894644)
(-0.0314024 0.361086 0.0860254)
(-0.00886248 0.100004 0.0252845)
(-0.0021251 0.0239665 0.00620487)
(-0.000488081 0.00537083 0.0014323)
(-0.000121675 0.000938215 0.000355987)
(-0.163183 0.325932 0.280641)
(-0.0377553 0.0526755 0.0652253)
(-0.00856059 0.0109253 0.0147831)
(-0.00188683 0.00241315 0.00325622)
(-0.000471648 0.000423495 0.000813132)
(-0.0364386 0.359416 0.0837547)
(-0.0111148 0.098546 0.0241064)
(-0.0027523 0.0235182 0.00583839)
(-0.000639813 0.00525921 0.00133561)
(-0.000159296 0.000917504 0.000330114)
(-0.204769 0.311752 0.236744)
(-0.0478482 0.0491138 0.0547196)
(-0.0109227 0.0101615 0.0124046)
(-0.00241912 0.00225046 0.00273529)
(-0.000607118 0.000395735 0.000683747)
(-0.0400229 0.342907 0.0794732)
(-0.0134345 0.0941562 0.0222491)
(-0.00342828 0.022536 0.00532816)
(-0.000808084 0.00505244 0.00121097)
(-0.000203612 0.00088257 0.000298341)
(-0.244646 0.281518 0.113438)
(-0.0589489 0.0461218 0.0274124)
(-0.0136425 0.0098523 0.00631809)
(-0.0030464 0.00221706 0.00140271)
(-0.000767728 0.000392767 0.000351023)
(-0.0605839 0.28795 0.0388154)
(-0.0184698 0.0828635 0.011041)
(-0.00454527 0.020348 0.00262134)
(-0.00104001 0.00463532 0.000585087)
(-0.000259392 0.000817175 0.000143725)
(-0.226974 0.289942 0.168109)
(-0.0544748 0.0467324 0.0400517)
(-0.0125509 0.00986398 0.00916141)
(-0.00279121 0.00220575 0.00202443)
(-0.00070129 0.000389508 0.00050592)
(-0.0476918 0.303052 0.0571466)
(-0.0157491 0.0870353 0.016047)
(-0.00398615 0.0211855 0.00384417)
(-0.000929195 0.00478837 0.000873087)
(-0.000231951 0.000839774 0.000216515)
(-0.252986 0.278611 0.0668012)
(-0.0610748 0.046094 0.0162738)
(-0.0141633 0.00989427 0.00376792)
(-0.00316774 0.00223211 0.000840492)
(-0.000799498 0.000395836 0.000210684)
(-0.0682594 0.283433 0.0216444)
(-0.0201824 0.0811255 0.00640972)
(-0.00489781 0.0199431 0.00151101)
(-0.00110569 0.00455781 0.000336892)
(-0.000275138 0.000805774 8.35076e-05)
(-0.264051 0.27809 0.0230563)
(-0.0632263 0.0458286 0.00558213)
(-0.0146848 0.00983166 0.00129484)
(-0.00328317 0.00221924 0.000289681)
(-0.000828184 0.000393253 7.26167e-05)
(-0.0706379 0.284398 0.0086271)
(-0.0209711 0.0808455 0.00230313)
(-0.00513687 0.0198277 0.000498995)
(-0.00107746 0.0045428 0.000140972)
(-0.000283784 0.000801889 2.68276e-05)
(-0.0206459 1.31169 0.00616827)
(-0.271227 1.85498 0.0206005)
(-0.247615 1.81361 0.178987)
(-0.0893914 1.2739 -0.0323668)
(0.0639159 0.752967 0.0296291)
(0.109436 0.791632 0.0317541)
(0.305623 1.11038 0.0925701)
(0.446938 1.15809 0.118483)
(0.0675661 0.866818 0.0743188)
(0.327576 0.969919 0.139657)
(-0.0631146 1.37648 0.116943)
(0.102477 1.87369 0.180481)
(0.0983755 1.73837 0.140795)
(0.193717 2.29903 0.174782)
(0.364491 1.13625 0.0732216)
(0.515892 1.29332 0.0986833)
(0.552209 0.893192 0.0783221)
(0.69279 0.952966 0.0928905)
(0.225345 0.485294 0.040756)
(0.291834 0.531618 0.0423752)
(-0.788185 0.197967 0.0914978)
(-0.571813 0.132604 0.0672968)
(-0.196197 0.0386993 0.0202185)