/*--------------------------------*- C++ -*----------------------------------*\
| =========                 |                                                 |
| \\      /  F ield         | OpenFOAM: The Open Source CFD Toolbox           |
|  \\    /   O peration     | Version:  2306                                  |
|   \\  /    A nd           | Website:  www.openfoam.com                      |
|    \\/     M anipulation  |                                                 |
\*---------------------------------------------------------------------------*/
FoamFile
{
    version     2.0;
    format      ascii;
    arch        "LSB;label=32;scalar=64";
    class       volScalarField;
    location    "2.7";
    object      gradTy;
}
// * * * * * * * * * * * * * * * * * * * * * * * * * * * * * * * * * * * * * //

dimensions      [0 -1 0 1 0 0 0];

internalField   nonuniform List<scalar> 
5712
(
11449.7
6601.53
18580.8
12168.6
20258.6
14988.7
31829.2
39396.5
41820
51123.4
27034.1
23474.9
17178.7
13603
8618.4
5827.69
19274.2
19770.6
16577.7
19505.9
26031.2
23308.8
29978.2
24323.3
8103.31
5858.22
4546.33
3375.3
9716.16
7924.83
5879.18
4741.09
17541.7
18264.7
17971.3
15262.3
14075.9
10939.8
10984.9
12460
17716.5
17612.1
37062.4
38298.6
26330.4
27096.9
14945.4
12604.2
16324.9
11651.2
7593.01
7782.15
6166.49
8466.56
3221.94
3838.2
8465.62
11401.9
5027.39
5819.72
9420.21
15549.4
6511.09
10561.5
2489.09
6297.62
2070.59
4708.29
17479.9
21570.7
17966.4
21437.2
21407.3
21653.5
21728.4
21328.8
15244.7
20625.6
15731.8
20400.1
17664.1
21264.4
17639.4
21200.5
21864.2
21026.2
21766.4
20810.2
14063.6
20697.5
13564.9
20763.3
17034.6
19843.9
21519.3
29808.1
18025.3
22805.2
21310.5
32234.3
16161.2
17519.9
21618.5
28729.7
15993.7
16419.6
21857.9
28547.2
4935.57
6401.31
12542.1
21655.7
6167.8
6969.8
16258.7
24810.4
7754.88
7818.66
20765.5
27988.9
24030.4
25971.4
20175.7
19333.5
27595
26209.4
24630.4
20628.9
17776.9
31369.8
23849.8
23437
20750.8
20409.8
36112.2
1935.98
2314.77
4101.61
9140.16
2763.24
3101.58
5730.72
10370.8
4162.25
3516.13
7871.89
12068.6
26095
26042.7
23435.2
23300.7
19897.7
18456.5
14992.1
13368.2
10439.7
14311.5
23687.6
23090.3
23756.8
23568.6
20517.5
19375.4
16839.5
15167.8
11167.5
14556.9
23437.2
26461.9
23338.7
27062.8
22759.9
23676.9
22179.3
23777
21181.7
21578.8
21018.8
20973.1
23140.4
27157.2
23019
27114.1
21508.6
24034.7
21314.5
23960
21263.1
21531.4
21248.7
21511.3
17733.9
16871.3
11401.3
12631.4
17597.7
16407
11213.9
12617.7
17994
16836.5
11658.3
12713.7
18069.1
16671.7
12024.9
12735.9
1606.68
1117.28
791.005
949.301
674.922
633.422
2223.17
1380.56
1066.63
1888.67
1549.49
1358.64
2632.87
2273.84
2315.6
3338.78
2786.75
2530.85
25255.6
23187.6
21679.2
23123
21767.5
20606
16526.6
15584.2
15074
11116.2
9842.76
9314.27
5075.56
3840.96
3297.07
22755.3
21441.2
20221.2
23207.3
21524.5
20137.1
17084.5
14981
13769.5
11078.7
9077.83
8267.6
5409.16
3832.68
3118.72
26497.1
26040.2
28779.2
25923.5
29620.2
25951.3
35660.9
27247.1
20591.2
21008.1
20300.3
18888.2
23110
21860.6
22635
19386
22381.7
22299.4
20685.7
22229.2
27717.1
24764.6
27247
27631.7
29523.2
30498.4
22673.7
23509.8
20349.3
19742.2
24755.9
25362.4
16213.2
8555.96
15091
9498.12
16445.7
8629.85
15027.7
9426.16
16253.7
8681.07
15013.2
9837.74
14575.5
10302.3
14737.1
10215.2
20925.5
17997.9
20722.7
17922.5
23055.2
20910.3
23201.4
20649.7
20321.6
15003
21290.9
14850.1
21126.4
17806.7
21366
17594.5
23740.4
20446
23728.9
20169.7
20068.4
15022.7
19982.8
14923
13307.9
8705.74
11852.3
7328.21
12441.5
7778.47
11416.1
6823.92
13607.6
9267.88
12026.5
7558.73
13610.2
9619.49
11987.7
7610.75
2481.5
1254.09
4401.34
2131.2
2661.58
1576.59
4702.19
2642.04
3313.71
2455.73
5247.22
3622.13
13132.6
20275.4
9426.39
9011.17
6146.6
19934.5
13953.6
8162.6
8185.27
4993.2
20637.9
16332.6
13018.7
10083.7
5936.09
632.011
480.725
1016.22
651.417
963.449
661
1644.22
1257.56
1770.87
1430.94
2622.47
2094.54
20385.4
20021.1
13932.1
13625.2
9086.41
9424.48
7629.24
7259.3
4218.59
3447.58
19045.2
17581.8
14886.3
13349.9
11657
10650.7
8820.67
8252.36
5237.34
5432.47
15174
12582
15219.2
12217.8
18084
15245.7
17982.3
14945.1
12846.2
10730.9
12492.5
10821.3
15192.2
11989.7
15089.3
11960.7
17881.1
15178.9
17695.1
15117.6
13058.6
10533.6
13032.1
10674.3
9986.36
8750.16
6288.71
6985.27
9641.03
8595.09
5977.04
6638.8
10410.3
8915.55
6452.35
7427.36
10670
8922.17
6725.88
7541.24
2069.65
1838.47
1528.37
9205.09
4887.35
3992.73
1989.13
1989.5
1775.17
9891.76
5740.53
4871.03
2707.45
3076.75
3171.61
10791
7130.37
6371.27
19238.1
18316.3
17579.2
13423
13284.9
13154.4
9988.38
10079.7
10170.1
8796.46
8660.06
8514.67
12150.3
8756.18
7952
16347.7
15393.9
14700.5
12454.3
11871.6
11512.1
10609.6
10082.3
9741.07
10488.9
9474.74
8845.48
14725
9864.68
8919.49
4549.72
2857.56
2153.56
2028.42
5198.99
3150.24
2289.95
2076.82
4564.44
2846.41
2156.2
2045.01
5316.2
3217.41
2331.73
2093.35
4528.96
2795.3
2139.37
2017
5418.5
3250.96
2363.96
2067.07
5869.26
3470.56
2445.36
2184.12
6057.73
3619.52
2540.48
2282.56
4851.06
2991.75
2221.62
2032.89
3766.51
2515.65
1990.92
1954.28
4162.33
2653.36
2041.67
1869.3
3401
2340.91
1898.55
1866.77
5308.52
3245.44
2352.25
2142.69
3981.62
2642.97
2051.12
2024.8
5563.91
3415.36
2441.82
2215.42
4070.35
2732.3
2097.91
2058.86
3267.88
2368.96
1922.39
1913.28
1817.23
1772.05
1637.71
1793.05
3263.11
2346.87
1914.16
1906.29
1917.91
1798.73
1647.7
1803.22
3333.11
2331.29
1911.08
1906.85
2250.96
1895.66
1685
1850.33
3243.86
2239.39
1854.21
1937.57
2530.32
1957.8
1727.09
1829.51
2907.29
2135.43
1790.9
1834.43
272.739
1278.01
1247.42
371.956
-1549.82
994.625
1077.99
404.8
531.706
1362
1278.63
394.518
-1209.26
1089.89
1106.2
414.273
1013.94
1509.78
1330.63
393.964
-639.658
1249.18
1150.22
420.404
1594.44
1681.47
1396.79
430.272
-51.5051
1421.55
1209.27
440.1
1955.53
1832.5
1477.23
509.604
53.5041
1544.54
1263.28
457.162
2092.11
1988.8
1518.79
480.777
-390.88
1656.33
1359.15
486.324
2038.88
1919.54
1488.06
481.43
-411.351
1603.88
1311.82
469.194
2096.53
2037.75
1550.42
445.167
-480.047
1702.7
1394.55
490.166
2149.22
2091.61
1599.08
457.246
-372.926
1758.66
1436.9
503.925
2019.22
1609.93
1148.52
684.997
227.386
1995.55
1606.62
1149.34
685.866
227.689
2043.61
1622.15
1154.67
687.932
228.253
2024.38
1622.29
1157.61
689.898
228.894
2088.55
1639.67
1162.7
691.654
229.346
2059.4
1641.18
1167.42
694.681
230.334
2093.12
1663.09
1180.45
701.402
232.401
2143.05
1694.92
1199.17
711.052
235.369
2135.68
1660.93
1174.32
697.476
231.12
2281.89
1687.27
1181.93
700.376
231.926
2145.13
1655.43
1168.68
694.225
230.08
2278.22
1677.75
1175.69
697.084
230.896
2156.54
1680.29
1186.03
703.556
233
2323.53
1706.05
1192.59
705.863
233.625
2204.52
1711.11
1203.64
712.557
235.769
2374.44
1733.49
1207.84
713.645
236.029
2076.36
1617.92
1148.45
684.297
227.12
2185.29
1626.79
1148.69
683.893
226.96
2099.05
1627.55
1153.03
686.425
227.739
2203.2
1634.01
1152.18
685.527
227.439
2144.89
1643.71
1160.26
689.769
228.712
2242.63
1647.17
1158.41
688.465
228.297
2221.38
1662.45
1167.6
693.048
229.657
2289.82
1661.38
1165.56
691.876
229.282
2294.58
1672.14
1171.78
695.007
230.236
8989.52
13754.1
9471.41
14079
10194.3
14520.4
10727.9
14843.8
10382.4
14372.9
9750.68
10961.7
9715.71
11405.4
9833.01
10912.8
10018.1
11068.2
7925.82
1353.82
288.33
64.4517
11.3818
8803.44
2500.98
605.589
136.968
24.1809
8034.16
1346.93
284.653
63.3684
11.1584
8912.46
2497.51
602.168
135.507
23.7132
8159.14
1348.19
282.319
62.5457
10.9871
9027.14
2500.11
599.162
134.271
23.4554
8148.3
1316.89
273.133
60.3287
10.5874
8985.4
2463.65
587.954
131.48
22.9376
7793.81
1227.85
254.037
56.2614
9.89337
8572.68
2353.91
563.401
126.311
22.0642
7037.95
1153.05
246.308
55.4265
9.81917
7198.76
2071.59
508.699
115.883
20.4294
7248.55
1168.31
246.599
55.1436
9.73771
7576.3
2175.88
529.638
119.709
20.9944
6965.27
1152.35
247.357
55.8027
9.89589
7085.82
2028.14
498.577
113.945
20.1443
6952.24
1145.72
245.791
55.4811
9.83132
7109.94
2021.14
495.692
113.57
20.0472
32792.2
46374.6
45340.2
31847.5
18824.2
19790.8
27759.6
28952.4
21670.5
24248
34412.1
46842.3
43459.2
57475.7
28406.2
32333
22329.8
23824.2
12132.3
13290.4
4949.18
3315.1
967.482
765.015
854.685
757.731
905.028
4894.86
4897.63
2989.78
4221.01
4090.37
1809.57
2460.05
2261.89
1517.84
1738.99
1442.35
4399.13
2459.13
1628.22
1449.36
1807.34
1578.67
1259.1
1202.43
1143.77
1013.87
1344.09
1219.9
4574.63
2829.24
3230.51
2106.22
1762.26
2428.05
1286.08
1035.36
1405.1
10136
10383.2
10771.4
12324.9
20746.6
7400.26
8617.79
9583.32
10933.9
12881.9
2551.75
3663.18
4523
5118.07
5428.75
2031.53
2944.07
3660.15
4154.25
4407.8
2266.45
3276.2
4061.13
4596.96
4869.43
2013.66
2920.54
3631.63
4120.19
4369.41
2395.02
3452.65
4272.56
4834.31
5122.17
10362.1
10816.7
10854.8
11730.2
18740.5
10336
10603.3
10449.9
10866
12537.2
6918.11
8304.43
9092.74
9846.61
10712.7
9192.73
9776.22
9663.01
9708.25
10025.3
8897.48
9535.25
9378.06
9244.02
9303.33
4533.98
6048.15
7045.27
7703.98
8075.93
5883.43
7359.19
8193.63
8766.21
9169.65
5475.73
6946.97
7762.38
8237.52
8493.6
3884.36
5332.31
6335.53
6986.82
7324.27
4373.72
5856.13
6817.42
7416.41
7723.42
3712.28
5134.07
6128.21
6766.83
7088.39
9498.91
10264.6
10612.3
11761.1
19018
5888.78
7435.14
8463.44
9382.94
10286.7
4140.65
5643.66
6693.9
7414.65
7827.58
3727.12
5163.78
6208.42
6936.09
7346.9
4531.69
6075.39
7160.79
7972.57
8522.29
4028.81
5533.01
6634.47
7442.29
7937.13
3273.2
4609.76
5622.71
6342.99
6745.15
3140.88
4446.43
5429.86
6107.83
6468.08
2998.77
4261.5
5204.55
5833.58
6152.12
2672.63
3829.51
4711.85
5308.84
5612.82
3482.24
4866.89
5870.83
6541.07
6891.05
3183.02
4496.32
5474.8
6139.19
6487.17
9611.38
10143.2
10577.6
12009.6
19941.6
6525.6
7921.65
8976.6
10206.1
11722.6
7558.7
8984.39
9822.9
11087.4
13654.1
5169.53
6776.01
7958.19
8997.19
9861.63
4440.23
6006.03
7156.59
8058.43
8675.55
5825.29
7398.15
8499.13
9538.94
10576.9
3340.77
4696.99
5715.74
6432.11
6827.96
2724.7
3896.83
4792.49
5404.94
5721.78
3623.81
5043.93
6092.26
6832.22
7252.11
17960.2
11912.7
18514.4
13204.8
24028.5
34218
25092
34034.1
19053
20190.2
16330.6
19481.9
21691.6
20669.9
27536
22637.4
13811.6
12855.7
6766.12
5751.89
15064.4
13718.8
7777.77
6327.5
18610.3
20137
19113
17471.6
19439.8
12808.9
10768.4
12415.5
17594.4
17569.7
36480.6
38164.5
25573.6
26887.2
15495.9
12719
16953.1
11758
8208.01
7929.28
13461.8
14857.7
5636.39
6132.64
14833.2
16870.7
7038.63
7752.75
14182.1
19734.9
8240.47
12661.9
2886.08
7017.47
2149.44
4848.62
17791.4
20370.6
17726
20732.6
19476
19785.4
20491
20277.3
16128.2
20423.4
18289
20134.7
17434
20885.7
17552.2
21077.6
21223.2
20486.3
21576.6
20642.5
14307.1
20562.2
13597.2
20712
17882.8
21076.4
21731.8
30163.5
19467.5
24912.9
21785.6
33002.9
16540.9
18105.2
21690.7
28879.4
16089.5
16580.5
21868.2
28585.4
18448.8
19943.7
23060.1
34132.3
18589.4
19044.3
24697.5
34603.2
18361.6
18060.7
26611.1
34386
18007
18950
19154.6
20280.3
30307.5
18232
16971.5
20466.3
18569.5
34597.4
19019.5
19762.8
19518.6
21041.9
37474.1
11185.3
10268.2
10296.8
13252.6
12239.5
11251.8
10676.3
13633.8
13461.6
11719
11180.2
13958.6
17727
17129.8
16572.2
16191.3
19027.5
17872.9
15666.3
14152.4
11723
14583.1
18727.7
18603.1
19759.9
19963.7
18875.5
17821
17048.1
15172.8
11557.7
14123.1
21494.7
24239.9
22345.2
25862.3
20402
21364.8
21034.1
22628.7
20627.4
20871.8
20080.4
19839
22650.8
26570.6
22869.5
26938.5
20969.3
23474.8
21154
23795.8
20960.5
21165.8
21152.5
21401
17577.6
16584.4
11424
12546
17475.8
16083
11378
12559.9
17879.3
16664.5
11644
12649.9
18027.4
16615.7
12014.8
12711.3
9425.84
9567.71
4038.03
3726.38
10515.3
10184.3
4525.33
4336.98
10255.9
9632.51
5158.7
4987.55
16961
16511
16463.2
16576.5
16341.2
15889.6
12238.7
10992.4
6077.61
5035.28
19008.8
18307.3
20193.9
19472
15957.1
14853.2
11419.1
9857.23
5596.87
4235.4
21712.3
20704.9
26530.1
23250.2
24107.9
21552.2
32899.6
24901.2
19858.5
16404.2
21581.5
17172.2
19753.6
16695.3
21677.4
17399
20233.4
17997.5
18377
17158.3
20915.7
22098.5
25893.7
27218
28370.1
30161.1
21318.8
23028.4
19314.3
19445.9
23231.2
24848.6
13365
9768.28
13767.7
9992.83
13650.8
9677.21
13947.5
9836.94
13612.6
9533.74
13926.5
10030.9
13951
10337.7
14535.4
10220
17071.5
16659.4
18795.7
17094.1
19516.8
18761.5
21310.2
19448.6
18517.5
14692.4
17660.9
14549.6
20166.6
17365
21079.8
17460.2
22812.9
19838
23458.9
19985.3
19175
14827.6
19722.9
14862.1
12899.7
9118.46
12055.4
7700.5
12387.6
8843.82
12017.6
7619.57
13288.9
9419.4
12089
7731.28
13497.4
9655.17
12003.3
7667
12937.3
13259.4
9154.55
8402.75
13096.8
13381.9
9006.79
8330.67
13084.1
12856.2
8773.36
8233
15194
17852.6
16030.7
11917.2
8526.99
16589.5
15601.7
17508.6
12022.2
8229.56
18286.6
16303.9
14535.2
12180.9
7548.13
14069.5
15551.8
8425.81
9268.75
13904.1
15093
8339.75
9121.8
12948.3
13685.3
7945.53
8189.47
16482.7
15741.2
15004.6
14599.6
15677.4
16344.6
12267.8
13315.7
7687.86
7600.2
16693.8
15443.3
15164.1
14048.2
13737.1
13380.5
11617.5
11889.3
7050.03
7789.43
14835.5
12918.8
14893.8
12323.4
16646.1
14286.5
17158.1
14447.7
13002.8
11291.7
13096.8
12093.8
14988.5
12034.5
15025.8
11972.7
17467.2
14934.6
17571.3
15047.9
13072.2
10777.5
13022.3
10736
10484.9
9552.03
6773.08
7723.16
10781.3
10269.3
6939.61
8126.22
10608.3
9274.13
6676.26
7824.14
10726.4
9027.49
6802.43
7666.59
18939.6
18935.1
26621.5
22240.1
18098.1
18249.1
25496.7
21232.6
15840.3
16611.7
23360.4
19719.5
15375.7
14938.6
14329.5
14234.4
16769.5
17359.6
15779.5
15867.4
21417.8
18076.5
14588.8
13988.2
13605.3
13544.9
14094.2
14566.1
15361.5
15098.4
21038.5
16676
6040.29
3862
2773.29
2479.28
6306.02
4013.05
2864.56
2499.71
5913.73
3779.38
2721.25
2455.59
6240.69
3964.25
2826.81
2459.38
5680.43
3614.88
2629.42
2371.73
6135.33
3851.64
2776.31
2373.18
6288.06
3848.16
2727.89
2404.91
6197.87
3750.71
2635.57
2359.34
5452.33
3463.05
2558.94
2304.79
4163.99
2847.95
2224.8
2157.66
5106.92
3323.04
2475.88
2197.07
4051.79
2854.52
2207.12
2105.69
5640.84
3526.65
2565.06
2317.99
4195.76
2829.75
2199.02
2164.7
5666.69
3509.54
2515.24
2276.97
4137.69
2793.04
2148.64
2106.97
5481.58
3574.34
2598.53
2393.1
4535.17
3148.34
2368.72
2302.79
5312.78
3487.9
2546.47
2353.02
4418.51
3100.18
2342.52
2290.9
5074.71
3347.76
2475.73
2310.17
4333.41
3038.66
2308.87
2289.44
4576.21
3090.93
2335.39
2288.63
4145.35
2934.29
2250.72
2180.93
3874.28
2831.75
2172.23
2098.9
3117.16
2713.89
1922.81
528.31
897.168
2431.36
1763.88
600.823
3163.78
2713.92
1920.81
547.035
1090.72
2437.75
1760.57
602.801
3245.06
2695.67
1898.12
518.647
1359.14
2428.65
1736.77
587.969
3215.3
2642.36
1896.48
547.224
1407.3
2382.95
1714.66
586.668
2933.6
2529.44
1880.53
626.333
842.782
2265.52
1675.03
582.056
2381.97
2280.47
1768.82
574.545
-270.975
1964.81
1578.59
563.055
2579.21
2386.63
1823.2
590.241
-77.9256
2093.81
1621.54
568.773
2238.61
2196.73
1703.35
505.861
-446.299
1869.77
1523.77
537.655
2189.49
2142.14
1649.74
477.923
-369.936
1810.79
1478.79
519.639
2381.33
1832.79
1275.53
749.246
246.936
2326.11
1818.19
1271.36
747.824
246.561
2380.14
1825.58
1270.45
746.485
246.07
2316.35
1807.14
1264.1
743.968
245.365
2396.04
1819.34
1264.45
743.068
244.988
2305.84
1794.49
1255.54
739.41
243.96
2262.92
1769.57
1241.89
732.641
241.924
2205.5
1735.08
1222.47
722.922
238.993
2362.31
1799.66
1253.13
737.349
243.258
2498.47
1810.91
1251.21
735.315
242.555
2433.5
1820.12
1261.21
740.898
244.275
2557.71
1826.2
1258.27
738.649
243.533
2306.36
1775.57
1240.53
731.191
241.419
2463.82
1789.92
1239.91
729.79
240.912
2256.44
1744.14
1222.63
722.214
238.72
2422.65
1762.72
1224.4
722.05
238.601
2487.45
1854.01
1280.46
750.718
247.303
2662.5
1873.08
1283.9
751.652
247.531
2492.41
1849.5
1276.89
748.728
246.671
2664.02
1869.09
1281.08
750.116
247.048
2511.82
1843.33
1271.24
745.57
245.668
2671.57
1861.31
1275.7
747.251
246.147
2566.4
1840.84
1266.17
742.568
244.704
2682.88
1850.01
1269.06
743.802
245.054
2624.69
1836.62
1262.71
740.7
244.122
11142.6
14650.1
11207.4
14666.1
11348
14682.1
11180.2
14522.1
10473.1
13831.7
9752.24
10908.4
9765.98
11318
9822.58
10877
10012.6
11055.3
8546.38
1419.87
297.828
66.0449
11.6132
9202.07
2597.74
624.373
140.369
24.6831
8515.8
1397.46
292.01
64.629
11.3445
9167.76
2567.16
616.438
138.173
24.1122
8417.31
1374.19
286.284
63.2757
11.1004
9073.13
2529.83
606.691
135.839
23.7042
8193.95
1320.07
273.845
60.5257
10.6248
8857.23
2458.02
589.166
131.967
23.0332
7744.96
1220.34
252.947
56.1122
9.87626
8395.15
2332.56
561.028
126.082
22.0489
7014.19
1148.38
245.269
55.2056
9.78299
7162.28
2060.71
506.185
115.369
20.3477
7218.06
1161.74
245.253
54.8866
9.6987
7510.91
2159.27
526.467
119.16
20.9175
6949.51
1149.49
246.714
55.6601
9.87169
7064.31
2021.85
497.033
113.608
20.088
6946.66
1144.73
245.571
55.4316
9.82278
7102.51
2019.08
495.179
113.455
20.0275
32337.6
46063.6
44267.4
30484.8
23860
28362.2
23079.9
28257.6
26679.1
42198.3
28262.1
43193.7
277.447
295.079
334.39
397.888
489.882
615.313
292.359
310.416
350.507
414.665
505.761
627.125
266.169
260.601
284.936
281.281
326.9
327.687
395.206
404.573
493.024
513.53
619.992
643.793
779.834
989.399
1260.89
1620.46
2034.77
2332.67
781.94
972.241
1199.25
1453.76
1697.11
1854.89
742.93
1090.18
1370.29
1566.63
1667.75
789.919
1158.64
1455.74
1663.81
1770.9
894.703
1311.3
1646.3
1880.53
2000.98
1063.7
1556.95
1952.34
2228.16
2369.83
1307.81
1910.25
2390.89
2725.21
2896.74
1638.86
2385.64
2977.39
3387.77
3598.43
782.705
1148.23
1442.89
1649.33
1755.62
830.768
1218.11
1529.96
1748.22
1860.52
937.481
1373.25
1723.27
1967.83
2093.54
1107.95
1620.44
2030.64
2316.6
2463.48
1349.2
1968.62
2461.98
2805.09
2981.29
1668.83
2426.34
3025.77
3441.9
3656.04
712.784
1046.1
1315.1
1503.72
1600.88
697.886
1024.3
1287.78
1472.57
1567.76
762.853
1119.16
1406.41
1607.66
1711.26
753.084
1104.89
1388.58
1587.36
1689.69
874.795
1282.44
1610.44
1839.87
1957.85
876.912
1285.59
1614.47
1844.51
1962.81
1056.75
1547.25
1940.69
2215.2
2356.18
1081.75
1583.79
1986.4
2267.23
2411.4
1316.56
1923.73
2408.37
2745.36
2918.12
1371.13
2003.01
2506.94
2856.96
3036.24
1652.09
2406.29
3004
3417.85
3629.77
1715.38
2497.92
3117.19
3545
3763.56
2068.72
2994.24
3720.6
4223.89
4483.79
2606.38
3736.83
4613.2
5224.73
5547.52
3280.89
4628.88
5658.49
6396.23
6809.28
4126.78
5667.36
6827.23
7716.92
8285.91
5025.04
6645.07
7855.62
8896.94
9709.74
5642.52
7273.52
8494.56
9640.83
10650.2
2072.88
2997.74
3723.54
4227.73
4489.07
2562.43
3676.64
4542.42
5147.71
5467.21
3133.68
4445.74
5454.13
6171.3
6564.2
3754.25
5246.43
6381.34
7215.24
7701.98
4325.17
5945.17
7168.21
8106.79
8699.7
4687.12
6375.49
7647.44
8655.12
9325.58
280.46
304.224
350.14
420.973
521.238
655.942
295.437
319.744
366.446
437.701
536.3
665.096
269.224
263.773
294.271
291.016
343.107
344.716
419.283
430.201
526.101
548.452
664.417
691.867
829.057
1043
1311.65
1658.34
2054.76
2338.28
825.915
1018.73
1242.9
1488.44
1718.58
1862.03
751.021
1102.14
1385.44
1584.08
1686.4
814.547
1195.12
1502.05
1717.17
1827.97
937.166
1374.32
1726.47
1973.08
2100.04
1126.08
1649.87
2070.98
2365.55
2517.13
1392.87
2037.73
2554.65
2915.77
3101.61
1749.74
2553.39
3194.88
3642.7
3873.6
790.986
1160.49
1458.47
1667.3
1774.83
855.918
1255.43
1577.42
1803.01
1919.15
980.508
1437.24
1804.83
2062.15
2194.59
1170.27
1713.48
2149.67
2454.67
2611.64
1432.11
2093.09
2622.13
2991.69
3182.04
1772.46
2583.18
3229.2
3680.45
3913.59
720.991
1058.22
1330.45
1521.37
1619.73
706.405
1036.87
1303.69
1490.86
1587.29
787.973
1156.32
1453.52
1661.9
1769.22
779.271
1143.61
1437.64
1643.81
1750.01
918.463
1347.18
1692.7
1934.75
2059.36
922.787
1353.59
1700.84
1944.12
2069.35
1121.78
1644.05
2064.19
2358.13
2509.37
1151
1686.92
2118.04
2419.64
2574.79
1406.31
2058.31
2581.32
2946.68
3134.59
1466.06
2145.78
2690.95
3071.64
3267.37
1773.46
2590.23
3242.85
3698.15
3932.5
1847.05
2698.29
3378.41
3852.51
4096.27
2204.36
3202.52
3994.46
4548.41
4836.21
2756.45
3972.66
4929.77
5605.83
5965.05
3427.27
4867.98
5989.91
6804.85
7263.25
4242.8
5869.79
7121.26
8092.27
8712.73
5093.63
6776.14
8055.34
9161.48
10020.1
5664.25
7318.2
8564.79
9736.17
10764.4
2193.82
3182.94
3966.46
4515.1
4800.87
2691.73
3877.96
4810.55
5468.69
5817.8
3257.19
4642.6
5721.74
6496.7
6922.91
3854.87
5411.9
6611.95
7501.06
8020.89
4389.48
6054.57
7324.31
8303.87
8922.5
4708.98
6413.55
7702.54
8725.49
9405.82
4930
3313.82
1031.19
820.201
928.945
818.931
975.178
4550.93
4408.09
2917.65
3669.83
1865.48
2422.39
1593.8
1753.64
1502.25
4245
2475.2
1703.87
1529.14
1871.54
1646.39
1322.28
1279.88
1239.7
1103.9
1431.96
1305.42
4518.42
2834.7
3196.9
2137.93
1815.3
2449.71
1357.44
1112.44
1480.65
10133.3
10438
10878.4
12500.7
21071.5
7414.65
8667.82
9673.05
11067.4
13057.2
2730.95
3946.65
4905.65
5580.33
5935.97
2183.84
3178.55
3969.21
4521.06
4806.4
2473.12
3598.4
4490.85
5111.66
5431.5
2182.7
3181.1
3975.48
4528.71
4813.57
2591.49
3761.6
4687.45
5333.43
5668.39
10125.7
11449.8
12322.1
13998.7
22343
10024.1
11574.9
12656.2
14165.3
16695.8
7010.04
8965.17
10424
11791.8
13073.7
8851.89
10836.8
12018.7
13238.9
14294.6
4796.5
6665.76
8074.51
9098.25
9689.38
6037.17
8061.88
9543.76
10696.6
11452.9
4160.87
5895.5
7222.88
8158.16
8663.96
4550.21
6394.35
7789.95
8777.59
9319.43
3940.79
5618.17
6908.54
7809.52
8287.16
9400.37
10648.7
11531.6
13207.8
21432.8
6062.89
7950.45
9386.11
10687.3
11857.8
4410.51
6185.22
7542.16
8533.18
9108.66
3981.52
5628.13
6900.88
7826.72
8355.98
4771.17
6571.23
7949.58
9025.25
9741.82
4246.92
5934.94
7238.24
8224.53
8829.08
3458.73
4919.79
6059.83
6887.63
7353.32
3368.63
4827.88
5968.22
6777.73
7214.28
3279.94
4730.88
5865.94
6655.92
7067.59
2928.32
4239.47
5271.72
5990.68
6363.96
3759.52
5368.03
6613.41
7490.97
7962.37
3438.38
4931.66
6096.53
6917.95
7356.98
9604.39
10314.8
10917.5
12556.9
20949.3
6581.24
8074.74
9240.33
10585.5
12203.4
7605.44
9291.01
10433
12013.8
14913.8
5291.1
7029.43
8363.14
9547.2
10514.5
4617.35
6342.69
7671.84
8736.23
9458.07
5972.61
7795.99
9199.9
10532
11782.8
3553.35
5058.31
6231.14
7078.47
7551.53
2945.26
4253.82
5283.29
6004.99
6383.95
3857.55
5457.99
6699.13
7605.81
8125.29
10245.3
9634.5
8573.56
7106.66
5139.47
2005.93
18303.4
18652.9
21205.9
21857.3
17985.3
19106.2
20311.5
19720.1
14989.6
18352
15648.3
18915.9
17966.9
16215.5
24985.3
17630.2
17844.9
20054.2
20472.9
17059.6
18162.3
19456.4
19055.8
14941.5
22159.7
15518.2
22079.1
18151.3
19671.2
26813.3
16889.1
16979.7
18600.4
18783.8
16391.2
17879.3
18321.9
18400.7
17155.1
19665.4
17911.6
19696.8
19728.1
21656.4
24203.7
16204.8
16313.9
17314.8
17345.9
16028.6
17750.6
17201.1
17545.7
16131.3
17254.2
16863.7
16844.9
18104.8
19561.2
21010.4
15481.2
15623
16459.5
16409.6
15791.2
17669.5
16488
17014.5
15324.1
14313.3
16084.1
13774.7
16717.4
16593.7
17452.3
15176.9
15359.7
15901.6
15821
15461.5
17029.7
16039.5
16487.2
14674.3
12367.6
15249.3
12145.6
15612.3
14674.4
15872.9
21191.5
20400.2
22188.7
23278.9
19711.4
19737.4
20717.9
19831.1
18778.6
13945.5
18759.7
14037.3
16681.8
15182
18236.7
20055.3
19489.2
20559.8
21269.5
19089.8
19274.3
19593.3
18853
17496.5
13564.1
17502.6
13671.9
15373.4
13722.8
16964.7
18583.9
18257.9
18624.9
18959.9
18043.5
18240.4
18156.2
17723.6
16724.3
13422.1
16544.1
13170.6
14864.8
12620.7
16805.3
17239.7
17062.5
17186.4
17326.9
16931.9
17071.3
17041.5
16706.7
15952.1
14039.1
15864
13724.1
14425.9
12819.5
17343.1
16601.3
16490.1
16427
16484.4
16218.7
16351.1
16414
16215.2
15894.9
15310.7
15840.9
15172.3
14661.9
13462.3
18131.1
16146.6
16042.2
16008.2
16038.9
15813.9
16122.9
15968.6
15900.9
15901.7
16113.9
15907.7
16034.2
14853.1
14083.1
18966.3
11262.6
6390.26
18573.8
12175.6
20279.5
14976.4
31856.7
39410
41869.5
51148
27082.6
23475.4
17186.1
13628.3
8359.3
5561.56
19277.2
19772.9
16576.4
19507
26044
23314.4
29986.4
24327.6
7937.02
5742.39
4393.27
3273.87
9689.37
7915.36
5877.77
4754.3
17537.1
18260.2
17969.8
15262.7
14071.8
10942.8
10985.9
12461.4
17718
17613.7
37069.2
38303.2
26333.7
27099.2
14946.2
12605.7
16326.4
11652.5
7594.13
7783.22
6056.57
8332
3135.88
3743.49
8467.27
11413.7
5041.23
5835.84
9421.34
15555.4
6517.06
10569.1
2490.42
6300.54
2071.05
4709.41
17481
21571.7
17967.8
21438.2
21410
21655
21730.7
21330
15246.6
20626.7
15732
20401
17665.3
21265.4
17640.5
21201.3
21865.9
21027.1
21767.5
20810.8
14064.9
20698.7
13565.9
20764.4
17036.4
19847.5
21521
29810.5
18026.7
22808.9
21312.1
32237.1
16163
17522.5
21620.1
28731.9
15995.4
16421.7
21859.4
28549.4
4855.15
6322.19
12372.3
21470.5
6173.16
6973.53
16273.6
24828.3
7757.29
7820.68
20772.2
27995.8
24030.5
25972.2
20175.4
19334.7
27598.9
26209.9
24630.3
20628
17777.6
31373.9
23850.7
23437.5
20751.3
20411.3
36115.5
1895.93
2283.72
4017.24
9051.14
2767.53
3105.68
5741.78
10380.1
4164.2
3517.28
7875.53
12070.9
26095.1
26042.7
23435
23300.6
19897
18456.2
14992.9
13368.9
10441.6
14312.8
23687.9
23090.4
23757.1
23568.8
20517.9
19375.8
16840.6
15168.7
11168.6
14557.8
23437.8
26462.1
23339.3
27063.1
22760.5
23676.9
22179.8
23777
21182.4
21579.4
21019.5
20973.6
23140.9
27157.5
23019.4
27114.3
21508.9
24034.7
21314.7
23960
21263.8
21531.9
21249.4
21511.8
17734.9
16872
11402
12632.1
17598.7
16407.8
11214.9
12618.5
17994.9
16837.2
11659
12714.4
18069.9
16672.3
12025.6
12736.5
1584.48
1099.85
776.537
944.644
669.412
626.871
2229.52
1383.99
1068.23
1894.74
1553.42
1361.01
2633.45
2274.6
2316.44
3339.83
2788.17
2532.26
25255.6
23187.9
21679.6
23123.3
21768
20606.7
16527
15584.9
15074.8
11116.9
9843.59
9315.2
5076.23
3841.74
3297.81
22755.4
21441.4
20221.5
23207.5
21525
20137.7
17085
14981.7
13770.2
11079.3
9078.46
8268.28
5409.64
3833.15
3119.13
26501.5
26041.5
28782.3
25924.8
29634
25956.8
35673.1
27252
20418
20955.9
20096.7
18825.1
23080.1
21832.9
22601.6
19359
22376.6
22295.2
20685.7
22227.6
27700.6
24749.9
27248
27632
29526.8
30500.4
22671.9
23508.9
20348.5
19741.3
24748.7
25359.1
16217.7
8561.33
15089.4
9505.41
16427.3
8625.07
15012.1
9422.55
16241.8
8676.57
15002.9
9833.15
14569.7
10298.8
14734.1
10213.1
20923.8
17997.6
20721.7
17922.2
23057.2
20911.2
23203.2
20650.4
20316.4
15001.8
21284.1
14848.6
21125.9
17806.4
21365.5
17594.1
23741.7
20446.4
23729.6
20169.8
20065.3
15021.8
19981
14922.2
13304.8
8703.37
11850.7
7326.99
12438.2
7776.13
11414.2
6822.58
13605.3
9265.9
12025.1
7557.7
13608.6
9618.01
11986.7
7609.9
2468.93
1238.12
4387.17
2112.77
2662.07
1577.67
4702.12
2642.89
3312.87
2455.62
5245.73
3621.55
13133.3
20276.6
9426.04
9009.7
6145.18
19935.5
13954
8162.53
8184.21
4992.27
20638.7
16332.6
13017.7
10082.2
5934.93
614.123
459.095
996.852
642.883
964.851
660.784
1644.44
1256.84
1771.17
1431.63
2622.42
2095.03
20385.8
20021.1
13931.9
13624.8
9086.09
9423.99
7628.63
7259.05
4218.1
3447.54
19045.6
17581.8
14886.2
13349.6
11656.4
10650.3
8819.83
8251.92
5236.6
5432.02
15173.7
12581.7
15218.9
12217.4
18084.4
15245.7
17982.6
14945.1
12845.5
10730.4
12491.7
10820.8
15192
11989.4
15089
11960.3
17881.2
15178.8
17695.1
15117.5
13058
10533.1
13031.6
10673.8
9985.49
8749.56
6287.96
6984.62
9640.06
8594.49
5976.23
6638.15
10409.5
8914.99
6451.7
7426.74
10669.3
8921.66
6725.29
7540.68
2033.12
1807.84
1503.82
9154.7
4842.51
3949.63
1986.09
1988.11
1775.19
9887.53
5740.33
4871.28
2708.18
3077.3
3172.05
10791
7130.96
6371.96
19238
18316.2
17579.1
13422.6
13284.5
13154.1
9987.78
10079.2
10169.6
8796.28
8659.86
8514.47
12149.9
8756.28
7952.24
16347.6
15393.8
14700.4
12454.1
11871.3
11511.9
10609.3
10082
9740.87
10488.5
9474.54
8845.36
14724.1
9864.47
8919.48
4550.19
2857.59
2153.68
2027.84
5197.72
3148.62
2289.21
2075.79
4563.28
2845.92
2155.85
2044.79
5315.57
3217.16
2331.53
2093.16
4527.71
2794.81
2139.07
2016.79
5417.25
3250.52
2363.69
2066.86
5868.01
3470.1
2445.1
2183.94
6056.76
3619.13
2540.26
2282.4
4850.05
2991.29
2221.35
2032.7
3765.84
2515.27
1990.68
1954.09
4161.35
2652.9
2041.4
1869.11
3400.3
2340.52
1898.31
1866.59
5307.57
3245
2352
2142.51
3981.02
2642.62
2050.9
2024.62
5563.12
3414.98
2441.6
2215.26
4069.83
2731.98
2097.71
2058.69
3267.19
2369.44
1923.05
1912.89
1815.16
1771.65
1638.22
1791.97
3262.3
2346.44
1913.82
1906.09
1917.23
1798.43
1647.44
1803.13
3332.25
2330.86
1910.8
1906.67
2250.34
1895.33
1684.76
1850.19
3243.09
2238.99
1853.94
1937.36
2529.69
1957.45
1726.85
1829.34
2906.64
2135.05
1790.65
1834.23
272.843
1277.67
1248.19
372.005
-1547.89
993.249
1077.69
404.638
531.077
1361.89
1278.45
394.509
-1210.02
1089.98
1106.23
414.306
1013.51
1509.55
1330.46
393.917
-639.953
1249.03
1150.13
420.381
1594
1681.17
1396.6
430.218
-51.7351
1421.3
1209.12
440.053
1955.07
1832.17
1477.02
509.54
53.2933
1544.25
1263.1
457.106
2091.71
1988.49
1518.6
480.722
-391.017
1656.05
1358.97
486.266
2038.43
1919.21
1487.85
481.374
-411.508
1603.59
1311.63
469.135
2096.18
2037.46
1550.24
445.12
-480.156
1702.45
1394.38
490.113
2148.92
2091.36
1598.92
457.205
-373.02
1758.44
1436.75
503.878
2017.66
1609.18
1148.19
684.851
227.342
1993.82
1605.7
1148.9
685.661
227.627
2043.55
1622.07
1154.62
687.909
228.246
2024.27
1622.2
1157.56
689.88
228.892
2088.44
1639.59
1162.65
691.631
229.34
2059.28
1641.09
1167.37
694.66
230.33
2092.99
1663
1180.39
701.378
232.395
2142.93
1694.83
1199.12
711.026
235.362
2135.54
1660.84
1174.27
697.451
231.114
2281.72
1687.18
1181.88
700.348
231.919
2144.99
1655.34
1168.63
694.201
230.074
2278.06
1677.66
1175.63
697.058
230.889
2156.4
1680.2
1185.98
703.529
232.993
2323.35
1705.95
1192.53
705.835
233.617
2204.38
1711.02
1203.59
712.53
235.762
2374.27
1733.4
1207.79
713.617
236.021
2074.76
1617.28
1148.2
684.182
227.086
2183.75
1626.26
1148.48
683.804
226.938
2099.03
1627.47
1152.98
686.405
227.735
2203.2
1633.92
1152.13
685.512
227.44
2144.79
1643.62
1160.21
689.747
228.707
2242.54
1647.09
1158.36
688.446
228.294
2221.24
1662.36
1167.55
693.024
229.651
2289.68
1661.29
1165.51
691.852
229.276
2294.41
1672.05
1171.73
694.981
230.229
8940.98
13699.8
9473.67
14080.6
10195.8
14521.2
10728.8
14844.4
10383.1
14373.5
9751.26
10962.3
9716.34
11406
9833.57
10913.4
10018.7
11068.8
7914.82
1344.7
285.991
63.9156
11.2872
8788
2495.25
603.96
136.58
24.1102
8031.75
1347.49
284.761
63.3854
11.1605
8910.86
2496.91
601.959
135.448
23.7018
8158.58
1348.24
282.327
62.544
10.9863
9026.72
2499.91
599.085
134.246
23.4501
8148.35
1316.9
273.131
60.3264
10.5867
8985.44
2463.61
587.928
131.47
22.9352
7794.07
1227.88
254.04
56.2612
9.89318
8572.9
2353.94