/*--------------------------------*- C++ -*----------------------------------*\
| =========                 |                                                 |
| \\      /  F ield         | OpenFOAM: The Open Source CFD Toolbox           |
|  \\    /   O peration     | Version:  2306                                  |
|   \\  /    A nd           | Website:  www.openfoam.com                      |
|    \\/     M anipulation  |                                                 |
\*---------------------------------------------------------------------------*/
FoamFile
{
    version     2.0;
    format      ascii;
    arch        "LSB;label=32;scalar=64";
    class       volScalarField;
    location    "2.7";
    object      gradTx;
}
// * * * * * * * * * * * * * * * * * * * * * * * * * * * * * * * * * * * * * //

dimensions      [0 -1 0 1 0 0 0];

internalField   nonuniform List<scalar> 
5712
(
-6450.53
-8243.69
-15346.7
-22385.8
-22832.3
-39420.3
-17587
-44793.2
-14333.3
-31483.7
-21423.4
-32573.4
-19239.7
-25196.8
-8454.99
-9658.9
-14346.4
-16428.4
-18582.4
-18433.9
-14663.8
-18151.7
-21613.5
-19424.2
-5227.13
-3907.56
-6505.68
-4356.99
-12104
-9635.17
-20701.8
-14946
-16063.1
-16672.6
-17786.5
-16881
-6169.64
-4868.53
-38099.6
-51017.4
-24609.7
-30222
-51335.3
-66603.3
-26573.4
-30417.1
-28196.5
-39848.9
-24587.6
-32613.9
-14344.9
-23171.2
-2730.77
-918.582
-2880.45
-1036.44
-8251.3
-3323.41
-11348.6
-4165.57
-8040.51
-3090.25
-8609.04
-2756.38
-14701.5
-4671.55
-18981.3
-6395.52
-23408.1
-11589
-21426.7
-12711.3
-22039.9
-14254.9
-19376.4
-14617.8
-16779
-9960.63
-16758.5
-8506.23
-22099.9
-14174.1
-22146.1
-14316.4
-20453.6
-15494.2
-20699.4
-15576.4
-18130.7
-11532
-18783
-11825.3
-17102.8
-7375.18
-7872.17
-9542.28
-17175.6
-8049.92
-6839.8
-9628.02
-18120.8
-7353.64
-8945.37
-9639.57
-19024.6
-7538.03
-9742.79
-10087.5
-3539.78
-3860.15
-1183.96
-2289.2
-10394.1
-10977.9
-3986.24
-7000.71
-13309.9
-14827.5
-6336.18
-10742
-12227.9
-1199.33
-13344.6
-16319.4
-8780.88
-864.429
-7508.77
-11921.7
-19137.6
-13039.6
-9647.28
-11638.7
-10085.8
-8628.07
-13492.8
-3426.4
-2844.51
-1949.86
-1938.39
-9688.15
-8237.63
-5778.35
-5507.66
-12134.6
-10386.5
-7551.69
-6793.83
-5885.13
-7457.91
-12090
-12493
-13802.4
-12577.8
-15546.2
-13597.6
-10351.3
-8705.21
-8965.66
-9541.81
-11797.3
-9472.6
-10697.2
-7939.52
-9210.61
-6475.99
-10617
-7013.14
-10144.9
-4932.72
-8676.78
-9498.47
-12458.1
-16361.5
-13694.8
-19999.2
-6874.81
-7728.65
-8963.51
-3092.99
-7720.41
-14947
-7316.85
-15991.1
-13551.9
-24663.4
-13784.9
-26135.7
-5799.23
-12782.6
-5255.81
-13589.4
-7979.76
-6129.46
-11037.2
-4453.2
-8276.58
-1879.12
-9659.41
-966.229
-7645.46
-9097.48
-11553.7
-5379.85
-6307.04
-10696.9
-10207.6
-7034.67
-2290.62
-2037.29
-1850.81
-1639.95
-1517.77
-1374.06
-6813.11
-5685.65
-4989.81
-4335.49
-3555.95
-3129.27
-8441.33
-7386.88
-6871.05
-5235.45
-4357.2
-4154.61
-6634.13
-5968.3
-5857.89
-10974.3
-8520.07
-7251.47
-10227.3
-7727.91
-6356.25
-10759.7
-8652.52
-7596.39
-6531.48
-4403.35
-3484.47
-15797.5
-13891.6
-12177
-10055
-8521.78
-7199.24
-8818.44
-7003.54
-5709.59
-7313.81
-5404.6
-4253.92
-7374.06
-4181.82
-2425.77
-10224.2
-13889.7
-8060.35
-10454.2
-10921.3
-16088.4
-9732.29
-14218.8
-62.5268
-749.537
483.343
-111.243
-2971.16
-3380.84
-1232.46
-673.273
-715.626
-2439.09
-9332.41
-13659.8
-6638.54
-3601.72
-9735.45
-9657.78
-14911.7
-16415.4
576.03
4020.81
-7497.72
-7069.89
-7035.69
-5429.7
-1037.96
-559.235
-658.86
-258.897
-2035.78
-267.016
320.187
827.008
-9214.04
-2473.06
-6194.3
-1664.36
-8894.21
-2739.57
-10757.4
-3502.99
-8745.77
-11864.7
-8098.44
-11590.4
-13909.2
-14788.4
-13286.9
-14028.5
-5688.05
-9519.88
-6551.81
-9444.56
-8587.91
-11179.9
-9469.84
-11310.4
-13841.5
-13793.6
-14496
-13866.7
-5738.97
-9229.98
-6240.21
-9416.61
-61.9162
-1571.64
-7665.5
-5052.88
509.447
-1153.84
-7103.72
-4483.3
-504.18
-1809.55
-7848.87
-5494.07
-958.704
-2080.14
-7911.22
-5706.21
656.034
763.385
-192.822
-53.1078
2828.76
2883.27
141.995
281.808
462.669
1873.07
-1859.6
-1238.5
10212.4
9442.02
5512.12
4147.35
279.425
10381.7
10792.7
4299.84
6316
644.952
-10095.7
-8031.35
-7296.29
-6994.86
-4490.55
803.615
769.065
-3.11281
-128.487
2542.25
2584.32
-22.8168
-311.027
2543.49
3212.39
-903.881
-1310.46
5130.33
2397.55
8223.63
5247.53
3635.78
2815.66
4069.65
3611.99
-719.703
-1775.05
-3732.14
-2364.01
-1054.69
1041.02
-1125.83
709.976
-1974.58
-597.061
-2537.23
-2936.92
-5302.84
-4885.98
-10038.9
-6103.91
-8087.54
-8204.24
-12278.9
-9989.5
-8103.53
-4875.32
-4121.45
-4133.89
-11816.5
-5281.91
-12996
-5918.57
-13690.7
-10196.1
-14610.8
-10916.7
-9786.97
-4012.42
-10954
-4633.1
-6676.64
-5466.44
-5488.49
-8156.96
-4417.68
-5042.45
-4730.55
-7567.45
-7660.02
-5442.92
-6179.94
-9346.78
-9219.43
-5916.21
-7594.17
-9661.01
822.237
904.943
1030
-4.76897
313.133
358.622
3017.26
3285.25
3314.21
165.185
901.213
919.887
3789.15
4345.53
4506.88
-770.44
863.511
1203.22
1337.06
1161.77
862.984
3979.23
4126.89
3881.48
3258.71
3769.79
3741.62
4030.01
4454.93
4394.1
-1636.06
360.747
529.144
-3419.29
-1919.29
-980.737
1108.11
2350.75
3015.13
1020.63
2644.4
3355.9
385.236
2175.1
2696.98
-2717.15
534.979
931.094
21.5713
41.4736
58.9264
90.7231
275.114
162.71
139.604
140.675
-10.7946
80.5966
199.532
321.533
443.621
300.297
342.821
384.206
-268.763
27.8926
282.405
568.486
146.543
245.092
332.242
390.727
29.0804
149.128
166.383
168.169
-232.842
-6.18751
133.495
233.861
-1038.54
-213.737
122.353
361.729
-1624.35
-378.446
23.2607
611.514
-739.251
-93.511
206.168
517.562
-1342.7
-289.359
4.39398
538.178
-1098.39
-253.92
145.617
447.52
-1816.14
-449.102
21.6259
717.114
-1221.12
-336.162
129.739
528.458
-1953.74
-513.745
-1.83471
750.124
0.185399
23.3668
50.4741
112.82
30.9042
32.5495
31.9789
103.774
51.9529
81.4037
153.627
303.015
152.126
111.859
97.3931
280.195
-467.109
-58.8468
171.164
519.594
-234.618
24.3117
131.069
495.271
-129.868
120.567
251.092
517.757
-59.8008
96.3282
114.518
499.762
-1167.94
-223.83
45.8776
697.521
83.5801
46.9414
36.5529
77.8617
169.502
69.7121
37.9109
36.1374
165.046
110.968
83.0807
201.986
430.136
185.059
96.6969
93.5241
74.4422
121.675
116.553
333.093
534.974
259.327
145.895
147.725
-148.313
108.142
146.673
462.143
398.795
278.77
174.093
188.469
-636.039
6.20775
88.1929
448.475
77.6961
239.037
164.204
195.073
-1357.36
-138.578
77.9633
520.691
-452.042
58.3809
108.138
184.391
-1065.6
-47.1819
90.2179
486.451
-292.3
138.531
141.325
198.43
-1626.64
-252.644
38.4601
564.152
-598.918
-21.8117
71.5089
172.482
-1828.65
-367.6
-17.3083
557.005
-736.908
-111.114
22.9092
148.977
40.6857
18.7178
10.1144
6.24329
4.68529
53.8963
28.8895
16.6577
10.541
7.9627
97.0748
43.5971
23.5041
14.5869
11.0287
122.382
64.8177
37.4031
23.7828
18.0237
128.619
54.5973
29.0713
18.0247
13.6632
164.976
86.0443
49.7569
31.8068
24.1864
86.9138
44.1879
25.4357
16.2876
12.3925
61.0374
25.7167
13.5841
8.4641
6.37969
130.08
55.9835
30.3197
18.9936
14.3445
61.8887
22.8572
11.6804
7.16912
5.37697
137.14
65.2639
36.9439
23.4849
17.8388
58.4027
22.7494
11.976
7.40585
5.54771
99.6902
36.4471
18.3276
11.2174
8.42431
58.5316
20.3918
10.2162
6.26505
4.70719
85.644
23.057
9.35416
5.24457
3.80284
47.2222
10.8541
4.01624
2.16338
1.5408
33.8109
14.0986
7.35189
4.45177
3.31517
24.4235
11.1954
6.09963
3.74291
2.79658
82.6008
35.4728
18.9606
11.6389
8.7401
63.104
29.5634
16.3811
10.1407
7.60264
115.707
43.6891
22.4136
13.57
10.1627
85.9087
40.8828
22.8895
14.218
10.7313
105.065
50.2542
28.6188
18.1264
13.7878
58.735
31.241
18.0633
11.3556
8.65138
54.7335
27.6709
16.1003
10.299
7.83409
-354.583
-467.448
-810.728
-1148.64
-876.036
-1446.26
-385.657
-1199.84
246.183
-301.763
-763.278
-1234.25
89.0127
16.4226
-1136.13
-1776.83
-1415.77
-2013.29
-585.488
-135.331
-30.3825
-6.68976
-1.67223
-207.019
-89.627
-12.8197
-3.34732
-1.42808
-1799.02
-414.067
-93.2799
-20.4377
-5.11534
-497.945
-131.671
-31.5817
-6.6076
-1.75826
-3029.31
-698.767
-157.818
-34.686
-8.66171
-785.061
-221.562
-53.1275
-12.202
-3.04186
-4079.57
-943.882
-214.015
-47.1706
-11.7912
-910.965
-277.87
-68.8076
-15.9953
-3.9824
-5119.22
-1196.2
-273.068
-60.4781
-15.178
-1000.57
-335.862
-85.7071
-20.2021
-5.0903
-6116.14
-1473.72
-341.062
-76.16
-19.1932
-1514.6
-461.744
-113.632
-26.0003
-6.48479
-5674.34
-1361.87
-313.774
-69.7803
-17.5322
-1192.29
-393.728
-99.6536
-23.2299
-5.79879
-6324.65
-1526.87
-354.081
-79.1935
-19.9874
-1706.48
-504.559
-122.445
-27.6422
-6.87845
-6601.29
-1580.66
-367.121
-82.0793
-20.7046
-1765.95
-524.278
-128.422
-26.9364
-7.0946
-516.148
-6780.68
-6190.38
-2234.79
1597.9
2735.91
7640.58
11173.4
1689.15
8189.41
-1577.87
2561.93
2459.39
4842.93
9112.29
12897.3
13805.2
17319.8
5633.62
7295.86
-19704.6
-14295.3
-4904.93
-3892.32
-2805.55
-4022.71
-3709.5
-12203.9
-11844.9
-10058
-11023.4
-9193.11
-6564.8
-8490.53
-5706.11
-4830.58
-5901.41
-4052.24
-19734.9
-10379.7
-3748.07
-6365.31
-8539.15
-5995.05
-6592.29
-4922.04
-3028.35
-4288.7
-4517.81
-4875.26
-19400.2
-12794.8
-12195.6
-8847.27
-8842.73
-9241.77
-4070.46
-5390.01
-6751.83
-14232
-12531.2
-10789.5
-10293.8
-9176.95
-9349.12
-6476.28
-5143.03
-4070.75
-2161.88
-4338.78
-3606.95
-2711.06
-1694.13
-580.711
-3480.07
-2917.56
-2198.75
-1368.13
-465.084
-2494.11
-2075.83
-1552.05
-959.107
-324.649
-3599.96
-3018.01
-2270.91
-1409.07
-477.698
-3296.42
-2745.36
-2057.23
-1275.61
-433.106
-7933.41
-6185.5
-4984.65
-4795.65
-5371.7
-6537.27
-4888.58
-3574.03
-3053.37
-2180.01
-6294.44
-3793.54
-2677.55
-1921.99
-952.897
-5688.96
-3875.83
-2625.8
-1961.61
-1182.78
-4299.39
-2700.63
-1703.7
-1209.27
-604.019
-5207
-3901.24
-2708.25
-1629.22
-564.147
-5779.88
-3709.96
-2441.31
-1480.21
-562.771
-3743.02
-2226.29
-1333.4
-724.791
-246.681
-3986.8
-3084.09
-2178.62
-1308.39
-442.928
-4716.12
-3525.71
-2409.62
-1408.16
-469.03
-3378.99
-2633.8
-1864.04
-1113.69
-373.002
-13191.4
-10220.5
-8467.57
-7797.98
-7712.11
-7681.62
-5608.05
-4163.68
-2886.18
-1332.43
-3125.86
-2453.57
-1765.45
-1082.62
-374.986
-5405.82
-4335.8
-3192.5
-2000.27
-706.135
-7026.28
-5550.88
-4124.37
-2686.27
-1030.44
-5117.91
-4142.11
-3089.32
-1963.95
-701.823
-5722.21
-4691.33
-3514.73
-2219.72
-778.552
-4291.78
-3518.4
-2618.69
-1631.84
-561.644
-2614.39
-2109.94
-1537.16
-935.225
-315.146
-3780.33
-3120.36
-2319.47
-1430.57
-484.806
-3849.68
-3074.67
-2230.88
-1362.7
-464.006
-4229.77
-3445.29
-2545.58
-1575.52
-539.828
-13654.7
-11507.4
-9844.21
-9062.67
-8209.17
-8944.39
-6471.18
-5082.24
-3871.05
-2032.89
-9073.49
-7272.37
-5646.82
-4284.75
-2140.55
-6996.11
-5351.76
-4084.05
-2830.79
-1177.44
-7408.04
-5962.08
-4495.29
-2950.99
-1122.63
-7249.13
-5499.54
-4169.42
-2877.68
-1183.12
-3503.45
-2843.6
-2110.1
-1323.63
-462.907
-4757.34
-3938.79
-2943.19
-1827.01
-622.465
-5825.83
-4744.23
-3533.85
-2223.17
-777.637
-5425.54
-11029.9
-11527.4
-31494.3
-11388.9
-42229.9
-6200.69
-15020.1
-11403.3
-8819.93
-18885.8
-15767.4
-11408.2
-10772.1
-21228.8
-16853.1
-3989.24
-2959.75
-7702.52
-5284.52
-8944.34
-6735.59
-23940.2
-17665.3
-14753.9
-11223.7
-15157.6
-9024.46
-1172.16
-3638.92
-39296.5
-51499.7
-23786.4
-30076.6
-52020.3
-66876
-25667.2
-30197.8
-29246.6
-40386.5
-23842.9
-32555
-15768.8
-23842.2
-1898.8
-499.872
-3329.12
-1135
-6458.91
-2876.86
-13087.4
-4720.99
-2849.62
-1611.46
-7121.21
-2235.72
-14730.5
-4622.9
-19155.4
-6444.49
-16160
-8360.1
-18573.7
-11055.8
-14791
-10579.4
-16549
-12856.5
-14780.6
-8651.14
-11713.4
-6034.05
-20995.5
-13425.9
-21869.6
-14111.4
-19329
-14728.6
-20399.2
-15367.7
-17392.9
-10924.4
-18608
-11657.2
-16141.7
-7107.38
-7016.29
-9225.11
-14453.4
-7260.42
-5246.17
-9049.72
-17861.3
-7287.08
-8546.08
-9483.29
-18993.1
-7533.04
-9630.02
-10041.7
-1093.4
-980.033
-262.84
-1152.39
-4439.85
-4581.4
-2765.71
-5465.63
-2471.61
-3082.04
-4284.02
-8086.85
-11931.4
-9630.9
-9168.96
-11398.7
-7471.85
-7596.72
-8088.92
-6730.31
-13185.9
-11355.8
-11346.5
-9440.49
-6510.37
-5557.84
-12199.9
-1055.68
-793.14
-586.588
-657.596
-4124.69
-3282.25
-3478.99
-3065.7
-582.149
520.412
-4106.74
-3224.39
-10104.9
-10738.4
-9425.39
-8626.4
-6951.3
-5052.92
-9069.95
-7234.31
-8046.38
-6305.09
-11465.8
-11703.3
-9765.27
-7687.44
-7191.31
-4924.44
-6309.49
-4026.35
-9368.71
-5720.99
-9202.03
-5086.91
-8198.88
-9369.13
-12958.7
-17267.7
-13665.7
-19960.1
-6250.58
-7456.64
-7597.39
-2906.11
-7548.73
-14793.1
-7276.8
-15934
-13494
-24752.7
-13762.7
-26114.3
-5564.98
-12594.2
-5200.4
-13532.1
-7512.45
-5948.15
-10841.1
-4416.44
-7251.12
-1823
-9333.28
-1249.25
-7459.03
-8975.48
-11465
-5351.02
-6258.1
-10657.8
-10184
-7019.96
-783.649
-729.009
-528.065
-610.385
-2504.99
-1830.82
-2258.69
-2054.48
1075.81
603.339
-2648.72
-2947.19
-10639
-10113.1
-7634.59
-6615.99
-4016.18
-3398.36
-5673.28
-4690.68
-5300.06
-3876.57
-18213.7
-15998.9
-7901.91
-6771.27
-5955.19
-4575.69
-4892.85
-3180.51
-5184.26
-2285.84
-5579.6
-9170.34
-4890.81
-9261.61
-8212.26
-10289.3
-9195.05
-12542.5
-999.499
-738.583
-786.734
-676.439
-3639.93
-2630.4
-2989.72
-1718.26
-1461.08
-1736.57
-8331.48
-8964.81
-4694.9
-4240.04
-9247.07
-9552.21
-14115
-16195.4
304.508
3813.76
-7351.67
-7109.07
-6959.75
-5489.12
-1090.24
-994.786
-1177.23
-975.486
-1808.24
-1273.28
-683.715
-596.067
-8163.66
-3890.96
-6932.38
-3265.81
-9220.29
-3703.16
-10900
-3899.12
-5444.2
-10267.8
-7007.54
-10747.1
-8613.39
-11567.1
-11258.4
-12536.2
-5326.46
-9352.47
-4843.39
-9311.23
-8155.05
-10839
-9343.69
-11221.2
-12994.4
-13172.7
-14255.3
-13698.9
-5678.24
-9194.82
-6237.9
-9417.67
-706.475
-2444.23
-8118.42
-5743.34
-688.401
-2528.76
-8037.58
-5498.68
-988.152
-2425.6
-8104.45
-5919.04
-1159.02
-2328.82
-7988.51
-5853.13
-1096.53
-1210.76
-1037.75
-1135.26
-2165.29
-2230.55
-1529.61
-1679.36
-8474.38
-7844.46
-4102.2
-4179.7
-3819.34
-5248.82
-4153.18
-467.329
-2021.79
-1359.83
-1446.47
-3650.09
2526.61
-1090.81
-13675.4
-11746.7
-10766.6
-9509.21
-6167.68
-1222.37
-1111.82
-1289.86
-1630.39
-2222.39
-1755.7
-2166.81
-2888.1
-8222.4
-8160.5
-4633.21
-6041.64
-5059.36
-6715.93
-3225.12
-5155.74
-4951.34
-5405.05
-1321.62
-1679.41
-3225.19
-4783.67
-9652.35
-7955.47
-7708.03
-5687.4
-6853.05
-4923.54
-6229.63
-4609.61
-4793.04
-5320.7
-8458.59
-8380.62
-11359.6
-7376.13
-10421.1
-11216.2
-13038.9
-10999.4
-9698.6
-6115.39
-7181.47
-7203.64
-12342.3
-6076.26
-13133.4
-6113.1
-13907.5
-10853
-14655.4
-11058.9
-10527.6
-4793.27
-11164
-4842.4
-8202.18
-6600.19
-6853.32
-9442.07
-7032.95
-7533.21
-6692.45
-9641.45
-8462.23
-6186.63
-6959.35
-10169.6
-9470.96
-6151.21
-7846.98
-9897.57
-909.154
-780.292
-1181.21
-855.529
-1485.77
-1746.6
-1763.69
-1263.9
-8010.59
-7011.9
-4074.28
-1804.53
-7892.81
-7500.73
-6206.72
-5583.65
-5245.99
-4486.02
-1975.47
-2001.07
-4563.36
-2032.98
-8652.2
-7418.6
-4951
-3892.58
-3915.41
-2408.46
-2978.5
-1250.08
-4774.27
-127.701
-253.219
-117.536
-40.4218
25.9204
-238.687
-151.547
-59.1991
9.97883
-683.925
-305.88
-19.3317
191.286
-619.055
-362.876
-66.8045
114.793
-1117.51
-452.164
20.4904
438.601
-1102.71
-548.354
-195.511
11.5186
-755.108
-369.388
-182.453
-59.4496
-577.871
-241.888
-26.3007
126.225
-1668.4
-591.006
-132.575
168.025
-1994.14
-570.387
-86.6015
586.914
-1604.1
-569.134
-93.1971
299.285
-1811.95
-513.562
-114.564
538.301
-1556.96
-543.808
-41.3929
332.986
-2066.05
-587.453
-66.4639
680.287
-1409.68
-459.59
48.6533
477.351
-2045.32
-566.705
-36.0852
736.089
-235.095
-96.2702
-14.9864
81.0085
-202.761
-73.5138
-28.6387
78.2022
-606.292
-251.764
-26.5667
207.537
-509.514
-193.85
-76.9683
201.463
-1198.29
-419.641
-11.2296
454.167
-1089.95
-366.192
-85.7918
418.556
-1328.89
-498.236
-99.8283
331.52
-1006.07
-347.699
-116.565
467.56
-1827.23
-513.27
-99.5673
738.739
-145.647
-54.9866
-17.1031
50.0755
-65.3621
-38.455
-18.5168
-0.628379
-439.426
-159.024
-67.1482
121.022
-217.617
-115.138
-63.4624
-10.2412
-781.383
-264.617
-101.85
219.173
-447.434
-202.227
-100.104
-9.67791
-1190.07
-381.531
-130.641
330.374
-789.538
-298.717
-133.405
-4.27584
-1571.41
-458.664
-196.636
286.234
-1070.29
-361.918
-173.211
-25.9983
-2107.45
-595.406
-209.713
358.265
-1066.84
-336.63
-141.344
15.4532
-2028.66
-584.368
-240.449
299.691
-1177.76
-375.019
-166.578
-11.403
-2082.88
-545.015
-149.146
461.187
-957.923
-270.806
-87.6032
69.5658
-1978.7
-466.571
-81.5434
521.668
-849.805
-192.404
-29.5949
115.319
-8.49567
-13.0855
-9.60709
-6.63911
-5.17688
-33.8489
-25.2724
-16.5413
-11.0861
-8.58506
-17.1268
-29.8467
-21.9467
-15.0863
-11.685
-73.1295
-55.9207
-36.6442
-24.4702
-18.9032
-11.5351
-35.9354
-26.9173
-18.5215
-14.3115
-95.2904
-73.5393
-47.9252
-31.8243
-24.5085
-46.1373
-36.8601
-24.1332
-16.0046
-12.3241
-7.23474
-15.948
-11.9403
-8.18939
-6.39025
-23.6188
-38.9501
-27.8944
-18.9455
-14.6942
4.34498
-13.2112
-10.4948
-7.29038
-5.6924
-58.397
-53.3154
-35.3327
-23.537
-18.1332
-2.79392
-15.1131
-11.2126
-7.69619
-6.00795
10.9659
-18.9475
-15.7531
-11.0215
-8.61055
8.42274
-10.6583
-8.82634
-6.15068
-4.8041
45.0519
-2.38478
-6.3636
-5.05999
-4.14068
30.4184
0.25062
-2.54265
-2.14318
-1.78836
-1.23823
-9.22068
-7.14225
-5.01521
-3.93113
-7.94765
-8.99024
-6.24232
-4.28374
-3.34075
-12.9712
-25.8761
-18.8092
-12.9713
-10.0868
-27.2011
-25.4881
-17.084
-11.5928
-9.01013
6.7108
-28.1028
-21.9552
-15.3679
-11.9813
-44.4282
-37.1143
-24.3377
-16.433
-12.6965
-53.3252
-44.2178
-28.6369
-19.0607
-14.6461
-48.5974
-31.0328
-19.4229
-12.9463
-9.91992
-36.7852
-25.5707
-16.0336
-10.5564
-8.11119
-66.6271
-202.426
-127.14
-517.885
-83.8168
-717.332
188.885
-654.862
447.187
-127.437
-772.369
-1248.01
69.0109
-93.723
-1143.32
-1777.96
-1418.16
-2012.93
-569.365
-134.215
-30.3173
-6.69171
-1.67425
-153.546
-83.1914
-11.6282
-3.18066
-1.41473
-1759.92
-411.392
-93.1609
-20.4515
-5.12281
-369.842
-112.042
-28.587
-6.1461
-1.68273
-2969.29
-693.623
-157.4
-34.6642
-8.66399
-639.338
-198.585
-49.5101
-11.6409
-2.94453
-4008.69
-935.872
-213.03
-47.0441
-11.7719
-804.677
-259.413
-65.676
-15.4737
-3.88612
-5059.12
-1187.21
-271.639
-60.2445
-15.1334
-961.595
-325.91
-83.6607
-19.8177
-5.01336
-6091.54
-1467.78
-339.77
-75.8983
-19.1347
-1515.44
-460.801
-113.272
-25.9089
-6.46162
-5638.8
-1353.99
-312.212
-69.4861
-17.4707
-1191.49
-390.108
-98.6128
-23.0002
-5.74813
-6309.41
-1523.1
-353.224
-79.0142
-19.946
-1706.29
-504.209
-122.315
-27.6097
-6.87011
-6596.14
-1579.38
-366.825
-82.0161
-20.6899
-1765.77
-524.18
-128.39
-26.9303
-7.09282
-541.009
-6710.35
-5949.3
-2200.81
-1556.82
-937.886
-3668.92
-2689.52
-6294.45
-5886.61
-2989.37
-2260.02
-419.69
-639.818
-1092.24
-1762.21
-2619.74
-3575.61
-301.905
-645.379
-1336.17
-2312.15
-3454.59
-4593.04
-319.899
-147.5
-546.979
-375.049
-1002.58
-834.844
-1662.99
-1548.83
-2371.56
-2288.91
-3074.16
-2789.49
-4381.5
-4892.25
-5259.14
-7727.04
-8573.58
-9398.84
-5513.42
-6000.04
-5911.96
-5344.45
-4536.13
-3939.31
-379.28
-321.458
-244.27
-152.561
-51.8674
-577.88
-489.457
-371.692
-232.036
-78.8679
-985.852
-834.384
-633.207
-395.115
-134.272
-1589.05
-1343.53
-1018.72
-635.347
-215.868
-2358.77
-1991.28
-1508.1
-940.029
-319.356
-3211.24
-2704.33
-2044.85
-1274.07
-432.975
-272.72
-231.05
-175.503
-109.578
-37.2462
-582.641
-493.252
-374.411
-233.661
-79.408
-1205.52
-1019.87
-773.709
-482.696
-164.023
-2084.04
-1761.32
-1335.16
-832.649
-282.916
-3109.03
-2623.66
-1986.78
-1238.57
-420.867
-4123.9
-3472.57
-2626.29
-1637.07
-556.564
-289.187
-245.154
-186.326
-116.391
-39.5777
-133.343
-113.042
-85.9157
-53.668
-18.2493
-494.19
-418.7
-318.045
-198.584
-67.5074
-338.892
-287.162
-218.153
-136.221
-46.3084
-905.279
-766.487
-581.867
-363.149
-123.421
-753.941
-638.461
-484.74
-302.55
-102.826
-1500.18
-1268.87
-962.341
-600.226
-203.932
-1397.28
-1181.86
-896.298
-558.964
-189.893
-2136.14
-1803.83
-1366.16
-851.37
-289.163
-2061.55
-1740.47
-1317.65
-820.736
-278.657
-2761.11
-2324.74
-1756.71
-1093.56
-371.358
-2504.72
-2107.42
-1590.63
-988.807
-335.438
-3917.8
-3286.78
-2480.58
-1546.37
-526.463
-4339.61
-3618.08
-2725.53
-1704.72
-584.022
-4594.45
-3791.15
-2853.71
-1804.01
-629.909
-6547.56
-5314.68
-4022.39
-2624.3
-972.428
-6873
-5441.07
-4171.83
-2884.06
-1209.47
-7215.28
-5614
-4348.16
-3135.61
-1429.25
-4932.51
-4140.81
-3127.44
-1950.77
-664.277
-5338.03
-4462
-3366.01
-2104.56
-719.544
-5212.52
-4329.97
-3264.59
-2053.18
-708.718
-4637.22
-3814.91
-2880.14
-1837.05
-649.466
-3810.49
-3081.02
-2338.81
-1539.94
-577.886
-3191.46
-2532.97
-1935.69
-1320.49
-528.38
-441.967
-707.796
-1209.18
-1932.77
-2851.39
-3855.68
-333.366
-741.177
-1498.69
-2540.05
-3733.52
-4884.6
-341.426
-166.156
-612.917
-433.208
-1117.32
-939.335
-1834.22
-1709.86
-2617.82
-2564.19
-3389.44
-3202.52
-4670.44
-5158.62
-5502.3
-7872.52
-8636.79
-9418.32
-5759.18
-6144.34
-5934.07
-5267.78
-4430.34
-3891.31
-399.525
-338.735
-257.495
-160.87
-54.7015
-639.706
-542.269
-412.155
-257.479
-87.5511
-1092.37
-925.553
-703.206
-439.206
-149.333
-1744.85
-1477.35
-1121.84
-700.493
-238.16
-2571.28
-2174.72
-1650.22
-1030.21
-350.291
-3470.11
-2929.81
-2221.14
-1386.77
-471.804
-301.31
-255.44
-194.163
-121.298
-41.2439
-669.741
-567.627
-431.374
-269.469
-91.6259
-1353.54
-1146.54
-870.945
-543.936
-184.941
-2292.2
-1940.08
-1472.9
-919.664
-312.69
-3364.92
-2844.59
-2157.97
-1347.21
-458.139
-4393.33
-3707.22
-2809.74
-1754.37
-596.978
-308.728
-261.815
-199.065
-124.389
-42.3042
-150.27
-127.46
-96.9298
-60.577
-20.6043
-554.116
-469.843
-357.192
-223.181
-75.8984
-391.712
-332.205
-252.601
-157.849
-53.6836
-1009.73
-855.822
-650.402
-406.291
-138.153
-849.04
-719.773
-547.102
-341.795
-116.226
-1656.58
-1403.18
-1065.83
-665.596
-226.299
-1544.56
-1308.55
-994.069
-620.808
-211.068
-2362.01
-1998.77
-1517.15
-947.149
-322.012
-2314.25
-1958.81
-1486.94
-928.229
-315.544
-3052.58
-2578.7
-1955.29
-1220.5
-415.077
-2885.85
-2438.79
-1849.18
-1153.8
-392.208
-4188.48
-3526.21
-2670.68
-1669.44
-569.189
-4595.25
-3850.18
-2914.48
-1829.61
-627.978
-4837.19
-4020.01
-3046.59
-1935.34
-677.239
-6718.61
-5496.59
-4191.93
-2750.47
-1022.07
-6971.73
-5558.08
-4290.66
-2981.42
-1253.41
-7252.04
-5659.17
-4395.61
-3176.26
-1448.63
-5162.82
-4344.66
-3289.43
-2055.74
-700.741
-5478.47
-4591.48
-3473
-2176.11
-744.893
-5243.53
-4367.45
-3302.37
-2082.14
-719.857
-4579.18
-3776.52
-2860.13
-1830.36
-648.93
-3724.4
-3016.12
-2296.66
-1518.98
-572.935
-3151.99
-2502.51
-1915.32
-1310.08
-525.88
-19640.7
-14349.8
-5278.95
-4300.26
-3268.04
-4609.49
-4195.08
-12944.4
-14617.6
-11583.6
-13369.5
-8023.44
-11371.5
-6160.52
-6422.2
-4710.04
-20388
-11359.2
-4434.06
-7256.56
-9385.8
-6494.46
-7245.2
-5494.8
-3392.68
-4939.54
-5423.31
-5574.3
-19277.9
-12988.5
-12835.4
-9235.15
-9277.68
-9762.41
-4737.39
-6025.94
-7376.31
-14247.9
-12609.9
-10910.9
-10460.4
-9335.59
-9444.74
-6576.78
-5241.54
-4153.87
-2198.67
-4699.9
-3936.68
-2980.75
-1872.95
-643.765
-3861.43
-3254.06
-2465.18
-1540.17
-524.691
-2931.51
-2466.69
-1865.16
-1163.04
-395.634
-4146.75
-3498.82
-2650.32
-1653.36
-562.182
-3757.28
-3158.56
-2389.09
-1492.13
-508.539
-9632.79
-8173.99
-6911.29
-6430.57
-6579.8
-11041.1
-9685.51
-7985.19
-6502.35
-3930.24
-8404.1
-5956.89
-4562.99
-3249.28
-1443.02
-10056
-8426.27
-6705.56
-4997.64
-2448.49
-6816.59
-5500.48
-4089.03
-2573.97
-902.109
-8967.62
-6723.94
-4959.19
-3182.91
-1176.64
-5358.1
-4395.11
-3283.07
-2053.84
-708.108
-5564.79
-4551.43
-3395.21
-2124.87
-733.734
-4130.58
-3408.29
-2549.82
-1590.21
-544.699
-14555.7
-11868.3
-10124.1
-9242.86
-8750.52
-8899.88
-6885.02
-5314.49
-3720.88
-1668.8
-3848.93
-3158.87
-2369.41
-1494.81
-522.721
-6323.79
-5219.63
-3945.04
-2514.04
-891.481
-7962.33
-6494.94
-4957.52
-3275.44
-1253.68
-5641.49
-4654.4
-3532.39
-2271.19
-814.401
-6367.53
-5293.24
-4016.37
-2557.87
-899.586
-4859.26
-4048.83
-3060.55
-1928.47
-666.996
-3006.87
-2503.24
-1881.56
-1173.32
-400.669
-4410.28
-3696.73
-2790.92
-1742.43
-594.336
-4767.71
-3946.44
-2963.65
-1856.5
-639.395
-4927.48
-4101.05
-3093.55
-1943.7
-670.509
-13795
-11809.7
-10251
-9533.66
-8688.11
-9237.96
-6782.56
-5381.95
-4114.71
-2144.57
-10004.8
-8275.4
-6604.86
-5040.41
-2488.42
-7456.37
-5834.15
-4527.06
-3160.96
-1307.33
-7901.33
-6472.48
-4957.78
-3286.8
-1253.03
-7878.38
-6149.62
-4766.38
-3319.99
-1359.9
-4160.43
-3453.76
-2615.69
-1662.18
-583.294
-5371.25
-4498.98
-3400.43
-2129.13
-728.556
-6463.86
-5356.64
-4055.47
-2579.84
-906.235
-500.972
-1418.97
-2242.35
-3010.7
-3736.2
-4411.85
-2565.91
-6900.51
-6578.15
-2520.03
-8788.6
-7370.03
-8821.97
-9782.72
-2321.57
-1499.94
-5391.87
-3134.6
-10294.8
-7278.29
204.974
-2085.38
-5762.45
-5420.09
-2034.58
-7494.48
-6031.59
-7419.73
-8371.77
-1923.24
-890.996
-4631.24
-1653.23
-8562.41
-4373.07
1473.42
-1529.46
-4400.34
-4131.14
-1498.75
-5946.24
-3658.4
-6049.34
-6721.46
-1455.06
-810.62
-3292.4
-1715.34
-6868.93
-1784.37
1608.54
-1133.07
-3424.08
-3285.46
-1152.16
-4578.5
-2259.32
-5055.29
-5965.73
-1100.07
-850.285
-2419.99
-1730.3
-6072.98
-402.967
1208.56
-920.748
-2917.82
-2846.42
-977.329
-3702.44
-1885.87
-4555.25
-5805.36
-875.373
-923.908
-1752.44
-1660.11
-5315.56
-185.212
118.299
-816.556
-2615.68
-2623.3
-888.803
-3440.27
-2136.48
-4233.16
-5557.66
-680.113
-725.223
-1459.25
-1628.35
-5229.88
-954.11
-463.304
-1384.99
-3395.23
-4894.76
-1890.32
-5503.72
-9595.24
-7192.64
-10379.5
-1025.37
-741.058
-3912.82
-2462.09
-1261.56
-9287.79
-4869.93
-1294.06
-3179.47
-4320.9
-1650.11
-5111.73
-8713.46
-6523.29
-8884.74
-1054.69
-664.332
-4074.36
-2349.86
-440.403
-9150.07
-3711.9
-1148.05
-2830.12
-3572.78
-1338.18
-4691.67
-7866.56
-5599.36
-7888.55
-947.826
-765.739
-3528.67
-2471.25
-641.723
-7476.58
-3586.42
-1004.79
-2577.2
-2999.69
-1100.33
-4418.05
-7221.84
-5033.96
-7229.23
-881.722
-785.417
-3306.98
-2605.67
-420.101
-7003.91
-3668.04
-916.755
-2336.61
-2687.6
-971.95
-4044.88
-6688.33
-4628.67
-6914.22
-833.901
-846.635
-3037.01
-2835.09
-544.073
-6781.67
-3779.56
-856.245
-2096.4
-2505.63
-899.795
-3750.34
-6624.23
-4321.3
-6709.08
-867.718
-974.209
-2718.45
-2699.59
-788.269
-6960.7
-4191.18
5865.39
7405.06
15381.6
22459.7
22862.3
39406.2
17595.3
44796.1
14345.9
31489.4
21467.1
32575.7
19253.4
25275.8
7269.98
8236.67
14358.6
16431.2
18577.6
18431.5
14665.2
18149.6
21610.8
19421.3
4820.66
3637.68
5919.41
3978.43
12105.5
9608.17
20749.4
14967.1
16040.8
16677.2
17778.9
16881.9
6168.45
4848.38
38104.9
51024
24610.3
30223.9
51341.7
66610.9
26573.2
30418
28200.4
39854.6
24587.2
32616.5
14350.4
23176.3
2577.06
881.275
2648.28
963.668
8223.64
3310.53
11352.7
4166.42
8035.49
3087.24
8597.06
2751.74
14702.3
4671.56
18984
6396.41
23407.8
11588
21425.2
12710.1
22037.4
14252.7
19373.9
14615.9
16776.7
9959.47
16757.9
8505.24
22099.5
14173.3
22146
14315.7
20452.3
15492.8
20698.6
15575.2
18130.3
11531.4
18783.4
11824.8
17099.4
7374.04
7871.01
9542.15
17173.1
8048.82
6838.48
9627.74
18120.6
7353.67
8944.85
9639.7
19025.8
7538.52
9742.57
10087.7
3326.8
3588.2
1136.41
2151.47
10347.3
10937.7
3964.8
6969.47
13301.9
14819.1
6332.5
10736
12228
1200.18
13343.8
16316.3
8779.48
865.348
7509.05
11921.1
19133.9
13037.4
9645.98
11637.8
10084.6
8626.11
13492.1
3129.7
2571.72
1762.51
1774.92
9708.89
8255.89
5826.93
5537.78
12127.9
10383.8
7549.11
6793.29
5885.31
7457.85
12089.9
12492.7
13801.4
12577
15543
13595.9
10350.3
8705.12
8965.07
9541.54
11796.7
9472.4
10696.3
7939.15
9209.32
6475.45
10616.8
7013.27
10144.4
4932.65
8675.99
9498.25
12457.1
16360.9
13693.5
19998.5
6874.23
7728.6
8962.97
3092.97
7719.68
14946.8
7316.15
15990.9
13550.8
24662.6
13783.9
26135
5798.75
12782.6
5255.36
13589.4
7979.53
6129.55
11037.5
4453.4
8276.11
1879.16
9659.62
966.494
7645.4
9097.66
11554.1
5380.07
6306.94
10697.2
10208
7034.95
2039.57
1827.5
1685.16
1501.3
1398.82
1278.08
6837.38
5694.38
4989.49
4362.38
3568.16
3132.47
8441.38
7387.67
6871.8
5236.55
4359.56
4157.03
6634.15
5968.46
5858.09
10974.2
8520.26
7251.74
10227
7728.15
6356.63
10759.5
8653.13
7597.18
6531.98
4404.48
3485.74
15797.4
13891.8
12177.4
10054.9
8521.85
7199.46
8818.3
7003.66
5709.88
7313.68
5404.78
4254.27
7374.17
4182.13
2426.21
10199.3
13873.9
8033.15
10440.4
10909.6
16079.6
9718.28
14210.9
98.4406
653.782
-403.732
68.2227
2970.74
3453.14
1233.8
751.701
691.142
2414.16
9316.6
13640.1
6621.52
3589.1
9728.48
9654.71
14907.6
16413.6
-581.741
-4022.65
7488.63
7065.67
7030.43
5427.71
907.756
508.693
556.317
222.197
2090.42
277.973
-260.093
-810.106
9203.36
2471.54
6188.03
1664.48
8887.72
2738.04
10754.1
3501.94
8736.18
11859.8
8090.91
11586.5
13902.7
14784.5
13281.8
14025.4
5681.21
9516.22
6543.39
9440.18
8583.32
11177.2
9467.33
11308.6
13838.2
13791.4
14494.1
13865.1
5734.71
9227.38
6237.97
9414.87
58.261
1571.15
7662.87
5051.87
-513.742
1153.13
7100.84
4482.27
501.384
1808.86
7846.83
5493.15
957.219
2079.66
7909.82
5705.51
-623.007
-720.987
176.912
41.4437
-2804.71
-2857
-138.256
-271.085
-461.383
-1871.72
1859.12
1238.15
-10212.4
-9441.23
-5512.43
-4147.56
-279.592
-10380.6
-10791.5
-4299.8
-6314.87
-644.939
10093.7
8028.37
7293.33
6992.5
4489.55
-771.315
-733.517
-22.3367
95.2969
-2511.46
-2556.93
47.6178
334.068
-2542.08
-3210.04
903.534
1309.76
-5130.13
-2397.57
-8223.36
-5247.48
-3636.09
-2815.75
-4069.19
-3611.24
719.381
1774.54
3731.2
2363.67
1053.35
-1041.4
1124.64
-710.27
1973.78
596.89
2536.7
2936.44
5300.76
4884.99
10036.8
6102.79
8085.9
8203.39
12277.1
9988.47
8101.53
4874.31
4119.6
4132.98
11814.8
5280.93
12994.6
5917.77
13689.2
10195.2
14609.5
10915.8
9785.32
4011.57
10952.7
4632.41
6675.14
5465.55
5487.59
8156.06
4416.28
5041.62
4729.7
7566.56
7658.76
5442.1
6179.12
9345.88
9218.36
5915.53
7593.42
9660.22
-786.519
-844.85
-959.125
-24.6802
-310.067
-348.72
-2987.44
-3268.6
-3302.61
-136.818
-885.96
-909.383
-3786.17
-4342.75
-4504.92
769.105
-863.008
-1202.84
-1337.02
-1161.65
-862.863
-3979.17
-4126.68
-3881.27
-3258.52
-3769.4
-3741.26
-4028.96
-4453.64
-4392.98
1635.37
-360.714
-528.97
3419.08
1919.37
980.927
-1108.25
-2350.59
-3014.88
-1020.68
-2644.12
-3355.56
-385.16
-2174.7
-2696.52
2716.67
-535.01
-931.017
-17.4034
-36.7224
-53.0559
-81.5093
-256.549
-150.853
-129.174
-129.425
11.252
-80.353
-199.747
-322.978
-438.798
-298.456
-341.526
-383.357
268.738
-27.887
-282.348
-568.321
-145.938
-244.892
-332.183
-390.659