/*--------------------------------*- C++ -*----------------------------------*\
| =========                 |                                                 |
| \\      /  F ield         | OpenFOAM: The Open Source CFD Toolbox           |
|  \\    /   O peration     | Version:  2306                                  |
|   \\  /    A nd           | Website:  www.openfoam.com                      |
|    \\/     M anipulation  |                                                 |
\*---------------------------------------------------------------------------*/
FoamFile
{
    version     2.0;
    format      ascii;
    arch        "LSB;label=32;scalar=64";
    class       volVectorField;
    location    "2.2";
    object      flux;
}
// * * * * * * * * * * * * * * * * * * * * * * * * * * * * * * * * * * * * * //

dimensions      [0 1 -1 1 0 0 0];

internalField   nonuniform List<vector> 
5322
(
(-0.00100654 0.00260041 -0.00348822)
(2.28453e-05 0.000244218 -0.00356131)
(2.78914e-05 -1.78456e-05 -0.00367706)
(3.20122e-06 -0.000109329 -0.00398606)
(-5.02153e-07 -6.06347e-05 -0.00395527)
(-6.60886e-07 -2.15556e-05 -0.00394428)
(4.08255e-08 -7.9191e-07 -0.00394126)
(5.47474e-07 1.92617e-05 -0.00394484)
(3.37141e-07 5.66324e-05 -0.00395651)
(-8.15044e-07 0.000103432 -0.00398913)
(-4.02587e-06 9.23457e-07 -0.00394375)
(4.40325e-05 -0.000770789 -0.003955)
(6.78265e-05 -0.000856693 -0.00297645)
(-0.000934146 -0.000768981 -0.00410353)
(-2.47459e-05 -0.000667538 -0.00448707)
(0.00162576 0.00144467 -0.00358184)
(-0.00127748 0.00193238 -0.00423399)
(-2.01564e-05 -2.97133e-06 -0.00316973)
(-0.000974678 0.00133435 -0.00446281)
(0.000628242 -0.00158187 -0.00450346)
(-0.000854152 0.00150444 -0.00453172)
(0.000742832 -0.00152827 -0.00451122)
(-0.000785681 0.00149911 -0.00451316)
(0.00078984 -0.00153417 -0.0045368)
(-0.000800011 0.00152877 -0.00453621)
(0.000768338 -0.00149962 -0.00451099)
(-0.000769963 0.00149807 -0.0045122)
(0.000798575 -0.00152922 -0.004533)
(-0.000786625 0.00152485 -0.00453425)
(0.000786637 -0.00150607 -0.00451154)
(-0.000746418 0.00151534 -0.00451026)
(0.000847713 -0.00151524 -0.00451855)
(-0.000636834 0.00156452 -0.00448704)
(0.000970245 -0.00134394 -0.00441525)
(1.37162e-05 0.00128915 -0.00419759)
(0.00121736 -0.00064441 -0.00344595)
(0.000858216 0.00126585 -0.00391937)
(-0.000342268 0.00158908 -0.00399455)
(0.000962003 0.00079371 -0.00412335)
(-5.52435e-05 0.00085931 -0.00290366)
(-0.000912368 0.0011728 -0.00383453)
(0.00091748 0.000979516 -0.00395729)
(-5.5548e-05 0.00101385 -0.0028516)
(-0.000976151 0.00109471 -0.00396315)
(0.000970093 0.00104369 -0.0039244)
(-3.33747e-05 0.00103332 -0.00289896)
(-0.00103754 0.00106033 -0.00401804)
(0.000906053 0.00113278 -0.00379277)
(-2.29049e-05 0.00104949 -0.00286033)
(-0.00108742 0.00100228 -0.00392846)
(-0.00107278 0.00125737 -0.00439963)
(-0.00155801 0.000608869 -0.00315734)
(-0.000486612 0.000681546 -0.00429666)
(0.00104489 -0.00224665 -0.00403702)
(-6.66181e-05 -0.00012262 -0.00378534)
(-0.00172549 -0.00130001 -0.0038382)
(-4.90056e-05 0.000683282 -0.00455275)
(0.00164906 -0.0017049 -0.00377873)
(-1.97799e-05 -9.70714e-05 -0.00382498)
(-0.00164784 -0.00148176 -0.00384228)
(-7.09919e-06 0.000693802 -0.00460828)
(0.00160598 -0.00167663 -0.00382965)
(-9.28047e-06 -8.6667e-05 -0.00382655)
(-0.00161856 -0.00147075 -0.00374753)
(-5.93313e-07 0.000696592 -0.00460504)
(0.00158137 -0.00173503 -0.00395837)
(2.00673e-05 -0.000111616 -0.0038083)
(-0.0016029 -0.00142237 -0.00355918)
(6.89812e-05 0.000703061 -0.00449564)
(0.00131261 -0.00190869 -0.00420228)
(5.20739e-05 6.72266e-05 -0.00315438)
(-0.00140136 0.00167742 -0.00491598)
(0.00158782 0.000934343 -0.00468194)
(-0.00164337 0.00130529 -0.00461538)
(0.00158201 0.00097503 -0.0046644)
(-0.00161104 0.00123489 -0.00464171)
(0.00161418 0.00103044 -0.00463931)
(-0.00161082 0.00122945 -0.00462297)
(0.00183372 0.00104391 -0.00468321)
(-0.00132114 0.0014442 -0.0044342)
(0.000647386 0.000131557 -0.00421801)
(-0.000855093 0.000485514 -0.00324212)
(-0.000552887 0.000733845 -0.00336059)
(0.000960115 0.00122163 -0.00454292)
(9.98026e-05 -0.000104024 -0.00309842)
(-0.00054439 -0.000510516 -0.00411927)
(0.000635853 0.000145194 -0.00555877)
(-0.001712 0.000285562 -0.00339532)
(-0.000646249 0.000528771 -0.00348088)
(0.0020407 6.06173e-05 -0.00312822)
(-8.77333e-05 0.000138392 -0.003956)
(3.82142e-05 2.55757e-05 -0.00353836)
(7.05152e-05 4.04228e-06 -0.00373331)
(0.000318485 4.75619e-06 -0.00370375)
(0.00146385 0.00177808 -0.00449619)
(-0.000340419 -0.000949232 -0.00389326)
(-4.16786e-05 2.85961e-05 -0.00387994)
(-0.000167897 0.000957033 -0.00394915)
(0.000655617 2.59748e-05 -0.00565735)
(-0.0015181 -2.49503e-05 -0.0033045)
(-0.0015197 0.000130509 -0.0033322)
(0.00339619 2.55687e-05 -0.00317934)
(-0.00016506 0.00101331 -0.00397906)
(0.00112908 -0.00173354 -0.00444328)
(0.0018378 0.0015513 -0.00483356)
(-2.29681e-05 2.08932e-05 -0.00376538)
(1.10696e-05 -2.96443e-05 -0.00399473)
(1.51602e-05 -5.52319e-06 -0.00400426)
(9.18579e-06 -9.03917e-07 -0.00399161)
(4.49171e-06 1.66972e-06 -0.00399754)
(1.77349e-06 1.89816e-06 -0.00399938)
(-4.96562e-07 2.32844e-06 -0.00399839)
(-4.73363e-06 5.30346e-06 -0.00399418)
(-1.1599e-05 1.06355e-05 -0.00400821)
(1.82315e-05 -1.80379e-05 -0.00461533)
(-6.14977e-06 4.72998e-06 -0.00457059)
(-0.000536776 0.00054946 -0.0031985)
(-0.000529619 -0.000226008 -0.00346597)
(5.60552e-05 -7.76467e-05 -0.0046165)
(0.000337558 -0.000424073 -0.00381996)
(1.91739e-05 0.000521581 -0.00338599)
(0.000514997 -0.000290299 -0.00411838)
(-0.000616001 -0.000565679 -0.00406065)
(-4.61544e-05 -0.000773786 -0.00572076)
(-0.000141872 -0.000874391 -0.00426148)
(0.000954942 -3.52258e-05 -0.0056017)
(0.000785539 0.000640903 -0.00402202)
(0.000218457 -0.000483625 -0.00419977)
(0.000614199 4.53191e-05 -0.00550556)
(0.00039705 0.000528194 -0.00400504)
(0.000301931 -0.000526097 -0.00411039)
(0.000659431 2.2161e-05 -0.00555528)
(0.000332948 0.000549078 -0.00406708)
(0.000357194 -0.000563002 -0.00403384)
(0.000670909 -1.77874e-05 -0.00558066)
(0.000291482 0.000512791 -0.00412459)
(0.000562105 -0.000615141 -0.00405884)
(0.000762646 -4.89824e-05 -0.00572979)
(0.000864532 -0.000141969 -0.0042646)
(3.71376e-05 0.000941754 -0.00560208)
(-0.000633711 0.000780211 -0.00403202)
(3.49395e-05 -0.000511337 -0.00339753)
(0.000422131 0.000339018 -0.00382033)
(-0.000511421 0.000263535 -0.00341746)
(-0.000548685 -0.000539016 -0.00320444)
(7.84269e-05 5.80802e-05 -0.00461705)
(0.000226723 -0.000528134 -0.00346613)
(0.000124751 0.000414265 -0.00344176)
(-0.000429412 0.000425737 -0.00316189)
(-0.000471955 -0.000469439 -0.00318273)
(8.82971e-05 -7.09912e-06 -0.0046079)
(0.000140587 -0.00043806 -0.00344646)
(0.000169436 0.000439673 -0.00343315)
(-0.000465723 0.000474584 -0.00316369)
(-0.000441884 -0.00042635 -0.00319036)
(8.90294e-05 -1.43265e-06 -0.00460671)
(9.24244e-05 -0.00040752 -0.00345338)
(0.00026827 0.000517342 -0.00341584)
(-0.00051116 -3.3747e-05 -0.00339635)
(0.000666935 -2.55202e-05 -0.00448638)
(-0.00143769 0.00162573 -0.00357657)
(-0.00192709 -0.00127414 -0.00423953)
(0.00166082 0.00140887 -0.00492987)
(-0.00194487 -0.00149604 -0.00481846)
(-8.14404e-05 5.05773e-05 -0.00305692)
(-0.00133824 -0.000965481 -0.00446366)
(1.07259e-05 -2.06672e-05 -0.00317002)
(0.00130461 -8.83068e-06 -0.00429389)
(-0.000313336 -0.000180693 -0.00294003)
(0.00155494 0.000466453 -0.00397607)
(0.000770814 -0.00093329 -0.0041085)
(0.00114941 0.000928571 -0.00381643)
(-0.00172253 -0.00155873 -0.00395196)
(0.000672162 3.55562e-06 -0.00458699)
(-0.00148421 0.00159207 -0.003773)
(0.000987376 -0.00157281 -0.00464657)
(0.00128729 0.0016375 -0.00461409)
(-0.00157445 -0.00167343 -0.00445607)
(3.52516e-05 6.96123e-06 -0.00372422)
(-0.00133859 0.00164861 -0.00444834)
(0.00117809 -0.00168898 -0.00455299)
(0.00146645 0.0017518 -0.00456239)
(-0.00155839 -0.0017464 -0.00452074)
(-9.72949e-06 6.50061e-06 -0.00378235)
(-0.00130615 0.00170763 -0.00452592)
(0.00124303 -0.00171925 -0.00453989)
(0.00151862 0.00177467 -0.00454567)
(-0.00155638 -0.00176725 -0.00453033)
(-3.12241e-06 3.98306e-06 -0.00379573)
(-0.00129873 0.00172609 -0.00453448)
(0.00126502 -0.00173036 -0.00453964)
(0.00153632 0.00178256 -0.0045436)
(-0.00156518 -0.0017749 -0.00453017)
(1.98098e-07 3.34998e-06 -0.00380109)
(-0.00130665 0.00173412 -0.00453596)
(0.00126291 -0.00173963 -0.00454169)
(0.00153932 0.00179163 -0.00454772)
(-0.00158782 -0.00177787 -0.00452455)
(1.72673e-06 4.35239e-06 -0.00380518)
(-0.00132893 0.00173742 -0.00453377)
(0.00124231 -0.00175032 -0.00454588)
(0.00153106 0.00180345 -0.00455612)
(-0.00162256 -0.00177349 -0.00451487)
(4.06038e-06 5.73522e-06 -0.00380755)
(-0.00135723 0.00173065 -0.00452801)
(0.00120238 -0.00175523 -0.00454379)
(0.00150968 0.00180808 -0.00455928)
(-0.00165008 -0.00173685 -0.00450787)
(9.67698e-06 7.37579e-06 -0.00379511)
(-0.00136409 0.00168709 -0.00452654)
(0.00112909 -0.00173682 -0.00446327)
(0.00140954 0.00175132 -0.00447801)
(-0.000307795 -0.000949111 -0.00394028)
(0.00062634 -4.26141e-06 -0.00566052)
(-0.0015069 -6.99228e-05 -0.00330576)
(-0.00153671 2.90896e-05 -0.00329405)
(0.00341708 -2.82085e-05 -0.00319031)
(-0.000117403 -1.73672e-06 -0.00449375)
(-0.000128646 1.11199e-05 -0.00448142)
(7.88966e-05 1.47372e-05 -0.00373361)
(0.000343758 5.06219e-08 -0.00370474)
(0.00145438 0.00178192 -0.00448234)
(-0.000268767 -0.000944775 -0.00392419)
(-2.6805e-05 7.98968e-06 -0.00383237)
(-0.000299576 0.00112625 -0.00397411)
(0.000596623 -0.000152982 -0.00564043)
(-0.00153538 -4.49532e-05 -0.0033234)
(-0.00151015 3.71118e-05 -0.00329344)
(0.00339751 -5.54342e-05 -0.00319617)
(-0.000198948 0.00095421 -0.00392594)
(0.00112939 -0.00175476 -0.00446868)
(-4.29481e-05 1.01797e-05 -0.00387847)
(1.86538e-05 7.81263e-06 -0.00392396)
(1.81908e-05 2.19532e-05 -0.00399733)
(1.17027e-05 1.4204e-05 -0.0039909)
(6.08623e-06 7.58209e-06 -0.00399927)
(2.63507e-06 3.40602e-06 -0.00400096)
(-2.32785e-08 2.26166e-07 -0.00399936)
(-4.37377e-06 -4.69961e-06 -0.00399457)
(-1.05388e-05 -1.18344e-05 -0.00400807)
(1.81937e-05 1.75871e-05 -0.00461512)
(-5.63644e-06 -6.32969e-06 -0.00457172)
(0.000426543 -0.000442316 -0.0031844)
(-0.000473453 -0.000471119 -0.00317454)
(0.00047179 -0.000471332 -0.00317208)
(-0.00042854 -0.000443343 -0.0031842)
(8.60884e-07 9.05572e-05 -0.00460615)
(0.000429002 0.000156091 -0.00343289)
(-0.000405444 9.84077e-05 -0.00345218)
(-2.27712e-06 -0.000595628 -0.00347331)
(-0.00051069 0.000312427 -0.00410936)
(2.84227e-07 -0.000631643 -0.00577273)
(-0.000429103 0.000156456 -0.00343385)
(-3.32362e-07 9.0737e-05 -0.00460632)
(0.000404395 9.85956e-05 -0.00345112)
(1.58978e-05 -0.000624238 -0.00574036)
(0.00047695 0.000217381 -0.00418724)
(-3.89556e-05 0.000597271 -0.00548707)
(-0.000515682 0.000385582 -0.0040022)
(1.68683e-06 -0.000595394 -0.00347415)
(0.000509978 0.00031307 -0.00410898)
(-5.26742e-07 0.000648372 -0.0054883)
(-8.55237e-08 0.00090531 -0.0029301)
(0.000903313 0.000956205 -0.00393641)
(-0.00155268 -0.00156621 -0.00377533)
(0.00155081 -0.00156266 -0.00377095)
(-0.00153386 -0.00168181 -0.00395316)
(0.00161468 0.00122006 -0.0046107)
(-0.00165192 -0.00151358 -0.00445684)
(0.00172753 0.001389 -0.00455964)
(-0.00172225 -0.00148721 -0.00452084)
(0.00174967 0.00143842 -0.00454436)
(-0.00174229 -0.00148135 -0.00452986)
(0.00175743 0.00145603 -0.00454324)
(-0.00174997 -0.00148814 -0.00452985)
(0.00176655 0.00145953 -0.00454832)
(-0.00175285 -0.00150953 -0.00452421)
(0.00177872 0.00145301 -0.00455837)
(-0.00174869 -0.00154504 -0.0045135)
(0.00178506 0.00143772 -0.00456439)
(-0.00171403 -0.00157902 -0.00450322)
(0.00175857 0.00140718 -0.00450606)
(-0.000942206 -0.00030989 -0.00388971)
(1.98056e-05 0.000667584 -0.00565804)
(0.00095104 -0.000212454 -0.0039643)
(2.56293e-05 -3.68474e-05 -0.00387851)
(-0.00171556 0.00121827 -0.00445286)
(0.0016682 -0.00145411 -0.00453736)
(8.65062e-06 1.4058e-05 -0.00379706)
(-0.00173395 0.00130369 -0.00454231)
(0.00170885 -0.00145929 -0.00453356)
(5.8757e-06 6.38242e-06 -0.00380929)
(-0.00172888 0.00134759 -0.00454779)
(0.00171459 -0.00143383 -0.00453596)
(3.89615e-06 2.90516e-06 -0.00380642)
(-0.00171819 0.00136782 -0.00454443)
(0.00171092 -0.0014112 -0.00453633)
(2.7064e-06 6.3173e-07 -0.00380178)
(-0.00170897 0.00136838 -0.00454248)
(0.00170282 -0.00140153 -0.00453365)
(2.82212e-06 -3.29085e-06 -0.003796)
(-0.00169821 0.00134512 -0.00454376)
(0.0016847 -0.00140488 -0.0045233)
(4.53393e-06 -1.04494e-05 -0.00378228)
(-0.00166916 0.0012763 -0.0045593)
(0.00162542 -0.00142905 -0.00444357)
(5.15585e-06 3.34132e-05 -0.00372319)
(-0.0015526 0.00106906 -0.0046529)
(9.14822e-07 -9.87284e-05 -0.00381673)
(0.00155207 0.00106812 -0.00464768)
(-0.00162643 -0.00143137 -0.00444857)
(-7.31082e-06 3.34764e-05 -0.00372322)
(-0.00161229 0.00122644 -0.00461541)
(0.00153153 -0.00167212 -0.00395219)
(-2.87889e-06 0.000671104 -0.00458595)
(-0.000911021 0.00110968 -0.00380814)
(-5.92008e-05 0.000829388 -0.00296581)
(0.000926664 0.000776306 -0.00411733)
(-0.00160799 -0.00147517 -0.00358257)
(0.00155253 0.000967702 -0.00466771)
(-0.00163494 -0.00137689 -0.0044659)
(0.0016423 0.00121765 -0.00455093)
(-0.00167175 -0.00134909 -0.00454723)
(0.00166976 0.00129275 -0.00454168)
(-0.00167753 -0.00134511 -0.00454672)
(0.00168176 0.0013168 -0.00454654)
(-0.00167948 -0.00135566 -0.00454233)
(0.00169595 0.00131892 -0.00455419)
(-0.00167897 -0.00138385 -0.00453434)
(0.00171751 0.00130887 -0.0045717)
(-0.00166597 -0.00141769 -0.00450828)
(0.0017388 0.00128641 -0.00459398)
(-0.00160731 -0.00140402 -0.00446078)
(0.0017255 0.00122621 -0.00451738)
(-0.000928507 -0.000202367 -0.00391093)
(-0.000199276 0.000483066 -0.00557553)
(0.000403828 -0.000553322 -0.0041287)
(5.09532e-05 -1.04454e-05 -0.00373699)
(-0.00160156 0.00168087 -0.00479457)
(0.00144154 -0.0020571 -0.00487138)
(2.02023e-05 3.54272e-05 -0.00367422)
(-0.00157837 0.00184718 -0.00488105)
(0.00152568 -0.00201061 -0.00486225)
(2.89053e-06 1.77994e-05 -0.00368823)
(-0.00153073 0.00188186 -0.00487833)
(0.00152455 -0.0019396 -0.00485697)
(-1.88637e-06 6.86717e-06 -0.00368149)
(-0.00151241 0.00188311 -0.0048658)
(0.0015141 -0.00190352 -0.00485481)
(-2.65998e-06 1.62989e-06 -0.00367589)
(-0.00150746 0.00188307 -0.00486326)
(0.00151139 -0.00189294 -0.00485824)
(-7.70669e-06 -3.72497e-06 -0.00367268)
(-0.00150325 0.00188016 -0.00486592)
(0.00151396 -0.00189284 -0.00485783)
(-1.95172e-05 -7.83863e-06 -0.00366516)
(-0.00148278 0.001849 -0.00488577)
(0.00149415 -0.0019095 -0.00482014)
(-4.50591e-05 4.25603e-05 -0.0036142)
(-0.00138034 0.00164427 -0.00492913)
(0.00126385 -0.00190125 -0.00423869)
(2.72453e-05 0.000667124 -0.00448485)
(-0.000458043 0.00154997 -0.00397464)
(0.000779545 0.00137736 -0.00419912)
(0.00128191 -0.000691576 -0.00366359)
(4.08751e-05 0.00131318 -0.00430789)
(0.00015952 -0.000311727 -0.00293169)
(-0.000234348 0.000247451 -0.00334603)
(0.000655862 0.00157346 -0.003806)
(-0.00202312 -0.00136181 -0.00349389)
(0.00153504 0.0012705 -0.0047766)
(-0.00192492 -0.00119617 -0.00465176)
(-0.00129618 0.00191591 -0.00448138)
(-0.00160264 -0.00168687 -0.00445117)
(4.16031e-05 -1.33647e-05 -0.00371405)
(0.00105535 -0.00188793 -0.00461651)
(0.00116725 0.00161029 -0.00468355)
(-0.00168055 -0.0016474 -0.00363656)
(0.000649915 4.83993e-05 -0.0046055)
(-0.0015082 0.00173442 -0.00404514)
(-0.000112077 7.74243e-05 -0.00384719)
(8.08032e-05 3.35945e-05 -0.00378165)
(-0.000610508 -0.000490848 -0.00557393)
(5.22314e-05 4.81292e-05 -0.00449762)
(-2.46528e-05 -3.94144e-05 -0.00426412)
(-0.000647718 2.57518e-05 -0.00572284)
(6.60627e-05 -9.41186e-06 -0.00410243)
(-0.000104586 -3.37114e-06 -0.00382449)
(-0.00153023 0.00158571 -0.00390591)
(-0.00165962 -0.00158881 -0.00379603)
(0.00119737 0.00158993 -0.00465261)
(-0.00155268 -0.00165282 -0.00444348)
(1.99562e-05 2.67649e-07 -0.00376287)
(0.00141656 0.00170513 -0.00456254)
(-0.00154413 -0.00171604 -0.00452326)
(0.00149113 0.00173563 -0.00454618)
(-0.00154533 -0.00173512 -0.0045338)
(1.09666e-05 1.20284e-06 -0.00374058)
(0.00151863 0.00174832 -0.00454619)
(-0.00155672 -0.00174175 -0.00453394)
(0.0015236 0.00176056 -0.00455132)
(-0.00158123 -0.00174225 -0.00452799)
(5.91648e-05 1.41712e-06 -0.00373016)
(0.00151264 0.00177448 -0.00456007)
(-0.00161027 -0.00173198 -0.00451631)
(0.00148202 0.00177902 -0.00456087)
(-0.00161478 -0.00168799 -0.00451087)
(0.000333538 -2.73643e-06 -0.00370876)
(7.79875e-05 2.30103e-06 -0.00373763)
(5.00429e-05 3.80703e-06 -0.00374338)
(5.26516e-05 1.26994e-05 -0.00374374)
(2.53391e-05 7.12796e-06 -0.00375097)
(6.21562e-05 4.60279e-06 -0.00373705)
(0.00156349 0.00179043 -0.0045747)
(-0.00165237 -0.00172945 -0.00451669)
(1.27482e-05 9.12508e-06 -0.00380194)
(-0.00134021 0.00204517 -0.00455557)
(0.00110407 -0.0020202 -0.00451)
(0.00153922 0.00180965 -0.00458524)
(-0.00162073 -0.00167094 -0.00448705)
(2.89666e-05 1.75327e-05 -0.00378228)
(-0.00142296 0.00202956 -0.00457223)
(0.000989112 -0.0019288 -0.0043898)
(0.0019768 0.00122922 -0.00488754)
(-0.00023277 -0.000855214 -0.00375219)
(3.72431e-05 -0.00136587 -0.00552923)
(-0.00164775 -9.27913e-05 -0.00335981)
(-0.00152056 -2.10706e-05 -0.00321482)
(0.0032156 -0.00049373 -0.00326937)
(-0.000199572 -0.000126853 -0.00432596)
(5.35313e-05 3.82691e-05 -0.00351288)
(9.01081e-05 0.000908835 -0.003127)
(-0.000981522 0.00118634 -0.00456976)
(0.000224625 9.46315e-05 -0.00306095)
(0.000771943 -0.00193315 -0.0044004)
(-0.000798945 0.00146886 -0.00456391)
(6.56576e-05 1.46109e-05 -0.00305745)
(0.000828764 -0.00163988 -0.00449494)
(-0.000751778 0.00149897 -0.00453875)
(1.04078e-05 -3.258e-06 -0.00305072)
(0.000806963 -0.0015433 -0.004531)
(-0.00077162 0.00151864 -0.00454084)
(-1.42829e-06 6.82127e-07 -0.0030494)
(0.000771851 -0.00149096 -0.00451804)
(-0.000749073 0.0015136 -0.00451285)
(-1.99807e-05 -1.06701e-05 -0.0030517)
(0.000803502 -0.00149 -0.004536)
(-0.000724613 0.00157274 -0.0045127)
(-4.91613e-05 -2.69252e-05 -0.00305733)
(0.000847439 -0.00142108 -0.00452664)
(-0.000570185 0.00160608 -0.00447962)
(-8.22679e-05 -0.000100992 -0.00305507)
(0.00100189 -0.00126789 -0.00448654)
(0.000380438 0.000411538 -0.0034381)
(0.000281364 0.000618759 -0.00331484)
(-7.39852e-05 -0.000763071 -0.00412959)
(-3.85268e-05 6.42818e-06 -0.00360543)
(0.000394413 0.00124646 -0.00401806)
(-0.000173422 -0.00106088 -0.00416669)
(0.00177648 0.00124507 -0.00464584)
(-0.001898 -0.00121726 -0.00469415)
(0.00185465 0.00123593 -0.00465157)
(-0.00189377 -0.00122291 -0.00467869)
(-0.00122605 0.00198972 -0.00453711)
(-0.00158984 -0.0017441 -0.00454636)
(-3.75224e-06 -4.12259e-06 -0.00378805)
(0.00121355 -0.00199468 -0.0045539)
(0.00153118 0.00173819 -0.00455113)
(-0.00158883 -0.00173319 -0.00454092)
(-8.78485e-06 -1.04189e-05 -0.00377718)
(-0.00123108 0.00197209 -0.00452733)
(1.0402e-05 -1.05341e-07 -0.00375456)
(9.10973e-07 -4.43751e-06 -0.00355236)
(1.34138e-05 -2.90397e-06 -0.00356488)
(-1.28833e-06 -0.00011438 -0.00316938)
(2.64034e-05 2.59188e-05 -0.00369543)
(0.000101915 0.00015962 -0.00358718)
(9.43298e-05 0.000173381 -0.00344124)
(0.000171364 7.06016e-05 -0.00401171)
(-5.00393e-05 3.02079e-05 -0.00398254)
(2.71067e-05 9.98405e-05 -0.00394153)
(0.000713557 7.07127e-05 -0.0039781)
(0.00113379 -9.10582e-05 -0.00308921)
(0.000945589 0.00147422 -0.00503383)
(0.000319612 0.000472609 -0.00278798)
(0.00143766 0.000102758 -0.00374256)
(0.000572269 0.000352793 -0.00397351)
(0.000268307 7.53186e-05 -0.00388315)
(7.99929e-05 2.26436e-05 -0.0038991)
(5.12579e-05 1.57854e-05 -0.00401153)
(-2.31053e-05 5.24744e-06 -0.00395108)
(-1.46814e-05 2.93014e-06 -0.00393858)
(1.47954e-05 4.14582e-06 -0.00401699)
(2.40319e-05 4.0494e-06 -0.00389848)
(-0.000225569 -0.00111914 -0.00416264)
(-3.47578e-06 1.21243e-06 -0.00365911)
(0.000259984 0.00114215 -0.00411888)
(-0.000240053 -0.00112898 -0.00413253)
(0.00187791 0.00123265 -0.00466986)
(-0.00190223 -0.00122608 -0.00466469)
(0.00188892 0.00124462 -0.0046816)
(-0.00193922 -0.00122821 -0.00465087)
(-0.00127195 0.00201933 -0.00454509)
(-0.00162873 -0.00174548 -0.00453665)
(4.45339e-06 3.25057e-06 -0.0037986)
(0.0012036 -0.00200417 -0.00454836)
(0.00157006 0.001768 -0.00456014)
(-0.0016026 -0.00174745 -0.00454398)
(5.28642e-07 -2.29913e-07 -0.00379326)
(-0.00123837 0.00200129 -0.00454166)
(1.80277e-05 3.88587e-06 -0.00374443)
(7.96992e-06 4.01631e-06 -0.00355127)
(2.01235e-06 -4.72894e-07 -0.00355086)
(1.38462e-06 -1.16012e-05 -0.0031544)
(3.4802e-06 -5.48517e-06 -0.00368254)
(6.16606e-06 1.74048e-05 -0.00364237)
(9.80204e-06 1.26032e-05 -0.00348708)
(7.89043e-06 2.32875e-06 -0.00368242)
(2.10678e-05 5.39847e-05 -0.00356114)
(3.20982e-05 3.87068e-05 -0.0034192)
(0.000305825 0.0011671 -0.0041082)
(-5.34096e-06 5.68264e-06 -0.00365565)
(-1.99338e-06 -5.3748e-05 -0.00315818)
(-9.8353e-06 -4.66354e-06 -0.00398455)
(1.68316e-06 -7.80838e-05 -0.00400286)
(4.07426e-06 1.00947e-05 -0.00395836)
(-4.03869e-05 0.000775636 -0.00395758)
(9.3728e-05 0.0014811 -0.00373423)
(-0.00108072 0.00272248 -0.00362492)
(-2.70364e-06 0.000285352 -0.0035993)
(1.48525e-05 -4.14177e-05 -0.003162)
(6.97846e-07 -1.92594e-05 -0.00394081)
(-1.46318e-05 -7.38743e-05 -0.00388944)
(0.00165218 -0.001504 -0.00445433)
(-2.83712e-07 6.57793e-06 -0.00375718)
(-0.0017268 0.00139945 -0.00456323)
(0.00166898 0.00127369 -0.00455519)
(-0.00168484 -0.0014056 -0.00452701)
(-5.93034e-06 -1.03651e-05 -0.00378292)
(0.00172476 -0.00148173 -0.00451953)
(1.58991e-08 1.09766e-05 -0.00373928)
(-0.00174942 0.00144741 -0.00454641)
(0.00169944 0.00134291 -0.00454176)
(-0.00170162 -0.00140083 -0.00453497)
(-2.46795e-06 -3.1388e-06 -0.00379701)
(0.00174648 -0.00148128 -0.00453092)
(9.90475e-07 9.51857e-06 -0.00373276)
(-0.00175657 0.00146011 -0.00454361)
(0.00171229 0.00136831 -0.00454383)
(-0.00170763 -0.00140994 -0.00453419)
(1.15293e-07 8.82235e-07 -0.00380328)
(0.00175646 -0.00149385 -0.00453377)
(1.88952e-06 2.53176e-05 -0.00372819)
(-0.00176496 0.0014559 -0.00454622)
(0.00172442 0.00137209 -0.00455047)
(-0.00170817 -0.0014335 -0.00452776)
(2.58285e-06 3.41009e-06 -0.00380845)
(0.00176275 -0.00152311 -0.00453279)
(1.56662e-06 7.11182e-05 -0.00372174)
(-0.00177581 0.00143237 -0.00454922)
(0.00173854 0.00136192 -0.00456238)
(-0.00169805 -0.00146498 -0.00451327)
(6.20695e-06 7.23566e-06 -0.00381124)
(0.00176025 -0.00156416 -0.00453084)
(-3.38845e-06 0.000173039 -0.00371188)
(-0.00177788 0.00137821 -0.00453829)
(0.00174472 0.00133991 -0.00456937)
(-0.00165526 -0.00148031 -0.00450074)
(9.85265e-06 1.53764e-05 -0.00379577)
(0.00171518 -0.00157883 -0.00453295)
(-1.51296e-05 0.000385813 -0.00369078)
(-0.00174414 0.00128938 -0.00445153)
(0.00171946 0.00128929 -0.00449427)
(-0.000943596 -0.000248281 -0.00393388)
(-1.14478e-06 -3.58123e-05 -0.00387156)
(0.000936971 -0.000287487 -0.00393451)
(-5.74762e-05 0.00339338 -0.00320999)
(-0.000119564 -0.00151573 -0.00330613)
(-0.000125666 -0.00154764 -0.00317712)
(-0.000131145 0.002507 -0.00301028)
(-0.00164367 0.000651779 -0.00431348)
(0.000410141 0.000270706 -0.00307311)
(0.000365083 -0.00234068 -0.00414826)
(-0.000139942 -0.000482438 -0.00341116)
(-0.000288435 -0.000282343 -0.00326857)
(-0.000143855 0.00120285 -0.00427109)
(-0.00187759 -0.00125572 -0.00437929)
(0.000395512 -2.19245e-05 -0.00368146)
(-0.000480203 2.61767e-05 -0.00388264)
(-0.000804916 -0.000157228 -0.00388243)
(-0.000295067 -0.000189126 -0.00391338)
(-0.000230926 -1.94311e-05 -0.00399376)
(-0.000241683 5.01514e-05 -0.00391649)
(-0.000102886 2.9042e-05 -0.00392579)
(-4.59743e-05 1.18156e-05 -0.0040202)
(7.5867e-06 -1.54163e-05 -0.00390886)
(-1.85236e-06 6.94398e-06 -0.00401957)
(-3.72459e-05 1.10924e-05 -0.00393241)
(-4.65593e-05 3.26923e-06 -0.00390413)
(-2.7299e-05 3.57564e-07 -0.00391481)
(-5.30083e-05 -3.00686e-06 -0.00393109)
(-0.000105219 -1.03201e-05 -0.00396507)
(1.86153e-05 -1.98208e-05 -0.00391744)
(0.000837964 -6.8721e-05 -0.00392087)
(0.000982562 -3.68168e-05 -0.0029833)
(0.000963538 0.000958706 -0.00407466)
(0.00111016 -0.000959125 -0.00360648)
(0.00137292 1.15252e-05 -0.00375072)
(0.0013071 6.18365e-06 -0.00376827)
(0.00102235 -0.000974193 -0.00384084)
(0.00102908 0.000959871 -0.00396871)
(0.00067141 -2.27295e-06 -0.00459765)
(-0.0005971 3.98896e-06 -0.00346611)
(0.000192734 -4.34114e-06 -0.00427079)
(-7.00628e-05 -7.27115e-05 -0.00421711)
(-4.90701e-05 -4.60785e-05 -0.00426254)
(0.000174934 0.000174056 -0.00432546)
(-0.000520573 1.88654e-05 -0.00338866)
(-1.41984e-06 0.0002003 -0.00425708)
(-8.18461e-07 -7.10472e-05 -0.00427236)
(-1.6823e-06 -8.71157e-05 -0.00425209)
(1.32078e-07 9.58187e-08 -0.00460203)
(-0.000328841 0.000320845 -0.00310982)
(-0.000374642 -0.000372954 -0.00313028)
(-0.000371288 0.000374452 -0.00312475)
(-0.000332868 -0.000319648 -0.00311978)
(0.000329983 -0.000323587 -0.00310976)
(-0.000280116 -0.000276623 -0.00309875)
(1.03985e-05 1.03209e-05 -0.00460893)
(0.000372996 0.000371325 -0.00311975)
(-0.000321865 0.000334165 -0.00311646)
(-0.000323176 -0.000333562 -0.00311756)
(1.03166e-05 -9.94251e-06 -0.00460918)
(0.000371627 -0.000374135 -0.00312495)
(-2.09389e-08 -1.56268e-08 -0.00462855)
(6.01257e-08 5.87025e-08 -0.00463391)
(1.64472e-07 2.37668e-05 -0.00462429)
(1.83941e-07 6.74206e-05 -0.00410257)
(-9.82636e-06 6.03463e-05 -0.00409521)
(1.31645e-05 -0.000133768 -0.00380457)
(-6.73868e-06 2.61328e-06 -0.00375195)
(-3.71156e-06 6.84074e-07 -0.00374181)
(-4.74787e-07 3.94348e-06 -0.00374306)
(2.03148e-06 1.1298e-05 -0.00374342)
(5.07961e-06 2.74219e-05 -0.00374167)
(2.16523e-05 1.17946e-05 -0.00354878)
(1.60125e-05 9.60416e-05 -0.00315422)
(8.72622e-06 -7.54425e-05 -0.0036694)
(3.78757e-05 -8.36472e-06 -0.00362903)
(-1.06336e-05 5.46223e-05 -0.00347033)
(0.000226882 0.00120099 -0.00414089)
(-0.000323727 -0.00109575 -0.00411908)
(0.00191784 0.00126502 -0.00472255)
(-0.00197911 -0.00124637 -0.00457688)
(0.00196944 0.0012781 -0.00482024)
(-4.09853e-05 -3.06835e-05 -0.00369677)
(-0.000578573 -0.00113312 -0.0039839)
(-8.6493e-05 3.29949e-05 -0.00339852)
(0.000159382 0.00127001 -0.00417837)
(-1.71813e-05 -4.65369e-06 -0.00368983)
(-3.83009e-05 -5.5513e-05 -0.00391691)
(-2.01979e-05 1.14077e-05 -0.00399788)
(-0.000110394 7.8684e-06 -0.00389334)
(-0.000231084 1.56931e-05 -0.00388227)
(-0.000460849 1.8592e-05 -0.00388628)
(-0.00105313 -1.33808e-05 -0.0040294)
(-0.00107668 -0.000188057 -0.00397646)
(-0.00268326 0.000644493 -0.00391604)
(-0.00126678 -0.000287487 -0.00371912)
(-0.0011077 -0.00123652 -0.00356277)
(-3.77186e-05 -0.00015668 -0.00359593)
(-0.000436753 -0.000148839 -0.00373925)
(0.000343209 -0.0024356 -0.00295032)
(-0.00216822 -0.000671385 -0.00323074)
(-0.00129557 8.56205e-05 -0.00437042)
(-0.000605946 -0.000982428 -0.00395808)
(0.000982226 0.000726377 -0.00414588)
(7.9114e-05 3.33789e-05 -0.00425033)
(5.12862e-05 4.11449e-05 -0.00281525)
(-0.00102719 0.000879287 -0.00351406)
(0.00108708 0.000737599 -0.00370639)
(6.38239e-06 0.000103391 -0.00437963)
(-0.000128587 -8.24848e-05 -0.00291771)
(-0.00112852 0.000978094 -0.00366082)
(0.00109235 0.000879002 -0.00372691)
(1.90606e-06 0.00011147 -0.00440075)
(-0.000143369 -9.94018e-05 -0.00292945)
(-0.00110131 0.000887515 -0.00361482)
(0.00108873 0.00100245 -0.0037707)
(9.38224e-06 0.000103903 -0.00438439)
(-0.000235 -0.00022913 -0.00298467)
(-0.00105081 0.000736169 -0.0035714)
(0.000776268 0.00102368 -0.00399153)
(-0.000618376 -0.000354658 -0.00545266)
(0.000506455 0.000533612 -0.00406955)
(0.000383924 -0.000465227 -0.00397103)
(0.00113355 0.000497252 -0.00499267)
(-0.000532621 -0.00196346 -0.00483947)
(-0.000308272 -0.00106646 -0.00394151)
(0.000168451 0.000192868 -0.00298263)
(0.000682536 -0.000484601 -0.00429685)
(-0.0022333 0.00105608 -0.0040401)
(-0.000124394 -6.36762e-05 -0.00378345)
(-0.00130766 -0.00173125 -0.00383021)
(0.00113913 0.000913281 -0.00380035)
(0.00104925 -1.8245e-05 -0.00286162)
(0.00100147 -0.00108461 -0.00392153)
(0.00125724 -0.00107217 -0.00440159)
(0.0006081 -0.00155882 -0.00315642)
(0.000138209 0.000656194 -0.00422081)
(0.000485834 -0.000857346 -0.00324395)
(0.000734753 -0.000548937 -0.00336358)
(0.00121425 0.000953925 -0.00454449)
(-0.000565927 -0.0019794 -0.00431218)
(0.00011668 -0.000221951 -0.00349127)
(0.000901194 0.00139244 -0.00457561)
(-0.000776146 -0.00171456 -0.00444294)
(8.68374e-07 -4.3864e-05 -0.00358603)
(0.000788882 0.00149236 -0.00454887)
(-0.000800056 -0.00157061 -0.00449947)
(-1.00427e-05 3.5037e-06 -0.00359691)
(0.000765623 0.00150466 -0.0045354)
(-0.000782407 -0.00151441 -0.00451559)
(-5.88185e-06 7.83828e-06 -0.00360393)
(0.000761078 0.00149825 -0.00452747)
(-0.000774312 -0.0014996 -0.00452129)
(-5.15995e-06 8.56593e-06 -0.00360207)
(0.000758822 0.00149758 -0.00452659)
(-0.0007794 -0.00149628 -0.0045223)
(-1.09041e-05 2.31209e-05 -0.00360952)
(0.00073333 0.00150572 -0.00451939)
(-0.000822893 -0.00148692 -0.00452541)
(-6.49029e-05 9.21744e-05 -0.00354966)
(0.000622713 0.00155334 -0.00450524)
(-0.000952969 -0.00133241 -0.00446081)
(-0.000354919 0.000374909 -0.00346087)
(-1.53884e-05 0.00129241 -0.00429572)
(-0.00128371 -0.0007217 -0.00364488)
(-0.000794789 0.00137126 -0.00419387)
(0.000463738 0.00154877 -0.00396993)
(-0.00126473 -0.00192057 -0.00423726)
(0.00139927 0.0016389 -0.0049307)
(-0.001485 -0.00192751 -0.00481729)
(4.17016e-05 4.42832e-05 -0.0036142)
(-0.00155623 0.000964577 -0.00467651)
(0.00160545 -0.00147587 -0.00357516)
(-2.43864e-05 0.000666383 -0.00448682)
(-0.000925723 0.000772568 -0.00411564)
(5.91238e-05 0.000836388 -0.00296642)
(0.000912396 0.00110958 -0.00380332)
(-0.000902562 0.000954294 -0.00393908)
(3.20267e-06 0.000670616 -0.00458701)
(5.33689e-06 0.00129203 -0.00375651)
(1.56674e-06 0.00076944 -0.00394601)
(1.25923e-06 -6.36636e-06 -0.00395105)
(1.94114e-06 -0.000111996 -0.00399199)
(1.79836e-06 -6.26869e-05 -0.00395606)
(5.76047e-07 -3.92567e-05 -0.00396625)
(1.29117e-06 -2.36197e-05 -0.0039521)
(3.46177e-06 -4.6133e-05 -0.00394277)
(5.11204e-06 -2.43006e-05 -0.00368019)
(1.5372e-05 6.97933e-06 -0.00357184)
(2.28018e-06 2.47905e-05 -0.00342812)
(0.00024637 0.00114709 -0.00415547)
(-0.000259088 -0.00111158 -0.004158)
(-7.49918e-06 2.98959e-08 -0.00366968)
(-1.87981e-06 1.94984e-06 -0.00366058)
(1.04765e-05 4.52587e-07 -0.00390221)
(1.06694e-06 7.88215e-08 -0.00396816)