/*--------------------------------*- C++ -*----------------------------------*\
| =========                 |                                                 |
| \\      /  F ield         | OpenFOAM: The Open Source CFD Toolbox           |
|  \\    /   O peration     | Version:  2306                                  |
|   \\  /    A nd           | Website:  www.openfoam.com                      |
|    \\/     M anipulation  |                                                 |
\*---------------------------------------------------------------------------*/
FoamFile
{
    version     2.0;
    format      ascii;
    arch        "LSB;label=32;scalar=64";
    class       volVectorField;
    location    "2.2";
    object      flux;
}
// * * * * * * * * * * * * * * * * * * * * * * * * * * * * * * * * * * * * * //

dimensions      [0 1 -1 1 0 0 0];

internalField   nonuniform List<vector> 
5322
(
(-2.13366e-06 5.43967e-06 -7.23851e-06)
(1.17673e-07 6.49671e-07 -6.63686e-06)
(1.25431e-07 1.65328e-07 -5.63111e-06)
(-8.28618e-10 5.91331e-08 -6.08861e-06)
(-8.66094e-09 1.394e-07 -4.68564e-06)
(-7.57076e-09 1.63326e-07 -3.48473e-06)
(-5.3757e-09 1.46335e-07 -2.50236e-06)
(-3.80915e-09 1.18838e-07 -1.74074e-06)
(-2.85219e-09 9.327e-08 -1.18646e-06)
(-1.85439e-09 6.78706e-08 -8.19868e-07)
(-1.01924e-09 2.17265e-08 -6.06449e-07)
(6.24176e-09 -1.06929e-07 -5.3702e-07)
(8.93752e-09 -1.08587e-07 -3.82971e-07)
(-1.21855e-07 -9.92956e-08 -5.40478e-07)
(-1.83029e-09 -8.93484e-08 -6.00136e-07)
(2.27495e-07 2.02322e-07 -5.05626e-07)
(-1.77417e-07 2.67115e-07 -5.92577e-07)
(1.57914e-09 -2.70411e-09 -4.68297e-07)
(-1.45399e-07 2.06193e-07 -7.06289e-07)
(1.29336e-07 -2.95378e-07 -8.19515e-07)
(-1.72949e-07 3.24259e-07 -1.00727e-06)
(2.1919e-07 -4.16915e-07 -1.1969e-06)
(-2.31701e-07 4.78043e-07 -1.48926e-06)
(3.40197e-07 -6.19798e-07 -1.78852e-06)
(-3.52966e-07 7.20984e-07 -2.20395e-06)
(4.81957e-07 -8.81961e-07 -2.58845e-06)
(-4.85854e-07 1.01198e-06 -3.13828e-06)
(6.94249e-07 -1.26205e-06 -3.66557e-06)
(-6.97424e-07 1.42941e-06 -4.35622e-06)
(9.26135e-07 -1.68679e-06 -4.95657e-06)
(-8.8017e-07 1.89409e-06 -5.7726e-06)
(1.28736e-06 -2.21281e-06 -6.50208e-06)
(-9.51589e-07 2.51491e-06 -7.36786e-06)
(1.82566e-06 -2.45746e-06 -7.98183e-06)
(1.54106e-07 2.51636e-06 -8.40901e-06)
(2.68671e-06 -1.42794e-06 -7.39431e-06)
(1.90515e-06 2.86937e-06 -8.73623e-06)
(-7.55017e-07 3.49677e-06 -8.62455e-06)
(2.0919e-06 1.76829e-06 -8.88744e-06)
(-1.24418e-07 1.98542e-06 -6.51267e-06)
(-1.98554e-06 2.58401e-06 -8.2368e-06)
(1.99078e-06 2.17063e-06 -8.50275e-06)
(-1.20552e-07 2.32376e-06 -6.3852e-06)
(-2.11671e-06 2.41516e-06 -8.50631e-06)
(2.10605e-06 2.30364e-06 -8.42062e-06)
(-7.19561e-08 2.36912e-06 -6.49866e-06)
(-2.24941e-06 2.34049e-06 -8.63078e-06)
(1.98133e-06 2.50179e-06 -8.15905e-06)
(-4.66733e-08 2.41126e-06 -6.43168e-06)
(-2.36152e-06 2.22282e-06 -8.49708e-06)
(-2.34503e-06 2.80601e-06 -9.71091e-06)
(-3.36767e-06 1.25385e-06 -6.57916e-06)
(-1.11513e-06 1.46971e-06 -9.19733e-06)
(2.13062e-06 -4.53465e-06 -8.13534e-06)
(-1.40568e-07 -2.19772e-07 -7.25052e-06)
(-3.48019e-06 -2.60408e-06 -7.69906e-06)
(-1.07008e-07 1.43495e-06 -9.54593e-06)
(3.30754e-06 -3.39163e-06 -7.55083e-06)
(-3.99626e-08 -1.60886e-07 -7.26346e-06)
(-3.30689e-06 -2.94678e-06 -7.67921e-06)
(-1.4337e-08 1.45615e-06 -9.64539e-06)
(3.22144e-06 -3.33284e-06 -7.6521e-06)
(-1.68752e-08 -1.4301e-07 -7.26174e-06)
(-3.2478e-06 -2.92528e-06 -7.4916e-06)
(3.30657e-09 1.46272e-06 -9.64607e-06)
(3.17862e-06 -3.45721e-06 -7.92661e-06)
(4.7337e-08 -1.96486e-07 -7.23762e-06)
(-3.21663e-06 -2.8383e-06 -7.12648e-06)
(1.69199e-07 1.48402e-06 -9.46451e-06)
(2.65344e-06 -3.85738e-06 -8.46421e-06)
(1.53565e-07 1.15792e-07 -6.02816e-06)
(-2.53926e-06 3.00428e-06 -8.90096e-06)
(2.88389e-06 1.66707e-06 -8.47072e-06)
(-2.97214e-06 2.33756e-06 -8.34449e-06)
(2.85999e-06 1.73826e-06 -8.42373e-06)
(-2.91377e-06 2.20926e-06 -8.38331e-06)
(2.91621e-06 1.83798e-06 -8.37748e-06)
(-2.91782e-06 2.20289e-06 -8.35639e-06)
(3.32396e-06 1.87451e-06 -8.49067e-06)
(-2.43629e-06 2.62921e-06 -8.10635e-06)
(1.14685e-06 1.94665e-07 -7.88379e-06)
(-1.76781e-06 1.02304e-06 -6.3801e-06)
(-1.1928e-06 1.49708e-06 -6.6172e-06)
(1.86385e-06 2.38159e-06 -8.49314e-06)
(1.55514e-07 -1.54766e-07 -5.4807e-06)
(-8.27343e-07 -8.6027e-07 -7.52785e-06)
(1.35481e-06 3.15657e-07 -1.09903e-05)
(-3.7433e-06 5.992e-07 -7.15045e-06)
(-1.18645e-06 1.28069e-06 -7.16589e-06)
(4.11901e-06 1.85499e-07 -6.21134e-06)
(-1.86865e-07 3.44229e-07 -7.67066e-06)
(4.13575e-08 6.15328e-08 -5.46862e-06)
(7.21278e-08 8.52458e-09 -5.76067e-06)
(4.6388e-07 8.19414e-09 -5.74986e-06)
(2.43685e-06 2.93123e-06 -7.41626e-06)
(-4.86276e-07 -1.68768e-06 -7.12009e-06)
(3.17717e-08 5.49696e-08 -6.74464e-06)
(-1.77338e-07 1.70594e-06 -7.21451e-06)
(1.39413e-06 5.25109e-08 -1.11737e-05)
(-3.30613e-06 -8.82049e-08 -6.9403e-06)
(-3.29921e-06 3.09383e-07 -7.0236e-06)
(6.78619e-06 5.51086e-08 -6.29861e-06)
(-1.78957e-07 1.82379e-06 -7.27211e-06)
(1.88539e-06 -2.85075e-06 -7.33658e-06)
(3.07811e-06 2.55824e-06 -8.01071e-06)
(6.54253e-08 6.00801e-08 -6.56176e-06)
(3.29545e-08 -5.71902e-08 -6.89583e-06)
(2.54012e-08 -7.10848e-09 -6.14566e-06)
(1.24465e-08 1.65284e-09 -4.74115e-06)
(4.08834e-09 5.56065e-09 -3.53594e-06)
(4.40788e-10 5.13755e-09 -2.53941e-06)
(-9.07707e-10 3.93742e-09 -1.76207e-06)
(-1.56887e-09 3.14451e-09 -1.19331e-06)
(-2.00293e-09 2.64073e-09 -8.17197e-07)
(1.60166e-09 -1.15205e-09 -6.90717e-07)
(-1.05161e-09 1.0717e-09 -6.13601e-07)
(-7.34771e-08 7.53537e-08 -4.39831e-07)
(-7.09642e-08 -2.88778e-08 -4.70276e-07)
(9.1534e-09 -1.19211e-08 -6.6795e-07)
(4.41517e-08 -5.57427e-08 -5.14444e-07)
(1.73862e-09 6.94976e-08 -4.46399e-07)
(6.51136e-08 -3.50858e-08 -5.2983e-07)
(-7.81775e-08 -7.04454e-08 -5.22371e-07)
(-6.08183e-09 -9.80223e-08 -7.28242e-07)
(-1.96841e-08 -1.10001e-07 -5.46407e-07)
(1.21642e-07 -4.27834e-09 -7.13788e-07)
(9.89813e-08 8.19431e-08 -5.17518e-07)
(2.62237e-08 -6.10675e-08 -5.40433e-07)
(7.78214e-08 5.93964e-09 -7.02267e-07)
(4.90434e-08 6.72051e-08 -5.1646e-07)
(3.67826e-08 -6.67421e-08 -5.29936e-07)
(8.36284e-08 2.88727e-09 -7.09112e-07)
(4.07467e-08 6.97797e-08 -5.24633e-07)
(4.38573e-08 -7.15996e-08 -5.20349e-07)
(8.5069e-08 -2.35234e-09 -7.12165e-07)
(3.5331e-08 6.49722e-08 -5.31402e-07)
(7.01464e-08 -7.81597e-08 -5.22981e-07)
(9.67898e-08 -6.39773e-09 -7.3081e-07)
(1.09028e-07 -1.96734e-08 -5.47857e-07)
(4.57291e-09 1.20194e-07 -7.15273e-07)
(-8.1106e-08 9.85167e-08 -5.19652e-07)
(3.65754e-09 -6.78695e-08 -4.48355e-07)
(5.57246e-08 4.44999e-08 -5.15176e-07)
(-6.86929e-08 3.44802e-08 -4.64149e-07)
(-7.50475e-08 -7.36727e-08 -4.4093e-07)
(1.22306e-08 9.55515e-09 -6.68715e-07)
(2.91374e-08 -7.07922e-08 -4.70826e-07)
(1.51787e-08 5.52347e-08 -4.68262e-07)
(-5.86355e-08 5.76386e-08 -4.35945e-07)
(-6.46657e-08 -6.377e-08 -4.39325e-07)
(1.39263e-08 -8.80455e-10 -6.71196e-07)
(1.73088e-08 -5.83545e-08 -4.68957e-07)
(2.14524e-08 5.89253e-08 -4.67251e-07)
(-6.39557e-08 6.48218e-08 -4.36817e-07)
(-6.01159e-08 -5.73147e-08 -4.39357e-07)
(1.4081e-08 -1.40747e-10 -6.70657e-07)
(1.06076e-08 -5.38823e-08 -4.6919e-07)
(3.51223e-08 6.96457e-08 -4.63581e-07)
(-6.78751e-08 -3.37684e-09 -4.47633e-07)
(8.93751e-08 -1.93612e-09 -6.00655e-07)
(-2.01468e-07 2.27717e-07 -5.0536e-07)
(-2.66589e-07 -1.77119e-07 -5.93975e-07)
(2.65822e-07 2.21722e-07 -7.82628e-07)
(-3.50685e-07 -2.75572e-07 -8.84826e-07)
(-1.7648e-08 1.18944e-08 -5.14666e-07)
(-2.07091e-07 -1.44112e-07 -7.07643e-07)
(3.95402e-09 1.46329e-09 -4.68952e-07)
(1.87723e-07 7.87166e-09 -6.02421e-07)
(-4.36251e-08 -2.10955e-08 -3.91228e-07)
(2.02244e-07 6.10711e-08 -5.23156e-07)
(9.96501e-08 -1.21854e-07 -5.41666e-07)
(1.4941e-07 1.21696e-07 -5.0453e-07)
(-2.41891e-07 -2.17888e-07 -5.57836e-07)
(9.04252e-08 7.51314e-10 -6.16927e-07)
(-2.08825e-07 2.2315e-07 -5.3374e-07)
(1.58365e-07 -2.49492e-07 -7.41929e-07)
(2.05847e-07 2.59743e-07 -7.35757e-07)
(-2.89437e-07 -3.09259e-07 -8.26948e-07)
(1.95095e-08 1.60153e-09 -6.35382e-07)
(-2.46004e-07 3.05367e-07 -8.26301e-07)
(2.62297e-07 -3.74735e-07 -1.01627e-06)
(3.26163e-07 3.88812e-07 -1.01708e-06)
(-4.16882e-07 -4.68453e-07 -1.21633e-06)
(1.77758e-08 2.20627e-09 -9.21941e-07)
(-3.49506e-07 4.59314e-07 -1.21851e-06)
(4.07296e-07 -5.63054e-07 -1.49607e-06)
(4.9784e-07 5.82395e-07 -1.49691e-06)
(-6.17251e-07 -7.02061e-07 -1.80484e-06)
(2.78388e-08 2.75079e-09 -1.37183e-06)
(-5.15498e-07 6.88297e-07 -1.80754e-06)
(6.09868e-07 -8.33797e-07 -2.20018e-06)
(7.41465e-07 8.61662e-07 -2.20137e-06)
(-9.03801e-07 -1.02579e-06 -2.62458e-06)
(3.97958e-08 3.97377e-09 -2.01147e-06)
(-7.55275e-07 1.00633e-06 -2.62942e-06)
(8.74147e-07 -1.20153e-06 -3.15243e-06)
(1.06651e-06 1.24159e-06 -3.15595e-06)
(-1.29381e-06 -1.44914e-06 -3.6946e-06)
(5.38218e-08 6.22189e-09 -2.86153e-06)
(-1.08356e-06 1.42123e-06 -3.70389e-06)
(1.19545e-06 -1.67572e-06 -4.36837e-06)
(1.47367e-06 1.73132e-06 -4.37716e-06)
(-1.79995e-06 -1.96821e-06 -5.01589e-06)
(7.20591e-08 9.0332e-09 -3.92831e-06)
(-1.50523e-06 1.92502e-06 -5.03158e-06)
(1.55457e-06 -2.24693e-06 -5.82851e-06)
(1.94975e-06 2.31852e-06 -5.84663e-06)
(-2.3962e-06 -2.52658e-06 -6.56049e-06)
(9.93261e-08 1.26984e-08 -5.17444e-06)
(-1.97769e-06 2.45629e-06 -6.58696e-06)
(1.88269e-06 -2.85886e-06 -7.36507e-06)
(2.34549e-06 2.88289e-06 -7.38375e-06)
(-4.30903e-07 -1.69242e-06 -7.2016e-06)
(1.33378e-06 -1.14852e-08 -1.11742e-05)
(-3.27387e-06 -1.83347e-07 -6.93846e-06)
(-3.33888e-06 9.04094e-08 -6.91687e-06)
(6.81739e-06 -5.73432e-08 -6.31849e-06)
(-2.88451e-07 -2.71474e-09 -8.65549e-06)
(-3.08542e-07 1.61264e-08 -8.6353e-06)
(8.38096e-08 2.5392e-08 -5.76108e-06)
(5.03745e-07 1.87913e-09 -5.75668e-06)
(2.42566e-06 2.93469e-06 -7.40096e-06)
(-3.61736e-07 -1.68548e-06 -7.17895e-06)
(5.64011e-08 8.62151e-09 -6.68291e-06)
(-4.29016e-07 2.0239e-06 -7.2971e-06)
(1.2785e-06 -3.08674e-07 -1.11619e-05)
(-3.32962e-06 -1.30366e-07 -6.98309e-06)
(-3.28337e-06 1.12446e-07 -6.90972e-06)
(6.77599e-06 -1.13382e-07 -6.3337e-06)
(-2.31698e-07 1.69568e-06 -7.17211e-06)
(1.88448e-06 -2.89044e-06 -7.37264e-06)
(2.8901e-08 1.80182e-08 -6.73987e-06)
(5.28639e-08 1.28457e-08 -6.74398e-06)
(3.02656e-08 3.60972e-08 -6.13432e-06)
(1.63364e-08 1.971e-08 -4.74287e-06)
(6.39265e-09 8.21772e-09 -3.54055e-06)
(1.54833e-09 2.49802e-09 -2.5429e-06)
(-4.33285e-10 3.78088e-11 -1.76416e-06)
(-1.38615e-09 -1.20547e-09 -1.19443e-06)
(-1.82141e-09 -1.86188e-09 -8.17761e-07)
(1.5818e-09 1.59319e-09 -6.91146e-07)
(-1.00592e-09 -1.02796e-09 -6.14198e-07)
(5.76476e-08 -6.02532e-08 -4.38906e-07)
(-6.43212e-08 -6.45004e-08 -4.38235e-07)
(6.43979e-08 -6.46417e-08 -4.37926e-07)
(-5.76032e-08 -6.02683e-08 -4.38588e-07)
(2.4982e-10 1.44143e-08 -6.70598e-07)
(5.74827e-08 1.9671e-08 -4.6716e-07)
(-5.3648e-08 1.14977e-08 -4.69127e-07)
(-7.46254e-11 -7.91719e-08 -4.59729e-07)
(-6.48161e-08 3.82395e-08 -5.30081e-07)
(1.03927e-10 -8.08496e-08 -7.71721e-07)
(-5.72043e-08 1.96139e-08 -4.67245e-07)
(1.19606e-10 1.44439e-08 -6.70849e-07)
(5.38222e-08 1.16286e-08 -4.69363e-07)
(2.17446e-09 -7.98884e-08 -7.67031e-07)
(6.0394e-08 2.61997e-08 -5.39674e-07)
(-5.04671e-09 7.57664e-08 -7.0093e-07)
(-6.5599e-08 4.76734e-08 -5.1662e-07)
(1.27916e-10 -7.91729e-08 -4.60004e-07)
(6.48329e-08 3.83575e-08 -5.30186e-07)
(-1.89027e-11 8.22861e-08 -7.01066e-07)
(5.43256e-11 1.15168e-07 -3.78199e-07)
(1.18545e-07 1.24117e-07 -5.20757e-07)
(-2.17288e-07 -2.20125e-07 -5.34062e-07)
(2.17386e-07 -2.19784e-07 -5.33478e-07)
(-2.1441e-07 -2.36084e-07 -5.58139e-07)
(2.56283e-07 1.95416e-07 -7.35673e-07)
(-3.05342e-07 -2.78091e-07 -8.27296e-07)
(3.83673e-07 3.09387e-07 -1.01729e-06)
(-4.6217e-07 -3.97727e-07 -1.21666e-06)
(5.74471e-07 4.72136e-07 -1.49765e-06)
(-6.92482e-07 -5.87374e-07 -1.80504e-06)
(8.49858e-07 7.03503e-07 -2.20275e-06)
(-1.01181e-06 -8.59128e-07 -2.62486e-06)
(1.22471e-06 1.01232e-06 -3.15837e-06)
(-1.42918e-06 -1.22969e-06 -3.69478e-06)
(1.70833e-06 1.40001e-06 -4.38177e-06)
(-1.94095e-06 -1.71349e-06 -5.01464e-06)
(2.29002e-06 1.85859e-06 -5.85575e-06)
(-2.49332e-06 -2.2925e-06 -6.55363e-06)
(2.90001e-06 2.34363e-06 -7.43512e-06)
(-1.67536e-06 -4.32154e-07 -7.11477e-06)
(4.16807e-08 1.41802e-06 -1.11786e-05)
(1.69778e-06 -2.58804e-07 -7.24599e-06)
(4.91289e-08 3.91332e-08 -6.74353e-06)
(-2.82397e-06 2.02937e-06 -7.34909e-06)
(2.43009e-06 -2.10993e-06 -6.60516e-06)
(1.44397e-08 1.05577e-07 -5.17838e-06)
(-2.22018e-06 1.6849e-06 -5.82849e-06)
(1.90151e-06 -1.61943e-06 -5.03983e-06)
(8.91275e-09 7.50438e-08 -3.9313e-06)
(-1.65596e-06 1.29705e-06 -4.37193e-06)
(1.4029e-06 -1.16976e-06 -3.70714e-06)
(5.48849e-09 5.52486e-08 -2.86339e-06)
(-1.18744e-06 9.47304e-07 -3.15564e-06)
(9.93015e-07 -8.16205e-07 -2.6306e-06)
(3.28152e-09 4.04329e-08 -2.01251e-06)
(-8.24031e-07 6.60185e-07 -2.20247e-06)
(6.79115e-07 -5.56712e-07 -1.80784e-06)
(2.09589e-09 2.80711e-08 -1.37238e-06)
(-5.56501e-07 4.41103e-07 -1.49792e-06)
(4.53243e-07 -3.76232e-07 -1.2182e-06)
(1.61424e-09 1.78371e-08 -9.22216e-07)
(-3.70485e-07 2.84362e-07 -1.01798e-06)
(3.01158e-07 -2.62825e-07 -8.25621e-07)
(1.23761e-09 1.94008e-08 -6.35372e-07)
(-2.46298e-07 1.71514e-07 -7.43061e-07)
(3.3e-10 -1.6417e-08 -5.70229e-07)
(2.46807e-07 1.7148e-07 -7.42549e-07)
(-3.00438e-07 -2.62882e-07 -8.26242e-07)
(-1.00322e-09 1.94174e-08 -6.35503e-07)
(-2.55405e-07 1.96291e-07 -7.36319e-07)
(2.14527e-07 -2.34958e-07 -5.58295e-07)
(-4.49975e-10 9.04639e-08 -6.17264e-07)
(-1.19392e-07 1.44386e-07 -5.03922e-07)
(-7.74676e-09 1.05339e-07 -3.82538e-07)
(1.21239e-07 1.00541e-07 -5.4358e-07)
(-2.25085e-07 -2.0667e-07 -5.06601e-07)
(2.46098e-07 1.55413e-07 -7.44356e-07)
(-3.00961e-07 -2.50724e-07 -8.26659e-07)
(3.65262e-07 2.72131e-07 -1.01594e-06)
(-4.46838e-07 -3.57447e-07 -1.22081e-06)
(5.49484e-07 4.26519e-07 -1.49885e-06)
(-6.65458e-07 -5.29596e-07 -1.80958e-06)
(8.15552e-07 6.40238e-07 -2.20895e-06)
(-9.7009e-07 -7.78541e-07 -2.63132e-06)
(1.18001e-06 9.21418e-07 -3.17107e-06)
(-1.36775e-06 -1.12298e-06 -3.70466e-06)
(1.65762e-06 1.27284e-06 -4.4103e-06)
(-1.84819e-06 -1.56872e-06 -5.0146e-06)
(2.24332e-06 1.68334e-06 -5.91915e-06)
(-2.34014e-06 -2.03616e-06 -6.50105e-06)
(2.85317e-06 2.06001e-06 -7.47707e-06)
(-1.65545e-06 -2.45402e-07 -7.16224e-06)
(-4.03164e-07 1.05812e-06 -1.1052e-05)
(6.97825e-07 -8.66045e-07 -7.61067e-06)
(7.84968e-08 8.29924e-08 -6.53623e-06)
(-2.65632e-06 2.84646e-06 -8.01872e-06)
(2.12821e-06 -2.97277e-06 -7.14493e-06)
(1.83255e-08 1.37302e-07 -5.03255e-06)
(-2.02822e-06 2.43422e-06 -6.32703e-06)
(1.71394e-06 -2.20999e-06 -5.41612e-06)
(-6.46219e-09 8.86137e-08 -3.81641e-06)
(-1.46612e-06 1.84649e-06 -4.72022e-06)
(1.25427e-06 -1.55984e-06 -3.96322e-06)
(-1.06012e-08 5.93644e-08 -2.77337e-06)
(-1.04317e-06 1.32975e-06 -3.39463e-06)
(8.81444e-07 -1.0816e-06 -2.80528e-06)
(-9.16258e-09 4.1759e-08 -1.94701e-06)
(-7.24357e-07 9.26671e-07 -2.3663e-06)
(6.03391e-07 -7.36482e-07 -1.92635e-06)
(-8.53498e-09 2.83895e-08 -1.32707e-06)
(-4.89669e-07 6.27652e-07 -1.60605e-06)
(4.06856e-07 -4.95487e-07 -1.29712e-06)
(-8.43499e-09 1.8525e-08 -8.91719e-07)
(-3.26172e-07 4.16617e-07 -1.08797e-06)
(2.75622e-07 -3.44091e-07 -8.85034e-07)
(-9.78228e-09 2.07794e-08 -6.13963e-07)
(-2.17007e-07 2.63306e-07 -7.82537e-07)
(1.76017e-07 -2.63132e-07 -5.94337e-07)
(2.32701e-09 8.95863e-08 -6.01259e-07)
(-5.99599e-08 2.01926e-07 -5.23724e-07)
(1.00302e-07 1.77267e-07 -5.42716e-07)
(1.65925e-07 -8.86881e-08 -4.83258e-07)
(-2.93307e-09 1.88586e-07 -6.03957e-07)
(1.84491e-08 -4.34216e-08 -3.90538e-07)
(-3.06045e-08 2.82811e-08 -4.4637e-07)
(9.1035e-08 2.16806e-07 -5.32853e-07)
(-2.8145e-07 -1.89385e-07 -4.94801e-07)
(2.424e-07 1.98698e-07 -7.58353e-07)
(-3.51251e-07 -2.19671e-07 -8.57161e-07)
(-2.3663e-07 3.52797e-07 -8.28551e-07)
(-2.94472e-07 -3.1166e-07 -8.26029e-07)
(2.06789e-08 -2.82387e-09 -6.32119e-07)
(1.67978e-07 -2.98759e-07 -7.34892e-07)
(1.86933e-07 2.55635e-07 -7.4751e-07)
(-2.36545e-07 -2.31036e-07 -5.14783e-07)
(8.69644e-08 5.84152e-09 -6.17958e-07)
(-2.10219e-07 2.41237e-07 -5.69439e-07)
(-1.86912e-08 1.00746e-08 -5.72094e-07)
(8.26478e-09 2.21313e-09 -5.59064e-07)
(-8.01914e-08 -6.45199e-08 -7.40834e-07)
(6.53188e-09 6.05142e-09 -5.77279e-07)
(-3.34742e-09 -5.10469e-09 -5.48258e-07)
(-8.31982e-08 3.42672e-09 -7.64982e-07)
(2.67213e-09 -1.62349e-09 -6.08094e-07)
(-1.789e-08 -7.00008e-10 -5.71078e-07)
(-2.15367e-07 2.22215e-07 -5.52427e-07)
(-2.33644e-07 -2.2255e-07 -5.37204e-07)
(1.91909e-07 2.52777e-07 -7.4321e-07)
(-2.86029e-07 -3.05626e-07 -8.25914e-07)
(-7.99224e-09 4.21821e-10 -7.6247e-07)
(3.15561e-07 3.79589e-07 -1.01868e-06)
(-4.137e-07 -4.6022e-07 -1.21836e-06)
(4.89135e-07 5.70804e-07 -1.49861e-06)
(-6.13693e-07 -6.8927e-07 -1.80781e-06)
(-2.74605e-08 1.96754e-09 -1.64293e-06)
(7.33191e-07 8.4648e-07 -2.20429e-06)
(-9.00016e-07 -1.00657e-06 -2.62884e-06)
(1.05624e-06 1.22205e-06 -3.16073e-06)
(-1.28972e-06 -1.41968e-06 -3.70001e-06)
(3.26711e-11 4.11704e-09 -3.30917e-06)
(1.45737e-06 1.70637e-06 -4.38399e-06)
(-1.78747e-06 -1.92124e-06 -5.01999e-06)
(1.91574e-06 2.28334e-06 -5.85097e-06)
(-2.34552e-06 -2.45574e-06 -6.56626e-06)
(4.85695e-07 -4.12373e-09 -5.75856e-06)
(8.2694e-08 4.38784e-09 -5.76262e-06)
(2.23487e-08 7.00192e-09 -4.45909e-06)
(2.71701e-08 1.99719e-08 -4.46375e-06)
(-1.27554e-08 1.0237e-08 -3.3281e-06)
(3.59457e-09 1.03471e-08 -3.31906e-06)
(1.51111e-06 1.72425e-06 -4.40637e-06)
(-1.8349e-06 -1.92053e-06 -5.02532e-06)
(8.39479e-08 8.87397e-09 -3.93221e-06)
(-1.48855e-06 2.28153e-06 -5.07819e-06)
(1.44323e-06 -2.6056e-06 -5.81664e-06)
(1.99939e-06 2.32856e-06 -5.89576e-06)
(-2.35457e-06 -2.43263e-06 -6.53534e-06)
(1.29778e-07 2.29319e-08 -5.17297e-06)
(-2.07035e-06 2.96878e-06 -6.68355e-06)
(1.66548e-06 -3.20124e-06 -7.28413e-06)
(3.34371e-06 2.05597e-06 -8.21428e-06)
(-2.88802e-07 -1.54899e-06 -6.9786e-06)
(1.5789e-07 -2.8439e-06 -1.12034e-05)
(-3.5892e-06 -2.17876e-07 -7.14317e-06)
(-3.3345e-06 -3.40868e-09 -6.77797e-06)
(6.47525e-06 -1.02117e-06 -6.53888e-06)
(-4.37076e-07 -2.74362e-07 -8.44119e-06)
(6.73339e-08 4.4102e-08 -5.46445e-06)
(1.21409e-07 1.51055e-06 -4.95963e-06)
(-1.57446e-06 1.86187e-06 -6.86768e-06)
(3.12112e-07 1.22475e-07 -4.26889e-06)
(9.36701e-07 -2.52577e-06 -5.82179e-06)
(-9.73377e-07 1.70329e-06 -5.12464e-06)
(6.48825e-08 -2.78198e-09 -3.18272e-06)
(7.49969e-07 -1.56862e-06 -4.38434e-06)
(-6.69071e-07 1.25814e-06 -3.70593e-06)
(2.61839e-09 -2.05077e-08 -2.30062e-06)
(5.20309e-07 -1.05402e-06 -3.17293e-06)
(-4.83759e-07 8.97752e-07 -2.61918e-06)
(-5.95791e-09 -1.43925e-08 -1.61449e-06)
(3.3948e-07 -7.04501e-07 -2.20357e-06)
(-3.26075e-07 6.13679e-07 -1.78246e-06)
(-1.16581e-08 -1.47232e-08 -1.09946e-06)
(2.39367e-07 -4.75554e-07 -1.49715e-06)
(-2.1338e-07 4.27507e-07 -1.19605e-06)
(-1.54269e-08 -1.36953e-08 -7.39229e-07)
(1.70832e-07 -3.04686e-07 -1.00426e-06)
(-1.18778e-07 2.99047e-07 -8.13536e-07)
(-1.70881e-08 -2.09381e-08 -5.1328e-07)
(1.50279e-07 -1.95678e-07 -7.09029e-07)
(5.30949e-08 5.12743e-08 -5.06012e-07)
(3.76981e-08 8.31397e-08 -4.8643e-07)
(-7.25113e-09 -1.24576e-07 -6.51517e-07)
(-3.6158e-09 -5.8066e-09 -6.07139e-07)
(7.53145e-08 2.19876e-07 -7.31293e-07)
(-3.17483e-08 -2.40523e-07 -9.21163e-07)
(3.92434e-07 2.73538e-07 -1.03183e-06)
(-5.04323e-07 -3.26051e-07 -1.25705e-06)
(6.0746e-07 4.03839e-07 -1.53072e-06)
(-7.48371e-07 -4.86875e-07 -1.86101e-06)
(-4.83687e-07 7.9012e-07 -1.80564e-06)
(-6.30528e-07 -6.93557e-07 -1.81199e-06)
(2.83166e-08 -3.03743e-09 -1.36917e-06)
(3.99209e-07 -6.55138e-07 -1.5015e-06)
(5.02452e-07 5.71007e-07 -1.50059e-06)
(-4.24629e-07 -4.64747e-07 -1.2216e-06)
(1.82516e-08 -3.46915e-09 -9.19788e-07)
(-3.27134e-07 5.27702e-07 -1.21504e-06)
(-1.27769e-08 2.14064e-09 -1.11264e-06)
(-6.47808e-09 -7.94236e-09 -1.06217e-06)
(-1.45583e-09 -4.54957e-09 -7.24913e-07)
(-6.47253e-09 -1.83514e-08 -6.36442e-07)
(-9.5238e-09 -3.33626e-08 -7.57761e-07)
(1.78358e-08 8.70916e-09 -7.16415e-07)
(1.24977e-08 1.80979e-08 -6.85174e-07)
(5.53528e-09 4.96442e-09 -8.08678e-07)
(-5.94936e-08 1.18481e-08 -8.16097e-07)
(-1.75365e-08 1.62897e-08 -6.05448e-07)
(9.78295e-08 8.98831e-09 -5.39205e-07)
(1.44072e-07 -1.19253e-08 -3.97413e-07)
(1.22089e-07 1.91406e-07 -6.60482e-07)
(4.26183e-08 6.10396e-08 -3.70508e-07)
(2.00595e-07 1.16474e-08 -5.24483e-07)
(7.42931e-08 4.76519e-08 -5.96337e-07)
(5.94785e-08 1.2503e-09 -6.73553e-07)
(4.46036e-08 -1.39495e-08 -9.59254e-07)
(-3.23519e-08 -9.52161e-09 -1.18885e-06)
(-8.8932e-08 1.2104e-08 -1.18304e-06)
(-1.26246e-07 1.69602e-08 -1.74231e-06)
(-6.16858e-08 -1.62712e-08 -1.76564e-06)
(4.7427e-08 -2.71075e-08 -1.42114e-06)
(-6.52638e-08 -3.74448e-07 -1.36956e-06)
(7.40813e-09 -1.51983e-08 -1.31972e-06)
(1.16018e-07 4.38119e-07 -1.63235e-06)
(-1.03782e-07 -5.60037e-07 -2.00926e-06)
(9.087e-07 5.95185e-07 -2.26652e-06)
(-1.09695e-06 -7.10868e-07 -2.70421e-06)
(1.31449e-06 8.63504e-07 -3.2608e-06)
(-1.58219e-06 -1.00537e-06 -3.80863e-06)
(-1.03535e-06 1.65173e-06 -3.71737e-06)
(-1.3284e-06 -1.42424e-06 -3.70932e-06)
(5.77143e-08 9.03461e-10 -2.86124e-06)
(8.3895e-07 -1.39125e-06 -3.16624e-06)
(1.09055e-06 1.22758e-06 -3.17096e-06)
(-9.25994e-07 -1.0113e-06 -2.63501e-06)
(4.11997e-08 -1.99768e-09 -2.00924e-06)
(-7.1274e-07 1.15862e-06 -2.63195e-06)
(-1.88005e-08 7.46255e-09 -2.37863e-06)
(-6.72526e-09 -9.57991e-09 -2.26402e-06)
(-8.65721e-09 -9.77567e-09 -1.56878e-06)
(-1.21981e-08 5.22185e-09 -1.38535e-06)
(-3.0299e-08 -9.52643e-08 -1.63315e-06)
(-1.61225e-10 -4.48068e-08 -1.599e-06)
(-7.43402e-09 -3.17141e-08 -1.52755e-06)
(-2.07711e-08 -6.33089e-08 -1.10487e-06)
(2.29169e-09 -2.16327e-08 -1.05218e-06)
(-3.60443e-10 -1.56611e-08 -1.00755e-06)
(8.93695e-08 3.00673e-07 -1.09202e-06)
(4.34801e-09 -9.21965e-09 -8.84994e-07)
(-9.73982e-09 -8.7995e-09 -9.35259e-07)
(-1.61944e-09 3.10697e-08 -9.82612e-07)
(2.57281e-09 -6.27097e-08 -8.23203e-07)
(1.304e-09 -1.96173e-08 -6.0956e-07)
(-5.65865e-09 1.07993e-07 -5.38495e-07)
(1.24849e-08 2.0269e-07 -5.21934e-07)
(-1.43566e-07 3.6824e-07 -4.94002e-07)
(-6.1485e-09 2.61372e-08 -5.54093e-07)
(-2.14058e-09 -3.54045e-09 -4.67626e-07)
(-7.34842e-10 1.54895e-08 -6.85373e-07)
(-1.90981e-09 3.33932e-09 -6.80832e-07)
(3.06295e-07 -2.76621e-07 -8.27252e-07)
(1.24255e-09 -9.47222e-09 -7.60258e-07)
(-3.82423e-07 3.11379e-07 -1.01779e-06)
(3.71678e-07 2.84063e-07 -1.01763e-06)
(-4.5155e-07 -3.75761e-07 -1.21861e-06)
(-7.30147e-10 1.78965e-08 -9.2258e-07)
(4.64595e-07 -3.9682e-07 -1.2172e-06)
(2.46507e-09 -1.66573e-08 -1.11085e-06)
(-5.72495e-07 4.74593e-07 -1.49806e-06)
(5.59211e-07 4.41047e-07 -1.49835e-06)
(-6.75754e-07 -5.5546e-07 -1.80752e-06)
(2.21991e-10 2.82386e-08 -1.37324e-06)
(6.97339e-07 -5.8846e-07 -1.80749e-06)
(3.96598e-09 -2.49488e-08 -1.64016e-06)
(-8.46479e-07 7.04918e-07 -2.2031e-06)
(8.29576e-07 6.6152e-07 -2.20511e-06)
(-9.86762e-07 -8.14235e-07 -2.6283e-06)
(1.76684e-09 4.07958e-08 -2.01434e-06)
(1.02091e-06 -8.64478e-07 -2.63113e-06)
(6.25771e-09 -2.25726e-08 -2.36789e-06)
(-1.21941e-06 1.00941e-06 -3.15808e-06)
(1.19783e-06 9.52704e-07 -3.16311e-06)
(-1.39195e-06 -1.16824e-06 -3.69938e-06)
(4.54958e-09 5.60924e-08 -2.86674e-06)
(1.44525e-06 -1.24408e-06 -3.70868e-06)
(8.61865e-09 1.64013e-08 -3.30704e-06)
(-1.70052e-06 1.38055e-06 -4.37607e-06)
(1.67327e-06 1.31472e-06 -4.39059e-06)
(-1.88383e-06 -1.62528e-06 -5.01669e-06)
(9.76543e-09 7.68059e-08 -3.936e-06)
(1.96362e-06 -1.73889e-06 -5.04389e-06)
(4.67805e-09 1.59911e-07 -4.45245e-06)
(-2.27643e-06 1.78368e-06 -5.82766e-06)
(2.24169e-06 1.73625e-06 -5.86785e-06)
(-2.40823e-06 -2.1494e-06 -6.55203e-06)
(1.57774e-08 1.08408e-07 -5.17936e-06)
(2.50294e-06 -2.29497e-06 -6.60632e-06)
(-1.94607e-08 5.79684e-07 -5.74265e-06)
(-2.87335e-06 2.1496e-06 -7.34886e-06)
(2.83311e-06 2.14935e-06 -7.41774e-06)
(-1.6833e-06 -3.2497e-07 -7.19356e-06)
(-3.6427e-09 4.05951e-08 -6.7317e-06)
(1.66948e-06 -3.92123e-07 -7.19685e-06)
(-1.1582e-07 6.78078e-06 -6.36836e-06)
(-2.70611e-07 -3.28923e-06 -6.95542e-06)
(-2.209e-07 -3.39384e-06 -6.70491e-06)
(-3.23094e-07 5.05921e-06 -6.08403e-06)
(-3.30088e-06 1.33303e-06 -8.36517e-06)
(7.05851e-07 4.79723e-07 -5.55305e-06)
(4.84157e-07 -4.03568e-06 -7.20611e-06)
(-2.5772e-07 -9.32956e-07 -5.50619e-06)
(-5.19199e-07 -5.64472e-07 -5.26976e-06)
(-1.80929e-07 1.7709e-06 -6.44399e-06)
(-2.76251e-06 -1.85693e-06 -6.4585e-06)
(6.25336e-07 -3.53414e-08 -5.78321e-06)
(-1.06729e-06 7.68777e-08 -6.18224e-06)
(-1.4735e-06 -3.32242e-07 -6.23351e-06)
(-3.11731e-07 -3.77815e-07 -5.53675e-06)
(-4.44998e-07 -7.48814e-08 -4.88037e-06)
(-5.70772e-07 1.01815e-07 -4.78273e-06)
(-3.08425e-07 5.64892e-08 -3.52694e-06)
(-1.63824e-07 -2.11479e-08 -3.59975e-06)
(7.80183e-08 -6.3968e-08 -2.97907e-06)
(-9.31707e-08 -2.06599e-08 -2.56015e-06)
(-1.87373e-07 2.89526e-08 -2.51651e-06)
(-1.75607e-07 8.09575e-09 -2.49798e-06)
(-1.18148e-07 4.22881e-09 -1.734e-06)
(-8.76667e-08 1.83437e-09 -1.18144e-06)
(-6.50717e-08 -5.54421e-10 -8.17056e-07)
(-1.81606e-08 -2.62614e-09 -6.0407e-07)
(1.16034e-07 -9.89063e-09 -5.34083e-07)
(1.24964e-07 -4.91205e-09 -3.84557e-07)
(1.24848e-07 1.25569e-07 -5.38119e-07)
(1.43663e-07 -1.2558e-07 -4.75856e-07)
(1.87386e-07 1.24447e-09 -5.24718e-07)
(1.7876e-07 8.89353e-10 -5.28181e-07)
(1.32709e-07 -1.27802e-07 -5.08179e-07)
(1.33649e-07 1.25899e-07 -5.24991e-07)
(9.03083e-08 -2.96363e-10 -6.18739e-07)
(-7.95969e-08 5.00543e-10 -4.58972e-07)
(2.52361e-08 -5.10232e-10 -5.6388e-07)
(-9.13618e-09 -9.45406e-09 -5.4452e-07)
(-6.36031e-09 -5.99898e-09 -5.4831e-07)
(2.292e-08 2.28367e-08 -5.6869e-07)
(-6.93606e-08 1.74675e-09 -4.47322e-07)
(-1.49402e-10 2.62539e-08 -5.62037e-07)
(-6.56024e-11 -9.22865e-09 -5.49661e-07)
(-1.65268e-10 -1.13768e-08 -5.4929e-07)
(1.1989e-10 -2.53755e-10 -6.19044e-07)
(-4.41532e-08 4.3e-08 -4.30331e-07)
(-5.07169e-08 -5.0474e-08 -4.33892e-07)
(-5.0406e-08 5.10191e-08 -4.33194e-07)
(-4.45526e-08 -4.24824e-08 -4.31333e-07)
(4.44539e-08 -4.31428e-08 -4.30059e-07)
(-3.675e-08 -3.6295e-08 -4.27509e-07)
(1.62341e-09 1.61929e-09 -6.76593e-07)
(5.09177e-08 5.07041e-08 -4.32556e-07)
(-4.29033e-08 4.50221e-08 -4.30972e-07)
(-4.29506e-08 -4.46306e-08 -4.31082e-07)
(1.6444e-09 -1.24583e-09 -6.76834e-07)
(5.06108e-08 -5.07546e-08 -4.33217e-07)
(9.91301e-11 1.16058e-10 -6.23647e-07)
(2.20057e-10 2.53282e-10 -6.97929e-07)
(2.45274e-10 2.22967e-09 -6.94261e-07)
(2.22004e-10 2.86753e-09 -6.08662e-07)
(-1.87087e-09 2.16628e-09 -6.06709e-07)
(1.56363e-09 -2.12471e-08 -5.67612e-07)
(-7.43907e-10 -8.25654e-09 -7.63946e-07)
(-3.19708e-10 -1.50675e-08 -1.11912e-06)
(8.00866e-10 -2.04847e-08 -1.65263e-06)
(3.03325e-09 -2.15134e-08 -2.38284e-06)
(7.42661e-09 -8.84162e-09 -3.32051e-06)
(6.39794e-09 -3.49615e-09 -3.15866e-06)
(-5.53749e-09 1.08216e-07 -2.80955e-06)
(-4.57769e-08 -2.36866e-07 -3.3039e-06)
(2.81752e-08 -9.92666e-08 -3.23804e-06)
(-2.98873e-08 -1.77043e-08 -3.0929e-06)
(2.06664e-07 9.62673e-07 -3.3908e-06)
(-2.89995e-07 -1.08724e-06 -4.00682e-06)
(1.85915e-06 1.21891e-06 -4.56957e-06)
(-2.2103e-06 -1.39554e-06 -5.12252e-06)
(2.57679e-06 1.65204e-06 -6.26592e-06)
(-2.73488e-08 -6.97705e-08 -5.16605e-06)
(-7.36156e-07 -1.53477e-06 -5.2607e-06)
(-1.37308e-07 -5.05718e-08 -4.13378e-06)
(2.04505e-07 1.40579e-06 -4.70529e-06)
(3.7392e-09 -3.42344e-08 -3.84608e-06)
(5.2395e-08 -1.32148e-07 -4.13314e-06)
(8.79785e-08 2.2056e-08 -4.19931e-06)
(-2.90054e-07 1.57281e-08 -3.48993e-06)
(-5.18802e-07 3.02206e-08 -4.70981e-06)
(-9.99688e-07 3.53032e-08 -6.13292e-06)
(-2.31194e-06 -3.10458e-08 -7.82172e-06)
(-2.37882e-06 -3.80175e-07 -7.79209e-06)
(-5.46963e-06 1.30617e-06 -7.81908e-06)
(-2.25358e-06 -6.21707e-07 -6.69761e-06)
(-1.92711e-06 -2.21455e-06 -6.18858e-06)
(-3.70798e-08 -3.37169e-07 -6.51082e-06)
(-7.46508e-07 -4.01634e-07 -7.19828e-06)
(6.82059e-07 -5.12335e-06 -6.0729e-06)
(-4.77255e-06 -1.4469e-06 -6.92069e-06)
(-2.90525e-06 1.87703e-07 -9.96401e-06)
(-1.40664e-06 -2.15516e-06 -8.99387e-06)
(2.09313e-06 1.55996e-06 -8.8042e-06)
(1.67353e-07 7.74016e-08 -9.0997e-06)
(9.09929e-08 7.1055e-08 -5.80759e-06)
(-2.14563e-06 1.88532e-06 -7.38701e-06)
(2.26012e-06 1.57807e-06 -7.75012e-06)
(1.48823e-08 2.03841e-07 -9.30396e-06)
(-2.79288e-07 -1.81835e-07 -5.97532e-06)
(-2.34251e-06 2.07507e-06 -7.64276e-06)
(2.26811e-06 1.86677e-06 -7.78288e-06)
(4.5722e-09 2.16387e-07 -9.34834e-06)
(-3.08702e-07 -2.16962e-07 -6.00101e-06)
(-2.28696e-06 1.88783e-06 -7.54766e-06)
(2.26158e-06 2.12453e-06 -7.88216e-06)
(1.85951e-08 2.0201e-07 -9.32957e-06)
(-4.96458e-07 -4.87037e-07 -6.14461e-06)
(-2.18297e-06 1.57385e-06 -7.48469e-06)
(1.61428e-06 2.15375e-06 -8.40085e-06)
(-1.37728e-06 -7.67252e-07 -1.16441e-05)
(1.19141e-06 1.23362e-06 -9.23978e-06)
(9.08433e-07 -1.07176e-06 -9.03698e-06)
(2.5823e-06 1.14595e-06 -1.14539e-05)
(-1.21427e-06 -4.49599e-06 -1.12275e-05)
(-6.77354e-07 -2.42981e-06 -8.92679e-06)
(3.80461e-07 3.93623e-07 -6.5388e-06)
(1.472e-06 -1.11178e-06 -9.19841e-06)
(-4.50724e-06 2.15276e-06 -8.14207e-06)
(-2.22203e-07 -1.35184e-07 -7.2473e-06)
(-2.61958e-06 -3.493e-06 -7.68357e-06)
(2.51564e-06 1.99586e-06 -8.17603e-06)
(2.41046e-06 -3.78085e-08 -6.43529e-06)
(2.22092e-06 -2.35688e-06 -8.48326e-06)
(2.80571e-06 -2.34449e-06 -9.71591e-06)
(1.25221e-06 -3.3704e-06 -6.57764e-06)
(2.07152e-07 1.16286e-06 -7.88901e-06)
(1.02384e-06 -1.77206e-06 -6.38375e-06)
(1.4988e-06 -1.18471e-06 -6.6229e-06)
(2.36748e-06 1.85188e-06 -8.49592e-06)
(-8.41806e-07 -3.30303e-06 -7.27629e-06)
(2.09423e-07 -4.81405e-07 -5.48632e-06)
(1.41472e-06 2.11098e-06 -6.71696e-06)
(-9.30895e-07 -2.19329e-06 -5.77309e-06)
(1.33315e-08 -1.62524e-07 -4.30127e-06)
(9.47083e-07 1.70224e-06 -5.04663e-06)
(-7.15035e-07 -1.4875e-06 -4.35221e-06)
(-7.99132e-10 -8.47879e-08 -3.1875e-06)
(6.75518e-07 1.25356e-06 -3.68308e-06)
(-4.98567e-07 -1.02894e-06 -3.14998e-06)
(2.10775e-09 -6.38279e-08 -2.2835e-06)
(4.78263e-07 8.84111e-07 -2.60424e-06)
(-3.4063e-07 -7.08306e-07 -2.20125e-06)
(2.1574e-09 -4.79536e-08 -1.57951e-06)
(3.29365e-07 6.07317e-07 -1.78775e-06)
(-2.31297e-07 -4.78652e-07 -1.49482e-06)
(-1.28683e-10 -2.96896e-08 -1.06876e-06)
(2.16454e-07 4.11701e-07 -1.20181e-06)
(-1.66361e-07 -3.21234e-07 -1.0085e-06)
(-9.87617e-09 -4.79869e-09 -7.12264e-07)
(1.28404e-07 2.90965e-07 -8.22022e-07)