/*--------------------------------*- C++ -*----------------------------------*\
| =========                 |                                                 |
| \\      /  F ield         | OpenFOAM: The Open Source CFD Toolbox           |
|  \\    /   O peration     | Version:  2306                                  |
|   \\  /    A nd           | Website:  www.openfoam.com                      |
|    \\/     M anipulation  |                                                 |
\*---------------------------------------------------------------------------*/
FoamFile
{
    version     2.0;
    format      ascii;
    arch        "LSB;label=32;scalar=64";
    class       volScalarField;
    location    "2.2";
    object      gradTz;
}
// * * * * * * * * * * * * * * * * * * * * * * * * * * * * * * * * * * * * * //

dimensions      [0 -1 0 1 0 0 0];

internalField   nonuniform List<scalar> 
5322
(
-0.872056
-0.890328
-0.919265
-0.996515
-0.988818
-0.98607
-0.985316
-0.986209
-0.989128
-0.997281
-0.985938
-0.988749
-0.744114
-1.02588
-1.12177
-0.895459
-1.0585
-0.792433
-1.1157
-1.12586
-1.13293
-1.12781
-1.12829
-1.1342
-1.13405
-1.12775
-1.12805
-1.13325
-1.13356
-1.12789
-1.12756
-1.12964
-1.12176
-1.10381
-1.0494
-0.861489
-0.979843
-0.998638
-1.03084
-0.725914
-0.958633
-0.989323
-0.712901
-0.990787
-0.981101
-0.724741
-1.00451
-0.948193
-0.715083
-0.982116
-1.09991
-0.789334
-1.07416
-1.00925
-0.946336
-0.95955
-1.13819
-0.944682
-0.956245
-0.960571
-1.15207
-0.957413
-0.956638
-0.936882
-1.15126
-0.989594
-0.952074
-0.889794
-1.12391
-1.05057
-0.788596
-1.22899
-1.17049
-1.15384
-1.1661
-1.16043
-1.15983
-1.15574
-1.1708
-1.10855
-1.0545
-0.81053
-0.840147
-1.13573
-0.774605
-1.02982
-1.38969
-0.84883
-0.87022
-0.782055
-0.989
-0.884589
-0.933327
-0.925937
-1.12405
-0.973316
-0.969984
-0.987289
-1.41434
-0.826126
-0.833051
-0.794835
-0.994766
-1.11082
-1.20839
-0.941345
-0.998682
-1.00107
-0.997902
-0.999385
-0.999844
-0.999597
-0.998544
-1.00205
-1.15383
-1.14265
-0.799625
-0.866493
-1.15413
-0.95499
-0.846498
-1.02959
-1.01516
-1.43019
-1.06537
-1.40042
-1.0055
-1.04994
-1.37639
-1.00126
-1.0276
-1.38882
-1.01677
-1.00846
-1.39517
-1.03115
-1.01471
-1.43245
-1.06615
-1.40052
-1.00801
-0.849381
-0.955083
-0.854365
-0.80111
-1.15426
-0.866532
-0.86044
-0.790473
-0.795682
-1.15198
-0.861616
-0.858287
-0.790922
-0.797591
-1.15168
-0.863345
-0.853961
-0.849086
-1.1216
-0.894142
-1.05988
-1.23247
-1.20462
-0.764231
-1.11592
-0.792506
-1.07347
-0.735009
-0.994017
-1.02712
-0.954109
-0.987989
-1.14675
-0.943251
-1.16164
-1.15352
-1.11402
-0.931055
-1.11209
-1.13825
-1.1406
-1.13018
-0.945588
-1.13148
-1.13497
-1.13642
-1.13258
-0.948932
-1.13362
-1.13491
-1.1359
-1.13254
-0.950271
-1.13399
-1.13542
-1.13693
-1.13114
-0.951296
-1.13344
-1.13647
-1.13903
-1.12872
-0.951888
-1.132
-1.13595
-1.13982
-1.12697
-0.948777
-1.13164
-1.11582
-1.1195
-0.98507
-1.41513
-0.826441
-0.823513
-0.797577
-1.12344
-1.12036
-0.933403
-0.926186
-1.12058
-0.981047
-0.958093
-0.993528
-1.41011
-0.83085
-0.823361
-0.799043
-0.981484
-1.11717
-0.969618
-0.98099
-0.999334
-0.997724
-0.999816
-1.00024
-0.999839
-0.998643
-1.00202
-1.15378
-1.14293
-0.7961
-0.793635
-0.793019
-0.796051
-1.15154
-0.858223
-0.863044
-0.868328
-1.02734
-1.44318
-0.858464
-1.15158
-0.862779
-1.43509
-1.04681
-1.37177
-1.00055
-0.868537
-1.02724
-1.37208
-0.732526
-0.984103
-0.943832
-0.942738
-0.98829
-1.15268
-1.11421
-1.13991
-1.13021
-1.13609
-1.13246
-1.13581
-1.13246
-1.13708
-1.13105
-1.13959
-1.12837
-1.1411
-1.1258
-1.12652
-0.972426
-1.41451
-0.991075
-0.969627
-1.11322
-1.13434
-0.949264
-1.13558
-1.13339
-0.952323
-1.13695
-1.13399
-0.951605
-1.13611
-1.13408
-0.950446
-1.13562
-1.13341
-0.949
-1.13594
-1.13083
-0.945571
-1.13982
-1.11089
-0.930798
-1.16322
-0.954181
-1.16192
-1.11214
-0.930805
-1.15385
-0.988047
-1.14649
-0.952035
-0.741454
-1.02933
-0.895642
-1.16693
-1.11648
-1.13773
-1.13681
-1.13542
-1.13668
-1.13663
-1.13558
-1.13855
-1.13359
-1.14292
-1.12707
-1.1485
-1.1152
-1.12934
-0.977733
-1.39388
-1.03217
-0.934248
-1.19864
-1.21784
-0.918555
-1.22026
-1.21556
-0.922057
-1.21958
-1.21424
-0.920372
-1.21645
-1.2137
-0.918974
-1.21582
-1.21456
-0.918169
-1.21648
-1.21446
-0.916291
-1.22144
-1.20503
-0.90355
-1.23228
-1.05967
-1.12121
-0.993659
-1.04978
-0.915898
-1.07697
-0.732921
-0.836508
-0.9515
-0.873472
-1.19415
-1.16294
-1.12035
-1.11279
-0.928512
-1.15413
-1.17089
-0.909139
-1.15137
-1.01129
-0.961798
-0.945412
-1.39348
-1.12441
-1.06603
-1.43071
-1.02561
-0.956124
-0.976477
-0.949008
-1.16315
-1.11087
-0.940717
-1.14063
-1.13081
-1.13654
-1.13345
-0.935144
-1.13655
-1.13349
-1.13783
-1.132
-0.93254
-1.14002
-1.12908
-1.14022
-1.12772
-0.927189
-0.934406
-0.935846
-0.935935
-0.937742
-0.934261
-1.14368
-1.12917
-0.950485
-1.13889
-1.1275
-1.14631
-1.12176
-0.94557
-1.14306
-1.09745
-1.22189
-0.938047
-1.38231
-0.839952
-0.803705
-0.817343
-1.08149
-0.878219
-0.781749
-1.14244
-0.765239
-1.1001
-1.14098
-0.764363
-1.12374
-1.13469
-0.76268
-1.13275
-1.13521
-0.762349
-1.12951
-1.12821
-0.762925
-1.134
-1.12817
-0.764331
-1.13166
-1.1199
-0.763768
-1.12163
-0.859524
-0.828711
-1.0324
-0.901358
-1.00452
-1.04167
-1.16146
-1.17354
-1.16289
-1.16967
-1.13428
-1.13659
-0.947012
-1.13848
-1.13778
-1.13523
-0.944294
-1.13183
-0.93864
-0.88809
-0.891221
-0.792345
-0.923857
-0.896794
-0.860309
-1.00293
-0.995635
-0.985382
-0.994525
-0.772302
-1.25846
-0.696994
-0.935639
-0.993378
-0.970786
-0.974775
-1.00288
-0.98777
-0.984644
-1.00425
-0.974619
-1.04066
-0.914777
-1.02972
-1.03313
-1.16746
-1.16617
-1.1704
-1.16272
-1.13627
-1.13416
-0.94965
-1.13709
-1.14004
-1.136
-0.948315
-1.13542
-0.936108
-0.887818
-0.887714
-0.7886
-0.920636
-0.910592
-0.87177
-0.920605
-0.890284
-0.8548
-1.02705
-0.913912
-0.789546
-0.996137
-1.00071
-0.989591
-0.989394
-0.933558
-0.906229
-0.899824
-0.7905
-0.985201
-0.97236
-1.11358
-0.939296
-1.14081
-1.1388
-1.13175
-0.945731
-1.12988
-0.934821
-1.1366
-1.13544
-1.13374
-0.949252
-1.13273
-0.93319
-1.1359
-1.13596
-1.13355
-0.950819
-1.13344
-0.932048
-1.13655
-1.13762
-1.13194
-0.952112
-1.1332
-0.930434
-1.1373
-1.1406
-1.12832
-0.95281
-1.13271
-0.927969
-1.13457
-1.14234
-1.12519
-0.948942
-1.13324
-0.922694
-1.11288
-1.12357
-0.983469
-0.967889
-0.983627
-0.802496
-0.826533
-0.794281
-0.752569
-1.07837
-0.768278
-1.03706
-0.852789
-0.817143
-1.06777
-1.09482
-0.920365
-0.970661
-0.970609
-0.978345
-0.99844
-0.979122
-0.981448
-1.00505
-0.977216
-1.00489
-0.983101
-0.976033
-0.978704
-0.982771
-0.991268
-0.97936
-0.980217
-0.745826
-1.01866
-0.901621
-0.937681
-0.942068
-0.960209
-0.992176
-1.14941
-0.866528
-1.0677
-1.05428
-1.06563
-1.08137
-0.847165
-1.06427
-1.06809
-1.06302
-1.15051
-0.777456
-0.78257
-0.781188
-0.779945
-0.777439
-0.774687
-1.15223
-0.779936
-0.779116
-0.779389
-1.1523
-0.781238
-1.15714
-1.15848
-1.15607
-1.02564
-1.0238
-0.951144
-0.937987
-0.935452
-0.935764
-0.935854
-0.935418
-0.887194
-0.788554
-0.91735
-0.907258
-0.867582
-1.03522
-1.02977
-1.18064
-1.14422
-1.20506
-0.924192
-0.995976
-0.849631
-1.04459
-0.922458
-0.979226
-0.999471
-0.973335
-0.970567
-0.971571
-1.00735
-0.994116
-0.979011
-0.92978
-0.890693
-0.898983
-0.934813
-0.737579
-0.807686
-1.09261
-0.98952
-1.03647
-1.06258
-0.703814
-0.878516
-0.926598
-1.09491
-0.729428
-0.915206
-0.931727
-1.10019
-0.732362
-0.903704
-0.942674
-1.0961
-0.746167
-0.892849
-0.997883
-1.36317
-1.01739
-0.992757
-1.24817
-1.20987
-0.985378
-0.745659
-1.07421
-1.01002
-0.945862
-0.957551
-0.950086
-0.715404
-0.980383
-1.1004
-0.789104
-1.0552
-0.810988
-0.840896
-1.13612
-1.07804
-0.872818
-1.1439
-1.11074
-0.896507
-1.13722
-1.12487
-0.899229
-1.13385
-1.1289
-0.900982
-1.13187
-1.13032
-0.900518
-1.13165
-1.13057
-0.90238
-1.12985
-1.13135
-0.887414
-1.12631
-1.1152
-0.865217
-1.07393
-0.911221
-1.04847
-0.992482
-1.05931
-1.23267
-1.20432
-0.903551
-1.16913
-0.89379
-1.1217
-1.02891
-0.741605
-0.950829
-0.984769
-1.14675
-0.939127
-0.986502
-0.987762
-0.997997
-0.989016
-0.991564
-0.988026
-0.985692
-0.920047
-0.892961
-0.857029
-1.03887
-1.0395
-0.917419
-0.915144
-0.975552
-0.992041
-1.13692
-1.13825
-0.936943
-1.13312
-1.13526
-0.951018
-1.13367
-1.13586
-0.952196
-1.13319
-1.13679
-0.952612
-1.13162
-1.13544
-0.94868
-1.12943
-0.994374
-1.00343
-0.982772
-0.98851
-0.976971
-0.972431
-0.974381
-0.97692
-0.979741
-0.983862
-0.992466
-0.98245
-0.983403
-0.741336
-0.984772
-0.938677
-0.987632
-0.986594
-0.997638
-0.988837
-0.985098
-0.982592
-0.980175
-0.978111
-0.980513
-1.02392
-1.01812
-0.743174
-1.32613
-0.99986
-0.959677
-0.932967
-1.10018
-0.733619
-0.735404
-0.804988
-1.14709
-0.767532
-0.779104
-0.794182
-1.15363
-0.771035
-0.782591
-0.787308
-1.1488
-0.787389
-0.800899
-0.869626
-1.4493
-1.03107
-1.00667
-1.01146
-1.00236
-0.849567
-0.818732
-0.872814
-1.44395
-0.863537
-0.86515
-1.15131
-0.959001
-0.956111
-0.936
-0.995422
-0.712406
-0.985421
-0.986169
-0.726248
-1.00066
-0.947206
-0.95566
-0.957216
-1.1615
-1.15762
-1.16793
-1.15206
-0.95664
-0.902353
-0.982244
-1.15309
-0.966135
-0.733061
-1.02594
-0.900201
-0.731811
-1.22597
-0.676616
-0.934811
-0.819437
-1.00686
-1.0132
-0.84647
-1.03709
-1.02749
-0.870759
-1.031
-1.0376
-0.853477
-1.03814
-1.0302
-0.874426
-1.02972
-1.03928
-0.851872
-1.03825
-1.0316
-0.872837
-1.02664
-1.04175
-0.84973
-1.01487
-1.02197
-0.830694
-0.95206
-0.694447
-1.25417
-0.902432
-0.773148
-1.432
-1.0155
-1.06556
-1.39887
-1.00699
-1.04806
-1.3748
-0.999908
-1.02903
-1.38865
-1.01934
-1.00573
-1.39433
-0.748011
-0.959132
-1.14997
-0.946064
-0.954686
-1.16059
-0.930851
-1.11205
-1.1126
-0.939271
-1.13815
-0.916219
-1.13538
-1.21408
-0.789802
-1.2166
-0.761993
-1.21354
-0.788529
-1.21411
-0.761334
-1.21404
-0.788253
-1.21396
-0.761231
-1.21389
-0.788346
-1.21323
-0.761595
-1.21581
-0.789233
-1.21323
-0.762458
-1.21955
-0.790868
-1.20222
-0.760635
-0.896197
-1.14828
-1.12147
-0.943494
-1.16693
-0.910775
-1.16678
-1.13249
-0.938892
-1.16696
-0.911957
-1.16548
-1.1343
-0.937685
-1.16577
-0.911967
-1.16648
-1.13499
-0.9372
-1.16718
-0.912157
-1.16529
-1.13599
-0.937851
-1.16662
-0.912588
-1.16642
-1.13787
-0.939334
-1.16983
-0.912395
-1.16602
-1.14305
-0.94506
-1.15567
-0.900952
-1.20016
-1.15376
-0.961896
-0.869724
-0.835724
-0.733829
-0.993991
-1.04985
-0.911385
-1.07428
-0.862862
-0.897016
-0.908844
-0.935702
-0.939781
-0.982068
-1.14721
-0.943591
-0.985916
-0.951183
-1.16705
-0.903997
-1.20411
-0.792502
-1.22116
-0.763584
-0.996925
-0.986867
-0.974412
-1.15464
-1.02393
-1.43402
-0.863027
-1.15159
-0.858716
-0.86723
-1.06648
-1.06167
-1.05341
-1.06237
-1.06889
-1.44273
-1.02499
-0.954505
-0.939131
-0.94044
-0.94319
-1.1421
-1.14366
-0.944698
-0.989157
-0.981436
-0.975274
-1.15327
-0.931283
-1.11391
-1.13884
-0.945907
-1.13071
-1.1356
-0.949463
-1.02825
-0.937784
-0.938753
-0.938083
-0.938146
-0.935713
-0.937985
-0.937924
-0.937298
-0.936784
-0.935559
-0.938168
-0.939384
-1.11445
-1.13896
-1.22072
-1.21402
-1.21588
-1.21333
-0.762286
-1.1317
-0.789263
-1.13009
-0.763811
-1.13279
-0.792278
-1.12657
-0.88624
-0.851346
-1.03882
-0.912489
-1.02933
-1.16843
-0.939255
-1.13725
-0.945754
-1.13405
-1.13544
-0.937357
-1.13394
-0.949203
-1.13343
-1.13391
-0.93517
-1.13343
-0.948801
-1.13427
-1.13433
-0.933803
-1.13481
-0.917287
-1.13578
-1.13403
-0.915808
-1.13932
-1.11283
-0.903792
-1.00263
-1.00313
-0.998636
-0.99957
-0.999924
-0.999686
-0.998627
-1.00216
-1.15385
-1.14238
-0.796703
-0.790225
-0.794633
-0.861278
-1.44179
-1.0252
-1.02589
-1.42929
-0.860788
-0.865877
-1.06852
-1.06582
-1.12494
-1.06507
-1.43483
-1.02368
-0.951079
-1.16823
-0.904353
-1.00119
-0.982045
-1.15623
-1.15023
-0.779191
-0.776623
-1.15229
-0.774045
-0.789769
-1.15185
-0.982553
-0.940388
-0.891357
-0.945269
-1.39174
-1.20221
-0.96228
-1.15205
-0.928314
-1.12161
-1.11042
-0.943066
-1.1383
-0.945384
-1.12961
-0.936917
-1.13447
-0.948191
-1.13334
-1.13239
-0.933943
-1.13502
-0.917638
-1.13542
-1.13499
-0.917505
-1.13531
-0.935782
-0.935883
-0.93589
-0.935655
-0.938209
-0.981972
-1.15618
-1.15003
-0.96041
-1.00511
-0.982638
-1.0011
-0.981719
-0.960355
-1.00488
-0.938702
-0.940558
-0.936852
-0.936384
-0.937486
-0.934773
-0.98509
-0.982513
-0.980182
-0.983035
-0.980257
-0.908649
-0.889789
-0.893104
-0.900149
-0.734109
-1.01917
-0.750444
-1.35932
-0.981285
-0.95845
-0.960306
-1.11287
-0.986043
-1.03285
-0.981109
-1.34965
-0.967001
-0.958057
-0.931431
-1.09551
-0.731916
-0.745298
-0.812551
-1.14074
-0.764277
-0.790914
-0.804539
-1.14706
-0.767719
-0.792102
-0.800036
-1.14225
-0.785656
-0.805648
-1.16285
-0.998815
-0.933447
-0.926211
-1.13368
-1.20884
-0.918641
-1.22174
-0.763912
-0.915345
-1.18287
-0.935594
-1.1232
-1.14863
-0.936559
-1.10062
-1.1866
-1.13394
-1.05155
-0.837382
-0.958342
-0.890198
-1.1083
-1.17185
-1.15379
-1.11853
-0.94046
-1.10884
-0.932062
-1.11454
-0.940237
-1.10903
-0.932804
-1.11555
-0.942834
-1.10943
-1.17465
-1.14794
-0.95654
-0.848254
-1.00934
-1.15414
-0.845347
-1.01289
-1.03052
-0.991026
-0.864374
-0.863338
-0.8686
-1.43524
-0.869704
-0.958339
-1.37616
-1.03425
-0.994275
-0.844783
-0.858422
-1.16004
-0.797219
-0.796714
-1.15671
-0.984676
-1.00569
-1.00121
-0.998064
-0.999548
-0.999971
-0.999694
-0.998601
-1.00209
-1.15385
-1.14266
-0.774025
-0.777206
-1.05751
-1.05337
-1.06523
-1.37149
-1.04719
-0.848943
-0.854171
-0.954742
-0.866593
-0.846857
-1.01525
-1.43247
-1.06563
-1.39157
-1.00653
-1.39811
-1.125
-1.08233
-1.06607
-1.42972
-0.860887
-0.861444
-1.15198
-0.792712
-0.792206
-0.861617
-0.860785
-0.86526
-1.02075
-1.40693
-1.02131
-1.44118
-1.02458
-1.02561
-0.945342
-0.792971
-0.898797
-0.905765
-0.936066
-0.989347
-0.988973
-1.0006
-0.991887
-0.988295
-0.985939
-0.983676
-0.981697
-0.978494
-0.982894
-0.981756
-1.0144
-0.747731
-0.819742
-0.82439
-1.41513
-0.958604
-0.968828
-0.999072
-1.32253
-0.740606
-0.822696
-0.8252
-0.75303
-0.833025
-0.848235
-1.38985
-0.997394
-1.02979
-0.782485
-0.870301
-0.949026
-0.893284
-0.906655
-0.983847
-1.02569
-1.02329
-0.983178
-0.98156
-1.01207
-1.00621
-1.00009
-0.997293
-0.996467
-0.98059
-0.978265
-0.977984
-0.972512
-0.985806
-0.924136
-0.922024
-0.921083
-0.920148
-0.918334
-0.914025
-1.00693
-0.991181
-0.991786
-0.988782
-0.985378
-0.982763
-0.982219
-0.980149
-0.995043
-0.995009
-1.13967
-1.22079
-1.21378
-1.21606
-1.21321
-0.917335
-1.13624
-1.13486
-0.915745
-1.03971
-0.938013
-0.939303
-1.11383
-1.02404
-1.43423
-1.00058
-0.951284
-0.981729
-1.0012
-1.15408
-0.79979
-0.791225
-1.06955
-1.06094
-1.06888
-1.05708
-0.773308
-1.15236
-1.0575
-1.06571
-0.867842
-1.08239
-1.05794
-1.05265
-1.06491
-1.06794
-1.12518
-1.0658
-1.06835
-1.06984
-1.08311
-0.798704
-0.866897
-0.954657
-1.15401
-0.85466
-0.848537
-1.0013
-0.982896
-1.15635
-1.14973
-0.960417
-0.982891
-0.940577
-0.891389
-0.792481
-0.888202
-0.789548
-0.935397
-0.934964
-0.935611
-0.933258
-1.13563
-1.13597
-1.21489
-1.21228
-1.2156
-1.21098
-0.918744
-1.13622
-1.13561
-0.917871
-1.0433
-0.88768
-0.788306
-0.887375
-0.787768
-0.935572
-0.932093
-0.937592
-0.933647
-0.937158
-0.932406
-0.935646
-0.933556
-0.884542
-0.788479
-0.930698
-1.04323
-1.04404
-1.04379
-1.04312
-1.03976
-1.02324
-1.00406
-1.0022
-1.02716
-1.00825
-1.00373
-1.02806
-1.00939
-1.00392
-1.00239
-1.02431
-1.02345
-1.00401
-1.0074
-1.00521
-1.00711
-1.00756
-1.00416
-1.02814
-1.00929
-1.00363
-1.02703
-1.00777
-1.00156
-1.02193
-1.03771
-0.931028
-1.1163
-0.740385
-1.1688
-0.996688
-0.980144
-1.14537
-0.787083
-1.15919
-1.06785
-1.03624
-0.977312
-1.34012
-0.969293
-0.962628
-0.903588
-1.07027
-1.0804
-0.851083
-0.963107
-1.07166
-1.07956
-0.989092
-0.968394
-1.33229
-0.981547
-1.03921
-1.0454
-1.04802
-1.03974
-0.977403
-1.07015
-0.94473
-0.942814
-1.09626
-0.746718
-0.730998
-0.800155
-1.14254
-0.785051
-0.77396
-0.787389
-1.14928
-0.786002
-0.777451
-0.780484
-1.1442
-0.801686
-0.869864
-1.43854
-1.05861
-0.992824
-0.866979
-0.862078
-1.15664
-0.983865
-1.00546
-1.00202
-1.00351
-1.00403
-1.0037
-1.00225
-1.00505
-1.02411
-1.03967
-0.916515
-1.13507
-1.13573
-0.918047
-1.13556
-1.13548
-1.21461
-1.21227
-1.21525
-1.21088
-0.761489
-1.12972
-0.787345
-1.13239
-0.761575
-1.13133
-0.787968
-1.13215
-0.899767
-0.862695
-1.03423
-0.912402
-1.03377
-1.16533
-0.936681
-1.13382
-0.946031
-1.13616
-1.13512
-0.93656
-1.13124
-0.94813
-1.13472
-0.936472
-1.13012
-0.945304
-1.13941
-1.14039
-0.939285
-1.11501
-0.932231
-1.11096
-1.11334
-0.940636
-1.13889
-1.13973
-1.10987
-0.931777
-0.983058
-0.938848
-0.936749
-0.937446
-0.937733
-0.937795
-0.937629
-0.888091
-0.887504
-0.935729
-0.933295
-0.935625
-0.932026
-1.13532
-1.13571
-0.919281
-1.13483
-1.13683
-1.21771
-1.20953
-1.22104
-1.20908
-0.763847
-1.11144
-0.787149
-1.13766
-0.762174
-1.12559
-0.78713
-1.13442
-0.898525
-0.860849
-1.02979
-0.914023
-1.03748
-1.1546
-0.935716
-1.12328
-0.941588
-1.14797
-1.13439
-0.940588
-1.11767
-0.925029
-1.10116
-1.18619
-0.936792
-1.13368
-1.05066
-0.957659
-0.889611
-0.957551
-0.989768
-0.83651
-0.872136
-1.14413
-1.07862
-0.784105
-0.904207
-0.911384
-0.915763
-0.91768
-0.918709
-0.919714
-0.921874
-0.896946
-0.907098
-1.04996
-0.911403
-0.694296
-0.836015
-0.951791
-0.868662
-1.25507
-0.771528
-0.899458
-1.15202
-1.0107
-0.907178
-0.956425
-1.15222
-0.931104
-1.10916
-0.940505
-1.13768
-0.945202
-1.13129
-1.12927
-0.93528
-1.13533
-0.917606
-1.13559
-0.996554
-0.98176
-1.13651
-0.980101
-1.14129
-0.991934
-0.990911
-0.978015
-0.980763
-0.940386
-1.01924
-0.994173
-0.936979
-0.992316
-0.831996
-1.01958
-0.90131
-1.15391
-0.945058
-1.14203
-0.943583
-1.13246
-1.13344
-0.938944
-1.13501
-0.948451
-1.13289
-0.935678
-1.13397
-0.948905
-1.13389
-1.13355
-0.933512
-1.13382
-0.982472
-0.98255
-1.13485
-0.981065
-0.980043
-0.983426
-0.988028
-1.14346
-0.981782
-1.17271
-0.984853
-0.971213
-1.01598
-1.00266
-0.995521
-0.974402
-1.16769
-1.00349
-0.864693
-1.03445
-0.912698
-1.16645
-0.937484
-1.13533
-0.946103
-1.13484
-1.13566
-0.936689
-1.13291
-0.949121
-1.13423
-0.935356
-1.13247
-0.948023
-1.13506
-1.13567
-0.935098
-1.13007
-0.935618
-1.02698
-1.02775
-1.00915
-1.00433
-1.00398
-1.0025
-1.0053
-1.00404
-1.02319
-1.02705
-1.04291
-0.937901
-0.93813
-0.938102
-1.04325
-1.02795
-1.02789
-1.00931
-1.0082
-1.0283
-1.02445
-0.945758
-1.14038
-0.94029
-1.13948
-1.13058
-0.937041
-1.13569
-1.13625
-1.13005
-1.13027
-0.939064
-1.13573
-1.13801
-1.13362
-1.14301
-0.942999
-1.13927
-1.11333
-1.10996
-1.1109
-1.11242
-0.942925
-1.14195
-1.13998
-0.945754
-1.12977
-0.939026
-1.1374
-1.13614
-0.94886
-1.1326
-0.937575
-1.13638
-1.13487
-1.13476
-1.13525
-0.935862
-1.13342
-1.13309
-0.948852
-1.13289
-0.93758
-1.13452
-1.137
-1.13556
-0.946394
-1.13744
-1.16685
-0.93906
-1.13258
-0.94418
-1.1422
-1.16828
-0.94475
-1.12154
-1.11088
-1.17166
-0.956204
-1.15325
-0.931629
-1.16307
-0.954832
-1.16162
-0.931588
-1.1546
-0.956127
-1.17024
-1.11177
-1.12049
-0.928782
-0.982928
-0.974924
-0.980193
-0.750635
-1.01565
-0.965464
-0.988917
-0.990591
-0.746625
-0.977454
-0.944021
-0.963777
-1.01683
-0.750491
-1.40002
-1.03099
-1.00453
-0.865512
-1.15013
-0.976014
-0.946293
-0.947943
-0.974322
-0.909898
-1.00877
-1.15195
-0.846354
-1.03086
-1.3996
-1.00516
-1.42949
-1.02568
-0.940634
-0.939408
-0.937635
-0.938297
-1.02904
-0.949612
-1.13394
-0.935326
-1.13388
-1.13463
-1.13336
-1.13683
-0.936877
-1.13395
-1.13573
-0.946813
-1.13553
-1.16686
-0.937351
-1.13431
-1.16666
-0.91332
-1.03518
-1.03472
-0.863814
-1.03502
-1.03477
-0.86396
-1.03416
-1.03584
-0.861937
-1.03076
-1.03845
-0.858129
-1.01189
-0.971499
-0.999888
-0.973401
-1.0029
-0.973934
-1.00344
-0.973992
-1.00377
-0.974028
-1.00417
-0.865387
-1.03059
-1.16836
-0.913057
-1.03901
-1.01691
-0.852635
-1.00309
-0.974724
-0.971264
-1.01996
-0.901923
-1.20241
-0.961809
-1.15228
-0.928877
-0.982881
-0.983527
-0.994411
-0.772277
-0.901122
-1.25458
-0.694437
-0.952666
-0.832174
-0.992005
-0.937059
-0.836396
-0.868947
-1.01011
-0.908712
-1.15197
-0.940454
-0.979908
-0.975004
-0.987693
-0.994122
-0.987088
-0.984156
-0.98296
-0.936577
-1.13404
-1.16772
-1.16568
-1.13518
-0.990566
-0.990058
-0.989573
-0.98385
-0.980586
-0.97724
-0.975815
-0.990837
-0.94679
-1.13508
-0.936746
-1.13146
-1.13728
-1.13108
-1.17151
-0.936131
-1.1366
-1.16331
-0.913572
-0.761493
-0.997627
-0.984518
-0.987527
-1.00148
-1.13725
-1.21822
-1.20959
-0.78767
-0.885891
-0.886949
-0.787583
-0.935202
-0.930898
-1.1354
-0.934082
-0.929673
-1.13434
-0.919913
-1.04257
-0.937822
-0.937077
-1.03851
-1.02255
-1.02699
-1.00787
-1.00921
-1.02892
-1.00381
-1.00689
-1.00375
-1.00432
-1.02914
-1.0281
-1.0273
-1.00817
-1.0279
-1.0428
-1.04313
-0.918522
-0.997521
-0.996929
-0.982729
-0.984643
-0.990396
-0.981811
-0.980488
-0.974407
-0.987036
-0.935256
-0.996908
-0.986972
-0.984678
-0.986759
-0.989335
-0.994828
-0.99201
-0.989481
-1.00289
-0.999216
-1.13335
-1.13731
-0.919016
-1.1321
-1.00812
-0.992826
-0.987155
-0.992127
-0.892332
-0.950376
-1.21062
-1.24757
-0.745573
-0.99757
-1.36344
-1.01709
-0.849804
-1.00219
-1.01327
-0.866366
-0.868934
-1.45133
-1.03712
-1.00486
-1.27784
-1.10246
-1.10388
-1.04463
-1.06713
-0.790507
-1.16116
-0.98167
-1.00372
-1.00165
-1.028
-1.02918
-1.02808
-0.937466
-0.93518
-0.93069
-0.933999
-0.929389
-0.885613
-0.886677
-0.887141
-1.16713
-1.1629
-0.936198
-1.13091
-0.945261
-1.13961
-1.13364
-0.937227
-1.12764
-0.944967
-1.13107
-0.936931
-0.937545
-1.02847
-1.04303
-1.04231
-0.920379
-1.02705
-1.00778
-1.00913
-1.00925
-1.0286
-0.937746
-0.937148
-0.939001
-1.14137
-0.981124
-1.1303
-0.975376
-1.11371
-1.16437
-0.943766
-0.976968
-0.991972
-0.739731
-0.982293
-0.981247
-0.983182
-0.98842
-1.1381
-0.988271
-0.973601
-1.03377
-1.00304
-0.985279
-0.973493
-1.16631
-1.00266
-0.862929
-1.03324
-0.912769
-1.03482
-0.973376
-1.00209
-0.983977
-0.984079
-0.988854
-1.13691
-0.984197
-1.13527
-0.978672
-0.989079
-1.1366
-0.984199
-1.13412
-0.978943
-0.989129
-1.13689
-0.972869
-1.17091
-0.999137
-0.857081
-1.01098
-0.914636
-1.18233
-0.971106
-0.985175
-0.990094
-0.97676
-0.951968
-0.893494
-0.938486
-0.921292
-0.979237
-0.988689
-1.13665
-0.981274
-0.988387
-0.976964
-0.961271
-0.940154
-0.975798
-0.98126
-0.983188
-1.13538
-1.13354
-0.980653
-0.979906
-0.983656
-0.991436
-0.980844
-0.967708
-0.940218
-0.975322
-0.980217
-0.981617
-1.13266
-0.996051
-0.996178
-0.996316
-0.918692
-0.919618
-0.9216
-0.883635
-0.911156
-0.918721
-0.918587
-0.919128
-0.995982
-0.985179
-0.984415
-0.980698
-0.93341
-0.72684
-0.813362
-0.919401
-0.97697
-0.991395
-0.986486
-0.979662
-0.976589
-0.975682
-0.976798
-0.980065
-0.987289
-0.985914
-0.975014
-0.977616
-0.977645
-0.943875
-1.15013
-0.94003
-0.994808
-0.983241
-0.993723
-0.989991
-0.944212
-1.13205
-1.13422
-0.937989
-1.02445
-1.00402
-0.960479
-1.02333
-1.03983
-0.891637
-0.945461
-1.39186
-1.23312
-0.763615
-0.888441
-1.04303
-1.0283
-1.00816
-1.02713
-1.02783
-1.00924
-1.02903
-0.938224
-0.938227
-0.938381
-0.938103
-1.02794
-0.948572
-1.13395
-0.935462
-1.13247
-1.13639
-0.936523
-1.12918
-1.13181
-1.13413
-1.13628
-0.937308
-1.12739
-1.13719
-1.13338
-0.946043
-1.14015
-1.15501
-0.914881
-0.762235
-0.990866
-0.98285
-0.984015
-0.988746
-0.990205
-0.957605
-0.951843
-0.893532
-0.975445
-0.938523
-0.920956
-0.980186
-0.990238
-0.978324
-0.976064
-0.986138
-0.987211
-1.13482
-1.13408
-1.13512
-1.13419
-0.93741
-1.13504
-1.13308
-0.948712
-1.13503
-0.93881
-1.13276
-1.13089
-0.945832
-1.13852
-1.14333
-1.1406
-0.943885
-1.0399
-1.02466
-1.00228
-1.00474
-1.00274
-1.00363
-0.934267
-0.927274
-1.12247
-0.79914
-0.734005
-1.15937
-1.0664
-1.06724
-0.977698
-1.04083
-1.04847
-1.06592
-0.777769
-1.14955
-0.958638
-1.15169
-1.15771
-1.15187
-1.15125
-1.12159
-0.892421
-1.04574
-1.3329
-0.754547
-0.985554
-1.11746
-1.03908
-1.10295
-1.02658
-0.993034
-1.29399
-1.08724
-0.805495
-0.871928
-1.44474
-0.864378
-1.15534
-0.802549
-1.15786
-0.960152
-1.00707
-1.00334
-1.02257
-1.0228
-1.03828
-1.02357
-1.0275
-1.02357
-1.00408
-1.00797
-1.02816
-1.02895
-1.04327
-0.938104
-0.937934
-0.937403
-1.02393
-0.939039
-0.884799
-0.784562
-1.20932
-0.77475
-0.991544
-1.10955
-0.940658
-0.985665
-0.988919
-1.12138
-0.795651
-0.730569
-1.16132
-0.981602
-0.960212
-1.15118
-0.77374
-1.15155
-1.06638
-1.06659
-1.06916
-0.946392
-1.04539
-1.33207
-0.985406
-1.03936
-1.04482
-1.04615
-1.04996
-1.06628
-0.782556
-1.15153
-1.08347
-1.04671
-1.0817
-1.06693
-0.778739
-1.15357
-0.961743
-1.1579
-1.15725
-1.02819
-0.938935
-0.939502
-1.02845
-1.02379
-0.891216
-0.94132
-0.939801
-0.983295
-1.02343
-1.02762
-1.02964
-0.945329
-1.19877
-0.965103
-0.973061
-0.985963
-0.983607
-0.982899
-0.983833
-0.986648
-0.990541
-1.13589
-1.13409
-0.946489
-0.888104
-1.04336
-0.946813
-1.13474
-1.13635
-0.93709
-1.13587
-1.13402
-1.1336
-0.94961
-1.1344
-0.987298
-0.975865
-0.979101
-0.986078
-0.986234
-0.984007
-0.987183
-0.974578
-0.975345
-0.978317
-0.983914
-1.14093
-1.13735
-1.14139
-0.984135
-0.986158
-0.987257
-0.949543
-0.990746
-1.13673
-1.13544
-0.946703
-0.887955
-0.887784
-1.04287
-0.94622
-1.13672
-1.13798
-0.990196
-0.97358
-0.973758
-0.973916
-0.974073
-0.974631
-0.970962
-0.936833
-0.992149
-1.00341
-1.00489
-1.00393
-0.990867
-1.00422
-1.00375
-1.00423
-0.989417
-0.981896
-0.928664
-0.978396
-0.98522
-0.985109
-0.973793
-0.959907
-0.93956
-0.977673
-0.974198
-0.959827
-0.942921
-0.97346
-0.972057
-0.938571
-0.967819
-0.888186
-0.945303
-1.13356
-0.942253
-1.00055
-0.980053
-1.15521
-1.08427
-1.08712
-1.11721
-1.02627
-1.10258
-1.10388
-1.1024
-1.08457
-1.04404
-1.09946
-1.29266
-1.10265
-1.10494
-1.18417
-1.15461
-1.29923
-1.30044
-1.28024
-1.29647
-1.2944
-0.954783
-0.958574
-1.00342
-1.16286
-0.819419
-0.954716
-0.985671
-0.949539
-0.925499
-1.13786
-0.937806
-1.13445
-0.90863
-0.887741
-0.913017
-0.885814
-0.895834
-0.9003
-1.1663
-1.13258
-1.13656
-0.984281
-1.2945
-1.13731
-0.995774
-0.761507
-0.91312
-0.734978
-1.15378
-0.764196
-0.763651
-0.762156
-0.902136
-0.864928
-0.935064
-0.900086
-0.959474
-0.951331
-0.754674
-0.931199
-1.15194
-0.791182
-1.0646
-0.751486
-1.11489
-0.933873
-0.956045
-0.880002
-0.850989
-0.742374
-0.93116
-0.932322
-0.936863
-0.788267
-0.938289
-1.13608
-0.93443
0.992667
0.980975
0.991863
0.985137
0.978895
0.976234
0.975575
0.976737
0.979905
0.986734
0.973283
0.968067
0.720772
1.01662
1.15228
0.905546
1.00643
0.955592
1.19691
0.8958
1.14901
1.0109
0.848186
1.03626
1.02798
0.863552
1.03554
1.03198
0.864917
1.03524
1.03286
0.86102
1.03564
1.03222
0.862575
1.03287
1.03452
0.861667
1.0277
1.03885
0.851575
1.01263
1.01989
0.830635
0.949739
0.693025
1.25196
0.772064
0.900644
1.01436
0.751326
0.963266
0.991461
0.748431
0.984014
0.982159
0.754004
0.994988
0.953691
0.747537
0.984747
1.18271
0.820179
1.0992
1.03585
0.954196
0.958957
1.13664
0.950053
0.954859
0.954755
1.14604
0.95664
0.953255
0.937913
1.14743
0.974712
0.954424
0.905059
1.1498
1.00652
0.960111
0.866742
0.833398
0.73182
0.909187
1.0715
1.11364
1.1236
1.13001
1.1278
1.12948
1.12957
1.12883
1.13085
1.13007
1.13069
1.13016
1.13094
1.12835
1.12903
1.12079
1.10388
1.04912
0.861306
0.977503
0.997264
1.02825
0.956362
0.72096
1.2905
0.997872
1.05672
0.993899
1.03176
1.15464
1.18278
1.10057
1.04946
1.0537
1.05003
1.10046
1.29071
1.05666
0.846396
0.857337
0.957233
0.869836
0.846857
1.01042
1.30112
1.03165
1.37546
0.993749
1.1546
0.977323
0.997331
1.05087
1.22773
1.2023
0.903744
1.1699
0.890787
1.12193
1.02883
0.720344
0.95543
0.987972
1.15412
1.11523
1.14076
1.13094
1.1362
1.13342
1.13548
1.13343
1.13657
1.13182
1.1389
1.12924
1.1402
1.12713
1.12486
0.972667
1.41101
0.988543
0.969274
1.11268
1.1339
0.949093
1.13557
1.13286
0.952004
1.13746
1.13305
0.951441
1.13774
1.13248
0.950535
1.13777
1.13182
0.949244
1.13731
1.13055
0.946147
1.14028
1.1124
0.932467
1.16416
0.942662
1.1496
0.984966
0.709753
0.991571
0.947138
1.15207
0.961459
0.719509
1.02051
0.905281
1.17333
1.1121
1.14197
1.1379
1.13412
1.14466
1.12906
1.14782
1.13343
1.13256
1.13905
1.12994
1.14183
1.12008
1.13403
0.979539
1.41566
1.0172
0.960845
1.07381
1.2317
0.917492
1.21504
1.21197
0.918416
1.21353
1.21205
0.918007
1.22896
1.10502
0.948616
1.1597
1.12031
0.947509
1.14688
1.12833
0.944413
1.14391
1.1201
0.928332
1.14889
1.00871
1.15226
0.900369
0.732796
1.22685
0.85213
1.19514
1.15258
0.896336
1.01313
0.934647
0.814279
0.677445
0.863477
0.727392
1.05052
1.10782
0.76096
1.20352
1.11373
0.902872
1.22707
1.17069
0.890373
1.12172
1.05213
0.78717
0.944854
1.37619
0.993562
1.15453
1.03182
1.30119
1.01077
0.847225
0.957472
0.869832
0.805541
1.15995
0.857294
0.868089
0.800844
0.798027
1.15689
0.862941
0.862405
0.797232
0.801011
1.15682
0.868613
0.856905
0.804169
0.870155
1.15968
0.957241
0.84661
1.03198
1.01041
1.30167
1.0319
1.15457
0.992798
1.05703
1.28813
1.00131
1.02712
1.27643
1.02641
1.00205
1.28773
1.05664
0.846715
1.09638
1.18207
1.10053
1.43897
1.02802
0.951584
0.989284
0.945011
1.16522
1.11304
1.11288
1.11615
0.932328
1.16568
1.15342
0.990183
1.15014
0.943699
0.955814
1.03017
1.45196
1.10428
1.10059
1.43857
1.02801
0.95152
0.88905
1.0524
1.22735
1.20286
0.760893
1.10478
0.787672
1.04878
0.727728
0.996176
1.12181
1.0324
0.951052
0.988955
0.987885
1.15005
0.951989
1.03138
0.996483
0.976426
0.867394
0.892644
0.843694
0.813713
0.979381
0.918363
0.971135
0.979009
0.993673
1.00051
0.857571
1.00658
1.03656
1.1633
1.17456
1.15311
1.1914
0.907625
1.05175
1.02925
0.910569
0.762438
1.12745
1.13962
0.759547
1.21205
1.13675
0.915859
1.21149
1.13445
1.13547
0.914868
1.21388
0.788851
0.88868
0.891025
0.94369
0.790775
1.1292
0.893243
1.11629
0.922969
0.924028
0.894884
0.860292
1.00606
0.974491
0.965079
0.980218
0.978087
0.969995
0.936342
0.942358
0.977461
0.956199
1.15422
1.16543
1.11215
0.932866
1.1146
0.943556
1.14087
1.14114
1.13248
0.946695
1.129
0.939406
1.13968
1.13549
1.13593
0.950018
1.12855
0.937483
1.14127
1.13447
1.13593
0.951429
1.13012
0.934703
1.13924
1.13627
1.13298
0.951707
1.13225
0.930845
1.13706
1.13874
1.12933
0.951633
1.13186
0.92903
1.13471
1.14025
1.12687
0.948812
1.13381
0.926575
1.11153
1.12258
0.982365
0.969432
0.987283
0.801859
0.834698
0.805063
0.8356
0.908111
1.41487
0.965567
0.886101
1.1579
0.886343
1.08974
0.767335
1.10479
1.13595
0.759501
1.12987
1.13814
0.767446
1.08287
1.28967
0.986984
1.13038
0.904024
0.907825
0.888355
0.941821