/*--------------------------------*- C++ -*----------------------------------*\
| =========                 |                                                 |
| \\      /  F ield         | OpenFOAM: The Open Source CFD Toolbox           |
|  \\    /   O peration     | Version:  2306                                  |
|   \\  /    A nd           | Website:  www.openfoam.com                      |
|    \\/     M anipulation  |                                                 |
\*---------------------------------------------------------------------------*/
FoamFile
{
    version     2.0;
    format      ascii;
    arch        "LSB;label=32;scalar=64";
    class       volScalarField;
    location    "2.2";
    object      gradTz;
}
// * * * * * * * * * * * * * * * * * * * * * * * * * * * * * * * * * * * * * //

dimensions      [0 -1 0 1 0 0 0];

internalField   nonuniform List<scalar> 
5322
(
-0.0618676
-0.0567253
-0.0481291
-0.0520394
-0.0400482
-0.029784
-0.0213877
-0.0148781
-0.0101407
-0.00700742
-0.00518332
-0.00458992
-0.00327325
-0.00461947
-0.00512937
-0.00432159
-0.00506476
-0.00400254
-0.00603666
-0.0070044
-0.00860917
-0.0102299
-0.0127287
-0.0152865
-0.0188372
-0.0221235
-0.0268229
-0.0313297
-0.0372326
-0.0423639
-0.0493385
-0.0555733
-0.0629732
-0.0682208
-0.0718719
-0.0631992
-0.0746686
-0.0737141
-0.075961
-0.0556639
-0.0704
-0.0726731
-0.0545744
-0.0727035
-0.0719711
-0.0555441
-0.0737674
-0.0697355
-0.0549717
-0.0726246
-0.0829992
-0.0562321
-0.0786096
-0.0695329
-0.0619703
-0.0658039
-0.0815891
-0.064537
-0.0620809
-0.0656342
-0.0824392
-0.0654026
-0.0620661
-0.0640308
-0.082445
-0.0677488
-0.06186
-0.0609101
-0.0808933
-0.0723437
-0.0515227
-0.0760766
-0.0723993
-0.0713205
-0.0719977
-0.0716522
-0.0716024
-0.0714221
-0.0725698
-0.069285
-0.0673829
-0.0545308
-0.0565573
-0.0725909
-0.0468436
-0.0643406
-0.0939339
-0.061115
-0.0612469
-0.0530884
-0.0655612
-0.0467404
-0.0492365
-0.0491441
-0.0633868
-0.0608555
-0.0576465
-0.0616625
-0.0955016
-0.0593188
-0.0600308
-0.0538343
-0.0621548
-0.0627058
-0.0684676
-0.0560834
-0.0589387
-0.052527
-0.0405227
-0.0302217
-0.0217044
-0.0150605
-0.0101992
-0.00698459
-0.00590357
-0.00524445
-0.00375924
-0.00401946
-0.00570897
-0.00439695
-0.00381537
-0.00452846
-0.00446471
-0.00622429
-0.00467015
-0.00610075
-0.00442323
-0.00461908
-0.00600228
-0.00441419
-0.00452937
-0.00606078
-0.00448404
-0.00444743
-0.00608688
-0.0045419
-0.00446992
-0.00624624
-0.00468254
-0.00611345
-0.00444147
-0.00383209
-0.00440322
-0.00396709
-0.00376863
-0.00571551
-0.00402416
-0.00400224
-0.00372603
-0.00375492
-0.00573672
-0.00400818
-0.0039936
-0.00373348
-0.00375518
-0.00573211
-0.00401017
-0.00396223
-0.00382592
-0.0051338
-0.00431932
-0.00507671
-0.00668913
-0.00756261
-0.00439885
-0.00604823
-0.00400814
-0.00514889
-0.00334383
-0.00447142
-0.00462962
-0.00431222
-0.00476783
-0.00527288
-0.00456188
-0.00634128
-0.00628852
-0.00706793
-0.00543061
-0.0070624
-0.00868604
-0.00869296
-0.010396
-0.00787984
-0.0104146
-0.0127869
-0.0127941
-0.015426
-0.011725
-0.015449
-0.018805
-0.0188151
-0.0224323
-0.017192
-0.0224737
-0.0269438
-0.0269739
-0.0315778
-0.0244575
-0.0316572
-0.0373365
-0.0374116
-0.0428708
-0.0335753
-0.043005
-0.0498163
-0.0499712
-0.0560726
-0.044226
-0.0562988
-0.0629493
-0.063109
-0.0615521
-0.0955057
-0.059303
-0.0591185
-0.0540042
-0.0739786
-0.073806
-0.04924
-0.0492024
-0.063256
-0.0613586
-0.0571189
-0.0623683
-0.095401
-0.0596845
-0.0590574
-0.0541342
-0.0613001
-0.0630141
-0.0576057
-0.0576409
-0.0524301
-0.0405373
-0.0302611
-0.0217342
-0.0150783
-0.0102088
-0.00698941
-0.00590723
-0.00524955
-0.00375134
-0.0037456
-0.00374296
-0.00374861
-0.00573161
-0.00399282
-0.00400963
-0.00392931
-0.0045306
-0.0065959
-0.00399354
-0.00573375
-0.00401165
-0.00655582
-0.0046126
-0.00599085
-0.00441556
-0.00393165
-0.0045315
-0.00599202
-0.00323247
-0.00445091
-0.00456463
-0.00455964
-0.00477042
-0.0062878
-0.00707091
-0.00869481
-0.0103988
-0.0128004
-0.0154277
-0.018827
-0.0224347
-0.0269946
-0.0315793
-0.037451
-0.0428602
-0.0500492
-0.0560139
-0.063548
-0.06081
-0.095544
-0.0619316
-0.057637
-0.0628127
-0.0564544
-0.0442597
-0.0498162
-0.0430755
-0.0336009
-0.0373669
-0.0316849
-0.0244734
-0.0269713
-0.0224838
-0.0172009
-0.0188245
-0.0154516
-0.0117298
-0.0128027
-0.010412
-0.00788219
-0.00870069
-0.00705659
-0.00543053
-0.00635095
-0.00487375
-0.00634658
-0.0070619
-0.00543165
-0.00629332
-0.00477175
-0.00527576
-0.00430703
-0.00326955
-0.00464598
-0.00432993
-0.00636202
-0.00706546
-0.00868322
-0.0104343
-0.0128107
-0.0154665
-0.0188799
-0.0224899
-0.0271032
-0.0316637
-0.0376949
-0.0428598
-0.050591
-0.0555646
-0.0639066
-0.0612157
-0.0944612
-0.0650485
-0.0558652
-0.0685361
-0.0610678
-0.0430133
-0.0540772
-0.0462916
-0.0326189
-0.0403437
-0.0338736
-0.0237041
-0.0290139
-0.0239768
-0.0166411
-0.0202248
-0.0164645
-0.0113425
-0.0137269
-0.0110865
-0.00762153
-0.00929891
-0.00756439
-0.00524755
-0.00668835
-0.0050798
-0.00513897
-0.00447627
-0.0046386
-0.00413041
-0.00516202
-0.00333793
-0.00381513
-0.0045543
-0.00422907
-0.00648165
-0.00732617
-0.00708163
-0.00706008
-0.00540273
-0.00628113
-0.00638898
-0.00439986
-0.00528169
-0.004867
-0.0048897
-0.00477833
-0.00633191
-0.00493401
-0.00468596
-0.00653831
-0.00519739
-0.00488101
-0.0047216
-0.00459149
-0.00635222
-0.00705909
-0.00651684
-0.00870665
-0.0104134
-0.0128086
-0.0154514
-0.0140422
-0.01884
-0.0224687
-0.0270148
-0.031624
-0.0282835
-0.03747
-0.0429059
-0.0500083
-0.0561219
-0.0492185
-0.0492532
-0.0381119
-0.0381517
-0.0284453
-0.028368
-0.0376613
-0.0429514
-0.0336087
-0.0434033
-0.0497149
-0.0503911
-0.0558576
-0.0442134
-0.0571243
-0.0622576
-0.0702075
-0.0596461
-0.0957557
-0.0610528
-0.0579314
-0.0558878
-0.0721469
-0.0467047
-0.04239
-0.0586981
-0.0364863
-0.0497589
-0.0438004
-0.0272027
-0.037473
-0.0316746
-0.0196634
-0.027119
-0.0223862
-0.0137991
-0.0188339
-0.0152347
-0.00939706
-0.0127961
-0.0102227
-0.0063182
-0.00858338
-0.0069533
-0.00438701
-0.00606008
-0.00432489
-0.00415752
-0.00556852
-0.00518922
-0.00625036
-0.00787318
-0.00881905
-0.010744
-0.0130831
-0.015906
-0.0154328
-0.0154871
-0.0117023
-0.0128333
-0.0128256
-0.010441
-0.00786144
-0.010385
-0.00950977
-0.00907836
-0.00619584
-0.00543968
-0.00647659
-0.0061232
-0.00585618
-0.00691178
-0.00697519
-0.00517477
-0.00460859
-0.00339669
-0.00564515
-0.00316674
-0.00448276
-0.0050969
-0.00575686
-0.00819875
-0.0101611
-0.0101115
-0.0148916
-0.015091
-0.0121465
-0.0117056
-0.0112797
-0.0139517
-0.0171732
-0.0193719
-0.0231129
-0.0278701
-0.0325524
-0.0317724
-0.0317036
-0.024455
-0.0270619
-0.0271022
-0.0225215
-0.017173
-0.0224953
-0.0203302
-0.0193506
-0.0134083
-0.0118406
-0.0139585
-0.0136667
-0.013056
-0.00944334
-0.00899296
-0.00861152
-0.0093335
-0.00756405
-0.00799367
-0.00839839
-0.00703592
-0.00520991
-0.00460252
-0.00446098
-0.00422224
-0.00473584
-0.00399681
-0.00585789
-0.00581908
-0.00707053
-0.00649793
-0.00869902
-0.0086977
-0.0104155
-0.0078853
-0.0104035
-0.00949442
-0.0128039
-0.0128065
-0.0154489
-0.0117371
-0.0154487
-0.0140184
-0.0188299
-0.0188471
-0.0224641
-0.0172165
-0.0224883
-0.0202384
-0.0269921
-0.0270351
-0.0316186
-0.0245021
-0.0316981
-0.0282653
-0.0374023
-0.0375264
-0.0428777
-0.033641
-0.0431102
-0.0380552
-0.049809
-0.0501525
-0.0560003
-0.044268
-0.0564642
-0.0490825
-0.0628108
-0.0633995
-0.0614834
-0.0575359
-0.0615116
-0.0544305
-0.0594481
-0.0573069
-0.0520002
-0.0714971
-0.047462
-0.0615907
-0.0470614
-0.0450407
-0.0550769
-0.0552008
-0.0494291
-0.0528397
-0.0532778
-0.0473227
-0.0417126
-0.040878
-0.0301448
-0.0307671
-0.0254621
-0.0218816
-0.0215086
-0.0213503
-0.0148205
-0.0100978
-0.00698339
-0.00516299
-0.00456481
-0.00328681
-0.00459931
-0.00406714
-0.00448477
-0.00451437
-0.00434341
-0.0044871
-0.00528837
-0.00392284
-0.00481949
-0.00465402
-0.00468641
-0.0048606
-0.00382326
-0.00480373
-0.00469795
-0.00469479
-0.00529097
-0.00367805
-0.00370848
-0.00370251
-0.00368661
-0.00367572
-0.00365393
-0.00578284
-0.00369706
-0.00368352
-0.00368446
-0.0057849
-0.00370271
-0.00533031
-0.00596521
-0.00593385
-0.00520224
-0.00518554
-0.00485138
-0.00652945
-0.00956509
-0.014125
-0.0203662
-0.0283804
-0.0269971
-0.0240132
-0.0282384
-0.0276755
-0.026435
-0.0289812
-0.0342463
-0.0390562
-0.0437822
-0.0535549
-0.0441543
-0.0449633
-0.0353315
-0.0402162
-0.0328724
-0.0353259
-0.0358915
-0.0298285
-0.0402548
-0.0524181
-0.0668523
-0.0665991
-0.0668298
-0.0572445
-0.0528939
-0.055648
-0.0615238
-0.0519052
-0.0591512
-0.0851625
-0.0768707
-0.0752495
-0.0777752
-0.0496376
-0.0631368
-0.0662403
-0.079521
-0.0510711
-0.0653228
-0.0665204
-0.0799004
-0.0512907
-0.0645099
-0.0673688
-0.0797399
-0.052518
-0.0639717
-0.0718021
-0.0995225
-0.0789725
-0.0772391
-0.0978965
-0.0959619
-0.0762973
-0.0558872
-0.0786189
-0.0695904
-0.0619428
-0.0656716
-0.0698806
-0.0550025
-0.0725065
-0.0830419
-0.0562192
-0.0674275
-0.054562
-0.0566059
-0.0726147
-0.0621905
-0.0468916
-0.0574099
-0.0493427
-0.036763
-0.0431336
-0.0371984
-0.0272436
-0.0314793
-0.0269229
-0.0195171
-0.0222584
-0.0188141
-0.0135001
-0.0152799
-0.0127763
-0.00913467
-0.0102719
-0.00861965
-0.00608773
-0.00702583
-0.00604834
-0.00436356
-0.00515304
-0.00410612
-0.00462631
-0.00446634
-0.00507586
-0.00669405
-0.0075648
-0.00524679
-0.00637118
-0.00431967
-0.00513664
-0.00463989
-0.00326763
-0.00429971
-0.00445271
-0.00527516
-0.00449937
-0.00460373
-0.00521453
-0.00703753
-0.0101726
-0.0101804
-0.0149641
-0.021575
-0.0201752
-0.0194101
-0.0185991
-0.0205468
-0.0248175
-0.0236755
-0.0165828
-0.0178249
-0.0181206
-0.018876
-0.0188834
-0.0140741
-0.0154552
-0.0188153
-0.0172168
-0.0224898
-0.0269656
-0.0244971
-0.0316876
-0.0373643
-0.03362
-0.0430423
-0.0498063
-0.0442309
-0.0562239
-0.0472745
-0.047954
-0.0595687
-0.0597007
-0.0526369
-0.0402415
-0.0298127
-0.0213517
-0.014833
-0.0101128
-0.00699501
-0.00518245
-0.00458464
-0.00326864
-0.00445131
-0.00449375
-0.00458896
-0.0051897
-0.0070117
-0.0101452
-0.0148967
-0.0214507
-0.0299487
-0.0404232
-0.0527663
-0.0679537
-0.0674862
-0.0552151
-0.104977
-0.0772768
-0.0741139
-0.0665747
-0.0798742
-0.0513582
-0.0514969
-0.0559109
-0.0824734
-0.0532106
-0.0540253
-0.0550801
-0.0829313
-0.0534542
-0.0542635
-0.0547172
-0.082773
-0.0549223
-0.0558812
-0.0615032
-0.105211
-0.0799465
-0.0779958
-0.0783442
-0.0776687
-0.0622872
-0.0582289
-0.0617643
-0.104823
-0.0610692
-0.0633005
-0.0823853
-0.0654925
-0.0620235
-0.0639229
-0.0730804
-0.0545381
-0.0723009
-0.0723416
-0.0556699
-0.0734927
-0.0647129
-0.0620493
-0.0653977
-0.0717119
-0.0714705
-0.0720947
-0.0711509
-0.0620886
-0.0616666
-0.0671419
-0.0825361
-0.0708749
-0.0561898
-0.0754502
-0.0663372
-0.0561711
-0.0909648
-0.0490687
-0.064057
-0.0535775
-0.0623122
-0.0567812
-0.0445449
-0.0511272
-0.0448623
-0.0353229
-0.0388278
-0.0340042
-0.0257197
-0.0287781
-0.0244291
-0.018872
-0.0202662
-0.0172167
-0.0127232
-0.0140366
-0.0116005
-0.00879525
-0.00934385
-0.00789351
-0.00579725
-0.00632941
-0.00552168
-0.00416797
-0.00455339
-0.00314843
-0.00561107
-0.00406097
-0.00339099
-0.00622681
-0.00446205
-0.00466632
-0.00608766
-0.00442515
-0.0046062
-0.00598903
-0.00440365
-0.0045304
-0.00605234
-0.00448951
-0.00442976
-0.00607413
-0.00329203
-0.00433385
-0.0052849
-0.00457382
-0.00487165
-0.00633159
-0.00542521
-0.00705744
-0.00705529
-0.00648962
-0.00867053
-0.00760877
-0.0104087
-0.0110687
-0.00798923
-0.013704
-0.00937548
-0.0164103
-0.011805
-0.0201291
-0.0137211
-0.0238818
-0.0170386
-0.0288039
-0.0195071
-0.0336333
-0.0237792
-0.0397712
-0.0267436
-0.0457548
-0.0320263
-0.052966
-0.0353957
-0.0600643
-0.041589
-0.0672672
-0.0449433
-0.0528883
-0.0640114
-0.0625388
-0.0495017
-0.0575617
-0.042288
-0.0508044
-0.0493155
-0.0380563
-0.0440156
-0.0320364
-0.0381036
-0.0371035
-0.0282618
-0.0323916
-0.023387
-0.0275964
-0.0268768
-0.0202455
-0.0230356
-0.0164532
-0.0192585
-0.0188024
-0.0140348
-0.0158327
-0.0112424
-0.0130977
-0.0128037
-0.00950504
-0.0107047
-0.00755335
-0.00884675
-0.00870002
-0.00650644
-0.00728021
-0.00519223
-0.00650717
-0.00627062
-0.00488391
-0.00420476
-0.00380346
-0.00333461
-0.00446651
-0.00462565
-0.00410087
-0.00514504
-0.00434243
-0.0047177
-0.00422679
-0.00446326
-0.00449595
-0.00443445
-0.00526963
-0.00455949
-0.00475419
-0.00484383
-0.00635124
-0.00524216
-0.00755184
-0.00544227
-0.00928796
-0.00631229
-0.00840509
-0.00586709
-0.00582889
-0.00628973
-0.00517824
-0.00653983
-0.00400511
-0.00572726
-0.00399147
-0.00391975
-0.00480782
-0.00468521
-0.00464627
-0.00469151
-0.00469946
-0.00659428
-0.0052006
-0.00487419
-0.00654565
-0.00654888
-0.00653194
-0.00871508
-0.00871498
-0.00650695
-0.00836859
-0.00586474
-0.00584276
-0.00629562
-0.00543679
-0.00707947
-0.00868842
-0.00788822
-0.0104159
-0.0127935
-0.0117392
-0.0127781
-0.00958992
-0.00953842
-0.0141595
-0.0204136
-0.0203125
-0.0203962
-0.0141518
-0.00958588
-0.00951944
-0.0095572
-0.00652575
-0.00649448
-0.00705038
-0.00868247
-0.00929494
-0.0110782
-0.0137103
-0.0164225
-0.00938607
-0.012781
-0.00799294
-0.0102657
-0.00632325
-0.0086236
-0.00544809
-0.00702174
-0.006076
-0.00582064
-0.00788793
-0.0075669
-0.00938316
-0.0107054
-0.00951477
-0.0128075
-0.0116691
-0.0154001
-0.0154479
-0.0140498
-0.0187536
-0.0171458
-0.0224084
-0.0224173
-0.0202103
-0.0268072
-0.0243242
-0.0315242
-0.0315396
-0.028145
-0.0371199
-0.0322259
-0.042812
-0.0493851
-0.0424892
-0.056136
-0.062027
-0.0532392
-0.0591845
-0.0526576
-0.0405474
-0.0302166
-0.0216964
-0.0150546
-0.0101952
-0.00698209
-0.00590092
-0.00524057
-0.00374943
-0.00372811
-0.00374803
-0.00400262
-0.00658363
-0.0051969
-0.00519366
-0.00652469
-0.00399908
-0.00391556
-0.00481875
-0.00467875
-0.00492802
-0.00467839
-0.00654911
-0.00518122
-0.00484717
-0.00636265
-0.00524901
-0.00585374
-0.00577683
-0.00593481
-0.00528967
-0.00368566
-0.0036745
-0.00578457
-0.00365319
-0.00372021
-0.00573088
-0.00577838
-0.0065423
-0.00619358
-0.00477362
-0.00631597
-0.00652792
-0.00489242
-0.00626829
-0.00539811
-0.00708801
-0.00704279
-0.00652859
-0.0086798
-0.00787654
-0.0103961
-0.00951252
-0.01277
-0.0117026
-0.0154199
-0.0154066
-0.01399
-0.0187854
-0.0165633
-0.0224102
-0.026873
-0.0235222
-0.031533
-0.0282987
-0.0203126
-0.0140967
-0.0095505
-0.00652123
-0.00577224
-0.00593119
-0.0052856
-0.00569701
-0.00702106
-0.00578383
-0.00585806
-0.00577668
-0.00569866
-0.00701945
-0.00654235
-0.00651668
-0.0095824
-0.00951798
-0.0141477
-0.0140419
-0.0149254
-0.0214913
-0.0300159
-0.0301603
-0.0407373
-0.0380577
-0.0370364
-0.0488561
-0.0600751
-0.0515567
-0.0738619
-0.0564052
-0.107522
-0.0758388
-0.0744233
-0.0701127
-0.0860437
-0.0783333
-0.0810695
-0.0779369
-0.106861
-0.0748713
-0.0740104
-0.0665108
-0.0795214
-0.0512169
-0.0522511
-0.0565188
-0.0820259
-0.0529832
-0.0549294
-0.055884
-0.0824767
-0.0532279
-0.0550076
-0.0556775
-0.0823117
-0.0548068
-0.0562703
-0.0776275
-0.0589486
-0.0492481
-0.0491643
-0.056362
-0.0600814
-0.042853
-0.0537598
-0.035905
-0.0429636
-0.0518347
-0.0380739
-0.0490158
-0.0567467
-0.0494562
-0.0615354
-0.0668217
-0.0563427
-0.0527632
-0.0448357
-0.0550652
-0.0536134
-0.0692722
-0.0726425
-0.0713092
-0.0622778
-0.0492976
-0.0616631
-0.0547369
-0.061952
-0.0492324
-0.0616551
-0.0547893
-0.0620272
-0.049383
-0.0617314
-0.0725834
-0.0709797
-0.062194
-0.0578052
-0.0693211
-0.0829098
-0.0621649
-0.0787337
-0.0799342
-0.0767681
-0.0632712
-0.0610685
-0.0614908
-0.104275
-0.0617359
-0.068523
-0.100737
-0.0806515
-0.0772818
-0.0621846
-0.0609747
-0.0778292
-0.0558909
-0.0556913
-0.0771112
-0.0579093
-0.0527175
-0.0525358
-0.0405315
-0.0302294
-0.0217096
-0.0150639
-0.0102011
-0.00698569
-0.00590428
-0.00524511
-0.00365354
-0.00367715
-0.00480176
-0.00464667
-0.00468095
-0.00598498
-0.00460946
-0.00382632
-0.00396372
-0.00439675
-0.0040206
-0.00381741
-0.00446562
-0.0062356
-0.00467248
-0.00631645
-0.00442957
-0.00609341
-0.00492956
-0.00486027
-0.00467994
-0.0065274
-0.00400009
-0.00400445
-0.00573248
-0.00373972
-0.00373756
-0.00400564
-0.00399661
-0.00391172
-0.00449334
-0.00612916
-0.00449702
-0.00658222
-0.00519637
-0.00519332
-0.00477506
-0.00401251
-0.00473803
-0.00422112
-0.00447309
-0.00460124
-0.00520903
-0.00704254
-0.0101894
-0.0149601
-0.0215403
-0.0300722
-0.0405831
-0.0405265
-0.0529867
-0.0530816
-0.0674082
-0.0556883
-0.0588687
-0.0591739
-0.0955985
-0.0683535
-0.0748636
-0.0772185
-0.104695
-0.0550174
-0.0590871
-0.0592457
-0.0560701
-0.0600322
-0.0610679
-0.0939481
-0.0623277
-0.0643419
-0.0531175
-0.0612511
-0.0712737
-0.0587719
-0.0487725
-0.0529453
-0.0680598
-0.0678509
-0.0594532
-0.0597382
-0.0485564
-0.0361844
-0.0260361
-0.0182149
-0.0124255
-0.0122562
-0.00829436
-0.008296
-0.00582241
-0.00587217
-0.00649836
-0.00947315
-0.013954
-0.0201102
-0.0280693
-0.0377902
-0.0477639
-0.047075
-0.0472244
-0.0354351
-0.0256304
-0.0179571
-0.0179367
-0.0122513
-0.0124119
-0.00840587
-0.00869368
-0.00930182
-0.0110816
-0.0137202
-0.0164276
-0.0113226
-0.0128067
-0.0104188
-0.00761515
-0.00870585
-0.00652631
-0.00649845
-0.00705084
-0.00518376
-0.00654753
-0.0044136
-0.00485121
-0.00577495
-0.00585489
-0.00570971
-0.00376039
-0.00372724
-0.00482396
-0.00468216
-0.00472377
-0.00480121
-0.00365295
-0.0057869
-0.00480148
-0.00480815
-0.00392629
-0.00485974
-0.00480219
-0.00464017
-0.00467308
-0.00469
-0.0049243
-0.00467533
-0.00469073
-0.00482371
-0.0048593
-0.0037532
-0.00401968
-0.0043912
-0.00570425
-0.00396187
-0.00381985
-0.00585037
-0.00577999
-0.00593279
-0.00528479
-0.00569736
-0.0057817
-0.00654466
-0.00619571
-0.00545329
-0.00907328
-0.00800068
-0.00955828
-0.00949401
-0.0141103
-0.014009
-0.0154481
-0.0188365
-0.0201805
-0.0238909
-0.0289198
-0.0336543
-0.0236102
-0.0269823
-0.0224719
-0.0165954
-0.0189245
-0.0133867
-0.0118224
-0.019291
-0.01707
-0.020338
-0.0202124
-0.0203921
-0.0202615
-0.0284088
-0.0282932
-0.038113
-0.0380668
-0.0362576
-0.0325954
-0.0383661
-0.0368379
-0.026917
-0.0189617
-0.0129545
-0.0087128
-0.0085926
-0.00845421
-0.010247
-0.012765
-0.0125395
-0.0151321
-0.018673
-0.0183319
-0.0151337
-0.0102485
-0.00860224
-0.0085905
-0.00845053
-0.00705
-0.0102806
-0.0151788
-0.0218689
-0.0218068
-0.0264828
-0.0259757
-0.0303539
-0.0361993
-0.0354636
-0.0406587
-0.0474739
-0.0483471
-0.0491357
-0.0735758
-0.0519309
-0.0776291
-0.0588758
-0.0576075
-0.0742125
-0.0546617
-0.0767581
-0.0787535
-0.0811964
-0.0776715
-0.106071
-0.0748303
-0.0685786
-0.0644392
-0.0818134
-0.0827032
-0.061102
-0.0687533
-0.0793085
-0.082649
-0.0764579
-0.074807
-0.105456
-0.0780079
-0.0814432
-0.0816798
-0.0818908
-0.0814909
-0.0776953
-0.0818788
-0.0730233
-0.067372
-0.0797429
-0.0525464
-0.0512678
-0.0556877
-0.0823335
-0.0547624
-0.0537765
-0.0547288
-0.0828171
-0.0548281
-0.0540217
-0.0543552
-0.0826216
-0.0560588
-0.0616263
-0.104594
-0.0822362
-0.0769673
-0.0635025
-0.0609936
-0.0771276
-0.057879
-0.0527082
-0.0406634
-0.0303311
-0.0217874
-0.0151201
-0.0102403
-0.00701637
-0.00859239
-0.00870356
-0.00761792
-0.0104149
-0.0127931
-0.0113267
-0.01544
-0.0188188
-0.0201664
-0.0238832
-0.0289007
-0.0336442
-0.0195592
-0.0269349
-0.0170548
-0.0222587
-0.0137488
-0.0188227
-0.0118116
-0.015277
-0.0134836
-0.0129002
-0.0171554
-0.0164829
-0.0203726
-0.023026
-0.0202559
-0.0268711
-0.0242667
-0.0315804
-0.0315656
-0.028235
-0.0369469
-0.0332947
-0.0427932
-0.0379205
-0.0491314
-0.0438162
-0.0561144
-0.0562132
-0.0492452
-0.0620538
-0.0547817
-0.061806
-0.0618937
-0.0492664
-0.0561061
-0.0561526
-0.0617293
-0.0547233
-0.0577851
-0.0493594
-0.0380592
-0.0283552
-0.0203596
-0.0141318
-0.00957674
-0.0090693
-0.0133804
-0.0141082
-0.0140018
-0.0203342
-0.0202017
-0.0224577
-0.0269592
-0.0236173
-0.0316429
-0.0373627
-0.0400938
-0.0457731
-0.0537219
-0.0600939
-0.0359001
-0.0493731
-0.0322247
-0.0431428
-0.0269248
-0.0372167
-0.0238434
-0.0314851
-0.0272171
-0.02602
-0.0339158
-0.0322661
-0.0393656
-0.0437284
-0.038075
-0.0490191
-0.0437131
-0.056705
-0.0559252
-0.0493024
-0.0622259
-0.0544732
-0.0615632
-0.0667905
-0.0494647
-0.0563289
-0.0527147
-0.0550249
-0.0535764
-0.0569083
-0.0526704
-0.0447863
-0.0468538
-0.0574181
-0.0622263
-0.0418647
-0.0486478
-0.0376766
-0.0279803
-0.020044
-0.0139058
-0.00943832
-0.00647367
-0.00472272
-0.00422355
-0.00463065
-0.00410563
-0.00315192
-0.00380981
-0.00456004
-0.00420572
-0.00562168
-0.00338748
-0.0040519
-0.00527799
-0.00486006
-0.00438705
-0.00487942
-0.00628626
-0.00543126
-0.00704522
-0.00651217
-0.0086772
-0.00787029
-0.0104034
-0.0103815
-0.00948321
-0.0127783
-0.0113107
-0.0154204
-0.0124003
-0.0122435
-0.0127806
-0.00830574
-0.00869151
-0.00699352
-0.00698691
-0.0051568
-0.00456406
-0.00449612
-0.00459618
-0.00460572
-0.00449134
-0.00510072
-0.00418205
-0.00551976
-0.00520322
-0.0072798
-0.00651529
-0.00870145
-0.00784915
-0.0103835
-0.0104184
-0.00953176
-0.0127736
-0.0117101
-0.0154232
-0.0140234
-0.0187564
-0.0171369
-0.0224061
-0.0224038
-0.0201738
-0.0268084
-0.0252626
-0.0178517
-0.0187609
-0.0148122
-0.0147989
-0.0101029
-0.00836997
-0.00871863
-0.00587444
-0.00639434
-0.00517821
-0.00577845
-0.00634984
-0.00693464
-0.00699065
-0.00822148
-0.00887206
-0.0101843
-0.0087273
-0.0116491
-0.0112519
-0.0158459
-0.0140423
-0.0188055
-0.0170889
-0.0224028
-0.0224471
-0.0202492
-0.0267925
-0.0243346
-0.031536
-0.0281829
-0.0369913
-0.0332922
-0.0427903
-0.0428429
-0.0378901
-0.049126
-0.0380136
-0.036138
-0.0264275
-0.0259584
-0.0217945
-0.015125
-0.0102435
-0.0070189
-0.00845125
-0.00858923
-0.0127584
-0.0129379
-0.00958097
-0.0141388
-0.0203698
-0.0268464
-0.0264663
-0.0186615
-0.018324
-0.0125344
-0.012766
-0.00859651
-0.00788085
-0.00870014
-0.00651298
-0.00868917
-0.0104077
-0.00951629
-0.0127786
-0.0127906
-0.0104014
-0.010406
-0.0095341
-0.0127788
-0.0128114
-0.0104207
-0.00871668
-0.00652854
-0.00868512
-0.00707385
-0.00705139
-0.00705806
-0.00706242
-0.00652319
-0.00869899
-0.00868833
-0.0078783
-0.0103933
-0.0095274
-0.0127917
-0.012781
-0.0117134
-0.0154143
-0.0140466
-0.0187872
-0.0187624
-0.0187595
-0.0187751
-0.0140277
-0.0154336
-0.0154268
-0.0117165
-0.015429
-0.0140547
-0.018759
-0.0188145
-0.0154508
-0.0116792
-0.01281
-0.0131229
-0.00951511
-0.0103883
-0.00785549
-0.00870279
-0.00888084
-0.00651458
-0.00708954
-0.00704567
-0.00638933
-0.00487795
-0.00629081
-0.00543504
-0.00634874
-0.00487286
-0.00633791
-0.00543298
-0.00629639
-0.00487401
-0.00637447
-0.0070467
-0.00707274
-0.005396
-0.0058729
-0.00513348
-0.00455587
-0.00330066
-0.00457575
-0.0043597
-0.00446587
-0.00447457
-0.00328661
-0.00455302
-0.00452033
-0.00435402
-0.00458532
-0.00330251
-0.00609899
-0.00453477
-0.00442404
-0.00391412
-0.00528509
-0.00471614
-0.00457597
-0.00458363
-0.00470492
-0.00439652
-0.00484547
-0.0052726
-0.00381152
-0.00452984
-0.00609242
-0.00442481
-0.00652223
-0.0051904
-0.00654101
-0.00654391
-0.00958116
-0.0141399
-0.0186662
-0.0171546
-0.0224179
-0.0202137
-0.0268026
-0.0268291
-0.0267972
-0.0269068
-0.0202551
-0.0224275
-0.0224501
-0.0171046
-0.0188094
-0.0193143
-0.0140434
-0.0154091
-0.0158511
-0.0112643
-0.0116624
-0.0140134
-0.0129205
-0.0171737
-0.0203991
-0.0186766
-0.0245795
-0.028804
-0.0260572
-0.0339525
-0.0394086
-0.0350934
-0.0447453
-0.045597
-0.0408865
-0.0344901
-0.0303612
-0.0251526
-0.0217366
-0.0177308
-0.0150614
-0.0121428
-0.0101945
-0.00873723
-0.00939991
-0.0107069
-0.00757575
-0.00789383
-0.0063595
-0.00583188
-0.00694
-0.00822659
-0.00578015
-0.00552436
-0.00520923
-0.00653131
-0.00489065
-0.00626946
-0.005402
-0.0058808
-0.00517057
-0.00460651
-0.00339147
-0.00405954
-0.00562093
-0.00315342
-0.00456529
-0.00418404
-0.00510043
-0.00449196
-0.00381241
-0.00420746
-0.00485799
-0.00439421
-0.00527777
-0.00449572
-0.00455817
-0.00513868
-0.00696345
-0.00698107
-0.0101143
-0.0148513
-0.0213644
-0.0202573
-0.0268772
-0.0276765
-0.0230352
-0.0224168
-0.0180124
-0.0123499
-0.0083835
-0.00835347
-0.0100739
-0.0147571
-0.0211932
-0.0255226
-0.0242895
-0.0315664
-0.0282423
-0.036946
-0.0371865
-0.0370488
-0.0384293
-0.0282727
-0.0316015
-0.0323868
-0.0234721
-0.0195651
-0.0258696
-0.0255739
-0.0353124
-0.035746
-0.0373871
-0.0401213
-0.04578
-0.03225
-0.0361155
-0.0268843
-0.0238632
-0.0283401
-0.0282226
-0.0316682
-0.0380489
-0.0380261
-0.0430454
-0.0324428
-0.0367337
-0.0283686
-0.0380737
-0.0482832
-0.0475003
-0.0361864
-0.0354621
-0.0259662
-0.026462
-0.0303404
-0.0304314
-0.0303551
-0.0218084
-0.018691
-0.0186622
-0.0127597
-0.0125332
-0.0127595
-0.0129338
-0.0189179
-0.0166013
-0.0181753
-0.0124217
-0.0122713
-0.0123053
-0.0123636
-0.00832939
-0.00830831
-0.00582838
-0.00587209
-0.0044655
-0.00841038
-0.0180245
-0.0179663
-0.0256134
-0.0257128
-0.0258895
-0.0355082
-0.0353605
-0.0357849
-0.0258966
-0.0429987
-0.0499055
-0.0428662
-0.0562778
-0.0478172
-0.0471328
-0.059584
-0.0597726
-0.0587273
-0.0713789
-0.0960176
-0.0978512
-0.0558802
-0.0717827
-0.0995409
-0.0789552
-0.0623036
-0.0776467
-0.0785039
-0.063398
-0.0614781
-0.105388
-0.0804664
-0.0778547
-0.101273
-0.0866108
-0.086697
-0.0817029
-0.0787731
-0.0548975
-0.0769463
-0.0577186
-0.0525982
-0.0406592
-0.0362279
-0.0265065
-0.0264653
-0.0284115
-0.0283337
-0.028206
-0.0380401
-0.038005
-0.0361006
-0.0268716
-0.0192815
-0.027653
-0.0323731
-0.0282705
-0.0370427
-0.0332307
-0.0430311
-0.0427753
-0.0379827
-0.0490153
-0.0437906
-0.0491458
-0.0380469
-0.0283465
-0.0264488
-0.0268364
-0.0367208
-0.0324527
-0.0361833
-0.0354578
-0.0259629
-0.0183218
-0.0186567
-0.0141304
-0.00957476
-0.00653923
-0.00870503
-0.00832807
-0.0104014
-0.00584665
-0.0070734
-0.00635383
-0.00451995
-0.00471971
-0.00448091
-0.00325796
-0.00457718
-0.00517528
-0.0122719
-0.0123281
-0.0128098
-0.0101252
-0.0121342
-0.013994
-0.0150461
-0.0148661
-0.0177179
-0.0192971
-0.0217148
-0.0186506
-0.0245523
-0.0234459
-0.0287682
-0.0251336
-0.0303311
-0.0298146
-0.0213856
-0.0179792
-0.0188093
-0.0178891
-0.0187726
-0.0212544
-0.0254743
-0.026897
-0.025314
-0.031538
-0.0295851
-0.0348454
-0.0371691
-0.0344659
-0.0383989
-0.0408496
-0.035047
-0.0447025
-0.0429273
-0.051801
-0.0455722
-0.0401661
-0.0521865
-0.0627387
-0.0624273
-0.0623251
-0.0672633
-0.0638264
-0.0571986
-0.045861
-0.0494711
-0.0397679
-0.0516183
-0.0621736
-0.0683593
-0.0649582
-0.05671
-0.0452877
-0.0345315
-0.0428284
-0.0370111
-0.0296063
-0.0212709
-0.0397972
-0.0516877
-0.0623237
-0.0686924
-0.0650129
-0.0567093
-0.0452369
-0.0344677
-0.0369903
-0.0350294
-0.0256293
-0.0180943
-0.0138778
-0.00942655
-0.00646481
-0.00604615
-0.00920563
-0.0199791
-0.0278059
-0.0373267
-0.0460914
-0.0574639
-0.0626869
-0.0699262
-0.0647102
-0.0525749
-0.0587065
-0.0633702
-0.0621781
-0.051761
-0.051413
-0.0396253
-0.0294759
-0.0211718
-0.0147392
-0.0100598
-0.00695375
-0.00695454
-0.00514164
-0.00586117
-0.00585858
-0.0045178
-0.00528327
-0.00448836
-0.00460087
-0.00515975
-0.00696458
-0.00837548
-0.00784806
-0.0103692
-0.0104203
-0.00957625
-0.00859394
-0.00844833
-0.005696
-0.008583
-0.00869908
-0.00618962
-0.00476979
-0.00631056
-0.00668513
-0.00438888
-0.00906495
-0.0129281
-0.0127624
-0.0125296
-0.0127468
-0.0186391
-0.0183169
-0.0186616
-0.0141326
-0.020363
-0.0203691
-0.0283628
-0.0361716
-0.0333101
-0.0370245
-0.0281836
-0.0369683
-0.042851
-0.037915
-0.0490575
-0.0491737
-0.042767
-0.0428727
-0.037987
-0.0489948
-0.049499
-0.042767
-0.0332614
-0.0430607
-0.043745
-0.0323013
-0.0269316
-0.0349113
-0.029785
-0.0401258
-0.0521276
-0.0527008
-0.0569183
-0.0624237
-0.0623381
-0.0626721
-0.0672877
-0.0638188
-0.0572656
-0.0459409
-0.0396517
-0.0294997
-0.034633
-0.0253914
-0.0315676
-0.0315305
-0.0315619
-0.031533
-0.0282444
-0.037078
-0.0369928
-0.0333112
-0.0428072
-0.0380171
-0.0492564
-0.0491343
-0.0438276
-0.0560929
-0.0563253
-0.0561893
-0.0437682
-0.0482989
-0.047542
-0.0406734
-0.0407528
-0.0464565
-0.0525978
-0.049259
-0.0492446
-0.073942
-0.0541367
-0.0514212
-0.0767867
-0.0786691
-0.0816312
-0.0777245
-0.0815845
-0.0819285
-0.0783082
-0.0539402
-0.0758617
-0.0560114
-0.0745712
-0.0748966
-0.0745774
-0.0747856
-0.0740341
-0.063934
-0.0809214
-0.105499
-0.0561975
-0.0783196
-0.0857412
-0.0814737
-0.0867305
-0.0812982
-0.0772542
-0.102554
-0.0808397
-0.0562653
-0.0617118
-0.104888
-0.0611274
-0.07698
-0.0560124
-0.0751804
-0.05614
-0.0527105
-0.0464889
-0.0474951
-0.0475045
-0.0482695
-0.0474853
-0.0361555
-0.0474974
-0.0465312
-0.0354629
-0.0361776
-0.0264582
-0.026821
-0.0283662
-0.0381004
-0.0380627
-0.0475002
-0.049369
-0.0467535
-0.0418898
-0.0685217
-0.0468527
-0.0597369
-0.0626328
-0.056044
-0.0595135
-0.0655578
-0.0740295
-0.0538949
-0.0512498
-0.0769668
-0.0577234
-0.0561436
-0.0747809
-0.0537678
-0.0760541
-0.0784118
-0.0787444
-0.0818229
-0.0731648
-0.080887
-0.105433
-0.078311
-0.0814968
-0.0817143
-0.0818284
-0.0820459
-0.0784065
-0.0542688
-0.0760533
-0.0803581
-0.0818799
-0.0803032
-0.0785231
-0.0541176
-0.0762496
-0.0562752
-0.0751751
-0.0753718
-0.0677812
-0.0493952
-0.0493673
-0.0676383
-0.0673133
-0.0469306
-0.0495019
-0.0493735
-0.0577924
-0.0672829
-0.0675533
-0.0678256
-0.0625167
-0.0741829
-0.0563178
-0.0450939
-0.0399459
-0.0297087
-0.0213251
-0.0148252
-0.0100931
-0.0123414
-0.015448
-0.0153878
-0.0116707
-0.0133776
-0.0189087
-0.0170912
-0.022381
-0.0224531
-0.0202488
-0.0268609
-0.0268099
-0.0224067
-0.0171506
-0.02243
-0.0179396
-0.0147348
-0.0100627
-0.0123102
-0.0123071
-0.00835088
-0.0179445
-0.0211534
-0.0294396
-0.0395668
-0.0454055
-0.0562221
-0.0560236
-0.0562142
-0.0453703
-0.0346066
-0.0253795
-0.0243422
-0.0254759
-0.0315967
-0.0315232
-0.0242687
-0.0268631
-0.0192739
-0.0367038
-0.033234
-0.0428371
-0.0429118
-0.0347782
-0.0342739
-0.0250749
-0.0176974
-0.0121222
-0.00820723
-0.00576492
-0.00448264
-0.00509052
-0.00692571
-0.0101821
-0.0150398
-0.0179969
-0.0217112
-0.0302674
-0.0407042
-0.0456783
-0.0570811
-0.0546355
-0.0568107
-0.0513404
-0.0514554
-0.0619964
-0.0682928
-0.0649228
-0.0568138
-0.0619021
-0.0681217
-0.0651445
-0.0618935
-0.0691958
-0.0649523
-0.0690309
-0.0361052
-0.043804
-0.0558878
-0.0437468
-0.052425
-0.0631384
-0.0769621
-0.0804027
-0.080831
-0.0857289
-0.0812823
-0.086703
-0.0866923
-0.0865871
-0.0804822
-0.0817267
-0.0864198
-0.102441
-0.0823456
-0.0868169
-0.093209
-0.0915135
-0.102988
-0.103038
-0.101457