/*--------------------------------*- C++ -*----------------------------------*\
| =========                 |                                                 |
| \\      /  F ield         | OpenFOAM: The Open Source CFD Toolbox           |
|  \\    /   O peration     | Version:  2306                                  |
|   \\  /    A nd           | Website:  www.openfoam.com                      |
|    \\/     M anipulation  |                                                 |
\*---------------------------------------------------------------------------*/
FoamFile
{
    version     2.0;
    format      ascii;
    arch        "LSB;label=32;scalar=64";
    class       volScalarField;
    location    "2.2";
    object      gradTy;
}
// * * * * * * * * * * * * * * * * * * * * * * * * * * * * * * * * * * * * * //

dimensions      [0 -1 0 1 0 0 0];

internalField   nonuniform List<scalar> 
5322
(
0.0464929
0.00555274
0.00141306
0.000505411
0.00119145
0.00139595
0.00125073
0.00101571
0.000797179
0.00058009
0.000185697
-0.000913919
-0.000928095
-0.000848681
-0.000763661
0.00172924
0.00228303
-2.3112e-05
0.00176233
-0.0025246
0.00277144
-0.00356337
0.00408584
-0.00529742
0.00616226
-0.00753813
0.00864938
-0.0107868
0.0122172
-0.014417
0.0161888
-0.0189129
0.0214949
-0.021004
0.0215074
-0.0122046
0.0245245
0.0298869
0.0151136
0.0169694
0.0220856
0.0185524
0.0198612
0.0206424
0.0196892
0.0202489
0.0200042
0.0213829
0.0206091
0.0189984
0.023983
0.0107167
0.0125617
-0.0387577
-0.00187839
-0.0222571
0.0122646
-0.0289883
-0.00137509
-0.0251861
0.0124458
-0.0284859
-0.00122231
-0.0250024
0.0125019
-0.0295488
-0.00167937
-0.024259
0.0126839
-0.0329691
0.000989672
0.0256776
0.0142484
0.0199792
0.0148569
0.0188826
0.0157092
0.0188281
0.0160214
0.0224719
0.00166381
0.00874391
0.0127955
0.0203555
-0.00132278
-0.00735273
0.00269793
0.00512137
0.010946
0.00158546
0.00294213
0.000525922
7.28597e-05
7.00354e-05
0.0250532
-0.0144246
0.000469825
0.0145807
0.000448811
-0.000753888
0.0026443
0.000471014
0.015588
-0.0243654
0.0218653
0.000513505
-0.000488805
-6.07562e-05
1.41268e-05
4.75269e-05
4.39107e-05
3.36532e-05
2.68762e-05
2.25704e-05
-9.84657e-06
9.15986e-06
0.000644049
-0.000246819
-0.00010189
-0.000476433
0.000593996
-0.000299879
-0.000602098
-0.000837797
-0.000940178
-3.6567e-05
0.000700368
-0.000521944
5.07662e-05
0.000574403
-0.000570445
2.46775e-05
0.000596408
-0.000611963
-2.01055e-05
0.000555318
-0.000668032
-5.46815e-05
-0.000168149
0.0010273
0.000842023
-0.000580082
0.000380341
0.000294702
-0.000629681
8.1668e-05
-0.000605061
0.000472092
0.000492638
-0.000545043
-7.52526e-06
-0.000498756
0.000503635
0.000554032
-0.000489869
-1.20296e-06
-0.000460533
0.000595263
-2.88619e-05
-1.6548e-05
0.0019463
-0.00151384
0.00189506
-0.00235531
0.000101662
-0.00123173
1.25068e-05
6.72792e-05
-0.000180303
0.000521975
-0.00104149
0.00104013
-0.00186229
6.42149e-06
0.00190727
-0.00213241
0.00222002
-0.00264324
1.36883e-05
0.00260997
-0.00320286
0.00332318
-0.00400387
1.8857e-05
0.00392576
-0.00481242
0.00497773
-0.00600052
2.3511e-05
0.00588288
-0.00712647
0.00736463
-0.0087674
3.39639e-05
0.00860112
-0.0102695
0.0106119
-0.0123858
5.31786e-05
0.0121473
-0.0143224
0.0147976
-0.0168223
7.72068e-05
0.0164532
-0.0192045
0.0198164
-0.0215947
0.000108534
0.0209939
-0.0244347
0.0246401
-0.0144651
-9.81637e-05
-0.00156707
0.00077273
-0.000490113
-2.32029e-05
0.000137832
0.000217026
1.60609e-05
0.0250828
-0.0144058
7.36881e-05
0.0172983
-0.00263824
-0.00111424
0.000961076
-0.000969076
0.014493
-0.0247046
0.000154001
0.000109792
0.000308523
0.000168461
7.02369e-05
2.13506e-05
3.23152e-07
-1.03031e-05
-1.59135e-05
1.3617e-05
-8.78598e-06
-0.000514985
-0.000551285
-0.000552493
-0.000515114
0.000123199
0.000168128
9.8271e-05
-0.000676683
0.000326833
-0.000691022
0.000167641
0.000123452
9.93901e-05
-0.000682807
0.000223929
0.000647576
0.000407465
-0.000676691
0.000327842
0.0007033
0.000984341
0.00106083
-0.00188141
-0.0018785
-0.00201781
0.00167023
-0.00237685
0.00264433
-0.00339938
0.00403535
-0.00502029
0.00601284
-0.00734297
0.00865227
-0.0105102
0.0119659
-0.0146452
0.0158854
-0.019594
0.020031
-0.00369363
0.0121198
-0.002212
0.000334472
0.0173451
-0.0180336
0.00090237
0.0144009
-0.0138413
0.0006414
0.0110859
-0.00999799
0.00047221
0.00809661
-0.00697612
0.00034558
0.00564261
-0.00475822
0.000239924
0.00377011
-0.00321566
0.000152454
0.00243045
-0.00224637
0.000165819
0.00146593
-0.000140316
0.00146564
-0.00224685
0.000165961
0.0016777
-0.00200819
0.000773195
0.00123407
0.000900335
0.000859321
-0.00176641
0.00132831
-0.00214294
0.00232591
-0.00305511
0.00364546
-0.00452646
0.00547212
-0.0066542
0.00787537
-0.00959809
0.0108789
-0.0134078
0.0143876
-0.0174031
0.017607
-0.00209745
0.00904378
-0.00740209
0.000709337
0.0243288
-0.0254083
0.00117352
0.0208053
-0.0188888
0.000757382
0.015782
-0.013332
0.000507388
0.0113654
-0.00924441
0.000356915
0.00792026
-0.00629471
0.000242645
0.00536454
-0.00423493
0.000158334
0.00356083
-0.00294095
0.000177602
0.00225048
-0.002249
0.000765695
0.00172586
0.0015151
-0.000758018
0.00161185
-0.000371125
0.000241719
0.00185305
-0.00161868
0.00169827
-0.00187753
0.00301536
-0.00266376
-2.41356e-05
-0.0025535
0.00218491
-0.00197466
4.99275e-05
0.00206185
8.61079e-05
1.89156e-05
-0.000551452
5.17215e-05
-4.36299e-05
2.92882e-05
-1.3876e-05
-5.98297e-06
0.00189927
-0.00190214
0.00216049
-0.00261218
3.60531e-06
0.00324435
-0.00393351
0.00487866
-0.0058912
1.68166e-05
0.00723487
-0.00860317
0.0104448
-0.012134
3.51884e-05
0.0145844
-0.0164208
0.0195158
-0.0209892
-3.52456e-05
3.75029e-05
5.98455e-05
0.0001707
8.74954e-05
8.84369e-05
0.0147372
-0.0164148
7.58459e-05
0.0195003
-0.0222701
0.0199022
-0.0207917
0.000195999
0.0253742
-0.0273611
0.0175724
-0.0132393
-0.0243069
-0.00186219
-2.9134e-05
-0.00872794
-0.00234497
0.00037694
0.0129107
0.0159134
0.00104679
-0.0215878
0.014558
-2.37776e-05
-0.013407
0.0107533
-0.00017528
-0.0090087
0.0076731
-0.000123013
-0.00602137
0.00524512
-0.000125839
-0.00406456
0.0036539
-0.000117054
-0.00260415
0.00255596
-0.000178958
-0.00167246
0.000438242
0.000710596
-0.00106476
-4.96291e-05
0.00187928
-0.00205575
0.00233794
-0.00278676
0.00345161
-0.00416132
0.00675316
-0.00592784
-2.5961e-05
-0.00559947
0.0048804
-0.00397219
-2.96509e-05
0.00451027
1.82961e-05
-6.78834e-05
-3.88852e-05
-0.00015685
-0.00028515
7.44373e-05
0.000154683
4.24309e-05
0.000101265
0.000139228
7.68232e-05
-0.000101925
0.00163595
0.000521706
9.95507e-05
0.000407281
1.06863e-05
-0.000119227
-8.13813e-05
0.000103453
0.000144959
-0.00013907
-0.000231688
-0.00320041
-0.0001299
0.00374461
-0.00478664
0.00508705
-0.0060758
0.00738037
-0.00859288
0.0141173
-0.012173
7.72189e-06
-0.011891
0.0104921
-0.00864361
-1.70742e-05
0.00990271
6.37825e-05
-8.18796e-05
-8.35527e-05
4.46312e-05
-0.000814224
-0.000382964
-0.00027106
-0.000541101
-0.000184895
-0.000133855
0.00256985
-7.88005e-05
-7.52094e-05
0.000265553
-0.000535981
-0.000167669
0.000923015
0.00173239
0.00314735
0.000223395
-3.02602e-05
0.000132389
2.85412e-05
-0.00236428
-8.09592e-05
0.00266136
0.00242789
-0.00321163
0.000152961
-0.00339162
-0.00014237
0.00405635
0.00376963
-0.00474752
0.000241356
-0.00502957
-0.000213238
0.00602494
0.00565401
-0.00695927
0.000348682
-0.0073887
-0.000192928
0.00862739
0.00814277
-0.00998498
0.000479422
-0.0106332
0.000140182
0.0117996
0.0112369
-0.0138912
0.000656461
-0.0148623
0.00136676
0.0152451
0.0148398
-0.018371
0.000926565
-0.0196152
0.00495457
0.0183726
0.0183705
-0.00277752
0.000346967
-0.00335148
0.0579554
-0.0281131
-0.0290072
0.0432411
0.0113934
0.0041002
-0.034493
-0.00797398
-0.00482455
0.0151359
-0.0158712
-0.000302063
0.000657074
-0.00283968
-0.00322919
-0.000640012
0.000870215
0.000482814
-0.000180751
-0.000546735
-0.00017658
0.000247458
6.91945e-05
3.61437e-05
1.56784e-05
-4.73864e-06
-2.24457e-05
-8.45353e-05
-4.19833e-05
0.00107324
-0.00107333
1.06365e-05
7.60131e-06
-0.00109232
0.00107606
-2.53301e-06
4.27814e-06
-4.36096e-06
-8.08039e-05
-5.12734e-05
0.000195185
1.49295e-05
0.000224392
-7.88773e-05
-9.72373e-05
-2.16885e-06
0.000367522
-0.000431401
0.000436061
-0.000363098
-0.000368742
-0.000310214
1.38401e-05
0.000433368
0.000384805
-0.000381458
-1.06481e-05
-0.0004338
9.91949e-07
2.16481e-06
1.9057e-05
2.45088e-05
1.85152e-05
-0.000181599
-7.05687e-05
-0.000128782
-0.000175083
-0.000183875
-7.55694e-05
-2.98816e-05
0.000924926
-0.00202449
-0.000848432
-0.000151319
0.00822797
-0.00929263
0.010418
-0.0119277
0.01412
-0.000596329
-0.0131177
-0.000432238
0.0120153
-0.000292601
-0.00112947
0.000188513
0.000134429
0.000258296
0.000301737
-0.000265349
-0.00324936
0.0111639
-0.00531373
-0.0189278
-0.00288178
-0.00343277
-0.0437893
-0.0123666
0.0016043
-0.0184201
0.013333
0.000661552
0.000607308
0.0161139
0.0134878
0.00174223
-0.00155415
0.0177357
0.0159553
0.00184946
-0.00185437
0.0161353
0.0181584
0.00172658
-0.00416271
0.0134517
0.0184081
-0.00655771
0.0105438
-0.00916036
0.00979443
-0.0384273
-0.0207676
0.0033643
-0.0095024
0.0183996
-0.00115541
-0.0298547
0.0170586
-0.00032315
-0.0201443
-0.0200384
-0.0288068
0.00993895
-0.0151458
-0.0101257
0.015828
-0.028231
-0.00411457
0.0180426
-0.0187461
-0.00138909
0.0145491
-0.0127136
-0.000724683
0.0107142
-0.00879438
-0.000545538
0.0075565
-0.00605389
-0.00040986
0.00519074
-0.00409104
-0.000253757
0.00351881
-0.00274559
-4.10145e-05
0.00248688
-0.00176353
0.000390598
0.00159153
-0.000790153
0.00150637
0.00172272
-0.00227056
0.00224472
-0.00297062
0.000180316
0.00132404
-0.00176798
0.00076433
0.000854554
0.000907287
0.00123336
0.00105851
0.00077247
0.00151036
0.000917094
-0.000189553
-0.000576691
-0.000783657
-0.000763045
-0.00106197
-0.00158568
-0.00121641
-0.00056733
-0.000306662
0.00554411
-0.00673646
-0.000228591
-0.00017368
-0.000331282
3.24027e-05
-0.00826172
0.00724692
2.70707e-05
0.00599429
-0.00727189
2.8217e-05
0.00877889
-0.0104704
5.77953e-05
0.0124275
-0.0145803
0.000106117
0.0168793
-0.0194806
0.000142559
0.021509
0.000167348
0.00037551
1.64437e-05
-2.31403e-05
-7.39942e-05
1.20134e-05
3.1244e-05
2.44855e-05
1.50568e-05
7.19534e-06
2.73941e-06
1.59182e-06
9.77205e-06
2.91178e-05
-0.00104605
1.77927e-05
5.64963e-05
-5.9606e-06
-9.98598e-06
-1.54799e-05
-2.22516e-05
-3.66287e-05
-7.02043e-05
-0.000136293
-0.000183199
0.000751581
-0.000221608
-0.000582223
-0.00079306
0.0154532
-0.0165364
0.0196006
2.16433e-05
-0.00273586
0.00228132
0.00711552
2.76541e-05
-0.00639018
0.00598424
0.00610873
8.83003e-06
-0.00680781
0.00635918
0.0054894
-7.69965e-06
-0.00858699
0.00814708
0.00768367
-0.000165268
0.0106752
-0.0112299
0.0109519
-0.0117635
-0.00110006
-0.00594937
0.00845442
-0.000750338
-0.00813616
-0.000189473
-5.8573e-05
0.028204
-9.07654e-05
-0.0283828
0.0177361
-0.000633023
-0.018346
0.0183911
-0.0004088
-0.0192733
0.0285779
-0.000277711
-0.0285939
0.0252716
-0.0251825
0.0250164
-0.0256368
0.000112236
-0.0282849
0.0279672
-3.19522e-05
-0.0183874
-0.000702441
0.018541
-0.0158238
9.85733e-05
0.0281105
0.0101688
0.027444
0.0101709
-0.0120642
0.0176794
0.00225548
-0.0131238
0.0130657
0.000867273
-0.0104747
0.0095767
0.000587419
-0.00772339
0.00696085
0.000420962
-0.00548736
0.00480222
0.000309912
-0.00378422
0.00329183
0.000152317
-0.00258505
0.0021037
-6.70262e-05
-0.001888
0.00114199
-0.000677049
-0.00185915
-0.000526643
-0.00163892
0.00108214
0.00010207
5.44963e-05
0.000670819
0.000171497
-0.00103623
-0.000844658
-0.000223622
-0.000656978
-0.000414968
-0.000320005
-0.000728423
-0.000350976
-0.000373999
-0.000723062
-0.00106202
-0.00112348
-0.000768651
0.00200208
0.000135922
-0.00134111
-0.000162934
0.00210898
0.00248308
6.75226e-05
-0.00221885
-0.000152219
0.00295077
0.00432228
-1.138e-06
-0.0054093
0.000102888
0.00638246
-4.65816e-05
-0.00798879
0.000160168
0.00926865
-7.28738e-05
-0.0114608
0.000148467
0.0130346
-9.69514e-05
-0.0158765
0.000203578
0.0176458
-0.000180113
-0.0212466
4.60805e-05
0.0227116
-0.000496156
-0.0274838
-0.000752027
0.000561345
-0.0166707
0.027193
0.000157094
0.0155516
0.000354093
-0.013223
0.0216988
-4.14789e-05
0.0117027
0.000304164
-0.0100012
0.0163933
-3.53767e-05
0.00859811
0.000242495
-0.00722269
0.0118934
-1.97636e-05
0.00608789
0.00020292
-0.00505939
0.00832039
-1.23452e-05
0.00418896
0.000142554
-0.00343655
0.00565639
-6.87142e-06
0.00280146
9.86549e-05
-0.00234102
0.00380102
-1.45298e-05
0.00190162
5.98873e-05
-0.0017024
0.00258447
-8.1913e-05
0.00162943
-0.000237565
0.000374757
-0.00172844
-0.00150526
0.00078338
-0.00160746
-0.00040086
-0.000192687
-0.00315638
-0.00173822
-0.00152468
-0.0010274
-0.000771023
0.00179221
0.00206947
0.000173375
-0.00127061
-0.000176259
0.00300711
6.77039e-05
-0.00358841
0.000109827
-0.000241352
-0.000116459
-2.48118e-05
-0.00175669
-1.80101e-05
0.000685263
-8.93583e-05
-0.000118608
-0.000181264
0.000681891
-0.000220954
9.20133e-05
8.06414e-05
2.62001e-06
6.29959e-06
5.71068e-06
5.76313e-06
4.80571e-06
5.68008e-06
-8.58996e-06
-2.79889e-06
0.00324686
-0.00375754
2.06087e-05
-6.41378e-06
-2.66649e-05
2.18574e-06
-0.00220814
1.17382e-06
0.00263351
-0.00328574
4.71415e-06
0.003991
-0.00491761
1.26306e-05
1.02042e-05
-5.66745e-07
1.13295e-05
1.27513e-05
3.75254e-05
5.05998e-05
3.26492e-05
1.9229e-05
1.06848e-05
8.37378e-06
1.86436e-05
1.45935e-05
6.50274e-07
0.00259764
-0.00314289
0.00284013
-0.00347506
0.00424173
-0.00515972
7.54502e-05
-0.00201588
8.34037e-05
0.00188602
9.12525e-05
-0.00144949
4.97487e-05
0.00111921
-8.52666e-05
-3.29161e-05
0.000398739
-2.46002e-05
-0.000658627
0.00432281
7.35993e-05
-0.00334815
-0.000227421
0.00411535
0.00539084
0.000232936
-0.00515615
-0.000313544
0.00626724
0.00758679
0.000370373
-0.00747151
-0.000424924
0.00872773
0.0106822
0.000500728
-0.0104985
-0.000557744
0.0115518
-0.0141297
-0.000697857
0.0141934
-0.0185297
-5.50157e-05
-0.000632992
-0.000129661
-2.67393e-05
2.33066e-05
3.15906e-05
2.80564e-05
2.51322e-05
2.32467e-05
-1.03811e-05
9.53098e-06
0.000516501
0.000548822
0.000554576
-0.000146667
0.000699313
-2.1087e-05
-2.5185e-05
0.000719846
-0.000127277
0.000681281
-0.000215125
2.778e-05
-5.64007e-05
5.73115e-05
-1.41816e-05
2.13763e-05
-5.69516e-06
-0.00211962
8.17172e-05
5.59322e-05
1.75364e-05
3.17064e-06
9.26692e-07
-0.000381634
0.000381679
1.39669e-05
-0.000315864
0.000504089
-0.000116646
3.65992e-05
5.94464e-05
1.04125e-05
-7.20407e-05
0.000697139
-0.00208531
0.000135934
-0.00141086
-0.000175392
0.00205208
0.00253652
3.90058e-05
-0.00225447
-0.000143574
0.00356061
0.000118131
-0.00343663
-0.000224215
0.00435788
0.005276
0.000235977
-0.00521501
-0.000322226
0.00624775
-0.00753889
-0.000432965
0.00870684
0.000347198
0.000275987
0.000203574
0.00013573
7.134e-05
3.73385e-05
-1.69854e-05
2.79567e-06
1.81217e-05
4.86105e-06
-9.54169e-06
-4.80908e-05
-3.3147e-05
-1.21253e-05
-1.33819e-05
-6.33663e-05
-5.14239e-05
-0.000127915
-0.000119884
-0.000181753
-0.000206486
-0.00104588
-0.00152065
-0.00242542
-0.00262565
-0.004732
-0.00405195
-0.00233469
-0.00871215
-0.0262217
0.00167644
-0.0416569
-0.0310266
-0.0233559
-0.015585
-0.0137649
0.00522646
-0.0121824
-0.00075815
0.00307409
0.000311105
-0.000211346
0.0148843
-0.0173255
0.0199552
0.000181488
-0.00245398
0.00373766
0.00826359
0.000304162
-0.0057502
0.00773553
0.00772453
0.000319916
-0.00614835
0.00797244
0.00725525
0.000235547
-0.00823486
0.00907074
-0.000413581
0.000331985
0.000671514
0.00401025
-0.0170195
-0.0245142
0.000973593
0.0208461
0.000465628
0.000205601
0.0132023
0.000144609
-0.0216159
0.0247715
8.95768e-06
-0.02652
0.0156498
-0.0159795
0.0139953
-0.00245981
-0.0174357
0.00060701
-0.0208961
0.028632
-0.0250681
0.0233974
-5.05917e-05
-0.0234339
3.61537e-05
0.0232135
-6.97213e-05
-0.0233173
1.39221e-05
0.0234221
-8.16083e-05
-0.0235101
0.0255069
-0.0292416
0.00198611
-0.0225675
0.0311014
0.0016101
0.000897739
-0.00982688
0.0104978
-0.0108639
3.19895e-05
-0.00817007
0.00751837
0.000537822
-0.00934218
0.00674441
-0.00789544
0.00062797
0.0152326
-0.00852626
0.00507954
0.00110262
-0.009554
0.00754729
-0.000163875
-0.000144854
-7.50261e-06
0.000253802
0.000128677
4.72854e-05
1.02118e-05
-4.30588e-06
-1.17424e-05
-1.60998e-05
1.34378e-05
-7.97052e-06
0.000314165
0.000367003
1.01835e-06
-8.41244e-05
-5.19777e-05
0.000652349
0.000224411
-0.000579247
0.000294275
0.000380152
-0.000612008
1.30986e-05
-0.000671624
-5.38383e-05
-0.000170875
-0.000561637
0.000845493
0.00103937
5.33956e-05
0.000196032
-4.70505e-05
2.72982e-05
0.000475689
-0.000511492
-5.16051e-06
-0.000548383
0.000549317
0.000513811
-0.000472934
-1.68829e-06
-0.000617985
1.31117e-07
0.000618755
6.65964e-07
1.86714e-06
-1.54968e-05
1.88689e-05
3.99419e-05
0.000178717
0.00314473
0.00173039
0.000905984
-0.000191765
-0.000575309
-0.000801441
-0.00107914
-0.00154025
-0.00239134
-0.0040654
-0.00416277
-0.00798923
-0.00872631
-0.0186791
-0.030628
-0.0276539
-0.0278074
0.0115803
-0.0166557
-0.00801672
-0.00866603
-0.025405
-0.0312451
-0.0281439
-0.0281569
-0.0281019
-0.0279881
-0.0319557
0.0117349
-0.00182545
-0.00696308
0.0353119
-0.0100693
-0.0231985
-0.0217048
-0.00626219
-0.00764869
-0.017461
-0.0180985
-0.00270604
-0.00471716
0.000170003
0.000752654
0.000746849
0.000583093
0.000420109
0.000322168
0.000180738
0.000173756
2.33346e-05
0.000113854
-0.000352813
-0.000596833
-0.000834558
-0.00116539
-0.00174079
-0.0029998
0.000626879
0.000432686
0.000344381
0.000573507
0.000581103
0.000465452
0.000459291
0.000314835
0.000396902
0.000242465
0.00231901
0.00353554
-0.00425497
0.0053258
-0.00629039
0.000243575
0.00362855
-0.00306576
0.000160718
-9.96192e-06
-6.51282e-05
-5.66428e-05
-0.00214984
2.22086e-05
-0.000687092
0.000409992
-0.00016504
-3.30639e-05
-4.82408e-05
8.07293e-05
-0.000631223
0.000491047
-3.12424e-06
-1.23486e-06
-1.21622e-06
7.91086e-07
0.000314225
-1.0168e-05
2.08775e-06
1.88873e-06
1.21997e-06
-0.000195004
1.6696e-06
8.12952e-05
5.06039e-05
6.68772e-05
-5.23776e-05
4.64318e-05
-4.05879e-07
5.21852e-06
-0.000194512
0.000631517
0.000613614
-0.000376859
-7.83413e-05
-0.000298381
0.00058332
5.25049e-05
1.59135e-05
2.14604e-06
9.0351e-07
-1.23286e-05
-1.00689e-05
-9.29396e-06
-3.78262e-05
-3.68786e-05
-6.70552e-05
2.81713e-05
-0.000123859
-0.000116992
-0.00017456
-0.000198677
-0.00453311
0.0054377
0.0078718
-0.00919196
0.0112954
-0.0131306
0.000482764
0.00780719
-0.00664031
0.000349266
1.89319e-05
-8.38483e-05
7.98192e-05
-8.34284e-05
0.000163488
-0.000195429
-0.000210525
-0.000198964
-0.000206622
-0.000104869
6.77253e-05
0.000247475
0.000311116
0.000139613
0.00389795
0.000129734
0.000142161
6.66122e-05
2.86829e-05
7.58339e-06
-7.82662e-06
-2.38446e-06
-3.07024e-06
-1.06044e-05
1.75381e-05
5.88047e-06
-1.3313e-06
4.09898e-05
1.81916e-05
1.82888e-05
1.02507e-05
2.12375e-08
1.72305e-05
1.54593e-05
4.24633e-06
8.45621e-06
1.48724e-05
2.4457e-05
1.66144e-05
8.09312e-05
3.94923e-05
6.15735e-05
0.000163148
7.61489e-05
0.000158692
0.000331678
0.000260661
0.000893138
-0.00242202
-0.00293234
-0.000492835
0.000378903
0.000521569
0.000320742
-0.00707255
-0.00015819
-8.76184e-05
-0.000101546
-0.000731674
-0.000252782
0.0162345
-0.000222869
-0.0202478
-0.000157866
-0.000874393
-0.0188248
-0.000862531
-0.00106287
-0.0124848
-0.00625125
-0.0102752
-0.0247318
0.00256183
0.00620787
0.000382747
-0.00033793
-0.00029041
-0.000527893
9.65639e-05
-0.0145586
0.0193849
0.000125677
-0.00433571
0.00197393
0.00659055
4.61354e-05
-0.00824573
0.00526038
0.00531591
-1.48521e-05
-0.0085034
0.00561511
0.00471481
-6.83851e-05
-0.00782442
0.00189012
-0.0114935
0.00555887
0.00861945
-0.0107968
0.00318548
0.00136308
-0.00064189
-0.000110204
-1.82037e-05
3.18871e-05
3.60476e-05
2.95214e-05
2.49443e-05
2.00982e-05
1.01456e-05
1.90432e-05
7.5915e-05
0.00385873
-0.00471325
8.69356e-05
0.00575364
-0.00697398
0.00625604
-0.00753013
0.00898684
-0.0106737
0.000121162
-0.00435206
0.000135323
0.00417153
9.2773e-05
-0.00297126
0.000114536
0.00287371
1.83619e-05
9.4148e-05
0.000936828
-7.45406e-05
-0.00137269
0.00926813
0.000260207
-0.0071286
-0.000424625
0.00841473
0.0109075
0.00050458
-0.0103273
-0.000551111
0.0140867
0.000791675
-0.0140179
-0.000767877
0.0141771
0.0180464
0.000774053
-0.0221351
-0.00028317
-0.018408
-0.0218897
0.000908801
0.017533
0.0145617
-0.0180818
-0.000219324
-0.000632692
0.000546369
0.000451733
0.000376069
0.000290759
0.000207621
0.00013105
5.84017e-05
9.68043e-05
2.36975e-05
-2.65891e-07
3.2552e-05
-1.82383e-07
0.00839384
-0.0100455
0.000165312
0.0118507
-0.0140264
0.0125324
-0.0145867
0.0170149
-0.0187442
-0.000552021
-0.00813775
-1.32229e-05
0.00824116
5.77646e-05
-0.00624549
0.00011585
0.00588692
-1.33448e-05
0.000246989
0.0021361
2.94912e-05
-0.00234184
0.0176744
0.000445667
-0.0129271
-0.000763958
0.0148655
0.0179412
0.000766368
-0.0227541
-0.00018442
-0.0162447
-0.0291732
0.000195834
0.0221752
-0.00180138
0.00961904
-0.000185633
0.00658041
0.00540862
0.00278909
0.00177051
0.012257
-0.00738286
-0.000417422
0.00116409
0.000643793
0.000473674
0.000376255
0.000284899
0.00019483
9.73531e-05
6.31783e-05
0.00126245
-0.00087491
-0.00142504
-0.00033575
0.000273646
-0.000752902
0.00241682
-0.00103162
-0.00124087
-0.00122298
-0.000739576
0.00181716
0.00202995
0.000132527
-0.00142802
-0.000166322
0.00246199
4.65967e-05
-0.00221312
-0.000143916
0.00298266
0.00357864
0.000130397
-0.00347191
-0.000230289
0.00432729
-0.000384578
-0.0002987
-0.00425409
-0.00016548
-0.0027865
0.000612301
0.000616908
0.000189448
-0.000967137
-0.00159634
-0.00105732
-0.000791159
-0.00169834
-0.000544695
-0.000289719
0.000164618
3.67184e-05
0.00301549
2.65762e-05
-0.00221728
-0.000150131
0.00281762
0.00365539
0.000112955
-0.00344983
-0.000221753
0.00524859
0.000238357
-0.00516534
-0.000317929
0.00627426
0.0076356
0.000352488
-0.00912374
-0.000586092
-0.000439347
-0.00633505
0.000983879
0.000989221
0.000804449
-0.000187171
-0.00273625
-4.54766e-05
-0.00159262
0.000196503
-0.000428672
-0.000551187
9.12631e-05
0.000581975
-0.00028978
-0.00336014
0.000384529
4.45865e-05
0.000630495
-5.54626e-05
0.00638228
0.000164869
-0.00496403
-0.000320159
0.00596059
0.00780288
0.00036019
-0.00743601
-0.000416535
0.0105864
0.000533457
-0.010412
-0.000564718
0.0115437
0.0143038
0.000724972
-0.017024
0.00040695
-7.07825e-05
-2.56376e-05
2.27095e-05
1.87329e-05
1.23994e-05
7.43209e-06
4.09665e-06
-3.74728e-06
-2.84856e-06
1.61852e-05
3.72179e-06
-2.92226e-06
5.86453e-06
2.02506e-05
4.69474e-05
7.4621e-05
3.78177e-05
1.40698e-05
4.07649e-06
4.50954e-06
-2.47974e-06
1.40088e-06
0.00328254
2.89509e-06
-0.00327244
0.00398941
5.18333e-06
-0.00490565
0.00492159
-0.00397495
0.0040275
7.32385e-06
-0.00497181
0.00490422
-0.00398945
0.00327445
-4.49538e-06
-0.00332867
0.00266102
-0.00264355
0.00265178
-0.00265484
9.65366e-06
-0.00326691
0.00334013
1.01046e-05
-0.00401754
2.34629e-06
-0.00489392
0.00499158
1.16126e-05
-0.0060205
-1.09809e-06
-0.00722415
0.00735297
-0.00723621
0.00726008
8.42703e-06
0.00597
-0.00594754
5.54582e-06
0.00603579
1.71151e-05
-0.00732386
0.00723947
-0.0059504
-2.86459e-05
-0.00562244
0.00344612
1.33147e-05
0.0045328
-2.90207e-05
-0.00378158
0.00234539
1.74621e-05
0.00303975
-0.00267767
0.00220606
-9.17557e-06
-0.00224096
-6.5464e-08
0.00219268
1.72531e-06
-0.00218724
7.00702e-06
0.00224585
1.20432e-05
-0.00220092
0.00268727
-0.00303961
2.85574e-05
3.28373e-05
2.36769e-05
8.54258e-05
5.40061e-05
-0.00108406
0.00112186
-0.00110443
0.00110549
2.61615e-07
-2.50586e-06
-2.52538e-06
-0.00112121
0.00108508
-5.35395e-05
-3.0469e-05
0.000561156
-0.000629044
1.85439e-06
-4.35569e-06
0.00192922
-0.00195216
0.00195585
-0.00192642
0.00199713
-0.00207937
-4.75652e-05
-1.3208e-05
-0.000559996
3.11647e-05
0.000629244
-2.63355e-05
1.84882e-05
1.58646e-05
3.61729e-06
6.37839e-06
1.0105e-05
1.30501e-05
1.27012e-05
-0.0086716
9.82804e-06
-0.0103553
0.0103868
-0.0104726
0.0103781
2.66982e-05
0.00880785
-0.00866644
-2.54826e-05
-0.00827155
0.00506381
2.55791e-05
0.00676692
-0.00417451
-0.000132864
-0.00322177
0.00375586
-0.000275034
-0.00475181
0.0054936
-0.000338385
-0.00677742
0.00789535
-0.000319139
-0.00931632
0.0110421
-0.00041078
-0.0126653
-0.00113656
-0.000360319
-0.000592681
-0.000193606
-0.000419863
-0.000178842
-0.000332555
-0.000150436
-0.000252275
-9.76829e-05
-0.000166847
0.00256834
-0.0027969
-9.30324e-05
-0.0020977
0.00186783
6.20375e-05
4.14698e-06
-0.000169189
-3.0763e-05
-0.00114155
-5.79611e-05
0.00170671
8.25518e-05
-0.00257706
-2.27798e-05
-2.66265e-05
0.000140294
7.36328e-05
-0.000101817
-0.00108139
0.00163844
0.000529285
0.00185167
0.000667976
0.00038006
7.04838e-05
0.000236805
-0.00163053
0.00208065
-0.00199293
4.85292e-05
6.25608e-06
-9.14885e-05
-2.23853e-05
-4.6715e-06
0.000102282
0.000106574
0.000138797
0.000191477
4.93135e-05
-0.011834
0.00725278
-0.00609405
0.00987956
2.29428e-05
7.31857e-06
-6.58216e-06
3.58169e-06
1.48662e-05
2.91152e-05
4.29673e-05
5.48492e-05
-1.08668e-05
-0.0121885
3.42304e-05
-0.0144213
0.0143459
-0.0163414
0.0100275
9.17622e-05
0.013975
-0.00863876
-0.000150072
-0.00015583
0.000738599
0.000578253
0.000593193
0.000823056
0.0107103
0.01565
-0.0183064
0.00184251
0.000153166
-2.91445e-05
0.00049203
-0.000120404
1.22166e-05
-0.00950929
0.000185719
0.000908519
-0.0131582
0.000674671
0.000105101
5.05074e-05
0.000105509
0.000217394
0.000316793
0.000152436
6.23792e-05
3.13916e-05
2.64864e-05
2.4495e-05
3.4772e-05
4.64133e-05
3.10247e-05
2.55015e-05
3.06886e-05
2.151e-05
1.80971e-05
-8.88029e-07
1.33198e-05
1.34029e-05
0.000115979
3.64981e-05
2.68411e-05
1.84062e-05
1.77493e-05
1.11238e-05
7.3282e-06
1.83285e-05
2.40828e-05
1.27859e-05
-0.000104124
2.57939e-05
3.62861e-05
2.77441e-05
4.62737e-05
7.1464e-05
7.71371e-05
0.000130891
6.71428e-05
0.000126879
6.36279e-05
0.0160834
-0.0189039
0.00026153
0.0206715
0.000387782
7.72129e-05
0.000217592
0.00129264
-0.00389944
0.0126248
-0.0104702
0.0220737
0.00319867
0.0137677
-0.0118646
0.010145
-0.0100329
0.00706942
0.00802194
-0.0108947
0.00246593
-0.0117228
0.00746914
0.00772701
0.0146003
-0.000759188
-0.000286484
-0.00183232
-0.000124124
-0.0074958
-0.000148283
-3.42149e-05
3.85007e-05
5.3678e-05
9.16812e-05
5.13602e-05
4.21207e-05
5.01183e-05
4.12923e-05
-2.62519e-06
4.17417e-05
2.94198e-06
0.000280332
0.000193661
0.000140368
-0.0111641
0.013056
0.000359445
-0.00983575
-0.00056124
0.0115022
0.0145229
0.000711237
-0.0138296
-0.000740549
-0.016888
0.000455167
0.000380863
-1.9721e-05
1.33159e-05
-1.0388e-06
0.000234115
4.42995e-05
2.33612e-05
3.1069e-05
2.46621e-05
-8.18488e-06
0.000211964
0.000135551
6.37251e-05
-0.0026916
-0.000160749
0.00298462
-2.43077e-05
0.00212684
-0.00163541
-0.00152262
0.00185006
-0.00114332
-0.00105489
-0.000953677
0.000195238
-0.000296204
-0.000332281
-0.00428034
0.000823925
-0.000342602
-0.000948592
0.000562644
0.00107293
-0.000456459
-0.00772046
0.000751511
0.000137295
0.00137215
-6.50518e-05
-0.00189757
-0.000567794
0.00104739
0.00171068
0.0013704
-0.000486276
-0.0064364
-0.000439028
-0.00625916
0.00120843
-0.000649181
-0.00930748
-0.000586079
0.00875491
0.00137761
-0.000848086
-0.0129743
-0.00049
-0.0156865
0.00195207
0.000765762
0.0041181
0.000306716
-0.0215453
0.000794599
0.00206105
0.00236938
0.00356851
0.013208
0.0310282
0.0162702
0.0239638
-0.00202168
-0.00116181
-0.0174739
0.00124382
0.000632019
0.00242669
0.0160254
0.023273
-0.00196658
-0.00107673
-0.00076858
0.0116856
-0.012579
0.00128226
0.00118341
0.000964828
0.000152378
0.00181313
0.0147453
0.0234703
-0.00202905
-0.00108925
-0.000773552
-0.0126815
-0.000944233
-0.000725443
-0.000555133
0.000793413
0.000580166
0.000338813
2.48084e-05
0.000241288
0.00100921
0.00118924
0.00122662
-0.00119394
-0.00152448
0.00172992
0.0134507
0.026246
-0.00459157
0.00519467
0.00230066
0.00207369
0.000281426
-0.000147333
-7.37934e-05
-3.70376e-05
-2.01521e-05
-1.18289e-05
-4.60472e-06
9.04627e-06
2.23795e-06
8.75104e-07
-2.11296e-06
9.8704e-06
5.64537e-06
6.09163e-06
-4.07784e-06
-7.88031e-05
-0.000141632
-0.000100413
1.68142e-05
3.86255e-05
-0.00453669
0.00400685
1.46229e-05
1.34568e-05
1.49257e-05
1.8125e-05
1.07417e-05
1.79655e-05
4.2852e-05
-1.66398e-05
0.000558
-0.00227299
0.00015606
7.66991e-05
9.38477e-06
1.37391e-05
1.63005e-05
-1.30849e-06
-1.02298e-05
2.05149e-05
1.55602e-05
1.32592e-05
1.06329e-05
1.43056e-05
1.59792e-05
4.80398e-05
4.56498e-05
0.0143025
2.98572e-06
-0.0142719
0.0165366
-2.30404e-05
-0.0188306
0.0188265
-0.0165093
0.0167914
2.23633e-05
-0.018999
0.0189899
-0.0164643
3.381e-05
0.019077
-0.0119261
-4.82756e-05
-9.13195e-05
0.000127518
0.000263531
0.00027847
-0.000284657
-0.00144206
-0.002928
-0.00574637
8.01198e-05
-0.0022435
-0.000875574
-0.000265702
0.000284563
0.000261521
4.10635e-05
5.2681e-05
5.72712e-05
3.19094e-05
0.0124068
-0.0122037
0.0122404
-0.0123771
-1.79652e-05
-0.0142825
0.0144578
6.72576e-07
-0.0167781
-4.83582e-05
-0.0189002
0.0190189
-1.72867e-05
-0.0216877
0.0213583
-0.0245501
-1.97713e-05
-0.000157996
-5.69659e-05
1.96358e-05
3.55933e-05
0.000125799
0.00029784
0.000803928
0.00431816
-0.00230829
0.0584597
-0.00153844
-0.000272047
-0.00110216
-0.0113552
0.00250547
0.00658432
0.000520312
-0.000117093
-0.00591176
-0.000141234
0.000145478
0.000319769
2.68922e-05
3.42874e-05
0.000552671
0.000318618
-0.0188102
0.0164028
-0.000762612
-0.000471534
-0.000130154
0.00328782
-0.000854783
0.00270103
0.00440147
0.00773815
0.0149606
0.0033483
-0.00855559
0.0034503
-0.0116923
0.00274159
0.00130452
-0.00818129
0.00056338
-0.000141339
1.39848e-05
-2.83582e-05
1.22106e-05
0.000128335
-8.15989e-05
-0.000195675
-5.8655e-05
-0.000216962
-5.12512e-05
8.58667e-06
-2.21703e-06
1.41189e-05
-9.67956e-06
-2.3277e-06
-4.40814e-05
5.90834e-06
7.0383e-05
0.0001498
0.000388192
0.00610745
0.0260965
0.00139538
-0.00365269
0.0167019
0.000614944
-0.00266452
-0.00152978
-0.00249634
0.0580802
-0.00125913
-0.000291443
0.00048169
0.000118863
0.000277152
-0.00538376
-0.000158933
-0.000155092
-0.00116266
-0.0114543
-0.0104486
-0.00667092
-0.0239637
0.00254458
0.00585542
0.000265398
-0.000334005
-0.000355055
-0.000208575
-0.0065461
-0.000344924
0.00319075
-0.00207202
0.00342189
-0.000226315
-0.00600678
-0.000370665
-0.000168584
-4.1766e-06
0.000461591
0.00206614
0.000497191
0.00055271
0.00198136
0.00191909
0.000234209
-0.000107837
-2.80512e-05
5.29942e-05
0.000164991
-9.06115e-05
-1.88009e-05