/*--------------------------------*- C++ -*----------------------------------*\
| =========                 |                                                 |
| \\      /  F ield         | OpenFOAM: The Open Source CFD Toolbox           |
|  \\    /   O peration     | Version:  2306                                  |
|   \\  /    A nd           | Website:  www.openfoam.com                      |
|    \\/     M anipulation  |                                                 |
\*---------------------------------------------------------------------------*/
FoamFile
{
    version     2.0;
    format      ascii;
    arch        "LSB;label=32;scalar=64";
    class       volScalarField;
    location    "2.2";
    object      gradTy;
}
// * * * * * * * * * * * * * * * * * * * * * * * * * * * * * * * * * * * * * //

dimensions      [0 -1 0 1 0 0 0];

internalField   nonuniform List<scalar> 
5322
(
0.650102
0.0610545
-0.0044614
-0.0273322
-0.0151587
-0.0053889
-0.000197977
0.00481542
0.0141581
0.0258579
0.000230864
-0.192697
-0.214173
-0.192245
-0.166885
0.361169
0.483096
-0.000742833
0.333587
-0.395468
0.37611
-0.382068
0.374778
-0.383543
0.382191
-0.374904
0.374517
-0.382305
0.381212
-0.376518
0.378834
-0.378809
0.39113
-0.335986
0.322288
-0.161102
0.316462
0.39727
0.198427
0.214827
0.293199
0.244879
0.253462
0.273677
0.260922
0.258331
0.265082
0.283195
0.262372
0.250571
0.314342
0.152217
0.170387
-0.561663
-0.030655
-0.325003
0.17082
-0.426225
-0.0242679
-0.370439
0.173451
-0.419158
-0.0216667
-0.367687
0.174148
-0.433758
-0.027904
-0.355593
0.175765
-0.477172
0.0168066
0.419355
0.233586
0.326322
0.243758
0.308723
0.257611
0.307362
0.260977
0.361051
0.0328894
0.121379
0.183461
0.305408
-0.026006
-0.127629
0.0362986
0.0713906
0.132193
0.0151543
0.0345981
0.00639393
0.00101057
0.00118905
0.44452
-0.237308
0.00714904
0.239258
0.00649371
-0.00623757
0.0326271
0.00639217
0.253328
-0.433386
0.387824
0.00522331
-0.00741107
-0.0013808
-0.000225979
0.000417429
0.000474539
0.000582109
0.00132586
0.00265888
-0.00450947
0.0011825
0.137365
-0.056502
-0.0194117
-0.106018
0.130395
-0.0725749
-0.14142
-0.193447
-0.218598
-0.00880644
0.160226
-0.120906
0.0113298
0.132048
-0.131524
0.00554024
0.13727
-0.140751
-0.00444686
0.128198
-0.153785
-0.0122456
-0.0354922
0.235438
0.195053
-0.127834
0.0847544
0.0658838
-0.134754
0.01452
-0.132033
0.103566
0.106434
-0.11736
-0.00177478
-0.109515
0.109918
0.118646
-0.106587
-0.000358163
-0.10188
0.129335
-0.00843674
-0.00638004
0.406432
-0.318535
0.352218
-0.374011
0.0126443
-0.24137
-0.00516679
-0.00220767
-0.0451733
0.116613
-0.233323
0.232143
-0.389682
0.000888905
0.398019
-0.393203
0.409376
-0.418357
0.00174031
0.412152
-0.422245
0.437951
-0.4366
0.00162515
0.426907
-0.429812
0.443668
-0.441812
0.000995765
0.431522
-0.432589
0.44564
-0.443726
0.000837495
0.433531
-0.434907
0.447908
-0.444468
0.0010881
0.434354
-0.437579
0.450863
-0.443372
0.0014338
0.432663
-0.438806
0.452019
-0.434212
0.00184395
0.421773
-0.434205
0.437829
-0.237278
-0.00106535
-0.0174807
0.00727239
-0.00705213
-0.00043418
0.00277999
0.00368431
1.26555e-05
0.445481
-0.236194
0.00199742
0.281563
-0.0382456
-0.0112383
0.00927795
-0.0138585
0.238553
-0.438689
0.00254491
0.00195316
0.00548829
0.003551
0.00189552
0.000851506
5.65415e-05
-0.0011749
-0.0029586
0.00439678
-0.00158242
-0.110579
-0.11778
-0.117833
-0.110836
0.0226393
0.0390227
0.0246019
-0.148907
0.0781068
-0.157911
0.0391139
0.0226842
0.0246489
-0.15606
0.0543452
0.149318
0.0963954
-0.148849
0.0782674
0.162093
0.226328
0.239051
-0.391553
-0.390665
-0.420452
0.305016
-0.378396
0.347251
-0.371802
0.359605
-0.370339
0.364007
-0.372036
0.364882
-0.377381
0.363252
-0.38626
0.359429
-0.394755
0.351795
-0.0774726
0.166896
-0.0531136
-0.00921186
0.304568
-0.363528
0.0035145
0.325923
-0.364822
0.0015956
0.336898
-0.358457
0.000726289
0.341954
-0.3528
0.000157932
0.342095
-0.350382
-0.000822714
0.336281
-0.351219
-0.00261235
0.319075
-0.357263
0.0083533
0.267265
-0.0246821
0.267031
-0.357842
0.00836909
0.306611
-0.418031
0.167776
0.277419
0.207347
0.194076
-0.368792
0.241925
-0.344222
0.304412
-0.337274
0.323187
-0.336278
0.329199
-0.338915
0.32973
-0.345964
0.327217
-0.354422
0.321603
-0.351004
0.306552
-0.0505917
0.120766
-0.138331
-0.00261136
0.420218
-0.514275
0.00885681
0.461796
-0.502653
0.00444984
0.470464
-0.484899
0.00171679
0.470778
-0.475879
0.000407472
0.470768
-0.473234
-0.000931241
0.47004
-0.473211
-0.00195966
0.46225
-0.477374
0.0106401
0.411067
-0.475313
0.166781
0.387493
0.344341
-0.172894
0.328296
-0.0779317
0.0618628
0.393365
-0.340452
0.317625
-0.299042
0.478977
-0.421719
-0.00334117
-0.471983
0.402573
-0.41185
0.0120998
0.433605
0.0193561
0.00839861
-0.122712
0.0120323
-0.0098536
0.00643796
-0.00235296
-0.000842784
0.396427
-0.397203
0.397482
-0.413204
6.69122e-05
0.426281
-0.42901
0.433907
-0.43378
0.00030071
0.437079
-0.435438
0.440139
-0.435564
0.00035428
0.443621
-0.432994
0.444756
-0.421998
-0.000684109
0.000575258
0.000951757
0.00317486
0.00178199
0.0011507
0.447608
-0.432363
0.00228127
0.511293
-0.50505
0.452413
-0.417735
0.00438317
0.507389
-0.482199
0.307304
-0.213804
-0.341468
-0.0231978
-0.00526764
-0.123433
-0.0317132
0.00956728
0.227209
0.296585
0.0236579
-0.483287
0.367214
0.00365272
-0.409969
0.374742
-0.0008145
-0.385826
0.379661
0.000170532
-0.372739
0.378401
-0.00266752
-0.3725
0.393186
-0.00673131
-0.355271
0.401521
-0.0252481
-0.316973
0.102885
0.15469
-0.190768
0.00160705
0.311615
-0.265219
0.311268
-0.304314
0.308983
-0.305726
0.49743
-0.436025
-0.00103065
-0.49867
0.434548
-0.433298
-0.00260474
0.493024
-2.63352e-05
-0.00110938
-0.000725992
-0.028595
0.0064797
0.0399051
0.0433453
0.0176504
0.00755197
0.0249601
0.0176782
-0.0227646
0.368556
0.118152
0.0256896
0.0881983
0.0188296
0.0056609
0.00394635
0.00131186
0.000732535
0.00103646
0.00101235
-0.279784
0.000303107
0.285538
-0.282244
0.308163
-0.30652
0.311155
-0.307053
0.504831
-0.436369
0.000812642
-0.501042
0.442
-0.436863
-5.74783e-05
0.500322
0.000971467
0.00100408
-0.000118223
-0.0029003
-0.00137129
0.00435121
0.00315079
0.000582186
0.0134962
0.0096767
0.291775
0.00142066
-0.013437
-0.00116589
-0.0195209
0.00252369
0.193909
0.370274
0.680621
0.0713381
-0.0103544
-0.00481485
-0.0184686
-0.376
0.00164448
0.349863
0.318423
-0.3514
-0.00259129
-0.370432
0.00274416
0.361852
0.335727
-0.350207
-0.0007847
-0.37032
0.00237964
0.365029
0.342078
-0.352484
0.000220559
-0.373463
0.0063294
0.363976
0.343022
-0.358374
0.000852523
-0.380779
0.0177796
0.358092
0.34048
-0.366246
0.00180892
-0.39104
0.0432599
0.344553
0.334978
-0.370077
0.00384409
-0.394707
0.0964533
0.322344
0.322322
-0.0620702
-0.00895307
-0.0718718
0.848346
-0.378933
-0.386911
0.626751
0.162945
0.0676765
-0.585171
-0.120609
-0.0705858
0.300712
-0.31393
-0.00548113
0.00654416
-0.039307
-0.0472816
-0.00485778
0.0125378
0.0072605
0.00295389
-0.00385406
0.00173599
0.0027731
0.000817308
8.93909e-05
-0.000751714
-0.00258003
-0.00495521
-0.0171803
-0.0092042
0.239677
-0.239781
0.00288129
0.00154591
-0.243548
0.239968
-0.000568237
0.000997241
-0.00108528
-0.0181779
-0.0115196
0.043514
0.00471635
0.0500751
-0.0177618
-0.0217789
2.39547e-05
0.0802112
-0.0932386
0.093613
-0.079912
-0.0808967
-0.0691557
0.00258022
0.0928311
0.0835412
-0.0833905
-0.00248563
-0.0935337
-3.9067e-06
1.46756e-05
0.00594169
0.0168551
0.0150866
-0.033442
0.000653319
0.000171018
0.00098587
0.0028245
0.00685546
0.00294865
0.0240104
-0.0188606
-0.00209118
0.0136556
0.300248
-0.273937
0.316256
-0.311591
0.319524
-0.00767089
-0.28328
0.00824873
0.317503
-0.00116342
-0.0138783
0.00285193
0.0019671
0.00392329
0.00464799
-0.0033452
-0.0470141
0.161123
-0.0718717
-0.309131
-0.03917
-0.0372096
-0.608901
-0.167846
0.0214051
-0.245607
0.181594
0.00834472
0.0102862
0.219822
0.1844
0.0258479
-0.0206212
0.244524
0.219751
0.0278675
-0.0248504
0.221879
0.250614
0.0259757
-0.0572825
0.184042
0.25592
-0.0886644
0.133403
-0.116307
0.124313
-0.490865
-0.266616
0.0482169
-0.12115
0.264021
-0.015919
-0.432814
0.22832
-0.00456126
-0.271152
-0.268042
-0.389705
0.164049
-0.214336
-0.137234
0.238481
-0.494849
-0.0554878
0.348109
-0.42864
-0.010966
0.373089
-0.392653
0.000875926
0.376166
-0.378603
0.00195957
0.374562
-0.3749
0.00214148
0.374395
-0.374071
0.00578022
0.376429
-0.371729
0.0230436
0.388334
-0.333102
0.0937273
0.323102
-0.180425
0.342815
0.387193
-0.480143
0.409724
-0.481878
0.0110708
0.241144
-0.368968
0.166596
0.193142
0.209097
0.277395
0.238574
0.167654
0.323007
0.19236
-0.00159159
-0.0279989
-0.0156717
-0.00981419
-0.00590492
-0.0115332
-0.00607515
0.00174483
0.00619761
0.286772
-0.277895
7.47397e-06
0.00048746
0.000113147
1.97054e-05
-0.499272
0.43804
0.000195118
0.439163
-0.441398
0.000460393
0.441907
-0.443386
0.00110817
0.443554
-0.445579
0.00197682
0.442895
-0.445369
0.00251819
0.431676
0.00276921
0.00533123
0.000829159
3.06744e-06
-0.00125899
-6.05695e-05
0.000375494
0.000411816
0.000361756
0.000236413
0.000181643
0.000232998
0.00227338
0.00645105
-0.233461
0.00347661
0.0115605
-0.000603041
0.000416445
0.000628035
0.000405834
-3.32919e-05
-0.000778176
-0.00195232
-0.00285265
0.0104333
-0.00295714
-0.00782659
-0.0102337
0.20436
-0.218102
0.276534
0.000400392
-0.0372176
0.0310955
0.10264
0.00058375
-0.091208
0.085857
0.0880313
0.000329198
-0.0975697
0.0915926
0.0786101
2.14472e-05
-0.122549
0.116573
0.108949
-0.00207058
0.135718
-0.142908
0.139346
-0.15012
-0.0138614
-0.0829519
0.120525
-0.00990683
-0.114602
-0.00243274
-0.000763378
0.411479
-0.00143109
-0.413891
0.239277
-0.00832336
-0.247448
0.247898
-0.00538743
-0.259829
0.416891
-0.00392273
-0.416703
0.409172
-0.407246
0.404946
-0.414735
0.000943602
-0.412984
0.407487
-0.000831762
-0.247584
-0.0090552
0.249765
-0.212427
0.00196102
0.373764
0.13335
0.393769
0.143944
-0.203547
0.311132
0.0286452
-0.272497
0.294446
0.00589552
-0.285129
0.288314
0.0013281
-0.284932
0.287704
0.000190676
-0.287758
0.285542
-0.00137995
-0.287779
0.286014
-0.00690581
-0.294386
0.271863
-0.0311773
-0.311804
0.203809
-0.148324
-0.395548
-0.119781
-0.370407
0.242102
0.0226715
0.0121066
0.154719
0.0362008
-0.238226
-0.196306
-0.0545879
-0.151861
-0.0984616
-0.0769115
-0.168203
-0.0840418
-0.0892967
-0.167078
-0.24466
-0.253521
-0.167441
0.416027
0.0229426
-0.244801
-0.00857849
0.335622
0.39488
-0.00445577
-0.291173
0.00194016
0.325432
0.482808
0.00460509
-0.47549
0.000333501
0.480218
0.0011446
-0.477393
0.00129164
0.478627
0.000653527
-0.478754
-0.00101282
0.47713
0.000536734
-0.48029
-0.000178708
0.474994
-0.000977235
-0.483054
-0.00417707
0.466891
-0.00685278
-0.487951
-0.0171292
0.00212129
-0.299959
0.487301
0.00306849
0.313161
-4.4644e-05
-0.304834
0.498543
-0.000149831
0.308984
2.80147e-05
-0.307269
0.501603
-0.00011675
0.308385
-0.000289644
-0.307125
0.502729
0.000112004
0.307349
0.000436339
-0.30833
0.503376
0.000341763
0.30776
9.95856e-05
-0.308856
0.503625
0.0005612
0.305541
0.000514278
-0.312383
0.500699
-0.0013609
0.302415
8.59054e-05
-0.319283
0.477704
-0.01886
0.342779
-0.0613041
0.078779
-0.389126
-0.343154
0.179043
-0.327193
-0.0959966
-0.0663278
-0.68417
-0.372424
-0.326804
-0.232211
-0.167887
0.372779
0.431189
0.0313012
-0.231927
-0.0109582
0.487974
0.0145012
-0.466792
0.00551256
0.00355341
0.00745702
0.0188475
-0.321644
-0.0155395
0.156717
-0.0230594
-0.0222039
-0.0422356
0.149829
-0.0495399
0.0204089
0.0179326
0.000470736
0.00135059
0.00123276
0.000720195
0.000614201
0.000186379
-0.00243588
-0.00177392
0.427189
-0.495222
0.00188132
-0.00257865
-0.00482187
-0.00035872
-0.407372
-0.000420518
0.415144
-0.433739
-0.00043368
0.433248
-0.439428
-2.99985e-05
-0.000135605
-0.00107322
-0.000521207
-5.05201e-05
0.00074303
0.000668822
0.000594115
0.000384233
0.000251197
0.000154279
0.00120775
0.00188644
0.000747351
0.411963
-0.414771
0.376953
-0.37917
0.380255
-0.379582
0.00212021
-0.198629
6.26421e-05
0.187349
0.00675973
-0.20965
-0.000744392
0.159291
-0.0162685
-0.0131243
0.0596464
0.00274373
-0.0643702
0.474889
-0.00646036
-0.298172
0.00116422
0.305312
0.397511
-0.00285563
-0.313706
0.000427771
0.317947
0.384586
4.75034e-05
-0.317558
-8.08644e-06
0.31501
0.38531
0.00249323
-0.320833
-0.00059456
0.308688
-0.323964
-0.00109792
0.290691
-0.331234
0.0131091
-0.0094096
-0.00240766
-0.000915852
-2.77466e-05
0.000260996
0.00053929
0.00144605
0.00301984
-0.00447883
0.00136817
0.110729
0.116633
0.118031
-0.0351245
0.159594
-0.0167362
-0.0173787
0.16393
-0.0310143
0.149471
-0.0482377
0.00589152
-0.0132993
0.0128173
-0.00320356
0.00289892
-0.00234971
-0.392102
0.0103223
0.0115816
0.00246884
0.000140853
-4.30616e-05
-0.0832494
0.0825687
0.00259953
-0.0702259
0.1077
-0.0219355
0.00925991
-0.00376664
-0.00427108
-0.0209191
0.155329
-0.386201
0.0233289
-0.259346
-0.0106147
0.328474
0.403305
-0.00948993
-0.296583
0.00263306
0.388351
-0.00712379
-0.307219
0.00122869
0.321493
0.389174
-0.00176722
-0.315647
0.000463167
0.318927
-0.318667
-0.00011656
0.315648
0.000596066
0.000214161
-0.000124345
-0.000386446
-0.00129092
0.00947152
-0.00624613
-0.000282016
0.00255325
3.71663e-05
-0.00237982
-0.0111871
-0.00943033
-0.00257244
-0.00255847
0.00237005
0.00667123
0.0012799
0.00588843
0.00162224
0.00381261
-0.0084499
-0.0119452
-0.025597
-0.0283663
-0.0607665
-0.0510091
-0.030829
-0.118263
-0.367989
0.0318383
-0.568564
-0.417769
-0.299511
-0.199082
-0.179696
0.0711818
-0.161518
-0.0158352
0.037856
0.00145717
-0.00624883
0.193787
-0.229064
0.281714
0.00267129
-0.033002
0.0524018
0.119679
0.00507168
-0.0814318
0.111882
0.112142
0.00552643
-0.0873315
0.115685
0.104934
0.00418409
-0.116774
0.130638
-0.00623315
0.00370844
0.0187341
0.0802091
-0.344243
-0.49941
0.00543427
0.467454
0.0133816
0.00989993
0.302223
0.00181318
-0.495906
0.501861
-0.000760231
-0.474209
0.278703
-0.320005
0.285171
-0.0313105
-0.297822
0.0161676
-0.331429
0.462003
-0.404717
0.420887
-0.0014352
-0.421909
0.000774051
0.41816
-0.00125141
-0.419832
0.000246765
0.421718
-0.00122297
-0.423477
0.411554
-0.473774
0.0272411
-0.328151
0.449087
0.0208625
0.0108021
-0.12351
0.134036
-0.138304
2.52242e-05
-0.115578
0.106166
0.00754643
-0.13199
0.0939404
-0.107214
0.00482012
0.191969
-0.115847
0.0710932
0.0177291
-0.136521
0.107362
-0.00212618
-0.00233214
-7.15777e-05
0.00453313
0.00282124
0.00146064
0.000646001
-1.17494e-06
-0.00114047
-0.00288591
0.00443042
-0.00137455
0.0694267
0.0798825
0.000147254
-0.018928
-0.0117014
0.150506
0.0545358
-0.127738
0.0656863
0.0848723
-0.133713
0.00436274
-0.154823
-0.0120267
-0.0361001
-0.125053
0.196058
0.238459
0.0124503
0.0437482
-0.0106335
0.00597692
0.104592
-0.112397
-0.00136097
-0.117903
0.11757
0.112393
-0.104546
-0.000719039
-0.142646
-6.95241e-05
0.142599
3.18143e-05
7.21154e-05
-0.00259581
0.00851329
0.00375546
0.0637402
0.679998
0.369898
0.190316
-0.0015259
-0.02496
-0.0139728
-0.00766318
-0.0103633
-0.0223652
-0.0470724
-0.051483
-0.104776
-0.116075
-0.24691
-0.416962
-0.371196
-0.374434
0.159081
-0.250012
-0.0969113
-0.105073
-0.323985
-0.426536
-0.378657
-0.378231
-0.383473
-0.377054
-0.42747
0.161323
-0.045944
-0.13425
0.511812
-0.160494
-0.306516
-0.29931
-0.0782698
-0.0971171
-0.226588
-0.238129
-0.0627673
-0.0966324
-0.0236697
-0.00776729
-0.0013919
2.11697e-06
0.000220322
-0.000782355
-0.00447454
-0.0052423
-0.0193749
-0.00815947
-0.00296374
-0.00566821
-0.00352046
-0.00483573
-0.0118409
-0.0303927
-0.0127848
-0.0124377
-0.0144302
-0.00688501
-0.00194104
-0.000170595
-0.000359401
-0.0012603
-0.00126853
-0.00369405
0.303582
0.458602
-0.47519
0.466777
-0.473197
-0.000661623
0.322143
-0.337778
-0.00158422
-0.00288995
0.00151695
0.0052786
-0.344763
0.0158612
-0.157125
0.0969481
-0.030186
-0.00938913
-0.0111481
0.014343
-0.134973
0.106024
-0.00079551
-0.000382144
-0.000390925
8.78336e-05
0.069152
-0.00237742
0.00029778
0.00029366
-0.000200463
-0.0437183
0.000223878
0.0181203
0.0112406
0.014841
-0.0123346
0.0103662
-0.000167378
0.00107548
-0.043598
0.134695
0.133725
-0.084566
-0.0142466
-0.066971
0.128505
0.0112871
0.00249053
5.47963e-05
6.63338e-06
-0.00255549
-0.00232997
-0.00240033
-0.000483018
-0.0104495
-0.000878371
-0.00239807
0.000803691
0.00537357
0.00122807
0.00349264
-0.336333
0.328056
0.468739
-0.474164
0.46951
-0.479305
0.00116181
0.328317
-0.33807
0.000255302
4.13484e-05
8.75906e-05
0.000522812
0.00126435
0.0030294
0.00256051
0.00567102
0.00312314
0.00661366
0.00676791
0.0162508
0.0138098
0.0146463
0.00649281
0.0864144
0.00117139
0.00206132
0.000970142
0.000215244
-0.000781647
-0.00279252
-0.00310344
-0.00118637
-0.00111377
-0.000727618
-0.000162902
0.000107813
0.000239704
0.000393806
0.000348958
0.00020773
-0.00104648
0.0014064
0.00133056
3.27317e-05
0.000156631
0.000284686
0.000456338
0.000808297
0.000920468
0.000863573
0.00174523
0.00204379
0.00148616
0.0033261
0.00435425
0.00359021
0.0227078
-0.0287924
-0.0410913
-0.00799638
0.00449128
0.00598013
0.00612563
-0.101079
-0.0017036
-0.000977908
-0.00150468
-0.00984074
-0.00383235
0.213991
-0.00279769
-0.285154
-0.00206916
-0.0129262
-0.264063
-0.0114725
-0.0156017
-0.165679
-0.073653
-0.126779
-0.315428
0.0305859
0.0804298
0.00542425
-0.00423726
-0.00356727
-0.00662485
0.0018633
-0.191593
0.273052
0.00193201
-0.0600961
0.0265298
0.094618
0.000449587
-0.117929
0.0749156
0.0759919
-0.0005513
-0.122025
0.0802306
0.0668937
-0.00130277
-0.111821
0.025349
-0.151284
0.066824
0.105937
-0.147053
0.0444414
0.0218965
-0.0089116
-0.00198709
-0.000705951
0.000165348
0.000333347
0.000502158
0.00134077
0.002496
0.00314942
0.00297078
0.0043712
0.421169
-0.42088
0.00182545
0.423093
-0.423088
0.380409
-0.38057
0.380945
-0.382415
0.00138898
-0.199585
-0.00101442
0.194537
0.00139067
-0.197431
-0.00022045
0.19411
-0.00114814
-0.000795092
0.0628077
0.00122156
-0.0622469
0.471008
-0.000256374
-0.3014
0.000109946
0.304353
0.393083
0.0018322
-0.317374
-0.000599989
0.374725
0.00709988
-0.323028
-0.00232741
0.290162
0.368384
0.00630234
-0.397539
0.00937659
-0.3304
-0.393676
0.00846476
0.357997
0.297762
-0.324752
0.0102755
-0.00876695
0.0030719
0.00158201
0.000883303
0.000170735
-0.000616575
-0.0016302
-0.000785735
-6.24044e-05
0.000667391
0.000413799
0.000592333
0.000253165
0.42395
-0.425165
0.00173663
0.424567
-0.428342
0.383121
-0.38373
0.388613
-0.375774
-0.0145494
-0.19819
-0.00626478
0.201032
-0.00131307
-0.204185
-0.00274026
0.195471
-0.00257604
0.00219124
0.070182
0.00508074
-0.0557556
0.467719
0.00198594
-0.296079
-0.00232987
0.303137
0.365651
0.00564523
-0.407994
0.0109227
-0.289687
-0.517307
-0.0022179
0.447332
-0.0300227
0.168631
0.00130563
0.122108
0.0767847
0.0449092
0.0288769
0.228518
-0.144818
-0.0130749
0.00598623
0.000125966
-0.000510679
-0.000183673
-7.38528e-05
-0.000868932
-0.00513443
0.00164229
0.277941
-0.199402
-0.322698
-0.0737177
0.0613152
-0.158427
0.507869
-0.234195
-0.286163
-0.276923
-0.161938
0.381533
0.421852
0.0220192
-0.261079
-0.00944337
0.39056
-0.00839822
-0.290991
0.00283767
0.326063
0.391064
-0.00485936
-0.309027
0.00102206
0.321509
0.00172347
0.00196899
-0.380292
0.00588491
-0.366863
0.0338911
0.0346735
0.00106122
-0.204503
-0.34247
-0.239024
-0.168864
-0.356101
-0.126009
-0.0639766
0.0373522
0.0106275
0.482211
-0.00748786
-0.291274
0.0021731
0.309889
0.399537
-0.00746814
-0.308374
0.00120027
0.386576
-0.00269959
-0.314305
0.000407787
0.318464
0.387498
0.00025652
-0.38763
-0.000339485
0.000389809
-0.385299
0.00689797
0.00705324
0.0192753
0.00584753
-0.359919
0.0163298
-0.291087
0.00107169
-0.053378
-0.0831635
-0.0225566
0.0226833
-0.00919654
-0.444591
-0.00123352
-0.00310747
0.0627746
0.00125249
0.472318
-0.00241241
-0.300572
0.000474798
0.303859
0.395726
-0.000256037
-0.31605
0.000110907
0.381591
0.00271188
-0.319904
-0.000806272
0.307594
0.38059
0.00607124
-0.392473
0.00101782
-0.000598826
7.40874e-05
0.000300037
0.000337647
0.000243803
0.000152836
7.99856e-05
-0.00118966
-0.00310344
-0.00074453
-0.000824269
-0.00103778
-0.000125948
0.000425798
0.000657203
0.000825194
0.000187155
0.000313912
-0.000193017
-0.000232369
-0.00110659
-0.000561637
0.43167
-1.75647e-05
-0.431512
0.43397
3.7442e-05
-0.438351
0.438563
-0.433441
0.437651
-0.000652227
-0.444523
0.437521
-0.43514
0.431197
-0.00193666
-0.439579
0.419638
-0.418174
0.418568
-0.419828
0.0018896
-0.431514
0.440268
0.00100121
-0.437866
0.000747307
-0.437925
0.445392
0.000599271
-0.443358
0.000274703
-0.439479
0.446083
-0.439804
0.440128
0.000110715
0.43864
-0.438025
-0.00016505
0.443219
-4.88583e-05
-0.445183
0.439161
-0.437894
-0.000954111
-0.50095
0.308677
-0.000465328
0.495706
-0.00237519
-0.498321
0.311898
0.00130041
0.482835
-0.423928
0.406727
-0.00148384
-0.413724
-0.000486955
0.403593
4.36984e-05
-0.403489
0.000907667
0.414044
0.00150939
-0.406832
0.424978
-0.484156
0.0034337
0.00512832
0.00467576
0.0172197
0.0117405
-0.242792
0.250409
-0.246728
0.246675
-7.33866e-05
-0.000727944
-0.000693012
-0.250388
0.242629
-0.0118736
-0.00684206
0.129753
-0.144921
0.000510962
-0.000946073
0.402887
-0.407885
0.408121
-0.40309
0.416601
-0.438597
-0.0119353
-0.00457131
-0.129752
0.00681796
0.144854
-0.0059777
0.00266245
0.00256388
7.51424e-05
0.000132067
0.000192555
0.000214547
0.000173004
-0.439489
7.05166e-05
-0.43976
0.440162
-0.444836
0.439741
0.00011428
0.445197
-0.438726
-0.000102615
-0.500755
0.307656
1.74943e-05
0.499405
-0.306853
9.39887e-06
-0.280577
0.285642
0.00284591
-0.281374
0.286163
0.00390023
-0.280381
0.290398
0.00728289
-0.278337
0.296962
0.0062587
-0.281451
-0.00942838
-0.000107662
-0.00136658
0.00238824
0.000324352
0.0012431
-0.000170498
0.000345783
-0.000956275
0.00135934
0.00552269
0.2909
-0.305147
-0.0004225
-0.270259
0.307365
0.0300323
0.012314
-0.000491477
0.0121273
-0.203357
-0.000288844
0.319195
0.0186082
-0.476343
-0.00306048
-0.00476372
0.0249296
0.0171411
-0.0226994
-0.241756
0.369672
0.120024
0.393171
0.146135
0.0831562
0.0199737
0.0606894
-0.342707
0.43798
-0.415889
0.011892
0.00197982
-0.0188737
-0.00503927
-0.00262335
0.0074755
0.00169719
0.00067624
0.00080138
0.000634643
-0.500481
0.307364
-0.307859
0.501227
2.20489e-05
-0.000778405
-0.00229111
-0.000506827
-0.000663441
-1.82822e-05
0.00014823
0.000816624
0.000609246
-0.438487
2.48442e-05
-0.443247
0.439566
-0.499838
0.306765
0.00131349
0.503156
-0.309753
0.00300875
0.000323301
-0.0010016
-0.00180356
-0.00597986
-0.00446454
0.324323
0.469522
-0.489883
0.0402612
0.00709216
0.00332132
0.0117833
0.00574148
0.0138615
-0.342985
0.0120212
0.0328627
-0.348514
0.00275255
0.00150548
0.00107346
0.00197803
0.00301941
0.00411631
0.0018913
0.00123688
0.000711651
0.000531897
0.000415367
0.00061113
0.000809466
0.000570783
0.000443196
0.00058603
0.000735202
0.00061237
0.00107403
0.00111572
0.000587892
0.00129895
0.00108775
0.00154827
0.00114913
6.36507e-05
-0.000935991
-0.000327307
0.0021723
0.00407109
0.00034519
-0.0231903
0.00277199
0.000561939
0.000941457
0.00115196
0.0012691
0.00105073
0.00225514
0.00140245
0.00265013
0.00147078
0.423505
-0.431894
0.0021583
0.415241
0.00694553
0.00136213
0.00338013
0.017612
-0.0680169
0.168602
-0.13438
0.283371
0.0414177
0.193644
-0.155842
0.126042
-0.135964
0.0860653
0.0980856
-0.148495
0.0339811
-0.154771
0.0909426
0.0944904
0.185444
-0.0086155
-0.00232806
-0.0236004
-0.00113512
-0.107647
-0.00166987
-0.000753563
0.000657401
0.000887196
0.00167775
0.000989953
0.000657167
0.000853585
0.000650919
0.000168621
0.000592936
0.000352567
0.00240486
0.00115007
0.000493094
-0.472518
0.470472
0.00106432
-0.300537
-0.000715328
0.306194
0.385918
0.00509364
-0.318839
-0.00190092
-0.389548
0.00166032
0.000920726
0.000230198
0.000475626
0.000241075
0.00251166
0.000604535
0.000280126
0.000456915
0.00043732
0.000449279
-0.000602446
-0.00141112
-0.00312334
-0.353838
0.00631895
0.325885
0.0186815
0.337912
-0.298768
-0.326051
0.384696
-0.257871
-0.242818
-0.201175
0.00226168
0.00215636
0.00197118
-0.382437
0.0129396
-0.00149236
-0.0620735
-0.000117953
0.00494625
-0.000520511
-0.468502
-5.8429e-05
-9.50108e-05
0.0636306
0.00229775
-0.0616597
0.000448276
0.0028864
0.000857224
0.00162589
0.000414392
-0.391249
0.000461427
-0.380833
0.00125057
-0.000237551
-0.395059
-0.000232006
0.315773
-0.00315712
-0.00141487
-0.397893
0.00624381
-0.479058
0.0188493
0.0127992
0.0973262
0.0101612
-0.491869
0.0339195
0.00133596
0.00396469
0.0279667
0.186298
0.441173
0.229092
0.336892
-0.0164996
-0.00467977
-0.401713
-0.0114413
-0.0227521
0.0106305
0.227306
0.327781
-0.0172098
-0.0055814
-0.00169273
0.311091
-0.386664
-0.00577669
0.000400447
-0.0175927
-0.0316421
0.000637172
0.20991
0.330116
-0.0181544
-0.00595306
-0.00197759
-0.389635
-0.00194879
-0.000253764
0.000140838
0.00180311
0.00467976
0.00142026
-0.0258698
-0.00738302
-0.000323649
-0.00266286
-0.00640308
-0.00400058
-0.0068645
-0.00128324
0.191681
0.369614
-0.0690903
0.0596044
0.0265894
0.0330643
0.00922619
-0.00211451
-0.000796346
-0.000172513
0.000111537
0.000303484
0.000782628
0.00242427
-0.000127621
-0.000156899
-0.00106044
0.00157552
0.000884539
0.000978087
-0.00189085
-0.0184831
-0.0256929
-0.00776643
0.00272758
0.00275402
-0.497614
0.436425
0.0013184
0.00137264
0.00137403
0.0026316
0.00327252
0.00311372
0.000657055
-0.00846561
0.124286
-0.415967
0.0211588
0.00118714
0.00110516
0.000621494
0.000601515
0.00109469
0.000401697
0.000366626
0.00033484
0.000535314
0.000189135
0.000242141
0.000235987
0.000901429
0.000895347
0.438734
-0.000163502
-0.438421
0.438615
-0.000653135
-0.434214
0.433919
-0.438137
0.444757
-0.000452187
-0.438393
0.4368
-0.43645
0.0016684
0.505385
-0.314081
0.00595232
0.00261919
0.00209458
0.00119094
-4.21803e-05
-0.0104812
-0.0176766
-0.035666
-0.0841277
0.00455208
-0.0361816
-0.0119577
-0.00355822
0.00485787
0.0041354
-0.000499253
3.31304e-05
0.000964932
0.000498629
0.445735
-0.439535
0.440203
-0.445582
-0.000141284
-0.438716
0.443848
-8.38934e-06
-0.444958
-0.000634921
-0.435688
0.438657
-0.000248767
-0.440165
0.433171
-0.499389
-0.00160118
-0.00240068
-0.00102421
0.000309412
0.000586969
0.00221874
0.00514203
0.0213956
0.0859565
-0.0267364
0.856414
-0.0204838
-0.00449363
-0.0156505
-0.150143
0.0303963
0.0859859
0.00748236
-0.00123914
-0.0839856
-0.00136838
0.00257309
0.00623536
0.00039661
0.000481182
0.00656292
0.00348461
-0.264792
0.21817
-0.00871075
-0.00610633
-0.000417972
0.0447345
-0.0101798
0.0370129
0.0593158
0.0956294
0.190114
0.0471777
-0.122814
0.048359
-0.154498
0.0379202
0.0210879
-0.117368
0.0066136
-0.00239251
0.000273191
-0.00058624
7.24886e-06
0.00221173
-0.00103855
-0.00232775
-0.000324388
-0.00272663
-0.00095791
1.42204e-05
-0.000143326
0.000182753
-5.56094e-05
-0.000150957
-0.000875279
4.10029e-05
0.00122826
0.0024827
0.0102281
0.108536
0.455717
0.0261051
-0.0809976
0.292766
-0.0047125
-0.0625689
-0.0208032
-0.0299023
0.850074
-0.0162516
-0.00473082
0.00532821
0.0021577
0.00544898
-0.0759917
-0.00163789
-0.00176686
-0.0163685
-0.151174
-0.129182
-0.077922
-0.304828
0.0310628
0.075934
0.00389081
-0.00428329
-0.00449649
-0.00239103
-0.0938124
-0.00464133
0.0449944
-0.0269962
0.0478879
-0.00270134
-0.08558
-0.00505635
-0.0028016
-7.98116e-05
0.00521204
0.0190757
0.00249757
0.00330878
0.0177319
0.0173006
0.000831608
-0.00177387
-0.000445981
0.00105091
0.00299858
-0.00136568
-0.00111172
0.01349
0.323382
0.0140767
-0.000348927
0.00191345
0.000479425
0.000164184
-0.000133791
-0.00149313
0.00118106
0.43925
-0.50127
0.00127841
0.000533707
0.000440504
0.000451599
-0.502386
0.43999
0.000103278
-0.439567
0.445646
-0.445165
0.000353619
0.440145
0.000322886
0.000127235
9.18349e-06
-8.37748e-05
0.000556374
0.00105559
0.000195775
8.21e-05
-0.000216389
-0.000959154
0.00152033
0.438008
-0.432058
0.431811
-5.81729e-05
0.000117342
0.000210241
0.000183874
-7.9821e-06
0.439877
-0.502886
-5.53256e-05
-0.000182316
0.00015626
-0.000682888
-0.000721718
-0.50288
0.438555
-0.000530238
-0.000395992
-0.00103166
0.00101311
6.49536e-05
0.000120431
-0.0130932
-0.0208682
-0.0847902
-0.0135311
-0.0014031
4.99047e-05
0.000426387
2.71574e-05
0.000108461
0.00123211
-0.00135932
-0.001563
-0.000357158
-0.000232495
-0.00190668
-0.00120464
-0.00113053
0.000321984
-0.00173973
0.00132384
-0.00195111
-0.00677784
-0.000587012
-0.00239901
-0.0150195
0.0107274
0.0299007
-0.000612589
0.00119677
-0.428956
0.00326115
0.013243
0.0867579
-0.00176693
-0.00251651
-0.0186931
-0.176647
-0.108486
0.0246605
-0.00314142
-0.00247982
-0.00195998
-0.0223791
-0.00285458
0.163093
0.0493461
-0.00835639
0.034724
0.245848
0.0214354
-0.00360258
-0.00643021
-0.00759747
-0.0114154
-0.283235
-0.252171
0.0018658
0.0255595
0.00946136
0.0410556
-0.0776627
0.000480179
0.00452701
-0.0115688
0.00016544
-0.384227
0.00534599
0.00108843
-0.000286922
-0.00167474
7.56622e-05
-0.00137045
-0.462722
0.320596
-0.372959
0.0194089
0.184416
0.315212
-0.000225225
-0.000344347
0.00110872
-0.0796538
-0.30208
-0.0209934
-0.00478922
-0.00117288
-0.0025577
-0.0889706
0.000680815
-0.278803
0.0070981
-0.270748
-0.00209659
0.0369555
0.00136806
-0.106486
0.0501801
-0.0100563
0.334384
0.000392183
-0.285166
0.021344
0.0890919
0.0167102
1.72164e-05
0.0014841
0.000313338
0.00503683
0.323373
-0.504575
0.00164734
-0.168257
-7.69338e-05
0.0220367
0.0346902
0.019395
0.00655331
-0.000530789
-0.00758773
-0.0202661
-0.0353368
0.000211311
0.206225
0.245253
0.244004
0.171028
-0.406277
-0.38234
-0.0189037
0.38727
-0.00823694
-0.473457
0.0797787
0.0130422
-0.055201
0.060917
0.00381653
-0.0567793
0.0589592
0.00238697
-0.054573
0.0595975
0.00191085
-0.0541724
0.058545
0.000105909
-0.0558937
0.0562159
-0.00405623
-0.0610124
0.0509686
-0.0150971
-0.0806478
0.0304048
-0.0651678
-0.156337
-0.0749678
-0.234248
-0.287635
-0.281309
-0.239232
-0.254636
-0.26474
-0.253288
-0.273569
-0.26006
-0.258377
-0.269321
-0.25748
-0.274869
-0.273039
-0.254601
-0.338649
-0.158639
-0.15265
0.585306
0.0371929
0.329556
-0.162823
0.426329
0.0269546
0.378358
-0.167383
0.403645
0.0224174
0.390151
-0.167898
0.39911
0.0231835
0.410646
-0.162555
0.387392
0.0247372
0.503477
0.0607595
-0.0433266
-0.322652
-0.00305495
-0.244209
0.157154
-0.212425
0.186388
-0.200472
0.194413
-0.195162
0.197398
-0.19412
0.197537
-0.192525
0.200453
-0.186268
0.210808
-0.157437
0.242777
0.00431635
0.302864
0.213417
-0.0847659
0.238809
-0.222717
-0.0108785
-0.00522748
-0.122095
0.128895
-0.114765
0.212185
0.0287413
0.0344918
-0.00856016