/*--------------------------------*- C++ -*----------------------------------*\
| =========                 |                                                 |
| \\      /  F ield         | OpenFOAM: The Open Source CFD Toolbox           |
|  \\    /   O peration     | Version:  2306                                  |
|   \\  /    A nd           | Website:  www.openfoam.com                      |
|    \\/     M anipulation  |                                                 |
\*---------------------------------------------------------------------------*/
FoamFile
{
    version     2.0;
    format      ascii;
    arch        "LSB;label=32;scalar=64";
    class       volScalarField;
    location    "2.2";
    object      gradTx;
}
// * * * * * * * * * * * * * * * * * * * * * * * * * * * * * * * * * * * * * //

dimensions      [0 -1 0 1 0 0 0];

internalField   nonuniform List<scalar> 
5322
(
-0.251636
0.00571133
0.00697286
0.000800304
-0.000125538
-0.000165222
1.02064e-05
0.000136868
8.42853e-05
-0.000203761
-0.00100647
0.0110081
0.0169566
-0.233536
-0.00618648
0.406439
-0.319371
-0.0050391
-0.243669
0.15706
-0.213538
0.185708
-0.19642
0.19746
-0.200003
0.192084
-0.192491
0.199644
-0.196656
0.196659
-0.186604
0.211928
-0.159209
0.242561
0.00342904
0.304341
0.214554
-0.0855669
0.240501
-0.0138109
-0.228092
0.22937
-0.013887
-0.244038
0.242523
-0.00834367
-0.259384
0.226513
-0.00572622
-0.271856
-0.268196
-0.389503
-0.121653
0.261223
-0.0166545
-0.431371
-0.0122514
0.412266
-0.00494497
-0.41196
-0.0017748
0.401495
-0.00232012
-0.40464
-0.000148328
0.395342
0.00501683
-0.400725
0.0172453
0.328154
0.0130185
-0.35034
0.396955
-0.410843
0.395503
-0.402759
0.403546
-0.402704
0.45843
-0.330285
0.161847
-0.213773
-0.138222
0.240029
0.0249506
-0.136098
0.158963
-0.427999
-0.161562
0.510175
-0.0219333
0.00955356
0.0176288
0.0796211
0.365963
-0.0851047
-0.0104196
-0.0419742
0.163904
-0.379524
-0.379926
0.849049
-0.041265
0.282269
0.45945
-0.00574201
0.0027674
0.00379006
0.00229645
0.00112293
0.000443373
-0.000124141
-0.00118341
-0.00289976
0.00455787
-0.00153744
-0.134194
-0.132405
0.0140138
0.0843895
0.00479348
0.128749
-0.154
-0.0115386
-0.035468
0.238736
0.196385
0.0546143
0.15355
0.0992624
0.0754828
0.164858
0.0832369
0.0892984
0.167727
0.0728705
0.140526
0.190661
0.216133
0.0092844
-0.158428
0.00873488
0.105533
-0.127855
-0.137171
0.0196067
0.0566809
0.0311877
-0.107353
-0.117989
0.0220743
0.0351468
0.042359
-0.116431
-0.110471
0.0222573
0.0231061
0.0670674
-0.12779
0.166734
-0.359422
-0.481774
0.415206
-0.486218
-0.0203601
-0.334559
0.00268148
0.326153
-0.078334
0.388735
0.192703
0.287353
-0.430632
0.16804
-0.371051
0.246844
0.321823
-0.393612
0.00881289
-0.334648
0.294523
0.366612
-0.389598
-0.00243237
-0.326538
0.310758
0.379654
-0.389095
-0.000780601
-0.324683
0.316256
0.38408
-0.391295
4.95245e-05
-0.326663
0.315726
0.384829
-0.396954
0.000431684
-0.332231
0.310578
0.382766
-0.405639
0.00101509
-0.339307
0.300596
0.377421
-0.41252
0.00241924
-0.341022
0.282272
0.352386
-0.0769487
0.156585
-0.376726
-0.384178
0.854271
-0.0293507
-0.0321615
0.0197241
0.0859395
0.363595
-0.0671918
-0.00670125
-0.074894
0.149156
-0.383846
-0.377537
0.849377
-0.049737
0.282348
-0.010737
0.00466345
0.0045477
0.00292568
0.00152156
0.000658768
-5.81962e-06
-0.00109344
-0.00263469
0.00454843
-0.00140911
0.106636
-0.118363
0.117947
-0.107135
0.000215221
0.107251
-0.101361
-0.00056928
-0.127673
7.10568e-05
-0.107276
-8.30904e-05
0.101099
0.00397446
0.119237
-0.00973889
-0.128921
0.000421708
0.127494
-0.000131686
-2.13809e-05
0.225828
-0.388169
0.387702
-0.383464
0.40367
-0.41298
0.431884
-0.430563
0.437418
-0.435573
0.439357
-0.437492
0.441638
-0.438212
0.44468
-0.437173
0.446266
-0.428507
0.439642
-0.235551
0.0049514
0.23776
0.00640733
-0.428891
0.41705
0.00216265
-0.433487
0.427212
0.00146892
-0.43222
0.428647
0.000974038
-0.429548
0.427731
0.0006766
-0.427243
0.425706
0.00070553
-0.424551
0.421175
0.00113348
-0.417289
0.406354
0.00128896
-0.388149
0.000228705
0.388017
-0.406608
-0.0018277
-0.403071
0.382882
-0.000719722
-0.227755
-0.0148002
0.231666
-0.401998
0.388133
-0.408736
0.410576
-0.417939
0.41744
-0.419382
0.420439
-0.419871
0.423989
-0.419742
0.429378
-0.416492
0.4347
-0.401828
0.431375
-0.232127
-0.049819
0.100957
0.0127383
-0.400389
0.360384
0.00505057
-0.394593
0.381421
0.000722631
-0.382684
0.381137
-0.000471592
-0.378104
0.378524
-0.000664996
-0.376864
0.377848
-0.00192667
-0.375813
0.37849
-0.00487931
-0.370695
0.373537
-0.0112648
-0.345085
0.315962
0.00681133
-0.114511
0.194886
0.320477
0.0102188
0.0398799
-0.0585871
0.163966
-0.505781
0.38376
-0.481229
-0.324044
-0.400659
0.0104008
0.263839
0.291811
-0.420136
0.162479
-0.377049
-0.0280193
0.0202008
-0.152627
0.0130579
-0.00616319
-0.161929
0.0165157
-0.0261466
-0.382557
-0.414904
0.299343
-0.388171
0.00498904
0.354141
-0.386033
0.372784
-0.386333
0.00274166
0.379657
-0.38918
0.3809
-0.395308
0.0147912
0.37816
-0.402566
0.370504
-0.403695
0.0833844
0.0194969
0.0125107
0.0131629
0.00633477
0.015539
0.390873
-0.413093
0.00318706
-0.335054
0.276018
0.384806
-0.405182
0.00724165
-0.355741
0.247278
0.4942
-0.0581925
0.00931077
-0.411938
-0.380139
0.8039
-0.049893
0.0133828
0.022527
-0.24538
0.0561562
0.192986
-0.199736
0.0164144
0.207191
-0.187944
0.00260194
0.201741
-0.192905
-0.000357072
0.192963
-0.187268
-0.00499517
0.200876
-0.181153
-0.0122903
0.21186
-0.142546
-0.020567
0.250472
0.0951096
0.070341
-0.0184963
-0.00963169
0.0986033
-0.0433554
0.444121
-0.474501
0.463662
-0.473443
-0.306513
-0.397459
-0.00093806
0.303388
0.382795
-0.397209
-0.00219621
-0.307771
0.0026005
0.000227743
0.00335344
-0.000322082
0.00660085
0.0254789
0.0235825
0.042841
-0.0125098
0.00677667
0.178389
0.283448
0.236397
0.079903
0.359414
0.143067
0.0670766
0.0199982
0.0128145
-0.00577632
-0.00367035
0.00369885
0.00600798
-0.0563922
-0.000868946
0.0649959
-0.0600132
0.469477
-0.475558
0.472231
-0.484806
-0.317988
-0.407182
0.00111335
0.3009
0.392515
-0.400649
0.00013216
-0.309593
0.00450693
0.00199248
0.000503087
0.000346154
0.000870051
0.00154152
0.00245051
0.00197261
0.00526695
0.00802456
0.0764562
-0.00133524
-0.000498344
-0.00245883
0.00042079
0.00101857
-0.0100967
0.023432
-0.27018
-0.00067591
0.00371312
0.000174462
-0.00365795
0.413045
-7.09279e-05
-0.431699
0.417244
-0.421209
-0.00148258
0.431191
3.97476e-06
-0.437356
0.42486
-0.425406
-0.000616988
0.436621
0.000247619
-0.439141
0.428072
-0.426908
2.88232e-05
0.439114
0.00047238
-0.44124
0.431104
-0.427041
0.000645711
0.440687
0.000391655
-0.443952
0.434634
-0.424513
0.00155174
0.440062
-0.000847113
-0.444469
0.436181
-0.413814
0.00246316
0.428794
-0.00378239
-0.436034
0.429864
-0.235899
-0.000286196
0.234243
-0.0143691
-0.0298909
-0.0314164
-0.0327863
-0.410917
0.102535
0.0912708
-0.0349856
-0.0721086
-0.0359637
-0.469396
0.098878
-0.120051
-0.201229
-0.0737669
-0.0577315
-0.0604208
-0.0257215
-0.0114936
0.00189667
-0.000463091
-0.00931149
-0.0116398
-0.00682476
-0.0132521
-0.0263048
0.00465383
0.209491
0.245641
0.240884
0.277539
0.343231
0.326775
0.255588
0.257271
0.167852
-0.149275
0.0481835
-0.0175157
-0.0122675
0.0437334
-0.130143
-0.000354959
-0.000204615
-0.000420574
3.30195e-05
-0.0822103
-0.0936604
-0.0928221
-0.0832169
0.0824958
-0.070029
0.00259963
0.0932491
-0.0804662
-0.0807939
0.00257915
0.0929067
-5.23473e-06
1.50314e-05
4.11179e-05
4.59852e-05
-0.00245659
0.00329114
-0.00168467
-0.000927891
-0.000118697
0.00050787
0.0012699
0.00541306
0.00400311
0.00218155
0.00946893
-0.00265841
0.0567206
-0.0809317
0.47946
-0.494778
0.492359
-0.0102463
-0.144643
-0.0216232
0.0398455
-0.00429533
-0.00957523
-0.00504948
-0.0275985
-0.0577711
-0.115212
-0.263283
-0.26917
-0.670814
-0.316694
-0.276925
-0.00942966
-0.109188
0.0858024
-0.542056
-0.323894
-0.151487
0.245557
0.0197785
0.0128215
-0.256796
0.27177
0.0015956
-0.0321467
-0.282129
0.273087
0.000476516
-0.0358422
-0.275329
0.272182
0.00234556
-0.0587499
-0.262703
0.194067
-0.154594
0.126614
0.095981
0.283387
-0.133155
-0.0770681
0.0421127
0.170634
-0.558326
-0.0310984
-0.326914
0.284781
0.262312
0.250367
0.314309
0.152025
0.0345523
0.121458
0.183688
0.303562
-0.141482
0.02917
0.225298
-0.194036
0.000217094
0.19722
-0.200014
-0.00251067
0.191406
-0.195602
-0.00147046
0.190269
-0.193578
-0.00128999
0.189705
-0.19485
-0.00272601
0.183332
-0.205723
-0.0162257
0.155678
-0.238242
-0.0887298
-0.0038471
-0.320926
-0.198697
0.115935
-0.316183
0.349817
-0.371249
0.0104254
-0.389058
0.401363
-0.00609661
-0.231431
0.014781
0.228099
-0.225641
0.000800667
0.00133422
0.000391685
0.000314807
0.000485284
0.00044959
0.000144012
0.000322792
0.000865441
0.00127801
0.00384301
0.000570044
0.0615925
-0.064772
-0.0018748
-0.000469952
0.00261912
0.000266735
0.303322
0.390697
0.0025476
-0.323663
0.316509
0.000177265
-0.325886
0.315093
0.000564892
-0.332546
0.309123
0.00117629
-0.342609
0.29829
0.00241325
-0.349527
-0.015423
-0.0123269
-0.0662387
-0.0658235
-0.106425
-0.0516184
-0.0252529
-0.0112924
-0.00753806
-0.0150371
-0.0278726
0.00180846
0.204369
0.237475
0.230587
0.327344
0.195935
0.0021922
-0.0222016
-0.0116111
-0.00598078
-0.00943008
-0.0221613
-0.0477353
-0.0990117
-0.232805
-0.247828
-0.441251
-0.332118
-0.104597
-0.105374
0.224645
0.0263396
-0.0275593
-0.0219119
0.111248
0.00460278
-0.0886269
-0.0848214
0.0878954
-5.45101e-05
-0.0980211
-0.0938168
0.0769131
-0.000397727
-0.121856
-0.116268
0.0372074
-0.154111
0.0980143
0.0950198
0.0994534
0.0864854
-0.135285
0.00948615
0.0501388
-0.153242
0.0368031
-0.148026
0.173979
-0.402786
-0.0216572
-0.387586
0.263104
0.270958
0.271348
0.266287
0.261464
0.264728
-0.419304
-0.0253853
-0.378269
0.271253
0.290464
0.272431
0.286711
-0.0214064
-0.40334
-0.400801
0.174388
0.27235
0.240461
0.238115
0.296455
0.283854
0.2276
0.0692869
0.151431
0.0616828
-0.0327806
0.0760359
0.0116222
-0.0554575
0.0576922
0.0024953
-0.057271
0.0568491
0.000339974
-0.0584229
0.056149
-0.000171115
-0.0567031
0.0579084
-0.00077781
-0.0582223
0.05611
-0.00386014
-0.0609964
0.0532375
-0.0142299
-0.081222
0.0311252
-0.0646338
-0.156952
-0.074916
-0.233015
-0.280759
-0.286546
-0.192967
-0.141841
-0.218075
-0.00918579
0.159468
-0.120485
0.0117109
0.132195
-0.131839
0.00556568
0.137776
-0.141307
-0.00467585
-0.00949899
-0.245044
-0.000783334
-0.39739
0.000466721
-0.393773
0.00210986
0.411972
-0.418163
0.00049795
-0.414861
0.00485329
0.421025
-0.381716
6.7331e-05
0.382262
0.00199955
-0.381742
7.33966e-05
0.382171
0.00131633
-0.381837
0.000105408
0.381884
-0.000681873
-0.382003
0.000188323
0.381752
-0.0010284
-0.382083
0.000540499
0.38193
-0.00571011
-0.378211
0.00275339
0.378296
-0.00768959
-0.00841385
-0.4718
-0.341015
0.00780437
0.439795
-0.00285856
-0.467332
-0.324211
0.0064426
0.457203
-0.000917543
-0.465193
-0.319638
0.0024125
0.461804
-0.000676192
-0.464309
-0.317256
0.000155641
0.464584
0.000671487
-0.461932
-0.315757
-0.00197741
0.465921
0.000795412
-0.457699
-0.31306
-0.00552217
0.469414
0.00305329
-0.439666
-0.305305
-0.00584851
0.477123
0.0106983
-0.382322
-0.270273
0.0250837
0.503365
0.0608006
-0.0435341
0.11635
-0.199256
-0.322174
-0.00326811
-0.0901579
0.00140324
0.276236
-0.0228058
0.00387228
-0.232787
0.00104007
0.398389
-0.389473
-0.00243893
-0.392175
0.0109327
-0.376319
-0.000734633
0.378437
0.00849077
0.00308482
0.000785061
0.00451907
0.409838
0.00281491
-0.00350246
-0.101875
-0.000283642
0.110111
-0.00015214
0.000361561
0.000496556
-0.0175409
-0.0202743
-0.0145329
-0.15882
0.0159798
-0.0260293
0.00244308
0.00279049
0.00493969
0.360484
0.297503
0.00171472
-0.0032734
-0.0135366
-0.0161899
0.264144
0.00971126
-0.336444
0.301317
-0.00223122
-0.326048
0.312985
-0.000708143
-0.000714025
0.00114474
0.00416169
0.00129367
0.00275282
0.00571025
0.00271595
0.00138739
0.00117892
0.00460284
0.000361099
0.00100383
0.00247151
-0.333508
0.293442
0.465328
-0.480517
0.473607
-0.478983
-0.0011654
-0.377421
-0.0036329
0.380838
-0.00471424
-0.374736
-0.0120398
0.392766
0.0234712
0.0294089
-0.267872
-0.000912752
0.287614
-0.301745
-0.000699741
-0.497097
-0.000951464
0.495216
-0.434266
-0.000196947
-0.439523
0.000121195
0.439341
-0.434245
-5.52981e-05
-0.431316
-5.5297e-05
0.431281
-0.443654
-0.000222843
-0.42222
-0.00133849
0.421234
-0.420297
-0.00377016
0.416445
-0.410336
-0.00776858
-0.00984382
-0.00227535
-0.00098406
-0.000133606
0.000150813
0.000443469
0.0012946
0.0026738
-0.00462639
0.00121434
-0.106744
0.118574
-0.11721
-0.109661
0.00109763
0.000658564
-0.00228161
0.00642237
0.103995
0.000945956
-0.0012385
-0.00968207
0.0126768
-0.0111054
-0.155557
0.0151994
-0.0329697
0.233202
0.0112688
-0.0111694
-0.00943047
0.0062014
9.02022e-05
0.07975
0.0808053
-0.0024373
0.0689293
0.106628
-0.00184228
-0.00232331
-0.00239594
-0.000824762
0.00824922
-0.123974
0.317152
0.0184781
-0.473281
-0.00302727
0.479156
-0.420456
-0.00210416
-0.433928
-0.000215807
-0.428222
-0.000176841
-0.429535
0.000941691
0.430312
-0.441441
0.000189812
-0.422278
0.000628169
0.422717
-0.422444
-0.000402113
0.422492
-0.00027001
9.20011e-05
0.000460349
0.00116372
0.00189967
0.00252138
0.00013609
-7.58198e-05
-0.00256353
-0.00244566
-0.00922325
-0.011608
-0.00243412
-0.0025016
3.98966e-05
5.274e-05
0.000309185
0.000129304
0.000331099
0.000261673
0.000337488
0.000405173
0.000381978
0.000260004
0.00155697
0.00189906
0.00250108
0.00909064
-0.00049988
0.0642026
-0.330303
-0.0835647
-0.000118479
-0.0312258
0.141851
-0.144773
-0.470888
-0.170444
-0.00274765
0.0411869
-0.000221984
-0.33359
-0.141364
-0.093481
0.213465
0.0257622
-0.0235952
-0.0413754
0.120407
0.00438056
-0.0823833
-0.102557
0.103046
0.000229691
-0.0910845
-0.108092
0.0955595
0.000565242
-0.117108
-0.122505
0.0257648
-0.00707426
0.00114506
0.0014577
0.412227
-0.372748
0.00250741
0.38594
-0.0140316
0.0103473
-0.48764
0.00177695
-0.302768
0.310438
-0.00262898
-0.294751
-0.513328
0.444103
-0.0278745
0.0449619
0.166882
0.00175746
0.359082
0.26681
0.300383
-0.399
0.0046776
-0.338018
0.0106669
-0.37426
0.00803898
-0.358584
0.0105551
-0.360363
0.00908053
-0.384564
0.280066
0.273831
-0.019274
-0.48214
-0.387669
0.171189
-0.119069
0.149368
0.0838954
0.0996921
-0.146355
0.0412551
0.0313025
-0.157937
0.0623506
0.114342
-0.136976
0.214628
-0.114988
0.0179053
-0.127214
0.0221649
-0.138755
-0.108737
0.021295
-0.00879751
-0.00201301
-0.0013803
-0.000299529
0.000319915
0.000389826
0.000525108
0.00127072
0.0026139
-0.00468323
0.00131497
-0.0697781
0.0823874
0.000600479
0.016623
0.0119285
0.0096113
-0.119922
-0.00879751
0.128153
-0.105495
-0.0577544
0.129999
-0.141624
-0.193518
-0.218418
0.154021
0.15904
-0.00953094
-0.0134041
-0.043426
0.00505129
0.163044
-0.0296475
-0.0381925
-0.0215358
0.11671
0.116794
-0.0383687
-0.0293755
0.150044
-0.0823826
-0.174427
-0.0828155
0.160623
-0.0161
-0.0170796
-0.020868
-0.00553993
0.00172323
0.275834
-0.0232791
0.0106112
-0.000449151
0.000352383
0.000574596
0.000356655
-4.36401e-05
-0.000703506
-0.00177193
-0.000244693
-0.00126177
0.00032938
-0.011238
-0.00419259
0.00612494
-0.015781
-0.00758879
-0.00749593
-0.209472
0.2013
-0.00575711
-0.00471355
0.00980615
-0.00483575
-0.00448054
0.0340722
0.0709927
0.0363166
0.25322
-0.127491
0.0163075
0.132966
0.167909
-0.0666552
0.00664796
-0.00242173
0.0110297
-0.00269279
0.00127895
-0.0192184
-0.00382006
0.000130774
-7.11683e-06
-0.000525083
-0.00120882
-0.00082937
-0.0020886
0.00147955
0.00282009
0.000612826
-0.00531084
-0.00112206
-0.000244578
-0.000215029
-0.000383968
0.000550941
0.00755751
0.00234891
0.0038741
0.0022182
0.000842907
1.95706e-05
0.000764698
0.000807734
0.00170546
0.00298884
-0.41109
0.373828
-0.376125
0.37695
-0.376484
0.00193047
-0.416914
0.416934
0.0044489
0.00294222
0.00181924
0.000807192
0.407894
0.00246478
-0.00379399
0.129097
-0.00278183
0.00241171
0.01158
-0.0190289
0.136628
0.107291
-0.0474474
0.0188718
-0.000402161
-0.000170712
0.07004
-0.00241133
-0.000142774
0.0494189
-0.149506
0.043349
0.000520352
0.0173611
0.012702
0.00135175
-0.0132612
0.00537647
0.0116797
-0.0475469
-0.0436641
0.137097
-0.0578906
-0.105388
-0.0191956
0.129459
-0.00862536
0.011665
0.00932203
-0.00649103
-0.00035235
0.00255038
0.00932196
-0.00368513
-0.00407696
-0.00108755
-0.000636201
-0.000186342
0.00117777
0.000750885
0.000636629
0.000427061
0.418856
-0.419056
0.377118
-0.377437
0.377737
-0.379225
0.00182926
-0.421128
0.419782
0.00136466
0.000563494
3.34856e-05
-0.00036963
0.000543298
-0.00107235
0.000552947
0.000244427
0.000439896
0.000338618
0.000646839
0.000218834
0.000681272
0.00200828
0.0112592
0.0102018
0.0366454
0.00173312
0.000735804
0.000133942
-0.000765971
-0.00272952
-0.00113909
-0.00114379
0.000126999
-0.000265566
-0.000209561
0.000243368
0.0002691
0.000259782
1.19923e-05
-0.00110467
-0.0029283
-0.00306426
-0.00119279
1.53722e-05
0.000110354
0.000195599
0.000301728
0.000413806
0.000731383
0.000628037
0.000586911
0.00130213
0.00110801
0.000607049
0.00176682
0.00338754
0.00138612
0.00205266
0.0491161
-0.010031
0.00441735
0.00143376
0.00536955
0.108578
-0.00505997
-0.0156854
0.0776738
0.0232957
-0.33374
-0.116093
-0.254162
0.227756
-0.155046
-0.166011
0.203875
-0.270244
-0.0145496
-0.0197856
-0.224618
0.197792
-0.00315313
-0.011039
-0.00114222
0.00404103
0.00565999
0.0826895
0.0257981
-0.15342
-0.131825
0.250466
0.0249545
-0.059245
-0.0171964
0.103455
0.00337841
-0.118196
-0.0766296
0.077811
-0.000280328
-0.123746
-0.0850469
0.0676102
-0.00112081
0.107765
0.10366
0.00620228
0.12956
-0.125954
0.000483052
-0.113829
-0.000633588
-0.00262199
-0.000447308
-3.88028e-05
0.000177295
0.0001968
0.000171808
0.000138414
4.07224e-05
-0.00105281
-0.00286791
-0.00151581
-0.325561
0.311169
-0.000690664
-0.323965
0.316568
0.47537
-0.480192
0.475898
-0.485548
0.000279583
-0.38238
0.00257629
0.378517
-0.000365104
-0.378543
-0.000220012
0.378672
0.00205482
0.00230105
-0.27873
0.000791554
0.282804
-0.30453
0.000442601
-0.496521
0.000434234
0.498733
-0.4349
-0.000158743
-0.437856
0.000459024
-0.43316
-0.000691664
-0.426755
-0.00131566
0.422694
-0.438546
0.000111256
0.420115
-0.0011836
-0.413515
0.412512
-0.00122052
-0.427501
0.432072
-0.41762
-0.00015199
0.000425775
0.00186718
0.00156865
0.000807969
0.000267353
-0.000223526
-0.00108863
-0.00118986
-0.000169457
0.000847355
0.00211225
0.00215676
0.00466952
-0.325715
0.316371
0.000937276
-0.330782
0.312112
0.475592
-0.49625
0.472807
-0.505406
0.012777
-0.432457
0.0398916
0.376659
0.00244494
-0.396529
0.0114227
0.37991
0.000723477
0.00709919
-0.275488
0.00571049
0.293735
-0.311125
0.0015409
-0.492342
0.00273313
0.497559
-0.426062
-0.00169509
0.41695
0.0037971
-0.471483
0.275257
-0.00111652
-0.31766
0.2822
-0.295574
0.0154445
-0.0361057
-0.0180134
-0.0312935
-0.055863
0.351185
-0.498117
0.107918
-0.0795544
-0.0308935
-0.0117462
-0.00431766
-0.0025315
-0.00413918
-0.00108518
0.0664517
0.685332
0.343612
-0.1784
0.120278
0.0615056
0.391123
-0.339249
0.368526
-0.021949
-0.240424
0.0116629
0.434945
-0.41125
-0.00109945
-0.408151
-0.000105445
-0.412749
-0.000257574
-0.422519
0.00183381
0.42629
-0.436342
0.000424638
-0.420763
0.00172502
0.422632
0.0016282
0.00110351
0.443417
0.00247282
0.43836
-0.00034422
-0.00280309
-0.00528111
-0.0179478
0.00285688
0.240451
0.0167144
0.0209043
0.0828688
0.145634
-0.201388
-0.00056903
-0.298754
0.00102933
-0.494676
-0.00228831
0.491666
-0.431567
-0.000808889
-0.438816
-4.50898e-05
-0.43277
-3.9359e-05
-0.431168
0.000363943
0.431455
-0.443116
-2.06776e-06
0.443313
-6.51937e-05
0.000407352
0.443883
-2.89113e-05
-0.000173796
-0.000867167
-0.00229889
0.427564
-0.00455042
0.40343
0.0241117
0.0123527
0.304335
0.0120725
0.00717426
-0.000531395
0.30919
0.00118408
0.00486472
-0.278108
-0.000362295
-0.3035
-0.000163802
-0.49682
-0.00019872
0.496957
-0.435084
-2.24471e-05
-0.439261
0.00027572
-0.434363
-0.000274801
-0.430322
-0.000575815
0.429555
-0.443264
-0.000443672
0.436868
-0.000942145
-0.000406695
4.49998e-06
0.000144829
0.000233972
0.000431024
0.00125924
0.00235942
0.00127537
0.00125578
0.000626659
0.00110669
-0.00157446
-0.00061307
0.000142301
0.000448284
0.000524317
0.00047629
0.000338424
0.000551302
0.00104942
0.00312074
0.00265149
-0.330234
-0.00859189
-0.323494
0.359345
-0.00739415
-0.340929
-0.348681
0.366298
0.342479
-0.00725763
-0.325446
-0.371689
0.389229
-0.349836
-0.00888072
-0.312944
0.352262
0.370513
0.365107
0.357106
-0.00814888
-0.344479
-0.319895
0.00268293
0.348904
-0.00674476
-0.365519
-0.333354
0.00121012
0.344823
-0.00247562
-0.373804
-0.339267
-0.348598
-0.35674
-0.00281788
0.35583
0.363361
0.00125873
0.337891
-0.00275197
-0.331049
-0.380329
0.386787
0.00116417
-0.305435
-0.458829
-0.00628537
0.317014
0.0021559
-0.298167
-0.44122
-0.0071451
0.334494
0.393964
-0.283335
0.0228267
-0.275432
-0.00972282
-0.279164
0.0225008
-0.274595
-0.00967493
-0.280255
0.0236326
-0.279781
0.389212
0.338589
-0.0105692
0.0152815
-0.00139905
-0.208908
-0.250426
-0.23713
-0.262898
-0.250323
-0.252313
-0.259202
-0.212834
-0.329379
-0.260442
-0.23804
-0.249697
-0.168693
-0.0728779
-0.0904617
0.149723
-0.167448
0.393987
0.398355
0.395288
0.396964
0.411454
0.386743
-0.162226
0.130789
-0.0725816
-0.168851
-0.0909124
0.163185
-0.0169023
-0.0034831
-0.00348657
-0.00162959
-0.000730846
0.000396183
0.000400472
0.360799
-3.63229e-05
-0.352018
-0.360471
-0.333451
-0.384234
-0.000271253
0.335432
0.384788
0.000488429
-0.308006
-0.464455
-0.00229555
0.312761
0.467741
0.00154762
0.0608796
-0.0597292
-0.000679477
0.0607039
-0.0600503
-7.53479e-05
0.0614826
-0.059505
0.00218336
0.0680792
-0.0536044
0.0128278
0.0951954
0.0338988
0.0188955
0.00627554
0.00290358
0.000482687
-8.70999e-05
-0.000468297
-4.83272e-05
-0.00124991
-0.000928523
-0.00278552
-0.0617976
0.470265
0.00313854
0.0580614
-0.0805645
-0.0126631
-0.0219273
-0.00858489
-0.0527183
0.0364381
0.0109202
-0.383803
0.0237244
-0.264952
-0.0107744
0.0157749
0.000672217
-0.168114
-0.28636
-0.278682
-0.233221
-0.0736357
-0.157271
-0.0634563
-0.125472
-0.356657
0.0608689
0.503291
0.384304
0.413967
-0.161814
-0.34457
-0.207947
-0.000537323
0.0349603
0.0228175
0.0130494
0.00494287
0.00159853
-0.000185037
-0.308899
-0.468419
0.466546
0.311429
0.000351491
0.00192019
0.00576584
0.00632856
0.019661
0.00718567
0.00127651
-0.00025247
0.000108625
0.382178
0.0016339
-0.334446
-0.38726
-0.307826
-0.47492
0.00102411
0.312021
0.466178
0.0024091
0.00154015
0.00164701
0.0011361
0.00174835
0.00303478
-0.424246
0.380093
-0.380483
-0.00590044
0.00248092
0.00119239
-0.002645
0.000616877
0.000182464
0.420478
0.000611725
0.000411212
0.419733
0.00267212
0.000257881
0.000815348
0.00150446
-0.000899722
-1.55716e-05
0.000488933
8.88458e-05
0.000311555
0.000149356
4.00977e-05
0.000373282
0.00137368
0.000605951
0.000127118
5.04548e-05
-0.000789289
-0.000251499
-0.000264432
-0.000865855
-7.54767e-05
0.000175511
0.000163882
-0.000456677
-0.000357058
-0.000211113
-0.000179198
-0.00373293
-0.00385393
-0.017006
-0.00650355
0.372262
-0.0024429
0.00021108
0.000124012
-0.00173213
-0.00185626
-0.00104025
-0.00701915
-0.00640192
-0.00484846
-0.000973558
-0.337082
0.303234
0.00462542
-0.334702
-0.0137936
-0.0136927
-0.0651999
-0.0831838
-0.304259
-0.306524
-0.491589
0.123215
0.0468939
0.254657
-0.0896476
0.132026
-0.0148204
-0.150827
0.135736
-0.00339681
0.105904
-0.00345449
0.127666
-0.140899
-0.0119015
-0.00374777
-0.00462346
0.00202865
-0.0170414
0.113404
-0.00567393
0.00419265
0.00423645
0.00271443
0.00153364
0.000659664
0.00056259
0.00603581
0.00519308
0.0129792
0.0112037
0.0320378
0.00662701
0.00299564
0.00100891
0.303971
-0.306527
0.00112013
-0.495992
0.00136267
0.500936
-0.433068
-0.000640704
-0.433355
0.000457467
0.428325
-0.000281704
1.41832e-05
0.000309617
0.00043224
0.00110409
0.00232896
0.00139246
0.000868409
0.000480179
0.000184693
9.05625e-05
0.00014275
0.000166438
0.00015576
0.426567
5.34263e-06
0.432221
3.08131e-05
0.414663
0.398136
0.00161203
0.396603
0.239199
0.00630478
0.001371
-0.000159944
7.84955e-05
-0.000842748
0.43367
0.00151043
-0.00103611
0.282198
0.000173972
0.000533063
-0.000302392
0.304427
0.00106412
0.00350956
-0.277586
0.00276738
0.287087
0.000163788
0.00215155
0.000967604
0.000640438
-8.43e-05
0.435249
0.00015704
0.43465
-6.23613e-06
0.000640395
0.43572
0.000293589
0.439736
-0.000140256
0.00182687
0.435476
-0.00155322
0.303234
-0.000372477
0.00606353
-0.278663
0.00956105
0.298613
-0.00967056
-0.000327936
-0.0106928
-0.0360652
-0.0844416
0.00314848
-0.0122796
-0.00531782
0.00406251
0.00367356
0.432656
-0.0006487
-0.00138574
-0.00135587
-0.000286501
-0.00486058
-0.000239988
0.000664061
0.000509691
0.438666
0.433081
-0.000330759
-6.70561e-05
-0.000877671
-0.00168349
-0.00186468
-0.00799891
-0.00299596
-0.00311072
-0.0016525
-0.000632826
0.441615
-0.00125207
-0.000213436
0.000397631
-0.000292538
-0.00154523
-0.00551523
-0.016664
-0.00399733
9.55658e-05
0.000403331
0.00181141
-0.00210652
0.00244462
0.00421191
-0.00733862
0.0324474
0.0671948
-0.0488549
0.348508
-0.00169894
-0.0232942
-0.0341518
-0.018984
-0.00657069
-4.86643e-05
0.00646413
0.0188034
0.0338917
0.0364618
0.000658745
0.0179192
0.0177594
-0.329444
-0.167592
-0.345007
-0.169322
-0.000473819
0.0212699
0.00541682
0.00227325
0.322574
0.383319
-0.00144408
0.00312271
0.00128089
0.00254823
0.00139653
0.00302386
-0.0038826
-0.0206629
0.153921
0.352917
0.01476
-0.000489809
0.00100619
0.00103398
0.000520711
0.000603877
0.000258551
0.000260354
0.0003333
-0.000574871
0.000124362
9.11818e-05
0.000876374
-0.000405885
-0.000667102
-0.363498
0.00257218
-0.354036
0.341383
0.00686714
-0.355692
-0.367667
0.350777
0.328346
0.00458587
-0.334961
-0.391539
0.375381
-0.000691353
0.313855
0.463795
0.00517511
-0.00106606
-0.001254
0.000988419
0.00170396
0.00445471
0.0772563
0.122263
0.187101
0.442376
0.0286946
0.228906
0.338905
-0.0156157
-0.00427096
-0.0112997
-0.00308546
-0.00157446
-0.000215999
0.333333
0.357578
0.349461
0.339324
0.00275775
-0.379321
-0.345353
-0.000881851
0.334074
0.00725735
-0.381189
-0.350516
-0.00221654
0.322405
0.343618
0.305865
-0.0015486
-0.0024223
-0.00269866
-0.000816828
0.000258706
0.00166273
0.000322211
0.000266182
-0.000815833
-0.000346539
-0.00312006
0.029482
-0.00323447
-0.00203507
-0.00492364
-0.00389678
-0.00241294
-0.0041105
-0.00175899
0.084327
-0.00200352
0.00187785
0.000255776
-9.48399e-06
0.00510582
0.00447081
-0.0315805
0.181406
-0.0788348
-0.306282
-0.38793
0.0290614
-0.177555
0.0737463
0.02334
-0.109404
-0.11764
-0.0128451
-0.0194272
0.129084
0.118303
-0.0111048
-0.115083
-0.00199018
0.115584
-0.000586579
0.00150358
-0.000115355
0.00134565
0.00329297
0.00342691
0.0023565
0.000687311
0.000546141
-0.00133166
-0.00115061
-0.000183724
-0.00068324
-6.97332e-06
-0.000145214
0.000834582
0.00181301
0.00168965
-0.00234797
0.00307376
0.00657862
-0.0123385
0.385896
-0.0253266
0.0184349
-0.429472
0.00530142
0.00469055
0.0350562
0.00405725
0.00861047
0.0263193
-0.00193343
-0.000738337
-0.00259906
0.00680211
0.0741855
-0.00480074
-0.00276085
-0.0014092
0.00190219
-0.188149
0.21818
-0.00650173
0.00141392
-0.00892523
-0.022419
-0.0253639
-0.00471463
-0.00223662
0.090481
-0.00230629
-0.0028156
-0.00530887
-0.000880207
-0.00310172
0.0797418
-0.00520118
-0.00298759
0.00681006
0.00519729
-0.00119167
-0.00132939
-0.000868173
-0.0022019
0.00203296
0.00553775
0.00439847
0.00354905
-0.00874369
0.017318
0.0173961
0.0200976
0.0268099
0.385863
0.0525841
0.00820626
-0.0130866
-0.00469735
-0.000279517
0.0039154
0.011721
0.001794
0.380263
0.318972
0.00116421
-7.57019e-05
0.000357978
0.000368055
0.316904
0.377723
0.000117907
-0.37731
-0.342298
0.342139
0.000356281
0.353037
0.00037073
0.00760037
0.0212066
0.002148
0.00208029
0.00617016
0.000401328
0.000487179
-0.00616303
-0.018726
-0.00523155
0.313984
0.33519
0.322294
-0.00589783
-0.0019233
-0.000304183
-8.13115e-05
-0.000285359
0.373958
0.315393
-0.000123189
0.00036894
0.00011125
-0.000726973
-0.000823091
0.312787
0.365276
-0.00178117
0.00106441
7.92282e-05
-0.000435864
-0.00187715
-0.0104517
-0.0553424
-0.357878
-0.129122
-0.0252516
-0.0034396
-0.000508038
0.000287137
-0.000306369
-0.000642291
0.000776081
-0.00522136
-0.0135738
0.012751
-0.0166272
-0.0333152
-0.0224186
0.0125456
0.230074
0.330955
-0.0160803
0.0027406
0.220114
0.332751
0.00187919
0.209562
0.346055
0.165061
0.00104047
-0.00192515
0.356131
-0.00212807
0.0201626
0.121468
0.0209701
0.0448169
0.0474833
0.045104
0.0597264
0.0376787
-0.000986787
-0.00491011
0.0459155
-0.021593
-0.0100336
-0.00778558
0.0490589
0.00477217
0.0338949
0.0296951
0.207442
0.175101
0.194425
0.185628
0.190171
0.0411357
0.00667294
-0.000794577
-0.00697953
-0.0839472
-0.283828
-0.267948
3.31732e-05
0.0114503
0.171218
0.00011206
0.434564
0.00326979
0.000579537
0.000187331
-0.000649221
-0.0110093
0.00182091
0.305649
0.437544
0.433248
-0.000219647
-0.0107694
-0.427786
0.00120741
0.00152916
0.00141584
-0.0444473
0.477755
0.0127075
0.0067671
0.00226584
0.00587308
0.0949378
0.00334009
0.214784
-0.254367
-0.0316074
-0.449414
-0.000210999
-0.0215004
0.107531
0.000720884
-0.455763
0.412067
0.00560366
0.232968
0.0153738
0.088975
0.216963
0.0347722
0.0370332
0.00177297
0.00151485
-0.00174058
0.293369
0.0132931
-0.0185505
-0.026286
-0.00841834
0.00215101
0.000460651
0.000198478
0.000352684
0.000413708
0.000132824
-0.000967696
-0.00151631
-0.0135932
-0.00688465
0.243844
0.0197256
-0.408794
0.445401
0.0269998
0.321913
0.00204444
-0.298134
0.308596
0.0302539
-0.270671
0.29319
0.00585082
-0.28228
0.288441
0.00365568
-0.284834
0.288321
0.00261645
-0.286553
0.28824
-0.000616492
-0.289877
0.28508
-0.00722086
-0.296737
0.272571
-0.0335802
-0.312113
0.203503
-0.148544
-0.395158
-0.120365
-0.370555
0.0231399
0.242168
-0.244028
0.0139008
0.253171
-0.2505
0.00520346
0.254306
-0.261463
-0.00294831
0.253514
-0.260338
-0.0215271
0.244784
0.256996
0.396169
0.100247
-0.285968
0.00373392
0.420375
-0.000773528
-0.428369
-0.00190623
0.410729
-0.00251004
-0.414757
-7.12758e-05
0.412337
0.000429658
-0.406154
0.0013058
0.418023
-0.0123465
-0.439319
-0.0190775
0.342743
-0.0608665
0.0787669
0.17868
-0.327083
0.333147
-0.396058
0.372991
-0.38513
0.378947
-0.379349
0.380629
-0.376393
0.381898
-0.374613
0.380416
-0.376597
0.381732
-0.374333
0.391706
-0.332673
0.321727
-0.158579
0.313522
0.39428
0.196231
0.290877
0.212015
0.163554
0.107316
0.0659216
0.19128