/*--------------------------------*- C++ -*----------------------------------*\
| =========                 |                                                 |
| \\      /  F ield         | OpenFOAM: The Open Source CFD Toolbox           |
|  \\    /   O peration     | Version:  2306                                  |
|   \\  /    A nd           | Website:  www.openfoam.com                      |
|    \\/     M anipulation  |                                                 |
\*---------------------------------------------------------------------------*/
FoamFile
{
    version     2.0;
    format      ascii;
    arch        "LSB;label=32;scalar=64";
    class       volScalarField;
    location    "2.2";
    object      gradTx;
}
// * * * * * * * * * * * * * * * * * * * * * * * * * * * * * * * * * * * * * //

dimensions      [0 -1 0 1 0 0 0];

internalField   nonuniform List<scalar> 
5322
(
-0.0182364
0.00100575
0.00107206
-7.08221e-06
-7.40251e-05
-6.47074e-05
-4.59462e-05
-3.25569e-05
-2.43777e-05
-1.58495e-05
-8.71144e-06
5.33483e-05
7.6389e-05
-0.0010415
-1.56435e-05
0.0019444
-0.00151639
1.34969e-05
-0.00124273
0.00110544
-0.00147819
0.00187342
-0.00198035
0.00290767
-0.00301681
0.00411929
-0.0041526
0.00593376
-0.00596089
0.00791568
-0.00752282
0.0110031
-0.00813324
0.0156039
0.00131714
0.0229634
0.0162833
-0.00645313
0.0178795
-0.0010634
-0.0169704
0.0170152
-0.00103035
-0.0180915
0.0180004
-0.000615009
-0.0192257
0.0169344
-0.000398917
-0.0201839
-0.020043
-0.0287835
-0.00953099
0.0182105
-0.00120144
-0.0297452
-0.000914601
0.0282696
-0.00034156
-0.028264
-0.000122538
0.0275336
-0.000144233
-0.027759
2.82613e-05
0.0271677
0.00040459
-0.0274926
0.00144615
0.022679
0.00131252
-0.0217031
0.0246486
-0.0254029
0.0244444
-0.024904
0.0249249
-0.0249387
0.0284099
-0.020823
0.00980218
-0.0151095
-0.0101949
0.0159304
0.00132918
-0.00707131
0.0115796
-0.031994
-0.0101406
0.0352052
-0.00159714
0.000353483
0.000616477
0.00396479
0.0208278
-0.0041562
0.000271553
-0.00151571
0.0119156
-0.0282576
-0.0281984
0.0580016
-0.00152955
0.0161144
0.0263086
0.000559191
0.000281663
0.000217105
0.00010638
3.49431e-05
3.76742e-06
-7.75818e-06
-1.34092e-05
-1.71191e-05
1.36894e-05
-8.9881e-06
-0.00062801
-0.000606532
7.82342e-05
0.000377365
1.486e-05
0.000556527
-0.000668184
-5.19814e-05
-0.00016824
0.00103967
0.000845994
0.000224135
0.00066514
0.000419174
0.000314381
0.000714773
0.000348262
0.000374849
0.000727086
0.000301974
0.000599542
0.000827263
0.000931865
3.90847e-05
-0.000693213
3.1261e-05
0.000476278
-0.000587119
-0.000641432
0.000104535
0.000249037
0.000129733
-0.000501158
-0.000552698
0.000119028
0.000147939
0.000183354
-0.00054663
-0.000513811
0.000120351
9.06636e-05
0.000300191
-0.000580129
0.00076389
-0.00172195
-0.00227854
0.00227199
-0.00299731
-0.000150838
-0.00177001
3.3795e-05
0.00160447
-0.000372864
0.00172858
0.000851711
0.00127701
-0.00206744
0.000772865
-0.00178483
0.00135355
0.00175938
-0.00247382
0.000166748
-0.0021026
0.00224185
0.00278771
-0.00356309
0.00015193
-0.00298723
0.00348117
0.00425504
-0.00527565
0.000237938
-0.00440596
0.00521255
0.00633731
-0.0077248
0.000340135
-0.00645534
0.00747135
0.00911547
-0.0110582
0.000460015
-0.00926117
0.0102175
0.0125955
-0.0153842
0.00061589
-0.0128652
0.0132869
0.0166645
-0.0204804
0.000848941
-0.0169033
0.0160914
0.0200469
-0.00368293
0.0113998
-0.0279818
-0.0285374
0.0582683
-0.00246539
-0.00263711
0.000716322
0.00430551
0.0207322
-0.00309176
0.00048206
-0.0036668
0.0109273
-0.0284583
-0.028063
0.0579144
-0.00198033
0.0161067
0.000247018
0.000451828
0.000258681
0.000139627
5.4638e-05
1.32336e-05
-3.70329e-06
-1.18474e-05
-1.55676e-05
1.35196e-05
-8.59758e-06
0.000492715
-0.000549754
0.000550409
-0.000492335
2.13521e-06
0.000491305
-0.00045853
-6.37824e-07
-0.000553983
8.88267e-07
-0.000488925
1.02227e-06
0.000460019
1.85851e-05
0.000516188
-4.31343e-05
-0.000560675
1.0933e-06
0.000554128
-1.61562e-07
4.64321e-07
0.00101321
-0.00185716
0.001858
-0.00183256
0.00219045
-0.00260976
0.00327926
-0.00395017
0.00491001
-0.00591865
0.00726375
-0.00864797
0.0104676
-0.0122152
0.0146011
-0.0165893
0.0195728
-0.0213105
0.0247864
-0.0143193
0.000356246
0.0145109
0.000419905
-0.0241365
0.02077
0.000123416
-0.0189759
0.0162522
7.61773e-05
-0.0141535
0.0119906
4.69102e-05
-0.0101491
0.00848731
2.80472e-05
-0.007043
0.00580441
1.79136e-05
-0.00475642
0.00387387
1.37969e-05
-0.00316653
0.002574
1.05778e-05
-0.00210511
2.82052e-06
0.00210946
-0.00256785
-8.57452e-06
-0.00218295
0.00183356
-3.84594e-06
-0.00102045
-6.62116e-05
0.00103623
-0.0019238
0.0021034
-0.00257232
0.00312189
-0.00381913
0.00469644
-0.00568768
0.00697053
-0.00829137
0.0100855
-0.0116902
0.0141677
-0.0157965
0.0191737
-0.0200012
0.0243861
-0.0141491
-0.00344585
0.00596431
0.000670913
-0.0227036
0.0181899
0.000156628
-0.0173352
0.014649
-5.52324e-05
-0.012531
0.0107203
-9.06089e-05
-0.00891601
0.00753371
-7.83126e-05
-0.00619108
0.00515719
-7.29485e-05
-0.0041852
0.0034774
-7.20939e-05
-0.00278779
0.00235574
-8.36093e-05
-0.00185476
0.00150442
1.9889e-05
-0.000512478
0.000857282
0.00141817
-2.5069e-05
0.000157685
-0.000261577
0.000778077
-0.00240555
0.00207179
-0.00300214
-0.00202248
-0.00251685
0.000176743
0.00143571
0.00159771
-0.00202175
0.000743285
-0.00179674
-0.000159754
7.06391e-05
-0.000685397
5.5828e-05
-2.86104e-05
-0.000711096
2.28387e-05
-0.000152906
-0.00184074
-0.00199695
0.00164025
-0.0024447
-6.83097e-05
0.00269711
-0.0035359
0.00418064
-0.00524524
-0.000234705
0.00626659
-0.00769245
0.00902768
-0.0110232
2.7924e-07
0.0124562
-0.0152775
0.0163738
-0.0200472
0.00415124
0.000706787
0.000191014
0.000232223
-0.00010902
3.07228e-05
0.0129155
-0.0156829
0.000717504
-0.0127226
0.0123353
0.0170888
-0.0201245
0.00110921
-0.0176953
0.0142349
0.0285787
-0.00246839
0.00134948
-0.030677
-0.0285
0.055344
-0.00373569
0.000575504
0.00103769
-0.0134569
0.00266762
0.00800599
-0.00831946
0.000554552
0.00640999
-0.00571856
2.23794e-05
0.00444708
-0.00413469
-5.09223e-05
0.00290154
-0.00278696
-9.96417e-05
0.00204587
-0.00182376
-0.000131854
0.0014601
-0.0010152
-0.000146052
0.00128444
0.000453803
0.000322206
-6.19754e-05
-3.09042e-05
0.000643713
-0.000271353
0.00335414
-0.00431045
0.00519197
-0.00639634
-0.00413408
-0.00538913
0.000242022
0.00341204
0.00429447
-0.00362931
0.000155997
-0.00279602
-0.000109204
-5.53682e-05
-1.2443e-05
-5.53207e-05
-8.14e-05
0.000152442
0.000106818
4.73101e-05
-0.000508493
-0.000149885
0.000836149
0.00123139
0.0010435
0.000364259
0.00171449
0.000634984
0.000508363
0.000381228
-0.000276512
-0.000760103
-0.00107903
-0.000527229
0.000405359
-0.00055781
6.33174e-05
0.000991609
-0.000887023
0.00776667
-0.00937566
0.0112349
-0.013523
-0.00884911
-0.0113539
0.000493284
0.00717051
0.00932096
-0.00791448
0.000352134
-0.00609179
-0.000160688
-5.74809e-05
-7.39932e-05
-0.000104257
-0.000258965
-1.37799e-06
-6.35386e-05
-0.000177531
1.95871e-05
-3.08071e-06
0.000763841
3.71625e-05
-8.32463e-05
-1.38414e-05
2.19898e-05
1.11453e-05
-4.83645e-05
0.000106709
-0.00122706
-5.25512e-05
-1.82955e-05
-6.2807e-06
-1.63232e-05
0.00261791
1.06201e-05
-0.00326857
0.00317674
-0.0038594
-6.24058e-06
0.0039709
2.1069e-05
-0.00489312
0.00477958
-0.00577568
1.89736e-06
0.00596016
3.38972e-05
-0.00723486
0.00709039
-0.00843386
1.51012e-05
0.00872574
5.34847e-05
-0.0104223
0.0102379
-0.011897
3.88853e-05
0.0123526
7.36637e-05
-0.0145343
0.0143014
-0.0161011
8.34652e-05
0.0167831
3.99834e-05
-0.0194566
0.0191598
-0.0205832
0.00013485
0.0213927
-0.000166331
-0.0245585
0.0242146
-0.0143872
-3.11342e-05
0.0142691
-0.000989912
-0.00231292
-0.00188804
-0.00276149
-0.0282127
0.00603291
0.00413809
-0.00220274
-0.0044376
-0.0015464
-0.0236112
0.00534475
-0.00912213
-0.012594
-0.00266437
-0.0038034
-0.00487839
-0.00263611
-0.0014002
0.000666823
-0.000796331
-0.00160148
-0.00150092
-0.00100981
-0.000749288
-0.000556169
-0.000155218
0.000991742
0.00106807
0.00106707
0.00122789
0.00160159
0.00152787
0.00113427
0.0011423
0.000771866
-0.000680315
0.000215694
-7.8087e-05
-5.43616e-05
0.000195897
-0.000592826
-1.27694e-06
-5.60704e-07
-1.41255e-06
1.0247e-06
-0.000377378
-0.000433478
-0.00043082
-0.000380792
0.000379948
-0.000314102
1.38753e-05
0.000435194
-0.000366695
-0.000367099
1.40547e-05
0.000432571
8.47266e-07
1.88082e-06
2.09636e-06
1.89747e-06
-1.59903e-05
1.33644e-05
-6.35818e-06
-2.73255e-06
6.84501e-06
2.59252e-05
6.34753e-05
5.46832e-05
-4.73289e-05
-0.000391256
0.000240813
-0.000255447
0.00176635
-0.00247859
0.0158901
-0.0188914
0.0220238
-0.00023375
-0.00629194
-0.00117357
0.00174791
3.1959e-05
0.000447821
0.000751953
-0.00247909
-0.0044342
-0.00854435
-0.0197602
-0.0203318
-0.0467489
-0.0192614
-0.016471
-0.000316922
-0.00638041
0.00582957
-0.0407911
-0.0248312
-0.0120226
0.01789
0.00143036
0.000777717
-0.0183387
0.0193173
0.000127199
-0.00238708
-0.0200215
0.0193855
3.90787e-05
-0.00263848
-0.0195466
0.0193298
0.000158932
-0.00424323
-0.0186579
0.0137972
-0.0117716
0.010183
0.00776438
0.022071
-0.0103784
-0.00578935
0.00325181
0.0125812
-0.0385234
-0.00189917
-0.0223896
0.0215012
0.0206022
0.0189823
0.0239804
0.0107027
0.00177053
0.00875079
0.0128102
0.0202349
-0.00719492
0.00178994
0.0120916
-0.00795637
0.000113944
0.00809473
-0.00611141
-6.83019e-06
0.00577366
-0.00426125
1.80149e-05
0.00408772
-0.00291137
1.84393e-05
0.00281509
-0.00197689
-1.09986e-06
0.00185004
-0.00142189
-8.44117e-05
0.00109747
-0.00121557
-0.000422072
5.97624e-05
-0.0014171
-0.000871903
0.000519276
-0.00150268
0.00188346
-0.00233868
8.24794e-05
-0.00210411
0.0019228
-1.51421e-05
-0.00103324
6.71612e-05
0.00102264
-0.00101107
5.82522e-06
7.88205e-06
3.09381e-06
3.66545e-06
7.49596e-06
1.22329e-05
3.60285e-05
5.58241e-05
9.12946e-05
-0.000326593
2.95009e-05
-0.000134684
0.00136152
-0.00139509
9.17031e-05
9.62952e-05
0.000510791
0.000524871
0.00502928
0.00645684
-0.000233543
-0.00439485
0.00522076
0.00034216
-0.00644469
0.0074643
0.000464645
-0.00928029
0.0101822
0.00062531
-0.0130084
0.0132004
0.000851538
-0.0173458
0.000301948
0.000614807
-0.00286858
-0.00286312
-0.00805096
-0.00413252
-0.00238553
-0.00148533
-0.00101614
-0.000765089
-0.000568613
-0.000170945
0.000969644
0.00103264
0.00102165
0.0015291
0.000930168
-0.000171318
-0.000553627
-0.000775015
-0.00105139
-0.00151684
-0.00238094
-0.00408883
-0.00774877
-0.0178848
-0.0187492
-0.0323527
-0.0260178
-0.008642
-0.00861443
0.0162812
0.00174569
-0.00203048
-0.00162152
0.00767119
0.000266385
-0.00622909
-0.00595261
0.00610713
-8.8177e-06
-0.00683348
-0.00653113
0.00538385
2.69544e-06
-0.00848664
-0.00809065
0.00269085
-0.0116585
0.00800671
0.00777357
0.00812037
0.00710483
-0.00997949
0.000765463
0.00357379
-0.011596
0.0026728
-0.0108514
0.0124902
-0.0273535
-0.00118481
-0.0263319
0.0198861
0.0211806
0.0204766
0.0200809
0.0204854
0.0199791
-0.0285107
-0.00143133
-0.0257147
0.0165573
0.0177619
0.0166293
0.0175388
-0.00118522
-0.0274337
-0.0272522
0.0125243
0.0205262
0.0189101
0.018025
0.0224913
0.022279
0.0173699
0.00500836
0.010461
0.00440395
-0.00243405
0.0041232
0.000903022
-0.00302604
0.00232819
0.000301733
-0.00239434
0.00169776
0.00019845
-0.00180528
0.00119071
0.00012349
-0.00126777
0.000857177
0.000103987
-0.000894041
0.000552997
3.29124e-05
-0.000628383
0.000349
-3.94618e-05
-0.000537523
0.000130495
-0.000292373
-0.000744053
-0.000340696
-0.00102523
-0.00123892
-0.00124158
-0.000835079
-0.000603362
-0.000937063
-3.83161e-05
0.000696284
-0.000519615
5.22499e-05
0.000574249
-0.000571315
2.45627e-05
0.000597607
-0.0006138
-2.13358e-05
-4.35201e-05
-0.0010981
-3.96974e-06
-0.00190232
3.15115e-06
-0.00213502
1.48186e-05
0.00260558
-0.00264201
-2.35394e-06
-0.00314235
7.87226e-05
0.0038523
-0.00349596
8.44241e-05
0.00425879
7.38584e-05
-0.00518592
0.000118015
0.00627241
9.04294e-05
-0.0075454
0.0001586
0.00897905
6.52038e-05
-0.0106326
0.000197533
0.0124123
6.40824e-05
-0.0144394
0.000255835
0.0165562
-0.000129323
-0.0186772
0.00043679
0.0210575
-0.000207666
-0.00066757
-0.0262983
-0.0190478
0.000774212
0.0216274
-0.000313775
-0.0203209
-0.0141076
0.000644898
0.0171934
-0.000191438
-0.0151781
-0.0104415
0.000409752
0.0127865
-0.000147047
-0.0109501
-0.00749714
0.000276647
0.00913122
-8.7238e-05
-0.00760154
-0.00521143
0.000178585
0.00629002
-6.2624e-05
-0.00511142
-0.00351271
8.8099e-05
0.00426807
-2.24601e-05
-0.00331677
-0.00232146
4.11836e-05
0.00297996
3.72433e-05
-0.0020606
-0.00146834
0.00014653
0.00239262
0.000271092
-0.000172821
0.000520189
-0.000873468
-0.00142126
6.21095e-05
-0.000428399
6.10812e-05
0.00125289
-0.000102273
1.91907e-05
-0.00104237
6.78798e-06
0.00190678
-0.0018604
-6.61668e-06
-0.00211863
8.50039e-05
-0.00236781
5.03879e-05
0.00284835
0.00010605
2.6757e-05
1.52523e-05
2.56609e-05
0.00222022
2.04892e-05
-1.56707e-05
-0.000460088
-1.12416e-06
0.000503285
1.27612e-06
2.08107e-06
2.59798e-06
-7.81342e-05
-9.07445e-05
-6.52311e-05
-0.000696176
1.91876e-05
-0.000150965
-6.45687e-05
-6.17879e-05
-6.85031e-05
0.00274327
0.00226524
-6.44915e-05
0.000213951
6.28018e-05
4.02735e-05
0.00144577
0.000170634
-0.0021169
0.00229206
0.000152399
-0.00298572
0.00350706
0.000237895
1.76156e-05
-0.00012743
-0.000143392
-0.00018192
-0.00020006
-0.000237722
-0.000211003
-0.000187602
-0.000130805
-0.000141012
-0.000129924
-6.98735e-05
-7.9587e-05
-0.00207788
0.00223892
0.0035823
-0.00430266
0.00539674
-0.00636795
-0.000110545
-0.0041242
1.34085e-05
0.00355434
-0.000102024
-0.00276482
-4.91717e-05
0.00251092
-4.01153e-05
5.56651e-05
-0.00207834
-0.000100173
0.0025354
-0.00276705
7.52198e-06
-0.00558131
-3.08646e-05
0.0067047
-0.00590306
1.18801e-05
-0.00723484
1.04689e-05
0.00868563
-0.00857017
3.27907e-06
-0.0101635
8.00892e-06
0.0119862
-0.0123274
-3.19167e-05
-0.0137763
7.86909e-05
0.0158843
-0.0182728
-3.32189e-05
0.02054
-0.0228288
-0.000284733
-0.000649705
-0.000113539
-2.47274e-05
2.23764e-05
3.03248e-05
2.73999e-05
2.44459e-05
2.18974e-05
-1.07111e-05
9.24517e-06
-0.000491265
0.000553681
-0.000545258
-0.000499212
4.83951e-06
4.70032e-06
-1.43872e-05
2.88416e-05
0.00047252
3.66898e-06
-5.25338e-06
-4.30261e-05
5.40894e-05
-4.97948e-05
-0.00068033
1.80104e-05
-0.000181348
0.00127925
0.000179999
-4.90298e-05
-3.39587e-05
1.99161e-05
-2.21403e-06
0.000364778
0.000370956
-1.09934e-05
0.000311457
0.000493327
-8.50841e-06
-1.05598e-05
-1.01845e-05
-4.12433e-05
1.68587e-05
-0.000557074
0.00169436
8.0798e-05
-0.00256151
-2.36683e-05
0.00301414
-0.00265695
-7.29161e-06
-0.00328804
3.2791e-06
-0.00392813
3.69493e-07
-0.0048097
1.73057e-05
0.00585039
-0.00599504
-1.03317e-05
-0.0069567
9.67277e-05
0.00834493
-0.00996601
9.73587e-05
0.0117386
-5.52661e-07
1.20843e-05
1.4707e-05
1.52091e-05
1.34054e-05
1.68998e-05
2.51392e-06
5.13273e-07
-1.295e-05
-1.36962e-05
-3.28409e-05
-5.21292e-05
-1.14366e-05
-1.24883e-05
4.06803e-06
4.06986e-06
5.9343e-06
8.12456e-06
1.06107e-05
1.52581e-05
1.74154e-05
1.8977e-05
2.81762e-05
3.46786e-05
0.000148265
0.000200967
-0.000530672
0.000261618
-0.000874852
0.00387857
-0.0236683
-0.00641182
0.000164609
-0.00217676
0.0110468
-0.0110202
-0.0337188
-0.0130135
-4.65472e-05
0.00330916
0.000246371
-0.0261904
-0.0114587
-0.0077154
0.0154824
0.00172054
-0.00175585
-0.00295889
0.00832151
0.000265456
-0.00580935
-0.00716017
0.0071522
1.19623e-05
-0.00637734
-0.00751259
0.00665846
5.94739e-05
-0.00818588
-0.00852385
0.00163597
-0.000466863
8.10144e-05
8.69039e-05
0.0205247
-0.0185909
0.000279293
0.0169028
-0.00051996
0.000323586
-0.0213634
0.000448054
-0.0132155
0.0152319
0.000184772
-0.0165252
-0.0289513
0.0220167
-0.00169198
0.00279495
0.00951995
-0.000153277
0.0223517
0.0163871
0.0184029
-0.0222542
0.000730549
-0.0188072
-0.000185933
-0.0208066
0.000911727
-0.0199374
-0.000194104
-0.0200436
0.000956286
-0.0214069
0.0171194
0.016775
-0.00112794
-0.0331664
-0.0266451
0.0123606
-0.0087486
0.012019
0.00690262
0.00814055
-0.0107283
0.00298001
0.00229923
-0.0119325
0.00450121
0.00818262
-0.0101131
0.0169216
-0.00904868
0.00146357
-0.00899118
0.00142348
-0.00970574
-0.00759372
0.00133467
-0.000629467
-0.000105892
-5.70054e-05
1.2053e-05
4.36509e-05
4.0603e-05
3.15237e-05
2.56072e-05
2.20634e-05
-1.09286e-05
9.76095e-06
-0.000314026
0.000380764
3.43365e-06
7.48817e-05
5.34369e-05
4.33194e-05
-0.000517871
-3.05254e-05
0.000590164
-0.000474117
-0.000252369
0.000592543
-0.00060287
-0.000838212
-0.000939565
0.000691603
0.000695681
-3.94754e-05
-5.67883e-05
-0.000193653
2.4241e-05
0.000716168
-0.000120704
-0.000160591
-0.000113953
0.000548775
0.00055003
-0.000162279
-0.000118585
0.000684452
-0.000342686
-0.00075519
-0.000344903
0.000705015
-1.7141e-05
-2.32801e-05
-7.15798e-05
1.1111e-05
6.33183e-05
0.00125434
-0.000104398
5.30602e-05
-4.72063e-06
-9.50938e-06
-1.52479e-05
-2.21635e-05
-3.52956e-05
-6.47158e-05
-0.000123156
1.66203e-05
-5.69655e-05
0.000101043
-0.000763076
-0.000225628
0.000762847
-0.00139914
-0.000516714
-0.000535128
-0.0158449
0.0152253
-0.000449081
-0.000347782
0.000962416
-0.000638378
-0.000355576
0.00274736
0.0050965
0.00270035
0.0155915
-0.00734976
0.00166299
0.0109914
0.0125737
-0.00381471
0.00119009
-0.00015333
0.000793919
-0.000188815
6.33604e-05
-0.00127471
-0.000102464
5.77542e-05
2.22272e-05
2.72464e-06
-5.06399e-06
8.4912e-06
-5.47117e-06
1.18876e-05
1.662e-05
1.41833e-05
9.45312e-05
0.00018956
0.000278657
0.000371113
0.000472562
0.00065527
0.000414699
0.000125432
0.000233772
0.000136081
6.19868e-05
2.74089e-05
2.16716e-05
1.23777e-05
2.72512e-05
2.68399e-05
-0.00311749
0.00281891
-0.00344859
0.00420777
-0.00511949
8.76069e-05
-0.00467283
0.0038211
7.6415e-05
1.80508e-05
1.36297e-05
9.76943e-07
0.00257325
1.89826e-05
-1.66835e-05
0.000561911
-7.88376e-06
1.67426e-05
5.57437e-05
-9.95403e-05
0.000640647
0.000502556
-0.000211487
8.52907e-05
-1.33387e-06
-5.41612e-07
0.000317985
-1.06466e-05
-4.11774e-07
0.000221147
-0.000680423
0.000193982
3.03755e-06
7.80648e-05
5.67067e-05
6.16104e-06
-5.61822e-05
2.5673e-05
5.34905e-05
-0.000211894
-0.000194614
0.00064307
-0.000253626
-0.000472835
-0.000100711
0.000594881
-2.97084e-05
5.59245e-05
3.70307e-05
-1.82147e-05
2.62048e-06
1.78881e-05
3.71742e-05
6.05147e-05
1.17238e-05
4.83438e-05
5.9444e-05
8.22443e-05
1.704e-05
-6.68606e-07
2.10445e-05
-1.60549e-06
0.00569689
-0.00691275
0.00620533
-0.00746997
0.00891543
-0.0105856
0.000167162
-0.00995594
0.00831219
0.000116297
1.07719e-05
9.74078e-05
0.000114086
0.000140566
0.000136642
2.90026e-05
-2.17936e-06
2.64745e-05
2.63087e-05
4.08659e-05
3.18462e-05
4.71005e-05
0.000112706
0.000362371
0.000234966
0.00123533
0.000130444
5.90955e-05
2.55959e-05
6.22483e-06
-8.80113e-06
-3.39376e-06
-3.98347e-06
8.09035e-06
4.72656e-06
3.55726e-06
1.46996e-05
1.69667e-05
1.34402e-05
-4.45698e-06
-1.18525e-05
-1.41717e-06
-3.13835e-06
-4.85698e-06
3.58008e-06
7.03895e-06
1.21361e-05
1.9411e-05
2.50701e-05
3.79495e-05
3.07955e-05
3.73002e-05
7.12137e-05
6.0775e-05
4.14978e-05
0.000102468
0.000253229
8.90525e-05
9.88308e-05
0.00351748
-0.000626396
0.000377292
7.97032e-05
0.000280014
0.00752002
-0.000304968
-0.00109373
0.00599143
0.0020273
-0.0261256
-0.00948924
-0.0169331
0.0165331
-0.0117083
-0.0125613
0.0149175
-0.018083
-0.000982047
-0.00135358
-0.0168627
0.015054
-0.000148862
-0.000759445
-4.26286e-05
0.000291064
0.000397987
0.0063468
0.00217931
-0.011609
-0.0106279
0.0181464
0.00166276
-0.00428744
-0.00130908
0.00716337
0.000190332
-0.00832493
-0.00541179
0.00544367
-1.86752e-05
-0.00866468
-0.00595453
0.00477131
-4.71884e-05
0.00759144
0.00735991
0.000429017
0.0101399
-0.00990593
7.47772e-05
-0.00803107
-5.85386e-05
-0.000148515
-2.24692e-05
6.75617e-06
1.67822e-05
1.46412e-05
1.03367e-05
6.6274e-06
3.47747e-06
-2.93582e-06
-1.0638e-05
0.000159345
-0.00295264
0.00350108
0.000240637
-0.00436403
0.00524259
0.00797431
-0.00931092
0.0114385
-0.0133056
-0.000158413
-0.00888057
0.000148866
0.00762907
-0.000138809
-0.00610986
6.51969e-05
0.00524311
-0.000415957
-0.000287595
-0.00470731
-0.000173282
0.00542364
-0.00603108
3.87799e-05
-0.0117444
-1.91625e-05
0.0138434
-0.0120917
2.43781e-05
-0.0142522
2.96401e-05
-0.016324
-2.81658e-05
-0.0185198
-5.78648e-05
0.0208115
-0.0216118
-1.20008e-05
0.02336
-5.66284e-05
-0.0229815
0.0229041
-7.04295e-05
-0.0210555
0.0212874
-0.0231995
-1.34419e-05
2.2685e-05
0.000119146
8.78884e-05
4.06021e-05
1.49737e-05
2.90127e-06
-4.61098e-06
-7.16647e-05
-8.96914e-05
-0.000182432
-0.000228143
-0.000207184
-0.000244667
-0.00639537
0.00751826
0.000472314
-0.00916878
0.0103036
0.0158406
-0.0185509
0.0210753
-0.0248166
0.000436606
-0.0189156
0.00182057
0.0146812
-9.89821e-05
-0.0128392
0.000475117
0.0108131
-0.000737808
-0.000332195
-0.00922293
-6.67226e-05
0.0109158
-0.0118183
0.000125137
-0.021465
9.28939e-05
0.0245517
-0.0210142
-6.59999e-05
0.0231773
0.000167652
-0.026368
0.0154531
-1.5801e-05
-0.015866
0.0138455
-0.0173058
0.000560021
-0.00294625
-0.00146876
-0.00246703
-0.00414421
0.0181973
-0.028421
0.00606912
-0.00631928
-0.00300826
-0.00172709
-0.00114564
-0.000813447
-0.000576479
-0.000335868
0.000194298
0.00316523
0.00150882
-0.000781423
0.000529653
0.000239082
0.00184078
-0.00161442
0.00163242
-9.89016e-05
-0.00107571
4.71251e-05
0.00206502
-0.00197143
-8.20372e-06
-0.00221217
1.57175e-06
-0.00261011
-7.30724e-07
-0.00320539
1.79953e-05
0.00391319
-0.0040023
-6.42968e-06
-0.00471067
8.2308e-05
0.0057363
2.36166e-05
1.10732e-05
0.00496527
1.77737e-05
0.00332209
-3.29675e-06
-8.75311e-06
-2.51826e-05
-8.89936e-05
9.69999e-06
0.0010749
7.07602e-05
7.42001e-05
0.000377424
0.000664899
-0.00113067
-6.15285e-05
-0.00187993
1.33462e-05
-0.00375552
-2.99424e-05
0.00449196
-0.00395822
3.47078e-06
-0.00491094
5.89207e-06
-0.00587766
2.92397e-06
-0.00709894
1.52767e-05
0.00852418
-0.00874648
-1.74381e-05
0.0104515
-5.35346e-06
5.44629e-06
0.00731273
-1.90733e-07
2.15533e-05
8.91958e-06
-7.73327e-06
0.00324478
-2.62175e-05
0.00218682
0.000134672
-2.93321e-05
0.00184714
-3.01477e-07
9.69822e-05
-0.000168707
0.00232246
-0.000103752
-0.000176269
-0.00319317
-0.000141664
-0.00413078
1.80637e-05
-0.00820957
-3.02346e-05
0.00978814
-0.00859702
1.99597e-05
-0.0103467
1.83451e-05
-0.0120625
-4.42892e-06
-0.0140178
-1.37167e-05
0.016192
-0.016719
-5.05584e-05
0.0189514
-3.75481e-05
-5.82833e-06
1.29364e-05
1.82711e-05
3.31974e-05
2.78482e-05
2.39265e-05
1.93769e-05
1.4609e-05
1.50423e-05
1.83456e-05
1.16439e-05
0.000131919
0.000207857
0.00029056
1.03089e-05
3.58806e-05
2.61136e-05
2.17063e-05
1.65125e-05
-2.02052e-06
9.69039e-06
-0.000142019
-0.00251258
5.03132e-05
-0.00245848
0.00329649
0.000122758
-0.00381076
-0.00390185
0.00335846
0.00314087
0.000119271
-0.00363876
-0.00416101
0.0035607
-0.0026601
4.59905e-05
-0.00237713
0.00222057
0.00233565
0.00230263
0.00224833
5.11698e-05
-0.00261488
-0.00243078
-0.000142019
0.0031955
0.00012455
-0.00408562
-0.00372901
-0.000220713
0.00467638
0.000244384
-0.00614237
-0.00557628
-0.00572343
-0.00586314
0.000247307
0.00483363
0.00493317
-0.000219479
0.00458842
0.000240613
-0.00543826
-0.0062582
0.00524496
-0.00022678
-0.00342896
-0.00513424
7.88264e-05
0.00288498
-0.000149579
-0.002269
-0.00333614
3.10511e-05
0.00209158
0.00247741
-0.00155038
0.000138429
-0.00150487
-0.000166563
-0.00152859
0.00013749
-0.00150214
-0.000166352
-0.00153151
0.000142538
-0.00152852
0.00244646
0.0021136
-0.000174666
-5.13392e-05
0.000175886
-0.00098547
-0.00108666
-0.00104761
-0.00116471
-0.00110833
-0.00111752
-0.00112641
-0.00100486
-0.00153733
-0.00115418
-0.00105261
-0.00108434
-0.000730159
-0.000301152
-0.000378615
0.000683245
-0.000767784
0.00189643
0.0019181
0.0019041
0.00190862
0.0019793
0.00184029
-0.000739946
0.000595621
-0.000299301
-0.000730278
-0.000380602
0.000716316
-2.23091e-05
6.16735e-05
6.26379e-05
0.00013473
0.000211575
-1.03786e-05
-0.000311998
0.007117
0.000383085
-0.00827309
-0.00847946
-0.00784096
-0.00905428
0.000368357
0.0066185
0.00758666
-0.000319055
-0.00508574
-0.00765685
0.000171574
0.00421922
0.00632114
-4.86734e-05
0.000610127
-0.000916112
9.77924e-05
0.000903209
-0.00132816
0.000140589
0.00132291
-0.00183606
0.000250517
0.00206923
-0.0022581
0.000771136
0.00402605
0.000792774
0.00196807
-0.000488408
0.00106006
-0.000566391
0.000760319
-0.000455074
0.00057056
-0.000339415
0.00039231
4.93176e-05
-0.000634675
0.00428131
-1.90816e-05
0.000387354
-0.000534855
-2.92753e-05
9.84304e-05
-0.000284545
-0.000424459
0.000160159
3.98895e-05
-0.00207285
0.000139186
-0.00144068
-0.00017553
-4.84347e-05
0.000194919
-0.000787024
-0.001242
-0.00123082
-0.00102737
-0.000335263
-0.000747064
-0.000286898
-0.000541025
-0.00170021
0.000272481
0.00239543
0.00183143
0.00199214
-0.00073865
-0.00160549
-0.000981664
0.000180928
0.000616546
0.00058324
0.000825328
0.00107317
0.00137075
0.000268471
-0.00730426
-0.0110709
0.00918103
0.00611364
-0.000487326
-0.000332828
-0.000187755
-0.000161435
0.000803696
0.000984424
0.0012006
-0.000649485
-0.000423062
0.0106045
0.000509459
-0.0108762
-0.0126295
-0.0100717
-0.0155548
0.000367102
0.00863267
0.0129379
-5.61503e-05
0.000130361
6.61452e-05
4.29947e-05
7.84661e-05
0.000138998
-0.0138975
0.0124385
-0.0144625
6.48794e-06
0.000284117
0.000194628
0.000122475
3.78116e-05
-3.50823e-06
0.011738
4.13536e-05
5.5155e-06
0.0159425
0.000240196
-1.95923e-06
0.000375197
0.000451546
-7.49594e-05
1.18129e-05
3.83867e-05
1.68219e-05
2.63067e-05
-2.29703e-05
2.81415e-05
2.62627e-05
4.81587e-05
1.00833e-05
3.90912e-05
3.4635e-05
1.50863e-05
1.83378e-06
2.98976e-06
2.1744e-06
1.54301e-05
0.000344205
0.000578366
0.000407067
0.000327006
0.000330553
0.000366906
0.00018664
0.00018581
3.67776e-05
0.000122984
0.00173965
0.000252791
0.000475375
0.000469444
0.000581626
0.000587024
0.000675892
0.000571761
0.000580341
0.000809262
0.000739014
-0.0127243
0.0134427
0.000932791
-0.0165437
0.000581141
0.000378775
-0.00281037
-0.00377666
-0.0220388
-0.0232018
-0.0384727
0.00971955
0.00327264
0.0183237
-0.0066219
0.0104533
-0.00115983
-0.0117982
0.0106856
-0.000248779
0.0074811
-0.000265984
0.0100496
-0.0110517
-0.000903368
-0.000280613
-0.000340029
0.000139971
-0.0011973
0.00783082
-0.00034738
0.000421776
0.000252747
0.000132766
0.000146373
7.45953e-05
6.69773e-05
-0.000131168
-0.000140696
-3.08242e-05
0.000149723
0.000856251
0.00013137
-4.23344e-05
-9.16902e-05
0.00716656
-0.00855249
7.80669e-05
-0.0162204
1.89761e-05
0.0188999
-0.0163394
1.07079e-05
-0.0187872
3.0025e-05
0.0185843
-5.84272e-06
8.96844e-06
1.93619e-05
3.94432e-05
8.94476e-05
0.000654478
0.000134359
4.77456e-05
2.31686e-05
9.70947e-06
9.40638e-06
8.44743e-06
5.99776e-06
3.66928e-06
0.0032414
6.22786e-06
0.00397365
3.05301e-06
0.00262689
0.00216131
7.37962e-06
0.00189768
0.00107121
2.81604e-05
4.81137e-06
-1.50626e-06
1.00389e-05
5.14556e-06
0.004858
9.95996e-05
-0.000251818
0.00370623
-0.000159618
0.000129332
-0.000332959
0.00500565
-0.000191298
-0.000352453
-0.00671082
-0.000164332
0.00779913
-0.000421097
-0.000211553
0.000244543
0.000178171
1.92202e-05
0.00717079
1.53045e-05
0.00716659
3.27562e-05
4.81195e-05
0.0102779
2.4667e-05
0.0122327
3.95083e-05
0.000115833
0.0142068
-0.000595244
0.00990495
-0.000382782
-0.000427383
-0.0125423
0.000180691
0.0130382
-0.00114131
0.000253364
-0.000306924
-0.0022355
-0.00576955
-1.15928e-05
-0.000892795
-0.000380621
0.00024046
0.000238532
0.0188051
2.65745e-05
-2.92054e-05
-6.94602e-05
-6.85106e-05
-0.000343299
-1.56068e-05
4.76878e-05
3.92769e-05
0.0165548
0.0141161
-1.18917e-05
-1.43791e-06
-4.22612e-05
-0.000102932
-0.000134375
-0.000587892
-0.000201067
-0.000189077
-8.98266e-05
-3.12463e-05
0.0143855
-3.71712e-05
3.25362e-06
1.48641e-05
0.00027998
0.000187688
9.41861e-05
-8.65772e-05
-2.24758e-05
0.000376629
0.000482656
0.00064875
-7.91845e-05
0.000276355
0.000263396
-0.000492858
0.00236129
0.00528665
-0.00363062
0.0241235
0.00174648
0.000845145
4.40411e-06
0.000894623
0.00124696
0.00116601
0.000972451
0.000794676
0.000608411
0.000623591
0.000187055
-2.86397e-05
-2.96722e-05
-0.00153716
-0.000768242
-0.00160597
-0.000791488
0.000188265
0.000572441
-0.000191036
-0.000149552
0.00293023
0.00350529
0.000132462
9.28229e-06
1.40334e-05
1.76718e-05
1.48723e-05
1.79303e-05
1.29245e-05
-7.05122e-05
0.000690146
0.00189694
0.000114608
6.03728e-05
8.41779e-06
-3.11896e-06
1.48279e-05
1.51051e-05
1.64146e-05
1.78692e-05
-1.32062e-05
0.000206661
0.000286699
0.000295906
0.000382622
-6.17153e-05
-0.000549006
-0.0118245
0.000547305
-0.0115081
0.0128256
0.000803361
-0.0154106
-0.015937
0.0131844
0.0123438
0.000703878
-0.014519
-0.0170331
0.0141267
-0.000557577
0.0117972
0.0175275
4.06802e-05
7.36436e-05
-0.000841893
0.00171665
0.00207886
0.00239773
0.00544692
0.00658878
0.0132671
0.0311182
0.00361712
0.0162654
0.0241116
-0.00196844
-0.00114189
0.0012382
0.00136992
-0.00076762
-0.000588608
0.00924997
0.00991918
0.00969495
0.00940553
0.000539565
-0.0123477
-0.0112336
-0.000559026
0.0125496
0.000806581
-0.0165405
-0.0151916
-0.000750404
0.0157817
0.0168251
0.0149481
-0.000725242
-0.000155246
-0.000214242
-2.05159e-05
2.26919e-05
0.000100202
2.33357e-05
2.2796e-05
-3.41345e-05
-1.35844e-05
-0.000217927
0.0021864
-0.000246125
-0.000150344
-0.000341789
-0.000299329
-0.000186374
-0.000316824
-0.000143483
0.00589418
-0.000174099
0.000110029
2.54277e-05
8.33553e-06
0.000257346
0.000223925
-0.00259574
0.0132701
-0.00674121
-0.0240659
-0.0284395
0.00240531
-0.0134803
0.00570284
0.00184114
-0.00835337
-0.00924739
-0.000929883
-0.00137276
0.00897688
0.00830928
-0.00083148
-0.00815495
-0.000171324
0.00809425
-2.69285e-05
8.65383e-05
-2.53565e-06
8.20623e-05
0.000280338
0.000291834
0.000187013
4.66869e-05
3.48885e-05
-6.19086e-05
-5.63605e-05
2.52531e-06
-7.49533e-05
-2.96823e-05
-1.18851e-05
0.000370513
0.000459263
0.000461685
-0.000194502
0.000551256
0.000536716
-0.000374135
0.021758
-0.00127951
0.00133714
-0.0241445
0.000516975
0.000298003
0.00297241
0.000356987
0.00062054
0.00196968
-0.000156244
-2.99385e-05
-0.000147705
0.000571698
0.00522257
-0.00034681
-0.000227574
-0.000136252
0.000107666
-0.0142895
0.0164014
-0.000598439
1.33053e-05
-0.000755209
-0.0017377
-0.00194233
-0.000360306
-0.000176765
0.00629818
-0.00019607
-0.000210732
-0.000400368
-7.60164e-05
-0.000246799
0.00559523
-0.000372859
-0.000172308
0.000580813
0.000467667
-5.51349e-06
-6.79561e-05
-4.57681e-05