/*--------------------------------*- C++ -*----------------------------------*\
| =========                 |                                                 |
| \\      /  F ield         | OpenFOAM: The Open Source CFD Toolbox           |
|  \\    /   O peration     | Version:  2306                                  |
|   \\  /    A nd           | Website:  www.openfoam.com                      |
|    \\/     M anipulation  |                                                 |
\*---------------------------------------------------------------------------*/
FoamFile
{
    version     2.0;
    format      ascii;
    arch        "LSB;label=32;scalar=64";
    class       volVectorField;
    location    "3";
    object      flux;
}
// * * * * * * * * * * * * * * * * * * * * * * * * * * * * * * * * * * * * * //

dimensions      [0 1 -1 1 0 0 0];

internalField   nonuniform List<vector> 
5712
(
(-0.255562 0.454105 0.278988)
(-0.326578 0.261812 0.917302)
(-0.608261 0.737131 0.221102)
(-0.886996 0.482604 0.940987)
(-0.904853 0.803485 0.16633)
(-1.56207 0.594354 0.974701)
(-0.697427 1.26251 0.263455)
(-1.77555 1.56207 1.50675)
(-0.568304 1.65848 0.324085)
(-1.24798 2.02691 2.07262)
(-0.849208 1.07207 0.321193)
(-1.29099 0.930755 1.50716)
(-0.762708 0.681327 0.30933)
(-0.998607 0.539366 1.24934)
(-0.335137 0.341776 0.321433)
(-0.382783 0.231081 1.11534)
(-0.568338 0.76502 0.194394)
(-0.650891 0.785541 0.119305)
(-0.736281 0.657675 0.51974)
(-0.730639 0.774352 0.307114)
(-0.58172 1.03303 0.190933)
(-0.720602 0.925999 0.102808)
(-0.856983 1.189 0.570942)
(-0.770812 0.965621 0.283333)
(-0.206937 0.321604 0.211491)
(-0.154509 0.232771 0.151854)
(-0.257575 0.180356 0.67892)
(-0.172347 0.133877 0.474135)
(-0.479137 0.385812 0.159812)
(-0.381004 0.31486 0.113588)
(-0.819671 0.233286 0.66806)
(-0.591368 0.188038 0.482006)
(-0.636329 0.695503 0.374608)
(-0.66034 0.724753 0.158058)
(-0.704312 0.713062 0.322429)
(-0.667768 0.606558 0.14303)
(-0.243634 0.559325 0.147248)
(-0.192589 0.434062 0.347955)
(-1.50982 0.435779 1.30587)
(-2.02193 0.494191 0.354531)
(-0.975464 0.703079 0.466688)
(-1.19795 0.698776 0.158655)
(-2.0351 1.46962 1.68651)
(-2.6404 1.5186 0.458845)
(-1.05409 1.04484 0.439006)
(-1.20644 1.07503 0.152898)
(-1.117 0.592382 0.929633)
(-1.57883 0.499623 0.288853)
(-0.974003 0.647504 0.47645)
(-1.29216 0.462235 0.166614)
(-0.567781 0.301173 0.805556)
(-0.917613 0.308557 0.256554)
(-0.107879 0.244064 0.216698)
(-0.0362697 0.333646 0.107431)
(-0.113828 0.127483 0.329208)
(-0.0409396 0.151464 0.127434)
(-0.32604 0.335187 0.234246)
(-0.131243 0.44975 0.126865)
(-0.448666 0.198931 0.32157)
(-0.164594 0.229874 0.122444)
(-0.317656 0.373369 0.300158)
(-0.122125 0.613951 0.170488)
(-0.340623 0.257909 0.277013)
(-0.109013 0.417498 0.119375)
(-0.581903 0.0986592 0.414274)
(-0.184847 0.249125 0.148137)
(-0.751458 0.0820714 0.142785)
(-0.253112 0.186356 0.0496115)
(-0.928839 0.695204 0.467898)
(-0.459678 0.8579 0.321734)
(-0.850103 0.71382 0.290783)
(-0.50461 0.852124 0.21137)
(-0.875758 0.85153 0.531854)
(-0.566614 0.861875 0.437006)
(-0.769748 0.863499 0.290832)
(-0.581381 0.848443 0.251877)
(-0.664958 0.605279 0.27236)
(-0.394775 0.818808 0.181628)
(-0.663998 0.625247 0.380041)
(-0.336767 0.810156 0.250576)
(-0.87668 0.701486 0.19249)
(-0.56291 0.844996 0.140867)
(-0.878475 0.700341 0.0988066)
(-0.568675 0.842335 0.0807109)
(-0.812292 0.868435 0.188175)
(-0.616381 0.836105 0.162667)
(-0.822006 0.864328 0.0986237)
(-0.619779 0.827378 0.0948855)
(-0.718567 0.558183 0.18284)
(-0.457331 0.821526 0.118492)
(-0.744458 0.538295 0.0944963)
(-0.469061 0.824081 0.0599314)
(-0.677294 0.674885 0.241152)
(-0.291753 0.784826 0.130414)
(-0.311528 0.852737 0.178625)
(-0.3771 1.17918 0.217887)
(-0.680224 0.714034 0.326808)
(-0.318315 0.901029 0.23213)
(-0.270383 0.84434 0.256193)
(-0.380042 1.27396 0.3705)
(-0.717691 0.64037 0.160743)
(-0.291035 0.693364 0.0756863)
(-0.354227 0.856802 0.105864)
(-0.381232 1.13715 0.12541)
(-0.753561 0.633781 0.080399)
(-0.298411 0.650064 0.0331114)
(-0.385939 0.866372 0.0458956)
(-0.399131 1.13028 0.0465101)
(-0.139856 0.194046 0.279463)
(-0.152461 0.251172 0.502562)
(-0.0467246 0.492682 0.190658)
(-0.0900581 0.848578 0.562517)
(-0.410969 0.242893 0.329735)
(-0.433977 0.274075 0.493218)
(-0.15731 0.639594 0.235475)
(-0.275528 0.973738 0.591253)
(-0.526268 0.306022 0.377453)
(-0.586676 0.308414 0.448586)
(-0.249682 0.818167 0.305475)
(-0.422928 1.10096 0.580832)
(-0.487844 0.955834 0.464133)
(-0.0489864 1.03467 0.565566)
(-0.530578 0.800788 0.338876)
(-0.647318 0.765672 0.323336)
(-0.347439 1.08882 0.356296)
(-0.0356509 1.04484 0.563938)
(-0.300488 0.980656 0.508546)
(-0.473214 0.819147 0.488606)
(-0.758843 0.704672 0.495162)
(-0.514392 1.23633 0.720093)
(-0.383186 0.950308 0.457905)
(-0.461228 0.93282 0.342968)
(-0.398659 0.824487 0.289852)
(-0.340162 0.808659 0.323241)
(-0.531425 1.42545 0.513863)
(-0.135662 0.0763722 0.578919)
(-0.112841 0.0912379 0.513909)
(-0.0771194 0.161428 0.673003)
(-0.0767155 0.35789 0.642455)
(-0.383889 0.109132 0.53005)
(-0.327141 0.122274 0.488717)
(-0.228366 0.226094 0.666264)
(-0.217808 0.407164 0.630369)
(-0.481232 0.164736 0.459492)
(-0.413152 0.139103 0.445501)
(-0.298494 0.311212 0.627074)
(-0.268772 0.47528 0.609151)
(-0.235425 1.04174 0.409953)
(-0.298159 1.04225 0.319068)
(-0.483067 0.934525 0.369657)
(-0.498929 0.93153 0.317593)
(-0.54877 0.791527 0.39738)
(-0.500345 0.736393 0.348378)
(-0.617879 0.595544 0.421713)
(-0.541173 0.532066 0.398654)
(-0.409623 0.413405 0.581375)
(-0.34444 0.564947 0.588151)
(-0.357359 0.944902 0.383777)
(-0.381337 0.92324 0.328356)
(-0.469626 0.946511 0.356718)
(-0.378729 0.940929 0.334219)
(-0.425206 0.816041 0.36131)
(-0.317148 0.772037 0.373484)
(-0.365533 0.668295 0.40357)
(-0.2583 0.602682 0.443852)
(-0.420091 0.442533 0.527976)
(-0.278067 0.57551 0.600089)
(-0.404322 0.932855 0.313851)
(-0.198553 1.05412 0.24578)
(-0.345558 0.928647 0.216819)
(-0.379167 1.07761 0.27784)
(-0.49686 0.906897 0.432899)
(-0.653664 0.944729 0.531121)
(-0.546154 0.883428 0.301339)
(-0.798086 0.94815 0.479159)
(-0.273396 0.84176 0.180554)
(-0.308259 0.857916 0.239812)
(-0.356914 0.83538 0.267278)
(-0.125451 0.834021 0.219239)
(-0.307393 0.920637 0.0509214)
(-0.595548 1.0812 0.184862)
(-0.291263 0.91569 0.0272141)
(-0.636789 1.07935 0.0666026)
(-0.54042 0.856526 0.154315)
(-0.983907 0.958128 0.323336)
(-0.549677 0.848676 0.0575604)
(-1.04222 0.955007 0.11244)
(-0.230428 0.845002 0.0217002)
(-0.508592 0.856054 0.154592)
(-0.208696 0.844375 0.0129972)
(-0.540347 0.855218 0.0541195)
(-0.316591 0.703787 0.175852)
(-0.244165 0.669691 0.179018)
(-0.437162 0.452139 0.199682)
(-0.177217 0.500497 0.121926)
(-0.329003 0.698262 0.277109)
(-0.0770851 0.6511 0.219714)
(-0.382951 0.444592 0.325956)
(-0.0406377 0.499453 0.221548)
(-0.303112 0.714222 0.0384996)
(-0.361488 0.668445 0.0978085)
(-0.457535 0.46241 0.0985715)
(-0.213457 0.504018 0.0545992)
(-0.249886 0.717238 0.0556339)
(-0.424727 0.661963 0.0728667)
(-0.404074 0.476994 0.0795058)
(-0.278873 0.50503 0.0597791)
(-0.0911545 0.0636586 0.406044)
(-0.0812557 0.0445267 0.245173)
(-0.0741049 0.0316511 0.07644)
(-0.065207 0.0377606 0.460965)
(-0.0604803 0.027032 0.262694)
(-0.0549192 0.0254016 0.0856728)
(-0.271432 0.0879905 0.389157)
(-0.227456 0.0550896 0.242574)
(-0.200282 0.0427389 0.0812175)
(-0.172307 0.0752651 0.454751)
(-0.142003 0.0620125 0.263229)
(-0.125398 0.0545634 0.0855956)
(-0.337225 0.104632 0.358267)
(-0.296174 0.091084 0.22246)
(-0.275971 0.0930506 0.0727318)
(-0.208242 0.133196 0.445099)
(-0.174179 0.111656 0.26521)
(-0.166455 0.101642 0.088339)
(-0.266026 1.01435 0.204557)
(-0.240301 0.934882 0.10786)
(-0.236222 0.876223 0.0282198)
(-0.43912 0.927411 0.254541)
(-0.342687 0.876109 0.166479)
(-0.292424 0.831284 0.0580076)
(-0.408045 0.662125 0.298582)
(-0.310024 0.62661 0.205841)
(-0.255875 0.607464 0.0708904)
(-0.429483 0.44429 0.342082)
(-0.346968 0.39523 0.219869)
(-0.305341 0.374993 0.0726953)
(-0.259105 0.202365 0.441891)
(-0.175673 0.154002 0.273373)
(-0.139511 0.132571 0.0956511)
(-0.632274 0.913112 0.245222)
(-0.558154 0.863921 0.13486)
(-0.490707 0.817034 0.0417756)
(-0.401378 0.929683 0.235679)
(-0.341746 0.865771 0.168579)
(-0.289949 0.812204 0.0632503)
(-0.350813 0.683296 0.275421)
(-0.280151 0.601954 0.203289)
(-0.229608 0.554921 0.0741602)
(-0.289975 0.442386 0.345145)
(-0.215549 0.364432 0.241262)
(-0.170713 0.332934 0.0857506)
(-0.290782 0.215743 0.446324)
(-0.165692 0.153749 0.275799)
(-0.0968249 0.125494 0.0973041)
(-0.407472 1.05201 0.0116519)
(-0.554074 1.03507 0.0794327)
(-0.320936 1.14185 0.111273)
(-0.416733 1.02949 0.162048)
(-0.434232 1.17555 0.0841722)
(-0.640178 1.0311 0.0975743)
(-0.386639 1.41447 0.212109)
(-0.565369 1.08179 0.202407)
(-0.00299326 0.817463 0.0238612)
(-0.0304219 0.834646 0.0416673)
(0.0188131 0.805524 0.0254871)
(-0.00476386 0.749431 0.0434257)
(-0.119317 0.917753 0.0192691)
(-0.135948 0.86864 0.0565134)
(-0.0497515 0.898219 0.0345928)
(-0.0275196 0.769124 0.0742623)
(-0.0297218 0.887587 0.127929)
(-0.0989292 0.885228 0.0628801)
(-0.372987 0.821401 0.162667)
(-0.546228 0.883971 0.0941264)
(-0.265447 1.10179 0.087148)
(-0.143526 0.982859 0.151395)
(-0.387735 1.08155 0.134602)
(-0.384519 1.09656 0.0389302)
(-0.592554 1.17162 0.236606)
(-0.652086 1.21007 0.0592239)
(0.0221304 0.899034 -0.072157)
(0.158755 0.932196 0.0312514)
(-0.299433 0.807706 0.073016)
(-0.282283 0.783607 0.0551765)
(-0.279069 0.981957 0.0508547)
(-0.215376 1.0057 0.0483206)
(-0.0418636 0.643258 0.397992)
(-0.022692 0.336049 0.189614)
(-0.026407 0.597819 0.109111)
(-0.0103398 0.373534 0.0700486)
(-0.0827804 0.652499 0.404442)
(-0.012142 0.338873 0.197489)
(0.0116332 0.595066 0.136426)
(0.0320378 0.370475 0.0880139)
(-0.368655 0.645446 0.400049)
(-0.100413 0.340931 0.213099)
(-0.247461 0.595059 0.19856)
(-0.0675634 0.386926 0.143534)
(-0.353606 0.577408 0.141041)
(-0.10937 0.405417 0.103936)
(-0.427282 0.583667 0.0718892)
(-0.139608 0.401932 0.0697021)
(-0.350107 0.832511 0.500933)
(-0.474457 0.716838 0.446505)
(-0.324105 0.823503 0.236404)
(-0.463665 0.713353 0.246166)
(-0.553977 0.91719 0.530171)
(-0.589311 0.832649 0.498499)
(-0.529073 0.922139 0.261636)
(-0.559242 0.821769 0.264674)
(-0.229005 0.807316 0.214513)
(-0.382609 0.596827 0.221832)
(-0.263624 0.846921 0.437598)
(-0.379431 0.591169 0.368205)
(-0.343355 0.83898 0.141991)
(-0.447405 0.708455 0.14868)
(-0.378319 0.848232 0.0809724)
(-0.452745 0.699913 0.0911335)
(-0.550947 0.943017 0.161966)
(-0.550004 0.813353 0.161241)
(-0.576906 0.942322 0.0904328)
(-0.553046 0.802243 0.0964124)
(-0.230839 0.796612 0.126712)
(-0.371169 0.59736 0.136494)
(-0.25071 0.792896 0.0728082)
(-0.378787 0.593315 0.08783)
(-0.00624228 0.527353 0.195284)
(-0.0665229 0.341606 0.142377)
(-0.310081 0.470279 0.196888)
(-0.207638 0.286237 0.146785)
(0.0164876 0.493324 0.3034)
(-0.0498461 0.304686 0.18943)
(-0.287402 0.45315 0.292275)
(-0.18452 0.266026 0.203389)
(-0.0234902 0.538974 0.118824)
(-0.0755958 0.36404 0.102716)
(-0.317589 0.477031 0.12481)
(-0.225509 0.295423 0.0950882)
(-0.0414727 0.538907 0.0681622)
(-0.0862406 0.378148 0.0650203)
(-0.320319 0.475382 0.0794386)
(-0.234377 0.29743 0.0555977)
(0.025277 0.0973466 0.479443)
(0.0295458 0.0484526 0.351421)
(-0.00822591 0.170306 0.252844)
(-0.00282654 0.0788894 0.268545)
(0.110501 0.104519 0.477728)
(0.112851 0.061366 0.35769)
(0.00409203 0.182047 0.254706)
(0.00929069 0.0991146 0.267309)
(0.0152847 0.130553 0.49411)
(0.0716581 0.0965733 0.366785)
(-0.077359 0.203635 0.258422)
(-0.0531639 0.138288 0.25892)
(0.406954 0.52303 0.549937)
(0.37599 0.808403 0.58314)
(0.218354 0.374325 0.510366)
(0.162435 0.35716 0.351128)
(0.00812762 0.239512 0.211843)
(0.413781 0.795488 0.553114)
(0.430929 0.556547 0.524201)
(0.17051 0.324314 0.499695)
(0.249503 0.324954 0.425735)
(0.022115 0.193329 0.294597)
(-0.402446 0.822916 0.518382)
(-0.321802 0.651315 0.477626)
(-0.294301 0.518775 0.390687)
(-0.283721 0.400438 0.310775)
(-0.185288 0.230469 0.207502)
(0.0315289 0.0236997 0.314427)
(0.0305322 0.0178767 0.291845)
(-0.000856449 0.0341733 0.3032)
(-0.00622206 0.0197798 0.359777)
(0.0998367 0.0371221 0.319481)
(0.102761 0.0251433 0.282907)
(-0.00335841 0.059229 0.304026)
(-0.0155321 0.044118 0.35266)
(0.0995513 0.0696579 0.325576)
(0.127936 0.0567231 0.273441)
(-0.0396944 0.0983613 0.303656)
(-0.057182 0.0775197 0.343669)
(0.204856 0.814863 0.418017)
(0.0963656 0.802854 0.294723)
(0.328719 0.557143 0.40132)
(0.210481 0.547336 0.282489)
(0.143867 0.362718 0.327829)
(0.111843 0.378886 0.270786)
(0.160162 0.30393 0.31846)
(0.143044 0.291568 0.281612)
(-0.0335009 0.162211 0.279882)
(-0.0772279 0.131807 0.337195)
(-0.149202 0.760684 0.346809)
(-0.0946404 0.704477 0.30114)
(-0.0432392 0.594992 0.315589)
(0.0411028 0.535986 0.278683)
(-0.0475629 0.465837 0.279383)
(0.0267209 0.428271 0.258816)
(-0.0833405 0.351151 0.258771)
(-0.027856 0.33118 0.265192)
(-0.107984 0.202854 0.222659)
(-0.125365 0.213352 0.321812)
(-0.213707 0.605978 0.281901)
(-0.197342 0.504995 0.191951)
(-0.403218 0.60752 0.18744)
(-0.246119 0.489976 0.111849)
(-0.323469 0.721467 0.359318)
(-0.328726 0.610195 0.277266)
(-0.490905 0.717032 0.250455)
(-0.39992 0.597569 0.200539)
(-0.327911 0.513074 0.158359)
(-0.199085 0.431282 0.0976174)
(-0.168296 0.499024 0.230172)
(-0.169212 0.435224 0.174295)
(-0.474174 0.606273 0.189804)
(-0.213351 0.480572 0.0901037)
(-0.521364 0.60211 0.0701626)
(-0.238911 0.479352 0.0405753)
(-0.547209 0.71281 0.197358)
(-0.40825 0.606574 0.142352)
(-0.583936 0.705301 0.0696509)
(-0.436932 0.604019 0.0575902)
(-0.395189 0.521509 0.167989)
(-0.164688 0.423175 0.077269)
(-0.442024 0.520435 0.0665892)
(-0.189742 0.428895 0.0357227)
(-0.27387 0.397661 0.139421)
(-0.226575 0.351078 0.134)
(-0.229291 0.245484 0.130959)
(-0.34075 0.276905 0.197203)
(-0.18276 0.38392 0.194563)
(-0.209183 0.34503 0.1917)
(-0.198193 0.23288 0.168643)
(-0.316138 0.263191 0.255176)
(-0.313429 0.414689 0.137536)
(-0.226148 0.357809 0.0940512)
(-0.257796 0.252009 0.0925554)
(-0.390138 0.295006 0.131742)
(-0.375691 0.425241 0.043215)
(-0.245765 0.358247 0.0222055)
(-0.314638 0.263052 0.0128463)
(-0.40334 0.29967 0.0269055)
(0.0332342 0.085422 0.205154)
(0.0369612 0.0759885 0.0853958)
(0.0422518 0.0631652 0.0250409)
(-0.000755887 0.383876 0.241551)
(0.0127148 0.202764 0.0619052)
(0.0146738 0.165339 0.0163759)
(0.12238 0.0817819 0.204769)
(0.134423 0.0820685 0.0911919)
(0.136018 0.0732409 0.0278764)
(0.00540492 0.411258 0.239283)
(0.0366794 0.23755 0.0639591)
(0.0376653 0.201306 0.0177049)
(0.15336 0.111111 0.186269)
(0.177556 0.126611 0.0880538)
(0.184748 0.130558 0.0226697)
(-0.0338758 0.446746 0.232327)
(0.0349198 0.294193 0.0643833)
(0.0492323 0.262719 0.0149887)
(0.0543314 0.77495 0.180269)
(0.0475117 0.740905 0.0894605)
(0.0356273 0.712789 0.0188848)
(0.1609 0.542439 0.171953)
(0.167793 0.539429 0.0820287)
(0.158232 0.535408 0.0187293)
(0.131487 0.405052 0.17826)
(0.153538 0.410837 0.0852247)
(0.152887 0.415407 0.0228178)
(0.162586 0.358819 0.185909)
(0.181583 0.354643 0.0870124)
(0.179754 0.349182 0.0180998)
(-0.0701204 0.50125 0.229209)
(0.0140899 0.360523 0.062434)
(0.0214845 0.327417 0.00931228)
(-0.136562 0.658065 0.231187)
(-0.0762043 0.622712 0.114431)
(-0.0384183 0.596389 0.0295773)
(0.0447516 0.503302 0.218208)
(0.0961307 0.482418 0.10816)
(0.123578 0.469125 0.0291829)
(0.0404325 0.430742 0.208016)
(0.107977 0.41156 0.102767)
(0.137579 0.398527 0.0297581)
(0.0138264 0.428572 0.207585)
(0.0886739 0.388501 0.087996)
(0.110561 0.363172 0.0213113)
(-0.114872 0.607042 0.247123)
(0.0213915 0.405938 0.0574926)
(0.0381517 0.367185 0.0138828)
(0.000681919 0.175068 0.0760823)
(0.00162312 0.108709 0.0276892)
(0.00240434 0.0829485 0.00545523)
(0.00371867 0.0806351 -0.00900307)
(0.0109718 0.201261 0.0315341)
(0.00656365 0.120602 0.0121534)
(0.00565179 0.0884895 0.00328009)
(0.00573589 0.0825893 -0.001836)
(-0.000946895 0.175517 0.0807291)
(0.00311123 0.108178 0.0304359)
(0.00800081 0.0830359 0.0078161)
(0.0130627 0.0813236 -0.00557525)
(0.0175557 0.205863 0.0399486)
(0.0120849 0.123242 0.0169157)
(0.0137845 0.0901029 0.0079892)
(0.0156019 0.083179 0.00374116)
(-0.0116832 0.173829 0.0869948)
(0.000875646 0.10595 0.0339999)
(0.0112501 0.0821639 0.0117645)
(0.0230015 0.0800088 -0.000412022)
(0.00526012 0.209778 0.068519)
(0.00975059 0.12446 0.032752)
(0.0134929 0.0911811 0.0134721)
(0.0160071 0.0818647 0.0035053)
(0.000803545 0.2278 0.052131)
(0.00594288 0.133312 0.0303739)
(0.0068491 0.0946841 0.0123536)
(0.00697513 0.086924 0.000586836)
(-0.00971471 0.235287 0.0494461)
(-0.00034845 0.13926 0.0335827)
(0.00536602 0.0986045 0.0208341)
(0.00951979 0.0910487 0.0130053)
(-0.0431571 0.186551 0.0723557)
(-0.00904401 0.11372 0.032686)
(0.00502091 0.0853709 0.0107269)
(0.0148772 0.0805714 -0.00730654)
(-0.0672927 0.141998 0.0625621)
(-0.0157966 0.0940359 0.0277542)
(0.00105462 0.0758845 0.0124346)
(0.0249444 0.0774307 -0.00766328)
(-0.0310817 0.15866 0.0859189)
(-0.00415277 0.0999719 0.0336978)
(0.00832878 0.0780099 0.0109048)
(0.0210854 0.0737839 -0.00573541)
(-0.0557868 0.127177 0.0781723)
(-0.0121395 0.0870008 0.0307007)
(0.00034726 0.0721675 0.0122536)
(0.0219962 0.0738449 -0.0129358)
(-0.0454539 0.205009 0.0580822)
(-0.0106433 0.123996 0.0306324)
(0.00585282 0.0907433 0.0130957)
(0.0182453 0.0851595 -0.00192197)
(-0.0751033 0.150676 0.0481008)
(-0.0186847 0.0991587 0.0247269)
(0.000982149 0.0783294 0.0135971)
(0.0292289 0.0803407 0.000492999)
(-0.0503502 0.215262 0.043107)
(-0.0139661 0.130841 0.0272889)
(0.00512205 0.0943998 0.0170029)
(0.0214586 0.088148 0.0109245)
(-0.0806864 0.154185 0.0331791)
(-0.0213183 0.102729 0.0211077)
(1.74524e-05 0.0801965 0.0145827)
(0.0305684 0.0816951 0.00901342)
(-0.000192869 0.123251 0.0979203)
(0.000886744 0.0887982 0.0335209)
(0.00203762 0.0734857 0.00526745)
(0.00459478 0.0758937 -0.0178979)
(0.00105894 0.0639949 0.0986126)
(0.00126806 0.0643594 0.0311141)
(0.00132119 0.0618027 0.00695695)
(0.00423455 0.0709942 -0.0247257)
(0.00159025 0.12286 0.097868)
(0.00314892 0.0878204 0.0340512)
(0.00617001 0.0731164 0.00622437)
(0.0123167 0.0755997 -0.016967)
(0.00568565 0.0678874 0.0955541)
(0.00440894 0.0653866 0.0302957)
(0.00400188 0.0621984 0.0073251)
(0.0114282 0.0714084 -0.0239163)
(-0.0198884 0.125379 0.0961034)
(-0.00267786 0.0870514 0.0342599)
(0.00685392 0.0728647 0.00935799)
(0.0211198 0.0755403 -0.0121999)
(-0.0104362 0.0811405 0.089097)
(0.00072452 0.0692344 0.028709)
(0.00536835 0.0636641 0.0090852)
(0.0201866 0.0733275 -0.0196689)
(-0.00628015 0.121293 0.0840966)
(0.00459978 0.0831162 0.0316557)
(0.0101126 0.0704215 0.0129838)
(0.0210558 0.0766896 -0.0019385)
(-0.00327243 0.0921715 0.0976567)
(0.00367958 0.0716433 0.0321893)
(0.00474291 0.0652559 0.0129464)
(0.0203586 0.0724272 -0.0230444)
(-0.0487801 0.107105 0.0757705)
(-0.0094818 0.0786986 0.0284661)
(0.00199879 0.067788 0.013184)
(0.0283908 0.072485 -0.00528097)
(0.00325358 0.000127861 0.0794416)
(0.00186873 0.0440512 0.0220718)
(0.00148106 0.0462824 0.00626643)
(0.00316598 0.0137633 -0.0169175)
(0.00682194 -0.076121 0.0319325)
(0.00280984 0.0323066 0.00804675)
(0.00153525 0.0393939 0.00183959)
(0.00147452 0.0150807 -0.00357212)
(0.00629467 0.0106277 0.0815942)
(0.00439774 0.0474393 0.0234977)
(0.00341033 0.047508 0.00713306)
(0.00824098 0.014629 -0.0160922)
(0.0172714 -0.0620991 0.0330815)
(0.00745204 0.0361673 0.0086748)
(0.00393923 0.040519 0.0023764)
(0.00382832 0.015452 -0.00294354)
(0.0023434 0.0301476 0.0823696)
(0.00476223 0.0533926 0.0250847)
(0.00478636 0.0496121 0.00896048)
(0.013591 0.0146341 -0.0141297)
(0.0213297 -0.0387331 0.0333499)
(0.0104193 0.0426073 0.00937226)
(0.00593594 0.0423137 0.00311751)
(0.00604494 0.0157135 -0.00214252)
(-0.00699469 0.0535404 0.0740415)
(0.00414212 0.0602643 0.0236708)
(0.006 0.0521657 0.0103251)
(0.0188243 0.0160259 -0.0111826)
(0.0155217 -0.0148112 0.0321545)
(0.0111559 0.0495274 0.00966403)
(0.0070805 0.044661 0.00424681)
(0.00771284 0.0164874 -0.000739482)
(-0.0270428 0.0678535 0.0675591)
(-5.13797e-05 0.0662379 0.0235576)
(0.00377053 0.0552459 0.0115279)
(0.0183526 0.019093 -0.00650239)
(0.00227981 -0.0111596 0.0284693)
(0.00951385 0.0543817 0.0101553)
(0.00672997 0.0468004 0.0058211)
(0.00801488 0.0171576 0.00121041)
(-0.0566616 0.0728946 0.0473756)
(-0.00599103 0.07231 0.0192568)
(0.0033762 0.0569573 0.00962924)
(0.0213282 0.0179865 -0.0016281)
(-0.0191533 -0.0303481 0.0265873)
(0.00221045 0.0585794 0.0133745)
(0.0044526 0.0505356 0.00843886)
(0.00759337 0.018296 0.00469454)
(-0.0447904 0.0709292 0.0547534)
(-0.00227809 0.0696193 0.0194491)
(0.00390473 0.0557207 0.00929585)
(0.0199574 0.0180053 -0.00451348)
(-0.0127899 -0.0310012 0.0268268)
(0.00543421 0.0566012 0.0115399)
(0.00579964 0.0487105 0.00712164)
(0.00816503 0.017633 0.00295977)
(-0.0675987 0.0728975 0.0381153)
(-0.0106219 0.0742091 0.0187705)
(0.00173268 0.0583063 0.0108561)
(0.0230716 0.0166318 0.00208774)
(-0.0250422 -0.034206 0.0239574)
(-0.00102094 0.0603444 0.014251)
(0.00293157 0.0519556 0.0095229)
(0.00708419 0.0184647 0.00637504)
(-0.075769 0.0749283 0.0268803)
(-0.015298 0.0763253 0.0171897)
(-0.000576149 0.0602649 0.0121829)
(0.0227613 0.0171285 0.00793218)
(-0.0305982 -0.0298553 0.0201163)
(-0.00464491 0.0625373 0.0143666)
(0.000921627 0.0536367 0.0105299)
(0.00609962 0.0190167 0.00824229)
(0.00168164 0.0822219 -0.000761398)
(0.000786164 0.0664644 0.000412601)
(0.000431929 0.0479372 0.000415876)
(0.000271036 0.0288116 0.000303428)
(0.000205892 0.00960221 0.00024)
(0.00223825 0.0812607 -9.33948e-05)
(0.00121674 0.0663315 0.000270946)
(0.000711753 0.0479721 0.000234068)
(0.000457214 0.0288479 0.000167936)
(0.000349381 0.0096149 0.000132939)
(0.00400961 0.0832165 0.000533954)
(0.00183103 0.0669656 0.0011281)
(0.00100375 0.048192 0.00084015)
(0.000633202 0.0289339 0.000579433)
(0.000484469 0.00963848 0.000451751)
(0.0050842 0.0824256 0.00131521)
(0.00272971 0.0669745 0.00108628)
(0.00159744 0.048315 0.000724857)
(0.00103068 0.0290161 0.000487308)
(0.000789872 0.00966532 0.000377442)
(0.00530674 0.0850225 0.0019767)
(0.0022921 0.0676826 0.00200443)
(0.00124121 0.0485241 0.00137843)
(0.000782223 0.0290889 0.000937588)
(0.000599952 0.00968417 0.000729252)
(0.0068558 0.0838281 0.00534763)
(0.00362316 0.0677509 0.00366885)
(0.00212421 0.0487214 0.00234589)
(0.00137748 0.0292154 0.00156333)
(0.00105903 0.00972552 0.00120802)
(0.00361491 0.0852492 0.00646305)
(0.00186144 0.0686576 0.00434585)
(0.00108629 0.0492623 0.00277461)
(0.00070558 0.0294957 0.00185242)
(0.00054274 0.00981195 0.00143522)
(0.00252237 0.0873162 0.0093397)
(0.00107908 0.0699756 0.005759)
(0.000579032 0.0500409 0.00357969)
(0.000366278 0.0298984 0.00237119)
(0.000279161 0.00993613 0.00183513)
(0.00538083 0.0869479 0.00347957)
(0.00235101 0.0685581 0.00292946)
(0.00129305 0.0490061 0.00194778)
(0.000822309 0.0293316 0.00131263)
(0.000628079 0.00975834 0.00101476)
(0.00255284 0.0929041 0.00367574)
(0.000958346 0.0696352 0.00275486)
(0.000498031 0.0493198 0.00179386)
(0.000310553 0.0294522 0.00120611)
(0.000235639 0.00979204 0.000932788)
(0.00568446 0.0872996 0.00240004)
(0.00274561 0.0683267 0.00234033)
(0.00157687 0.0487709 0.00158546)
(0.0010172 0.0291959 0.00107787)
(0.000781253 0.00971484 0.00083716)
(0.00241079 0.0927282 0.00426728)
(0.000954559 0.0692398 0.00283506)
(0.000510685 0.0490605 0.00179009)
(0.000320698 0.029315 0.00119634)
(0.000242998 0.00974898 0.000922893)
(0.00410899 0.087832 0.00451904)
(0.00152683 0.069361 0.00350465)
(0.000781037 0.0494927 0.0023034)
(0.000485754 0.0295852 0.00154978)
(0.000369048 0.00983697 0.00120111)
(0.00241119 0.0946208 0.00488764)
(0.000854091 0.0704125 0.003299)
(0.000435187 0.0497627 0.00210539)
(0.000271067 0.0296811 0.00140804)
(0.000205978 0.00986307 0.00108943)
(0.00350562 0.0898032 0.0074319)
(0.000957801 0.070636 0.00464135)
(0.000396289 0.0502246 0.00289078)
(0.000226271 0.0299608 0.00191574)
(0.000166098 0.00995283 0.00148176)
(0.00193013 0.0967079 0.00620445)
(0.000449819 0.0715474 0.003831)
(0.00016985 0.0503966 0.00238211)
(9.32388e-05 0.0300059 0.00157815)
(6.72465e-05 0.00996367 0.00121856)
(0.00139435 0.0845323 -0.00146073)
(0.000591717 0.0667869 0.0002263)
(0.000314139 0.0479332 0.000309809)
(0.000193579 0.0287821 0.000233144)
(0.000146015 0.00959107 0.000185823)
(0.00100979 0.0889516 -0.000804559)
(0.000470722 0.067146 7.51188e-05)
(0.000260839 0.047942 0.000121865)
(0.00016281 0.0287651 9.35668e-05)
(0.000123204 0.00958441 7.55912e-05)
(0.00340939 0.0854532 -0.000613361)
(0.0014904 0.0671812 0.000674469)
(0.000810379 0.0481225 0.000572507)
(0.00050584 0.0288708 0.000404184)
(0.000384513 0.00961696 0.000318346)
(0.00261123 0.0896786 -0.000501876)
(0.00124421 0.0674419 0.000234057)
(0.000700692 0.0480862 0.000213607)
(0.000440925 0.0288333 0.000152435)
(0.00033462 0.00960442 0.000121378)
(0.00476533 0.0873051 0.000450512)
(0.00183341 0.0678425 0.00119337)
(0.000957656 0.0484219 0.00086969)
(0.000589818 0.0290102 0.000599661)
(0.000447169 0.00965768 0.000471192)
(0.00355966 0.0912783 0.000632957)
(0.00172282 0.0679807 0.000760822)
(0.000979947 0.0483443 0.000510261)
(0.000618671 0.0289559 0.000341812)
(0.000472619 0.00964036 0.000267818)
(0.00435643 0.0904056 0.00280506)
(0.00211668 0.0686094 0.00229496)
(0.00122328 0.0487254 0.00150292)
(0.000786601 0.0291469 0.0010174)
(0.000605128 0.00969724 0.000794488)
(0.00244285 0.0931894 0.0018543)
(0.00131881 0.068564 0.00144594)
(0.000773872 0.0486407 0.000927992)
(0.000494273 0.0290982 0.000623908)
(0.000381039 0.00968159 0.000487562)
(0.00227506 0.0933765 0.00508996)
(0.00116614 0.0690074 0.0029946)
(0.000687899 0.0488984 0.00183777)
(0.000446458 0.0292285 0.0012173)
(0.000343374 0.00972145 0.000939696)
(-0.0144779 0.351695 0.0594894)
(-0.0188445 0.537433 0.136245)
(-0.0333142 0.371031 0.0594828)
(-0.0463803 0.550764 0.134495)
(-0.0364965 0.400167 0.0642932)
(-0.0585486 0.569063 0.133009)
(-0.0174056 0.422064 0.0767537)
(-0.0489814 0.582873 0.138488)
(0.00761366 0.409352 0.0805848)
(-0.0136116 0.565454 0.14352)
(-0.0311107 0.385652 0.0315604)
(-0.0496304 0.433343 0.0504426)
(0.00186628 0.383857 0.0527552)
(-0.000944346 0.450128 0.0856787)
(-0.0454289 0.389159 0.0163195)
(-0.0707048 0.431825 0.0242292)
(-0.0562652 0.396623 0.00546038)
(-0.0798779 0.438193 0.00776415)
(-0.0229673 0.309728 0.312747)
(-0.00530027 0.0528772 0.0744962)
(-0.00118863 0.0112538 0.0170204)
(-0.000261455 0.00251382 0.00378893)
(-6.52854e-05 0.000443671 0.000937614)
(-0.00825123 0.343917 0.0849933)
(-0.00353345 0.097662 0.0228461)
(-0.000507013 0.0236343 0.00606394)
(-0.000131863 0.00534193 0.00137483)
(-5.59512e-05 0.000942562 0.000297505)
(-0.0705798 0.314252 0.310021)
(-0.0162207 0.052649 0.073223)
(-0.00365018 0.0111177 0.0167091)
(-0.000798966 0.00247304 0.00368764)
(-0.000199757 0.000435201 0.000919152)
(-0.0198892 0.348522 0.0864413)
(-0.0052331 0.097604 0.0254816)
(-0.00125107 0.0235169 0.00626578)
(-0.000261392 0.0052882 0.00145258)
(-6.93448e-05 0.000924854 0.000359438)
(-0.118928 0.319665 0.297756)
(-0.0273937 0.0527756 0.0697991)
(-0.00618013 0.0110409 0.0158608)
(-0.00135692 0.00244382 0.00349467)
(-0.000338478 0.000428998 0.000871813)
(-0.0313012 0.353578 0.083901)
(-0.00879028 0.0978407 0.024662)
(-0.00210221 0.0234282 0.00604923)
(-0.000481739 0.00524579 0.00139549)
(-0.000119875 0.000915754 0.000346548)
(-0.160339 0.319886 0.274857)
(-0.0370461 0.0516481 0.0638225)
(-0.00839044 0.0107004 0.0144516)
(-0.00184739 0.00236108 0.00318016)
(-0.000461277 0.000414045 0.000793307)
(-0.0363203 0.352598 0.081734)
(-0.0110214 0.0965769 0.0235275)
(-0.00272217 0.0230259 0.00569525)
(-0.000631504 0.00514429 0.001302)
(-0.000156975 0.000896792 0.000321518)
(-0.201477 0.306627 0.232279)
(-0.0470158 0.0482606 0.0536335)
(-0.0107206 0.00997335 0.012146)
(-0.00237184 0.00220639 0.00267555)
(-0.000594575 0.000387672 0.000668079)
(-0.0398742 0.337025 0.0776466)
(-0.0133125 0.0924391 0.021738)
(-0.003389 0.022102 0.0052026)
(-0.00079732 0.0049502 0.00118157)
(-0.000200591 0.000864038 0.000290816)
(-0.241315 0.277883 0.111636)
(-0.0580765 0.0454865 0.0269491)
(-0.0134258 0.00970545 0.00620444)
(-0.00299475 0.00218159 0.00137593)
(-0.000753824 0.00038616 0.000343905)
(-0.0599796 0.284183 0.0379257)
(-0.0182522 0.0816735 0.0107885)
(-0.00448599 0.020033 0.00255928)
(-0.0010252 0.0045587 0.0005707)
(-0.000255381 0.000802998 0.000140029)
(-0.223645 0.285781 0.16522)
(-0.0536043 0.0460188 0.0393222)
(-0.0123363 0.00970177 0.00898485)
(-0.00274051 0.00216703 0.00198328)
(-0.000687749 0.000382351 0.000495062)
(-0.0473958 0.29855 0.055853)
(-0.015591 0.0856263 0.0156847)
(-0.00393866 0.0208189 0.00375496)
(-0.000916694 0.00470052 0.000852178)
(-0.000228516 0.000823693 0.000211118)
(-0.249734 0.275266 0.0657879)
(-0.0602248 0.0455032 0.0160114)
(-0.0139515 0.00975692 0.00370297)
(-0.00311706 0.00219878 0.000825046)
(-0.000785785 0.000389609 0.000206547)
(-0.0674679 0.280046 0.0211137)
(-0.0199255 0.0800643 0.00625485)
(-0.00483056 0.0196613 0.00147272)
(-0.00108936 0.00448878 0.000327964)
(-0.000270761 0.00079292 8.11866e-05)
(-0.260781 0.274894 0.022689)
(-0.0623815 0.0452669 0.00548743)
(-0.0144742 0.0097013 0.00127119)
(-0.00323276 0.00218761 0.000284002)
(-0.000814534 0.000387345 7.10844e-05)
(-0.0697708 0.281176 0.0083851)
(-0.0206954 0.0798469 0.00223462)
(-0.00506476 0.0195635 0.000482208)
(-0.00106121 0.00447792 0.000136581)
(-0.000279211 0.000789817 2.57908e-05)
(-0.0210075 1.30069 0.00639923)
(-0.269242 1.83896 0.0205788)
(-0.245885 1.79801 0.177409)
(-0.0892389 1.26333 -0.0319794)
(0.0630414 0.746836 0.029413)
(0.108232 0.785031 0.0315228)
(0.302569 1.10155 0.0918446)
(0.442736 1.14849 0.117552)
(0.0657301 0.859512 0.0735418)
(0.323929 0.961534 0.138426)
(-0.0630324 1.365 0.115807)
(0.101343 1.85735 0.178833)
(0.0973437 1.72348 0.139452)
(0.191897 2.27877 0.17314)
(0.360786 1.12647 0.0725236)
(0.510926 1.28194 0.0977741)
(0.547149 0.885731 0.0776487)
(0.686461 0.944767 0.092088)
(0.223209 0.481226 0.0404161)
(0.289116 0.527077 0.042021)
(-0.786305 0.198192 0.0910983)
(-0.571057 0.133277 0.0671502)
(-0.197735 0.0400344 0.0198604)