/*--------------------------------*- C++ -*----------------------------------*\
| =========                 |                                                 |
| \\      /  F ield         | OpenFOAM: The Open Source CFD Toolbox           |
|  \\    /   O peration     | Version:  2306                                  |
|   \\  /    A nd           | Website:  www.openfoam.com                      |
|    \\/     M anipulation  |                                                 |
\*---------------------------------------------------------------------------*/
FoamFile
{
    version     2.0;
    format      ascii;
    arch        "LSB;label=32;scalar=64";
    class       volScalarField;
    location    "3";
    object      gradTz;
}
// * * * * * * * * * * * * * * * * * * * * * * * * * * * * * * * * * * * * * //

dimensions      [0 -1 0 1 0 0 0];

internalField   nonuniform List<scalar> 
5712
(
6974.71
22932.6
5527.55
23524.7
4158.24
24367.5
6586.38
37668.8
8102.12
51815.6
8029.82
37678.9
7733.25
31233.5
8035.83
27883.5
4859.86
2982.63
12993.5
7677.85
4773.33
2570.19
14273.5
7083.31
5287.28
3796.35
16973
11853.4
3995.29
2839.71
16701.5
12050.2
9365.2
3951.45
8060.72
3575.74
3681.21
8698.88
32646.9
8863.27
11667.2
3966.36
42162.7
11471.1
10975.2
3822.45
23240.8
7221.33
11911.3
4165.34
20138.9
6413.85
5417.46
2685.77
8230.19
3185.84
5856.15
3171.64
8039.24
3061.11
7503.96
4262.21
6925.31
2984.39
10356.9
3703.42
3569.63
1240.29
11697.4
8043.36
7269.58
5284.26
13296.3
10925.1
7270.81
6296.93
6809
4540.71
9501.03
6264.4
4812.24
3521.67
2470.17
2017.77
4704.38
4066.68
2465.59
2372.14
4571.01
2962.31
2362.41
1498.28
6028.79
3260.36
4465.62
5447.17
8170.19
5803.25
6404.82
9262.5
4018.56
1892.16
2646.59
3135.26
2009.97
827.784
1147.39
1162.75
6986.58
12564.1
4766.46
14062.9
8243.38
12330.5
5886.87
14781.3
9436.33
11214.6
7636.88
14520.8
11603.3
14139.2
8471.9
8083.4
8907.4
14098.5
12713.7
12215.1
12379.1
18002.3
11447.6
8574.19
7246.3
8081.03
12846.6
14473
12847.7
16825.1
16061.4
13251.3
12217.9
16656.6
15759.2
11487.3
11137.5
15676.9
15228.8
10248.8
7976.71
9241.43
7939.83
9934.49
8709.46
10542.8
9966.34
14534.4
14703.8
9594.42
8208.89
8917.96
8355.47
9032.76
9337.11
10089.2
11096.3
13199.4
15002.2
7846.27
6144.51
5420.48
6946
10822.5
13278
7533.47
11979
4513.85
5995.29
6681.94
5480.99
1273.03
4621.54
680.353
1665.06
3857.87
8083.39
1439.01
2811.01
542.505
3864.81
324.931
1352.99
4396.31
4475.45
4992.04
3048.15
6927.71
5492.85
8148.9
5538.7
962.489
2445.21
2464.29
1364.98
1390.85
1821.67
1987.65
1494.48
10151.1
6129.32
1911
11524.1
6567.35
2141.82
9728.91
6064.35
2030.44
11368.8
6580.72
2139.89
8956.67
5561.51
1818.29
11127.5
6630.26
2208.47
5113.92
2696.51
705.495
6363.52
4161.98
1450.19
7464.54
5146.02
1772.26
8552.04
5496.73
1817.38
11047.3
6834.33
2391.28
6130.54
3371.51
1044.39
5891.97
4214.47
1581.26
6885.54
5082.24
1854
8628.63
6031.54
2143.77
11158.1
6894.97
2432.6
291.297
1985.82
2781.83
4051.2
2104.31
2439.36
5302.73
5060.17
596.53
1041.68
637.178
1085.64
481.727
1412.84
864.821
1856.56
3198.23
1572
4066.68
2353.16
2178.7
3784.87
3365.06
973.254
5915.14
1480.6
-1803.93
781.285
1825.4
1379.41
1271.37
1208.02
9949.8
4740.35
2727.78
1751.21
10111.1
4937.24
3410.65
2200.35
10001.2
5327.47
4964.01
3588.35
3526.02
2598.39
1797.23
1742.55
12523.3
11162.6
5910.09
6154.15
13254.3
12462.5
6540.89
6616.84
5362.84
5545.79
10939.9
9205.13
3549.78
3717
2024.31
2278.34
4049.15
4031.03
2260.82
2410.31
3167.81
3412.35
1820.21
2195.75
4882.1
3559.43
4922.21
3669.64
7584.99
4735.75
7306.89
5084.74
2970.6
2567.89
3120.26
2377.21
1704.06
1625.51
1985.96
1389.94
11986.1
8785.52
6321.1
6713.64
11943.2
8942.24
6367.66
6682.72
12352.7
9169.63
6460.56
6472.99
13748.4
14578.5
12759.1
8778.2
5296.08
13827.9
13105
12492.4
10643.4
7364.92
12959.5
11940.7
9767.18
7769.37
5187.55
7860.68
7296.14
7579.99
8994.41
7987.02
7072.67
7600.66
8816.51
8139.4
6836.03
7591.4
8591.73
10450.4
7368.09
10033
7062.22
8195.72
6769.64
7961.5
7040.31
6997.04
8429.88
8670.22
7528.49
7889.72
6967.08
6984.59
6470.39
6469.27
6629.79
5566.48
8045.31
7047.53
4798.77
4686
2796.23
8982.95
6931.65
6261.38
5013.47
3958.98
2440.43
5754.29
4357.38
4745.1
2252.59
1754.07
1014.38
4933.94
3558.79
1741.27
1439.75
4199.74
1931.72
1664.73
893.066
3485.52
3350
3273.97
4930.06
4864.08
4792.51
4216.07
6379.4
3438.39
2351.28
2313.89
3293.54
1080.38
555.138
321.157
672.637
5128.86
2134.89
626.023
6038.77
1547.63
409.398
5119.21
2279.8
696.91
5982.07
1598.98
442.622
4656.71
2201.35
566.742
5808.18
1609.58
374.718
4506.74
2236.51
472.12
4298.83
2050.72
468.231
4456.49
2130.62
570.445
4647.73
2175.31
452.496
5730.21
1560.85
232.807
5779.67
2860.78
739.434
5455.19
2704.01
729.572
5200.4
2569.18
743.953
5189.64
2199.9
532.783
6178.08
1437.32
347.071
1902.06
692.229
136.381
-225.077
788.352
303.834
82.0023
-45.9001
2018.23
760.899
195.403
-139.381
998.714
422.892
199.73
93.529
2174.87
849.996
294.112
-10.3006
1712.98
818.801
336.803
87.6324
1303.28
759.347
308.841
14.6709
1236.15
839.566
520.852
325.134
1808.89
817.151
268.173
-182.664
1564.05
693.854
310.865
-191.582
2147.97
842.444
272.62
-143.385
1954.31
767.517
306.341
-323.394
1452.06
765.809
327.392
-48.0494
1202.52
618.171
339.927
12.325
1077.67
682.224
425.072
273.113
829.476
527.693
364.566
225.336
2448.01
838.021
131.686
-447.449
2465.32
777.852
173.924
-618.143
2446.7
851.28
155.609
-424.174
2388.85
757.392
183.127
-597.906
2402.59
856.497
233.95
-304.998
2227.42
717.725
227.13
-491.722
2102.41
791.392
324.595
-48.4625
2441.42
804.732
323.661
-576.111
1894.26
711.652
329.6
-132.024
1986.04
551.796
156.661
-422.938
798.312
201.169
45.9897
-89.3029
2039.85
587.442
178.327
-402.305
827.038
216.87
59.41
-73.5885
2059.24
627.117
224.012
-353.241
833.747
234.307
77.9378
-53.5629
1851.04
591.771
258.127
-279.565
803.863
241.601
106.17
-18.487
1688.98
588.939
288.197
-162.56
711.732
253.882
145.528
30.2602
1184.39
481.421
240.731
-40.7025
664.682
334.364
210.971
117.364
1368.83
486.228
232.396
-112.837
670.67
288.498
178.041
73.9942
952.882
469.263
271.402
52.1936
598.934
356.275
238.072
159.376
672.007
429.743
304.573
198.304
502.907
359.165
263.248
206.057
-19.0349
10.315
10.3969
7.58571
6.00001
-2.33487
6.77365
5.8517
4.19841
3.32347
13.3489
28.2024
21.0038
14.4858
11.2938
32.8801
27.1571
18.1214
12.1827
9.43606
49.4174
50.1108
34.4608
23.4397
18.2313
133.691
91.7214
58.6474
39.0831
30.2006
161.576
108.646
69.3654
46.3105
35.8806
233.492
143.975
89.4923
59.2798
45.8782
86.9893
73.2365
48.6946
32.8158
25.369
91.8934
68.8715
44.8464
30.1527
23.3197
60.0009
58.5083
39.6366
26.9467
20.929
106.682
70.8764
44.7524
29.9085
23.0723
112.976
87.6161
57.5851
38.7445
30.0276
122.191
82.475
52.6348
35.201
27.2357
185.797
116.034
72.2696
47.8935
37.0441
155.111
95.7751
59.5527
39.4539
30.4639
-36.5183
5.6575
7.74521
5.82859
4.64559
-20.114
1.87797
3.04662
2.33917
1.88978
-15.334
16.8617
14.3127
10.1046
7.95865
-12.5469
5.85142
5.34017
3.81086
3.03446
11.2628
29.8344
21.7422
14.9915
11.7798
15.8239
19.0205
12.7565
8.5453
6.69544
70.1264
57.3741
37.5729
25.435
19.8622
46.3575
36.1486
23.1998
15.5977
12.1891
127.249
74.865
45.9444
30.4324
23.4924
1487.24
3406.12
1487.07
3362.37
1607.33
3325.23
1918.84
3462.21
2014.62
3587.99
789.011
1261.06
1318.88
2141.97
407.987
605.729
136.51
194.104
7818.67
1862.41
425.511
94.7232
23.4404
2124.83
571.153
151.599
34.3707
7.43763
7750.52
1830.57
417.728
92.191
22.9788
2161.03
637.04
156.644
36.3144
8.98595
7443.89
1744.98
396.519
87.3667
21.7953
2097.52
616.549
151.231
34.8873
8.6637
6871.42
1595.56
361.289
79.504
19.8327
2043.35
588.187
142.381
32.55
8.03795
5806.97
1340.84
303.65
66.8887
16.702
1941.16
543.451
130.065
29.5392
7.27039
2790.9
673.728
155.111
34.3984
8.59762
948.143
269.714
63.9821
14.2675
3.50072
4130.49
983.054
224.621
49.5819
12.3765
1396.32
392.118
93.8741
21.3045
5.27795
1644.7
400.285
92.5741
20.6262
5.16368
527.843
156.371
36.8179
8.1991
2.02967
567.224
137.186
31.7798
7.10005
1.77711
209.627
55.8654
12.0552
3.41451
0.644769
159.981
514.471
4435.22
-799.484
735.324
788.069
2296.12
2938.79
1838.55
3460.65
2895.18
4470.82
3486.31
4328.49
1813.09
2444.35
1941.22
2302.2
1010.4
1050.52
2277.46
1678.76
496.509
-486.478
-786.224
-944.35
-302.121
12693.7
2962.26
4126.46
2635.4
-212.395
-80.1388
2916.61
-1461.97
-832.226
-1129.49
-575.532
6972.24
3657.41
1217.46
1020.78
3636.8
1991.08
627.345
1370.62
-1530.16
-899.321
677.707
531.089
8597.99
4284.22
5256.47
2826.18
4075.2
4381.32
1519.58
-929.472
897.165
1630.48
1358.17
1195.25
1107.27
883.878
1338.11
1088.48
863.883
619.788
272.055
438.662
368.104
283.493
183.057
64.3966
-434.327
-362.209
-270.126
-165.891
-55.8502
-702.679
-587.054
-438.974
-270.294
-91.1018
-845.247
-707.498
-530.152
-327.051
-110.355
-262.747
-210.094
-147.595
-84.695
-27.0258
9334.42
8269.62
7255.78
6884.05
6627.57
2707.82
2454.79
2362.81
2031.43
1103.32
3187.1
2583.15
2232.86
1802.65
970.983
2061.63
1710.49
1533.42
1215.81
521.713
-37.2095
23.4355
148.684
169.097
86.1544
28.6652
123.297
177.283
163.722
71.4465
2501.6
2123.17
1705.89
1213.46
508.197
-891.8
-437.545
-172.465
-30.5602
7.64632
-663.41
-473.029
-286.926
-137.132
-35.6405
-801.085
-500.545
-260.721
-103.389
-21.8552
-520.395
-432.07
-315.447
-187.608
-61.0166
5242.59
4840.6
4288.58
4091.16
3972.73
2833.75
2266.31
1922.89
1500.36
754.16
1144.93
1056.99
917.096
672.531
270.671
908.442
789.572
647.389
453.071
175.087
3049.4
2482.14
1916.29
1293.96
506.366
1776.37
1523.08
1212.51
815.825
298.684
550.65
466.742
369.759
249
92.1249
1215.51
1025.34
794.114
515.985
183.016
-1328.38
-1073.02
-775.786
-464.579
-153.779
-790.803
-644.926
-467.213
-278.132
-91.3265
613.981
539.187
442.506
306.433
115.138
483.805
427.51
352.398
243.75
90.6855
5603.89
4159.18
3668.77
3489.46
3174.42
3291.75
2586.36
2030.01
1477.36
680.773
3901.89
3241.57
2674.88
2132.59
1069.77
2271.67
1871.73
1479.68
1057.77
470.641
3487.17
2874.86
2219.54
1475.55
552.595
3335.56
2491.34
2063.69
1589.67
691.98
1334.99
1119.35
867.165
567.399
203.542
-824.596
-680.554
-500.185
-302.134
-100.305
799.496
694.08
567.577
394.736
149.432
-26610.3
-43645.9
-22055.3
-35341.7
-23692
-49750.1
-28362.9
-63157
-16842.4
-11504.1
-18984.6
-11798.7
-15566.5
-9997.43
-19297.4
-10130.9
-21959.2
-16501.3
-32038.5
-23031.3
-18857.2
-14987.8
-26791.8
-20087.4
-15139.6
-15440
-12418.8
-11910.4
-14586.1
-13770.9
-37109.9
-10234.7
-14094.5
-5253.59
-45448.2
-12585.5
-12609.5
-4667.12
-27558.8
-8679.01
-14428.4
-5520.68
-24467.4
-7611.61
-11292.7
-4536.33
-14420.3
-5219.19
-10712.5
-4703.21
-12538.6
-4531.58
-11112.4
-5377.37
-10017.7
-3968.67
-12874.5
-4539.05
-4520.99
-1585.76
-9621.41
-6360.01
-8302.75
-5044.07
-8524.19
-6846
-7306.22
-5210.1
-8425.27
-4767.96
-9854.45
-6103.63
-5686.73
-3381.99
-3063.64
-1876.44
-4912.81
-3385.07
-2548.64
-1810.47
-5771.09
-3122.21
-3196.23
-1597.65
-7413.29
-3757.53
-4770.05
-5566.66
-9393.87
-6301.53
-6704.87
-9383.72
-5034.42
-2254.63
-2859.63
-3220.25
-2728.93
-1097.45
-1298.18
-1226.43
-11065
-13427.7
-6224.36
-15164.4
-11507.3
-12817.1
-7148.17
-15509.8
-11638
-11685
-8521.53
-14771.3
-8001.61
-6480.6
-8727.2
-9651.04
-9618.12
-8900.1
-10212.6
-11795.7
-12633.2
-17930.1
-6091.46
-6233.91
-6755.33
-8167.51
-12802.9
-12730.3
-8876.17
-16132.6
-12397.2
-11802.7
-8740.19
-15895.6
-12345.9
-10453.5
-8161.45
-14836.7
-12219
-7317.36
-5832.92
-7470.29
-5960.32
-8301.63
-6680.45
-9030.12
-7628.63
-13526.6
-12281.6
-6881.32
-5924.47
-6839.2
-5876.12
-7473.41
-6913.58
-8955
-8811.83
-12513.9
-12818.7
-6276.81
-5011.47
-4621.44
-6096.08
-7935.78
-11046.6
-6002.97
-10198.3
-4212.01
-5599.31
-6014.33
-4916.27
-773.362
-4017.25
-221.685
-1183.9
-2874.3
-7017.42
-622.51
-1951.21
-356.578
-3573.7
-127.582
-1109.31
-4321.34
-4315.47
-4974.88
-2979.68
-6688.86
-5192.86
-8046.58
-5274.04
-923.567
-2331.16
-2446.44
-1318.75
-1331.71
-1716.39
-1957.23
-1441.83
-5379.58
-1850.78
-7270.21
-2482.07
-5499.73
-1930.84
-7442.81
-2673.8
-5456.49
-1901.29
-7888.6
-3048.18
-3421.99
-953.989
-4218.85
-1625.42
-4724.63
-1839.99
-5661.41
-2149.3
-8323.65
-3322.79
-4374.13
-1315.51
-3833.97
-1918.77
-4593.77
-2213.47
-6209.41
-2734.2
-8611.2
-3260.38
-5932.77
-5585.26
-4406.72
-4367.74
-9873.12
-7566.63
-7979.27
-6633.97
-4087.16
-3623.63
-1661.42
-1222.88
-3846.26
-3785.84
-1518.56
-1607.4
-2838.73
-4549.09
-3413.87
-4913.41
-3758.39
-2381.55
-3063.13
-420.132
-6491.56
-1652.97
2593.13
517.114
-852.744
-199.84
312.506
766.111
-2550.99
-1892.6
-939.183
-598.282
-2690.12
-2001.76
-1366.61
-674.103
-2990.12
-2388.29
-1785.69
-907.52
-1084.07
-23.6323
731.918
1157.56
-4986.88
-5395.24
-3815.44
-3605.6
-6630.93
-6666.48
-5478.83
-4621.49
-2546.51
-2891.11
-3865.15
-4482.26
-2278.37
-1998.83
-926.779
-860.097
-3496.13
-2753.45
-1751.18
-1377.53
-1292.16
-1482.75
-187.909
-546.679
-1748.02
-1322.88
-2557.16
-1974.72
-2790.62
-2421.54
-3968.56
-3238.51
-610.387
-399.433
-1231.25
-789.794
415.594
545.912
-294.305
146.739
-3783.89
-4852.7
-3346.82
-5051.17
-3737.24
-4813.23
-3427
-5045.76
-3904.9
-4422.62
-3609.25
-4794.61
-2786.65
-4575.31
-2467.04
-2298.93
-2641.83
-6918.78
-4993.4
-4740.4
-5105.75
-5534.29
-5540.69
-4736.83
-4129.09
-3993.37
-3352.78
-5853.95
-5964.44
-7874.29
-12160.5
-5511.14
-5346.98
-7551.23
-11576.5
-5013.01
-4861.56
-6968.86
-10652.2
-6784.83
-5226.05
-6225.09
-4769.69
-5587.41
-4501.96
-5888.32
-5505.17
-6440.4
-9859.54
-5504.85
-5216.29
-4768.86
-4826.2
-4432.1
-4740.63
-4753.07
-5739.44
-4625.31
-8735.99
-3906.43
-2820.2
-2658.61
-974.334
-5499.71
-4843.71
-4254.53
-3127.66
-2131.92
-833.074
-3288.79
-2697.99
-3191.39
-975.423
-426.134
126.72
-3539.99
-2311
-608.392
-345.161
-2680.43
-765.678
-283.03
178.529
-2066.3
-2233.95
-2364.44
-4457.89
-3212.44
-3732.79
-3393.04
-6231.21
-2111.9
-1432.29
-1281.76
-2689.51
221.605
361.783
783.438
57.3717
-4280.57
-1245.6
-8206.67
-861.695
-3988.3
-1334.7
-7969.81
-893.753
-3032.75
-805.904
-7251.57
-720.773
-2873.16
-636.117
-2711.97
-627.499
-3040.16
-927.467
-3300.66
-627.222
-6825.46
-905.487
-4031.31
-780.417
-3812.33
-617.192
-3994.71
-799.738
-4577.93
-700.955
-7164.26
-872.024
-836.803
-168.135
196.839
485.363
-280.54
-41.1805
78.3847
154.926
-824.657
-130.053
218.316
460.529
-190.982
39.7875
89.8296
99.8039
-844.034
-85.8081
226.136
414.145
-10.3199
268.323
420.759
471.24
588.623
525.045
594.12
629.586
1068.59
779.33
610.805
459.663
-369.772
139.198
429.848
727.437
-308.186
195.952
351.172
734.946
-914.464
-69.3964
289.033
611.719
-709.202
68.3714
317.836
899.49
137.193
344.289
462.311
622.432
53.648
306.089
354.622
534.682
619.632
532.947
456.331
371.561
432.53
417.76
355.96
342.322
-1336.85
-292.788
233.472
788.844
-1676.94
-349.818
104.781
989.138
-1283.01
-252.468
254.184
803.787
-1612.26
-322.873
106.827
977.903
-1194.18
-191.243
214.244
701.541
-1462.69
-271.641
77.3474
893.24
-799.166
-34.2445
203.845
519.484
-1515.59
-230.16
89.8547
1112.34
-748.478
27.8075
231.61
704.059
-1568.02
-269.736
29.657
699.92
-684.579
-103.344
30.5604
178.636
-1465.25
-230.844
49.9688
702.678
-651.661
-90.5461
35.0975
176.854
-1256.91
-155.112
62.4495
683.815
-555.289
-58.7881
50.1823
185.023
-1031.98
-92.0037
49.8298
615.428
-455.352
-26.4482
53.4916
178.831
-757.713
10.0214
101.217
529.289
-238.654
47.3703
73.0615
175.688
-341.366
148.501
247.676
488.583
101.528
227.374
208.666
245.602
-623.034
41.0773
165.642
503.339
-29.8636
145.535
140.382
210.988
-1.08223
262.774
296.491
442.275
232.192
291.378
255.901
259.628
335.798
357.212
304.955
320.582
362.864
336.23
268.783
239.311
110.417
32.8987
14.0602
8.15553
6.09807
46.9545
15.8083
7.19305
4.2424
3.17191
130.284
48.3312
24.2754
15.0386
11.4724
75.7986
35.1989
19.59
12.5529
9.66547
161.154
68.0185
36.7037
23.2113
17.7923
192.723
102.464
60.2848
39.2219
30.3317
213.748
118.295
70.3581
45.8162
35.361
240.261
145.362
89.3628
58.8558
45.5246
192.791
89.9203
50.8103
32.6471
25.2339
163.958
79.5152
45.5589
29.3216
22.665
173.908
73.8838
40.5047
25.6735
19.7242
145.012
74.3551
43.651
28.2213
21.8569
207.621
103.256
59.4738
38.3805
29.6185
168.468
89.9501
53.0899
34.4863
26.6945
199.949
118.171
72.254
47.5151
36.741
166.569
97.6907
59.5576
39.1173
30.2609
119.31
29.0133
11.2948
6.34
4.69176
55.2636
11.6508
4.26944
2.32402
1.68648
129.363
38.0255
17.3837
10.4421
7.86232
58.9173
14.9336
6.51128
3.85216
2.86253
134.302
46.3574
23.4608
14.5307
10.9954
67.5645
25.3598
13.7501
8.79633
6.68734
150.946
65.4974
36.5931
23.2237
17.7184
89.7465
39.3961
22.4269
14.338
10.9296
129.237
73.4252
44.3469
28.9312
22.3804
-1719.55
-3228.56
-1760.7
-3228.59
-1904.66
-3243.26
-2080.41
-3320.06
-2007.13
-3331.67
-779.932
-1225.62
-1304.4
-2043.81
-388.61
-578.607
-108.794
-164.547
-8207.95
-1937.55
-439.867
-97.4381
-24.0081
-2206.42
-593.607
-156.992
-35.4252
-7.627
-8069.87
-1893.11
-429.949
-94.5296
-23.4807
-2249.22
-662.36
-162.085
-37.4008
-9.21584
-7638.36
-1785.98
-405.044
-89.0798
-22.1782
-2176.41
-638.077
-155.855
-35.8164
-8.86411
-6940.25
-1614.36
-365.858
-80.5159
-20.0755
-2091.17
-602.435
-145.631
-33.2303
-8.19039
-5801.41
-1344.64
-305.204
-67.313
-16.8176
-1949.45
-549.622
-131.822
-29.9491
-7.36967
-2779.9
-671.65
-154.816
-34.372
-8.59973
-939.242
-268.66
-63.9731
-14.3026
-3.51654
-4114.63
-981.394
-224.675
-49.664
-12.4103
-1387.42
-392.896
-94.417
-21.4664
-5.32396
-1637.23
-398.713
-92.2839
-20.5808
-5.15717
-519.034
-154.596
-36.5312
-8.16301
-2.02683
-561.262
-135.95
-31.5329
-7.0554
-1.76886
-200.132
-53.7778
-11.6427
-3.34288
-0.632323
224.588
-995.585
-5201.43
902.772
-6273.3
-2747.84
-6070.13
-2776.3
-10987.5
-5847.64
-12322.2
-6524.33
-137.916
-548.335
-861.062
-1014.51
-912.486
-380.252
-225.872
-848.553
-1287.2
-1419.85
-1144.23
-395.642
-117.29
-125.811
-440.424
-443.779
-630.041
-622.85
-608.151
-573.911
-545.504
-518.304
-430.76
-380.151
844.032
2203.98
3570.28
2527.42
2326.31
1121.76
804.329
2316.22
3741.24
4326.47
3606.78
1643.82
-124.399
-105.186
-79.7309
-49.6965
-16.8769
-495.289
-419.538
-318.612
-198.901
-67.6052
-777.72
-658.73
-500.245
-312.291
-106.148
-916.032
-775.604
-588.793
-367.471
-124.887
-823.717
-697.148
-528.907
-329.878
-112.061
-344.701
-292.49
-221.717
-137.746
-46.6076
-203.637
-172.093
-130.387
-81.2476
-27.5886
-766.074
-648.54
-492.287
-307.231
-104.413
-1161.82
-983.349
-746.335
-465.775
-158.303
-1280.76
-1083.36
-821.859
-512.8
-174.28
-1031.4
-871.778
-660.97
-412.298
-140.118
-357.532
-302.754
-229.58
-143.001
-48.5192
-105.863
-89.5861
-67.9616
-42.3865
-14.3987
-113.62
-96.2154
-73.0418
-45.5807
-15.4887
-397.944
-337.208
-256.178
-159.963
-54.3755
-401.034
-339.879
-258.246
-161.274
-54.8245
-569.228
-482.306
-366.377
-228.759
-77.7587
-562.701
-476.739
-362.122
-226.091
-76.8505
-549.404
-465.436
-353.471
-220.637
-74.9822
-518.231
-438.799
-333.097
-207.866
-70.6355
-492.603
-416.976
-316.265
-197.134
-66.9284
-467.431
-395.158
-299.456
-186.603
-63.3572
-388.968
-328.758
-248.465
-154.137
-52.1359
-342.43
-288.899
-218.3
-135.614
-45.9472
751.799
630.047
477.411
299.999
102.879
1955.1
1634.09
1238.15
780.426
269.039
3132.63
2603.72
1978.57
1262.45
443.638
2202.8
1827.19
1392.93
893.796
315.385
2059.08
1712.72
1298.89
817.455
265.377
1023.53
868.792
667.465
420.455
132.755
717.155
600.96
454.512
284.689
97.3442
2060.31
1723.86
1303.85
818.167
280.54
3308.85
2758.78
2087.86
1316.62
454.679
3802.38
3158.5
2392.36
1516.69
527.824
3169.87
2633.47
1996.93
1267.43
439.356
1460
1225.29
936.759
596.996
206.539
304.532
711.892
1018.27
1162.4
1047.41
516.842
455.964
1070.97
1491.69
1592.18
1270.91
478.959
249.027
237.179
566.747
550.718
744.188
718.598
701.946
646.551
627.682
530.115
567.339
422.402
-688.439
-1967.05
-3159.34
-1976.17
-1649.87
-380.016
-735.019
-2203.14
-3490.98
-3876.68
-2960.26
-873.539
275.536
233.884
178.009
111.322
37.8742
643.756
546.057
415.303
259.574
88.2874
920.59
780.663
593.58
370.935
126.153
1050.72
890.85
677.251
423.175
143.912
947.024
803.112
610.603
381.509
129.731
469.844
400.346
305.113
190.569
64.7073
412.467
350.036
266.364
166.562
56.6662
968.104
820.853
624.096
390.003
132.641
1347.84
1142.31
868.174
542.413
184.462
1437.9
1218.02
925.389
578.084
196.596
1147.25
971.423
737.866
460.938
156.773
433.805
368.428
280.314
175.115
59.5193
225.327
191.272
145.578
91.0394
30.9726
214.599
182.153
138.626
86.6846
29.4896
512.573
434.854
330.772
206.754
70.3219
498.08
422.555
321.411
200.898
68.3296
672.934
570.785
434.08
271.285
92.2626
649.745
551.06
419.038
261.866
89.0566
634.801
538.484
409.521
255.923
87.0317
584.476
495.582
376.76
235.402
80.0481
567.949
481.98
366.585
229.039
77.8667
479.126
406.141
308.655
192.784
65.5409
514.479
437.339
332.756
207.702
70.5232
382.028
323.95
246.129
153.609
52.1821
-609.463
-507.583
-382.931
-240.31
-82.4753
-1738.75
-1448.34
-1095.24
-690.464
-238.397
-2754.42
-2275.79
-1723.9
-1101.13
-388.651
-1680.39
-1360.08
-1018.18
-648.652
-229.23
-1411.46
-1129.66
-826.893
-504.379
-152.799
-311.565
-225.864
-145.175
-72.6712
-7.71833
-654.139
-547.164
-413.352
-258.866
-88.5509
-1957.92
-1636.87
-1237.67
-776.9
-266.557
-3079.93
-2561.81
-1935.96
-1220.77
-421.975
-3385.79
-2794.9
-2107.53
-1334.26
-464.844
-2565.76
-2101.35
-1575.86
-994.821
-344.256
-737.432
-586.072
-428.593
-266.51
-90.9076
-1383.35
-876.387
-197.411
740.523
1044.16
1328.93
640.88
-10599.4
-1595.5
-3039.61
-1459.7
303.773
-3941.44
895.225
2535.14
1224.3
-5732.62
-2580.94
-369.576
-488.071
-3299.19
-1198.78
-201.381
-972.468
2239.04
1431.6
-464.002
-104.03
-7572.54
-3523.66
-4142.37
-1990.92
-3473.35
-3200.54
-1013.21
1456.33
-309.633
-666.898
-449.153
-411.139
-544.533
-651.756
-538.346
-346.181
-243.31
-192.202
-110.443
-162.603
-128.107
-96.4089
-63.906
-23.4895
669.867
568.081
431.563
269.295
91.5012
942.148
796.687
603.631
375.909
127.546
1199.19
1014.31
768.913
479.15
162.654
580.793
491.833
371.207
229.15
77.0377
-7680.84
-6985.5
-6440.18
-6704.62
-7192.17
-1027.83
-718.9
-897.173
-1088.38
-789.803
-2139.29
-1597.8
-1432.32
-1303.57
-830.758
-938.125
-629.668
-604.178
-564.023
-261.972
277.494
223.842
145.557
65.2917
11.0567
-3301.49
-2725.3
-2122.98
-1466.76
-600.242
809.532
677.054
498.85
297.425
95.5231
2209.39
1810.46
1343.34
830.386
281.932
1100.12
923.639
693.486
427.737
143.712
-4045.3
-3829.72
-3553.85
-3741.37
-4079.48
-1770.92
-1280.38
-1123.7
-991.591
-594.883
-287.063
-249.618
-248.287
-231.005
-118.205
-392.951
-320.472
-268.17
-206.598
-90.4826
-2761.49
-2250.11
-1751.21
-1202.02
-481.759
-1011.61
-828.992
-651.89
-450.014
-171.388
-150.684
-112.355
-88.6722
-67.787
-29.6148
-842.531
-696.148
-534.404
-349.529
-125.845
2001.54
1676.15
1259.86
780.504
263.913
1290.5
1087.84
819.311
506.133
170.42
-389.125
-319.377
-254.8
-179.788
-70.7133
-73.8026
-56.5346
-53.1222
-48.6642
-23.0571
-4634.16
-3278.93
-2959.09
-3052.54
-3098.21
-2563.55
-1926.58
-1494.12
-1123.56
-556.113
-2766.38
-2206.12
-1821.13
-1569.89
-852.997
-1471.24
-1145.8
-891.783
-672.649
-338.367
-2923.45
-2376.44
-1826.85
-1225.39
-467.755
-2211.62
-1456.75
-1235.1
-1062.26
-515.652
-863.697
-705.963
-542.758
-360.332
-132.629
1314.77
1110.7
838.848
519.752
175.456
-236.742
-186.326
-159.295
-129.496
-57.7438
-0.793381
42.9309
105.918
143.818
113.305
11.0108
-18788.2
-16582.7
-15867.6
-18080.3
-13767.1
-10897.7
-12453
-9462.06
-16222.8
-14176.1
-14945.9
-14019.1
-13112.3
-11161.2
-13764.8
-15440.8
-13796.9
-12741.1
-14368.4
-11595.4
-9825.35
-10418.3
-8365.84
-14528
-12859.5
-13382
-12149.2
-11583.2
-10831.1
-11137
-12107.9
-11094.1
-10089.6
-11036.1
-9626.48
-8264.97
-8710.36
-7497.03
-12143.6
-10972.8
-11302.7
-10255.9
-9828.08
-9097.1
-9308.32
-8440.44
-7939.84
-7128.84
-7556.92
-7123.25
-6388.83
-6482.08
-5947.21
-8717.27
-8780.2
-8223.93
-8266.41
-7328.48
-6621.93
-7331.35
-5392.65
-5153.66
-4595.99
-4794.04
-4771.01
-4320.17
-4286.43
-3969.25
-5766.81
-5742.76
-5510.6
-5363.5
-5013.73
-4528.67
-4879.36
-1940.69
-1871.55
-1664.85
-1723.47
-1763.22
-1649.58
-1572.79
-1468.91
-2190.64
-2176.21
-2047.63
-1940.75
-1885.25
-1730.96
-1845.35
-7283.97
-7194.21
-10754.6
-11582.6
-6887.42
-6136.16
-9454.13
-7707.84
-5844.45
-4522.82
-5808.67
-4479.71
-5856.24
-5590.8
-4539.09
-7286.98
-6928.23
-9581
-10441.3
-6450.35
-5862.28
-8348.5
-7217.17
-5866.56
-4102.47
-5768.75
-4299.02
-5297.04
-5087.54
-4642.72
-6703.56
-6405.95
-8149.15
-8729.08
-6039.59
-5642.8
-7309.96
-6496.25
-4950.35
-4545.49
-4937.86
-4745.87
-4636.64
-4621.94
-4864.38
-5478.78
-5289.44
-6141.59
-6441.71
-5037.65
-4729.54
-5701.17
-5223.73
-4831.59
-4192.67
-4751.71
-4423.23
-4462.19
-4406
-4445.69
-3822.75
-3712.15
-4082.2
-4232.24
-3457.08
-3211.15
-3854.96
-3551.56
-3446.89
-3273.58
-3366.31
-3399.27
-3156.98
-3079.2
-3195.84
-1431.46
-1391
-1496.5
-1544.36
-1288.54
-1187.13
-1420.95
-1311.95
-1137.54
-1208.78
-1211.57
-1295.34
-1175.87
-1133.55
-1172.47
6943.01
22458.1
5496.98
23522.5
4142.41
24369.3
6582.29
37676.8
8097.36
51826.9
8013.81
37675.5
7700.23
31216.6
8012.92
27277.5
4852.9
2980.98
12994.2
7677.96
4771.86
2570.01
14276.7
7084.44
5254.16
3770.72
16632.3
11630.6
3975.28
2831.37
16715.3
12066.9
9371
3944.97
8061.13
3573.45
3676.6
8706.31
32655.7
8864.49
11669.2
3966.41
42172.6
11473.3
10977.3
3823.1
23252.8
7223.52
11914.6
4165.88
20154.7
6416.7
5363.64
2659.57
8084.12
3131.12
5856.81
3172.08
8052.82
3066.23
7503.03
4262.35
6929.7
2986.49
10365.4
3706.64
3571.68
1241.09
11696.4
8042.68
7269.41
5284.06
13294.8
10923.9
7270.94
6296.76
6809.11
4540.66
9500.28
6264.11
4812.61
3521.69
2469.82
2017.59
4705.01
4066.81
2465.65
2372.14
4571.76
2962.38
2362.18
1498.1
6029.57
3260.87
4465.77
5447.44
8170.04
5803.52
6404.87
9262.86
4019.83
1892.7
2646.75
3135.44
2010.1
827.875
1147.29
1162.76
6943.21
12558.1
4736.08
14053
8245.21
12326.3
5889.8
14778.3
9436.45
11213.6
7637.56
14520.1
11602.4
14137.1
8471.46
8083.77
8908.08
14096.6
12712.5
12214.3
12378.6
18002.3
11446
8573.32
7245.89
8081.02
12846.9
14493.9
12882.9
16829.1
16043.3
13244.5
12212.8
16649
15754.4
11484.7
11134.2
15675.5
15226.9
10247.5
7975.71
9240.38
7938.8
9933.41
8708.15
10541.3
9964.55
14533.6
14702.7
9593.32
8207.9
8917.15
8354.5
9032.09
9336.14
10088.7
11095.4
13199.4
15001.6
7845.78
6144.26
5420.28
6945.95
10821.5
13277.3
7533.07
11978.6
4513.8
5995.37
6681.71
5480.89
1272.91
4621.53
680.268
1665.03
3857.74
8083.22
1439.01
2810.98
542.411
3864.86
324.822
1352.95
4396.39
4475.55
4992.23
3048.22
6927.7
5492.87
8149.13
5538.75
962.478
2445.26
2464.38
1365
1390.83
1821.69
1987.68
1494.49
10176.1
6141.81
1918.44
11529.5
6575.85
2144.73
9725.38
6063.23
2030.3
11365.6
6579.07
2139.63
8954.24
5560.27
1817.98
11125.6
6628.96
2208.11
5113.16
2696.01
705.328
6362.59
4161.35
1449.98
7463.3
5145.19
1771.98
8550.39
5495.69
1817.06
11046.1
6833.33
2390.93
6129.75
3370.98
1044.19
5891.06
4213.78
1580.99
6884.51
5081.42
1853.69
8627.58
6030.66
2143.42
11157.2
6894.1
2432.25
296.588
1987.86
2795.77
4055.57
2106.63
2440.43
5310.5
5062.69
579.845
1028.97
618.224
1068.59
485.99
1412.55
869.162
1855.82
3210.14
1577.15
4071.22
2354.45
2182.39
3792.67
3369.66
977.078
5917.91
1482.57
-1792.23
789.451
1831
1384.48
1280.86
1215.6
9960.99
4735.65
2716.33
1742.7
10102.5
4937.27
3408.65
2200.28
9996.49
5326.6
4965.43
3588.06
3529.96
2598.91
1802.06
1744.32
12519.8
11160.7
5911.06
6154.23
13251.8
12460.8
6541.44
6616.85
5363.87
5545.82
10936.5
9203.45
3551.91
3717.59
2026.04
2278.92
4050.45
4031.41
2261.66
2410.61
3170.22
3412.93
1822.45
2196.43
4882.53
3559.49
4922.14
3669.58
7582.71
4735.12
7305.7
5084.2
2972.37
2568.46
3120.71
2377.46
1706.15
1626.53
1986.59
1390.4
12015.3
8791.52
6322.76
6714.36
11935.2
8941.62
6366.49
6682.72
12345.2
9166.29
6458.95
6471.85
13743.6
14575
12754.2
8774.79
5295.08
13825.1
13101.2
12488.2
10639.9
7363.58
12957.2
11938
9764.8
7767.65
5186.83
7861.5
7302.31
7575.92
8988.34
7984.88
7072.27
7598.14
8815.46
8137.25
6834.49
7590.6
8591.13
10448.6
7366.94
10030.6
7060.83
8193.36
6768.17
7959.39
7038.86
6996.02
8428.99
8668.69
7527.31
7887.83
6965.71
6982.78
6469.06
6467.82
6628.64
5565.71
8044.42
7045.99
4797.79
4685.5
2795.78
8981.58
6930.73
6260.9
5013.01
3958.57
2440.06
5752.99
4356.52
4745.09
2252.47
1754.33
1014.49
4933.89
3558.64
1741.42
1439.8
4199.74
1931.64
1665.04
893.197
3485.21
3349.64
3273.77
4929.69
4863.16
4791.78
4215.59
6378.77
3438.4
2351.18
2313.93
3293.4
1080.69
555.279
321.446
672.757
5135.58
2141.01
628.964
6045.49
1557.15
411.812
5117.66
2279.95
696.929
5979.61
1597.31
442.659
4655.61
2200.98
566.716
5807.36
1608.91
374.576
4505.99
2236.08
471.98
4298.02
2050.29
468.1
4455.6
2130.19
570.324
4646.77
2174.86
452.361
5729.53
1560.48
232.69
5778.85
2860.31
739.268
5454.3
2703.54
729.419
5199.52
2568.73
743.811
5188.83
2199.49
532.645
6177.43
1437.09
347
1894.56
687.873
133.711
-226.123
780.623
299.869
80.0725
-46.7433
2018.59
760.99
195.37
-139.59
998.875
422.946
199.669
93.3805
2174.82
849.983
294.081
-10.4199
1712.88
818.79
336.793
87.5388
1303.38
759.415
308.901
14.6833
1236.74
839.842
520.999
325.196
1808.93
817.194
268.206
-182.671
1564.1
693.91
310.908
-191.54
2147.83
842.42
272.622
-143.421
1954.2
767.507
306.353
-323.37
1452.28
765.935
327.473
-48.0108
1202.7
618.286
340.002
12.3781
1078.12
682.452
425.201
273.179
829.758
527.863
364.674
225.405
2447.08
836.95
130.043
-448.677
2468.01
778.499
173.255
-620.005
2446.24
851.05
155.548
-424.297
2388.34
757.193
183.174
-597.812
2402.22
856.366
233.931
-305.011
2226.96
717.565
227.132
-491.641
2102.12
791.283
324.554
-48.5181
2441.02
804.614
323.646
-576.054
1894.08
711.601
329.578
-132.073
1991.86
553.948
156.939
-425.652
802.115
202.387
46.1308
-90.3628
2037.07
586.579
178.164
-401.874
825.852
216.536
59.3217
-73.3974
2058.63
626.88
224.001
-353.119
833.42
234.189
77.9213
-53.4819
1850.67
591.635
258.103
-279.506
803.678
241.528
106.152
-18.4617
1688.75
588.864
288.175
-162.532
711.623
253.839
145.507
30.2611
1184.4
481.459
240.763
-40.6666
664.706
334.388
210.985
117.374
1368.73
486.216
232.401
-112.81
670.624
288.482
178.031
73.9918
952.995
469.352
271.463
52.2468
599.035
356.347
238.118
159.409
672.206
429.878
304.663
198.373
503.07
359.281
263.324
206.113
-20.3422
9.44935
9.84228
7.20014
5.68717
-3.20971
6.16953
5.44142
3.89754