/*--------------------------------*- C++ -*----------------------------------*\
| =========                 |                                                 |
| \\      /  F ield         | OpenFOAM: The Open Source CFD Toolbox           |
|  \\    /   O peration     | Version:  2306                                  |
|   \\  /    A nd           | Website:  www.openfoam.com                      |
|    \\/     M anipulation  |                                                 |
\*---------------------------------------------------------------------------*/
FoamFile
{
    version     2.0;
    format      ascii;
    arch        "LSB;label=32;scalar=64";
    class       volScalarField;
    location    "3";
    object      gradTx;
}
// * * * * * * * * * * * * * * * * * * * * * * * * * * * * * * * * * * * * * //

dimensions      [0 -1 0 1 0 0 0];

internalField   nonuniform List<scalar> 
5712
(
-6389.05
-8164.45
-15206.5
-22174.9
-22621.3
-39051.7
-17435.7
-44388.8
-14207.6
-31199.4
-21230.2
-32274.8
-19067.7
-24965.2
-8378.43
-9569.57
-14208.5
-16272.3
-18407
-18266
-14543
-18015.1
-21424.6
-19270.3
-5173.42
-3862.73
-6439.36
-4308.68
-11978.4
-9525.1
-20491.8
-14784.2
-15908.2
-16508.5
-17607.8
-16694.2
-6090.85
-4814.71
-37745.5
-50548.2
-24386.6
-29948.8
-50877.4
-66009.9
-26352.2
-30160.9
-27924.9
-39470.7
-24350.1
-32304
-14194.5
-22940.3
-2696.97
-906.743
-2845.71
-1023.49
-8150.99
-3281.08
-11216.6
-4114.84
-7941.41
-3053.12
-8515.58
-2725.32
-14547.6
-4621.18
-18786.5
-6327.81
-23221
-11491.9
-21252.6
-12615.2
-21893.9
-14165.3
-19243.7
-14534.5
-16623.9
-9869.37
-16599.9
-8419.17
-21917
-14072.7
-21961.9
-14216.9
-20307.3
-15409.5
-20550.1
-15494.5
-17964.2
-11433.3
-18611.4
-11726.5
-16932.4
-7293.82
-7788.2
-9427.5
-17005.6
-7957.87
-6759.57
-9501.05
-17942.3
-7275.87
-8855.67
-9530.79
-18839
-7460.26
-9648.48
-9978.28
-3496.4
-3811.52
-1168.12
-2251.45
-10274.2
-10849.4
-3932.75
-6888.19
-13156.7
-14666.9
-6242.06
-10573.2
-12196.1
-1224.66
-13264.5
-16183
-8685.98
-891.274
-7512.21
-11830.4
-18971.1
-12859.8
-9579.66
-11530.7
-9966.47
-8504.05
-13285.6
-3391.55
-2821.02
-1927.99
-1917.89
-9597.23
-8178.53
-5709.16
-5445.19
-12030.8
-10328.8
-7462.35
-6719.29
-5885.63
-7453.99
-12076.7
-12473.2
-13719.2
-12508.6
-15447
-13529.3
-10240.6
-8611.01
-8933.97
-9533.44
-11740.7
-9468.22
-10630.2
-7928.7
-9138.33
-6457.5
-10502.3
-6951.68
-10108.1
-4963.82
-8638.96
-9479.17
-12421.5
-16341.6
-13653.8
-19952.2
-6834.89
-7706.48
-8922.85
-3136.28
-7684.82
-14888.7
-7281.58
-15919.7
-13510.5
-24597.7
-13741.9
-26055.4
-5760.7
-12714.8
-5217.39
-13508.7
-7914.77
-6104.13
-10929.1
-4430.43
-8225.09
-1927.13
-9573.78
-1015.94
-7577.79
-9037.2
-11438.4
-5336.42
-6247.15
-10618.2
-10101.8
-6971.84
-2278.86
-2031.39
-1852.62
-1630.18
-1512.01
-1372.98
-6785.81
-5686.4
-5007.04
-4307.68
-3550.09
-3134.95
-8430.63
-7404.34
-6899.27
-5206.06
-4354.46
-4161.37
-6650.65
-6007.52
-5905.54
-10978
-8567.17
-7310.59
-10201.1
-7750.59
-6396.88
-10737.1
-8674.2
-7633.52
-6477.63
-4391.82
-3487.78
-15806.9
-13953.8
-12267.7
-10034.4
-8543.65
-7248.72
-8770.34
-7003.76
-5740.2
-7249.38
-5388.71
-4267.83
-7269.56
-4142.29
-2420.62
-10186.8
-13851.9
-8023.4
-10418.3
-10855.8
-16004.4
-9665.98
-14134.2
-74.8316
-760.546
470.329
-119.097
-2982.93
-3398.7
-1243.79
-687.99
-743.044
-2473.23
-9324.67
-13655.7
-6636.18
-3588.16
-9693.37
-9612.98
-14813.8
-16302.2
553.259
3968.87
-7485.83
-7057.08
-6976.73
-5384.4
-1046.59
-567.3
-660.174
-258.495
-2069.51
-303.549
290.83
800.945
-9216.38
-2510.34
-6186.52
-1689.09
-8840.15
-2734.25
-10682.1
-3490.19
-8752.68
-11861.4
-8102.62
-11591.6
-13849.4
-14732.8
-13226.8
-13981.1
-5725.13
-9565.22
-6590.61
-9485.77
-8583.88
-11185.1
-9457.98
-11318.6
-13773.7
-13750.1
-14422.7
-13826.2
-5770.96
-9279.22
-6267.76
-9469.68
-156.057
-1663.07
-7752.03
-5190.95
412.19
-1246.15
-7185.05
-4613
-587.256
-1889.9
-7939.72
-5637.72
-1036.82
-2156.02
-8007.99
-5859.42
631.926
738.646
-205.648
-70.6635
2762.53
2821.28
102.301
232.267
382.118
1791.45
-1933.97
-1329.1
10173.9
9399.74
5458.86
4060.88
203.19
10344.5
10773.2
4262.75
6237.58
552.875
-10061.2
-8045.04
-7357.53
-7093.03
-4632.19
788.223
763.304
-21.4112
-155.552
2495.92
2569.03
-83.9602
-388.302
2488.78
3198.41
-992.361
-1429.55
5121.4
2409.14
8217.97
5262.03
3596.66
2796.06
4004.04
3576.09
-837.522
-1930.7
-3730.06
-2366.01
-1080.98
1027.57
-1189.07
668.023
-2083.51
-696.399
-2699.6
-3134.12
-5342.68
-4933.54
-10080.4
-6152.97
-8086.71
-8218.15
-12272.6
-9998
-8197.78
-4977.12
-4207.41
-4230.3
-11854.4
-5333.78
-13034.1
-5972.78
-13680.2
-10206.2
-14598.4
-10923.3
-9879.72
-4117.19
-11050.6
-4743.56
-6846.75
-5664.38
-5732.28
-8518.76
-4569
-5229.56
-4954.82
-7903.45
-7835.73
-5653.69
-6444.89
-9753.44
-9392.27
-6144.13
-7865.96
-10083.5
830.855
924.031
1056.29
-18.8972
317.871
366.844
3059.49
3360.58
3400.45
135.123
916.984
941.633
3833.99
4438.89
4618.71
-846.895
872.994
1230.81
1358.28
1187.79
890.682
4022.49
4194.83
3955.79
3287.18
3838.44
3822.17
4064.65
4539.57
4493.85
-1753.01
352.248
537.113
-3414.04
-1905.11
-960.458
1118.79
2403.27
3089.45
1010.81
2699.43
3439.47
345.66
2216.85
2764.02
-2871.8
534.788
953.793
17.048
40.578
60.1085
92.9667
274.294
164.091
141.295
143.397
-23.6724
77.7807
200.02
326.567
438.894
302.123
344.612
390.048
-292.08
21.8912
281.253
575.038
131.503
243.765
337.322
400.178
20.0886
148.572
171.227
174.378
-242.868
-8.71125
134.151
237.995
-1078.93
-226.1
125.523
371.931
-1682.32
-394.914
26.3656
623.611
-777.043
-103.819
208.22
527.136
-1394.67
-303.487
8.68149
549.904
-1136.35
-266.082
146.32
456.132
-1877.58
-467.118
24.5537
730.723
-1258.76
-349.152
128.051
536.464
-2017.16
-532.957
0.43631
764.21
-4.82172
22.1686
50.9405
114.87
26.4736
31.7015
33.0299
105.864
39.7562
78.7229
154.25
307.917
142.141
110.223
100.047
285.704
-497.209
-66.9466
171.348
527.996
-260.904
18.113
134.209
504.666
-157.004
114.995
252.816
526.395
-81.8108
91.9895
118.573
508.966
-1219.5
-237.045
49.9696
709.77
81.3395
46.7183
37.0265
79.1496
170.549
70.2459
38.3812
36.8629
157.367
109.944
85.2584
206.025
431.786
186.301
98.4808
95.7079
58.5849
119.056
119.659
339.774
533.241
260.483
148.399
151.123
-174.867
103.553
150
470.607
388.042
278.897
177.013
192.821
-676.07
-1.28449
94.2632
458.815
56.9952
237.846
168.249
200.372
-1416.54
-149.776
84.4051
533.204
-478.834
55.2613
111.315
189.834
-1119.76
-56.9523
97.6183
498.935
-319.747
135.855
144.991
204.126
-1689.97
-265.548
43.3171
576.79
-626.055
-25.5234
73.2893
177.105
-1894.22
-382.451
-14.4037
569.032
-764.955
-116.123
23.0407
152.49
42.041
19.6541
10.7982
6.77589
5.14729
55.9563
30.4185
17.7938
11.4304
8.73454
100.24
45.7757
25.0937
15.83
12.1117
127.105
68.2427
39.9359
25.767
19.7468
132.668
57.3025
31.0303
19.5556
14.9988
171.395
90.5789
53.1053
34.4371
26.4758
90.3728
46.5361
27.1572
17.6395
13.5685
63.0592
26.9769
14.4758
9.15696
6.97904
134.521
58.7752
32.3263
20.5577
15.702
63.8211
23.9586
12.4508
7.76382
5.89099
142.111
68.6402
39.4217
25.4299
19.5313
60.2697
23.864
12.7671
8.01745
6.07495
102.725
38.1709
19.5259
12.1439
9.22619
60.2799
21.3523
10.8797
6.77667
5.14944
87.6406
23.945
9.90724
5.65678
4.15244
48.2533
11.2455
4.24625
2.33097
1.68116
34.8586
14.7929
7.85347
4.83946
3.65038
25.2447
11.7681
6.52096
4.07025
3.08011
85.2347
37.2601
20.2595
12.646
9.61282
65.2808
31.1053
17.5173
11.0231
8.36551
119.133
45.8353
23.9414
14.7455
11.1792
88.9914
43.0704
24.4987
15.4668
11.8155
108.911
52.9169
30.5819
19.665
15.1282
61.0712
32.9703
19.3468
12.3568
9.52598
56.8764
29.1536
17.1975
11.1615
8.58435
-361.948
-471.111
-832.856
-1159.51
-912.413
-1463.71
-435.14
-1224.54
190.342
-340.289
-777.769
-1240.76
46.657
-23.6087
-1135.72
-1767.62
-1406.63
-1996.95
-574.184
-132.507
-29.7158
-6.53639
-1.63214
-206.281
-88.3363
-12.6753
-3.29657
-1.39878
-1764.5
-405.517
-91.2545
-19.9741
-4.99392
-497.229
-130.828
-31.2767
-6.53479
-1.73362
-2973.19
-684.843
-154.503
-33.923
-8.46194
-782.529
-219.757
-52.5552
-12.0435
-2.99687
-4008.49
-926.153
-209.761
-46.1848
-11.5319
-908.006
-275.536
-68.0544
-15.7876
-3.92437
-5036.91
-1175.4
-268.016
-59.296
-14.8644
-996.854
-332.813
-84.7251
-19.933
-5.01478
-6032.87
-1451.91
-335.644
-74.8688
-18.8456
-1499.49
-456.304
-112.15
-25.6301
-6.38453
-5591.13
-1340.11
-308.409
-68.5127
-17.1937
-1184.9
-389.776
-98.4664
-22.9173
-5.7129
-6243.35
-1505.62
-348.787
-77.9264
-19.6446
-1686.7
-498.138
-120.764
-27.234
-6.76903
-6519.53
-1559.54
-361.856
-80.819
-20.3633
-1744.27
-517.384
-126.619
-26.5303
-6.98027
-525.187
-6731.05
-6147.12
-2230.97
1576.03
2705.79
7564.23
11068.4
1643.25
8098.21
-1575.81
2533.56
2433.59
4797.43
9019.65
12773.1
13678.7
17161.5
5580.23
7227.91
-19657.6
-14276.4
-4943.38
-3935.84
-2839.01
-4074.28
-3747.62
-12195.9
-11881.6
-10077.4
-11078.4
-9262.65
-6608.81
-8530.94
-5751.82
-4869.12
-5955.2
-4089.35
-19713.6
-10399.2
-3774.26
-6403.52
-8566.14
-6022
-6633.86
-4957.21
-3058.2
-4332.42
-4554.74
-4912.99
-19359.7
-12787.7
-12197.7
-8858.55
-8867.82
-9255.31
-4101.12
-5435.71
-6788.22
-14256.9
-12618.6
-10945.4
-10543.4
-9509.3
-9359.84
-6509.92
-5208.18
-4162.26
-2232.58
-4376.53
-3642.52
-2741.58
-1715.53
-588.622
-3520.82
-2953.73
-2227.74
-1387.15
-471.759
-2525.04
-2102.86
-1573.36
-972.898
-329.449
-3647.53
-3059.44
-2303.4
-1429.95
-484.923
-3332.27
-2777.4
-2083.14
-1292.78
-439.176
-7959.66
-6242.99
-5075.66
-4938.58
-5594.62
-6579.83
-4947.55
-3646.83
-3142.37
-2258.03
-6314.77
-3814.36
-2710.74
-1965.03
-984.113
-5727.35
-3917.2
-2669.94
-2009.96
-1218.9
-4334.16
-2728.26
-1728.47
-1235.56
-620.349
-5246.94
-3936.93
-2739.03
-1652.15
-573.516
-5810.01
-3731.3
-2462.55
-1500.18
-573.56
-3772.32
-2240.79
-1342.33
-730.81
-249.467
-4021.65
-3114.52
-2203.51
-1325.64
-449.413
-4761.66
-3562.47
-2437.49
-1426.36
-475.643
-3411.97
-2661.77
-1885.98
-1128.18
-378.207
-13224.4
-10301.8
-8604.25
-8009.61
-8015.79
-7711.12
-5646.25
-4213.82
-2941.88
-1369.84
-3150.78
-2476.67
-1785.59
-1097.43
-380.888
-5444.75
-4374.5
-3228.4
-2028.02
-717.645
-7060.27
-5591.79
-4169.9
-2727.99
-1051.35
-5147.95
-4174.65
-3121.83
-1990.52
-713.236
-5765.21
-4734.41
-3554.52
-2249.95
-790.68
-4326.64
-3551.74
-2647.97
-1652.96
-569.675
-2641.78
-2133.84
-1556.2
-947.795
-319.616
-3821.21
-3156.69
-2348.75
-1449.97
-491.684
-3884.28
-3105.87
-2256.88
-1380.78
-470.758
-4266.29
-3479.31
-2574.72
-1596.12
-547.574
-13679.2
-11589.6
-9989.07
-9289.58
-8519.95
-8961.6
-6508.12
-5145.09
-3953.1
-2095.84
-9101.97
-7325.1
-5725.07
-4381.38
-2208.74
-7019.55
-5386.2
-4130.57
-2881.04
-1206.63
-7441.83
-6004.35
-4543.15
-2994.99
-1144.29
-7274.52
-5535.12
-4217.1
-2929.23
-1212.9
-3534
-2873.08
-2136.45
-1343.21
-470.662
-4801.36
-3979.35
-2977.2
-1850.34
-630.934
-5864.25
-4783.66
-3571.15
-2252.03
-789.298
-5374.65
-10921
-11423.4
-31187.1
-11293.5
-41833.3
-6145.21
-14877.2
-11309.4
-8754.47
-18712.2
-15631.5
-11325.1
-10708.7
-21044.3
-16725.9
-3950.75
-2930.21
-7623.71
-5228.49
-8859.52
-6670.44
-23697.5
-17480.6
-14615.8
-11127
-15015.8
-8945.73
-1164.63
-3602.58
-38927.2
-51023.8
-23573.2
-29805.1
-51548.2
-66276.2
-25455.2
-29943.9
-28964.5
-40002.5
-23616.7
-32246.6
-15606.8
-23605.5
-1878.98
-494.459
-3292.89
-1122.45
-6391.53
-2845.17
-12946.7
-4669.11
-2822.89
-1594.59
-7049.89
-2212.53
-14580.9
-4574.74
-18960.6
-6377.13
-16048
-8304.07
-18430
-10980.2
-14712.3
-10528.9
-16444.4
-12792
-14650.4
-8578.57
-11616
-5982.24
-20824.6
-13333.5
-21688.5
-14014.3
-19194.4
-14652.2
-20253.1
-15288.1
-17236.1
-10834.1
-18438.9
-11560.8
-15986.4
-7033.73
-6946.92
-9123.36
-14317.5
-7184.2
-5191.82
-8945.86
-17688.3
-7212.47
-8463.51
-9381.07
-18808.8
-7456.09
-9537.82
-9934.4
-1082.44
-969.393
-259.67
-1136.6
-4394.65
-4532.36
-2734.01
-5397.12
-2443.2
-3046.78
-4231.65
-7984.92
-11872.6
-9606.63
-9102.54
-11300
-7394.28
-7579.94
-8057.38
-6674.01
-13069.3
-11225.1
-11293
-9372.43
-6447.03
-5491.65
-12050.5
-1043.78
-784.655
-579.077
-649.066
-4082.59
-3251.05
-3439.01
-3030.57
-572.874
520.271
-4058.2
-3186.18
-10082.6
-10720
-9395.24
-8601.66
-6907.56
-5023.54
-9001.88
-7184.29
-7962.16
-6240.26
-11432.5
-11681
-9719.53
-7668.37
-7144.58
-4905.93
-6256.15
-4002.82
-9270.36
-5667.91
-9164.96
-5087.2
-8164.78
-9337.68
-12923.4
-17231.4
-13628.9
-19907.3
-6211.79
-7420.07
-7553.61
-2910.89
-7515.48
-14729.1
-7242.34
-15861.2
-13455.2
-24681.8
-13720.7
-26032.8
-5527.45
-12520.2
-5162.42
-13449.9
-7446.83
-5908.7
-10732.5
-4380.82
-7193.96
-1828.52
-9241.29
-1254.13
-7391.23
-8909.75
-11349.9
-5303.06
-6198.31
-10577.7
-10078.5
-6956.35
-776
-722.159
-521.382
-602.8
-2482.03
-1813.95
-2234.34
-2032.25
1072.8
606.138
-2620.89
-2918.44
-10626.2
-10107.3
-7612.36
-6605.08
-3993.36
-3383.76
-5634.46
-4662.14
-5245.59
-3839.12
-18182.1
-15987.3
-7872.64
-6760.81
-5917.88
-4560.85
-4851.44
-3165.39
-5128.82
-2271.63
-5572.81
-9152.79
-4882.43
-9233.71
-8171.48
-10249.2
-9137.73
-12473.5
-1002.08
-744.869
-789.918
-681.038
-3639.4
-2639.68
-2988.63
-1729.07
-1486.03
-1766.68
-8327.75
-8967.03
-4686.64
-4226.47
-9211.88
-9510.22
-14026.4
-16085.3
279.046
3760.06
-7345.16
-7099.18
-6902.92
-5445.25
-1095.89
-1002.81
-1177.71
-977.116
-1838.88
-1312.51
-714.913
-628.855
-8163.37
-3931.14
-6927.5
-3298.55
-9169.62
-3703.37
-10826.7
-3889.02
-5474.63
-10277.3
-7023.63
-10756.7
-8599.07
-11537.5
-11218.4
-12502.3
-5369.93
-9402.82
-4891.45
-9357.86
-8157.86
-10848.9
-9334.11
-11230.8
-12936.2
-13135.8
-14184.8
-13660.3
-5714.81
-9247.43
-6267.21
-9471.89
-804.173
-2541.26
-8208.25
-5885.73
-787.086
-2627.3
-8121.5
-5633.25
-1074.84
-2510.28
-8197.85
-6065.73
-1238.84
-2406.54
-8086.2
-6007.51
-1104.66
-1223.14
-1048.21
-1151.86
-2196.95
-2270.44
-1569.5
-1731.6
-8500.56
-7890.71
-4175.95
-4274.12
-3854.98
-5261.08
-4202.39
-551.269
-2105.67
-1379.64
-1468.5
-3677.99
2450.42
-1190.32
-13642.4
-11761.9
-10826.5
-9607.06
-6316.07
-1236.85
-1129.09
-1311.9
-1668.41
-2268.35
-1797.76
-2236.71
-2983.81
-8277.15
-8233.82
-4734.91
-6191.87
-5069.12
-6723.15
-3252.27
-5185.03
-4999.21
-5456.84
-1401.38
-1753.41
-3356.43
-4960.81
-9651.32
-7962.81
-7744.49
-5723.83
-6927.88
-4990.62
-6350.52
-4730.51
-4968.26
-5533.06
-8505.73
-8437.59
-11406.5
-7430.99
-10424.4
-11230
-13037.2
-11009.8
-9798.98
-6223.94
-7275.93
-7311.52
-12383.1
-6131.54
-13172.5
-6168.46
-13899.8
-10863.7
-14643.9
-11065.9
-10624
-4902.47
-11261.8
-4954.31
-8379.68
-6805.72
-7106.6
-9813.82
-7193.48
-7731.39
-6927.44
-9987.51
-8642.56
-6402.73
-7230.49
-10583.3
-9645.34
-6381.02
-8120.86
-10322.4
-929.078
-796.087
-1210.78
-871.704
-1516.25
-1771.65
-1821.51
-1293.42
-8097.07
-7087.12
-4191.63
-1852.86
-7901.65
-7510.99
-6240.07
-5611.79
-5297.54
-4523.49
-2033.2
-2043.41
-4734.18
-2098.09
-8659.77
-7422.43
-4981.39
-3899.91
-3969.04
-2415.65
-3056.33
-1260.54
-4963.96
-141.337
-260.025
-121
-41.8009
25.7065
-244.208
-155.565
-63.0419
7.59151
-702.43
-314.903
-24.8101
191.016
-634.002
-372.652
-76.7346
109.847
-1147.92
-465.74
12.0587
439.352
-1130.36
-563.75
-205.157
6.32773
-772.651
-379.551
-187.351
-61.8526
-591.895
-248.912
-30.2475
126.171
-1714.92
-609.625
-135.907
171.119
-2055.5
-589.736
-85.8799
598.02
-1649.23
-586.873
-98.8653
300.393
-1867.76
-530.833
-112.53
550.114
-1599.75
-561.028
-45.7432
337.161
-2129.96
-607.667
-65.6127
692.396
-1449.4
-474.81
44.7001
483.33
-2109.69
-586.794
-34.6516
749.6
-241.689
-99.205
-16.1366
81.7801
-208.627
-75.7804
-28.8925
79.348
-623.056
-259.309
-30.5493
208.596
-523.803
-199.656
-78.2216
204.055
-1233.51
-432.903
-15.5503
459.692
-1122.01
-377.7
-87.4424
425.011
-1365.19
-513.157
-107.141
332.966
-1034.77
-358.297
-117.696
475.444
-1883.73
-530.335
-98.2321
752.231
-149.45
-56.5438
-17.87
50.3736
-66.0974
-39.3538
-19.3691
-1.11752
-451.317
-163.623
-68.3227
122.294
-220.95
-117.926
-65.3904
-11.4617
-803.373
-272.473
-103.716
221.926
-456.803
-207.425
-103.463
-11.5295
-1224.42
-393.056
-133.96
334.092
-809.522
-306.864
-138.086
-6.49272
-1618.91
-473.14
-197.383
290.86
-1100.08
-372.295
-177.788
-28.3793
-2174.41
-614.887
-211.008
364.838
-1099.95
-347.009
-145.221
14.7051
-2091.51
-603.089
-241.463
305.551
-1212.94
-386.269
-171.198
-13.198
-2151.38
-563.496
-149.478
469.975
-989.266
-279.437
-90.4931
70.336
-2046.06
-483.356
-80.4426
532.362
-879.27
-199.077
-31.0311
117.562
-9.51479
-13.9881
-10.3078
-7.19798
-5.66568
-35.9655
-26.8617
-17.7346
-12.0299
-9.40953
-19.4742
-31.9151
-23.5501
-16.3593
-12.7936
-77.7134
-59.4429
-39.3019
-26.5711
-20.7375
-14.2505
-38.4579
-28.8869
-20.086
-15.6722
-101.217
-78.176
-51.4201
-34.5788
-26.9082
-49.0102
-39.1923
-25.9006
-17.3973
-13.538
-8.46945
-17.0962
-12.8463
-8.9127
-7.026
-26.4895
-41.6339
-29.9798
-20.6022
-16.1418
3.51379
-14.2034
-11.2916
-7.92944
-6.25294
-62.6416
-56.7371
-37.9154
-25.5718
-19.906
-3.83493
-16.1795
-12.0505
-8.36648
-6.59695
9.73749
-20.4437
-16.966
-11.9943
-9.46346
7.76952
-11.4992
-9.50878
-6.69862
-5.28516
45.1026
-2.97021
-6.91896
-5.52541
-4.56012
30.6423
0.0279914
-2.77508
-2.34236
-1.97015
-1.89047
-9.87303
-7.65672
-5.42863
-4.29384
-8.64807
-9.57057
-6.68245
-4.63419
-3.64747
-14.9241
-27.6217
-20.1588
-14.0493
-11.03
-29.2556
-27.0903
-18.2867
-12.5488
-9.84784
4.85928
-30.0975
-23.539
-16.6434
-13.0996
-47.4368
-39.3803
-26.0317
-17.7793
-13.8714
-56.8937
-46.9544
-30.6791
-20.6694
-16.0458
-51.2379
-32.8531
-20.7615
-14.0034
-10.8372
-38.8922
-27.1253
-17.1834
-11.4588
-8.89722
-68.533
-202.084
-133.325
-517.524
-94.9151
-717.793
171.715
-658.071
426.254
-138.138
-772.675
-1242.12
54.7171
-104.87
-1136.46
-1763.73
-1407.29
-1995.32
-561.427
-132.232
-29.8459
-6.58242
-1.64543
-151.987
-82.1132
-11.4784
-3.13512
-1.39236
-1735.48
-405.34
-91.7185
-20.1188
-5.03491
-366.369
-110.782
-28.229
-6.06394
-1.65804
-2928.63
-683.55
-154.992
-34.1063
-8.51678
-633.038
-196.275
-48.8793
-11.4804
-2.9009
-3955.03
-922.564
-209.832
-46.2999
-11.575
-796.78
-256.399
-64.8402
-15.2609
-3.82876
-4993.34
-1170.77
-267.658
-59.3118
-14.885
-952.025
-322.086
-82.5877
-19.5434
-4.93881
-6016.54
-1448.44
-335
-74.7653
-18.8297
-1498.14
-455.067
-111.759
-25.538
-6.36225
-5567.73
-1335.76
-307.747
-68.433
-17.189
-1179.02
-385.456
-97.3361
-22.6798
-5.662
-6232.74
-1503.26
-348.307
-77.8411
-19.6289
-1685.88
-497.737
-120.636
-27.2044
-6.76182
-6515.91
-1558.73
-361.686
-80.7875
-20.3574
-1744.04
-517.301
-126.594
-26.5254
-6.97898
-551.662
-6662.4
-5910.35
-2200.02
-1552.6
-938.678
-3662.2
-2687.68
-6255.99
-5848.27
-2968.55
-2245.54
-427.576
-651.324
-1110.62
-1789.51
-2656.28
-3618.99
-307.414
-656.599
-1357.96
-2346.82
-3500.93
-4646.36
-326.104
-150.42
-557.204
-382.3
-1020.27
-850.15
-1690.15
-1575.08
-2406.68
-2324.44
-3113.61
-2827.98
-4425.76
-4931.33
-5289.53
-7750
-8581.47
-9396.47
-5566.8
-6046.52
-5946.76
-5365.99
-4545.89
-3942.03
-386.453
-327.588
-248.97
-155.519
-52.8772
-588.361
-498.429
-378.585
-236.38
-80.3527
-1002.63
-848.785
-644.304
-402.129
-136.672
-1614.05
-1365.09
-1035.41
-645.938
-219.503
-2392.42
-2020.48
-1530.89
-954.602
-324.38
-3251.58
-2739.79
-2072.93
-1292.26
-439.301
-277.74
-235.346
-178.801
-111.656
-37.9566
-592.877
-502.029
-381.165
-237.926
-80.8671
-1225.44
-1037
-786.939
-491.074
-166.895
-2115.85
-1788.82
-1356.51
-846.237
-287.587
-3151.83
-2660.96
-2016.02
-1257.33
-427.349
-4173.68
-3516.55
-2661.32
-1659.88
-564.518
-294.82
-249.962
-190.007
-118.705
-40.3661
-135.992
-115.302
-87.6449
-54.7541
-18.6193
-503.487
-426.646
-324.139
-202.418
-68.816
-345.48
-292.788
-222.462
-138.93
-47.2325
-921.392
-780.288
-592.475
-369.839
-125.707
-767.869
-650.374
-493.882
-308.307
-104.792
-1524.99
-1290.19
-978.791
-610.634
-207.497
-1421.22
-1202.39
-912.102
-568.944
-193.307
-2168.36
-1831.66
-1387.77
-865.118
-293.888
-2094.05
-1768.45
-1339.28
-834.445
-283.358
-2797.6
-2356.61
-1781.77
-1109.69
-376.941
-2540.08
-2138.07
-1614.51
-1004.05
-340.688
-3959.7
-3324.49
-2511.25
-1566.75
-533.676
-4377.89
-3654.03
-2756.22
-1726.11
-591.876
-4626.42
-3823.67
-2884
-1827.01
-639.022
-6577.94
-5352.11
-4063.82
-2661.14
-989.56
-6894.15
-5475.6
-4218.09
-2932.84
-1237.39
-7230.52
-5647.18
-4398.7
-3194.18
-1466.21
-4983.26
-4186.71
-3164.96
-1975.8
-673.148
-5383.62
-4504.83
-3402.52
-2129.87
-728.769
-5248.56
-4365.97
-3297.32
-2077.28
-717.929
-4662.13
-3842.57
-2907.98
-1859.55
-658.823
-3825.38
-3100.96
-2362.16
-1561.55
-588.227
-3200.29
-2548.13
-1956.2
-1341.66
-539.601
-450.095
-719.922
-1228.25
-1960.42
-2887.62
-3897.76
-339.302
-753.478
-1521.74
-2575.57
-3779.82
-4936.8
-347.907
-169.389
-623.853
-441.232
-1135.75
-955.375
-1861.58
-1735.91
-2652.36
-2598.55
-3427.17
-3238.96
-4712.44
-5194.79
-5529.54
-7892.7
-8642.98
-9415.35
-5810.54
-6188.37
-5966.52
-5287.55
-4439.07
-3893.7
-406.919
-345.056
-262.342
-163.921
-55.7431
-650.755
-551.733
-419.43
-262.066
-89.1193
-1109.79
-940.522
-714.752
-446.51
-151.834
-1770.21
-1499.25
-1138.82
-711.288
-241.867
-2604.71
-2203.84
-1673.01
-1044.81
-355.331
-3509.39
-2964.52
-2248.76
-1404.74
-478.064
-306.718
-260.067
-197.716
-123.538
-42.0093
-680.965
-577.256
-438.788
-274.151
-93.2282
-1374.63
-1164.69
-884.974
-552.826
-187.989
-2324.83
-1968.33
-1494.87
-933.661
-317.505
-3407.77
-2882.02
-2187.38
-1366.12
-464.681
-4442.21
-3750.58
-2844.4
-1777
-604.886
-314.614
-266.839
-202.913
-126.807
-43.1287
-153.204
-129.963
-98.8452
-61.78
-21.0142
-564.063
-478.349
-363.718
-227.289
-77.3006
-399.005
-338.434
-257.375
-160.852
-54.7079
-1026.53
-870.226
-661.486
-413.286
-140.544
-863.65
-732.281
-556.712
-347.852
-118.295
-1681.61
-1424.73
-1082.49
-676.155
-229.918
-1568.37
-1329.02
-1009.87
-630.804
-214.492
-2393.78
-2026.32
-1538.61
-960.847
-326.728
-2345.81
-1986.11
-1508.16
-941.732
-320.185
-3087.68
-2609.57
-1979.73
-1236.32
-420.572
-2919.61
-2468.33
-1872.43
-1168.76
-397.385
-4228.53
-3562.56
-2700.48
-1689.38
-576.268
-4631.18
-3884.42
-2944.11
-1850.47
-635.678
-4866.69
-4050.81
-3075.9
-1957.9
-686.244
-6746.95
-5532.76
-4232.79
-2787.21
-1039.25
-6991.77
-5592.05
-4336.83
-3030.39
-1281.51
-7266.95
-5692.22
-4446.2
-3234.98
-1485.7
-5211.9
-4389.31
-3326.13
-2080.33
-709.478
-5522.01
-4632.74
-3508.46
-2200.85
-753.941
-5277.6
-4401.94
-3334.08
-2105.68
-728.897
-4602.6
-3803.05
-2887.22
-1852.46
-658.168
-3738.43
-3035.41
-2319.58
-1540.38
-583.225
-3160.54
-2517.46
-1935.7
-1331.18
-537.09
-19593.1
-14330.1
-5313.73
-4340.64
-3296.09
-4655.81
-4228.59
-12924
-14608.4
-11584.2
-13368.9
-8045.98
-11386.2
-6183.68
-6444.31
-4730.6
-20355.3
-11366.7
-4450.18
-7283.92
-9404.65
-6515.72
-7280.16
-5523.24
-3411.71
-4974.24
-5448.25
-5603.06
-19235.4
-12979
-12830.4
-9242.48
-9297.62
-9770
-4760.99
-6064.82
-7405.36
-14272.7
-12697.4
-11067.3
-10710.9
-9669.23
-9455.22
-6610.56
-5307.04
-4245.83
-2269.67
-4734.77
-3970.26
-3010.12
-1893.83
-651.539
-3899.63
-3288.4
-2493.04
-1558.61
-531.2
-2958.11
-2490.65
-1884.63
-1175.94
-400.182
-4190.07
-3537.17
-2680.89
-1673.27
-569.12
-3789.5
-3188.08
-2413.54
-1508.61
-514.42
-9655.23
-8232.89
-7008.02
-6581.05
-6810.37
-11072.7
-9752.39
-8078.92
-6616.59
-4027.35
-8420.29
-5983.03
-4605.13
-3300.7
-1477.74
-10085.6
-8480.9
-6775.83
-5072.92
-2497.35
-6843.89
-5531.37
-4120.47
-2599.46
-912.739
-8991.38
-6752.49
-4994.16
-3216.04
-1192.95
-5383.65
-4422.09
-3308.78
-2073.43
-715.772
-5589.8
-4578.41
-3421.38
-2145.09
-741.728
-4152.33
-3430.38
-2570.08
-1605.13
-550.359
-14585
-11950.8
-10265.6
-9461.32
-9061.47
-8923.57
-6922.53
-5367.11
-3779.95
-1708.01
-3867.18
-3178.62
-2388.77
-1510.05
-528.952
-6355.19
-5254.18
-3979.54
-2541.85
-903.209
-7991.52
-6534.18
-5003.64
-3318.58
-1275.36
-5667.6
-4684.81
-3564.26
-2297.89
-825.978
-6405.55
-5333.11
-4054.53
-2587.53
-911.621
-4889.1
-4078.97
-3088.24
-1949.04
-674.931
-3026.02
-2521.71
-1897.71
-1184.72
-404.872
-4444.12
-3728.24
-2817.47
-1760.61
-600.902
-4794.05
-3973.17
-2988.26
-1874.76
-646.42
-4957.4
-4131.02
-3120.81
-1963.76
-678.199
-13819.2
-11892.5
-10397.4
-9763.26
-9002.77
-9254.14
-6819.57
-5445.54
-4197.84
-2208.29
-10030
-8327.9
-6685.05
-5139.87
-2558.52
-7477.58
-5867.83
-4573.93
-3212.06
-1337.08
-7931.79
-6513.19
-5005.5
-3331.34
-1275.06
-7900.33
-6184.08
-4814.58
-3372.74
-1390.43
-4185.71
-3479.89
-2640.4
-1681.22
-590.964
-5409.99
-4536
-3432.5
-2151.64
-736.823
-6497.02
-5392.99
-4091.53
-2608.51
-917.961
-507.184
-1433.52
-2259.72
-3027.05
-3749.85
-4422.27
-2544.82
-6845.93
-6533.54
-2502.01
-8724.45
-7319.1
-8769.27
-9733.12
-2300.97
-1486.81
-5344.47
-3110.73
-10213.3
-7217.51
197.245
-2069.51
-5720.49
-5388.11
-2021.77
-7445.16
-5995.88
-7382.16
-8337.32
-1906.75
-884.723
-4590.99
-1645.08
-8502.93
-4340.58
1450.47
-1519.78
-4373.94
-4113.75
-1491.88
-5914.97
-3647.38
-6028.47
-6706.25
-1444.02
-804.896
-3267.6
-1706.14
-6830.64
-1783
1584.6
-1127.99
-3409.25
-3278.39
-1149.39
-4562.85
-2261.67
-5047.09
-5961.74
-1093.26
-844.038
-2404.85
-1720.41
-6047.32
-412.948
1190.3
-918.143
-2909.42
-2844.81
-976.66
-3696.42
-1891.31
-4553.91
-5805.96
-871.296
-916.62
-1744.86
-1650.35
-5298.28
-195.403
111.864
-815.191
-2611.3
-2624.37
-889.165
-3437.83
-2139.37
-4235.46
-5560.29
-678.113
-719.702
-1455.92
-1619.71
-5213.62
-955.265
-461.633
-1383.54
-3395.19
-4873.56
-1881.21
-5503.87
-9584.94
-7166.74
-10347.3
-1029.39
-747.98
-3917.92
-2475.42
-1296.51
-9301.78
-4869.31
-1293.89
-3182.41
-4306.31
-1643.73
-5116.57
-8710.62
-6505.56
-8865.13
-1060.36
-672.408
-4085.62
-2366.75
-474.555
-9167.93
-3719.88
-1149.91
-2837.59
-3567.05
-1335.45
-4703.08
-7874.61
-5593.08
-7882.41
-955.498
-775.829
-3547.49
-2495.3
-669.726
-7503.28
-3602.4
-1008.55
-2588.38
-3001.06
-1100.53
-4434.91
-7241.6
-5036.7
-7234.11
-891.057
-799.507
-3332.93
-2641.22
-440.218
-7040.19
-3698.94
-921.502
-2349.36
-2692.68
-973.695
-4064.73
-6716.73
-4636.79
-6925.79
-843.994
-862.609
-3065.73
-2877.65
-557.378
-6827.93
-3824.51
-861.303
-2108.9
-2512.31
-902.261
-3770.57
-6656.66
-4331.9
-6723.41
-877.855
-989.792
-2745.14
-2739.65
-798.739
-7014.69
-4244.47
5809.49
7333.91
15241.1
22248
22651.1
39037.7
17443.9
44391.7
14220.1
31205.1
21273.5
32277
19081.2
25043.3
7204.23
8160.58
14220.6
16275.1
18402.3
18263.6
14544.4
18013
21421.9
19267.4
4771.12
3596.04
5859.09
3934.4
11979.9
9498.28
20538.8
14804.9
15886.2
16513.1
17600.3
16695.1
6089.69
4794.79
37750.7
50554.8
24387.2
29950.7
50883.8
66017.4
26352
30161.9
27928.8
39476.3
24349.6
32306.6
14199.9
22945.4
2545.27
869.916
2616.43
951.662
8123.6
3268.37
11220.6
4115.64
7936.45
3050.15
8503.73
2720.73
14548.4
4621.19
18789.1
6328.69
23220.7
11491
21251.1
12614.1
21891.4
14163.2
19241.3
14532.6
16621.6
9868.23
16599.3
8418.2
21916.5
14071.9
21961.9
14216.1
20306
15408.1
20549.4
15493.3
17963.7
11432.6
18611.8
11726
16929
7292.69
7787.05
9427.37
17003.1
7956.78
6758.26
9500.76
17942.2
7275.9
8855.16
9530.91
18840.2
7460.75
9648.26
9978.54
3285.94
3542.99
1121.12
2115.99
10228.1
10809.7
3911.67
6857.51
13148.7
14658.5
6238.42
10567.3
12196.2
1225.5
13263.7
16179.9
8684.6
892.187
7512.49
11829.7
18967.5
12857.7
9578.37
11529.8
9965.27
8502.11
13284.9
3098.45
2551.08
1743.37
1756.59
9617.14
8196.03
5756.51
5474.48
12024.2
10326.1
7459.83
6718.77
5885.81
7453.92
12076.6
12473
13718.3
12507.8
15443.8
13527.6
10239.6
8610.92
8933.38
9533.17
11740.1
9468.02
10629.3
7928.34
9137.05
6456.98
10502.1
6951.8
10107.5
4963.76
8638.18
9478.95
12420.5
16341
13652.6
19951.4
6834.33
7706.44
8922.32
3136.27
7684.1
14888.5
7280.88
15919.6
13509.4
24596.9
13740.9
26054.7
5760.23
12714.9
5216.95
13508.8
7914.54
6104.22
10929.4
4430.63
8224.63
1927.18
9574
1016.21
7577.73
9037.38
11438.8
5336.64
6247.05
10618.4
10102.2
6972.1
2029.98
1822.66
1686.94
1492.83
1393.74
1277.06
6809.21
5694.68
5006.55
4333.83
3561.95
3138.08
8430.65
7405.1
6900
5207.17
4356.82
4163.81
6650.67
6007.69
5905.75
10977.9
8567.37
7310.87
10200.9
7750.83
6397.26
10736.8
8674.8
7634.31
6478.13
4392.94
3489.06
15806.7
13954
12268.1
10034.3
8543.73
7248.94
8770.19
7003.88
5740.49
7249.25
5388.89
4268.18
7269.67
4142.61
2421.07
10162.1
13836.2
7996.46
10404.7
10844.2
15995.7
9652.11
14126.5
109.374
664.114
-392.271
75.502
2982.54
3470.49
1245.22
765.945
718.799
2448.52
9309.01
13636.2
6619.3
3575.68
9686.47
9609.94
14809.8
16300.3
-558.917
-3970.69
7476.83
7052.91
6971.52
5382.43
916.096
516.277
557.742
221.78
2123.74
314.36
-231.07
-784.004
9205.78
2508.83
6180.34
1689.24
8833.72
2732.74
10678.7
3489.14
8743.18
11856.6
8095.17
11587.8
13842.9
14729
13221.8
13978
5718.35
9561.61
6582.27
9481.43
8579.33
11182.5
9455.5
11316.8
13770.5
13748
14420.7
13824.6
5766.75
9276.64
6265.55
9467.96
152.442
1662.6
7749.43
5189.95
-416.454
1245.45
7182.2
4611.98
584.491
1889.22
7937.7
5636.81
1035.35
2155.55
8006.6
5858.73
-600.483
-698.246
188.911
57.5261
-2738.84
-2795.11
-98.7159
-221.497
-380.855
-1790.14
1933.49
1328.72
-10173.8
-9398.96
-5459.17
-4061.1
-203.368
-10343.4
-10772.1
-4262.72
-6236.49
-552.881
10059.2
8042.09
7354.59
7090.68
4631.2
-757.741
-729.118
-6.08796
119.729
-2464.62
-2540.93
109.428
412.03
-2487.41
-3196.05
991.985
1428.8
-5121.2
-2409.16
-8217.71
-5261.98
-3596.98
-2796.16
-4003.6
-3575.35
837.183
1930.16
3729.14
2365.66
1079.65
-1027.95
1187.89
-668.317
2082.71
696.226
2699.06
3133.63
5340.62
4932.57
10078.3
6151.85
8085.08
8217.3
12270.8
9996.98
8195.8
4976.12
4205.58
4229.39
11852.7
5332.81
13032.8
5971.99
13678.8
10205.3
14597.2
10922.5
9878.08
4116.35
11049.3
4742.87
6845.27
5663.51
5731.39
8517.88
4567.6
5228.74
4953.97
7902.58
7834.48
5652.88
6444.08
9752.55
9391.21
6143.46
7865.23
10082.7
-795.866
-863.014
-983.739
-12.7216
-315.148
-356.866
-3028.55
-3343.35
-3388.48
-105.53
-901.15
-930.762
-3830.95
-4436.04
-4616.69
845.479
-872.478
-1230.42
-1358.25
-1187.67
-890.56
-4022.44
-4194.61
-3955.57
-3286.99
-3838.05
-3821.8
-4063.59
-4538.25
-4492.69
1752.29
-352.218
-536.934
3413.83
1905.19
960.65
-1118.92
-2403.1
-3089.2
-1010.86
-2699.16
-3439.12
-345.584
-2216.44
-2763.55
2871.3
-534.822
-953.716
-13.2776
-35.9055
-54.164
-83.5602
-255.918
-152.192
-130.744
-131.922
24.1104
-77.5586
-200.223
-328.021
-433.998
-300.257
-343.332
-389.21
292.058
-21.886
-281.199
-574.875
-130.88
-243.558
-337.263
-400.114