/*--------------------------------*- C++ -*----------------------------------*\
| =========                 |                                                 |
| \\      /  F ield         | OpenFOAM: The Open Source CFD Toolbox           |
|  \\    /   O peration     | Version:  2306                                  |
|   \\  /    A nd           | Website:  www.openfoam.com                      |
|    \\/     M anipulation  |                                                 |
\*---------------------------------------------------------------------------*/
FoamFile
{
    version     2.0;
    format      ascii;
    arch        "LSB;label=32;scalar=64";
    class       volScalarField;
    location    "3";
    object      gradTy;
}
// * * * * * * * * * * * * * * * * * * * * * * * * * * * * * * * * * * * * * //

dimensions      [0 -1 0 1 0 0 0];

internalField   nonuniform List<scalar> 
5712
(
11352.6
6545.29
18428.3
12065.1
20087.1
14858.8
31562.6
39051.8
41461.9
50672.9
26801.8
23268.9
17033.2
13484.1
8544.41
5777.03
19125.5
19638.5
16441.9
19358.8
25825.8
23150
29725.1
24140.5
8040.09
5819.27
4508.9
3346.93
9645.3
7871.5
5832.14
4700.94
17387.6
18118.8
17826.5
15163.9
13983.1
10851.6
10894.5
12354.8
17577
17469.4
36740.6
37964.9
26120.9
26875.8
14809.6
12490.6
16187.6
11555.9
7529.32
7713.93
6101.6
8341.16
3187.07
3786.61
8379.68
11243.8
4973.27
5746.85
9334.24
15348.8
6447.71
10437.5
2466.48
6228.13
2051.78
4658.91
17380.1
21447.5
17845.5
21303.1
21288.3
21546.9
21587.5
21211.1
15132
20470.2
15631.2
20253.9
17537.2
21124.9
17508.5
21058.4
21710.9
20902.6
21608.2
20684.5
13954.6
20538.2
13457.4
20602
16872.1
19620.6
21318.4
29479.5
17850.8
22525.7
21108.5
31849.1
16009.2
17334.1
21420
28428.9
15844.5
16251.6
21659.3
28256.9
4851.15
6279.31
12317
21214.4
6072.32
6851.86
15989.8
24343.5
7650.56
7710.36
20454.2
27524
23895.9
25866.8
20019.7
19141.8
27220.4
26120.9
24516.4
20478.7
17616.8
30908.2
23757.7
23320.5
20612.2
20216.5
35636.3
1909.31
2280.95
4035.7
8947.26
2728.31
3056.86
5652.35
10179.1
4118.4
3477.57
7780.3
11882
26043.5
26056.4
23363.1
23288.3
19788.2
18409.8
14888.6
13301.7
10335.1
14123.7
23622.5
23081
23662.8
23523.2
20401
19300.9
16707.4
15067.1
11063.3
14387.8
23321.4
26353
23216.2
26940.2
22672.4
23618.2
22085.7
23703.7
21044
21447.9
20884.5
20850.5
23015.9
27030
22892.2
26983.8
21413.2
23953.2
21216.9
23875.2
21125.1
21401.4
21109.4
21380.5
17594.7
16742.3
11303.5
12512.4
17456.6
16277.5
11114.8
12486.3
17855.6
16711.1
11560.3
12600.5
17931
16549.1
11924.9
12625.8
1591.46
1113.17
791.278
944.015
675.801
635.041
2199.76
1377.24
1068.47
1881.63
1550.31
1364.08
2615.81
2277.1
2326.27
3329.9
2791.4
2541.04
25358.7
23372
21905.6
23185.3
21902.7
20782.1
16553.1
15665.2
15186.6
11107.2
9880.74
9374.82
5059.12
3850.06
3314.27
22827.8
21598
20425.9
23242.1
21644.3
20305.1
17082.4
15048.8
13873
11059.7
9110.81
8323.35
5393.57
3843.72
3137.34
26300.2
25876.7
28546.3
25737.4
29388.7
25777.5
35361.8
27044.8
20436.6
20866.1
20138.1
18735.8
22943.8
21716
22455.5
19228.1
22189.7
22130.7
20535
22099.3
27544.7
24571.5
27038.7
27414
29290.5
30251.8
22475.8
23304.9
20192.6
19590.2
24548.9
25142.5
16081.4
8401.22
14945.5
9338.34
16312.5
8471.82
14876.6
9261.88
16136.1
8523.27
14876.5
9673.16
14435.2
10135.4
14591.7
10048.3
20812.8
17921
20587.6
17833.8
22929.8
20816.2
23053.5
20544.2
20182.9
14920.7
21173
14779.2
20974.5
17711.4
21205.8
17497.8
23575.4
20333.8
23558
20056.1
19915.3
14934
19822.4
14832.9
13183.8
8540.15
11757
7155.92
12333.1
7617.15
11328.8
6650.64
13474.3
9101
11925.8
7385.57
13472.7
9453.7
11884.6
7435.76
2433.67
1211.31
4257.65
1972.24
2612.97
1534.15
4551.18
2477.86
3263.83
2414.33
5090.87
3457.2
13075.7
20210.1
9358.11
8928.99
5987.81
19887.2
13913.7
8107.85
8123.85
4833.22
20572.9
16282.9
12969.4
10010.9
5761.71
592.493
446.916
854.333
494.496
928.053
628.583
1480.73
1102.95
1741.45
1418.08
2459.03
1937.99
20371.6
20071.3
13928.6
13683.4
9067.95
9472.15
7598.26
7289.21
4055.27
3295.18
19017.1
17611.9
14874.8
13399.7
11645.9
10706.8
8778.78
8279.5
5071.34
5333.8
15149.4
12624.9
15188
12249.4
18036.7
15254.9
17925.8
14939.2
12826.9
10782
12475.6
10880.6
15156.8
12014.3
15052.7
11983.8
17820.3
15164.3
17632.5
15100.5
13037.7
10579.4
13010.9
10722.4
9941.52
8776.96
6137.09
6922.63
9598.01
8625.75
5822
6579.79
10367.2
8945.21
6300.24
7375.16
10631
8956.17
6576.31
7491.75
2135.55
1899.71
1579.13
9596.89
5069.09
4133.48
2044.55
2051.71
1831.02
10281.4
5938.74
5032.65
2777.77
3165.27
3263.95
11168.6
7354.84
6567.99
19373.7
18522.6
17819.7
13561
13485.7
13385.2
10126.3
10270.9
10385.2
8970.48
8866.08
8729.54
12531.3
9013.08
8185.42
16451.6
15567.8
14909.7
12582.6
12060.4
11728.1
10768.6
10289
9963.17
10714.3
9712.52
9079.31
15176
10148.4
9179.62
4376.7
2717.73
2073.71
2015.88
5031.53
3015.05
2212.24
2064.73
4387.92
2704.45
2075.9
2033.09
5146.59
3081.05
2252.57
2079.47
4345.72
2648.75
2054.1
2000.22
5244.46
3111.5
2279.53
2046.62
5695
3332.81
2367.1
2173.1
5882.18
3481.49
2465.11
2276.22
4663.78
2842.99
2134.27
2014.28
3549.96
2350.9
1897.11
1935.77
3966.5
2499.3
1950.25
1844.6
3179.42
2175.02
1804.19
1846.12
5125.23
3099.91
2268.58
2128.99
3766.9
2478.97
1958.23
2008.52
5381.55
3271.03
2360
2203.7
3854.62
2568.23
2004.91
2042.38
3081.27
2219.96
1837.14
1897.34
1599.87
1608.98
1545.07
1774.86
3071.51
2195.51
1827.91
1889.99
1697.19
1634.66
1554.96
1785.21
3134.47
2176.29
1821.62
1888.51
2028.51
1730.86
1591.6
1833.19
3032.34
2077.91
1760.54
1917.24
2304.29
1791.08
1631.4
1810.68
2677.63
1967.47
1694.7
1812.13
3.19653
1101.28
1157.06
344.084
-1903.02
807.664
984.848
377.018
265.693
1185.98
1187.7
365.726
-1552.48
904.183
1012.97
386.3
753.691
1334.82
1240.3
365.851
-968.328
1065.18
1057.84
392.837
1338.51
1506.61
1304.14
400.648
-370.279
1238.18
1116.52
412.184
1696.34
1655.95
1381.15
477.326
-278.989
1359.54
1170.01
428.941
1822.37
1807.75
1423.93
449.663
-758.703
1464.49
1263.39
457.399
1773.23
1740.48
1393.02
450.133
-775.031
1415.03
1217.76
440.824
1822.44
1855.23
1457.66
415.796
-855.149
1508.61
1298.89
461.618
1873.21
1908.13
1506.62
428.212
-746.382
1563.43
1340.92
475.417
2055.55
1661.61
1198.43
720.289
240.055
2031.52
1658.29
1199.3
721.199
240.373
2080.41
1674.14
1204.8
723.347
240.962
2060.64
1674.36
1207.87
725.401
241.633
2125.56
1692.06
1213.1
727.223
242.104
2095.7
1693.77
1218.03
730.385
243.138
2131.23
1716.44
1231.56
737.392
245.299
2182.91
1749.39
1251.02
747.461
248.403
2173.7
1713.95
1225.15
733.289
243.958
2322.6
1740.88
1233
736.305
244.801
2182.49
1708.17
1219.27
729.897
242.871
2318.21
1730.99
1226.51
732.874
243.724
2195.8
1734.02
1237.32
739.63
245.924
2365.52
1760.31
1244.07
742.027
246.577
2245.08
1765.9
1255.62
749.021
248.821
2417.7
1788.68
1259.91
750.147
249.092
2113.31
1669.67
1198.33
719.552
239.777
2223.79
1678.65
1198.55
719.129
239.61
2136.33
1679.53
1203.06
721.77
240.424
2241.96
1686.05
1202.16
720.831
240.111
2182.63
1696.06
1210.55
725.255
241.442
2281.96
1699.52
1208.61
723.896
241.009
2260.14
1715.23
1218.14
728.672
242.431
2329.73
1714.1
1216.02
727.454
242.04
2334.41
1725.19
1222.46
730.713
243.036
8792.37
13435.8
9275.79
13769.1
10004.2
14226.6
10551.6
14571.8
10233.8
14136.3
9641.3
10833.6
9596.42
11253.2
9728.98
10795.6
9915.58
10954.8
7743.2
1321.93
281.345
62.8455
11.0918
8597.93
2441.55
590.858
133.548
23.5641
7856.3
1316.23
277.943
61.8261
10.88
8713.06
2440.1
587.922
132.205
23.1213
7991.63
1319.39
276.023
61.0956
10.7249
8839.46
2446.02
585.705
131.145
22.8939
7997.15
1291.2
267.511
59.0271
10.3511
8814.95
2414.42
575.647
128.607
22.4198
7665.69
1206.52
249.334
55.1598
9.69181
8425.62
2310.98
552.551
123.755
21.601
6947.07
1137.16
242.636
54.5398
9.65401
7104.57
2041.84
500.826
113.967
20.075
7144.52
1150.47
242.544
54.1758
9.55877
7463.76
2140.66
520.473
117.513
20.5923
6881.64
1137.58
243.923
54.9696
9.74023
7001.14
2001.61
491.533
112.219
19.823
6872.35
1131.67
242.532
54.6902
9.68362
7029.41
1996.17
489.088
111.948
19.7454
32517.3
45974.1
44950.3
31583.3
18670.9
19625.8
27538.8
28712.3
21487.8
24038.4
34125
46433.7
43086.9
56969.4
28161.7
32048.6
22143.3
23619.2
12030.7
13176.9
4954.8
3331.92
1000.86
797.544
888.808
790.725
938.938
4914.54
4934.61
3022.93
4272.28
4151.42
1848.08
2500.49
2306.82
1556.27
1779.73
1481.12
4413.74
2489.08
1664.55
1484.4
1840.86
1611.59
1292.07
1236.95
1180.26
1049.12
1380.88
1255.45
4582.6
2850.05
3248.95
2133.29
1792.8
2454.93
1319.83
1069.89
1439.25
10170.2
10464.5
10910.3
12562.8
21349.2
7455.21
8719.51
9743.17
11171.9
13217
2642.06
3798.17
4696.38
5320.35
5646.9
2119.15
3074.02
3825.51
4345.37
4612.61
2358.3
3412.25
4234
4796.53
5083.12
2102.42
3051.91
3798.36
4312.45
4575.13
2486.48
3588.61
4446.03
5035.37
5338.02
10425.6
10926.1
11017.7
11979.7
19324.1
10435.4
10748.7
10644.7
11126.2
12896.6
7009.32
8445.38
9285.69
10096.5
11017.2
9324.99
9954.48
9879.74
9963.36
10314.8
9048.82
9731.12
9605.05
9497.23
9576.35
4637.6
6202.37
7244.29
7939.45
8333.74
5991.14
7517.79
8398.46
9012
9444.12
5593.48
7115.74
7973.36
8481.49
8757.23
3987.7
5485.6
6531.7
7215.94
7572.09
4482.36
6015.46
7019.53
7651.26
7976.91
3816.38
5288.01
6324.29
6994.55
7333.57
9551.77
10364.4
10768.2
12006.2
19598
5973.08
7569.19
8650.08
9625.61
10580.9
4239.22
5792.15
6887.44
7645.25
8081.11
3822.48
5307.96
6396.67
7160.24
7592.84
4623.89
6217.29
7350.43
8205.31
8785.54
4119.36
5672.31
6820.04
7668.04
8189.1
3363.25
4746.58
5802
6556.65
6979.29
3234.59
4587.34
5612.27
6322.49
6701.07
3097.09
4407.5
5390.82
6049.66
6384.33
2767.65
3970.67
4891.91
5517.54
5836.92
3581.6
5015.15
6061.39
6764.1
7132.44
3279.24
4640.3
5660.18
6356.31
6722.12
9650.89
10229.9
10721.2
12247.3
20531.3
6589.32
8032.87
9143.9
10442.6
12036.5
7619.04
9092.91
9989.26
11333.5
14026.2
5246.99
6901.99
8136.51
9229.96
10139.8
4525.42
6139.87
7339.23
8286.73
8936.51
5902.55
7524.42
8679.41
9779.34
10874.2
3432.8
4836.41
5897.84
6648.5
7064.63
2818.02
4036.08
4971
5612.89
5945.83
3717
5185.4
6277.69
7053.71
7495.54
17803.3
11804.5
18355.8
13086.3
23826.8
33905.2
24876
33719
18895.1
20033.5
16188.5
19321.8
21520
20520.8
27295.6
22458.1
13684.3
12725.5
6703.13
5693.82
14928.6
13584.7
7706.87
6265.83
18438.7
19958.3
18945.5
17327.8
19260.9
12690.7
10675.6
12309
17448.7
17425
36155.4
37828.6
25362.9
26665
15351.7
12603.2
16803.8
11659.8
8133.74
7858.41
13313.2
14685.3
5574.93
6062.66
14673.9
16678.2
6963.75
7666.42
14037.2
19515.4
8157.02
12524.6
2858.25
6943.33
2129.54
4798.47
17660.1
20231.6
17591.9
20589.2
19347.3
19666.5
20345.3
20151.8
15993.1
20260.1
18135.1
19974.1
17301.1
20741.3
17419.6
20934
21066.8
20358.3
21417.4
20515.3
14189.2
20399
13487.5
20549.6
17711.6
20854.9
21530
29851
19279.1
24643
21580.7
32649.3
16384.8
17919.5
21492.1
28586.5
15939.3
16412.5
21669.7
28297.6
18243.4
19725.6
22785.9
33712
18388.7
18844.4
24407.3
34182.4
18173.3
17881.2
26305.6
33979.6
17880.4
18837.9
18995.5
20085.2
29968.9
18130.2
16859.5
20302
18398.6
34201.3
18912
19632.7
19366.1
20844.2
37057.6
11091.8
10191.7
10192.9
13103.9
12136.4
11167.2
10570.2
13484.1
13346.8
11631.2
11071.8
13810.4
17643.5
17075.1
16475.7
16117.6
18888.1
17764.4
15536.9
14048.7
11612.3
14432.4
18637.5
18542.1
19643.2
19868.7
18739.8
17709.3
16903
15053
11451.2
13981.6
21364.8
24111.6
22213.7
25729.1
20300.5
21284.5
20931.6
22543.8
20482.8
20734.3
19934.9
19703.5
22521.4
26437.8
22741.2
26806.4
20869
23387.3
21054.8
23709.2
20818.5
21032.2
21011.8
21269
17434.9
16453.3
11324.9
12431.2
17329
15950.3
11276.4
12438.8
17738.8
16537.9
11545.3
12538.3
17888.8
16492.8
11914.7
12601.6
9362.58
9503.92
4006.37
3699.21
10445.3
10120.2
4490.2
4305.23
10190.5
9578.1
5120.45
4953.02
16933.6
16504.3
16409.4
16537.7
16263.5
15829.3
12164.2
10937.5
6031.07
5002.04
18980
18302.8
20126.6
19428.3
15878.2
14798.3
11346.9
9809.01
5555.77
4212.02
21549.7
20568.2
26306.5
23074.7
23921.7
21403.9
32615.2
24708.1
19694.9
16255.8
21390.6
17007
19595.4
16552.5
21487.3
17235.7
20045.9
17847.2
18235
17045.8
20752.5
21906.5
25689.2
27001.1
28139.4
29914.5
21122.5
22823.6
19161.4
19294.8
23025.1
24628.9
13216.7
9597.09
13609.4
9821.14
13506.3
9505.89
13787.4
9663.4
13490.5
9365.97
13785.7
9859.52
13809.2
10166.9
14389.7
10051.8
16966.1
16578.3
18663.1
17002.2
19397.3
18662.4
21164.1
19339
18380.1
14607.1
17546.4
14474.6
20015.2
17267.6
20919.7
17362.8
22647.7
19723.1
23287.6
19870.7
19022.4
14737
19562.6
14771.3
12773.1
8947.82
11956.9
7523.6
12275.4
8675.33
11925.7
7439.85
13154
9249.54
11986.3
7555.34
13359.2
9488.38
11899.4
7491.1
12811
13178.8
8981.85
8224.26
12979.4
13306.9
8833.89
8152.79
12980.7
12785.8
8601.58
8057.33
15118
17762.3
15945.8
11826.5
8359.36
16511.9
15537.4
17435.6
11952.1
8061.27
18201.8
16238.5
14476.2
12101.5
7365.91
14058.7
15639.2
8269.92
9160.45
13889
15164.4
8181.82
9008.35
12925.2
13738.5
7782.76
8056.77
16425.8
15719.9
14970.4
14610.6
15647.8
16383.2
12233.1
13357.3
7519.67
7455.55
16637.3
15428.2
15131.2
14068.8
13714.3
13425.5
11570.5
11920.4
6876.48
7691.07
14800
12946.6
14856.4
12347.4
16584.5
14274.6
17093.7
14431.5
12978.9
11337.8
13072.3
12144.8
14949.8
12055.5
14988.2
11994.7
17402.2
14915
17507.4
15029.2
13048.7
10820.9
13000.2
10783.3
10436.4
9575.53
6616.74
7656.57
10733.1
10296.4
6778.09
8063.13
10563
9301.97
6521.28
7769.85
10686.7
9061
6651.97
7616.46
19191.2
19200.4
27238.2
22684.5
18313.5
18489.6
26076
21645.9
16014
16827.3
23875.1
20093.7
15388.2
14974.6
14381.3
14314.6
16878.6
17513.6
15959.9
16085.9
21881.5
18423.5
14617.6
14044.1
13686.9
13660.5
14235.3
14748.4
15594.7
15351.8
21532.8
17014.9
5858.65
3719.32
2694.73
2473.85
6131.19
3875.28
2788.38
2494.3
5729.32
3634.81
2641.92
2450.14
6064.8
3825.66
2748.65
2451.03
5490.14
3465.87
2544.14
2359.89
5956.15
3710.24
2692.41
2356.94
6110.53
3709.04
2650.7
2397.71
6021.18
3612.17
2560.46
2354.31
5260.6
3312.2
2471.96
2290.48
3943.02
2680.75
2130.21
2142.09
4904.9
3166.36
2384.36
2176.88
3823.97
2685.7
2111.2
2087.75
5454.83
3379.7
2481.75
2307.15
3978.36
2664.1
2105.84
2150.75
5483.39
3364.72
2433.59
2266.29
3921.05
2628.39
2055.57
2091.3
5284.81
3422.15
2513.91
2384.36
4308.76
2981.92
2276.02
2292.14
5111.75
3333.49
2460.5
2343.29
4189.03
2932.78
2249.66
2280.17
4867.44
3189.81
2385.92
2297.51
4102.15
2870.51
2215.17
2278.83
4356.95
2926.41
2240.79
2272.87
3910.79
2764.26
2153.65
2166.41
3636.82
2660.55
2073.99
2078.95
2840.85
2533.54
1831.57
499.027
536.792
2240.47
1669.57
572.665
2890.59
2534.17
1828.79
516.727
739.852
2247.9
1666.12
574.422
2976.57
2516.78
1806.47
488.756
1021.4
2240.12
1643.05
559.898
2950.22
2463.46
1802.6
516.029
1076.79
2194.7
1620.45
558.16
2665.3
2348.87
1783.02
593.008
496.947
2075.59
1580.21
553.308
2106.74
2096.54
1674.39
544.097
-646.99
1769.59
1481.88
534.058
2306.18
2203.99
1728.06
558.978
-452.353
1900.61
1526.09
540.046
1961.14
2012.33
1611.03
477.169
-826.435
1673.57
1427.61
509.171
1912.31
1958.03
1557.43
449.14
-745.092
1614.87
1382.65
491.162
2427.91
1892.09
1330.47
787.372
260.519
2371.34
1877.08
1326.16
785.892
260.127
2426.58
1884.52
1325.16
784.484
259.612
2360.84
1865.53
1318.59
781.859
258.874
2441.94
1877.89
1318.89
780.907
258.479
2349.08
1852.34
1309.66
777.091
257.402
2305.86
1826.58
1295.45
770.013
255.267
2247.12
1790.94
1275.24
759.856
252.197
2406.8
1857.45
1307.09
774.926
256.664
2545.54
1868.78
1305.03
772.789
255.927
2479.2
1878.51
1315.48
778.631
257.731
2606
1884.55
1312.38
776.276
256.952
2349.89
1832.58
1293.98
768.488
254.738
2509.91
1847.08
1293.27
767.012
254.205
2298.5
1800.07
1275.36
759.106
251.91
2467.32
1818.93
1277.14
758.926
251.786
2536.17
1913.82
1335.56
788.903
260.903
2714.87
1933.34
1339.11
789.875
261.142
2541.06
1909.07
1331.83
786.821
260.241
2716.28
1929.15
1336.15
788.269
260.636
2560.3
1902.52
1325.92
783.519
259.192
2723.6
1920.98
1330.54
785.276
259.694
2615.41
1899.74
1320.61
780.378
258.182
2734.61
1909.2
1323.62
781.673
258.55
2674.42
1895.31
1316.99
778.425
257.572
10999.7
14456.3
11065.2
14473.9
11207.3
14493.4
11046.1
14340.2
10353
13664.3
9650.42
10792.3
9660.17
11190.9
9722.38
10765.3
9911.17
10943.4
8426.78
1399.13
293.252
64.9812
11.4194
9073.45
2559.57
614.762
138.11
24.2717
8397.8
1377.23
287.561
63.5959
11.1565
9040.91
2529.77
607.028
135.966
23.713
8303.09
1354.68
281.999
62.2803
10.9192
8950.02
2493.65
597.58
133.701
23.3173
8086.21
1301.87
269.854
59.5964
10.4553
8740.39
2423.75
580.52
129.934
22.6646
7647.22
1204.18
249.391
55.2786
9.72343
8288.12
2301.03
553.027
124.19
21.7047
6932.92
1134.32
242.053
54.4343
9.63979
7079.34
2035.05
499.469
113.745
20.048
7131.21
1147.03
241.941
54.0999
9.55348
7419.78
2131.25
519.227
117.429
20.6006
6870.76
1135.67
243.527
54.8912
9.72844
6985.01
1997.35
490.586
112.038
19.7965
6868.25
1130.98
242.39
54.6612
9.67906
7023.55
1994.71
488.756
111.881
19.7351
32063.2
45661.8
43876.7
30223.8
23664.1
28111.9
22894.9
28010
26459.2
41816.2
28022.7
42798.2
303.77
321.713
361.698
426.191
519.434
646.218
318.934
337.287
378.008
443.079
535.284
657.802
292.284
286.611
311.403
307.69
354.127
354.955
423.566
433.141
522.803
543.711
651.297
675.639
811.914
1022.06
1293.09
1650.63
2061.83
2357.32
813.594
1004.42
1231.26
1484.82
1726.78
1883.52
813.449
1193.79
1500.71
1715.92
1826.79
861.285
1263.51
1587.79
1815
1931.98
967.894
1418.9
1781.86
2035.82
2166.47
1139.6
1668.64
2093.21
2389.68
2542.05
1387.14
2027.19
2538.66
2894.93
3077.9
1721.97
2508.54
3133.23
3567.32
3790.44
853.911
1252.87
1574.64
1800.18
1916.32
902.781
1323.96
1663.28
1900.9
2023.21
1011.21
1481.69
1859.95
2124.45
2260.5
1184.18
1732.7
2172.31
2479.14
2636.86
1428.49
2085.63
2610.01
2975.28
3163.06
1751.39
2548.6
3181.05
3621.08
3847.83
782.747
1148.88
1444.46
1651.79
1758.6
767.568
1126.66
1416.61
1620.02
1724.82
833.768
1223.35
1537.58
1757.83
1871.24
823.844
1208.86
1519.45
1737.18
1849.29
947.763
1389.7
1745.54
1994.6
2122.73
949.995
1393.02
1749.77
1999.47
2127.93
1132.79
1659.13
2081.74
2376.89
2528.56
1158.36
1696.5
2128.5
2430.11
2585.04
1396.48
2041.5
2557.11
2916.11
3100.32
1452.14
2122.38
2657.69
3030.02
3220.9
1736.24
2530.6
3161.44
3599.05
3823.41
1800.96
2624.3
3277.17
3729.04
3960.19
2155.26
3122.91
3884.79
4414.18
4688.07
2694.97
3869.81
4784.82
5425.86
5765.06
3369.07
4763.42
5835.56
6607.99
7041.72
4210.81
5799.14
7006.3
7938.74
8536.61
5102.31
6770.6
8032.78
9126.38
9980.62
5714.52
7393.83
8669.17
9874.41
10934.8
2158.35
3125.03
3886.28
4416.67
4692.11
2649.77
3807.88
4711.96
5346.55
5682.32
3221.24
4579.06
5629.06
6379.67
6792.08
3840.12
5379.5
6559.58
7432.13
7942.99
4408.2
6076.31
7347.67
8330.23
8952.62
4767.93
6504.84
7827.04
8882.19
9585.92
306.838
331.023
377.695
449.567
551.07
687.054
322.063
346.766
394.174
466.384
566.09
695.991
295.401
289.85
320.919
317.62
370.603
372.271
447.953
459.085
556.152
578.862
695.881
723.768
861.206
1075.56
1343.58
1688.16
2081.52
2362.82
857.697
1050.93
1274.83
1519.36
1748.13
1890.6
821.691
1205.97
1516.15
1733.71
1845.79
886.357
1300.65
1634.94
1869.34
1990.09
1011.03
1482.93
1863.32
2129.88
2267.15
1202.77
1762.78
2213.43
2528.92
2691.36
1472.98
2155.9
2704.06
3087.46
3284.93
1833.45
2677.32
3352.19
3824.11
4067.71
862.333
1265.34
1590.49
1818.46
1935.88
928.339
1361.9
1711.53
1956.6
2082.82
1054.85
1546.61
1942.71
2220.18
2363.06
1247.24
1826.86
2292.82
2618.95
2786.92
1512.16
2211.28
2771.73
3163.78
3365.9
1855.66
2706.5
3385.98
3861.49
4107.47
791.123
1161.25
1460.13
1669.81
1777.85
776.27
1139.51
1432.87
1638.72
1744.79
859.375
1261.24
1585.62
1813.13
1930.34
850.555
1248.36
1569.51
1794.78
1910.84
992.161
1455.53
1829.2
2091.11
2225.99
996.645
1462.18
1837.63
2100.8
2236.33
1198.67
1757.22
2206.91
2521.78
2683.86
1228.47
1800.95
2261.86
2584.55
2750.63
1486.99
2177.29
2731.69
3119.4
3318.95
1547.73
2266.22
2843.18
3246.53
3454.05
1858.09
2715.42
3401.63
3881.1
4128.15
1932.87
2825.23
3539.39
4037.98
4294.59
2291.17
3331.83
4159.78
4740.3
5042.36
2844.92
4105.81
5102.08
5808.19
6184.17
3514.91
5002.22
6167.23
7017.49
7497.02
4326.11
6001.05
7300.36
8314.79
8964.61
5170.3
6901.21
8232.45
9391.42
10291.9
5736
7438.32
8739.38
9969.93
11049.4
2279.71
3311.03
4130.46
4705.72
5005.85
2779.22
4009.68
4981.04
5668.93
6034.61
3344.65
4776.08
5897.29
6706.17
7152.2
3940.49
5544.94
6790.56
7718.77
8263.02
4472.27
6185.61
7503.96
8527.82
9176.19
4789.7
6542.85
7882.2
8952.75
9666.44
4935.13
3330.36
1064.27
852.695
962.594
851.764
1008.68
4560.44
4425.06
2942.25
3694.92
1898.44
2452.88
1628
1787.54
1536.85
4254.49
2501.03
1736.73
1562.08
1902.23
1677.74
1354.62
1313.33
1274.35
1138.12
1466.18
1339.4
4524.9
2854.81
3212.92
2164.09
1844.65
2474.01
1390.21
1146.19
1513.27
10166.6
10518.6
11016.9
12738.8
21675.9
7469.07
8769.12
9832.73
11305.7
13393
2820.67
4081.29
5079.28
5783.54
6155.48
2271.5
3308.87
4135.43
4713.58
5012.94
2563.96
3733.61
4663.51
5311.79
5646.29
2271.2
3312.48
4142.75
4722.1
5020.79
2682.11
3896.91
4860.88
5535.18
5885.41
10169.3
11543.3
12476.9
14249.3
22940.4
10085.5
11691.6
12837.8
14429.7
17073.2
7083.39
9090.03
10607.5
12040.4
13382.9
8931.78
10974
12215.8
13498.4
14605.2
4887.94
6808.04
8265.47
9330.74
9947.76
6123.87
8201.04
9736.47
10939.2
11730.3
4254.77
6039.22
7412.27
8384.34
8911.56
4643.71
6538.54
7981.5
9008.1
9573.1
4035.42
5762.22
7097.14
8033.28
8530.92
9443.21
10740.3
11682.9
13453.3
22022.3
6138.32
8076.1
9567.54
10928.9
12154.2
4501.4
6326.01
7730.37
8761.69
9362.36
4072.21
5767.62
7085.94
8049.72
8602.23
4857.14
6706.99
8135.15
9256.71
10005.8
4334.01
6070.86
7421.67
8449.83
9081.81
3547.45
5055.46
6238.69
7101.79
7588.6
3459.96
4966.47
6149.2
6992.18
7447.89
3374.07
4872.55
6049.11
6870.7
7299.77
3021.06
4378.42
5450.47
6199.3
6588.83
3853.09
5510.36
6799.72
7712.11
8203.54
3531.07
5072.07
6279.48
7134.2
7592.14
9640.96
10399.1
11059.8
12795.1
21544
6643.52
8184.74
9407.11
10822.4
12518.7
7660.75
9395.02
10596.8
12260.2
15289.3
5366.61
7153.66
8540.6
9780.35
10794
4699.95
6474.09
7853.12
8964.59
9720.16
6044.33
7917
9376.97
10772.1
12081.9
3643.19
5195.64
6412.04
7294.85
7789.01
3036.87
4391.45
5460.94
6213.06
6608.8
3947.34
5596.1
6882.39
7826.72
8369.28
10508.3
9870.73
8766.88
7250.01
5231.13
2038.85
18151.8
18502.9
21044.4
21684.2
17848.8
18971.8
20167.5
19593.5
14857.7
18159.3
15516.1
18723.9
17820.1
16088.4
24751.2
17492.4
17710
19911.9
20321.5
16939.4
18044.2
19328.6
18942.6
14814.9
21928.9
15392.5
21858.2
18008.3
19512.2
26566.9
16770.8
16865.5
18486.3
18663.1
16289.4
17776.4
18219
18308.1
17017.1
19476.6
17772
19513.5
19580
21486.1
23999.1
16111
16224.2
17236.1
17262.1
15948.1
17669.1
17131.8
17484.7
16017.8
17104.6
16749.6
16705.5
17988.5
19431.6
20857.3
15411.5
15557
16411.2
16357.2
15730.5
17608.9
16447.8
16981.8
15231.4
14207.4
15991.2
13679.7
16629.1
16510.9
17349
15123.2
15309.2
15876.5
15792.2
15417.2
16988.5
16021.1
16475.8
14598.2
12290.9
15175.1
12076.2
15545
14622.4
15796
21036.3
20257.6
22026.8
23101.1
19589.3
19630.5
20579.8
19714
18645.8
13815.8
18635.5
13915
16572.2
15101.6
18098.1
19925.1
19369.9
20423.6
21121.2
18989.2
19187.2
19475.8
18753.9
17397.6
13450.6
17411.1
13564.7
15292.2
13649.5
16852.3
18493.3
18176.3
18524.9
18851.6
17977.9
18187
18069.7
17651.7
16660.3
13350.4
16486.1
13103.9
14812.7
12563.5
16744.2
17201.4
17031.8
17129.7
17264
16914.6
17066.2
16994.9
16673.3
15945
14040.5
15861.6
13729
14427.9
12809.7
17366.5
16610.5
16506
16407.2
16459.4
16243.5
16387.3
16402.2
16214.9
15943
15397.3
15892.4
15265.1
14716
13505.8
18241.3
16190
16091.2
16016.4
16042.6
15868.4
16187.5
15983.3
15924.7
15986.3
16254.9
15996.1
16177.6
14943.1
14164.6
19128.8
11166.9
6335.77
18421.3
12072.1
20107.8
14846.8
31589.9
39065.3
41510.9
50697.2
26849.9
23269.4
17040.5
13509.2
8287.38
5513.19
19128.5
19640.8
16440.6
19359.8
25838.5
23155.5
29733.2
24144.8
7875.08
5704.41
4357.11
3246.41
9618.78
7862.13
5830.77
4714.03
17383
18114.4
17825.1
15164.3
13979.1
10854.5
10895.4
12356.2
17578.5
17471
36747.3
37969.5
26124.1
26878.1
14810.4
12492
16189.1
11557.2
7530.43
7714.99
5992.87
8208.25
3101.92
3693.02
8381.29
11255.3
4986.96
5762.76
9335.34
15354.6
6453.62
10444.9
2467.79
6231.01
2052.24
4660.02
17381.1
21448.5
17846.9
21304.2
21291
21548.3
21589.8
21212.2
15133.8
20471.3
15631.3
20254.8
17538.4
21125.9
17509.5
21059.2
21712.6
20903.5
21609.3
20685
13955.9
20539.3
13458.4
20603.2
16874
19624.2
21320.1
29481.9
17852.3
22529.4
21110.1
31851.9
16011
17336.7
21421.6
28431
15846.2
16253.7
21660.8
28259
4771.71
6201.1
12149.4
21031.4
6077.62
6855.57
16004.5
24361.1
7652.93
7712.36
20460.7
27530.8
23895.9
25867.5
20019.4
19142.9
27224.2
26121.4
24516.3
20477.8
17617.4
30912.3
23758.6
23321.1
20612.7
20218
35639.5
1869.58
2250.09
3952.44
8859.63
2732.55
3060.88
5663.21
10188.2
4120.32
3478.71
7783.88
11884.2
26043.6
26056.4
23363
23288.2
19787.6
18409.6
14889.4
13302.4
10337
14124.9
23622.9
23081.1
23663
23523.4
20401.4
19301.3
16708.5
15067.9
11064.5
14388.6
23321.9
26353.2
23216.7
26940.5
22673
23618.3
22086.2
23703.8
21044.7
21448.4
20885.2
20851.1
23016.4
27030.3
22892.7
26984
21413.5
23953.3
21217.1
23875.1
21125.8
21401.8
21110
21380.9
17595.6
16743
11304.2
12513.1
17457.5
16278.3
11115.7
12487.1
17856.4
16711.8
11560.9
12601.1
17931.8
16549.7
11925.5
12626.3
1569.37
1095.77
776.803
939.31
670.292
628.495
2205.96
1380.59
1070.06
1887.6
1554.19
1366.45
2616.4
2277.87
2327.12
3330.96
2792.82
2542.47
25358.8
23372.3
21906
23185.5
21903.3
20782.8
16553.5
15666
15187.5
11107.9
9881.58
9375.75
5059.79
3850.84
3315.01
22827.9
21598.3
20426.3
23242.3
21644.8
20305.8
17082.8
15049.5
13873.7
11060.3
9111.44
8324.04
5394.05
3844.18
3137.76
26304.6
25878
28549.4
25738.6
29402.5
25783
35373.9
27049.6
20264.5
20814.3
19936.1
18673.3
22914.3
21688.6
22422.3
19201.4
22184.6
22126.5
20535
22097.6
27528.5
24556.9
27039.6
27414.4
29294
30253.8
22474.1
23304
20191.8
19589.3
24541.8
25139.2
16086.1
8406.78
14944.1
9345.79
16294.2
8467.07
14861.2
9258.3
16124.3
8518.81
14866.2
9668.6
14429.4
10132
14588.7
10046.2
20811.1
17920.6
20586.6
17833.5
22931.7
20817.1
23055.3
20544.8
20177.8
14919.5
21166.4
14777.7
20974
17711.1
21205.3
17497.4
23576.7
20334.2
23558.7
20056.2
19912.3
14933.1
19820.6
14832.1
13180.8
8537.81
11755.3
7154.71
12329.8
7614.83
11326.9
6649.31
13472.1
9099.03
11924.5
7384.55
13471.1
9452.23
11883.5
7434.91
2421.33
1195.55
4243.8
1954.08
2613.46
1535.23
4551.1
2478.7
3263
2414.22
5089.39
3456.62
13076.4
20211.3
9357.78
8927.54
5986.4
19888.1
13914
8107.79
8122.81
4832.3
20573.7
16282.9
12968.4
10009.5
5760.56
574.57
425.089
835.353
486.972
929.46
628.353
1480.9
1102.17
1741.75
1418.78
2458.98
1938.5
20371.9
20071.3
13928.4
13683
9067.65
9471.68
7597.66
7288.97
4054.79
3295.15
19017.5
17612
14874.7
13399.4
11645.3
10706.3
8777.95
8279.08
5070.61
5333.35
15149.2
12624.6
15187.8
12249.1
18037.1
15254.9
17926.1
14939.2
12826.2
10781.5
12474.8
10880
15156.6
12014
15052.4
11983.5
17820.4
15164.3
17632.5
15100.3
13037.1
10578.9
13010.3
10721.9
9940.66
8776.37
6136.36
6921.99
9597.05
8625.16
5821.2
6579.15
10366.5
8944.66
6299.6
7374.54
10630.4
8955.66
6575.73
7491.19
2097.94
1868.18
1553.86
9545.25
5023.02
4089.17
2041.39
2050.27
1831.04
10277
5938.52
5032.92
2778.53
3165.84
3264.41
11168.7
7355.45
6568.71
19373.6
18522.6
17819.7
13560.6
13485.3
13384.9
10125.7
10270.4
10384.7
8970.32
8865.89
8729.35
12530.9
9013.2
8185.67
16451.5
15567.7
14909.7
12582.3
12060.2
11727.9
10768.2
10288.7
9962.98
10713.9
9712.33
9079.2
15175.1
10148.2
9179.62
4377.38
2717.86
2073.91
2015.33
5030.43
3013.53
2211.56
2063.72
4386.77
2703.97
2075.56
2032.87
5145.97
3080.82
2252.38
2079.3
4344.48
2648.27
2053.8
2000.01
5243.23
3111.08
2279.27
2046.42
5693.77
3332.36
2366.86
2172.92
5881.23
3481.11
2464.9
2276.06
4662.79
2842.54
2134.01
2014.1
3549.3
2350.52
1896.88
1935.59
3965.54
2498.85
1949.98
1844.41
3178.73
2174.63
1803.95
1845.95
5124.3
3099.48
2268.34
2128.81
3766.31
2478.62
1958.02
2008.34
5380.78
3270.66
2359.78
2203.54
3854.1
2567.92
2004.72
2042.22
3080.83
2220.55
1837.89
1896.99
1598.07
1608.68
1545.64
1773.75
3070.69
2195.08
1827.57
1889.79
1696.5
1634.37
1554.71
1785.13
3133.62
2175.86
1821.33
1888.33
2027.89
1730.53
1591.36
1833.05
3031.57
2077.51
1760.28
1917.04
2303.66
1790.73
1631.16
1810.51
2676.99
1967.09
1694.46
1811.93
3.6938
1101.03
1157.88
344.124
-1900.6
806.347
984.567
376.864
265.038
1185.88
1187.52
365.719
-1553.28
904.294
1013
386.336
753.244
1334.59
1240.13
365.804
-968.639
1065.04
1057.75
392.815
1338.07
1506.31
1303.95
400.594
-370.515
1237.94
1116.38
412.138
1695.88
1655.62
1380.94
477.263
-279.201
1359.26
1169.84
428.886
1821.97
1807.44
1423.74
449.609
-758.838
1464.21
1263.21
457.342
1772.79
1740.16
1392.82
450.078
-775.187
1414.74
1217.58
440.766
1822.09
1854.95
1457.48
415.751
-855.257
1508.36
1298.73
461.566
1872.91
1907.89
1506.47
428.172
-746.476
1563.21
1340.77
475.371
2053.96
1660.85
1198.09
720.136
240.01
2029.76
1657.35
1198.85
720.986
240.309
2080.36
1674.06
1204.75
723.321
240.955
2060.54
1674.28
1207.82
725.382
241.631
2125.46
1691.98
1213.05
727.198
242.098
2095.58
1693.69
1217.98
730.363
243.135
2131.1
1716.35
1231.5
737.366
245.292
2182.78
1749.3
1250.97
747.434
248.396
2173.56
1713.86
1225.1
733.263
243.952
2322.43
1740.78
1232.94
736.276
244.793
2182.35
1708.08
1219.22
729.871
242.864
2318.04
1730.9
1226.46
732.846
243.716
2195.66
1733.93
1237.26
739.602
245.916
2365.35
1760.21
1244.01
741.998
246.568
2244.94
1765.81
1255.56
748.993
248.813
2417.54
1788.59
1259.86
750.118
249.083
2111.69
1669.02
1198.06
719.433
239.741
2222.22
1678.11
1198.33
719.036
239.587
2136.31
1679.45
1203.01
721.748
240.42
2241.98
1685.96
1202.1
720.816
240.113
2182.53
1695.98
1210.49
725.231
241.436
2281.87
1699.43
1208.55
723.875
241.007
2260
1715.14
1218.08
728.646
242.424
2329.59
1714.01
1215.96
727.429
242.034
2334.25
1725.09
1222.4
730.685
243.029
8744.44
13382.2
9277.99
13770.6
10005.6
14227.3
10552.6
14572.4
10234.5
14136.9
9641.87
10834.1
9597.03
11253.8
9729.53
10796.2
9916.14
10955.4
7732.13
1312.98
279.055
62.3213
10.9993
8582.52
2435.88
589.253
133.167
23.4947
7853.92
1316.78
278.048
61.8425
10.8821
8711.48
2439.51
587.717
132.147
23.1101
7991.08
1319.44
276.03
61.0938
10.7241
8839.04
2445.82
585.628
131.12
22.8887
7997.19
1291.21
267.509
59.0248
10.3504
8814.98
2414.38
575.621
128.597