/*--------------------------------*- C++ -*----------------------------------*\
| =========                 |                                                 |
| \\      /  F ield         | OpenFOAM: The Open Source CFD Toolbox           |
|  \\    /   O peration     | Version:  2306                                  |
|   \\  /    A nd           | Website:  www.openfoam.com                      |
|    \\/     M anipulation  |                                                 |
\*---------------------------------------------------------------------------*/
FoamFile
{
    version     2.0;
    format      ascii;
    arch        "LSB;label=32;scalar=64";
    class       volVectorField;
    location    "2.5";
    object      flux;
}
// * * * * * * * * * * * * * * * * * * * * * * * * * * * * * * * * * * * * * //

dimensions      [0 1 -1 1 0 0 0];

internalField   nonuniform List<vector> 
5712
(
(-0.260093 0.461146 0.284274)
(-0.332411 0.265894 0.934398)
(-0.618554 0.748166 0.225421)
(-0.902493 0.490107 0.958352)
(-0.920436 0.815902 0.169505)
(-1.58919 0.603769 0.992169)
(-0.708617 1.28168 0.268169)
(-1.80519 1.58701 1.53242)
(-0.577522 1.68426 0.32972)
(-1.26874 2.05952 2.10771)
(-0.863343 1.08887 0.326925)
(-1.31283 0.945688 1.53343)
(-0.775246 0.691848 0.31501)
(-1.01554 0.547987 1.27163)
(-0.34073 0.347141 0.32736)
(-0.389319 0.234758 1.13557)
(-0.578682 0.775697 0.198048)
(-0.662661 0.794951 0.121848)
(-0.7493 0.667475 0.529376)
(-0.743173 0.784946 0.313247)
(-0.590789 1.04775 0.194386)
(-0.730933 0.937301 0.104655)
(-0.870976 1.20727 0.580869)
(-0.782319 0.978726 0.288221)
(-0.210923 0.326158 0.215784)
(-0.157859 0.235547 0.155437)
(-0.262484 0.183065 0.692406)
(-0.175945 0.135941 0.484778)
(-0.48849 0.390878 0.163123)
(-0.389238 0.318667 0.116443)
(-0.835234 0.236679 0.681201)
(-0.60341 0.190963 0.492632)
(-0.647826 0.7068 0.382374)
(-0.672576 0.735369 0.161534)
(-0.717671 0.723588 0.329493)
(-0.681848 0.613565 0.146395)
(-0.249577 0.565958 0.150878)
(-0.196616 0.440478 0.355691)
(-1.53595 0.442306 1.32888)
(-2.05656 0.501827 0.360616)
(-0.992034 0.713159 0.47528)
(-1.21821 0.709126 0.161404)
(-2.06874 1.493 1.71486)
(-2.68403 1.5429 0.466324)
(-1.07049 1.05995 0.446388)
(-1.2254 1.09104 0.155205)
(-1.13711 0.602379 0.947018)
(-1.60684 0.507989 0.294154)
(-0.991673 0.657526 0.48563)
(-1.31517 0.469172 0.169766)
(-0.578972 0.305823 0.821563)
(-0.934765 0.313568 0.261508)
(-0.110417 0.248869 0.225103)
(-0.0371606 0.343089 0.111604)
(-0.11643 0.13007 0.338094)
(-0.0419113 0.155336 0.131172)
(-0.333573 0.341545 0.243418)
(-0.134425 0.461642 0.13175)
(-0.458532 0.20295 0.330036)
(-0.168395 0.235334 0.126009)
(-0.325147 0.379691 0.310751)
(-0.124919 0.629015 0.176738)
(-0.347628 0.262588 0.284361)
(-0.111343 0.426778 0.122898)
(-0.593395 0.100321 0.423477)
(-0.188612 0.254312 0.151694)
(-0.765997 0.0834567 0.145881)
(-0.258171 0.19004 0.0507745)
(-0.942827 0.702301 0.478394)
(-0.467024 0.866769 0.329919)
(-0.863083 0.722528 0.296917)
(-0.511841 0.861832 0.216267)
(-0.886752 0.859917 0.540123)
(-0.573446 0.869386 0.443969)
(-0.7797 0.873545 0.295443)
(-0.587691 0.856811 0.255719)
(-0.676538 0.613479 0.279374)
(-0.401637 0.830223 0.187247)
(-0.675877 0.632486 0.39124)
(-0.343346 0.820871 0.259412)
(-0.890292 0.710678 0.196297)
(-0.570506 0.855126 0.143894)
(-0.892173 0.709845 0.100448)
(-0.576128 0.852678 0.0822096)
(-0.823213 0.879429 0.191001)
(-0.622759 0.844933 0.165026)
(-0.833131 0.875706 0.0997121)
(-0.625941 0.836388 0.0960193)
(-0.730977 0.566143 0.187182)
(-0.464729 0.833248 0.121877)
(-0.757232 0.546162 0.0964876)
(-0.476454 0.835954 0.0615132)
(-0.690004 0.68693 0.24824)
(-0.297844 0.801524 0.13451)
(-0.31784 0.867664 0.184759)
(-0.385728 1.20377 0.224423)
(-0.692909 0.726989 0.337644)
(-0.325217 0.921995 0.240014)
(-0.276432 0.859364 0.265955)
(-0.38961 1.30287 0.382502)
(-0.730984 0.651635 0.165039)
(-0.296847 0.707228 0.0778789)
(-0.360954 0.871545 0.109339)
(-0.389396 1.15963 0.128938)
(-0.767383 0.644841 0.0823659)
(-0.304219 0.66259 0.0340288)
(-0.393005 0.881123 0.0474004)
(-0.407321 1.15196 0.0478438)
(-0.143115 0.200436 0.292724)
(-0.156121 0.260435 0.525883)
(-0.0479187 0.509738 0.199271)
(-0.0929175 0.882119 0.588052)
(-0.419955 0.250105 0.344525)
(-0.443625 0.283008 0.51563)
(-0.16134 0.659937 0.245721)
(-0.284045 1.00918 0.617192)
(-0.537771 0.313876 0.393226)
(-0.598722 0.316581 0.468159)
(-0.256796 0.841675 0.317892)
(-0.435701 1.13616 0.604851)
(-0.489939 0.965608 0.475677)
(-0.0468634 1.042 0.57461)
(-0.536422 0.812318 0.351529)
(-0.657438 0.779971 0.336774)
(-0.354543 1.11704 0.370125)
(-0.033414 1.05096 0.573309)
(-0.299971 0.988843 0.522241)
(-0.479983 0.830243 0.50637)
(-0.771231 0.716588 0.515725)
(-0.527957 1.27118 0.747832)
(-0.388392 0.956709 0.465744)
(-0.469411 0.941184 0.352745)
(-0.407693 0.834647 0.301077)
(-0.349558 0.823056 0.336472)
(-0.547098 1.46128 0.532007)
(-0.138273 0.0783849 0.606904)
(-0.114593 0.0937966 0.539861)
(-0.0787625 0.16642 0.704887)
(-0.0782553 0.372574 0.674592)
(-0.390682 0.111763 0.555683)
(-0.331526 0.125658 0.513268)
(-0.233572 0.23201 0.697212)
(-0.222508 0.421729 0.661388)
(-0.488966 0.168023 0.481401)
(-0.417385 0.142003 0.467727)
(-0.305213 0.318098 0.655367)
(-0.274374 0.489416 0.638463)
(-0.235221 1.04507 0.417344)
(-0.298345 1.04069 0.325709)
(-0.483793 0.939543 0.381288)
(-0.500221 0.932027 0.329278)
(-0.554882 0.799521 0.412558)
(-0.505439 0.739621 0.364396)
(-0.625181 0.603179 0.440122)
(-0.546158 0.536915 0.418463)
(-0.417924 0.421233 0.605962)
(-0.351518 0.579129 0.615724)
(-0.359716 0.949302 0.390527)
(-0.381875 0.92348 0.335581)
(-0.473779 0.953202 0.366946)
(-0.378891 0.943956 0.347115)
(-0.430147 0.82454 0.374427)
(-0.317813 0.777373 0.39078)
(-0.370896 0.678085 0.419513)
(-0.259576 0.610124 0.465073)
(-0.428683 0.450299 0.548192)
(-0.282647 0.588237 0.627234)
(-0.407001 0.941216 0.320875)
(-0.196056 1.06199 0.251557)
(-0.348389 0.937523 0.221196)
(-0.380507 1.08653 0.282696)
(-0.499587 0.913039 0.438923)
(-0.65506 0.948778 0.536988)
(-0.549252 0.890057 0.30514)
(-0.80156 0.953321 0.484194)
(-0.276362 0.85186 0.185521)
(-0.309814 0.867538 0.245424)
(-0.359861 0.845229 0.275253)
(-0.122028 0.843015 0.22625)
(-0.31009 0.929672 0.0526548)
(-0.599804 1.09047 0.187971)
(-0.29395 0.924907 0.0279187)
(-0.642038 1.08887 0.0677571)
(-0.543577 0.863313 0.156179)
(-0.988753 0.96393 0.32634)
(-0.552954 0.855646 0.0581611)
(-1.04817 0.961075 0.113468)
(-0.233324 0.85513 0.0235871)
(-0.513567 0.865615 0.158084)
(-0.211599 0.85461 0.013813)
(-0.546306 0.864851 0.0554544)
(-0.32143 0.71409 0.181359)
(-0.245979 0.679246 0.184462)
(-0.445235 0.459399 0.206016)
(-0.178865 0.509372 0.12672)
(-0.332779 0.708718 0.286232)
(-0.0733188 0.660707 0.227775)
(-0.389316 0.451963 0.336681)
(-0.0367608 0.509291 0.230218)
(-0.308172 0.724457 0.0408887)
(-0.36594 0.677725 0.100926)
(-0.466155 0.469687 0.101954)
(-0.216682 0.512452 0.0571297)
(-0.254383 0.727453 0.0573396)
(-0.43057 0.67104 0.0747565)
(-0.411999 0.484416 0.0815402)
(-0.283559 0.513228 0.0614374)
(-0.092017 0.0648002 0.427795)
(-0.0816751 0.0448241 0.258887)
(-0.0739354 0.0316174 0.0810063)
(-0.0659282 0.0381494 0.485114)
(-0.0608971 0.0269525 0.277188)
(-0.0549793 0.0252666 0.0905288)
(-0.273408 0.089753 0.410129)
(-0.227303 0.0553225 0.256157)
(-0.198876 0.0425804 0.0860267)
(-0.174366 0.0757713 0.478198)
(-0.142392 0.0619227 0.277674)
(-0.124909 0.0541227 0.0904551)
(-0.337894 0.105899 0.377463)
(-0.294709 0.0907967 0.235028)
(-0.273697 0.092196 0.0769942)
(-0.210404 0.133816 0.467522)
(-0.174313 0.111251 0.279493)
(-0.165866 0.100818 0.0931952)
(-0.264665 1.00607 0.210387)
(-0.237203 0.920514 0.11213)
(-0.232484 0.858706 0.0297459)
(-0.438682 0.922261 0.265041)
(-0.338962 0.86545 0.173784)
(-0.287802 0.817539 0.0604651)
(-0.409898 0.659805 0.313098)
(-0.308173 0.620158 0.215848)
(-0.252672 0.598623 0.0743587)
(-0.431037 0.444783 0.360116)
(-0.345165 0.392159 0.232084)
(-0.302376 0.370211 0.0768519)
(-0.263129 0.203536 0.463737)
(-0.176485 0.15324 0.287738)
(-0.1392 0.1312 0.100637)
(-0.631387 0.907201 0.251305)
(-0.553196 0.851666 0.139432)
(-0.48358 0.801179 0.0436175)
(-0.402823 0.926629 0.247074)
(-0.339965 0.856284 0.177146)
(-0.286067 0.799072 0.0665986)
(-0.354379 0.683161 0.290693)
(-0.280039 0.596524 0.21459)
(-0.227183 0.54679 0.0784825)
(-0.294811 0.443642 0.363901)
(-0.21669 0.361754 0.254731)
(-0.169584 0.328533 0.0907506)
(-0.298699 0.216837 0.468661)
(-0.168668 0.152837 0.29069)
(-0.0971846 0.124016 0.102779)
(-0.410378 1.06589 0.0118628)
(-0.55708 1.04651 0.0799673)
(-0.323787 1.15839 0.112729)
(-0.419544 1.04261 0.163236)
(-0.439251 1.19207 0.0856785)
(-0.646632 1.0434 0.0988175)
(-0.39169 1.43598 0.215601)
(-0.571787 1.09622 0.205046)
(-0.00216334 0.828137 0.0240126)
(-0.0296798 0.844221 0.0415858)
(0.0196836 0.816757 0.0256436)
(-0.00426033 0.759792 0.0433294)
(-0.11859 0.929271 0.0194767)
(-0.134759 0.878445 0.0567211)
(-0.0490632 0.910721 0.0348011)
(-0.0265907 0.779913 0.0744431)
(-0.0280003 0.900903 0.128826)
(-0.0967659 0.89684 0.0631068)
(-0.373746 0.831886 0.163117)
(-0.546759 0.89295 0.0942821)
(-0.265639 1.1135 0.0872032)
(-0.144558 0.996117 0.152002)
(-0.390959 1.09631 0.135561)
(-0.387925 1.11204 0.0386421)
(-0.599898 1.1883 0.239825)
(-0.660539 1.22781 0.0596269)
(0.023613 0.91282 -0.0739178)
(0.162316 0.946556 0.0307632)
(-0.300453 0.818683 0.0725509)
(-0.283324 0.794306 0.0548199)
(-0.28316 0.99623 0.0507782)
(-0.218508 1.02092 0.047858)
(-0.0412954 0.65201 0.396274)
(-0.0221524 0.34633 0.185534)
(-0.0263577 0.607564 0.108491)
(-0.0104054 0.384147 0.0686181)
(-0.0805642 0.661382 0.402554)
(-0.00969409 0.349373 0.193087)
(0.0135155 0.605215 0.136144)
(0.0337088 0.381392 0.0865828)
(-0.36858 0.653304 0.397685)
(-0.0978573 0.351407 0.208121)
(-0.248126 0.60429 0.197965)
(-0.0659386 0.397868 0.14146)
(-0.357369 0.586919 0.141548)
(-0.109741 0.416518 0.103454)
(-0.43247 0.593554 0.0715223)
(-0.140437 0.413043 0.0689918)
(-0.350084 0.840238 0.502476)
(-0.47492 0.721918 0.447438)
(-0.324163 0.832871 0.237046)
(-0.463787 0.719317 0.246473)
(-0.558765 0.925961 0.535171)
(-0.593628 0.839117 0.502854)
(-0.533761 0.93258 0.264244)
(-0.562924 0.829111 0.266917)
(-0.226646 0.816776 0.213425)
(-0.37951 0.602183 0.220263)
(-0.261204 0.854852 0.436261)
(-0.376629 0.595671 0.366103)
(-0.343934 0.849585 0.14218)
(-0.44723 0.714926 0.1488)
(-0.379408 0.85945 0.0806302)
(-0.452337 0.706494 0.0910555)
(-0.556142 0.954731 0.163427)
(-0.553378 0.821212 0.162539)
(-0.582473 0.954494 0.0908109)
(-0.556188 0.810225 0.0969608)
(-0.228788 0.807127 0.125803)
(-0.36779 0.60319 0.135524)
(-0.248927 0.803948 0.0717977)
(-0.375114 0.599255 0.0872374)
(0.000120606 0.53561 0.192796)
(-0.0602135 0.352592 0.138419)
(-0.303977 0.476413 0.193552)
(-0.197891 0.297662 0.141631)
(0.0230038 0.500441 0.299539)
(-0.0435012 0.315368 0.183135)
(-0.281669 0.458693 0.287498)
(-0.175381 0.277507 0.195934)
(-0.0178426 0.547903 0.117091)
(-0.0700233 0.375123 0.100291)
(-0.31117 0.483552 0.122806)
(-0.215343 0.306917 0.0918257)
(-0.0361153 0.548152 0.0667229)
(-0.0809366 0.389156 0.0634899)
(-0.313471 0.482083 0.0783668)
(-0.223527 0.309054 0.0539779)
(0.0268631 0.100521 0.473767)
(0.0311633 0.0512926 0.339497)
(-0.00736013 0.179894 0.245203)
(-0.00163274 0.0895875 0.255509)
(0.114832 0.10773 0.471834)
(0.116852 0.0641557 0.346514)
(0.00675656 0.192109 0.246801)
(0.0126376 0.110126 0.254299)
(0.0206466 0.133814 0.488648)
(0.0770049 0.0992376 0.357527)
(-0.0722234 0.214027 0.250356)
(-0.046926 0.149288 0.24671)
(0.40942 0.526517 0.551362)
(0.379089 0.812613 0.588514)
(0.221755 0.37861 0.508585)
(0.168083 0.362375 0.346348)
(0.0133025 0.250012 0.204257)
(0.416496 0.798357 0.557776)
(0.432117 0.558772 0.523937)
(0.17279 0.327585 0.49474)
(0.254423 0.328684 0.416888)
(0.0283437 0.203917 0.281038)
(-0.405187 0.827165 0.523054)
(-0.321097 0.654333 0.478585)
(-0.290135 0.521685 0.388235)
(-0.276823 0.404925 0.305227)
(-0.175329 0.242018 0.198811)
(0.0324821 0.0263227 0.2971)
(0.030812 0.0200844 0.270917)
(0.000387274 0.0451026 0.282863)
(-0.0043654 0.0303553 0.330621)
(0.102716 0.0394295 0.303883)
(0.103445 0.0272274 0.264209)
(0.000803818 0.0702068 0.284579)
(-0.0102393 0.0544626 0.325134)
(0.102996 0.0714906 0.312855)
(0.128474 0.057389 0.258522)
(-0.0335891 0.109258 0.285704)
(-0.0489191 0.0879116 0.318653)
(0.205396 0.815253 0.421147)
(0.0953521 0.798501 0.29679)
(0.328788 0.556737 0.399964)
(0.209041 0.542427 0.280012)
(0.146205 0.363359 0.322141)
(0.112778 0.374768 0.26374)
(0.164231 0.305465 0.308705)
(0.145002 0.28875 0.269515)
(-0.0254152 0.172996 0.264147)
(-0.0664444 0.141795 0.314109)
(-0.14951 0.762213 0.349584)
(-0.0946109 0.701723 0.303274)
(-0.0416397 0.595221 0.314655)
(0.0417949 0.531761 0.276497)
(-0.0433554 0.465972 0.274783)
(0.0293924 0.423567 0.252424)
(-0.0758575 0.35341 0.250033)
(-0.0211089 0.328491 0.253201)
(-0.0966767 0.213787 0.209203)
(-0.111606 0.219497 0.299341)
(-0.211058 0.607236 0.281236)
(-0.194113 0.501369 0.190603)
(-0.400387 0.609324 0.187083)
(-0.242821 0.487241 0.111281)
(-0.32368 0.724497 0.362021)
(-0.327809 0.609115 0.279024)
(-0.491513 0.720808 0.25224)
(-0.399449 0.597671 0.202121)
(-0.321311 0.513902 0.156021)
(-0.192067 0.427046 0.0947495)
(-0.162398 0.499623 0.226476)
(-0.162545 0.430338 0.169549)
(-0.471567 0.608428 0.18967)
(-0.209892 0.478391 0.0896223)
(-0.518712 0.604366 0.0700126)
(-0.235282 0.477296 0.0403834)
(-0.548109 0.716946 0.198508)
(-0.407683 0.607345 0.143195)
(-0.584969 0.709585 0.0699312)
(-0.436634 0.605001 0.0578433)
(-0.388638 0.52248 0.166519)
(-0.157523 0.419366 0.0753849)
(-0.435159 0.521447 0.0660001)
(-0.182157 0.42494 0.0350921)
(-0.261934 0.400169 0.134484)
(-0.212733 0.348461 0.126889)
(-0.21215 0.25542 0.123368)
(-0.315222 0.280498 0.183846)
(-0.17222 0.386272 0.187339)
(-0.196074 0.342101 0.181521)
(-0.182449 0.243044 0.158069)
(-0.292415 0.266522 0.23675)
(-0.301052 0.417088 0.134451)
(-0.211425 0.355022 0.089828)
(-0.239135 0.261991 0.0882878)
(-0.361415 0.297874 0.12378)
(-0.363412 0.427359 0.041669)
(-0.229831 0.355186 0.0208355)
(-0.295399 0.272862 0.0111663)
(-0.373498 0.302359 0.0244455)
(0.032507 0.0806002 0.18924)
(0.0354948 0.071498 0.0788214)
(0.0402683 0.0594268 0.0231889)
(0.000194256 0.355873 0.220865)
(0.012331 0.189564 0.0568143)
(0.0140444 0.155024 0.0150719)
(0.11901 0.0776772 0.190062)
(0.128713 0.0774861 0.0846013)
(0.129539 0.0691109 0.0259183)
(0.0073931 0.383292 0.219544)
(0.0354352 0.223078 0.0588765)
(0.0360109 0.189407 0.0163683)
(0.149725 0.105895 0.174855)
(0.170459 0.120061 0.0825849)
(0.176323 0.123695 0.0212784)
(-0.0286105 0.419468 0.214357)
(0.0341056 0.277696 0.0595547)
(0.0471264 0.248157 0.013892)
(0.0526687 0.764286 0.181939)
(0.0455441 0.725006 0.0908666)
(0.0335474 0.694354 0.0195466)
(0.157402 0.531719 0.169897)
(0.162574 0.524093 0.0811673)
(0.152581 0.517866 0.0186813)
(0.129016 0.394462 0.172453)
(0.148244 0.396365 0.0822933)
(0.146776 0.399167 0.022069)
(0.159584 0.345758 0.17649)
(0.175062 0.339237 0.082492)
(0.172188 0.333088 0.0172123)
(-0.0620027 0.473577 0.212518)
(0.0145709 0.341557 0.0581031)
(0.0208347 0.310075 0.00862356)
(-0.137067 0.649881 0.232419)
(-0.0772719 0.609342 0.11552)
(-0.0398931 0.580384 0.0301752)
(0.0436624 0.493389 0.215436)
(0.0920707 0.468061 0.106643)
(0.117959 0.452763 0.0288433)
(0.0407693 0.41867 0.201711)
(0.103705 0.396009 0.0994568)
(0.131265 0.381824 0.0288065)
(0.0163168 0.411805 0.197395)
(0.0853957 0.370788 0.0838189)
(0.105485 0.345693 0.0203731)
(-0.104065 0.57431 0.229738)
(0.0212669 0.384964 0.0539267)
(0.036421 0.347833 0.013083)
(0.000975892 0.186477 0.0736016)
(0.00166493 0.117709 0.0266271)
(0.00229376 0.0876971 0.00518449)
(0.00351503 0.0804878 -0.00868208)
(0.0109865 0.212264 0.030597)
(0.00643125 0.129257 0.0117108)
(0.00548849 0.0930608 0.0031589)
(0.00548458 0.0824002 -0.0017614)
(-9.9222e-05 0.187165 0.0780887)
(0.00325707 0.117329 0.0292683)
(0.00787199 0.0878192 0.00748552)
(0.012543 0.0811277 -0.00538289)
(0.0177976 0.217009 0.038874)
(0.0118788 0.131976 0.0163308)
(0.0135371 0.0947794 0.00781715)
(0.0150178 0.0831231 0.00365634)
(-0.010114 0.18594 0.0840673)
(0.00122985 0.115427 0.0326731)
(0.0111864 0.0873211 0.0113929)
(0.0222402 0.0801875 -0.000343989)
(0.00620925 0.221227 0.0667592)
(0.00974347 0.133411 0.0316196)
(0.0130027 0.0962456 0.0126536)
(0.015165 0.0823134 0.00302836)
(0.00136789 0.239249 0.051039)
(0.00591595 0.142127 0.0293558)
(0.00643924 0.0992822 0.0111715)
(0.00646143 0.0866399 -7.90081e-05)
(-0.00903957 0.246816 0.0483189)
(-0.000206298 0.148082 0.03234)
(0.00525067 0.102975 0.0195054)
(0.00910785 0.0903952 0.0118987)
(-0.0403665 0.198926 0.0699532)
(-0.00824121 0.123339 0.0314137)
(0.00468511 0.0906747 0.00990263)
(0.0139555 0.0808918 -0.00747217)
(-0.0632307 0.156439 0.0602087)
(-0.014684 0.104809 0.0266403)
(0.000739636 0.0816976 0.0117968)
(0.0237271 0.0777676 -0.00765372)
(-0.0284885 0.171646 0.0827143)
(-0.00349921 0.109986 0.0323212)
(0.00805429 0.083642 0.0104094)
(0.0201392 0.0746084 -0.005627)
(-0.0521574 0.141971 0.0750919)
(-0.0111913 0.0978664 0.0294675)
(-3.05127e-05 0.0780411 0.0117415)
(0.0208415 0.0743717 -0.0126797)
(-0.0428186 0.217094 0.0563042)
(-0.00984459 0.133372 0.0294434)
(0.00567826 0.095756 0.0121619)
(0.0173856 0.0850875 -0.00227129)
(-0.0707853 0.164988 0.046382)
(-0.0174597 0.109873 0.0237133)
(0.000671068 0.0840686 0.0128824)
(0.0278477 0.0804915 0.00018784)
(-0.0477133 0.227274 0.0418828)
(-0.0130905 0.140122 0.0261984)
(0.0051141 0.0992682 0.0159923)
(0.0205919 0.0879153 0.0100687)
(-0.0762151 0.168568 0.0321238)
(-0.0200011 0.113445 0.0202226)
(-0.000247273 0.0859419 0.0137846)
(0.02913 0.0818583 0.00832294)
(0.000139446 0.135643 0.0941628)
(0.00095478 0.0984733 0.0321317)
(0.0019782 0.0786702 0.00499931)
(0.00438876 0.0760287 -0.0172083)
(0.00135229 0.0785757 0.0939929)
(0.00131464 0.0750598 0.0296868)
(0.0012317 0.0675751 0.00702905)
(0.00403021 0.0713259 -0.0235914)
(0.0023952 0.135593 0.0941322)
(0.0032946 0.0976625 0.0326542)
(0.00605216 0.0783786 0.00591293)
(0.0118108 0.0757682 -0.0163553)
(0.0063379 0.0826904 0.0910998)
(0.0044884 0.0761554 0.0289126)
(0.00377281 0.0679792 0.00738957)
(0.0108885 0.0717253 -0.0228465)
(-0.0178307 0.13859 0.0924447)
(-0.00216421 0.0971515 0.0328634)
(0.00672627 0.078365 0.00910956)
(0.0202331 0.0758618 -0.0116878)
(-0.0086518 0.0960401 0.0850336)
(0.00110748 0.08005 0.0274135)
(0.00506705 0.0694911 0.0092155)
(0.0192464 0.073567 -0.0187324)
(-0.00445439 0.135392 0.0810672)
(0.00491705 0.0936784 0.0304489)
(0.00987156 0.0762378 0.0127482)
(0.0201763 0.0771374 -0.00170834)
(-0.00179099 0.107301 0.0932744)
(0.00393122 0.0825914 0.0307679)
(0.00439303 0.0712482 0.0131254)
(0.0194233 0.0728153 -0.0219217)
(-0.0451944 0.12247 0.0727776)
(-0.00860328 0.0897232 0.027352)
(0.00162233 0.0738107 0.0128954)
(0.0271107 0.0731334 -0.00517923)
(0.00339298 0.0183997 0.0750935)
(0.00187302 0.0557455 0.0209956)
(0.0014336 0.052031 0.00636993)
(0.00303489 0.0155593 -0.0160549)
(0.00672903 -0.0519527 0.0300386)
(0.00276148 0.0447335 0.00764445)
(0.00149202 0.045386 0.00178133)
(0.00140893 0.016835 -0.00337392)
(0.0067885 0.0286339 0.0773985)
(0.00443936 0.0590779 0.0224186)
(0.00322436 0.0532936 0.00719683)
(0.00785155 0.0164814 -0.0152854)
(0.0171047 -0.0386516 0.0312293)
(0.00733507 0.0484997 0.00826665)
(0.00378886 0.0465147 0.00231233)
(0.0036376 0.0172177 -0.00276542)
(0.00339728 0.0477197 0.0785412)
(0.00490223 0.0649482 0.0240276)
(0.00451538 0.0553503 0.00901958)
(0.0129425 0.0164444 -0.0134106)
(0.0213806 -0.0163386 0.0316752)
(0.0102932 0.0548098 0.00897458)
(0.00571977 0.0482484 0.00302876)
(0.00574485 0.0174527 -0.00200702)
(-0.0051943 0.0707751 0.0707522)
(0.00440909 0.0718028 0.0227028)
(0.00569299 0.0580588 0.0104377)
(0.0179762 0.0179304 -0.0105842)
(0.0162023 0.00685475 0.0306761)
(0.0110915 0.0616743 0.00928172)
(0.00682319 0.0506161 0.00417392)
(0.0073252 0.0182476 -0.000660261)
(-0.0242785 0.0852999 0.0647424)
(0.000419499 0.0778854 0.0226464)
(0.0032824 0.0613691 0.0115225)
(0.0173769 0.0211507 -0.0061551)
(0.00367272 0.0114527 0.0273556)
(0.00953952 0.0666359 0.00980608)
(0.00639417 0.052789 0.00574118)
(0.00755748 0.0189367 0.00119239)
(-0.0525329 0.0910963 0.0453798)
(-0.00526676 0.0842666 0.0184761)
(0.00284172 0.0630046 0.00914675)
(0.020151 0.0199823 -0.00176448)
(-0.0173001 -0.00521904 0.0257514)
(0.00238504 0.0713114 0.0129339)
(0.00417899 0.056691 0.00803287)
(0.00711798 0.0201213 0.00434687)
(-0.0410285 0.0888346 0.052348)
(-0.00165821 0.0814387 0.0186601)
(0.0033113 0.0617796 0.00906361)
(0.0188065 0.0200102 -0.00439233)
(-0.0109035 -0.00617861 0.0259375)
(0.00556945 0.0691236 0.0111821)
(0.00548818 0.0547513 0.00689465)
(0.00767221 0.0194223 0.0027845)
(-0.0631567 0.0914131 0.0366378)
(-0.00976295 0.0862678 0.0180001)
(0.00131115 0.0642041 0.0102067)
(0.0218515 0.0185264 0.00171933)
(-0.0231499 -0.00854646 0.0232155)
(-0.00079196 0.0732347 0.0137248)
(0.00276126 0.0581023 0.00895974)
(0.00666328 0.0202666 0.0058724)
(-0.0711444 0.0935856 0.0259778)
(-0.0142822 0.0884505 0.0164603)
(-0.000850483 0.0661364 0.0114742)
(0.0215776 0.0189999 0.00729223)
(-0.0286235 -0.00430152 0.0195042)
(-0.00430732 0.0755067 0.0137706)
(0.000878277 0.0598025 0.00989624)
(0.00576078 0.0208147 0.00762105)
(0.00156816 0.0785298 -0.000772843)
(0.000712473 0.0618941 0.000352222)
(0.000379556 0.0437468 0.000360604)
(0.000230863 0.0259196 0.000258129)
(0.000171325 0.00857446 0.000200335)
(0.00207223 0.0776144 -0.000112678)
(0.00109758 0.061766 0.000235736)
(0.000624798 0.0437782 0.000203256)
(0.000389994 0.0259529 0.000142693)
(0.000291478 0.00858604 0.000110779)
(0.00374319 0.0794813 0.0004245)
(0.00165941 0.0623697 0.00099721)
(0.000881939 0.0439844 0.000733527)
(0.000539365 0.0260322 0.000494304)
(0.000403343 0.0086076 0.000377774)
(0.00470288 0.0787492 0.0011845)
(0.00246244 0.0623751 0.000969392)
(0.00140328 0.0440973 0.000634421)
(0.000880416 0.0261075 0.000416014)
(0.000660308 0.00863208 0.000315732)
(0.00496236 0.081252 0.00174613)
(0.00207859 0.063051 0.00178637)
(0.001091 0.044294 0.00120767)
(0.000666609 0.0261749 0.000802043)
(0.000499848 0.00864937 0.000611559)
(0.00633714 0.0801373 0.00485246)
(0.00326903 0.0631081 0.00328644)
(0.00186727 0.0444752 0.00205818)
(0.00117804 0.0262908 0.00133785)
(0.000886672 0.00868711 0.00101311)
(0.00333502 0.0814216 0.00585421)
(0.00167792 0.0639551 0.00388768)
(0.000954145 0.0449767 0.00243152)
(0.000603052 0.0265484 0.0015836)
(0.000454191 0.00876615 0.00120254)
(0.0023514 0.0833517 0.00850524)
(0.000979129 0.0651839 0.00515367)
(0.000510295 0.0456966 0.00313272)
(0.000313638 0.0269179 0.00202254)
(0.000233968 0.00887951 0.00153363)
(0.00500884 0.0830929 0.00309878)
(0.00213077 0.0638753 0.00261495)
(0.0011387 0.044742 0.00170794)
(0.000703626 0.0263982 0.00112404)
(0.000525852 0.00871722 0.000851955)
(0.00238647 0.0887729 0.00330473)
(0.000870791 0.0648978 0.00246433)
(0.000438712 0.0450356 0.00157469)
(0.000265453 0.0265094 0.00103387)
(0.000196959 0.00874804 0.000783978)
(0.00527685 0.0834754 0.00212635)
(0.00248133 0.0636637 0.00209165)
(0.00138671 0.0445249 0.00139232)
(0.000869774 0.0262736 0.000924456)
(0.000653877 0.00867748 0.000704022)
(0.00225187 0.0886414 0.00388505)
(0.000866404 0.0645301 0.00254821)
(0.000449835 0.0447954 0.00157522)
(0.000274312 0.0263832 0.00102724)
(0.000203307 0.00870865 0.000776723)
(0.00384592 0.0838878 0.00404497)
(0.00138925 0.0646229 0.00312674)
(0.000688632 0.0451924 0.0020174)
(0.000415455 0.026631 0.00132519)
(0.000308676 0.00878905 0.00100693)
(0.00225886 0.0903858 0.00442597)
(0.000777373 0.0656229 0.00295157)
(0.000383972 0.0454457 0.00184598)
(0.000232179 0.0267196 0.00120481)
(0.000172619 0.00881295 0.000913905)
(0.00331844 0.0857537 0.0067627)
(0.000883992 0.0658136 0.00415282)
(0.000353055 0.0458696 0.00253015)
(0.000194808 0.0269757 0.00163459)
(0.000139657 0.00889483 0.00123886)
(0.00183116 0.0923677 0.00564916)
(0.000416795 0.0666837 0.00342841)
(0.000151778 0.0460321 0.00208546)
(8.04177e-05 0.0270176 0.0013471)
(5.66106e-05 0.00890476 0.0010193)
(0.00130493 0.0807531 -0.00143319)
(0.000536955 0.0622044 0.000184177)
(0.000275794 0.0437449 0.000267832)
(0.000164424 0.0258929 0.000198272)
(0.000121018 0.00856432 0.000155097)
(0.000941811 0.0849874 -0.000783739)
(0.000425975 0.0625489 5.91661e-05)
(0.000228707 0.0437542 0.000105114)
(0.000138215 0.0258774 7.93538e-05)
(0.000102073 0.00855822 6.28942e-05)
(0.00318713 0.081641 -0.000648124)
(0.00135 0.0625791 0.000588617)
(0.000711063 0.0439215 0.000498469)
(0.000429971 0.0259745 0.000344205)
(0.000319264 0.00858795 0.000265739)
(0.00243259 0.0856884 -0.000503349)
(0.00112406 0.0628302 0.000202493)
(0.000614004 0.0438889 0.000185514)
(0.000374503 0.0259401 0.000129429)
(0.00027762 0.00857648 0.000100981)
(0.00446896 0.0834393 0.000341891)
(0.00166384 0.063208 0.00105866)
(0.000840721 0.0442005 0.000760591)
(0.00050126 0.0261026 0.000512024)
(0.000371161 0.00862512 0.000394351)
(0.00330872 0.0872326 0.00055341)
(0.00155285 0.0633424 0.000678213)
(0.000857316 0.0441292 0.000445722)
(0.000524746 0.0260527 0.000290687)
(0.000391657 0.00860923 0.000222973)
(0.00404322 0.0864276 0.00253408)
(0.00190926 0.0639365 0.0020591)
(0.00107312 0.0444836 0.00132072)
(0.000670365 0.0262284 0.000871872)
(0.000504566 0.00866126 0.000667338)
(0.00225747 0.089082 0.00168543)
(0.00118515 0.0638949 0.00129944)
(0.000676171 0.0444046 0.000815485)
(0.000418992 0.0261833 0.000534211)
(0.000315733 0.00864685 0.000409043)
(0.00210305 0.0892825 0.00467766)
(0.00105087 0.0643128 0.00269764)
(0.000603899 0.0446446 0.00161689)
(0.000381186 0.0263034 0.00104357)
(0.000286979 0.00868337 0.000789238)
(-0.0139006 0.366703 0.0625214)
(-0.0185508 0.561687 0.143049)
(-0.0315851 0.385911 0.0628257)
(-0.0455143 0.574363 0.141397)
(-0.0336634 0.414602 0.0682728)
(-0.0571657 0.591414 0.140044)
(-0.0135692 0.435415 0.0814123)
(-0.0470425 0.60353 0.145745)
(0.0119276 0.420568 0.0852233)
(-0.0106229 0.583382 0.150703)
(-0.0299735 0.393849 0.0339057)
(-0.0490962 0.44296 0.0532515)
(0.00514005 0.392822 0.0560608)
(0.00215372 0.461597 0.0900938)
(-0.0454347 0.396944 0.0178538)
(-0.0713744 0.440603 0.0258757)
(-0.0569377 0.404292 0.00624308)
(-0.0810922 0.446677 0.00852357)
(-0.0238258 0.323639 0.32731)
(-0.00551501 0.0553071 0.0780517)
(-0.00123935 0.0117861 0.0178556)
(-0.000273129 0.00263624 0.00398043)
(-6.83389e-05 0.000465781 0.000986632)
(-0.00830303 0.359575 0.089065)
(-0.00363085 0.102191 0.0239584)
(-0.000517823 0.0247569 0.00636464)
(-0.000135694 0.00560257 0.00144483)
(-5.81775e-05 0.000989586 0.000313251)
(-0.0732017 0.327792 0.32408)
(-0.0168705 0.0549868 0.0766396)
(-0.00380423 0.0116288 0.0175131)
(-0.000834243 0.00259056 0.00387087)
(-0.000209002 0.000456413 0.000966479)
(-0.0199316 0.363707 0.0906118)
(-0.00529478 0.101976 0.0267177)
(-0.00127378 0.0246021 0.00657611)
(-0.000266838 0.00553981 0.00152638)
(-7.12014e-05 0.000969963 0.000378292)
(-0.123186 0.332402 0.310579)
(-0.0284514 0.0549663 0.0729128)
(-0.00643209 0.0115201 0.0165945)
(-0.00141496 0.00255423 0.00366233)
(-0.000353683 0.000448961 0.00091532)
(-0.031476 0.367854 0.08795)
(-0.00892379 0.101957 0.0258482)
(-0.00214499 0.0244525 0.00634582)
(-0.00049366 0.00548382 0.00146565)
(-0.00012327 0.000958522 0.000364545)
(-0.165726 0.331359 0.285851)
(-0.0383912 0.053599 0.0664898)
(-0.00871346 0.0111277 0.0150823)
(-0.00192231 0.00246007 0.00332493)
(-0.000480998 0.00043202 0.000831061)
(-0.036524 0.365543 0.0855843)
(-0.0111942 0.100318 0.0246302)
(-0.00277851 0.0239615 0.00596794)
(-0.000647125 0.00536282 0.00136605)
(-0.000161352 0.000936194 0.000337903)
(-0.207702 0.316327 0.240751)
(-0.0485922 0.0498769 0.0556957)
(-0.0111038 0.0103301 0.0126373)
(-0.00246158 0.00229002 0.00278913)
(-0.000618404 0.000402984 0.000697891)
(-0.0401335 0.348171 0.0811246)
(-0.013539 0.0956953 0.0227109)
(-0.00346258 0.0229256 0.00544164)
(-0.000817574 0.00514436 0.00123756)
(-0.000206293 0.00089925 0.000305153)
(-0.247589 0.284721 0.115042)
(-0.0597233 0.0466835 0.0278257)
(-0.0138355 0.00998267 0.00641975)
(-0.00309254 0.00224865 0.00142671)
(-0.000780191 0.000398666 0.00035742)
(-0.0611076 0.291273 0.039618)
(-0.0186606 0.0839178 0.0112687)
(-0.00459758 0.020628 0.00267732)
(-0.00105315 0.00470367 0.000598074)
(-0.000262967 0.000829847 0.000147064)
(-0.229926 0.29363 0.17069)
(-0.0552499 0.0473666 0.040705)
(-0.0127426 0.0100086 0.00931983)
(-0.00283662 0.00224036 0.00206142)
(-0.000713448 0.00039592 0.000515701)
(-0.0479349 0.30705 0.0583152)
(-0.0158859 0.0882911 0.0163739)
(-0.00402776 0.0215132 0.00392472)
(-0.000940238 0.00486705 0.000891979)
(-0.000235004 0.0008542 0.000221395)
(-0.255853 0.281548 0.0676998)
(-0.0618276 0.0466147 0.0165072)
(-0.0143515 0.0100159 0.00382585)
(-0.00321296 0.00226173 0.000854306)
(-0.000811778 0.000401385 0.000214393)
(-0.0689536 0.286405 0.0221216)
(-0.0204089 0.0820617 0.00654892)
(-0.00495742 0.0201927 0.00154546)
(-0.00112022 0.0046192 0.000344929)
(-0.00027905 0.000817232 8.5598e-05)
(-0.266933 0.280891 0.0233801)
(-0.0639738 0.0463231 0.00566594)
(-0.014872 0.00994696 0.00131582)
(-0.00332814 0.00224734 0.000294735)
(-0.000840408 0.000398516 7.39837e-05)
(-0.0714019 0.28722 0.00884125)
(-0.0212151 0.0817249 0.00236387)
(-0.00520091 0.0200613 0.0005139)
(-0.00109194 0.00460043 0.000144872)
(-0.000287878 0.000812642 2.77483e-05)
(-0.0204594 1.32038 0.0057882)
(-0.272974 1.86802 0.0204824)
(-0.249162 1.82623 0.180218)
(-0.0896286 1.28218 -0.0327646)
(0.0645501 0.757542 0.0297951)
(0.110322 0.796592 0.0319317)
(0.307866 1.11703 0.0931182)
(0.450081 1.16541 0.119193)
(0.0687474 0.872452 0.0748964)
(0.330219 0.976483 0.140602)
(-0.0634488 1.38556 0.117839)
(0.103139 1.88682 0.1818)
(0.0990482 1.75019 0.141893)
(0.195046 2.31531 0.176127)
(0.367292 1.1439 0.0737823)
(0.519736 1.30233 0.099415)
(0.556096 0.898949 0.0788553)
(0.697705 0.959351 0.0935265)
(0.226979 0.488387 0.0410252)
(0.293933 0.535096 0.0426556)
(-0.789801 0.197696 0.0918075)
(-0.572466 0.131978 0.0673806)