/*--------------------------------*- C++ -*----------------------------------*\
| =========                 |                                                 |
| \\      /  F ield         | OpenFOAM: The Open Source CFD Toolbox           |
|  \\    /   O peration     | Version:  2306                                  |
|   \\  /    A nd           | Website:  www.openfoam.com                      |
|    \\/     M anipulation  |                                                 |
\*---------------------------------------------------------------------------*/
FoamFile
{
    version     2.0;
    format      ascii;
    arch        "LSB;label=32;scalar=64";
    class       volScalarField;
    location    "2.5";
    object      gradTy;
}
// * * * * * * * * * * * * * * * * * * * * * * * * * * * * * * * * * * * * * //

dimensions      [0 -1 0 1 0 0 0];

internalField   nonuniform List<scalar> 
5712
(
11528.7
6647.34
18704.1
12252.7
20397.5
15094.2
32042
39675.2
42106.6
51487.9
27221.8
23642.2
17296.2
13699.7
8678.54
5868.96
19392.4
19873.8
16686.9
19623.7
26193.7
23432.5
30181.7
24468.2
8153.95
5888.66
4576.63
3398.53
9771.96
7966.66
5916.98
4774.07
17670
18384.2
18089.7
15339.1
14149
11011.9
11057.6
12545.7
17829
17728.1
37325.1
38572.5
26498.8
27276
15059.5
12699.7
16438.2
11729.3
7645.58
7839.21
6221.71
8577.21
3251.74
3883.4
8538.62
11541.1
5073.75
5883.34
9492.27
15725.4
6564.69
10669.4
2508.02
6357.8
2086.42
4751.01
17557.5
21669.2
18063.2
21545.8
21497.9
21734.7
21838.6
21420.3
15337
20755.6
15812.2
20521.8
17767
21378.1
17746.1
21316.9
21985.7
21123.3
21892.6
20909.7
14153.6
20831.2
13654
20898.9
17173.2
20038.1
21691.6
30094.2
18174.7
23049.9
21484.1
32571.6
16290.9
17680.7
21788.6
28990.7
16121
16564.7
22028.1
28799
5010.89
6510.86
12743.5
22053
6252.62
7075.2
16498.4
25229.5
7846.89
7914.53
21041.9
28404.1
24140.2
26049.9
20307.9
19499.3
27925.9
26273.9
24721.1
20756.1
17914.7
31779.6
23917.7
23529.6
20866.2
20576.4
36532
1959.62
2344.92
4160.49
9314.34
2794.08
3141.46
5800.25
10543.2
4200.56
3550.08
7952.44
12235.4
26126.7
26017.3
23488.6
23300.7
19988
18490.5
15079.5
13422.9
10530.8
14478.2
23732.6
23087
23830
23598.9
20613.5
19434.3
16952.1
15253.1
11257.5
14705.9
23530.4
26549.8
23438.1
27163.2
22826
23719.5
22251.4
23833
21296.5
21688.5
21130.7
21075.4
23241.8
27261.9
23122.7
27221.9
21582.8
24098.2
21391.1
24026.9
21378.2
21640.4
21365.3
21621.3
17852.3
16981.1
11485
12734.3
17717.9
16517.7
11299.1
12732.3
18111.4
16943.1
11742.2
12811.3
18186.3
16776
12110.4
12830.7
1620
1120.6
790.434
953.735
673.812
631.664
2243.82
1383.06
1064.51
1894.28
1548.07
1353.07
2647.48
2269.92
2304.9
3345.4
2781.28
2520.45
25151.8
23012.8
21467.6
23056.5
21636.3
20438.5
16495.1
15504
14965.6
11119.6
9803.99
9255.26
5088.39
3831.01
3279.99
22680
21291.6
20029.5
23165.7
21407.1
19976.8
17079
14913.1
13669.7
11091
9043.85
8213.33
5420.93
3820.91
3100.4
26647.3
26162.8
28959.7
26065.2
29801.7
26085.1
35899.5
27405.4
20703.4
21105.5
20418.9
18994.8
23231.8
21961.1
22768
19497.8
22522.6
22421
20797.2
22323.7
27837.4
24902.9
27407.7
27801.1
29707.5
30695.3
22820.5
23663.9
20467.1
19857.7
24905.8
25523.1
16300.3
8658.26
15189.1
9603.67
16534.6
8734.31
15130.4
9534.79
16332.6
8785.17
15107.2
9946.7
14673
10413
14838.9
10326.1
21005.9
18047.9
20821.8
17982.9
23149
20977.9
23314.5
20727.8
20419.4
15054.6
21371.3
14891.8
21239.6
17873.1
21486.2
17662.4
23868.3
20530.3
23862.4
20255.6
20178.2
15079.8
20098.7
14981.4
13390.3
8814.8
11910.3
7441.54
12511
7884.21
11467.3
6937.68
13697.6
9378.07
12088.8
7672.92
13703.8
9728.91
12052.1
7726.35
2513.04
1282.32
4497.36
2239.69
2693.25
1603.89
4802.73
2753.15
3345.36
2480.94
5350.68
3732.2
13162.9
20315.3
9465.25
9059.38
6250.29
19958.9
13969.3
8189.63
8217.1
5097.93
20679.1
16358.3
13042.1
10123.1
6050.46
658.068
502.109
1127.57
758.883
985.736
680.685
1755.17
1361.56
1787.26
1434.73
2731.45
2197.79
20381.3
19962.5
13918.4
13560.7
9083.98
9369.19
7636.61
7218.75
4324.9
3544.87
19055.3
17543.1
14880.5
13294
11649.3
10589.2
8835.24
8212.27
5344.67
5487.42
15180.9
12534.2
15233.1
12181
18112.4
15227.9
18020.2
14941.8
12847.5
10676.1
12490.6
10758.4
15210.7
11959.8
15109.2
11932.4
17923.7
15183.6
17739.6
15125
13062
10484.2
13036.2
10623.5
10004.2
8711.51
6385.49
7012.46
9656.8
8552.54
6076.09
6663.05
10427.2
8875.55
6549.76
7446.84
10684
8879.66
6821.55
7558.97
2015.01
1787.45
1485.67
8896.82
4739.1
3875.61
1941.93
1937.15
1727.77
9582.3
5576.95
4735.18
2647.38
3001.52
3092.37
10486.7
6942.41
6203.93
19107.2
18125.2
17358.8
13293
13102.3
12946.6
9861.55
9909.14
9979.18
8643.95
8480.92
8327.19
11839.4
8538.92
7751.89
16247
15233.6
14509.6
12334.7
11701.5
11319.1
10466.8
9900.22
9545.61
10295.1
9269.7
8642.33
14357.8
9624.11
8695.83
4661.92
2942.74
2192.43
2012.2
5306.6
3231.44
2326.52
2060.01
4679.12
2933.22
2195.48
2028.19
5425.22
3299.41
2369.48
2078.08
4648.51
2885.68
2183.03
2004.69
5530.67
3335.27
2406.14
2057.84
5981.22
3553.18
2482.05
2166
6170.4
3702.05
2574.36
2259.88
4973.15
3083.47
2266.87
2022.29
3910.96
2620.23
2042.44
1944.19
4291.14
2749.64
2091.05
1865.21
3549.28
2446.66
1951.03
1859.29
5427.35
3334.31
2393.9
2127.19
4124.69
2746.83
2101.72
2012.29
5681.85
3503.04
2481.7
2197.88
4214.2
2836.12
2148.55
2046.46
3391.07
2461.83
1966.76
1900.72
1964.39
1876.49
1689.38
1783.15
3389.83
2441.56
1959.46
1894.21
2067.26
1903.89
1699.48
1793.13
3464.76
2428.79
1959.12
1896.55
2401
2001.25
1737.28
1839.17
3384.8
2341.96
1905.95
1928.44
2682.52
2064.78
1781.2
1820.38
3061.75
2243.08
1845.27
1828.34
459.993
1393.64
1300.78
388.983
-1298.82
1118.34
1134.65
420.876
715.847
1476.95
1332.34
412.035
-966.29
1212.49
1162.87
430.444
1192.99
1623.71
1383.76
411.111
-408.465
1370.25
1206.21
436.319
1769.38
1795.07
1451.47
448.261
171.369
1541.86
1265.4
456.189
2132.5
1947.14
1534.23
528.768
286.317
1665.9
1319.73
473.417
2277.41
2106.66
1575.11
499.557
-130.476
1782.79
1417.27
503.032
2220.86
2035.97
1544.49
500.254
-154.465
1728.09
1368.78
485.559
2285.33
2156.7
1605.1
463.16
-213.662
1830.87
1452.56
506.666
2339.64
2211.26
1653.41
474.997
-107.538
1887.67
1495.06
520.369
1963.24
1547.35
1093.67
647.991
214.362
1940.36
1544.15
1094.45
648.822
214.651
1987.03
1559.24
1099.61
650.805
215.19
1968.73
1559.38
1102.43
652.686
215.802
2031.3
1576.28
1107.35
654.373
216.234
2003.43
1577.7
1111.88
657.27
217.178
2035.54
1598.88
1124.42
663.71
219.154
2083.79
1629.6
1142.42
672.947
221.988
2077.32
1596.88
1118.55
659.954
217.931
2219.32
1622.44
1125.89
662.735
218.701
2086.88
1591.59
1113.12
656.84
216.937
2216.04
1613.25
1119.89
659.581
217.716
2097.2
1615.57
1129.81
665.776
219.726
2259.65
1640.57
1136.14
667.991
220.324
2143.84
1645.34
1146.74
674.393
222.371
2309.19
1667.09
1150.8
675.439
222.619
2018.83
1555.11
1093.62
647.322
214.108
2124.69
1563.72
1093.86
646.936
213.955
2041.03
1564.48
1098.04
649.362
214.699
2142.21
1570.76
1097.22
648.502
214.412
2085.98
1580.2
1105.01
652.566
215.628
2180.81
1583.56
1103.23
651.316
215.231
2160.69
1598.41
1112.09
655.709
216.532
2227.05
1597.37
1110.12
654.582
216.171
2232.06
1607.82
1116.11
657.586
217.084
9167.58
14042.2
9647.77
14359.1
10365.1
14785.4
10885.4
15088.3
10514.2
14584.5
9846.23
11074
9820.55
11539.9
9923.6
11015.1
10107.3
11166.9
8090.97
1382.68
294.652
65.906
11.6445
8989.39
2554.76
618.923
140.064
24.7397
8194.81
1374.67
290.72
64.764
11.4103
9092.66
2549.41
615.051
138.495
24.2491
8310.06
1374.16
288.002
63.8559
11.224
9196.36
2548.92
611.313
137.095
23.9631
8283.97
1339.97
278.192
61.5017
10.8005
9138.59
2507.94
599.038
134.071
23.4048
7908.18
1246.92
258.252
57.2506
10.0746
8704.27
2392.38
573.14
128.609
22.4813
7118.03
1167.09
249.567
56.2163
9.96665
7281.81
2097.95
515.7
117.592
20.7462
7340.75
1184.17
250.215
56.009
9.89799
7676.24
2207.28
537.829
121.676
21.355
7038.69
1165.37
250.397
56.5431
10.0346
7160.14
2051.54
504.818
115.48
20.4308
7022.29
1158.08
248.674
56.1835
9.9629
7180.49
2043.12
501.534
115.011
20.3161
33009.6
46700.4
45655.6
32054.5
18938.5
19914.8
27925.8
29135.1
21811.3
24412.1
34639
47170.5
43754.6
57882.9
28597.5
32558.2
22473.7
23983.8
12209.7
13377.4
4942.4
3299.45
939.088
737.591
825.709
729.882
876.205
4875.21
4862.74
2959.69
4174.16
4035
1775.76
2423.98
2222.01
1484.35
1703.26
1408.63
4384.4
2432.34
1596.52
1418.99
1777.98
1550.07
1230.78
1172.77
1112.37
983.719
1312.24
1189.29
4565.91
2810.4
3213.25
2082.36
1735.62
2404.04
1257.02
1005.84
1375.57
10102.3
10308.9
10649.1
12123.2
20261
7350.38
8527.76
9444.91
10732.4
12603.8
2475
3548.66
4376.2
4947.09
5244.56
1957.7
2834.67
3521.1
3993.65
4235.8
2188.51
3160.88
3914.79
4428.2
4688.83
1938.77
2809.81
3491.22
3958.4
4196.38
2317.34
3337.33
4125.65
4664.26
4939.76
10301.5
10716.8
10710.9
11517.7
18270.4
10244.2
10472.8
10279.4
10644.3
12238.7
6836.25
8179.94
8925.17
9633.21
10456.3
9073.24
9617.93
9473.66
9488.74
9779.05
8761.36
9361.48
9179.19
9024.5
9068.2
4443.37
5914.15
6873.53
7502.05
7855.74
5787.98
7220.08
8015.9
8555.06
8935.51
5371.73
6799.11
7579.02
8026.9
8266.95
3794.57
5199.71
6166.65
6790.4
7112.36
4278.76
5717.65
6642.76
7214.45
7506.08
3621.95
5001.02
5959.44
6571.52
6878.54
9448.71
10173.9
10475.2
11552.8
18550.8
5814.02
7317.78
8302.26
9176.34
10039.2
4054.89
5515.19
6527.48
7217.48
7611.63
3644.66
5039.65
6047.16
6744.99
7137.89
4451.25
5952.48
6997.82
7774.15
8299.23
3950.39
5413.05
6475.67
7250.29
7723.77
3196.02
4492.88
5470.15
6161.84
6547.14
3060.48
4325.89
5274.34
5925.36
6270.41
2914.29
4136.34
5045.27
5649.21
5954.27
2591.43
3709.1
4558.58
5131.48
5422.57
3396.39
4739.23
5707.41
6350.45
6685.19
3100.3
4372.9
5316.39
5954.2
6287.37
9573.3
10064.4
10451.5
11808
19466.9
6468.74
7824.15
8832.43
10005.9
11461.3
7503.74
8888.07
9678.52
10878.9
13347.3
5101.74
6666.85
7805.36
8799.95
9628.11
4366.25
5890.59
7000.31
7864.66
8455.4
5756.87
7287.8
8343.78
9334.85
10327.7
3261.71
4577.64
5560.48
6248.3
6627.42
2645.02
3778.18
4640.73
5228.5
5531.9
3543.42
4922.39
5933.72
6643.73
7045.59
18090.7
12003
18645.8
13303.5
24193.1
34478.1
25269.2
34296.6
19183.6
20319.3
16448.1
19614
21830.2
20789.3
27733.4
22782.4
13919.4
12968.2
6819.32
5801.94
15179
13834
7837.46
6380.34
18756.1
20288.5
19254.1
17592
19592.4
12909.2
10844.5
12502.8
17714.1
17688.2
36749.8
38441.7
25745.1
27067.9
15618.6
12816.7
17078.5
11839.1
8270.76
7988.96
13592.2
15010.1
5690.16
6194.32
14972.5
17040.6
7103.93
7828.6
14308
19928.2
8312.62
12782.1
2909.9
7082.1
2166.32
4892.11
17900
20485.5
17836.6
20851.1
19578.7
19880
20607.9
20377.4
16241.9
20561.8
18419.2
20271
17543.1
21004.8
17660.7
21195.8
21348.9
20588.3
21704.3
20743.6
14405.9
20700.3
13688.7
20848.9
18030.5
21270
21906.1
30436.8
19630.7
25150.1
21963.3
33313.8
16675
18266.7
21861.7
29134.4
16218.1
16726
22038.6
28835.3
18629.7
20135.5
23303.6
34507.6
18765.5
19219.4
24954.9
34978.5
18525.9
18217
26881.8
34747.6
18112
19039.2
19290
20449.9
30606.8
18312.5
17063.3
20605.7
18717.4
34948.9
19104.3
19870.2
19648.1
21213.5
37842.2
11264.8
10332.6
10387.8
13384.6
12327.3
11323.4
10769.1
13766.6
13560
11793.6
11274.9
14089.9
17791.7
17169.9
16650.4
16249.5
19145.3
17963
15777.2
14240.5
11819.4
14716.3
18798.3
18649.1
19855.9
20040.9
18990.3
17914.9
17173.3
15275.8
11650.4
14248
21602.5
24347.3
22454.1
25973.8
20482.7
21428.7
21115.5
22696.6
20749.8
20988.8
20203.9
19954.5
22757.5
26681.3
22974.9
27048.2
21048.7
23544.7
21232.3
23864.7
21080
21278.8
21270.5
21512.4
17699.9
16697.1
11509.5
12645.8
17602.3
16197.7
11466
12665.9
17999.1
16772.8
11728.8
12746.4
18145.4
16720.6
12100.6
12805.8
9478.69
9621.26
4065.12
3749.45
10573.8
10237.9
4555.41
4364.04
10310.5
9677.38
5191.37
5016.9
16977.6
16510.1
16504.1
16604.5
16403.9
15937.1
12301
11037.5
6117.64
5063.52
19026.9
18304.5
20246.6
19503.9
16022
14896.9
11480.1
9896.86
5632.1
4254.84
21835.9
20806.6
26705
23384.6
24255.5
21667.7
33130.4
25054.5
19978.3
16507.1
21724.3
17289.2
19869.1
16794.7
21819.7
17515.3
20372.2
18105.6
18481.7
17238.6
21029.1
22236.3
26052.5
27387.2
28554.8
30358.7
21466
23183.2
19429.1
19560.7
23380.8
25009.2
13463.5
9880.29
13874.8
10105.5
13747.1
9789.48
14056.3
9951.05
13693.7
9643.77
14022.9
10144.1
14049.2
10450.8
14637.1
10331.7
17147.4
16714.6
18894
17158.1
19608.3
18835.8
21423.8
19531.6
18614.4
14746.7
17738.7
14595.2
20280.1
17433.7
21200.4
17528.9
22942.3
19925.4
23593
20072.3
19284.4
14886.3
19838.6
14921.1
12984.1
9230.81
12115.7
7817.32
12460
8954.06
12072.1
7738.05
13380.3
9531.54
12152.7
7847.57
13591.5
9765.24
12068.1
7783.28
13017.9
13303.5
9267.13
8519.12
13171.3
13422.5
9119.59
8446.67
13148.8
12894.4
8885.61
8347.67
15245.1
17919.3
16083.6
11971.8
8635.96
16645.8
15643.8
17550.6
12060.9
8338.82
18348.7
16345.8
14567.6
12224.9
7667.91
14058
15461.9
8524.05
9328.7
13896.8
15016.1
8439.7
9185.84
12948.8
13625
8049.86
8269.44
16521.7
15750.4
15022.1
14580.1
15685.1
16297
12277.2
13263.8
7796.37
7689.67
16732.4
15447.4
15179.5
14019.6
13740.2
13328.6
11635.2
11844.5
7162.9
7843.43
14853.3
12884.6
14913.6
12293.3
16689.1
14288.6
17204
14454.1
13008
11240.5
13101.5
12037.4
15010.1
12007.6
15046.7
11945.2
17514
14944
17617.2
15056.6
13077.8
10729.7
13027.1
10685.6
10505.4
9515.13
6873.42
7752.76
10800.8
10228.5
7043.51
8152.54
10626.7
9234.97
6775.84
7844.67
10740.8
8985.12
6898.75
7684.59
18720
18704
26114.4
21867.3
17907.4
18038.3
25018.9
20884.3
15685
16422.5
22933.8
19402
15356.6
14900.1
14276.4
14157.7
16665.7
17219.3
15617.9
15675.5
21031.8
17780.9
14556.4
13933.4
13527.2
13439
13965.5
14403.9
15157.7
14878.2
20629.1
16386.8
6156.76
3947.36
2809.31
2455.22
6417.22
4094.38
2898.14
2475.52
6032.43
3866.35
2758.12
2431.63
6352.8
4046.34
2862.26
2437.95
5803.84
3705.58
2671.76
2353.85
6250.18
3936.16
2816.86
2359.18
6401.71
3931.01
2762.81
2382.64
6311.14
3833.34
2668.94
2335.24
5577.07
3555.5
2602.91
2289.46
4311.68
2953.96
2276.39
2144.27
5239.53
3420.17
2524.18
2187.9
4204.63
2961.79
2260.19
2095
5761.28
3616.07
2605.78
2299.34
4340.8
2934.64
2249.46
2149.64
5785.21
3597.42
2554.77
2258.29
4282.21
2897.22
2199.19
2093.69
5609.77
3667.54
2640.6
2372.56
4686.42
3253.24
2418.7
2284.54
5444.34
3582.97
2589.9
2333.62
4572.18
3205.92
2392.75
2272.78
5211.22
3445.81
2522.66
2293.5
4488.52
3145.11
2359.92
2271.04
4722.11
3194.5
2386.75
2274.29
4303.09
3042.38
2304.79
2166.83
4034.4
2940.88
2227.49
2089.86
3307.29
2830.37
1975.42
546.225
1152.87
2556.35
1820.08
616.749
3351.49
2829.95
1974.02
565.543
1338.98
2561.95
1816.89
618.864
3429.11
2811.08
1951.13
537.089
1597.12
2551.87
1792.64
603.91
3396.7
2757.86
1951.07
566.328
1639.59
2506.01
1770.95
602.908
3117.59
2646.35
1937.82
646.124
1086.97
2390
1731.86
598.447
2571.8
2400.27
1824.06
592.45
-3.08228
2093.64
1636.98
579.602
2767.19
2505.31
1878.83
608.727
188.67
2220.98
1678.97
585.18
2430.21
2317
1757.21
523.065
-175.304
1999.45
1581.87
553.954
2380.88
2262.25
1703.78
495.387
-102.985
1940.31
1536.98
536.005
2314.88
1762.56
1215.68
709.444
233.014
2261.44
1748.45
1211.67
708.084
232.657
2313.72
1755.67
1210.82
706.809
232.19
2252.29
1737.86
1204.72
704.402
231.517
2329.74
1749.76
1205.09
703.548
231.159
2242.77
1725.73
1196.53
700.05
230.178
2200.39
1701.67
1183.43
693.585
228.238
2144.42
1668.38
1164.79
684.299
225.445
2297.33
1730.82
1194.25
698.089
229.51
2429.4
1741.8
1192.44
696.152
228.842
2366.75
1750.6
1202
701.479
230.48
2487.07
1756.58
1199.21
699.335
229.772
2242.63
1707.55
1182.15
692.206
227.758
2395.75
1721.53
1181.59
690.874
227.276
2194.25
1677.22
1164.97
683.628
225.185
2355.97
1695.3
1166.71
683.477
225.072
2417.92
1783.1
1220.44
710.856
233.366
2587.79
1801.58
1223.75
711.75
233.583
2422.81
1778.81
1217.02
708.955
232.762
2589.32
1797.77
1221.05
710.283
233.121
2442
1772.96
1211.62
705.939
231.806
2596.86
1790.34
1215.9
707.544
232.262
2495.3
1770.66
1206.78
703.073
230.887
2608.14
1779.51
1209.54
704.247
231.219
2552.14
1766.62
1203.45
701.288
230.332
11270.9
14824.8
11335
14839.2
11474
14851.8
11300
14685.6
10579.7
13981.6
9841.54
11010.5
9859.3
11430.6
9910.07
10974.8
10100.9
11152.9
8654.57
1438.7
301.994
67.0164
11.7905
9318.44
2632.4
633.126
142.433
25.0597
8622.44
1415.79
296.058
65.5718
11.5164
9282.44
2601.07
625.002
140.188
24.4773
8520.37
1391.85
290.177
64.1825
11.2659
9184.26
2562.61
614.969
137.787
24.0576
8290.87
1336.49
277.46
61.3699
10.7792
8962.44
2488.99
597
133.815
23.369
7832.46
1234.86
256.152
56.8662
10.0148
8491.16
2360.94
568.254
127.797
22.3615
7086.05
1160.86
248.135
55.8959
9.91153
7235.68
2083.54
512.184
116.825
20.6172
7295.31
1174.88
248.222
55.5943
9.82969
7592.12
2184.35
532.973
120.721
21.2039
7018.83
1161.69
249.542
56.3455
9.99978
7134.12
2043.53
502.762
115.009
20.3488
7015.47
1156.84
248.387
56.1165
9.95095
7171.76
2040.55
500.866
114.854
20.2883
32555.3
46392
44587.4
30691.2
24011.5
28559.9
23222.2
28452.8
26855.3
42512.5
28454.9
43519.6
256.192
273.532
312.189
374.708
465.461
589.527
270.85
288.63
328.109
391.366
481.355
601.543
245.121
239.66
263.557
259.963
304.783
305.531
371.975
381.139
468.388
488.501
593.829
617.105
752.815
961.647
1233.29
1594.32
2011.03
2310.79
755.314
944.948
1171.88
1426.99
1671.34
1829.89
685.986
1006.53
1264.98
1446.08
1539.33
732.183
1073.8
1348.92
1541.51
1640.6
835.2
1223.82
1536.09
1754.3
1866.46
1001.54
1465.48
1837
2095.93
2228.85
1242.27
1813.64
2268.85
2585.08
2747.19
1569.54
2283.18
2847.55
3238.24
3438.57
725.071
1063.54
1336.26
1527.24
1625.54
772.383
1132.29
1421.88
1624.44
1728.63
877.434
1284.94
1611.97
1840.3
1957.61
1045.44
1528.41
1914.51
2183.39
2321.4
1283.65
1871.92
2339.7
2664.54
2831.2
1600
2324.47
2896.47
3292.79
3496.47
656.397
963.269
1210.84
1384.38
1473.76
641.781
941.878
1184.05
1353.84
1441.3
705.571
1034.99
1300.46
1486.36
1582.04
695.963
1020.96
1282.93
1466.42
1560.85
815.521
1195.31
1500.7
1714.19
1823.94
817.533
1198.31
1504.54
1718.63
1828.67
994.457
1455.62
1825.17
2082.81
2215.04
1018.92
1491.35
1869.87
2133.67
2269.02
1250.45
1826.33
2285.4
2604.21
2767.54
1303.97
1904.06
2382
2713.58
2883.27
1581.79
2302.48
2872.6
3266.69
3468.26
1643.69
2392.1
2983.31
3391.06
3599.14
1995.87
2886.03
3582.68
4064.19
4312.47
2531.19
3624.16
4468.09
5055
5364.18
3205.44
4514.13
5508.05
6216.97
6612.97
4054.23
5554.23
6674.51
7528.96
8074.48
4957.63
6536.55
7703.98
8702.53
9482.03
5579.16
7168.91
8344.62
9442.81
10411.3
2001.03
2890.84
3587.04
4069.4
4319.03
2488.43
3565.65
4399.32
4980.2
5286.2
3058.96
4332.29
5305.76
5995.12
6371.93
3680.46
5132.57
6229.6
7031.49
7498.47
4253.34
5832.41
7014.96
7917.28
8486.18
4616.85
6263.85
7493.71
8462.29
9105.76
259.129
282.449
327.583
397.347
496.335
629.699
273.855
297.744
343.714
413.982
511.432
639.061
248.092
242.741
272.646
269.434
320.609
322.156
395.58
406.279
500.975
522.958
637.821
664.824
801.677
1015.03
1284.02
1632.3
2031.16
2316.47
798.898
991.147
1215.36
1461.6
1692.8
1837.02
693.869
1018.17
1279.74
1463.07
1557.49
756.199
1109.37
1394.07
1593.53
1696.24
876.705
1285.42
1614.44
1844.74
1963.26
1062.71
1556.6
1953.32
2230.61
2373.23
1326
1939.12
2429.99
2772.55
2948.72
1679.14
2448.93
3062.34
3489.93
3710.19
733.155
1075.51
1351.46
1544.78
1644.29
796.955
1168.75
1468.25
1677.96
1785.9
919.559
1347.58
1691.81
1932.61
2056.5
1106.63
1619.73
2031.32
2318.86
2466.77
1365.3
1994.46
2497.32
2848.16
3028.73
1702.37
2479.35
3097.27
3528.17
3750.57
664.377
975.053
1225.76
1401.54
1492.09
650.056
954.093
1199.51
1371.61
1460.26
730.029
1071.18
1346.32
1539.17
1638.47
721.441
1058.63
1330.66
1521.34
1619.53
858.161
1258.52
1581.01
1806.82
1923.03
862.316
1264.68
1588.85
1815.84
1932.66
1058.21
1550.5
1946.21
2222.86
2365.14
1086.84
1592.49
1998.95
2283.1
2429.2
1338.85
1958.87
2455.67
2802.37
2980.57
1397.62
2044.85
2563.4
2925.15
3111
1701.94
2484.47
3108.78
3543.73
3767.42
1774.33
2590.75
3242.1
3695.53
3928.45
2130.46
3092.55
3854.02
4385.55
4661.34
2680.56
3858.62
4782.5
5433.19
5778.34
3351.55
4752.37
5837.78
6623.05
7063.89
4170.29
5756.21
6967.3
7902.22
8498.62
5026.39
6667.44
7902.92
8965.62
9790.42
5600.98
7213.54
8414.58
9537.63
10524.8
2120.85
3074.21
3827.42
4353.65
4627.36
2616.86
3765.43
4665.19
5298.27
5633.5
3181.88
4527.98
5571.5
6318
6727.7
3780.76
5297.26
6458.81
7315.3
7814.98
4317.51
5941.37
7170.19
8113.05
8707.38
4638.69
6301.77
7548.51
8532.21
9185.42
4923.65
3298.37
1002.73
792.49
900.032
790.892
946.368
4540.54
4391.28
2895.07
3646.42
1836.32
2394.99
1563.74
1723.72
1471.92
4234.86
2451.88
1674.93
1500.29
1844.39
1618.88
1294.21
1250.82
1209.57
1074.29
1402.04
1275.83
4511.01
2816.37
3181.71
2114.69
1789.44
2427.78
1328.94
1083.26
1452.15
10100.3
10364.1
10755.9
12298.2
20583.5
7365.13
8577.96
9534.46
10865.3
12778
2653.83
3831.09
4756.9
5406.54
5748.42
2109.11
3067.54
3827.75
4357.36
4630.88
2395.11
3482.41
4342.89
4940.3
5247.7
2107.15
3069.03
3832.91
4363.99
4637.14
2513.62
3645.46
4538.79
5160.7
5482.71
10082.9
11363.3
12183.7
13782.4
21854.5
9966.18
11469.1
12495.6
13937.1
16377.7
6943.57
8853.86
10263
11576.9
12810
8778.93
10714.1
11845.4
13013.9
14028
4715.85
6540.98
7908.04
8896.7
9466.21
5959.8
7938.87
9375.06
10486.1
11213.7
4078.54
5769.95
7058.13
7962.13
8449.86
4467.91
6268.02
7622.97
8577.53
9099.92
3857.96
5492.51
6744.58
7615.61
8076.32
9358.92
10564.6
11396.9
12996.7
20952.3
5995.35
7839.31
9227.7
10479.2
11605.5
4330.69
6062.16
7378.51
8335.53
8889.99
3902.27
5506.7
6740.5
7634.3
8144.15
4695.41
6452.39
7788.3
8825.57
9515.4
4170.72
5816.64
7079.5
8030.7
8612.57
3381.88
4802.64
5905.93
6704.02
7152.1
3289.41
4707.97
5812.08
6593.24
7013.66
3198.15
4608.03
5707.46
6470.48
6867.36
2848.14
4119.53
5117.68
5811.18
6170.66
3677.83
5244.14
6451.79
7299.72
7754.23
3357.8
4809.91
5938.34
6731.46
7154.52
9568.7
10237.5
10791.5
12353.4
20467.4
6525.3
7977.69
9095.7
10383.6
11939.4
7554.55
9197.79
10289.4
11803.1
14601
5224.46
6920.86
8209.7
9347.9
10277.8
4544.9
6228.2
7515.1
8540.34
9234.59
5908.47
7689.16
9045.67
10326
11529.1
3475.33
4939.43
6075.12
6892.51
7347.93
2866.15
4135.16
5130.43
5826.27
6191.03
3779.26
5338.02
6540.64
7415.57
7915.81
10017.7
9429.35
8404.68
6980.59
5058.35
1976.68
18428.7
18776.8
21336.1
21997.4
18097.1
19215.7
20426.7
19820.3
15100.7
18520.4
15759.2
19083
18090.2
16321.9
25187.3
17743.4
17955.5
20167.9
20594.4
17157
18257.5
19557.8
19144.8
15048
22361.7
15623.3
22271.7
18271.8
19806.5
27026.5
16985
17072
18690
18879.1
16472.6
17961.4
18402.1
18472.3
17271.2
19829.7
18028.8
19855.8
19853.1
21802.5
24379.9
16279.4
16385
17374.4
17409.7
16091.7
17814.5
17252.8
17590.5
16226
17383.6
16958.6
16965
18202
19671.2
21140.7
15535.1
15673.7
16493.2
16446.9
15837.4
17715.7
16515
17035.4
15400.6
14403.5
16160.6
13855
16789.9
16661.9
17538.2
15217.3
15397.3
15915.8
15838.2
15493.9
17059.2
16048
16489.8
14736.4
12431.6
15309.6
12202.9
15666.4
14715
15935.3
21308.4
20506.7
22315.4
23419.1
19801.4
19814.6
20824.6
19920.4
18873.2
14031.4
18847.5
14118
16757.4
15236.3
18327.2
20151.5
19576.5
20664.9
21384.8
19162.2
19335.4
19682.8
18927.2
17563.2
13635.2
17563.3
13738.7
15425.3
13768.5
17032.6
18647.3
18314.1
18699.2
19041.2
18087.1
18273.6
18219.6
17774.7
16761.4
13459.6
16576.3
13204.9
14891.5
12651.3
16832.1
17259.6
17076.4
17224.4
17370.1
16935.2
17064.1
17071.5
16725.7
15942.6
14018.3
15850.7
13701.6
14408.9
12812
17302.8
16582.1
16465.6
16434.2
16495.9
16187.1
16309.6
16414.9
16206.5
15840.8
15223.5
15783.8
15080.8
14603
13413.5
18023.1
16099.1
15990.3
15992.2
16026.6
15757.9
16058.2
15947.3
15872.1
15818.1
15984
15820.9
15902.9
14765.7
14004.5
18816.9
11340.5
6434.66
18697
12259.8
20418.6
15081.9
32069.7
39688.8
42156.5
51512.7
27270.6
23642.8
17303.7
13725.2
8417.82
5601
19395.5
19876.1
16685.6
19624.7
26206.6
23438.1
30190
24472.5
7986.65
5772.03
4422.55
3296.35
9744.94
7957.11
5915.54
4787.38
17665.4
18379.7
18088.2
15339.5
14144.8
11014.9
11058.6
12547.1
17830.5
17729.8
37331.9
38577.2
26502.1
27278.4
15060.3
12701.2
16439.7
11730.6
7646.7
7840.29
6110.78
8441.21
3164.89
3787.7
8540.29
11553
5087.73
5899.62
9493.42
15731.4
6570.72
10677.1
2509.36
6360.75
2086.89
4752.14
17558.6
21670.3
18064.6
21546.9
21500.7
21736.1
21841
21421.5
15338.8
20756.7
15812.3
20522.7
17768.2
21379.1
17747.2
21317.8
21987.5
21124.2
21893.8
20910.3
14154.9
20832.4
13655.1
20900
17175.1
20041.7
21693.3
30096.7
18176.2
23053.7
21485.8
32574.5
16292.6
17683.4
21790.2
28992.9
16122.7
16566.9
22029.7
28801.2
4929.62
6430.95
12571.8
21865.9
6258.04
7078.97
16513.5
25247.7
7849.32
7916.58
21048.6
28411.1
24140.3
26050.7
20307.6
19500.4
27929.9
26274.4
24721
20755.2
17915.3
31783.8
23918.6
23530.2
20866.7
20577.9
36535.4
1919.31
2313.72
4075.14
9224.07
2798.41
3145.63
5811.49
10552.7
4202.53
3551.24
7956.13
12237.7
26126.9
26017.4
23488.4
23300.6
19987.4
18490.2
15080.3
13423.6
10532.7
14479.5
23732.9
23087.1
23830.3
23599.1
20613.9
19434.7
16953.2
15254
11258.7
14706.8
23531
26550
23438.7
27163.5
22826.5
23719.5
22251.9
23833.1
21297.3
21689
21131.4
21075.9
23242.3
27262.1
23123.1
27222.1
21583.2
24098.3
21391.3
24026.9
21379
21640.9
21366
21621.7
17853.2
16981.9
11485.7
12735
17719
16518.5
11300
12733
18112.3
16943.8
11742.9
12811.9
18187.2
16776.6
12111.1
12831.3
1597.72
1103.15
775.978
949.124
668.302
625.111
2250.33
1386.56
1066.12
1900.45
1552.03
1355.42
2648.05
2270.68
2305.73
3346.44
2782.69
2521.85
25151.9
23013.1
21468
23056.7
21636.8
20439.2
16495.5
15504.7
14966.4
11120.2
9804.81
9256.18
5089.05
3831.78
3280.73
22680.1
21291.9
20029.8
23166
21407.6
19977.5
17079.5
14913.7
13670.5
11091.7
9044.48
8214.01
5421.41
3821.37
3100.81
26651.8
26164.1
28962.8
26066.5
29815.7
26090.6
35911.8
27410.3
20529.2
21053.1
20214.1
18931.3
23201.7
21933.3
22734.4
19470.7
22517.4
22416.7
20797.1
22322.1
27820.9
24888.2
27408.7
27801.4
29711.1
30697.4
22818.7
23663
20466.2
19856.8
24898.5
25519.7
16304.7
8663.5
15187.4
9610.84
16516
8729.5
15114.7
9531.15
16320.6
8780.64
15096.8
9942.07
14667.1
10409.4
14835.8
10323.9
21004.3
18047.6
20820.8
17982.6
23151
20978.8
23316.3
20728.4
20414.2
15053.3
21364.5
14890.3
21239.1
17872.8
21485.8
17661.9
23869.6
20530.7
23863
20255.7
20175.1
15078.8
20096.8
14980.5
13387.2
8812.42
11908.7
7440.31
12507.7
7881.84
11465.4
6936.33
13695.3
9376.06
12087.5
7671.88
13702.2
9727.4
12051
7725.48
2500.33
1266.25
4482.98
2221.11
2693.73
1604.98
4802.66
2754.02
3344.51
2480.82
5349.18
3731.62
13163.6
20316.5
9464.9
9057.89
6248.86
19959.8
13969.6
8189.55
8216.03
5097
20679.9
16358.3
13041.1
10121.6
6049.29
640.258
480.697
1107.98
749.672
987.131
680.478
1755.41
1360.88
1787.56
1435.4
2731.4
2198.27
20381.6
19962.5
13918.2
13560.3
9083.65
9368.69
7635.99
7218.49
4324.4
3544.82
19055.7
17543.1
14880.4
13293.8
11648.7
10588.7
8834.39
8211.82
5343.92
5486.96
15180.7
12533.9
15232.9
12180.7
18112.8
15227.9
18020.5
14941.8
12846.8
10675.6
12489.8
10757.9
15210.4
11959.5
15108.8
11932.1
17923.8
15183.6
17739.6
15124.9
13061.4
10483.7
13035.6
10623
10003.3
8710.91
6384.74
7011.8
9655.82
8551.93
6075.27
6662.4
10426.4
8874.99
6549.11
7446.21
10683.3
8879.14
6820.96
7558.4
1979.39
1757.6
1461.73
8847.51
4695.32
3833.57
1938.99
1935.81
1727.79
9578.24
5576.75
4735.43
2648.09
3002.04
3092.79
10486.8
6942.97
6204.59
19107
18125.1
17358.8
13292.6
13101.9
12946.3
9860.94
9908.57
9978.73
8643.76
8480.71
8326.99
11839
8539
7752.11
16246.9
15233.5
14509.6
12334.4
11701.3
11318.9
10466.4
9899.95
9545.41
10294.7
9269.49
8642.2
14356.8
9623.88
8695.8
4662.26
2942.69
2192.48
2011.59
5305.21
3229.75
2325.73
2058.96
4677.95
2932.72
2195.13
2027.97
5424.57
3299.15
2369.27
2077.89
4647.24
2885.19
2182.72
2004.47
5529.41
3334.83
2405.87
2057.63
5979.95
3552.72
2481.8
2165.82
6169.42
3701.65
2574.14
2259.72
4972.13
3083
2266.6
2022.1
3910.29
2619.85
2042.2
1944.01
4290.16
2749.18
2090.77
1865.02
3548.58
2446.26
1950.78
1859.11
5426.39
3333.86
2393.64
2127
4124.08
2746.47
2101.49
2012.11
5681.06
3502.66
2481.48
2197.72
4213.67
2835.8
2148.35
2046.29
3390.21
2462.23
1967.35
1900.31
1962.13
1876.03
1689.84
1782.1
3389.02
2441.12
1959.12
1894
2066.6
1903.58
1699.23
1793.04
3463.9
2428.35
1958.83
1896.36
2400.38
2000.91
1737.04
1839.03
3384.03
2341.55
1905.68
1928.23
2681.89
2064.43
1780.96
1820.21
3061.1
2242.7
1845.02
1828.13
459.819
1393.23
1301.5
389.039
-1297.25
1116.92
1134.32
420.709
715.237
1476.83
1332.16
412.024
-967.011
1212.57
1162.88
430.475
1192.56
1623.47
1383.59
411.065
-408.749
1370.09
1206.11
436.295
1768.93
1794.77
1451.27
448.207
171.142
1541.61
1265.25
456.142
2132.03
1946.8
1534.02
528.703
286.106
1665.61
1319.55
473.36
2277
2106.35
1574.92
499.502
-130.615
1782.5
1417.09
502.972
2220.42
2035.63
1544.28
500.197
-154.624
1727.8
1368.6
485.499
2284.98
2156.41
1604.92
463.113
-213.772
1830.61
1452.39
506.612
2339.33
2211.01
1653.25
474.956
-107.634
1887.44
1494.91
520.32
1961.72
1546.63
1093.36
647.851
214.32
1938.67
1543.25
1094.03
648.626
214.592
1986.97
1559.16
1099.56
650.783
215.184
1968.63
1559.3
1102.39
652.669
215.8
2031.19
1576.2
1107.3
654.352
216.229
2003.31
1577.62
1111.83
657.25
217.175
2035.41
1598.79
1124.37
663.687
219.148
2083.66
1629.51
1142.36
672.923
221.981
2077.18
1596.79
1118.5
659.931
217.925
2219.15
1622.35
1125.84
662.709
218.694
2086.75
1591.51
1113.07
656.818
216.931
2215.87
1613.16
1119.83
659.556
217.709
2097.05
1615.48
1129.76
665.751
219.719
2259.47
1640.48
1136.09
667.964
220.316
2143.7
1645.25
1146.69
674.367
222.363
2309.03
1667
1150.75
675.413
222.611
2017.27
1554.49
1093.37
647.213
214.075
2123.19
1563.21
1093.65
646.851
213.934
2041
1564.4
1097.99
649.344
214.695
2142.21
1570.67
1097.17
648.487
214.413
2085.88
1580.12
1104.97
652.546
215.624
2180.72
1583.48
1103.18
651.298
215.229
2160.55
1598.33
1112.04
655.687
216.526
2226.9
1597.29
1110.07
654.56
216.167
2231.89
1607.73
1116.06
657.562
217.078
9118.51
13987.2
9650.07
14360.8
10366.6
14786.2
10886.4
15088.8
10514.9
14585.1
9846.82
11074.6
9821.18
11540.5
9924.16
11015.6
10107.9
11167.5
8080.02
1373.4
292.269
65.3592
11.5479
8973.93
2548.98
617.273
139.671
24.6679
8192.36
1375.25
290.831
64.7815
11.4125
9091.05
2548.8
614.84
138.435
24.2374
8309.5
1374.22
288.011
63.8542
11.2232
9195.93
2548.71
611.234
137.07
23.9577
8284.02
1339.99
278.191
61.4994
10.7998
9138.63
2507.9
599.012
134.06
23.4024
7908.44
1246.96
258.256
57.2504
10.0744
8704.5
2392.41