/*--------------------------------*- C++ -*----------------------------------*\
| =========                 |                                                 |
| \\      /  F ield         | OpenFOAM: The Open Source CFD Toolbox           |
|  \\    /   O peration     | Version:  2306                                  |
|   \\  /    A nd           | Website:  www.openfoam.com                      |
|    \\/     M anipulation  |                                                 |
\*---------------------------------------------------------------------------*/
FoamFile
{
    version     2.0;
    format      ascii;
    arch        "LSB;label=32;scalar=64";
    class       volVectorField;
    location    "2.7";
    object      flux;
}
// * * * * * * * * * * * * * * * * * * * * * * * * * * * * * * * * * * * * * //

dimensions      [0 1 -1 1 0 0 0];

internalField   nonuniform List<vector> 
2658
(
(1.01452e-06 9.93652e-07 -8.96284e-06)
(1.47736e-06 5.72641e-07 -8.68993e-06)
(4.73995e-07 1.78364e-07 -6.67375e-06)
(-4.80642e-08 -2.5652e-08 -6.08137e-06)
(-2.18529e-06 -2.1493e-06 -7.47379e-06)
(-1.84896e-06 2.64594e-06 -7.66024e-06)
(1.96245e-06 -2.28923e-06 -7.04973e-06)
(1.93592e-06 1.92599e-06 -6.79354e-06)
(-3.79396e-08 -3.96813e-08 -6.07626e-06)
(2.62716e-06 -1.87248e-06 -7.6377e-06)
(-1.75009e-06 5.84301e-07 -7.48605e-06)
(-1.25134e-06 -4.1461e-06 -5.87447e-06)
(8.19367e-07 2.4947e-06 -7.79939e-06)
(9.84598e-07 2.53907e-06 -7.27613e-06)
(7.56535e-07 2.05024e-06 -7.55341e-06)
(-7.26498e-08 2.1082e-06 -7.76919e-06)
(-3.36994e-08 2.31574e-06 -7.43833e-06)
(-5.90911e-09 2.0753e-06 -7.75168e-06)
(-8.3076e-07 2.09891e-06 -7.54759e-06)
(-1.07082e-06 2.50788e-06 -7.18172e-06)
(-1.00941e-06 2.41482e-06 -7.67304e-06)
(-2.34835e-06 2.09855e-06 -6.9109e-06)
(-2.82412e-06 6.90574e-07 -7.91276e-06)
(2.13519e-06 -4.85577e-07 -6.1027e-06)
(-9.09319e-07 7.86769e-07 -9.52976e-06)
(-1.10941e-06 2.31431e-06 -7.65573e-06)
(-2.38972e-06 -5.09124e-07 -6.8266e-06)
(-3.49307e-07 1.36061e-07 -8.08863e-06)
(-1.75048e-06 1.88763e-06 -8.23757e-06)
(-1.87292e-06 -2.1428e-10 -6.74385e-06)
(-1.75047e-06 -1.88779e-06 -8.23754e-06)
(-2.38976e-06 5.09174e-07 -6.82666e-06)
(-1.10962e-06 -2.31431e-06 -7.65569e-06)
(-2.82439e-06 -6.90306e-07 -7.9128e-06)
(-9.09292e-07 -7.86615e-07 -9.52977e-06)
(2.1352e-06 4.85729e-07 -6.10269e-06)
(-1.19356e-06 -1.57464e-07 -7.91471e-06)
(5.43425e-07 1.95877e-07 -1.09521e-05)
(-2.3479e-06 -2.09922e-06 -6.91077e-06)
(-1.0096e-06 -2.41509e-06 -7.67331e-06)
(-1.07073e-06 -2.50813e-06 -7.182e-06)
(-8.30481e-07 -2.09903e-06 -7.54765e-06)
(-5.95476e-09 -2.07508e-06 -7.75143e-06)
(7.20191e-08 1.04645e-06 -1.13343e-05)
(-1.46821e-06 -1.77757e-07 -7.26414e-06)
(1.37464e-06 -9.37783e-08 -7.18286e-06)
(-1.75012e-06 -5.84347e-07 -7.48618e-06)
(-6.31964e-08 1.08915e-06 -1.13223e-05)
(-7.29661e-08 -2.10858e-06 -7.76924e-06)
(7.56379e-07 -2.05017e-06 -7.55333e-06)
(9.84558e-07 -2.53861e-06 -7.27585e-06)
(8.19536e-07 -2.49459e-06 -7.79946e-06)
(2.22619e-06 -2.20568e-06 -6.98025e-06)
(-4.75838e-07 4.6002e-07 -1.13386e-05)
(2.50819e-06 -8.21733e-07 -7.80647e-06)
(2.0582e-06 -7.83297e-07 -7.56422e-06)
(-1.10707e-06 5.28467e-08 -1.13227e-05)
(1.17116e-07 -1.39491e-06 -7.21588e-06)
(-3.94737e-06 -2.295e-10 -6.14284e-06)
(2.08182e-06 -2.56039e-08 -7.75909e-06)
(-1.10708e-06 -5.28654e-08 -1.1323e-05)
(2.05823e-06 7.83126e-07 -7.56441e-06)
(2.50773e-06 8.21844e-07 -7.80616e-06)
(-4.76033e-07 -4.60083e-07 -1.13386e-05)
(5.56332e-07 5.63788e-07 -7.38121e-06)
(-4.15514e-06 -1.21321e-06 -5.88608e-06)
(5.48662e-07 -1.73616e-06 -7.46641e-06)
(-2.62081e-08 -7.52338e-08 -6.78158e-06)
(-1.38405e-06 -2.92995e-06 -7.58074e-06)
(-1.38416e-06 2.92985e-06 -7.58051e-06)
(-6.75836e-08 -4.51002e-11 -6.17985e-06)
(1.41308e-06 2.52894e-06 -6.92025e-06)
(-8.07584e-08 -2.50824e-08 -5.41216e-06)
(-1.55882e-06 2.12508e-06 -6.27202e-06)
(2.46211e-08 -9.45673e-09 -4.86103e-06)
(-1.64052e-06 -1.60816e-06 -6.20095e-06)
(2.10642e-06 -1.59571e-06 -6.25537e-06)
(-1.70899e-08 3.3834e-08 -4.85475e-06)
(-1.84981e-06 1.57799e-06 -5.59301e-06)
(2.07038e-06 1.03811e-06 -5.48908e-06)
(-2.41696e-06 -1.06702e-06 -6.25477e-06)
(-4.27021e-08 -6.30466e-08 -5.41049e-06)
(2.53878e-06 1.34928e-06 -6.88639e-06)
(-2.29904e-06 2.02465e-06 -7.07209e-06)
(-6.19855e-08 -4.6619e-08 -5.72764e-06)
(-3.87594e-08 -2.80951e-08 -4.55703e-06)
(-7.90911e-09 -1.24961e-09 -3.54226e-06)
(6.29745e-09 1.07958e-08 -2.68023e-06)
(1.13771e-08 1.52099e-08 -1.98266e-06)
(1.27284e-08 1.70434e-08 -1.45121e-06)
(1.13247e-08 1.51539e-08 -1.08232e-06)
(-3.41312e-08 -6.17052e-08 -1.14624e-06)
(3.04427e-08 3.23899e-08 -1.0076e-06)
(-2.03829e-07 1.5951e-07 -8.3118e-07)
(1.39112e-07 -7.19411e-08 -9.08451e-07)
(-2.44243e-08 -1.63219e-07 -9.60082e-07)
(-1.72798e-07 -3.12009e-08 -8.9151e-07)
(9.43649e-10 -1.7854e-07 -1.35291e-06)
(1.74052e-07 -3.3506e-08 -8.92208e-07)
(-1.41374e-07 -6.88902e-08 -9.05399e-07)
(7.70615e-08 -1.95888e-07 -1.36081e-06)
(1.97253e-07 -5.32958e-08 -9.16609e-07)
(1.70119e-07 -1.66401e-07 -9.753e-07)
(1.42111e-07 -9.195e-08 -1.10355e-06)
(1.47765e-07 -7.60683e-08 -9.31973e-07)
(-2.95175e-07 1.74165e-07 -9.98615e-07)
(-5.74745e-08 -6.26582e-08 -7.10792e-07)
(-4.10087e-08 -1.15052e-10 -1.18132e-06)
(-1.31955e-08 2.23224e-08 -7.78628e-07)
(8.20081e-08 -1.84146e-07 -1.19243e-06)
(1.75737e-07 6.0757e-08 -1.10648e-06)
(7.07056e-08 -8.35911e-08 -9.03302e-07)
(1.40087e-07 -4.37873e-12 -1.24423e-06)
(7.07021e-08 8.35876e-08 -9.0327e-07)
(1.75747e-07 -6.07679e-08 -1.10648e-06)
(8.19963e-08 1.84132e-07 -1.1924e-06)
(1.47762e-07 7.60703e-08 -9.31969e-07)
(-2.95167e-07 -1.7416e-07 -9.98616e-07)
(1.70119e-07 1.66398e-07 -9.75293e-07)
(1.42118e-07 9.1954e-08 -1.10355e-06)
(1.97254e-07 5.32942e-08 -9.1661e-07)
(7.7059e-08 1.95888e-07 -1.36075e-06)
(-1.41374e-07 6.8887e-08 -9.05384e-07)
(1.74054e-07 3.35023e-08 -8.92189e-07)
(-2.72395e-07 -1.36941e-07 -8.64665e-07)
(2.73625e-07 -1.32696e-07 -8.68887e-07)
(-2.03813e-07 -1.59516e-07 -8.31142e-07)
(-2.44118e-08 1.63211e-07 -9.60081e-07)
(-1.72802e-07 3.1192e-08 -8.91481e-07)
(1.39107e-07 7.1947e-08 -9.08461e-07)
(-7.8403e-08 1.91966e-07 -1.3547e-06)
(-1.92079e-07 5.00955e-08 -9.04936e-07)
(-1.32566e-07 9.20565e-08 -1.08541e-06)
(-1.20599e-07 8.28805e-08 -8.97885e-07)
(-7.61937e-08 1.71368e-07 -1.17752e-06)
(8.523e-09 -7.63003e-08 -8.24855e-07)
(-3.49128e-08 4.76344e-09 -7.96692e-07)
(-2.00946e-07 7.62423e-09 -9.30741e-07)
(1.66801e-07 -1.73296e-07 -8.08422e-07)
(1.66703e-07 1.73315e-07 -8.08451e-07)
(-3.48845e-08 -4.79142e-09 -7.96667e-07)
(8.49713e-09 7.63092e-08 -8.24854e-07)
(8.144e-08 -4.63122e-08 -9.16792e-07)
(-8.41944e-08 -4.83594e-08 -9.76225e-07)
(-9.67932e-08 -4.38501e-10 -1.22811e-06)
(-8.4001e-08 4.81957e-08 -9.75771e-07)
(4.69007e-08 8.35665e-11 -1.13371e-06)
(6.10374e-08 9.4923e-11 -1.08369e-06)
(-1.68252e-07 -9.52142e-08 -7.77407e-07)
(-1.75086e-07 9.38575e-08 -7.81313e-07)
(-1.4622e-07 2.04012e-10 -7.4227e-07)
(-1.8486e-07 7.4558e-09 -1.04729e-06)
(-1.8132e-07 4.98222e-08 -1.01525e-06)
(-1.88077e-07 -5.52176e-08 -6.58244e-07)
(-1.44324e-07 2.24562e-07 -8.82008e-07)
(-2.56917e-07 5.24977e-08 -8.29891e-07)
(-2.34671e-07 2.10171e-07 -7.51851e-07)
(-9.87821e-08 2.48297e-07 -8.28631e-07)
(-1.1223e-07 2.63145e-07 -7.8378e-07)
(-8.14568e-08 2.08986e-07 -8.10488e-07)
(2.63264e-10 2.10397e-07 -8.35867e-07)
(2.35945e-10 2.4071e-07 -8.03751e-07)
(-3.83869e-10 2.10174e-07 -8.3646e-07)
(7.87542e-08 2.12858e-07 -8.11207e-07)
(1.11893e-07 2.69254e-07 -7.80921e-07)
(1.01044e-07 2.50821e-07 -8.25854e-07)
(2.4006e-07 2.19823e-07 -7.52236e-07)
(2.96736e-07 7.13284e-08 -8.61714e-07)
(-6.77671e-08 -1.68122e-08 -1.27189e-06)
(1.77686e-07 3.96719e-08 -1.05254e-06)
(-4.48628e-07 -2.87903e-07 -1.31982e-06)
(4.93424e-07 3.69011e-07 -1.5624e-06)
(-5.69878e-07 -3.92582e-07 -1.82053e-06)
(6.68917e-07 4.85915e-07 -2.12072e-06)
(-7.72161e-07 -5.50991e-07 -2.49148e-06)
(9.12702e-07 6.51915e-07 -2.90262e-06)
(-1.04868e-06 -7.64144e-07 -3.38352e-06)
(1.22811e-06 8.64764e-07 -3.9128e-06)
(-1.39961e-06 -1.0354e-06 -4.50058e-06)
(1.61889e-06 1.11897e-06 -5.14842e-06)
(-1.82134e-06 -1.3694e-06 -5.82959e-06)
(2.09462e-06 1.40643e-06 -6.57827e-06)
(-2.30517e-06 -1.77842e-06 -7.34316e-06)
(2.72368e-06 1.71924e-06 -7.93143e-06)
(-2.72664e-06 1.67845e-06 -7.68305e-06)
(2.89793e-06 1.40614e-06 -7.54344e-06)
(-2.99201e-06 1.33478e-06 -7.61376e-06)
(2.62714e-06 1.87259e-06 -7.63778e-06)
(-2.18547e-06 2.14921e-06 -7.47372e-06)
(-4.81561e-08 2.55557e-08 -6.08124e-06)
(-1.84889e-06 -2.64615e-06 -7.66038e-06)
(5.48654e-07 1.7361e-06 -7.46615e-06)
(-4.15478e-06 1.21308e-06 -5.886e-06)
(5.56461e-07 -5.63728e-07 -7.38123e-06)
(-1.25136e-06 4.14614e-06 -5.87451e-06)
(4.9039e-07 -5.02664e-07 -9.60544e-06)
(-6.20137e-08 4.64389e-08 -5.72767e-06)
(-3.87575e-08 2.79928e-08 -4.55699e-06)
(-7.94406e-09 1.15305e-09 -3.54222e-06)
(6.24415e-09 -1.08846e-08 -2.68019e-06)
(1.1374e-08 -1.52678e-08 -1.98264e-06)
(1.27383e-08 -1.70767e-08 -1.45119e-06)
(1.13274e-08 -1.51734e-08 -1.0823e-06)
(-3.41356e-08 6.16932e-08 -1.14624e-06)
(3.0452e-08 -3.23739e-08 -1.0076e-06)
(6.54951e-10 2.52061e-09 -6.78132e-07)
(-7.34683e-08 -7.21689e-08 -7.30571e-07)
(-4.34387e-09 2.49729e-08 -1.14264e-06)
(1.03586e-07 -9.31477e-08 -7.50437e-07)
(1.03586e-07 9.31496e-08 -7.50435e-07)
(-7.34801e-08 7.21715e-08 -7.30575e-07)
(6.47066e-10 -2.53213e-09 -6.78134e-07)
(-4.33462e-09 -2.49762e-08 -1.14265e-06)
(3.4452e-08 -2.81693e-08 -7.00401e-07)
(2.73638e-07 1.32708e-07 -8.68874e-07)
(-2.72408e-07 1.36939e-07 -8.64664e-07)
(1.87699e-08 -1.6503e-07 -9.5859e-07)
(2.10217e-07 1.55882e-07 -8.37698e-07)
(-2.02019e-08 3.76351e-08 -1.01032e-06)
(7.79804e-09 -5.0601e-09 -6.83458e-07)
(-3.13225e-08 -2.51551e-08 -6.98384e-07)
(5.00672e-10 2.43787e-08 -1.02864e-06)
(3.07948e-09 -2.33599e-08 -1.13809e-06)
(2.90919e-08 -2.51143e-08 -1.14115e-06)
(1.8332e-08 -9.53115e-12 -1.15063e-06)
(2.90833e-08 2.51097e-08 -1.14113e-06)
(-2.02278e-08 -3.76588e-08 -1.01031e-06)
(-5.74707e-08 6.26627e-08 -7.10778e-07)
(-1.35426e-07 -1.18374e-07 -7.63275e-07)
(-4.10054e-08 1.16484e-10 -1.18131e-06)
(3.03332e-08 -1.31564e-07 -8.14424e-07)
(3.0319e-08 1.31552e-07 -8.14421e-07)
(-1.35423e-07 1.18359e-07 -7.63269e-07)
(-5.95936e-09 -1.72485e-11 -1.05431e-06)
(8.46787e-08 -8.24027e-08 -7.40668e-07)
(-1.00315e-07 -9.01981e-08 -7.45954e-07)
(-1.00303e-07 9.01845e-08 -7.45935e-07)
(1.74309e-09 -2.37595e-08 -1.14197e-06)
(8.46765e-08 8.23787e-08 -7.40654e-07)
(-1.84646e-09 -1.21536e-08 -9.88358e-07)
(-1.86693e-08 -8.52419e-12 -9.41718e-07)
(-2.4504e-08 -6.64809e-08 -9.23825e-07)
(-2.24922e-08 -2.93671e-08 -8.59041e-07)
(1.01749e-07 8.67722e-08 -9.71796e-07)
(-2.27872e-08 -2.24387e-08 -9.30549e-07)
(-7.61356e-09 4.04308e-12 -9.67681e-07)
(-1.68435e-07 1.26332e-12 -1.31732e-06)
(2.40063e-08 -1.18582e-11 -1.04284e-06)
(-6.72927e-08 -1.25368e-07 -7.67084e-07)
(1.04444e-07 9.0313e-08 -1.10859e-06)
(1.12233e-07 2.51712e-07 -8.32135e-07)
(2.48591e-07 -6.06732e-08 -7.24751e-07)
(1.76486e-07 1.99963e-07 -8.8129e-07)
(-4.57489e-07 -2.66537e-07 -9.22249e-07)
(2.95428e-07 3.08719e-07 -1.3082e-06)
(-4.71573e-07 -3.28142e-07 -1.37899e-06)
(-4.71555e-07 3.28098e-07 -1.37897e-06)
(-1.19362e-08 4.18203e-08 -9.68673e-07)
(-4.69963e-07 3.73467e-07 -1.64284e-06)
(9.76969e-09 2.66469e-08 -1.11515e-06)
(5.11328e-07 -4.52867e-07 -1.9021e-06)
(-6.13762e-07 5.13143e-07 -2.23345e-06)
(7.042e-09 1.41075e-08 -1.51811e-06)
(7.04036e-07 -6.11599e-07 -2.59768e-06)
(-8.32726e-07 7.08578e-07 -3.04475e-06)
(1.36073e-09 2.82981e-09 -2.06826e-06)
(9.59074e-07 -8.24468e-07 -3.52998e-06)
(-1.11902e-06 9.61654e-07 -4.09126e-06)
(-8.06126e-09 -1.35734e-08 -2.76904e-06)
(1.27946e-06 -1.08977e-06 -4.70079e-06)
(-1.46537e-06 1.27336e-06 -5.36672e-06)
(-2.42188e-08 -4.80559e-08 -3.61595e-06)
(1.67322e-06 -1.40125e-06 -6.09811e-06)
(-1.85262e-06 1.64422e-06 -6.84764e-06)
(-4.52182e-08 -1.31436e-07 -4.5899e-06)
(2.1978e-06 -1.74761e-06 -7.64376e-06)
(-2.20711e-06 2.06628e-06 -8.60467e-06)
(-1.19857e-07 -3.55454e-07 -5.84859e-06)
(3.30449e-06 -2.23799e-06 -8.90104e-06)
(5.34412e-07 -1.0317e-06 -6.09231e-06)
(3.81452e-06 -2.29424e-06 -7.74559e-06)
(3.81446e-06 2.29412e-06 -7.74548e-06)
(-3.49288e-07 -1.35994e-07 -8.08852e-06)
(8.28837e-07 -6.2315e-07 -8.07331e-06)
(-3.07232e-07 1.19024e-06 -7.31017e-06)
(1.20566e-06 1.06197e-06 -6.7894e-06)
(5.92961e-08 -6.16241e-11 -9.71157e-06)
(-7.70558e-07 -7.54936e-07 -6.50448e-06)
(-7.70556e-07 7.54938e-07 -6.50453e-06)
(8.34638e-07 7.8742e-07 -6.55529e-06)
(-4.21795e-08 -4.94444e-11 -9.72842e-06)
(-9.86407e-07 -9.49101e-07 -6.64057e-06)
(-9.86354e-07 9.49054e-07 -6.64055e-06)
(2.64169e-07 3.8301e-07 -6.29276e-06)
(-3.12078e-07 -1.40674e-10 -9.57311e-06)
(-1.38166e-06 -2.46754e-06 -7.98051e-06)
(-1.38155e-06 2.46721e-06 -7.9803e-06)
(4.53552e-07 -1.53176e-06 -9.05564e-06)
(1.94314e-06 -2.0714e-10 -1.27718e-05)
(4.53498e-07 1.53132e-06 -9.05548e-06)
(7.32588e-07 -1.194e-06 -9.1987e-06)
(2.1213e-06 7.59032e-07 -1.26232e-05)
(8.89667e-07 1.74821e-06 -9.16091e-06)
(1.21699e-06 1.2132e-06 -1.06426e-05)
(1.60636e-06 1.60228e-06 -9.35363e-06)
(-2.38515e-06 -2.36517e-06 -9.14314e-06)
(-1.3886e-06 1.68666e-06 -7.58481e-06)
(1.3882e-06 2.24886e-07 -8.86907e-06)
(8.91013e-07 1.42902e-07 -1.01813e-05)
(-4.90687e-10 2.43465e-08 -9.55503e-06)
(2.64147e-07 -3.83112e-07 -6.29278e-06)
(-1.5762e-07 -1.38698e-07 -6.00102e-06)
(-4.01837e-07 -3.92232e-07 -9.43035e-06)
(1.67674e-06 -1.35536e-06 -7.61625e-06)
(-1.2139e-06 7.28994e-07 -9.20193e-06)
(7.52705e-07 2.09324e-06 -1.26236e-05)
(1.74829e-06 8.87216e-07 -9.1668e-06)
(9.99487e-07 1.00138e-06 -1.01806e-05)
(-5.25304e-07 -5.11571e-07 -9.25181e-06)
(-7.08692e-07 -7.15755e-11 -9.35144e-06)
(-5.25187e-07 5.11597e-07 -9.25182e-06)
(-4.01817e-07 3.92259e-07 -9.43034e-06)
(-1.38834e-06 -1.68655e-06 -7.58469e-06)
(-2.38514e-06 2.36517e-06 -9.14315e-06)
(8.89987e-07 -1.74819e-06 -9.16081e-06)
(2.12162e-06 -7.58778e-07 -1.26229e-05)
(7.32819e-07 1.19385e-06 -9.19864e-06)
(1.38841e-06 -2.25116e-07 -8.86922e-06)
(8.91172e-07 -1.43105e-07 -1.01814e-05)
(9.99642e-07 -1.00116e-06 -1.01804e-05)
(1.74822e-06 -8.87232e-07 -9.16715e-06)
(7.52409e-07 -2.09304e-06 -1.26231e-05)
(-1.21395e-06 -7.29007e-07 -9.20194e-06)
(1.67669e-06 1.35532e-06 -7.61623e-06)
(2.09537e-07 -1.39718e-06 -8.86064e-06)
(1.50767e-06 -4.9806e-07 -9.11578e-06)
(-3.85277e-08 -1.93886e-06 -1.27814e-05)
(-1.57455e-06 -4.38172e-07 -9.06834e-06)
(2.45456e-06 1.27785e-06 -8.00579e-06)
(-3.94087e-08 3.04224e-07 -9.58749e-06)
(-4.38615e-07 -2.99015e-07 -6.29088e-06)
(-2.52827e-06 1.38934e-06 -7.98941e-06)
(-4.74306e-08 -2.75258e-07 -9.2337e-06)
(-2.96349e-07 -3.31595e-07 -9.3282e-06)
(1.68553e-08 1.45359e-08 -6.08164e-06)
(1.40646e-08 -9.30946e-09 -4.85415e-06)
(6.76456e-09 -2.75666e-08 -3.78031e-06)
(3.86774e-09 -3.20512e-08 -2.86368e-06)
(2.11346e-09 -3.07138e-08 -2.12015e-06)
(6.46399e-11 -2.79119e-08 -1.55234e-06)
(-1.3456e-09 -2.38368e-08 -1.15761e-06)
(-9.08688e-09 -2.87287e-08 -1.14752e-06)
(4.51036e-07 -2.72501e-07 -1.28345e-06)
(-4.87282e-07 -2.32271e-07 -1.26629e-06)
(4.92286e-07 -2.09528e-07 -1.27103e-06)
(-4.42147e-07 -3.18037e-07 -1.27827e-06)
(4.79623e-07 4.16378e-07 -1.48727e-06)
(-5.83742e-07 -4.45135e-07 -1.73697e-06)
(6.63759e-07 5.55015e-07 -2.01591e-06)
(-7.94084e-07 -6.25528e-07 -2.37855e-06)
(9.13212e-07 7.45456e-07 -2.76084e-06)
(-1.07489e-06 -8.69966e-07 -3.23344e-06)
(1.23674e-06 9.87849e-07 -3.72391e-06)
(-1.42853e-06 -1.18581e-06 -4.30772e-06)
(1.63716e-06 1.27555e-06 -4.90091e-06)
(-1.84968e-06 -1.57796e-06 -5.59306e-06)
(2.10623e-06 1.59582e-06 -6.25511e-06)
(-2.299e-06 -2.02469e-06 -7.07215e-06)
(-3.80678e-08 3.96798e-08 -6.07623e-06)
(1.93579e-06 -1.92599e-06 -6.79354e-06)
(1.96212e-06 2.28928e-06 -7.04956e-06)
(1.41339e-06 -2.52911e-06 -6.92048e-06)
(-1.12982e-06 2.37122e-06 -6.24468e-06)
(2.26602e-08 -9.90273e-11 -4.96408e-06)
(-1.12964e-06 -2.37135e-06 -6.24481e-06)
(1.1027e-06 2.05224e-06 -5.50871e-06)
(1.52162e-06 -1.84359e-06 -5.5815e-06)
(1.50848e-06 1.49474e-06 -5.41369e-06)
(-1.27424e-06 -1.24897e-06 -4.81078e-06)
(-1.23955e-06 1.65101e-06 -4.91096e-06)
(3.75129e-08 8.68114e-09 -3.7686e-06)
(1.14242e-06 1.12866e-06 -4.1883e-06)
(4.91212e-09 4.46351e-08 -3.76303e-06)
(1.63742e-06 -1.27545e-06 -4.90109e-06)
(-2.27536e-08 -4.88367e-08 -4.2819e-06)
(-1.87438e-06 -8.43713e-07 -4.88433e-06)
(1.82877e-06 -9.65568e-07 -4.86763e-06)
(-3.80244e-09 4.38451e-08 -3.8444e-06)
(-1.59875e-06 8.922e-07 -4.26717e-06)
(1.47891e-06 9.74946e-07 -4.26464e-06)
(-1.71624e-06 -1.07955e-06 -4.89365e-06)
(-4.26893e-09 -5.46041e-08 -4.28651e-06)
(-2.06821e-06 1.1833e-06 -5.52899e-06)
(-7.29479e-09 2.53618e-08 -4.94899e-06)
(2.34733e-06 -1.19842e-06 -6.21024e-06)
(-2.5538e-06 1.49965e-06 -6.96129e-06)
(-1.30112e-08 -6.46031e-08 -6.1657e-06)
(-2.99194e-06 -1.33476e-06 -7.61368e-06)
(-9.14008e-08 -3.88601e-09 -6.78816e-06)
(1.37466e-06 9.37581e-08 -7.18285e-06)
(-6.31367e-08 -1.08921e-06 -1.13222e-05)
(2.09578e-07 1.39705e-06 -8.86063e-06)
(-2.52828e-06 -1.38941e-06 -7.98937e-06)
(-4.38598e-07 2.98918e-07 -6.29083e-06)
(8.09871e-08 1.03707e-07 -9.35292e-06)
(-3.0802e-08 -1.04432e-08 -7.18023e-06)
(-2.89766e-08 -6.00472e-11 -6.40562e-06)
(-2.4603e-08 2.6714e-08 -6.00359e-06)
(-1.54302e-08 2.13122e-09 -4.80313e-06)
(-7.89867e-09 -1.72482e-08 -3.74002e-06)
(-3.61733e-09 -2.37604e-08 -2.83242e-06)
(-1.42282e-09 -2.42729e-08 -2.09619e-06)
(-3.44386e-10 -2.29177e-08 -1.53442e-06)
(4.14238e-10 -1.96651e-08 -1.14354e-06)
(3.08161e-09 2.33473e-08 -1.13807e-06)
(4.84884e-10 -2.4384e-08 -1.02864e-06)
(-3.13264e-08 2.51607e-08 -6.98392e-07)
(1.72487e-09 2.37439e-08 -1.14196e-06)
(7.79723e-09 5.07588e-09 -6.83449e-07)
(2.10214e-07 -1.55884e-07 -8.37702e-07)
(1.87597e-08 1.65024e-07 -9.58576e-07)
(-8.45319e-09 -1.13064e-07 -1.33989e-06)
(-2.40627e-07 7.77484e-08 -9.95101e-07)
(2.11699e-07 4.39454e-08 -9.88911e-07)
(-2.11199e-07 3.57937e-08 -9.8327e-07)
(2.32992e-07 9.7432e-08 -1.00446e-06)
(-9.41611e-08 6.86725e-08 -9.47338e-07)
(4.56621e-07 -1.88611e-08 -7.49734e-07)
(-1.20724e-07 -2.62857e-07 -1.0521e-06)
(3.0146e-07 4.3263e-07 -1.27489e-06)
(2.07231e-08 1.0836e-09 -1.14045e-06)
(-3.93117e-07 -4.84467e-07 -1.51113e-06)
(-3.96123e-07 3.92986e-07 -1.42774e-06)
(3.69082e-07 -3.35156e-07 -1.24527e-06)
(1.18427e-08 -2.79052e-08 -1.12921e-06)
(-8.10474e-09 1.86363e-08 -1.21669e-06)
(-5.045e-08 1.35504e-07 -1.06162e-06)
(1.38975e-09 1.37828e-07 -1.06556e-06)
(5.73182e-08 1.36729e-07 -1.06176e-06)
(1.13296e-07 8.53345e-08 -1.04749e-06)
(1.44209e-07 9.53931e-08 -9.91834e-07)
(-1.61882e-10 5.68869e-09 -1.21974e-06)
(2.17443e-08 3.70473e-08 -1.2428e-06)
(5.58802e-08 4.13994e-08 -1.07517e-06)
(6.81733e-09 1.93451e-08 -1.22059e-06)
(-9.37803e-09 -2.20242e-08 -1.63771e-06)
(-4.27525e-09 4.39325e-09 -1.67022e-06)
(-1.54752e-08 -9.11734e-09 -1.63356e-06)
(-2.65021e-08 -1.98113e-08 -2.22863e-06)
(-2.17254e-08 -1.77116e-08 -2.29143e-06)
(1.31805e-08 1.36641e-08 -1.9569e-06)
(1.76899e-08 1.91494e-08 -1.4286e-06)
(6.37024e-09 2.09571e-08 -1.39159e-06)
(-4.99858e-07 3.59668e-07 -1.47183e-06)
(5.39206e-07 3.16317e-07 -1.47841e-06)
(-6.49742e-07 -3.28754e-07 -1.72222e-06)
(6.55664e-07 -2.87335e-07 -1.72303e-06)
(-2.18754e-09 1.67696e-08 -1.31135e-06)
(-5.4634e-07 2.85812e-07 -1.47041e-06)
(4.67453e-11 -3.13927e-08 -1.15611e-06)
(2.07604e-10 2.54221e-08 -1.22276e-06)
(3.26277e-10 -1.88863e-08 -1.63906e-06)
(6.81579e-10 -5.45348e-08 -2.25555e-06)
(-1.6549e-08 -5.54791e-08 -2.2522e-06)
(-2.42203e-08 -9.37275e-08 -3.05837e-06)
(-4.29722e-08 -4.15427e-08 -3.10835e-06)
(-4.0589e-08 -3.24872e-08 -3.01147e-06)
(-5.89117e-08 -4.87478e-08 -3.98167e-06)
(-7.42233e-08 -7.74899e-08 -4.12238e-06)
(1.4068e-10 -1.17749e-09 -3.58683e-06)
(8.70717e-09 7.90249e-09 -2.67397e-06)
(8.84757e-09 1.69008e-08 -2.60402e-06)
(-9.58107e-07 6.25503e-07 -2.74751e-06)
(1.02531e-06 5.68989e-07 -2.74377e-06)
(-1.20172e-06 -6.53747e-07 -3.20631e-06)
(1.2104e-06 -5.65887e-07 -3.19649e-06)
(-8.55977e-09 3.22572e-08 -2.44654e-06)
(-1.04491e-06 4.96567e-07 -2.74133e-06)
(8.93563e-07 -4.04969e-07 -2.35542e-06)
(-5.4102e-09 2.47096e-08 -1.79315e-06)
(-7.59181e-07 3.74242e-07 -1.99834e-06)
(-4.93172e-10 -3.15845e-08 -1.56094e-06)
(7.46665e-07 4.24551e-07 -2.00395e-06)
(-8.8626e-07 -4.6757e-07 -2.35934e-06)
(2.11367e-09 2.60831e-08 -1.79761e-06)
(-6.95481e-07 4.68995e-07 -2.00222e-06)
(6.04204e-07 -3.7457e-07 -1.73477e-06)
(2.23184e-09 1.81002e-08 -1.31431e-06)
(2.42091e-10 3.17459e-09 -1.45793e-06)
(-1.26311e-08 -1.10339e-08 -1.39533e-06)
(-4.6991e-07 -3.734e-07 -1.64281e-06)
(1.53667e-08 4.69294e-09 -9.52515e-07)
(3.72081e-07 3.45307e-07 -1.45081e-06)
(1.59934e-08 -4.89359e-08 -8.74562e-07)
(-4.45299e-07 -2.97823e-07 -1.20857e-06)
(-2.43057e-07 -6.21936e-08 -7.29658e-07)
(7.77857e-08 -2.50164e-08 -8.73729e-07)
(-2.13329e-08 -3.89794e-09 -1.03654e-06)
(-1.15887e-09 8.37542e-09 -1.07034e-06)
(-4.04323e-09 2.10924e-08 -1.02122e-06)
(5.44211e-09 4.57003e-08 -1.0579e-06)
(-6.41607e-09 4.42679e-08 -1.05734e-06)
(9.47416e-09 -1.15823e-07 -1.33469e-06)
(-5.20234e-08 4.33444e-08 -1.10257e-06)
(-9.09464e-08 8.46245e-08 -1.04288e-06)
(-6.26893e-08 5.32781e-08 -1.02827e-06)
(5.4543e-09 8.44387e-09 -1.23342e-06)
(-3.1507e-08 2.70776e-08 -1.21819e-06)
(-2.22666e-08 2.17746e-08 -1.45025e-06)
(-7.88217e-09 2.0051e-08 -1.38962e-06)
(9.77928e-09 -2.23695e-08 -1.62986e-06)
(1.94854e-08 -5.65669e-08 -2.24184e-06)
(3.00825e-08 -9.64909e-08 -3.04756e-06)
(9.36567e-10 -9.56844e-08 -3.06588e-06)
(9.11638e-10 -1.55415e-07 -4.06799e-06)
(-3.45393e-08 -1.47551e-07 -4.05449e-06)
(-5.38845e-08 -2.40421e-07 -5.23273e-06)
(-1.29189e-07 -1.50099e-07 -5.33058e-06)
(-8.36456e-08 -7.21175e-08 -5.12762e-06)
(-1.563e-07 -1.43349e-07 -6.40514e-06)
(-2.89426e-07 -3.50069e-07 -6.75463e-06)
(-6.34532e-08 -5.64682e-08 -5.96695e-06)
(-1.7872e-08 -1.90083e-08 -4.69276e-06)
(5.91241e-09 1.94561e-09 -4.58986e-06)
(-1.71617e-06 1.07958e-06 -4.89345e-06)
(1.82869e-06 9.65715e-07 -4.86751e-06)
(-2.06825e-06 -1.18323e-06 -5.52892e-06)
(2.07042e-06 -1.03793e-06 -5.489e-06)
(-2.27848e-08 4.8814e-08 -4.28194e-06)
(-1.87422e-06 8.43771e-07 -4.88427e-06)
(1.60693e-06 -7.74917e-07 -4.24751e-06)
(-1.33569e-08 3.98684e-08 -3.27843e-06)
(-1.41479e-06 6.53768e-07 -3.70301e-06)
(-1.92377e-09 -4.19706e-08 -2.90331e-06)
(1.38499e-06 7.51193e-07 -3.69976e-06)
(-1.5987e-06 -8.92099e-07 -4.26718e-06)
(-7.04362e-10 4.34411e-08 -3.28378e-06)
(-1.29764e-06 8.29505e-07 -3.71094e-06)
(1.11558e-06 -7.18003e-07 -3.21158e-06)
(1.21157e-09 3.44238e-08 -2.45186e-06)
(4.68487e-10 5.93631e-09 -2.70875e-06)
(8.24165e-10 4.60865e-09 -1.98976e-06)
(-1.34455e-08 -1.45767e-08 -1.8996e-06)
(-6.1374e-07 -5.13077e-07 -2.23343e-06)
(8.37262e-09 2.56794e-09 -1.29123e-06)
(5.11336e-07 4.52884e-07 -1.90206e-06)
(9.81258e-09 -2.6642e-08 -1.11515e-06)
(3.58587e-08 -7.48059e-09 -1.13316e-06)
(-5.91985e-07 -4.51805e-07 -1.85111e-06)
(6.50653e-07 5.4963e-07 -2.16528e-06)
(-7.96225e-07 -6.22952e-07 -2.52368e-06)
(-7.96235e-07 6.22905e-07 -2.5236e-06)
(-1.89202e-09 1.27952e-08 -1.76304e-06)
(9.01838e-07 -7.4671e-07 -2.94534e-06)
(8.80325e-09 6.99798e-09 -2.10271e-06)
(-1.07528e-06 8.50574e-07 -3.42186e-06)
(-1.45614e-09 4.45409e-09 -2.38102e-06)
(1.21985e-06 -9.99734e-07 -3.95646e-06)
(-2.65746e-09 8.39203e-09 -2.81288e-06)
(-1.42055e-06 1.13571e-06 -4.54829e-06)
(-1.3864e-10 -1.19691e-08 -3.14728e-06)
(1.60962e-06 -1.30354e-06 -5.18924e-06)
(-3.12256e-08 6.83043e-09 -3.66641e-06)
(-1.80344e-06 1.47531e-06 -5.89324e-06)
(1.02076e-08 -5.75033e-08 -4.05205e-06)
(2.08353e-06 -1.64235e-06 -6.60645e-06)
(-1.23095e-07 -8.49439e-09 -4.63801e-06)
(-2.14177e-06 1.86114e-06 -7.44757e-06)
(6.45141e-08 -2.11491e-07 -5.06672e-06)
(2.72197e-06 -1.94311e-06 -8.01837e-06)
(-4.61489e-07 -1.59794e-07 -5.73587e-06)
(-2.11368e-06 2.17667e-06 -9.31994e-06)
(-2.83539e-07 -1.03999e-10 -7.46044e-06)
(-2.11362e-06 -2.17675e-06 -9.31991e-06)
(5.34423e-07 1.0315e-06 -6.09231e-06)
(3.3045e-06 2.23816e-06 -8.90075e-06)
(-1.19768e-07 3.55334e-07 -5.84852e-06)
(-2.20697e-06 -2.06617e-06 -8.60474e-06)
(-9.27863e-08 -2.30522e-08 -5.0531e-06)
(2.19776e-06 1.74758e-06 -7.64367e-06)
(-4.50353e-08 1.3132e-07 -4.58983e-06)
(-1.85256e-06 -1.64411e-06 -6.84763e-06)
(-4.80578e-08 -7.49818e-09 -4.07019e-06)
(1.67333e-06 1.40146e-06 -6.09804e-06)
(-2.40566e-08 4.79755e-08 -3.61596e-06)
(-1.46512e-06 -1.27319e-06 -5.36678e-06)
(-2.18161e-08 -3.56126e-09 -3.16439e-06)
(1.27955e-06 1.08993e-06 -4.70078e-06)
(-7.9365e-09 1.34545e-08 -2.76898e-06)
(-1.11896e-06 -9.61581e-07 -4.0913e-06)
(-7.98458e-09 -9.5352e-10 -2.39247e-06)
(9.59091e-07 8.2455e-07 -3.52988e-06)
(1.47292e-09 -2.87977e-09 -2.06822e-06)
(-8.32695e-07 -7.08503e-07 -3.04477e-06)
(8.73212e-10 9.71012e-10 -1.76792e-06)
(7.04042e-07 6.11652e-07 -2.59763e-06)
(7.13131e-09 -1.41083e-08 -1.51809e-06)
(1.88286e-08 -6.11028e-09 -1.54358e-06)
(-2.43723e-08 -2.28202e-08 -1.95088e-06)
(-2.60776e-08 -1.69097e-08 -1.44752e-06)
(-2.53137e-08 -6.00446e-09 -1.11631e-06)
(1.39711e-07 6.77089e-08 -9.79447e-07)
(1.25258e-08 -2.80599e-11 -9.46745e-07)
(-5.34417e-08 -3.39944e-12 -1.01116e-06)
(-6.46843e-08 -5.69518e-11 -1.24922e-06)
(-6.76987e-08 -4.32625e-12 -1.64245e-06)
(-7.68825e-08 2.48186e-11 -2.22028e-06)
(-9.09645e-08 4.47658e-11 -2.98763e-06)
(-9.77242e-08 1.13271e-10 -3.93972e-06)
(-6.52952e-08 4.00039e-10 -5.06003e-06)
(5.31813e-08 1.28194e-10 -6.30218e-06)
(1.93699e-07 -7.02955e-11 -7.38897e-06)
(-1.60722e-07 -1.88082e-10 -8.25495e-06)
(-1.34115e-06 6.35838e-07 -8.18711e-06)
(-1.34118e-06 -6.35965e-07 -8.18704e-06)
(-1.38554e-06 -8.87404e-07 -7.68321e-06)
(-1.14208e-06 -8.47105e-07 -8.86245e-06)
(-4.19034e-07 -2.56315e-07 -7.29518e-06)
(-1.49769e-07 -4.53576e-07 -6.61374e-06)
(-6.18093e-07 -1.42101e-06 -8.63844e-06)
(1.02318e-06 4.266e-06 -6.00059e-06)
(1.68381e-06 -4.04091e-07 -7.3155e-06)
(2.95901e-08 2.01015e-08 -6.79444e-06)
(6.26787e-09 -1.79845e-08 -6.97897e-06)
(1.01704e-07 -2.46123e-08 -6.77309e-06)
(-4.61431e-07 1.59835e-07 -5.73577e-06)
(2.72181e-06 1.9432e-06 -8.01824e-06)
(6.45578e-08 2.11399e-07 -5.06671e-06)
(-2.14176e-06 -1.86111e-06 -7.4476e-06)
(-1.93183e-07 -4.4152e-11 -5.95073e-06)
(-5.49729e-08 -4.75578e-11 -6.11592e-06)
(-5.55388e-08 -5.3724e-11 -4.87229e-06)
(1.03462e-08 5.7464e-08 -4.05199e-06)
(-1.80341e-06 -1.47533e-06 -5.8933e-06)
(2.0835e-06 1.64235e-06 -6.60628e-06)
(-1.23058e-07 8.49367e-09 -4.63806e-06)
(1.28582e-09 -1.77119e-08 -5.68235e-06)
(-1.60554e-08 -2.14561e-08 -4.49502e-06)
(-3.12179e-08 -6.86548e-09 -3.66639e-06)
(1.60943e-06 1.30353e-06 -5.18913e-06)
(-6.42262e-11 1.1923e-08 -3.14729e-06)
(-1.42045e-06 -1.1358e-06 -4.54844e-06)
(-3.46505e-08 -8.89179e-12 -3.67411e-06)
(-5.00216e-08 -4.3573e-11 -3.79137e-06)
(-4.23586e-08 -5.17219e-11 -2.87282e-06)
(-3.32198e-08 -4.39193e-11 -2.12959e-06)
(-1.82716e-09 -1.28943e-08 -1.76304e-06)
(9.01843e-07 7.46664e-07 -2.94521e-06)
(-1.07526e-06 -8.50645e-07 -3.42197e-06)
(1.21982e-06 9.99722e-07 -3.95633e-06)
(-2.62235e-09 -8.3724e-09 -2.8128e-06)
(-1.80933e-08 -2.09402e-08 -3.45181e-06)
(-1.59881e-08 -1.8139e-08 -2.58368e-06)
(1.80932e-09 -4.34454e-11 -2.2422e-06)
(8.75691e-10 -2.7838e-11 -1.64316e-06)
(-1.2049e-09 -1.13489e-11 -1.23071e-06)
(-1.42823e-08 -1.75309e-11 -1.17509e-06)
(-1.19087e-08 -4.18766e-08 -9.68688e-07)
(4.58968e-07 4.08595e-07 -1.61641e-06)
(2.98761e-08 -1.55616e-11 -1.1462e-06)
(4.58977e-07 -4.08653e-07 -1.61645e-06)
(3.57862e-08 7.46437e-09 -1.13319e-06)
(-5.91985e-07 4.51753e-07 -1.85108e-06)
(-3.99141e-09 2.1734e-08 -1.29416e-06)
(6.5069e-07 -5.49712e-07 -2.16537e-06)
(1.88283e-08 6.08211e-09 -1.54359e-06)
(-1.34412e-08 1.45186e-08 -1.89961e-06)
(-2.33405e-08 -2.34531e-11 -1.56399e-06)
(-3.96413e-09 -2.18136e-08 -1.29415e-06)
(1.17179e-08 -2.02034e-11 -1.51633e-06)
(-1.26117e-08 1.09905e-08 -1.39534e-06)
(-2.13187e-08 3.87723e-09 -1.03655e-06)
(-4.45317e-07 2.97836e-07 -1.20858e-06)
(1.60025e-08 4.89221e-08 -8.74585e-07)
(3.72085e-07 -3.45306e-07 -1.45085e-06)
(7.77473e-08 2.5e-08 -8.73756e-07)
(2.95409e-07 -3.08742e-07 -1.30822e-06)
(-6.7293e-08 1.25367e-07 -7.67097e-07)
(-4.57519e-07 2.6653e-07 -9.22249e-07)
(3.69762e-08 -2.44132e-13 -9.64906e-07)
(1.76481e-07 -1.99952e-07 -8.81301e-07)
(2.48572e-07 6.0672e-08 -7.24749e-07)
(1.12229e-07 -2.51757e-07 -8.32147e-07)
(2.9676e-07 -7.13342e-08 -8.61724e-07)
(1.04443e-07 -9.03103e-08 -1.10862e-06)
(3.65566e-08 -1.06034e-08 -8.90013e-07)
(-9.43333e-08 -5.79702e-08 -8.50937e-07)
(5.24732e-08 -2.95975e-08 -1.00178e-06)
(-2.27957e-08 2.24363e-08 -9.30564e-07)
(-2.44975e-08 6.64766e-08 -9.23834e-07)
(1.01747e-07 -8.67796e-08 -9.71813e-07)
(-2.25073e-08 2.938e-08 -8.58973e-07)
(1.54984e-08 -9.00119e-08 -9.93842e-07)
(8.05642e-10 6.65419e-08 -9.33598e-07)
(9.67866e-10 -8.60388e-12 -9.58795e-07)
(7.93335e-10 -6.65397e-08 -9.33568e-07)
(2.75745e-10 -3.27056e-08 -8.59748e-07)
(9.41951e-10 1.78529e-07 -1.35284e-06)
(1.55024e-08 9.00146e-08 -9.9385e-07)
(-1.83986e-09 1.21582e-08 -9.88357e-07)
(5.24746e-08 2.96005e-08 -1.00177e-06)
(-1.31917e-08 -2.23108e-08 -7.78636e-07)
(-9.43331e-08 5.79628e-08 -8.50918e-07)
(3.65738e-08 1.06015e-08 -8.90017e-07)
(8.069e-10 1.24909e-08 -9.88734e-07)
(3.02364e-08 -6.38021e-08 -9.18122e-07)
(2.572e-08 -2.70166e-08 -8.54765e-07)
(-1.62698e-08 8.97689e-08 -9.95386e-07)
(-9.95979e-08 8.36206e-08 -9.68973e-07)
(3.01512e-08 -1.91875e-08 -9.25859e-07)
(-5.21561e-08 2.14343e-08 -9.79499e-07)
(9.72624e-08 1.18503e-07 -7.3366e-07)
(2.97414e-07 -1.71853e-07 -9.90002e-07)
(-1.70838e-07 1.59806e-07 -9.85313e-07)
(5.92037e-08 -2.38255e-08 -1.29418e-06)
(2.73149e-08 -1.19896e-12 -9.359e-07)
(1.5185e-08 -4.54549e-13 -1.04522e-06)
(1.25747e-08 2.1296e-12 -1.12902e-06)
(2.10194e-09 -5.3803e-12 -1.13809e-06)
(-1.63853e-10 -5.44925e-12 -1.06483e-06)
(2.3669e-10 -1.12133e-11 -1.2281e-06)
(-6.39175e-10 -8.67591e-12 -1.64044e-06)
(-1.70516e-09 -9.56605e-12 -2.23973e-06)
(-4.03849e-09 -2.68932e-11 -3.02451e-06)
(1.99796e-09 -4.1776e-11 -3.02704e-06)
(2.49359e-09 -1.88843e-11 -3.99461e-06)
(6.37503e-09 -3.13686e-11 -5.12738e-06)
(1.88099e-08 -5.34392e-11 -6.41847e-06)
(-1.53364e-07 -3.97753e-11 -9.04405e-06)
(-3.88413e-07 -4.83777e-11 -8.30873e-06)
(1.61369e-06 -1.11822e-10 -1.22365e-05)
(-3.0723e-07 -1.19037e-06 -7.31014e-06)