/*--------------------------------*- C++ -*----------------------------------*\
| =========                 |                                                 |
| \\      /  F ield         | OpenFOAM: The Open Source CFD Toolbox           |
|  \\    /   O peration     | Version:  2306                                  |
|   \\  /    A nd           | Website:  www.openfoam.com                      |
|    \\/     M anipulation  |                                                 |
\*---------------------------------------------------------------------------*/
FoamFile
{
    version     2.0;
    format      ascii;
    arch        "LSB;label=32;scalar=64";
    class       volScalarField;
    location    "2.7";
    object      gradTx;
}
// * * * * * * * * * * * * * * * * * * * * * * * * * * * * * * * * * * * * * //

dimensions      [0 -1 0 1 0 0 0];

internalField   nonuniform List<scalar> 
2658
(
0.00867108
0.012627
0.00405124
-0.000410805
-0.0186777
-0.0158031
0.0167731
0.0165463
-0.00032427
0.0224544
-0.014958
-0.0106952
0.00700314
0.00841537
0.00646611
-0.000620938
-0.000288029
-5.05052e-05
-0.00710051
-0.00915233
-0.00862744
-0.0200713
-0.0241378
0.0182495
-0.00777196
-0.00948212
-0.020425
-0.00298553
-0.0149614
-0.0160078
-0.0149613
-0.0204253
-0.00948391
-0.0241401
-0.00777173
0.0182496
-0.0102014
0.00464465
-0.0200675
-0.00862908
-0.00915153
-0.00709813
-5.08953e-05
0.000615548
-0.0125488
0.0117491
-0.0149583
-0.00054014
-0.000623642
0.00646478
0.00841503
0.00700458
0.0190273
-0.00406699
0.0214375
0.0175914
-0.0094621
0.00100099
-0.0337382
0.0177934
-0.00946222
0.0175917
0.0214336
-0.00406865
0.00475497
-0.0355141
0.00468942
-0.000224001
-0.0118295
-0.0118304
-0.000577637
0.0120776
-0.000690243
-0.0133233
0.000210437
-0.0140216
0.0180036
-0.000146067
-0.0158103
0.0176956
-0.0206578
-0.000364975
0.021699
-0.0196499
-0.000529791
-0.000331277
-6.75993e-05
5.38244e-05
9.72402e-05
0.000108789
9.67924e-05
-0.00029172
0.000260194
-0.00174213
0.00118899
-0.000208754
-0.00147691
8.06538e-06
0.00148763
-0.00120832
0.000658645
0.00168592
0.00145401
0.00121463
0.00126295
-0.00252286
-0.000491235
-0.000350501
-0.000112782
0.000700924
0.00150203
0.000604321
0.00119732
0.000604291
0.00150211
0.000700823
0.00126292
-0.0025228
0.00145401
0.00121468
0.00168594
0.000658624
-0.00120833
0.00148764
-0.00232816
0.00233868
-0.00174199
-0.000208648
-0.00147694
0.00118895
-0.000670111
-0.0016417
-0.00113304
-0.00103076
-0.000651228
7.28462e-05
-0.0002984
-0.00171749
0.00142565
0.00142482
-0.000298158
7.2625e-05
0.000696069
-0.000719611
-0.000827292
-0.000717957
0.000400861
0.000521688
-0.00143805
-0.00149646
-0.00124974
-0.00158
-0.00154974
-0.00160749
-0.00123353
-0.00219587
-0.00200573
-0.000844291
-0.000959229
-0.000696212
2.25012e-06
2.01662e-06
-3.28093e-06
0.000673113
0.000956348
0.000863623
0.00205179
0.00253621
-0.000579206
0.00151868
-0.00383443
0.0042173
-0.00487075
0.00571724
-0.00659967
0.00780087
-0.00896308
0.0104967
-0.0119625
0.0138367
-0.015567
0.0179027
-0.0197023
0.0232793
-0.0233046
0.0247687
-0.0255727
0.0224542
-0.0186793
-0.000411591
-0.0158025
0.00468935
-0.0355109
0.00475607
-0.0106954
0.00419137
-0.000530032
-0.000331261
-6.78979e-05
5.33688e-05
9.72141e-05
0.000108875
9.68156e-05
-0.000291757
0.000260274
5.59787e-06
-0.000627934
-3.71271e-05
0.000885353
0.000885347
-0.000628035
5.53047e-06
-3.7048e-05
0.000294461
0.00233879
-0.00232827
0.000160427
0.00179672
-0.000172666
6.66499e-05
-0.000267714
4.27925e-06
2.63203e-05
0.000248649
0.000156683
0.000248575
-0.000172887
-0.000491202
-0.00115749
-0.000350474
0.000259258
0.000259137
-0.00115746
-5.09347e-05
0.000723749
-0.000857389
-0.000857293
1.48982e-05
0.00072373
-1.57817e-05
-0.000159566
-0.000209436
-0.000192241
0.000869647
-0.000194762
-6.50731e-05
-0.00143961
0.000205182
-0.000575151
0.000892684
0.000959259
0.00212471
0.00150842
-0.00391016
0.00252503
-0.00403054
-0.00403038
-0.000102019
-0.00401678
8.35016e-05
0.00437033
-0.00524582
6.0188e-05
0.0060174
-0.00711732
1.16302e-05
0.00819721
-0.00956426
-6.88997e-05
0.0109355
-0.0125245
-0.000206999
0.014301
-0.0158344
-0.00038648
0.0187846
-0.0188642
-0.00102442
0.0282435
0.00456762
0.0326028
0.0326022
-0.00298537
0.00708408
-0.00262591
0.0103048
0.000506805
-0.00658597
-0.00658595
0.00713366
-0.000360509
-0.00843083
-0.00843038
0.00225785
-0.00266733
-0.0118091
-0.0118081
0.00387651
0.016608
0.00387605
0.00626144
0.0181308
0.00760399
0.0104016
0.0137295
-0.0203859
-0.0118684
0.0118649
0.00761549
-4.1939e-06
0.00225766
-0.00134718
-0.00343451
0.0143311
-0.0103752
0.00643337
0.0149427
0.00854262
-0.00448978
-0.0060572
-0.00448878
-0.00343433
-0.0118662
-0.0203858
0.00760673
0.0181335
0.00626341
0.0118667
0.00761685
0.00854395
0.014942
0.00643084
-0.0103757
0.0143307
0.00179091
0.0128861
-0.000329296
-0.0134577
0.0209791
-0.000336827
-0.00374884
-0.0216092
-0.00040539
-0.0025329
0.000144062
0.000120211
5.78167e-05
3.30576e-05
1.80637e-05
5.52478e-07
-1.15008e-05
-7.76656e-05
0.00385501
-0.00416481
0.00420758
-0.00377903
0.00409934
-0.00498925
0.00567315
-0.00678705
0.00780523
-0.00918713
0.0105704
-0.0122096
0.0139928
-0.0158092
0.018002
-0.0196496
-0.000325366
0.0165452
0.0167703
0.0120802
-0.00965656
0.000193677
-0.00965506
0.00942474
0.0130053
0.012893
-0.0108909
-0.0105944
0.000320623
0.0097643
4.19839e-05
0.013995
-0.000194476
-0.0160204
0.0156305
-3.24995e-05
-0.0136645
0.0126403
-0.0146687
-3.64865e-05
-0.017677
-6.23487e-05
0.0200627
-0.0218274
-0.000111207
-0.0255721
-0.000781204
0.0117492
-0.00053963
0.00179127
-0.0216093
-0.0037487
0.000692197
-0.000263265
-0.000247663
-0.000210282
-0.000131882
-6.751e-05
-3.09174e-05
-1.21608e-05
-2.94347e-06
3.5405e-06
2.63385e-05
4.14431e-06
-0.000267747
1.47424e-05
6.6643e-05
0.0017967
0.000160339
-7.22495e-05
-0.00205664
0.0018094
-0.00180512
0.00199138
-0.000804796
0.00390275
-0.00103183
0.00257658
0.000177121
-0.00335997
-0.00338567
0.00315455
0.00010122
-6.92713e-05
-0.000431197
1.18782e-05
0.000489899
0.000968343
0.00123256
-1.38361e-06
0.000185849
0.000477608
5.82678e-05
-8.01541e-05
-3.65406e-05
-0.000132267
-0.000226514
-0.000185688
0.000112654
0.000151195
5.44465e-05
-0.00427229
0.0046086
-0.00555335
0.00560397
-1.86969e-05
-0.00466958
3.99533e-07
1.77439e-06
2.78869e-06
5.82546e-06
-0.000141445
-0.000207011
-0.000367283
-0.000346915
-0.000503519
-0.000634387
1.20239e-06
7.44203e-05
7.56203e-05
-0.00818895
0.00876333
-0.0102711
0.0103453
-7.31604e-05
-0.00893083
0.00763729
-4.6241e-05
-0.00648873
-4.21515e-06
0.00638175
-0.00757487
1.80656e-05
-0.00594429
0.00516414
1.90756e-05
2.06916e-06
-0.000107958
-0.00401633
0.00013134
0.00318018
0.000136696
-0.00380597
-0.00207741
0.000664835
-0.000182332
-9.90491e-06
-3.45576e-05
4.65137e-05
-5.48382e-05
8.09758e-05
-0.000444645
-0.00077732
-0.000535806
4.66179e-05
-0.000269291
-0.000190313
-6.7369e-05
8.35836e-05
0.000166542
0.000257116
8.00485e-06
7.79178e-06
-0.000295208
-0.000460551
-0.00110418
-0.00071492
-0.0013359
-0.00247373
-0.000542335
-0.000152752
5.05334e-05
-0.0146681
0.0156298
-0.0176774
0.0176959
-0.000194742
-0.016019
0.0137345
-0.000114161
-0.0120922
-1.64425e-05
0.0118376
-0.0136641
-6.02019e-06
-0.011091
0.00953486
1.03553e-05
4.00417e-06
7.04414e-06
-0.000114919
-0.00524564
7.15609e-05
0.0043704
8.38682e-05
0.000306485
-0.0050597
0.00556114
-0.00680534
-0.00680543
-1.61711e-05
0.00770802
7.52415e-05
-0.0091904
-1.24457e-05
0.010426
-2.27133e-05
-0.0121415
-1.18496e-06
0.0137574
-0.000266886
-0.015414
8.72448e-05
0.0178079
-0.0010521
-0.0183057
0.000551402
0.0232647
-0.00394435
-0.0180656
-0.00242341
-0.0180651
0.00456772
0.0282436
-0.00102365
-0.018863
-0.000793045
0.0187842
-0.000384917
-0.0158339
-0.000410751
0.014302
-0.000205612
-0.0125224
-0.000186462
0.0109363
-6.78333e-05
-0.00956374
-6.82443e-05
0.00819736
1.2589e-05
-0.00711705
7.46335e-06
0.00601746
6.09514e-05
0.000160928
-0.000208311
-0.000222885
-0.000216357
0.00119411
0.000107058
-0.000456766
-0.000552857
-0.000578622
-0.000657115
-0.000777474
-0.000835249
-0.000558078
0.000454541
0.00165555
-0.00137369
-0.0114629
-0.0114631
-0.0118422
-0.00976134
-0.00358149
-0.00128007
-0.00528284
0.0087451
0.0143916
0.000252906
5.35716e-05
0.000869261
-0.00394385
0.0232634
0.000551776
-0.0183056
-0.00165114
-0.000469854
-0.00047469
8.84294e-05
-0.0154137
0.0178077
-0.00105178
1.09899e-05
-0.000137226
-0.00026682
0.0137558
-5.48942e-07
-0.0121406
-0.000296158
-0.000427535
-0.00036204
-0.00028393
-1.56168e-05
0.00770806
-0.00919029
0.0104258
-2.24133e-05
-0.000154644
-0.000136651
1.54642e-05
7.48454e-06
-1.02983e-05
-0.000122071
-0.000101784
0.0039228
0.000255352
0.00392288
0.000305865
-0.0050597
-3.41146e-05
0.00556145
0.000160926
-0.000114882
-0.000199491
-3.38815e-05
0.000100153
-0.000107792
-0.000182211
-0.00380613
0.000136773
0.00318021
0.000664506
0.00252486
-0.000575154
-0.00391042
0.000316036
0.00150838
0.00212455
0.000959226
0.00253641
0.000892671
0.00031245
-0.000806268
0.000448489
-0.000194835
-0.00020938
0.000869632
-0.00019237
0.000132465
6.88583e-06
8.27236e-06
6.78064e-06
2.3568e-06
8.05086e-06
0.000132499
-1.57253e-05
0.000448501
-0.00011275
-0.000806266
0.000312596
6.89658e-06
0.000258431
0.000219829
-0.000139058
-0.000851264
0.000257703
-0.000445779
0.000831303
0.002542
-0.00146015
0.000506014
0.000233461
0.000129786
0.000107476
1.79653e-05
-1.40045e-06
2.02299e-06
-5.46303e-06
-1.4574e-05
-3.4517e-05
1.70766e-05
2.13127e-05
5.44874e-05
0.000160769
-0.00131081
-0.00331977
0.0137923
-0.00262589
0.00708525
-0.0152435
-0.00701758
-0.00701776
-0.015245
-0.00775309
2.2736e-05
-0.0137209
0.0231745
0.00155951
-0.000961132
-0.0168572
-0.00158876
0.00979381
-0.00736283
-0.0160158
-0.0131859
-0.0138393
-0.00930267
0.000859479
0.00192655
0.000860674
0.000219654
-0.0129456
0.000861662
-0.00775121
-0.0137205
2.43651e-05
0.00444868
0.0015593
-0.0168585
-0.000960748
0.00210225
-0.000337004
0.020979
-0.0134601
-0.000328014
0.0128882
0.00102934
-0.000582647
0.0019266
0.00155909
-0.00439848
0.00444863
0.00309966
0.000161446
-0.00153709
-0.000581845
-0.000193744
0.00102858
-0.00187365
-3.98259e-06
-0.0013465
0.000692723
-0.000263288
-0.000781579
-0.000280413
-6.76867e-05
-6.90542e-06
7.81002e-06
-0.0188234
0.0200626
-0.0218286
0.0217005
-0.000365078
-0.0206571
-6.22686e-05
-0.000262536
0.000623208
0.000387309
-0.000180156
-0.00014211
-0.000114523
-9.2026e-05
6.80268e-05
0.00704625
-9.04592e-05
-0.000133896
-0.00456634
0.000172868
-0.00456174
0.00516147
0.000223031
-0.00615777
-0.00620419
0.0052633
0.000125004
0.00722584
0.000285139
-0.00818093
-0.0083115
0.000106725
0.00976473
0.00031926
-0.0105931
-0.0108919
4.1539e-05
0.0128934
0.000209742
-0.0133225
-0.0140234
-0.00014518
0.000885079
0.00141738
0.00462844
-0.000257472
-0.000279852
-0.000162502
-0.00046554
0.00312469
0.0032578
0.00404999
0.00216214
0.00130998
0.000834266
0.000525602
0.000286076
-3.90893e-05
-0.000125587
-0.000234418
-0.00327992
0.000220545
-0.0032785
0.00374225
0.000277106
-0.00446564
-0.00446699
0.00374351
0.000151735
0.000130587
0.000100466
-3.20015e-05
3.15465e-05
-0.000210172
-0.000312375
0.00353116
-0.000311226
0.00204467
0.000215708
-0.00233113
-0.00233315
0.002047
-0.000185815
0.00113027
-0.000229194
-0.000230699
0.00164295
-0.000186183
0.0011314
-0.00103309
0.003904
-0.000804162
0.00315455
0.000177021
-0.00338469
-0.00336171
0.00257958
-0.000209973
-3.19902e-05
-9.91283e-06
-1.13924e-05
0.000131251
-0.00383452
-7.72101e-05
-0.00427241
1.94514e-05
-0.00555357
-3.96593e-06
-0.00648871
-4.67052e-05
0.007638
-0.00678754
0.000125899
-0.00620328
-0.00615919
0.000222405
0.00526333
-0.00456549
-0.00456284
0.00017227
0.00385907
0.000131094
0.00567391
-0.00499001
0.00560397
-0.00466985
-1.89332e-05
0.0041005
0.000101611
-0.00377986
0.00420788
3.7464e-07
0.00460879
-0.00416515
0.003855
-0.0020568
-3.45796e-05
0.00180943
3.21554e-05
-0.00180547
3.15589e-05
0.00199223
0.00132349
-0.000696174
2.35113e-06
8.08862e-05
-5.46077e-05
4.64514e-05
0.000477424
0.0012326
0.00119423
-0.00021655
-0.000223062
-1.24318e-06
-0.000132573
-0.000209529
-0.00023737
-0.000226611
-0.000346736
-0.000284502
-0.000282453
-0.000236202
7.52076e-05
-0.000248147
-0.000251956
-0.000502642
-0.000715326
5.9538e-05
6.44386e-05
0.000499289
0.000498786
-0.00133779
-0.0118428
-0.00977114
-0.00358592
0.0232779
0.000132023
-0.0233052
0.000251837
-0.0125489
-0.000465352
-0.000405391
-0.00253295
0.000144029
0.00012016
5.82072e-05
3.31774e-05
1.81746e-05
7.28296e-07
7.12987e-05
-0.00487083
-9.70676e-05
-0.00594417
1.79644e-05
-0.00757523
-7.68042e-06
-0.00893116
-7.34741e-05
0.010346
-0.0091877
0.000107098
-0.0083108
-0.00818256
0.000285025
0.00722523
0.00716357
-0.000309314
0.00518895
0.000336442
-0.00593862
-0.00593993
0.0051903
-0.000309263
0.00716194
-0.000126551
0.000539644
0.000300724
0.000119668
0.000617021
-0.000185689
-0.00053627
-0.00123219
-0.00161577
-0.00120584
-0.000651087
-0.00103116
-0.0011335
-0.00145969
-0.001642
-0.000670225
-0.000959277
-0.000844285
0.00050669
-0.0020061
-0.00219667
-0.000777366
-0.000431381
1.18307e-05
0.000489724
0.000956165
0.000672922
-7.24811e-05
-3.17988e-06
1.70798e-06
-0.00108281
0.00151882
-0.00207748
-0.000579288
0.00086401
0.00205156
0.000967828
5.85481e-05
0.000185718
0.000150853
0.00421753
5.44199e-05
0.00516439
-8.02961e-05
-3.55763e-05
0.000111932
0.00571739
-0.00660043
-8.99586e-05
-0.00819035
9.87161e-06
0.00953443
-0.0102714
-1.59079e-05
-0.0120926
-0.000114656
0.0137344
-0.0122097
0.0105722
-0.000141545
7.3509e-05
-0.0110922
-6.93423e-06
0.0118381
-3.07968e-05
-1.19636e-05
-2.80458e-06
3.6886e-06
2.20032e-06
7.3701e-06
3.98476e-06
-0.000136515
-0.00015437
-7.07349e-06
-6.96054e-06
-2.17284e-05
-3.65445e-05
0.0162827
5.07904e-05
-1.65739e-05
-6.95751e-05
0.0199886
0.00013309
-0.0003265
-0.000206229
-0.000143793
-0.00010439
-7.43976e-05
-4.5179e-05
-0.000171822
0.00368944
0.00270223
0.00270078
0.0036915
-0.000171697
-4.51475e-05
-7.45494e-05
-0.000234113
0.0051633
-0.000125255
-0.000107198
4.70475e-05
0.000286624
0.00052587
-0.000126484
-7.61048e-05
-0.000133317
-9.19107e-05
6.83795e-05
0.00704664
-0.000142125
-0.000184142
7.33754e-05
0.007801
-0.00896342
-8.47501e-05
0.0104967
-0.0119631
-5.7072e-05
0.0138364
-0.0155687
5.12163e-05
-0.0188247
-6.94566e-05
0.019986
-0.0197047
-0.000794287
0.0179016
-0.000412724
-0.000542572
-0.000154026
1.2667e-07
-0.000365336
-0.000207898
-0.000297322
-0.000629374
-0.00046233
-0.00109584
-0.00128019
-0.00247901
-0.00528664
0.00874364
-0.0102017
0.00464208
-0.0138407
-0.0160162
-0.00736331
0.00979129
-0.00159144
0.00061421
0.0143896
-0.000162481
0.0247681
-0.000210385
-0.000132005
-6.78124e-05
-7.3386e-05
-0.000142781
-1.69481e-05
1.08548e-05
-0.00013738
-2.1986e-05
-0.000206258
7.44088e-05
0.000146168
-0.000143702
-0.000104119
-0.000395213
0.00975851
0.00707743
0.000354028
-0.00767725
-0.00767848
0.00707892
-0.000395424
0.00975704
-0.00010191
3.01084e-05
0.000319707
-7.73704e-05
0.000129311
0.00028396
0.000655516
-1.33626e-05
0.0130024
0.00942649
-0.000507554
-0.000121065
-0.000358112
0.00237577
-0.000158542
0.00713373
-0.000216252
5.3442e-05
0.000869234
0.00309896
0.0103054
-0.00439882
0.000160803
-0.00153843
-0.00930272
0.0231724
-0.0131856
0.000858432
-0.000194041
-0.000918824
0.00419077
0.000999805
0.00192891
0.00422468
0.00016289
-0.000690247
0.00192801
0.0126267
0.00867838
0.022026
0.012106
0.0177935
0.0197804
-0.000223336
0.00225763
0.00136586
0.00086164
-0.000101665
0.000833562
0.00131028
-1.25045e-05
-0.000507617
0.00028551
3.03761e-05
0.000257028
0.0001667
8.39901e-05
-6.89952e-05
1.57867e-06
2.41015e-06
5.24119e-06
7.57523e-05
0.0087641
7.16575e-06
6.92189e-06
5.09251e-05
0.0162807
7.5559e-06
-0.000261449
-0.000179661
0.000386774
0.000623052
-8.2156e-06
-6.89223e-05
-0.000256895
-0.000280718
0.00141758
0.00462783
0.00312375
0.000885009
0.000164087
0.00216046
0.00140139
0.00325871
0.000656444
-0.00011443
0.00780674
-6.72739e-05
-0.00018979
-0.000443824
-0.000268555
-3.86267e-05
0.000130651
0.000325574
-0.000326446
0.00139366
-0.000188117
-6.9023e-05
7.00228e-06
0.00638193
-0.000107362
0.00385906
0.000130505
0.000219796
0.000258385
6.90326e-06
-0.000445845
0.000326391
0.000257593
-0.000851407
-0.000139087
2.5742e-06
0.00254169
0.000831811
-0.00171767
-0.00153039
0.00163936
-0.000186972
0.000695311
-0.00120423
7.31535e-05
0.0126403
-5.67932e-05
-0.00011155
0.00210302
-0.000215816
-0.00187411
0.000294371
0.00160443
-1.17048e-05
-0.000135609
-2.98966e-05
-0.000717508
-8.50009e-05
-3.1832e-05
-9.72107e-05
-8.41097e-06
-0.00108289
3.22367e-05
0.00132425
0.0137319
0.0104039
0.000228876
-0.00125022
0.000226115
0.0190248
0.022025
-0.000776687
-0.000535803
4.70584e-05
0.000177235
0.00315465
0.002577
-0.00336009
-0.00338517
0.000101585
-0.00377909
0.00199155
0.00132424
-0.0008444
-0.000959251
-0.000695989
2.02063e-06
2.05874e-06
-3.26134e-06
0.000672977
0.000956073
0.00086361
0.00205178
0.00253628
-0.00207744
0.000892532
0.000959047
0.00212458
0.000312499
0.00150827
0.001604
0.00150826
0.00212454
0.000959066
0.00253644
0.000892563
-0.00207731
0.00151874
-0.000579204
0.00205147
0.000863834
0.000956206
0.000673008
-3.14439e-06
-7.22158e-05
0.00180945
-0.00180548
0.00199199
8.08211e-05
2.22064e-06
-0.000696077
-0.000959532
-0.000844224
-0.00200593
0.000506478
-0.00219654
-0.000186184
0.00113134
-0.00031123
0.00353132
-0.00022923
0.00113042
-0.000187095
-0.00219604
0.000506142
-0.000804675
0.00390296
-0.0010318
-0.000210154
0.00204665
0.00204471
0.000215441
-0.00233291
-0.000171841
0.00369001
0.00017257
0.00385916
-0.00498968
0.000130748
0.00567312
-0.00648846
0.00560411
-1.90109e-05
-0.00466969
0.00409932
9.68108e-05
0.000108765
9.74245e-05
5.41144e-05
-6.71726e-05
-0.000330534
-0.000529778
0.00419016
-0.00343527
0.01433
-0.0103735
0.00179152
0.0128883
-0.000327754
-0.0134589
0.00979062
-0.0073644
-0.016016
-0.0138401
-0.0131857
-0.0137239
0.0231707
0.00444687
0.00309809
2.11633e-05
-0.00775422
-0.0152454
-0.00701879
-0.0129439
-0.00701747
-0.0152446
-0.00775343
-0.0137244
0.0231702
-0.0138406
-0.013186
-0.0160159
-0.00736308
0.00979127
-0.0134596
0.0209773
-0.0216083
0.0143285
0.00179057
0.0128872
-0.0103759
0.00643003
0.0149395
0.0103999
0.00760443
0.0181308
0.00626166
0.00387569
0.0118638
-0.0118094
-0.0118096
0.00387552
0.00626138
0.0181307
0.00760279
0.0103984
0.0137259
0.0149408
0.00643292
0.00841649
0.00700181
-0.00407124
0.0190208
0.0214343
0.0220222
0.017592
0.0177932
0.0197781
0.0177934
-0.0337385
0.000998958
0.000999945
-0.00946398
0.017591
0.0220203
0.0214353
0.0190241
0.00700113
0.00841485
0.0064641
-0.000621502
-0.000288281
-5.01399e-05
-0.00709808
-0.00915197
-0.00862816
-0.0200679
-0.0241382
0.00464242
-0.0102019
0.0232771
-0.0197035
0.0179014
-0.0155688
0.0138354
-0.0119632
0.0104962
-0.00896348
0.00780123
-0.00659949
0.00571765
-0.00487073
0.00421753
-0.0038344
0.00385507
-0.00416482
0.00420757
-0.00377952
0.00315414
0.000176669
0.00257909
-0.00103301
0.00390407
-0.000804318
0.00132358
-0.000291684
9.67237e-05
0.000108844
9.70966e-05
5.34211e-05
-6.77566e-05
-0.000331128
-0.00053008
0.00418987
-0.00343535
-0.00134709
0.00225678
0.000692684
-0.00842976
-0.00842982
0.00225683
-0.00134742
0.000692743
-0.00374773
-0.0216075
0.0209784
-0.00159089
-0.0168587
0.00155747
-0.000961887
0.00210248
-0.000336135
-0.000405292
-0.00253328
-0.00131146
-0.00253327
0.00155796
0.00444759
0.0103023
0.00309843
-0.00262724
-0.0026279
0.0103026
0.000504996
-0.00658522
0.00713267
0.00713411
-0.000215297
-0.0065861
0.00016066
0.00155792
0.00192528
0.000858539
-0.00930467
0.000857774
0.000217211
0.0137908
-0.00331992
0.00456775
-0.00777246
-0.0094827
-0.0204254
-0.01496
0.0326017
-0.0180647
0.0232626
0.0232633
0.000550603
0.0187837
-0.000386441
-0.0158346
0.0143016
-0.00020665
-0.0125228
0.0109355
-6.85827e-05
-0.00956329
0.00819756
1.1768e-05
-0.00711725
0.00601789
6.06038e-05
-0.00524578
0.00437052
8.33971e-05
-0.00401664
0.00318037
0.000136675
-0.00380579
-0.000575173
-0.00391025
-0.00391024
0.000312427
-0.000806284
0.000259294
-0.00115746
-5.10023e-05
0.000723598
0.000723603
-0.000857371
-1.39675e-06
0.000885253
0.000885256
-0.000627971
0.000129865
0.0014257
0.00142502
-0.000298094
0.000400937
-0.000717923
-0.000719641
-0.00120583
-0.000651003
-0.0010311
-0.00113327
-0.001642
-0.00067025
0.00118906
-0.00174219
0.000260217
0.000831916
0.00254169
-0.00145984
-0.000851388
-0.000139127
-0.00147698
8.06348e-06
0.00148763
-0.00232805
4.18799e-06
0.000294234
0.00233859
-0.000208751
2.62794e-05
0.000248585
-1.14288e-05
6.6263e-07
1.81866e-05
3.31352e-05
5.76944e-05
0.000119968
0.000143865
0.00013162
-0.0233047
0.0247684
-0.0255713
0.0224527
-0.0196484
0.0180018
-0.0158081
0.0139924
-0.0122092
0.0105701
-0.00918739
0.00780482
-0.00678761
0.00567329
-0.00499011
0.00409995
0.000101008
-0.00338498
-0.00336145
-0.0023316
0.00270092
0.000220571
0.00270171
-0.00327931
-0.00456196
-0.00456603
0.00526358
0.00516224
0.00022216
-0.00620355
0.00012612
-0.0067873
-4.61966e-05
0.00763749
-0.00757496
-8.33723e-06
0.00876353
-0.00818896
0.00704647
1.83761e-05
0.00638176
-3.91627e-06
-0.00555347
0.00460864
3.92395e-07
0.00420773
3.15682e-05
-0.00180541
8.11048e-05
-0.000208799
0.00118908
-0.000670156
-0.00164178
-0.00113314
-0.0010308
-0.00065134
-0.00120411
0.00069549
-0.000298227
7.29737e-05
-0.00171715
0.000831393
5.59647e-06
0.000260302
0.00254207
-0.00174201
0.00233868
0.000294325
-3.71421e-05
-0.000627865
0.000107532
0.000100486
0.000130563
0.000151651
0.000146356
7.47005e-05
-0.000120547
-0.000358307
0.00237467
-0.00266848
-0.00605837
-0.00449061
-0.00187537
0.00102836
-0.000194775
-0.000328265
-0.00153831
-0.0168569
-0.000961897
0.00210236
-0.000215354
5.33603e-05
0.000253028
-0.0125483
0.0117494
-0.0149589
0.0047535
-0.0355138
0.0046876
-0.0158032
-0.000410987
0.0167707
0.0165449
-0.0186799
-0.000325504
0.00141716
0.00462717
-0.000257255
-0.00528439
-0.00976195
-0.0118415
-0.00133548
-0.0024848
-0.00358509
-0.00127974
-0.000461705
-0.00109277
-0.000717042
-0.000504877
-0.000628898
-0.00015338
-0.000542513
8.0414e-06
0.0199866
-0.0218272
0.0200622
-0.0206569
-0.00036478
0.0217002
-0.000111655
-0.000210428
-0.00040574
-0.000337848
-0.00374954
-4.71957e-06
-0.000582663
0.000160923
-0.00440014
2.1573e-05
0.00708332
-0.00298502
-0.0114621
-0.00137072
0.0016561
0.000454504
-0.000559154
-0.000835123
-0.000778286
-0.000657301
-0.000579133
-0.000552744
-0.000456737
0.00010741
0.00119415
0.00119418
0.00123245
-1.24137e-06
-0.000132803
-0.000227208
-0.000347905
-0.000364248
7.07331e-07
-0.000296522
-0.000207997
-0.000142099
-0.000182869
7.41356e-05
7.60354e-05
0.00953445
-0.0102714
0.00876353
-0.00893072
-7.33935e-05
0.0103459
-0.0120917
-0.000114197
0.0137347
-0.0160192
-0.000193948
0.0176946
-6.13352e-05
-0.0176764
0.0156304
-3.69245e-05
0.0162813
-0.0188246
-6.91237e-05
-1.68196e-05
-0.000131924
-6.76923e-05
-3.15636e-05
-0.0136639
0.0118372
-5.99185e-06
0.0126395
-0.0146685
-5.77835e-05
5.16115e-05
-7.7015e-06
-6.86468e-05
-0.000162112
0.0143896
0.000615711
-0.00159032
0.00874226
-0.000280688
-0.000540247
0.0031227
0.00867151
0.0126249
0.00404899
0.00326596
0.000885287
-0.0002624
0.000623528
0.000387525
7.14397e-06
7.61564e-06
5.27853e-06
2.66019e-06
-8.03437e-05
-3.33965e-05
0.000112555
6.85826e-05
0.00704663
-0.00757494
0.0063817
-0.00648871
-4.66318e-05
0.00763751
-8.42724e-06
-1.2151e-05
-3.09415e-05
-1.63791e-05
4.05979e-06
1.07804e-05
-0.00818941
-9.02603e-05
-0.000136296
0.00819712
-6.80669e-05
-0.00956471
-6.85988e-05
0.0109356
-0.000186289
-0.0125233
-0.000206633
0.0143005
-0.000411271
-0.015834
-0.000387069
0.0187836
-0.000794506
-0.018863
-0.00102449
0.0282417
0.0182465
-0.00394466
0.00086859
0.000868681
0.0282423
-0.00102431
-0.0188629
-0.00394603
-0.0180643
0.00456764
0.0326002
-0.0024229
-0.0149604
-0.0204259
-0.00948324
-0.0241398
-0.00777293
-0.0029864
0.00708288
-0.00440058
0.000857488
0.00192533
-0.00930493
0.000857925
-0.00153844
-0.000582032
-0.000919016
-0.000360723
-0.000158734
-0.000247845
0.000160504
-0.000470773
0.000551122
-0.018305
0.0178086
-0.0154141
0.013756
0.0137556
-7.71044e-07
-0.012141
-2.23269e-05
0.0104254
-1.19852e-05
-0.00919014
7.58316e-05
0.00770788
-1.57152e-05
-0.00680608
0.000161281
0.00556177
-3.39756e-05
-0.00505968
0.00030622
0.00392291
-0.000101793
-0.00403042
0.000664967
0.00252516
0.000315993
0.00252498
-0.000575195
-0.003806
0.000136738
0.00318031
0.000131508
-0.00401647
8.38152e-05
0.00437045
7.19581e-05
-0.00524584
6.0858e-05
0.00601761
7.97867e-06
-0.00711723
1.24095e-05
7.60545e-05
0.00770797
-2.97235e-05
-0.0068055
0.00556156
-0.00505947
0.00392281
0.000255305
-0.00403034
0.000664644
-0.000182239
-0.000107803
0.000306303
-0.000223377
-0.000209515
-0.000237442
-0.000284459
-0.000250752
6.26278e-05
0.000499579
0.00049935
-0.0114627
-0.0118418
-0.00133548
6.14686e-05
-0.0183039
-0.00105359
0.0178087
8.72446e-05
-0.0154142
-0.000267409
-0.000137757
-0.000475693
8.70596e-05
-0.000716683
-0.000427814
-9.16944e-07
-0.0121405
0.0104261
-0.00918995
-1.21707e-05
-0.000361484
-0.000134223
-0.000283206
-1.57688e-05
-0.000199237
-3.40187e-05
0.00010069
-0.000122061
-0.000101838
0.00020507
-0.00143935
0.000259228
-0.00080619
0.00150199
0.000604372
0.00060427
0.00150202
0.000700813
-0.00011275
0.00126303
-0.00252271
-0.000172848
6.65902e-05
0.00179671
0.000160374
-0.00120826
0.000658564
0.00168593
0.00121468
0.00145408
0.000869712
-0.000192237
-0.000209455
-0.000194743
-6.51337e-05
0.001197
-0.000194865
0.000700767
0.00126308
-0.000112806
-0.000491172
-0.000172704
0.00179668
6.65219e-05
-0.000267655
4.18638e-06
-0.00232819
0.00148763
8.06446e-06
-0.00147699
-0.000139108
6.79511e-06
-0.000209313
-0.0001596
0.000448476
-0.000491239
-0.000350447
-1.57383e-05
0.00013247
6.86416e-06
2.52051e-06
8.22428e-06
-1.57953e-05
0.000448532
-0.00115743
-0.000350128
-0.000182371
-1.03693e-05
7.50422e-06
1.55849e-05
1.70252e-05
2.11242e-05
5.40361e-05
1.02996e-05
-0.00105209
1.04143e-05
0.000143778
-0.00079442
0.0232773
0.000132221
0.0199879
-6.92479e-05
0.0200631
-6.18859e-05
0.0176957
-0.000195268
-0.0160194
0.0139938
4.32059e-05
0.00976422
0.00975795
0.000319361
-0.010892
0.0128921
0.0130037
0.000209357
-0.0140228
-0.000143247
-0.0158104
0.0180032
-0.0206584
0.0216994
-0.000364526
-0.0196492
-0.000323825
0.016544
0.016772
-0.000411347
-0.018679
0.0224546
-0.0255721
-0.000111224
-0.0218282
0.0247686
-0.0233054
0.0143893
0.000252178
-0.0125488
-0.000464904
0.0117498
-0.000781436
-0.014958
-0.0106939
0.00475402
0.00468853
-0.0355146
0.0126258
0.0121049
0.00192775
-0.000224534
-0.0118318
-0.000576957
0.0120775
0.0120789
-0.000688997
-0.0133214
0.000209578
0.0130019
0.0128933
-0.0140232
-0.000145795
-0.0108917
0.000319976
0.00975714
0.00976464
4.16433e-05
-0.00831155
0.000284843
0.00716175
0.00722565
0.000106542
0.000257413
0.000167072
8.39694e-05
-6.91295e-05
1.46043e-06
5.84934e-05
0.000183807
0.000151152
5.45777e-05
0.00516435
-0.00555336
0.00460903
-0.0046699
-1.87664e-05
0.00560411
-4.29895e-06
-2.92679e-06
3.62458e-06
1.02756e-07
-9.96092e-06
-3.45574e-05
-0.00205657
-0.00108285
0.000489596
0.000967785
0.000477119
4.66948e-05
1.18699e-05
1.60877e-06
3.20983e-05
-5.48523e-05
-6.73314e-05
-9.19222e-05
-0.000114621
-0.000142042
-0.000180094
0.000286234
0.00139746
0.00215947
0.00130924
0.000661831
3.09137e-05
-0.000101932
-1.30889e-05
-0.0105928
-0.00767892
0.00035337
0.00707693
0.00707835
-0.000395366
-0.00594048
0.000336893
0.00518867
0.00518963
-0.000309458
-0.00615814
0.000222704
0.00516204
0.00526369
-0.00620412
0.000125223
-7.55794e-05
0.000329241
0.000832751
0.000525368
0.000130489
-0.000133987
-0.000125507
-0.00456251
0.000172262
0.00369051
0.00385917
-0.00456584
0.000130424
-0.000190162
-3.93332e-05
0.000286343
4.70707e-05
-0.000270305
-0.000444292
-0.000431451
-0.000777773
-0.000535992
-0.00123204
-0.00161574
-0.001438
-0.00124916
-0.00149643
-0.00160734
-0.00123353
0.00163941
-0.00154947
0.000617088
0.000119766
-0.000107186
-0.00017189
-4.5169e-05
2.12375e-06
1.92886e-05
-0.00427249
-7.7291e-05
7.36854e-06
1.85049e-05
-0.00594395
-9.67839e-05
-0.000114697
0.000161616
-0.000114663
-0.000136374
-0.000154655
5.77371e-05
0.000120121
-0.000412432
0.0179019
5.05113e-05
0.0162824
-3.71541e-05
0.0156301
-3.22137e-05
0.013735
-0.000115054
-0.0120918
0.0105714
0.000107749
0.00722536
0.0071627
0.000284606
-0.00831072
-0.00818267
-0.000395448
-0.00593897
-0.000102366
0.00136427
0.00225538
0.00422316
0.000162221
0.00016248
0.00192783
-0.000224539
-0.015805
-0.01183
-0.000263157
5.33112e-05
-1.69126e-05
-0.000210286
-0.000132033
-0.000143005
-2.2114e-05
-0.000137661
-0.00026763
-0.000154668
-2.19021e-05
-7.01718e-06
-7.34104e-05
-3.44859e-05
-1.43655e-05
-5.43083e-06
1.99709e-06
1.79431e-05
0.000156618
0.000248614
-1.15011e-05
7.38297e-07
1.81591e-05
3.31131e-05
-6.8215e-05
0.0104955
-8.42003e-05
0.00953504
1.05615e-05
-0.0102714
-1.62162e-05
0.0103456
-7.31998e-05
-0.0089307
0.00780592
-0.00918713
-0.000114843
7.53915e-05
7.41233e-05
-0.000348236
-0.000504897
-0.000715503
-0.000248214
-0.000282806
-0.000236134
-0.000208165
-0.000227652
-0.000132934
-0.000222214
-0.000216323
-8.69214e-07
0.00123266
0.000968805
0.000477629
-0.0038345
-7.75294e-05
0.00385474
-3.47435e-05
0.00180928
3.21197e-05
2.63103e-05
3.58198e-06
-2.89905e-06
-1.20482e-05
-3.09169e-05
-6.74921e-05
-2.18552e-05
-7.03445e-06
-6.90694e-06
-0.0110906
0.011837
-0.0136646
0.0126407
-0.0119632
-5.74984e-05
0.0138354
-0.000187237
-0.0155687
-0.000152364
-0.000542002
-0.0197038
-0.00358435
-0.0102022
0.00874341
-0.00862979
-0.0200665
0.00464254
-0.00976016
-0.00528425
-0.0091524
-0.00710016
0.000614192
-5.13633e-05
-0.000278828
-0.000621654
-0.000539245
0.00646696
0.00462718
-0.000256549
-0.00016233
-0.00128122
-0.00248277
-0.000461133
-0.00109652
-0.000295773
-0.000631068
1.42796e-06
7.29857e-05
5.03911e-05
-0.014668
-0.0176775
7.4535e-06
-0.0188242
-6.8515e-05
-7.02633e-06
7.32862e-06
8.07115e-06
-0.000207147
-0.000366087
-0.000141551
-9.02513e-05
-0.00659979
0.00571725
-9.71889e-05
0.00516396
1.92436e-05
-0.00427249
0.00421749
0.000131158
-0.00487103
7.14871e-05
0.000150936
0.000112664
-0.000184346
6.80685e-05
-0.00594417
-8.01272e-05
-3.5598e-05
5.81957e-05
0.000184529
0.000489869