/*--------------------------------*- C++ -*----------------------------------*\
| =========                 |                                                 |
| \\      /  F ield         | OpenFOAM: The Open Source CFD Toolbox           |
|  \\    /   O peration     | Version:  2306                                  |
|   \\  /    A nd           | Website:  www.openfoam.com                      |
|    \\/     M anipulation  |                                                 |
\*---------------------------------------------------------------------------*/
FoamFile
{
    version     2.0;
    format      ascii;
    arch        "LSB;label=32;scalar=64";
    class       volScalarField;
    location    "2.7";
    object      gradTz;
}
// * * * * * * * * * * * * * * * * * * * * * * * * * * * * * * * * * * * * * //

dimensions      [0 -1 0 1 0 0 0];

internalField   nonuniform List<scalar> 
2658
(
-0.0766055
-0.0742729
-0.0570406
-0.0519775
-0.0638785
-0.0654722
-0.0602541
-0.0580645
-0.0519338
-0.0652795
-0.0639834
-0.0502092
-0.0666614
-0.0621892
-0.064559
-0.0664034
-0.0635754
-0.0662537
-0.0645093
-0.0613822
-0.0655816
-0.0590675
-0.0676304
-0.0521598
-0.0814509
-0.0654336
-0.058347
-0.0691336
-0.0704066
-0.0576398
-0.0704064
-0.0583475
-0.0654332
-0.0676308
-0.081451
-0.0521597
-0.0676471
-0.0936075
-0.0590664
-0.0655838
-0.0613846
-0.0645098
-0.0662515
-0.0968747
-0.0620867
-0.061392
-0.0639844
-0.0967716
-0.0664038
-0.0645584
-0.0621868
-0.0666621
-0.0596602
-0.0969115
-0.0667219
-0.0646515
-0.096775
-0.0616741
-0.0525029
-0.066317
-0.0967776
-0.0646531
-0.0667193
-0.096911
-0.0630873
-0.0503084
-0.0638154
-0.0579622
-0.0647927
-0.0647907
-0.0528193
-0.0591474
-0.0462577
-0.053607
-0.0415473
-0.0529995
-0.0534647
-0.0414936
-0.0478035
-0.0469152
-0.0534596
-0.0462435
-0.0588581
-0.0604452
-0.0489542
-0.0389489
-0.0302757
-0.0229079
-0.0169458
-0.0124035
-0.00925059
-0.0097969
-0.00861199
-0.0071041
-0.00776454
-0.00820583
-0.00761974
-0.0115633
-0.00762571
-0.00773845
-0.0116308
-0.00783426
-0.0083359
-0.00943209
-0.00796558
-0.00853517
-0.00607514
-0.0100967
-0.00665494
-0.0101917
-0.00945708
-0.00772053
-0.0106345
-0.00772026
-0.00945711
-0.0101915
-0.00796555
-0.00853518
-0.00833584
-0.00943204
-0.00783427
-0.0116303
-0.00773833
-0.00762555
-0.00739029
-0.00742638
-0.00710378
-0.00820582
-0.00761949
-0.00776463
-0.0115786
-0.0077345
-0.00927703
-0.00767423
-0.0100642
-0.00705004
-0.00680933
-0.00795505
-0.00690959
-0.00690984
-0.00680912
-0.00705004
-0.00783583
-0.00834381
-0.0104967
-0.00833993
-0.00968985
-0.00926229
-0.0066445
-0.00667789
-0.00634419
-0.00895123
-0.00867739
-0.00562602
-0.00753853
-0.00709308
-0.00642607
-0.00708232
-0.00669898
-0.00692725
-0.00714416
-0.00686967
-0.00714923
-0.00693339
-0.00667453
-0.00705858
-0.00642937
-0.00736508
-0.0108709
-0.00899606
-0.0112805
-0.0133539
-0.0155601
-0.0181258
-0.0212947
-0.0248087
-0.028919
-0.0334427
-0.0384665
-0.0440036
-0.0498255
-0.0562245
-0.062762
-0.06779
-0.0656671
-0.0644738
-0.0650749
-0.0652801
-0.063878
-0.0519764
-0.0654733
-0.0638133
-0.0503077
-0.0630874
-0.0502095
-0.0820978
-0.0489545
-0.0389486
-0.0302754
-0.0229076
-0.0169456
-0.0124033
-0.00925046
-0.0097969
-0.00861193
-0.005796
-0.00624419
-0.00976614
-0.00641399
-0.00641397
-0.00624423
-0.00579602
-0.0097662
-0.00598634
-0.00742628
-0.00739029
-0.00819308
-0.00715981
-0.00863519
-0.00584152
-0.0059691
-0.00879183
-0.00972724
-0.00975342
-0.00983445
-0.00975328
-0.00863515
-0.00607502
-0.00652371
-0.0100966
-0.00696089
-0.00696086
-0.00652367
-0.0090112
-0.0063305
-0.00637567
-0.00637551
-0.00976042
-0.00633038
-0.0084475
-0.00804887
-0.00789594
-0.00734223
-0.00830595
-0.00795341
-0.00827077
-0.0112591
-0.0089132
-0.00655628
-0.00947516
-0.00711227
-0.00619445
-0.00753239
-0.00788247
-0.0111812
-0.0117863
-0.0117861
-0.00827926
-0.0140414
-0.00953123
-0.0162573
-0.0190893
-0.0129753
-0.0222024
-0.0260235
-0.0176774
-0.0301708
-0.0349681
-0.023667
-0.0401777
-0.0458694
-0.0309056
-0.0521206
-0.0585268
-0.0392299
-0.0653313
-0.0735442
-0.0499879
-0.0760773
-0.052071
-0.0662016
-0.0662007
-0.0691326
-0.0690027
-0.0624801
-0.058029
-0.0830049
-0.0555939
-0.0555943
-0.0560281
-0.0831489
-0.056757
-0.0567569
-0.0537843
-0.0818214
-0.0682094
-0.0682077
-0.0773987
-0.109161
-0.0773973
-0.0786214
-0.10789
-0.0782984
-0.0909625
-0.0799455
-0.0781465
-0.0648275
-0.075804
-0.0870196
-0.0816669
-0.0537845
-0.0512908
-0.0806013
-0.0650962
-0.078649
-0.107894
-0.0783487
-0.0870139
-0.0790753
-0.0799268
-0.0790754
-0.0806012
-0.0648264
-0.0781466
-0.0782975
-0.107888
-0.0786208
-0.0758053
-0.0870205
-0.0870119
-0.0783517
-0.107889
-0.0786491
-0.0650959
-0.0757319
-0.0779127
-0.109243
-0.0775072
-0.0684256
-0.0819444
-0.0537682
-0.0682856
-0.0789205
-0.0797282
-0.0519798
-0.0414884
-0.0323103
-0.0244759
-0.018121
-0.0132679
-0.00989409
-0.00980788
-0.0109697
-0.010823
-0.0108635
-0.0109254
-0.0127117
-0.0148459
-0.01723
-0.0203295
-0.0235969
-0.0276363
-0.0318283
-0.0368181
-0.0418881
-0.047804
-0.0534625
-0.0604458
-0.0519336
-0.0580644
-0.0602527
-0.0591494
-0.0533734
-0.0424281
-0.0533745
-0.047083
-0.0477052
-0.0462708
-0.0411178
-0.041974
-0.0322103
-0.0357974
-0.0321626
-0.0418897
-0.0365975
-0.0417464
-0.0416036
-0.0328581
-0.0364716
-0.0364499
-0.0418261
-0.0366368
-0.0472563
-0.042299
-0.053079
-0.0594982
-0.0526983
-0.0650742
-0.0580184
-0.0613919
-0.0967708
-0.0757319
-0.0682852
-0.0537678
-0.0799395
-0.0613695
-0.0547489
-0.0513127
-0.0410524
-0.031966
-0.0242087
-0.0179162
-0.0131147
-0.00977387
-0.00972709
-0.00879182
-0.00596916
-0.00976031
-0.00584145
-0.00715984
-0.00819296
-0.011452
-0.00850513
-0.00845223
-0.00840402
-0.00858511
-0.00809691
-0.00640799
-0.00899232
-0.0108965
-0.00974746
-0.0129156
-0.0122029
-0.0106433
-0.00965138
-0.010399
-0.00907365
-0.00910739
-0.00907485
-0.00895292
-0.00847721
-0.0104251
-0.0106222
-0.00918948
-0.0104324
-0.0139975
-0.0142754
-0.0139621
-0.0190481
-0.0195849
-0.0167256
-0.0122102
-0.0118939
-0.0125797
-0.012636
-0.0147199
-0.0147268
-0.0112081
-0.0125676
-0.00988125
-0.0104509
-0.0140091
-0.0192782
-0.0192496
-0.0261399
-0.0265671
-0.0257391
-0.0340313
-0.035234
-0.0306567
-0.0228544
-0.0222566
-0.023483
-0.023451
-0.0274044
-0.0273204
-0.0209106
-0.0234302
-0.0201318
-0.0153261
-0.0170798
-0.0133413
-0.0171278
-0.0201653
-0.0153642
-0.017113
-0.0148271
-0.0112334
-0.012461
-0.0119259
-0.0140411
-0.00814115
-0.0124001
-0.00747489
-0.0103296
-0.00623639
-0.00746777
-0.00885934
-0.00914817
-0.00872839
-0.0090419
-0.00903707
-0.0114076
-0.00942364
-0.00891351
-0.00878862
-0.0105421
-0.0104119
-0.0123953
-0.0118771
-0.0139304
-0.019161
-0.0260476
-0.0262041
-0.0347692
-0.0346538
-0.0447242
-0.0455605
-0.0438258
-0.0547448
-0.0577319
-0.0509996
-0.0401091
-0.0392296
-0.0418244
-0.0416027
-0.0472558
-0.0469145
-0.0365977
-0.0417459
-0.0363035
-0.0280207
-0.0316496
-0.0248146
-0.0316219
-0.0364716
-0.0280665
-0.0317175
-0.0274494
-0.0209561
-0.0231517
-0.0170065
-0.0162359
-0.0190892
-0.0110362
-0.016257
-0.00953119
-0.00968517
-0.0158215
-0.0185067
-0.0215699
-0.0215692
-0.0150687
-0.0251738
-0.0179719
-0.0292466
-0.0203506
-0.0338159
-0.0240417
-0.0388743
-0.0268998
-0.0443525
-0.0313369
-0.0503696
-0.0346329
-0.0564654
-0.0396411
-0.0636545
-0.0433053
-0.0685331
-0.0490245
-0.0796576
-0.0637644
-0.0796573
-0.052071
-0.0760748
-0.0499873
-0.0735448
-0.0431889
-0.0653305
-0.0392293
-0.0585268
-0.034788
-0.05212
-0.0309056
-0.0458699
-0.0270461
-0.0401776
-0.0236665
-0.0349684
-0.0204485
-0.0301699
-0.0176771
-0.0260237
-0.0151105
-0.022202
-0.0129751
-0.013193
-0.0166742
-0.012372
-0.00954108
-0.00837134
-0.00809183
-0.00864237
-0.0106771
-0.014038
-0.0189768
-0.0255353
-0.0336728
-0.0432481
-0.0538648
-0.0631536
-0.0705552
-0.0699753
-0.0699747
-0.0656685
-0.0757475
-0.062352
-0.0565277
-0.0738328
-0.0512871
-0.0625256
-0.0580721
-0.0596493
-0.0578897
-0.0490237
-0.068532
-0.0433052
-0.0636547
-0.0508609
-0.0522729
-0.0416435
-0.0346324
-0.0503701
-0.0564639
-0.0396415
-0.0485671
-0.038419
-0.0313366
-0.0443515
-0.0268999
-0.0388755
-0.0314026
-0.0324049
-0.024554
-0.0182016
-0.0150687
-0.0251727
-0.0292476
-0.0338148
-0.024041
-0.0295026
-0.0220828
-0.0191641
-0.0140441
-0.0105188
-0.0100435
-0.00827938
-0.0138155
-0.00979659
-0.0138159
-0.00968535
-0.0158212
-0.0110612
-0.0185075
-0.0131931
-0.016236
-0.0133674
-0.0110611
-0.0129601
-0.011926
-0.00885942
-0.0103298
-0.00747509
-0.0124004
-0.007468
-0.0111814
-0.00655639
-0.00788247
-0.00824706
-0.00753249
-0.00619444
-0.00711237
-0.00736516
-0.00947535
-0.00760695
-0.00727297
-0.00856219
-0.00795354
-0.00789602
-0.0083061
-0.00734165
-0.00849438
-0.00797947
-0.00819483
-0.00797921
-0.00734828
-0.0115628
-0.00849444
-0.0084475
-0.00856211
-0.00665501
-0.0072728
-0.00760699
-0.00845072
-0.0078472
-0.00730568
-0.00850757
-0.00828182
-0.00791332
-0.00837179
-0.00627059
-0.00846156
-0.00842148
-0.0110614
-0.00799914
-0.00893346
-0.00964975
-0.0097273
-0.00910108
-0.0104966
-0.0140208
-0.019143
-0.0258505
-0.0258722
-0.0341419
-0.0438238
-0.0548587
-0.0772995
-0.0710148
-0.104585
-0.0624799
-0.069003
-0.0936484
-0.0782212
-0.0782204
-0.0936493
-0.09954
-0.0615264
-0.0799993
-0.0797569
-0.0811961
-0.0522367
-0.066295
-0.0750246
-0.079237
-0.108311
-0.0793788
-0.0920232
-0.0776828
-0.0858295
-0.0781405
-0.0806157
-0.0807311
-0.0866055
-0.103494
-0.0807334
-0.0995395
-0.0800016
-0.061525
-0.0547775
-0.0811959
-0.0662948
-0.0522365
-0.0530791
-0.0819449
-0.0684269
-0.0775068
-0.109244
-0.0779142
-0.0868648
-0.0802655
-0.0806159
-0.0815257
-0.0827083
-0.0547772
-0.082858
-0.080636
-0.0862836
-0.0802671
-0.077909
-0.0868644
-0.0770402
-0.0816672
-0.0512912
-0.0799391
-0.0613699
-0.0580194
-0.0614403
-0.0567161
-0.0449029
-0.0501007
-0.0535709
-0.0530776
-0.0594989
-0.0588573
-0.0462424
-0.0534589
-0.0422978
-0.0502123
-0.0447753
-0.034594
-0.0392694
-0.0299054
-0.0222345
-0.0162408
-0.016265
-0.0202457
-0.0181642
-0.0169812
-0.0166517
-0.0130921
-0.0173417
-0.0202875
-0.0179314
-0.0236641
-0.0228983
-0.0198799
-0.0178858
-0.0269489
-0.0243045
-0.031887
-0.0310298
-0.0242623
-0.0357968
-0.0322097
-0.0419742
-0.0411171
-0.0321626
-0.0462705
-0.0415475
-0.0536082
-0.0529992
-0.0414942
-0.0524776
-0.0567702
-0.0742316
-0.0739502
-0.0635753
-0.0612929
-0.0527627
-0.0649437
-0.0572933
-0.0570403
-0.0450725
-0.0348504
-0.0262631
-0.0193607
-0.0141342
-0.0139805
-0.0163007
-0.015327
-0.017158
-0.0134457
-0.0171586
-0.0201644
-0.0183849
-0.0234779
-0.0234771
-0.0201652
-0.0178385
-0.0130725
-0.0097911
-0.00936938
-0.00869593
-0.00874826
-0.00864738
-0.00765614
-0.00864802
-0.0111209
-0.0100467
-0.0126855
-0.0126842
-0.0111219
-0.00938496
-0.0123234
-0.00800989
-0.00800935
-0.00702865
-0.0075674
-0.0123236
-0.00899264
-0.00640756
-0.00809696
-0.0106432
-0.00974776
-0.0122036
-0.0129148
-0.0108973
-0.00874832
-0.00936943
-0.00914824
-0.00989425
-0.0081413
-0.0112807
-0.00980799
-0.0125799
-0.0112335
-0.0147198
-0.0133418
-0.0170802
-0.0153263
-0.0201321
-0.0203295
-0.0178869
-0.0228995
-0.0236636
-0.0179321
-0.0198798
-0.0166522
-0.0173413
-0.0130927
-0.014581
-0.0130351
-0.0172303
-0.0148458
-0.0147264
-0.0125679
-0.0112084
-0.0127122
-0.00965187
-0.0109255
-0.0108634
-0.00988112
-0.0126359
-0.0108232
-0.0109697
-0.00850518
-0.0087285
-0.0084522
-0.00620001
-0.00840431
-0.00869588
-0.00858501
-0.00581564
-0.00692739
-0.00714433
-0.0114081
-0.00903724
-0.00904192
-0.00918968
-0.00847732
-0.0083715
-0.00954119
-0.0123721
-0.0104249
-0.0139626
-0.0166743
-0.0226006
-0.0190489
-0.0257401
-0.0301582
-0.0301581
-0.0226002
-0.0179714
-0.0392522
-0.0392524
-0.0340319
-0.043826
-0.0496052
-0.0496038
-0.0598014
-0.0598023
-0.0547444
-0.0656689
-0.0757548
-0.0623509
-0.0677909
-0.0523515
-0.0656663
-0.058071
-0.062086
-0.0527623
-0.0789199
-0.0797273
-0.0519798
-0.0414886
-0.0323106
-0.0244761
-0.0181212
-0.0132679
-0.0110363
-0.0155601
-0.0132471
-0.017113
-0.0153647
-0.0201657
-0.018305
-0.0234308
-0.0209105
-0.0273212
-0.027636
-0.024263
-0.0310305
-0.0318865
-0.024305
-0.0269487
-0.0275997
-0.0209127
-0.0273657
-0.0248926
-0.0316752
-0.0316749
-0.0273659
-0.0209133
-0.0275985
-0.0222662
-0.0194896
-0.0142687
-0.010742
-0.00885955
-0.00938568
-0.00878692
-0.00753369
-0.00563085
-0.00921702
-0.0100633
-0.00767552
-0.00927772
-0.00842105
-0.007735
-0.0115788
-0.0066988
-0.00708224
-0.0110608
-0.00642595
-0.00709296
-0.00891253
-0.00907344
-0.00910705
-0.0090747
-0.00667451
-0.00693351
-0.011452
-0.00714939
-0.00687021
-0.00597261
-0.00899615
-0.00623658
-0.010871
-0.00705878
-0.00642918
-0.00895218
-0.0104324
-0.0106222
-0.0122105
-0.0133542
-0.0118942
-0.0148273
-0.0139977
-0.0142764
-0.0167257
-0.0181265
-0.0212945
-0.0181641
-0.0234836
-0.0209559
-0.0274496
-0.0274047
-0.0248158
-0.0316503
-0.0280207
-0.0363045
-0.036818
-0.03183
-0.0299057
-0.029911
-0.0317183
-0.0280663
-0.0316226
-0.0242089
-0.0179166
-0.0131149
-0.00977394
-0.012461
-0.0170066
-0.0231518
-0.0220828
-0.0295028
-0.030943
-0.0309429
-0.0402892
-0.0366353
-0.0470829
-0.0419384
-0.0508272
-0.0462626
-0.0590918
-0.0523521
-0.0522821
-0.041439
-0.0318035
-0.0237803
-0.0174587
-0.0127841
-0.011221
-0.0147861
-0.0147847
-0.0147839
-0.0147873
-0.0112208
-0.0127841
-0.0174588
-0.0153268
-0.0202881
-0.0163012
-0.0120019
-0.0105419
-0.0141342
-0.0193613
-0.0222665
-0.0232483
-0.0169815
-0.0162414
-0.0162654
-0.0202461
-0.0192497
-0.0195854
-0.022855
-0.0248095
-0.028919
-0.0246119
-0.0334433
-0.0384666
-0.032578
-0.0440045
-0.0498262
-0.0419394
-0.0535729
-0.0462632
-0.0590916
-0.0627623
-0.0431885
-0.0562253
-0.0347881
-0.0510005
-0.0401093
-0.0306569
-0.0265687
-0.0261404
-0.0346549
-0.0352368
-0.044726
-0.0455644
-0.0565296
-0.0577295
-0.0738354
-0.0512863
-0.0676461
-0.0936066
-0.0776837
-0.0793774
-0.108307
-0.0792368
-0.0750243
-0.096874
-0.0625256
-0.0612932
-0.0644746
-0.0513127
-0.0410527
-0.0319662
-0.0341153
-0.043774
-0.0508274
-0.0485671
-0.0384191
-0.0402894
-0.0414393
-0.0318239
-0.0240981
-0.0318038
-0.0237804
-0.0280292
-0.0367669
-0.0363885
-0.0329538
-0.0417427
-0.0417419
-0.0363884
-0.028029
-0.0367656
-0.0299314
-0.0312673
-0.0261106
-0.023248
-0.0192109
-0.0410578
-0.0347101
-0.039303
-0.0477041
-0.0470834
-0.0366155
-0.0408798
-0.0511132
-0.0787618
-0.0761881
-0.0560283
-0.0792579
-0.059649
-0.0578896
-0.0828586
-0.0580294
-0.0827072
-0.0806362
-0.086283
-0.0858297
-0.0797581
-0.0920234
-0.0781399
-0.077912
-0.0819306
-0.0820974
-0.061674
-0.0614183
-0.0570342
-0.0502427
-0.046258
-0.061417
-0.0742713
-0.0766089
-0.0621267
-0.0740741
-0.0663161
-0.0636347
-0.0579615
-0.0452032
-0.0350097
-0.026409
-0.0299316
-0.0262638
-0.0348501
-0.0393033
-0.0366157
-0.0410584
-0.0312679
-0.026048
-0.0191617
-0.0139306
-0.0103991
-0.0104507
-0.014009
-0.0192785
-0.0222575
-0.023452
-0.0262046
-0.0347699
-0.0392306
-0.0470826
-0.0501013
-0.0502116
-0.0392706
-0.0345946
-0.0447759
-0.0449044
-0.0567179
-0.0739526
-0.0614392
-0.0567718
-0.0742317
-0.0649452
-0.0524776
-0.0502434
-0.0450731
-0.0450092
-0.0572939
-0.0347128
-0.0222349
-0.023598
-0.0118775
-0.0123955
-0.00942346
-0.0104126
-0.0139812
-0.0192117
-0.0261149
-0.0522822
-0.045004
-0.0270461
-0.0204485
-0.0151109
-0.0171281
-0.0120018
-0.014581
-0.0130347
-0.00730585
-0.00784734
-0.0084507
-0.008372
-0.0080544
-0.00791403
-0.0082822
-0.00850769
-0.00734791
-0.00846159
-0.00627013
-0.00795509
-0.00868998
-0.00702843
-0.00756756
-0.00783871
-0.00921304
-0.0299102
-0.0364499
-0.0325779
-0.0526964
-0.0530794
-0.0792581
-0.0770375
-0.00598628
-0.00606589
-0.0203509
-0.0237584
-0.0176072
-0.0404675
-0.0246112
-0.0328578
-0.0132469
-0.018304
-0.0059726
-0.0061999
-0.00581514
-0.0799453
-0.0909616
-0.0769843
-0.0776781
-0.0769865
-0.0596587
-0.0621281
0.00891349
0.00878861
0.010542
0.00974772
0.0106436
0.0108965
0.0129156
0.0122029
0.00965176
0.0109259
0.00858526
0.00581512
0.00708234
0.00669897
0.00692719
0.00714412
0.00686974
0.00714907
0.00693319
0.00667437
0.00705846
0.00642902
0.00736503
0.00623636
0.00947514
0.00711223
0.00619432
0.00760674
0.00753226
0.00606581
0.00753212
0.00619422
0.00711205
0.00736491
0.00947509
0.00623633
0.00899611
0.0108708
0.00642891
0.00705855
0.00667432
0.00693318
0.00714906
0.0114517
0.00845198
0.008404
0.00858477
0.0114074
0.00714404
0.0069271
0.00669874
0.00708201
0.00642577
0.0110606
0.00709291
0.00756724
0.0123236
0.00864814
0.00765625
0.00801006
0.0123235
0.0075678
0.00709304
0.0110613
0.00809701
0.00640782
0.00899251
0.00874831
0.0111219
0.011121
0.0100469
0.0126843
0.0112207
0.0147864
0.0130928
0.0145813
0.0148459
0.0130349
0.0172298
0.0170798
0.0147267
0.011208
0.0125677
0.0127115
0.00925056
0.0124033
0.0169455
0.0229076
0.0302754
0.0389486
0.0489539
0.0820951
0.0805996
0.0650948
0.0786494
0.0757295
0.077913
0.109243
0.0775063
0.0792363
0.10831
0.0793773
0.0776816
0.092023
0.08
0.0797554
0.0547757
0.0828559
0.0615237
0.0995373
0.0936483
0.0782209
0.103491
0.0782177
0.0936476
0.0995371
0.0800011
0.079754
0.0776818
0.0920234
0.0793771
0.108306
0.079235
0.0775086
0.0684233
0.0682839
0.0650939
0.0757297
0.0779148
0.0786501
0.107891
0.0783534
0.0909626
0.0782983
0.107888
0.078621
0.0773997
0.0758042
0.0682087
0.0682093
0.0773992
0.0786223
0.10789
0.0783
0.0909612
0.0799442
0.0783508
0.107891
0.0621847
0.0666585
0.0969078
0.0596559
0.06672
0.0621278
0.0646524
0.0663167
0.0636365
0.0663164
0.0525016
0.0616735
0.0616737
0.0967728
0.0646517
0.0621254
0.0667205
0.0596581
0.0666601
0.0621856
0.0645557
0.0664004
0.0635738
0.0662504
0.0645051
0.0613793
0.0655776
0.0590641
0.0676257
0.0936007
0.0676436
0.0677887
0.062761
0.0562253
0.0498249
0.0440046
0.0384661
0.0334436
0.0289185
0.0248091
0.0212943
0.0181264
0.0155602
0.0133541
0.0112802
0.0109698
0.0108229
0.0108632
0.0109251
0.0106432
0.00974781
0.0108971
0.0089927
0.00640763
0.00809692
0.00581545
0.00979671
0.00925048
0.0124034
0.0169456
0.0229078
0.0302755
0.0389484
0.0489536
0.0820955
0.0806006
0.0512908
0.0537832
0.0799379
0.0567567
0.0567565
0.0537834
0.0512901
0.0799377
0.0537671
0.0682838
0.0684257
0.0750227
0.0662942
0.081196
0.0522362
0.0530787
0.0819446
0.0789179
0.0797253
0.0772984
0.0797249
0.0811945
0.0547756
0.0580267
0.0828559
0.0624776
0.0624781
0.058027
0.0830037
0.055593
0.0560272
0.0560279
0.0792567
0.0555934
0.0806351
0.0815267
0.0806159
0.0781405
0.085832
0.0807301
0.086605
0.10458
0.0710122
0.0520689
0.0814469
0.0654287
0.0583434
0.0704029
0.0661971
0.0796561
0.068531
0.0685309
0.0433049
0.0653297
0.0392289
0.0585271
0.0521202
0.0309056
0.0458691
0.0401769
0.0236662
0.0349674
0.03017
0.0176771
0.0260231
0.0222025
0.0129752
0.0190893
0.0162576
0.00953129
0.0140413
0.0124003
0.00747494
0.0103296
0.00655644
0.00788233
0.00788235
0.00760659
0.00727279
0.00696091
0.00652372
0.00901104
0.00633031
0.00633039
0.0063757
0.00910112
0.00641393
0.00641396
0.00624424
0.00893351
0.0069096
0.00690988
0.00680903
0.00968971
0.00833986
0.00834348
0.00921666
0.010063
0.00767548
0.00927784
0.00773515
0.0115785
0.00776442
0.0071041
0.00861189
0.00627013
0.00846153
0.00842075
0.00828204
0.0085077
0.00761974
0.0115627
0.00762559
0.00739027
0.00879169
0.00598616
0.00742615
0.00820548
0.00972697
0.00975314
0.00989408
0.0132679
0.0181209
0.024476
0.0323102
0.0414882
0.0519788
0.0523512
0.0656653
0.0644729
0.0650723
0.065278
0.0604447
0.0534622
0.0478034
0.0418884
0.036818
0.031829
0.027636
0.023597
0.0203294
0.01723
0.0148457
0.0127119
0.00965178
0.0122033
0.0129148
0.0126852
0.014784
0.0134458
0.0147847
0.0171576
0.0173415
0.0166516
0.0198799
0.0202875
0.0179316
0.0228983
0.017886
0.0203295
0.0153264
0.020132
0.0201654
0.0183042
0.023451
0.0234827
0.020246
0.015364
0.0171276
0.0133416
0.01472
0.0126359
0.00988087
0.0108635
0.00869602
0.00840415
0.0114077
0.00820579
0.00776465
0.0115786
0.00773474
0.00927687
0.00767421
0.0100641
0.00921276
0.00783826
0.00680934
0.00705
0.00795498
0.00627067
0.00579603
0.00861201
0.00846161
0.00710394
0.00742633
0.00598629
0.0097662
0.00624415
0.00964966
0.00979106
0.0130724
0.0178384
0.024098
0.0318239
0.0408796
0.0511127
0.0787598
0.0818217
0.0799263
0.0790746
0.0770391
0.086865
0.0779142
0.109245
0.0862831
0.0662932
0.052236
0.0530782
0.0792564
0.0596478
0.05807
0.0620841
0.0613898
0.0639827
0.0630865
0.0503068
0.0638132
0.0654731
0.0519774
0.0602526
0.0580642
0.0638778
0.051934
0.0567694
0.0742286
0.0739472
0.0738319
0.0757502
0.0656653
0.0547434
0.0577315
0.0623492
0.0565288
0.0447238
0.0455618
0.043827
0.0340314
0.0352353
0.0401101
0.0509982
0.0501
0.0590915
0.0594971
0.0530776
0.0534583
0.0462421
0.0588569
0.0526962
0.0513117
0.0789177
0.0819428
0.0537677
0.0816668
0.0802671
0.0806351
0.0827064
0.0615226
0.0689979
0.0691282
0.0699707
0.0705526
0.0631517
0.0538637
0.0432476
0.0336723
0.025535
0.018977
0.0140382
0.0106771
0.00864235
0.00809185
0.00837137
0.00837133
0.00847719
0.0104251
0.0139624
0.0190484
0.0257394
0.0265676
0.0306573
0.0346547
0.0261402
0.0192495
0.0195847
0.0228548
0.0222569
0.0274495
0.0274045
0.0234516
0.0234303
0.0209105
0.0273209
0.0316496
0.0280205
0.0363042
0.0417456
0.0365979
0.0469148
0.0422972
0.0472556
0.041603
0.0366364
0.0470828
0.0535706
0.0462627
0.0508267
0.0410519
0.0319659
0.032858
0.036472
0.0316223
0.028067
0.0364506
0.0418248
0.0325782
0.0392301
0.0449034
0.0567155
0.0612902
0.0625228
0.0968679
0.0750211
0.0512836
0.0614378
0.0967658
0.064944
0.0766043
0.0742713
0.0570412
0.0573002
0.0524757
0.0502105
0.0447751
0.034594
0.0347693
0.0262044
0.0192782
0.0140089
0.0139976
0.0142754
0.0167257
0.0162649
0.0202459
0.0201651
0.0171276
0.0170797
0.0153262
0.0201317
0.018304
0.0179162
0.0242088
0.0248151
0.0231516
0.0209559
0.023483
0.0181641
0.0220825
0.0301703
0.0204484
0.0349678
0.0236668
0.0401779
0.0270457
0.045869
0.030906
0.0521209
0.0347878
0.0585261
0.0392291
0.0653303
0.0431881
0.0735422
0.0499858
0.0760729
0.0521566
0.0490232
0.0578882
0.0578881
0.0760727
0.0499858
0.0735425
0.0490228
0.0796561
0.0520682
0.0661969
0.0637625
0.0704037
0.0583441
0.065429
0.0676266
0.0814471
0.0691285
0.0689992
0.0827064
0.0807319
0.0806176
0.0858319
0.0781373
0.0862832
0.0802659
0.0819311
0.0831494
0.0761865
0.0547483
0.054858
0.0522721
0.0433047
0.0636535
0.0564651
0.0503688
0.044352
0.0443515
0.0269
0.0388737
0.0240404
0.0338146
0.0203506
0.0292463
0.0179713
0.025173
0.0150686
0.0215698
0.0131933
0.0185075
0.0110616
0.0158218
0.00968519
0.0138156
0.00827953
0.0117862
0.00746773
0.0111814
0.00824725
0.0111813
0.00655629
0.0103297
0.00747485
0.0124002
0.00814117
0.0140411
0.00953135
0.0162575
0.0110363
0.0190894
0.0129751
0.0222024
0.0151105
0.0260232
0.0176772
0.0179715
0.0251726
0.0176072
0.0215697
0.0185077
0.0158216
0.0138155
0.00979649
0.0117862
0.00746785
0.00885924
0.011926
0.00968534
0.012372
0.0166745
0.0226005
0.0301582
0.0392524
0.0496041
0.0598001
0.0597997
0.0699715
0.0656662
0.0547427
0.0496037
0.0636537
0.0396414
0.056465
0.0346323
0.0503693
0.0313363
0.0384186
0.0416434
0.0346321
0.0404672
0.0324043
0.0268996
0.0388735
0.0338153
0.0292462
0.0203503
0.0245536
0.0237581
0.0182015
0.0150685
0.0133677
0.0110615
0.0129603
0.0100434
0.00827911
0.00891308
0.0112592
0.00696089
0.0072729
0.00945699
0.00772059
0.00772024
0.00945693
0.0101916
0.00665487
0.00796565
0.00853517
0.0086351
0.0058414
0.00715975
0.00819265
0.00773849
0.0116304
0.00783435
0.0094321
0.00833581
0.00830607
0.00734189
0.0078959
0.00795343
0.00827066
0.0106344
0.00795365
0.0101918
0.00796594
0.00665498
0.00607516
0.0086351
0.00715978
0.00584147
0.00596916
0.00879181
0.00739042
0.00762571
0.0115631
0.00761988
0.00850782
0.00797939
0.00789583
0.00804875
0.00856195
0.00607503
0.0100966
0.00844745
0.00849432
0.0079791
0.00734796
0.00819478
0.00844751
0.00856202
0.00652368
0.0100967
0.00885932
0.0105188
0.0140441
0.019164
0.0258719
0.0341416
0.0438236
0.0485667
0.0396419
0.0485668
0.0519791
0.0431884
0.0677883
0.052351
0.0590916
0.0462629
0.0530775
0.0422976
0.0469147
0.0365977
0.0417457
0.0418886
0.0321623
0.0357963
0.0367665
0.0322105
0.0411172
0.0462704
0.0477048
0.0415476
0.0529988
0.0414932
0.0478037
0.0534633
0.0534592
0.058857
0.046243
0.060444
0.051935
0.0580643
0.0602539
0.0519777
0.0638781
0.0652792
0.0650729
0.0526967
0.0594984
0.0644733
0.0656658
0.0625231
0.0580703
0.0620846
0.05276
0.0613902
0.0580176
0.0639813
0.0502059
0.0630855
0.0638142
0.0503062
0.0742713
0.074073
0.0614177
0.0579619
0.0647913
0.0528206
0.0591485
0.0591484
0.0462566
0.053607
0.0415471
0.0477043
0.0462709
0.0529982
0.0414941
0.0411167
0.0322104
0.0367664
0.0357966
0.0321629
0.0310302
0.0243058
0.0275997
0.0269482
0.0242625
0.0260477
0.0191612
0.0139304
0.0103989
0.0104508
0.0104323
0.0106222
0.0122108
0.0118941
0.0148274
0.0147197
0.012636
0.0125675
0.011208
0.0147267
0.0133413
0.0131147
0.0097738
0.00988077
0.00914804
0.00872826
0.00850486
0.00597249
0.00907451
0.00895192
0.00918957
0.00904181
0.00910695
0.00686991
0.00619975
0.00903719
0.0118771
0.016241
0.0222345
0.0299054
0.0392697
0.0410586
0.0450087
0.045073
0.0348486
0.0347092
0.0312676
0.0299307
0.0393027
0.0419736
0.0417417
0.032954
0.0363881
0.0363883
0.0280283
0.0316752
0.0248922
0.0273652
0.0273651
0.0209121
0.023663
0.0179318
0.020288
0.0198799
0.0228991
0.0178862
0.023248
0.0261128
0.0262632
0.0193607
0.0192071
0.0169813
0.0163007
0.0173411
0.0130927
0.0147869
0.0145808
0.0166521
0.0130348
0.0123952
0.0139809
0.0141342
0.0105417
0.0104117
0.0094235
0.0090733
0.00891257
0.00878705
0.00753352
0.00563071
0.00664429
0.00634371
0.00667767
0.00562603
0.00753854
0.00702831
0.00867757
0.00885958
0.0107422
0.012002
0.0112203
0.012784
0.012461
0.0112335
0.0125796
0.00980772
0.0170064
0.0153644
0.0171127
0.0132468
0.016236
0.0131933
0.016236
0.0220824
0.0295023
0.03231
0.0414884
0.0347881
0.0562248
0.0419392
0.0470829
0.0366361
0.0416022
0.0328572
0.0363035
0.0280204
0.031649
0.0318289
0.0242622
0.0269483
0.0275989
0.0243049
0.0310299
0.031886
0.0280282
0.031675
0.0299311
0.0350093
0.0452028
0.0570342
0.0502417
0.0502431
0.0614165
0.0579611
0.065472
0.0647923
0.0613686
0.0596479
0.0508271
0.0513122
0.0410522
0.0437737
0.0402892
0.0384187
0.0313362
0.0295024
0.0240412
0.0309428
0.0341152
0.0258504
0.0191428
0.0140207
0.0104966
0.00972722
0.00983445
0.00975328
0.00989426
0.013268
0.018121
0.0244756
0.020448
0.0334422
0.024611
0.0274489
0.0209558
0.0274043
0.0248148
0.0273204
0.0209104
0.02343
0.0235969
0.0276355
0.0222339
0.0222563
0.022854
0.0257395
0.0340313
0.0438266
0.0392517
0.0301576
0.0226001
0.0166743
0.0190486
0.0139624
0.0123723
0.00954117
0.0104248
0.00847712
0.00895265
0.00918942
0.0112807
0.00980803
0.0109698
0.00872856
0.00845223
0.0061998
0.00972716
0.00977389
0.0131148
0.0179162
0.0242086
0.0319658
0.0402891
0.0309427
0.0280662
0.0317167
0.0316214
0.0364712
0.03645
0.0384659
0.0325772
0.0440036
0.0270457
0.0498256
0.0401084
0.0509981
0.062761
0.0623514
0.0676447
0.0512842
0.0655802
0.0590629
0.0936023
0.0757455
0.0738296
0.0613802
0.0645077
0.0968706
0.0662509
0.0635747
0.0664016
0.0967655
0.0645564
0.0742273
0.0739481
0.0612928
0.0565273
0.0577314
0.0447236
0.0455633
0.0346529
0.0352342
0.0306559
0.0299095
0.0392297
0.0418241
0.047256
0.0501
0.0535714
0.0567151
0.0449027
0.0347685
0.0262038
0.0261394
0.0265675
0.019249
0.0181641
0.0212948
0.0181262
0.0132471
0.0148274
0.0112335
0.0125801
0.0133542
0.00814133
0.0155605
0.0110364
0.0122108
0.0167255
0.0195851
0.0162649
0.0171129
0.0139977
0.0142761
0.0104326
0.0106216
0.00907491
0.00597249
0.00899604
0.0108706
0.00833576
0.0078344
0.0116304
0.00773847
0.00819292
0.0114519
0.00850518
0.00904189
0.0108234
0.011894
0.011877
0.0162405
0.0192778
0.0140089
0.010451
0.00910732
0.00903701
0.0103991
0.0139303
0.0191608
0.0260472
0.0345938
0.0447752
0.0567694
0.0614393
0.0649444
0.0570403
0.0450718
0.0393031
0.047083
0.0470831
0.0424279
0.0533726
0.0536063
0.0462571
0.0522818
0.0522814
0.0613686
0.0580175
0.0414388
0.0366144
0.0414388
0.0366141
0.0419734
0.0417419
0.0318033
0.0318036
0.0237802
0.0237801
0.0231514
0.0170066
0.012461
0.011926
0.00914819
0.00976041
0.00637564
0.00936946
0.012784
0.0174586
0.0174586
0.0153264
0.0201645
0.0183846
0.0201648
0.0153266
0.0163008
0.0194892
0.0222658
0.0234774
0.023477
0.0236633
0.0209121
0.022266
0.0264085
0.026263
0.0348497
0.0312673
0.0410574
0.0392691
0.0502109
0.0524761
0.0572991
0.045008
0.0299046
0.0368172
0.0347122
0.0261144
0.0232472
0.0193604
0.014134
0.0142687
0.0120018
0.0123951
0.0169813
0.0192096
0.0139807
0.00942376
0.0104119
0.00938512
0.00864739
0.00938567
0.0087483
0.00936924
0.00869555
0.0097661
0.00579593
0.00845065
0.00784719
0.0073054
0.00799912
0.00845074
0.00837172
0.0078473
0.00730478
0.00828191
0.0079131
0.00805411
0.00791377
0.00837186
0.00705003
0.00783576
0.00702863
0.00800919
0.00926205
0.00869011
0.00895097
0.00795485
0.0104956
0.00842139
0.00907368
0.0171585
0.00979698
0.0533729
0.0766039
0.00849454
0.00830594
0.00853534
0.00943223
0.00734188
0.00734819
0.0151106
0.0248089
0.0289181
0.0521566
0.0095411
0.0967737
0.0758025
0.0648272
0.0781457
0.0870129
0.0790736
0.081667
0.0870194
0.0776789
0.0870199
0.0769904
0.0870125
0.0781464
0.0648278
0.0799419
0.0969068
0.109163
0.0769877
0.086865
0.0779151
0.0770417
0.0318862
0.0299105
0.0317175
0.0246117
0.00976025
0.00596906
0.0314015
0.0508611
0.0576368
0.0419379
0.0527591
0.0502067
0.00642595
)
;

boundaryField
{
    face
    {
        type            calculated;
        value           nonuniform List<scalar> 
154
(
-0.08
-0.08
-0.08
-0.08
-0.08
-0.08
-0.08
-0.08
-0.08
-0.08
-0.08
-0.08
-0.08
-0.08
-0.08
-0.08
-0.08
-0.08
-0.08
-0.08
-0.08
-0.08
-0.08
-0.08
-0.08
-0.08
-0.08
-0.08
-0.08
-0.08
-0.08
-0.08
-0.08
-0.08
-0.08
-0.08
-0.08
-0.08
-0.08
-0.08
-0.08
-0.08
-0.08
-0.08
-0.08
-0.08
-0.08
-0.08
-0.08
-0.08
-0.08
-0.08
-0.08
-0.08
-0.08
-0.08
-0.08
-0.08
-0.08
-0.08
-0.08
-0.08
-0.08
-0.08
-0.08
-0.08
-0.08
-0.08
-0.08
-0.08
-0.08
-0.08
-0.08
-0.08
-0.08
-0.08
-0.08
0.08
0.08
0.08
0.08
0.08
0.08
0.08
0.08
0.08
0.08
0.08
0.08
0.08
0.08
0.08
0.08
0.08
0.08
0.08
0.08
0.08
0.08
0.08
0.08
0.08
0.08
0.08
0.08
0.08
0.08
0.08
0.08
0.08
0.08
0.08
0.08
0.08
0.08
0.08
0.08
0.08
0.08
0.08
0.08
0.08
0.08
0.08
0.08
0.08
0.08
0.08
0.08
0.08
0.08
0.08
0.08
0.08
0.08
0.08
0.08
0.08
0.08
0.08
0.08
0.08
0.08