/*--------------------------------*- C++ -*----------------------------------*\
| =========                 |                                                 |
| \\      /  F ield         | OpenFOAM: The Open Source CFD Toolbox           |
|  \\    /   O peration     | Version:  2306                                  |
|   \\  /    A nd           | Website:  www.openfoam.com                      |
|    \\/     M anipulation  |                                                 |
\*---------------------------------------------------------------------------*/
FoamFile
{
    version     2.0;
    format      ascii;
    arch        "LSB;label=32;scalar=64";
    class       volScalarField;
    location    "2.7";
    object      gradTy;
}
// * * * * * * * * * * * * * * * * * * * * * * * * * * * * * * * * * * * * * //

dimensions      [0 -1 0 1 0 0 0];

internalField   nonuniform List<scalar> 
2658
(
0.00849276
0.00489437
0.00152447
-0.000219248
-0.0183701
0.0226149
-0.0195661
0.0164614
-0.000339156
-0.0160041
0.00499403
-0.0354368
0.0213222
0.0217014
0.0175234
0.0180188
0.0197927
0.0177376
0.0179394
0.0214349
0.0206395
0.0179363
0.00590235
-0.00415023
0.00672452
0.0197804
-0.00435149
0.00116292
0.0161336
-1.83145e-06
-0.016135
0.00435192
-0.0197805
-0.00590005
-0.00672321
0.00415153
-0.00134585
0.00167416
-0.017942
-0.0206418
-0.021437
-0.0179404
-0.0177358
0.00894404
-0.00151929
-0.000801524
-0.00499442
0.00930893
-0.018022
-0.0175228
-0.0216975
-0.0213213
-0.018852
0.0039318
-0.00702335
-0.00669484
0.000451681
-0.0119223
-1.96154e-06
-0.000218837
-0.000451841
0.00669338
0.00702431
-0.00393233
0.00481871
-0.0103693
-0.014839
-0.000643024
-0.0250423
0.0250414
-3.85472e-07
0.0216149
-0.00021438
0.0181631
-8.08268e-05
-0.0137449
-0.0136386
0.000289179
0.0134871
0.00887271
-0.00911986
-0.00053886
0.0115323
0.0173047
-0.000398453
-0.000240129
-1.06804e-05
9.2272e-05
0.000129999
0.00014567
0.00012952
-0.000527395
0.000276837
0.00136334
-0.000614881
-0.00139503
-0.000266674
-0.00152598
-0.000286376
-0.000588805
-0.00167425
-0.00045552
-0.00142223
-0.000785898
-0.000650156
0.00148859
-0.00053554
-9.8335e-07
0.00019079
-0.0015739
0.000519291
-0.000714454
-3.74251e-08
0.000714424
-0.000519384
0.00157378
0.000650173
-0.00148854
0.00142221
0.000785932
0.000455506
0.00167425
0.000588778
0.000286344
-0.00117043
-0.00113415
-0.00136339
0.00139496
0.000266599
0.000614932
0.00164073
0.000428167
0.000786808
0.000708381
0.00146469
-0.00065214
4.07132e-05
6.51644e-05
-0.00148116
0.00148132
-4.09523e-05
0.000652215
-0.000395831
-0.000413328
-3.74787e-06
0.000411929
7.14244e-07
8.11307e-07
-0.000813797
0.000802201
1.74369e-06
6.37248e-05
0.000425831
-0.000471945
0.00191933
0.000448698
0.00179633
0.0021222
0.0022491
0.0017862
0.00179826
0.00205735
0.00179636
0.0018193
0.00230132
0.00214377
0.00187883
0.000609645
-0.000143694
0.000339076
-0.00246071
0.00315394
-0.0033554
0.00415312
-0.00470933
0.00557192
-0.00653114
0.00739115
-0.00884961
0.00956381
-0.0117042
0.0120208
-0.0152002
0.0146943
0.0143457
0.0120183
0.0114083
0.016005
0.0183693
0.000218425
-0.0226166
0.0148385
0.0103682
-0.00481819
0.0354371
-0.00429628
0.000396914
0.000239255
9.85512e-06
-9.3031e-05
-0.000130494
-0.000145954
-0.000129688
0.000527293
-0.0002767
2.15437e-05
-0.000616828
0.000213444
-0.000796134
0.00079615
0.000616851
-2.16421e-05
-0.000213471
-0.000240763
0.00113426
0.00117042
-0.00141051
0.00133233
0.000321667
-4.32487e-05
-0.000215001
0.000208365
-0.000199657
-0.000214652
-8.14628e-08
0.000214613
-0.000321871
0.000535579
-0.00101175
9.95591e-07
-0.00112448
0.00112438
0.00101161
-1.47423e-07
-0.000704297
-0.000770924
0.000770808
-0.000203072
0.000704091
-0.000103877
-7.28563e-08
-0.000568213
-0.000251001
0.000741643
-0.000191784
3.45562e-08
1.07976e-08
-1.01353e-07
-0.00107152
0.000771906
0.00215138
-0.000518574
0.00170908
-0.00227809
0.00263863
-0.00280463
0.00280426
0.000357439
0.00319202
0.000227752
-0.00387066
0.00438584
0.000120577
-0.00522734
0.00605623
2.41864e-05
-0.00704674
0.00821927
-0.000116012
-0.00931427
0.0108834
-0.000410735
-0.0119765
0.0140532
-0.00112338
-0.0149368
0.0176605
-0.00303807
-0.0191281
-0.00881795
-0.0196089
0.0196079
-0.00116234
-0.00532607
0.010173
0.00907669
-5.26702e-07
-0.00645245
0.00645246
0.00673009
-4.22601e-07
-0.00811197
0.00811157
0.00327359
-1.20234e-06
-0.0210901
0.0210873
-0.0130919
-1.77042e-06
0.0130882
-0.0102051
0.00648745
0.014942
0.0103693
0.0136947
-0.0202151
0.0144159
0.0019221
0.00122139
0.00020809
-0.00327446
-0.00118545
-0.00335241
-0.0115843
0.00623072
0.0178909
0.00758304
0.00855878
-0.00437241
-6.11756e-07
0.00437262
0.00335264
-0.014415
0.0202151
-0.0149418
-0.00648528
0.0102038
-0.00192407
-0.00122312
-0.00855693
-0.00758318
-0.0178893
-0.00623083
0.0115839
-0.0119417
-0.00425692
-0.0165715
-0.00374506
0.0109218
0.0026002
-0.00255568
0.0118747
-0.00235263
-0.00283415
0.000124239
-7.95681e-05
-0.000235612
-0.000273942
-0.000262511
-0.000238564
-0.000203733
-0.000245545
-0.00232907
-0.00198522
-0.00179083
-0.00271827
0.00355879
-0.00380458
0.00474372
-0.00534639
0.00637142
-0.00743561
0.00844315
-0.0101351
0.0109022
-0.0134869
0.0136395
-0.0173051
0.000339144
-0.0164615
0.0195665
-0.0216163
0.0202668
-8.46387e-07
-0.0202679
0.0175405
-0.0157572
0.0127756
-0.010675
0.0141112
7.41978e-05
0.00964662
0.000381496
-0.0109012
-0.000417408
-0.00721123
-0.00825272
0.000374744
0.00762564
0.00833287
-0.00922695
-0.000466702
0.0101136
0.000216767
-0.0102429
0.0128175
-0.000552163
-0.0114082
-3.32138e-05
0.000801352
-0.00930945
0.0119406
-0.0118753
0.00255485
0.000886388
-8.92578e-05
-5.13224e-07
0.000228325
1.82156e-05
-0.00014742
-0.00020308
-0.000207461
-0.000195878
-0.000168078
0.00019955
-0.00020841
0.000215049
0.00020294
4.33836e-05
-0.00133234
0.00141047
-0.000966362
0.000664516
0.000375602
0.000305929
0.000832752
0.000586944
-0.000161206
-0.00224664
0.00369769
9.26156e-06
-0.00414075
0.00335885
-0.00286458
-0.000238506
0.000159285
0.00115815
0.00117802
0.00116862
0.000729354
0.000815326
4.86213e-05
0.000316644
0.000353841
0.000165343
-0.000188241
3.75491e-05
-7.7926e-05
-0.000169327
-0.000151381
0.000116788
0.00016367
0.000179121
0.00307409
0.00270356
-0.00280986
-0.00245586
0.00014333
0.00244284
-0.000268313
0.000217283
-0.000161422
-0.000466109
-0.00047418
-0.000801089
-0.000355066
-0.000277668
-0.000416647
-0.000662307
-1.0064e-05
6.75426e-05
0.000144451
0.00534618
0.00486315
-0.00558758
-0.00483664
0.000275702
0.00424416
-0.00346127
0.000211193
0.00319865
-0.000269953
0.00362865
-0.00399633
0.000222932
0.0040085
-0.00320145
0.000154702
2.71333e-05
-9.43071e-05
-0.00319145
4.01106e-05
0.00295134
-0.000418256
-0.0025455
-0.000531569
-0.000213815
-3.33157e-05
7.15848e-05
0.000180277
0.0003906
0.000378358
-0.000989944
0.000370465
0.000723286
0.000455369
7.21698e-05
0.000231432
0.000186108
0.000171376
-0.000191193
-0.000483478
-0.000824709
-0.000817815
-0.00132834
-0.00126112
-0.00205488
-0.0012829
-0.000616389
-0.0012252
-0.00299205
-0.000482634
-0.000162464
1.66291e-05
0.00922721
0.00825397
-0.010113
-0.00887122
0.000417214
0.00721172
-0.00662322
0.000340755
0.00558776
-0.000358723
0.00642045
-0.00762478
0.000371291
0.00708979
-0.00613678
0.00029422
5.07377e-05
3.93901e-05
-0.000124587
-0.00438528
2.19482e-05
0.0038708
-0.00022771
-6.39367e-05
-0.00386158
0.00469769
-0.00532438
0.00532397
0.000109361
-0.00638214
5.98118e-05
0.00726987
3.80692e-05
-0.00854473
7.17267e-05
0.00970691
-0.0001023
-0.0111414
5.83798e-05
0.0126095
-0.000491481
-0.0140372
-7.26016e-05
0.0159072
-0.00180762
-0.0166077
-0.00136576
0.018604
-8.88883e-07
-0.0186047
0.00881627
0.0191296
0.00303704
-0.0176596
-0.000197028
0.0149366
0.00112239
-0.0140522
-6.4087e-05
0.0119783
0.000410047
-0.010882
-3.04381e-05
0.00931567
0.000114996
-0.00821864
-8.14974e-06
0.00704743
-2.46135e-05
-0.00605558
8.29925e-06
0.00522779
-0.000120584
-5.22246e-05
-0.000195044
-0.000144527
-5.13202e-05
0.000578709
-2.39829e-07
-2.9055e-08
-4.86768e-07
-3.69765e-08
2.12125e-07
3.82614e-07
9.6813e-07
3.41913e-06
1.09568e-06
-6.00816e-07
-1.60754e-06
0.00543451
-0.0054356
-0.00758465
-0.00724022
-0.00219072
-0.00387672
-0.0121454
0.0364615
-0.00345377
0.000171808
-0.000153714
-0.000210362
0.00136611
0.0166085
0.00180683
-0.0159069
-3.77367e-07
-4.06477e-07
-4.5918e-07
0.000491145
-0.0126097
0.0140371
7.25955e-05
-0.000151384
-0.000183385
-5.86793e-05
0.0111413
0.000101906
-0.0097077
-7.59982e-08
-3.72419e-07
-4.42068e-07
-3.75379e-07
-0.000110208
0.00638174
-0.00727047
0.00854463
-7.15589e-05
-0.000178976
-0.000155034
-3.71328e-07
-2.37932e-07
-9.69992e-08
-1.49837e-07
-0.000357919
0.00349227
-1.33005e-07
-0.00349276
6.3798e-05
0.00386113
0.000185761
-0.00469839
5.19838e-05
0.00012409
-2.00454e-07
-0.000186441
-1.72678e-07
9.3936e-05
3.31387e-05
0.00254561
0.000418138
-0.00295133
0.000213675
-0.00263882
0.00107152
0.00227804
-2.0866e-09
-0.00170899
0.000518564
-0.00215177
-0.000609694
-0.000771883
-9.06277e-05
-0.000495472
-0.00025297
0.000191763
0.000568176
-0.000741706
0.000251111
-0.000769332
0.000568735
-7.35374e-08
-0.000568716
-0.000279535
0.00152589
0.000769356
0.000103916
0.000252996
-0.00019069
0.000495409
9.06109e-05
0.00010676
-0.000545317
-0.000230911
0.000767256
0.000714706
-0.000163996
0.0001832
0.00101285
-0.00146883
0.00136586
-0.000203636
-1.02475e-08
-3.88503e-09
1.82017e-08
-4.59855e-08
-4.65748e-08
-9.58404e-08
-7.41531e-08
-8.17611e-08
-2.29857e-07
-3.5706e-07
-1.61404e-07
-2.68108e-07
-4.56745e-07
-3.3996e-07
-4.13485e-07
-9.55743e-07
-0.0101741
0.00532607
-0.00453341
0.0075467
-0.00754784
0.00453348
-0.0150689
0.00157282
-0.00604764
0.0139851
0.00352845
-0.00033413
0.0131197
-0.011891
-0.00670301
-0.0176975
-0.00566385
-0.00863857
-0.0129031
-0.00726348
0.000676831
0.00626309
0.00192116
-1.73796e-06
-2.9326e-07
-0.00192004
0.0150696
0.00604998
-0.00157285
0.00475688
-0.00352839
-0.0131202
0.00033378
0.00154538
-0.00260118
-0.0109227
0.00374334
0.0165711
0.00425617
0.00760039
-0.00612911
-0.00626446
9.12132e-07
-0.0023364
-0.00475627
0.000339315
-0.000478282
-0.00737728
0.00612851
0.00120052
-0.00760076
-0.000221379
-0.000208745
0.00118506
-0.000886397
8.82547e-05
3.22143e-05
-0.00206657
-0.0042359
-0.0022202
-0.000155396
0.0117659
0.010245
-0.0128173
-0.011531
0.000538624
0.00911986
-0.000216988
-0.000236242
-0.00220686
-0.00132605
-2.82439e-05
8.05545e-05
0.00012472
0.000150155
0.000164121
-0.00444197
-0.000273931
0.000120832
0.00450802
-8.82014e-05
-0.00571554
0.00674615
-0.000112267
-0.00785923
0.00609963
-0.00515376
-0.000277941
-0.0071164
-0.000116167
-0.0106504
0.0081541
-0.000336243
-0.00964607
-7.47425e-05
-0.0141112
0.0106743
-0.000381893
-0.0127753
8.0812e-05
-0.0181646
0.0137437
-0.000290016
-0.000969649
-0.00412467
-0.0124975
-0.0124654
-0.0197977
-0.00202499
0.0335064
-0.00317847
-0.00326299
-0.00152455
-0.000685218
-0.000418341
-0.000270481
-0.000168409
-7.44589e-05
5.61489e-06
6.87841e-05
1.9202e-05
0.00635807
2.34579e-07
-0.00635863
0.00750508
6.11232e-07
-0.00875973
0.00875978
-0.0075049
2.30648e-08
-6.17299e-08
3.37507e-08
7.09311e-05
0.000167107
-4.82019e-05
0.00192712
7.2287e-07
-0.0019276
0.00392712
4.28443e-07
-0.0045628
0.00456231
-0.00392676
3.97909e-05
0.000545723
-0.000722504
0.00072254
-0.00041168
-0.000208072
-0.000545901
0.00224686
0.000161521
-0.000587385
0.00286546
-8.90494e-06
-0.00335947
0.00414077
-0.00369746
4.76693e-05
-7.10116e-05
-7.16848e-05
0.00020359
-3.99737e-05
0.00246088
0.000245958
-0.00307384
-0.000154563
0.00281003
0.000269943
-0.00319828
-0.000211371
0.00346274
0.00534612
0.000278091
-0.00609979
0.00785823
0.000112871
0.00515498
-0.0045084
0.0057154
8.82228e-05
0.00372471
0.000242751
-0.00474313
0.00380446
0.00245666
-0.00244308
-0.000143381
-0.00355839
0.000238083
0.0027181
0.00179127
0.000268168
-0.0027033
0.00198538
0.00232938
-0.000664491
-0.000180218
-0.000375389
0.00394834
-0.000306031
-0.000167212
-0.000832526
0.0041532
-0.00178627
-0.00179864
0.000989997
-0.000378217
-0.000390611
-0.000353523
-0.00081543
-0.000578691
5.11319e-05
0.000144837
-4.84717e-05
7.84816e-05
0.000194792
0.000253175
0.000170003
0.000278542
0.000312469
-0.000313236
-0.000253314
-5.99463e-05
-0.000331385
0.000330458
0.000417266
0.000617182
0.000249827
-0.000250955
-0.000319055
0.000319917
0.00122794
0.0075868
0.00724379
0.00219472
-0.0146935
-0.000570655
-0.0143453
-0.000172823
0.00151904
-0.0335067
0.00235162
0.00283355
-0.000125466
7.85791e-05
0.00023472
0.000273376
0.000262099
0.00023829
-2.18764e-05
0.00335604
0.000250687
-0.00400804
-0.00022318
0.0039965
0.000308729
-0.00424385
-0.00027519
0.00483823
0.00743583
0.000335965
-0.00815473
0.0106497
0.000115726
0.00711711
-0.00915643
-3.924e-05
0.0101991
2.17947e-07
-0.0118678
0.0118675
-0.0101988
3.88411e-05
0.00915646
8.96231e-05
1.88525e-07
3.96621e-07
1.04589e-07
1.12602e-06
-4.02511e-05
-0.000456934
-0.00192172
0.000476827
0.000292674
-0.00146516
-0.000708886
-0.000786996
-0.00136612
-0.000428265
-0.00164077
-0.00224857
-0.00212213
0.000202822
-0.00179714
-0.000448971
-0.000723043
-0.00115787
-0.00117819
-0.00116881
-0.00230132
-0.00181941
0.000966304
-0.00179649
-0.0020583
0.00421638
-0.000339011
0.000531506
0.000143702
-0.00214384
-0.00187909
-0.000728873
-0.000165089
-0.000317297
-0.000163027
-0.00315351
-0.00017882
0.00320227
0.000188293
-3.35957e-05
-0.000115552
-0.00415252
0.00471022
0.00027485
-0.00534558
-0.000294081
0.00613793
0.00558769
0.000358669
-0.00558808
-0.000341282
0.00662488
0.0101345
-0.00844225
-7.99019e-05
-0.00010746
-0.0070885
-0.000370824
-0.00641935
0.000202383
0.000206941
0.000195609
0.000167916
-2.73191e-05
-3.96054e-05
-5.11295e-05
0.000154563
0.000178404
-6.52413e-05
6.443e-05
8.49209e-05
0.00046616
-0.0110981
-0.000114639
0.000118731
0.000606333
-0.0145271
0.000571171
0.000172807
0.000112636
8.92616e-05
7.2028e-05
5.55659e-05
3.54076e-05
-2.74865e-06
0.00493033
-0.0054639
0.00546419
-0.00492988
2.4093e-06
-3.5474e-05
-5.57353e-05
-2.00997e-05
-0.0067459
-6.89947e-05
-4.48566e-05
-7.16279e-05
7.47231e-05
0.000168619
-8.97003e-05
-5.17287e-05
-0.000120511
-0.000149974
-0.000163628
0.00444278
0.000474866
0.000157378
-6.56677e-05
-0.005571
0.00653228
0.000302561
-0.00739022
0.00885079
0.000291028
-0.0095623
0.011705
0.00011516
-0.0117661
-0.000607312
0.0145279
0.0152011
0.000196353
-0.0120194
6.41433e-05
0.000483992
0.000165308
1.22902e-05
0.000361429
0.000801676
0.00126214
0.000672043
0.0020548
0.00129667
0.00387732
0.00298605
0.0121453
-0.0364604
0.00134624
-0.00167262
0.0129038
0.00566266
0.0176969
0.00670302
0.0118901
-0.00894417
0.00345388
0.00202523
-0.0120178
-0.000229875
-1.92054e-05
0.000146598
-4.13303e-07
-5.44445e-07
-0.00011985
0.000150848
0.000182781
-8.56136e-05
-0.000113771
-2.71406e-07
-9.64238e-08
-8.97861e-05
-7.24418e-05
-6.08225e-05
-0.0121775
0.0135737
-1.57302e-07
-0.0157229
0.0157217
-0.0135741
6.03937e-05
0.0121776
0.000105637
-6.92848e-05
-0.000365304
5.21428e-05
-0.000163471
-0.000344374
-0.000703969
0.000117267
0.0157563
-0.017541
0.000101585
-6.46742e-07
-5.81774e-07
-6.24654e-07
-3.6161e-07
-0.00673058
0.00127143
0.000152942
0.000209823
-0.000338632
-0.00907785
0.00233665
0.000477641
0.00737638
0.00726385
-0.0139833
0.00863848
-0.000676208
-0.00120221
-4.88869e-07
0.00429578
0.0119201
-7.03661e-05
4.41659e-07
0.000147911
0.000214339
6.94647e-05
-0.00489551
-0.00849575
-0.00853829
-8.45335e-07
0.000215143
-1.58002e-06
0.000642325
6.1151e-07
1.36176e-07
-3.44875e-08
-0.000105955
0.000270983
0.000418359
-0.000117762
-0.000102843
0.000344561
6.94483e-05
0.000825159
0.000483604
0.000191677
-0.000159326
-0.00021713
0.000161524
0.000466284
-0.000143622
-0.00486262
0.000817937
0.00132853
-1.55562e-05
0.0110997
0.000157405
0.000237265
2.93463e-05
0.00132679
0.00220873
0.00222131
0.00423771
0.0124655
0.00206687
0.00412508
0.0124979
0.00317798
0.000969675
-0.000149087
0.000684278
0.00143829
0.00326369
0.000706498
-0.000124494
-0.00637029
-0.000171213
-0.000186158
-0.000370907
-0.000231182
-5.22704e-06
0.000165528
0.000365245
-0.000174057
-0.00143594
3.04157e-05
8.17507e-06
-8.23574e-06
-0.0036281
4.47581e-05
-0.00372401
-0.000243014
0.000230921
0.00054537
-0.000106757
-0.000183258
-2.13394e-07
0.000164016
-0.000714786
-0.000767265
0.000279591
0.00146887
-0.00101284
-6.57374e-05
-0.000426716
0.000410869
0.000208105
0.000396871
-0.000291614
0.000108431
-0.00833033
-0.000290937
0.000552887
-0.00154625
-0.00127113
0.000221375
0.0002407
-3.66038e-09
-3.9039e-05
-2.64479e-07
-6.75374e-08
1.24138e-07
-0.000302334
-0.000374246
-0.000250195
-0.000308644
-0.00421616
-0.00394823
-0.00415294
-0.0136961
-0.0103714
0.00177438
-1.6763e-06
-0.00177362
0.0188522
0.00853699
-0.000723685
-0.00045527
-7.20498e-05
-9.34218e-06
0.00286452
-0.0036977
0.00414052
-0.00335927
0.000238506
0.00271803
-0.000832822
0.0041531
-0.00212224
-0.00224905
-0.00178622
-0.00179819
-0.00205712
-0.00179629
-0.00181923
-0.00230089
-0.00214373
-0.0018784
-0.000609732
0.000531583
-0.000771909
-0.00215155
0.000518449
-9.06228e-05
-0.00170912
6.83245e-08
0.00170901
-0.000518465
0.0021517
0.000609842
0.000771927
-0.000531582
0.000339125
-0.000143743
0.00187881
0.00214376
0.00230096
0.00181926
0.00179635
-0.000966348
0.000375502
0.000305994
0.000832598
-0.0009899
0.00179842
0.00178617
0.00224861
0.00212213
0.0017968
-0.000202837
0.00044917
0.000208017
0.000546123
0.00192753
-9.83249e-07
0.00072246
-0.000545792
-0.000208337
-0.000448638
0.000203446
-0.000587053
0.000161222
0.00224661
4.79476e-05
0.00392649
-0.00392704
-5.68594e-07
-0.0045626
2.67922e-06
-0.00493005
8.78675e-05
0.00372394
0.00380422
0.000243012
-0.00474341
-0.0031988
0.00245601
-0.000143667
-0.00244305
-0.00355878
0.000129528
0.000145732
0.000129903
9.21167e-05
-1.02995e-05
-0.000240103
-0.000398123
0.00429599
-0.00335164
-0.0115828
0.00623157
0.0119415
0.00425655
0.0165709
0.00374423
0.00670362
0.0176975
0.0056642
0.0129019
0.00863712
0.00604694
-0.0139834
0.00475591
-0.000338937
-0.00157213
0.015069
-0.00453144
0.00754739
-2.03909e-08
-0.00754837
0.0045304
-0.0150701
-0.00604831
0.0139826
-0.0129026
-0.00863736
-0.00566484
-0.0176972
-0.00670329
-0.00374584
0.0109211
0.0118728
0.011582
-0.0119421
-0.00425844
-0.00623214
-0.0178918
-0.00758784
-0.0103717
-0.0149442
-0.00648699
0.0102047
-0.0130924
-0.0019229
0.0210883
-0.0210895
0.0130912
-0.0102055
0.00648725
0.0149437
0.0103715
0.013697
0.00758817
0.0178916
0.0216986
0.0213239
-0.00393067
0.0188522
0.00702576
0.00853787
0.00669365
-0.000216496
2.09996e-07
0.000215704
-7.34812e-07
0.0119207
-0.0119217
0.000452162
-0.00669358
-0.00853822
-0.00702631
-0.0188531
-0.0213247
-0.0216983
-0.0175227
-0.0180188
-0.0197908
-0.0177377
-0.0179386
-0.0214337
-0.0206385
-0.0179352
-0.00589951
0.00167505
-0.00134598
0.014694
-0.0152014
0.0120199
-0.0117041
0.00956383
-0.00885017
0.00739049
-0.0065319
0.00557181
-0.00470948
0.00415298
-0.00335581
0.00315365
-0.00246078
-0.00232912
-0.00198518
-0.00179096
-0.00271806
-0.0028652
8.83432e-06
0.0036974
-0.00224685
-0.000161441
0.000587386
-0.00415313
0.000527264
-0.000129787
-0.000145969
-0.000130284
-9.27451e-05
9.97992e-06
0.000239299
0.000396898
-0.00429669
0.00335125
0.00118479
0.00327299
-0.000886804
0.00811086
-0.00811135
-0.00327354
-0.00118555
0.000886292
0.00255471
-0.0118738
-0.0109216
0.0118901
-0.0131194
-0.00352776
0.000334865
0.00154535
-0.00260027
0.0023515
0.00283344
-7.00378e-07
-0.00283375
0.00352725
-0.004757
0.00907478
0.000337534
0.0101722
-0.010174
-0.00907662
-1.48234e-06
0.0064505
0.00672843
-0.00673073
0.00127151
-0.00645271
0.000477454
-4.86738e-07
0.0062617
0.000674381
-0.00726439
0.00191983
-8.62011e-07
-7.47532e-07
-4.05018e-07
0.00881525
-0.00672561
-0.0197805
0.00434843
-0.0161357
0.0196062
-0.0186043
0.016607
-0.0166086
-0.00180841
-0.0149366
-0.00112325
0.0140516
-0.0119784
-0.000410148
0.0108815
-0.00931565
-0.000114777
0.00821828
-0.00704729
2.49255e-05
0.00605562
-0.0052277
0.000120866
0.00438541
-0.00387085
0.000227949
0.00319182
-0.00295157
0.000418185
0.00254549
0.00107142
0.00227777
-0.00227803
9.04523e-05
0.000495314
-0.00112442
-0.00101164
-6.17617e-08
0.000704052
-0.000704185
-0.000770906
-8.88081e-08
0.000796056
-0.000796157
-0.000616888
-1.53433e-07
0.00148111
-0.0014815
4.09037e-05
-6.60161e-07
-0.000412044
0.000413348
-0.000292681
0.00146512
0.00070892
0.000786883
0.000428354
0.00164068
0.000614796
-0.0013633
-0.000276867
0.00101291
-0.00146883
0.00136612
0.000714736
0.000767329
0.000266685
0.00152575
0.000286341
-0.00117035
-0.000208453
0.000240531
-0.00113416
0.00139513
0.000199455
0.000214573
-0.000203797
-0.000238649
-0.000262596
-0.00027377
-0.00023499
-7.87708e-05
0.000125462
0.000571587
0.0143441
0.012019
0.0114076
0.0160052
-0.0173049
0.0136399
-0.0134874
0.0109024
-0.0101352
0.00844301
-0.0074366
0.00637083
-0.00534653
0.00474334
-0.00380462
0.0035586
-0.000238243
0.00335927
-0.00414098
0.0045627
-0.00546417
-1.75464e-07
0.00546337
-0.00635875
0.00571499
-0.00450863
0.00515421
-0.00674608
0.000112322
-0.00610033
0.000278143
0.00534564
-0.000211367
0.00346194
0.00399584
0.000308731
-0.00486288
-0.00534605
0.00444197
-0.000223217
-0.00362853
0.000269882
0.00280953
-0.0027036
0.000268512
0.00179084
-0.000167361
-0.000306011
0.00098977
-0.0013952
-0.000614856
-0.00164078
-0.000428313
-0.000786833
-0.000708553
-0.00146466
0.000291532
-0.000396894
-4.08061e-05
0.000652236
-6.52125e-05
-0.00101293
-2.16094e-05
0.000276744
0.00146888
0.00136333
0.00113414
-0.00024069
-0.000213426
0.000616822
-1.42198e-07
-2.20717e-07
-2.40933e-07
-9.8866e-08
-6.10368e-08
-1.65416e-08
1.24402e-08
-2.82093e-07
-3.59006e-07
-5.25185e-07
-7.83447e-08
0.00437114
-0.000223307
-0.00760192
0.00120088
-0.0165709
-0.00737784
0.0131179
-0.000335669
-0.00154674
-0.00127273
-0.000153844
0.000172409
-0.00151956
-0.00080122
-0.00499481
-0.00481886
0.010367
0.0148381
-0.0226162
0.000218868
0.0195662
-0.0164608
0.0183695
0.000338356
-0.00412439
-0.0124979
-0.0124641
-0.0121427
-0.00724147
-0.00758509
-0.00122731
-0.00298846
-0.00219352
-0.00387794
-0.0020536
-0.00129637
-0.000616541
-0.0004174
-0.000670882
-0.000164413
-0.000483514
-0.000156383
-0.0145269
-0.0128175
0.010244
0.00911883
0.000538668
-0.0115306
0.000551534
0.000228954
-0.00235247
0.00259927
-0.00255658
-0.000209457
0.00612755
-0.000479547
-0.00233784
0.00157124
-0.00532669
-0.00116397
-0.00543525
5.35826e-07
3.77776e-07
8.3707e-07
-5.07599e-08
-5.5377e-07
-6.49617e-07
-6.02379e-07
-1.20902e-06
-5.77272e-07
-7.61556e-09
1.25293e-07
-0.000578756
0.000578692
0.000815222
4.81631e-05
-7.83701e-05
-0.000170056
-0.000278531
-0.000361346
-1.18311e-05
-0.00126097
-0.000801082
-0.000474565
-0.000156435
6.61758e-05
0.000144554
-0.00613768
-0.00558817
0.00486272
0.00424369
0.000275157
-0.00483726
0.00558726
0.000340597
-0.00662372
0.00721093
0.000416957
-0.00887119
-0.000217515
-0.0101141
0.00825377
0.000466427
-0.011098
0.0117653
0.000607013
0.000119089
1.86625e-05
-0.000147123
-0.000374721
-0.00762547
0.00641999
0.000370808
-0.00833114
0.00922738
-0.000291198
1.65051e-05
-0.00221983
-0.00423636
-0.00202461
-0.00345312
0.00894351
-0.0118906
0.0364586
-0.00206705
0.0093085
-0.00317846
-0.00849319
-0.00489515
-0.00152523
-0.00326356
-0.000969076
-0.000236002
-0.00220701
-0.00132558
-0.00132731
-0.000816886
-0.000465683
-0.000161246
-0.000187971
3.42453e-05
0.000115848
0.000164364
-0.00444218
-0.00399623
0.00362866
0.00319837
0.000210965
-0.00346176
-0.000308536
-0.000207616
-0.000202948
-0.000358832
5.06659e-05
0.000293841
0.00534541
-0.000274416
-0.000155025
0.00704706
-8.8562e-06
-0.00821906
0.000115335
0.00931526
-3.02784e-05
-0.0108825
0.000411155
0.0119774
-6.3791e-05
-0.0140521
0.00112357
0.0149363
-0.000196782
-0.0176593
0.00303844
0.0191273
0.00415024
0.00136519
-0.00021071
0.000209579
-0.0191284
-0.00303764
0.0176589
-0.00136672
0.0186033
-0.00881665
-0.0196069
-2.74068e-07
0.0161351
-0.0043502
0.0197793
0.00589863
0.00672423
0.00116309
0.00532599
0.00233628
-0.00192127
-0.00626361
0.00726428
-0.00067543
0.0073771
-0.00612851
-1.04911e-06
-4.75568e-07
-5.78108e-07
-5.81086e-07
-6.02738e-07
-5.5236e-07
0.00180801
-0.015907
0.0140364
-0.0126094
0.0111414
-0.0111429
-0.000102828
0.00970678
7.16721e-05
-0.0085448
3.81856e-05
0.00726929
6.0243e-05
-0.00638221
0.000109978
0.00532398
5.22277e-05
-0.00469836
0.000186005
0.00386115
6.37198e-05
-0.00349303
0.000357674
0.00280419
0.000213638
-0.002639
-8.98399e-08
0.00263868
-0.0010714
-0.00254561
-0.000418203
0.00295129
3.99536e-05
-0.0031918
-0.000227741
0.00387089
2.17231e-05
-0.00438579
-0.000120829
0.00522719
7.87392e-06
-0.00605626
-2.48556e-05
-6.05315e-05
0.00638116
-3.05754e-07
-0.00532495
0.00469781
-0.00386185
0.00349252
-3.85673e-07
-0.00280449
-0.000213738
-3.3259e-05
-9.42608e-05
-6.38938e-05
-0.000144492
-0.000195152
-0.000253891
-0.00031353
-0.000331173
-0.000250166
-0.000318914
0.000318577
0.00543484
0.00758476
0.00122701
0.000248507
0.0159054
-7.35726e-05
-0.0140383
-0.00049297
0.0126077
5.82518e-05
0.000182628
-1.41748e-07
0.000493207
-4.81427e-07
-2.82677e-07
0.000103202
-0.00970771
0.0085435
-0.0072707
-3.86236e-05
-4.96372e-07
-6.29946e-07
-3.51671e-07
-0.000110474
-3.35033e-07
-0.000186065
-4.3904e-07
-1.51337e-07
-0.000357436
-1.02312e-07
-5.26139e-09
0.00112434
-0.000495359
0.000519267
-0.000714396
0.000714296
-0.000519226
0.00157397
-0.000190663
0.000650201
-0.00148838
-0.000321845
4.33406e-05
-0.00133232
0.00141045
0.000588819
0.00167408
0.000455487
0.000785826
0.00142216
0.00074169
-0.000250988
-0.000568215
-0.000191771
1.37747e-07
-8.06745e-08
0.000191652
-0.00157397
-0.000650141
0.000190563
-0.000535643
0.000321667
0.00133232
-4.33469e-05
-0.000214983
0.00020837
0.00117038
-0.000286359
-0.00152577
-0.000266685
-0.000767337
0.000568766
0.000568239
-9.01417e-08
0.000253015
0.000535587
1.07e-06
0.000103901
0.000769372
-0.000568747
-0.000279588
-6.82423e-08
-0.000103912
-0.000253054
0.00101163
-1.23337e-06
3.31132e-05
-2.21512e-07
-2.43209e-07
-3.45164e-07
-2.68555e-07
-3.12794e-07
-2.38232e-07
-0.000151045
7.3543e-05
0.000150362
-0.000125512
0.000196212
-0.0146943
-0.000570466
0.0145274
-0.000607526
-0.0102452
0.000216989
0.00887107
-0.000417263
-0.00721244
-0.0109025
0.000381259
0.00964558
-0.0121778
7.38552e-05
-0.0106757
0.0127741
-0.0157573
-8.06686e-05
-0.0137458
0.00028976
0.0134858
-0.0136395
-0.00912143
0.011531
-0.000538708
0.017304
-0.000337514
0.0164608
-0.0195666
-0.000218983
-0.0183705
-0.0160053
-0.0114087
-0.000551442
0.0128166
-0.0120183
-0.0143456
0.00345294
-0.000172763
0.00151912
-0.033506
0.000801453
-3.31856e-05
0.00499393
-0.0354346
0.00481946
-0.0148388
-0.0103684
0.00489417
1.97386e-07
6.95757e-05
0.000642107
0.025041
-2.78081e-07
0.0216149
-0.0216147
0.000213862
-0.0181644
8.10564e-05
0.0157576
-0.0127746
0.0137438
-0.0002901
0.0106738
-7.46158e-05
0.0121781
-0.00964524
-0.000381655
0.00815361
-0.000116566
0.00915687
-0.00711601
-0.00033661
-0.000824576
-0.000483211
-0.000191256
0.00015952
0.000217179
0.000165091
0.000317279
0.000163434
0.000179151
-0.0032018
-0.00281008
0.00270354
0.00244288
0.0001432
-0.00245621
-0.000269992
-0.00019605
-0.000168231
-0.000268036
7.14722e-05
0.000180198
0.000664518
-0.00421622
0.00116865
0.000728503
0.000353422
0.000390721
0.00117803
0.00205784
-0.00394827
0.000378403
0.000171647
0.000150356
0.000125165
8.08964e-05
-2.84634e-05
-0.000344813
-0.00143837
-0.000684318
-0.000418531
-0.000707296
-7.00148e-05
0.000105753
0.000116875
-0.0141119
0.0157226
5.77012e-08
0.013574
-0.0135737
6.09462e-05
0.0118677
-1.5352e-07
0.0101992
-0.0101994
3.86562e-05
-0.00785866
-0.000112822
0.0067461
-0.00515441
0.00609938
-0.00027814
5.11329e-05
-0.000365862
-0.000271001
-0.000168692
-0.000165908
0.000120924
6.87924e-05
-0.00571592
-8.84636e-05
0.00492989
-0.00372448
0.00450806
-0.000242793
0.000186298
5.10063e-06
-7.45872e-05
7.19796e-05
0.000231209
0.00037102
0.0011579
0.000722927
0.000457046
0.00192157
-0.000476901
0.000813787
-1.67109e-06
-0.000802143
0.000471742
-0.00191952
-0.000410925
-0.000425783
-1.14979e-06
-2.37923e-07
4.46498e-05
-2.64727e-06
3.51913e-05
2.70477e-05
0.000154291
0.003074
-0.00024554
3.91706e-05
0.000223087
0.00400816
-0.000250306
-0.000124457
-5.24473e-05
0.000123868
0.000154397
0.000178405
0.000235022
7.87944e-05
6.36939e-05
-0.0120208
0.000114989
0.0110978
-0.000467122
-0.00825402
0.00037516
0.00662347
-0.000341015
-0.00558874
-0.00844232
0.000337215
0.00711625
-0.00915674
0.000115824
-0.00815496
0.0106493
-6.09179e-05
-0.0118676
-0.000105731
-3.31981e-07
-5.38441e-08
-8.69915e-07
0.000148686
-0.000148252
-6.97435e-05
-0.000642942
0.022615
-0.0250424
-8.91038e-05
0.000152764
-0.000119666
-0.000229473
-1.87451e-05
-2.44866e-07
8.52776e-05
-0.000182913
-5.8272e-05
-0.000178715
-7.16887e-05
6.4634e-05
-7.93672e-08
-2.71405e-07
-3.55632e-07
-3.18788e-07
-2.32175e-07
-8.46598e-08
-4.82233e-08
-0.00021459
0.000203712
0.000238255
0.000262205
0.000273365
7.87795e-06
-0.007391
0.000302771
0.00613728
-0.000294047
0.00558709
0.000358845
0.00483723
-0.000275812
-0.00424432
-0.00637091
0.00743515
-0.000124964
-0.000144739
-6.71928e-05
0.000277918
0.000416635
0.000615705
0.000331109
0.000313397
0.000253973
0.000195264
0.000169752
7.83156e-05
0.000144543
5.09946e-05
-4.84933e-05
-0.000815424
-0.000729116
-0.000353803
0.00246081
0.000245899
0.00232903
-0.000180484
-0.000375516
0.00394839
-0.000199573
0.000167966
0.000195656
0.00020709
0.000202517
0.000147004
-8.54793e-05
-6.51532e-05
-0.000371432
-0.00708906
-0.00642004
0.00762463
0.00833095
0.00884969
0.000291666
-0.00956344
2.97306e-05
0.0117042
0.000162592
0.00048315
0.0151994
0.00219156
0.00134595
-0.0364607
0.0206398
0.0179386
-0.00167574
0.00723955
0.012143
0.0214355
0.0179397
-0.00894439
0.0177355
0.0197964
0.018021
-0.00930932
0.0175228
0.0124962
0.0124655
0.00202503
0.00387616
0.0029925
0.00205369
0.00128205
0.0012606
0.00066081
9.95906e-06
-0.000108895
-1.6759e-05
-0.00922807
0.0101118
0.000156122
-0.0117668
0.00423618
0.00221923
0.00132677
0.000816281
0.000800097
0.000354809
0.00047371
0.00027452
0.00470904
-0.0041529
0.000250648
0.00320186
-0.000154707
-0.00307412
-0.00315365
-4.00013e-05
0.00335557
-2.19016e-05
-0.00016344
-0.000116704
0.000150625
-0.00016438
-0.00400874