/*--------------------------------*- C++ -*----------------------------------*\
| =========                 |                                                 |
| \\      /  F ield         | OpenFOAM: The Open Source CFD Toolbox           |
|  \\    /   O peration     | Version:  2306                                  |
|   \\  /    A nd           | Website:  www.openfoam.com                      |
|    \\/     M anipulation  |                                                 |
\*---------------------------------------------------------------------------*/
FoamFile
{
    version     2.0;
    format      ascii;
    arch        "LSB;label=32;scalar=64";
    class       volVectorField;
    location    "0.6";
    object      flux;
}
// * * * * * * * * * * * * * * * * * * * * * * * * * * * * * * * * * * * * * //

dimensions      [0 1 -1 1 0 0 0];

internalField   nonuniform List<vector> 
5322
(
(-1.93687e-06 4.86439e-06 -6.41526e-06)
(1.65032e-07 7.0366e-07 -5.19196e-06)
(1.48403e-07 2.66052e-07 -3.40384e-06)
(-4.67939e-09 2.27197e-07 -3.6565e-06)
(-8.09496e-09 1.92763e-07 -1.91423e-06)
(-4.32933e-09 1.18133e-07 -8.71581e-07)
(-1.60382e-09 5.63334e-08 -3.45447e-07)
(-4.49342e-10 2.23803e-08 -1.19709e-07)
(-9.45908e-11 7.69943e-09 -3.66098e-08)
(-4.02376e-12 2.30538e-09 -1.01408e-08)
(1.32403e-11 4.9305e-10 -2.8276e-09)
(3.14199e-11 -2.96961e-10 -1.31492e-09)
(2.4698e-11 -1.50888e-10 -6.22573e-10)
(-2.16411e-10 -1.64337e-10 -1.06683e-09)
(3.33854e-11 -1.88534e-10 -1.31268e-09)
(6.9403e-10 6.26357e-10 -1.56829e-09)
(-4.69773e-10 7.33342e-10 -1.71535e-09)
(1.2198e-10 2.02797e-11 -1.73282e-09)
(-4.89143e-10 8.87215e-10 -3.47252e-09)
(1.50836e-09 -2.57716e-09 -6.7193e-09)
(-1.64827e-09 4.09915e-09 -1.43994e-08)
(6.15072e-09 -9.70417e-09 -2.6763e-08)
(-5.68488e-09 1.54565e-08 -5.37896e-08)
(2.12246e-08 -3.37035e-08 -9.45488e-08)
(-2.13686e-08 5.29271e-08 -1.76427e-07)
(6.21598e-08 -1.00873e-07 -2.87753e-07)
(-6.04023e-08 1.49389e-07 -4.99482e-07)
(1.63296e-07 -2.71168e-07 -7.69895e-07)
(-1.66172e-07 3.83864e-07 -1.23782e-06)
(3.65338e-07 -6.15846e-07 -1.77029e-06)
(-3.44631e-07 8.26867e-07 -2.63815e-06)
(7.55515e-07 -1.22931e-06 -3.55571e-06)
(-5.41768e-07 1.6083e-06 -4.87035e-06)
(1.43523e-06 -1.86598e-06 -5.99084e-06)
(2.53516e-07 2.07667e-06 -7.15733e-06)
(2.53637e-06 -1.35345e-06 -6.7866e-06)
(1.80697e-06 2.78423e-06 -8.33632e-06)
(-7.18183e-07 3.29436e-06 -7.96736e-06)
(1.94319e-06 1.6872e-06 -8.19444e-06)
(-1.22931e-07 1.96069e-06 -6.25309e-06)
(-1.85241e-06 2.4366e-06 -7.56868e-06)
(1.84821e-06 2.05846e-06 -7.81394e-06)
(-1.11203e-07 2.27727e-06 -6.12022e-06)
(-1.9623e-06 2.28013e-06 -7.80796e-06)
(1.96101e-06 2.17523e-06 -7.72871e-06)
(-6.21069e-08 2.32231e-06 -6.23603e-06)
(-2.08173e-06 2.21084e-06 -7.92829e-06)
(1.86127e-06 2.36411e-06 -7.51032e-06)
(-3.53918e-08 2.36863e-06 -6.19036e-06)
(-2.1901e-06 2.11068e-06 -7.86397e-06)
(-2.19107e-06 2.68134e-06 -9.17959e-06)
(-3.11405e-06 1.10083e-06 -5.85538e-06)
(-1.08794e-06 1.35243e-06 -8.4202e-06)
(1.85234e-06 -3.89471e-06 -6.97581e-06)
(-1.21021e-07 -1.67886e-07 -5.84876e-06)
(-2.97922e-06 -2.21401e-06 -6.56504e-06)
(-9.50574e-08 1.28383e-06 -8.54412e-06)
(2.82271e-06 -2.86387e-06 -6.4124e-06)
(-3.10066e-08 -1.08278e-07 -5.79681e-06)
(-2.81497e-06 -2.48325e-06 -6.51948e-06)
(-9.82496e-09 1.30271e-06 -8.6153e-06)
(2.74589e-06 -2.809e-06 -6.49564e-06)
(-1.20353e-08 -9.53123e-08 -5.78982e-06)
(-2.76767e-06 -2.46627e-06 -6.36261e-06)
(6.23312e-09 1.30983e-06 -8.6234e-06)
(2.71221e-06 -2.92023e-06 -6.74471e-06)
(4.52768e-08 -1.44387e-07 -5.78191e-06)
(-2.74548e-06 -2.40402e-06 -6.06646e-06)
(1.71612e-07 1.33688e-06 -8.50911e-06)
(2.27784e-06 -3.31421e-06 -7.25159e-06)
(1.7424e-07 7.72657e-08 -4.84955e-06)
(-1.91001e-06 2.22134e-06 -6.69679e-06)
(2.17475e-06 1.22385e-06 -6.36778e-06)
(-2.23036e-06 1.72699e-06 -6.26754e-06)
(2.14418e-06 1.27489e-06 -6.31672e-06)
(-2.18443e-06 1.62873e-06 -6.2865e-06)
(2.18702e-06 1.34962e-06 -6.28301e-06)
(-2.19047e-06 1.62624e-06 -6.2736e-06)
(2.50488e-06 1.38887e-06 -6.40305e-06)
(-1.87219e-06 1.98122e-06 -6.17601e-06)
(8.32859e-07 9.89405e-08 -6.17769e-06)
(-1.557e-06 9.19917e-07 -5.31389e-06)
(-1.10026e-06 1.29881e-06 -5.51868e-06)
(1.5236e-06 1.9571e-06 -6.6541e-06)
(1.00298e-07 -9.12618e-08 -3.99755e-06)
(-4.53796e-07 -5.8059e-07 -5.73467e-06)
(1.23096e-06 2.90282e-07 -9.21723e-06)
(-3.50458e-06 5.31161e-07 -6.43643e-06)
(-8.99624e-07 1.31375e-06 -6.29499e-06)
(3.53873e-06 2.18129e-07 -5.23365e-06)
(-1.66648e-07 3.55015e-07 -6.29578e-06)
(1.15654e-08 5.37913e-08 -3.34233e-06)
(1.52813e-08 5.91202e-09 -3.50913e-06)
(2.5766e-07 4.28479e-09 -3.51181e-06)
(1.63702e-06 1.9439e-06 -4.94017e-06)
(-2.28731e-07 -1.23913e-06 -5.43283e-06)
(1.24249e-07 4.21652e-08 -4.8116e-06)
(2.13297e-09 1.2504e-06 -5.49425e-06)
(1.26307e-06 4.2527e-08 -9.35438e-06)
(-3.08096e-06 -1.20823e-07 -6.22728e-06)
(-3.06953e-06 3.07407e-07 -6.33005e-06)
(5.75933e-06 4.7092e-08 -5.2926e-06)
(-5.68814e-09 1.35496e-06 -5.54189e-06)
(1.27252e-06 -1.88915e-06 -4.89685e-06)
(2.08628e-06 1.69596e-06 -5.36906e-06)
(1.5078e-07 6.33015e-08 -4.69602e-06)
(3.92481e-08 -4.77662e-08 -4.88839e-06)
(1.79201e-08 -4.26198e-09 -3.70834e-06)
(5.88813e-09 1.82793e-09 -1.93992e-06)
(1.55636e-10 3.53347e-09 -8.8433e-07)
(-1.13066e-09 2.46594e-09 -3.50839e-07)
(-8.57081e-10 1.26396e-09 -1.2165e-07)
(-4.18026e-10 5.26466e-10 -3.70908e-08)
(-1.53486e-10 1.78697e-10 -1.01497e-08)
(-5.63858e-11 6.38381e-11 -3.03206e-09)
(-1.92231e-11 2.1646e-11 -1.4766e-09)
(-2.26068e-10 2.33589e-10 -1.22992e-09)
(-1.68907e-10 -2.30221e-11 -1.17718e-09)
(3.08443e-11 -3.5197e-11 -2.41616e-09)
(5.2309e-11 -7.58811e-11 -1.18597e-09)
(-1.92965e-11 1.7178e-10 -8.90996e-10)
(8.20484e-11 -1.38834e-11 -8.60228e-10)
(-1.15552e-10 -7.32409e-11 -8.41497e-10)
(-1.77362e-11 -1.31986e-10 -1.04046e-09)
(-5.79877e-11 -1.25869e-10 -8.32919e-10)
(1.75443e-10 2.57193e-12 -1.02922e-09)
(1.24873e-10 1.30202e-10 -8.34929e-10)
(7.46641e-12 -7.62627e-11 -8.80288e-10)
(1.07656e-10 1.59672e-11 -1.05736e-09)
(4.51045e-11 1.03284e-10 -8.72492e-10)
(2.2887e-11 -9.5663e-11 -8.96328e-10)
(1.17592e-10 4.60012e-12 -1.08795e-09)
(2.81681e-11 1.0027e-10 -8.89375e-10)
(3.48644e-11 -1.1025e-10 -8.78391e-10)
(1.17085e-10 -1.13159e-11 -1.06823e-09)
(1.41678e-11 8.29199e-11 -8.67058e-10)
(7.30276e-11 -1.1566e-10 -8.47982e-10)
(1.31194e-10 -1.75913e-11 -1.05321e-09)
(1.25685e-10 -5.78305e-11 -8.4223e-10)
(-2.40732e-12 1.75473e-10 -1.04203e-09)
(-1.30516e-10 1.26648e-10 -8.46335e-10)
(-2.00854e-11 -1.60521e-10 -9.00994e-10)
(7.65252e-11 5.50693e-11 -1.1955e-09)
(-1.69747e-10 4.79141e-11 -1.17098e-09)
(-2.32083e-10 -2.2476e-10 -1.23773e-09)
(3.61701e-11 3.51168e-11 -2.43248e-09)
(2.30834e-11 -1.67017e-10 -1.18379e-09)
(-2.86014e-11 9.18511e-11 -1.18317e-09)
(-1.72277e-10 1.37272e-10 -1.23787e-09)
(-2.02848e-10 -1.80867e-10 -1.27189e-09)
(4.746e-11 -1.16375e-11 -2.56275e-09)
(-1.52539e-11 -1.21054e-10 -1.20434e-09)
(-1.93341e-12 1.24786e-10 -1.20146e-09)
(-2.01785e-10 1.87095e-10 -1.26603e-09)
(-1.71294e-10 -1.30753e-10 -1.23962e-09)
(5.04815e-11 8.03037e-12 -2.55487e-09)
(-3.8922e-11 -8.54444e-11 -1.1785e-09)
(4.7072e-11 1.70261e-10 -1.16193e-09)
(-1.61582e-10 2.06677e-11 -8.92247e-10)
(1.89227e-10 3.20348e-11 -1.31992e-09)
(-6.25132e-10 6.95448e-10 -1.57267e-09)
(-7.35762e-10 -4.73562e-10 -1.72951e-09)
(1.32417e-09 1.12864e-09 -4.01904e-09)
(-2.84022e-09 -2.25313e-09 -7.58347e-09)
(-2.61731e-10 2.65163e-10 -3.19388e-09)
(-9.00937e-10 -4.90417e-10 -3.51143e-09)
(-1.20269e-11 1.18291e-10 -1.74771e-09)
(6.14339e-10 1.89594e-10 -1.72191e-09)
(-1.27698e-10 3.05121e-11 -7.9809e-10)
(3.5346e-10 1.23821e-10 -1.00703e-09)
(1.65715e-10 -2.17838e-10 -1.07366e-09)
(2.64092e-10 2.38585e-10 -1.03502e-09)
(-7.45682e-10 -6.31348e-10 -1.7329e-09)
(1.96816e-10 1.0462e-11 -1.42326e-09)
(-6.64843e-10 6.7618e-10 -1.68913e-09)
(7.70483e-10 -1.28405e-09 -4.00143e-09)
(1.02351e-09 1.36465e-09 -3.95064e-09)
(-2.557e-09 -2.6595e-09 -7.44903e-09)
(2.7354e-10 4.27135e-11 -4.31076e-09)
(-2.21993e-09 2.71641e-09 -7.51349e-09)
(3.49593e-09 -5.37907e-09 -1.52507e-08)
(4.44456e-09 5.67499e-09 -1.52239e-08)
(-9.61852e-09 -1.06388e-08 -2.86876e-08)
(7.61968e-10 1.31342e-10 -1.69836e-08)
(-8.18206e-09 1.06862e-08 -2.89001e-08)
(1.36301e-08 -1.99962e-08 -5.51844e-08)
(1.69409e-08 2.09521e-08 -5.51543e-08)
(-3.29957e-08 -3.73336e-08 -9.88501e-08)
(2.81177e-09 3.58878e-10 -6.06595e-08)
(-2.77939e-08 3.72143e-08 -9.93282e-08)
(4.5975e-08 -6.54737e-08 -1.77983e-07)
(5.65219e-08 6.82518e-08 -1.77956e-07)
(-1.00864e-07 -1.14639e-07 -2.99729e-07)
(9.01225e-09 8.93625e-10 -1.9087e-07)
(-8.46156e-08 1.13631e-07 -3.00838e-07)
(1.33811e-07 -1.88146e-07 -5.04387e-07)
(1.64291e-07 1.95363e-07 -5.0459e-07)
(-2.7277e-07 -3.07067e-07 -7.94429e-07)
(2.46805e-08 2.01707e-09 -5.25456e-07)
(-2.28483e-07 3.02688e-07 -7.97037e-07)
(3.3504e-07 -4.72455e-07 -1.24875e-06)
(4.13859e-07 4.88962e-07 -1.25019e-06)
(-6.47206e-07 -7.12615e-07 -1.83233e-06)
(5.80771e-08 3.90148e-09 -1.25945e-06)
(-5.39837e-07 6.97671e-07 -1.8379e-06)
(7.17107e-07 -1.02669e-06 -2.68139e-06)
(8.97902e-07 1.05903e-06 -2.68731e-06)
(-1.31932e-06 -1.40246e-06 -3.65768e-06)
(1.17662e-07 7.04097e-09 -2.60481e-06)
(-1.08407e-06 1.36163e-06 -3.67013e-06)
(1.26801e-06 -1.89643e-06 -4.91071e-06)
(1.5748e-06 1.9086e-06 -4.91616e-06)
(-1.89854e-07 -1.24458e-06 -5.48914e-06)
(1.21005e-06 -1.18773e-08 -9.34875e-06)
(-3.04467e-06 -2.01052e-07 -6.222e-06)
(-3.10695e-06 1.07694e-07 -6.20644e-06)
(5.77242e-06 -5.08538e-08 -5.30596e-06)
(-2.92154e-07 -2.79462e-09 -7.04025e-06)
(-3.06426e-07 9.32969e-09 -7.02854e-06)
(2.0633e-08 1.70568e-08 -3.50994e-06)
(2.81517e-07 2.29307e-09 -3.52109e-06)
(1.63572e-06 1.9474e-06 -4.9397e-06)
(-1.36916e-07 -1.23678e-06 -5.4792e-06)
(1.42111e-07 3.66464e-09 -4.78935e-06)
(-2.0045e-07 1.50756e-06 -5.5984e-06)
(1.17001e-06 -2.60818e-07 -9.36919e-06)
(-3.0926e-06 -1.46511e-07 -6.27126e-06)
(-3.05451e-06 1.39063e-07 -6.19332e-06)
(5.73706e-06 -9.61467e-08 -5.32345e-06)
(-3.81304e-08 1.24178e-06 -5.46417e-06)
(1.27012e-06 -1.91805e-06 -4.91455e-06)
(1.2152e-07 1.28014e-08 -4.80632e-06)
(5.86133e-08 7.64341e-09 -4.75337e-06)
(2.04749e-08 2.33438e-08 -3.70163e-06)
(7.6007e-09 8.89216e-09 -1.9432e-06)
(8.8602e-10 1.50377e-09 -8.87596e-07)
(-9.39754e-10 -6.30358e-10 -3.52437e-07)
(-8.32833e-10 -6.90581e-10 -1.22241e-07)
(-4.24626e-10 -3.67989e-10 -3.72704e-08)
(-1.58541e-10 -1.39045e-10 -1.01966e-08)
(-5.93336e-11 -5.24173e-11 -3.04549e-09)
(-2.06116e-11 -1.76895e-11 -1.48407e-09)
(1.32764e-10 -1.70179e-10 -1.24392e-09)
(-1.82061e-10 -1.99112e-10 -1.27086e-09)
(1.85336e-10 -2.00668e-10 -1.27015e-09)
(-1.29273e-10 -1.68644e-10 -1.23904e-09)
(1.18317e-11 5.60261e-11 -2.5604e-09)
(1.23708e-10 -3.05327e-12 -1.20514e-09)
(-8.50045e-11 -3.43728e-11 -1.18269e-09)
(7.50624e-12 -1.92989e-10 -9.68398e-10)
(-9.36205e-11 2.79294e-11 -9.0587e-10)
(7.46698e-13 -1.33957e-10 -1.7781e-09)
(-1.20379e-10 -4.40037e-12 -1.20516e-09)
(-7.83239e-12 5.60892e-11 -2.5657e-09)
(8.82328e-11 -3.31957e-11 -1.18767e-09)
(-2.63486e-12 -1.29872e-10 -1.73888e-09)
(7.60989e-11 8.76409e-12 -8.88972e-10)
(-1.4838e-11 1.06044e-10 -1.06897e-09)
(-1.02216e-10 4.54769e-11 -8.82991e-10)
(-6.2833e-12 -1.93486e-10 -9.70605e-10)
(9.43271e-11 2.83169e-11 -9.07068e-10)
(2.74771e-13 1.1767e-10 -1.09071e-09)
(4.86172e-13 1.67448e-10 -6.40325e-10)
(2.30063e-10 2.17644e-10 -1.0818e-09)
(-6.60112e-10 -6.98475e-10 -1.70021e-09)
(6.63562e-10 -6.9886e-10 -1.69829e-09)
(-6.20903e-10 -7.26848e-10 -1.74328e-09)
(1.3604e-09 9.84647e-10 -3.97769e-09)
(-2.62625e-09 -2.45311e-09 -7.4801e-09)
(5.64287e-09 4.25105e-09 -1.53063e-08)
(-1.04958e-08 -9.1639e-09 -2.87621e-08)
(2.07752e-08 1.61522e-08 -5.53761e-08)
(-3.68113e-08 -3.13462e-08 -9.89808e-08)
(6.75432e-08 5.38093e-08 -1.78474e-07)
(-1.13022e-07 -9.57182e-08 -2.99899e-07)
(1.93096e-07 1.56267e-07 -5.05689e-07)
(-3.02683e-07 -2.58874e-07 -7.94477e-07)
(4.8302e-07 3.93678e-07 -1.25256e-06)
(-7.02439e-07 -6.1548e-07 -1.8315e-06)
(1.04661e-06 8.56575e-07 -2.69272e-06)
(-1.38363e-06 -1.26164e-06 -3.65302e-06)
(1.92347e-06 1.57435e-06 -4.95423e-06)
(-1.23061e-06 -1.89936e-07 -5.42961e-06)
(3.45971e-08 1.28278e-06 -9.36138e-06)
(1.24693e-06 -6.02768e-08 -5.52149e-06)
(3.72224e-08 1.2754e-07 -4.81156e-06)
(-1.87278e-06 1.36427e-06 -4.90014e-06)
(1.34818e-06 -1.15862e-06 -3.68161e-06)
(8.11879e-09 1.20468e-07 -2.60717e-06)
(-1.01411e-06 7.76568e-07 -2.6819e-06)
(6.89772e-07 -5.81705e-07 -1.84189e-06)
(3.99909e-09 5.92683e-08 -1.26077e-06)
(-4.66807e-07 3.6395e-07 -1.25029e-06)
(2.99141e-07 -2.46965e-07 -7.98351e-07)
(1.96235e-09 2.52363e-08 -5.26098e-07)
(-1.8596e-07 1.45555e-07 -5.05308e-07)
(1.12335e-07 -9.15163e-08 -3.01357e-07)
(8.77362e-10 9.26657e-09 -1.9118e-07)
(-6.47468e-08 5.01181e-08 -1.78434e-07)
(3.68269e-08 -3.00282e-08 -9.95591e-08)
(3.56261e-10 2.91725e-09 -6.08038e-08)
(-1.97928e-08 1.4929e-08 -5.53942e-08)
(1.05926e-08 -8.80741e-09 -2.89915e-08)
(1.31395e-10 8.01848e-10 -1.70422e-08)
(-5.33134e-09 3.85312e-09 -1.53359e-08)
(2.69632e-09 -2.37086e-09 -7.54425e-09)
(4.36613e-11 2.86886e-10 -4.33055e-09)
(-1.27126e-09 8.5122e-10 -4.0286e-09)
(3.32028e-12 -1.50921e-10 -2.3152e-09)
(1.28099e-09 8.51826e-10 -4.03065e-09)
(-2.67593e-09 -2.36584e-09 -7.54886e-09)
(-3.28698e-11 2.87391e-10 -4.33735e-09)
(-1.35126e-09 9.88293e-10 -3.98426e-09)
(6.25671e-10 -7.25933e-10 -1.74719e-09)
(-9.00697e-12 2.01918e-10 -1.43793e-09)
(-2.36837e-10 2.58601e-10 -1.04534e-09)
(-2.28772e-11 1.48077e-10 -6.31793e-10)
(2.18375e-10 1.70159e-10 -1.08816e-09)
(-6.92134e-10 -6.42278e-10 -1.58879e-09)
(1.20846e-09 7.5195e-10 -3.94542e-09)
(-2.70447e-09 -2.1987e-09 -7.44728e-09)
(5.12619e-09 3.6676e-09 -1.51697e-08)
(-1.05099e-08 -8.207e-09 -2.88875e-08)
(1.93957e-08 1.45555e-08 -5.53721e-08)
(-3.62855e-08 -2.82064e-08 -9.95603e-08)
(6.42824e-08 4.93085e-08 -1.79583e-07)
(-1.10047e-07 -8.65444e-08 -3.01825e-07)
(1.86511e-07 1.43988e-07 -5.10788e-07)
(-2.91797e-07 -2.35815e-07 -7.99748e-07)
(4.73074e-07 3.64088e-07 -1.27045e-06)
(-6.70656e-07 -5.625e-07 -1.83847e-06)
(1.03728e-06 7.92369e-07 -2.74394e-06)
(-1.30053e-06 -1.11846e-06 -3.63374e-06)
(1.90541e-06 1.40221e-06 -5.0081e-06)
(-1.21275e-06 -5.42392e-08 -5.47366e-06)
(-3.42574e-07 9.88301e-07 -9.29572e-06)
(4.92656e-07 -5.05904e-07 -5.86532e-06)
(5.07617e-08 1.58221e-07 -4.70334e-06)
(-1.77648e-06 1.95971e-06 -5.44769e-06)
(1.20613e-06 -1.62692e-06 -4.03183e-06)
(3.2532e-09 1.39291e-07 -2.5529e-06)
(-9.30401e-07 1.16063e-06 -2.96122e-06)
(6.31384e-07 -7.84623e-07 -1.98928e-06)
(-7.83296e-09 6.50636e-08 -1.23105e-06)
(-4.1335e-07 5.39329e-07 -1.36617e-06)
(2.68621e-07 -3.21787e-07 -8.51726e-07)
(-6.12616e-09 2.685e-08 -5.11418e-07)
(-1.6332e-07 2.14175e-07 -5.47946e-07)
(9.87871e-08 -1.1696e-07 -3.18621e-07)
(-3.17107e-09 9.87715e-09 -1.85106e-07)
(-5.69833e-08 7.43202e-08 -1.92354e-07)
(3.18245e-08 -3.76648e-08 -1.04223e-07)
(-1.41533e-09 3.14464e-09 -5.8554e-08)
(-1.74491e-08 2.25315e-08 -5.90582e-08)
(9.01989e-09 -1.0744e-08 -2.98694e-08)
(-5.50252e-10 8.83757e-10 -1.627e-08)
(-4.69422e-09 5.95348e-09 -1.60251e-08)
(2.25689e-09 -2.78744e-09 -7.60881e-09)
(-1.93645e-10 3.09139e-10 -4.0582e-09)
(-1.11434e-09 1.32008e-09 -4.03404e-09)
(4.70985e-10 -7.27163e-10 -1.73766e-09)
(-3.19337e-11 1.93172e-10 -1.33349e-09)
(-1.2322e-10 3.56896e-10 -1.01661e-09)
(1.45094e-10 2.78049e-10 -8.76039e-10)
(2.58364e-10 -1.28331e-10 -9.1828e-10)
(-1.72769e-10 6.1222e-10 -1.7155e-09)
(-3.84949e-11 -1.27341e-10 -7.99078e-10)
(-7.24585e-11 -1.60275e-11 -9.23171e-10)
(2.32211e-10 5.34942e-10 -1.47339e-09)
(-8.17787e-10 -5.41103e-10 -1.50767e-09)
(1.07976e-09 8.90445e-10 -3.82252e-09)
(-2.99762e-09 -1.91537e-09 -7.4291e-09)
(-2.01915e-09 2.89321e-09 -7.24681e-09)
(-2.65213e-09 -2.81393e-09 -7.45081e-09)
(2.75003e-10 -1.02198e-10 -4.18713e-09)
(7.86694e-10 -1.54794e-09 -3.84827e-09)
(8.85439e-10 1.25554e-09 -3.94743e-09)
(-7.53074e-10 -7.13694e-10 -1.6112e-09)
(1.74505e-10 -1.14386e-11 -1.36909e-09)
(-6.10245e-10 6.4813e-10 -1.69533e-09)
(-1.83712e-10 -2.27519e-11 -2.17879e-09)
(-9.73992e-11 -7.8329e-11 -2.22776e-09)
(-1.61712e-10 -1.29953e-10 -1.56638e-09)
(-5.18396e-14 1.65918e-12 -9.0792e-10)
(-1.7863e-11 -1.36079e-11 -9.04456e-10)
(-1.4134e-10 -1.63258e-13 -1.73258e-09)
(-1.89764e-10 -3.98261e-11 -2.50393e-09)
(-1.72501e-10 -3.77267e-11 -2.27358e-09)
(-6.73119e-10 6.45579e-10 -1.729e-09)
(-7.45329e-10 -6.77095e-10 -1.70336e-09)
(9.44319e-10 1.30193e-09 -4.00903e-09)
(-2.58922e-09 -2.72217e-09 -7.52648e-09)
(-6.906e-10 3.46608e-12 -8.69119e-09)
(4.26092e-09 5.45929e-09 -1.52823e-08)
(-9.70255e-09 -1.06988e-08 -2.89462e-08)
(1.65349e-08 2.03327e-08 -5.52762e-08)
(-3.3165e-08 -3.71958e-08 -9.94887e-08)
(-7.21263e-09 1.81299e-10 -1.07905e-07)
(5.56905e-08 6.67207e-08 -1.78351e-07)
(-1.01142e-07 -1.13409e-07 -3.01192e-07)
(1.62553e-07 1.92111e-07 -5.05885e-07)
(-2.72996e-07 -3.01865e-07 -7.97286e-07)
(-2.53186e-08 1.44334e-09 -8.17521e-07)
(4.09681e-07 4.82536e-07 -1.25345e-06)
(-6.43935e-07 -6.96205e-07 -1.83592e-06)
(8.83306e-07 1.04393e-06 -2.69074e-06)
(-1.29205e-06 -1.36381e-06 -3.66208e-06)
(2.68661e-07 -4.10659e-09 -3.5173e-06)
(2.05223e-08 1.7754e-09 -3.50583e-06)
(-1.46634e-08 3.14753e-09 -1.83742e-06)
(-1.18597e-08 1.0218e-08 -1.84312e-06)
(-2.06867e-08 3.14024e-09 -8.3996e-07)
(-2.45358e-08 4.03351e-09 -8.22341e-07)
(4.27458e-07 4.89383e-07 -1.26508e-06)
(-6.62601e-07 -6.98225e-07 -1.84291e-06)
(6.33065e-08 1.78683e-09 -1.2673e-06)
(-5.36172e-07 8.32424e-07 -1.868e-06)
(6.77174e-07 -1.20516e-06 -2.70197e-06)
(9.30683e-07 1.07102e-06 -2.72348e-06)
(-1.29744e-06 -1.3523e-06 -3.64922e-06)
(1.36737e-07 1.09889e-08 -2.61802e-06)
(-1.1421e-06 1.66069e-06 -3.75332e-06)
(1.13633e-06 -2.14561e-06 -4.89568e-06)
(2.30098e-06 1.39523e-06 -5.61973e-06)
(-6.86555e-08 -1.15939e-06 -5.44006e-06)
(2.19014e-07 -2.52333e-06 -9.66255e-06)
(-3.34792e-06 -2.13034e-07 -6.49692e-06)
(-3.12595e-06 4.65925e-08 -6.10679e-06)
(5.55098e-06 -8.94732e-07 -5.55731e-06)
(-4.02073e-07 -2.50075e-07 -6.97912e-06)
(3.01195e-08 1.44056e-08 -3.37429e-06)
(6.11027e-08 1.01525e-06 -3.13113e-06)
(-1.00141e-06 1.14894e-06 -4.02032e-06)
(1.64078e-07 6.26354e-08 -2.22558e-06)
(3.8693e-07 -1.1912e-06 -2.82086e-06)
(-4.07472e-07 6.62004e-07 -1.91043e-06)
(1.73268e-08 -1.04844e-08 -1.03509e-06)
(1.87013e-07 -4.39433e-07 -1.28825e-06)
(-1.64702e-07 2.80715e-07 -7.98207e-07)
(-3.63229e-09 -1.08075e-08 -4.23167e-07)
(6.85053e-08 -1.60017e-07 -5.15107e-07)
(-6.30466e-08 1.0457e-07 -2.96308e-07)
(-3.12888e-09 -4.84147e-09 -1.52115e-07)
(2.04005e-08 -5.23007e-08 -1.79216e-07)
(-2.08817e-08 3.39087e-08 -9.54415e-08)
(-1.78958e-09 -2.08177e-09 -4.7575e-08)
(6.13213e-09 -1.55343e-08 -5.45277e-08)
(-6.02975e-09 9.96067e-09 -2.69003e-08)
(-8.09025e-10 -7.55087e-10 -1.30178e-08)
(1.60732e-09 -3.81744e-09 -1.43937e-08)
(-1.43128e-09 2.60571e-09 -6.67102e-09)
(-3.14244e-10 -2.86996e-10 -3.17175e-09)
(5.23146e-10 -8.40486e-10 -3.47746e-09)
(1.15193e-10 5.40648e-11 -1.81719e-09)
(6.62669e-11 1.70118e-10 -1.69432e-09)
(8.08569e-12 -6.72197e-10 -3.19838e-09)
(-2.67165e-11 -2.33662e-10 -3.78978e-09)
(7.04762e-10 1.50911e-09 -5.9486e-09)
(-3.92947e-10 -3.48408e-09 -1.31907e-08)
(5.09861e-09 3.66863e-09 -1.49156e-08)
(-1.14275e-08 -7.60635e-09 -2.91331e-08)
(2.03645e-08 1.39673e-08 -5.55872e-08)
(-3.97579e-08 -2.65841e-08 -1.0144e-07)
(-2.54833e-08 4.14828e-08 -9.83123e-08)
(-3.41392e-08 -3.78757e-08 -9.96585e-08)
(2.87247e-09 -7.24864e-10 -6.0336e-08)
(1.34478e-08 -2.37042e-08 -5.53024e-08)
(1.68335e-08 1.99823e-08 -5.51177e-08)
(-9.95239e-09 -1.0954e-08 -2.88999e-08)
(7.71705e-10 -3.0975e-10 -1.67685e-08)
(-7.38255e-09 1.1668e-08 -2.82375e-08)
(-2.11161e-09 -7.39257e-11 -3.17331e-08)
(-1.29007e-09 -1.04838e-09 -3.29427e-08)
(-4.07529e-10 -3.32766e-10 -8.81625e-09)
(-3.82894e-10 -3.04587e-10 -6.997e-09)
(-6.63188e-10 -1.47009e-09 -9.50486e-09)
(2.23169e-11 -5.20689e-10 -7.69181e-09)
(-1.01553e-10 -2.47737e-10 -7.12997e-09)
(-8.90434e-10 -2.0142e-10 -8.90537e-09)
(-2.31254e-09 1.85518e-10 -9.86028e-09)
(-4.82887e-10 4.26369e-11 -2.7301e-09)
(2.41969e-10 -7.97241e-12 -1.24889e-09)
(1.94332e-10 -3.02366e-11 -6.12561e-10)
(1.90784e-10 3.17811e-10 -1.21419e-09)
(8.26059e-11 9.51162e-11 -7.40909e-10)
(5.40567e-10 -1.49802e-11 -1.49023e-09)
(7.94926e-11 9.72033e-11 -2.34004e-09)
(6.74781e-10 -2.65276e-10 -4.88592e-09)
(1.83296e-09 -1.12785e-09 -1.88447e-08)
(-4.1283e-09 -1.09463e-09 -3.41044e-08)
(-8.08433e-09 7.27369e-10 -3.62052e-08)
(-2.47478e-08 2.63415e-09 -1.20473e-07)
(-1.3479e-08 -3.25139e-09 -1.1654e-07)
(5.45798e-09 -3.86079e-09 -6.71062e-08)
(-2.22855e-09 -1.34663e-08 -4.98685e-08)
(6.82868e-10 -2.29401e-09 -5.76175e-08)
(7.93128e-09 2.07809e-08 -8.75753e-08)
(-7.74366e-09 -4.54699e-08 -1.63204e-07)
(6.9337e-08 4.64931e-08 -1.82876e-07)
(-1.22497e-07 -8.11157e-08 -3.09515e-07)
(2.04082e-07 1.35959e-07 -5.24564e-07)
(-3.35751e-07 -2.16715e-07 -8.25142e-07)
(-2.1781e-07 3.51196e-07 -8.02385e-07)
(-2.82026e-07 -3.04644e-07 -8.0126e-07)
(2.58268e-08 -1.37241e-09 -5.27288e-07)
(1.299e-07 -2.20782e-07 -5.10024e-07)
(1.6823e-07 1.92753e-07 -5.08783e-07)
(-1.04352e-07 -1.14961e-07 -3.02312e-07)
(9.30311e-09 -1.30829e-09 -1.90841e-07)
(-7.89239e-08 1.29094e-07 -3.00509e-07)
(-1.31441e-08 1.55325e-09 -3.19411e-07)
(-6.10587e-09 -5.53743e-09 -3.17156e-07)
(-3.21637e-09 -2.69053e-09 -1.0913e-07)
(-3.05433e-09 3.80405e-10 -9.12963e-08)
(-6.74836e-09 -1.80432e-08 -1.1636e-07)
(-9.48993e-10 -9.36624e-09 -1.05197e-07)
(-2.38395e-09 -6.483e-09 -9.85012e-08)
(-2.33906e-09 -5.66756e-09 -3.5071e-08)
(-4.36712e-10 -2.77192e-09 -2.99756e-08)
(-7.76636e-10 -1.95215e-09 -2.79698e-08)
(2.49082e-09 5.84755e-09 -2.45065e-08)
(1.36496e-10 -7.35305e-10 -1.57237e-08)
(-1.15266e-09 -4.32255e-10 -2.68733e-08)
(-1.56983e-10 1.89124e-09 -1.94878e-08)
(2.11314e-11 -2.25619e-09 -1.02739e-08)
(-1.03199e-11 -4.80141e-10 -2.87331e-09)
(-3.11356e-11 3.06885e-10 -1.33666e-09)
(7.54349e-12 5.11683e-10 -1.51319e-09)
(-3.10472e-10 8.67407e-10 -1.2108e-09)
(-1.61083e-10 -1.56887e-10 -2.59536e-09)
(-1.24941e-10 -4.22275e-11 -1.74189e-09)
(-8.14955e-11 4.92068e-10 -5.11095e-09)
(-3.59402e-11 3.1537e-10 -5.22578e-09)
(2.65406e-09 -2.44848e-09 -7.49691e-09)
(-3.49691e-11 -6.63498e-10 -8.64308e-09)
(-5.60723e-09 4.27837e-09 -1.53343e-08)
(5.38115e-09 3.85517e-09 -1.5353e-08)
(-1.04969e-08 -8.77752e-09 -2.90004e-08)
(-7.47159e-11 8.05748e-10 -1.70777e-08)
(1.06386e-08 -9.18009e-09 -2.88633e-08)
(2.86941e-12 -2.30874e-09 -3.22531e-08)
(-2.06427e-08 1.62448e-08 -5.54985e-08)
(2.00253e-08 1.49686e-08 -5.55054e-08)
(-3.64505e-08 -2.99093e-08 -9.9554e-08)
(-9.77853e-11 2.93953e-09 -6.09621e-08)
(3.74068e-08 -3.15536e-08 -9.94846e-08)
(2.88715e-10 -6.65806e-09 -1.08104e-07)
(-6.70836e-08 5.39675e-08 -1.78914e-07)
(6.56501e-08 5.04041e-08 -1.78979e-07)
(-1.11086e-07 -9.11967e-08 -3.0117e-07)
(9.483e-11 9.3552e-09 -1.91755e-07)
(1.15096e-07 -9.68126e-08 -3.01839e-07)
(1.45918e-09 -1.4899e-08 -3.18698e-07)
(-1.91782e-07 1.56036e-07 -5.06896e-07)
(1.88861e-07 1.47006e-07 -5.07426e-07)
(-2.95713e-07 -2.46604e-07 -7.97006e-07)
(1.1018e-09 2.55688e-08 -5.27769e-07)
(3.08718e-07 -2.63219e-07 -8.00742e-07)
(4.55433e-09 -1.93166e-08 -8.20669e-07)
(-4.80026e-07 3.89069e-07 -1.2541e-06)
(4.74264e-07 3.70595e-07 -1.25761e-06)
(-6.82235e-07 -5.84407e-07 -1.83441e-06)
(4.1046e-09 6.03491e-08 -1.2644e-06)
(7.15343e-07 -6.27021e-07 -1.84885e-06)
(7.30111e-09 3.14553e-08 -1.83565e-06)
(-1.03996e-06 8.24406e-07 -2.68582e-06)
(1.02696e-06 8.03127e-07 -2.70255e-06)
(-1.33674e-06 -1.18276e-06 -3.65377e-06)
(8.83432e-09 1.22699e-07 -2.61041e-06)
(1.39349e-06 -1.26486e-06 -3.69019e-06)
(-7.86252e-09 3.36789e-07 -3.51945e-06)
(-1.90584e-06 1.44645e-06 -4.90182e-06)
(1.87821e-06 1.44581e-06 -4.9449e-06)
(-1.238e-06 -1.12407e-07 -5.48608e-06)
(-4.08568e-09 1.28205e-07 -4.80379e-06)
(1.2279e-06 -1.59585e-07 -5.49209e-06)
(-9.60968e-08 5.75353e-06 -5.35982e-06)
(-2.56405e-07 -3.05861e-06 -6.25525e-06)
(-1.46575e-07 -3.18553e-06 -6.04831e-06)
(-3.27337e-07 4.34832e-06 -5.23377e-06)
(-2.81157e-06 1.15656e-06 -6.85993e-06)
(5.05098e-07 3.61955e-07 -4.17032e-06)
(2.04509e-07 -2.85513e-06 -5.16179e-06)
(-1.97046e-07 -7.4638e-07 -3.56535e-06)
(-3.86448e-07 -4.64115e-07 -3.3966e-06)
(-6.92647e-08 9.92937e-07 -3.79503e-06)
(-1.55174e-06 -1.05866e-06 -3.67729e-06)
(3.97084e-07 -1.94837e-08 -3.59462e-06)
(-9.55942e-07 8.32e-08 -3.95066e-06)
(-1.11311e-06 -2.89453e-07 -4.00706e-06)
(-8.37583e-08 -2.94123e-07 -3.00301e-06)
(-3.04232e-07 -6.68369e-08 -2.08669e-06)
(-4.36733e-07 7.11411e-08 -2.06608e-06)
(-1.76868e-07 2.69153e-08 -9.14707e-07)
(-9.75465e-08 -1.84486e-08 -9.11308e-07)
(3.86901e-08 -2.97968e-08 -5.81925e-07)
(-3.69417e-08 -8.67138e-09 -3.4795e-07)
(-6.84279e-08 8.66482e-09 -3.54034e-07)
(-6.14423e-08 1.55009e-09 -3.51232e-07)
(-2.20381e-08 2.00241e-10 -1.20384e-07)
(-7.29498e-09 -6.61487e-11 -3.66236e-08)
(-2.18733e-09 -7.19817e-11 -1.01495e-08)
(-4.70529e-10 -4.22564e-11 -2.83607e-09)
(3.17468e-10 -5.04045e-11 -1.32511e-09)
(1.76722e-10 -2.02097e-11 -6.2679e-10)
(2.07284e-10 2.26679e-10 -1.07061e-09)
(2.34632e-10 -2.40991e-10 -9.32944e-10)
(4.46449e-10 -2.68862e-11 -1.50854e-09)
(4.42863e-10 -8.42878e-12 -1.57086e-09)
(2.295e-10 -2.54e-10 -1.04598e-09)
(2.33188e-10 2.41438e-10 -1.08273e-09)
(1.95032e-10 -8.07494e-12 -1.43036e-09)
(-1.99192e-10 -4.56543e-12 -9.64078e-10)
(3.82145e-11 -3.7141e-12 -1.19095e-09)
(-2.48471e-11 -2.4112e-11 -9.70388e-10)
(-1.64288e-11 -1.89932e-11 -9.12223e-10)
(3.46195e-11 3.65707e-11 -1.13676e-09)
(-1.7303e-10 -1.83686e-11 -8.97749e-10)
(-3.64895e-12 4.20871e-11 -1.18968e-09)
(1.92555e-13 -2.56441e-11 -9.32058e-10)
(1.39354e-13 -2.92998e-11 -9.99143e-10)
(1.26194e-12 -1.83079e-11 -1.52933e-09)
(-1.02718e-10 8.31225e-11 -1.26368e-09)
(-1.37396e-10 -1.36011e-10 -1.30439e-09)
(-1.38456e-10 1.41834e-10 -1.30306e-09)
(-1.01179e-10 -7.66978e-11 -1.26009e-09)
(1.04342e-10 -8.00575e-11 -1.25813e-09)
(-4.47696e-11 -4.49686e-11 -1.21601e-09)
(1.91044e-11 1.81334e-11 -2.75539e-09)
(1.43006e-10 1.42273e-10 -1.3018e-09)
(-7.775e-11 1.04576e-10 -1.25924e-09)
(-7.61141e-11 -9.98843e-11 -1.25924e-09)
(1.98503e-11 -1.30373e-11 -2.76089e-09)
(1.40578e-10 -1.382e-10 -1.30309e-09)
(1.34134e-12 1.66433e-12 -1.57801e-09)
(3.99014e-12 4.97319e-12 -3.22229e-09)
(4.07886e-12 -5.95725e-11 -3.12721e-09)
(3.23407e-12 -1.83692e-10 -2.54985e-09)
(-4.58241e-11 -1.73753e-10 -2.50068e-09)
(-2.78108e-11 -1.65502e-10 -2.26839e-09)
(-9.58107e-11 -6.45263e-10 -9.4166e-09)
(-2.3254e-10 -2.11025e-09 -3.48581e-08)
(-3.5761e-10 -5.67801e-09 -1.14785e-07)
(1.25734e-11 -1.22419e-08 -3.31978e-07)
(2.1568e-09 -1.84418e-08 -8.38458e-07)
(-6.27049e-09 -8.06529e-09 -8.04577e-07)
(-1.10326e-08 3.45505e-08 -7.02829e-07)
(-3.60016e-08 -1.34582e-07 -8.71189e-07)
(3.20323e-09 -6.42941e-08 -8.13606e-07)
(-1.72923e-08 -3.26902e-08 -7.69003e-07)
(5.48211e-08 1.94887e-07 -7.33501e-07)
(-7.70848e-08 -3.21948e-07 -1.17424e-06)
(5.29428e-07 3.47643e-07 -1.32364e-06)
(-8.06532e-07 -5.16e-07 -1.8995e-06)
(1.21423e-06 7.67522e-07 -2.94812e-06)
(1.06502e-08 -5.22479e-08 -2.70773e-06)
(-3.4043e-07 -7.6043e-07 -2.54331e-06)
(-8.05883e-08 -8.31755e-08 -1.74233e-06)
(9.62871e-08 5.01909e-07 -1.76265e-06)
(1.21938e-08 -2.65505e-08 -1.25878e-06)
(6.90108e-08 -8.62975e-08 -1.4176e-06)
(8.90689e-08 1.19322e-08 -1.41945e-06)
(-1.59234e-07 6.33526e-09 -9.00023e-07)
(-3.84209e-07 1.90172e-08 -2.0089e-06)
(-8.77099e-07 2.70274e-08 -3.86817e-06)
(-2.16984e-06 -2.76716e-08 -6.4259e-06)
(-2.24601e-06 -3.20615e-07 -6.47497e-06)
(-4.75311e-06 1.12909e-06 -6.63331e-06)
(-1.66866e-06 -5.65242e-07 -5.03769e-06)
(-1.38633e-06 -1.6401e-06 -4.43108e-06)
(5.92261e-09 -2.96087e-07 -4.90534e-06)
(-5.09276e-07 -4.43944e-07 -5.85279e-06)
(5.74732e-07 -4.60453e-06 -5.33016e-06)
(-4.5017e-06 -1.33163e-06 -6.34544e-06)
(-2.7847e-06 1.77698e-07 -9.72409e-06)
(-1.38987e-06 -2.0221e-06 -8.74776e-06)
(1.91753e-06 1.44052e-06 -8.00388e-06)
(1.57763e-07 8.17513e-08 -8.33479e-06)
(7.6938e-08 5.92969e-08 -5.10442e-06)
(-1.9081e-06 1.73194e-06 -6.63383e-06)
(2.0132e-06 1.44933e-06 -6.9246e-06)
(1.86266e-08 1.73495e-07 -8.44931e-06)
(-2.53248e-07 -1.64202e-07 -5.20882e-06)
(-2.0723e-06 1.88429e-06 -6.81124e-06)
(2.0104e-06 1.69774e-06 -6.93897e-06)
(3.49308e-09 1.79671e-07 -8.4881e-06)
(-2.83442e-07 -1.97974e-07 -5.2339e-06)
(-2.03008e-06 1.72046e-06 -6.72931e-06)
(2.00016e-06 1.92628e-06 -7.03313e-06)
(1.03102e-08 1.6859e-07 -8.48825e-06)
(-4.5063e-07 -4.38809e-07 -5.39143e-06)
(-1.94404e-06 1.44447e-06 -6.70396e-06)
(1.42828e-06 1.93871e-06 -7.55552e-06)
(-1.31642e-06 -7.07296e-07 -1.06407e-05)
(1.19444e-06 1.22496e-06 -8.9816e-06)
(9.1378e-07 -1.04997e-06 -8.80083e-06)
(2.51699e-06 1.13466e-06 -1.12447e-05)
(-1.18778e-06 -4.40271e-06 -1.11376e-05)
(-6.44241e-07 -2.36483e-06 -8.65521e-06)
(3.60653e-07 3.43937e-07 -6.13858e-06)
(1.35425e-06 -1.08617e-06 -8.42138e-06)
(-3.87074e-06 1.87033e-06 -6.98183e-06)
(-1.69317e-07 -1.17717e-07 -5.84643e-06)
(-2.22813e-06 -2.99255e-06 -6.55267e-06)
(2.3769e-06 1.87274e-06 -7.52637e-06)
(2.36748e-06 -2.90707e-08 -6.1945e-06)
(2.10856e-06 -2.18789e-06 -7.85247e-06)
(2.68087e-06 -2.19163e-06 -9.18477e-06)
(1.09911e-06 -3.11796e-06 -5.85436e-06)
(1.08481e-07 8.44432e-07 -6.18145e-06)
(9.20641e-07 -1.56054e-06 -5.31676e-06)
(1.29992e-06 -1.09339e-06 -5.52306e-06)
(1.94535e-06 1.51348e-06 -6.65591e-06)
(-4.73487e-07 -2.23057e-06 -5.00316e-06)
(1.53389e-07 -4.18825e-07 -3.41438e-06)
(8.70988e-07 1.24004e-06 -3.79005e-06)
(-3.76635e-07 -9.96723e-07 -2.7095e-06)
(1.46552e-08 -1.3991e-07 -1.77519e-06)
(3.86076e-07 6.42072e-07 -1.83633e-06)
(-1.73501e-07 -4.07963e-07 -1.25476e-06)
(4.50281e-09 -5.82084e-08 -7.8747e-07)
(1.63157e-07 2.74734e-07 -7.81559e-07)
(-6.36582e-08 -1.54056e-07 -5.05303e-07)
(2.66672e-09 -2.50313e-08 -3.05424e-07)
(6.2142e-08 1.02083e-07 -2.91536e-07)
(-2.04467e-08 -5.23244e-08 -1.77426e-07)
(1.25912e-09 -9.42737e-09 -1.03095e-07)
(2.08871e-08 3.33854e-08 -9.51387e-08)
(-5.80563e-09 -1.56541e-08 -5.43359e-08)
(4.44524e-10 -2.93791e-09 -3.04246e-08)
(6.11202e-09 9.66636e-09 -2.70877e-08)
(-1.57034e-09 -4.10542e-09 -1.45648e-08)
(8.15546e-11 -6.76593e-10 -7.72217e-09)