/*--------------------------------*- C++ -*----------------------------------*\
| =========                 |                                                 |
| \\      /  F ield         | OpenFOAM: The Open Source CFD Toolbox           |
|  \\    /   O peration     | Version:  2306                                  |
|   \\  /    A nd           | Website:  www.openfoam.com                      |
|    \\/     M anipulation  |                                                 |
\*---------------------------------------------------------------------------*/
FoamFile
{
    version     2.0;
    format      ascii;
    arch        "LSB;label=32;scalar=64";
    class       volVectorField;
    location    "0.6";
    object      flux;
}
// * * * * * * * * * * * * * * * * * * * * * * * * * * * * * * * * * * * * * //

dimensions      [0 1 -1 1 0 0 0];

internalField   nonuniform List<vector> 
5322
(
(-0.000996075 0.00256992 -0.00344454)
(2.59259e-05 0.000247992 -0.00348083)
(3.08994e-05 -7.62145e-06 -0.00353443)
(2.7828e-06 -9.38486e-05 -0.00383073)
(-9.04466e-07 -4.61212e-05 -0.00373212)
(-1.0165e-06 -9.65322e-06 -0.00365715)
(-3.13704e-07 8.3833e-06 -0.0035965)
(1.87139e-07 2.48739e-05 -0.00355026)
(3.69446e-08 5.61215e-05 -0.00352093)
(-9.00979e-07 9.50668e-05 -0.00352072)
(-3.59906e-06 2.61099e-06 -0.00346371)
(3.86171e-05 -0.000676124 -0.00346744)
(5.942e-05 -0.000750513 -0.00260774)
(-0.000818546 -0.000673738 -0.00359615)
(-2.15902e-05 -0.000585136 -0.00393307)
(0.00142588 0.00126709 -0.00314193)
(-0.00112039 0.00169455 -0.00371359)
(-1.73694e-05 -2.98704e-06 -0.00278233)
(-0.000855704 0.001172 -0.00392135)
(0.000554471 -0.00139375 -0.00396605)
(-0.000753727 0.00132903 -0.00400577)
(0.000660791 -0.00135696 -0.00400284)
(-0.000698995 0.00133627 -0.00402646)
(0.000710311 -0.00137688 -0.00406843)
(-0.000720104 0.00137912 -0.0040963)
(0.00070084 -0.00136417 -0.0040993)
(-0.000702547 0.00137091 -0.00413444)
(0.00073989 -0.00141295 -0.00418382)
(-0.000729613 0.00141861 -0.00422402)
(0.000742038 -0.00141608 -0.00423667)
(-0.000704192 0.00143513 -0.00427832)
(0.000814379 -0.00145122 -0.0043227)
(-0.000611038 0.00150982 -0.00433765)
(0.000949201 -0.00131136 -0.00430373)
(1.95186e-05 0.00126551 -0.0041308)
(0.00120967 -0.000640583 -0.00341434)
(0.000853359 0.00126151 -0.00389882)
(-0.00034007 0.00157864 -0.00396048)
(0.000954499 0.000789523 -0.00408744)
(-5.50102e-05 0.000858152 -0.00289039)
(-0.000905315 0.00116524 -0.00379981)
(0.000910103 0.0009738 -0.00392156)
(-5.5114e-05 0.00101159 -0.00283807)
(-0.000968263 0.00108781 -0.00392695)
(0.000962327 0.00103717 -0.00388843)
(-3.31099e-05 0.00103106 -0.00288555)
(-0.00102914 0.00105371 -0.00398166)
(0.000899466 0.00112577 -0.00375899)
(-2.26077e-05 0.00104743 -0.00284804)
(-0.00107882 0.000996517 -0.00389567)
(-0.001065 0.00125095 -0.00437208)
(-0.00154488 0.000600812 -0.00311912)
(-0.000485531 0.00067567 -0.00425623)
(0.00103002 -0.00221247 -0.00397501)
(-6.59277e-05 -0.000119387 -0.00370926)
(-0.00169917 -0.00127931 -0.00377756)
(-4.86703e-05 0.000675559 -0.00450049)
(0.00162298 -0.00167662 -0.00371765)
(-1.95024e-05 -9.38957e-05 -0.00374509)
(-0.00162191 -0.00145716 -0.00378026)
(-7.00931e-06 0.000685911 -0.00455458)
(0.0015806 -0.00164872 -0.00376773)
(-9.06183e-06 -8.38045e-05 -0.00374641)
(-0.00159307 -0.00144635 -0.00368711)
(-3.76003e-07 0.000688701 -0.00455173)
(0.00155671 -0.00170654 -0.0038952)
(2.00869e-05 -0.000108523 -0.00372904)
(-0.00157765 -0.00139921 -0.00350233)
(6.93625e-05 0.000695464 -0.00444585)
(0.00129287 -0.00187991 -0.00413755)
(5.36084e-05 6.52822e-05 -0.00309033)
(-0.00136626 0.00163374 -0.00479247)
(0.00154837 0.000909714 -0.00456399)
(-0.00160194 0.00127129 -0.00449883)
(0.00154206 0.000949258 -0.00454615)
(-0.00157043 0.00120262 -0.00452408)
(0.00157331 0.00100325 -0.00452165)
(-0.00157044 0.00119749 -0.00450614)
(0.00178783 0.00101697 -0.00456606)
(-0.0012901 0.00140867 -0.00432652)
(0.00062994 0.000126195 -0.00412385)
(-0.000844084 0.000480201 -0.00318507)
(-0.000548124 0.000723471 -0.00330163)
(0.000942027 0.0011991 -0.00444162)
(9.60485e-05 -9.97381e-05 -0.00301436)
(-0.000523184 -0.000494632 -0.00401909)
(0.000629589 0.000144073 -0.00546332)
(-0.00169959 0.000282332 -0.00335779)
(-0.000630833 0.000530853 -0.00343459)
(0.00200966 6.27135e-05 -0.00307578)
(-8.68792e-05 0.000139398 -0.00388085)
(3.58728e-05 2.57144e-05 -0.00340361)
(6.59878e-05 4.00695e-06 -0.0035907)
(0.000304952 4.62262e-06 -0.00356413)
(0.00141674 0.00171946 -0.00434806)
(-0.00032567 -0.000923898 -0.00379881)
(-3.54596e-05 2.8041e-05 -0.00376892)
(-0.000157653 0.000931726 -0.00385298)
(0.000649025 2.55953e-05 -0.00555969)
(-0.00150648 -2.6333e-05 -0.00326708)
(-0.00150756 0.000130718 -0.00329565)
(0.0033413 2.53594e-05 -0.00312536)
(-0.000155212 0.000987358 -0.00388231)
(0.00109303 -0.00167602 -0.00429725)
(0.00177957 0.00150021 -0.00467619)
(-1.7237e-05 2.14555e-05 -0.00365844)
(1.14012e-05 -2.90623e-05 -0.00387801)
(1.46744e-05 -5.23649e-06 -0.00384971)
(8.74672e-06 -7.04343e-07 -0.0037671)
(4.17714e-06 1.77446e-06 -0.00370681)
(1.59386e-06 1.95628e-06 -0.00364958)
(-4.65019e-07 2.26261e-06 -0.00359833)
(-4.19231e-06 4.80252e-06 -0.00355412)
(-1.01849e-05 9.40106e-06 -0.00353701)
(1.59172e-05 -1.57128e-05 -0.00405188)
(-5.39906e-06 4.17491e-06 -0.00400645)
(-0.000470651 0.000481778 -0.00280464)
(-0.000464235 -0.000197999 -0.00303862)
(4.92768e-05 -6.82124e-05 -0.00405093)
(0.000295827 -0.000371663 -0.00334864)
(1.6746e-05 0.00045713 -0.00296734)
(0.000451097 -0.000254146 -0.00360805)
(-0.000539555 -0.000495405 -0.0035575)
(-4.04055e-05 -0.000677798 -0.00501138)
(-0.000124407 -0.000765927 -0.00373342)
(0.0008365 -3.08849e-05 -0.00490703)
(0.00068804 0.000561433 -0.00352368)
(0.000191237 -0.000423624 -0.00367938)
(0.000538017 3.97084e-05 -0.00482276)
(0.000347686 0.000462684 -0.00350884)
(0.000264343 -0.00046083 -0.00360113)
(0.000577643 1.94196e-05 -0.00486635)
(0.000291513 0.000480976 -0.00356321)
(0.000312759 -0.000493169 -0.0035341)
(0.000587702 -1.55801e-05 -0.00488862)
(0.000255196 0.000449191 -0.00361358)
(0.000492285 -0.000538816 -0.003556)
(0.000668056 -4.28728e-05 -0.00501944)
(0.000757326 -0.000124487 -0.00373629)
(3.25682e-05 0.000824982 -0.00490754)
(-0.000555139 0.000683396 -0.00353254)
(3.05624e-05 -0.000448153 -0.00297746)
(0.000369993 0.000297127 -0.00334903)
(-0.000448275 0.000230937 -0.00299612)
(-0.000481078 -0.000472596 -0.00280987)
(6.89094e-05 5.10742e-05 -0.00405146)
(0.000198642 -0.000462924 -0.00303879)
(0.000109239 0.000363112 -0.0030175)
(-0.000376493 0.000373238 -0.00277263)
(-0.000413821 -0.000411564 -0.00279094)
(7.75783e-05 -6.21216e-06 -0.00404375)
(0.000123109 -0.000383947 -0.00302161)
(0.000148423 0.0003854 -0.00300995)
(-0.000408367 0.000416113 -0.00277426)
(-0.000387422 -0.000373748 -0.00279756)
(7.82291e-05 -1.24415e-06 -0.00404268)
(8.08759e-05 -0.000357147 -0.00302762)
(0.000235084 0.000453483 -0.00299467)
(-0.000447972 -2.95049e-05 -0.0029764)
(0.000584618 -2.22684e-05 -0.00393252)
(-0.00126096 0.00142587 -0.00313733)
(-0.00168992 -0.00111747 -0.00371849)
(0.00145962 0.00123777 -0.00433191)
(-0.00171248 -0.00131785 -0.00424411)
(-7.19013e-05 4.46581e-05 -0.00268866)
(-0.00117541 -0.000847619 -0.00392216)
(9.7849e-06 -1.7803e-05 -0.00278262)
(0.00114478 -6.97497e-06 -0.00376632)
(-0.000274785 -0.000158183 -0.0025769)
(0.00136245 0.000408718 -0.00348439)
(0.000675349 -0.000817802 -0.00360054)
(0.00100712 0.000813679 -0.00334468)
(-0.00151085 -0.00136711 -0.00346657)
(0.000589223 3.13275e-06 -0.00402092)
(-0.00130184 0.00139639 -0.0033097)
(0.00086778 -0.00138203 -0.00408333)
(0.00113131 0.00143886 -0.00405469)
(-0.0013868 -0.00147415 -0.00392561)
(3.21869e-05 6.15095e-06 -0.00327624)
(-0.00117903 0.00145231 -0.00391886)
(0.00104146 -0.00149293 -0.00402491)
(0.00129632 0.00154845 -0.00403311)
(-0.00138306 -0.00155004 -0.0040126)
(-6.98121e-06 5.79237e-06 -0.00334983)
(-0.00115919 0.00151569 -0.00401724)
(0.00110886 -0.00153358 -0.00405016)
(0.00135469 0.00158307 -0.00405523)
(-0.001396 -0.00158524 -0.00406394)
(-6.55331e-07 3.64112e-06 -0.00339509)
(-0.00116492 0.00154846 -0.00406772)
(0.00114212 -0.00156213 -0.004099)
(0.00138709 0.00160942 -0.00410252)
(-0.00142276 -0.00161344 -0.0041183)
(2.8093e-06 3.16707e-06 -0.00344334)
(-0.0011878 0.00157661 -0.00412365)
(0.001157 -0.00159351 -0.00416103)
(0.00141028 0.0016414 -0.00416651)
(-0.00146614 -0.00164162 -0.00417804)
(4.71853e-06 4.17504e-06 -0.0034995)
(-0.00122714 0.00160456 -0.00418665)
(0.00115748 -0.00163025 -0.00423483)
(0.00142652 0.00168002 -0.00424432)
(-0.0015247 -0.00166651 -0.00424269)
(7.48538e-06 5.53891e-06 -0.00356188)
(-0.00127536 0.00162651 -0.00425511)
(0.00114138 -0.00166499 -0.00431072)
(0.00143299 0.00171535 -0.00432534)
(-0.00157971 -0.00166294 -0.00431611)
(1.35752e-05 7.17012e-06 -0.00361617)
(-0.00130577 0.00161543 -0.00433396)
(0.0010929 -0.00167932 -0.00431637)
(0.00136414 0.00169337 -0.00433035)
(-0.000294044 -0.000924025 -0.00384447)
(0.000620135 -4.33688e-06 -0.00556252)
(-0.001495 -7.08535e-05 -0.00326812)
(-0.00152458 3.0154e-05 -0.00325668)
(0.00336136 -2.77936e-05 -0.00313607)
(-0.000118089 -1.66612e-06 -0.00440565)
(-0.000129043 1.06453e-05 -0.00439373)
(7.39891e-05 1.43122e-05 -0.00359099)
(0.000329307 1.40079e-07 -0.00356534)
(0.00140779 0.00172301 -0.00433501)
(-0.000256085 -0.000919861 -0.00382909)
(-2.10858e-05 7.49304e-06 -0.00372372)
(-0.000286669 0.00109722 -0.00387908)
(0.000591076 -0.000150672 -0.00554407)
(-0.00152295 -4.61731e-05 -0.0032859)
(-0.00149834 3.83019e-05 -0.0032558)
(0.00334198 -5.46755e-05 -0.00314199)
(-0.000187831 0.000928709 -0.00383032)
(0.00109326 -0.00169677 -0.00432153)
(-3.67253e-05 9.90871e-06 -0.00376739)
(1.90999e-05 7.56127e-06 -0.00380786)
(1.7599e-05 2.12325e-05 -0.003843)
(1.11696e-05 1.3562e-05 -0.00376655)
(5.70602e-06 7.12727e-06 -0.00370857)
(2.41456e-06 3.14872e-06 -0.00365116)
(-2.04744e-08 2.28769e-07 -0.00359929)
(-3.86349e-06 -4.13342e-06 -0.00355453)
(-9.24736e-06 -1.03734e-05 -0.00353693)
(1.58867e-05 1.53616e-05 -0.00405173)
(-4.95182e-06 -5.55128e-06 -0.00400748)
(0.000373935 -0.000387801 -0.00279236)
(-0.000415087 -0.000413085 -0.00278377)
(0.000413652 -0.000413276 -0.00278162)
(-0.000375652 -0.000388693 -0.00279217)
(7.70705e-07 7.95629e-05 -0.00404219)
(0.000376055 0.000136717 -0.00300973)
(-0.000355333 8.61093e-05 -0.00302659)
(-1.96851e-06 -0.000522042 -0.003044)
(-0.000447318 0.000273542 -0.00360023)
(2.58781e-07 -0.000553318 -0.0050599)
(-0.000376113 0.000137032 -0.00301056)
(-2.81732e-07 7.9724e-05 -0.00404235)
(0.000354448 8.62966e-05 -0.00302568)
(1.39459e-05 -0.000546825 -0.0050315)
(0.000417797 0.000190307 -0.00366849)
(-3.41258e-05 0.000523212 -0.00480669)
(-0.00045172 0.000337646 -0.00350639)
(1.46787e-06 -0.00052183 -0.00304474)
(0.000446721 0.000274117 -0.00359993)
(-4.48727e-07 0.000567972 -0.00480774)
(-5.70196e-08 0.000793153 -0.00256723)
(0.000791558 0.000837825 -0.00344986)
(-0.00136181 -0.00137375 -0.00331174)
(0.00136021 -0.00137065 -0.00330792)
(-0.00134529 -0.00147512 -0.00346766)
(0.00141882 0.00107225 -0.00405177)
(-0.00145521 -0.00133318 -0.00392631)
(0.001527 0.0012279 -0.00403074)
(-0.00152863 -0.00131988 -0.00401271)
(0.00156078 0.0012832 -0.00405414)
(-0.00156288 -0.0013287 -0.00406355)
(0.00158674 0.00131465 -0.0041023)
(-0.00159081 -0.00135272 -0.00411805)
(0.00161844 0.00133725 -0.00416718)
(-0.00161855 -0.00139384 -0.00417776)
(0.00165701 0.00135388 -0.00424655)
(-0.00164324 -0.00145183 -0.00424143)
(0.00169357 0.00136477 -0.00433033)
(-0.0016411 -0.00151166 -0.00431167)
(0.00170063 0.00136196 -0.00435774)
(-0.000917083 -0.000295962 -0.00379541)
(1.95942e-05 0.000660801 -0.00556054)
(0.000925999 -0.000201118 -0.00386794)
(2.51175e-05 -3.08015e-05 -0.00376761)
(-0.00165879 0.00117914 -0.00430637)
(0.0015974 -0.00139202 -0.00434444)
(8.37785e-06 1.77723e-05 -0.0036181)
(-0.00164485 0.00123753 -0.00430943)
(0.00160605 -0.00137131 -0.00426044)
(5.64866e-06 9.69822e-06 -0.00356358)
(-0.00161034 0.00125559 -0.00423672)
(0.00158349 -0.00132404 -0.00418876)
(3.72538e-06 5.83954e-06 -0.0035007)
(-0.00157393 0.00125315 -0.00416362)
(0.00155552 -0.00128286 -0.00412404)
(2.55723e-06 3.22953e-06 -0.00344401)
(-0.00154287 0.00123546 -0.00410162)
(0.00152759 -0.00125715 -0.00406702)
(2.58289e-06 -7.86074e-07 -0.00339537)
(-0.00151484 0.00119995 -0.00405366)
(0.00149534 -0.00124683 -0.00401494)
(4.03769e-06 -7.60015e-06 -0.00334979)
(-0.00147543 0.00112829 -0.00403051)
(0.00143188 -0.00125873 -0.00391466)
(4.55419e-06 3.05857e-05 -0.00327536)
(-0.00136427 0.000939576 -0.0040889)
(8.21205e-07 -8.67406e-05 -0.00335072)
(0.00136386 0.000938764 -0.00408434)
(-0.0014327 -0.00126073 -0.00391905)
(-6.40068e-06 3.06378e-05 -0.00327539)
(-0.00141666 0.00107784 -0.00405588)
(0.00134329 -0.00146665 -0.00346682)
(-2.529e-06 0.000588321 -0.00402006)
(-0.000798289 0.00097232 -0.00333745)
(-5.18592e-05 0.000726626 -0.00259851)
(0.000812013 0.000680195 -0.00360835)
(-0.0014103 -0.00129382 -0.00314264)
(0.00136425 0.000850525 -0.00410186)
(-0.00144006 -0.00121255 -0.00393407)
(0.00145179 0.00107652 -0.00402312)
(-0.00148357 -0.001197 -0.00403585)
(0.00148966 0.00115343 -0.00405191)
(-0.00150461 -0.0012062 -0.00407845)
(0.00151861 0.00118921 -0.00410556)
(-0.00152661 -0.00123201 -0.00412928)
(0.00155403 0.00120882 -0.00417305)
(-0.00155022 -0.00127753 -0.00418716)
(0.00160043 0.00122022 -0.0042598)
(-0.00156543 -0.00133196 -0.0042368)
(0.0016503 0.00122218 -0.00435967)
(-0.00153903 -0.00134401 -0.00427147)
(0.00166899 0.00118766 -0.00436978)
(-0.000903988 -0.000191534 -0.00381653)
(-0.000196317 0.000479674 -0.00548115)
(0.000392067 -0.000532966 -0.00403141)
(4.89796e-05 -5.26733e-06 -0.00363199)
(-0.00154955 0.00162912 -0.00464196)
(0.00138175 -0.00196863 -0.00466691)
(1.87689e-05 3.82593e-05 -0.00350213)
(-0.00149764 0.00175581 -0.00463405)
(0.00143477 -0.00188822 -0.00456987)
(2.19274e-06 2.04705e-05 -0.00345084)
(-0.00142577 0.00175528 -0.0045463)
(0.0014084 -0.00178974 -0.00448481)
(-2.2631e-06 9.5436e-06 -0.00338601)
(-0.00138528 0.00172674 -0.00445898)
(0.00137678 -0.00172916 -0.00441293)
(-2.8842e-06 4.17819e-06 -0.00333002)
(-0.00136073 0.00170132 -0.00439179)
(0.00135596 -0.00169685 -0.00435742)
(-7.25789e-06 -1.14309e-06 -0.00328499)
(-0.00134065 0.00167802 -0.00434117)
(0.00134383 -0.00167902 -0.00431102)
(-1.75132e-05 -5.27758e-06 -0.0032459)
(-0.00131037 0.00163493 -0.00431886)
(0.00131623 -0.00168131 -0.00424558)
(-3.97584e-05 3.86299e-05 -0.00317925)
(-0.00121267 0.00144509 -0.00433126)
(0.00110849 -0.00166727 -0.00371782)
(2.37998e-05 0.0005848 -0.00393125)
(-0.000401335 0.00135814 -0.00348322)
(0.000683002 0.00120681 -0.00367922)
(0.0011232 -0.000605811 -0.00321075)
(3.51364e-05 0.00115226 -0.00377858)
(0.000139661 -0.000273362 -0.00256964)
(-0.00020527 0.000216461 -0.00293283)
(0.000575227 0.00137982 -0.00333828)
(-0.00177421 -0.00119425 -0.00306493)
(0.00134884 0.00111623 -0.0041973)
(-0.00169521 -0.00105351 -0.00409745)
(-0.00114155 0.00168769 -0.00394768)
(-0.00141158 -0.0014859 -0.00392126)
(3.7802e-05 -1.17551e-05 -0.00326718)
(0.000927424 -0.0016588 -0.00405672)
(0.00102586 0.00141503 -0.00411583)
(-0.00147405 -0.00144491 -0.00319005)
(0.000569697 4.23868e-05 -0.00403705)
(-0.00132272 0.00152115 -0.00354823)
(-9.84556e-05 6.79084e-05 -0.00337727)
(7.06613e-05 2.92883e-05 -0.0033194)
(-0.000534965 -0.000430115 -0.00488531)
(4.57709e-05 4.21759e-05 -0.00394023)
(-2.15974e-05 -3.45312e-05 -0.00373567)
(-0.00056742 2.25732e-05 -0.00501618)
(5.73986e-05 -8.26172e-06 -0.00360109)
(-9.19162e-05 -2.94181e-06 -0.00335752)
(-0.00134221 0.00139083 -0.00342629)
(-0.0014557 -0.00139351 -0.00332992)
(0.00105233 0.00139713 -0.00408866)
(-0.00136766 -0.00145596 -0.00391461)
(1.66769e-05 2.7127e-07 -0.00332022)
(0.00125228 0.00150731 -0.00403337)
(-0.00137044 -0.00152305 -0.00401492)
(0.00133021 0.00154836 -0.0040558)
(-0.00138613 -0.00155638 -0.00406714)
(7.70235e-06 1.18078e-06 -0.00336611)
(0.00137114 0.00157861 -0.00410497)
(-0.00141513 -0.00158328 -0.00412185)
(0.00139593 0.00161306 -0.00416995)
(-0.00146013 -0.0016087 -0.00418136)
(5.19199e-05 1.48247e-06 -0.00345961)
(0.00140944 0.00165319 -0.00424816)
(-0.0015132 -0.00162745 -0.00424418)
(0.00140681 0.0016879 -0.00432696)
(-0.00154594 -0.00161617 -0.00431905)
(0.000319365 -2.61658e-06 -0.00356899)
(7.3128e-05 2.26514e-06 -0.00359462)
(4.52688e-05 3.73251e-06 -0.00353346)
(4.78234e-05 1.22509e-05 -0.00353401)
(2.15193e-05 6.843e-06 -0.0034787)
(5.47498e-05 4.63399e-06 -0.0034662)
(0.00145708 0.00166818 -0.00426224)
(-0.00155279 -0.00162518 -0.00424477)
(1.57715e-05 8.51296e-06 -0.00355713)
(-0.00125948 0.00192244 -0.00428182)
(0.00104887 -0.00191734 -0.00428026)
(0.0014616 0.00171724 -0.00435076)
(-0.00155166 -0.00159993 -0.00429642)
(3.21561e-05 1.6655e-05 -0.00360475)
(-0.00136249 0.00194402 -0.00437918)
(0.000958196 -0.00186624 -0.00424727)
(0.00191572 0.0011901 -0.0047339)
(-0.000220663 -0.000833794 -0.00366674)
(4.05836e-05 -0.00134926 -0.0054472)
(-0.00163518 -9.2865e-05 -0.00332587)
(-0.00151004 -1.89573e-05 -0.00317966)
(0.00316594 -0.000487428 -0.0032168)
(-0.000198207 -0.000125808 -0.00424631)
(5.07065e-05 3.60649e-05 -0.00338082)
(8.57685e-05 0.000879427 -0.00301425)
(-0.000947062 0.00114264 -0.00438614)
(0.000214293 8.97868e-05 -0.00292145)
(0.000729623 -0.00183638 -0.00418368)
(-0.00075536 0.00138415 -0.00429162)
(6.12724e-05 1.26892e-05 -0.00286171)
(0.000769529 -0.00152732 -0.00419091)
(-0.000697403 0.00138618 -0.00419109)
(9.29409e-06 -4.05364e-06 -0.00280603)
(0.000736968 -0.00141296 -0.00415288)
(-0.000703799 0.00138175 -0.00412722)
(-1.58204e-06 -3.20221e-07 -0.00276245)
(0.000694677 -0.00134507 -0.00408037)
(-0.000673877 0.00135855 -0.00404712)
(-1.81069e-05 -1.02889e-05 -0.00272934)
(0.00071501 -0.00132815 -0.00404681)
(-0.00064455 0.00139632 -0.00400403)
(-4.36981e-05 -2.43498e-05 -0.00270723)
(0.000747733 -0.00125525 -0.00400108)
(-0.000503342 0.00141501 -0.0039449)
(-7.24924e-05 -8.90898e-05 -0.00268694)
(0.000879646 -0.00111357 -0.00394208)
(0.000333699 0.000360525 -0.00301772)
(0.000246675 0.000542474 -0.0029094)
(-6.46202e-05 -0.000670749 -0.00362834)
(-3.35809e-05 5.12814e-06 -0.0031711)
(0.00034765 0.00109721 -0.00353859)
(-0.000152721 -0.000938092 -0.00368264)
(0.00157022 0.00110039 -0.00410661)
(-0.00168414 -0.00108026 -0.00416599)
(0.00165442 0.00110241 -0.00414962)
(-0.00169839 -0.00109695 -0.00419675)
(-0.00109953 0.00178478 -0.00406987)
(-0.00142597 -0.00156444 -0.00407833)
(-1.16352e-06 -3.7564e-06 -0.00338821)
(0.00108266 -0.00177932 -0.00406267)
(0.00136596 0.00155063 -0.00406025)
(-0.00141 -0.00153822 -0.00403045)
(-6.113e-06 -9.2472e-06 -0.00334517)
(-0.0010924 0.00175029 -0.00401821)
(8.12569e-06 1.21428e-07 -0.00334033)
(3.72437e-07 -4.39222e-06 -0.00316099)
(1.15671e-05 -2.83091e-06 -0.00314564)
(-1.5723e-06 -0.000100367 -0.00279607)
(2.21601e-05 1.97507e-05 -0.00326131)
(8.97298e-05 0.00013896 -0.00316432)
(8.27038e-05 0.000151644 -0.00303543)
(0.000148835 6.16035e-05 -0.00353941)
(-4.81389e-05 2.71908e-05 -0.00351469)
(2.20005e-05 8.78333e-05 -0.00346171)
(0.000625786 6.19947e-05 -0.00348766)
(0.000993215 -7.97318e-05 -0.00270656)
(0.000828478 0.00129174 -0.00441126)
(0.000280179 0.000414071 -0.00244357)
(0.00126094 8.99093e-05 -0.00328262)
(0.000501499 0.000309337 -0.00348863)
(0.000237203 6.53312e-05 -0.00341692)
(7.28145e-05 1.85782e-05 -0.00345373)
(4.20411e-05 1.30164e-05 -0.00356891)
(-2.66947e-05 5.51746e-06 -0.00351592)
(-2.13762e-05 3.74461e-06 -0.00354487)
(8.65989e-06 2.51825e-06 -0.00361485)
(2.42713e-05 1.60949e-06 -0.00348757)
(-0.000200528 -0.000998832 -0.00371338)
(-2.45769e-06 2.52252e-09 -0.00327266)
(0.000234066 0.00102346 -0.00369421)
(-0.000215863 -0.00102029 -0.00373176)
(0.00169565 0.0011129 -0.00421676)
(-0.00172901 -0.00111463 -0.00424064)
(0.00173092 0.00114031 -0.00428986)
(-0.00179071 -0.00113429 -0.00429526)
(-0.00117442 0.00186491 -0.00419732)
(-0.00150397 -0.00161176 -0.00418946)
(7.3358e-06 2.91317e-06 -0.0034937)
(0.00110302 -0.00183622 -0.00416765)
(0.00143862 0.0016199 -0.00417826)
(-0.00145678 -0.00158852 -0.00413097)
(3.18988e-06 -3.02355e-07 -0.00343635)
(-0.00112554 0.00181936 -0.00412877)
(1.46093e-05 3.87526e-06 -0.00341716)
(6.57695e-06 2.93715e-06 -0.00324114)
(1.21366e-06 -1.03968e-06 -0.00319577)
(4.06005e-07 -9.66468e-06 -0.00283855)
(9.95048e-07 -1.1285e-05 -0.00331459)
(5.37532e-06 1.20735e-05 -0.0032776)
(8.02311e-06 8.80069e-06 -0.0031377)
(5.33963e-06 -2.72949e-06 -0.00327693)
(1.84716e-05 4.52198e-05 -0.00316797)
(2.7819e-05 3.24191e-05 -0.00304155)
(0.000271983 0.00103496 -0.00364539)
(-4.24426e-06 4.25848e-06 -0.00323711)
(-2.40883e-06 -4.71684e-05 -0.00280968)
(-8.58393e-06 -1.57313e-06 -0.00352963)
(1.70924e-06 -7.26967e-05 -0.00353286)
(3.67043e-06 7.10764e-06 -0.0034766)
(-3.53993e-05 0.000680405 -0.00346979)
(8.21941e-05 0.0012987 -0.00327521)
(-0.000947184 0.00238689 -0.00317829)
(-2.79892e-06 0.00024918 -0.00316124)
(1.27309e-05 -3.59434e-05 -0.00277557)
(6.07449e-07 -1.53011e-05 -0.00346781)
(-1.28024e-05 -6.35907e-05 -0.00342297)
(0.00145551 -0.00132476 -0.00392413)
(-1.03131e-07 4.97912e-06 -0.00331512)
(-0.00152626 0.0012371 -0.00403389)
(0.00147536 0.001126 -0.00402692)
(-0.00149533 -0.00124742 -0.00401819)
(-5.17947e-06 -7.5234e-06 -0.00335037)
(0.00153099 -0.00131505 -0.0040116)
(2.34104e-07 8.31772e-06 -0.00332695)
(-0.00156042 0.00129117 -0.00405593)
(0.0015161 0.00119802 -0.00405194)
(-0.00152632 -0.00125646 -0.00406814)
(-2.11511e-06 -6.42083e-07 -0.00339629)
(0.00156685 -0.00132871 -0.00406462)
(1.15678e-06 6.61473e-06 -0.00335909)
(-0.00158577 0.0013183 -0.00410262)
(0.00154611 0.00123549 -0.00410297)
(-0.00155226 -0.00128164 -0.00412203)
(2.21421e-07 3.4695e-06 -0.00344542)
(0.00159703 -0.00135803 -0.00412184)
(2.0501e-06 2.07378e-05 -0.00340232)
(-0.00161673 0.0013339 -0.00416531)
(0.00157999 0.0012572 -0.00416934)
(-0.00157723 -0.00132366 -0.00418112)
(2.5298e-06 6.32879e-06 -0.00350266)
(0.00162814 -0.00140657 -0.00418606)
(1.86552e-06 6.33365e-05 -0.00345208)
(-0.00165402 0.00133467 -0.00423818)
(0.00161977 0.00126915 -0.00425056)
(-0.0015956 -0.00137664 -0.00424133)
(5.98716e-06 1.05419e-05 -0.00356554)
(0.00165461 -0.00147002 -0.00425824)
(-2.74471e-06 0.000160931 -0.00350551)
(-0.00168651 0.00130839 -0.00430582)
(0.00165546 0.00127214 -0.00433534)
(-0.00158485 -0.00141717 -0.00430939)
(9.50345e-06 1.90806e-05 -0.00361701)
(0.00164259 -0.00151161 -0.00434059)
(-1.43701e-05 0.000370308 -0.00355227)
(-0.00168654 0.00124805 -0.00430517)
(0.00166268 0.00124795 -0.00434642)
(-0.00091871 -0.000236114 -0.00383841)
(-1.20289e-06 -2.98141e-05 -0.00376086)
(0.000912125 -0.000274139 -0.00383911)
(-5.66169e-05 0.00333854 -0.00315592)
(-0.000119169 -0.00150354 -0.00326923)
(-0.00012227 -0.00153692 -0.00314268)
(-0.000131974 0.00246879 -0.00296488)
(-0.00161792 0.000642718 -0.00423163)
(0.00039799 0.000263337 -0.00299535)
(0.000347334 -0.00227207 -0.0040292)
(-0.000136644 -0.000473266 -0.00329285)
(-0.000281041 -0.00027789 -0.00315496)
(-0.00013637 0.00115276 -0.00410071)
(-0.00179932 -0.00120379 -0.00419722)
(0.000381103 -2.11854e-05 -0.00354601)
(-0.000477874 2.69473e-05 -0.00374368)
(-0.000785529 -0.000155604 -0.00374615)
(-0.000276586 -0.000186221 -0.00373866)
(-0.000226817 -2.10205e-05 -0.00377629)
(-0.000242837 4.95269e-05 -0.00370287)
(-0.000107647 2.86766e-05 -0.00364322)
(-4.95769e-05 9.18334e-06 -0.00373038)
(1.12377e-05 -1.72513e-05 -0.00359677)
(-7.38126e-06 4.79573e-06 -0.00366859)
(-4.41043e-05 1.14997e-05 -0.00358957)
(-5.15162e-05 3.37274e-06 -0.00356376)
(-3.18048e-05 6.25871e-07 -0.00352366)
(-5.25468e-05 -2.43378e-06 -0.00349848)
(-9.63755e-05 -8.9411e-06 -0.00349965)
(1.46063e-05 -1.73424e-05 -0.00344073)
(0.000735004 -6.02809e-05 -0.00343767)
(0.000860798 -3.22518e-05 -0.00261381)
(0.000844236 0.000840109 -0.00357097)
(0.000972684 -0.000840421 -0.00316064)
(0.00120382 1.01061e-05 -0.00328971)
(0.00114613 5.43921e-06 -0.00330517)
(0.000895782 -0.000853661 -0.00336612)
(0.000901685 0.000841125 -0.00347817)
(0.000588566 -1.98435e-06 -0.00403031)
(-0.000523331 3.50171e-06 -0.00303772)
(0.000168895 -3.7988e-06 -0.00374281)
(-6.13907e-05 -6.37109e-05 -0.00369464)
(-4.29907e-05 -4.03624e-05 -0.00373429)
(0.000153303 0.000152533 -0.00379053)
(-0.000456235 1.64858e-05 -0.00296974)
(-1.24198e-06 0.000175523 -0.00373079)
(-7.11342e-07 -6.22409e-05 -0.0037429)
(-1.46865e-06 -7.63404e-05 -0.00372532)
(1.30475e-07 6.71302e-08 -0.00403412)
(-0.000288254 0.000281233 -0.0027271)
(-0.000328442 -0.000326962 -0.00274511)
(-0.000325518 0.000328304 -0.00274027)
(-0.000291778 -0.000280153 -0.00273581)
(0.000289262 -0.000283615 -0.00272702)
(-0.000245464 -0.000242413 -0.00271729)
(9.13672e-06 9.06127e-06 -0.00404509)
(0.000327036 0.000325567 -0.00273588)
(-0.0002821 0.000292923 -0.0027329)
(-0.000283234 -0.000292373 -0.00273386)
(9.06721e-06 -8.72208e-06 -0.00404534)
(0.000325821 -0.000328006 -0.00274044)
(-4.83613e-09 -4.48713e-09 -0.00405745)
(7.16282e-08 7.20499e-08 -0.00406854)
(1.64482e-07 2.07566e-05 -0.00405991)
(1.79881e-07 5.85763e-05 -0.00360125)
(-8.64147e-06 5.24042e-05 -0.00359473)
(1.15451e-05 -0.000117457 -0.00334)
(-5.86441e-06 1.63414e-06 -0.00331079)
(-3.21142e-06 -4.75646e-07 -0.00332961)
(-3.33711e-07 2.08554e-06 -0.00336871)
(1.97575e-06 8.5676e-06 -0.00341632)
(4.88134e-06 2.35673e-05 -0.00347011)
(1.93688e-05 1.01597e-05 -0.0032917)
(1.3746e-05 9.03927e-05 -0.00292602)
(5.08251e-06 -7.95431e-05 -0.00340555)
(3.48296e-05 -1.29434e-05 -0.00336678)
(-1.10218e-05 4.69348e-05 -0.00321943)
(0.000210699 0.00110805 -0.00382426)
(-0.000300361 -0.00102273 -0.00383985)
(0.00178761 0.00117867 -0.00440111)
(-0.00186051 -0.00117181 -0.00430292)
(0.00187106 0.00121319 -0.0045772)
(-3.76347e-05 -3.06882e-05 -0.00352877)
(-0.000548547 -0.00107921 -0.00378718)
(-8.3433e-05 2.64836e-05 -0.00321257)
(0.000151181 0.00119325 -0.00392978)
(-1.49114e-05 -5.95344e-06 -0.00345383)
(-3.08685e-05 -5.59576e-05 -0.00366872)
(-1.30179e-05 1.12328e-05 -0.00374364)
(-0.000113203 7.80249e-06 -0.00361269)
(-0.0002308 1.54218e-05 -0.00366894)
(-0.000457414 1.82079e-05 -0.00374449)
(-0.00104596 -1.33859e-05 -0.00395328)
(-0.00107007 -0.000185265 -0.00390483)
(-0.00264497 0.000634921 -0.00385244)
(-0.00123297 -0.000285133 -0.00362375)
(-0.00107603 -0.00120431 -0.0034605)
(-3.53047e-05 -0.000155366 -0.00350555)
(-0.000423707 -0.000151378 -0.00366575)
(0.000337483 -0.00240841 -0.00291105)
(-0.00215402 -0.000665558 -0.00320056)
(-0.00128966 8.50121e-05 -0.00435804)
(-0.000605449 -0.000975669 -0.00394545)
(0.00097247 0.000719735 -0.00410347)
(7.8235e-05 3.33202e-05 -0.00421041)
(4.98559e-05 3.9904e-05 -0.00277842)
(-0.00101504 0.000871147 -0.0034746)
(0.00107363 0.000730587 -0.00366278)
(6.35453e-06 0.000101579 -0.00433507)
(-0.0001276 -8.19826e-05 -0.00287747)
(-0.00111446 0.000968002 -0.00361722)
(0.00107873 0.000870012 -0.0036826)
(1.90412e-06 0.000109363 -0.00435596)
(-0.000142119 -9.86766e-05 -0.00288912)
(-0.00108761 0.000878589 -0.00357179)
(0.00107522 0.000991989 -0.00372624)
(9.236e-06 0.000101946 -0.00434052)
(-0.000232474 -0.000226823 -0.00294502)
(-0.00103775 0.000729113 -0.00353018)
(0.000766734 0.00101225 -0.00394717)
(-0.000615072 -0.000351714 -0.0054)
(0.00050677 0.000532885 -0.00405621)
(0.00038442 -0.000464465 -0.00395901)
(0.00113025 0.000496402 -0.00498188)
(-0.000531085 -0.00195883 -0.00483492)
(-0.00030618 -0.00106336 -0.00392752)
(0.000167847 0.000190142 -0.00296184)
(0.000676654 -0.000483581 -0.00425644)
(-0.00219932 0.00104102 -0.00397807)
(-0.000121082 -6.30485e-05 -0.00370742)
(-0.00128684 -0.00170489 -0.00376972)
(0.00113207 0.000906594 -0.00376652)
(0.00104717 -1.80337e-05 -0.00284934)
(0.000995696 -0.00107608 -0.00388884)
(0.00125082 -0.00106443 -0.00437405)
(0.000600043 -0.00154574 -0.00311823)
(0.000132709 0.000638538 -0.00412659)
(0.000480521 -0.000846289 -0.00318687)
(0.000724356 -0.000544226 -0.00330455)
(0.00119187 0.00093596 -0.00444316)
(-0.000542807 -0.00191606 -0.00417807)
(0.000113689 -0.000220301 -0.00336291)
(0.000868057 0.00133749 -0.0043839)
(-0.00073304 -0.00162636 -0.00421886)
(1.46332e-06 -4.7161e-05 -0.00338664)
(0.000745122 0.00140482 -0.00427431)
(-0.000742386 -0.00146201 -0.0041932)
(-8.86184e-06 -1.71856e-06 -0.00333581)
(0.000709924 0.00139094 -0.00418692)
(-0.000714195 -0.00138621 -0.00413809)
(-5.01839e-06 2.88715e-06 -0.00328857)
(0.000694268 0.00136311 -0.00411467)
(-0.000696902 -0.00135287 -0.00408311)
(-4.36058e-06 4.17137e-06 -0.00324126)
(0.000682595 0.0013442 -0.00405949)
(-0.000693503 -0.00133385 -0.0040348)
(-9.49316e-06 1.78276e-05 -0.00321121)
(0.000652354 0.001337 -0.00401029)
(-0.000726116 -0.00131361 -0.00400038)
(-5.70418e-05 7.94463e-05 -0.00313151)
(0.000549616 0.00136869 -0.00396779)
(-0.00083663 -0.0011703 -0.00391971)
(-0.000311301 0.000328363 -0.00303782)
(-1.27364e-05 0.0011341 -0.00376799)
(-0.0011247 -0.000632151 -0.00319428)
(-0.000696319 0.00120144 -0.00367448)
(0.000406324 0.00135706 -0.00347903)
(-0.00110923 -0.00168422 -0.00371654)
(0.00122934 0.00144039 -0.00433269)
(-0.00130815 -0.0016972 -0.00424312)
(3.68435e-05 4.01451e-05 -0.00317925)
(-0.00136746 0.000847779 -0.00410958)
(0.0014081 -0.00129446 -0.00313614)
(-2.12916e-05 0.000584124 -0.00393293)
(-0.000811176 0.0006769 -0.00360684)
(5.18186e-05 0.00073275 -0.00259899)
(0.000799517 0.000972227 -0.00333322)
(-0.00079087 0.000836153 -0.00345218)
(2.83532e-06 0.000587895 -0.00402099)
(4.69751e-06 0.00113291 -0.00329483)
(1.38735e-06 0.000674983 -0.00345977)
(1.12923e-06 -7.35988e-06 -0.00347031)
(1.75162e-06 -0.000102446 -0.00352346)
(1.66415e-06 -6.12477e-05 -0.0035208)
(8.54993e-07 -4.07494e-05 -0.00352969)
(1.59417e-06 -2.9025e-05 -0.00355722)
(3.69623e-06 -5.17576e-05 -0.0035991)
(2.11966e-06 -3.00308e-05 -0.00335954)
(1.36504e-05 1.98354e-06 -0.00325973)
(1.01408e-06 1.94315e-05 -0.00312842)
(0.000224988 0.00104186 -0.0037774)
(-0.000236319 -0.00101947 -0.00381049)
(-5.91928e-06 -1.54141e-06 -0.00337545)
(-8.84643e-07 3.96769e-07 -0.00331621)
(1.3015e-05 -2.105e-06 -0.0035359)