/*--------------------------------*- C++ -*----------------------------------*\
| =========                 |                                                 |
| \\      /  F ield         | OpenFOAM: The Open Source CFD Toolbox           |
|  \\    /   O peration     | Version:  2306                                  |
|   \\  /    A nd           | Website:  www.openfoam.com                      |
|    \\/     M anipulation  |                                                 |
\*---------------------------------------------------------------------------*/
FoamFile
{
    version     2.0;
    format      ascii;
    arch        "LSB;label=32;scalar=64";
    class       volScalarField;
    location    "0.6";
    object      gradTz;
}
// * * * * * * * * * * * * * * * * * * * * * * * * * * * * * * * * * * * * * //

dimensions      [0 -1 0 1 0 0 0];

internalField   nonuniform List<scalar> 
5322
(
-0.861136
-0.870207
-0.883609
-0.957683
-0.93303
-0.914288
-0.899126
-0.887566
-0.880231
-0.880179
-0.865928
-0.86686
-0.651934
-0.899037
-0.983266
-0.785483
-0.928397
-0.695584
-0.980338
-0.991513
-1.00144
-1.00071
-1.00662
-1.01711
-1.02407
-1.02483
-1.03361
-1.04595
-1.056
-1.05917
-1.06958
-1.08067
-1.08441
-1.07593
-1.0327
-0.853585
-0.974705
-0.99012
-1.02186
-0.722597
-0.949952
-0.980391
-0.709518
-0.981737
-0.972107
-0.721388
-0.995415
-0.939747
-0.712009
-0.973917
-1.09302
-0.77978
-1.06406
-0.993752
-0.927315
-0.944391
-1.12512
-0.929411
-0.936274
-0.945064
-1.13864
-0.941933
-0.936603
-0.921778
-1.13793
-0.9738
-0.93226
-0.875583
-1.11146
-1.03439
-0.772582
-1.19812
-1.141
-1.12471
-1.13654
-1.13102
-1.13041
-1.12654
-1.14151
-1.08163
-1.03096
-0.796268
-0.825408
-1.11041
-0.75359
-1.00477
-1.36583
-0.839446
-0.858647
-0.768945
-0.970212
-0.850904
-0.897676
-0.891032
-1.08702
-0.949703
-0.942231
-0.963246
-1.38992
-0.81677
-0.823911
-0.781341
-0.970577
-1.07431
-1.16905
-0.914609
-0.969502
-0.962426
-0.941774
-0.926702
-0.912394
-0.899582
-0.888529
-0.884254
-1.01297
-1.00161
-0.70116
-0.759655
-1.01273
-0.83716
-0.741835
-0.902012
-0.889375
-1.25285
-0.933355
-1.22676
-0.88092
-0.919845
-1.20569
-0.87721
-0.900281
-1.21659
-0.890802
-0.883524
-1.22216
-0.903396
-0.889001
-1.25486
-0.934072
-1.22689
-0.883134
-0.744366
-0.837257
-0.749029
-0.702467
-1.01287
-0.759698
-0.754375
-0.693159
-0.697736
-1.01094
-0.755404
-0.752489
-0.693565
-0.69939
-1.01067
-0.756906
-0.748667
-0.744099
-0.983129
-0.784333
-0.929622
-1.08298
-1.06103
-0.672164
-0.98054
-0.695656
-0.941581
-0.644225
-0.871098
-0.900134
-0.836171
-0.866643
-1.00523
-0.827425
-1.02083
-1.01367
-0.981404
-0.819061
-0.979715
-1.00623
-1.00828
-1.00315
-0.837457
-1.00431
-1.01254
-1.01381
-1.01599
-0.848773
-1.01693
-1.02475
-1.02563
-1.02958
-0.860834
-1.03091
-1.04026
-1.04163
-1.04451
-0.874875
-1.04666
-1.05871
-1.06108
-1.06067
-0.89047
-1.06378
-1.07768
-1.08134
-1.07903
-0.904043
-1.08349
-1.07909
-1.08259
-0.961118
-1.39063
-0.81703
-0.81417
-0.784017
-1.10141
-1.09843
-0.897746
-0.891334
-1.08375
-0.957273
-0.93093
-0.96977
-1.38602
-0.821476
-0.81395
-0.785499
-0.95758
-1.08038
-0.941847
-0.951965
-0.96075
-0.941637
-0.927142
-0.912789
-0.899823
-0.888632
-0.884232
-1.01293
-1.00187
-0.69809
-0.695942
-0.695404
-0.698042
-1.01055
-0.752432
-0.756647
-0.761
-0.900056
-1.26497
-0.752641
-1.01059
-0.756421
-1.25787
-0.917122
-1.20167
-0.876599
-0.761185
-0.899983
-1.20193
-0.641807
-0.862464
-0.827935
-0.826979
-0.866915
-1.01294
-0.981578
-1.00769
-1.00318
-1.01353
-1.01589
-1.02557
-1.02951
-1.0418
-1.04444
-1.06164
-1.06036
-1.08258
-1.07792
-1.08943
-0.948852
-1.39014
-0.966985
-0.941902
-1.07659
-1.08611
-0.904526
-1.07736
-1.06511
-0.890894
-1.05918
-1.04719
-0.875174
-1.04091
-1.03101
-0.861004
-1.02541
-1.01675
-0.848841
-1.01341
-1.00374
-0.837447
-1.00763
-0.978666
-0.81884
-1.02222
-0.837679
-1.02108
-0.979761
-0.818846
-1.01397
-0.866705
-1.00501
-0.834364
-0.649627
-0.902087
-0.785659
-1.02547
-0.983517
-1.00578
-1.00896
-1.01298
-1.01961
-1.02639
-1.03232
-1.04326
-1.04679
-1.06495
-1.0592
-1.08992
-1.06787
-1.09245
-0.954131
-1.37029
-1.00785
-0.907998
-1.16049
-1.16673
-0.875534
-1.15851
-1.14247
-0.862711
-1.13658
-1.1212
-0.846502
-1.11475
-1.10323
-0.832506
-1.09795
-1.08936
-0.821247
-1.08529
-1.07775
-0.811475
-1.07972
-1.06139
-0.794813
-1.08282
-0.929455
-0.982811
-0.870804
-0.919806
-0.802687
-0.944644
-0.642409
-0.733208
-0.834571
-0.766232
-1.04933
-1.02436
-0.986919
-0.980316
-0.816795
-1.01418
-1.02896
-0.797512
-1.00926
-0.887058
-0.844319
-0.82985
-1.22133
-0.985058
-0.933917
-1.25404
-0.900273
-0.839381
-0.856572
-0.832479
-1.02217
-0.978652
-0.830054
-1.00834
-1.00373
-1.01395
-1.01679
-0.841526
-1.02624
-1.03046
-1.04249
-1.04534
-0.864903
-1.06204
-1.06104
-1.08174
-1.07976
-0.892248
-0.898655
-0.883365
-0.883503
-0.869674
-0.866549
-1.06556
-1.06119
-0.889284
-1.07045
-1.07006
-1.08769
-1.07411
-0.901188
-1.0948
-1.06182
-1.18348
-0.916686
-1.3618
-0.831467
-0.794916
-0.804201
-1.06158
-0.845204
-0.753562
-1.09654
-0.730363
-1.04592
-1.0729
-0.715429
-1.04773
-1.04777
-0.701508
-1.03822
-1.03181
-0.690612
-1.02009
-1.01178
-0.682335
-1.0117
-1.00101
-0.676808
-1.00027
-0.986224
-0.671735
-0.985519
-0.754431
-0.727349
-0.907085
-0.792774
-0.884648
-0.92066
-1.02665
-1.0415
-1.03741
-1.04919
-1.01747
-1.01958
-0.847053
-1.01567
-1.01506
-1.00761
-0.836291
-1.00455
-0.835082
-0.790248
-0.78641
-0.699017
-0.815327
-0.791081
-0.758858
-0.884853
-0.878674
-0.865428
-0.871914
-0.67664
-1.10281
-0.610893
-0.820656
-0.872158
-0.854231
-0.863434
-0.892228
-0.87898
-0.886218
-0.903712
-0.871893
-0.928345
-0.818165
-0.923552
-0.93294
-1.05419
-1.06016
-1.07246
-1.07381
-1.04933
-1.04736
-0.873426
-1.04191
-1.04456
-1.03274
-0.859087
-1.03219
-0.85429
-0.810285
-0.798941
-0.709637
-0.828648
-0.819399
-0.784425
-0.819232
-0.791992
-0.760387
-0.911347
-0.809278
-0.702419
-0.882408
-0.883214
-0.869151
-0.867448
-0.818802
-0.794572
-0.790311
-0.693893
-0.866953
-0.855743
-0.981032
-0.828779
-1.00847
-1.00673
-1.00455
-0.837591
-1.0029
-0.831737
-1.01398
-1.01299
-1.01704
-0.849074
-1.01615
-0.839773
-1.02566
-1.02574
-1.03051
-0.861356
-1.03046
-0.850579
-1.04133
-1.04234
-1.04528
-0.875665
-1.04651
-0.86302
-1.05954
-1.06264
-1.06033
-0.891384
-1.06456
-0.876377
-1.07646
-1.08383
-1.07735
-0.904252
-1.08515
-0.888069
-1.07629
-1.08661
-0.959602
-0.940214
-0.959778
-0.788979
-0.817306
-0.785669
-0.741219
-1.05791
-0.748836
-1.0073
-0.823212
-0.788741
-1.02518
-1.04931
-0.886503
-0.93592
-0.936536
-0.934664
-0.944074
-0.925718
-0.910805
-0.932595
-0.899192
-0.917148
-0.897393
-0.89094
-0.880915
-0.874619
-0.874911
-0.860182
-0.859417
-0.653452
-0.892743
-0.790161
-0.822426
-0.826292
-0.841529
-0.869543
-1.00758
-0.75943
-0.935702
-0.923661
-0.933574
-0.947632
-0.742434
-0.932696
-0.935725
-0.93133
-1.00853
-0.681776
-0.686277
-0.685067
-0.683951
-0.681756
-0.679322
-1.01127
-0.68397
-0.683226
-0.683465
-1.01133
-0.68511
-1.01436
-1.01714
-1.01498
-0.900313
-0.898682
-0.834999
-0.827698
-0.832404
-0.842177
-0.854079
-0.867528
-0.822924
-0.731505
-0.851387
-0.841694
-0.804857
-0.956065
-0.959963
-1.10028
-1.07573
-1.1443
-0.882193
-0.946795
-0.803141
-0.982444
-0.863457
-0.917181
-0.935909
-0.903172
-0.917234
-0.936123
-0.98832
-0.976207
-0.96311
-0.905938
-0.865126
-0.876387
-0.916437
-0.727763
-0.800141
-1.08951
-0.986363
-1.02587
-1.0526
-0.694606
-0.868649
-0.915696
-1.08377
-0.719368
-0.904304
-0.92065
-1.08899
-0.722281
-0.892949
-0.931561
-1.08513
-0.736255
-0.882546
-0.986792
-1.35
-1.01405
-0.989752
-1.24547
-1.20873
-0.98188
-0.740461
-1.06411
-0.994516
-0.926855
-0.942429
-0.94163
-0.712335
-0.97221
-1.09351
-0.779557
-1.03165
-0.796717
-0.826138
-1.11079
-1.04452
-0.840728
-1.09598
-1.05471
-0.84666
-1.06858
-1.0483
-0.833952
-1.04673
-1.03452
-0.822143
-1.02867
-1.02078
-0.810314
-1.01487
-1.0087
-0.802802
-1.00257
-1.0001
-0.782877
-0.991947
-0.979928
-0.759455
-0.941997
-0.798571
-0.91862
-0.869758
-0.929136
-1.08317
-1.06078
-0.794812
-1.02739
-0.784035
-0.983232
-0.90171
-0.649748
-0.833306
-0.863046
-1.00525
-0.823709
-0.864943
-0.867577
-0.880866
-0.8802
-0.882422
-0.889304
-0.899775
-0.839885
-0.814932
-0.782105
-0.944351
-0.952624
-0.843862
-0.829052
-0.883976
-0.898928
-1.02663
-1.0278
-0.843152
-1.01651
-1.02507
-0.861529
-1.03066
-1.04067
-0.875729
-1.04649
-1.05903
-0.891175
-1.06349
-1.07722
-0.903964
-1.08143
-0.948795
-0.957794
-0.956257
-0.961539
-0.941223
-0.918861
-0.904068
-0.89172
-0.881846
-0.875601
-0.875977
-0.862902
-0.862219
-0.649518
-0.863044
-0.823304
-0.865888
-0.866508
-0.880496
-0.879986
-0.886631
-0.89685
-0.909374
-0.924145
-0.944546
-1.00458
-0.998773
-0.73732
-1.3246
-0.996119
-0.956007
-0.921829
-1.08894
-0.723491
-0.725273
-0.79326
-1.13426
-0.756212
-0.767632
-0.7825
-1.14071
-0.759665
-0.771064
-0.775887
-1.13619
-0.776241
-0.789583
-0.858486
-1.43448
-1.02757
-1.00317
-1.00792
-0.998889
-0.84173
-0.808693
-0.86168
-1.42918
-0.852469
-0.856993
-1.13789
-0.94347
-0.936076
-0.920843
-0.986379
-0.709029
-0.976407
-0.977127
-0.722903
-0.991609
-0.931899
-0.93571
-0.941751
-1.13205
-1.12827
-1.1383
-1.12288
-0.936637
-0.887797
-0.966425
-1.13968
-0.957281
-0.72968
-1.0168
-0.892366
-0.728546
-1.21614
-0.669633
-0.919987
-0.802858
-0.981548
-0.979328
-0.814024
-0.992295
-0.9745
-0.821781
-0.968343
-0.966481
-0.791319
-0.958304
-0.943825
-0.797807
-0.935864
-0.938392
-0.766464
-0.931151
-0.920265
-0.776444
-0.911023
-0.920788
-0.749563
-0.893812
-0.897955
-0.729094
-0.83506
-0.60865
-1.09902
-0.790844
-0.677348
-1.25437
-0.889648
-0.933502
-1.22538
-0.882211
-0.91818
-1.20429
-0.876012
-0.901518
-1.21642
-0.893031
-0.881115
-1.2214
-0.655353
-0.840567
-1.00804
-0.829889
-0.838116
-1.0199
-0.818875
-0.979676
-0.980152
-0.82874
-1.00612
-0.811389
-1.00767
-1.0774
-0.702639
-1.08536
-0.68149
-1.08837
-0.709515
-1.09629
-0.689591
-1.10337
-0.719217
-1.11221
-0.699984
-1.12051
-0.730952
-1.13009
-0.712281
-1.14187
-0.744842
-1.15066
-0.726308
-1.16679
-0.760499
-1.16187
-0.738514
-0.870037
-1.1094
-1.08352
-0.907106
-1.11658
-0.867595
-1.10639
-1.07389
-0.886025
-1.09614
-0.852917
-1.08545
-1.05644
-0.869391
-1.07624
-0.83861
-1.06858
-1.03977
-0.855106
-1.06091
-0.826217
-1.05209
-1.02569
-0.843872
-1.0464
-0.816196
-1.04052
-1.01509
-0.835683
-1.0382
-0.807946
-1.03068
-1.01042
-0.833796
-1.01797
-0.792434
-1.0546
-1.01384
-0.844396
-0.762934
-0.732508
-0.643186
-0.871061
-0.919809
-0.798709
-0.942278
-0.757363
-0.787841
-0.796839
-0.820662
-0.824268
-0.860662
-1.00561
-0.827715
-0.86482
-0.835018
-1.02555
-0.795188
-1.06056
-0.699163
-1.07945
-0.676154
-0.883114
-0.868422
-0.857546
-1.01465
-0.898776
-1.25692
-0.756623
-1.01058
-0.752853
-0.760029
-0.934622
-0.930133
-0.92289
-0.930758
-0.936426
-1.26458
-0.899748
-0.837962
-0.828727
-0.829868
-0.832231
-1.00963
-1.01097
-0.833477
-0.876296
-0.863712
-0.858323
-1.01347
-0.819275
-0.981341
-1.00674
-0.837751
-1.00365
-1.01309
-0.849262
-0.91983
-0.834482
-0.835247
-0.844263
-0.856167
-0.853917
-0.855999
-0.844113
-0.834054
-0.833499
-0.832484
-0.827847
-0.828848
-0.981728
-1.00685
-1.07909
-1.07736
-1.08475
-1.08821
-0.681765
-1.00969
-0.70218
-1.00277
-0.676375
-1.00135
-0.698981
-0.992161
-0.781831
-0.751016
-0.918231
-0.808059
-0.913448
-1.03699
-0.835635
-1.01456
-0.845899
-1.01721
-1.01851
-0.843471
-1.02381
-0.859821
-1.03031
-1.03075
-0.85327
-1.03828
-0.872469
-1.04718
-1.04726
-0.86579
-1.05691
-0.857906
-1.06681
-1.07535
-0.872341
-1.09005
-1.07514
-0.87727
-0.973353
-0.964442
-0.942462
-0.92686
-0.912452
-0.89965
-0.888594
-0.884342
-1.01297
-1.00137
-0.698607
-0.692949
-0.696811
-0.755098
-1.26374
-0.899918
-0.900504
-1.25278
-0.754667
-0.758847
-0.93641
-0.933713
-0.985504
-0.933059
-1.25763
-0.898567
-0.83493
-1.02659
-0.795511
-0.880786
-0.864024
-1.01512
-1.00828
-0.683296
-0.681048
-1.01133
-0.678765
-0.692535
-1.01082
-0.864467
-0.82981
-0.786526
-0.829713
-1.21977
-1.05641
-0.84474
-1.01235
-0.816615
-0.988033
-0.978229
-0.832118
-1.00626
-0.837275
-1.00265
-0.833604
-1.01208
-0.848086
-1.01663
-1.01579
-0.840381
-1.02481
-0.831206
-1.03205
-1.03976
-0.843693
-1.04809
-0.867722
-0.854017
-0.842239
-0.832554
-0.827874
-0.863949
-1.01507
-1.0081
-0.845099
-0.886984
-0.864554
-0.880716
-0.863741
-0.845056
-0.886781
-0.828347
-0.829915
-0.833658
-0.833148
-0.843724
-0.841203
-0.886681
-0.896855
-0.909491
-0.912224
-0.926509
-0.859241
-0.841134
-0.86146
-0.883605
-0.724194
-1.00857
-0.745433
-1.35763
-0.977608
-0.955344
-0.951038
-1.10876
-0.985291
-1.03071
-0.980356
-1.34812
-0.963568
-0.954423
-0.920369
-1.08431
-0.721782
-0.735114
-0.800824
-1.12799
-0.753002
-0.779386
-0.792823
-1.13424
-0.756403
-0.780551
-0.788535
-1.12973
-0.774539
-0.794344
-1.14153
-0.969635
-0.8978
-0.891305
-1.08539
-1.15733
-0.875379
-1.15935
-0.728343
-0.872628
-1.12215
-0.883141
-1.06523
-1.09919
-0.900896
-1.06361
-1.14738
-1.0856
-1.00747
-0.806388
-0.928228
-0.865735
-1.08139
-1.14255
-1.12464
-1.08054
-0.904121
-1.07107
-0.904472
-1.07654
-0.903831
-1.07124
-0.905204
-1.07754
-0.906348
-1.07169
-1.14495
-1.11899
-0.936696
-0.834342
-0.993541
-1.14113
-0.837811
-1.00972
-1.02706
-0.987559
-0.856263
-0.852292
-0.857557
-1.42068
-0.858876
-0.947096
-1.36324
-1.03137
-0.991159
-0.837336
-0.84779
-1.13931
-0.786323
-0.785599
-1.13535
-0.955619
-0.9668
-0.962564
-0.941931
-0.926859
-0.912515
-0.899673
-0.888582
-0.884289
-1.01299
-1.00163
-0.678747
-0.681557
-0.926844
-0.922861
-0.933204
-1.20138
-0.917427
-0.743978
-0.748853
-0.836947
-0.759743
-0.74215
-0.889453
-1.25484
-0.933586
-1.21963
-0.881819
-1.22474
-0.985552
-0.948458
-0.933932
-1.25316
-0.754757
-0.755248
-1.01093
-0.695129
-0.694686
-0.755401
-0.754661
-0.758302
-0.894268
-1.23243
-0.894765
-1.26321
-0.899376
-0.900266
-0.829782
-0.696073
-0.789432
-0.79416
-0.821004
-0.867403
-0.868616
-0.88313
-0.882726
-0.889537
-0.899935
-0.91265
-0.927552
-0.924641
-0.946974
-0.946098
-0.995359
-0.742026
-0.810472
-0.815024
-1.39076
-0.947089
-0.965182
-0.995335
-1.32101
-0.734761
-0.813399
-0.815836
-0.747261
-0.823881
-0.838856
-1.36599
-0.973155
-1.00475
-0.769369
-0.858724
-0.942611
-0.875691
-0.873357
-0.94776
-1.0063
-1.00387
-0.956457
-0.955419
-0.966318
-0.942294
-0.920217
-0.903678
-0.891465
-0.877331
-0.866689
-0.866451
-0.855885
-0.867515
-0.815623
-0.820535
-0.829039
-0.839869
-0.851989
-0.863595
-0.96062
-0.94568
-0.946433
-0.925793
-0.906656
-0.890537
-0.890028
-0.87694
-0.890208
-0.881453
-1.00749
-1.07916
-1.07716
-1.08492
-1.08811
-0.820486
-1.01368
-1.00724
-0.810991
-0.920886
-0.827714
-0.828788
-0.981195
-0.898881
-1.25711
-0.876609
-0.835121
-0.863746
-0.880794
-1.0127
-0.701305
-0.693812
-0.93731
-0.929495
-0.936478
-0.926471
-0.678126
-1.01139
-0.92684
-0.933949
-0.760574
-0.94851
-0.92722
-0.922226
-0.93292
-0.935572
-0.985693
-0.933685
-0.93593
-0.93756
-0.949136
-0.700346
-0.760002
-0.836857
-1.01262
-0.749272
-0.743609
-0.880872
-0.864769
-1.01522
-1.00785
-0.845106
-0.864769
-0.829979
-0.786558
-0.699169
-0.79034
-0.702441
-0.832344
-0.831863
-0.842019
-0.839819
-1.01867
-1.02574
-1.09707
-1.10184
-1.11385
-1.11799
-0.844924
-1.04102
-1.03232
-0.831466
-0.945155
-0.798877
-0.709353
-0.8098
-0.718847
-0.853788
-0.850579
-0.855648
-0.852025
-0.869106
-0.864802
-0.883193
-0.881276
-0.835285
-0.745029
-0.879256
-0.975939
-0.960242
-0.945644
-0.933114
-0.920939
-0.906347
-0.889408
-0.891806
-0.918853
-0.901954
-0.903322
-0.931391
-0.914468
-0.903483
-0.891976
-0.907302
-0.90653
-0.889361
-0.889033
-0.894484
-0.906355
-0.91943
-0.91635
-0.94558
-0.928201
-0.930641
-0.960675
-0.942569
-0.945209
-0.973468
-0.988711
-0.895493
-1.09451
-0.730299
-1.14682
-0.967641
-0.951167
-1.12123
-0.775607
-1.13707
-1.05864
-1.03389
-0.976613
-1.33856
-0.965549
-0.95098
-0.892747
-1.06502
-1.07526
-0.841434
-0.951646
-1.06279
-1.07444
-0.98541
-0.964717
-1.33075
-0.980846
-1.03688
-1.04271
-1.04533
-1.03741
-0.976727
-1.06501
-0.941205
-0.931692
-1.08528
-0.736784
-0.721038
-0.788654
-1.13002
-0.77394
-0.762715
-0.775974
-1.13669
-0.774877
-0.766158
-0.769318
-1.1319
-0.790528
-0.858868
-1.42406
-1.05523
-0.989434
-0.858899
-0.851069
-1.13531
-0.954855
-0.966578
-0.94562
-0.930509
-0.916202
-0.903274
-0.891832
-0.886922
-0.90711
-0.920844
-0.811667
-1.00742
-1.01321
-0.821114
-1.01859
-1.02528
-1.0968
-1.10182
-1.11351
-1.11788
-0.700295
-1.03526
-0.718449
-1.02912
-0.68985
-1.02167
-0.709038
-1.0153
-0.809626
-0.776231
-0.933875
-0.826484
-0.939599
-1.05928
-0.854669
-1.03873
-0.869944
-1.04892
-1.04798
-0.868357
-1.05349
-0.886727
-1.06585
-0.883682
-1.07151
-0.900373
-1.09011
-1.09112
-0.903005
-1.07711
-0.904685
-1.07317
-1.07539
-0.904232
-1.08963
-1.09045
-1.07208
-0.904199
-0.954006
-0.902746
-0.884085
-0.869273
-0.855717
-0.843964
-0.834324
-0.790236
-0.798711
-0.842118
-0.839837
-0.853826
-0.8505
-1.03204
-1.04053
-0.845406
-1.04786
-1.05907
-1.13454
-1.13636
-1.15868
-1.15756
-0.728277
-1.05538
-0.7433
-1.06898
-0.713073
-1.04896
-0.729985
-1.04724
-0.833289
-0.798277
-0.959464
-0.855092
-0.974879
-1.08481
-0.883249
-1.06531
-0.896935
-1.09854
-1.08538
-0.90424
-1.0797
-0.897857
-1.06413
-1.14697
-0.901112
-1.08535
-1.00661
-0.927562
-0.865159
-0.930119
-0.95265
-0.805544
-0.840067
-1.09619
-1.04508
-0.754901
-0.871008
-0.861092
-0.849585
-0.837594
-0.826879
-0.818458
-0.813606
-0.787789
-0.795316
-0.919915
-0.798731
-0.608515
-0.732761
-0.834833
-0.762011
-1.09982
-0.675941
-0.78825
-1.00982
-0.886531
-0.795783
-0.839639
-1.01254
-0.819109
-0.977144
-0.829861
-1.00572
-0.837104
-1.00413
-1.00233
-0.832118
-1.01284
-0.820701
-1.01858
-0.8915
-0.87833
-1.01386
-0.868313
-1.00888
-0.875515
-0.874614
-0.859003
-0.859886
-0.824793
-0.89323
-0.871594
-0.82183
-0.871249
-0.730255
-0.895877
-0.792765
-1.01644
-0.83381
-1.00954
-0.835653
-1.0051
-1.00602
-0.835403
-1.01254
-0.848328
-1.01625
-0.84196
-1.02385
-0.859545
-1.03071
-1.03041
-0.851753
-1.03863
-0.903495
-0.890164
-1.02462
-0.882964
-0.882048
-0.875205
-0.875327
-1.01083
-0.864036
-1.03054
-0.864977
-0.854655
-0.894811
-0.884679
-0.878615
-0.86317
-1.03218
-0.892817
-0.769233
-0.922841
-0.816309
-1.04628
-0.843565
-1.02512
-0.85701
-1.03153
-1.03232
-0.854664
-1.0378
-0.872767
-1.04716
-0.867217
-1.05465
-0.88663
-1.06615
-1.06677
-0.882423
-1.07147
-0.88302
-0.960538
-0.945148
-0.928055
-0.916474
-0.903525
-0.892056
-0.887143
-0.889386
-0.906302
-0.918748
-0.932902
-0.834569
-0.84427
-0.856058
-0.959442
-0.945388
-0.931227
-0.914385
-0.901905
-0.919858
-0.907409
-0.837608
-1.00811
-0.829678
-1.0073
-1.00352
-0.833721
-1.01315
-1.01366
-1.00304
-1.00325
-0.835512
-1.01318
-1.01524
-1.00618
-1.01043
-0.83206
-1.00711
-0.98083
-0.977854
-0.978682
-0.980011
-0.831985
-1.00948
-1.00774
-0.837601
-1.00279
-0.835466
-1.01467
-1.01355
-0.848692
-1.01599
-0.843657
-1.02601
-1.02464
-1.02454
-1.02499
-0.84213
-1.01674
-1.01643
-0.848691
-1.01626
-0.843676
-1.02432
-1.0266
-1.01863
-0.846476
-1.01473
-1.04094
-0.835465
-1.00521
-0.836182
-1.00968
-1.03271
-0.833542
-0.98798
-0.978628
-1.02963
-0.839449
-1.01344
-0.819572
-1.02209
-0.838246
-1.0208
-0.819531
-1.01463
-0.839372
-1.02836
-0.979406
-0.987027
-0.817016
-0.865028
-0.856276
-0.859372
-0.657641
-0.890072
-0.846113
-0.866665
-0.868135
-0.654135
-0.856991
-0.827997
-0.844644
-0.891125
-0.657524
-1.22634
-0.903229
-0.880051
-0.758528
-1.00818
-0.856161
-0.830094
-0.83154
-0.854669
-0.798162
-0.884835
-1.00974
-0.7417
-0.903103
-1.22599
-0.88061
-1.25294
-0.900324
-0.830021
-0.828964
-0.83434
-0.84442
-0.932237
-0.860195
-1.03078
-0.853414
-1.03867
-1.03937
-1.0382
-1.04143
-0.854841
-1.0308
-1.03239
-0.85766
-1.02529
-1.05357
-0.843453
-1.01746
-1.04647
-0.816875
-0.923505
-0.928039
-0.777245
-0.934604
-0.940522
-0.788311
-0.947554
-0.956328
-0.799296
-0.960382
-0.975801
-0.810288
-0.960545
-0.926089
-0.944114
-0.910761
-0.93006
-0.895806
-0.915635
-0.882454
-0.903253
-0.871384
-0.893427
-0.769853
-0.914566
-1.03693
-0.808568
-0.918409
-0.895643
-0.75216
-0.885066
-0.863458
-0.854705
-0.896219
-0.793315
-1.0566
-0.844333
-1.01256
-0.817112
-0.865004
-0.863815
-0.871808
-0.676597
-0.789708
-1.09939
-0.60865
-0.835614
-0.730415
-0.870983
-0.821909
-0.733107
-0.762266
-0.886025
-0.797131
-1.00977
-0.824854
-0.859135
-0.856355
-0.871772
-0.877381
-0.878403
-0.885727
-0.897027
-0.854582
-1.03894
-1.06979
-1.0596
-1.03186
-0.897452
-0.885757
-0.876696
-0.871671
-0.872679
-0.879528
-0.890482
-0.911261
-0.870649
-1.04796
-0.868535
-1.05369
-1.05919
-1.05352
-1.09127
-0.868043
-1.04935
-1.07407
-0.840158
-0.700311
-0.917789
-0.90581
-0.924499
-0.937459
-1.05948
-1.13503
-1.13642
-0.7438
-0.836266
-0.822534
-0.730417
-0.867277
-0.863363
-1.0484
-0.881716
-0.877841
-1.0659
-0.860554
-0.975193
-0.869627
-0.884398
-0.989326
-0.974056
-0.960622
-0.942651
-0.928123
-0.946236
-0.930785
-0.933638
-0.930748
-0.916489
-0.932369
-0.931411
-0.918971
-0.901873
-0.919495
-0.932802
-0.945002
-0.832044
-0.903812
-0.891868
-0.879224
-0.880957
-0.886068
-0.869844
-0.868651
-0.857538
-0.868577
-0.820278
-0.883111
-0.894336
-0.892227
-0.907839
-0.910264
-0.915368
-0.92875
-0.926293
-0.938752
-0.919226
-1.06495
-1.07902
-0.875729
-1.08387
-0.961748
-0.947218
-0.960172
-0.964851
-0.874782
-0.943954
-1.20947
-1.24487
-0.740378
-0.986488
-1.35027
-1.01377
-0.841966
-0.998703
-1.00974
-0.85821
-0.857834
-1.43653
-1.03367
-1.00137
-1.27653
-1.10027
-1.10166
-1.04206
-1.05803
-0.778977
-1.13908
-0.952679
-0.964879
-0.945288
-0.961571
-0.946533
-0.9455
-0.869379
-0.867246
-0.863151
-0.881628
-0.877557
-0.835997
-0.822273
-0.809577
-1.06924
-1.07369
-0.868097
-1.05335
-0.884101
-1.07052
-1.06487
-0.884441
-1.06915
-0.900036
-1.07237
-0.884228
-0.869347
-0.945815
-0.959228
-0.974949
-0.860979
-0.96067
-0.942567
-0.928047
-0.914328
-0.931838
-0.843921
-0.833903
-0.828601
-1.00898
-0.86925
-1.00327
-0.858422
-0.981156
-1.02322
-0.827774
-0.856991
-0.869349
-0.648101
-0.86124
-0.861844
-0.879625
-0.884289
-1.01531
-0.879455
-0.870995
-0.927174
-0.902581
-0.886732
-0.881992
-1.05305
-0.914909
-0.787362
-0.946695
-0.839409
-0.955374
-0.895283
-0.929299
-0.9125
-0.898041
-0.895896
-1.0265
-0.891671
-1.025
-0.893085
-0.909636
-1.04121
-0.905096
-1.04707
-0.90771
-0.925177
-1.05882
-0.910253
-1.09068
-0.943394
-0.809292
-0.959673
-0.871947
-1.12161
-0.925703
-0.929994
-0.952208
-0.955401
-0.932956
-0.880837
-0.927692
-0.907635
-0.949777
-0.941688
-1.07779
-0.925951
-0.949877
-0.954791
-0.949469
-0.925975
-0.946036
-0.934278
-0.91946
-1.06649
-1.05561
-0.909247
-0.894195
-0.928098
-0.952678
-0.958449
-0.955655
-0.926108
-0.945612
-0.933282
-0.917977
-1.05481
-0.931558
-0.916117
-0.902615
-0.826812
-0.81835
-0.81335
-0.779507
-0.810571
-0.838394
-0.851789
-0.867403
-0.948478
-0.955427
-0.962128
-0.968913
-0.919633
-0.719151
-0.804581
-0.90532
-0.954806
-0.952752
-0.9479
-0.924316
-0.905468
-0.890329
-0.879109
-0.872198
-0.871401
-0.870211
-0.856369
-0.860398
-0.860417
-0.827861
-1.00819
-0.824469
-0.872144
-0.863545
-0.877
-0.877043
-0.836196
-1.00471
-1.0067
-0.834636
-0.907404
-0.889365
-0.845158
-0.906411
-0.920978
-0.786761
-0.829873
-1.21987
-1.08354
-0.671612
-0.790532
-0.932994
-0.919848
-0.901858
-0.918801
-0.931132
-0.914311
-0.932222
-0.844342
-0.856157
-0.856303
-0.869866
-0.961441
-0.887142
-1.056
-0.867313
-1.05461
-1.06741
-0.88372
-1.07057
-1.07307
-1.06529
-1.06735
-0.88452
-1.0689
-1.07831
-1.06462
-0.884839
-1.07105
-1.0852
-0.855903
-0.713138
-0.926812
-0.911465
-0.928912
-0.950931
-0.953082
-0.930183
-0.932841
-0.880888
-0.954141
-0.927757
-0.907324
-0.950716
-0.943177
-0.923175
-0.905046
-0.922218
-0.907868
-1.04773
-1.04702
-1.04799
-1.04712
-0.869121
-1.05704
-1.05519
-0.887266
-1.06615
-0.885893
-1.07404
-1.0722
-0.900858
-1.08929
-1.09388
-1.09127
-0.89905
-0.990582
-0.97599
-0.945868
-0.94816
-0.955002
-0.964799
-0.898541
-0.892363
-1.1005
-0.785589
-0.723921
-1.13727
-1.05724
-1.06208
-0.977031
-1.03852
-1.04578
-1.05631
-0.766325
-1.12725
-0.929825
-1.12735
-1.13315
-1.12752
-1.12725
-1.09985
-0.882114
-1.04196
-1.33135
-0.748792
-0.984844
-1.11243
-1.03681
-1.10088
-1.02545
-0.99002
-1.29267
-1.07877
-0.794198
-0.860817
-1.42998
-0.853299
-1.13395
-0.79123
-1.13368
-0.93135
-0.968014
-0.955582
-0.974071
-0.974282
-0.989101
-0.974942
-0.961027
-0.97496
-0.956297
-0.942749
-0.961637
-0.946252
-0.959421
-0.869872
-0.885195
-0.88467
-0.975281
-0.90293
-0.85111
-0.755344
-1.16995
-0.753734
-0.964285
-1.07308
-0.913946
-0.958752
-0.970136
-1.09966
-0.782149
-0.72063
-1.13925
-0.952627
-0.931409
-1.12718
-0.762506
-1.1293
-1.05686
-1.05751
-1.06405
-0.942875
-1.0416
-1.33052
-0.984699
-1.03709
-1.04224
-1.04358
-1.04727
-1.05677
-0.771037
-1.12927
-1.07475
-1.04415
-1.0731
-1.0575
-0.767435
-1.13137
-0.932954
-1.1337
-1.1334
-1.00813
-0.902876
-0.903338
-1.00817
-1.00357
-0.857052
-0.905143
-0.903612
-0.954227
-1.00321
-1.00732
-1.00949
-0.927162
-1.16862
-0.935989
-0.926734
-0.930361
-0.912008
-0.896905
-0.885396
-0.877978
-0.88616
-1.01891
-1.01723
-0.846543
-0.79923
-0.945185
-0.857637
-1.0314
-1.03294
-0.855017
-1.04051
-1.03881
-1.03046
-0.860187
-1.0312
-0.894473
-0.87829
-0.871368
-0.882223
-0.882352
-0.871802
-0.894382
-0.889334
-0.904319
-0.923042
-0.9368
-1.09161
-1.08815
-1.09201
-0.936944
-0.922195
-0.907887
-0.873151
-0.911103
-1.04945
-1.0482
-0.870539
-0.823385
-0.810129
-0.975414
-0.884954
-1.06768
-1.06891
-0.926014
-0.910585
-0.895523
-0.882327
-0.871382
-0.863337
-0.85441
-0.821694
-0.871089
-0.885311
-0.894021
-0.903352
-0.897687
-0.916274
-0.930655
-0.947668
-0.942066
-0.951972
-0.901315
-0.948484
-0.946674
-0.946741
-0.951728
-0.948163
-0.925396
-0.947847
-0.951956
-0.947857
-0.928693
-0.951289
-0.96022
-0.92456
-0.956224
-0.838278
-0.900355
-1.0846
-0.897574
-0.961855
-0.958903
-1.13381
-1.07552
-1.07865
-1.11219
-1.02515
-1.10051
-1.10165
-1.10019
-1.0759
-1.04156
-1.09734
-1.29132
-1.09456
-1.10277
-1.18207
-1.15343
-1.29793
-1.29907
-1.27892
-1.29511
-1.29308
-0.943668
-0.947084
-0.955656
-1.14154
-0.809365
-0.943601
-0.98217
-0.873154
-0.898319
-1.1248
-0.855776
-1.03921
-0.85755
-0.823118
-0.833052
-0.79704
-0.846018
-0.821511
-1.04044
-1.01597
-1.01393
-0.875968
-1.29314
-1.07903
-0.902256
-0.689801
-0.827146
-0.644205
-1.01632
-0.672142
-0.676241
-0.681659
-0.802578
-0.759194
-0.83194
-0.889338
-0.947945
-0.940138
-0.748887
-0.879329
-1.01089
-0.693769
-0.932985
-0.746198
-0.982109
-0.852215
-0.837858
-0.846303
-0.833749
-0.650417
-0.879261
-0.880439
-0.843054
-0.719378
-0.822973
-1.05858
-0.866804
0.870775
0.862056
0.875849
0.869992
0.871615
0.879017
0.890592
0.9059
0.924765
0.94828
0.951176
0.956243
0.717432
1.00762
1.13936
0.891002
0.990735
0.935843
1.16695
0.869771
1.11026
0.977278
0.81583
0.991712
0.975239
0.815217
0.972919
0.961601
0.802238
0.956027
0.9467
0.78594
0.941703
0.932485
0.776483
0.926798
0.923345
0.76691
0.912446
0.918722
0.751608
0.892339
0.89664
0.729468
0.833509
0.607757
1.09772
0.676788
0.789738
0.889461
0.658632
0.844684
0.869409
0.656098
0.862886
0.861262
0.660984
0.87251
0.83629
0.655326
0.863508
1.03693
0.719487
0.963933
0.909032
0.838008
0.841658
0.996949
0.833876
0.838738
0.838013
1.0052
0.839663
0.837345
0.823231
1.00641
0.855512
0.838364
0.794385
1.00844
0.883371
0.843321
0.760765
0.730895
0.641799
0.79725
0.940386
0.979088
0.990071
0.999413
1.00124
1.0082
1.01346
1.01987
1.02815
1.03592
1.04403
1.05323
1.06239
1.07062
1.08033
1.08365
1.07614
1.0325
0.853451
0.972417
0.988788
1.01934
0.947758
0.717683
1.28919
0.994513
1.05337
0.990796
1.02891
1.15347
1.18072
1.0985
1.04705
1.05123
1.04762
1.09839
1.28939
1.05331
0.838975
0.846778
0.946056
0.85909
0.839352
1.00728
1.29983
1.0288
1.36261
0.990657
1.15346
0.972227
0.988841
1.03474
1.19699
1.1621
0.877323
1.14055
0.876619
1.10955
1.01991
0.717065
0.946825
0.972287
1.12509
1.07748
1.09165
1.07252
1.06749
1.0558
1.04858
1.03857
1.03343
1.02218
1.02189
1.00766
1.01228
0.996646
0.991193
0.855057
1.23866
0.869022
0.852955
0.980457
1.00265
0.840858
1.00818
1.01088
0.851782
1.0206
1.02328
0.862121
1.03449
1.03768
0.874324
1.05068
1.0543
0.887996
1.06851
1.07213
0.901349
1.09114
1.07469
0.905025
1.13479
0.927551
1.13635
0.976118
0.706408
0.982604
0.931923
1.13874
0.952727
0.716178
1.01147
0.890757
1.14379
1.07443
1.09277
1.07914
1.06551
1.06628
1.04259
1.05174
1.03046
1.02283
1.02192
1.00831
1.01366
0.990461
0.999248
0.861113
1.24273
0.894114
0.845463
0.946144
1.08908
0.812815
1.07857
1.08152
0.821678
1.08861
1.09458
0.831741
1.11712
1.01252
0.872619
1.07101
1.04377
0.886413
1.07754
1.0702
0.899728
1.09464
1.08238
0.901099
1.12003
0.992995
1.13932
0.892545
0.729559
1.2171
0.838247
1.16524
1.11377
0.870347
0.987857
0.919938
0.805539
0.670504
0.8556
0.719721
1.03393
1.08006
0.738972
1.16333
1.07619
0.876497
1.19639
1.14134
0.876235
1.10934
1.036
0.771274
0.926784
1.36334
0.99046
1.15337
1.02895
1.29989
1.0076
0.83972
0.946293
0.85908
0.794646
1.13935
0.846761
0.857174
0.789777
0.786888
1.13573
0.852047
0.851507
0.786092
0.789949
1.13566
0.857703
0.846366
0.793279
0.859392
1.13908
0.946061
0.839106
1.02859
1.00723
1.30036
1.02901
1.15339
0.989678
1.05368
1.28682
0.997969
1.02373
1.27515
1.02302
0.998721
1.28642
1.05328
0.839299
1.08844
1.18001
1.09847
1.42461
1.00809
0.931881
0.973609
0.929921
1.13586
1.07538
1.07521
1.07841
0.904915
1.13632
1.12442
0.974497
1.13691
0.928619
0.935917
1.01005
1.43734
1.10219
1.09852
1.42421
1.00808
0.931808
0.874914
1.03625
1.19662
1.16266
0.738858
1.077
0.771739
1.03215
0.720057
0.987693
1.10942
1.02345
0.942509
0.980098
0.979031
1.13681
0.94345
1.02244
0.988005
0.97134
0.856585
0.87259
0.826726
0.797369
0.958404
0.904398
0.959605
0.956923
0.95519
0.962097
0.824923
0.973175
0.992124
1.11337
1.11415
1.08362
1.11031
0.849456
0.988534
0.976639
0.867662
0.726509
1.06995
1.07092
0.710812
1.12955
1.05912
0.856877
1.13828
1.06591
1.07702
0.871649
1.15163
0.744802
0.838986
0.857021
0.907476
0.76059
1.08062
0.859269
1.07939
0.887444
0.872481
0.845021
0.812326
0.949921
0.928471
0.936187
0.950512
0.955881
0.958157
0.922425
0.928202
0.961815
0.936281
1.1251
1.13601
1.07442
0.90538
1.0768
0.907186
1.09171
1.09196
1.07393
0.901851
1.07064
0.886643
1.07075
1.06679
1.05811
0.888704
1.05121
0.869396
1.05392