/*--------------------------------*- C++ -*----------------------------------*\
| =========                 |                                                 |
| \\      /  F ield         | OpenFOAM: The Open Source CFD Toolbox           |
|  \\    /   O peration     | Version:  2306                                  |
|   \\  /    A nd           | Website:  www.openfoam.com                      |
|    \\/     M anipulation  |                                                 |
\*---------------------------------------------------------------------------*/
FoamFile
{
    version     2.0;
    format      ascii;
    arch        "LSB;label=32;scalar=64";
    class       volScalarField;
    location    "0.6";
    object      gradTy;
}
// * * * * * * * * * * * * * * * * * * * * * * * * * * * * * * * * * * * * * //

dimensions      [0 -1 0 1 0 0 0];

internalField   nonuniform List<scalar> 
5322
(
0.041576
0.00601419
0.00227395
0.00194186
0.00164755
0.00100968
0.000481482
0.000191285
6.58071e-05
1.97041e-05
4.2141e-06
-2.53813e-06
-1.28964e-06
-1.40459e-06
-1.6114e-06
5.35348e-06
6.26788e-06
1.7333e-07
7.58304e-06
-2.2027e-05
3.50354e-05
-8.29416e-05
0.000132106
-0.000288065
0.000452368
-0.000862161
0.00127683
-0.00231767
0.00328089
-0.00526364
0.00706724
-0.0105069
0.0137461
-0.0159486
0.0177493
-0.0115679
0.0237969
0.0281569
0.0144205
0.016758
0.0208256
0.0175937
0.0194638
0.0194883
0.0185917
0.0198488
0.0188961
0.020206
0.0202447
0.01804
0.0229175
0.00940877
0.0115592
-0.0332881
-0.00143492
-0.0189232
0.0109729
-0.0244775
-0.000925449
-0.0212243
0.0111343
-0.0240085
-0.000814635
-0.0210792
0.0111952
-0.0249593
-0.00123408
-0.0205471
0.0114264
-0.0283266
0.00066039
0.0189858
0.0104603
0.0147606
0.0108965
0.0139208
0.0115352
0.0138995
0.0118706
0.0169335
0.000845645
0.00786254
0.0111009
0.0167274
-0.000780015
-0.00496231
0.00248104
0.00453984
0.0112286
0.00186435
0.00303431
0.000459754
5.05301e-05
3.66222e-05
0.0166145
-0.0105909
0.000360386
0.0106872
0.000363479
-0.00103268
0.00262741
0.000402496
0.0115809
-0.0161466
0.0144954
0.000541038
-0.000408258
-3.64272e-05
1.56233e-05
3.02006e-05
2.10764e-05
1.08031e-05
4.49971e-06
1.52732e-06
5.45625e-07
1.85009e-07
1.99649e-06
-1.9677e-07
-3.00829e-07
-6.48556e-07
1.46821e-06
-1.18662e-07
-6.25991e-07
-1.12808e-06
-1.0758e-06
2.19823e-08
1.11283e-06
-6.51818e-07
1.36472e-07
8.82765e-07
-8.17633e-07
3.93173e-08
8.57005e-07
-9.42308e-07
-9.67175e-08
7.08717e-07
-9.88548e-07
-1.50353e-07
-4.94278e-07
1.49977e-06
1.08246e-06
-1.37197e-06
4.70678e-07
4.09522e-07
-1.92103e-06
3.00143e-07
-1.42749e-06
7.85052e-07
1.17327e-06
-1.54587e-06
-9.94658e-08
-1.03465e-06
1.06655e-06
1.5991e-06
-1.11755e-06
6.86357e-08
-7.30294e-07
1.45522e-06
1.76647e-07
2.73801e-07
5.944e-06
-4.04754e-06
9.64648e-06
-1.92575e-05
2.26635e-06
-4.1916e-06
1.01104e-06
1.62046e-06
2.60787e-07
1.0583e-06
-1.86187e-06
2.03919e-06
-5.39614e-06
8.9419e-08
5.77932e-06
-1.09748e-05
1.16637e-05
-2.27308e-05
3.65072e-07
2.32172e-05
-4.5975e-05
4.85042e-05
-9.09303e-05
1.12258e-06
9.13353e-05
-0.000170907
0.000179078
-0.00031909
3.06733e-06
0.000318071
-0.000559604
0.000583349
-0.000979816
7.63782e-06
0.000971202
-0.00160809
0.00166977
-0.00262451
1.72399e-05
0.00258708
-0.00403808
0.00417916
-0.00609072
3.3346e-05
0.005963
-0.0087751
0.00905152
-0.0119869
6.01792e-05
0.0116378
-0.0162088
0.0163129
-0.0106375
-0.000101515
-0.0017184
0.000920462
-0.000434648
-2.38857e-05
7.97409e-05
0.000145785
1.95989e-05
0.0166445
-0.0105708
3.13218e-05
0.0128851
-0.00222921
-0.00125223
0.00118857
-0.000821766
0.0106135
-0.0163935
0.000109414
6.53283e-05
0.00019952
7.60014e-05
1.28527e-05
-5.38767e-06
-5.9024e-06
-3.1452e-06
-1.18842e-06
-4.48011e-07
-1.51192e-07
-1.45452e-06
-1.70181e-06
-1.71511e-06
-1.4414e-06
4.78855e-07
-2.60963e-08
-2.93785e-07
-1.64948e-06
2.38713e-07
-1.14493e-06
-3.761e-08
4.79395e-07
-2.83724e-07
-1.11002e-06
7.49067e-08
9.06363e-07
3.88691e-07
-1.65373e-06
2.42024e-07
1.00573e-06
1.43118e-06
1.8602e-06
-5.96987e-06
-5.97317e-06
-6.21238e-06
8.41579e-06
-2.09668e-05
3.63338e-05
-7.83239e-05
0.000138053
-0.000267916
0.000459909
-0.000818104
0.00133562
-0.00221259
0.00336477
-0.00526052
0.00732116
-0.0107832
0.0134559
-0.00162339
0.0109639
-0.000515186
0.00109008
0.0116604
-0.00990277
0.00102964
0.00663733
-0.00497184
0.000506566
0.00311068
-0.00211081
0.000215695
0.00124406
-0.00078219
7.92014e-05
0.00042836
-0.000256651
2.49338e-05
0.000127598
-7.5277e-05
6.8534e-06
3.29327e-05
-2.02637e-05
2.45201e-06
7.27538e-06
-1.28993e-06
7.28056e-06
-2.02209e-05
2.45633e-06
8.44695e-06
-6.20455e-06
1.72579e-06
2.21027e-06
1.26561e-06
1.45435e-06
-5.48955e-06
6.42693e-06
-1.87923e-05
3.1347e-05
-7.01453e-05
0.000124406
-0.00024108
0.00042144
-0.000739696
0.00123066
-0.00201552
0.00311187
-0.00480769
0.00677238
-0.00955951
0.0119847
-0.000463583
0.00844702
-0.00432397
0.00135232
0.0167497
-0.0139053
0.00119052
0.00991994
-0.00670618
0.000556099
0.00460965
-0.00275031
0.000229487
0.00183056
-0.00099966
8.44201e-05
0.000635215
-0.000321921
2.68773e-05
0.000192577
-9.18287e-05
7.55348e-06
5.08844e-05
-2.38243e-05
2.64222e-06
1.12828e-05
-6.21507e-06
1.65105e-06
3.0504e-06
2.37649e-06
-1.09684e-06
5.23265e-06
-1.08838e-06
-1.36987e-07
4.57216e-06
-4.62481e-06
7.61064e-06
-1.63707e-05
2.47283e-05
-2.40507e-05
-8.73484e-07
-1.32303e-05
1.07311e-05
-6.09995e-06
-9.7766e-08
5.53957e-06
-1.9446e-07
-6.69478e-07
-1.11071e-06
1.41811e-08
-1.16307e-07
-1.39537e-09
-3.40394e-07
-3.2245e-07
5.51777e-06
-5.78714e-06
1.11276e-05
-2.32664e-05
2.96246e-08
4.66606e-05
-9.14427e-05
0.000173784
-0.000317913
1.54956e-06
0.000570262
-0.000969307
0.00164198
-0.00258004
1.23363e-05
0.00412424
-0.00595047
0.00892246
-0.0116565
-3.50991e-05
1.51744e-05
2.6902e-05
8.73336e-05
2.68397e-05
3.44744e-05
0.00418276
-0.00596774
1.52721e-05
0.00711473
-0.0103005
0.00915403
-0.0115581
9.39225e-05
0.014194
-0.0183386
0.0119251
-0.0099093
-0.0215669
-0.0018208
0.000398227
-0.00764728
-0.00213739
0.000123125
0.00867733
0.00982
0.000535346
-0.0101812
0.00565815
-8.96103e-05
-0.00375584
0.00239928
-9.23714e-05
-0.00136766
0.000893757
-4.13801e-05
-0.000447014
0.000289818
-1.77929e-05
-0.000132772
8.51339e-05
-6.45374e-06
-3.26277e-05
2.2271e-05
-2.45296e-06
-7.18364e-06
4.62092e-07
1.454e-06
-5.74527e-06
-1.99711e-06
1.28983e-05
-2.97784e-05
3.13558e-05
-6.50116e-05
0.000119379
-0.000227214
0.000354553
-0.000323724
-6.19542e-06
-0.0002026
0.000170789
-9.36242e-05
-2.64744e-06
9.97267e-05
-6.31844e-07
-8.96055e-06
-2.84415e-06
-2.60331e-06
-1.25649e-05
-4.45033e-06
-2.11741e-06
-1.72154e-06
1.58562e-06
3.64418e-07
-6.81402e-08
-2.58432e-07
2.71634e-06
8.12959e-07
-1.28036e-07
8.30797e-07
-2.26732e-06
-9.63977e-06
-9.35581e-06
6.21683e-06
2.25141e-05
-2.77897e-05
-3.29982e-05
-0.000115097
-1.96069e-05
0.000177615
-0.000388632
0.000397377
-0.000693297
0.00116204
-0.00185227
0.00300168
-0.0026038
-1.173e-05
-0.00188703
0.00164746
-0.00098257
-1.1182e-05
0.00110336
1.32756e-05
-4.73284e-05
-2.2996e-05
3.25133e-06
-0.000154216
-8.00534e-05
-5.54103e-05
-4.84407e-05
-2.36916e-05
-1.6685e-05
4.99791e-05
-6.28466e-06
-3.69449e-06
1.61645e-05
-1.92836e-05
-4.10377e-06
2.62295e-06
4.37336e-06
7.41374e-06
-1.34092e-06
-3.60919e-07
4.20571e-06
2.69547e-06
-2.09272e-05
-5.67092e-06
3.65672e-05
3.29502e-05
-7.50215e-05
6.88674e-06
-7.84623e-05
-1.97328e-05
0.000138844
0.000127937
-0.000255635
2.51242e-05
-0.000269689
-5.69065e-05
0.000461261
0.000430805
-0.000779459
7.9959e-05
-0.000827458
-0.000127341
0.00133364
0.00125646
-0.00210773
0.000218536
-0.00224974
-0.000165099
0.00332538
0.00316748
-0.00499493
0.000515805
-0.00535915
0.000268848
0.0070462
0.00686433
-0.010109
0.00104871
-0.0108107
0.00287854
0.0123628
0.0123573
-0.000960745
0.00109577
-0.00136397
0.0491755
-0.026142
-0.0272267
0.0371651
0.00988511
0.00309363
-0.0244028
-0.00637932
-0.00396679
0.00848665
-0.00904835
-0.000166527
0.000711111
-0.00247395
-0.00251387
-0.000571256
0.000608044
0.000230045
-0.00015768
-0.000254673
-7.41143e-05
7.40582e-05
1.32486e-05
1.71146e-06
-5.65373e-07
-6.15228e-07
-3.61166e-07
-4.30807e-07
-1.72733e-07
1.93743e-06
-2.05976e-06
-2.29796e-07
-7.20409e-08
-2.17094e-06
2.06357e-06
-6.90166e-08
-3.90208e-08
-3.17444e-08
-2.06085e-07
-1.62335e-07
3.1257e-07
-1.56997e-07
3.59719e-07
-2.1918e-07
-2.50426e-07
-1.56478e-07
7.10448e-07
-1.16248e-06
1.21226e-06
-6.55537e-07
-6.84252e-07
-3.84347e-07
1.54986e-07
1.21601e-06
8.93812e-07
-8.53712e-07
-1.1143e-07
-1.18119e-06
1.4225e-08
4.25059e-08
-5.09167e-07
-1.57002e-06
-1.48507e-06
-1.41454e-06
-5.51507e-06
-1.80364e-05
-4.853e-05
-0.000104632
-0.000157622
-6.89341e-05
0.000295303
-0.00115027
-0.000549522
-0.000279403
0.0016657
-0.00275169
0.0029713
-0.00441026
0.00656001
-0.000446563
-0.0064994
-0.000710902
0.00428982
-0.000226927
-0.000737585
0.000101985
5.41476e-05
0.00016254
0.000231003
-0.00023651
-0.0027403
0.00965037
-0.00483113
-0.014018
-0.00253066
-0.0037944
-0.039355
-0.0113815
0.00151879
-0.0172829
0.0123122
0.000698729
0.000506811
0.0148029
0.0123874
0.00148286
-0.00140344
0.016105
0.0145106
0.00153565
-0.00169209
0.0147048
0.0164639
0.00144094
-0.0037505
0.0123459
0.0165702
-0.00604527
0.0104698
-0.00897408
0.00969797
-0.03763
-0.0202122
0.00293963
-0.00928351
0.0159857
-0.00100613
-0.0255773
0.0160063
-0.000248467
-0.0186999
-0.0187319
-0.0266492
0.00721737
-0.013338
-0.00934518
0.0129357
-0.0190647
-0.0035797
0.0105987
-0.008519
-0.00119581
0.00548779
-0.00348686
-0.000497508
0.00234815
-0.00131672
-0.000213943
0.000872505
-0.000447217
-8.05758e-05
0.000285345
-0.000133795
-2.51103e-05
8.26185e-05
-3.50891e-05
-5.78285e-06
2.19758e-05
-7.68552e-06
2.58617e-07
5.25142e-06
-1.13785e-06
2.35387e-06
3.03187e-06
-6.25868e-06
1.12771e-05
-2.40454e-05
2.66143e-06
6.413e-06
-5.49931e-06
1.64487e-06
1.44127e-06
1.27164e-06
2.2039e-06
1.85429e-06
1.72296e-06
3.79909e-06
2.65932e-06
-4.22663e-06
-1.92656e-05
-6.3969e-05
-6.59091e-05
-0.000200994
-0.000560417
-0.000434318
-0.000223118
-0.000145736
0.000578581
-0.00108755
-0.000120721
-5.21969e-05
-9.32388e-05
1.2097e-06
-0.000659338
0.000566715
5.10277e-08
0.000320621
-0.000576332
2.20413e-06
0.000987503
-0.0016474
1.33798e-05
0.00264976
-0.00411629
4.32729e-05
0.00613871
-0.00889511
7.84465e-05
0.0119473
0.000102138
0.000300024
3.28534e-06
-4.19207e-05
-6.84903e-05
1.28502e-06
9.37833e-06
4.33842e-06
1.30316e-06
2.42502e-07
4.17576e-09
-1.02921e-08
-3.60088e-09
4.95959e-08
-2.01317e-06
1.32093e-07
2.73368e-07
1.1284e-07
8.19232e-09
-5.76044e-07
-3.08853e-06
-1.21573e-05
-3.88874e-05
-0.000100473
-0.000153013
0.000648532
-0.0002194
-0.000554441
-0.000780914
0.0146308
-0.0157209
0.0173446
1.31952e-06
-0.00250453
0.00205645
0.00612085
-1.93258e-07
-0.00557126
0.00516142
0.00524695
-1.47153e-05
-0.0059129
0.00547666
0.00474165
-1.86205e-05
-0.00749919
0.00709292
0.00673448
-0.000162737
0.0104987
-0.0110255
0.0107966
-0.0114896
-0.00106283
-0.00525207
0.00738918
-0.00068982
-0.00715304
-0.000172016
-4.00719e-05
0.0240231
-6.71716e-05
-0.0241795
0.0164538
-0.000598727
-0.0170142
0.0171093
-0.000359051
-0.0178596
0.0243715
-0.00022378
-0.0243551
0.0189436
-0.0188858
0.0187418
-0.0192321
0.000127562
-0.0240871
0.0238335
-8.87669e-06
-0.0171154
-0.000703462
0.0172032
-0.0147951
1.77886e-05
0.0264584
0.00970509
0.0238084
0.0089373
-0.00851087
0.0118226
0.00201011
-0.00686946
0.00603631
0.000755862
-0.00353623
0.00272291
0.000369908
-0.00151974
0.00111413
0.000152494
-0.000552871
0.000380504
5.89103e-05
-0.000179029
0.000119122
1.64598e-05
-4.95074e-05
3.0096e-05
3.13654e-06
-1.30598e-05
6.1926e-06
-1.33201e-06
-4.54414e-06
-8.01802e-07
-2.67505e-06
2.05709e-06
2.59922e-07
1.5183e-07
9.81463e-07
4.99559e-07
-1.48433e-06
-1.06178e-06
-6.17709e-08
-9.03811e-07
-3.79436e-07
-2.04463e-07
-1.02346e-06
-2.44251e-07
-2.96136e-07
-9.89452e-07
-1.4906e-06
-1.93488e-06
-1.65514e-06
6.38333e-06
1.35655e-06
-6.5171e-06
-2.30468e-06
1.89936e-05
2.18981e-05
5.70521e-06
-2.94237e-05
-7.11055e-06
6.74938e-05
9.31779e-05
2.17915e-06
-0.000191535
1.69031e-05
0.000323769
-4.8289e-07
-0.000629966
4.63335e-05
0.000990147
-1.42008e-05
-0.00180674
9.34879e-05
0.00264352
-5.25987e-05
-0.0044957
0.000186479
0.00612149
-0.000151494
-0.00970688
0.000210513
0.0121283
-0.000419586
-0.0181853
-0.000295485
0.000801017
-0.0108482
0.0177816
9.38822e-05
0.00861172
0.000452931
-0.00593605
0.00979196
-3.32685e-05
0.00422729
0.000263465
-0.00277715
0.00459225
-1.53322e-05
0.00182907
0.000130011
-0.00111249
0.00186452
-2.04167e-06
0.000688897
5.70316e-05
-0.000387747
0.000658199
1.12753e-06
0.000227018
2.05661e-05
-0.000117049
0.0002033
1.23119e-06
6.50325e-05
6.65381e-06
-3.10332e-05
5.52675e-05
6.24413e-07
1.65477e-05
2.02284e-06
-7.53976e-06
1.33172e-05
2.16385e-07
4.63788e-06
1.55512e-07
1.09101e-06
-3.00532e-06
-2.32347e-06
1.12478e-06
-5.22789e-06
-2.92573e-07
1.53796e-06
-7.33569e-06
-4.31435e-06
-3.76499e-06
-1.7532e-06
-1.67462e-06
5.69577e-06
6.36573e-06
1.43289e-06
-6.04088e-06
-2.53767e-06
2.42566e-05
1.78073e-06
-5.06835e-05
6.27514e-06
-1.53225e-05
-4.01465e-06
-2.57841e-06
-8.73416e-06
1.53097e-06
1.1147e-06
3.39849e-07
-4.23112e-07
2.57309e-08
1.68016e-06
-3.3889e-07
2.51818e-07
2.19413e-07
1.04021e-08
1.29422e-08
7.90694e-09
3.99274e-08
1.83762e-08
1.28295e-07
-7.26501e-07
-6.47657e-07
4.52471e-05
-5.49446e-05
-5.42653e-07
-1.42644e-06
-8.52424e-07
-2.07221e-07
-1.16758e-05
-1.93334e-07
2.27438e-05
-4.8126e-05
-4.11696e-07
9.10786e-05
-0.000177224
-3.15177e-07
-6.83531e-07
-1.6254e-06
-9.84219e-07
-1.95417e-06
3.07007e-06
7.59385e-06
6.83954e-06
2.19163e-06
5.75839e-07
2.99365e-07
2.86226e-06
9.88397e-07
4.58458e-07
2.32319e-05
-4.37668e-05
4.06209e-05
-7.66351e-05
0.000150288
-0.000269711
1.40145e-05
-5.11172e-05
9.65321e-06
5.2777e-05
5.94028e-06
-1.38561e-05
3.0908e-06
1.29878e-05
6.19298e-07
1.74797e-06
5.18206e-06
-1.17293e-06
-1.92554e-05
9.77742e-05
1.67838e-05
-0.000112308
-2.35132e-05
0.000215022
0.000290402
6.09414e-05
-0.000387056
-7.19822e-05
0.000694591
0.000845336
0.000155213
-0.00112908
-0.000197882
0.00181465
0.00222374
0.000320853
-0.00290642
-0.000452489
0.00404983
-0.00635848
-0.000846447
0.00760125
-0.0121447
-0.000846962
-0.000524426
-8.3744e-05
-5.54228e-06
2.07931e-05
1.75394e-05
9.63183e-06
4.16512e-06
1.44294e-06
5.15589e-07
1.71976e-07
1.47244e-06
1.73288e-06
1.74611e-06
1.3243e-07
1.17745e-06
1.64838e-06
1.5992e-06
1.22264e-06
2.56507e-07
1.69822e-06
-3.2302e-07
1.50078e-07
-6.1267e-10
1.45679e-07
3.19675e-08
4.25448e-07
2.64728e-07
-1.03448e-05
1.6135e-06
9.5066e-07
4.5311e-07
4.81005e-08
1.45107e-08
-8.65429e-07
9.0663e-07
1.57524e-07
-4.00647e-07
1.47517e-06
-3.94401e-07
7.91323e-07
5.87238e-06
3.39624e-06
8.10234e-07
1.39631e-06
-9.33911e-06
1.44941e-06
-6.62132e-06
-2.35513e-06
1.74366e-05
2.28293e-05
5.62353e-06
-3.02278e-05
-6.14516e-06
8.33309e-05
2.00985e-05
-0.000114575
-2.31823e-05
0.000233622
0.000280735
5.92772e-05
-0.000394224
-7.74493e-05
0.000687208
-0.00115112
-0.000203892
0.00179921
0.000243999
0.00012233
5.19088e-05
1.86836e-05
5.66138e-06
7.61374e-07
5.84931e-07
1.83277e-07
5.22186e-07
1.62995e-07
-2.81541e-07
-7.3158e-07
-6.44319e-07
-3.62027e-07
-1.2854e-06
-5.77367e-06
-5.4535e-06
-1.91463e-05
-1.94881e-05
-5.19803e-05
-5.76655e-05
-0.000191801
-0.000529244
-0.00134519
-0.00145766
-0.00354217
-0.00307076
-0.0017039
-0.00769786
-0.0234263
0.000900675
-0.0382246
-0.0288858
-0.0227916
-0.0152241
-0.0131872
0.00483131
-0.0114618
-0.000249791
0.00316272
0.000543578
9.49958e-05
0.0144021
-0.0163848
0.0176988
0.000178263
-0.00223274
0.00332211
0.00711141
0.00022831
-0.00503143
0.00664203
0.00660629
0.000222561
-0.00537624
0.00683238
0.00622144
0.000163354
-0.00722531
0.00786224
-0.000325494
0.000358439
0.000153205
0.00223626
-0.00930075
-0.0132797
0.00105194
0.00975651
0.000135255
-7.67874e-05
0.00600566
0.000107081
-0.00978545
0.0135715
6.53664e-05
-0.0173957
0.010345
-0.00892828
0.00754427
-0.00221719
-0.0121511
0.00013674
-0.016063
0.0215674
-0.0188323
0.0152369
-4.70093e-06
-0.0152232
2.1443e-05
0.0150719
-4.65142e-05
-0.01515
5.08547e-06
0.0152149
-6.53208e-05
-0.0152723
0.0191887
-0.0218922
0.0017874
-0.0193137
0.0267792
0.00152902
0.000903556
-0.00980839
0.0102558
-0.0106963
5.14491e-05
-0.00717652
0.00659406
0.000460754
-0.00824685
0.00600183
-0.00729456
0.000822
0.0151113
-0.0078915
0.00450094
0.000817639
-0.0083501
0.00659124
-0.000164543
-0.000113873
-1.35486e-05
0.00016714
5.65499e-05
4.19538e-06
-8.26037e-06
-6.64706e-06
-3.28755e-06
-1.20416e-06
-4.50234e-07
-1.49862e-07
4.2629e-07
7.21385e-07
-2.83682e-08
-2.11754e-07
-1.61035e-07
9.12255e-07
7.56471e-08
-1.36298e-06
4.16245e-07
4.68002e-07
-1.42958e-06
-1.6085e-07
-9.84933e-07
-1.48522e-07
-4.97e-07
-1.12668e-06
1.08519e-06
1.5152e-06
1.73943e-08
3.13782e-07
-1.20767e-07
-1.10166e-09
7.85155e-07
-1.05e-06
-7.88082e-08
-1.563e-06
1.59225e-06
1.07796e-06
-7.5342e-07
5.47779e-08
-8.75244e-07
3.40055e-09
8.84093e-07
5.75269e-09
2.49305e-08
-3.44602e-07
-6.70314e-07
-9.38739e-08
-1.64245e-06
7.42626e-06
4.36853e-06
2.5762e-06
-4.27363e-06
-1.98472e-05
-6.68269e-05
-0.000200327
-0.000545639
-0.0013622
-0.00315777
-0.00314959
-0.00714685
-0.00774844
-0.0176719
-0.0281809
-0.0257864
-0.0258612
0.0105015
-0.0136517
-0.00820897
-0.00886166
-0.0248974
-0.0286633
-0.0262074
-0.0262351
-0.0257968
-0.026049
-0.0299189
0.0106431
-0.000279623
-0.00380944
0.0303282
-0.00763328
-0.0220049
-0.0197228
-0.00579059
-0.00698052
-0.0167902
-0.0171926
-0.000922536
-0.0023642
0.00113649
0.000823575
0.000402148
0.000160271
5.51505e-05
4.10715e-05
1.13464e-05
1.11887e-05
2.66065e-06
4.10029e-06
-1.35729e-05
-4.9812e-05
-0.000153413
-0.000417716
-0.0010329
-0.00243584
0.00130317
0.00104262
0.00100606
0.000639492
0.000313696
0.000124082
0.000122733
4.05643e-05
5.34499e-05
1.56415e-05
3.12089e-05
5.04756e-05
-9.2015e-05
0.000190254
-0.000320062
2.65697e-05
0.000123167
-7.04342e-05
7.5473e-06
-1.9291e-06
-5.44191e-06
-5.41348e-06
-1.88872e-05
-1.46506e-06
-1.11387e-06
3.9609e-07
-1.34661e-06
-6.44842e-07
-7.31689e-07
2.99326e-07
-1.92754e-06
1.17606e-06
-2.88411e-08
2.13545e-09
3.39863e-09
-2.85392e-08
4.41346e-07
-1.12166e-07
4.9062e-08
3.74834e-08
6.51896e-08
-2.92141e-07
4.59574e-08
2.14592e-07
1.68579e-07
2.13428e-07
-9.63318e-09
1.2517e-07
2.10084e-09
4.1357e-08
-3.00646e-07
1.94638e-06
1.45276e-06
-4.37373e-07
-2.65937e-07
-3.97884e-07
1.38211e-06
8.29952e-07
4.09569e-07
3.5711e-08
1.12364e-08
-3.68002e-07
-2.92092e-07
-7.47352e-07
-2.8396e-06
-1.39795e-06
-9.02335e-06
-1.26234e-06
-1.79094e-05
-1.90325e-05
-4.86985e-05
-5.59299e-05
-0.000241169
0.00041539
0.000626305
-0.000986507
0.00180041
-0.00268301
0.000220417
0.00120733
-0.000736233
8.23528e-05
-4.17296e-06
-2.3474e-05
3.35022e-06
-4.93326e-05
2.82147e-05
-0.000107206
-0.000129283
-0.000113151
-0.000132167
-0.000176739
-0.000189879
-0.000102589
-5.78334e-05
-2.71938e-05
0.00183984
0.000115424
7.4921e-05
1.43713e-05
-2.01475e-06
-3.38146e-06
-1.84124e-06
-1.83062e-06
-8.14969e-07
-3.53572e-06
-3.14326e-06
-1.45064e-06
-6.96191e-06
-6.26084e-07
-7.48136e-07
2.32521e-06
6.68763e-07
-5.73577e-07
1.34189e-06
1.45202e-06
1.507e-07
5.72803e-07
1.89572e-06
5.26859e-06
-7.77405e-06
1.9853e-05
6.22185e-06
8.80822e-06
9.20354e-05
2.85155e-05
7.31935e-05
0.000265502
0.000203432
0.000293934
-0.0024605
-0.00257026
-0.000349088
0.000391233
0.000535369
0.000184426
-0.00614516
-0.000172416
-9.07701e-05
-5.63336e-05
-0.000645047
-0.000171245
0.0154752
-0.000209675
-0.0179337
-0.000140086
-0.000682378
-0.0167229
-0.000764262
-0.000857586
-0.0117371
-0.00653917
-0.0103377
-0.0242366
0.0027182
0.00604148
0.000355092
-0.000348302
-0.000306936
-0.000538181
1.725e-05
-0.013921
0.0171454
5.9295e-05
-0.00392151
0.00176533
0.00567179
2.27741e-05
-0.0071918
0.00454606
0.00458604
-1.38179e-05
-0.00739015
0.00485641
0.00409417
-5.6259e-05
-0.00681912
0.00171365
-0.0109387
0.00573088
0.00873718
-0.00995559
0.00280709
0.0010187
-0.000563147
-7.7478e-05
-4.06894e-06
2.42277e-05
1.9838e-05
1.07727e-05
4.61449e-06
1.57067e-06
2.35394e-06
2.60522e-06
4.78929e-06
9.04543e-05
-0.000164745
1.32485e-05
0.000313047
-0.000543495
0.000489601
-0.000833783
0.00140004
-0.00225211
6.55092e-05
-0.00055881
6.35316e-05
0.000539578
3.23103e-05
-0.000179651
2.6854e-05
0.000180971
1.01655e-05
2.27443e-05
6.95551e-05
-1.92752e-05
-0.000193007
0.00102532
0.00012214
-0.00108627
-0.000198284
0.00174063
0.00228428
0.000331524
-0.00283244
-0.000447589
0.00497642
0.000644828
-0.00625837
-0.000896473
0.00759326
0.00971983
0.000820646
-0.0144145
-0.00101171
-0.0119954
-0.0142307
0.000915231
0.00943624
0.00781278
-0.0117717
-0.000960621
-0.000561053
0.000637871
0.00043851
0.000261305
0.000130173
5.48507e-05
1.95754e-05
1.10797e-05
2.96368e-05
6.79514e-06
1.50954e-06
1.33336e-05
9.79474e-07
0.000951134
-0.00156847
7.69413e-05
0.00252698
-0.00395171
0.00351381
-0.00527693
0.0077474
-0.0104325
-0.000186303
-0.00330256
0.000159109
0.0033544
8.78651e-05
-0.00152102
0.000121826
0.00141763
3.4501e-05
0.00014535
0.000561815
-6.59475e-05
-0.00102319
0.0063153
0.000431517
-0.00582536
-0.000895607
0.00801442
0.00968695
0.000834799
-0.0148707
-0.000950386
-0.0106819
-0.0193631
0.000356419
0.0121716
-0.00130877
0.00654407
-0.000411303
0.00408405
0.00447541
0.00207215
0.00129821
0.00754339
-0.00416919
-2.44326e-05
0.0014703
0.000697405
0.000335139
0.000151002
5.97744e-05
2.03734e-05
5.87837e-06
1.45565e-06
2.70664e-06
-1.25831e-06
-2.20572e-06
-6.49342e-07
6.24702e-07
-1.9515e-06
7.03129e-06
-1.59708e-06
-1.65949e-06
-1.98451e-06
-1.48365e-06
5.24787e-06
6.45807e-06
1.38225e-06
-7.00333e-06
-2.2642e-06
2.2274e-05
5.64234e-06
-2.94407e-05
-6.33289e-06
6.95876e-05
8.234e-05
1.98822e-05
-0.000116501
-2.51753e-05
0.00022897
-5.17448e-05
-3.8721e-05
-0.000144296
-1.07442e-05
-3.79361e-05
1.94617e-05
1.95407e-05
4.25921e-06
-2.64255e-06
-3.80086e-06
-1.74871e-06
-1.96114e-06
-4.59206e-06
-2.59354e-07
-4.37632e-07
4.29802e-07
1.73314e-07
2.57724e-05
4.97477e-06
-2.95355e-05
-6.46715e-06
6.32261e-05
8.54709e-05
2.00634e-05
-0.00011562
-2.25888e-05
0.000282306
6.10689e-05
-0.000386643
-7.35462e-05
0.000696477
0.000845441
0.000148658
-0.00138753
-0.00029041
-0.00011587
-0.000479554
0.000180608
0.000182136
6.3527e-05
-1.1662e-05
-3.61126e-05
-2.73405e-06
-7.55318e-06
4.44578e-06
-5.27191e-06
-5.39283e-06
9.18091e-06
2.07953e-05
-1.40382e-05
-4.37798e-05
3.77961e-05
7.2942e-06
2.13492e-05
-5.87449e-06
0.000337113
4.94327e-05
-0.000374496
-7.42642e-05
0.000652045
0.000871566
0.000154433
-0.00112512
-0.000194274
0.00221019
0.00033676
-0.00285521
-0.000454661
0.00405985
0.00504994
0.000607658
-0.00760252
0.00040814
-4.30389e-05
-1.40703e-06
1.0923e-05
3.89412e-06
1.48472e-06
4.62277e-07
1.26748e-07
-8.53274e-07
-1.85681e-06
-3.30624e-06
-3.86272e-06
-1.8325e-06
-3.05106e-06
-1.36181e-06
7.02553e-06
1.75442e-05
-1.31604e-06
-1.52992e-06
-1.64815e-06
-1.26983e-06
-6.84553e-07
-5.19694e-07
4.69917e-05
8.10826e-08
-4.66641e-05
9.24991e-05
2.9093e-07
-0.000173065
0.000174155
-9.19784e-05
9.1404e-05
-1.1734e-06
-0.000178112
0.00017029
-9.36134e-05
4.54044e-05
-6.47021e-07
-4.84655e-05
2.2908e-05
-2.34284e-05
2.35682e-05
-2.27114e-05
8.14415e-07
-4.49551e-05
4.86952e-05
9.20982e-07
-9.07371e-05
1.76782e-06
-0.000168924
0.000178972
2.25845e-06
-0.000318269
3.08995e-06
-0.000556171
0.000578884
-0.000563907
0.000567027
8.81172e-07
0.000320959
-0.000319263
-9.6238e-07
0.000320305
-1.17409e-06
-0.000576176
0.000560076
-0.00032317
-6.61287e-06
-0.000202372
0.000118393
-7.36828e-07
9.96786e-05
-2.66214e-06
-5.50992e-05
3.14469e-05
-4.85862e-07
2.4875e-05
-2.40759e-05
1.08043e-05
-3.19524e-07
-1.1766e-05
-2.02085e-07
1.12623e-05
2.24971e-08
-1.11755e-05
3.13155e-07
1.18154e-05
3.6455e-07
-1.06774e-05
2.4163e-05
-2.4626e-05
9.57254e-07
9.62459e-07
3.92644e-07
4.25331e-07
1.93752e-07
-1.93087e-06
2.20557e-06
-2.10507e-06
2.11718e-06
4.54708e-09
-4.78997e-10
-8.55071e-08
-2.19954e-06
1.94956e-06
-1.83304e-07
-1.07545e-07
7.11592e-07
-9.53161e-07
-4.39649e-08
-6.8328e-08
5.59893e-06
-5.90198e-06
5.93439e-06
-5.54856e-06
6.13942e-06
-5.51e-06
1.16621e-07
1.699e-07
-7.00046e-07
1.16375e-07
9.58635e-07
1.26716e-08
3.91859e-07
9.39745e-07
9.89357e-08
3.59589e-07
1.11546e-06
-9.88153e-07
-5.92241e-07
-0.000970021
1.91614e-06
-0.00160533
0.00161259
-0.0016311
0.00160673
2.17509e-06
0.000980204
-0.000977817
-1.33408e-05
-0.000655114
0.000391025
6.02161e-07
0.000352142
-0.000226723
-1.95887e-05
-0.000116475
0.000178085
-5.54674e-05
-0.000381037
0.000561869
-0.00014423
-0.00108501
0.00156515
-0.000304223
-0.00268789
0.00381008
-0.000607643
-0.00598522
-0.00113191
-0.000388476
-0.000491713
-0.00016013
-0.000221357
-7.29555e-05
-9.25639e-05
-2.88948e-05
-3.36276e-05
-9.32149e-06
-1.70991e-05
4.99789e-05
-6.51074e-05
-6.38059e-06
-3.04253e-05
1.31032e-05
-3.17831e-06
-2.20989e-06
-1.0564e-05
-2.58971e-06
-6.26376e-06
-1.95261e-06
7.66442e-06
-1.81701e-07
-1.33082e-05
-8.51098e-07
-8.30785e-07
4.09175e-07
-7.73777e-08
-2.57099e-07
-2.06612e-06
2.70297e-06
8.24374e-07
4.57858e-06
1.31574e-06
7.15852e-07
-2.23971e-07
-1.31762e-07
-4.66933e-06
5.57292e-06
-6.12538e-06
-1.01257e-07
-2.33439e-07
-4.25626e-07
-3.42055e-07
-5.85047e-07
1.69359e-06
6.26347e-06
2.09866e-05
6.15841e-05
9.05291e-06
-0.00185738
0.00112557
-0.000690637
0.00108715
-1.27375e-06
-2.38087e-06
-1.4958e-06
-4.66461e-07
-6.61254e-07
6.46534e-07
7.18337e-06
1.10236e-05
-1.92089e-05
-0.00257973
1.41305e-05
-0.00401402
0.00399808
-0.00458771
0.00281035
3.90589e-05
0.00292401
-0.00184305
-0.000106618
-9.19253e-05
0.000390455
0.000310011
0.000636086
0.000808782
0.00302187
0.00450549
-0.00642566
0.000873033
-2.75437e-05
-7.31547e-05
0.000158974
-0.000172922
-0.000196931
-0.00198889
-0.000120825
6.63231e-05
-0.00469302
0.000514395
5.43558e-05
1.27925e-05
5.46132e-05
0.000171195
0.0002568
8.63156e-05
2.29431e-05
3.8186e-06
3.56542e-06
7.63348e-06
1.11406e-05
1.53784e-05
6.80595e-06
1.3773e-06
8.49047e-06
3.64823e-06
3.79126e-06
5.05345e-06
6.07807e-06
1.11266e-05
3.35942e-05
9.25646e-06
3.86247e-06
2.35494e-06
1.39255e-07
-1.73872e-06
-3.40211e-07
9.66887e-07
4.0547e-07
6.85397e-07
-7.54057e-08
1.58582e-06
3.76056e-06
5.88176e-06
1.3911e-05
1.84565e-05
2.00745e-05
5.93632e-05
2.68273e-05
5.99226e-05
2.26435e-05
0.00583196
-0.0086368
0.000247827
0.0114748
0.000246975
3.83369e-05
0.000148539
0.001159
-0.00261236
0.0118084
-0.0102339
0.0215238
0.00303962
0.0121896
-0.0113337
0.0101835
-0.00932335
0.00720085
0.00816239
-0.0100448
0.00219156
-0.0111233
0.00762418
0.00785443
0.014366
-0.000856286
-0.000418365
-0.00181754
-0.000183326
-0.00650858
-0.000181081
-3.29702e-05
1.3474e-05
2.28796e-05
3.68231e-05
1.1141e-05
1.60896e-05
1.66623e-05
2.07193e-05
-3.8895e-06
2.31974e-05
-1.14062e-05
0.000238625
0.000133112
6.75274e-05
-0.00170647
0.00273096
0.000254574
-0.00272072
-0.000453133
0.00405573
0.0051484
0.000616338
-0.00617103
-0.000879421
-0.00753576
0.000439366
0.000263058
4.602e-07
1.35135e-05
-9.99403e-07
0.000156795
2.07047e-05
1.06173e-05
1.34579e-05
8.21258e-06
7.16147e-06
5.57378e-05
1.99609e-05
5.98382e-06
-3.62939e-05
-1.05088e-05
6.91059e-05
-2.5089e-06
1.89351e-05
-8.04626e-06
-3.76413e-06
5.76423e-06
-1.98694e-06
-1.52146e-06
-2.67204e-06
4.26634e-06
-3.83305e-05
-4.22898e-05
-0.000142591
7.03278e-05
-4.33286e-05
-6.49494e-05
0.000114009
0.00020578
-0.000122706
-0.000582912
0.00029555
5.81794e-05
0.000199953
-4.59687e-05
-0.000491263
-0.000295166
0.000682997
0.00115939
0.000525698
-0.000127142
-0.000482965
-0.000115556
-0.000471222
0.000458039
-0.000321561
-0.00141227
-0.000290903
0.0018213
0.000970267
-0.000697271
-0.00357656
-0.000543702
-0.00436055
0.00159084
0.000480338
0.00182948
2.0921e-05
-0.00978625
-0.000210341
0.0021681
0.0033021
0.00455062
0.0116451
0.027238
0.0144352
0.0212861
-0.00243358
-0.00132276
-0.00784684
0.00160959
0.0019268
0.00360927
0.0141066
0.0206314
-0.00229339
-0.00117372
-0.000623515
0.00411648
-0.00345345
0.00093493
0.000450994
0.00146721
0.0016159
0.00314967
0.0129276
0.0208406
-0.00234258
-0.00117446
-0.000621734
-0.00348668
-0.000771185
-0.000367037
-0.00015038
0.000147257
4.84509e-05
1.31499e-05
5.61338e-06
2.47574e-05
0.000380191
0.000825907
0.00145704
-0.00137302
-0.00213061
0.00312534
0.0117846
0.0232901
-0.00375848
0.00556221
0.0024312
0.00156961
3.84937e-06
-0.000119254
-5.17585e-05
-1.57486e-05
-1.91995e-06
1.43457e-06
1.3302e-06
7.70247e-07
8.34749e-08
2.36283e-08
-2.25829e-07
3.57029e-07
1.17351e-07
8.77324e-08
2.61871e-07
7.55267e-08
-3.61089e-07
-1.52078e-06
1.93803e-06
3.05965e-06
-9.89589e-05
9.40134e-05
2.53096e-06
1.14065e-06
1.3891e-06
5.07308e-07
2.27252e-06
2.30072e-06
3.00592e-06
7.12867e-07
1.11801e-06
-1.12652e-05
2.2684e-06
9.6445e-06
5.10966e-06
2.81088e-06
3.53828e-06
4.79469e-06
6.45621e-06
7.34116e-06
5.52788e-06
5.32307e-06
8.07532e-06
2.80789e-06
4.80958e-06
1.81279e-05
1.64305e-05
0.00397873
1.33015e-06
-0.00396753
0.00590343
-1.03861e-05
-0.00844793
0.00844491
-0.00589695
0.00600341
3.05546e-05
-0.00851979
0.00855343
-0.00590261
-8.588e-06
0.0068221
-0.00433384
-0.000155536
-0.00013237
6.15039e-05
0.000154554
0.000293668
6.97983e-05
-0.00135304
-0.00285973
-0.00488277
-0.000156727
-0.00165128
-0.000769232
-0.000212465
0.00021787
0.000187021
4.8643e-05
2.44424e-05
2.46007e-05
6.2897e-06
0.00260838
-0.00256806
0.00257653
-0.0025965
-4.97356e-06
-0.00396395
0.00402499
4.69943e-07
-0.00599143
-3.15473e-05
-0.00848118
0.00852722
-1.46531e-05
-0.0118452
0.0116838
-0.0133585
3.26954e-05
-0.000117273
-3.93548e-05
6.85943e-06
1.4066e-05
7.06826e-05
0.000200941
0.000223635
0.0024177
-0.00239215
0.049533
-0.00139463
-0.000192091
-0.000936716
-0.0107125
0.00262125
0.00635233
0.000465623
-0.000130442
-0.0051593
-0.000167469
8.85687e-05
0.0001741
1.43305e-05
1.91864e-05
0.00054734
0.000322532
-0.016751
0.0154194
-0.000865939
-0.000501243
-0.00026621
0.00297795
-0.000934293
0.00241811
0.00402716
0.00778849
0.0147157
0.00291321
-0.00745741
0.00302921
-0.0110915
0.00241569
0.000959153
-0.00711688
0.000569205
-0.000112866
-1.80256e-06
-2.4545e-05
2.85932e-06
7.14624e-05
-7.59346e-05
-0.000173287
-3.86193e-05
-0.000183678
-3.71422e-05
4.50667e-06
-6.4934e-07
7.23996e-06
5.80906e-06
4.31952e-06