/*--------------------------------*- C++ -*----------------------------------*\
| =========                 |                                                 |
| \\      /  F ield         | OpenFOAM: The Open Source CFD Toolbox           |
|  \\    /   O peration     | Version:  2306                                  |
|   \\  /    A nd           | Website:  www.openfoam.com                      |
|    \\/     M anipulation  |                                                 |
\*---------------------------------------------------------------------------*/
FoamFile
{
    version     2.0;
    format      ascii;
    arch        "LSB;label=32;scalar=64";
    class       volScalarField;
    location    "0.6";
    object      gradTy;
}
// * * * * * * * * * * * * * * * * * * * * * * * * * * * * * * * * * * * * * //

dimensions      [0 -1 0 1 0 0 0];

internalField   nonuniform List<scalar> 
5322
(
0.642479
0.061998
-0.00190536
-0.0234622
-0.0115303
-0.00241331
0.00209583
0.00621847
0.0140304
0.0237667
0.000652748
-0.169031
-0.187628
-0.168435
-0.146284
0.316773
0.423637
-0.000746761
0.292999
-0.348438
0.332258
-0.33924
0.334068
-0.34422
0.34478
-0.341043
0.342727
-0.353237
0.354654
-0.354019
0.358783
-0.362806
0.377455
-0.327839
0.316377
-0.160146
0.315378
0.39466
0.197381
0.214538
0.291311
0.24345
0.252898
0.271953
0.259292
0.257764
0.263426
0.281444
0.261857
0.249129
0.312738
0.150203
0.168918
-0.553119
-0.0298468
-0.319827
0.16889
-0.419155
-0.0234739
-0.364289
0.171478
-0.412179
-0.0209511
-0.361588
0.172175
-0.426636
-0.0271308
-0.349802
0.173866
-0.469977
0.0163205
0.408435
0.227429
0.317823
0.237315
0.300656
0.250813
0.299373
0.254242
0.352168
0.0315487
0.12005
0.180868
0.299775
-0.0249345
-0.123658
0.0360183
0.070583
0.132713
0.0156784
0.0348494
0.00642861
0.00100174
0.00115566
0.429864
-0.230975
0.00701026
0.232931
0.00639883
-0.00658325
0.0326795
0.00633985
0.24684
-0.419006
0.375053
0.00536387
-0.00726557
-0.00130912
-0.000176086
0.000443614
0.000489071
0.000565653
0.00120063
0.00235027
-0.0039282
0.00104373
0.120444
-0.0494998
-0.0170531
-0.0929157
0.114282
-0.0635364
-0.123851
-0.16945
-0.191482
-0.00772123
0.140358
-0.105906
0.00992709
0.115671
-0.115208
0.0048549
0.120244
-0.123292
-0.00389501
0.112298
-0.134704
-0.0107182
-0.0311217
0.206245
0.170849
-0.112038
0.0742817
0.0577342
-0.118149
0.0127686
-0.115731
0.0907781
0.0933095
-0.102891
-0.00155304
-0.0959867
0.09635
0.104028
-0.0934371
-0.000311038
-0.0892867
0.113371
-0.00737624
-0.0055671
0.356468
-0.279366
0.309443
-0.329463
0.0111645
-0.211905
-0.00445074
-0.00174374
-0.0395459
0.102179
-0.20445
0.20342
-0.341777
0.000783189
0.349099
-0.345507
0.359714
-0.368537
0.00153774
0.363079
-0.373233
0.387111
-0.387511
0.00144809
0.378922
-0.383394
0.395767
-0.396309
0.00091028
0.387115
-0.390533
0.402354
-0.40336
0.000791769
0.394152
-0.398378
0.410349
-0.410406
0.00104376
0.40114
-0.407563
0.420004
-0.416628
0.00138473
0.406627
-0.416248
0.428837
-0.415736
0.00179253
0.403857
-0.419831
0.423342
-0.231006
-0.00108422
-0.0177134
0.0075385
-0.00694841
-0.00041653
0.00266132
0.00357806
3.50197e-05
0.430753
-0.229965
0.00187326
0.274304
-0.037668
-0.0115433
0.00957548
-0.0136689
0.232177
-0.424192
0.00247718
0.00189032
0.00530812
0.00339049
0.00178182
0.00078718
5.71922e-05
-0.00103335
-0.00259334
0.00384041
-0.00138782
-0.0969503
-0.103271
-0.103319
-0.0971732
0.0198907
0.0341794
0.0215273
-0.13051
0.0683855
-0.138329
0.0342581
0.019931
0.0215742
-0.136706
0.0475767
0.130803
0.0844115
-0.130458
0.0685292
0.141993
0.198288
0.209456
-0.343438
-0.342662
-0.368781
0.268063
-0.333294
0.306975
-0.329969
0.320799
-0.332175
0.328663
-0.338181
0.334313
-0.348459
0.338471
-0.362958
0.341193
-0.377914
0.34049
-0.0739906
0.1652
-0.0502794
-0.00770039
0.294786
-0.348005
0.00444307
0.309382
-0.342827
0.00242456
0.313897
-0.331009
0.00145988
0.313288
-0.320716
0.000807384
0.308866
-0.314289
-0.000196519
0.299988
-0.311708
-0.00190004
0.282072
-0.314682
0.00764643
0.234894
-0.0216851
0.234691
-0.315184
0.00765944
0.269461
-0.366663
0.14708
0.24308
0.181656
0.170049
-0.323455
0.212631
-0.303138
0.269131
-0.299251
0.288357
-0.30155
0.297304
-0.308001
0.302206
-0.319382
0.305054
-0.332991
0.305544
-0.336002
0.296914
-0.0478834
0.119918
-0.133242
-0.00131683
0.40728
-0.492158
0.00956481
0.438952
-0.472056
0.00511761
0.438819
-0.447435
0.0023859
0.431685
-0.43229
0.00104455
0.425329
-0.424213
-0.000285772
0.419504
-0.419754
-0.0013194
0.408733
-0.420328
0.00965748
0.361271
-0.416817
0.1462
0.339535
0.301701
-0.151453
0.288065
-0.0683405
0.0541152
0.344955
-0.298563
0.279058
-0.263377
0.421923
-0.371475
-0.00293878
-0.414701
0.353758
-0.361226
0.0105967
0.380287
0.0169771
0.00732207
-0.107529
0.010544
-0.00863281
0.0056433
-0.00206543
-0.000735452
0.347707
-0.348376
0.349281
-0.363991
6.78176e-05
0.376827
-0.380762
0.387091
-0.389095
0.000295195
0.394653
-0.395819
0.403265
-0.402174
0.000370618
0.413298
-0.406862
0.421974
-0.404043
-0.000654144
0.000566286
0.000933128
0.00306273
0.00171075
0.0011585
0.417046
-0.406294
0.00212824
0.48061
-0.479334
0.429311
-0.399983
0.00416375
0.486004
-0.466561
0.297525
-0.208449
-0.337315
-0.0232163
-0.00473932
-0.121857
-0.0314521
0.00901624
0.219857
0.285661
0.0224467
-0.459095
0.346037
0.00317231
-0.381831
0.346545
-0.00101341
-0.353241
0.345437
-8.00553e-05
-0.336269
0.339637
-0.00257222
-0.332039
0.34908
-0.00608746
-0.313813
0.353753
-0.0222725
-0.278392
0.0901313
0.135619
-0.167687
0.00128204
0.274304
-0.234523
0.275099
-0.270066
0.275604
-0.274237
0.446196
-0.391111
-0.000939099
-0.44483
0.387658
-0.384554
-0.0023118
0.437573
3.03571e-05
-0.00109805
-0.000707727
-0.0250918
0.00493768
0.0347401
0.0379109
0.0154009
0.00679771
0.0219583
0.0154987
-0.0199329
0.322936
0.103518
0.0224773
0.0773344
0.0163328
0.00464456
0.00325409
0.00137936
0.000936152
0.000629563
0.000402372
-0.249708
6.3063e-07
0.255864
-0.255072
0.278225
-0.278657
0.285078
-0.283572
0.466227
-0.402941
0.000728292
-0.459055
0.404975
-0.397129
-7.55889e-05
0.454839
0.000968816
0.000734288
-0.000259921
-0.00241617
-0.00282126
0.00301837
0.00220017
-0.000682373
0.0113049
0.00810478
0.258741
0.00106462
-0.0117921
-0.000393283
-0.0181742
0.00177691
0.170101
0.324675
0.596722
0.0622951
-0.00898584
-0.00382527
-0.0158977
-0.331189
0.00124478
0.309276
0.2815
-0.311856
-0.00188085
-0.328763
0.00207943
0.322793
0.299506
-0.314115
-0.000160521
-0.332177
0.00165368
0.329575
0.308872
-0.32041
0.000867375
-0.339508
0.00518444
0.333476
0.314301
-0.330915
0.0015822
-0.351642
0.0158341
0.333667
0.317287
-0.344159
0.00263548
-0.367504
0.0402328
0.327097
0.318035
-0.354293
0.00477016
-0.377901
0.092577
0.312013
0.311989
-0.0590286
-0.00745353
-0.0685346
0.834636
-0.375886
-0.384229
0.617198
0.160679
0.0658343
-0.568018
-0.118317
-0.0694724
0.28819
-0.300948
-0.00529634
0.00673684
-0.0389009
-0.0465552
-0.00525512
0.0123817
0.00716915
0.00229584
-0.00431283
0.00119893
0.00287492
0.000843184
0.000156468
-0.000608446
-0.00223528
-0.00433559
-0.0150702
-0.00806296
0.210027
-0.210105
0.00252653
0.0013598
-0.213415
0.210281
-0.000496088
0.000875428
-0.000949701
-0.0159277
-0.0100906
0.0381333
0.00412144
0.0438809
-0.0155602
-0.0190851
1.67825e-05
0.0703082
-0.0817404
0.082076
-0.0700382
-0.0709038
-0.0606031
0.00226532
0.0813916
0.0732308
-0.0730932
-0.00218052
-0.0820016
-1.12178e-06
1.80125e-05
0.00518914
0.0146441
0.0131011
-0.0293641
0.000408534
-0.000118911
0.000521385
0.0021419
0.00589183
0.00253992
0.0225982
-0.0198858
-0.00323586
0.0117337
0.277013
-0.255682
0.294668
-0.292953
0.303298
-0.00767206
-0.269803
0.0066209
0.298313
-0.00148836
-0.0139894
0.0028082
0.00195062
0.00385545
0.00455198
-0.00334647
-0.0463162
0.15873
-0.0712832
-0.301078
-0.0388416
-0.0378444
-0.602103
-0.16639
0.021253
-0.243917
0.179934
0.00833005
0.00997599
0.217787
0.182647
0.0253947
-0.0204957
0.242001
0.217503
0.0273407
-0.0246692
0.219647
0.247997
0.0254865
-0.0567057
0.182278
0.253063
-0.0879284
0.133221
-0.116116
0.1241
-0.489708
-0.265841
0.0475354
-0.120895
0.260256
-0.0157621
-0.426222
0.226648
-0.00450843
-0.269021
-0.266107
-0.386434
0.159634
-0.211572
-0.136057
0.23399
-0.479016
-0.0550753
0.334372
-0.406591
-0.0117903
0.351205
-0.365503
-0.000429641
0.347735
-0.346553
0.000721788
0.340778
-0.338218
0.00104284
0.336049
-0.333463
0.00445691
0.334251
-0.328403
0.0198616
0.342172
-0.292575
0.0820909
0.283525
-0.158038
0.300359
0.339265
-0.421056
0.360096
-0.424299
0.0100363
0.211945
-0.323616
0.146031
0.169225
0.183187
0.243057
0.209038
0.146974
0.283227
0.168746
-0.00183997
-0.0256116
-0.0153119
-0.0101874
-0.00725625
-0.0129394
-0.0075077
0.000495884
0.00485788
0.260466
-0.254869
-0.000385353
9.91923e-05
-0.000526249
8.58854e-05
-0.450789
0.395517
0.000230437
0.393992
-0.398478
0.000457782
0.401794
-0.406142
0.00107209
0.409677
-0.415005
0.00190956
0.416301
-0.422455
0.00243961
0.413371
0.00269763
0.00526512
0.000754331
-2.9358e-05
-0.00121891
-3.21359e-05
0.000382886
0.000404414
0.000344499
0.000220787
0.000164699
0.000207787
0.00199379
0.0056539
-0.204576
0.00305171
0.0101395
-0.000543139
0.00032794
0.000502442
0.0003024
-9.86325e-05
-0.000799277
-0.00192859
-0.00278924
0.0103218
-0.00293509
-0.00776487
-0.0101969
0.203125
-0.216843
0.273049
0.000387686
-0.0368861
0.030815
0.101128
0.000559154
-0.0899571
0.0846398
0.0867443
0.000307023
-0.0961923
0.0902589
0.0775088
9.66816e-06
-0.120869
0.114947
0.107526
-0.00206973
0.135469
-0.142631
0.139074
-0.149786
-0.013852
-0.0820112
0.118886
-0.00984993
-0.113181
-0.00242641
-0.000761163
0.404962
-0.001398
-0.407354
0.237336
-0.00827807
-0.245448
0.245907
-0.00535949
-0.257744
0.410288
-0.00387437
-0.410148
0.398816
-0.39698
0.394706
-0.404267
0.000996732
-0.406408
0.401087
-0.000783779
-0.245623
-0.0090224
0.24778
-0.210807
0.0018858
0.371291
0.132663
0.388169
0.1421
-0.197687
0.301089
0.0286335
-0.260286
0.279595
0.00652876
-0.267408
0.26878
0.0021402
-0.262743
0.263848
0.000932327
-0.261224
0.257979
-0.00057911
-0.257898
0.255315
-0.00565713
-0.261041
0.240393
-0.0271653
-0.274492
0.179165
-0.130026
-0.34687
-0.104944
-0.32455
0.21214
0.0198548
0.010598
0.135519
0.0317401
-0.20868
-0.17194
-0.0477827
-0.133024
-0.0862121
-0.0673341
-0.147338
-0.073578
-0.0781853
-0.146354
-0.214337
-0.222129
-0.146775
0.364912
0.0201665
-0.215148
-0.00783396
0.295616
0.34782
-0.00371106
-0.257414
0.00131602
0.288753
0.428274
0.003964
-0.424336
0.000496426
0.430468
0.000885851
-0.431237
0.00142529
0.43474
0.000430666
-0.438834
-0.000631394
0.440134
0.000309129
-0.447613
0.000166585
0.445771
-0.00113447
-0.458394
-0.00362107
0.446295
-0.00678138
-0.471842
-0.0162595
0.00268107
-0.289731
0.470851
0.00294576
0.299806
0.000488196
-0.288987
0.472743
-0.000195354
0.290315
0.000508601
-0.286103
0.467163
-0.00016212
0.284757
0.000164853
-0.28128
0.460545
5.76831e-05
0.279408
0.00076169
-0.278321
0.454484
0.000263654
0.276066
0.000375507
-0.275465
0.449258
0.000456992
0.271163
0.000655324
-0.276076
0.442568
-0.00123309
0.266354
0.000202057
-0.280508
0.419728
-0.0165367
0.300602
-0.0536341
0.069081
-0.340951
-0.300637
0.156852
-0.287097
-0.0840741
-0.0578789
-0.599793
-0.326548
-0.286552
-0.203454
-0.147166
0.326971
0.378201
0.0274932
-0.203835
-0.00993047
0.429664
0.012676
-0.412736
0.00501463
0.00251831
0.00615226
0.0162349
-0.282662
-0.0134882
0.137281
-0.0201764
-0.0195078
-0.0369898
0.131321
-0.0434102
0.0178857
0.015715
0.000414267
0.0011846
0.0010805
0.000638481
0.000545999
0.000175658
-0.00212192
-0.00153247
0.37763
-0.43772
0.00169471
-0.00223497
-0.00422522
-0.000299979
-0.357946
-0.000358122
0.365734
-0.383372
-0.000359883
0.384576
-0.391956
4.49957e-06
-9.22805e-05
-0.000924115
-0.000418438
-1.20564e-05
0.000720971
0.000679708
0.000578363
0.000372448
0.000241509
0.000152582
0.00108129
0.00166233
0.000641617
0.362875
-0.366629
0.333141
-0.336541
0.339145
-0.340503
0.00198346
-0.17674
0.000227176
0.166652
0.00604599
-0.184993
-0.000539903
0.140585
-0.0142947
-0.0114457
0.0525899
0.00231279
-0.0572821
0.421407
-0.00545557
-0.266002
0.000520144
0.273805
0.356547
-0.00202724
-0.2832
-0.000235372
0.289
0.349581
0.000707959
-0.290855
-0.000748709
0.290793
0.3557
0.00301565
-0.298836
-0.0014104
0.289831
-0.307249
-0.00200454
0.277949
-0.320119
0.0115571
-0.00924461
-0.00231879
-0.000847
1.34346e-05
0.000280655
0.000517236
0.00130045
0.00266345
-0.00390384
0.00120613
0.097082
0.10227
0.103498
-0.030754
0.139808
-0.0145298
-0.0150969
0.143607
-0.0271539
0.131006
-0.0422689
0.0051623
-0.0116528
0.0112312
-0.0028065
0.00255842
-0.00205088
-0.344533
0.00912245
0.010153
0.00217733
0.000130082
-3.35743e-05
-0.072973
0.0723853
0.00228582
-0.0615423
0.0944335
-0.0192687
0.00809922
-0.00313032
-0.00368749
-0.0182876
0.136108
-0.339353
0.0204984
-0.227908
-0.00963016
0.289293
0.355234
-0.0081377
-0.262177
0.00193897
0.344677
-0.00593045
-0.27405
0.000582031
0.288361
0.349072
-0.00107469
-0.285007
-0.000219716
0.289816
-0.291944
-0.000856105
0.291316
0.00109484
0.000678859
0.000284813
-5.326e-05
-0.000959833
0.00828331
-0.00544705
-0.000235875
0.00225225
4.39899e-05
-0.00207958
-0.00979153
-0.00823808
-0.00225427
-0.00224175
0.00191203
0.00566403
0.000844832
0.00485489
0.00106226
0.00291288
-0.0094376
-0.013182
-0.0264575
-0.0292155
-0.060793
-0.0511465
-0.0307415
-0.117283
-0.363532
0.0306319
-0.563276
-0.414463
-0.298681
-0.198618
-0.178857
0.0705289
-0.160508
-0.0151423
0.0379122
0.00171686
-0.0058587
0.19292
-0.227688
0.278138
0.00262431
-0.03275
0.0517759
0.117867
0.00493201
-0.0803774
0.110207
0.110422
0.00535967
-0.086174
0.113917
0.103363
0.00404791
-0.115246
0.128732
-0.00611538
0.00375986
0.0175583
0.0768269
-0.329459
-0.477701
0.00624479
0.444016
0.0125104
0.0090491
0.28665
0.00182007
-0.470286
0.480239
-0.00066291
-0.45828
0.269428
-0.306485
0.272776
-0.0312781
-0.288934
0.0152006
-0.32364
0.450445
-0.394576
0.406547
-0.00134371
-0.407505
0.000738948
0.40387
-0.00120797
-0.405498
0.000240079
0.407322
-0.00120031
-0.409005
0.401263
-0.461753
0.0269785
-0.323055
0.442421
0.0207845
0.0108511
-0.123431
0.133729
-0.138026
6.75346e-05
-0.114093
0.104824
0.00745745
-0.13031
0.0928816
-0.106269
0.00516321
0.191797
-0.11482
0.0702579
0.0172924
-0.134631
0.105927
-0.00211701
-0.002273
-7.21451e-05
0.00438311
0.00268603
0.00136258
0.000587973
-2.10982e-06
-0.00100674
-0.00253113
0.00386875
-0.00120657
0.0608451
0.0700221
0.00012862
-0.0165854
-0.0102534
0.131839
0.0477351
-0.111952
0.0575622
0.0743834
-0.117203
0.00381101
-0.135608
-0.0105277
-0.031656
-0.109581
0.171722
0.208891
0.0109082
0.0383378
-0.00931611
0.00524079
0.0916729
-0.0985149
-0.00119152
-0.10337
0.103084
0.0985177
-0.091628
-0.00062625
-0.124946
-5.99341e-05
0.124905
2.95121e-05
6.64968e-05
-0.00228008
0.00742046
0.00339544
0.0556136
0.596155
0.324342
0.16695
-0.00179453
-0.0229771
-0.0138778
-0.00881996
-0.0118369
-0.0235677
-0.0477081
-0.0517431
-0.10431
-0.115378
-0.24543
-0.413193
-0.36838
-0.371466
0.157504
-0.245391
-0.0972808
-0.105436
-0.323289
-0.422566
-0.375689
-0.37532
-0.379911
-0.374036
-0.424374
0.159713
-0.0433707
-0.129001
0.504022
-0.15666
-0.304696
-0.29621
-0.0783396
-0.0970389
-0.225666
-0.236819
-0.0595281
-0.092422
-0.0206784
-0.00564306
7.13397e-05
0.00111295
0.00107683
1.70036e-06
-0.00345568
-0.00413752
-0.0166975
-0.00676743
-0.00339968
-0.00622644
-0.00473087
-0.00633473
-0.0132633
-0.0313738
-0.0103764
-0.0103587
-0.0122513
-0.00514956
-0.000694316
0.000740228
0.000564149
-0.000428867
-0.000265812
-0.00263897
0.268395
0.405516
-0.421516
0.416593
-0.424175
-4.95084e-05
0.287415
-0.299715
-0.000989043
-0.00251533
0.00117003
0.0044485
-0.303624
0.0137796
-0.137643
0.0848924
-0.0265121
-0.00820256
-0.00975847
0.0126136
-0.118343
0.0929501
-0.000696643
-0.00033365
-0.000340897
7.70811e-05
0.0606084
-0.00208434
0.000263871
0.000259677
-0.000169876
-0.03831
0.000198105
0.0158776
0.00984922
0.0130051
-0.0108064
0.00908239
-0.000145983
0.000943386
-0.0382039
0.118102
0.117215
-0.0741089
-0.0125248
-0.0586869
0.112623
0.00988808
0.00219088
5.21753e-05
7.83566e-06
-0.00224007
-0.00203858
-0.00209346
-0.000494822
-0.00909641
-0.000895505
-0.00199145
0.000441204
0.0044155
0.000733607
0.00265093
-0.301614
0.296245
0.423473
-0.430701
0.430458
-0.442198
0.00185813
0.300854
-0.307241
0.000898249
8.06553e-05
-8.08101e-05
0.000632249
0.000959288
0.00295278
0.00189104
0.00457746
0.00237623
0.00540727
0.00576715
0.0143724
0.0125514
0.013386
0.00593772
0.0821482
0.0012299
0.0020403
0.00096869
0.000250237
-0.000651629
-0.002426
-0.00268435
-0.00103129
-0.000981003
-0.000583552
-0.000125028
9.89401e-05
0.000295937
0.000381169
0.000339807
0.000202513
-0.00090228
0.00125436
0.00118435
3.82105e-05
0.000154008
0.000277114
0.000443282
0.000741365
0.000950725
0.000826811
0.0016358
0.00205823
0.00143047
0.00317707
0.00434054
0.00355972
0.0213978
-0.0289638
-0.0406038
-0.00779428
0.00452023
0.00604549
0.00589136
-0.0996787
-0.00173403
-0.000991026
-0.00148196
-0.00976916
-0.00376227
0.212764
-0.00279849
-0.281612
-0.00206022
-0.0127126
-0.26089
-0.0114027
-0.0153491
-0.164626
-0.0741533
-0.126971
-0.314745
0.0307342
0.0801133
0.00535353
-0.00423458
-0.00357288
-0.00662078
0.00179388
-0.190524
0.269658
0.00189667
-0.0594433
0.0263327
0.0932693
0.00046654
-0.116288
0.0739086
0.0749397
-0.000509259
-0.120287
0.0791251
0.0660173
-0.00125149
-0.110272
0.0251629
-0.150444
0.0671209
0.106139
-0.145714
0.0439357
0.0213568
-0.00881618
-0.00191796
-0.000648718
0.000196597
0.00035126
0.000487353
0.00120881
0.00220339
0.00274232
0.00260736
0.00395058
0.373787
-0.375436
0.00175888
0.379516
-0.381968
0.3434
-0.345976
0.348935
-0.353143
0.0014203
-0.18219
-0.000644499
0.177447
0.0013797
-0.177695
3.04092e-05
0.174599
-0.000965714
-0.000504879
0.0564978
0.000919573
-0.056839
0.428091
0.000242272
-0.276121
-0.000643923
0.280927
0.36289
0.0024416
-0.29552
-0.00140443
0.351933
0.00747675
-0.306253
-0.00319466
0.277457
0.352322
0.0067081
-0.384049
0.00792047
-0.319206
-0.380273
0.00881829
0.342381
0.284744
-0.313732
0.00880908
-0.00867409
0.00351594
0.00208896
0.00139446
0.000667342
-0.000135154
-0.00114164
-0.0005677
0.000127792
0.000621702
0.00035338
0.000572698
0.000217439
0.385403
-0.389467
0.00180283
0.392058
-0.39897
0.356833
-0.360632
0.368653
-0.359869
-0.0136719
-0.187199
-0.00554396
0.189864
-0.00106378
-0.189476
-0.00221449
0.181235
-0.0022833
0.00233185
0.0650946
0.00451518
-0.0527334
0.439411
0.00243809
-0.280823
-0.00318901
0.289944
0.34975
0.0061158
-0.394198
0.00943574
-0.280021
-0.500275
-0.00167039
0.42821
-0.0291841
0.163228
0.000902774
0.117655
0.0758165
0.0438033
0.0281329
0.220101
-0.138932
-0.01218
0.00698037
0.00109426
0.000333427
0.000517656
0.000497855
-0.000336814
-0.00422777
0.00156535
0.243593
-0.174696
-0.282744
-0.0646243
0.0537117
-0.138949
0.445391
-0.205182
-0.250676
-0.242626
-0.141952
0.334607
0.370016
0.0193558
-0.229446
-0.00858918
0.344027
-0.00717153
-0.257239
0.00211504
0.289377
0.347072
-0.00394061
-0.275697
0.000390112
0.288309
0.000686166
0.00107763
-0.339225
0.00471261
-0.324296
0.0307988
0.0314846
0.00137819
-0.179375
-0.300284
-0.209426
-0.148095
-0.312325
-0.110381
-0.056073
0.0327242
0.00927289
0.424689
-0.00643742
-0.257492
0.00152403
0.274989
0.354582
-0.00624071
-0.275078
0.000562561
0.346755
-0.001881
-0.283742
-0.000261359
0.289463
0.352215
0.00085783
-0.355037
-0.00131343
-0.000500771
-0.347831
0.00796512
0.00811001
0.0184823
0.00462849
-0.31817
0.0140024
-0.255824
0.00140777
-0.0472504
-0.0733211
-0.0193222
0.021019
-0.00863525
-0.392976
-0.000227536
-0.0025978
0.0558287
0.000965445
0.423598
-0.00177951
-0.271389
-0.000206246
0.276143
0.359698
0.000423724
-0.289474
-0.000629927
0.352278
0.00326152
-0.29788
-0.00160781
0.288856
0.357436
0.00646742
-0.372079
0.00152248
-0.000639312
1.61426e-05
0.000300861
0.000329312
0.000236688
0.000148427
7.8436e-05
-0.00103589
-0.00268519
-0.000600874
-0.000696617
-0.000898943
-9.14855e-05
0.000413008
0.000661442
0.000856858
0.000244451
0.000303764
-0.000155016
-0.000188604
-0.000960643
-0.000479981
0.381585
-8.37563e-06
-0.381424
0.385189
4.35992e-05
-0.39101
0.391226
-0.384699
0.388476
-0.000541364
-0.396498
0.390292
-0.386192
0.381166
-0.00167893
-0.388533
0.369691
-0.368372
0.368732
-0.36984
0.00164995
-0.381426
0.389156
0.000885686
-0.388643
0.000643386
-0.390624
0.397294
0.000540242
-0.397698
0.00022962
-0.396731
0.40272
-0.397033
0.397361
0.000112772
0.393483
-0.392903
-0.000128344
0.397606
-1.87642e-06
-0.401879
0.396483
-0.392785
-0.000878549
-0.446862
0.275329
-0.000360266
0.439951
-0.00211239
-0.440463
0.275663
0.00118546
0.425324
-0.373426
0.357404
-0.0012986
-0.363527
-0.00041944
0.354646
4.08125e-05
-0.354545
0.000798045
0.363816
0.00133207
-0.357481
0.374358
-0.42647
0.00302917
0.00450541
0.00409794
0.0151085
0.0102891
-0.212745
0.219426
-0.216197
0.216152
-6.39637e-05
-0.000635086
-0.000605132
-0.219409
0.212614
-0.010398
-0.0059917
0.113657
-0.126943
0.000444184
-0.000833369
0.353371
-0.357749
0.35796
-0.35354
0.365396
-0.384651
-0.0104475
-0.00399051
-0.113649
0.00597493
0.126885
-0.0052374
0.00234589
0.00225003
7.32696e-05
0.000128108
0.000187483
0.00021489
0.000177666
-0.399484
7.98e-05
-0.402778
0.403186
-0.407418
0.402805
0.000152634
0.404723
-0.398802
-0.000130633
-0.452105
0.277742
7.57668e-05
0.447945
-0.275247
-0.000259624
-0.250445
0.255981
0.00192657
-0.25425
0.259845
0.00279318
-0.257119
0.267824
0.00586291
-0.259591
0.278713
0.00489265
-0.267517
-0.0100142
-0.000642625
-0.00214012
0.00177753
-0.000438829
0.000764629
-0.000776014
5.5226e-06
-0.00135105
0.000973741
0.00442647
0.257979
-0.270812
-0.000562917
-0.238989
0.270597
0.0261603
0.0106903
-0.000801117
0.0104302
-0.178773
-0.00037977
0.280438
0.0163212
-0.418531
-0.00269341
-0.00417448
0.0219336
0.0150236
-0.0198793
-0.211832
0.323899
0.105155
0.344788
0.128112
0.0729051
0.0174566
0.0530766
-0.300545
0.384123
-0.364765
0.0104171
0.00173697
-0.0165528
-0.00440835
-0.00227322
0.00673401
0.00172072
0.00087535
0.00105274
0.000649286
-0.458471
0.281543
-0.279863
0.455593
7.01047e-05
-0.000649921
-0.00198659
-0.000427048
-0.00053425
4.88714e-05
0.000211995
0.000813805
0.000518882
-0.404828
8.15419e-05
-0.412705
0.409354
-0.465523
0.285704
0.0013074
0.464527
-0.286021
0.00237589
1.62682e-05
0.000400204
-0.000578472
-0.00432142
-0.00262356
0.302243
0.437785
-0.459909
0.0383175
0.00648681
0.00286822
0.0111567
0.00484102
0.0121847
-0.316624
0.0108801
0.0303641
-0.327402
0.00349434
0.00149289
0.00102823
0.00190723
0.00299107
0.00410823
0.00190731
0.00118929
0.000679844
0.000513941
0.000406475
0.00059533
0.00078857
0.000555062
0.000437832
0.000565849
0.000679185
0.000564969
0.000919313
0.000986114
0.000529832
0.00134651
0.0010117
0.00139169
0.00103218
9.63998e-05
-0.000778665
-0.000261721
0.00191978
0.00357948
0.000317194
-0.0203291
0.00244867
0.000561386
0.00087021
0.00108739
0.00123649
0.00105675
0.00219345
0.001341
0.00253089
0.0013944
0.397983
-0.409694
0.00229743
0.397605
0.00671242
0.00132027
0.00330971
0.0174558
-0.0658727
0.167414
-0.133992
0.282551
0.0412685
0.191267
-0.155008
0.126131
-0.134791
0.0863248
0.0983295
-0.147131
0.0336361
-0.153862
0.0912123
0.0947256
0.185124
-0.00870824
-0.0024613
-0.0235207
-0.00117891
-0.106104
-0.00168923
-0.000714606
0.000640658
0.000867079
0.00162357
0.00095761
0.000647113
0.000833168
0.000638675
0.00014297
0.000587791
0.0003162
0.00255138
0.001327
0.000677973
-0.432861
0.434335
0.00152748
-0.279934
-0.00152153
0.287559
0.362467
0.00558439
-0.302272
-0.00277645
-0.369292
0.00216314
0.00143501
0.000162791
0.00043543
0.000210519
0.00258059
0.000603316
0.0002847
0.000452436
0.000424468
0.000366953
-0.00011433
-0.000941589
-0.00256299
-0.312794
0.00509954
0.28923
0.0160903
0.297644
-0.262572
-0.285896
0.337428
-0.225941
-0.212726
-0.176461
0.00243455
0.00124603
0.00100841
-0.34115
0.0130274
-0.00201471
-0.0558873
0.00101872
0.00644243
-0.00132197
-0.422977
0.00131175
0.00016675
0.0580423
0.00189638
-0.0572256
-0.000589121
0.00426614
0.00358374
0.00390238
-0.000568917
-0.353213
-0.00043812
-0.343797
0.00328231
-0.00133307
-0.361858
-0.00121932
0.291509
-0.000487592
-0.00259078
-0.370535
0.00471484
-0.446224
0.0196088
0.012458
0.0920997
0.00943702
-0.466623
0.0311551
0.00433739
0.00694163
0.029838
0.183963
0.43528
0.226258
0.332769
-0.0174975
-0.00585541
-0.38091
-0.00817507
-0.0192247
0.0128428
0.224329
0.323709
-0.0180518
-0.00652851
-0.00270979
0.292157
-0.360033
-0.00294202
0.00249582
-0.0140233
-0.0277889
0.00310817
0.207088
0.326058
-0.0189787
-0.0068758
-0.00296872
-0.362808
-0.00321396
-0.00147788
-0.000936058
0.00315839
0.00533628
0.00203337
-0.0223512
-0.00587246
0.00155131
-0.000362982
-0.00375973
-0.00530664
-0.00824852
0.00128506
0.189084
0.365023
-0.0677966
0.0601941
0.0268296
0.0322743
0.0085773
-0.00208439
-0.000814208
-0.00021299
5.76086e-05
0.000233029
0.000658261
0.00211022
-0.000105712
-0.000133627
-0.000919795
0.00138333
0.000778098
0.000862019
-0.00165153
-0.0161981
-0.0225989
-0.00698371
0.00238669
0.0024615
-0.441617
0.387345
0.00116698
0.00121535
0.00122046
0.0023195
0.00284992
0.00272715
0.000656271
-0.00737336
0.108905
-0.36557
0.0186768
0.00118444
0.000967751
0.000563888
0.000551775
0.000936299
0.000321623
0.000355139
0.000318494
0.000485371
0.000180947
0.000237941
0.000234793
0.000871352
0.000861516
0.408554
-0.000137489
-0.408226
0.412001
-0.000609307
-0.411637
0.411374
-0.411535
0.417807
-0.000362988
-0.415578
0.414162
-0.409976
0.00152272
0.474756
-0.295148
0.00515815
0.0021575
0.0020462
0.00148393
0.000389926
-0.00969563
-0.0177331
-0.0357883
-0.0827663
0.00415841
-0.0352843
-0.0118504
-0.00353625
0.00471039
0.0040416
-0.000375186
0.000119464
0.000941519
0.000493697
0.411557
-0.405777
0.406426
-0.411371
-0.000153987
-0.408503
0.413296
-5.33128e-06
-0.41796
-0.000632858
-0.413043
0.415845
-0.000244102
-0.421142
0.414474
-0.477726
-0.00144285
-0.0023546
-0.000987947
0.000305105
0.000574562
0.0021501
0.00498639
0.0201074
0.0823627
-0.0269769
0.842513
-0.0203469
-0.00437058
-0.015444
-0.149246
0.0304883
0.0855764
0.00737549
-0.0012629
-0.0828698
-0.00141129
0.00249167
0.00598851
0.000391886
0.000477449
0.00660432
0.00354337
-0.261504
0.216724
-0.00879738
-0.00607835
-0.000546218
0.0443402
-0.010231
0.0366609
0.0588507
0.0957563
0.189777
0.046596
-0.121057
0.0477861
-0.153575
0.0375239
0.0205574
-0.115698
0.00666347
-0.00232118
0.000264696
-0.000557987
2.69005e-05
0.00214773
-0.00103619
-0.00234502
-0.000378591
-0.00272961
-0.000920675
2.73615e-05
-0.000128388
0.000183703
-6.90814e-05
-0.00013679
-0.000838076
4.70327e-05
0.00119202
0.00241655
0.00961815
0.104942
0.441283
0.0251299
-0.0770407
0.283405
-0.00331321
-0.0592925
-0.0206194
-0.0300521
0.836349
-0.0161988
-0.00460757
0.00541089
0.00208525
0.00522978
-0.0750311
-0.00167547
-0.00178488
-0.0161663
-0.150302
-0.129347
-0.0785324
-0.304254
0.0311307
0.0756271
0.00382755
-0.00427046
-0.00448892
-0.00241372
-0.0924874
-0.0046047
0.0444343
-0.0268735
0.0473268
-0.00271435
-0.0844206
-0.00500923
-0.00272311
-7.52354e-05
0.00527578
0.0198299
0.00293451
0.00373384
0.0185182
0.0180502
0.00107743
-0.00172614
-0.000433884
0.00100917
0.00289445
-0.00133905
-0.00101287
0.013777
0.315616
0.0147936
0.000634085
0.00145005
0.000110672
-0.000145213
-0.000369523
-0.00152919
0.00103001
0.394019
-0.449581
0.00118864
0.000659677
0.000384413
0.000475076
-0.456593
0.399975
7.75622e-05
-0.402595
0.408194
-0.404651
0.000329562
0.400115
0.000291979
0.000127925
1.84134e-05
-4.87925e-05
0.000493644
0.000929056
0.000207278
9.03718e-05
-0.000186683
-0.00089846
0.00147666
0.419087
-0.413371
0.413124
-7.05876e-05
0.000102317
0.000192436
0.000178667
-3.01297e-05
0.406137
-0.464204
2.74548e-05
7.98119e-05
0.000365039
-0.000673603
-0.000594282
-0.472292
0.41197
-0.000526682
0.000481448
-0.000191659
0.00156304
0.000572396
0.000484241
-0.0112782
-0.018249
-0.0743401
-0.0117562
-0.00101332
0.000378371
0.000364938
0.000391036
0.000561976
0.0016546
-0.00132407
-0.00145371
-0.000234996
-0.0002392
-0.00183743
-0.00108391
-0.00108188
0.000255791
-0.00173001
0.0012806
-0.00191842
-0.00670153
-0.000583375
-0.00235847
-0.0147495
0.0106566
0.0296338
-0.000314448
0.00115376
-0.410448
0.0030606
0.0134048
0.085772
-0.00179231
-0.00251679
-0.0184695
-0.175678
-0.107962
0.0245963
-0.00312846
-0.0024718
-0.00197082
-0.0222898
-0.00298014
0.162877
0.0488142
-0.0083514
0.0344915
0.245241
0.021239
-0.00362677
-0.00640984
-0.00755229
-0.0113105
-0.278276
-0.247513
0.00180789
0.0249679
0.00947365
0.0408382
-0.0771363
0.000465059
0.00431098
-0.0115031
0.000670761
-0.351913
0.00641335
0.00225897
0.000812808
-0.000597018
0.000223348
-0.00116881
-0.412758
0.287565
-0.33269
0.0185991
0.184087
0.299281
0.000892987
-0.000555478
0.00066493
-0.0698571
-0.266062
-0.0185311
-0.00437097
-0.00124014
-0.00222691
-0.0780355
0.000581154
-0.27534
0.00702849
-0.265836
-0.0020393
0.0342148
0.00120341
-0.0933509
0.0439723
-0.00966074
0.294478
0.000393185
-0.24986
0.022018
0.0886071
0.0146425
5.0489e-05
0.00150468
0.00034674
0.00483614
0.283547
-0.47012
0.00163541
-0.147646
0.000396575
0.0204561
0.0315058
0.0185813
0.00763906
0.00162024
-0.00465482
-0.0165822
-0.0313751
0.00269943
0.203526
0.244765
0.24258
0.169212
-0.399553
-0.376408
-0.0183302
0.377506
-0.0082285
-0.457489
0.0769275
0.0129619
-0.0532455
0.0575065
0.00392811
-0.0537002
0.0546583
0.0024978
-0.0507096
0.0543771
0.00199912
-0.0495257
0.0526755
0.000306201
-0.0503709
0.0500014
-0.00344439
-0.0543266
0.0449386
-0.0132003
-0.0711466
0.0266298
-0.0571652
-0.137196
-0.0657618
-0.205343
-0.252096
-0.246605
-0.209725
-0.223198
-0.232092
-0.222052
-0.239793
-0.227989
-0.226517
-0.236067
-0.225729
-0.240979
-0.239337
-0.223213
-0.296893
-0.139195
-0.133854
0.513567
0.0326829
0.28921
-0.142812
0.374161
0.0237165
0.332076
-0.146808
0.354264
0.0197338
0.342426
-0.147259
0.350279
0.0204001
0.360402
-0.142566
0.339946
0.0217507
0.441794
0.0532523
-0.0379498
-0.282873
-0.00250031
-0.214531
0.138774
-0.187549
0.165886
-0.178468
0.174959
-0.175711
0.180103
-0.177229
0.183129
-0.178597
0.189112
-0.175786
0.202581
-0.15107
0.237536
0.00574338
0.300978
0.212221
-0.0842219
0.236959
-0.220996
-0.0108334