/*--------------------------------*- C++ -*----------------------------------*\
| =========                 |                                                 |
| \\      /  F ield         | OpenFOAM: The Open Source CFD Toolbox           |
|  \\    /   O peration     | Version:  2306                                  |
|   \\  /    A nd           | Website:  www.openfoam.com                      |
|    \\/     M anipulation  |                                                 |
\*---------------------------------------------------------------------------*/
FoamFile
{
    version     2.0;
    format      ascii;
    arch        "LSB;label=32;scalar=64";
    class       volScalarField;
    location    "0.6";
    object      gradTz;
}
// * * * * * * * * * * * * * * * * * * * * * * * * * * * * * * * * * * * * * //

dimensions      [0 -1 0 1 0 0 0];

internalField   nonuniform List<scalar> 
5322
(
-0.0548313
-0.0443757
-0.0290927
-0.0312522
-0.0163609
-0.00744941
-0.00295254
-0.00102315
-0.000312904
-8.66735e-05
-2.41675e-05
-1.12386e-05
-5.32113e-06
-9.11821e-06
-1.12195e-05
-1.34042e-05
-1.46611e-05
-1.48104e-05
-2.96796e-05
-5.74299e-05
-0.000123072
-0.000228744
-0.00045974
-0.000808109
-0.00150792
-0.00245943
-0.00426908
-0.0065803
-0.0105797
-0.0151306
-0.0225483
-0.0303907
-0.0416269
-0.0512038
-0.0611737
-0.0580051
-0.0712506
-0.0680971
-0.070038
-0.0534452
-0.0646896
-0.0667858
-0.0523096
-0.0667347
-0.0660574
-0.0532994
-0.0677631
-0.0641908
-0.052909
-0.0672134
-0.078458
-0.050046
-0.0719676
-0.0596223
-0.0499894
-0.0561115
-0.0730267
-0.0548068
-0.0495453
-0.0557221
-0.073635
-0.0555183
-0.0494856
-0.0543813
-0.0737043
-0.0576471
-0.049418
-0.0518501
-0.0727274
-0.0619794
-0.0414491
-0.0572375
-0.0544255
-0.0535688
-0.0539891
-0.0537308
-0.0537009
-0.0536205
-0.0547269
-0.0527864
-0.0528007
-0.0454179
-0.0471682
-0.0568726
-0.0341671
-0.0490143
-0.0787798
-0.0550122
-0.0538033
-0.044732
-0.0538101
-0.0285669
-0.0299926
-0.0300155
-0.0422237
-0.0464344
-0.0411247
-0.0469594
-0.0799519
-0.0532246
-0.054103
-0.0452359
-0.0473666
-0.0418534
-0.0458894
-0.0401369
-0.0417811
-0.0316952
-0.0165805
-0.00755838
-0.00299862
-0.00103974
-0.000317015
-8.67495e-05
-2.5915e-05
-1.26205e-05
-1.05121e-05
-1.00613e-05
-2.0651e-05
-1.01365e-05
-7.61535e-06
-7.35238e-06
-7.19228e-06
-8.8928e-06
-7.11897e-06
-8.79677e-06
-7.13614e-06
-7.52383e-06
-9.03726e-06
-7.4572e-06
-7.66093e-06
-9.29875e-06
-7.60149e-06
-7.50761e-06
-9.1302e-06
-7.41076e-06
-7.24771e-06
-9.00178e-06
-7.19854e-06
-8.90624e-06
-7.23364e-06
-7.70081e-06
-1.0218e-05
-1.00084e-05
-1.05789e-05
-2.07905e-05
-1.01178e-05
-1.01126e-05
-1.05801e-05
-1.08709e-05
-2.19039e-05
-1.02935e-05
-1.02689e-05
-1.08207e-05
-1.05951e-05
-2.18365e-05
-1.00727e-05
-9.93103e-06
-7.62604e-06
-1.12813e-05
-1.34416e-05
-1.47821e-05
-3.43508e-05
-6.4816e-05
-2.72982e-05
-3.00122e-05
-1.49377e-05
-1.47172e-05
-6.82129e-06
-8.6071e-06
-9.17661e-06
-8.84634e-06
-1.48111e-05
-1.21646e-05
-1.4437e-05
-3.42002e-05
-3.37662e-05
-6.36669e-05
-3.68441e-05
-6.42178e-05
-0.000130348
-0.000130119
-0.000245193
-0.000145159
-0.000247009
-0.000471662
-0.000471404
-0.000844873
-0.000518457
-0.000848959
-0.00152122
-0.00152099
-0.00256179
-0.00163137
-0.00257126
-0.004311
-0.00431274
-0.00678999
-0.00449108
-0.00681228
-0.0106731
-0.0106854
-0.015661
-0.0107645
-0.0157085
-0.0229179
-0.0229684
-0.0312622
-0.0222633
-0.0313686
-0.0419719
-0.0420184
-0.0469157
-0.0799038
-0.0531795
-0.0530465
-0.0453501
-0.0601731
-0.060073
-0.0299994
-0.0300948
-0.0422196
-0.0468307
-0.0409346
-0.0478496
-0.0800786
-0.0536005
-0.0529344
-0.0454996
-0.0467023
-0.0420047
-0.0410797
-0.0406271
-0.0316379
-0.0166085
-0.00758629
-0.00301228
-0.00104479
-0.00031855
-8.71503e-05
-2.60299e-05
-1.26844e-05
-1.06318e-05
-1.08621e-05
-1.0856e-05
-1.05901e-05
-2.18838e-05
-1.03004e-05
-1.01085e-05
-8.2769e-06
-7.74248e-06
-1.51975e-05
-1.03005e-05
-2.19291e-05
-1.0151e-05
-1.48622e-05
-7.59805e-06
-9.13647e-06
-7.54693e-06
-8.29577e-06
-7.75272e-06
-9.32231e-06
-5.47287e-06
-9.24619e-06
-1.45317e-05
-1.45153e-05
-1.48999e-05
-3.39973e-05
-6.39325e-05
-0.000130823
-0.00024583
-0.0004733
-0.00084599
-0.00152542
-0.00256324
-0.00432213
-0.00679041
-0.0107057
-0.0156539
-0.0230147
-0.0312224
-0.0423438
-0.0464069
-0.0800118
-0.0471922
-0.0411244
-0.0418816
-0.0314667
-0.0222835
-0.0229222
-0.0157426
-0.0107758
-0.0106862
-0.00682352
-0.00449656
-0.00431887
-0.0025757
-0.00163402
-0.00152508
-0.000850932
-0.00051969
-0.000473455
-0.000247791
-0.00014566
-0.000131076
-6.44808e-05
-3.70133e-05
-3.44325e-05
-1.9788e-05
-3.445e-05
-6.45201e-05
-3.70714e-05
-3.40535e-05
-1.49332e-05
-1.229e-05
-8.9345e-06
-5.39994e-06
-9.30049e-06
-1.35794e-05
-3.37215e-05
-6.3652e-05
-0.000129656
-0.000246901
-0.000473265
-0.000850943
-0.0015349
-0.0025797
-0.00436571
-0.00683545
-0.0108585
-0.0157134
-0.0234525
-0.0310576
-0.0428043
-0.0467834
-0.0794506
-0.0501309
-0.0401995
-0.0465615
-0.0344601
-0.0218197
-0.0253096
-0.0170024
-0.0105218
-0.0116767
-0.00727971
-0.00437109
-0.0046833
-0.00272326
-0.0015821
-0.00164406
-0.000890796
-0.000500462
-0.000504771
-0.000255294
-0.00013906
-0.000136966
-6.50325e-05
-3.46855e-05
-3.4479e-05
-1.48518e-05
-1.13973e-05
-8.68899e-06
-7.48751e-06
-7.84855e-06
-1.46624e-05
-6.82972e-06
-7.89035e-06
-1.25931e-05
-1.28861e-05
-3.26711e-05
-6.34966e-05
-6.19385e-05
-6.36821e-05
-3.57875e-05
-3.28912e-05
-3.37387e-05
-1.37709e-05
-1.17016e-05
-1.449e-05
-1.86222e-05
-1.90407e-05
-1.33879e-05
-7.76e-06
-7.73039e-06
-1.48084e-05
-2.14011e-05
-1.94323e-05
-1.47778e-05
-1.45586e-05
-3.42652e-05
-6.43289e-05
-7.42837e-05
-0.000130618
-0.000247404
-0.000472446
-0.000850331
-0.000922262
-0.00152437
-0.00257429
-0.00432381
-0.00681441
-0.00698736
-0.0107133
-0.0156916
-0.0229978
-0.0312998
-0.0300624
-0.0299644
-0.0157044
-0.0157532
-0.00717914
-0.00702856
-0.0108127
-0.0157514
-0.0108316
-0.0159658
-0.0230938
-0.0232776
-0.0311899
-0.0223762
-0.0320796
-0.0418434
-0.0480319
-0.0464962
-0.0825859
-0.0555292
-0.0521948
-0.0474984
-0.0596506
-0.02884
-0.0267618
-0.0343617
-0.0190221
-0.0241099
-0.0163285
-0.00884696
-0.0110107
-0.00682228
-0.00361681
-0.00440263
-0.00253255
-0.00130013
-0.00153176
-0.000815739
-0.000406624
-0.000466049
-0.000229917
-0.000111263
-0.000123023
-5.70172e-05
-2.7109e-05
-2.97219e-05
-1.55316e-05
-1.44814e-05
-2.73365e-05
-3.23913e-05
-5.08428e-05
-0.000112741
-0.000127484
-0.000249001
-0.000475104
-0.000867012
-0.000840276
-0.000851782
-0.000515692
-0.00047267
-0.000471092
-0.000247008
-0.00014332
-0.000241346
-0.000271223
-0.000281561
-7.53526e-05
-5.98034e-05
-8.12381e-05
-6.57419e-05
-6.094e-05
-7.61143e-05
-8.42759e-05
-2.33342e-05
-1.06743e-05
-5.23557e-06
-1.03777e-05
-6.33256e-06
-1.2737e-05
-2.00003e-05
-4.176e-05
-0.000161066
-0.000291491
-0.000309446
-0.00102968
-0.00099607
-0.000573557
-0.000426226
-0.000492457
-0.000748507
-0.0013949
-0.00156304
-0.00264543
-0.00448345
-0.0070525
-0.00685799
-0.00684837
-0.00450673
-0.00435918
-0.00434857
-0.00258386
-0.00163112
-0.00256845
-0.00273001
-0.00271074
-0.000932735
-0.00078031
-0.000994527
-0.000899116
-0.000841891
-0.000299752
-0.000256202
-0.000239058
-0.000209458
-0.00013439
-0.000229687
-0.000166562
-8.78111e-05
-2.45582e-05
-1.14244e-05
-1.29333e-05
-1.03487e-05
-2.21825e-05
-1.48879e-05
-4.36834e-05
-4.46647e-05
-6.40761e-05
-7.38725e-05
-0.000131062
-0.000131222
-0.000247867
-0.000145963
-0.000246695
-0.000275668
-0.000474346
-0.000474405
-0.000850889
-0.000521043
-0.000850295
-0.000923962
-0.00152918
-0.00152973
-0.0025741
-0.00163893
-0.00257982
-0.00272392
-0.00433245
-0.00433698
-0.00681202
-0.00451085
-0.00684395
-0.00701427
-0.0107188
-0.0107488
-0.0156788
-0.0108069
-0.0158022
-0.0156893
-0.0229557
-0.0230987
-0.0312288
-0.0223112
-0.0315401
-0.0300808
-0.0418959
-0.0422641
-0.0468895
-0.041058
-0.0469409
-0.0458104
-0.0534637
-0.051695
-0.0447331
-0.0586319
-0.0356438
-0.0441178
-0.0304731
-0.0290307
-0.0324362
-0.0314299
-0.0307233
-0.0337663
-0.0342484
-0.0256667
-0.0178349
-0.0176588
-0.007818
-0.00778896
-0.00497372
-0.00297394
-0.00302593
-0.00300198
-0.00102893
-0.000313022
-8.67479e-05
-2.424e-05
-1.13258e-05
-5.35718e-06
-9.15049e-06
-7.97388e-06
-1.28935e-05
-1.34262e-05
-8.93997e-06
-9.25408e-06
-1.22253e-05
-8.23999e-06
-1.0179e-05
-8.29392e-06
-7.79678e-06
-9.71593e-06
-7.67306e-06
-1.01682e-05
-7.96631e-06
-8.53969e-06
-1.30712e-05
-1.08007e-05
-1.11487e-05
-1.11373e-05
-1.077e-05
-1.07533e-05
-1.03933e-05
-2.35504e-05
-1.11265e-05
-1.07627e-05
-1.07627e-05
-2.35974e-05
-1.11375e-05
-1.34872e-05
-2.7541e-05
-2.67283e-05
-2.17936e-05
-2.13733e-05
-1.9388e-05
-8.04838e-05
-0.000297932
-0.000981069
-0.00283742
-0.00716631
-0.00687673
-0.00600709
-0.00744606
-0.0069539
-0.00657268
-0.00626924
-0.0100362
-0.0113132
-0.016235
-0.0251976
-0.023143
-0.0217377
-0.0148917
-0.0150654
-0.0107588
-0.0121163
-0.0121321
-0.0076925
-0.0171701
-0.0330613
-0.0549222
-0.0553416
-0.056695
-0.0430572
-0.0378724
-0.041926
-0.0500239
-0.0455569
-0.0542345
-0.0831118
-0.0747672
-0.0684093
-0.0712375
-0.0436275
-0.0566994
-0.0591846
-0.0722163
-0.0445198
-0.0582157
-0.0593075
-0.0725479
-0.0447342
-0.0575155
-0.0601122
-0.0725491
-0.0460806
-0.0572988
-0.0645771
-0.0909461
-0.0767658
-0.0752207
-0.0961083
-0.0951934
-0.0739761
-0.0524665
-0.0719776
-0.0596738
-0.0499694
-0.0560057
-0.064328
-0.0529445
-0.0671151
-0.0785023
-0.0500373
-0.0528329
-0.0454424
-0.0472056
-0.0568881
-0.042762
-0.0291827
-0.0323936
-0.0231581
-0.0151726
-0.0156951
-0.0107245
-0.00673051
-0.00667999
-0.00431883
-0.00261046
-0.00249176
-0.00151646
-0.000881152
-0.000813151
-0.000464409
-0.000260039
-0.000231519
-0.000124485
-6.60014e-05
-5.8252e-05
-3.01053e-05
-1.58508e-05
-1.4752e-05
-7.78891e-06
-7.42617e-06
-8.63343e-06
-1.48246e-05
-3.45197e-05
-6.50033e-05
-3.45996e-05
-3.36909e-05
-1.35271e-05
-1.13491e-05
-9.2532e-06
-5.37862e-06
-8.90119e-06
-9.23988e-06
-1.22691e-05
-1.34692e-05
-1.18362e-05
-2.50847e-05
-8.87647e-05
-0.000318318
-0.000317619
-0.00104508
-0.003048
-0.00290341
-0.00262682
-0.00247997
-0.00233186
-0.00402161
-0.00438537
-0.00157536
-0.00180174
-0.00181428
-0.00153295
-0.00152775
-0.000924611
-0.000849048
-0.00152512
-0.00163691
-0.00257664
-0.00432295
-0.00450653
-0.00683487
-0.0106974
-0.0107934
-0.0157597
-0.0229284
-0.0222767
-0.0313638
-0.0248362
-0.0254347
-0.0438612
-0.0437303
-0.0331304
-0.0170903
-0.00766023
-0.0029964
-0.00103
-0.000314525
-8.75287e-05
-2.46591e-05
-1.16276e-05
-5.45636e-06
-9.16281e-06
-1.33095e-05
-1.12656e-05
-2.42328e-05
-8.68753e-05
-0.000314253
-0.00103258
-0.00300561
-0.00768119
-0.0171404
-0.0331694
-0.0558407
-0.0553567
-0.0514018
-0.103942
-0.074796
-0.0716827
-0.0593261
-0.072502
-0.0447723
-0.0448943
-0.048309
-0.0740708
-0.0458737
-0.0465772
-0.0474943
-0.0744662
-0.0460889
-0.0467887
-0.047287
-0.074517
-0.0477017
-0.0485507
-0.0542344
-0.0955271
-0.0776084
-0.0756583
-0.0759884
-0.0753362
-0.0571289
-0.0516634
-0.0545178
-0.095189
-0.0538417
-0.0579219
-0.0735855
-0.0555765
-0.0494438
-0.0542447
-0.0671205
-0.052275
-0.0663576
-0.0663943
-0.0534296
-0.0675212
-0.0549574
-0.0495264
-0.0555179
-0.0537852
-0.0535898
-0.0540455
-0.0533826
-0.0495315
-0.0523871
-0.0570304
-0.0737434
-0.0650476
-0.0539279
-0.0694184
-0.0611791
-0.053976
-0.0844885
-0.0444808
-0.054537
-0.0431068
-0.0468711
-0.0374485
-0.0267966
-0.0280573
-0.0204509
-0.0142167
-0.0139304
-0.00964257
-0.0062288
-0.00606916
-0.00388066
-0.00247212
-0.00226181
-0.00137736
-0.000809586
-0.000743083
-0.000418801
-0.000242345
-0.000208758
-0.000112893
-6.03348e-05
-5.15427e-05
-2.71948e-05
-1.45045e-05
-1.25536e-05
-6.23348e-06
-1.01726e-05
-7.8559e-06
-5.14918e-06
-8.84754e-06
-7.13572e-06
-7.06515e-06
-8.72147e-06
-7.10084e-06
-7.4727e-06
-8.98755e-06
-7.42048e-06
-7.63847e-06
-9.25486e-06
-7.58176e-06
-7.45231e-06
-9.06822e-06
-5.34631e-06
-8.89764e-06
-1.21806e-05
-1.44809e-05
-1.96028e-05
-3.40802e-05
-3.67053e-05
-6.40173e-05
-6.33954e-05
-7.30746e-05
-0.00012813
-0.000137415
-0.000243989
-0.000252355
-0.000227358
-0.000498361
-0.000401709
-0.0008773
-0.000767727
-0.00161465
-0.00127312
-0.00267327
-0.00226499
-0.004577
-0.00352609
-0.00709741
-0.00581259
-0.011274
-0.00845724
-0.0163955
-0.012957
-0.0241243
-0.0176457
-0.0329081
-0.0250534
-0.0442648
-0.0317563
-0.0373364
-0.0419182
-0.040982
-0.0296927
-0.031623
-0.0211292
-0.0230532
-0.0223934
-0.0153377
-0.0158435
-0.0101717
-0.0107533
-0.010495
-0.00687589
-0.00687661
-0.00425281
-0.00435827
-0.00426524
-0.002675
-0.00259732
-0.00153796
-0.00153092
-0.00150833
-0.000905959
-0.000853143
-0.00048604
-0.000470168
-0.00046669
-0.000268461
-0.000246007
-0.000133311
-0.000126769
-0.000127899
-7.10144e-05
-6.27378e-05
-3.23623e-05
-3.25468e-05
-3.25412e-05
-1.84478e-05
-1.2708e-05
-7.78564e-06
-6.74971e-06
-8.54808e-06
-7.35969e-06
-7.71098e-06
-1.45634e-05
-1.55873e-05
-2.19609e-05
-1.02694e-05
-1.28021e-05
-1.33051e-05
-9.10343e-06
-1.21249e-05
-1.43995e-05
-1.47361e-05
-1.91492e-05
-3.33127e-05
-3.43068e-05
-6.43991e-05
-5.9487e-05
-0.000135535
-0.000110376
-0.000165358
-4.34673e-05
-4.43956e-05
-3.36966e-05
-2.11517e-05
-1.46826e-05
-1.00252e-05
-2.17586e-05
-1.02295e-05
-8.18773e-06
-1.0104e-05
-8.4791e-06
-8.23944e-06
-8.51545e-06
-7.89975e-06
-1.51424e-05
-2.17424e-05
-1.96452e-05
-8.11456e-05
-8.05942e-05
-7.3974e-05
-0.000129369
-0.00012931
-7.15493e-05
-0.000165593
-4.38719e-05
-4.46728e-05
-3.39752e-05
-3.69841e-05
-6.40197e-05
-0.000130493
-0.000145611
-0.000246407
-0.000472702
-0.000520092
-0.000597011
-0.000298266
-0.000275844
-0.000982408
-0.00284203
-0.00272773
-0.00283485
-0.000981611
-0.000298817
-0.000275966
-0.000296156
-8.00022e-05
-7.33335e-05
-6.31193e-05
-0.000128759
-0.000136265
-0.000253725
-0.000500692
-0.000881801
-0.000403796
-0.000463843
-0.000228602
-0.000230994
-0.000111244
-0.000124236
-5.99092e-05
-5.80573e-05
-6.57815e-05
-6.11824e-05
-0.00011382
-0.000134487
-0.000211088
-0.00024743
-0.00027017
-0.000468902
-0.000510648
-0.000831566
-0.000843881
-0.000915998
-0.00150895
-0.00161818
-0.00254224
-0.00254664
-0.00268227
-0.00425043
-0.00443152
-0.00670479
-0.00671089
-0.00685969
-0.0105019
-0.0102319
-0.0154069
-0.0224285
-0.0211994
-0.0307977
-0.040625
-0.0374947
-0.0419622
-0.0317872
-0.0165796
-0.00754674
-0.00299193
-0.00103708
-0.000316138
-8.65069e-05
-2.5842e-05
-1.25801e-05
-1.05551e-05
-1.07805e-05
-1.08272e-05
-1.02464e-05
-1.50725e-05
-2.16583e-05
-2.12955e-05
-1.47142e-05
-1.00555e-05
-8.19435e-06
-1.01423e-05
-7.67856e-06
-7.68516e-06
-7.70892e-06
-1.47488e-05
-2.12318e-05
-1.92127e-05
-3.34903e-05
-3.44908e-05
-4.17897e-05
-4.28995e-05
-2.67062e-05
-1.3051e-05
-1.0798e-05
-1.07805e-05
-2.35867e-05
-1.04236e-05
-1.05226e-05
-2.1803e-05
-4.28484e-05
-8.0126e-05
-7.4946e-05
-1.89336e-05
-1.32688e-05
-3.29284e-05
-1.8642e-05
-3.27626e-05
-3.56241e-05
-6.17959e-05
-6.33626e-05
-7.37287e-05
-0.00012994
-0.000144772
-0.000246105
-0.000274681
-0.000469082
-0.000515109
-0.000842627
-0.000839768
-0.000911748
-0.0015084
-0.00155578
-0.00253931
-0.00426583
-0.00427943
-0.00670466
-0.0070853
-0.00280554
-0.000970635
-0.000294898
-7.96844e-05
-4.27401e-05
-2.66248e-05
-1.30101e-05
-4.44362e-05
-8.83031e-05
-4.30505e-05
-4.20356e-05
-4.30449e-05
-4.45345e-05
-8.83554e-05
-8.12965e-05
-7.4673e-05
-0.000299225
-0.000276954
-0.000982369
-0.00092451
-0.00104097
-0.00302521
-0.0077293
-0.00781024
-0.0174508
-0.016657
-0.015721
-0.0315541
-0.0497466
-0.0451559
-0.0669809
-0.0531328
-0.106392
-0.0734128
-0.0723681
-0.0640531
-0.0832807
-0.0778086
-0.0796402
-0.0774091
-0.105826
-0.0725931
-0.0715999
-0.0593511
-0.0721752
-0.0446192
-0.0456304
-0.0489404
-0.0736819
-0.0456705
-0.047455
-0.0482873
-0.0740781
-0.045894
-0.0475283
-0.0482034
-0.0741167
-0.0476043
-0.0489628
-0.0641527
-0.0417877
-0.0300005
-0.0300276
-0.0313738
-0.0334162
-0.0215871
-0.0248292
-0.0182709
-0.0218589
-0.0237924
-0.0154627
-0.0223505
-0.031269
-0.0299641
-0.0404848
-0.0444114
-0.0313242
-0.0297681
-0.0276888
-0.0376534
-0.0389197
-0.0527781
-0.0547831
-0.0535465
-0.0407361
-0.0295415
-0.0402536
-0.0383954
-0.0404131
-0.0294462
-0.0402281
-0.0384393
-0.0404815
-0.0295528
-0.0403342
-0.0544888
-0.0533407
-0.0497304
-0.0489536
-0.0592133
-0.0743786
-0.0571938
-0.0766303
-0.0776126
-0.0744648
-0.0579209
-0.0538628
-0.0542729
-0.0947681
-0.0546842
-0.0611644
-0.0923078
-0.0787164
-0.0752157
-0.0572748
-0.0540542
-0.0647169
-0.0488372
-0.0484796
-0.0636137
-0.0408605
-0.0317532
-0.0316998
-0.0165836
-0.00756027
-0.00299954
-0.00104017
-0.000317183
-8.68091e-05
-2.59381e-05
-1.26341e-05
-1.04343e-05
-1.07997e-05
-1.087e-05
-8.24894e-06
-7.76043e-06
-9.10578e-06
-7.56009e-06
-7.65232e-06
-9.96741e-06
-1.01498e-05
-1.00579e-05
-7.61615e-06
-7.18338e-06
-8.90642e-06
-7.12416e-06
-1.32881e-05
-7.1776e-06
-8.81707e-06
-7.69884e-06
-9.67065e-06
-7.6604e-06
-1.47084e-05
-1.00494e-05
-1.02376e-05
-2.17979e-05
-1.08057e-05
-1.08009e-05
-1.02427e-05
-1.00047e-05
-8.15168e-06
-7.52473e-06
-9.2753e-06
-7.53991e-06
-1.50463e-05
-2.16516e-05
-2.12859e-05
-1.89633e-05
-1.50039e-05
-2.23488e-05
-1.03917e-05
-1.29903e-05
-1.14229e-05
-2.45973e-05
-8.79874e-05
-0.0003174
-0.0010407
-0.00302465
-0.00772158
-0.0172144
-0.0172377
-0.0333764
-0.0335927
-0.0554696
-0.0519713
-0.0528306
-0.0530804
-0.080069
-0.0608591
-0.0724485
-0.0747428
-0.103666
-0.0512099
-0.0530423
-0.0531499
-0.052316
-0.0541074
-0.054962
-0.0787925
-0.0475018
-0.0490168
-0.0447544
-0.0538037
-0.067064
-0.0478409
-0.0307192
-0.0332775
-0.0559149
-0.0556754
-0.0436222
-0.0442254
-0.0259177
-0.012277
-0.00505188
-0.0018321
-0.000586183
-0.000579493
-0.000166738
-0.000166743
-4.47206e-05
-4.39701e-05
-8.19226e-05
-0.000300129
-0.000987199
-0.00286106
-0.00727262
-0.0161323
-0.0250178
-0.0246906
-0.0248726
-0.011914
-0.00494717
-0.0018015
-0.00179513
-0.000578473
-0.00058339
-0.000166861
-0.000129349
-0.000136791
-0.000254213
-0.00050209
-0.000882968
-0.00049694
-0.000470745
-0.00024586
-0.000138417
-0.000168994
-8.01796e-05
-7.3753e-05
-6.34269e-05
-2.13024e-05
-1.47961e-05
-7.53018e-06
-1.93644e-05
-4.29579e-05
-4.18398e-05
-2.06777e-05
-1.05248e-05
-1.05477e-05
-1.01454e-05
-8.46603e-06
-8.76801e-06
-1.08846e-05
-1.0473e-05
-2.36412e-05
-1.08638e-05
-1.01323e-05
-8.22576e-06
-9.65663e-06
-1.08515e-05
-8.20097e-06
-7.67067e-06
-7.85666e-06
-7.63294e-06
-7.62204e-06
-7.80965e-06
-1.01279e-05
-9.61773e-06
-1.04706e-05
-1.00244e-05
-1.00676e-05
-2.0558e-05
-9.89731e-06
-7.57967e-06
-4.16204e-05
-4.27872e-05
-2.66277e-05
-1.30047e-05
-4.44532e-05
-4.28612e-05
-8.01224e-05
-7.50535e-05
-6.01484e-05
-0.000279796
-0.000229258
-0.000296612
-0.000274859
-0.000976199
-0.000919736
-0.000846622
-0.0015222
-0.0016287
-0.00269041
-0.00462801
-0.00715868
-0.00432421
-0.00431762
-0.00256575
-0.00156781
-0.00185105
-0.000924482
-0.00077361
-0.00267937
-0.00228526
-0.00282275
-0.00270803
-0.00283593
-0.00271979
-0.00715608
-0.00699647
-0.0157086
-0.0157265
-0.0151522
-0.0136629
-0.0159622
-0.0119812
-0.00506695
-0.00186533
-0.000600591
-0.000169947
-0.00017046
-0.00017098
-0.000320643
-0.000596895
-0.000592316
-0.00104845
-0.00184282
-0.00181742
-0.00104821
-0.000320499
-0.000170443
-0.000169875
-0.000170579
-8.9691e-05
-0.000322771
-0.00105214
-0.00302256
-0.00301745
-0.00498228
-0.00488938
-0.00759257
-0.0117363
-0.0114732
-0.0166226
-0.0239392
-0.0244936
-0.0299541
-0.0599219
-0.0453805
-0.0637551
-0.0417985
-0.0406166
-0.059158
-0.0472275
-0.0627972
-0.0726921
-0.0796304
-0.0771828
-0.105013
-0.0723546
-0.061
-0.0573816
-0.0783272
-0.0792848
-0.054814
-0.0613057
-0.0734786
-0.0792438
-0.0740145
-0.0723759
-0.104408
-0.0775173
-0.0798835
-0.0798853
-0.0800947
-0.0799336
-0.0772219
-0.0784571
-0.0706854
-0.0601156
-0.0725446
-0.0460931
-0.0447633
-0.0482197
-0.0741377
-0.0475608
-0.0464621
-0.0473056
-0.0745647
-0.0476209
-0.0466868
-0.0470813
-0.0745634
-0.0488152
-0.0544365
-0.0951334
-0.0799607
-0.0747188
-0.0581721
-0.0538118
-0.0636477
-0.0408554
-0.0317507
-0.0166089
-0.007573
-0.00300716
-0.00104445
-0.000319353
-8.8007e-05
-0.000169532
-0.000168832
-0.000138141
-0.000244992
-0.000469262
-0.000496367
-0.000844529
-0.00151894
-0.00162549
-0.00268834
-0.00462165
-0.00715521
-0.00355854
-0.00431886
-0.00228186
-0.00249027
-0.00128288
-0.00151584
-0.00077197
-0.000811931
-0.000879735
-0.000825222
-0.00137989
-0.00154886
-0.00228486
-0.00260779
-0.00268709
-0.00427854
-0.00442405
-0.00671674
-0.00672835
-0.00688499
-0.0104321
-0.0105711
-0.0154049
-0.0152639
-0.0222502
-0.0218337
-0.0307551
-0.0308512
-0.0295166
-0.0405513
-0.0384583
-0.0403649
-0.0403843
-0.0294796
-0.0307634
-0.0308003
-0.040302
-0.0383885
-0.040745
-0.0299011
-0.0156108
-0.00710574
-0.00281542
-0.000974441
-0.000296214
-0.000279457
-0.000923609
-0.00097524
-0.000917349
-0.00282101
-0.00270344
-0.00256132
-0.0043113
-0.00432373
-0.00679252
-0.0106849
-0.0114761
-0.016598
-0.0248109
-0.033427
-0.0182687
-0.0231745
-0.0132584
-0.0156968
-0.00861957
-0.0107284
-0.00588744
-0.00667828
-0.00672397
-0.00635091
-0.00972698
-0.0103505
-0.0143324
-0.0158773
-0.0154634
-0.0223528
-0.021845
-0.0312437
-0.0307123
-0.029544
-0.0407022
-0.0383597
-0.0404997
-0.0443867
-0.0299676
-0.031317
-0.0297394
-0.0376267
-0.038893
-0.0408361
-0.0323341
-0.0276586
-0.0291611
-0.0323975
-0.0427912
-0.0258146
-0.0306485
-0.0160817
-0.00724431
-0.00284745
-0.000981315
-0.000297837
-8.11337e-05
-2.21103e-05
-1.033e-05
-7.41252e-06
-7.77917e-06
-6.30027e-06
-7.87299e-06
-1.27263e-05
-1.28315e-05
-1.02771e-05
-5.18487e-06
-7.9051e-06
-1.16453e-05
-1.44287e-05
-1.37041e-05
-1.93906e-05
-3.3857e-05
-3.68285e-05
-6.40656e-05
-7.40598e-05
-0.000129858
-0.00014448
-0.000245824
-0.000244033
-0.000272626
-0.00046686
-0.000493628
-0.00083959
-0.000577664
-0.000572484
-0.000468971
-0.00016562
-0.000129715
-8.75128e-05
-8.68743e-05
-2.42644e-05
-1.1324e-05
-1.2946e-05
-9.10882e-06
-1.07027e-05
-1.28437e-05
-2.0207e-05
-1.47278e-05
-2.74858e-05
-3.27165e-05
-6.31965e-05
-7.1618e-05
-0.000128671
-0.00014236
-0.000239969
-0.000245375
-0.000274307
-0.00046959
-0.000515867
-0.000843983
-0.000915197
-0.00150794
-0.0016164
-0.00254249
-0.00254033
-0.00267794
-0.00424991
-0.00474839
-0.00176087
-0.00150774
-0.00101913
-0.00101711
-0.000312032
-0.000165585
-0.00012883
-4.41008e-05
-3.36623e-05
-2.35018e-05
-4.23304e-05
-5.22285e-05
-7.69538e-05
-8.48174e-05
-0.000161982
-0.000127982
-0.000291884
-0.000242239
-0.00042296
-0.000488469
-0.000857653
-0.00091029
-0.00151418
-0.00160886
-0.00252947
-0.00255048
-0.00268885
-0.004251
-0.00443523
-0.00671352
-0.00686225
-0.0104405
-0.0105687
-0.015393
-0.0154289
-0.0152733
-0.0222484
-0.0155872
-0.0116689
-0.00494643
-0.00487713
-0.00300787
-0.00104464
-0.000319381
-8.80167e-05
-0.000170629
-0.000170072
-0.000595439
-0.000596587
-0.000296263
-0.000974754
-0.00281653
-0.00502491
-0.00497194
-0.00183838
-0.00181402
-0.000591101
-0.000593634
-0.000169552
-0.000144649
-0.000129839
-7.38653e-05
-0.000129561
-0.000245878
-0.000274258
-0.000468059
-0.000468811
-0.000245833
-0.000244866
-0.000274026
-0.000468897
-0.000467288
-0.000245183
-0.0001287
-7.35793e-05
-0.000129657
-6.37027e-05
-6.39656e-05
-6.39995e-05
-6.34342e-05
-7.32978e-05
-0.00012795
-0.000129471
-0.000144414
-0.000244053
-0.000273167
-0.000465155
-0.000468261
-0.000515029
-0.000839405
-0.000913323
-0.00150244
-0.00150598
-0.00150494
-0.00150693
-0.000914255
-0.000843425
-0.000843336
-0.000515704
-0.000841602
-0.00091562
-0.0015075
-0.00150836
-0.00084355
-0.000511024
-0.000468724
-0.00047373
-0.000270125
-0.00024015
-0.000142424
-0.000128564
-0.000128218
-7.1579e-05
-6.18215e-05
-6.3281e-05
-3.35943e-05
-1.93207e-05
-3.37566e-05
-3.67765e-05
-3.40901e-05
-1.95263e-05
-3.39905e-05
-3.6707e-05
-3.37187e-05
-1.92374e-05
-3.33574e-05
-6.30713e-05
-6.13017e-05
-3.54169e-05
-4.37014e-05
-2.39057e-05
-1.11789e-05
-5.31103e-06
-8.99732e-06
-8.88003e-06
-9.12737e-06
-9.15548e-06
-5.41703e-06
-1.147e-05
-1.33701e-05
-8.88919e-06
-9.06172e-06
-5.33563e-06
-9.07109e-06
-7.34321e-06
-7.40302e-06
-8.16968e-06
-1.21241e-05
-1.46973e-05
-1.44466e-05
-1.4461e-05
-1.4621e-05
-1.36374e-05
-1.42812e-05
-1.15431e-05
-7.56331e-06
-7.29607e-06
-9.02049e-06
-7.38687e-06
-1.46502e-05
-2.12075e-05
-7.98577e-05
-8.07466e-05
-0.000297154
-0.00097549
-0.00183265
-0.00161825
-0.00254529
-0.00268049
-0.00424295
-0.00424856
-0.00424827
-0.00426631
-0.00268845
-0.00254472
-0.00255009
-0.0016102
-0.00151382
-0.0015431
-0.000910248
-0.000832305
-0.000858086
-0.000489429
-0.000423797
-0.000746554
-0.000826537
-0.00138198
-0.00228835
-0.00245943
-0.00392976
-0.00612293
-0.00635957
-0.00973829
-0.0143488
-0.0143411
-0.0208612
-0.0235368
-0.0168018
-0.0114027
-0.00749435
-0.00480352
-0.00290936
-0.00176831
-0.000985492
-0.000569951
-0.000292193
-0.000242475
-0.000211589
-0.000247525
-0.000134809
-0.000114057
-5.23823e-05
-6.13272e-05
-7.70135e-05
-0.00016203
-4.23209e-05
-2.75509e-05
-3.28027e-05
-3.29739e-05
-1.86212e-05
-3.27233e-05
-3.56266e-05
-4.40307e-05
-2.33992e-05
-1.06741e-05
-5.18963e-06
-7.90426e-06
-1.02827e-05
-6.30682e-06
-1.27366e-05
-1.47331e-05
-2.02001e-05
-1.28254e-05
-7.88034e-06
-1.28315e-05
-1.44149e-05
-1.36874e-05
-1.16174e-05
-1.28914e-05
-1.12327e-05
-2.40369e-05
-8.62663e-05
-8.4551e-05
-0.000308369
-0.00101595
-0.0029496
-0.00268705
-0.00427836
-0.00439384
-0.0026088
-0.00253162
-0.00177759
-0.000575422
-0.000165568
-0.000166624
-0.000310384
-0.00101261
-0.00292152
-0.00481554
-0.00442805
-0.00672777
-0.00688517
-0.0104263
-0.0105139
-0.0105174
-0.0109276
-0.00691332
-0.00672231
-0.0069133
-0.00429158
-0.00356122
-0.00496535
-0.00491907
-0.0118199
-0.0119399
-0.0106944
-0.0114877
-0.0165996
-0.0132688
-0.0149308
-0.00678052
-0.00589405
-0.00713252
-0.00696801
-0.00680147
-0.0156825
-0.0155962
-0.0156985
-0.0103892
-0.0118846
-0.00710848
-0.0156157
-0.0243626
-0.0239465
-0.0117215
-0.0114666
-0.00488244
-0.004955
-0.0075748
-0.00759757
-0.00759238
-0.0030172
-0.00184374
-0.00183769
-0.000595016
-0.000590972
-0.000593473
-0.000596136
-0.00184998
-0.00156707
-0.00181136
-0.000581815
-0.000576904
-0.000579428
-0.00058032
-0.000166717
-0.000165929
-4.43821e-05
-4.36433e-05
-1.2863e-05
-0.00016606
-0.00180237
-0.00179308
-0.00491819
-0.00495008
-0.0050058
-0.011908
-0.0118239
-0.0119479
-0.00496499
-0.0156791
-0.0229819
-0.0215943
-0.0313285
-0.0250468
-0.0247086
-0.0436146
-0.0436498
-0.0478222
-0.0671696
-0.0952456
-0.0960683
-0.052461
-0.0645673
-0.0909578
-0.0767584
-0.0571427
-0.0753055
-0.0761672
-0.0580187
-0.054238
-0.09571
-0.0781627
-0.0755214
-0.100381
-0.0851428
-0.0852057
-0.0799818
-0.0727789
-0.0474374
-0.0630078
-0.0407176
-0.0316745
-0.0166222
-0.0117438
-0.00498556
-0.00497094
-0.00715437
-0.00712975
-0.00695993
-0.0156783
-0.0155846
-0.0149247
-0.00677669
-0.00267739
-0.00438894
-0.00691052
-0.00691298
-0.0105174
-0.0105734
-0.0155358
-0.0154258
-0.0153178
-0.022198
-0.0218159
-0.0222379
-0.0155855
-0.00709517
-0.00495295
-0.0050226
-0.0118805
-0.010391
-0.0117199
-0.0114654
-0.00488179
-0.00181371
-0.00183194
-0.000975378
-0.000297218
-8.0777e-05
-0.000130132
-0.000166526
-0.000244857
-4.47764e-05
-6.37559e-05
-3.41914e-05
-1.34475e-05
-1.47359e-05
-9.212e-06
-5.42622e-06
-1.16225e-05
-2.46486e-05
-0.000574406
-0.000575016
-0.000467432
-0.000309046
-0.000569655
-0.000745022
-0.000984408
-0.00101768
-0.00176734
-0.00154102
-0.00290631
-0.00245658
-0.00392453
-0.00428547
-0.00611376
-0.00480034
-0.0074863
-0.00750154
-0.00295376
-0.00177546
-0.00150833
-0.00176521
-0.00150777
-0.00293282
-0.00480793
-0.00426538
-0.00475959
-0.0067132
-0.00740208
-0.0113437
-0.01051
-0.011395
-0.0109169
-0.0167851
-0.0143241
-0.0208416
-0.0218393
-0.0237745
-0.023522
-0.0166063
-0.0317741
-0.0495212
-0.0504556
-0.054209
-0.0602554
-0.0550758
-0.0400519
-0.0231638
-0.0224569
-0.0162589
-0.0309938
-0.0485103
-0.060716
-0.0558753
-0.0394215
-0.0226683
-0.011165
-0.0154249
-0.0104379
-0.00739088
-0.00293305
-0.0162182
-0.0309508
-0.0485286
-0.0608861
-0.0559718
-0.0394506
-0.0226426
-0.0111403
-0.0104392
-0.0113655
-0.0048298
-0.00178611
-0.000972326
-0.000295941
-8.06197e-05
-6.48888e-05
-0.000260256
-0.00280366
-0.00704795
-0.0154092
-0.0231824
-0.0401564
-0.0489569
-0.0622922
-0.0558921
-0.0475146
-0.052951
-0.0543749
-0.0485205
-0.031056
-0.0307692
-0.0161353
-0.00734812
-0.00291161
-0.00100902
-0.000309052
-8.58226e-05
-8.66821e-05
-2.4332e-05
-4.47276e-05
-4.46211e-05
-1.33347e-05
-1.20986e-05
-1.27837e-05
-1.05529e-05
-2.31278e-05
-8.3689e-05
-0.000164605
-0.000141716
-0.000238542
-0.000244469
-0.000295414
-0.00016928
-0.000170299
-4.43695e-05
-0.000169175
-0.000168185
-7.45518e-05
-1.88146e-05
-1.31863e-05
-3.41565e-05
-2.70408e-05
-0.000278195
-0.000594045
-0.000592802
-0.000590039
-0.000592357
-0.00182888
-0.00181122
-0.00183057
-0.000972402
-0.00281107
-0.00281459
-0.00709762
-0.0116809
-0.0105743
-0.0104386
-0.00685843
-0.010421
-0.0154173
-0.0152539
-0.0221926
-0.0222444
-0.0153922
-0.0154433
-0.0153177
-0.0221818
-0.0224684
-0.0154228
-0.0105828
-0.0155479
-0.015882
-0.010363
-0.00862299
-0.0113643
-0.00749289
-0.0165906
-0.031746
-0.0323577
-0.040847
-0.0504549
-0.0542283
-0.0494841
-0.0602973
-0.055083
-0.0401078
-0.0232076
-0.0162087
-0.00737692
-0.0111923
-0.00477056
-0.00672069
-0.00671025
-0.00671491
-0.00670608
-0.00687433
-0.010461
-0.010431
-0.0105705
-0.0154072
-0.0153037
-0.0223145
-0.0222296
-0.0218285
-0.0307606
-0.0308883
-0.0308112
-0.0218194
-0.024321
-0.0239112
-0.0166119
-0.0166277
-0.0233315
-0.0316761
-0.0299759
-0.0300921
-0.0601671
-0.0454841
-0.0448532
-0.0628347
-0.0726354
-0.0782006
-0.0772569
-0.0800309
-0.0801333
-0.0719797
-0.0465139
-0.061805
-0.0391846
-0.0593859
-0.0595792
-0.0593872
-0.0598118
-0.0604064
-0.057259
-0.0784107
-0.104445
-0.052449
-0.0778156
-0.0823739
-0.0799495
-0.085341
-0.0804755
-0.0752289
-0.10165
-0.0752529
-0.0489657
-0.0544865
-0.0952506
-0.0538897
-0.0634665
-0.0486797
-0.0600872
-0.0393144
-0.0316763
-0.0233488
-0.0239427
-0.0239494
-0.0243562
-0.023881
-0.0116766
-0.0238937
-0.0233734
-0.0114629
-0.01168
-0.00495138
-0.00500543
-0.00709939
-0.0156163
-0.0155885
-0.0238862
-0.0299052
-0.0285743
-0.025828