/*--------------------------------*- C++ -*----------------------------------*\
| =========                 |                                                 |
| \\      /  F ield         | OpenFOAM: The Open Source CFD Toolbox           |
|  \\    /   O peration     | Version:  2306                                  |
|   \\  /    A nd           | Website:  www.openfoam.com                      |
|    \\/     M anipulation  |                                                 |
\*---------------------------------------------------------------------------*/
FoamFile
{
    version     2.0;
    format      ascii;
    arch        "LSB;label=32;scalar=64";
    class       volScalarField;
    location    "0.6";
    object      gradTx;
}
// * * * * * * * * * * * * * * * * * * * * * * * * * * * * * * * * * * * * * //

dimensions      [0 -1 0 1 0 0 0];

internalField   nonuniform List<scalar> 
5322
(
-0.249019
0.00648146
0.00772484
0.0006957
-0.000226116
-0.000254126
-7.84259e-05
4.67847e-05
9.23614e-06
-0.000225245
-0.000899765
0.00965427
0.014855
-0.204637
-0.00539755
0.356471
-0.280097
-0.00434236
-0.213926
0.138618
-0.188432
0.165198
-0.174749
0.177578
-0.180026
0.17521
-0.175637
0.184972
-0.182403
0.185509
-0.176048
0.203595
-0.15276
0.2373
0.00487964
0.302417
0.21334
-0.0850174
0.238625
-0.0137526
-0.226329
0.227526
-0.0137785
-0.242066
0.240582
-0.00827747
-0.257286
0.224866
-0.00565192
-0.269704
-0.266251
-0.386221
-0.121383
0.257505
-0.0164819
-0.424791
-0.0121676
0.405744
-0.00487561
-0.405478
-0.00175233
0.395151
-0.00226546
-0.398267
-9.40007e-05
0.389177
0.00502172
-0.394413
0.0173406
0.323218
0.0134021
-0.341565
0.387091
-0.400486
0.385514
-0.392609
0.393329
-0.39261
0.446956
-0.322524
0.157485
-0.211021
-0.137031
0.235507
0.0240121
-0.130796
0.157397
-0.424897
-0.157708
0.502415
-0.0217198
0.00896821
0.0164969
0.0762379
0.354186
-0.0814175
-0.00886491
-0.0394133
0.162256
-0.376619
-0.376891
0.835324
-0.038803
0.273257
0.444893
-0.00430925
0.0028503
0.00366861
0.00218668
0.00104429
0.000398465
-0.000116255
-0.00104808
-0.00254623
0.00397931
-0.00134976
-0.117663
-0.116059
0.0123192
0.0739567
0.00418651
0.112774
-0.134889
-0.0101014
-0.0311019
0.209125
0.17201
0.0478093
0.134504
0.0869215
0.0660856
0.144411
0.0728783
0.0781899
0.146925
0.063799
0.123071
0.167014
0.189332
0.00814206
-0.138785
0.0076406
0.0924984
-0.112069
-0.120269
0.0172274
0.0496605
0.0273096
-0.0941233
-0.103455
0.0193946
0.0307772
0.0371057
-0.102092
-0.0968554
0.0195573
0.020219
0.058771
-0.111993
0.146154
-0.31524
-0.422481
0.364905
-0.428121
-0.0179753
-0.293853
0.00244622
0.286195
-0.0686963
0.340613
0.168837
0.25178
-0.377712
0.147306
-0.32546
0.216945
0.282827
-0.3467
0.00804672
-0.294758
0.260364
0.324081
-0.345765
-0.0017453
-0.289798
0.277216
0.338674
-0.349001
-0.000163833
-0.291231
0.28553
0.346772
-0.35569
0.000702326
-0.29695
0.289251
0.352571
-0.366536
0.00117963
-0.306784
0.289369
0.356631
-0.381175
0.00187135
-0.318841
0.285346
0.358246
-0.394928
0.00339379
-0.326442
0.273225
0.341034
-0.073511
0.155034
-0.37375
-0.381144
0.840339
-0.0295223
-0.0322607
0.0184973
0.0823267
0.351947
-0.0640212
-0.00527144
-0.0716672
0.147769
-0.380738
-0.374584
0.835494
-0.0469577
0.273315
-0.00918133
0.00477497
0.00439974
0.00279239
0.00142651
0.000603639
-5.1186e-06
-0.000965873
-0.00231184
0.00397167
-0.00123795
0.0934838
-0.103772
0.103413
-0.0939129
0.000192676
0.0940138
-0.0888332
-0.000492129
-0.11183
6.46952e-05
-0.0940283
-7.04331e-05
0.0886121
0.00348649
0.104449
-0.00853144
-0.11293
0.000366969
0.11168
-0.000112182
-1.42549e-05
0.19789
-0.340453
0.340053
-0.336323
0.354704
-0.363802
0.381751
-0.382157
0.390195
-0.39072
0.396686
-0.397703
0.404611
-0.404638
0.414253
-0.41081
0.423391
-0.410276
0.425158
-0.229271
0.00489854
0.2315
0.00627937
-0.414697
0.399349
0.00209446
-0.411211
0.401512
0.00141216
-0.402586
0.395872
0.000931344
-0.393483
0.38888
0.000639309
-0.385717
0.381898
0.000645722
-0.378709
0.373834
0.00100942
-0.368857
0.35797
0.00113855
-0.341068
0.000205301
0.340964
-0.358176
-0.00160017
-0.354166
0.335823
-0.000632251
-0.199572
-0.0129648
0.203003
-0.352574
0.341062
-0.360016
0.362949
-0.370892
0.372414
-0.376151
0.379653
-0.381652
0.388508
-0.387555
0.400108
-0.391357
0.412575
-0.384757
0.417249
-0.225997
-0.0490792
0.0980168
0.0122449
-0.387388
0.345439
0.00469222
-0.37441
0.358693
0.000548184
-0.356442
0.3521
-0.000565775
-0.34632
0.344195
-0.000721051
-0.340181
0.338991
-0.00181447
-0.335162
0.335958
-0.0043783
-0.327592
0.329059
-0.0099396
-0.303168
0.277123
0.00594996
-0.100334
0.170751
0.280799
0.0087841
0.0349151
-0.0513176
0.143807
-0.443553
0.33721
-0.423803
-0.285387
-0.352894
0.00945051
0.231856
0.256465
-0.368512
0.142424
-0.330679
-0.0246139
0.0176653
-0.133741
0.0114427
-0.00539936
-0.141855
0.0143497
-0.022979
-0.335553
-0.363925
0.263082
-0.341914
0.00416924
0.313069
-0.342609
0.332553
-0.346533
0.00192559
0.342786
-0.353782
0.348982
-0.365032
0.01298
0.35236
-0.378301
0.351703
-0.386486
0.0798413
0.018282
0.0113172
0.0119559
0.00537982
0.0136875
0.364269
-0.388199
0.00394286
-0.314871
0.262216
0.3654
-0.387915
0.00803901
-0.340623
0.239549
0.47893
-0.0551659
0.0101459
-0.408794
-0.37751
0.791486
-0.0495518
0.0126766
0.0214421
-0.236765
0.0535733
0.182406
-0.18884
0.0153181
0.192382
-0.174351
0.00232352
0.184242
-0.17595
-0.000395511
0.173669
-0.168469
-0.00452672
0.178753
-0.161138
-0.0109245
0.186933
-0.125836
-0.0181231
0.219911
0.0834247
0.0616688
-0.016155
-0.00839523
0.0869124
-0.0381802
0.392556
-0.421036
0.413606
-0.424599
-0.274882
-0.356494
-0.000290881
0.270666
0.34149
-0.352501
-0.00152825
-0.273101
0.00203142
9.31091e-05
0.00289177
-0.000393075
0.00554003
0.0224325
0.020676
0.0372088
-0.0120347
0.00550011
0.156447
0.248304
0.207119
0.0700448
0.315236
0.125375
0.0593008
0.0182036
0.0105103
-0.00667367
-0.00534405
0.00216497
0.00606782
-0.0501321
-0.000614423
0.0585164
-0.0539658
0.423913
-0.432253
0.43273
-0.447677
-0.293606
-0.375992
0.00183395
0.275754
0.359654
-0.364194
0.000797471
-0.281385
0.00365232
0.00164424
0.000303414
0.000101501
0.000248762
0.00134383
0.00200578
0.00133491
0.0046179
0.00695476
0.0679957
-0.00106107
-0.000602206
-0.00214598
0.00042731
0.000917607
-0.00884983
0.0205485
-0.236796
-0.00069973
0.00318273
0.000151862
-0.00320059
0.363878
-2.57829e-05
-0.381565
0.36884
-0.373833
-0.00129487
0.382747
5.85259e-05
-0.390104
0.379024
-0.38158
-0.000528777
0.391713
0.000289196
-0.396442
0.386528
-0.388065
5.53553e-05
0.399257
0.000512524
-0.404182
0.394998
-0.394308
0.00063245
0.407036
0.000466381
-0.413505
0.404944
-0.3989
0.00149679
0.413653
-0.000686178
-0.421629
0.413865
-0.396213
0.00237586
0.410648
-0.00359252
-0.421635
0.41567
-0.229678
-0.000300723
0.228031
-0.0141542
-0.0297924
-0.0305676
-0.0329935
-0.40448
0.0994976
0.0868336
-0.034161
-0.0702603
-0.0340925
-0.449829
0.0952757
-0.119468
-0.196382
-0.0691466
-0.0567042
-0.0607092
-0.0269117
-0.0123942
0.00280942
-0.00184531
-0.0110261
-0.012879
-0.0079512
-0.0131367
-0.0240939
0.00365157
0.183751
0.2152
0.211059
0.243171
0.300954
0.286533
0.223945
0.225421
0.147141
-0.130833
0.0422236
-0.0153477
-0.0107477
0.0383257
-0.114059
-0.000310495
-0.000177835
-0.000367162
3.26188e-05
-0.0720634
-0.0821105
-0.0813795
-0.0729446
0.0723154
-0.061366
0.00228418
0.081759
-0.0705249
-0.0708085
0.0022668
0.0814552
-1.20903e-06
1.7907e-05
4.11205e-05
4.49702e-05
-0.00216037
0.00288628
-0.0014661
-0.000802855
-8.34276e-05
0.000493937
0.00122034
0.00484219
0.0034365
0.00127063
0.00870739
-0.00275546
0.0526747
-0.0750904
0.446901
-0.465128
0.467764
-0.00940867
-0.137137
-0.0208583
0.0377952
-0.00372786
-0.00771713
-0.00325446
-0.0283007
-0.0577001
-0.114354
-0.261489
-0.267518
-0.661243
-0.308242
-0.269009
-0.00882618
-0.105927
0.0843708
-0.538505
-0.322414
-0.151362
0.243118
0.0195587
0.012464
-0.253759
0.268408
0.00158863
-0.0319
-0.278614
0.269681
0.000476031
-0.0355298
-0.271903
0.268806
0.002309
-0.0581185
-0.259437
0.191684
-0.153768
0.126693
0.0961049
0.282563
-0.132771
-0.076545
0.0419617
0.169164
-0.549829
-0.0302705
-0.321709
0.283016
0.261791
0.248924
0.312705
0.150011
0.0331773
0.12013
0.181089
0.297966
-0.135702
0.0284222
0.217014
-0.18326
0.000365831
0.18628
-0.185596
-0.00221546
0.177481
-0.178549
-0.0012546
0.173567
-0.174225
-0.00109015
0.170649
-0.173376
-0.00237329
0.163089
-0.181529
-0.0142605
0.137404
-0.209157
-0.0778252
-0.0031841
-0.281176
-0.17408
0.101581
-0.277308
0.307334
-0.327037
0.00921088
-0.341864
0.352025
-0.00532291
-0.202794
0.0129547
0.199879
-0.197717
0.000708829
0.00117438
0.000346837
0.000282308
0.000437904
0.000416038
0.000213748
0.000398542
0.000924057
0.000529916
0.00341259
0.000253519
0.0562471
-0.0590797
-0.00147982
-0.000221161
0.00325374
0.00123513
0.273908
0.35277
0.00175935
-0.290323
0.285765
0.000818235
-0.296252
0.288684
0.00130488
-0.307091
0.288033
0.00202834
-0.32197
0.28318
0.00339271
-0.334613
-0.0131926
-0.00999821
-0.0628432
-0.0624638
-0.105862
-0.0518175
-0.0260906
-0.0125485
-0.00858523
-0.0147207
-0.0254819
0.00115062
0.179265
0.208048
0.202034
0.287025
0.17187
0.0014773
-0.0205378
-0.011772
-0.00730189
-0.0109803
-0.0233724
-0.0483289
-0.0988615
-0.231791
-0.246347
-0.437184
-0.331368
-0.104982
-0.105635
0.222307
0.0258357
-0.0273246
-0.0217374
0.10955
0.00445994
-0.0874409
-0.0836755
0.0866186
-6.27777e-05
-0.0966317
-0.0924748
0.0758521
-0.000350484
-0.120114
-0.114598
0.0368169
-0.153186
0.0982468
0.0952613
0.0996844
0.0867476
-0.134112
0.00950369
0.0495404
-0.152325
0.0364331
-0.146653
0.172011
-0.396053
-0.0208905
-0.381123
0.261503
0.270282
0.269652
0.264604
0.260876
0.263075
-0.412341
-0.0245458
-0.371982
0.264118
0.282868
0.265265
0.279222
-0.0206678
-0.396655
-0.39415
0.172419
0.270612
0.240019
0.236704
0.294768
0.283269
0.226441
0.0685412
0.149147
0.0609525
-0.0325211
0.0732925
0.0115994
-0.0534814
0.0544208
0.0026638
-0.0541519
0.0526737
0.000627113
-0.054235
0.0511802
7.37423e-05
-0.0518086
0.0520762
-0.000470307
-0.05243
0.0498762
-0.00327834
-0.0542889
0.0469208
-0.0124176
-0.0716085
0.0272506
-0.0566551
-0.137652
-0.0656753
-0.204141
-0.24598
-0.250994
-0.169016
-0.124212
-0.191011
-0.0080478
0.139694
-0.105534
0.0102607
0.115795
-0.115482
0.00487489
0.120684
-0.123777
-0.00409739
-0.00832349
-0.214722
-0.000686719
-0.348543
0.000411609
-0.34601
0.00185841
0.362909
-0.368369
0.00041616
-0.36671
0.00437154
0.373646
-0.3388
0.000230446
0.340922
0.00187273
-0.342438
0.000291361
0.344966
0.00130764
-0.347113
0.000375201
0.349743
-0.000489057
-0.352716
0.000490526
0.355438
-0.000803956
-0.358956
0.000868479
0.362065
-0.00523602
-0.361931
0.00307183
0.365452
-0.00711198
-0.00840959
-0.455831
-0.32953
0.00804005
0.420741
-0.00299216
-0.443125
-0.307434
0.0066721
0.429403
-0.00111263
-0.433225
-0.297696
0.00279374
0.426286
-0.000848808
-0.425308
-0.290636
0.000631293
0.422233
0.000414157
-0.417029
-0.285093
-0.00137424
0.417849
0.000552289
-0.408263
-0.279279
-0.00461224
0.416533
0.00258523
-0.388614
-0.269889
-0.00498353
0.420197
0.00933893
-0.33594
-0.237505
0.0220463
0.441437
0.0532585
-0.0381092
0.101947
-0.174565
-0.282281
-0.00268274
-0.0790784
0.0013505
0.242097
-0.019992
0.00339516
-0.203985
0.0009142
0.349417
-0.341597
-0.0021345
-0.344596
0.00965809
-0.331497
-0.000533932
0.334441
0.00757225
0.00271842
0.000701658
0.00396777
0.360112
0.00248244
-0.00306753
-0.0892852
-0.00025058
0.0965104
-0.000130769
0.000317619
0.000435431
-0.0153703
-0.0177667
-0.012733
-0.139129
0.0138743
-0.0228761
0.00197238
0.00228226
0.00412697
0.318677
0.262998
0.00134975
-0.00233612
-0.0115443
-0.0138961
0.232143
0.00883372
-0.296349
0.266364
-0.00156927
-0.289372
0.279201
-0.000100161
-0.000570983
0.000730157
0.00330683
0.000777056
0.00205082
0.00456237
0.00199866
0.000846991
0.000751377
0.00369416
4.37513e-05
0.000713851
0.00196346
-0.293708
0.259425
0.41145
-0.426244
0.422673
-0.429363
-0.00123507
-0.336442
-0.00309706
0.338155
-0.00430623
-0.33105
-0.0105064
0.346068
0.0202354
0.0256022
-0.236877
-0.0010079
0.255057
-0.267799
-0.000578283
-0.443432
-0.000882181
0.444176
-0.389536
-0.000142091
-0.396777
0.000127854
0.399385
-0.394722
-4.27844e-05
-0.395056
-3.59789e-05
0.398177
-0.409599
-0.000250728
-0.393194
-0.00105367
0.395674
-0.398514
-0.0033812
0.398476
-0.396383
-0.00729494
-0.0096548
-0.00218062
-0.000906405
-8.29424e-05
0.000180999
0.000432188
0.00116763
0.00236074
-0.00403117
0.00107645
-0.0935724
0.103961
-0.102764
-0.0961157
0.000960594
0.000580729
-0.00200581
0.00562956
0.0911508
0.000828936
-0.00108545
-0.00848353
0.0111069
-0.00972825
-0.136264
0.0131973
-0.0289575
0.204962
0.0102077
-0.00978043
-0.0082409
0.00541589
7.28648e-05
0.0699019
0.0708299
-0.0021409
0.0604088
0.0934799
-0.00161732
-0.002034
-0.00209293
-0.00080041
0.00718637
-0.108635
0.278635
0.0161991
-0.415844
-0.00266621
0.422072
-0.370369
-0.00183125
-0.383545
-0.000176416
-0.38007
-0.000153763
-0.383152
0.000849057
0.385998
-0.395979
0.000137223
-0.381232
0.00072383
0.384238
-0.386953
-0.00018755
0.390051
-0.000240061
9.77615e-05
0.000422859
0.00103441
0.00166918
0.00221896
0.000123619
-6.43841e-05
-0.00224865
-0.00214485
-0.00805745
-0.010164
-0.00213167
-0.00219387
4.4128e-05
5.51473e-05
0.000280818
0.000129348
0.00030959
0.000257219
0.000327287
0.000389141
0.000383193
0.000284507
0.00161157
0.00198078
0.00139789
0.00841621
-0.00170047
0.06245
-0.326504
-0.0831997
0.000109004
-0.0307942
0.141421
-0.144006
-0.465441
-0.169598
-0.00252118
0.0411955
0.000128294
-0.332916
-0.141583
-0.0938145
0.211254
0.0252854
-0.0234213
-0.0408989
0.118591
0.00425953
-0.0813081
-0.10112
0.101538
0.000219153
-0.0898306
-0.106528
0.0941996
0.000585333
-0.115475
-0.120741
0.0251765
-0.00693713
0.00113082
0.00141675
0.394722
-0.356971
0.00263005
0.366124
-0.0131683
0.00962747
-0.462618
0.00225638
-0.287162
0.29694
-0.00205043
-0.284911
-0.496431
0.425122
-0.0271229
0.0438563
0.161539
0.00135296
0.350251
0.259935
0.292577
-0.385514
0.00520592
-0.326528
0.00920299
-0.361515
0.00844422
-0.346376
0.00909171
-0.348105
0.00943175
-0.371507
0.272733
0.266714
-0.0186895
-0.474665
-0.381631
0.169349
-0.117993
0.149465
0.0841623
0.099922
-0.144999
0.040816
0.0310245
-0.156968
0.0616817
0.113015
-0.135806
0.214288
-0.114773
0.0179511
-0.125577
0.0216804
-0.136829
-0.107213
0.0207819
-0.00869885
-0.0019371
-0.00130553
-0.000246163
0.000349955
0.000407925
0.000511286
0.00114953
0.00230951
-0.00408049
0.00116476
-0.061148
0.072225
0.000528948
0.0145679
0.0104527
0.00842453
-0.105045
-0.00769402
0.112334
-0.092458
-0.0505974
0.113939
-0.124028
-0.169511
-0.191322
0.134962
0.139317
-0.00835651
-0.0117437
-0.0380535
0.00442999
0.142836
-0.0259529
-0.0334441
-0.0189185
0.102338
0.102414
-0.0336003
-0.0257124
0.131512
-0.0721281
-0.152789
-0.0725068
0.14071
-0.0139707
-0.0148349
-0.0182439
-0.00477979
0.00163237
0.241751
-0.0204098
0.00931154
-0.000406966
0.00027268
0.000455812
0.000258879
-0.000106675
-0.000726506
-0.00175142
-0.000190463
-0.00120019
0.000434915
-0.0110563
-0.00404896
0.00649345
-0.0159741
-0.00746741
-0.00741083
-0.208215
0.200088
-0.00574455
-0.00467705
0.0100516
-0.00517967
-0.00447317
0.0341059
0.0701963
0.0360351
0.246748
-0.123532
0.0168129
0.133465
0.166732
-0.0645435
0.0076048
-0.00236639
0.0109095
-0.00265834
0.00122091
-0.0188625
-0.0035318
0.000206693
3.52759e-05
-0.000445731
-0.00104878
-0.000698589
-0.00181693
0.00130363
0.00247785
0.000548249
-0.0043911
-0.000569839
0.000335264
0.000479296
0.00044131
0.00148556
0.0072913
0.00226137
0.00376871
0.0021662
0.000845151
7.11413e-05
0.000703316
0.000722202
0.0015273
0.00263627
-0.363384
0.330381
-0.333843
0.336201
-0.33773
0.00184995
-0.371908
0.370028
0.00401732
0.00257949
0.00160068
0.000693151
0.359292
0.00217609
-0.00332391
0.113088
-0.00242933
0.00212567
0.0101502
-0.0167164
0.1198
0.0940745
-0.041576
0.0165402
-0.000351424
-0.000150165
0.0613852
-0.00211616
-0.000126007
0.0433059
-0.131033
0.0379868
0.000458447
0.0152138
0.0111294
0.00118415
-0.0116142
0.00471423
0.0102352
-0.0416629
-0.0382607
0.120211
-0.0507141
-0.0923598
-0.016861
0.113482
-0.00754126
0.0102258
0.0081538
-0.00566205
-0.000295921
0.00224942
0.00815386
-0.00305883
-0.00351911
-0.000842819
-0.000436786
7.87455e-06
0.00105089
0.000640227
0.000588766
0.000360852
0.375715
-0.37834
0.340435
-0.343132
0.346003
-0.350202
0.0018853
-0.385782
0.381615
0.00140305
0.000502642
0.000211122
-0.000101194
0.000720227
-0.000693911
0.000530485
0.000204654
0.000431171
0.00034212
0.000634635
0.000243808
0.000672817
0.00194316
0.0104778
0.00935254
0.0341953
0.00173134
0.000750344
0.000174093
-0.000639943
-0.00237269
-0.00099078
-0.000996661
0.000127338
-0.000217134
-0.00017072
0.000240264
0.000269013
0.000254647
9.21176e-06
-0.000975833
-0.00252987
-0.00265222
-0.00104146
2.1434e-05
0.000110479
0.00019367
0.000298038
0.000406108
0.000706554
0.000604217
0.000576359
0.00125839
0.00107122
0.000598891
0.00171304
0.00336677
0.00135485
0.00195754
0.0485436
-0.00979127
0.00444874
0.00138316
0.00515935
0.106964
-0.00492277
-0.0154668
0.0773596
0.0235099
-0.332959
-0.11638
-0.249466
0.225422
-0.154096
-0.16503
0.201945
-0.265362
-0.0143054
-0.0194794
-0.223098
0.196721
-0.00301961
-0.0108764
-0.00108165
0.00399281
0.00558188
0.0823138
0.0259477
-0.152513
-0.131947
0.24785
0.0244882
-0.0586265
-0.0171135
0.101918
0.00326523
-0.116639
-0.0756426
0.0767323
-0.00027681
-0.122043
-0.0838782
0.066731
-0.00106273
0.106343
0.102374
0.00610987
0.129253
-0.12572
0.000532242
-0.112349
-0.000646186
-0.00253833
-0.00042945
-2.40167e-05
0.000183121
0.00019789
0.000169406
0.000133694
4.27062e-05
-0.000915924
-0.00249891
-0.000933439
-0.28887
0.277617
-8.13767e-05
-0.290518
0.285861
0.429446
-0.43618
0.436295
-0.447964
-2.64442e-05
-0.350007
0.00252827
0.344363
-0.000576837
-0.341497
-4.43028e-05
0.339877
0.000955496
0.00142694
-0.251861
0.000365753
0.256785
-0.276843
0.00046109
-0.454851
0.000349612
0.460424
-0.401523
-9.83316e-05
-0.407698
0.000451051
-0.406864
-0.000653384
-0.404587
-0.00125
0.404403
-0.419603
7.93604e-05
0.405808
-0.00113187
-0.399421
0.398417
-0.00118452
-0.409016
0.413396
-0.403372
-0.000156353
0.000408015
0.00182405
0.00151688
0.000776954
0.000264044
-0.000182839
-0.00094747
-0.00117714
-0.000316862
0.00038654
0.00139108
0.00151648
0.00364064
-0.296009
0.289898
0.00164256
-0.305356
0.290856
0.443424
-0.465896
0.449084
-0.483447
0.0119334
-0.410216
0.0379552
0.354552
0.00199194
-0.369111
0.0108108
0.351182
-0.000585882
0.00567963
-0.256937
0.00491618
0.275674
-0.292378
0.00154775
-0.466916
0.00255067
0.476106
-0.407681
-0.0015994
0.402739
0.00360166
-0.45565
0.266091
-0.0010168
-0.304244
0.269929
-0.286755
0.0144902
-0.0362046
-0.0180703
-0.0312746
-0.0554544
0.337315
-0.482187
0.104337
-0.0795649
-0.0318303
-0.0131583
-0.00584705
-0.00382858
-0.00485609
-0.00173422
0.0579934
0.600807
0.301043
-0.156295
0.105371
0.0538013
0.342984
-0.297515
0.322897
-0.0192225
-0.210666
0.0102135
0.381452
-0.360698
-0.00096397
-0.358633
-8.54969e-05
-0.363597
-0.000226073
-0.37348
0.0016247
0.378357
-0.387286
0.000344899
-0.375333
0.00165968
0.379078
0.00145227
0.000975795
0.395522
0.00217621
0.38746
-0.000308087
-0.00244025
-0.00462509
-0.0157434
0.00250129
0.210699
0.014642
0.0182702
0.0726492
0.127679
-0.177042
-0.000633422
-0.263138
0.000937034
-0.437248
-0.00204058
0.436355
-0.383027
-0.000686777
-0.391415
-2.36846e-05
-0.388193
-2.92868e-05
-0.389246
0.000343056
0.392201
-0.402793
-3.75136e-05
0.40605
-6.8025e-05
0.000361713
0.400724
-2.68146e-05
-0.000102414
-0.00072517
-0.00199834
0.377948
-0.00399214
0.3545
0.0212077
0.010627
0.267923
0.0104629
0.00645718
-0.000836943
0.273261
0.000808177
0.00383789
-0.248241
-0.00060361
-0.272245
-9.82962e-05
-0.448559
-0.000224693
0.451696
-0.395497
1.95542e-05
-0.402323
0.000273868
-0.401006
-0.000248275
-0.400702
-0.000528714
0.403484
-0.416379
-0.000469932
0.414161
-0.000889274
-0.000367785
2.43089e-05
0.00015591
0.000258217
0.000421689
0.00113576
0.00208339
0.00113431
0.00111797
0.000577664
0.000974238
-0.00109144
-0.000132303
0.000640784
0.000404772
0.000518401
0.000460568
0.000331907
0.00050825
0.000895394
0.00271614
0.00195806
-0.291931
-0.00733135
-0.285967
0.318936
-0.00615469
-0.304112
-0.311036
0.325103
0.303966
-0.00604454
-0.290302
-0.331565
0.345432
-0.309258
-0.00759121
-0.276636
0.310293
0.326367
0.321607
0.314553
-0.00694538
-0.304514
-0.282782
0.00198533
0.309661
-0.00558862
-0.326049
-0.297359
0.000572749
0.309294
-0.0016746
-0.337452
-0.306275
-0.314688
-0.322049
-0.00196615
0.319181
0.325931
0.000617663
0.303089
-0.00192249
-0.298851
-0.343359
0.346927
0.000520415
-0.272481
-0.409291
-0.00529339
0.281316
0.00150918
-0.263583
-0.390002
-0.00612988
0.2946
0.347004
-0.249014
0.0200745
-0.242057
-0.00883396
-0.245345
0.0197904
-0.241326
-0.00879178
-0.246296
0.0207814
-0.245885
0.342816
0.298199
-0.00959103
0.0130825
-0.000781021
-0.18323
-0.219383
-0.207761
-0.230344
-0.219326
-0.22107
-0.227073
-0.186672
-0.288812
-0.228193
-0.208561
-0.218745
-0.147763
-0.0638003
-0.0791993
0.131232
-0.146781
0.345581
0.349413
0.346726
0.348189
0.360899
0.33918
-0.142196
0.114631
-0.0635404
-0.147903
-0.0795999
0.142956
-0.0146799
-0.00288086
-0.00288077
-0.00113274
-0.000227592
0.00031574
-0.00025729
0.327958
0.000656866
-0.322401
-0.330156
-0.305403
-0.351949
0.000424547
0.304905
0.349754
-0.000193848
-0.278099
-0.419331
-0.00166501
0.280492
0.419494
0.00123712
0.0541397
-0.0537848
-0.000396699
0.0546001
-0.0548405
0.000189103
0.056077
-0.055234
0.00233097
0.0631395
-0.0507082
0.012491
0.090081
0.0311337
0.0196729
0.00474483
0.00430197
-0.000556343
0.00130215
-0.00127416
0.00109687
-0.00179803
5.46155e-05
-0.00231013
-0.0549973
0.417301
0.00266967
0.0511884
-0.0710338
-0.0110417
-0.0187544
-0.00809237
-0.0466682
0.0319231
0.00953667
-0.33725
0.0208472
-0.232834
-0.00977157
0.0135165
0.00105668
-0.147435
-0.250848
-0.244167
-0.204329
-0.0645398
-0.137937
-0.0556246
-0.109915
-0.312817
0.0533172
0.441378
0.337044
0.363101
-0.14184
-0.302123
-0.182388
-2.00279e-05
0.0317346
0.0211392
0.013126
0.00644029
0.00387866
0.000318524
-0.282988
-0.429114
0.424036
0.283031
-0.000626506
0.0009622
0.00455679
0.00510642
0.0188159
0.00821587
0.00329089
-0.00134716
-0.000644223
0.35282
0.00227484
-0.311407
-0.360639
-0.28672
-0.442378
0.00150404
0.288015
0.430372
0.00200861
0.00156626
0.00155124
0.00106578
0.00166075
0.00288652
-0.395167
0.35402
-0.357581
-0.00519305
0.00262251
0.00136365
-0.00212091
0.00060112
0.000151729
0.388283
0.000601929
0.000370189
0.39444
0.00272911
0.000221932
0.00133193
0.00201889
-0.000905553
3.69778e-06
0.000490264
0.000104054
0.000315599
8.51785e-05
7.88e-05
0.000370668
0.00128622
0.000552241
0.000194441
0.00011906
-0.000641968
-0.000210857
-0.000220016
-0.000736544
-2.85633e-05
0.000818332
0.00124568
0.000461608
0.00038155
0.000516061
0.000621205
-0.00279861
-0.00290578
-0.0146126
-0.00531046
0.326407
-0.00152927
0.00109231
0.00100498
-0.000510284
-0.00060976
0.000257826
-0.00527055
-0.00471373
-0.0029836
0.000425316
-0.31666
0.287909
0.00546721
-0.320324
-0.0113374
-0.0115489
-0.0618353
-0.0791584
-0.301073
-0.304704
-0.490417
0.123018
0.046227
0.251822
-0.0888935
0.131868
-0.0147902
-0.150466
0.135491
-0.00336796
0.104534
-0.00344248
0.127439
-0.140601
-0.0118373
-0.00372373
-0.00458729
0.00199414
-0.016816
0.111688
-0.00552703
0.00431491
0.00411572
0.00259545
0.00158108
0.000710944
0.000612817
0.00508021
0.00432453
0.0113378
0.0101017
0.0295544
0.00604117
0.00255926
0.000720492
0.278422
-0.283049
0.00111278
-0.461952
0.00122803
0.470558
-0.406806
-0.000549939
-0.410815
0.000447902
0.406068
-0.000257662
2.73255e-05
0.000305702
0.00045008
0.00111277
0.00308804
0.00143811
0.000839715
0.000461626
0.000182178
9.93239e-05
0.000140397
0.000156506
0.000142507
0.377066
2.19247e-05
0.383646
3.74049e-05
0.365299
0.349846
0.00141576
0.347855
0.209604
0.00552246
0.00119686
-0.000143325
9.18128e-05
-0.000711605
0.38685
0.00154109
-0.00142001
0.252887
-0.000163686
0.000730505
-0.000892489
0.274816
0.000585036
0.00242662
-0.254557
0.00214013
0.26476
-0.000582231
0.00153963
0.00125491
0.000886694
-3.09597e-05
0.392942
0.000167878
0.392408
5.7122e-05
0.000646027
0.39911
0.000300528
0.406004
-5.67045e-05
0.00178975
0.405532
-0.00230888
0.282401
-0.000910402
0.00469546
-0.264871
0.00871318
0.283215
-0.0102353
9.74038e-05
-0.0099171
-0.0351716
-0.0830779
0.00278271
-0.0121627
-0.00526341
0.00393939
0.00359686
0.410221
-0.000531854
-0.00127196
-0.00130716
-0.000356605
-0.00480245
-0.000238318
0.000656194
0.000510575
0.412072
0.403284
-0.000309987
-6.16757e-05
-0.000839123
-0.00164138
-0.00184713
-0.00793044
-0.00294381
-0.00302931
-0.00159508
-0.00060709
0.411215
-0.00116149
-0.000184341
0.000368167
0.000295787
-0.000942874
-0.00457045
-0.0146436
-0.00352458
0.000761234
0.0011505
0.00258981
-0.00198032
0.00255913
0.00410918
-0.00720757
0.032125
0.0670792
-0.048475
0.343316
0.000940623
-0.0193944
-0.0302258
-0.015357
-0.00369656
0.00207208
0.0075647
0.0180519
0.0307903
0.0330506
0.00102756
0.0154228
0.0152822
-0.288863
-0.14691
-0.302499
-0.148492
5.2482e-05
0.0197748
0.00424646
0.00161057
0.286239
0.340185
-0.000977708
0.00271693
0.0011376
0.00224646
0.00123898
0.00264932
-0.00334773
-0.0180611
0.134878
0.310052
0.0130217
-0.000309035
0.000879257
0.000879383
0.000478194
0.000551117
0.000252816
0.000256738
0.000255465
-0.000101796
0.000617715
0.000605501
0.00139722
-0.000456671
-0.00146166
-0.338463
0.00316107
-0.329638
0.320608
0.00728905
-0.337183
-0.348548
0.329438
0.308377
0.00512441
-0.317542
-0.371269
0.35257
-0.00149682
0.294765
0.435725
0.00461577
-0.000823637
-0.00244051
0.00370801
0.00468839
0.00741621
0.0762889
0.117805
0.184759
0.436474
0.0305516
0.226085
0.334762
-0.0166379
-0.0054652
-0.00805925
-0.000437524
-0.00260515
-0.0012105
0.307733
0.330108
0.322617
0.313245
0.00331177
-0.353208
-0.321567
-0.00166638
0.313741
0.00763822
-0.361391
-0.332286
-0.00307195
0.308329
0.328625
0.292479
-0.00244382
-0.00237118
-0.00270255
-0.000752308
0.000262874
0.00161778
0.000318882
0.000268406
-0.000772111
-0.000328279
-0.00307849
0.0292433
-0.00322022
-0.00202165
-0.00485636
-0.0038813
-0.00240544
-0.00409589
-0.00176545
0.0831491
-0.0020245
0.00182109
0.000261764
2.10007e-06
0.00489432
0.00428298
-0.0316853
0.179683
-0.0794405
-0.305694
-0.384351
0.0291594
-0.176565
0.0734687
0.0232977
-0.108862
-0.117424
-0.0127175
-0.0191825
0.127215
0.116705
-0.0110308
-0.113639
-0.00201
0.11399
-0.000560201
0.00145557
-0.000106189
0.00131037
0.0033237
0.00345907
0.00235736
0.000675851
0.000535832
-0.00126972
-0.00110112
-0.000158418
-0.000722027
-6.32969e-05
-0.000152956
0.00134074
0.00230212
0.00219749
-0.00236306
0.00352302
0.0066065
-0.0114645
0.373189
-0.0242718
0.0182485
-0.415223
0.00543699
0.00458303
0.0352983
0.00410416
0.00851823
0.0261352
-0.00193653
-0.000697902
-0.00251626
0.0068413
0.0732022
-0.00475068
-0.00277097
-0.0014416
0.00184263
-0.187088
0.216725
-0.00660649
0.00128011
-0.00897897
-0.0223407
-0.0252441
-0.00469347
-0.00223619
0.0891813
-0.00232385
-0.00279929
-0.00527748
-0.000888965
-0.00310104
0.0786591
-0.00514313
-0.00289619
0.00686025
0.00526917
-0.00106725
-0.00127715
-0.000836325
-0.00214679
0.0019564
0.00559599
0.00479595
0.00397616
-0.00864655
0.0180694
0.0181913
0.0208439
0.0269286
0.376079
0.0498496
0.00661958
-0.00939763
-0.00161824
0.00215265
0.00551933
0.0119478
0.000848032
0.341071
0.286047
0.000515439
0.000108213
0.000308534
-0.000309814
0.287983
0.343327
0.000777345
-0.345584
-0.313514
0.310986
-0.000300357
0.320909
-0.000525514
0.0085608
0.0201702
0.00123446
0.00117303
0.00496489
-0.000497395
0.0025325
-0.00334944
-0.0151487
-0.00619994
0.300276
0.320564
0.308206
-0.00682458
-0.00292529
-0.00128966
-0.000807072
-0.00136664
0.345219
0.291088
-0.00086767
0.000586314
0.000319126
-0.000714835
-0.00162974
0.293693
0.343049
-0.00289672
-0.000129534
-0.000934808
-0.00125635
-0.00236864
-0.00975223
-0.0489775
-0.313876
-0.113123
-0.0216845
-0.00216823
0.000694211
-0.000683621
0.00110841
0.000985068
0.00246892
-0.0062907
-0.014587
0.0111796
-0.0174813
-0.0294498
-0.0189215
0.0147115
0.227091
0.326842
-0.0169557
0.0051572
0.217216
0.328616
0.00433458
0.206839
0.341784
0.163023
0.00124096
-0.00279043
0.340646
-0.0029918
0.0211764
0.120285
0.0204524
0.0442603
0.046902
0.0447075
0.0592649
0.0373249
-0.00112466
-0.00501735
0.0453686
-0.0215026
-0.0100233
-0.00780382
0.0485225
0.0046268
0.0336594
0.0295354
0.207118
0.174823
0.194055
0.185287
0.189829
0.0409133
0.00662185
-0.000754726
-0.00684528
-0.0829789
-0.278856
-0.267156
-0.000697452
0.00995443
0.169288
0.000116766
0.398052
0.00316142
0.000658663
0.000215738
-0.000493081
-0.0118469
0.000583894
0.27262
0.392504
0.386478
-0.000197944
-0.0106911
-0.405804
0.00111447
0.00150898
0.0011029
-0.0389184
0.420764
0.0112173
0.00605254
0.00211836
0.00453702
0.0831579
0.00259407
0.212641
-0.249667
-0.031274
-0.445399
-0.000162454
-0.0188864
0.0942859
0.000633758
-0.452014
0.362958
0.0044542
0.204138
0.0149872
0.087542
0.19007
0.0321075
0.0342656
0.00121607
0.00113542
-0.00152196
0.273469
0.0118256
-0.0162648
-0.0231325
-0.00756121
0.00187416
0.000379489
0.000147549
0.000287329
0.000343481
8.11322e-05
-0.000959132
-0.00147551
-0.0133286
-0.00685068
0.241915
0.0196683
-0.402292
0.438823
0.0267474
0.314226
0.0026123
-0.287999
0.298695
0.0301736
-0.258578
0.278462
0.00649869
-0.264852
0.269036
0.00427135
-0.26272
0.264495
0.00316592
-0.260288
0.260587
9.02207e-05
-0.259876
0.254596
-0.00592806
-0.263275
0.241166
-0.0292951
-0.27491
0.179007
-0.130285
-0.346722
-0.10551
-0.324867
0.0202787
0.212321
-0.213956
0.0121888
0.221978
-0.219634
0.00456535
0.22298
-0.229246
-0.00258085
0.222289
-0.228246
-0.0188627
0.214641
0.225317
0.347389
0.087835
-0.250867
0.00328293
0.36893
-0.000674437
-0.375917
-0.00165867
0.360474
-0.00219499
-0.363984
-5.28589e-05
0.361877
0.000383136
-0.356434
0.00115455
0.36686
-0.010814
-0.385508
-0.0167371
0.30075
-0.0532752
0.0691171
0.156639
-0.287158
0.29279
-0.34915
0.329685
-0.342135
0.337969
-0.340643
0.343528
-0.342552
0.349662
-0.346298
0.354038
-0.354202
0.361643
-0.35861
0.378083
-0.324647
0.315858