/*--------------------------------*- C++ -*----------------------------------*\
| =========                 |                                                 |
| \\      /  F ield         | OpenFOAM: The Open Source CFD Toolbox           |
|  \\    /   O peration     | Version:  2306                                  |
|   \\  /    A nd           | Website:  www.openfoam.com                      |
|    \\/     M anipulation  |                                                 |
\*---------------------------------------------------------------------------*/
FoamFile
{
    version     2.0;
    format      ascii;
    arch        "LSB;label=32;scalar=64";
    class       volScalarField;
    location    "0.6";
    object      gradTx;
}
// * * * * * * * * * * * * * * * * * * * * * * * * * * * * * * * * * * * * * //

dimensions      [0 -1 0 1 0 0 0];

internalField   nonuniform List<scalar> 
5322
(
-0.0165544
0.00141053
0.0012684
-3.99948e-05
-6.91877e-05
-3.70028e-05
-1.37078e-05
-3.84053e-06
-8.08468e-07
-3.43911e-08
1.13165e-07
2.68546e-07
2.11094e-07
-1.84967e-06
2.85345e-07
5.93188e-06
-4.01515e-06
1.04257e-06
-4.18071e-06
1.2892e-05
-1.40878e-05
5.25702e-05
-4.85888e-05
0.000181407
-0.000182637
0.000531281
-0.000516259
0.0013957
-0.00142027
0.00312254
-0.00294556
0.00645739
-0.00463049
0.0122669
0.0021668
0.0216784
0.0154442
-0.00613831
0.0166084
-0.00105069
-0.0158326
0.0157967
-0.000950454
-0.0167718
0.0167608
-0.000530828
-0.0177926
0.0159083
-0.000302494
-0.0187188
-0.0187271
-0.0266158
-0.0092986
0.015832
-0.00103437
-0.0254635
-0.000812456
0.0241257
-0.000265014
-0.0240596
-8.3974e-05
0.0234691
-0.000102865
-0.0236553
5.32745e-05
0.0231813
0.000386981
-0.0234656
0.00146677
0.0194687
0.00148923
-0.0163249
0.0185876
-0.0190629
0.0183263
-0.0186703
0.0186925
-0.0187219
0.0214092
-0.0160017
0.00711846
-0.0133077
-0.00940395
0.0130222
0.000857247
-0.00387859
0.0105211
-0.0299536
-0.0076891
0.0302456
-0.00142434
9.88498e-05
0.000130609
0.00220222
0.0139916
-0.00195496
0.00106196
1.82305e-05
0.0107955
-0.026333
-0.0262353
0.0492251
-4.86166e-05
0.0108762
0.0178315
0.00128871
0.000335454
0.000153163
5.03259e-05
1.33022e-06
-9.66373e-06
-7.32548e-06
-3.57287e-06
-1.31185e-06
-4.8193e-07
-1.643e-07
-1.9322e-06
-1.44365e-06
2.63626e-07
4.47086e-07
-1.64927e-07
7.01268e-07
-9.87627e-07
-1.51591e-07
-4.95622e-07
1.49951e-06
1.06729e-06
6.38155e-08
9.20133e-07
3.85508e-07
1.95616e-07
1.00506e-06
2.40753e-07
2.97987e-07
1.00073e-06
1.21092e-07
6.24168e-07
1.12132e-06
1.07423e-06
-2.05754e-08
-1.11552e-06
-1.7167e-07
6.54061e-07
-1.45083e-06
-1.98362e-06
3.09146e-07
1.97294e-07
-2.44456e-07
-1.47246e-06
-1.73374e-06
4.05641e-07
-1.30375e-07
-1.65249e-08
-1.72466e-06
-1.46405e-06
4.31466e-07
-3.32667e-07
4.02325e-07
-1.38105e-06
1.61732e-06
-5.343e-06
-6.28857e-06
1.13177e-05
-2.42754e-05
-2.23701e-06
-7.70032e-06
-1.02794e-07
5.25076e-06
-1.09144e-06
3.02102e-06
1.41636e-06
2.25719e-06
-6.37335e-06
1.68219e-06
-5.68242e-06
6.58532e-06
8.74792e-06
-2.18547e-05
2.33795e-06
-1.89737e-05
2.98797e-05
3.79877e-05
-8.22096e-05
6.51254e-06
-6.99321e-05
0.000116497
0.000144794
-0.000282014
2.40322e-05
-0.000237555
0.000392949
0.000483093
-0.000862088
7.70278e-05
-0.00072321
0.00114368
0.0014042
-0.00233137
0.000210944
-0.00195285
0.00286359
0.00353725
-0.00553167
0.000496385
-0.00461399
0.00612912
0.00767437
-0.0112762
0.00100566
-0.00926552
0.0108377
0.0134598
-0.00162268
0.0103423
-0.0260228
-0.0265551
0.0493369
-0.00249704
-0.00261903
0.000176351
0.00240612
0.0139805
-0.00117022
0.00121462
-0.00171325
0.0100001
-0.0264325
-0.026107
0.0490347
-0.000325901
0.0108557
0.00103863
0.000500968
0.000174999
6.49633e-05
7.57282e-06
-8.03209e-06
-7.11823e-06
-3.62928e-06
-1.35505e-06
-5.07124e-07
-1.76168e-07
1.13474e-06
-1.55608e-06
1.58406e-06
-1.1049e-06
1.01125e-07
1.05733e-06
-7.26534e-07
6.41559e-08
-8.00175e-07
6.38203e-09
-1.02888e-06
-6.69435e-08
7.54127e-07
-2.25202e-08
6.50418e-07
-1.2682e-07
-8.73639e-07
-5.37034e-08
8.06215e-07
2.34847e-09
4.15532e-09
1.96635e-06
-5.64198e-06
5.67147e-06
-5.30686e-06
1.16273e-05
-2.24466e-05
4.82297e-05
-8.97079e-05
0.000177566
-0.000314626
0.000577292
-0.000965999
0.00165039
-0.00258704
0.00412838
-0.00600375
0.00894536
-0.0118259
0.0164399
-0.0105181
0.000295702
0.0106576
0.000318141
-0.0160067
0.0115229
6.93914e-05
-0.00866765
0.00589549
3.41802e-05
-0.0039898
0.00255676
1.67722e-05
-0.00158941
0.000960125
7.49882e-06
-0.000553392
0.00031476
3.04496e-06
-0.000169169
9.05347e-05
1.12304e-06
-4.5567e-05
2.30455e-05
3.73173e-07
-1.08654e-05
2.83784e-08
1.09487e-05
-2.28712e-05
-2.80938e-07
-1.15492e-05
5.34762e-06
-7.69827e-08
-2.02425e-06
-1.95532e-07
1.86645e-06
-5.91568e-06
1.03287e-05
-2.31151e-05
4.38136e-05
-8.98278e-05
0.000165775
-0.000310133
0.000549422
-0.000940574
0.00159411
-0.00249399
0.00404336
-0.00573211
0.00886567
-0.0111157
0.0162855
-0.0103654
-0.00292798
0.00421074
0.000433861
-0.0151836
0.0103088
2.78051e-05
-0.00795214
0.00539644
-6.69483e-05
-0.00353291
0.00229591
-5.23604e-05
-0.0013959
0.000844334
-2.71032e-05
-0.000487037
0.000272005
-1.20969e-05
-0.000149138
7.70931e-05
-4.70301e-06
-4.01216e-05
1.92896e-05
-1.65509e-06
-9.5243e-06
4.02552e-06
-2.72937e-07
-1.05316e-06
1.24012e-06
2.20824e-06
-1.47666e-06
-3.29016e-07
-6.19303e-07
1.98471e-06
-6.98963e-06
9.2287e-06
-2.56207e-05
-1.72577e-05
-2.26678e-05
2.35045e-06
6.72388e-06
7.56785e-06
-6.43653e-06
1.49149e-06
-5.21577e-06
-1.57019e-06
-8.32472e-07
-1.38215e-06
-4.43073e-10
-1.52675e-07
-1.20804e-06
-1.62192e-06
-1.47437e-06
-5.75315e-06
-6.37034e-06
8.0711e-06
-2.21301e-05
-5.90257e-06
3.64181e-05
-8.29278e-05
0.000141324
-0.000283462
-6.16464e-05
0.000475987
-0.000864458
0.00138934
-0.0023333
-0.000216398
0.00350155
-0.00550372
0.00754963
-0.0110432
0.00229625
0.000175404
-0.000125328
-0.000101365
-0.000176809
-0.000209707
0.00365349
-0.00566325
0.000541081
-0.00458267
0.00578782
0.00795455
-0.0110892
0.00116869
-0.00976155
0.00971219
0.0196665
-0.000586799
0.00187191
-0.0286147
-0.0267175
0.0474443
-0.00343652
0.000257432
0.000522245
-0.0085591
0.00140238
0.00330709
-0.00348266
0.000148092
0.0015984
-0.00140771
-3.10452e-05
0.000585515
-0.00053886
-2.67426e-05
0.000174364
-0.000178476
-1.52955e-05
5.24113e-05
-5.15363e-05
-6.91475e-06
1.37378e-05
-1.22332e-05
-2.68585e-06
4.47134e-06
9.84552e-07
5.66384e-07
6.91085e-08
-2.28346e-07
6.02361e-06
-3.35852e-06
4.35779e-05
-9.76707e-05
0.000174056
-0.000339811
-0.000217806
-0.000291788
2.45511e-05
0.000114938
0.000143876
-8.50632e-05
6.59577e-06
-6.30987e-05
-1.80479e-05
-1.10262e-05
-3.48315e-06
-3.2726e-06
-5.66828e-06
1.90743e-07
-8.67977e-07
-7.61054e-06
-1.97653e-05
-4.12724e-06
2.06811e-06
1.66096e-06
1.63063e-06
7.06034e-07
4.62023e-06
6.79424e-07
5.76736e-06
1.56664e-05
-3.52846e-05
-6.90969e-05
-0.00021152
-0.000115205
4.66494e-05
-1.90475e-05
5.83648e-06
6.77887e-05
-6.61852e-05
0.000592624
-0.00104698
0.00174429
-0.00286966
-0.00186162
-0.00241048
0.000220742
0.00111026
0.00143787
-0.000891897
7.95137e-05
-0.000674563
-0.000112343
-5.21869e-05
-2.74903e-05
-2.61054e-05
-5.76783e-05
-8.11105e-06
-2.03756e-05
-1.99919e-05
-3.73258e-06
-6.63791e-06
2.1289e-05
1.16663e-06
-9.85182e-06
-1.34174e-06
1.8061e-07
-8.82047e-08
-2.66116e-07
6.44743e-08
-2.6536e-06
-1.37677e-06
-1.06787e-06
-6.96543e-07
-3.07181e-07
2.26843e-05
-2.98881e-07
-4.7925e-05
4.59928e-05
-8.9717e-05
-6.38597e-07
9.09279e-05
2.45249e-08
-0.000176433
0.000171157
-0.000311543
-8.35772e-07
0.000319716
2.46765e-06
-0.000573364
0.000561112
-0.000949453
8.10513e-07
0.00098373
1.24716e-05
-0.00163916
0.00161419
-0.00252746
9.41711e-06
0.00263862
3.89259e-05
-0.00410279
0.00405354
-0.00583107
3.5082e-05
0.00611404
6.24026e-05
-0.00888858
0.0087774
-0.0114251
7.5507e-05
0.0119101
-6.7201e-05
-0.0162893
0.0160531
-0.0105812
-3.49204e-05
0.0104948
-0.00082134
-0.0021915
-0.00125278
-0.00279775
-0.0240305
0.00431708
0.00174794
-0.00168415
-0.00330297
-0.000592006
-0.0132627
0.00339388
-0.00817045
-0.00951378
-0.000715883
-0.00260028
-0.00373276
-0.00151169
-0.000833731
0.000330684
-0.000315741
-0.000584854
-0.000525148
-0.00018836
-6.23503e-05
-1.86952e-05
-4.02162e-06
2.7134e-06
1.51044e-06
1.77166e-06
2.0054e-06
3.81581e-06
3.78516e-06
1.96154e-06
1.99306e-06
1.66694e-06
-1.70249e-06
3.26619e-07
-2.12368e-07
-1.40417e-07
2.95893e-07
-1.47889e-06
-3.11876e-08
1.64577e-09
1.19106e-09
1.07859e-08
-8.77931e-07
-1.17433e-06
-1.18338e-06
-8.64778e-07
8.91808e-07
-3.82646e-07
1.63286e-07
1.22228e-06
-6.6453e-07
-6.50548e-07
1.69661e-07
1.20152e-06
1.14645e-08
3.41038e-08
3.48621e-08
2.76416e-08
-3.91659e-07
-2.37699e-07
-8.18895e-07
-1.98752e-06
-3.0565e-06
1.07465e-07
1.84342e-05
-5.35939e-05
-9.42961e-05
-0.000307706
2.7378e-05
-0.000147797
0.000468556
-0.000658845
0.00452502
-0.00689343
0.010378
9.10271e-05
-0.00290965
-0.000688789
0.000822967
0.000104221
0.000589836
0.000761272
-0.00136097
-0.00328384
-0.00749657
-0.0185456
-0.0191967
-0.0406249
-0.0142621
-0.011849
5.06206e-05
-0.00435279
0.00491224
-0.0384761
-0.0238008
-0.0118793
0.0163891
0.00134841
0.00065759
-0.0163086
0.0172068
0.000159201
-0.00216452
-0.0177119
0.0171829
2.98553e-05
-0.00242258
-0.0173511
0.0170954
8.81212e-05
-0.00385154
-0.0166157
0.0122076
-0.0112514
0.0102089
0.00781009
0.0215128
-0.0101519
-0.00550634
0.0030825
0.0115748
-0.0330833
-0.00144715
-0.0190439
0.0203154
0.0202348
0.0180219
0.0229135
0.00939411
0.000927191
0.00786873
0.0111105
0.0166269
-0.0040469
0.00131101
0.00744434
-0.00321911
0.000125258
0.00329979
-0.00148291
3.84856e-05
0.00139451
-0.000544087
2.27925e-05
0.000531128
-0.000174758
1.07617e-05
0.000178522
-4.96207e-05
3.79935e-06
5.22395e-05
-1.34217e-05
6.97048e-07
1.29178e-05
-4.08992e-06
-8.76983e-07
1.62954e-06
-2.17743e-06
-1.24508e-06
1.06892e-06
-3.99523e-06
9.68614e-06
-1.90613e-05
1.6917e-06
-1.02721e-05
5.92723e-06
2.94999e-07
-1.84587e-06
2.04595e-07
2.03295e-06
-1.95344e-06
9.4951e-08
1.20962e-07
1.936e-08
4.18854e-08
1.88195e-07
7.53582e-07
1.56806e-06
7.14853e-06
2.60152e-05
-0.000141354
-1.83102e-05
-6.08239e-05
0.000192471
-0.000204709
5.34969e-05
2.1443e-05
0.000130982
0.000135817
0.000382906
0.000489538
-6.18969e-05
-0.000236242
0.000395202
7.65625e-05
-0.000721973
0.00114629
0.000211273
-0.00196087
0.00286122
0.000500509
-0.00467843
0.00610071
0.00100792
-0.00953069
0.000987687
0.00129947
-0.000982908
-0.0010069
-0.00715555
-0.00310851
-0.00132038
-0.000518379
-0.000187354
-6.24736e-05
-1.88689e-05
-4.10439e-06
2.71767e-06
1.48862e-06
1.75054e-06
3.7868e-06
2.58588e-06
-4.13315e-06
-1.93942e-05
-6.56083e-05
-0.000197659
-0.00054097
-0.00135682
-0.00316355
-0.00703921
-0.0171459
-0.0177289
-0.029708
-0.0254733
-0.00884275
-0.00872875
0.0147847
0.00145596
-0.00182218
-0.0014397
0.00657634
0.000193473
-0.00543018
-0.00517007
0.00525517
-1.99819e-05
-0.00592985
-0.00565481
0.00464331
3.4701e-06
-0.00737734
-0.00702952
0.00237871
-0.0110546
0.00812956
0.00790016
0.00824445
0.00723527
-0.00927857
0.000690116
0.00312718
-0.0110039
0.00236169
-0.0100059
0.0111752
-0.0230376
-0.000753066
-0.0221835
0.0188112
0.0207078
0.0193387
0.0189481
0.0200712
0.0188716
-0.024067
-0.000958456
-0.0216741
0.0121708
0.0130864
0.0122216
0.0129338
-0.00077297
-0.0231601
-0.0229754
0.0112133
0.0193599
0.0185946
0.0170807
0.0213592
0.0218677
0.0165951
0.00452149
0.00898469
0.00390963
-0.00225882
0.00262101
0.000798541
-0.00194048
0.000965723
0.000258621
-0.00103075
0.00043538
0.000135979
-0.000467453
0.00017048
5.33746e-05
-0.000181188
6.38067e-05
2.45554e-05
-6.12886e-05
1.86648e-05
6.72836e-06
-1.84523e-05
4.53998e-06
1.7022e-06
-5.19039e-06
2.85879e-07
-4.3674e-07
-1.88828e-06
-6.47532e-07
-1.56946e-06
-1.99309e-06
-1.65172e-06
-1.11689e-06
-6.16393e-07
-1.06233e-06
2.00409e-08
1.10454e-06
-6.41958e-07
1.40055e-07
8.81233e-07
-8.17323e-07
3.78559e-08
8.53755e-07
-9.45372e-07
-1.01535e-07
-1.77481e-07
-2.17977e-06
-7.82889e-08
-5.78411e-06
3.14308e-09
-1.09718e-05
3.69652e-07
2.31019e-05
-2.26561e-05
4.55771e-07
-4.35433e-05
4.93048e-06
9.00713e-05
-7.66027e-05
9.94943e-06
0.000150541
1.45592e-05
-0.00026957
2.74374e-05
0.000488829
3.34038e-05
-0.00083011
6.68927e-05
0.00138897
5.67439e-05
-0.00222449
0.000138625
0.00343891
9.18576e-05
-0.00515838
0.000261704
0.00740972
4.57707e-05
-0.0102222
0.000512551
0.0137052
6.6471e-05
-0.00064602
-0.0171495
-0.0124574
0.00075187
0.011728
-0.000295782
-0.00910081
-0.00632069
0.000522235
0.00608655
-0.000138552
-0.0041817
-0.00287692
0.000269898
0.0026593
-6.11543e-05
-0.00166313
-0.00113939
0.000126396
0.0010064
-1.96615e-05
-0.000570115
-0.000392033
5.16439e-05
0.000331188
-5.79981e-06
-0.000169165
-0.000117364
1.77053e-05
9.61942e-05
-9.21285e-07
-4.27054e-05
-3.07292e-05
5.3131e-06
2.53689e-05
2.47399e-07
-9.09166e-06
-6.82316e-06
1.53877e-06
6.92297e-06
6.26576e-07
2.86883e-07
1.05496e-06
-1.24481e-06
-2.1791e-06
1.60955e-06
-8.90155e-07
1.45645e-06
2.67505e-06
-5.44976e-08
1.38275e-07
-2.00428e-06
9.1138e-08
5.76095e-06
-5.37208e-06
2.74148e-07
-1.02791e-05
1.67448e-06
-1.92134e-05
3.19214e-06
4.06726e-05
6.46445e-06
1.72556e-06
7.58385e-07
4.25083e-07
1.16499e-05
4.29791e-07
3.11658e-08
-7.22212e-07
7.10623e-08
1.06034e-06
6.59296e-08
3.8331e-08
8.76721e-09
-2.06438e-07
-2.46432e-07
-2.11217e-07
-1.17441e-06
-1.66125e-06
-1.42226e-06
-6.01694e-06
-5.93645e-06
-5.98363e-06
3.62555e-05
3.018e-05
-5.46348e-06
1.22238e-05
2.82469e-06
2.62329e-06
7.08644e-06
2.29989e-06
-1.89051e-05
3.07692e-05
6.35522e-06
-6.94505e-05
0.000118019
2.36483e-05
-3.74825e-06
-1.9482e-05
-2.10938e-05
-5.25993e-05
-0.000113993
-0.000142072
-0.000117068
-5.37105e-05
-1.98353e-05
-2.08748e-05
-1.85242e-05
-5.66094e-06
-5.85461e-06
-1.82211e-05
2.98149e-05
5.08161e-05
-9.31167e-05
0.000191944
-0.000324281
-1.7215e-05
-0.000134721
-1.55682e-06
8.30266e-05
-6.13038e-06
-3.52599e-05
-1.49249e-06
2.20144e-05
-5.85799e-06
-3.33178e-06
-3.01593e-05
-6.8053e-06
4.90482e-05
-6.45372e-05
-1.23813e-06
-0.000201354
-7.09217e-06
0.000348208
-0.000321161
-2.04312e-06
-0.000570407
-1.06757e-06
0.000965795
-0.000959409
9.87582e-08
-0.00157827
6.31285e-06
0.00252246
-0.0025875
-1.45481e-05
-0.00384161
9.91894e-05
0.00568872
-0.00823086
9.16171e-05
0.0112456
-0.014876
-4.97873e-05
-0.000533158
-6.71873e-05
-3.72737e-07
2.32301e-05
1.88678e-05
1.03282e-05
4.46228e-06
1.54957e-06
5.5556e-07
1.91082e-07
-1.11722e-06
1.59607e-06
-1.55694e-06
-1.04119e-06
3.70456e-09
2.51139e-08
-3.66685e-07
-9.02196e-09
7.6896e-07
-4.63367e-08
-3.73533e-08
-1.18533e-07
1.24275e-08
-1.68243e-07
-1.10765e-06
-1.53363e-06
-1.46954e-06
6.11051e-06
2.56771e-06
-7.93606e-07
-7.21986e-07
-5.48596e-07
-1.74096e-07
6.75525e-07
7.09781e-07
-1.32027e-07
4.07076e-07
1.15725e-06
-1.15693e-07
-3.31411e-07
-8.38421e-07
-2.99702e-06
-7.12658e-07
-1.12459e-06
7.57617e-06
-2.22256e-07
-1.32903e-05
-9.14472e-07
2.45656e-05
-2.39927e-05
-7.75017e-07
-4.81257e-05
-5.81616e-07
-9.11555e-05
-1.25376e-07
-0.000170314
2.53914e-06
0.000314244
-0.000317481
6.27258e-07
-0.000539391
3.13475e-05
0.000939849
-0.00154539
6.1718e-05
0.00248055
7.98027e-06
9.67179e-06
5.96714e-06
2.74683e-06
9.88561e-07
4.45055e-07
3.30512e-08
9.80146e-09
-4.11174e-07
-1.41389e-06
-7.47112e-07
-9.1519e-07
-3.43436e-07
-4.11928e-07
1.39197e-07
1.32311e-07
1.47023e-07
5.71256e-07
6.4515e-07
2.10845e-06
2.33528e-06
2.5764e-06
7.41602e-06
1.61185e-05
7.67351e-05
0.000163587
-0.000666223
2.00025e-05
-0.0013326
0.00283561
-0.02116
-0.00611254
0.000376827
-0.00182843
0.0108558
-0.0104755
-0.0300984
-0.0123824
0.000177871
0.00338248
0.000553904
-0.0256972
-0.0115072
-0.00788291
0.0140962
0.00145715
-0.00156492
-0.0025862
0.00717447
0.000211128
-0.00507152
-0.00619616
0.0061607
-3.71094e-06
-0.00555884
-0.00650623
0.00572599
3.5447e-05
-0.00714573
-0.00742217
0.00123487
-0.00039427
5.55294e-05
4.80264e-05
0.0113928
-0.0103455
0.000257057
0.00769814
-0.00016487
3.43268e-05
-0.00970314
0.00044029
-0.0059545
0.00821656
0.000357075
-0.0108674
-0.0192179
0.0120848
-0.0012469
0.00207673
0.00647451
-0.000387744
0.0168428
0.0121444
0.0135863
-0.0145445
0.000824328
-0.0122372
-0.000932013
-0.013524
0.000935783
-0.0129596
-0.00093586
-0.0130344
0.000954133
-0.0139431
0.0126047
0.0123849
-0.000830589
-0.0283903
-0.0227599
0.0111302
-0.00809385
0.0120621
0.00704424
0.00826866
-0.00988691
0.00263855
0.00205511
-0.0113002
0.00401917
0.00725524
-0.00936842
0.0166539
-0.00895237
0.00145833
-0.00793525
0.00110012
-0.00848275
-0.00661278
0.000999579
-0.000553273
-7.08097e-05
-3.1608e-05
1.66772e-05
3.04644e-05
2.13768e-05
1.10573e-05
4.64097e-06
1.59009e-06
5.62872e-07
1.94523e-07
-3.94935e-07
9.14073e-07
5.40778e-08
2.13177e-07
1.43194e-07
1.32196e-07
-6.44322e-07
1.81391e-07
1.47305e-06
-6.32622e-07
-1.86833e-07
1.47987e-06
-6.16584e-07
-1.12586e-06
-1.06834e-06
1.39517e-06
1.11993e-06
2.73711e-08
3.65803e-09
-2.83596e-07
1.50703e-07
1.22222e-06
2.86432e-07
1.22252e-07
-3.54499e-07
1.74847e-06
1.76091e-06
1.07769e-07
2.98834e-07
1.72137e-06
-2.10557e-07
-1.0511e-06
-2.16219e-07
1.20712e-06
1.71943e-06
1.64947e-06
8.52846e-07
1.05147e-06
1.5078e-06
2.73245e-06
-4.80044e-08
2.98285e-07
1.58483e-07
1.38958e-07
-2.25528e-07
-2.23701e-06
-1.01212e-05
-3.41155e-05
-8.97676e-05
1.55246e-05
-3.87433e-05
0.000138338
-0.000618431
-8.82039e-05
0.0010452
-0.00151804
-0.000425472
-0.000461445
-0.0150236
0.0144146
-0.000448125
-0.000330918
0.00109668
-0.000919091
-0.000402384
0.00271257
0.00451434
0.00247978
0.0115881
-0.00497197
0.0019254
0.0112551
0.0117568
-0.00255325
0.00147438
-0.000129631
0.000682885
-0.000174388
3.7342e-05
-0.00101394
2.05457e-05
4.84172e-05
7.13042e-06
-1.9919e-06
-2.18392e-06
1.76582e-07
-4.36681e-07
9.33466e-07
3.85618e-07
7.89598e-07
5.97756e-06
2.05626e-05
5.99705e-05
0.000151175
0.000334887
0.000698853
0.000257947
6.65302e-05
0.000155287
6.91942e-05
1.96384e-05
4.06932e-06
5.73942e-06
2.297e-06
4.49731e-06
1.87105e-06
-4.34386e-05
4.06376e-05
-7.58564e-05
0.000149935
-0.000267091
1.38018e-05
-0.000163367
9.0022e-05
5.01362e-06
2.71674e-06
1.04812e-06
5.63136e-07
2.31834e-05
4.38224e-07
3.56222e-08
8.79092e-07
2.87788e-07
4.69519e-07
9.95696e-07
-2.69117e-07
1.99708e-06
1.49575e-06
-3.07468e-07
2.45285e-07
1.92362e-09
-3.80491e-08
4.34027e-07
-1.30353e-07
-3.61564e-08
3.41785e-07
-1.68267e-06
3.01586e-07
5.26348e-08
2.1748e-07
1.46165e-07
1.14781e-08
2.31956e-09
1.52355e-07
2.04062e-07
-3.08526e-07
-2.85714e-07
2.00303e-06
-2.02507e-07
-6.22925e-07
-2.81834e-07
1.45917e-06
1.80442e-07
9.76657e-07
8.36631e-07
6.07549e-07
1.94925e-07
5.39039e-07
8.46174e-07
6.01621e-06
3.54551e-06
3.22633e-06
1.14647e-05
1.00667e-05
2.99628e-06
1.18573e-06
6.98706e-06
2.01152e-06
0.000310937
-0.000538724
0.000487374
-0.000825911
0.00139194
-0.00223129
7.89053e-05
-0.0015543
0.000943602
3.46627e-05
1.13963e-05
3.04502e-05
2.7833e-05
6.8905e-05
6.57928e-05
1.34615e-05
1.80081e-06
6.40429e-06
6.85572e-06
1.51644e-05
1.48006e-05
2.34621e-05
5.95655e-05
8.35411e-05
-2.48921e-05
0.000309573
7.12982e-05
1.07156e-05
-4.22802e-06
-4.48389e-06
-2.29806e-06
-7.77716e-07
-9.61609e-07
5.78172e-07
-1.27776e-06
-1.84301e-06
2.05924e-06
-1.84015e-07
-1.67855e-06
-7.79154e-06
-3.88433e-06
-2.08547e-06
-2.05179e-06
-9.83349e-07
1.25089e-07
4.94258e-07
1.68177e-06
4.72905e-06
6.07928e-06
7.40634e-06
4.27226e-06
1.37428e-05
2.88122e-05
2.44731e-05
2.01236e-05
5.89039e-05
0.000205314
6.75071e-05
6.21288e-05
0.00315273
-0.000448409
0.000400814
4.98539e-05
0.000166444
0.00648133
-0.000205776
-0.000910373
0.00583861
0.00223564
-0.0255627
-0.00960741
-0.0138744
0.0150369
-0.0110225
-0.0118439
0.0136963
-0.0148892
-0.000770798
-0.00109112
-0.0158226
0.014403
-1.66583e-05
-0.000604177
3.66553e-05
0.000287288
0.000370755
0.00614634
0.00233943
-0.010954
-0.0106361
0.0164601
0.00140014
-0.00383496
-0.00116888
0.00616277
0.00014155
-0.00728545
-0.00471752
0.00471649
-1.71408e-05
-0.00755876
-0.00517516
0.0041467
-3.48929e-05
0.00663844
0.00646999
0.000345805
0.00989094
-0.00977219
9.72098e-05
-0.00704078
-7.27206e-05
-0.000103791
-1.55685e-05
4.96777e-06
6.90967e-06
3.60143e-06
1.34186e-06
4.07333e-07
1.03445e-07
-7.91019e-07
-2.09752e-06
7.25967e-06
-6.77531e-05
0.000118005
2.57917e-05
-0.000231972
0.000398748
0.000632599
-0.00100025
0.00181995
-0.00272108
-9.27038e-05
-0.00132965
2.64738e-05
0.000879009
-4.38375e-05
-0.000451141
2.54111e-06
0.000287093
-8.1793e-05
-5.6961e-05
-0.000377578
-5.40846e-05
0.000553143
-0.0006843
6.05433e-06
-0.00184488
-2.15655e-05
0.00289464
-0.0025599
1.11143e-05
-0.00396896
1.29484e-05
-0.00582971
-1.26675e-05
-0.00831539
-2.65858e-05
0.0113555
-0.0118041
-2.21438e-05
0.0152004
-3.16149e-05
-0.0149426
0.0148791
-4.60392e-05
-0.0114916
0.0116302
-0.015067
-3.65699e-06
2.0392e-05
9.75701e-05
5.01485e-05
1.07136e-05
-2.42363e-06
-3.6037e-06
-2.07596e-06
-9.46525e-06
-2.45367e-05
-5.01819e-05
-5.94111e-05
-0.000110367
-0.000137504
-0.000708596
0.00115997
0.000216496
-0.0019165
0.00290489
0.0045559
-0.00651618
0.00986125
-0.0134489
0.00012225
-0.00859797
0.000862601
0.00553454
-0.000134749
-0.00352177
0.000154423
0.00236654
-0.000504802
-0.00031069
-0.00266088
-0.000166315
0.00376309
-0.00429658
9.65875e-05
-0.0097164
2.75048e-05
0.0134528
-0.0114979
-9.6204e-06
0.0151
9.12122e-05
-0.0172889
0.010217
5.0844e-05
-0.00886466
0.00746215
-0.0120575
0.00010693
-0.00285934
-0.00137303
-0.00222713
-0.00360466
0.0106885
-0.0191941
0.00401895
-0.00581383
-0.0024305
-0.00102426
-0.000412507
-0.000150916
-4.87472e-05
-1.31951e-05
-1.53508e-06
7.39352e-06
2.34336e-06
-1.13543e-06
8.12276e-07
-1.57921e-07
4.53669e-06
-4.63575e-06
2.68063e-06
-2.61319e-07
-2.06766e-06
-1.16513e-07
5.50406e-06
-6.09429e-06
-3.4852e-07
-1.16993e-05
-2.25541e-07
-2.32345e-05
-5.9545e-08
-4.593e-05
1.0659e-06
9.06085e-05
-9.06021e-05
7.75008e-07
-0.000163913
1.31269e-05
0.000310828
3.88394e-06
1.74404e-06
0.000177898
9.28839e-07
4.83748e-05
-1.15607e-07
-7.45859e-07
-3.94262e-07
-4.55746e-07
-2.44238e-07
1.92653e-06
-1.03212e-07
-2.32843e-07
6.82939e-07
1.30465e-06
-6.21898e-06
-2.06274e-06
-1.64668e-05
-6.49872e-07
-5.49067e-05
-2.83224e-06
9.84985e-05
-9.31383e-05
-1.53514e-06
-0.00017654
-1.13809e-06
-0.000316022
-6.21751e-08
-0.000554666
4.89103e-06
0.000953904
-0.000971453
-2.51339e-06
0.00162837
4.0727e-07
2.44697e-06
0.000575476
-4.68909e-07
-5.01223e-07
-1.12011e-06
-1.63237e-06
4.49183e-05
-8.78423e-07
1.06815e-05
3.48072e-07
-2.61527e-06
1.28744e-05
-2.39059e-06
1.49965e-06
-1.06402e-05
3.1018e-05
-9.82614e-06
-1.75287e-05
-0.00011546
-2.06902e-05
-0.000224635
-6.98235e-07
-0.000651223
-1.44568e-05
0.00107577
-0.000970792
5.25095e-07
-0.00161338
2.44962e-06
-0.0025387
-1.42806e-06
-0.00390115
-1.55105e-07
0.0057818
-0.00597157
-3.8617e-05
0.00850604
-1.33134e-05
2.90241e-06
9.09551e-06
1.11472e-05
2.03698e-05
1.11398e-05
4.79744e-06
1.64561e-06
1.49458e-06
1.36885e-06
3.66714e-06
6.29223e-06
1.99495e-05
5.56377e-05
0.000131538
1.36187e-05
1.55576e-05
8.38292e-06
8.3109e-06
3.87556e-06
5.30603e-06
2.47928e-06
-5.8771e-06
-3.35328e-05
5.91122e-06
-3.26876e-05
7.72679e-05
2.09084e-05
-0.000126969
-0.000130369
7.87112e-05
7.29391e-05
2.07146e-05
-0.000121713
-0.000138139
8.33089e-05
-3.49257e-05
5.85884e-06
-3.17643e-05
1.98449e-05
2.11731e-05
2.08828e-05
2.00132e-05
5.89895e-06
-3.41037e-05
-3.25189e-05
-5.88739e-06
7.39559e-05
2.08041e-05
-0.000134988
-0.00012486
-2.20003e-05
0.000249582
6.27158e-05
-0.000458278
-0.00041839
-0.000428048
-0.000439347
6.34908e-05
0.00026016
0.000265547
-2.1877e-05
0.000245553
6.2708e-05
-0.000407738
-0.00046856
0.000282664
-2.29563e-05
-0.000114754
-0.000171141
1.73999e-05
6.4997e-05
-6.2447e-06
-3.0109e-05
-4.33877e-05
5.17557e-06
1.78634e-05
2.23131e-05
-7.3002e-06
1.4555e-06
-7.32449e-06
-2.17472e-06
-7.42764e-06
1.44613e-06
-7.26789e-06
-2.17415e-06
-7.46124e-06
1.46891e-06
-7.13793e-06
2.19724e-05
1.79206e-05
-2.27677e-06
-2.69717e-06
4.14106e-06
-2.64507e-06
-1.52014e-06
-1.70795e-06
-1.99284e-06
-1.88939e-06
-1.90969e-06
-1.62163e-06
-2.73758e-06
-3.7596e-06
-1.97598e-06
-1.72622e-06
-1.52378e-06
-9.95191e-07
-1.14252e-07
-2.87043e-07
1.72293e-06
-1.62417e-06
5.93305e-06
6.13303e-06
6.09294e-06
5.94269e-06
6.28226e-06
5.29843e-06
-1.46047e-06
1.47822e-06
-1.07501e-07
-9.90739e-07
-2.91495e-07
1.21723e-06
1.64561e-06
5.99363e-06
6.14826e-06
2.04013e-05
5.67657e-05
7.52094e-06
-7.05349e-05
0.000793177
0.000161179
-0.00124892
-0.00128182
-0.00118543
-0.00137205
0.000158472
0.000735199
0.000847607
-7.30182e-05
-0.000383108
-0.000577638
5.11026e-05
0.000221156
0.00033433
-4.76915e-06
2.08417e-05
-6.28757e-05
2.32028e-05
6.73636e-05
-0.000187158
5.9186e-05
0.000192928
-0.000476885
0.000147545
0.000543774
-0.000990898
0.000484503
0.00178674
-0.000214182
0.0016061
-0.000542668
0.000691106
-0.000293979
0.00029885
-0.000121789
0.000115362
-4.28133e-05
3.82995e-05
7.51808e-06
-1.85699e-05
9.70218e-05
-7.6299e-07
5.10976e-06
-5.22584e-06
1.80389e-06
9.35997e-06
-1.37703e-05
-5.18097e-06
4.37369e-07
2.92008e-07
-9.25684e-06
1.50588e-06
-6.71609e-06
-2.28065e-06
-2.69641e-06
4.43804e-06
-1.93556e-06
-1.66095e-06
-1.98887e-06
-1.58497e-06
-6.41538e-07
-1.92092e-06
-4.24585e-07
-2.28208e-07
-4.56656e-06
6.48612e-07
6.98684e-06
5.31717e-06
6.33923e-06
-1.46402e-06
-3.79114e-06
-2.64443e-06
4.19669e-06
1.94044e-05
2.08019e-05
7.0371e-05
0.000205842
0.000526133
0.000125989
-0.00111206
-0.00169134
0.00101643
0.000670328
-0.000126529
-4.19391e-05
-1.15223e-05
-1.04047e-05
6.31011e-05
0.000180782
0.000454786
-0.000320627
-0.000196024
0.00222099
0.000338334
-0.00298108
-0.00347921
-0.00278472
-0.0043229
0.0002616
0.00178857
0.00270735
-4.08331e-05
7.17953e-05
2.47146e-05
1.42016e-05
3.26073e-05
6.47625e-05
-0.00391498
0.00349098
-0.00522892
0.000171028
0.000241144
0.000135024
0.000126683
2.05858e-05
-2.60965e-06
0.00250513
2.3587e-05
-8.88758e-06
0.00578244
0.000160415
-7.93391e-07
0.000263043
0.000440649
-7.27737e-05
5.02482e-06
2.00451e-05
1.0477e-05
1.34593e-05
7.055e-07
2.48854e-05
9.92113e-06
5.2917e-06
-9.50071e-06
-1.81634e-06
-2.29765e-06
-3.77119e-06
-1.98344e-06
-1.52635e-06
-4.27459e-06
-5.05272e-06
8.0547e-05
0.000156432
5.33732e-05
4.06069e-05
4.06305e-05
4.4698e-05
1.10771e-05
1.11937e-05
2.66816e-06
4.07165e-06
4.33572e-06
1.55984e-05
0.000123781
0.000122869
0.000309805
0.000313618
0.000350808
0.000638787
0.000632615
0.000804184
0.000389348
-0.00453564
0.00622886
0.00103389
-0.00903441
0.00128392
0.00102124
-0.000956199
-0.00155697
-0.0200008
-0.0220112
-0.03766
0.0096392
0.00286568
0.0165083
-0.00609037
0.010406
-0.00110118
-0.0114959
0.0105582
-0.000211426
0.00657446
-0.000253062
0.00988915
-0.0108275
-0.000853036
-0.000260946
-0.000281005
0.000147526
-0.00100954
0.00673514
-0.000243103
0.000478506
0.000181883
6.51186e-05
8.81072e-05
1.78819e-05
1.56467e-05
-0.000185753
-0.000179401
-0.000214567
-0.000133919
3.5002e-05
-3.53643e-05
-7.74463e-05
-5.15302e-05
0.00111118
-0.00182582
3.3158e-05
-0.00455538
-1.33667e-05
0.00675766
-0.00585683
2.65691e-05
-0.00842548
2.22095e-05
0.00834074
-4.52487e-07
4.0555e-06
2.48502e-06
5.28278e-06
5.04935e-05
0.000506238
8.1777e-05
1.94655e-05
2.18367e-06
-2.29911e-06
-1.54501e-06
8.72179e-07
2.52255e-07
5.84641e-08
4.63989e-05
-5.04378e-07
9.00077e-05
-2.28139e-07
2.25517e-05
1.10915e-05
-7.90952e-08
5.48417e-06
2.04707e-06
4.6061e-08
-2.30579e-08
-3.49092e-08
-7.74699e-07
-2.7215e-06
0.000168484
5.67157e-06
-3.3717e-05
0.000174978
-3.05645e-05
1.93365e-05
-9.26555e-05
0.00038581
-7.67585e-05
-0.000147345
-0.00107429
-0.00011238
0.00154325
-0.000220681
-0.000168963
0.000145796
5.75796e-05
-1.96272e-06
0.000554371
-6.22573e-09
0.000559756
4.57603e-06
9.722e-06
0.00159074
5.14446e-06
0.00257088
1.94923e-05
5.88895e-05
0.00395942
-0.000489335
0.00277432
-0.000403348
-0.000619167
-0.00592568
-9.22203e-05
0.00593069
-0.0011251
0.000277813
5.21314e-05
-0.00163779
-0.00489904
-0.000224362
-0.000771661
-0.000296865
0.000196435
0.000179138
0.0084724
4.0995e-05
2.76811e-05
-9.21395e-06
-6.98863e-05
-0.000280831
-4.13268e-07
3.8117e-05
2.00134e-05
0.00591889
0.00392847
-5.26682e-06
-1.26387e-06
-2.21321e-05
-7.24966e-05
-0.000115159
-0.000533351
-0.000176973
-0.000142143
-5.29618e-05
-1.23481e-05
0.00400611
-2.9833e-06
8.50825e-06
6.83655e-06
5.98456e-05
2.03767e-05
5.89199e-06
6.88833e-07
2.64813e-06
0.000150869
0.000329977
0.000650658
-1.89338e-05
0.000321234
0.000189455
-0.000433961
0.002122
0.00513939
-0.00339787
0.0207913
0.00316788
0.00225933
0.00151081
0.00142982
0.000921893
0.000447116
0.000179246
6.25674e-05
1.91968e-05
1.93704e-05
4.22118e-06
-2.48557e-06
-2.492e-06
-3.75407e-06
-1.62371e-06
-3.77085e-06
-1.92758e-06
4.36046e-06
2.0527e-05
-1.15434e-05
-6.27928e-06
6.56007e-05
8.17904e-05
1.98209e-05
2.43425e-06
1.4416e-06
5.28178e-07
1.25818e-06
2.63438e-06
3.52224e-06
8.46563e-07
1.37811e-06
9.64813e-06
2.44205e-06
1.13515e-05
5.85635e-06
5.13345e-06
3.65516e-06
3.15061e-06
6.41523e-06
7.5363e-06
6.90414e-06
5.50919e-05
0.000129741
0.00013371
0.000266347
-3.85511e-05
-0.000443535
-0.00324159
0.000348332
-0.00315152
0.00452139
0.000662533
-0.00686677
-0.00710651
0.00465504
0.00435494
0.000622287
-0.00647456
-0.00764723
0.00500797
-0.000449357
0.00416385
0.00626361
-5.70002e-05
9.88937e-05
-0.000694359
0.00116222
0.00217831
0.00332237
0.00450958
0.00408449
0.0116981
0.0273175
0.00459118
0.014438
0.0214187
-0.00239779
-0.00131294
0.00160049
0.000964259
-0.000624239
-0.000291378
0.00192792
0.00207046
0.00202173
0.00195702
0.000342953
-0.00338796
-0.00307884
-0.000447215
0.00442351
0.000658537
-0.00738847
-0.00677095
-0.000879684
0.00848156
0.00905299
0.00801355
-0.000868615
-0.000113951
-0.000181763
-2.3464e-06
1.16342e-05
6.19378e-05
9.35275e-06
1.03182e-05
-2.4191e-05
-1.10764e-05
-0.000198382
0.00199808
-0.00022683
-0.000129651
-0.000279632
-0.000299145
-0.000191462
-0.000316605
-0.000139418
0.0051053
-0.000180732
7.3736e-05
1.93482e-05
8.67413e-06
0.000141144
0.000125961
-0.00258728
0.012194
-0.00708987
-0.0236277
-0.0261159
0.00253521
-0.0127696
0.00557002
0.00186114
-0.00793078
-0.00903725
-0.000795798
-0.00116451
0.00780137
0.00728387
-0.000751775
-0.00714846
-0.00016677
0.00706405
-1.20053e-05
5.90174e-05
-5.60253e-06
5.32334e-05
0.000244639
0.000252151
0.000161309
3.44462e-05