/*--------------------------------*- C++ -*----------------------------------*\
| =========                 |                                                 |
| \\      /  F ield         | OpenFOAM: The Open Source CFD Toolbox           |
|  \\    /   O peration     | Version:  2306                                  |
|   \\  /    A nd           | Website:  www.openfoam.com                      |
|    \\/     M anipulation  |                                                 |
\*---------------------------------------------------------------------------*/
FoamFile
{
    version     2.0;
    format      ascii;
    arch        "LSB;label=32;scalar=64";
    class       volVectorField;
    location    "0.9";
    object      flux;
}
// * * * * * * * * * * * * * * * * * * * * * * * * * * * * * * * * * * * * * //

dimensions      [0 1 -1 1 0 0 0];

internalField   nonuniform List<vector> 
5322
(
(-2.01116e-06 5.08266e-06 -6.72774e-06)
(1.48955e-07 6.85895e-07 -5.72913e-06)
(1.44368e-07 2.40709e-07 -4.18231e-06)
(-3.68161e-09 1.80452e-07 -4.50748e-06)
(-9.20241e-09 1.96191e-07 -2.78204e-06)
(-6.21535e-09 1.53294e-07 -1.56503e-06)
(-3.18286e-09 9.56599e-08 -8.01251e-07)
(-1.42845e-09 5.1851e-08 -3.73744e-07)
(-6.0437e-10 2.54061e-08 -1.59644e-07)
(-2.01072e-10 1.11052e-08 -6.38443e-08)
(-1.35438e-11 3.17483e-09 -2.63616e-08)
(2.57672e-10 -3.48238e-09 -1.63348e-08)
(2.69515e-10 -2.53844e-09 -9.55376e-09)
(-3.18578e-09 -2.50629e-09 -1.4759e-08)
(1.4523e-10 -2.55385e-09 -1.72819e-08)
(7.70174e-09 6.88175e-09 -1.74241e-08)
(-5.71361e-09 8.61946e-09 -1.97864e-08)
(6.37795e-10 -1.28075e-10 -1.80926e-08)
(-5.55619e-09 8.8103e-09 -3.23053e-08)
(9.85759e-09 -1.89803e-08 -5.05568e-08)
(-1.22716e-08 2.63142e-08 -8.71056e-08)
(2.81739e-08 -4.82065e-08 -1.34596e-07)
(-2.86417e-08 6.74409e-08 -2.22412e-07)
(6.95459e-08 -1.17472e-07 -3.32383e-07)
(-7.25406e-08 1.62911e-07 -5.20527e-07)
(1.4939e-07 -2.55656e-07 -7.36154e-07)
(-1.49586e-07 3.39736e-07 -1.09523e-06)
(3.02487e-07 -5.22778e-07 -1.49568e-06)
(-3.0816e-07 6.72261e-07 -2.11003e-06)
(5.40974e-07 -9.42791e-07 -2.73159e-06)
(-5.13597e-07 1.17177e-06 -3.65999e-06)
(9.42631e-07 -1.56977e-06 -4.56639e-06)
(-6.85882e-07 1.93337e-06 -5.76965e-06)
(1.58239e-06 -2.08679e-06 -6.72878e-06)
(2.1752e-07 2.24247e-06 -7.63105e-06)
(2.59466e-06 -1.38236e-06 -7.01932e-06)
(1.84557e-06 2.81704e-06 -8.49047e-06)
(-7.31112e-07 3.37205e-06 -8.21924e-06)
(2.00125e-06 1.71823e-06 -8.46041e-06)
(-1.22664e-07 1.97045e-06 -6.35322e-06)
(-1.90261e-06 2.49342e-06 -7.8246e-06)
(1.90318e-06 2.10178e-06 -8.07824e-06)
(-1.14862e-07 2.2955e-06 -6.2225e-06)
(-2.02192e-06 2.33226e-06 -8.07593e-06)
(2.01571e-06 2.22494e-06 -7.99377e-06)
(-6.68561e-08 2.34068e-06 -6.33739e-06)
(-2.14727e-06 2.26085e-06 -8.19792e-06)
(1.90588e-06 2.41732e-06 -7.75851e-06)
(-4.08152e-08 2.38535e-06 -6.28349e-06)
(-2.25685e-06 2.15377e-06 -8.10677e-06)
(-2.2508e-06 2.72927e-06 -9.38318e-06)
(-3.21142e-06 1.15904e-06 -6.1306e-06)
(-1.09948e-06 1.39811e-06 -8.7177e-06)
(1.95749e-06 -4.13684e-06 -7.41434e-06)
(-1.2959e-07 -1.86257e-07 -6.37561e-06)
(-3.17045e-06 -2.36217e-06 -6.99421e-06)
(-1.00746e-07 1.34223e-06 -8.92732e-06)
(3.00551e-06 -3.06337e-06 -6.84258e-06)
(-3.51173e-08 -1.2725e-07 -6.34749e-06)
(-3.00252e-06 -2.65941e-06 -6.95854e-06)
(-1.20781e-08 1.36184e-06 -9.00961e-06)
(2.92613e-06 -3.00769e-06 -6.93326e-06)
(-1.39108e-08 -1.1259e-07 -6.3427e-06)
(-2.94983e-06 -2.64048e-06 -6.78989e-06)
(5.57244e-09 1.36866e-06 -9.01487e-06)
(2.88997e-06 -3.12439e-06 -7.19232e-06)
(4.67198e-08 -1.63282e-07 -6.32857e-06)
(-2.92319e-06 -2.5684e-06 -6.46702e-06)
(1.71816e-07 1.39348e-06 -8.87471e-06)
(2.42126e-06 -3.52055e-06 -7.71078e-06)
(1.67847e-07 9.23162e-08 -5.29225e-06)
(-2.14356e-06 2.51202e-06 -7.51388e-06)
(2.43878e-06 1.38874e-06 -7.14744e-06)
(-2.50566e-06 1.95384e-06 -7.03738e-06)
(2.4103e-06 1.4472e-06 -7.09794e-06)
(-2.45574e-06 1.84467e-06 -7.06398e-06)
(2.45739e-06 1.53108e-06 -7.05906e-06)
(-2.4614e-06 1.841e-06 -7.04575e-06)
(2.80843e-06 1.56956e-06 -7.17655e-06)
(-2.08297e-06 2.22358e-06 -6.89299e-06)
(9.49561e-07 1.3436e-07 -6.81416e-06)
(-1.63758e-06 9.59471e-07 -5.71693e-06)
(-1.13583e-06 1.37446e-06 -5.93342e-06)
(1.65255e-06 2.11809e-06 -7.34073e-06)
(1.18975e-07 -1.12765e-07 -4.54454e-06)
(-5.91304e-07 -6.835e-07 -6.40037e-06)
(1.27892e-06 3.00762e-07 -9.88618e-06)
(-3.59606e-06 5.58449e-07 -6.70866e-06)
(-1.00783e-06 1.3023e-06 -6.62523e-06)
(3.75815e-06 2.06933e-07 -5.60297e-06)
(-1.75003e-07 3.52213e-07 -6.81133e-06)
(2.10659e-08 5.77915e-08 -4.08905e-06)
(3.33719e-08 6.98941e-09 -4.30022e-06)
(3.29268e-07 5.89008e-09 -4.30277e-06)
(1.92739e-06 2.30075e-06 -5.83245e-06)
(-3.23099e-07 -1.40484e-06 -6.05903e-06)
(9.32929e-08 4.72878e-08 -5.52095e-06)
(-6.36306e-08 1.41987e-06 -6.13312e-06)
(1.31405e-06 4.67883e-08 -1.0042e-05)
(-3.16756e-06 -1.07175e-07 -6.49943e-06)
(-3.15673e-06 3.09407e-07 -6.59414e-06)
(6.14811e-06 5.09107e-08 -5.67282e-06)
(-6.94292e-08 1.52987e-06 -6.1842e-06)
(1.49514e-06 -2.23563e-06 -5.77574e-06)
(2.44656e-06 2.00782e-06 -6.32239e-06)
(1.22077e-07 6.32073e-08 -5.38098e-06)
(3.6961e-08 -5.12577e-08 -5.62128e-06)
(2.07325e-08 -5.30872e-09 -4.56433e-06)
(8.4336e-09 1.72781e-09 -2.8189e-06)
(1.56679e-09 4.26101e-09 -1.58811e-06)
(-7.57954e-10 3.45044e-09 -8.12599e-07)
(-1.057e-09 2.17046e-09 -3.77928e-07)
(-7.60899e-10 1.18622e-09 -1.60175e-07)
(-4.00789e-10 5.45882e-10 -6.31073e-08)
(-1.65409e-10 2.2655e-10 -2.84512e-08)
(-9.61458e-11 1.16911e-10 -1.82058e-08)
(-2.40677e-09 2.48218e-09 -1.41305e-08)
(-2.09428e-09 -6.3339e-10 -1.43612e-08)
(3.85125e-10 -4.51349e-10 -2.4886e-08)
(1.0809e-09 -1.40916e-09 -1.51958e-08)
(-6.64563e-11 2.05218e-09 -1.22476e-08)
(1.48526e-09 -6.14329e-10 -1.32126e-08)
(-1.85616e-09 -1.49836e-09 -1.30026e-08)
(-1.86138e-10 -2.27378e-09 -1.72793e-08)
(-6.52768e-10 -2.43674e-09 -1.33475e-08)
(2.89617e-09 -6.10496e-11 -1.70043e-08)
(2.24063e-09 2.00817e-09 -1.28918e-08)
(4.39603e-10 -1.38576e-09 -1.34941e-08)
(1.81674e-09 1.76431e-10 -1.6926e-08)
(1.0039e-09 1.61971e-09 -1.306e-08)
(6.88922e-10 -1.57357e-09 -1.33997e-08)
(1.96356e-09 7.4257e-11 -1.71928e-08)
(7.83171e-10 1.65396e-09 -1.32889e-08)
(8.65268e-10 -1.72366e-09 -1.31687e-08)
(1.98799e-09 -8.75075e-11 -1.71751e-08)
(6.25738e-10 1.4939e-09 -1.33144e-08)
(1.50143e-09 -1.86191e-09 -1.30882e-08)
(2.25895e-09 -1.89184e-10 -1.74565e-08)
(2.43476e-09 -6.51032e-10 -1.34707e-08)
(7.03585e-11 2.88281e-09 -1.7162e-08)
(-1.99796e-09 2.25028e-09 -1.30231e-08)
(-3.6722e-11 -1.96731e-09 -1.23506e-08)
(1.42671e-09 1.10705e-09 -1.52876e-08)
(-2.05642e-09 8.6704e-10 -1.42335e-08)
(-2.45783e-09 -2.40072e-09 -1.41999e-08)
(4.74986e-10 4.15007e-10 -2.50042e-08)
(6.50357e-10 -2.08745e-09 -1.44304e-08)
(1.67537e-10 1.49369e-09 -1.4406e-08)
(-1.88797e-09 1.73064e-09 -1.41247e-08)
(-2.13136e-09 -2.01277e-09 -1.43307e-08)
(5.66491e-10 -5.07339e-11 -2.56236e-08)
(2.551e-10 -1.64792e-09 -1.44862e-08)
(4.04197e-10 1.69446e-09 -1.4444e-08)
(-2.12052e-09 2.07814e-09 -1.42592e-08)
(-1.90624e-09 -1.67817e-09 -1.41795e-08)
(5.817e-10 2.70192e-11 -2.55611e-08)
(1.99407e-11 -1.41586e-09 -1.43721e-08)
(8.79631e-10 2.08954e-09 -1.41696e-08)
(-1.97205e-09 5.22817e-11 -1.22717e-08)
(2.56388e-09 1.38624e-10 -1.73571e-08)
(-6.86647e-09 7.72761e-09 -1.74659e-08)
(-8.62899e-09 -5.72971e-09 -1.99072e-08)
(1.23445e-08 1.01685e-08 -3.63671e-08)
(-2.13195e-08 -1.71281e-08 -5.57658e-08)
(-1.52599e-09 1.29768e-09 -2.69923e-08)
(-8.89684e-09 -5.53023e-09 -3.25377e-08)
(1.93557e-10 6.22298e-10 -1.81969e-08)
(6.75915e-09 1.25258e-09 -2.01455e-08)
(-1.4498e-09 -1.98721e-10 -1.09845e-08)
(5.24327e-09 1.66199e-09 -1.41824e-08)
(2.52525e-09 -3.19772e-09 -1.48411e-08)
(3.87994e-09 3.29053e-09 -1.40101e-08)
(-8.25059e-09 -7.25772e-09 -1.92335e-08)
(2.62931e-09 6.57676e-11 -1.81871e-08)
(-7.20966e-09 7.56146e-09 -1.85595e-08)
(7.31216e-09 -1.15692e-08 -3.51807e-08)
(9.53812e-09 1.21329e-08 -3.47991e-08)
(-1.83843e-08 -1.95723e-08 -5.33955e-08)
(2.12627e-09 1.9581e-10 -3.46585e-08)
(-1.57313e-08 1.9594e-08 -5.35618e-08)
(2.21013e-08 -3.22896e-08 -8.93644e-08)
(2.76785e-08 3.37339e-08 -8.93082e-08)
(-4.73967e-08 -5.3134e-08 -1.4022e-07)
(3.83639e-09 4.39594e-10 -9.19538e-08)
(-3.99332e-08 5.26476e-08 -1.4079e-07)
(5.88869e-08 -8.304e-08 -2.24534e-07)
(7.24245e-08 8.64217e-08 -2.24535e-07)
(-1.15058e-07 -1.30955e-07 -3.40988e-07)
(9.20713e-09 8.97706e-10 -2.29411e-07)
(-9.63792e-08 1.29396e-07 -3.41977e-07)
(1.40396e-07 -1.94577e-07 -5.20568e-07)
(1.71429e-07 2.01997e-07 -5.20677e-07)
(-2.57427e-07 -2.92861e-07 -7.56354e-07)
(2.00697e-08 1.7739e-09 -5.22455e-07)
(-2.15416e-07 2.88818e-07 -7.58385e-07)
(3.00206e-07 -4.15468e-07 -1.10105e-06)
(3.67157e-07 4.30528e-07 -1.10188e-06)
(-5.29393e-07 -5.94765e-07 -1.52588e-06)
(3.94054e-08 3.36933e-09 -1.0823e-06)
(-4.43335e-07 5.84983e-07 -1.53033e-06)
(5.76567e-07 -8.08291e-07 -2.12077e-06)
(7.11169e-07 8.3613e-07 -2.12405e-06)
(-9.96949e-07 -1.09385e-06 -2.79807e-06)
(7.08175e-08 5.6967e-09 -2.03737e-06)
(-8.32625e-07 1.0707e-06 -2.80681e-06)
(9.92477e-07 -1.42484e-06 -3.7077e-06)
(1.24333e-06 1.47036e-06 -3.7174e-06)
(-1.69126e-06 -1.79032e-06 -4.65723e-06)
(1.18357e-07 9.1874e-09 -3.46747e-06)
(-1.39267e-06 1.73969e-06 -4.67467e-06)
(1.49138e-06 -2.24367e-06 -5.7952e-06)
(1.85457e-06 2.26034e-06 -5.80535e-06)
(-2.78505e-07 -1.41109e-06 -6.1251e-06)
(1.25822e-06 -1.22046e-08 -1.00387e-05)
(-3.13242e-06 -1.94661e-07 -6.49528e-06)
(-3.1956e-06 1.0153e-07 -6.47734e-06)
(6.16872e-06 -5.3266e-08 -5.68902e-06)
(-2.92046e-07 -2.72286e-09 -7.64703e-06)
(-3.08668e-07 1.12414e-08 -7.63185e-06)
(4.09924e-08 2.00976e-08 -4.30084e-06)
(3.58991e-07 2.08027e-09 -4.3114e-06)
(1.9222e-06 2.30321e-06 -5.82626e-06)
(-2.20111e-07 -1.40439e-06 -6.1103e-06)
(1.1318e-07 4.59468e-09 -5.48428e-06)
(-2.84611e-07 1.69816e-06 -6.22866e-06)
(1.21187e-06 -2.8009e-07 -1.00461e-05)
(-3.18284e-06 -1.42162e-07 -6.54235e-06)
(-3.14268e-06 1.27698e-07 -6.46671e-06)
(6.13054e-06 -1.03549e-07 -5.7054e-06)
(-1.08763e-07 1.40943e-06 -6.09795e-06)
(1.49347e-06 -2.26929e-06 -5.80032e-06)
(9.04833e-08 1.45007e-08 -5.51579e-06)
(5.70419e-08 9.43243e-09 -5.47949e-06)
(2.41552e-08 2.80365e-08 -4.55591e-06)
(1.097e-08 1.28834e-08 -2.8219e-06)
(2.86435e-09 3.79084e-09 -1.5922e-06)
(-2.74183e-10 1.89838e-10 -8.15086e-07)
(-9.18316e-10 -6.86251e-10 -3.79123e-07)
(-7.38272e-10 -6.28101e-10 -1.60672e-07)
(-3.99709e-10 -3.5194e-10 -6.32939e-08)
(-1.73573e-10 -1.49705e-10 -2.85353e-08)
(-1.00429e-10 -8.81348e-11 -1.82713e-08)
(1.71223e-09 -1.91183e-09 -1.42058e-08)
(-2.02895e-09 -2.11328e-09 -1.43025e-08)
(2.06137e-09 -2.12904e-09 -1.42945e-08)
(-1.67886e-09 -1.89886e-09 -1.4162e-08)
(5.25541e-11 6.12656e-10 -2.55726e-08)
(1.65892e-09 3.61715e-10 -1.44487e-08)
(-1.41051e-09 5.81207e-11 -1.43864e-08)
(3.57129e-11 -2.31776e-09 -1.28714e-08)
(-1.53181e-09 7.39765e-10 -1.34477e-08)
(9.02922e-12 -2.00502e-09 -2.24916e-08)
(-1.62235e-09 3.48953e-10 -1.44477e-08)
(-1.16087e-11 6.14231e-10 -2.5613e-08)
(1.4463e-09 7.22562e-11 -1.44346e-08)
(4.07249e-11 -1.97211e-09 -2.22533e-08)
(1.38339e-09 4.50147e-10 -1.35593e-08)
(-1.50462e-10 1.77839e-09 -1.69999e-08)
(-1.58425e-09 9.8394e-10 -1.31286e-08)
(-2.15538e-11 -2.32128e-09 -1.2896e-08)
(1.54199e-09 7.45875e-10 -1.34644e-08)
(3.88554e-12 1.94183e-09 -1.70744e-08)
(7.26223e-12 2.74156e-09 -9.58898e-09)
(3.20512e-09 3.20887e-09 -1.45243e-08)
(-7.34412e-09 -7.57774e-09 -1.85969e-08)
(7.38101e-09 -7.58044e-09 -1.85771e-08)
(-7.13798e-09 -8.04274e-09 -1.9274e-08)
(1.2015e-08 9.10317e-09 -3.48833e-08)
(-1.93213e-08 -1.7641e-08 -5.34764e-08)
(3.33804e-08 2.63397e-08 -8.95099e-08)
(-5.24181e-08 -4.51781e-08 -1.40354e-07)
(8.54098e-08 6.88301e-08 -2.2497e-07)
(-1.29152e-07 -1.09393e-07 -3.41149e-07)
(1.99494e-07 1.6289e-07 -5.21533e-07)
(-2.88819e-07 -2.44504e-07 -7.56538e-07)
(4.25068e-07 3.48872e-07 -1.10351e-06)
(-5.86446e-07 -5.02808e-07 -1.52595e-06)
(8.25565e-07 6.76165e-07 -2.12735e-06)
(-1.07845e-06 -9.48582e-07 -2.79714e-06)
(1.45292e-06 1.18588e-06 -3.72436e-06)
(-1.7664e-06 -1.61765e-06 -4.65187e-06)
(2.27673e-06 1.85387e-06 -5.84855e-06)
(-1.39465e-06 -2.78463e-07 -6.05506e-06)
(3.79529e-08 1.33539e-06 -1.00484e-05)
(1.41495e-06 -1.33208e-07 -6.1622e-06)
(4.21793e-08 9.81168e-08 -5.52067e-06)
(-2.21589e-06 1.60588e-06 -5.78284e-06)
(1.7221e-06 -1.4873e-06 -4.68883e-06)
(1.05907e-08 1.22334e-07 -3.47055e-06)
(-1.40764e-06 1.07509e-06 -3.70826e-06)
(1.05822e-06 -8.96631e-07 -2.81238e-06)
(5.75892e-09 7.25358e-08 -2.03932e-06)
(-7.98725e-07 6.25783e-07 -2.12303e-06)
(5.77786e-07 -4.7901e-07 -1.5323e-06)
(3.14301e-09 4.01913e-08 -1.08331e-06)
(-4.10633e-07 3.25756e-07 -1.10258e-06)
(2.85206e-07 -2.32967e-07 -7.59135e-07)
(1.62183e-09 2.04382e-08 -5.22953e-07)
(-1.92351e-07 1.52347e-07 -5.21403e-07)
(1.27798e-07 -1.04153e-07 -3.42297e-07)
(8.07931e-10 9.37989e-09 -2.2966e-07)
(-8.2117e-08 6.40171e-08 -2.25004e-07)
(5.20267e-08 -4.30096e-08 -1.40911e-07)
(3.9399e-10 3.92191e-09 -9.2074e-08)
(-3.19468e-08 2.40889e-08 -8.9622e-08)
(1.93637e-08 -1.68142e-08 -5.35968e-08)
(1.81967e-10 2.1648e-09 -3.47063e-08)
(-1.14268e-08 7.96375e-09 -3.52849e-08)
(3.29891e-11 -9.94391e-10 -2.29406e-08)
(1.1514e-08 7.97515e-09 -3.5301e-08)
(-1.92186e-08 -1.67804e-08 -5.36184e-08)
(-1.01135e-10 2.16843e-09 -3.47456e-08)
(-1.19307e-08 9.13558e-09 -3.49277e-08)
(7.1868e-09 -8.02963e-09 -1.93142e-08)
(-4.06582e-11 2.65604e-09 -1.82675e-08)
(-3.2363e-09 3.7685e-09 -1.40583e-08)
(-2.34804e-10 2.48151e-09 -9.63332e-09)
(3.20255e-09 2.56827e-09 -1.49744e-08)
(-7.64414e-09 -7.04542e-09 -1.75728e-08)
(1.12633e-08 7.18217e-09 -3.50926e-08)
(-1.92813e-08 -1.57685e-08 -5.33112e-08)
(3.13548e-08 2.31035e-08 -8.92923e-08)
(-5.12397e-08 -4.03695e-08 -1.40833e-07)
(8.12198e-08 6.23611e-08 -2.25451e-07)
(-1.25171e-07 -9.82824e-08 -3.42446e-07)
(1.9136e-07 1.49129e-07 -5.24448e-07)
(-2.78312e-07 -2.20948e-07 -7.59636e-07)
(4.10877e-07 3.19995e-07 -1.11197e-06)
(-5.62429e-07 -4.5811e-07 -1.53267e-06)
(8.05584e-07 6.2072e-07 -2.15031e-06)
(-1.0276e-06 -8.67219e-07 -2.80219e-06)
(1.4322e-06 1.08663e-06 -3.78127e-06)
(-1.65925e-06 -1.43531e-06 -4.62128e-06)
(2.24723e-06 1.64141e-06 -5.89806e-06)
(-1.37816e-06 -1.24876e-07 -6.1008e-06)
(-3.6666e-07 1.01571e-06 -9.959e-06)
(5.67681e-07 -6.38865e-07 -6.51402e-06)
(5.96919e-08 1.33106e-07 -5.37653e-06)
(-2.0952e-06 2.28263e-06 -6.37721e-06)
(1.52615e-06 -2.09068e-06 -5.10634e-06)
(7.52329e-09 1.45299e-07 -3.38667e-06)
(-1.28919e-06 1.58204e-06 -4.06362e-06)
(9.62449e-07 -1.21503e-06 -3.02999e-06)
(-8.23487e-09 8.05641e-08 -1.98587e-06)
(-7.07015e-07 9.09945e-07 -2.3077e-06)
(5.18722e-07 -6.30622e-07 -1.63638e-06)
(-8.21593e-09 4.24443e-08 -1.05151e-06)
(-3.60376e-07 4.68644e-07 -1.1922e-06)
(2.5289e-07 -3.02998e-07 -8.06423e-07)
(-5.31823e-09 2.13046e-08 -5.0653e-07)
(-1.68942e-07 2.20074e-07 -5.62289e-07)
(1.12668e-07 -1.34219e-07 -3.61971e-07)
(-3.19744e-09 9.75578e-09 -2.21948e-07)
(-7.21551e-08 9.39796e-08 -2.41356e-07)
(4.59198e-08 -5.45831e-08 -1.47899e-07)
(-1.77688e-09 4.13509e-09 -8.86655e-08)
(-2.80063e-08 3.63027e-08 -9.51242e-08)
(1.71847e-08 -2.09261e-08 -5.58755e-08)
(-9.62134e-10 2.26948e-09 -3.31187e-08)
(-9.96866e-09 1.22671e-08 -3.64332e-08)
(5.71856e-09 -8.53143e-09 -1.99794e-08)
(-1.19447e-10 2.59234e-09 -1.7465e-08)
(-1.63652e-09 5.26833e-09 -1.42733e-08)
(2.44434e-09 4.394e-09 -1.36567e-08)
(4.15873e-09 -2.14613e-09 -1.31381e-08)
(-1.05539e-09 6.7619e-09 -2.01589e-08)
(1.27547e-10 -1.44555e-09 -1.10032e-08)
(-8.60031e-10 3.12464e-10 -1.26443e-08)
(2.91054e-09 6.78866e-09 -1.76289e-08)
(-9.32997e-09 -6.24891e-09 -1.70914e-08)
(1.07543e-08 8.73111e-09 -3.51029e-08)
(-2.19759e-08 -1.39442e-08 -5.44915e-08)
(-1.47921e-08 2.19841e-08 -5.29325e-08)
(-1.88367e-08 -2.00672e-08 -5.34318e-08)
(2.18811e-09 -3.87665e-10 -3.4195e-08)
(7.62311e-09 -1.38771e-08 -3.44901e-08)
(8.56865e-09 1.17252e-08 -3.52485e-08)
(-8.17813e-09 -7.88064e-09 -1.78814e-08)
(2.45952e-09 5.87074e-11 -1.79754e-08)
(-6.98326e-09 7.83067e-09 -1.93567e-08)
(-1.17208e-09 1.47598e-10 -2.25121e-08)
(-2.31953e-10 -3.01959e-10 -2.20973e-08)
(-2.19183e-09 -1.7655e-09 -2.09375e-08)
(1.17624e-10 1.16271e-10 -1.42343e-08)
(-1.33991e-10 -1.47074e-10 -1.37103e-08)
(-2.08982e-09 7.25526e-11 -2.22058e-08)
(-8.26259e-10 -1.67808e-10 -2.43189e-08)
(-1.12969e-09 -1.34195e-10 -2.28546e-08)
(-7.40251e-09 7.44369e-09 -1.91525e-08)
(-8.07767e-09 -7.53798e-09 -1.87023e-08)
(8.88903e-09 1.17664e-08 -3.52702e-08)
(-1.83475e-08 -1.95756e-08 -5.36079e-08)
(-2.60083e-09 6.14516e-11 -5.70739e-08)
(2.67312e-08 3.28395e-08 -8.96091e-08)
(-4.73407e-08 -5.26115e-08 -1.40905e-07)
(7.10374e-08 8.4524e-08 -2.25e-07)
(-1.1489e-07 -1.29201e-07 -3.4227e-07)
(-1.47721e-08 6.50272e-10 -3.45798e-07)
(1.6938e-07 1.98313e-07 -5.21747e-07)
(-2.5707e-07 -2.88113e-07 -7.58699e-07)
(3.63671e-07 4.24041e-07 -1.10437e-06)
(-5.28607e-07 -5.83198e-07 -1.52968e-06)
(-2.45651e-08 2.56802e-09 -1.48078e-06)
(7.03909e-07 8.25149e-07 -2.12883e-06)
(-9.90874e-07 -1.06781e-06 -2.802e-06)
(1.22262e-06 1.44907e-06 -3.72148e-06)
(-1.65592e-06 -1.74057e-06 -4.6623e-06)
(3.44228e-07 -3.99983e-09 -4.30969e-06)
(4.05948e-08 2.83088e-09 -4.29875e-06)
(-5.83855e-09 4.66512e-09 -2.66078e-06)
(-2.25911e-09 1.39581e-08 -2.66645e-06)
(-2.21812e-08 5.74664e-09 -1.50186e-06)
(-2.28578e-08 6.73549e-09 -1.48754e-06)
(7.32476e-07 8.35611e-07 -2.14462e-06)
(-1.01817e-06 -1.06896e-06 -2.80873e-06)
(7.82802e-08 4.00423e-09 -2.04517e-06)
(-8.25273e-07 1.27371e-06 -2.84338e-06)
(9.30224e-07 -1.66334e-06 -3.7196e-06)
(1.28246e-06 1.48239e-06 -3.75893e-06)
(-1.66254e-06 -1.72507e-06 -4.64305e-06)
(1.41328e-07 1.48614e-08 -3.47659e-06)
(-1.463e-06 2.11275e-06 -4.76334e-06)
(1.32912e-06 -2.52775e-06 -5.75721e-06)
(2.68006e-06 1.63408e-06 -6.55844e-06)
(-1.50994e-07 -1.30531e-06 -6.01277e-06)
(1.96108e-07 -2.64634e-06 -1.02465e-05)
(-3.44004e-06 -2.16278e-07 -6.74321e-06)
(-3.20698e-06 2.53452e-08 -6.36309e-06)
(5.9e-06 -9.44251e-07 -5.9284e-06)
(-4.16912e-07 -2.60259e-07 -7.52826e-06)
(4.22533e-08 2.40095e-08 -4.10944e-06)
(8.09132e-08 1.19427e-06 -3.78069e-06)
(-1.20685e-06 1.40253e-06 -5.01127e-06)
(2.13998e-07 8.15067e-08 -2.91782e-06)
(5.62618e-07 -1.6306e-06 -3.8117e-06)
(-5.87621e-07 9.8538e-07 -2.89024e-06)
(3.14839e-08 -1.00047e-08 -1.66443e-06)
(3.39413e-07 -7.54694e-07 -2.16164e-06)
(-2.98881e-07 5.3171e-07 -1.53192e-06)
(-2.40401e-09 -1.5347e-08 -8.71911e-07)
(1.64976e-07 -3.59125e-07 -1.11866e-06)
(-1.50557e-07 2.62626e-07 -7.516e-07)
(-4.33022e-09 -8.58979e-09 -4.18767e-07)
(6.95946e-08 -1.6009e-07 -5.2465e-07)
(-6.76235e-08 1.17273e-07 -3.33384e-07)
(-3.8703e-09 -5.17811e-09 -1.82521e-07)
(3.0231e-08 -6.7441e-08 -2.24527e-07)
(-2.74911e-08 4.9417e-08 -1.34875e-07)
(-2.68919e-09 -2.72599e-09 -7.24379e-08)
(1.20601e-08 -2.45986e-08 -8.69403e-08)
(-9.2372e-09 1.91929e-08 -5.01806e-08)
(-1.59874e-09 -1.71225e-09 -2.68533e-08)
(5.84951e-09 -8.35691e-09 -3.24042e-08)
(1.65561e-09 1.08287e-09 -1.93292e-08)
(1.0416e-09 2.37775e-09 -1.83521e-08)
(2.45223e-11 -6.07084e-09 -2.97358e-08)
(-3.65648e-11 -1.18875e-09 -3.19615e-08)
(5.0818e-09 1.24838e-08 -4.51137e-08)
(-2.23527e-09 -2.11726e-08 -7.95513e-08)
(3.27538e-08 2.29909e-08 -8.95856e-08)
(-5.68962e-08 -3.74162e-08 -1.44029e-07)
(8.81163e-08 5.91589e-08 -2.28883e-07)
(-1.39188e-07 -9.19231e-08 -3.51328e-07)
(-8.95356e-08 1.46979e-07 -3.40721e-07)
(-1.18113e-07 -1.30693e-07 -3.43157e-07)
(9.44103e-09 -1.35908e-09 -2.28966e-07)
(5.80859e-08 -9.75527e-08 -2.25678e-07)
(7.28675e-08 8.40948e-08 -2.25209e-07)
(-4.85577e-08 -5.34428e-08 -1.41126e-07)
(3.9297e-09 -8.39808e-10 -9.15065e-08)
(-3.68062e-08 5.93872e-08 -1.39433e-07)
(-5.41864e-09 2.51495e-10 -1.44784e-07)
(-2.92992e-09 -2.73188e-09 -1.43047e-07)
(-1.16419e-09 -1.16481e-09 -5.57234e-08)
(-1.50119e-09 -1.30399e-09 -4.68807e-08)
(-2.74719e-09 -7.096e-09 -5.93486e-08)
(7.96948e-10 -2.05925e-09 -5.22003e-08)
(3.64213e-11 -6.20722e-10 -4.92911e-08)
(-3.3354e-09 -7.23954e-10 -5.98699e-08)
(-1.08678e-08 1.35237e-09 -6.31026e-08)
(-3.04259e-09 6.71671e-10 -2.60977e-08)
(3.04001e-09 1.45585e-10 -1.61568e-08)
(3.3692e-09 -3.45519e-10 -9.80777e-09)
(3.04651e-09 4.89187e-09 -1.76362e-08)
(1.18905e-09 1.52279e-09 -1.03395e-08)
(6.55906e-09 9.59937e-11 -1.75045e-08)
(1.76009e-09 1.37964e-09 -2.39818e-08)
(4.71322e-09 -1.26061e-09 -3.83549e-08)
(7.95195e-09 -4.23591e-09 -9.90414e-08)
(-1.25587e-08 -3.55176e-09 -1.55232e-07)
(-2.60394e-08 2.96792e-09 -1.58982e-07)
(-5.63761e-08 6.85662e-09 -3.75801e-07)
(-2.99791e-08 -7.64918e-09 -3.73234e-07)
(1.56168e-08 -1.04096e-08 -2.45539e-07)
(-8.90918e-09 -5.61969e-08 -2.05066e-07)
(2.49313e-09 -5.95586e-09 -2.20042e-07)
(2.51351e-08 7.74047e-08 -3.06187e-07)
(-2.26765e-08 -1.34026e-07 -4.77526e-07)
(2.10744e-07 1.3908e-07 -5.36883e-07)
(-3.12604e-07 -2.04866e-07 -7.80755e-07)
(4.5492e-07 3.00035e-07 -1.14343e-06)
(-6.49467e-07 -4.15877e-07 -1.57938e-06)
(-4.23154e-07 6.79904e-07 -1.5388e-06)
(-5.45076e-07 -5.86587e-07 -1.53542e-06)
(4.14745e-08 -8.5725e-10 -1.08457e-06)
(2.90194e-07 -4.84356e-07 -1.11026e-06)
(3.76277e-07 4.26096e-07 -1.10985e-06)
(-2.64754e-07 -2.906e-07 -7.61159e-07)
(2.07673e-08 -1.69348e-09 -5.22603e-07)
(-2.0222e-07 3.31022e-07 -7.59068e-07)
(-1.82135e-08 3.56859e-09 -7.53972e-07)
(-7.56766e-09 -7.9263e-09 -7.30187e-07)
(-5.45202e-09 -5.14658e-09 -3.38552e-07)
(-6.22298e-09 2.30268e-09 -2.92349e-07)
(-1.46356e-08 -4.22147e-08 -3.56569e-07)
(-1.25638e-09 -2.17189e-08 -3.37351e-07)
(-4.73881e-09 -1.52694e-08 -3.1958e-07)
(-7.00514e-09 -1.88425e-08 -1.50592e-07)
(-7.19015e-10 -8.88429e-09 -1.36789e-07)
(-1.91259e-09 -6.3637e-09 -1.29585e-07)
(1.15307e-08 3.17053e-08 -1.23358e-07)
(9.21937e-10 -2.63382e-09 -8.71302e-08)
(-3.2389e-09 -8.59625e-10 -1.21992e-07)
(-3.29573e-10 7.56396e-09 -1.01689e-07)
(3.20717e-10 -1.07383e-08 -6.43906e-08)
(5.08301e-11 -3.05483e-09 -2.66545e-08)
(-2.36563e-10 3.56189e-09 -1.65103e-08)
(2.96754e-10 6.30542e-09 -1.7417e-08)
(-4.0783e-09 1.10356e-08 -1.51475e-08)
(-9.37387e-10 -5.7477e-10 -2.42025e-08)
(-6.48395e-10 -8.84094e-11 -1.81503e-08)
(-2.70637e-10 2.84425e-09 -3.93797e-08)
(-1.2002e-10 1.78461e-09 -3.96766e-08)
(1.95042e-08 -1.75964e-08 -5.3567e-08)
(7.15251e-11 -2.54379e-09 -5.68298e-08)
(-3.31588e-08 2.64937e-08 -8.9603e-08)
(3.22239e-08 2.41062e-08 -8.96944e-08)
(-5.15834e-08 -4.28706e-08 -1.40919e-07)
(-1.23301e-10 3.93785e-09 -9.22017e-08)
(5.30228e-08 -4.52053e-08 -1.40696e-07)
(4.17016e-10 -6.38973e-09 -1.45404e-07)
(-8.48538e-08 6.91717e-08 -2.25218e-07)
(8.29634e-08 6.41499e-08 -2.25341e-07)
(-1.26601e-07 -1.03753e-07 -3.42178e-07)
(2.6756e-11 9.44114e-09 -2.30052e-07)
(1.30873e-07 -1.09933e-07 -3.42371e-07)
(1.26432e-09 -1.34959e-08 -3.45824e-07)
(-1.98148e-07 1.63227e-07 -5.22149e-07)
(1.94663e-07 1.53039e-07 -5.22662e-07)
(-2.82305e-07 -2.32145e-07 -7.58417e-07)
(6.52253e-10 2.06168e-08 -5.24008e-07)
(2.93181e-07 -2.46806e-07 -7.60112e-07)
(3.24831e-09 -2.16808e-08 -7.5079e-07)
(-4.22235e-07 3.48011e-07 -1.10467e-06)
(4.16202e-07 3.28494e-07 -1.10647e-06)
(-5.71564e-07 -4.78151e-07 -1.52918e-06)
(2.39311e-09 4.07148e-08 -1.08572e-06)
(5.96266e-07 -5.10212e-07 -1.53524e-06)
(6.72744e-09 -1.50366e-08 -1.48324e-06)
(-8.20457e-07 6.67413e-07 -2.12721e-06)
(8.10128e-07 6.36054e-07 -2.13419e-06)
(-1.04672e-06 -9.00136e-07 -2.79997e-06)
(6.30689e-09 7.39118e-08 -2.04358e-06)
(1.09558e-06 -9.64851e-07 -2.81921e-06)
(7.38617e-09 6.84767e-08 -2.66234e-06)
(-1.44332e-06 1.13975e-06 -3.71081e-06)
(1.4243e-06 1.11023e-06 -3.73554e-06)
(-1.70646e-06 -1.51668e-06 -4.65209e-06)
(1.14573e-08 1.24825e-07 -3.47319e-06)
(1.77697e-06 -1.62088e-06 -4.69504e-06)
(-1.19898e-08 4.22072e-07 -4.30577e-06)
(-2.2554e-06 1.70199e-06 -5.78393e-06)
(2.22321e-06 1.70152e-06 -5.83644e-06)
(-1.4035e-06 -1.90425e-07 -6.12033e-06)
(-4.13113e-09 9.90389e-08 -5.5114e-06)
(1.39112e-06 -2.44687e-07 -6.12493e-06)
(-1.04415e-07 6.14268e-06 -5.74121e-06)
(-2.63381e-07 -3.14619e-06 -6.52191e-06)
(-1.7695e-07 -3.26575e-06 -6.29892e-06)
(-3.27735e-07 4.61649e-06 -5.55564e-06)
(-2.99795e-06 1.22444e-06 -7.42516e-06)
(5.76822e-07 4.03429e-07 -4.68209e-06)
(3.02332e-07 -3.28577e-06 -5.90697e-06)
(-2.19736e-07 -8.1891e-07 -4.2583e-06)
(-4.35683e-07 -5.04533e-07 -4.06664e-06)
(-1.07113e-07 1.26349e-06 -4.7182e-06)
(-1.97198e-06 -1.33536e-06 -4.63871e-06)
(4.77821e-07 -2.58474e-08 -4.37072e-06)
(-1.0074e-06 8.18002e-08 -4.74042e-06)
(-1.24851e-06 -3.07699e-07 -4.80045e-06)
(-1.54138e-07 -3.29354e-07 -3.85921e-06)
(-3.62803e-07 -7.42033e-08 -2.97555e-06)
(-5.02921e-07 8.45228e-08 -2.92757e-06)
(-2.38741e-07 3.88494e-08 -1.61521e-06)
(-1.30296e-07 -2.33613e-08 -1.63134e-06)
(5.80251e-08 -4.51069e-08 -1.1603e-06)
(-6.15058e-08 -1.47515e-08 -8.1629e-07)
(-1.16227e-07 1.6088e-08 -8.1447e-07)
(-1.05885e-07 3.87545e-09 -8.07956e-07)
(-5.09972e-08 1.29814e-09 -3.74464e-07)
(-2.39947e-08 3.03083e-10 -1.59588e-07)
(-1.05416e-08 -7.11096e-11 -6.39267e-08)
(-2.97917e-09 -1.70252e-10 -2.64374e-08)
(3.75689e-09 -4.13444e-10 -1.64073e-08)
(2.95623e-09 -1.7262e-10 -9.64463e-09)
(3.17922e-09 3.32637e-09 -1.48138e-08)
(3.63487e-09 -3.373e-09 -1.3034e-08)
(5.72297e-09 -6.99466e-11 -1.75034e-08)
(5.52764e-09 -9.58712e-13 -1.7816e-08)
(3.42067e-09 -3.47284e-09 -1.41486e-08)
(3.45549e-09 3.39106e-09 -1.46167e-08)
(2.62095e-09 -3.06427e-11 -1.82741e-08)
(-2.35917e-09 -4.70035e-12 -1.28559e-08)
(6.44327e-10 -1.93775e-11 -1.57245e-08)
(-2.6781e-10 -2.7044e-10 -1.39752e-08)
(-1.81682e-10 -1.84137e-10 -1.37502e-08)
(5.85586e-10 5.91773e-10 -1.55299e-08)
(-2.05287e-09 -6.05498e-11 -1.23261e-08)
(-1.27564e-11 6.79169e-10 -1.56792e-08)
(1.98166e-12 -2.70305e-10 -1.38462e-08)
(6.00032e-13 -3.28866e-10 -1.41765e-08)
(1.33958e-11 -7.75581e-11 -1.85539e-08)
(-1.29766e-09 1.20848e-09 -1.4142e-08)
(-1.57067e-09 -1.56048e-09 -1.43845e-08)
(-1.57575e-09 1.61186e-09 -1.43672e-08)
(-1.2935e-09 -1.1553e-09 -1.41318e-08)
(1.31998e-09 -1.18887e-09 -1.41013e-08)
(-9.06619e-10 -8.98471e-10 -1.38585e-08)
(1.09695e-10 1.06159e-10 -2.65569e-08)
(1.62003e-09 1.61313e-09 -1.4351e-08)
(-1.17478e-09 1.33259e-09 -1.4125e-08)
(-1.16288e-09 -1.29062e-09 -1.41255e-08)
(1.14514e-10 -6.24754e-11 -2.65934e-08)
(1.59834e-09 -1.58175e-09 -1.43676e-08)
(1.30356e-11 1.48543e-11 -1.88564e-08)
(3.23077e-11 3.66734e-11 -2.9393e-08)
(3.43302e-11 -1.6601e-10 -2.89238e-08)
(2.93378e-11 -8.03392e-10 -2.44722e-08)
(-2.01159e-10 -7.78863e-10 -2.42494e-08)
(-5.27011e-11 -1.15395e-09 -2.27061e-08)
(-1.97768e-10 -2.29029e-09 -5.89166e-08)
(-2.99228e-10 -5.55769e-09 -1.50693e-07)
(-1.12058e-10 -1.10513e-08 -3.55946e-07)
(9.99989e-10 -1.78785e-08 -7.66077e-07)
(4.19304e-09 -1.93818e-08 -1.4988e-06)
(-3.81066e-09 -8.26453e-09 -1.43214e-06)
(-1.18245e-08 5.76822e-08 -1.26516e-06)
(-4.51015e-08 -1.83455e-07 -1.52396e-06)
(9.50604e-09 -8.5439e-08 -1.46149e-06)
(-2.29831e-08 -3.7374e-08 -1.38978e-06)
(9.61842e-08 3.86297e-07 -1.40568e-06)
(-1.3368e-07 -5.4033e-07 -1.97162e-06)
(9.04174e-07 5.91925e-07 -2.23497e-06)
(-1.23374e-06 -7.83826e-07 -2.88041e-06)
(1.66378e-06 1.05708e-06 -4.03577e-06)
(-2.76301e-10 -6.08281e-08 -3.54037e-06)
(-4.68008e-07 -1.02008e-06 -3.43929e-06)
(-1.01227e-07 -8.12322e-08 -2.50288e-06)
(1.31613e-07 7.76358e-07 -2.66131e-06)
(1.24382e-08 -3.2108e-08 -2.01715e-06)
(7.43781e-08 -1.07845e-07 -2.21627e-06)
(1.01226e-07 1.62408e-08 -2.2358e-06)
(-2.18166e-07 1.01951e-08 -1.59351e-06)
(-4.47907e-07 2.37543e-08 -2.86337e-06)
(-9.31594e-07 3.00405e-08 -4.66795e-06)
(-2.22492e-06 -2.99075e-08 -6.94984e-06)
(-2.29777e-06 -3.44666e-07 -6.96963e-06)
(-5.02403e-06 1.19551e-06 -7.08108e-06)
(-1.88242e-06 -5.88811e-07 -5.64651e-06)
(-1.58292e-06 -1.85297e-06 -5.07183e-06)
(-9.97901e-09 -3.14221e-07 -5.49923e-06)
(-5.9782e-07 -4.28982e-07 -6.35701e-06)
(6.15368e-07 -4.8025e-06 -5.61245e-06)
(-4.60503e-06 -1.37643e-06 -6.56481e-06)
(-2.83198e-06 1.81108e-07 -9.81622e-06)
(-1.39739e-06 -2.07387e-06 -8.84256e-06)
(1.98251e-06 1.48457e-06 -8.30764e-06)
(1.5998e-07 7.87963e-08 -8.62731e-06)
(7.96379e-08 6.12481e-08 -5.37325e-06)
(-2.00001e-06 1.79003e-06 -6.92145e-06)
(2.10544e-06 1.49738e-06 -7.23857e-06)
(1.61956e-08 1.84116e-07 -8.77655e-06)
(-2.64718e-07 -1.72662e-07 -5.50167e-06)
(-2.17611e-06 1.95682e-06 -7.12891e-06)
(2.10839e-06 1.76177e-06 -7.2611e-06)
(4.1211e-09 1.92929e-07 -8.81773e-06)
(-2.93255e-07 -2.06236e-07 -5.5267e-06)
(-2.12728e-06 1.78376e-06 -7.04147e-06)
(2.10096e-06 2.0018e-06 -7.35773e-06)
(1.47323e-08 1.80523e-07 -8.81022e-06)
(-4.6747e-07 -4.5804e-07 -5.67855e-06)
(-2.03307e-06 1.49279e-06 -7.00094e-06)
(1.50024e-06 2.02019e-06 -7.87797e-06)
(-1.33906e-06 -7.31002e-07 -1.10233e-05)
(1.19381e-06 1.22696e-06 -9.08063e-06)
(9.12576e-07 -1.05974e-06 -8.8922e-06)
(2.5424e-06 1.13804e-06 -1.13251e-05)
(-1.19725e-06 -4.439e-06 -1.11724e-05)
(-6.55332e-07 -2.39075e-06 -8.75976e-06)
(3.69942e-07 3.62469e-07 -6.29189e-06)
(1.40025e-06 -1.09708e-06 -8.71893e-06)
(-4.11146e-06 1.97707e-06 -7.42062e-06)
(-1.87916e-07 -1.25441e-07 -6.37293e-06)
(-2.37665e-06 -3.18345e-06 -6.98059e-06)
(2.43056e-06 1.91857e-06 -7.77491e-06)
(2.38435e-06 -3.34551e-08 -6.28743e-06)
(2.15179e-06 -2.25362e-06 -8.09436e-06)
(2.72891e-06 -2.25091e-06 -9.38832e-06)
(1.15741e-06 -3.21482e-06 -6.1294e-06)
(1.45057e-07 9.62827e-07 -6.81847e-06)
(9.60256e-07 -1.64135e-06 -5.72011e-06)
(1.37587e-06 -1.12845e-06 -5.93831e-06)
(2.10556e-06 1.64179e-06 -7.34291e-06)
(-6.03142e-07 -2.61895e-06 -5.82683e-06)
(1.74398e-07 -4.46961e-07 -4.14855e-06)
(1.06467e-06 1.5458e-06 -4.80099e-06)
(-5.52736e-07 -1.38728e-06 -3.71416e-06)
(1.50636e-08 -1.57437e-07 -2.57268e-06)
(5.6349e-07 9.68681e-07 -2.80941e-06)
(-3.18904e-07 -7.07531e-07 -2.12438e-06)
(3.83362e-09 -7.66576e-08 -1.42602e-06)
(2.98748e-07 5.24826e-07 -1.51085e-06)
(-1.55544e-07 -3.47995e-07 -1.10378e-06)
(3.26017e-09 -4.28617e-08 -7.22024e-07)
(1.48783e-07 2.57538e-07 -7.43324e-07)
(-6.97221e-08 -1.60538e-07 -5.21722e-07)
(2.04616e-09 -2.21397e-08 -3.31912e-07)
(6.79682e-08 1.15783e-07 -3.33391e-07)
(-2.89121e-08 -6.79252e-08 -2.23998e-07)
(8.67246e-10 -9.75466e-09 -1.38932e-07)
(2.79024e-08 4.78285e-08 -1.3575e-07)
(-1.17618e-08 -2.6217e-08 -8.77032e-08)
(-1.39009e-10 -3.06853e-09 -5.21934e-08)
(9.834e-09 1.88331e-08 -5.10357e-08)