/*--------------------------------*- C++ -*----------------------------------*\
| =========                 |                                                 |
| \\      /  F ield         | OpenFOAM: The Open Source CFD Toolbox           |
|  \\    /   O peration     | Version:  2306                                  |
|   \\  /    A nd           | Website:  www.openfoam.com                      |
|    \\/     M anipulation  |                                                 |
\*---------------------------------------------------------------------------*/
FoamFile
{
    version     2.0;
    format      ascii;
    arch        "LSB;label=32;scalar=64";
    class       volVectorField;
    location    "0.9";
    object      flux;
}
// * * * * * * * * * * * * * * * * * * * * * * * * * * * * * * * * * * * * * //

dimensions      [0 1 -1 1 0 0 0];

internalField   nonuniform List<vector> 
5322
(
(-0.00100333 0.00259096 -0.00347465)
(2.37794e-05 0.000245404 -0.00353629)
(2.88092e-05 -1.46574e-05 -0.00363271)
(3.05693e-06 -0.000104509 -0.00393775)
(-6.40325e-07 -5.61156e-05 -0.00388586)
(-7.83118e-07 -1.78495e-05 -0.00385496)
(-8.04792e-08 2.06556e-06 -0.00383401)
(4.24173e-07 2.10103e-05 -0.00382208)
(2.3071e-07 5.64761e-05 -0.00382101)
(-8.57466e-07 0.000100832 -0.00384343)
(-3.90668e-06 1.45329e-06 -0.00379447)
(4.23379e-05 -0.000741336 -0.00380337)
(6.52058e-05 -0.000823665 -0.00286178)
(-0.000898203 -0.000739361 -0.00394575)
(-2.37715e-05 -0.000641913 -0.00431479)
(0.00156359 0.00138944 -0.00344503)
(-0.00122864 0.00185842 -0.00407217)
(-1.93001e-05 -2.99457e-06 -0.00304927)
(-0.00093769 0.00128386 -0.00429443)
(0.000605283 -0.00152336 -0.00433632)
(-0.000822925 0.00144988 -0.00436811)
(0.000717298 -0.00147498 -0.00435307)
(-0.000758722 0.00144845 -0.00436174)
(0.000765089 -0.00148524 -0.00439109)
(-0.000775159 0.00148221 -0.00439934)
(0.00074733 -0.00145748 -0.00438291)
(-0.000748996 0.0014585 -0.00439467)
(0.00078031 -0.00149305 -0.00442437)
(-0.000768896 0.0014918 -0.00443774)
(0.000772754 -0.00147808 -0.00442604)
(-0.000733293 0.00149039 -0.00443812)
(0.000837331 -0.00149532 -0.00445764)
(-0.000628827 0.00154752 -0.00444059)
(0.000963685 -0.00133381 -0.00438058)
(1.54986e-05 0.00128182 -0.00417684)
(0.00121491 -0.000643175 -0.00343611)
(0.000856672 0.00126451 -0.00391293)
(-0.000341607 0.00158584 -0.00398397)
(0.00095965 0.000792411 -0.00411218)
(-5.51871e-05 0.00085894 -0.00289952)
(-0.000910193 0.00117044 -0.00382374)
(0.000915182 0.000977736 -0.00394618)
(-5.54129e-05 0.00101314 -0.00284739)
(-0.000973696 0.00109256 -0.00395189)
(0.000967692 0.00104166 -0.00391323)
(-3.32777e-05 0.00103261 -0.00289479)
(-0.00103491 0.00105827 -0.00400673)
(0.000904037 0.0011306 -0.00378228)
(-2.2785e-05 0.00104885 -0.00285651)
(-0.00108472 0.0010005 -0.00391827)
(-0.00107035 0.00125538 -0.00439108)
(-0.00155391 0.000606368 -0.00314546)
(-0.000486255 0.000679701 -0.00428409)
(0.0010403 -0.00223606 -0.00401776)
(-6.6379e-05 -0.000121625 -0.0037617)
(-0.00171728 -0.00129358 -0.00381935)
(-4.88818e-05 0.000680868 -0.00453651)
(0.00164098 -0.00169613 -0.00375975)
(-1.96811e-05 -9.60914e-05 -0.00380015)
(-0.00163977 -0.00147412 -0.003823)
(-7.06544e-06 0.000691338 -0.00459158)
(0.0015981 -0.00166797 -0.00381041)
(-9.21267e-06 -8.57854e-05 -0.00380164)
(-0.00161064 -0.00146318 -0.00372875)
(-5.34987e-07 0.000694129 -0.00458846)
(0.00157369 -0.00172618 -0.00393874)
(2.00595e-05 -0.000110666 -0.00378366)
(-0.00159508 -0.00141519 -0.00354152)
(6.90757e-05 0.000700686 -0.00448016)
(0.00130646 -0.00189976 -0.00418216)
(5.25284e-05 6.65857e-05 -0.00313447)
(-0.00139047 0.00166383 -0.00487759)
(0.00157553 0.000926671 -0.00464526)
(-0.0016305 0.00129471 -0.00457914)
(0.00156958 0.000967007 -0.00462763)
(-0.00159841 0.00122485 -0.00460513)
(0.00160149 0.00102198 -0.00460273)
(-0.00159825 0.0012195 -0.00458664)
(0.00181948 0.00103553 -0.0046468)
(-0.00131147 0.00143314 -0.00440071)
(0.000641977 0.000129888 -0.00418875)
(-0.000851664 0.000483862 -0.0032244)
(-0.000551408 0.000730618 -0.00334228)
(0.000954501 0.00121462 -0.00451144)
(9.86482e-05 -0.000102717 -0.00307229)
(-0.000537782 -0.000505596 -0.00408813)
(0.000633921 0.000144831 -0.0055291)
(-0.00170813 0.000284526 -0.00338364)
(-0.000641458 0.000529402 -0.0034665)
(0.00203109 6.1248e-05 -0.00311193)
(-8.74479e-05 0.000138687 -0.00393264)
(3.7504e-05 2.56048e-05 -0.00349645)
(6.91265e-05 4.02039e-06 -0.00368896)
(0.000314288 4.70224e-06 -0.00366033)
(0.00144921 0.00175984 -0.00445013)
(-0.000335823 -0.000941369 -0.0038639)
(-3.97246e-05 2.84169e-05 -0.00384542)
(-0.000164694 0.000949156 -0.00391925)
(0.00065358 2.58511e-05 -0.00562699)
(-0.00151446 -2.54007e-05 -0.00329286)
(-0.00151593 0.000130556 -0.00332084)
(0.00337916 2.54889e-05 -0.00316256)
(-0.000161974 0.00100522 -0.00394897)
(0.00111788 -0.00171568 -0.00439788)
(0.00181971 0.0015354 -0.00478463)
(-2.11644e-05 2.10512e-05 -0.00373213)
(1.11892e-05 -2.94792e-05 -0.00395843)
(1.50216e-05 -5.44629e-06 -0.00395619)
(9.062e-06 -8.53306e-07 -0.00392177)
(4.40616e-06 1.69172e-06 -0.00390709)
(1.72925e-06 1.90651e-06 -0.00389055)
(-4.75392e-07 2.29822e-06 -0.00387393)
(-4.55416e-06 5.13808e-06 -0.00385728)
(-1.11501e-05 1.02441e-05 -0.00386165)
(1.75164e-05 -1.73186e-05 -0.00444008)
(-5.91549e-06 4.55607e-06 -0.00439514)
(-0.000516208 0.000528408 -0.00307601)
(-0.000509281 -0.000217296 -0.00333307)
(5.39499e-05 -7.47136e-05 -0.00444061)
(0.000324584 -0.000407777 -0.00367339)
(1.84213e-05 0.000501538 -0.00325579)
(0.000495126 -0.000279055 -0.00395966)
(-0.000592225 -0.000543823 -0.00390417)
(-4.43639e-05 -0.000743932 -0.00550014)
(-0.00013644 -0.000840662 -0.00409726)
(0.000918107 -3.38761e-05 -0.00538566)
(0.000755219 0.000616189 -0.00386704)
(0.000209992 -0.000464967 -0.00403793)
(0.000590504 4.35725e-05 -0.0052932)
(0.000381696 0.000507818 -0.00385072)
(0.00029024 -0.000505799 -0.003952)
(0.000633992 2.13082e-05 -0.005341)
(0.00032006 0.000527898 -0.00391037)
(0.000343372 -0.000541281 -0.00387842)
(0.000645029 -1.70966e-05 -0.00536544)
(0.000280198 0.000493016 -0.00396567)
(0.000540391 -0.000591402 -0.00390247)
(0.00073323 -4.70792e-05 -0.00550889)
(0.000831198 -0.000136531 -0.00410032)
(3.57173e-05 0.000905441 -0.0053861)
(-0.000609277 0.000750107 -0.0038767)
(3.3582e-05 -0.000491681 -0.0032669)
(0.000405925 0.000326 -0.00367377)
(-0.000491777 0.0002534 -0.00328643)
(-0.000527652 -0.000518352 -0.00308172)
(7.54722e-05 5.59082e-05 -0.00444116)
(0.000217991 -0.000507847 -0.00333323)
(0.00011993 0.000398362 -0.00330982)
(-0.000412952 0.000409412 -0.00304083)
(-0.000453872 -0.000451436 -0.00306088)
(8.49659e-05 -6.82052e-06 -0.00443245)
(0.000135152 -0.000421229 -0.00331434)
(0.000162901 0.000422794 -0.00330154)
(-0.000447883 0.000456397 -0.00304257)
(-0.000424945 -0.000409991 -0.0030682)
(8.56716e-05 -1.37629e-06 -0.00443129)
(8.88342e-05 -0.000391858 -0.00332098)
(0.00025795 0.00049748 -0.00328486)
(-0.000491506 -3.24291e-05 -0.00326575)
(0.000641338 -2.45119e-05 -0.00431414)
(-0.00138272 0.00156357 -0.00343997)
(-0.00185334 -0.00122542 -0.0040775)
(0.00159826 0.00135565 -0.00474391)
(-0.00187258 -0.00144063 -0.00463983)
(-7.84635e-05 4.87138e-05 -0.0029424)
(-0.0012876 -0.000928836 -0.00429527)
(1.04494e-05 -1.97854e-05 -0.00304956)
(0.00125491 -8.25636e-06 -0.00412984)
(-0.000301345 -0.000173696 -0.00282711)
(0.00149508 0.000448496 -0.00382317)
(0.000741124 -0.000897378 -0.00395053)
(0.00110516 0.000892838 -0.00366972)
(-0.0016567 -0.00149914 -0.00380101)
(0.000646371 3.42234e-06 -0.00441095)
(-0.00142749 0.00153122 -0.00362892)
(0.000950185 -0.00151348 -0.0044714)
(0.00123878 0.00157572 -0.00444011)
(-0.00151608 -0.00161146 -0.00429109)
(3.43069e-05 6.70569e-06 -0.00358489)
(-0.00128896 0.00158755 -0.00428366)
(0.0011356 -0.001628 -0.00438873)
(0.00141354 0.00168854 -0.00439775)
(-0.00150385 -0.00168532 -0.00436267)
(-8.8598e-06 6.27578e-06 -0.00364781)
(-0.00126043 0.00164792 -0.00436768)
(0.0012013 -0.00166149 -0.00438754)
(0.00146763 0.00171506 -0.00439309)
(-0.00150648 -0.00171063 -0.00438524)
(-2.33903e-06 3.87259e-06 -0.00367109)
(-0.0012571 0.00167082 -0.00438927)
(0.0012268 -0.00167802 -0.00440255)
(0.0014899 0.00172869 -0.00440637)
(-0.00152087 -0.00172468 -0.00440204)
(1.02646e-06 3.28894e-06 -0.00368979)
(-0.00126967 0.00168512 -0.00440769)
(0.00122997 -0.00169417 -0.00442327)
(0.00149918 0.00174489 -0.00442913)
(-0.00154996 -0.00173549 -0.00441676)
(2.67363e-06 4.29302e-06 -0.00371009)
(-0.00129725 0.00169608 -0.00442578)
(0.00121593 -0.00171297 -0.00444912)
(0.00149855 0.00176505 -0.00445912)
(-0.00159211 -0.00174022 -0.00443021)
(5.14368e-06 5.66836e-06 -0.00373113)
(-0.00133175 0.00169825 -0.00444311)
(0.00118342 -0.00172716 -0.00447129)
(0.00148583 0.00177922 -0.00448651)
(-0.00162819 -0.00171387 -0.00444823)
(1.09096e-05 7.30568e-06 -0.00373945)
(-0.00134594 0.0016648 -0.00446664)
(0.00111785 -0.00171895 -0.00441759)
(0.00139543 0.0017333 -0.00443209)
(-0.000303502 -0.000941306 -0.00391049)
(0.000624425 -4.27867e-06 -0.00563006)
(-0.0015032 -7.02113e-05 -0.00329406)
(-0.00153293 2.94174e-05 -0.00328244)
(0.00339978 -2.80809e-05 -0.00317345)
(-0.000117597 -1.71596e-06 -0.00446636)
(-0.000128748 1.09819e-05 -0.00445416)
(7.73898e-05 1.46149e-05 -0.00368925)
(0.000339274 8.77874e-08 -0.00366139)
(0.00143991 0.00176362 -0.00443653)
(-0.0002648 -0.000937011 -0.00389462)
(-2.50064e-05 7.849e-06 -0.00379859)
(-0.000295555 0.00111725 -0.00394457)
(0.000594912 -0.000152251 -0.00561049)
(-0.00153151 -4.53214e-05 -0.00331174)
(-0.00150646 3.74992e-05 -0.00328174)
(0.00338028 -5.51908e-05 -0.00317933)
(-0.000195477 0.00094629 -0.00389621)
(0.00111817 -0.00173672 -0.00442292)
(-4.09921e-05 1.01009e-05 -0.00384393)
(1.88093e-05 7.73919e-06 -0.00388785)
(1.80192e-05 2.17402e-05 -0.00394933)
(1.15495e-05 1.40154e-05 -0.00392111)
(5.98078e-06 7.45108e-06 -0.00390883)
(2.57924e-06 3.33625e-06 -0.00389214)
(-9.90012e-09 2.37175e-07 -0.0038749)
(-4.20222e-06 -4.51279e-06 -0.00385768)
(-1.01261e-05 -1.137e-05 -0.00386152)
(1.7483e-05 1.69015e-05 -0.0044399)
(-5.42114e-06 -6.08509e-06 -0.00439624)
(0.000410185 -0.00042536 -0.00306247)
(-0.000455297 -0.000453066 -0.00305301)
(0.000453705 -0.000453273 -0.00305064)
(-0.000412093 -0.000426344 -0.00306228)
(8.29636e-07 8.71406e-05 -0.00443075)
(0.000412533 0.000150066 -0.00330129)
(-0.000389866 9.45866e-05 -0.00331982)
(-2.1823e-06 -0.000572748 -0.0033398)
(-0.00049098 0.000300332 -0.00395101)
(2.76745e-07 -0.000607284 -0.00555104)
(-0.000412619 0.000150416 -0.00330221)
(-3.12111e-07 8.73146e-05 -0.00443092)
(0.00038887 9.47761e-05 -0.00331881)
(1.52948e-05 -0.000600162 -0.00551991)
(0.000458559 0.000208964 -0.00402593)
(-3.74495e-05 0.000574237 -0.00527548)
(-0.000495786 0.000370673 -0.003848)
(1.62191e-06 -0.000572515 -0.0033406)
(0.000490307 0.000300955 -0.00395066)
(-5.00855e-07 0.000623364 -0.00527663)
(-7.50199e-08 0.000870421 -0.00281724)
(0.000868561 0.000919388 -0.0037851)
(-0.00149331 -0.00150635 -0.00363115)
(0.00149153 -0.00150295 -0.00362695)
(-0.00147523 -0.00161754 -0.00380218)
(0.00155376 0.00117409 -0.00443687)
(-0.00159075 -0.00145747 -0.00429183)
(0.00166515 0.0013389 -0.00439512)
(-0.00166202 -0.00143515 -0.00436277)
(0.0016909 0.00139014 -0.00439185)
(-0.00168648 -0.00143386 -0.00438479)
(0.00170433 0.00141205 -0.00440606)
(-0.00170046 -0.00144601 -0.00440174)
(0.00172047 0.00142149 -0.00442975)
(-0.00171107 -0.00147353 -0.00441643)
(0.00174086 0.00142218 -0.00446137)
(-0.00171589 -0.00151604 -0.00442886)
(0.0017566 0.00141504 -0.00449159)
(-0.00169135 -0.00155806 -0.00444365)
(0.00174055 0.00139313 -0.00445994)
(-0.000934411 -0.000305551 -0.00386039)
(1.97381e-05 0.000665487 -0.00562774)
(0.000943247 -0.000208912 -0.00393434)
(2.54644e-05 -3.49445e-05 -0.00384402)
(-0.00169791 0.00120612 -0.00440731)
(0.00164618 -0.00143479 -0.00447735)
(8.56341e-06 1.5232e-05 -0.0037414)
(-0.00170623 0.00128312 -0.00446988)
(0.00167687 -0.00143191 -0.0044486)
(5.80383e-06 7.43288e-06 -0.00373285)
(-0.00169201 0.00131898 -0.00445102)
(0.0016738 -0.00139967 -0.00442795)
(3.84206e-06 3.83518e-06 -0.00371131)
(-0.00167331 0.00133215 -0.00442596)
(0.00166258 -0.00137127 -0.00440806)
(2.65921e-06 1.45549e-06 -0.00369048)
(-0.0016573 0.00132703 -0.00440533)
(0.00164831 -0.00135661 -0.00438848)
(2.74613e-06 -2.49718e-06 -0.00367136)
(-0.00164116 0.00129997 -0.00439129)
(0.00162579 -0.0013557 -0.00436516)
(4.37641e-06 -9.5488e-06 -0.00364775)
(-0.0016089 0.00123027 -0.00439482)
(0.00156522 -0.00137607 -0.00427906)
(4.96484e-06 3.2542e-05 -0.00358391)
(-0.00149403 0.00102879 -0.00447749)
(8.86135e-07 -9.49995e-05 -0.0036718)
(0.00149354 0.0010279 -0.00447248)
(-0.00156617 -0.00137829 -0.00428387)
(-7.01946e-06 3.26025e-05 -0.00358394)
(-0.00155143 0.00118023 -0.00444139)
(0.001473 -0.00160823 -0.00380125)
(-2.76476e-06 0.00064536 -0.00440996)
(-0.000875958 0.00106696 -0.00366176)
(-5.69116e-05 0.000797422 -0.00285158)
(0.000891017 0.000746416 -0.00395905)
(-0.0015465 -0.00141876 -0.00344575)
(0.001494 0.00093127 -0.00449174)
(-0.00157431 -0.00132576 -0.00430048)
(0.00158307 0.00117376 -0.00438676)
(-0.00161319 -0.00130177 -0.00438814)
(0.00161375 0.00124942 -0.00438933)
(-0.00162371 -0.00130188 -0.00440103)
(0.00163102 0.00127712 -0.00440936)
(-0.0016319 -0.00131718 -0.00441382)
(0.00165182 0.00128468 -0.00443562)
(-0.0016389 -0.00135076 -0.00442633)
(0.00168111 0.0012813 -0.00447468)
(-0.00163467 -0.00139101 -0.00442382)
(0.00171129 0.00126645 -0.00452111)
(-0.00158606 -0.00138534 -0.00440189)
(0.00170795 0.00121424 -0.00447148)
(-0.000920862 -0.000198977 -0.00388157)
(-0.000198338 0.000482021 -0.00554619)
(0.000400191 -0.00054698 -0.00409845)
(5.03565e-05 -8.81494e-06 -0.00370434)
(-0.00158537 0.00166479 -0.00474711)
(0.00142296 -0.00202957 -0.00480779)
(1.97731e-05 3.63274e-05 -0.00362069)
(-0.00155324 0.00181877 -0.00480422)
(0.00149742 -0.00197253 -0.0047713)
(2.69061e-06 1.86475e-05 -0.00361438)
(-0.00149806 0.00184249 -0.00477504)
(0.00148843 -0.00189297 -0.0047412)
(-1.98659e-06 7.71603e-06 -0.00358956)
(-0.00147284 0.00183447 -0.00473924)
(0.0014714 -0.00184926 -0.00471735)
(-2.71246e-06 2.43808e-06 -0.00356829)
(-0.00146179 0.00182654 -0.00471658)
(0.00146306 -0.00183193 -0.00470244)
(-7.54917e-06 -2.90672e-06 -0.00355207)
(-0.00145265 0.00181728 -0.00470266)
(0.00146106 -0.00182632 -0.00468773)
(-1.8874e-05 -7.02719e-06 -0.00353474)
(-0.00142913 0.00178242 -0.00470942)
(0.00143883 -0.00183852 -0.00464144)
(-4.33912e-05 4.13503e-05 -0.00347893)
(-0.00132818 0.00158233 -0.00474321)
(0.00121555 -0.00182849 -0.00407672)
(2.61809e-05 0.000641526 -0.0043127)
(-0.000440406 0.00149032 -0.00382183)
(0.000749524 0.00132433 -0.00403745)
(0.00123256 -0.000664917 -0.00352279)
(3.91026e-05 0.00126314 -0.00414331)
(0.000153353 -0.0002998 -0.00281911)
(-0.000225311 0.000237828 -0.00321756)
(0.000630797 0.00151326 -0.00366058)
(-0.00194571 -0.00130969 -0.0033605)
(0.00147715 0.00122255 -0.00459646)
(-0.00185345 -0.00115178 -0.00447935)
(-0.00124808 0.00184495 -0.0043154)
(-0.0015432 -0.00162435 -0.00428635)
(4.04321e-05 -1.28475e-05 -0.00357507)
(0.00101557 -0.00181666 -0.00444242)
(0.00112328 0.00154959 -0.004507)
(-0.00161632 -0.00158441 -0.0034977)
(0.000624971 4.65378e-05 -0.00442873)
(-0.00145052 0.00166811 -0.00389062)
(-0.000107841 7.44802e-05 -0.00370106)
(7.76602e-05 3.2268e-05 -0.0036379)
(-0.000587016 -0.000471959 -0.00535979)
(5.02233e-05 4.62803e-05 -0.00432429)
(-2.37028e-05 -3.78937e-05 -0.00409977)
(-0.000622746 2.47672e-05 -0.00550307)
(6.33757e-05 -9.0462e-06 -0.00394652)
(-0.000100647 -3.22737e-06 -0.00367927)
(-0.00147176 0.00152511 -0.00375675)
(-0.0015962 -0.00152807 -0.00365107)
(0.00115227 0.00152997 -0.00447722)
(-0.00149513 -0.00159158 -0.00427898)
(1.89425e-05 2.69016e-07 -0.00362519)
(0.00136547 0.0016436 -0.00439794)
(-0.00149009 -0.001656 -0.00436512)
(0.00144108 0.00167738 -0.00439363)
(-0.00149579 -0.00167951 -0.00438862)
(9.95878e-06 1.19653e-06 -0.00362408)
(0.00147275 0.00169552 -0.00440893)
(-0.00151266 -0.00169244 -0.00440574)
(0.00148389 0.00171468 -0.00443268)
(-0.00154355 -0.0017007 -0.00442015)
(5.69185e-05 1.43732e-06 -0.00364599)
(0.00148055 0.00173676 -0.00446304)
(-0.00158006 -0.00169946 -0.00443166)
(0.00145863 0.00175068 -0.00448811)
(-0.00159336 -0.00166565 -0.0044512)
(0.000329138 -2.69982e-06 -0.00366529)
(7.64956e-05 2.28916e-06 -0.00369315)
(4.85764e-05 3.78283e-06 -0.00367808)
(5.1169e-05 1.25702e-05 -0.0036785)
(2.41691e-05 7.04927e-06 -0.00366626)
(5.98608e-05 4.62246e-06 -0.00365278)
(0.0015304 0.00175242 -0.0044775)
(-0.00162138 -0.001697 -0.00443209)
(1.37065e-05 8.9484e-06 -0.00372578)
(-0.0013151 0.00200701 -0.00447042)
(0.0010869 -0.00198818 -0.00443853)
(0.00151509 0.00178092 -0.00451231)
(-0.00159923 -0.00164884 -0.00442775)
(2.99764e-05 1.72734e-05 -0.00372706)
(-0.00140415 0.00200297 -0.00451219)
(0.000979503 -0.00190933 -0.00434547)
(0.00195782 0.00121707 -0.00483978)
(-0.000228979 -0.00084853 -0.00372562)
(3.8294e-05 -0.0013607 -0.00550374)
(-0.00164384 -9.27955e-05 -0.00334926)
(-0.00151728 -2.03873e-05 -0.00320389)
(0.00320019 -0.000491759 -0.00325304)
(-0.000199128 -0.000126511 -0.0043012)
(5.26703e-05 3.75999e-05 -0.0034718)
(8.87711e-05 0.000899726 -0.00309193)
(-0.000970802 0.00117276 -0.00451265)
(0.000221435 9.31351e-05 -0.00301756)
(0.000758777 -0.00190303 -0.00433298)
(-0.000785387 0.00144252 -0.00447922)
(6.43168e-05 1.4023e-05 -0.00299656)
(0.000810339 -0.00160485 -0.00440036)
(-0.000734858 0.00146388 -0.00443059)
(1.00854e-05 -3.49577e-06 -0.0029746)
(0.000785193 -0.00150275 -0.00441336)
(-0.000750513 0.00147606 -0.00441217)
(-1.45135e-06 3.79309e-07 -0.00296012)
(0.000747847 -0.00144557 -0.00438187)
(-0.000725671 0.00146537 -0.00436796)
(-1.93715e-05 -1.05432e-05 -0.00295141)
(0.00077598 -0.00143965 -0.00438381)
(-0.000699696 0.00151786 -0.00435446)
(-4.74311e-05 -2.61159e-05 -0.00294842)
(0.000816436 -0.0013695 -0.00436315)
(-0.000549381 0.00154665 -0.00431331)
(-7.91971e-05 -9.72823e-05 -0.00294058)
(0.000963885 -0.0012199 -0.00431723)
(0.000365918 0.000395674 -0.00330739)
(0.000270582 0.000595044 -0.00318877)
(-7.10755e-05 -0.000734347 -0.00397372)
(-3.69848e-05 6.04534e-06 -0.00347036)
(0.000379874 0.00120006 -0.00386895)
(-0.000166981 -0.00102267 -0.00401611)
(0.00171234 0.00120009 -0.00447812)
(-0.00183146 -0.00117462 -0.00452984)
(0.00179237 0.00119441 -0.00449542)
(-0.00183298 -0.0011837 -0.00452875)
(-0.00118669 0.00192598 -0.00439176)
(-0.00153885 -0.00168819 -0.00440075)
(-2.92932e-06 -3.99397e-06 -0.00366366)
(0.00117284 -0.00192766 -0.00440107)
(0.00147979 0.00167986 -0.00439843)
(-0.00153319 -0.00167252 -0.00438212)
(-7.93535e-06 -1.00364e-05 -0.00364279)
(-0.00118794 0.00190312 -0.00436896)
(9.70084e-06 -1.94727e-08 -0.00362569)
(7.62862e-07 -4.4082e-06 -0.00343061)
(1.28589e-05 -2.86372e-06 -0.00343448)
(-1.35896e-06 -0.000109991 -0.00305327)
(2.51063e-05 2.40047e-05 -0.0035604)
(9.81357e-05 0.000153204 -0.00345565)
(9.07153e-05 0.000166635 -0.00331501)
(0.000164353 6.78285e-05 -0.0038648)
(-4.94479e-05 2.92905e-05 -0.00383702)
(2.55163e-05 9.61244e-05 -0.00379232)
(0.000686246 6.80132e-05 -0.00382559)
(0.00109007 -8.753e-05 -0.00297022)
(0.000909173 0.00141748 -0.00484024)
(0.00030735 0.000454405 -0.00268089)
(0.0013827 9.87791e-05 -0.00359954)
(0.000550259 0.000339303 -0.00382274)
(0.000258626 7.22359e-05 -0.00373815)
(7.77545e-05 2.13984e-05 -0.00376056)
(4.83867e-05 1.49412e-05 -0.00387384)
(-2.42215e-05 5.34866e-06 -0.00381571)
(-1.67657e-05 3.20004e-06 -0.00381609)
(1.28824e-05 3.65451e-06 -0.00389189)
(2.41044e-05 3.30493e-06 -0.00377064)
(-0.000217779 -0.0010817 -0.00402287)
(-3.15196e-06 8.47823e-07 -0.00353888)
(0.000251923 0.00110523 -0.00398677)
(-0.000232527 -0.00109515 -0.00400785)
(0.00182122 0.00119541 -0.00452891)
(-0.00184833 -0.00119139 -0.00453276)
(0.00183978 0.00121218 -0.00455974)
(-0.001893 -0.00119898 -0.00454023)
(-0.00124161 0.0019713 -0.00443691)
(-0.0015899 -0.00170386 -0.00442863)
(5.36694e-06 3.15948e-06 -0.00370375)
(0.00117231 -0.0019519 -0.00442991)
(0.00152918 0.00172194 -0.00444134)
(-0.00155722 -0.00169799 -0.00441548)
(1.37438e-06 -2.37903e-07 -0.00368222)
(-0.00120327 0.00194471 -0.00441322)
(1.69721e-05 3.8971e-06 -0.00364262)
(7.55375e-06 3.69497e-06 -0.00345479)
(1.78172e-06 -6.3485e-07 -0.00344039)
(1.0936e-06 -1.09707e-05 -0.00305614)
(2.7236e-06 -7.2844e-06 -0.00356807)
(5.9243e-06 1.57532e-05 -0.00352889)
(9.24845e-06 1.14293e-05 -0.00337838)
(7.11589e-06 7.59244e-07 -0.00355628)
(2.02657e-05 5.1266e-05 -0.00343883)
(3.07653e-05 3.67624e-05 -0.00330171)
(0.0002953 0.001126 -0.00396423)
(-4.99408e-06 5.25576e-06 -0.00352545)
(-2.10731e-06 -5.16724e-05 -0.00304977)
(-9.4243e-06 -3.69969e-06 -0.00384304)
(1.70798e-06 -7.64112e-05 -0.00385667)
(3.9622e-06 9.15988e-06 -0.00380854)
(-3.88263e-05 0.000746005 -0.00380588)
(9.01528e-05 0.00142437 -0.00359149)
(-0.00103919 0.00261813 -0.00348604)
(-2.71618e-06 0.000274103 -0.00346308)
(1.42061e-05 -3.9697e-05 -0.00304184)
(6.90863e-07 -1.80293e-05 -0.0037937)
(-1.40545e-05 -7.06745e-05 -0.00374436)
(0.00159103 -0.00144825 -0.00428943)
(-2.13421e-07 6.08789e-06 -0.00361968)
(-0.00166441 0.00134895 -0.00439857)
(0.00160876 0.00122776 -0.00439087)
(-0.00162588 -0.00135639 -0.00436872)
(-5.68992e-06 -9.46691e-06 -0.00364837)
(0.0016645 -0.00142988 -0.00436153)
(9.70487e-08 1.01579e-05 -0.00361101)
(-0.00169061 0.00139881 -0.00439382)
(0.00164241 0.00129785 -0.00438938)
(-0.00164708 -0.00135591 -0.00438974)
(-2.35101e-06 -2.34721e-06 -0.00367235)
(0.00169061 -0.00143381 -0.00438585)
(1.05546e-06 8.62295e-06 -0.00361651)
(-0.00170342 0.001416 -0.00440641)
(0.0016606 0.001327 -0.00440668)
(-0.00165929 -0.00137001 -0.00440597)
(1.55642e-07 1.70237e-06 -0.00369195)
(0.00170687 -0.00145159 -0.00440562)
(1.95255e-06 2.39007e-05 -0.00362681)
(-0.00171883 0.00141795 -0.00442771)
(0.00167949 0.00133635 -0.0044319)
(-0.00166743 -0.00139932 -0.00441992)
(2.57302e-06 4.33476e-06 -0.00371332)
(0.00172088 -0.00148685 -0.00442492)
(1.6724e-06 6.87056e-05 -0.00363785)
(-0.00173791 0.00140198 -0.00445245)
(0.0017016 0.00133307 -0.00446538)
(-0.00166618 -0.00143749 -0.00442867)
(6.14438e-06 8.28282e-06 -0.00373481)
(0.0017274 -0.00153487 -0.00444605)
(-3.17571e-06 0.000169282 -0.00364768)
(-0.00174945 0.0013565 -0.00446598)
(0.00171696 0.00131884 -0.00449658)
(-0.00163336 -0.00146066 -0.00444123)
(9.74865e-06 1.6548e-05 -0.00374017)
(0.00169261 -0.00155791 -0.00447312)
(-1.48822e-05 0.000381002 -0.0036477)
(-0.00172622 0.00127653 -0.00440601)
(0.00170181 0.00127645 -0.00444829)
(-0.000935855 -0.000244483 -0.00390419)
(-1.15985e-06 -3.39256e-05 -0.00383713)
(0.000929251 -0.000283326 -0.00390485)
(-5.72009e-05 0.00337636 -0.00319317)
(-0.000119425 -0.00151194 -0.00329465)
(-0.000124578 -0.00154429 -0.0031664)
(-0.000131385 0.00249516 -0.00299617)
(-0.00163565 0.000648961 -0.00428804)
(0.000406393 0.000268427 -0.00304893)
(0.00035957 -0.00231934 -0.00411123)
(-0.000138917 -0.000479574 -0.00337437)
(-0.000286138 -0.00028095 -0.00323325)
(-0.000141526 0.00118728 -0.0042181)
(-0.00185323 -0.00123955 -0.00432265)
(0.000391039 -2.16781e-05 -0.00363934)
(-0.000479485 2.64339e-05 -0.00383943)
(-0.000798887 -0.00015671 -0.00384005)
(-0.000289318 -0.000188212 -0.00385904)
(-0.000229649 -1.99115e-05 -0.00392611)
(-0.000242043 4.99737e-05 -0.00385004)
(-0.000104369 2.89444e-05 -0.00383789)
(-4.70988e-05 1.10092e-05 -0.00393004)
(8.72233e-06 -1.59741e-05 -0.00381177)
(-3.57244e-06 6.28835e-06 -0.00391037)
(-3.93788e-05 1.12356e-05 -0.00382575)
(-4.81024e-05 3.31102e-06 -0.00379824)
(-2.87014e-05 4.50895e-07 -0.00379312)
(-5.28649e-05 -2.81761e-06 -0.00379651)
(-0.000102468 -9.87879e-06 -0.00382031)
(1.73666e-05 -1.90393e-05 -0.00376919)
(0.000805933 -6.60872e-05 -0.0037706)
(0.000944687 -3.5392e-05 -0.00286839)
(0.000926435 0.00092183 -0.00391802)
(0.00106741 -0.000922206 -0.00346784)
(0.00132033 1.10939e-05 -0.00360736)
(0.00125704 5.95599e-06 -0.00362425)
(0.000982988 -0.000936705 -0.0036932)
(0.000989462 0.000922942 -0.00381615)
(0.000645646 -2.18032e-06 -0.00442121)
(-0.00057416 3.83908e-06 -0.00333288)
(0.00018532 -4.17132e-06 -0.00410658)
(-6.73645e-05 -6.9911e-05 -0.00405462)
(-4.71774e-05 -4.42996e-05 -0.00409826)
(0.000168208 0.000167365 -0.0041591)
(-0.000500563 1.81297e-05 -0.00325838)
(-1.36303e-06 0.000192595 -0.0040934)
(-7.84834e-07 -6.83094e-05 -0.00410769)
(-1.61594e-06 -8.37641e-05 -0.00408826)
(1.31101e-07 8.8056e-08 -0.0044254)
(-0.000316217 0.000308526 -0.00299079)
(-0.000360271 -0.000358649 -0.00301048)
(-0.000357051 0.000360097 -0.00300517)
(-0.000320089 -0.000307367 -0.00300036)
(0.000317318 -0.000311157 -0.00299072)
(-0.000269344 -0.000265988 -0.00298011)
(1.00035e-05 9.92662e-06 -0.00443356)
(0.000358699 0.00035709 -0.00300036)
(-0.000309499 0.000321337 -0.00299717)
(-0.000310756 -0.000320753 -0.00299822)
(9.92593e-06 -9.56127e-06 -0.00443381)
(0.000357379 -0.000359787 -0.00300536)
(-1.69355e-08 -1.26207e-08 -0.00445093)
(6.35073e-08 6.22663e-08 -0.00445806)
(1.64935e-07 2.28353e-05 -0.00444876)
(1.83254e-07 6.46755e-05 -0.00394666)
(-9.44918e-06 5.78853e-05 -0.00393956)
(1.26728e-05 -0.000128694 -0.00366009)
(-6.45457e-06 2.32532e-06 -0.00361473)
(-3.54349e-06 3.40237e-07 -0.00361358)
(-4.18682e-07 3.38117e-06 -0.0036266)
(2.02627e-06 1.04644e-05 -0.00364165)
(5.02996e-06 2.62392e-05 -0.00365719)
(2.09583e-05 1.13015e-05 -0.0034688)
(1.532e-05 9.43145e-05 -0.00308323)
(7.60781e-06 -7.67114e-05 -0.00358732)
(3.69286e-05 -9.78139e-06 -0.00354745)
(-1.07571e-05 5.22393e-05 -0.00339227)
(0.000221849 0.00117209 -0.00404239)
(-0.00031646 -0.00107302 -0.00403221)
(0.00187734 0.00123818 -0.00462256)
(-0.0019422 -0.00122316 -0.00449165)
(0.00193885 0.00125792 -0.00474465)
(-3.9939e-05 -3.06758e-05 -0.00364452)
(-0.000569236 -0.00111634 -0.00392271)
(-8.55415e-05 3.09871e-05 -0.00334068)
(0.000156832 0.00124614 -0.00410104)
(-1.64709e-05 -5.04842e-06 -0.00361642)
(-3.5987e-05 -5.56407e-05 -0.0038397)
(-1.79565e-05 1.13667e-05 -0.00391879)
(-0.000111268 7.85728e-06 -0.00380603)
(-0.000230999 1.56183e-05 -0.00381591)
(-0.000459785 1.84815e-05 -0.00384219)
(-0.00105089 -1.33734e-05 -0.00400574)
(-0.00107463 -0.000187174 -0.0039542)
(-0.00267138 0.000641535 -0.00389629)
(-0.00125627 -0.000286741 -0.00368947)
(-0.00109786 -0.00122649 -0.00353097)
(-3.69572e-05 -0.000156259 -0.00356784)
(-0.000432693 -0.00014962 -0.00371641)
(0.000341428 -0.00242715 -0.00293812)
(-0.0021638 -0.000669559 -0.00322136)
(-0.00129371 8.54351e-05 -0.00436656)
(-0.00060578 -0.000980315 -0.00395415)
(0.000979229 0.000724336 -0.00413272)
(7.88654e-05 3.33788e-05 -0.00423792)
(5.08773e-05 4.079e-05 -0.00280379)
(-0.00102339 0.000876768 -0.00350179)
(0.00108293 0.000735439 -0.00369285)
(6.38472e-06 0.000102847 -0.00436577)
(-0.000128261 -8.23012e-05 -0.00290519)
(-0.00112414 0.000974973 -0.00364727)
(0.00108812 0.000876223 -0.00371314)
(1.90313e-06 0.000110834 -0.00438682)
(-0.000142977 -9.91547e-05 -0.00291691)
(-0.00109707 0.000884762 -0.00360145)
(0.00108452 0.000999207 -0.00375687)
(9.32154e-06 0.000103312 -0.00437076)
(-0.000234226 -0.000228398 -0.00297234)
(-0.00104678 0.000733991 -0.0035586)
(0.000773289 0.00102015 -0.00397775)
(-0.000617366 -0.000353728 -0.00543632)
(0.000506553 0.000533417 -0.00406541)
(0.000384065 -0.000464966 -0.00396729)
(0.00113252 0.000497008 -0.00498934)
(-0.000532162 -0.00196205 -0.00483807)
(-0.000307661 -0.00106548 -0.00393715)
(0.000168233 0.000192031 -0.00297618)
(0.000680691 -0.000484269 -0.0042843)
(-0.00222277 0.00105143 -0.00402084)
(-0.000123371 -6.34603e-05 -0.00375982)
(-0.00130119 -0.00172304 -0.0038114)
(0.00113693 0.000911234 -0.00378984)
(0.00104861 -1.81532e-05 -0.00285781)
(0.000999672 -0.00108194 -0.00391137)
(0.00125524 -0.00106975 -0.00439305)
(0.000605593 -0.00155474 -0.00314455)
(0.000136505 0.000650725 -0.00419155)
(0.000484178 -0.000853904 -0.00322622)
(0.000731515 -0.000547475 -0.00334524)
(0.00120729 0.000948351 -0.004513)
(-0.000558724 -0.00195969 -0.00427049)
(0.00011576 -0.000221419 -0.00345136)
(0.000890904 0.00137537 -0.004516)
(-0.000762734 -0.00168712 -0.00437325)
(1.0571e-06 -4.48834e-05 -0.00352401)
(0.000775276 0.00146514 -0.00446347)
(-0.000782114 -0.00153682 -0.0044042)
(-9.67349e-06 1.88263e-06 -0.00351569)
(0.000748297 0.00146929 -0.00442699)
(-0.000761186 -0.00147453 -0.00439815)
(-5.61287e-06 6.30058e-06 -0.00350582)
(0.000740292 0.00145621 -0.00439905)
(-0.000750229 -0.00145395 -0.00438497)
(-4.91078e-06 7.20201e-06 -0.00348982)
(0.000735105 0.00144986 -0.00438127)
(-0.00075268 -0.00144575 -0.00437063)
(-1.04668e-05 2.14759e-05 -0.00348561)
(0.000708135 0.00145323 -0.00436101)
(-0.000792795 -0.00143301 -0.00436209)
(-6.24664e-05 8.82158e-05 -0.00341959)
(0.000599971 0.0014959 -0.00433807)
(-0.000916799 -0.001282 -0.00429254)
(-0.000341369 0.000360429 -0.00332932)
(-1.45746e-05 0.00124318 -0.00413163)
(-0.00123427 -0.000693862 -0.00350478)
(-0.000764173 0.00131845 -0.00403236)
(0.000445877 0.00148916 -0.00381728)
(-0.00121639 -0.00184707 -0.00407533)
(0.0013464 0.00157717 -0.00474473)
(-0.00143001 -0.00185586 -0.0046387)
(4.01796e-05 4.30109e-05 -0.00347893)
(-0.00149754 0.00092826 -0.0045002)
(0.00154407 -0.00141945 -0.00343863)
(-2.34324e-05 0.000640803 -0.00431457)
(-0.000890109 0.000742813 -0.00395742)
(5.68452e-05 0.00080415 -0.00285215)
(0.000877287 0.00106686 -0.00365712)
(-0.000867825 0.000917551 -0.00378765)
(3.08703e-06 0.000644887 -0.00441098)
(5.13397e-06 0.00124254 -0.00361293)
(1.51455e-06 0.000740052 -0.00379479)
(1.21998e-06 -6.67624e-06 -0.00380154)
(1.88296e-06 -0.000109026 -0.00384626)
(1.75897e-06 -6.22407e-05 -0.00382066)
(6.78152e-07 -3.97233e-05 -0.00383045)
(1.40023e-06 -2.53044e-05 -0.00382925)
(3.54934e-06 -4.78864e-05 -0.00383585)
(4.19765e-06 -2.60781e-05 -0.00358043)
(1.48391e-05 5.43377e-06 -0.00347474)
(1.88373e-06 2.31318e-05 -0.00333488)
(0.000239721 0.00111436 -0.00403786)
(-0.000252005 -0.00108291 -0.00404988)
(-7.00172e-06 -4.4667e-07 -0.00357814)
(-1.56188e-06 1.47602e-06 -0.00355344)
(1.12669e-05 -3.30195e-07 -0.00378825)
(2.2775e-06 1.75271e-07 -0.00385229)