/*--------------------------------*- C++ -*----------------------------------*\
| =========                 |                                                 |
| \\      /  F ield         | OpenFOAM: The Open Source CFD Toolbox           |
|  \\    /   O peration     | Version:  2306                                  |
|   \\  /    A nd           | Website:  www.openfoam.com                      |
|    \\/     M anipulation  |                                                 |
\*---------------------------------------------------------------------------*/
FoamFile
{
    version     2.0;
    format      ascii;
    arch        "LSB;label=32;scalar=64";
    class       volScalarField;
    location    "0.9";
    object      gradTx;
}
// * * * * * * * * * * * * * * * * * * * * * * * * * * * * * * * * * * * * * //

dimensions      [0 -1 0 1 0 0 0];

internalField   nonuniform List<scalar> 
5322
(
-0.0171894
0.00127312
0.00123392
-3.14667e-05
-7.86531e-05
-5.31226e-05
-2.7204e-05
-1.2209e-05
-5.16556e-06
-1.71856e-06
-1.15759e-07
2.20232e-06
2.30354e-06
-2.72289e-05
1.24128e-06
6.58268e-05
-4.88343e-05
5.45124e-06
-4.74888e-05
8.42529e-05
-0.000104886
0.000240803
-0.000244801
0.00059441
-0.000620005
0.00127684
-0.00127851
0.00258536
-0.00263384
0.00462371
-0.00438972
0.00805667
-0.00586224
0.0135247
0.00185915
0.0221766
0.0157741
-0.00624882
0.0171047
-0.00104841
-0.0162616
0.0162665
-0.000981725
-0.0172814
0.0172283
-0.000571419
-0.0183527
0.0162895
-0.000348848
-0.0192893
-0.0192376
-0.027448
-0.00939727
0.0167307
-0.00110761
-0.0270979
-0.000861075
0.0256881
-0.000300148
-0.0256625
-0.000103231
0.0250097
-0.000118896
-0.0252122
4.76277e-05
0.0247006
0.000399315
-0.0249845
0.00146851
0.0206946
0.00143459
-0.0183211
0.0208443
-0.0214159
0.0206008
-0.0209892
0.0210033
-0.0210376
0.0240037
-0.0178031
0.00811591
-0.0139964
-0.00970795
0.0141244
0.00101688
-0.00505388
0.0109309
-0.0307356
-0.00861396
0.0321209
-0.00149575
0.00018005
0.00028523
0.00281426
0.0164734
-0.00276153
0.000797375
-0.000543851
0.0112312
-0.0270732
-0.0269806
0.052548
-0.000593412
0.012779
0.0209108
0.00104339
0.000315906
0.0001772
7.20821e-05
1.33913e-05
-6.47824e-06
-9.03418e-06
-6.50341e-06
-3.42554e-06
-1.41375e-06
-8.21759e-07
-2.05707e-05
-1.78999e-05
3.29166e-06
9.23842e-06
-5.68002e-07
1.26945e-05
-1.58646e-05
-1.59093e-06
-5.57922e-06
2.47536e-05
1.91506e-05
3.75729e-06
1.55277e-05
8.58033e-06
5.88822e-06
1.67825e-05
6.69377e-06
7.39545e-06
1.69913e-05
5.34819e-06
1.28327e-05
1.93073e-05
2.08099e-05
6.01355e-07
-1.70766e-05
-3.13863e-07
1.21941e-05
-1.75762e-05
-2.10071e-05
4.05971e-06
5.55861e-06
1.43194e-06
-1.61365e-05
-1.82167e-05
4.8418e-06
2.18034e-06
3.45468e-06
-1.81241e-05
-1.62927e-05
4.9718e-06
1.70433e-07
7.51822e-06
-1.68551e-05
2.19135e-05
-5.86878e-05
-7.37521e-05
0.000105509
-0.000182218
-1.30426e-05
-7.60413e-05
1.65433e-06
5.77705e-05
-1.23914e-05
4.48143e-05
2.15834e-05
3.31619e-05
-7.05179e-05
2.24727e-05
-6.1621e-05
6.24971e-05
8.15224e-05
-0.000157131
1.81732e-05
-0.000134456
0.0001889
0.000236569
-0.0004051
3.27897e-05
-0.00034131
0.000503307
0.000619013
-0.000983404
7.86934e-05
-0.000823754
0.00119997
0.0014652
-0.00220024
0.000171536
-0.00184116
0.00256586
0.00313809
-0.00452473
0.000336799
-0.00378919
0.00492792
0.00607837
-0.00852093
0.000605278
-0.00711645
0.00848271
0.0106268
-0.0144552
0.0010116
-0.0119031
0.0127469
0.015851
-0.00238038
0.010754
-0.0267728
-0.0273128
0.0527241
-0.00249612
-0.00263818
0.000350362
0.0030683
0.0164291
-0.00188129
0.000967354
-0.00243258
0.0103578
-0.0272038
-0.0268605
0.0523977
-0.000929601
0.0127647
0.000773362
0.000487538
0.000206455
9.37606e-05
2.44816e-05
-2.34344e-06
-7.84885e-06
-6.31002e-06
-3.41632e-06
-1.48353e-06
-8.58368e-07
1.46345e-05
-1.73414e-05
1.76186e-05
-1.43492e-05
4.49181e-07
1.41788e-05
-1.20556e-05
3.05239e-07
-1.30924e-05
7.71729e-08
-1.38663e-05
-9.92193e-08
1.23616e-05
3.48076e-07
1.18238e-05
-1.286e-06
-1.35406e-05
-1.84221e-07
1.31794e-05
3.32097e-08
6.20704e-08
2.73942e-05
-6.27703e-05
6.30855e-05
-6.10084e-05
0.000102693
-0.00016514
0.000285302
-0.000448018
0.000729998
-0.00110387
0.00170508
-0.00246854
0.00363306
-0.00501236
0.00705612
-0.00921751
0.0124181
-0.0150974
0.0194593
-0.0119201
0.000324384
0.0120936
0.000360507
-0.0189392
0.0147188
9.05189e-05
-0.0120311
0.00904464
4.92215e-05
-0.00682671
0.00493835
2.68633e-05
-0.00350968
0.00243766
1.38618e-05
-0.00164402
0.00109229
6.90539e-06
-0.000701855
0.000444672
3.36744e-06
-0.00027305
0.000165502
1.55527e-06
-9.76652e-05
2.81958e-07
9.84105e-05
-0.000164261
-8.64398e-07
-0.000101971
6.14257e-05
-3.47506e-07
-2.76607e-05
-2.00687e-06
2.73723e-05
-6.53345e-05
9.62677e-05
-0.000164797
0.00026799
-0.000437947
0.000694186
-0.00106984
0.00163556
-0.00237873
0.00351177
-0.00480709
0.00688534
-0.00878291
0.0122411
-0.0141817
0.0192071
-0.0117791
-0.00313384
0.00485198
0.000510187
-0.0179077
0.013044
6.43016e-05
-0.0110187
0.00822606
-7.03835e-05
-0.00604286
0.00443352
-7.02216e-05
-0.00308014
0.00216145
-4.5455e-05
-0.00144395
0.000962971
-2.73286e-05
-0.00061671
0.000392477
-1.5187e-05
-0.00023937
0.000146878
-8.22337e-06
-8.52022e-05
4.88766e-05
-1.02092e-06
-1.39874e-05
2.08918e-05
3.55447e-05
-9.02041e-06
1.09015e-06
-7.3507e-06
2.48764e-05
-7.97433e-05
9.19171e-05
-0.000187829
-0.000126428
-0.000160997
1.87018e-05
6.51548e-05
7.32363e-05
-6.98986e-05
2.10215e-05
-5.9686e-05
-1.00178e-05
-1.9825e-06
-1.87336e-05
1.00533e-06
-1.14522e-06
-1.78617e-05
-7.06204e-06
-9.65547e-06
-6.32693e-05
-6.90399e-05
7.59746e-05
-0.000156816
-2.22294e-05
0.000228472
-0.000404621
0.000607158
-0.000981962
-0.000126258
0.00144769
-0.00219718
0.0031083
-0.00451801
-0.000209958
0.00601632
-0.008469
0.0104498
-0.0141532
0.00294212
0.000346964
-4.99022e-05
-1.93086e-05
-0.000189583
-0.000195366
0.00626048
-0.00870232
0.000669062
-0.00705362
0.00795063
0.0109612
-0.0142097
0.00120793
-0.0125043
0.01136
0.0229065
-0.00129055
0.00167613
-0.0294021
-0.0274101
0.0504273
-0.00356335
0.000361139
0.000691566
-0.010315
0.00182905
0.0048087
-0.0050224
0.000269093
0.00290096
-0.00255454
-2.05471e-05
0.00141005
-0.00128681
-3.70104e-05
0.000594825
-0.000577979
-3.30795e-05
0.000258385
-0.000234966
-2.29845e-05
0.000103078
-7.89504e-05
-1.36644e-05
4.99958e-05
1.41505e-05
8.90253e-06
2.09593e-07
-3.12519e-07
4.34342e-05
-1.91048e-05
0.000279947
-0.000486292
0.000753131
-0.00118964
-0.000765261
-0.00100952
8.06925e-05
0.000496461
0.0006228
-0.000415023
3.35872e-05
-0.000314583
-4.63132e-05
-2.5042e-05
-9.95036e-06
-1.28307e-05
-2.34803e-05
6.81152e-06
3.11293e-07
-2.85077e-05
-9.2887e-05
-2.6005e-05
2.5983e-05
2.87966e-05
2.60386e-05
1.01628e-05
5.60604e-05
1.50435e-05
4.02839e-05
6.79653e-05
-0.000107339
-0.000222559
-0.000481847
-0.000256232
0.000133477
-7.61469e-05
2.13088e-05
0.00021483
-0.000193816
0.00180123
-0.00267183
0.0038882
-0.005551
-0.0036167
-0.00465877
0.000354483
0.00248029
0.00321604
-0.00226286
0.000177498
-0.00172838
-0.000155671
-6.46808e-05
-4.65984e-05
-5.31879e-05
-0.00012509
-1.07383e-05
-4.05026e-05
-5.9873e-05
-6.14543e-06
-1.63469e-05
9.8553e-05
7.8798e-06
-2.76829e-05
-2.81686e-06
2.74117e-06
4.34445e-07
-2.02191e-06
2.53636e-06
-3.48572e-05
-8.01185e-06
-5.54184e-06
-2.31314e-06
-1.02581e-06
0.000166702
6.11326e-07
-0.000283409
0.000275418
-0.000440884
-1.05386e-06
0.000453187
3.56424e-06
-0.000725246
0.000709089
-0.00108206
2.28683e-07
0.00111858
1.08062e-05
-0.00169357
0.00166378
-0.00241286
5.57481e-06
0.00250582
2.77633e-05
-0.00360884
0.00355728
-0.00488516
2.0454e-05
0.00509629
5.74995e-05
-0.00701245
0.00692417
-0.00894635
5.3905e-05
0.00936396
6.31296e-05
-0.012336
0.0121735
-0.0145851
9.79253e-05
0.0151877
-0.000102477
-0.0192769
0.0190018
-0.0119957
-3.53088e-05
0.0118899
-0.000892433
-0.00225112
-0.0015124
-0.00280116
-0.0256235
0.0049301
0.00258403
-0.00187808
-0.00372378
-0.000915493
-0.0168545
0.00408394
-0.00861024
-0.010671
-0.00131742
-0.00310088
-0.00429847
-0.00204052
-0.00111364
0.000495941
-0.000525691
-0.000993397
-0.000904996
-0.000435874
-0.000205083
-9.00993e-05
-2.5463e-05
3.21101e-05
2.52669e-05
2.71728e-05
3.10672e-05
4.89143e-05
4.72448e-05
2.92365e-05
2.95341e-05
2.24013e-05
-2.01639e-05
5.50707e-06
-2.28898e-06
-1.55284e-06
5.00501e-06
-1.75459e-05
-1.09029e-07
1.69373e-08
5.12848e-09
1.14494e-07
-1.10911e-05
-1.34246e-05
-1.3468e-05
-1.10555e-05
1.12819e-05
-7.74888e-06
9.37566e-07
1.38464e-05
-1.00408e-05
-9.93911e-06
9.78754e-07
1.3661e-05
1.11415e-07
2.76135e-07
2.9342e-07
2.5075e-07
-1.71931e-06
-4.50437e-07
-1.69033e-06
-2.55751e-06
-9.57759e-07
8.54691e-06
3.5838e-05
-3.25698e-05
-0.000101064
-0.000385483
8.12482e-05
-0.000196437
0.000822088
-0.00114256
0.00772798
-0.0105448
0.0142204
-2.36154e-06
-0.00400006
-0.000865186
0.0011249
0.000106309
0.00063571
0.000865183
-0.00186467
-0.00382827
-0.00796234
-0.0190165
-0.0196391
-0.0429404
-0.0160891
-0.0135293
-8.52907e-05
-0.00510957
0.00525956
-0.0393592
-0.024205
-0.0119435
0.0169445
0.00136735
0.000680665
-0.0170941
0.0179952
0.000138424
-0.00226254
-0.0185992
0.0180204
3.52231e-05
-0.00250646
-0.0181819
0.0179569
0.000125917
-0.00399547
-0.0173767
0.0128225
-0.011445
0.0102035
0.00779979
0.0217299
-0.0102329
-0.00560113
0.0031619
0.0119679
-0.0351407
-0.00160612
-0.0203132
0.0207741
0.0203791
0.0183914
0.023324
0.00989236
0.00123981
0.00820732
0.0117596
0.0179962
-0.00515506
0.00149058
0.00909977
-0.00472424
0.000128749
0.00481616
-0.00272567
3.2766e-05
0.0025534
-0.00132944
2.78647e-05
0.00127165
-0.000595916
1.74885e-05
0.000580925
-0.000247112
7.41236e-06
0.000238482
-0.000100528
-1.18811e-06
8.40513e-05
-4.65003e-05
-1.29508e-05
1.05652e-05
-3.52219e-05
-2.10556e-05
1.42011e-05
-4.85287e-05
8.67071e-05
-0.000145228
8.54889e-06
-9.57684e-05
6.54537e-05
1.29144e-06
-2.71132e-05
2.12421e-06
2.7775e-05
-2.72186e-05
5.59871e-07
6.66142e-07
2.15752e-07
3.72309e-07
1.12101e-06
2.9825e-06
8.26532e-06
2.10445e-05
5.04852e-05
-0.000228645
-1.46125e-05
-9.6056e-05
0.000444937
-0.000454248
8.36596e-05
4.97515e-05
0.000264412
0.000278832
0.00116608
0.0014929
-0.000125784
-0.000821347
0.00120434
0.000171586
-0.00183917
0.00256766
0.000338571
-0.00380212
0.00491763
0.000611679
-0.0072071
0.00843617
0.00101444
-0.0122302
0.00082741
0.00114772
-0.00165071
-0.00166289
-0.00756869
-0.00361119
-0.00180799
-0.000895263
-0.000435191
-0.000206383
-9.10946e-05
-2.61654e-05
3.16864e-05
2.45281e-05
2.61927e-05
4.71904e-05
3.03679e-05
-2.64089e-05
-9.28862e-05
-0.000215208
-0.000456939
-0.000929299
-0.00184416
-0.00364545
-0.00739266
-0.0174403
-0.0181268
-0.0307156
-0.0256894
-0.00877422
-0.00869339
0.0153506
0.0015595
-0.00191179
-0.00151985
0.00699125
0.000217208
-0.00574064
-0.00547478
0.00558391
-1.39547e-05
-0.00627415
-0.0059883
0.00493579
1.033e-05
-0.00779507
-0.00742746
0.0025084
-0.011284
0.00808797
0.00785794
0.00820153
0.0071937
-0.0095327
0.000736434
0.003308
-0.0112275
0.00249483
-0.0103182
0.0116835
-0.0246723
-0.000907808
-0.0237567
0.019227
0.0208931
0.0197785
0.0193869
0.0202339
0.0192992
-0.0257456
-0.00112772
-0.0232081
0.0138015
0.0148269
0.013861
0.0146467
-0.000919857
-0.0247764
-0.0245981
0.0117195
0.0198109
0.0187189
0.017445
0.0217966
0.022029
0.0168944
0.00470851
0.00954567
0.00410096
-0.00232678
0.00315138
0.000849486
-0.0023262
0.00138753
0.000289271
-0.00146634
0.000765159
0.000174896
-0.000829965
0.000381769
8.51835e-05
-0.000417508
0.000187254
5.23132e-05
-0.00019429
7.49693e-05
1.81987e-05
-8.38334e-05
2.61032e-05
5.06142e-06
-3.70026e-05
2.99619e-06
-7.62578e-06
-2.36831e-05
-9.40733e-06
-2.5268e-05
-3.10421e-05
-2.87531e-05
-1.93029e-05
-1.27627e-05
-2.06669e-05
-5.65232e-07
1.70098e-05
-1.17359e-05
1.53841e-06
1.37874e-05
-1.34338e-05
6.13406e-07
1.40866e-05
-1.47408e-05
-8.01269e-07
-1.5366e-06
-2.97671e-05
-3.50234e-07
-6.43498e-05
1.59218e-07
-9.88662e-05
1.6559e-06
0.000166666
-0.000166952
5.71132e-07
-0.000267443
1.66257e-05
0.00044096
-0.000391639
2.84657e-05
0.000625523
3.052e-05
-0.000960189
5.75072e-05
0.00145684
5.30743e-05
-0.00214279
0.000107243
0.00308414
6.65759e-05
-0.00434221
0.000176639
0.00593169
8.96214e-05
-0.00797415
0.000280105
0.0103827
-6.2157e-06
-0.0131354
0.000501348
0.0163549
-2.24098e-05
-0.000656727
-0.0204479
-0.0148354
0.000780175
0.0151344
-0.000316219
-0.0127626
-0.00886298
0.000590346
0.00944116
-0.000174632
-0.00725276
-0.00499055
0.000342834
0.00519452
-0.000101038
-0.00374558
-0.00256607
0.000193467
0.00258533
-4.5604e-05
-0.00174673
-0.00119963
0.000100343
0.00116477
-2.09095e-05
-0.000736176
-0.000508377
4.47504e-05
0.000480338
-6.34998e-06
-0.00027531
-0.000195302
1.83231e-05
0.00018625
6.32664e-07
-9.08267e-05
-6.62502e-05
9.65905e-06
7.90739e-05
7.55244e-06
-1.44918e-06
1.41195e-05
-2.10328e-05
-3.52279e-05
1.05344e-05
-1.31134e-05
8.76052e-06
3.53656e-05
-2.29721e-06
9.43379e-07
-2.79857e-05
5.55262e-07
6.43953e-05
-6.18326e-05
9.16515e-07
-9.61044e-05
8.56149e-06
-0.000146633
1.25967e-05
0.000243871
2.09715e-05
5.01618e-06
3.05874e-06
2.00554e-06
0.00010346
2.13905e-06
-2.06482e-07
-1.2035e-05
2.25183e-07
1.43746e-05
3.48879e-07
1.99294e-07
1.05895e-07
-2.26742e-06
-2.67661e-06
-2.04612e-06
-1.7395e-05
-7.31813e-06
-9.38044e-06
-2.06533e-05
-2.03e-05
-2.23792e-05
0.000231054
0.000191472
-1.94457e-05
5.22569e-05
1.73359e-05
1.5484e-05
6.68152e-05
1.8173e-05
-0.000135126
0.00019365
3.2511e-05
-0.000340712
0.00050837
7.8222e-05
6.51024e-08
-4.99917e-05
-5.78745e-05
-0.00010055
-0.000165026
-0.000210561
-0.000171211
-0.000103357
-5.11613e-05
-5.75836e-05
-4.85475e-05
-1.99489e-05
-2.23399e-05
-0.000130735
0.000189022
0.000311037
-0.000473436
0.000804386
-0.00115776
-4.2105e-05
-0.000584772
2.60632e-06
0.000411858
-2.18146e-05
-0.000225323
-3.81015e-06
0.000161895
-2.6458e-05
-1.30752e-05
-0.000182966
-2.49296e-05
0.000266715
-0.000317495
-6.67922e-09
-0.000829533
-1.38385e-05
0.00124003
-0.00111016
1.36715e-06
-0.00168931
2.15666e-06
0.00247607
-0.00244555
1.54382e-06
-0.00350013
7.55209e-06
0.00490038
-0.00503602
-2.35989e-05
-0.00661184
0.000105099
0.00877104
-0.011501
5.94243e-05
0.014442
-0.0177365
-0.00012728
-0.000576496
-8.38582e-05
-8.95993e-06
2.37683e-05
2.41801e-05
1.67839e-05
9.71084e-06
4.63068e-06
1.9259e-06
1.01932e-06
-1.44114e-05
1.77456e-05
-1.72962e-05
-1.40955e-05
1.12642e-07
2.94558e-07
-1.57515e-06
5.63893e-07
1.26259e-05
-9.86788e-08
-2.14045e-07
-1.26118e-06
1.00697e-06
-1.58355e-06
-1.67809e-05
-6.86734e-06
-1.01329e-05
5.87957e-05
1.92106e-05
-2.92462e-06
-1.89566e-06
-1.5198e-06
-7.36148e-07
1.01331e-05
1.04572e-05
-6.31265e-07
7.92351e-06
1.47497e-05
-5.45319e-07
-1.02589e-06
-1.90255e-06
-1.05033e-05
-2.83403e-06
-1.5243e-05
7.42497e-05
9.80128e-07
-0.000118975
-3.47845e-06
0.000187124
-0.000171004
-1.53528e-06
-0.000284951
-4.32178e-07
-0.000448625
1.21889e-07
-0.000708298
5.74436e-06
0.00109519
-0.00111621
-2.09683e-06
-0.00161699
5.51688e-05
0.002387
-0.00343387
8.32528e-05
0.00480513
4.95357e-06
1.10532e-05
9.15395e-06
5.78089e-06
2.8487e-06
1.89481e-06
2.86981e-07
9.62066e-08
-1.35486e-06
-3.42276e-06
-1.90616e-06
-3.33931e-06
-1.08039e-06
-1.32444e-06
8.02451e-07
7.84547e-07
9.24101e-07
2.25307e-06
2.62921e-06
5.85422e-06
6.53224e-06
7.09056e-06
1.49664e-05
2.51062e-05
0.000109735
0.00018697
-0.000677986
8.9615e-05
-0.00120497
0.0032155
-0.0221221
-0.00623796
0.00028333
-0.00197459
0.0109099
-0.0106914
-0.0314911
-0.0126381
7.66338e-05
0.00334085
0.000422686
-0.0258933
-0.0115059
-0.0078258
0.0146141
0.0015486
-0.0016535
-0.00273859
0.00760367
0.00022643
-0.00536161
-0.00656939
0.00654009
4.31194e-06
-0.00587168
-0.00688672
0.00609132
5.32297e-05
-0.00753768
-0.00783132
0.00139348
-0.000419302
6.72493e-05
6.5148e-05
0.0145464
-0.0131942
0.000277266
0.010704
-0.000274656
0.00012013
-0.0135182
0.000471435
-0.00832827
0.0106308
0.000315652
-0.0129112
-0.0227351
0.0155141
-0.00141141
0.00234804
0.00756939
-0.000303058
0.0189042
0.0137241
0.0153811
-0.0173223
0.000819343
-0.0146062
-0.000681052
-0.0161482
0.000955655
-0.0154754
-0.000687111
-0.0155606
0.000982769
-0.016633
0.0142848
0.0140195
-0.000931172
-0.0301949
-0.0242338
0.0116062
-0.00833292
0.0120497
0.00699682
0.00822403
-0.0101986
0.00277998
0.00216055
-0.0115401
0.00421243
0.00762213
-0.00964806
0.0167654
-0.00897905
0.00146846
-0.00833327
0.00122711
-0.00894158
-0.00698311
0.00112955
-0.000585045
-8.38988e-05
-3.92823e-05
1.57692e-05
3.59898e-05
2.92125e-05
1.85546e-05
1.02385e-05
4.77771e-06
1.95133e-06
1.04761e-06
-7.8469e-06
1.14536e-05
2.94782e-07
2.27648e-06
1.58121e-06
1.35649e-06
-1.17489e-05
4.27645e-07
1.7823e-05
-1.19399e-05
-5.49014e-06
1.75663e-05
-1.27788e-05
-1.94342e-05
-2.07932e-05
1.88937e-05
1.71216e-05
-5.45091e-07
-9.77559e-07
-4.86038e-06
1.08686e-06
1.80121e-05
-9.69633e-07
-2.39602e-06
-4.40058e-06
1.83034e-05
1.84212e-05
-2.53067e-06
-8.34055e-07
2.03479e-05
-6.37661e-06
-1.76242e-05
-6.4565e-06
1.77202e-05
7.71715e-06
7.29666e-06
2.18376e-06
5.42225e-06
9.01121e-06
3.57659e-05
-2.31784e-06
2.37849e-06
2.00675e-07
-8.45182e-07
-3.07274e-06
-8.05933e-06
-2.00912e-05
-4.80932e-05
-0.000104345
1.95207e-05
-4.29386e-05
0.00012704
-0.000680031
-0.00015087
0.000927313
-0.00147481
-0.000463631
-0.000494337
-0.0153382
0.0147286
-0.000446787
-0.000335684
0.00105116
-0.000799077
-0.000372731
0.00273903
0.00475
0.00257249
0.0130845
-0.00584475
0.00183708
0.0111657
0.0120777
-0.00301438
0.00141392
-0.00013584
0.000732609
-0.000178522
4.41103e-05
-0.00111998
-1.82514e-05
5.73925e-05
1.46613e-05
5.13829e-07
-2.2957e-06
3.11333e-06
-2.06391e-07
2.56191e-06
1.64066e-06
3.10546e-06
2.51503e-05
6.22917e-05
0.000131814
0.000249321
0.000431327
0.00074223
0.000315582
8.88708e-05
0.000185597
9.6515e-05
3.62756e-05
1.2255e-05
1.01977e-05
4.72965e-06
9.48163e-06
5.38344e-06
-0.000266098
0.000242564
-0.000387185
0.000620659
-0.000949636
3.2789e-05
-0.000686253
0.0004392
1.67357e-05
5.68907e-06
3.06049e-06
1.06978e-06
0.000165353
2.14503e-06
-1.94711e-07
1.36141e-05
9.56771e-07
1.99526e-06
3.96181e-06
-3.6684e-06
2.11464e-05
1.63509e-05
-5.29729e-06
2.61259e-06
8.45904e-09
-1.19923e-07
8.24576e-06
-6.02885e-07
-1.11854e-07
5.66265e-06
-2.00517e-05
4.96943e-06
2.79017e-07
2.34796e-06
1.646e-06
1.7275e-07
-9.71184e-07
1.12012e-06
1.84048e-06
-5.30717e-06
-4.88178e-06
2.12296e-05
-5.60563e-06
-1.18367e-05
-3.75795e-06
1.78023e-05
4.41455e-07
3.89468e-06
2.55363e-06
1.95739e-06
9.15353e-07
2.21516e-06
2.59375e-06
2.0813e-05
1.04164e-05
1.26007e-05
2.69501e-05
2.8519e-05
6.52362e-06
1.31903e-06
1.16927e-05
1.36537e-06
0.00107348
-0.00161063
0.00144731
-0.0021265
0.00307768
-0.00433905
0.000115118
-0.00344143
0.00238812
6.26103e-05
1.16849e-05
5.516e-05
5.77763e-05
0.000100067
0.000102515
1.88563e-05
3.84986e-09
1.33262e-05
1.39751e-05
2.53e-05
2.31695e-05
3.38539e-05
8.14026e-05
0.000166642
4.09238e-05
0.00058603
0.000100667
3.09393e-05
4.65659e-06
-3.0366e-06
-3.62846e-06
-1.09854e-06
-1.52366e-06
2.25035e-06
-1.03258e-07
-1.13472e-06
5.67447e-06
4.79796e-06
2.4418e-06
-8.78889e-06
-6.71386e-06
-2.22146e-06
-2.3571e-06
-1.67887e-06
7.15634e-07
1.93145e-06
4.65689e-06
9.84503e-06
1.26309e-05
1.85568e-05
1.4061e-05
2.30539e-05
4.60018e-05
3.98536e-05
2.95179e-05
7.67283e-05
0.000230168
7.5822e-05
7.074e-05
0.0032892
-0.000521751
0.000391598
6.03726e-05
0.000205994
0.00687635
-0.00024597
-0.00098882
0.00588657
0.00214422
-0.0257857
-0.00957495
-0.0150415
0.0156048
-0.0112959
-0.0121318
0.0141564
-0.0161102
-0.000862584
-0.00120489
-0.0162311
0.0146405
-7.74171e-05
-0.000674989
-2.79045e-06
0.000282485
0.000376122
0.0062142
0.00226776
-0.0112147
-0.0106451
0.017101
0.00149278
-0.00401636
-0.00123747
0.00654415
0.000155112
-0.00768714
-0.00499164
0.00499877
-1.6858e-05
-0.00797926
-0.00547456
0.00439601
-3.2962e-05
0.00700903
0.00682136
0.000383938
0.00999775
-0.00981638
9.20144e-05
-0.00742148
-6.47599e-05
-0.00011869
-1.7303e-05
6.81967e-06
1.12876e-05
7.52502e-06
3.83477e-06
1.68354e-06
6.36443e-07
-1.17089e-06
-3.54151e-06
3.46931e-05
-0.000333519
0.000508791
8.13467e-05
-0.000809334
0.00121343
0.00188345
-0.00259915
0.00400602
-0.00535437
-0.000128886
-0.00300334
6.69587e-05
0.00221989
-7.91871e-05
-0.0013843
1.94899e-05
0.000997671
-0.000191881
-0.000134784
-0.00111888
-0.000101618
0.00148138
-0.00173319
1.77545e-05
-0.00406686
-2.33225e-05
0.00564779
-0.00495397
2.04677e-05
-0.00682735
2.06032e-05
-0.00900361
-1.72632e-05
-0.0116349
-3.70647e-05
0.0146076
-0.015179
-1.91586e-05
0.0181383
-3.88501e-05
-0.0178359
0.0177659
-5.50226e-05
-0.0147814
0.0149523
-0.0179952
-9.31288e-06
2.01638e-05
0.00010572
6.61611e-05
2.28325e-05
3.30034e-06
-2.49576e-06
-2.96907e-06
-2.46603e-05
-4.70219e-05
-9.77452e-05
-0.000121246
-0.000163309
-0.000206295
-0.00181241
0.00259367
0.000342807
-0.00373203
0.00498602
0.00774266
-0.01014
0.0135569
-0.0173563
0.000214404
-0.011966
0.00118751
0.0083517
-0.000142599
-0.0061074
0.000261419
0.00452381
-0.000665146
-0.000388259
-0.00451844
-0.000166437
0.00591558
-0.00657829
0.000112287
-0.0135425
4.71169e-05
0.0172714
-0.0147712
-2.9733e-05
0.0180027
0.00011261
-0.0205631
0.0121019
2.61856e-05
-0.0112815
0.00966132
-0.0139806
0.000254737
-0.00291575
-0.00142893
-0.00235055
-0.00384753
0.0133241
-0.0225361
0.00475971
-0.00607819
-0.00277257
-0.00138708
-0.00071449
-0.000355303
-0.000163718
-6.44852e-05
-6.51846e-06
9.43951e-05
3.71363e-05
-1.88725e-05
1.30812e-05
2.49394e-06
5.7471e-05
-5.33824e-05
4.14133e-05
-2.93453e-06
-2.88613e-05
3.35423e-07
6.66718e-05
-6.71976e-05
-1.34151e-06
-0.000103365
-3.55744e-07
-0.000167072
-4.24686e-08
-0.00027588
3.37962e-06
0.000446943
-0.000453288
-8.00817e-08
-0.000690193
3.0966e-05
0.0010766
7.93101e-06
3.27771e-06
0.000734476
2.72057e-06
0.000287492
-4.05473e-07
-1.26791e-06
-1.69482e-06
-3.76213e-06
-7.11942e-07
2.83141e-05
9.07044e-07
-2.54718e-07
1.0356e-05
1.85919e-05
-5.57074e-05
-1.07048e-05
-0.000119634
-3.102e-07
-0.000326347
-7.73924e-06
0.000503219
-0.000454685
-1.0006e-06
-0.000726937
-7.74578e-08
-0.00109983
8.67056e-07
-0.00165271
8.13906e-06
0.00243356
-0.00249004
-8.38927e-06
0.00360353
-2.03013e-06
2.8703e-06
0.00170722
-3.60191e-07
5.45295e-06
6.67938e-07
-2.49906e-06
0.000276682
-3.04887e-06
9.98887e-05
5.53886e-06
-1.32669e-05
0.000105854
-1.00365e-05
1.10446e-05
-4.11744e-05
0.000194718
-3.26036e-05
-5.88834e-05
-0.000480556
-5.37553e-05
-0.00077825
4.19928e-06
-0.00192539
-2.10212e-05
0.00277625
-0.00246218
8.24759e-06
-0.00356696
8.64886e-06
-0.00492998
-1.41544e-06
-0.00671699
-4.05241e-06
0.00893123
-0.00922612
-4.66717e-05
0.0119018
-2.24578e-05
3.4114e-07
1.10748e-05
1.39735e-05
2.60448e-05
1.77768e-05
1.01688e-05
4.68774e-06
4.02045e-06
3.88912e-06
7.81374e-06
8.91845e-06
5.20194e-05
0.000109572
0.0002026
1.02576e-05
2.30823e-05
1.4416e-05
1.31859e-05
7.71984e-06
4.98403e-06
4.08836e-06
-3.03447e-05
-0.000211624
2.18097e-05
-0.000206619
0.00037728
5.69495e-05
-0.000549179
-0.000563209
0.000384257
0.000358352
5.59401e-05
-0.000525293
-0.000600202
0.000406987
-0.000223126
2.1335e-05
-0.000200122
0.000141926
0.000149943
0.000147904
0.000143319
2.16835e-05
-0.00021853
-0.000204744
-3.03845e-05
0.0003638
5.65191e-05
-0.000587785
-0.000538586
-7.29521e-05
0.000870882
0.000129433
-0.00140742
-0.00127934
-0.00131109
-0.00134458
0.000131635
0.000903386
0.000921876
-7.2587e-05
0.000855922
0.000128986
-0.0012472
-0.00143668
0.000980525
-7.54938e-05
-0.000496779
-0.000742192
4.34007e-05
0.000324564
-3.18935e-05
-0.000191201
-0.000278369
1.74548e-05
0.000130916
0.000158527
-7.07954e-05
9.3378e-06
-6.91863e-05
-1.74028e-05
-7.0398e-05
9.31598e-06
-6.90076e-05
-1.73953e-05
-7.04396e-05
9.49185e-06
-6.94815e-05
0.0001563
0.000131724
-1.81795e-05
-1.64571e-05
2.65972e-05
-3.15312e-05
-2.55098e-05
-2.63962e-05
-2.98191e-05
-2.83214e-05
-2.85933e-05
-2.66899e-05
-3.2313e-05
-4.71962e-05
-2.95736e-05
-2.6611e-05
-2.55255e-05
-1.69564e-05
-5.25411e-06
-7.35176e-06
2.03417e-05
-2.20326e-05
6.52001e-05
6.63703e-05
6.5942e-05
6.54052e-05
6.82879e-05
6.07994e-05
-2.07033e-05
1.7596e-05
-5.16558e-06
-1.69122e-05
-7.40692e-06
1.79715e-05
7.31284e-06
2.07998e-05
2.12366e-05
5.31918e-05
0.000111824
2.08718e-06
-0.000157945
0.00202453
0.000259692
-0.00281866
-0.00289118
-0.00267322
-0.00309334
0.000253028
0.00188093
0.00216013
-0.000162554
-0.00117167
-0.00176461
9.8639e-05
0.000779395
0.00117336
-1.75747e-05
8.3941e-05
-0.000199058
4.91881e-05
0.000198006
-0.000433333
9.54446e-05
0.000429745
-0.000844661
0.000196642
0.000947305
-0.00139643
0.000596019
0.00249832
6.73543e-05
0.00182887
-0.000607266
0.000910243
-0.000438374
0.00050127
-0.000244067
0.000261392
-0.000120487
0.000121717
2.12422e-05
-8.44378e-05
0.000483297
-5.65083e-06
2.95763e-05
-3.70653e-05
5.75884e-06
3.97171e-05
-5.78804e-05
-3.55701e-05
4.41965e-06
9.23026e-07
-9.19412e-05
9.33472e-06
-6.51454e-05
-1.82075e-05
-1.63502e-05
2.85451e-05
-2.43473e-05
-2.88632e-05
-3.09295e-05
-2.5432e-05
-9.29415e-06
-2.39431e-05
-7.46383e-06
-1.0818e-05
-5.5424e-05
7.71115e-06
7.95269e-05
6.08072e-05
6.88308e-05
-2.07211e-05
-4.87496e-05
-3.14821e-05
2.69404e-05
9.47053e-05
9.91001e-05
0.000229652
0.000472505
0.00088907
0.000191492
-0.00250248
-0.00379795
0.00260546
0.0017264
-0.00026023
-0.000121656
-4.87896e-05
-4.34125e-05
0.000210257
0.000421093
0.000774959
-0.00048912
-0.000312688
0.00432126
0.000437375
-0.00518068
-0.00603392
-0.00482286
-0.00746578
0.000325355
0.0035008
0.00527296
-6.20548e-05
9.51894e-05
3.75471e-05
2.28789e-05
4.78271e-05
8.95788e-05
-0.00670377
0.00598657
-0.008037
0.000141054
0.000267731
0.00016593
0.000149612
2.6356e-05
-4.56628e-06
0.00483156
3.01472e-05
-5.21079e-06
0.00886641
0.000198524
-5.79983e-06
0.000331147
0.000475832
-7.66602e-05
9.10968e-06
2.74268e-05
1.28942e-05
1.82712e-05
-1.1673e-05
2.6306e-05
1.6608e-05
2.11658e-05
-4.34938e-06
1.09418e-05
9.2355e-06
-4.70689e-07
-1.66736e-06
-8.94458e-07
-3.68324e-06
1.05451e-06
0.000175371
0.000312557
0.000148881
0.000116919
0.000117593
0.000130249
4.66174e-05
4.67275e-05
1.55079e-05
2.36555e-05
5.38143e-05
6.26939e-05
0.000253057
0.000250515
0.000462257
0.000467852
0.000527055
0.000713812
0.000710422
0.000916543
0.000577922
-0.00701269
0.00860342
0.00105527
-0.0116242
0.00113148
0.000875415
-0.00161061
-0.0023412
-0.0207726
-0.022466
-0.0379771
0.00966136
0.00301649
0.017195
-0.00630094
0.0104122
-0.00113145
-0.011625
0.0105999
-0.00022931
0.00692313
-0.000258152
0.00995452
-0.0109181
-0.000872823
-0.000268228
-0.000310852
0.00013844
-0.00108943
0.00714992
-0.000284789
0.000462298
0.000210041
9.2294e-05
0.000120991
4.30524e-05
3.86481e-05
-0.000203756
-0.000200451
-0.00021355
-6.8598e-05
0.00025858
6.67109e-06
-8.14786e-05
-7.43515e-05
0.00247004
-0.00352033
5.26258e-05
-0.00780676
-4.8951e-06
0.0104361
-0.00902644
2.66687e-05
-0.0117925
2.59117e-05
0.0116731
-1.30282e-06
6.71229e-06
9.11169e-06
2.00555e-05
7.13825e-05
0.000620914
0.000111954
3.17795e-05
1.00197e-05
8.57557e-07
1.53343e-06
2.8956e-06
1.31505e-06
5.08724e-07
0.000279374
4.37261e-08
0.000451077
-2.30002e-07
0.000166588
0.000100247
-6.96707e-08
6.33002e-05
2.87368e-05
7.30724e-07
-3.47733e-08
-1.54756e-07
1.15637e-06
-1.116e-06
0.000711651
2.37576e-05
-9.16379e-05
0.000653688
-7.19558e-05
5.16723e-05
-0.000181688
0.00116154
-0.000131153
-0.000251179
-0.00235916
-0.000155884
0.00309347
-0.000326115
-0.000216375
0.000201575
0.000106683
4.80348e-06
0.00166574
4.52837e-06
0.00166979
1.59619e-05
2.5186e-05
0.00353943
1.3044e-05
0.00500245
3.2674e-05
8.39323e-05
0.00681714
-0.000580323
0.00476421
-0.000431867
-0.000624136
-0.00811787
-2.19664e-05
0.00824722
-0.00117791
0.000296801
-6.3427e-05
-0.001869
-0.00522906
-0.000148887
-0.000827031
-0.000338293
0.000207672
0.000204029
0.0118364
4.34059e-05
8.86686e-06
-3.75061e-05
-7.8235e-05
-0.000309054
-8.19885e-06
4.28273e-05
2.93038e-05
0.00914105
0.00676575
-7.09365e-06
-1.1992e-06
-2.89728e-05
-8.4076e-05
-0.000122953
-0.00055487
-0.000182413
-0.000157961
-6.67757e-05
-1.98072e-05
0.00689328
-1.36377e-05
7.59901e-06
9.63561e-06
0.000131918
6.19596e-05
2.49893e-05
-1.26406e-06
3.16838e-06
0.000249779
0.000428273
0.000701924
-3.89638e-05
0.000310024
0.000221058
-0.0004489
0.00222078
0.00521029
-0.00348241
0.0220529
0.00267211
0.00187332
0.00108063
0.00142175
0.00119221
0.000760679
0.000417601
0.000208613
9.37922e-05
9.47058e-05
2.71406e-05
-1.4577e-05
-1.46344e-05
-4.71465e-05
-2.20286e-05
-4.8605e-05
-2.43578e-05
2.80787e-05
9.79317e-05
-4.9067e-05
-3.20283e-05
0.000328465
0.00040007
5.17858e-05
3.94272e-06
3.82656e-06
2.16147e-06
3.53871e-06
5.44966e-06
1.04063e-05
2.19341e-06
1.87504e-05
8.68218e-05
1.20487e-05
2.67685e-05
7.74169e-06
4.53478e-06
7.09257e-06
6.41313e-06
1.00198e-05
1.14417e-05
7.7215e-07
0.000108567
0.00019976
0.000206206
0.000336063
-5.52401e-05
-0.000541538
-0.00563326
0.000456375
-0.00547953
0.00702832
0.000753193
-0.00965096
-0.00998388
0.00723091
0.00676826
0.000693056
-0.009096
-0.0107099
0.00776226
-0.00054847
0.00646973
0.00967447
-4.66669e-05
9.96216e-05
-0.000830888
0.00152105
0.00233266
0.00310649
0.00490518
0.00497809
0.0123023
0.0287584
0.00425667
0.015132
0.0224446
-0.00227044
-0.00132434
0.0016486
0.00125803
-0.000749714
-0.000443788
0.00376271
0.00403644
0.00394348
0.00382229
0.000448228
-0.0058873
-0.00535073
-0.000547484
0.00687764
0.000749734
-0.010373
-0.00951436
-0.000888428
0.0109922
0.011724
0.0103967
-0.000872585
-0.00013281
-0.000201773
-9.44168e-06
1.709e-05
7.86409e-05
1.62227e-05
1.67575e-05
-2.57143e-05
-1.04552e-05
-0.000204481
0.00207568
-0.000236681
-0.000140384
-0.000307898
-0.00029716
-0.000187321
-0.000314342
-0.000142596
0.0054115
-0.000179517
8.79684e-05
2.34974e-05
1.0149e-05
0.000182735
0.000159847
-0.00260153
0.012596
-0.00696364
-0.0238028
-0.0269999
0.00247471
-0.0130523
0.00561127
0.00184402
-0.00810483
-0.00913051
-0.000857165
-0.00125395
0.00824205
0.00767098
-0.000788718
-0.00754478
-0.000171608
0.00745659
-1.68232e-05
6.96672e-05
-3.06051e-06
6.61735e-05
0.000269098
0.000278645
0.000177125
4.05672e-05
2.46848e-05
-4.30923e-05
-4.30056e-05
3.98758e-06
-6.33099e-05
-1.52154e-05
-8.41198e-07
0.000326614
0.000478887
0.000482367
-0.000187653
0.000631555
0.000502056
-0.000113346
0.0170755
-0.000928548
0.00124784
-0.0189327