/*--------------------------------*- C++ -*----------------------------------*\
| =========                 |                                                 |
| \\      /  F ield         | OpenFOAM: The Open Source CFD Toolbox           |
|  \\    /   O peration     | Version:  2306                                  |
|   \\  /    A nd           | Website:  www.openfoam.com                      |
|    \\/     M anipulation  |                                                 |
\*---------------------------------------------------------------------------*/
FoamFile
{
    version     2.0;
    format      ascii;
    arch        "LSB;label=32;scalar=64";
    class       volScalarField;
    location    "0.9";
    object      gradTz;
}
// * * * * * * * * * * * * * * * * * * * * * * * * * * * * * * * * * * * * * //

dimensions      [0 -1 0 1 0 0 0];

internalField   nonuniform List<scalar> 
5322
(
-0.868661
-0.884073
-0.908177
-0.984438
-0.971465
-0.963739
-0.958502
-0.95552
-0.955252
-0.960858
-0.948616
-0.950843
-0.715446
-0.986438
-1.0787
-0.861258
-1.01804
-0.762318
-1.07361
-1.08408
-1.09203
-1.08827
-1.09044
-1.09777
-1.09984
-1.09573
-1.09867
-1.10609
-1.10943
-1.10651
-1.10953
-1.11441
-1.11015
-1.09515
-1.04421
-0.859027
-0.978233
-0.995992
-1.02805
-0.72488
-0.955935
-0.986546
-0.711847
-0.987974
-0.978306
-0.723697
-1.00168
-0.94557
-0.714127
-0.979567
-1.09777
-0.786365
-1.07102
-1.00444
-0.940425
-0.954838
-1.13413
-0.939938
-0.950037
-0.95575
-1.1479
-0.952602
-0.95041
-0.932187
-1.14712
-0.984684
-0.945915
-0.885379
-1.12004
-1.04554
-0.783618
-1.2194
-1.16131
-1.14479
-1.15691
-1.15128
-1.15068
-1.14666
-1.1617
-1.10018
-1.04719
-0.8061
-0.835569
-1.12786
-0.768072
-1.02203
-1.38228
-0.845909
-0.866624
-0.777981
-0.983159
-0.874113
-0.922239
-0.915082
-1.11253
-0.965976
-0.961354
-0.979812
-1.40675
-0.823214
-0.830209
-0.790641
-0.987243
-1.09947
-1.19616
-0.933032
-0.989608
-0.989049
-0.980442
-0.976773
-0.972638
-0.968482
-0.964321
-0.965412
-1.11002
-1.09878
-0.769002
-0.833267
-1.11015
-0.918347
-0.813949
-0.989915
-0.976042
-1.37504
-1.02431
-1.34641
-0.96676
-1.00948
-1.3233
-0.962679
-0.988001
-1.33525
-0.977593
-0.969604
-1.34136
-0.991418
-0.975617
-1.37722
-1.02508
-1.34653
-0.969175
-0.816724
-0.918443
-0.821607
-0.770431
-1.11029
-0.833307
-0.827455
-0.760208
-0.765219
-1.10811
-0.828584
-0.825384
-0.760643
-0.76705
-1.10782
-0.830244
-0.821215
-0.816437
-1.07854
-0.859993
-1.01937
-1.18598
-1.15996
-0.735599
-1.07382
-0.76239
-1.03246
-0.706778
-0.955792
-0.987633
-0.91743
-0.950252
-1.10274
-0.90723
-1.11785
-1.11003
-1.07277
-0.896223
-1.07091
-1.09718
-1.09944
-1.09067
-0.911952
-1.09192
-1.09689
-1.09827
-1.09631
-0.917773
-1.09732
-1.10064
-1.10159
-1.10051
-0.922447
-1.10192
-1.10582
-1.10728
-1.10419
-0.927521
-1.10645
-1.11228
-1.11478
-1.10755
-0.932782
-1.11078
-1.11782
-1.12163
-1.11206
-0.934862
-1.11666
-1.1044
-1.10802
-0.977622
-1.40751
-0.823515
-0.820609
-0.793362
-1.11659
-1.11354
-0.922313
-0.915347
-1.10913
-0.973654
-0.949647
-0.986143
-1.40262
-0.827935
-0.820434
-0.794833
-0.974053
-1.10573
-0.960983
-0.971964
-0.987334
-0.980277
-0.977208
-0.973034
-0.968724
-0.964421
-0.96538
-1.10997
-1.09906
-0.765619
-0.763252
-0.762659
-0.765569
-1.10769
-0.825322
-0.829956
-0.834949
-0.987753
-1.38776
-0.825552
-1.10773
-0.829703
-1.37998
-1.00648
-1.31887
-0.962001
-0.835151
-0.987665
-1.31916
-0.70431
-0.946274
-0.907788
-0.906738
-0.950545
-1.10922
-1.07296
-1.09878
-1.09069
-1.09796
-1.0962
-1.10152
-1.10043
-1.10744
-1.10411
-1.11534
-1.10722
-1.1229
-1.11091
-1.11498
-0.965099
-1.40693
-0.983585
-0.961006
-1.10183
-1.11934
-0.935349
-1.11747
-1.11215
-0.933214
-1.11276
-1.10699
-0.927827
-1.10649
-1.10202
-0.92262
-1.10133
-1.09712
-0.917841
-1.09782
-1.09129
-0.911937
-1.0987
-1.06976
-0.895978
-1.11937
-0.917949
-1.11812
-1.07097
-0.895985
-1.11035
-0.950312
-1.10249
-0.91544
-0.712896
-0.989762
-0.861438
-1.12294
-1.07512
-1.09669
-1.09704
-1.09733
-1.10026
-1.10234
-1.10346
-1.10891
-1.10658
-1.11867
-1.10595
-1.13028
-1.10047
-1.11787
-0.970393
-1.38655
-1.02461
-0.926085
-1.18678
-1.20195
-0.905173
-1.20105
-1.19283
-0.903596
-1.19376
-1.1853
-0.897391
-1.18481
-1.17934
-0.892073
-1.17915
-1.17561
-0.888017
-1.17567
-1.17193
-0.883686
-1.17736
-1.16036
-0.869732
-1.1858
-1.01918
-1.07817
-0.955457
-1.00936
-0.880697
-1.03583
-0.704777
-0.804389
-0.915144
-0.840125
-1.14912
-1.11984
-1.07885
-1.07159
-0.893767
-1.1106
-1.12675
-0.874425
-1.10718
-0.972656
-0.925266
-0.909475
-1.33995
-1.08107
-1.02494
-1.37577
-0.986629
-0.919818
-0.939189
-0.912768
-1.11931
-1.06975
-0.906297
-1.09949
-1.09128
-1.09841
-1.09715
-0.906019
-1.10223
-1.10143
-1.10817
-1.10504
-0.911498
-1.11576
-1.10791
-1.12203
-1.1128
-0.916322
-0.923287
-0.91952
-0.919624
-0.916566
-0.913196
-1.11938
-1.10802
-0.931446
-1.1176
-1.10963
-1.12808
-1.10694
-0.931765
-1.12805
-1.08637
-1.20994
-0.931404
-1.37594
-0.837316
-0.800973
-0.813259
-1.0753
-0.867951
-0.772983
-1.12816
-0.754391
-1.08325
-1.1198
-0.74914
-1.10009
-1.10765
-0.743649
-1.10334
-1.10304
-0.740031
-1.09547
-1.09199
-0.737853
-1.09595
-1.08862
-0.737105
-1.09079
-1.07833
-0.735146
-1.07931
-0.826848
-0.797193
-0.993429
-0.86759
-0.967236
-1.00403
-1.11953
-1.13246
-1.12386
-1.13219
-1.09794
-1.10019
-0.915915
-1.10027
-1.09961
-1.09553
-0.910697
-1.09224
-0.906423
-0.857652
-0.858621
-0.763317
-0.8901
-0.863913
-0.828753
-0.966201
-0.959255
-0.94808
-0.956398
-0.742554
-1.21006
-0.670223
-0.899886
-0.955685
-0.934538
-0.94014
-0.968459
-0.953927
-0.954024
-0.972972
-0.942661
-1.00572
-0.884721
-0.996692
-1.00196
-1.13223
-1.13319
-1.13993
-1.13506
-1.10923
-1.10716
-0.925937
-1.10748
-1.11034
-1.10387
-0.920555
-1.1033
-0.910654
-0.863697
-0.860097
-0.764035
-0.892018
-0.882222
-0.844596
-0.889069
-0.859707
-0.825428
-0.991058
-0.881363
-0.762442
-0.96076
-0.964167
-0.952135
-0.951471
-0.897873
-0.87151
-0.865769
-0.76046
-0.948426
-0.93609
-1.07236
-0.90492
-1.09964
-1.09772
-1.09218
-0.912092
-1.09038
-0.902753
-1.09846
-1.09735
-1.09743
-0.918087
-1.09646
-0.904127
-1.1016
-1.10167
-1.10149
-0.922987
-1.10141
-0.906702
-1.10693
-1.10798
-1.10498
-0.92833
-1.10623
-0.909462
-1.11311
-1.11634
-1.10717
-0.933702
-1.11151
-0.91192
-1.11649
-1.12414
-1.11031
-0.935042
-1.11828
-0.911925
-1.1015
-1.11207
-0.976048
-0.959283
-0.976212
-0.798294
-0.823664
-0.791601
-0.749041
-1.07201
-0.762233
-1.02781
-0.843593
-0.808312
-1.05453
-1.08066
-0.909834
-0.959857
-0.960013
-0.964759
-0.981528
-0.962509
-0.959472
-0.982511
-0.952942
-0.977593
-0.956437
-0.94956
-0.948281
-0.949127
-0.955077
-0.942297
-0.942649
-0.717096
-0.979505
-0.86696
-0.90184
-0.906063
-0.9233
-0.954038
-1.1053
-0.833221
-1.02665
-1.01366
-1.02457
-1.03978
-0.814596
-1.02335
-1.02692
-1.02207
-1.10635
-0.747698
-0.752621
-0.751292
-0.75009
-0.747681
-0.745028
-1.10839
-0.750089
-0.749293
-0.749556
-1.10845
-0.751341
-1.11273
-1.11452
-1.11219
-0.986665
-0.984889
-0.915024
-0.903682
-0.903395
-0.906649
-0.910413
-0.914298
-0.8672
-0.770807
-0.89683
-0.886862
-0.848068
-1.0106
-1.00805
-1.15564
-1.12291
-1.18616
-0.911129
-0.980677
-0.835169
-1.02526
-0.904104
-0.959925
-0.979698
-0.951507
-0.953977
-0.960547
-1.00143
-0.98855
-0.974072
-0.922368
-0.882743
-0.891959
-0.929102
-0.73453
-0.80534
-1.09164
-0.988538
-1.03318
-1.05948
-0.700948
-0.875448
-0.923212
-1.09144
-0.726298
-0.911817
-0.928284
-1.09671
-0.729227
-0.900361
-0.939218
-1.09269
-0.743086
-0.88965
-0.994438
-1.35908
-1.01635
-0.991822
-1.24733
-1.20952
-0.984287
-0.744046
-1.07107
-1.00521
-0.939955
-0.952851
-0.94746
-0.714453
-0.977843
-1.09826
-0.786139
-1.04789
-0.806555
-0.83631
-1.12825
-1.06762
-0.86284
-1.129
-1.09331
-0.881004
-1.11587
-1.10105
-0.878923
-1.10675
-1.09954
-0.876455
-1.09976
-1.09624
-0.872455
-1.09532
-1.09266
-0.871401
-1.09025
-1.09052
-0.854897
-1.08452
-1.07313
-0.832331
-1.03291
-0.876195
-1.00809
-0.954319
-1.01883
-1.18618
-1.15968
-0.869732
-1.12505
-0.859658
-1.07864
-0.989355
-0.713037
-0.91428
-0.946913
-1.10274
-0.903234
-0.948697
-0.950385
-0.961564
-0.955165
-0.957611
-0.957313
-0.958963
-0.895108
-0.868686
-0.83372
-1.00946
-1.01247
-0.894535
-0.888361
-0.947063
-0.963073
-1.10261
-1.10389
-0.907764
-1.09684
-1.10098
-0.923178
-1.10163
-1.10625
-0.928407
-1.10622
-1.1126
-0.9335
-1.11043
-1.11733
-0.934771
-1.1145
-0.980198
-0.989235
-0.974529
-0.980124
-0.965854
-0.955767
-0.952507
-0.950414
-0.949286
-0.950184
-0.956233
-0.945271
-0.945715
-0.712779
-0.946915
-0.902797
-0.949771
-0.949249
-0.961202
-0.954975
-0.954465
-0.955917
-0.95815
-0.961324
-0.969328
-1.01791
-1.0121
-0.741354
-1.32565
-0.998696
-0.958536
-0.929507
-1.09668
-0.730469
-0.732253
-0.801343
-1.1431
-0.764012
-0.775536
-0.790549
-1.14961
-0.7675
-0.779007
-0.783756
-1.14488
-0.783925
-0.797383
-0.866164
-1.4447
-1.02999
-1.00558
-1.01036
-1.00128
-0.847132
-0.81561
-0.869355
-1.43936
-0.860096
-0.862616
-1.14714
-0.954174
-0.949883
-0.931289
-0.992611
-0.711358
-0.98262
-0.983361
-0.725211
-0.997848
-0.942451
-0.94946
-0.952409
-1.15235
-1.14849
-1.15872
-1.14299
-0.950422
-0.89783
-0.977327
-1.14892
-0.963383
-0.732008
-1.0231
-0.897767
-0.730796
-1.2229
-0.674446
-0.930208
-0.814286
-0.998997
-1.00267
-0.83638
-1.02316
-1.01101
-0.855524
-1.01151
-1.01548
-0.83414
-1.01331
-1.00332
-0.85059
-1.00052
-1.00789
-0.8253
-1.00493
-0.996961
-0.842848
-0.990673
-1.00412
-0.818574
-0.977224
-0.983408
-0.799102
-0.915682
-0.667769
-1.20593
-0.867731
-0.743356
-1.37676
-0.97636
-1.0245
-1.34492
-0.968187
-1.00767
-1.32177
-0.961376
-0.989369
-1.33508
-0.980055
-0.966972
-1.34054
-0.719192
-0.922258
-1.10583
-0.909934
-0.918433
-1.11683
-0.896025
-1.07088
-1.07141
-0.904891
-1.09708
-0.883609
-1.09565
-1.17156
-0.762686
-1.17577
-0.736948
-1.1746
-0.763947
-1.17745
-0.739014
-1.17961
-0.766776
-1.1823
-0.742177
-1.18484
-0.770491
-1.18737
-0.746255
-1.19281
-0.775425
-1.19377
-0.751215
-1.20314
-0.781424
-1.18968
-0.753758
-0.888065
-1.13619
-1.10967
-0.932178
-1.15127
-0.897346
-1.148
-1.11426
-0.922447
-1.14493
-0.893591
-1.14059
-1.11008
-0.916439
-1.13791
-0.889146
-1.13603
-1.10537
-0.91166
-1.13411
-0.885421
-1.13007
-1.10167
-0.908613
-1.12921
-0.8826
-1.12726
-1.09967
-0.907088
-1.12888
-0.879902
-1.12392
-1.10179
-0.910451
-1.11284
-0.867204
-1.15489
-1.11024
-0.925358
-0.836517
-0.80363
-0.705644
-0.955765
-1.00941
-0.876349
-1.03324
-0.830059
-0.863066
-0.874016
-0.899928
-0.903858
-0.944311
-1.10317
-0.907554
-0.948257
-0.915057
-1.12305
-0.870157
-1.15946
-0.76347
-1.17708
-0.736385
-0.961521
-0.95003
-0.938065
-1.1111
-0.985009
-1.37895
-0.829937
-1.10774
-0.825793
-0.833891
-1.02547
-1.02076
-1.01282
-1.02144
-1.0277
-1.38732
-0.986042
-0.91826
-0.90479
-0.906047
-0.908678
-1.10089
-1.10238
-0.910105
-0.95405
-0.944823
-0.938901
-1.1098
-0.896448
-1.07268
-1.09775
-0.912263
-1.09119
-1.09749
-0.918291
-0.99452
-0.905649
-0.906554
-0.908895
-0.912642
-0.910266
-0.912479
-0.90874
-0.905181
-0.904654
-0.903495
-0.903853
-0.905003
-1.07317
-1.09787
-1.17666
-1.17151
-1.17509
-1.1744
-0.737235
-1.09374
-0.762172
-1.09048
-0.736612
-1.0919
-0.76326
-1.08477
-0.853765
-0.820139
-1.00131
-0.880004
-0.993284
-1.12754
-0.90702
-1.09908
-0.91469
-1.0977
-1.09906
-0.908148
-1.09968
-0.921396
-1.10135
-1.10182
-0.90969
-1.10383
-0.925054
-1.10718
-1.10725
-0.912645
-1.11058
-0.898815
-1.11432
-1.11578
-0.902289
-1.12399
-1.10111
-0.895545
-0.993525
-0.991096
-0.981162
-0.97695
-0.972711
-0.968564
-0.964397
-0.965513
-1.11003
-1.09852
-0.766195
-0.759971
-0.764209
-0.828257
-1.38641
-0.986237
-0.986892
-1.3744
-0.827785
-0.832591
-1.02743
-1.02473
-1.08158
-1.02401
-1.37972
-0.984771
-0.914958
-1.12418
-0.870503
-0.963744
-0.945337
-1.11234
-1.10608
-0.749366
-0.746898
-1.10845
-0.744412
-0.759529
-1.10799
-0.945825
-0.905994
-0.858751
-0.909332
-1.33826
-1.15687
-0.925728
-1.10861
-0.893575
-1.08007
-1.06931
-0.908557
-1.09723
-0.911755
-1.09012
-0.904777
-1.0964
-0.917048
-1.09703
-1.09612
-0.904835
-1.10073
-0.890749
-1.10326
-1.10537
-0.894542
-1.10817
-0.914609
-0.910414
-0.906755
-0.903582
-0.90389
-0.945263
-1.11229
-1.10589
-0.924543
-0.968366
-0.945911
-0.963658
-0.945025
-0.924492
-0.968144
-0.904377
-0.906143
-0.90475
-0.904268
-0.908316
-0.905663
-0.954475
-0.955864
-0.95819
-0.961006
-0.963538
-0.89328
-0.874655
-0.883263
-0.895006
-0.731027
-1.01587
-0.748884
-1.35879
-0.980141
-0.957483
-0.957426
-1.11159
-0.985808
-1.03219
-0.980872
-1.34917
-0.965933
-0.956926
-0.927996
-1.09203
-0.728764
-0.742132
-0.808908
-1.13678
-0.76077
-0.78733
-0.800898
-1.14307
-0.764201
-0.788512
-0.79646
-1.13836
-0.7822
-0.802137
-1.15622
-0.989742
-0.922361
-0.915356
-1.11866
-1.19282
-0.905185
-1.20233
-0.75285
-0.90206
-1.16399
-0.919279
-1.10517
-1.13326
-0.925469
-1.08911
-1.17441
-1.11891
-1.03784
-0.827745
-0.948981
-0.882596
-1.09994
-1.16275
-1.14473
-1.10672
-0.92916
-1.09709
-0.923484
-1.10273
-0.928915
-1.09728
-0.924222
-1.10373
-0.931487
-1.0977
-1.16541
-1.13894
-0.950373
-0.843933
-1.00443
-1.1501
-0.843005
-1.01191
-1.02944
-0.989949
-0.861853
-0.859905
-0.865166
-1.43072
-0.86634
-0.954843
-1.37215
-1.03335
-0.993307
-0.84247
-0.855118
-1.15359
-0.793834
-0.793259
-1.15007
-0.975641
-0.993596
-0.989188
-0.980603
-0.976935
-0.972763
-0.968577
-0.964376
-0.965448
-1.11004
-1.0988
-0.744393
-0.747458
-1.01687
-1.01278
-1.02417
-1.31858
-1.00684
-0.8163
-0.821418
-0.918111
-0.833363
-0.814294
-0.97613
-1.37723
-1.02457
-1.3381
-0.967748
-1.3442
-1.08164
-1.04069
-1.02498
-1.37481
-0.827881
-0.828417
-1.10811
-0.762362
-0.761876
-0.828584
-0.827782
-0.831996
-0.981411
-1.35265
-0.981954
-1.38583
-0.985638
-0.986628
-0.909405
-0.76284
-0.864787
-0.871062
-0.900285
-0.951425
-0.951543
-0.964058
-0.957928
-0.957571
-0.959183
-0.961581
-0.964855
-0.961742
-0.971724
-0.970667
-1.00848
-0.745957
-0.816859
-0.821476
-1.40755
-0.955022
-0.967693
-0.997907
-1.32205
-0.738788
-0.819805
-0.82228
-0.751232
-0.830175
-0.845319
-1.38244
-0.989858
-1.02201
-0.778411
-0.866705
-0.947036
-0.887816
-0.896301
-0.972626
-1.01966
-1.01725
-0.97487
-0.973431
-0.99784
-0.986326
-0.975239
-0.968169
-0.963801
-0.948467
-0.943558
-0.94329
-0.936239
-0.949016
-0.890383
-0.890451
-0.892448
-0.895173
-0.897695
-0.89834
-0.99253
-0.97703
-0.97768
-0.969188
-0.960888
-0.954071
-0.953538
-0.948041
-0.962429
-0.959684
-1.09855
-1.17673
-1.17127
-1.17526
-1.17429
-0.887205
-1.09811
-1.09515
-0.883159
-1.00275
-0.903704
-0.904927
-1.07257
-0.985113
-1.37915
-0.962021
-0.915159
-0.945033
-0.963748
-1.11011
-0.76916
-0.760929
-1.02842
-1.02006
-1.0277
-1.01646
-0.743706
-1.10852
-1.01687
-1.02473
-0.834482
-1.04075
-1.01728
-1.01209
-1.02387
-1.02677
-1.0818
-1.02471
-1.02716
-1.0287
-1.04145
-0.768114
-0.833654
-0.918025
-1.11004
-0.821885
-0.815907
-0.963844
-0.946154
-1.11246
-1.1056
-0.92455
-0.946151
-0.906175
-0.858782
-0.763456
-0.857758
-0.762449
-0.903338
-0.90289
-0.906494
-0.904189
-1.09924
-1.10168
-1.17823
-1.17792
-1.18395
-1.18205
-0.895779
-1.10661
-1.10348
-0.89099
-1.01276
-0.860053
-0.763743
-0.863241
-0.766327
-0.910128
-0.906734
-0.912099
-0.908254
-0.915987
-0.911375
-0.91933
-0.917294
-0.86922
-0.774963
-0.914696
-1.0223
-1.01797
-1.01325
-1.0089
-1.0028
-0.986876
-0.968395
-0.96786
-0.993463
-0.97518
-0.972496
-0.997985
-0.979857
-0.972671
-0.968045
-0.987914
-0.987081
-0.968349
-0.970579
-0.970762
-0.975765
-0.980141
-0.976844
-1.00246
-0.98406
-0.98092
-1.00639
-0.987488
-0.984032
-1.00685
-1.02247
-0.919976
-1.10952
-0.737249
-1.16196
-0.987655
-0.971133
-1.13786
-0.783516
-1.15231
-1.06498
-1.03551
-0.977093
-1.33964
-0.968128
-0.959006
-0.900219
-1.06864
-1.0788
-0.848084
-0.959544
-1.0689
-1.07797
-0.987946
-0.967251
-1.33181
-0.981329
-1.03849
-1.04456
-1.04718
-1.03901
-0.977193
-1.06855
-0.943633
-0.939357
-1.09285
-0.743629
-0.727899
-0.796579
-1.13864
-0.781597
-0.770461
-0.783838
-1.14537
-0.782544
-0.773939
-0.77701
-1.14038
-0.798217
-0.866444
-1.43404
-1.05756
-0.991771
-0.864467
-0.858656
-1.15001
-0.974844
-0.993365
-0.984474
-0.980803
-0.976707
-0.972459
-0.967899
-0.968304
-0.987718
-1.0027
-0.883901
-1.09536
-1.09762
-0.887891
-1.09917
-1.1012
-1.17796
-1.1779
-1.1836
-1.18194
-0.742451
-1.10033
-0.765911
-1.10026
-0.73926
-1.09721
-0.763413
-1.09579
-0.871724
-0.835795
-1.00301
-0.885673
-1.00448
-1.13234
-0.911166
-1.10424
-0.922361
-1.10902
-1.10801
-0.915343
-1.10705
-0.929029
-1.1133
-0.920051
-1.11189
-0.931329
-1.12407
-1.12507
-0.928003
-1.10323
-0.923665
-1.09921
-1.10154
-0.929314
-1.12357
-1.1244
-1.09812
-0.923201
-0.974024
-0.92762
-0.920367
-0.916238
-0.912218
-0.908604
-0.905492
-0.85765
-0.85988
-0.906606
-0.904219
-0.910177
-0.906663
-1.10319
-1.1061
-0.896299
-1.10777
-1.11264
-1.19184
-1.18677
-1.20164
-1.19306
-0.752784
-1.094
-0.77351
-1.1163
-0.7469
-1.10175
-0.769353
-1.1073
-0.878231
-0.841383
-1.00791
-0.895691
-1.01801
-1.13289
-0.919396
-1.10525
-0.9277
-1.1326
-1.11914
-0.929284
-1.10586
-0.916581
-1.08964
-1.174
-0.925696
-1.11865
-1.03696
-0.948301
-0.88201
-0.949023
-0.978227
-0.826882
-0.862165
-1.12922
-1.06819
-0.775024
-0.893883
-0.895741
-0.895176
-0.892765
-0.890141
-0.888214
-0.888199
-0.863001
-0.872338
-1.00952
-0.876366
-0.667621
-0.803907
-0.915424
-0.835496
-1.20679
-0.7418
-0.864873
-1.1078
-0.972085
-0.872535
-0.920105
-1.10878
-0.896272
-1.0681
-0.90609
-1.09663
-0.911576
-1.09173
-1.08978
-0.903187
-1.09723
-0.887459
-1.09919
-0.963871
-0.949583
-1.09836
-0.945328
-1.1001
-0.955723
-0.954738
-0.941003
-0.94317
-0.904437
-0.980051
-0.956053
-0.901172
-0.954669
-0.80036
-0.981114
-0.867554
-1.11116
-0.910456
-1.10082
-0.91001
-1.09284
-1.0938
-0.906734
-1.09691
-0.917303
-1.0966
-0.906522
-1.09971
-0.921105
-1.10179
-1.10146
-0.908076
-1.10421
-0.957903
-0.953809
-1.10056
-0.950545
-0.949556
-0.94976
-0.952971
-1.10221
-0.945162
-1.1285
-0.947575
-0.934964
-0.978297
-0.965963
-0.959159
-0.939801
-1.12554
-0.969062
-0.834996
-0.999725
-0.882711
-1.12906
-0.908265
-1.10104
-0.918385
-1.1027
-1.10351
-0.91117
-1.10332
-0.925368
-1.10715
-0.914158
-1.10826
-0.928925
-1.11362
-1.11424
-0.918713
-1.11184
-0.919257
-1.00631
-1.00205
-0.983921
-0.976995
-0.972728
-0.96814
-0.968544
-0.968375
-0.986832
-0.993357
-1.00868
-0.905756
-0.90893
-0.912578
-1.01718
-1.00226
-0.99782
-0.979776
-0.975132
-0.994567
-0.98804
-0.912116
-1.09924
-0.905884
-1.09837
-1.09105
-0.904899
-1.09757
-1.09811
-1.09054
-1.09075
-0.90685
-1.09761
-1.09982
-1.09398
-1.10177
-0.908491
-1.09816
-1.07212
-1.06887
-1.06978
-1.07124
-0.908418
-1.10075
-1.09884
-0.912111
-1.09027
-0.906809
-1.09922
-1.098
-0.917698
-1.09633
-0.908357
-1.10204
-1.10057
-1.10047
-1.10095
-0.906701
-1.09712
-1.0968
-0.917692
-1.09661
-0.908366
-1.10024
-1.10266
-1.09918
-0.915309
-1.09926
-1.12768
-0.906832
-1.09296
-0.910585
-1.10098
-1.12611
-0.910157
-1.08
-1.06974
-1.12749
-0.919894
-1.10977
-0.896777
-1.11923
-0.918574
-1.11782
-0.896736
-1.11107
-0.919818
-1.12612
-1.0706
-1.07898
-0.894022
-0.94626
-0.938026
-0.942619
-0.721712
-0.976598
-0.928347
-0.950896
-0.952507
-0.717857
-0.93999
-0.907938
-0.926726
-0.977741
-0.721576
-1.34599
-0.991251
-0.965812
-0.83224
-1.10598
-0.938741
-0.910155
-0.911742
-0.937112
-0.87515
-0.970235
-1.10773
-0.813809
-0.991125
-1.3456
-0.966426
-1.37458
-0.986697
-0.906228
-0.905054
-0.905501
-0.909091
-0.998922
-0.921794
-1.10184
-0.909843
-1.10426
-1.10499
-1.10375
-1.10715
-0.911355
-1.10186
-1.10358
-0.919077
-1.10123
-1.13162
-0.908139
-1.09796
-1.12927
-0.883316
-1.00044
-1.00153
-0.836881
-1.00378
-1.00545
-0.840425
-1.00722
-1.01111
-0.84245
-1.00887
-1.01896
-0.843249
-0.995921
-0.957376
-0.98254
-0.953915
-0.980242
-0.949628
-0.976123
-0.945514
-0.9725
-0.942095
-0.96972
-0.835666
-0.994493
-1.12748
-0.880552
-1.00149
-0.979192
-0.821382
-0.966378
-0.940111
-0.935013
-0.981478
-0.868145
-1.15707
-0.925278
-1.10883
-0.894116
-0.94622
-0.946299
-0.956286
-0.742522
-0.866474
-1.20632
-0.667764
-0.916272
-0.800531
-0.954371
-0.901253
-0.80428
-0.835772
-0.971527
-0.874012
-1.10775
-0.904505
-0.942348
-0.938104
-0.951636
-0.95781
-0.953277
-0.953534
-0.956226
-0.911068
-1.10446
-1.13725
-1.13268
-1.10304
-0.961598
-0.95761
-0.954459
-0.948955
-0.947017
-0.946841
-0.949267
-0.966081
-0.923103
-1.10798
-0.915527
-1.10727
-1.11299
-1.10695
-1.14655
-0.91495
-1.10946
-1.13555
-0.890733
-0.742459
-0.97279
-0.960032
-0.96792
-0.981568
-1.11306
-1.19234
-1.18683
-0.774025
-0.870455
-0.866911
-0.7698
-0.914071
-0.909888
-1.10833
-0.917793
-0.91355
-1.11305
-0.901448
-1.02161
-0.916607
-0.920691
-1.02321
-1.00746
-1.00634
-0.987578
-0.983986
-1.0032
-0.981092
-0.984102
-0.981036
-0.976995
-0.999036
-0.998021
-0.993601
-0.975099
-0.994178
-1.00858
-1.01261
-0.891619
-0.968368
-0.964245
-0.950529
-0.952387
-0.95794
-0.946983
-0.945699
-0.938059
-0.950195
-0.899501
-0.96151
-0.958152
-0.955916
-0.962207
-0.964736
-0.970108
-0.972331
-0.969825
-0.982935
-0.974331
-1.11207
-1.11918
-0.905552
-1.1171
-0.993699
-0.97864
-0.978766
-0.983647
-0.886877
-0.948377
-1.21026
-1.24673
-0.74396
-0.994129
-1.35936
-1.01606
-0.847369
-1.0011
-1.01217
-0.863831
-0.865483
-1.44674
-1.03605
-1.00377
-1.27743
-1.10178
-1.10319
-1.04383
-1.0643
-0.786923
-1.15429
-0.972655
-0.991639
-0.984118
-1.00733
-1.00347
-1.00239
-0.916284
-0.914046
-0.909679
-0.917708
-0.913266
-0.870179
-0.866642
-0.863011
-1.13668
-1.13514
-0.915012
-1.10678
-0.926236
-1.11812
-1.11225
-0.920807
-1.10944
-0.930992
-1.11281
-0.920537
-0.916329
-1.00275
-1.01696
-1.02136
-0.901901
-1.0064
-0.987492
-0.983907
-0.979717
-0.998498
-0.908557
-0.90503
-0.904662
-1.10019
-0.946324
-1.09078
-0.939002
-1.07249
-1.12047
-0.907693
-0.939656
-0.953836
-0.711232
-0.944645
-0.944113
-0.950966
-0.956025
-1.0999
-0.95442
-0.94168
-1.00061
-0.971785
-0.95462
-0.945026
-1.13108
-0.975357
-0.83942
-1.00631
-0.889947
-1.01011
-0.949081
-0.979448
-0.961741
-0.957312
-0.959934
-1.10256
-0.955412
-1.10096
-0.952045
-0.964364
-1.10693
-0.95959
-1.10704
-0.956783
-0.969235
-1.11261
-0.953391
-1.14595
-0.981798
-0.842217
-0.99502
-0.901359
-1.16345
-0.956985
-0.968011
-0.978313
-0.970121
-0.94606
-0.889562
-0.935132
-0.917047
-0.970077
-0.97407
-1.11834
-0.964065
-0.976411
-0.970071
-0.957603
-0.935746
-0.966543
-0.966647
-0.963364
-1.11395
-1.1093
-0.958439
-0.953241
-0.966374
-0.979382
-0.973882
-0.963961
-0.935831
-0.966084
-0.965619
-0.96182
-1.10845
-0.975989
-0.971271
-0.967165
-0.890107
-0.888114
-0.88793
-0.851247
-0.879864
-0.893731
-0.897807
-0.903039
-0.981206
-0.975928
-0.977486
-0.977034
-0.929127
-0.724449
-0.810634
-0.915026
-0.970081
-0.979378
-0.974486
-0.962446
-0.954464
-0.949128
-0.946407
-0.946509
-0.951243
-0.949925
-0.938116
-0.941159
-0.941186
-0.907796
-1.10599
-0.904093
-0.956665
-0.946019
-0.957417
-0.954856
-0.910611
-1.09244
-1.09455
-0.905837
-0.988039
-0.968357
-0.924609
-0.986961
-1.00286
-0.859016
-0.909515
-1.33838
-1.18661
-0.735002
-0.857982
-1.0088
-0.994561
-0.975088
-0.993431
-0.997745
-0.979704
-0.998912
-0.909017
-0.912694
-0.912846
-0.916875
-1.00726
-0.929463
-1.1097
-0.914261
-1.10825
-1.11493
-0.920098
-1.11095
-1.11354
-1.11272
-1.11484
-0.920888
-1.1092
-1.11888
-1.11199
-0.927004
-1.11866
-1.1333
-0.896534
-0.746962
-0.970941
-0.960643
-0.966875
-0.976987
-0.978661
-0.949081
-0.94594
-0.889606
-0.968825
-0.93518
-0.91672
-0.971024
-0.975601
-0.96117
-0.953971
-0.966254
-0.962527
-1.10772
-1.107
-1.10801
-1.10711
-0.916166
-1.11078
-1.10885
-0.929597
-1.1136
-0.92235
-1.1145
-1.11263
-0.931844
-1.12321
-1.12795
-1.12526
-0.92994
-1.02456
-1.00952
-0.984732
-0.987142
-0.987891
-0.991552
-0.923156
-0.916417
-1.11563
-0.794927
-0.730868
-1.1525
-1.06355
-1.06563
-0.97749
-1.04011
-1.04763
-1.06294
-0.77421
-1.14261
-0.949678
-1.14412
-1.15008
-1.1443
-1.14379
-1.11483
-0.889222
-1.04456
-1.33242
-0.752757
-0.985333
-1.11589
-1.03838
-1.1023
-1.02623
-0.992094
-1.29358
-1.08461
-0.801985
-0.868475
-1.44016
-0.860932
-1.14869
-0.799031
-1.15035
-0.951196
-0.994926
-0.988486
-1.00749
-1.00771
-1.02298
-1.00845
-1.00682
-1.00845
-0.989216
-0.987684
-1.00746
-1.00322
-1.01719
-0.916877
-0.921529
-0.921
-1.0088
-0.927809
-0.874323
-0.775477
-1.19708
-0.768218
-0.98307
-1.09821
-0.932354
-0.977298
-0.98308
-1.11463
-0.791452
-0.727476
-1.15446
-0.972592
-0.951255
-1.14372
-0.770246
-1.14463
-1.06342
-1.06377
-1.06757
-0.945295
-1.0442
-1.33159
-0.985185
-1.03865
-1.04401
-1.04535
-1.04912
-1.06333
-0.778974
-1.14461
-1.08076
-1.04591
-1.07903
-1.064
-0.775224
-1.14667
-0.95279
-1.15037
-1.14984
-1.02195
-0.927721
-0.928255
-1.02215
-1.01751
-0.880591
-0.930069
-0.928546
-0.974257
-1.01714
-1.02131
-1.02338
-0.939681
-1.18939
-0.956052
-0.958653
-0.968667
-0.961334
-0.956146
-0.953208
-0.952841
-0.958068
-1.09949
-1.09774
-0.915396
-0.860454
-1.01282
-0.91907
-1.10259
-1.10418
-0.911557
-1.10621
-1.1044
-1.10152
-0.92179
-1.10229
-0.958419
-0.945509
-0.945586
-0.953769
-0.953916
-0.949103
-0.958312
-0.948058
-0.953249
-0.961123
-0.96926
-1.12559
-1.12205
-1.12603
-0.969457
-0.966261
-0.962565
-0.925777
-0.965969
-1.10957
-1.1083
-0.923009
-0.867868
-0.863625
-1.02188
-0.927162
-1.11524
-1.11649
-0.970231
-0.953984
-0.949419
-0.945422
-0.942125
-0.94001
-0.934715
-0.901031
-0.954506
-0.966674
-0.970396
-0.972642
-0.961878
-0.976861
-0.981012
-0.986634
-0.97469
-0.972592
-0.92016
-0.969095
-0.973232
-0.973178
-0.966934
-0.956258
-0.935157
-0.968399
-0.967284
-0.956107
-0.938498
-0.966568
-0.968377
-0.934216
-0.964215
-0.872662
-0.931323
-1.11833
-0.928357
-0.988519
-0.973481
-1.14856
-1.08155
-1.08449
-1.11565
-1.02592
-1.10194
-1.10319
-1.10171
-1.08188
-1.04327
-1.0988
-1.29224
-1.10013
-1.10427
-1.18352
-1.15424
-1.29883
-1.30001
-1.27983
-1.29605
-1.294
-0.951324
-0.954999
-0.988561
-1.15623
-0.816292
-0.951261
-0.984582
-0.925775
-0.917049
-1.1338
-0.912286
-1.10482
-0.892742
-0.867638
-0.88814
-0.858196
-0.88034
-0.875789
-1.12715
-1.0963
-1.09841
-0.950587
-1.29408
-1.11918
-0.96668
-0.739199
-0.886373
-0.706753
-1.11102
-0.735566
-0.736458
-0.737112
-0.871164
-0.832051
-0.902983
-0.896747
-0.955889
-0.94785
-0.752874
-0.915064
-1.10807
-0.760887
-1.02367
-0.749842
-1.07359
-0.908469
-0.919289
-0.869523
-0.845632
-0.713775
-0.915016
-0.916183
-0.907679
-0.766835
-0.902427
-1.11197
-0.913391
0.954847
0.944076
0.955856
0.949401
0.945595
0.946057
0.949195
0.95475
0.962792
0.974802
0.966426
0.964401
0.719737
1.01383
1.14828
0.901037
1.00156
0.949468
1.18762
0.887726
1.13699
1.00047
0.838148
1.02244
1.01161
0.848551
1.0161
1.01013
0.845462
1.01065
1.00611
0.837714
1.00648
1.00126
0.83585
0.99994
1
0.832252
0.991926
1.00156
0.820548
0.975303
0.981644
0.799246
0.913681
0.666571
1.2041
0.742501
0.866231
0.975602
0.72256
0.926468
0.953585
0.719774
0.946424
0.944642
0.725135
0.956982
0.917261
0.718922
0.947129
1.13748
0.788936
1.05723
0.9965
0.918145
0.922561
1.0933
0.914003
0.918826
0.91853
1.10233
0.920341
0.917287
0.902325
1.10367
0.937724
0.918411
0.870716
1.10593
0.968308
0.923874
0.833861
0.801596
0.703891
0.874458
1.03083
1.07189
1.08216
1.08947
1.08851
1.09183
1.09353
1.09501
1.09897
1.10084
1.10379
1.10629
1.10967
1.11044
1.11392
1.10927
1.09528
1.04397
0.858873
0.975919
0.994635
1.02548
0.953695
0.719944
1.29009
0.996831
1.05568
0.992937
1.03087
1.15428
1.18214
1.09993
1.04871
1.05293
1.04928
1.09982
1.2903
1.05562
0.844095
0.854064
0.953767
0.866507
0.844532
1.00947
1.30073
1.03078
1.37149
0.992806
1.15427
0.975735
0.994695
1.04587
1.21819
1.18983
0.895548
1.16079
0.886396
1.11809
1.02607
0.719326
0.95276
0.983106
1.14512
1.10352
1.12552
1.11281
1.11487
1.10933
1.1085
1.10398
1.10456
1.09779
1.10258
1.0915
1.10049
1.08663
1.08338
0.936171
1.35753
0.951455
0.933177
1.07164
1.09317
0.915499
1.09603
1.095
0.920894
1.10118
1.09898
0.923716
1.10569
1.10305
0.92688
1.11074
1.10776
0.930234
1.11596
1.11242
0.932245
1.12503
1.1007
0.923954
1.15505
0.937976
1.14549
0.98222
0.708714
0.988788
0.942419
1.14794
0.95875
0.718475
1.01771
0.900779
1.16416
1.10041
1.1267
1.11967
1.11282
1.12033
1.10222
1.118
1.10146
1.0985
1.10269
1.09218
1.10204
1.07985
1.0922
0.942792
1.362
0.979007
0.92504
1.03419
1.18743
0.885002
1.17268
1.17147
0.888387
1.17475
1.17558
0.89123
1.19424
1.07631
0.925027
1.13218
1.09655
0.928546
1.12536
1.11029
0.930546
1.12862
1.1084
0.919883
1.13994
1.00384
1.14824
0.897945
0.731791
1.22383
0.847829
1.18587
1.14054
0.888275
1.0053
0.930085
0.811571
0.675293
0.861029
0.725008
1.04538
1.09921
0.754139
1.19105
1.10208
0.89469
1.21755
1.16158
0.88599
1.11788
1.04713
0.782241
0.93925
1.37221
0.992602
1.15417
1.03093
1.30079
1.00979
0.844898
0.954005
0.866499
0.802164
1.15356
0.85403
0.864703
0.797412
0.794575
1.15033
0.859563
0.859026
0.793779
0.797581
1.15026
0.865229
0.853639
0.800794
0.866819
1.15329
0.953774
0.844284
1.03093
1.00942
1.30126
1.03099
1.15419
0.991824
1.05599
1.28772
1.00027
1.02607
1.27604
1.02536
1.00102
1.28732
1.0556
0.844418
1.09392
1.18143
1.09989
1.43452
1.02184
0.945473
0.984422
0.94033
1.15611
1.10136
1.10119
1.10444
0.923824
1.15658
1.14443
0.985318
1.14604
0.939022
0.949643
1.02393
1.44743
1.10363
1.09995
1.43412
1.02183
0.945406
0.884668
1.04739
1.21782
1.19039
0.754058
1.09617
0.782731
1.04362
0.725351
0.993546
1.11797
1.02962
0.948404
0.986207
0.985139
1.14595
0.949343
1.02861
0.993853
0.974843
0.864041
0.886425
0.838436
0.808647
0.972876
0.914035
0.967561
0.972159
0.981733
0.988593
0.847442
0.996217
1.02277
1.14781
1.15582
1.13154
1.16623
0.88957
1.03213
1.01292
0.897255
0.751288
1.1096
1.1183
0.74442
1.18644
1.11266
0.897552
1.18877
1.11318
1.11734
0.901456
1.19456
0.77518
0.873257
0.880474
0.932454
0.78141
1.11413
0.882703
1.10484
0.911946
0.90803
0.879409
0.845406
0.988636
0.960211
0.956117
0.971002
0.971199
0.966324
0.932025
0.937967
0.972608
0.950021
1.14518
1.1563
1.10045
0.924338
1.10287
0.932271
1.12561
1.12588
1.11431
0.932779
1.11089
0.923031
1.11829
1.11417
1.11178
0.930988
1.10455
0.91635
1.11416
1.10751
1.10641
0.927746
1.10074
0.909347
1.10715
1.10426
1.09891
0.923968
1.09819
0.901949
1.1008
1.10241
1.09159
0.920532
1.09402
0.897273
1.0952
1.10054
1.08639
0.915227
1.09307
0.892796
1.07054
1.08118
0.945512
0.933333
0.950243
0.771458
0.802888
0.774369
0.803886