/*--------------------------------*- C++ -*----------------------------------*\
| =========                 |                                                 |
| \\      /  F ield         | OpenFOAM: The Open Source CFD Toolbox           |
|  \\    /   O peration     | Version:  2306                                  |
|   \\  /    A nd           | Website:  www.openfoam.com                      |
|    \\/     M anipulation  |                                                 |
\*---------------------------------------------------------------------------*/
FoamFile
{
    version     2.0;
    format      ascii;
    arch        "LSB;label=32;scalar=64";
    class       volScalarField;
    location    "0.9";
    object      gradTy;
}
// * * * * * * * * * * * * * * * * * * * * * * * * * * * * * * * * * * * * * //

dimensions      [0 -1 0 1 0 0 0];

internalField   nonuniform List<scalar> 
5322
(
0.647739
0.0613509
-0.00366436
-0.0261272
-0.0140289
-0.00446237
0.000516391
0.00525256
0.014119
0.0252079
0.000363322
-0.185334
-0.205916
-0.18484
-0.160478
0.347361
0.464606
-0.000748643
0.320966
-0.38084
0.362469
-0.368744
0.362112
-0.37131
0.370551
-0.36437
0.364626
-0.373262
0.372949
-0.36952
0.372597
-0.373831
0.386879
-0.333452
0.320454
-0.160794
0.316126
0.39646
0.198103
0.214735
0.292611
0.244434
0.253284
0.27314
0.260415
0.258153
0.264567
0.28265
0.262212
0.250124
0.313844
0.151592
0.169925
-0.559015
-0.0304062
-0.323395
0.170217
-0.424032
-0.0240229
-0.368529
0.172834
-0.416992
-0.0214463
-0.365794
0.173532
-0.431545
-0.0276664
-0.353798
0.175172
-0.47494
0.0166464
0.415957
0.231668
0.323678
0.241752
0.306212
0.255496
0.304875
0.258882
0.358284
0.0324721
0.120965
0.182654
0.303656
-0.0256791
-0.126399
0.0362077
0.0711314
0.13235
0.015312
0.0346717
0.00640119
0.0010051
0.00117556
0.43996
-0.235342
0.00710424
0.237289
0.00646278
-0.00635018
0.032639
0.00637222
0.251305
-0.428919
0.38385
0.00526281
-0.00736981
-0.00136157
-0.000213327
0.00042293
0.000476628
0.000574555
0.00128452
0.00256103
-0.00432964
0.00113902
0.132102
-0.054324
-0.0186784
-0.101944
0.125385
-0.0697637
-0.135956
-0.185983
-0.210165
-0.00846903
0.154047
-0.116242
0.0108931
0.126954
-0.12645
0.00532706
0.131975
-0.13532
-0.00427416
0.123254
-0.14785
-0.0117698
-0.0341327
0.22636
0.187527
-0.12292
0.0815001
0.06335
-0.129588
0.0139771
-0.126962
0.0995906
0.102353
-0.112859
-0.00170513
-0.105307
0.105698
0.114099
-0.102498
-0.000344072
-0.0979645
0.12437
-0.00810727
-0.00612798
0.390893
-0.306356
0.338913
-0.360159
0.0121785
-0.232209
-0.00494634
-0.00206409
-0.0434239
0.112124
-0.224345
0.223209
-0.374785
0.000855586
0.382804
-0.37837
0.393929
-0.402864
0.00167642
0.396888
-0.407001
0.422135
-0.421331
0.00156894
0.411979
-0.415372
0.428765
-0.427657
0.000968148
0.417706
-0.419506
0.432172
-0.431169
0.000822234
0.421279
-0.423544
0.436222
-0.433873
0.00107325
0.42402
-0.428242
0.441261
-0.435055
0.00141709
0.424562
-0.431791
0.444806
-0.428467
0.00182642
0.416199
-0.429737
0.433325
-0.235326
-0.00106967
-0.0175528
0.00735435
-0.00702022
-0.00042899
0.00274547
0.00365374
2.19468e-05
0.440905
-0.234253
0.00196225
0.279311
-0.0380626
-0.0113304
0.0093748
-0.0137977
0.236573
-0.43418
0.00252523
0.0019348
0.00543506
0.00350386
0.00186277
0.000834061
5.92938e-05
-0.0011282
-0.00284249
0.00422536
-0.00152127
-0.10634
-0.113267
-0.113318
-0.106586
0.0217852
0.0375164
0.0236466
-0.143187
0.075083
-0.151821
0.0376039
0.0218286
0.023694
-0.150041
0.052241
0.143559
0.0926682
-0.143129
0.0752387
0.155841
0.217605
0.229847
-0.376589
-0.375736
-0.404384
0.293523
-0.364367
0.334724
-0.358787
0.347534
-0.358464
0.353013
-0.361502
0.355373
-0.368382
0.355545
-0.37901
0.353759
-0.389515
0.348282
-0.0763876
0.166372
-0.0522281
-0.00873614
0.301529
-0.358698
0.00380801
0.32078
-0.357978
0.00185822
0.329744
-0.349916
0.000958795
0.333038
-0.342817
0.000363871
0.331759
-0.339151
-0.000624294
0.324992
-0.338926
-0.0023872
0.307567
-0.344017
0.00813549
0.257199
-0.0237499
0.256974
-0.344572
0.00815062
0.295057
-0.402057
0.16134
0.26674
0.199355
0.186604
-0.354691
0.232817
-0.33144
0.293441
-0.325442
0.312355
-0.325471
0.319279
-0.329294
0.32117
-0.33769
0.320326
-0.347752
0.316611
-0.346334
0.303559
-0.0497443
0.120505
-0.136745
-0.00220373
0.416197
-0.507394
0.00908186
0.454692
-0.493132
0.00466188
0.460622
-0.473242
0.00192901
0.458618
-0.462316
0.000609519
0.456634
-0.457982
-0.00072668
0.45432
-0.456579
-0.0017568
0.445606
-0.459629
0.0103376
0.395584
-0.457122
0.160381
0.37258
0.331081
-0.166229
0.315784
-0.0749499
0.0594569
0.378314
-0.327423
0.305637
-0.287944
0.461238
-0.406087
-0.00321186
-0.454164
0.387396
-0.396103
0.0116344
0.417028
0.0186201
0.008067
-0.11799
0.0115701
-0.00947343
0.0061918
-0.00226155
-0.000806843
0.381277
-0.382018
0.382492
-0.397896
6.7254e-05
0.4109
-0.414
0.419344
-0.419877
0.000299133
0.423881
-0.423111
0.428669
-0.425175
0.00035933
0.434189
-0.424864
0.43767
-0.416412
-0.000674956
0.000572291
0.000945707
0.00314254
0.00176232
0.00115561
0.438104
-0.42425
0.0022371
0.501753
-0.497046
0.445231
-0.412209
0.00431835
0.500742
-0.477332
0.304268
-0.212133
-0.340174
-0.0231989
-0.00509682
-0.12294
-0.0316278
0.00939998
0.224932
0.29319
0.0232838
-0.475758
0.360629
0.00350575
-0.401214
0.365971
-0.000873943
-0.375687
0.369014
9.48274e-05
-0.361391
0.366342
-0.00263581
-0.359911
0.379465
-0.00652897
-0.342375
0.386663
-0.0243206
-0.304976
0.0989185
0.148761
-0.183587
0.00151133
0.300014
-0.255667
0.300022
-0.293656
0.298603
-0.295926
0.481496
-0.422048
-0.000998493
-0.481916
0.419964
-0.418131
-0.0025091
0.475779
-4.86818e-06
-0.00110205
-0.00071593
-0.0274979
0.00600117
0.038301
0.0416587
0.0169571
0.00732263
0.0240311
0.0170033
-0.0218825
0.354371
0.113601
0.0246948
0.0848258
0.018059
0.00534959
0.00373529
0.00133717
0.000800009
0.000913627
0.000826233
-0.270424
0.000211956
0.276309
-0.273788
0.298853
-0.297848
0.303046
-0.299744
0.492826
-0.425965
0.000789869
-0.487975
0.430485
-0.424498
-5.94758e-05
0.486177
0.000974274
0.000923742
-0.000158713
-0.00274267
-0.0018211
0.0039383
0.00285734
0.000189811
0.0128165
0.00919059
0.281501
0.00131394
-0.0129181
-0.000924921
-0.0191028
0.00228997
0.186501
0.356093
0.654531
0.0685258
-0.00992425
-0.00450733
-0.0176686
-0.362062
0.00152197
0.337239
0.30694
-0.339097
-0.00236673
-0.357469
0.00253947
0.349702
0.324461
-0.338977
-0.000586802
-0.358453
0.00215574
0.353999
0.331749
-0.342504
0.000425592
-0.362898
0.00597518
0.354488
0.334089
-0.34983
0.00108369
-0.371713
0.0171764
0.350495
0.333267
-0.359373
0.00207071
-0.383717
0.0423204
0.339125
0.32971
-0.365165
0.00413701
-0.389478
0.0952504
0.319134
0.319111
-0.0611207
-0.0084814
-0.0708314
0.844089
-0.377985
-0.386073
0.623789
0.16224
0.0671068
-0.579835
-0.119893
-0.0702374
0.29682
-0.309888
-0.00541951
0.00660849
-0.0391775
-0.047053
-0.00497788
0.0124934
0.0072361
0.00275229
-0.00399351
0.00157209
0.00280891
0.000827755
0.000112724
-0.000704403
-0.0024697
-0.00475982
-0.0165218
-0.00884799
0.230458
-0.230551
0.00277348
0.001489
-0.234176
0.230736
-0.00054508
0.000959769
-0.00104283
-0.0174778
-0.0110749
0.0418413
0.00453243
0.0481488
-0.0170773
-0.020941
2.2014e-05
0.0771315
-0.0896622
0.0900242
-0.0768418
-0.0777894
-0.066497
0.00248166
0.0892726
0.0803342
-0.0801882
-0.00239032
-0.0899468
-3.15518e-06
1.55666e-05
0.00570884
0.0161689
0.0144713
-0.0321736
0.00058133
8.50594e-05
0.000845293
0.00261609
0.00655979
0.00282537
0.0235786
-0.0191778
-0.00244535
0.0130598
0.293022
-0.268255
0.309544
-0.30579
0.31448
-0.00766895
-0.279085
0.00774678
0.311536
-0.0012621
-0.0139102
0.00284168
0.00196432
0.00390459
0.00462037
-0.00334335
-0.0467935
0.160384
-0.0716853
-0.306624
-0.0390648
-0.037405
-0.606787
-0.16739
0.0213588
-0.245079
0.181084
0.00834469
0.0101975
0.219192
0.18386
0.0257118
-0.0205753
0.243743
0.219056
0.0277086
-0.0247887
0.22119
0.249802
0.0258279
-0.0570995
0.183498
0.255036
-0.0884321
0.133354
-0.116242
0.124252
-0.490512
-0.26637
0.0480076
-0.121067
0.262857
-0.0158651
-0.43076
0.227808
-0.00453831
-0.270485
-0.267438
-0.388686
0.162681
-0.213476
-0.136869
0.237088
-0.489921
-0.0553548
0.343843
-0.42178
-0.0112208
0.366285
-0.384205
0.000470658
0.367323
-0.368631
0.00157514
0.364052
-0.363487
0.0018005
0.362466
-0.361437
0.00536897
0.363308
-0.358252
0.0220539
0.373975
-0.3205
0.0901072
0.310794
-0.173465
0.329612
0.372289
-0.461767
0.394294
-0.463965
0.0107527
0.232065
-0.354863
0.160201
0.185703
0.201037
0.266715
0.229388
0.161222
0.310635
0.185013
-0.00166906
-0.0272565
-0.0155602
-0.00993084
-0.00632609
-0.0119716
-0.00651954
0.00135844
0.00578296
0.27859
-0.270728
-0.000111668
0.000369005
-8.25486e-05
4.38177e-05
-0.484184
0.424815
0.000208743
0.425112
-0.428043
0.000460999
0.42943
-0.431798
0.00109822
0.433017
-0.436066
0.00195709
0.434624
-0.43824
0.00249478
0.425984
0.00274806
0.00531398
0.000809105
-5.5496e-06
-0.00124683
-5.19853e-05
0.000377781
0.000409596
0.000356504
0.000231634
0.000176253
0.000224987
0.00218624
0.00620306
-0.224478
0.00334369
0.0111172
-0.000586526
0.000386034
0.000586471
0.0003713
-5.5923e-05
-0.000787235
-0.00194783
-0.00283631
0.0103948
-0.00295071
-0.00780815
-0.0102226
0.203976
-0.217711
0.275453
0.000395826
-0.0371141
0.0310062
0.102171
0.000575517
-0.09082
0.0854778
0.0876314
0.000321978
-0.0971433
0.0911783
0.0782665
1.75022e-05
-0.12203
0.11607
0.108507
-0.00207025
0.135641
-0.142821
0.139266
-0.150012
-0.013855
-0.0826519
0.120019
-0.00988644
-0.114156
-0.00242908
-0.000760649
0.409455
-0.00142093
-0.411861
0.238674
-0.00830917
-0.246826
0.247284
-0.00537532
-0.259177
0.414844
-0.00390466
-0.414664
0.405955
-0.404054
0.401761
-0.411483
0.000956544
-0.410947
0.405495
-0.000818735
-0.246978
-0.00904892
0.249142
-0.211932
0.00193126
0.372985
0.133132
0.392028
0.143372
-0.20173
0.308005
0.0286416
-0.268703
0.289824
0.00609063
-0.279619
0.282234
0.00157817
-0.278032
0.28028
0.000418634
-0.279505
0.276964
-0.00113369
-0.278485
0.276461
-0.00652034
-0.284015
0.26207
-0.0299338
-0.300203
0.196143
-0.142638
-0.380414
-0.115168
-0.356149
0.232784
0.0217941
0.0116363
0.148747
0.0348133
-0.229038
-0.188729
-0.0524717
-0.146002
-0.0946513
-0.0739325
-0.161713
-0.0807871
-0.0858405
-0.160632
-0.235228
-0.243758
-0.161014
0.400131
0.0220801
-0.235579
-0.00834895
0.323177
0.380243
-0.00422537
-0.280675
0.00174207
0.314018
0.465841
0.00439868
-0.459578
0.000381858
0.464738
0.00105761
-0.463035
0.00133102
0.464972
0.000577617
-0.466337
-0.000896459
0.465619
0.000459067
-0.470127
-7.38751e-05
0.465901
-0.00103335
-0.475386
-0.00400705
0.460484
-0.00683755
-0.482945
-0.0168625
0.00229111
-0.296783
0.482181
0.0030259
0.309003
0.000117405
-0.299909
0.490513
-0.000167998
0.303172
0.000174077
-0.300689
0.490885
-0.000134714
0.30103
-0.000151529
-0.299089
0.489602
9.13214e-05
0.298652
0.000534494
-0.298998
0.488161
0.000313695
0.297895
0.000181991
-0.298472
0.486707
0.000524664
0.294842
0.00055285
-0.301095
0.482611
-0.00132637
0.291194
0.000116456
-0.30723
0.459669
-0.0181418
0.329661
-0.058921
0.075763
-0.374145
-0.329933
0.172142
-0.314726
-0.0922924
-0.0637016
-0.657934
-0.358157
-0.314285
-0.223267
-0.161443
0.358533
0.414711
0.030117
-0.223192
-0.0106421
0.469836
0.0139256
-0.44998
0.00535503
0.00323112
0.0070522
0.018035
-0.30952
-0.0149032
0.150673
-0.0221634
-0.0213658
-0.0406039
0.144073
-0.0476335
0.0196241
0.0172429
0.000453164
0.001299
0.00118549
0.000694932
0.000592923
0.000183218
-0.00233546
-0.00169591
0.411778
-0.47733
0.00182805
-0.00246757
-0.00463206
-0.000338977
-0.391998
-0.000399182
0.399779
-0.418069
-0.000408826
0.418109
-0.424657
-1.77662e-05
-0.0001206
-0.00102422
-0.0004868
-3.60186e-05
0.000738611
0.000674557
0.000589298
0.000380628
0.000248379
0.00015391
0.00116634
0.00181485
0.000711546
0.396692
-0.3998
0.363322
-0.365912
0.367463
-0.367427
0.00207393
-0.191821
0.000111287
0.180909
0.00653275
-0.201982
-0.000684251
0.153471
-0.0156557
-0.0126014
0.0574518
0.00260894
-0.0621655
0.458249
-0.00614879
-0.288164
0.000961368
0.29551
0.384765
-0.00259898
-0.304216
0.000218637
0.308941
0.373694
0.000251668
-0.309252
-0.000242126
0.307474
0.376097
0.002654
-0.313993
-0.000852466
0.302819
-0.318768
-0.00138439
0.286725
-0.327781
0.0126216
-0.00936274
-0.00238319
-0.000897518
-1.78393e-05
0.00026425
0.000529517
0.00139778
0.00290624
-0.0043017
0.00131689
0.106484
0.112165
0.113511
-0.0337652
0.153441
-0.0160511
-0.0166704
0.15761
-0.0298135
0.143729
-0.0463812
0.00566509
-0.0127872
0.0123239
-0.00308046
0.00279194
-0.00225875
-0.377311
0.00994721
0.0111354
0.00237745
0.000137594
-4.01416e-05
-0.0800533
0.0794013
0.00250135
-0.0675258
0.103574
-0.0211061
0.00889711
-0.00357255
-0.00409303
-0.0201021
0.149352
-0.371634
0.0224488
-0.249568
-0.0103105
0.316288
0.388352
-0.00906995
-0.285882
0.00241394
0.374763
-0.00675423
-0.296902
0.00102427
0.311184
0.376697
-0.00155337
-0.306117
0.000247265
0.309868
-0.310356
-0.00035022
0.308075
0.000747366
0.000355095
-7.73055e-07
-0.000287179
-0.00119249
0.0090998
-0.00599883
-0.00026813
0.00245877
3.94106e-05
-0.0022852
-0.0107496
-0.00905708
-0.00247254
-0.00245773
0.00223146
0.00635938
0.00114875
0.00556834
0.0014519
0.00353407
-0.00875761
-0.0123305
-0.0258654
-0.0286316
-0.0607763
-0.051049
-0.0307957
-0.117956
-0.366602
0.0314653
-0.566919
-0.416739
-0.299252
-0.198933
-0.179434
0.0709816
-0.161199
-0.0156164
0.0378781
0.00154322
-0.00612328
0.193525
-0.228633
0.280609
0.00265961
-0.0329186
0.0522087
0.119121
0.00503107
-0.0811007
0.111364
0.111612
0.00547745
-0.0869697
0.11514
0.104449
0.00414453
-0.116299
0.130051
-0.0061925
0.0037287
0.018373
0.0791601
-0.339641
-0.492656
0.00569083
0.460166
0.0131135
0.00963809
0.297382
0.00181892
-0.487932
0.495142
-0.000725768
-0.469251
0.275823
-0.315798
0.281319
-0.031298
-0.295056
0.0158717
-0.329003
0.458416
-0.401561
0.416432
-0.00140437
-0.417428
0.000764529
0.413718
-0.00123858
-0.415377
0.000243048
0.417238
-0.00121962
-0.418982
0.408349
-0.470042
0.0271535
-0.326576
0.44701
0.0208328
0.0108129
-0.123493
0.133934
-0.13822
3.72365e-05
-0.115116
0.105745
0.00751582
-0.131472
0.0936052
-0.106925
0.00492427
0.191914
-0.115536
0.0708306
0.017589
-0.13594
0.106915
-0.00212499
-0.0023156
-7.20863e-05
0.0044894
0.00278192
0.00143264
0.00063032
7.54946e-07
-0.00109654
-0.00277336
0.00425712
-0.00132187
0.0667585
0.076816
0.000141548
-0.0181991
-0.0112513
0.144699
0.0524206
-0.122828
0.06316
0.0816126
-0.128577
0.00419263
-0.148846
-0.0115592
-0.0347172
-0.120241
0.188491
0.229264
0.0119715
0.0420661
-0.0102233
0.00574875
0.100575
-0.10808
-0.00130783
-0.113383
0.113064
0.108076
-0.100531
-0.000690701
-0.137141
-6.68037e-05
0.137095
3.07625e-05
6.98473e-05
-0.00249588
0.00817679
0.00364975
0.0612136
0.653926
0.355731
0.183047
-0.00160988
-0.0243438
-0.0139438
-0.00802372
-0.0108225
-0.0227402
-0.0472717
-0.0515649
-0.104633
-0.11586
-0.246449
-0.415787
-0.370317
-0.373509
0.158594
-0.24857
-0.097023
-0.10518
-0.323766
-0.4253
-0.377732
-0.377315
-0.38236
-0.37611
-0.426505
0.160827
-0.0451376
-0.132613
0.509401
-0.159302
-0.305953
-0.298346
-0.0782861
-0.097095
-0.226292
-0.237722
-0.0617572
-0.0953201
-0.0227366
-0.00710434
-0.000934863
0.00034927
0.000488094
-0.000537239
-0.00415692
-0.00489796
-0.0185418
-0.00772705
-0.00309747
-0.00584077
-0.0038958
-0.00530095
-0.0122818
-0.0306953
-0.0120331
-0.0117891
-0.0137504
-0.00634336
-0.00155159
0.000114185
-7.072e-05
-0.00100051
-0.000955679
-0.00336571
0.29264
0.442091
-0.45849
0.451167
-0.457944
-0.000467733
0.311342
-0.325935
-0.00139503
-0.00276949
0.00141381
0.00502208
-0.331964
0.0152159
-0.151067
0.0931976
-0.0290429
-0.00901758
-0.0107125
0.0138065
-0.1298
0.101959
-0.000764601
-0.000367228
-0.00037547
8.4596e-05
0.0664959
-0.00228583
0.000287061
0.000282929
-0.000191305
-0.0420363
0.000215597
0.0174224
0.010808
0.0142705
-0.0118598
0.0099662
-0.000160909
0.00103389
-0.041921
0.129533
0.128589
-0.0813159
-0.0137124
-0.0643945
0.123566
0.0108488
0.00239565
5.36595e-05
6.67968e-06
-0.00245668
-0.00223874
-0.00230271
-0.000481662
-0.0100213
-0.00087963
-0.00226591
0.000695392
0.00507684
0.00107808
0.00323239
-0.325529
0.318162
0.454659
-0.46064
0.457363
-0.467759
0.00138213
0.319776
-0.328476
0.000459038
5.67467e-05
3.86157e-05
0.000561926
0.00117271
0.00301023
0.00235618
0.00533226
0.00289479
0.00623961
0.00646089
0.0156677
0.0134229
0.0142586
0.00632424
0.0850954
0.00119401
0.00205862
0.000973254
0.000229625
-0.000737597
-0.0026745
-0.00296953
-0.00113683
-0.00106996
-0.000679395
-0.000149761
0.000107474
0.000260567
0.0003912
0.000346167
0.000206203
-0.00100011
0.00135807
0.00128384
3.43184e-05
0.000155677
0.000282191
0.000452119
0.000789966
0.000933441
0.000853565
0.00171382
0.00205209
0.00147028
0.00328262
0.00435401
0.0035847
0.022305
-0.0288411
-0.0409358
-0.00792997
0.0045044
0.00600476
0.00605539
-0.100643
-0.00171203
-0.000981034
-0.00149498
-0.00981544
-0.0038081
0.213614
-0.00279658
-0.284053
-0.00206524
-0.0128556
-0.263074
-0.0114459
-0.0155192
-0.165348
-0.0738068
-0.126834
-0.315214
0.0306359
0.080336
0.00540501
-0.00423719
-0.00356956
-0.00662397
0.00183903
-0.191266
0.271996
0.00191764
-0.059896
0.0264629
0.0941968
0.000451494
-0.117423
0.0745982
0.0756614
-0.000541625
-0.121489
0.079884
0.0666169
-0.00128991
-0.111343
0.0252858
-0.151027
0.0669136
0.105998
-0.146643
0.0442803
0.0217245
-0.00888589
-0.00196872
-0.000691171
0.00017219
0.000336202
0.000494821
0.00129701
0.00240276
0.00301981
0.00285482
0.00423766
0.406426
-0.406746
0.00180244
0.409533
-0.410299
0.368893
-0.36981
0.370984
-0.373311
0.00139573
-0.194175
-0.000901281
0.189219
0.00138431
-0.191291
-0.000144163
0.188039
-0.00109079
-0.000704182
0.0608454
0.00112711
-0.0605647
0.457654
-0.000101978
-0.293536
-0.000126785
0.297066
0.383688
0.00202025
-0.310577
-0.000853609
0.367633
0.00721549
-0.317812
-0.0026016
0.286208
0.363387
0.00642658
-0.393345
0.008919
-0.326921
-0.389511
0.00857326
0.353138
0.293712
-0.321326
0.00981478
-0.00874195
0.00320633
0.00173632
0.00103967
0.000322592
-0.000469739
-0.00148202
-0.000721149
-5.75792e-06
0.00065123
0.000392956
0.00058434
0.00023997
0.411954
-0.414062
0.00175502
0.41445
-0.419208
0.374941
-0.376547
0.382402
-0.37083
-0.0142807
-0.194772
-0.00604268
0.197558
-0.00123857
-0.199609
-0.00257854
0.191042
-0.00248465
0.00223562
0.0686002
0.00490462
-0.0548156
0.458911
0.00212542
-0.291334
-0.00260029
0.299033
0.360702
0.00579018
-0.403708
0.0104558
-0.286682
-0.512016
-0.00204937
0.441381
-0.0297618
0.166951
0.00117771
0.120723
0.0764853
0.0445648
0.0286442
0.225899
-0.14299
-0.0127997
0.00629188
0.000424697
-0.000250147
3.23835e-05
0.000101894
-0.000706435
-0.00485664
0.00161586
0.26726
-0.191719
-0.310273
-0.0708897
0.0589515
-0.152371
0.488439
-0.225172
-0.275125
-0.266257
-0.155722
0.366941
0.405731
0.0211917
-0.251241
-0.00917975
0.376086
-0.00801798
-0.280494
0.0026095
0.314649
0.377378
-0.00457538
-0.298661
0.00082185
0.311177
0.00139983
0.00169053
-0.367517
0.00551999
-0.353623
0.0329289
0.0336813
0.00116038
-0.196685
-0.329349
-0.229819
-0.1624
-0.342486
-0.121149
-0.0615197
0.0359139
0.0102055
0.464318
-0.0071623
-0.280766
0.00196825
0.299032
0.38555
-0.00708733
-0.298017
0.000998852
0.374186
-0.0024466
-0.304799
0.000196272
0.30944
0.37652
0.000441842
-0.377491
-0.000643971
0.00011147
-0.373644
0.00722995
0.007382
0.0190284
0.00546846
-0.346935
0.0156064
-0.280121
0.00117644
-0.0514703
-0.0801024
-0.0215506
0.0221646
-0.00902028
-0.428539
-0.00091972
-0.00294809
0.0606136
0.00116218
0.457159
-0.00221679
-0.291494
0.00026047
0.295236
0.384515
-4.60823e-05
-0.307783
-0.000122577
0.37247
0.00288123
-0.313055
-0.00105955
0.301763
0.373386
0.00619269
-0.38613
0.00117056
-0.000614865
5.28884e-05
0.000298529
0.00033459
0.00024118
0.000151073
7.91319e-05
-0.00114077
-0.00296975
-0.000696469
-0.000781283
-0.000992661
-0.000113413
0.00042375
0.0006619
0.000838681
0.000208353
0.00031181
-0.000180118
-0.000218102
-0.00106055
-0.000535494
0.416091
-1.5711e-05
-0.415934
0.418793
3.86456e-05
-0.423625
0.423837
-0.418279
0.422355
-0.000615857
-0.429581
0.422831
-0.419909
0.415639
-0.00185408
-0.423699
0.404105
-0.402683
0.403065
-0.404283
0.00181143
-0.415939
0.424366
0.000962821
-0.422557
0.000711543
-0.423214
0.430426
0.000578935
-0.429156
0.000257515
-0.426184
0.43259
-0.426499
0.426823
0.000110494
0.424589
-0.423987
-0.00015316
0.42903
-3.25688e-05
-0.43171
0.425887
-0.423857
-0.000927596
-0.484119
0.298306
-0.00042849
0.478366
-0.00228962
-0.480318
0.300631
0.00127068
0.464954
-0.408216
0.391392
-0.00142416
-0.39811
-0.000465357
0.38837
4.2136e-05
-0.388269
0.000871598
0.39842
0.0014515
-0.391488
0.409228
-0.46622
0.00330383
0.00493015
0.00449306
0.0165609
0.0112876
-0.233449
0.240772
-0.237234
0.237182
-7.06751e-05
-0.000699424
-0.000665138
-0.240753
0.233296
-0.0114138
-0.00657709
0.124748
-0.139329
0.000490391
-0.00091087
0.387489
-0.392293
0.39252
-0.387683
0.400674
-0.421825
-0.0114747
-0.00439169
-0.124745
0.0065541
0.139265
-0.0057489
0.00256177
0.00246317
7.38809e-05
0.000130254
0.00019036
0.000215329
0.000174796
-0.427044
7.25467e-05
-0.428257
0.428658
-0.433194
0.428253
0.000127953
0.432606
-0.426302
-0.00010823
-0.485616
0.298352
3.89913e-05
0.483399
-0.297017
-7.08442e-05
-0.2712
0.276416
0.00256106
-0.272933
0.277977
0.00355673
-0.273142
0.283377
0.00684181
-0.272503
0.291288
0.0058349
-0.277114
-0.00960882
-0.000271958
-0.00160524
0.00220018
8.92141e-05
0.00109653
-0.000356377
0.000242342
-0.00107598
0.00124275
0.00518332
0.280661
-0.294461
-0.000461149
-0.260528
0.295932
0.0288302
0.0118151
-0.000583255
0.0116057
-0.195707
-0.0003111
0.307148
0.0179027
-0.458357
-0.0029421
-0.00457616
0.0240031
0.0164874
-0.0218203
-0.232448
0.355441
0.115402
0.37813
0.140532
0.0799753
0.0191962
0.0583262
-0.329591
0.421237
-0.399987
0.0114363
0.00190753
-0.0181503
-0.00484078
-0.00251192
0.00724993
0.00170856
0.000741623
0.000882747
0.000642204
-0.487408
0.299334
-0.299146
0.487034
3.9658e-05
-0.000735552
-0.00219268
-0.000481412
-0.000621328
4.20945e-06
0.000169675
0.00081845
0.000584274
-0.428013
4.45636e-05
-0.433744
0.430171
-0.489159
0.300216
0.00131509
0.491143
-0.302367
0.00281448
0.000229799
-0.000563962
-0.00142095
-0.00546232
-0.00389034
0.317457
0.459651
-0.480557
0.0396627
0.00690786
0.00318389
0.0115929
0.00546553
0.0133414
-0.334781
0.0116707
0.0320872
-0.341944
0.00298733
0.00150521
0.0010616
0.00195832
0.00301443
0.0041179
0.00190012
0.00122342
0.000702941
0.0005272
0.000412178
0.000606068
0.000802961
0.000565944
0.000442997
0.000578505
0.000716541
0.000596179
0.0010229
0.00107268
0.000567345
0.0013115
0.00106123
0.00149652
0.00111158
7.52032e-05
-0.000883548
-0.000305393
0.00209235
0.0039168
0.00033306
-0.0223024
0.00266775
0.000563031
0.000918121
0.00113068
0.00126018
0.00105594
0.00223713
0.00138181
0.00260986
0.00144423
0.415562
-0.424993
0.00219856
0.409752
0.00686953
0.00134723
0.00335569
0.0175593
-0.0673548
0.168226
-0.134266
0.283114
0.0413602
0.192902
-0.155588
0.126069
-0.135607
0.0861428
0.09816
-0.148077
0.0338699
-0.154492
0.0910244
0.0945614
0.185342
-0.00864827
-0.00237413
-0.0235795
-0.00115143
-0.10717
-0.00167814
-0.000743298
0.000651968
0.000880802
0.00166212
0.000981257
0.000652728
0.000847115
0.000645055
0.000158509
0.000588908
0.00033859
0.00244789
0.00120295
0.000548342
-0.460183
0.459227
0.00120745
-0.294128
-0.000968734
0.300397
0.37862
0.00524482
-0.313687
-0.00217713
-0.383249
0.00181285
0.00107731
0.000206316
0.000460651
0.000228939
0.00253072
0.000602562
0.000279805
0.000453921
0.000431866
0.00042087
-0.000453745
-0.00126892
-0.00295237
-0.341072
0.00593952
0.314481
0.0178762
0.325386
-0.287511
-0.313562
0.369997
-0.24794
-0.233457
-0.193486
0.00231627
0.00187249
0.00167098
-0.369595
0.0129663
-0.00165396
-0.0601488
0.000234941
0.00541143
-0.000769748
-0.454341
0.000368714
-1.24303e-05
0.0618923
0.00217207
-0.0602801
0.000125897
0.00331608
0.00170571
0.00233436
0.000107544
-0.379418
0.000180221
-0.369312
0.0018825
-0.000579594
-0.384732
-0.000540648
0.308224
-0.00232677
-0.00178199
-0.389384
0.00576826
-0.468847
0.0190863
0.012694
0.0957008
0.00993491
-0.48402
0.0330597
0.00226992
0.00489145
0.0285496
0.185575
0.439343
0.22821
0.33561
-0.0168122
-0.00504705
-0.395245
-0.0104251
-0.0216543
0.0113193
0.226379
0.326513
-0.0174735
-0.00587758
-0.00201054
0.3052
-0.378381
-0.00489455
0.00105278
-0.0164819
-0.0304426
0.00140649
0.209032
0.328853
-0.0184127
-0.00624163
-0.00228756
-0.381291
-0.00234407
-0.000636003
-0.000195526
0.00222404
0.00488344
0.00160922
-0.0247795
-0.00691532
0.000258851
-0.00194802
-0.00558103
-0.00440847
-0.00729675
-0.000483127
0.190873
0.368187
-0.068691
0.0597818
0.0266569
0.0328123
0.00901937
-0.00210868
-0.000805284
-0.000188239
9.17609e-05
0.000278343
0.000740444
0.00232296
-0.000121817
-0.000150288
-0.00101589
0.00151351
0.00085002
0.000940929
-0.00181911
-0.0177758
-0.0247353
-0.00752844
0.00261713
0.00265892
-0.480199
0.421152
0.00126828
0.00132182
0.00132473
0.00253338
0.00313769
0.00298946
0.000652312
-0.00812881
0.119502
-0.400295
0.0203849
0.0011824
0.00105873
0.000601748
0.000584404
0.00104219
0.000373642
0.000361405
0.000327929
0.000516938
0.000183773
0.000240223
0.000234943
0.0008931
0.000885248
0.429346
-0.000156489
-0.42903
0.430334
-0.000640171
-0.427193
0.426907
-0.429862
0.436375
-0.00042246
-0.431295
0.429762
-0.428212
0.00162611
0.495861
-0.308189
0.00570846
0.00247739
0.00208235
0.0012853
9.56761e-05
-0.0102332
-0.0176923
-0.0357013
-0.0836994
0.00443426
-0.0358981
-0.0119184
-0.00354686
0.00481552
0.00410929
-0.000458577
6.17816e-05
0.000958128
0.000497283
0.435103
-0.429033
0.429693
-0.434942
-0.000148394
-0.429321
0.434341
-9.59147e-06
-0.436563
-0.00063765
-0.428649
0.431558
-0.000249363
-0.434252
0.42735
-0.492656
-0.00155574
-0.00239044
-0.00101495
0.0003077
0.000582914
0.0021988
0.00509669
0.0209999
0.0848408
-0.0268062
0.852098
-0.0204352
-0.00445135
-0.0155822
-0.14986
0.0304293
0.0858631
0.00745191
-0.00124558
-0.0836365
-0.00138082
0.00254904
0.00616142
0.00039478
0.000479679
0.00657276
0.00349983
-0.263777
0.217717
-0.00874223
-0.00610246
-0.00046278
0.0446066
-0.0102
0.0368973
0.0591627
0.0956651
0.190008
0.0469918
-0.122274
0.0481775
-0.154215
0.0377915
0.0209186
-0.116853
0.00662615
-0.00237228
0.000270225
-0.00057928
1.1673e-05
0.002193
-0.00104092
-0.00233654
-0.000344379
-0.0027313
-0.00094822
1.64447e-05
-0.00014075
0.000181067
-6.3373e-05
-0.000149432
-0.000866666
4.23068e-05
0.00121819
0.00246473
0.010043
0.107427
0.451233
0.0258054
-0.0797633
0.28986
-0.00427116
-0.0615466
-0.0207414
-0.0299434
0.845816
-0.0162274
-0.00468813
0.00535833
0.00213644
0.00538364
-0.0756891
-0.00164873
-0.0017714
-0.0163015
-0.1509
-0.129229
-0.0781105
-0.304646
0.0310853
0.0758431
0.00387402
-0.0042796
-0.00449484
-0.00240068
-0.0934022
-0.00463233
0.0448156
-0.0269618
0.0477091
-0.00270763
-0.0852197
-0.0050437
-0.00277906
-7.86153e-05
0.00522893
0.0193054
0.00262879
0.00343678
0.017972
0.0175295
0.000903878
-0.00176219
-0.00044258
0.00103934
0.0029689
-0.00135747
-0.00108396
0.0135747
0.320962
0.0142947
-4.74974e-05
0.0017646
0.000360312
6.371e-05
-0.000211363
-0.00150906
0.00113017
0.425174
-0.485193
0.00124672
0.000569468
0.000419511
0.000455367
-0.488144
0.427537
9.22975e-05
-0.428069
0.433991
-0.432564
0.000343989
0.42769
0.00031119
0.000126499
1.10669e-05
-7.25209e-05
0.000534698
0.00101382
0.000199607
8.35612e-05
-0.000208163
-0.000941008
0.0015076
0.432125
-0.426246
0.425997
-6.41218e-05
0.000110599
0.000202671
0.000180146
-1.85013e-05
0.429376
-0.490856
-3.29309e-05
-0.000104355
0.000217774
-0.000683686
-0.000685603
-0.49337
0.43028
-0.000533038
-0.000126848
-0.000773985
0.00118052
0.000218843
0.000228176
-0.0125347
-0.0200576
-0.0815458
-0.0129857
-0.00128625
0.000148146
0.000403657
0.00013655
0.000245794
0.00135991
-0.00135248
-0.00153359
-0.000323344
-0.000236637
-0.00188569
-0.00116464
-0.00111223
0.00030513
-0.00173497
0.0013117
-0.00194129
-0.00675442
-0.000587935
-0.00239025
-0.0149395
0.0106997
0.02981
-0.000523717
0.0011843
-0.423196
0.0032022
0.0132896
0.0864474
-0.00177329
-0.00251506
-0.0186192
-0.176344
-0.108319
0.0246449
-0.00313436
-0.00247712
-0.00196493
-0.0223549
-0.00289792
0.163024
0.0491759
-0.00835805
0.0346463
0.245659
0.0213706
-0.00361396
-0.00642357
-0.00758011
-0.0113768
-0.281689
-0.250718
0.00184915
0.0253707
0.00945785
0.0409827
-0.0775063
0.00047573
0.00446349
-0.011544
0.00031937
-0.374176
0.00567645
0.00145008
5.25039e-05
-0.0013421
0.000121639
-0.00130784
-0.447181
0.310319
-0.360434
0.0191566
0.184313
0.31026
0.000124119
-0.000407916
0.000973414
-0.0766072
-0.290871
-0.0202244
-0.00465677
-0.00119164
-0.00245574
-0.0855719
0.000647372
-0.27773
0.00707497
-0.269217
-0.0020766
0.0361042
0.00131559
-0.102402
0.0482495
-0.00992918
0.321969
0.000392697
-0.274186
0.021556
0.0889441
0.0160665
2.74844e-05
0.00149284
0.000327597
0.00498168
0.310987
-0.493852
0.00164779
-0.161857
7.05549e-05
0.0215463
0.0337018
0.0191425
0.00689051
0.000137186
-0.00667697
-0.0191223
-0.0341068
0.000984101
0.205388
0.245102
0.243563
0.170462
-0.404196
-0.380501
-0.0187281
0.384238
-0.00823632
-0.468507
0.0788944
0.0130168
-0.054595
0.0598586
0.00385081
-0.0558243
0.0576241
0.00242126
-0.0533746
0.0579766
0.00193806
-0.052731
0.0567225
0.000167877
-0.0541803
0.0542865
-0.0038663
-0.0589375
0.0490967
-0.0145091
-0.0776996
0.0292341
-0.0626864
-0.150401
-0.0721122
-0.225279
-0.276606
-0.270541
-0.230076
-0.244878
-0.254608
-0.243594
-0.263085
-0.250107
-0.248489
-0.258999
-0.247626
-0.264352
-0.262578
-0.244861
-0.325693
-0.152608
-0.146817
0.563047
0.0357942
0.317039
-0.156612
0.410141
0.0259507
0.363999
-0.160996
0.388323
0.0215854
0.375342
-0.161492
0.38396
0.0223199
0.395054
-0.156352
0.372671
0.0238102
0.484336
0.0584289
-0.0416624
-0.310312
-0.00288691
-0.235003
0.151445
-0.204707
0.180021
-0.193644
0.188372
-0.189126
0.192027
-0.188879
0.193063
-0.188203
0.196932
-0.183016
0.208254
-0.155463
0.24115
0.00475678
0.302279
0.21304
-0.0846051
0.238231
-0.222187
-0.0108679
-0.00523832
-0.122029
0.128798
-0.114704
0.21208
0.028689
0.0344156
-0.00856014
-0.018539