/*--------------------------------*- C++ -*----------------------------------*\
| =========                 |                                                 |
| \\      /  F ield         | OpenFOAM: The Open Source CFD Toolbox           |
|  \\    /   O peration     | Version:  2306                                  |
|   \\  /    A nd           | Website:  www.openfoam.com                      |
|    \\/     M anipulation  |                                                 |
\*---------------------------------------------------------------------------*/
FoamFile
{
    version     2.0;
    format      ascii;
    arch        "LSB;label=32;scalar=64";
    class       volScalarField;
    location    "0.9";
    object      gradTx;
}
// * * * * * * * * * * * * * * * * * * * * * * * * * * * * * * * * * * * * * //

dimensions      [0 -1 0 1 0 0 0];

internalField   nonuniform List<scalar> 
5322
(
-0.250831
0.00594486
0.0072023
0.000764233
-0.000160081
-0.00019578
-2.01198e-05
0.000106043
5.76774e-05
-0.000214366
-0.000976669
0.0105845
0.0163015
-0.224551
-0.00594287
0.390897
-0.307161
-0.00482502
-0.234423
0.151321
-0.205731
0.179325
-0.18968
0.191272
-0.19379
0.186833
-0.187249
0.195078
-0.192224
0.193189
-0.183323
0.209333
-0.157207
0.240921
0.00387465
0.303728
0.214168
-0.0854018
0.239913
-0.0137968
-0.227548
0.228796
-0.0138532
-0.243424
0.241923
-0.00831942
-0.258727
0.226009
-0.00569625
-0.271181
-0.267588
-0.388477
-0.121564
0.260074
-0.0165947
-0.42932
-0.0122205
0.410245
-0.00492028
-0.409943
-0.00176636
0.399524
-0.00230317
-0.402661
-0.000133747
0.393423
0.00501487
-0.39877
0.0172689
0.326615
0.0131321
-0.347617
0.393883
-0.407626
0.392396
-0.399602
0.400372
-0.399561
0.454869
-0.327867
0.160494
-0.212916
-0.137852
0.238625
0.024662
-0.134445
0.15848
-0.427032
-0.160364
0.507773
-0.021862
0.009376
0.0172816
0.0785719
0.362303
-0.0839558
-0.00993114
-0.0411734
0.163395
-0.378616
-0.378981
0.84479
-0.0404934
0.279471
0.454927
-0.00529111
0.0027973
0.00375539
0.0022655
0.00110154
0.000432313
-0.000118848
-0.00113854
-0.00278751
0.0043791
-0.00147887
-0.129052
-0.12732
0.0134875
0.0811461
0.00460533
0.123782
-0.148056
-0.011091
-0.0341099
0.229527
0.188805
0.052498
0.147626
0.0954241
0.0725601
0.158498
0.080015
0.085843
0.161257
0.0700495
0.135098
0.183308
0.2078
0.00892932
-0.152319
0.0083955
0.101481
-0.122944
-0.131913
0.0188681
0.0544976
0.0299825
-0.103238
-0.113468
0.0212415
0.0337879
0.0407253
-0.111971
-0.106236
0.0214179
0.0222086
0.0644875
-0.122876
0.160334
-0.345681
-0.463334
0.399565
-0.468146
-0.0196159
-0.321901
0.00261235
0.313728
-0.0753363
0.37377
0.185281
0.276289
-0.414174
0.161593
-0.356873
0.237546
0.309696
-0.37902
0.00857673
-0.322239
0.2839
0.353384
-0.375961
-0.00221495
-0.315106
0.300326
0.366907
-0.376621
-0.000584759
-0.314274
0.306699
0.372475
-0.380217
0.000256615
-0.317417
0.307492
0.374795
-0.38749
0.000668407
-0.324312
0.303983
0.374637
-0.398028
0.00128592
-0.332938
0.295854
0.371458
-0.407047
0.00272739
-0.336484
0.279461
0.348859
-0.0758754
0.156106
-0.375799
-0.383233
0.849946
-0.0293993
-0.0321871
0.0193475
0.0848184
0.359977
-0.0661999
-0.00625159
-0.0738888
0.148728
-0.382878
-0.376614
0.845069
-0.0488693
0.279541
-0.010248
0.00470233
0.00450479
0.00288737
0.00149519
0.00064481
-2.47503e-06
-0.00105055
-0.00253152
0.00437074
-0.00135528
0.102546
-0.113824
0.113426
-0.103023
0.000207409
0.103133
-0.0974664
-0.000545574
-0.122745
6.91863e-05
-0.103155
-7.80277e-05
0.0972174
0.0038237
0.11464
-0.00936237
-0.123947
0.000405478
0.122577
-0.000125214
-1.8755e-05
0.21714
-0.373328
0.372883
-0.368806
0.388439
-0.397686
0.416287
-0.415506
0.422726
-0.42162
0.426081
-0.425114
0.430119
-0.427768
0.435214
-0.428973
0.43915
-0.422838
0.435136
-0.233603
0.00493453
0.235812
0.0063661
-0.424478
0.411544
0.00214085
-0.426559
0.419217
0.00145096
-0.423002
0.418451
0.000960514
-0.418328
0.415644
0.000664802
-0.414324
0.412077
0.000686533
-0.41029
0.406448
0.0010941
-0.402224
0.391304
0.00124121
-0.373508
0.000221534
0.373384
-0.391543
-0.00175487
-0.387858
0.36825
-0.00069119
-0.218989
-0.0142279
0.222754
-0.386625
0.373499
-0.393577
0.395767
-0.403298
0.403438
-0.405928
0.407755
-0.407976
0.412955
-0.409724
0.420278
-0.408668
0.427823
-0.396514
0.426987
-0.230216
-0.0495846
0.100048
0.0125891
-0.396342
0.35574
0.00494328
-0.388311
0.374355
0.000672652
-0.374516
0.372108
-0.000496648
-0.368211
0.367849
-0.000678116
-0.365447
0.365764
-0.00188729
-0.363162
0.365264
-0.00471851
-0.357282
0.359709
-0.0108478
-0.332045
0.303888
0.00654521
-0.110101
0.187381
0.308139
0.00977566
0.0383382
-0.0563277
0.157699
-0.486428
0.369287
-0.463364
-0.312021
-0.3858
0.010108
0.253892
0.280821
-0.40408
0.156243
-0.36263
-0.0269604
0.0194151
-0.146754
0.0125558
-0.0059257
-0.155687
0.0158439
-0.0251618
-0.36794
-0.39905
0.288066
-0.373782
0.00473564
0.341367
-0.372523
0.360271
-0.373948
0.0024897
0.368188
-0.378165
0.370973
-0.385887
0.0142296
0.370137
-0.395016
0.364658
-0.39834
0.0822844
0.0191239
0.0121441
0.0127922
0.00604228
0.0149652
0.3826
-0.405345
0.00342662
-0.328775
0.271726
0.378773
-0.399808
0.0074941
-0.351038
0.244876
0.489456
-0.0572448
0.0095735
-0.410961
-0.379319
0.800048
-0.0497821
0.0131676
0.0221928
-0.2427
0.0553587
0.189694
-0.196347
0.0160792
0.202585
-0.183714
0.00252135
0.196298
-0.187628
-0.000362838
0.186962
-0.181418
-0.00484288
0.193995
-0.174924
-0.0118578
0.204109
-0.137345
-0.0197993
0.240971
0.0914794
0.0676455
-0.0177689
-0.0092462
0.0949685
-0.0417453
0.428085
-0.457865
0.448093
-0.458244
-0.296671
-0.384711
-0.00073233
0.293209
0.369949
-0.383297
-0.00198384
-0.296985
0.00242521
0.000190716
0.00321471
-0.00033974
0.00627658
0.0245339
0.0226788
0.0410882
-0.012362
0.00637908
0.171562
0.272518
0.227293
0.0768376
0.345675
0.137565
0.0646566
0.0194386
0.0120967
-0.00605537
-0.00419142
0.0032206
0.0060261
-0.0544447
-0.000787991
0.0629808
-0.0581317
0.455306
-0.462082
0.459945
-0.473251
-0.310402
-0.397475
0.00134174
0.293077
0.382295
-0.389304
0.000343594
-0.300816
0.00424302
0.00188844
0.00044543
0.000273401
0.0006809
0.00148108
0.00231211
0.00177897
0.00506643
0.00769132
0.0738249
-0.00124852
-0.000526828
-0.00235608
0.000426995
0.000990549
-0.00970657
0.0225382
-0.259798
-0.000679044
0.00355152
0.000172716
-0.00351363
0.397756
-5.33553e-05
-0.416102
0.402189
-0.40647
-0.00142248
0.416124
2.42622e-05
-0.422653
0.410602
-0.41177
-0.000587754
0.422653
0.000263866
-0.425854
0.415149
-0.414822
3.89105e-05
0.426717
0.000488137
-0.429709
0.419873
-0.416856
0.000643256
0.430221
0.000418099
-0.434477
0.425399
-0.416544
0.00153609
0.431849
-0.000793928
-0.437362
0.429241
-0.408339
0.00243716
0.423152
-0.00372054
-0.431555
0.425452
-0.233964
-0.000289963
0.232313
-0.0143002
-0.0298562
-0.0311445
-0.0328463
-0.408913
0.101598
0.0898925
-0.0347292
-0.0715346
-0.0353816
-0.463307
0.0977596
-0.119871
-0.199722
-0.0723294
-0.0574121
-0.0605108
-0.0260924
-0.0117747
0.00218058
-0.000893109
-0.00984469
-0.0120256
-0.00717534
-0.0132162
-0.0256169
0.00434164
0.201483
0.236172
0.231609
0.266852
0.330083
0.31426
0.245747
0.247365
0.161411
-0.14354
0.04633
-0.0168411
-0.0117944
0.0420521
-0.125141
-0.000340757
-0.000196209
-0.000403986
3.27753e-05
-0.0790542
-0.0900678
-0.0892628
-0.0800222
0.0793294
-0.067336
0.00250087
0.0896747
-0.0773748
-0.077689
0.00248148
0.0893447
-4.23388e-06
1.58768e-05
4.12338e-05
4.58134e-05
-0.0023623
0.00316821
-0.00161364
-0.000885871
-0.00010467
0.000506567
0.00125749
0.00523958
0.00383
0.00190195
0.00923216
-0.00268928
0.0554621
-0.079115
0.469335
-0.485551
0.484712
-0.00998475
-0.142309
-0.0213854
0.0392079
-0.00411774
-0.00899675
-0.00448913
-0.0278171
-0.0577497
-0.114946
-0.262724
-0.268657
-0.667844
-0.314066
-0.274464
-0.0092393
-0.108173
0.0853571
-0.540949
-0.323428
-0.151445
0.244807
0.0197164
0.0127193
-0.255848
0.270731
0.00159618
-0.0320654
-0.281036
0.27203
0.000475782
-0.0357443
-0.274267
0.27113
0.00233038
-0.0585565
-0.261695
0.193322
-0.154341
0.126638
0.0960162
0.283131
-0.13304
-0.0769151
0.0420581
0.170173
-0.555693
-0.0308428
-0.325297
0.284231
0.262152
0.249918
0.31381
0.151398
0.0341263
0.121044
0.182879
0.301822
-0.139681
0.0289401
0.222726
-0.190683
0.000264275
0.193819
-0.195528
-0.00241837
0.187074
-0.190296
-0.00140322
0.185073
-0.187557
-0.0012277
0.183776
-0.18817
-0.00261669
0.177034
-0.198199
-0.0156166
0.149993
-0.2292
-0.0853422
-0.00364365
-0.308567
-0.191043
0.111469
-0.304098
0.336601
-0.357502
0.0100449
-0.374385
0.386017
-0.0058581
-0.222527
0.0142113
0.219322
-0.216956
0.000771758
0.00128349
0.000378636
0.000304995
0.000470741
0.000439742
0.000169538
0.000350058
0.000887335
0.00104941
0.00370978
0.000470932
0.0599303
-0.0630014
-0.00175043
-0.000390471
0.00281672
0.000569375
0.294172
0.378901
0.00230417
-0.313289
0.306946
0.000381144
-0.316665
0.306879
0.000799588
-0.324625
0.302564
0.00144598
-0.336187
0.293592
0.00272329
-0.344887
-0.0147272
-0.0116006
-0.0651798
-0.0647755
-0.106252
-0.0516814
-0.0255141
-0.0116836
-0.00786416
-0.014939
-0.027129
0.0016032
0.196559
0.228321
0.221707
0.314805
0.188447
0.00196897
-0.0216846
-0.0116618
-0.00639248
-0.00991316
-0.0225391
-0.0479213
-0.0989666
-0.232488
-0.247367
-0.439985
-0.331882
-0.104713
-0.105451
0.223923
0.0261885
-0.027481
-0.0218514
0.110724
0.00456119
-0.0882563
-0.0844627
0.0874987
-5.77676e-05
-0.097591
-0.0934006
0.0765798
-0.000386545
-0.121319
-0.115754
0.0370816
-0.153826
0.0980854
0.0950938
0.0995249
0.0865647
-0.134927
0.0094842
0.0499488
-0.152961
0.036682
-0.147605
0.173366
-0.400696
-0.0214205
-0.38558
0.262605
0.270748
0.27082
0.265763
0.261282
0.264214
-0.417145
-0.0251261
-0.376316
0.269034
0.288101
0.270201
0.284381
-0.0211787
-0.401267
-0.398735
0.173774
0.271809
0.240323
0.237677
0.29593
0.283673
0.227237
0.0690486
0.150721
0.0614566
-0.0327012
0.0751823
0.0116157
-0.0548438
0.0566741
0.00254869
-0.0563015
0.0555498
0.000430131
-0.0571207
0.0546029
-9.40554e-05
-0.0551811
0.0560936
-0.000681249
-0.056421
0.0541701
-0.00367814
-0.0589103
0.051272
-0.0136662
-0.078233
0.0299207
-0.0621531
-0.150951
-0.0720426
-0.224035
-0.269943
-0.275487
-0.185517
-0.136358
-0.20966
-0.00883237
0.153319
-0.115836
0.0112587
0.127093
-0.126752
0.00535079
0.13246
-0.135855
-0.0044957
-0.00913285
-0.235613
-0.000753204
-0.382199
0.000449421
-0.37892
0.00202939
0.396711
-0.40268
0.000468793
-0.399888
0.00469902
0.406282
-0.36837
0.000114624
0.369398
0.00195465
-0.369518
0.00013821
0.370593
0.00130829
-0.371038
0.000186422
0.371881
-0.000627218
-0.372895
0.000279331
0.373562
-0.000964027
-0.374893
0.000639353
0.375747
-0.00556842
-0.373152
0.00284845
0.374298
-0.00751704
-0.00841605
-0.466839
-0.337444
0.00787589
0.433865
-0.00290282
-0.459806
-0.318993
0.00651235
0.448552
-0.000980211
-0.455252
-0.312812
0.00252973
0.450751
-0.000731563
-0.452179
-0.308974
0.000302397
0.451405
0.000589689
-0.447966
-0.306217
-0.00179093
0.450962
0.000717968
-0.442323
-0.302551
-0.00524064
0.452959
0.00290667
-0.423789
-0.294288
-0.00558072
0.459414
0.0102755
-0.367901
-0.260082
0.0241392
0.484107
0.0584553
-0.0418492
0.11187
-0.191578
-0.309769
-0.00308837
-0.0867146
0.00138284
0.26562
-0.0219339
0.00372227
-0.22383
0.000999977
0.383158
-0.374587
-0.00234704
-0.377383
0.0105324
-0.362383
-0.000676298
0.364746
0.00819844
0.00296573
0.000753848
0.00434524
0.39437
0.00270949
-0.00336842
-0.0979613
-0.000274397
0.105881
-0.00014618
0.00034745
0.000477406
-0.0168658
-0.0194944
-0.0139734
-0.152696
0.0153263
-0.0250487
0.00230055
0.00263717
0.00468814
0.347484
0.28677
0.00160268
-0.0029816
-0.0129171
-0.0154765
0.254191
0.00944053
-0.323973
0.290446
-0.0020212
-0.314637
0.302477
-0.000514704
-0.000665529
0.00102068
0.0038976
0.00113753
0.00253876
0.00535461
0.00249705
0.00122368
0.00105068
0.00432204
0.000267152
0.000918238
0.00231547
-0.321126
0.282864
0.448572
-0.463631
0.457764
-0.463544
-0.00118495
-0.364672
-0.0034607
0.36756
-0.0045845
-0.361147
-0.011555
0.378242
0.0224676
0.0282284
-0.258227
-0.000938211
0.277488
-0.291181
-0.000657819
-0.480398
-0.000926892
0.479342
-0.420348
-0.00017788
-0.426222
0.000124678
0.426912
-0.421949
-5.17234e-05
-0.420036
-5.0442e-05
0.420982
-0.433062
-0.000234396
-0.413194
-0.00125321
0.413279
-0.413526
-0.00365281
0.410852
-0.406002
-0.00762534
-0.00978916
-0.00224865
-0.000962441
-0.000120094
0.000158155
0.000437874
0.00125283
0.00257419
-0.00444276
0.00117042
-0.102648
0.114028
-0.112717
-0.105448
0.00105479
0.000633864
-0.00219475
0.00617609
0.100001
0.000909552
-0.00119091
-0.00930922
0.012189
-0.0106771
-0.149557
0.0145787
-0.0317216
0.224421
0.0109419
-0.0107346
-0.00905811
0.0059584
8.5064e-05
0.0766876
0.0777031
-0.00234455
0.0662799
0.102539
-0.00177211
-0.00223286
-0.00229963
-0.000812974
0.00792103
-0.119203
0.305179
0.0177724
-0.455415
-0.00291253
0.461407
-0.404875
-0.0020173
-0.418254
-0.000202403
-0.413242
-0.000169919
-0.415107
0.000911524
0.416525
-0.4273
0.000170721
-0.409512
0.000654823
0.410742
-0.411407
-0.000338514
0.412396
-0.000262952
9.16808e-05
0.000446552
0.00112112
0.0018253
0.0024259
0.000131901
-7.25e-05
-0.00246477
-0.00234965
-0.00885822
-0.0111556
-0.00233848
-0.00240475
4.15666e-05
5.37942e-05
0.000300416
0.000129888
0.000325023
0.00026105
0.00033503
0.000400933
0.000383062
0.000268256
0.00157754
0.00192806
0.0021616
0.00888069
-0.000869479
0.0636621
-0.329119
-0.0834459
-4.22012e-05
-0.0310857
0.141725
-0.14453
-0.469189
-0.170175
-0.00267071
0.0411955
-0.000107124
-0.333377
-0.141426
-0.0935814
0.212784
0.0256195
-0.0235335
-0.0412225
0.119848
0.00434561
-0.0820456
-0.102109
0.102579
0.000225899
-0.0906949
-0.107609
0.0951346
0.000567416
-0.116604
-0.121964
0.0255768
-0.00703534
0.00113841
0.00144287
0.406779
-0.367846
0.00254229
0.379774
-0.013766
0.0101247
-0.47986
0.00192524
-0.297914
0.30624
-0.00244999
-0.291692
-0.508077
0.438198
-0.0276393
0.0446182
0.165223
0.00163325
0.356334
0.264672
0.297953
-0.39481
0.00484015
-0.334447
0.0102075
-0.370299
0.00816331
-0.354791
0.0100958
-0.356553
0.00918792
-0.380508
0.277783
0.271618
-0.0190951
-0.479826
-0.385793
0.170614
-0.118742
0.149397
0.083975
0.0997623
-0.14594
0.0411145
0.031211
-0.15764
0.06214
0.113924
-0.136616
0.214516
-0.114927
0.0179149
-0.126709
0.0220101
-0.138162
-0.108267
0.0211314
-0.00877046
-0.00199219
-0.00135971
-0.000285067
0.000327434
0.000393814
0.000519176
0.00123127
0.0025176
-0.00449685
0.00126768
-0.0670949
0.0792265
0.000578086
0.0159837
0.011469
0.00924062
-0.115297
-0.00845518
0.123232
-0.101442
-0.0555278
0.125006
-0.136151
-0.186052
-0.209993
0.148094
0.152906
-0.00916573
-0.0128878
-0.0417553
0.00485895
0.15676
-0.0284984
-0.0367153
-0.0207215
0.11224
0.112321
-0.036885
-0.0282368
0.144282
-0.0791923
-0.167696
-0.0796084
0.154431
-0.0154384
-0.0163822
-0.0200547
-0.00530765
0.00169035
0.265233
-0.02239
0.0102044
-0.000438974
0.000324766
0.000535698
0.000324611
-6.47617e-05
-0.000712254
-0.00176768
-0.000227329
-0.00124261
0.000365443
-0.0111789
-0.00414574
0.00624252
-0.015842
-0.00755004
-0.00746769
-0.209082
0.200924
-0.00575521
-0.0047053
0.0098814
-0.00494738
-0.00448284
0.0340772
0.0707393
0.036224
0.251203
-0.126264
0.0164619
0.133119
0.167542
-0.0660014
0.00694397
-0.00240767
0.0109889
-0.00268336
0.00126212
-0.019103
-0.0037255
0.000159321
1.08454e-05
-0.000495603
-0.00115413
-0.000786438
-0.00200192
0.00142384
0.00271219
0.00058823
-0.0050292
-0.000953158
-6.61108e-05
-4.9204e-07
-0.00012863
0.000839919
0.00747076
0.00232062
0.00384306
0.00220401
0.000845731
3.78383e-05
0.000745176
0.000780596
0.00164725
0.00287534
-0.396255
0.36031
-0.362974
0.36427
-0.36443
0.00190331
-0.402915
0.402339
0.00431175
0.0028269
0.00174939
0.000768478
0.392773
0.00237333
-0.00364885
0.124117
-0.00267524
0.00232183
0.0111332
-0.0183103
0.131393
0.103181
-0.045621
0.0181466
-0.000386425
-0.000164148
0.0673493
-0.00231878
-0.000137491
0.0475176
-0.143761
0.0416815
0.00050089
0.016693
0.0122123
0.00129945
-0.0127491
0.0051712
0.0112313
-0.0457168
-0.041984
0.131843
-0.0556584
-0.101338
-0.0184706
0.124488
-0.008289
0.0112142
0.00895664
-0.00623419
-0.000335155
0.00245603
0.00895708
-0.0034936
-0.00390714
-0.00101461
-0.000576865
-0.000127983
0.00113678
0.00071418
0.000620444
0.000404933
0.405432
-0.406391
0.365704
-0.366766
0.367863
-0.370198
0.0018449
-0.410134
0.407906
0.00137485
0.00054274
8.66105e-05
-0.000287665
0.000596313
-0.000955943
0.000544685
0.000230553
0.000437928
0.000340356
0.00064372
0.000227155
0.000679107
0.00199098
0.0110203
0.00994057
0.035885
0.00173656
0.000744388
0.000150558
-0.000722499
-0.00261413
-0.00109111
-0.00109638
0.000127707
-0.000248515
-0.000195631
0.0002432
0.000271129
0.0002601
1.41282e-05
-0.0010616
-0.00280051
-0.00293233
-0.00114432
1.74314e-05
0.000110779
0.000195576
0.000301208
0.000412293
0.000725676
0.000622683
0.000584411
0.00129043
0.00109863
0.000605083
0.00175179
0.00338518
0.00137911
0.00202559
0.0489402
-0.00995172
0.00443138
0.00141943
0.00530706
0.108079
-0.00501277
-0.0156128
0.0775817
0.0233681
-0.333493
-0.116177
-0.252696
0.227035
-0.154746
-0.1657
0.20328
-0.268721
-0.014469
-0.0196857
-0.224142
0.197462
-0.00311007
-0.0109853
-0.00112046
0.00402909
0.00563875
0.082578
0.0258494
-0.153134
-0.131858
0.249656
0.0248149
-0.0590489
-0.0171631
0.10298
0.003346
-0.117711
-0.076319
0.0774749
-0.000279373
-0.123219
-0.0846833
0.0673326
-0.00110607
0.107322
0.103256
0.00617026
0.129458
-0.125885
0.000496817
-0.113369
-0.000639063
-0.00259758
-0.000441564
-3.37783e-05
0.000179546
0.0001975
0.000171351
0.000137012
4.11321e-05
-0.00100921
-0.0027493
-0.0013307
-0.314144
0.300734
-0.00049754
-0.313557
0.307018
0.461085
-0.466497
0.46358
-0.473853
0.000187013
-0.372308
0.00256662
0.367893
-0.000428449
-0.367015
-0.000159244
0.366604
0.00171561
0.00203079
-0.270368
0.00066179
0.274711
-0.295914
0.000451772
-0.483553
0.000411137
0.486819
-0.424514
-0.000137997
-0.428472
0.000458017
-0.424979
-0.000679749
-0.419861
-0.00129705
0.417004
-0.432657
9.82682e-05
0.415663
-0.00116919
-0.409133
0.40813
-0.00120967
-0.421751
0.426266
-0.413188
-0.000151896
0.000421896
0.00185654
0.00155519
0.000800764
0.000268666
-0.000208556
-0.00104236
-0.00118214
-0.000211908
0.000708079
0.00188959
0.00196165
0.00435127
-0.316471
0.308138
0.00116045
-0.322869
0.305503
0.465588
-0.486806
0.46543
-0.498573
0.0125178
-0.425538
0.0392958
0.369784
0.00230678
-0.387998
0.0112383
0.370974
0.000317489
0.00665908
-0.269714
0.0054666
0.288119
-0.30529
0.0015468
-0.484429
0.00267999
0.490892
-0.420341
-0.00166288
0.412535
0.00374037
-0.466554
0.272412
-0.00108105
-0.313484
0.278387
-0.292829
0.0151512
-0.0361324
-0.0180273
-0.0312872
-0.0557385
0.346873
-0.493164
0.106812
-0.0795594
-0.0311837
-0.0121844
-0.00479279
-0.00293291
-0.00436174
-0.00128503
0.0638221
0.659049
0.330374
-0.171526
0.115643
0.0591115
0.376156
-0.326269
0.354337
-0.0211002
-0.231169
0.0112132
0.418312
-0.395528
-0.00105605
-0.39275
-9.84964e-05
-0.397461
-0.000248001
-0.407267
0.00176665
0.411377
-0.421084
0.000396904
-0.406634
0.00170156
0.409078
0.00156943
0.00106219
0.428515
0.00237846
0.422524
-0.000333861
-0.00268825
-0.00507584
-0.0172616
0.00274771
0.231199
0.0160719
0.0200881
0.0796952
0.140053
-0.193813
-0.000584394
-0.287672
0.00100567
-0.476808
-0.0022079
0.474465
-0.416464
-0.000768932
-0.424069
-3.73088e-05
-0.418901
-3.66114e-05
-0.418127
0.000356336
0.419242
-0.430573
-1.55457e-05
0.431718
-6.75727e-05
0.000391651
0.430454
-2.8653e-05
-0.000149514
-0.000820895
-0.00220185
0.412135
-0.00437371
0.388215
0.023212
0.0118213
0.293015
0.0115773
0.00695577
-0.000621735
0.298019
0.00107092
0.00454768
-0.268814
-0.000435014
-0.293773
-0.000140099
-0.481802
-0.000203535
0.48288
-0.422765
-7.52214e-06
-0.427768
0.000276151
-0.423985
-0.000266491
-0.421109
-0.000562384
0.421444
-0.434903
-0.000454508
0.429803
-0.000928101
-0.000395772
9.59731e-06
0.000147388
0.00023962
0.000426165
0.00121876
0.00227174
0.00123068
0.00121221
0.000610928
0.00106345
-0.00142719
-0.000465995
0.000295041
0.000432799
0.000522032
0.000471024
0.000335796
0.000537188
0.000999152
0.00299242
0.00243301
-0.318321
-0.0082005
-0.311823
0.346772
-0.00700958
-0.329477
-0.336971
0.353482
0.330497
-0.00688129
-0.314514
-0.359209
0.375602
-0.337216
-0.00848056
-0.301651
0.339208
0.356781
0.351575
0.343871
-0.00777561
-0.33205
-0.308351
0.002463
0.336696
-0.00638636
-0.353243
-0.322157
0.0010089
0.333769
-0.00222771
-0.362497
-0.329004
-0.33805
-0.345948
-0.00255388
0.344427
0.351716
0.0010567
0.327063
-0.00249485
-0.321033
-0.368829
0.374384
0.000961671
-0.295183
-0.44342
-0.00597773
0.305909
0.00195204
-0.287409
-0.425291
-0.0068305
0.322086
0.379355
-0.272662
0.0219713
-0.265051
-0.00944757
-0.268646
0.0216587
-0.264248
-0.00940168
-0.269693
0.0227467
-0.26924
0.374779
0.326027
-0.0102671
0.0145983
-0.00120673
-0.20092
-0.24077
-0.227996
-0.252774
-0.240682
-0.242595
-0.249207
-0.204695
-0.316762
-0.250411
-0.228871
-0.240068
-0.162182
-0.0700536
-0.0869576
0.143974
-0.16102
0.378934
0.383135
0.380186
0.381797
0.395731
0.371954
-0.155996
0.125765
-0.0697693
-0.162335
-0.0873929
0.156895
-0.0162122
-0.00329957
-0.00330103
-0.00147829
-0.000577107
0.000368948
0.000193252
0.350581
0.000178002
-0.342806
-0.351041
-0.324726
-0.374192
-5.5952e-05
0.325934
0.373886
0.000273701
-0.298702
-0.450419
-0.00210013
0.302722
0.452729
0.00145105
0.0587831
-0.0578798
-0.00059098
0.0588054
-0.0584294
7.01744e-06
0.0598015
-0.058176
0.00222914
0.0665435
-0.0527028
0.0127228
0.0936059
0.0330384
0.0191374
0.00579917
0.00333847
0.0001597
0.000345536
-0.000718652
0.000308616
-0.00141977
-0.000621362
-0.00263703
-0.0596818
0.453785
0.00299308
0.0559233
-0.0776001
-0.0121602
-0.0209395
-0.00843003
-0.050833
0.0350349
0.0104916
-0.369328
0.0228299
-0.254963
-0.0104644
0.015073
0.000791484
-0.16168
-0.275316
-0.267948
-0.224236
-0.070807
-0.15126
-0.0610233
-0.120634
-0.343022
0.0585214
0.484036
0.369609
0.398147
-0.155602
-0.331369
-0.199996
-0.000376237
0.0339565
0.0222944
0.0130731
0.00540893
0.00230803
-2.8725e-05
-0.300838
-0.456193
0.453318
0.302595
4.65086e-05
0.00162156
0.00538944
0.00594826
0.019398
0.00750641
0.00190348
-0.000593806
-0.000127813
0.373043
0.00183226
-0.32728
-0.378981
-0.30126
-0.464799
0.0011729
0.304553
0.455038
0.00228488
0.00154615
0.00161497
0.00111379
0.00172051
0.0029858
-0.415203
0.37198
-0.373361
-0.00568166
0.00252289
0.00124389
-0.00248301
0.000610483
0.000171334
0.41046
0.000606943
0.000396507
0.411862
0.00268755
0.000244466
0.00097382
0.00166161
-0.000904361
-1.05365e-05
0.000488762
9.26908e-05
0.000312129
0.000127121
5.0067e-05
0.000373077
0.00134975
0.000592387
0.000151986
7.56015e-05
-0.000739619
-0.000237248
-0.00024926
-0.000822067
-5.74535e-05
0.000379172
0.000502068
-0.000169712
-0.000126048
1.63796e-05
7.10648e-05
-0.00344162
-0.00355821
-0.0162612
-0.00613216
0.358002
-0.00215803
0.000486842
0.000399572
-0.00135046
-0.0014668
-0.000634863
-0.00647325
-0.00587514
-0.00426654
-0.000536646
-0.330726
0.29847
0.00489153
-0.330227
-0.0130276
-0.013024
-0.0641505
-0.0819294
-0.303268
-0.305956
-0.491229
0.123157
0.0466871
0.253781
-0.0894088
0.131985
-0.0148071
-0.150709
0.135663
-0.00338621
0.105478
-0.00345091
0.127593
-0.140805
-0.0118816
-0.00374063
-0.00460911
0.00202085
-0.0169669
0.112876
-0.00562408
0.0042348
0.00420212
0.00268067
0.00155232
0.000679601
0.000582163
0.00574291
0.00492695
0.0124701
0.0108654
0.0312669
0.00644861
0.0028634
0.00092259
0.296026
-0.29922
0.0011212
-0.485399
0.00132413
0.49149
-0.424895
-0.000610558
-0.426342
0.000455897
0.421403
-0.000274031
1.85814e-05
0.000309997
0.000441256
0.00111055
0.00256911
0.00141082
0.000861426
0.000476239
0.00018561
9.47526e-05
0.000142041
0.000163194
0.000151139
0.41117
1.1114e-05
0.417112
3.32621e-05
0.399311
0.383117
0.00155111
0.381444
0.229995
0.0060613
0.00131627
-0.000155588
8.33858e-05
-0.000798837
0.419108
0.00152396
-0.00115227
0.273081
7.0996e-05
0.000598002
-0.000483296
0.295218
0.000917993
0.00317462
-0.270418
0.00257531
0.280144
-6.52324e-05
0.00196371
0.00106054
0.00072057
-6.47799e-05
0.42209
0.000161361
0.421509
1.53946e-05
0.000644887
0.424334
0.000296716
0.429244
-0.00011233
0.00181827
0.426164
-0.00178556
0.296756
-0.000536565
0.00564085
-0.27437
0.00930092
0.293827
-0.00984293
-0.000191771
-0.0104468
-0.0357814
-0.0840116
0.00304057
-0.0122363
-0.00529584
0.00402835
0.00365315
0.425681
-0.000610079
-0.00134783
-0.00133774
-0.000304833
-0.00484111
-0.000238262
0.000662763
0.000511072
0.430395
0.423812
-0.0003245
-6.56662e-05
-0.000865958
-0.00167077
-0.00185967
-0.00797806
-0.0029823
-0.00308762
-0.00163663
-0.000626428
0.432156
-0.00122789
-0.000208255
0.000384673
-0.000113218
-0.00136227
-0.00522712
-0.016038
-0.00385155
0.000299034
0.000632109
0.00204977
-0.00207137
0.00247582
0.00417597
-0.00730239
0.032342
0.0671478
-0.048745
0.346896
-0.000877003
-0.0220803
-0.0329302
-0.0178552
-0.00567613
0.000611452
0.00680666
0.0185695
0.0329264
0.0354005
0.000773807
0.0171432
0.0169893
-0.316823
-0.161159
-0.331786
-0.16284
-0.000310222
0.0208043
0.00505257
0.00206391
0.31127
0.369898
-0.0013029
0.0029934
0.00123524
0.00245343
0.00134609
0.00290358
-0.00372047
-0.0198561
0.147999
0.339582
0.0142125
-0.000437538
0.000963484
0.000983098
0.000506532
0.000586305
0.000255688
0.000258406
0.000306532
-0.000431
0.000274309
0.000248348
0.00103532
-0.000424179
-0.000917439
-0.355712
0.00275395
-0.346448
0.334919
0.00699716
-0.349937
-0.361722
0.344137
0.322133
0.00475209
-0.329544
-0.385237
0.368282
-0.000944751
0.307917
0.455061
0.00500217
-0.000992854
-0.00162442
0.00183489
0.00263282
0.00537667
0.0769552
0.120878
0.186375
0.440544
0.029273
0.22803
0.337617
-0.0159354
-0.00464396
-0.0102911
-0.00226116
-0.00189642
-0.000526737
0.325368
0.349031
0.341108
0.331211
0.00292905
-0.3712
-0.337954
-0.00112918
0.327748
0.00737471
-0.375034
-0.344846
-0.00248658
0.318026
0.338952
0.301702
-0.00183094
-0.00240999
-0.00270307
-0.000799184
0.000260545
0.00165067
0.000321406
0.000267008
-0.000801959
-0.000341238
-0.0031085
0.0294055
-0.00322894
-0.0020298
-0.00490121
-0.00389234
-0.0024112
-0.00410681
-0.00175999
0.0839603
-0.00200877
0.00186184
0.000257479
-6.00349e-06
0.00504297
0.00441525
-0.0316081
0.180876
-0.0790203
-0.306097
-0.386815
0.0290957
-0.177243
0.0736655
0.0233324
-0.10923
-0.117565
-0.0127982
-0.0193463
0.128509
0.11781
-0.0110791
-0.11463
-0.00199504
0.115091
-0.000578381
0.00149023
-0.00011224
0.0013365
0.00330672
0.00344097
0.00236064
0.000685439
0.000544644
-0.00131383
-0.00113648
-0.000176873
-0.000698281
-2.71234e-05
-0.000150677
0.000988612
0.00196136
0.00184432
-0.00235568
0.00320999
0.0065846
-0.012068
0.381941
-0.0250028
0.0183731
-0.425046
0.00533987
0.00465433
0.0351277
0.00406895
0.00857829
0.0262558
-0.00193649
-0.000727411
-0.00257497
0.00681126
0.073875
-0.00478698
-0.0027665
-0.00142206
0.00188132
-0.187821
0.217721
-0.00653854
0.00136729
-0.00894666
-0.022399
-0.0253307
-0.00470885
-0.00223537
0.090078
-0.0023103
-0.00280914
-0.00529959
-0.000885087
-0.00310371
0.0794025
-0.00518475
-0.0029607
0.00682277
0.00521688
-0.00115584
-0.00131584
-0.000858275
-0.00218481
0.002012
0.00555165
0.00451804
0.00367812
-0.00871716
0.0175476
0.0176394
0.0203252
0.0268417
0.382817
0.0517343
0.00771299
-0.0119384
-0.00373889
0.000477683
0.00441488
0.0117914
0.00149886
0.368067
0.308729
0.00095916
-2.19648e-05
0.000339659
0.000154109
0.307906
0.367019
0.000321885
-0.367443
-0.333344
0.332446
0.000148726
0.343039
9.08001e-05
0.00789946
0.0208842
0.00186311
0.0017973
0.005795
0.000120751
0.0011237
-0.00528743
-0.0176125
-0.00553448
0.30972
0.33064
0.31791
-0.00618765
-0.00223623
-0.000611996
-0.000310612
-0.000622703
0.365015
0.307831
-0.000358138
0.000433077
0.000172531
-0.000726459
-0.00107769
0.306847
0.358359
-0.00212941
0.000693078
-0.00023602
-0.000690744
-0.00202951
-0.0102326
-0.0533607
-0.344193
-0.124147
-0.0241423
-0.00304317
-0.000133042
-1.58395e-05
0.000134611
-0.000135331
0.00130323
-0.0055554
-0.0138909
0.0122576
-0.0168948
-0.0321124
-0.0213305
0.0132199
0.229147
0.329676
-0.0163545
0.00349313
0.219213
0.331464
0.00264388
0.208715
0.344727
0.164428
0.00109912
-0.00219791
0.351312
-0.00240004
0.0204787
0.121101
0.0208046
0.0446383
0.0472967
0.0449738
0.0595753
0.0375631
-0.0010344
-0.00494745
0.0457407
-0.0215685
-0.0100341
-0.00779576
0.0488872
0.00472284
0.0338165
0.0296438
0.207339
0.175013
0.19431
0.185521
0.190064
0.041058
0.00665758
-0.000783398
-0.00693387
-0.0836381
-0.282278
-0.2677
-0.000196748
0.0109803
0.170616
0.000113644
0.423206
0.00323512
0.000603246
0.000195319
-0.000601675
-0.0112668
0.00143774
0.295378
0.423533
0.418699
-0.000213467
-0.0107414
-0.420952
0.00117621
0.00152051
0.00131858
-0.042732
0.460025
0.0122375
0.00654032
0.00221677
0.00545891
0.0912754
0.00311006
0.214123
-0.252901
-0.0314986
-0.44816
-0.000195517
-0.0206874
0.103412
0.000693534
-0.454595
0.396788
0.00524752
0.224001
0.0152517
0.0885271
0.208598
0.0339447
0.0361742
0.00160135
0.00140026
-0.00167106
0.287179
0.0128383
-0.0178451
-0.025313
-0.00815832
0.00206098
0.000432338
0.000180147
0.000329973
0.000389599
0.000114586
-0.000967435
-0.00150646
-0.0135145
-0.00687703
0.243242
0.0197036
-0.406782
0.443356
0.026917
0.319524
0.00221739
-0.294994
0.305522
0.0302286
-0.26692
0.288617
0.00605199
-0.276872
0.282416
0.00384625
-0.277971
0.280924
0.00278593
-0.278401
0.279654
-0.000398339
-0.280565
0.275615
-0.00682118
-0.286352
0.26282
-0.0322534
-0.300571
0.195899
-0.142882
-0.380133
-0.115755
-0.356381
0.0222501
0.232905
-0.234699
0.0133674
0.24349
-0.240923
0.00500498
0.244584
-0.251464
-0.00283296
0.243827
-0.250378
-0.0206992
0.235433
0.247166
0.381031
0.0963957
-0.275076
0.00359691
0.404415
-0.000740689
-0.41209
-0.00182681
0.395138
-0.00241141
-0.399002
-6.6161e-05
0.396678
0.000413766
-0.390729
0.00125505
0.402142
-0.0118738
-0.422627
-0.0183568
0.32971
-0.0585121
0.0757729
0.171843
-0.314695
0.320624
-0.3815
0.359548
-0.371783
0.366226
-0.367334
0.369112
-0.365888
0.371891
-0.365824
0.372228
-0.369647
0.375497
-0.369454
0.387479
-0.330186
0.319905
-0.158298
0.313184
0.39348
0.195917
0.290305
0.211928
0.163489