/*--------------------------------*- C++ -*----------------------------------*\
| =========                 |                                                 |
| \\      /  F ield         | OpenFOAM: The Open Source CFD Toolbox           |
|  \\    /   O peration     | Version:  2306                                  |
|   \\  /    A nd           | Website:  www.openfoam.com                      |
|    \\/     M anipulation  |                                                 |
\*---------------------------------------------------------------------------*/
FoamFile
{
    version     2.0;
    format      ascii;
    arch        "LSB;label=32;scalar=64";
    class       volScalarField;
    location    "0.9";
    object      gradTy;
}
// * * * * * * * * * * * * * * * * * * * * * * * * * * * * * * * * * * * * * //

dimensions      [0 -1 0 1 0 0 0];

internalField   nonuniform List<scalar> 
5322
(
0.0434415
0.00586235
0.00205734
0.00154233
0.00167685
0.00131021
0.000817606
0.000443171
0.000217147
9.49161e-05
2.71353e-05
-2.97639e-05
-2.16961e-05
-2.14213e-05
-2.18277e-05
5.88184e-05
7.36706e-05
-1.09466e-06
7.53017e-05
-0.000162225
0.000224908
-0.000412022
0.000576418
-0.00100404
0.0013924
-0.00218509
0.00290372
-0.00446819
0.00574582
-0.00805804
0.0100151
-0.0134168
0.0165246
-0.0178359
0.0191664
-0.011815
0.0240773
0.0288209
0.0146857
0.0168414
0.0213113
0.0179639
0.0196196
0.0199339
0.0190166
0.0200058
0.0193235
0.0206609
0.0203876
0.0184083
0.0233271
0.00990633
0.0119497
-0.0353576
-0.00159194
-0.0201895
0.011472
-0.0261827
-0.00108761
-0.02273
0.0116397
-0.0257067
-0.000962308
-0.0225682
0.0116979
-0.0267042
-0.00139557
-0.0219521
0.0119101
-0.0300902
0.000789027
0.0214702
0.0118696
0.0166995
0.0123693
0.0157664
0.0130862
0.015735
0.013415
0.019005
0.00114838
0.00820061
0.0117475
0.0181033
-0.0009638
-0.00584188
0.00257062
0.00477306
0.0111308
0.00176866
0.00301036
0.000493944
5.97386e-05
5.03426e-05
0.0196645
-0.0120072
0.00040417
0.0121357
0.0003999
-0.000916029
0.0026445
0.000435135
0.0130758
-0.0191079
0.0171608
0.000540234
-0.0004381
-4.53737e-05
1.47676e-05
3.64189e-05
2.9491e-05
1.8551e-05
1.01387e-05
4.66566e-06
1.93633e-06
9.99235e-07
2.12152e-05
-5.41359e-06
-3.85768e-06
-1.20441e-05
1.754e-05
-5.25068e-06
-1.28065e-05
-1.9434e-05
-2.08268e-05
-5.21792e-07
1.71639e-05
-1.18441e-05
1.50795e-06
1.38437e-05
-1.34493e-05
6.34675e-07
1.41364e-05
-1.47322e-05
-7.47928e-07
1.27683e-05
-1.59137e-05
-1.61696e-06
-5.56438e-06
2.46394e-05
1.92332e-05
-1.68146e-05
9.46199e-06
7.4106e-06
-2.0519e-05
3.54707e-06
-1.78415e-05
1.27666e-05
1.47918e-05
-1.72032e-05
-4.33623e-07
-1.40848e-05
1.44825e-05
1.77618e-05
-1.43434e-05
2.30934e-07
-1.21014e-05
1.78593e-05
4.46852e-07
1.18482e-06
6.6048e-05
-4.89719e-05
8.69106e-05
-0.000146394
1.10913e-05
-4.72669e-05
5.31879e-06
1.07058e-05
-1.69847e-06
1.4205e-05
-2.73309e-05
2.81242e-05
-6.20318e-05
5.62116e-07
6.46279e-05
-9.88824e-05
0.0001037
-0.000167285
1.67359e-06
0.00016747
-0.00027598
0.000288324
-0.000454137
3.75721e-06
0.000449979
-0.000709743
0.000738647
-0.00111928
7.6727e-06
0.00110595
-0.00166305
0.00172647
-0.00250309
1.51616e-05
0.00246853
-0.003551
0.00367972
-0.00508347
2.87977e-05
0.00499985
-0.00690847
0.00714641
-0.00934911
4.86898e-05
0.00915125
-0.0121781
0.0125672
-0.0153018
7.85248e-05
0.0148692
-0.0191767
0.0193192
-0.0120606
-0.000104312
-0.00166377
0.000867775
-0.000455265
-2.32723e-05
9.60805e-05
0.000171774
1.77801e-05
0.0196855
-0.0120033
3.92708e-05
0.0145142
-0.00239393
-0.00121506
0.00109143
-0.000885037
0.0120464
-0.0193956
0.000123937
8.0619e-05
0.000239628
0.000110114
3.24003e-05
1.62254e-06
-5.86539e-06
-5.36838e-06
-3.00804e-06
-1.27953e-06
-7.53289e-07
-1.63404e-05
-1.80622e-05
-1.81969e-05
-1.62296e-05
5.23638e-06
3.09159e-06
4.96758e-07
-1.98099e-05
6.32278e-06
-1.71369e-05
2.9825e-06
5.24984e-06
6.17574e-07
-1.68556e-05
3.84741e-06
1.52e-05
8.40974e-06
-1.984e-05
6.375e-06
1.65968e-05
2.34321e-05
2.74263e-05
-6.4767e-05
-6.47901e-05
-6.87414e-05
7.78048e-05
-0.000150778
0.000225125
-0.000386138
0.000588291
-0.000934984
0.00139222
-0.00208978
0.00298181
-0.00429751
0.00577919
-0.00810754
0.0101357
-0.0138261
0.0158451
-0.00238003
0.0114136
-0.00113853
0.000838605
0.0137255
-0.012712
0.00104559
0.00918884
-0.00766352
0.000619964
0.00534857
-0.00409411
0.000343515
0.00278424
-0.00199117
0.000174686
0.00130211
-0.000890199
8.017e-05
0.000547155
-0.000367603
3.35206e-05
0.000205888
-0.000143711
1.85025e-05
6.80662e-05
-8.49907e-06
6.81637e-05
-0.000143422
1.85336e-05
7.80819e-05
-6.86293e-05
2.27012e-05
3.22094e-05
2.12095e-05
2.1951e-05
-6.02173e-05
6.13861e-05
-0.000134774
0.000197466
-0.000345038
0.000533001
-0.000840021
0.00127461
-0.00188845
0.002735
-0.00391547
0.0053053
-0.00741213
0.00928747
-0.0122676
0.0140291
-0.00106732
0.00868124
-0.00546038
0.00113766
0.0195096
-0.017869
0.00124187
0.0135217
-0.0103848
0.000688582
0.00777731
-0.00538993
0.000362771
0.0040055
-0.00258972
0.000182091
0.00188098
-0.00114717
8.33827e-05
0.000803244
-0.000466522
3.53426e-05
0.000310279
-0.000178856
1.93972e-05
0.000104847
-7.29182e-05
2.21568e-05
4.50284e-05
3.75555e-05
-1.8343e-05
5.7794e-05
-1.23552e-05
2.67063e-06
5.80228e-05
-5.34095e-05
7.46249e-05
-0.000119181
0.000187898
-0.000171514
-3.31337e-06
-0.000118607
0.000100216
-6.73559e-05
5.01773e-07
6.69288e-05
1.26152e-06
-2.58084e-06
-1.50897e-05
9.93771e-07
-1.25704e-06
6.20107e-07
-1.43425e-06
-1.14696e-06
6.36213e-05
-6.44272e-05
0.000100567
-0.000167313
5.25227e-07
0.000280679
-0.000449671
0.000722428
-0.00110428
5.55788e-06
0.00169499
-0.0024625
0.00362428
-0.0049846
2.19489e-05
0.00705255
-0.00912657
0.0123852
-0.0148767
-3.41866e-05
2.41955e-05
3.98728e-05
0.0001193
4.91166e-05
5.75683e-05
0.00714198
-0.00913641
3.42242e-05
0.0108864
-0.0142166
0.01267
-0.0147442
0.00012702
0.0180577
-0.0216047
0.0139665
-0.0111565
-0.0226183
-0.00184853
0.000216625
-0.00807052
-0.00222444
0.000205209
0.0102075
0.0119875
0.000696639
-0.0139367
0.00842205
-8.55104e-05
-0.00645038
0.00454453
-0.000131171
-0.00306945
0.00224466
-7.3417e-05
-0.00136829
0.00100233
-4.42574e-05
-0.000576419
0.000422367
-2.32991e-05
-0.000210244
0.000164042
-1.46346e-05
-7.14266e-05
9.25529e-06
2.03226e-05
-5.18875e-05
-1.01603e-05
0.000106699
-0.000180963
0.000196503
-0.000319797
0.000505631
-0.000785668
0.00125623
-0.00111703
-1.1616e-05
-0.000833784
0.000718759
-0.000456776
-7.17785e-06
0.000507583
2.14953e-06
-2.33494e-05
-9.95564e-06
-1.11452e-05
-6.06496e-05
-1.76005e-05
-5.30532e-06
-6.18764e-06
1.15587e-05
5.74078e-06
1.24432e-06
-2.95316e-06
4.18108e-05
1.30153e-05
8.20459e-07
1.17918e-05
-1.07744e-05
-3.62044e-05
-3.03569e-05
2.53669e-05
5.86036e-05
-6.53776e-05
-8.89708e-05
-0.000480315
-5.09047e-05
0.000661579
-0.00114552
0.00118872
-0.00175099
0.0025644
-0.00355451
0.00581115
-0.00501356
-7.32692e-06
-0.00413979
0.00364184
-0.00248376
-1.44742e-05
0.00282925
3.05008e-05
-6.77462e-05
-4.39879e-05
1.96811e-05
-0.000360809
-0.000185631
-0.000130508
-0.000161047
-7.59341e-05
-5.43906e-05
0.000270986
-2.25112e-05
-7.34722e-06
6.46492e-05
-9.17806e-05
-2.61096e-05
3.04435e-05
5.38925e-05
9.43217e-05
-4.91256e-06
-7.55636e-07
2.43098e-05
1.52531e-05
-0.000150397
-2.17418e-05
0.000226442
0.000206036
-0.000366415
3.36568e-05
-0.00038637
-5.46131e-05
0.000591211
0.00054829
-0.000886781
8.06935e-05
-0.000939598
-0.00011535
0.00139511
0.00130803
-0.00198414
0.000176212
-0.00210945
-0.000185306
0.00297446
0.00280764
-0.00408676
0.00034799
-0.00436078
-0.000128518
0.00570439
0.00543636
-0.00769347
0.000631725
-0.00824659
0.000585271
0.00974142
0.00948912
-0.012963
0.00106688
-0.0138537
0.00360746
0.0145469
0.0145429
-0.00162756
0.000846486
-0.00209134
0.0525016
-0.0268905
-0.0279124
0.0394572
0.0104653
0.00344811
-0.0280835
-0.00699923
-0.00431224
0.010799
-0.0114133
-0.000220918
0.000699147
-0.00262991
-0.00281499
-0.000634216
0.000722417
0.000332046
-0.000199669
-0.000385529
-0.000126081
0.000137504
3.31235e-05
1.10953e-05
2.59045e-06
-6.07774e-07
-1.45515e-06
-3.53371e-06
-1.47539e-06
2.84306e-05
-2.88291e-05
-5.97834e-07
-8.19412e-09
-2.96824e-05
2.89834e-05
-2.61904e-07
-4.01739e-08
-1.6562e-07
-2.31146e-06
-1.57382e-06
5.05789e-06
-5.17519e-07
5.80487e-06
-2.3103e-06
-2.81082e-06
-6.6289e-07
1.03289e-05
-1.33374e-05
1.37766e-05
-9.87436e-06
-1.01613e-05
-7.67924e-06
9.07339e-07
1.37875e-05
1.13897e-05
-1.10309e-05
-5.33978e-07
-1.35192e-05
1.2696e-07
3.13448e-07
-1.41889e-06
-6.8666e-06
-6.65695e-06
-9.86281e-06
-1.95751e-05
-4.75017e-05
-9.44558e-05
-0.000152808
-0.000165656
-7.0637e-05
0.00049301
-0.00156799
-0.000730248
-0.000319436
0.00330169
-0.00461821
0.00505919
-0.00669936
0.00903489
-0.000519898
-0.00871862
-0.000694292
0.00663554
-0.000274427
-0.000921755
0.00013881
8.71378e-05
0.000203028
0.000256756
-0.00025562
-0.00294586
0.010218
-0.00503257
-0.0158374
-0.00268565
-0.00366651
-0.041047
-0.0117643
0.00154794
-0.0177254
0.0126886
0.000673473
0.000523488
0.0152994
0.0127981
0.00157364
-0.00147575
0.0167249
0.0150579
0.00164897
-0.0017627
0.0152458
0.0171094
0.00154293
-0.00391487
0.0127589
0.0172666
-0.00624788
0.0104869
-0.00905763
0.00972688
-0.0379402
-0.0204337
0.00309802
-0.00937676
0.0168981
-0.00107214
-0.027209
0.0163981
-0.000285941
-0.0192617
-0.0192385
-0.0274771
0.00822929
-0.0140287
-0.00964484
0.0140324
-0.0223842
-0.00382018
0.013212
-0.0118571
-0.00134562
0.00827933
-0.00604727
-0.000655193
0.00448569
-0.00297432
-0.00036634
0.00220118
-0.00137212
-0.000189228
0.000989601
-0.000580557
-8.33732e-05
0.00040879
-0.000224077
-2.62268e-05
0.000160967
-7.58566e-05
7.25955e-06
5.75349e-05
-1.90379e-05
3.71704e-05
4.47755e-05
-7.34413e-05
0.000104623
-0.000180542
1.95312e-05
6.11397e-05
-6.03066e-05
2.20637e-05
2.17671e-05
2.13172e-05
3.21341e-05
2.73441e-05
2.26607e-05
4.68614e-05
3.04649e-05
-2.70864e-05
-9.27057e-05
-0.000211076
-0.000215021
-0.000463165
-0.000962599
-0.0007514
-0.000380773
-0.000242236
0.00153235
-0.00237899
-0.000177197
-9.95452e-05
-0.000182773
1.14076e-05
-0.0019441
0.00169433
6.79218e-06
0.00112404
-0.00170253
9.66426e-06
0.00251899
-0.0036261
2.8741e-05
0.00512282
-0.00703436
6.69667e-05
0.00940887
-0.0123469
0.000102651
0.0152501
0.000127338
0.000331577
-2.33974e-07
-3.79183e-05
-6.95174e-05
6.88148e-06
1.8052e-05
1.08791e-05
4.78156e-06
1.56346e-06
3.3941e-07
7.58164e-08
1.84205e-07
7.80777e-07
-2.81378e-05
9.21418e-07
2.32241e-06
9.20656e-09
-1.20051e-06
-3.69686e-06
-9.18284e-06
-2.25304e-05
-5.3875e-05
-0.000117046
-0.000163207
0.0006935
-0.000219824
-0.000564419
-0.000784965
0.0149472
-0.016034
0.0182007
9.55939e-06
-0.00259651
0.00214683
0.00650003
1.10415e-05
-0.00588611
0.00547894
0.00557855
-5.45435e-06
-0.00625518
0.00581408
0.00503139
-1.50741e-05
-0.00791374
0.00749213
0.00709868
-0.000165002
0.010568
-0.0111097
0.0108488
-0.0116075
-0.00108453
-0.0055359
0.00779227
-0.000719369
-0.00754145
-0.000182798
-5.22346e-05
0.025606
-7.77331e-05
-0.0257754
0.0169458
-0.00061369
-0.0175292
0.0175925
-0.000386276
-0.0184117
0.0259574
-0.000250373
-0.0259707
0.0212896
-0.0212287
0.0210724
-0.0216107
0.00012519
-0.0256732
0.0254054
-1.60964e-05
-0.0175987
-0.000698105
0.0177227
-0.0151809
5.50679e-05
0.0270966
0.0098849
0.0251922
0.00941183
-0.0098232
0.0139487
0.00213585
-0.00900854
0.00834972
0.000852998
-0.00561159
0.004654
0.000499812
-0.00305453
0.00244747
0.000268025
-0.00148861
0.00113436
0.000140905
-0.000668052
0.000496065
5.49596e-05
-0.000270253
0.00018395
1.21402e-05
-0.000107641
5.58854e-05
-1.89263e-05
-5.77684e-05
-1.29377e-05
-4.14077e-05
2.88938e-05
2.99225e-06
1.64271e-06
1.58636e-05
5.65606e-06
-2.4562e-05
-1.90447e-05
-3.71692e-06
-1.52688e-05
-8.43631e-06
-5.98882e-06
-1.70466e-05
-6.70874e-06
-7.32268e-06
-1.68045e-05
-2.4979e-05
-2.88286e-05
-2.2202e-05
6.91591e-05
8.81041e-06
-6.17679e-05
-1.7755e-05
0.000134709
0.000157618
2.15396e-05
-0.000186756
-3.36408e-05
0.000332739
0.000474718
-4.07491e-07
-0.000803962
4.11017e-05
0.00115834
-1.42374e-05
-0.00188038
8.57587e-05
0.00258036
-4.0637e-05
-0.00399385
0.000128459
0.00522301
-8.46924e-05
-0.00769568
0.000212311
0.00958082
-0.000180149
-0.0134903
0.000171018
0.0157531
-0.000455141
-0.0215497
-0.000453525
0.000727647
-0.0129414
0.0211711
0.00011462
0.011002
0.000444674
-0.00830664
0.0136661
-4.2017e-05
0.00649164
0.000308304
-0.00478955
0.00787993
-2.70963e-05
0.00353309
0.000190013
-0.00248096
0.00411518
-9.74017e-06
0.00174762
0.000110368
-0.00117039
0.00194938
-2.64006e-06
0.00078807
5.4112e-05
-0.000499113
0.000839563
2.43517e-07
0.000320803
2.47084e-05
-0.00019536
0.000329608
2.92262e-07
0.000120644
1.06187e-05
-7.41723e-05
0.000119711
-9.70329e-07
5.36406e-05
-2.43487e-06
1.24188e-05
-4.46395e-05
-3.69018e-05
1.88212e-05
-5.76384e-05
-7.5806e-06
6.61585e-06
-9.37842e-05
-5.35658e-05
-4.68837e-05
-2.6225e-05
-2.23301e-05
6.17654e-05
7.04784e-05
9.83565e-06
-5.81815e-05
-1.8848e-05
0.000182437
5.46674e-06
-0.000310615
2.26848e-05
-6.1225e-05
-2.31765e-05
-1.47203e-05
-8.12224e-05
6.97122e-06
1.68888e-05
-4.9685e-08
-4.8068e-06
-3.28085e-06
2.00745e-05
-5.60252e-06
2.76082e-06
2.40711e-06
1.18936e-07
1.8868e-07
1.59753e-07
4.1309e-07
3.09001e-07
8.8618e-07
-1.45669e-06
-8.77899e-07
0.000278076
-0.000326725
3.74572e-07
-1.77439e-06
-2.92957e-06
-1.09843e-07
-0.000103263
-1.94482e-07
0.000167708
-0.000284997
2.29507e-07
0.000455177
-0.000729023
2.37442e-06
1.5053e-06
-1.60961e-06
9.50749e-07
1.43403e-06
1.39893e-05
2.24386e-05
1.50585e-05
6.60512e-06
2.54705e-06
1.88968e-06
6.51884e-06
3.00006e-06
8.32596e-07
0.000166478
-0.000268137
0.000243641
-0.000390448
0.000624279
-0.000957686
3.011e-05
-0.000252791
2.78983e-05
0.000242077
1.90429e-05
-0.000102867
1.2329e-05
8.51099e-05
-1.43124e-06
5.42362e-06
3.03554e-05
-6.90333e-06
-8.74258e-05
0.000487641
4.17418e-05
-0.000485474
-7.63879e-05
0.000759048
0.00100768
0.000125312
-0.00118323
-0.000159943
0.0017788
0.00215811
0.000250108
-0.00254757
-0.00031482
0.00354429
0.00434259
0.000417412
-0.00503081
-0.000550948
0.00630915
-0.00889969
-0.000848924
0.00986464
-0.014451
-0.000580298
-0.000567261
-0.000102266
-1.44235e-05
2.14569e-05
2.28904e-05
1.59129e-05
9.22024e-06
4.39939e-06
1.793e-06
9.37741e-07
1.647e-05
1.82783e-05
1.84027e-05
-2.06799e-06
1.74501e-05
7.35765e-06
7.07209e-06
1.80757e-05
-1.23163e-06
2.01754e-05
-5.43122e-06
1.14388e-06
-9.89769e-07
1.66154e-06
-1.66045e-07
2.18013e-06
9.4861e-07
-9.64477e-05
8.31214e-06
3.85729e-06
1.99841e-06
3.83119e-07
1.34031e-07
-1.1127e-05
1.14516e-05
9.23032e-07
-7.90364e-06
1.62983e-05
-4.63592e-06
2.41443e-06
2.04139e-05
1.00301e-05
2.03224e-06
1.89961e-05
-9.25511e-05
9.00839e-06
-6.39535e-05
-1.84441e-05
0.000128129
0.000162287
2.03019e-05
-0.000190052
-3.10338e-05
0.000407173
5.47377e-05
-0.000495439
-7.51842e-05
0.000812358
0.000981502
0.000122545
-0.00120276
-0.000167411
0.00176388
-0.00258612
-0.000321256
0.0035225
0.000307021
0.000189862
0.000103785
4.98681e-05
2.02881e-05
2.34161e-06
1.91976e-06
8.69103e-07
2.17994e-06
9.19479e-07
-7.80477e-07
-2.6723e-06
-1.63444e-06
-1.1601e-06
-3.10322e-06
-2.00108e-05
-2.01171e-05
-4.98261e-05
-5.30847e-05
-0.000100631
-0.00011689
-0.000445719
-0.000914285
-0.00184051
-0.00198947
-0.00411246
-0.00355222
-0.00200016
-0.00813808
-0.0244758
0.00119494
-0.039531
-0.0296999
-0.0230104
-0.0153732
-0.0134138
0.00497544
-0.0117497
-0.000454915
0.00311664
0.000440129
-3.39319e-05
0.0145674
-0.0167563
0.0185426
0.000170891
-0.00233099
0.0034783
0.00754268
0.000251717
-0.0053146
0.00705787
0.00703071
0.000255444
-0.00567628
0.00726335
0.00661653
0.000185701
-0.007615
0.00831452
-0.000363113
0.000349092
0.000319527
0.00285348
-0.0119634
-0.0171406
0.0010813
0.0134121
0.000232846
-2.3386e-06
0.0083518
0.000126335
-0.0136377
0.0174255
4.49351e-05
-0.0206855
0.012255
-0.011362
0.00976682
-0.002341
-0.0140868
0.000292003
-0.0178686
0.0241862
-0.0211548
0.0181694
-2.11334e-05
-0.0181792
2.41326e-05
0.0179991
-5.594e-05
-0.0180899
8.21295e-06
0.0181668
-7.29505e-05
-0.018235
0.021538
-0.0246188
0.00186824
-0.0205423
0.0284255
0.00156638
0.000906832
-0.00980783
0.0103572
-0.0107568
4.54735e-05
-0.00756136
0.00695607
0.000494277
-0.00866402
0.00629528
-0.00752039
0.000753286
0.0151589
-0.008126
0.00472708
0.000927383
-0.00880359
0.00695905
-0.000163513
-0.00012584
-1.1945e-05
0.000198893
8.3023e-05
1.85431e-05
-4.05018e-06
-7.80885e-06
-5.90428e-06
-3.11652e-06
-1.31812e-06
-7.4073e-07
8.05905e-06
1.04183e-05
-5.15773e-08
-2.39664e-06
-1.57943e-06
1.5282e-05
3.8338e-06
-1.67423e-05
7.45283e-06
9.39417e-06
-1.7947e-05
-5.82851e-07
-1.59092e-05
-1.60062e-06
-5.62654e-06
-1.53264e-05
1.92465e-05
2.48427e-05
1.02551e-06
5.06398e-06
-1.33889e-06
5.80818e-07
1.27642e-05
-1.43822e-05
-2.99708e-07
-1.73877e-05
1.76451e-05
1.46575e-05
-1.24548e-05
2.25853e-07
-1.44923e-05
3.85366e-08
1.45923e-05
6.23236e-08
2.13228e-07
-1.52285e-06
-2.62231e-06
1.88781e-06
-7.36093e-06
9.42402e-05
5.37851e-05
2.98777e-05
-2.74522e-05
-9.50644e-05
-0.000219515
-0.000463977
-0.000938461
-0.00185147
-0.00363441
-0.00365165
-0.00754147
-0.0081924
-0.0180633
-0.0291129
-0.0265059
-0.0266061
0.0109217
-0.0147976
-0.00814351
-0.00879366
-0.0250991
-0.0296469
-0.0269467
-0.026975
-0.0266735
-0.0267835
-0.0306997
0.0110658
-0.000849209
-0.00496937
0.0322121
-0.0085515
-0.022461
-0.0204731
-0.00604341
-0.00731912
-0.0170584
-0.0175465
-0.00155235
-0.0032017
0.000895247
0.000917226
0.00059165
0.000317681
0.000152896
0.00011689
4.66006e-05
4.58104e-05
1.49717e-05
2.33914e-05
-6.63786e-05
-0.000167479
-0.000361623
-0.000724013
-0.00139846
-0.00277464
0.00115971
0.00090732
0.000852985
0.000713733
0.000465443
0.000250952
0.000248304
0.000115302
0.000147766
6.20441e-05
0.000196542
0.00030786
-0.000468029
0.000795397
-0.00114322
8.28143e-05
0.000528711
-0.00034661
3.54027e-05
-3.17114e-06
-1.91944e-05
-2.00435e-05
-0.000135438
-6.51205e-06
-1.69255e-05
8.48869e-06
-9.20378e-06
-1.6481e-06
-2.71273e-06
3.50901e-06
-2.06099e-05
1.47814e-05
-1.36101e-07
8.78146e-09
1.74743e-08
-5.38008e-08
8.19969e-06
-5.23702e-07
2.48731e-07
1.98466e-07
3.55328e-07
-4.92138e-06
2.24462e-07
2.39277e-06
1.61418e-06
2.10422e-06
-9.51368e-07
1.37315e-06
1.78314e-08
2.68321e-07
-4.94069e-06
2.07649e-05
1.81446e-05
-9.11483e-06
-3.23682e-06
-7.37741e-06
1.69217e-05
3.33396e-06
1.70913e-06
2.76793e-07
1.06223e-07
-1.20753e-06
-8.94824e-07
-1.63044e-06
-9.94705e-06
-2.92189e-06
-2.35294e-05
4.47175e-06
-4.7039e-05
-5.15246e-05
-9.4969e-05
-0.000112611
-0.000841257
0.00126067
0.00186183
-0.00256475
0.00395954
-0.00528168
0.000348586
0.00269573
-0.00188278
0.000178186
2.46122e-06
-4.49631e-05
2.26666e-05
-7.07087e-05
7.18419e-05
-0.000158197
-0.000191125
-0.00016547
-0.000194991
-0.000190306
-0.000169987
-1.67117e-05
3.59583e-05
1.56283e-05
0.00252588
0.000126756
0.000105777
3.50093e-05
7.04965e-06
-1.55914e-06
-2.74195e-06
-1.86713e-06
-1.16585e-06
-6.06391e-06
6.83976e-07
-3.44595e-07
-7.46333e-06
1.20785e-05
4.13362e-06
6.50533e-06
2.61498e-06
-3.68771e-07
4.02208e-06
3.9918e-06
8.10407e-07
2.17466e-06
5.23603e-06
1.11688e-05
-1.66101e-06
4.54859e-05
1.74811e-05
2.70126e-05
0.000127869
4.67879e-05
0.000105557
0.000300299
0.000230791
0.000489585
-0.00245782
-0.00271799
-0.000409024
0.000386268
0.0005348
0.0002322
-0.00650503
-0.000170493
-9.31648e-05
-8.27718e-05
-0.00068957
-0.000212651
0.0157537
-0.000220153
-0.0188229
-0.000151997
-0.000768977
-0.0175352
-0.000814779
-0.000946608
-0.0120345
-0.00643504
-0.0103255
-0.0244333
0.00264756
0.00609554
0.00035929
-0.000343505
-0.000299842
-0.000533561
5.36979e-05
-0.014153
0.0180059
9.31327e-05
-0.00407683
0.00185885
0.00602928
3.80213e-05
-0.0075916
0.00482866
0.00487229
-9.47243e-06
-0.00781156
0.00515194
0.00434021
-5.68423e-05
-0.0072029
0.00179145
-0.0111508
0.0056696
0.00869403
-0.0102705
0.00295939
0.00114943
-0.000597996
-9.15361e-05
-1.0963e-05
2.62916e-05
2.59463e-05
1.75249e-05
9.9474e-06
4.53653e-06
3.88806e-06
5.58602e-06
1.63008e-05
0.000442739
-0.00069199
3.2008e-05
0.00108294
-0.00162467
0.00145702
-0.00214474
0.00309931
-0.00437705
8.73598e-05
-0.0013609
9.99759e-05
0.00129476
5.27179e-05
-0.000609767
5.65751e-05
0.000591012
1.66138e-05
4.79987e-05
0.000205355
-4.26603e-05
-0.000446966
0.00262945
0.000185676
-0.00244335
-0.000315232
0.00340957
0.0044446
0.000429529
-0.00492161
-0.000545941
0.00772769
0.000734826
-0.00878981
-0.000907302
0.00985554
0.0125826
0.000828523
-0.0171996
-0.000770326
-0.0143099
-0.0169921
0.0009389
0.0122199
0.0101325
-0.0140488
-0.000713533
-0.000592408
0.000625368
0.000473438
0.000329609
0.000201222
0.000108562
5.13273e-05
2.6298e-05
5.42102e-05
1.19465e-05
1.05612e-06
1.95367e-05
-2.94758e-07
0.00240984
-0.00347231
0.000112961
0.0048758
-0.00676622
0.00602845
-0.00810867
0.0107726
-0.0133053
-0.000301107
-0.00483979
0.000125981
0.00489868
8.61704e-05
-0.00279033
0.000143748
0.00259928
2.75105e-05
0.000193578
0.000978799
-5.7143e-05
-0.00144449
0.00975479
0.000463447
-0.00814793
-0.000903459
0.0103712
0.0125258
0.000837062
-0.0177121
-0.000691436
-0.0126926
-0.0229087
0.000317828
0.0156252
-0.00149002
0.00764908
-0.000331158
0.00497399
0.00486876
0.00234257
0.00147471
0.00922136
-0.00530179
-0.000147771
0.00140125
0.000737823
0.00043238
0.000250754
0.000132831
6.26844e-05
2.51879e-05
8.87606e-06
3.57837e-05
-2.11584e-05
-3.54859e-05
-9.33858e-06
7.61379e-06
-2.4201e-05
8.01682e-05
-2.55599e-05
-2.88312e-05
-3.07634e-05
-2.08287e-05
6.01961e-05
7.01281e-05
8.85876e-06
-6.58689e-05
-1.76994e-05
0.00015793
2.07359e-05
-0.00018605
-3.15136e-05
0.000340177
0.000406441
5.46043e-05
-0.000503097
-7.87662e-05
0.000800627
-0.000143618
-0.000110496
-0.00061707
-4.42525e-05
-0.000235962
9.46425e-05
9.51034e-05
2.73603e-05
-3.12242e-05
-4.86098e-05
-2.68034e-05
-2.456e-05
-5.55078e-05
-1.10704e-05
-7.59431e-06
4.52051e-06
4.22183e-07
0.000189008
1.66659e-05
-0.000187099
-3.23945e-05
0.00031638
0.000417742
5.40621e-05
-0.000498422
-7.39289e-05
0.000980587
0.000126601
-0.00118397
-0.000162597
0.00178093
0.00216662
0.000237868
-0.00311794
-0.000441587
-0.000236143
-0.00145805
0.000421027
0.000423798
0.000211231
-4.89892e-05
-0.000229863
-1.63388e-05
-7.28653e-05
2.85739e-05
-3.59695e-05
-3.81641e-05
3.87966e-05
9.89726e-05
-5.87015e-05
-0.000280449
0.000119905
2.03749e-05
8.66189e-05
-2.0007e-05
0.00118413
9.53618e-05
-0.00114431
-0.000164149
0.00168127
0.00222157
0.000246774
-0.00253651
-0.000309394
0.00430848
0.000441658
-0.00496248
-0.000555655
0.0063179
0.00784522
0.000685038
-0.0106732
0.000436407
-6.19596e-05
-1.43812e-05
1.44356e-05
8.35296e-06
4.19413e-06
1.813e-06
7.11017e-07
-1.34682e-06
-1.99407e-06
1.89193e-07
-2.97874e-06
-2.4264e-06
-1.47037e-06
5.20599e-06
2.30616e-05
4.16435e-05
1.05744e-05
2.30453e-06
-9.72689e-07
-4.17044e-07
-9.37116e-07
-4.26884e-07
0.000283056
5.14478e-07
-0.000281223
0.000456201
1.25586e-06
-0.0007215
0.00072569
-0.000453573
0.000457715
-1.48665e-08
-0.000734967
0.000718884
-0.000457792
0.000279473
-1.04755e-06
-0.000287891
0.000169038
-0.000168968
0.000169993
-0.000167831
2.02098e-06
-0.000277422
0.00028937
2.46525e-06
-0.000454914
2.42014e-06
-0.000714625
0.000738789
4.45475e-06
-0.00112059
2.26753e-06
-0.00167377
0.00171697
-0.00168299
0.00169163
2.74248e-06
0.00111833
-0.00111237
9.19564e-08
0.00112654
3.1999e-06
-0.00170859
0.00168235
-0.00111833
-1.28595e-05
-0.00083487
0.000503006
1.48546e-06
0.000508501
-7.29022e-06
-0.000328154
0.000197026
3.75016e-07
0.000189075
-0.000172045
0.000100911
-1.23911e-06
-0.000104418
-3.41489e-07
0.000101817
2.02221e-07
-0.000101115
1.15221e-06
0.000104882
1.61169e-06
-0.000100047
0.000172809
-0.000187909
3.93759e-06
3.72159e-06
1.75905e-06
3.58513e-06
1.83297e-06
-2.84335e-05
3.03245e-05
-2.95724e-05
2.97075e-05
5.37261e-08
-7.95763e-09
-2.78068e-07
-3.0261e-05
2.86159e-05
-1.72934e-06
-9.78974e-07
1.28269e-05
-1.50276e-05
-1.23418e-07
-3.11078e-07
6.44954e-05
-6.5919e-05
6.62537e-05
-6.40531e-05
6.79661e-05
-6.68419e-05
-2.95062e-07
6.57944e-07
-1.27002e-05
1.06727e-06
1.50781e-05
-4.67989e-07
1.90042e-06
2.72503e-06
5.93187e-07
1.48504e-06
3.28761e-06
2.57881e-06
2.8673e-06
-0.00247399
4.41703e-06
-0.00356363
0.00357863
-0.00360851
0.00357456
1.11908e-05
0.00251206
-0.00248124
-1.8965e-05
-0.00193864
0.00117621
7.07378e-06
0.00125277
-0.000785991
-5.10467e-05
-0.000484922
0.000663761
-0.000130997
-0.00112944
0.00150254
-0.000244995
-0.00238263
0.0031344
-0.000379143
-0.00456408
0.00598679
-0.000610093
-0.00819791
-0.00118106
-0.000413489
-0.000581909
-0.00020393
-0.000326953
-0.00012442
-0.000181874
-6.82513e-05
-9.1763e-05
-3.10122e-05
-5.72151e-05
0.000270961
-0.000320619
-2.34897e-05
-0.000184716
0.000107375
-1.23107e-05
-9.27061e-06
-4.11477e-05
-1.32724e-05
-5.6194e-05
-1.0183e-05
7.49491e-05
1.20171e-06
-0.00011947
-3.23552e-06
-2.91027e-06
5.94812e-06
1.10018e-06
-2.95541e-06
-2.89525e-05
4.16489e-05
1.31528e-05
5.79195e-05
1.87392e-05
1.05889e-05
-2.79643e-07
2.60485e-06
-5.38513e-05
6.73172e-05
-6.77814e-05
4.3237e-07
-7.25814e-07
-3.63156e-06
-1.39079e-06
-5.77605e-07
1.19085e-05
2.56111e-05
5.54536e-05
0.000113856
2.30588e-05
-0.00409631
0.00250116
-0.00175025
0.00280398
6.14906e-06
-3.89066e-07
-2.13466e-06
-1.46756e-08
2.10483e-06
8.14505e-06
2.08352e-05
2.77922e-05
-1.93446e-05
-0.00499309
2.53954e-05
-0.00690657
0.00688389
-0.00786345
0.004825
6.13459e-05
0.00570354
-0.00355456
-0.000147178
-0.000127622
0.000578504
0.000461094
0.00071601
0.00092363
0.00518419
0.00765374
-0.0100025
0.00120196
1.90039e-05
-7.47615e-05
0.000269782
-0.000190344
-0.000187516
-0.00387227
-4.8318e-05
0.000298004
-0.00725447
0.000632806
7.84954e-05
2.67748e-05
7.44807e-05
0.00019381
0.000289137
0.000120042
3.80798e-05
1.30518e-05
1.13282e-05
1.33231e-05
1.9335e-05
2.64269e-05
1.44312e-05
8.12911e-06
1.53598e-05
8.212e-06
7.75829e-06
4.78796e-06
8.89485e-06
1.19424e-05
6.14969e-05
1.68683e-05
8.74202e-06
5.57982e-06
3.98287e-06
1.47591e-06
7.27894e-07
3.09362e-06
1.97938e-06
2.80816e-06
-2.40628e-06
4.86525e-06
1.33639e-05
1.15104e-05
2.34385e-05
3.73037e-05
4.23448e-05
8.72882e-05
4.00326e-05
8.24729e-05
3.54566e-05
0.00894265
-0.0119873
0.000264019
0.0146488
0.000298347
5.30016e-05
0.000177904
0.00121568
-0.00308461
0.012128
-0.0103199
0.0217367
0.00311266
0.0127979
-0.0115328
0.010172
-0.00958345
0.00715771
0.00811184
-0.0103618
0.00230486
-0.0113529
0.00756891
0.00781017
0.0144598
-0.000812365
-0.000359434
-0.00181598
-0.000155371
-0.00688381
-0.000165562
-3.12098e-05
2.31642e-05
3.46084e-05
5.7937e-05
2.51003e-05
2.49048e-05
2.88552e-05
2.72624e-05
-5.47536e-06
2.93902e-05
-8.43643e-06
0.000264208
0.000164092
9.88328e-05
-0.00383035
0.00532018
0.000316987
-0.00471128
-0.000552895
0.00630434
0.00797973
0.000689667
-0.00866831
-0.000885961
-0.0105839
0.000474794
0.000332495
-1.12814e-05
1.0852e-05
-6.0437e-06
0.000193688
2.91994e-05
1.41835e-05
1.90584e-05
1.34769e-05
2.07435e-06
0.000110528
5.24776e-05
2.08533e-05
-0.000227416
-4.3477e-05
0.000339867
-1.44653e-05
0.000135573
-7.55614e-05
-4.69177e-05
6.34476e-05
-2.94292e-05
-2.49949e-05
-3.10958e-05
2.74803e-05
-0.000109761
-0.000122027
-0.000618061
0.000229398
-0.000121473
-0.000205599
0.000258113
0.000472312
-0.000245155
-0.0017795
0.000495467
9.35585e-05
0.000446125
-6.88985e-05
-0.000871081
-0.000439571
0.000899351
0.00151706
0.000888438
-0.000260639
-0.00147864
-0.000235981
-0.00143778
0.000780212
-0.000489794
-0.00318133
-0.00044246
0.00355762
0.00126559
-0.000834901
-0.00620039
-0.000608415
-0.00752948
0.00181197
0.000590932
0.00255687
0.000104511
-0.0136337
7.02716e-05
0.00231978
0.00308317
0.00421289
0.0122468
0.0286742
0.0151319
0.0223055
-0.00231348
-0.00133802
-0.0109885
0.00165755
0.00157043
0.00319807
0.0148344
0.0216373
-0.00220327
-0.00120258
-0.000749219
0.006402
-0.00599662
0.00121284
0.00076847
0.00147096
0.00120114
0.00268159
0.0136166
0.0218414
-0.00225767
-0.00120708
-0.000748776
-0.00604887
-0.000922473
-0.000551461
-0.000300729
0.000347625
0.000163446
6.4548e-05
2.52348e-05
8.2051e-05
0.000654934
0.00108665
0.00152892
-0.00138806
-0.00194435
0.00263568
0.0124145
0.0244107
-0.00407447
0.00542482
0.00238694
0.00176072
8.84091e-05
-0.000132439
-6.57194e-05
-2.8263e-05
-1.00766e-05
-2.30949e-06
4.84468e-07
1.56602e-06
4.94909e-07
1.92606e-07
-3.71931e-07
1.28459e-06
5.78135e-07
5.02336e-07
9.66681e-07
-1.16171e-06
-5.69753e-06
-1.1189e-05
4.07225e-06
9.09614e-06
-0.000506458
0.000460068
5.18302e-06
3.11055e-06
3.76431e-06
2.11052e-06
3.75615e-06
4.81691e-06
1.08043e-05
2.92357e-06
1.52108e-05
-0.000105158
1.3353e-05
2.58122e-05
6.87338e-06
5.56944e-06
7.04575e-06
4.35116e-06
9.18371e-07
1.15386e-05
8.48707e-06
7.81819e-06
8.5795e-06
6.19764e-06
8.53072e-06
2.96318e-05
2.72157e-05
0.00685326
2.36772e-06
-0.0068352
0.00911952
-1.46168e-05
-0.0118252
0.0118209
-0.0091069
0.00927157
3.30662e-05
-0.0119247
0.0119511
-0.0090961
2.99584e-06
0.0105353
-0.00663655
-0.000152485
-0.000138636
8.91882e-05
0.000214404
0.000316818
-4.32874e-05
-0.00140579
-0.00290891
-0.00520954
-7.14614e-05
-0.00187991
-0.000818336
-0.000241904
0.00023762
0.000217077
5.36998e-05
4.04375e-05
3.7463e-05
1.54507e-05
0.0050746
-0.0049877
0.00500473
-0.00505567
-1.26246e-05
-0.0068384
0.00692577
-9.70715e-07
-0.00925835
-4.1578e-05
-0.011872
0.0119356
-1.73417e-05
-0.0152329
0.0150094
-0.0172068
1.70332e-05
-0.000137244
-4.74659e-05
1.12766e-05
2.20094e-05
9.23897e-05
0.000237896
0.00041262
0.00308177
-0.00237126
0.0529202
-0.00146045
-0.000224574
-0.00100803
-0.0109685
0.00256729
0.00643281
0.000481269
-0.00012786
-0.00545376
-0.000159653
0.000109527
0.000226397
1.92676e-05
2.54034e-05
0.000553599
0.000326578
-0.017521
0.0158034
-0.000816796
-0.000480157
-0.000203517
0.00310675
-0.000894755
0.00253663
0.00418384
0.00777539
0.0148132
0.00309007
-0.00786787
0.00319805
-0.0113201
0.00255209
0.00109143
-0.00751947
0.000569952
-0.0001228
4.027e-06
-2.69783e-05
6.76485e-06
9.36322e-05
-8.20397e-05
-0.0001905
-5.49272e-05
-0.000205092
-4.39177e-05
4.70401e-06
-2.54822e-06
8.92859e-06
-1.85945e-06
4.68157e-07
-3.30067e-05
2.53981e-06
5.22136e-05
0.000123561
0.000201598
0.00478952
0.0207396
0.00106748
-0.00224615
0.0132345
0.00108117
-0.00150006
-0.00144424
-0.00252484
0.0526199