/*--------------------------------*- C++ -*----------------------------------*\
| =========                 |                                                 |
| \\      /  F ield         | OpenFOAM: The Open Source CFD Toolbox           |
|  \\    /   O peration     | Version:  2306                                  |
|   \\  /    A nd           | Website:  www.openfoam.com                      |
|    \\/     M anipulation  |                                                 |
\*---------------------------------------------------------------------------*/
FoamFile
{
    version     2.0;
    format      ascii;
    arch        "LSB;label=32;scalar=64";
    class       volScalarField;
    location    "0.9";
    object      gradTz;
}
// * * * * * * * * * * * * * * * * * * * * * * * * * * * * * * * * * * * * * //

dimensions      [0 -1 0 1 0 0 0];

internalField   nonuniform List<scalar> 
5322
(
-0.0575021
-0.0489669
-0.0357462
-0.0385255
-0.0237781
-0.0133764
-0.0068483
-0.00319439
-0.00136448
-0.000545678
-0.000225312
-0.000139614
-8.16561e-05
-0.000126145
-0.000147708
-0.000148924
-0.000169115
-0.000154638
-0.000276114
-0.000432109
-0.000744493
-0.0011504
-0.00190096
-0.00284088
-0.00444895
-0.00629192
-0.00936094
-0.0127836
-0.0180344
-0.0233469
-0.0312819
-0.039029
-0.0493132
-0.0575109
-0.0652227
-0.0599942
-0.0725681
-0.0702499
-0.0723112
-0.0543011
-0.066877
-0.0690448
-0.0531837
-0.069025
-0.0683229
-0.0541657
-0.0700677
-0.066312
-0.0537051
-0.0692886
-0.0801981
-0.0523983
-0.0745103
-0.0633704
-0.0544924
-0.0597796
-0.0763019
-0.0584836
-0.0542521
-0.0594747
-0.0770052
-0.0592587
-0.0542111
-0.0580332
-0.0770502
-0.0614728
-0.0540903
-0.0552737
-0.0758522
-0.0659041
-0.0452329
-0.0642212
-0.0610893
-0.0601485
-0.0606661
-0.0603759
-0.0603338
-0.0602201
-0.061338
-0.0589145
-0.0582407
-0.0488627
-0.050713
-0.0627413
-0.0388422
-0.054704
-0.0844973
-0.057339
-0.0566259
-0.0478887
-0.0582165
-0.0349491
-0.036754
-0.0367758
-0.04985
-0.0517866
-0.0471876
-0.0524198
-0.0858291
-0.0555507
-0.0563601
-0.0484856
-0.0528564
-0.0493653
-0.0540375
-0.0459913
-0.0480451
-0.0390113
-0.0240931
-0.0135736
-0.00694529
-0.00323015
-0.00136902
-0.000539378
-0.000243172
-0.000155605
-0.000120774
-0.000122746
-0.000212701
-0.000129878
-0.000104681
-0.000112928
-0.000111134
-0.000147687
-0.000114082
-0.000145336
-0.000110187
-0.000115334
-0.000144666
-0.000111624
-0.000114528
-0.000146947
-0.00011358
-0.000112553
-0.000146796
-0.000113799
-0.000111865
-0.0001492
-0.000115134
-0.000146684
-0.000111309
-0.000105561
-0.000130663
-0.000121653
-0.000121367
-0.000213711
-0.000123337
-0.000123128
-0.000120724
-0.000122484
-0.000219005
-0.000123814
-0.000123453
-0.000121873
-0.000121192
-0.000218471
-0.000122839
-0.000121107
-0.000104886
-0.000148352
-0.000149281
-0.000170147
-0.00031083
-0.000476631
-0.000230704
-0.0002781
-0.000155529
-0.000172184
-9.3885e-05
-0.000121217
-0.000126847
-0.000119744
-0.000164389
-0.000155446
-0.000158628
-0.00030069
-0.000297428
-0.000456371
-0.000296226
-0.000457793
-0.000763799
-0.000763318
-0.00119846
-0.00078593
-0.00120334
-0.00191909
-0.0019191
-0.00291443
-0.00196078
-0.00292288
-0.0044493
-0.00445023
-0.00646457
-0.00446543
-0.00648192
-0.00941069
-0.00941775
-0.0130417
-0.00925039
-0.0130797
-0.0181262
-0.0181543
-0.0239151
-0.0174134
-0.0239898
-0.0316898
-0.0317726
-0.0398054
-0.0296365
-0.0399545
-0.0495316
-0.0496184
-0.0523513
-0.0858012
-0.0555152
-0.0553619
-0.0486241
-0.0653593
-0.0652295
-0.0367594
-0.0368496
-0.0497971
-0.0522248
-0.0468742
-0.0532364
-0.0858643
-0.0559175
-0.055271
-0.0487641
-0.0521192
-0.0495754
-0.0471435
-0.0468333
-0.0389394
-0.0241188
-0.0136085
-0.00696655
-0.00324037
-0.00137326
-0.000540974
-0.000243892
-0.000156165
-0.000121417
-0.000122244
-0.000122175
-0.000121043
-0.000218569
-0.000123493
-0.000122961
-0.000110012
-0.000114937
-0.000192236
-0.000123485
-0.000218914
-0.000123373
-0.000190199
-0.000115892
-0.000145298
-0.00011221
-0.000110222
-0.000115081
-0.000145935
-8.19571e-05
-0.000124139
-0.000158948
-0.000158779
-0.000164735
-0.000298148
-0.000457064
-0.000765041
-0.00119961
-0.00192282
-0.0029158
-0.00445755
-0.00646614
-0.00943172
-0.0130423
-0.0181825
-0.0239072
-0.0318321
-0.0397596
-0.0499876
-0.0517527
-0.0858839
-0.0526683
-0.0471852
-0.049426
-0.0400754
-0.0296628
-0.0316945
-0.0240374
-0.0174301
-0.0181455
-0.0130966
-0.00925905
-0.00942379
-0.00648833
-0.00446969
-0.00445644
-0.00292562
-0.00196291
-0.00192311
-0.00120437
-0.000786957
-0.000766
-0.000458092
-0.000296635
-0.000301581
-0.000196074
-0.000301718
-0.000458277
-0.000296971
-0.000298527
-0.000165079
-0.000156133
-0.000120156
-8.2336e-05
-0.000127987
-0.000150195
-0.000299937
-0.000455651
-0.000763182
-0.0012037
-0.00192693
-0.00292689
-0.00448247
-0.00649262
-0.00950399
-0.0130997
-0.0183788
-0.0239504
-0.0323186
-0.0394981
-0.0504107
-0.0521436
-0.0851197
-0.0556754
-0.0459532
-0.0545061
-0.0436439
-0.0289459
-0.0347318
-0.0258974
-0.0169733
-0.0197239
-0.0139861
-0.00898725
-0.0101898
-0.00689251
-0.00432932
-0.00480589
-0.00309377
-0.00189699
-0.00206287
-0.0012641
-0.000757824
-0.000813028
-0.000477568
-0.000283066
-0.000311395
-0.000170764
-0.000149274
-0.000121994
-0.000116724
-0.000112292
-0.000172298
-9.4044e-05
-0.000108071
-0.000150675
-0.00014608
-0.000300025
-0.000465739
-0.000452415
-0.000456682
-0.000292265
-0.000294787
-0.00030127
-0.000152833
-0.000153636
-0.000165442
-0.000192412
-0.000188866
-0.000178953
-0.000121661
-0.000117182
-0.000189794
-0.000207854
-0.000195339
-0.000163696
-0.000159849
-0.000301454
-0.000458187
-0.000487811
-0.00076589
-0.00120431
-0.00192307
-0.00292539
-0.00295554
-0.00445937
-0.00648461
-0.00943907
-0.0130742
-0.0126562
-0.0181951
-0.0239488
-0.0318075
-0.0398487
-0.0368349
-0.0367414
-0.0227417
-0.0227902
-0.0128364
-0.012714
-0.0183301
-0.0240062
-0.0174801
-0.0243024
-0.0317915
-0.0321276
-0.0396842
-0.0297144
-0.0407123
-0.0492069
-0.056055
-0.0513912
-0.0875766
-0.0576343
-0.0543854
-0.0506701
-0.0643441
-0.0351234
-0.0323136
-0.0428314
-0.0249386
-0.0325787
-0.0247029
-0.0142259
-0.0184755
-0.0130934
-0.00745223
-0.00956117
-0.00642393
-0.0035792
-0.00448418
-0.00284944
-0.00156001
-0.00191904
-0.00115278
-0.000619128
-0.000743079
-0.000428894
-0.000229515
-0.000276959
-0.000165207
-0.000156855
-0.000254152
-0.000273175
-0.000385587
-0.000679926
-0.000765689
-0.00123102
-0.00195627
-0.0030028
-0.00291215
-0.00293297
-0.00195697
-0.00192887
-0.00192486
-0.00120621
-0.000782107
-0.00119173
-0.00123747
-0.00122263
-0.000476268
-0.00040069
-0.000507253
-0.000446156
-0.000421291
-0.000511708
-0.000539338
-0.000223057
-0.000138092
-8.38271e-05
-0.000150737
-8.83718e-05
-0.000149611
-0.000204973
-0.000327819
-0.000846508
-0.00132677
-0.00135882
-0.00321197
-0.00319003
-0.00209863
-0.0017527
-0.0018807
-0.00261698
-0.00408142
-0.00458874
-0.00667312
-0.00977294
-0.013499
-0.0131521
-0.0131232
-0.00926982
-0.00948939
-0.00948588
-0.00650563
-0.00446669
-0.00648776
-0.00644421
-0.00624091
-0.00289361
-0.00249871
-0.0030476
-0.00288334
-0.00273145
-0.00128711
-0.00116914
-0.00110756
-0.00105435
-0.000744703
-0.00104267
-0.000869134
-0.000550347
-0.000227816
-0.000141113
-0.000148863
-0.000129466
-0.000206859
-0.000155131
-0.000336578
-0.000339116
-0.000457838
-0.000485725
-0.000765837
-0.000766619
-0.00120443
-0.000788048
-0.00120253
-0.00124277
-0.00192494
-0.00192599
-0.0029246
-0.00196626
-0.00292625
-0.00295576
-0.00446281
-0.0044672
-0.0064822
-0.0044787
-0.00649668
-0.00641701
-0.00944163
-0.00945697
-0.0130699
-0.00927962
-0.0131217
-0.0126772
-0.0181813
-0.0182409
-0.0239313
-0.0174665
-0.0240958
-0.022755
-0.0317163
-0.0319277
-0.0397615
-0.0296854
-0.0401285
-0.0368015
-0.0494353
-0.0498841
-0.0523105
-0.047106
-0.0523498
-0.0490701
-0.0557428
-0.0538369
-0.0474841
-0.0634629
-0.0400178
-0.050487
-0.0363957
-0.0347576
-0.0403265
-0.0396471
-0.0373566
-0.0405164
-0.0410295
-0.0329847
-0.025432
-0.0250219
-0.0138052
-0.0139431
-0.00991712
-0.00697683
-0.00696128
-0.0069056
-0.00320055
-0.001364
-0.000546382
-0.00022596
-0.000140234
-8.24327e-05
-0.000126613
-0.000111402
-0.000149602
-0.000152274
-0.000120928
-0.000124929
-0.000156189
-0.00010988
-0.000134398
-0.000119446
-0.000117523
-0.000132734
-0.000105352
-0.00013401
-0.000118344
-0.000121167
-0.000158581
-0.000120872
-0.000122944
-0.000122797
-0.000120785
-0.000120524
-0.000118448
-0.000226982
-0.000122658
-0.000120726
-0.00012073
-0.000227294
-0.0001228
-0.000161166
-0.000251222
-0.000247212
-0.000209164
-0.00020726
-0.000194069
-0.00050356
-0.00128798
-0.00304227
-0.00654767
-0.0128102
-0.0122405
-0.0108133
-0.0130253
-0.0124913
-0.0118785
-0.0120144
-0.0168514
-0.0191023
-0.0246189
-0.0344937
-0.0302596
-0.0293957
-0.0213921
-0.0227462
-0.0172406
-0.0189425
-0.0191094
-0.0136197
-0.0244732
-0.039897
-0.0594003
-0.0595695
-0.060522
-0.0482607
-0.043349
-0.047002
-0.0543334
-0.0479697
-0.0561095
-0.0838994
-0.0755774
-0.0710054
-0.0737377
-0.0459252
-0.0591577
-0.0618681
-0.0750133
-0.0470228
-0.0609308
-0.0620607
-0.0753652
-0.0472368
-0.0601835
-0.0628865
-0.075301
-0.0485346
-0.0598371
-0.0673331
-0.0942161
-0.0776122
-0.0760017
-0.0967954
-0.0954903
-0.0748697
-0.0537768
-0.0745208
-0.0634241
-0.0544695
-0.0596632
-0.0664523
-0.0537387
-0.0691826
-0.080242
-0.052388
-0.0582775
-0.0488898
-0.0507548
-0.0627599
-0.049802
-0.0354577
-0.0410341
-0.031745
-0.0219888
-0.024012
-0.0181571
-0.0121882
-0.0129132
-0.00943399
-0.00617114
-0.0063532
-0.00445916
-0.00283686
-0.00284949
-0.00191452
-0.00118746
-0.00116025
-0.0007496
-0.000446097
-0.000436203
-0.000278543
-0.000167555
-0.000172472
-0.000111316
-0.000115831
-0.000121269
-0.000170319
-0.0003116
-0.000477308
-0.000282546
-0.000299764
-0.000149624
-0.000148725
-0.000127403
-8.20476e-05
-0.000119759
-0.000124068
-0.000155917
-0.000151896
-0.000143122
-0.000229978
-0.000553095
-0.00137795
-0.0013774
-0.00323831
-0.00699183
-0.00659171
-0.00617423
-0.00587942
-0.00591238
-0.00873408
-0.00900087
-0.00431781
-0.00477166
-0.00482964
-0.00448042
-0.00447381
-0.00296458
-0.00292618
-0.00445661
-0.00447692
-0.00649426
-0.00942754
-0.00927457
-0.0131112
-0.0181532
-0.0174492
-0.0240427
-0.0316934
-0.0296475
-0.0399263
-0.0323911
-0.0330252
-0.0496127
-0.0495791
-0.0400176
-0.0244081
-0.0135852
-0.00689718
-0.00320157
-0.00136682
-0.000548296
-0.000227693
-0.000141823
-8.24797e-05
-0.000123735
-0.000151137
-0.000139981
-0.000226007
-0.00054684
-0.00136833
-0.00321219
-0.00692267
-0.0136317
-0.0244935
-0.0400826
-0.0603849
-0.059911
-0.052857
-0.104343
-0.0757499
-0.0726174
-0.0620915
-0.0753262
-0.0472862
-0.0474161
-0.0512065
-0.0772896
-0.0486722
-0.0494195
-0.0503897
-0.0777102
-0.0488973
-0.0496393
-0.050125
-0.0776789
-0.050453
-0.0513432
-0.0570111
-0.0992278
-0.0785104
-0.0765611
-0.0768938
-0.0762395
-0.0591057
-0.0541745
-0.0572816
-0.0988672
-0.0566055
-0.0599856
-0.0769542
-0.0593276
-0.0541682
-0.0579068
-0.0694064
-0.0531486
-0.0686382
-0.0686723
-0.0542942
-0.0698128
-0.0586434
-0.0542279
-0.0592574
-0.0604269
-0.0602192
-0.0607357
-0.0599677
-0.0542459
-0.055894
-0.0608575
-0.0771094
-0.0672807
-0.0548005
-0.0717327
-0.0631548
-0.0548239
-0.0869722
-0.0462363
-0.0581432
-0.0470448
-0.0525922
-0.044404
-0.0330584
-0.0359771
-0.0283966
-0.0208568
-0.021455
-0.0164443
-0.0113989
-0.0117744
-0.00851007
-0.00591175
-0.00578175
-0.00406057
-0.00264372
-0.00261517
-0.00172954
-0.00112691
-0.00105332
-0.000681532
-0.000417122
-0.000390741
-0.000252362
-0.000156992
-0.000150125
-8.71944e-05
-0.000148407
-0.000110255
-8.28384e-05
-0.000147231
-0.00011063
-0.00011353
-0.000144435
-0.000109815
-0.00011462
-0.000143851
-0.000111003
-0.000114144
-0.000146163
-0.000113257
-0.000111667
-0.000145787
-8.22191e-05
-0.000120268
-0.00015555
-0.000158872
-0.00019514
-0.000299602
-0.000295213
-0.000456453
-0.000454644
-0.000482608
-0.000757573
-0.000752308
-0.00119491
-0.00125525
-0.00103689
-0.00204754
-0.00154866
-0.00306433
-0.00247429
-0.00475056
-0.00353089
-0.00681392
-0.00536928
-0.010035
-0.00732731
-0.0137567
-0.0105795
-0.0192323
-0.0137779
-0.0252627
-0.0189512
-0.0335165
-0.0236
-0.042229
-0.0308779
-0.0525408
-0.0365938
-0.0430343
-0.049854
-0.0487255
-0.0366686
-0.0405281
-0.0282216
-0.0320783
-0.0311458
-0.0224779
-0.0243604
-0.016533
-0.018381
-0.017914
-0.0125475
-0.0132923
-0.00880817
-0.00958487
-0.00935181
-0.00636346
-0.00659996
-0.00424839
-0.00452653
-0.00443437
-0.00293279
-0.00297128
-0.00186525
-0.00194641
-0.00191365
-0.00123036
-0.00122104
-0.000741019
-0.000764288
-0.000759168
-0.000478398
-0.000461281
-0.000273062
-0.000299677
-0.00029265
-0.000191139
-0.000144412
-0.000106922
-9.32078e-05
-0.000120613
-0.000115211
-0.000110605
-0.000171127
-0.000165644
-0.000205244
-0.000128765
-0.00014794
-0.000150909
-0.000122876
-0.000154876
-0.000158132
-0.000163526
-0.000192569
-0.000297515
-0.000281117
-0.000474492
-0.00039963
-0.000807962
-0.000616229
-0.000866436
-0.000335958
-0.000338452
-0.000296797
-0.000205829
-0.000188557
-0.000122328
-0.000217773
-0.000122999
-0.000109243
-0.000133515
-0.000120563
-0.000118875
-0.000121005
-0.00011805
-0.000192072
-0.000209104
-0.000195679
-0.000505904
-0.000505011
-0.000488258
-0.000764642
-0.000764478
-0.000480489
-0.00086773
-0.000339149
-0.000340545
-0.000298783
-0.000297173
-0.000458649
-0.000764612
-0.000787924
-0.00120366
-0.00192214
-0.00196558
-0.00218532
-0.00129089
-0.00124749
-0.00304869
-0.00656115
-0.00643515
-0.00654822
-0.00304479
-0.00129048
-0.00124511
-0.00128354
-0.000501894
-0.000484011
-0.000453468
-0.000760334
-0.000810882
-0.00125956
-0.00205341
-0.00307362
-0.00155369
-0.00191363
-0.00104027
-0.00115838
-0.000619429
-0.000748939
-0.000401489
-0.000435276
-0.000444844
-0.000421037
-0.000684352
-0.000745203
-0.00106159
-0.00122486
-0.00123498
-0.0019185
-0.00194382
-0.00289289
-0.00291456
-0.00294677
-0.00442409
-0.00444076
-0.00643652
-0.00644073
-0.00636068
-0.00931832
-0.00916241
-0.0129439
-0.0129552
-0.0125029
-0.0179251
-0.0166303
-0.0236881
-0.0311951
-0.0283357
-0.0394943
-0.048313
-0.0432625
-0.0482507
-0.0391185
-0.0241003
-0.013562
-0.00693607
-0.00322512
-0.00136662
-0.000538376
-0.000242671
-0.00015521
-0.000120813
-0.000121474
-0.000122046
-0.000123266
-0.000191191
-0.000208379
-0.000207036
-0.000188721
-0.000122554
-0.000109292
-0.000133977
-0.000116482
-0.000120789
-0.000116746
-0.000189347
-0.000206476
-0.000193185
-0.000298832
-0.000282277
-0.000325271
-0.000326723
-0.000247208
-0.000158497
-0.000121023
-0.000120754
-0.00022725
-0.000118681
-0.000120239
-0.00021816
-0.000326461
-0.000502948
-0.000474731
-0.000188084
-0.000177705
-0.00030205
-0.000192371
-0.000293654
-0.000291202
-0.000451795
-0.00045461
-0.000486904
-0.000762042
-0.000784473
-0.00119946
-0.00124096
-0.00191174
-0.00195178
-0.00290781
-0.00290305
-0.00293244
-0.00443075
-0.00428233
-0.00642955
-0.00935098
-0.00885694
-0.0129438
-0.0127167
-0.00650103
-0.00302224
-0.00127991
-0.000500431
-0.000325751
-0.00024661
-0.000158066
-0.000329557
-0.000545118
-0.000327637
-0.000326511
-0.0003272
-0.000330026
-0.000545095
-0.000505924
-0.000488517
-0.00129067
-0.00124635
-0.00304502
-0.00295804
-0.00322717
-0.00695178
-0.0136928
-0.013798
-0.0248226
-0.0234389
-0.0224934
-0.0376691
-0.0536152
-0.0475871
-0.0696009
-0.0543824
-0.106828
-0.0743438
-0.0731574
-0.0663669
-0.0843505
-0.0780149
-0.0801899
-0.0776168
-0.106227
-0.073469
-0.0725273
-0.0620739
-0.0749875
-0.0471396
-0.0481553
-0.0518233
-0.0768769
-0.0484611
-0.0503047
-0.0511835
-0.0772956
-0.0486911
-0.0503777
-0.0510556
-0.0772537
-0.0503492
-0.0517425
-0.0692302
-0.0480531
-0.0367639
-0.036792
-0.0399756
-0.0425937
-0.0287283
-0.0342798
-0.0242142
-0.0289617
-0.0329336
-0.0225808
-0.0310258
-0.0400195
-0.0368408
-0.0480506
-0.0524805
-0.0399329
-0.03771
-0.0337695
-0.0439549
-0.0443278
-0.0589046
-0.0614005
-0.0601311
-0.0484693
-0.0364966
-0.0479405
-0.0443775
-0.0481454
-0.0364117
-0.0479217
-0.0444249
-0.0482162
-0.0365331
-0.0480163
-0.0611951
-0.0598756
-0.0544084
-0.0522941
-0.0630386
-0.0776434
-0.0591003
-0.077439
-0.0785115
-0.0753511
-0.059974
-0.0566162
-0.0570329
-0.0983987
-0.057375
-0.0639783
-0.0955234
-0.0794655
-0.0760095
-0.0591573
-0.0566936
-0.0696595
-0.0515226
-0.0512288
-0.068702
-0.0470805
-0.0391155
-0.0390175
-0.0240982
-0.0135772
-0.00694723
-0.00323116
-0.00136947
-0.000539572
-0.000243269
-0.000155676
-0.000118732
-0.000120864
-0.000137625
-0.00011893
-0.000117048
-0.000144761
-0.000115377
-0.000105016
-0.000121265
-0.000129943
-0.000122781
-0.000104731
-0.000111124
-0.000147985
-0.000114181
-0.000177813
-0.000110524
-0.000145377
-0.000120907
-0.00013226
-0.000116424
-0.000188777
-0.000122572
-0.000123328
-0.000218231
-0.000121819
-0.000121763
-0.000123392
-0.000122173
-0.000108997
-0.00011299
-0.000147512
-0.000113181
-0.000191134
-0.000208489
-0.000207043
-0.00018824
-0.000155923
-0.0002076
-0.000129515
-0.000149229
-0.000140944
-0.000227891
-0.000551176
-0.00137757
-0.00323095
-0.00695861
-0.013696
-0.0245959
-0.0246019
-0.0403023
-0.0404786
-0.0599517
-0.0533899
-0.0551358
-0.0554054
-0.0859412
-0.0637188
-0.0733771
-0.0756949
-0.104065
-0.0526632
-0.0553477
-0.0554776
-0.0537483
-0.0563634
-0.0572909
-0.0845108
-0.0530073
-0.054706
-0.0479138
-0.0566278
-0.0686745
-0.0519257
-0.037074
-0.0402165
-0.0604714
-0.0602482
-0.0494218
-0.0499109
-0.0335593
-0.0193013
-0.0101078
-0.00486171
-0.00214299
-0.00211597
-0.000864315
-0.000864445
-0.000339412
-0.000338148
-0.000510507
-0.00129036
-0.00303609
-0.0065325
-0.0128296
-0.0229622
-0.0326658
-0.0322245
-0.0324028
-0.0188151
-0.0099258
-0.00478686
-0.00477543
-0.00211366
-0.00213691
-0.000870594
-0.000762329
-0.00081261
-0.00126086
-0.00205681
-0.00307603
-0.00188828
-0.00192071
-0.00120032
-0.000755531
-0.000886996
-0.000502309
-0.00048524
-0.00045434
-0.000206749
-0.000189494
-0.00011197
-0.000193841
-0.000326738
-0.000325466
-0.00021282
-0.000120847
-0.000120482
-0.000134112
-0.000120459
-0.00012265
-0.00013776
-0.000119034
-0.000227611
-0.000137594
-0.000133863
-0.000109755
-0.000132181
-0.000137481
-0.000118449
-0.000116224
-0.000117396
-0.000120242
-0.000116015
-0.00011718
-0.000133958
-0.000131804
-0.000120377
-0.000122513
-0.000129253
-0.000211994
-0.000120749
-0.000104374
-0.000324363
-0.000326308
-0.0002467
-0.000158052
-0.000329615
-0.000326692
-0.000503117
-0.000475141
-0.000402437
-0.00121814
-0.0010422
-0.00128437
-0.00124073
-0.00303268
-0.00294768
-0.00291792
-0.00445731
-0.00477791
-0.00683719
-0.0101124
-0.0138212
-0.00892024
-0.0094278
-0.00647291
-0.00430322
-0.00497712
-0.00287791
-0.00248584
-0.00619409
-0.00539869
-0.00652553
-0.0063935
-0.00654851
-0.00641499
-0.0128064
-0.0126669
-0.0227461
-0.0227463
-0.0217953
-0.0196612
-0.0230561
-0.0192214
-0.0102899
-0.00500202
-0.00221067
-0.000890191
-0.000882951
-0.000874842
-0.00137875
-0.00218355
-0.00215155
-0.00324964
-0.00492866
-0.00484405
-0.00324962
-0.00137871
-0.000883732
-0.000881421
-0.000873518
-0.000549728
-0.00138403
-0.00325813
-0.00699581
-0.00698213
-0.0101162
-0.00991937
-0.0136338
-0.0188539
-0.0184456
-0.0241645
-0.031809
-0.0324778
-0.0366945
-0.0650493
-0.0478786
-0.0689815
-0.0480338
-0.0468155
-0.0648029
-0.0500618
-0.0680581
-0.0750175
-0.0802345
-0.0773746
-0.105423
-0.0733052
-0.0638909
-0.0600771
-0.079669
-0.0806016
-0.0572151
-0.0641439
-0.0757136
-0.0805556
-0.0749551
-0.0733096
-0.104814
-0.0777101
-0.0804855
-0.080578
-0.0807889
-0.0805357
-0.0774078
-0.0797746
-0.0715845
-0.0628879
-0.0752992
-0.0485538
-0.0472504
-0.0510685
-0.0772752
-0.050306
-0.0492554
-0.0501406
-0.0777257
-0.0503674
-0.0494858
-0.0498612
-0.0776479
-0.0515785
-0.0571873
-0.0987476
-0.0808434
-0.0755826
-0.0602179
-0.0565552
-0.0687298
-0.0470671
-0.039111
-0.0241556
-0.0136106
-0.00696668
-0.00324183
-0.00137532
-0.000543797
-0.000880405
-0.000886494
-0.000755096
-0.00119838
-0.00191701
-0.00188777
-0.00291406
-0.00445074
-0.0047717
-0.00683342
-0.010102
-0.0138155
-0.00737126
-0.00943599
-0.0053922
-0.00635085
-0.00354832
-0.00445909
-0.00248213
-0.00284685
-0.00283259
-0.00268754
-0.00405695
-0.00426752
-0.0058261
-0.00661186
-0.00637928
-0.00936496
-0.00914684
-0.0129716
-0.0129752
-0.0125465
-0.0178173
-0.0171793
-0.0236848
-0.0223812
-0.0309859
-0.0291998
-0.0394604
-0.0395601
-0.0364636
-0.048274
-0.0444357
-0.0480657
-0.0481077
-0.0364465
-0.0394642
-0.0395035
-0.0479965
-0.0443689
-0.0469616
-0.0367328
-0.0226535
-0.0127477
-0.00652033
-0.00303244
-0.00128497
-0.00121715
-0.00287582
-0.0030312
-0.00294365
-0.00652295
-0.00638672
-0.00646562
-0.00941684
-0.008921
-0.0130541
-0.0181447
-0.019488
-0.0254315
-0.0342542
-0.0426052
-0.024211
-0.0317661
-0.0192426
-0.0240153
-0.0139626
-0.0181647
-0.010664
-0.0129123
-0.0121759
-0.0115779
-0.0164989
-0.0167427
-0.0219248
-0.0243129
-0.0225816
-0.0310288
-0.0291753
-0.0399883
-0.039367
-0.0365004
-0.0484294
-0.0442602
-0.0480706
-0.0524535
-0.0368462
-0.0399237
-0.0376747
-0.0439234
-0.0442973
-0.0466902
-0.0395173
-0.0337324
-0.0354302
-0.0410395
-0.0498337
-0.0314926
-0.0369845
-0.0228915
-0.0127841
-0.00650625
-0.00302192
-0.00128318
-0.000507135
-0.000206216
-0.000129203
-0.000115778
-0.000111224
-8.77452e-05
-0.000107654
-0.000151307
-0.000145195
-0.00014938
-8.31185e-05
-0.000110495
-0.000152915
-0.000164728
-0.000152009
-0.000194827
-0.000297697
-0.000296059
-0.000456395
-0.000486457
-0.000761441
-0.000783081
-0.00119896
-0.00119424
-0.00123483
-0.00191044
-0.00188078
-0.0029027
-0.00212508
-0.00210192
-0.00191208
-0.000862172
-0.000761455
-0.000547797
-0.000546587
-0.00022566
-0.000139928
-0.000149826
-0.000126028
-0.000137937
-0.000150125
-0.000205946
-0.00015851
-0.000253803
-0.000274991
-0.000463132
-0.000480849
-0.000761594
-0.000778393
-0.0011877
-0.00120028
-0.0012428
-0.00191333
-0.0019542
-0.00291074
-0.00294086
-0.00442289
-0.0044368
-0.00643359
-0.00643241
-0.00635037
-0.00931709
-0.00964534
-0.00471681
-0.00442272
-0.00318092
-0.0031783
-0.00136154
-0.000867579
-0.0007626
-0.000340135
-0.000300703
-0.000223723
-0.000330738
-0.000394175
-0.000515461
-0.000541597
-0.00085041
-0.00076926
-0.0013292
-0.00112239
-0.00174201
-0.00187071
-0.00298051
-0.00294055
-0.00444316
-0.00442401
-0.00642303
-0.00645103
-0.0063763
-0.00931558
-0.00916827
-0.0129552
-0.0125133
-0.0178371
-0.0171771
-0.0236741
-0.0237189
-0.0223798
-0.0309814
-0.0226234
-0.0187817
-0.010068
-0.00990315
-0.00696875
-0.00324278
-0.00137571
-0.000543997
-0.00087366
-0.000881625
-0.0021801
-0.00220131
-0.0012855
-0.00303387
-0.00652347
-0.0102323
-0.0101021
-0.00492087
-0.00483819
-0.0021487
-0.00217758
-0.000880809
-0.000784662
-0.000763056
-0.000486277
-0.00076156
-0.00120022
-0.00124092
-0.00191091
-0.00191368
-0.00119963
-0.00119894
-0.0012427
-0.00191273
-0.00191522
-0.00120023
-0.000762329
-0.000486634
-0.000761733
-0.000457139
-0.000456554
-0.000456943
-0.000455603
-0.000485358
-0.000759005
-0.000761291
-0.000783809
-0.00119585
-0.00124009
-0.00190887
-0.0019116
-0.00195319
-0.00290427
-0.00294235
-0.00442303
-0.0044213
-0.00441945
-0.00442472
-0.00294063
-0.00291166
-0.00291065
-0.00195486
-0.00291002
-0.00294718
-0.00442303
-0.0044356
-0.00291467
-0.00194556
-0.00191853
-0.00195607
-0.00123511
-0.0011886
-0.000779015
-0.000761464
-0.000770474
-0.000480815
-0.000452026
-0.000454564
-0.000300387
-0.000194565
-0.000297537
-0.000296127
-0.000300456
-0.000194996
-0.000299651
-0.000295739
-0.000297478
-0.000193985
-0.00029879
-0.000453738
-0.00044934
-0.000290229
-0.000338554
-0.000223547
-0.000138961
-8.2088e-05
-0.00012497
-0.000120585
-0.000123633
-0.000123974
-8.23649e-05
-0.000140301
-0.00015195
-0.000120609
-0.000125626
-8.23471e-05
-0.000146235
-0.000113007
-0.000111346
-0.00010918
-0.000155331
-0.000163012
-0.000158882
-0.000159096
-0.000162314
-0.000151812
-0.000163572
-0.000152146
-0.000104224
-0.000112506
-0.000145673
-0.000111191
-0.000188234
-0.000206521
-0.000502015
-0.000504449
-0.00128628
-0.00303353
-0.00491381
-0.00444244
-0.00643974
-0.00635983
-0.00930937
-0.00932072
-0.00931361
-0.00935809
-0.00637725
-0.00644314
-0.0064514
-0.00442816
-0.00444341
-0.00455149
-0.00294093
-0.00289532
-0.00298187
-0.00187371
-0.00174487
-0.00261946
-0.00269209
-0.00406242
-0.0058349
-0.00586593
-0.00859059
-0.0118328
-0.0115945
-0.0165176
-0.0219498
-0.0208923
-0.0286736
-0.0309154
-0.0243945
-0.0181319
-0.0135757
-0.00968108
-0.0068754
-0.00471369
-0.00316957
-0.00209204
-0.00133082
-0.00112381
-0.00106407
-0.00122525
-0.000746632
-0.000685437
-0.000395158
-0.000422043
-0.000516015
-0.000851014
-0.000330859
-0.000254252
-0.000275554
-0.000302381
-0.000192277
-0.000293566
-0.000291378
-0.000340222
-0.000223166
-0.000137828
-8.32303e-05
-0.000110641
-0.000149433
-8.78292e-05
-0.000151506
-0.000158624
-0.000205974
-0.00015008
-0.000107762
-0.000145242
-0.000164658
-0.000152117
-0.000152798
-0.0001496
-0.000139396
-0.00022437
-0.000544102
-0.000540579
-0.00135678
-0.00318566
-0.00684699
-0.00637983
-0.00936608
-0.00963812
-0.00661461
-0.0064282
-0.00476445
-0.00212002
-0.000868556
-0.000868408
-0.00135659
-0.00316759
-0.00678397
-0.00976665
-0.0091555
-0.012975
-0.0125485
-0.0178118
-0.0179502
-0.0179203
-0.0186111
-0.012585
-0.0129818
-0.0133271
-0.00886436
-0.00737525
-0.00998657
-0.00988556
-0.0187044
-0.0189078
-0.0181591
-0.019505
-0.025435
-0.0192581
-0.0215833
-0.0121261
-0.0106747
-0.0127697
-0.012624
-0.0130683
-0.0227071
-0.0226739
-0.0239887
-0.0168172
-0.0191136
-0.0127533
-0.0226612
-0.0323638
-0.0318226
-0.0188381
-0.0184396
-0.00991022
-0.0100835
-0.0136143
-0.0136543
-0.0136338
-0.00698218
-0.00493267
-0.00492026
-0.00217973
-0.00214838
-0.00217654
-0.00220016
-0.00497477
-0.00430315
-0.00482874
-0.00213512
-0.00211328
-0.00212159
-0.00213041
-0.000867235
-0.000863538
-0.000338662
-0.000337027
-0.000148497
-0.00086891
-0.00479853
-0.00477729
-0.00989226
-0.00994539
-0.0100372
-0.0188282
-0.018719
-0.0189237
-0.00999126
-0.0239597
-0.0317633
-0.0287368
-0.0399153
-0.0327025
-0.0322537
-0.0494613
-0.0495474
-0.0518978
-0.0687794
-0.095544
-0.0967527
-0.0537705
-0.067319
-0.0942318
-0.0776004
-0.0591208
-0.0762119
-0.0770649
-0.0600832
-0.0570045
-0.0994108
-0.0790521
-0.0764216
-0.100728
-0.0857113
-0.0857823
-0.0806471
-0.0750788
-0.0502798
-0.0682606
-0.0469199
-0.0390216
-0.024164
-0.0188668
-0.0101241
-0.0101008
-0.0128052
-0.0127655
-0.0126126
-0.0227009
-0.0226581
-0.0215743
-0.0121196
-0.00619015
-0.00962809
-0.0133215
-0.0125838
-0.0179188
-0.0171666
-0.0238535
-0.0236941
-0.0224396
-0.0309106
-0.0291783
-0.03098
-0.0226314
-0.0127355
-0.0100788
-0.0102279
-0.0191066
-0.0168207
-0.0188354
-0.0184375
-0.00990886
-0.00483749
-0.0049114
-0.00303196
-0.00128566
-0.000504135
-0.000763699
-0.00086626
-0.00119819
-0.000340786
-0.000457054
-0.000300771
-0.000152218
-0.000163169
-0.00012431
-8.19372e-05
-0.000141416
-0.000227198
-0.00210855
-0.0021169
-0.00191507
-0.00135863
-0.00209042
-0.00261466
-0.00316583
-0.00318941
-0.00471021
-0.00454601
-0.0068679
-0.00585794
-0.00857991
-0.0088529
-0.0118162
-0.00967374
-0.0135613
-0.0134357
-0.0068546
-0.00475659
-0.00443452
-0.00472826
-0.00442497
-0.00680604
-0.00974913
-0.00935495
-0.00966716
-0.0129576
-0.0132911
-0.0181764
-0.0179425
-0.018119
-0.018594
-0.0243711
-0.0208656
-0.0286466
-0.0289366
-0.03291
-0.030897
-0.0240044
-0.0389354
-0.0544521
-0.0549532
-0.0572824
-0.0629235
-0.05839
-0.0462805
-0.0307321
-0.0312387
-0.0236229
-0.0382116
-0.0536004
-0.0636249
-0.0593165
-0.0456981
-0.0301998
-0.017948
-0.0237112
-0.0178392
-0.0132841
-0.00680701
-0.0235992
-0.0382056
-0.0536678
-0.0638578
-0.0593976
-0.0457163
-0.0301653
-0.0179109
-0.0178343
-0.0182392
-0.00979826
-0.00478304
-0.00300459
-0.00127793
-0.000504914
-0.00044051
-0.00119218
-0.0064444
-0.0125635
-0.0222716
-0.0308163
-0.0464419
-0.054071
-0.0651978
-0.0592305
-0.049453
-0.0551508
-0.0577755
-0.0536053
-0.0383004
-0.0379892
-0.0234873
-0.0132177
-0.00676861
-0.00315972
-0.00135246
-0.000542148
-0.000544301
-0.000225281
-0.000341347
-0.000340794
-0.00015167
-0.0001551
-0.000148775
-0.000136887
-0.000221511
-0.000536922
-0.000865313
-0.000776488
-0.00118311
-0.00119829
-0.00128314
-0.000879876
-0.000872575
-0.000329217
-0.000878809
-0.000884307
-0.000473136
-0.000187295
-0.000176935
-0.00030959
-0.000229201
-0.00121384
-0.00219549
-0.00217561
-0.00214622
-0.00217316
-0.00490476
-0.00483335
-0.00491028
-0.00302931
-0.00651589
-0.00651963
-0.0127414
-0.0187996
-0.0171856
-0.0178428
-0.0125101
-0.0178138
-0.0237098
-0.0223716
-0.0309199
-0.0309921
-0.0236674
-0.0237379
-0.0224406
-0.0308916
-0.0312552
-0.0236894
-0.0171823
-0.0238714
-0.0243212
-0.0167621
-0.0139674
-0.0182105
-0.0134218
-0.0239814
-0.0388968
-0.0395432
-0.046701
-0.0549515
-0.0572995
-0.0544041
-0.0629588
-0.0583916
-0.0463404
-0.030788
-0.0235521
-0.0132499
-0.0179962
-0.0096937
-0.0129716
-0.0129511
-0.0129625
-0.0129498
-0.0125388
-0.0178783
-0.0178273
-0.017183
-0.0236919
-0.0224384
-0.0310704
-0.0309682
-0.0291987
-0.0394578
-0.039618
-0.0395215
-0.0291745
-0.0323395
-0.03181
-0.0241605
-0.0241952
-0.031056
-0.0390229
-0.0367523
-0.0368656
-0.0653429
-0.0487587
-0.0473624
-0.068093
-0.0749504
-0.0795212
-0.0774407
-0.0806321
-0.0808274
-0.0744092
-0.0493486
-0.0671024
-0.0453148
-0.0650816
-0.0653252
-0.0650844
-0.0654272
-0.0655239
-0.0597989
-0.0793776
-0.104854
-0.053879
-0.0780143
-0.0836738
-0.0805383
-0.0858774
-0.0808051
-0.0760123
-0.102002
-0.0773971
-0.0517432
-0.0572421
-0.0989322
-0.0566572
-0.0685608
-0.0514745
-0.0657491
-0.0454446
-0.0390613
-0.0310786
-0.0318174
-0.0318249
-0.0323547
-0.0317706
-0.0187921
-0.0317842
-0.0311098
-0.0184369
-0.0188007
-0.010079
-0.0102074
-0.0127446
-0.0226699
-0.0226377
-0.0317786
-0.0367385
-0.0349586
-0.0315103
-0.0540783
-0.0388488
-0.0495166
-0.049304
-0.0459583
-0.049414
-0.0582136
-0.0655242
-0.0485424
-0.0472423
-0.0682837
-0.0469278
-0.045447
-0.0654222
-0.0492527
-0.0673101
-0.0745491
-0.0750578
-0.0797324
-0.0717312
-0.0793396
-0.104788
-0.078008
-0.0805613
-0.0806562
-0.080774
-0.0809433
-0.0745453
-0.0496506
-0.0673101
-0.0768142
-0.0808294
-0.0768071
-0.0746971
-0.0495781
-0.0675222