/*--------------------------------*- C++ -*----------------------------------*\
| =========                 |                                                 |
| \\      /  F ield         | OpenFOAM: The Open Source CFD Toolbox           |
|  \\    /   O peration     | Version:  2306                                  |
|   \\  /    A nd           | Website:  www.openfoam.com                      |
|    \\/     M anipulation  |                                                 |
\*---------------------------------------------------------------------------*/
FoamFile
{
    version     2.0;
    format      ascii;
    arch        "LSB;label=32;scalar=64";
    class       volVectorField;
    location    "2";
    object      flux;
}
// * * * * * * * * * * * * * * * * * * * * * * * * * * * * * * * * * * * * * //

dimensions      [0 1 -1 1 0 0 0];

internalField   nonuniform List<vector> 
5712
(
(-0.267537 0.471944 0.292973)
(-0.341957 0.272163 0.962447)
(-0.635204 0.764833 0.23259)
(-0.927682 0.501588 0.986869)
(-0.946312 0.834769 0.174637)
(-1.63346 0.618178 1.0206)
(-0.727245 1.30985 0.275592)
(-1.85278 1.62471 1.57308)
(-0.592347 1.72239 0.338621)
(-1.30156 2.10885 2.16286)
(-0.885845 1.1142 0.336129)
(-1.34755 0.968482 1.57546)
(-0.794904 0.707684 0.32426)
(-1.04239 0.561187 1.30762)
(-0.349575 0.355341 0.337021)
(-0.399732 0.24041 1.1684)
(-0.596929 0.791265 0.203963)
(-0.68383 0.808103 0.126221)
(-0.771397 0.682098 0.545227)
(-0.7649 0.800585 0.323614)
(-0.606841 1.06897 0.199818)
(-0.749665 0.952983 0.107758)
(-0.894469 1.23455 0.596681)
(-0.802344 0.99766 0.296245)
(-0.217669 0.332903 0.222992)
(-0.163688 0.239438 0.161664)
(-0.27072 0.18717 0.714992)
(-0.182133 0.139146 0.503147)
(-0.504539 0.3981 0.168662)
(-0.403638 0.324048 0.121437)
(-0.861425 0.241741 0.703238)
(-0.624045 0.195534 0.510968)
(-0.66733 0.724944 0.395572)
(-0.693659 0.751842 0.167486)
(-0.740995 0.739891 0.341684)
(-0.707171 0.62336 0.152307)
(-0.260316 0.575424 0.157246)
(-0.203679 0.450412 0.369069)
(-1.57923 0.45206 1.36653)
(-2.11407 0.513566 0.370322)
(-1.02021 0.728318 0.489438)
(-1.25247 0.724991 0.165503)
(-2.1234 1.52911 1.76012)
(-2.75526 1.58093 0.477845)
(-1.0982 1.08252 0.458204)
(-1.25728 1.11535 0.158315)
(-1.17097 0.618738 0.976072)
(-1.65408 0.521716 0.302863)
(-1.02196 0.673321 0.501016)
(-1.3544 0.479985 0.174781)
(-0.598152 0.313161 0.848771)
(-0.964068 0.321709 0.26984)
(-0.114926 0.256931 0.240737)
(-0.0387555 0.360041 0.11936)
(-0.121003 0.134445 0.353944)
(-0.043631 0.162195 0.137918)
(-0.346958 0.352168 0.260531)
(-0.140098 0.482876 0.140835)
(-0.475775 0.209782 0.345127)
(-0.175096 0.244946 0.13245)
(-0.338776 0.389981 0.330417)
(-0.129926 0.655734 0.188341)
(-0.359992 0.270343 0.297482)
(-0.115469 0.442998 0.129278)
(-0.613375 0.10302 0.439499)
(-0.195198 0.263323 0.15797)
(-0.791268 0.0857369 0.151182)
(-0.267018 0.196447 0.0527904)
(-0.967122 0.712083 0.497813)
(-0.480391 0.879783 0.345377)
(-0.885411 0.73538 0.307774)
(-0.524714 0.876471 0.225176)
(-0.906312 0.870943 0.555439)
(-0.586167 0.879198 0.45715)
(-0.797182 0.88762 0.303474)
(-0.599134 0.868303 0.26264)
(-0.696631 0.626146 0.29197)
(-0.413853 0.848669 0.19756)
(-0.696751 0.643102 0.412067)
(-0.355277 0.838008 0.276076)
(-0.913566 0.724585 0.202694)
(-0.583793 0.870645 0.149091)
(-0.915585 0.724438 0.102812)
(-0.589127 0.868698 0.0844162)
(-0.842078 0.895314 0.195537)
(-0.634082 0.857388 0.168925)
(-0.852255 0.892418 0.100972)
(-0.636828 0.849303 0.0974655)
(-0.752365 0.578672 0.194691)
(-0.477717 0.852321 0.127844)
(-0.779224 0.558704 0.099622)
(-0.48941 0.855392 0.0640116)
(-0.711943 0.707257 0.261112)
(-0.308542 0.830716 0.141994)
(-0.329096 0.893064 0.196043)
(-0.401144 1.24688 0.236329)
(-0.714844 0.748974 0.357719)
(-0.337408 0.95911 0.254575)
(-0.28734 0.885003 0.284209)
(-0.406845 1.35405 0.404572)
(-0.753881 0.670633 0.17263)
(-0.307002 0.731295 0.0818072)
(-0.372859 0.896615 0.115567)
(-0.403919 1.19884 0.135271)
(-0.791232 0.663561 0.0856223)
(-0.314367 0.684317 0.0355892)
(-0.405476 0.906274 0.0498915)
(-0.421875 1.18981 0.0501423)
(-0.148908 0.212137 0.317774)
(-0.162671 0.277585 0.569771)
(-0.0500669 0.541112 0.215457)
(-0.0981658 0.944523 0.636001)
(-0.435805 0.263205 0.372418)
(-0.460744 0.299409 0.557816)
(-0.168583 0.697131 0.264948)
(-0.299638 1.07478 0.665829)
(-0.558146 0.327948 0.422952)
(-0.619951 0.331311 0.505025)
(-0.269748 0.884301 0.341121)
(-0.459064 1.20072 0.649772)
(-0.49159 0.980512 0.497503)
(-0.0416071 1.05119 0.591824)
(-0.545534 0.831409 0.375638)
(-0.674476 0.804631 0.362129)
(-0.366999 1.16775 0.395916)
(-0.0279541 1.05802 0.591448)
(-0.297229 1.00063 0.548261)
(-0.491297 0.848566 0.540013)
(-0.792338 0.736922 0.554496)
(-0.552465 1.33443 0.799522)
(-0.398371 0.964371 0.480854)
(-0.484339 0.953247 0.371493)
(-0.424181 0.850845 0.322449)
(-0.366797 0.84773 0.361378)
(-0.575735 1.52553 0.565613)
(-0.142851 0.0820219 0.659663)
(-0.117602 0.0984646 0.588911)
(-0.0816776 0.175569 0.764897)
(-0.0809823 0.400018 0.73527)
(-0.40246 0.116481 0.604061)
(-0.33888 0.131834 0.559705)
(-0.24287 0.242709 0.755424)
(-0.230891 0.448753 0.719939)
(-0.502213 0.173795 0.522832)
(-0.424126 0.147165 0.509852)
(-0.317196 0.330345 0.708548)
(-0.284331 0.515332 0.693777)
(-0.233662 1.04711 0.431983)
(-0.297826 1.03402 0.339165)
(-0.48311 0.945551 0.403685)
(-0.501076 0.929669 0.351958)
(-0.564716 0.812006 0.441342)
(-0.51369 0.743244 0.395051)
(-0.637005 0.615686 0.474909)
(-0.553914 0.544402 0.456125)
(-0.432544 0.434888 0.652058)
(-0.364074 0.604778 0.667737)
(-0.363624 0.953636 0.403661)
(-0.382047 0.920567 0.350064)
(-0.480373 0.962318 0.386436)
(-0.377923 0.946463 0.372098)
(-0.438236 0.837771 0.399208)
(-0.317904 0.784907 0.423864)
(-0.379944 0.694454 0.449447)
(-0.26103 0.622345 0.505339)
(-0.443805 0.463656 0.585867)
(-0.290515 0.610921 0.678372)
(-0.41105 0.953533 0.333934)
(-0.190454 1.07359 0.262296)
(-0.353284 0.950852 0.229111)
(-0.382041 1.10008 0.291289)
(-0.504097 0.920833 0.450221)
(-0.656547 0.953319 0.547802)
(-0.554724 0.898911 0.312018)
(-0.806919 0.960034 0.493096)
(-0.28141 0.868004 0.194568)
(-0.311776 0.882994 0.255495)
(-0.364329 0.860924 0.290064)
(-0.11474 0.857346 0.239317)
(-0.314984 0.943368 0.0557952)
(-0.606367 1.10473 0.193273)
(-0.298902 0.939037 0.0288026)
(-0.650426 1.10368 0.0694143)
(-0.549288 0.872616 0.159375)
(-0.99631 0.971834 0.331318)
(-0.558902 0.86539 0.0587486)
(-1.05774 0.969562 0.11478)
(-0.238492 0.871344 0.0270612)
(-0.521536 0.881001 0.164179)
(-0.216874 0.871102 0.0149941)
(-0.556106 0.880444 0.0575342)
(-0.329768 0.731235 0.191401)
(-0.248592 0.695196 0.194386)
(-0.459318 0.471669 0.217565)
(-0.181382 0.524666 0.135587)
(-0.338862 0.726194 0.303095)
(-0.0655222 0.676855 0.242795)
(-0.400199 0.464488 0.356409)
(-0.0288992 0.526499 0.246375)
(-0.317052 0.741454 0.0452614)
(-0.373313 0.693175 0.1065)
(-0.481277 0.48197 0.108043)
(-0.222186 0.526891 0.0617446)
(-0.262401 0.744455 0.0601494)
(-0.440435 0.686177 0.0778936)
(-0.426025 0.496962 0.0849547)
(-0.291675 0.527258 0.0642208)
(-0.0933856 0.0668096 0.469028)
(-0.0822316 0.0452601 0.284941)
(-0.073375 0.0314531 0.0897014)
(-0.0671057 0.0387739 0.530827)
(-0.0615095 0.0267067 0.304698)
(-0.05492 0.0249224 0.0997578)
(-0.276329 0.0928995 0.449928)
(-0.226276 0.0556034 0.281986)
(-0.195525 0.0421436 0.0951903)
(-0.177775 0.0764927 0.522576)
(-0.142676 0.0615441 0.3051)
(-0.123551 0.0530929 0.099697)
(-0.338043 0.108023 0.413964)
(-0.290935 0.0899583 0.258985)
(-0.268463 0.0902657 0.0851312)
(-0.213883 0.134557 0.509962)
(-0.173996 0.110105 0.306622)
(-0.164195 0.0989084 0.102433)
(-0.261312 0.987498 0.222423)
(-0.230536 0.891195 0.120998)
(-0.224633 0.823818 0.0329276)
(-0.436666 0.909543 0.285521)
(-0.330928 0.84274 0.188073)
(-0.278225 0.789246 0.0652782)
(-0.412303 0.653185 0.340954)
(-0.303758 0.605944 0.235074)
(-0.245825 0.580009 0.0810315)
(-0.432652 0.44428 0.394491)
(-0.340621 0.385049 0.255423)
(-0.295761 0.359927 0.0848053)
(-0.270087 0.205122 0.505092)
(-0.1775 0.151283 0.315032)
(-0.138162 0.128157 0.110121)
(-0.628237 0.893253 0.263715)
(-0.542161 0.826398 0.148858)
(-0.468432 0.769461 0.0474295)
(-0.404581 0.917875 0.269349)
(-0.335726 0.835749 0.193889)
(-0.277905 0.771881 0.0731491)
(-0.360294 0.68067 0.320105)
(-0.279088 0.584314 0.236348)
(-0.221904 0.529643 0.0868163)
(-0.303314 0.44456 0.399695)
(-0.218292 0.355461 0.28047)
(-0.166926 0.319091 0.100323)
(-0.313194 0.218197 0.510981)
(-0.173972 0.15058 0.319019)
(-0.097605 0.120788 0.113217)
(-0.416162 1.0843 0.0119861)
(-0.563445 1.06103 0.0807043)
(-0.329377 1.1811 0.114208)
(-0.425309 1.05987 0.164758)
(-0.448801 1.21543 0.0878436)
(-0.658973 1.06005 0.100764)
(-0.401153 1.46756 0.220568)
(-0.583591 1.11647 0.209128)
(-0.00133629 0.840554 0.02413)
(-0.028942 0.853689 0.0412744)
(0.0204802 0.830122 0.0257624)
(-0.00397262 0.770683 0.0429892)
(-0.118358 0.943063 0.0195221)
(-0.133679 0.888546 0.0566279)
(-0.0489838 0.926097 0.0348318)
(-0.0261844 0.791662 0.0742625)
(-0.02729 0.916883 0.129139)
(-0.0956472 0.910109 0.0631204)
(-0.376265 0.844725 0.163268)
(-0.549129 0.903456 0.0943849)
(-0.266056 1.1257 0.0868318)
(-0.146523 1.01102 0.151636)
(-0.397102 1.11638 0.13649)
(-0.394223 1.13353 0.0370272)
(-0.612882 1.21242 0.244567)
(-0.675157 1.25395 0.059409)
(0.024661 0.929866 -0.0774326)
(0.166285 0.964946 0.0281693)
(-0.303114 0.832691 0.0711588)
(-0.285675 0.808316 0.0528483)
(-0.288116 1.01277 0.049213)
(-0.222204 1.03895 0.0451683)
(-0.0408333 0.659652 0.392385)
(-0.0216478 0.355388 0.179401)
(-0.0266213 0.616702 0.107182)
(-0.0107766 0.393468 0.0664103)
(-0.0787898 0.669373 0.398533)
(-0.00737991 0.358617 0.186475)
(0.0146132 0.614962 0.135012)
(0.0346816 0.391009 0.0841115)
(-0.369085 0.660535 0.393411)
(-0.0949813 0.360561 0.200665)
(-0.24987 0.613475 0.195827)
(-0.0646691 0.407534 0.137366)
(-0.362004 0.596703 0.14043)
(-0.110213 0.426377 0.101094)
(-0.438375 0.603923 0.0689738)
(-0.140988 0.422904 0.0661033)
(-0.353315 0.848837 0.506019)
(-0.477102 0.726116 0.449744)
(-0.326723 0.844099 0.238234)
(-0.465329 0.725094 0.247197)
(-0.569132 0.93697 0.544735)
(-0.602085 0.846425 0.511188)
(-0.543189 0.946461 0.268763)
(-0.570107 0.838074 0.270944)
(-0.225311 0.82696 0.211738)
(-0.375991 0.605969 0.217921)
(-0.260199 0.862562 0.434801)
(-0.37355 0.598041 0.363313)
(-0.346774 0.862835 0.142086)
(-0.448256 0.72164 0.14876)
(-0.382613 0.873736 0.0792771)
(-0.452875 0.713477 0.0902987)
(-0.565998 0.970845 0.165535)
(-0.55993 0.831191 0.164524)
(-0.592673 0.971514 0.0907429)
(-0.56226 0.820538 0.0973103)
(-0.22751 0.818984 0.123858)
(-0.363858 0.607777 0.133687)
(-0.247653 0.81664 0.0693188)
(-0.370605 0.604048 0.0855908)
(0.00659161 0.542962 0.188819)
(-0.0528269 0.362129 0.132272)
(-0.295765 0.480232 0.188448)
(-0.184833 0.307544 0.13395)
(0.0292013 0.506047 0.294075)
(-0.0362624 0.324501 0.174227)
(-0.274001 0.461571 0.280535)
(-0.163271 0.287388 0.185247)
(-0.0118529 0.556305 0.113761)
(-0.0632852 0.384803 0.0958779)
(-0.302461 0.487964 0.119337)
(-0.201535 0.316926 0.0866447)
(-0.0300625 0.557048 0.0635038)
(-0.0741987 0.398723 0.0601169)
(-0.304079 0.486739 0.075961)
(-0.208719 0.319214 0.0509146)
(0.0281427 0.10329 0.464597)
(0.0323921 0.0537853 0.32297)
(-0.00649037 0.188676 0.234318)
(-0.000367909 0.100084 0.237816)
(0.118116 0.110414 0.462688)
(0.119487 0.0663903 0.331076)
(0.00931758 0.20121 0.235585)
(0.0160185 0.120652 0.236705)
(0.0254785 0.136281 0.480492)
(0.0811675 0.100926 0.344828)
(-0.0661863 0.223231 0.238958)
(-0.0397323 0.159329 0.230264)
(0.410822 0.527363 0.55509)
(0.383985 0.815265 0.599239)
(0.223696 0.380473 0.506505)
(0.172327 0.365091 0.33962)
(0.0187164 0.258884 0.193679)
(0.420711 0.798685 0.567761)
(0.432322 0.557428 0.52564)
(0.173401 0.327678 0.488927)
(0.256553 0.329282 0.40498)
(0.0347017 0.212955 0.262768)
(-0.410936 0.830281 0.532323)
(-0.321936 0.654773 0.481256)
(-0.285609 0.521404 0.385233)
(-0.267778 0.406205 0.297463)
(-0.1623 0.25194 0.186812)
(0.0327964 0.0286234 0.27381)
(0.0302783 0.0217481 0.243222)
(0.00170091 0.0560943 0.255745)
(-0.00227701 0.0408565 0.292061)
(0.103749 0.0411324 0.282834)
(0.101526 0.0285452 0.239474)
(0.00524789 0.0807943 0.258569)
(-0.00434676 0.0641702 0.288647)
(0.104599 0.0721806 0.295733)
(0.125977 0.0565438 0.238861)
(-0.0264545 0.119183 0.261614)
(-0.038933 0.0970405 0.285357)
(0.205455 0.811417 0.42834)
(0.0926022 0.786747 0.302383)
(0.326484 0.551446 0.399754)
(0.204126 0.530103 0.278302)
(0.146308 0.359451 0.315389)
(0.110839 0.363864 0.255141)
(0.16564 0.302813 0.295825)
(0.14351 0.279922 0.253614)
(-0.0162867 0.182025 0.243106)
(-0.0535226 0.149584 0.28328)
(-0.151002 0.760858 0.355923)
(-0.0952813 0.693424 0.30891)
(-0.0412875 0.591275 0.314972)
(0.0409292 0.520976 0.275177)
(-0.0395308 0.461468 0.269496)
(0.0309274 0.41192 0.244795)
(-0.0673194 0.351392 0.238725)
(-0.0139771 0.319368 0.237628)
(-0.0826912 0.222715 0.191453)
(-0.0944077 0.221813 0.269477)
(-0.208589 0.60548 0.281594)
(-0.190577 0.492222 0.190422)
(-0.397176 0.608837 0.187203)
(-0.23941 0.47999 0.111804)
(-0.324931 0.726241 0.367842)
(-0.326849 0.604519 0.283506)
(-0.493323 0.724219 0.255793)
(-0.399504 0.595498 0.205777)
(-0.312773 0.511095 0.153139)
(-0.183757 0.4169 0.0919715)
(-0.155668 0.496134 0.22219)
(-0.154531 0.418798 0.164325)
(-0.46838 0.608783 0.189237)
(-0.206521 0.472291 0.0894027)
(-0.515256 0.60499 0.069216)
(-0.231634 0.471489 0.0398178)
(-0.550273 0.721233 0.200309)
(-0.407731 0.606476 0.144895)
(-0.58727 0.714242 0.06989)
(-0.437183 0.604591 0.057922)
(-0.379729 0.520128 0.163945)
(-0.14946 0.410175 0.0731828)
(-0.425486 0.519223 0.0644967)
(-0.173376 0.415609 0.0339361)
(-0.246453 0.398777 0.12789)
(-0.195116 0.339803 0.117895)
(-0.189755 0.263138 0.112981)
(-0.281234 0.279359 0.165844)
(-0.159119 0.384472 0.178025)
(-0.179239 0.332745 0.168649)
(-0.162061 0.250973 0.144009)
(-0.260737 0.264989 0.212295)
(-0.284628 0.415652 0.129639)
(-0.192794 0.346367 0.0841552)
(-0.214509 0.269825 0.0819837)
(-0.322958 0.295827 0.112662)
(-0.346342 0.425575 0.0392234)
(-0.209559 0.346359 0.0189828)
(-0.269276 0.2805 0.008657)
(-0.333496 0.300132 0.0210553)
(0.0306903 0.0729674 0.168237)
(0.032693 0.0643274 0.0701847)
(0.0367186 0.0533405 0.0207189)
(0.00112363 0.316111 0.19364)
(0.0114676 0.169344 0.0501685)
(0.0128572 0.138588 0.0133598)
(0.111744 0.0708356 0.170623)
(0.118308 0.0700235 0.0759598)
(0.118117 0.0622729 0.0233274)
(0.00908772 0.342777 0.193516)
(0.0328454 0.200383 0.0522686)
(0.0329568 0.170074 0.0146082)
(0.141537 0.0971524 0.159949)
(0.157395 0.109183 0.0755432)
(0.161306 0.112091 0.0195522)
(-0.0225307 0.378722 0.190617)
(0.0319925 0.251077 0.0533301)
(0.0431937 0.223944 0.0125142)
(0.049296 0.742021 0.186764)
(0.0420164 0.693991 0.0947176)
(0.0299207 0.659057 0.0212092)
(0.14956 0.51031 0.168726)
(0.152577 0.49526 0.0812939)
(0.142138 0.48538 0.0191507)
(0.122438 0.37421 0.165606)
(0.137994 0.370071 0.0792068)
(0.135593 0.369915 0.0214043)
(0.151612 0.322795 0.164386)
(0.162477 0.312532 0.0768756)
(0.158358 0.305019 0.0162876)
(-0.0521642 0.431155 0.190414)
(0.0143703 0.310365 0.0525296)
(0.019351 0.280817 0.00787724)
(-0.138566 0.632703 0.236385)
(-0.0790223 0.583458 0.118859)
(-0.0420321 0.549982 0.0318021)
(0.0398889 0.473942 0.212938)
(0.0842078 0.441529 0.105652)
(0.107865 0.422876 0.0288613)
(0.0387357 0.396462 0.193858)
(0.0952982 0.36841 0.0955962)
(0.119933 0.352216 0.0277701)
(0.0175156 0.383347 0.183991)
(0.0787021 0.340575 0.078565)
(0.0962993 0.315462 0.0193025)
(-0.0904313 0.524325 0.206491)
(0.0201309 0.350324 0.0492483)
(0.0332114 0.315023 0.0120466)
(0.00118623 0.195964 0.0699036)
(0.00157841 0.123715 0.0250501)
(0.00198451 0.0882866 0.00508219)
(0.00298738 0.0742534 -0.00731258)
(0.0106872 0.22111 0.0291401)
(0.00601128 0.134697 0.0110163)
(0.00498799 0.0932602 0.00303689)
(0.0047984 0.0760483 -0.00141597)
(0.000593026 0.196904 0.0740892)
(0.00310259 0.123525 0.027471)
(0.00712856 0.088463 0.0071887)
(0.0109147 0.0748002 -0.00440898)
(0.0174434 0.225965 0.0370481)
(0.01107 0.137483 0.0153004)
(0.0124366 0.0951116 0.00738859)
(0.0132272 0.0769611 0.00342752)
(-0.00856214 0.196208 0.0795802)
(0.00125242 0.122056 0.0305622)
(0.0102259 0.0885528 0.0108497)
(0.019524 0.0744884 0.000133188)
(0.00665414 0.230505 0.063436)
(0.00904967 0.139165 0.0293994)
(0.0115318 0.0971382 0.0112776)
(0.0130212 0.076987 0.00248333)
(0.00160463 0.248394 0.04836)
(0.0054292 0.14758 0.0270358)
(0.00547479 0.0993983 0.00928037)
(0.00534146 0.0800095 -0.000670777)
(-0.00837018 0.255952 0.0452412)
(-0.000250956 0.153428 0.0293986)
(0.00467983 0.10263 0.0168366)
(0.00787374 0.0830513 0.00983176)
(-0.0370507 0.209364 0.0659389)
(-0.00760148 0.130032 0.0291269)
(0.00361034 0.0920701 0.0087645)
(0.0116138 0.0754254 -0.00677568)
(-0.0579933 0.169612 0.0563494)
(-0.0134866 0.113169 0.0245752)
(-0.000174239 0.0840582 0.0106972)
(0.020113 0.0724622 -0.00668691)
(-0.0255447 0.182965 0.0778609)
(-0.00309685 0.117343 0.0301128)
(0.00693481 0.0857069 0.00976958)
(0.0173501 0.0702072 -0.00466998)
(-0.0475662 0.155626 0.0703637)
(-0.0102172 0.106438 0.0273571)
(-0.000906984 0.0806114 0.010923)
(0.0175251 0.0695334 -0.0109364)
(-0.0395911 0.227067 0.0529182)
(-0.00913961 0.139623 0.0270622)
(0.00473537 0.0965799 0.0106223)
(0.0148382 0.078846 -0.00223746)
(-0.065121 0.177975 0.0432832)
(-0.016083 0.118096 0.0216847)
(-0.000280867 0.0862667 0.0114938)
(0.0236933 0.0747756 8.04121e-05)
(-0.0442974 0.237068 0.0390894)
(-0.0121511 0.146148 0.0237901)
(0.00438508 0.0997975 0.0139424)
(0.0177565 0.0813262 0.00843816)
(-0.0702369 0.181625 0.0298462)
(-0.0184422 0.121623 0.0182872)
(-0.00112791 0.0881183 0.012093)
(0.024773 0.0761242 0.00702014)
(0.00043284 0.146608 0.088779)
(0.000937344 0.105546 0.0301659)
(0.00174305 0.0801459 0.00508746)
(0.00377097 0.0704013 -0.014582)
(0.00160578 0.0925835 0.0875753)
(0.00128896 0.0836953 0.0277371)
(0.00102591 0.0701948 0.00739078)
(0.00344298 0.0661744 -0.0198207)
(0.0030709 0.146926 0.0887335)
(0.0032024 0.104952 0.0306275)
(0.00545233 0.0799858 0.00588178)
(0.0102347 0.0702242 -0.0138902)
(0.00683339 0.0968839 0.084904)
(0.00435427 0.0848616 0.0270051)
(0.00322639 0.0706152 0.00769787)
(0.00933015 0.0665427 -0.0192264)
(-0.015553 0.150425 0.0871023)
(-0.00184689 0.104774 0.0307695)
(0.00589215 0.0803273 0.00893216)
(0.0174172 0.0705484 -0.00971186)
(-0.00677112 0.110177 0.0793563)
(0.00126639 0.0887705 0.0255926)
(0.00421645 0.0721733 0.00944095)
(0.0164605 0.0681854 -0.0156157)
(-0.00265468 0.148236 0.0764716)
(0.0048385 0.101921 0.0284909)
(0.00883249 0.0787092 0.0122637)
(0.0174797 0.0718929 -0.000860528)
(-0.000325979 0.121569 0.0870891)
(0.0039073 0.0914559 0.0286932)
(0.00357038 0.0741387 0.0132491)
(0.016602 0.0677705 -0.0182)
(-0.0407755 0.136897 0.0682702)
(-0.00776191 0.0985974 0.0254872)
(0.00066725 0.0766987 0.0122587)
(0.0231264 0.0684812 -0.00422492)
(0.00344548 0.0373766 0.0691333)
(0.00180184 0.0658749 0.0195274)
(0.00128598 0.055441 0.00660753)
(0.00263369 0.0167413 -0.0133122)
(0.00646913 -0.0251873 0.0274606)
(0.00262353 0.055897 0.00709408)
(0.00137058 0.0493895 0.00178556)
(0.00123709 0.0177715 -0.00272198)
(0.0071046 0.0471362 0.0715685)
(0.00428977 0.0690924 0.0208961)
(0.00278849 0.0567231 0.00734469)
(0.00674869 0.0176808 -0.0126686)
(0.0165236 -0.0129612 0.0286791)
(0.00697744 0.0594928 0.00769025)
(0.00343443 0.0505033 0.0022827)
(0.00316961 0.018155 -0.00217951)
(0.00433942 0.0654427 0.0730971)
(0.00479136 0.0747858 0.0224526)
(0.00385547 0.058685 0.0090429)
(0.0110926 0.0176236 -0.0110523)
(0.0209388 0.00775948 0.0293156)
(0.00981899 0.0655577 0.00837844)
(0.00518312 0.0521466 0.00292945)
(0.00499443 0.0183674 -0.001522)
(-0.00331617 0.0878119 0.0660342)
(0.00438866 0.0815374 0.0212117)
(0.00486456 0.0615247 0.0103945)
(0.0154469 0.0191493 -0.00862634)
(0.016549 0.0297638 0.0285532)
(0.0106261 0.0722652 0.00867713)
(0.00615844 0.0544995 0.00401822)
(0.00634245 0.0191629 -0.000346099)
(-0.0210212 0.102478 0.0605889)
(0.000669962 0.0876844 0.0211387)
(0.00231062 0.06504 0.0112303)
(0.0147155 0.0223559 -0.00488786)
(0.00504044 0.0354615 0.0256705)
(0.00917363 0.0773056 0.00918093)
(0.00563464 0.0566825 0.00546571)
(0.0064662 0.0198567 0.00124386)
(-0.0473605 0.109334 0.0422347)
(-0.00472593 0.0943922 0.01702)
(0.00170005 0.0666294 0.00826526)
(0.0169612 0.021233 -0.00151791)
(-0.0151004 0.0222955 0.024232)
(0.00231007 0.0825545 0.0119618)
(0.00351686 0.0607221 0.00718668)
(0.00596834 0.0210729 0.00375384)
(-0.036436 0.106642 0.048776)
(-0.00128584 0.0914202 0.0173164)
(0.00213896 0.0654209 0.00855899)
(0.0157868 0.0212499 -0.00358929)
(-0.00875443 0.0208351 0.0244577)
(0.00538506 0.0801136 0.0104387)
(0.00475022 0.0586825 0.0063558)
(0.00649572 0.0203517 0.00252698)
(-0.0574139 0.110105 0.0340542)
(-0.00893822 0.0965035 0.016427)
(0.000336911 0.0676218 0.0089752)
(0.0184221 0.0197771 0.00136873)
(-0.0207903 0.0197809 0.0217143)
(-0.00070536 0.0846662 0.0125321)
(0.00227069 0.0621033 0.00782475)
(0.00557437 0.021204 0.00495351)
(-0.0649734 0.112486 0.0240727)
(-0.0131066 0.0987464 0.0148498)
(-0.00155924 0.0694686 0.0099941)
(0.0181699 0.020217 0.0061076)
(-0.0260167 0.0239402 0.0180889)
(-0.00395334 0.0870161 0.0124066)
(0.00062987 0.0637878 0.00856852)
(0.00481136 0.0217342 0.00639067)
(0.00131455 0.0674703 -0.000661421)
(0.000572062 0.0510051 0.000266208)
(0.000289063 0.0348307 0.000269381)
(0.000166132 0.0201273 0.000184838)
(0.000117926 0.00657087 0.000138071)
(0.00172902 0.0667233 -9.90943e-05)
(0.000875814 0.0509025 0.000181722)
(0.000474478 0.0348576 0.000152274)
(0.000280681 0.0201546 0.000102193)
(0.000200958 0.00658025 7.63442e-05)
(0.00314126 0.0683061 0.000331743)
(0.00133164 0.0514194 0.000778854)
(0.000671047 0.0350313 0.000552349)
(0.000387697 0.0202199 0.000355101)
(0.000277417 0.00659773 0.000260793)
(0.00391169 0.0677569 0.000974317)
(0.00196267 0.0514324 0.00076364)
(0.00106549 0.0351261 0.000479075)
(0.000633968 0.0202815 0.000299108)
(0.00045572 0.00661751 0.00021799)
(0.00416846 0.0699089 0.00141349)
(0.00166873 0.0520109 0.00140461)
(0.000830365 0.0352919 0.000912981)
(0.000479357 0.0203371 0.000578197)
(0.000344049 0.00663158 0.000423765)
(0.00525995 0.0690482 0.00396069)
(0.00260508 0.052065 0.00259406)
(0.00141857 0.0354431 0.0015576)
(0.000849389 0.0204319 0.000964291)
(0.000613145 0.00666208 0.00070142)
(0.00275312 0.0700902 0.00474256)
(0.00133325 0.0527883 0.00305657)
(0.000723251 0.0358626 0.00183507)
(0.000434062 0.020643 0.00113905)
(0.000313648 0.0067261 0.000831285)
(0.00196136 0.0717416 0.0069096)
(0.00078419 0.0538305 0.00404638)
(0.000388571 0.036461 0.00235759)
(0.000226285 0.0209444 0.00144963)
(0.000161804 0.00681751 0.00105621)
(0.00417693 0.071544 0.00247931)
(0.00170701 0.0527226 0.00205306)
(0.000867219 0.0356681 0.00129035)
(0.000507585 0.0205205 0.000810191)
(0.000363421 0.0066866 0.000590227)
(0.00199503 0.0763813 0.00266624)
(0.000699269 0.0535946 0.00193914)
(0.00033412 0.0359149 0.00119108)
(0.000191109 0.0206119 0.000745992)
(0.000135678 0.00671154 0.00054379)
(0.00440285 0.0718896 0.00171324)
(0.00198302 0.0525391 0.00164892)
(0.00105473 0.0354865 0.00105551)
(0.000627269 0.0204184 0.000668616)
(0.000452093 0.00665443 0.000489579)
(0.00188523 0.0762787 0.0031843)
(0.000695651 0.0532803 0.00202064)
(0.000342755 0.035714 0.00119671)
(0.000197731 0.0205084 0.000743462)
(0.00014025 0.00667964 0.000540082)
(0.00321876 0.0722018 0.00323678)
(0.00111709 0.0533584 0.00244893)
(0.000525078 0.0360439 0.00152059)
(0.000299402 0.020711 0.000953065)
(0.000212917 0.00674465 0.000696266)
(0.0018921 0.0777715 0.00358565)
(0.000625106 0.0542117 0.00231994)
(0.000292864 0.036257 0.00139347)
(0.000167512 0.0207839 0.000867274)
(0.000119267 0.00676404 0.000632464)
(0.0028103 0.0738347 0.00548988)
(0.000723653 0.0543699 0.00325934)
(0.000273299 0.036607 0.00190411)
(0.000141692 0.0209922 0.00117189)
(9.68747e-05 0.00682997 0.000853543)
(0.0015534 0.079506 0.00459027)
(0.000342697 0.0551138 0.00269142)
(0.000117905 0.0367446 0.00156983)
(5.85552e-05 0.0210269 0.000966191)
(3.92394e-05 0.00683805 0.0007026)
(0.0010978 0.0693471 -0.00121908)
(0.000432191 0.0512628 0.000132302)
(0.000210005 0.0348287 0.000199402)
(0.000117996 0.0201055 0.000141948)
(8.29193e-05 0.00656267 0.000106929)
(0.000793323 0.0729277 -0.000665571)
(0.000342384 0.0515512 4.10818e-05)
(0.000173991 0.0348361 7.82367e-05)
(9.91685e-05 0.0200927 5.68013e-05)
(6.99436e-05 0.0065577 4.33769e-05)
(0.00268225 0.0701331 -0.000566383)
(0.00108372 0.0515896 0.000454689)
(0.00054022 0.034978 0.000374479)
(0.000308114 0.0201725 0.000247009)
(0.000218603 0.00658181 0.000183329)
(0.00204857 0.073552 -0.000432464)
(0.000900783 0.0517975 0.000155276)
(0.000465821 0.0349501 0.000139141)
(0.000268089 0.0201442 9.2706e-05)
(0.000189858 0.00657247 6.95411e-05)
(0.0037643 0.0717358 0.000256279)
(0.0013375 0.0521373 0.000830002)
(0.00063884 0.0352131 0.000574383)
(0.000358872 0.0202777 0.00036872)
(0.000253776 0.00661186 0.000273025)
(0.00277885 0.0749262 0.000451583)
(0.00123974 0.0522456 0.000534921)
(0.000648517 0.0351527 0.000336406)
(0.000374705 0.0202365 0.000208407)
(0.000267303 0.00659892 0.000153411)
(0.00338108 0.0743451 0.00208703)
(0.00152373 0.052767 0.0016341)
(0.000814094 0.0354513 0.00100386)
(0.000481607 0.0203809 0.000631037)
(0.000347296 0.00664114 0.000464293)
(0.00188792 0.0765735 0.00139807)
(0.000942477 0.0527273 0.00103387)
(0.000510522 0.0353842 0.000620103)
(0.000298997 0.0203434 0.000386335)
(0.000215579 0.00662933 0.00028422)
(0.00175102 0.0768203 0.00387773)
(0.0008374 0.0530912 0.00214835)
(0.000458363 0.0355866 0.00122995)
(0.00027442 0.0204425 0.000754869)
(0.000198073 0.00665904 0.000548138)
(-0.0127019 0.39478 0.0682534)
(-0.0178959 0.607219 0.155896)
(-0.028034 0.413652 0.0691739)
(-0.0436175 0.618557 0.154449)
(-0.027916 0.441341 0.0758621)
(-0.0541961 0.633081 0.153373)
(-0.00591613 0.459914 0.0902937)
(-0.0430079 0.6418 0.159498)
(0.0204144 0.440888 0.0940406)
(-0.00465697 0.61632 0.16429)
(-0.0276383 0.408306 0.0383166)
(-0.0478513 0.460015 0.0585183)
(0.0115776 0.40879 0.0623301)
(0.00827859 0.482232 0.0984255)
(-0.0452938 0.410608 0.020663)
(-0.0724247 0.456049 0.0289042)
(-0.0580397 0.417753 0.00754491)
(-0.0831685 0.461587 0.00980815)
(-0.0254186 0.349726 0.354663)
(-0.00591523 0.0598681 0.0847359)
(-0.00133416 0.0127863 0.0194276)
(-0.00029501 0.00286658 0.0043414)
(-7.40796e-05 0.000507427 0.00107919)
(-0.00836945 0.388968 0.0967233)
(-0.00380751 0.110695 0.0260515)
(-0.00053694 0.026867 0.00693091)
(-0.000142685 0.00609301 0.00157683)
(-6.23294e-05 0.00107816 0.000342999)
(-0.0780636 0.353131 0.350452)
(-0.0180808 0.0593671 0.0830558)
(-0.00409199 0.0125878 0.019025)
(-0.000900329 0.00281142 0.00421599)
(-0.000226377 0.000496326 0.00105579)
(-0.0199283 0.392146 0.0984588)
(-0.00539342 0.110173 0.0290434)
(-0.00131315 0.0266388 0.0071605)
(-0.000276477 0.00601272 0.00166553)
(-7.45817e-05 0.00105485 0.000413896)
(-0.131062 0.356132 0.334566)
(-0.0304168 0.059056 0.0787468)
(-0.00690191 0.0124165 0.0179715)
(-0.00152352 0.00276122 0.00397765)
(-0.000382225 0.000486447 0.000997328)
(-0.0316825 0.394483 0.095569)
(-0.00914845 0.109646 0.0280792)
(-0.00222028 0.0263696 0.00690406)
(-0.000515147 0.00593014 0.00159784)
(-0.000129482 0.00103884 0.000398515)
(-0.175646 0.35259 0.306331)
(-0.0408813 0.0572199 0.0714695)
(-0.00931396 0.0119233 0.0162626)
(-0.00206212 0.00264491 0.00359655)
(-0.000517954 0.00046566 0.000902092)
(-0.0367632 0.38955 0.0928215)
(-0.0114867 0.107272 0.0267013)
(-0.00287801 0.0257055 0.00648055)
(-0.000675325 0.0057712 0.0014866)
(-0.000169369 0.00100997 0.0003688)
(-0.219095 0.334109 0.256439)
(-0.0514961 0.0528522 0.059527)
(-0.0118132 0.0109899 0.013553)
(-0.00262853 0.00244535 0.00300154)
(-0.000662962 0.000431508 0.000753842)
(-0.0404667 0.368685 0.0876446)
(-0.0139282 0.101711 0.0245335)
(-0.00359351 0.0244526 0.00588995)
(-0.000854309 0.00550561 0.00134274)
(-0.000216775 0.000964941 0.000332143)
(-0.258934 0.296997 0.121261)
(-0.0627276 0.0488481 0.0294353)
(-0.0145888 0.0104883 0.00681726)
(-0.00327359 0.00237189 0.00152095)
(-0.00082937 0.000421767 0.000382642)
(-0.0630879 0.304008 0.0427692)
(-0.0193931 0.087989 0.0121626)
(-0.00480039 0.0217155 0.0028974)
(-0.00110449 0.00497041 0.000649199)
(-0.000277056 0.000879488 0.00016023)
(-0.241336 0.307848 0.180748)
(-0.0582647 0.0498228 0.0432591)
(-0.0134917 0.0105716 0.00994123)
(-0.00301489 0.00237571 0.00220701)
(-0.000761416 0.000421071 0.000554328)
(-0.0487945 0.322494 0.0629201)
(-0.0164025 0.0931696 0.017662)
(-0.00418763 0.0227913 0.00424239)
(-0.000983132 0.00517514 0.000966583)
(-0.000246974 0.000910848 0.000240701)
(-0.266889 0.292769 0.0711641)
(-0.0647458 0.0486166 0.0174118)
(-0.0150862 0.0104868 0.00405147)
(-0.0033905 0.00237719 0.000908346)
(-0.000860299 0.00042312 0.000228972)
(-0.0716187 0.297751 0.0239753)
(-0.0212857 0.0856638 0.00709016)
(-0.00518978 0.0211597 0.00167955)
(-0.00117727 0.00485845 0.000376239)
(-0.000294525 0.000862097 9.3749e-05)
(-0.278036 0.291603 0.0246069)
(-0.0668764 0.0482263 0.00598561)
(-0.0156037 0.0103942 0.00139628)
(-0.00350513 0.0023571 0.000314188)
(-0.000888856 0.000419179 7.92662e-05)
(-0.0743508 0.29799 0.00963559)
(-0.0221629 0.0851106 0.00259017)
(-0.00545137 0.0209677 0.000569454)
(-0.00114903 0.00482545 0.000159464)
(-0.000304115 0.000854844 3.11733e-05)
(-0.0203837 1.34876 0.00321233)
(-0.279643 1.91261 0.0191403)
(-0.255179 1.86894 0.184004)
(-0.09104 1.3088 -0.0347154)
(0.0663091 0.770963 0.0303036)
(0.112843 0.811343 0.0324757)
(0.314254 1.13689 0.0947549)
(0.459336 1.18769 0.121351)
(0.0711569 0.890037 0.0765689)
(0.337495 0.997517 0.14351)
(-0.0659822 1.41513 0.120743)
(0.103994 1.93073 0.18617)
(0.100471 1.78897 0.145667)
(0.198773 2.36988 0.180757)
(0.375727 1.16842 0.0756499)
(0.531812 1.33174 0.101858)
(0.568147 0.916941 0.0805897)
(0.713232 0.97963 0.0955995)
(0.232016 0.497793 0.0418994)
(0.300497 0.545817 0.0435658)
(-0.795324 0.196309 0.0925751)
(-0.574491 0.129451 0.0672799)