/*--------------------------------*- C++ -*----------------------------------*\
| =========                 |                                                 |
| \\      /  F ield         | OpenFOAM: The Open Source CFD Toolbox           |
|  \\    /   O peration     | Version:  2306                                  |
|   \\  /    A nd           | Website:  www.openfoam.com                      |
|    \\/     M anipulation  |                                                 |
\*---------------------------------------------------------------------------*/
FoamFile
{
    version     2.0;
    format      ascii;
    arch        "LSB;label=32;scalar=64";
    class       volScalarField;
    location    "2";
    object      gradTy;
}
// * * * * * * * * * * * * * * * * * * * * * * * * * * * * * * * * * * * * * //

dimensions      [0 -1 0 1 0 0 0];

internalField   nonuniform List<scalar> 
5712
(
11798.6
6804.07
19120.8
12539.7
20869.2
15454.4
32746.3
40617.7
43059.7
52721.2
27854.9
24212
17692.1
14029.7
8883.53
6010.24
19781.6
20202.6
17052.5
20014.6
26724.3
23824.6
30863.7
24941.5
8322.58
5985.94
4679.24
3478.66
9952.51
8101.2
6043.53
4888.35
18123.6
18796
18497.3
15584
14385.6
11260.3
11301.5
12839.1
18207.9
18124.8
38227.9
39523.2
27063
27883.8
15468.4
13042.9
16833
11999.6
7829.01
8042.72
6423.28
9001.03
3361.13
4054.87
8804.19
12071.9
5244.54
6123.66
9749.52
16393.3
6758.57
11074.9
2575.51
6583.07
2143.42
4911.17
17802.1
21994.6
18384.5
21911.8
21773.6
21979.9
22190.5
21707.6
15653.7
21216.7
16077.5
20950.2
18114.6
21766.1
18110.9
21717.4
22382.9
21434.7
22310.4
21232.6
14466.8
21308
13967.6
21384.8
17681.4
20767.9
22326.6
31171.9
18724.4
23977.8
22125.1
33851.2
16765.8
18282.4
22415.4
29971.1
16589
17107.9
22656.9
29745.2
5303.41
6939.64
13527.8
23613.1
6580.12
7485.22
17428.3
26869.6
8198.7
8282.77
22107.5
30018.1
24512.8
26279.7
20785.2
20115.8
29193.8
26450.4
25015.8
21214.1
18423.1
33360.8
24109.3
23831.2
21271.1
21193.3
38138.2
2050.55
2461.62
4389.21
10000.5
2912.03
3295.86
6067.73
11218.8
4344.88
3679.13
8258.62
12883.3
26177.7
25850.5
23638.8
23241.7
20300.1
18581.1
15392.2
13610
10872.2
15119.4
23840.9
23014.2
24057.9
23661.6
20944.3
19622.7
17361.4
15558.6
11591.4
15273
23838.3
26839.7
23771.3
27502
23020.8
23833
22472.8
24000.8
21700.1
22074.8
21523.1
21433.6
23584.2
27618.2
23475.9
27592
21815.4
24295.9
21634.7
24239
21783.6
22025
21777.5
22011.1
18280.9
17379.9
11791.7
13116.6
18154.8
16921.4
11612.2
13162.5
18536.4
17329.4
12049.2
13172.3
18611.4
17154.4
12424.1
13181.4
1670.24
1131.5
786.329
969.349
667.667
623.059
2322.49
1390.09
1053.59
1912.32
1538.6
1327.32
2700.57
2248.96
2256.64
3363.94
2752.63
2472.71
24687.4
22279.9
20595.5
22738.6
21068.5
19731.2
16329.6
15148.6
14500.2
11107
9626.21
8998.19
5128.04
3782.08
3203.93
22331.3
20659.9
19236.5
22946.9
20893.7
19297
17016.8
14607.9
13241.1
11114
8886.52
7977.28
5454.92
3764.49
3019.71
27107.5
26525.8
29527.6
26496.8
30385.7
26501.2
36689
27911.6
21013.8
21342.2
20753
19267.1
23576.6
22213.6
23152.4
19791.6
22922.1
22752.7
21118.1
22586.4
28142.4
25275.6
27909.6
28338.3
30310.4
31348.7
23246.7
24123.7
20817.3
20207.9
25319.2
25973.7
16491.3
8884.71
15417.5
9836.7
16734.3
8965.43
15374.1
9775.21
16513.4
9014.04
15336.9
10188.4
14917.6
10659.4
15098.1
10572.6
21220.9
18152.9
21102.5
18127.4
23424.2
21160.6
23661.5
20951.8
20674
15149.2
21564
14951
21570.9
18041
21843.4
17836.9
24271.1
20779.8
24287.8
20513.4
20474.6
15194.4
20416
15101.2
13574.1
9053.23
12005.8
7688.61
12651.2
8112.51
11539.3
7184.7
13907.6
9620.07
12199.1
7923.14
13926.2
9968.09
12168.5
7980.36
2582.25
1344.63
4716.89
2502.09
2760.34
1659.76
5030.24
3016.31
3407.04
2523.16
5580.78
3983.23
13184.1
20381.6
9511.82
9127.27
6472.1
19967.1
13935.7
8191.94
8232.06
5323.88
20757
16369.3
13035.1
10155.1
6298.5
715.584
543.702
1402.36
1021.41
1028.31
713.63
2019.86
1604.26
1804.52
1413.59
2979.58
2426.01
20285.4
19668.7
13786.2
13252.6
8986.27
9096.61
7570.33
6998.05
4550.62
3739.6
19021.5
17335.6
14781.9
13024.4
11536.7
10298
8784.8
7984.21
5567.88
5545.34
15137
12305.6
15220.9
11999.8
18156
15113
18105.5
14887.5
12777.4
10422.5
12403.4
10469.9
15219.6
11807.3
15124.8
11787.2
18030.8
15161.9
17856
15114.8
13003.2
10254.4
12980.6
10390.2
9969.44
8495.06
6578.44
6983.97
9611.81
8318.62
6274.33
6624.74
10391.3
8659.16
6745.63
7395.68
10639.4
8658.97
7012.51
7503.3
1824.19
1608.18
1333.51
7902.78
4233.6
3464.69
1770.89
1750.59
1556.82
8569.42
5009.57
4251.84
2428.81
2729.58
2802.28
9468.05
6276.93
5598.59
18550.5
17349.8
16476.4
12757.8
12381.5
12134.5
9355.26
9251.79
9247.88
8069.88
7813.3
7625.46
10778.9
7759.13
7020.43
15817.6
14586.5
13749.5
11848.5
11038.2
10571.9
9911.56
9210.25
8805.41
9583.67
8514.39
7886.56
13108.1
8758.09
7875.57
4899.11
3092.87
2207.17
1856.33
5527.76
3367.43
2331.51
1901.21
4922.6
3088.14
2211.58
1870.01
5649.14
3437.07
2377.79
1924.03
4905.19
3051.39
2213.82
1862.21
5762.62
3479.12
2428.45
1924.68
6209.84
3689.49
2484.96
2000.24
6398.8
3835.69
2565.75
2076.28
5234.09
3250.8
2301.75
1885.64
4240.31
2829.24
2101.46
1811.56
4574.13
2933.57
2142.67
1755.18
3890.66
2660.96
2015.28
1738.34
5676.67
3490.57
2414.5
1971.15
4449.36
2952.4
2156.67
1869.39
5926.69
3653.7
2494.94
2033.15
4540.62
3040.56
2202.96
1903.11
3665.21
2638.65
2003.65
1760.03
2314.59
2092.38
1754.87
1654.36
3673.15
2623.81
1999.64
1755.6
2422.1
2121.54
1765.38
1663.57
3760.63
2619.35
2008.18
1763.71
2754.42
2219.26
1804.33
1704.63
3705.91
2548.04
1967.73
1797.32
3039.21
2286.4
1853.47
1694.26
3422.43
2464.94
1917.47
1712.03
934.415
1646.87
1386.03
418.533
-629.684
1397.43
1234.74
444.288
1178.4
1727.31
1418.08
442.02
-324.03
1487.32
1262.58
453.875
1636.07
1869.64
1467.13
440.591
193.987
1638.94
1303.66
459.184
2195.3
2038.44
1538.12
478.733
744.096
1806.63
1362.49
479.072
2561.94
2192.11
1626
558.898
886.537
1932.64
1417.06
496.416
2733.35
2359.81
1665.74
530.826
557.388
2063.86
1518.05
526.823
2666.04
2285.5
1635.52
531.247
520.878
2002.84
1467.06
508.791
2752.62
2412.59
1690.54
494.428
494.523
2116.66
1552.58
530.1
2812.14
2468.66
1736.71
505.425
598.505
2175.4
1594.7
543.355
1686.76
1275.13
870.767
503.183
164.272
1668.08
1272.56
871.439
503.865
164.506
1707.65
1285.49
875.782
505.497
164.943
1693.92
1285.81
878.152
507.036
165.438
1747.72
1300.27
882.298
508.428
165.789
1726.2
1301.63
886.077
510.796
166.552
1752.25
1319.71
896.564
516.076
168.152
1793.54
1345.76
911.524
523.61
170.438
1788.6
1318.06
891.704
513.012
167.165
1909.53
1339.87
897.873
515.296
167.789
1797.24
1313.48
887.162
510.461
166.361
1906.97
1332.01
892.849
512.711
166.991
1805.04
1333.96
901.098
517.775
168.616
1944.29
1355.29
906.425
519.597
169.101
1845.87
1359.25
915.174
524.805
170.749
1987.65
1377.84
918.614
525.673
170.951
1733.68
1281.57
870.718
502.637
164.067
1823.19
1288.78
870.902
502.318
163.942
1753.33
1289.74
874.449
504.313
164.545
1838.8
1294.94
873.751
503.605
164.312
1793.39
1303.43
880.327
506.941
165.297
1873.16
1306.14
878.819
505.912
164.973
1858.63
1319.18
886.284
509.523
166.029
1914.34
1318.18
884.605
508.586
165.733
1920.51
1327.28
889.665
511.063
166.476
9869.5
15180.5
10341.3
15463.9
11033.5
15827
11497.8
16045
11022.2
15408
10207.7
11500.4
10219.8
12055.8
10265.2
11401.2
10443.8
11539.7
8743.14
1496.7
319.657
71.6646
12.6857
9724.19
2767.37
671.674
152.325
26.9541
8828.27
1484.18
314.696
70.2856
12.4082
9803.66
2754.32
665.971
150.318
26.3712
8903.31
1476.4
310.413
69.0305
12.1612
9862.07
2741.16
659.241
148.253
25.971
8814.75
1430.5
298.081
66.1227
11.6415
9738.76
2681.8
642.638
144.28
25.2493
8352.73
1321.3
274.747
61.1338
10.7877
9217.12
2542.77
611.316
137.64
24.1235
7424.92
1221.2
262.207
59.2971
10.5442
7600.2
2199.73
542.888
124.26
21.9872
7696.2
1245.57
264.29
59.3927
10.5268
8062.36
2329.24
569.782
129.378
22.7712
7319.23
1215.42
262.171
59.4298
10.578
7443.78
2141.6
528.993
121.461
21.5524
7290.08
1205.66
259.855
58.9274
10.4795
7449.75
2127.77
524.193
120.636
21.3711
33718.9
47815.2
46723.5
32720
19274.1
20283.6
28422.3
29692.3
22250.9
24937.9
35378.3
48268.1
44724.2
59246.9
29210.5
33293.4
22923.5
24490.7
12444.8
13645.4
4907.73
3236.26
838.43
642.13
723.375
632.723
774.187
4789.24
4718.59
2841.58
3987.69
3816.39
1648.96
2285.32
2069.61
1360.33
1569.37
1284.06
4319.58
2329.43
1478.82
1307.5
1668.42
1444.82
1128.63
1065.55
998.6
875.698
1195.54
1078.18
4524.7
2736.96
3143.35
1992.76
1637.01
2312
1151.72
900.245
1267.68
9957.49
10014.7
10185.9
11396.4
18633.4
7154.83
8185.74
8933.32
10009.2
11632.4
2203.28
3144.05
3858.76
4345.76
4597.67
1700.85
2454.5
3038.45
3436.85
3639.82
1913.49
2754.6
3400.01
3835.35
4054.91
1677.67
2424.14
3002.77
3396.15
3595.39
2042.68
2930.34
3608.17
4066.29
4298.96
10049.6
10321.4
10164.5
10748.8
16697.6
9874.91
9965.96
9639.59
9840.6
11195.1
6519.36
7708.18
8304.06
8859.83
9544.56
8604.67
9011.84
8764.68
8683.54
8889.27
8230.17
8696.4
8431.48
8211.14
8204.99
4105.47
5418.95
6244.81
6768.98
7060.72
5424.49
6697.92
7358.53
7784.48
8088.99
4977.29
6244.77
6899.28
7253.45
7439.32
3463.29
4713.6
5551.61
6079.1
6347.63
3924.77
5205.58
6002.12
6478.65
6717.43
3289.43
4513.97
5345.2
5864.13
6120.69
9241.41
9818.4
9957.96
10802
16988.2
5529.95
6879.21
7710.61
8431.91
9161.71
3738.02
5044.05
5922.07
6505.57
6835.89
3343.08
4588.39
5464.75
6059.04
6390.78
4152.88
5500.83
6405.2
7060.05
7502.79
3663.04
4976.58
5902.52
6562.77
6964.07
2918.23
4073.97
4925.98
5518.64
5846.25
2770.6
3892.91
4718.07
5275.2
5567.8
2608.76
3685.18
4473.15
4988.95
5246.92
2300.96
3279.42
4013.03
4501.62
4747.82
3082.79
4275.21
5116.47
5664.38
5946.41
2800.82
3927.84
4747.64
5292.59
5574.49
9413.68
9755.62
9976.83
11082.7
17879.6
6251.1
7459.15
8304.21
9289.35
10546.4
7287.85
8521.31
9144.28
10131.6
12286.6
4849.21
6265.31
7250.96
8094.78
8803.24
4093.88
5469.38
6435.82
7171.9
7674.43
5497.67
6876.72
7775.44
8602.47
9448.49
2975.97
4148.23
5004.66
5593.39
5915.2
2360.39
3355.47
4101.57
4603.26
4860.1
3250.66
4482.26
5363.13
5969.31
6309.63
18554.6
12326.2
19111.3
13655.3
24761.2
35404.8
25885.2
35236
19643
20769.6
16862.2
20076.4
22299.3
21186.4
28420.3
23273.4
14314.1
13394.4
7013.52
5990.72
15596.9
14266.9
8054.02
6577.54
19292.6
20843.6
19765.4
18023.9
20157.7
13277.8
11108.8
12805.8
18130.1
18097.5
37699.7
39413
26333.4
27686.5
16070.1
13171.5
17530.9
12123.7
8499.33
8204.7
14098.1
15608.3
5897.69
6435.16
15509.8
17705.4
7354.5
8123.13
14787.5
20680.9
8585.63
13245.8
2998.55
7329.11
2228.08
5056.46
18279.9
20887.7
18222.2
21265.3
19917.5
20189.9
20997.6
20706.7
16653.3
21066.1
18894.2
20769.6
17922.2
21419.5
18035
21604.9
21769.4
20923.7
22130.1
21074.4
14759.7
21200.4
14013.1
21342.3
18585.8
22013.1
22561.5
31484.6
20249.7
26070.9
22635.7
34518.9
17174.7
18879.9
22500
30103.5
16693.3
17273.1
22670.9
29778.6
19335.2
20883.5
24266.6
36005.1
19448.4
19896.7
25971.1
36473.8
19156.9
18816.3
27946.5
36181.6
18482.3
19330.6
19788.6
21096
31779.7
18573.1
17380.5
21116.5
19277.1
36335.4
19378.4
20244.4
20121.3
21865.4
39283.7
11557.1
10565.1
10739.1
13907.4
12651.9
11583.4
11126.8
14290.9
13926.6
12066.1
11638.5
14605.8
17992.4
17277.8
16914.2
16434.6
19572.5
18278.8
16189.8
14563.6
12188.7
15238
19022.3
18780.4
20187.3
20299.7
19407.2
18250.4
17643.1
15660.7
12003
14734.1
21980
24727
22833.5
26367
20745.9
21635
21380.3
22917.1
21192.5
21414.3
20654.1
20376.9
23126
27068.4
23336.6
27428.2
21305.2
23771
21483.6
24085.8
21508.1
21685.9
21690.2
21909.6
18153.5
17116.5
11829.4
13024.4
18075
16628.2
11797.9
13073.4
18439.2
17171.8
12043.7
13108.6
18575.3
17103.1
12416.8
13157.4
9666.29
9813.03
4165.55
3833.83
10782.1
10427.8
4666.91
4463.52
10503.9
9832.46
5311.7
5124.09
16996.3
16462.6
16621
16671.1
16611.3
16083.6
12521.9
11190.3
6266.9
5166.24
19049.7
18248
20406
19581
16243.2
15032.8
11699.2
10031.1
5762.34
4322.35
22209.5
21100
27265.4
23796.8
24739.1
22032.9
33919.9
25558.1
20314.2
16758.9
22144
17592.2
20190.2
17039.7
22238.3
17821
20772.5
18396.7
18779.2
17450.6
21308.3
22606.1
26553.9
27926.4
29170.7
31018.8
21901.8
23649.5
19768
19908.3
23793.9
25460.4
13677.6
10113.5
14120.5
10342.9
13957.8
10024.7
14310
10193.7
13869.5
9875.21
14253
10388.4
14290.5
10698.1
14893.9
10578.4
17350.7
16841.9
19176.9
17318.1
19887.7
19052.7
21782.9
19780.3
18863.5
14849
17917.7
14665.9
20616.1
17611
21559.7
17706.6
23357.2
20189.9
24023.2
20335.3
19578.1
15005.6
20154.7
15042.5
13171
9471.72
12213.2
8071.04
12602.9
9184.71
12146.8
7992.96
13593.7
9774.97
12264.4
8101.85
13815.6
10005
12185.1
8038.46
13168.5
13333.1
9497.76
8756.88
13307.1
13445
9351.56
8683.93
13260.6
12917.2
9118.03
8583.57
15357.9
18106.2
16172.8
12051.7
8858.08
16797.1
15728.7
17593.4
12090.1
8560.03
18521.1
16425.2
14591
12260.4
7922.19
13901.4
15042.1
8700
9374.54
13758.2
14642.6
8622.14
9245.6
12844.5
13317.9
8250.62
8386.35
16610.6
15732.6
15021.9
14450.2
15615.8
16039.3
12203.1
12981.8
8011.1
7839.04
16820
15412.1
15166.5
13853.1
13662.7
13063.2
11581.2
11581
7394.25
7884.93
14850.5
12702.2
14923
12131.8
16794.4
14251.7
17323.2
14436.7
12947.4
10990.9
13032.9
11761.4
15030.1
11862.5
15065.6
11801.8
17638.9
14939.6
17739.1
15051.3
13024.1
10499.8
12973.4
10452.1
10472.3
9293.53
7072.66
7722.57
10758.3
9985.38
7249.99
8106.64
10591.9
9014.45
6975.6
7790.16
10696.3
8762.51
7090.47
7627.31
17874.9
17818.4
24333.9
20516.6
17159
17221.9
23334.1
19613.4
15067.9
15688.9
21419
18233.2
15236.1
14710
14028.1
13825.3
16219.7
16647
14975.9
14932.3
19652.9
16687.1
14390.5
13687.3
13189.5
13004.2
13443.5
13766.7
14377.5
14041.6
19181.1
15317
6387.05
4081.43
2801.51
2261.09
6631.62
4215.32
2880.55
2280.61
6270.5
4006.28
2754.28
2238.56
6570.95
4170.64
2852
2253.41
6057.8
3858.79
2688.06
2183.32
6478.44
4069.63
2824.72
2201.89
6627.7
4060.77
2753.28
2196.88
6538.61
3964.75
2656.37
2144.7
5837.7
3716.88
2626.16
2129.58
4646.64
3162.06
2330.65
1995.02
5523.44
3595.95
2563.27
2052.26
4553.97
3172.85
2320.24
1956.99
6010.16
3768.91
2618.43
2127.89
4668.92
3140.32
2300.6
1994.28
6030.06
3746.91
2565.08
2088.02
4609.84
3101.78
2252.16
1946.03
5876.13
3827.52
2656.51
2192.69
5025.13
3452.27
2465.15
2114.87
5721.86
3749.51
2611.43
2158.92
4918.96
3408.06
2440.64
2103.86
5505.22
3623.05
2557
2128.87
4840.59
3350.35
2411.14
2100.92
5046.62
3391.17
2437.96
2116.61
4664.28
3253.95
2367.17
2015.03
4404.83
3157.16
2295.45
1956.87
3769.44
3068.83
2046.39
575.918
1824.47
2822.9
1907.05
635.844
3806.14
3067.18
2046.86
596.078
1986.81
2826.21
1904.3
638.234
3872.5
3046.92
2023.94
568.689
2212.05
2813.57
1879.43
623.53
3832.24
2994.76
2028.18
598.355
2236.71
2767.9
1859.45
623.32
3562.98
2888.96
2022.83
675.979
1722.68
2657.54
1822.78
619.278
3040.21
2655.13
1905.51
618.525
711.44
2377.83
1734.04
601.066
3227.98
2755.21
1960.17
636.132
897.705
2498.56
1772.66
606.353
2905.39
2574.59
1836.33
550.167
549.373
2287.48
1679.35
575.558
2856.2
2520.29
1784.93
524.324
608.702
2228.82
1635.74
558.344
1992.37
1457.59
971.834
553.113
179.258
1947.36
1445.74
968.517
552.012
178.972
1991.21
1451.98
967.889
550.996
178.6
1940.41
1437.07
962.857
549.048
178.062
2006.54
1447.29
963.242
548.376
177.778
1934.25
1427.04
956.156
545.543
176.993
1895.34
1406.75
945.397
540.332
175.446
1846.17
1378.59
930.038
532.828
173.214
1979.51
1431.5
954.362
543.981
176.464
2091.22
1440.92
952.958
542.437
175.933
2039.88
1448.2
960.756
546.719
177.238
2141.21
1453.39
958.524
544.999
176.674
1931.2
1411.81
944.413
539.236
175.066
2062.03
1423.8
944.04
538.182
174.684
1889.56
1386.22
930.261
532.302
173.008
2028.11
1401.7
931.769
532.195
172.919
2080.27
1474.94
975.792
554.264
179.54
2224.89
1490.57
978.549
554.99
179.713
2084.54
1471.47
973.023
552.734
179.057
2226.29
1487.47
976.357
553.807
179.343
2101.82
1466.83
968.632
550.304
178.293
2233.19
1481.46
972.161
551.597
178.655
2148
1465.14
964.699
547.998
177.559
2243.55
1472.55
966.954
548.933
177.82
2197
1461.81
961.985
546.56
177.116
11787.2
15532.4
11848
15539.7
11979
15537.2
11777.2
15343.1
11000.9
14581.1
10185.4
11405.9
10222.6
11872.9
10243.9
11348.9
10435.5
11522.9
9095.24
1515.74
319.143
71.0356
12.5271
9792.67
2774.38
669.166
150.972
26.6236
9056.22
1490.76
312.695
69.4669
12.2293
9749.15
2739.82
660.213
148.512
25.9914
8938.2
1463.79
306.125
67.9176
11.9499
9635.26
2696.31
648.907
145.813
25.519
8681.63
1403.02
292.192
64.8291
11.4142
9387.43
2614.72
628.975
141.396
24.7516
8182.21
1293.18
269.108
59.9314
10.5805
8876.38
2475.44
597.561
134.786
23.6411
7366.57
1209.86
259.475
58.6459
10.4261
7522.84
2173.61
536.023
122.649
21.7
7600.34
1227.04
260.092
58.4421
10.3592
7913.99
2284.5
559.118
127.029
22.3667
7286.81
1209.18
260.635
59.0529
10.5083
7404.04
2128.09
525.279
120.554
21.3864
7279.6
1203.65
259.358
58.8042
10.4565
7437.23
2123.62
523.035
120.347
21.3174
33270.6
47525.3
45697.3
31366.3
24485.7
29204.4
23663.3
29088.6
27444.2
43612
29106
44664.2
189.094
205.164
240.891
298.97
384.029
501.7
202.572
219.154
255.882
315.03
399.892
514.487
178.975
173.999
195.968
192.655
233.888
234.472
296.04
304.301
386.033
404.391
504.405
525.371
658.915
863.445
1133.93
1498.53
1922.26
2227.58
663.015
848.72
1073.86
1329.7
1576.4
1736.84
506.211
742.384
932.454
1065.42
1133.81
548.983
804.571
1009.93
1153.37
1227.08
644.101
942.861
1182.16
1348.88
1434.42
798.447
1166.65
1460.19
1663.98
1768.31
1023.73
1491.61
1862.14
2118.16
2248.96
1333.5
1934.5
2405.92
2729.93
2895.29
542.108
794.655
997.697
1139.6
1212.55
586.18
858.581
1077.15
1229.65
1307.96
683.8
1000.15
1253.06
1429.03
1519.24
840.673
1226.93
1534.12
1747.07
1856.03
1064.91
1549.3
1931.81
2195.84
2330.77
1365.86
1978.13
2457.15
2786.42
2954.8
479.176
702.905
883.11
1009.25
1074.16
465.859
683.428
858.75
981.51
1044.68
524.467
768.877
965.431
1102.82
1173.44
515.608
755.956
949.32
1084.51
1154.01
625.515
916.003
1148.92
1311.31
1394.64
627.083
918.356
1151.97
1314.86
1398.44
790.858
1156.11
1447.63
1650.12
1753.8
812.892
1188.27
1487.85
1695.87
1802.33
1029.48
1500.87
1874.56
2132.79
2264.63
1078.29
1571.68
1962.48
2232.22
2369.79
1341.58
1947.98
2424.13
2751.05
2917.51
1397.34
2028.74
2523.9
2863.13
3035.46
1742.88
2510.67
3104.83
3511.53
3719.97
2265.45
3226.87
3957.71
4459.37
4721.71
2934.54
4103.79
4972.57
5581.75
5919.46
3789.5
5144.38
6125.71
6859.04
7325.39
4707.42
6138.34
7154.48
8007.1
8675.91
5340.7
6781.07
7797.55
8732.18
9565.49
1752.12
2520.95
3115.29
3522.88
3732.51
2227.86
3175.61
3897.63
4394.17
4653.81
2791.88
3928.24
4779.48
5372.56
5694.14
3413.11
4722.34
5686.31
6377.56
6777.18
3989.95
5422.13
6462.22
7239.54
7727.18
4356.93
5854.73
6936.15
7770.08
8322.39
191.596
212.784
254.204
318.87
411.697
538.444
205.157
227.019
269.488
335.016
426.884
548.692
181.48
176.583
203.677
200.66
247.503
248.757
316.752
326.41
415.308
435.536
544.933
569.799
704.463
913.973
1182.59
1535.3
1941.89
2233.17
703.329
891.971
1114.96
1362.63
1596.9
1743.68
512.919
752.286
945.006
1079.87
1149.25
569.51
834.986
1048.53
1197.86
1274.66
680.002
996.153
1249.94
1427.13
1518.17
852.223
1246.75
1562.44
1782.34
1895.2
1098.76
1604.02
2006.44
2285.99
2429.33
1433.71
2085.92
2601.97
2959.48
3142.93
549.057
804.942
1010.76
1154.67
1228.66
607.392
890.067
1117.19
1275.87
1357.42
720.533
1054.78
1322.69
1509.54
1605.49
894.747
1307.63
1637.34
1866.76
1984.47
1138.17
1659.23
2073.17
2360.46
2507.83
1459.15
2119.19
2639.9
3000.53
3185.86
485.901
712.832
895.681
1023.71
1089.6
472.797
693.667
871.706
996.404
1060.58
545.215
799.579
1004.35
1147.63
1221.33
537.146
787.807
989.677
1130.96
1203.63
662.205
970.406
1218.04
1391.03
1479.93
665.569
975.405
1224.43
1398.42
1487.82
846.799
1239.37
1553.82
1772.98
1885.47
872.623
1277.21
1601.34
1827.23
1943.13
1108.88
1619.86
2027.36
2310.54
2455.68
1162.91
1698.82
2126.18
2423.04
2575.13
1452.19
2115.33
2641.03
3005.21
3191.8
1518.84
2213.14
2763.66
3144.78
3339.82
1868.22
2702.68
3356.69
3809.42
4043.14
2406.59
3447.82
4253.23
4814.14
5109.81
3074.27
4330.69
5285.42
5965.96
6345.46
3901.35
5337.88
6404.86
7213.69
7727.64
4773.97
6264.02
7344.44
8257.34
8968.58
5361.88
6823.97
7864.38
8822.36
9673.19
1862.87
2690.25
3336.96
3784.76
4016.43
2347.96
3362.1
4145.39
4690.17
4976.79
2907.89
4112.47
5029.06
5675.26
6027.36
3508.34
4878.21
5902.63
6644.84
7074.91
4051.08
5525.55
6609.08
7424.3
7935.67
4377.78
5890.77
6988.05
7836.11
8397.53
4890.44
3235.64
899.494
693.824
795.423
690.766
841.931
4489.62
4315.94
2803.55
3548.6
1724.34
2286.98
1449.77
1609.29
1357.42
4186.67
2359.83
1564.83
1391.78
1740.56
1515.21
1190.65
1143.26
1097.64
965.509
1289.69
1165.82
4474.32
2743.89
3118.28
2025.72
1691.6
2341.59
1223.21
976.325
1345.48
9957.25
10069.4
10289.7
11564.6
18940.1
7169.88
8234.74
9019.66
10136.4
11798.4
2374.36
3413.11
4220.04
4780.48
5073.67
1843.19
2672.85
3325.27
3776.39
4008.25
2113.06
3063.47
3809.16
4322.89
4585.89
1837.5
2669.34
3324.88
3777.49
4009.22
2231.58
3225.41
4001.97
4537.86
4813.78
9894.94
11008.2
11640.7
12973.3
20166.9
9721.69
11043.9
11873.4
13081.5
15224.3
6678.63
8419.89
9648.42
10774.3
11842.6
8482.55
10230.6
11178.3
12165
13036
4407.71
6067.84
7281.95
8144.24
8637.15
5657.65
7465.04
8733.82
9695.41
10323
3767.35
5297.87
6442.03
7232.69
7655.66
4154.43
5789.93
6995.3
7830.06
8282.81
3546.11
5021.4
6132.78
6894.98
7294.75
9180.76
10224.8
10874.1
12213.4
19302.6
5731.82
7412.65
8629.85
9707.56
10684.8
4028.26
5598.92
6766.92
7601.8
8082.04
3605.14
5053.78
6145.77
6924.73
7366.03
4407.25
6004.14
7185.81
8086.89
8684.19
3884.74
5375.51
6492.09
7318.83
7821.81
3098.98
4373.02
5344.14
6036.66
6422.95
2996.71
4266.4
5239.27
5918.77
6281.89
2894.85
4153.67
5122.97
5788.25
6131.88
2553.94
3680.3
4554.82
5156.52
5466.47
3371.87
4781.99
5851.57
6592.31
6986.28
3058.72
4359.46
5355.21
6046.34
6412.34
9415.31
9928.71
10308.9
11609.3
18834
6308.09
7609.23
8558.52
9651.67
11003
7349.48
8834.29
9745.38
11029.5
13495.2
4971.44
6513.79
7642.35
8621.69
9425.71
4272.15
5800.86
6935.83
7823.65
8423.39
5659.46
7281.19
8467.03
9567.59
10611.4
3186.61
4501.27
5502.68
6213.27
6606.49
2576.53
3701.72
4573.38
5176.44
5490.56
3487.11
4892.55
5955.43
6716.98
7149.49
9169
8660.03
7766.2
6499.62
4746.1
1863.45
18870.9
19212.2
21775.4
22474.3
18484.7
19590.4
20809.3
20146.2
15504.1
19169.4
16158.1
19723.5
18534.9
16703.9
25950
18137.4
18338.3
20545.6
21001.5
17487.7
18576.1
19889
19430.3
15433.5
23143.6
16000.2
23012.4
18707.2
20306.4
27835
17310.4
17382.7
18977.4
19187.5
16740.4
18230.3
18654.6
18693.9
17690.5
20459
18451.2
20462.9
20306.5
22349.2
25041.5
16523.5
16615
17549.9
17600.7
16290.9
18015.9
17398.7
17712.9
16562.5
17873.7
17295.1
17416.8
18547.8
20074.9
21620.1
15700.8
15826.2
16572.6
16539.1
15973.6
17850.5
16568.7
17067.7
15667.3
14736
16426.2
14146.9
17038.7
16897.8
17841.1
15333.4
15502
15922.5
15856.2
15578.8
17130.1
16033.8
16454.1
14947.4
12658.9
15511.9
12402.3
15843.1
14839.1
16143.7
21656.2
20816.4
22721.4
23875.1
20055
20022.4
21157.8
20191.2
19120.3
14214.4
19072.6
14286.9
16940.9
15357.8
18510.4
20424.9
19818.2
20990.6
21748
19355.4
19488.4
19952.5
19142.5
17712.3
13756.7
17693.5
13849.3
15522.2
13843.3
17129.9
18803.8
18445.6
18912
19279
18178.7
18326.8
18393.7
17905.7
16801.5
13466.6
16598.3
13205.6
14892
12661.1
16790.5
17260.4
17057
17304.9
17468.6
16882.1
16971.2
17124.7
16739.6
15820.1
13830
15713.9
13513.8
14259.7
12694.3
17039.1
16444.8
16310.6
16403.5
16479.8
16009
16093.6
16363.1
16120.2
15564
14822.5
15495.6
14670.9
14312.9
13164.1
17542.8
15860.9
15737.2
15877.9
15925
15492.4
15760.9
15815.5
15713.8
15440.8
15445.5
15432.4
15362.9
14380.2
13660.2
18199.8
11607
6586.66
19113.4
12546.9
20890.7
15441.7
32774.6
40631.6
43110.8
52746.5
27905
24212.5
17699.9
14056
8617.53
5736.09
19784.7
20204.9
17051
20015.6
26737.6
23830.3
30872.1
24945.9
8151.92
5866.54
4521.66
3373.81
9924.65
8091.35
6041.92
4902.03
18118.7
18791.3
18495.7
15584.4
14381.3
11263.3
11302.4
12840.6
18209.5
18126.5
38234.9
39528
27066.4
27886.2
15469.3
13044.4
16834.6
12001
7830.17
8043.84
6308.56
8859.54
3271.37
3955.46
8805.99
12084.3
5259.02
6140.59
9750.73
16399.6
6764.82
11082.9
2576.89
6586.14
2143.91
4912.34
17803.1
21995.6
18385.9
21912.9
21776.4
21981.5
22192.9
21708.8
15655.6
21217.9
16077.7
20951.2
18115.9
21767.1
18112
21718.3
22384.6
21435.6
22311.6
21233.2
14468.2
21309.2
13968.7
21386
17683.4
20771.7
22328.4
31174.5
18725.9
23981.7
22126.8
33854.2
16767.6
18285.1
22417.1
29973.4
16590.8
17110.2
22658.5
29747.5
5218.9
6856.7
13349.1
23418.8
6585.73
7489.08
17444.1
26888.8
8201.23
8284.9
22114.6
30025.4
24512.8
26280.5
20784.9
20117
29197.9
26450.9
25015.7
21213.2
18423.7
33365.2
24110.2
23831.7
21271.7
21194.8
38141.8
2009.24
2429.88
4300.08
9905.32
2916.51
3300.3
6079.64
11229
4346.93
3680.31
8262.49
12885.7
26177.8
25850.5
23638.6
23241.6
20299.5
18580.8
15393
13610.8
10874.2
15120.8
23841.3
23014.3
24058.2
23661.7
20944.7
19623.1
17362.5
15559.5
11592.7
15274
23838.9
26840
23771.9
27502.2
23021.4
23833
22473.2
24000.9
21700.9
22075.4
21523.8
21434.2
23584.7
27618.4
23476.4
27592.2
21815.8
24295.9
21634.9
24239
21784.4
22025.5
21778.3
22011.6
18281.9
17380.7
11792.5
13117.4
18155.9
16922.2
11613.2
13163.3
18537.3
17330.1
12050
13172.9
18612.3
17155.1
12424.8
13182.1
1647.65
1113.98
771.945
964.934
662.165
616.505
2329.56
1393.84
1055.21
1918.83
1542.69
1329.63
2701.12
2249.69
2257.44
3364.92
2754
2474.05
24687.5
22280.1
20595.9
22738.8
21069
19731.9
16329.9
15149.3
14501.1
11107.6
9627.03
8999.08
5128.69
3782.83
3204.64
22331.4
20660.2
19236.9
22947.1
20894.2
19297.7
17017.2
14608.5
13241.8
11114.6
8887.14
7977.95
5455.4
3764.94
3020.1
27112
26527.1
29530.7
26498.1
30399.9
26506.8
36701.7
27916.6
20836.6
21288.8
20544.1
19202.1
23545.7
22185.2
23118
19763.9
22916.8
22748.2
21118
22584.7
28125.4
25260.5
27910.6
28338.7
30314
31350.8
23244.8
24122.7
20816.4
20207
25311.8
25970.3
16495.5
8889.66
15415.4
9843.58
16715.4
8960.52
15358.1
9771.47
16501.1
9009.41
15326.3
10183.6
14911.6
10655.8
15095
10570.4
21219.2
18152.5
21101.4
18127
23426.3
21161.5
23663.4
20952.5
20668.6
15147.9
21557.1
14949.4
21570.4
18040.7
21842.9
17836.5
24272.4
20780.1
24288.5
20513.5
20471.4
15193.4
20414.1
15100.3
13570.9
9050.78
12004.1
7687.34
12647.8
8110.09
11537.3
7183.3
13905.3
9618.01
12197.7
7922.07
13924.6
9966.54
12167.4
7979.46
2569.33
1328.51
4702.15
2483.37
2760.8
1660.83
5030.17
3017.19
3406.16
2523.02
5579.25
3982.64
13184.7
20382.8
9511.43
9125.73
6470.63
19968
13936
8191.84
8230.94
5322.92
20757.8
16369.3
13034
10153.6
6297.29
698.297
523.32
1382.56
1010.65
1029.66
713.442
2020.15
1603.68
1804.79
1414.21
2979.52
2426.45
20285.7
19668.6
13786
13252.2
8985.9
9096.08
7569.66
6997.75
4550.1
3739.51
19021.8
17335.6
14781.7
13024.1
11536
10297.5
8783.91
7983.73
5567.1
5544.85
15136.8
12305.2
15220.7
11999.4
18156.4
15113
18105.7
14887.4
12776.6
10421.9
12402.5
10469.3
15219.3
11807
15124.4
11786.9
18030.9
15161.8
17856
15114.6
13002.6
10253.9
12980
10389.7
9968.52
8494.44
6577.66
6983.29
9610.79
8317.98
6273.47
6624.06
10390.5
8658.57
6744.95
7395.02
10638.7
8658.43
7011.9
7502.71
1791.78
1581.13
1311.83
7857.42
4193.75
3426.57
1768.25
1749.38
1556.84
8565.85
5009.41
4252.06
2429.43
2730.04
2802.65
9468.04
6277.41
5599.16
18550.4
17349.7
16476.4
12757.3
12381.1
12134.2
9354.65
9251.24
9247.45
8069.65
7813.07
7625.25
10778.4
7759.17
7020.6
15817.5
14586.4
13749.5
11848.2
11038
10571.7
9911.17
9209.97
8805.2
9583.24
8514.15
7886.4
13107.2
8757.83
7875.5
4899.08
3092.59
2206.99
1855.69
5526.08
3365.56
2330.55
1900.17
4921.4
3087.63
2211.23
1869.79
5648.43
3436.78
2377.57
1923.84
4903.89
3050.88
2213.51
1862
5761.31
3478.65
2428.17
1924.47
6208.54
3689
2484.69
2000.06
6397.79
3835.27
2565.52
2076.12
5233.04
3250.31
2301.47
1885.45
4239.61
2828.83
2101.21
1811.38
4573.12
2933.09
2142.39
1755
3889.93
2660.55
2015.03
1738.16
5675.67
3490.11
2414.24
1970.97
4448.73
2952.03
2156.43
1869.22
5925.87
3653.29
2494.71
2032.99
4540.07
3040.23
2202.75
1902.95
3663.91
2638.8
2004
1759.58
2311.86
2091.73
1755.16
1653.47
3672.34
2623.36
1999.31
1755.41
2421.47
2121.23
1765.14
1663.47
3759.76
2618.9
2007.89
1763.53
2753.81
2218.91
1804.09
1704.49
3705.12
2547.61
1967.46
1797.12
3038.57
2286.03
1853.22
1694.09
3421.75
2464.54
1917.21
1711.83
933.52
1646.28
1386.59
418.609
-629.07
1395.92
1234.34
444.113
1177.85
1727.17
1417.89
442
-324.655
1487.36
1262.58
453.897
1635.65
1869.39
1466.95
440.547
193.73
1638.77
1303.56
459.158
2194.85
2038.12
1537.92
478.678
743.87
1806.37
1362.33
479.023
2561.46
2191.76
1625.78
558.832
886.314
1932.34
1416.88
496.358
2732.92
2359.47
1665.53
530.768
557.232
2063.57
1517.86
526.761
2665.57
2285.16
1635.31
531.188
520.703
2002.53
1466.87
508.73
2752.24
2412.29
1690.36
494.378
494.397
2116.38
1552.41
530.043
2811.82
2468.39
1736.55
505.381
598.395
2175.16
1594.54
543.305
1685.43
1274.51
870.505
503.07
164.239
1666.59
1271.79
871.082
503.705
164.459
1707.59
1285.42
875.746
505.481
164.939
1693.83
1285.74
878.116
507.024
165.437
1747.63
1300.21
882.266
508.416
165.787
1726.09
1301.56
886.041
510.783
166.55
1752.14
1319.64
896.525
516.059
168.149
1793.43
1345.69
911.486
523.592
170.433
1788.47
1317.99
891.666
512.996
167.161
1909.38
1339.79
897.833
515.278
167.784
1797.12
1313.41
887.127
510.446
166.357
1906.81
1331.93
892.81
512.694
166.987
1804.92
1333.89
901.058
517.757
168.612
1944.13
1355.21
906.383
519.578
169.096
1845.74
1359.17
915.134
524.787
170.744
1987.5
1377.77
918.573
525.654
170.946
1732.32
1281.04
870.51
502.549
164.041
1821.91
1288.34
870.73
502.248
163.925
1753.3
1289.68
874.414
504.301
164.543
1838.79
1294.86
873.711
503.594
164.313
1793.3
1303.37
880.294
506.929
165.294
1873.06
1306.07
878.783
505.9
164.972
1858.5
1319.11
886.247
509.508
166.025
1914.2
1318.11
884.568
508.572
165.73
1920.35
1327.21
889.627
511.047
166.472
9818.39
15123.1
10343.8
15465.8
11035.1
15827.9
11498.9
16045.7
11023
15408.6
10208.3
11501
10220.4
12056.4
10265.8
11401.8
10444.4
11540.3
8732.48
1486.82
317.1
71.0755
12.5813
9708.69
2761.39
669.942
151.909
26.8778
8825.66
1484.82
314.818
70.3048
12.4106
9801.97
2753.68
665.746
150.253
26.3587
8902.72
1476.47
310.423
69.0289
12.1603
9861.64
2740.95
659.158
148.226
25.9652
8814.81
1430.51
298.08
66.1203
11.6408
9738.81
2681.76
642.611
144.269
25.2467