/*--------------------------------*- C++ -*----------------------------------*\
| =========                 |                                                 |
| \\      /  F ield         | OpenFOAM: The Open Source CFD Toolbox           |
|  \\    /   O peration     | Version:  2306                                  |
|   \\  /    A nd           | Website:  www.openfoam.com                      |
|    \\/     M anipulation  |                                                 |
\*---------------------------------------------------------------------------*/
FoamFile
{
    version     2.0;
    format      ascii;
    arch        "LSB;label=32;scalar=64";
    class       volVectorField;
    location    "1.6";
    object      flux;
}
// * * * * * * * * * * * * * * * * * * * * * * * * * * * * * * * * * * * * * //

dimensions      [0 1 -1 1 0 0 0];

internalField   nonuniform List<vector> 
5322
(
(-2.09583e-06 5.32953e-06 -7.08092e-06)
(1.27813e-07 6.61636e-07 -6.35342e-06)
(1.3276e-07 1.92716e-07 -5.16317e-06)
(-1.90008e-09 1.02092e-07 -5.57825e-06)
(-9.18524e-09 1.66049e-07 -4.03564e-06)
(-7.51829e-09 1.69767e-07 -2.77785e-06)
(-4.95852e-09 1.37387e-07 -1.8161e-06)
(-3.17107e-09 1.00094e-07 -1.12908e-06)
(-2.09139e-09 6.90704e-08 -6.72427e-07)
(-1.17595e-09 4.35133e-08 -3.9565e-07)
(-4.60575e-10 1.44984e-08 -2.49189e-07)
(2.46721e-09 -4.09749e-08 -2.02608e-07)
(3.32066e-09 -3.88319e-08 -1.38637e-07)
(-4.45699e-08 -3.6042e-08 -1.99269e-07)
(-2.22748e-10 -3.33201e-08 -2.23834e-07)
(8.7795e-08 7.81357e-08 -1.9621e-07)
(-6.79633e-08 1.02107e-07 -2.28467e-07)
(1.92829e-09 -1.50113e-09 -1.87252e-07)
(-5.83413e-08 8.47755e-08 -2.95025e-07)
(6.22826e-08 -1.35463e-07 -3.71066e-07)
(-8.2265e-08 1.594e-07 -5.03114e-07)
(1.2302e-07 -2.26961e-07 -6.45261e-07)
(-1.29474e-07 2.76075e-07 -8.72541e-07)
(2.18169e-07 -3.89179e-07 -1.11541e-06)
(-2.27578e-07 4.76063e-07 -1.47141e-06)
(3.47367e-07 -6.23917e-07 -1.8198e-06)
(-3.50318e-07 7.45833e-07 -2.33557e-06)
(5.49595e-07 -9.85226e-07 -2.84791e-06)
(-5.54823e-07 1.15569e-06 -3.54858e-06)
(7.94892e-07 -1.42998e-06 -4.18378e-06)
(-7.55605e-07 1.65146e-06 -5.06575e-06)
(1.17654e-06 -2.00425e-06 -5.87107e-06)
(-8.66121e-07 2.32973e-06 -6.86006e-06)
(1.75029e-06 -2.34204e-06 -7.59002e-06)
(1.74138e-07 2.43154e-06 -8.16858e-06)
(2.65862e-06 -1.41405e-06 -7.27918e-06)
(1.88708e-06 2.85334e-06 -8.66102e-06)
(-7.47443e-07 3.45853e-06 -8.50016e-06)
(2.06428e-06 1.75293e-06 -8.75643e-06)
(-1.23739e-07 1.9809e-06 -6.4639e-06)
(-1.95996e-06 2.55629e-06 -8.11025e-06)
(1.96393e-06 2.14958e-06 -8.37248e-06)
(-1.18846e-07 2.3152e-06 -6.33545e-06)
(-2.08773e-06 2.38981e-06 -8.37426e-06)
(2.07813e-06 2.2796e-06 -8.28956e-06)
(-7.06007e-08 2.36051e-06 -6.44935e-06)
(-2.21833e-06 2.31613e-06 -8.49799e-06)
(1.95787e-06 2.47598e-06 -8.03601e-06)
(-4.51239e-08 2.40342e-06 -6.38638e-06)
(-2.32964e-06 2.20166e-06 -8.37733e-06)
(-2.3163e-06 2.7825e-06 -9.61033e-06)
(-3.31975e-06 1.22463e-06 -6.4409e-06)
(-1.11061e-06 1.44791e-06 -9.05002e-06)
(2.07711e-06 -4.41172e-06 -7.91243e-06)
(-1.3747e-07 -2.09048e-07 -6.97903e-06)
(-3.38484e-06 -2.52944e-06 -7.48115e-06)
(-1.0533e-07 1.40659e-06 -9.35582e-06)
(3.21405e-06 -3.29012e-06 -7.33169e-06)
(-3.86259e-08 -1.50205e-07 -6.97901e-06)
(-3.21311e-06 -2.85812e-06 -7.4564e-06)
(-1.37623e-08 1.42726e-06 -9.45004e-06)
(3.13021e-06 -3.23243e-06 -7.42981e-06)
(-1.59874e-08 -1.33367e-07 -6.97636e-06)
(-3.15584e-06 -2.83738e-06 -7.27463e-06)
(4.0649e-09 1.43388e-06 -9.45213e-06)
(3.08963e-06 -3.35454e-06 -7.69963e-06)
(4.72582e-08 -1.85991e-07 -6.95534e-06)
(-3.12587e-06 -2.75493e-06 -6.92247e-06)
(1.70229e-07 1.45624e-06 -9.28329e-06)
(2.58196e-06 -3.75351e-06 -8.23138e-06)
(1.58344e-07 1.08586e-07 -5.79972e-06)
(-2.41567e-06 2.85048e-06 -8.46721e-06)
(2.74494e-06 1.58018e-06 -8.05683e-06)
(-2.82639e-06 2.21773e-06 -7.93562e-06)
(2.71951e-06 1.64739e-06 -8.00902e-06)
(-2.77076e-06 2.09545e-06 -7.97064e-06)
(2.77274e-06 1.74214e-06 -7.96497e-06)
(-2.7754e-06 2.08999e-06 -7.94644e-06)
(3.16277e-06 1.77936e-06 -8.07959e-06)
(-2.32626e-06 2.503e-06 -7.72732e-06)
(1.08528e-06 1.75793e-07 -7.55053e-06)
(-1.72778e-06 1.00354e-06 -6.17502e-06)
(-1.17535e-06 1.45934e-06 -6.40559e-06)
(1.79861e-06 2.30024e-06 -8.13425e-06)
(1.43538e-07 -1.41064e-07 -5.18713e-06)
(-7.53279e-07 -8.04833e-07 -7.17553e-06)
(1.33167e-06 3.1124e-07 -1.06484e-05)
(-3.6981e-06 5.8694e-07 -7.01443e-06)
(-1.13117e-06 1.28763e-06 -6.99897e-06)
(4.00746e-06 1.92416e-07 -6.02311e-06)
(-1.83386e-07 3.47038e-07 -7.40357e-06)
(3.44847e-08 6.0779e-08 -5.02417e-06)
(5.89489e-08 8.10281e-09 -5.29023e-06)
(4.20179e-07 7.51769e-09 -5.28536e-06)
(2.27561e-06 2.73125e-06 -6.91304e-06)
(-4.34973e-07 -1.59909e-06 -6.78839e-06)
(5.19269e-08 5.26807e-08 -6.35969e-06)
(-1.41589e-07 1.61664e-06 -6.87654e-06)
(1.36975e-06 5.08546e-08 -1.08235e-05)
(-3.26366e-06 -9.3784e-08 -6.80462e-06)
(-3.2553e-06 3.09644e-07 -6.8913e-06)
(6.58895e-06 5.39837e-08 -6.10499e-06)
(-1.4456e-07 1.73211e-06 -6.93207e-06)
(1.76193e-06 -2.65535e-06 -6.84063e-06)
(2.87837e-06 2.38373e-06 -7.47483e-06)
(8.39743e-08 6.13534e-08 -6.19047e-06)
(3.42139e-08 -5.53278e-08 -6.49371e-06)
(2.39211e-08 -6.48679e-09 -5.63615e-06)
(1.11922e-08 1.75923e-09 -4.08554e-06)
(3.28896e-09 5.23562e-09 -2.81902e-06)
(2.81338e-11 4.68191e-09 -1.84266e-06)
(-9.76839e-10 3.4084e-09 -1.14228e-06)
(-1.18243e-09 2.38582e-09 -6.75357e-07)
(-1.06975e-09 1.57954e-09 -3.9293e-07)
(2.64102e-10 3.57584e-11 -2.79213e-07)
(-4.92841e-10 5.62069e-10 -2.29772e-07)
(-2.79818e-08 2.87379e-08 -1.67644e-07)
(-2.65362e-08 -1.03355e-08 -1.77412e-07)
(3.8411e-09 -4.83462e-09 -2.63797e-07)
(1.6111e-08 -2.04309e-08 -1.92897e-07)
(3.88131e-10 2.59175e-08 -1.64725e-07)
(2.32203e-08 -1.20195e-08 -1.9179e-07)
(-2.80033e-08 -2.48072e-08 -1.89062e-07)
(-2.26119e-09 -3.50273e-08 -2.61289e-07)
(-7.55415e-09 -3.90503e-08 -1.97177e-07)
(4.36697e-08 -1.45689e-09 -2.56305e-07)
(3.52147e-08 2.95308e-08 -1.87339e-07)
(8.92866e-09 -2.17537e-08 -1.95672e-07)
(2.78237e-08 2.19894e-09 -2.52498e-07)
(1.71555e-08 2.41318e-08 -1.8736e-07)
(1.27037e-08 -2.38922e-08 -1.92228e-07)
(2.99264e-08 1.05584e-09 -2.55162e-07)
(1.41306e-08 2.50153e-08 -1.90385e-07)
(1.52584e-08 -2.56996e-08 -1.88822e-07)
(3.0431e-08 -8.89609e-10 -2.56146e-07)
(1.21337e-08 2.32108e-08 -1.92586e-07)
(2.47435e-08 -2.80232e-08 -1.8953e-07)
(3.46388e-08 -2.36163e-09 -2.62625e-07)
(3.87819e-08 -7.54467e-09 -1.98007e-07)
(1.57597e-09 4.32195e-08 -2.5726e-07)
(-2.92559e-08 3.51123e-08 -1.88365e-07)
(1.04597e-09 -2.52269e-08 -1.65588e-07)
(2.04929e-08 1.62873e-08 -1.9338e-07)
(-2.57451e-08 1.26041e-08 -1.75251e-07)
(-2.8566e-08 -2.8023e-08 -1.68153e-07)
(5.00838e-09 4.03298e-09 -2.64316e-07)
(1.04771e-08 -2.6478e-08 -1.77779e-07)
(5.14084e-09 2.04894e-08 -1.76999e-07)
(-2.22734e-08 2.16957e-08 -1.66487e-07)
(-2.4646e-08 -2.4123e-08 -1.67951e-07)
(5.74997e-09 -3.3407e-10 -2.66412e-07)
(5.95766e-09 -2.16902e-08 -1.77317e-07)
(7.58652e-09 2.20051e-08 -1.76703e-07)
(-2.44162e-08 2.46228e-08 -1.67024e-07)
(-2.27662e-08 -2.14524e-08 -1.67638e-07)
(5.82709e-09 -1.19614e-11 -2.6609e-07)
(3.37082e-09 -1.98561e-08 -1.77161e-07)
(1.28419e-08 2.61418e-08 -1.74923e-07)
(-2.52379e-08 -9.0848e-10 -1.65148e-07)
(3.33618e-08 -2.65328e-10 -2.24213e-07)
(-7.78451e-08 8.79449e-08 -1.96252e-07)
(-1.01972e-07 -6.79056e-08 -2.29199e-07)
(1.11688e-07 9.24236e-08 -3.2778e-07)
(-1.58024e-07 -1.25368e-07 -4.02738e-07)
(-8.75526e-09 6.23194e-09 -2.23026e-07)
(-8.52398e-08 -5.78617e-08 -2.95951e-07)
(2.03511e-09 1.86616e-09 -1.87701e-07)
(7.37576e-08 5.58e-09 -2.32578e-07)
(-1.67718e-08 -6.91551e-09 -1.45295e-07)
(7.38252e-08 2.24433e-08 -1.92699e-07)
(3.62056e-08 -4.46042e-08 -1.99868e-07)
(5.45295e-08 4.47274e-08 -1.866e-07)
(-9.35586e-08 -8.39394e-08 -2.16483e-07)
(3.38525e-08 3.74791e-10 -2.31144e-07)
(-8.09222e-08 8.61998e-08 -2.07485e-07)
(6.65558e-08 -1.04424e-07 -3.12007e-07)
(8.64391e-08 1.088e-07 -3.09182e-07)
(-1.31863e-07 -1.41097e-07 -3.78649e-07)
(1.15254e-08 8.58199e-10 -2.77713e-07)
(-1.12145e-07 1.39647e-07 -3.78633e-07)
(1.30646e-07 -1.86937e-07 -5.09067e-07)
(1.62552e-07 1.94164e-07 -5.09229e-07)
(-2.2538e-07 -2.53385e-07 -6.59807e-07)
(1.32113e-08 1.38069e-09 -4.79693e-07)
(-1.89082e-07 2.48958e-07 -6.61278e-07)
(2.37234e-07 -3.2874e-07 -8.76698e-07)
(2.90245e-07 3.4049e-07 -8.77031e-07)
(-3.85347e-07 -4.38553e-07 -1.13011e-06)
(2.24e-08 2.04278e-09 -8.30073e-07)
(-3.21991e-07 4.30738e-07 -1.13214e-06)
(4.05164e-07 -5.54879e-07 -1.46855e-06)
(4.92975e-07 5.74116e-07 -1.46922e-06)
(-6.35934e-07 -7.22244e-07 -1.85126e-06)
(3.52205e-08 3.24631e-09 -1.37902e-06)
(-5.31588e-07 7.0953e-07 -1.85506e-06)
(6.48594e-07 -8.92055e-07 -2.34566e-06)
(7.91692e-07 9.22598e-07 -2.34808e-06)
(-1.00641e-06 -1.12798e-06 -2.8793e-06)
(5.21013e-08 5.332e-09 -2.17751e-06)
(-8.4289e-07 1.10722e-06 -2.88688e-06)
(9.73403e-07 -1.36357e-06 -3.55984e-06)
(1.20005e-06 1.40949e-06 -3.56663e-06)
(-1.52203e-06 -1.66544e-06 -4.24735e-06)
(7.48548e-08 8.02605e-09 -3.26108e-06)
(-1.27247e-06 1.62945e-06 -4.26072e-06)
(1.36725e-06 -1.97193e-06 -5.11883e-06)
(1.71425e-06 2.03505e-06 -5.13413e-06)
(-2.16731e-06 -2.28724e-06 -5.94105e-06)
(1.07687e-07 1.16632e-08 -4.61168e-06)
(-1.78777e-06 2.22353e-06 -5.96465e-06)
(1.75888e-06 -2.66349e-06 -6.86625e-06)
(2.19011e-06 2.68536e-06 -6.88224e-06)
(-3.8303e-07 -1.60448e-06 -6.86512e-06)
(1.31079e-06 -1.17732e-08 -1.08228e-05)
(-3.23043e-06 -1.8686e-07 -6.80203e-06)
(-3.29483e-06 9.39408e-08 -6.78153e-06)
(6.617e-06 -5.60435e-08 -6.1238e-06)
(-2.89967e-07 -2.67554e-09 -8.34224e-06)
(-3.09001e-07 1.45045e-08 -8.32355e-06)
(6.93499e-08 2.37697e-08 -5.29067e-06)
(4.56856e-07 1.999e-09 -5.2928e-06)
(2.26628e-06 2.73418e-06 -6.90057e-06)
(-3.17355e-07 -1.59778e-06 -6.84491e-06)
(7.4982e-08 7.17489e-09 -6.30591e-06)
(-3.83741e-07 1.92194e-06 -6.96311e-06)
(1.25814e-06 -3.00063e-07 -1.08165e-05)
(-3.28445e-06 -1.34344e-07 -6.84732e-06)
(-3.24025e-06 1.16933e-07 -6.77335e-06)
(6.57648e-06 -1.10496e-07 -6.13931e-06)
(-1.92994e-07 1.60609e-06 -6.83629e-06)
(1.76079e-06 -2.69325e-06 -6.87301e-06)
(4.90755e-08 1.69197e-08 -6.35476e-06)
(5.43109e-08 1.17928e-08 -6.34475e-06)
(2.8367e-08 3.3571e-08 -5.62569e-06)
(1.46948e-08 1.757e-08 -4.08773e-06)
(5.30588e-09 6.80158e-09 -2.82357e-06)
(9.53264e-10 1.71516e-09 -1.84593e-06)
(-6.08018e-10 -2.2699e-10 -1.14416e-06)
(-1.0602e-09 -8.88959e-10 -6.76325e-07)
(-9.90967e-10 -9.4861e-10 -3.93401e-07)
(2.49949e-10 2.89379e-10 -2.79533e-07)
(-4.842e-10 -4.68407e-10 -2.30132e-07)
(2.16658e-08 -2.2838e-08 -1.67578e-07)
(-2.43303e-08 -2.45629e-08 -1.67546e-07)
(2.44529e-08 -2.46514e-08 -1.67436e-07)
(-2.15511e-08 -2.28048e-08 -1.67363e-07)
(1.63741e-10 5.99353e-09 -2.66077e-07)
(2.147e-08 6.92989e-09 -1.76661e-07)
(-1.9776e-08 3.72967e-09 -1.77165e-07)
(5.2185e-11 -2.94689e-08 -1.70226e-07)
(-2.32107e-08 1.32646e-08 -1.92371e-07)
(5.90488e-11 -2.91758e-08 -2.88012e-07)
(-2.12748e-08 6.87505e-09 -1.76679e-07)
(6.7653e-11 6.00709e-09 -2.66252e-07)
(1.99396e-08 3.81208e-09 -1.77376e-07)
(8.02086e-10 -2.88188e-08 -2.86114e-07)
(2.15635e-08 8.95414e-09 -1.95656e-07)
(-1.85523e-09 2.7117e-08 -2.52331e-07)
(-2.35532e-08 1.6693e-08 -1.87585e-07)
(8.99199e-12 -2.9479e-08 -1.70381e-07)
(2.32514e-08 1.33187e-08 -1.92458e-07)
(8.70503e-12 2.94664e-08 -2.52431e-07)
(4.06652e-11 4.13173e-08 -1.37295e-07)
(4.36008e-08 4.52512e-08 -1.92731e-07)
(-8.38439e-08 -8.52333e-08 -2.07626e-07)
(8.39892e-08 -8.51477e-08 -2.07406e-07)
(-8.25915e-08 -9.12848e-08 -2.16643e-07)
(1.07412e-07 8.21486e-08 -3.09285e-07)
(-1.39309e-07 -1.26649e-07 -3.78869e-07)
(1.91691e-07 1.54302e-07 -5.09558e-07)
(-2.49997e-07 -2.14981e-07 -6.60061e-07)
(3.35973e-07 2.75392e-07 -8.77746e-07)
(-4.32582e-07 -3.6663e-07 -1.13031e-06)
(5.66398e-07 4.67903e-07 -1.4705e-06)
(-7.12407e-07 -6.04403e-07 -1.85152e-06)
(9.10249e-07 7.51682e-07 -2.35033e-06)
(-1.11242e-06 -9.564e-07 -2.87946e-06)
(1.39102e-06 1.14035e-06 -3.5709e-06)
(-1.64229e-06 -1.44875e-06 -4.24625e-06)
(2.01033e-06 1.63442e-06 -5.14266e-06)
(-2.25699e-06 -2.07337e-06 -5.9347e-06)
(2.7024e-06 2.1887e-06 -6.93113e-06)
(-1.58736e-06 -3.83767e-07 -6.78349e-06)
(4.06967e-08 1.39287e-06 -1.08289e-05)
(1.60957e-06 -2.19362e-07 -6.90734e-06)
(4.71185e-08 5.85091e-08 -6.35888e-06)
(-2.63084e-06 1.89536e-06 -6.85147e-06)
(2.20021e-06 -1.90783e-06 -5.98164e-06)
(1.33237e-08 1.13204e-07 -4.61541e-06)
(-1.94837e-06 1.48165e-06 -5.11909e-06)
(1.60982e-06 -1.36935e-06 -4.26816e-06)
(7.97371e-09 7.74021e-08 -3.26377e-06)
(-1.3475e-06 1.05617e-06 -3.56302e-06)
(1.09311e-06 -9.10171e-07 -2.88974e-06)
(4.77675e-09 5.32909e-08 -2.1791e-06)
(-8.8164e-07 7.03031e-07 -2.34828e-06)
(7.00246e-07 -5.74612e-07 -1.85613e-06)
(2.75935e-09 3.57582e-08 -1.37987e-06)
(-5.48435e-07 4.38766e-07 -1.47026e-06)
(4.25063e-07 -3.47825e-07 -1.1325e-06)
(1.6357e-09 2.26265e-08 -8.30522e-07)
(-3.24959e-07 2.57074e-07 -8.77923e-07)
(2.45721e-07 -2.03598e-07 -6.61237e-07)
(1.06927e-09 1.33171e-08 -4.79918e-07)
(-1.84842e-07 1.41739e-07 -5.10019e-07)
(1.37764e-07 -1.1985e-07 -3.78399e-07)
(6.96776e-10 1.15423e-08 -2.77764e-07)
(-1.03088e-07 7.21213e-08 -3.12532e-07)
(1.90947e-10 -7.19309e-09 -2.29903e-07)
(1.03476e-07 7.21447e-08 -3.12419e-07)
(-1.37194e-07 -1.19782e-07 -3.78617e-07)
(-4.23643e-10 1.15539e-08 -2.77876e-07)
(-1.06911e-07 8.24836e-08 -3.09557e-07)
(8.27736e-08 -9.09241e-08 -2.16802e-07)
(-2.01337e-10 3.39242e-08 -2.31426e-07)
(-4.38847e-08 5.27415e-08 -1.86531e-07)
(-2.86626e-09 3.77348e-08 -1.38763e-07)
(4.44524e-08 3.6585e-08 -2.00805e-07)
(-8.69013e-08 -7.98474e-08 -1.96869e-07)
(1.02877e-07 6.53615e-08 -3.12732e-07)
(-1.37311e-07 -1.13747e-07 -3.78172e-07)
(1.82311e-07 1.35822e-07 -5.08953e-07)
(-2.41829e-07 -1.92662e-07 -6.62008e-07)
(3.21321e-07 2.49169e-07 -8.78946e-07)
(-4.16044e-07 -3.30002e-07 -1.13319e-06)
(5.43846e-07 4.26656e-07 -1.47583e-06)
(-6.83397e-07 -5.47064e-07 -1.8565e-06)
(8.78002e-07 6.85687e-07 -2.36205e-06)
(-1.06476e-06 -8.7265e-07 -2.8881e-06)
(1.35181e-06 1.03949e-06 -3.59813e-06)
(-1.56381e-06 -1.32569e-06 -4.24796e-06)
(1.97254e-06 1.48498e-06 -5.2044e-06)
(-2.11876e-06 -1.84101e-06 -5.88929e-06)
(2.66085e-06 1.92769e-06 -6.97549e-06)
(-1.56894e-06 -2.07588e-07 -6.83049e-06)
(-3.92106e-07 1.04531e-06 -1.07136e-05)
(6.56929e-07 -7.94843e-07 -7.26818e-06)
(7.22924e-08 9.94892e-08 -6.17162e-06)
(-2.47851e-06 2.66839e-06 -7.49815e-06)
(1.93317e-06 -2.68595e-06 -6.48234e-06)
(1.45249e-08 1.42049e-07 -4.49037e-06)
(-1.78126e-06 2.15122e-06 -5.57127e-06)
(1.45466e-06 -1.86472e-06 -4.58967e-06)
(-7.39776e-09 8.90555e-08 -3.1709e-06)
(-1.19293e-06 1.51192e-06 -3.8539e-06)
(9.78661e-07 -1.20924e-06 -3.0883e-06)
(-1.01495e-08 5.67212e-08 -2.11173e-06)
(-7.74174e-07 9.93067e-07 -2.52978e-06)
(6.21825e-07 -7.5755e-07 -1.97738e-06)
(-8.1163e-09 3.69328e-08 -1.3354e-06)
(-4.81781e-07 6.20363e-07 -1.58153e-06)
(3.77399e-07 -4.56925e-07 -1.20445e-06)
(-6.62311e-09 2.30268e-08 -8.03055e-07)
(-2.85569e-07 3.68665e-07 -9.41769e-07)
(2.20096e-07 -2.65547e-07 -7.0155e-07)
(-5.4338e-09 1.37773e-08 -4.63638e-07)
(-1.62277e-07 2.09034e-07 -5.4438e-07)
(1.25516e-07 -1.55038e-07 -4.02924e-07)
(-4.93524e-09 1.21419e-08 -2.67663e-07)
(-9.043e-08 1.10693e-07 -3.27827e-07)
(6.75761e-08 -1.00693e-07 -2.29498e-07)
(4.53192e-10 3.34983e-08 -2.24689e-07)
(-2.20368e-08 7.38092e-08 -1.93138e-07)
(3.62634e-08 6.4164e-08 -1.97079e-07)
(6.02883e-08 -3.19923e-08 -1.78291e-07)
(-3.56099e-09 7.4012e-08 -2.33082e-07)
(5.97368e-09 -1.67008e-08 -1.45168e-07)
(-1.1254e-08 9.18235e-09 -1.66105e-07)
(3.48534e-08 8.25831e-08 -2.05372e-07)
(-1.08152e-07 -7.27385e-08 -1.92373e-07)
(1.00904e-07 8.23173e-08 -3.17556e-07)
(-1.59408e-07 -1.00071e-07 -3.91011e-07)
(-1.0739e-07 1.60558e-07 -3.7856e-07)
(-1.34242e-07 -1.42448e-07 -3.78338e-07)
(1.2055e-08 -1.49499e-09 -2.75853e-07)
(7.0284e-08 -1.24964e-07 -3.08428e-07)
(7.84781e-08 1.0695e-07 -3.14177e-07)
(-9.16937e-08 -8.93117e-08 -2.00175e-07)
(3.24092e-08 1.96289e-09 -2.31054e-07)
(-8.08664e-08 9.25494e-08 -2.20486e-07)
(-8.23169e-09 3.58762e-09 -2.29797e-07)
(2.19856e-09 7.61672e-11 -2.24053e-07)
(-2.95286e-08 -2.37688e-08 -2.75103e-07)
(2.28735e-09 2.13212e-09 -2.08574e-07)
(-1.29137e-09 -1.87201e-09 -1.98447e-07)
(-3.01055e-08 1.25239e-09 -2.85419e-07)
(-9.5931e-10 -7.72907e-10 -2.44206e-07)
(-7.9548e-09 -3.99307e-10 -2.3011e-07)
(-8.34433e-08 8.57577e-08 -2.14687e-07)
(-9.05721e-08 -8.59299e-08 -2.08889e-07)
(8.06596e-08 1.0595e-07 -3.12634e-07)
(-1.30534e-07 -1.39638e-07 -3.78584e-07)
(-6.97419e-09 2.89276e-10 -3.6475e-07)
(1.57309e-07 1.89659e-07 -5.10357e-07)
(-2.23914e-07 -2.49154e-07 -6.61343e-07)
(2.85154e-07 3.33781e-07 -8.78321e-07)
(-3.83428e-07 -4.30824e-07 -1.13247e-06)
(-2.4968e-08 1.55898e-09 -1.06168e-06)
(4.87471e-07 5.64137e-07 -1.47151e-06)
(-6.33618e-07 -7.08927e-07 -1.85487e-06)
(7.8418e-07 9.08433e-07 -2.35217e-06)
(-1.00358e-06 -1.1051e-06 -2.88421e-06)
(-1.16419e-08 3.77526e-09 -2.63754e-06)
(1.18711e-06 1.3898e-06 -3.5729e-06)
(-1.51175e-06 -1.62558e-06 -4.25145e-06)
(1.68475e-06 2.00464e-06 -5.13847e-06)
(-2.1216e-06 -2.22321e-06 -5.94661e-06)
(4.39821e-07 -4.00395e-09 -5.29354e-06)
(6.84508e-08 3.97243e-09 -5.29103e-06)
(1.15527e-08 6.36613e-09 -3.8459e-06)
(1.60303e-08 1.8181e-08 -3.85099e-06)
(-1.78772e-08 8.91854e-09 -2.65633e-06)
(-8.66903e-09 9.49536e-09 -2.64645e-06)
(1.23205e-06 1.40515e-06 -3.59328e-06)
(-1.55216e-06 -1.6255e-06 -4.2573e-06)
(8.53294e-08 7.22201e-09 -3.2667e-06)
(-1.25904e-06 1.93307e-06 -4.30427e-06)
(1.2727e-06 -2.29086e-06 -5.11556e-06)
(1.76064e-06 2.04594e-06 -5.18105e-06)
(-2.12984e-06 -2.20259e-06 -5.91945e-06)
(1.35749e-07 2.02569e-08 -4.61398e-06)
(-1.87327e-06 2.69083e-06 -6.05897e-06)
(1.55925e-06 -2.98774e-06 -6.79927e-06)
(3.13395e-06 1.92226e-06 -7.68947e-06)
(-2.45867e-07 -1.47313e-06 -6.67721e-06)
(1.69787e-07 -2.78328e-06 -1.09079e-05)
(-3.54336e-06 -2.17672e-07 -7.02005e-06)
(-3.29562e-06 4.98601e-09 -6.65034e-06)
(6.29722e-06 -9.97789e-07 -6.35006e-06)
(-4.31255e-07 -2.70229e-07 -8.15767e-06)
(5.8938e-08 3.73839e-08 -5.02822e-06)
(1.07977e-07 1.41031e-06 -4.58227e-06)
(-1.45744e-06 1.71503e-06 -6.26696e-06)
(2.79829e-07 1.08496e-07 -3.82558e-06)
(8.10345e-07 -2.22773e-06 -5.15327e-06)
(-8.42932e-07 1.45742e-06 -4.35206e-06)
(5.31899e-08 -6.07863e-09 -2.64826e-06)
(6.00324e-07 -1.2758e-06 -3.58779e-06)
(-5.33196e-07 9.87262e-07 -2.88857e-06)
(6.12413e-10 -1.96106e-08 -1.75191e-06)
(3.77942e-07 -7.7972e-07 -2.36721e-06)
(-3.48856e-07 6.3644e-07 -1.84531e-06)
(-5.54112e-09 -1.31698e-08 -1.10683e-06)
(2.18734e-07 -4.65735e-07 -1.47385e-06)
(-2.099e-07 3.86048e-07 -1.1131e-06)
(-8.40583e-09 -1.14193e-08 -6.64348e-07)
(1.34436e-07 -2.74907e-07 -8.77783e-07)
(-1.19748e-07 2.32558e-07 -6.44954e-07)
(-9.16467e-09 -8.90298e-09 -3.83126e-07)
(8.11245e-08 -1.49488e-07 -5.01481e-07)
(-5.75273e-08 1.3702e-07 -3.68155e-07)
(-8.46884e-09 -1.01913e-08 -2.2222e-07)
(6.05478e-08 -8.0419e-08 -2.96021e-07)
(2.0349e-08 1.80499e-08 -2.01841e-07)
(1.40381e-08 3.1072e-08 -1.93581e-07)
(-1.98268e-09 -5.29924e-08 -2.71794e-07)
(-9.71105e-10 -4.33072e-09 -2.63249e-07)
(3.49935e-08 9.76846e-08 -3.31205e-07)
(-1.4587e-08 -1.21036e-07 -4.59417e-07)
(1.94905e-07 1.35761e-07 -5.15549e-07)
(-2.72025e-07 -1.76607e-07 -6.80799e-07)
(3.54054e-07 2.35574e-07 -8.96555e-07)
(-4.66843e-07 -3.04803e-07 -1.16503e-06)
(-3.01418e-07 4.93478e-07 -1.13039e-06)
(-3.93907e-07 -4.33919e-07 -1.13512e-06)
(2.2861e-08 -2.38915e-09 -8.28581e-07)
(2.32949e-07 -3.83268e-07 -8.80299e-07)
(2.92927e-07 3.33632e-07 -8.79565e-07)
(-2.29697e-07 -2.51807e-07 -6.62886e-07)
(1.3534e-08 -2.21888e-09 -4.78381e-07)
(-1.76377e-07 2.85089e-07 -6.5848e-07)
(-1.11161e-08 1.4741e-09 -6.26321e-07)
(-5.54635e-09 -6.17678e-09 -6.01722e-07)
(-2.01624e-09 -3.31823e-09 -3.48232e-07)
(-4.69967e-09 -8.01567e-09 -3.03158e-07)
(-8.12346e-09 -2.48033e-08 -3.65745e-07)
(7.7589e-09 -1.17445e-09 -3.40305e-07)
(4.39471e-09 4.79189e-09 -3.24706e-07)
(-4.21832e-09 2.51922e-10 -3.85907e-07)
(-4.01352e-08 6.84505e-09 -3.9327e-07)
(-1.28444e-08 6.83297e-09 -2.48537e-07)
(3.71517e-08 3.16384e-09 -2.03073e-07)
(5.16022e-08 -4.40191e-09 -1.43777e-07)
(4.42884e-08 6.97456e-08 -2.42706e-07)
(1.58402e-08 2.21458e-08 -1.37465e-07)
(7.71209e-08 3.73179e-09 -2.02374e-07)
(2.69484e-08 1.78746e-08 -2.4095e-07)
(2.93689e-08 -2.35794e-09 -2.97545e-07)
(2.87276e-08 -1.16001e-08 -5.02659e-07)
(-2.85443e-08 -8.35896e-09 -6.69602e-07)
(-6.7945e-08 8.88681e-09 -6.7032e-07)
(-1.07109e-07 1.40918e-08 -1.13147e-06)
(-5.43917e-08 -1.42734e-08 -1.14207e-06)
(3.6825e-08 -2.24768e-08 -8.65562e-07)
(-3.67526e-08 -2.20105e-07 -8.02303e-07)
(6.11149e-09 -1.26113e-08 -7.98123e-07)
(7.55512e-08 2.70055e-07 -1.02044e-06)
(-6.72153e-08 -3.75766e-07 -1.34287e-06)
(6.04783e-07 3.96422e-07 -1.51367e-06)
(-7.71807e-07 -5.01445e-07 -1.90827e-06)
(9.77197e-07 6.42061e-07 -2.42906e-06)
(-1.23156e-06 -7.83881e-07 -2.97112e-06)
(-8.05112e-07 1.28691e-06 -2.89874e-06)
(-1.03385e-06 -1.10925e-06 -2.89225e-06)
(5.54374e-08 2.443e-10 -2.17853e-06)
(6.23751e-07 -1.03464e-06 -2.35833e-06)
(8.1017e-07 9.12698e-07 -2.36088e-06)
(-6.51955e-07 -7.12812e-07 -1.85956e-06)
(3.64527e-08 -1.9479e-09 -1.37805e-06)
(-5.00989e-07 8.16202e-07 -1.85691e-06)
(-2.06025e-08 6.36987e-09 -1.72375e-06)
(-7.72194e-09 -9.72172e-09 -1.64587e-06)
(-8.04673e-09 -8.60176e-09 -1.01853e-06)
(-1.07663e-08 5.1027e-09 -8.95685e-07)
(-2.64576e-08 -8.10235e-08 -1.06289e-06)
(-8.82772e-10 -3.98652e-08 -1.03377e-06)
(-7.3849e-09 -2.82024e-08 -9.86027e-07)
(-1.68199e-08 -4.92448e-08 -6.27467e-07)
(2.79912e-10 -2.00952e-08 -5.91894e-07)
(-2.40741e-09 -1.45068e-08 -5.65665e-07)
(5.01406e-08 1.59717e-07 -5.89432e-07)
(3.33229e-09 -7.26498e-09 -4.59108e-07)
(-7.6478e-09 -3.88117e-09 -5.26562e-07)
(-8.23859e-10 2.32031e-08 -5.15246e-07)
(1.66454e-09 -4.10511e-08 -3.97567e-07)
(6.56213e-10 -1.35364e-08 -2.50772e-07)
(-2.22199e-09 4.14985e-08 -2.03516e-07)
(4.59587e-09 7.69051e-08 -2.01119e-07)
(-5.33164e-08 1.38536e-07 -1.86855e-07)
(-4.06494e-09 6.26334e-09 -2.27919e-07)
(-2.09941e-09 -9.12353e-10 -1.87166e-07)
(-6.25905e-10 1.1355e-08 -3.0328e-07)
(-7.38106e-10 5.27835e-09 -3.02369e-07)
(1.40009e-07 -1.26075e-07 -3.79011e-07)
(7.84664e-10 -7.38388e-09 -3.63499e-07)
(-1.90811e-07 1.55236e-07 -5.09803e-07)
(1.85769e-07 1.41673e-07 -5.10015e-07)
(-2.44387e-07 -2.03193e-07 -6.61348e-07)
(-2.94344e-10 1.33613e-08 -4.80206e-07)
(2.51787e-07 -2.14662e-07 -6.60679e-07)
(1.76838e-09 -1.4075e-08 -6.26013e-07)
(-3.34409e-07 2.76752e-07 -8.7806e-07)
(3.27118e-07 2.5722e-07 -8.78486e-07)
(-4.22304e-07 -3.46835e-07 -1.13216e-06)
(2.94265e-10 2.27598e-08 -8.31237e-07)
(4.36435e-07 -3.67622e-07 -1.13248e-06)
(3.17647e-09 -2.26812e-08 -1.06026e-06)
(-5.63536e-07 4.68777e-07 -1.47097e-06)
(5.53057e-07 4.39989e-07 -1.47254e-06)
(-6.94893e-07 -5.72972e-07 -1.85434e-06)
(1.51945e-09 3.6067e-08 -1.38147e-06)
(7.20112e-07 -6.08701e-07 -1.85706e-06)
(5.54072e-09 -2.50067e-08 -1.71593e-06)
(-9.05482e-07 7.49511e-07 -2.35063e-06)
(8.9072e-07 7.07606e-07 -2.35463e-06)
(-1.08341e-06 -9.0876e-07 -2.88358e-06)
(3.99271e-09 5.40457e-08 -2.1822e-06)
(1.12676e-06 -9.68399e-07 -2.89207e-06)
(8.43139e-09 2.56837e-09 -2.63731e-06)
(-1.38375e-06 1.12469e-06 -3.56723e-06)
(1.36328e-06 1.07143e-06 -3.57928e-06)
(-1.59383e-06 -1.37429e-06 -4.2486e-06)
(8.80111e-09 7.90688e-08 -3.2684e-06)
(1.66359e-06 -1.47119e-06 -4.27339e-06)
(5.96646e-09 1.27487e-07 -3.84415e-06)
(-1.99771e-06 1.56908e-06 -5.11943e-06)
(1.96872e-06 1.52777e-06 -5.15461e-06)
(-2.18006e-06 -1.94396e-06 -5.93373e-06)
(1.45039e-08 1.1595e-07 -4.61696e-06)
(2.26725e-06 -2.07619e-06 -5.98449e-06)
(-1.69924e-08 5.28844e-07 -5.28159e-06)
(-2.6772e-06 2.00799e-06 -6.85167e-06)
(2.63966e-06 2.00771e-06 -6.91543e-06)
(-1.59581e-06 -2.82654e-07 -6.85814e-06)
(-3.78619e-09 5.98027e-08 -6.34784e-06)
(1.58239e-06 -3.45759e-07 -6.86179e-06)
(-1.12438e-07 6.58359e-06 -6.17435e-06)
(-2.68668e-07 -3.24516e-06 -6.82188e-06)
(-2.07791e-07 -3.35459e-06 -6.57996e-06)
(-3.25032e-07 4.92219e-06 -5.92072e-06)
(-3.20757e-06 1.29978e-06 -8.07334e-06)
(6.64786e-07 4.55226e-07 -5.28043e-06)
(4.25557e-07 -3.79907e-06 -6.79601e-06)
(-2.45907e-07 -8.98355e-07 -5.10786e-06)
(-4.93113e-07 -5.46704e-07 -4.88617e-06)
(-1.56784e-07 1.60675e-06 -5.88591e-06)
(-2.50646e-06 -1.68776e-06 -5.86747e-06)
(5.77919e-07 -3.24803e-08 -5.33067e-06)
(-1.0518e-06 7.87801e-08 -5.71966e-06)
(-1.40379e-06 -3.25223e-07 -5.77559e-06)
(-2.57755e-07 -3.64093e-07 -4.98512e-06)
(-4.22074e-07 -7.62739e-08 -4.23515e-06)
(-5.56125e-07 9.72634e-08 -4.15293e-06)
(-2.94336e-07 5.17734e-08 -2.82577e-06)
(-1.58016e-07 -2.37448e-08 -2.8781e-06)
(7.51662e-08 -6.01675e-08 -2.28144e-06)
(-8.74719e-08 -2.02711e-08 -1.85768e-06)
(-1.71302e-07 2.5573e-08 -1.83141e-06)
(-1.58836e-07 6.99143e-09 -1.81764e-06)
(-9.88873e-08 3.4047e-09 -1.1264e-06)
(-6.49904e-08 1.43525e-09 -6.70305e-07)
(-4.14681e-08 -4.2192e-11 -3.94857e-07)
(-1.29031e-08 -1.045e-09 -2.48681e-07)
(4.44103e-08 -3.93472e-09 -2.0199e-07)
(4.48104e-08 -1.85696e-09 -1.39415e-07)
(4.5433e-08 4.60754e-08 -1.98814e-07)
(5.22229e-08 -4.61116e-08 -1.75669e-07)
(7.09139e-08 3.17931e-10 -2.02279e-07)
(6.77739e-08 3.24574e-10 -2.0396e-07)
(4.83769e-08 -4.70099e-08 -1.88071e-07)
(4.87418e-08 4.62808e-08 -1.94271e-07)
(3.38025e-08 -1.26062e-10 -2.31931e-07)
(-2.96972e-08 1.6517e-10 -1.69997e-07)
(9.23744e-09 -1.80119e-10 -2.08471e-07)
(-3.3666e-09 -3.47282e-09 -1.97868e-07)
(-2.33189e-09 -2.21641e-09 -1.9855e-07)
(8.39304e-09 8.37572e-09 -2.09496e-07)
(-2.58692e-08 4.06073e-10 -1.65237e-07)
(-5.41062e-11 9.62257e-09 -2.07786e-07)
(-1.126e-11 -3.39416e-09 -1.99106e-07)
(-4.37689e-11 -4.1921e-09 -1.99717e-07)
(7.63623e-11 -2.06617e-10 -2.32209e-07)
(-1.65202e-08 1.60294e-08 -1.648e-07)
(-1.91235e-08 -1.90278e-08 -1.66404e-07)
(-1.90487e-08 1.93343e-08 -1.66154e-07)
(-1.66277e-08 -1.57291e-08 -1.65071e-07)
(1.66789e-08 -1.60169e-08 -1.64614e-07)
(-1.34323e-08 -1.32704e-08 -1.63306e-07)
(7.08916e-10 7.03978e-10 -2.70076e-07)
(1.93277e-08 1.92482e-08 -1.65925e-07)
(-1.59172e-08 1.68869e-08 -1.64954e-07)
(-1.58968e-08 -1.66503e-08 -1.64985e-07)
(7.27368e-10 -4.69599e-10 -2.70235e-07)
(1.91768e-08 -1.91713e-08 -1.66162e-07)
(6.83528e-11 7.77983e-11 -2.34271e-07)
(1.51682e-10 1.71072e-10 -2.83426e-07)
(1.655e-10 4.60104e-10 -2.81299e-07)
(1.4764e-10 -8.71475e-10 -2.44622e-07)
(-9.23098e-10 -1.04792e-09 -2.43579e-07)
(4.69738e-10 -9.03965e-09 -2.28612e-07)
(-3.48694e-10 -6.37875e-09 -3.67194e-07)
(-1.94654e-10 -1.22559e-08 -6.33892e-07)
(5.64641e-10 -1.83918e-08 -1.07243e-06)
(2.46918e-09 -2.20463e-08 -1.73097e-06)
(6.53004e-09 -1.43151e-08 -2.65043e-06)
(2.20932e-09 -5.88165e-09 -2.52394e-06)
(-8.81232e-09 9.11749e-08 -2.24266e-06)
(-4.83215e-08 -2.26503e-07 -2.65083e-06)
(2.11567e-08 -9.9288e-08 -2.58616e-06)
(-2.83804e-08 -2.86387e-08 -2.46815e-06)
(1.66352e-07 7.4521e-07 -2.64514e-06)
(-2.32436e-07 -8.92491e-07 -3.27676e-06)
(1.51708e-06 9.93709e-07 -3.73121e-06)
(-1.87268e-06 -1.18396e-06 -4.34664e-06)
(2.27316e-06 1.4534e-06 -5.52161e-06)
(-1.78372e-08 -6.77416e-08 -4.63252e-06)
(-6.45884e-07 -1.36505e-06 -4.65453e-06)
(-1.2604e-07 -6.38691e-08 -3.58142e-06)
(1.80035e-07 1.18796e-06 -3.99908e-06)
(7.84662e-09 -3.47951e-08 -3.20218e-06)
(6.40887e-08 -1.26674e-07 -3.45833e-06)
(9.74177e-08 2.05493e-08 -3.50787e-06)
(-2.73965e-07 1.4318e-08 -2.79404e-06)
(-5.02145e-07 2.84917e-08 -4.08229e-06)
(-9.81252e-07 3.37258e-08 -5.66231e-06)
(-2.28541e-06 -3.08666e-08 -7.55087e-06)
(-2.35419e-06 -3.69537e-07 -7.53674e-06)
(-5.33189e-06 1.27187e-06 -7.59072e-06)
(-2.13661e-06 -6.12117e-07 -6.3669e-06)
(-1.8183e-06 -2.10144e-06 -5.83611e-06)
(-2.85694e-08 -3.30834e-07 -6.1941e-06)
(-7.00202e-07 -4.10342e-07 -6.93681e-06)
(6.61454e-07 -5.02462e-06 -5.93094e-06)
(-4.72099e-06 -1.42539e-06 -6.81115e-06)
(-2.88304e-06 1.85598e-07 -9.9187e-06)
(-1.40412e-06 -2.13034e-06 -8.94754e-06)
(2.05863e-06 1.53643e-06 -8.65102e-06)
(1.6477e-07 7.75678e-08 -8.9545e-06)
(8.6903e-08 6.74789e-08 -5.67399e-06)
(-2.10107e-06 1.8559e-06 -7.24377e-06)
(2.21212e-06 1.55302e-06 -7.59245e-06)
(1.5114e-08 1.97561e-07 -9.14191e-06)
(-2.75115e-07 -1.79397e-07 -5.82954e-06)
(-2.29137e-06 2.03859e-06 -7.48464e-06)
(2.21891e-06 1.83436e-06 -7.62231e-06)
(4.51641e-09 2.08991e-07 -9.18535e-06)
(-3.03985e-07 -2.13912e-07 -5.85499e-06)
(-2.23758e-06 1.85565e-06 -7.3918e-06)
(2.21238e-06 2.08672e-06 -7.72088e-06)
(1.76919e-08 1.95204e-07 -9.16998e-06)
(-4.87409e-07 -4.78327e-07 -6.00107e-06)
(-2.13634e-06 1.54866e-06 -7.33559e-06)
(1.5794e-06 2.11252e-06 -8.23993e-06)
(-1.36542e-06 -7.56288e-07 -1.14531e-05)
(1.19228e-06 1.2313e-06 -9.19098e-06)
(9.09902e-07 -1.06841e-06 -8.99275e-06)
(2.57013e-06 1.14328e-06 -1.14144e-05)
(-1.2089e-06 -4.47868e-06 -1.12107e-05)
(-6.70233e-07 -2.41809e-06 -8.87564e-06)
(3.77616e-07 3.8392e-07 -6.463e-06)
(1.45019e-06 -1.10755e-06 -9.05118e-06)
(-4.38492e-06 2.09847e-06 -7.91902e-06)
(-2.11196e-07 -1.32448e-07 -6.97599e-06)
(-2.54458e-06 -3.39767e-06 -7.46622e-06)
(2.48966e-06 1.97185e-06 -8.05282e-06)
(2.40256e-06 -3.67022e-08 -6.39009e-06)
(2.19975e-06 -2.32541e-06 -8.36394e-06)
(2.78219e-06 -2.31594e-06 -9.61538e-06)
(1.22301e-06 -3.32267e-06 -6.43948e-06)
(1.8774e-07 1.10044e-06 -7.55547e-06)
(1.00435e-06 -1.73188e-06 -6.17854e-06)
(1.46099e-06 -1.16747e-06 -6.41104e-06)
(2.28665e-06 1.78703e-06 -8.13685e-06)
(-7.65091e-07 -3.08636e-06 -6.81729e-06)
(1.9857e-07 -4.72198e-07 -5.05761e-06)
(1.30294e-06 1.92902e-06 -6.09459e-06)
(-8.02813e-07 -1.92384e-06 -5.08614e-06)
(1.42483e-08 -1.64468e-07 -3.71372e-06)
(8.16986e-07 1.45009e-06 -4.27121e-06)
(-5.70182e-07 -1.20623e-06 -3.55239e-06)
(1.2411e-09 -8.67283e-08 -2.54017e-06)
(5.3696e-07 9.81339e-07 -2.86536e-06)
(-3.6066e-07 -7.59763e-07 -2.34663e-06)
(2.93637e-09 -6.08338e-08 -1.6536e-06)
(3.44989e-07 6.26193e-07 -1.83252e-06)
(-2.19394e-07 -4.68012e-07 -1.47084e-06)
(2.51167e-09 -4.17134e-08 -1.02033e-06)
(2.11778e-07 3.8191e-07 -1.11584e-06)
(-1.29602e-07 -2.7682e-07 -8.765e-07)
(7.71258e-10 -2.43999e-08 -6.01427e-07)
(1.21545e-07 2.24379e-07 -6.48628e-07)
(-7.90648e-08 -1.58122e-07 -5.04429e-07)
(-3.83386e-09 -7.61324e-09 -3.38991e-07)
(6.18996e-08 1.33684e-07 -3.72792e-07)