/*--------------------------------*- C++ -*----------------------------------*\
| =========                 |                                                 |
| \\      /  F ield         | OpenFOAM: The Open Source CFD Toolbox           |
|  \\    /   O peration     | Version:  2306                                  |
|   \\  /    A nd           | Website:  www.openfoam.com                      |
|    \\/     M anipulation  |                                                 |
\*---------------------------------------------------------------------------*/
FoamFile
{
    version     2.0;
    format      ascii;
    arch        "LSB;label=32;scalar=64";
    class       volVectorField;
    location    "1.6";
    object      flux;
}
// * * * * * * * * * * * * * * * * * * * * * * * * * * * * * * * * * * * * * //

dimensions      [0 1 -1 1 0 0 0];

internalField   nonuniform List<vector> 
5322
(
(-0.00100637 0.00259984 -0.00348739)
(2.28878e-05 0.000244297 -0.00355981)
(2.79219e-05 -1.76428e-05 -0.00367439)
(3.17327e-06 -0.000109032 -0.00398316)
(-5.37016e-07 -6.03546e-05 -0.00395109)
(-6.96206e-07 -2.13249e-05 -0.00393889)
(7.79461e-09 -6.12824e-07 -0.0039348)
(5.19037e-07 1.93725e-05 -0.00393744)
(3.14899e-07 5.66275e-05 -0.00394835)
(-8.29599e-07 0.00010328 -0.00398035)
(-4.02881e-06 9.66004e-07 -0.00393478)
(4.39212e-05 -0.000768989 -0.00394589)
(6.76664e-05 -0.000854689 -0.00296957)
(-0.000932 -0.000767202 -0.00409408)
(-2.46959e-05 -0.000666009 -0.00447675)
(0.00162201 0.00144134 -0.00357362)
(-0.00127456 0.00192793 -0.00422428)
(-2.01208e-05 -2.99937e-06 -0.0031625)
(-0.000972459 0.00133131 -0.00445268)
(0.000626853 -0.00157835 -0.0044934)
(-0.000852276 0.00150115 -0.00452187)
(0.00074128 -0.00152506 -0.00450171)
(-0.00078407 0.00149606 -0.00450404)
(0.000788331 -0.00153122 -0.00452803)
(-0.000798531 0.00152596 -0.00452797)
(0.00076705 -0.00149708 -0.00450328)
(-0.000768718 0.00149568 -0.00450511)
(0.000797448 -0.00152703 -0.00452645)
(-0.000785577 0.00152285 -0.00452842)
(0.000785772 -0.00150438 -0.00450638)
(-0.000745646 0.00151383 -0.00450589)
(0.000847065 -0.00151403 -0.00451487)
(-0.000636368 0.0015635 -0.00448424)
(0.000969835 -0.00134333 -0.00441315)
(1.3809e-05 0.00128872 -0.00419635)
(0.00121715 -0.000644281 -0.00344533)
(0.0008581 0.00126578 -0.00391893)
(-0.000342226 0.00158889 -0.00399393)
(0.000961858 0.000793629 -0.00412268)
(-5.52441e-05 0.000859276 -0.0029034)
(-0.000912242 0.00117265 -0.00383389)
(0.000917351 0.000979402 -0.00395663)
(-5.55352e-05 0.00101379 -0.00285135)
(-0.000976004 0.00109457 -0.00396248)
(0.000969962 0.00104356 -0.00392375)
(-3.33591e-05 0.00103327 -0.00289871)
(-0.00103737 0.0010602 -0.00401737)
(0.000905952 0.00113265 -0.00379215)
(-2.28791e-05 0.00104944 -0.0028601)
(-0.00108725 0.00100218 -0.00392785)
(-0.00107263 0.00125725 -0.00439912)
(-0.00155776 0.000608723 -0.00315663)
(-0.000486576 0.000681424 -0.00429591)
(0.00104464 -0.00224604 -0.00403588)
(-6.65837e-05 -0.000122567 -0.00378394)
(-0.00172498 -0.00129963 -0.00383708)
(-4.89874e-05 0.000683123 -0.00455179)
(0.00164861 -0.0017044 -0.00377761)
(-1.97618e-05 -9.70211e-05 -0.00382351)
(-0.00164736 -0.00148131 -0.00384114)
(-7.09264e-06 0.000693638 -0.00460729)
(0.00160553 -0.00167614 -0.00382852)
(-9.27338e-06 -8.6625e-05 -0.00382508)
(-0.0016181 -0.00147032 -0.00374642)
(-5.91147e-07 0.00069643 -0.00460405)
(0.00158091 -0.00173452 -0.00395721)
(2.00596e-05 -0.000111572 -0.00380683)
(-0.00160245 -0.00142196 -0.00355813)
(6.89767e-05 0.000702907 -0.00449471)
(0.00131224 -0.00190817 -0.00420107)
(5.20877e-05 6.71625e-05 -0.00315319)
(-0.00140072 0.00167659 -0.00491368)
(0.00158707 0.000933868 -0.00467974)
(-0.00164261 0.00130465 -0.00461322)
(0.00158127 0.000974538 -0.00466221)
(-0.00161028 0.00123428 -0.00463953)
(0.00161344 0.00102993 -0.00463713)
(-0.00161005 0.00122884 -0.0046208)
(0.00183289 0.0010434 -0.00468104)
(-0.00132054 0.00144352 -0.00443218)
(0.000647073 0.000131455 -0.00421626)
(-0.000854884 0.000485417 -0.00324107)
(-0.000552804 0.000733651 -0.0033595)
(0.000959786 0.00122121 -0.00454104)
(9.97491e-05 -0.000103966 -0.00309685)
(-0.00054398 -0.000510236 -0.0041174)
(0.000635753 0.000145161 -0.005557)
(-0.00171176 0.000285482 -0.00339461)
(-0.000645965 0.000528798 -0.00348002)
(0.00204016 6.06417e-05 -0.00312725)
(-8.76972e-05 0.000138394 -0.0039546)
(3.81969e-05 2.55573e-05 -0.00353583)
(7.04583e-05 4.02533e-06 -0.00373064)
(0.00031825 4.73551e-06 -0.00370114)
(0.00146298 0.00177697 -0.00449343)
(-0.000340133 -0.000948774 -0.00389152)
(-4.15357e-05 2.85775e-05 -0.00387787)
(-0.000167685 0.000956556 -0.00394737)
(0.00065551 2.5964e-05 -0.00565555)
(-0.00151787 -2.49875e-05 -0.00330381)
(-0.00151948 0.000130498 -0.00333153)
(0.00339521 2.5552e-05 -0.00317834)
(-0.000164851 0.00101281 -0.00397726)
(0.00112843 -0.0017325 -0.00444057)
(0.00183673 0.00155033 -0.00483062)
(-2.28345e-05 2.08845e-05 -0.00376339)
(1.10989e-05 -2.9653e-05 -0.00399255)
(1.51718e-05 -5.53534e-06 -0.00400138)
(9.20081e-06 -9.19327e-07 -0.0039874)
(4.51033e-06 1.65135e-06 -0.00399208)
(1.79326e-06 1.88004e-06 -0.00399281)
(-4.76024e-07 2.30998e-06 -0.00399089)
(-4.70795e-06 5.28021e-06 -0.00398593)
(-1.15607e-05 1.06018e-05 -0.00399938)
(1.81967e-05 -1.80022e-05 -0.00460479)
(-6.13237e-06 4.71565e-06 -0.00456004)
(-0.000535527 0.000548182 -0.00319114)
(-0.000528394 -0.000225492 -0.00345799)
(5.59384e-05 -7.74764e-05 -0.00460594)
(0.00033679 -0.000423105 -0.00381116)
(1.9132e-05 0.000520366 -0.00337819)
(0.000513808 -0.000289628 -0.00410887)
(-0.00061457 -0.000564368 -0.00405128)
(-4.60445e-05 -0.000771994 -0.00570756)
(-0.000141542 -0.000872371 -0.00425165)
(0.000952741 -3.51456e-05 -0.0055888)
(0.000783724 0.000639416 -0.00401275)
(0.000217951 -0.000482509 -0.00419008)
(0.000612772 4.52098e-05 -0.00549285)
(0.000396125 0.000526967 -0.00399578)
(0.000301229 -0.000524878 -0.00410089)
(0.000657896 2.211e-05 -0.00554243)
(0.000332175 0.000547807 -0.00405768)
(0.000356366 -0.000561696 -0.00402452)
(0.000669349 -1.77442e-05 -0.00556777)
(0.000290806 0.000511609 -0.00411506)
(0.000560806 -0.000613714 -0.00404948)
(0.000760881 -4.88662e-05 -0.00571657)
(0.000862539 -0.000141639 -0.00425478)
(3.7055e-05 0.000939582 -0.00558919)
(-0.000632239 0.000778407 -0.00402272)
(3.48625e-05 -0.000510142 -0.0033897)
(0.000421173 0.000338246 -0.00381154)
(-0.000510235 0.000262932 -0.00340959)
(-0.000547409 -0.000537763 -0.00319706)
(7.82581e-05 5.79579e-05 -0.00460648)
(0.000226208 -0.00052691 -0.00345815)
(0.000124473 0.000413317 -0.00343384)
(-0.000428416 0.000424756 -0.00315462)
(-0.00047086 -0.000468353 -0.0031754)
(8.81062e-05 -7.08065e-06 -0.00459736)
(0.000140272 -0.000437052 -0.00343853)
(0.000169054 0.00043866 -0.00342525)
(-0.000464641 0.000473485 -0.00315641)
(-0.000440858 -0.000425366 -0.00318302)
(8.88374e-05 -1.43244e-06 -0.00459617)
(9.22214e-05 -0.000406588 -0.00344544)
(0.000267659 0.000516146 -0.00340798)
(-0.000509971 -3.36704e-05 -0.00338851)
(0.000665406 -2.5469e-05 -0.00447606)
(-0.00143438 0.00162199 -0.00356837)
(-0.00192266 -0.00127123 -0.00422981)
(0.00165707 0.00140566 -0.00491868)
(-0.00194051 -0.00149272 -0.00480772)
(-8.12518e-05 5.04415e-05 -0.00305003)
(-0.00133518 -0.000963281 -0.00445353)
(1.07395e-05 -2.0629e-05 -0.00316279)
(0.00130163 -8.81094e-06 -0.00428405)
(-0.000312611 -0.000180296 -0.00293327)
(0.00155136 0.000465369 -0.00396692)
(0.000769035 -0.000931147 -0.00409903)
(0.00114676 0.000926426 -0.00380763)
(-0.00171857 -0.00155515 -0.00394289)
(0.000670614 3.54648e-06 -0.00457642)
(-0.00148079 0.00158842 -0.00376435)
(0.000985142 -0.00156925 -0.00463603)
(0.00128438 0.00163378 -0.00460362)
(-0.00157093 -0.00166971 -0.00444614)
(3.52081e-05 6.9412e-06 -0.00371583)
(-0.00133559 0.00164493 -0.00443842)
(0.00117554 -0.00168531 -0.0045431)
(0.00146327 0.00174799 -0.00455247)
(-0.0015551 -0.00174273 -0.00451122)
(-9.65938e-06 6.48007e-06 -0.00377425)
(-0.00130339 0.00170402 -0.00451639)
(0.00124053 -0.00171578 -0.00453072)
(0.00151555 0.00177107 -0.00453647)
(-0.00155337 -0.00176385 -0.00452159)
(-3.0526e-06 3.96665e-06 -0.00378822)
(-0.00129621 0.00172275 -0.00452573)
(0.00126273 -0.00172721 -0.00453138)
(0.00153353 0.0017793 -0.00453532)
(-0.0015625 -0.00177189 -0.00452245)
(2.75395e-07 3.33427e-06 -0.00379438)
(-0.00130441 0.00173116 -0.00452823)
(0.00126093 -0.0017369 -0.00453456)
(0.0015369 0.0017888 -0.00454057)
(-0.00158553 -0.00177534 -0.00451806)
(1.81279e-06 4.33537e-06 -0.00379945)
(-0.001327 0.00173491 -0.00452725)
(0.00124074 -0.00174808 -0.00454005)
(0.00152911 0.00180111 -0.00455026)
(-0.00162072 -0.0017715 -0.00450977)
(4.15511e-06 5.71588e-06 -0.00380294)
(-0.00135568 0.00172868 -0.00452288)
(0.00120125 -0.00175355 -0.00453943)
(0.00150825 0.00180632 -0.00455489)
(-0.00164876 -0.00173548 -0.00450429)
(9.78087e-06 7.35978e-06 -0.00379175)
(-0.00136298 0.00168574 -0.00452294)
(0.00112843 -0.00173576 -0.00446054)
(0.00140871 0.00175025 -0.00447527)
(-0.000307516 -0.000948636 -0.0039385)
(0.000626243 -4.25389e-06 -0.00565872)
(-0.00150668 -6.99351e-05 -0.00330507)
(-0.00153648 2.91099e-05 -0.00329337)
(0.00341609 -2.82005e-05 -0.00318931)
(-0.00011739 -1.73544e-06 -0.00449212)
(-0.000128626 1.11238e-05 -0.0044798)
(7.88313e-05 1.47453e-05 -0.00373095)
(0.000343504 6.81667e-08 -0.00370214)
(0.00145353 0.00178085 -0.00447961)
(-0.000268503 -0.000944291 -0.00392242)
(-2.66735e-05 7.99854e-06 -0.00383035)
(-0.000299329 0.00112574 -0.00397235)
(0.000596535 -0.000152926 -0.00563866)
(-0.00153515 -4.49652e-05 -0.00332271)
(-0.00150992 3.71511e-05 -0.00329275)
(0.00339652 -5.54118e-05 -0.00319518)
(-0.000198724 0.000953749 -0.00392417)
(0.00112873 -0.00175367 -0.00446594)
(-4.28042e-05 1.01835e-05 -0.00387641)
(1.86867e-05 7.81616e-06 -0.0039218)
(1.81992e-05 2.19573e-05 -0.00399445)
(1.17129e-05 1.42109e-05 -0.00398669)
(6.10039e-06 7.59253e-06 -0.00399381)
(2.6517e-06 3.41903e-06 -0.0039944)
(-5.39558e-09 2.41055e-07 -0.00399185)
(-4.34954e-06 -4.67728e-06 -0.00398632)
(-1.05032e-05 -1.17976e-05 -0.00399924)
(1.81591e-05 1.75527e-05 -0.00460458)
(-5.619e-06 -6.3124e-06 -0.00456116)
(0.000425561 -0.000441292 -0.00317707)
(-0.000472358 -0.000470027 -0.00316724)
(0.000470699 -0.000470239 -0.00316478)
(-0.000427553 -0.000442314 -0.00317688)
(8.55346e-07 9.03611e-05 -0.00459561)
(0.000428012 0.000155737 -0.00342499)
(-0.000404519 9.81909e-05 -0.00344424)
(-2.27609e-06 -0.000594238 -0.0034653)
(-0.00050951 0.000311703 -0.00409986)
(2.82579e-07 -0.000630178 -0.00575941)
(-0.000428114 0.000156101 -0.00342595)
(-3.28228e-07 9.05393e-05 -0.00459578)
(0.000403471 9.83763e-05 -0.00344318)
(1.58668e-05 -0.000622793 -0.00572711)
(0.00047585 0.000216877 -0.00417757)
(-3.88597e-05 0.000595879 -0.00547439)
(-0.000514484 0.000384684 -0.00399294)
(1.6843e-06 -0.000594009 -0.00346614)
(0.000508794 0.000312341 -0.00409947)
(-5.26976e-07 0.000646859 -0.00547561)
(-8.86912e-08 0.000903189 -0.00292331)
(0.000901232 0.000953993 -0.00392733)
(-0.00154911 -0.00156261 -0.00376666)
(0.00154724 -0.00155907 -0.00376229)
(-0.00153034 -0.00167795 -0.00394409)
(0.001611 0.0012173 -0.00460024)
(-0.00164824 -0.0015102 -0.0044469)
(0.00172377 0.00138599 -0.00454973)
(-0.00171863 -0.00148407 -0.00451133)
(0.00174612 0.00143552 -0.00453517)
(-0.00173894 -0.00147849 -0.00452112)
(0.00175422 0.00145339 -0.00453498)
(-0.001747 -0.0014856 -0.00452214)
(0.00176376 0.00145724 -0.00454117)
(-0.00175034 -0.00150735 -0.00451771)
(0.00177642 0.00145116 -0.00455251)
(-0.00174673 -0.00154328 -0.0045084)
(0.00178334 0.00143636 -0.00456)
(-0.00171267 -0.00157775 -0.00449964)
(0.00175748 0.00140635 -0.0045033)
(-0.000941749 -0.000309619 -0.00388796)
(1.98045e-05 0.000667472 -0.00565624)
(0.00095057 -0.000212224 -0.00396251)
(2.5615e-05 -3.67047e-05 -0.00387645)
(-0.00171451 0.00121756 -0.00445014)
(0.00166687 -0.00145294 -0.00453375)
(8.63976e-06 1.41557e-05 -0.00379371)
(-0.00173228 0.00130246 -0.00453796)
(0.00170691 -0.00145762 -0.00452844)
(5.8636e-06 6.47643e-06 -0.00380468)
(-0.00172666 0.00134588 -0.00454196)
(0.00171212 -0.00143175 -0.00452944)
(3.88362e-06 2.99149e-06 -0.00380068)
(-0.0017155 0.00136568 -0.00453729)
(0.001708 -0.00140878 -0.00452859)
(2.69523e-06 7.08203e-07 -0.00379508)
(-0.00170587 0.0013659 -0.00453422)
(0.00169953 -0.00139881 -0.0045249)
(2.81069e-06 -3.22256e-06 -0.00378849)
(-0.00169477 0.00134241 -0.00453458)
(0.00168114 -0.0014019 -0.00451377)
(4.51871e-06 -1.03788e-05 -0.00377418)
(-0.00166553 0.00127354 -0.00454939)
(0.00162178 -0.00142585 -0.00443366)
(5.1399e-06 3.33728e-05 -0.00371481)
(-0.00154908 0.00106664 -0.00464234)
(9.11379e-07 -9.85094e-05 -0.00380801)
(0.00154855 0.00106571 -0.00463714)
(-0.0016228 -0.00142817 -0.00443865)
(-7.28929e-06 3.34351e-05 -0.00371484)
(-0.00160861 0.00122366 -0.00460494)
(0.00152802 -0.00166829 -0.00394312)
(-2.86984e-06 0.000669562 -0.00457538)
(-0.000908918 0.00110711 -0.00379936)
(-5.90578e-05 0.000827449 -0.00295895)
(0.000924539 0.000774509 -0.00410784)
(-0.00160429 -0.00147177 -0.00357435)
(0.00154902 0.000965517 -0.00465713)
(-0.00163128 -0.0013738 -0.00445593)
(0.00163875 0.00121502 -0.00454106)
(-0.00166821 -0.00134623 -0.00453764)
(0.00166641 0.00129016 -0.00453252)
(-0.00167426 -0.00134249 -0.00453793)
(0.00167873 0.00131443 -0.00453829)
(-0.00167658 -0.00135332 -0.00453458)
(0.00169333 0.00131688 -0.00454706)
(-0.00167652 -0.00138183 -0.00452781)
(0.00171536 0.00130723 -0.00456586)
(-0.00166404 -0.00141605 -0.00450317)
(0.00173718 0.00128523 -0.00458961)
(-0.001606 -0.00140287 -0.00445722)
(0.00172447 0.00122551 -0.00451464)
(-0.000928024 -0.00020214 -0.00390917)
(-0.000199201 0.000483016 -0.00557378)
(0.000403631 -0.000552931 -0.00412689)
(5.0939e-05 -1.03231e-05 -0.00373504)
(-0.00160056 0.00167992 -0.00479172)
(0.00144044 -0.00205543 -0.00486755)
(2.02033e-05 3.55101e-05 -0.00367099)
(-0.00157683 0.00184548 -0.00487641)
(0.00152401 -0.0020083 -0.00485677)
(2.91092e-06 1.78798e-05 -0.00368377)
(-0.00152873 0.0018795 -0.00487209)
(0.00152241 -0.00193677 -0.00485)
(-1.85981e-06 6.94683e-06 -0.00367595)
(-0.00150999 0.0018802 -0.00485817)
(0.00151156 -0.00190023 -0.00484654)
(-2.63372e-06 1.70326e-06 -0.00366941)
(-0.00150468 0.00187968 -0.00485443)
(0.00150851 -0.00188925 -0.00484887)
(-7.67375e-06 -3.65613e-06 -0.00366541)
(-0.00150018 0.00187638 -0.00485609)
(0.00151079 -0.00188883 -0.00484759)
(-1.94611e-05 -7.77486e-06 -0.00365731)
(-0.00147953 0.001845 -0.00487515)
(0.00149083 -0.00190522 -0.00480939)
(-4.49455e-05 4.24991e-05 -0.00360606)
(-0.00137719 0.00164055 -0.00491795)
(0.00126096 -0.00189688 -0.00422897)
(2.71922e-05 0.000665595 -0.00447453)
(-0.000456978 0.0015464 -0.00396549)
(0.000777764 0.00137419 -0.00418947)
(0.00127896 -0.000689976 -0.00365517)
(4.07795e-05 0.00131018 -0.00429802)
(0.00015917 -0.000311001 -0.00292495)
(-0.000233804 0.000246898 -0.00333834)
(0.000654364 0.00156986 -0.00379728)
(-0.00201846 -0.00135867 -0.00348588)
(0.00153157 0.00126763 -0.00476577)
(-0.0019206 -0.00119348 -0.00464138)
(-0.00129328 0.00191165 -0.0044714)
(-0.00159905 -0.0016831 -0.00444125)
(4.1546e-05 -1.3322e-05 -0.00370568)
(0.00105296 -0.00188363 -0.00460603)
(0.00116461 0.00160665 -0.00467294)
(-0.00167668 -0.0016436 -0.00362821)
(0.000648421 4.82994e-05 -0.00459489)
(-0.00150473 0.00173045 -0.00403587)
(-0.000111827 7.72604e-05 -0.0038384)
(8.06285e-05 3.3526e-05 -0.00377301)
(-0.000609096 -0.000489713 -0.00556108)
(5.21145e-05 4.80211e-05 -0.00448726)
(-2.45913e-05 -3.93211e-05 -0.00425427)
(-0.000646216 2.5696e-05 -0.00570964)
(6.59141e-05 -9.38426e-06 -0.00409306)
(-0.000104355 -3.35815e-06 -0.00381576)
(-0.00152672 0.00158207 -0.00389695)
(-0.00165581 -0.00158516 -0.00378732)
(0.00119466 0.00158632 -0.00464205)
(-0.00154921 -0.00164913 -0.00443357)
(1.99007e-05 2.66239e-07 -0.00375458)
(0.00141349 0.00170142 -0.00455263)
(-0.00154087 -0.00171242 -0.00451373)
(0.00148813 0.00173212 -0.00453699)
(-0.00154233 -0.00173177 -0.00452505)
(1.09169e-05 1.19904e-06 -0.00373356)
(0.00151587 0.00174514 -0.00453792)
(-0.00155405 -0.00173878 -0.00452621)
(0.00152122 0.0017578 -0.00454417)
(-0.00157895 -0.00173974 -0.00452148)
(5.90414e-05 1.41347e-06 -0.00372508)
(0.00151072 0.00177221 -0.00455421)
(-0.00160843 -0.00173001 -0.00451121)
(0.00148062 0.00177732 -0.00455649)
(-0.00161348 -0.00168664 -0.00450728)
(0.000333283 -2.73528e-06 -0.00370615)
(7.79234e-05 2.29987e-06 -0.00373496)
(4.99811e-05 3.80295e-06 -0.00373945)
(5.25901e-05 1.27101e-05 -0.00373981)
(2.52976e-05 7.14185e-06 -0.00374586)
(6.20308e-05 4.62403e-06 -0.00373196)
(0.00156152 0.00178817 -0.00456885)
(-0.00165048 -0.00172746 -0.00451157)
(1.28348e-05 9.14253e-06 -0.00379735)
(-0.0013387 0.00204291 -0.00455045)
(0.00110304 -0.00201823 -0.00450568)
(0.00153779 0.00180795 -0.00458086)
(-0.00161941 -0.00166958 -0.00448347)
(2.90527e-05 1.7541e-05 -0.00377895)
(-0.00142183 0.00202798 -0.00456862)
(0.000988541 -0.00192761 -0.00438714)
(0.00197568 0.00122851 -0.00488469)
(-0.000232517 -0.000854792 -0.00375059)
(3.73177e-05 -0.00136555 -0.00552772)
(-0.00164752 -9.27785e-05 -0.00335919)
(-0.00152035 -2.10093e-05 -0.00321417)
(0.00321471 -0.000493602 -0.00326841)
(-0.000199525 -0.000126815 -0.00432448)
(5.35034e-05 3.82503e-05 -0.00351041)
(9.00454e-05 0.000908326 -0.00312489)
(-0.000980866 0.00118553 -0.00456631)
(0.000224469 9.45578e-05 -0.00305833)
(0.000771157 -0.00193132 -0.00439632)
(-0.000798111 0.00146727 -0.0045588)
(6.56268e-05 1.45946e-05 -0.00305378)
(0.000827668 -0.00163776 -0.00448923)
(-0.000750737 0.00149685 -0.00453223)
(1.04408e-05 -3.25165e-06 -0.00304613)
(0.000805669 -0.00154085 -0.0045239)
(-0.000770328 0.00151608 -0.0045331)
(-1.38391e-06 6.80383e-07 -0.00304402)
(0.000770421 -0.00148822 -0.00450984)
(-0.000747646 0.00151069 -0.00450413)
(-1.99086e-05 -1.06494e-05 -0.00304566)
(0.000801855 -0.00148696 -0.00452684)
(-0.000723102 0.00156944 -0.00450318)
(-4.90328e-05 -2.68658e-05 -0.00305077)
(0.000845577 -0.00141797 -0.00451679)
(-0.000568925 0.00160251 -0.00446961)
(-8.20595e-05 -0.000100763 -0.00304818)
(0.000999604 -0.001265 -0.00447635)
(0.000379573 0.000410599 -0.00343025)
(0.00028072 0.000617347 -0.00330726)
(-7.38126e-05 -0.00076133 -0.00412021)
(-3.84271e-05 6.41401e-06 -0.00359731)
(0.000393544 0.00124367 -0.00400909)
(-0.000173037 -0.00105856 -0.00415762)
(0.00177263 0.00124238 -0.00463576)
(-0.00189398 -0.00121468 -0.00468425)
(0.00185092 0.00123345 -0.00464218)
(-0.00189009 -0.00122052 -0.00466965)
(-0.00122368 0.00198591 -0.00452837)
(-0.00158675 -0.00174071 -0.00453758)
(-3.68034e-06 -4.09603e-06 -0.00378056)
(0.00121111 -0.00199062 -0.00454469)
(0.0015281 0.0017347 -0.00454194)
(-0.00158547 -0.00172952 -0.00453135)
(-8.71587e-06 -1.03818e-05 -0.00376909)
(-0.00122848 0.00196796 -0.0045178)
(1.03663e-05 -8.3398e-08 -0.0037468)
(9.22497e-07 -4.42e-06 -0.00354503)
(1.33965e-05 -2.88941e-06 -0.00355703)
(-1.27933e-06 -0.00011409 -0.0031624)
(2.63412e-05 2.5808e-05 -0.0036873)
(0.000101693 0.00015924 -0.00357927)
(9.41133e-05 0.000172984 -0.00343364)
(0.000170936 7.04512e-05 -0.00400286)
(-5.00084e-05 3.01677e-05 -0.00397378)
(2.69998e-05 9.9633e-05 -0.00393256)
(0.000711884 7.05696e-05 -0.00396896)
(0.00113116 -9.08426e-05 -0.00308208)
(0.000943414 0.00147084 -0.00502226)
(0.000318884 0.000471533 -0.00278157)
(0.00143435 0.000102542 -0.00373398)
(0.000570944 0.000352005 -0.00396445)
(0.000267719 7.5149e-05 -0.00387442)
(7.98563e-05 2.25833e-05 -0.00389076)
(5.10776e-05 1.57544e-05 -0.00400325)
(-2.31749e-05 5.27249e-06 -0.00394293)
(-1.48102e-05 2.97342e-06 -0.0039312)
(1.46723e-05 4.14483e-06 -0.00400947)
(2.40331e-05 4.02641e-06 -0.00389079)
(-0.000225103 -0.00111686 -0.00415423)
(-3.44484e-06 1.2083e-06 -0.00365188)
(0.000259508 0.00113994 -0.00411094)
(-0.000239599 -0.00112692 -0.00412502)
(0.00187452 0.00123044 -0.00466139)
(-0.00189896 -0.00122396 -0.00465673)
(0.00188599 0.0012427 -0.00467428)
(-0.0019364 -0.00122641 -0.00464418)
(-0.00127012 0.00201647 -0.00453858)
(-0.00162636 -0.00174293 -0.00453012)
(4.53677e-06 3.27317e-06 -0.00379288)
(0.00120172 -0.00200098 -0.00454121)
(0.00156762 0.00176525 -0.00455299)
(-0.00159984 -0.00174444 -0.00453623)
(6.07563e-07 -2.05266e-07 -0.00378657)
(-0.00123625 0.00199791 -0.00453394)
(1.79765e-05 3.9163e-06 -0.0037383)
(7.9755e-06 4.02325e-06 -0.00354546)
(2.02489e-06 -4.61298e-07 -0.0035442)
(1.39038e-06 -1.15214e-05 -0.00314849)
(3.46256e-06 -5.59298e-06 -0.00367565)
(6.16411e-06 1.7308e-05 -0.00363555)
(9.77052e-06 1.2545e-05 -0.00348054)
(7.86442e-06 2.2375e-06 -0.00367483)
(2.10258e-05 5.38285e-05 -0.00355379)
(3.20159e-05 3.86027e-05 -0.00341213)
(0.000305198 0.00116463 -0.00409955)
(-5.31149e-06 5.66705e-06 -0.00364782)
(-1.98305e-06 -5.35898e-05 -0.00315166)
(-9.79036e-06 -4.59999e-06 -0.00397603)
(1.69747e-06 -7.79892e-05 -0.00399406)
(4.07855e-06 1.00271e-05 -0.00394935)
(-4.02844e-05 0.000773831 -0.00394847)
(9.3533e-05 0.00147769 -0.00372567)
(-0.00107822 0.00271626 -0.00361661)
(-2.68568e-06 0.000284684 -0.00359111)
(1.48296e-05 -4.12903e-05 -0.00315478)
(7.1634e-07 -1.91843e-05 -0.00393196)
(-1.45922e-05 -7.3682e-05 -0.00388071)
(0.00164851 -0.00150064 -0.0044444)
(-2.68469e-07 6.55197e-06 -0.0037489)
(-0.00172303 0.00139641 -0.00455331)
(0.00166535 0.00127093 -0.00454529)
(-0.00168128 -0.00140263 -0.00451747)
(-5.91069e-06 -1.02962e-05 -0.00377482)
(0.00172114 -0.0014786 -0.00451001)
(3.52963e-08 1.09348e-05 -0.00373156)
(-0.00174587 0.00144448 -0.00453721)
(0.00169601 0.0013402 -0.00453258)
(-0.00169833 -0.00139811 -0.00452622)
(-2.45369e-06 -3.0722e-06 -0.0037895)
(0.00174313 -0.00147842 -0.00452218)
(1.01342e-06 9.47465e-06 -0.00372576)
(-0.00175335 0.00145746 -0.00453534)
(0.00170918 0.00136583 -0.00453557)
(-0.00170471 -0.00140752 -0.00452646)
(1.26822e-07 9.55181e-07 -0.00379657)
(0.00175349 -0.0014913 -0.00452605)
(1.91555e-06 2.52446e-05 -0.00372208)
(-0.00176216 0.00145362 -0.00453907)
(0.00172172 0.00136994 -0.00454333)
(-0.0017057 -0.00143142 -0.00452125)
(2.59195e-06 3.49274e-06 -0.00380271)
(0.00176024 -0.00152092 -0.00452629)
(1.59672e-06 7.09863e-05 -0.00371668)
(-0.0017735 0.00143054 -0.00454337)
(0.00173632 0.00136019 -0.00455653)
(-0.00169612 -0.00146331 -0.00450816)
(6.21305e-06 7.32709e-06 -0.00380663)
(0.00175829 -0.00156239 -0.00452574)
(-3.35282e-06 0.000172826 -0.003708)
(-0.00177615 0.00137691 -0.00453393)
(0.00174306 0.00133866 -0.00456499)
(-0.00165393 -0.00147911 -0.00449716)
(9.85504e-06 1.54736e-05 -0.00379242)
(0.00171383 -0.00157756 -0.00452936)
(-1.50963e-05 0.000385537 -0.00368819)
(-0.00174305 0.00128862 -0.0044488)
(0.00171841 0.00128853 -0.00449152)
(-0.000943128 -0.000248035 -0.0039321)
(-1.14023e-06 -3.56723e-05 -0.0038695)
(0.000936519 -0.000287228 -0.00393274)
(-5.74485e-05 0.00339239 -0.00320899)
(-0.000119536 -0.00151551 -0.00330545)
(-0.000125574 -0.00154743 -0.00317648)
(-0.000131144 0.00250632 -0.00300944)
(-0.00164317 0.000651608 -0.00431196)
(0.000409945 0.000270584 -0.00307166)
(0.000364762 -0.0023394 -0.00414604)
(-0.000139878 -0.000482266 -0.00340895)
(-0.000288305 -0.000282249 -0.00326645)
(-0.000143713 0.00120192 -0.00426789)
(-0.00187609 -0.00125472 -0.00437586)
(0.000395253 -2.18866e-05 -0.00367892)
(-0.000480165 2.62158e-05 -0.00388005)
(-0.000804569 -0.00015718 -0.00387989)
(-0.000294722 -0.00018905 -0.0039101)
(-0.000230859 -1.9428e-05 -0.00398967)
(-0.000241706 5.01726e-05 -0.00391248)
(-0.000102979 2.90716e-05 -0.00392049)
(-4.60529e-05 1.18022e-05 -0.00401477)
(7.64941e-06 -1.54158e-05 -0.00390301)
(-1.96182e-06 6.93553e-06 -0.00401299)
(-3.7374e-05 1.11344e-05 -0.00392598)
(-4.66544e-05 3.28867e-06 -0.00389775)
(-2.73854e-05 3.76707e-07 -0.00390748)
(-5.30019e-05 -2.98522e-06 -0.00392298)
(-0.000105056 -1.02855e-05 -0.00395636)
(1.85319e-05 -1.97669e-05 -0.00390853)
(0.000836012 -6.85554e-05 -0.00391184)
(0.000980268 -3.67305e-05 -0.0029764)
(0.000961313 0.000956504 -0.00406527)
(0.0011076 -0.000956907 -0.00359817)
(0.00136976 1.15103e-05 -0.00374211)
(0.00130409 6.17175e-06 -0.00375962)
(0.00101999 -0.000971946 -0.00383198)
(0.00102671 0.000957662 -0.00395955)
(0.000669867 -2.265e-06 -0.00458706)
(-0.000595709 3.9809e-06 -0.00345812)
(0.000192294 -4.32985e-06 -0.00426092)
(-6.98979e-05 -7.25407e-05 -0.00420735)
(-4.89538e-05 -4.59693e-05 -0.00425269)
(0.000174535 0.000173658 -0.00431548)
(-0.000519362 1.88259e-05 -0.00338085)
(-1.41509e-06 0.000199842 -0.00424724)
(-8.16785e-07 -7.08794e-05 -0.00426249)
(-1.67847e-06 -8.69118e-05 -0.00424225)
(1.31924e-07 9.85831e-08 -0.0045914)
(-0.000328083 0.000320108 -0.00310267)
(-0.000373775 -0.000372092 -0.00312308)
(-0.000370429 0.000373586 -0.00311756)
(-0.000332099 -0.000318914 -0.0031126)
(0.000329223 -0.000322844 -0.0031026)
(-0.000279475 -0.000275989 -0.00309162)
(1.03718e-05 1.02953e-05 -0.00459838)
(0.000372134 0.000370467 -0.00311257)
(-0.000321127 0.000333395 -0.0031093)
(-0.000322435 -0.000332794 -0.00311039)
(1.02907e-05 -9.91696e-06 -0.00459863)
(0.000370768 -0.00037327 -0.00311776)
(-2.10532e-08 -1.54483e-08 -0.00461787)
(6.0697e-08 5.86615e-08 -0.00462333)
(1.64812e-07 2.37178e-05 -0.00461373)
(1.83292e-07 6.72668e-05 -0.0040932)
(-9.79601e-06 6.02093e-05 -0.00408585)
(1.31452e-05 -0.000133467 -0.00379589)
(-6.71146e-06 2.60888e-06 -0.00374368)
(-3.68833e-06 6.79899e-07 -0.00373408)
(-4.54616e-07 3.93114e-06 -0.00373604)
(2.05073e-06 1.12737e-05 -0.00373728)
(5.09734e-06 2.73782e-05 -0.00373658)
(2.16413e-05 1.17946e-05 -0.00354395)
(1.60002e-05 9.59954e-05 -0.00314994)
(8.69382e-06 -7.55136e-05 -0.00366445)
(3.78286e-05 -8.43911e-06 -0.00362411)
(-1.06474e-05 5.4499e-05 -0.00346562)
(0.000226585 0.00119927 -0.00413496)
(-0.000323288 -0.00109435 -0.00411383)
(0.00191543 0.00126344 -0.00471653)
(-0.00197686 -0.00124493 -0.00457172)
(0.00196761 0.00127691 -0.00481569)
(-4.09127e-05 -3.06664e-05 -0.00369361)
(-0.000578008 -0.00113208 -0.00398019)
(-8.64387e-05 3.28996e-05 -0.00339503)
(0.000159233 0.00126859 -0.0041737)
(-1.71254e-05 -4.65202e-06 -0.0036854)
(-3.81661e-05 -5.54895e-05 -0.00391225)
(-2.00513e-05 1.1433e-05 -0.00399311)
(-0.000110448 7.88658e-06 -0.00388807)
(-0.000231084 1.57068e-05 -0.00387827)
(-0.000460788 1.85988e-05 -0.00388364)
(-0.001053 -1.33705e-05 -0.00402799)
(-0.00107656 -0.00018799 -0.00397514)
(-0.00268256 0.000644328 -0.00391488)
(-0.00126615 -0.000287428 -0.00371735)
(-0.00110711 -0.00123591 -0.00356086)
(-3.76615e-05 -0.000156642 -0.00359425)
(-0.000436507 -0.000148876 -0.00373789)
(0.000343101 -0.0024351 -0.00294959)
(-0.00216795 -0.000671268 -0.00323018)
(-0.00129545 8.5611e-05 -0.00437019)
(-0.000605925 -0.000982295 -0.00395785)
(0.000982078 0.000726275 -0.00414512)
(7.91252e-05 3.33957e-05 -0.00424959)
(5.13027e-05 4.11572e-05 -0.00281456)
(-0.00102694 0.000879148 -0.00351333)
(0.00108686 0.000737494 -0.0037056)
(6.39704e-06 0.000103383 -0.0043788)
(-0.000128541 -8.24372e-05 -0.00291695)
(-0.00112825 0.000977927 -0.00366002)
(0.00109211 0.00087886 -0.0037261)
(1.90532e-06 0.00011146 -0.00439991)
(-0.000143336 -9.93545e-05 -0.00292869)
(-0.00110108 0.000887379 -0.00361403)
(0.00108848 0.00100227 -0.00376987)
(9.36906e-06 0.000103889 -0.00438357)
(-0.00023496 -0.000229068 -0.00298393)
(-0.00105059 0.000736051 -0.00357064)
(0.000776082 0.00102348 -0.00399071)
(-0.000618326 -0.000354595 -0.0054517)
(0.000506455 0.00053361 -0.0040693)
(0.00038392 -0.0004652 -0.00397079)
(0.00113348 0.000497242 -0.00499247)
(-0.000532599 -0.00196339 -0.0048394)
(-0.000308257 -0.00106638 -0.00394124)
(0.000168424 0.000192825 -0.00298225)
(0.000682419 -0.000484578 -0.00429611)
(-0.00223269 0.00105582 -0.00403896)
(-0.000124337 -6.36469e-05 -0.00378204)
(-0.00130728 -0.00173076 -0.00382909)
(0.00113899 0.000913172 -0.00379973)
(0.00104921 -1.82266e-05 -0.00286139)
(0.00100136 -0.00108444 -0.00392093)
(0.00125711 -0.00107202 -0.00440109)
(0.000607949 -0.00155857 -0.00315571)
(0.000138113 0.000655881 -0.00421906)
(0.000485732 -0.000857137 -0.00324289)
(0.000734556 -0.000548852 -0.00336248)
(0.00121383 0.000953598 -0.0045426)
(-0.000565487 -0.0019782 -0.00430967)
(0.000116629 -0.000221915 -0.00348887)
(0.000900577 0.00139142 -0.00457201)
(-0.000775345 -0.0017129 -0.00443873)
(8.72732e-07 -4.39197e-05 -0.00358228)
(0.000788051 0.00149072 -0.00454372)
(-0.000798985 -0.00156856 -0.00449372)
(-1.0031e-05 3.4126e-06 -0.00359202)
(0.000764565 0.00150253 -0.00452887)
(-0.000781139 -0.001512 -0.00450851)
(-5.87512e-06 7.75351e-06 -0.00359802)
(0.000759814 0.00149572 -0.00451974)
(-0.000772871 -0.00149685 -0.00451308)
(-5.1518e-06 8.49054e-06 -0.00359532)
(0.000757383 0.00149471 -0.00451785)
(-0.000777798 -0.00149323 -0.00451317)
(-1.08817e-05 2.30287e-05 -0.00360207)
(0.000731805 0.00150256 -0.00450986)
(-0.000821083 -0.00148366 -0.00451558)
(-6.476e-05 9.19426e-05 -0.00354183)
(0.000621341 0.00154988 -0.00449518)
(-0.000950792 -0.00132936 -0.00445068)
(-0.000354111 0.000374048 -0.00345297)
(-1.53427e-05 0.00128945 -0.00428587)
(-0.00128075 -0.000720023 -0.0036365)
(-0.000792973 0.00136812 -0.00418424)
(0.000462655 0.00154521 -0.00396079)
(-0.00126185 -0.00191614 -0.00422754)
(0.00139607 0.0016352 -0.00491951)
(-0.0014817 -0.00192318 -0.00480654)
(4.15985e-05 4.4221e-05 -0.00360606)
(-0.00155271 0.000962399 -0.0046659)
(0.00160175 -0.00147247 -0.00356695)
(-2.43376e-05 0.00066486 -0.00447649)
(-0.000923597 0.000770782 -0.00410616)
(5.89816e-05 0.000834434 -0.00295956)
(0.000910286 0.00110701 -0.00379454)
(-0.000900488 0.000952087 -0.00392999)
(3.19016e-06 0.000669077 -0.00457644)
(5.31834e-06 0.00128905 -0.00374788)
(1.56213e-06 0.000767653 -0.00393693)
(1.25537e-06 -6.39301e-06 -0.00394205)
(1.93658e-06 -0.00011182 -0.00398321)
(1.7953e-06 -6.26633e-05 -0.00394791)
(5.98531e-07 -3.92901e-05 -0.00395808)
(1.31882e-06 -2.3727e-05 -0.0039447)
(3.4923e-06 -4.62454e-05 -0.00393633)
(5.09154e-06 -2.44039e-05 -0.00367418)
(1.53495e-05 6.89899e-06 -0.003566)
(2.24886e-06 2.47101e-05 -0.0034225)
(0.000245979 0.00114514 -0.0041484)
(-0.000258663 -0.00110982 -0.00415148)
(-7.45457e-06 3.14867e-08 -0.00366416)
(-1.84478e-06 1.94322e-06 -0.00365413)
(1.05211e-05 4.33817e-07 -0.00389535)
(1.14719e-06 1.09061e-07 -0.00396118)