/*--------------------------------*- C++ -*----------------------------------*\
| =========                 |                                                 |
| \\      /  F ield         | OpenFOAM: The Open Source CFD Toolbox           |
|  \\    /   O peration     | Version:  2306                                  |
|   \\  /    A nd           | Website:  www.openfoam.com                      |
|    \\/     M anipulation  |                                                 |
\*---------------------------------------------------------------------------*/
FoamFile
{
    version     2.0;
    format      ascii;
    arch        "LSB;label=32;scalar=64";
    class       volScalarField;
    location    "1.6";
    object      gradTx;
}
// * * * * * * * * * * * * * * * * * * * * * * * * * * * * * * * * * * * * * //

dimensions      [0 -1 0 1 0 0 0];

internalField   nonuniform List<scalar> 
5322
(
-0.0179131
0.00109242
0.0011347
-1.624e-05
-7.85064e-05
-6.42589e-05
-4.23805e-05
-2.71032e-05
-1.78751e-05
-1.00509e-05
-3.93654e-06
2.10872e-05
2.83817e-05
-0.00038094
-1.90383e-06
0.000750384
-0.000580883
1.64811e-05
-0.000498643
0.00053233
-0.000703119
0.00105145
-0.00110662
0.0018647
-0.00194512
0.00296895
-0.00299417
0.00469739
-0.00474208
0.00679395
-0.00645817
0.0100559
-0.00740275
0.0149597
0.00148836
0.0227233
0.0161289
-0.0063884
0.0176434
-0.0010576
-0.0167518
0.0167857
-0.00101578
-0.0178438
0.0177618
-0.000603425
-0.0189601
0.0167339
-0.000385674
-0.0199115
-0.0197974
-0.028374
-0.0094924
0.0177531
-0.00117495
-0.0289302
-0.000900254
0.0274705
-0.000330136
-0.0274625
-0.000117627
0.0267539
-0.000136644
-0.026973
3.47427e-05
0.0264071
0.000403916
-0.0267168
0.00145495
0.022068
0.00135337
-0.0206467
0.023461
-0.0241572
0.0232437
-0.0236817
0.0236987
-0.0237214
0.0270322
-0.0198826
0.00927587
-0.0147674
-0.0100458
0.0153727
0.00122682
-0.00643828
0.0113818
-0.0316077
-0.00966808
0.0342518
-0.0015674
0.000294741
0.000503837
0.00359127
0.0194496
-0.00371772
0.00044382
-0.00121017
0.0117073
-0.0278945
-0.0278231
0.0563158
-0.00123555
0.0150593
0.0246015
0.000717729
0.000292427
0.000204454
9.56594e-05
2.81107e-05
2.4046e-07
-8.34905e-06
-1.01063e-05
-9.14316e-06
2.25728e-06
-4.21231e-06
-0.000239161
-0.000226805
3.28299e-05
0.000137701
3.31736e-06
0.000198464
-0.000239344
-1.93264e-05
-6.45654e-05
0.000373245
0.00030098
7.63133e-05
0.000237809
0.000146629
0.000108578
0.000255781
0.000120774
0.000130414
0.000260094
0.000103707
0.000211483
0.000296058
0.000331469
1.34698e-05
-0.000250051
8.93991e-06
0.000175153
-0.000220043
-0.000244154
4.28067e-05
8.95482e-05
4.39388e-05
-0.000190371
-0.000210649
4.91451e-05
5.09202e-05
6.4842e-05
-0.000208686
-0.000194583
4.98042e-05
2.88105e-05
0.00010976
-0.000215708
0.000285143
-0.000665343
-0.000871555
0.0009546
-0.00135063
-7.48313e-05
-0.000728545
1.73941e-05
0.000630407
-0.000143348
0.000630984
0.00030945
0.000466064
-0.000799647
0.000289338
-0.000691643
0.000568853
0.000738796
-0.00112703
9.85074e-05
-0.000958508
0.00111663
0.00138934
-0.00192632
0.000112917
-0.00161608
0.00202764
0.00248073
-0.00329356
0.000191453
-0.00275206
0.00346294
0.00421346
-0.00543533
0.00030103
-0.00454349
0.00554354
0.0067666
-0.00860182
0.00044531
-0.00720419
0.00831968
0.0102568
-0.0130088
0.000639785
-0.0108758
0.0116859
0.0146517
-0.018524
0.000920401
-0.0152801
0.0150332
0.0187189
-0.00327376
0.0112033
-0.0276105
-0.0281609
0.0565556
-0.00247835
-0.00264103
0.000592734
0.00390475
0.0193699
-0.00271244
0.000640872
-0.00327984
0.0107533
-0.0280722
-0.0276945
0.0562092
-0.00164953
0.0150495
0.000419449
0.000464196
0.000242453
0.000125596
4.53494e-05
8.14756e-06
-5.19673e-06
-9.06156e-06
-8.4698e-06
2.13632e-06
-4.13846e-06
0.000185178
-0.000207951
0.000208999
-0.000184197
1.39949e-06
0.000183505
-0.000169025
4.46025e-07
-0.000198382
5.04691e-07
-0.000181836
5.78231e-07
0.000170424
6.85544e-06
0.000184303
-1.58566e-05
-0.000201309
7.68546e-08
0.00019873
7.4402e-08
3.47566e-07
0.000372656
-0.000716615
0.000717857
-0.00070591
0.000918052
-0.00119068
0.00163838
-0.00213673
0.00287156
-0.00369729
0.00484101
-0.00608895
0.00777991
-0.00950783
0.0118891
-0.0140367
0.0171823
-0.0192905
0.0230975
-0.0135672
0.000347835
0.013757
0.000402722
-0.0224858
0.0188052
0.000113878
-0.0166528
0.0137592
6.81514e-05
-0.0115171
0.00934279
4.0827e-05
-0.00753538
0.00598501
2.35842e-05
-0.00468748
0.00363302
1.39803e-05
-0.00277743
0.00210018
9.13904e-06
-0.00157985
0.00117747
5.95535e-06
-0.000881091
1.63203e-06
0.000884408
-0.0011726
-3.62088e-06
-0.00091377
0.000707467
-1.72083e-06
-0.000375083
-2.4498e-05
0.000379935
-0.000742746
0.000879294
-0.0011736
0.00155822
-0.00206691
0.00274634
-0.00355593
0.00464826
-0.005841
0.00750429
-0.00910049
0.0115539
-0.0133659
0.0168594
-0.0181091
0.0227423
-0.0134098
-0.00335133
0.00561478
0.000617883
-0.0211838
0.0165228
0.000124144
-0.0152244
0.012433
-6.32287e-05
-0.010196
0.00836463
-8.6748e-05
-0.00661687
0.00531475
-6.93701e-05
-0.00411779
0.00322563
-5.66077e-05
-0.00244076
0.00188117
-4.64427e-05
-0.00138698
0.00107279
-4.21816e-05
-0.000772906
0.000577574
3.87343e-06
-0.000188349
0.000309944
0.000515285
-3.04358e-05
5.10571e-05
-9.61882e-05
0.000297893
-0.000924376
0.000862425
-0.00136246
-0.000917861
-0.00114737
0.000103034
0.000600718
0.000670753
-0.000783707
0.000277002
-0.000691165
-7.03563e-05
1.87911e-05
-0.000252381
1.955e-05
-1.10373e-05
-0.000257312
-8.19923e-06
-6.79897e-05
-0.000713191
-0.000774121
0.000689398
-0.00111567
-5.96085e-05
0.00134452
-0.0019138
0.00243721
-0.00327717
-0.000213402
0.00416642
-0.00541554
0.00670239
-0.00857763
-9.95032e-05
0.0101462
-0.012921
0.0143995
-0.0181333
0.00375916
0.00058505
9.87407e-05
0.000137011
-0.000152796
-7.40943e-05
0.0105304
-0.0132663
0.000729311
-0.0107611
0.0108778
0.0150482
-0.0182038
0.00116024
-0.0160108
0.0133269
0.0267859
-0.00210143
0.00145117
-0.0302851
-0.0281677
0.0538224
-0.00368594
0.000503744
0.000922884
-0.0124568
0.0023917
0.00692602
-0.00720455
0.000454614
0.00513098
-0.00455724
5.2343e-06
0.00323027
-0.00298168
-4.736e-05
0.00186952
-0.00179402
-7.18447e-05
0.00114903
-0.00102349
-7.83305e-05
0.000693371
-0.000491686
-7.23833e-05
0.000517502
0.000173923
0.000119984
-1.6946e-05
-8.30004e-06
0.000299089
-0.000124675
0.00166586
-0.002325
0.0030261
-0.00399011
-0.00257622
-0.00336673
0.000195393
0.00199101
0.00250365
-0.00196323
0.000115675
-0.00150749
-9.50093e-05
-4.74047e-05
-1.72328e-05
-4.01681e-05
-6.94313e-05
6.63154e-05
3.75617e-05
-3.6054e-05
-0.000343036
-0.000109781
0.000317536
0.000441044
0.000378533
0.000135387
0.000659153
0.000230329
0.000251017
0.000245535
-0.000243969
-0.000580727
-0.000915464
-0.000464887
0.000314744
-0.000314125
5.2235e-05
0.000645737
-0.00057449
0.00516909
-0.00659664
0.00835211
-0.0105262
-0.0068813
-0.00883631
0.000473824
0.00533121
0.00692453
-0.00557227
0.000311562
-0.00428196
-0.00017609
-6.59995e-05
-6.87755e-05
-9.20201e-05
-0.000226133
-7.54506e-06
-6.31188e-05
-0.00014376
2.39241e-06
-2.05762e-05
0.000428552
2.84811e-05
-6.53658e-05
-7.04153e-06
1.42268e-05
5.60866e-06
-1.89914e-05
3.92809e-05
-0.000455696
-3.4743e-05
-1.79436e-05
-5.34962e-06
-6.3086e-06
0.00119666
6.70653e-06
-0.00163086
0.00158777
-0.00208878
-2.51576e-06
0.00215202
1.51144e-05
-0.0028582
0.00279588
-0.00360944
2.51509e-06
0.00373022
2.71493e-05
-0.00481655
0.00472698
-0.00593925
1.29867e-05
0.00615481
4.73566e-05
-0.00773916
0.00761299
-0.00925993
3.41257e-05
0.00963042
7.20632e-05
-0.0118269
0.0116519
-0.0136225
7.52231e-05
0.0142187
5.09954e-05
-0.0170744
0.0168266
-0.018633
0.000123965
0.0193782
-0.000145234
-0.022882
0.0225612
-0.0136394
-3.23606e-05
0.0135247
-0.000961011
-0.00229631
-0.00177599
-0.00277805
-0.0274151
0.00568193
0.00363724
-0.00210177
-0.00421464
-0.00134003
-0.0214227
0.00493947
-0.00898973
-0.0119982
-0.00220304
-0.00360747
-0.00475321
-0.00251569
-0.00135056
0.000642446
-0.000747623
-0.00146412
-0.00135757
-0.000845191
-0.000555473
-0.000354428
-0.000110283
0.000379575
0.000382995
0.000388316
0.000446349
0.000606102
0.000579264
0.000413478
0.000416597
0.00028891
-0.000253822
7.89525e-05
-2.87744e-05
-1.99307e-05
7.17354e-05
-0.000221104
-4.62447e-07
-9.62393e-08
-3.74093e-07
6.52669e-07
-0.000141198
-0.000163449
-0.000162809
-0.000142117
0.000142555
-0.000114806
6.05911e-06
0.000165194
-0.000136044
-0.00013587
6.21682e-06
0.000163905
5.84212e-07
1.29643e-06
1.41453e-06
1.26188e-06
-7.88973e-06
4.01485e-06
-2.98029e-06
-1.66371e-06
4.82599e-06
2.11041e-05
5.58123e-05
1.88831e-05
-7.5319e-05
-0.000413004
0.000180827
-0.000242568
0.00142181
-0.00198663
0.0129665
-0.0160058
0.0194287
-0.000152455
-0.00552038
-0.00107727
0.00153876
6.70652e-05
0.000547767
0.00083263
-0.00234159
-0.00429184
-0.00838677
-0.0195334
-0.0201213
-0.0455717
-0.0182616
-0.015541
-0.000244183
-0.00598464
0.00565345
-0.0403503
-0.0246414
-0.012001
0.0175952
0.00140829
0.000742761
-0.0179578
0.018907
0.000129179
-0.00235141
-0.0195844
0.0189651
3.86018e-05
-0.00259816
-0.0191246
0.0189092
0.000151213
-0.00416589
-0.0182594
0.0134991
-0.0116702
0.0101905
0.00777694
0.0219669
-0.0103325
-0.00572849
0.00322749
0.0123948
-0.0374779
-0.0018051
-0.0217486
0.0212791
0.0205347
0.0188013
0.0237794
0.0104531
0.00160462
0.00858418
0.0124871
0.0195441
-0.00653924
0.00169718
0.0111362
-0.00686165
0.00012178
0.00698279
-0.00487335
1.06077e-05
0.0045894
-0.00308256
2.50972e-05
0.00294862
-0.00187516
2.14673e-05
0.00181006
-0.00110771
6.59195e-06
0.00103885
-0.000675768
-3.2768e-05
0.000529057
-0.000487886
-0.000161302
4.49513e-05
-0.000513947
-0.000314576
0.000190956
-0.000576018
0.000785585
-0.00106393
4.27211e-05
-0.000878225
0.000742901
-1.65891e-06
-0.000378237
2.51651e-05
0.000376086
-0.000371463
2.96488e-06
3.70787e-06
1.5572e-06
2.09851e-06
4.71648e-06
8.81643e-06
2.67094e-05
4.59468e-05
8.12916e-05
-0.000313714
8.49007e-06
-0.000129957
0.000994325
-0.00101346
9.90891e-05
8.68003e-05
0.000448224
0.000468339
0.00334809
0.00429472
-0.000211997
-0.00274539
0.00346992
0.0003023
-0.004537
0.00554049
0.000449061
-0.00722172
0.00829383
0.000648431
-0.0110014
0.0116131
0.000923268
-0.0156853
0.000497489
0.000815533
-0.00247856
-0.00247834
-0.00792588
-0.00401842
-0.00226093
-0.00134398
-0.000848024
-0.000563692
-0.000360635
-0.000116875
0.000371755
0.000370386
0.000371967
0.000579367
0.000356698
-0.000117645
-0.00035904
-0.000578787
-0.000883119
-0.001382
-0.00227619
-0.00400521
-0.00766621
-0.0177517
-0.0185603
-0.0318485
-0.0259191
-0.00868504
-0.00864121
0.0159936
0.00168668
-0.00199654
-0.00159318
0.00746149
0.000250441
-0.00607996
-0.00580693
0.00594722
-9.89707e-06
-0.00666121
-0.00636378
0.00524842
6.67169e-06
-0.00827263
-0.00788488
0.00263739
-0.0115433
0.00803296
0.00780107
0.0081465
0.00713413
-0.00983894
0.000760791
0.0034947
-0.0114823
0.0026216
-0.0106849
0.0122435
-0.0265249
-0.00109654
-0.0255368
0.0196847
0.0210935
0.0202633
0.019869
0.0204093
0.0197713
-0.0276553
-0.00133458
-0.0249409
0.015697
0.0168462
0.0157651
0.0166362
-0.00110052
-0.0266124
-0.0264325
0.012278
0.0203076
0.0188524
0.0178477
0.022279
0.0222033
0.0172246
0.00491642
0.0101787
0.00431154
-0.00240133
0.00381116
0.000890388
-0.00280171
0.00200536
0.000303868
-0.00208002
0.00135183
0.00019962
-0.00144887
0.000861111
0.000117452
-0.000928283
0.000555292
9.2373e-05
-0.000583018
0.00031087
3.47812e-05
-0.000356369
0.000163994
-4.70566e-06
-0.000251344
4.5664e-05
-0.000107747
-0.000284586
-0.000126359
-0.000370901
-0.000449383
-0.000443716
-0.0002982
-0.000212289
-0.000332377
-1.31005e-05
0.000250709
-0.000184936
1.92836e-05
0.000205976
-0.000204375
8.91621e-06
0.000213942
-0.00022015
-8.11674e-06
-1.65004e-05
-0.000403647
-1.74943e-06
-0.00073427
1.46394e-06
-0.000893368
7.57692e-06
0.00119054
-0.00120517
-1.41881e-06
-0.00156485
5.14654e-05
0.0020851
-0.00188767
6.71865e-05
0.00248281
5.86401e-05
-0.00323664
0.00010251
0.00416882
7.93165e-05
-0.00530898
0.00014944
0.00665542
6.94111e-05
-0.00826904
0.000199679
0.0100769
7.58206e-05
-0.0122007
0.0002715
0.0144884
-8.61854e-05
-0.0168751
0.000462288
0.0195638
-0.000146295
-0.000665128
-0.0244408
-0.0177107
0.00078329
0.0195152
-0.00031921
-0.0177941
-0.0123547
0.000638092
0.0145049
-0.000193406
-0.0123288
-0.00848253
0.000401302
0.00992775
-0.000138959
-0.00811624
-0.00555864
0.000262199
0.00641549
-7.91797e-05
-0.00504784
-0.00346291
0.000163616
0.00392067
-5.13847e-05
-0.00297432
-0.00204708
8.49528e-05
0.00230175
-2.06617e-05
-0.00164544
-0.00115586
4.22135e-05
0.00135265
1.11092e-05
-0.000856526
-0.00061355
6.55096e-05
0.000918831
9.9558e-05
-5.62865e-05
0.000191002
-0.000314904
-0.000515088
4.56798e-05
-0.000163603
3.94217e-05
0.00046472
-3.71779e-05
7.80403e-06
-0.000382749
3.25479e-06
0.00073589
-0.000716381
-6.29609e-07
-0.000883629
4.3628e-05
-0.00107646
3.83284e-05
0.00141695
6.62071e-05
1.55286e-05
1.01183e-05
1.15976e-05
0.000929315
1.04509e-05
-5.54655e-06
-0.000169405
-1.34862e-07
0.000187595
1.14118e-06
9.92428e-07
1.06912e-06
-2.87612e-05
-3.35255e-05
-2.42463e-05
-0.000251577
-9.92623e-06
-6.68109e-05
-5.35976e-05
-5.2088e-05
-5.97431e-05
0.00136656
0.00112908
-5.20735e-05
0.00016267
6.12353e-05
4.97119e-05
0.000607255
9.98417e-05
-0.00096535
0.00114186
0.000112835
-0.00161546
0.00204364
0.00019116
1.2815e-05
-0.000106334
-0.00012443
-0.000164575
-0.000203678
-0.000252978
-0.000213626
-0.000169773
-0.000109141
-0.00012343
-0.000106244
-5.47318e-05
-6.3597e-05
-0.00094298
0.0011162
0.00179623
-0.0023057
0.00316684
-0.00394885
-8.89447e-05
-0.0023845
1.43496e-05
0.00193584
-6.8529e-05
-0.00136032
-1.86261e-05
0.00115255
-6.51454e-05
-7.04663e-06
-0.00104604
-7.36028e-05
0.00134654
-0.00149915
5.61145e-06
-0.00326408
-2.47793e-05
0.00418181
-0.00369196
9.12634e-06
-0.00481419
8.10249e-06
0.006115
-0.00603227
3.13105e-06
-0.00753898
8.28671e-06
0.00932086
-0.00958512
-3.0733e-05
-0.0111977
9.28832e-05
0.0134171
-0.0160061
6.08785e-07
0.0185547
-0.02121
-0.000233028
-0.000626951
-0.000103801
-1.90718e-05
2.36242e-05
2.91974e-05
2.44347e-05
1.8688e-05
1.30692e-05
-7.05407e-08
4.8411e-06
-0.000184037
0.000210315
-0.00020652
-0.0001855
1.75742e-06
2.25003e-06
-7.0761e-06
1.0423e-05
0.000174821
1.0719e-06
-1.93091e-06
-1.58296e-05
1.8942e-05
-1.85185e-05
-0.000245343
-9.51039e-06
-7.77842e-05
0.000537499
0.000104368
-1.89558e-05
-1.13916e-05
4.10547e-06
-1.90475e-06
0.000135777
0.000138487
-4.31365e-06
0.000114555
0.000185608
-3.42983e-06
-4.41741e-06
-4.65853e-06
-3.00004e-05
-5.5528e-07
-0.0002052
0.00070146
2.83071e-05
-0.00107149
-1.29537e-05
0.0013707
-0.00121444
-3.02656e-06
-0.00164084
2.00835e-06
-0.00212652
6.17822e-07
-0.00280759
1.2544e-05
0.00365698
-0.00374388
-8.11863e-06
-0.00462751
8.61946e-05
0.0058761
-0.00739487
9.82746e-05
0.00912932
1.33097e-06
1.19242e-05
1.2806e-05
1.10617e-05
7.76386e-06
8.53157e-06
1.53183e-06
4.47459e-07
-5.75792e-06
-7.60892e-06
-1.09563e-05
-2.05458e-05
-4.80322e-06
-5.52005e-06
2.96186e-06
2.94212e-06
3.85679e-06
6.2667e-06
7.76428e-06
1.25136e-05
1.41376e-05
1.53163e-05
2.48765e-05
3.32782e-05
0.000140447
0.000200784
-0.000599772
0.000200585
-0.000990667
0.00367014
-0.0231938
-0.00636093
0.000198406
-0.00211747
0.0110007
-0.0109209
-0.0330363
-0.0129015
-1.20278e-05
0.00331594
0.000297152
-0.0261012
-0.0114776
-0.00775157
0.0152127
0.00166556
-0.00172794
-0.00289373
0.00809909
0.000252488
-0.0056732
-0.00697931
0.00696449
1.02916e-05
-0.00622164
-0.00731895
0.00648634
5.95642e-05
-0.00798518
-0.00830812
0.00156241
-0.000451375
7.76252e-05
8.09175e-05
0.0185827
-0.0168383
0.000283045
0.0148312
-0.000435619
0.000252922
-0.0187438
0.000467497
-0.011583
0.0137354
0.000233713
-0.0153787
-0.0269801
0.0199052
-0.00160382
0.00265709
0.00889965
-0.000200891
0.0212793
0.0155565
0.0174606
-0.0206873
0.000768702
-0.0174727
-0.000347833
-0.0193264
0.000935589
-0.01852
-0.000355582
-0.0186193
0.000974302
-0.0198906
0.0162347
0.0159156
-0.00106373
-0.0322478
-0.0259007
0.0121299
-0.00861849
0.0120295
0.00693305
0.0081674
-0.0105632
0.00292135
0.00225938
-0.0118118
0.00441472
0.008013
-0.00996923
0.0168758
-0.00902532
0.00146672
-0.00878811
0.00136346
-0.00946919
-0.00740492
0.00127175
-0.000616359
-9.85034e-05
-5.04497e-05
1.42885e-05
4.22274e-05
3.79074e-05
2.79018e-05
1.97806e-05
1.33585e-05
-1.01652e-07
5.06299e-06
-0.000115076
0.000143269
1.60216e-06
2.78395e-05
1.97721e-05
1.61548e-05
-0.000184501
-8.35805e-06
0.00022169
-0.000173728
-9.02954e-05
0.000221104
-0.00021223
-0.000299527
-0.000333544
0.000254631
0.000250868
-1.34039e-05
-1.97259e-05
-7.06399e-05
9.61703e-06
0.00025919
-3.99574e-05
-5.52276e-05
-4.6434e-05
0.000209782
0.000210496
-5.6111e-05
-3.89304e-05
0.000255543
-0.000118208
-0.000269901
-0.000119096
0.00025504
1.1545e-05
8.73481e-06
-1.84624e-05
1.56144e-05
4.05786e-05
0.000466226
-3.79152e-05
2.14535e-05
-1.96658e-06
-6.31638e-06
-1.16141e-05
-1.85772e-05
-3.19075e-05
-6.09379e-05
-0.000118007
1.93459e-05
-5.13607e-05
0.000110777
-0.000738461
-0.000204426
0.000811815
-0.00142238
-0.00050071
-0.000523175
-0.0156888
0.0150737
-0.000447708
-0.000343371
0.000991261
-0.000684855
-0.000358201
0.0027477
0.0049929
0.00266293
0.0148104
-0.00687715
0.00171963
0.0110478
0.0124233
-0.00356309
0.00127409
-0.00014718
0.000776781
-0.000184965
5.72357e-05
-0.00122812
-7.33398e-05
6.03451e-05
2.15792e-05
3.53617e-06
-2.34363e-06
8.44888e-06
-8.34218e-07
7.12187e-06
7.93759e-06
9.75228e-06
7.69473e-05
0.000151675
0.000241455
0.000350816
0.000483445
0.000705249
0.000383548
0.000114469
0.00021974
0.000125532
5.56687e-05
2.40749e-05
1.76345e-05
9.25236e-06
1.96602e-05
1.59736e-05
-0.00155347
0.00140392
-0.00186307
0.00245553
-0.00319647
6.89877e-05
-0.00272753
0.00207022
5.06767e-05
1.09479e-05
8.16742e-06
5.76028e-07
0.00117546
9.97051e-06
-5.81955e-06
0.000201901
-9.53299e-07
8.66131e-06
2.31897e-05
-4.02137e-05
0.000244383
0.000191412
-7.71174e-05
3.17768e-05
-3.46693e-07
-2.37148e-07
0.000117421
-4.11709e-06
-1.87131e-07
8.09438e-05
-0.000253577
7.09994e-05
1.4424e-06
2.8968e-05
2.09096e-05
2.29644e-06
-1.95197e-05
1.01319e-05
2.02446e-05
-7.72595e-05
-7.09701e-05
0.000245343
-9.09664e-05
-0.00017304
-4.07869e-05
0.000223046
-8.06173e-06
2.31357e-05
1.37949e-05
-2.45932e-06
2.55331e-06
9.31983e-06
1.39141e-05
5.27735e-05
1.80329e-05
3.75371e-05
5.17267e-05
6.62292e-05
1.2666e-05
-4.7781e-07
1.79701e-05
-1.04118e-06
0.00356475
-0.00460063
0.00412856
-0.00525879
0.00661682
-0.00823981
0.000154541
-0.00739274
0.00585973
0.000101339
1.04008e-05
8.75248e-05
0.000100812
0.000132603
0.000134772
2.59298e-05
-2.01249e-06
2.2927e-05
2.32809e-05
3.69198e-05
3.06711e-05
4.40366e-05
0.000103976
0.00029332
0.000163266
0.0010079
0.000124256
5.26802e-05
2.01177e-05
4.12527e-06
-4.19889e-06
-1.23366e-06
-1.86464e-06
6.23512e-06
3.68743e-06
2.33414e-06
1.20744e-05
1.35729e-05
1.02349e-05
-6.15309e-06
-9.29913e-06
1.23202e-06
2.43713e-07
-2.45628e-06
2.62649e-06
5.39562e-06
9.94996e-06
1.68653e-05
2.17114e-05
3.26938e-05
2.62468e-05
3.37009e-05
6.44095e-05
5.52309e-05
3.87178e-05
9.53131e-05
0.000248203
8.53882e-05
8.92701e-05
0.00344716
-0.000595038
0.000381882
7.39391e-05
0.000256406
0.00732167
-0.00028715
-0.00106327
0.00595686
0.00206023
-0.0260233
-0.00951882
-0.0163508
0.0162465
-0.0115844
-0.0124326
0.0146818
-0.0174763
-0.000947562
-0.00131054
-0.0166704
0.0149248
-0.000128714
-0.000735518
-3.19986e-05
0.0002873
0.000390266
0.006304
0.00220372
-0.0114905
-0.0106363
0.0178239
0.00160862
-0.00420634
-0.00129083
0.00697279
0.000178421
-0.00812981
-0.00528463
0.00530797
-1.79498e-05
-0.00845361
-0.00580735
0.00465827
-4.14772e-05
0.00741375
0.0071966
0.000416263
0.0100985
-0.00987743
8.05669e-05
-0.00784455
-6.00832e-05
-0.000138839
-2.05409e-05
7.36227e-06
1.5671e-05
1.28025e-05
8.38286e-06
4.93635e-06
2.46753e-06
-1.18704e-06
-5.1749e-06
0.000117468
-0.00159195
0.00204248
0.000194234
-0.00271941
0.00348827
0.00533164
-0.00651593
0.00852913
-0.0103031
-0.000157169
-0.00655716
0.000124903
0.00540192
-0.00012472
-0.00403657
5.25834e-05
0.00329554
-0.000361564
-0.000252472
-0.00315311
-0.000159402
0.00377815
-0.00425188
3.33061e-05
-0.00872281
-2.18472e-05
0.0107609
-0.0094058
2.54133e-05
-0.0115767
2.74981e-05
-0.0137854
-2.43515e-05
-0.0162141
-5.10064e-05
0.0187916
-0.0195182
-1.4766e-05
0.0217002
-5.07465e-05
-0.0213459
0.0212702
-6.56654e-05
-0.0190131
0.0192252
-0.0215454
-1.26367e-05
2.16362e-05
0.00011494
8.16977e-05
3.57569e-05
1.17765e-05
1.54702e-06
-2.9561e-06
-5.57429e-05
-7.88189e-05
-0.000163227
-0.000205861
-0.000207204
-0.000254357
-0.00449297
0.00558532
0.000454681
-0.00712167
0.00839752
0.0129431
-0.015629
0.0185737
-0.022388
0.00035833
-0.0165924
0.0016128
0.0125052
-0.000122037
-0.0104116
0.000405701
0.00846332
-0.000753694
-0.000383816
-0.00754232
-0.00011359
0.00917839
-0.0100034
0.00012289
-0.0188137
7.68186e-05
0.0221821
-0.018982
-5.43469e-05
0.0215313
0.000148568
-0.0245249
0.0143884
-2.68923e-06
-0.0143765
0.0124851
-0.0162595
0.000458429
-0.00294372
-0.00146241
-0.00244136
-0.00406502
0.0166282
-0.0265573
0.00565372
-0.00626792
-0.00298422
-0.00167791
-0.00105474
-0.000687834
-0.000438285
-0.000236059
4.06982e-05
0.00118956
0.000545239
-0.000281669
0.000191739
7.7211e-05
0.000700619
-0.000620386
0.00059383
-3.66911e-05
-0.000394832
1.54947e-05
0.000791253
-0.00076194
-4.57166e-06
-0.000926298
7.51837e-07
-0.00119252
-1.20817e-07
-0.0015988
1.07681e-05
0.00211899
-0.00216449
-4.48304e-06
-0.00274823
6.4897e-05
0.00358587
1.65803e-05
7.11921e-06
0.00290028
9.4999e-06
0.00165774
-1.75557e-06
-2.93271e-06
-1.035e-05
-3.55703e-05
2.124e-06
0.000393882
2.4309e-05
2.14611e-05
0.00014005
0.000247304
-0.000482505
-4.19863e-05
-0.000857211
6.44126e-06
-0.001876
-1.98626e-05
0.0024244
-0.00214446
2.75495e-06
-0.00286829
3.96294e-06
-0.00367287
2.51099e-06
-0.00472217
1.29361e-05
0.00600152
-0.00615487
-1.55485e-05
0.00775427
-4.59296e-06
4.03079e-06
0.00486679
-1.17322e-07
1.72991e-05
7.13046e-06
-3.40438e-06
0.00161725
-1.25591e-05
0.000913998
5.64927e-05
-3.82532e-05
0.000823132
-1.93598e-05
5.60555e-05
-0.000124656
0.00115222
-8.30122e-05
-0.000146548
-0.00187887
-0.000115661
-0.00258512
1.43298e-05
-0.00546985
-2.80175e-05
0.00688284
-0.00605533
1.76575e-05
-0.00767524
1.59223e-05
-0.00937856
-2.90539e-06
-0.0113884
-1.01608e-05
0.0136745
-0.014122
-5.07414e-05
0.0165899
-3.26902e-05
-3.38569e-06
1.28427e-05
1.73518e-05
3.17152e-05
2.51846e-05
1.86768e-05
1.19921e-05
9.81895e-06
1.00509e-05
1.47709e-05
1.00168e-05
0.000110991
0.000184944
0.000275539
9.07904e-06
3.25183e-05
2.27686e-05
1.93951e-05
1.35889e-05
-5.93731e-07
4.79948e-06
-0.000105658
-0.00125118
5.2736e-05
-0.00122354
0.00178487
0.000115463
-0.00221756
-0.00227157
0.00181813
0.0016999
0.000112569
-0.0021181
-0.00242273
0.00192651
-0.00132397
5.02155e-05
-0.00118315
0.00101335
0.00106632
0.00105148
0.00102528
5.26723e-05
-0.00130029
-0.00121004
-0.000105732
0.00172842
0.000115469
-0.00237727
-0.00217098
-0.000178136
0.00291911
0.000220845
-0.00407618
-0.00370094
-0.0037972
-0.00389109
0.000224369
0.00301954
0.0030814
-0.000177212
0.00286555
0.000218634
-0.00360887
-0.00415502
0.0032758
-0.000183165
-0.00199877
-0.00299023
7.95028e-05
0.00155602
-0.000110591
-0.0011302
-0.00165711
3.71349e-05
0.000949895
0.0011298
-0.000650386
6.2846e-05
-0.000631254
-9.68743e-05
-0.000641854
6.26054e-05
-0.000630357
-9.68019e-05
-0.000642501
6.44872e-05
-0.000640539
0.00111532
0.000958879
-0.00010122
-5.5783e-05
0.000119596
-0.000376143
-0.000388988
-0.000380369
-0.000423948
-0.00040325
-0.000406703
-0.000403775
-0.000383844
-0.000581969
-0.000420205
-0.000382459
-0.000388392
-0.000260839
-0.000103147
-0.000131361
0.000255171
-0.000286693
0.000734852
0.00074372
0.000738484
0.000738975
0.000766949
0.000707054
-0.000275088
0.000222089
-0.000102329
-0.000260723
-0.000132089
0.000259106
9.1103e-06
5.32049e-05
5.4072e-05
0.000113412
0.000188529
-7.68579e-06
-0.000277041
0.00500599
0.000361919
-0.00612529
-0.00627945
-0.00580623
-0.00670903
0.00034955
0.00465497
0.00533678
-0.000283784
-0.00338004
-0.00508807
0.000158814
0.00262858
0.00394225
-4.18672e-05
0.000344972
-0.00059726
8.67608e-05
0.000585961
-0.000969676
0.000132988
0.000960626
-0.00147344
0.000240307
0.00165526
-0.00196636
0.000719397
0.00350814
0.000534858
0.00196002
-0.000561743
0.00105782
-0.000556114
0.000714823
-0.000405996
0.000490061
-0.000273026
0.000308278
4.51925e-05
-0.000359564
0.00231054
-1.82958e-05
0.000183501
-0.000250525
2.75586e-08
0.000106154
-0.000194685
-0.000214157
5.82701e-05
1.26121e-05
-0.000862833
6.24591e-05
-0.000602321
-0.000101513
-5.45417e-05
0.000129794
-0.000298565
-0.00044421
-0.00044674
-0.000372026
-0.000124454
-0.000286166
-0.000105685
-0.000191313
-0.000653213
0.000100393
0.000920834
0.000704445
0.000772159
-0.000274768
-0.0006068
-0.000374894
0.000121859
0.000383478
0.000379764
0.000615782
0.000905741
0.00128025
0.000256497
-0.00541688
-0.00821155
0.00645399
0.00429289
-0.000436348
-0.000274046
-0.000147715
-0.000129366
0.000583887
0.00082161
0.00112076
-0.000632069
-0.000411444
0.00823942
0.00050686
-0.00882651
-0.0102578
-0.00818608
-0.0126488
0.000367822
0.00670013
0.0100534
-6.71254e-05
0.000121281
5.6488e-05
3.63074e-05
6.87124e-05
0.000122837
-0.01131
0.0101173
-0.0122398
6.01748e-05
0.00028405
0.000191077
0.000142911
3.44526e-05
-4.45479e-06
0.00914242
3.83539e-05
1.79417e-06
0.0134927
0.000231595
-4.45028e-06
0.00037641
0.000472483
-7.5906e-05
1.19752e-05
3.58258e-05
1.62161e-05
2.43131e-05
-2.18182e-05
2.82625e-05
2.39592e-05
3.9883e-05
5.3069e-06
3.18786e-05
2.82056e-05
1.09832e-05
9.77976e-07
2.05013e-06
1.19674e-06
1.18764e-05
0.000304823
0.000517788
0.000332302
0.000265806
0.000268233
0.000297603
0.000143445
0.00014313
4.85412e-05
9.29247e-05
0.000659379
0.000191027
0.00042437
0.00041941
0.000578453
0.000584556
0.000666736
0.000657954
0.000661792
0.00088994
0.000728468
-0.0107451
0.0118312
0.000990386
-0.0149454
0.000789704
0.00056481
-0.00242553
-0.00331639
-0.0216475
-0.0229755
-0.0383224
0.00969945
0.00319259
0.0179749
-0.00652496
0.0104381
-0.00115284
-0.0117479
0.0106578
-0.0002436
0.00731012
-0.000263745
0.0100209
-0.0110119
-0.000894305
-0.000276909
-0.000332629
0.000138189
-0.00116596
0.00762048
-0.00032843
0.000435556
0.000239647
0.000120496
0.000142835
6.81861e-05
6.13206e-05
-0.000172932
-0.000177121
-0.000119099
6.54092e-05
0.000639378
8.4542e-05
-6.29077e-05
-9.23712e-05
0.00531777
-0.00666065
7.18408e-05
-0.0131921
9.88265e-06
0.0159665
-0.0138032
1.77938e-05
-0.0164436
2.89996e-05
0.0162698
-3.94675e-06
8.81691e-06
1.68059e-05
3.52439e-05
8.62066e-05
0.000669628
0.000131403
4.35606e-05
1.96164e-05
7.11401e-06
7.23839e-06
6.74361e-06
4.29333e-06
2.35942e-06
0.00161794
3.82882e-06
0.00215101
1.56423e-06
0.00119993
0.000905043
2.52975e-06
0.000731608
0.000393364
1.03149e-05
1.38135e-06
-7.73701e-07
7.05624e-06
4.24901e-06
0.00283471
7.24358e-05
-0.000203388
0.00228438
-0.000137063
0.000107381
-0.000298123
0.00332837
-0.000184082
-0.00034593
-0.00501001
-0.000176346
0.00601998
-0.000412771
-0.000228855
0.000241502
0.000163016
1.5769e-05
0.00476984
1.22857e-05
0.00476912
2.9449e-05
4.24987e-05
0.00762582
2.19143e-05
0.00951464
4.03871e-05
0.000107636
0.0115472
-0.000613439
0.00805488
-0.000411611
-0.000517243
-0.0110749
0.000106409
0.011435
-0.00116898
0.000277508
-0.000225179
-0.00212328
-0.00560237
-5.50586e-05
-0.000874561
-0.000369725
0.000228924
0.000228654
0.0164719
3.46606e-05
-1.64979e-05
-6.08065e-05
-7.34502e-05
-0.000333817
-1.3855e-05
4.65468e-05
3.71541e-05
0.0139856
0.0114697
-1.00905e-05
-1.18885e-06
-3.79131e-05
-9.72195e-05
-0.000131165
-0.000578133
-0.000194838
-0.000179233
-8.27809e-05
-2.79014e-05
0.0116867
-2.91191e-05
4.97901e-06
1.30184e-05
0.000242351
0.00015081
7.68152e-05
-3.36235e-05
-7.2935e-06
0.000354095
0.000487843
0.000685492
-6.6019e-05
0.000287989
0.000250671
-0.000478095
0.00231941
0.00526648
-0.00358414
0.0234839
0.00204492
0.00121138
0.000382266
0.0011321
0.00130733
0.00109398
0.000813337
0.000578512
0.000379267
0.000385966
0.000124275
-4.41292e-05
-4.45998e-05
-0.000581776
-0.000286808
-0.000606538
-0.000299917
0.000126802
0.000374334
-0.000149458
-0.000110828
0.00157899
0.00189597
0.000110998
4.44867e-06
9.32508e-06
9.14635e-06
9.50423e-06
1.05902e-05
1.84885e-05
-1.80676e-05
0.000253798
0.000790211
5.91987e-05
5.19569e-05
7.43949e-06
-1.5224e-06
1.2205e-05
1.19264e-05
1.4607e-05
1.61547e-05
-1.00716e-05
0.000183596
0.000271753
0.000280643
0.000383215
-6.23851e-05
-0.000571459
-0.00959662
0.000538537
-0.00933842
0.0108152
0.000804078
-0.0134833
-0.0139449
0.01112
0.0104108
0.000717498
-0.0127044
-0.0149185
0.0119198
-0.000579777
0.00995002
0.0148071
2.96351e-06
8.64333e-05
-0.000874161
0.00173699
0.00223228
0.00266032
0.00529349
0.0060747
0.0129721
0.0303897
0.00382473
0.0159159
0.0235982
-0.00207228
-0.00122443
0.00143642
0.00141001
-0.000793635
-0.000573002
0.00718519
0.00770511
0.00753034
0.00730402
0.000529674
-0.0100238
-0.00911662
-0.00058026
0.0105828
0.000804348
-0.0144776
-0.0132918
-0.000811855
0.0142234
0.0151648
0.0134667
-0.000790107
-0.000149011
-0.000212243
-1.63791e-05
2.17209e-05
9.43313e-05
2.19357e-05
2.18361e-05
-3.04236e-05
-1.19131e-05
-0.000213155
0.0021543
-0.000243418
-0.000147568
-0.000331942
-0.000297895
-0.000185903
-0.000315341
-0.000143378
0.00574708
-0.000175881
0.000103491
2.55522e-05
9.43058e-06
0.000233597
0.000203237
-0.0026009
0.0130606
-0.00681181
-0.0239872
-0.0279959
0.00242379
-0.0133516
0.00567247
0.00183985
-0.00828006
-0.00921457
-0.000909824
-0.00133841
0.00874902
0.00811218
-0.000819715
-0.00797007
-0.000172115
0.00789793
-2.35864e-05
8.1396e-05
-2.09288e-06
7.77389e-05
0.000279857
0.000291023
0.00018556
4.52374e-05
3.24925e-05
-5.56644e-05
-5.17698e-05
3.43347e-06
-7.40792e-05
-2.75658e-05
-9.51698e-06
0.000371379
0.000478203
0.000481461
-0.000194084
0.000584669
0.00052986
-0.000285351
0.0202741
-0.00116424
0.00131138
-0.0224884
0.000527666
0.00028343
0.00299541
0.000360028
0.000606559
0.00194112
-0.000157882
-2.68022e-05
-0.000138999
0.000573718
0.00509696
-0.000341523
-0.000230274
-0.000142209
9.79066e-05
-0.0141626
0.0162184
-0.000614879
-7.1309e-06
-0.000765233
-0.00173063
-0.00192953