/*--------------------------------*- C++ -*----------------------------------*\
| =========                 |                                                 |
| \\      /  F ield         | OpenFOAM: The Open Source CFD Toolbox           |
|  \\    /   O peration     | Version:  2306                                  |
|   \\  /    A nd           | Website:  www.openfoam.com                      |
|    \\/     M anipulation  |                                                 |
\*---------------------------------------------------------------------------*/
FoamFile
{
    version     2.0;
    format      ascii;
    arch        "LSB;label=32;scalar=64";
    class       volScalarField;
    location    "1.6";
    object      gradTy;
}
// * * * * * * * * * * * * * * * * * * * * * * * * * * * * * * * * * * * * * //

dimensions      [0 -1 0 1 0 0 0];

internalField   nonuniform List<scalar> 
5322
(
0.0455516
0.00565501
0.00164714
0.000872584
0.00141922
0.001451
0.00117425
0.000855508
0.000590345
0.000371909
0.000123918
-0.000350213
-0.000331896
-0.000308052
-0.000284787
0.000667827
0.000872706
-1.28302e-05
0.000724577
-0.0011578
0.00136239
-0.00193984
0.00235962
-0.00332632
0.00406891
-0.00533263
0.00637464
-0.00842073
0.00987769
-0.012222
0.014115
-0.0171303
0.0199122
-0.0200174
0.0207824
-0.0120859
0.0243876
0.02956
0.0149823
0.0169308
0.0218486
0.0183725
0.019788
0.0204257
0.0194838
0.0201753
0.019796
0.0211622
0.020542
0.0188176
0.023782
0.0104669
0.0123753
-0.037707
-0.00178674
-0.0216192
0.0120221
-0.0281207
-0.0012838
-0.0244283
0.0121988
-0.0276276
-0.00113989
-0.0242511
0.0122553
-0.0286713
-0.00158966
-0.0235464
0.0124465
-0.0320813
0.000928082
0.0243631
0.0135058
0.018955
0.0140802
0.0179098
0.0148901
0.0178632
0.0152082
0.0213931
0.0015025
0.00857728
0.012473
0.0196602
-0.00120568
-0.00687891
0.00266017
0.00501658
0.0110053
0.00164458
0.00296613
0.000519479
6.92548e-05
6.42538e-05
0.023344
-0.0136674
0.000450263
0.0138175
0.000434654
-0.000801573
0.00264653
0.0004614
0.0148044
-0.0226953
0.0203738
0.000524388
-0.000472887
-5.54427e-05
1.50362e-05
4.47489e-05
4.00163e-05
2.91316e-05
2.03916e-05
1.35004e-05
3.05627e-07
4.80401e-06
0.000245623
-8.8338e-05
-4.13215e-05
-0.000174623
0.000221517
-0.000102731
-0.000212027
-0.000299379
-0.000333763
-1.24521e-05
0.0002524
-0.000185929
1.87944e-05
0.000206255
-0.000204207
9.02424e-06
0.000213806
-0.000219655
-7.6035e-06
0.000198383
-0.000239514
-2.01849e-05
-6.44843e-05
0.000369398
0.000300105
-0.000215614
0.000139208
0.000107727
-0.000239513
3.44699e-05
-0.000226307
0.000175123
0.000185433
-0.000206179
-2.8553e-06
-0.000185386
0.000188078
0.000210452
-0.000183353
-1.02234e-07
-0.00016971
0.000223434
-7.76479e-06
-2.26776e-06
0.000751666
-0.00058039
0.000789946
-0.00107152
5.32644e-05
-0.000494545
1.59501e-05
4.76923e-05
-5.91069e-05
0.000191823
-0.000381233
0.000382285
-0.00071743
3.20334e-06
0.00073675
-0.000892512
0.000929915
-0.00120596
7.33503e-06
0.00119357
-0.00159775
0.00165952
-0.00216568
1.18008e-05
0.00212784
-0.00280974
0.00291017
-0.00374832
1.74597e-05
0.00368152
-0.00474256
0.00490697
-0.00617303
2.77462e-05
0.00606436
-0.0076244
0.00788545
-0.00964088
4.55726e-05
0.00946345
-0.0116545
0.0120469
-0.0142346
6.85987e-05
0.013927
-0.0168541
0.0173936
-0.0195491
9.96851e-05
0.0190045
-0.0227649
0.0229518
-0.0137135
-0.000100626
-0.0015971
0.000802913
-0.000479005
-2.28679e-05
0.00012397
0.00020316
1.70855e-05
0.023369
-0.0136563
6.13238e-05
0.0164268
-0.00256464
-0.00114824
0.000999427
-0.000944409
0.0137273
-0.0230192
0.000144613
0.000100794
0.000286932
0.000150171
5.81331e-05
1.46595e-05
-1.94009e-06
-7.59794e-06
-8.10778e-06
2.47333e-06
-4.00348e-06
-0.000195197
-0.000209939
-0.000210696
-0.000194913
5.12267e-05
5.92298e-05
3.18775e-05
-0.000251871
0.000113372
-0.000249366
5.87611e-05
5.13426e-05
3.25819e-05
-0.000246315
7.65311e-05
0.000231769
0.000142676
-0.000251957
0.000113835
0.000251849
0.000353139
0.000386762
-0.00072849
-0.000727758
-0.000780212
0.000702124
-0.00108247
0.00131882
-0.00183744
0.00235378
-0.00313359
0.00399917
-0.00516584
0.00642463
-0.00817436
0.00974654
-0.0123825
0.0139694
-0.0177211
0.0187068
-0.00328006
0.0119049
-0.00187489
0.000500077
0.0161997
-0.0163063
0.000967555
0.0126637
-0.0117039
0.000661557
0.00902712
-0.00777924
0.000455478
0.00600881
-0.00491121
0.000305625
0.00375014
-0.00297286
0.000193389
0.00219721
-0.00174015
0.000113822
0.00121144
-0.00102436
9.8652e-05
0.000616421
-6.14794e-05
0.000616621
-0.00102378
9.8751e-05
0.000704988
-0.000777129
0.00028995
0.000450782
0.00032252
0.000312692
-0.000682456
0.000558645
-0.000972198
0.00116088
-0.00164669
0.00212965
-0.00282053
0.00364663
-0.00467576
0.00586057
-0.00745855
0.00888452
-0.0113307
0.0126922
-0.0157351
0.016476
-0.00177425
0.00893427
-0.00679353
0.000850335
0.0228068
-0.0229568
0.00121409
0.0183865
-0.0159378
0.000761158
0.0129224
-0.0103354
0.000484796
0.00848775
-0.00647479
0.000315665
0.00530225
-0.00390535
0.00019681
0.00315099
-0.00226964
0.000117755
0.00178661
-0.00132511
0.000103777
0.000946098
-0.000860621
0.00028631
0.000630848
0.000548411
-0.000273438
0.000632581
-0.000142742
7.84817e-05
0.000705838
-0.000621697
0.000703567
-0.000855309
0.00137229
-0.00121751
-1.27777e-05
-0.00106806
0.000914101
-0.000763348
1.67769e-05
0.000791021
3.06634e-05
6.51002e-07
-0.000203152
1.82232e-05
-1.60001e-05
1.07042e-05
-6.60604e-06
-3.41288e-06
0.000732972
-0.000734443
0.000905555
-0.00119348
2.47244e-06
0.00162102
-0.00212952
0.00285283
-0.00368226
1.33246e-05
0.00482168
-0.00605921
0.00776438
-0.0094453
3.22672e-05
0.0118786
-0.0138938
0.0171336
-0.0190018
-3.42218e-05
3.39524e-05
5.44114e-05
0.000155393
7.62269e-05
8.1157e-05
0.0120098
-0.0138932
6.17266e-05
0.016522
-0.01958
0.0174867
-0.0188255
0.000173136
0.0229986
-0.0255362
0.0164296
-0.0125909
-0.0237887
-0.00186044
4.26154e-05
-0.00852811
-0.00230965
0.00031952
0.0120539
0.0146583
0.000927312
-0.0190404
0.0124566
-5.19541e-05
-0.0109043
0.00843814
-0.000167612
-0.00666427
0.00543966
-0.000112562
-0.00398064
0.00329956
-9.76011e-05
-0.00234963
0.00198767
-7.60938e-05
-0.00127768
0.00117111
-8.71052e-05
-0.000687342
0.000154272
0.000265573
-0.000452926
-3.70147e-05
0.000834911
-0.00103449
0.00116035
-0.00150946
0.00201345
-0.00260516
0.00421776
-0.00370871
-2.04201e-05
-0.00327579
0.00285156
-0.0021522
-1.89648e-05
0.00243666
1.25992e-05
-5.2793e-05
-2.83609e-05
-6.851e-05
-0.000211994
-1.00381e-05
4.09563e-05
2.15318e-06
5.85047e-05
5.84014e-05
2.70414e-05
-3.76232e-05
0.000596116
0.000189281
3.18957e-05
0.000152774
-2.01533e-05
-9.9146e-05
-7.14441e-05
7.59557e-05
0.000120443
-0.000121995
-0.00019211
-0.00188124
-0.000107789
0.00230816
-0.00321167
0.00338822
-0.00428585
0.0054877
-0.00669984
0.0109992
-0.00948073
2.08804e-06
-0.00884304
0.00780084
-0.00609241
-1.66487e-05
0.00697609
5.44434e-05
-8.30917e-05
-7.35193e-05
4.36128e-05
-0.000692508
-0.000340728
-0.000241046
-0.000420896
-0.000171754
-0.00012399
0.0013651
-6.20939e-05
-3.31724e-05
0.000198317
-0.000350864
-0.000115695
0.000354688
0.000657309
0.00118407
5.35329e-05
-7.79789e-06
9.70513e-05
4.51141e-05
-0.00107757
-6.31101e-05
0.0013268
0.00121088
-0.00173669
0.000114199
-0.00183472
-0.000120299
0.0023654
0.00219846
-0.0029644
0.000194528
-0.00314206
-0.000193856
0.00400664
0.00376059
-0.0048972
0.000308265
-0.00520257
-0.000213732
0.00640607
0.00604792
-0.00776718
0.000461929
-0.00827692
2.19518e-05
0.00961271
0.00915752
-0.011746
0.000675802
-0.0125743
0.00108963
0.013411
0.0130579
-0.0166151
0.000991023
-0.0177452
0.00452003
0.0171623
0.0171599
-0.00241585
0.000511134
-0.00295521
0.05627
-0.0277364
-0.0286717
0.04207
0.0111092
0.00389082
-0.0324707
-0.00767824
-0.00467268
0.0137329
-0.0144253
-0.000277609
0.000673334
-0.00277969
-0.00311191
-0.000651913
0.000831311
0.000442508
-0.000202947
-0.000514252
-0.000173258
0.000218572
5.97558e-05
2.91e-05
1.22671e-05
-3.60615e-07
-8.93159e-06
-3.36301e-05
-1.58714e-05
0.000393806
-0.000394116
2.71736e-06
2.77414e-06
-0.000401794
0.000395562
-1.07745e-06
1.41171e-06
-1.53948e-06
-2.96822e-05
-1.89437e-05
7.15874e-05
3.47071e-06
8.22442e-05
-2.90099e-05
-3.58299e-05
-1.76596e-06
0.000137004
-0.000162631
0.00016525
-0.000134437
-0.000136896
-0.000113422
6.01691e-06
0.000164515
0.000144333
-0.000142311
-4.01366e-06
-0.000163857
6.64943e-07
1.46215e-06
3.93251e-06
-7.44851e-06
-8.9566e-06
-7.72619e-05
-5.45193e-05
-0.000104751
-0.000157195
-0.00018843
-0.000122351
-5.02705e-05
0.000779273
-0.00193592
-0.000848615
-0.000244775
0.00636931
-0.00762813
0.00849324
-0.0101193
0.0124222
-0.000578988
-0.0116671
-0.00054589
0.0101535
-0.000297394
-0.00108268
0.000175635
0.000122376
0.000243518
0.000288255
-0.000263817
-0.00315844
0.0108707
-0.00523177
-0.017961
-0.00282764
-0.0035072
-0.0429455
-0.0121828
0.00158631
-0.018208
0.0131319
0.000662973
0.000576743
0.0158624
0.0132736
0.00168856
-0.0015333
0.0174239
0.0156783
0.00178624
-0.00182831
0.0158603
0.0178352
0.00166841
-0.00408826
0.0132364
0.0180557
-0.006464
0.0105239
-0.00913172
0.00977162
-0.0382793
-0.0206674
0.00328137
-0.00946622
0.0179356
-0.00113204
-0.0290399
0.0168534
-0.000313694
-0.0198753
-0.0197944
-0.0283989
0.00940549
-0.0148024
-0.00997836
0.0152737
-0.0263791
-0.00403588
0.0164874
-0.0164431
-0.00140571
0.012394
-0.0103096
-0.000741268
0.00838751
-0.0064937
-0.000519947
0.00535208
-0.0040001
-0.000356525
0.00326419
-0.00236598
-0.000208546
0.00191777
-0.00135147
-6.50704e-05
0.0011426
-0.000726148
0.000134831
0.000625878
-0.000284737
0.000544623
0.000629119
-0.000868385
0.000943875
-0.00133855
0.000104961
0.000556725
-0.000683215
0.000285623
0.000310751
0.000324805
0.000450336
0.000385847
0.000289619
0.000572749
0.000352853
-0.000124733
-0.000366235
-0.000576863
-0.00057352
-0.000892878
-0.00143805
-0.00111412
-0.000540037
-0.000315897
0.00387345
-0.00503461
-0.000223819
-0.000158415
-0.000298141
2.72815e-05
-0.00550872
0.00482846
2.10028e-05
0.00375108
-0.00484148
2.26871e-05
0.00619123
-0.00777505
4.93662e-05
0.0096868
-0.0118638
9.47772e-05
0.0142966
-0.0170935
0.000130772
0.0194764
0.000155779
0.000363521
9.68235e-06
-2.79531e-05
-7.18777e-05
1.15334e-05
2.80745e-05
2.06276e-05
1.17258e-05
5.17784e-06
1.73724e-06
7.78624e-07
3.47095e-06
1.07544e-05
-0.000384296
7.39026e-06
2.24166e-05
-2.67496e-06
-6.91429e-06
-1.21884e-05
-1.92582e-05
-3.38552e-05
-6.68026e-05
-0.0001314
-0.000176775
0.000734918
-0.000220692
-0.000576368
-0.000790229
0.0152981
-0.0163818
0.0191689
1.82497e-05
-0.00269392
0.0022416
0.00692637
2.28337e-05
-0.0062355
0.00582976
0.00594645
4.5324e-06
-0.00663796
0.00619161
0.00534958
-1.02028e-05
-0.00837992
0.00794476
0.00750421
-0.00016565
0.0106423
-0.0111945
0.0109187
-0.0117184
-0.0010969
-0.00582634
0.00825023
-0.000742168
-0.0079563
-0.00018835
-5.77872e-05
0.027401
-8.72953e-05
-0.0275784
0.0174932
-0.000627725
-0.0180964
0.0181443
-0.000403621
-0.019011
0.0277667
-0.000270614
-0.0277856
0.0240265
-0.0239482
0.0237839
-0.0243793
0.000116604
-0.0274778
0.0271766
-2.71442e-05
-0.018145
-0.00070049
0.0182908
-0.0156251
8.63627e-05
0.0278004
0.010082
0.02675
0.00993844
-0.0113625
0.0164994
0.00222903
-0.011781
0.0114964
0.000884327
-0.00878031
0.00781455
0.00058646
-0.00595722
0.00519731
0.000392769
-0.00381555
0.00321176
0.000268461
-0.00233316
0.00193817
0.000132254
-0.00137051
0.00105721
1.69919e-06
-0.000840156
0.000486644
-0.000251776
-0.000706861
-0.000190411
-0.00059564
0.000396843
3.78208e-05
2.02328e-05
0.000240125
6.57458e-05
-0.000371642
-0.000300212
-7.60154e-05
-0.000234642
-0.000144918
-0.000110434
-0.000260421
-0.000121527
-0.000129875
-0.000258303
-0.000380304
-0.000409074
-0.000287325
0.000775975
6.09252e-05
-0.00056323
-9.6216e-05
0.000961303
0.00113135
5.81855e-05
-0.00110534
-0.000112999
0.00159045
0.00231552
-6.81694e-06
-0.00317184
8.47683e-05
0.00395662
-3.95179e-05
-0.00533653
0.000140253
0.00648251
-6.86151e-05
-0.00853479
0.000151504
0.0100827
-0.000100953
-0.0129441
0.0002151
0.0148403
-0.000186511
-0.0186596
9.27018e-05
0.0204421
-0.000485567
-0.0256032
-0.000655411
0.000617873
-0.0154851
0.0252796
0.000142767
0.0140717
0.000392301
-0.0115765
0.0190095
-4.37565e-05
0.00989677
0.000318675
-0.00812437
0.0133288
-3.50244e-05
0.00669369
0.000238653
-0.00535493
0.00883253
-1.81998e-05
0.00429128
0.00018096
-0.00336148
0.0055431
-1.01304e-05
0.00262099
0.000116846
-0.00200051
0.00330761
-4.86242e-06
0.00151735
7.3063e-05
-0.00115998
0.00189825
-6.75468e-06
0.00086661
4.14891e-05
-0.000703806
0.00108065
-2.85403e-05
0.000625592
-7.65043e-05
0.000143998
-0.000630372
-0.000543479
0.000282098
-0.000630954
-0.000138652
-3.98424e-05
-0.00118518
-0.000658199
-0.000577133
-0.000373639
-0.000288322
0.000694201
0.000800183
7.46998e-05
-0.000533369
-0.000102251
0.00135456
2.79097e-05
-0.00179783
7.28203e-05
-0.000184545
-8.97961e-05
-4.29753e-05
-0.000737153
9.94109e-06
0.000247074
-2.80171e-05
-4.8728e-05
-6.36334e-05
0.000254106
-8.06639e-05
3.4181e-05
2.99088e-05
1.11506e-06
2.38844e-06
2.15426e-06
2.88529e-06
2.37807e-06
3.76984e-06
-3.37464e-06
-2.96296e-07
0.00161998
-0.00187701
1.02306e-05
-1.82771e-06
-1.2442e-05
1.5741e-06
-0.000924775
9.76149e-07
0.00120416
-0.00163983
3.56105e-06
0.0021629
-0.00287287
9.5179e-06
7.67713e-06
2.91019e-07
8.35878e-06
9.54482e-06
3.05901e-05
4.30561e-05
2.74417e-05
1.51803e-05
7.7962e-06
6.17645e-06
1.35756e-05
8.58917e-06
2.70422e-07
0.0011861
-0.00156576
0.0014137
-0.0018774
0.00247432
-0.00322172
5.93958e-05
-0.00113007
6.62952e-05
0.00105794
5.82245e-05
-0.000689227
3.78032e-05
0.000538589
-3.33848e-05
-1.8253e-06
0.000188972
-2.18933e-05
-0.000372726
0.00233267
7.55993e-05
-0.00195194
-0.000184028
0.00256297
0.00336688
0.000212111
-0.00342222
-0.00027898
0.00440643
0.00533644
0.000349308
-0.0055333
-0.00041345
0.00677624
0.00829609
0.000491923
-0.00853455
-0.000581065
0.00973155
-0.0123828
-0.00076418
0.0127837
-0.0172357
-0.000227162
-0.000613308
-0.00012126
-2.26715e-05
2.31093e-05
2.92679e-05
2.4263e-05
1.86139e-05
1.33079e-05
-1.48417e-07
4.77964e-06
0.000195991
0.000209856
0.000211826
-5.01217e-05
0.000252631
9.6543e-06
7.7672e-06
0.000260459
-4.25475e-05
0.000254186
-7.85104e-05
1.08365e-05
-1.96226e-05
2.11505e-05
-4.96809e-06
1.09037e-05
-1.65109e-07
-0.000884557
4.22022e-05
2.31991e-05
9.02892e-06
1.96651e-06
6.74598e-07
-0.000142635
0.000143595
6.08925e-06
-0.000115745
0.000191832
-4.77524e-05
1.35001e-05
5.19549e-05
1.7202e-05
-1.88032e-05
0.000256566
-0.00086801
6.07628e-05
-0.000590103
-0.00010178
0.000931453
0.0011568
4.61056e-05
-0.00112247
-0.000106995
0.00192741
0.000111065
-0.0020002
-0.00018148
0.00272031
0.00329278
0.000211144
-0.00346677
-0.000287755
0.00438528
-0.00559251
-0.000420915
0.00675237
0.000348631
0.000260529
0.000178825
0.000110684
5.61759e-05
1.36499e-05
-2.05511e-06
2.53649e-06
9.39476e-06
3.46217e-06
-3.59636e-06
-1.82168e-05
-1.07537e-05
-5.15564e-06
-7.14083e-06
-5.2436e-05
-5.01964e-05
-0.000106859
-0.00010964
-0.000165263
-0.00019248
-0.00087081
-0.00137438
-0.00229964
-0.00248651
-0.00458969
-0.00394165
-0.00225498
-0.00855226
-0.0256794
0.00152783
-0.041002
-0.0306175
-0.0232506
-0.0155225
-0.0136583
0.00514784
-0.0120521
-0.00066745
0.00308465
0.000347793
-0.000159193
0.0147829
-0.0171526
0.019517
0.000176757
-0.002419
0.00365796
0.00804029
0.000287063
-0.00561787
0.00752675
0.00751075
0.000299242
-0.00600419
0.00775326
0.00705899
0.000219117
-0.00804506
0.00883605
-0.000398789
0.000337453
0.000552367
0.00363514
-0.015377
-0.0221137
0.0010265
0.018373
0.000383922
0.000129974
0.0115794
0.00014082
-0.0189458
0.0223808
2.03709e-05
-0.0246673
0.0145713
-0.0144792
0.0126206
-0.0024332
-0.0163817
0.00050274
-0.0199532
0.0272422
-0.0238469
0.0217345
-4.10772e-05
-0.0217636
3.1729e-05
0.0215551
-6.56749e-05
-0.0216558
1.18549e-05
0.0217507
-7.95875e-05
-0.0218331
0.0242671
-0.0277973
0.00195072
-0.0219414
0.0302765
0.00159766
0.00090143
-0.00981993
0.010456
-0.0108309
3.61248e-05
-0.0079846
0.0073471
0.000524929
-0.00913406
0.00660824
-0.00777962
0.000667531
0.0152102
-0.00840185
0.00497232
0.00104834
-0.00932223
0.0073667
-0.000163878
-0.00013917
-8.99451e-06
0.000236299
0.000114044
3.77616e-05
5.04315e-06
-5.86633e-06
-8.89033e-06
-8.40148e-06
2.29465e-06
-3.74227e-06
0.000115679
0.000137119
3.78216e-07
-3.08928e-05
-1.91713e-05
0.000233356
7.65934e-05
-0.000215177
0.000107715
0.000138907
-0.000228655
2.72791e-06
-0.000240509
-1.99086e-05
-6.54732e-05
-0.000206782
0.000301069
0.00037339
1.87804e-05
7.1833e-05
-1.72366e-05
9.99127e-06
0.000176112
-0.000189985
-1.84242e-06
-0.000207694
0.000208742
0.000191503
-0.000174372
-7.50467e-08
-0.000221003
1.68649e-07
0.000221555
3.9062e-07
1.14606e-06
-7.37055e-06
4.70992e-07
1.99675e-05
3.39257e-05
0.001183
0.00065641
0.000348137
-0.000126324
-0.000370167
-0.000594453
-0.000901865
-0.00139992
-0.00228567
-0.00398605
-0.00405306
-0.00787529
-0.00858511
-0.0184917
-0.0301613
-0.0273021
-0.0274385
0.01138
-0.0160836
-0.00805811
-0.00870724
-0.0253132
-0.0307529
-0.0277755
-0.0277948
-0.0276617
-0.0276164
-0.0315702
0.0115309
-0.00151909
-0.0063372
0.0343535
-0.00959927
-0.0229717
-0.0213241
-0.00621809
-0.00757455
-0.0173407
-0.0179311
-0.00233599
-0.00423289
0.000436117
0.000854739
0.00073938
0.000523167
0.000341516
0.000263222
0.000140689
0.000136924
4.28561e-05
8.91848e-05
-0.000245179
-0.000450959
-0.000702972
-0.00107103
-0.00169133
-0.00297971
0.000829745
0.000611395
0.00053415
0.000658681
0.00057944
0.000417265
0.000412367
0.000258454
0.000326369
0.000185872
0.00115695
0.001774
-0.00228003
0.00312674
-0.00390048
0.000196696
0.00211793
-0.00165344
0.000118753
-4.57133e-06
-5.20478e-05
-5.17303e-05
-0.000976051
-7.53182e-06
-0.000247738
0.000143621
-7.06175e-05
-1.07676e-05
-1.8395e-05
3.40692e-05
-0.000240254
0.000184924
-1.10647e-06
-3.18273e-07
-2.90264e-07
3.08407e-07
0.000116122
-3.83354e-06
1.0958e-06
9.488e-07
1.1631e-06
-7.11717e-05
9.11099e-07
3.00791e-05
1.88687e-05
2.49226e-05
-1.82648e-05
1.71718e-05
-5.37121e-08
2.11473e-06
-7.1029e-05
0.000240803
0.000229698
-0.00013714
-3.26098e-05
-0.000108714
0.000216859
2.11476e-05
7.84132e-06
1.3752e-06
5.84939e-07
-5.33631e-06
-4.06631e-06
-3.99257e-06
-2.80311e-05
-1.26021e-05
-5.27377e-05
2.28663e-05
-0.000102322
-0.000106367
-0.000157558
-0.000184936
-0.00282538
0.00361928
0.00526495
-0.00643205
0.0084245
-0.0101666
0.000463482
0.00580101
-0.00466577
0.000309113
1.44731e-05
-7.45719e-05
6.23809e-05
-8.59033e-05
0.000135944
-0.0001981
-0.000227041
-0.000204148
-0.000227628
-0.000151382
-4.09734e-05
0.000147334
0.000208272
9.36634e-05
0.00344424
0.00013122
0.000133399
5.86176e-05
2.27668e-05
5.56807e-06
-3.09205e-06
1.00059e-06
-1.11965e-06
-8.25812e-06
1.29561e-05
4.01987e-06
-3.81599e-06
3.32204e-05
1.37256e-05
1.45187e-05
7.59094e-06
1.07785e-06
1.12215e-05
1.01982e-05
3.01564e-06
6.26614e-06
1.17386e-05
2.03796e-05
1.02434e-05
7.27337e-05
3.28916e-05
5.04359e-05
0.00015588
6.754e-05
0.00014204
0.000324768
0.000253301
0.000757882
-0.00243645
-0.00286873
-0.000467739
0.000381433
0.000526904
0.000292584
-0.00689897
-0.000162447
-8.98217e-05
-9.73873e-05
-0.000720755
-0.00024226
0.0160845
-0.000222849
-0.0198099
-0.000156826
-0.00084454
-0.0184297
-0.00085041
-0.0010292
-0.0123491
-0.00630965
-0.0102935
-0.0246421
0.00258547
0.00617128
0.000374396
-0.000339339
-0.000292954
-0.000529271
8.47454e-05
-0.0144313
0.0189617
0.00011746
-0.00425576
0.00194195
0.00641948
4.50093e-05
-0.00804394
0.0051299
0.00518124
-1.22441e-05
-0.00828992
0.00547394
0.0046015
-6.42162e-05
-0.00763343
0.00186205
-0.0113886
0.00559377
0.00864289
-0.0106337
0.0031179
0.00129673
-0.000629581
-0.000104419
-1.57012e-05
3.04814e-05
3.33377e-05
2.5983e-05
1.90344e-05
1.21364e-05
4.8911e-06
1.14195e-05
5.0186e-05
0.00209001
-0.00275065
6.83001e-05
0.00359959
-0.00464088
0.00416109
-0.00530145
0.00666837
-0.00830905
0.000112324
-0.00314972
0.000132805
0.0030073
8.08081e-05
-0.00191462
0.000100348
0.00184619
2.08165e-05
8.40239e-05
0.000608056
-7.02302e-05
-0.00100147
0.00651487
0.000248724
-0.00528714
-0.00041351
0.00652958
0.00847474
0.000500257
-0.00838232
-0.000574699
0.0118816
0.000789209
-0.0122694
-0.000830417
0.0127705
0.0162683
0.000799891
-0.0205678
-0.000443571
-0.017107
-0.0203339
0.000927462
0.0158039
0.0131203
-0.0168012
-0.00038157
-0.000621188
0.000578828
0.000471465
0.000376252
0.000275043
0.000184314
0.000110129
5.09053e-05
8.68439e-05
1.9717e-05
-3.22665e-07
2.84727e-05
-8.34382e-07
0.00591649
-0.00745887
0.000152581
0.00922918
-0.0114148
0.0101921
-0.012346
0.0149283
-0.0169783
-0.00046634
-0.00702106
4.17873e-05
0.00710707
7.10275e-05
-0.0049823
0.000136375
0.00467736
4.30048e-06
0.000236715
0.00170929
-8.31981e-06
-0.0020378
0.0149308
0.00046276
-0.011331
-0.00082607
0.0134034
0.0161792
0.000798181
-0.0211524
-0.000350088
-0.0151182
-0.0271868
0.000241501
0.0200481
-0.00170334
0.00899239
-0.000232322
0.00606741
0.00525554
0.00265121
0.00167865
0.0112872
-0.00671433
-0.000326146
0.00125209
0.00069624
0.000484836
0.000354882
0.000245754
0.000154818
7.84113e-05
4.04605e-05
0.00046878
-0.000315684
-0.000516931
-0.000124689
0.000100546
-0.000288537
0.000928941
-0.000373595
-0.000443766
-0.000443926
-0.000275265
0.000698657
0.000786789
5.99453e-05
-0.000599452
-9.72418e-05
0.00112389
4.96574e-05
-0.00110165
-0.000107726
0.00161315
0.00193471
0.000115659
-0.00202399
-0.000186763
0.00269516
-0.000317151
-0.000246836
-0.00247804
-0.000131768
-0.0013878
0.000382029
0.000384227
0.000125408
-0.000369859
-0.000603598
-0.000384319
-0.000300334
-0.000652785
-0.000193054
-0.000106871
5.99716e-05
1.07349e-05
0.00136982
3.43654e-05
-0.00110471
-0.000111258
0.00151903
0.00197774
0.000107913
-0.00200852
-0.000179253
0.00327832
0.000216056
-0.0034277
-0.000282993
0.00441091
0.00536816
0.000331756
-0.00675934
-0.000570172
-0.000394056
-0.00420663
0.00082168
0.000826117
0.000585321
-0.000147575
-0.00136206
-5.34053e-05
-0.000668205
0.000130313
-0.000216183
-0.000258017
0.000102046
0.000379071
-0.000197597
-0.0016689
0.000302884
4.22105e-05
0.000356622
-4.69455e-05
0.00398004
0.000153144
-0.00329953
-0.000285182
0.00418428
0.00548884
0.000341486
-0.00550724
-0.000405829
0.00822357
0.000523295
-0.00845164
-0.000587298
0.0097311
0.0120643
0.000726972
-0.0148992
0.000428381
-7.09885e-05
-2.4667e-05
2.01431e-05
1.54909e-05
9.65519e-06
5.40657e-06
2.79308e-06
-1.65951e-06
6.24991e-07
1.18393e-05
2.37714e-06
-1.7585e-06
3.67379e-06
1.56787e-05
4.09805e-05
6.70475e-05
3.05029e-05
1.02558e-05
2.55346e-06
3.09541e-06
-7.75123e-07
1.22381e-06
0.00163884
2.05125e-06
-0.00163188
0.00216125
3.83347e-06
-0.00286293
0.00287481
-0.0021516
0.00218089
5.38951e-06
-0.0029031
0.00286219
-0.00216097
0.00163245
-1.295e-06
-0.00166048
0.0012161
-0.00120754
0.00121258
-0.00121148
5.00385e-06
-0.00162632
0.00166741
6.39526e-06
-0.00217294
1.7606e-06
-0.00285297
0.00291627
8.65106e-06
-0.00375975
-4.69837e-07
-0.00480174
0.00489395
-0.00481251
0.0048315
6.56314e-06
0.00373266
-0.00371629
3.88568e-06
0.00377263
1.30222e-05
-0.00487256
0.00481607
-0.00372113
-2.29685e-05
-0.00328755
0.00200877
9.64789e-06
0.00244728
-1.89875e-05
-0.00188852
0.00116417
8.97694e-06
0.00138295
-0.00122354
0.000922351
-4.68604e-06
-0.000937898
1.83132e-07
0.00091854
1.08341e-06
-0.000915033
3.94267e-06
0.00094069
6.5606e-06
-0.000918686
0.00122849
-0.00138067
1.56907e-05
1.62651e-05
1.01672e-05
3.41497e-05
2.04625e-05
-0.000396845
0.000412248
-0.000405392
0.000406139
2.56865e-07
-7.12539e-07
-9.87533e-07
-0.000411856
0.000397711
-1.99962e-05
-1.13031e-05
0.000200188
-0.000225453
4.46743e-07
-1.789e-06
0.000744134
-0.000753343
0.000755444
-0.000742029
0.000771792
-0.000795878
-1.54425e-05
-2.53117e-06
-0.000199443
1.1782e-05
0.000225667
-9.36449e-06
9.28213e-06
8.38681e-06
2.42916e-06
4.58392e-06
7.79304e-06
9.73999e-06
9.6411e-06
-0.00610351
8.28096e-06
-0.00767999
0.00770661
-0.00776773
0.00770061
2.30061e-05
0.00620189
-0.00610385
-2.42579e-05
-0.00551042
0.00336796
2.0178e-05
0.00422168
-0.00261209
-0.000109313
-0.0018958
0.00231603
-0.000243416
-0.00318296
0.00382815
-0.000334604
-0.00505971
0.00609558
-0.000371814
-0.00761854
0.00928569
-0.000501173
-0.0111835
-0.00116686
-0.000390111
-0.000612557
-0.0002124
-0.000412623
-0.000173321
-0.000298244
-0.000129717
-0.000203911
-7.86635e-05
-0.000140675
0.00136499
-0.00151499
-6.90535e-05
-0.00105594
0.000832948
-3.50678e-06
-1.65428e-05
-0.000125
-3.88572e-05
-0.000487079
-3.98677e-05
0.00070692
2.9322e-05
-0.00107764
-1.2261e-05
-1.2502e-05
5.91553e-05
2.56488e-05
-3.76239e-05
-0.000396796
0.000596254
0.000191819
0.000705071
0.000248649
0.000141418
2.02457e-05
7.67912e-05
-0.000626443
0.000797559
-0.000769983
1.61305e-05
1.01444e-06
-3.59978e-05
-8.80469e-06
-3.38109e-07
5.93611e-05
7.74527e-05
0.000114974
0.00017453
4.21274e-05
-0.00878862
0.00538269
-0.00429567
0.00694834
1.85298e-05
5.81614e-06
-2.55305e-06
2.73073e-06
1.12408e-05
2.31015e-05
3.79117e-05
4.76744e-05
-1.50862e-05
-0.00948088
3.35527e-05
-0.0117132
0.0116604
-0.0132899
0.00815555
8.40616e-05
0.0108644
-0.0067272
-0.000163783
-0.000155048
0.000728332
0.000575655
0.000671873
0.000901322
0.00872945
0.0127894
-0.0154214
0.00163236
0.000103223
-5.20342e-05
0.000419765
-0.00016055
-8.15392e-05
-0.00738706
9.61365e-05
0.000687895
-0.0111127
0.000687039
9.88306e-05
4.34298e-05
9.61198e-05
0.000211464
0.000310881
0.000145859
5.5159e-05
2.58059e-05
2.19475e-05
2.11373e-05
3.0232e-05
4.0671e-05
2.60441e-05
2.02422e-05
2.59391e-05
1.67564e-05
1.44498e-05
-4.49467e-08
1.10196e-05
1.21767e-05
0.000100747
2.95642e-05
1.925e-05
1.29739e-05
1.34817e-05
9.51383e-06
5.33993e-06
1.04669e-05
1.11564e-05
8.99327e-06
-3.79294e-05
1.52732e-05
2.95281e-05
2.18732e-05
3.86444e-05
6.17817e-05
6.83311e-05
0.000118656
5.85396e-05
0.00011246
5.4292e-05
0.0136109
-0.0165906
0.000266399
0.0187145
0.000359513
7.00194e-05
0.000206207
0.0012702
-0.00364378
0.0124738
-0.0104232
0.0219706
0.00317486
0.0134705
-0.011762
0.0101541
-0.00989226
0.00709822
0.00805038
-0.0107291
0.00241848
-0.0116095
0.00750069
0.00775367
0.0145582
-0.000774051
-0.000307009
-0.00182578
-0.000132534
-0.007307
-0.000152872
-3.24745e-05
3.41678e-05
4.83262e-05
8.20451e-05
4.3758e-05
3.71293e-05
4.41422e-05
3.70203e-05
-4.23576e-06
3.8175e-05
-1.21649e-06
0.000280147
0.000189775
0.000132069
-0.00828058
0.0101447
0.000359425
-0.00799501
-0.000583943
0.00969958
0.0122539
0.000720627
-0.012103
-0.000804697
-0.0147786
0.000474178
0.000380554
-1.96685e-05
1.1245e-05
-4.02519e-06
0.000225806
4.01894e-05
2.06983e-05
2.74696e-05
2.12092e-05
-6.37147e-06
0.00018799
0.000113244
5.40518e-05
-0.00134074
-0.00012898
0.00161443
-4.23456e-05
0.000969816
-0.000686831
-0.000576719
0.000716457
-0.00041649
-0.000378083
-0.000365391
0.000127568
-0.000245166
-0.000273937
-0.00249246
0.000614897
-0.000275165
-0.000617837
0.000483521
0.000905466
-0.00040723
-0.00513016
0.00070647
0.000130024
0.000996851
-7.55715e-05
-0.00152181
-0.000557403
0.00104512
0.00173162
0.00127968
-0.000435899
-0.00427367
-0.000393923
-0.00415494
0.00112816
-0.000632119
-0.00689709
-0.000570716
0.00679879
0.00141815
-0.000879636
-0.0105383
-0.000563181
-0.0127559
0.00194321
0.000713917
0.00358886
0.000236085
-0.0189035
0.00053692
0.00221606
0.00263354
0.00377757
0.012914
0.0303012
0.015919
0.0234528
-0.00212257
-0.00124246
-0.0153051
0.00144353
0.000965276
0.00267584
0.0156577
0.0227689
-0.00204974
-0.00113816
-0.000793971
0.00985349
-0.0102104
0.00133795
0.00110817
0.00119565
0.000521543
0.00209282
0.0143968
0.0229682
-0.00210982
-0.00114804
-0.000796846
-0.0102948
-0.000975939
-0.00070721
-0.000497801
0.000672488
0.000439762
0.000237457
5.79746e-05
0.000202183
0.000946823
0.00122302
0.00138112
-0.00128281
-0.00166736
0.00202131
0.0131304
0.0256794
-0.00443209
0.00526616
0.00232829
0.00197646
0.000215004
-0.000143755
-7.33856e-05
-3.66116e-05
-1.8708e-05
-9.66343e-06
-3.66454e-06
3.76072e-06
1.77257e-06
7.93079e-07
-4.23207e-07
4.99266e-06
2.78288e-06
2.87781e-06
3.06669e-07
-2.73062e-05
-5.89732e-05
-5.74796e-05
9.34136e-06
2.53919e-05
-0.00244613
0.00217126
1.01318e-05
8.37753e-06
9.66579e-06
9.25498e-06
5.01556e-06
1.01153e-05
3.13509e-05
9.6868e-07
0.00020539
-0.000954099
7.72359e-05
5.95383e-05
7.4903e-06
1.05274e-05
1.29248e-05
-5.7186e-07
-8.16352e-06
1.7667e-05
1.31216e-05
1.10484e-05
9.64327e-06
1.17474e-05
1.37387e-05
4.26107e-05
4.00608e-05
0.0116204
3.16982e-06
-0.0115933
0.0139648
-2.01657e-05
-0.0164844
0.0164801
-0.0139424
0.0141856
2.77286e-05
-0.0166286
0.0166334
-0.0139089
2.23912e-05
0.0161169
-0.0100939
-9.6328e-05
-0.000115632
0.0001171
0.000258843
0.000301367
-0.000203298
-0.00143658
-0.00292891
-0.00558013
3.24376e-05
-0.00213202
-0.000859779
-0.000260395
0.000268666
0.000248447
4.79614e-05
5.19012e-05
5.16197e-05
2.72631e-05
0.00965065
-0.00948846
0.00951885
-0.00962362
-1.76366e-05
-0.0116021
0.0117443
-2.72555e-07
-0.0141718
-4.75603e-05
-0.0165469
0.0166455
-1.78282e-05
-0.0195872
0.019291
-0.0221594
-6.88037e-06
-0.000152747
-5.43289e-05
1.71289e-05
3.1688e-05
0.000115878
0.000279153
0.000672232
0.00391806
-0.0023311
0.0567489
-0.00151738
-0.000257625
-0.0010749
-0.0112389
0.00252192
0.00653589
0.000507273
-0.000120803
-0.00577248
-0.000147238
0.000134371
0.000290135
2.46802e-05
3.18908e-05
0.000554167
0.00032243
-0.0184099
0.0162201
-0.000777252
-0.000472116
-0.000150488
0.00323435
-0.000865143
0.00265276
0.00433765
0.00775097
0.0149162
0.00327123
-0.00834208
0.00337473
-0.0115779
0.00268618
0.00123873
-0.00797689
0.000566293
-0.000135154
1.10722e-05
-2.7713e-05
1.11685e-05
0.000118244
-8.24545e-05
-0.00019618
-6.04455e-05
-0.000215519
-4.90423e-05
7.3691e-06
-2.54211e-06
1.23384e-05
-8.53466e-06
-1.92453e-06
-4.116e-05
4.87286e-06
6.47996e-05
0.000141465
0.000325382
0.00568925
0.0244026
0.0012882
-0.00320131
0.0156048
0.000768034
-0.00229075
-0.00150481
-0.0025084
0.0563926
-0.00124693
-0.000277027
0.000489219
0.00010919
0.000251077
-0.00526228
-0.00016403
-0.000157787
-0.00113583
-0.0113408
-0.0104633
-0.0067425
-0.0238877
0.00255886
0.00582017
0.000258295
-0.000333417
-0.000355566
-0.000213852
-0.0063829
-0.000342229
0.00311697
-0.00205952
0.00334848
-0.000229928
-0.00586253