/*--------------------------------*- C++ -*----------------------------------*\
| =========                 |                                                 |
| \\      /  F ield         | OpenFOAM: The Open Source CFD Toolbox           |
|  \\    /   O peration     | Version:  2306                                  |
|   \\  /    A nd           | Website:  www.openfoam.com                      |
|    \\/     M anipulation  |                                                 |
\*---------------------------------------------------------------------------*/
FoamFile
{
    version     2.0;
    format      ascii;
    arch        "LSB;label=32;scalar=64";
    class       volScalarField;
    location    "1.6";
    object      gradTz;
}
// * * * * * * * * * * * * * * * * * * * * * * * * * * * * * * * * * * * * * //

dimensions      [0 -1 0 1 0 0 0];

internalField   nonuniform List<scalar> 
5322
(
-0.0605207
-0.0543027
-0.0441297
-0.0476773
-0.0344927
-0.0237423
-0.0155222
-0.00965022
-0.00574724
-0.00338162
-0.00212982
-0.00173169
-0.00118493
-0.00170316
-0.00191311
-0.00167701
-0.00195271
-0.00160045
-0.00252158
-0.00317151
-0.00430012
-0.00551505
-0.00745761
-0.00953346
-0.0125762
-0.0155538
-0.0199622
-0.0243411
-0.0303297
-0.0357588
-0.043297
-0.0501801
-0.058633
-0.0648719
-0.0698169
-0.0622152
-0.0740258
-0.0726509
-0.0748413
-0.055247
-0.0693184
-0.0715597
-0.0541491
-0.0715749
-0.0708509
-0.0551226
-0.0726324
-0.0686839
-0.0545844
-0.0716011
-0.0821395
-0.0550504
-0.0773506
-0.0676276
-0.0596499
-0.0639414
-0.0799642
-0.0626641
-0.0596496
-0.0637299
-0.0807695
-0.0635026
-0.059627
-0.0621763
-0.0807874
-0.0658088
-0.0594473
-0.0591664
-0.0793444
-0.0703537
-0.0495703
-0.0723693
-0.0688618
-0.0678258
-0.0684532
-0.0681251
-0.0680766
-0.0679183
-0.0690563
-0.0660454
-0.0645344
-0.052778
-0.0547487
-0.0695235
-0.0443344
-0.0613293
-0.0910117
-0.0599524
-0.0598203
-0.0514796
-0.0632784
-0.0429416
-0.0452157
-0.045174
-0.0590859
-0.0580204
-0.0543564
-0.0587739
-0.0925085
-0.0581592
-0.0589
-0.0521794
-0.0592485
-0.0584669
-0.0638874
-0.05291
-0.0555018
-0.0481722
-0.0349192
-0.0240942
-0.0157492
-0.00976306
-0.00577228
-0.00335837
-0.00238644
-0.00196387
-0.00143286
-0.00151635
-0.00225467
-0.00164869
-0.00140791
-0.00163923
-0.00161591
-0.00223324
-0.00168528
-0.00219064
-0.00160119
-0.00167241
-0.0021581
-0.00160137
-0.00164297
-0.00218087
-0.00162722
-0.00161386
-0.00218928
-0.00164603
-0.00161992
-0.00224466
-0.00169237
-0.00219881
-0.00160995
-0.00141528
-0.00165282
-0.00149787
-0.0014372
-0.00225911
-0.00151948
-0.00151281
-0.00142297
-0.00143548
-0.00227703
-0.00151553
-0.00151028
-0.00142756
-0.0014328
-0.00227428
-0.0015142
-0.00149507
-0.00141152
-0.00191635
-0.00167736
-0.00195896
-0.00280154
-0.0034422
-0.0019062
-0.0025295
-0.00160428
-0.00198785
-0.00124184
-0.001647
-0.00170827
-0.00159487
-0.00185028
-0.00197559
-0.00177337
-0.00266673
-0.00264258
-0.00323632
-0.00237362
-0.00323618
-0.004351
-0.00435239
-0.00563937
-0.00409994
-0.00565195
-0.00749315
-0.00749599
-0.00965905
-0.00709464
-0.00967638
-0.0125517
-0.0125574
-0.0158228
-0.0117865
-0.0158552
-0.0200484
-0.0200691
-0.0246094
-0.0186112
-0.0246742
-0.030426
-0.030484
-0.0363022
-0.0278724
-0.0364164
-0.0437507
-0.0438814
-0.0507782
-0.0394161
-0.0509799
-0.0586859
-0.0588225
-0.0586762
-0.0925026
-0.058137
-0.0579618
-0.0523401
-0.0713012
-0.0711414
-0.0452194
-0.0452376
-0.0589792
-0.0585035
-0.0538967
-0.0595137
-0.0924488
-0.0585241
-0.0578919
-0.0524728
-0.0584298
-0.0587437
-0.0543142
-0.0542286
-0.0480828
-0.0349378
-0.0241331
-0.0157772
-0.00977912
-0.00578056
-0.0033624
-0.00238917
-0.00196694
-0.00143229
-0.00143202
-0.00143108
-0.00143045
-0.00227416
-0.00150992
-0.00151423
-0.00145492
-0.00164419
-0.00246164
-0.00151008
-0.00227565
-0.00151604
-0.00244542
-0.00167227
-0.00215667
-0.00160329
-0.00145624
-0.00164494
-0.00215753
-0.00117346
-0.00164727
-0.00177458
-0.0017727
-0.00185165
-0.00264346
-0.0032382
-0.00435519
-0.00564155
-0.00750211
-0.00966079
-0.0125684
-0.0158249
-0.0200883
-0.0246108
-0.0305205
-0.0362927
-0.0439543
-0.0507239
-0.0592404
-0.0579786
-0.0925551
-0.0590371
-0.0543494
-0.0585595
-0.0511251
-0.0394479
-0.0437529
-0.03648
-0.0278955
-0.0304532
-0.0246986
-0.0186248
-0.0200708
-0.0158643
-0.0117937
-0.0125663
-0.00967948
-0.00709848
-0.00750362
-0.0056516
-0.00410186
-0.00435914
-0.00323418
-0.00237405
-0.00267122
-0.00196498
-0.00267025
-0.00323604
-0.00237501
-0.00264579
-0.00185301
-0.001978
-0.00159428
-0.00118601
-0.00171628
-0.00168264
-0.00267293
-0.00323224
-0.00435003
-0.00565819
-0.00751236
-0.00968536
-0.0126139
-0.0158675
-0.0201885
-0.0246846
-0.0307532
-0.0363074
-0.044482
-0.0503358
-0.0596196
-0.0583803
-0.0915696
-0.0621212
-0.0527489
-0.0640867
-0.0554046
-0.0383792
-0.0476177
-0.039228
-0.0271017
-0.0329393
-0.0263957
-0.018049
-0.0216221
-0.0169007
-0.0114137
-0.0135173
-0.0102944
-0.00686372
-0.00804931
-0.00599615
-0.00396272
-0.00465282
-0.0034438
-0.00228772
-0.00280194
-0.00196152
-0.00192042
-0.00165075
-0.00168444
-0.00152385
-0.00199215
-0.00124075
-0.0014197
-0.00175532
-0.00164422
-0.00271415
-0.00334197
-0.00323556
-0.00323366
-0.00235772
-0.00263614
-0.00268527
-0.0017109
-0.00197482
-0.0018845
-0.00196408
-0.00191498
-0.0023513
-0.00178268
-0.00169613
-0.00243948
-0.00208723
-0.00196675
-0.00183493
-0.00178538
-0.00267209
-0.00323576
-0.00311752
-0.00436202
-0.00565251
-0.00750702
-0.0096792
-0.00907422
-0.012577
-0.0158536
-0.020104
-0.0246513
-0.022543
-0.0305376
-0.0363371
-0.0439186
-0.0508257
-0.0452439
-0.0452225
-0.032871
-0.0329144
-0.0227037
-0.0226192
-0.0307118
-0.0363872
-0.0279205
-0.0367886
-0.0437228
-0.0442825
-0.0505936
-0.0394357
-0.0517861
-0.0581134
-0.0657219
-0.0570702
-0.0932296
-0.0600004
-0.0568405
-0.054274
-0.0697237
-0.0429762
-0.0391647
-0.0535637
-0.0326972
-0.044045
-0.0371971
-0.0226347
-0.0306649
-0.0246886
-0.0149735
-0.0202325
-0.0157719
-0.00946009
-0.012597
-0.00951366
-0.00567818
-0.00750242
-0.00551243
-0.00327458
-0.00428616
-0.00314662
-0.00189931
-0.0025301
-0.00172514
-0.00165454
-0.00232303
-0.00224999
-0.00283081
-0.00392664
-0.00440641
-0.0058188
-0.00766286
-0.00995751
-0.00966144
-0.00970189
-0.00708189
-0.00752392
-0.00751765
-0.00566569
-0.00408873
-0.00562804
-0.00535317
-0.00514292
-0.00297634
-0.0025911
-0.00312603
-0.00290859
-0.00277527
-0.00329835
-0.00336128
-0.00212425
-0.00173567
-0.00122886
-0.00207441
-0.00117492
-0.00172969
-0.0020594
-0.00254312
-0.00429623
-0.00572309
-0.00572923
-0.00967069
-0.00976132
-0.00739796
-0.00685729
-0.00682157
-0.0087217
-0.0114775
-0.0129374
-0.01631
-0.0207612
-0.0253942
-0.0247756
-0.0247201
-0.0186199
-0.0201567
-0.0201785
-0.0158937
-0.0117782
-0.015871
-0.0147329
-0.0140673
-0.00870539
-0.00765543
-0.00908454
-0.00883563
-0.00842758
-0.00536297
-0.00505893
-0.00483474
-0.00503788
-0.003924
-0.00450053
-0.00440382
-0.00339801
-0.00214335
-0.00173945
-0.00171896
-0.00159705
-0.00194803
-0.00159971
-0.00259213
-0.00258435
-0.00323941
-0.00310683
-0.00435729
-0.0043591
-0.00565255
-0.00410433
-0.00564683
-0.00535054
-0.00750479
-0.00750843
-0.00967656
-0.00710459
-0.00967935
-0.00906206
-0.0125724
-0.0125858
-0.0158491
-0.0118075
-0.0158723
-0.014666
-0.0200909
-0.0201251
-0.024646
-0.0186513
-0.0247185
-0.0225411
-0.0304892
-0.0305921
-0.0363128
-0.027935
-0.0365247
-0.032856
-0.0437558
-0.0440565
-0.0507156
-0.0394612
-0.0511495
-0.0451418
-0.0585613
-0.0591063
-0.0586165
-0.054255
-0.0586478
-0.0527722
-0.0583067
-0.056239
-0.0506045
-0.0690029
-0.0451319
-0.0580855
-0.0436569
-0.0417621
-0.0503069
-0.0501493
-0.0455613
-0.048886
-0.0493641
-0.0426079
-0.0361979
-0.0354951
-0.0241518
-0.0245991
-0.0194995
-0.0158776
-0.0156531
-0.0155354
-0.00962739
-0.0057291
-0.00337484
-0.00212548
-0.00172641
-0.00119158
-0.00169926
-0.00150144
-0.00172888
-0.00174325
-0.00160745
-0.00166043
-0.00198232
-0.00145297
-0.0017818
-0.00169118
-0.00169701
-0.00179056
-0.00141228
-0.00177595
-0.00170176
-0.00170698
-0.00198469
-0.00140855
-0.00142225
-0.00142012
-0.00141086
-0.00140696
-0.00139578
-0.00230834
-0.00141816
-0.00140986
-0.00141013
-0.0023097
-0.00142019
-0.00200232
-0.00242244
-0.00240427
-0.00209079
-0.00208187
-0.00195395
-0.00313841
-0.00541788
-0.00916609
-0.0147946
-0.0226532
-0.0215722
-0.019168
-0.0226566
-0.022104
-0.0210953
-0.022608
-0.0280065
-0.0318907
-0.0371508
-0.0471933
-0.0395942
-0.0397823
-0.0306105
-0.0341802
-0.0273691
-0.0295584
-0.0299818
-0.0238807
-0.0348913
-0.0483958
-0.0645373
-0.0644166
-0.064878
-0.054418
-0.0498813
-0.052941
-0.059289
-0.0506918
-0.058215
-0.0847752
-0.0764747
-0.0739404
-0.0765342
-0.0484956
-0.0619126
-0.0648928
-0.0781359
-0.0498252
-0.0639713
-0.065148
-0.0785073
-0.0500426
-0.0631778
-0.0659904
-0.0783759
-0.0512912
-0.0626974
-0.0704268
-0.0978894
-0.0785554
-0.0768612
-0.097559
-0.0958179
-0.0758601
-0.0552393
-0.0773605
-0.067684
-0.0596238
-0.0638139
-0.0688275
-0.0546161
-0.0714866
-0.0821827
-0.0550383
-0.0645767
-0.052808
-0.0547953
-0.0695457
-0.0582675
-0.0432274
-0.0520905
-0.0434713
-0.0317412
-0.0365061
-0.0303623
-0.0217109
-0.0244903
-0.0200567
-0.0141334
-0.0156626
-0.0125713
-0.00872075
-0.00953711
-0.00749145
-0.0051404
-0.00554383
-0.00431136
-0.00289736
-0.00318626
-0.00253051
-0.00174286
-0.00198988
-0.00151378
-0.00167794
-0.0016456
-0.00195909
-0.00280461
-0.00344413
-0.00228669
-0.00267553
-0.00167811
-0.00191805
-0.00171268
-0.00118448
-0.00159097
-0.00164754
-0.00197717
-0.00173729
-0.00174432
-0.00214918
-0.00340328
-0.00577428
-0.00577616
-0.00972375
-0.0157048
-0.0147087
-0.0140758
-0.0134717
-0.0144888
-0.0185033
-0.0180399
-0.0113772
-0.0122966
-0.0124909
-0.01261
-0.0126101
-0.00909687
-0.00968316
-0.0125614
-0.0118067
-0.0158721
-0.0200688
-0.0186459
-0.0247074
-0.0304538
-0.0279146
-0.0364609
-0.043745
-0.039423
-0.0509204
-0.0423718
-0.0430391
-0.0564329
-0.0565125
-0.0485825
-0.0348584
-0.0238558
-0.0155312
-0.00963394
-0.00573807
-0.00338134
-0.00213463
-0.00173564
-0.00118573
-0.00164653
-0.00173404
-0.0017326
-0.00213344
-0.00338474
-0.00575282
-0.00967236
-0.0155987
-0.0239565
-0.0350052
-0.0486897
-0.065602
-0.0651331
-0.0544893
-0.104784
-0.0768089
-0.0736552
-0.0651947
-0.0784771
-0.0501047
-0.0502411
-0.0544615
-0.0808803
-0.0518124
-0.0526067
-0.0536357
-0.081327
-0.0520501
-0.0528388
-0.0533036
-0.0812075
-0.0535451
-0.0544826
-0.0601212
-0.103371
-0.079507
-0.0775572
-0.0778998
-0.0772322
-0.0613106
-0.0569825
-0.0603844
-0.102991
-0.0596966
-0.0622834
-0.0807167
-0.0635858
-0.0595842
-0.0620626
-0.0719528
-0.0541132
-0.0711771
-0.0712149
-0.0552492
-0.0723638
-0.0628349
-0.0596203
-0.0634991
-0.068181
-0.0679512
-0.0685412
-0.0676526
-0.0596531
-0.0598808
-0.0651987
-0.0808689
-0.0697717
-0.0557649
-0.0743096
-0.0653603
-0.0557594
-0.0897399
-0.0481987
-0.0622302
-0.0515516
-0.0592723
-0.0528471
-0.0408559
-0.0461902
-0.039349
-0.0303993
-0.0327981
-0.0276852
-0.0204531
-0.0223763
-0.0181687
-0.0136399
-0.014262
-0.011487
-0.00820049
-0.00876233
-0.00679073
-0.00493511
-0.00504325
-0.00393886
-0.00274889
-0.00286863
-0.00230502
-0.0016583
-0.00175357
-0.00116605
-0.00205741
-0.00149617
-0.00122397
-0.00223247
-0.00161365
-0.00168245
-0.002184
-0.00160049
-0.00166638
-0.00215148
-0.00159621
-0.00164182
-0.0021756
-0.0016275
-0.00160581
-0.00218205
-0.00119218
-0.00160252
-0.00197923
-0.00177743
-0.0019625
-0.00266129
-0.00236984
-0.00323217
-0.00322909
-0.00309963
-0.00433799
-0.00395139
-0.00563887
-0.00597997
-0.00449378
-0.00802612
-0.00565961
-0.0102463
-0.00762083
-0.0134324
-0.00938919
-0.016804
-0.0123284
-0.0214241
-0.0148224
-0.0261477
-0.0189237
-0.0323816
-0.0221662
-0.038641
-0.0275732
-0.0464548
-0.0315066
-0.0542515
-0.0381454
-0.0625855
-0.0423174
-0.0497872
-0.0595071
-0.0581435
-0.0453756
-0.0520109
-0.037648
-0.0445311
-0.0432276
-0.0327508
-0.0371953
-0.0265618
-0.0310028
-0.0301941
-0.0224813
-0.0252038
-0.0177798
-0.0205092
-0.0199815
-0.0146417
-0.0162265
-0.0112661
-0.0128383
-0.0125424
-0.00905564
-0.00989914
-0.00679266
-0.00766136
-0.0074976
-0.00534485
-0.00579289
-0.00391651
-0.00441612
-0.00435139
-0.00310084
-0.00331941
-0.00225161
-0.00272198
-0.00262863
-0.00195947
-0.00163268
-0.00141286
-0.00123722
-0.00164374
-0.00167578
-0.00151014
-0.00198401
-0.0017318
-0.00193905
-0.00159636
-0.00171728
-0.00173392
-0.00163893
-0.00197278
-0.00177121
-0.00184385
-0.00194833
-0.00266458
-0.00228251
-0.00343488
-0.00259132
-0.00464287
-0.00326966
-0.00440477
-0.00259491
-0.00258719
-0.00264151
-0.00207637
-0.00243604
-0.0015112
-0.002271
-0.00150825
-0.00144999
-0.00177565
-0.00170242
-0.00168719
-0.00170566
-0.00170163
-0.00246106
-0.00209048
-0.00196466
-0.00314796
-0.00314811
-0.00312422
-0.00436502
-0.00436346
-0.0031034
-0.00439325
-0.00260162
-0.00259598
-0.00264787
-0.00237765
-0.00324482
-0.00435255
-0.0041059
-0.00565413
-0.0074984
-0.00710542
-0.00776374
-0.0054319
-0.00537541
-0.009188
-0.0148282
-0.0147175
-0.0148114
-0.00918101
-0.00542938
-0.00536446
-0.00541031
-0.00313484
-0.00310348
-0.00322403
-0.00434612
-0.00464955
-0.00598848
-0.00803432
-0.010259
-0.00566857
-0.00749254
-0.00449875
-0.00553881
-0.00327801
-0.00431176
-0.0025963
-0.00318308
-0.00289101
-0.00276348
-0.0039407
-0.00392715
-0.00506876
-0.00579739
-0.00535359
-0.00750338
-0.00705557
-0.009631
-0.00966911
-0.00907188
-0.0125082
-0.0117469
-0.015794
-0.0158003
-0.0146192
-0.0199233
-0.0184913
-0.0245316
-0.0245466
-0.0223904
-0.030209
-0.0267189
-0.0361744
-0.043291
-0.0378202
-0.0507114
-0.057663
-0.0500985
-0.0557353
-0.048296
-0.0349382
-0.0240864
-0.01574
-0.00975672
-0.00576825
-0.00335603
-0.00238448
-0.00196159
-0.00143009
-0.00142487
-0.00143224
-0.00151224
-0.00245521
-0.00208753
-0.00208411
-0.00243226
-0.00151018
-0.00144899
-0.00178021
-0.00169167
-0.00177805
-0.00169241
-0.00244117
-0.00207889
-0.0019509
-0.00267101
-0.00228702
-0.0025654
-0.00254161
-0.00240467
-0.00198418
-0.00141128
-0.00140728
-0.00230951
-0.00139621
-0.00141996
-0.0022731
-0.0025417
-0.00314274
-0.00297362
-0.00191174
-0.00234295
-0.00273357
-0.0019649
-0.00262982
-0.00235429
-0.00323714
-0.0032244
-0.00312118
-0.00434605
-0.00409709
-0.00564026
-0.00535737
-0.00747906
-0.00707668
-0.00965047
-0.0096412
-0.0090314
-0.012531
-0.011344
-0.0157886
-0.0199787
-0.0178807
-0.0245354
-0.0225632
-0.0147398
-0.00913802
-0.00540387
-0.00313104
-0.00253824
-0.00240215
-0.0019817
-0.00251947
-0.00338
-0.00254571
-0.002569
-0.00254222
-0.00252085
-0.00337926
-0.00314644
-0.00311797
-0.0054278
-0.00536458
-0.00917901
-0.00907556
-0.00969743
-0.0156376
-0.0240249
-0.0241571
-0.03533
-0.0330912
-0.0321072
-0.0452637
-0.0580663
-0.0503323
-0.0725494
-0.0557829
-0.10731
-0.0753801
-0.0740351
-0.0689608
-0.0855265
-0.0782368
-0.0808001
-0.07784
-0.106667
-0.0744416
-0.073556
-0.0651432
-0.0781282
-0.049962
-0.0509899
-0.055071
-0.0804433
-0.0515903
-0.0535045
-0.054436
-0.0808845
-0.0518301
-0.0535806
-0.0542544
-0.080757
-0.0534333
-0.0548741
-0.0750242
-0.0555111
-0.0452269
-0.0451933
-0.0510285
-0.0543897
-0.0381975
-0.047248
-0.0320595
-0.0383542
-0.0455099
-0.0328014
-0.0429901
-0.0512964
-0.0454039
-0.0572458
-0.0622647
-0.0510014
-0.0478729
-0.0412914
-0.0515449
-0.0506983
-0.0660336
-0.069126
-0.0678128
-0.0578822
-0.0451806
-0.0572948
-0.051474
-0.0575566
-0.0451088
-0.0572835
-0.051525
-0.0576305
-0.04525
-0.0573659
-0.0690209
-0.0675063
-0.0597764
-0.0560994
-0.0673789
-0.0812918
-0.0612246
-0.0783372
-0.0794994
-0.0763343
-0.0622596
-0.0596991
-0.0601198
-0.102468
-0.060394
-0.0671259
-0.0991335
-0.0802893
-0.0768918
-0.0612557
-0.0596569
-0.075297
-0.0545447
-0.0543166
-0.0745044
-0.0544911
-0.0483348
-0.0481803
-0.0349268
-0.0241005
-0.0157533
-0.00976554
-0.00577359
-0.00335906
-0.00238686
-0.00196423
-0.00139643
-0.00140828
-0.0017839
-0.00168745
-0.00169386
-0.00215308
-0.00166962
-0.00141193
-0.00149578
-0.0016488
-0.00151687
-0.00140869
-0.00161626
-0.00223751
-0.00168633
-0.00234338
-0.00160395
-0.00218866
-0.00177887
-0.00178896
-0.00169198
-0.00243334
-0.00151062
-0.00151312
-0.00227389
-0.00142924
-0.00142847
-0.00151367
-0.00150845
-0.00144715
-0.00162804
-0.00220214
-0.00162971
-0.0024549
-0.00208788
-0.00208415
-0.00191254
-0.00160653
-0.00195056
-0.0015967
-0.00172345
-0.00173851
-0.00214335
-0.00340228
-0.00578102
-0.00971707
-0.0156677
-0.024059
-0.035146
-0.0351133
-0.0489118
-0.049034
-0.065092
-0.054981
-0.0577198
-0.058014
-0.0926105
-0.0669269
-0.074408
-0.0767517
-0.104503
-0.0542929
-0.0579358
-0.0580864
-0.0553556
-0.0589019
-0.0599053
-0.0910257
-0.059415
-0.0613309
-0.0515075
-0.0598238
-0.0704751
-0.0566405
-0.045008
-0.0488544
-0.065702
-0.0654895
-0.0562939
-0.0566443
-0.0436224
-0.0302403
-0.0199261
-0.0125582
-0.00756556
-0.007466
-0.00435855
-0.00435977
-0.0025862
-0.00260049
-0.00314016
-0.00538081
-0.00907533
-0.0146413
-0.0224694
-0.0327418
-0.0427875
-0.0421823
-0.0423434
-0.0295809
-0.0196055
-0.0123782
-0.0123606
-0.00746216
-0.00755538
-0.00441002
-0.00435307
-0.00465452
-0.0059915
-0.00804196
-0.0102635
-0.00684755
-0.00750492
-0.00564891
-0.0039578
-0.00454692
-0.00313554
-0.00310659
-0.00322544
-0.00208013
-0.00244091
-0.00160191
-0.00195341
-0.00254082
-0.00256614
-0.00225516
-0.00143337
-0.00142267
-0.0017822
-0.0017013
-0.00171877
-0.00178415
-0.0013971
-0.00231106
-0.00178374
-0.00177691
-0.00145353
-0.0017886
-0.0017836
-0.00168411
-0.00168911
-0.00169667
-0.00177525
-0.00168936
-0.00169648
-0.00178166
-0.00178731
-0.00143
-0.00151585
-0.00164523
-0.0022515
-0.00149385
-0.00140819
-0.00256261
-0.00254211
-0.00240293
-0.00198149
-0.00251969
-0.00254339
-0.00314399
-0.00297504
-0.00259968
-0.00513681
-0.00450413
-0.00541154
-0.0053487
-0.00915211
-0.00905185
-0.00967062
-0.0125747
-0.0134771
-0.0168224
-0.0215298
-0.02619
-0.0179624
-0.0200803
-0.0158474
-0.0113737
-0.0130035
-0.00868389
-0.00763777
-0.0140091
-0.012362
-0.0147672
-0.014639
-0.0148092
-0.014678
-0.0226688
-0.0225538
-0.0328737
-0.0328439
-0.0313305
-0.0282057
-0.0331692
-0.0306154
-0.0205248
-0.0130382
-0.0078684
-0.00455328
-0.00449534
-0.00442911
-0.00580209
-0.00775596
-0.00762241
-0.00981193
-0.0128398
-0.0126065
-0.00981276
-0.00580277
-0.00450041
-0.00449288
-0.0044261
-0.00339715
-0.00582141
-0.00984054
-0.015867
-0.0158255
-0.0201887
-0.0197988
-0.0242002
-0.0300698
-0.0294471
-0.0350331
-0.0422968
-0.0431052
-0.0451282
-0.0709269
-0.050683
-0.0749474
-0.055455
-0.0542005
-0.071286
-0.0532444
-0.0740601
-0.0776067
-0.0809021
-0.0775814
-0.105873
-0.0743627
-0.0671356
-0.0630967
-0.0811565
-0.0820596
-0.059906
-0.0673338
-0.0782047
-0.0820078
-0.0759975
-0.0743479
-0.10526
-0.0779176
-0.0811502
-0.0813427
-0.0815538
-0.0811989
-0.0776081
-0.0812344
-0.0725825
-0.0659925
-0.0783774
-0.0513169
-0.0500322
-0.0542651
-0.0807788
-0.0533894
-0.0523847
-0.0533163
-0.0812525
-0.0534537
-0.0526248
-0.0529722
-0.081093
-0.0546791
-0.0602615
-0.102797
-0.0818109
-0.076543
-0.0624949
-0.0596282
-0.0745244
-0.0544663
-0.0483271
-0.0350331
-0.0241764
-0.0158065
-0.0098005
-0.00579588
-0.00337634
-0.0044925
-0.00454536
-0.0039584
-0.00564531
-0.00749538
-0.00684897
-0.00966382
-0.0125611
-0.0134656
-0.0168158
-0.0215135
-0.0261812
-0.014874
-0.0200643
-0.0123499
-0.0156609
-0.00941462
-0.0125754
-0.00762967
-0.00953329
-0.00870924
-0.00831937
-0.011453
-0.0112936
-0.0143447
-0.0162279
-0.0146558
-0.0199844
-0.018451
-0.0245778
-0.0245697
-0.0224636
-0.0300559
-0.0276031
-0.0361624
-0.0326269
-0.0430499
-0.0389934
-0.050686
-0.0507861
-0.0451348
-0.057668
-0.0515235
-0.0574328
-0.0575052
-0.0451433
-0.050682
-0.0507259
-0.0573581
-0.0514621
-0.0543684
-0.0452907
-0.0328039
-0.0226104
-0.0147761
-0.00916276
-0.00542042
-0.00513401
-0.00867911
-0.00915001
-0.00904544
-0.0147635
-0.0146293
-0.0158355
-0.0200613
-0.0179667
-0.0246521
-0.0304504
-0.0326873
-0.0387189
-0.0472138
-0.0544018
-0.032055
-0.0434985
-0.0278107
-0.0365129
-0.0223547
-0.0303765
-0.0189999
-0.0244929
-0.0216892
-0.0207121
-0.0276548
-0.0267901
-0.0333217
-0.0369964
-0.0328022
-0.0429933
-0.0389172
-0.0512579
-0.0505282
-0.045185
-0.0578341
-0.0512574
-0.0572712
-0.0622348
-0.0454114
-0.050989
-0.0478287
-0.0515073
-0.0506634
-0.0536814
-0.048448
-0.0412458
-0.0431928
-0.0520977
-0.0583019
-0.0385376
-0.0448947
-0.0326426
-0.0223959
-0.0145904
-0.00904121
-0.00535846
-0.00312605
-0.00194277
-0.00159663
-0.00167899
-0.00151333
-0.00116862
-0.00141676
-0.00175853
-0.0016349
-0.00206332
-0.00122383
-0.00149418
-0.00197143
-0.00188046
-0.00170483
-0.001965
-0.00264259
-0.00237367
-0.00322803
-0.00311385
-0.00434461
-0.00409267
-0.00564245
-0.00562893
-0.00533828
-0.00748295
-0.00683576
-0.0096455
-0.00754007
-0.00744905
-0.00748332
-0.00436164
-0.00434927
-0.00338039
-0.00337703
-0.00212285
-0.00172509
-0.00173266
-0.0016964
-0.00173411
-0.00173342
-0.00206304
-0.00166617
-0.00230744
-0.00225899
-0.00332238
-0.00310773
-0.004355
-0.00407957
-0.00562354
-0.00565023
-0.00536804
-0.00748161
-0.00708235
-0.00965452
-0.00905412
-0.0125093
-0.0117397
-0.01579
-0.0157888
-0.0145934
-0.0199228
-0.0192536
-0.0122788
-0.012511
-0.00960868
-0.00960076
-0.00572957
-0.00439477
-0.00436387
-0.0026072
-0.00268583
-0.00212694
-0.00255672
-0.00288173
-0.00331393
-0.00337145
-0.00431204
-0.00443251
-0.00573732
-0.00490115
-0.00682398
-0.00680136
-0.00991237
-0.00906469
-0.0125494
-0.0117075
-0.0157831
-0.0158219
-0.0146494
-0.0199128
-0.0185
-0.0245439
-0.0224177
-0.0300922
-0.0276009
-0.0361563
-0.0362075
-0.0326069
-0.0430444
-0.032764
-0.0300029
-0.0201335
-0.0197811
-0.0158117
-0.00980372
-0.00579778
-0.00337766
-0.00442656
-0.00449246
-0.0077501
-0.0078531
-0.00542296
-0.00916742
-0.0147837
-0.0204563
-0.0201724
-0.012829
-0.0125988
-0.00761772
-0.00775183
-0.0044948
-0.00409936
-0.00435625
-0.00311443
-0.00434981
-0.00564664
-0.00535955
-0.00748244
-0.00749069
-0.00564312
-0.00564545
-0.00536928
-0.0074837
-0.00750287
-0.00565143
-0.00436299
-0.00312103
-0.00434794
-0.00324079
-0.00323088
-0.00323401
-0.00323405
-0.00311711
-0.00435155
-0.00434873
-0.00409729
-0.0056365
-0.00536371
-0.00748795
-0.00748389
-0.00708331
-0.00964654
-0.00906743
-0.0125268
-0.0125113
-0.0125088
-0.0125207
-0.0090566
-0.00966101
-0.00965663
-0.0070862
-0.00965842
-0.00907494
-0.0125104
-0.0125494
-0.00967088
-0.00706189
-0.00750477
-0.00768168
-0.00535409
-0.00562675
-0.00408302
-0.0043555
-0.00443773
-0.00310758
-0.0032382
-0.00322554
-0.00268374
-0.00196415
-0.00264401
-0.00237532
-0.00266918
-0.0019629
-0.00266389
-0.0023739
-0.00264577
-0.00196155
-0.00267551
-0.0032246
-0.00322769
-0.00235183
-0.00260397
-0.0021111
-0.00172026
-0.00119436
-0.00168751
-0.00161113
-0.00165052
-0.00165405
-0.00119056
-0.0017223
-0.00174429
-0.00160959
-0.00169224
-0.00119573
-0.00219079
-0.00164143
-0.00160345
-0.0014484
-0.00197896
-0.0018316
-0.00177839
-0.00178126
-0.00182639
-0.00170733
-0.00187316
-0.00196781
-0.00140548
-0.00163841
-0.00218709
-0.00160315
-0.00243023
-0.00208202
-0.00314103
-0.00314548
-0.00542349
-0.00916737
-0.0128273
-0.0117528
-0.0158004
-0.014621
-0.019916
-0.0199371
-0.0199146
-0.0200014
-0.0146535
-0.0158087
-0.015824
-0.0117186
-0.0125518
-0.0128835
-0.00906578
-0.00963753
-0.00991606
-0.00680983
-0.00683275
-0.00875462
-0.00833297
-0.0114662
-0.0143645
-0.013507
-0.0182952
-0.0224189
-0.0207421
-0.0276853
-0.0333587
-0.0302676
-0.0393766
-0.040745
-0.0352767
-0.0287098
-0.0241912
-0.0192052
-0.0157416
-0.0122118
-0.00973291
-0.00739255
-0.00574362
-0.00490714
-0.00507879
-0.00579852
-0.0039326
-0.00394461
-0.00288694
-0.00276928
-0.00331692
-0.00431506
-0.00255768
-0.00230993
-0.00226215
-0.00273546
-0.00196423
-0.00263013
-0.00235602
-0.00260975
-0.00212347
-0.00173418
-0.00122537
-0.00149692
-0.00206333
-0.00116934
-0.00176072
-0.00166715
-0.00206314
-0.00173359
-0.00141787
-0.00163559
-0.00187974
-0.00170741
-0.0019712
-0.00173214
-0.00172216
-0.00211458
-0.00336514
-0.00336666
-0.00573009
-0.00963278
-0.0155106
-0.0146572
-0.0199886
-0.0205819
-0.0162346
-0.015794
-0.0123935
-0.00751479
-0.00440168
-0.00438964
-0.00571259
-0.00957294
-0.0153814
-0.0194631
-0.0184686
-0.0245704
-0.0224691
-0.0300531
-0.0302597
-0.0301632
-0.0312989
-0.0225045
-0.0245954
-0.0252169
-0.0178562
-0.0148795
-0.0197711
-0.0195532
-0.0294596
-0.0298086
-0.0304718
-0.0327116
-0.0387248
-0.0278329
-0.0311599
-0.0214541
-0.0190167
-0.0226114
-0.022492
-0.0246738
-0.032818
-0.0328068
-0.0364403
-0.0269295
-0.0305074
-0.0226211
-0.0328162
-0.0430236
-0.0423192
-0.0300556
-0.029444
-0.019789
-0.0201609
-0.0241837
-0.0242558
-0.0242008
-0.0158264
-0.0128518
-0.0128289
-0.00775043
-0.00761687
-0.00774777
-0.00785014
-0.0129985
-0.0113767
-0.0125175
-0.00755829
-0.0074713
-0.00749447
-0.00752871
-0.00437728
-0.00436388
-0.00258726
-0.00259851
-0.00171948
-0.00440967
-0.0124214
-0.0123773
-0.019579
-0.0196628
-0.0198088
-0.0296314
-0.029495
-0.0298389
-0.0197887
-0.0363991
-0.0438354
-0.0382089
-0.0509516
-0.0428352
-0.04223
-0.0563952
-0.0565505
-0.0566012
-0.0705801
-0.095873
-0.0975143
-0.0552325
-0.0704088
-0.0979074
-0.0785396
-0.0613266
-0.0772084
-0.0780628
-0.062381
-0.0601019
-0.10355
-0.0800337
-0.0774163
-0.101107
-0.086336
-0.0864175
-0.08138
-0.0776391
-0.0534744
-0.074253
-0.0543095
-0.048223
-0.0350331
-0.0300925
-0.0202061
-0.020171
-0.0226696
-0.0226055
-0.0224767
-0.0328097
-0.032787
-0.0311469
-0.0214434
-0.0140016
-0.020563
-0.0252062
-0.0225024
-0.0301586
-0.0275587
-0.0363776
-0.0361538
-0.0326883
-0.0429467
-0.0389687
-0.0430567
-0.0327882
-0.0226
-0.0201509
-0.0204482
-0.0304963
-0.0269367
-0.0300522
-0.0294403
-0.0197863
-0.0125971
-0.0128206
-0.00916129
-0.00541981
-0.00314299
-0.00435847
-0.00437627
-0.00564224
-0.002598
-0.00324012
-0.00267107
-0.00174456
-0.00183286
-0.00165659
-0.0011808
-0.00173208
-0.0021312
-0.00746838
-0.00750168
-0.0075017
-0.00573634
-0.00738692
-0.00874131
-0.00972238
-0.0096424
-0.0122025
-0.0128706
-0.0157252
-0.0134879
-0.0182742
-0.0178353
-0.0223899
-0.0191903
-0.0241665
-0.0237883
-0.015526
-0.0123709
-0.0125457
-0.0123059
-0.0125191
-0.0154266
-0.0194263
-0.0199939
-0.0192941
-0.0245468
-0.0235863
-0.0289506
-0.0302456
-0.0286894
-0.0312728
-0.0352442
-0.0302277
-0.0393389
-0.0383214
-0.0454792
-0.0407222
-0.0346549
-0.0479158
-0.0601563
-0.0601078
-0.060767
-0.0659264
-0.0621465
-0.0537452
-0.0408539
-0.0433613
-0.0342561
-0.0472913
-0.0594993
-0.0669002
-0.0632148
-0.0532254
-0.0402906
-0.0286636
-0.0361951
-0.030105
-0.0235956
-0.0154359
-0.0342656
-0.0473354
-0.0596234
-0.0672024
-0.0632778
-0.0532307
-0.040245
-0.0286088
-0.0300899
-0.0290895
-0.0195387
-0.0124462
-0.00901504
-0.0053483
-0.00311957
-0.00287342
-0.00517557
-0.0145206
-0.0221929
-0.0321841
-0.0410343
-0.0539772
-0.0599991
-0.068469
-0.0630165
-0.0516164
-0.0576138
-0.06164
-0.0595037
-0.0474168
-0.0470793
-0.0341141
-0.0234887
-0.0153611
-0.00955837
-0.00570227
-0.0033586
-0.00336178
-0.00211686
-0.00260442
-0.0026025
-0.00174279
-0.00197775
-0.00172779
-0.00172992
-0.00211638
-0.00335502
-0.0043944
-0.00407694
-0.00561256
-0.00564922
-0.00541858
-0.00449266
-0.00442413
-0.00251854
-0.00448675
-0.00454101
-0.00296984
-0.00190871
-0.00233911
-0.00279757
-0.00189997
-0.00512895
-0.00784376
-0.00774851
-0.00761348
-0.00773901
-0.0128074
-0.0125921
-0.0128227
-0.00916116
-0.0147759
-0.014781
-0.0226124
-0.0300308
-0.0276153
-0.0301149
-0.022417
-0.0300681
-0.0362087
-0.0326198
-0.0429778
-0.0430791
-0.0361392
-0.0362336
-0.0326915
-0.0429264
-0.0433855
-0.0361469
-0.0275842
-0.0364036
-0.0370103
-0.0268199
-0.022361
-0.0290055
-0.0237649
-0.0346208
-0.0478636
-0.048477
-0.0536918
-0.0601049
-0.0607814
-0.0600956
-0.0659543
-0.0621418
-0.0538101
-0.040926
-0.0341556
-0.0235174
-0.0287462
-0.019352
-0.0245711
-0.0245389
-0.024563
-0.0245405
-0.0224661
-0.0301632
-0.0300885
-0.0276151
-0.0361746
-0.0327101
-0.0431617
-0.0430446
-0.0390003
-0.0506713
-0.0508793
-0.0507566
-0.0389533
-0.0430256
-0.0423423
-0.0350413
-0.0351051
-0.0413639
-0.0482233
-0.0452303
-0.0452722
-0.0712712
-0.0524736
-0.0501723
-0.0740908
-0.0775276
-0.0809848
-0.0776385
-0.0812935
-0.0815918
-0.0771115
-0.0525262
-0.0731447
-0.0526314
-0.0716201
-0.07192
-0.0716252
-0.0718755
-0.0713906
-0.0626598
-0.0804487
-0.105302
-0.0554839
-0.0782272
-0.0851088
-0.0811877
-0.0864697
-0.0811503
-0.0768748
-0.102386
-0.0797834
-0.0548711
-0.0603358
-0.103056
-0.0597527
-0.0743699
-0.0546143
-0.0722479
-0.0527606
-0.0483116
-0.0413933
-0.0423136
-0.0423221
-0.0430112
-0.0422911
-0.0300177
-0.0423041
-0.0414323
-0.0294435
-0.0300352
-0.0201567
-0.0204298
-0.0226161
-0.0328368
-0.0328006
-0.0423036
-0.045299
-0.0429536
-0.0385605
-0.0639376
-0.0443428
-0.0565164
-0.0583976
-0.0528728
-0.0563322
-0.0632752
-0.0713876
-0.0522389
-0.0500175
-0.0742745
-0.0543155
-0.0527638
-0.0718708
-0.0523781
-0.0733421
-0.0772264
-0.0776129
-0.0811827
-0.0727255
-0.0804133
-0.105236
-0.0782194
-0.0812108
-0.0813907
-0.0815061
-0.0817088
-0.0772215
-0.0528463
-0.0733415
-0.0792709
-0.0815588
-0.0792308
-0.077349
-0.05272
-0.0735429
-0.0528964
-0.0722413
-0.0724785
-0.0653456
-0.0453297
-0.0452919
-0.0651757
-0.064859
-0.0430805
-0.0454234
-0.0452952
-0.0543737
-0.0648283
-0.0650876
-0.065378
-0.0603116
-0.0705625
-0.0529078
-0.0401655
-0.034405
-0.0236794
-0.0154721
-0.00961013
-0.00571367
-0.00750577
-0.00966662
-0.0096192
-0.00705391
-0.00867351
-0.0129876
-0.0117055
-0.0157618
-0.0158227
-0.0146459
-0.0199616
-0.0199222
-0.0157908
-0.0117489
-0.0158089
-0.0123382
-0.00955745
-0.0057067
-0.00749145
-0.0074883
-0.00438724
-0.0123434
-0.0153486
-0.0234597
-0.0340624
-0.0403934
-0.0507898
-0.0506061
-0.0507754
-0.040352
-0.028718
-0.0193397
-0.0185042
-0.0194164
-0.0245889
-0.0245228
-0.0184475
-0.0214239
-0.0139896
-0.0304721
-0.0275527
-0.0361921
-0.036261
-0.0288688
-0.0284764
-0.0191271
-0.0121801
-0.00737428
-0.00430003
-0.00254723
-0.00172764
-0.00205611
-0.00330566
-0.00573139
-0.0097124
-0.0123773
-0.0157122
-0.0240873
-0.0350365
-0.0406414
-0.0535771
-0.0513981
-0.0533088
-0.0470112
-0.0471431
-0.0593343
-0.0668407
-0.0631812
-0.0533212
-0.0592197
-0.0666417
-0.0633949
-0.0592194
-0.0677318
-0.0632288
-0.0675954
-0.0311263