/*--------------------------------*- C++ -*----------------------------------*\
| =========                 |                                                 |
| \\      /  F ield         | OpenFOAM: The Open Source CFD Toolbox           |
|  \\    /   O peration     | Version:  2306                                  |
|   \\  /    A nd           | Website:  www.openfoam.com                      |
|    \\/     M anipulation  |                                                 |
\*---------------------------------------------------------------------------*/
FoamFile
{
    version     2.0;
    format      ascii;
    arch        "LSB;label=32;scalar=64";
    class       volScalarField;
    location    "1.6";
    object      gradTy;
}
// * * * * * * * * * * * * * * * * * * * * * * * * * * * * * * * * * * * * * //

dimensions      [0 -1 0 1 0 0 0];

internalField   nonuniform List<scalar> 
5322
(
0.649961
0.0610741
-0.00441071
-0.0272579
-0.0150886
-0.00533123
-0.000153206
0.00484311
0.0141569
0.0258199
0.000241501
-0.192247
-0.213672
-0.191801
-0.166502
0.360336
0.481983
-0.000749843
0.332827
-0.394588
0.375287
-0.381265
0.374014
-0.382806
0.38149
-0.374269
0.37392
-0.381759
0.380713
-0.376095
0.378457
-0.378507
0.390875
-0.335832
0.322181
-0.16107
0.316446
0.397223
0.198407
0.214819
0.293163
0.244851
0.253448
0.273644
0.260891
0.258318
0.26505
0.283162
0.26236
0.250545
0.314312
0.152181
0.170356
-0.561511
-0.0306419
-0.324908
0.170781
-0.4261
-0.0242553
-0.370329
0.173409
-0.419035
-0.0216563
-0.367579
0.174107
-0.43363
-0.0278929
-0.35549
0.175727
-0.477041
0.0167906
0.419148
0.233467
0.326162
0.243635
0.30857
0.257483
0.307209
0.260851
0.36088
0.0328638
0.121354
0.183413
0.305302
-0.0259914
-0.127559
0.0362903
0.0713705
0.1322
0.0151604
0.0345985
0.00638933
0.00100633
0.00118388
0.444244
-0.237194
0.00714437
0.239139
0.00649099
-0.00624687
0.0326245
0.00638799
0.253202
-0.433125
0.387582
0.00522113
-0.00741324
-0.00138384
-0.000229832
0.000412837
0.00047001
0.000577496
0.00132005
0.00265046
-0.00450054
0.00117891
0.137046
-0.0563729
-0.0193691
-0.105776
0.130091
-0.0724071
-0.141092
-0.192998
-0.218093
-0.00878641
0.159854
-0.120627
0.0113024
0.131742
-0.13122
0.00552749
0.136952
-0.140424
-0.00443605
0.127902
-0.153428
-0.0122166
-0.0354097
0.234895
0.194602
-0.127535
0.0845614
0.0657331
-0.134441
0.0144895
-0.131727
0.103329
0.106189
-0.117088
-0.00177016
-0.109263
0.109665
0.118371
-0.106341
-0.00035811
-0.101647
0.129037
-0.0084176
-0.00636725
0.405496
-0.317807
0.351415
-0.37318
0.0126104
-0.24082
-0.00515724
-0.00220273
-0.045074
0.116342
-0.232787
0.231606
-0.388789
0.000886621
0.397104
-0.392311
0.408444
-0.417427
0.0017353
0.411232
-0.421329
0.436996
-0.435683
0.00162002
0.426006
-0.428944
0.442767
-0.440963
0.000991662
0.430687
-0.431804
0.444824
-0.442973
0.000833569
0.432789
-0.434225
0.447199
-0.443834
0.00108384
0.433727
-0.437019
0.450278
-0.442875
0.00142897
0.432171
-0.438387
0.451579
-0.43387
0.00183994
0.421435
-0.43394
0.437561
-0.237159
-0.00106347
-0.0174838
0.00727748
-0.00705013
-0.000433861
0.00278094
0.00368632
1.70417e-05
0.445213
-0.236073
0.00199964
0.281434
-0.0382316
-0.0112413
0.00928779
-0.0138529
0.238437
-0.438417
0.00254586
0.00195404
0.00548932
0.00355273
0.00189813
0.000854758
6.02636e-05
-0.00116932
-0.00294939
0.00438817
-0.0015781
-0.110323
-0.117507
-0.11756
-0.110579
0.0225903
0.0389344
0.0245477
-0.148559
0.0779257
-0.157544
0.0390252
0.0226348
0.0245941
-0.155698
0.0542192
0.14897
0.0961711
-0.148502
0.0780852
0.161715
0.225797
0.238498
-0.390653
-0.389767
-0.419487
0.304324
-0.37755
0.346498
-0.371017
0.358879
-0.369622
0.363347
-0.371399
0.36431
-0.376836
0.362789
-0.385821
0.35909
-0.394437
0.351588
-0.0774047
0.166868
-0.053056
-0.00917619
0.30439
-0.363234
0.00353893
0.325616
-0.364406
0.00161911
0.33647
-0.357938
0.000747872
0.34142
-0.352194
0.000177051
0.341475
-0.349702
-0.000805639
0.335603
-0.350476
-0.0025947
0.318384
-0.356463
0.00834321
0.26666
-0.0246273
0.266426
-0.357041
0.00835877
0.305915
-0.417071
0.167391
0.276778
0.206862
0.193627
-0.367943
0.241379
-0.34345
0.303755
-0.336557
0.322539
-0.335622
0.328606
-0.338329
0.32922
-0.345458
0.326807
-0.354014
0.321308
-0.350717
0.306378
-0.050535
0.120754
-0.138233
-0.00258077
0.41998
-0.513857
0.00887752
0.461371
-0.502074
0.00446994
0.469875
-0.484192
0.00173671
0.47005
-0.475058
0.000425814
0.469921
-0.472313
-0.000914032
0.469096
-0.472207
-0.00194372
0.46125
-0.476304
0.0106248
0.410137
-0.474219
0.166399
0.3866
0.343549
-0.172494
0.327544
-0.0777503
0.0617244
0.392464
-0.339667
0.316908
-0.29837
0.477913
-0.420775
-0.0033305
-0.470907
0.401663
-0.410901
0.0120749
0.432613
0.0193151
0.00838151
-0.122428
0.0120053
-0.00983028
0.006424
-0.00234607
-0.000839538
0.395517
-0.396291
0.39658
-0.412281
6.65596e-05
0.425356
-0.428105
0.43303
-0.432942
0.00029976
0.436284
-0.434694
0.439449
-0.434936
0.000353367
0.443053
-0.432503
0.444331
-0.421661
-0.000683819
0.000574968
0.000950738
0.00317751
0.00178546
0.00115601
0.447042
-0.431866
0.00228563
0.510727
-0.504558
0.451988
-0.417396
0.00438524
0.506996
-0.481901
0.307127
-0.213698
-0.341388
-0.0231946
-0.00525233
-0.123401
-0.0317037
0.00956257
0.227081
0.296382
0.0236394
-0.482829
0.366817
0.00364865
-0.409439
0.374213
-0.000812912
-0.385214
0.379019
0.000170096
-0.372055
0.377674
-0.00266234
-0.37174
0.39236
-0.00671645
-0.354492
0.400627
-0.0251906
-0.316249
0.10265
0.154337
-0.190333
0.0016035
0.310918
-0.26464
0.310594
-0.303669
0.308363
-0.30513
0.496477
-0.435178
-0.00102401
-0.497656
0.433674
-0.432381
-0.00259545
0.49199
-2.08495e-05
-0.001105
-0.000722352
-0.0285224
0.00645199
0.03981
0.0432461
0.0176128
0.00754193
0.0249082
0.0176424
-0.0227106
0.367711
0.117883
0.0256355
0.0880012
0.0187872
0.00564583
0.0039386
0.00131812
0.000743354
0.00103621
0.0010066
-0.279216
0.000302074
0.284986
-0.28173
0.30761
-0.30599
0.310675
-0.306603
0.504117
-0.435733
0.000818291
-0.500245
0.441313
-0.436111
-5.13164e-05
0.499478
0.000979075
0.00100581
-0.000115325
-0.00288036
-0.00139825
0.004327
0.00313624
0.000559374
0.0134571
0.00965067
0.291159
0.00141676
-0.0133974
-0.00115
-0.0194973
0.00250678
0.193458
0.369422
0.679066
0.071171
-0.0103226
-0.00479608
-0.0184205
-0.375161
0.00163799
0.349103
0.317733
-0.350657
-0.00257405
-0.36965
0.0027337
0.361121
0.335051
-0.349528
-0.000768049
-0.369604
0.00236866
0.364365
0.341458
-0.35188
0.000238795
-0.372825
0.00631114
0.363405
0.342486
-0.357856
0.000873186
-0.38023
0.0177466
0.357635
0.340048
-0.365828
0.00183177
-0.390597
0.0432065
0.344228
0.334664
-0.369779
0.00386841
-0.394391
0.0963843
0.322155
0.322133
-0.0620088
-0.00891807
-0.071807
0.848097
-0.378877
-0.386858
0.626581
0.162902
0.0676461
-0.58485
-0.120566
-0.0705623
0.30048
-0.31368
-0.00547166
0.00655394
-0.0392951
-0.0472626
-0.00485699
0.0125432
0.00726789
0.00295055
-0.00385396
0.00173388
0.00278361
0.000822167
9.41767e-05
-0.000746304
-0.00257138
-0.00494173
-0.0171388
-0.00918261
0.239126
-0.239227
0.00287757
0.00154294
-0.242987
0.239415
-0.000566251
0.000995224
-0.00108246
-0.0181352
-0.0114923
0.0434146
0.00470646
0.0499604
-0.0177199
-0.0217279
2.46458e-05
0.080027
-0.093023
0.0933964
-0.0797284
-0.080711
-0.0689972
0.00257381
0.0926167
0.0833488
-0.0831985
-0.00247924
-0.0933176
-3.86207e-06
1.46654e-05
0.00592946
0.0168167
0.0150523
-0.0333668
0.000652219
0.000169975
0.000982786
0.00281843
0.00684455
0.00294866
0.0239989
-0.0188784
-0.00210978
0.0136247
0.299817
-0.273588
0.31586
-0.311232
0.319226
-0.00766659
-0.283021
0.00822489
0.317147
-0.001163
-0.0138724
0.00285825
0.00197165
0.0039267
0.00464969
-0.00334263
-0.0469975
0.161082
-0.0718571
-0.308977
-0.0391604
-0.037219
-0.608775
-0.167817
0.0214028
-0.245574
0.181569
0.00834891
0.0102893
0.219787
0.184373
0.0258458
-0.0206093
0.244482
0.219715
0.0278649
-0.0248386
0.221845
0.250568
0.0259721
-0.057267
0.184013
0.25587
-0.0886488
0.133403
-0.1163
0.124311
-0.490849
-0.266596
0.0482062
-0.121145
0.263955
-0.0159117
-0.432689
0.228293
-0.00455664
-0.271111
-0.268006
-0.389643
0.16397
-0.214284
-0.137213
0.2384
-0.49455
-0.0554788
0.347855
-0.428224
-0.0109799
0.37268
-0.392141
0.00085315
0.375634
-0.378001
0.00193838
0.373929
-0.374211
0.00212264
0.373677
-0.373308
0.00575717
0.37564
-0.370916
0.0229856
0.38747
-0.332341
0.0935119
0.322363
-0.180006
0.342029
0.386303
-0.479035
0.408799
-0.480796
0.0110552
0.2406
-0.368118
0.166215
0.192696
0.208609
0.276753
0.238022
0.167269
0.322263
0.191913
-0.00159825
-0.0279549
-0.0156658
-0.00982252
-0.00593176
-0.0115614
-0.00610097
0.00172475
0.00617753
0.286284
-0.277456
7.87168e-06
0.000485805
0.000108454
2.72653e-05
-0.498356
0.43725
0.000199745
0.438318
-0.44059
0.00046226
0.441158
-0.442684
0.00110948
0.442922
-0.445001
0.00197764
0.4424
-0.444937
0.00251855
0.431337
0.00276977
0.00533584
0.000831849
4.54847e-06
-0.00125873
-6.12688e-05
0.000374277
0.000410402
0.00036036
0.000235349
0.000180829
0.000232192
0.00226794
0.00643641
-0.232923
0.00346757
0.0115314
-0.000604957
0.000411274
0.000621303
0.000398377
-4.1003e-05
-0.000785538
-0.00195846
-0.00285642
0.010428
-0.0029566
-0.00782544
-0.0102327
0.204338
-0.218078
0.276475
0.000399973
-0.03721
0.0310876
0.102615
0.000582905
-0.091185
0.0858334
0.088009
0.000328943
-0.0975461
0.0915686
0.0785887
2.12279e-05
-0.122522
0.116547
0.108923
-0.00207021
0.135716
-0.142902
0.139343
-0.150113
-0.0138592
-0.0829284
0.120498
-0.009904
-0.114572
-0.00243147
-0.000762933
0.411362
-0.00143053
-0.413774
0.239245
-0.00832175
-0.247413
0.247864
-0.00538514
-0.259791
0.416773
-0.00391909
-0.416582
0.408984
-0.407056
0.404756
-0.414544
0.00094193
-0.412867
0.40737
-0.000830482
-0.247548
-0.00905577
0.249727
-0.212401
0.00195643
0.373709
0.133334
0.393665
0.143912
-0.203442
0.310938
0.0286433
-0.272273
0.29416
0.00590286
-0.284803
0.287939
0.00133833
-0.284522
0.28725
0.000199981
-0.287267
0.285019
-0.00136853
-0.287224
0.285434
-0.00688507
-0.293764
0.27127
-0.0311055
-0.311108
0.203344
-0.147985
-0.394641
-0.119506
-0.369557
0.241542
0.0226166
0.0120773
0.15436
0.0361169
-0.237675
-0.195853
-0.0544621
-0.151508
-0.098234
-0.076733
-0.167812
-0.0838468
-0.0890891
-0.166689
-0.244088
-0.252935
-0.167055
0.415071
0.0228907
-0.244247
-0.00856803
0.33487
0.393998
-0.00444339
-0.290544
0.00192385
0.324741
0.481784
0.00458308
-0.474535
0.000332361
0.479282
0.00112725
-0.476532
0.00128921
0.4778
0.000634353
-0.478011
-0.0010113
0.476431
0.000516238
-0.479682
-0.000178228
0.47444
-0.000995546
-0.482595
-0.00417206
0.466501
-0.00686168
-0.487653
-0.0171172
0.0021266
-0.299773
0.486987
0.00305956
0.312902
-4.28329e-05
-0.304546
0.498049
-0.000159847
0.308622
2.72365e-05
-0.306883
0.500945
-0.000127608
0.307931
-0.000290633
-0.306651
0.501928
0.000101585
0.306815
0.000434377
-0.307777
0.502451
0.000332415
0.307158
9.8322e-05
-0.308237
0.502599
0.00055309
0.304891
0.000512209
-0.311708
0.499605
-0.0013636
0.301736
8.40076e-05
-0.318563
0.476615
-0.0188212
0.341986
-0.0611635
0.0785981
-0.388231
-0.342363
0.178631
-0.326444
-0.0957769
-0.0661709
-0.682598
-0.371567
-0.32605
-0.231674
-0.167501
0.371922
0.430198
0.0312305
-0.231404
-0.0109428
0.48688
0.0144588
-0.465783
0.0055
0.0035324
0.00743236
0.0187981
-0.320915
-0.0155053
0.156353
-0.0230087
-0.022156
-0.0421408
0.14948
-0.0494268
0.020361
0.0178904
0.000469523
0.00134737
0.00122989
0.00071847
0.000612718
0.000185911
-0.00242779
-0.00176728
0.426265
-0.494141
0.00188174
-0.00256863
-0.00480765
-0.000356854
-0.406445
-0.000418099
0.41422
-0.432794
-0.000430933
0.432338
-0.438536
-2.78612e-05
-0.00013311
-0.00106767
-0.000516628
-4.61238e-05
0.000746943
0.000673327
0.000593306
0.000383421
0.000250665
0.000153721
0.00120205
0.00187972
0.000742222
0.41104
-0.413874
0.376129
-0.378377
0.37948
-0.378855
0.00210963
-0.198222
6.16833e-05
0.18696
0.00674093
-0.209188
-0.000743866
0.15894
-0.0162316
-0.0130917
0.0595156
0.00273409
-0.064239
0.473884
-0.0064433
-0.297569
0.001148
0.304722
0.396739
-0.00284216
-0.313135
0.000410305
0.317403
0.383926
5.778e-05
-0.31706
-2.87771e-05
0.314551
0.384753
0.00249959
-0.320427
-0.000618268
0.308328
-0.323657
-0.00112261
0.290447
-0.331032
0.0130739
-0.00941224
-0.00241052
-0.000919662
-3.23168e-05
0.000256084
0.000534133
0.00143952
0.00301017
-0.0044701
0.00136423
0.110472
0.116362
0.117757
-0.0350456
0.159224
-0.016699
-0.0173406
0.16355
-0.0309452
0.149123
-0.0481276
0.00587698
-0.0132691
0.012787
-0.00319741
0.0028908
-0.00234654
-0.391215
0.0102972
0.011552
0.00246219
0.000140527
-4.31541e-05
-0.0830576
0.0823783
0.00259287
-0.070065
0.10745
-0.0218882
0.00923496
-0.00375908
-0.00426414
-0.0208735
0.15497
-0.385328
0.0232763
-0.258758
-0.0105999
0.32774
0.402402
-0.00946575
-0.29594
0.00261604
0.38753
-0.0071037
-0.3066
0.00121171
0.320869
0.388421
-0.00175701
-0.315078
0.0004432
0.318375
-0.318172
-0.000138378
0.315185
0.000597694
0.000215526
-0.000123021
-0.000385341
-0.00128894
0.00944604
-0.00623331
-0.000282237
0.00254641
3.70938e-05
-0.00237338
-0.0111579
-0.00940506
-0.00256546
-0.00255004
0.00236516
0.00665346
0.00127637
0.00587029
0.00161758
0.00379758
-0.00846943
-0.0119695
-0.0256143
-0.0283841
-0.0607692
-0.0510097
-0.0308213
-0.118245
-0.367907
0.031817
-0.568466
-0.417706
-0.299494
-0.199069
-0.179679
0.0711717
-0.161495
-0.0158189
0.0378618
0.0014668
-0.00623832
0.193776
-0.229036
0.281656
0.00267409
-0.03299
0.0523921
0.119654
0.00507364
-0.0814061
0.111854
0.112117
0.00552839
-0.0873057
0.115659
0.10491
0.00418562
-0.116745
0.13061
-0.0062266
0.00371522
0.0187188
0.0801496
-0.34396
-0.498998
0.00545712
0.467019
0.0133708
0.00989185
0.301939
0.00182311
-0.495414
0.501466
-0.000751231
-0.473904
0.278535
-0.319745
0.284943
-0.0313065
-0.297652
0.0161556
-0.331279
0.461795
-0.404526
0.420625
-0.0014291
-0.421638
0.000775376
0.417896
-0.00125146
-0.419568
0.0002449
0.421446
-0.00122811
-0.423214
0.411358
-0.473555
0.0272319
-0.328062
0.44896
0.0208584
0.0108
-0.123512
0.134028
-0.138298
2.62464e-05
-0.11555
0.106138
0.00754362
-0.131962
0.0939156
-0.107198
0.00482805
0.191963
-0.115836
0.0710738
0.0177166
-0.136493
0.107335
-0.00212741
-0.00233313
-7.1622e-05
0.00453517
0.00282404
0.00146434
0.000650241
3.16032e-06
-0.00113455
-0.00287665
0.00442188
-0.00137046
0.0692678
0.0796992
0.000147285
-0.0188834
-0.0116724
0.150156
0.0544107
-0.127439
0.0655366
0.084679
-0.133403
0.00435264
-0.154465
-0.0119979
-0.0360152
-0.124763
0.195606
0.237913
0.012423
0.0436483
-0.0106083
0.00596422
0.104352
-0.112139
-0.00135718
-0.11763
0.117298
0.112134
-0.104307
-0.000718511
-0.142316
-6.95741e-05
0.142269
3.15367e-05
7.18665e-05
-0.00258825
0.0084968
0.0037567
0.0635917
0.678443
0.369047
0.189872
-0.00153275
-0.0249241
-0.0139722
-0.00768637
-0.0103927
-0.0223896
-0.0470867
-0.0514893
-0.104769
-0.116065
-0.246884
-0.41689
-0.371141
-0.374377
0.159056
-0.24992
-0.0969141
-0.105073
-0.323968
-0.426462
-0.3786
-0.378169
-0.383407
-0.376993
-0.42741
0.161298
-0.04589
-0.134147
0.511675
-0.160422
-0.306486
-0.299252
-0.0782683
-0.0971185
-0.226567
-0.238106
-0.0627036
-0.0965511
-0.0236104
-0.00772445
-0.00136171
2.51507e-05
0.00023816
-0.000765843
-0.00445421
-0.0052203
-0.0193247
-0.00813257
-0.00296954
-0.00567691
-0.00354131
-0.00486146
-0.011865
-0.0304085
-0.0127363
-0.0123959
-0.0143864
-0.0068496
-0.00191508
-0.00015127
-0.000339742
-0.00124282
-0.00124783
-0.00367288
0.302927
0.457611
-0.474181
0.465841
-0.472274
-0.000643932
0.321496
-0.337061
-0.00156814
-0.00287833
0.00151483
0.00526464
-0.343989
0.0158257
-0.15676
0.0967239
-0.0301175
-0.00936362
-0.0111186
0.0143128
-0.134659
0.10578
-0.000793406
-0.000381294
-0.000390031
8.79564e-05
0.0689937
-0.0023712
0.000296699
0.000292547
-0.000200259
-0.0436184
0.000223032
0.0180778
0.0112132
0.0148056
-0.0123071
0.0103419
-0.000167083
0.00107272
-0.0434985
0.134382
0.133416
-0.0843736
-0.0142163
-0.0668179
0.128205
0.0112576
0.00248351
5.46628e-05
6.52249e-06
-0.00254858
-0.00232358
-0.00239205
-0.000478637
-0.0104157
-0.000872761
-0.00238026
0.000802463
0.00535739
0.00122582
0.00347993
-0.335677
0.327466
0.467897
-0.473343
0.468784
-0.478603
0.00118381
0.327808
-0.337486
0.000275688
4.95465e-05
9.22242e-05
0.000537782
0.00126762
0.00304291
0.00255653
0.00565391
0.00311617
0.00659305
0.00675649
0.0162176
0.0137932
0.0146296
0.00648958
0.0863475
0.00118138
0.00206804
0.000976847
0.00022175
-0.000774548
-0.00278201
-0.00309202
-0.00118207
-0.00110818
-0.00072046
-0.000160384
0.000111515
0.000246274
0.00039578
0.000348585
0.000207412
-0.00104252
0.00140175
0.00132606
3.27035e-05
0.000156421
0.000284496
0.000456131
0.000811666
0.000927303
0.000865506
0.00174807
0.00205043
0.00148772
0.00332817
0.00436011
0.00359617
0.0226898
-0.02879
-0.0410778
-0.0079882
0.00449752
0.00598752
0.00612525
-0.101052
-0.00170238
-0.0009764
-0.0015008
-0.00983598
-0.003829
0.213973
-0.0027953
-0.285089
-0.002067
-0.012918
-0.264002
-0.0114668
-0.0155918
-0.165655
-0.0736603
-0.126778
-0.315412
0.0305945
0.0804299
0.00542719
-0.00423776
-0.00356726
-0.00662426
0.00185991
-0.191576
0.272989
0.00192845
-0.0600862
0.0265198
0.0945916
0.000445816
-0.117904
0.0748906
0.0759679
-0.00055528
-0.121999
0.0802057
0.0668719
-0.00130546
-0.111797
0.0253386
-0.151273
0.0668265
0.105937
-0.147038
0.0444253
0.0218802
-0.00891539
-0.00199011
-0.000709442
0.000161042
0.000328916
0.000497545
0.00133475
0.00248768
0.00313819
0.00296021
0.00435955
0.420277
-0.420035
0.00181957
0.422271
-0.422325
0.37971
-0.379928
0.380338
-0.381873
0.00137859
-0.199263
-0.00101348
0.194214
0.00138213
-0.197063
-0.000220815
0.193741
-0.00114581
-0.000788581
0.0626906
0.00121399
-0.0621471
0.470198
-0.000249146
-0.300926
9.05912e-05
0.303914
0.392512
0.0018405
-0.316965
-0.000620588
0.374294
0.00710443
-0.322717
-0.00235039
0.289921
0.368082
0.00630708
-0.39729
0.0093424
-0.330195
-0.393431
0.00846978
0.357702
0.297517
-0.324549
0.0102413
-0.00877055
0.00307513
0.00158603
0.000887612
0.000174686
-0.000612345
-0.00162565
-0.000786277
-6.40173e-05
0.000662436
0.000407782
0.000587327
0.000246612
0.423219
-0.424504
0.0017316
0.423948
-0.427799
0.382621
-0.383303
0.388232
-0.375481
-0.0145425
-0.197987
-0.0062571
0.200819
-0.0013182
-0.203911
-0.00273682
0.1952
-0.00257164
0.00219626
0.0700874
0.00506795
-0.0556999
0.467181
0.00199192
-0.295793
-0.00235126
0.302889
0.365348
0.00565233
-0.407742
0.0108894
-0.289507
-0.516995
-0.00220998
0.446966
-0.0300066
0.168529
0.00129548
0.122025
0.0767708
0.0448891
0.0288613
0.228357
-0.144711
-0.0130628
0.00599953
0.000137109
-0.000502366
-0.000177513
-6.90248e-05
-0.000863648
-0.00512128
0.00163627
0.277298
-0.198946
-0.321957
-0.0735472
0.0611732
-0.158065
0.506699
-0.233655
-0.285499
-0.276284
-0.161566
0.380657
0.420882
0.0219713
-0.260488
-0.00943123
0.389686
-0.00837698
-0.290361
0.00282002
0.325373
0.390238
-0.00484465
-0.308407
0.00100435
0.320882
0.00170224
0.00195
-0.379523
0.00586142
-0.366067
0.0338335
0.0346141
0.00106932
-0.204028
-0.341681
-0.238472
-0.168469
-0.355281
-0.125715
-0.0638278
0.0372663
0.0106007
0.481131
-0.00746956
-0.290642
0.0021569
0.309235
0.398691
-0.00744686
-0.307751
0.00118398
0.385826
-0.00268694
-0.313735
0.000389184
0.317917
0.386835
0.000264288
-0.38702
-0.000360377
0.000370809
-0.384598
0.00691816
0.00707294
0.0192605
0.00582376
-0.35914
0.0162868
-0.290429
0.00107891
-0.0532616
-0.0829795
-0.0224955
0.0226524
-0.00918543
-0.443628
-0.00121335
-0.00309622
0.0626454
0.00124458
0.4714
-0.00240324
-0.300026
0.000456854
0.303339
0.395045
-0.000246419
-0.315554
9.1422e-05
0.381037
0.00271946
-0.319494
-0.000827935
0.307238
0.380154
0.00607551
-0.392092
0.00101981
-0.000605418
6.71714e-05
0.00029721
0.000337275
0.000243489
0.000152575
7.982e-05
-0.00118533
-0.00309163
-0.000736898
-0.000816035
-0.0010318
-0.000120871
0.00043099
0.000665623
0.00083285
0.000194457
0.000315987
-0.000190475
-0.000229801
-0.00110257
-0.000558927
0.430732
-1.7844e-05
-0.430575
0.433053
3.70563e-05
-0.437466
0.437676
-0.432527
0.436732
-0.00064644
-0.443619
0.436642
-0.434217
0.430264
-0.00192899
-0.43862
0.418704
-0.41724
0.417633
-0.418894
0.00188202
-0.430581
0.439307
0.000996781
-0.436947
0.000740892
-0.437045
0.444486
0.000595242
-0.442507
0.000268085
-0.438686
0.445264
-0.439005
0.439327
0.000109879
0.43779
-0.437178
-0.000162755
0.442368
-4.31423e-05
-0.444367
0.438369
-0.437041
-0.000946268
-0.499928
0.30806
-0.000456463
0.494668
-0.00236545
-0.497231
0.311224
0.00130427
0.481764
-0.422978
0.405807
-0.00147907
-0.412782
-0.00048461
0.402677
4.3742e-05
-0.402574
0.000904384
0.413102
0.00150394
-0.405912
0.424026
-0.483081
0.00342296
0.00511295
0.00466276
0.0171782
0.0117125
-0.242234
0.249831
-0.24616
0.246107
-7.35305e-05
-0.00072692
-0.000690215
-0.249809
0.24207
-0.0118454
-0.00682506
0.129453
-0.144584
0.000510783
-0.000942307
0.401962
-0.406946
0.407181
-0.402164
0.415641
-0.437593
-0.01191
-0.00456138
-0.129453
0.00680192
0.144518
-0.00596473
0.00265455
0.00255512
7.48321e-05
0.000131672
0.000191999
0.000216804
0.00017494
-0.438738
6.97466e-05
-0.43907
0.439469
-0.444129
0.439058
0.000120941
0.444442
-0.437968
-9.44471e-05
-0.499833
0.307104
2.73812e-05
0.49845
-0.306253
1.20264e-05
-0.280007
0.285091
0.00283244
-0.280858
0.285675
0.00388328
-0.279937
0.289981
0.00726003
-0.277977
0.296625
0.00623758
-0.281182
-0.00943281
-0.000108332
-0.00137183
0.00238704
0.000319945
0.00124384
-0.000172987
0.000347652
-0.000956481
0.00135852
0.00550588
0.290286
-0.304498
-0.00042002
-0.269669
0.306678
0.0299628
0.0122888
-0.000492254
0.0121003
-0.202893
-0.000287722
0.318474
0.0185702
-0.475256
-0.00304999
-0.0047492
0.0248775
0.0171059
-0.0226454
-0.241198
0.368826
0.119754
0.392271
0.145801
0.082971
0.0199329
0.0605566
-0.341914
0.436977
-0.41493
0.0118658
0.00197745
-0.018828
-0.00502531
-0.00261392
0.00746656
0.00170448
0.000688907
0.000816403
0.000645087
-0.499681
0.30689
-0.307324
0.500383
3.10154e-05
-0.000769622
-0.00228063
-0.000503943
-0.000657288
-1.21796e-05
0.000155257
0.000825461
0.000616947
-0.437846
3.26748e-05
-0.442668
0.439008
-0.499181
0.30638
0.00132489
0.502444
-0.309297
0.00300632
0.000323846
-0.000972345
-0.00177803
-0.00594602
-0.00442771
0.323915
0.468932
-0.489315
0.0402383
0.00708946
0.00332221
0.0117862
0.00573326
0.0138333
-0.342483
0.0120078
0.0328186
-0.348112
0.0027749
0.00151347
0.00107861
0.00198212
0.00302593
0.00412266
0.00189849
0.00123878
0.00071373
0.000534411
0.000415041
0.000610942
0.000808982
0.000570372
0.000445195
0.000582769
0.000731645
0.000609208
0.0010668
0.00110882
0.000581552
0.00129408
0.00107911
0.00153938
0.00114395
6.53718e-05
-0.000928344
-0.000325136
0.00216525
0.00406016
0.00034006
-0.0231411
0.00276107
0.000563321
0.000936411
0.0011466
0.00127016
0.00105793
0.00225585
0.00139688
0.00263963
0.00146128
0.423017
-0.431486
0.0021551
0.414903
0.00693453
0.00135755
0.00337628
0.0176046
-0.0679804
0.168576
-0.134377
0.283353
0.0414069
0.193598
-0.155831
0.126043
-0.135951
0.0860658
0.0980872
-0.14848
0.0339686
-0.15476
0.0909438
0.0944901
0.185434
-0.00862411
-0.00233713
-0.023604
-0.00113886
-0.107622
-0.00167271
-0.000755166
0.000657056
0.000886694
0.00167889
0.000991595
0.000653829
0.000852422
0.000645703
0.000162077
0.000587934
0.000345905
0.00240169
0.00114727
0.000490695
-0.471781
0.469787
0.00107033
-0.30015
-0.000735947
0.305844
0.385472
0.00510006
-0.31853
-0.00192316
-0.389172
0.00166387
0.000924499
0.000223587
0.000469176
0.00023494
0.00250656
0.000601158
0.000277437
0.000454028
0.00043454
0.000442842
-0.000598112
-0.00140689
-0.0031168
-0.353071
0.00629487
0.325197
0.0186333
0.337156
-0.298091
-0.325299
0.383813
-0.257275
-0.242252
-0.20071
0.00226504
0.00213765
0.00195135
-0.381667
0.012941
-0.00150081
-0.0619585
-9.59335e-05
0.00497376
-0.000534297
-0.467655
-3.08404e-05
-8.76215e-05
0.0635262
0.002287
-0.0615767
0.000430768
0.00291471
0.000908411
0.00166868
0.000393926
-0.390541
0.000441947
-0.380141
0.00128816
-0.000260611
-0.394441
-0.000253309
0.315316
-0.00310763
-0.00143941
-0.397385
0.00621669
-0.478449
0.0188653
0.0127945
0.0972274
0.0101444
-0.491403
0.0338682
0.00139267
0.00402177
0.028003
0.186258
0.441065
0.229038
0.336815
-0.0165211
-0.00470438
-0.401328
-0.0113799
-0.0226847
0.0106734
0.22725
0.327704
-0.0172281
-0.00560181
-0.00171451
0.310734
-0.386168
-0.00572273
0.000440933
-0.0175247
-0.0315678
0.000684989
0.209857
0.330039
-0.0181724
-0.0059727
-0.001999
-0.389133
-0.00197514
-0.00027901
0.000118435
0.00182795
0.00469146
0.00143008
-0.0258073
-0.00735652
-0.000289379
-0.00262035
-0.0063535
-0.00402747
-0.00689271
-0.00123372
0.191631
0.369528
-0.0690686
0.0596102
0.0265888
0.0330443
0.00920638
-0.00211932
-0.000803701
-0.00018055
0.000103852
0.000296263
0.0007756
0.0024152
-0.000127703
-0.000156832
-0.00105666
0.00157047
0.000881453
0.000974481
-0.00188955
-0.0184458
-0.0256397
-0.00775692
0.0027163
0.002744
-0.496572
0.435499
0.00131165
0.0013677
0.00136934
0.00262454
0.00326078
0.00310215
0.000652912
-0.00844869
0.123998
-0.415025
0.0211101
0.00118188
0.00109691
0.000617863
0.000598336
0.00108714
0.000394696
0.000363831
0.000331474
0.000529401
0.000183227
0.000241597
0.000235347
0.000903784
0.000897154
0.438169
-0.00016445
-0.437858
0.438112
-0.000653275
-0.433794
0.433498
-0.437638
0.444256
-0.000444949
-0.437961
0.436385
-0.435944
0.00167439
0.504821
-0.313715
0.00594734
0.00261567
0.00210212
0.00120701
-2.48185e-05
-0.01046
-0.0176727
-0.0356648
-0.0840988
0.00454683
-0.0361613
-0.0119533
-0.00355564
0.00485959
0.0041406
-0.000491031
4.10586e-05
0.000967053
0.000500744
0.445098
-0.4389
0.439565
-0.444946
-0.000148796
-0.438159
0.443268
-1.26309e-05
-0.444458
-0.000641838
-0.435273
0.438223
-0.00025224
-0.439815
0.432812
-0.498991
-0.0016053
-0.00240672
-0.0010266
0.000309222
0.000586811
0.0022199
0.00514394
0.0213782
0.0858919
-0.0267342
0.856163
-0.0204732
-0.00448556
-0.0156407
-0.150121
0.0304058
0.085985
0.0074849
-0.00123764
-0.083961
-0.00136725
0.00257393
0.00623529
0.000396508
0.000481056
0.00655977
0.00348245
-0.264737
0.218141
-0.00871568
-0.00610908
-0.000424201
0.0447229
-0.0101848
0.0370011
0.0593018
0.0956287
0.190106
0.0471609
-0.12279
0.0483441
-0.154485
0.0379048
0.0210715
-0.117344
0.00661042
-0.00239367
0.000272995
-0.000588239
4.76773e-06
0.00221264
-0.00104368
-0.00233297
-0.000330606
-0.00273227
-0.000959776
1.16442e-05
-0.000146693
0.000179205
-6.35433e-05
-0.000156752
-0.000880194
4.05873e-05
0.00123024
0.00248593
0.0102236
0.108479
0.455453
0.0260906
-0.0809204
0.292597
-0.00467842
-0.0625044
-0.020795
-0.0298987
0.849825
-0.0162408
-0.00472219
0.00533612
0.00215876
0.00544911
-0.0759677
-0.00163669
-0.00176531
-0.0163591
-0.151153
-0.129181
-0.0779318
-0.304815
0.0310665
0.0759335
0.00389326
-0.0042832
-0.00449702
-0.00239507
-0.0937904
-0.00464409
0.044977
-0.0269994
0.0478713
-0.00270464
-0.0855585
-0.00505816
-0.00280245
-7.95813e-05
0.00520946
0.0190833
0.00249878
0.00331081
0.0177398
0.017309
0.000829621
-0.00177764
-0.00044593
0.00105244
0.00299967
-0.001365
-0.00111272
0.0134909
0.323232
0.0140847
-0.000339048
0.00189434
0.000461373
0.000148109
-0.000146866
-0.00150051
0.00117164
0.438394
-0.50031
0.00127047
0.0005293
0.000432442
0.000444455
-0.501538
0.43923
9.62206e-05
-0.438883
0.444937
-0.444411
0.000349204
0.439391
0.000318406
0.00012625
8.69904e-06
-8.14852e-05
0.00055199
0.00105075
0.000197949
8.08975e-05
-0.000217041
-0.000958839
0.00152186
0.437659
-0.431708
0.431459
-6.21212e-05
0.000112797
0.000205694
0.000179431
-1.73706e-05
0.439233
-0.502171
-6.19233e-05
-0.000186025
0.000152079
-0.000690231
-0.0007276
-0.502317
0.438046
-0.000539391
-0.00038994
-0.00102603
0.0010146
6.74886e-05
0.000122058
-0.0130639
-0.020825
-0.0845996
-0.0135026
-0.00140162
4.81159e-05
0.000417261
2.43206e-05
0.000106504
0.00123041
-0.00136645
-0.00156638
-0.000359918
-0.000234988
-0.00190599
-0.00119795
-0.00112675
0.000322763
-0.00173868
0.00132487
-0.00195077
-0.00677677
-0.000587441
-0.00240126
-0.0150157
0.010723
0.0298909
-0.000615215
0.00119825
-0.428603
0.00326508
0.0132404
0.0867382
-0.00176516
-0.00251496
-0.0186855
-0.176627
-0.108474
0.0246618
-0.00313922
-0.00247907
-0.00196121
-0.0223816
-0.00286216
0.163086
0.0493319
-0.00835802
0.0347166
0.245839
0.0214327
-0.00360325
-0.00642888
-0.00759566
-0.0114108
-0.283138
-0.252078
0.00186728
0.0255428
0.0094542
0.041048
-0.0776575
0.000482085
0.00452758
-0.011566
0.00016897
-0.383624
0.00536301
0.00110659
-0.000269658
-0.00165712
7.67646e-05
-0.00136828
-0.461791
0.319975
-0.372207
0.0193937
0.184407
0.314919
-0.000201388
-0.000342419
0.00110934
-0.0794686
-0.3014
-0.0209449
-0.00477813
-0.00116955
-0.00255234
-0.088768
0.000675036
-0.278743
0.00709629
-0.270652
-0.00209365
0.0369058
0.00136408
-0.10624
0.0500653
-0.0100459
0.333633
0.000391394
-0.284508
0.0213577
0.0890865
0.0166699
1.6956e-05
0.00148937
0.000320418
0.00504706
0.322628
-0.503918
0.00165655
-0.167865
-6.56488e-05
0.0220082
0.0346314
0.0193803
0.00657406
-0.000490065
-0.00753225
-0.0201967
-0.0352621
0.000258671
0.206175
0.245245
0.243976
0.170991
-0.406157
-0.382231
-0.0188946
0.387085
-0.00823899
-0.473164
0.0797252
0.0130406
-0.0551648
0.0608528
0.00381801
-0.056723
0.0588785
0.0023886
-0.0545028
0.0594999
0.00191208
-0.0540881
0.0584357
0.000109413
-0.055793
0.0561007
-0.00404486
-0.0608897
0.050857
-0.0150617
-0.0804723
0.0303351
-0.0650194
-0.155982
-0.0747964
-0.233714
-0.286976
-0.280667
-0.238685
-0.254049
-0.264135
-0.252708
-0.272939
-0.259465
-0.257785
-0.268701
-0.256892
-0.274241
-0.27241
-0.254019
-0.337876
-0.158278
-0.152304
0.583969
0.0371099
0.328806
-0.162455
0.425357
0.0268947
0.377496
-0.167003
0.402725
0.022368
0.389262
-0.167517
0.398202
0.0231323
0.409709
-0.162187
0.38651
0.0246816
0.502326
0.0606175
-0.0432364
-0.321918
-0.0030489
-0.243658
0.156808
-0.211964
0.186002
-0.200065
0.194046
-0.194804
0.197069
-0.193811
0.197262
-0.19227
0.200235
-0.186076
0.210651
-0.15732
0.242678
0.00434232
0.30283
0.213393
-0.0847581
0.238775
-0.222686
-0.0108783
-0.00522788
-0.12209
0.128888
-0.114763
0.212177
0.0287378
0.0344847
-0.00856091
-0.0185635
-0.00037805
0.0187981