/*--------------------------------*- C++ -*----------------------------------*\
| =========                 |                                                 |
| \\      /  F ield         | OpenFOAM: The Open Source CFD Toolbox           |
|  \\    /   O peration     | Version:  2306                                  |
|   \\  /    A nd           | Website:  www.openfoam.com                      |
|    \\/     M anipulation  |                                                 |
\*---------------------------------------------------------------------------*/
FoamFile
{
    version     2.0;
    format      ascii;
    arch        "LSB;label=32;scalar=64";
    class       volScalarField;
    location    "1.6";
    object      gradTz;
}
// * * * * * * * * * * * * * * * * * * * * * * * * * * * * * * * * * * * * * //

dimensions      [0 -1 0 1 0 0 0];

internalField   nonuniform List<scalar> 
5322
(
-0.871848
-0.889952
-0.918596
-0.995789
-0.987772
-0.984723
-0.9837
-0.98436
-0.987088
-0.995088
-0.983694
-0.986473
-0.742391
-1.02352
-1.11919
-0.893405
-1.05607
-0.790624
-1.11317
-1.12335
-1.13047
-1.12543
-1.12601
-1.13201
-1.13199
-1.12582
-1.12628
-1.13161
-1.1321
-1.12659
-1.12647
-1.12872
-1.12106
-1.10329
-1.04909
-0.861332
-0.979732
-0.998482
-1.03067
-0.72585
-0.958472
-0.989159
-0.712837
-0.99062
-0.980937
-0.724678
-1.00434
-0.948038
-0.715024
-0.981963
-1.09978
-0.789158
-1.07398
-1.00897
-0.945984
-0.959269
-1.13795
-0.944403
-0.955877
-0.960286
-1.15182
-0.95713
-0.956269
-0.936604
-1.15101
-0.989303
-0.951708
-0.889532
-1.12368
-1.05027
-0.788297
-1.22842
-1.16993
-1.1533
-1.16555
-1.15988
-1.15928
-1.1552
-1.17026
-1.10805
-1.05407
-0.810267
-0.839875
-1.13526
-0.774212
-1.02935
-1.38925
-0.848654
-0.870006
-0.781813
-0.988651
-0.883959
-0.932661
-0.925285
-1.12336
-0.972879
-0.969468
-0.986842
-1.41389
-0.825951
-0.832882
-0.794586
-0.994315
-1.11014
-1.20766
-0.940847
-0.998139
-1.00034
-0.99685
-0.998021
-0.998204
-0.997722
-0.996482
-0.999846
-1.1512
-1.14001
-0.797784
-0.864498
-1.15148
-0.952791
-0.844547
-1.02722
-1.01282
-1.42689
-1.06291
-1.3972
-1.00319
-1.04752
-1.37321
-0.998945
-1.02522
-1.38561
-1.01442
-1.00613
-1.39194
-1.02877
-1.01237
-1.42914
-1.06369
-1.3973
-1.00568
-0.847425
-0.952885
-0.852398
-0.799266
-1.15162
-0.864537
-0.85846
-0.788655
-0.793851
-1.14934
-0.859633
-0.856311
-0.789102
-0.795756
-1.14904
-0.861359
-0.851995
-0.847128
-1.11901
-0.892092
-1.05745
-1.22967
-1.20193
-0.762508
-1.11338
-0.790698
-1.07101
-0.733318
-0.991729
-1.02476
-0.951909
-0.985723
-1.14411
-0.941087
-1.15901
-1.1509
-1.11153
-0.928958
-1.10961
-1.13577
-1.13812
-1.12781
-0.943563
-1.1291
-1.13268
-1.13412
-1.1304
-0.947055
-1.13143
-1.13285
-1.13383
-1.13061
-0.948595
-1.13206
-1.13364
-1.13514
-1.12951
-0.949862
-1.13181
-1.13501
-1.13757
-1.12744
-0.950736
-1.13072
-1.13486
-1.13872
-1.12607
-0.947939
-1.13073
-1.11514
-1.11882
-0.984625
-1.41468
-0.826268
-0.823342
-0.797328
-1.12303
-1.11995
-0.932737
-0.925535
-1.1199
-0.980604
-0.957588
-0.993089
-1.40967
-0.830677
-0.823187
-0.798794
-0.981043
-1.11649
-0.969103
-0.98045
-0.998613
-0.996672
-0.998453
-0.9986
-0.997963
-0.996581
-0.99981
-1.15115
-1.14029
-0.794269
-0.791809
-0.791194
-0.794219
-1.1489
-0.856247
-0.861059
-0.866325
-1.02496
-1.43985
-0.856488
-1.14894
-0.860794
-1.43178
-1.04439
-1.3686
-0.998235
-0.866534
-1.02487
-1.3689
-0.730829
-0.981833
-0.941666
-0.940574
-0.986022
-1.15006
-1.11173
-1.13743
-1.12783
-1.13379
-1.13028
-1.13374
-1.13053
-1.13529
-1.12943
-1.13813
-1.1271
-1.14
-1.12491
-1.12582
-0.971991
-1.41406
-0.990628
-0.969112
-1.11253
-1.13344
-0.948427
-1.13449
-1.13211
-0.95117
-1.13549
-1.13236
-0.950171
-1.13432
-1.13215
-0.94877
-1.13355
-1.13122
-0.947123
-1.13365
-1.12844
-0.943545
-1.13735
-1.10841
-0.928702
-1.16059
-0.952002
-1.15928
-1.10966
-0.928709
-1.15123
-0.98578
-1.14385
-0.949839
-0.739738
-1.02696
-0.893586
-1.16428
-1.11398
-1.13526
-1.13441
-1.13313
-1.13448
-1.13457
-1.13364
-1.13676
-1.13195
-1.14147
-1.12579
-1.1474
-1.11431
-1.12866
-0.977292
-1.39345
-1.03172
-0.933759
-1.19793
-1.21689
-0.917748
-1.2191
-1.21419
-0.920943
-1.21802
-1.2125
-0.918987
-1.21454
-1.21164
-0.917353
-1.21361
-1.21222
-0.916354
-1.21402
-1.2119
-0.914328
-1.21879
-1.20235
-0.901515
-1.22949
-1.05724
-1.11863
-0.991372
-1.04737
-0.913793
-1.0745
-0.731236
-0.834584
-0.949319
-0.87147
-1.19144
-1.16034
-1.11785
-1.11031
-0.926421
-1.15151
-1.16823
-0.907053
-1.14872
-1.00897
-0.959601
-0.943253
-1.39027
-1.12181
-1.06357
-1.42741
-1.02326
-0.953941
-0.974237
-0.946831
-1.16051
-1.10839
-0.938644
-1.13816
-1.12843
-1.13425
-1.13126
-0.933389
-1.13448
-1.13155
-1.13604
-1.13037
-0.93127
-1.13855
-1.1278
-1.13912
-1.12682
-0.926536
-0.933739
-0.934861
-0.934951
-0.936464
-0.93299
-1.14221
-1.12789
-0.949336
-1.13761
-1.12642
-1.14521
-1.12087
-0.944738
-1.14216
-1.09678
-1.22117
-0.937649
-1.38193
-0.839797
-0.803543
-0.817102
-1.08112
-0.877602
-0.781222
-1.14158
-0.764583
-1.09908
-1.1397
-0.763444
-1.12231
-1.13306
-0.761532
-1.13098
-1.13328
-0.761005
-1.12746
-1.12603
-0.761415
-1.13171
-1.1258
-0.762692
-1.1292
-1.1174
-0.762045
-1.11909
-0.857561
-0.826816
-1.03005
-0.899327
-1.00227
-1.03941
-1.15894
-1.17106
-1.16055
-1.16741
-1.13209
-1.1344
-0.94514
-1.13617
-1.13549
-1.13284
-0.942271
-1.12945
-0.9367
-0.886257
-0.889258
-0.790599
-0.921825
-0.894817
-0.858409
-1.00072
-0.993445
-0.98314
-0.992239
-0.77052
-1.25556
-0.695392
-0.933495
-0.991112
-0.968606
-0.97269
-1.00081
-0.985733
-0.982801
-1.00237
-0.972696
-1.03856
-0.91297
-1.02774
-1.03126
-1.16535
-1.16418
-1.16857
-1.16104
-1.13464
-1.13253
-0.94822
-1.1353
-1.13825
-1.13406
-0.946642
-1.13348
-0.934574
-0.886365
-0.886051
-0.787123
-0.918913
-0.908887
-0.870134
-0.918707
-0.888447
-0.853032
-1.02489
-0.911955
-0.787916
-0.994007
-0.998514
-0.987338
-0.987118
-0.931417
-0.904151
-0.897777
-0.788696
-0.982989
-0.970178
-1.1111
-0.937226
-1.13833
-1.13632
-1.12937
-0.943705
-1.1275
-0.932889
-1.1343
-1.13315
-1.13155
-0.947375
-1.13055
-0.931439
-1.13383
-1.13389
-1.13162
-0.949142
-1.13151
-0.930519
-1.13477
-1.13583
-1.13031
-0.950679
-1.13157
-0.929169
-1.13584
-1.13913
-1.12704
-0.951658
-1.13143
-0.927001
-1.13348
-1.14125
-1.12429
-0.948106
-1.13234
-0.922047
-1.1122
-1.12288
-0.983026
-0.967374
-0.983186
-0.802246
-0.826362
-0.79412
-0.752359
-1.07799
-0.767916
-1.03651
-0.852237
-0.816612
-1.06697
-1.09397
-0.919731
-0.970012
-0.969972
-0.977525
-0.997419
-0.978119
-0.980123
-1.00369
-0.975753
-1.00325
-0.981495
-0.974437
-0.976871
-0.980745
-0.989089
-0.977131
-0.977961
-0.744099
-1.01632
-0.899543
-0.935528
-0.939904
-0.957994
-0.989888
-1.14676
-0.86453
-1.06523
-1.05184
-1.06317
-1.07887
-0.845212
-1.06181
-1.06562
-1.06056
-1.14785
-0.775667
-0.780769
-0.77939
-0.778151
-0.775651
-0.772905
-1.14959
-0.778142
-0.777324
-0.777596
-1.14966
-0.77944
-1.15447
-1.15583
-1.15343
-1.0233
-1.02146
-0.948972
-0.935921
-0.933521
-0.93401
-0.93432
-0.934144
-0.885988
-0.787484
-0.916113
-0.906029
-0.866404
-1.03374
-1.02846
-1.17913
-1.14293
-1.20392
-0.923403
-0.995049
-0.848756
-1.04343
-0.92135
-0.978062
-0.998278
-0.972018
-0.969568
-0.97091
-1.007
-0.993786
-0.978719
-0.929337
-0.890216
-0.898564
-0.934473
-0.737399
-0.807545
-1.09255
-0.989461
-1.03628
-1.0624
-0.70364
-0.878332
-0.9264
-1.0947
-0.729239
-0.915004
-0.931524
-1.09998
-0.732174
-0.903506
-0.942468
-1.09589
-0.745983
-0.89266
-0.997679
-1.36293
-1.01733
-0.992699
-1.24812
-1.20985
-0.985309
-0.745563
-1.07403
-1.00974
-0.945509
-0.957272
-0.949932
-0.715348
-0.980233
-1.10027
-0.788928
-1.05477
-0.810723
-0.84062
-1.13565
-1.07742
-0.872216
-1.143
-1.10968
-0.895571
-1.13593
-1.12343
-0.898004
-1.13222
-1.12713
-0.899506
-1.12994
-1.12827
-0.89883
-1.12946
-1.12829
-0.900518
-1.12747
-1.12889
-0.885458
-1.1238
-1.11267
-0.863241
-1.07147
-0.909124
-1.04606
-0.990198
-1.05688
-1.22988
-1.20163
-0.901515
-1.16648
-0.891738
-1.11912
-1.02654
-0.739889
-0.948635
-0.982498
-1.14411
-0.93697
-0.984231
-0.985513
-0.995803
-0.986977
-0.989519
-0.986176
-0.984081
-0.918545
-0.891501
-0.855625
-1.0371
-1.03787
-0.91604
-0.913533
-0.973838
-0.990296
-1.13485
-1.13618
-0.935185
-1.13093
-1.1332
-0.94934
-1.13174
-1.13408
-0.950761
-1.13156
-1.13533
-0.95146
-1.13034
-1.13435
-0.947843
-1.12853
-0.993522
-1.00257
-0.98228
-0.98801
-0.976304
-0.971426
-0.973061
-0.975322
-0.977906
-0.981833
-0.990284
-0.980214
-0.98114
-0.739619
-0.9825
-0.936522
-0.985359
-0.984349
-0.995445
-0.986799
-0.983253
-0.980984
-0.978847
-0.977098
-0.979841
-1.02356
-1.01776
-0.743065
-1.32609
-0.99979
-0.959609
-0.932765
-1.09997
-0.73343
-0.735215
-0.804774
-1.14685
-0.767321
-0.778889
-0.793965
-1.15339
-0.770825
-0.782378
-0.787095
-1.14856
-0.787185
-0.800692
-0.869423
-1.44903
-1.03101
-1.0066
-1.0114
-1.0023
-0.849423
-0.818544
-0.872611
-1.44368
-0.863332
-0.865003
-1.15107
-0.958719
-0.955743
-0.935724
-0.995257
-0.712347
-0.985258
-0.986006
-0.726189
-1.0005
-0.946926
-0.955293
-0.956934
-1.16096
-1.15708
-1.16738
-1.15152
-0.956271
-0.902085
-0.981954
-1.15284
-0.965972
-0.732996
-1.02577
-0.900056
-0.73175
-1.22577
-0.676486
-0.934539
-0.819128
-1.00639
-1.01256
-0.84586
-1.03625
-1.02649
-0.869837
-1.02982
-1.03626
-0.85231
-1.03665
-1.02857
-0.87299
-1.02796
-1.03738
-0.850272
-1.03624
-1.02951
-0.871031
-1.02448
-1.03949
-0.847855
-1.01261
-1.01965
-0.828794
-0.949876
-0.69285
-1.25129
-0.900352
-0.771366
-1.42871
-1.01316
-1.06311
-1.39565
-1.00467
-1.04564
-1.37163
-0.997598
-1.02665
-1.38544
-1.01698
-1.0034
-1.39111
-0.74628
-0.95692
-1.14732
-0.943893
-0.952505
-1.15795
-0.928754
-1.10957
-1.11012
-0.937201
-1.13568
-0.914255
-1.13298
-1.21153
-0.788171
-1.21414
-0.760485
-1.2112
-0.78705
-1.2119
-0.75999
-1.21197
-0.78696
-1.21205
-0.760083
-1.21213
-0.787269
-1.21167
-0.760669
-1.21442
-0.788399
-1.21206
-0.761779
-1.21856
-0.790298
-1.20147
-0.760221
-0.895708
-1.14756
-1.12075
-0.942812
-1.16598
-0.909963
-1.16565
-1.13139
-0.937898
-1.16562
-0.910849
-1.16399
-1.13283
-0.936402
-1.16408
-0.910592
-1.16465
-1.1332
-0.93566
-1.16518
-0.910548
-1.16317
-1.13392
-0.93609
-1.16436
-0.910784
-1.16407
-1.13556
-0.937393
-1.16736
-0.91044
-1.16349
-1.14056
-0.942976
-1.15309
-0.898921
-1.19744
-1.15114
-0.959698
-0.867728
-0.833801
-0.732142
-0.991703
-1.04744
-0.909291
-1.07182
-0.86089
-0.894975
-0.906758
-0.933555
-0.937623
-0.979803
-1.14456
-0.941425
-0.983653
-0.949009
-1.16441
-0.90196
-1.20142
-0.790756
-1.2185
-0.761946
-0.994793
-0.984651
-0.972224
-1.15202
-1.02159
-1.43072
-0.861041
-1.14895
-0.856739
-0.86523
-1.06402
-1.05921
-1.05097
-1.05991
-1.06643
-1.4394
-1.02265
-0.952325
-0.937062
-0.938369
-0.941112
-1.13962
-1.14117
-0.942616
-0.987043
-0.979234
-0.973086
-1.15066
-0.929186
-1.11143
-1.13636
-0.94388
-1.12833
-1.1333
-0.947585
-1.02622
-0.935848
-0.936814
-0.936324
-0.936608
-0.934179
-0.936447
-0.936165
-0.935363
-0.934848
-0.933628
-0.936101
-0.937314
-1.11196
-1.13649
-1.21807
-1.21146
-1.21343
-1.21099
-0.760777
-1.12942
-0.787634
-1.1277
-0.762174
-1.13032
-0.790533
-1.12405
-0.884287
-0.849467
-1.03656
-0.910536
-1.02717
-1.16596
-0.937314
-1.13495
-0.943884
-1.13186
-1.13325
-0.935596
-1.13187
-0.947528
-1.13149
-1.13197
-0.933633
-1.13164
-0.947369
-1.13264
-1.1327
-0.932526
-1.13335
-0.916172
-1.13448
-1.13294
-0.914993
-1.13839
-1.11213
-0.903296
-1.00208
-1.0024
-0.997583
-0.998206
-0.998283
-0.99781
-0.996564
-0.999953
-1.15121
-1.13974
-0.794869
-0.788407
-0.792804
-0.859295
-1.43846
-1.02286
-1.02354
-1.42599
-0.858806
-0.86388
-1.06605
-1.06336
-1.12235
-1.06261
-1.43152
-1.02134
-0.948907
-1.16558
-0.902316
-0.998938
-0.979835
-1.15359
-1.14757
-0.777398
-0.774837
-1.14965
-0.772265
-0.787952
-1.14922
-0.980341
-0.938317
-0.889395
-0.94311
-1.38853
-1.19949
-0.960083
-1.14944
-0.926223
-1.11911
-1.10795
-0.940987
-1.13583
-0.943358
-1.12723
-0.93498
-1.13218
-0.946314
-1.13115
-1.13021
-0.932189
-1.13296
-0.916018
-1.13348
-1.13321
-0.916121
-1.13367
-0.934505
-0.934347
-0.934134
-0.933722
-0.936142
-0.979762
-1.15354
-1.14737
-0.95825
-1.0029
-0.980427
-0.998845
-0.97951
-0.958195
-1.00267
-0.936635
-0.938485
-0.934918
-0.934449
-0.935728
-0.933019
-0.983246
-0.980907
-0.978855
-0.981707
-0.979249
-0.907721
-0.888875
-0.892512
-0.899842
-0.733925
-1.01897
-0.75035
-1.35928
-0.981216
-0.958392
-0.960135
-1.11279
-0.986025
-1.03281
-0.98109
-1.34962
-0.966937
-0.957989
-0.931232
-1.0953
-0.731727
-0.74511
-0.812339
-1.1405
-0.764065
-0.790701
-0.804324
-1.14682
-0.767509
-0.791889
-0.799824
-1.14202
-0.785451
-0.805443
-1.16245
-0.998272
-0.932781
-0.925559
-1.13277
-1.20787
-0.917829
-1.22057
-0.763244
-0.914542
-1.18174
-0.934609
-1.12211
-1.14771
-0.935892
-1.09993
-1.18587
-1.13303
-1.05072
-0.8368
-0.957778
-0.889743
-1.1078
-1.17131
-1.15325
-1.11782
-0.939783
-1.10813
-0.93155
-1.11383
-0.939558
-1.10833
-0.932292
-1.11484
-0.942152
-1.10873
-1.17409
-1.14741
-0.956171
-0.847996
-1.00905
-1.1539
-0.845208
-1.01284
-1.03045
-0.990961
-0.864226
-0.863136
-0.868396
-1.43498
-0.869506
-0.95813
-1.37593
-1.03419
-0.994218
-0.844646
-0.858226
-1.15965
-0.79702
-0.796509
-1.15631
-0.984136
-1.00497
-1.00048
-0.997012
-0.998184
-0.99833
-0.997818
-0.996538
-0.999883
-1.15121
-1.14003
-0.772244
-0.775418
-1.05506
-1.05094
-1.06278
-1.36833
-1.04477
-0.846985
-0.852205
-0.952544
-0.864597
-0.844904
-1.01291
-1.42917
-1.06318
-1.38836
-1.00421
-1.3949
-1.12241
-1.07983
-1.06361
-1.42642
-0.858906
-0.85946
-1.14934
-0.790887
-0.790383
-0.859633
-0.858805
-0.863265
-1.01839
-1.40368
-1.01895
-1.43786
-1.02223
-1.02327
-0.943183
-0.791161
-0.896752
-0.903686
-0.933918
-0.98707
-0.986722
-0.998396
-0.989842
-0.986445
-0.984326
-0.982343
-0.980682
-0.977484
-0.982224
-0.98109
-1.01405
-0.747625
-0.81957
-0.824216
-1.41467
-0.958389
-0.96876
-0.999
-1.3225
-0.740498
-0.822524
-0.825019
-0.752919
-0.832849
-0.848061
-1.38941
-0.996943
-1.02933
-0.782242
-0.870086
-0.948909
-0.892956
-0.906032
-0.983174
-1.02533
-1.02293
-0.982681
-0.981073
-1.01121
-1.00501
-0.998589
-0.995539
-0.9945
-0.978655
-0.976175
-0.975895
-0.970329
-0.983592
-0.922104
-0.920123
-0.91936
-0.918644
-0.917088
-0.913078
-1.00607
-0.99033
-0.990938
-0.987601
-0.983901
-0.981034
-0.980491
-0.978215
-0.99308
-0.992882
-1.1372
-1.21814
-1.21122
-1.2136
-1.21086
-0.91552
-1.13394
-1.13246
-0.913783
-1.03748
-0.935946
-0.937232
-1.11134
-1.0217
-1.43093
-0.998266
-0.949111
-0.97952
-0.998941
-1.15144
-0.797949
-0.789404
-1.06707
-1.05848
-1.06641
-1.05463
-0.77153
-1.14972
-1.05506
-1.06324
-0.865841
-1.07989
-1.05549
-1.05022
-1.06246
-1.06547
-1.12259
-1.06334
-1.06588
-1.06736
-1.08061
-0.796866
-0.864902
-0.952459
-1.15137
-0.852692
-0.84658
-0.999044
-0.980683
-1.15371
-1.14708
-0.958256
-0.980678
-0.938504
-0.889426
-0.790735
-0.886369
-0.787918
-0.933465
-0.933032
-0.933856
-0.931507
-1.13343
-1.13391
-1.21268
-1.21021
-1.21369
-1.20924
-0.917359
-1.13444
-1.13367
-0.916252
-1.04146
-0.886016
-0.786828
-0.88592
-0.786477
-0.934038
-0.930564
-0.936055
-0.932117
-0.935881
-0.931137
-0.934663
-0.932576
-0.883618
-0.787664
-0.929732
-1.04197
-1.04246
-1.04195
-1.04106
-1.03753
-1.02105
-1.00191
-1.00013
-1.02512
-1.00625
-1.00185
-1.02625
-1.00761
-1.00203
-1.00032
-1.02212
-1.02126
-1.00186
-1.00518
-1.00313
-1.00522
-1.0059
-1.00252
-1.02659
-1.00776
-1.00226
-1.02579
-1.00655
-1.00051
-1.02102
-1.03679
-0.930365
-1.1159
-0.740198
-1.16839
-0.996147
-0.979604
-1.14492
-0.786872
-1.15878
-1.06768
-1.03619
-0.977294
-1.34009
-0.969223
-0.962413
-0.903389
-1.07017
-1.0803
-0.850905
-0.962895
-1.07149
-1.07946
-0.989022
-0.968326
-1.33226
-0.98153
-1.03917
-1.04535
-1.04797
-1.03969
-0.977386
-1.07005
-0.944663
-0.942609
-1.09606
-0.746533
-0.73081
-0.799943
-1.1423
-0.784845
-0.773748
-0.787176
-1.14905
-0.785798
-0.77724
-0.780275
-1.14397
-0.801481
-0.869659
-1.43827
-1.05855
-0.99276
-0.86683
-0.861875
-1.15624
-0.983325
-1.00473
-1.00096
-1.00214
-1.00238
-1.00182
-1.00018
-1.00283
-1.02192
-1.03744
-0.914552
-1.13268
-1.13344
-0.916231
-1.13337
-1.13342
-1.2124
-1.2102
-1.21334
-1.20913
-0.760341
-1.12795
-0.786054
-1.13046
-0.76023
-1.12927
-0.786491
-1.12996
-0.89808
-0.861075
-1.03235
-0.910793
-1.03201
-1.16334
-0.935143
-1.13203
-0.944605
-1.13453
-1.13348
-0.93528
-1.12978
-0.946978
-1.13343
-0.935482
-1.12902
-0.944463
-1.13849
-1.13947
-0.938607
-1.11431
-0.931718
-1.11026
-1.11263
-0.939957
-1.13797
-1.13881
-1.10916
-0.931264
-0.982517
-0.938174
-0.935762
-0.936167
-0.936195
-0.936035
-0.935693
-0.886258
-0.88584
-0.933974
-0.931543
-0.934091
-0.930497
-1.13338
-1.13393
-0.917895
-1.1332
-1.13538
-1.21615
-1.20815
-1.21987
-1.20812
-0.763178
-1.11038
-0.786326
-1.13638
-0.761251
-1.12415
-0.786058
-1.13279
-0.897301
-0.859674
-1.02846
-0.912917
-1.03631
-1.15329
-0.934731
-1.12219
-0.940752
-1.14705
-1.13347
-0.939909
-1.11696
-0.924523
-1.10047
-1.18546
-0.936123
-1.13277
-1.04983
-0.957094
-0.889154
-0.957039
-0.989073
-0.835929
-0.871534
-1.14323
-1.07799
-0.783558
-0.903585
-0.91044
-0.914521
-0.916179
-0.91699
-0.917818
-0.919848
-0.894906
-0.905016
-1.04754
-0.909308
-0.692701
-0.834093
-0.949612
-0.86667
-1.25219
-0.769747
-0.897385
-1.14937
-1.00838
-0.905097
-0.95424
-1.1496
-0.929007
-1.10669
-0.938432
-1.1352
-0.943177
-1.12891
-1.12689
-0.933346
-1.13304
-0.915791
-1.13339
-0.994586
-0.979821
-1.13421
-0.978007
-1.13881
-0.989753
-0.988733
-0.975789
-0.978506
-0.938227
-1.01689
-0.991888
-0.934832
-0.990054
-0.830095
-1.01727
-0.899279
-1.15134
-0.942975
-1.13955
-0.941562
-1.13007
-1.13105
-0.937003
-1.13271
-0.946575
-1.1307
-0.93392
-1.13191
-0.94723
-1.13195
-1.13161
-0.931978
-1.13203
-0.980991
-0.980818
-1.13279
-0.979225
-0.978206
-0.981398
-0.985918
-1.14098
-0.979579
-1.17005
-0.982613
-0.969032
-1.01371
-1.00045
-0.993332
-0.97232
-1.16516
-1.00142
-0.862907
-1.03236
-0.910894
-1.1642
-0.935724
-1.13326
-0.944433
-1.13291
-1.13372
-0.935149
-1.13112
-0.947689
-1.1326
-0.934077
-1.13101
-0.946872
-1.13377
-1.13438
-0.93411
-1.12897
-0.934632
-1.02573
-1.0262
-1.00763
-1.00268
-1.00209
-1.00043
-1.00308
-1.00189
-1.021
-1.02502
-1.04084
-0.935964
-0.936369
-0.936563
-1.04168
-1.0264
-1.02608
-1.00753
-1.00621
-1.02627
-1.02225
-0.94373
-1.1379
-0.938217
-1.137
-1.12819
-0.935103
-1.13339
-1.13395
-1.12766
-1.12788
-0.937122
-1.13343
-1.13571
-1.13123
-1.14053
-0.94092
-1.13679
-1.11085
-1.10749
-1.10842
-1.10994
-0.940846
-1.13947
-1.1375
-0.943727
-1.12739
-0.937084
-1.1351
-1.13384
-0.946982
-1.13042
-0.935814
-1.13432
-1.1328
-1.13269
-1.13318
-0.934103
-1.13123
-1.1309
-0.946974
-1.1307
-0.935819
-1.13245
-1.13494
-1.13337
-0.944521
-1.13514
-1.1645
-0.937119
-1.1302
-0.942156
-1.13971
-1.16575
-0.942666
-1.11904
-1.1084
-1.169
-0.954019
-1.15063
-0.929529
-1.16043
-0.952649
-1.15898
-0.929489
-1.15198
-0.953942
-1.16758
-1.10929
-1.11799
-0.926689
-0.980721
-0.972704
-0.977936
-0.748898
-1.01331
-0.963237
-0.986636
-0.988307
-0.744895
-0.975203
-0.941852
-0.961553
-1.01449
-0.748755
-1.39679
-1.02861
-1.00221
-0.863515
-1.14748
-0.973773
-0.94412
-0.945766
-0.972085
-0.907809
-1.00646
-1.1493
-0.844403
-1.02848
-1.39637
-1.00284
-1.42619
-1.02334
-0.938561
-0.937338
-0.935698
-0.936536
-1.02722
-0.947935
-1.132
-0.933789
-1.1321
-1.13284
-1.13157
-1.13504
-0.935338
-1.13201
-1.13379
-0.945142
-1.13346
-1.16474
-0.935592
-1.13212
-1.16441
-0.911515
-1.03309
-1.03273
-0.862192
-1.03314
-1.03301
-0.862542
-1.03254
-1.03435
-0.860761
-1.02944
-1.03727
-0.85723
-1.01092
-0.970646
-0.99884
-0.972224
-1.00154
-0.972468
-1.00179
-0.972278
-1.00189
-0.972106
-1.0021
-0.863598
-1.02842
-1.1659
-0.911102
-1.03675
-1.01464
-0.850754
-1.00088
-0.97264
-0.969083
-1.01765
-0.899891
-1.19968
-0.959613
-1.14967
-0.926784
-0.980674
-0.981288
-0.992125
-0.770494
-0.899045
-1.25169
-0.692841
-0.950481
-0.830271
-0.989742
-0.934911
-0.834472
-0.866954
-1.0078
-0.906626
-1.14932
-0.938295
-0.977651
-0.972784
-0.985521
-0.991936
-0.985052
-0.982312
-0.981349
-0.93504
-1.13226
-1.16589
-1.16369
-1.13325
-0.988821
-0.988103
-0.987457
-0.981747
-0.978563
-0.975408
-0.974214
-0.989344
-0.945362
-1.13344
-0.935466
-1.13
-1.13582
-1.12962
-1.17001
-0.934852
-1.13497
-1.16163
-0.912195
-0.760345
-0.996129
-0.983042
-0.986344
-1.00028
-1.13579
-1.21666
-1.20821
-0.786846
-0.884959
-0.88574
-0.786511
-0.933927
-0.92963
-1.13377
-0.9331
-0.9287
-1.13305
-0.918798
-1.0413
-0.936542
-0.93609
-1.03759
-1.02164
-1.02575
-1.00664
-1.00769
-1.02737
-1.00244
-1.00552
-1.00238
-1.00267
-1.02733
-1.02629
-1.02527
-1.00617
-1.02587
-1.04074
-1.04129
-0.916902
-0.995766
-0.994961
-0.98079
-0.9827
-0.988441
-0.979714
-0.978393
-0.97222
-0.98482
-0.933111
-0.994778
-0.985235
-0.982945
-0.985279
-0.987851
-0.993337
-0.990823
-0.988295
-1.00168
-0.997715
-1.13206
-1.13622
-0.918204
-1.13119
-1.00725
-0.991972
-0.986654
-0.991619
-0.892006
-0.950254
-1.21059
-1.24752
-0.745477
-0.997368
-1.3632
-1.01703
-0.84966
-1.00212
-1.0132
-0.866216
-0.868729
-1.45107
-1.03706
-1.00479
-1.27781
-1.10242
-1.10384
-1.04458
-1.06696
-0.790295
-1.16075
-0.981131
-1.00299
-1.00059
-1.02675
-1.02763
-1.02653
-0.936188
-0.933905
-0.929422
-0.933016
-0.928416
-0.884681
-0.885469
-0.885687
-1.1653
-1.16122
-0.93492
-1.12945
-0.944114
-1.13832
-1.13235
-0.936237
-1.12654
-0.944126
-1.12997
-0.935942
-0.936265
-1.02692
-1.04145
-1.04105
-0.919265
-1.02581
-1.00656
-1.00761
-1.00747
-1.02679
-0.935986
-0.935213
-0.936933
-1.13889
-0.979028
-1.12792
-0.973187
-1.11123
-1.16173
-0.941598
-0.974727
-0.989685
-0.738019
-0.980033
-0.979014
-0.98124
-0.986469
-1.1358
-0.986234
-0.97168
-1.03178
-1.00116
-0.983432
-0.971779
-1.16419
-1.00101
-0.861513
-1.03161
-0.911394
-1.03334
-0.971911
-1.00073
-0.982635
-0.982466
-0.987112
-1.13484
-0.982462
-1.1332
-0.977067
-0.987589
-1.13482
-0.982715
-1.13249
-0.977607
-0.987929
-1.13543
-0.971694
-1.16941
-0.99809
-0.856184
-1.01001
-0.913834
-1.18119
-0.970253
-0.984139
-0.989385
-0.976364
-0.951616
-0.893261
-0.938287
-0.92104
-0.978688
-0.987808
-1.13555
-0.980236
-0.987668
-0.976554
-0.961055
-0.939894
-0.975245
-0.980381
-0.981992
-1.13409
-1.13207
-0.979313
-0.978298
-0.982614
-0.990713
-0.980431
-0.967488
-0.939957
-0.974769
-0.979338
-0.980423
-1.1312
-0.994841
-0.994677
-0.99456
-0.916971
-0.917722
-0.919574
-0.881687
-0.909274
-0.917216
-0.917333
-0.918157
-0.99509
-0.984624
-0.984002
-0.98048
-0.933153
-0.726696
-0.813199
-0.91914
-0.976557
-0.990671
-0.985766
-0.978624
-0.975254
-0.974081
-0.974967
-0.978043
-0.985118
-0.983746
-0.972794
-0.97542
-0.97545
-0.941707
-1.14748
-0.937872
-0.99252
-0.981002
-0.991537
-0.987875
-0.942188
-1.12967
-1.13183
-0.936052
-1.02225
-1.00187
-0.958318
-1.02114
-1.0376
-0.889673
-0.943302
-1.38865
-1.23032
-0.761893
-0.886606
-1.04097
-1.02627
-1.00616
-1.0251
-1.02601
-1.00745
-1.02721
-0.936464
-0.936687
-0.936841
-0.936822
-1.0267
-0.94742
-1.13248
-0.934183
-1.13101
-1.13509
-0.935533
-1.12808
-1.13071
-1.13284
-1.13499
-0.936318
-1.1263
-1.13609
-1.13208
-0.944894
-1.13886
-1.1537
-0.913772
-0.761312
-0.989664
-0.98151
-0.98298
-0.988038
-0.989509
-0.957094
-0.951491
-0.8933
-0.97505
-0.938326
-0.920706
-0.979638
-0.989356
-0.97729
-0.974732
-0.984939
-0.985722
-1.13318
-1.13245
-1.13348
-1.13256
-0.936128
-1.13358
-1.13162
-0.947559
-1.13374
-0.937818
-1.13166
-1.12979
-0.94499
-1.1376
-1.1424
-1.13968
-0.943044
-1.03898
-1.02375
-1.00122
-1.00368
-1.00185
-1.0029
-0.9336
-0.926623
-1.12206
-0.79889
-0.733816
-1.15896
-1.06623
-1.06714
-0.977683
-1.04078
-1.04842
-1.06575
-0.777555
-1.14913
-0.958102
-1.15124
-1.15726
-1.15142
-1.1508
-1.12119
-0.892235
-1.04566
-1.33287
-0.75444
-0.985539
-1.11736
-1.03904
-1.10291
-1.02656
-0.992975
-1.29396
-1.08708
-0.805289
-0.871724
-1.44448
-0.864171
-1.15494
-0.802342
-1.15742
-0.959616
-1.00634
-1.00245
-1.02167
-1.02189
-1.03736
-1.02266
-1.02626
-1.02266
-1.00318
-1.00675
-1.02691
-1.0274
-1.0417
-0.936824
-0.936945
-0.936414
-1.02302
-0.938365
-0.884169
-0.784015
-1.20859
-0.774358
-0.991036
-1.10887
-0.940161
-0.985166
-0.98857
-1.12098
-0.795399
-0.730381
-1.16091
-0.981063
-0.959676
-1.15073
-0.77353
-1.15114
-1.0662
-1.06642
-1.06907
-0.946323
-1.04531
-1.33204
-0.985387
-1.03931
-1.04477
-1.0461
-1.04991
-1.06611
-0.782343
-1.15111
-1.08331
-1.04666
-1.08154
-1.06675
-0.778529
-1.15316
-0.961207
-1.15745
-1.15681
-1.02781
-0.938262
-0.938827
-1.02808
-1.02342
-0.890577
-0.940645
-0.939126
-0.982755
-1.02306
-1.02725
-1.02927
-0.944991
-1.1982
-0.964558
-0.97219
-0.984918
-0.982264
-0.981287
-0.981988
-0.984613
-0.988585
-1.13369
-1.13191
-0.944616
-0.886438
-1.04152
-0.945142
-1.1328
-1.13441
-0.935551
-1.13409
-1.13223
-1.13167
-0.947933
-1.13246
-0.985557
-0.974035
-0.977081
-0.984131
-0.984286
-0.981903
-0.985443
-0.972979
-0.974012
-0.977281
-0.983032
-1.14001
-1.13643
-1.14046
-0.983252
-0.984958
-0.985767
-0.948109
-0.989252
-1.13508
-1.13381
-0.945275
-0.886743
-0.886328
-1.0416
-0.94507
-1.13542
-1.13668
-0.988991
-0.972398
-0.972291
-0.972201
-0.97215
-0.972547
-0.968782
-0.934684
-0.989885
-1.0012
-1.00281
-1.00205
-0.98912
-1.00257
-1.00238
-1.00316
-0.988529
-0.981338
-0.928154
-0.97784
-0.984501
-0.984393
-0.973386
-0.959694
-0.939302
-0.977119
-0.973789
-0.959612
-0.94266
-0.97305
-0.97184
-0.938311
-0.967603
-0.887249
-0.944462
-1.13264
-0.941416
-0.999827
-0.97966
-1.15481
-1.0841
-1.08696
-1.11712
-1.02625
-1.10254
-1.10384
-1.10236
-1.08441
-1.04399
-1.09942
-1.29263
-1.1025
-1.1049
-1.18413
-1.15458
-1.29921
-1.30041
-1.28022
-1.29645
-1.29438
-0.954571
-0.958358
-1.00252
-1.16247
-0.81923
-0.954509
-0.985605
-0.948105
-0.924993
-1.13762
-0.936267
-1.13267
-0.90767
-0.886529
-0.91152
-0.884153
-0.8949
-0.898826
-1.16395
-1.13039
-1.13426
-0.982251
-1.29447
-1.13622
-0.994022
-0.760163
-0.911511
-0.733287
-1.1512
-0.762472
-0.762013
-0.760648
-0.900275
-0.862954
-0.933132
-0.89989
-0.95926
-0.951123
-0.754568
-0.930226
-1.1493
-0.789362
-1.06214
-0.751388
-1.11241
-0.932341
-0.95384
-0.879369
-0.850667
-0.740656
-0.930187
-0.93135
-0.935107
-0.786977
-0.936135
-1.13462
-0.93316
0.990406
0.978763
0.989702
0.982992
0.976896
0.974421
0.973989
0.975414
0.978874
0.986018
0.972875
0.967852
0.720712
1.01645
1.15205
0.905279
1.00614
0.955226
1.19635
0.895313
1.14828
1.01027
0.84758
1.03542
1.02699
0.862645
1.03437
1.03066
0.863745
1.03376
1.03125
0.859619
1.0339
1.03036
0.860971
1.03089
1.03244
0.859902
1.02556
1.03661
0.849712
1.01039
1.01759
0.828752
0.947581
0.691447
1.24911
0.770302
0.898588
1.01204
0.749605
0.961065
0.989195
0.746715
0.981765
0.979914
0.752277
0.992716
0.951512
0.745828
0.982501
1.18002
0.818314
1.0967
1.03349
0.952035
0.956777
1.13405
0.947893
0.952697
0.952583
1.14342
0.954464
0.951097
0.935779
1.14481
0.972496
0.952264
0.903001
1.14717
1.00423
0.957939
0.864773
0.831499
0.730153
0.907116
1.06907
1.11113
1.12111
1.12758
1.12544
1.12722
1.1274
1.1268
1.12894
1.12831
1.12908
1.12873
1.12966
1.12727
1.12811
1.12009
1.10336
1.04881
0.861161
0.977405
0.997107
1.02808
0.956204
0.720899
1.29047
0.99781
1.05665
0.993842
1.03171
1.15461
1.18274
1.10053
1.04942
1.05365
1.04999
1.10042
1.29068
1.0566
0.84626
0.857145
0.957028
0.869642
0.846723
1.01039
1.30111
1.03162
1.37524
0.993715
1.15461
0.977222
0.99717
1.05057
1.22716
1.20155
0.903255
1.16935
0.890528
1.1217
1.02867
0.720283
0.955271
0.987683
1.15359
1.11453
1.13985
1.12985
1.13491
1.13197
1.13386
1.13165
1.13465
1.12977
1.13672
1.12697
1.13781
1.12469
1.12237
0.970476
1.40781
0.986317
0.967107
1.11021
1.13146
0.947076
1.1332
1.13058
0.950136
1.13528
1.13101
0.949776
1.13581
1.13071
0.949113
1.13614
1.13038
0.948101
1.13602
1.12946
0.945312
1.13937
1.1117
0.931959
1.16361
0.942387
1.14935
0.984802
0.709691
0.991406
0.946859
1.15183
0.961297
0.719446
1.02034
0.905016
1.17278
1.1114
1.14105
1.13681
1.13283
1.1432
1.12744
1.14603
1.1315
1.13052
1.13687
1.12767
1.13944
1.11766
1.13152
0.977335
1.41244
1.01491
0.958696
1.07144
1.22904
0.915542
1.2125
1.20954
0.916614
1.2112
1.20986
0.916399
1.22687
1.10329
0.947198
1.15805
1.11888
0.946368
1.14559
1.12724
0.943579
1.14299
1.1194
0.927826
1.14836
1.00842
1.15202
0.900226
0.732734
1.22667
0.851877
1.19458
1.15186
0.895852
1.01266
0.934374
0.814118
0.677317
0.863324
0.727245
1.05022
1.10731
0.760551
1.20277
1.11303
0.902383
1.2265
1.17014
0.890115
1.12149
1.05183
0.786877
0.94452
1.37596
0.993507
1.15451
1.03177
1.30116
1.01071
0.847087
0.957266
0.869635
0.805343
1.15957
0.857103
0.867888
0.800641
0.797825
1.1565
0.862741
0.862206
0.797029
0.800808
1.15643
0.868412
0.856713
0.803971
0.869959
1.1593
0.957034
0.846473
1.03192
1.01034
1.30164
1.03183
1.15453
0.992731
1.05697
1.2881
1.00124
1.02705
1.2764
1.02635
1.00199
1.2877
1.05658
0.846581
1.09623
1.18203
1.10049
1.43871
1.02765
0.951222
0.988998
0.944735
1.16467
1.11234
1.11218
1.11545
0.93182
1.16514
1.15289
0.989897
1.1499
0.943424
0.955449
1.0298
1.4517
1.10424
1.10055
1.43831
1.02765
0.951158
0.888792
1.0521
1.22678
1.20211
0.760482
1.10426
0.787377
1.04847
0.72759
0.996021
1.12158
1.03223
0.950897
0.988793
0.987724
1.14981
0.951835
1.03121
0.996327
0.976325
0.86719
0.892274
0.843382
0.813411
0.978991
0.918106
0.970924
0.978599
0.992955
0.999793
0.856961
1.00596
1.03573
1.16236
1.17344
1.15181
1.18989
0.906538
1.05057
1.02826
0.909766
0.761765
1.12637
1.13833
0.758636
1.21051
1.13531
0.914757
1.21013
1.13317
1.13439
0.914061
1.21272
0.788028
0.887752
0.890392
0.943014
0.790212
1.12829
0.892608
1.1156
0.922306
0.923065
0.893952
0.859394
1.00501
0.973631
0.964541
0.979666
0.977677
0.969778
0.936085
0.942098
0.977175
0.955832
1.15368
1.16488
1.11145
0.932356
1.1139
0.94288
1.13995
1.14023
1.13139
0.945859
1.12792
0.938421
1.13839
1.13421
1.13448
0.948873
1.12711
0.936212
1.13964
1.13285
1.13415
0.950004
1.12835
0.933179
1.13732
1.13435
1.13093
0.95004
1.1302
0.92911
1.13489
1.13655
1.12706
0.949766
1.12958
0.927123
1.13234
1.13787
1.12444
0.946795
1.13137
0.924547
1.10907
1.12009
0.980152
0.967265
0.98506
0.800037
0.832795
0.803232
0.8337
0.906063
1.41164
0.963374
0.884103
1.15532
0.884399
1.08738
0.7657
1.10247
1.13368
0.75801
1.1277
1.13608
0.766098
1.08103
1.28761
0.985487
1.12865
0.902559
0.90635
0.887154
0.94055
1.10708