/*--------------------------------*- C++ -*----------------------------------*\
| =========                 |                                                 |
| \\      /  F ield         | OpenFOAM: The Open Source CFD Toolbox           |
|  \\    /   O peration     | Version:  2306                                  |
|   \\  /    A nd           | Website:  www.openfoam.com                      |
|    \\/     M anipulation  |                                                 |
\*---------------------------------------------------------------------------*/
FoamFile
{
    version     2.0;
    format      ascii;
    arch        "LSB;label=32;scalar=64";
    class       volScalarField;
    location    "1.6";
    object      gradTx;
}
// * * * * * * * * * * * * * * * * * * * * * * * * * * * * * * * * * * * * * //

dimensions      [0 -1 0 1 0 0 0];

internalField   nonuniform List<scalar> 
5322
(
-0.251592
0.00572196
0.00698047
0.000793317
-0.000134254
-0.000174052
1.94865e-06
0.000129759
7.87247e-05
-0.0002074
-0.0010072
0.0109803
0.0169166
-0.233
-0.00617397
0.405503
-0.318641
-0.0050302
-0.243115
0.156713
-0.213069
0.18532
-0.196017
0.197083
-0.199633
0.191762
-0.19218
0.199362
-0.196394
0.196443
-0.186411
0.211766
-0.159092
0.242459
0.00345225
0.304287
0.214525
-0.0855566
0.240464
-0.013811
-0.228061
0.229338
-0.0138838
-0.244001
0.24249
-0.00833978
-0.259343
0.226488
-0.00571978
-0.271811
-0.268157
-0.389439
-0.121644
0.261159
-0.0166459
-0.431245
-0.0122469
0.412151
-0.00494046
-0.411839
-0.00177316
0.401381
-0.00231834
-0.404524
-0.000147787
0.395228
0.0050149
-0.400613
0.0172442
0.32806
0.0130219
-0.350181
0.396767
-0.410653
0.395317
-0.40257
0.40336
-0.402512
0.458223
-0.330135
0.161768
-0.213721
-0.138201
0.239946
0.0249373
-0.135995
0.158938
-0.42794
-0.161491
0.510039
-0.0219243
0.00954921
0.0176146
0.0795626
0.365746
-0.0850332
-0.0103839
-0.0419212
0.163878
-0.379467
-0.37987
0.848801
-0.0412128
0.282107
0.459183
-0.00570863
0.00277473
0.00379294
0.0023002
0.00112758
0.000448315
-0.000119006
-0.00117699
-0.00289017
0.00454918
-0.00153309
-0.133882
-0.132099
0.0139846
0.0841976
0.004783
0.128452
-0.153642
-0.0115111
-0.0353855
0.238185
0.195931
0.0544878
0.153193
0.0990312
0.0753072
0.164474
0.0830437
0.0890915
0.167337
0.0727014
0.140201
0.19022
0.215635
0.00926374
-0.15806
0.00871564
0.105293
-0.127559
-0.136852
0.0195645
0.056552
0.0311184
-0.107104
-0.117715
0.0220266
0.0350681
0.0422636
-0.11616
-0.110214
0.0222093
0.0230554
0.0669147
-0.127493
0.166352
-0.358594
-0.480664
0.414268
-0.485127
-0.020313
-0.333796
0.00268488
0.325408
-0.0781528
0.387841
0.192259
0.28669
-0.429643
0.167654
-0.370199
0.246286
0.321094
-0.392733
0.00880204
-0.333899
0.293885
0.365817
-0.388776
-0.00241484
-0.325846
0.310133
0.378888
-0.388343
-0.00076315
-0.324053
0.315684
0.383382
-0.390625
6.88487e-05
-0.326102
0.315234
0.384226
-0.396382
0.000453198
-0.331749
0.310184
0.382277
-0.405179
0.00103878
-0.338919
0.300313
0.377063
-0.412189
0.00244522
-0.340745
0.282107
0.352179
-0.076879
0.156561
-0.37667
-0.38412
0.854021
-0.0293476
-0.0321566
0.0197078
0.085876
0.363384
-0.0671257
-0.00666838
-0.0748322
0.149134
-0.383787
-0.377479
0.84913
-0.0496811
0.282183
-0.0107011
0.00467166
0.00454979
0.00292823
0.0015251
0.000662924
-1.34889e-06
-0.00108738
-0.00262579
0.00453977
-0.00140475
0.10639
-0.118089
0.117675
-0.106888
0.000213836
0.107003
-0.10113
-0.000569022
-0.127378
7.06448e-05
-0.107028
-8.2057e-05
0.100868
0.0039667
0.118963
-0.00971494
-0.128621
0.000421076
0.127199
-0.000131744
-2.21728e-05
0.225308
-0.387277
0.38681
-0.382585
0.402751
-0.412061
0.430942
-0.429658
0.43653
-0.434736
0.438554
-0.436751
0.44094
-0.437586
0.444105
-0.436682
0.445835
-0.428168
0.439371
-0.235437
0.00495113
0.237643
0.00640375
-0.428628
0.416718
0.00215994
-0.433071
0.426728
0.0014659
-0.431666
0.42803
0.000970906
-0.428874
0.427
0.000673806
-0.426467
0.424883
0.000702673
-0.423694
0.420286
0.00112968
-0.416383
0.405446
0.00128498
-0.387269
0.000227845
0.387136
-0.4057
-0.00182232
-0.402153
0.382005
-0.00071746
-0.227229
-0.0147644
0.231135
-0.401071
0.387256
-0.407819
0.409689
-0.417052
0.416603
-0.418565
0.419683
-0.419146
0.423333
-0.419129
0.428839
-0.416011
0.434294
-0.401501
0.431118
-0.232006
-0.0498003
0.100908
0.0127347
-0.400141
0.360111
0.00505083
-0.394206
0.381003
0.000727729
-0.382182
0.380602
-0.000464952
-0.377498
0.37789
-0.00065843
-0.376169
0.377128
-0.00191844
-0.375046
0.377699
-0.00486528
-0.369883
0.372709
-0.0112364
-0.344297
0.315241
0.00679804
-0.114244
0.194441
0.31974
0.0101949
0.0397924
-0.058451
0.163591
-0.504615
0.382892
-0.48015
-0.323319
-0.399761
0.0103865
0.263241
0.291152
-0.41917
0.162105
-0.376183
-0.0279569
0.0201571
-0.152274
0.0130286
-0.00614783
-0.161554
0.0164785
-0.0260887
-0.381679
-0.413951
0.298665
-0.387302
0.00497518
0.353373
-0.385217
0.372032
-0.385583
0.00272924
0.378969
-0.388513
0.380305
-0.394736
0.0147603
0.37768
-0.402108
0.370155
-0.40337
0.0833207
0.0194809
0.0124953
0.0131475
0.00632441
0.0155077
0.39038
-0.412619
0.0032087
-0.334674
0.27576
0.384448
-0.404854
0.00726317
-0.355457
0.247135
0.49392
-0.0581293
0.00932942
-0.41188
-0.380088
0.803677
-0.0498813
0.0133758
0.0225113
-0.245217
0.0561173
0.192789
-0.199528
0.0164067
0.206917
-0.187684
0.0026102
0.201417
-0.192582
-0.000345977
0.192605
-0.186912
-0.00497716
0.200464
-0.180776
-0.0122582
0.211394
-0.142231
-0.0205149
0.249901
0.0948933
0.07018
-0.0184532
-0.00960677
0.098386
-0.0432592
0.443159
-0.473496
0.462729
-0.472523
-0.305919
-0.396687
-0.000920085
0.302776
0.382025
-0.396367
-0.00217897
-0.307121
0.00259158
0.000230624
0.00334913
-0.000319833
0.0065853
0.0254233
0.0235283
0.0427339
-0.0125021
0.00674995
0.177971
0.28279
0.235853
0.0797209
0.358587
0.142736
0.0669298
0.0199641
0.0127694
-0.00579373
-0.00370254
0.00366807
0.00600827
-0.0562757
-0.000861209
0.0648769
-0.0598998
0.468631
-0.47474
0.471498
-0.484101
-0.31753
-0.40659
0.00113419
0.300429
0.391904
-0.39996
0.000151891
-0.309063
0.00449414
0.00199388
0.000506222
0.000347594
0.000865641
0.00154103
0.00244263
0.0019661
0.00525646
0.00800397
0.0762996
-0.00132787
-0.000495762
-0.00244759
0.000424368
0.00101964
-0.0100711
0.0233832
-0.269556
-0.00067142
0.0037074
0.000179085
-0.00364806
0.412127
-6.71173e-05
-0.430758
0.416338
-0.42032
-0.00147767
0.430286
8.82407e-06
-0.436467
0.424002
-0.424582
-0.000613422
0.435783
0.000253355
-0.438337
0.427295
-0.426178
3.17054e-05
0.438371
0.000478887
-0.44054
0.430429
-0.426425
0.000647987
0.440061
0.000399181
-0.443375
0.434079
-0.424031
0.00155326
0.439571
-0.000838204
-0.444037
0.435765
-0.413483
0.00246376
0.428459
-0.00377407
-0.435763
0.429602
-0.235782
-0.000285057
0.23413
-0.0143621
-0.0298839
-0.0313935
-0.0327859
-0.410793
0.102486
0.0911905
-0.0349695
-0.0720762
-0.0359281
-0.469024
0.0988132
-0.120041
-0.201142
-0.0736806
-0.0577147
-0.0604266
-0.0257447
-0.0115132
0.00191235
-0.000490456
-0.00934351
-0.0116636
-0.00684636
-0.0132505
-0.0262641
0.00463297
0.209003
0.245067
0.240328
0.276899
0.34244
0.326022
0.254998
0.256677
0.167467
-0.148927
0.0480735
-0.0174745
-0.0122384
0.0436338
-0.12984
-0.000353773
-0.000204196
-0.000419617
3.2981e-05
-0.0820206
-0.0934438
-0.0926072
-0.0830247
0.0823057
-0.0698687
0.00259295
0.0930335
-0.0802817
-0.0806086
0.00257267
0.0926921
-5.2633e-06
1.51743e-05
4.12029e-05
4.58229e-05
-0.002449
0.0032863
-0.00167787
-0.000922083
-0.000113654
0.000512683
0.00127433
0.00541033
0.00400005
0.00217346
0.00945716
-0.00266185
0.0566463
-0.0808219
0.478857
-0.494214
0.491903
-0.0102282
-0.144502
-0.0216097
0.0398083
-0.00428134
-0.00954152
-0.00501283
-0.027612
-0.0577709
-0.115197
-0.263249
-0.269139
-0.670641
-0.316537
-0.276778
-0.00941537
-0.109127
0.0857752
-0.541988
-0.323861
-0.151481
0.24552
0.0197813
0.0128257
-0.256735
0.271716
0.00159926
-0.0321352
-0.282063
0.273027
0.000476331
-0.0358341
-0.275269
0.27212
0.00234226
-0.0587401
-0.262647
0.194021
-0.154582
0.126614
0.09598
0.283371
-0.13315
-0.0770641
0.042106
0.170605
-0.558173
-0.0310843
-0.326819
0.284747
0.262303
0.250339
0.314279
0.151987
0.0345282
0.121433
0.183639
0.303457
-0.141372
0.0291572
0.225144
-0.193836
0.000218183
0.197013
-0.199746
-0.00250774
0.191141
-0.195285
-0.00146878
0.189953
-0.193218
-0.00128795
0.189346
-0.19445
-0.00272042
0.182951
-0.205271
-0.01619
0.155335
-0.237698
-0.0885277
-0.00383568
-0.320186
-0.198243
0.115664
-0.315462
0.349018
-0.370426
0.0103996
-0.388178
0.400438
-0.00608441
-0.230899
0.0147454
0.227572
-0.225122
0.00079754
0.00132958
0.000390533
0.000313841
0.000484144
0.000448826
0.000149633
0.000329705
0.000873076
0.00127288
0.00383738
0.000562216
0.0614946
-0.0646658
-0.00186364
-0.000461195
0.00263027
0.000286797
0.302772
0.389991
0.00253513
-0.323036
0.315935
0.000196431
-0.325328
0.3146
0.000586143
-0.332065
0.30873
0.00119946
-0.342219
0.29801
0.00243943
-0.349246
-0.0153781
-0.0122805
-0.066172
-0.0657569
-0.106417
-0.0516239
-0.0252697
-0.0113169
-0.00755847
-0.015032
-0.0278286
0.00179456
0.203895
0.23692
0.230054
0.326591
0.195477
0.00217655
-0.0221717
-0.0116154
-0.00600707
-0.00946083
-0.0221859
-0.0477484
-0.0990104
-0.232787
-0.247801
-0.441173
-0.332099
-0.104599
-0.105374
0.22461
0.0263381
-0.0275469
-0.0218996
0.111223
0.00460525
-0.0886005
-0.0847955
0.0878736
-5.49537e-05
-0.0979971
-0.0937926
0.076889
-0.000401713
-0.121831
-0.116244
0.0371934
-0.1541
0.0980142
0.0950196
0.0994554
0.0864866
-0.135269
0.00948004
0.0501232
-0.15323
0.0367883
-0.148009
0.173941
-0.402667
-0.0216451
-0.387472
0.263072
0.270944
0.271315
0.266255
0.261453
0.264696
-0.419181
-0.0253719
-0.378156
0.271119
0.290321
0.272295
0.28657
-0.0213948
-0.403221
-0.400682
0.174348
0.272317
0.240451
0.238087
0.296423
0.283843
0.227574
0.0692646
0.151389
0.0616716
-0.0327763
0.0759838
0.0116234
-0.0554211
0.0576294
0.00249948
-0.0572141
0.0567696
0.000345469
-0.0583464
0.0560552
-0.000166391
-0.0566135
0.0577988
-0.000772057
-0.058116
0.0559933
-0.00384893
-0.0608727
0.0531198
-0.0141954
-0.0810431
0.0310532
-0.0644843
-0.156592
-0.0747434
-0.232479
-0.280112
-0.285884
-0.192522
-0.141514
-0.217576
-0.00916715
0.159099
-0.120207
0.0116823
0.131888
-0.131534
0.00555272
0.137457
-0.140979
-0.00466423
-0.00947562
-0.244478
-0.0007803
-0.396477
0.000465281
-0.392879
0.00210417
0.411053
-0.417233
0.000493346
-0.413964
0.00484002
0.420133
-0.380917
6.56967e-05
0.381482
0.00198806
-0.381012
7.14898e-05
0.381467
0.00130441
-0.381195
0.00010332
0.381272
-0.000691671
-0.381462
0.00018615
0.381249
-0.00103778
-0.381658
0.000539369
0.381549
-0.00571186
-0.377912
0.00275373
0.378051
-0.00768561
-0.00841717
-0.471507
-0.340801
0.00780593
0.439431
-0.00286495
-0.466885
-0.323896
0.00644349
0.456673
-0.000925316
-0.464601
-0.319226
0.00241628
0.461129
-0.000683124
-0.463586
-0.316757
0.000161415
0.463783
0.000663342
-0.461098
-0.315182
-0.00196875
0.465014
0.000788011
-0.456779
-0.312427
-0.00550759
0.468419
0.00304271
-0.438714
-0.304642
-0.00583376
0.476054
0.0106721
-0.381458
-0.26966
0.025027
0.502204
0.0606577
-0.0434424
0.116079
-0.198801
-0.321436
-0.00326127
-0.0899519
0.00139724
0.275596
-0.0227578
0.00386273
-0.232251
0.0010372
0.397473
-0.388579
-0.00243491
-0.391289
0.0109056
-0.375484
-0.000734427
0.377608
0.00846646
0.00307267
0.000778613
0.00450761
0.408906
0.00280702
-0.00349579
-0.101641
-0.000283349
0.109858
-0.000151868
0.000360499
0.000495544
-0.0174996
-0.0202268
-0.0144983
-0.158452
0.0159438
-0.025971
0.00243848
0.00278552
0.00492568
0.359705
0.296857
0.00170891
-0.00325485
-0.0134994
-0.0161472
0.263546
0.00969858
-0.335692
0.300664
-0.002214
-0.325359
0.312354
-0.000690993
-0.000706052
0.00114238
0.00414743
0.00129064
0.0027469
0.00569084
0.00270987
0.00138389
0.00117636
0.00458789
0.000360972
0.00100297
0.00246402
-0.332759
0.292809
0.464322
-0.479497
0.472657
-0.478049
-0.00116213
-0.376652
-0.00361333
0.380039
-0.00470293
-0.373915
-0.0120027
0.391892
0.0234129
0.0293403
-0.267287
-0.000910819
0.287007
-0.301105
-0.000691533
-0.496084
-0.000944357
0.494268
-0.433422
-0.000191339
-0.438716
0.000124643
0.438596
-0.433502
-5.55522e-05
-0.430637
-5.75859e-05
0.430658
-0.44302
-0.00023043
-0.421685
-0.00134103
0.420745
-0.419897
-0.00376942
0.416101
-0.410081
-0.00776375
-0.00984486
-0.00227706
-0.000986487
-0.000136678
0.000147653
0.000440033
0.00128958
0.0026656
-0.00461726
0.0012102
-0.106498
0.1183
-0.116939
-0.109408
0.00109509
0.000657061
-0.00227492
0.00640827
0.103757
0.000944169
-0.00123519
-0.00965909
0.0126483
-0.011079
-0.155196
0.0151655
-0.0328951
0.232676
0.0112528
-0.0111398
-0.00940459
0.0061889
9.09016e-05
0.0795672
0.08062
-0.00243065
0.0687716
0.106382
-0.00183715
-0.00231675
-0.00238759
-0.000820168
0.00823286
-0.123687
0.316436
0.0184389
-0.472203
-0.00301783
0.478092
-0.419514
-0.00209661
-0.432981
-0.000213104
-0.427318
-0.000176225
-0.428667
0.000938225
0.429479
-0.440593
0.00018346
-0.421517
0.000623158
0.421987
-0.421788
-0.000405923
0.421873
-0.000274321
8.76379e-05
0.000455913
0.00115838
0.001893
0.00251478
0.000135967
-7.54455e-05
-0.00255629
-0.00243709
-0.00919799
-0.0115776
-0.0024272
-0.0024945
4.02456e-05
5.2818e-05
0.000308319
0.000129439
0.000330541
0.000261881
0.000337065
0.000404659
0.0003817
0.000260429
0.00156493
0.00190712
0.00248803
0.00908
-0.000517179
0.0641747
-0.33023
-0.0835534
-0.000109847
-0.0312131
0.14185
-0.144755
-0.470782
-0.170422
-0.00273662
0.0411939
-0.000209094
-0.333573
-0.141362
-0.0934832
0.213432
0.0257611
-0.0235807
-0.0413603
0.120382
0.00438279
-0.0823568
-0.102528
0.103022
0.000229648
-0.0910601
-0.108066
0.0955327
0.000560623
-0.117083
-0.12248
0.0257488
-0.00707551
0.00114191
0.001454
0.411893
-0.372459
0.00250369
0.385562
-0.0140223
0.0103346
-0.487176
0.00178436
-0.302475
0.310186
-0.0026195
-0.294568
-0.513015
0.443743
-0.027859
0.0449422
0.166784
0.00175236
0.358915
0.266681
0.300234
-0.398754
0.0046853
-0.337806
0.0106344
-0.374026
0.00804436
-0.358361
0.0105222
-0.360137
0.00908429
-0.384326
0.279925
0.273698
-0.0192657
-0.482007
-0.387559
0.171152
-0.119056
0.149369
0.0838965
0.0996932
-0.14634
0.0412405
0.031291
-0.157924
0.0623352
0.114313
-0.136955
0.214616
-0.114984
0.0179034
-0.127186
0.022152
-0.138726
-0.108714
0.0212798
-0.0088002
-0.002015
-0.00138219
-0.000301867
0.000316915
0.000386757
0.000521869
0.00126589
0.00260598
-0.00467383
0.00131095
-0.0696183
0.0821976
0.000598777
0.016584
0.0119003
0.0095881
-0.119646
-0.00877753
0.127857
-0.105254
-0.0576223
0.129694
-0.141297
-0.19307
-0.217914
0.153664
0.158671
-0.00950845
-0.0133739
-0.0433267
0.00503756
0.162665
-0.0295812
-0.0381061
-0.0214886
0.11644
0.116523
-0.0382818
-0.0293101
0.149693
-0.0821914
-0.174022
-0.082623
0.16025
-0.0160642
-0.0170419
-0.0208229
-0.00552948
0.00171729
0.275196
-0.0232307
0.0105839
-0.000451581
0.000347557
0.000568454
0.000349737
-5.07333e-05
-0.000709765
-0.00177675
-0.000243336
-0.00126034
0.000336367
-0.0112312
-0.00418702
0.00613495
-0.0157851
-0.00758525
-0.00749222
-0.20945
0.201281
-0.00575814
-0.00471559
0.00981081
-0.00484221
-0.00448224
0.0340685
0.0709763
0.0363077
0.253095
-0.127419
0.0163162
0.132975
0.167888
-0.0666169
0.00666315
-0.00242485
0.0110251
-0.0026926
0.00127985
-0.0192062
-0.0038072
0.000141431
3.06776e-06
-0.000515266
-0.00119912
-0.000824507
-0.00208176
0.00147437
0.00281188
0.000606656
-0.00529764
-0.00111668
-0.000239813
-0.000208916
-0.000375849
0.00056206
0.00754592
0.00234518
0.0038752
0.00222067
0.000846244
2.34803e-05
0.000760574
0.000803795
0.0016958
0.002977
-0.410202
0.37301
-0.375337
0.376181
-0.375764
0.00192417
-0.416076
0.41605
0.00443697
0.00293234
0.00181285
0.000801923
0.40698
0.00245758
-0.00378627
0.128797
-0.00277787
0.00240523
0.0115505
-0.0189872
0.13631
0.107042
-0.0473388
0.0188275
-0.000401128
-0.000169932
0.0698798
-0.00240486
-0.000141983
0.0493061
-0.149159
0.04325
0.000518804
0.0173203
0.012672
0.00134868
-0.0132325
0.00536202
0.0116517
-0.0474382
-0.0435644
0.136778
-0.0577588
-0.105148
-0.0191541
0.129159
-0.00860573
0.0116348
0.00929719
-0.00647737
-0.000352422
0.00254377
0.00929735
-0.00367692
-0.00407061
-0.00108605
-0.00063659
-0.000186475
0.00117266
0.000744784
0.000632424
0.000421199
0.418041
-0.418301
0.376425
-0.3768
0.377135
-0.378688
0.00182409
-0.420473
0.419059
0.00135978
0.000558123
3.18598e-05
-0.000369515
0.000540455
-0.00107107
0.000548676
0.000238097
0.000440019
0.000338343
0.000647061
0.00021922
0.000681646
0.00201222
0.011252
0.0101923
0.0366021
0.00174001
0.000743282
0.000141407
-0.000758044
-0.00271845
-0.00113456
-0.00113912
0.000127519
-0.000262376
-0.00020641
0.000244088
0.000271916
0.000262589
1.65533e-05
-0.0010985
-0.00291665
-0.00305223
-0.00118798
1.58756e-05
0.000110984
0.000196482
0.000302714
0.000414643
0.00073399
0.00063093
0.000587705
0.00130441
0.00111068
0.00060787
0.00176871
0.00339368
0.00138995
0.00205453
0.0491089
-0.01002
0.00442393
0.00143542
0.0053702
0.108553
-0.00505031
-0.0156745
0.0776757
0.0233088
-0.33372
-0.116092
-0.254067
0.22772
-0.15502
-0.165986
0.203845
-0.270147
-0.0145386
-0.0197745
-0.224586
0.197776
-0.00314815
-0.011032
-0.00113688
0.00404524
0.0056638
0.0826902
0.0258089
-0.153396
-0.131822
0.250422
0.0249527
-0.0592282
-0.0171851
0.103432
0.00338068
-0.118166
-0.0766049
0.0777911
-0.000279609
-0.123717
-0.085024
0.0675886
-0.0011236
0.107738
0.103633
0.00619895
0.129552
-0.12595
0.000483794
-0.113801
-0.000634897
-0.00262192
-0.000446049
-3.74109e-05
0.000178432
0.000197694
0.000172513
0.000138818
4.10175e-05
-0.00104837
-0.00285647
-0.00149997
-0.32487
0.310545
-0.000673265
-0.323333
0.315998
0.474515
-0.479362
0.475161
-0.484837
0.00028019
-0.381771
0.00258951
0.377878
-0.000363159
-0.377846
-0.000204377
0.377946
0.00203652
0.0022883
-0.27822
0.0007911
0.282322
-0.304003
0.000451907
-0.495729
0.00044085
0.498025
-0.434265
-0.000151962
-0.437285
0.000462439
-0.432664
-0.000690878
-0.426342
-0.00131737
0.42235
-0.438196
0.000106376
0.419845
-0.00118422
-0.413254
0.412252
-0.00122008
-0.427153
0.431728
-0.417351
-0.000149651
0.000428443
0.00187117
0.00157334
0.000813201
0.000272765
-0.000218113
-0.00108231
-0.00118434
-0.000165349
0.000845815
0.00210184
0.00215311
0.00465415
-0.325152
0.315881
0.000958769
-0.330298
0.31172
0.474994
-0.495675
0.472366
-0.504989
0.0127671
-0.432036
0.0398701
0.376246
0.00244296
-0.396011
0.0114268
0.379373
0.000702295
0.00707822
-0.275131
0.00570378
0.293402
-0.310764
0.00155
-0.491855
0.00273723
0.497166
-0.42571
-0.00168889
0.416691
0.00379882
-0.47118
0.275091
-0.00110775
-0.317401
0.281975
-0.295404
0.0154309
-0.0361028
-0.0180081
-0.0312908
-0.0558575
0.350926
-0.497818
0.107862
-0.0795565
-0.0309085
-0.0117709
-0.00434465
-0.00255446
-0.00415129
-0.00109574
0.0662967
0.683755
0.342819
-0.177989
0.120005
0.0613668
0.390229
-0.338466
0.36768
-0.0218965
-0.239869
0.0116375
0.43395
-0.410304
-0.00109573
-0.407222
-0.000103535
-0.411827
-0.00025668
-0.421601
0.00182847
0.42539
-0.435425
0.000419194
-0.419918
0.00171864
0.421808
0.00161837
0.00109873
0.442516
0.00246549
0.437404
-0.000343729
-0.00279357
-0.00526707
-0.0179053
0.00285282
0.239898
0.0166803
0.0208613
0.0826851
0.145305
-0.200928
-0.000566565
-0.298083
0.00103214
-0.493596
-0.00227913
0.490636
-0.430652
-0.000803173
-0.437925
-4.22998e-05
-0.431932
-3.96556e-05
-0.430384
0.000361285
0.430717
-0.442364
-8.70589e-06
0.442609
-6.89341e-05
0.000403252
0.443069
-2.93356e-05
-0.000167782
-0.000860888
-0.00228876
0.42664
-0.00453648
0.402517
0.0240616
0.0123252
0.303656
0.0120461
0.00716541
-0.000532728
0.308522
0.00118259
0.00485004
-0.277543
-0.000361584
-0.302907
-0.000154904
-0.495906
-0.000191545
0.496119
-0.434333
-1.64163e-05
-0.438563
0.000278562
-0.433734
-0.000274217
-0.429769
-0.000577847
0.429064
-0.442765
-0.000449948
0.436438
-0.000945604
-0.000408147
2.73378e-06
0.00014358
0.000231222
0.000427937
0.00125442
0.00235195
0.00127165
0.00125194
0.00062427
0.00110064
-0.00156879
-0.000607996
0.000147104
0.000442606
0.000522328
0.000474274
0.000337101
0.000549341
0.00104345
0.00311034
0.00263525
-0.329518
-0.00856899
-0.322793
0.358585
-0.00737196
-0.340241
-0.347977
0.365524
0.341756
-0.0072361
-0.324788
-0.370941
0.388405
-0.349079
-0.0088581
-0.312265
0.351475
0.369684
0.36429
0.356307
-0.00812776
-0.343733
-0.3192
0.00266626
0.348168
-0.00672469
-0.364783
-0.33268
0.00119414
0.344156
-0.00246277
-0.373127
-0.338649
-0.347965
-0.356091
-0.00280328
0.35514
0.362657
0.00124301
0.337238
-0.00273785
-0.330446
-0.37964
0.386035
0.00114819
-0.304818
-0.457907
-0.00626822
0.316345
0.00214005
-0.297519
-0.440265
-0.0071275
0.333746
0.393081
-0.282694
0.0227754
-0.274808
-0.00970921
-0.278532
0.0224503
-0.273973
-0.00966165
-0.27962
0.0235805
-0.279148
0.38834
0.337832
-0.010554
0.0152403
-0.00138553
-0.208421
-0.249842
-0.236582
-0.26229
-0.249745
-0.25173
-0.258599
-0.212338
-0.328619
-0.25984
-0.23749
-0.249117
-0.168302
-0.0727102
-0.0902532
0.149374
-0.167064
0.393082
0.397439
0.394378
0.396052
0.410506
0.385854
-0.161855
0.130482
-0.0724145
-0.168459
-0.0907024
0.162806
-0.0168645
-0.00347551
-0.00347854
-0.00162373
-0.000725349
0.000391043
0.000383812
0.36018
-2.53831e-05
-0.351466
-0.359904
-0.332926
-0.383634
-0.000260417
0.334858
0.384125
0.000470268
-0.307446
-0.463616
-0.00228564
0.312157
0.466832
0.00154114
0.0607544
-0.0596191
-0.000673698
0.0605904
-0.0599538
-7.11477e-05
0.0613819
-0.0594256
0.00218509
0.0679868
-0.0535499
0.0128218
0.0950994
0.0338483
0.0189136
0.00624907
0.0029307
0.00046569
-6.02411e-05
-0.00048149
-2.48564e-05
-0.0012586
-0.00090706
-0.00277548
-0.0616713
0.469268
0.00312934
0.0579337
-0.0803866
-0.0126332
-0.021866
-0.00857446
-0.0526022
0.0363549
0.0108943
-0.382935
0.0236714
-0.264352
-0.0107589
0.0157325
0.000680861
-0.16772
-0.285696
-0.27804
-0.232683
-0.0734653
-0.15691
-0.0633119
-0.12518
-0.355836
0.0607304
0.502131
0.383421
0.413013
-0.161444
-0.343777
-0.207464
-0.000527031
0.0348999
0.0227861
0.0130515
0.00497149
0.00164121
-0.000177151
-0.308413
-0.467689
0.465742
0.310897
0.000331533
0.00190082
0.00574197
0.00630463
0.0196459
0.00720578
0.00131483
-0.000274519
8.92595e-05
0.381622
0.00164406
-0.334015
-0.386766
-0.307429
-0.474316
0.00103136
0.311571
0.4655
0.00240071
0.00153042
0.00163708
0.00113169
0.00174407
0.00302381
-0.423709
0.379596
-0.380059
-0.00589208
0.00247856
0.00118983
-0.0026409
0.000612466
0.000176383
0.419866
0.000607906
0.00040547
0.41925
0.00266649
0.000252433
0.000820791
0.00151001
-0.0009041
-1.66824e-05
0.000487293
8.78076e-05
0.000310286
0.000144226
3.75163e-05
0.000374341
0.00137766
0.000610363
0.000134713
5.84511e-05
-0.00078096
-0.000248251
-0.000261042
-0.000857598
-6.74456e-05
0.000195097
0.000187046
-0.000437038
-0.00034113
-0.000195568
-0.000162472
-0.00371398
-0.00383457
-0.0169609
-0.00648033
0.371406
-0.00242376
0.000229996
0.000143034
-0.00170656
-0.00183035
-0.00101354
-0.00698324
-0.00636755
-0.00481016
-0.000944071
-0.336692
0.302952
0.00464848
-0.334427
-0.0137441
-0.0136495
-0.0651334
-0.0831056
-0.304199
-0.306489
-0.491569
0.123213
0.0468829
0.254609
-0.0896302
0.132028
-0.0148168
-0.150817
0.135734
-0.00339415
0.10588
-0.00345373
0.127662
-0.140892
-0.0118995
-0.00374678
-0.00461979
0.00203223
-0.017031
0.11338
-0.00566467
0.00420113
0.00423925
0.00271741
0.00154072
0.000667329
0.000570837
0.00602526
0.0051851
0.012952
0.011191
0.0319944
0.00662392
0.00299592
0.00101163
0.303502
-0.306077
0.00112961
-0.495342
0.00136871
0.500376
-0.432567
-0.000633821
-0.432928
0.000460551
0.42791
-0.000280647
1.51792e-05
0.00031315
0.000440407
0.0011122
0.00235141
0.0014005
0.000871405
0.000483265
0.000187673
9.38467e-05
0.000143027
0.000166522
0.000155593
0.425641
7.09688e-06
0.431313
3.17635e-05
0.41374
0.397233
0.00160876
0.395694
0.238648
0.00629012
0.0013678
-0.000159719
8.06259e-05
-0.00083439
0.432799
0.0015171
-0.00103681
0.281653
0.000174202
0.000544542
-0.000305779
0.30388
0.00106429
0.003496
-0.277146
0.00276405
0.286675
0.000159244
0.00214895
0.000982688
0.00065429
-7.62023e-05
0.434463
0.00015985
0.43386
2.55728e-07
0.000648138
0.435042
0.000296687
0.439108
-0.00013304
0.00183402
0.434922
-0.00155877
0.302852
-0.000373235
0.00604518
-0.278397
0.00955186
0.298332
-0.0096737
-0.000310682
-0.0106707
-0.0360431
-0.0844113
0.00314579
-0.0122729
-0.00531323
0.0040655
0.00367929
0.432243
-0.00064084
-0.00137902
-0.00135183
-0.000285382
-0.00485797
-0.000237859
0.000666694
0.000512807
0.438172
0.432524
-0.000330658
-6.73581e-05
-0.000877267
-0.00168286
-0.00186407
-0.00799693
-0.00299574
-0.00311143
-0.00165491
-0.000636109
0.441039
-0.00125982
-0.000222355
0.000388876
-0.000288883
-0.00153962
-0.00550204
-0.0166272
-0.0039905
9.90697e-05
0.000407546
0.001817
-0.00211168
0.0024423
0.00420731
-0.00733782
0.0324391
0.0671868
-0.0488556
0.348412
-0.00164889
-0.0232204
-0.0340777
-0.0189152
-0.00651612
-8.32894e-06
0.00648498
0.0187895
0.0338337
0.0363987
0.000666391
0.0178723
0.0177129
-0.328685
-0.167208
-0.344212
-0.168924
-0.00046209
0.0212423
0.0053936
0.00225701
0.321893
0.382507
-0.00143954
0.00311188
0.00127709
0.00254157
0.00139226
0.00301309
-0.00387658
-0.0206185
0.153564
0.35211
0.0147215
-0.000491333
0.00099924
0.00102748
0.000518742
0.000601357
0.000256515
0.000259009
0.000327724
-0.000571087
0.000127011
9.61644e-05
0.000881386
-0.000410634
-0.000686721
-0.363031
0.00258098
-0.353582
0.34099
0.0068735
-0.355348
-0.367312
0.350374
0.327971
0.00459387
-0.334636
-0.391164
0.374947
-0.000712078
0.313497
0.463261
0.00516445
-0.00107148
-0.00127871
0.00104019
0.00176095
0.00451129
0.0772427
0.122181
0.187059
0.442268
0.0287301
0.228854
0.338828
-0.0156371
-0.00429574
-0.0112381
-0.0030349
-0.00159608
-0.000237122
0.332851
0.357059
0.348954
0.338834
0.00276629
-0.378837
-0.344907
-0.000901776
0.333692
0.00726275
-0.380823
-0.350175
-0.00223784
0.32214
0.343332
0.305614
-0.00157135
-0.00242681
-0.00270292
-0.000818907
0.000259991
0.00166505
0.000322958
0.000266733
-0.000814369
-0.000346125
-0.00312038
0.0294754
-0.00323183
-0.00203252
-0.00492044
-0.00389626
-0.00241252
-0.00411041
-0.00175664
0.0843052
-0.00200086
0.00187983
0.000256336
-8.7512e-06
0.00510675
0.00447188
-0.0315763
0.18138
-0.078843
-0.306269
-0.387863
0.0290682
-0.177532
0.0737479
0.023344
-0.10939
-0.117631
-0.012838
-0.0194177
0.129057
0.118277
-0.0111011
-0.11505
-0.00198815
0.115559
-0.000585347
0.00150573
-0.000114177
0.00134822
0.00330011
0.00343354
0.00236345
0.000690485
0.000549662
-0.00133252
-0.00115106
-0.000184657
-0.000688532
-1.25593e-05
-0.000151704
0.000837743
0.00181626
0.00169487
-0.00235206
0.0030782
0.0065754
-0.0123246
0.385655
-0.0253096
0.0184277
-0.429213
0.00530015
0.00468665
0.0350581
0.00405573
0.00860644
0.0263094
-0.00193536
-0.000739188
-0.00259923
0.00679939
0.0741607
-0.00480181
-0.00276384
-0.001412
0.00190083
-0.188128
0.218148
-0.00650525
0.00140905
-0.0089297
-0.0224227
-0.0253672
-0.00471457
-0.00223415
0.0904594
-0.0023032
-0.00281314
-0.00530815
-0.000881562
-0.00310411
0.0797182
-0.00520178
-0.00298742
0.00680732
0.00519547
-0.00119165
-0.001332
-0.000867072
-0.00220024
0.00203522
0.00553326
0.00440078
0.00355268
-0.00874632
0.0173275
0.0174055
0.020106
0.0268078
0.385676
0.0525332
0.00817726
-0.0130168
-0.00463914
-0.000233495
0.00394585
0.0117253
0.00177458
0.379523
0.318355
0.00114732
-7.84074e-05
0.000351543
0.000349535
0.316362
0.377072
0.000128096
-0.376721
-0.341759
0.341553
0.000338356
0.352431
0.000351959
0.00761919
0.0211879
0.00212943
0.00206182
0.00614651
0.00038268
0.000526185
-0.00610956
-0.0186575
-0.0052525
0.313727
0.334914
0.322027
-0.00591762
-0.00194407
-0.000324714
-0.000101003
-0.000307452
0.373413
0.314936
-0.00014392
0.000365204
0.000107799
-0.000733025
-0.000845107
0.312429
0.364853
-0.00180425
0.00104318
6.1431e-05
-0.000450163
-0.00188565
-0.0104379
-0.055222
-0.357054
-0.128822
-0.0251841
-0.00341538
-0.000485255
0.000267006
-0.000279472
-0.000611719
0.000808197
-0.00524372
-0.0135953
0.012716
-0.016646
-0.0332419
-0.0223523
0.0125871
0.230018
0.330879
-0.0160994
0.00278755
0.22006
0.332673
0.00192688
0.20951
0.345975
0.165024
0.00103712
-0.00194592
0.355837
-0.00214918
0.0201823
0.121447
0.0209543
0.0447987
0.0474662
0.0450917
0.0597135
0.0376676
-0.000995914
-0.00491953
0.0458987
-0.0215953
-0.0100356
-0.0077874
0.0490448
0.0047644
0.0338877
0.0296943
0.207434
0.175093
0.194415
0.185619
0.190163
0.0411254
0.00667439
-0.000795175
-0.00697242
-0.0839216
-0.283731
-0.26793
1.49917e-05
0.0114168
0.17118
0.000112578
0.433881
0.00326432
0.000577074
0.000184428
-0.000649298
-0.0110177
0.00180368
0.305037
0.436703
0.432373
-0.000219529
-0.0107659
-0.427381
0.00119828
0.00151969
0.00140904
-0.0443501
0.476684
0.0126735
0.00674762
0.00225538
0.00585231
0.0947252
0.0033289
0.214752
-0.254273
-0.0315955
-0.449336
-0.000209895
-0.0214535
0.107282
0.000718877
-0.455691
0.411144
0.00558451
0.232431
0.0153643
0.0889476
0.216457
0.0347238
0.0369837
0.00176481
0.00151523
-0.00173557
0.292997
0.0132687
-0.0185139
-0.0262327
-0.00840796
0.00214245
0.000454955
0.000192142
0.000344996
0.000405751
0.000126195
-0.000971498
-0.00151733
-0.0135891
-0.00688283
0.243809
0.0197235
-0.408677
0.445278
0.0269928
0.321766
0.00205255
-0.297949
0.308407
0.0302512
-0.270448
0.292908
0.00586008
-0.281958
0.288072
0.00366273
-0.284425
0.28787
0.00262234
-0.286068
0.287719
-0.000606537
-0.28932
0.284508
-0.00719848
-0.296116
0.271983
-0.0335012
-0.311422
0.203045
-0.148206
-0.394261
-0.120094
-0.369714
0.0230841
0.241612
-0.243472
0.013868
0.252592
-0.249928
0.00519153
0.253725
-0.260865
-0.00294079
0.252937
-0.259741
-0.0214751
0.244228
0.256411
0.395272
0.10002
-0.285312
0.00372963
0.419421
-0.000770155
-0.427391
-0.00190013
0.409795
-0.00250398
-0.413812
-7.11049e-05
0.411397
0.000428002
-0.405231
0.00130074
0.417068
-0.0123205
-0.438323
-0.0190392
0.341958
-0.0607285
0.0785873
0.178269
-0.326341
0.332395
-0.395183
0.372183
-0.384328
0.378182
-0.378627
0.379936
-0.375761
0.381296
-0.374084
0.379921
-0.376178
0.381354
-0.374039
0.39145
-0.332525
0.321616
-0.158564
0.313499
0.394232
0.196212
0.290843
0.212007
0.163547
0.107317