/*--------------------------------*- C++ -*----------------------------------*\
| =========                 |                                                 |
| \\      /  F ield         | OpenFOAM: The Open Source CFD Toolbox           |
|  \\    /   O peration     | Version:  2306                                  |
|   \\  /    A nd           | Website:  www.openfoam.com                      |
|    \\/     M anipulation  |                                                 |
\*---------------------------------------------------------------------------*/
FoamFile
{
    version     2.0;
    format      ascii;
    arch        "LSB;label=32;scalar=64";
    class       volScalarField;
    location    "1.8";
    object      gradTz;
}
// * * * * * * * * * * * * * * * * * * * * * * * * * * * * * * * * * * * * * //

dimensions      [0 -1 0 1 0 0 0];

internalField   nonuniform List<scalar> 
5712
(
7449.93
24465.6
5918.79
25083.1
4439.13
25922.8
6993.93
39899.9
8590.68
54845.2
8534.04
39982.7
8239.21
33204.3
8564.22
29680.3
5183.46
3219.76
13859.1
8241.2
5071.44
2738.54
15140
7520.04
5680.17
4134.41
18204.6
12851.6
4297.32
3110.61
17903
13046.6
10083.4
4275
8722.26
3895.93
4026.48
9425.47
34705
9394.57
12439.1
4190.56
44644.1
12104
11620.7
3993.71
24825.4
7696.56
12749
4438.59
21620.2
6867.71
6259.82
3103.72
9088.32
3550.62
6777.84
3661.12
8856.33
3409.31
8563.59
4887.49
7635.36
3329.15
11226.7
4043.69
3857.46
1349.58
12742
8872
7855.6
5762.62
14118.3
11629.7
7703.82
6667.43
7488.93
5095.35
10621.9
7159.29
5158.28
3801.12
2598.15
2136.44
4949.72
4275.91
2534.02
2449.91
4977.04
3283.41
2531.93
1632.48
6723.45
3664.23
5073.47
6090.37
9251.71
6588.43
7387.13
10453.6
4428.78
2104.34
2982.13
3477.58
2185.94
912.009
1281.24
1286.8
8333.93
14925.5
5637.55
16643.6
9743.86
14600.2
6921.78
17399.5
11035.4
13197.8
8887.63
16939.7
12774.8
15060.5
9766.2
9446.68
10296.6
15067.1
14109.3
14022.4
14464
20787.1
12254.7
9578.34
8393.27
9420.48
14658.6
17311.2
15485.7
20054.1
19325.2
15853.3
14714.9
19789
18908.4
13714.9
13401.7
18538.6
18203.6
11028.8
8692.29
10441.2
9153.87
11480.4
10354.3
12413
11989.5
17015.6
17500.9
10295.2
8979.91
9962.75
9692.96
10364
11112.1
11699.5
13259.4
15228.7
17752.3
8547.43
6721.02
5845.65
7408.68
11426.4
13855.8
7901.16
12455.5
5000.7
6538.06
7478.61
6183.36
1439.97
4906.95
726.99
1753.95
4027.73
8350.13
1469.9
2881.21
727.835
4193.2
387.475
1464.56
4937.58
5010.12
5615.37
3525.64
7836.25
6301
9213.18
6408.55
1197.02
2745.25
2792.57
1613.11
1541.89
1990.61
2171.84
1644.34
12368.1
7530
2378.4
13982.4
8046.44
2637.99
11868.3
7452.56
2522.89
13755
8055.04
2636.62
10917.8
6848.38
2255.34
13409
8088.08
2704.81
5753.52
3167.84
874.675
7459.46
4926.4
1707.64
8958.74
6177.07
2130.03
10398
6749.64
2244.29
13269.9
8300.4
2900.57
6790.27
3872.57
1247.08
7083.83
5110.4
1931.75
8462.56
6248.78
2300.72
10550.2
7412.9
2657.34
13432.1
8416.16
2992.9
299.002
2026.09
2866.85
4134.95
2224.18
2545.44
5577.65
5282.71
603.672
1025.65
644.422
1068.05
485.911
1410.28
868.139
1849.33
3221.04
1574.4
4076.61
2358.85
2160.7
3771.99
3417.04
888.459
6175.03
1470.71
-1994.5
646.781
1750.49
1276.62
1192.75
1069.34
9743.39
4401.12
2657.84
1629.46
9896.17
4571.33
3352.58
2065.74
9768.38
4914.53
4852.85
3367.96
3475.14
2478.09
1666.88
1593.47
12706.5
11279.4
5971.02
6188.58
13763.9
12905.4
6783.11
6830.71
5267.23
5413.22
10852.3
9045.15
3543.81
3712.78
1951.51
2237.31
4162.74
4136.59
2257.51
2428.97
3061.29
3310.49
1686.35
2106.87
4661.78
3219.98
4638.58
3243.69
7278.59
4238.67
6918.5
4489.71
2789.09
2327.88
2929.43
2091.59
1530.47
1444.76
1856.07
1223.6
11483.2
7862.21
5715.12
5722.64
11438.8
8079.08
5742.83
5696.65
11900.1
8458.31
5825.08
5550.56
13939.3
15147.8
12637.1
8401.51
4705.18
14353.5
13180.1
12156.4
9973.71
6340.01
13451.2
12075.7
9593.64
7334.5
4516.4
6554.6
5739.85
6057.87
6828
6807.1
5682.44
6141.31
6767.15
7178.68
5729.97
6240.29
6722.61
10826.4
7656.48
10005.3
6951.11
7807.79
6278.94
7236.1
6144.96
5816.05
6700.03
9001.52
7819.54
7892.08
6877.76
6678.72
6033.19
5830.24
5751.36
4567.99
6368.34
7054.46
4772.61
4684.77
2812
9288.05
7162.33
6447.64
5202.31
3792.76
2273.44
5506.11
4053.03
4719.32
2233.6
1710.76
982.198
5028.92
3645.75
1738.55
1442.83
4057.32
1802.98
1583.24
828.336
3113.67
2839.56
2692.2
3920.81
4337.09
4063.03
3425.86
5005.72
3171.85
2031.47
1963.88
2672.93
943.955
449.579
181.161
482.239
3948.16
1648.91
487.347
4508.07
1173.36
313.05
4026.59
1793.37
551.263
4519.02
1226.6
343.62
3817.07
1803.75
468.663
4474.04
1258.33
296.628
4755
2435.89
558.976
4218.99
2046.76
490.06
4063.86
1950.08
530.236
3963.97
1856.31
398.28
4488.47
1246.26
189.407
5981.44
3031.81
823.747
5303.65
2639.17
726.534
4754.02
2347.42
683.739
4435.24
1902.08
471.083
4874.06
1174.03
288.634
1697.31
604.4
126.383
-160.961
708.133
265.514
74.1508
-29.9893
1797.25
661.429
175.673
-94.7705
899.292
367.075
177.122
81.4656
1927.3
733.816
262.437
10.2337
1534.09
700.303
261.827
55.2326
1162.54
637.792
205.819
-22.4928
1075.55
686.012
380.346
215.896
1589.71
693.626
203.618
-155.723
1352.95
582.894
250.736
-150.341
1879.78
721.105
234.831
-101.128
1693.61
652.804
260.39
-244.445
1269.76
639.039
243.291
-53.1705
1034.76
510.262
265.873
1.58565
929.716
555.501
317.047
186.989
708.252
425.807
275.894
156.213
2148.39
727.662
129.782
-322.878
2106.76
667.816
188.917
-436.902
2146.61
738.021
147.719
-307.895
2042.74
649.931
195.652
-424.225
2106.04
740.166
220.294
-211.876
1910.43
615.484
236.89
-342.238
1848.68
684.038
297.477
-9.44997
2096.54
689.019
329.104
-397.732
1645.18
609.951
295.04
-90.1492
1652.57
469.018
167.139
-290.742
653.962
170.174
44.836
-58.139
1714.31
502.109
184.191
-276.501
684.486
184.59
56.6304
-45.6639
1756.24
539.653
224.171
-240.167
702.282
201.253
71.6597
-30.7703
1588.71
509.403
256.057
-185.892
685.887
208.362
97.5343
-4.11385
1458.88
506.585
273.342
-102.997
618.741
220.141
131.367
31.5511
1011.59
403.293
193.143
-33.1114
582.656
283.329
166.516
85.1863
1171.12
413.172
205.132
-76.9365
589.991
249.174
149.964
59.2458
812.605
385.844
205.783
29.9937
518.722
293.851
178.369
110.456
570.44
345.102
226.958
135.279
428.093
287.801
193.776
141.54
-14.5394
5.58608
5.57621
3.72518
2.71671
-2.13036
3.85276
3.15976
2.06221
1.50433
7.32687
16.5798
11.4719
7.16086
5.12866
21.4829
16.3183
9.96432
6.03402
4.28657
30.9291
29.9593
18.9817
11.6669
8.33834
86.5244
55.4136
32.3998
19.4553
13.7944
102.952
65.0719
38.0805
22.9392
16.3248
150.057
86.0362
48.8478
29.15
20.7123
53.5379
43.6724
26.7763
16.318
11.589
57.7995
41.2821
24.7164
15.0204
10.6738
37.2899
35.1986
21.9677
13.5074
9.64573
69.7248
43.2666
24.9319
15.0199
10.6353
69.7593
51.9839
31.5023
19.1705
13.6574
77.8125
49.3412
28.8861
17.4467
12.4057
119.156
69.2708
39.4414
23.5616
16.7359
99.6771
57.198
32.5129
19.4233
13.7737
-26.92
2.70799
4.12239
2.86229
2.10602
-14.7055
0.830491
1.62141
1.1488
0.857729
-12.525
9.6435
7.77927
4.98713
3.61201
-9.56254
3.28855
2.89359
1.87449
1.37296
5.56811
17.7008
11.9492
7.4465
5.3797
10.0048
11.4623
7.01076
4.2095
3.02121
46.0195
35.0698
20.9629
12.7827
9.17467
30.9627
22.2377
12.9662
7.83278
5.62103
85.5121
46.1781
25.6899
15.2803
10.8146
1795.47
4097.11
1828.15
4064.14
2014.7
4041.52
2395.41
4201.06
2487.83
4317.96
1025.56
1543.99
1655.27
2589.62
558.392
768.191
205.787
262.637
9290.95
2222.2
510.133
114.157
28.4247
2536.98
683.807
182.08
41.4767
9.03951
9170.27
2175.99
499.123
110.773
27.7887
2583.3
762.212
188.1
43.8053
10.903
8735.77
2059.15
470.676
104.347
26.2123
2507.5
736.622
181.278
42.0037
10.4927
7975.14
1863.88
424.88
94.137
23.6598
2432.82
699.664
169.973
39.0395
9.70136
6653.29
1547.47
353.028
78.341
19.7188
2292.15
641.58
154.201
35.2018
8.72355
3127.18
760.738
176.594
39.4906
9.96051
1117.83
317.845
75.8276
17.0185
4.20904
4673.76
1120.96
258.165
57.4397
14.4615
1644.28
461.481
110.977
25.3206
6.31725
1832.16
449.221
104.776
23.5483
5.95201
627.593
185.494
44.0289
9.88217
2.4677
633.51
154.456
36.1247
8.15039
2.0623
252.223
67.9942
15.0293
4.19628
0.827895
24.9949
445.022
4645.18
-904.415
763.762
818.494
2388.25
3059.82
1933.27
3623.33
3056.45
4712.45
3693.9
4583.01
1916.26
2579.21
2037.42
2417.16
1058.88
1101
2318.36
1673.07
576.17
-362.042
-652.801
-780.18
-173.833
13269.7
3422.78
4456.63
2975.29
-20.5763
109.495
3097.71
-1208.27
-615.139
-898.715
-475.849
7273.87
3897.96
1478.83
1168.21
3724.16
2126.77
713.734
1444.07
-1315.95
-708.1
801.954
661.192
8802.02
4322.46
5450.1
2912.14
4102.79
4632.27
1623.07
-737.973
1043.97
1622.82
1307.75
1107.87
974.518
722.66
1315.02
1049.1
811.425
564.359
239.564
504.461
416.725
313.827
197.906
68.4561
-323.31
-269.692
-201.155
-123.53
-41.5859
-583.004
-486.563
-363.413
-223.565
-75.3207
-697.72
-583.364
-436.599
-269.065
-90.74
-150.79
-119.638
-82.7272
-46.4188
-14.5087
9479.76
8036.81
6680.41
5916.19
5286.25
2946.39
2499.21
2241.71
1802.73
922.557
3382.72
2651.27
2164.5
1637.1
825.124
2253.08
1761.18
1472.59
1097.46
449.714
86.1431
90.4665
167.838
162.122
76.7268
173.986
219.746
227.756
180.976
73.2389
2599.14
2133.58
1645.45
1119.97
450.456
-717.045
-338.987
-126.286
-17.1271
8.23437
-485.846
-341.498
-202.748
-93.9915
-23.4935
-623.096
-377.996
-188.603
-69.7698
-13.186
-432.438
-360.267
-263.669
-157.187
-51.2493
5312.96
4700.65
3966.66
3546.85
3180.67
2980.1
2322.02
1876.93
1382.42
652.864
1336.82
1171.66
959.063
666.623
257.254
1018.52
856.963
673.591
451.661
168.55
3088.51
2468.12
1854.62
1213.21
460.084
1869.39
1568.37
1214.56
794.693
284.972
618.996
513.455
394.429
256.944
92.527
1266.97
1051.82
798.019
507.818
177.393
-1140.08
-918.586
-662.431
-395.961
-130.98
-623.301
-508.685
-368.685
-219.579
-72.1383
708.937
600.465
471.236
312.581
113.793
587.306
499.51
392.624
259.577
93.552
5640.5
4054.83
3405.46
3032.46
2556.17
3280.25
2525.44
1921.32
1343.55
592.492
3978.49
3210.95
2542.73
1922.67
913.342
2313.56
1865.09
1430.6
985.075
419.829
3473.48
2818.15
2128.96
1381.24
505.88
3494.16
2567.62
2029.65
1475.04
607.649
1411.15
1163.69
881.289
562.993
198.279
-655.307
-541.196
-397.923
-240.442
-79.8498
912.313
767.189
601.502
400.984
147.015
-28692.9
-46887.6
-23804.2
-37939.2
-25445.6
-53155.2
-30443.8
-67516.7
-18194.4
-12464.9
-20422.3
-12749.8
-16749.4
-10772.9
-20698.5
-10924.8
-23794.2
-17974.8
-34583.4
-24967.6
-20446.7
-16340.4
-28886.6
-21746.6
-16357.8
-16753.5
-13444.3
-12959
-15871.5
-14903.5
-39670.3
-10944.3
-15147.4
-5666.09
-48436.1
-13442.2
-13535.9
-5057.62
-29563.4
-9307.05
-15512.1
-5946.47
-26323.4
-8173.92
-12345.1
-4973.89
-15682.4
-5688.42
-11725.1
-5164.13
-13625.9
-4939.1
-12145.7
-5908.94
-10886.9
-4329.77
-13914.3
-4919.57
-4876.26
-1713.83
-10419.7
-6974.63
-8993.04
-5515.12
-9155.76
-7385.81
-7871.91
-5626.25
-9166.3
-5259.22
-10749
-6765.45
-6163.59
-3700.18
-3315
-2049.38
-5315.59
-3675.7
-2771.52
-1981.77
-6270.52
-3436.24
-3453.99
-1745.55
-8096.15
-4117.95
-5274.27
-6106.75
-10291.6
-6926.61
-7441.09
-10323.8
-5480.94
-2461.72
-3154.96
-3519.95
-2947.24
-1187.26
-1416.32
-1330.27
-12182.9
-14869.3
-6881.37
-16849.4
-12667.6
-14188.1
-7905.5
-17224.4
-12799.2
-12909.5
-9420.3
-16381.9
-8718.06
-7015.54
-9591.51
-10648.4
-10630.5
-9569.32
-11117.7
-12953.6
-13980.6
-19852.8
-6615.67
-6878.62
-7513.81
-9087.86
-14138.5
-14146.1
-9876.35
-17969.7
-13842.2
-13113.8
-9719.31
-17705.3
-13789.6
-11605.5
-9089.63
-16526.9
-13658
-7832.89
-6235.08
-8164.92
-6543.02
-9152.06
-7425.01
-10049.5
-8550.16
-15053.2
-13735.8
-7346.33
-6355.73
-7468.16
-6539.75
-8264.73
-7786.77
-9945.68
-9917.71
-13861.8
-14328.9
-6780.65
-5415.72
-4988.06
-6490.06
-8397.11
-11515.8
-6351.56
-10644.4
-4607.22
-6035.68
-6583.89
-5389.7
-934.704
-4280.46
-292.797
-1275.54
-3079.64
-7305.44
-713.726
-2064.22
-501.836
-3848.5
-180.453
-1194.45
-4747.52
-4715.14
-5466.79
-3311.71
-7353.16
-5731.44
-8850.64
-5847.18
-1092.44
-2554.36
-2696.58
-1481.35
-1444.18
-1837.49
-2088.32
-1534.89
-5999.25
-2063.39
-8125.34
-2770.87
-6133.52
-2154.81
-8318.72
-2984.61
-6088.51
-2122.48
-8804.93
-3391.2
-3679.6
-1041.86
-4623.64
-1769.48
-5254.47
-2036.07
-6346.37
-2399.37
-9302.44
-3699.95
-4663.8
-1426.63
-4301.77
-2110.73
-5219.34
-2468.14
-7023.29
-3059.27
-9667.97
-3653.67
-6301.2
-5895.07
-4801.79
-4695.31
-10594.4
-8099.6
-8642.03
-7153.73
-4213.22
-3601.28
-1732.25
-1228.35
-3982.73
-3798.68
-1610.42
-1659.83
-3075.37
-4701.49
-3628.06
-5077.39
-3802.07
-2568.07
-3360.3
-604.434
-7009.45
-1890.85
2528.82
313.369
-1014.79
-383.102
139.021
556.784
-2395.28
-1633.65
-899.78
-516.707
-2565.11
-1737.12
-1373.79
-616.326
-2882.39
-2097.25
-1863.95
-886.283
-1281.43
-159.222
536.666
977.402
-5184.16
-5561.6
-4030.22
-3757.51
-7048.41
-7053.82
-5866.37
-4924.1
-2614.97
-2893.46
-3870.16
-4429.73
-2464.37
-2133.1
-1060.85
-966.681
-3786.01
-2974.46
-1930.72
-1521.97
-1390.52
-1532.5
-280.338
-618.032
-1695.15
-1150.22
-2413.78
-1686.08
-2610.86
-2037.9
-3702.43
-2751.1
-640.867
-373.02
-1197.7
-662.989
349.326
483.898
-330.904
142.575
-3440.17
-4261.54
-2836.48
-4140.49
-3412.33
-4278.87
-2901.7
-4132.28
-3626.83
-3996.28
-3070.5
-3929.96
-2943.36
-4920.9
-2457.78
-2077.6
-2153.97
-7336.89
-5142.79
-4603.51
-4630.64
-4553.51
-5899.29
-4887.94
-4050.04
-3668.15
-2759.18
-4987.38
-4938.01
-6333.48
-9772.56
-4757.1
-4465.41
-6084.92
-9324.89
-4428.32
-4188.89
-5623.55
-8614.66
-7098.35
-5433.04
-6299.7
-4755.77
-5377.52
-4226.27
-5325.71
-4815.6
-5233.34
-7956.83
-5749.19
-5400.16
-4780.47
-4749.26
-4175.02
-4352.63
-4151.4
-4872.85
-3617.57
-6908.08
-3917.69
-2779.98
-2708.98
-1018
-5741.91
-5009.86
-4461.68
-3313.24
-2034.77
-711.921
-3079.61
-2409.82
-3256.55
-1016.11
-489.628
75.8514
-3704.62
-2441.18
-694.039
-418.313
-2638.92
-703.14
-317.918
157.274
-1764.99
-1763.26
-1847.11
-3463.91
-2725.75
-3010.49
-2626.59
-4815.6
-1946.86
-1175.04
-1032.49
-2122.82
239.779
385.369
802.915
168.319
-3519.96
-1026.04
-6534.01
-628.019
-3306.48
-1113.37
-6362.07
-653.236
-2571.51
-682.154
-5782.2
-491.214
-2995.88
-684.337
-2688.55
-631.994
-2817.26
-854.562
-2830.1
-525.798
-5436.75
-662.67
-4121.66
-824.888
-3685.74
-597.608
-3611.07
-700.409
-3859.18
-557.454
-5712.95
-681.37
-710.577
-157.031
130.724
346.8
-241.665
-42.9345
48.6487
106.903
-703.259
-128.655
140.592
321.188
-171.35
19.028
41.2161
51.7268
-722.963
-96.1375
131.089
270.872
-35.2339
190.818
308.827
333.13
474.561
403.763
472.166
469.854
900.112
618.761
462.976
324.223
-328.175
85.8088
320.998
536.377
-260.953
136.913
242.423
528.34
-776.451
-82.5437
188.456
428.194
-591
32.5149
207.912
648.085
100.335
256.224
345.749
450.864
41.7951
229.784
248.394
376.159
520.836
419.372
337.56
256.416
364.851
327.151
255.899
234.105
-1115.97
-259.429
153.449
568.664
-1377.38
-299.699
21.8511
702.943
-1072.05
-227.44
168.406
579.658
-1325.82
-278.031
23.0038
695.976
-999.479
-178.443
120.892
491.901
-1206.9
-236.839
-9.93535
626.345
-666.252
-48.8505
102.69
338.366
-1250.9
-206.201
-22.0772
774.625
-618.317
2.57139
127.23
491.478
-1269.54
-226.896
-27.7796
488.419
-550.622
-86.3721
14.4969
121.95
-1187.67
-196.601
-12.1683
490.606
-524.509
-76.4472
16.4805
119.228
-1021.27
-137.054
-8.50552
474.465
-447.744
-51.4132
27.308
124.28
-840.598
-87.1408
-26.6208
422.127
-367.338
-25.9681
24.2648
117.391
-617.814
-6.88805
16.989
359.565
-190.511
32.2876
33.5753
113.037
-280.537
104.634
168.516
344.076
85.1276
171.869
145
166.553
-510.263
18.9263
91.083
349.407
-20.0692
108.718
88.7776
139.841
0.308407
197.994
212.33
311.406
192.097
223.185
184.991
178.189
283.268
278.88
219.868
221.384
304.041
262.604
195.172
163.793
75.5944
20.7778
7.86647
4.01356
2.72655
31.6836
9.85033
3.99119
2.08162
1.41517
87.0694
29.5921
13.2875
7.3273
5.10983
49.2042
21.1052
10.6189
6.1014
4.30762
106.444
41.0266
19.8927
11.2395
7.88529
124.689
60.8089
32.4769
18.9868
13.4757
138.793
70.36
37.996
22.2263
15.7307
154.168
86.2672
48.385
28.6945
20.3712
127.73
53.9669
27.4656
15.7905
11.1865
107.934
47.4462
24.5135
14.1164
9.99765
115.132
44.2874
21.8068
12.3413
8.67697
93.6936
43.6357
23.2114
13.4496
9.5512
136.994
61.9813
32.2375
18.6362
13.1779
109.652
53.6148
28.6874
16.7201
11.866
128.607
70.2522
39.1574
23.176
16.4454
107.074
58.1234
32.3017
19.0908
13.5525
82.9318
18.5958
6.37527
3.12824
2.09832
38.6452
7.50735
2.41484
1.14641
0.751699
88.4142
23.6673
9.59167
5.10189
3.50279
40.638
9.35888
3.60469
1.88709
1.27701
90.1694
28.2108
12.7452
7.0323
4.85842
44.7652
15.2476
7.46132
4.29284
2.99258
98.4154
38.7362
19.5311
11.0985
7.74169
57.9557
23.1122
11.9249
6.84397
4.77225
81.2972
42.6957
23.5562
13.8377
9.82649
-1887.22
-3579.84
-1945
-3589.11
-2125.07
-3620.51
-2339.85
-3721.36
-2268.54
-3741.7
-910.407
-1396.13
-1493.39
-2308.07
-459.79
-667.495
-114.358
-179.113
-9203.5
-2185.92
-499.406
-111.359
-27.6475
-2480.33
-671.049
-178.325
-40.487
-8.79282
-9040.16
-2133.81
-487.701
-107.945
-27.0172
-2529.34
-748.161
-184.094
-42.7367
-10.6069
-8540.16
-2009.14
-458.58
-101.533
-25.4723
-2448.35
-720.605
-176.956
-40.908
-10.1969
-7736.54
-1810.77
-413.03
-91.5152
-22.9943
-2351.49
-679.777
-165.19
-37.9156
-9.41228
-6441.36
-1502.4
-343.253
-76.2252
-19.1927
-2188.6
-619.044
-149.245
-34.1066
-8.45313
-3062.36
-744.489
-172.757
-38.6265
-9.74213
-1057.22
-302.806
-72.4322
-16.2811
-4.02977
-4549.78
-1092.01
-251.66
-56.0172
-14.1087
-1558.98
-442.507
-106.856
-24.4304
-6.10131
-1797.55
-440.368
-102.599
-23.0419
-5.82043
-584.349
-173.836
-41.2291
-9.25192
-2.30965
-611.271
-148.837
-34.712
-7.81292
-1.97252
-217.378
-58.2735
-12.5847
-3.62408
-0.681442
24.7279
-1231.31
-5702.92
741.907
-6652.75
-2929.91
-6447.57
-2985.68
-11795.7
-6296.68
-13212.9
-6999.37
-121.845
-458.671
-717.262
-844.936
-752.692
-272.214
-199.496
-718.942
-1091.14
-1211.28
-979.406
-317.27
-102.321
-107.799
-364.536
-365.558
-519.079
-514.162
-497.107
-475.784
-437.945
-431.5
-322.639
-308.864
855.849
2154.88
3496.02
2485.44
2272.6
1076.78
780.315
2203.17
3579.62
4162.92
3475.94
1567.84
-109.8
-92.7297
-70.197
-43.7056
-14.8332
-413.884
-350.144
-265.552
-165.59
-56.2466
-647.163
-547.418
-415.119
-258.84
-87.9224
-762.081
-644.355
-488.424
-304.45
-103.397
-678.876
-573.938
-434.918
-270.989
-92.0052
-247.942
-211.523
-161.14
-100.471
-34.055
-179.644
-151.583
-114.656
-71.3447
-24.2068
-648.248
-547.917
-415.193
-258.745
-87.8635
-983.475
-830.912
-629.424
-392.181
-133.171
-1090.83
-920.764
-696.941
-434.041
-147.358
-881.213
-743.108
-562.012
-349.842
-118.754
-286.817
-242.955
-184.282
-114.805
-38.9582
-92.2753
-78.0076
-59.1125
-36.8329
-12.5051
-97.2783
-82.2987
-62.4128
-38.9142
-13.2167
-329.087
-278.563
-211.382
-131.864
-44.7979
-330.074
-279.455
-212.101
-132.333
-44.9616
-468.548
-396.557
-300.878
-187.673
-63.7544
-464.071
-392.718
-297.926
-185.814
-63.1209
-448.729
-379.792
-288.138
-179.7
-61.0368
-429.174
-362.926
-275.121
-171.487
-58.2329
-395.363
-334.57
-253.674
-158.065
-53.6496
-388.71
-328.157
-248.313
-154.539
-52.4309
-291.984
-247.432
-187.455
-116.49
-39.4307
-278.116
-234.529
-177.117
-109.974
-37.2468
757.703
629.578
472.075
293.68
100.053
1899.22
1573.39
1179.47
735.79
251.853
3043.66
2502.62
1876.39
1180.93
410.557
2148.47
1762.17
1325.01
838.451
292.711
1996.44
1642.49
1229.84
766.126
249.738
976.04
820.352
623.583
390.149
124.484
691.974
575.611
431.59
268.171
91.2297
1948.54
1617.98
1212.97
754.892
257.452
3145.03
2599.14
1946.59
1215.28
416.767
3631.75
2987.09
2235.84
1401.03
483.454
3031.59
2492.64
1866.85
1170.79
402.696
1382.07
1148.46
868.057
547.403
188.192
241.279
578.818
838.131
965.565
870.769
399.262
368.057
886.059
1251.62
1353.46
1089.33
392.82
195.145
185.675
456.273
443.589
606.393
589.048
573.588
537.028
512.853
446.102
454.984
354.586
-707.081
-1930.67
-3109.25
-1970.58
-1653.53
-404.63
-716.809
-2102.72
-3357.34
-3763.01
-2901.04
-882.728
218.134
184.981
140.643
87.8784
29.8831
522.963
443.098
336.591
210.167
71.4441
756.989
641.131
486.838
303.894
103.289
871.883
738.247
560.441
349.775
118.873
786.647
666.388
506.064
315.886
107.359
364.042
311.248
237.977
149.003
50.6611
332.628
281.94
214.267
133.839
45.5052
800.061
677.395
514.232
320.937
109.074
1129.44
955.607
724.976
452.272
153.68
1220.4
1031.74
782.198
487.772
165.719
981.629
829.351
628.466
391.825
133.121
355.854
302.249
229.964
143.661
48.8321
176.453
149.661
113.806
71.1168
24.1839
167.891
142.394
108.275
67.6571
23.0066
412.337
349.478
265.555
165.844
56.3791
400.888
339.782
258.189
161.245
54.8158
547.861
464.21
352.633
220.175
74.8381
532.132
450.81
342.397
213.758
72.6534
518.316
439.27
333.737
208.387
70.829
484.975
410.703
311.815
194.605
66.131
463.878
393.505
299.156
186.83
63.4971
402.764
340.967
258.762
161.429
54.8418
413.112
351.697
267.975
167.445
56.8834
320.54
271.643
206.245
128.64
43.6838
-622.158
-513.499
-382.949
-237.595
-80.9265
-1695.26
-1399.05
-1045.95
-652.037
-223.379
-2689.14
-2196.71
-1639.95
-1031.7
-359.782
-1662.63
-1329.9
-979.945
-613.66
-213.915
-1405.56
-1112.48
-802.451
-483.609
-148.427
-332.498
-241.023
-154.508
-78.7291
-12.7797
-634.359
-526.581
-394.2
-244.774
-83.2701
-1857.77
-1541.08
-1154.64
-718.604
-245.167
-2942.1
-2424.99
-1812.63
-1130.93
-388.018
-3261.99
-2665.04
-1984.13
-1240.11
-427.954
-2495.22
-2021.12
-1494.52
-930.163
-318.838
-740.422
-581.955
-418.653
-255.67
-86.244
-1476.78
-931.218
-278.504
614.816
912.906
1158.19
524.591
-11006.2
-1789.5
-3218.3
-1531.09
223.879
-3948.21
800.588
2410.23
1127.41
-5983.92
-2747.27
-519.625
-588.548
-3351.9
-1305.02
-286.095
-1029.02
2055.13
1263.84
-526.676
-196.574
-7810.02
-3607.69
-4331.87
-2099.46
-3503.66
-3408.64
-1104.53
1275.33
-424.181
-723.756
-466.648
-387.462
-461.355
-513.079
-579.041
-369.473
-246.181
-176.84
-93.8282
-231.368
-180.999
-131.393
-82.3727
-28.9121
556.23
471.811
358.495
223.721
76.0127
822.742
694.621
525.41
326.758
110.798
1043.77
881.364
666.925
414.983
140.763
476.828
405.141
306.793
189.925
63.9667
-7739.57
-6728.8
-5857.92
-5712.31
-5779.26
-1136.43
-733.46
-802.838
-895.938
-622.372
-2236.81
-1615.59
-1348.8
-1137.13
-682.549
-973.54
-625.006
-554.453
-482.892
-212.597
211.731
176.189
118.362
55.7017
10.5951
-3263.54
-2638.09
-1998.39
-1336.83
-530.081
725.62
608.065
449.301
269.229
87.1046
2088.67
1699.43
1250.95
767.739
259.495
1010.69
845.856
632.926
389.414
130.737
-4096.31
-3695.11
-3242.91
-3196.91
-3261.8
-1872.59
-1319.62
-1080.38
-880.946
-495.001
-401.351
-320.262
-272.848
-221.88
-104.893
-469.893
-368.956
-286.906
-203.799
-83.9727
-2772.21
-2215.26
-1675.79
-1112.97
-432.145
-1088.36
-870.794
-659.145
-436.01
-160.822
-220.933
-164.229
-120.06
-81.3224
-32.1629
-882.641
-717.019
-537.141
-342.138
-120.743
1831.44
1527.67
1143.44
705.958
238.298
1138.76
959.221
721.947
445.881
150.18
-436.365
-348.121
-264.846
-177.256
-66.9473
-149.827
-111.824
-85.7594
-62.2979
-25.6372
-4708.8
-3216.96
-2735.23
-2620.88
-2479.93
-2599.25
-1911.91
-1425.8
-1017.92
-478.056
-2856.79
-2202.56
-1720.6
-1385.04
-707.647
-1540.9
-1170.34
-872.521
-621.736
-295.4
-2917.21
-2331.18
-1748.83
-1140.6
-424.424
-2347.32
-1530.26
-1210.96
-958.333
-434.855
-932.909
-748.615
-558.858
-358.719
-128.565
1150.86
971.578
733.258
454.154
153.322
-328.182
-249.13
-191.363
-137.493
-56.4207
1.84989
39.7152
88.6678
111.027
68.3262
-44.5462
-20334.3
-17957.3
-17080
-19463.3
-14911.4
-11811.6
-13399.3
-10175.9
-17670.8
-15522.5
-16285.6
-15344.5
-14299.4
-12190.7
-15042.2
-16755.1
-14982.9
-13738.9
-15490.3
-12601.8
-10673
-11232.4
-9007.46
-15870.4
-14137.4
-14627
-13356
-12675.5
-11834.1
-12241.7
-13176.9
-12080.8
-10883.6
-11906.1
-10488.8
-9011.72
-9387.86
-8060.82
-13303.5
-12127.5
-12386.5
-11340.7
-10782.1
-9969.74
-10291.7
-9217.9
-8674.72
-7685.47
-8150.71
-7786.06
-6985.5
-6978.73
-6381.03
-9607.76
-9719.45
-9066.55
-9158.89
-8091
-7316.96
-8134.64
-5900.93
-5641.09
-4948.14
-5163.98
-5219.68
-4728.08
-4608.9
-4258.04
-6368.57
-6374.69
-6084.72
-5965.04
-5542.61
-5009.72
-5427.28
-2125.27
-2049.89
-1790.57
-1854.46
-1929.33
-1802.89
-1689.67
-1575.62
-2413.14
-2413.5
-2259.51
-2160.13
-2083.04
-1911.76
-2049.07
-7665.92
-7553.02
-11496
-12395.8
-7205.1
-6395.55
-10081.7
-8194.61
-5958.34
-4392.78
-5917.01
-4365.28
-5937.78
-5686.19
-4445.3
-7628.42
-7237.94
-10229.1
-11156.9
-6719.9
-6081.47
-8895.79
-7657.37
-5920.17
-3836.94
-5818.89
-4065.71
-5314.94
-5114.79
-4459.65
-6949.06
-6624.09
-8664.38
-9292.69
-6225.84
-5791.67
-7752.41
-6858.32
-4877.86
-4138.36
-4867.93
-4383.05
-4547.87
-4558.9
-4565.72
-5590.63
-5383.67
-6482.63
-6809.76
-5114.99
-4783.64
-6001.45
-5476.42
-4652.74
-3699.8
-4578.66
-3961.99
-4286.2
-4261.98
-4066.26
-3848
-3728.84
-4280.16
-4443.56
-3469.16
-3212.02
-4033.21
-3703.64
-3252.63
-2836.41
-3182.9
-2997.13
-2982.38
-2934.5
-2880.08
-1430.31
-1387.66
-1563.04
-1614.82
-1285.31
-1181.63
-1481.99
-1365.4
-1060.87
-1036.87
-1134.03
-1136.22
-1102.57
-1073.26
-1049.47
7416.3
23961.3
5886.34
25081.1
4422.36
25924.8
6989.59
39908.3
8585.61
54857.1
8517.05
39979.1
8204.18
33186.5
8540.27
29038.4
5176.08
3218.02
13860
8241.34
5069.87
2738.34
15143.4
7521.24
5644.66
4106.49
17840.3
12611.2
4276.03
3101.71
17918
13064.9
10089.7
4268.15
8722.76
3893.51
4021.64
9433.6
34714.5
9395.88
12441.2
4190.6
44654.6
12106.2
11623
3994.38
24838.4
7698.93
12752.7
4439.18
21637.4
6870.8
6200.13
3074.53
8929.44
3490.84
6778.6
3661.71
8871.14
3414.92
8562.65
4887.69
7640.19
3331.46
11236
4047.21
3859.7
1350.46
12740.9
8871.3
7855.44
5762.42
14116.6
11628.4
7703.96
6667.26
7489.08
5095.32
10621.2
7159
5158.67
3801.14
2597.78
2136.24
4950.37
4276.05
2534.07
2449.9
4977.87
3283.49
2531.69
1632.28
6724.33
3664.8
5073.66
6090.68
9251.58
6588.76
7387.22
10454
4430.17
2104.94
2982.31
3477.78
2186.09
912.115
1281.14
1286.81
8285.97
14921.4
5603.48
16635.7
9745.98
14595.9
6925.29
17396.4
11035.6
13196.7
8888.47
16939
12773.8
15058.3
9765.75
9447.14
10297.4
15065.2
14108
14021.5
14463.6
20787.1
12253
9577.43
8392.86
9420.5
14659
17337.5
15527.8
20062
19306.4
15845.9
14709.4
19780.5
18903.2
13712.1
13397.9
18537.2
18201.7
11027.3
8691.22
10440
9152.76
11479.3
10352.9
12411.4
11987.6
17014.9
17499.8
10294
8978.86
9961.89
9691.93
10363.2
11111
11698.9
13258.5
15228.7
17751.7
8546.93
6720.76
5845.44
7408.64
11425.4
13855.1
7900.74
12455.1
5000.65
6538.15
7478.37
6183.26
1439.84
4906.94
726.899
1753.92
4027.59
8349.94
1469.9
2881.18
727.742
4193.26
387.362
1464.53
4937.68
5010.24
5615.59
3525.73
7836.25
6301.03
9213.45
6408.61
1197.02
2745.32
2792.68
1613.14
1541.88
1990.64
2171.89
1644.36
12398
7545.64
2387.9
13990.5
8057.35
2641.73
11864.4
7451.54
2522.83
13751.7
8053.37
2636.47
10915.2
6847.08
2255.03
13407.1
8086.73
2704.46
5752.72
3167.32
874.5
7458.46
4925.72
1707.41
8957.4
6176.17
2129.74
10396.2
6748.52
2243.95
13268.7
8299.35
2900.21
6789.42
3872
1246.87
7082.85
5109.65
1931.46
8461.46
6247.9
2300.39
10549
7411.95
2656.98
13431.2
8415.24
2992.52
304.534
2028.23
2881.47
4139.51
2226.61
2546.55
5585.81
5285.35
586.64
1013.2
625.121
1051.36
490.263
1409.81
872.601
1848.43
3233.47
1579.73
4081.33
2360.17
2164.43
3780.1
3421.86
892.453
6177.94
1472.76
-1982.26
655.324
1756.34
1281.91
1202.68
1077.27
9756.71
4398.24
2647.4
1622.21
9887.09
4571.06
3350.35
2065.53
9763.29
4913.46
4854.27
3367.61
3479.25
2478.63
1671.92
1595.3
12702.8
11277.4
5972.02
6188.65
13761.3
12903.6
6783.67
6830.7
5268.28
5413.22
10848.6
9043.36
3546.02
3713.38
1953.31
2237.91
4164.09
4136.98
2258.37
2429.28
3063.79
3311.08
1688.69
2107.58
4662.18
3219.97
4638.48
3243.59
7276.14
4237.94
6917.21
4489.1
2790.91
2328.45
2929.87
2091.83
1532.64
1445.8
1856.71
1224.06
11513.5
7866.61
5717.9
5722.96
11430.3
8078.31
5741.42
5696.4
11892.1
8454.79
5823.28
5549.29
13934.2
15144.1
12631.9
8397.88
4704.06
14350.6
13176.1
12152
9970.04
6338.54
13448.7
12072.8
9591.11
7332.66
4515.6
6552.55
5741.08
6053.95
6822.15
6805.19
5682.24
6138.9
6766.04
7176.52
5728.58
6239.36
6721.92
10824.4
7655.28
10002.8
6949.66
7805.33
6277.44
7233.93
6143.52
5814.95
6699.09
8999.91
7818.3
7890.09
6876.34
6676.82
6031.8
5828.72
5750.16
4567.15
6367.4
7052.82
4771.58
4684.24
2811.53
9286.59
7161.36
6447.12
5201.82
3792.31
2273.05
5504.73
4052.12
4719.31
2233.46
1711.02
982.309
5028.86
3645.59
1738.69
1442.88
4057.3
1802.89
1583.55
828.47
3113.33
2839.17
2691.97
3920.4
4336.12
4062.27
3425.34
5005.05
3171.84
2031.36
1963.9
2672.78
944.272
449.724
181.455
482.359
3950.83
1652.46
489.303
4512
1180.04
314.722
4025.47
1793.57
551.289
4517.07
1225.36
343.653
3816.16
1803.47
468.646
4473.29
1257.8
296.517
4754.23
2435.44
558.833
4218.16
2046.34
489.931
4062.99
1949.68
530.123
3963.08
1855.91
398.166
4487.8
1245.94
189.311
5980.58
3031.32
823.577
5302.73
2638.7
726.383
4753.13
2346.98
683.604
4434.43
1901.69
470.959
4873.39
1173.82
288.57
1690.66
600.679
124.261
-161.742
701.144
262.049
72.5745
-30.6428
1797.5
661.475
175.631
-94.9402
899.383
367.095
177.045
81.3317
1927.17
733.765
262.382
10.1103
1533.95
700.263
261.787
55.1156
1162.63
637.84
205.854
-22.5049
1076.13
686.259
380.464
215.936
1589.71
693.637
203.623
-155.755
1352.98
582.926
250.755
-150.325
1879.59
721.054
234.808
-101.183
1693.47
652.77
260.377
-244.451
1269.96
639.139
243.348
-53.1544
1034.92
510.357
265.928
1.61743
930.15
555.707
317.154
187.036
708.525
425.961
275.984
156.266
2147.67
726.821
128.451
-323.877
2109.02
668.382
188.458
-438.339
2146.15
737.813
147.681
-307.97
2042.29
649.764
195.713
-424.118
2105.64
740.034
220.271
-211.887
1909.98
615.336
236.888
-342.173
1848.35
683.911
297.417
-9.51987
2096.13
688.895
329.072
-397.702
1644.96
609.878
294.992
-90.2249
1657.6
470.882
167.63
-292.639
657.157
171.239
45.0324
-58.8393
1712.01
501.372
184.02
-276.192
683.529
184.316
56.5417
-45.5261
1755.7
539.451
224.163
-240.071
702.005
201.157
71.6454
-30.7096
1588.34
509.267
256.02
-185.86
685.709
208.293
97.5097
-4.10567
1458.63
506.495
273.3
-102.996
618.623
220.09
131.335
31.5346
1011.58
403.314
193.157
-33.0968
582.666
283.339
166.515
85.1794
1171
413.144
205.119
-76.9325
589.93
249.145
149.939
59.2251
812.705
385.918
205.829
30.028
518.812
293.91
178.401
110.474
570.631
345.225
227.034
135.333
428.25
287.905
193.84
141.584
-15.4417
5.03306
5.25287
3.52147
2.56319
-2.7355
3.47241
2.92687
1.90898
1.38551
7.29286