/*--------------------------------*- C++ -*----------------------------------*\
| =========                 |                                                 |
| \\      /  F ield         | OpenFOAM: The Open Source CFD Toolbox           |
|  \\    /   O peration     | Version:  2306                                  |
|   \\  /    A nd           | Website:  www.openfoam.com                      |
|    \\/     M anipulation  |                                                 |
\*---------------------------------------------------------------------------*/
FoamFile
{
    version     2.0;
    format      ascii;
    arch        "LSB;label=32;scalar=64";
    class       volScalarField;
    location    "1.8";
    object      gradTx;
}
// * * * * * * * * * * * * * * * * * * * * * * * * * * * * * * * * * * * * * //

dimensions      [0 -1 0 1 0 0 0];

internalField   nonuniform List<scalar> 
5712
(
-6795.84
-8686.41
-16117.9
-23553.2
-24033.3
-41472.9
-18451.6
-46996.5
-15019.5
-33001.3
-22464.2
-34179.4
-20147.7
-26438.8
-8863.9
-10140.7
-15197.2
-17416.4
-19610.2
-19446
-15412
-19025.3
-22705.1
-20356.7
-5540.82
-4179.23
-6888.44
-4645.13
-12851.1
-10306.5
-21919.3
-15906.7
-16970.4
-17654.2
-18874.1
-18063.7
-6671.56
-5198.2
-40109.4
-53690.3
-25921
-31816.8
-53869.4
-69908.7
-27861.8
-31899.3
-29771.2
-42047.8
-25998.5
-34441.7
-15238.4
-24536.9
-2941.27
-993.09
-3093.76
-1116.72
-8876.1
-3588.35
-12152.7
-4478.28
-8677.99
-3324.33
-9186.34
-2949.16
-15633.7
-4979.05
-20161.2
-6808.85
-24538.2
-12212.6
-22465.5
-13311
-22950.1
-14847.7
-20189.9
-15150.1
-17715.4
-10530.9
-17731.6
-9063.87
-23183
-14792.6
-23236
-14921.5
-21331.2
-16020.4
-21589.1
-16082.1
-19127.4
-12137.9
-19808.2
-12429.7
-18125.2
-7874.65
-8398.5
-10263.5
-18197.6
-8619.15
-7350.12
-10434.4
-19188.1
-7827.78
-9501.87
-10319.1
-20137.2
-8012.15
-10325.8
-10768.9
-3810.18
-4165.99
-1284.34
-2534.7
-11133.5
-11776.7
-4324.68
-7730.05
-14260.5
-15817.3
-6941.87
-11834.8
-12297.2
-949.985
-13765.1
-17111.6
-9362.23
-605.412
-7374.13
-12446.2
-20118.8
-14185
-10112.8
-12334.7
-10856.2
-9434.88
-14832.9
-3639.82
-2984.46
-2085.98
-2065.65
-10236.7
-8578.94
-6212.67
-5899.07
-12750.9
-10697.8
-8111.58
-7258.79
-5807.63
-7429.18
-12050
-12525.8
-14256.6
-12958.4
-16093.7
-13954.9
-11033.9
-9291.38
-9145.1
-9544.54
-12100.8
-9421.68
-11071.9
-7939.59
-9631.91
-6541.38
-11323.4
-7379.88
-10330.7
-4667
-8904.1
-9565.61
-12664.8
-16422.5
-13946.9
-20240
-7110.23
-7816.97
-9169.75
-2749.37
-7948.39
-15247
-7547.52
-16376
-13815.5
-25004.8
-14059.1
-26570.3
-6041.03
-13150
-5502.72
-14042.3
-8369.29
-6249.59
-11695.3
-4570.05
-8559.51
-1512.6
-10167.7
-597.346
-8060.75
-9439.57
-12260.7
-5636.67
-6682.57
-11155.3
-10864.1
-7413.37
-2353.7
-2062.25
-1823.28
-1694.45
-1545.64
-1370.33
-6946.63
-5633.93
-4828.99
-4493.51
-3567.07
-3063.17
-8443.77
-7205.14
-6620.71
-5396.47
-4339.68
-4073.06
-6472.75
-5651.47
-5485.46
-10873.7
-8138.37
-6798.08
-10334.7
-7516.27
-6031.09
-10829.8
-8434.06
-7280.81
-6855.29
-4448.48
-3433.17
-15640
-13364.1
-11457.3
-10131.9
-8318.07
-6812.08
-9091.2
-6954.85
-5458.35
-7709.19
-5476.65
-4126.39
-8051.17
-4428.53
-2443.87
-10495.1
-14188.1
-8322.95
-10724.8
-11368.2
-16665.1
-10175.5
-14770
-26.0604
-716.975
517.814
-100.005
-2963.56
-3333.5
-1232.91
-658.855
-690.742
-2395.45
-9453.04
-13773.2
-6657.65
-3694.27
-10023.1
-9952.02
-15517
-17096.1
619.213
4197.67
-7624.43
-7180.72
-7259.02
-5595.56
-1018.1
-537.151
-672.419
-277.121
-1959.9
-165.779
363.511
865.432
-9238.68
-2344.19
-6277.36
-1610.67
-9103.16
-2760.98
-11020.8
-3525.18
-8905.21
-11968.4
-8224.6
-11664.2
-14396.6
-15182.4
-13728.7
-14363
-5634.29
-9360.38
-6514.46
-9305.42
-8725.26
-11229.8
-9622.35
-11337.2
-14302.1
-14098.6
-14971.8
-14149.1
-5686.39
-9051.43
-6186.12
-9210.84
224.162
-1239.67
-7289.97
-4457.64
781.17
-829.446
-6753.37
-3931.94
-238.079
-1505.64
-7450.17
-4863.72
-687.598
-1774.53
-7480.8
-5029.83
710.732
815.447
-154.399
3.10861
2967.55
2991.81
254.366
431.126
673.098
2050.35
-1588.03
-915.684
10267.2
9666.56
5589.23
4326.52
519.52
10574.4
10794.8
4317.44
6394.28
926.102
-10364
-8074.94
-7092.95
-6582.6
-3898.15
814.023
741.15
55.2535
-35.0632
2577.73
2485.6
174.825
-47.7535
2604.27
3085.83
-583.353
-860.414
5129.72
2266.7
8108.13
5011.42
3628.08
2714.63
4117.23
3527.53
-311.125
-1193.13
-3803.46
-2396.04
-1045.2
995.037
-958.463
772.143
-1591.57
-279.839
-1905.29
-2159.19
-5193.45
-4725.88
-9892.82
-5949.54
-8146.64
-8158.31
-12362.8
-9990.67
-7714.24
-4499.11
-3818.74
-3771.08
-11669.8
-5130.28
-12835.5
-5753.73
-13790.1
-10197.3
-14715.7
-10940.7
-9378.51
-3649.1
-10508.6
-4236.25
-5972.88
-4666.89
-4471.06
-6610.55
-3824.76
-4278.09
-3805.21
-6125.95
-6911.53
-4597.73
-5059.98
-7596.04
-8437.58
-4996.07
-6402.6
-7839.4
736.245
774.164
864.967
36.1597
272.474
303.238
2675.73
2800.87
2783.61
238.44
779.705
777.556
3403.23
3736.85
3808.6
-497.699
763.234
1019.77
1179.18
998.122
695.207
3609.46
3659.54
3394.34
2946.27
3290.6
3220.57
3651.49
3866.8
3749.87
-1192.49
348.239
459.126
-3488.39
-1997.63
-1076.28
928.229
1984.29
2546.35
919.029
2251.9
2829.36
431.801
1861.78
2269.79
-2099.97
479.598
781.616
30.4516
37.1886
44.7288
66.6615
260.17
142.862
116.284
109.136
19.081
72.7688
164.979
246.956
424.72
261.945
291.251
301.793
-200.061
28.0046
237.565
443.857
163.517
211.706
264.196
292.596
37.7554
125.753
122.084
117.162
-203.218
-8.70902
107.029
177.372
-888.83
-185.196
73.5822
255.328
-1386.19
-324.03
-17.5258
447.04
-606.98
-76.004
154.841
390.091
-1134.33
-245.236
-34.5512
387.475
-952.212
-222.193
102.539
331.375
-1558.13
-386.349
-20.8307
527.904
-1065.54
-293.308
96.3475
398.981
-1680.92
-442.432
-40.9081
551.723
12.9853
22.3249
39.6483
84.6208
41.9232
31.1569
22.6205
77.0015
81.2447
76.5545
125.852
230.94
173.283
105.154
72.4856
209.118
-365.019
-45.0254
132.829
391.065
-150.77
30.8514
92.4079
368.274
-50.2876
115.846
203.059
394.397
5.0165
94.4256
77.2249
371.187
-967.89
-185.899
3.16717
516.046
85.4617
43.4837
29.7362
59.5027
157.148
63.1975
32.2547
28.2394
178.167
103.637
63.1962
151.664
402.331
168.184
80.3462
72.109
115.626
115.917
86.4915
248.732
512.924
236.856
121.121
113.398
-64.7487
106.336
108.863
346.723
412.401
256.489
143.39
143.522
-489.311
16.8082
44.4341
327.323
138.013
221.238
129.305
145.232
-1123.05
-114.767
26.579
375.591
-352.975
54.1803
77.8225
132.049
-858.075
-31.1877
37.4583
349.144
-195.926
129.147
107.458
144.777
-1365.68
-215.532
-5.19501
408.157
-492.122
-18.3674
49.0699
122.964
-1547.34
-314.001
-48.6766
402.102
-618.238
-95.0867
11.6489
105.884
29.1623
12.401
6.08654
3.38943
2.34533
38.2803
18.8916
9.94323
5.70011
3.97748
69.6995
28.8227
14.0906
7.87768
5.49092
86.3627
42.2453
22.276
12.8372
8.98961
92.4972
36.1032
17.4199
9.72676
6.79923
115.927
56.0287
29.6372
17.1882
12.089
60.4203
28.594
15.0705
8.76062
6.16787
43.2743
16.8901
8.11483
4.57009
3.18157
92.2231
36.8253
18.1477
10.276
7.16381
44.0816
15.102
6.99082
3.86347
2.66852
97.3403
42.7375
22.0602
12.7007
8.91678
41.7186
15.0324
7.17835
4.00356
2.76304
71.1528
24.1351
10.9885
6.05251
4.18809
41.836
13.4978
6.12319
3.38309
2.34376
62.5116
15.7934
5.76964
2.87798
1.90963
34.576
7.4955
2.49289
1.18885
0.772003
24.4054
9.39545
4.43422
2.41431
1.6539
17.6808
7.44774
3.67701
2.03243
1.39805
59.643
23.4861
11.3509
6.26273
4.32616
45.6396
19.5222
9.78877
5.45219
3.7597
83.6565
28.9803
13.4067
7.27659
5.00603
61.7935
26.7747
13.5722
7.5825
5.26438
74.9109
32.8397
17.0177
9.74165
6.84162
41.9066
20.2946
10.6571
6.03562
4.23646
38.6973
18.0199
9.5735
5.54873
3.90089
-298.259
-436.577
-643.956
-1059.32
-606.31
-1306.62
-26.7546
-1010.41
644.003
-22.0372
-653.716
-1175.64
390.78
303.54
-1129.36
-1825.75
-1466.98
-2110.15
-660.069
-154.076
-34.8242
-7.71524
-1.94143
-210.093
-97.8927
-13.7129
-3.67437
-1.62256
-2026.68
-470.753
-106.762
-23.535
-5.93014
-497.704
-136.271
-33.4205
-7.05799
-1.91646
-3398.13
-790.831
-179.831
-39.7749
-10.0006
-794.66
-232.074
-56.6525
-13.2088
-3.33328
-4544.11
-1060.54
-242.159
-53.7268
-13.5256
-922.175
-291.589
-73.477
-17.3199
-4.35946
-5652.84
-1332.29
-306.336
-68.313
-17.2711
-1016.27
-354.153
-91.8652
-21.9315
-5.58451
-6647.82
-1614.68
-376.444
-84.6749
-21.5095
-1607.58
-496.185
-123.182
-28.4221
-7.15062
-6208.94
-1503.22
-348.928
-78.1547
-19.7882
-1232.71
-418.023
-107.182
-25.2526
-6.36424
-6842.18
-1663.9
-388.627
-87.5539
-22.2762
-1831.62
-545.783
-133.388
-30.3335
-7.60981
-7122.45
-1717.11
-401.571
-90.4256
-22.9934
-1904.46
-568.859
-140.219
-29.6301
-7.86213
-515.711
-7092.18
-6471.97
-2303.23
1676.84
2849.25
7928.14
11591.8
1791.77
8514.82
-1702.04
2593.35
2520.28
5010.13
9495.15
13448
14354.1
18028.5
5862.85
7595.09
-19951.8
-14381.1
-4591.58
-3535.48
-2533.1
-3600.46
-3399.21
-12203.3
-11507
-9878.41
-10561.4
-8632.6
-6208.7
-8157.51
-5333.27
-4519.41
-5464.57
-3751.89
-19801.8
-10202.3
-3536.99
-6058.34
-8319.44
-5776.9
-6257.04
-4638.69
-2787.03
-3934.49
-4220.1
-4571.46
-19605.6
-12804.6
-12139.5
-8740.1
-8631.72
-9115.09
-3824.88
-5020.08
-6458.29
-14098.7
-12077.5
-10016.5
-9102.68
-7671.86
-9302.65
-6337.6
-4861.83
-3671.4
-1856.64
-4042.32
-3339.92
-2492.69
-1547.41
-528.028
-3151.42
-2631.83
-1975.01
-1224.38
-415.289
-2245.61
-1862.37
-1387
-854.193
-288.543
-3214.52
-2686.83
-2015.14
-1246.9
-422.038
-3010.37
-2496.21
-1861.42
-1149.21
-389.138
-7780.61
-5893.22
-4555.23
-4146.19
-4389
-6240.49
-4541
-3193.47
-2614.65
-1807.18
-6158.37
-3696.36
-2539.24
-1743.61
-824.552
-5405.56
-3614.61
-2380.89
-1710.2
-997.085
-4024.48
-2500.92
-1545.85
-1057.31
-512.619
-4899.76
-3645.39
-2505.81
-1490.04
-510.51
-5548.6
-3564.86
-2322.2
-1381.73
-512.384
-3500.21
-2097.73
-1257.73
-680.346
-228.744
-3714.45
-2857.11
-2003.5
-1193.8
-401.635
-4352.19
-3239.71
-2201.69
-1278.64
-423.712
-3117.58
-2418.77
-1702.05
-1011.01
-337.193
-13005
-9816.17
-7823.45
-6832.55
-6371.65
-7480.69
-5392.6
-3912.62
-2625.76
-1165.43
-2934.42
-2286.87
-1630.32
-989.683
-339.837
-5112.85
-4065.98
-2961.38
-1833.64
-640.61
-6789.02
-5299.84
-3872.19
-2471.51
-928.227
-4896.92
-3924.74
-2890.51
-1812.51
-639.972
-5395.73
-4385.91
-3251.94
-2032.03
-706.648
-4023.42
-3275.5
-2417.7
-1494.29
-511.216
-2397.42
-1925.78
-1395.35
-844.601
-283.634
-3455.88
-2839.63
-2099.99
-1289.19
-435.597
-3580
-2842.26
-2047.22
-1241.29
-420.319
-3947.01
-3194.42
-2342.18
-1438.68
-490.196
-13527.6
-11092.5
-9140.46
-8000.14
-6822.21
-8847.9
-6297.6
-4796.03
-3503.95
-1757.51
-8899.21
-6995.21
-5266.37
-3836
-1837.29
-6841.16
-5158.83
-3847.54
-2590.08
-1044.99
-7167.94
-5698.2
-4225.01
-2719.8
-1014.59
-7078.49
-5298.1
-3926.29
-2631.04
-1048.39
-3270.52
-2631.9
-1932.93
-1199.78
-416.089
-4412.02
-3632.73
-2697.29
-1664.54
-564.928
-5537.68
-4471.14
-3294.96
-2049.91
-710.684
-5733.1
-11687.6
-12151.3
-33339.7
-11951.5
-44542.2
-6530.31
-15858.4
-11963.1
-9221.67
-19917.2
-16583.1
-11899.2
-11153.7
-22303
-17605.7
-4224.44
-3142.72
-8188.91
-5636.76
-9463.81
-7135.69
-25433.3
-18818.7
-15579.9
-11798.7
-16023.5
-9514.96
-1211.55
-3860.19
-41468.4
-54247.8
-25048
-31667.9
-54724.7
-70260.9
-26901.1
-31667.8
-30935.2
-42648
-25201.2
-34384.8
-16766.5
-25264
-2024.31
-534.759
-3559.91
-1215.41
-6886.69
-3081.58
-13978.8
-5052.38
-3021.97
-1720.29
-7565.34
-2381.36
-15652.7
-4921.66
-20343.4
-6858.73
-16814.9
-8728.2
-19428.2
-11532.1
-15251.1
-10921
-17175
-13272.1
-15572
-9111.64
-12305.7
-6376.44
-22009.7
-13992.7
-22942.7
-14702.9
-20130.4
-15204.6
-21267.9
-15860.3
-18339.1
-11483
-19622
-12249
-17094.9
-7570.81
-7460.49
-9881.64
-15289.5
-7746.46
-5604.83
-9733.48
-18913.3
-7749.85
-9064.82
-10132.5
-20105.1
-8005.15
-10202.7
-10714.9
-1163.84
-1052.07
-284.701
-1263.27
-4730.1
-4906.09
-2975.34
-5932.62
-2674.51
-3332.93
-4639.97
-8784.48
-12220.2
-9697.73
-9555.15
-11990.5
-7966.26
-7616.84
-8214.07
-7092.38
-13902
-12225.3
-11739.8
-9915.96
-6955.94
-6020.51
-13210.3
-1137.52
-852.075
-638.971
-717.6
-4403.35
-3488.78
-3746.92
-3303.56
-664.059
497.71
-4435.07
-3486.16
-10181.8
-10812.3
-9538.88
-8739.93
-7208.44
-5234.99
-9469.29
-7529.87
-8591.8
-6728.88
-11657.8
-11799.5
-10027.4
-7757.27
-7467.12
-5002.83
-6634.66
-4146.73
-9998.66
-6050.71
-9386.6
-5014.38
-8386.7
-9504.88
-13143.3
-17432.4
-13871.2
-20240.2
-6468.86
-7632.38
-7827.92
-2807.52
-7747.42
-15124.4
-7496.8
-16326
-13725.1
-25116.6
-14026
-26554.7
-5789.93
-13000
-5440.34
-13994
-7905.42
-6156.65
-11512.6
-4614.7
-7579.01
-1727.43
-9898.88
-1166.51
-7872.25
-9351.92
-12176.3
-5635.56
-6631.2
-11124.5
-10840.1
-7404.09
-835.649
-775.479
-575.461
-664.173
-2658.35
-1946.09
-2423.39
-2206.47
1069.74
558.94
-2836.22
-3138.86
-10683.7
-10099.7
-7758.28
-6657.5
-4165.45
-3488.84
-5912.02
-4864.36
-5662.11
-4124.83
-18329.9
-15963.6
-8058.36
-6789.06
-6183.65
-4640.89
-5160.1
-3260.24
-5556.76
-2366.16
-5623.59
-9257.48
-4916.84
-9409.52
-8451.94
-10526
-9511.8
-12946.1
-981.223
-699.798
-748.089
-628.65
-3624.99
-2555.01
-2947.7
-1612.66
-1320.66
-1610.72
-8333.16
-8932.87
-4654.38
-4194.85
-9437.7
-9807.19
-14629
-16843.2
421.982
4027.76
-7366.39
-7167.17
-7124.06
-5625.27
-1049.97
-941.869
-1143.22
-936.672
-1672.05
-1093.23
-533.287
-433.854
-8078.23
-3655.12
-6866.06
-3056.82
-9328.25
-3623.1
-11117.3
-3875.62
-5362.45
-10255.9
-7001.5
-10745.3
-8746.98
-11780.3
-11537.2
-12776.1
-5171.16
-9127.77
-4659.36
-9086.85
-8214.25
-10845.3
-9470.44
-11234.7
-13374.5
-13430.8
-14706.3
-13968.2
-5556.52
-8974.13
-6158.21
-9197.87
-328.016
-2020.61
-7679.53
-5080.53
-305.681
-2090.6
-7609.32
-4863.73
-649.203
-2053.79
-7663.4
-5243.39
-856.776
-1994.96
-7544.03
-5160.16
-1048.25
-1142.67
-974.62
-1043.35
-2019.05
-2051.12
-1341.56
-1437.84
-8277.72
-7565.47
-3734.38
-3724.64
-3654.23
-5147.96
-3942.66
-129.426
-1640.04
-1227.77
-1337.67
-3559.25
2756.52
-688.334
-13929.6
-11730.1
-10483
-8999.62
-5460.93
-1143.47
-1021.24
-1169.73
-1436.21
-2020.87
-1577.81
-1844.49
-2442.87
-7868.85
-7706.84
-4122.57
-5291.45
-5002.7
-6683.98
-3097.68
-5026.2
-4742.34
-5164.97
-1010.08
-1392.58
-2642.25
-3975.41
-9678.31
-7917.91
-7550.63
-5518.94
-6501.02
-4616.76
-5656.26
-4067.1
-3998.87
-4362.74
-8232.67
-8105.61
-11126.1
-7155.18
-10411.2
-11137.1
-13056.8
-10969
-9207.02
-5660.68
-6740.24
-6701.49
-12144.4
-5876.04
-12956.2
-5932.86
-13966.8
-10826.1
-14747.1
-11073.5
-10058.4
-4374.07
-10698.6
-4427.49
-7387.04
-5710.07
-5711.69
-7772.5
-6292.77
-6622.77
-5614.73
-8042.98
-7645.26
-5276.93
-5760.55
-8332.89
-8665.67
-5208.05
-6628.54
-8048.78
-811.787
-702.52
-1034.09
-770.697
-1358.21
-1629.58
-1500.98
-1124.67
-7492.07
-6561.61
-3512.06
-1576.84
-7840.57
-7420.88
-6051.21
-5431.14
-4995.64
-4291.81
-1747.14
-1824.02
-3784.67
-1733.62
-8617.09
-7368.2
-4834
-3864.09
-3700.68
-2399.77
-2660.64
-1233.23
-3922.48
-94.7008
-215.389
-97.4388
-33.7249
19.7704
-197.83
-121.367
-38.2673
15.5884
-583.425
-254.8
-6.02349
154.554
-517.855
-293.826
-25.1723
110.358
-960.458
-379.958
33.6623
354.224
-938.591
-451.4
-145.401
20.3652
-649.478
-304.707
-148.335
-47.0001
-503.501
-203.327
-15.9517
100.391
-1444.73
-503.006
-127.934
113.933
-1714.58
-487.793
-106.977
428.779
-1382.25
-480.912
-81.7386
233.05
-1555.31
-438.288
-133.416
386.09
-1354.12
-464.624
-43.5357
249
-1778.49
-503.499
-91.5259
501.314
-1230.02
-395.993
33.4827
362.502
-1761.31
-487.028
-68.2016
541.619
-200.727
-80.4978
-12.5711
61.8309
-172.561
-61.175
-26.9934
58.1425
-517.52
-209.972
-17.0451
162.728
-433.824
-160.688
-69.3255
151.267
-1027.12
-355.192
-12.6183
345.09
-932.35
-308.161
-84.263
312.013
-1139.76
-415.141
-74.8471
260.009
-860.275
-290.164
-110.541
347.426
-1565.3
-437.057
-117.872
546.156
-125.103
-45.7564
-13.7791
38.8858
-58.4679
-31.6453
-13.4709
0.560164
-376.65
-132.419
-59.283
91.0102
-192.232
-94.6396
-49.6156
-6.08994
-668.863
-220.805
-90.8497
163.577
-388.517
-165.973
-77.3941
-4.66119
-1017.06
-318.147
-114.114
249.388
-676.716
-244.77
-102.84
-0.122383
-1338.88
-382.79
-184.256
207.165
-909.42
-295.511
-138.721
-18.4369
-1786.81
-496.208
-198.511
256.961
-898.803
-275.459
-115.408
9.21074
-1722.22
-485.978
-224.536
211.41
-994.812
-306.38
-134.09
-9.1806
-1765.25
-457.445
-150.959
333.432
-806.104
-223.397
-72.9169
48.6759
-1677.92
-395.481
-98.3697
376.543
-716.037
-161.515
-28.3881
81.6769
-3.86716
-7.64927
-5.40902
-3.46566
-2.52218
-20.8876
-15.3035
-9.41157
-5.80487
-4.18647
-6.98248
-17.473
-12.3937
-7.90571
-5.71426
-45.4409
-33.9913
-20.9108
-12.8492
-9.24448
-1.61154
-20.9952
-15.223
-9.72467
-7.0113
-59.724
-44.7781
-27.3478
-16.6925
-11.9632
-29.2293
-22.4859
-13.7767
-8.39024
-6.0087
-2.67263
-9.35541
-6.73729
-4.2759
-3.11256
-11.4548
-23.0618
-15.76
-9.88953
-7.1521
5.38572
-7.59116
-5.89155
-3.80022
-2.7717
-34.9637
-32.2553
-20.1206
-12.3366
-8.84805
0.401333
-8.86984
-6.33344
-4.02477
-2.93393
11.5259
-10.6921
-8.79879
-5.72933
-4.18151
8.13918
-6.03716
-4.93841
-3.19749
-2.33169
35.2223
-0.226512
-3.37609
-2.59671
-2.00902
23.2879
0.819013
-1.324
-1.09961
-0.871241
0.885375
-5.3184
-4.02178
-2.62717
-1.92486
-4.28484
-5.34873
-3.53962
-2.24761
-1.636
-4.69656
-15.2606
-10.6806
-6.83444
-4.96406
-15.6702
-15.3715
-9.76532
-6.1255
-4.44416
10.4901
-16.3313
-12.4719
-8.12663
-5.92456
-26.7227
-22.6552
-14.011
-8.73752
-6.29881
-32.5332
-26.9905
-16.4146
-10.0607
-7.19795
-31.1426
-19.1914
-11.2344
-6.89997
-4.92635
-23.5329
-15.7196
-9.1929
-5.55773
-3.9732
-48.4615
-200.898
-69.9504
-509.278
16.3005
-696.371
337.922
-609.657
626.343
-26.2322
-743.784
-1263.73
200.841
13.0055
-1170.94
-1855.2
-1478.03
-2116.49
-624.666
-148.184
-33.6682
-7.47554
-1.88304
-163.226
-90.4821
-12.619
-3.49108
-1.57256
-1929.88
-453.937
-103.396
-22.8339
-5.7584
-390.516
-120.011
-30.9158
-6.68618
-1.84911
-3250.66
-764.091
-174.41
-38.6412
-9.72386
-677.398
-213.349
-53.6371
-12.711
-3.24
-4376.64
-1028.19
-235.435
-52.3081
-13.1793
-851.549
-278.534
-71.119
-16.8867
-4.27283
-5504.24
-1299.87
-299.215
-66.7716
-16.8906
-1017.75
-350.096
-90.634
-21.6359
-5.51555
-6583.5
-1596.53
-371.918
-83.6257
-21.2401
-1623.18
-497.524
-123.14
-28.3635
-7.12912
-6112.08
-1477.17
-342.727
-76.7631
-19.4395
-1265.98
-419.531
-106.885
-25.1154
-6.32562
-6805.79
-1653.43
-385.94
-86.9175
-22.1098
-1835.72
-545.977
-133.306
-30.2978
-7.59824
-7110.52
-1713.68
-400.676
-90.2107
-22.9369
-1904.72
-568.737
-140.164
-29.6198
-7.85839
-512.833
-7000.84
-6175.32
-2206.55
-1581.61
-921.032
-3711.86
-2673.33
-6518.81
-6087.48
-3111.9
-2335.74
-352.529
-544.039
-940.022
-1536.18
-2317.34
-3217.12
-255.849
-553.708
-1157.2
-2026.06
-3071.35
-4151.64
-267.274
-123.181
-462.12
-315.508
-856.106
-708.41
-1438
-1331.62
-2080.99
-1995.38
-2748.92
-2472.86
-4016.52
-4570.64
-5008.92
-7530.88
-8489.25
-9388.18
-5070.9
-5613.02
-5618.72
-5157.54
-4443.85
-3906.18
-318.331
-269.523
-204.581
-127.657
-43.378
-490.898
-415.271
-314.94
-196.39
-66.7106
-847.463
-716.179
-542.626
-338.139
-114.823
-1383.19
-1167.29
-883.31
-549.971
-186.683
-2082.55
-1753.89
-1324.89
-824.047
-279.607
-2882.05
-2419.42
-1823.15
-1132.61
-384.242
-230.891
-195.385
-148.228
-92.4511
-31.4044
-499.323
-422.127
-319.942
-199.418
-67.7212
-1042.66
-880.609
-666.857
-415.407
-141.037
-1823.17
-1537.65
-1163.01
-723.94
-245.718
-2758.37
-2321.62
-1753.08
-1090.26
-369.963
-3717.6
-3119.81
-2350.8
-1460.73
-495.695
-241.471
-204.52
-155.291
-96.9299
-32.9482
-111.297
-94.2727
-71.5856
-44.6839
-15.1894
-417.19
-353.083
-267.893
-167.111
-56.7808
-284.885
-241.166
-183.02
-114.185
-38.8
-772.25
-653.002
-495.023
-308.592
-104.814
-639.18
-540.644
-409.958
-255.607
-86.8226
-1295.56
-1094.02
-828.278
-515.857
-175.125
-1199.92
-1013.42
-767.326
-477.895
-162.231
-1871.3
-1576.88
-1191.59
-741.174
-251.464
-1794.5
-1512.15
-1142.48
-710.412
-240.966
-2463.42
-2068.17
-1557.99
-967.301
-327.983
-2216.07
-1859.93
-1400.05
-868.358
-294.196
-3579.28
-2989.88
-2245.81
-1394.2
-473.448
-4035.53
-3344.55
-2502.45
-1555.44
-530.66
-4347.92
-3557.75
-2651.29
-1659.35
-574.969
-6325.98
-5073.72
-3780.59
-2424.09
-883.941
-6731.59
-5245.39
-3932.35
-2645.33
-1078.12
-7124.12
-5443.64
-4103.41
-2861.26
-1259.99
-4520.96
-3778.64
-2840.06
-1764
-599.129
-4971.68
-4132.19
-3097.24
-1925.23
-655.767
-4926.25
-4062.23
-3036.54
-1894.14
-650.057
-4443.05
-3620.15
-2700.97
-1701.95
-595.888
-3698.81
-2952.58
-2203.8
-1423.88
-525.07
-3131.71
-2446.9
-1829.23
-1216.21
-474.93
-370.152
-598.826
-1037.55
-1684.56
-2527.49
-3481.72
-280.119
-629.349
-1290.46
-2221.32
-3320.98
-4423.97
-283.909
-137.036
-514.291
-360.34
-951.079
-794.25
-1587.78
-1474.42
-2307.17
-2253.25
-3050.8
-2871.85
-4300.44
-4842.96
-5265
-7696.16
-8565.78
-9412.02
-5312.27
-5768.81
-5664.62
-5108.69
-4360.17
-3866.62
-334.346
-283.189
-215.039
-134.226
-45.6186
-540.724
-457.823
-347.533
-216.881
-73.7031
-936.266
-792.149
-600.923
-374.842
-127.357
-1518.62
-1283.5
-972.762
-606.435
-205.994
-2275.04
-1919.74
-1453.13
-905.286
-307.45
-3125.94
-2631.15
-1988.1
-1237.77
-420.417
-252.954
-214.207
-162.628
-101.496
-34.4903
-568.094
-480.844
-364.908
-227.68
-77.3641
-1163.99
-984.408
-746.51
-465.558
-158.164
-2001.41
-1690.6
-1280.76
-798.274
-271.143
-2987.08
-2518.78
-1905.59
-1186.92
-403.099
-3968.64
-3337.82
-2520.73
-1569.11
-532.985
-256.565
-217.388
-165.13
-103.106
-35.0536
-123.869
-104.983
-79.768
-49.8174
-16.9398
-464.604
-393.543
-298.858
-186.565
-63.4175
-325.602
-275.885
-209.571
-130.854
-44.4844
-858.68
-726.889
-551.68
-344.242
-116.985
-717.279
-607.39
-461.124
-287.794
-97.8099
-1432.25
-1211.27
-918.509
-572.798
-194.597
-1330.38
-1125.46
-853.663
-532.437
-180.893
-2078.39
-1755.21
-1329.38
-828.419
-281.357
-2030.65
-1715.58
-1299.72
-810.005
-275.096
-2741.53
-2309.51
-1745.92
-1087.03
-369.138
-2582.85
-2177.35
-1646.56
-1025.06
-347.997
-3843.91
-3222.57
-2429.45
-1512.52
-514.414
-4294.38
-3577.06
-2689.81
-1678.28
-573.693
-4599.32
-3790.78
-2844.69
-1789.47
-621.513
-6510.7
-5262.99
-3951.98
-2548.91
-932.28
-6838.29
-5365.53
-4050.16
-2739.29
-1119.55
-7162.94
-5489.02
-4149.55
-2899.78
-1277.94
-4746.04
-3976.72
-2996.55
-1864.93
-634.097
-5121.14
-4267.84
-3207.68
-1998.26
-681.471
-4977.44
-4115.4
-3085.04
-1929.08
-663.062
-4409.02
-3600.95
-2694.5
-1703.04
-597.787
-3631.87
-2903.15
-2172.67
-1409.21
-521.994
-3099.54
-2422.36
-1813.08
-1208.18
-473.116
-19896.6
-14437.8
-4971.58
-3937.89
-3009.84
-4187.28
-3891.01
-13020
-14575.7
-11513
-13279.7
-7789.39
-11190
-5934.23
-6204.32
-4512
-20522.2
-11247.7
-4277.37
-6997.83
-9199.65
-6301.58
-6925.95
-5235.79
-3213.13
-4619.47
-5185.91
-5308.06
-19503.5
-13005.7
-12809.7
-9141.53
-9093.47
-9663.68
-4512.11
-5675.41
-7114.16
-14116.4
-12152.8
-10129.4
-9254.7
-7813.52
-9395.69
-6433.48
-4954.33
-3748.17
-1889.96
-4405.5
-3667.88
-2758.13
-1721.98
-589.296
-3525.54
-2959.86
-2233.08
-1390.17
-472.57
-2692.03
-2256.82
-1699.56
-1056.07
-358.491
-3757.99
-3161.28
-2386.82
-1484.84
-504.065
-3473.08
-2907
-2188.27
-1360.92
-462.612
-9481.58
-7838.24
-6404.25
-5688.09
-5502.27
-10793.4
-9252.91
-7433.81
-5871.99
-3425
-8275.12
-5804.35
-4345.33
-2998.47
-1282.67
-9821.08
-8066.53
-6281.99
-4567.37
-2179.51
-6573.17
-5258.32
-3867.53
-2408.02
-836.455
-8761.53
-6520.01
-4743.23
-2995.37
-1089.19
-5132.01
-4178.47
-3093.87
-1919
-657.559
-5344.39
-4337.53
-3205.91
-1988.33
-682.066
-3936.69
-3226.73
-2395.38
-1483.07
-505.506
-14369.7
-11421.2
-9406.09
-8187.1
-7318.89
-8720.19
-6655.8
-5028.65
-3422.86
-1482.22
-3689.98
-3003.91
-2231.15
-1393.65
-483.458
-6058
-4956.61
-3706.23
-2335.61
-820.32
-7735.44
-6233.72
-4682.24
-3036.96
-1140.48
-5433.96
-4439.07
-3327.51
-2111.59
-748.654
-6047.92
-4985.77
-3745.5
-2361.45
-823.84
-4605.33
-3810.4
-2856.7
-1785.78
-614.106
-2835.28
-2347.11
-1752.94
-1086.73
-369.687
-4109.07
-3427.82
-2574.09
-1599.38
-543.894
-4535.19
-3728.44
-2777.68
-1726.75
-591.457
-4668.03
-3859.2
-2888.47
-1801.32
-618.057
-13667
-11380.6
-9520.23
-8431.41
-7251.25
-9137.16
-6597.87
-5080.2
-3731.14
-1859.48
-9828.47
-7973.41
-6184.38
-4548.72
-2159.69
-7302.45
-5632.11
-4274.85
-2903.93
-1166.72
-7674.43
-6209.02
-4678.59
-3044.07
-1139.07
-7716.89
-5941.63
-4506.04
-3053.97
-1215.2
-3937.76
-3242.47
-2432.13
-1530.67
-533.057
-5037.02
-4195.63
-3151.19
-1961.72
-668.761
-6193.78
-5088.42
-3811.83
-2398.93
-835.602
-464.635
-1329.53
-2127.03
-2889.64
-3619.51
-4304.39
-2693.53
-7228.16
-6843.61
-2627.55
-9172.11
-7699.13
-9135.75
-10099.1
-2447.54
-1579.1
-5686.87
-3271.43
-10772.1
-7669.11
262.614
-2181.62
-6013.92
-5610.6
-2111.28
-7787.19
-6261.5
-7642.75
-8585.65
-2025.38
-926.424
-4888.68
-1692.07
-8895.54
-4589.09
1635.57
-1588.23
-4557.1
-4234.12
-1540.03
-6129.24
-3726.66
-6170.69
-6807.77
-1523.5
-844.463
-3452.24
-1765.29
-7068.82
-1785.05
1777.35
-1163.34
-3510.22
-3324.52
-1168.29
-4665.57
-2239.09
-5098.53
-5975.05
-1141.83
-889.319
-2519.48
-1789.59
-6193.94
-332.258
1336.92
-935.429
-2963.56
-2850.37
-980.064
-3727.55
-1845.1
-4553.06
-5781.93
-899.564
-971.765
-1801.62
-1722.77
-5389.53
-116.748
162.999
-823.183
-2634.11
-2609.28
-884.671
-3440.97
-2115.38
-4204.87
-5519.68
-691.134
-762.595
-1478.17
-1684.03
-5304.28
-953.126
-480.684
-1395.1
-3406.73
-5023.35
-1944.61
-5515.13
-9653.44
-7351.19
-10582.9
-1003.51
-700.494
-3877.05
-2366.54
-1126.99
-9202.14
-4791.58
-1297.73
-3175.72
-4411.4
-1688.89
-5097.25
-8724.65
-6631.88
-9006.06
-1025.88
-617.094
-4012.17
-2233.95
-306.933
-9024.63
-3588.36
-1140.78
-2801.26
-3611.07
-1355.73
-4640.28
-7797.22
-5639.75
-7914.85
-909.66
-708.502
-3427.54
-2323.8
-533.335
-7284.36
-3422.79
-986.066
-2525.42
-2993.75
-1099.95
-4329.39
-7073.9
-5017
-7180.47
-834.208
-713.451
-3166.72
-2409.6
-353.687
-6750.48
-3439.52
-891.151
-2272.79
-2656.64
-961.419
-3930.35
-6488.06
-4574.78
-6820.99
-781.056
-768.553
-2876.43
-2606.52
-507.695
-6474.31
-3501.55
-827.664
-2029.32
-2462.51
-884.094
-3628.75
-6404
-4247.52
-6595.58
-811.584
-894.051
-2564.24
-2483.45
-766.132
-6623.13
-3879.18
6179.45
7802.62
16154.8
23631.5
24064.9
41458
18460.3
46999.5
15032.8
33007.3
22510.1
34181.9
20162.9
26522.7
7620.76
8646.69
15210.1
17419.4
19605.3
19443.6
15413.6
19023.2
22702.4
20353.6
5110.08
3889.83
6267.62
4240.99
12852.9
10278.5
21970.2
15930
16946.8
17658.9
18866
18064.5
6670.13
5176.68
40115
53697.4
25921.6
31818.9
53876.3
69916.8
27861.6
31900.3
29775.4
42053.9
25998.1
34444.6
15244.3
24542.3
2774.91
952.727
2843.65
1038.02
8846.92
3574.41
12157.8
4479.42
8672.52
3321.07
9173.51
2944.16
15634.6
4979.06
20164.1
6809.81
24537.9
12211.6
22463.9
13309.8
22947.4
14845.5
20187.3
15148.1
17712.9
10529.7
17730.9
9062.81
23182.5
14791.7
23236
14920.7
21329.8
16018.9
21588.3
16080.9
19126.9
12137.1
19808.7
12429.2
18121.6
7873.43
8397.26
10263.4
18194.9
8617.95
7348.69
10434.1
19188
7827.82
9501.32
10319.3
20138.5
8012.68
10325.6
10769.2
3581.52
3872.51
1233.32
2382.18
11082.6
11733.5
4300.85
7695.16
14251.8
15808.1
6937.85
11828.1
12297.3
950.863
13764.3
17108.2
9360.7
606.364
7374.4
12445.5
20114.9
14182.6
10111.4
12333.7
10854.9
9432.76
14832.2
3320.27
2693.8
1880.93
1888.16
10263.1
8602.27
6269.41
5934.77
12743.5
10694.9
8108.64
7258.03
5807.81
7429.11
12049.9
12525.5
14255.5
12957.5
16090.1
13953
11032.7
9291.23
9144.46
9544.25
12100.2
9421.45
11071
7939.18
9630.49
6540.79
11323.2
7380.01
10330.1
4666.92
8903.26
9565.37
12663.8
16421.8
13945.6
20239.1
7109.61
7816.91
9169.16
2749.34
7947.61
15246.8
7546.77
16375.8
13814.3
25003.9
14058.1
26569.5
6040.52
13150.1
5502.24
14042.4
8369.04
6249.68
11695.7
4570.27
8559
1512.63
10167.9
597.623
8060.69
9439.76
12261.1
5636.9
6682.46
11155.5
10864.6
7413.66
2089.29
1846.44
1658.8
1547.63
1422.66
1274.4
6976.72
5645.53
4829.68
4525.21
3581.4
3066.6
8443.93
7206.04
6621.42
5397.43
4341.97
4075.28
6472.76
5651.64
5485.67
10873.6
8138.58
6798.37
10334.4
7516.53
6031.49
10829.6
8434.74
7281.63
6855.73
4449.58
3434.38
15639.8
13364.3
11457.7
10131.7
8318.15
6812.31
9091.04
6954.98
5458.65
7709.05
5476.84
4126.75
8051.27
4428.83
2444.29
10469.2
14171.7
8294.62
10710.6
11356
16655.9
10161
14761.8
66.6528
623.404
-433.161
58.0208
2962.9
3407.33
1233.64
738.617
665.259
2369.63
9436.62
13752.8
6640.14
3681.08
10015.8
9948.83
15512.7
17094.2
-625.141
-4199.58
7614.98
7176.33
7253.55
5593.48
888.705
487.956
568.637
239.517
2015.46
177.134
-302.745
-848.877
9227.66
2342.64
6270.73
1610.66
9096.4
2759.37
11017.3
3524.07
8895.25
11963.2
8216.77
11660.1
14389.7
15178.4
13723.4
14359.8
5627.18
9356.57
6505.73
9300.86
8720.48
11227
9619.74
11335.3
14298.8
14096.3
14969.8
14147.4
5681.95
9048.7
6183.78
9209
-227.962
1239.14
7287.23
4456.59
-785.565
828.749
6750.38
3930.88
235.171
1504.91
7448.03
4862.75
686.049
1774.02
7479.32
5029.08
-674.116
-768.436
140.908
-9.86999
-2942.61
-2965.75
-250.139
-420.833
-671.754
-2048.89
1587.58
915.431
-10267.1
-9665.72
-5589.51
-4326.67
-519.617
-10573.3
-10793.6
-4317.37
-6393.02
-925.993
10361.9
8071.84
7089.88
6580.16
3897.14
-777.885
-703.83
-73.1287
11.9951
-2549.6
-2461.73
-153.159
67.4704
-2602.74
-3083.56
583.144
859.936
-5129.5
-2266.72
-8107.83
-5011.35
-3628.36
-2714.7
-4116.67
-3526.74
310.896
1192.74
3802.49
2395.68
1043.81
-995.428
957.248
-772.432
1590.77
279.684
1904.78
2158.75
5191.29
4724.86
9890.55
5948.36
8144.92
8157.41
12360.9
9989.58
7712.15
4498.05
3816.82
3770.13
11668
5129.25
12834.1
5752.88
13788.5
10196.3
14714.4
10939.9
9376.78
3648.2
10507.3
4235.52
5971.32
4665.97
4470.14
6609.63
3823.32
4277.24
3804.35
6125.06
6910.21
4596.88
5059.12
7595.11
8436.45
4995.35
6401.82
7838.58
-701.406
-722.001
-805.154
-57.244
-268.794
-294.449
-2651.12
-2787.1
-2774
-215.636
-767.33
-769.016
-3400.6
-3734.48
-3806.94
496.703
-762.805
-1019.46
-1179.14
-998.009
-695.094
-3609.41
-3659.35
-3394.15
-2946.09
-3290.26
-3220.25
-3650.51
-3865.67
-3748.91
1191.94
-348.198
-458.978
3488.16
1997.7
1076.46
-928.375
-1984.14
-2546.12
-919.084
-2251.65
-2829.05
-431.732
-1861.42
-2269.39
2099.53
-479.616
-781.544
-25.6165
-32.907
-40.1267
-59.8236
-242.264
-132.334
-107.656
-100.487
-18.5302
-72.458
-165.167
-248.044
-420.252
-260.262
-289.979
-300.959
200.04
-27.9984
-237.509
-443.711
-162.974
-211.531
-264.133
-292.515
-37.7823
-125.731
-122.059