/*--------------------------------*- C++ -*----------------------------------*\
| =========                 |                                                 |
| \\      /  F ield         | OpenFOAM: The Open Source CFD Toolbox           |
|  \\    /   O peration     | Version:  2306                                  |
|   \\  /    A nd           | Website:  www.openfoam.com                      |
|    \\/     M anipulation  |                                                 |
\*---------------------------------------------------------------------------*/
FoamFile
{
    version     2.0;
    format      ascii;
    arch        "LSB;label=32;scalar=64";
    class       volScalarField;
    location    "1.8";
    object      T;
}
// * * * * * * * * * * * * * * * * * * * * * * * * * * * * * * * * * * * * * //

dimensions      [0 0 0 1 0 0 0];

internalField   nonuniform List<scalar> 
5712
(
538.061
554.635
527.436
547.469
512.099
537.629
485.632
515.893
485.239
509.189
508.896
532.353
523.22
543.535
532.628
550.741
503.253
482.82
523.498
493.962
474.939
453.66
495.15
463.471
546.264
553.909
559.337
563.552
535.862
545.32
552.979
558.962
536.345
520.826
513.584
503.348
532.618
546.941
543.048
542.731
504.32
508.55
519.211
518.301
473.514
477.007
550.153
552.338
524.594
530.803
559.376
562.15
559.027
567.387
566.787
570.641
552.094
564.63
563.323
569.244
538.233
558.667
549.906
564.363
558.525
567.727
561.868
568.913
468.274
456.183
475.843
458.776
436.379
425.641
444.303
428.479
503.569
487.65
496.464
484.877
481.259
460.04
482.712
459.871
449.749
429.976
451.224
429.935
508.643
488.973
510.078
488.908
527.996
555.817
515.808
547.155
521.318
551.818
512.345
543.886
532.731
558.119
517.5
548.88
534.239
558.965
517.662
549.657
552.3
538.979
563.594
553.81
542.345
529.136
559.564
548.531
527.43
515.222
552.53
540.741
453.114
415.996
485.28
511.543
543.824
410.28
447.245
479.286
504.02
533.737
415.798
449.63
480.144
507.267
537.45
515.288
494.789
520.258
500.654
509.414
490.374
518.364
498.611
500.191
482.441
515.442
495.992
399.998
387.271
437.941
424.58
468.503
453.846
492.203
476.03
514.358
496.292
404.33
390.454
439.496
428.39
470.248
458.403
496.268
482.395
518.246
502.6
443.533
437.881
442.139
436.965
408.99
390.008
409.059
389.35
472.643
470.736
474.093
470.745
439.771
435.994
439.729
436.205
408.335
389.422
408.477
389.737
469.98
469.781
469.937
470.082
500.841
498.86
523.616
520.859
500.962
497.108
522.9
517.847
499.565
498.756
523.708
521.779
498.262
497.978
522.608
520.806
473.106
456.778
448.41
476.195
458.559
449.876
470.165
453.575
444.855
474.35
456.113
446.98
462.596
445.955
437.142
471.695
452.138
442.274
373.729
364.276
359.745
409.158
395.859
388.769
436.635
420.305
411.202
456.268
438.431
429.001
470.785
449.011
437.797
375.458
363.699
357.963
414.906
400.44
392.594
442.166
424.232
414.027
461.63
440.122
428.216
473.762
448.975
435.802
407.29
398.358
413.021
404.177
439.367
423.923
450.09
431.687
382.738
359.939
383.947
361.896
384.098
362.787
385.967
364.853
385.615
381.668
385.004
379.49
366.267
369.889
408.386
411.244
437.291
440.158
388.952
393.404
388.921
391.629
372.992
376.216
337.825
320.054
343.163
323.365
340.526
320.662
345.74
324.4
344.831
321.496
351.874
326.393
355.778
329.493
357.69
331.391
380.817
371.361
388.399
374.925
406.758
396.371
414.4
399.714
367.539
353.779
360.255
350.284
392.731
376.935
394.611
377.572
419.087
401.534
420.751
401.827
371.648
355.848
373.635
356.67
347.61
323.814
336.602
318.299
340.993
319.873
333.436
316.003
351.644
326.767
338.534
319.796
353.845
328.79
339.41
320.628
321.478
310.607
313.547
306.456
323.798
313.31
313.924
307.237
328.283
319.332
314.949
309.436
361.683
385.136
344.321
331.417
314.947
380.099
357.01
337.826
325.59
311.316
384.856
361.606
343.057
328.592
313.198
301.815
293.872
299.621
292.444
304.802
296.67
300.978
293.864
310.745
302.303
303.635
296.498
369.727
357.683
347.161
335.878
330.302
320.62
318.396
309.388
306.836
299.595
373.275
358.697
350.989
337.483
334.226
322.626
321.181
310.651
308.821
300.808
355.288
337.422
358.506
339.572
378.236
358.349
380.841
359.296
340.485
324.822
337.488
322.545
361.193
340.96
361.935
341.602
382.663
359.848
383.16
360.343
343.168
326.42
343.929
327.008
324.639
311.452
310.524
300.594
322.991
309.717
309.726
299.91
326.083
312.722
311.066
300.866
327.606
313.456
311.991
301.736
285.753
281.863
280.351
281.074
277.999
276.963
288.719
284.36
282.637
282.501
279.251
278.055
294.3
289.418
287.398
284.764
280.907
279.431
345.894
338.088
334.479
325.627
319.264
316.521
311.5
305.804
303.545
300.194
294.349
291.824
286.458
281.838
280.004
344.754
334.879
330.571
325.183
316.664
313
311.569
304.116
301.036
299.481
292.987
290.505
285.527
281.147
279.437
305.884
296.53
290.43
285.941
307.334
297.068
290.563
285.886
305.987
296.621
290.531
286.031
307.854
297.346
290.783
286.073
305.977
296.705
290.795
286.335
308.269
297.626
291.147
286.409
309.653
298.326
291.291
286.349
310.817
299.044
291.631
286.512
307.373
297.469
291.244
286.589
305.55
297.065
291.335
287.044
305.587
296.705
291.039
286.712
304.491
296.522
291.105
287.053
308.841
298.185
291.472
286.612
306.432
297.565
291.585
287.19
310.001
298.843
291.81
286.846
307.163
298.029
291.893
287.458
303.539
295.718
290.304
286.162
300.78
294.803
290.149
286.504
303.563
295.763
290.392
286.262
301.009
294.909
290.217
286.574
303.707
295.877
290.577
286.486
301.661
295.186
290.379
286.718
303.558
295.938
290.767
286.798
302.187
295.444
290.581
286.929
303.34
296.005
290.925
287.125
298.558
294.136
289.862
287.111
297.269
293.806
289.761
287.309
299.033
294.313
289.957
287.182
297.793
293.997
289.85
287.365
299.901
294.65
290.11
287.283
298.696
294.342
289.998
287.46
300.96
295.093
290.371
287.459
299.73
294.771
290.211
287.598
301.977
295.605
290.69
287.654
300.609
295.227
290.459
287.764
303.386
296.545
291.19
287.952
301.891
296.173
291.06
288.178
302.732
296.092
290.934
287.791
301.271
295.709
290.751
287.96
303.952
296.968
291.415
288.104
302.484
296.638
291.356
288.397
304.533
297.387
291.7
288.329
303.103
297.097
291.671
288.641
282.016
279.385
277.546
276.395
275.844
282.012
279.391
277.55
276.398
275.847
282.067
279.411
277.559
276.403
275.85
282.078
279.425
277.569
276.409
275.854
282.138
279.444
277.577
276.413
275.857
282.158
279.466
277.591
276.422
275.863
282.254
279.522
277.623
276.441
275.877
282.392
279.602
277.668
276.468
275.896
282.229
279.493
277.604
276.429
275.868
282.32
279.522
277.617
276.436
275.873
282.197
279.468
277.588
276.42
275.861
282.276
279.495
277.601
276.427
275.866
282.315
279.544
277.633
276.446
275.88
282.401
279.568
277.643
276.451
275.884
282.447
279.618
277.675
276.471
275.898
282.518
279.632
277.679
276.473
275.899
282.035
279.383
277.542
276.393
275.842
282.058
279.381
277.54
276.391
275.841
282.074
279.401
277.552
276.398
275.846
282.087
279.396
277.547
276.395
275.844
282.139
279.431
277.567
276.407
275.852
282.141
279.421
277.56
276.403
275.849
282.21
279.46
277.582
276.415
275.858
282.201
279.451
277.576
276.411
275.855
282.249
279.477
277.591
276.42
275.862
527.726
524.676
527.408
524.389
527.209
524.349
527.901
525.159
530.494
527.811
535.447
535.834
533.995
533.427
536.032
536.772
536.203
536.805
563.826
571.034
572.556
572.901
572.975
556.077
568.907
572.073
572.796
572.95
563.921
571.067
572.565
572.903
572.975
556.195
568.957
572.084
572.8
572.951
563.999
571.099
572.573
572.905
572.976
556.329
569.009
572.098
572.804
572.952
564.314
571.181
572.593
572.909
572.977
556.735
569.119
572.124
572.809
572.953
565.011
571.329
572.625
572.916
572.979
557.62
569.317
572.167
572.818
572.955
565.652
571.414
572.638
572.918
572.979
559.796
569.757
572.254
572.835
572.959
565.489
571.398
572.637
572.918
572.979
558.967
569.583
572.22
572.829
572.958
565.698
571.417
572.638
572.918
572.979
560.191
569.851
572.273
572.839
572.96
565.763
571.433
572.641
572.919
572.979
560.274
569.884
572.279
572.84
572.96
421.976
459.022
456.586
417.573
400.327
401.85
403.804
406.75
415.929
420.015
447.016
456.445
455.231
465.339
430.45
435.167
417.748
421.245
410.753
412.877
363.891
345.9
299.77
293.743
296.275
293.435
297.842
361.035
354.483
337.252
343.554
339.752
317.969
327.683
323.356
312.315
315.855
310.64
358.194
331.576
315.421
311.902
319.699
315.539
307.897
306.133
304.095
300.746
309.008
306.275
360.43
338.807
346.714
327.438
320.104
332.369
308.418
301.482
311.175
345.503
329.72
315.914
301.455
284.552
334.712
323.196
310.766
297.292
281.978
297.031
293.22
288.269
282.5
276.225
291.676
288.762
284.93
280.43
275.523
293.94
290.655
286.347
281.304
275.818
291.405
288.537
284.761
280.324
275.486
295.33
291.81
287.212
281.84
276
343.138
326.769
312.847
298.882
283.543
336.98
321.037
307.689
294.606
280.694
327.56
316.884
305.276
293.06
280.028
328.904
314.843
302.687
290.916
279.125
326.009
312.499
300.775
289.557
278.561
312.458
305.458
297.064
287.81
278.014
319.976
310.959
300.805
290.032
278.783
316.432
308.139
298.677
288.63
278.258
307.806
301.856
294.505
286.257
277.483
310.638
303.956
295.913
287.058
277.742
306.398
300.742
293.696
285.759
277.311
342.03
326.667
313.184
299.245
283.707
323.639
314.359
303.773
292.253
279.75
310.485
304.053
296.167
287.325
277.864
307.55
301.77
294.558
286.368
277.543
314.084
306.959
298.363
288.761
278.399
310.695
304.354
296.513
287.622
277.989
304.149
299.077
292.633
285.213
277.155
302.615
297.81
291.668
284.592
276.934
300.826
296.321
290.535
283.869
276.681
297.893
293.924
288.775
282.797
276.322
305.058
299.734
293.026
285.391
277.197
302.723
297.875
291.694
284.593
276.931
343.499
328.245
314.76
300.612
284.359
329.384
319.099
307.651
295.103
281.004
335.419
322.888
310.408
296.983
281.802
320.647
312.362
302.548
291.561
279.461
314.575
307.504
298.891
289.16
278.548
324.47
315.208
304.561
292.865
280.002
304.596
299.43
292.878
285.353
277.199
298.537
294.457
289.178
283.052
276.41
306.954
301.322
294.258
286.2
277.489
502.627
541.554
495.862
536.377
471.954
517.274
478.449
522.495
484.147
470.116
515.866
487.717
459.008
444.179
488.943
458.934
519.753
534.219
550.246
556.916
513.282
527.397
546.192
553.548
528.993
503.173
507.072
489.926
517.208
540.772
540.728
542.196
501.74
507.912
517.214
517.813
471.669
476.545
547.703
551.795
521.949
530.165
557.48
561.756
548.408
563.93
563.039
569.392
541.932
561.315
560.06
568.101
528.618
555.579
545.224
562.799
556.848
567.136
561.533
568.787
463.731
455.708
472.93
458.674
434.929
427.484
443.091
429.67
499.986
486.95
490.532
483.395
479.92
460.102
482.372
459.931
449.236
430.693
451.124
430.198
506.965
488.707
509.632
488.859
525.151
554.856
515.154
546.956
516.639
550.251
511.06
543.508
531.37
557.638
517.22
548.791
533.868
558.826
517.597
549.635
534.89
519.312
558.156
547.43
526.642
511.954
554.59
542.907
514.531
501.763
548.483
536.523
454.359
426.141
480.594
506.009
541.938
423.023
449.765
474.041
497.329
531.587
423.793
451.344
478.473
505.287
536.911
497.904
483.237
514.261
500.587
494.033
480.039
513.679
499.525
487.794
474.249
512.675
498.26
415.769
406.652
442.39
432.103
465.468
453.749
487.688
474.697
514.061
499.946
415.204
403.898
443.585
435.535
470.564
462.231
495.853
485.449
518.918
506.259
445.746
441.792
443.611
439.391
414.396
398.067
412.012
393.833
473.184
471.982
474.55
472.579
440.641
437.281
440.017
436.603
409.876
391.665
408.965
390.417
470.38
470.497
470.079
470.308
501.043
499.55
523.867
521.412
500.987
498.247
523.217
518.923
499.746
499.146
523.867
522.062
498.334
498.111
522.662
520.893
474.192
470.213
488.78
483.433
471.047
466.468
487.468
481.139
465.017
460.301
485.564
477.828
398.806
393.396
423.937
418.022
445.004
438.549
464.891
458.419
485.327
474.935
393.368
386.947
428.361
421.04
453.324
444.361
472.811
461.717
486.609
473.046
404.164
397.474
413.227
404.554
430.484
418.884
447.647
429.66
385.831
366.109
389.48
368.493
385.415
368.096
389.546
370.309
387.971
382.893
387.313
381.925
370.855
373.926
408.839
411.431
436.553
439.994
390.513
393.939
390.396
392.149
375.59
377.141
350.488
331.709
352.202
332.767
352.087
331.481
353.365
332.481
355.149
331.132
357.821
332.977
359.328
333.587
358.921
332.816
386.638
378.295
391.243
378.924
408.976
401.065
415.24
402.451
372.109
358.49
368.805
358.244
394.207
379.071
395.084
378.265
419.564
403.02
420.934
402.323
374.044
358.385
374.387
357.484
353.587
329.371
341.377
322.39
351.168
328.004
341.198
322.189
354.869
330.038
341.155
322.14
354.856
329.86
340.253
321.392
347.023
342.251
329.135
324.919
348.532
344.04
328.722
324.712
350.982
347.464
328.153
324.815
381.124
401.822
364.261
348.006
325.748
400.205
380.972
363.938
347.124
324.061
398.2
376.71
357.324
340.58
321.632
336.376
329.503
319.132
310.317
338.827
332.344
319.522
311.053
342.733
336.856
320.154
312.111
393.549
385.419
374.738
367.688
358.186
352.376
341.537
335.31
319.724
311.994
389.871
377.746
369.064
357.671
350.661
340.344
334.457
324.28
317.535
309.024
364.812
348.564
363.578
345.532
386.674
369.326
385.204
365.111
345.627
330.286
346.636
332.359
363.727
343.906
362.719
342.482
384.819
362.714
383.827
361.199
345.804
329.163
344.746
327.832
329.241
315.85
314.093
303.719
330.813
317.313
315.398
305
328.546
314.999
313.05
302.558
328.407
314.173
312.619
302.253
323.772
321.793
295.832
294.411
327.387
325.022
296.882
295.278
332.031
328.254
298.072
294.804
378.212
373.07
361.242
356.783
346.735
342.898
328.645
323.327
297.204
292.034
367.013
361.933
347.681
343.297
330.884
326.999
313.498
309.427
291.533
287.633
313.543
301.197
293.274
287.677
314.073
301.302
293.183
287.499
313.122
301.003
293.193
287.629
313.73
301.084
293.109
287.499
312.32
300.658
293.232
287.796
313.065
300.718
293.114
287.628
312.766
300.376
292.603
287.169
311.922
299.782
292.106
286.814
311.318
300.062
292.94
287.685
308.619
299.17
292.782
288.056
310.981
300.152
293.244
288.092
308.929
299.479
293.053
288.338
311.279
299.818
292.56
287.338
308.249
298.835
292.484
287.852
310.829
299.404
292.185
287.098
307.768
298.456
292.198
287.687
312.481
300.95
293.454
288.092
310.881
300.578
293.605
288.667
312.072
300.786
293.417
288.096
310.638
300.476
293.553
288.652
311.402
300.512
293.397
288.182
310.284
300.295
293.468
288.632
310.227
300.082
293.344
288.371
309.735
300.052
293.402
288.668
309.048
299.68
293.271
288.623
309.257
300.251
293.494
289.611
308.127
300.068
293.526
290.009
309.197
300.188
293.469
289.6
308.095
300.007
293.49
289.984
309.009
300.044
293.363
289.52
307.945
299.872
293.391
289.92
308.608
299.804
293.274
289.456
307.59
299.654
293.276
289.844
307.889
299.449
293.163
289.403
306.895
299.342
293.124
289.752
306.294
298.61
292.63
289.06
305.04
298.457
292.638
289.395
307.032
299.034
292.905
289.241
305.905
298.919
292.905
289.597
305.643
298.199
292.296
288.807
304.294
297.992
292.308
289.142
305.086
297.794
291.995
288.566
303.684
297.538
291.984
288.887
282.963
279.916
277.844
276.572
275.97
282.915
279.902
277.838
276.569
275.968
282.931
279.895
277.831
276.564
275.964
282.867
279.871
277.82
276.558
275.96
282.899
279.869
277.815
276.555
275.957
282.811
279.835
277.799
276.545
275.951
282.708
279.779
277.768
276.527
275.938
282.564
279.7
277.724
276.501
275.919
282.817
279.823
277.789
276.539
275.946
282.841
279.811
277.779
276.532
275.941
282.892
279.854
277.805
276.548
275.953
282.9
279.839
277.794
276.541
275.947
282.719
279.771
277.761
276.522
275.934
282.755
279.765
277.754
276.517
275.931
282.588
279.698
277.72
276.498
275.917
282.641
279.701
277.718
276.496
275.916
283.031
279.933
277.85
276.575
275.972
283.09
279.945
277.854
276.577
275.973
283.009
279.918
277.841
276.569
275.968
283.072
279.932
277.846
276.573
275.97
282.979
279.893
277.826
276.56
275.961
283.037
279.91
277.833
276.564
275.964
282.959
279.871
277.811
276.551
275.955
282.99
279.882
277.817
276.554
275.957
282.939
279.856
277.803
276.546
275.951
526.668
525.088
526.904
525.293
527.552
525.925
528.937
527.175
531.576
529.66
535.797
536.285
534.595
534.293
536.22
536.996
536.263
536.873
563.842
571.063
572.565
572.903
572.975
556.271
568.975
572.092
572.801
572.952
563.999
571.103
572.575
572.905
572.976
556.495
569.041
572.105
572.805
572.953
564.17
571.144
572.585
572.907
572.976
556.774
569.112
572.122
572.809
572.953
564.549
571.231
572.604
572.912
572.978
557.27
569.232
572.149
572.815
572.955
565.222
571.373
572.634
572.918
572.979
558.116
569.423
572.189
572.823
572.957
565.732
571.434
572.643
572.919
572.979
559.981
569.806
572.265
572.838
572.96
565.624
571.429
572.644
572.92
572.979
559.291
569.661
572.238
572.833
572.959
565.741
571.428
572.641
572.919
572.979
560.284
569.877
572.28
572.84
572.96
565.777
571.436
572.642
572.919
572.979
560.302
569.892
572.281
572.841
572.96
422.024
458.686
455.371
417.687
410.5
416.844
408.137
416.014
438.196
455.266
442.128
457.211
278.771
279.316
280.524
282.481
285.328
289.216
279.226
279.788
281.027
283.015
285.845
289.616
278.428
278.259
279.005
278.892
280.287
280.306
282.383
282.66
285.399
286.01
289.312
289.998
294.278
300.574
308.291
317.514
326.459
332.335
294.396
300.165
306.802
313.821
320.037
323.911
278.221
277.43
276.37
275.107
273.717
278.712
277.846
276.685
275.303
273.783
279.802
278.768
277.385
275.739
273.931
281.567
280.259
278.515
276.444
274.171
284.13
282.422
280.152
277.463
274.517
287.622
285.361
282.37
278.842
274.984
278.632
277.778
276.634
275.271
273.773
279.138
278.206
276.958
275.473
273.841
280.256
279.15
277.674
275.92
273.993
282.046
280.662
278.819
276.633
274.235
284.592
282.809
280.442
277.643
274.578
287.976
285.655
282.589
278.978
275.031
277.911
277.167
276.171
274.982
273.674
277.758
277.038
276.072
274.921
273.653
278.431
277.608
276.505
275.191
273.745
278.329
277.522
276.44
275.15
273.731
279.589
278.588
277.248
275.655
273.903
279.606
278.603
277.26
275.662
273.905
281.48
280.187
278.461
276.41
274.159
281.73
280.399
278.622
276.511
274.193
284.196
282.48
280.196
277.491
274.526
284.747
282.945
280.549
277.71
274.601
287.712
285.44
282.432
278.88
274.997
288.331
285.962
282.826
279.125
275.08
292.149
289.155
285.226
280.615
275.586
297.742
293.814
288.719
282.784
276.323
304.519
299.406
292.898
285.387
277.215
312.462
305.879
297.729
288.434
278.283
319.913
311.839
302.189
291.319
279.349
324.712
315.647
305.048
293.201
280.066
292.249
289.235
285.285
280.652
275.599
297.38
293.513
288.496
282.646
276.277
303.236
298.366
292.128
284.907
277.048
309.361
303.401
295.891
287.261
277.86
314.711
307.761
299.15
289.318
278.581
318.022
310.452
301.166
290.602
279.037
278.853
279.569
280.972
283.164
286.306
290.563
279.312
280.052
281.49
283.708
286.804
290.869
278.51
278.343
279.258
279.154
280.742
280.782
283.092
283.419
286.436
287.125
290.809
291.664
296.029
302.649
310.503
319.499
327.818
332.815
295.93
301.893
308.553
315.346
321.075
324.278
278.295
277.493
276.418
275.137
273.727
278.942
278.041
276.835
275.397
273.815
280.209
279.114
277.65
275.906
273.988
282.188
280.789
278.92
276.698
274.258
285.02
283.183
280.735
277.83
274.642
288.85
286.414
283.18
279.352
275.159
278.71
277.844
276.685
275.303
273.783
279.378
278.41
277.114
275.571
273.875
280.676
279.509
277.948
276.092
274.051
282.676
281.2
279.231
276.891
274.323
285.465
283.555
281.015
278.003
274.701
289.119
286.634
283.343
279.453
275.193
277.985
277.23
276.219
275.012
273.684
277.834
277.103
276.122
274.952
273.664
278.661
277.804
276.655
275.284
273.777
278.567
277.724
276.594
275.247
273.764
280.002
278.94
277.517
275.823
273.96
280.039
278.971
277.541
275.838
273.965
282.124
280.736
278.881
276.674
274.249
282.42
280.987
279.072
276.793
274.29
285.139
283.286
280.815
277.88
274.659
285.762
283.814
281.215
278.13
274.744
289.078
286.611
283.332
279.448
275.192
289.851
287.267
283.83
279.759
275.297
293.752
290.534
286.29
281.289
275.817
299.65
295.465
290.001
283.599
276.603
306.569
301.196
294.301
286.286
277.526
314.324
307.526
299.038
289.284
278.58
321.207
312.998
303.122
291.935
279.569
325.174
316.064
305.387
293.427
280.147
293.653
290.442
286.216
281.241
275.801
298.966
294.884
289.558
283.321
276.508
304.852
299.77
293.224
285.606
277.289
310.777
304.64
296.865
287.887
278.077
315.682
308.617
299.827
289.757
278.734
318.367
310.757
301.409
290.76
279.092
364.644
346.536
302.324
295.749
299.185
295.702
300.635
370.626
368.561
346.757
358.823
325.456
337.456
318.768
323
316.355
364.41
338.202
321.532
316.815
325.339
319.784
310.876
309.868
308.8
304.639
314.326
310.649
362.816
340.663
351.008
330.26
323.7
337.384
311.984
304.851
315.436
346.319
330.483
316.57
301.93
284.744
335.349
323.788
311.263
297.637
282.109
299.381
295.256
289.852
283.507
276.571
293.513
290.343
286.151
281.203
275.787
296.608
292.956
288.128
282.433
276.205
293.48
290.323
286.139
281.196
275.785
297.895
294.028
288.932
282.933
276.375
353.787
336.905
321.42
304.823
285.853
352.431
335.59
319.791
302.733
283.555
337.149
325.848
312.692
298.02
281.804
345.745
330.561
315.706
299.592
282.192
319.659
311.963
302.306
291.235
279.209
329.687
319.933
308.159
294.892
280.49
313.932
307.332
298.879
289.098
278.47
317.609
310.332
301.098
290.467
278.935
311.842
305.627
297.614
288.311
278.199
348.716
333.104
318.69
303.114
285.271
330.142
320.34
308.68
295.524
280.923
316.286
309.24
300.315
290.023
278.803
312.169
305.862
297.806
288.469
278.273
319.465
311.796
302.254
291.307
279.292
314.695
307.909
299.347
289.463
278.631
306.919
301.504
294.542
286.44
277.579
306.085
300.847
294.053
286.121
277.462
305.186
300.129
293.519
285.779
277.34
301.479
297.033
291.195
284.338
276.851
310.044
304.14
296.513
287.64
277.976
306.794
301.446
294.502
286.396
277.554
346.066
330.647
316.824
302.092
284.966
331.216
320.786
309.049
296.057
281.361
339.794
326.993
313.872
299.374
282.695
323.357
314.813
304.538
292.881
279.932
317.983
310.552
301.335
290.759
279.11
329.374
319.717
308.268
295.348
280.897
307.918
302.347
295.177
286.831
277.71
301.649
297.162
291.289
284.399
276.873
310.947
304.848
297.051
288.004
278.115
279.6
292.397
304.206
314.548
322.834
329.113
483.326
477.362
453.753
459.566
467.771
458.793
444.194
433.673
502.83
518.388
496.392
510.322
487.045
478.476
498.563
473.403
468.578
445.632
450.298
460.475
452.569
437.699
428.694
492.702
503.849
487.09
496.834
478.402
470.489
486.623
459.613
456.103
434.301
437.702
449.832
443.454
428.199
420.63
477.274
487.974
472.81
482.453
466.173
459.523
474.195
445.378
442.806
422.457
425.04
437.839
432.374
417.582
411.1
462.695
474.018
459.127
469.509
453.761
447.421
462.234
435.069
433.001
413.836
416.004
428.728
424.024
409.611
403.713
451.68
463.788
448.655
460.186
444.358
438.788
453.881
428.088
426.267
407.954
409.912
422.463
418.379
404.061
398.599
444.441
458.233
441.686
454.736
438.147
433.214
448.442
403.993
400.908
426.623
430.922
396.633
391.337
419.636
411.102
381.57
361.253
380.674
362.977
377.023
376.507
365.692
399.756
396.886
420.76
424.492
392.896
387.97
414.583
406.691
377.038
357.51
376.296
359.373
372.884
372.812
361.851
393.023
390.5
412.026
415.022
386.973
382.479
406.913
400.128
372.423
352.922
371.619
354.592
368.534
368.387
356.845
384.723
382.541
402.176
404.609
379.266
374.8
397.888
391.58
365.711
347.252
365.015
348.708
362.223
362.009
350.938
378.121
376.148
394.757
396.885
373.218
369.003
390.922
385.14
360.013
343.066
359.405
344.148
357.103
356.81
346.365
373.425
371.592
389.624
391.582
369.046
365.304
386.055
380.709
356.399
340.238
355.91
341.282
353.844
353.718
343.69
538.688
555.168
527.468
547.425
512.11
537.61
485.621
515.873
485.226
509.165
508.914
532.337
523.274
543.513
533.369
551.414
503.249
482.811
523.483
493.95
474.923
453.646
495.132
463.456
546.741
554.235
559.717
563.798
535.861
545.304
552.922
558.917
536.324
520.818
513.571
503.34
532.607
546.917
543.042
542.726
504.31
508.542
519.201
518.293
473.502
476.997
550.146
552.334
524.585
530.797
559.369
562.147
559.25
567.473
566.942
570.698
552.073
564.62
563.295
569.233
538.22
558.661
549.889
564.357
558.518
567.724
561.865
568.911
468.265
456.175
475.833
458.768
436.367
425.632
444.291
428.47
503.56
487.644
496.455
484.87
481.251
460.032
482.704
459.864
449.738
429.967
451.214
429.927
508.635
488.967
510.071
488.902
527.987
555.814
515.803
547.153
521.309
551.814
512.339
543.884
532.725
558.117
517.495
548.878
534.234
558.963
517.657
549.655
552.591
539.308
563.713
553.973
542.32
529.11
559.553
548.514
527.416
515.209
552.523
540.733
453.106
415.988
485.272
511.534
543.82
410.273
447.238
479.278
504.011
533.732
415.79
449.623
480.137
507.261
537.447
515.609
495.041
520.476
500.829
509.394
490.366
518.356
498.61
500.179
482.435
515.437
495.991
399.992
387.267
437.935
424.575
468.496
453.841
492.196
476.025
514.355
496.29
404.323
390.449
439.49
428.385
470.242
458.399
496.262
482.392
518.243
502.598
443.527
437.875
442.133
436.959
408.983
390.003
409.052
389.345
472.638
470.731
474.087
470.74
439.765
435.989
439.722
436.2
408.328
389.417
408.47
389.732
469.975
469.777
469.931
470.077
500.837
498.857
523.613
520.857
500.957
497.104
522.897
517.845
499.561
498.752
523.705
521.777
498.257
497.974
522.605
520.803
473.313
456.949
448.57
476.355
458.697
450
470.166
453.579
444.859
474.354
456.123
446.99
462.595
445.958
437.146
471.697
452.144
442.281
373.726
364.275
359.745
409.156
395.858
388.769
436.633
420.305
411.204
456.266
438.433
429.004
470.785
449.014
437.802
375.455
363.697
357.963
414.903
400.439
392.594
442.164
424.232
414.029
461.628
440.123
428.218
473.761
448.977
435.805
407.241
398.329
412.973
404.149
439.334
423.902
450.057
431.666
382.637
359.95
383.806
361.876
384.019
362.735
385.892
364.81
385.571
381.622
384.974
379.458
366.227
369.852
408.365
411.229
437.274
440.145
388.923
393.386
388.897
391.613
372.966
376.199
337.842
320.046
343.164
323.345
340.505
320.654
345.724
324.395
344.808
321.488
351.851
326.384
355.759
329.484
357.677
331.384
380.799
371.348
388.381
374.914
406.743
396.359
414.385
399.704
367.521
353.768
360.237
350.273
392.716
376.925
394.599
377.564
419.074
401.524
420.74
401.818
371.633
355.839
373.624
356.662
347.595
323.806
336.593
318.294
340.979
319.866
333.427
315.998
351.631
326.76
338.526
319.791
353.835
328.784
339.403
320.623
321.43
310.542
313.533
306.437
323.794
313.309
313.918
307.233
328.273
319.327
314.943
309.431
361.672
385.126
344.31
331.408
314.941
380.091
357
337.817
325.582
311.311
384.847
361.596
343.047
328.584
313.193
301.754
293.808
299.612
292.434
304.802
296.674
300.974
293.861
310.743
302.303
303.632
296.495
369.72
357.678
347.154
335.874
330.296
320.616
318.391
309.385
306.832
299.592
373.267
358.692
350.981
337.478
334.219
322.621
321.175
310.647
308.817
300.805
355.28
337.417
358.498
339.566
378.228
358.343
380.833
359.29
340.478
324.817
337.48
322.54
361.185
340.955
361.929
341.597
382.656
359.843
383.153
360.338
343.162
326.416
343.923
327.004
324.633
311.448
310.52
300.591
322.985
309.713
309.721
299.907
326.078
312.719
311.062
300.864
327.602
313.452
311.987
301.734
285.691
281.795
280.279
281.08
277.987
276.945
288.726
284.367
282.643
282.498
279.252
278.056
294.302
289.42
287.4
284.762
280.907
279.431
345.892
338.087
334.478
325.625
319.263
316.52
311.499
305.804
303.545
300.193
294.349
291.825
286.457
281.838
280.004
344.75
334.878
330.57
325.18
316.662
313
311.566
304.115
301.036
299.479
292.986
290.505
285.525
281.147
279.437
305.877
296.525
290.424
285.934
307.316
297.057
290.554
285.878
305.983
296.619
290.53
286.03
307.852
297.344
290.782
286.073
305.973
296.703
290.794
286.335
308.266
297.624
291.145
286.409
309.649
298.324
291.29
286.348
310.814
299.043
291.63
286.511
307.369
297.467
291.243
286.589
305.547
297.062
291.334
287.044
305.584
296.703
291.037
286.711
304.488
296.52
291.104
287.052
308.838
298.183
291.471
286.611
306.428
297.563
291.584
287.189
309.998
298.841
291.808
286.845
307.16
298.027
291.891
287.457
303.535
295.715
290.299
286.156
300.773
294.799
290.146
286.499
303.559
295.761
290.391
286.262
301.007
294.908
290.216
286.574
303.703
295.875
290.576
286.485
301.658
295.184
290.378
286.717
303.555
295.936
290.766
286.798
302.184
295.442
290.58
286.929
303.336
296.003
290.924
287.124
298.552
294.132
289.859
287.106
297.259
293.8
289.758
287.306
299.031
294.312
289.956
287.181
297.792
293.996
289.849
287.364
299.899
294.649
290.109
287.282
298.694
294.341
289.997
287.459
300.957
295.091
290.369
287.458
299.728
294.769
290.21
287.597
301.974
295.603
290.689
287.654
300.606
295.225
290.458
287.763
303.383
296.543
291.188
287.951
301.888
296.17
291.059
288.177
302.729
296.09
290.933
287.79
301.268
295.707
290.75
287.959
303.949
296.966
291.414
288.103
302.481
296.636
291.355
288.396
304.53
297.385
291.699
288.328
303.1
297.095
291.67
288.64
282.013
279.384
277.545
276.395
275.844
282.008
279.389
277.55
276.398
275.846
282.067
279.411
277.559
276.403
275.85
282.078
279.425
277.569
276.409
275.854
282.137
279.444
277.577
276.413
275.857
282.157
279.466
277.591
276.422
275.863
282.254
279.522
277.623
276.441
275.877
282.392
279.602
277.668
276.468
275.896
282.229
279.493
277.604
276.429
275.868
282.319
279.522
277.616
276.436
275.873
282.197
279.468
277.588
276.42
275.861
282.276
279.495
277.601
276.427
275.866
282.314
279.543
277.632
276.446
275.88
282.4
279.567
277.642
276.451
275.884
282.447
279.618
277.675
276.471
275.898
282.517
279.632
277.679
276.473
275.899
282.032
279.382
277.542
276.393
275.842
282.056
279.381
277.539
276.391
275.841
282.074
279.401
277.552
276.398
275.846
282.087
279.396
277.547
276.395
275.844
282.138
279.431
277.567
276.407
275.852
282.141
279.421
277.56
276.403
275.849
282.21
279.46
277.582
276.415
275.858
282.2
279.45
277.576
276.411
275.855
282.248
279.477
277.591
276.42
275.862
527.792
524.753
527.419
524.398
527.212
524.352
527.9
525.159
530.493
527.81
535.445
535.832
533.994
533.425
536.03
536.77
536.201
536.803
563.887
571.05
572.559
572.901
572.975
556.113
568.918
572.075
572.796
572.951
563.917
571.067
572.565
572.903
572.975
556.199
568.959
572.084
572.8
572.951
563.998
571.099
572.573
572.905
572.976
556.331
569.01
572.098
572.804
572.952
564.314