/*--------------------------------*- C++ -*----------------------------------*\
| =========                 |                                                 |
| \\      /  F ield         | OpenFOAM: The Open Source CFD Toolbox           |
|  \\    /   O peration     | Version:  2306                                  |
|   \\  /    A nd           | Website:  www.openfoam.com                      |
|    \\/     M anipulation  |                                                 |
\*---------------------------------------------------------------------------*/
FoamFile
{
    version     2.0;
    format      ascii;
    arch        "LSB;label=32;scalar=64";
    class       volVectorField;
    location    "1.2";
    object      flux;
}
// * * * * * * * * * * * * * * * * * * * * * * * * * * * * * * * * * * * * * //

dimensions      [0 1 -1 1 0 0 0];

internalField   nonuniform List<vector> 
2658
(
(9.87249e-07 9.66465e-07 -8.32473e-06)
(1.45201e-06 5.64208e-07 -7.95689e-06)
(4.70945e-07 1.74062e-07 -5.40368e-06)
(-1.7406e-08 -1.29155e-08 -4.87792e-06)
(-1.82464e-06 -1.79493e-06 -6.22339e-06)
(-1.53944e-06 2.19402e-06 -6.36152e-06)
(1.51144e-06 -1.76425e-06 -5.43855e-06)
(1.49533e-06 1.48806e-06 -5.26032e-06)
(-2.22631e-08 -1.04616e-08 -4.8738e-06)
(2.17888e-06 -1.55922e-06 -6.34327e-06)
(-1.53426e-06 4.7014e-07 -6.63094e-06)
(-1.15545e-06 -3.86491e-06 -5.45792e-06)
(8.04494e-07 2.41113e-06 -7.46578e-06)
(9.39854e-07 2.44958e-06 -7.03837e-06)
(7.13424e-07 1.99528e-06 -7.20534e-06)
(-5.20722e-08 2.0434e-06 -7.40235e-06)
(-3.16024e-08 2.22975e-06 -7.19403e-06)
(-1.975e-08 2.01285e-06 -7.38591e-06)
(-7.81464e-07 2.04182e-06 -7.1934e-06)
(-1.02172e-06 2.4191e-06 -6.94385e-06)
(-9.87225e-07 2.33633e-06 -7.33984e-06)
(-2.29217e-06 2.05031e-06 -6.61257e-06)
(-2.71146e-06 6.84667e-07 -7.53004e-06)
(2.00893e-06 -4.37666e-07 -5.6211e-06)
(-8.36268e-07 7.32174e-07 -8.86476e-06)
(-1.08439e-06 2.22694e-06 -7.33186e-06)
(-2.33137e-06 -4.77261e-07 -6.59678e-06)
(-3.22657e-07 1.37995e-07 -7.67556e-06)
(-1.70653e-06 1.81631e-06 -7.89203e-06)
(-1.85418e-06 -9.26918e-11 -6.57165e-06)
(-1.70651e-06 -1.81634e-06 -7.89196e-06)
(-2.33142e-06 4.77271e-07 -6.59678e-06)
(-1.08445e-06 -2.22706e-06 -7.33179e-06)
(-2.71161e-06 -6.84654e-07 -7.52994e-06)
(-8.36218e-07 -7.3215e-07 -8.86475e-06)
(2.00891e-06 4.37721e-07 -5.62101e-06)
(-1.00621e-06 -9.46078e-08 -7.04865e-06)
(5.01638e-07 1.93003e-07 -1.01926e-05)
(-2.29181e-06 -2.05093e-06 -6.61249e-06)
(-9.87499e-07 -2.33647e-06 -7.34002e-06)
(-1.0217e-06 -2.41927e-06 -6.94395e-06)
(-7.81413e-07 -2.0419e-06 -7.19341e-06)
(-1.98966e-08 -2.01271e-06 -7.38584e-06)
(7.1377e-08 9.88961e-07 -1.04588e-05)
(-1.25774e-06 -1.11153e-07 -6.41239e-06)
(1.17409e-06 -3.7029e-08 -6.34232e-06)
(-1.53422e-06 -4.70171e-07 -6.63096e-06)
(-6.19904e-08 1.03004e-06 -1.04536e-05)
(-5.23003e-08 -2.04376e-06 -7.40245e-06)
(7.13443e-07 -1.99531e-06 -7.20539e-06)
(9.39901e-07 -2.44941e-06 -7.0383e-06)
(8.04471e-07 -2.41113e-06 -7.46584e-06)
(2.17396e-06 -2.15359e-06 -6.68863e-06)
(-4.5328e-07 4.39149e-07 -1.0583e-05)
(2.42508e-06 -8.04753e-07 -7.47246e-06)
(2.00307e-06 -7.35946e-07 -7.21428e-06)
(-1.04596e-06 5.38567e-08 -1.04536e-05)
(5.72785e-08 -1.19137e-06 -6.37113e-06)
(-3.64341e-06 -1.58316e-11 -5.67953e-06)
(2.01919e-06 -9.54687e-09 -7.39356e-06)
(-1.04591e-06 -5.38323e-08 -1.04537e-05)
(2.00312e-06 7.35908e-07 -7.21438e-06)
(2.42507e-06 8.04806e-07 -7.47254e-06)
(-4.53208e-07 -4.39205e-07 -1.0583e-05)
(4.48275e-07 4.5402e-07 -6.62156e-06)
(-3.87159e-06 -1.12128e-06 -5.46878e-06)
(4.39992e-07 -1.52353e-06 -6.61395e-06)
(-6.39527e-08 -7.5053e-08 -5.80859e-06)
(-1.15536e-06 -2.4311e-06 -6.28707e-06)
(-1.15549e-06 2.43111e-06 -6.28693e-06)
(-2.91639e-08 2.14085e-11 -4.94285e-06)
(1.083e-06 1.94097e-06 -5.32654e-06)
(-9.56538e-08 -2.62871e-08 -3.99036e-06)
(-1.10332e-06 1.5009e-06 -4.43789e-06)
(4.04103e-08 1.62129e-09 -3.29119e-06)
(-1.16542e-06 -1.14163e-06 -4.39372e-06)
(1.48622e-06 -1.12818e-06 -4.42485e-06)
(-3.78932e-09 4.79667e-08 -3.28648e-06)
(-1.19267e-06 1.01627e-06 -3.61034e-06)
(1.32639e-06 6.64105e-07 -3.53466e-06)
(-1.71228e-06 -7.57452e-07 -4.42514e-06)
(-4.04972e-08 -8.15418e-08 -3.98826e-06)
(1.94685e-06 1.03337e-06 -5.2986e-06)
(-1.77232e-06 1.55976e-06 -5.45593e-06)
(-3.99443e-08 -2.7698e-08 -4.59378e-06)
(-2.16802e-08 -1.35358e-08 -3.08616e-06)
(-2.50554e-10 4.57008e-09 -1.94976e-06)
(5.86243e-09 8.75541e-09 -1.14928e-06)
(5.64629e-09 7.56346e-09 -6.316e-07)
(3.90746e-09 5.36233e-09 -3.2442e-07)
(2.19884e-09 3.27746e-09 -1.58305e-07)
(-2.36764e-09 -4.30207e-09 -1.02379e-07)
(2.03708e-09 2.12932e-09 -7.59978e-08)
(-1.60652e-08 1.18689e-08 -6.43286e-08)
(1.02266e-08 -4.66748e-09 -6.50618e-08)
(-2.19978e-09 -1.43531e-08 -7.56729e-08)
(-1.26508e-08 -1.66949e-09 -6.37889e-08)
(4.11428e-11 -1.25745e-08 -9.47804e-08)
(1.26371e-08 -1.87684e-09 -6.37934e-08)
(-1.04475e-08 -4.38224e-09 -6.45157e-08)
(5.51711e-09 -1.36727e-08 -9.51393e-08)
(1.42482e-08 -3.36094e-09 -6.53327e-08)
(1.36833e-08 -1.38066e-08 -7.47992e-08)
(9.70918e-09 -6.27171e-09 -7.82588e-08)
(1.01596e-08 -5.44228e-09 -6.64687e-08)
(-2.20779e-08 1.27248e-08 -7.63768e-08)
(-3.80963e-09 -4.47098e-09 -5.59238e-08)
(-2.70833e-09 -6.49976e-10 -1.04718e-07)
(-1.48466e-09 1.92138e-09 -5.94787e-08)
(5.79768e-09 -1.29082e-08 -8.48485e-08)
(1.24144e-08 4.29152e-09 -7.82605e-08)
(4.75423e-09 -5.71222e-09 -6.43082e-08)
(9.73254e-09 -9.66859e-14 -8.70388e-08)
(4.75329e-09 5.71248e-09 -6.43059e-08)
(1.24144e-08 -4.29259e-09 -7.82611e-08)
(5.79773e-09 1.29082e-08 -8.48507e-08)
(1.01612e-08 5.44232e-09 -6.64717e-08)
(-2.20783e-08 -1.27262e-08 -7.63771e-08)
(1.36852e-08 1.38055e-08 -7.47996e-08)
(9.71121e-09 6.27083e-09 -7.82592e-08)
(1.42472e-08 3.35781e-09 -6.53281e-08)
(5.51474e-09 1.36725e-08 -9.51325e-08)
(-1.04485e-08 4.38188e-09 -6.45147e-08)
(1.26372e-08 1.87614e-09 -6.3792e-08)
(-2.12803e-08 -1.01076e-08 -6.72821e-08)
(2.1139e-08 -9.74504e-09 -6.7592e-08)
(-1.6066e-08 -1.18701e-08 -6.43266e-08)
(-2.20043e-09 1.4355e-08 -7.56766e-08)
(-1.26506e-08 1.67101e-09 -6.37889e-08)
(1.02254e-08 4.6686e-09 -6.50639e-08)
(-5.69743e-09 1.34777e-08 -9.53641e-08)
(-1.40375e-08 3.11773e-09 -6.49638e-08)
(-9.19586e-09 6.35252e-09 -7.77583e-08)
(-8.34433e-09 6.12467e-09 -6.45833e-08)
(-5.6249e-09 1.21499e-08 -8.44486e-08)
(4.70161e-10 -5.76457e-09 -6.245e-08)
(-2.88415e-09 7.37298e-10 -6.14319e-08)
(-1.8387e-08 1.02179e-09 -7.73126e-08)
(1.31849e-08 -1.40131e-08 -6.49639e-08)
(1.31784e-08 1.40172e-08 -6.49659e-08)
(-2.88352e-09 -7.37952e-10 -6.14292e-08)
(4.66862e-10 5.76566e-09 -6.24497e-08)
(5.36299e-09 -3.23269e-09 -6.73762e-08)
(-6.0919e-09 -3.33507e-09 -7.00479e-08)
(-6.97996e-09 -3.08153e-11 -8.76385e-08)
(-6.07793e-09 3.32482e-09 -7.00158e-08)
(2.9205e-09 6.49641e-12 -8.35795e-08)
(3.48875e-09 8.12056e-12 -8.46191e-08)
(-1.24331e-08 -6.77763e-09 -5.76217e-08)
(-1.29324e-08 6.67884e-09 -5.79034e-08)
(-1.0722e-08 1.71418e-11 -5.38712e-08)
(-1.35872e-08 5.55291e-10 -7.77718e-08)
(-1.33603e-08 3.7544e-09 -7.99146e-08)
(-1.37581e-08 -4.29817e-09 -4.84439e-08)
(-1.12804e-08 1.66375e-08 -6.7206e-08)
(-1.95155e-08 3.72437e-09 -6.44663e-08)
(-1.73837e-08 1.56992e-08 -5.86569e-08)
(-7.46665e-09 1.87246e-08 -6.37876e-08)
(-8.86235e-09 2.00043e-08 -5.89624e-08)
(-6.55818e-09 1.55067e-08 -6.28419e-08)
(2.14154e-10 1.56232e-08 -6.46922e-08)
(-3.6379e-11 1.83729e-08 -6.00811e-08)
(-4.16081e-10 1.5657e-08 -6.47182e-08)
(6.08096e-09 1.5683e-08 -6.26175e-08)
(8.68001e-09 2.03771e-08 -5.83894e-08)
(7.40019e-09 1.88742e-08 -6.319e-08)
(1.73816e-08 1.63196e-08 -5.80921e-08)
(2.2532e-08 5.13266e-09 -6.6863e-08)
(-5.26225e-09 -2.35679e-10 -1.06249e-07)
(1.99469e-08 5.81735e-09 -1.04033e-07)
(-5.52361e-08 -3.59233e-08 -1.6696e-07)
(7.91644e-08 5.73187e-08 -2.50377e-07)
(-1.10743e-07 -7.74244e-08 -3.6174e-07)
(1.61966e-07 1.14689e-07 -5.12917e-07)
(-2.19877e-07 -1.59106e-07 -7.21088e-07)
(3.11506e-07 2.17925e-07 -9.89441e-07)
(-4.10388e-07 -3.02855e-07 -1.34082e-06)
(5.59454e-07 3.87253e-07 -1.77899e-06)
(-7.15124e-07 -5.35149e-07 -2.32243e-06)
(9.39893e-07 6.40796e-07 -2.9805e-06)
(-1.16205e-06 -8.82869e-07 -3.74875e-06)
(1.48615e-06 9.87875e-07 -4.64844e-06)
(-1.76281e-06 -1.37347e-06 -5.6482e-06)
(2.2672e-06 1.41982e-06 -6.5896e-06)
(-2.26012e-06 1.39646e-06 -6.37168e-06)
(2.40116e-06 1.17243e-06 -6.25076e-06)
(-2.48259e-06 1.11463e-06 -6.31442e-06)
(2.17882e-06 1.55929e-06 -6.34318e-06)
(-1.82473e-06 1.79487e-06 -6.22332e-06)
(-1.74131e-08 1.28945e-08 -4.87784e-06)
(-1.53934e-06 -2.19408e-06 -6.36159e-06)
(4.39908e-07 1.52353e-06 -6.61385e-06)
(-3.8715e-06 1.12119e-06 -5.46878e-06)
(4.48283e-07 -4.54038e-07 -6.62156e-06)
(-1.15547e-06 3.86486e-06 -5.45793e-06)
(4.75589e-07 -4.85137e-07 -8.84177e-06)
(-3.99509e-08 2.7668e-08 -4.59377e-06)
(-2.16814e-08 1.35163e-08 -3.08615e-06)
(-2.64181e-10 -4.57601e-09 -1.94975e-06)
(5.85219e-09 -8.76696e-09 -1.14927e-06)
(5.65041e-09 -7.57293e-09 -6.31592e-07)
(3.91051e-09 -5.36119e-09 -3.24412e-07)
(2.19969e-09 -3.2773e-09 -1.58301e-07)
(-2.36789e-09 4.30241e-09 -1.02379e-07)
(2.03706e-09 -2.12836e-09 -7.59984e-08)
(3.28652e-10 -9.93088e-11 -5.39346e-08)
(-5.90512e-09 -5.66804e-09 -5.93122e-08)
(-7.70623e-10 2.64497e-09 -1.02831e-07)
(7.85528e-09 -7.19895e-09 -6.09254e-08)
(7.85497e-09 7.19848e-09 -6.09259e-08)
(-5.90564e-09 5.66893e-09 -5.93132e-08)
(3.29748e-10 9.85204e-11 -5.39347e-08)
(-7.68e-10 -2.64634e-09 -1.02831e-07)
(2.22794e-09 -1.98229e-09 -5.58997e-08)
(2.11388e-08 9.74571e-09 -6.7591e-08)
(-2.12818e-08 1.0107e-08 -6.72827e-08)
(1.5443e-09 -1.45124e-08 -7.5414e-08)
(1.63041e-08 1.14927e-08 -6.4624e-08)
(-1.33135e-09 2.61673e-09 -7.59675e-08)
(1.29616e-10 -6.13554e-11 -5.41537e-08)
(-2.26927e-09 -1.8539e-09 -5.57837e-08)
(-5.05707e-11 1.65927e-09 -7.78903e-08)
(1.20238e-10 -8.38049e-10 -1.03453e-07)
(2.09759e-09 -5.25201e-10 -1.02534e-07)
(1.72463e-09 -3.64473e-14 -1.07598e-07)
(2.09756e-09 5.2439e-10 -1.02532e-07)
(-1.33429e-09 -2.62015e-09 -7.5967e-08)
(-3.80848e-09 4.47035e-09 -5.59229e-08)
(-1.035e-08 -9.16742e-09 -6.12387e-08)
(-2.70681e-09 6.51503e-10 -1.04718e-07)
(2.2472e-09 -9.94515e-09 -6.4384e-08)
(2.24793e-09 9.94761e-09 -6.43842e-08)
(-1.03508e-08 9.16856e-09 -6.12385e-08)
(-3.51769e-10 4.93687e-13 -8.07697e-08)
(6.54216e-09 -6.36839e-09 -5.98959e-08)
(-7.92646e-09 -7.06802e-09 -6.05787e-08)
(-7.92844e-09 7.06973e-09 -6.05784e-08)
(1.41292e-10 -2.55317e-09 -1.02539e-07)
(6.54415e-09 6.37025e-09 -5.9896e-08)
(-1.21211e-10 -9.86096e-10 -7.3448e-08)
(-1.25605e-09 2.96972e-13 -6.65203e-08)
(-1.6676e-09 -4.57699e-09 -6.52672e-08)
(-1.57794e-09 -2.09524e-09 -6.0257e-08)
(7.10295e-09 6.19113e-09 -6.92868e-08)
(-1.59376e-09 -1.5653e-09 -6.53653e-08)
(-4.06508e-10 7.55365e-13 -6.83125e-08)
(-1.16398e-08 5.66082e-13 -1.00526e-07)
(3.00858e-10 -2.1073e-13 -9.65632e-08)
(-5.56702e-09 -1.09523e-08 -7.0193e-08)
(9.1524e-09 7.26255e-09 -9.20724e-08)
(8.51906e-09 1.88641e-08 -6.35785e-08)
(1.83148e-08 -4.80519e-09 -5.38716e-08)
(1.29785e-08 1.48852e-08 -6.67192e-08)
(-3.85435e-08 -2.18045e-08 -7.9058e-08)
(3.08448e-08 3.25186e-08 -1.36741e-07)
(-6.11927e-08 -4.16514e-08 -1.80095e-07)
(-6.11893e-08 4.16489e-08 -1.80095e-07)
(-1.31843e-09 6.05259e-09 -1.39894e-07)
(-7.45378e-08 5.91395e-08 -2.64772e-07)
(1.79309e-09 3.84523e-09 -1.99039e-07)
(1.00856e-07 -8.89951e-08 -3.78711e-07)
(-1.47461e-07 1.2295e-07 -5.4128e-07)
(1.61144e-09 2.39691e-09 -4.01173e-07)
(2.0178e-07 -1.74979e-07 -7.5127e-07)
(-2.82409e-07 2.39814e-07 -1.03835e-06)
(-1.34864e-11 -8.71099e-10 -7.58959e-07)
(3.76565e-07 -3.23368e-07 -1.39624e-06)
(-5.06736e-07 4.3491e-07 -1.85945e-06)
(-4.61533e-09 -9.24637e-09 -1.33928e-06)
(6.55221e-07 -5.57675e-07 -2.41997e-06)
(-8.45236e-07 7.34189e-07 -3.10354e-06)
(-1.53255e-08 -3.29454e-08 -2.2034e-06)
(1.06991e-06 -8.95392e-07 -3.91045e-06)
(-1.30373e-06 1.15837e-06 -4.83001e-06)
(-3.21569e-08 -1.00941e-07 -3.37932e-06)
(1.68551e-06 -1.33786e-06 -5.86033e-06)
(-1.81773e-06 1.70996e-06 -7.1173e-06)
(-1.02581e-07 -3.06729e-07 -5.01652e-06)
(2.92921e-06 -1.98796e-06 -7.878e-06)
(4.83885e-07 -9.4525e-07 -5.51997e-06)
(3.5159e-06 -2.13564e-06 -7.15671e-06)
(3.51589e-06 2.13567e-06 -7.15668e-06)
(-3.226e-07 -1.37927e-07 -7.67544e-06)
(8.13776e-07 -6.11514e-07 -7.78866e-06)
(-2.8246e-07 1.12199e-06 -6.88997e-06)
(1.1422e-06 1.00014e-06 -6.37231e-06)
(6.34899e-08 -1.34585e-11 -9.2456e-06)
(-7.13881e-07 -7.03232e-07 -6.07949e-06)
(-7.13878e-07 7.03232e-07 -6.07954e-06)
(7.86643e-07 7.38455e-07 -6.12923e-06)
(-3.68277e-08 -9.1259e-12 -9.25407e-06)
(-9.20885e-07 -8.87636e-07 -6.20774e-06)
(-9.20871e-07 8.87631e-07 -6.20776e-06)
(2.47897e-07 3.62706e-07 -5.91296e-06)
(-3.02719e-07 -8.0984e-12 -9.15391e-06)
(-1.32759e-06 -2.339e-06 -7.57077e-06)
(-1.32759e-06 2.33896e-06 -7.57073e-06)
(4.71128e-07 -1.49246e-06 -8.92108e-06)
(1.9161e-06 1.32735e-11 -1.27039e-05)
(4.71143e-07 1.49241e-06 -8.92111e-06)
(7.42517e-07 -1.16638e-06 -9.06821e-06)
(2.09629e-06 7.40049e-07 -1.25599e-05)
(8.92972e-07 1.70548e-06 -9.04565e-06)
(1.20531e-06 1.20035e-06 -1.05217e-05)
(1.50817e-06 1.50331e-06 -8.9633e-06)
(-2.30171e-06 -2.28391e-06 -8.75266e-06)
(-1.33696e-06 1.59648e-06 -7.21932e-06)
(1.26934e-06 2.06022e-07 -8.40163e-06)
(8.67177e-07 1.34894e-07 -9.98395e-06)
(-5.58596e-09 1.57346e-08 -9.22156e-06)
(2.47907e-07 -3.62722e-07 -5.91295e-06)
(-1.48484e-07 -1.32552e-07 -5.65666e-06)
(-3.92396e-07 -3.85511e-07 -9.05697e-06)
(1.59108e-06 -1.30754e-06 -7.25216e-06)
(-1.18302e-06 7.38182e-07 -9.07149e-06)
(7.36052e-07 2.06752e-06 -1.25604e-05)
(1.70763e-06 8.88782e-07 -9.05144e-06)
(9.76755e-07 9.76919e-07 -1.00283e-05)
(-5.24075e-07 -5.13128e-07 -9.17192e-06)
(-7.01407e-07 8.90419e-12 -9.26693e-06)
(-5.24046e-07 5.13154e-07 -9.17188e-06)
(-3.92415e-07 3.8551e-07 -9.05697e-06)
(-1.33692e-06 -1.59649e-06 -7.2193e-06)
(-2.30168e-06 2.28386e-06 -8.75269e-06)
(8.92993e-07 -1.70563e-06 -9.0454e-06)
(2.09637e-06 -7.40156e-07 -1.256e-05)
(7.42571e-07 1.16634e-06 -9.06813e-06)
(1.26935e-06 -2.06076e-07 -8.40173e-06)
(8.67195e-07 -1.34908e-07 -9.98396e-06)
(9.76888e-07 -9.76827e-07 -1.00283e-05)
(1.7075e-06 -8.88847e-07 -9.05182e-06)
(7.35933e-07 -2.06748e-06 -1.25602e-05)
(-1.18304e-06 -7.38221e-07 -9.07161e-06)
(1.59103e-06 1.30752e-06 -7.25213e-06)
(1.93841e-07 -1.27703e-06 -8.39406e-06)
(1.47231e-06 -5.12743e-07 -8.97966e-06)
(-3.57888e-08 -1.9116e-06 -1.27133e-05)
(-1.53291e-06 -4.55816e-07 -8.93223e-06)
(2.33022e-06 1.23008e-06 -7.59614e-06)
(-3.47045e-08 2.9682e-07 -9.16646e-06)
(-4.10854e-07 -2.76319e-07 -5.90747e-06)
(-2.39418e-06 1.33564e-06 -7.57792e-06)
(-3.92145e-08 -2.77257e-07 -8.42038e-06)
(-2.79602e-07 -3.41427e-07 -8.53254e-06)
(1.88515e-08 -1.67141e-08 -4.86042e-06)
(1.48509e-08 -2.76348e-08 -3.27894e-06)
(7.00824e-09 -3.20748e-08 -2.07612e-06)
(3.60444e-09 -2.58809e-08 -1.22547e-06)
(1.86794e-09 -1.76795e-08 -6.74197e-07)
(8.16963e-10 -1.09717e-08 -3.46501e-07)
(2.50414e-10 -6.30819e-09 -1.6909e-07)
(-1.85152e-09 -6.10381e-09 -1.62997e-07)
(5.68002e-08 -3.33638e-08 -1.63604e-07)
(-6.17301e-08 -2.83113e-08 -1.62059e-07)
(6.16411e-08 -2.53385e-08 -1.62292e-07)
(-5.64365e-08 -3.95161e-08 -1.63442e-07)
(7.58555e-08 6.53399e-08 -2.38207e-07)
(-1.16203e-07 -8.73224e-08 -3.46948e-07)
(1.58997e-07 1.31838e-07 -4.87305e-07)
(-2.30009e-07 -1.79894e-07 -6.91471e-07)
(3.09261e-07 2.50693e-07 -9.41201e-07)
(-4.26471e-07 -3.43881e-07 -1.28671e-06)
(5.59873e-07 4.45017e-07 -1.69408e-06)
(-7.38593e-07 -6.11945e-07 -2.23187e-06)
(9.45298e-07 7.34965e-07 -2.83992e-06)
(-1.19258e-06 -1.01628e-06 -3.61034e-06)
(1.48614e-06 1.12824e-06 -4.42475e-06)
(-1.77227e-06 -1.55979e-06 -5.45597e-06)
(-2.22397e-08 1.03989e-08 -4.87372e-06)
(1.49534e-06 -1.48801e-06 -5.26033e-06)
(1.51124e-06 1.76437e-06 -5.43848e-06)
(1.0832e-06 -1.94102e-06 -5.32666e-06)
(-8.02217e-07 1.67893e-06 -4.41897e-06)
(4.26463e-08 -7.53005e-12 -3.35518e-06)
(-8.02061e-07 -1.67892e-06 -4.41902e-06)
(7.05915e-07 1.3172e-06 -3.54998e-06)
(9.78902e-07 -1.18735e-06 -3.6029e-06)
(9.71739e-07 9.6401e-07 -3.50581e-06)
(-7.38583e-07 -7.22754e-07 -2.78945e-06)
(-7.15894e-07 9.55272e-07 -2.84754e-06)
(3.92559e-08 1.1898e-08 -2.06648e-06)
(5.88756e-07 5.82887e-07 -2.17562e-06)
(9.23946e-09 4.46716e-08 -2.06282e-06)
(9.45405e-07 -7.34899e-07 -2.84e-06)
(-2.06932e-08 -5.61585e-08 -2.61353e-06)
(-1.08726e-06 -4.87956e-07 -2.83238e-06)
(1.05611e-06 -5.57416e-07 -2.81865e-06)
(-2.99634e-09 4.61423e-08 -2.1037e-06)
(-8.23765e-07 4.57504e-07 -2.20665e-06)
(7.60417e-07 4.99864e-07 -2.20426e-06)
(-9.92763e-07 -6.23295e-07 -2.83334e-06)
(-1.1054e-09 -6.0933e-08 -2.61363e-06)
(-1.32868e-06 7.57751e-07 -3.56145e-06)
(-6.0855e-09 4.46789e-08 -3.3423e-06)
(1.6573e-06 -8.48872e-07 -4.3884e-06)
(-1.96126e-06 1.14916e-06 -5.35666e-06)
(-1.11251e-08 -2.68642e-08 -4.92952e-06)
(-2.4826e-06 -1.11462e-06 -6.31441e-06)
(-8.81043e-08 -4.54062e-08 -5.81433e-06)
(1.17409e-06 3.70331e-08 -6.34237e-06)
(-6.19939e-08 -1.03006e-06 -1.04536e-05)
(1.93883e-07 1.27699e-06 -8.39409e-06)
(-2.39421e-06 -1.33569e-06 -7.57785e-06)
(-4.10833e-07 2.76288e-07 -5.90744e-06)
(6.86969e-08 8.80917e-08 -8.54112e-06)
(-3.77001e-08 -2.09388e-08 -6.13638e-06)
(-2.35679e-08 -1.12822e-11 -5.1028e-06)
(-2.02475e-08 2.60485e-09 -4.79569e-06)
(-1.17981e-08 -1.29006e-08 -3.2449e-06)
(-5.68242e-09 -2.14735e-08 -2.05434e-06)
(-2.57968e-09 -1.90369e-08 -1.21219e-06)
(-1.1639e-09 -1.35371e-08 -6.66539e-07)
(-5.4437e-10 -8.56891e-09 -3.4248e-07)
(-2.56158e-10 -4.86779e-09 -1.67352e-07)
(1.2087e-10 8.37834e-10 -1.03453e-07)
(-4.88999e-11 -1.65939e-09 -7.78889e-08)
(-2.26644e-09 1.85277e-09 -5.57831e-08)
(1.41192e-10 2.5519e-09 -1.02537e-07)
(1.29343e-10 6.15266e-11 -5.41523e-08)
(1.63041e-08 -1.14943e-08 -6.4624e-08)
(1.54325e-09 1.45123e-08 -7.54137e-08)
(-6.04757e-10 -8.03271e-09 -1.15136e-07)
(-2.50016e-08 1.00359e-08 -1.00914e-07)
(2.28012e-08 6.4427e-09 -1.00771e-07)
(-2.33095e-08 5.66729e-09 -1.00464e-07)
(2.37689e-08 1.17584e-08 -1.0166e-07)
(-1.12655e-08 8.71337e-09 -9.28757e-08)
(3.83396e-08 -2.5536e-09 -6.4988e-08)
(-1.39399e-08 -2.72004e-08 -1.0902e-07)
(3.77548e-08 5.53579e-08 -1.65086e-07)
(4.89504e-09 -8.09275e-10 -1.63213e-07)
(-6.2855e-08 -7.77435e-08 -2.44037e-07)
(-6.27655e-08 6.18987e-08 -2.27928e-07)
(4.52459e-08 -4.15613e-08 -1.58968e-07)
(2.25714e-09 -6.10232e-09 -1.60508e-07)
(1.44842e-09 -5.69135e-09 -1.73356e-07)
(-3.19006e-09 8.73807e-09 -9.63398e-08)
(2.11405e-11 8.77025e-09 -9.68265e-08)
(3.52532e-09 8.72747e-09 -9.59663e-08)
(7.60893e-09 5.67075e-09 -8.90918e-08)
(1.06795e-08 7.04898e-09 -9.51952e-08)
(-3.59994e-09 -1.90024e-09 -1.79454e-07)
(-1.12917e-09 1.34498e-09 -1.73815e-07)
(6.12277e-09 5.08559e-09 -1.20758e-07)
(-1.4618e-09 -5.64856e-09 -1.73735e-07)
(-5.89243e-09 -1.93669e-08 -3.60897e-07)
(-7.78479e-09 -5.81545e-09 -3.63967e-07)
(-9.40301e-09 -6.69806e-09 -3.66178e-07)
(-1.82752e-08 -1.41383e-08 -7.1192e-07)
(-1.79288e-08 -1.65109e-08 -7.18679e-07)
(4.86264e-09 4.89729e-09 -5.21765e-07)
(3.97749e-09 4.3116e-09 -2.56017e-07)
(2.32285e-09 6.31967e-09 -2.47369e-07)
(-7.9765e-08 5.68165e-08 -2.36088e-07)
(8.5645e-08 4.99815e-08 -2.37272e-07)
(-1.28468e-07 -6.36878e-08 -3.43388e-07)
(1.28471e-07 -5.53516e-08 -3.42977e-07)
(-1.79696e-09 7.9396e-09 -2.34278e-07)
(-8.77331e-08 4.52844e-08 -2.36612e-07)
(-2.61252e-10 -6.79983e-09 -1.64692e-07)
(-4.88843e-11 -4.62654e-09 -1.74044e-07)
(9.86606e-11 -1.86202e-08 -3.60626e-07)
(3.73064e-10 -4.08841e-08 -7.1363e-07)
(-1.14119e-08 -4.11445e-08 -7.13144e-07)
(-1.9879e-08 -7.6657e-08 -1.30964e-06)
(-3.5337e-08 -3.44918e-08 -1.32044e-06)
(-3.28574e-08 -2.62318e-08 -1.29463e-06)
(-5.49051e-08 -4.45143e-08 -2.19661e-06)
(-6.5015e-08 -6.6802e-08 -2.25913e-06)
(2.98833e-09 2.05977e-09 -1.75104e-06)
(5.27937e-09 4.76519e-09 -9.90755e-07)
(6.28736e-09 1.20918e-08 -9.62352e-07)
(-3.25885e-07 2.11175e-07 -9.36787e-07)
(3.47269e-07 1.91837e-07 -9.3524e-07)
(-4.75066e-07 -2.56528e-07 -1.27357e-06)
(4.76032e-07 -2.2148e-07 -1.26857e-06)
(-6.33865e-09 2.42864e-08 -8.98939e-07)
(-3.56211e-07 1.6766e-07 -9.36108e-07)
(2.55937e-07 -1.1498e-07 -6.82644e-07)
(-3.51666e-09 1.44663e-08 -4.74269e-07)
(-1.83521e-07 8.93676e-08 -4.84224e-07)
(-4.58915e-10 -1.2427e-08 -3.4148e-07)
(1.79031e-07 1.01206e-07 -4.84544e-07)
(-2.55561e-07 -1.33255e-07 -6.8461e-07)
(8.26261e-10 1.53012e-08 -4.75123e-07)
(-1.67609e-07 1.11964e-07 -4.84342e-07)
(1.19064e-07 -7.26252e-08 -3.45634e-07)
(6.41657e-10 8.44388e-09 -2.34676e-07)
(2.14385e-10 1.5227e-09 -2.64818e-07)
(-3.95158e-09 -4.17121e-09 -2.54584e-07)
(-7.45278e-08 -5.91303e-08 -2.6477e-07)
(2.47126e-09 7.43087e-10 -1.3581e-07)
(4.74863e-08 4.3484e-08 -1.85635e-07)
(1.9799e-09 -4.93025e-09 -9.81665e-08)
(-4.34563e-08 -2.8886e-08 -1.21629e-07)
(-1.85477e-08 -6.05358e-09 -6.291e-08)
(1.03339e-08 -3.02019e-09 -9.99746e-08)
(-2.8195e-09 -1.3992e-09 -1.20895e-07)
(3.52385e-13 1.55784e-09 -1.24741e-07)
(-2.06286e-10 5.43722e-09 -1.15448e-07)
(1.22019e-09 6.62552e-09 -1.18756e-07)
(-1.80913e-09 6.34846e-09 -1.18692e-07)
(4.21482e-10 -8.29797e-09 -1.14865e-07)
(-6.10813e-09 5.11491e-09 -1.23693e-07)
(-6.03484e-09 5.71395e-09 -8.9227e-08)
(-2.23104e-09 3.30856e-09 -9.48511e-08)
(8.57041e-09 -1.41233e-09 -1.78541e-07)
(-9.74292e-10 1.49233e-10 -1.70692e-07)
(-4.87289e-09 4.50953e-09 -2.59732e-07)
(-3.33381e-09 5.86658e-09 -2.4701e-07)
(6.62225e-09 -1.94674e-08 -3.59535e-07)
(1.35652e-08 -4.1642e-08 -7.1103e-07)
(2.44776e-08 -7.82623e-08 -1.30804e-06)
(7.20647e-10 -7.77181e-08 -1.31293e-06)
(9.92811e-10 -1.3953e-07 -2.24586e-06)
(-3.28584e-08 -1.3456e-07 -2.23665e-06)
(-5.56744e-08 -2.35306e-07 -3.56362e-06)
(-1.19592e-07 -1.3412e-07 -3.61083e-06)
(-8.66518e-08 -7.18813e-08 -3.47885e-06)
(-1.6264e-07 -1.44504e-07 -5.13049e-06)
(-2.73628e-07 -3.20385e-07 -5.43643e-06)
(-4.3701e-08 -3.57846e-08 -4.43756e-06)
(-7.30115e-09 -7.85194e-09 -2.88596e-06)
(1.01508e-08 1.37161e-08 -2.8253e-06)
(-9.92736e-07 6.23295e-07 -2.83326e-06)
(1.05605e-06 5.57476e-07 -2.81858e-06)
(-1.32871e-06 -7.57715e-07 -3.56143e-06)
(1.32641e-06 -6.63997e-07 -3.53461e-06)
(-2.07371e-08 5.61617e-08 -2.61354e-06)
(-1.08719e-06 4.87974e-07 -2.83234e-06)
(8.24755e-07 -3.96709e-07 -2.19519e-06)
(-1.12548e-08 3.79342e-08 -1.5881e-06)
(-6.43919e-07 2.95581e-07 -1.68656e-06)
(-1.50199e-09 -3.31991e-08 -1.23257e-06)
(6.26951e-07 3.39117e-07 -1.68236e-06)
(-8.23769e-07 -4.57472e-07 -2.20663e-06)
(4.07296e-10 4.07373e-08 -1.58925e-06)
(-5.89199e-07 3.74781e-07 -1.68757e-06)
(4.39702e-07 -2.81628e-07 -1.27496e-06)
(8.52246e-10 2.58249e-08 -9.0018e-07)
(4.17491e-10 4.5539e-09 -1.00216e-06)
(3.62078e-10 2.72462e-09 -5.32216e-07)
(-6.79988e-09 -7.69928e-09 -5.10026e-07)
(-1.47455e-07 -1.22934e-07 -5.41269e-07)
(1.35466e-09 7.21796e-10 -2.82849e-07)
(1.00857e-07 8.89937e-08 -3.78699e-07)
(1.79709e-09 -3.84588e-09 -1.99036e-07)
(7.71459e-09 -2.08607e-09 -2.03258e-07)
(-1.18553e-07 -8.85758e-08 -3.71274e-07)
(1.55437e-07 1.3427e-07 -5.27008e-07)
(-2.31051e-07 -1.77588e-07 -7.32516e-07)
(-2.31051e-07 1.77594e-07 -7.32506e-07)
(-4.50508e-10 4.63512e-09 -5.53748e-07)
(3.02939e-07 -2.55859e-07 -1.0061e-06)
(5.3284e-09 4.89683e-09 -7.7212e-07)
(-4.26495e-07 3.32385e-07 -1.35621e-06)
(-5.80333e-10 3.09169e-09 -1.00924e-06)
(5.46987e-07 -4.55925e-07 -1.79873e-06)
(1.70036e-09 7.51829e-09 -1.36033e-06)
(-7.32966e-07 5.78728e-07 -2.34349e-06)
(-4.12535e-11 -4.70411e-09 -1.71656e-06)
(9.20283e-07 -7.55762e-07 -2.99872e-06)
(-1.44231e-08 8.73131e-09 -2.23237e-06)
(-1.15735e-06 9.37639e-07 -3.77736e-06)
(7.35512e-09 -3.62766e-08 -2.72336e-06)
(1.45546e-06 -1.15995e-06 -4.65042e-06)
(-8.24497e-08 -8.29038e-10 -3.4098e-06)
(-1.63799e-06 1.41486e-06 -5.6959e-06)
(5.30076e-08 -1.65015e-07 -4.0276e-06)
(2.23005e-06 -1.60385e-06 -6.59633e-06)
(-3.76421e-07 -1.35092e-07 -4.89305e-06)
(-1.84772e-06 1.89697e-06 -8.16313e-06)
(-2.50169e-07 -3.69138e-11 -6.70218e-06)
(-1.84767e-06 -1.89698e-06 -8.16313e-06)
(4.83877e-07 9.45091e-07 -5.51997e-06)
(2.92924e-06 1.98806e-06 -7.87786e-06)
(-1.02555e-07 3.06597e-07 -5.01647e-06)
(-1.81762e-06 -1.70988e-06 -7.11729e-06)
(-7.23718e-08 -1.86078e-08 -4.033e-06)
(1.68543e-06 1.33781e-06 -5.86023e-06)
(-3.21453e-08 1.00867e-07 -3.37928e-06)
(-1.30372e-06 -1.15831e-06 -4.82997e-06)
(-3.5121e-08 -4.36877e-09 -2.74176e-06)
(1.06996e-06 8.95498e-07 -3.9104e-06)
(-1.52984e-08 3.2879e-08 -2.2034e-06)
(-8.45103e-07 -7.34108e-07 -3.10355e-06)
(-1.49392e-08 -1.6682e-09 -1.72785e-06)
(6.55252e-07 5.57741e-07 -2.41995e-06)
(-4.59236e-09 9.17943e-09 -1.33925e-06)
(-5.06711e-07 -4.34891e-07 -1.85946e-06)
(-5.61229e-09 -2.79617e-10 -1.01429e-06)
(3.76561e-07 3.23385e-07 -1.39619e-06)
(5.81239e-12 8.46923e-10 -7.58944e-07)
(-2.82396e-07 -2.39796e-07 -1.03836e-06)
(-1.00465e-09 4.38819e-10 -5.54627e-07)
(2.0178e-07 1.74988e-07 -7.51243e-07)
(1.62423e-09 -2.39315e-09 -4.01164e-07)
(6.52438e-09 -3.01443e-09 -4.08736e-07)
(-1.21574e-08 -1.24615e-08 -5.29841e-07)
(-7.93995e-09 -6.54933e-09 -2.69696e-07)
(-4.70873e-09 -2.26057e-09 -1.36783e-07)
(1.03478e-08 5.06591e-09 -8.49753e-08)
(4.6207e-10 -3.25327e-12 -7.74353e-08)
(-8.49729e-09 -3.72602e-13 -1.03312e-07)
(-1.72016e-08 -1.127e-11 -1.89821e-07)
(-2.91139e-08 1.06481e-12 -3.71912e-07)
(-4.78378e-08 1.24045e-11 -7.10674e-07)
(-7.50557e-08 2.95353e-11 -1.28269e-06)
(-1.04346e-07 6.90448e-11 -2.16506e-06)
(-1.07e-07 2.79955e-10 -3.40683e-06)
(-2.51833e-08 8.34651e-11 -4.97839e-06)
(1.15677e-07 -3.31915e-11 -6.53755e-06)
(-1.69929e-07 -1.13937e-10 -7.74638e-06)
(-1.29617e-06 6.10221e-07 -7.56933e-06)
(-1.29618e-06 -6.1031e-07 -7.56932e-06)
(-1.33284e-06 -8.47655e-07 -6.93526e-06)
(-1.10773e-06 -8.32091e-07 -8.20584e-06)
(-3.70452e-07 -2.17387e-07 -6.31141e-06)
(-1.47905e-07 -4.53797e-07 -5.33961e-06)
(-6.05339e-07 -1.40307e-06 -7.90113e-06)
(9.44514e-07 3.96055e-06 -5.56866e-06)
(1.46937e-06 -3.07744e-07 -6.46823e-06)
(3.21442e-08 5.84978e-08 -5.81361e-06)
(1.17524e-08 -7.04766e-09 -5.95104e-06)
(8.06662e-08 -3.51097e-08 -5.7871e-06)
(-3.76367e-07 1.35093e-07 -4.89303e-06)
(2.22991e-06 1.60394e-06 -6.59624e-06)
(5.30613e-08 1.64913e-07 -4.02754e-06)
(-1.63798e-06 -1.41481e-06 -5.69589e-06)
(-1.60658e-07 -1.43023e-11 -4.72102e-06)
(-7.25888e-08 -1.39824e-11 -4.87542e-06)
(-6.51389e-08 -1.53555e-11 -3.28882e-06)
(7.43048e-09 3.62543e-08 -2.7233e-06)
(-1.15734e-06 -9.3763e-07 -3.77737e-06)
(1.45541e-06 1.15996e-06 -4.6503e-06)
(-8.24498e-08 8.2052e-10 -3.40985e-06)
(-8.29073e-09 -2.79385e-08 -4.18957e-06)
(-1.90106e-08 -2.52339e-08 -2.74948e-06)
(-1.44502e-08 -8.75525e-09 -2.23236e-06)
(9.20156e-07 7.55775e-07 -2.99865e-06)
(-4.87455e-12 4.68136e-09 -1.71654e-06)
(-7.32911e-07 -5.78738e-07 -2.34353e-06)
(-2.69071e-08 8.67884e-12 -2.00382e-06)
(-4.99273e-08 -1.04189e-12 -2.08217e-06)
(-3.42469e-08 -4.07349e-12 -1.23014e-06)
(-2.10002e-08 -4.96721e-12 -6.782e-07)
(-4.35517e-10 -4.65627e-09 -5.53738e-07)
(3.02931e-07 2.55863e-07 -1.00606e-06)
(-4.26492e-07 -3.32381e-07 -1.35624e-06)
(5.46964e-07 4.55952e-07 -1.79868e-06)
(1.70423e-09 -7.50682e-09 -1.36029e-06)
(-1.62577e-08 -1.9231e-08 -1.68148e-06)
(-1.1127e-08 -1.28387e-08 -9.58649e-07)
(1.29193e-09 -4.4408e-12 -7.11325e-07)
(7.38369e-10 -2.23628e-12 -3.66078e-07)
(3.37311e-10 1.49843e-13 -1.80185e-07)
(-5.20935e-09 -4.79355e-13 -1.73098e-07)
(-1.31717e-09 -6.05532e-09 -1.39895e-07)
(7.35784e-08 6.6901e-08 -2.6338e-07)
(3.63203e-09 -8.79898e-13 -1.66848e-07)
(7.35845e-08 -6.69034e-08 -2.63381e-07)
(7.70856e-09 2.08749e-09 -2.03258e-07)
(-1.18548e-07 8.85796e-08 -3.71274e-07)
(-6.14386e-10 4.9978e-09 -2.84729e-07)
(1.55456e-07 -1.34276e-07 -5.27031e-07)
(6.53103e-09 3.01149e-09 -4.08741e-07)
(-6.79992e-09 7.69477e-09 -5.10029e-07)
(-1.13529e-08 8.87923e-13 -3.50224e-07)
(-6.1167e-10 -5.00908e-09 -2.84719e-07)
(5.33e-10 1.90269e-12 -3.34479e-07)
(-3.95058e-09 4.16979e-09 -2.54584e-07)
(-2.81878e-09 1.39892e-09 -1.20897e-07)
(-4.34584e-08 2.88875e-08 -1.2163e-07)
(1.97998e-09 4.92653e-09 -9.8169e-08)
(4.74855e-08 -4.34839e-08 -1.8564e-07)
(1.03326e-08 3.02042e-09 -9.99781e-08)
(3.08436e-08 -3.25183e-08 -1.36741e-07)
(-5.5668e-09 1.09539e-08 -7.01916e-08)
(-3.85443e-08 2.18045e-08 -7.90579e-08)
(4.01067e-09 1.02137e-12 -9.11646e-08)
(1.29791e-08 -1.48845e-08 -6.67209e-08)
(1.83159e-08 4.80755e-09 -5.38719e-08)
(8.51684e-09 -1.88643e-08 -6.35772e-08)
(2.2532e-08 -5.13338e-09 -6.68625e-08)
(9.15383e-09 -7.26225e-09 -9.20758e-08)
(3.51415e-09 -6.10676e-10 -6.89564e-08)
(-6.63461e-09 -3.95515e-09 -6.28208e-08)
(3.95155e-09 -2.23777e-09 -7.36964e-08)
(-1.59374e-09 1.56494e-09 -6.53634e-08)
(-1.66677e-09 4.57635e-09 -6.52643e-08)
(7.1028e-09 -6.19276e-09 -6.9288e-08)
(-1.57868e-09 2.09566e-09 -6.02513e-08)
(1.07611e-09 -6.41327e-09 -7.14997e-08)
(1.13836e-11 4.5836e-09 -6.60561e-08)
(1.53614e-11 1.48253e-13 -6.77708e-08)
(1.12302e-11 -4.58401e-09 -6.60561e-08)
(-1.93396e-11 -2.32573e-09 -6.03651e-08)
(4.07084e-11 1.25739e-08 -9.47792e-08)
(1.07651e-09 6.41304e-09 -7.1501e-08)
(-1.20456e-10 9.86978e-10 -7.34493e-08)
(3.95178e-09 2.23874e-09 -7.36972e-08)
(-1.48652e-09 -1.92169e-09 -5.94781e-08)
(-6.63562e-09 3.95649e-09 -6.28212e-08)
(3.51374e-09 6.10356e-10 -6.89553e-08)
(-5.56287e-11 1.01075e-09 -7.36446e-08)
(2.03586e-09 -4.37987e-09 -6.51688e-08)
(1.74616e-09 -1.94616e-09 -6.03864e-08)
(-1.21007e-09 6.41215e-09 -7.18205e-08)
(-7.07294e-09 6.02679e-09 -6.96481e-08)
(2.01668e-09 -1.28141e-09 -6.56392e-08)
(-3.95967e-09 1.65537e-09 -7.19966e-08)
(7.24731e-09 9.48931e-09 -5.74956e-08)
(2.2147e-08 -1.25116e-08 -7.59079e-08)
(-1.40782e-08 1.33869e-08 -7.62502e-08)
(4.07591e-09 -8.71152e-10 -1.08703e-07)
(1.84908e-09 2.12022e-13 -6.63441e-08)
(1.07014e-09 1.19303e-12 -8.03827e-08)
(1.3166e-09 5.88065e-13 -1.05706e-07)
(-3.16945e-11 -2.00528e-13 -1.07297e-07)
(-1.27084e-10 5.30559e-13 -8.19142e-08)
(-3.10335e-10 -8.3746e-13 -1.8019e-07)
(-6.51884e-10 -4.2605e-13 -3.65893e-07)
(-1.33204e-09 7.38498e-13 -7.11131e-07)
(-2.86594e-09 -3.29735e-12 -1.29215e-06)
(2.08835e-09 -2.25947e-12 -1.29241e-06)
(3.75073e-09 8.6987e-12 -2.1891e-06)
(8.87115e-09 8.2032e-12 -3.45615e-06)
(2.2131e-08 -9.23597e-12 -5.11159e-06)
(-1.34972e-07 -1.46268e-11 -8.16586e-06)
(-4.0859e-07 4.26173e-13 -7.5508e-06)
(1.57753e-06 -5.27925e-11 -1.16854e-05)
(-2.82457e-07 -1.12205e-06 -6.88994e-06)