/*--------------------------------*- C++ -*----------------------------------*\
| =========                 |                                                 |
| \\      /  F ield         | OpenFOAM: The Open Source CFD Toolbox           |
|  \\    /   O peration     | Version:  2306                                  |
|   \\  /    A nd           | Website:  www.openfoam.com                      |
|    \\/     M anipulation  |                                                 |
\*---------------------------------------------------------------------------*/
FoamFile
{
    version     2.0;
    format      ascii;
    arch        "LSB;label=32;scalar=64";
    class       volScalarField;
    location    "1.2";
    object      gradTy;
}
// * * * * * * * * * * * * * * * * * * * * * * * * * * * * * * * * * * * * * //

dimensions      [0 -1 0 1 0 0 0];

internalField   nonuniform List<scalar> 
2658
(
0.00826039
0.00482229
0.00148771
-0.000110389
-0.0153413
0.0187523
-0.0150791
0.0127185
-8.9415e-05
-0.0133267
0.00401829
-0.0330334
0.0206079
0.0209366
0.0170537
0.0174649
0.0190577
0.0172039
0.0174515
0.0206761
0.0199686
0.017524
0.00585185
-0.00374073
0.0062579
0.0190337
-0.00407916
0.00117944
0.015524
-7.92238e-07
-0.0155242
0.00407924
-0.0190347
-0.00585175
-0.00625769
0.0037412
-0.000808614
0.0016496
-0.0175293
-0.0199698
-0.0206776
-0.0174522
-0.0172026
0.00845266
-0.000950022
-0.000316487
-0.00401855
0.00880378
-0.0174681
-0.0170539
-0.0209351
-0.020608
-0.0184067
0.00375341
-0.00687823
-0.00629013
0.000460313
-0.0101827
-1.35313e-07
-8.15972e-05
-0.000460105
0.00628981
0.00687869
-0.00375389
0.00388051
-0.00958363
-0.0130216
-0.000641479
-0.0207786
0.0207787
1.82978e-07
0.0165895
-0.000224676
0.0128282
1.38572e-05
-0.00975756
-0.00964253
0.000409972
0.00868609
0.00567611
-0.00647395
-0.000696938
0.00883224
0.0133313
-0.000236735
-0.000115691
3.90605e-05
7.48326e-05
6.4645e-05
4.58318e-05
2.80124e-05
-3.67698e-05
1.81993e-05
0.000101443
-3.9893e-05
-0.000122676
-1.42692e-05
-0.000107475
-1.60414e-05
-3.7455e-05
-0.000116861
-2.8726e-05
-0.000118005
-5.36044e-05
-4.65152e-05
0.000108759
-3.82135e-05
-5.55535e-06
1.6422e-05
-0.000110327
3.66797e-05
-4.88224e-05
-8.26375e-10
4.88246e-05
-3.66888e-05
0.000110326
4.65156e-05
-0.000108771
0.000117996
5.35968e-05
2.86992e-05
0.000116859
3.74519e-05
1.60354e-05
-8.63895e-05
-8.32909e-05
-0.000101454
0.000122693
1.42821e-05
3.99026e-05
0.000115194
2.66473e-05
5.4295e-05
5.23476e-05
0.000103845
-4.92699e-05
6.30169e-06
8.73325e-06
-0.00011977
0.000119805
-6.30729e-06
4.92792e-05
-2.76298e-05
-2.85048e-05
-2.63378e-07
2.84172e-05
5.55249e-08
6.94065e-08
-5.79285e-05
5.70841e-05
1.46511e-07
4.74608e-06
3.20888e-05
-3.67365e-05
0.000142201
3.18322e-05
0.000134181
0.00016004
0.000170977
0.000132536
0.000133531
0.000157034
0.00013382
0.000134043
0.000174163
0.000161318
0.000139484
4.38689e-05
-2.01435e-06
4.9721e-05
-0.000307036
0.000489903
-0.000661747
0.000980251
-0.00135988
0.0018626
-0.0025885
0.00330985
-0.00457392
0.00547689
-0.00754589
0.00844338
-0.011739
0.0121352
0.0119356
0.0100208
0.00952679
0.0133273
0.0153408
0.00011021
-0.0187528
0.0130217
0.00958282
-0.00388066
0.033033
-0.00414647
0.000236479
0.000115524
-3.91112e-05
-7.49313e-05
-6.47259e-05
-4.58222e-05
-2.80111e-05
3.67728e-05
-1.81911e-05
-8.48793e-07
-4.84448e-05
2.26066e-05
-6.15295e-05
6.15254e-05
4.84524e-05
8.42055e-07
-2.26183e-05
-1.69426e-05
8.32966e-05
8.63846e-05
-0.000124038
9.82285e-05
2.23652e-05
-5.24405e-07
-1.58453e-05
1.41818e-05
-7.16281e-06
-4.4889e-06
-3.11515e-10
4.48196e-06
-2.23945e-05
3.82081e-05
-7.8354e-05
5.5684e-06
-8.50013e-05
8.50223e-05
7.83638e-05
4.21955e-09
-5.44307e-05
-6.04104e-05
6.0425e-05
-2.1822e-05
5.44466e-05
-8.42817e-06
2.53822e-09
-3.91195e-05
-1.7908e-05
5.29156e-05
-1.33786e-05
6.45611e-09
4.83831e-09
-1.80112e-09
-9.36096e-05
6.20731e-05
0.000161232
-4.107e-05
0.000127224
-0.000186363
0.000277936
-0.000355995
0.000355974
5.17315e-05
0.000505466
3.28653e-05
-0.000760642
0.00105085
2.04864e-05
-0.00149555
0.00204969
-7.44529e-06
-0.00276383
0.00371718
-7.90288e-05
-0.00476646
0.00627512
-0.000281585
-0.00765292
0.0099006
-0.000862746
-0.0114347
0.014615
-0.00262161
-0.0169911
-0.00807906
-0.0182533
0.0182535
-0.00117886
-0.00522661
0.00958965
0.00854823
-1.1503e-07
-0.00601053
0.00601053
0.00631158
-7.79991e-08
-0.00758663
0.00758659
0.00310005
-6.92171e-08
-0.0199914
0.0199911
-0.0127561
1.13449e-07
0.0127556
-0.00996904
0.0063252
0.0145767
0.0102594
0.0128488
-0.0195206
0.0136451
0.00176088
0.00115294
0.000134484
-0.00310019
-0.00113292
-0.00329496
-0.0111755
0.00630924
0.0176711
0.00759642
0.00834974
-0.00438571
7.61042e-08
0.00438593
0.00329496
-0.0136452
0.0195202
-0.0145781
-0.00632612
0.00996868
-0.00176134
-0.00115306
-0.00834895
-0.00759698
-0.0176708
-0.00630958
0.0111754
-0.0109148
-0.00438242
-0.0163385
-0.00389586
0.0105135
0.00253692
-0.0023617
0.0114157
-0.00236972
-0.00291818
-0.000142856
-0.000236195
-0.000274144
-0.000221204
-0.000151107
-9.37752e-05
-5.39161e-05
-5.21693e-05
-0.00028516
-0.000241977
-0.000216568
-0.000337744
0.00055846
-0.000746345
0.00112682
-0.00153756
0.00214268
-0.00293915
0.00380356
-0.0052303
0.00628175
-0.00868614
0.00964308
-0.0133316
8.88796e-05
-0.012718
0.0150801
-0.0165899
0.0143498
-6.43594e-08
-0.0143497
0.0112581
-0.0101483
0.0082394
-0.00617739
0.00816472
0.000101693
0.00498194
0.000381809
-0.00628119
-0.000479987
-0.00417057
-0.00476424
0.000394379
0.00391029
0.00427234
-0.00532731
-0.000520795
0.0064765
0.000381871
-0.00725531
0.00982191
-0.000229609
-0.00952669
-0.000388087
0.000316522
-0.00880396
0.0109144
-0.0114162
0.00236144
0.00075292
-0.000178964
-9.6429e-08
2.22636e-05
-0.000110262
-0.000183534
-0.000162708
-0.000115701
-7.32385e-05
-4.1605e-05
7.16097e-06
-1.41828e-05
1.58357e-05
2.18111e-05
5.25868e-07
-9.82419e-05
0.000124037
-6.86556e-05
8.57767e-05
5.50658e-05
4.84384e-05
0.0001005
7.44733e-05
-2.18257e-05
-0.000232482
0.000473144
-6.91688e-06
-0.000664474
0.000529049
-0.000355224
-5.21566e-05
-4.8644e-05
7.46844e-05
7.49594e-05
7.45937e-05
4.84679e-05
6.02477e-05
-1.62414e-05
1.14955e-05
4.34665e-05
-4.82783e-05
-0.000165529
-4.97047e-05
-5.72483e-05
-0.00012084
-0.000141119
4.18572e-05
3.68513e-05
5.40143e-05
0.000485611
0.000427192
-0.00054434
-0.000473091
6.78598e-05
0.000387046
-5.81182e-05
-3.95431e-05
-0.000159147
-0.000349436
-0.000351663
-0.000655188
-0.000294802
-0.000224203
-0.000380464
-0.000570957
1.76049e-05
4.07281e-05
0.000103348
0.00180492
0.00163963
-0.00219255
-0.00189299
0.000207576
0.00143299
-0.000982736
0.000123644
0.000763826
-0.000106213
0.000865008
-0.00113893
0.000130779
0.000956957
-0.000620728
7.21699e-05
1.30145e-05
-3.56514e-05
-0.000505387
6.35117e-06
0.000371658
-4.21389e-05
-0.000246889
-5.174e-05
-2.58136e-05
-1.1959e-05
1.33148e-05
4.64719e-05
5.66283e-05
5.42603e-05
-7.09228e-05
4.37172e-05
4.88372e-05
2.82783e-05
-1.20712e-05
1.27549e-06
3.8543e-05
5.01417e-05
-0.000166388
-0.000355914
-0.000668909
-0.000664257
-0.00119257
-0.00115009
-0.00201116
-0.00114633
-0.00061437
-0.00123508
-0.00273833
-0.000305851
-6.71106e-05
0.000117232
0.00532731
0.00476476
-0.0064762
-0.00567519
0.000480014
0.00417072
-0.00339068
0.000324224
0.00252633
-0.000283753
0.00289843
-0.00391002
0.000348182
0.00320325
-0.00240708
0.000220726
3.89222e-05
2.32873e-05
-6.58058e-05
-0.00105072
6.1692e-06
0.00076063
-3.28708e-05
-1.78297e-05
-0.000757058
0.00114761
-0.00151785
0.00151789
3.96164e-05
-0.00218683
4.18533e-05
0.0028409
2.64247e-05
-0.0038968
6.42589e-05
0.00494639
-4.02061e-05
-0.00645951
7.46265e-05
0.008014
-0.000310056
-0.00991406
-7.0858e-06
0.0120928
-0.00141038
-0.0137081
-0.00115463
0.0162134
-3.15502e-07
-0.0162135
0.00807771
0.016992
0.00262048
-0.0146144
-0.000159041
0.0114343
0.000862108
-0.0099001
-3.73399e-05
0.00765383
0.000281017
-0.00627442
-1.42581e-05
0.00476702
7.84567e-05
-0.00371702
-2.38989e-06
0.00276398
7.23866e-06
-0.00204954
3.75059e-06
0.00149563
-2.04543e-05
-2.57644e-05
-0.000106509
-5.59772e-05
-1.93211e-05
4.32984e-05
-2.78057e-08
-3.18463e-09
-9.63251e-08
9.10094e-09
1.06022e-07
2.52439e-07
5.90126e-07
2.39278e-06
7.13377e-07
-2.83688e-07
-9.73817e-07
0.00521557
-0.00521632
-0.00724492
-0.00711189
-0.00185801
-0.00387861
-0.0119921
0.0338508
-0.00263029
0.000499981
-6.02364e-05
-0.000300083
0.00115464
0.0137089
0.00140951
-0.0120924
-1.22242e-07
-1.19508e-07
-1.31244e-07
0.000309865
-0.00801393
0.00991415
7.01299e-06
-0.00023879
-0.000215675
-7.48312e-05
0.00645961
4.00116e-05
-0.00494648
7.41781e-08
-8.90506e-09
-3.48162e-08
-4.24548e-08
-3.97972e-05
0.00218686
-0.00284086
0.00389702
-6.41609e-05
-0.000164368
-0.000109732
-3.79556e-08
-1.91135e-08
1.28071e-09
-4.09705e-09
-5.17549e-05
0.000571804
-7.5205e-09
-0.000571824
1.78418e-05
0.000757091
4.27162e-05
-0.00114766
2.57393e-05
6.57673e-05
7.58909e-09
-4.28126e-05
1.62623e-08
3.56392e-05
1.19566e-05
0.000246901
4.21071e-05
-0.000371657
2.58155e-05
-0.000277934
9.36228e-05
0.000186363
8.72966e-09
-0.000127218
4.10902e-05
-0.000161233
-4.3875e-05
-6.20706e-05
-5.21946e-06
-3.38047e-05
-1.91262e-05
1.33756e-05
3.91141e-05
-5.29295e-05
1.79116e-05
-5.48143e-05
3.9176e-05
1.26712e-09
-3.91795e-05
-1.98781e-05
0.000107469
5.48123e-05
8.43571e-06
1.91345e-05
-1.64247e-05
3.38162e-05
5.21671e-06
8.63893e-06
-3.74348e-05
-1.66338e-05
5.48047e-05
5.1511e-05
-1.09522e-05
1.41484e-05
8.11052e-05
-0.000106936
0.000114418
-7.44574e-06
1.81216e-09
1.01968e-08
5.02619e-09
-1.71392e-09
4.5347e-09
-7.15778e-09
-3.64145e-09
6.31195e-09
-2.81825e-08
-1.93117e-08
7.43479e-08
7.01129e-08
-7.89399e-08
-1.25015e-07
3.6425e-09
-4.51218e-07
-0.00959016
0.00522685
-0.004504
0.0074708
-0.00747103
0.00450374
-0.0148373
0.00154005
-0.00594691
0.0134955
0.00342498
-0.000294828
0.0125933
-0.0108848
-0.00679372
-0.0175037
-0.00577372
-0.00858294
-0.0120736
-0.0070532
0.000748207
0.00621948
0.00192377
-1.67094e-06
2.57115e-07
-0.00192296
0.0148369
0.00594673
-0.00154044
0.00451964
-0.00342521
-0.0125938
0.000294481
0.00143518
-0.00253712
-0.0105137
0.003895
0.0163375
0.00438228
0.00738479
-0.00607893
-0.00622095
8.83099e-07
-0.00218957
-0.00451979
0.000406825
-0.000399116
-0.00717137
0.0060788
0.00127757
-0.00738486
-0.0001086
-0.000134694
0.00113265
-0.000752957
0.000178805
0.000387998
-0.00162506
-0.00417008
-0.00213311
4.50121e-05
0.00832668
0.00725654
-0.00982205
-0.00883136
0.000697083
0.00647395
-0.000381971
-2.76626e-05
-0.00212908
-0.00119433
7.79291e-05
0.000104
8.97565e-05
6.87003e-05
7.64523e-05
-0.00126563
-0.00015684
3.97539e-05
0.00107743
-3.50382e-05
-0.00137906
0.00195033
-6.34328e-05
-0.00267358
0.00206234
-0.00148276
-0.000162637
-0.00281421
-9.3519e-05
-0.00483641
0.0036906
-0.000262614
-0.00498162
-0.000101821
-0.0081646
0.00617696
-0.000381977
-0.00823918
-1.33529e-05
-0.0128288
0.00975677
-0.000410706
-0.000688801
-0.00408641
-0.0122852
-0.0122756
-0.019063
-0.00158276
0.0309253
-0.00274083
-0.00295165
-0.00148763
-0.00066667
-0.000379956
-0.000218172
-0.000118881
-5.58684e-05
-5.33731e-05
4.01607e-05
1.69071e-05
0.00153917
5.57957e-08
-0.00153928
0.00216249
2.38772e-08
-0.00298504
0.00298498
-0.00216248
-2.17823e-08
-1.58066e-08
1.97532e-09
1.45081e-05
4.38372e-05
-2.05572e-06
0.0002128
6.90664e-08
-0.000212841
0.000505572
3.98286e-08
-0.000738029
0.000737954
-0.000505516
1.27612e-05
5.33118e-05
-5.65275e-05
5.654e-05
-2.86085e-05
-1.32897e-05
-5.33344e-05
0.000232507
2.18657e-05
-7.45081e-05
0.000355338
6.94256e-06
-0.000529144
0.000664494
-0.000473104
2.02814e-06
-1.45062e-05
-1.33175e-05
5.39044e-05
-6.32235e-06
0.000307054
5.22046e-05
-0.000485591
-7.21505e-05
0.000544366
0.000106213
-0.000763776
-0.000123659
0.000983133
0.0015375
0.000162722
-0.00206246
0.00267334
6.35385e-05
0.00148306
-0.00107756
0.00137906
3.50418e-05
0.000730509
9.62334e-05
-0.00112669
0.000746356
0.00047325
-0.000387093
-6.78443e-05
-0.000558384
5.21295e-05
0.000337736
0.000216616
5.80993e-05
-0.000427169
0.000241991
0.000285199
-8.57818e-05
-4.64576e-05
-5.50405e-05
0.000331141
-4.84434e-05
-4.38374e-05
-0.000100474
0.000340399
-0.000132538
-0.000133551
7.09414e-05
-5.42549e-05
-5.66312e-05
-4.34514e-05
-6.02521e-05
-4.32982e-05
1.93073e-05
5.60339e-05
1.62605e-05
5.73557e-05
0.000106452
0.000183265
0.000121025
0.000224462
0.000285012
-0.000285376
-0.000183288
-4.1851e-05
-0.000377197
0.000376573
0.000380662
0.000614733
0.000380644
-0.000381567
-0.000434917
0.000435536
0.00123712
0.00724619
0.00711348
0.00186139
-0.0121349
-0.000268238
-0.0119353
-0.000500082
0.000949884
-0.0309256
0.00236953
0.00291789
0.000142444
0.000235905
0.000273806
0.000221058
0.000151013
9.375e-05
-6.13738e-06
0.000661833
9.54302e-05
-0.00095693
-0.000130842
0.00113894
0.000179681
-0.00143291
-0.000207272
0.00189361
0.00293928
0.000262433
-0.00369096
0.00483627
9.3592e-05
0.00281454
-0.00362531
-3.25845e-05
0.00402632
-1.76555e-08
-0.00539699
0.00539688
-0.00402636
3.2525e-05
0.0036256
6.74571e-05
6.12074e-08
9.06595e-08
2.68742e-08
1.165e-07
-1.28012e-05
-2.83738e-05
-0.000142374
3.70872e-05
2.07068e-05
-0.000103882
-5.23848e-05
-5.43133e-05
-0.000114444
-2.66373e-05
-0.000115183
-0.000170918
-0.000160013
7.38255e-06
-0.000134229
-3.18485e-05
-4.88203e-05
-7.46462e-05
-7.4955e-05
-7.45845e-05
-0.000174153
-0.000134047
6.86491e-05
-0.000133823
-0.000157107
0.000345491
-4.97297e-05
5.17441e-05
1.9891e-06
-0.000161326
-0.000139523
-4.84069e-05
4.83332e-05
-1.15833e-05
-3.67675e-05
-0.00048985
-5.39714e-05
0.000620872
0.000165553
5.0592e-05
-4.16164e-05
-0.000980173
0.00136011
0.000156952
-0.0018048
-0.000220674
0.00240747
0.00219257
0.000283708
-0.00252655
-0.000324266
0.00339147
0.00523006
-0.00380313
-0.000103868
-0.000126421
-0.00320282
-0.000347847
-0.00289805
0.000162623
0.000115616
7.31902e-05
4.15962e-05
-1.30201e-05
-2.32916e-05
-3.89216e-05
0.000109688
0.000164259
-6.26309e-05
6.24955e-05
9.77606e-05
0.000520567
-0.00711005
-0.000280752
0.000146459
0.000753075
-0.0111479
0.000267845
0.000213581
0.000132537
8.648e-05
5.44765e-05
3.24725e-05
1.7754e-05
7.1683e-06
0.000980865
-0.00108287
0.00108294
-0.000980764
-7.21861e-06
-1.77434e-05
-3.24883e-05
-1.69644e-05
-0.00195021
-4.02076e-05
-2.18986e-05
1.21786e-05
5.5965e-05
0.000118967
-6.74379e-05
-3.01385e-05
-3.96253e-05
-6.86751e-05
-7.63698e-05
0.0012658
0.000351909
0.00014306
-4.01718e-05
-0.00186241
0.00258885
0.000240432
-0.00330965
0.0045745
0.000320716
-0.0054763
0.00754609
0.000280471
-0.00832719
-0.000753577
0.0111484
0.0117395
0.000158997
-0.00844274
3.75968e-05
0.000306373
6.85766e-05
-1.66746e-05
0.000297654
0.000655578
0.00115078
0.000576504
0.00201122
0.00115607
0.00387925
0.00273394
0.0119918
-0.0338505
0.000808174
-0.00164799
0.0120728
0.0057731
0.0175038
0.00679373
0.0108846
-0.00845251
0.00263075
0.00158237
-0.0100204
-2.25435e-05
0.000110052
0.000183374
-9.77612e-08
-1.17936e-07
-0.000146582
0.000238663
0.000215494
-9.77865e-05
-0.000132737
-3.0347e-08
-3.37401e-08
-8.65138e-05
-5.45501e-05
-5.77009e-05
-0.00628536
0.00698553
-2.21091e-08
-0.00911285
0.00911268
-0.00698566
5.77195e-05
0.00628584
0.000103824
-1.83496e-05
-0.000291513
3.03131e-05
-0.000139744
-0.000190341
-0.000583795
0.000148137
0.0101484
-0.0112578
0.000105911
-9.32459e-08
-5.48518e-08
-5.77545e-08
-1.01956e-07
-0.006312
0.0011075
6.00493e-05
0.000299729
-0.000406689
-0.00854917
0.00218966
0.000398586
0.00717092
0.00705248
-0.0134949
0.00858227
-0.000748471
-0.00127836
-3.02984e-07
0.00414625
0.0101825
-0.000179188
7.48366e-07
0.000214485
0.00022467
0.000179377
-0.00482259
-0.00826108
-0.00813075
3.06719e-08
8.14353e-05
8.06662e-07
0.000641282
6.36862e-07
1.36424e-07
1.24021e-08
-0.000103862
0.000218464
0.000380086
-0.000148229
-0.000106223
0.000190469
1.85086e-05
0.00066928
0.000356035
0.00016654
4.86621e-05
3.95872e-05
0.000159214
0.00034955
-0.000103147
-0.00163948
0.000664395
0.00119283
-0.000116799
0.00711102
-4.40382e-05
2.80054e-05
-7.73934e-05
0.00119503
0.00213055
0.00213392
0.00417142
0.0122755
0.00162494
0.00408628
0.0122846
0.00274002
0.000688818
-0.000214972
0.000666237
0.00124097
0.0029521
0.00058543
-8.97375e-05
-0.00214224
-5.01268e-05
-3.85342e-05
-4.37492e-05
-1.21944e-06
5.34912e-05
0.000140495
0.000291678
-0.000213658
-0.00123918
1.44511e-05
2.45059e-06
-3.69066e-06
-0.000864919
2.18803e-05
-0.000730341
-9.62461e-05
1.66303e-05
3.74367e-05
-8.6391e-06
-1.4149e-05
-1.3292e-08
1.09565e-05
-5.15122e-05
-5.48051e-05
1.98843e-05
0.000106942
-8.11121e-05
-8.77782e-06
-3.21292e-05
2.85428e-05
1.32989e-05
2.77111e-05
-2.0627e-05
0.000126723
-0.00427116
-0.000320887
0.000229623
-0.00143547
-0.00110777
0.000108719
1.69352e-05
-3.62675e-09
-2.67587e-05
8.48717e-09
4.22294e-08
9.48756e-08
-0.000240502
-0.000394158
-9.54082e-05
-0.00017967
-0.000345477
-0.000331121
-0.00034037
-0.0128484
-0.0102595
0.00183572
-2.56668e-07
-0.00183591
0.0184072
0.00812982
-4.8883e-05
-2.82708e-05
1.21012e-05
6.89499e-06
0.000355185
-0.000473128
0.000664456
-0.000529088
5.21527e-05
0.000337684
-0.000100519
0.00034033
-0.000160048
-0.000171019
-0.000132569
-0.000133558
-0.000157063
-0.000133839
-0.000134065
-0.000174183
-0.000161344
-0.000139555
-4.39045e-05
5.1731e-05
-6.20899e-05
-0.000161243
4.10529e-05
-5.20924e-06
-0.000127223
3.62712e-09
0.000127215
-4.10721e-05
0.000161239
4.38985e-05
6.20861e-05
-5.17357e-05
4.9738e-05
-1.96791e-06
0.000139618
0.000161358
0.000174177
0.000134069
0.000133852
-6.86217e-05
5.50731e-05
4.84527e-05
0.000100493
-7.09055e-05
0.000133589
0.000132566
0.000170989
0.000160053
0.000134289
-7.34574e-06
3.18964e-05
1.33087e-05
5.3358e-05
0.000212869
-6.08787e-08
5.65236e-05
-5.33228e-05
-1.33137e-05
-3.18616e-05
7.3996e-06
-7.45088e-05
2.18086e-05
0.000232452
2.04592e-06
0.000505507
-0.000505546
-5.69547e-08
-0.000737967
-7.17584e-06
-0.000980752
3.50233e-05
0.000730343
0.000746249
9.62558e-05
-0.00112676
-0.000763858
0.000473118
-6.78974e-05
-0.000387081
-0.000558459
2.80119e-05
4.58393e-05
6.46881e-05
7.48306e-05
3.92918e-05
-0.000115388
-0.00023632
0.00414661
-0.00329467
-0.0111754
0.00630966
0.0109149
0.00438255
0.0163377
0.00389545
0.00679408
0.0175045
0.00577366
0.012073
0.00858254
0.00594629
-0.0134957
0.00451952
-0.00040697
-0.00154029
0.0148372
-0.00450315
0.00747104
2.62469e-08
-0.00747156
0.00450339
-0.0148366
-0.00594622
0.0134957
-0.0120725
-0.00858227
-0.00577341
-0.017504
-0.00679349
-0.0038952
0.010514
0.0114157
0.0111754
-0.0109145
-0.00438221
-0.00630974
-0.0176713
-0.00759727
-0.0102595
-0.0145782
-0.00632565
0.00996881
-0.0127562
-0.00176117
0.0199915
-0.0199913
0.0127562
-0.00996903
0.006325
0.0145771
0.0102597
0.0128491
0.00759705
0.0176705
0.020936
0.020608
-0.00375385
0.0184072
0.00687872
0.00812972
0.00628983
-8.10335e-05
1.20625e-06
8.14558e-05
-1.45359e-07
0.0101829
-0.0101827
0.000460078
-0.00629004
-0.0081299
-0.00687914
-0.0184074
-0.0206085
-0.0209353
-0.0170537
-0.0174647
-0.0190573
-0.0172036
-0.0174514
-0.0206771
-0.0199682
-0.0175259
-0.0058503
0.00164916
-0.000808314
0.0121352
-0.0117404
0.00844252
-0.007546
0.00547693
-0.00457433
0.00330967
-0.00258883
0.00186263
-0.00135994
0.000980252
-0.000661816
0.000489857
-0.000307048
-0.00028516
-0.000241965
-0.000216579
-0.000337708
-0.000355272
-6.94214e-06
0.000473135
-0.000232476
-2.18342e-05
7.45308e-05
-0.000340337
3.67858e-05
-2.80031e-05
-4.58177e-05
-6.4634e-05
-7.48116e-05
-3.90361e-05
0.000115439
0.000236293
-0.00414657
0.00329459
0.00113278
0.00310003
-0.000753064
0.00758662
-0.00758652
-0.00309996
-0.00113271
0.000753145
0.00236166
-0.011416
-0.0105136
0.0108847
-0.0125935
-0.00342511
0.000294714
0.00143531
-0.00253688
0.00236981
0.00291814
3.24164e-08
-0.00291795
0.00342506
-0.00451947
0.00854848
0.000406496
0.00958959
-0.00958998
-0.00854883
-1.19066e-07
0.00601066
0.00631161
-0.00631183
0.00110753
-0.00601057
0.000398643
3.34402e-07
0.00621948
0.000748264
-0.00705234
0.00192369
-3.7268e-07
-5.1941e-07
4.12029e-09
0.00807835
-0.00625797
-0.0190337
0.00407878
-0.0155249
0.0182528
-0.016213
0.0137081
-0.0137085
-0.00140995
-0.011434
-0.000862077
0.00989984
-0.00765369
-0.000280684
0.00627438
-0.00476705
-7.81927e-05
0.0037168
-0.00276405
-7.06919e-06
0.00204951
-0.00149565
2.05272e-05
0.00105073
-0.000760642
3.28915e-05
0.000505416
-0.000371694
4.21061e-05
0.000246866
9.35894e-05
0.00018632
-0.000186343
5.20299e-06
3.38066e-05
-8.49949e-05
-7.83389e-05
9.36991e-09
5.44361e-05
-5.44295e-05
-6.04052e-05
8.16326e-09
6.15251e-05
-6.15242e-05
-4.8444e-05
-8.68753e-10
0.000119758
-0.000119789
6.31565e-06
-4.45703e-08
-2.84191e-05
2.85128e-05
-2.07056e-05
0.000103896
5.23954e-05
5.43427e-05
2.66832e-05
0.000115229
3.99261e-05
-0.000101436
-1.81936e-05
8.11229e-05
-0.000106931
0.000114479
5.1516e-05
5.4823e-05
1.43163e-05
0.000107519
1.6073e-05
-8.63693e-05
-1.41809e-05
1.6946e-05
-8.32875e-05
0.000122704
7.17577e-06
4.50128e-06
-5.39034e-05
-9.37668e-05
-0.000151072
-0.000221106
-0.000273931
-0.000236024
-0.00014255
0.000268452
0.0119343
0.0100214
0.00952623
0.0133277
-0.0133316
0.00964345
-0.0086864
0.00628192
-0.00523035
0.00380351
-0.00293954
0.0021425
-0.0015376
0.00112676
-0.000746367
0.000558433
-5.21359e-05
0.000529123
-0.000664495
0.000738043
-0.00108289
-1.45493e-08
0.00108282
-0.00153928
0.00137902
-0.00107757
0.00148289
-0.00195022
6.34577e-05
-0.00206255
0.000162787
0.00153737
-0.000123635
0.000982886
0.00113872
0.000179736
-0.00163959
-0.00180492
0.00126555
-0.000130851
-0.000864987
0.000106227
0.00054425
-0.000427208
5.81217e-05
0.000216555
-4.38674e-05
-4.84565e-05
7.08936e-05
-0.000122717
-3.99167e-05
-0.000115224
-2.66685e-05
-5.433e-05
-5.2375e-05
-0.00010387
2.06235e-05
-2.77213e-05
-6.30354e-06
4.92658e-05
-8.75712e-06
-8.11189e-05
8.1969e-07
1.8199e-05
0.000106929
0.000101439
8.32803e-05
-1.69592e-05
-2.26351e-05
4.84517e-05
-1.00207e-09
-4.00613e-09
-2.01099e-09
2.00037e-08
3.82105e-08
4.72178e-08
8.69096e-08
4.2807e-08
3.40555e-08
-6.17066e-09
2.44346e-07
0.00438557
-0.00010867
-0.00738453
0.00127821
-0.0163371
-0.00717076
0.0125931
-0.00029475
-0.00143524
-0.0011077
-6.0192e-05
0.000500063
-0.000950224
-0.000316203
-0.00401869
-0.0038807
0.00958287
0.0130218
-0.0187527
0.000110195
0.0150798
-0.0127177
0.0153408
8.89176e-05
-0.00408573
-0.0122858
-0.0122747
-0.0119904
-0.00711453
-0.00724523
-0.00123713
-0.00273576
-0.00186101
-0.00387974
-0.00201036
-0.00115557
-0.000614738
-0.000380931
-0.000575666
-6.83496e-05
-0.00030652
4.46222e-05
-0.0111479
-0.00982229
0.00725605
0.00647333
0.000697213
-0.00883119
0.000228529
2.23813e-05
-0.00236968
0.00253709
-0.00236167
-0.000134647
0.00607898
-0.000399068
-0.00218988
0.0015404
-0.00522686
-0.00117931
-0.00521563
8.00656e-08
2.7654e-07
7.57042e-07
3.37965e-07
-1.54224e-07
-1.92508e-07
-1.41125e-07
-2.27522e-07
-1.00722e-07
-1.54247e-09
8.72767e-09
-4.33085e-05
4.33039e-05
6.02456e-05
-1.6306e-05
-5.73415e-05
-0.000121031
-0.000224522
-0.000297475
1.67469e-05
-0.00115002
-0.000655252
-0.000351766
-0.000142716
4.02568e-05
0.000103373
-0.00240741
-0.00219279
0.00163948
0.00143281
0.00020741
-0.00189328
0.00252608
0.000324216
-0.00339093
0.00417032
0.000479997
-0.00567509
-0.000382299
-0.00647676
0.00476474
0.000520699
-0.00711008
0.00832628
0.000753137
0.000146487
-0.000110098
-0.00018345
-0.000394503
-0.00391035
0.00289822
0.00034789
-0.00427161
0.00532744
-0.00032104
0.000117365
-0.00213287
-0.00417044
-0.0015819
-0.00263013
0.00845296
-0.0108844
0.0338502
-0.00162526
0.00880398
-0.00274017
-0.00826059
-0.00482267
-0.00148801
-0.00295195
-0.000688201
-2.73934e-05
-0.00212917
-0.0011941
-0.0011921
-0.000663846
-0.000349335
-0.000159114
-0.000165468
-5.04353e-05
4.16129e-05
7.64599e-05
-0.00126568
-0.00113895
0.000865008
0.000763753
0.000123615
-0.000982904
-0.000179747
-0.000115662
-0.000162597
-0.000283938
3.8945e-05
0.000220658
0.0018047
-0.000156977
-0.000109686
0.00276388
-2.66747e-06
-0.0037173
7.86454e-05
0.00476686
-1.42982e-05
-0.00627499
0.000281458
0.00765324
-3.74886e-05
-0.00990028
0.000862309
0.0114339
-0.000159353
-0.0146148
0.0026213
0.016991
0.00374105
0.00115438
-0.000299969
0.000299968
-0.0169915
-0.00262066
0.0146145
-0.00115462
0.0162131
-0.00807817
-0.0182532
-1.01982e-07
0.0155241
-0.0040788
0.0190348
0.00585066
0.00625792
0.00117919
0.00522717
0.00218965
-0.00192393
-0.00621988
0.00705297
-0.000748392
0.00717095
-0.00607867
-3.53014e-07
6.86914e-08
-5.35366e-09
-2.5551e-08
2.77677e-08
5.63414e-08
0.00141054
-0.0120922
0.00991357
-0.00801403
0.00645977
-0.00646014
-4.01561e-05
0.00494658
6.43642e-05
-0.00389674
2.65899e-05
0.00284082
4.19957e-05
-0.00218685
3.97365e-05
0.00151789
2.57663e-05
-0.00114761
4.27814e-05
0.00075707
1.78221e-05
-0.000571849
5.17417e-05
0.00035596
2.57879e-05
-0.000277969
-8.24964e-09
0.000277943
-9.35849e-05
-0.000246884
-4.21148e-05
0.000371663
6.33202e-06
-0.000505443
-3.28731e-05
0.00076064
6.13489e-06
-0.00105083
-2.04858e-05
0.00149556
3.67491e-06
-0.00204974
7.25246e-06
-4.20059e-05
0.00218678
8.98514e-09
-0.00151801
0.00114763
-0.000757107
0.000571839
-2.3381e-08
-0.000355982
-2.58085e-05
-1.19505e-05
-3.56497e-05
-1.78552e-05
-5.59611e-05
-0.000106532
-0.00018351
-0.000285535
-0.000377066
-0.000381028
-0.000434645
0.000434742
0.00521549
0.00724549
0.00123681
0.000380091
0.0120921
-7.10712e-06
-0.00991398
-0.00031009
0.00801349
7.50455e-05
0.000215631
1.73709e-07
0.000310654
4.83428e-08
-3.81135e-08
4.05127e-05
-0.00494673
0.00389667
-0.00284097
-2.65747e-05
-2.78707e-08
-4.45728e-08
-1.38832e-08
-3.97489e-05
-1.12264e-08
-4.27393e-05
-1.88643e-08
1.92116e-09
-5.17107e-05
-5.86874e-09
4.48309e-09
8.49969e-05
-3.38104e-05
3.66841e-05
-4.88373e-05
4.88273e-05
-3.66844e-05
0.00011033
-1.64134e-05
4.65276e-05
-0.000108744
-2.23892e-05
5.36274e-07
-9.82324e-05
0.000124083
3.74823e-05
0.00011688
2.87467e-05
5.36487e-05
0.000118025
5.29357e-05
-1.78989e-05
-3.91182e-05
-1.33769e-05
1.10225e-08
-1.1318e-08
1.33612e-05
-0.000110349
-4.65262e-05
1.63969e-05
-3.82305e-05
2.23704e-05
9.82236e-05
-5.41608e-07
-1.58517e-05
1.41844e-05
8.6378e-05
-1.60633e-05
-0.000107491
-1.43132e-05
-5.48216e-05
3.91764e-05
3.91165e-05
-1.41451e-09
1.91351e-05
3.82138e-05
5.57314e-06
8.43492e-06
5.48275e-05
-3.91749e-05
-1.98762e-05
6.24626e-10
-8.43433e-06
-1.91392e-05
7.83511e-05
-5.60401e-06
1.19402e-05
-6.94508e-09
8.17825e-09
1.31011e-08
5.52118e-08
-4.69881e-08
8.89346e-08
-0.000238557
7.39446e-06
0.00023875
0.000142861
0.000159013
-0.0121354
-0.000267917
0.011148
-0.000753351
-0.00725686
0.000381672
0.00567506
-0.000479789
-0.00417108
-0.00628175
0.000381459
0.00498149
-0.00628545
0.000101629
-0.00617779
0.00823866
-0.0101482
1.38166e-05
-0.00975812
0.000410455
0.00868564
-0.00964268
-0.00647501
0.00883135
-0.000696707
0.0133311
-8.82007e-05
0.012718
-0.0150789
-0.000110003
-0.0153416
-0.0133272
-0.0095271
-0.000228882
0.00982131
-0.0100209
-0.0119354
0.00263029
-0.000500116
0.000950031
-0.0309257
0.00031666
-0.000387887
0.00401833
-0.033033
0.00388094
-0.0130217
-0.00958337
0.00482217
4.99718e-07
0.000179166
0.000641339
0.0207784
-5.05898e-09
0.0165892
-0.016589
0.000224514
-0.0128291
-1.347e-05
0.0101489
-0.00823856
0.0097568
-0.000410474
0.00617695
-0.000101789
0.00628585
-0.0049813
-0.000381778
0.00369057
-9.37446e-05
0.00362557
-0.00281415
-0.000262743
-0.000668869
-0.000355824
-0.000166416
-4.86214e-05
-3.956e-05
-4.8324e-05
1.15845e-05
3.67964e-05
5.39908e-05
-0.000620796
-0.000544404
0.00042718
0.000387039
6.78402e-05
-0.000473183
-0.000106276
-7.32174e-05
-4.15981e-05
-5.80901e-05
1.33193e-05
4.64873e-05
8.58072e-05
-0.000345426
7.46347e-05
4.84802e-05
4.34472e-05
5.66465e-05
7.49963e-05
0.000157161
-0.00033108
5.42851e-05
5.01783e-05
6.87236e-05
8.98707e-05
0.000104129
7.78363e-05
-0.000190491
-0.00124083
-0.000665941
-0.000380022
-0.000585528
-1.867e-05
0.000103846
0.000147857
-0.00816506
0.00911282
3.25493e-08
0.00698559
-0.00698541
5.7784e-05
0.00539685
-1.88715e-08
0.00402654
-0.00402649
3.25754e-05
-0.00267345
-6.35793e-05
0.0019503
-0.00148292
0.00206227
-0.000162732
2.99817e-05
-0.000291749
-0.000218396
-0.000118951
-0.000140501
3.97763e-05
4.01865e-05
-0.00137911
-3.50705e-05
0.000980794
-0.000730444
0.00107748
-9.62186e-05
3.8569e-05
-5.34724e-05
-5.59085e-05
-1.21076e-05
1.24341e-06
4.37798e-05
7.46981e-05
4.88938e-05
2.84133e-05
0.000142402
-3.7077e-05
5.7926e-05
-1.29558e-07
-5.70807e-05
3.67256e-05
-0.000142235
-2.85468e-05
-3.20802e-05
-1.03778e-07
-2.87506e-08
2.18765e-05
7.17505e-06
1.77493e-05
1.30272e-05
7.21303e-05
0.000485591
-5.21816e-05
2.32873e-05
0.000130882
0.000956897
-9.54423e-05
-6.57597e-05
-2.57621e-05
6.57343e-05
0.000109696
0.000164369
0.000274115
0.000236254
3.75029e-05
-0.00844346
0.000280476
0.00710964
-0.000520903
-0.00476488
0.000394636
0.0033908
-0.000324133
-0.00252674
-0.00380304
0.000262943
0.00281429
-0.0036254
9.3696e-05
-0.00369096
0.00483622
-5.78138e-05
-0.00539673
-0.000103723
-1.07375e-07
1.91433e-08
-5.72122e-07
0.000214941
-0.000214314
-0.000178835
-0.000641232
0.0187524
-0.0207784
-0.000178824
6.01811e-05
-0.00014639
-2.21514e-05
0.000110467
-2.04748e-08
9.78153e-05
-0.00021545
-7.48703e-05
-0.000164253
-6.42556e-05
6.25798e-05
5.56663e-08
1.3504e-08
5.94964e-09
-9.85584e-09
-7.94474e-09
9.07977e-10
1.41563e-09
-4.50388e-06
5.39104e-05
9.37661e-05
0.000151098
0.00022112
2.42368e-06
-0.00330982
0.000240571
0.00240715
-0.000220717
0.00219227
0.000283809
0.00189318
-0.000207423
-0.00143307
-0.00214243
0.00293903
-8.99525e-05
-0.000103499
-4.07669e-05
0.000224218
0.000380448
0.000613997
0.000377161
0.000285523
0.000183594
0.000106597
0.000120927
5.72962e-05
5.59848e-05
1.92773e-05
1.62419e-05
-6.02745e-05
-4.85479e-05
-4.34865e-05
0.000307023
5.21886e-05
0.000285139
-4.64979e-05
-5.5077e-05
0.000331089
-7.17393e-06
4.1608e-05
7.32315e-05
0.000115693
0.000162693
0.000183588
-9.77186e-05
-6.25919e-05
-0.00034804
-0.00320299
-0.00289825
0.00390987
0.00427133
0.00457397
0.00032093
-0.00547686
1.41782e-05
0.00754571
6.69458e-05
0.000305881
0.0117386
0.00185892
0.000808386
-0.0338512
0.0199695
0.0175288
-0.00164999
0.00711296
0.0119908
0.0206778
0.017452
-0.00845284
0.0172026
0.0190626
0.017468
-0.0088039
0.017054
0.0122844
0.0122761
0.0015822
0.00387838
0.00273925
0.00201048