/*--------------------------------*- C++ -*----------------------------------*\
| =========                 |                                                 |
| \\      /  F ield         | OpenFOAM: The Open Source CFD Toolbox           |
|  \\    /   O peration     | Version:  2306                                  |
|   \\  /    A nd           | Website:  www.openfoam.com                      |
|    \\/     M anipulation  |                                                 |
\*---------------------------------------------------------------------------*/
FoamFile
{
    version     2.0;
    format      ascii;
    arch        "LSB;label=32;scalar=64";
    class       volScalarField;
    location    "1.2";
    object      gradTx;
}
// * * * * * * * * * * * * * * * * * * * * * * * * * * * * * * * * * * * * * //

dimensions      [0 -1 0 1 0 0 0];

internalField   nonuniform List<scalar> 
2658
(
0.00843802
0.0124103
0.00402517
-0.000148769
-0.0155952
-0.0131576
0.0129183
0.0127806
-0.000190283
0.0186229
-0.0131133
-0.00987566
0.00687601
0.00803294
0.00609765
-0.000445061
-0.000270106
-0.000168803
-0.00667918
-0.00873268
-0.00843782
-0.0195912
-0.0231749
0.0171703
-0.00714759
-0.00926829
-0.0199262
-0.00275775
-0.0145858
-0.0158477
-0.0145856
-0.0199266
-0.00926882
-0.0231762
-0.00714716
0.0171702
-0.00860011
0.0042875
-0.0195881
-0.00844016
-0.00873247
-0.00667874
-0.000170057
0.00061006
-0.0107499
0.010035
-0.013113
-0.000529832
-0.000447011
0.0060978
0.00803334
0.00687582
0.0185809
-0.00387419
0.0207272
0.0171203
-0.00893986
0.00048956
-0.0311402
0.017258
-0.00893937
0.0171207
0.0207271
-0.00387357
0.00383141
-0.0330905
0.00376062
-0.000546604
-0.00987491
-0.00987601
-0.000249264
0.00925641
-0.000817554
-0.0094301
0.000345387
-0.00996088
0.0127028
-3.23874e-05
-0.0101938
0.0113367
-0.0146349
-0.00034613
0.0166397
-0.0151481
-0.000341404
-0.000185301
-2.14149e-06
5.01063e-05
4.82589e-05
3.33971e-05
1.87935e-05
-2.02362e-05
1.7411e-05
-0.000137309
8.7407e-05
-1.88015e-05
-0.000108126
3.51648e-07
0.000108009
-8.92952e-05
4.71548e-05
0.000121779
0.000116951
8.29844e-05
8.68345e-05
-0.0001887
-3.2561e-05
-2.31481e-05
-1.26894e-05
4.95528e-05
0.000106106
4.06344e-05
8.31841e-05
4.06264e-05
0.000106106
4.95532e-05
8.68478e-05
-0.000188703
0.000116968
8.30018e-05
0.000121771
4.71345e-05
-8.93034e-05
0.00010801
-0.000181883
0.000180675
-0.000137316
-1.88071e-05
-0.000108124
8.73967e-05
-4.8696e-05
-0.000119979
-7.85971e-05
-7.13191e-05
-4.80761e-05
4.01847e-06
-2.46508e-05
-0.000157154
0.000112691
0.000112636
-2.46455e-05
3.99028e-06
4.58375e-05
-5.20675e-05
-5.96577e-05
-5.19481e-05
2.49615e-05
2.98184e-05
-0.000106266
-0.000110534
-9.16408e-05
-0.00011613
-0.000114191
-0.000117591
-9.64141e-05
-0.000166799
-0.000148579
-6.38175e-05
-7.57466e-05
-5.60528e-05
1.83037e-06
-3.10931e-07
-3.55624e-06
5.1974e-05
7.41881e-05
6.32495e-05
0.00014856
0.000192581
-4.49765e-05
0.000170486
-0.000472103
0.000676619
-0.000946518
0.00138432
-0.00187929
0.00266244
-0.00350759
0.00478166
-0.00611217
0.00803327
-0.00993209
0.0127021
-0.0150667
0.0193777
-0.0193173
0.0205227
-0.0212187
0.0186224
-0.015596
-0.00014883
-0.0131568
0.0037599
-0.0330898
0.00383148
-0.00987581
0.00406486
-0.00034146
-0.000185311
-2.25796e-06
5.00187e-05
4.82941e-05
3.34231e-05
1.88007e-05
-2.02384e-05
1.74108e-05
2.80899e-06
-5.04711e-05
-6.58652e-06
6.71391e-05
6.71365e-05
-5.04756e-05
2.81835e-06
-6.5641e-06
1.90422e-05
0.000180673
-0.000181896
1.31992e-05
0.000139351
-1.1379e-05
1.10783e-06
-1.93954e-05
-4.32228e-07
1.02768e-06
1.79281e-05
1.47404e-05
1.79279e-05
-1.14042e-05
-3.25511e-05
-8.84612e-05
-2.31351e-05
1.92068e-05
1.9213e-05
-8.84683e-05
-3.00657e-06
5.59159e-05
-6.77475e-05
-6.77644e-05
1.20762e-06
5.59329e-05
-1.03599e-06
-1.07355e-05
-1.4253e-05
-1.34867e-05
6.0709e-05
-1.36219e-05
-3.47443e-06
-9.94858e-05
2.57143e-06
-4.75813e-05
7.82257e-05
7.28125e-05
0.000156537
0.000110927
-0.000329431
0.00026363
-0.000523015
-0.000522986
-1.12686e-05
-0.000637075
1.53255e-05
0.000862019
-0.00126035
1.3773e-05
0.00172462
-0.00241375
-1.15269e-07
0.0032185
-0.00433107
-3.94473e-05
0.00560018
-0.00722424
-0.000130988
0.00914456
-0.011143
-0.000274845
0.014406
-0.0155361
-0.000876762
0.025036
0.00413577
0.0300505
0.0300503
-0.00275726
0.00695535
-0.00241419
0.00976235
0.000542649
-0.00610155
-0.00610152
0.00672345
-0.000314767
-0.00787082
-0.00787069
0.00211878
-0.00258734
-0.0113469
-0.0113469
0.00402674
0.016377
0.00402687
0.0063463
0.017917
0.00763224
0.0103018
0.0128904
-0.0196727
-0.011427
0.0108491
0.00741177
-4.77433e-05
0.00211886
-0.0012691
-0.00335381
0.013599
-0.0101113
0.00629104
0.0145951
0.00834834
-0.00447927
-0.00599494
-0.00447903
-0.00335397
-0.0114267
-0.0196724
0.00763242
0.0179177
0.00634676
0.0108491
0.00741193
0.00834947
0.014594
0.00629003
-0.0101115
0.0135985
0.00165676
0.0125838
-0.000305887
-0.0131018
0.0199164
-0.00029662
-0.00351158
-0.0204631
-0.000335167
-0.00238976
0.000161124
0.000126931
5.98995e-05
3.08071e-05
1.59653e-05
6.98259e-06
2.14029e-06
-1.5825e-05
0.000485472
-0.000527607
0.000526847
-0.000482363
0.000648337
-0.000993188
0.00135894
-0.00196589
0.00264325
-0.00364505
0.00478524
-0.00631276
0.00807947
-0.010193
0.012702
-0.0151476
-0.000190083
0.0127807
0.0129166
0.00925813
-0.00685655
0.000364498
-0.00685523
0.00603346
0.00836669
0.00830546
-0.00631268
-0.00611875
0.00033552
0.0050321
7.89698e-05
0.00808039
-0.000176865
-0.00929283
0.00902655
-2.56097e-05
-0.00704073
0.00649929
-0.00848515
-9.44786e-06
-0.0113563
-5.20128e-05
0.014165
-0.0167629
-9.50864e-05
-0.0212188
-0.000753028
0.010035
-0.000529862
0.00165712
-0.0204633
-0.00351139
0.000587153
-0.000322223
-0.000201435
-0.000173055
-0.000100838
-4.85677e-05
-2.20486e-05
-9.94782e-06
-4.65273e-06
-2.18939e-06
1.03307e-06
-4.17948e-07
-1.93713e-05
1.20677e-06
1.10549e-06
0.000139351
1.31902e-05
-5.16886e-06
-0.000213688
0.000194882
-0.000199226
0.000203153
-9.62865e-05
0.000327689
-0.000119144
0.00032269
4.1838e-05
-0.000537222
-0.000536458
0.000386717
1.92918e-05
1.23797e-05
-2.72655e-05
1.80688e-07
3.0131e-05
6.50336e-05
9.12781e-05
-3.07687e-05
-9.65102e-06
5.23313e-05
-1.2494e-05
-5.03627e-05
-6.65366e-05
-8.03676e-05
-0.000156199
-0.000153238
4.15611e-05
3.39957e-05
1.98534e-05
-0.000681752
0.000732008
-0.00109802
0.00109805
-1.53586e-05
-0.000749856
-2.23292e-06
-4.17815e-07
8.43253e-07
3.18858e-06
-9.7538e-05
-0.000169906
-0.000302026
-0.000280833
-0.000469274
-0.000555684
2.55413e-05
4.51228e-05
5.37381e-05
-0.00278534
0.00296811
-0.0040604
0.00406865
-5.41765e-05
-0.00304454
0.0021875
-3.00569e-05
-0.00156856
-3.92235e-06
0.00153018
-0.00218428
7.06206e-06
-0.00143256
0.00101764
5.48425e-06
1.83235e-06
-3.37742e-05
-0.000636989
2.11219e-05
0.000405866
1.69222e-05
-0.000371422
-0.000158527
8.83239e-05
-2.40983e-05
3.01184e-09
-1.76313e-06
1.0429e-05
-1.54626e-05
3.60241e-06
-5.22063e-05
-5.15798e-05
-1.90687e-05
7.32514e-05
-8.32729e-06
-4.16486e-05
-2.84941e-05
5.66004e-05
0.000115942
0.00020921
6.15938e-06
8.48557e-06
-0.000280841
-0.000475849
-0.00102215
-0.000740614
-0.00139009
-0.0023387
-0.000373513
-6.2403e-05
8.67586e-05
-0.00848492
0.00902604
-0.0113565
0.0113368
-0.00017724
-0.00929225
0.00704918
-9.61947e-05
-0.00550359
-1.28375e-05
0.00535855
-0.00704076
3.48116e-06
-0.00503589
0.00375814
7.28415e-06
3.5683e-06
3.09468e-06
-5.81186e-05
-0.0012603
1.15783e-05
0.000862026
1.53597e-05
6.59366e-05
-0.00101328
0.00132852
-0.00197479
-0.0019748
-3.85049e-06
0.00258922
4.55419e-05
-0.00364526
-4.96011e-06
0.0046751
1.4533e-05
-0.00626467
-3.52594e-07
0.00786567
-0.000123275
-0.00989189
6.28643e-05
0.0124398
-0.000704698
-0.0139999
0.000453057
0.0190602
-0.00321728
-0.0157925
-0.00213819
-0.0157921
0.0041357
0.0250362
-0.000876543
-0.0155352
-0.000618562
0.0144053
-0.000274746
-0.0111429
-0.00030018
0.00914492
-0.000130756
-0.00722311
-0.000127686
0.00560045
-3.9251e-05
-0.00433086
-4.79683e-05
0.00321847
4.96785e-08
-0.00241364
-8.58679e-06
0.00172462
1.38823e-05
5.57639e-05
-0.00010391
-6.78628e-05
-4.02455e-05
8.84425e-05
3.94931e-06
-7.26264e-05
-0.000147022
-0.000248837
-0.00040887
-0.000641502
-0.000891845
-0.000914532
-0.000215242
0.00098869
-0.00145239
-0.0110784
-0.0110784
-0.0113918
-0.00946781
-0.00316625
-0.00126415
-0.00517384
0.00807277
0.0125588
0.000274737
0.000100448
0.000689455
-0.00321681
0.0190591
0.000453515
-0.0139998
-0.00137314
-0.000620417
-0.000556743
6.35084e-05
-0.00989177
0.0124394
-0.000704699
-7.0861e-05
-0.000162483
-0.000123506
0.00786458
-4.16629e-08
-0.0062642
-0.000229975
-0.000426729
-0.000292709
-0.000179489
-3.72237e-06
0.00258915
-0.00364523
0.00467491
1.45661e-05
-0.000138954
-9.51028e-05
1.10421e-05
6.31084e-06
2.883e-06
-4.45244e-05
-1.12579e-05
0.000628876
3.1043e-05
0.000628927
6.58852e-05
-0.00101323
-5.25116e-06
0.00132868
5.58207e-05
-5.81189e-05
-9.70329e-05
-5.22795e-06
4.55555e-06
-3.37657e-05
-2.40921e-05
-0.00037144
1.69229e-05
0.000405859
8.8313e-05
0.00026362
-4.75795e-05
-0.000329439
3.42792e-05
0.000110933
0.000156546
7.27935e-05
0.000192581
7.82379e-05
3.00355e-05
-5.67061e-05
3.37739e-05
-1.36217e-05
-1.42459e-05
6.07077e-05
-1.34929e-05
9.19755e-06
9.72957e-08
1.31294e-07
9.59848e-08
-1.65295e-07
3.47935e-07
9.20092e-06
-1.02954e-06
3.37759e-05
-1.27053e-05
-5.67147e-05
3.0032e-05
-4.75459e-07
1.74005e-05
1.49245e-05
-1.03424e-05
-6.04525e-05
1.72365e-05
-3.38434e-05
6.19428e-05
0.000189291
-0.000120327
3.48368e-05
1.58041e-05
9.14653e-06
1.1253e-05
-2.70893e-07
-1.08619e-06
-2.65244e-06
-5.57166e-06
-1.1385e-05
-2.44952e-05
1.78492e-05
3.20575e-05
7.58218e-05
0.000189154
-0.00115361
-0.00349222
0.0134832
-0.00241417
0.00695546
-0.0150642
-0.00705431
-0.00705364
-0.0150652
-0.00766581
-3.45813e-05
-0.0134824
0.0222773
0.00157619
-0.000878388
-0.0159153
-0.00143609
0.00956905
-0.00717639
-0.0156118
-0.0129746
-0.0130081
-0.00905876
0.000953055
0.00200194
0.000952261
0.000325933
-0.0128337
0.000952684
-0.00766504
-0.0134827
-3.39552e-05
0.00432324
0.00157668
-0.0159155
-0.000878123
0.00202496
-0.00029652
0.0199167
-0.0131023
-0.00030544
0.0125847
0.000988938
-0.000540964
0.00200256
0.00161277
-0.00410589
0.00432355
0.00301619
0.000227711
-0.0014457
-0.000540376
-0.000163171
0.000988395
-0.00191128
-4.78229e-05
-0.00126894
0.000587169
-0.000322296
-0.000753272
-0.000359074
-4.94503e-05
1.29923e-07
8.2545e-05
-0.013294
0.0141649
-0.0167636
0.0166402
-0.000346856
-0.0146344
-5.18634e-05
-0.000305992
0.000624687
0.000359829
-0.000195597
-0.000129226
-8.22735e-05
-5.00969e-05
3.43188e-05
0.00202492
-4.75454e-05
-4.77053e-05
-0.00109571
7.61427e-05
-0.00109381
0.00148173
0.000137836
-0.00208217
-0.00210419
0.00150822
6.41163e-05
0.00284913
0.000230299
-0.00369868
-0.00377083
8.52667e-05
0.00503251
0.000334849
-0.00611789
-0.00631308
7.91788e-05
0.00830576
0.000345151
-0.00942935
-0.00996215
-3.17567e-05
0.000622032
0.00140926
0.00459243
-0.00022462
-0.000262325
-4.02511e-05
-0.000417126
0.00270341
0.00294714
0.00402431
0.00209345
0.00117931
0.000667012
0.000363655
0.000182046
4.12716e-05
-6.57821e-05
-0.000136354
-0.000790041
9.27296e-05
-0.000789729
0.00106579
0.000166159
-0.00151432
-0.00151476
0.00106618
9.00573e-05
5.30765e-05
2.60455e-05
-1.31887e-05
-3.86315e-06
-5.24764e-05
-4.8772e-05
0.000316426
-4.86422e-05
0.000254267
5.01898e-05
-0.000377172
-0.000377479
0.000254571
-3.52897e-05
8.99412e-05
-1.69505e-05
-1.70801e-05
0.000122449
-1.43954e-05
9.0035e-05
-0.000119288
0.000327796
-9.62298e-05
0.000386707
4.1831e-05
-0.000536345
-0.000537522
0.000323073
-5.24577e-05
-1.31867e-05
-1.43192e-09
2.13714e-06
2.11091e-05
-0.000472116
-1.58069e-05
-0.000681804
5.51406e-06
-0.00109811
-3.89851e-06
-0.00156854
-3.00417e-05
0.00218769
-0.00196614
6.41008e-05
-0.00210405
-0.00208268
0.000137655
0.00150823
-0.00109559
-0.00109409
7.60169e-05
0.000752547
4.17972e-05
0.00135917
-0.000993385
0.00109814
-0.000749866
-1.53536e-05
0.000648503
1.92897e-05
-0.000482492
0.000526898
-2.24138e-06
0.000732054
-0.000527639
0.000485477
-0.000213701
-1.75186e-06
0.000194893
1.91247e-06
-0.000199238
-3.85226e-06
0.000203233
0.000112571
-5.60412e-05
1.84179e-06
3.59957e-06
-1.54368e-05
1.0429e-05
5.23179e-05
9.12828e-05
8.84703e-05
-4.0259e-05
-6.78906e-05
-3.07551e-05
-8.03946e-05
-0.000104187
-0.000167569
-0.000156256
-0.000280717
-0.000258955
-0.000257937
-0.00016714
4.54141e-05
-0.000314334
-0.000316742
-0.000468815
-0.000741017
-0.000151238
-0.000147704
0.000193252
0.000192882
-0.00139162
-0.0113926
-0.00947603
-0.00316979
0.0193776
5.67164e-05
-0.0193168
0.000274848
-0.0107497
-0.000417091
-0.00033511
-0.00238974
0.000161235
0.000126907
5.99912e-05
3.07715e-05
1.5969e-05
6.98668e-06
1.15791e-05
-0.000946554
-3.18345e-05
-0.00143259
7.03445e-06
-0.00218441
-6.67996e-06
-0.00304472
-5.41302e-05
0.00406884
-0.00364544
8.51128e-05
-0.00377062
-0.00369949
0.000230289
0.00284893
0.00282534
-0.000229529
0.00203346
0.000270325
-0.00269154
-0.00269213
0.00203401
-0.000229458
0.00282477
-9.55925e-05
0.000370768
0.000185276
7.93015e-05
7.32612e-05
-3.52731e-05
-1.90923e-05
-9.63242e-05
-0.000118223
-8.68362e-05
-4.80734e-05
-7.13442e-05
-7.86305e-05
-0.00012029
-0.000119986
-4.86881e-05
-7.57185e-05
-6.38171e-05
3.48861e-05
-0.000148609
-0.000166864
-5.15816e-05
-2.72815e-05
1.80402e-07
3.01117e-05
7.41937e-05
5.19718e-05
-5.18432e-06
-3.54327e-06
-3.26436e-07
-9.37959e-05
0.000170494
-0.000158531
-4.50004e-05
6.32748e-05
0.000148516
6.49828e-05
-1.24569e-05
-9.69226e-06
3.39517e-05
0.000676637
1.98701e-05
0.00101767
-5.04048e-05
-6.6336e-05
4.14008e-05
0.0013843
-0.00187955
-4.74613e-05
-0.00278568
7.348e-06
0.00375811
-0.00406052
-1.28353e-05
-0.00550388
-9.62987e-05
0.00704927
-0.00631305
0.00478575
-0.00012893
7.51045e-05
-0.00503617
3.35598e-06
0.00535886
-2.20617e-05
-9.97126e-06
-4.65683e-06
-2.1772e-06
1.84544e-06
3.15988e-06
3.53478e-06
-9.5033e-05
-0.000138776
1.93102e-06
1.98648e-06
3.15332e-07
-9.40199e-06
0.0104493
-1.47262e-05
1.78665e-05
-2.39246e-05
0.0153549
5.66346e-05
-0.000339359
-0.000205916
-0.000126881
-7.64305e-05
-4.40089e-05
-2.34706e-05
-7.73982e-05
0.000724543
0.000525437
0.000525146
0.000724938
-7.73844e-05
-2.34692e-05
-4.40597e-05
-0.000136299
0.00148225
-6.5691e-05
-4.10465e-05
7.33107e-05
0.000182167
0.000363715
-9.54914e-05
-4.63122e-05
-4.75676e-05
-5.00564e-05
3.44429e-05
0.00202498
-9.77368e-05
-0.000152779
4.48425e-05
0.00266253
-0.00350776
-6.60832e-05
0.0047818
-0.00611241
-7.32411e-05
0.00803357
-0.00993266
-1.39392e-05
-0.0132941
-2.37721e-05
0.0153537
-0.0150677
-0.00061825
0.0127019
-0.000300667
-0.000373131
-6.28427e-05
2.52057e-05
-0.000301196
-0.000170243
-0.000281874
-0.000553031
-0.000476694
-0.00101653
-0.00126388
-0.00234331
-0.0051764
0.00807222
-0.00859983
0.00428579
-0.0130084
-0.0156116
-0.00717637
0.0095692
-0.0014365
0.000609693
0.0125583
-3.95047e-05
0.0205228
-0.000173099
-0.000100835
-4.8684e-05
-5.26289e-05
-0.00010771
1.76538e-05
-7.06801e-05
-0.000162421
1.86199e-07
-0.000205886
0.000129518
0.0001272
-0.000126884
-7.63841e-05
-0.000363318
0.00502686
0.00362612
0.000379728
-0.0044455
-0.0044462
0.0036269
-0.000363367
0.00502623
-0.00012108
-1.02378e-05
0.000262644
-4.67573e-05
0.000121802
0.000143696
0.00054591
-0.000110269
0.00836515
0.00603459
-0.000548854
2.73323e-05
-0.000128825
0.00239353
-9.77896e-05
0.00672354
-0.000161032
0.000100483
0.000689663
0.00301518
0.00976278
-0.0041064
0.000227307
-0.00144554
-0.00905822
0.0222768
-0.0129742
0.000953341
-0.000163446
-0.000865967
0.0040649
0.000489151
0.00150813
0.00416695
-3.05038e-05
-0.000817712
0.00150748
0.0124096
0.00844071
0.021253
0.0119431
0.0172586
0.0190531
-0.000546698
0.0021671
0.00121869
0.000684272
-0.000120919
0.000666735
0.0011794
-0.000109833
-0.000548978
0.000144452
-1.02012e-05
0.000209149
0.000115964
5.66841e-05
1.24075e-05
-4.38002e-07
7.71771e-07
3.01912e-06
5.38843e-05
0.00296834
5.82558e-06
8.11685e-06
8.72669e-05
0.0104485
8.28102e-05
-0.000305117
-0.000195194
0.000359571
0.00062461
-5.30562e-07
-5.02371e-05
-0.000224032
-0.000359645
0.00140927
0.00459192
0.00270305
0.000621882
-2.96348e-05
0.00209224
0.0012063
0.00294781
0.000546446
-8.2239e-05
0.00264362
-2.84802e-05
-4.15713e-05
-5.21166e-05
-8.24996e-06
4.13384e-05
0.000122195
0.000264993
-0.000339227
0.00120138
-0.000128088
-4.80631e-05
-8.59402e-06
0.00153022
-4.10691e-05
0.000752564
4.17826e-05
1.49272e-05
1.7398e-05
-4.75101e-07
-3.38473e-05
2.12583e-05
1.72371e-05
-6.04543e-05
-1.0342e-05
-1.57365e-07
0.000189278
6.19948e-05
-0.000157171
-0.000112784
0.000122185
-1.44603e-05
4.57918e-05
-8.67168e-05
7.47682e-05
0.00649918
-7.28868e-05
-9.49567e-05
0.00202505
-0.000160728
-0.00191179
1.90398e-05
0.000113498
-4.69718e-06
-0.000105785
-4.03359e-05
-0.000564825
-6.61528e-05
-2.54844e-05
-3.17934e-05
-6.74971e-06
-9.3802e-05
1.91021e-06
0.000112629
0.0128911
0.0103021
0.000126633
-0.00131962
0.000126025
0.0185812
0.021254
-5.15058e-05
-1.90653e-05
7.33103e-05
4.18395e-05
0.000386694
0.00032273
-0.000537264
-0.000536401
1.92931e-05
-0.00048237
0.000203149
0.000112607
-6.38551e-05
-7.57642e-05
-5.6056e-05
1.83349e-06
-3.10941e-07
-3.55177e-06
5.20061e-05
7.4192e-05
6.32616e-05
0.000148627
0.000192585
-0.000158513
7.82445e-05
7.28352e-05
0.000156558
3.00697e-05
0.00011094
0.000113508
0.000110944
0.000156555
7.28336e-05
0.000192598
7.82407e-05
-0.000158513
0.000170484
-4.49825e-05
0.0001486
6.32738e-05
7.42153e-05
5.19871e-05
-3.5642e-06
-5.17263e-06
0.000194898
-0.000199213
0.000203188
3.58981e-06
1.86454e-06
-5.60736e-05
-7.577e-05
-6.38282e-05
-0.000148669
3.48399e-05
-0.000166852
-1.43988e-05
9.00271e-05
-4.86613e-05
0.000316412
-1.69736e-05
8.99343e-05
-1.44708e-05
-0.00016678
3.48164e-05
-9.62954e-05
0.00032769
-0.000119147
-5.24706e-05
0.000254527
0.00025427
5.01595e-05
-0.000377429
-7.73972e-05
0.000724624
7.6058e-05
0.000752557
-0.000993257
4.18378e-05
0.00135894
-0.00156846
0.00109805
-1.53519e-05
-0.000749811
0.000648334
1.87978e-05
3.34153e-05
4.833e-05
5.0201e-05
-2.0513e-06
-0.000185002
-0.000341051
0.00406504
-0.00335391
0.0135989
-0.010111
0.00165694
0.0125842
-0.00030579
-0.0131021
0.00956905
-0.00717624
-0.0156112
-0.0130079
-0.0129741
-0.0134826
0.0222769
0.00432321
0.00301596
-3.46746e-05
-0.00766608
-0.0150649
-0.00705429
-0.0128339
-0.00705388
-0.0150657
-0.0076659
-0.0134831
0.0222767
-0.0130078
-0.0129744
-0.0156117
-0.00717629
0.00956898
-0.0131023
0.0199164
-0.0204631
0.0135986
0.00165731
0.0125845
-0.0101111
0.00628946
0.0145934
0.0103015
0.00763164
0.0179164
0.00634665
0.00402628
0.0108485
-0.0113474
-0.0113472
0.00402629
0.00634615
0.0179162
0.00763158
0.0103011
0.0128893
0.0145947
0.00629046
0.00803299
0.00687532
-0.00387462
0.0185805
0.0207266
0.0212519
0.0171204
0.0172579
0.0190527
0.0172583
-0.0311406
0.000488856
0.000489306
-0.00894085
0.0171202
0.0212519
0.0207268
0.0185812
0.00687496
0.00803294
0.00609817
-0.000444873
-0.000269843
-0.000168872
-0.00667918
-0.0087327
-0.00843837
-0.0195894
-0.0231745
0.00428631
-0.00859991
0.0193774
-0.0150671
0.0127019
-0.00993261
0.00803311
-0.00611234
0.00478151
-0.00350784
0.00266255
-0.00187936
0.00138432
-0.000946572
0.000676639
-0.000472121
0.000485461
-0.000527589
0.000526869
-0.000482437
0.000386672
4.17973e-05
0.000323024
-0.000119284
0.000327781
-9.62464e-05
0.000112564
-2.02432e-05
1.88031e-05
3.34608e-05
4.82935e-05
5.00257e-05
-2.2657e-06
-0.00018528
-0.000341335
0.00406483
-0.00335384
-0.00126918
0.00211867
0.000586994
-0.00787066
-0.00787072
0.00211868
-0.00126907
0.000587108
-0.00351147
-0.0204633
0.0199165
-0.00143629
-0.0159155
0.00157613
-0.000878422
0.00202508
-0.000296356
-0.000335144
-0.00238985
-0.00115373
-0.00238981
0.00157583
0.0043231
0.00976224
0.00301606
-0.00241439
-0.00241426
0.00976238
0.000542266
-0.00610165
0.00672337
0.0067233
-0.000160963
-0.00610163
0.000227279
0.00161275
0.00200177
0.00095341
-0.00905856
0.000951553
0.000325304
0.0134834
-0.00349253
0.00413547
-0.00714763
-0.00926887
-0.0199277
-0.0145859
0.0300508
-0.0157923
0.0190591
0.0190598
0.000453223
0.0144057
-0.000274637
-0.011143
0.00914476
-0.000130652
-0.00722329
0.00560029
-3.925e-05
-0.0043308
0.00321855
2.44132e-08
-0.00241382
0.00172467
1.38442e-05
-0.00126032
0.000862041
1.53187e-05
-0.000637027
0.000405878
1.6929e-05
-0.000371384
-4.75573e-05
-0.000329396
-0.000329399
3.0065e-05
-5.66776e-05
1.92127e-05
-8.84514e-05
-3.01315e-06
5.59284e-05
5.59161e-05
-6.77405e-05
-1.07992e-06
6.71437e-05
6.71395e-05
-5.04778e-05
9.14452e-06
0.00011268
0.000112628
-2.46519e-05
2.49561e-05
-5.1941e-05
-5.20748e-05
-8.68245e-05
-4.80749e-05
-7.13681e-05
-7.86617e-05
-0.000120002
-4.87044e-05
8.73982e-05
-0.000137332
1.74053e-05
6.1987e-05
0.000189267
-0.000120346
-6.04683e-05
-1.03476e-05
-0.000108126
3.60717e-07
0.000108009
-0.000181869
-4.16203e-07
1.90449e-05
0.000180668
-1.88202e-05
1.0327e-06
1.79377e-05
2.14543e-06
6.97504e-06
1.59473e-05
3.08047e-05
5.99631e-05
0.000127045
0.000161227
5.67241e-05
-0.0193173
0.0205228
-0.0212187
0.0186223
-0.0151471
0.012702
-0.0101925
0.00807907
-0.00631247
0.00478504
-0.00364513
0.00264327
-0.001966
0.00135907
-0.000993322
0.000648469
1.92648e-05
-0.000536326
-0.000537462
-0.000377247
0.000525168
9.27615e-05
0.000525353
-0.000789905
-0.00109391
-0.00109563
0.00150821
0.00148189
0.000137611
-0.00210409
6.42247e-05
-0.00196607
-2.99903e-05
0.00218755
-0.00218426
-6.668e-06
0.00296813
-0.0027853
0.00202491
7.09791e-06
0.00153012
-3.87614e-06
-0.00109801
0.000732
-2.23962e-06
0.00052686
-3.85832e-06
-0.000199218
3.61948e-06
-1.88067e-05
8.74015e-05
-4.87192e-05
-0.000120001
-7.86528e-05
-7.13341e-05
-4.80799e-05
-8.66991e-05
4.57744e-05
-2.46577e-05
4.02663e-06
-0.00015714
6.19433e-05
2.7966e-06
1.74045e-05
0.000189271
-0.000137306
0.000180663
1.90498e-05
-6.57535e-06
-5.04757e-05
1.12622e-05
2.60539e-05
5.30945e-05
9.00466e-05
0.00012721
0.000129521
2.75404e-05
-0.000128715
0.0023935
-0.00258762
-0.00599505
-0.00447917
-0.00191176
0.000988698
-0.000163636
-0.00030533
-0.00144556
-0.0159154
-0.000878337
0.00202493
-0.000160733
0.00010037
0.000274757
-0.0107501
0.0100351
-0.0131131
0.00383127
-0.0330905
0.00375968
-0.0131571
-0.000148333
0.0129171
0.0127805
-0.0155961
-0.000190021
0.00140909
0.00459245
-0.000224407
-0.00517537
-0.00946951
-0.0113917
-0.0013896
-0.00234747
-0.00316919
-0.00126372
-0.000476561
-0.00101422
-0.000741962
-0.00047006
-0.000552668
-6.26112e-05
-0.000373495
8.28447e-05
0.015354
-0.0167629
0.0141645
-0.0146344
-0.000346704
0.01664
-9.52812e-05
-0.000173021
-0.000335264
-0.000296592
-0.00351151
-4.79449e-05
-0.000540558
0.000227625
-0.00410585
-3.4613e-05
0.00695542
-0.00275731
-0.0110787
-0.00145178
0.000989472
-0.000215345
-0.000915435
-0.000891847
-0.000641886
-0.000408916
-0.000248936
-0.000147004
-7.26238e-05
3.9829e-06
8.84552e-05
8.84607e-05
9.12777e-05
-3.07506e-05
-8.04736e-05
-0.000156483
-0.000281356
-0.000300753
2.53505e-05
-0.000281487
-0.00017034
-9.7763e-05
-0.000152413
4.49905e-05
5.38916e-05
0.00375801
-0.0040605
0.00296808
-0.00304449
-5.41516e-05
0.00406878
-0.00550346
-9.61487e-05
0.00704912
-0.00929254
-0.000176788
0.0113359
-5.14327e-05
-0.011356
0.00902625
-9.68512e-06
0.010449
-0.0132945
-2.39692e-05
1.78479e-05
-0.000100713
-4.86411e-05
-2.55961e-05
-0.00704061
0.00535845
3.55227e-06
0.00649891
-0.00848484
-7.30988e-05
8.75165e-05
-3.33209e-07
-5.02699e-05
-3.99074e-05
0.0125583
0.000609916
-0.00143638
0.00807172
-0.000359163
-0.000529403
0.00270246
0.00843868
0.012409
0.00402363
0.00295386
0.000622397
-0.000305996
0.00062485
0.000359884
8.15733e-06
6.01294e-06
3.02238e-06
8.15745e-07
-5.04324e-05
-6.58799e-05
4.14998e-05
3.44486e-05
0.00202492
-0.00218433
0.00153017
-0.00156853
-3.00746e-05
0.00218762
-6.76635e-06
-9.95866e-06
-2.20445e-05
-1.28355e-05
3.55902e-06
7.35969e-06
-0.00278554
-4.75623e-05
-9.50381e-05
0.00321846
-4.79473e-05
-0.00433129
-3.94951e-05
0.00560034
-0.000127297
-0.00722361
-0.000130966
0.00914432
-0.000299844
-0.0111428
-0.000275624
0.0144055
-0.000618569
-0.0155351
-0.000876688
0.0250358
0.0171695
-0.00321765
0.000689581
0.000689504
0.0250362
-0.000876583
-0.0155351
-0.00321753
-0.0157916
0.00413579
0.0300505
-0.0021377
-0.0145856
-0.0199265
-0.00926846
-0.0231755
-0.00714754
-0.00275712
0.00695545
-0.00410601
0.000951905
0.00200233
-0.00905846
0.000953628
-0.00144566
-0.000540959
-0.000866015
-0.000314825
-9.7868e-05
-0.000201419
0.000189115
-0.000620637
0.00045321
-0.0139992
0.0124404
-0.00989205
0.00786497
0.00786469
1.60223e-08
-0.00626457
1.47162e-05
0.00467482
-4.79802e-06
-0.00364525
4.56181e-05
0.00258918
-3.79158e-06
-0.00197498
5.58227e-05
0.00132865
-5.25136e-06
-0.00101324
6.59305e-05
0.000628897
-1.12545e-05
-0.000522992
8.83456e-05
0.000263651
3.42849e-05
0.000263632
-4.75646e-05
-0.00037141
1.69225e-05
0.000405881
2.11271e-05
-0.000637032
1.53295e-05
0.000862023
1.1622e-05
-0.00126036
1.38038e-05
0.00172459
-8.55733e-06
-0.00241385
-1.05793e-07
4.55459e-05
0.00258915
-4.02129e-05
-0.00197484
0.00132859
-0.00101321
0.000628898
3.10152e-05
-0.000522989
8.83122e-05
-2.40866e-05
-3.37588e-05
6.59304e-05
-6.79812e-05
-0.000104232
-0.000167719
-0.000259114
-0.000316087
-0.000148972
0.000193405
0.000193743
-0.0110784
-0.0113915
-0.00138948
-0.000149857
-0.0139986
-0.000705255
0.0124403
6.3248e-05
-0.00989188
-0.000123402
-0.000162417
-0.00055688
6.29703e-05
-0.000564498
-0.000426671
-1.24726e-07
-0.00626447
0.00467501
-0.0036454
-4.91831e-06
-0.000292518
-0.000105318
-0.000179412
-3.84714e-06
-9.70142e-05
-5.26758e-06
4.65541e-06
-4.45162e-05
-1.12515e-05
2.58782e-06
-9.94456e-05
1.92234e-05
-5.66671e-05
0.000106139
4.0677e-05
4.06693e-05
0.000106141
4.95826e-05
-1.26836e-05
8.68491e-05
-0.00018869
-1.13974e-05
1.11932e-06
0.000139349
1.31888e-05
-8.92928e-05
4.71618e-05
0.000121797
8.30228e-05
0.000116967
6.07169e-05
-1.34884e-05
-1.42549e-05
-1.36051e-05
-3.46008e-06
8.31996e-05
-1.36078e-05
4.9589e-05
8.68703e-05
-1.2682e-05
-3.25494e-05
-1.13747e-05
0.000139359
1.11606e-06
-1.93839e-05
-4.3077e-07
-0.000181877
0.000108016
3.42719e-07
-0.000108127
-1.03441e-05
9.85218e-08
-1.424e-05
-1.07362e-05
3.37745e-05
-3.25567e-05
-2.31344e-05
-1.02763e-06
9.19658e-06
1.03478e-07
-1.54291e-07
1.33735e-07
-1.03099e-06
3.37808e-05
-8.84592e-05
-2.31054e-05
-2.40927e-05
2.88784e-06
6.31463e-06
1.10466e-05
1.78304e-05
3.21173e-05
7.57525e-05
-7.08716e-05
-0.00070436
-7.08694e-05
0.000161064
-0.000618232
0.0193777
5.64882e-05
0.0153545
-2.37183e-05
0.014165
-5.1736e-05
0.0113369
-0.000176963
-0.0092923
0.00807965
7.93728e-05
0.005032
0.00502647
0.000334985
-0.0063131
0.0083045
0.00836575
0.000344829
-0.00996177
-3.14012e-05
-0.0101939
0.012702
-0.0146345
0.0166397
-0.000346205
-0.0151481
-0.000189557
0.0127796
0.0129176
-0.000148811
-0.0155956
0.0186231
-0.0212187
-9.50413e-05
-0.016763
0.0205229
-0.0193171
0.0125587
0.000274842
-0.01075
-0.000417074
0.0100353
-0.000753203
-0.0131134
-0.00987523
0.00383121
0.00376045
-0.0330914
0.0124097
0.0119423
0.00150728
-0.000546793
-0.0098767
-0.000248753
0.00925624
0.00925754
-0.00081661
-0.00942848
0.000344945
0.0083648
0.00830558
-0.00996172
-3.20956e-05
-0.00631314
0.000335265
0.00502619
0.00503242
7.91751e-05
-0.00377081
0.000230267
0.00282467
0.00284911
8.52157e-05
0.000209337
0.000116111
5.66936e-05
1.24037e-05
-4.57989e-07
-1.24675e-05
-9.94306e-06
3.39868e-05
1.987e-05
0.00101764
-0.00109803
0.000732074
-0.000749878
-1.53167e-05
0.00109812
-3.9215e-06
-4.66561e-06
-2.17594e-06
-2.26233e-06
4.70292e-11
-1.75826e-06
-0.000213689
-9.37835e-05
3.0122e-05
6.50471e-05
5.2278e-05
1.0451e-05
1.84942e-07
-3.30764e-07
1.9164e-06
-1.54549e-05
-2.84761e-05
-5.00609e-05
-8.22922e-05
-0.000129219
-0.000195627
0.000145029
0.00120367
0.00209154
0.00117898
0.000549701
-9.86237e-06
-0.000121012
-0.000110052
-0.00611768
-0.00444642
0.000379465
0.00362585
0.00362664
-0.000363381
-0.00269231
0.000270608
0.0020334
0.00203382
-0.000229508
-0.00208227
0.000137772
0.00148193
0.00150836
-0.00210418
6.42293e-05
-4.60753e-05
0.000266689
0.000666442
0.000363571
0.000122316
-4.77181e-05
-6.57531e-05
-0.00109396
7.6044e-05
0.000724766
0.000752606
-0.00109555
4.17909e-05
-4.16093e-05
4.12187e-05
0.000182115
7.33171e-05
-8.46424e-06
-5.21646e-05
-2.73062e-05
-5.16765e-05
-1.90811e-05
-9.63282e-05
-0.000118207
-0.000106266
-9.16114e-05
-0.00011053
-0.00011757
-9.64157e-05
0.00012218
-0.000114171
7.32605e-05
7.93026e-05
-4.10202e-05
-7.74048e-05
-2.34496e-05
1.84233e-06
5.49884e-06
-0.000681812
-1.58183e-05
3.14857e-06
7.09916e-06
-0.00143258
-3.179e-05
-5.81268e-05
5.5853e-05
-5.81021e-05
-9.50457e-05
-0.000138837
5.99042e-05
0.000126993
-0.000300285
0.0127021
-1.46651e-05
0.0104494
-9.47123e-06
0.00902619
-2.57565e-05
0.00704957
-9.63675e-05
-0.0055035
0.00478538
8.53546e-05
0.00284887
0.00282494
0.000230109
-0.00377044
-0.00369956
-0.000363519
-0.00269164
-0.000121178
0.00121788
0.00216549
0.00416585
-3.08551e-05
-3.07963e-05
0.00150706
-0.000546672
-0.0131586
-0.00987508
-0.000322224
0.000100398
1.77342e-05
-0.000173065
-0.00010085
-0.000107712
2.2884e-07
-0.000162323
-0.00012351
-0.000138841
1.48053e-05
1.9843e-06
-5.25908e-05
-2.4497e-05
-1.1339e-05
-5.56746e-06
-2.65073e-06
-2.67263e-07
1.47406e-05
1.79454e-05
2.14473e-06
7.00303e-06
1.59424e-05
3.07486e-05
-4.76406e-05
0.00478124
-6.60685e-05
0.00375822
7.41579e-06
-0.0040605
-1.28468e-05
0.00406873
-5.41672e-05
-0.00304448
0.00264332
-0.00364534
-8.24477e-05
5.37001e-05
4.51527e-05
-0.000281389
-0.000470054
-0.000740921
-0.000314352
-0.000258159
-0.000167117
-0.000103842
-0.000156623
-8.05378e-05
-6.77339e-05
-4.02326e-05
-3.07007e-05
9.12927e-05
6.51327e-05
5.23414e-05
-0.000472089
-1.58029e-05
0.000485457
-1.74407e-06
0.000194894
1.91037e-06
1.03379e-06
-2.17913e-06
-4.66329e-06
-9.96212e-06
-2.2112e-05
-4.8571e-05
3.11587e-07
1.94329e-06
3.41232e-06
-0.00503566
0.00535842
-0.00704081
0.00649944
-0.00611243
-7.32481e-05
0.00803296
-0.000127422
-0.00993265
-6.18625e-05
-0.000372788
-0.0150674
-0.00316819
-0.00860027
0.00807239
-0.00844019
-0.0195879
0.00428657
-0.00946743
-0.0051747
-0.00873219
-0.00667869
0.000610078
-0.000169794
-0.000262191
-0.000446733
-0.00052983
0.00609791
0.00459189
-0.000223789
-3.95067e-05