/*--------------------------------*- C++ -*----------------------------------*\
| =========                 |                                                 |
| \\      /  F ield         | OpenFOAM: The Open Source CFD Toolbox           |
|  \\    /   O peration     | Version:  2306                                  |
|   \\  /    A nd           | Website:  www.openfoam.com                      |
|    \\/     M anipulation  |                                                 |
\*---------------------------------------------------------------------------*/
FoamFile
{
    version     2.0;
    format      ascii;
    arch        "LSB;label=32;scalar=64";
    class       volScalarField;
    location    "1.2";
    object      gradTz;
}
// * * * * * * * * * * * * * * * * * * * * * * * * * * * * * * * * * * * * * //

dimensions      [0 -1 0 1 0 0 0];

internalField   nonuniform List<scalar> 
2658
(
-0.0711515
-0.0680076
-0.0461853
-0.0416916
-0.0531914
-0.054372
-0.0464834
-0.04496
-0.0416565
-0.054216
-0.0566747
-0.0466489
-0.0638101
-0.060157
-0.0615841
-0.0632679
-0.0614874
-0.0631275
-0.061482
-0.0593492
-0.0627337
-0.0565177
-0.0643593
-0.0480436
-0.0757672
-0.0626654
-0.0563827
-0.0656031
-0.0674533
-0.0561679
-0.0674527
-0.0563827
-0.0626648
-0.0643585
-0.0757671
-0.0480428
-0.0602448
-0.0871164
-0.056517
-0.0627353
-0.05935
-0.0614821
-0.0631268
-0.0893916
-0.0548067
-0.0542079
-0.0566749
-0.0893467
-0.0632688
-0.0615845
-0.0601564
-0.0638106
-0.0571677
-0.0904527
-0.0638672
-0.0616605
-0.0893471
-0.0544541
-0.048543
-0.0631928
-0.0893481
-0.0616614
-0.0638678
-0.090453
-0.0565945
-0.0467417
-0.0565295
-0.0496461
-0.0537357
-0.0537345
-0.0422466
-0.045526
-0.0341056
-0.0379307
-0.0281298
-0.0375532
-0.0378192
-0.0280896
-0.0308576
-0.0302107
-0.0378217
-0.0340877
-0.0452872
-0.0466319
-0.0392631
-0.0263774
-0.0166646
-0.00982287
-0.00539829
-0.00277282
-0.00135303
-0.000875034
-0.000649554
-0.000549817
-0.000556084
-0.000646777
-0.000545204
-0.000810089
-0.000545243
-0.000551416
-0.000813156
-0.000558399
-0.000639309
-0.000668879
-0.000568108
-0.000652793
-0.000477981
-0.000895022
-0.000508365
-0.000725201
-0.000668893
-0.000549643
-0.000743921
-0.000549623
-0.000668899
-0.00072522
-0.000568134
-0.000652796
-0.000639313
-0.000668882
-0.00055836
-0.000813098
-0.000551408
-0.000545231
-0.000575061
-0.000577709
-0.0005498
-0.000646808
-0.000545205
-0.000556102
-0.000815078
-0.000555246
-0.000664601
-0.000551994
-0.000721783
-0.000533761
-0.000525059
-0.000660791
-0.000555247
-0.000555264
-0.000525036
-0.000533758
-0.000575865
-0.0005987
-0.000749047
-0.000598426
-0.000714354
-0.00072324
-0.000492493
-0.000494901
-0.000460437
-0.000664716
-0.00068303
-0.000414051
-0.000574411
-0.000550994
-0.000501341
-0.000545193
-0.000503952
-0.00053711
-0.000552925
-0.000513513
-0.000553147
-0.000535192
-0.000499055
-0.000540085
-0.000496514
-0.000571479
-0.000908111
-0.000889167
-0.00142701
-0.00213998
-0.0030918
-0.0043839
-0.00616314
-0.00845676
-0.01146
-0.015205
-0.0198498
-0.0254744
-0.0320406
-0.0397303
-0.0482752
-0.0563214
-0.0544588
-0.0534253
-0.0539694
-0.0542152
-0.0531907
-0.0416909
-0.0543726
-0.0565287
-0.0467417
-0.0565945
-0.046649
-0.0755707
-0.039263
-0.0263773
-0.0166645
-0.00982279
-0.00539823
-0.00277276
-0.001353
-0.000875038
-0.000649559
-0.00046098
-0.000506942
-0.000878893
-0.00052073
-0.000520734
-0.000506951
-0.00046098
-0.0008789
-0.000477775
-0.000577701
-0.000575066
-0.000644564
-0.000552342
-0.000649294
-0.000462852
-0.000476783
-0.000665729
-0.000884218
-0.000876357
-0.000919641
-0.000876344
-0.000649291
-0.000477973
-0.000523407
-0.000895024
-0.000550291
-0.000550292
-0.000523406
-0.000690339
-0.000511931
-0.000517767
-0.000517764
-0.000876399
-0.000511931
-0.000627761
-0.000568549
-0.00055784
-0.000515017
-0.000592195
-0.000558678
-0.000583867
-0.000859197
-0.000825326
-0.00059994
-0.000786944
-0.000543406
-0.000460441
-0.00057025
-0.000675709
-0.00116872
-0.00153927
-0.00153927
-0.00119568
-0.00226301
-0.00170119
-0.00323685
-0.00462632
-0.00342883
-0.00642111
-0.00887482
-0.00648683
-0.0119337
-0.0158928
-0.0114469
-0.0206835
-0.026526
-0.0188325
-0.0334226
-0.0412821
-0.028883
-0.0500883
-0.0608316
-0.0428762
-0.0673334
-0.0471792
-0.0611684
-0.0611682
-0.0656021
-0.0665697
-0.0588886
-0.0544642
-0.0790222
-0.0519615
-0.0519619
-0.0523866
-0.0790946
-0.0530576
-0.0530578
-0.0505381
-0.0782385
-0.0647074
-0.0647071
-0.0762486
-0.10858
-0.0762488
-0.0775061
-0.107349
-0.0773132
-0.0899295
-0.0766094
-0.074809
-0.0617036
-0.0718088
-0.0853329
-0.0788168
-0.0505381
-0.0483476
-0.07741
-0.0619842
-0.0775341
-0.107353
-0.0773627
-0.0857121
-0.0783925
-0.0792045
-0.0783921
-0.07741
-0.0617034
-0.0748093
-0.0773111
-0.10735
-0.0775054
-0.0718097
-0.085333
-0.0857121
-0.077366
-0.107352
-0.0775351
-0.061984
-0.0717441
-0.0767492
-0.108661
-0.0763438
-0.0649243
-0.0783458
-0.0504912
-0.0647685
-0.0719691
-0.0729277
-0.0415421
-0.0280252
-0.0177446
-0.0104741
-0.00576237
-0.00296154
-0.00144521
-0.00139314
-0.00139832
-0.00138512
-0.00138711
-0.00139694
-0.00203596
-0.00296536
-0.004165
-0.00591001
-0.00804446
-0.0109975
-0.0144793
-0.0190758
-0.0242728
-0.0308576
-0.0378184
-0.0466322
-0.0416557
-0.0449601
-0.0464827
-0.045527
-0.037769
-0.0286767
-0.0377694
-0.0303417
-0.030794
-0.0299642
-0.0238414
-0.024338
-0.0176622
-0.018595
-0.0176309
-0.0242735
-0.0223379
-0.0242084
-0.0240911
-0.0179803
-0.0188603
-0.0188398
-0.0242166
-0.0223387
-0.0304397
-0.0285666
-0.0375077
-0.0457834
-0.0421327
-0.0539693
-0.0496951
-0.0542083
-0.089347
-0.0717443
-0.064768
-0.050491
-0.073001
-0.0524477
-0.0436137
-0.0409888
-0.0277342
-0.0175585
-0.0103606
-0.00569692
-0.00292718
-0.00143036
-0.000884217
-0.000665717
-0.000476778
-0.000876388
-0.00046284
-0.000552342
-0.000644562
-0.000984066
-0.000862513
-0.000861291
-0.000858663
-0.000868887
-0.000793809
-0.000555453
-0.000931795
-0.00141099
-0.00139498
-0.00208579
-0.00194811
-0.0013587
-0.00137186
-0.00148167
-0.000823417
-0.000827577
-0.000820225
-0.000761468
-0.000813634
-0.00153379
-0.0014856
-0.00103212
-0.00148491
-0.00308459
-0.00311083
-0.00312973
-0.00608479
-0.00614256
-0.00445953
-0.00218818
-0.00211427
-0.00201785
-0.00202796
-0.00293494
-0.00293143
-0.00200238
-0.00202232
-0.00140763
-0.00148755
-0.00308227
-0.0060994
-0.00609524
-0.0111935
-0.0112858
-0.0110652
-0.0187745
-0.0193088
-0.0149662
-0.00846799
-0.00822523
-0.00800673
-0.00799351
-0.0108852
-0.0108425
-0.00768324
-0.00800093
-0.00583457
-0.00405358
-0.00413867
-0.00291863
-0.0041414
-0.00585137
-0.00406088
-0.00413968
-0.00295413
-0.00200577
-0.0022634
-0.00217593
-0.00226299
-0.00116077
-0.00158662
-0.00083903
-0.00103957
-0.000537692
-0.000854484
-0.00103329
-0.00106617
-0.000986731
-0.00101501
-0.00101446
-0.000981751
-0.0010572
-0.000762624
-0.000810693
-0.00152599
-0.0014589
-0.00221993
-0.00211119
-0.00307295
-0.00607718
-0.0111798
-0.0112216
-0.0191954
-0.0191167
-0.0304583
-0.0308618
-0.0297338
-0.0438503
-0.0464652
-0.0379279
-0.0246663
-0.0241478
-0.0242159
-0.0240904
-0.0304396
-0.0302103
-0.022338
-0.024208
-0.0187623
-0.0135735
-0.014415
-0.0105348
-0.0143792
-0.0188601
-0.0135834
-0.0144237
-0.0108971
-0.00769384
-0.00856544
-0.00454886
-0.00435919
-0.00462623
-0.00241751
-0.00323674
-0.00170117
-0.00173725
-0.00317328
-0.00450434
-0.00626082
-0.00626073
-0.00473289
-0.00859913
-0.00659932
-0.0115915
-0.00862602
-0.0153738
-0.0116268
-0.0200298
-0.0146715
-0.0256301
-0.0190801
-0.0322851
-0.0232766
-0.0397472
-0.0291436
-0.0486829
-0.0344239
-0.0563789
-0.0418209
-0.0697704
-0.0572836
-0.0697703
-0.0471792
-0.0673321
-0.0428758
-0.0608316
-0.03447
-0.0500874
-0.0288827
-0.0412818
-0.0234338
-0.0334222
-0.0188325
-0.0265261
-0.014768
-0.0206833
-0.0114466
-0.0158928
-0.00866918
-0.0119333
-0.0064867
-0.00887484
-0.0047404
-0.00642088
-0.00342875
-0.00349347
-0.00452855
-0.0023051
-0.00116908
-0.000726285
-0.00066184
-0.000883005
-0.0016224
-0.00317873
-0.00607414
-0.0109632
-0.0185048
-0.0291182
-0.0425503
-0.0558765
-0.0662084
-0.0646951
-0.064695
-0.0592757
-0.0701354
-0.0539437
-0.0456377
-0.067531
-0.0475954
-0.055284
-0.049689
-0.0508636
-0.0494624
-0.0418207
-0.0563781
-0.0344234
-0.0486828
-0.0403506
-0.0416702
-0.0281096
-0.0232761
-0.0322852
-0.0397461
-0.029144
-0.0358083
-0.0234998
-0.01908
-0.0256295
-0.0146713
-0.0200302
-0.0171267
-0.0177963
-0.010514
-0.00579658
-0.00473281
-0.0085988
-0.0115918
-0.0153733
-0.0116264
-0.0143716
-0.00819358
-0.0060797
-0.00312887
-0.00154004
-0.00147947
-0.00119568
-0.00225111
-0.00142605
-0.00225112
-0.00173725
-0.00317328
-0.00243358
-0.00450454
-0.00349351
-0.00435922
-0.00299337
-0.0024335
-0.0028588
-0.00217593
-0.0010333
-0.00103957
-0.000839051
-0.00158667
-0.000854513
-0.00116873
-0.000599928
-0.000675708
-0.000779184
-0.000570264
-0.000460443
-0.000543395
-0.000571474
-0.000786972
-0.000589371
-0.00053693
-0.000629884
-0.000558661
-0.000557815
-0.000592205
-0.000514968
-0.000611109
-0.000564582
-0.000579238
-0.000564582
-0.000515941
-0.000810078
-0.00061112
-0.000627772
-0.000629891
-0.00050836
-0.000536933
-0.000589362
-0.000629441
-0.000556999
-0.000516123
-0.00061385
-0.000595283
-0.000561019
-0.000615356
-0.000491415
-0.000648785
-0.000651711
-0.000929088
-0.000567044
-0.000687032
-0.000903469
-0.000917066
-0.000700121
-0.00154009
-0.00312729
-0.00607804
-0.011044
-0.0110463
-0.0187102
-0.0295397
-0.0436888
-0.0697937
-0.0645368
-0.0998756
-0.0588884
-0.066571
-0.0927148
-0.0771717
-0.0771698
-0.0927152
-0.0982254
-0.0587336
-0.0787959
-0.0761187
-0.0777814
-0.0490927
-0.0629696
-0.0710626
-0.0781065
-0.107764
-0.0783534
-0.0909248
-0.0743624
-0.0845012
-0.0778807
-0.0798984
-0.0803161
-0.0859164
-0.10304
-0.0803187
-0.0982256
-0.0787974
-0.058733
-0.0516868
-0.077781
-0.062969
-0.0490924
-0.0498451
-0.0783459
-0.0649255
-0.0763426
-0.10866
-0.0767502
-0.0851779
-0.0795399
-0.0798984
-0.0807128
-0.0800631
-0.0516864
-0.0758818
-0.0777223
-0.0845987
-0.0795415
-0.0776424
-0.0851779
-0.0767767
-0.078817
-0.0483477
-0.073001
-0.0524477
-0.0496949
-0.0530978
-0.045798
-0.030613
-0.0373221
-0.0378497
-0.0375068
-0.0457841
-0.0452865
-0.0340878
-0.0378214
-0.0285659
-0.0374641
-0.0306031
-0.0191424
-0.0242079
-0.0146058
-0.00822272
-0.00430913
-0.00431418
-0.00587144
-0.00569805
-0.00453088
-0.0040166
-0.00287293
-0.00420725
-0.0059058
-0.00563898
-0.00808194
-0.00779684
-0.00578766
-0.00561843
-0.0107459
-0.0103378
-0.0145214
-0.0141111
-0.0103141
-0.0185949
-0.017662
-0.0243381
-0.0238412
-0.0176308
-0.029964
-0.0281296
-0.0379311
-0.0375528
-0.0280897
-0.0392727
-0.0459738
-0.0679877
-0.0675285
-0.061489
-0.0529088
-0.0487771
-0.0564863
-0.04637
-0.0461851
-0.0308115
-0.0192957
-0.0112862
-0.00615708
-0.00313871
-0.00305081
-0.00435264
-0.00406263
-0.0041737
-0.00296048
-0.00417391
-0.00586371
-0.00578644
-0.0080302
-0.00802993
-0.00586389
-0.00568046
-0.00292576
-0.00144397
-0.00109183
-0.000983557
-0.00100779
-0.000914242
-0.000697501
-0.000914335
-0.00145041
-0.00145524
-0.00206262
-0.00206243
-0.00145052
-0.00109258
-0.0011251
-0.000663026
-0.000662981
-0.000535404
-0.000611732
-0.00112514
-0.000931831
-0.000555415
-0.000793824
-0.00135869
-0.00139505
-0.00194826
-0.00208571
-0.00141111
-0.00100781
-0.00109183
-0.00106617
-0.00144523
-0.00116078
-0.00142702
-0.00139314
-0.00201787
-0.00200577
-0.00293496
-0.00291875
-0.0041388
-0.00405369
-0.00583462
-0.00591007
-0.0056187
-0.00779722
-0.00808195
-0.0056393
-0.00578775
-0.00401687
-0.00420719
-0.00287308
-0.00291365
-0.00285287
-0.00416514
-0.00296539
-0.00293146
-0.00202237
-0.00200244
-0.00203603
-0.00137193
-0.00139696
-0.00138712
-0.00140764
-0.002028
-0.00138514
-0.00139834
-0.000862515
-0.000986724
-0.000861284
-0.000528342
-0.000858681
-0.000983549
-0.00086887
-0.000489504
-0.000537106
-0.000552918
-0.000981747
-0.0010145
-0.00101502
-0.00103216
-0.00081365
-0.000726299
-0.0011691
-0.00230514
-0.00153378
-0.00312997
-0.00452866
-0.0084504
-0.00608518
-0.0110658
-0.0147676
-0.0147674
-0.00845018
-0.00659916
-0.024069
-0.0240693
-0.0187751
-0.0297341
-0.0365028
-0.0365016
-0.0505438
-0.0505446
-0.0438504
-0.0592765
-0.070143
-0.0539438
-0.0563234
-0.0418667
-0.0544586
-0.0496891
-0.0548068
-0.0487771
-0.0719692
-0.0729278
-0.0415423
-0.0280253
-0.0177447
-0.0104742
-0.00576243
-0.00296157
-0.00241756
-0.00309184
-0.00289719
-0.00413974
-0.00406102
-0.0058514
-0.00574419
-0.00800115
-0.00768326
-0.0108427
-0.0109976
-0.0103144
-0.0141114
-0.0145212
-0.010338
-0.0107459
-0.0109877
-0.00769227
-0.0108802
-0.0105856
-0.0144385
-0.0144384
-0.0108804
-0.00769233
-0.0109874
-0.00825677
-0.00619661
-0.00317674
-0.00157587
-0.000843579
-0.00109271
-0.000810576
-0.000574028
-0.000414435
-0.000658762
-0.000721709
-0.000552071
-0.000664633
-0.000651681
-0.000555239
-0.000815056
-0.000503908
-0.000545178
-0.000929046
-0.000501323
-0.000550984
-0.000762539
-0.000823403
-0.00082754
-0.000820208
-0.000499051
-0.0005352
-0.000984063
-0.000553141
-0.00051354
-0.00050103
-0.000889178
-0.000537696
-0.000908109
-0.000540085
-0.000496485
-0.000761404
-0.00148494
-0.00148563
-0.0021883
-0.00214003
-0.00211436
-0.00295421
-0.00308473
-0.00311116
-0.00445968
-0.00438409
-0.00616326
-0.00569809
-0.00800695
-0.00769389
-0.0108973
-0.0108854
-0.0105352
-0.0144153
-0.0135732
-0.0187628
-0.0190759
-0.0144797
-0.0146061
-0.014593
-0.0144241
-0.0135836
-0.0143796
-0.0103607
-0.005697
-0.00292722
-0.00143037
-0.00226341
-0.00454888
-0.00856547
-0.00819361
-0.0143717
-0.015041
-0.015041
-0.0246063
-0.0223381
-0.030318
-0.0283022
-0.0374344
-0.0340666
-0.0454852
-0.0418661
-0.0385532
-0.0253307
-0.015469
-0.00880097
-0.0046702
-0.00232222
-0.00201487
-0.00296534
-0.00296488
-0.00296473
-0.00296559
-0.00201485
-0.00232223
-0.00467023
-0.00406269
-0.00590608
-0.00435285
-0.00216864
-0.00152605
-0.0031388
-0.00615734
-0.00825693
-0.00863279
-0.00453108
-0.00430937
-0.00431438
-0.00587157
-0.00609542
-0.00614298
-0.00846843
-0.0084571
-0.0114602
-0.0104426
-0.0152055
-0.0198498
-0.0178131
-0.0254754
-0.0320409
-0.0283031
-0.0378505
-0.0340668
-0.0454857
-0.0482755
-0.0344705
-0.039731
-0.023434
-0.037929
-0.0246669
-0.0149666
-0.0112868
-0.011194
-0.0191177
-0.0193109
-0.03046
-0.0308648
-0.0456395
-0.0464636
-0.067534
-0.0475955
-0.0602447
-0.0871176
-0.0743625
-0.0783527
-0.107763
-0.078107
-0.0710628
-0.0893923
-0.055285
-0.0529094
-0.0534264
-0.0409889
-0.0277344
-0.0175586
-0.018704
-0.0295152
-0.0374345
-0.0358083
-0.0234999
-0.0246064
-0.0253308
-0.0174941
-0.0103237
-0.015469
-0.00880102
-0.0135862
-0.0190515
-0.0188284
-0.0180532
-0.0242172
-0.024217
-0.0188284
-0.0135861
-0.0190512
-0.0146387
-0.0153211
-0.0111293
-0.00863265
-0.006039
-0.0253846
-0.019111
-0.0242472
-0.0307936
-0.0303419
-0.0223575
-0.0276351
-0.0408552
-0.0718525
-0.0686886
-0.0523867
-0.0722629
-0.0508637
-0.0494626
-0.0758823
-0.0544646
-0.0800627
-0.0777223
-0.0845982
-0.0845004
-0.0761206
-0.0909249
-0.0778815
-0.0776433
-0.0811239
-0.0755708
-0.0544538
-0.0530791
-0.0460755
-0.0374982
-0.0341055
-0.0530787
-0.0680074
-0.0711532
-0.0600868
-0.0676452
-0.063193
-0.0615458
-0.0496459
-0.0308504
-0.01936
-0.0113381
-0.0146389
-0.0112864
-0.0192954
-0.0242473
-0.0223577
-0.0253848
-0.0153214
-0.0111801
-0.00607749
-0.00307311
-0.00148172
-0.00148754
-0.00308235
-0.00609955
-0.00822571
-0.00799373
-0.011222
-0.0191959
-0.0241487
-0.0303182
-0.0373228
-0.0374638
-0.0242088
-0.0191427
-0.0306036
-0.0306143
-0.0457996
-0.0675305
-0.0530973
-0.0459755
-0.0679881
-0.0564871
-0.0392728
-0.0374987
-0.0308117
-0.0306678
-0.0463707
-0.0191126
-0.00822299
-0.00804471
-0.00211132
-0.00222005
-0.00105721
-0.00145907
-0.0030511
-0.00603954
-0.0111313
-0.0385532
-0.0306643
-0.0147682
-0.00866931
-0.00474059
-0.00414149
-0.00216857
-0.00291362
-0.00285276
-0.000516113
-0.000557001
-0.000629445
-0.00061536
-0.000572301
-0.000561024
-0.000595285
-0.000613862
-0.000515927
-0.000648782
-0.000491368
-0.000660788
-0.000683964
-0.00053538
-0.000611745
-0.000576051
-0.000658497
-0.0145923
-0.0188396
-0.017813
-0.0421316
-0.049845
-0.0722628
-0.0767731
-0.000477764
-0.000441645
-0.00862607
-0.0100744
-0.00553575
-0.027181
-0.0104421
-0.0179799
-0.0028971
-0.00574406
-0.000501048
-0.000528342
-0.000489469
-0.0766091
-0.0899294
-0.076726
-0.0774127
-0.0767245
-0.0571683
-0.0600877
0.000762568
0.000810669
0.00152596
0.00139499
0.00135867
0.00141097
0.0020858
0.00194807
0.00137183
0.00139693
0.00086887
0.000489473
0.000545229
0.000503996
0.000537139
0.000552949
0.000513572
0.000553175
0.000535233
0.000499109
0.000540136
0.000496608
0.000571499
0.000537687
0.000786963
0.000543424
0.000460454
0.000589353
0.00057025
0.000441681
0.000570244
0.000460442
0.000543416
0.000571502
0.000786969
0.000537692
0.000889164
0.000908085
0.000496585
0.000540126
0.000499108
0.000535236
0.000553168
0.000984069
0.000861258
0.00085865
0.000868848
0.000981717
0.000552951
0.00053713
0.000503987
0.000545228
0.000501429
0.000929046
0.000551006
0.000611737
0.00112512
0.000914327
0.000697478
0.00066301
0.00112507
0.000611734
0.00055098
0.000929083
0.000793784
0.000555421
0.000931773
0.00100782
0.00145054
0.0014504
0.00145523
0.0020624
0.00201485
0.00296532
0.00287295
0.0029136
0.00296533
0.00285271
0.00416488
0.00413858
0.00293137
0.00200237
0.0020223
0.0020359
0.00135299
0.00277273
0.00539818
0.00982272
0.0166644
0.0263772
0.0392627
0.0755706
0.0774097
0.061984
0.0775356
0.0717439
0.0767496
0.10866
0.076343
0.0781064
0.107765
0.0783522
0.0743624
0.0909246
0.0787957
0.0761188
0.0516863
0.0758816
0.0587333
0.0982253
0.0927145
0.0771717
0.103041
0.0771692
0.0927148
0.0982247
0.0787964
0.0761188
0.0743624
0.0909247
0.0783522
0.107762
0.0781063
0.0763431
0.0649243
0.0647684
0.0619838
0.071744
0.0767495
0.0775357
0.107351
0.0773655
0.0899298
0.0773106
0.107349
0.0775058
0.076248
0.0718096
0.0647072
0.0647073
0.0762483
0.0775061
0.107348
0.0773131
0.0899292
0.0766089
0.077363
0.107352
0.060156
0.0638094
0.0904526
0.0571675
0.0638676
0.0600868
0.0616609
0.0631928
0.0615453
0.0631929
0.0485431
0.054454
0.0544542
0.0893471
0.0616606
0.060086
0.0638676
0.057169
0.0638104
0.0601556
0.0615841
0.0632675
0.0614865
0.063127
0.0614815
0.0593489
0.0627331
0.0565186
0.0643577
0.0871167
0.0602446
0.0563224
0.048275
0.0397311
0.0320402
0.0254754
0.0198498
0.0152056
0.01146
0.00845699
0.00616319
0.00438405
0.00309182
0.00214002
0.00142699
0.00139833
0.00138511
0.00138711
0.00139692
0.00135866
0.00139501
0.0014111
0.000931794
0.000555422
0.000793793
0.000489498
0.000875035
0.00135301
0.00277279
0.00539824
0.00982279
0.0166645
0.0263772
0.0392628
0.0755705
0.0774097
0.0483476
0.0505378
0.0730008
0.0530577
0.0530574
0.0505379
0.0483475
0.0730008
0.0504909
0.0647677
0.0649246
0.0710625
0.0629686
0.0777809
0.0490924
0.0498449
0.0783457
0.071969
0.0729276
0.0697935
0.0729275
0.0777809
0.0516861
0.0544638
0.0758816
0.0588882
0.0588882
0.0544637
0.0790222
0.0519619
0.0523864
0.0523862
0.0722627
0.0519614
0.0777219
0.0807133
0.0798977
0.07788
0.084501
0.0803164
0.0859167
0.0998746
0.0645365
0.0471786
0.0757667
0.0626644
0.0563819
0.0674529
0.0611675
0.0697696
0.0563781
0.0563777
0.0344237
0.0500873
0.028882
0.0412817
0.0334222
0.0188325
0.0265258
0.0206833
0.0114467
0.0158927
0.0119335
0.0064867
0.00887477
0.00642102
0.00342876
0.00462623
0.00323676
0.00170113
0.00226296
0.00158662
0.000839025
0.00103954
0.000599934
0.000675674
0.000675676
0.000589346
0.000536935
0.000550288
0.000523403
0.000690323
0.00051192
0.000511919
0.000517756
0.000700098
0.000520722
0.000520718
0.000506937
0.000687008
0.00055523
0.000555245
0.000525032
0.000714354
0.000598423
0.000598703
0.000658738
0.000721742
0.000552125
0.000664741
0.000555323
0.00081517
0.00055615
0.000549822
0.000649555
0.000491372
0.000648789
0.000651735
0.000595301
0.000613876
0.00054527
0.000810247
0.000545308
0.000575061
0.000665707
0.000477764
0.00057769
0.000646748
0.000884226
0.000876352
0.00144522
0.00296154
0.00576239
0.0104742
0.0177446
0.0280252
0.041542
0.0418664
0.0544586
0.0534258
0.0539692
0.054215
0.0466321
0.0378181
0.0308574
0.0242729
0.0190757
0.0144795
0.0109975
0.00804458
0.00590995
0.00416506
0.00296534
0.002036
0.00137189
0.00194817
0.00208567
0.00206261
0.0029647
0.00296041
0.0029649
0.00417362
0.00420721
0.00401659
0.00578763
0.00590582
0.00563896
0.00779683
0.00561836
0.00590995
0.00405359
0.00583447
0.00585129
0.00574393
0.00799332
0.00800649
0.00587146
0.00406083
0.00414129
0.00291864
0.0029349
0.00202793
0.00140758
0.0013871
0.000983531
0.000858633
0.00098172
0.000646796
0.000556131
0.000815157
0.000555292
0.0006647
0.000552031
0.000721803
0.000658458
0.000576082
0.000525041
0.000533742
0.00066077
0.000491414
0.000460983
0.000649563
0.000648785
0.000549806
0.000577707
0.000477774
0.00087889
0.000506934
0.000903463
0.00144396
0.00292573
0.00568043
0.0103236
0.0174941
0.027635
0.040855
0.0718524
0.0782383
0.0792041
0.078392
0.0767745
0.085177
0.0776445
0.108659
0.0845975
0.0629698
0.0490924
0.0498446
0.0722626
0.0508635
0.0496888
0.0548068
0.0542077
0.0566748
0.0565946
0.046742
0.0565289
0.0543722
0.0416913
0.0464827
0.0449601
0.0531906
0.0416559
0.0459738
0.0679879
0.0675296
0.0675339
0.0701431
0.0592761
0.0438502
0.0464663
0.0539437
0.0456399
0.0304583
0.0308628
0.0297352
0.018775
0.0193099
0.0246673
0.0379276
0.0373219
0.0454856
0.0457831
0.0375069
0.0378212
0.0340876
0.0452865
0.0421322
0.0409887
0.0719689
0.0783454
0.050491
0.0788168
0.0795416
0.0777219
0.0800632
0.0587329
0.0665688
0.0656023
0.0646937
0.0662075
0.0558762
0.04255
0.0291179
0.018505
0.0109633
0.00607427
0.00317871
0.00162239
0.000882974
0.000661816
0.000726266
0.000726265
0.000813641
0.00153379
0.00312986
0.00608505
0.0110657
0.0112863
0.0149668
0.0191174
0.0111938
0.00609535
0.0061427
0.00846839
0.0082254
0.0108972
0.0108852
0.00799361
0.00800097
0.00768317
0.0108425
0.0144151
0.0135733
0.0187625
0.0242079
0.022338
0.0302105
0.0285658
0.0304396
0.0240906
0.0223388
0.0303183
0.0378493
0.0340666
0.0374343
0.0277341
0.0175584
0.0179801
0.0188601
0.0143793
0.0135834
0.0188398
0.0242159
0.0178132
0.0241483
0.0306135
0.0457983
0.0529085
0.0552844
0.0893916
0.0710625
0.0475953
0.0530973
0.0893463
0.0564867
0.0711518
0.0680077
0.0461858
0.046376
0.0392714
0.0374631
0.030603
0.0191424
0.0191955
0.0112218
0.00609941
0.00308225
0.00308466
0.00311088
0.00445967
0.00431421
0.00587148
0.00585132
0.0041414
0.00413867
0.00405363
0.00583458
0.00574407
0.00569693
0.0103606
0.010535
0.00856541
0.00769376
0.00800673
0.00569805
0.00819358
0.0119337
0.00866934
0.0158928
0.0114469
0.0206839
0.014768
0.0265261
0.0188329
0.0334231
0.0234339
0.0412816
0.0288827
0.0500879
0.0344703
0.0608311
0.0428759
0.0673319
0.0480428
0.0418209
0.0494623
0.0494623
0.0673319
0.0428758
0.0608311
0.0418207
0.0697702
0.0471786
0.0611676
0.0572833
0.0674532
0.0563821
0.0626646
0.0643582
0.0757669
0.065602
0.0665706
0.080063
0.0803172
0.0798992
0.0845004
0.0778782
0.0845974
0.0795398
0.0811239
0.0790944
0.0686884
0.0436136
0.0436886
0.0416701
0.0344237
0.0486821
0.039747
0.0322849
0.0256304
0.0256296
0.0146717
0.0200301
0.0116265
0.0153735
0.00862608
0.0115917
0.00659926
0.008599
0.0047328
0.00626084
0.00349353
0.00450438
0.00243354
0.00317326
0.00173719
0.00225107
0.0011957
0.00153926
0.000854475
0.00116871
0.000779167
0.00116871
0.000599925
0.00103954
0.000839026
0.00158667
0.00116079
0.00226299
0.00170118
0.00323682
0.00241755
0.00462628
0.00342876
0.00642107
0.00474049
0.00887492
0.00648682
0.00659934
0.00859906
0.00553582
0.00626075
0.0045045
0.00317322
0.00225112
0.00142606
0.00153928
0.000854495
0.00103329
0.00217592
0.00173723
0.0023051
0.0045287
0.00845052
0.0147679
0.0240697
0.0365022
0.0505438
0.0505435
0.0646947
0.0592763
0.0438494
0.0365017
0.0486828
0.0291435
0.0397461
0.0232759
0.0322853
0.01908
0.0234997
0.0281095
0.0232761
0.027181
0.0177963
0.0146716
0.0200298
0.0153739
0.0115916
0.0086261
0.010514
0.0100746
0.00579659
0.00473285
0.00299337
0.00243356
0.00285872
0.00147947
0.00119568
0.000825324
0.000859183
0.000550285
0.000536932
0.000668985
0.00054972
0.000549689
0.000668971
0.000725261
0.00050837
0.000568141
0.0006528
0.000649287
0.000462837
0.000552333
0.000644593
0.00055147
0.000813228
0.000558458
0.000668991
0.00063932
0.000592219
0.000514976
0.000557832
0.00055868
0.000583883
0.000744077
0.000558695
0.000725307
0.000568188
0.000508368
0.000477987
0.000649289
0.000552341
0.00046285
0.000476783
0.000665716
0.000575067
0.000545279
0.000810182
0.000545279
0.000613874
0.000564568
0.000557814
0.000568536
0.000629883
0.000477974
0.000895016
0.000627756
0.000611134
0.000564571
0.000515977
0.00057922
0.000627754
0.000629881
0.000523403
0.000895024
0.00103329
0.00154004
0.00312885
0.00607968
0.0110462
0.0187102
0.0295397
0.0358081
0.0291441
0.0358081
0.041542
0.0344705
0.056322
0.041866
0.0454853
0.0340666
0.0375064
0.0285657
0.0302101
0.0223375
0.0242077
0.0242725
0.0176307
0.0185946
0.0190512
0.0176619
0.0238408
0.0299637
0.0307935
0.0281292
0.0375523
0.028089
0.0308573
0.0378183
0.0378207
0.0452866
0.0340879
0.0466315
0.0416564
0.0449596
0.0464826
0.0416909
0.0531907
0.0542153
0.0539686
0.042132
0.0457833
0.0534254
0.054458
0.0552844
0.0496889
0.0548067
0.0487769
0.054208
0.0496949
0.0566745
0.0466488
0.0565946
0.0565293
0.0467413
0.0680076
0.0676448
0.053079
0.0496459
0.0537346
0.0422468
0.0455261
0.0455264
0.0341049
0.0379305
0.028129
0.0307936
0.0299639
0.0375521
0.0280895
0.0238411
0.0176622
0.0190514
0.0185948
0.0176311
0.0141113
0.010338
0.0109876
0.0107457
0.0103142
0.0111799
0.0060773
0.003073
0.00148165
0.00148754
0.0014849
0.00148563
0.00218832
0.00211431
0.0029542
0.00293493
0.00202799
0.00202231
0.00200236
0.00293144
0.00291867
0.00292718
0.00143036
0.00140759
0.00106616
0.000986722
0.000862485
0.000501046
0.000820196
0.000761413
0.00103212
0.00101497
0.000827533
0.000513607
0.000528337
0.00101445
0.00211121
0.00430922
0.00822277
0.0146058
0.0242081
0.025385
0.0306676
0.0308116
0.0192945
0.019111
0.0153212
0.0146384
0.0242469
0.0243377
0.0242167
0.0180533
0.0188282
0.0188283
0.013586
0.0144384
0.0105853
0.0108802
0.0108801
0.00769221
0.00808179
0.0056391
0.00590601
0.00578766
0.00779715
0.00561851
0.00863272
0.0111306
0.0112862
0.00615714
0.00603809
0.00453098
0.00435269
0.0042071
0.00287301
0.00296553
0.00291359
0.00401674
0.0028528
0.00221995
0.00305098
0.00313879
0.00152599
0.00145889
0.00105716
0.000823379
0.00076256
0.00081058
0.000574054
0.000414438
0.000492485
0.000460417
0.00049491
0.000414094
0.000574416
0.000535377
0.000683049
0.000843561
0.00157587
0.00216864
0.00201482
0.00232221
0.00226339
0.00200578
0.00201784
0.00139312
0.00454885
0.00406093
0.00413965
0.00289709
0.0043592
0.0034935
0.00435918
0.00819354
0.0143716
0.0177445
0.028025
0.0234337
0.0397299
0.0283021
0.0303177
0.0223383
0.02409
0.0179798
0.0187622
0.013573
0.0144147
0.0144791
0.010314
0.0107457
0.0109874
0.0103377
0.014111
0.0145211
0.013586
0.0144383
0.0146385
0.0193596
0.0308501
0.0460752
0.0374973
0.0374982
0.0530779
0.0496459
0.0543716
0.053735
0.0524477
0.0508636
0.0374343
0.0409887
0.0277341
0.0295151
0.0246063
0.0234999
0.01908
0.0143716
0.0116267
0.015041
0.018704
0.011044
0.006078
0.00312725
0.00154008
0.000917068
0.00091964
0.000876357
0.00144521
0.00296152
0.00576235
0.0104741
0.00866916
0.015205
0.0104422
0.010897
0.00769368
0.0108851
0.0105348
0.0108424
0.00768314
0.0080008
0.00804431
0.0109974
0.00822242
0.00822501
0.00846784
0.0110656
0.0187747
0.0297342
0.0240689
0.0147675
0.00845032
0.00452859
0.00608502
0.00312981
0.00230511
0.00116906
0.00153371
0.000813612
0.000761472
0.00103207
0.00142699
0.00139311
0.0013983
0.000986701
0.000861262
0.000528332
0.000884223
0.00143034
0.00292716
0.00569687
0.0103605
0.0175584
0.0246062
0.0150409
0.0135832
0.0144234
0.014379
0.0188599
0.0188395
0.0198496
0.0178125
0.0254746
0.0147679
0.0320404
0.0246658
0.0379268
0.0482748
0.0539446
0.0602446
0.0475952
0.0627349
0.0565167
0.0871166
0.070137
0.0675305
0.0593485
0.0614819
0.0893915
0.0631268
0.061489
0.0632687
0.0893463
0.0615844
0.0679873
0.0675283
0.0529095
0.0456377
0.0464655
0.0304576
0.0308633
0.0191162
0.0193091
0.0149659
0.0145919
0.0241477
0.0242155
0.0304395
0.0373214
0.0378493
0.0457973
0.0306126
0.0191948
0.0112214
0.0111932
0.0112859
0.00609496
0.00569789
0.0061631
0.00438394
0.00289703
0.00295415
0.00200575
0.00201782
0.00213998
0.00116076
0.00309178
0.00241751
0.00218824
0.00445944
0.00614262
0.00431403
0.00413955
0.00308455
0.0031109
0.00148491
0.00148551
0.000820229
0.00050104
0.000889139
0.000908104
0.000639378
0.00055844
0.000813253
0.000551487
0.00064461
0.000984072
0.00086249
0.00101496
0.00138512
0.00211421
0.00211111
0.00430894
0.00609916
0.00308215
0.00148749
0.00082756
0.0010144
0.00148162
0.00307287
0.00607707
0.0111795
0.019142
0.0306028
0.0459734
0.0530979
0.0564871
0.0461848
0.0308107
0.0242471
0.0303416
0.0303416
0.0286764
0.0377683
0.0379301
0.0341053
0.038553
0.038553
0.0524477
0.049695
0.0253306
0.0223571
0.0253305
0.022357
0.0243376
0.0242168
0.0154688
0.0154689
0.00880095
0.00880093
0.00856534
0.00454884
0.00226338
0.00217591
0.00106616
0.00087639
0.000517757
0.00109182
0.0023222
0.00467018
0.00467018
0.00406264
0.0058637
0.00578626
0.00586386
0.00406263
0.00435268
0.00619646
0.00825662
0.00803007
0.00802991
0.0080819
0.00769221
0.00825672
0.0113379
0.011286
0.019295
0.015321
0.0253841
0.0242074
0.0374629
0.0392713
0.046375
0.0306669
0.0146053
0.0190756
0.0191121
0.0111311
0.00863234
0.00615697
0.00313866
0.00317672
0.00216856
0.00221986
0.00453089
0.00603861
0.00305087
0.00105717
0.00145884
0.00109259
0.000914227
0.00109268
0.0010078
0.00109182
0.000983529
0.000878886
0.000460979
0.000629424
0.000556988
0.000516067
0.000567027
0.000629426
0.000615347
0.000556979
0.000516026
0.000595309
0.000560986
0.000572289
0.000561051
0.000615352
0.000533757
0.00057587
0.000535409
0.000662962
0.00072322
0.000683991
0.000664695
0.000660785
0.000748961
0.00065178
0.000823408
0.00417386
0.00087503
0.0377685
0.0711517
0.00061113
0.000592218
0.000652809
0.000669004
0.000515006
0.000515936
0.00474041
0.00845677
0.0114598
0.0480426
0.00116907
0.0893475
0.0718088
0.0617031
0.0748091
0.0857111