/*--------------------------------*- C++ -*----------------------------------*\
| =========                 |                                                 |
| \\      /  F ield         | OpenFOAM: The Open Source CFD Toolbox           |
|  \\    /   O peration     | Version:  2306                                  |
|   \\  /    A nd           | Website:  www.openfoam.com                      |
|    \\/     M anipulation  |                                                 |
\*---------------------------------------------------------------------------*/
FoamFile
{
    version     2.0;
    format      ascii;
    arch        "LSB;label=32;scalar=64";
    class       volScalarField;
    location    "2.6";
    object      gradTx;
}
// * * * * * * * * * * * * * * * * * * * * * * * * * * * * * * * * * * * * * //

dimensions      [0 -1 0 1 0 0 0];

internalField   nonuniform List<scalar> 
5712
(
-6475.17
-8275.38
-15402.5
-22469.9
-22917.2
-39567.6
-17648
-44953.7
-14383.2
-31595.9
-21499.9
-32691.4
-19307.3
-25288.3
-8485.21
-9694.26
-14403.3
-16493.4
-18653.6
-18502.7
-14713.8
-18208.9
-21689.9
-19487.5
-5248.92
-3925.96
-6532.47
-4376.71
-12155.3
-9680.44
-20786.8
-15012
-16126
-16739.7
-17859.9
-16958.8
-6202.5
-4890.67
-38241.8
-51205.9
-24700.3
-30332.6
-51517.8
-66840.2
-26663
-30520.6
-28306.3
-40001.8
-24684.4
-32739.7
-14406.2
-23265
-2744.76
-923.499
-2894.77
-1041.8
-8292.83
-3340.96
-11402.8
-4186.5
-8081.99
-3105.68
-8647.6
-2769.21
-14764.6
-4692.23
-19061.1
-6423.3
-23484.9
-11629.7
-21497.9
-12751.3
-22100.7
-14293
-19431.2
-14652.8
-16842.6
-9998.49
-16823.9
-8542.66
-22174.5
-14215.9
-22221
-14357.5
-20513.6
-15529.4
-20760.4
-15610.4
-18198.8
-11572.8
-18853
-11866
-17172.5
-7408.68
-7906.98
-9589.87
-17245.2
-8087.92
-6873.24
-9680.89
-18193.6
-7385.56
-8982.41
-9684.55
-19100.3
-7569.92
-9781.66
-10132.6
-3557.75
-3880.35
-1190.56
-2305.06
-10443.5
-11031.1
-4008.51
-7047.92
-13373.3
-14893.9
-6375.57
-10812.8
-12238.3
-1186.76
-13376.2
-16374.7
-8819.95
-851.234
-7504.92
-11958.7
-19205.4
-13114.6
-9676.5
-11684.1
-10135.9
-8680.19
-13579.7
-3440.77
-2854.13
-1958.92
-1946.88
-9725.47
-8261.6
-5807.09
-5533.6
-12177
-10409.5
-7588.76
-6824.74
-5883.36
-7458.52
-12092.9
-12499.4
-13835.6
-12605.5
-15585.9
-13624.5
-10397
-8744.24
-8978.59
-9544.44
-11819.8
-9472.86
-10724
-7942.62
-9239.92
-6482.59
-10664.2
-7038.25
-10159.4
-4918.35
-8692.36
-9505.46
-12473.1
-16368.9
-13712
-20018.2
-6891.04
-7736.81
-8979.35
-3073.46
-7735.39
-14970
-7331.82
-16019.6
-13569.5
-24689.8
-13803.2
-26168.3
-5815.2
-12809.6
-5271.89
-13621.8
-8006.27
-6139.12
-11081.5
-4462.03
-8297.04
-1857.73
-9694.23
-944.301
-7673.27
-9121.74
-11601
-5397.49
-6331.82
-10728.9
-10251.2
-7060.37
-2295.3
-2039.51
-1849.75
-1643.88
-1520.01
-1374.31
-6823.73
-5684.44
-4981.65
-4346.72
-3557.9
-3126.34
-8444.51
-7378.23
-6857.93
-5247.2
-4357.68
-4151.06
-6626.18
-5950.65
-5836.69
-10971.3
-8498.83
-7225.31
-10237.1
-7717.16
-6338.01
-10767.8
-8641.92
-7579.39
-6553.59
-4407.63
-3482.52
-15792
-13863.2
-12136.5
-10062.6
-8511.44
-7177.22
-8837.93
-7002.57
-5695.75
-7340.47
-5410.7
-4247.38
-7417.97
-4198.26
-2427.65
-10240.6
-13906.9
-8076.37
-10470.1
-10949.4
-16124.6
-9760.41
-14254.4
-58.3185
-745.776
487.727
-108.801
-2967.76
-3374.88
-1229.29
-668.833
-707.447
-2428.73
-9337.29
-13663.6
-6639.66
-3607.46
-9753.48
-9676.72
-14952.2
-16461.8
583.321
4039.12
-7503.84
-7075.94
-7056.92
-5445.92
-1035.14
-556.517
-658.778
-259.394
-2024.8
-254.674
329.313
835.109
-9214.02
-2459.92
-6198.28
-1656.3
-8913.8
-2741.5
-10784.2
-3507.05
-8747.6
-11868.1
-8100.23
-11591.9
-13936.8
-14812.7
-13313.4
-14049.3
-5676.71
-9504.01
-6540.4
-9430.27
-8592.2
-11179.8
-9476.63
-11309
-13870.5
-13812.6
-14526.9
-13884.4
-5729.05
-9212.62
-6231.51
-9397.6
-29.6009
-1539.03
-7633.39
-5001.58
542.291
-1121.16
-7073.59
-4435.27
-475.356
-1780.63
-7815.08
-5440.46
-931.161
-2052.44
-7875.11
-5648.97
663.902
771.363
-188.429
-47.0127
2850.12
2902.78
155.449
298.802
489.543
1899.49
-1833.04
-1206.32
10224.3
9458.82
5528.53
4175.18
305.807
10396.4
10798.2
4310.44
6339.33
676.611
-10111.4
-8028.75
-7275.03
-6958.69
-4438.3
808.077
770.01
3.23461
-118.938
2555.78
2586.27
-1.54721
-283.84
2559.88
3213.35
-872.326
-1267.56
5132.8
2391.4
8222.62
5238.21
3646.33
2818.72
4088.73
3619.9
-678.103
-1719.13
-3734.43
-2364.34
-1047.34
1043.58
-1104.76
722.823
-1936.06
-562.655
-2478.36
-2865.17
-5289.59
-4869.54
-10024.5
-6087.27
-8089.31
-8199.72
-12282.8
-9987.6
-8069.03
-4839.1
-4091.12
-4099.39
-11803.1
-5264.58
-12982.2
-5900.33
-13696.1
-10193.8
-14616.9
-10915.9
-9752.49
-3975.7
-10917.7
-4594.08
-6614.12
-5394.13
-5398.55
-8022.62
-4362.8
-4973.88
-4648.04
-7442.55
-7594.99
-5366.08
-6081.9
-9195.52
-9154.49
-5833
-7492.68
-9503.85
817.913
896.727
1019.03
0.0360987
310.906
355.105
2997.9
3253.56
3278.47
175.092
894.117
910.68
3768.06
4306.06
4460.32
-743.272
858.621
1191.47
1327.62
1150.86
851.509
3958.97
4097.65
3850.05
3243.77
3740.05
3707.68
4011.88
4418.32
4352.08
-1593.9
362.781
525.358
-3422.54
-1925.21
-988.703
1100.97
2327.9
2983.99
1020.91
2620.28
3320.93
397.074
2156.46
2668.82
-2660.72
533.744
921.446
23.0136
41.6029
58.2258
89.4504
275.014
161.867
138.556
139.093
-6.58771
81.1393
198.443
318.069
444.516
298.889
341
380.377
-260.823
29.4603
281.436
563.152
151.074
244.63
329.094
385.525
31.7609
148.708
163.932
165.133
-229.424
-5.59275
132.586
231.16
-1024.1
-209.814
120.087
355.977
-1603.1
-372.81
21.1683
603.477
-725.913
-90.3894
204.152
511.379
-1323.77
-284.583
2.06242
530.632
-1084.71
-249.976
144.144
441.871
-1793.5
-442.862
19.5148
707.96
-1207.33
-331.737
129.132
522.55
-1930.24
-506.989
-3.70378
740.563
1.84654
23.6544
50.0449
111.462
32.3674
32.7382
31.44
102.444
55.9568
81.9853
152.684
299.641
155.341
112.125
96.0034
276.681
-456.559
-56.3931
169.986
513.615
-225.523
26.0938
129.129
489.083
-120.632
121.914
249.302
511.928
-52.304
97.4204
112.393
493.56
-1149.29
-219.442
43.4993
688.92
84.2356
46.9155
36.2418
76.9929
168.934
69.4126
37.6403
35.729
167.444
111.057
81.96
199.471
429.05
184.32
95.8003
92.3596
79.7165
122.221
114.899
328.89
534.944
258.476
144.588
145.88
-139.145
109.305
144.739
456.56
402.051
278.199
172.518
186.074
-621.746
8.439
85.357
442.241
84.7444
238.927
162.22
192.298
-1335.83
-135.049
74.7931
513.18
-442.444
59.1076
106.483
181.485
-1046.06
-44.2165
86.7765
479.187
-282.582
139.017
139.458
195.435
-1603.38
-248.347
35.8866
556.261
-589.053
-20.7464
70.417
169.845
-1804.33
-362.398
-19.0689
549.273
-726.537
-109.407
22.5295
146.786
40.01
18.2964
9.82029
6.01995
4.49412
52.9328
28.213
16.1698
10.1668
7.64187
95.4832
42.6151
22.8198
14.0649
10.5796
120.166
63.299
36.3125
22.9452
17.3047
126.548
53.3739
28.2271
17.3813
13.1088
161.96
84.0311
48.3125
30.694
23.2291
85.2845
43.1438
24.6927
15.7155
11.9006
60.0131
25.1422
13.1965
8.17
6.1284
127.865
54.7223
29.4505
18.3311
13.7766
60.8803
22.3531
11.3461
6.91747
5.16221
134.746
63.7589
35.8749
22.6626
17.1315
57.4465
22.2437
11.6334
7.14704
5.3273
98.089
35.6527
17.8063
10.825
8.08897
57.6017
19.9487
9.92711
6.04773
4.52168
84.4528
22.6192
9.10792
5.06824
3.65555
46.5845
10.6563
3.91296
2.09143
1.48149
33.2719
13.785
7.13683
4.29003
3.17725
24.0217
10.9408
5.91974
3.60654
2.68003
81.2709
34.671
18.4035
11.2175
8.37945
62.0544
28.8812
15.8957
9.77199
7.28773
113.906
42.7168
21.7573
13.0781
9.74255
84.4422
39.9198
22.2034
13.6969
10.2842
103.234
49.0769
27.7766
17.4795
13.2306
57.6706
30.4865
17.5171
10.938
8.2907
53.7379
27.0176
15.6289
9.93533
7.52119
-351.308
-465.759
-800.938
-1143.67
-860.029
-1438.36
-364.046
-1188.82
270.429
-284.92
-756.816
-1231.13
107.421
33.8569
-1136.06
-1780.44
-1419.43
-2019.93
-590.257
-136.525
-30.6646
-6.75471
-1.68922
-207.291
-90.1657
-12.8791
-3.36851
-1.44045
-1813.59
-417.679
-94.1365
-20.6339
-5.16679
-498.136
-132.005
-31.7062
-6.63753
-1.76852
-3052.95
-704.643
-159.218
-35.0087
-8.74629
-785.966
-222.29
-53.3625
-12.2678
-3.06063
-4109.45
-951.349
-215.809
-47.587
-11.9009
-912.017
-278.812
-69.1172
-16.0815
-4.00659
-5153.7
-1204.95
-275.194
-60.9764
-15.3104
-1001.93
-337.101
-86.1118
-20.3139
-5.12183
-6150.8
-1482.83
-343.331
-76.702
-19.3395
-1520.79
-463.994
-114.248
-26.1548
-6.5268
-5709.08
-1370.98
-316.026
-70.3135
-17.6749
-1195.2
-395.346
-100.144
-23.3599
-5.83468
-6358.42
-1535.73
-356.295
-79.7248
-20.1316
-1714.67
-507.227
-123.147
-27.813
-6.92439
-6635.23
-1589.45
-369.322
-82.6076
-20.8481
-1774.95
-527.149
-129.175
-27.1066
-7.14266
-513.637
-6801.28
-6208.55
-2237.34
1605.7
2746.77
7668.08
11211.8
1704.11
8221.92
-1581.18
2570.53
2467.88
4859.25
9146.39
12943.9
13852.4
17379.3
5653.47
7321.3
-19723.8
-14303.1
-4888
-3872.98
-2790.68
-3999.75
-3692.62
-12206.5
-11827.7
-10049.2
-10998.5
-9161.96
-6545.3
-8472.56
-5685.66
-4813.51
-5877.44
-4035.76
-19743.1
-10371
-3736.52
-6348.55
-8527.47
-5983.32
-6574.07
-4906.6
-3015.12
-4269.33
-4501.48
-4858.65
-19416.7
-12797.6
-12194.4
-8842.34
-8831.84
-9235.81
-4056.96
-5369.87
-6735.94
-14222.7
-12497.3
-10729.5
-10198.5
-9051.68
-9345.67
-6464.36
-5119.12
-4036.8
-2135.64
-4322.34
-3591.68
-2698.15
-1685.19
-577.433
-3462.07
-2901.69
-2186.13
-1359.91
-462.209
-2480.43
-2063.95
-1542.74
-953.118
-322.572
-3578.85
-2999.71
-2256.63
-1399.94
-474.546
-3280.64
-2731.38
-2046.03
-1268.25
-430.517
-7923.08
-6163.34
-4950.11
-4741.78
-5288.23
-6519.23
-4864.77
-3545.58
-3019.08
-2150.16
-6286.23
-3785.99
-2665.56
-1906.29
-941.473
-5672.39
-3858.83
-2608.31
-1942.74
-1168.68
-4283.98
-2688.78
-1693.49
-1198.69
-597.49
-5189.63
-3886.1
-2695.55
-1619.98
-560.428
-5766.91
-3701.24
-2433.1
-1472.69
-558.731
-3729.91
-2219.74
-1329.48
-722.281
-245.56
-3971.55
-3070.99
-2168.11
-1301.23
-440.273
-4695.97
-3509.62
-2397.62
-1400.45
-466.261
-3364.47
-2621.62
-1854.62
-1107.55
-370.819
-13178.7
-10189.4
-8415.78
-7718.18
-7598.4
-7669.56
-5593.16
-4144.58
-2865.2
-1318.45
-3115.05
-2443.75
-1757.08
-1076.58
-372.616
-5389.1
-4319.58
-3177.79
-1989.11
-701.57
-7012.2
-5534.47
-4106.53
-2670.19
-1022.46
-5105.21
-4128.71
-3076.23
-1953.43
-697.359
-5703.7
-4673.17
-3498.3
-2207.44
-773.686
-4276.69
-3504.21
-2606.46
-1623.15
-558.371
-2602.33
-2099.52
-1528.95
-929.868
-313.254
-3762.35
-3104.53
-2306.84
-1422.28
-481.883
-3834.57
-3061.26
-2219.89
-1355.18
-461.227
-4213.9
-3430.73
-2533.32
-1566.98
-536.65
-13645.6
-11475.8
-9788.81
-8976.48
-8092.46
-8938.02
-6457.56
-5058.85
-3840.42
-2009.45
-9062.23
-7252.03
-5617.01
-4248.23
-2115.01
-6986.68
-5338.37
-4066.25
-2811.74
-1166.49
-7394.01
-5945.07
-4476.45
-2933.93
-1114.33
-7238.84
-5485.66
-4151.16
-2858.15
-1171.97
-3490.21
-2831.06
-2099.11
-1315.61
-459.773
-4738.14
-3921.31
-2928.73
-1817.2
-618.93
-5809.43
-4727.78
-3518.62
-2211.59
-773.007
-5446.28
-11074.2
-11569.7
-31619.2
-11427.6
-42389.8
-6223.21
-15077.8
-11441.6
-8846.94
-18956.3
-15822.9
-11442
-10798.2
-21303.4
-16904.9
-4004.98
-2971.88
-7734.8
-5307.6
-8979.08
-6762.29
-24039.6
-17741.2
-14810.1
-11263.1
-15215.7
-9056.99
-1175.19
-3653.8
-39446
-51691.5
-23873.1
-30186.6
-52209.9
-67116.1
-25753
-30300.4
-29361.3
-40542.1
-23935.2
-32680.4
-15835.2
-23938.6
-1906.99
-502.121
-3344.1
-1140.2
-6486.77
-2890.02
-13145.5
-4742.45
-2860.81
-1618.49
-7150.59
-2245.3
-14792
-4642.71
-19235.1
-6472.14
-16205.5
-8383.69
-18632.2
-11087.2
-14823.2
-10600.9
-16591.9
-12883.7
-14833.9
-8681.28
-11753.4
-6055.82
-21065.1
-13464
-21943.3
-14151.4
-19384
-14760.4
-20458.8
-15400.8
-17457
-10961.6
-18677
-11696.9
-16205.4
-7137.77
-7045.11
-9267.39
-14509.2
-7291.98
-5268.92
-9093.08
-17932.1
-7317.77
-8580.23
-9525.63
-19068.4
-7564.62
-9668.04
-10086
-1097.96
-984.519
-264.185
-1159.1
-4458.62
-4601.92
-2778.96
-5494.46
-2483.82
-3097.16
-4306.07
-8129.8
-11954.6
-9639.82
-9195.98
-11439
-7503.96
-7602.43
-8100.88
-6753.75
-13233.8
-11410.4
-11369.9
-9469.6
-6537.41
-5585.96
-12262.6
-1060.71
-796.746
-589.78
-661.228
-4142.31
-3295.33
-3495.76
-3080.48
-586.48
519.968
-4127.16
-3240.53
-10113.5
-10745.8
-9436.81
-8636.19
-6969.21
-5065.15
-9097.63
-7254.7
-8081.39
-6332.12
-11479.7
-11712.3
-9783.98
-7694.72
-7210.45
-4931.6
-6331.41
-4035.68
-9409.5
-5742.84
-9216.79
-5085.84
-8212.82
-9381.3
-12973.1
-17282.3
-13681
-19981.7
-6266.34
-7470.97
-7614.88
-2903.15
-7562.59
-14818.6
-7291.38
-15963.1
-13510.3
-24781.3
-13780.6
-26147.4
-5580.46
-12623.9
-5216.26
-13565.3
-7539.31
-5963.86
-10885.8
-4430.78
-7274.28
-1819.82
-9371.08
-1246.46
-7486.89
-9002.08
-11512.4
-5370.58
-6282.83
-10690.3
-10227.5
-7046
-786.881
-731.904
-530.921
-613.626
-2514.65
-1837.98
-2268.95
-2063.87
1076.53
601.642
-2660.43
-2959.26
-10644.1
-10115.1
-7643.76
-6620.31
-4025.82
-3404.5
-5689.26
-4702.43
-5322.85
-3892.25
-18226.1
-16002.6
-7913.66
-6774.97
-5970.54
-4581.44
-4910.07
-3186.55
-5207.51
-2291.58
-5582.68
-9177.41
-4894.01
-9272.85
-8228.99
-10305.9
-9218.08
-12570.6
-998.454
-736.061
-785.14
-674.246
-3639.93
-2626.36
-2989.39
-1713.23
-1451.4
-1725.68
-8332.86
-8963.81
-4696.59
-4243.21
-9261.24
-9569.59
-14150.9
-16240.2
313.991
3833.28
-7354.09
-7113.28
-6979.31
-5504.38
-1087.86
-991.462
-1176.47
-974.282
-1796.89
-1258.56
-671.954
-583.568
-8162.22
-3874.85
-6932.66
-3252.39
-9237.02
-3701.54
-10925.3
-3901.53
-5434.25
-10265.2
-7003.19
-10744.6
-8620.58
-11580.2
-11275.8
-12551
-5311.22
-9333.83
-4826.27
-9293.62
-8155.79
-10836.6
-9349.31
-11219.1
-13019
-13188.9
-14284.9
-13715.8
-5665.63
-9175.64
-6228.19
-9398.06
-671.225
-2408.16
-8084.1
-5689.45
-652.789
-2491.96
-8005.15
-5447.57
-956.827
-2394.08
-8069.08
-5863.67
-1130.37
-2300.03
-7951.85
-5795.22
-1093.28
-1205.89
-1033.52
-1128.7
-2153.44
-2215.68
-1514.53
-1659.67
-8463.11
-7825.84
-4073.85
-4143.7
-3806.34
-5243.88
-4135.25
-436.849
-1990.33
-1351.95
-1438.37
-3640.49
2552.77
-1054.45
-13690.3
-11742.2
-10744
-9471.14
-6111.18
-1216.69
-1105.11
-1281.19
-1615.66
-2205.35
-1740.23
-2140.46
-2851.92
-8199.87
-8130.68
-4594.02
-5983.79
-5055.95
-6713.74
-3215.27
-5145.23
-4933.8
-5385.75
-1292.84
-1652.75
-3176.14
-4716.98
-9653.68
-7953.16
-7694.88
-5674.06
-6824.96
-4898.59
-6183.86
-4564.46
-4727.2
-5240.95
-8441.09
-8359.38
-11342
-7356.55
-10420.5
-11211.4
-13040.4
-10996.5
-9660.45
-6075.69
-7146.04
-7163.17
-12327.1
-6057.09
-13119.1
-6094.26
-13911.5
-10850.1
-14661
-11057.9
-10491
-4754.21
-11127
-4802.62
-8135.41
-6523.91
-6758.21
-9302.46
-6972.55
-7458.61
-6603.86
-9510.6
-8394.58
-6107.01
-6857.99
-10014.6
-9405.15
-6067
-7744.37
-9739.21
-901.542
-774.254
-1169.83
-849.232
-1474.61
-1737.21
-1741.97
-1252.73
-7975.72
-6981.64
-4029.56
-1786.23
-7889.77
-7496.79
-6194.51
-5573.03
-5226.55
-4471.76
-1954.62
-1985.65
-4499.03
-2008.46
-8649.98
-7417.19
-4940.47
-3890.46
-3896.18
-2406.65
-2950.16
-1247.04
-4703.07
-123.247
-250.528
-116.153
-39.9311
25.7569
-236.301
-149.782
-57.6878
10.7015
-676.657
-302.311
-17.6587
190.202
-612.779
-358.682
-63.2144
115.822
-1105.72
-446.9
22.8863
435.853
-1091.56
-542.021
-191.844
12.9285
-748.002
-365.188
-180.392
-58.5877
-572.395
-239.132
-25.0815
125.415
-1650.7
-584.032
-131.811
165.488
-1971.08
-563.331
-87.5695
579.31
-1586.83
-562.388
-91.6255
296.915
-1790.92
-507.229
-115.819
530.701
-1540.74
-537.411
-40.5196
329.337
-2042.1
-580.135
-67.6017
671.798
-1394.79
-454.088
49.0961
472.355
-2021.31
-559.52
-37.5628
726.783
-232.534
-95.1289
-14.6624
80.2224
-200.49
-72.6279
-28.5649
77.2963
-599.755
-248.801
-25.3715
205.886
-503.942
-191.545
-76.5297
199.259
-1184.85
-414.638
-10.3077
449.463
-1077.68
-361.8
-85.4849
413.679
-1314.79
-492.353
-97.4273
328.929
-994.987
-343.556
-116.261
461.934
-1805.9
-506.972
-100.632
729.544
-144.158
-54.3617
-16.8367
49.6528
-65.0218
-38.0619
-18.1738
-0.484804
-434.796
-157.193
-66.7034
119.758
-216.178
-113.931
-62.6346
-9.85731
-772.883
-261.522
-101.183
216.746
-443.611
-200.016
-98.6917
-9.1353
-1176.84
-377.002
-129.482
326.932
-781.61
-295.305
-131.459
-3.6859
-1553.23
-453.051
-196.294
282.586
-1058.6
-357.613
-171.203
-25.2839
-2081.94
-587.905
-209.297
353.443
-1054.03
-332.436
-139.741
15.3562
-2004.61
-577.093
-239.979
295.428
-1164.07
-370.423
-164.613
-10.997
-2056.98
-538.05
-149.316
455.036
-945.942
-267.398
-86.5402
68.676
-1953.47
-460.443
-82.4683
514.539
-838.721
-189.904
-29.2509
113.705
-8.11813
-12.7036
-9.3069
-6.40195
-4.97145
-32.957
-24.586
-16.0293
-10.6869
-8.24003
-16.2726
-28.9734
-21.2605
-14.5468
-11.2199
-71.2107
-54.4028
-35.5065
-23.584
-18.1381
-10.6047
-34.8747
-26.0751
-17.8588
-13.7411
-92.8198
-71.5434
-46.4314
-30.6648
-23.5095
-44.9527
-35.8585
-23.3787
-15.419
-11.8193
-6.81159
-15.4697
-11.5564
-7.88614
-6.1265
-22.5869
-37.8184
-27.0071
-18.2492
-14.0922
4.56334
-12.8007
-10.1567
-7.02173
-5.45918
-56.6938
-51.8483
-34.229
-22.68
-17.3949
-2.45859
-14.6656
-10.856
-7.41421
-5.76281
11.2575
-18.3353
-15.2399
-10.6131
-8.25606
8.55939
-10.3143
-8.53797
-5.9212
-4.60469
44.7254
-2.17846
-6.13407
-4.86617
-3.96732
30.1394
0.321308
-2.44741
-2.06042
-1.71332
-1.02363
-8.94611
-6.92117
-4.83892
-3.77791
-7.67352
-8.74082
-6.05234
-4.13407
-3.21104
-12.266
-25.1341
-18.2294
-12.513
-9.69001
-26.3703
-24.7958
-16.5652
-11.1857
-8.65736
7.24958
-27.266
-21.2758
-14.8256
-11.5109
-43.1863
-36.1301
-23.6056
-15.8592
-12.2013
-51.8592
-43.0342
-27.7595
-18.3796
-14.0604
-47.4474
-30.235
-18.8433
-12.4953
-9.53323
-35.8895
-24.8957
-15.5403
-10.1755
-7.78322
-65.7486
-202.514
-124.313
-517.874
-78.7789
-716.873
196.592
-653.16
456.543
-122.509
-771.858
-1250.13
75.5341
-88.5725
-1145.93
-1783.66
-1422.51
-2020.1
-572.724
-135.057
-30.5178
-6.7383
-1.68657
-154.188
-83.6444
-11.6908
-3.19985
-1.42424
-1770.26
-413.959
-93.7742
-20.5933
-5.16036
-371.26
-112.564
-28.7361
-6.18042
-1.6931
-2986.47
-697.89
-158.423
-34.9017
-8.72682
-641.917
-199.542
-49.7731
-11.7081
-2.96288
-4031.31
-941.498
-214.386
-47.3603
-11.8558
-807.896
-260.66
-66.0242
-15.5627
-3.91022
-5086.76
-1194.14
-273.321
-60.6397
-15.239
-965.487
-327.492
-84.1074
-19.9324
-5.04467
-6122.83
-1475.88
-341.773
-76.3756
-19.2635
-1522.57
-463.181
-113.904
-26.064
-6.50335
-5668.55
-1361.65
-314.093
-69.931
-17.59
-1196.58
-392.033
-99.1441
-23.1341
-5.78426
-6341.31
-1531.39
-355.284
-79.5072
-20.0797
-1714.75
-506.902
-123.017
-27.7794
-6.91561
-6629.46
-1587.99
-368.975
-82.5316
-20.8299
-1774.8
-527.046
-129.14
-27.1
-7.14068
-537.508
-6730.05
-5965.15
-2201.3
-1558.6
-937.417
-3671.87
-2689.94
-6310.11
-5901.8
-2997.84
-2265.76
-416.12
-634.657
-1084.01
-1750.01
-2603.42
-3556.29
-299.432
-640.387
-1326.46
-2296.68
-3433.92
-4569.3
-317.094
-146.191
-542.396
-371.813
-994.661
-827.993
-1650.83
-1537.07
-2355.86
-2273.02
-3056.58
-2772.32
-4361.85
-4874.98
-5245.79
-7717.05
-8570.13
-9399.81
-5489.72
-5979.48
-5896.6
-5334.95
-4531.81
-3938.11
-376.036
-318.688
-242.149
-151.228
-51.4124
-573.184
-485.441
-368.613
-230.097
-78.2057
-978.355
-827.959
-628.266
-391.998
-133.206
-1577.9
-1333.94
-1011.31
-630.654
-214.26
-2343.79
-1978.31
-1498.02
-933.606
-317.146
-3193.35
-2688.68
-2032.53
-1266.13
-430.222
-270.469
-229.126
-174.028
-108.65
-36.9291
-578.093
-489.358
-371.42
-231.775
-78.7632
-1196.66
-1012.26
-767.845
-478.989
-162.754
-2069.87
-1749.11
-1325.7
-826.648
-280.857
-3090
-2607.14
-1973.89
-1230.33
-418.025
-4101.84
-3453.18
-2610.95
-1627.14
-553.112
-286.643
-242.984
-184.665
-115.349
-39.2224
-132.156
-112.029
-85.1416
-53.1821
-18.0838
-490.027
-415.145
-315.322
-196.872
-66.9235
-335.953
-284.656
-216.235
-135.016
-45.8975
-898.072
-760.323
-577.135
-360.17
-122.404
-747.711
-633.139
-480.662
-299.984
-101.951
-1489.09
-1259.35
-955.017
-595.601
-202.35
-1386.58
-1172.69
-889.254
-554.523
-188.375
-2121.77
-1791.44
-1356.58
-845.29
-287.076
-2047.04
-1728.01
-1308.04
-814.658
-276.575
-2744.9
-2310.65
-1745.69
-1086.5
-368.918
-2488.98
-2093.84
-1580.09
-982.099
-333.132
-3899.33
-3270.29
-2467.29
-1537.61
-523.376
-4322.88
-3602.59
-2712.48
-1695.74
-580.748
-4580.68
-3777.44
-2841.18
-1794.66
-626.242
-6534.87
-5299.51
-4005.96
-2609.91
-965.809
-6864.54
-5427.61
-4154.04
-2865.47
-1198.9
-7209.51
-5601.43
-4329.04
-3113.5
-1415.33
-4910.14
-4120.75
-3111.19
-1940.02
-660.486
-5318.08
-4443.51
-3350.46
-2093.89
-715.683
-5196.89
-4314.66
-3250.92
-2043.27
-704.962
-4626.58
-3803.4
-2868.82
-1828.04
-645.762
-3804.28
-3072.97
-2329.59
-1531.53
-573.904
-3187.95
-2527.08
-1927.82
-1312.42
-524.124
-438.236
-702.202
-1200.4
-1920.09
-2834.85
-3836.6
-330.625
-735.475
-1488.06
-2523.76
-3712.41
-4860.98
-338.443
-164.656
-607.858
-429.48
-1108.82
-931.918
-1821.65
-1697.87
-2602.02
-2548.44
-3372.27
-3185.88
-4651.54
-5142.51
-5490.3
-7863.85
-8634.16
-9419.57
-5736.16
-6124.86
-5919.95
-5259.37
-4426.74
-3890.37
-396.134
-335.84
-255.277
-159.476
-54.2257
-634.615
-537.914
-408.814
-255.374
-86.8323
-1084.36
-918.685
-697.919
-435.869
-148.191
-1733.25
-1467.35
-1114.11
-695.593
-236.479
-2556.06
-2161.53
-1639.93
-1023.64
-348.029
-3452.37
-2914.23
-2208.82
-1378.8
-469.037
-298.816
-253.308
-192.528
-120.27
-40.8925
-664.546
-563.178
-427.955
-267.313
-90.8888
-1343.83
-1138.2
-864.516
-539.871
-183.549
-2277.27
-1927.2
-1462.91
-913.32
-310.512
-3345.46
-2827.66
-2144.73
-1338.73
-455.214
-4371.32
-3687.82
-2794.34
-1744.37
-593.499
-306.021
-259.506
-197.298
-123.279
-41.9261
-148.91
-126.301
-96.0431
-60.0205
-20.4147
-549.519
-465.916
-354.184
-221.289
-75.253
-388.326
-329.315
-250.388
-156.459
-53.2095
-1001.99
-849.195
-645.312
-403.083
-137.057
-842.292
-714.003
-542.676
-339.009
-115.274
-1645.1
-1393.31
-1058.22
-660.785
-224.652
-1533.62
-1299.16
-986.841
-616.243
-209.506
-2347.51
-1986.24
-1507.42
-940.96
-319.886
-2299.82
-1946.36
-1477.3
-922.108
-313.443
-3036.67
-2564.78
-1944.34
-1213.45
-412.635
-2870.49
-2425.42
-1838.71
-1147.09
-389.892
-4170.59
-3510.13
-2657.62
-1660.79
-566.13
-4579.45
-3835.33
-2901.81
-1820.81
-624.754
-4824.47
-4007
-3034.46
-1926.15
-673.61
-6706.89
-5482.03
-4175.77
-2736.13
-1015.43
-6963.81
-5544.9
-4272.93
-2962.74
-1242.75
-7246.44
-5646.67
-4376.47
-3154.08
-1434.65
-5140.99
-4324.99
-3273.42
-2045.11
-696.981
-5459.43
-4573.67
-3457.9
-2165.69
-741.109
-5228.96
-4352.95
-3289.25
-2072.53
-716.198
-4569.45
-3765.73
-2849.3
-1821.63
-645.311
-3718.8
-3008.55
-2287.78
-1510.76
-569.003
-3148.69
-2496.79
-1907.57
-1302.07
-521.64
-19660.3
-14357.9
-5263.43
-4281.98
-3255.29
-4588.4
-4179.93
-12952.5
-14620.4
-11582.8
-13368.9
-8013.17
-11364.7
-6150.07
-6412.24
-4700.76
-20401.1
-11355.7
-4426.81
-7244.33
-9377.5
-6485.14
-7229.58
-5482.09
-3384.08
-4923.84
-5412.07
-5561.39
-19295.4
-12992.3
-12837.2
-9231.85
-9269.05
-9758.98
-4726.68
-6008.52
-7363.5
-14238.7
-12576
-10850.7
-10364.6
-9209.63
-9441.36
-6564.76
-5217.44
-4119.67
-2172.27
-4684.55
-3922.14
-2968.22
-1864.16
-640.519
-3844.24
-3238.75
-2452.87
-1532.07
-521.848
-2919.5
-2455.97
-1856.52
-1157.37
-393.643
-4127.13
-3481.56
-2636.65
-1644.51
-559.108
-3742.85
-3145.48
-2378.38
-1484.98
-506.001
-9623.88
-8150.83
-6873.75
-6372.82
-6492.33
-11027.9
-9658.3
-7947.73
-6457.28
-3892.41
-8397.61
-5946.96
-4547.03
-3229.83
-1429.98
-10043.6
-8404.03
-6677.39
-4967.72
-2429.2
-6804.66
-5487.42
-4076.07
-2563.65
-897.852
-8957.57
-6712.41
-4945.41
-3170.02
-1170.33
-5346.9
-4383.57
-3272.32
-2045.77
-704.986
-5553.86
-4539.96
-3384.33
-2116.59
-730.496
-4120.98
-3398.76
-2541.24
-1584
-542.362
-14544.4
-11836.4
-10069.7
-9159.46
-8632.99
-8890.25
-6870.33
-5294.18
-3698.31
-1653.95
-3840.97
-3150.48
-2361.38
-1488.59
-520.209
-6310.18
-5205.06
-3930.82
-2502.78
-886.79
-7950.17
-6479.09
-4939.26
-3258.6
-1245.3
-5630.41
-4641.84
-3519.52
-2260.57
-809.844
-6350.94
-5276.25
-4000.46
-2545.71
-894.715
-4846.2
-4035.9
-3048.9
-1919.95
-663.74
-2998.34
-2495.15
-1874.62
-1168.48
-398.897
-4395.14
-3682.81
-2779.34
-1734.59
-591.524
-4756.1
-3934.91
-2953.25
-1848.91
-636.502
-4914.31
-4088.13
-3082.02
-1935.34
-667.337
-13786.1
-11777.9
-10194.7
-9445.98
-8569.34
-9231.93
-6768.8
-5358.11
-4083.48
-2120.72
-9994.72
-8254.86
-6573.89
-5002.33
-2461.87
-7447.8
-5820.95
-4508.96
-3141.41
-1296.08
-7888.75
-6456.12
-4938.95
-3269.44
-1244.53
-7869.49
-6136.12
-4747.77
-3299.81
-1348.36
-4149.23
-3442.46
-2605.25
-1654.29
-580.158
-5354.12
-4482.85
-3386.68
-2119.59
-725.079
-6449.64
-5341.43
-4040.7
-2568.27
-901.552
-498.517
-1413.16
-2235.3
-3003.92
-3730.34
-4407.16
-2574.54
-6922.81
-6596.39
-2527.4
-8814.84
-7391.39
-8843.59
-9803.56
-2330.01
-1505.31
-5411.42
-3144.26
-10327.8
-7303.66
208.232
-2091.9
-5779.62
-5433.22
-2039.84
-7514.67
-6046.63
-7435.2
-8386.25
-1930.03
-893.535
-4647.97
-1656.45
-8586.33
-4386.84
1483.08
-1533.46
-4411.18
-4138.35
-1501.6
-5959.08
-3663.17
-6058.02
-6727.92
-1459.62
-812.966
-3302.78
-1719.07
-6884.15
-1785
1618.62
-1135.18
-3430.19
-3288.45
-1153.34
-4584.96
-2258.51
-5058.8
-5967.48
-1102.89
-852.877
-2426.39
-1734.39
-6083.01
-398.911
1216.23
-921.841
-2921.29
-2847.15
-977.64
-3704.9
-1883.75
-4555.89
-5805.16
-877.062
-926.967
-1755.68
-1664.23
-5322.23
-181.119
120.945
-817.134
-2617.47
-2622.91
-888.684
-3441.23
-2135.48
-4232.26
-5556.59
-680.945
-727.566
-1460.68
-1632
-5236.26
-953.919
-464.18
-1385.68
-3395.64
-4903.57
-1894.07
-5504.16
-9599.65
-7203.5
-10393.1
-1023.83
-738.313
-3910.79
-2456.5
-1249.11
-9282.36
-4868.67
-1294.25
-3178.72
-4327.06
-1652.78
-5110.32
-8714.81
-6530.81
-8893.14
-1052.54
-661.125
-4070.04
-2342.84
-428.216
-9142.74
-3707.31
-1147.44
-2827.58
-3575.37
-1339.38
-4687.65
-7863.22
-5602.26
-7891.24
-944.921
-761.758
-3521.41
-2461.56
-631.8
-7465.44
-3578.75
-1003.41
-2573.15
-2999.36
-1100.34
-4411.74
-7213.6
-5033.15
-7227.31
-878.155
-779.994
-3296.9
-2591.71
-413.269
-6988.82
-3654.81
-914.951
-2331.87
-2685.73
-971.31
-4037.21
-6676.6
-4625.59
-6909.51
-830.012
-840.548
-3025.73
-2818.48
-539.786
-6762.66
-3761.31
-854.295
-2091.67
-2503.06
-898.848
-3742.43
-6610.95
-4317.13
-6703.19
-863.753
-968.195
-2707.89
-2683.94
-785.072
-6938.87
-4169.85
5887.79
7433.52
15437.6
22544.1
22947.3
39553.4
17656.4
44956.6
14395.9
31601.6
21543.7
32693.8
19321.2
25367.6
7295.93
8266.78
14415.6
16496.3
18648.8
18500.3
14715.2
18206.8
21687.2
19484.6
4840.75
3654.76
5943.78
3996.41
12156.8
9653.36
20834.6
15033.2
16103.6
16744.4
17852.3
16959.7
6201.31
4870.42
38247.1
51212.6
24700.9
30334.5
51524.3
66847.8
26662.8
30521.5
28310.2
40007.5
24683.9
32742.4
14411.7
23270.1
2590.22
885.992
2661.39
968.627
8265.07
3328.01
11407
4187.36
8076.94
3102.65
8635.56
2764.55
14765.4
4692.24
19063.8
6424.19
23484.7
11628.8
21496.4
12750.1
22098.1
14290.8
19428.7
14650.9
16840.3
9997.34
16823.2
8541.67
22174
14215.1
22221
14356.7
20512.2
15528
20759.6
15609.2
18198.3
11572.1
18853.4
11865.5
17169.1
7407.54
7905.82
9589.74
17242.7
8086.82
6871.92
9680.6
18193.5
7385.59
8981.9
9684.68
19101.5
7570.41
9781.44
10132.8
3343.73
3606.99
1142.78
2166.38
10396.5
10990.7
3986.91
7016.45
13365.2
14885.4
6371.87
10806.7
12238.4
1187.62
13375.4
16371.6
8818.54
852.156
7505.2
11958.1
19201.8
13112.4
9675.19
11683.2
10134.7
8678.21
13579
3142.56
2580.16
1770.42
1782.51
9746.56
8280.18
5856.19
5564.08
12170.3
10406.8
7586.17
6824.19
5883.55
7458.45
12092.8
12499.1
13834.6
12604.7
15582.7
13622.8
10396
8744.15
8977.99
9544.17
11819.2
9472.66
10723.2
7942.25
9238.62
6482.05
10664.1
7038.38
10158.8
4918.28
8691.57
9505.23
12472.1
16368.3
13710.7
20017.4
6890.46
7736.76
8978.81
3073.44
7734.65
14969.8
7331.12
16019.4
13568.4
24689.1
13802.2
26167.5
5814.73
12809.6
5271.44
13621.9
8006.04
6139.21
11081.8
4462.24
8296.56
1857.78
9694.45
944.565
7673.21
9121.92
11601.5
5397.7
6331.72
10729.1
10251.6
7060.65
2043.35
1829.3
1684.13
1504.69
1400.79
1278.32
6848.37
5693.36
4981.4
4373.92
3570.26
3129.57
8444.57
7379.03
6858.68
5248.3
4360.04
4153.48
6626.2
5950.81
5836.89
10971.2
8499.02
7225.58
10236.8
7717.4
6338.39
10767.5
8642.54
7580.18
6554.09
4408.76
3483.79
15791.8
13863.4
12136.9
10062.5
8511.51
7177.44
8837.78
7002.69
5696.03
7340.33
5410.89
4247.73
7418.08
4198.57
2428.09
10215.6
13891.1
8049.07
10456.4
10937.6
16115.8
9746.35
14246.6
94.7148
650.256
-407.574
65.9628
2967.33
3447.36
1230.59
747.422
682.875
2403.72
9321.43
13643.9
6622.59
3594.78
9746.49
9673.64
14948.1
16460
-589.052
-4040.97
7494.71
7071.7
7051.65
5443.91
905.034
506.138
556.178
222.68
2079.57
265.68
-269.111
-818.226
9203.31
2458.4
6191.98
1656.41
8907.29
2739.96
10780.8
3505.99
8737.98
11863.2
8092.67
11588
13930.2
14808.9
13308.3
14046.2
5669.85
9500.34
6531.95
9425.88
8587.59
11177.1
9474.11
11307.2
13867.3
13810.5
14525
13882.8
5724.78
9210.01
6229.26
9395.85
25.9314
1538.54
7630.76
5000.57
-546.597
1120.45
7070.7
4434.23
472.549
1779.94
7813.03
5439.54
929.67
2051.96
7873.7
5648.26
-630.358
-728.312
172.802
35.8646
-2825.96
-2876.48
-151.657
-288.102
-488.249
-1898.13
1832.56
1205.97
-10224.3
-9458.03
-5528.83
-4175.39
-305.969
-10395.3
-10797
-4310.39
-6338.2
-676.591
10109.4
8025.76
7272.06
6956.32
4437.3
-775.191
-734.048
-27.9494
86.6998
-2525.18
-2559.15
26.0944
306.618
-2558.45
-3210.99
871.991
1266.88
-5132.6
-2391.42
-8222.35
-5238.16
-3646.64
-2818.81
-4088.26
-3619.14
677.788
1718.63
3733.5
2363.99
1046
-1043.97
1103.57
-723.116
1935.26
562.485
2477.82
2864.68
5287.5
4868.55
10022.3
6086.14
8087.66
8198.86
12281
9986.57
8067.02
4838.09
4089.27
4098.48
11801.4
5263.6
12980.8
5899.52
13694.6
10192.8
14615.7
10915
9750.83
3974.84
10916.4
4593.39
6612.62
5393.24
5397.64
8021.72
4361.39
4973.04
4647.18
7441.66
7593.72
5365.26
6081.07
9194.61
9153.42
5832.31
7491.93
9503.06
-782.016
-837.069
-948.866
-28.6999
-307.732
-345.248
-2968.5
-3237.12
-3267.02
-147.188
-879.089
-900.321
-3765.11
-4303.31
-4458.37
741.966
-858.124
-1191.1
-1327.58
-1150.75
-851.389
-3958.91
-4097.44
-3849.83
-3243.58
-3739.67
-3707.32
-4010.83
-4417.04
-4350.97
1593.23
-362.748
-525.186
3422.32
1925.29
988.892
-1101.1
-2327.73
-2983.74
-1020.96
-2620.01
-3320.58
-396.998
-2156.06
-2668.37
2660.24
-533.774
-921.37
-18.7207
-36.8416
-52.4089
-80.3552
-256.41
-150.053
-128.205
-127.975
7.05271
-80.8879
-198.659
-319.5
-439.72
-297.058
-339.7
-379.525
260.798
-29.4544
-281.378
-562.986
-150.475
-244.432
-329.034
-385.455