/*--------------------------------*- C++ -*----------------------------------*\
| =========                 |                                                 |
| \\      /  F ield         | OpenFOAM: The Open Source CFD Toolbox           |
|  \\    /   O peration     | Version:  2306                                  |
|   \\  /    A nd           | Website:  www.openfoam.com                      |
|    \\/     M anipulation  |                                                 |
\*---------------------------------------------------------------------------*/
FoamFile
{
    version     2.0;
    format      ascii;
    arch        "LSB;label=32;scalar=64";
    class       volScalarField;
    location    "3";
    object      T;
}
// * * * * * * * * * * * * * * * * * * * * * * * * * * * * * * * * * * * * * //

dimensions      [0 0 0 1 0 0 0];

internalField   nonuniform List<scalar> 
5712
(
540.257
555.776
530.26
549.025
515.739
539.715
490.523
519.054
490.101
512.689
512.6
534.673
526.182
545.263
535.081
552.078
507.506
488.337
526.467
498.712
480.457
460.342
499.497
469.581
548.08
555.405
560.251
564.267
538.353
547.415
554.291
559.98
538.721
524.312
517.385
507.963
535.552
548.749
544.814
544.502
508.392
512.354
522.196
521.351
479.052
482.371
551.592
553.612
527.611
533.405
560.29
562.852
560.38
567.978
567.329
570.863
553.98
565.46
564.103
569.568
541.137
559.999
551.658
565.071
559.565
568.128
562.635
569.206
474.807
463.385
481.715
465.586
443.953
433.715
451.388
436.282
508.178
493.271
501.852
491.004
486.707
466.633
488.047
466.414
456.518
437.631
457.937
437.574
512.765
494.315
514.044
494.163
531.283
557.169
519.927
549.156
525.43
553.675
517.053
546.37
535.51
559.206
521.305
550.634
536.836
559.948
521.36
551.299
554.77
543.572
564.763
556.499
545.686
534.555
561.134
551.768
531.896
521.454
554.731
544.594
461.02
424.794
492.051
516.958
546.718
419.438
455.69
486.903
510.582
538.015
424.573
457.627
487.1
512.862
540.837
523.658
506.628
528.164
511.888
517.947
502.167
526.159
509.687
508.774
494.013
522.95
506.65
409.828
398.09
447.365
435.686
477.405
464.974
500.378
486.872
521.183
505.999
413.784
400.921
448.4
438.835
478.306
468.41
503.207
491.639
523.861
510.672
451.544
446.64
449.751
444.966
417.812
399.666
417.538
398.405
479.18
477.64
481.073
478.517
447.22
443.593
447.09
443.632
416.649
398.127
416.737
398.322
476.345
476.255
476.184
476.347
506.082
504.513
527.581
525.285
506.694
503.706
527.342
523.182
504.593
503.971
527.418
525.756
503.221
503.032
526.257
524.656
488.759
475.439
468.657
491.64
477.207
470.159
485.537
472.011
464.942
489.528
474.579
467.169
477.619
464.043
456.902
486.378
470.319
462.294
385.802
377.576
373.807
422.441
411.169
405.26
450.586
436.936
429.337
470.524
455.923
448.308
484.672
466.75
457.621
387.19
376.799
371.921
427.631
415.632
409.334
455.226
440.549
432.318
474.64
457.06
447.448
486.573
466.184
455.499
415.668
406.949
421.231
412.649
446.441
431.668
456.628
439.101
392.188
370.082
393.39
372.088
393.41
372.746
395.293
374.921
394.911
390.938
394.171
388.663
375.996
379.753
416.769
419.611
444.463
447.255
398.206
402.594
398.077
400.82
382.855
386.101
348.446
331.372
353.941
334.942
350.986
331.878
356.439
335.972
354.998
332.482
362.29
337.821
366.253
341.063
368.274
343.093
389.812
380.492
397.294
384.012
415.139
405.091
422.49
408.278
377.087
363.214
369.733
359.657
401.593
386.014
403.52
386.685
427.014
410.021
428.675
410.326
381.268
365.337
383.349
366.209
357.794
334.868
346.321
328.56
350.951
330.549
343.001
326.054
361.991
338.076
348.358
330.209
364.327
340.277
349.298
331.142
331.778
320.013
324.357
316.321
333.878
322.588
324.584
316.997
338.105
328.572
325.391
319.126
370.976
394.316
353.744
341.034
325.063
389.477
366.346
347.116
334.875
320.929
394.023
370.885
352.366
337.956
322.976
309.802
299.938
308.026
298.787
312.891
303.037
309.431
300.335
319.082
309.22
312.192
303.202
379.465
367.838
356.53
345.118
339.321
329.004
327.12
316.989
315.619
306.653
382.827
368.657
360.334
346.67
343.285
331.015
329.993
318.241
317.775
307.971
364.483
346.33
367.556
348.312
387.433
367.888
389.784
368.466
349.423
332.923
346.5
330.697
370.157
349.584
370.893
350.184
391.458
368.783
391.926
369.201
352.067
334.478
352.834
335.034
333.355
318.743
319.387
307.47
331.773
317.002
318.627
306.794
334.76
320.005
319.896
307.651
336.303
320.698
320.775
308.479
289.381
284.339
282.388
283.505
279.436
278.081
292.934
287.385
285.203
285.226
280.969
279.428
299.46
293.477
291.016
287.903
282.956
281.096
356.512
349.172
345.875
334.635
328.174
325.463
319.012
312.749
310.321
306.207
299.299
296.336
289.813
284.019
281.756
355.078
345.616
341.605
334.013
325.234
321.496
318.931
310.755
307.406
305.117
297.55
294.7
288.489
283.101
281.029
318.658
310.62
305.147
300.429
320.274
311.236
305.292
300.345
318.738
310.72
305.28
300.554
320.826
311.555
305.559
300.59
318.667
310.809
305.587
300.945
321.247
311.878
305.983
301.017
322.787
312.703
306.223
300.988
324.106
313.57
306.698
301.245
320.154
311.685
306.145
301.288
317.945
311.193
306.312
301.927
318.139
310.793
305.879
301.43
316.763
310.558
306.013
301.923
321.818
312.534
306.459
301.349
318.943
311.791
306.647
302.142
323.149
313.331
306.91
301.685
319.787
312.36
307.053
302.518
316.021
309.689
305.013
300.732
312.84
308.631
304.862
301.209
316.008
309.734
305.124
300.865
313.065
308.746
304.949
301.302
316.102
309.853
305.345
301.158
313.745
309.051
305.145
301.492
315.834
309.904
305.582
301.577
314.272
309.333
305.385
301.77
315.486
309.963
305.784
302.014
310.196
307.847
304.606
302.078
308.619
307.456
304.504
302.379
310.72
308.046
304.715
302.164
309.205
307.671
304.608
302.45
311.666
308.423
304.902
302.295
310.204
308.058
304.788
302.571
312.8
308.916
305.203
302.518
311.322
308.535
305.041
302.747
313.86
309.486
305.571
302.764
312.226
309.04
305.338
302.962
315.314
310.559
306.219
303.185
313.494
310.108
306.083
303.522
314.626
310.035
305.884
302.956
312.863
309.578
305.694
303.222
315.932
311.064
306.539
303.414
314.131
310.66
306.479
303.836
316.597
311.58
306.927
303.74
314.838
311.225
306.905
304.189
295.337
291.563
288.69
286.769
285.809
295.332
291.573
288.699
286.776
285.814
295.411
291.604
288.715
286.785
285.821
295.43
291.629
288.732
286.797
285.831
295.514
291.657
288.745
286.805
285.836
295.547
291.695
288.772
286.823
285.851
295.695
291.787
288.83
286.861
285.88
295.91
291.92
288.912
286.916
285.922
295.65
291.738
288.794
286.837
285.861
295.78
291.783
288.817
286.851
285.872
295.599
291.695
288.766
286.818
285.847
295.713
291.738
288.789
286.832
285.857
295.782
291.821
288.846
286.872
285.888
295.905
291.858
288.864
286.882
285.896
295.987
291.945
288.923
286.923
285.927
296.085
291.966
288.93
286.926
285.93
295.362
291.557
288.683
286.764
285.805
295.393
291.555
288.679
286.761
285.802
295.419
291.587
288.7
286.775
285.813
295.436
291.578
288.692
286.769
285.809
295.512
291.635
288.728
286.792
285.827
295.514
291.619
288.716
286.784
285.82
295.615
291.682
288.755
286.81
285.84
295.6
291.666
288.744
286.802
285.834
295.671
291.71
288.771
286.82
285.848
534.695
532.219
534.176
531.7
533.552
531.202
533.58
531.354
535.256
533.133
538.757
539.203
537.817
537.493
539.065
539.772
539.101
539.651
565.267
571.351
572.629
572.917
572.979
558.756
569.569
572.226
572.83
572.959
565.305
571.371
572.635
572.919
572.98
558.778
569.595
572.232
572.834
572.96
565.292
571.383
572.64
572.92
572.98
558.754
569.61
572.239
572.835
572.96
565.461
571.433
572.652
572.923
572.981
558.933
569.666
572.253
572.838
572.961
565.955
571.539
572.675
572.928
572.982
559.526
569.798
572.281
572.844
572.962
566.345
571.577
572.678
572.928
572.982
561.095
570.1
572.338
572.855
572.964
566.273
571.578
572.68
572.929
572.982
560.519
569.986
572.318
572.852
572.964
566.34
571.569
572.675
572.927
572.981
561.342
570.157
572.349
572.857
572.965
566.374
571.577
572.677
572.927
572.981
561.358
570.172
572.351
572.857
572.965
429.914
465.175
462.802
425.622
409.127
410.596
412.409
415.256
424.02
427.942
453.725
462.638
461.539
471.079
437.916
442.389
425.796
429.129
419.134
421.161
372.93
355.124
308.158
301.56
304.604
301.342
306.22
371.341
365.696
347.827
355.489
352.295
328.232
338.546
334.496
322.302
326.278
320.597
367.938
341.576
325.297
321.389
329.455
324.926
316.756
315.161
313.355
309.575
318.594
315.498
369.59
348.068
356.253
336.749
329.427
342.05
317.46
310.216
320.472
354.271
337.739
322.808
306.624
286.939
343.462
331.093
317.304
301.863
283.788
304.655
299.731
293.26
285.642
277.299
298.769
294.804
289.547
283.327
276.51
301.493
297.085
291.256
284.383
276.867
298.574
294.639
289.419
283.244
276.481
302.933
298.291
292.168
284.953
277.061
352.755
335.257
319.928
304.025
285.879
347.028
329.546
314.445
299.159
282.411
337.247
325.288
311.911
297.431
281.621
339.311
323.348
309.147
295.022
280.573
336.785
321.14
307.208
293.558
279.936
321.764
313.395
303.157
291.663
279.339
329.795
319.323
307.241
294.127
280.205
326.422
316.562
305.074
292.642
279.63
316.855
309.561
300.398
289.966
278.751
320.049
311.941
302.002
290.882
279.049
315.414
308.408
299.549
289.435
278.566
351.256
334.921
320.133
304.323
286.025
332.865
322.413
310.157
296.462
281.28
319.471
311.747
302.094
291.085
279.159
316.194
309.179
300.27
289.989
278.789
323.012
314.663
304.361
292.612
279.745
319.286
311.763
302.269
291.302
279.265
312.234
306.02
297.994
288.614
278.324
310.831
304.838
297.069
288.002
278.102
309.224
303.473
296.001
287.301
277.852
305.903
300.748
293.991
286.072
277.439
313.761
307.159
298.715
288.974
278.423
311.104
305.033
297.183
288.052
278.114
352.334
336.274
321.622
305.719
286.734
338.093
326.875
313.994
299.443
282.666
344.414
330.912
317.032
301.614
283.63
329.283
319.942
308.577
295.532
280.887
323.152
314.955
304.733
292.937
279.873
333.457
323.115
310.884
297.076
281.546
312.841
306.502
298.331
288.808
278.386
306.471
301.226
294.363
286.313
277.524
315.435
308.602
299.879
289.769
278.718
507.522
543.695
501.141
538.806
478.438
520.746
484.601
525.704
490.085
476.821
519.575
493.131
466.16
452.025
494.083
465.745
523.691
537.241
551.894
558.143
517.607
530.861
548.074
554.981
532.001
508.099
511.453
495.631
521.298
543.064
542.747
544.036
506.129
511.806
520.514
520.961
477.569
482.021
549.367
553.125
525.228
532.837
558.548
562.492
550.397
564.682
563.826
569.683
544.389
562.27
561.047
568.484
532.011
556.972
547.273
563.578
558
567.568
562.321
569.086
470.754
463.073
479.182
465.63
443.108
435.898
450.634
437.735
504.866
492.591
496.239
489.484
485.581
466.792
487.772
466.507
456.27
438.511
457.92
437.892
511.241
494.076
513.645
494.124
528.548
556.203
519.199
548.872
520.809
552.026
515.573
545.789
534.222
558.734
521
550.511
536.488
559.814
521.289
551.268
538.072
523.974
559.435
549.759
530.444
517.154
556.165
545.625
519.174
507.588
550.543
539.732
462.157
434.966
487.195
511.157
544.491
432.095
457.932
481.228
503.298
535.133
432.643
459.223
485.133
510.435
539.848
504.681
491.51
519.936
507.782
500.992
488.434
519.332
506.741
494.977
482.811
518.261
505.435
425.308
416.807
451.165
441.785
473.42
462.839
494.601
482.974
519.316
506.76
424.525
413.853
452.043
444.796
477.921
470.577
501.891
492.713
523.51
512.257
453.66
450.116
451.249
447.279
423.331
407.621
420.651
402.972
479.623
478.631
481.248
479.685
448.138
444.878
447.398
444.038
418.311
400.476
417.269
399.046
476.723
476.889
476.324
476.557
506.088
504.858
527.586
525.458
506.302
504.042
527.178
523.445
504.691
504.225
527.463
525.877
503.271
503.13
526.28
524.701
483.4
479.831
497.224
492.434
480.367
476.265
495.961
490.291
474.54
470.367
494.096
487.19
409.454
404.369
434.359
428.94
454.997
449.171
474.263
468.547
493.723
484.461
403.908
397.889
438.509
431.877
462.866
454.848
481.639
471.76
494.773
482.688
413.663
407.047
422.199
413.731
438.915
427.703
454.959
437.778
396.271
377.241
399.779
379.63
395.757
379.028
399.717
381.25
398.025
393.144
397.189
392.02
381.523
384.554
417.665
419.949
444.134
447.226
400.29
403.322
400.023
401.508
385.997
387.231
362.162
344.143
363.976
345.383
363.546
343.742
364.964
344.979
366.227
343.052
368.988
345.172
370.323
345.677
369.698
344.706
396.359
387.985
400.701
388.425
418.03
410.257
423.845
411.369
382.262
368.374
379.06
368.228
403.418
388.404
404.107
387.462
427.802
411.725
428.957
410.895
384.048
368.149
384.228
367.116
364.4
341.056
351.56
333.121
361.928
339.482
351.395
332.877
365.62
341.754
351.264
332.843
365.474
341.487
350.237
332.004
358.429
353.098
341.16
336.128
359.708
354.736
340.544
335.75
361.834
357.969
339.649
335.641
391.046
411.312
374.524
358.554
336.778
409.843
390.954
374.179
357.482
334.663
407.711
386.578
367.362
350.716
332.177
346.304
338.133
328.951
317.963
348.779
341.177
329.31
318.753
352.697
345.947
329.883
319.889
403.488
395.705
384.822
377.809
368.272
362.131
351.439
344.37
329.467
319.889
399.676
387.857
378.987
367.47
360.472
349.536
344.061
332.659
327.232
316.798
374.489
357.931
372.983
354.615
396.2
379.109
394.425
374.533
354.961
338.762
356.21
341.05
372.909
352.754
371.75
351.14
393.793
371.835
392.655
370.124
354.942
337.454
353.731
335.935
338.363
323.505
323.359
310.936
340.175
325.124
324.868
312.363
337.468
322.505
322.124
309.55
337.187
321.49
321.482
309.061
331.159
328.757
299.952
298.001
335.18
332.344
301.186
298.991
340.297
335.962
302.587
298.437
388.721
383.704
371.282
366.732
356.068
351.916
336.699
330.608
301.629
295.241
377.283
372.319
357.143
352.583
339.156
334.814
320.015
315.16
294.991
290.142
327.427
316.337
308.935
302.939
328.045
316.443
308.788
302.681
326.919
316.096
308.831
302.868
327.62
316.163
308.665
302.655
325.955
315.67
308.84
303.057
326.808
315.701
308.609
302.777
326.416
315.245
307.983
302.18
325.398
314.487
307.337
301.685
324.74
314.904
308.42
302.874
321.53
313.824
308.265
303.395
324.36
315.051
308.828
303.421
321.908
314.231
308.633
303.781
324.668
314.568
307.923
302.405
321.079
313.386
307.864
303.105
324.12
314.032
307.417
302.051
320.5
312.897
307.468
302.851
326.17
316.066
309.195
303.511
324.237
315.638
309.438
304.312
325.677
315.863
309.146
303.51
323.946
315.511
309.374
304.286
324.871
315.525
309.1
303.604
323.523
315.282
309.254
304.246
323.464
314.997
309.022
303.844
322.867
314.977
309.147
304.274
322.049
314.5
308.926
304.175
322.244
315.25
309.426
305.653
320.842
315.031
309.495
306.235
322.183
315.17
309.381
305.625
320.818
314.954
309.441
306.194
321.971
314.989
309.239
305.505
320.661
314.784
309.309
306.097
321.502
314.684
309.088
305.39
320.253
314.508
309.143
305.975
320.65
314.23
308.892
305.284
319.427
314.112
308.922
305.828
318.721
313.148
308.173
304.791
317.181
312.973
308.229
305.291
319.617
313.697
308.548
305.052
318.231
313.569
308.608
305.592
317.926
312.614
307.74
304.437
316.268
312.368
307.781
304.923
317.251
312.094
307.329
304.087
315.528
311.784
307.334
304.549
296.806
292.452
289.238
287.131
286.088
296.736
292.429
289.227
287.124
286.084
296.752
292.415
289.214
287.114
286.076
296.656
292.376
289.194
287.102
286.066
296.695
292.369
289.184
287.094
286.06
296.563
292.314
289.154
287.075
286.046
296.403
292.219
289.096
287.037
286.016
296.178
292.084
289.014
286.983
285.974
296.564
292.29
289.135
287.062
286.035
296.59
292.267
289.115
287.047
286.024
296.678
292.342
289.164
287.081
286.05
296.681
292.315
289.143
287.066
286.038
296.413
292.203
289.082
287.027
286.008
296.456
292.19
289.068
287.017
286
296.206
292.078
289.006
286.977
285.969
296.278
292.082
289.002
286.973
285.966
296.904
292.479
289.249
287.137
286.093
296.988
292.497
289.255
287.14
286.096
296.867
292.452
289.231
287.125
286.084
296.958
292.475
289.241
287.131
286.088
296.813
292.409
289.203
287.106
286.069
296.9
292.436
289.216
287.114
286.075
296.775
292.37
289.176
287.087
286.055
296.823
292.388
289.186
287.093
286.059
296.741
292.344
289.16
287.076
286.046
531.418
530.034
531.578
530.164
532.054
530.63
533.148
531.613
535.343
533.694
538.828
539.32
537.884
537.688
539.119
539.847
539.121
539.678
564.825
571.282
572.617
572.915
572.979
558.079
569.432
572.2
572.826
572.958
564.955
571.316
572.625
572.917
572.979
558.262
569.486
572.211
572.829
572.959
565.088
571.348
572.633
572.919
572.98
558.477
569.541
572.224
572.832
572.959
565.398
571.419
572.648
572.922
572.98
558.873
569.637
572.245
572.837
572.96
565.968
571.539
572.674
572.928
572.982
559.578
569.794
572.278
572.843
572.962
566.361
571.58
572.678
572.928
572.982
561.134
570.108
572.34
572.855
572.964
566.293
571.581
572.681
572.929
572.982
560.571
569.993
572.318
572.851
572.964
566.351
571.571
572.676
572.927
572.981
561.366
570.162
572.35
572.857
572.965
566.378
571.578
572.677
572.927
572.981
561.367
570.174
572.351
572.857
572.965
430.14
464.996
462.051
426.244
419.971
425.926
417.617
425.017
446.353
462.284
450.151
464.218
284.184
284.833
286.28
288.602
291.928
296.375
284.735
285.396
286.863
289.194
292.464
296.741
283.764
283.557
284.458
284.323
286.009
286.04
288.516
288.864
292.063
292.812
296.579
297.439
302.022
308.855
317.013
326.539
335.643
341.595
302.045
308.307
315.364
322.701
329.126
333.119
283.12
281.591
279.539
277.089
274.391
283.707
282.088
279.916
277.325
274.471
285.014
283.195
280.757
277.85
274.65
287.11
284.97
282.105
278.691
274.936
290.11
287.506
284.028
279.89
275.343
294.113
290.886
286.587
281.486
275.885
283.618
282.014
279.86
277.29
274.459
284.215
282.519
280.243
277.529
274.541
285.54
283.64
281.095
278.06
274.721
287.643
285.42
282.445
278.903
275.008
290.591
287.911
284.334
280.081
275.408
294.438
291.157
286.792
281.614
275.929
282.741
281.27
279.295
276.937
274.339
282.554
281.111
279.174
276.861
274.314
283.369
281.801
279.698
277.189
274.425
283.246
281.698
279.62
277.14
274.408
284.769
282.988
280.6
277.752
274.616
284.798
283.013
280.619
277.763
274.62
287.033
284.906
282.056
278.66
274.925
287.348
285.172
282.259
278.787
274.968
290.233
287.612
284.109
279.941
275.36
290.909
288.184
284.542
280.211
275.452
294.299
291.044
286.707
281.56
275.91
295.074
291.698
287.201
281.867
276.014
299.18
295.15
289.811
283.496
276.569
305.278
300.259
293.668
285.905
277.391
312.487
306.259
298.197
288.752
278.373
320.761
313.081
303.364
292.062
279.548
328.426
319.305
308.114
295.206
280.735
333.344
323.273
311.163
297.265
281.539
299.197
295.163
289.822
283.504
276.572
304.791
299.855
293.367
285.719
277.328
311.055
305.085
297.318
288.198
278.179
317.504
310.438
301.366
290.76
279.069
323.082
315.038
304.853
292.995
279.863
326.527
317.873
307.012
294.392
280.366
284.299
285.184
286.887
289.498
293.16
298.006
284.853
285.755
287.479
290.092
293.669
298.268
283.881
283.678
284.816
284.696
286.632
286.695
289.449
289.858
293.364
294.194
298.368
299.393
304.071
311.219
319.485
328.737
337.144
342.125
303.865
310.312
317.364
324.425
330.295
333.532
283.225
281.68
279.607
277.132
274.406
284.026
282.36
280.124
277.455
274.516
285.565
283.665
281.116
278.075
274.726
287.925
285.665
282.636
279.025
275.049
291.231
288.466
284.764
280.353
275.501
295.602
292.162
287.57
282.106
276.097
283.726
282.105
279.93
277.333
274.474
284.542
282.797
280.456
277.662
274.586
286.1
284.118
281.46
278.29
274.799
288.46
286.117
282.979
279.239
275.122
291.688
288.85
285.054
280.535
275.563
295.832
292.353
287.712
282.195
276.128
282.847
281.36
279.363
276.98
274.354
282.663
281.204
279.245
276.906
274.329
283.693
282.078
279.909
277.321
274.47
283.585
281.986
279.84
277.277
274.455
285.335
283.47
280.968
277.983
274.695
285.392
283.519
281.005
278.006
274.703
287.881
285.629
282.609
279.008
275.044
288.251
285.943
282.848
279.157
275.095
291.417
288.625
284.885
280.43
275.527
292.168
289.262
285.37
280.732
275.63
295.933
292.446
287.786
282.241
276.143
296.859
293.232
288.384
282.614
276.27
301.056
296.766
291.061
284.287
276.84
307.454
302.146
295.137
286.84
277.712
314.783
308.269
299.776
289.767
278.724
322.828
314.914
304.825
293.013
279.881
329.859
320.592
309.155
295.895
280.981
333.855
323.736
311.54
297.518
281.631
300.863
296.597
290.93
284.205
276.812
306.634
301.449
294.605
286.506
277.598
312.902
306.693
298.574
289.001
278.456
319.108
311.844
302.473
291.473
279.317
324.177
316.004
305.62
293.492
280.036
326.915
318.218
307.286
294.571
280.428
373.738
355.815
311.009
303.869
307.804
303.907
309.308
380.805
379.201
357.191
369.706
335.657
348.002
328.759
333.193
326.262
374.247
348.3
331.496
326.491
335.247
329.393
320.007
319.15
318.248
313.733
324.051
320.092
372.117
350.074
360.717
339.781
333.257
347.236
321.283
313.859
324.959
355.153
338.57
323.528
307.148
287.153
344.159
331.743
317.851
302.245
283.934
307.284
302.015
295.04
286.777
277.689
300.884
296.628
290.958
284.222
276.817
304.435
299.631
293.234
285.64
277.299
300.926
296.668
290.989
284.24
276.823
305.778
300.757
294.087
286.175
277.481
363.559
345.741
328.922
310.331
288.362
362.461
344.459
327.066
307.745
285.459
346.893
334.47
319.623
302.647
283.502
355.837
339.296
322.655
304.166
283.832
329.012
320.044
308.588
295.247
280.596
339.417
328.404
314.814
299.195
281.996
323.061
315.181
304.944
292.944
279.791
326.936
318.368
307.321
294.423
280.296
320.883
313.387
303.597
292.096
279.497
358.167
341.666
325.968
308.467
287.72
339.546
328.634
315.318
299.932
282.531
325.418
317.124
306.44
293.933
280.155
321.023
313.493
303.721
292.235
279.571
328.589
319.725
308.468
295.319
280.698
323.521
315.552
305.308
293.287
279.959
315.266
308.688
300.1
289.972
278.794
314.554
308.114
299.654
289.666
278.678
313.788
307.489
299.17
289.341
278.558
309.75
304.101
296.615
287.75
278.017
318.919
311.758
302.388
291.359
279.252
315.404
308.829
300.188
289.991
278.786
355.078
338.865
323.864
307.339
287.406
340.083
328.716
315.528
300.495
283.061
349.009
335.265
320.738
304.192
284.6
332.207
322.599
310.746
296.977
281.405
326.801
318.235
307.379
294.676
280.485
338.577
327.866
314.826
299.736
282.51
316.417
309.658
300.83
290.422
278.945
309.847
304.175
296.673
287.793
278.034
319.663
312.361
302.875
291.713
279.394
281.02
296.505
310.632
322.805
332.382
339.518
489.666
484.032
461.511
467.046
474.935
466.37
452.371
442.239
508.115
522.76
502.061
515.233
493.261
485.141
504.193
480.512
475.935
453.977
458.445
468.217
460.63
446.346
437.619
498.848
509.505
493.557
502.935
485.368
477.832
493.302
467.819
464.46
443.472
446.768
458.433
452.256
437.535
430.121
484.718
495.105
480.483
489.889
474.183
467.792
482.029
454.771
452.277
432.493
435.034
447.45
442.117
427.679
421.255
471.471
482.518
468.054
478.229
462.921
456.798
471.249
445.346
443.316
424.49
426.65
439.121
434.493
420.27
414.369
461.498
473.287
458.573
469.842
454.418
449.002
463.75
438.972
437.168
419.021
420.989
433.396
429.328
415.103
409.601
454.943
468.298
452.258
464.946
448.795
443.955
458.846
413.806
410.746
435.529
439.687
406.473
401.17
428.739
420.396
392.108
372.331
391.12
373.854
387.373
386.719
376.3
409.768
406.906
430.042
433.675
402.895
397.933
424.002
416.239
387.65
368.388
386.81
370.085
383.277
383.067
372.34
403.321
400.777
421.853
424.804
397.193
392.627
416.794
410.051
383.027
363.417
382.126
364.978
378.898
378.631
367.079
395.244
393.012
412.551
414.985
389.651
385.079
408.248
401.912
376.136
357.115
375.348
358.528
372.39
372.093
360.7
388.715
386.674
405.491
407.646
383.646
379.301
401.602
395.744
370.136
352.285
369.448
353.372
366.994
366.658
355.646
384.015
382.107
400.577
402.574
379.464
375.585
396.936
391.486
366.263
349.02
365.714
350.105
363.518
363.392
352.654
540.848
556.278
530.291
548.983
515.75
539.696
490.511
519.036
490.089
512.666
512.617
534.657
526.233
545.242
535.781
552.713
507.503
488.329
526.453
498.702
480.443
460.328
499.48
469.567
548.526
555.706
560.607
564.495
538.353
547.402
554.238
559.939
538.701
524.305
517.372
507.955
535.542
548.727
544.808
544.497
508.383
512.346
522.187
521.344
479.041
482.361
551.585
553.608
527.603
533.399
560.284
562.85
560.585
568.057
567.471
570.915
553.961
565.451
564.077
569.558
541.125
559.993
551.643
565.065
559.559
568.126
562.632
569.205
474.8
463.378
481.706
465.579
443.942
433.706
451.377
436.274
508.17
493.265
501.845
490.998
486.699
466.626
488.039
466.407
456.508
437.623
457.928
437.567
512.758
494.309
514.038
494.158
531.275
557.166
519.922
549.155
525.423
553.672
517.048
546.368
535.504
559.203
521.301
550.632
536.831
559.947
521.356
551.297
555.036
543.872
564.871
556.647
545.663
534.532
561.123
551.753
531.884
521.442
554.725
544.587
461.013
424.787
492.044
516.95
546.714
419.431
455.684
486.897
510.573
538.01
424.566
457.62
487.094
512.857
540.834
523.955
506.868
528.364
512.053
517.93
502.16
526.153
509.687
508.763
494.008
522.945
506.649
409.822
398.086
447.36
435.682
477.399
464.97
500.371
486.868
521.179
505.997
413.778
400.917
448.395
438.83
478.301
468.406
503.203
491.636
523.859
510.67
451.538
446.636
449.746
444.961
417.806
399.661
417.531
398.399
479.175
477.635
481.068
478.512
447.214
443.589
447.084
443.627
416.643
398.122
416.731
398.318
476.34
476.25
476.179
476.343
506.078
504.51
527.578
525.283
506.69
503.703
527.34
523.18
504.59
503.968
527.415
525.753
503.217
503.028
526.255
524.653
488.96
475.61
468.821
491.795
477.344
470.286
485.538
472.015
464.947
489.533
474.589
467.179
477.618
464.045
456.906
486.38
470.324
462.301
385.8
377.575
373.807
422.439
411.169
405.261
450.584
436.937
429.338
470.523
455.925
448.31
484.673
466.753
457.625
387.187
376.797
371.92
427.629
415.631
409.334
455.223
440.549
432.32
474.638
457.061
447.45
486.573
466.186
455.502
415.622
406.921
421.185
412.623
446.41
431.648
456.597
439.081
392.096
370.097
393.259
372.072
393.335
372.696
395.222
374.881
394.869
390.894
394.142
388.632
375.958
379.718
416.749
419.597
444.447
447.242
398.178
402.577
398.056
400.804
382.83
386.085
348.466
331.367
353.945
334.924
350.965
331.871
356.425
335.968
354.976
332.474
362.268
337.813
366.236
341.055
368.262
343.086
389.795
380.481
397.277
384.001
415.125
405.08
422.476
408.268
377.07
363.204
369.715
359.646
401.579
386.005
403.509
386.677
427.002
410.012
428.665
410.318
381.254
365.329
383.338
366.202
357.781
334.861
346.313
328.554
350.938
330.542
342.992
326.049
361.979
338.069
348.351
330.205
364.318
340.271
349.292
331.137
331.737
319.954
324.349
316.308
333.873
322.586
324.579
316.992
338.095
328.567
325.385
319.121
370.966
394.307
353.733
341.025
325.057
389.469
366.337
347.108
334.868
320.924
394.014
370.875
352.357
337.948
322.971
309.745
299.872
308.024
298.782
312.892
303.041
309.427
300.331
319.079
309.219
312.188
303.199
379.459
367.834
356.523
345.114
339.315
329
327.115
316.987
315.615
306.65
382.82
368.652
360.327
346.666
343.279
331.011
329.987
318.238
317.771
307.968
364.475
346.325
367.549
348.307
387.425
367.883
389.777
368.461
349.416
332.918
346.493
330.692
370.15
349.58
370.887
350.179
391.452
368.778
391.92
369.197
352.061
334.474
352.828
335.03
333.35
318.739
319.383
307.467
331.767
316.999
318.623
306.791
334.755
320.002
319.892
307.648
336.298
320.695
320.772
308.477
289.311
284.257
282.3
283.518
279.424
278.061
292.942
287.393
285.21
285.221
280.97
279.43
299.462
293.48
291.019
287.902
282.956
281.097
356.51
349.171
345.874
334.633
328.173
325.462
319.011
312.748
310.322
306.207
299.299
296.337
289.812
284.018
281.756
355.075
345.615
341.604
334.011
325.233
321.495
318.929
310.754
307.406
305.115
297.55
294.7
288.487
283.101
281.029
318.652
310.614
305.139
300.419
320.256
311.223
305.281
300.334
318.735
310.718
305.279
300.553
320.824
311.553
305.558
300.589
318.663
310.807
305.586
300.944
321.244
311.876
305.981
301.016
322.784
312.701
306.222
300.987
324.103
313.568
306.697
301.244
320.151
311.683
306.144
301.287
317.942
311.191
306.311
301.926
318.135
310.791
305.878
301.429
316.76
310.556
306.012
301.922
321.815
312.532
306.458
301.349
318.94
311.789
306.645
302.141
323.146
313.33
306.909
301.684
319.785
312.359
307.052
302.517
316.018
309.686
305.007
300.723
312.835
308.627
304.858
301.202
316.005
309.732
305.123
300.865
313.063
308.744
304.948
301.302
316.099
309.851
305.344
301.158
313.742
309.049
305.144
301.491
315.831
309.902
305.58
301.576
314.269
309.332
305.384
301.769
315.483
309.961
305.782
302.013
310.192
307.843
304.602
302.071
308.609
307.45
304.5
302.375
310.719
308.045
304.714
302.164
309.204
307.67
304.607
302.449
311.664
308.421
304.901
302.294
310.202
308.056
304.787
302.57
312.798
308.914
305.202
302.517
311.319
308.533
305.04
302.746
313.857
309.484
305.569
302.763
312.223
309.038
305.336
302.961
315.311
310.557
306.217
303.184
313.491
310.106
306.082
303.521
314.623
310.033
305.883
302.955
312.86
309.576
305.693
303.221
315.929
311.062
306.538
303.413
314.128
310.658
306.478
303.835
316.594
311.578
306.925
303.739
314.836
311.223
306.904
304.188
295.333
291.561
288.689
286.769
285.809
295.327
291.57
288.697
286.775
285.813
295.411
291.604
288.715
286.785
285.821
295.429
291.629
288.732
286.797
285.831
295.513
291.657
288.745
286.805
285.837
295.547
291.695
288.772
286.823
285.851
295.695
291.787
288.83
286.861
285.88
295.91
291.92
288.912
286.916
285.923
295.65
291.738
288.795
286.837
285.861
295.78
291.783
288.817
286.851
285.872
295.599
291.695
288.766
286.818
285.847
295.712
291.738
288.789
286.832
285.857
295.782
291.821
288.846
286.872
285.888
295.905
291.858
288.864
286.882
285.896
295.987
291.945
288.923
286.923
285.927
296.085
291.966
288.93
286.926
285.93
295.359
291.556
288.682
286.764
285.805
295.391
291.554
288.678
286.76
285.802
295.418
291.587
288.7
286.775
285.814
295.436
291.577
288.692
286.769
285.809
295.512
291.635
288.728
286.793
285.827
295.513
291.618
288.716
286.784
285.82
295.615
291.682
288.755
286.81
285.84
295.6
291.666
288.744
286.802
285.834
295.671
291.71
288.771
286.82
285.848
534.761
532.295
534.186
531.708
533.554
531.204
533.58
531.354
535.255
533.132
538.756
539.201
537.815
537.492
539.063
539.77
539.099
539.65
565.32
571.364
572.632
572.918
572.979
558.79
569.578
572.228
572.831
572.959
565.302
571.37
572.635
572.919
572.98
558.781
569.596
572.233
572.834
572.96
565.291
571.383
572.64
572.92
572.98
558.755
569.61
572.239