/*--------------------------------*- C++ -*----------------------------------*\
| =========                 |                                                 |
| \\      /  F ield         | OpenFOAM: The Open Source CFD Toolbox           |
|  \\    /   O peration     | Version:  2306                                  |
|   \\  /    A nd           | Website:  www.openfoam.com                      |
|    \\/     M anipulation  |                                                 |
\*---------------------------------------------------------------------------*/
FoamFile
{
    version     2.0;
    format      ascii;
    arch        "LSB;label=32;scalar=64";
    class       volVectorField;
    location    "1.4";
    object      flux;
}
// * * * * * * * * * * * * * * * * * * * * * * * * * * * * * * * * * * * * * //

dimensions      [0 1 -1 1 0 0 0];

internalField   nonuniform List<vector> 
5712
(
(-0.284153 0.494331 0.312432)
(-0.363229 0.285177 1.02497)
(-0.671751 0.798776 0.24874)
(-0.983454 0.525335 1.0505)
(-1.00455 0.873352 0.185854)
(-1.73202 0.647995 1.08343)
(-0.76912 1.36507 0.291376)
(-1.95677 1.70138 1.66037)
(-0.624704 1.79784 0.35766)
(-1.37224 2.20951 2.28025)
(-0.934358 1.16545 0.356188)
(-1.4226 1.01536 1.66662)
(-0.836544 0.739676 0.344757)
(-1.10013 0.588369 1.38656)
(-0.368532 0.372278 0.358451)
(-0.422239 0.252129 1.24079)
(-0.640125 0.821497 0.216863)
(-0.734512 0.831992 0.136117)
(-0.822297 0.711399 0.580428)
(-0.815762 0.831245 0.346764)
(-0.644699 1.10949 0.211286)
(-0.794338 0.981167 0.114484)
(-0.947834 1.28914 0.630544)
(-0.849078 1.03378 0.313357)
(-0.233142 0.346328 0.239434)
(-0.177402 0.246697 0.176309)
(-0.289523 0.195545 0.766373)
(-0.196609 0.145885 0.546109)
(-0.541792 0.411796 0.181223)
(-0.437597 0.334157 0.133226)
(-0.921386 0.251871 0.753418)
(-0.672109 0.205186 0.55385)
(-0.712371 0.764574 0.425814)
(-0.742764 0.786453 0.181182)
(-0.79624 0.7739 0.369692)
(-0.768253 0.641239 0.166093)
(-0.286311 0.593476 0.172242)
(-0.220514 0.471258 0.400264)
(-1.6771 0.47166 1.45031)
(-2.24502 0.53797 0.39106)
(-1.08544 0.758789 0.520503)
(-1.33184 0.757714 0.172822)
(-2.24437 1.60456 1.85809)
(-2.91429 1.66187 0.501353)
(-1.16168 1.12753 0.483035)
(-1.33034 1.16501 0.162656)
(-1.24889 0.655322 1.04209)
(-1.76354 0.552631 0.322086)
(-1.09293 0.707007 0.535608)
(-1.44636 0.502781 0.18495)
(-0.643053 0.328865 0.91167)
(-1.03273 0.339742 0.28879)
(-0.125743 0.275324 0.27943)
(-0.0426076 0.40101 0.138567)
(-0.131936 0.144496 0.392054)
(-0.0477705 0.178615 0.154301)
(-0.378949 0.376282 0.302885)
(-0.153717 0.533975 0.163299)
(-0.516673 0.225556 0.381411)
(-0.191118 0.267913 0.1481)
(-0.372035 0.412726 0.378824)
(-0.142031 0.719613 0.216969)
(-0.389607 0.287825 0.328835)
(-0.125395 0.481458 0.144717)
(-0.660924 0.10896 0.477232)
(-0.210985 0.284706 0.172931)
(-0.851811 0.0908031 0.163311)
(-0.28836 0.211796 0.0574509)
(-1.02332 0.729255 0.544569)
(-0.512399 0.904332 0.382789)
(-0.936992 0.760382 0.332692)
(-0.555039 0.905306 0.245668)
(-0.951883 0.88883 0.591539)
(-0.61648 0.894591 0.488268)
(-0.837854 0.913092 0.321147)
(-0.625835 0.888085 0.277841)
(-0.743827 0.652416 0.321675)
(-0.443126 0.888544 0.222)
(-0.746065 0.663698 0.462932)
(-0.384251 0.874447 0.316974)
(-0.967373 0.752575 0.21621)
(-0.614721 0.901932 0.1599)
(-0.969959 0.754386 0.106075)
(-0.619395 0.901484 0.0873876)
(-0.885674 0.925432 0.20417)
(-0.660131 0.879787 0.176226)
(-0.896459 0.924856 0.101202)
(-0.66179 0.873064 0.0982944)
(-0.80255 0.605261 0.21145)
(-0.508557 0.894015 0.141023)
(-0.831044 0.585755 0.105275)
(-0.520252 0.898312 0.0681689)
(-0.763486 0.753824 0.292011)
(-0.334137 0.899963 0.160168)
(-0.356479 0.951621 0.223289)
(-0.43884 1.34973 0.265363)
(-0.766304 0.79939 0.406916)
(-0.366626 1.04774 0.290388)
(-0.314051 0.944036 0.329239)
(-0.44905 1.47669 0.458898)
(-0.807826 0.714344 0.190175)
(-0.331303 0.788365 0.0910769)
(-0.401731 0.954645 0.129917)
(-0.439521 1.29253 0.150402)
(-0.847827 0.70703 0.0922024)
(-0.338804 0.736185 0.0388894)
(-0.435769 0.96493 0.0546055)
(-0.457753 1.28083 0.0551414)
(-0.162721 0.24076 0.380357)
(-0.178343 0.319841 0.679131)
(-0.0552449 0.618202 0.255778)
(-0.111003 1.09894 0.755388)
(-0.473365 0.295032 0.441937)
(-0.501443 0.339533 0.662873)
(-0.186055 0.788043 0.312754)
(-0.337758 1.23644 0.786786)
(-0.606629 0.361736 0.496936)
(-0.670187 0.366802 0.596744)
(-0.301342 0.987795 0.398745)
(-0.516261 1.35867 0.761256)
(-0.491464 1.00989 0.550811)
(-0.0269034 1.06411 0.63318)
(-0.56482 0.873481 0.435585)
(-0.713568 0.861715 0.425142)
(-0.396739 1.29005 0.459789)
(-0.0126448 1.06581 0.635468)
(-0.287054 1.02184 0.611915)
(-0.516336 0.888609 0.623218)
(-0.840699 0.783377 0.650818)
(-0.611918 1.488 0.927576)
(-0.422541 0.973963 0.517326)
(-0.519915 0.975056 0.417595)
(-0.464213 0.884878 0.375363)
(-0.409271 0.904497 0.42312)
(-0.646181 1.68065 0.648637)
(-0.153559 0.090742 0.791251)
(-0.124439 0.109723 0.711345)
(-0.0886013 0.19785 0.914491)
(-0.0873973 0.467884 0.886641)
(-0.429772 0.127717 0.724742)
(-0.355167 0.146738 0.675596)
(-0.265127 0.268447 0.900426)
(-0.250782 0.515131 0.865881)
(-0.532655 0.187273 0.626112)
(-0.438237 0.15928 0.61491)
(-0.346006 0.359363 0.840828)
(-0.308022 0.578292 0.831446)
(-0.227489 1.04276 0.468266)
(-0.29427 1.00875 0.373094)
(-0.477156 0.952603 0.459244)
(-0.499372 0.915878 0.408603)
(-0.585644 0.83721 0.512602)
(-0.531021 0.746345 0.471505)
(-0.662734 0.642709 0.561378)
(-0.569704 0.559091 0.550039)
(-0.467464 0.466667 0.766471)
(-0.39403 0.66637 0.796987)
(-0.371765 0.955618 0.435619)
(-0.379835 0.905487 0.386254)
(-0.493979 0.976905 0.434195)
(-0.37252 0.944797 0.434311)
(-0.456026 0.864388 0.460214)
(-0.315735 0.797509 0.506145)
(-0.400821 0.730765 0.523366)
(-0.262904 0.648518 0.605388)
(-0.480174 0.494404 0.67899)
(-0.308904 0.664753 0.805204)
(-0.418969 0.976266 0.365046)
(-0.174676 1.0941 0.28783)
(-0.364394 0.976226 0.247139)
(-0.383407 1.12533 0.310457)
(-0.51309 0.931801 0.476455)
(-0.65587 0.957046 0.571963)
(-0.566322 0.912818 0.327014)
(-0.815154 0.969184 0.511793)
(-0.293265 0.901824 0.215803)
(-0.314735 0.91508 0.278768)
(-0.373599 0.893621 0.3259)
(-0.0952363 0.886753 0.27092)
(-0.326549 0.969826 0.0622899)
(-0.618843 1.13178 0.204186)
(-0.310646 0.966777 0.0288522)
(-0.66712 1.13232 0.0713209)
(-0.561644 0.887969 0.165242)
(-1.00886 0.983906 0.340465)
(-0.571679 0.881994 0.0577725)
(-1.07477 0.983198 0.115414)
(-0.251157 0.905414 0.0347079)
(-0.538273 0.913026 0.17746)
(-0.229915 0.906107 0.0160777)
(-0.577232 0.91324 0.0607784)
(-0.349764 0.769311 0.215371)
(-0.253852 0.730512 0.217905)
(-0.493334 0.499516 0.245493)
(-0.187013 0.560115 0.157055)
(-0.352636 0.765119 0.344208)
(-0.0451902 0.712787 0.27945)
(-0.426162 0.493016 0.404741)
(-0.00874581 0.566827 0.286081)
(-0.338699 0.779196 0.05528)
(-0.38991 0.727358 0.119103)
(-0.518036 0.509894 0.122272)
(-0.235314 0.560299 0.0724436)
(-0.282263 0.782418 0.0654292)
(-0.462925 0.719837 0.0840006)
(-0.460523 0.525624 0.0919258)
(-0.311031 0.559858 0.0697639)
(-0.0961431 0.0714541 0.57213)
(-0.0829452 0.0460101 0.350176)
(-0.07125 0.0307633 0.111514)
(-0.069585 0.0400562 0.64501)
(-0.0625473 0.0258392 0.373528)
(-0.0542541 0.0238149 0.122865)
(-0.281582 0.100292 0.549445)
(-0.221662 0.055876 0.346629)
(-0.185093 0.0406689 0.118158)
(-0.185108 0.077721 0.633326)
(-0.142129 0.0600375 0.37368)
(-0.11885 0.0499588 0.122823)
(-0.3357 0.112627 0.505191)
(-0.27875 0.0870606 0.318936)
(-0.252622 0.084543 0.105505)
(-0.221197 0.135384 0.615718)
(-0.171647 0.106212 0.374369)
(-0.158314 0.0931104 0.125507)
(-0.250731 0.933876 0.253403)
(-0.211505 0.812215 0.144082)
(-0.202572 0.731743 0.0412948)
(-0.428378 0.87008 0.336936)
(-0.308 0.778916 0.224052)
(-0.251756 0.711943 0.0774054)
(-0.415411 0.630895 0.41057)
(-0.290118 0.564868 0.283128)
(-0.226357 0.528088 0.0977141)
(-0.433472 0.439317 0.480323)
(-0.32616 0.363696 0.313761)
(-0.276211 0.330688 0.104697)
(-0.286105 0.207613 0.607952)
(-0.178655 0.145014 0.383027)
(-0.134157 0.11926 0.133733)
(-0.61533 0.851594 0.295157)
(-0.509209 0.757699 0.173102)
(-0.425334 0.685403 0.0573269)
(-0.406084 0.888186 0.325359)
(-0.322409 0.777178 0.236024)
(-0.254948 0.697134 0.0896585)
(-0.372714 0.668611 0.393734)
(-0.274471 0.548408 0.290779)
(-0.206597 0.48174 0.107681)
(-0.322833 0.443135 0.488979)
(-0.220625 0.336354 0.344658)
(-0.158649 0.292284 0.124208)
(-0.34822 0.219907 0.616156)
(-0.186232 0.143504 0.389518)
(-0.097789 0.111465 0.139205)
(-0.430657 1.11509 0.011625)
(-0.579688 1.08328 0.0816803)
(-0.343684 1.22147 0.114912)
(-0.440159 1.08834 0.166383)
(-0.472381 1.25869 0.0918503)
(-0.689145 1.0887 0.104521)
(-0.424664 1.52932 0.229441)
(-0.612138 1.15353 0.216827)
(-0.000590343 0.856361 0.0240572)
(-0.0282584 0.860309 0.0401178)
(0.0208658 0.848159 0.0256719)
(-0.00451293 0.780872 0.0417529)
(-0.119664 0.961882 0.0189188)
(-0.132883 0.897116 0.0553637)
(-0.0510875 0.94847 0.0341015)
(-0.0277499 0.804111 0.072645)
(-0.0303415 0.939096 0.126691)
(-0.0980674 0.926453 0.062138)
(-0.384113 0.863218 0.161546)
(-0.556577 0.916872 0.0939318)
(-0.266805 1.1365 0.0847376)
(-0.151517 1.02837 0.147246)
(-0.412376 1.1514 0.136118)
(-0.409529 1.17222 0.0295804)
(-0.643605 1.25853 0.252928)
(-0.709233 1.30531 0.0557058)
(0.0238546 0.954996 -0.0874187)
(0.170861 0.99387 0.017028)
(-0.310937 0.854596 0.0657015)
(-0.291986 0.831143 0.0440768)
(-0.295161 1.03362 0.0418138)
(-0.227073 1.06279 0.0335987)
(-0.0407285 0.661341 0.380904)
(-0.021303 0.358285 0.166781)
(-0.027938 0.62147 0.103469)
(-0.0121584 0.396273 0.0617077)
(-0.0786547 0.672142 0.386992)
(-0.00586107 0.361556 0.172863)
(0.0126704 0.620966 0.130786)
(0.0329538 0.394 0.0782132)
(-0.370946 0.663632 0.382223)
(-0.0912764 0.363191 0.185303)
(-0.254922 0.620265 0.187865)
(-0.0648257 0.41057 0.126391)
(-0.368649 0.605082 0.132879)
(-0.110882 0.429507 0.0919722)
(-0.445286 0.613367 0.0578727)
(-0.140223 0.425766 0.0552506)
(-0.366415 0.858471 0.514372)
(-0.483735 0.726094 0.454737)
(-0.336974 0.859455 0.239928)
(-0.470417 0.728734 0.24782)
(-0.59634 0.953392 0.567022)
(-0.622355 0.854808 0.530121)
(-0.567069 0.969617 0.278032)
(-0.587207 0.850575 0.279048)
(-0.227269 0.837312 0.20714)
(-0.370573 0.603176 0.21203)
(-0.263577 0.867491 0.431793)
(-0.369042 0.592239 0.357191)
(-0.35656 0.882643 0.139737)
(-0.452192 0.727483 0.146816)
(-0.392189 0.895844 0.0731307)
(-0.455474 0.719986 0.0858978)
(-0.590169 0.999309 0.168282)
(-0.575467 0.846279 0.167164)
(-0.617109 1.00233 0.0876217)
(-0.576532 0.836583 0.0954244)
(-0.228729 0.832874 0.117428)
(-0.357613 0.606651 0.127946)
(-0.247909 0.832147 0.0607547)
(-0.362831 0.603266 0.0793238)
(0.0126065 0.545369 0.179358)
(-0.0427271 0.364504 0.118963)
(-0.280777 0.47488 0.177056)
(-0.162026 0.309976 0.118222)
(0.0335734 0.505054 0.282921)
(-0.0269286 0.326385 0.157147)
(-0.260162 0.454388 0.266083)
(-0.142499 0.289787 0.164555)
(-0.00550186 0.560741 0.104387)
(-0.0534312 0.387242 0.0846381)
(-0.286349 0.48364 0.110386)
(-0.176889 0.31947 0.0751146)
(-0.0223819 0.562338 0.0534401)
(-0.0633579 0.400672 0.0501883)
(-0.286443 0.482651 0.0683321)
(-0.182084 0.321745 0.0427891)
(0.0281904 0.104086 0.444026)
(0.0321391 0.0546444 0.292685)
(-0.00571212 0.193044 0.213548)
(0.000967984 0.10812 0.20655)
(0.117301 0.11073 0.442895)
(0.117103 0.0663307 0.302787)
(0.0111711 0.20532 0.214274)
(0.0190377 0.127752 0.20574)
(0.0280071 0.135496 0.463264)
(0.0809193 0.0989624 0.321503)
(-0.0577871 0.226642 0.217356)
(-0.0301929 0.164387 0.201416)
(0.407845 0.518922 0.564588)
(0.393401 0.811561 0.625066)
(0.220241 0.3737 0.502363)
(0.171144 0.358591 0.326256)
(0.0241831 0.260499 0.173957)
(0.428526 0.789638 0.592828)
(0.428473 0.543934 0.532157)
(0.168288 0.31698 0.479577)
(0.248909 0.318937 0.383278)
(0.0406272 0.215108 0.230594)
(-0.425188 0.828313 0.554291)
(-0.326888 0.645951 0.487841)
(-0.279638 0.509939 0.379502)
(-0.252034 0.396003 0.28231)
(-0.140408 0.25443 0.164824)
(0.0309496 0.0294655 0.233401)
(0.0271603 0.0213631 0.196478)
(0.00307351 0.0655399 0.209425)
(0.000309379 0.0494858 0.227283)
(0.098503 0.0405245 0.245969)
(0.0913252 0.0271531 0.197631)
(0.0100396 0.0883756 0.213894)
(0.00277286 0.0702582 0.227082)
(0.0999413 0.0688953 0.26559)
(0.113874 0.0508116 0.205563)
(-0.0167801 0.124231 0.219952)
(-0.0244971 0.100553 0.228739)
(0.203531 0.792895 0.447122)
(0.0843976 0.750494 0.318153)
(0.316148 0.530014 0.402245)
(0.188208 0.494176 0.278442)
(0.138968 0.340661 0.305007)
(0.0997773 0.331669 0.241709)
(0.158019 0.286281 0.273461)
(0.130932 0.252212 0.226546)
(-0.00484569 0.1836 0.206787)
(-0.0351435 0.148797 0.230545)
(-0.155964 0.74906 0.372303)
(-0.097637 0.666606 0.324554)
(-0.0447952 0.573298 0.318363)
(0.0353015 0.489232 0.275972)
(-0.0371373 0.441635 0.261662)
(0.0287764 0.378451 0.233228)
(-0.0561363 0.334999 0.219612)
(-0.00629068 0.289963 0.211598)
(-0.0615767 0.223261 0.161381)
(-0.0680216 0.210828 0.218759)
(-0.206359 0.593217 0.284153)
(-0.185366 0.465508 0.193071)
(-0.391983 0.600032 0.18773)
(-0.234596 0.458264 0.114765)
(-0.328703 0.722586 0.382003)
(-0.324364 0.588041 0.295171)
(-0.49767 0.725087 0.263469)
(-0.39941 0.585313 0.214476)
(-0.297951 0.495878 0.147843)
(-0.171106 0.388222 0.0889488)
(-0.146467 0.478925 0.215537)
(-0.142234 0.386456 0.157337)
(-0.462299 0.60226 0.186482)
(-0.202421 0.453486 0.0889276)
(-0.507903 0.599137 0.0650558)
(-0.226784 0.453328 0.0370186)
(-0.554949 0.724533 0.202574)
(-0.407895 0.599483 0.14785)
(-0.591829 0.718547 0.0673597)
(-0.438341 0.598723 0.056155)
(-0.362953 0.506195 0.156842)
(-0.138331 0.383977 0.0692795)
(-0.406247 0.505529 0.0590193)
(-0.160551 0.389088 0.0303269)
(-0.220569 0.384 0.115931)
(-0.166544 0.312111 0.103167)
(-0.152592 0.261726 0.0942566)
(-0.223328 0.262187 0.134463)
(-0.138791 0.3686 0.162302)
(-0.151694 0.303186 0.147931)
(-0.12877 0.2498 0.119853)
(-0.206628 0.247159 0.170769)
(-0.256114 0.400878 0.11883)
(-0.162857 0.319102 0.0737497)
(-0.172951 0.268595 0.0692581)
(-0.25687 0.277089 0.0921572)
(-0.314477 0.410064 0.0332845)
(-0.176709 0.319068 0.0151796)
(-0.223165 0.278804 0.00328837)
(-0.264533 0.281012 0.0146837)
(0.0255689 0.0570885 0.132939)
(0.0259127 0.0493252 0.0557297)
(0.0285364 0.0403952 0.0164933)
(0.00189332 0.242817 0.148251)
(0.00917364 0.128842 0.0391827)
(0.0100248 0.104401 0.0105028)
(0.0927396 0.0559063 0.137819)
(0.0939775 0.0541097 0.0615149)
(0.0920934 0.0474935 0.0189346)
(0.00967436 0.266249 0.149954)
(0.0262407 0.153806 0.041398)
(0.0257559 0.12909 0.0116543)
(0.11956 0.0779728 0.135076)
(0.126554 0.0855733 0.0640264)
(0.126718 0.0865423 0.0168801)
(-0.0144715 0.298994 0.150709)
(0.0259194 0.194891 0.0432113)
(0.033792 0.171484 0.0103597)
(0.04077 0.68235 0.200986)
(0.0339649 0.614725 0.10603)
(0.0219096 0.570134 0.0259926)
(0.128331 0.455623 0.170075)
(0.127975 0.424741 0.0844338)
(0.117087 0.40681 0.0212311)
(0.103273 0.324466 0.155666)
(0.112771 0.308002 0.0757448)
(0.109144 0.301334 0.0210363)
(0.128459 0.270161 0.144539)
(0.131666 0.252199 0.0681451)
(0.125768 0.241335 0.0152835)
(-0.0378939 0.34572 0.15309)
(0.0119329 0.243281 0.0434883)
(0.0152826 0.216531 0.00700453)
(-0.142066 0.586565 0.248198)
(-0.0816642 0.517881 0.12891)
(-0.0450189 0.474136 0.0365873)
(0.0282794 0.424919 0.210947)
(0.0653222 0.377659 0.106183)
(0.0847413 0.351628 0.0299812)
(0.0296141 0.343491 0.181291)
(0.0747822 0.30463 0.0901153)
(0.0939084 0.283926 0.0265085)
(0.0146468 0.320106 0.161271)
(0.0619325 0.273389 0.0702303)
(0.075031 0.247518 0.0178723)
(-0.0691164 0.423975 0.166714)
(0.0159218 0.275515 0.0414083)
(0.0256421 0.242616 0.0103332)
(0.00111223 0.197417 0.062421)
(0.00116437 0.119739 0.0217597)
(0.00125541 0.0777783 0.00492645)
(0.00182832 0.0551561 -0.00416825)
(0.00938335 0.221169 0.0260465)
(0.00480036 0.12954 0.00950111)
(0.00367945 0.0818687 0.00272537)
(0.00320366 0.0566278 -0.000658611)
(0.000735089 0.19857 0.0658688)
(0.00219384 0.119788 0.0236426)
(0.00503973 0.078008 0.00650534)
(0.00709321 0.0555023 -0.00220954)
(0.0151649 0.225931 0.0328612)
(0.00862663 0.132261 0.0129142)
(0.00930924 0.0837891 0.00613222)
(0.00893677 0.0577168 0.00274041)
(-0.0071592 0.198478 0.0702418)
(0.000498518 0.118917 0.0259773)
(0.00732388 0.0789559 0.00937907)
(0.0129465 0.056122 0.00102499)
(0.00542402 0.230693 0.0551584)
(0.00655596 0.134121 0.023971)
(0.00786231 0.0864998 0.0082965)
(0.00823746 0.0589569 0.00155717)
(0.000746718 0.247821 0.0405816)
(0.00372816 0.141634 0.0209801)
(0.00329945 0.0873716 0.00557598)
(0.00302958 0.059742 -0.00128785)
(-0.0077483 0.254794 0.0358277)
(-0.000725738 0.146818 0.0216184)
(0.00313741 0.0895167 0.0108444)
(0.00502959 0.0613667 0.00562541)
(-0.0322078 0.211257 0.0568663)
(-0.00715186 0.126517 0.0237998)
(0.00121456 0.0824692 0.00652704)
(0.00664604 0.0573217 -0.00463976)
(-0.0492796 0.176058 0.0478099)
(-0.0117675 0.112541 0.0197167)
(-0.00192812 0.0763297 0.00815511)
(0.0121192 0.0548565 -0.00417733)
(-0.021642 0.186677 0.0679025)
(-0.0031799 0.115307 0.0253087)
(0.00415301 0.0775489 0.00827261)
(0.0109895 0.0542059 -0.00243787)
(-0.0401603 0.163064 0.0605708)
(-0.00892544 0.106459 0.0226027)
(-0.00242602 0.0734823 0.00891637)
(0.0103145 0.0529388 -0.00670449)
(-0.0346057 0.227784 0.0444163)
(-0.00843069 0.13498 0.0212029)
(0.00237282 0.0857418 0.00736765)
(0.00912199 0.0592293 -0.00171048)
(-0.0554349 0.183893 0.0358382)
(-0.0139651 0.116976 0.0167318)
(-0.00212283 0.0780939 0.00824991)
(0.0144259 0.0562981 6.07579e-05)
(-0.0385012 0.237033 0.0312385)
(-0.0107494 0.140726 0.0176181)
(0.00235565 0.0882002 0.00926028)
(0.0112059 0.0609048 0.00503808)
(-0.0597167 0.187406 0.0236532)
(-0.0158666 0.12016 0.0133766)
(-0.00279892 0.0797209 0.00813399)
(0.0150444 0.0574481 0.00426174)
(0.000579009 0.151065 0.078426)
(0.000707345 0.103687 0.026241)
(0.00114497 0.0714659 0.00540172)
(0.00236792 0.0525399 -0.00858124)
(0.00170764 0.102563 0.0757672)
(0.00107366 0.084811 0.023994)
(0.000593094 0.0638076 0.00772043)
(0.00213393 0.0493875 -0.0114607)
(0.00328394 0.151757 0.0782453)
(0.00251196 0.103392 0.0265036)
(0.00382207 0.0715058 0.00590223)
(0.00658347 0.0525061 -0.00821618)
(0.00678068 0.106882 0.0734774)
(0.00365415 0.0860138 0.023311)
(0.00203837 0.0642334 0.00788106)
(0.00583776 0.0496732 -0.0111698)
(-0.0126976 0.155719 0.076595)
(-0.00190827 0.103654 0.02641)
(0.00368256 0.0723275 0.00829833)
(0.0109633 0.0531117 -0.00532591)
(-0.00469904 0.119571 0.0688127)
(0.000919186 0.089772 0.0220064)
(0.00233938 0.065763 0.00920065)
(0.0102253 0.0508452 -0.00879906)
(-0.00106331 0.154752 0.0670457)
(0.00378213 0.101728 0.0241859)
(0.00609656 0.0715338 0.0106347)
(0.0112518 0.0543236 0.00067911)
(0.000984837 0.130696 0.0754424)
(0.00320525 0.092543 0.0244775)
(0.00187158 0.0678784 0.0124249)
(0.0102829 0.0509969 -0.010133)
(-0.0339548 0.145791 0.0591205)
(-0.00678974 0.0993837 0.0213193)
(-0.0011289 0.070293 0.010302)
(0.0141894 0.0522026 -0.00206634)
(0.00321277 0.0559424 0.058428)
(0.00152502 0.0697898 0.0167419)
(0.000920346 0.0516837 0.00664344)
(0.0017076 0.0157503 -0.00734907)
(0.00569285 0.00642643 0.0228892)
(0.00222965 0.0616316 0.00605232)
(0.00105854 0.0469925 0.00178368)
(0.000841486 0.0161964 -0.00132407)
(0.00682831 0.0645806 0.0608949)
(0.00363273 0.0726922 0.017907)
(0.00184301 0.0528996 0.0071702)
(0.00428245 0.0165882 -0.00697097)
(0.0146627 0.016538 0.0240809)
(0.0059439 0.0648106 0.00656163)
(0.00260144 0.0480178 0.00217438)
(0.00213123 0.0165436 -0.000946884)
(0.00486163 0.0810272 0.0628229)
(0.00404203 0.0778814 0.0192114)
(0.0024302 0.0546142 0.00845726)
(0.0069699 0.0165517 -0.00595551)
(0.0189472 0.0340674 0.0249266)
(0.00837268 0.0702455 0.00714904)
(0.00389897 0.0494659 0.00264647)
(0.00332387 0.0167343 -0.000514483)
(-0.00132907 0.101581 0.0570122)
(0.00365988 0.0841966 0.0180573)
(0.00300913 0.0574213 0.00946212)
(0.00972497 0.0179444 -0.00446284)
(0.0157695 0.0534711 0.0245066)
(0.00904797 0.0764297 0.00738046)
(0.0045511 0.0516556 0.00350053)
(0.0041513 0.0174574 0.000254182)
(-0.0164378 0.116029 0.0523752)
(0.000431524 0.0901686 0.0177904)
(0.000514847 0.060943 0.00978771)
(0.00890249 0.0207044 -0.00223924)
(0.00617458 0.0605455 0.0222504)
(0.00773691 0.0813763 0.0077266)
(0.00392782 0.0537247 0.00456159)
(0.00410238 0.0180986 0.00124684)
(-0.0392249 0.12457 0.0355712)
(-0.0045042 0.0970219 0.013596)
(-0.000440594 0.0624689 0.00621284)
(0.0100586 0.0198683 -0.000805288)
(-0.0119826 0.05349 0.0205937)
(0.00160284 0.0872336 0.00948155)
(0.00204764 0.0576574 0.0051985)
(0.00352477 0.0192535 0.00249647)
(-0.0295335 0.121187 0.0416653)
(-0.00143411 0.0940077 0.0142984)
(2.73471e-06 0.0613526 0.007079)
(0.00932177 0.0198406 -0.0017917)
(-0.00596566 0.051056 0.021157)
(0.00436058 0.0845421 0.00857279)
(0.00309511 0.0556524 0.00494179)
(0.003979 0.0185757 0.00191706)
(-0.0478968 0.126049 0.0280248)
(-0.00798959 0.0991348 0.0125624)
(-0.0014689 0.0630796 0.00620993)
(0.0109349 0.0186438 0.000795841)
(-0.017116 0.0524712 0.017835)
(-0.000933952 0.0894737 0.00947461)
(0.0011531 0.0588707 0.00527193)
(0.00324137 0.0193666 0.00304458)
(-0.0542306 0.128655 0.0189767)
(-0.0112424 0.101261 0.0107589)
(-0.0027854 0.0645875 0.0065874)
(0.0107202 0.0189861 0.00362705)
(-0.0215615 0.0564328 0.0141228)
(-0.00346276 0.0917261 0.00890533)
(4.17252e-05 0.0603355 0.00554701)
(0.0027607 0.0198056 0.00379307)
(0.000794966 0.042836 -0.000360781)
(0.000318712 0.0293821 0.000132825)
(0.000144578 0.0184414 0.00012435)
(7.37453e-05 0.00999308 7.63771e-05)
(4.71169e-05 0.00314973 5.1582e-05)
(0.0010419 0.0424533 -4.50608e-05)
(0.000477979 0.029334 9.16351e-05)
(0.000232007 0.0184585 6.95163e-05)
(0.000121716 0.0100081 4.13308e-05)
(7.85919e-05 0.00315467 2.76951e-05)
(0.0018978 0.0433907 0.000220506)
(0.00073572 0.0296533 0.000403175)
(0.000331198 0.0185629 0.000257723)
(0.000168878 0.0100455 0.000147154)
(0.000107967 0.00316447 9.75819e-05)
(0.00232142 0.0432052 0.00058638)
(0.00105677 0.0296803 0.000399905)
(0.00051325 0.0186195 0.000225047)
(0.000269997 0.0100792 0.000124532)
(0.000174665 0.00317482 8.18946e-05)
(0.00251593 0.0445294 0.000814546)
(0.000918343 0.0300355 0.000716819)
(0.000407269 0.0187188 0.000418677)
(0.000207073 0.0101114 0.000233943)
(0.000132352 0.00318289 0.000154282)
(0.00308111 0.0441846 0.00224639)
(0.0013864 0.0300831 0.00133813)
(0.000673175 0.018806 0.000721568)
(0.000354738 0.010162 0.000394781)
(0.00022975 0.0031984 0.000258994)
(0.00158322 0.04475 0.00260188)
(0.000700821 0.0305299 0.00154695)
(0.000339194 0.0190483 0.000837499)
(0.000179089 0.0102761 0.000460128)
(0.000116233 0.00323153 0.000302677)
(0.00115092 0.0457801 0.00379381)
(0.000419045 0.0311577 0.00204117)
(0.000183978 0.0193866 0.0010733)
(9.36893e-05 0.0104366 0.000585486)
(6.01331e-05 0.00327831 0.000384864)
(0.00246374 0.0456627 0.0013419)
(0.000923005 0.0304894 0.00103829)
(0.000416841 0.0189397 0.000590001)
(0.00021411 0.0102117 0.000328055)
(0.000137473 0.00321167 0.000216498)
(0.00118452 0.0486071 0.00145847)
(0.000383566 0.0310256 0.000980409)
(0.000163333 0.0190869 0.000542226)
(8.22278e-05 0.0102632 0.000299859)
(5.24389e-05 0.00322525 0.000197656)
(0.00261324 0.0458781 0.000940938)
(0.00106482 0.0303686 0.000830106)
(0.000502973 0.0188345 0.000476489)
(0.000262528 0.0101569 0.000264838)
(0.000169406 0.00319537 0.000174473)
(0.00112696 0.048536 0.00180249)
(0.000382101 0.030829 0.00103948)
(0.000167723 0.0189705 0.000548067)
(8.52459e-05 0.0102075 0.000298154)
(5.45213e-05 0.00320897 0.000195204)
(0.00190836 0.0460506 0.00172758)
(0.000610146 0.0308803 0.00122413)
(0.000254714 0.019156 0.000688952)
(0.000127195 0.0103143 0.000383033)
(8.09955e-05 0.00324155 0.000252988)
(0.00112217 0.0495024 0.00196301)
(0.000340141 0.0314039 0.00116673)
(0.000141252 0.0192826 0.000631501)
(7.07353e-05 0.0103553 0.00034759)
(4.51238e-05 0.00325205 0.00022906)
(0.00170338 0.0471321 0.0030052)
(0.000410985 0.0314919 0.00163894)
(0.000138145 0.0194739 0.000864647)
(6.21435e-05 0.0104635 0.000472304)
(3.81234e-05 0.00328496 0.000310679)
(0.000943952 0.0506468 0.00251562)
(0.000197302 0.0319498 0.00135242)
(6.09414e-05 0.0195572 0.000712334)
(2.64184e-05 0.0104837 0.000389269)
(1.60028e-05 0.00328939 0.000256204)
(0.000672514 0.0439201 -0.000697254)
(0.000246461 0.0295224 6.04154e-05)
(0.000108391 0.0184383 9.10242e-05)
(5.46083e-05 0.00998088 5.83127e-05)
(3.47167e-05 0.00314536 3.9715e-05)
(0.000493337 0.046027 -0.000386807)
(0.000196334 0.0296859 1.56889e-05)
(9.01669e-05 0.0184417 3.42837e-05)
(4.61484e-05 0.0099739 2.2229e-05)
(2.94767e-05 0.00314274 1.51497e-05)
(0.0016496 0.0444511 -0.000315696)
(0.000612774 0.0297378 0.000231236)
(0.000275043 0.0185299 0.000173329)
(0.000140147 0.0100196 0.000101515)
(8.95521e-05 0.00315613 6.76588e-05)
(0.0012774 0.0464574 -0.00024841)
(0.000512912 0.0298503 7.76166e-05)
(0.000239 0.0185121 6.38132e-05)
(0.000123308 0.0100037 3.76304e-05)
(7.90793e-05 0.00315106 2.50736e-05)
(0.00230809 0.0455515 0.000150447)
(0.000759163 0.0300976 0.000420977)
(0.00032744 0.018673 0.000261688)
(0.000164847 0.0100797 0.00014767)
(0.000105009 0.00317291 9.74898e-05)
(0.001729 0.0474069 0.000283954)
(0.000701311 0.0301499 0.000284357)
(0.000331055 0.0186369 0.000159785)
(0.000171981 0.010057 8.74696e-05)
(0.000110691 0.00316597 5.72003e-05)
(0.00204127 0.0472516 0.00119878)
(0.000828727 0.0305012 0.000829867)
(0.000394499 0.0188163 0.000450093)
(0.000205981 0.0101382 0.000244986)
(0.000132802 0.00318915 0.000159923)
(0.00117218 0.0485416 0.000824761)
(0.000526333 0.0304706 0.000535176)
(0.000256868 0.0187774 0.000282746)
(0.000135004 0.0101183 0.000152668)
(8.72502e-05 0.00318326 9.93591e-05)
(0.00104118 0.0488393 0.00225824)
(0.000446845 0.0307079 0.00112038)
(0.000217041 0.0188964 0.000567051)
(0.000113942 0.0101723 0.000303165)
(7.35844e-05 0.00319869 0.000197124)
(-0.00952808 0.464489 0.0826459)
(-0.0160783 0.720446 0.188023)
(-0.0187223 0.48234 0.0851115)
(-0.0384259 0.728217 0.187085)
(-0.0130246 0.507219 0.094881)
(-0.0462289 0.736067 0.186664)
(0.0136095 0.519899 0.112437)
(-0.0324741 0.735985 0.193756)
(0.0417955 0.490303 0.11589)
(0.0104879 0.697067 0.19801)
(-0.0217704 0.443005 0.0488721)
(-0.0446102 0.50109 0.0712666)
(0.0277299 0.447265 0.0777015)
(0.0237137 0.532269 0.118952)
(-0.044893 0.443458 0.0269416)
(-0.0749142 0.493256 0.0358673)
(-0.0605855 0.450338 0.00972676)
(-0.088137 0.49774 0.0121372)
(-0.0293616 0.414641 0.422957)
(-0.00691209 0.0712477 0.10148)
(-0.00157176 0.015291 0.0233813)
(-0.000350218 0.0034457 0.00525373)
(-8.86898e-05 0.000612493 0.00131475)
(-0.00849018 0.462173 0.11586)
(-0.00424064 0.131916 0.0312963)
(-0.00058381 0.0321487 0.00835442)
(-0.000160279 0.00732531 0.0019101)
(-7.28398e-05 0.00130146 0.000418685)
(-0.0901091 0.416094 0.416244)
(-0.021098 0.070283 0.0991189)
(-0.00481386 0.0149873 0.0228261)
(-0.00106729 0.0033664 0.00508825)
(-0.000270666 0.000596992 0.00128312)
(-0.0198045 0.462863 0.118073)
(-0.00562054 0.130604 0.0348692)
(-0.00140951 0.0317334 0.00862938)
(-0.000300787 0.00720039 0.00201684)
(-8.32807e-05 0.00126881 0.000504354)
(-0.150573 0.414939 0.39431)
(-0.0353183 0.0692255 0.0933357)
(-0.00808152 0.0146562 0.0214317)
(-0.0017982 0.00328094 0.0047745)
(-0.000455146 0.000580966 0.00120614)
(-0.0320548 0.460513 0.114606)
(-0.00968827 0.128778 0.0336646)
(-0.00240759 0.0311587 0.00830641)
(-0.000569783 0.00705028 0.00193145)
(-0.000145604 0.00124125 0.000484781)
(-0.200216 0.405028 0.357234)
(-0.0470962 0.0662022 0.0839068)
(-0.0108244 0.0139084 0.0192271)
(-0.0024169 0.00310897 0.00428329)
(-0.000612764 0.000550545 0.00108321)
(-0.0372448 0.448887 0.110875)
(-0.0122055 0.124536 0.0318789)
(-0.00312934 0.0300569 0.00776674)
(-0.000747951 0.00679586 0.00179054)
(-0.000190444 0.00119599 0.000447207)
(-0.247339 0.37788 0.295353)
(-0.058761 0.0602194 0.069089)
(-0.0136048 0.0126366 0.0158543)
(-0.00305453 0.0028361 0.00353955)
(-0.000778093 0.000503723 0.000896967)
(-0.0412501 0.41923 0.10386)
(-0.0149093 0.116618 0.0290782)
(-0.00392991 0.028261 0.0070125)
(-0.000950222 0.00641284 0.0016075)
(-0.000244671 0.00113089 0.000400563)
(-0.287207 0.327113 0.136649)
(-0.070313 0.0542244 0.033458)
(-0.0165158 0.0117617 0.00782068)
(-0.00374322 0.00268626 0.00176138)
(-0.000959004 0.000481275 0.000447813)
(-0.0680921 0.335205 0.0505038)
(-0.02127 0.0980894 0.0143637)
(-0.00532831 0.0244453 0.00344127)
(-0.00124035 0.00564771 0.000776123)
(-0.00031506 0.0010067 0.000193111)
(-0.269683 0.342746 0.205673)
(-0.0658371 0.0559087 0.0496382)
(-0.0153946 0.011982 0.0115063)
(-0.00347325 0.00271832 0.00257712)
(-0.000886529 0.000485251 0.000653655)
(-0.0509506 0.360401 0.0743243)
(-0.0177222 0.105252 0.0208609)
(-0.00460277 0.0259847 0.00503459)
(-0.00109632 0.00595186 0.00115365)
(-0.000279189 0.00105472 0.000289456)
(-0.294554 0.3204 0.0796816)
(-0.0721689 0.0536164 0.0196638)
(-0.0169827 0.011682 0.00461944)
(-0.00385586 0.00267458 0.00104595)
(-0.000989719 0.000479718 0.000266593)
(-0.0783758 0.32562 0.0283914)
(-0.0235381 0.0946496 0.00838653)
(-0.00579599 0.0236066 0.00200144)
(-0.00132859 0.00547222 0.000451596)
(-0.00033635 0.000978433 0.000113441)
(-0.306104 0.31819 0.0274753)
(-0.0743328 0.0530211 0.00674632)
(-0.0175133 0.0115407 0.00158989)
(-0.00397461 0.002643 0.00036149)
(-0.00101974 0.000473647 9.22579e-05)
(-0.0818525 0.324657 0.0112795)
(-0.0246068 0.0936404 0.00306314)
(-0.00610673 0.023288 0.000684943)
(-0.0013011 0.00541032 0.000190426)
(-0.000348128 0.000965845 3.82228e-05)
(-0.0220227 1.40292 -0.00746022)
(-0.295748 2.00533 0.0122693)
(-0.270003 1.95599 0.189856)
(-0.0958965 1.35811 -0.0413684)
(0.0687168 0.791325 0.0311473)
(0.116452 0.834495 0.033377)
(0.323415 1.16838 0.097321)
(0.473626 1.22475 0.124859)
(0.0712175 0.920835 0.0790264)
(0.346845 1.03629 0.148358)
(-0.0754912 1.47138 0.126197)
(0.101196 2.01827 0.194654)
(0.100669 1.86385 0.153492)
(0.203853 2.47925 0.190365)
(0.389612 1.21364 0.0793091)
(0.553328 1.38788 0.106658)
(0.589068 0.948495 0.0838499)
(0.741111 1.01634 0.0995102)
(0.240696 0.513411 0.0435385)
(0.312101 0.564129 0.0452715)
(-0.803467 0.191936 0.0921196)
(-0.575212 0.12311 0.0648807)