/*--------------------------------*- C++ -*----------------------------------*\
| =========                 |                                                 |
| \\      /  F ield         | OpenFOAM: The Open Source CFD Toolbox           |
|  \\    /   O peration     | Version:  2306                                  |
|   \\  /    A nd           | Website:  www.openfoam.com                      |
|    \\/     M anipulation  |                                                 |
\*---------------------------------------------------------------------------*/
FoamFile
{
    version     2.0;
    format      ascii;
    arch        "LSB;label=32;scalar=64";
    class       volScalarField;
    location    "1.4";
    object      gradTy;
}
// * * * * * * * * * * * * * * * * * * * * * * * * * * * * * * * * * * * * * //

dimensions      [0 -1 0 1 0 0 0];

internalField   nonuniform List<scalar> 
5712
(
12358.3
7129.43
19969.4
13133.4
21833.8
16199.9
34126.7
42534.5
44946
55237.6
29136.3
25384
18491.9
14709.2
9306.94
6303.23
20537.4
20799.8
17785
20781.1
27737.2
24529.2
32228.6
25844.5
8658.2
6167.43
4888.63
3647.11
10294.9
8353.91
6296.78
5129.66
19114.4
19661.3
19347.5
16031
14836.9
11781.4
11791.5
13449.2
18969.7
18942.9
40114
41546.8
28188.2
29125.4
16383
13815.8
17675.2
12569.5
8221.62
8493.55
6883.11
10025.2
3612.4
4465.37
9407.05
13349.4
5638.91
6697.83
10318.1
17990.3
7195.63
12036.4
2724.01
7117.66
2270.08
5294.9
18231.4
22608.3
19009.5
22632.6
22220.8
22364.8
22827.3
22202.1
16310.4
22213.6
16592.5
21861.2
18814.4
22548.3
18859.6
22537.1
23135.8
21994.7
23121.4
21826.6
15131.5
22350.4
14643.9
22457.8
18845.6
22499.1
23790.5
33743.3
19984.8
26193.5
23600.9
36917.2
17858.6
19709.1
23866.1
32313.1
17675.7
18404.6
24123.2
32020.7
6018.99
7996.04
15455.1
27473.5
7375.8
8488.33
19701.1
30910.9
9043.4
9170.06
24694.9
33966.7
25247.2
26602.7
21837
21542.9
32251.3
26645.2
25545.9
22215.2
19584.4
37200
24349.1
24376.4
22121.9
22612.4
42016.3
2268.55
2743.07
4946.25
11697.1
3192.92
3668.46
6711.18
12878.3
4681.82
3982.01
8984.08
14457.3
26068.9
25218.7
23815.1
22896.9
20930.2
18658.6
16067.7
13977.3
11666.7
16659.3
23890.4
22637.2
24422.6
23619.9
21609.7
19937.7
18269.1
16213
12360.1
16618.8
24406.7
27352.6
24405.6
28133.3
23295
23926.2
22820.5
24229.6
22545.6
22877
22340.5
22168.8
24245.7
28294.5
24169.4
28308.1
22199.2
24597.7
22049.8
24579.9
22635.4
22825.7
22652.7
22831
19232.8
18262.8
12487.9
14002.9
19128
17819.7
12325.4
14170.7
19479.9
18183.9
12747.4
14007.5
19560.4
17995.9
13140.6
13996.4
1786.35
1150.25
769.082
1001.41
645.98
595.371
2507.31
1396.9
1016.72
1943.02
1500.94
1248.97
2815.68
2176.51
2113.57
3384.59
2655.3
2327.76
23346.9
20305.4
18293.6
21752
19472.9
17798.6
15772.4
14121.7
13202.2
10982.9
9092.4
8267.21
5190.32
3625.35
2981.5
21289.9
18942.5
17135.1
22204.7
19429.4
17428.3
16715.3
13710.2
12043.5
11078.4
8408.84
7307.11
5497.69
3587.61
2786.61
27877.3
27081.9
30536.7
27208.6
31467.3
27217.5
38232.9
28838.2
21409
21507.7
21204
19521.8
24047.1
22427.9
23711.8
20102.8
23477.4
23161.3
21580.5
22921.8
28412.6
25709.4
28784.9
29305.6
31463.2
32632.8
23874.9
24846.7
21364.9
20778.6
25840.5
26569.8
16533.5
8957.14
15536.8
9906.81
16803.5
9038.89
15524.1
9849.99
16590.8
9079.76
15506.6
10264.2
15127
10737.7
15334.2
10644.1
21461.8
18152.4
21486.4
18218.3
23834.8
21370.2
24240.4
21264.4
20932.8
15079.4
21687.3
14806
22066.1
18187.1
22396.1
17999.6
24982.7
21157
25058.3
20914.6
20821.9
15166.3
20803.7
15081.7
13634.2
9112.59
11872
7749.4
12626.3
8159.62
11359.7
7244.67
14018.5
9681.05
12091
7986.75
14058.4
10016.8
12066.3
8043.62
2602.16
1366.11
4826.11
2703.01
2768.24
1658.27
5133
3193.79
3387.41
2474.06
5666.05
4109.69
12973.1
20289
9342.51
8964.77
6512.47
19740.9
13598.4
7924.51
7973.42
5377.71
20707.8
16148.8
12748.5
9900.07
6360.74
736.638
534.078
1638.5
1237.15
1013.11
678.827
2209.39
1756.46
1722.38
1270.29
3105.77
2513.81
19822.4
18762.3
13250.3
12354.4
8516.52
8291.73
7157.03
6305.29
4590.01
3719.92
18726.5
16665.1
14332.4
12230.8
11040.9
9461.27
8374.98
7249.08
5581.53
5270.69
14830.4
11637.7
15000.8
11456.6
18064.6
14701
18127.2
14632.8
12397
9705.54
11973.1
9661.4
15056.5
11337.2
14978.4
11333.2
18113.3
14987.1
17963.7
14968.1
12654.9
9599.43
12638.2
9727.21
9600.01
7802.78
6543.15
6554.67
9215
7579.64
6245
6178.99
10022
7977.54
6714.88
6927.23
10251.6
7976.71
6970.1
7025.29
1427.21
1233.13
1009.88
6070.42
3221.04
2610.02
1397.66
1352.74
1187.34
6656.22
3845.15
3227.26
1949.32
2139.33
2163.56
7474.85
4872.28
4287.11
17058.8
15368.1
14253.4
11390.6
10618.5
10170.2
8111.66
7700.04
7533.34
6754.03
6304.97
6033.39
8643
6082.04
5413.27
14664.1
12947
11853.4
10623
9441.48
8790.7
8587.27
7615.76
7098.16
8002.64
6834.72
6187.94
10599.4
6887.87
6065.4
4935.42
2993.47
1944.46
1378.9
5529.23
3238.5
2046.72
1415.7
4964.26
2994.69
1950.2
1387.56
5648.27
3306.53
2094.73
1442.92
4961.94
2972.92
1973.9
1403.05
5767.33
3353.04
2162.49
1473.92
6195.53
3540.84
2184.29
1493.55
6369.84
3670.44
2237.92
1534.17
5281.42
3162.94
2061.73
1433.04
4401.45
2813.51
1908.24
1371.41
4666.93
2882.69
1938.72
1355.15
4076.61
2661.47
1837.06
1323.47
5694.6
3374.51
2143.55
1480.73
4597.34
2924.41
1952.35
1407.45
5925.83
3518.15
2205.01
1522.62
4685.15
3004
1993.02
1436.2
3776.62
2592.18
1786.65
1313.5
2564.07
2120.28
1595.19
1234.69
3793.93
2584.81
1787.65
1312.65
2672.06
2150.34
1605.84
1241.83
3892.98
2591.36
1808.19
1327.79
2989.28
2244.3
1644.07
1271.13
3868.81
2543.19
1788.35
1358.09
3267.4
2313.57
1696.96
1274.92
3644.77
2484.59
1757.33
1305.06
1398.56
1744.74
1292.09
393.758
160.661
1540.79
1174.81
404.911
1614.52
1817.3
1322.49
414.706
413.449
1620.27
1200.45
413.59
2025.68
1947.04
1365.36
413.793
851.686
1756.14
1236.65
418.357
2539.53
2104.92
1435.53
448.609
1336.78
1910.74
1291.39
436.434
2900.72
2254.21
1523.58
517.61
1513.64
2034.41
1343.12
452.466
3114.26
2425.55
1561.72
496.707
1337.25
2180.84
1441.43
481.336
3029.68
2350.19
1533.81
496.015
1276.4
2113.55
1391.31
464.393
3151.23
2478.37
1576.99
466.094
1311.78
2236.84
1471.77
484.166
3216.37
2531.51
1614.69
474.653
1410.82
2293.15
1508.39
495.139
1070.9
734.551
461.036
249.827
78.7432
1061.33
733.349
461.463
250.203
78.8667
1084.77
741.333
464.072
251.138
79.1118
1080.13
742.007
465.486
251.98
79.3704
1113.24
750.889
467.971
252.784
79.5723
1104.62
752.077
470.15
254.05
79.9601
1118.75
763.248
476.207
256.903
80.7884
1144.5
778.943
484.665
260.914
81.9578
1141.57
762.235
473.491
255.291
80.2917
1215.18
775.641
477.173
256.581
80.6313
1146.95
759.216
470.863
253.923
79.8842
1213.4
770.724
474.261
255.188
80.2243
1151.26
772.007
478.899
257.857
81.0387
1237.56
785.098
482.065
258.883
81.3013
1178.3
787.297
486.846
261.587
82.1239
1266.17
798.744
488.929
262.091
82.2347
1098
738.059
460.958
249.522
78.6339
1150.68
742.148
461.042
249.347
78.5684
1111.28
743.446
463.247
250.489
78.9033
1161.44
746.256
462.804
250.094
78.7764
1138.79
752.44
466.825
251.992
79.3228
1185.17
753.747
465.922
251.425
79.1492
1181.29
762.531
470.407
253.454
79.7287
1213.54
761.764
469.434
252.957
79.5816
1220.98
767.697
472.41
254.307
79.9672
11612.2
18011.2
12058.5
18205.4
12680.5
18401.7
12997.5
18399.6
12257.6
17426.7
11075.1
12527.2
11181.6
13306.7
11086.5
12331.4
11258.5
12443.5
10366
1781.19
382.275
86.1425
15.3123
11554.3
3297.91
803.717
183.133
32.5364
10402.3
1757.07
374.683
84.1599
14.9248
11571.6
3265.1
793.334
180.01
31.7203
10373.5
1730.64
366.404
82.0235
14.5241
11512.8
3219.45
778.968
176.257
31.0312
10125.7
1655.05
347.709
77.7243
13.7636
11222.2
3113.41
751.422
169.897
29.8999
9447.01
1505.48
315.914
70.9025
12.5931
10480.7
2915.45
706.525
160.321
28.2722
8177.83
1355.61
294.041
67.1566
12.0319
8380.12
2452.24
611.133
141.193
25.1674
8568.66
1397.72
299.549
67.958
12.1313
9010.02
2631.3
649.617
148.796
26.368
8010
1340.41
292.051
66.8646
11.993
8140.5
2366.24
590.164
136.806
24.4608
7954.75
1325.53
288.517
66.075
11.8412
8116.41
2341.01
582.2
135.258
24.1461
35072.9
50133.2
48899.8
33952.8
19783.1
20862.4
29209.5
30618.8
23020.9
25907.1
36784.4
50456.7
46596.4
61981.3
30340.9
34696.9
23712.4
25408.5
12835.3
14103.2
4798.41
3077.74
636.127
458.187
519.946
444.738
570.071
4554.49
4345.66
2556.65
3525.17
3279.2
1364.3
1960.38
1715.39
1088.13
1269.1
1012.07
4142.61
2089.56
1219.4
1066.8
1424.82
1216.2
915.012
840.888
759.587
653.995
944.612
843.703
4403.82
2561.77
2969.17
1790.76
1420.39
2098.32
929.699
683.917
1036.54
9567.24
9292.54
9109.47
9807.7
15416.9
6682.01
7391.47
7786.05
8446.61
9608.56
1657.75
2333.72
2825.59
3148.27
3311.49
1206.08
1722.91
2111
2368.29
2496.87
1367.25
1949.14
2381.84
2665.04
2804.9
1172.72
1679.22
2060.81
2313.35
2438.89
1493.82
2118.88
2579.14
2879.9
3029.27
9398.56
9358.56
8900.04
9071.91
13617.4
8951.5
8757.55
8180.58
8088.75
9023.82
5769.9
6624.75
6919.53
7185.61
7618.48
7468.24
7592.64
7157.18
6908.22
6965.55
6948.61
7139.86
6728.69
6397.66
6304.31
3353.17
4331.17
4882.71
5199.48
5371.08
4584.52
5517.09
5903.21
6109.98
6272.2
4071.43
4994.91
5393.17
5563.51
5645.65
2740.48
3663.19
4235.8
4569.97
4733.02
3137.18
4080.65
4612.23
4898.44
5033.57
2567.27
3465.43
4034.6
4365.81
4522.18
8711.57
8963.14
8771.66
9174.08
13928.9
4877.72
5894.69
6413.39
6838.18
7321.64
3044.13
4023.49
4625.75
4996.79
5202.72
2695.3
3627.31
4235.62
4623.24
4835.33
3494.8
4517.57
5133.09
5547.7
5832.9
3042.52
4043.1
4689.72
5122.58
5383.9
2339.11
3205.34
3804.51
4200.62
4415.37
2165.13
2993.44
3569.14
3939.15
4128.51
1968.67
2744.61
3286.65
3625.66
3790.07
1705.95
2402.3
2903.69
3225.01
3382.79
2411.5
3289.25
3870.58
4227.45
4405.21
2171.02
2997.31
3565.79
3925.04
4105.68
8997.35
9010.1
8886.3
9507.93
14764.8
5743.84
6632.77
7140.67
7756.78
8645.22
6767.85
7671.5
7950.75
8527.3
10116.5
4285.99
5384.27
6055.84
6602.21
7083.72
3499.81
4561.33
5234.59
5716.61
6049.75
4905.2
5957.78
6534.24
7041.79
7615.17
2375.74
3251.71
3851.97
4243.45
4452.92
1778.53
2494.47
3007.78
3339.2
3504.7
2626.47
3551.21
4166.21
4565.39
4785.38
19585.8
13055.4
20136.6
14444.5
25956.1
37480.1
27202.9
37358.6
20642.3
21727
17769.6
21071.5
23246
21955.3
29893.2
24268.5
15238.9
14452.7
7465.88
6455.38
16567.2
15323.6
8553.55
7053.92
20556.3
22140.6
20936.7
18989.9
21502.8
14143.6
11674.6
13450.3
19015.7
18959.2
39785.5
41518.8
27556.6
28969.7
17133.8
13986
18561.7
12740.2
9027.56
8694.74
15405.7
17186.3
6429.17
7064.63
16882.8
19448.3
7989.48
8885.79
15986.3
22633
9260.15
14428.6
3210.63
7948.94
2369.69
5458.62
19086.6
21731.2
19039.3
22135.9
20556.9
20760
21757.6
21323
17587.5
22215.9
19987.6
21912.6
18720.6
22286.6
18813.7
22452.5
22600.1
21553.7
22967
21691.3
15550.5
22330
14724.4
22443.9
19937.1
23888.4
24150.2
34122.4
21777.8
28441
24286.8
37615.6
18370.8
20395.9
24025.4
32498.8
17811.9
18598.8
24162.1
32074
21174.9
22831.5
26836.5
40058.3
21209.4
21634.9
28672.8
40507
20753.6
20324.7
30755.7
40016.1
19273.4
19861.6
20952.7
22702.2
34851.7
19032.1
18024.8
22296.5
20648.4
40009.6
19857.6
21016.4
21200.9
23474.4
43056.6
12235.8
11079.8
11633.9
15297.4
13410.9
12167.3
12033.7
15677.8
14797.7
12685.6
12552.7
15958.9
18298.9
17347.5
17413.9
16719.5
20532.4
18928.7
17161.3
15295.7
13110.1
16597.7
19385.7
18906
20846.9
20757
20336.1
18961.5
18767.6
16565.9
12874.2
15987.3
22758.8
25500.7
23609.5
27163.4
21209.9
21967.6
21847
23282.3
22173.7
22355.7
21666.9
21323.4
23867.2
27839.3
24056.2
28175.1
21753.8
24148
21919.3
24450.3
22438.5
22566.9
22590.6
22755.3
19213.6
18098.3
12592.5
13952.6
19199.9
17657
12603.6
14099.6
19447.8
18086.7
12782.5
13977.3
19545.9
17964.3
13148
13985.1
10063
10226.5
4399.23
4024.25
11225.3
10825.5
4926.04
4690.18
10910.4
10135.3
5586.6
5363.07
16834.3
16131.7
16716.5
16629.6
16964.6
16268.5
12979.1
11465.3
6616.93
5391.68
18877.9
17871.7
20573.4
19522.2
16644
15198.8
12163.6
10267.1
6060.03
4451.3
22795.7
21498.6
28289.6
24474.4
25656.7
22670.4
35561.8
26523.1
20732.5
16911.7
22760.6
17866.2
20579.4
17198.2
22856.7
18120.7
21335.4
18711.7
19172.4
17653.1
21487.7
23005
27441.6
28904.2
30390
32332
22568
24397.9
20275.9
20469.5
24299.1
26053.7
13675
10067
14195.9
10315.7
13965.1
9988.66
14412.3
10181.8
13864.5
9847.32
14373.1
10399.8
14457.9
10733
15110.8
10634.3
17561
16876.6
19566.7
17432.2
20330.1
19350.5
22410.6
20155.7
19081.8
14766.7
17968.6
14504.9
21123.5
17770.9
22118.1
17873.9
24112.3
20605.1
24810
20749.4
19900.8
14969.9
20532.5
15020.3
13200.6
9478.55
12038.9
8102.45
12526.7
9154.22
11908.9
8005.73
13691.4
9803.73
12132.5
8147.97
13945.4
10043.3
12075.1
8095.07
13022.8
12943.2
9425.74
8673.8
13153.4
13060.6
9286.07
8604.83
13090.4
12563.2
9065
8517.33
15354.1
18322.9
16013.6
11832.8
8790.81
16939.3
15674.1
17297.8
11776.3
8480.88
18710.6
16346.5
14318.7
11925.1
7910.76
13133.3
13734.3
8482.93
8883.78
13041.7
13438.1
8423.9
8786.99
12227.2
12289.8
8108.41
8064.12
16603.5
15475.2
14781.9
13921.8
15103.6
15126.3
11658.7
12003.8
7903.97
7591.98
16814.6
15126.6
14886.2
13240
13178
12186.4
11059.7
10638.2
7337.59
7472.96
14608.1
12084.3
14728.3
11592.7
16842.7
13997.5
17418.7
14248.6
12548.4
10224.7
12588.7
10897.8
14878.5
11383.2
14922.2
11343.1
17759.7
14792.7
17858.6
14911.8
12664.7
9809.86
12628.4
9777.78
10054.9
8521.78
7003.95
7225.34
10292.5
9128.22
7170.88
7549.41
10195.2
8283.95
6925.46
7273.46
10298.8
8062.96
7039.43
7131.63
15734.1
15582.5
20417.3
17391.9
15216.2
15135.4
19607.3
16646.3
13439.8
13813.9
18039
15477.4
14735.3
14048.6
13233.3
12837.9
14924
15077.2
13297
13052.5
16556.7
14098.2
13808
12920.2
12212.8
11814.6
12052.2
12128.5
12454.5
11998.1
15994.1
12798.8
6296.4
3865.23
2437.77
1674.24
6518.45
3978.19
2497.79
1691.59
6197.68
3803.73
2401.29
1656.13
6470.37
3944.27
2485.17
1683.47
6019.01
3684.66
2372.55
1640.52
6404.4
3865.92
2490.17
1678.73
6560.7
3861.28
2401.13
1634.19
6490.81
3781.46
2311.31
1582.96
5827.59
3571.26
2329.92
1610.22
4778.93
3109.49
2102.27
1505.42
5543.77
3468.73
2292.41
1575.66
4700.03
3117.67
2099.86
1487.56
5991.3
3616.88
2310.44
1593.48
4799.51
3091.41
2072.46
1496.81
6017.19
3598.96
2261.98
1561.81
4748.64
3058.32
2033.77
1466.8
5841.86
3655.01
2337.77
1632.88
5113.43
3348.77
2204.11
1577.13
5710.37
3591.04
2305.39
1610.81
5024.53
3312.18
2184.25
1568.56
5528.28
3488.03
2275.25
1598.86
4961.2
3264.34
2163.14
1564.33
5129.86
3297.26
2190.99
1596.62
4807.42
3184.46
2140.74
1516.3
4577.12
3104.77
2086.54
1492.87
4077.64
3039.01
1864.79
533.71
2515.99
2844.16
1761.32
568.603
4103.1
3036.73
1868.29
552.141
2636.15
2845.05
1759.89
571.078
4153.39
3017.84
1848.61
530.223
2803.83
2831.46
1737.76
558.941
4105.54
2973.04
1858.84
556.269
2801.23
2791.14
1723.04
559.931
3866.04
2885.2
1865.89
619.805
2365.83
2698.16
1694.42
557.063
3414.17
2691.96
1758.05
565.292
1524.54
2466.69
1625.18
542.317
3575.62
2774.28
1805.48
582.217
1688.9
2566.55
1654.27
546.452
3301.08
2624.58
1694.64
508.313
1388.17
2391.7
1578.38
520.744
3260.07
2578.06
1653.38
488.809
1428.78
2341.42
1542.71
507.089
1266.79
843.528
517.471
276.163
86.3841
1240.46
836.668
515.629
275.587
86.2404
1265.8
840.66
515.472
275.128
86.0729
1237.87
832.148
512.713
274.118
85.8031
1278.08
838.505
513.111
273.836
85.6812
1237.76
826.749
509.2
272.355
85.2793
1209.87
814.978
503.391
269.675
84.5029
1177.95
798.413
494.956
265.76
83.3684
1263.1
829.704
508.397
271.603
85.0285
1329.69
835.618
507.829
270.865
84.7769
1301.37
839.45
511.892
273.028
85.4265
1361.13
842.908
510.851
272.193
85.1558
1231.34
818.2
502.994
269.15
84.3215
1311.65
825.651
502.966
268.653
84.1399
1205.98
803.272
495.229
265.527
83.27
1291.58
812.844
496.236
265.516
83.2303
1320.17
853.736
519.692
276.767
86.5254
1407.95
863.035
521.259
277.153
86.6133
1322.92
852.052
518.317
276.033
86.3031
1408.92
861.489
520.174
276.589
86.4432
1335.03
849.95
516.117
274.855
85.9474
1414.01
858.504
518.067
275.524
86.125
1364.49
849.526
514.147
273.732
85.6044
1421.66
853.835
515.39
274.227
85.7419
1395.45
847.8
512.731
273.01
85.388
13204.9
17494
13252.4
17477.9
13353.1
17425.3
13064.6
17144.6
12120.2
16208.5
11057
12419.2
11163.7
13037
11074.2
12285.4
11254.4
12431.1
10329.2
1733.61
368.182
82.6503
14.6727
11122.4
3176.37
772.222
175.632
31.1753
10267.9
1702.17
360.147
80.6945
14.3011
11054.7
3131.75
760.657
172.494
30.389
10099.1
1665.56
351.362
78.6264
13.9273
10890.8
3072.1
745.241
168.826
29.7435
9757.76
1587.96
333.615
74.6655
13.2355
10561.8
2965.45
719.073
162.98
28.7217
9132.07
1453.06
305.076
68.5455
12.1851
9929.27
2791.5
679.338
154.506
27.2836
8097.19
1339.24
289.921
66.144
11.8453
8274.19
2413.35
600.441
138.612
24.701
8411.91
1367.49
292.533
66.3342
11.842
8776.09
2556.64
631.078
144.609
25.6395
7971.48
1332.33
289.914
66.317
11.8894
8094.65
2348.44
584.923
135.472
24.2115
7943.38
1323.09
287.857
65.9026
11.8081
8103.48
2335.95
580.658
134.853
24.0688
34653.2
49921
48065.3
32657.9
25303.7
30430.6
24404.9
30293.5
28611.6
46001.8
30425.2
47172.9
90.1488
102.439
129.642
174.728
242.863
340.953
100.152
113.158
141.804
188.777
258.169
355.319
82.7276
79.1119
95.4747
92.9506
123.838
123.974
171.354
177.086
242.445
255.851
339.483
354.041
478.391
666.474
926.915
1291.37
1723.01
2035.29
486.394
657.019
871.5
1122.36
1368.49
1529.2
240.864
352.211
441.139
502.89
534.475
273.502
399.456
499.704
569.103
604.528
345.679
503.816
628.94
715.117
758.961
465.027
675.738
841.099
954.213
1011.52
644.627
932.758
1156.36
1307.99
1384.45
901.333
1296.12
1597.77
1800.2
1901.85
267.453
390.76
489.002
557.078
591.852
301.914
440.473
550.425
626.353
665.051
377.754
549.745
685.301
778.38
825.654
501.771
727.678
904.088
1024.34
1085.17
684.129
987.465
1221.52
1379.72
1459.42
937.591
1344.64
1653.94
1861.05
1965.16
221.12
323.539
405.478
462.464
491.642
211.496
309.55
388.065
442.711
470.706
255.016
372.715
466.571
531.651
564.907
248.319
363.031
454.579
518.101
550.575
330.376
481.906
602.062
684.962
727.182
330.791
482.633
603.111
686.271
728.634
456.339
663.764
826.941
938.753
995.445
471.648
686.117
854.859
970.474
1029.08
644.035
933.018
1157.86
1310.54
1387.54
679.644
984.541
1221.61
1382.42
1463.43
898.558
1294.41
1597.84
1801.58
1903.73
937.344
1350.67
1667.36
1879.61
1985.79
1256.59
1789.8
2188.4
2452.95
2585.89
1732.99
2432.63
2940.37
3275.31
3446.61
2371.5
3254.99
3871.19
4282.17
4505.59
3219.87
4270.18
4967.01
5458.69
5770.82
4151.02
5265.59
5969.22
6531.2
6987.22
4796.93
5913.79
6599.01
7207.55
7781.98
1275.83
1813.64
2214.33
2480.34
2614.41
1709.13
2400.63
2903.4
3235.6
3405.44
2241.55
3098.82
3704.24
4106.23
4319.37
2845.35
3856.73
4548.72
5018.31
5285.26
3416.33
4537.06
5282.79
5808.59
6136.53
3780.96
4958.74
5731.14
6293.13
6666.28
91.4635
106.567
137.131
186.518
260.279
365.591
101.565
117.557
149.655
200.806
275.198
377.93
84.0127
80.4185
99.5469
97.1305
131.373
131.851
183.565
190.224
261.028
275.971
367.351
385.63
510.669
703.727
963.734
1319.16
1737.31
2039.15
514.152
687.735
901.28
1146.36
1383.33
1534.09
244.406
357.459
447.801
510.567
542.686
284.623
415.946
520.657
593.272
630.385
365.885
533.837
667.168
759.289
806.264
496.904
723.266
901.832
1024.59
1087
691.876
1003.59
1247.37
1413.91
1498.33
968.52
1397.66
1729.27
1954.18
2067.96
271.263
396.414
496.193
565.379
600.737
313.781
458.103
572.872
652.288
692.823
398.963
581.325
725.601
825.028
875.657
534.34
776.348
966.423
1096.7
1162.86
730.392
1056.97
1311.01
1484.04
1571.68
999.317
1438.09
1775.14
2003.16
2118.58
224.578
328.655
411.964
469.93
499.622
215.01
314.746
394.648
450.286
478.799
265.98
388.949
487.173
555.39
590.289
259.569
379.681
475.694
542.42
576.571
350.69
512.052
640.402
729.219
774.55
352.023
514.132
643.158
732.487
778.091
489.333
712.911
889.683
1011.4
1073.33
507.155
739.024
922.424
1048.72
1112.98
694.448
1008.59
1254.96
1423.53
1509
734.308
1066.68
1327.4
1505.75
1596.15
974.549
1409.25
1746.54
1975.67
2091.51
1023.56
1481.14
1836.56
2077.96
2199.88
1345.38
1925.76
2366.63
2663.62
2814.34
1837.01
2595.36
3157.79
3536.04
3731.65
2477.33
3426.89
4108.01
4572.66
4827.41
3304.98
4418.29
5181.08
5730.63
6079.13
4200.8
5361.34
6114.91
6723.51
7212.21
4812.45
5946.23
6650.11
7276.77
7864.72
1352.17
1930.48
2367.47
2661.35
2810.71
1794.55
2533.5
3080.11
3446.84
3635.97
2325.84
3233.09
3886.45
4327.38
4562.89
2915.15
3971.68
4708.78
5216.39
5506.04
3461.07
4613.56
5392.03
5946.39
6292.19
3796.14
4985.38
5769.79
6342.48
6722.53
4782.91
3076.37
683.136
496.022
577.99
488.884
623.608
4324.52
4087.75
2563.98
3276.54
1457.73
2015.56
1185.58
1338.87
1094.44
4037.53
2130.91
1308.13
1144.91
1496.33
1278.63
964.69
906.892
850.192
731.043
1034.96
921.635
4359.43
2565.78
2949.93
1817.24
1466.69
2129.8
989.782
746.843
1105.33
9564.81
9335.59
9192.65
9942.57
15660.9
6692.47
7429.32
7853.78
8546.71
9739.02
1789.15
2539.53
3100.74
3478.19
3672.04
1310.14
1882.16
2319.65
2614.75
2764
1526.98
2193.92
2703.03
3045.04
3217.16
1293.85
1864
2302.19
2597.89
2746.96
1642.39
2349.26
2884.43
3243.49
3425.04
9350.33
10064.5
10279.5
11066.9
16615.6
9034.5
9931.1
10326.9
11049.9
12608.7
6002.22
7347.63
8175.3
8905
9643.34
7689.74
8996.42
9537.87
10135.8
10709.9
3679.26
4962.17
5836.16
6424.51
6754.73
4909.76
6317.02
7211
7849.54
8267.09
3049.2
4216.61
5042.19
5586.72
5871.03
3417.99
4677.59
5549.54
6122.95
6426.27
2832.58
3950.36
4751.28
5277.14
5546.09
8685.23
9348.71
9593.36
10403.4
15883.3
5087.07
6392.68
7233.68
7947.73
8628.56
3327.13
4534.92
5376.19
5948.55
6272.63
2932.03
4035.15
4818.75
5353.01
5650.95
3734.55
4970.26
5814.23
6426.6
6834.11
3235.6
4383.1
5183.66
5748.43
6089.39
2483.38
3442.66
4134.36
4607.24
4866.83
2355.2
3302.89
3995.48
4460.69
4704.33
2225.54
3154.5
3842.75
4299.07
4529.68
1920.63
2737.06
3349.54
3758.12
3964.47
2680.52
3743.72
4511.46
5021.5
5286.82
2396.68
3366.87
4076.61
4550.67
4796.54
8995.75
9152.99
9160.3
9939.37
15534.4
5787.02
6751.41
7342.95
8044.7
9007
6826.92
7946.58
8466.49
9284.63
11123.3
4384.98
5585.77
6371.98
7025.66
7582.18
3649.55
4836.4
5645.03
6247.08
6656.38
5057.69
6317.67
7132.16
7860.92
8591.86
2551.15
3542.01
4256.89
4743.24
5007.8
1955.93
2775.45
3386.66
3795.88
4004.92
2832.11
3900.59
4661.98
5183.7
5475.57
7220.63
6881.18
6272.74
5359.17
3995.55
1588.87
19834.6
20152.6
22652.4
23445.9
19297.4
20347.3
21544.6
20737.1
16432.7
20831
17059.4
21345
19541.2
17556.8
27827.2
18969.9
19136.7
21269.8
21799.4
18147
19185
20498.1
19926.6
16313
25159.4
16842.8
24899
19694.8
21484.9
29839.2
17955.8
17985.7
19477.3
19739.7
17230.6
18710.4
19068.9
19034.5
18641.6
22050.3
19403.1
21987
21337.5
23665.5
26650.2
16957.5
17008.6
17772
17861.6
16605.6
18325.5
17547.6
17807.9
17294.4
19085.3
18019.8
18518.5
19293.5
21004.1
22733.5
15934.6
16021.5
16557.6
16556.2
16129
17988.5
16487.9
16935.7
16215.8
15512.3
16964.2
14807.2
17523.1
17363.2
18473.2
15446
15580.7
15729.1
15691.6
15605.6
17101.4
15786.6
16151.5
15348.7
13142.6
15881.2
12804.3
16132.7
14992.5
16512.3
22171.9
21244.6
23447.8
24721.6
20365.8
20230.8
21713.8
20606.8
19342.2
14178.3
19253.8
14235.8
17040
15361.5
18417.6
20769.8
20093.2
21523.4
22369.4
19535.2
19579.4
20356.4
19424.9
17716.8
13546.4
17663.1
13630
15417.4
13678.7
16818.9
18881.7
18471.8
19173
19596.8
18129.8
18187.4
18569.3
17984.6
16540.5
13012.3
16296.2
12754.9
14538
12302.5
16188.9
16978.7
16735.6
17250.4
17453.3
16496.4
16488.4
17013.8
16539.8
15200.1
12976.4
15061.1
12685.6
13586.7
12073.6
15992
15851.9
15684
16087.6
16195.2
15335.4
15325.1
16005.1
15682.7
14611.3
13571.9
14514.8
13422.8
13347.9
12302.6
16091.3
15037.4
14885.3
15367.5
15441.4
14618.8
14811.6
15268.8
15107.5
14275.8
13935.5
14242.3
13862.4
13221.6
12623.1
16475.3
12160.3
6902.48
19961.2
13140.6
21856.2
16186
34156.2
42548.8
44999.5
55263.9
29189
25384.2
18500.5
14737.4
9030.85
6016.57
20540.4
20802.1
17783.3
20782.1
27750.9
24535.1
32237.2
25848.9
8480.93
6042.16
4723.91
3536.54
10265.2
8343.42
6294.76
5144.14
19109
19656.1
19345.7
16031.2
14832.3
11784.6
11792.4
13450.8
18971.3
18944.6
40121.3
41551.8
28191.7
29127.8
16383.9
13817.4
17676.8
12571
8222.81
8494.73
6759.65
9870.63
3515.93
4357.12
9409.17
13363.1
5654.54
6716.31
10319.5
17997.2
7202.36
12045.1
2725.49
7121.01
2270.6
5296.18
18232.4
22609.4
19010.9
22633.7
22223.6
22366.3
22829.7
22203.3
16312.4
22214.8
16592.6
21862.2
18815.6
22549.3
18860.7
22538
23137.6
21995.6
23122.6
21827.2
15132.9
22351.7
14645
22459.1
18847.7
22503.2
23792.5
33746.1
19986.4
26197.9
23602.8
36920.5
17860.6
19712.2
23867.9
32315.7
17677.6
18407.1
24125
32023.2
5926.86
7906.15
15259.4
27262.5
7381.86
8492.33
19718.5
30932.5
9046.17
9172.36
24702.7
33974.9
25247.1
26603.5
21836.6
21544.2
32255.8
26645.7
25545.7
22214.1
19585.1
37204.9
24350
24376.9
22122.5
22614.2
42020.2
2225.17
2710.33
4848.33
11590.6
3197.72
3673.44
6724.74
12890
4684.05
3983.24
8988.44
14459.9
26069
25218.6
23814.8
22896.8
20929.4
18658.3
16068.6
13978.1
11668.9
16660.8
23890.8
22637.2
24422.9
23620
21610.1
19938.1
18270.4
16213.9
12361.5
16619.9
24407.2
27352.7
24406.2
28133.5
23295.5
23926.2
22820.9
24229.6
22546.4
22877.6
22341.3
22169.4
24246.2
28294.7
24169.9
28308.3
22199.6
24597.7
22050
24579.9
22636.1
22826.2
22653.4
22831.5
19233.8
18263.6
12488.8
14003.7
19129.1
17820.6
12326.4
14171.6
19480.9
18184.7
12748.1
14008.2
19561.4
17996.6
13141.4
13997.1
1763.26
1132.86
755.287
997.709
640.79
589.147
2515.6
1401.12
1018.31
1950.36
1505.33
1251.2
2816.2
2177.23
2114.39
3385.56
2656.71
2329.15
23346.9
20305.7
18294
21752.2
19473.5
17799.4
15772.7
14122.5
13203.1
10983.6
9093.27
8268.19
5190.97
3626.13
2982.24
21289.9
18942.7
17135.5
22204.9
19430
17429.1
16715.7
13710.8
12044.3
11079
8409.49
7307.82
5498.19
3588.08
2787.03
27881.9
27083.2
30539.9
27209.8
31482
27223.3
38246
28843.3
21226.4
21452.3
20987.3
19453.9
24014.6
22398.3
23675.8
20074
23471.8
23156.5
21580.3
22919.9
28394.9
25693.6
28785.9
29305.9
31467
32635
23872.9
24845.7
21364
20777.6
25832.7
26566.1
16537.2
8961.92
15533.7
9913.49
16784
9033.77
15507.6
9846
16578
9074.93
15495.6
10259.3
15120.8
10733.9
15330.9
10641.8
21459.9
18151.9
21485.2
18218
23836.8
21371.1
24242.3
21265
20927.2
15078
21680
14804.3
22065.5
18186.7
22395.6
17999.2
24984.1
21157.3
25058.9
20914.6
20818.5
15165.2
20801.6
15080.7
13630.9
9110
11870.2
7748.05
12622.8
8157.06
11357.6
7243.18
14016.1
9678.86
12089.5
7985.6
14056.7
10015.2
12065.1
8042.66
2589.56
1350.75
4811.58
2685.1
2768.6
1659.23
5132.81
3194.57
3386.44
2473.84
5664.41
4109.02
12973.7
20290.2
9342.06
8963.11
6510.89
19741.8
13598.6
7924.35
7972.18
5376.67
20708.6
16148.7
12747.3
9898.4
6359.45
721.117
516.571
1619.77
1225.43
1014.31
678.641
2209.67
1755.98
1722.58
1270.78
3105.63
2514.08
19822.6
18762.3
13250.1
12354
8516.09
8291.17
7156.27
6304.9
4589.41
3719.73
18726.8
16665.1
14332.2
12230.5
11040.1
9460.74
8374.01
7248.53
5580.68
5270.13
14830.1
11637.3
15000.5
11456.2
18065
14701
18127.4
14632.8
12396.2
9704.92
11972.2
9660.75
15056.2
11336.8
14978.1
11332.8
18113.4
14987
17963.6
14967.9
12654.2
9598.87
12637.6
9726.66
9599.03
7802.11
6542.3
6553.94
9213.91
7578.95
6244.08
6178.25
10021.1
7976.92
6714.14
6926.52
10250.8
7976.13
6969.44
7024.66
1401.56
1212.11
993.201
6033.83
3189.89
2580.64
1395.55
1351.81
1187.35
6653.51
3845.04
3227.43
1949.79
2139.66
2163.82
7474.74
4872.6
4287.5
17058.6
15368.1
14253.4
11390.1
10618.2
10170
8111.04
7699.54
7532.95
6753.73
6304.71
6033.15
8642.48
6081.97
5413.33
14664
12947
11853.4
10622.6
9441.22
8790.51
8586.84
7615.46
7097.93
8002.15
6834.44
6187.75
10598.4
6887.56
6065.27
4935.09
2992.91
1943.94
1378.25
5527.41
3236.51
2045.6
1414.79
4963.02
2994.19
1949.92
1387.42
5647.46
3306.21
2094.54
1442.81
4960.58
2972.41
1973.62
1402.9
5765.93
3352.54
2162.24
1473.78
6194.13
3540.32
2184.04
1493.41
6368.76
3669.99
2237.69
1534.03
5280.3
3162.43
2061.46
1432.89
4400.7
2813.08
1907.99
1371.26
4665.86
2882.19
1938.45
1355
4075.83
2661.03
1836.8
1323.32
5693.53
3374.01
2143.29
1480.58
4596.65
2924.01
1952.11
1407.3
5924.94
3517.72
2204.77
1522.48
4684.55
3003.64
1992.81
1436.06
3774.92
2592
1786.61
1313.04
2560.97
2119.43
1595.18
1234.14
3793.11
2584.37
1787.38
1312.53
2671.47
2150.04
1605.63
1241.75
3892.08
2590.92
1807.93
1327.66
2988.65
2243.94
1643.85
1271.01
3867.97
2542.75
1788.08
1357.93
3266.73
2313.19
1696.72
1274.78
3644.05
2484.18
1757.07
1304.89
1396.91
1743.98
1292.35
393.845
160.13
1539.28
1174.34
404.73
1614.03
1817.13
1322.31
414.645
412.922
1620.23
1200.39
413.575
2025.27
1946.76
1365.17
413.727
851.433
1755.93
1236.51
418.312
2539.06
2104.58
1435.33
448.544
1336.53
1910.46
1291.22
436.377
2900.2
2253.85
1523.35
517.539
1513.38
2034.08
1342.92
452.404
3113.79
2425.19
1561.51
496.648
1337.06
2180.52
1441.23
481.273
3029.17
2349.82
1533.6
495.953
1276.19
2113.22
1391.11
464.329
3150.81
2478.04
1576.79
466.042
1311.62
2236.55
1471.58
484.107
3216
2531.22
1614.51
474.605
1410.68
2292.89
1508.22
495.086
1070.02
734.151
460.873
249.761
78.7251
1060.34
732.855
461.249
250.112
78.8417
1084.74
741.289
464.045
251.126
79.1082
1080.08
741.962
465.46
251.967
79.367
1113.17
750.839
467.942
252.77
79.5683
1104.54
752.026
470.12
254.036
79.9559
1118.66
763.192
476.174
256.888
80.7837
1144.41
778.887
484.633
260.897
81.9529
1141.47
762.179
473.46
255.276
80.2871
1215.06
775.579
477.139
256.564
80.6263
1146.86
759.162
470.832
253.908
79.8799
1213.28
770.665
474.229
255.171
80.2195
1151.16
771.948
478.865
257.84
81.0337
1237.44
785.034
482.03
258.865
81.2961
1178.2
787.238
486.813
261.571
82.1188
1266.05
798.682
488.895
262.074
82.2295
1097.12
737.718
460.827
249.47
78.6198
1149.85
741.863
460.933
249.304
78.5566
1111.27
743.403
463.22
250.476
78.8998
1161.44
746.21
462.777
250.082
78.7731
1138.73
752.392
466.796
251.978
79.3187
1185.12
753.7
465.893
251.411
79.1453
1181.2
762.477
470.376
253.439
79.7243
1213.45
761.711
469.403
252.943
79.5772
1220.87
767.639
472.378
254.291
79.9626
11556.4
17948.4
12061.4
18207.8
12682.3
18402.8
12998.7
18400.4
12258.5
17427.4
11075.8
12527.9
11182.4
13307.5
11087.1
12332.1
11259.1
12444.2
10356.2
1769.82
379.288
85.4484
15.1887
11538.8
3291.44
801.781
182.659
32.4486
10399.3
1757.83
374.826
84.1821
14.9276
11569.6
3264.35
793.063
179.931
31.7049
10372.8
1730.72
366.416
82.0212
14.523
11512.3
3219.2
778.868
176.224
31.0241
10125.8
1655.07
347.707
77.7212
13.7627
11222.2
3113.36
751.388
169.883