/*--------------------------------*- C++ -*----------------------------------*\
| =========                 |                                                 |
| \\      /  F ield         | OpenFOAM: The Open Source CFD Toolbox           |
|  \\    /   O peration     | Version:  2306                                  |
|   \\  /    A nd           | Website:  www.openfoam.com                      |
|    \\/     M anipulation  |                                                 |
\*---------------------------------------------------------------------------*/
FoamFile
{
    version     2.0;
    format      ascii;
    arch        "LSB;label=32;scalar=64";
    class       volScalarField;
    location    "1.4";
    object      gradTz;
}
// * * * * * * * * * * * * * * * * * * * * * * * * * * * * * * * * * * * * * //

dimensions      [0 -1 0 1 0 0 0];

internalField   nonuniform List<scalar> 
5712
(
7810.8
25624.2
6218.49
26262.4
4646.34
27085.8
7284.39
41509.3
8941.5
57006.2
8904.69
41665.4
8618.92
34663.9
8961.27
31019.6
5421.58
3402.92
14510.7
8669.1
5282.15
2862.1
15763.6
7833.93
5985.85
4407.72
19159.3
13652.7
4530.56
3330.65
18835.5
13846.3
10645.3
4529.56
9242.3
4152.34
4306.05
10006.6
36257.8
9776.49
13012.6
4320.55
46452.2
12533.8
12075.9
4066.39
26052.3
8052.16
13390.2
4623.76
22791.7
7219.76
6985.74
3464.17
9801.36
3857.53
7572.12
4082.47
9535.27
3702.5
9470.6
5424.22
8220.87
3617.94
11930.8
4323.27
4082.76
1436.27
13614.2
9569.71
8317.29
6141.69
14788.5
12206.7
8028.67
6946.01
8041.88
5549.99
11573.3
7924.36
5405.25
3997.51
2651.87
2184.69
5104.24
4405.64
2530.05
2457.36
5286.25
3525.58
2631.89
1704.22
7300.27
4004.21
5582.24
6634.07
10172.9
7259.71
8230.98
11472.4
4754.36
2276.92
3247.93
3760.06
2305.06
972.235
1365.14
1378.54
9508.93
16978.3
6394.45
18884.7
11048.4
16571.8
7818.85
19669.7
12423.4
14918.6
9968.63
19031.4
13770.3
15829.5
10889.6
10628.6
11494.7
15886.7
15297.9
15580.4
16270.4
23189.4
12933.2
10439.9
9384.08
10578
16215.9
19781.3
17783.6
22862.3
22166
18118.6
16889.9
22510.7
21647
15652.8
15372.8
21020.7
20786.2
11706.6
9327.35
11481.1
10215.1
12815
11787.6
14034.4
13751
19161.8
19924.7
10890.5
9656.35
10854.9
10857.8
11505.3
12653.6
13084.1
15134.7
16974.8
20130.1
9126.15
7195.75
6178.49
7761.42
11911.4
14299.1
8175.34
12794.8
5395.08
6969.2
8147.51
6772.99
1557.25
5104.65
721.306
1783.02
4131.05
8511.62
1444.31
2885.34
867.698
4436.49
401.942
1519.46
5384.27
5447.63
6137.33
3926.39
8605.2
6986.25
10118.5
7152.02
1382
2977.57
3056.81
1811.09
1635.73
2100.02
2298.14
1744.1
14303.3
8754.4
2787.85
16125.2
9338.2
3071.63
13736.1
8665.73
2953.95
15833.2
9341.99
3070.58
12629.8
7973.41
2637.63
15393
9359.22
3137.69
6335.08
3602.06
1032.37
8423.41
5601.3
1935.13
10264.3
7078.2
2442.85
12008.1
7844.03
2617.42
15198.8
9575.67
3343.32
7378.92
4327.55
1433.17
8133.98
5900.61
2241.46
9843.36
7269.48
2692.03
12224.5
8616.45
3105.19
15403.9
9737.95
3480.12
290.624
2042.01
2872.79
4159.58
2296.26
2613.03
5736.02
5420.67
601.431
1002.95
641.799
1043.82
472.97
1384.09
852.536
1816.12
3167.27
1553.45
4038.65
2348.29
2118.44
3681.16
3402.95
739.509
6323.21
1392.64
-2185.47
425.699
1642.54
1101.92
1045.35
839.967
9522.6
4169.51
2586.71
1542.69
9674.79
4321.58
3269.66
1955.33
9555.58
4632.59
4696.62
3159.78
3321.97
2299.31
1446.82
1381.26
12859.3
11368.4
5998.21
6195.5
14175.5
13253
6950.81
6976.2
5178.5
5300.75
10794.8
8929.78
3493.41
3670.4
1828.27
2147.45
4207.05
4179.09
2190.54
2385.61
2935.69
3198.65
1518.87
1983.09
4483.95
2974.07
4426.4
2955.54
7073.01
3928.67
6652.09
4113.88
2609.68
2115.95
2759.64
1877.87
1336
1254.71
1708.3
1069.73
11100.6
7317.12
5338.69
5163.76
11072.4
7569.67
5356.85
5143.5
11581.6
8037.58
5433.9
5035.41
14114.7
15626.6
12559.1
8156.41
4348.92
14820.7
13303.9
11989.4
9581.94
5764.84
13857.3
12196
9487.56
7057.74
4120.6
5835.02
4911.96
5235.63
5682.07
6149.23
4940.78
5347.34
5677.06
6639.76
5139.08
5498.8
5718.47
11178.1
7953.84
10056.1
6961.05
7625.18
6042.72
6836.52
5663.65
5169.69
5763.64
9307.59
8113.85
7959.08
6899.29
6541.55
5830.7
5490.3
5289.95
4034.51
5468.96
7103.82
4826.77
4693.25
2869.13
9550.08
7379.28
6586.72
5361.91
3696.07
2223.72
5388.42
3933.42
4662.06
2223.19
1626.4
925.464
5064.36
3696.26
1683.99
1403.87
3921.04
1731.99
1475.48
758.171
2898.28
2579.17
2356.42
3361.56
4057.56
3698.26
2996.31
4269.22
2970.75
1843.74
1731.45
2303.93
832.112
379.49
82.2093
367.091
3323.47
1393.24
412.333
3706.27
979.569
262.569
3445.48
1537.87
473.364
3748.86
1034.95
291.358
3376.91
1600.66
422.002
3767.72
1080.28
258.993
5024.64
2650.75
649.815
4251.86
2110.85
530.777
3891.66
1893.62
525.908
3613.48
1703.63
382.087
3827.26
1087.21
175.113
6204.94
3222.75
914.684
5273.69
2654.57
749.53
4532.28
2252.88
662.713
4031.77
1755.76
446.808
4167.86
1035.21
258.33
1560.53
543.992
123.161
-104.206
651.163
237.528
68.1343
-16.4653
1646.72
591.064
162.633
-55.2385
821.529
322.854
153.305
68.5102
1756.05
649.432
234.477
25.6249
1378.96
599.275
207.412
38.9293
1014.54
524.503
139.4
-32.1961
895.692
540.459
271.11
140.635
1421.66
594.996
163.176
-115.994
1195.25
492.917
203.878
-104.433
1697.56
632.719
206.815
-60.9467
1514.27
565.069
222.909
-167.612
1110.41
530.073
184.191
-42.762
895.956
418.296
206.248
1.51895
780.964
440.453
231.507
125.952
591.331
334.414
203.35
106.543
1960.65
656.025
135.043
-214.531
1894.18
599.849
193.011
-286.518
1956.13
662.589
147.556
-205.405
1836.93
582.775
197.027
-279.246
1914.88
660.249
207.458
-133.148
1720.32
550.16
230.016
-219.976
1676.14
604.647
265.867
16.9778
1886.06
611.937
310.623
-253.325
1478.01
532.983
257.551
-51.6585
1460.7
418.548
166.086
-183.727
572.231
151.308
44.5921
-33.1018
1522.37
447.676
179.255
-174.274
602.021
164.041
54.3595
-23.6721
1570.57
480.286
211.431
-148.888
623.166
178.726
66.1619
-12.8621
1425.31
451.432
236.553
-111.571
612.664
184.511
87.5132
6.35454
1309.38
444.761
244.693
-55.9811
556.259
193.165
114.04
31.1709
889.281
339.9
155.321
-20.1322
514.842
237.039
129.963
62.4118
1041.63
357.459
176.975
-44.7925
528.925
214.32
123.545
47.9266
700.619
314.06
155.248
19.896
445.876
236.865
131.798
76.1146
474.416
268.973
164.685
90.6763
353.07
222.633
138.675
94.8268
-9.01951
3.32064
3.10876
1.90943
1.28955
-1.12652
2.29088
1.73791
1.03327
0.692377
5.51265
10.0794
6.44307
3.67886
2.43955
14.6595
9.99763
5.62617
3.11331
2.04737
20.3636
17.9205
10.4669
5.84858
3.85706
56.1597
33.4532
18.0392
9.86953
6.47486
65.047
38.6737
20.9375
11.5032
7.56692
94.8451
51.0293
26.8325
14.6371
9.6216
33.5475
25.9573
14.75
8.20138
5.41245
36.4617
24.5102
13.5557
7.49647
4.94141
23.5235
20.7526
11.9122
6.62096
4.36182
45.0623
25.9871
13.7017
7.45386
4.88011
43.1895
30.6033
17.2238
9.57582
6.32471
49.0752
29.1682
15.7875
8.68976
5.7265
75.13
40.9736
21.6162
11.8076
7.76697
62.8906
33.8105
17.8083
9.73173
6.40511
-17.4313
1.51039
2.2756
1.45782
0.992876
-9.67018
0.392222
0.857093
0.555724
0.378744
-7.89239
5.7809
4.33321
2.53788
1.69147
-6.21024
1.94041
1.59533
0.940761
0.626841
3.76118
10.5244
6.54221
3.69174
2.43725
7.09884
7.10893
3.99464
2.18674
1.43001
29.9694
20.7467
11.2523
6.12465
3.99808
20.619
13.3794
7.06864
3.8167
2.48398
56.456
28.0094
14.1763
7.57913
4.92811
2066.15
4700.58
2127.79
4677.12
2372.02
4666.6
2810.92
4843.9
2897.26
4950.25
1221.8
1781.66
1942.54
2973.79
673.539
896.683
243.169
303.431
10573.9
2537
584.532
131.343
32.8687
2896.5
782.408
208.861
47.7524
10.4671
10406.1
2477.97
570.652
127.206
32.078
2951.83
871.73
215.734
50.4211
12.6088
9857.75
2333.39
535.792
119.362
30.1535
2865.16
841.614
207.66
48.2863
12.1195
8930.84
2097.67
480.679
107.082
27.0803
2771.89
796.972
194.169
44.7635
11.1802
7383.82
1727.23
396.358
88.4889
22.4242
2596.49
726.954
175.313
40.1876
10.0141
3416.23
836.45
195.517
44.0345
11.1953
1262.6
359.092
86.0317
19.4031
4.82778
5141.83
1240.96
287.658
64.4279
16.3414
1858.11
521.523
125.865
28.8413
7.23641
1992.04
491.595
115.486
26.1489
6.66482
709.786
209.663
50.0359
11.2899
2.83603
686.882
168.658
39.7474
9.03725
2.30645
281.988
76.5785
17.1236
4.76065
0.955571
-186.505
306.733
4746.39
-1034.21
778.682
834.426
2433.03
3121.48
1975.66
3708.95
3154.92
4866.35
3837.3
4759.12
1982.73
2666.46
2096.25
2487.75
1088.46
1131.79
2302.99
1622.02
642.535
-242.155
-519.135
-615.836
-52.9179
13727.9
3845.69
4745.06
3287.56
165.894
291.481
3253.88
-953.427
-400.679
-668.507
-375.248
7500.39
4095.05
1717.04
1296.77
3777.97
2229.95
783.196
1496.3
-1098.43
-518.815
913.822
777.217
8905.52
4300.86
5575.46
2950.26
4082.94
4828.03
1701.46
-549.04
1172.07
1577.03
1238.19
1021.83
870.941
619.76
1256.45
985.895
748.366
510.374
212.656
560.273
459.378
342.024
212.952
72.9591
-216.149
-180.129
-134.139
-82.2285
-27.6503
-463.011
-385.757
-287.553
-176.582
-59.4241
-550.061
-459.127
-342.947
-210.985
-71.0794
-44.7233
-33.1219
-19.8497
-8.76345
-2.06373
9630.22
7924.64
6355.61
5364.29
4538.91
3190.5
2595.56
2215.42
1697.11
832.668
3571.59
2748.37
2164.06
1566.01
752.23
2450.73
1852.09
1478.83
1054.49
419.367
212.297
169.724
205.126
173.217
76.4641
317.68
321.181
288.452
209.315
80.3464
2694.12
2166.46
1628.56
1077.04
421.429
-534.796
-225.49
-62.4317
11.7677
15.5978
-307.426
-205.391
-111.25
-43.5191
-7.97754
-441.924
-248.114
-106.549
-26.96
-0.494863
-343.265
-286.878
-210.037
-125.073
-40.7206
5374.35
4613.55
3765.3
3218.27
2731.22
3109.78
2387.68
1871.55
1327.05
600.869
1519.54
1292.56
1020.7
684.959
256.816
1118.6
924.13
708.31
462.325
168.641
3112.84
2460.28
1818.47
1166.33
433.625
1941.76
1606.79
1222.52
785.577
277.966
674.854
553.179
417.519
266.657
94.4364
1304.29
1072.29
803.278
504.569
174.594
-948.641
-761.362
-546.762
-325.669
-107.501
-456.483
-371.873
-268.581
-159.24
-52.1106
797.938
662.751
506.84
327.418
116.801
682.298
569.156
435.854
280.604
99.1655
5640.55
3970.55
3228.4
2749.36
2200.37
3232.24
2453.38
1828.79
1246.87
535.044
4024.91
3186.33
2455.85
1792.27
822.073
2324.37
1846.71
1389.04
933.672
386.733
3430.87
2753.8
2051.05
1310.18
473.329
3626.4
2644.7
2031.51
1422.19
567.683
1470.37
1200.78
897.177
564.842
196.675
-487.645
-402.437
-295.335
-177.999
-58.9853
1014.04
837.967
641.045
416.297
149.516
-30553
-49681.7
-25380.3
-40174.6
-27000.4
-55985.4
-32271.1
-71141.5
-19433.7
-13380.6
-21685
-13626.8
-17839.2
-11530.3
-21917.7
-11672.3
-25467.2
-19344.6
-36838.1
-26719.2
-21904.1
-17604.2
-30734.6
-23239.8
-17451
-17971.3
-14384.7
-13954.4
-17069.1
-15924.6
-41810.8
-11547.9
-16079.7
-6056.47
-50873.9
-14165
-14365.5
-5440.58
-31278.5
-9850.53
-16467.4
-6341.29
-27934.1
-8660.16
-13334.2
-5389.53
-16840.5
-6123.04
-12682.2
-5603.77
-14622.6
-5317.1
-13123.6
-6418.85
-11685.6
-4666.28
-14840.8
-5263.24
-5196.49
-1831.27
-11195.9
-7617.02
-9659.52
-6008.92
-9786.44
-7960.79
-8434.53
-6073.91
-9875.78
-5768.5
-11614.6
-7450.09
-6634.8
-4045.61
-3583.81
-2257.49
-5730.23
-4000.7
-3024.82
-2192.91
-6755.87
-3773.52
-3720.05
-1926.18
-8749.89
-4464.3
-5786.27
-6626.98
-11158.7
-7530.24
-8186.59
-11233.7
-5911.55
-2661.85
-3465.6
-3810.75
-3168.47
-1279.06
-1560
-1440.56
-13262
-16286.1
-7521.4
-18511.2
-13789.1
-15538.3
-8644.05
-18914.5
-13926.6
-14116.8
-10297.7
-17966.4
-9429.5
-7568.93
-10449.8
-11631.7
-11621
-10276.1
-12030.2
-14109.1
-15322.3
-21740.2
-7181.44
-7557.29
-8297.5
-10019
-15443
-15554.5
-10881.3
-19795
-15288.5
-14422.2
-10705.1
-19504.6
-15236.6
-12760.3
-10032.5
-18209.3
-15103.8
-8395.62
-6688.66
-8892.35
-7168.13
-10017.7
-8201.55
-11080.8
-9497.56
-16572.1
-15199.8
-7840.68
-6837.1
-8120.57
-7257.72
-9072.31
-8707.67
-10941.8
-11058.5
-15192.2
-15852.6
-7288.29
-5822
-5366.57
-6869.81
-8862.55
-11951.7
-6710.38
-11058.8
-5012.76
-6458.81
-7154.27
-5864.86
-1148.75
-4550.63
-414.044
-1400.22
-3322
-7578.39
-852.282
-2204.9
-698.732
-4129.87
-281.537
-1310.43
-5177.23
-5113.06
-5950.46
-3651.86
-8008.65
-6269.54
-9632.27
-6419.88
-1299.21
-2793.46
-2958.69
-1664.66
-1585.03
-1977.85
-2231.94
-1643.96
-6627.85
-2279.66
-8984.49
-3060.73
-6777.96
-2383.43
-9199.7
-3296.8
-6735.37
-2349.54
-9726.25
-3734.72
-3982.59
-1149.13
-5060.94
-1924.02
-5811.64
-2241.44
-7052.22
-2655.72
-10289.1
-4078.46
-4990.89
-1557.38
-4815.19
-2315.06
-5886.37
-2732.94
-7867.96
-3391.24
-10741.1
-4052.04
-6730.47
-6276.94
-5227.63
-5072.94
-11306.8
-8659.58
-9283.77
-7683.22
-4422.22
-3680.96
-1832.38
-1274.77
-4212.6
-3918.62
-1740.89
-1748.53
-3367.44
-4955.81
-3908.57
-5336.93
-3973.55
-2811.36
-3707.39
-853.329
-7520.66
-2172.53
2326.94
30.4137
-1265.82
-634.49
-104.449
268.968
-2378.7
-1532.42
-908.945
-494.324
-2578.16
-1642.31
-1416.94
-618.516
-2931.65
-1995.08
-2018.72
-953.029
-1502.51
-321.923
280.637
754.504
-5476.51
-5826.34
-4321.71
-3992.92
-7507.14
-7495.45
-6287.88
-5278.34
-2800.01
-3013.09
-4022.31
-4525
-2718.79
-2335.29
-1260.07
-1129.12
-4116.03
-3245.05
-2157.45
-1714.1
-1582.34
-1666.88
-455.228
-748.478
-1785
-1133.54
-2420.09
-1584.39
-2627.01
-1892.92
-3636.87
-2528.23
-779.022
-445.019
-1263.51
-659.675
193.827
355.481
-428.363
73.2183
-3326.19
-3994.64
-2588.61
-3651.74
-3323
-4052.86
-2649.78
-3646.06
-3579.57
-3849.5
-2814.68
-3479.17
-3213.85
-5325.96
-2612.9
-2082.67
-1949.64
-7844.74
-5449.53
-4710.52
-4480.95
-4048.3
-6322.42
-5146.65
-4135.16
-3573.05
-2484.58
-4536.11
-4371.87
-5444.79
-8319.08
-4382.14
-4000.05
-5246.81
-7958.5
-4170.74
-3857.93
-4870.86
-7386.67
-7489.67
-5722.97
-6501.09
-4877.09
-5364.92
-4160.64
-5055.31
-4459.86
-4564.77
-6827.33
-6065.18
-5670.1
-4921.47
-4821.41
-4126.71
-4209.26
-3873.45
-4418.54
-3104
-5866.23
-4050.01
-2882.53
-2850.86
-1183.01
-6044.41
-5243.33
-4716.64
-3562.71
-2074.89
-772.36
-3059.91
-2350.12
-3376.7
-1137.52
-603.262
-24.8741
-3907.6
-2617.42
-827.633
-535.769
-2676.34
-757.188
-405.119
80.7065
-1670.91
-1585.48
-1604.78
-2936.84
-2528.2
-2679.34
-2244.62
-4045.23
-1903.28
-1091.5
-935.944
-1829.32
171.095
328.594
741.407
176.919
-3089.1
-904.874
-5523.51
-508.428
-2933.31
-992.545
-5393.2
-531.831
-2353.16
-633.903
-4909.04
-385.581
-3186.63
-759.818
-2769.51
-675.129
-2754.38
-840.933
-2604.91
-499.056
-4620.19
-544.209
-4279.39
-902.835
-3681.12
-628.404
-3426.77
-671.772
-3460.25
-501.878
-4857.5
-582.206
-664.141
-169.013
71.6687
233.677
-232.446
-52.8806
24.0897
69.4954
-666.233
-150.718
74.2163
211.008
-184.715
-9.38537
7.5103
21.0844
-694.613
-130.776
56.2547
164.939
-109.412
106.748
210.102
223.763
338.046
288.197
353.839
334.567
714.168
468.669
336.996
221.2
-357.964
18.6663
219.496
374.573
-284.144
68.5921
152.355
359.758
-740.124
-120.27
103.857
282.874
-570.291
-20.4491
119.032
442.525
17.1857
164.258
241.248
310.411
-16.3353
150.762
161.965
251.553
397.506
309.877
238.67
170.523
275.37
240.155
175.603
153.696
-1015.35
-259.753
81.276
386.964
-1224.14
-286.772
-35.08
472.11
-980.457
-234.612
92.133
395.026
-1181.03
-268.504
-33.9286
468.337
-921.94
-195.582
47.3883
325.823
-1081.5
-233.76
-63.0403
415.753
-630.009
-84.6854
30.7157
206.72
-1128.76
-214.527
-86.5664
511.084
-584.474
-39.3267
52.7461
325.783
-1108.61
-212.76
-62.5282
321.061
-476.8
-80.1647
0.923341
77.6322
-1042.55
-189.373
-50.831
322.961
-456.007
-72.6086
1.5441
74.923
-906.722
-142.684
-51.0251
310.843
-393.183
-52.9203
9.21305
77.9698
-755.089
-101.718
-68.1394
273.594
-326.766
-32.8572
3.97774
71.9921
-569.312
-37.9432
-32.4991
230.841
-178.637
13.3282
8.07597
68.0706
-280.739
55.1652
104.459
229.622
44.7881
119.341
94.6977
107.232
-474.593
-13.7063
37.9585
229.642
-38.1241
72.3924
51.2389
87.6894
-38.8553
132.957
142.329
208.416
134.232
159.716
126.694
116.422
212.14
204.774
151.352
146.553
235.02
194.78
135.8
107.657
49.1238
12.6986
4.37342
2.01018
1.25556
20.394
5.99952
2.23621
1.06554
0.673661
55.5029
17.6516
7.25618
3.64011
2.34206
30.533
12.3366
5.7253
3.00624
1.96151
67.5598
24.4195
10.948
5.68721
3.69969
77.8721
35.5275
17.6122
9.46595
6.21736
87.784
41.578
20.8701
11.2426
7.3828
96.9685
50.8934
26.5341
14.4565
9.51494
81.6385
32.0314
15.0692
7.95408
5.19081
68.9214
28.2167
13.5259
7.17517
4.6894
73.7698
26.5386
12.1558
6.37486
4.15805
59.3134
25.7807
12.8281
6.90291
4.53866
87.5818
36.9338
17.793
9.4527
6.17885
69.371
31.7725
15.795
8.47394
5.5524
80.97
41.5268
21.5142
11.6998
7.6962
67.2823
34.3555
17.7537
9.64317
6.33976
54.6374
11.5194
3.58256
1.57831
0.972612
25.6757
4.72683
1.39944
0.608917
0.374433
57.5647
14.3583
5.30716
2.56586
1.63392
26.6971
5.73593
2.01855
0.964857
0.613393
58.1575
17.0264
7.11428
3.62233
2.34567
28.3301
8.91606
4.01052
2.11025
1.38126
62.6793
23.2933
11.0607
5.90582
3.88444
36.5534
13.7293
6.67096
3.59038
2.36851
50.1841
24.9335
12.9457
7.09021
4.69205
-2050.67
-3928.17
-2127.62
-3948.86
-2348.24
-4000.65
-2607.23
-4130.11
-2541.84
-4162.76
-1063.08
-1582.75
-1698.96
-2584.86
-557.698
-777.254
-149.426
-217.764
-10202.5
-2438.14
-560.593
-125.845
-31.4904
-2756.44
-749.916
-200.254
-45.7498
-10.0255
-10011.7
-2377.7
-546.929
-121.878
-30.7447
-2812.03
-835.45
-206.717
-48.2848
-12.0735
-9438.9
-2234.21
-513.239
-114.413
-28.9306
-2723.07
-804.55
-198.633
-46.1977
-11.6007
-8524.06
-2007.37
-460.855
-102.819
-26.0406
-2614.37
-758.32
-185.247
-42.774
-10.6971
-7067.1
-1658.62
-381.446
-85.2997
-21.6507
-2429.3
-689.228
-167.032
-38.3991
-9.58792
-3332.43
-815.127
-190.436
-42.8894
-10.9086
-1178.83
-338.016
-81.2438
-18.3677
-4.57962
-4970.19
-1200.36
-278.481
-62.43
-15.8534
-1732.5
-492.802
-119.584
-27.4976
-6.91741
-1950.81
-480.722
-112.765
-25.5116
-6.49976
-655.821
-194.772
-46.4159
-10.4728
-2.63259
-662.417
-162.146
-38.0625
-8.6293
-2.19768
-243.118
-65.2007
-14.1866
-4.06477
-0.777167
-254.109
-1522.05
-6210.12
471.562
-7070.24
-3121.88
-6869.35
-3212.12
-12571.1
-6717.57
-14052.4
-7432.83
-104.391
-366.624
-570.688
-672.628
-591.668
-167.513
-171.751
-585.505
-889.571
-996.354
-809.657
-239.235
-85.9379
-88.4668
-287.094
-286.133
-406.939
-404.403
-386.034
-377.041
-331.792
-344.529
-217.811
-238.323
853.284
2077.11
3377.1
2402.27
2174.36
994.237
745.712
2064.58
3375.67
3945.76
3290.97
1450.07
-93.983
-79.2791
-59.9399
-37.2804
-12.6449
-330.46
-279.173
-211.411
-131.666
-44.693
-514.276
-434.35
-328.845
-204.771
-69.502
-605.892
-511.477
-387.047
-240.92
-81.755
-533.111
-450.122
-340.616
-211.982
-71.9222
-153.975
-132.569
-101.758
-63.7433
-21.6496
-154.476
-130.159
-98.2977
-61.0861
-20.7103
-527.196
-444.833
-336.465
-209.368
-71.0363
-800.513
-675.018
-510.284
-317.409
-107.676
-895.63
-754.312
-569.61
-354.056
-120.07
-727.005
-611.561
-461.332
-286.563
-97.1556
-216.365
-183.337
-139.07
-86.624
-29.3873
-77.4437
-65.4026
-49.5066
-30.8199
-10.4588
-79.7717
-67.4199
-51.0739
-31.8159
-10.8006
-258.941
-218.922
-165.91
-103.389
-35.1052
-258.126
-218.285
-165.467
-103.133
-35.0217
-366.971
-310.192
-235.031
-146.439
-49.7181
-364.628
-308.153
-233.44
-145.425
-49.3701
-348.204
-294.393
-223.088
-139
-47.191
-339.732
-286.877
-217.137
-135.174
-45.8721
-299.509
-253.366
-192.013
-119.592
-40.5845
-310.004
-261.31
-197.403
-122.689
-41.5959
-197.879
-168.309
-127.89
-79.6178
-26.9744
-214.52
-180.78
-136.408
-84.6311
-28.6525
752.388
621.685
463.032
286.231
97.118
1821.85
1499.64
1115.84
691.295
235.547
2922.52
2384.14
1770.98
1104.54
381.452
2062.66
1677.31
1248.83
782.843
271.415
1898.3
1548.08
1147.9
709.429
231.13
896.287
746.749
562.404
349.449
111.493
658.546
544.841
406.005
250.881
85.0566
1817.42
1500.12
1117.17
691.199
234.872
2949.87
2421.15
1799.36
1115.55
380.835
3421.52
2792.62
2072.23
1288.18
442.117
2851.94
2325.73
1725.85
1073.37
367.257
1269.44
1045.82
783.258
490.082
167.723
177.632
442.702
651.413
758.868
682.916
273.469
277.973
694.164
999.239
1099.15
893.671
300.363
141.726
134.866
344.378
335.13
464.96
455.387
440.722
422.278
391.771
356.17
333.076
280.114
-723.702
-1882.8
-3044.78
-1967.11
-1667.96
-454.128
-692.341
-1982.61
-3197.09
-3627.7
-2837.34
-911.591
160.442
135.891
103.186
64.4067
21.8893
399.529
338.048
256.418
159.914
54.3228
587.641
496.967
376.778
234.889
79.776
684.384
578.593
438.522
273.315
92.8151
616.327
521.449
395.458
246.565
83.7425
250.596
215.375
165.411
103.869
35.361
250.913
212.361
161.137
100.526
34.1555
625.917
529.06
400.915
249.851
84.8436
900.288
760.286
575.646
358.525
121.711
989.326
834.565
631.274
392.921
133.351
803.727
677.43
512.066
318.603
108.116
272.132
231.158
175.854
109.825
37.3184
128.048
108.49
82.4059
51.4483
17.4873
121.854
103.244
78.4227
48.9614
16.6419
310.931
263.22
199.76
124.626
42.3437
302.597
256.179
194.425
121.302
41.2147
419.685
355.164
269.441
168.052
57.0894
410.969
347.712
263.728
164.459
55.8634
397.956
336.909
255.677
159.498
54.1875
380.939
322.148
244.217
152.231
51.6985
354.304
300.43
228.278
142.5
48.4216
321.227
271.554
205.769
128.209
43.5284
303.081
258.567
197.357
123.456
41.9644
253.114
214.356
162.613
101.35
34.4034
-634.59
-521.124
-386.07
-237.917
-80.6559
-1645.54
-1349.44
-1001.19
-619.554
-211.186
-2618.71
-2122.79
-1569.62
-977.751
-338.357
-1652.33
-1312.67
-958.246
-593.843
-205.224
-1414.14
-1113.41
-797.299
-477.712
-148.057
-377.636
-278.875
-183.049
-97.4119
-21.0617
-610.272
-503.879
-374.859
-231.439
-78.4552
-1743.58
-1437.75
-1070.01
-661.931
-224.982
-2787.09
-2281.69
-1692.27
-1048.22
-357.905
-3127.42
-2536.46
-1872.05
-1160.22
-397.99
-2428.16
-1952.76
-1431.09
-882.77
-300.817
-764.111
-598.903
-428.244
-259.405
-87.0618
-1598.39
-1012.29
-371.391
470.654
760.157
960.352
385.512
-11397.5
-2029.22
-3421.99
-1610.46
118.368
-3927.84
676.706
2234.46
1002.97
-6230.43
-2939.33
-710.486
-711.85
-3398.49
-1439.18
-389.206
-1096.23
1823.91
1058.45
-602.442
-310.2
-8024.95
-3694.18
-4533.51
-2226.2
-3530.85
-3643.47
-1212.32
1057.78
-566.96
-818.928
-528.06
-413.736
-438.725
-443.918
-649.006
-423.82
-280.505
-189.686
-92.1531
-312.486
-246.512
-178.076
-109.514
-37.6237
425.966
361.392
274.601
171.353
58.2216
684.08
576.506
435.196
270.183
91.5138
864.169
728.329
549.985
341.618
115.756
351.906
300.145
227.886
141.242
47.5755
-7868.33
-6622.56
-5532.57
-5123.79
-4939.26
-1304.55
-828.059
-810.396
-822.341
-541.953
-2378.69
-1697.83
-1352.41
-1071.96
-607.826
-1027.82
-651.028
-546.038
-447.914
-190.206
120.828
104.473
69.5273
29.6639
3.3819
-3217.06
-2563.71
-1906.2
-1247.86
-484.447
614.872
515.684
380.963
228.228
73.8551
1926.1
1557.02
1138.24
694.461
233.92
897.272
748.619
558.221
342.479
114.826
-4192.51
-3648.7
-3073.69
-2875.86
-2783.16
-2015.91
-1414.08
-1108.09
-849.535
-449.452
-559.713
-437.528
-343.862
-251.542
-109.02
-572.6
-445.492
-333.941
-224.477
-87.755
-2791.39
-2204.53
-1637.88
-1064.2
-404.214
-1197.27
-948.663
-703.484
-452.738
-163.191
-310.049
-235.108
-169.142
-108.404
-40.1671
-936.559
-754.686
-557.827
-349.627
-121.768
1620.23
1346.19
1003.42
617.401
208.008
952.992
801.795
602.547
371.618
125.056
-499.045
-394.207
-292.618
-189.292
-69.3317
-247.778
-189.124
-138.704
-91.2647
-34.2647
-4815.56
-3231.72
-2639.61
-2387.96
-2130.23
-2654.55
-1933.52
-1409.64
-971.898
-438.5
-2987.39
-2261.18
-1707.05
-1305.16
-636.736
-1638.33
-1232.38
-897.753
-614.966
-277.734
-2921.13
-2310.43
-1707.04
-1093.3
-399.996
-2527.48
-1662.63
-1264.03
-940.377
-406.667
-1021.96
-814.324
-599.001
-376.878
-132.68
954.031
804.617
606.451
375.147
126.551
-449.465
-342.769
-253.001
-168.836
-64.7284
-0.359801
26.3627
59.7295
66.7404
12.7389
-108.987
-21767.7
-19244.8
-18218.5
-20744.3
-16002.6
-12705
-14317
-10896.9
-19036.8
-16808.6
-17556.9
-16612.3
-15441
-13197.9
-16266.4
-18005.1
-16123.7
-14711.7
-16567.1
-13589
-11520.5
-12051.1
-9678.09
-17161.2
-15380
-15833.3
-14534.6
-13748.7
-12825.7
-13330.2
-14226.1
-13059.5
-11691.9
-12779
-11360.2
-9782.75
-10096.4
-8669.42
-14439.8
-13272.7
-13456.1
-12423.8
-11736.8
-10850.3
-11283.8
-10012.7
-9432.43
-8286.61
-8784.52
-8480.42
-7621.34
-7526.45
-6869.85
-10507.1
-10661.2
-9923.55
-10060.9
-8876.61
-8042.83
-8958.5
-6435.31
-6156.95
-5345.64
-5577.76
-5699.94
-5170.79
-4978.87
-4594.8
-6985.35
-7015.98
-6676.79
-6581.28
-6094.36
-5518.73
-5995.84
-2322.22
-2241.17
-1936
-2004.88
-2109.05
-1970.16
-1826.64
-1702.06
-2641.42
-2655.11
-2479.14
-2386.21
-2290.47
-2103.67
-2260.79
-8113.48
-7985.17
-12242
-13199.5
-7609.42
-6750.78
-10736.1
-8729.32
-6175.52
-4435.87
-6139.9
-4434.04
-6151.84
-5914.1
-4545.24
-8055.4
-7642.05
-10909.3
-11892.1
-7092.93
-6411.5
-9492.63
-8159.8
-6116.16
-3804.24
-6017.49
-4055.43
-5494.6
-5305.82
-4484.94
-7306.36
-6959.67
-9239.26
-9908.03
-6533.67
-6064.9
-8264.95
-7299.16
-4995.18
-4003.88
-4986.3
-4277.16
-4648.44
-4675.83
-4503.6
-5833.84
-5610.93
-6904.41
-7255.52
-5323.53
-4967.11
-6385.64
-5815.04
-4675.9
-3501.21
-4603.87
-3779.8
-4303.26
-4295.22
-3932.87
-3987.19
-3859.08
-4550.47
-4726.59
-3591.13
-3317.27
-4283.64
-3926.54
-3229.66
-2638.76
-3165.22
-2817.12
-2964.64
-2930.24
-2754.6
-1476.39
-1431.04
-1659.92
-1715.64
-1326.81
-1218.11
-1572.87
-1447.6
-1053.63
-959.123
-1123.43
-1062.25
-1091.82
-1068.44
-999.567
7775.71
25097.6
6184.66
26260.6
4628.89
27088
7279.84
41518.1
8936.19
57018.5
8886.98
41661.7
8582.41
34645.5
8936.55
30351.7
5413.9
3401.12
14511.6
8669.26
5280.49
2861.89
15767
7835.16
5948.46
4377.93
18776.9
13398.2
4508.33
3321.32
18851.6
13865.7
10652.1
4522.45
9242.88
4149.83
4301.04
10015.3
36267.8
9777.85
13014.8
4320.56
46463.1
12536.1
12078.2
4067.04
26066
8054.66
13394.1
4624.38
22809.9
7223.04
6921.23
3432.43
9631.93
3793.52
7572.93
4083.18
9551.09
3708.5
9469.66
5424.48
8226.06
3620.43
11940.7
4327.04
4085.16
1437.21
13613.1
9568.99
8317.12
6141.49
14786.7
12205.4
8028.81
6945.83
8042.06
5549.98
11572.5
7924.09
5405.66
3997.52
2651.46
2184.48
5104.9
4405.77
2530.07
2457.33
5287.13
3525.68
2631.63
1704.01
7301.24
4004.84
5582.45
6634.42
10172.8
7260.08
8231.11
11472.9
4755.86
2277.57
3248.14
3760.28
2305.23
972.35
1365.03
1378.55
9457.35
16976.3
6357.31
18878.9
11050.7
16567.2
7822.82
19666.3
12423.6
14917.5
9969.6
19030.7
13769.3
15827.3
10889.2
10629.1
11495.6
15884.7
15296.6
15579.6
16270.1
23189.5
12931.4
10439
9383.68
10578.1
16216.4
19812.6
17831.9
22874
22146.9
18110.4
16883.9
22501.3
21641.3
15649.8
15368.7
21019.3
20784.2
11705.2
9326.25
11480
10213.9
12813.8
11786.1
14032.7
13748.9
19161
19923.6
10889.3
9655.27
10854
10856.7
11504.6
12652.5
13083.6
15133.7
16974.8
20129.6
9125.63
7195.49
6178.27
7761.37
11910.3
14298.3
8174.9
12794.4
5395.04
6969.31
8147.27
6772.9
1557.11
5104.63
721.206
1782.98
4130.9
8511.42
1444.3
2885.3
867.607
4436.56
401.822
1519.43
5384.39
5447.77
6137.58
3926.49
8605.23
6986.3
10118.8
7152.12
1382
2977.64
3056.92
1811.13
1635.72
2100.04
2298.2
1744.12
14337.6
8772.72
2799.1
16135.7
9351.03
3075.97
13731.8
8664.67
2953.92
15829.5
9340.13
3070.41
12626.9
7972.02
2637.31
15390.9
9357.75
3137.3
6334.25
3601.52
1032.19
8422.37
5600.59
1934.9
10262.8
7077.26
2442.54
12006.2
7842.85
2617.06
15197.5
9574.56
3342.93
7378.05
4326.97
1432.96
8132.97
5899.84
2241.16
9842.21
7268.56
2691.68
12223.3
8615.45
3104.8
15403
9736.99
3479.72
296.28
2044.18
2887.8
4164.25
2298.73
2614.17
5744.39
5423.37
584.485
990.942
622.602
1027.69
477.295
1383.5
856.991
1815.11
3179.98
1558.83
4043.46
2349.62
2122.13
3689.39
3407.87
743.575
6326.18
1394.71
-2172.91
434.435
1648.52
1107.32
1055.5
848.065
9536.62
4167.75
2577.1
1536.45
9665.5
4321.18
3267.31
1955.04
9550.31
4631.43
4698.03
3159.37
3326.15
2299.82
1451.95
1383.08
12855.5
11366.3
5999.21
6195.56
14172.8
13251.1
6951.38
6976.18
5179.55
5300.73
10791
8927.92
3495.67
3671
1830.09
2148.05
4208.42
4179.48
2191.4
2385.91
2938.24
3199.24
1521.24
1983.8
4484.33
2974.04
4426.27
2955.42
7070.48
3927.89
6650.75
4113.23
2611.52
2116.5
2760.08
1878.1
1338.2
1255.74
1708.94
1070.18
11130.6
7320.37
5341.86
5163.89
11063.7
7568.81
5355.32
5143.12
11573.5
8033.98
5432
5034.07
14109.5
15622.8
12553.7
8152.68
4347.73
14817.7
13299.8
11984.9
9578.17
5763.32
13854.7
12193.1
9484.95
7055.83
4119.76
5831.49
4910.78
5231.99
5676.64
6147.52
4940.71
5345.09
5676.03
6637.62
5137.8
5497.79
5717.76
11176.1
7952.6
10053.5
6959.58
7622.66
6041.21
6834.3
5662.23
5168.55
5762.68
9305.92
8112.57
7957.04
6897.83
6539.59
5829.29
5488.74
5288.74
4033.65
5468.02
7102.13
4825.72
4692.7
2868.64
9548.57
7378.28
6586.18
5361.4
3695.6
2223.32
5387
3932.5
4662.03
2223.04
1626.66
925.573
5064.29
3696.09
1684.13
1403.92
3921.02
1731.88
1475.79
758.304
2897.93
2578.78
2356.18
3361.15
4056.56
3697.49
2995.78
4268.54
2970.73
1843.62
1731.47
2303.77
832.429
379.634
82.5023
367.21
3324.13
1395.38
413.73
3708.92
984.75
263.846
3444.64
1538.1
473.405
3747.24
1033.94
291.386
3376.12
1600.43
421.989
3767.05
1079.84
258.899
5023.85
2650.3
649.671
4251.04
2110.43
530.651
3890.81
1893.23
525.8
3612.65
1703.27
381.986
3826.61
1086.92
175.03
6204.06
3222.25
914.513
5272.76
2654.1
749.381
4531.38
2252.45
662.582
4030.97
1755.39
446.693
4167.2
1035
258.272
1554.72
540.919
121.569
-104.694
645.026
234.693
67.0081
-16.8442
1646.92
591.1
162.609
-55.3468
821.576
322.855
153.231
68.4043
1755.91
649.389
234.444
25.5557
1378.77
599.198
207.355
38.8475
1014.58
524.498
139.395
-32.2155
896.228
540.663
271.196
140.663
1421.63
594.998
163.182
-116.002
1195.26
492.939
203.892
-104.414
1697.35
632.662
206.795
-60.9761
1514.11
565.025
222.891
-167.614
1110.59
530.153
184.236
-42.7415
896.101
418.378
206.293
1.54778
781.376
440.636
231.596
125.991
591.591
334.554
203.427
106.587
1960.05
655.32
133.958
-215.297
1896.19
600.394
192.739
-287.541
1955.65
662.365
147.486
-205.497
1836.51
582.606
197.028
-279.262
1914.45
660.094
207.406
-133.19
1719.87
550.006
229.977
-219.986
1675.78
604.503
265.791
16.9068
1885.63
611.802
310.566
-253.337
1477.78
532.901
257.497
-51.7203
1465.15
420.165
166.624
-185.019
574.98
152.184
44.7626
-33.5726
1520.34
447.01
179.054
-174.15
601.165
163.769
54.2452
-23.6149
1570.01
480.042
211.355
-148.893
622.884
178.606
66.1084
-12.8647
1424.93
451.284
236.491
-111.581
612.48
184.432
87.4715
6.33362
1309.12
444.663
244.641
-55.9953
556.134
193.11
114.002
31.1433
889.262
339.915
155.33
-20.1212
514.845
237.043
129.958
62.4029
1041.5
357.426
176.957
-44.7947
528.857
214.287
123.517
47.9021
700.709
314.125
155.286
19.9247
445.959
236.917
131.824
76.1285
474.598
269.085
164.75
90.721
353.22
222.729
138.731
94.8632
-9.56798
3.0234
2.95924
1.83086
1.23938
-1.47003
2.10211