/*--------------------------------*- C++ -*----------------------------------*\
| =========                 |                                                 |
| \\      /  F ield         | OpenFOAM: The Open Source CFD Toolbox           |
|  \\    /   O peration     | Version:  2306                                  |
|   \\  /    A nd           | Website:  www.openfoam.com                      |
|    \\/     M anipulation  |                                                 |
\*---------------------------------------------------------------------------*/
FoamFile
{
    version     2.0;
    format      ascii;
    arch        "LSB;label=32;scalar=64";
    class       volScalarField;
    location    "1.4";
    object      gradTx;
}
// * * * * * * * * * * * * * * * * * * * * * * * * * * * * * * * * * * * * * //

dimensions      [0 -1 0 1 0 0 0];

internalField   nonuniform List<scalar> 
5712
(
-7103.83
-9080.73
-16793.8
-24586.4
-25113.7
-43300.5
-19228
-48919.3
-15617.6
-34306.1
-23358.9
-35565.1
-20913.6
-27503.2
-9213.31
-10556
-16003.1
-18362.8
-20557.4
-20394.1
-16117.5
-19858.4
-23695.8
-21226.9
-5828.54
-4435.04
-7238.08
-4915.22
-13544.8
-10939.9
-23034.7
-16802.7
-17809.3
-18569.1
-19906
-19206.3
-7157.77
-5512.85
-41927.6
-56125.5
-27136.1
-33296
-56109.3
-72857.3
-29042
-33258.4
-31222.3
-44088.4
-27323.3
-36159
-16076.3
-25818.3
-3143.57
-1065.19
-3298.4
-1194.26
-9473.72
-3842.92
-12916.8
-4777.95
-9300.87
-3550.79
-9740.17
-3134.86
-16523.1
-5274.62
-21295.3
-7209.01
-25583.1
-12810
-23424.8
-13876
-23797.1
-15412
-20946.4
-15645.9
-18595.7
-11078.2
-18651.6
-9606.28
-24184.3
-15368
-24249
-15484.9
-22141.8
-16503.3
-22411.5
-16544.8
-20063.8
-12713.9
-20776.1
-13006.3
-19087.2
-8353.43
-8911.97
-10971
-19157.6
-9165.66
-7851.27
-11226.2
-20195.6
-8282.58
-10043.3
-10988
-21195.7
-8470.1
-10894.2
-11443.8
-4068.03
-4458.57
-1381.12
-2775.07
-11834.1
-12536.1
-4651.37
-8443.95
-15165.7
-16754.7
-7533.56
-12906.5
-12286.6
-672.586
-14120.5
-17839.2
-9918.49
-316.121
-7176.34
-12908.4
-21017.5
-15297.9
-10563.5
-12997.9
-11605.3
-10231.8
-16154.5
-3838.99
-3110.99
-2215.03
-2184.93
-10744.3
-8879.18
-6628.18
-6269.56
-13316.4
-10955.9
-8650.16
-7700.54
-5687.22
-7356.74
-11928.9
-12484.3
-14641.1
-13275.5
-16568.4
-14242.6
-11686.6
-9850.76
-9294.14
-9495.87
-12349.5
-9312.99
-11400.7
-7893.37
-10020.5
-6572.59
-12004.4
-7722.59
-10474.2
-4366.91
-9109.85
-9585.17
-12827.3
-16396.8
-14158
-20378.9
-7331.62
-7868.37
-9339.98
-2380.91
-8163.73
-15471.1
-7766.14
-16678
-14041.1
-25221.6
-14292
-26869.3
-6278.93
-13456.8
-5747.87
-14430.8
-8744.09
-6346.3
-12333.3
-4675.33
-8815.91
-1129.75
-10654
-218.645
-8467.48
-9747.76
-12950.9
-5882.86
-7056.58
-11573.1
-11513.1
-7775.77
-2403.58
-2073.63
-1781.25
-1739.62
-1563.68
-1356.35
-7039.56
-5541.56
-4627.32
-4627.71
-3553.23
-2971.24
-8392.51
-6968.76
-6315.56
-5529.93
-4291.17
-3957.86
-6268.27
-5287.61
-5064.29
-10709.5
-7700
-6293.91
-10385.3
-7252.95
-5658.92
-10836.8
-8154
-6905.28
-7152.63
-4466.37
-3353.92
-15383.3
-12730.2
-10633.4
-10152.1
-8060.23
-6373.69
-9317.86
-6861.77
-5164.92
-8070.82
-5515.61
-3966.24
-8705.51
-4655.8
-2444.73
-10766.4
-14492.2
-8592.1
-11004
-11809.5
-17228.6
-10616.6
-15303.4
-14.7586
-706.46
521.644
-112.823
-2991.59
-3322.08
-1277.19
-693.749
-758.539
-2451.69
-9602.82
-13914.4
-6670.13
-3787.93
-10309.4
-10238.2
-16090.1
-17730.8
596.366
4271.53
-7773.41
-7299.64
-7379.03
-5676.83
-1018.21
-532.575
-698.451
-303.96
-1966.37
-146.527
316.76
823.845
-9273.65
-2281.91
-6373.06
-1620.64
-9216.24
-2772.05
-11132.1
-3505.58
-9160.37
-12093.4
-8424.35
-11760.4
-14908.5
-15558.9
-14176.7
-14680.2
-5681.72
-9264.32
-6589.43
-9226.05
-8914.01
-11304.8
-9804.73
-11386.9
-14754.2
-14386.7
-15427.7
-14413.3
-5718.21
-8940.31
-6197.71
-9070.78
315.163
-1068.18
-7019.42
-4050.65
839.335
-673.214
-6504.04
-3562.47
-137.547
-1335.78
-7158.73
-4422.21
-559.547
-1583.95
-7161.09
-4552.09
704.759
803.476
-142.803
24.1996
2932.52
2927.58
279.278
475.943
700.177
2022.98
-1444.68
-754.821
10196.1
9835.03
5506.02
4278.61
604.578
10713.1
10711.8
4207.21
6222.73
1015.68
-10629.7
-8172.2
-6990.95
-6300.85
-3510.19
773.739
679.009
76.8378
7.73448
2462.58
2283.13
250.989
69.3215
2498.53
2846.85
-419.503
-612.428
5088.27
2109.94
7903.71
4705.2
3474.2
2494.43
3950.48
3273.31
-121.142
-878.587
-3899.11
-2440.92
-1119.88
882.538
-928.434
719.409
-1403.41
-157.267
-1539.42
-1700.54
-5158.98
-4634.16
-9799.58
-5864.9
-8217.58
-8109.1
-12441.8
-9985.26
-7448.77
-4277.66
-3661.67
-3555.86
-11557.5
-5060.51
-12697.6
-5669.59
-13873.7
-10197.4
-14795.7
-10958.5
-9073.82
-3458.27
-10156.2
-4013.77
-5514.23
-4163.59
-3814.8
-5583.19
-3469.79
-3792.35
-3219.25
-5165.69
-6402.86
-4071.43
-4323.79
-6421.75
-7861.93
-4417.73
-5579.14
-6613.33
639.222
647.818
713.409
47.3329
229.341
250.619
2318.49
2349.44
2302.34
241.859
656.018
643.897
2989
3163.84
3167.94
-361.787
647.985
844.8
1019.25
849.124
547.74
3208.29
3199.37
2927.16
2581.82
2819.27
2728.6
3211.47
3291.65
3144.19
-947.347
298.323
382.065
-3551.65
-2041.61
-1125.47
706.985
1633.06
2118.53
740.351
1869.56
2347.71
366.171
1548.31
1875.77
-1727.91
398.045
641.052
27.8057
29.1093
31.3854
45.7081
234.584
120.009
91.9863
80.0915
18.3772
54.8461
125.993
177.33
379.121
215.666
232.731
223.419
-178.98
12.463
183.097
323.664
135.6
163.899
196.558
205.937
18.6679
93.204
82.4861
75.7394
-193.708
-18.1435
78.4353
125.74
-805.194
-178.796
30.364
166.151
-1231.99
-294.187
-48.203
302.979
-541.049
-79.4976
103.825
274.738
-1004.01
-223.136
-60.6505
257.863
-865.143
-210.767
59.3205
228.05
-1385.87
-349.127
-53.0708
360.648
-962.53
-268.735
58.8912
280.147
-1492.92
-396.665
-69.973
376.111
14.4752
17.6836
28.6243
59.1981
42.6911
26.8415
14.8274
53.3483
82.0985
62.7989
95.5516
164.587
169.517
91.3537
50.9591
145.944
-317.44
-47.7068
92.064
274.083
-117.476
22.9796
58.4845
255.633
-26.5829
94.5531
152.414
281.294
24.6209
80.1311
46.7896
257.072
-848.871
-169.743
-28.2225
354.734
80.3192
38.1254
23.0087
42.69
142.321
55.7412
26.4634
21.0372
170.708
90.8182
46.0752
107.061
366.568
148.598
65.036
53.2806
121.541
101.051
60.7549
174.248
473.68
209.317
97.4742
83.0967
-33.2267
91.4971
75.2283
243.124
394.238
226.199
113.777
103.783
-410.945
10.7881
12.8712
222.562
154.365
193.423
98.1954
102.559
-980.623
-112.605
-11.0148
251.465
-299.564
40.0709
51.191
88.1192
-738.338
-35.8528
0.0683677
233.044
-149.142
109.014
77.3779
99.475
-1197.42
-199.74
-36.7224
273.374
-427.901
-23.3488
28.8275
81.0343
-1355.77
-281.061
-69.6351
268.004
-539.038
-86.5689
1.04313
69.0176
19.8741
7.96779
3.61445
1.84363
1.17792
26.0475
11.9495
5.80018
3.04291
1.9648
47.4451
18.393
8.27996
4.22195
2.69917
58.0355
26.4192
12.8313
6.74991
4.36662
62.8983
22.9586
10.1817
5.17682
3.30879
77.0278
34.6601
16.8294
8.86844
5.74375
39.5805
17.5205
8.47984
4.47722
2.90583
28.7729
10.4761
4.59945
2.34223
1.50333
61.5935
23.0751
10.421
5.35274
3.43683
29.6131
9.58915
4.08332
2.0557
1.31097
65.3309
26.6204
12.5743
6.5632
4.23516
28.174
9.55253
4.19309
2.13115
1.36303
47.7089
15.2537
6.36784
3.17988
2.02489
28.0543
8.50352
3.53131
1.76838
1.12809
42.5844
10.2746
3.45364
1.55359
0.953084
23.5988
4.93255
1.52354
0.660459
0.400069
16.8128
6.16153
2.70978
1.36521
0.867919
12.3334
4.90835
2.25417
1.15371
0.736917
41.2399
15.3194
6.87608
3.50367
2.2388
31.9349
12.8228
5.97501
3.08271
1.97698
57.7021
18.9791
8.18601
4.12117
2.62523
43.2251
17.5328
8.27638
4.29954
2.76727
51.0317
20.7182
9.86248
5.14953
3.32004
29.3046
13.1583
6.4217
3.3751
2.18125
26.0296
11.1711
5.42603
2.84856
1.83961
-238.202
-401.956
-468.057
-960.648
-325.616
-1155.72
340.238
-811.852
1044.89
262.196
-544.259
-1115.25
693.247
592.841
-1122.32
-1872.85
-1514.64
-2203.43
-734.039
-172.802
-39.2939
-8.75544
-2.21725
-212.255
-106.016
-14.5953
-4.00697
-1.82099
-2252.73
-527.451
-120.346
-26.6822
-6.76664
-495.112
-140.513
-35.2378
-7.51967
-2.08202
-3764.33
-882.957
-202.038
-44.9549
-11.3787
-801.371
-242.207
-60.1899
-14.2446
-3.6401
-5005.4
-1177.41
-270.611
-60.4226
-15.3191
-931.119
-305.138
-78.2334
-18.6988
-4.7611
-6183.47
-1469.02
-340.121
-76.3633
-19.4523
-1031.25
-372.733
-98.2477
-23.7556
-6.11678
-7180.18
-1757.83
-412.894
-93.5805
-23.9751
-1702.3
-531.751
-133.208
-31.0089
-7.87651
-6742.08
-1645.93
-384.864
-86.8312
-22.1632
-1273.77
-443.055
-115.069
-27.408
-6.97971
-7363.86
-1804.22
-424.566
-96.3964
-24.743
-1959.39
-588.453
-144.9
-33.2148
-8.40874
-7652.6
-1858.32
-437.831
-99.3653
-25.4936
-2046.31
-615.17
-152.668
-32.5276
-8.7032
-550.567
-7393.71
-6750.08
-2397.41
1717.92
2911.29
8085.38
11840.6
1780.44
8671.12
-1887.28
2529.91
2516.73
5096.33
9740.3
13833.2
14726.7
18527.8
6017.4
7802.52
-20086.7
-14380.3
-4206.34
-3111.78
-2213.06
-3104.9
-3029.54
-12130.9
-11077.4
-9625.76
-10004
-7981.84
-5778.77
-7743.1
-4892.57
-4147.01
-4948.5
-3394.98
-19752.8
-9944.89
-3281.67
-5680.14
-8025.1
-5495.49
-5842.41
-4289.97
-2500.98
-3513.58
-3862.67
-4202.69
-19699.9
-12734.3
-12007
-8567.47
-8337.15
-8918.17
-3531.88
-4571.04
-6087.28
-13933.3
-11664.8
-9381.06
-8187.27
-6595.47
-9219.71
-6206.93
-4640.1
-3378.43
-1644.41
-3685.45
-3026.95
-2244.47
-1385.37
-471.048
-2764.37
-2299.04
-1717.72
-1060.99
-359.109
-1955.7
-1615.55
-1198.14
-735.305
-247.891
-2764.47
-2302.82
-1720.91
-1061.66
-358.724
-2673.28
-2206.65
-1637.51
-1006.82
-340.113
-7613.73
-5636.55
-4220.35
-3674.64
-3711.65
-5915.21
-4208.13
-2869.67
-2268.78
-1525.4
-5985.42
-3591.94
-2426.08
-1614.86
-738.445
-5081.62
-3345.31
-2155.41
-1497.49
-844.981
-3703.43
-2277.13
-1383.27
-915.509
-431.253
-4536.61
-3353.2
-2286.15
-1347.54
-458.317
-5261.94
-3386
-2192.2
-1288.74
-469.725
-3205.72
-1929.53
-1156.68
-623.389
-207.808
-3392.73
-2594.76
-1807.4
-1069.98
-358.306
-3923.99
-2906.11
-1963.39
-1133.75
-374.162
-2809.32
-2168.5
-1517.17
-896.438
-297.944
-12787.3
-9456.3
-7314.42
-6122.67
-5442.5
-7232.71
-5163.53
-3684.02
-2415.22
-1042.38
-2708
-2096.27
-1482.61
-892.911
-304.733
-4764.41
-3759.81
-2713.57
-1664.93
-577.444
-6501.01
-5025.54
-3624.31
-2278.85
-843.191
-4627.83
-3677.64
-2680.78
-1663.37
-582.315
-5006.26
-4037.2
-2966.64
-1838.07
-635.3
-3701.62
-2993.75
-2193.46
-1346.52
-458.576
-2142.7
-1712.52
-1234.02
-743.364
-248.907
-3074.43
-2514.2
-1849.8
-1130.63
-381.037
-3261.27
-2573.93
-1841.58
-1109.7
-374.175
-3610.83
-2904.37
-2114.84
-1290.84
-437.971
-13370.2
-10720.4
-8570.99
-7198.53
-5848.5
-8714.63
-6127.63
-4560.01
-3227.15
-1562.98
-8693.7
-6729.71
-4947.6
-3491.6
-1620.98
-6647.02
-4955.12
-3631.34
-2391.88
-945.345
-6868.8
-5404
-3953.98
-2508.01
-922.737
-6865.21
-5083.59
-3702.82
-2427.73
-947.247
-3000.06
-2394.67
-1742.77
-1072.6
-369.769
-4000.11
-3275.7
-2417.73
-1484.27
-502.15
-5188.58
-4157.35
-3036.33
-1872.54
-645.007
-6032.92
-12334.3
-12749.6
-35138.7
-12478.6
-46730.9
-6845.66
-16659.9
-12486.9
-9600.51
-20899
-17357
-12348.4
-11498
-23301.6
-18302.9
-4455.71
-3324.77
-8676.66
-5996.4
-9971.23
-7526.19
-26920.8
-19984
-16372.1
-12339.8
-16866.9
-9996.32
-1235.71
-4073.11
-43530
-56797.4
-26236.2
-33154.8
-57225.4
-73332.1
-28039.3
-33019.8
-32565.3
-44785.7
-26506
-36121.5
-17757.4
-26629.8
-2152.4
-570.799
-3799.16
-1299.18
-7320.04
-3293.58
-14891.2
-5394.4
-3193.58
-1831.28
-8005.14
-2526.86
-16564.2
-5218.54
-21502.4
-7265.63
-17408.7
-9098.03
-20226
-11993.7
-15652
-11257.8
-17749.8
-13666.7
-16335.2
-9570.49
-12874.5
-6732.05
-22957.7
-14527.7
-23944.9
-15256.4
-20870.2
-15644.7
-22071.3
-16312.3
-19245.1
-12024.5
-20586.2
-12817
-18032.4
-8039.16
-7914.42
-10563.9
-16114.6
-8245.26
-5984.54
-10460.8
-19937
-8209.14
-9582.87
-10793.9
-21175
-8466.67
-10766.2
-11388.8
-1235.23
-1128.77
-308.161
-1387.82
-5025.06
-5247.48
-3197.32
-6445
-2900.43
-3613.89
-5028.68
-9554.81
-12408.8
-9651.36
-9903.69
-12557.2
-8474.85
-7527.77
-8244.63
-7455.36
-14604.7
-13160.2
-12156.1
-10424.6
-7449.92
-6540.37
-14316.6
-1226.42
-916.558
-697.049
-784.534
-4695.28
-3703.48
-4034.91
-3560.46
-767.658
454.771
-4792.86
-3773.28
-10155.8
-10792.7
-9547.3
-8778.7
-7435.2
-5402
-9836.08
-7800.64
-9161.7
-7174.85
-11791.9
-11797.9
-10240.8
-7748.03
-7714.27
-5027.75
-6947.14
-4231.47
-10649
-6377.33
-9496.58
-4844.54
-8520.1
-9551.52
-13242.7
-17458.1
-13997.2
-20391.1
-6646.5
-7736.74
-7998.41
-2621.97
-7909.6
-15355.9
-7696.34
-16627.9
-13892.2
-25318.8
-14239
-26849.3
-5991.45
-13328.4
-5671.55
-14386.2
-8272.96
-6316.07
-12175.1
-4782.46
-7868.41
-1556.93
-10453.9
-1020.36
-8268.56
-9683.3
-12877.1
-5900.71
-6999.1
-11547.6
-11490.4
-7771.15
-891.212
-824.574
-628.256
-724.082
-2817.94
-2067.05
-2599.29
-2369.95
1042.07
491.246
-3036.4
-3339.76
-10634.1
-9973.86
-7834.56
-6637.94
-4308.59
-3562.85
-6139.3
-5023.2
-6047.48
-4385.12
-18277.8
-15731.1
-8165.07
-6730.13
-6396.21
-4661.65
-5431.83
-3315.75
-5957.6
-2432.98
-5647.28
-9300.69
-4902.06
-9513.66
-8657.7
-10722.4
-9776.7
-13303
-956.982
-657.58
-689.629
-561.839
-3584.18
-2456.69
-2855.83
-1468.03
-1173.26
-1513.1
-8295.83
-8862.37
-4533.59
-4039.89
-9584.76
-10037
-15088.2
-17435.6
518.009
4159.03
-7342.08
-7205.76
-7143.07
-5658.35
-1002.58
-885.126
-1082.21
-875.066
-1567.08
-956.248
-405.669
-297.935
-7912.01
-3424.31
-6712.55
-2838.55
-9273.77
-3483.48
-11153.9
-3788.85
-5330.24
-10251.2
-7036.92
-10755.6
-8880.33
-11984.3
-11806.7
-13003.1
-5079.07
-8945.09
-4537.41
-8890.48
-8302.25
-10868.9
-9619.39
-11268.5
-13735.8
-13672.3
-15133.8
-14219.6
-5491.84
-8806.62
-6133.87
-9038.81
-103.72
-1723.57
-7315.32
-4579.45
-78.1916
-1775.46
-7238.72
-4376.04
-443.415
-1790.32
-7310.45
-4739.05
-683.412
-1765.15
-7204.35
-4659.68
-998.491
-1078.1
-911.208
-958.072
-1900.26
-1912.58
-1193.36
-1253.51
-8039.84
-7275.19
-3428.55
-3361.42
-3493.16
-4983.51
-3777.33
89.8369
-1354.66
-1052.82
-1218.77
-3512.78
2819.35
-440.118
-14189.8
-11744.5
-10245.1
-8552.98
-4912.51
-1069.24
-939.448
-1060.03
-1271.17
-1870.86
-1450.24
-1600.76
-2103.74
-7485.36
-7231.62
-3696.35
-4671.79
-4903.12
-6609.9
-2961.21
-4892.81
-4571.22
-4956.79
-816.303
-1215.97
-2226.64
-3381.5
-9674.59
-7833.06
-7407.14
-5351.84
-6203.4
-4360.2
-5195.62
-3659.9
-3419.47
-3671.37
-8012.64
-7836.79
-10888.2
-6972.38
-10356.2
-10992.8
-13020.9
-10898.1
-8779.44
-5330.48
-6373.22
-6286.76
-11944.4
-5726.75
-12789
-5824.14
-13978.8
-10760.4
-14803.4
-11071
-9654.88
-4101.32
-10313.1
-4178.92
-6763.93
-5085.68
-4886.67
-6581.13
-5721.81
-5931.03
-4817.8
-6858.05
-7034.57
-4662.17
-4917.98
-7044.32
-8054.45
-4598.3
-5768.42
-6787.61
-731.079
-636.492
-912.289
-694.994
-1263.43
-1526.09
-1305.11
-1013.06
-6961.08
-6096.94
-3069.61
-1399.2
-7732.25
-7265.35
-5889.13
-5246.68
-4766.22
-4092.9
-1596.93
-1692.1
-3217.46
-1511.24
-8522.73
-7223.02
-4720.77
-3792.95
-3537.39
-2375.77
-2442.6
-1224.11
-3312.72
-91.3784
-181.455
-79.2455
-27.4398
13.5325
-153.971
-91.0657
-21.8708
16.9426
-494.986
-209.133
-0.842743
115.181
-414.339
-225.91
1.64115
95.524
-827.658
-317.229
32.5408
265.27
-784.192
-360.482
-103.63
22.2559
-549.573
-244.294
-115.233
-35.6332
-439.273
-169.465
-10.5982
74.1029
-1268.71
-432.378
-120.529
68.4533
-1508.26
-427.026
-117.52
289.24
-1203.59
-407.736
-73.7329
167.99
-1363.82
-381.669
-138.857
254.751
-1196.85
-402.366
-48.6226
171.846
-1569.29
-443.212
-106.963
341.948
-1097.24
-349.229
12.9599
255.613
-1559.37
-432.215
-90.6101
369.049
-171.468
-66.754
-11.0825
43.5657
-147.095
-50.3992
-24.0196
39.9144
-440.701
-172.942
-12.5538
118.019
-368.057
-130.864
-59.392
104.991
-890.649
-301.966
-18.3328
242.762
-804.989
-259.243
-78.9988
215.535
-978.15
-341.529
-57.2325
189.364
-738.591
-239.634
-98.9324
239.495
-1367.67
-378.05
-124.04
374.433
-106.786
-37.1737
-10.8556
27.9963
-49.7572
-24.5822
-9.16633
1.13357
-321.843
-107.977
-49.6346
63.4606
-162.996
-73.5253
-36.2439
-2.92832
-573.766
-181.405
-77.112
113.196
-328.774
-129.765
-56.1969
-1.25152
-873.759
-261.986
-96.1092
174.31
-572.506
-192.657
-74.9987
1.98371
-1153
-318.137
-162.091
137.773
-767.601
-233.027
-105.027
-12.3042
-1537.74
-414.228
-177.401
169.642
-760.633
-220.869
-90.2325
4.16234
-1479
-402.631
-196.91
136.736
-839.896
-243.577
-102.639
-7.16013
-1527.43
-388.457
-143.362
222.266
-687.192
-182.508
-59.0995
30.8345
-1462.4
-343.981
-105.665
250.678
-618.465
-137.395
-27.4774
52.8209
-1.00343
-3.92173
-2.70803
-1.60895
-1.09096
-11.4691
-8.36082
-4.85255
-2.75436
-1.84227
-1.01932
-9.06934
-6.29166
-3.7312
-2.52714
-25.3318
-18.774
-10.899
-6.17343
-4.12353
3.54537
-10.8712
-7.75658
-4.61166
-3.12367
-34.0942
-25.0741
-14.4643
-8.16649
-5.44754
-17.179
-12.7755
-7.38632
-4.165
-2.77448
-0.208593
-5.04191
-3.5422
-2.09748
-1.41655
-4.18735
-12.4758
-8.23394
-4.80659
-3.23805
5.01685
-3.9143
-3.0257
-1.81952
-1.23604
-18.6646
-17.8992
-10.6106
-6.03087
-4.03269
1.89782
-4.65822
-3.24863
-1.91709
-1.29556
9.8757
-5.44223
-4.53815
-2.76965
-1.88689
6.68241
-3.10303
-2.56383
-1.55394
-1.05634
25.4185
0.848433
-1.52284
-1.16398
-0.834133
16.5029
1.0119
-0.546258
-0.469586
-0.342861
1.9438
-2.56987
-1.94224
-1.17352
-0.799541
-1.71716
-2.71875
-1.72128
-1.00141
-0.675729
0.412626
-7.7228
-5.26051
-3.09903
-2.09483
-7.32222
-7.99722
-4.80751
-2.75351
-1.84758
11.4605
-7.92001
-6.05458
-3.63778
-2.46997
-13.4234
-11.9593
-6.93501
-3.92969
-2.62617
-17.441
-14.8861
-8.54046
-4.82138
-3.22011
-17.5144
-10.4173
-5.65532
-3.14987
-2.09457
-13.6924
-8.90932
-4.90103
-2.74168
-1.82682
-22.4485
-194.53
10.1506
-486.522
153.657
-652.783
536.219
-534.303
862.021
115.111
-682.642
-1254.33
383.308
163.493
-1179.86
-1918.41
-1528.61
-2212.63
-686.831
-164.087
-37.529
-8.38973
-2.13002
-172.743
-98.4327
-13.6775
-3.83653
-1.75416
-2120.8
-502.346
-115.183
-25.6119
-6.51022
-409.649
-128.044
-33.3604
-7.26516
-2.03332
-3565.31
-843.935
-193.923
-43.2626
-10.9738
-713.592
-228.499
-58.0132
-13.8771
-3.56976
-4784.72
-1132.01
-260.967
-58.3883
-14.8303
-895.452
-298.086
-76.8816
-18.4243
-4.70374
-5992.09
-1425.27
-330.353
-74.249
-18.9369
-1070.09
-374.898
-98.0391
-23.6191
-6.07651
-7105.64
-1735.73
-407.271
-92.267
-23.6388
-1730.87
-535.554
-133.599
-31.0216
-7.86806
-6622.92
-1612.5
-376.785
-85.0132
-21.7111
-1337.13
-449.716
-115.642
-27.4112
-6.96729
-7324.33
-1792.15
-421.374
-95.6293
-24.5419
-1967.33
-589.414
-144.953
-33.2009
-8.40101
-7640.06
-1854.47
-436.791
-99.1109
-25.4263
-2047.02
-615.132
-152.625
-32.5196
-8.69967
-505.823
-7273.43
-6376.47
-2202.99
-1600.26
-889.037
-3741.75
-2620.97
-6717.71
-6245.96
-3224.71
-2396.02
-275.915
-434.324
-764.688
-1273.96
-1963.3
-2792.15
-202.85
-448.01
-950.142
-1692.9
-2620.56
-3624.98
-207.471
-95.4324
-365.101
-247.557
-687.919
-564.032
-1178.24
-1082.35
-1742.82
-1655.92
-2366.06
-2102.44
-3576.39
-4174.26
-4690.5
-7255.49
-8336.08
-9311.62
-4532.37
-5129.34
-5238.93
-4901.61
-4302.9
-3839.32
-248.875
-210.432
-159.498
-99.4063
-33.756
-391.398
-330.576
-250.285
-155.856
-52.9011
-688.337
-580.611
-439.034
-273.136
-92.6634
-1144.99
-964.092
-727.807
-452.262
-153.347
-1760.43
-1478.51
-1113.61
-690.974
-234.137
-2494.3
-2086.62
-1566.6
-970.28
-328.608
-182.876
-154.53
-117.052
-72.9167
-24.7543
-403.455
-340.486
-257.588
-160.312
-54.397
-854.683
-720.363
-544.323
-338.474
-114.803
-1520.34
-1279.09
-964.934
-599.364
-203.192
-2347.78
-1970.11
-1482.95
-919.871
-311.687
-3236.25
-2705.84
-2030.92
-1257.91
-426.086
-187.201
-158.35
-120.071
-74.8565
-25.4236
-86.1202
-72.8584
-55.2535
-34.4508
-11.7012
-329.183
-278.194
-210.748
-131.292
-44.5732
-223.272
-188.757
-143.045
-89.1381
-30.2662
-619.651
-523.08
-395.82
-246.379
-83.6073
-508.258
-429.239
-324.947
-202.325
-68.6681
-1059.77
-893.087
-674.702
-419.461
-142.254
-973.811
-820.903
-620.317
-385.698
-130.808
-1564.07
-1314.7
-990.859
-614.983
-208.396
-1486.47
-1249.72
-941.911
-584.524
-198.043
-2114.78
-1769.75
-1328.65
-822.589
-278.468
-1879.69
-1573.02
-1180.44
-730.281
-247.055
-3175.49
-2640.71
-1974.12
-1220.66
-413.562
-3668.05
-3022.17
-2246.95
-1388.96
-472.259
-4046.2
-3285.16
-2426.82
-1506.53
-519.052
-6046.16
-4799.38
-3531.06
-2234.03
-805.319
-6547.25
-5035.83
-3709.18
-2443.68
-975.074
-6996.93
-5269.69
-3889.34
-2642.06
-1132.71
-4025.94
-3349.59
-2505.41
-1549.84
-525.155
-4522.78
-3738.03
-2784.87
-1722.07
-584.721
-4567.94
-3740.74
-2774.85
-1718.99
-587.298
-4193.8
-3387.45
-2502.05
-1561.38
-542.768
-3551.3
-2803.55
-2064.03
-1314.25
-478.53
-3050
-2352.4
-1728.2
-1126.44
-431.858
-287.828
-472.281
-835.05
-1386.62
-2131.3
-3014.28
-218.896
-499.303
-1044.7
-1838.89
-2816.79
-3849.46
-218.313
-104.083
-400.409
-277.011
-755.81
-625.002
-1292.61
-1192.94
-1926.89
-1871.54
-2624.77
-2452.62
-3825.97
-4424.94
-4935.24
-7424
-8415.94
-9335.74
-4742.19
-5277.42
-5300.59
-4882.59
-4247.36
-3811.17
-259.701
-219.672
-166.57
-103.85
-35.2718
-425.915
-360.059
-272.872
-170.058
-57.7472
-752.407
-635.425
-481.099
-299.621
-101.709
-1247.8
-1052.28
-795.673
-495.089
-167.992
-1914.21
-1610.9
-1215.88
-755.714
-256.315
-2698.74
-2263.8
-1704.38
-1057.98
-358.747
-197.453
-166.968
-126.571
-78.8961
-26.7937
-450.096
-380.321
-288.104
-179.498
-60.9441
-940.802
-794.054
-600.886
-374.094
-126.97
-1653.6
-1393.44
-1052.97
-654.939
-222.201
-2527.52
-2124.99
-1602.7
-995.735
-337.688
-3443.02
-2885.19
-2170.55
-1346.86
-456.675
-197.048
-166.747
-126.492
-78.8883
-26.7983
-93.971
-79.5472
-60.3641
-37.6569
-12.7938
-361.269
-305.578
-231.708
-144.461
-49.0654
-250.024
-211.572
-160.496
-100.096
-34.0026
-681.432
-575.895
-436.318
-271.861
-92.3067
-563.727
-476.644
-361.285
-225.184
-76.4705
-1164.1
-982.546
-743.512
-462.867
-157.094
-1074.79
-907.572
-687.055
-427.833
-145.22
-1732.39
-1459.47
-1102.56
-685.626
-232.582
-1683.59
-1419.18
-1072.61
-667.154
-226.328
-2352.72
-1975.74
-1488.64
-924.316
-313.403
-2200.74
-1849.95
-1394.75
-866.146
-293.636
-3407.47
-2844.01
-2134
-1323.38
-449.065
-3905.06
-3233.74
-2416.34
-1499.44
-510.839
-4284.12
-3503.38
-2606.04
-1626.08
-561.573
-6229.05
-4982.35
-3693.32
-2350.15
-849.669
-6652.31
-5150.48
-3818.79
-2529.12
-1011.93
-7033.88
-5311.81
-3931.22
-2676.3
-1148.35
-4221.17
-3520.93
-2640.38
-1636.67
-555.196
-4663.76
-3864.89
-2887.27
-1789.3
-608.284
-4631.86
-3803.14
-2828.99
-1756.63
-601.014
-4185.38
-3388.61
-2509.83
-1570.51
-547.131
-3508.77
-2773.89
-2047.01
-1307.63
-477.852
-3027.72
-2335.92
-1717.83
-1121.68
-430.991
-20039.3
-14430.6
-4557.12
-3470.44
-2665.29
-3640.06
-3485.68
-12980.6
-14351.6
-11302.8
-13010.4
-7404.96
-10835.9
-5583.61
-5860.64
-4212.72
-20489.5
-11000.2
-4035.38
-6607.02
-8883.65
-6008.5
-6472.57
-4865.71
-2954.48
-4179.11
-4833.33
-4924.92
-19610.2
-12919.4
-12659.6
-8949.33
-8791.59
-9456.36
-4188.74
-5192.87
-6727.11
-13949.8
-11731
-9479.06
-8316.71
-6713.59
-9302.19
-6291.85
-4721.36
-3444.99
-1672.88
-4018.71
-3325.84
-2484.7
-1542.48
-526.003
-3096.78
-2589.34
-1945.18
-1206.63
-409.339
-2376.18
-1984.05
-1487.77
-921.179
-312.065
-3257.99
-2731.44
-2054.92
-1274.58
-431.957
-3099.93
-2582.88
-1934.85
-1198.4
-406.4
-9265.7
-7484.94
-5942.15
-5078.88
-4692.8
-10429.1
-8751.43
-6870.2
-5284.2
-2989.81
-8050.74
-5598.36
-4116.15
-2771.94
-1154.45
-9467.8
-7632.23
-5829.04
-4144.05
-1930.1
-6205.44
-4922.7
-3585.86
-2211.95
-762.975
-8423.1
-6224.25
-4475.72
-2789.63
-1001.46
-4800.4
-3880.12
-2849.63
-1754.34
-598.108
-5018.13
-4042.37
-2962.61
-1823.11
-622.065
-3656.02
-2976.86
-2193.77
-1349.41
-458.04
-14096.3
-10961.4
-8769.67
-7339.89
-6263.31
-8442.2
-6368.9
-4729.75
-3150.35
-1329.87
-3459.13
-2794.01
-2056.91
-1274.06
-439.251
-5681.53
-4610.19
-3414.66
-2132.24
-743.602
-7406.85
-5904.84
-4376.11
-2797.38
-1035.98
-5144.53
-4164.88
-3089.01
-1939.66
-681.963
-5615.41
-4592.29
-3419.21
-2137.86
-741.432
-4256.51
-3497.79
-2602.55
-1615.82
-553.152
-2595.06
-2135.92
-1585.3
-977.5
-331.436
-3702.56
-3073.37
-2295.62
-1419.89
-481.561
-4203.9
-3432.84
-2538.47
-1567.49
-534.53
-4308.24
-3538.37
-2629.2
-1628.98
-556.538
-13495.5
-10976.1
-8903.68
-7569.25
-6208.81
-8977.01
-6398.02
-4813.11
-3426.59
-1650.83
-9573.1
-7639.29
-5787.86
-4133.12
-1905.47
-7078.72
-5392.37
-4021.07
-2674.44
-1053.63
-7356.69
-5887.16
-4376.07
-2805.62
-1035.71
-7476.8
-5689.54
-4240.02
-2813.86
-1097.64
-3631.56
-2966.44
-2205.53
-1376.87
-476.787
-4588.34
-3800.63
-2837.26
-1757.03
-597.077
-5819.54
-4742.49
-3519.9
-2195.73
-759.95
-425.8
-1228.09
-1984.93
-2724.55
-3442.41
-4122.41
-2814.97
-7535.12
-7085.29
-2726.9
-9523.46
-8020.13
-9413.32
-10390.7
-2568.99
-1652.94
-5973.61
-3386.59
-11208.4
-8059.78
338.331
-2271.93
-6245.27
-5779.17
-2180.5
-8047.32
-6474.66
-7831.34
-8761.98
-2123.96
-954.094
-5143.19
-1706.6
-9176.76
-4803.86
1827.79
-1641.29
-4694.07
-4316.61
-1574.46
-6280.4
-3769.51
-6258.22
-6848.7
-1587.95
-872.597
-3606.33
-1796.24
-7211.34
-1758.91
1976.55
-1187.65
-3576.91
-3342.12
-1177.4
-4720.74
-2188.14
-5107
-5929.17
-1179.18
-925.41
-2613.27
-1836.99
-6255.1
-234.377
1489.17
-943.82
-2989.05
-2831.07
-975.197
-3718.87
-1773.8
-4512.51
-5697.48
-918.87
-1019.59
-1842.7
-1779.62
-5409.56
-26.613
219.626
-823.15
-2629.88
-2570.29
-872.394
-3406.04
-2068.08
-4134.05
-5418.23
-697.266
-800.535
-1485.82
-1734.18
-5332.58
-943.23
-499.266
-1400.51
-3411.53
-5133.48
-1991.63
-5511.36
-9677.61
-7480.91
-10753.8
-979.351
-657.991
-3824.25
-2249.97
-1034.1
-9090.31
-4638.75
-1297.7
-3167.24
-4485.13
-1721.14
-5069.33
-8698.3
-6711.58
-9086.86
-997.175
-567.95
-3941.57
-2097.33
-212.164
-8860.13
-3394.49
-1131.01
-2769.81
-3634.14
-1367.67
-4577.93
-7678.14
-5652.72
-7890.63
-873.791
-650.79
-3323.64
-2164.44
-452.612
-7040.21
-3194.67
-964.846
-2470.4
-2971.52
-1093.9
-4225.1
-6867.85
-4969.8
-7071.86
-789.488
-648.364
-3026.97
-2217.78
-308.83
-6440.71
-3166.29
-862.203
-2203.34
-2606.88
-944.517
-3792.75
-6227.77
-4486.18
-6662.62
-730.144
-700.795
-2712.82
-2388.36
-482.416
-6112.79
-3205.17
-794.712
-1952.14
-2398.22
-861.368
-3479.2
-6126.04
-4133.88
-6412.45
-754.651
-819.756
-2400.88
-2273.46
-751.47
-6242.91
-3561.74
6459.65
8156.84
16832.3
24668.4
25146.5
43284.8
19237.1
48922.4
15631.4
34312.2
23406.7
35567.6
20930.3
27591.5
7920.19
8999.97
16016.5
18365.9
20552.2
20391.5
16119.2
19856.3
23693
21223.9
5375.6
4127.18
6585.79
4487.07
13546.7
10911.1
23088.4
16828.1
17784.3
18573.8
19897.5
19207.1
7156.1
5490.05
41933.5
56132.9
27136.8
33298.2
56116.4
72865.7
29041.9
33259.5
31226.7
44094.9
27322.9
36162
16082.5
25824.1
2964.94
1021.83
3031.05
1109.83
9443.14
3827.98
12922.9
4779.37
9294.97
3547.29
9726.53
3129.53
16524.1
5274.64
21298.4
7210.04
25582.8
12808.9
23423.2
13874.7
23794.3
15409.7
20943.7
15643.8
18593
11076.9
18650.8
9605.15
24183.8
15367.1
24249
15484
22140.4
16501.7
22410.6
16543.5
20063.3
12713.2
20776.6
13005.7
19083.2
8352.12
8910.65
10970.9
19154.7
9164.37
7849.75
11225.9
20195.5
8282.61
10042.7
10988.2
21197
8470.66
10894
11444.1
3824.49
4144.62
1326.76
2608.04
11779.3
12489.9
4625.26
8405.44
15156.5
16744.8
7529.22
12899.2
12286.7
673.47
14119.5
17835.5
9916.82
317.084
7176.59
12907.6
21013.2
15295.3
10562.1
12996.8
11603.9
10229.5
16153.7
3497.95
2804.03
1992.88
1994.03
10776
8907.15
6692.8
6310.53
13308.5
10953.1
8646.97
7699.72
5687.39
7356.65
11928.7
12484
14639.9
13274.5
16564.5
14240.6
11685.3
9850.59
9293.46
9495.55
12348.8
9312.72
11399.6
7892.9
10019
6571.94
12004.1
7722.72
10473.6
4366.8
9108.96
9584.89
12826.1
16396
14156.6
20377.9
7330.95
7868.29
9339.33
2380.85
8162.91
15470.8
7765.35
16677.8
14039.8
25220.7
14290.8
26868.5
6278.38
13456.9
5747.36
14430.9
8743.82
6346.38
12333.8
4675.56
8815.34
1129.77
10654.3
218.921
8467.41
9747.95
12951.4
5883.1
7056.47
11573.4
11513.5
7776.08
2127.65
1853.67
1619.33
1585.2
1437.12
1260.58
7074.88
5555.41
4628.49
4663.92
3569.44
2974.77
8393.07
6970.1
6316.62
5531.02
4293.77
3960.39
6268.28
5287.78
5064.5
10709.3
7700.22
6294.21
10385
7253.24
5659.36
10836.6
8154.83
6906.25
7153.09
4467.56
3355.26
15383
12730.4
10633.7
10151.9
8060.3
6373.93
9317.68
6861.89
5165.23
8070.68
5515.83
3966.64
8705.62
4656.12
2445.19
10739.8
14475.4
8562.95
10989.3
11797.1
17219.2
10601.6
15295.1
57.5488
613.942
-435.057
70.2843
2990.59
3396.27
1277.35
773.711
732.442
2425.39
9585.94
13893.5
6652.52
3774.49
10301.9
10234.9
16085.7
17728.9
-602.451
-4273.49
7763.69
7295.12
7373.41
5674.68
889.269
483.805
593.224
264.861
2021.7
157.796
-256.308
-807.728
9262.48
2280.47
6366.23
1620.68
9209.29
2770.41
11128.5
3504.44
9150.14
12088.1
8416.29
11756.2
14901.4
15554.7
14171.2
14676.9
5674.42
9260.39
6580.48
9221.36
8909.08
11301.9
9802.02
11384.8
14750.8
14384.3
15425.6
14411.5
5713.65
8937.5
6195.3
9068.88
-319.047
1067.65
7016.6
4049.57
-843.795
672.54
6500.97
3561.39
134.567
1335.04
7156.52
4421.22
557.953
1583.42
7159.55
4551.31
-668.454
-756.755
129.955
-28.9637
-2907.61
-2902.33
-274.91
-466.173
-698.755
-2021.41
1444.38
754.759
-10196
-9834.16
-5506.28
-4278.73
-604.608
-10712
-10710.5
-4207.11
-6221.4
-1015.47
10627.6
8169.01
6987.79
6298.34
3509.19
-738.371
-643.869
-90.768
-25.1395
-2436.71
-2262.02
-231.639
-52.0933
-2496.9
-2844.66
419.467
612.155
-5088.03
-2109.95
-7903.39
-4705.13
-3474.47
-2494.49
-3949.87
-3272.53
120.997
878.293
3898.1
2440.54
1118.46
-882.94
927.193
-719.705
1402.6
157.113
1538.94
1700.15
5156.74
4633.09
9797.23
5863.67
8215.79
8108.15
12439.8
9984.11
7446.61
4276.57
3659.7
3554.89
11555.6
5059.44
12696.1
5668.7
13872.1
10196.3
14794.3
10957.6
9072.02
3457.35
10154.7
4013.01
5512.63
4162.66
3813.86
5582.26
3468.31
3791.48
3218.39
5164.8
6401.49
4070.56
4322.91
6420.8
7860.76
4416.99
5578.33
6612.48
-608.193
-604.079
-664.011
-63.6638
-225.954
-243.207
-2297.68
-2337.95
-2294.43
-222.956
-645.851
-636.962
-2986.64
-3161.8
-3166.52
361.021
-647.606
-844.525
-1019.22
-849.019
-547.637
-3208.24
-3199.2
-2927
-2581.65
-2818.97
-2728.32
-3210.57
-3290.66
-3143.36
946.9
-298.279
-381.935
3551.4
2041.65
1125.64
-707.146
-1632.93
-2118.33
-740.421
-1869.34
-2347.44
-366.118
-1548
-1875.42
1727.51
-398.057
-640.985
-23.254
-25.5524
-27.9582
-40.9006
-218.428
-111.218
-85.2916
-73.8417
-17.9211
-54.6577
-126.216
-178.084
-374.954
-214.137
-231.546
-222.619
179.103
-12.3313
-182.939
-323.471
-134.941
-163.599
-196.376
-205.789
-18.6683
-93.1539