/*--------------------------------*- C++ -*----------------------------------*\
| =========                 |                                                 |
| \\      /  F ield         | OpenFOAM: The Open Source CFD Toolbox           |
|  \\    /   O peration     | Version:  2306                                  |
|   \\  /    A nd           | Website:  www.openfoam.com                      |
|    \\/     M anipulation  |                                                 |
\*---------------------------------------------------------------------------*/
FoamFile
{
    version     2.0;
    format      ascii;
    arch        "LSB;label=32;scalar=64";
    class       volVectorField;
    location    "2.8";
    object      flux;
}
// * * * * * * * * * * * * * * * * * * * * * * * * * * * * * * * * * * * * * //

dimensions      [0 1 -1 1 0 0 0];

internalField   nonuniform List<vector> 
5712
(
(-0.257125 0.45659 0.280811)
(-0.328593 0.263251 0.923203)
(-0.61183 0.741043 0.222587)
(-0.892363 0.485254 0.946979)
(-0.910208 0.807879 0.167431)
(-1.57145 0.597679 0.980747)
(-0.701268 1.26936 0.265105)
(-1.78586 1.57091 1.51572)
(-0.571506 1.66768 0.326054)
(-1.25523 2.03847 2.08491)
(-0.854136 1.07803 0.323186)
(-1.29861 0.936033 1.5163)
(-0.767101 0.685061 0.311295)
(-1.00452 0.54241 1.25707)
(-0.337091 0.343672 0.323483)
(-0.385061 0.232378 1.12235)
(-0.571814 0.768845 0.19566)
(-0.654814 0.788952 0.120166)
(-0.740722 0.661163 0.523061)
(-0.73488 0.778134 0.309203)
(-0.584762 1.03832 0.192141)
(-0.72403 0.930105 0.103437)
(-0.861774 1.1955 0.5744)
(-0.774697 0.970329 0.285012)
(-0.208298 0.323228 0.212961)
(-0.155641 0.233777 0.153066)
(-0.259256 0.181316 0.683542)
(-0.173569 0.134603 0.477744)
(-0.482314 0.387639 0.160947)
(-0.383782 0.316236 0.114551)
(-0.824997 0.234493 0.672561)
(-0.595462 0.189064 0.485609)
(-0.640252 0.69943 0.377254)
(-0.664489 0.728484 0.159239)
(-0.708822 0.716764 0.32482)
(-0.672464 0.609098 0.144161)
(-0.245614 0.561716 0.148471)
(-0.193947 0.436319 0.350575)
(-1.51881 0.438101 1.31382)
(-2.03385 0.496886 0.356647)
(-0.981115 0.706658 0.469642)
(-1.20488 0.702431 0.159622)
(-2.04675 1.47786 1.69638)
(-2.6555 1.52713 0.461473)
(-1.05969 1.05022 0.441566)
(-1.21293 1.0807 0.153729)
(-1.12388 0.595837 0.935595)
(-1.58842 0.502513 0.290679)
(-0.980014 0.65101 0.479591)
(-1.30001 0.464671 0.167705)
(-0.571587 0.302799 0.811014)
(-0.923459 0.310294 0.258248)
(-0.10873 0.24571 0.219466)
(-0.0365676 0.336801 0.108806)
(-0.114705 0.128366 0.332184)
(-0.0412661 0.152764 0.12868)
(-0.328566 0.337368 0.237263)
(-0.132309 0.453731 0.128474)
(-0.451996 0.200301 0.324406)
(-0.165873 0.231712 0.123632)
(-0.320144 0.375557 0.303648)
(-0.123059 0.619006 0.172548)
(-0.342979 0.259518 0.279471)
(-0.109796 0.42063 0.120547)
(-0.585793 0.0992348 0.417384)
(-0.186119 0.250881 0.149333)
(-0.756383 0.0825495 0.143835)
(-0.254823 0.187604 0.0500042)
(-0.93356 0.697784 0.471351)
(-0.46211 0.861064 0.3244)
(-0.854503 0.716927 0.292834)
(-0.507025 0.855561 0.212985)
(-0.879429 0.854619 0.534566)
(-0.568848 0.864643 0.439265)
(-0.773091 0.867137 0.292378)
(-0.583467 0.851488 0.253143)
(-0.668875 0.608164 0.274696)
(-0.397071 0.822763 0.183479)
(-0.667994 0.627834 0.383723)
(-0.338952 0.81388 0.253461)
(-0.881308 0.704742 0.193781)
(-0.565465 0.848566 0.141881)
(-0.883136 0.703693 0.0993816)
(-0.571186 0.845969 0.0812298)
(-0.815988 0.872383 0.189144)
(-0.618508 0.839294 0.163463)
(-0.825779 0.868396 0.0990195)
(-0.621838 0.830618 0.0952885)
(-0.722778 0.560968 0.184302)
(-0.459821 0.825581 0.119619)
(-0.748797 0.541037 0.0951809)
(-0.471553 0.828181 0.0604704)
(-0.681604 0.679001 0.243505)
(-0.293805 0.790462 0.131772)
(-0.313642 0.857823 0.180648)
(-0.37999 1.18747 0.220056)
(-0.68452 0.718451 0.330379)
(-0.320635 0.90807 0.234733)
(-0.272399 0.849451 0.259396)
(-0.383235 1.28367 0.37447)
(-0.722205 0.644223 0.16218)
(-0.292998 0.698058 0.076417)
(-0.356488 0.861828 0.107017)
(-0.383973 1.14475 0.126586)
(-0.758255 0.637562 0.0810671)
(-0.300375 0.65431 0.0334207)
(-0.388317 0.8714 0.0464033)
(-0.401884 1.13761 0.0469582)
(-0.140948 0.196164 0.283803)
(-0.153684 0.254229 0.510207)
(-0.0471231 0.498325 0.193483)
(-0.0910048 0.859625 0.570896)
(-0.413989 0.245291 0.334579)
(-0.437212 0.277032 0.500564)
(-0.158655 0.646341 0.238838)
(-0.27835 0.985435 0.59977)
(-0.530128 0.308647 0.382618)
(-0.590724 0.311136 0.454998)
(-0.252045 0.825988 0.309555)
(-0.427162 1.11262 0.588726)
(-0.488693 0.959279 0.467899)
(-0.0483855 1.03739 0.5685)
(-0.532626 0.804748 0.342996)
(-0.650777 0.770517 0.327733)
(-0.349833 1.09824 0.360845)
(-0.0350119 1.04715 0.566956)
(-0.300445 0.983588 0.513005)
(-0.475531 0.822959 0.494405)
(-0.763056 0.708723 0.501893)
(-0.518911 1.24792 0.729222)
(-0.384867 0.952714 0.460432)
(-0.463935 0.935816 0.346136)
(-0.401652 0.828019 0.293506)
(-0.343272 0.813548 0.327573)
(-0.536625 1.43742 0.519848)
(-0.136541 0.0770424 0.588087)
(-0.113434 0.0920865 0.522402)
(-0.0776702 0.163081 0.683455)
(-0.0772317 0.362716 0.652976)
(-0.386185 0.110011 0.538443)
(-0.328638 0.123396 0.496748)
(-0.230107 0.228063 0.676411)
(-0.219379 0.411965 0.640524)
(-0.483856 0.165841 0.466658)
(-0.414621 0.140073 0.452764)
(-0.300742 0.313518 0.636353)
(-0.270648 0.47996 0.618748)
(-0.23544 1.04312 0.412309)
(-0.298276 1.042 0.321166)
(-0.483446 0.936404 0.373424)
(-0.499457 0.931913 0.321366)
(-0.550887 0.794321 0.402333)
(-0.502102 0.737614 0.353588)
(-0.620404 0.598173 0.427735)
(-0.542916 0.533765 0.405117)
(-0.412414 0.416044 0.589446)
(-0.346812 0.569665 0.597179)
(-0.35816 0.946619 0.385945)
(-0.381562 0.923549 0.33065)
(-0.471068 0.948941 0.360044)
(-0.378866 0.942134 0.338387)
(-0.426908 0.819015 0.365596)
(-0.317445 0.773953 0.37911)
(-0.367364 0.671645 0.408797)
(-0.258784 0.605241 0.45078)
(-0.422983 0.445165 0.534627)
(-0.279621 0.579768 0.60898)
(-0.405266 0.935829 0.316155)
(-0.197796 1.05691 0.247676)
(-0.346512 0.931786 0.218265)
(-0.37967 1.08074 0.279461)
(-0.497785 0.909172 0.43486)
(-0.65418 0.946264 0.533041)
(-0.547179 0.885852 0.302588)
(-0.79928 0.950047 0.480829)
(-0.274406 0.845266 0.182195)
(-0.308836 0.861247 0.241678)
(-0.357956 0.838803 0.2699)
(-0.124389 0.837142 0.221541)
(-0.308285 0.923824 0.0514854)
(-0.597035 1.08445 0.185907)
(-0.292144 0.918931 0.0274611)
(-0.638603 1.08268 0.0670036)
(-0.541454 0.858991 0.154931)
(-0.985574 0.960231 0.324348)
(-0.550748 0.851195 0.0577789)
(-1.04425 0.957191 0.112804)
(-0.231398 0.848517 0.0223139)
(-0.510317 0.859362 0.155761)
(-0.20966 0.847921 0.0132762)
(-0.542395 0.858546 0.0545756)
(-0.318235 0.70732 0.177674)
(-0.244818 0.672962 0.18082)
(-0.439893 0.454616 0.201781)
(-0.177801 0.503504 0.123505)
(-0.330315 0.701841 0.280117)
(-0.0759026 0.65438 0.222363)
(-0.385119 0.447101 0.329502)
(-0.0394094 0.502768 0.224399)
(-0.30482 0.717735 0.0392837)
(-0.363019 0.671625 0.0988438)
(-0.460445 0.464895 0.0996945)
(-0.214557 0.506884 0.0554338)
(-0.251395 0.720743 0.0562105)
(-0.426722 0.665073 0.0735061)
(-0.406742 0.479528 0.0801937)
(-0.280462 0.507818 0.0603387)
(-0.0914538 0.0640418 0.413153)
(-0.0814079 0.044632 0.249651)
(-0.0740645 0.0316464 0.0779297)
(-0.0654552 0.037895 0.468862)
(-0.0606278 0.0270121 0.267429)
(-0.0549497 0.025363 0.0872582)
(-0.272132 0.0885792 0.396008)
(-0.227453 0.0551759 0.247008)
(-0.199865 0.0426956 0.0827859)
(-0.173012 0.0754461 0.462419)
(-0.142159 0.0619964 0.267947)
(-0.125265 0.0544315 0.0871816)
(-0.337516 0.105064 0.364532)
(-0.295758 0.0910087 0.226558)
(-0.275285 0.0927906 0.0741206)
(-0.20899 0.133427 0.452431)
(-0.174259 0.111548 0.269874)
(-0.166297 0.101394 0.0899236)
(-0.265629 1.01184 0.206386)
(-0.239337 0.930322 0.109198)
(-0.235047 0.870605 0.0286976)
(-0.439052 0.92592 0.257926)
(-0.341531 0.872784 0.168833)
(-0.290964 0.826931 0.0587989)
(-0.408721 0.661511 0.303298)
(-0.309476 0.624627 0.209091)
(-0.254876 0.60469 0.0720162)
(-0.430078 0.444544 0.34796)
(-0.34645 0.394308 0.223847)
(-0.304434 0.373506 0.0740481)
(-0.260465 0.202789 0.449033)
(-0.175972 0.153786 0.278062)
(-0.139438 0.13215 0.097278)
(-0.632068 0.911364 0.247139)
(-0.556629 0.860048 0.136297)
(-0.488475 0.811957 0.042354)
(-0.401911 0.928878 0.23935)
(-0.341217 0.862832 0.17134)
(-0.288729 0.808054 0.0643292)
(-0.352032 0.683397 0.280376)
(-0.28016 0.600301 0.206957)
(-0.228857 0.552371 0.0755622)
(-0.291598 0.442892 0.351255)
(-0.215957 0.363634 0.245647)
(-0.170376 0.331564 0.0873775)
(-0.293403 0.216148 0.453624)
(-0.166686 0.153484 0.280657)
(-0.0969587 0.125037 0.0990886)
(-0.408397 1.05712 0.0117387)
(-0.554998 1.03932 0.0796236)
(-0.321854 1.14788 0.111834)
(-0.417615 1.03433 0.162479)
(-0.435864 1.18152 0.0847126)
(-0.642268 1.0356 0.0980065)
(-0.388297 1.42216 0.213363)
(-0.567486 1.08702 0.203327)
(-0.00266763 0.821515 0.0239224)
(-0.0301304 0.838401 0.0416512)
(0.0191586 0.809768 0.0255505)
(-0.0045518 0.753449 0.0434048)
(-0.118994 0.922097 0.0193612)
(-0.135473 0.872456 0.0566153)
(-0.0494393 0.902906 0.0346855)
(-0.0271198 0.773278 0.0743572)
(-0.0289751 0.892609 0.128315)
(-0.0980021 0.889655 0.0629813)
(-0.373152 0.825336 0.162855)
(-0.546293 0.887373 0.0941872)
(-0.265504 1.10634 0.0871973)
(-0.143866 0.987929 0.151695)
(-0.388784 1.08694 0.134966)
(-0.38564 1.10219 0.0388945)
(-0.595019 1.17761 0.237743)
(-0.654948 1.21641 0.0594093)
(0.0227417 0.904196 -0.072732)
(0.16012 0.937527 0.0311915)
(-0.299711 0.811784 0.0728872)
(-0.282592 0.787555 0.0551342)
(-0.28061 0.98738 0.0509208)
(-0.216562 1.01146 0.0482799)
(-0.0416328 0.646766 0.397473)
(-0.0224778 0.34017 0.188162)
(-0.0263657 0.601681 0.108917)
(-0.0103441 0.37779 0.0695433)
(-0.081878 0.656043 0.403852)
(-0.0111724 0.343082 0.195922)
(0.0124262 0.599071 0.136374)
(0.0327418 0.374851 0.0875266)
(-0.368579 0.648568 0.399254)
(-0.099434 0.345135 0.211323)
(-0.247643 0.598677 0.19843)
(-0.0669023 0.391309 0.142861)
(-0.355017 0.581113 0.141345)
(-0.109509 0.409858 0.103874)
(-0.42926 0.587502 0.0718848)
(-0.139952 0.406375 0.069568)
(-0.349849 0.835471 0.501377)
(-0.474501 0.718892 0.446754)
(-0.323936 0.827035 0.236602)
(-0.463596 0.715702 0.246241)
(-0.555433 0.920459 0.531781)
(-0.590686 0.835118 0.499897)
(-0.530556 0.925976 0.262505)
(-0.560415 0.824523 0.265406)
(-0.227999 0.810968 0.214118)
(-0.381415 0.599041 0.22126)
(-0.262564 0.850042 0.43707)
(-0.378343 0.59309 0.367419)
(-0.34341 0.842941 0.14207)
(-0.447236 0.710971 0.148722)
(-0.378584 0.852401 0.0808925)
(-0.452503 0.702459 0.0911343)
(-0.552636 0.947283 0.162475)
(-0.551081 0.816273 0.161683)
(-0.578743 0.946736 0.0905941)
(-0.554051 0.805196 0.0966228)
(-0.229973 0.800632 0.126416)
(-0.369874 0.599735 0.136162)
(-0.249968 0.797103 0.0725006)
(-0.377397 0.595724 0.0876585)
(-0.00375282 0.530654 0.194406)
(-0.0641268 0.346019 0.140978)
(-0.307835 0.472853 0.195699)
(-0.204056 0.290829 0.144943)
(0.0190691 0.496224 0.301994)
(-0.0474228 0.308989 0.187148)
(-0.285291 0.45552 0.290553)
(-0.181153 0.270646 0.200698)
(-0.0212988 0.542509 0.118247)
(-0.0734949 0.368486 0.101901)
(-0.315233 0.47974 0.12412)
(-0.221786 0.300037 0.0939417)
(-0.0394199 0.542552 0.067711)
(-0.0842635 0.382565 0.0645429)
(-0.317812 0.478155 0.0791023)
(-0.230408 0.302091 0.055059)
(0.0259218 0.0986213 0.477469)
(0.0302092 0.0495922 0.347082)
(-0.00788658 0.174127 0.250084)
(-0.00236355 0.0831009 0.263776)
(0.112277 0.105817 0.47565)
(0.114522 0.0625013 0.353618)
(0.00514468 0.186065 0.251847)
(0.0106009 0.10347 0.262544)
(0.0174286 0.13189 0.492158)
(0.0738448 0.0976906 0.363404)
(-0.0754106 0.207798 0.255501)
(-0.0507874 0.142674 0.254442)
(0.407997 0.524592 0.550313)
(0.377067 0.810164 0.58484)
(0.219796 0.376185 0.509679)
(0.164755 0.35939 0.34939)
(0.0101397 0.24375 0.209085)
(0.414728 0.796795 0.554536)
(0.431463 0.557683 0.523939)
(0.171529 0.325834 0.497804)
(0.251641 0.326649 0.422484)
(0.0245488 0.197597 0.289624)
(-0.403289 0.824659 0.519862)
(-0.321402 0.652687 0.477863)
(-0.292686 0.520151 0.389755)
(-0.281169 0.402435 0.308755)
(-0.181607 0.235119 0.204333)
(0.0319506 0.0247528 0.308073)
(0.0307029 0.0187837 0.28414)
(-0.000373768 0.0384563 0.295726)
(-0.00551103 0.0239346 0.349042)
(0.101104 0.0380724 0.313766)
(0.103224 0.0260185 0.276022)
(-0.00174661 0.0635647 0.296885)
(-0.0135005 0.0482242 0.342531)
(0.101041 0.0704621 0.32091)
(0.128375 0.0570976 0.26794)
(-0.0373758 0.102708 0.297069)
(-0.0540691 0.0816912 0.334474)
(0.205103 0.81532 0.418935)
(0.096098 0.801685 0.295268)
(0.328921 0.557344 0.400694)
(0.210175 0.545959 0.281456)
(0.144952 0.363308 0.325671)
(0.112426 0.377776 0.268134)
(0.161958 0.304844 0.314861)
(0.144072 0.290912 0.277148)
(-0.030406 0.166572 0.274102)
(-0.0731565 0.13589 0.328716)
(-0.149229 0.76149 0.347625)
(-0.0945692 0.7038 0.301712)
(-0.0425136 0.595389 0.315121)
(0.0414954 0.534814 0.277756)
(-0.045879 0.466234 0.277623)
(0.0278583 0.426943 0.256396)
(-0.0804801 0.352355 0.255529)
(-0.0252344 0.330606 0.260752)
(-0.103746 0.207292 0.217697)
(-0.120223 0.216049 0.313547)
(-0.212646 0.606692 0.281554)
(-0.196085 0.503983 0.191327)
(-0.402123 0.608395 0.187252)
(-0.244817 0.489239 0.111534)
(-0.323463 0.722745 0.360135)
(-0.328353 0.610028 0.277743)
(-0.49104 0.718535 0.251011)
(-0.399676 0.597774 0.200993)
(-0.325457 0.513667 0.157472)
(-0.196415 0.430062 0.0964762)
(-0.166037 0.499561 0.228757)
(-0.166687 0.433805 0.172462)
(-0.473181 0.607248 0.189758)
(-0.21197 0.480008 0.0898817)
(-0.520366 0.603111 0.0701349)
(-0.23747 0.478823 0.0405133)
(-0.547453 0.714415 0.197744)
(-0.40796 0.606994 0.142604)
(-0.584229 0.706947 0.0697666)
(-0.436729 0.604503 0.0576859)
(-0.392782 0.522134 0.167481)
(-0.16193 0.422084 0.0765421)
(-0.439525 0.521068 0.0664111)
(-0.18684 0.427743 0.0355023)
(-0.269445 0.398934 0.137599)
(-0.221418 0.350506 0.131344)
(-0.222956 0.249545 0.128184)
(-0.331364 0.27867 0.192306)
(-0.178811 0.385152 0.191878)
(-0.204312 0.344364 0.187903)
(-0.192361 0.237033 0.164751)
(-0.307424 0.264863 0.248395)
(-0.308867 0.415913 0.136443)
(-0.220653 0.357156 0.0924941)
(-0.250916 0.256082 0.091026)
(-0.379592 0.296498 0.128849)
(-0.371219 0.426358 0.0426635)
(-0.239826 0.357476 0.0216948)
(-0.307597 0.267057 0.0122411)
(-0.392384 0.301089 0.0260038)
(0.0330307 0.0837413 0.199291)
(0.0364862 0.0744281 0.0829709)
(0.0415911 0.0618749 0.0243606)
(-0.000381495 0.373771 0.233925)
(0.0126003 0.198112 0.0600243)
(0.0144688 0.161752 0.0158949)
(0.12135 0.080377 0.199353)
(0.132535 0.080487 0.0887597)
(0.133847 0.0718239 0.0271555)
(0.0062072 0.401227 0.232009)
(0.0362924 0.23249 0.0620792)
(0.0371214 0.197197 0.0172123)
(0.152276 0.109329 0.182051)
(0.175219 0.124366 0.0860258)
(0.181937 0.128221 0.0221489)
(-0.0318706 0.437054 0.225709)
(0.0346982 0.288481 0.0625933)
(0.0485434 0.257731 0.0145795)
(0.0538085 0.771614 0.18069)
(0.0468591 0.735774 0.0898325)
(0.0349301 0.706791 0.0190715)
(0.159852 0.539026 0.17108)
(0.166102 0.534413 0.0816182)
(0.156372 0.529632 0.0186728)
(0.130826 0.401618 0.176058)
(0.151832 0.406041 0.0840866)
(0.150869 0.410006 0.0225181)
(0.161782 0.354436 0.182414)
(0.17948 0.349445 0.0853207)
(0.177255 0.343764 0.0177544)
(-0.0670636 0.4915 0.223065)
(0.0143304 0.354 0.0608278)
(0.0212926 0.321508 0.00904643)
(-0.136674 0.655512 0.231465)
(-0.0765597 0.618384 0.114692)
(-0.0389359 0.591166 0.0297366)
(0.0445317 0.500121 0.217097)
(0.0948286 0.47769 0.107526)
(0.121713 0.46371 0.0290237)
(0.0407477 0.426764 0.205656)
(0.106616 0.406359 0.101509)
(0.135481 0.392938 0.0293915)
(0.0149043 0.422871 0.203826)
(0.0876473 0.38249 0.0864376)
(0.10888 0.357271 0.0209533)
(-0.110842 0.595495 0.24074)
(0.0214198 0.398737 0.0561768)
(0.0375847 0.360604 0.0135869)
(0.000803486 0.179692 0.0751967)
(0.00165003 0.112486 0.0273063)
(0.00237852 0.0851756 0.00532409)
(0.00366871 0.081148 -0.00898334)
(0.0110002 0.205743 0.0312038)
(0.00653368 0.124261 0.0119968)
(0.00561556 0.0906659 0.00322838)
(0.00567587 0.0830919 -0.00183525)
(-0.000602578 0.180233 0.0797909)
(0.00319339 0.112009 0.0300201)
(0.00800497 0.0852741 0.00767222)
(0.012962 0.0818211 -0.00558209)
(0.0176936 0.210403 0.0395808)
(0.0120506 0.126932 0.0167176)
(0.0137592 0.0923161 0.00793829)
(0.0154813 0.0837263 0.00371646)
(-0.0110655 0.178721 0.085958)
(0.00104336 0.1099 0.0335328)
(0.0113059 0.0845266 0.0116207)
(0.0228861 0.0806261 -0.000434794)
(0.00566893 0.214434 0.0679398)
(0.00980217 0.12823 0.0323861)
(0.0133843 0.0935275 0.0131875)
(0.0157935 0.0825746 0.00331314)
(0.00104845 0.232464 0.0518146)
(0.00596854 0.137041 0.0300702)
(0.00673536 0.0968762 0.0119398)
(0.00682762 0.0874022 0.000306535)
(-0.00944919 0.239986 0.0491402)
(-0.00027676 0.142997 0.0332205)
(0.00536134 0.100726 0.0204158)
(0.00943445 0.0914126 0.0126465)
(-0.0420992 0.191552 0.0715278)
(-0.00871097 0.117729 0.0322586)
(0.00495913 0.0877868 0.0104176)
(0.0146496 0.0812333 -0.00746471)
(-0.0657836 0.147758 0.0617464)
(-0.0153604 0.0984551 0.0273855)
(0.000992025 0.0784579 0.0122124)
(0.0246978 0.0780858 -0.00776288)
(-0.0300888 0.163881 0.0847798)
(-0.00387243 0.104115 0.0332148)
(0.00829897 0.0805244 0.0107094)
(0.0208865 0.0745902 -0.00578491)
(-0.0544322 0.133067 0.0770824)
(-0.0117642 0.0914477 0.0302789)
(0.000250241 0.0747518 0.0120663)
(0.0217525 0.0745485 -0.01299)
(-0.0444617 0.209907 0.057498)
(-0.0103172 0.127925 0.030252)
(0.0058573 0.0930694 0.0127691)
(0.0180681 0.0857029 -0.00210777)
(-0.0735059 0.156388 0.0475242)
(-0.0182089 0.103559 0.0244031)
(0.000925769 0.0808807 0.0133642)
(0.0289535 0.0809433 0.000342031)
(-0.0493705 0.220137 0.0427363)
(-0.0136215 0.13474 0.0269577)
(0.00518904 0.0966806 0.0166851)
(0.0213063 0.0886436 0.0106486)
(-0.0790401 0.159923 0.0328506)
(-0.0208127 0.107132 0.0208377)
(-2.17804e-05 0.0827507 0.0143375)
(0.030285 0.0823029 0.00878805)
(-5.94349e-05 0.128223 0.096564)
(0.000920687 0.0928075 0.033013)
(0.00203029 0.0758426 0.00511798)
(0.00455288 0.0764867 -0.0178204)
(0.00117713 0.0697618 0.0969315)
(0.00129235 0.0687273 0.0305875)
(0.00129672 0.0643391 0.00694678)
(0.00419078 0.071639 -0.0245423)
(0.00191603 0.127964 0.0965228)
(0.00322597 0.0918907 0.0335444)
(0.00616706 0.0754981 0.00606429)
(0.0122188 0.0762005 -0.0169127)
(0.00595349 0.073744 0.0939337)
(0.00445755 0.0697808 0.0297869)
(0.00394057 0.064737 0.00731613)
(0.0113129 0.0720487 -0.0237499)
(-0.0190963 0.130668 0.0947898)
(-0.00245759 0.0912159 0.0337588)
(0.00686993 0.0753274 0.00924075)
(0.0209559 0.0761923 -0.0121487)
(-0.0097423 0.087046 0.0876203)
(0.00089481 0.0736487 0.0282351)
(0.00530142 0.0662198 0.00911546)
(0.019994 0.0739482 -0.0195202)
(-0.0055612 0.126921 0.0830215)
(0.00475745 0.0874479 0.0312345)
(0.0100892 0.0729895 0.0129006)
(0.020881 0.0773952 -0.0019193)
(-0.00268936 0.098174 0.0960685)
(0.00380155 0.0761076 0.0316754)
(0.00464932 0.0678703 0.0130065)
(0.0201726 0.073086 -0.0228664)
(-0.0474334 0.113205 0.0747059)
(-0.00912937 0.083197 0.028082)
(0.00190902 0.0704162 0.0130893)
(0.0281499 0.0732305 -0.00533523)
(0.00331486 0.0072469 0.0778544)
(0.00187649 0.0487685 0.0216753)
(0.00147128 0.0487349 0.00628619)
(0.00313993 0.0145154 -0.0167665)
(0.006798 -0.0668305 0.03124)
(0.0027978 0.0372871 0.00789878)
(0.0015248 0.0419101 0.00180827)
(0.00145828 0.015837 -0.00354027)
(0.00650198 0.017658 0.0800683)
(0.00442959 0.0521389 0.0231041)
(0.00335965 0.049976 0.00714137)
(0.00815536 0.0154064 -0.0159567)
(0.0172371 -0.053065 0.0324064)
(0.00742481 0.0411163 0.00852609)
(0.00389723 0.0430378 0.00234511)
(0.00377824 0.0162136 -0.00291548)
(0.00276574 0.0370331 0.0809863)
(0.00483789 0.0580664 0.0247056)
(0.00471511 0.052065 0.00897717)
(0.0134501 0.0153927 -0.0140129)
(0.0213866 -0.0300719 0.0327434)
(0.0103969 0.0475137 0.00923006)
(0.00587791 0.0448106 0.00308029)
(0.0059676 0.0164641 -0.00212612)
(-0.00629342 0.0603192 0.0728556)
(0.00427098 0.0649371 0.0233274)
(0.00592668 0.0546803 0.0103735)
(0.0186507 0.016826 -0.0110865)
(0.0158138 -0.00640157 0.0316219)
(0.011162 0.054419 0.00952975)
(0.00701373 0.0471681 0.00422189)
(0.00761444 0.0172477 -0.000734814)
(-0.0259941 0.0747201 0.0665514)
(0.000152999 0.0709561 0.0232423)
(0.00362402 0.0578514 0.0115413)
(0.0181296 0.019968 -0.00646326)
(0.0028282 -0.00239041 0.0280742)
(0.00955465 0.0593169 0.0100383)
(0.00663384 0.0493218 0.00580295)
(0.00789245 0.0179263 0.00119188)
(-0.0551184 0.080033 0.0466753)
(-0.00568906 0.0771461 0.0189994)
(0.00322378 0.0595295 0.00946636)
(0.0210577 0.0188277 -0.00172818)
(-0.0184521 -0.0206665 0.0263085)
(0.00229914 0.063693 0.0132411)
(0.00437892 0.0531231 0.00831262)
(0.00746877 0.0190835 0.00457385)
(-0.0433754 0.0779624 0.0538943)
(-0.00201259 0.0744032 0.019179)
(0.00372583 0.0582978 0.00922014)
(0.0196832 0.0188519 -0.00454022)
(-0.0120694 -0.0214247 0.0265209)
(0.00551274 0.0616369 0.011428)
(0.00571383 0.0512528 0.00705535)
(0.00803372 0.0184055 0.00289269)
(-0.0659511 0.0801473 0.0376143)
(-0.010278 0.0790834 0.0185271)
(0.00162131 0.0608241 0.0106436)
(0.0228043 0.0174239 0.00193044)
(-0.0243344 -0.0243384 0.0237203)
(-0.000918992 0.0655163 0.014094)
(0.00289337 0.0545405 0.00934568)
(0.00698161 0.0192419 0.00620848)
(-0.074067 0.0822268 0.0265965)
(-0.0149069 0.0812245 0.0169685)
(-0.000638386 0.0627758 0.011964)
(0.0225112 0.0179116 0.00772125)
(-0.0298698 -0.0200322 0.0199324)
(-0.00451217 0.0677386 0.0141897)
(0.000924441 0.0562305 0.0103351)
(0.00602522 0.0197929 0.00804661)
(0.00164969 0.0814888 -0.000779496)
(0.000763245 0.0652969 0.00039074)
(0.000414944 0.046769 0.000397486)
(0.00025771 0.0279727 0.000288407)
(0.00019429 0.0092992 0.000226763)
(0.00218846 0.0805329 -0.000104974)
(0.00117909 0.0651636 0.000258632)
(0.00068352 0.0468025 0.000223854)
(0.000434983 0.0280081 0.000159551)
(0.000330023 0.00931153 0.000125524)
(0.00393524 0.0824728 0.000486604)
(0.00177773 0.065791 0.00108404)
(0.000964281 0.0470187 0.000805173)
(0.000602112 0.0280921 0.000551324)
(0.000457288 0.00933449 0.000427123)
(0.0049702 0.0816918 0.00126946)
(0.00264542 0.065797 0.00104806)
(0.00153454 0.0471382 0.000695354)
(0.000981129 0.0281721 0.000463793)
(0.000746702 0.0093606 0.000356906)
(0.00521227 0.0842767 0.00189194)
(0.00222599 0.0664985 0.00193286)
(0.00119259 0.0473441 0.00132283)
(0.000743946 0.0282434 0.000893012)
(0.000566444 0.00937898 0.000690203)
(0.00670094 0.0830951 0.0051852)
(0.00351161 0.066561 0.00354571)
(0.00204111 0.047536 0.00225255)
(0.00131184 0.0283665 0.00148924)
(0.00100172 0.00941921 0.00114337)
(0.00353155 0.0844711 0.00626524)
(0.00180371 0.0674491 0.00419855)
(0.00104357 0.0480649 0.0026633)
(0.000671847 0.0286398 0.00176404)
(0.000513302 0.00950336 0.001358)
(0.00247502 0.0864952 0.00907622)
(0.00104836 0.0687397 0.00556549)
(0.00055696 0.0488254 0.00343462)
(0.000349005 0.0290323 0.00225632)
(0.000264168 0.0096242 0.0017348)
(0.0052762 0.0861786 0.00334765)
(0.00228275 0.0673588 0.00282734)
(0.00124332 0.0478158 0.00186995)
(0.000783286 0.0284801 0.00125077)
(0.000594098 0.0094512 0.000960864)
(0.00250815 0.0920809 0.00355087)
(0.000931541 0.0684233 0.00266113)
(0.000478949 0.048124 0.00172291)
(0.000295712 0.0285979 0.00114971)
(0.000222766 0.00948401 0.000883607)
(0.00556562 0.0865502 0.00230146)
(0.00266267 0.067135 0.00225939)
(0.00151538 0.0475864 0.00152285)
(0.000968649 0.0283478 0.00102761)
(0.000738871 0.00940886 0.000793142)
(0.00236726 0.0919252 0.00414305)
(0.000927348 0.0680369 0.00274341)
(0.000491076 0.0478706 0.00172077)
(0.000305434 0.028464 0.00114108)
(0.000229795 0.00944208 0.000874653)
(0.00403915 0.0870306 0.00435887)
(0.00148499 0.0681442 0.00338231)
(0.000751382 0.0482912 0.00221054)
(0.000462645 0.0287273 0.00147599)
(0.000348972 0.00952774 0.00113672)
(0.0023711 0.0937664 0.00473718)
(0.000830784 0.0691844 0.00318738)
(0.000418776 0.0485568 0.00202134)
(0.000258314 0.028821 0.00134134)
(0.000194915 0.00955317 0.00103128)
(0.0034623 0.0889701 0.00721974)
(0.000936784 0.0693936 0.00448512)
(0.000382707 0.0490064 0.00277376)
(0.000216018 0.0290934 0.00182315)
(0.000157363 0.00964049 0.00140098)
(0.00190819 0.0958234 0.00602857)
(0.000440649 0.0702969 0.00370227)
(0.000164217 0.0491761 0.00228588)
(8.90745e-05 0.0291375 0.0015021)
(6.3742e-05 0.00965105 0.00115232)
(0.00136996 0.083791 -0.0014695)
(0.000574746 0.0656188 0.000210192)
(0.00030167 0.0467662 0.000295756)
(0.000183863 0.0279442 0.000221571)
(0.000137583 0.00928837 0.000175565)
(0.000990281 0.0881842 -0.000806422)
(0.000456645 0.0659764 6.88815e-05)
(0.00025035 0.0467755 0.000116237)
(0.000154603 0.0279278 8.883e-05)
(0.00011607 0.00928188 7.1331e-05)
(0.00334761 0.0847051 -0.000640396)
(0.0014466 0.0660078 0.000644627)
(0.000778087 0.0469517 0.000548069)
(0.000480623 0.0280307 0.000384322)
(0.000362587 0.00931356 0.000300784)
(0.00255923 0.0889054 -0.000510282)
(0.00120624 0.0662683 0.000222904)
(0.000672409 0.0469169 0.000204292)
(0.00041882 0.0279942 0.000144782)
(0.000315447 0.00930136 0.000114537)
(0.00468634 0.0865488 0.000402887)
(0.001781 0.0666605 0.00114847)
(0.000919695 0.047245 0.00083402)
(0.000560386 0.0281667 0.000570757)
(0.000421628 0.00935318 0.000445622)
(0.00348562 0.0904936 0.000602354)
(0.00166886 0.0667997 0.000733665)
(0.000939867 0.0471696 0.000489115)
(0.000587378 0.0281137 0.000324848)
(0.000445366 0.0093363 0.000252799)
(0.00426411 0.0896304 0.00271145)
(0.00205109 0.0674176 0.00221883)
(0.00117448 0.0475426 0.00144388)
(0.000748134 0.0283 0.00096964)
(0.000571511 0.00939168 0.000752357)
(0.00238585 0.092393 0.00179686)
(0.00127603 0.0673741 0.00139884)
(0.000741886 0.0474596 0.00089153)
(0.00046918 0.0282524 0.000594431)
(0.000359054 0.00937641 0.000461505)
(0.00222314 0.0925807 0.00496061)
(0.00112958 0.0678096 0.00290017)
(0.000660638 0.047712 0.00176641)
(0.000424916 0.0283796 0.00116033)
(0.000324576 0.00941524 0.000889864)
(-0.0142964 0.356627 0.0604814)
(-0.0187552 0.545392 0.138472)
(-0.032768 0.375928 0.0605744)
(-0.0461147 0.558515 0.136753)
(-0.0355969 0.404929 0.0655903)
(-0.0581207 0.576417 0.135308)
(-0.0161791 0.426484 0.0782718)
(-0.0483731 0.589686 0.140859)
(0.00900018 0.413084 0.0820974)
(-0.012657 0.571386 0.145868)
(-0.0307541 0.38841 0.0323256)
(-0.049474 0.436571 0.0513618)
(0.00291757 0.38686 0.0538329)
(4.86492e-05 0.453955 0.0871224)
(-0.0454433 0.391784 0.0168225)
(-0.0709407 0.434782 0.0247695)
(-0.0564979 0.399211 0.00572166)
(-0.0802917 0.441055 0.00801727)
(-0.0232505 0.314295 0.317526)
(-0.00537099 0.0536748 0.0756627)
(-0.00120532 0.0114285 0.0172943)
(-0.000265293 0.00255398 0.00385171)
(-6.62884e-05 0.000450921 0.000953677)
(-0.00827043 0.349056 0.0863288)
(-0.00356588 0.0991482 0.0232109)
(-0.000510654 0.0240027 0.00616254)
(-0.000133138 0.00542742 0.00139777)
(-5.66851e-05 0.000957982 0.000302664)
(-0.0714447 0.318701 0.314637)
(-0.0164347 0.0534169 0.0743445)
(-0.00370088 0.0112855 0.0169729)
(-0.000810566 0.00251161 0.00374773)
(-0.000202794 0.00044216 0.000934666)
(-0.019909 0.35351 0.087809)
(-0.00525463 0.0990399 0.025887)
(-0.00125878 0.0238732 0.00636754)
(-0.000263229 0.00537077 0.00147677)
(-6.99646e-05 0.000939653 0.000365616)
(-0.120334 0.323858 0.301971)
(-0.0277424 0.0534963 0.0708222)
(-0.00626312 0.0111984 0.0161017)
(-0.00137602 0.0024801 0.0035497)
(-0.000343476 0.000435554 0.000886084)
(-0.0313674 0.358275 0.0852287)
(-0.00883608 0.0991943 0.0250511)
(-0.00211666 0.0237649 0.00614651)
(-0.000485731 0.00532399 0.00141849)
(-0.000121006 0.000929799 0.000352446)
(-0.162122 0.323673 0.278477)
(-0.0374904 0.0522914 0.0647003)
(-0.00849699 0.0108412 0.014659)
(-0.00187208 0.00239366 0.00322773)
(-0.000467767 0.000419957 0.000805703)
(-0.0363978 0.356867 0.082997)
(-0.0110806 0.0978096 0.0238894)
(-0.00274119 0.023334 0.00578473)
(-0.000636734 0.00521619 0.00132301)
(-0.000158433 0.000909749 0.00032689)
(-0.203542 0.309842 0.235076)
(-0.0475377 0.0487955 0.0543136)
(-0.0108473 0.0100912 0.0123079)
(-0.00240146 0.00223399 0.00271293)
(-0.000602428 0.000392721 0.000677881)
(-0.0399712 0.340712 0.0787887)
(-0.0133898 0.093515 0.0220577)
(-0.00341377 0.0223739 0.00528111)
(-0.000804092 0.00501422 0.00119995)
(-0.000202489 0.000875639 0.00029552)
(-0.243409 0.28017 0.112767)
(-0.0586245 0.0458859 0.0272397)
(-0.0135618 0.00979768 0.00627569)
(-0.00302714 0.00220385 0.00139271)
(-0.000762538 0.000390304 0.000348362)
(-0.0603613 0.286552 0.0384822)
(-0.0183893 0.0824212 0.0109465)
(-0.00452328 0.0202307 0.0025981)
(-0.00103451 0.00460677 0.000579698)
(-0.000257898 0.000811888 0.00014234)
(-0.225736 0.288395 0.167031)
(-0.0541506 0.0464668 0.0397794)
(-0.0124709 0.00980353 0.00909546)
(-0.00277229 0.00219131 0.00200905)
(-0.000696231 0.000386837 0.000501858)
(-0.047585 0.301377 0.056662)
(-0.0156909 0.0865103 0.0159113)
(-0.00396858 0.0210488 0.00381076)
(-0.000924556 0.00475558 0.000865255)
(-0.000230674 0.000833768 0.000214492)
(-0.25178 0.277372 0.0664244)
(-0.060759 0.0458749 0.0161761)
(-0.0140845 0.00984325 0.00374371)
(-0.00314886 0.00221971 0.000834729)
(-0.000794382 0.000393517 0.000209139)
(-0.0679664 0.282178 0.0214459)
(-0.0200871 0.0807318 0.00635179)
(-0.00487283 0.0198384 0.00149668)
(-0.00109961 0.00453212 0.000333551)
(-0.000273507 0.000800986 8.26387e-05)
(-0.262839 0.276907 0.0229199)
(-0.0629126 0.0456204 0.00554692)
(-0.0146065 0.00978326 0.00128604)
(-0.00326439 0.00220748 0.000287565)
(-0.000823092 0.000391053 7.20453e-05)
(-0.0703165 0.283206 0.00853696)
(-0.0208687 0.0804753 0.00227759)
(-0.00511006 0.0197296 0.000492735)
(-0.00107141 0.00451868 0.000139335)
(-0.000282078 0.000797395 2.64409e-05)
(-0.020758 1.30778 0.00628119)
(-0.270491 1.84922 0.0206135)
(-0.24697 1.80801 0.178427)
(-0.0893177 1.27015 -0.0322149)
(0.0636143 0.75083 0.029553)
(0.109019 0.789326 0.0316726)
(0.304565 1.1073 0.0923161)
(0.445472 1.15472 0.118156)
(0.066958 0.864242 0.0740483)
(0.326318 0.966946 0.139223)
(-0.0630403 1.3724 0.116539)
(0.102113 1.86784 0.179891)
(0.0980322 1.73306 0.140311)
(0.193088 2.29178 0.17419)
(0.363194 1.13278 0.0729716)
(0.514138 1.28927 0.0983575)
(0.550427 0.89056 0.0780823)
(0.690553 0.950064 0.0926045)
(0.224594 0.483867 0.0406349)
(0.290875 0.53002 0.042249)
(-0.787491 0.198063 0.0913549)
(-0.571532 0.132859 0.0672483)