/*--------------------------------*- C++ -*----------------------------------*\
| =========                 |                                                 |
| \\      /  F ield         | OpenFOAM: The Open Source CFD Toolbox           |
|  \\    /   O peration     | Version:  2306                                  |
|   \\  /    A nd           | Website:  www.openfoam.com                      |
|    \\/     M anipulation  |                                                 |
\*---------------------------------------------------------------------------*/
FoamFile
{
    version     2.0;
    format      ascii;
    arch        "LSB;label=32;scalar=64";
    class       volScalarField;
    location    "1";
    object      gradTy;
}
// * * * * * * * * * * * * * * * * * * * * * * * * * * * * * * * * * * * * * //

dimensions      [0 -1 0 1 0 0 0];

internalField   nonuniform List<scalar> 
5712
(
13029.5
7519.62
20964.9
13838.4
22962.7
17080.9
35670
44768.7
47076
58173.7
30623.6
26767.4
19422.1
15516.4
9809.55
6653.32
21377.7
21414.3
18620.9
21628.8
28832.4
25224.5
33787.4
26804.4
9055.78
6386.38
5139.78
3858.35
10680
8653.5
6591.64
5429.49
20351.1
20709.8
20356.5
16506
15361.9
12415.4
12346.2
14162.6
19827
19882.9
42362.2
43990.2
29446.4
30542.9
17549.1
14805.3
18688.6
13237.3
8701.95
9061.67
7485.94
11379.2
3942.2
5009.92
10194.5
15040.8
6156.92
7462.69
11049.1
20108.6
7760.85
13322
2912.42
7839.58
2433.26
5823
18642.4
23218.3
19678.6
23387.1
22582.1
22634.1
23438.9
22614.6
17078.5
23409.2
17167.1
22933.9
19586.4
23387.8
19697.9
23427
23903.1
22493.1
23966.3
22367.6
15919.5
23615.9
15454.4
23771.3
20358
24824.5
25698.1
37239
21609.5
29138.2
25503.9
41029.6
19292
21648.2
25776.2
35540
19117.5
20189.8
26074
35197.3
6962.66
9383.04
17994.7
32539.2
8424.74
9803.68
22697.5
36213.7
10154.3
10328.9
28107.6
39149.8
26024.1
26762.7
23114.3
23373.1
36281.4
26637.2
26048.6
23418.3
21057.8
42237.5
24416.8
24887.1
23108.7
24423.1
47160.2
2549.81
3101.29
5656.85
13879.5
3553.69
4138.7
7529.44
15004.3
5109.81
4356.72
9900.75
16460.9
25661.3
24138.5
23847.8
22229.8
21624.6
18610.7
16879
14363.3
12656.9
18603.1
23706.9
21910.5
24679.4
23329.2
22331.1
20182.6
19373.5
16967
13314.5
18311.8
24917.7
27732.9
24994.8
28651.8
23400.8
23782.5
23020
24251.6
23485.2
23734.5
23251.2
22950.5
24866.9
28869.8
24831.2
28934.6
22446.9
24706.9
22334.5
24735.5
23579.4
23680.5
23629.4
23714
20393
19323.6
13358.4
15143.3
20316.3
18900.7
13212.2
15456.5
20630
19211.3
13626.2
15092.3
20720.4
19010.6
14047.9
15063.7
1926.1
1162.03
735.668
1036.87
610.18
550.537
2730.5
1389.34
953.692
1969.44
1434.51
1128.1
2942.37
2054.43
1894.95
3386.42
2496.49
2104.04
21373.5
17554.8
15149.2
20225.8
17157.8
15057.9
14878.6
12599.6
11322.6
10713.4
8277.43
7190.46
5230.38
3375.73
2646.21
19719.3
16525.4
14245.8
20987.2
17275.8
14761.5
16147.3
12361
10306.8
10932
7678.19
6322.7
5512.72
3313.09
2440.06
28554.1
27476.9
31519.2
27810.1
32585.7
27867.4
39947
29766
21577.1
21313.7
21446.8
19456.9
24299.8
22306.2
24080.8
20116.9
23810.1
23312.1
21872.3
23045.1
28287.2
25811.4
29598.2
30242.2
32687.1
34034
24309.9
25412.4
21782.7
21244.6
26048.8
26857.2
16179.8
8633.09
15276.6
9559.37
16491.3
8707.75
15301.3
9497.26
16336.5
8737.33
15355.1
9908.55
15029.8
10370.8
15259.8
10256.5
21487
17894.7
21688.7
18068.6
24104.9
21394.4
24728.3
21418.4
20912.1
14695.3
21498.1
14342.6
22402
18099.4
22796.3
17926.6
25641.1
21390.8
25791.2
21175.3
20904.2
14821.9
20924.8
14738.4
13349.4
8732.85
11359.6
7362.02
12258.8
7784.67
10808.7
6865.53
13781.7
9288.86
11594.5
7590.93
13835.2
9596.56
11563.7
7633.4
2499.95
1288.95
4613.9
2612.3
2645.62
1546.29
4892.19
3053.21
3216.99
2288.18
5383.11
3884.65
12468.8
19918.1
8886.59
8474.12
6150.84
19203.4
12933.1
7363.77
7395.26
5046.36
20395.7
15624.4
12133.7
9283.96
5995.16
674.772
447.195
1607.08
1196.87
905.634
558.591
2101.76
1625.49
1524.65
1030.91
2897.6
2278.99
18992.7
17410.3
12368.1
11083.1
7732.77
7170.97
6429.57
5324.62
4241.13
3327.8
18126.1
15633.9
13555.8
11095.7
10211.4
8300.06
7615.7
6191.19
5175.7
4610.26
14234.7
10676.5
14513.4
10651.3
17734
14024.9
17938.6
14154.6
11700.7
8696.83
11217.5
8544.03
14637.1
10617.1
14573.2
10623.9
17997.9
14599.2
17875
14607.8
11993.2
8661.15
11975.8
8770.67
8870.7
6788.88
6074.78
5720.98
8459.95
6517.06
5788.61
5343.8
9284.1
6972.29
6241.51
6045.01
9484.92
6970.37
6474.36
6124.68
996.354
828.25
659.026
4246.09
2157.78
1695.7
979.551
917.186
782.005
4708.6
2599.88
2115.95
1406.49
1482.13
1451.25
5382.05
3338.56
2842.51
15028
12769.4
11375.4
9623.28
8422.94
7750.94
6563.85
5839.37
5496.96
5200.67
4565.88
4207.13
6344.77
4225.96
3625.95
13084.3
10808.3
9418.45
9046.76
7475.3
6625.98
6966.04
5733.89
5101.15
6169.88
4922.29
4260.22
7898.98
4815.77
4054.25
4552.72
2542.63
1467.77
862.839
5101.09
2753.74
1546.8
890.041
4579.51
2545.62
1472.69
867.172
5207.65
2813.36
1589.43
914.656
4581.77
2531.37
1504.83
891.736
5319.97
2854.58
1657.93
955.956
5709.11
3009
1653.84
941.634
5847.56
3107.51
1679.28
954.529
4866.48
2694.87
1580.63
919.806
4091.39
2409.37
1467.65
873.672
4310.47
2459.76
1493.46
883.067
3801.03
2282.24
1415.15
847.985
5234.99
2868.42
1632.34
938.534
4263.4
2499.61
1497.82
891.007
5430.43
2980.86
1671.38
960.94
4335.9
2561.42
1527.16
910.696
3485.49
2198.92
1352.56
823.492
2419.44
1804.35
1213.2
770.522
3504.16
2195.4
1355.8
824.738
2519
1832.03
1222.65
775.512
3601.73
2206.43
1379.71
840.679
2805.76
1915.67
1255.83
793.747
3591.27
2173.08
1372.35
862.441
3061.43
1980.02
1303.64
805.153
3413.29
2131.74
1355.33
836.049
1464.14
1499.73
989.115
298.59
529.101
1339.22
905.778
298
1644.64
1560.9
1014.79
314.3
724.894
1404.85
927.194
304.845
1995.74
1671.74
1049.37
314.666
1074.84
1518.85
957.058
309.161
2445.68
1809.62
1110.15
341.518
1481.15
1652.07
1003.18
323.503
2783.57
1943.69
1186.69
391.64
1672.74
1764.37
1047.28
336.446
3020.1
2100.7
1219.72
379.303
1628.49
1907.38
1130.62
359.792
2927.12
2033.03
1197.25
378
1549.36
1843.02
1088.53
346.476
3065.45
2145.65
1226
357.737
1633.01
1957.51
1153.02
361.841
3126.61
2187.35
1251
363.066
1719.31
2002.18
1178.78
369.091
549.883
330.773
183.997
90.378
26.9162
547.376
330.594
184.239
90.5359
26.9639
557.357
334.35
185.42
90.9268
27.06
558.768
335.127
186.088
91.2675
27.1578
573.99
339.259
187.204
91.6038
27.2372
574.184
340.173
188.169
92.1018
27.3807
579.151
345.511
190.8
93.2268
27.688
591.236
352.613
194.304
94.7486
28.1078
590.137
344.987
189.673
92.6137
27.5089
623.693
351.239
191.323
93.1448
27.64
592.488
343.353
188.514
92.0716
27.3571
622.619
348.832
190.049
92.5925
27.4882
594.271
349.593
191.999
93.6179
27.7844
634.993
355.673
193.406
94.0388
27.8855
608.278
356.555
195.283
95.0298
28.173
649.746
361.897
196.23
95.2468
28.2182
560.57
331.949
183.896
90.2462
26.8734
582.644
333.499
183.886
90.1696
26.8476
567.923
334.818
184.986
90.6566
26.9798
588.853
335.736
184.737
90.4898
26.9305
583.396
339.562
186.663
91.2854
27.1433
602.509
339.812
186.224
91.0526
27.077
605.38
344.663
188.31
91.89
27.3001
618.65
344.125
187.863
91.6883
27.2442
625.344
347.255
189.217
92.2367
27.3908
13883
21679.7
14295.4
21755.3
14826
21731.9
14952.6
21442.8
13881.5
20045.7
12262.7
13929.2
12473.2
14974.8
12230
13628
12409.7
13723.6
12496.4
2157.1
466.054
105.83
18.938
13946.6
3998.71
980.338
224.994
40.2354
12470.8
2118.39
455.196
103.106
18.416
13884
3941.15
964.229
220.526
39.1356
12311.1
2068.94
442.112
99.937
17.8388
13676.1
3855.36
940.695
214.801
38.1171
11864.8
1956.8
415.711
93.9837
16.7962
13174.8
3692.05
900.033
205.649
36.516
10920.2
1757.6
373.612
84.9561
15.248
12161.4
3422.09
838.817
192.61
34.3059
9246.34
1550.64
341.614
79.2732
14.3843
9475.89
2815.86
712.033
166.97
30.1317
9774.42
1612.03
350.548
80.7098
14.578
10303.5
3052.41
763.581
177.268
31.7668
9013
1526.36
337.945
78.6675
14.2991
9145.44
2699.84
683.714
161.021
29.1728
8937.4
1507.32
333.474
77.677
14.1118
9096.91
2665.2
673.244
158.975
28.7708
36510.3
52862.4
51424.8
35221.7
20163.5
21326.4
29847.6
31438.9
23770.4
26918.7
38301.9
52957.1
48655.7
65118.4
31524.2
36232.3
24478.7
26344.4
13181.5
14529.8
4615.71
2860.32
434.698
286.587
323.714
269.748
370.265
4224.87
3848.39
2200.98
2933.45
2599.48
1039.98
1570.7
1296.62
787.941
929.251
714.956
3891.36
1798.86
929.572
804.29
1147.4
961.972
688.447
605.197
511.315
430.437
674.832
596.98
4215.12
2335.71
2738.81
1549.68
1173.17
1838.09
693.322
464.897
786.023
8997.82
8339.43
7767.77
7933.04
11923.1
6063.49
6404.17
6413.22
6639.97
7336.59
1116.43
1533.73
1810.49
1976.11
2055.08
745.609
1044.4
1253.64
1382.95
1444.38
841.921
1178.06
1411.4
1553.48
1619.91
703.823
990.003
1192.32
1317.74
1377.11
958.173
1330.7
1584.2
1736.92
1808.45
8526.5
8138.75
7372.65
7142.48
10341
7758.91
7269.11
6459.61
6100.84
6642.28
4855
5344.12
5330.94
5313.88
5505.33
6052.28
5892.58
5299.09
4912.82
4841.6
5365.42
5287.4
4768.65
4362.06
4201.3
2506.01
3127.83
3400.8
3514.07
3570.04
3594.3
4160.48
4270.66
4266.98
4295.16
3017.18
3574.54
3718.58
3715.86
3702.63
1950.4
2530.68
2835.58
2980.24
3041.68
2255.89
2843.68
3108.66
3210.28
3246.93
1784.79
2343.65
2649.48
2797.23
2857.37
8000.11
7881.08
7339.73
7298.44
10662.4
4101.64
4753.22
4945.02
5071.62
5313.4
2276.15
2910.06
3230.76
3390.81
3475.26
1993.98
2598.54
2934.33
3116.42
3211.17
2753.39
3427.6
3744.6
3917.98
4047.85
2358.14
3026.4
3384.71
3588.12
3710.21
1728.12
2296.31
2639.98
2840.43
2943.88
1533.04
2061.68
2388.02
2573.93
2662.68
1307.18
1780.32
2079.69
2247.35
2322.12
1108.34
1526.83
1803.16
1964.61
2038.63
1694.63
2247.4
2567.5
2736.62
2813.31
1511.86
2031.59
2349.39
2526.7
2609.22
8413.25
8047.22
7548.07
7668.67
11406.9
5109.86
5637.8
5780.97
6013.18
6530.61
6102.39
6629.45
6541.53
6697.12
7724
3624.17
4370.85
4707.59
4946.49
5198.82
2828.76
3551.02
3917.19
4139.68
4302.76
4197.42
4888.35
5123.77
5305.73
5608.27
1740.18
2310.55
2651.98
2847.45
2946.42
1191.72
1631.42
1917.92
2085.56
2163.9
1954.39
2559
2903.47
3096.18
3197.6
20838.8
13964.3
21367.2
15421.6
27321.6
40068.8
28742.2
40025
21817.8
22812.5
18861.7
22238
24261.9
22716.4
31642.3
25352.8
16431.3
15912.3
8049.09
7093.75
17803.6
16755.9
9189.64
7696.34
22217.7
23810.1
22420.8
20161.7
23270.2
15273
12339.7
14215.4
20050.1
19963.3
42357.3
44094.3
28958
30449.4
18542.7
15043.3
19866.6
13478.4
9707.88
9323.29
17290.9
19508.7
7190.9
7985.3
18844
22005
8892.53
9994.23
17662.7
25482.4
10196.5
16135.7
3496.59
8833.33
2556.41
6023.35
19988.5
22641.2
19962.9
23089.7
21148.5
21245.6
22521.2
21877.4
18749
23649.6
21359.6
23333.7
19626.1
23240.4
19692.7
23380
23467
22133.8
23845.6
22258.9
16521.3
23733.7
15586.1
23802.9
21789.1
26582.3
26319.2
37926.4
23888.5
31888.1
26554.1
42134.2
19993.3
22544.8
26091.6
35917
19312.5
20450
26165.1
35316.6
23842.5
25639
30657.5
46165.7
23736.9
24102.7
32682.8
46570.5
23003.5
22423.3
34908.8
45746.6
20148
20301.2
22422.2
24922.1
39371.8
19372.3
18673.9
23751.6
22501.4
45460.9
20213.1
21818.5
22523.6
25679.2
48622.7
13058.1
11640.6
12872.8
17326.9
14347.4
12824.2
13283.7
17690.9
15903.3
13399.8
13804.6
17905.8
18411
17106.1
17828.9
16787.1
21649.1
19541.9
18388.5
16142.7
14361.4
18539.6
19571.8
18728
21460.7
21024.9
21412.6
19686.2
20226.8
17690
14045.6
17758.2
23538.7
26203.6
24377.7
27883.5
21533
22084
22175.2
23441.4
23312.3
23417
22863.5
22406.1
24586.7
28526
24750
28837.3
22068.8
24329.6
22225.2
24628.1
23494.8
23536.2
23602.2
23673.3
20562.6
19336.7
13590.9
15218.4
20655.2
18979.2
13670.7
15526.5
20708.1
19218.7
13738.7
15143.8
20742.5
19013.3
14083.5
15081.2
10444.2
10634.2
4674.87
4232.9
11659.3
11191
5232.26
4944.28
11296.4
10358.3
5902.98
5619.9
16243
15291.8
16469.7
16158.6
17111.7
16140.9
13401.3
11606.7
7038.43
5624.28
18224.4
16910.8
20343.8
18927.1
16879.1
15056.6
12622.4
10370.4
6405.4
4539.07
23201.7
21652.3
29283.3
25005.8
26565.6
23200.2
37450.8
27501.3
20847.4
16626.5
23141.8
17742.7
20661.8
16941.1
23246.8
18051.5
21642.9
18696.3
19330.9
17562.4
21183.7
23002.9
28259.7
29851.7
31708.5
33774.8
23038.1
24994.3
20612.1
20914.8
24446.2
26322.7
13140.8
9424.35
13768.2
9709.48
13459.9
9365.06
14028.7
9601.15
13411.8
9251.49
14085.9
9866.8
14258.1
10249.6
14993.2
10205.2
17507
16599.8
19746.1
17266.8
20611.7
19444.1
22943.2
20359.2
18953.7
14308.2
17612.9
13935.6
21455.8
17674.2
22519.1
17797.4
24818
20869.5
25561.3
21020.4
19915.2
14581.6
20627.9
14662.1
12810.2
8948.95
11405.8
7609.77
11994
8560.65
11181.1
7465.82
13398.9
9320.56
11565.6
7690.16
13706.7
9593.17
11549.5
7663.09
12306.4
11948.4
8728.6
7932.96
12450.5
12092.1
8601.35
7875.15
12404.8
11663.5
8409.44
7822.32
15016.8
18290.4
15384.9
11119.8
8130.9
16820.2
15279
16455
10961.7
7793.59
18647.6
15911.8
13598.8
11061.7
7315.17
11710.9
11703.8
7579.86
7666.11
11692.2
11530
7549.44
7610.38
11023.6
10626.2
7321.75
7067.28
16276.5
14814.1
14160.3
12941.2
14033.4
13579.8
10563.8
10410.9
7172.64
6699.43
16501.5
14456.5
14210.8
12173.3
12215.6
10783.9
9990.03
9114.95
6696.41
6476.29
14009.6
11072.3
14217.3
10722.8
16626.8
13433.2
17282.4
13799.6
11762.4
9074.76
11712.8
9579.88
14442.8
10613.6
14510.6
10616.3
17669.3
14409.3
17777
14551
11953
8786.3
11951.9
8795.08
9192.15
7324.63
6423.59
6225.56
9336.77
7780.64
6545.78
6445.62
9382.78
7174.6
6388.02
6285.25
9507.28
7022.36
6519.39
6194.37
12812.1
12542.3
15680.3
13445.2
12510.1
12264.5
15081.2
12875.9
11140.6
11229.6
13909.8
11957.2
13747.1
12849.9
11921.4
11282.1
12950.2
12773.2
10959.5
10501.5
12768.2
10804.5
12763.6
11638
10729.3
10074.6
10094.1
9879.55
9926.11
9336.35
12188.4
9644.18
5620.31
3188.05
1802.25
1034.63
5829.7
3285.95
1846.85
1049.13
5544.14
3143.05
1778.25
1022.82
5802.25
3267.73
1848.49
1053.58
5406.24
3055.37
1776.98
1031.26
5773.32
3217.49
1875.53
1075.53
5952.42
3230.85
1793.67
1020.61
5924.96
3183.35
1726.36
981.705
5268.66
2985.6
1758.01
1021.21
4375.09
2621.04
1597.41
950.307
4998.26
2889.93
1734.07
1013.13
4292
2616.07
1595.8
945.03
5441.11
3037.05
1740.62
1001.96
4409.5
2617
1576.43
940.774
5491.7
3036.29
1707.9
982.752
4380.77
2599.2
1553.52
927.632
5207.71
3012.6
1736.93
1013.05
4586.53
2766.08
1648.33
976.968
5102.33
2964.45
1717.07
1001.68
4518.67
2739.28
1634.7
971.72
4961.27
2888.21
1706.03
1001.85
4478.88
2706.35
1623.05
968.467
4631.01
2742.83
1653.58
1004.6
4357.45
2648.54
1618.06
950.676
4177.49
2596.59
1586.81
950.255
3760.14
2525.02
1403.61
398.754
2579.52
2377.29
1333.77
412.056
3778.89
2524.46
1409.15
412.633
2661.29
2378.36
1334.15
414.258
3821.74
2512.5
1396.27
398.552
2778.76
2369.31
1318.87
406.374
3779.97
2482.55
1410.26
417.898
2762.15
2341.55
1311.54
408.254
3591.9
2422.66
1425.92
461.74
2424.88
2275.62
1294.41
407.146
3256.02
2293.07
1347.2
421.522
1799.38
2116.21
1253.72
398.77
3371.78
2346.66
1379.52
433.845
1921.28
2183.5
1269.43
400.663
3179.39
2249.29
1300.58
382.821
1702.88
2067.69
1222.73
384.577
3159.23
2219.96
1275.26
371.36
1736.23
2035.97
1200.93
376.421
646.311
379.191
206.673
100.063
29.5764
635.385
376.376
205.966
99.8626
29.5297
645.9
378.361
206.037
99.7393
29.4816
635.931
374.96
204.996
99.3916
29.394
654.295
377.986
205.28
99.3284
29.3604
639.247
373.089
203.776
98.8107
29.2281
623.237
368.204
201.632
97.8987
28.9764
607.335
361.121
198.394
96.5187
28.5965
648.989
374.654
203.606
98.5868
29.1528
678.293
377.504
203.536
98.3688
29.0773
667.566
378.755
204.925
99.0762
29.2821
693.427
380.573
204.659
98.8199
29.1995
632.749
369.793
201.585
97.7453
28.9222
670.076
373.332
201.705
97.6052
28.8685
621.504
363.512
198.61
96.4671
28.5698
661.724
368.013
199.124
96.495
28.5626
670.393
383.548
207.548
100.277
29.6227
710.224
387.603
208.176
100.415
29.6516
672.014
383.147
207.131
100.053
29.556
710.991
387.193
207.849
100.244
29.6011
679.239
382.811
206.444
99.6839
29.4473
714.466
386.415
207.184
99.9124
29.5045
694.118
383.127
205.828
99.329
29.3416
719.49
384.906
206.287
99.4953
29.3854
709.326
382.582
205.343
99.0921
29.2731
15366.5
20510.8
15389.9
20453.5
15434.9
20312.9
15001
19885.3
13786.6
18666.1
12325.6
13906.4
12546.3
14766.7
12272
13644.6
12424.3
13732.7
12259.5
2078.66
447.173
101.705
18.2472
13199.7
3813.93
938.289
216.074
38.7545
12160.8
2036.75
436.576
99.1266
17.7567
13091.1
3752.89
922.505
211.849
37.7211
11907.4
1984.35
424.218
96.2327
17.2342
12843.7
3666.78
900.445
206.637
36.8034
11426.7
1879.44
400.335
90.8761
16.2939
12380.5
3519.36
864.236
198.514
35.3794
10597.2
1704.3
363.026
82.7903
14.8948
11552.1
3289.62
811.144
187.06
33.4196
9210.32
1541.05
338.932
78.6065
14.2643
9416.8
2789.12
704.367
165.145
29.813
9656.12
1587.41
344.798
79.4267
14.3597
10096.5
2984.51
747.134
173.732
31.1839
9007.08
1523.34
336.876
78.3688
14.2421
9136.41
2691.97
680.89
160.261
29.0309
8937.77
1506.7
333.196
77.5931
14.0952
9097.38
2663.79
672.587
158.778
28.7319
36131.9
52774.1
50899.9
34010.2
26008.8
31687.1
25011.9
31525.4
29855.9
48894.9
31875.1
50229.1
32.4165
39.7569
56.1761
84.6423
130.42
201.326
38.2711
46.4432
64.5849
95.5772
144.015
216.334
28.2145
26.2052
35.5186
33.9561
52.0383
51.726
81.1422
83.9179
127.641
135.024
195.716
202.625
309.096
468.944
706.162
1056.76
1484.56
1796.22
320.671
465.395
657.528
892.002
1128.13
1283.28
86.1965
125.034
155.28
175.774
186.072
105.562
152.759
189.245
213.796
226.073
148.815
214.538
264.762
298.195
314.788
223.552
320.713
393.865
441.902
465.525
343.075
489.015
596.775
666.344
700.187
526.583
743.864
900.104
998.816
1046.28
101.651
147.18
182.438
206.203
218.101
123.146
177.803
219.772
247.841
261.819
170.784
245.501
302.114
339.522
357.999
251.86
360.023
440.615
493.083
518.753
377.821
536.287
651.925
725.908
761.739
564.262
793.695
956.766
1059
1108.06
75.0881
109.074
135.655
153.737
162.848
69.7716
101.425
126.236
143.151
151.686
94.3959
136.806
169.742
191.997
203.157
90.2812
130.932
162.566
183.982
194.735
138
199.287
246.358
277.834
293.501
137.226
198.295
245.285
276.754
292.434
214.574
308.441
379.514
426.41
449.537
221.985
319.247
392.979
441.667
465.686
336.269
480.43
587.554
657.038
690.916
355.805
508.504
622.01
695.602
731.45
513.002
727
882.128
980.609
1028
531.526
754.066
915.673
1018.24
1067.49
801.599
1117.59
1336.45
1471.12
1535.34
1200.82
1642.8
1933.42
2107.56
2191.54
1774.28
2361.8
2720.91
2932.96
3042.69
2580.54
3301.84
3699.28
3942.05
4097.69
3495.04
4257.66
4625.61
4884.31
5123.18
4134.54
4885.4
5210.9
5477.09
5786.64
829.962
1153.69
1376.16
1512.54
1577.66
1192.32
1632.24
1922
2095.84
2179.56
1662.45
2232.32
2588.51
2799.14
2904.53
2219.02
2911.89
3319.37
3561.15
3693.33
2759.65
3538.36
3969.87
4233.22
4397.14
3106.88
3927.97
4366.89
4642.94
4831.12
32.8348
41.1205
58.8195
89.1783
137.797
212.814
38.7476
47.9714
67.4609
100.292
151.184
226.509
28.6042
26.5906
36.8115
35.2587
54.6378
54.4357
85.8336
89.0581
135.69
144.037
209.429
219.234
325.344
488.479
725.565
1070.06
1489.54
1796.93
333.832
480.402
672.119
903.314
1134.59
1285.26
87.326
126.712
157.417
178.242
188.714
109.242
158.231
196.218
221.857
234.707
155.96
225.187
278.363
313.946
331.676
235.841
339.093
417.422
469.26
494.904
363.13
519.177
635.641
711.669
748.969
557.979
791.46
961.893
1071.29
1124.52
102.938
149.096
184.883
209.033
221.135
127.277
183.961
227.641
256.957
271.594
178.573
257.143
317.027
356.834
376.585
264.661
379.236
465.323
521.855
549.695
397.363
565.796
690.094
770.554
809.868
592.159
836.191
1012.18
1124.23
1178.61
76.1382
110.631
137.633
156.019
165.29
70.8095
102.963
128.189
145.401
154.092
97.8819
141.981
176.324
199.595
211.29
93.7914
136.138
169.183
191.616
202.902
145.018
209.728
259.67
293.228
309.994
144.539
209.167
259.136
292.765
309.582
227.268
327.392
403.759
454.526
479.705
235.892
340.003
419.525
472.446
498.708
358.13
513.26
629.796
706.244
743.841
380.312
545.367
669.516
751.008
791.084
550.394
783.487
955.211
1066.1
1120.15
576.735
822.182
1003.6
1120.92
1178.09
846.438
1186.54
1427.11
1578.46
1651.83
1255.76
1729.54
2050.04
2247.89
2345.18
1831.1
2456.07
2852.57
3095.62
3223.45
2623.9
3381.9
3818.83
4096.45
4273.98
3517.05
4306.77
4705.26
4992.66
5251.58
4140.36
4901.23
5238.25
5515.68
5833.58
866.382
1209.92
1450.38
1600.69
1673.48
1234.48
1698.73
2011.38
2203.41
2297.35
1704.53
2300.95
2683.26
2915.34
3033.12
2253.18
2970.59
3403.43
3666.88
3812.08
2780.57
3576.73
4027.01
4306.98
4481.37
3113.7
3941.11
4386.97
4669.31
4861.57
4599.78
2856.21
461.666
307.042
360.911
295.579
402.906
4047.75
3719.84
2232.23
2870.01
1132.2
1658.56
876.252
1013.29
791.25
3797.69
1832.73
1003.78
861.893
1201.79
1003.84
717.672
648.942
580.405
484.349
746.23
652.684
4170.14
2331.02
2713.17
1561.12
1200.39
1856.78
731.871
505.71
833.36
8984.91
8357.7
7814.19
8014.06
12073.6
6063.42
6421.61
6450.34
6698.11
7413.94
1191.91
1652
1968.39
2165.06
2261.29
801.834
1130.33
1365.97
1515.33
1587.68
943.316
1331.14
1609.36
1785.06
1869.63
774.318
1096.61
1330.36
1479.32
1551.38
1048.32
1469.37
1766.42
1952.42
2042.09
8520.22
8745.56
8488.01
8691.15
12564
8004.02
8388.15
8298.94
8499.92
9449.62
5094.91
5966.55
6340.99
6641.72
7034.22
6556.12
7329.43
7419.43
7594.5
7851.7
2800.28
3650.75
4147.94
4440.49
4597.98
3946.63
4880.66
5352.18
5638.49
5831.93
2215.02
2975.6
3453.56
3735.02
3873.09
2540.03
3370.87
3874.28
4165.67
4310.13
2015.5
2736.51
3201.02
3475.6
3607.1
7958.52
8161.89
7948.16
8193.23
12040.1
4265.85
5131.46
5551.5
5874.07
6245.48
2503.45
3302.06
3785.53
4076.97
4236.55
2165.79
2887.94
3339.58
3615.49
3764.03
2932.48
3757.94
4230.8
4534.31
4742.79
2487.91
3254.33
3713.27
4000.89
4173
1813.82
2438.57
2838.39
3085.01
3215.24
1658.27
2263.52
2663.06
2907.27
3028.78
1498.96
2077.03
2471.08
2711.59
2826.49
1256.51
1753.08
2098.5
2312.39
2415.01
1901.58
2584.64
3028.68
3295.59
3426.82
1670.94
2286.86
2695.49
2944.35
3066.73
8384.14
8120.3
7713.9
7941.51
11897.6
5122.58
5699.15
5897.28
6185.11
6749.52
6122.04
6806.6
6890.25
7211.11
8404.59
3676.1
4488.7
4900.02
5207.95
5507.91
2920.24
3724.13
4178.14
4477.29
4688.38
4299.3
5138.28
5539.39
5870.01
6275.71
1852.73
2496.26
2909.47
3163.28
3295.7
1306.03
1810.52
2156.71
2370.74
2474.65
2095.02
2795.29
3234.54
3504.57
3650.6
4954.11
4795.95
4498.09
3979.79
3069.91
1245.69
20965.8
21238.8
23566.5
24495
20187.2
21124.2
22256.4
21239
17595.4
23183.2
18156.9
23612
20764.6
18569.8
30363.9
19897.5
20004.6
21965
22600.2
18802
19735.5
21028.4
20294.6
17391
28015.6
17841.4
27533.5
20880.6
22971.3
32542.1
18588.8
18548.1
19849.2
20187.2
17621.2
19056.6
19318.1
19176.7
19781.5
24231.2
20526.3
24052.8
22557.3
25343.6
28734.6
17263.8
17247.3
17742.5
17888.5
16724.3
18403.9
17411.7
17592.7
18090.7
20672.9
18787.1
19930
20072.6
22081
24047.9
15937.5
15958.9
16185.9
16232.2
16004.5
17800.3
16018.6
16388.7
16728
16428.2
17441.6
15539.3
17897.9
17728.4
19055.8
15270.2
15346.1
15101.6
15107.7
15290.3
16663
15079.1
15357.9
15636.1
13607.8
16101
13135.8
16209.5
14876.9
16685.1
22467.5
21428
24087.9
25523.8
20408.6
20137.2
22126.8
20834
19206.2
13621.6
19075
13675.2
16775.5
15024.6
17709.7
20840.7
20077.9
21897.1
22861.6
19412.9
19340.8
20560.1
19471.1
17310.7
12728.7
17220.6
12815.3
14889.7
13067.9
15810.5
18603.8
18134.2
19171.6
19669.5
17712.5
17648
18458.7
17749.8
15773.1
11900.6
15477.9
11665.4
13663.6
11397.8
14837.7
16229.1
15944.4
16816.2
17068.2
15636.8
15498.6
16512
15925.9
13986.7
11410.1
13809
11174.8
12333.1
10861
14144.9
14702.6
14502.7
15299
15444.5
14101.5
13964.9
15168.7
14745.6
12993.1
11597.5
12863.4
11474
11756.8
10844.4
13834.4
13587.6
13410.4
14317.2
14423.1
13125.6
13222.9
14176.2
13942.5
12402.3
11691.6
12344.3
11644.6
11411.4
10982.4
13919.5
12824.9
7281.67
20955.6
13845.6
22986.1
17065.5
35700.7
44783.1
47132
58200.6
30679.2
26767.1
19431.6
15546.8
9522.48
6352.12
21380.4
21416.5
18618.7
21629.5
28846.4
25230.4
33796.1
26808.9
8870.99
6253.85
4966.59
3740.56
10647.9
8642.17
6589.01
5445
20345.1
20703.8
20354.4
16506.1
15356.7
12418.7
12347
14164.2
19828.6
19884.7
42369.8
43995.5
29449.9
30545.5
17549.9
14807
18690.2
13238.8
8703.16
9062.92
7350.98
11207.2
3836.89
4889.85
10197
15056.2
6174.09
7483.25
11050.7
20116.4
7768.22
13331.6
2914.04
7843.3
2433.82
5824.43
18643.4
23219.3
19679.9
23388.2
22585
22635.5
23441.4
22615.8
17080.5
23410.5
17167.2
22934.9
19587.7
23388.8
19699
23427.9
23904.9
22493.9
23967.5
22368.2
15920.9
23617.2
15455.6
23772.6
20360.3
24829.1
25700.2
37242.1
21611.3
29143.1
25506
41033.3
19294.2
21651.5
25778.2
35542.8
19119.6
20192.5
26076
35200.1
6860.4
9283.96
17776.6
32305.9
8431.39
9807.9
22717.1
36238.4
10157.4
10331.5
28116.4
39159.2
26023.9
26763.3
23113.7
23374.5
36286.6
26637.5
26048.2
23417
21058.5
42243
24417.6
24887.5
23109.2
24425
47164.6
2503.75
3067.36
5547.55
13758.3
3558.92
4144.44
7545.14
15018.1
5112.28
4358.02
9905.72
16463.8
25661.2
24138.3
23847.3
22229.5
21623.6
18610.2
16879.9
14364.2
12659.4
18604.8
23707.1
21910.4
24679.5
23329.2
22331.5
20182.9
19374.9
16968
13316
18313
24918.2
27733
24995.3
28651.9
23401.2
23782.4
23020.3
24251.5
23486
23735.1
23252
22951.1
24867.4
28869.9
24831.6
28934.7
22447.1
24706.9
22334.6
24735.4
23580.2
23681
23630.1
23714.5
20394.1
19324.5
13359.4
15144.2
20317.5
18901.7
13213.3
15457.5
20631
19212
13627.1
15093.1
20721.4
19011.3
14048.8
15064.4
1902.52
1144.94
722.679
1034.08
605.331
544.672
2740.45
1394.23
955.251
1977.81
1439.26
1130.17
2942.81
2055.07
1895.7
3387.28
2497.85
2105.34
21373.4
17555.1
15149.6
20225.9
17158.4
15058.7
14879
12600.4
11323.5
10714
8278.28
7191.41
5231
3376.47
2646.91
19719.3
16525.6
14246.2
20987.4
17276.2
14762.2
16147.7
12361.6
10307.5
10932.6
7678.8
6323.38
5513.22
3313.54
2440.45
28558.7
27478.1
31522.3
27811.3
32601
27873.3
39960.4
29771.2
21388.8
21255.7
21222.1
19385.9
24265.7
22275.6
24043.3
20087.2
23804.1
23306.8
21872.1
23043
28268.7
25795
29599.1
30242.4
32690.9
34036.1
24307.7
25411.2
21781.7
21243.5
26040.7
26853.3
16182.6
8638.03
15272.5
9566.15
16471.3
8702.44
15284.3
9493.05
16323.3
8732.32
15343.7
9903.38
15023.2
10366.8
15256.4
10254
21485
17894.2
21687.4
18068.1
24106.9
21395.3
24730.2
21418.9
20906.3
14693.8
21490.5
14340.8
22401.3
18098.9
22795.7
17926
25642.4
21391.1
25791.8
21175.3
20900.6
14820.7
20922.6
14737.3
13345.9
8730.13
11357.6
7360.57
12255
7781.99
10806.5
6863.95
13779.1
9286.56
11593
7589.7
13833.4
9594.81
11562.4
7632.37
2488.49
1275.31
4600.6
2596.34
2645.81
1547.1
4891.85
3053.86
3215.92
2287.88
5381.36
3883.91
12469.4
19919.3
8886.07
8472.35
6149.16
19204.2
12933.4
7363.57
7393.92
5045.23
20396.4
15624.2
12132.5
9282.18
5993.79
661.894
433.539
1590.93
1186.12
906.622
558.398
2101.99
1625.11
1524.76
1031.26
2897.37
2279.1
18992.9
17410.2
12367.8
11082.7
7732.29
7170.39
6428.72
5324.16
4240.45
3327.52
18126.3
15633.8
13555.6
11095.4
10210.6
8299.48
7614.64
6190.59
5174.77
4609.64
14234.3
10676.1
14513
10650.9
17734.3
14024.8
17938.7
14154.5
11699.8
8696.18
11216.5
8543.34
14636.7
10616.7
14572.7
10623.5
17997.9
14599.1
17874.8
14607.6
11992.4
8660.56
11975.1
8770.1
8869.65
6788.18
6073.88
5720.21
8458.79
6516.34
5787.62
5343.03
9283.19
6971.64
6240.72
6044.28
9484.09
6969.78
6473.65
6124.02
978.166
813.947
647.941
4219.54
2136.45
1676.15
977.965
916.507
782.008
4706.66
2599.79
2116.07
1406.8
1482.33
1451.39
5381.84
3338.7
2842.71
15027.9
12769.3
11375.4
9622.85
8422.63
7750.72
6563.27
5838.93
5496.64
5200.32
4565.61
4206.9
6344.2
4225.81
3625.91
13084.1
10808.2
9418.46
9046.41
7475.05
6625.8
6965.59
5733.58
5100.92
6169.36
4921.99
4260.01
7897.99
4815.43
4054.06
4552.47
2542.04
1467.17
862.34
5099.61
2751.97
1545.77
889.39
4578.26
2545.15
1472.46
867.071
5206.78
2813.03
1589.26
914.566
4580.37
2530.86
1504.58
891.615
5318.5
2854.08
1657.69
955.833
5707.65
3008.47
1653.6
941.51
5846.41
3107.03
1679.06
954.409
4865.3
2694.35
1580.37
919.674
4090.59
2408.92
1467.41
873.534
4309.36
2459.26
1493.21
882.935
3800.2
2281.79
1414.9
847.848
5233.87
2867.91
1632.08
938.399
4262.66
2499.19
1497.58
890.869
5429.49
2980.4
1671.15
960.812
4335.26
2561.04
1526.94
910.566
3483.84
2198.63
1352.34
823.142
2416.44
1803.5
1213.03
770.267
3503.37
2195
1355.58
824.641
2518.48
1831.74
1222.49
775.439
3600.81
2206
1379.48
840.565
2805.13
1915.33
1255.63
793.645
3590.4
2172.64
1372.11
862.303
3060.73
1979.64
1303.43
805.03
3412.54
2131.31
1355.08
835.904
1462.27
1498.96
989.152
298.667
528.031
1337.88
905.318
297.853
1644.24
1560.72
1014.63
314.243
724.505
1404.78
927.128
304.824
1995.35
1671.47
1049.2
314.611
1074.61
1518.63
956.931
309.119
2445.19
1809.28
1109.96
341.461
1480.88
1651.78
1003.01
323.451
2783.01
1943.31
1186.47
391.573
1672.44
1764.04
1047.1
336.388
3019.59
2100.33
1219.51
379.242
1628.26
1907.04
1130.42
359.73
2926.57
2032.64
1197.03
377.938
1549.1
1842.68
1088.33
346.415
3065
2145.3
1225.8
357.683
1632.8
1957.19
1152.83
361.783
3126.21
2187.03
1250.82
363.016
1719.13
2001.89
1178.61
369.037
549.421
330.57
183.92
90.3494
26.9089
546.845
330.341
184.138
90.4976
26.954
557.329
334.322
185.404
90.9196
27.058
558.727
335.098
186.072
91.2603
27.1558
573.935
339.225
187.186
91.5955
27.2348
574.125
340.138
188.15
92.0932
27.3782
579.083
345.472
190.78
93.2171
27.6853
591.165
352.573
194.283
94.7385
28.1048
590.061
344.948
189.653
92.6043
27.5062
623.599
351.195
191.301
93.1345
27.6371
592.416
343.316
188.494
92.0627
27.3545
622.528
348.79
190.028
92.5827
27.4854
594.191
349.551
191.977
93.6077
27.7815
634.896
355.627
193.383
94.0281
27.8824
608.199
356.512
195.261
95.0193
28.1699
649.652
361.851
196.207
95.2361
28.2151
560.112
331.775
183.833
90.2234
26.8676
582.231
333.352
183.833
90.1502
26.8426
567.903
334.791
184.97
90.6498
26.9779
588.841
335.709
184.722
90.4834
26.9287
583.343
339.529
186.645
91.2773
27.1411
602.458
339.781
186.207
91.0449
27.0749
605.305
344.626
188.29
91.8811
27.2975
618.576
344.088
187.844
91.6795
27.2417
625.256
347.214
189.197
92.2273
27.3881
13821
21610
14298.9
21758.4
14828.2
21733.3
14953.9
21443.8
13882.5
20046.5
12263.4
13929.9
12474
14975.6
12230.7
13628.7
12410.4
13724.3
12487.7
2143.74
462.48
104.989
18.7869
13931.1
3991.57
978.115
224.437
40.1306
12467.2
2119.32
455.371
103.134
18.4194
13881.8
3940.28
963.906
220.43
39.1167
12310.3
2069.05
442.128
99.9344
17.8375
13675.6
3855.07
940.577
214.761
38.1084
11864.9
1956.82
415.709
93.9801
16.7951
13174.9
3691.99
899.994
205.633
36.5121
10920.5
1757.64
373.617
84.9555
15.2477
12161.7
3422.13