/*--------------------------------*- C++ -*----------------------------------*\
| =========                 |                                                 |
| \\      /  F ield         | OpenFOAM: The Open Source CFD Toolbox           |
|  \\    /   O peration     | Version:  2306                                  |
|   \\  /    A nd           | Website:  www.openfoam.com                      |
|    \\/     M anipulation  |                                                 |
\*---------------------------------------------------------------------------*/
FoamFile
{
    version     2.0;
    format      ascii;
    arch        "LSB;label=32;scalar=64";
    class       volScalarField;
    location    "100";
    object      nut;
}
// * * * * * * * * * * * * * * * * * * * * * * * * * * * * * * * * * * * * * //

dimensions      [0 2 -1 0 0 0 0];

internalField   nonuniform List<scalar> 
12225
(
2.70742e-05
3.55747e-05
4.05233e-05
4.31929e-05
4.44522e-05
4.4966e-05
4.49789e-05
4.47508e-05
4.45708e-05
4.42073e-05
4.38629e-05
4.3534e-05
4.32388e-05
4.29606e-05
4.27283e-05
4.24985e-05
4.23368e-05
4.2129e-05
0.00021302
8.46357e-05
5.5909e-05
4.40616e-05
3.83785e-05
3.53529e-05
3.38618e-05
3.30676e-05
3.28587e-05
3.28718e-05
3.32161e-05
3.35972e-05
3.42256e-05
3.47886e-05
3.55753e-05
3.62262e-05
3.70488e-05
3.77429e-05
0.000657256
0.000306446
0.00019407
0.000142101
0.000113246
9.45206e-05
8.20525e-05
7.33424e-05
6.68337e-05
6.1997e-05
5.80861e-05
5.51545e-05
5.2591e-05
5.07639e-05
4.89886e-05
4.78504e-05
4.67557e-05
4.54085e-05
0.000863181
0.000609423
0.000451698
0.000350826
0.000289348
0.000246548
0.000216728
0.000194372
0.000177828
0.000164393
0.000154137
0.000145202
0.000138317
0.000131916
0.00012703
0.000122172
0.00011889
0.000113753
0.000877477
0.000776427
0.000690937
0.000591917
0.000517373
0.000458159
0.00041354
0.000377338
0.000349767
0.000326118
0.000308038
0.00029151
0.000279109
0.000266879
0.000258138
0.000248589
0.000242679
0.000233791
0.000858421
0.000835301
0.000807315
0.000753102
0.000699425
0.000648309
0.000604893
0.000565971
0.000534308
0.000505519
0.00048265
0.000460947
0.000444308
0.00042739
0.000415281
0.000401531
0.000393111
0.000380547
0.00085426
0.000849546
0.000840715
0.000823053
0.000798616
0.000768505
0.000739223
0.00070963
0.000683443
0.000657851
0.000636349
0.000614991
0.000597919
0.000580064
0.000566842
0.000551585
0.000541898
0.000527345
0.00085239
0.000851592
0.000849792
0.000844533
0.000835951
0.00082454
0.000810202
0.00079351
0.0007773
0.000760098
0.000744663
0.000728428
0.000714732
0.000699976
0.000688418
0.00067506
0.000665927
0.000652586
0.000851903
0.00085148
0.000851079
0.000849883
0.000847547
0.000843624
0.000838605
0.000831293
0.000823677
0.000815037
0.000806359
0.000796635
0.000787901
0.000778205
0.000770012
0.00076069
0.00075351
0.000743799
0.000851815
0.000851373
0.000851073
0.00085061
0.000850036
0.000848812
0.000847337
0.000844868
0.000842013
0.000838327
0.000834534
0.000829907
0.000825482
0.000820349
0.000815667
0.000810388
0.000805758
0.000799927
0.000851799
0.000851357
0.000851021
0.000850624
0.000850326
0.000849826
0.000849341
0.000848523
0.000847613
0.000846273
0.00084489
0.000843031
0.000841232
0.000838922
0.000836869
0.000834168
0.000832123
0.000828943
0.000851792
0.000851359
0.000851001
0.000850611
0.000850307
0.000849939
0.000849634
0.000849214
0.000848821
0.000848242
0.000847687
0.00084689
0.000846156
0.000845116
0.000844242
0.000842952
0.000842019
0.000840478
0.000851787
0.000851362
0.000850989
0.000850608
0.000850281
0.000849937
0.000849647
0.000849322
0.000849045
0.000848703
0.000848406
0.000848011
0.000847671
0.000847195
0.000846804
0.000846233
0.000845797
0.000845131
0.000851783
0.000851364
0.00085098
0.000850605
0.000850264
0.000849926
0.000849623
0.000849318
0.000849046
0.000848763
0.000848513
0.00084824
0.000847999
0.000847725
0.000847485
0.0008472
0.000846952
0.000846653
0.000851781
0.000851364
0.000850974
0.0008506
0.000850252
0.000849916
0.000849604
0.000849302
0.000849021
0.000848748
0.000848493
0.000848243
0.000848011
0.000847781
0.000847565
0.00084735
0.000847147
0.000846944
0.00085178
0.000851363
0.000850969
0.000850596
0.000850243
0.000849907
0.000849589
0.000849287
0.000849
0.000848726
0.000848466
0.000848217
0.000847981
0.000847753
0.000847537
0.000847329
0.00084713
0.000846939
0.000851779
0.000851362
0.000850967
0.000850592
0.000850236
0.000849899
0.000849579
0.000849274
0.000848985
0.000848708
0.000848445
0.000848194
0.000847954
0.000847724
0.000847505
0.000847295
0.000847094
0.000846901
0.000851779
0.000851362
0.000850965
0.000850589
0.000850233
0.000849894
0.000849572
0.000849266
0.000848974
0.000848696
0.00084843
0.000848177
0.000847935
0.000847703
0.000847481
0.000847269
0.000847066
0.000846871
0.000851779
0.000851362
0.000850965
0.000850589
0.000850232
0.000849892
0.000849569
0.000849262
0.000848969
0.00084869
0.000848423
0.000848168
0.000847925
0.000847692
0.000847469
0.000847255
0.000847051
0.000846855
0.000851779
0.000851363
0.000850966
0.000850591
0.000850234
0.000849895
0.000849572
0.000849265
0.000848972
0.000848693
0.000848426
0.000848171
0.000847927
0.000847693
0.000847468
0.000847254
0.000847047
0.000846849
0.000851779
0.000851364
0.000850968
0.000850595
0.000850238
0.000849901
0.000849578
0.000849273
0.000848977
0.000848698
0.000848424
0.000848164
0.000847906
0.000847662
0.000847414
0.000847181
0.00084694
0.000846716
0.000851778
0.000851368
0.000850969
0.000850603
0.000850243
0.00084991
0.000849572
0.000849252
0.000848914
0.000848584
0.000848219
0.00084786
0.00084745
0.000847052
0.000846587
0.00084615
0.000845625
0.000845157
0.000851779
0.000851382
0.000850972
0.000850624
0.000850208
0.000849788
0.000849232
0.000848613
0.000847799
0.00084689
0.000845761
0.000844549
0.000843112
0.000841646
0.000839939
0.000838304
0.000836357
0.000834666
0.000851855
0.000851467
0.000850932
0.000850394
0.000849125
0.000847456
0.000844942
0.000841932
0.000838061
0.000833829
0.000828939
0.000823894
0.000818417
0.00081295
0.000807267
0.000801526
0.000795834
0.000790708
0.000852784
0.00085138
0.000849188
0.000845093
0.00083688
0.000827808
0.000815731
0.000802799
0.000788337
0.000774321
0.000759601
0.000746001
0.000732028
0.000719577
0.000706699
0.000695706
0.000683941
0.000674537
0.000858209
0.000842298
0.000828953
0.000803018
0.000769235
0.000735453
0.000700758
0.000669652
0.000639422
0.000613506
0.000588504
0.000567623
0.000547174
0.000530504
0.000513696
0.000500429
0.000486375
0.000475868
0.000864325
0.000785611
0.000712678
0.00062831
0.000558233
0.000503059
0.000455683
0.000418805
0.000386537
0.000361502
0.000338653
0.000321112
0.000304284
0.000291635
0.000278764
0.000269397
0.00025921
0.000252142
0.000775908
0.000540094
0.000397897
0.000312958
0.000258114
0.000219605
0.000190461
0.000169523
0.000152502
0.00013994
0.000129038
0.000120957
0.000113465
0.00010801
0.000102567
9.87409e-05
9.46177e-05
9.18424e-05
0.000323566
0.000164845
0.000111408
8.60697e-05
7.08189e-05
6.13468e-05
5.5012e-05
5.08783e-05
4.79481e-05
4.60035e-05
4.45868e-05
4.36831e-05
4.30371e-05
4.26912e-05
4.24542e-05
4.24368e-05
4.24359e-05
4.26209e-05
3.26576e-05
3.90516e-05
4.38921e-05
4.69711e-05
4.93653e-05
5.11688e-05
5.25333e-05
5.3457e-05
5.41115e-05
5.44587e-05
5.46858e-05
5.46897e-05
5.46458e-05
5.45399e-05
5.43654e-05
5.41562e-05
5.39294e-05
5.36909e-05
5.76991e-06
1.72481e-05
2.09507e-05
2.36108e-05
2.55541e-05
2.70034e-05
2.81021e-05
2.90967e-05
2.99511e-05
3.07202e-05
3.1474e-05
3.22669e-05
3.31556e-05
3.41928e-05
3.54317e-05
3.68059e-05
3.8252e-05
3.9758e-05
4.13293e-05
4.29618e-05
4.4662e-05
4.6428e-05
4.82735e-05
5.01798e-05
5.21323e-05
5.41196e-05
5.61396e-05
5.81658e-05
6.01972e-05
6.22163e-05
6.422e-05
6.61959e-05
6.81426e-05
7.00504e-05
7.19197e-05
7.37436e-05
7.55248e-05
7.72586e-05
7.89489e-05
8.05922e-05
8.21935e-05
8.37501e-05
8.52673e-05
8.6743e-05
8.81825e-05
8.9584e-05
9.09527e-05
9.22868e-05
9.35911e-05
9.48651e-05
9.61132e-05
9.73337e-05
9.85308e-05
9.97026e-05
0.000100852
0.000101978
0.000103084
0.000104166
0.000105228
0.000106268
0.000107287
0.000108284
0.00010926
0.000110214
0.000111145
0.000112053
0.000112938
0.000113799
0.000114636
0.00011545
0.000116239
0.000117002
0.000117737
0.000118444
0.000119122
0.000119772
0.000120392
0.000120985
0.000121548
0.000122084
0.000122591
0.000123071
0.000123522
0.000123948
0.000124347
0.000124727
0.000125081
0.000125419
0.000125738
0.000126043
0.000126339
0.000126625
0.000126905
0.000127176
0.000127429
0.000127635
0.000127756
0.000127933
0.000128086
0.000128308
0.000128459
0.000128525
0.000128195
0.000127386
0.000128279
0.000127801
0.000129123
0.000128994
0.000127473
0.000128323
0.000127554
0.000127674
0.000127626
0.000128069
0.000127753
0.000128261
0.0001286
0.000127653
0.000127296
0.00012697
0.000127708
0.000127153
0.0001269
0.000126525
0.000126137
0.000125709
0.000125246
0.000124748
0.000124214
0.000123654
0.000123052
0.00012241
0.000121728
0.000121006
0.000120241
0.000119436
0.000118606
0.00011773
0.000116809
0.000115845
0.000114823
0.000113771
0.000112679
0.000111547
0.000110396
0.000109178
0.000107856
0.00010672
0.000105124
0.000102957
0.000101884
0.000101015
0.000100148
9.92531e-05
9.83366e-05
9.73944e-05
9.64352e-05
9.54885e-05
9.45097e-05
9.34832e-05
9.24437e-05
9.13966e-05
9.04471e-05
8.94325e-05
8.8397e-05
8.73599e-05
8.63397e-05
8.53328e-05
8.43355e-05
8.33528e-05
8.23879e-05
8.14399e-05
8.05079e-05
7.95931e-05
7.8692e-05
7.77776e-05
7.69494e-05
7.57319e-05
7.5593e-05
7.25373e-05
9.6588e-06
5.92856e-05
0.00012043
0.000166759
0.000198578
0.000220551
0.000235322
0.000244277
0.000248919
0.000251664
0.000253899
0.000256354
0.000259325
0.000262842
0.00026675
0.000270937
0.000275527
0.000280692
0.000286505
0.000293022
0.000300286
0.000308339
0.000317208
0.000326931
0.000337522
0.000348969
0.000361242
0.000374285
0.000388071
0.000402554
0.000417633
0.000433212
0.00044919
0.000465471
0.000481949
0.000498529
0.00051512
0.000531653
0.000548061
0.000564293
0.000580303
0.00059606
0.000611537
0.000626718
0.00064159
0.000656146
0.00067038
0.000684284
0.000697843
0.000711101
0.000724102
0.000736859
0.000749383
0.000761688
0.000773784
0.000785681
0.000797386
0.000808907
0.000820247
0.00083141
0.000842397
0.000853207
0.000863836
0.000874281
0.000884535
0.000894591
0.000904442
0.000914079
0.000923497
0.000932689
0.000941655
0.000950398
0.000958863
0.00096702
0.000974862
0.000982372
0.000989544
0.000996363
0.00100283
0.00100893
0.00101468
0.00102006
0.0010251
0.0010298
0.00103418
0.00103825
0.00104204
0.00104556
0.00104884
0.00105193
0.00105486
0.00105766
0.00106033
0.00106286
0.00106525
0.00106756
0.00107001
0.00107282
0.0010758
0.00107914
0.00108248
0.00108602
0.00108962
0.0010943
0.00110066
0.0010968
0.00110048
0.00110313
0.00110204
0.0011057
0.00110566
0.00110695
0.00111385
0.00111495
0.00111661
0.00111848
0.00112127
0.00112029
0.00112041
0.00111935
0.00112363
0.00112467
0.0011261
0.00112718
0.00112806
0.00112866
0.00112896
0.00112894
0.0011286
0.001128
0.00112704
0.00112554
0.00112361
0.00112121
0.00111834
0.00111497
0.00111113
0.00110686
0.0011021
0.00109686
0.00109109
0.00108477
0.00107794
0.00107064
0.00106294
0.0010548
0.00104588
0.001037
0.0010276
0.0010136
0.000997987
0.000981607
0.000964785
0.000947686
0.000930422
0.000913104
0.00089573
0.000878482
0.000861086
0.000843902
0.00082693
0.000810253
0.000794126
0.000778141
0.00076245
0.000747129
0.00073221
0.000717591
0.000703282
0.000689339
0.00067575
0.000662502
0.000649557
0.000636997
0.000624456
0.000612561
0.000599806
0.000587442
0.000574785
0.000520403
1.21667e-05
8.80768e-05
0.000183743
0.000263426
0.000325562
0.000372609
0.000407675
0.00043338
0.000451948
0.000465507
0.000475869
0.00048446
0.000492344
0.000500276
0.000508778
0.000518226
0.000528907
0.000541016
0.000554662
0.0005699
0.000586755
0.000605242
0.000625363
0.000647106
0.000670423
0.000695206
0.000721542
0.000749854
0.000779821
0.000810867
0.000842724
0.000875205
0.000908155
0.000941425
0.000974857
0.00100828
0.00104152
0.00107451
0.00110715
0.00113939
0.00117117
0.00120243
0.00123315
0.00126331
0.0012929
0.00132191
0.00135035
0.00137822
0.00140555
0.00143236
0.00145868
0.00148454
0.00150995
0.00153493
0.00155951
0.00158369
0.00160749
0.00163093
0.00165401
0.00167674
0.00169912
0.00172115
0.00174282
0.00176414
0.00178509
0.00180565
0.00182583
0.00184559
0.00186493
0.00188382
0.00190225
0.0019202
0.00193763
0.00195451
0.00197081
0.00198653
0.00200163
0.00201609
0.00202991
0.00204307
0.00205557
0.00206742
0.0020786
0.00208915
0.00209906
0.00210835
0.00211705
0.00212517
0.00213275
0.00213983
0.00214645
0.00215264
0.00215845
0.0021639
0.00216909
0.00217412
0.00217915
0.00218419
0.00218921
0.00219419
0.00219905
0.00220391
0.00220884
0.00221381
0.00221801
0.00221824
0.00222214
0.00222484
0.0022261
0.00222928
0.00223101
0.00223357
0.00223838
0.00224138
0.00224223
0.0022435
0.00224457
0.00224421
0.00224394
0.0022431
0.0022447
0.00224472
0.00224448
0.0022437
0.00224239
0.00224049
0.00223794
0.0022347
0.00223075
0.00222606
0.00222059
0.00221422
0.002207
0.00219888
0.00218985
0.0021799
0.00216902
0.00215724
0.00214453
0.00213091
0.00211634
0.00210083
0.00208443
0.00206719
0.0020492
0.00203033
0.00201042
0.00198988
0.00196851
0.00194367
0.00191657
0.00188811
0.00185883
0.001829
0.00179882
0.00176846
0.00173799
0.00170761
0.00167741
0.00164758
0.00161813
0.00158986
0.00156244
0.00153482
0.00150784
0.00148159
0.00145615
0.00143112
0.00140659
0.00138271
0.00135943
0.00133668
0.00131443
0.00129274
0.00127112
0.00125022
0.00122825
0.0012058
0.00118786
0.00111662
1.3999e-05
0.000115167
0.000236936
0.000339915
0.000422659
0.000487639
0.000537987
0.000576602
0.000606078
0.000628753
0.000646703
0.000661734
0.000675365
0.000688818
0.000703029
0.000718679
0.000736228
0.000755961
0.00077803
0.000802496
0.000829369
0.000858625
0.000890224
0.00092411
0.000960228
0.000998536
0.00103881
0.00108047
0.00112321
0.00116703
0.0012117
0.00125697
0.00130276
0.00134896
0.00139544
0.00144217
0.00148863
0.00153473
0.00158034
0.0016254
0.00166983
0.00171358
0.00175663
0.00179894
0.00184052
0.00188135
0.00192144
0.0019608
0.00199946
0.00203744
0.00207476
0.00211144
0.00214752
0.00218301
0.00221793
0.0022523
0.00228614
0.00231947
0.0023523
0.00238463
0.00241646
0.00244781
0.00247866
0.00250901
0.00253884
0.00256816
0.00259693
0.00262513
0.00265275
0.00267976
0.00270613
0.00273183
0.00275683
0.00278109
0.00280459
0.00282729
0.00284916
0.00287018
0.00289033
0.0029096
0.00292797
0.00294545
0.00296203
0.00297771
0.00299251
0.00300644
0.00301951
0.00303175
0.00304318
0.00305384
0.00306376
0.003073
0.00308159
0.0030896
0.00309712
0.00310424
0.00311104
0.00311752
0.00312365
0.00312943
0.00313481
0.00313985
0.00314457
0.00314878
0.00315205
0.00315397
0.00315666
0.00315859
0.00315974
0.00316184
0.00316351
0.003165
0.00316734
0.00316785
0.00316754
0.00316704
0.00316601
0.00316425
0.00316213
0.00315967
0.00315768
0.00315483
0.00315139
0.00314726
0.0031424
0.00313676
0.00313029
0.00312293
0.00311465
0.00310541
0.00309515
0.00308383
0.00307143
0.00305792
0.00304327
0.00302747
0.00301051
0.00299241
0.00297315
0.00295273
0.00293115
0.00290844
0.00288463
0.0028598
0.00283421
0.00280749
0.0027796
0.0027507
0.00272061
0.00268812
0.00265358
0.00261756
0.00258052
0.00254277
0.00250453
0.002466
0.00242731
0.00238864
0.00235016
0.00231205
0.00227436
0.00223752
0.00220154
0.00216627
0.00213246
0.00209972
0.00206827
0.00203713
0.0020066
0.00197703
0.00194827
0.00192013
0.00189268
0.00186588
0.0018393
0.00181334
0.00178668
0.00175909
0.00173619
0.00166941
1.54341e-05
0.000137136
0.000282334
0.000405421
0.00050542
0.000585294
0.00064846
0.000698217
0.000737454
0.000768734
0.000794344
0.00081631
0.000836383
0.00085603
0.000876413
0.000898407
0.000922617
0.000949428
0.000979049
0.00101156
0.00104696
0.00108519
0.00112615
0.00116969
0.00121566
0.00126385
0.00131399
0.00136575
0.00141887
0.00147317
0.00152843
0.00158449
0.00164105
0.00169787
0.00175473
0.00181138
0.00186769
0.00192357
0.00197892
0.00203365
0.00208769
0.00214098
0.00219349
0.00224518
0.00229603
0.00234605
0.00239523
0.00244358
0.00249112
0.00253787
0.00258385
0.00262907
0.00267358
0.00271738
0.0027605
0.00280296
0.00284478
0.00288598
0.00292657
0.00296655
0.00300593
0.00304473
0.00308292
0.00312051
0.00315748
0.00319382
0.00322951
0.00326453
0.00329885
0.00333243
0.00336526
0.00339729
0.00342848
0.00345879
0.00348819
0.00351665
0.00354411
0.00357056
0.00359596
0.00362029
0.00364353
0.00366567
0.0036867
0.00370662
0.00372543
0.00374313
0.00375973
0.00377525
0.0037897
0.00380311
0.00381552
0.00382696
0.00383749
0.00384715
0.00385603
0.00386421
0.00387171
0.00387857
0.00388476
0.00389028
0.00389512
0.00389931
0.00390287
0.00390576
0.00390783
0.00390912
0.00391007
0.00391095
0.0039117
0.00391229
0.00391104
0.00390996
0.00390864
0.00390645
0.0039036
0.00390028
0.00389642
0.00389195
0.00388698
0.00388156
0.00387585
0.00386944
0.00386233
0.00385447
0.00384581
0.0038363
0.0038259
0.00381456
0.00380225
0.00378891
0.0037745
0.00375898
0.00374232
0.00372449
0.00370546
0.00368521
0.00366374
0.00364104
0.0036171
0.00359193
0.00356552
0.0035379
0.0035091
0.00347921
0.00344847
0.00341637
0.00338305
0.00334855
0.00331273
0.00327508
0.00323567
0.00319484
0.00315294
0.00311025
0.003067
0.00302338
0.00297956
0.00293573
0.00289206
0.00284872
0.00280582
0.00276362
0.00272223
0.00268166
0.00264228
0.00260409
0.00256795
0.00253301
0.00249934
0.00246702
0.00243571
0.00240494
0.00237508
0.00234595
0.00231715
0.00228906
0.00226063
0.0022314
0.00220566
0.00214288
1.6573e-05
0.000156522
0.000322309
0.000463209
0.000578366
0.000671524
0.00074628
0.000806297
0.000854732
0.000894344
0.000927576
0.000956587
0.000983258
0.00100918
0.00103565
0.00106366
0.00109394
0.00112695
0.00116297
0.00120211
0.00124438
0.00128969
0.0013379
0.00138883
0.00144226
0.00149795
0.00155562
0.00161498
0.00167577
0.00173774
0.00180065
0.00186426
0.00192832
0.0019926
0.00205688
0.00212099
0.00218476
0.00224807
0.00231082
0.00237293
0.0024343
0.00249489
0.00255465
0.00261355
0.00267156
0.00272868
0.00278491
0.00284024
0.0028947
0.00294829
0.00300104
0.00305297
0.0031041
0.00315445
0.00320404
0.00325291
0.00330106
0.00334852
0.00339529
0.00344139
0.00348683
0.00353161
0.00357572
0.00361916
0.00366193
0.00370399
0.00374534
0.00378595
0.00382578
0.00386481
0.003903
0.00394031
0.00397669
0.0040121
0.00404649
0.00407982
0.00411205
0.00414312
0.004173
0.00420166
0.00422907
0.0042552
0.00428003
0.00430354
0.00432573
0.00434659
0.00436611
0.00438431
0.00440119
0.00441677
0.00443108
0.00444415
0.00445602
0.00446673
0.00447636
0.00448495
0.00449254
0.00449916
0.00450482
0.00450952
0.00451327
0.0045161
0.00451803
0.00451909
0.00451927
0.00451863
0.00451731
0.0045159
0.00451454
0.00451162
0.00450773
0.00450329
0.00449829
0.00449257
0.0044862
0.00447924
0.00447167
0.0044635
0.00445475
0.00444545
0.00443561
0.00442509
0.00441387
0.0044019
0.00438916
0.00437561
0.00436122
0.00434593
0.00432972
0.00431255
0.00429438
0.00427517
0.00425488
0.00423349
0.00421097
0.00418729
0.00416245
0.00413643
0.00410922
0.00408082
0.00405123
0.00402046
0.00398855
0.00395553
0.00392146
0.00388622
0.00384979
0.00381217
0.00377326
0.00373283
0.00369091
0.00364767
0.00360336
0.00355821
0.00351245
0.00346626
0.00341983
0.00337332
0.00332692
0.00328078
0.00323505
0.00318992
0.00314551
0.00310192
0.00305936
0.00301795
0.00297807
0.0029398
0.00290349
0.0028691
0.00283639
0.00280499
0.00277483
0.0027454
0.00271628
0.00268787
0.00265929
0.00263026
0.00260326
0.00254817
1.75202e-05
0.000173268
0.000356915
0.000513673
0.000642553
0.000747957
0.000833572
0.00090335
0.000960662
0.00100842
0.00104919
0.0010852
0.0011184
0.00115045
0.00118272
0.00121629
0.00125195
0.00129025
0.00133153
0.00137595
0.00142353
0.00147419
0.0015278
0.00158416
0.00164302
0.00170414
0.00176723
0.00183201
0.00189823
0.0019656
0.00203389
0.00210284
0.00217223
0.00224182
0.00231144
0.00238089
0.00245003
0.00251873
0.00258688
0.00265438
0.00272117
0.00278717
0.00285234
0.00291664
0.00298005
0.00304255
0.00310413
0.0031648
0.00322457
0.00328344
0.00334144
0.00339858
0.00345488
0.00351037
0.00356507
0.003619
0.00367219
0.00372464
0.00377638
0.00382742
0.00387776
0.00392742
0.00397638
0.00402465
0.00407221
0.00411905
0.00416514
0.00421046
0.00425498
0.00429866
0.00434145
0.00438332
0.00442421
0.00446408
0.00450285
0.00454049
0.00457693
0.00461212
0.00464601
0.00467855
0.00470968
0.00473938
0.00476761
0.00479433
0.00481952
0.00484316
0.00486523
0.00488574
0.00490468
0.00492205
0.00493788
0.00495218
0.00496499
0.00497634
0.00498629
0.00499487
0.00500213
0.0050081
0.0050128
0.00501627
0.00501851
0.00501956
0.00501944
0.00501821
0.00501559
0.00501274
0.00500927
0.00500487
0.00499949
0.00499299
0.0049855
0.00497719
0.00496813
0.00495831
0.00494778
0.00493657
0.0049247
0.00491219
0.00489905
0.00488531
0.00487096
0.00485597
0.00484033
0.00482401
0.00480701
0.00478929
0.00477084
0.00475163
0.00473163
0.00471082
0.00468915
0.0046666
0.00464314
0.00461873
0.00459335
0.00456698
0.0045396
0.00451119
0.00448173
0.00445123
0.00441967
0.00438706
0.00435341
0.00431874
0.00428306
0.00424633
0.0042085
0.00416956
0.00412941
0.00408795
0.00404516
0.00400115
0.00395609
0.00391018
0.00386361
0.00381657
0.00376923
0.00372177
0.00367436
0.00362714
0.00358027
0.00353391
0.00348819
0.00344325
0.00339924
0.00335629
0.00331464
0.00327442
0.00323591
0.00319995
0.00316633
0.00313464
0.00310457
0.0030757
0.00304764
0.00302035
0.00299293
0.00296539
0.00293874
0.00289153
1.86122e-05
0.000186287
0.000385146
0.000556251
0.000697828
0.000814735
0.000910676
0.000989831
0.00105575
0.00111146
0.00115961
0.00120247
0.00124203
0.00127997
0.0013177
0.00135633
0.00139673
0.0014395
0.00148503
0.00153354
0.00158509
0.00163963
0.00169705
0.00175714
0.00181969
0.00188445
0.00195113
0.00201949
0.00208924
0.00216014
0.00223193
0.00230437
0.00237725
0.00245036
0.00252352
0.00259655
0.00266931
0.00274167
0.00281351
0.00288476
0.00295531
0.00302512
0.00309412
0.00316229
0.00322958
0.00329599
0.00336149
0.00342609
0.0034898
0.00355261
0.00361456
0.00367564
0.0037359
0.00379534
0.00385399
0.00391187
0.00396901
0.00402542
0.00408112
0.00413613
0.00419045
0.0042441
0.00429707
0.00434935
0.00440094
0.00445182
0.00450197
0.00455136
0.00459996
0.00464773
0.00469461
0.00474056
0.00478553
0.00482944
0.00487223
0.00491385
0.00495421
0.00499325
0.0050309
0.0050671
0.00510178
0.00513488
0.00516635
0.00519615
0.00522422
0.00525052
0.00527504
0.00529775
0.00531863
0.00533768
0.00535491
0.00537031
0.00538393
0.00539577
0.00540589
0.00541431
0.00542109
0.00542625
0.00542984
0.0054319
0.00543246
0.00543156
0.00542913
0.00542477
0.00541962
0.00541415
0.00540771
0.00539973
0.00539051
0.00538009
0.00536857
0.00535605
0.00534263
0.00532833
0.00531323
0.00529737
0.00528079
0.00526353
0.00524561
0.00522708
0.00520795
0.00518824
0.00516795
0.00514709
0.00512566
0.00510366
0.00508109
0.00505795
0.00503421
0.00500985
0.00498486
0.0049592
0.00493286
0.00490581
0.00487802
0.00484946
0.00482012
0.00478998
0.00475903
0.00472725
0.00469463
0.00466116
0.00462683
0.00459164
0.00455557
0.0045186
0.00448068
0.00444177
0.00440177
0.00436061
0.00431825
0.00427473
0.00423018
0.00418476
0.00413866
0.00409205
0.0040451
0.00399797
0.00395081
0.00390378
0.00385703
0.00381071
0.00376495
0.0037199
0.00367569
0.00363247
0.0035904
0.00354963
0.00351039
0.00347329
0.00343924
0.00340764
0.00337801
0.00334992
0.00332299
0.00329705
0.0032716
0.00324638
0.00322122
0.00318112
1.95983e-05
0.000194581
0.000406347
0.000590547
0.000743929
0.000871649
0.00097738
0.00106549
0.00113967
0.00120305
0.00125832
0.00130779
0.00135345
0.00139698
0.00143979
0.00148303
0.00152757
0.00157409
0.00162302
0.00167462
0.00172901
0.00178619
0.00184606
0.00190848
0.00197323
0.00204008
0.00210879
0.00217911
0.00225079
0.00232358
0.00239724
0.00247157
0.00254635
0.00262139
0.00269651
0.00277156
0.0028464
0.00292089
0.00299494
0.00306843
0.00314131
0.00321348
0.00328492
0.00335556
0.00342538
0.00349436
0.00356249
0.00362975
0.00369615
0.00376171
0.00382642
0.00389031
0.00395341
0.00401572
0.00407729
0.00413812
0.00419825
0.0042577
0.00431649
0.00437463
0.00443213
0.00448901
0.00454526
0.00460089
0.00465588
0.00471023
0.0047639
0.00481687
0.0048691
0.00492055
0.00497117
0.0050209
0.00506967
0.00511741
0.00516404
0.0052095
0.00525368
0.00529651
0.0053379
0.00537776
0.00541601
0.00545257
0.00548737
0.00552033
0.00555139
0.00558049
0.00560759
0.00563263
0.0056556
0.00567646
0.00569522
0.00571186
0.00572639
0.00573884
0.00574923
0.00575759
0.00576397
0.0057684
0.00577094
0.00577164
0.00577056
0.00576771
0.00576264
0.0057559
0.00574836
0.00573991
0.00572977
0.0057181
0.00570499
0.00569052
0.00567478
0.00565788
0.00563991
0.00562095
0.00560106
0.00558032
0.0055588
0.00553655
0.00551363
0.0054901
0.005466
0.00544138
0.00541627
0.00539071
0.00536473
0.00533836
0.0053116
0.00528448
0.00525699
0.00522914
0.0052009
0.00517227
0.00514324
0.00511378
0.00508386
0.00505347
0.00502259
0.00499121
0.00495931
0.00492688
0.00489388
0.00486029
0.00482609
0.00479125
0.00475573
0.0047195
0.0046825
0.00464467
0.00460591
0.00456611
0.00452519
0.00448316
0.00444011
0.00439618
0.00435154
0.00430636
0.00426079
0.00421497
0.00416906
0.0041232
0.00407753
0.00403221
0.00398737
0.00394315
0.00389969
0.00385714
0.00381565
0.00377536
0.00373647
0.00369943
0.00366547
0.00363438
0.00360551
0.00357838
0.00355267
0.00352814
0.00350448
0.00348145
0.00345853
0.00342468
2.04164e-05
0.00020028
0.000422148
0.000617411
0.000781201
0.000918694
0.00103345
0.00112991
0.00121185
0.00128247
0.00134447
0.00140018
0.00145157
0.00150031
0.00154779
0.00159516
0.00164332
0.00169295
0.00174454
0.00179839
0.00185468
0.00191344
0.00197464
0.00203816
0.00210382
0.00217145
0.00224081
0.00231168
0.00238384
0.00245707
0.00253116
0.00260591
0.00268113
0.00275665
0.00283231
0.00290795
0.00298344
0.00305867
0.00313352
0.0032079
0.00328172
0.00335493
0.00342746
0.00349927
0.00357033
0.00364062
0.00371013
0.00377884
0.00384675
0.00391388
0.00398024
0.00404584
0.00411071
0.00417487
0.00423836
0.0043012
0.00436341
0.00442503
0.00448607
0.00454655
0.0046065
0.00466591
0.00472481
0.00478318
0.00484103
0.00489835
0.0049551
0.00501125
0.00506678
0.00512164
0.00517576
0.00522908
0.00528153
0.00533303
0.00538348
0.00543279
0.00548087
0.0055276
0.00557287
0.00561659
0.00565865
0.00569893
0.00573734
0.00577378
0.00580817
0.00584041
0.00587044
0.00589819
0.00592361
0.00594666
0.00596731
0.00598554
0.00600136
0.00601475
0.00602575
0.00603437
0.00604066
0.00604466
0.00604642
0.00604601
0.00604351
0.00603868
0.00603156
0.00602274
0.00601267
0.00600106
0.00598756
0.00597231
0.0059554
0.00593693
0.005917
0.00589571
0.00587318
0.00584951
0.00582478
0.0057991
0.00577255
0.00574523
0.0057172
0.00568857
0.0056594
0.00562977
0.00559974
0.00556939
0.00553877
0.00550793
0.00547692
0.00544577
0.00541452
0.00538316
0.00535171
0.00532017
0.00528854
0.00525682
0.00522498
0.00519299
0.00516086
0.00512859
0.00509615
0.00506353
0.00503068
0.00499755
0.00496411
0.00493029
0.00489605
0.00486132
0.00482604
0.00479014
0.00475349
0.00471591
0.00467727
0.00463756
0.00459682
0.00455518
0.00451281
0.00446986
0.00442648
0.00438278
0.0043389
0.00429499
0.00425118
0.00420761
0.00416444
0.00412181
0.00407985
0.00403872
0.00399857
0.00395954
0.00392183
0.00388584
0.00385278
0.00382268
0.00379485
0.00376888
0.00374445
0.00372134
0.00369932
0.00367822
0.00365728
0.00362882
2.10818e-05
0.000203929
0.000433253
0.000637349
0.000809931
0.000955769
0.00107866
0.00118267
0.00127168
0.0013489
0.00141707
0.00147849
0.00153511
0.00158856
0.00164022
0.00169121
0.00174243
0.00179457
0.00184815
0.00190351
0.00196087
0.00202031
0.00208185
0.0021454
0.00221086
0.00227806
0.00234683
0.00241697
0.0024883
0.00256063
0.00263379
0.00270759
0.00278188
0.00285651
0.00293132
0.00300619
0.00308099
0.00315559
0.0032299
0.00330382
0.00337727
0.00345018
0.0035225
0.00359418
0.00366521
0.00373555
0.00380519
0.00387413
0.00394237
0.00400992
0.00407678
0.00414299
0.00420856
0.00427354
0.00433796
0.00440186
0.00446526
0.00452818
0.00459066
0.00465272
0.00471439
0.00477569
0.00483662
0.00489719
0.00495739
0.00501723
0.00507668
0.00513571
0.00519428
0.00525234
0.00530984
0.00536669
0.00542281
0.00547811
0.0055325
0.00558584
0.00563804
0.00568895
0.00573844
0.0057864
0.00583267
0.00587713
0.00591964
0.00596008
0.00599832
0.00603427
0.00606781
0.00609885
0.00612732
0.00615315
0.00617629
0.0061967
0.00621436
0.00622927
0.00624142
0.00625084
0.00625755
0.00626161
0.00626306
0.00626198
0.00625842
0.00625219
0.00624357
0.00623294
0.00622046
0.00620601
0.00618948
0.00617094
0.00615049
0.00612824
0.0061043
0.00607879
0.00605185
0.00602358
0.00599412
0.00596357
0.00593206
0.00589969
0.00586659
0.00583286
0.00579861
0.00576395
0.00572899
0.0056938
0.0056585
0.00562315
0.00558783
0.00555262
0.00551756
0.00548269
0.00544803
0.0054136
0.00537943
0.00534555
0.00531192
0.00527851
0.00524533
0.00521241
0.00517974
0.00514727
0.00511497
0.00508275
0.00505056
0.0050183
0.0049859
0.00495328
0.00492036
0.00488708
0.00485326
0.00481862
0.00478298
0.00474628
0.00470853
0.00466983
0.00463041
0.00459039
0.00454987
0.00450896
0.00446779
0.00442649
0.00438518
0.004344
0.00430313
0.00426269
0.00422285
0.00418375
0.00414556
0.00410843
0.00407258
0.00403841
0.00400706
0.00397839
0.00395189
0.00392722
0.00390413
0.00388243
0.00386194
0.00384253
0.00382337
0.00379909
2.1603e-05
0.000205786
0.000440115
0.000650858
0.000830535
0.000983254
0.00111289
0.00122336
0.00131848
0.00140147
0.00147503
0.00154143
0.00160259
0.0016601
0.0017153
0.00176928
0.00182292
0.00187693
0.00193181
0.00198795
0.00204559
0.00210487
0.00216582
0.00222844
0.00229265
0.00235832
0.00242532
0.00249351
0.00256273
0.00263285
0.00270374
0.00277526
0.00284727
0.00291965
0.00299227
0.00306502
0.00313777
0.00321042
0.00328285
0.00335497
0.0034267
0.00349797
0.00356875
0.00363898
0.00370866
0.00377776
0.00384627
0.0039142
0.00398154
0.00404832
0.00411453
0.00418021
0.00424537
0.00431011
0.00437447
0.00443847
0.00450214
0.00456551
0.00462863
0.00469152
0.00475422
0.00481675
0.00487913