/*--------------------------------*- C++ -*----------------------------------*\
| =========                 |                                                 |
| \\      /  F ield         | OpenFOAM: The Open Source CFD Toolbox           |
|  \\    /   O peration     | Version:  2306                                  |
|   \\  /    A nd           | Website:  www.openfoam.com                      |
|    \\/     M anipulation  |                                                 |
\*---------------------------------------------------------------------------*/
FoamFile
{
    version     2.0;
    format      ascii;
    arch        "LSB;label=32;scalar=64";
    class       volScalarField;
    location    "100";
    object      p;
}
// * * * * * * * * * * * * * * * * * * * * * * * * * * * * * * * * * * * * * //

dimensions      [0 2 -2 0 0 0 0];

internalField   nonuniform List<scalar> 
12225
(
-2.52213
-4.67973
-5.77291
-6.08765
-6.26586
-6.4463
-6.59642
-6.71058
-6.80511
-6.89133
-6.97261
-7.05026
-7.1259
-7.2015
-7.27998
-7.36163
-7.46161
-7.53213
-5.65229
-6.44016
-6.64589
-6.55884
-6.53522
-6.6012
-6.68629
-6.7631
-6.83547
-6.90796
-6.98045
-7.05225
-7.12384
-7.1964
-7.27199
-7.35246
-7.44336
-7.5591
-6.0323
-5.96653
-6.08664
-6.17472
-6.28446
-6.42864
-6.56542
-6.67831
-6.77514
-6.86402
-6.94761
-7.02695
-7.10357
-7.17923
-7.25624
-7.33625
-7.42438
-7.51843
-5.90496
-5.81784
-6.0776
-6.27082
-6.39468
-6.51755
-6.63312
-6.72987
-6.81379
-6.89219
-6.9675
-7.04027
-7.11147
-7.18244
-7.25471
-7.32922
-7.40722
-7.48253
-5.89648
-5.9113
-6.15889
-6.32497
-6.41922
-6.51928
-6.62349
-6.71625
-6.79902
-6.87723
-6.95276
-7.02579
-7.09702
-7.16748
-7.23819
-7.30939
-7.38055
-7.44714
-5.95741
-6.00273
-6.18985
-6.33084
-6.42231
-6.52004
-6.62251
-6.71518
-6.79809
-6.87597
-6.95074
-7.02272
-7.09253
-7.16099
-7.22872
-7.2955
-7.36033
-7.41963
-6.01987
-6.06237
-6.20698
-6.33829
-6.43369
-6.52901
-6.62687
-6.71671
-6.79782
-6.87396
-6.94697
-7.01722
-7.08513
-7.15123
-7.21579
-7.27837
-7.3378
-7.39113
-6.07519
-6.11261
-6.23068
-6.35248
-6.44731
-6.5379
-6.63015
-6.71671
-6.7959
-6.87034
-6.94167
-7.01022
-7.07622
-7.13996
-7.20148
-7.26023
-7.3151
-7.36384
-6.12671
-6.16077
-6.25889
-6.36864
-6.45995
-6.54594
-6.63309
-6.71636
-6.79348
-6.86607
-6.93555
-7.00222
-7.06613
-7.12738
-7.18589
-7.24111
-7.29211
-7.33718
-6.1755
-6.2063
-6.28821
-6.38566
-6.47237
-6.55417
-6.63651
-6.71619
-6.79085
-6.86133
-6.92874
-6.99329
-7.05493
-7.11362
-7.16923
-7.22124
-7.26894
-7.31104
-6.22134
-6.24865
-6.31755
-6.4037
-6.48511
-6.56267
-6.64033
-6.7162
-6.7881
-6.85624
-6.92138
-6.98366
-7.04292
-7.09905
-7.15188
-7.201
-7.24587
-7.28555
-6.26047
-6.28466
-6.34403
-6.42088
-6.49695
-6.57048
-6.64401
-6.71631
-6.78549
-6.85131
-6.91422
-6.9743
-7.03135
-7.08517
-7.1356
-7.1823
-7.22491
-7.26273
-6.29633
-6.31784
-6.36938
-6.43793
-6.5086
-6.57811
-6.64766
-6.71645
-6.78282
-6.84624
-6.90685
-6.9647
-7.01954
-7.07115
-7.11933
-7.16384
-7.20445
-7.24067
-6.33347
-6.35235
-6.39658
-6.45689
-6.52156
-6.58648
-6.65168
-6.71652
-6.77963
-6.84023
-6.89819
-6.95344
-7.0058
-7.05499
-7.10083
-7.1431
-7.18171
-7.21635
-6.37034
-6.38666
-6.42435
-6.47688
-6.53521
-6.59508
-6.65564
-6.7162
-6.77564
-6.83305
-6.88803
-6.9404
-6.99002
-7.03665
-7.0801
-7.12015
-7.15681
-7.18994
-6.40458
-6.41855
-6.45061
-6.4962
-6.54827
-6.6029
-6.65874
-6.71492
-6.77041
-6.82436
-6.87615
-6.92551
-6.97224
-7.01627
-7.05734
-7.09532
-7.13013
-7.16184
-6.43273
-6.44473
-6.4723
-6.51211
-6.55856
-6.60824
-6.65959
-6.71155
-6.76314
-6.8136
-6.86227
-6.90865
-6.95257
-6.99402
-7.03289
-7.06896
-7.10215
-7.13251
-6.44976
-6.46034
-6.48474
-6.52035
-6.56253
-6.60826
-6.65594
-6.70436
-6.75261
-6.80001
-6.84593
-6.88973
-6.93119
-6.97036
-7.0073
-7.04177
-7.07362
-7.10285
-6.44793
-6.45783
-6.48079
-6.5145
-6.55468
-6.59837
-6.64402
-6.69043
-6.73669
-6.78214
-6.82621
-6.86829
-6.9081
-6.9457
-6.98126
-7.0146
-7.04554
-7.07405
-6.42182
-6.4322
-6.45628
-6.4916
-6.53344
-6.57834
-6.62473
-6.67163
-6.71826
-6.76383
-6.80784
-6.84969
-6.88928
-6.92656
-6.96174
-6.99462
-7.02517
-7.05339
-6.38622
-6.39748
-6.42397
-6.46305
-6.50861
-6.55637
-6.60499
-6.65392
-6.70217
-6.74895
-6.79367
-6.83616
-6.87623
-6.91398
-6.94933
-6.98233
-7.01286
-7.0413
-6.3429
-6.35486
-6.38509
-6.43074
-6.48187
-6.53308
-6.58459
-6.63655
-6.68753
-6.73626
-6.78237
-6.82588
-6.86682
-6.90518
-6.94092
-6.97408
-7.00474
-7.03322
-6.29521
-6.30646
-6.34117
-6.39681
-6.45559
-6.51076
-6.56542
-6.62059
-6.67434
-6.72526
-6.77316
-6.81816
-6.86033
-6.8996
-6.93606
-6.96975
-7.00096
-7.02998
-6.24562
-6.25453
-6.29554
-6.36251
-6.42804
-6.48817
-6.54842
-6.60811
-6.6645
-6.71703
-6.76624
-6.81233
-6.85521
-6.89493
-6.93161
-6.96547
-6.99672
-7.02566
-6.1941
-6.19522
-6.2578
-6.3389
-6.4017
-6.46146
-6.52798
-6.59441
-6.65535
-6.71114
-6.76311
-6.81148
-6.85603
-6.89687
-6.93428
-6.96864
-7.00028
-7.02992
-6.14758
-6.09893
-6.21441
-6.3354
-6.39719
-6.44884
-6.51241
-6.57796
-6.63827
-6.69407
-6.74673
-6.79611
-6.84172
-6.88359
-6.922
-6.95733
-6.98982
-7.01981
-6.16451
-5.96632
-6.09917
-6.27671
-6.38131
-6.46092
-6.53922
-6.6103
-6.67195
-6.72745
-6.7788
-6.82617
-6.86931
-6.90857
-6.94435
-6.97714
-7.00752
-7.03671
-6.3053
-6.05766
-6.03387
-6.08835
-6.1705
-6.27803
-6.38805
-6.48438
-6.56765
-6.64226
-6.70991
-6.77062
-6.82461
-6.87266
-6.91546
-6.95374
-6.98843
-7.02109
-6.03324
-6.66373
-6.78211
-6.64144
-6.55284
-6.55908
-6.59994
-6.64339
-6.68738
-6.73369
-6.78056
-6.82573
-6.86791
-6.90687
-6.94253
-6.97482
-7.00429
-7.03256
-2.97874
-4.74565
-5.75852
-6.03935
-6.16487
-6.30641
-6.43499
-6.53423
-6.61485
-6.68611
-6.75014
-6.80704
-6.85742
-6.90201
-6.94136
-6.97573
-7.00547
-7.0293
-8.13061
-8.12984
-8.12944
-8.13088
-8.13399
-8.13804
-8.14261
-8.14729
-8.15184
-8.15623
-8.16066
-8.16534
-8.17048
-8.17615
-8.18246
-8.18955
-8.19759
-8.20672
-8.21711
-8.2289
-8.24229
-8.25745
-8.27452
-8.29361
-8.31485
-8.33828
-8.36396
-8.39184
-8.42188
-8.45392
-8.48782
-8.52329
-8.5601
-8.5979
-8.6364
-8.67521
-8.71405
-8.75254
-8.79042
-8.82738
-8.86319
-8.89761
-8.93047
-8.96159
-8.99084
-9.0181
-9.04328
-9.06628
-9.08704
-9.10551
-9.12162
-9.13535
-9.14663
-9.15545
-9.16174
-9.1655
-9.16666
-9.16522
-9.16107
-9.15427
-9.14471
-9.13244
-9.11733
-9.09947
-9.07872
-9.05522
-9.02879
-8.9996
-8.96749
-8.93264
-8.89488
-8.85444
-8.81111
-8.76517
-8.71644
-8.66522
-8.61129
-8.55493
-8.49594
-8.43469
-8.37093
-8.30493
-8.2364
-8.16564
-8.09229
-8.01668
-7.93838
-7.85748
-7.77336
-7.6858
-7.59492
-7.50046
-7.40212
-7.29948
-7.19225
-7.08
-6.96236
-6.83881
-6.70887
-6.57187
-6.42713
-6.27386
-6.1112
-5.93823
-5.75395
-5.55763
-5.34847
-5.12583
-4.88898
-4.63734
-4.37024
-4.0873
-3.78794
-3.47187
-3.13864
-2.78808
-2.41993
-2.0343
-1.63134
-1.21155
-0.775426
-0.323624
0.14321
0.624145
1.11811
1.62371
2.13949
2.66377
3.19484
3.73083
4.26984
4.80988
5.34896
5.8851
6.41634
6.94076
7.45653
7.96187
8.45515
8.93484
9.39958
9.84817
10.2795
10.6928
11.0874
11.4629
11.819
12.1558
12.4737
12.773
13.0536
13.3157
13.5594
13.7853
13.994
14.1863
14.363
14.5248
14.6727
14.8076
14.9302
15.0414
15.1422
15.2332
15.3153
15.3892
15.4556
15.5152
15.5686
15.6167
15.6601
15.6997
15.7363
15.7711
15.8058
15.8429
15.888
15.9486
16.0513
16.185
-8.13268
-8.13163
-8.13144
-8.1339
-8.13732
-8.14043
-8.14305
-8.14527
-8.14714
-8.14878
-8.15041
-8.15225
-8.15453
-8.15748
-8.1613
-8.16603
-8.17172
-8.17846
-8.18641
-8.19577
-8.20673
-8.21952
-8.23433
-8.25134
-8.27072
-8.29252
-8.31684
-8.34366
-8.37294
-8.40451
-8.4382
-8.4737
-8.51074
-8.54894
-8.58795
-8.62735
-8.66679
-8.7059
-8.74435
-8.78185
-8.81815
-8.853
-8.88625
-8.91771
-8.94727
-8.97481
-9.00024
-9.0235
-9.04451
-9.06323
-9.07959
-9.09358
-9.10513
-9.11423
-9.12081
-9.12486
-9.12632
-9.12517
-9.12135
-9.11486
-9.10562
-9.09364
-9.07884
-9.06126
-9.04081
-9.01754
-8.99138
-8.96239
-8.93049
-8.89579
-8.85821
-8.81786
-8.77468
-8.72881
-8.68019
-8.62899
-8.57512
-8.51874
-8.45981
-8.39852
-8.33478
-8.26877
-8.20038
-8.12976
-8.05672
-7.98139
-7.90359
-7.82328
-7.73999
-7.65369
-7.56429
-7.47158
-7.37519
-7.27473
-7.1698
-7.05997
-6.94478
-6.82375
-6.69632
-6.56183
-6.41964
-6.26897
-6.10908
-5.93916
-5.75856
-5.56628
-5.36159
-5.14367
-4.91183
-4.66535
-4.40366
-4.12618
-3.83255
-3.52227
-3.19502
-2.85045
-2.4884
-2.10879
-1.71184
-1.29796
-0.867673
-0.42155
0.0397991
0.515525
1.00456
1.50559
2.0172
2.53777
3.06562
3.59891
4.13576
4.67422
5.2123
5.74799
6.27934
6.80439
7.32127
7.82818
8.32343
8.80548
9.2729
9.72444
10.159
10.5757
10.9739
11.3531
11.7129
12.0533
12.3742
12.6761
12.9595
13.2244
13.4713
13.7005
13.9127
14.1085
14.2887
14.4541
14.6054
14.7437
14.8697
14.9842
15.0881
15.1821
15.2671
15.3437
15.4128
15.4749
15.5308
15.5812
15.6268
15.6685
15.7072
15.7441
15.7809
15.8199
15.8662
15.9241
16.0171
16.1289
-8.12878
-8.12865
-8.12919
-8.13176
-8.1347
-8.1367
-8.13762
-8.1377
-8.13717
-8.13628
-8.13531
-8.13459
-8.13441
-8.13499
-8.13644
-8.13887
-8.14238
-8.14715
-8.15338
-8.1613
-8.17115
-8.18314
-8.19747
-8.21426
-8.23367
-8.25574
-8.28046
-8.30774
-8.33743
-8.36929
-8.40306
-8.43841
-8.47504
-8.51258
-8.5507
-8.58908
-8.62739
-8.66534
-8.70264
-8.73904
-8.77432
-8.80827
-8.84072
-8.87151
-8.90052
-8.92761
-8.95271
-8.97572
-8.99657
-9.0152
-9.03155
-9.04557
-9.05721
-9.06643
-9.07317
-9.07742
-9.07911
-9.0782
-9.07465
-9.06844
-9.0595
-9.04782
-9.03334
-9.01606
-8.99593
-8.97296
-8.9471
-8.91837
-8.88676
-8.8523
-8.81498
-8.77484
-8.7319
-8.68623
-8.63785
-8.58683
-8.53319
-8.477
-8.41832
-8.35724
-8.29377
-8.22799
-8.15994
-8.08967
-8.01713
-7.94234
-7.86526
-7.78574
-7.70355
-7.61856
-7.5308
-7.44003
-7.34582
-7.24789
-7.14576
-7.03908
-6.92727
-6.80988
-6.68623
-6.55572
-6.41764
-6.2713
-6.11601
-5.95096
-5.77545
-5.58856
-5.38959
-5.17759
-4.95193
-4.7118
-4.45669
-4.18599
-3.89929
-3.59598
-3.27579
-2.93829
-2.58338
-2.21092
-1.82113
-1.41436
-0.991098
-0.551802
-0.0971124
0.372196
0.855055
1.35025
1.85637
2.37189
2.89514
3.42434
3.95764
4.4931
5.02876
5.56262
6.0927
6.61704
7.13375
7.64103
8.13715
8.62058
9.08989
9.54386
9.9814
10.4017
10.804
11.1878
11.5528
11.8989
12.226
12.5344
12.8242
13.0956
13.3488
13.5843
13.8026
14.0043
14.1903
14.3612
14.518
14.6613
14.7922
14.9113
15.0196
15.1178
15.2067
15.287
15.3596
15.425
15.484
15.5373
15.5857
15.63
15.6712
15.7104
15.7493
15.7901
15.8369
15.892
15.9731
16.0521
-8.11735
-8.11976
-8.12263
-8.12614
-8.12918
-8.13099
-8.13157
-8.1312
-8.13016
-8.12868
-8.12702
-8.12548
-8.12432
-8.1238
-8.12415
-8.12557
-8.12831
-8.13256
-8.13854
-8.14643
-8.15642
-8.16867
-8.18331
-8.20041
-8.22004
-8.24218
-8.26681
-8.29382
-8.32306
-8.35431
-8.38734
-8.42185
-8.45755
-8.49412
-8.53126
-8.56864
-8.60596
-8.64292
-8.67927
-8.71474
-8.74914
-8.78227
-8.81394
-8.84402
-8.87237
-8.89888
-8.92345
-8.946
-8.96645
-8.98473
-9.00078
-9.01456
-9.02599
-9.03505
-9.04168
-9.04583
-9.04746
-9.04652
-9.04295
-9.03674
-9.02782
-9.01617
-9.00174
-8.9845
-8.96442
-8.94149
-8.91568
-8.887
-8.85544
-8.82101
-8.78373
-8.74363
-8.70074
-8.65512
-8.60681
-8.55588
-8.50237
-8.44635
-8.38788
-8.32703
-8.26387
-8.19844
-8.13081
-8.06102
-7.98905
-7.91491
-7.8386
-7.75999
-7.67884
-7.59519
-7.50891
-7.41977
-7.32747
-7.23163
-7.13191
-7.02782
-6.9189
-6.80459
-6.68427
-6.55728
-6.42295
-6.28059
-6.12946
-5.96882
-5.79782
-5.6157
-5.42159
-5.21466
-4.99415
-4.7594
-4.50978
-4.24473
-3.96363
-3.66597
-3.35135
-3.01944
-2.67006
-2.30315
-1.91886
-1.51751
-1.09953
-0.665344
-0.215571
0.249002
0.727336
1.21825
1.72037
2.2322
2.7521
3.27833
3.80904
4.34231
4.87618
5.40865
5.93773
6.46146
6.97793
7.48534
7.98196
8.46629
8.93692
9.39266
9.83247
10.2555
10.6611
11.0487
11.418
11.7686
12.1006
12.414
12.7088
12.9852
13.2435
13.484
13.7072
13.9138
14.1045
14.28
14.4412
14.5889
14.7239
14.8469
14.9589
15.0606
15.1528
15.2363
15.3118
15.3799
15.4415
15.4973
15.5479
15.5943
15.6374
15.6783
15.7184
15.7597
15.8054
15.8559
15.923
15.9728
-8.09856
-8.10375
-8.11042
-8.11638
-8.12075
-8.12342
-8.1246
-8.12464
-8.12387
-8.12256
-8.12099
-8.11946
-8.11828
-8.11773
-8.11811
-8.11964
-8.1226
-8.12719
-8.13361
-8.14203
-8.15262
-8.16549
-8.18076
-8.19849
-8.2187
-8.24135
-8.26637
-8.2936
-8.32288
-8.35397
-8.38665
-8.42064
-8.45566
-8.4914
-8.5276
-8.56394
-8.60016
-8.636
-8.67123
-8.7056
-8.73893
-8.77104
-8.80176
-8.83094
-8.85847
-8.88422
-8.9081
-8.93003
-8.94991
-8.96769
-8.98328
-8.99665
-9.00772
-9.01645
-9.02277
-9.02665
-9.02801
-9.02682
-9.02302
-9.01658
-9.00742
-8.99554
-8.98086
-8.96338
-8.94305
-8.91986
-8.89378
-8.86482
-8.83297
-8.79825
-8.76068
-8.7203
-8.67714
-8.63127
-8.58274
-8.53163
-8.478
-8.42193
-8.3635
-8.30278
-8.23985
-8.17477
-8.1076
-8.03839
-7.96715
-7.89388
-7.81858
-7.74114
-7.66145
-7.57928
-7.49483
-7.40762
-7.31747
-7.22396
-7.1268
-7.02547
-6.91956
-6.80844
-6.69155
-6.5682
-6.4377
-6.29938
-6.15241
-5.99609
-5.82945
-5.65182
-5.46216
-5.25985
-5.04397
-4.81401
-4.56915
-4.30887
-4.03238
-3.73932
-3.42911
-3.10157
-2.75639
-2.39363
-2.0133
-1.61578
-1.20136
-0.770524
-0.323822
0.137876
0.613607
1.10215
1.6022
2.11223
2.63064
3.15568
3.68549
4.21818
4.75174
5.28418
5.81349
6.3377
6.85488
7.36323
7.86107
8.34686
8.81926
9.27705
9.71921
10.1448
10.5533
10.9439
11.3163
11.6703
12.0057
12.3226
12.621
12.9009
13.1627
13.4068
13.6335
13.8436
14.0378
14.2167
14.3811
14.532
14.67
14.7961
14.9109
15.0153
15.11
15.1959
15.2736
15.3438
15.4073
15.4648
15.517
15.5648
15.609
15.6507
15.6911
15.7317
15.7748
15.8193
15.8735
15.8997
-8.07527
-8.08315
-8.09451
-8.10359
-8.10986
-8.114
-8.11641
-8.11745
-8.11754
-8.11698
-8.1161
-8.11521
-8.11465
-8.11472
-8.11575
-8.11799
-8.12172
-8.12716
-8.1345
-8.1439
-8.15549
-8.16938
-8.18563
-8.20425
-8.22524
-8.24851
-8.27399
-8.30148
-8.33083
-8.36178
-8.39412
-8.42758
-8.4619
-8.49682
-8.53208
-8.56742
-8.60259
-8.63735
-8.67149
-8.7048
-8.7371
-8.76821
-8.79798
-8.82627
-8.85297
-8.87795
-8.90112
-8.92239
-8.94167
-8.95889
-8.97398
-8.98688
-8.99751
-9.00582
-9.01175
-9.01524
-9.01622
-9.01465
-9.01047
-9.00363
-8.99408
-8.98177
-8.96665
-8.94871
-8.92789
-8.90419
-8.87758
-8.84807
-8.81566
-8.78037
-8.74222
-8.70127
-8.65756
-8.61115
-8.56213
-8.51058
-8.45657
-8.40022
-8.3416
-8.28082
-8.21795
-8.1531
-8.08632
-8.01768
-7.9472
-7.87489
-7.80077
-7.72475
-7.64655
-7.56641
-7.48394
-7.39908
-7.31141
-7.22067
-7.12642
-7.02827
-6.9257
-6.81816
-6.70502
-6.58563
-6.45928
-6.3252
-6.18264
-6.03075
-5.86868
-5.69553
-5.51046
-5.3127
-5.1015
-4.87611
-4.63581
-4.37989
-4.10771
-3.81875
-3.51254
-3.18877
-2.84723
-2.48789
-2.11082
-1.71627
-1.30452
-0.876046
-0.43143
0.028481
0.502701
0.99004
1.48917
1.9986
2.5167
3.04172
3.5718
4.10501
4.63934
5.17277
5.70329
6.22889
6.74769
7.25785
7.75773
8.24579
8.72064
9.18104
9.62594
10.0544
10.4658
10.8594
11.2348
11.5918
11.9302
12.25
12.5513
12.8341
13.0987
13.3455
13.5751
13.7879
13.9847
14.1662
14.3332
14.4865
14.6269
14.7553
14.8723
14.9788
15.0756
15.1634
15.2428
15.3147
15.3796
15.4384
15.4917
15.5404
15.5852
15.627
15.667
15.7059
15.7456
15.7837
15.8265
15.8337
-8.05118
-8.06143
-8.07747
-8.08969
-8.09803
-8.10394
-8.1079
-8.11031
-8.11164
-8.11224
-8.11249
-8.1127
-8.11324
-8.11442
-8.11656
-8.11994
-8.12483
-8.13143
-8.13995
-8.15053
-8.16328
-8.17827
-8.19553
-8.21504
-8.23676
-8.2606
-8.28644
-8.31411
-8.34344
-8.37421
-8.40619
-8.43915
-8.47286
-8.50705
-8.54149
-8.57595
-8.61019
-8.644
-8.67718
-8.70953
-8.74088
-8.77108
-8.79998
-8.82744
-8.85335
-8.8776
-8.90008
-8.92071
-8.93939
-8.95606
-8.97062
-8.98301
-8.99316
-9.00101
-9.00647
-9.0095
-9.01002
-9.00797
-9.00329
-8.99593
-8.98582
-8.97293
-8.9572
-8.9386
-8.9171
-8.89268
-8.86532
-8.83503
-8.80181
-8.7657
-8.72672
-8.68495
-8.64042
-8.59324
-8.54349
-8.49126
-8.43666
-8.37981
-8.32082
-8.2598
-8.19686
-8.13211
-8.06564
-7.9975
-7.92776
-7.85644
-7.78355
-7.70897
-7.63266
-7.55443
-7.47432
-7.39203
-7.30714
-7.21945
-7.12846
-7.03382
-6.93493
-6.83129
-6.72224
-6.60708
-6.48512
-6.35551
-6.21758
-6.07028
-5.91288
-5.74432
-5.56396
-5.37081
-5.16427
-4.94335
-4.70746
-4.45571
-4.18763
-3.90249
-3.59998
-3.27963
-2.94138
-2.58502
-2.21073
-1.81858
-1.40895
-0.982206
-0.539047
-0.0802412
0.393159
0.880016
1.37897
1.88852
2.40705
2.93276
3.4638
3.99819
4.53393
5.06898
5.6013
6.1289
6.64989
7.16247
7.66493
8.15574
8.63345
9.09683
9.54475
9.97631
10.3907
10.7874
11.1659
11.5258
11.8671
12.1896
12.4935
12.7789
13.046
13.2952
13.527
13.7421
13.9411
14.1247
14.2938
14.4491
14.5915
14.7217
14.8405
14.9488
15.0472
15.1366
15.2175
15.2906
15.3568
15.4165
15.4707
15.5199
15.5649
15.6064
15.6454
15.6822
15.7179
15.7496
15.7825
15.7743
-8.0295
-8.04156
-8.06159
-8.07654
-8.0868
-8.09445
-8.10004
-8.10395
-8.10666
-8.10862
-8.1102
-8.11174
-8.11362
-8.11612
-8.1196
-8.12429
-8.13048
-8.13835
-8.14811
-8.15986
-8.17372
-8.18971
-8.20787
-8.22816
-8.25051
-8.27482
-8.30097
-8.32878
-8.35808
-8.38867
-8.42034
-8.45286
-8.48601
-8.51956
-8.55329
-8.58697
-8.6204
-8.65338
-8.68572
-8.71724
-8.74778
-8.77719
-8.80533
-8.83206
-8.85729
-8.88089
-8.90276
-8.92281
-8.94095
-8.9571
-8.97116
-8.98308
-8.99275
-9.00013
-9.00511
-9.00764
-9.00764
-9.00505
-8.99978
-8.9918
-8.98102
-8.96741
-8.95091
-8.93149
-8.90912
-8.88377
-8.85545
-8.82415
-8.7899
-8.75273
-8.71269
-8.66985
-8.6243
-8.57611
-8.5254
-8.4723
-8.41692
-8.35941
-8.2999
-8.23852
-8.1754
-8.11068
-8.04446
-7.97682
-7.90784
-7.83754
-7.76595
-7.693
-7.61852
-7.54259
-7.46499
-7.38543
-7.30364
-7.21923
-7.13184
-7.04097
-6.9461
-6.84666
-6.74198
-6.63136
-6.514
-6.38915
-6.25593
-6.11346
-5.96077
-5.79702
-5.62137
-5.43298
-5.23097
-5.01453
-4.78286
-4.53522
-4.27097
-3.98951
-3.69038
-3.37323
-3.03786
-2.68417
-2.31218
-1.922
-1.51395
-1.08846
-0.64619
-0.187962
0.285198
0.77213
1.27147
1.78171
2.30119
2.82812
3.3606
3.89667
4.43428
4.97139
5.50597
6.03602
6.55963
7.07499
7.58037
8.0742
8.55501
9.02153
9.47261
9.90732
10.3248
10.7246
11.106
11.4688
11.8128
12.138
12.4444
12.7321
13.0014
13.2528
13.4867
13.7037
13.9046
14.0901
14.2609
14.4179
14.5619
14.6936
14.814
14.9236
15.0234
15.114
15.1961
15.2704
15.3375
15.3981
15.4528
15.5023
15.5473
15.5882
15.6258
15.6602
15.6919
15.7173
15.7416
15.7209
-8.01239
-8.0257
-8.04861
-8.06561
-8.0774
-8.08655
-8.09362
-8.09892
-8.10299
-8.10629
-8.10923
-8.11214
-8.11538
-8.11925
-8.12407
-8.13008
-8.13754
-8.14663
-8.15753
-8.17034
-8.18517
-8.20202
-8.22093
-8.24182
-8.26466
-8.28931
-8.31565
-8.34352
-8.37276
-8.40316
-8.43452
-8.46664
-8.4993
-8.5323
-8.56542
-8.59845
-8.63121
-8.66349
-8.69514
-8.72598
-8.75585
-8.78462
-8.81214
-8.8383
-8.86297
-8.88604
-8.90742
-8.927
-8.94469
-8.96039
-8.97403
-8.98551
-8.99475
-9.00167
-9.00618
-9.0082
-9.00765
-9.00447
-8.99855
-8.98986
-8.97831
-8.96386
-8.94644
-8.92604
-8.90261
-8.87616
-8.84666
-8.81414
-8.77862
-8.74016
-8.69882
-8.65468
-8.60784
-8.55843
-8.50656
-8.45238
-8.39604
-8.3377
-8.27753
-8.21568
-8.15231
-8.08756
-8.02157
-7.95445
-7.88626
-7.81707
-7.74689
-7.67566
-7.60335
-7.52971
-7.45488
-7.37833
-7.29986
-7.21902
-7.1355
-7.04871
-6.95817
-6.86323
-6.76321
-6.65741
-6.54493
-6.42507
-6.29676
-6.15927
-6.01147
-5.85271
-5.68188
-5.49829
-5.30083
-5.08884
-4.86132
-4.61771
-4.35714
-4.07918
-3.78321
-3.46901
-3.13624
-2.78487
-2.41478
-2.02618
-1.61927
-1.19461
-0.752781
-0.294694
0.17868
0.666115
1.16627
1.6776
2.19843
2.72696
3.26126
3.79938
4.33927
4.87886
5.41611
5.949
6.4756
6.99404
7.50262
7.99966
8.48375
8.95351
9.40783
9.84571
10.2664
10.6691
11.0534
11.419
11.7657
12.0933
12.402
12.6919
12.9633
13.2166
13.4523
13.6711
13.8737
14.0608
14.2331
14.3915
14.5369
14.6699
14.7915
14.9023
15.0032
15.0949
15.178
15.2532
15.3211
15.3823
15.4374
15.4871
15.5317
15.5719
15.6079
15.6397
15.6674
15.687
15.7038
15.6729
-8.00114
-8.01513
-8.03954
-8.05774
-8.07055
-8.0808
-8.08903
-8.0955
-8.10074
-8.10524
-8.10942
-8.11359
-8.1181
-8.12323
-8.12929
-8.1365
-8.1451
-8.15525
-8.16714
-8.18083
-8.19644
-8.21396
-8.23342
-8.25475
-8.2779
-8.30274
-8.32916
-8.357
-8.3861
-8.41627
-8.44733
-8.47907
-8.51131
-8.54382
-8.57643
-8.60893
-8.64115
-8.6729
-8.70401
-8.73433
-8.7637
-8.79198
-8.81905
-8.84477
-8.86904
-8.89173
-8.91275
-8.93198
-8.94933
-8.9647
-8.97799
-8.98911
-8.99796
-9.00446
-9.00851
-9.01002
-9.0089
-9.00508
-8.99845
-8.98896
-8.97653
-8.96111
-8.94264
-8.92109
-8.89643
-8.86866
-8.83778
-8.80381
-8.76679
-8.7268
-8.68391
-8.63823
-8.58988
-8.53899
-8.48573
-8.43027
-8.37278
-8.31346
-8.25249
-8.19006
-8.12636
-8.06155
-7.99579
-7.9292
-7.86188
-7.79388
-7.72526
-7.65596
-7.58578
-7.51491
-7.44292
-7.36968
-7.29475
-7.21781
-7.13839
-7.056
-6.97006
-6.87991
-6.78487
-6.68411
-6.57682
-6.46206
-6.33897
-6.20656
-6.06396
-5.91021
-5.7444
-5.56556
-5.37276
-5.16511
-4.94179
-4.70202
-4.4451
-4.17042
-3.8775
-3.56599
-3.23562
-2.88625
-2.51782
-2.13045
-1.72444
-1.3003
-0.858679
-0.400448
0.0733766
0.561563
1.06275
1.5754
2.09785
2.62827
3.16474
3.70528
4.24783
4.79029
5.33057
5.86664
6.39652
6.91832
7.43029
7.93075
8.41821
8.89133
9.34893
9.79
10.2137
10.6194
11.0066
11.3749
11.724
12.0541
12.365
12.6569
12.9302
13.1853
13.4227
13.643
13.8471
14.0355
14.2092
14.3689
14.5154
14.6496
14.7723
14.8841
14.986
15.0785
15.1624
15.2383
15.3068
15.3685
15.424
15.4736
15.5179
15.5571
15.5914
15.6206
15.6444
15.6586
15.6689
15.6297
-7.99616
-8.0102
-8.03468
-8.05321
-8.06651
-8.07737
-8.08634
-8.09365
-8.09981
-8.10528
-8.11047
-8.1157
-8.12128
-8.12749
-8.13459
-8.1428
-8.15234
-8.16336
-8.17601
-8.19038
-8.20656
-8.22455
-8.24436
-8.26594
-8.28923
-8.31412
-8.3405
-8.36821
-8.39711
-8.42702
-8.45777
-8.48916
-8.52101
-8.55312
-8.58532
-8.61741
-8.64922
-8.68056
-8.71129
-8.74124
-8.77027
-8.79824
-8.82502
-8.85047
-8.87449
-8.89696
-8.91775
-8.93677
-8.95389
-8.96903
-8.98206
-8.99289
-9.00141
-9.00752
-9.01113
-9.01212
-9.0104
-9.00588
-8.99846
-8.98808
-8.97465
-8.95812
-8.93843
-8.91556
-8.88947
-8.86018
-8.82768
-8.79202
-8.75326
-8.71149
-8.6668
-8.61932
-8.5692
-8.51661
-8.46175
-8.40479
-8.34598
-8.28551
-8.22362
-8.16052
-8.09642
-8.03152
-7.96599
-7.89998
-7.83359
-7.76691
-7.69998
-7.63271
-7.56509
-7.49692
-7.42817
-7.35845
-7.28734
-7.21455
-7.13952
-7.06178
-6.98071
-6.89561
-6.80578
-6.71027
-6.60835
-6.4989
-6.38119
-6.25406
-6.11677
-5.96813
-5.80736
-5.63327
-5.44511
-5.24178
-5.02261
-4.78662
-4.53325
-4.26176
-3.9718
-3.66286
-3.33478
-2.98725
-2.62035
-2.2341
-1.82895
-1.40528
-0.963813
-0.505363
-0.0310089
0.458063
0.960464
1.47468
1.99903
2.53165
3.07062
3.61392
4.15945
4.70508
5.2487
5.78821
6.3216
6.84698
7.36249
7.8665
8.35744
8.83397
9.29487
9.73915
10.1659
10.5745
10.9644
11.3353
11.6869
12.0192
12.3322
12.626
12.9011
13.1578
13.3967
13.6185
13.8238
14.0135
14.1884
14.3492
14.4968
14.632
14.7556
14.8683
14.971
15.0643
15.1489
15.2254
15.2944
15.3565
15.4121
15.4616
15.5053
15.5435
15.5761
15.6027
15.6229
15.6322
15.6368
15.5907
-7.99701
-8.01055
-8.03387
-8.05193
-8.06517
-8.07615
-8.08542
-8.09318
-8.09991
-8.10605
-8.11199
-8.118
-8.12441
-8.13144
-8.13935
-8.14832
-8.15856
-8.17021
-8.18341
-8.19824
-8.21477
-8.23301
-8.25299
-8.27464
-8.29792
-8.32272
-8.34894
-8.37644
-8.40508
-8.43469
-8.46512
-8.49617
-8.52768
-8.55945
-8.59132
-8.62309
-8.65461
-8.68568
-8.71618
-8.74592
-8.77478
-8.8026
-8.82925
-8.85461
-8.87854
-8.90092
-8.92163
-8.94056
-8.95757
-8.97256
-8.98541
-8.99601
-9.00423
-9.00998
-9.01314
-9.01359
-9.01121
-9.00592
-8.99761
-8.98622
-8.97165
-8.95385
-8.93275
-8.90835
-8.88061
-8.84956
-8.8152
-8.7776
-8.73684
-8.69302
-8.64626
-8.59672
-8.54459
-8.49007
-8.43336
-8.37473
-8.3144
-8.25264
-8.18971
-8.12585
-8.06131
-7.99631
-7.93104
-7.86567
-7.80033
-7.73509
-7.66999
-7.60499
-7.53997
-7.47494
-7.4096
-7.34361
-7.27662
-7.20817
-7.13781
-7.06496
-6.98897
-6.90915
-6.82465
-6.73465
-6.63816
-6.53428
-6.42199
-6.30036
-6.16834
-6.02494
-5.86912
-5.69989
-5.51627
-5.31737
-5.10229
-4.8702
-4.62037
-4.3522
-4.06519
-3.75892
-3.43312
-3.08754
-2.72217
-2.33714
-1.9328
-1.50957
-1.06816
-0.609387
-0.134319
0.355843
0.859708
1.37575
1.90226
2.43736
2.97909
3.52539
4.07414
4.62317
5.17031
5.71343
6.25049
6.77952
7.29868
7.80627
8.30073
8.78068
9.24488
9.6923
10.1221
10.5335
10.9261
11.2994
11.6534
11.9878
12.3027
12.5983
12.875
13.1332
13.3735
13.5966
13.8031
13.994
14.1699
14.3317
14.4803
14.6164
14.7408
14.8543
14.9578
15.0517
15.1369
15.214
15.2834
15.3458
15.4014
15.4507
15.4938
15.5309
15.5618
15.5859
15.6026
15.6076
15.6073
15.5556
-8.00283
-8.01536
-8.03665
-8.05356
-8.06622
-8.07682
-8.08593
-8.09376
-8.10071
-8.10718
-8.11353
-8.12004
-8.12697
-8.13454
-8.14298
-8.15246
-8.16316
-8.17519
-8.18871
-8.20377
-8.22045
-8.23876
-8.25872
-8.28027
-8.3034
-8.32798
-8.35394
-8.38115
-8.40948
-8.43878
-8.46889
-8.49962
-8.53083
-8.56231
-8.59391
-8.62545
-8.65677
-8.6877
-8.71809
-8.74776
-8.77659
-8.80441
-8.8311
-8.8565
-8.88048
-8.90292
-8.92367
-8.94261
-8.95961
-8.97453
-8.98726
-8.99766
-9.0056
-9.01098
-9.01364
-9.01348
-9.01037
-9.0042
-8.99487
-8.9823
-8.96641
-8.94713
-8.92442
-8.89824
-8.8686
-8.83551
-8.79901
-8.75919
-8.71612
-8.66995
-8.62083
-8.56894
-8.5145
-8.45776
-8.39897
-8.33841
-8.27638
-8.21316
-8.14904
-8.08433
-8.01928
-7.95416
-7.88917
-7.82449
-7.76027
-7.6966
-7.63351
-7.57095
-7.50888
-7.44706
-7.38544
-7.32347
-7.26083
-7.19703
-7.1316
-7.06391
-6.99326
-6.91895
-6.84003
-6.75574
-6.66495
-6.56685
-6.46021
-6.34423
-6.21765
-6.07962
-5.92891
-5.76469
-5.58579
-5.39144
-5.18055
-4.95245
-4.70625
-4.44148
-4.15748
-3.85394
-3.53039
-3.18675
-2.82285
-2.43896
-2.0353
-1.61242
-1.1709
-0.711657
-0.235692
0.255741
0.761264
1.27933
1.80819
2.34595
2.8906
3.44005
3.99216
4.54471
5.09547
5.64228
6.18305
6.71577
7.23858
7.74974
8.2477
8.731
9.19845
9.64895
10.0816
10.4958
10.8909
11.2667
11.6228
11.9591
12.2758
12.5731
12.8513
13.1108
13.3524
13.5767
13.7844
13.9762
14.1531
14.3159
14.4653
14.6022
14.7275
14.8418
14.9459
15.0405
15.1263
15.2038
15.2736
15.3362
15.3918
15.4408
15.4833
15.5192
15.5484
15.5701
15.5837
15.5848
15.5801
15.5239
-8.01251
-8.02366
-8.04236
-8.0576
-8.06921
-8.079
-8.08753
-8.09501
-8.1018
-8.10826
-8.1147
-8.12137
-8.12852
-8.13633
-8.14502
-8.15472
-8.16561
-8.17779
-8.19138
-8.20644
-8.22306
-8.24124
-8.26101
-8.28232
-8.30515
-8.32942
-8.35505
-8.38191
-8.40988
-8.43882
-8.46857
-8.49897
-8.52988
-8.5611
-8.59251
-8.62389
-8.65512
-8.686
-8.71639
-8.74612
-8.77505
-8.803
-8.82984
-8.8554
-8.87955
-8.90213
-8.92301
-8.94203
-8.95905
-8.97394
-8.98654
-8.99672
-9.00432
-9.00922
-9.01127
-9.01035
-9.00633
-8.9991
-8.98855
-8.97459
-8.95712
-8.9361
-8.91145
-8.88319
-8.8513
-8.81582
-8.77682
-8.73438
-8.68863
-8.63973
-8.58786
-8.53326
-8.47619
-8.41691
-8.35575
-8.29302
-8.22906
-8.16421
-8.0988
-8.03316
-7.96758
-7.90237
-7.83773
-7.77388
-7.71098
-7.64909
-7.58827
-7.52848
-7.46951
-7.41147
-7.35382
-7.29629
-7.23838
-7.17964
-7.11952
-7.05735
-6.99244
-6.92394
-6.85102
-6.77269
-6.688
-6.59586
-6.49523
-6.385
-6.26413
-6.13153
-5.98617
-5.82698
-5.65296
-5.46313
-5.25656
-5.0324
-4.78991
-4.52849
-4.24754
-3.94662
-3.62533
-3.28348
-2.92102
-2.53814
-2.1351
-1.7124
-1.27068
-0.810817
-0.333841
0.158992
0.666287
1.18647
1.71778
2.25827
2.8059
3.35854
3.91401
4.47006
5.0244
5.57483
6.11922
6.65555
7.18191
7.69655
8.19788
8.68444
9.15499
9.60847
10.044
10.4608
10.8583
11.2363
11.5944
11.9325
12.2509
12.5497
12.8293
13.0901
13.3329
13.5582
13.7669
13.9597
14.1375
14.3011
14.4514
14.5891
14.7151
14.8301
14.9349
15.0302
15.1165
15.1945
15.2647
15.3274
15.383
15.4316
15.4734
15.5083
15.5359
15.5553
15.566
15.5636
15.5551
15.4952
-8.02491
-8.03446
-8.05025
-8.06344
-8.07362
-8.0822
-8.08977
-8.09653
-8.10279
-8.10886
-8.11503
-8.12151
-8.12855
-8.13628
-8.14491
-8.15454
-8.16534
-8.17739
-8.19082
-8.20566
-8.222
-8.23986
-8.25926
-8.28017
-8.30256
-8.32637
-8.35153
-8.37792
-8.40546
-8.43397
-8.46334
-8.49341
-8.52403
-8.55504
-8.58628
-8.61756
-8.64874
-8.67965
-8.71012
-8.73997
-8.76907
-8.79721
-8.82426
-8.85003
-8.87438
-8.89714
-8.91814
-8.93723
-8.95425
-8.96904
-8.98144
-8.99129
-8.99843
-9.00271
-9.00398
-9.00211
-8.99697
-8.98842
-8.97634
-8.96065
-8.94125
-8.9181
-8.89116
-8.86042
-8.82589
-8.78763
-8.74571
-8.70026
-8.65143
-8.59941
-8.54445
-8.4868
-8.42678
-8.3647
-8.30095
-8.23586
-8.16986
-8.10329
-8.03657
-7.97004
-7.90405
-7.83888
-7.77482
-7.71206
-7.65074
-7.59096
-7.53282
-7.47611
-7.42091
-7.36684
-7.31372
-7.26104
-7.20831
-7.15503
-7.10062
-7.04434
-6.9855
-6.92313
-6.85648
-6.78439
-6.706
-6.62001
-6.52548
-6.4211
-6.306
-6.17888
-6.03889
-5.88474
-5.7156
-5.53026
-5.32797
-5.10771
-4.86891
-4.61075
-4.33279
-4.03437
-3.71524
-3.37509
-3.01401
-2.63204
-2.22956
-1.80695
-1.36496
-0.904412
-0.426399
0.0678573
0.576913
1.09917
1.63285
2.17594
2.7264
3.28206
3.8407
4.40004
4.95773
5.51156
6.05936
6.59908
7.12877
7.64667
8.15112
8.64072
9.11417
9.57041
10.0085
10.4278
10.8276
11.2075
11.5675
11.9073
12.2272
12.5274
12.8082
13.0702
13.3141
13.5405
13.7501
13.9438
14.1225
14.2869
14.438
14.5765
14.7033
14.8191
14.9246
15.0205
15.1074
15.1859
15.2564
15.3193
15.3748
15.4231
15.4642
15.498
15.5241
15.5415
15.5496
15.5441
15.5322
15.4694
-8.03953
-8.04739
-8.06019
-8.07107
-8.07945
-8.08645
-8.09265
-8.09827
-8.1036
-8.10889
-8.1144
-8.12033
-8.12687
-8.13416
-8.14237
-8.15157
-8.16193
-8.17351
-8.18642
-8.20071
-8.21646
-8.23368
-8.25242
-8.27263
-8.29432
-8.31743
-8.3419
-8.36765
-8.39459
-8.42256
-8.45146
-8.48113
-8.51143
-8.54217
-8.57323
-8.6044
-8.63556
-8.66649
-8.69706
-8.72704
-8.75631
-8.78463
-8.81187
-8.83782
-8.86232
-8.88517
-8.90622
-8.92528
-8.94217
-8.95672
-8.96875
-8.97808
-8.98456
-8.98801
-8.98827
-8.98519
-8.97862
-8.96843
-8.9545
-8.93674
-8.91506
-8.88943
-8.8598
-8.82617
-8.78859
-8.74712
-8.70188
-8.65303
-8.60074
-8.54528
-8.48689
-8.42591
-8.36269
-8.29764
-8.23112
-8.16359
-8.09551
-8.02726
-7.95933
-7.89206
-7.82587
-7.76102
-7.69787
-7.63654
-7.57723
-7.52011
-7.46502
-7.41204
-7.3609
-7.31146
-7.26331
-7.2159
-7.16879
-7.12141
-7.07308
-7.02308
-6.97056
-6.91469
-6.85447
-6.78892
-6.71689
-6.63724
-6.54875
-6.45036
-6.34093
-6.21942
-6.08468
-5.93565
-5.77124
-5.59045
-5.39232
-5.17602
-4.94078
-4.68591
-4.41078
-4.11486
-3.79778
-3.45932
-3.09951
-2.71848
-2.31652
-1.89408
-1.45188