/*--------------------------------*- C++ -*----------------------------------*\
| =========                 |                                                 |
| \\      /  F ield         | OpenFOAM: The Open Source CFD Toolbox           |
|  \\    /   O peration     | Version:  2306                                  |
|   \\  /    A nd           | Website:  www.openfoam.com                      |
|    \\/     M anipulation  |                                                 |
\*---------------------------------------------------------------------------*/
FoamFile
{
    version     2.0;
    format      ascii;
    arch        "LSB;label=32;scalar=64";
    class       surfaceScalarField;
    location    "100";
    object      phi;
}
// * * * * * * * * * * * * * * * * * * * * * * * * * * * * * * * * * * * * * //

dimensions      [0 3 -1 0 0 0 0];

oriented        oriented;

internalField   nonuniform List<scalar> 
24170
(
3.11513e-06
7.32764e-08
3.01302e-06
1.02114e-07
2.9176e-06
9.54169e-08
2.82649e-06
9.11043e-08
2.74058e-06
8.59129e-08
2.66317e-06
7.74038e-08
2.59542e-06
6.77524e-08
2.53667e-06
5.87464e-08
2.48582e-06
5.08507e-08
2.44179e-06
4.40318e-08
2.40362e-06
3.81653e-08
2.37052e-06
3.31065e-08
2.34181e-06
2.87005e-08
2.317e-06
2.48137e-08
2.2958e-06
2.1196e-08
2.27781e-06
1.79926e-08
2.26302e-06
1.47842e-08
1.11591e-08
2.25186e-06
3.46866e-06
2.18696e-08
3.48679e-06
8.39853e-08
3.49348e-06
8.87261e-08
3.49238e-06
9.22025e-08
3.48443e-06
9.38624e-08
3.47088e-06
9.09506e-08
3.45302e-06
8.56156e-08
3.43207e-06
7.96928e-08
3.40915e-06
7.37696e-08
3.38516e-06
6.80201e-08
3.36082e-06
6.25125e-08
3.33662e-06
5.72994e-08
3.31297e-06
5.23567e-08
3.29012e-06
4.76597e-08
3.26829e-06
4.30238e-08
3.24771e-06
3.85707e-08
3.22911e-06
3.33861e-08
2.66002e-08
3.21367e-06
3.66802e-06
1.63708e-08
3.68033e-06
7.16708e-08
3.69005e-06
7.90025e-08
3.70011e-06
8.21458e-08
3.70926e-06
8.4705e-08
3.71641e-06
8.38034e-08
3.72144e-06
8.05805e-08
3.72457e-06
7.6564e-08
3.72603e-06
7.23112e-08
3.72608e-06
6.79716e-08
3.72497e-06
6.36215e-08
3.72294e-06
5.93283e-08
3.7202e-06
5.50965e-08
3.71695e-06
5.09023e-08
3.71335e-06
4.66221e-08
3.70976e-06
4.21637e-08
3.70617e-06
3.69744e-08
3.04608e-08
3.70231e-06
3.92496e-06
1.68006e-08
3.93559e-06
6.10431e-08
3.94318e-06
7.14126e-08
3.95024e-06
7.50806e-08
3.95698e-06
7.79681e-08
3.96284e-06
7.79466e-08
3.96788e-06
7.55393e-08
3.9723e-06
7.21436e-08
3.97619e-06
6.84163e-08
3.97962e-06
6.45413e-08
3.98264e-06
6.05979e-08
3.98532e-06
5.66488e-08
3.98772e-06
5.27011e-08
3.9899e-06
4.87232e-08
3.99191e-06
4.4608e-08
3.99385e-06
4.02222e-08
3.99555e-06
3.52757e-08
2.94235e-08
3.99659e-06
4.20773e-06
1.61977e-08
4.21612e-06
5.26551e-08
4.22232e-06
6.5207e-08
4.22785e-06
6.95493e-08
4.23335e-06
7.24652e-08
4.23845e-06
7.2847e-08
4.24306e-06
7.09262e-08
4.24729e-06
6.79193e-08
4.25119e-06
6.45094e-08
4.25483e-06
6.09033e-08
4.25824e-06
5.7185e-08
4.26148e-06
5.34153e-08
4.26457e-06
4.96069e-08
4.26756e-06
4.573e-08
4.27047e-06
4.16981e-08
4.27329e-06
3.74013e-08
4.27589e-06
3.26765e-08
2.73588e-08
4.27796e-06
4.51043e-06
1.4855e-08
4.51716e-06
4.59274e-08
4.5229e-06
5.94637e-08
4.52808e-06
6.43678e-08
4.53328e-06
6.72661e-08
4.53821e-06
6.79141e-08
4.54273e-06
6.64082e-08
4.54689e-06
6.37623e-08
4.55076e-06
6.06371e-08
4.5544e-06
5.72596e-08
4.55786e-06
5.37248e-08
4.56118e-06
5.0097e-08
4.56439e-06
4.6398e-08
4.56751e-06
4.26064e-08
4.57055e-06
3.86613e-08
4.57347e-06
3.44854e-08
4.57615e-06
2.99955e-08
2.5142e-08
4.57836e-06
4.83416e-06
1.34191e-08
4.83994e-06
4.01406e-08
4.84562e-06
5.37879e-08
4.85079e-06
5.9197e-08
4.85591e-06
6.21394e-08
4.86082e-06
6.3006e-08
4.86536e-06
6.18686e-08
4.86956e-06
5.95608e-08
4.87349e-06
5.67043e-08
4.87721e-06
5.35429e-08
4.88075e-06
5.0184e-08
4.88415e-06
4.66972e-08
4.88743e-06
4.31141e-08
4.89061e-06
3.94255e-08
4.89367e-06
3.55964e-08
4.89658e-06
3.15819e-08
4.89922e-06
2.73552e-08
2.29338e-08
4.90142e-06
5.18096e-06
1.20352e-08
5.18609e-06
3.50153e-08
5.19166e-06
4.82192e-08
5.19685e-06
5.40095e-08
5.20197e-06
5.70134e-08
5.20693e-06
5.80462e-08
5.21157e-06
5.72277e-08
5.2159e-06
5.52347e-08
5.21996e-06
5.26384e-08
5.22381e-06
4.96929e-08
5.22748e-06
4.65167e-08
5.23099e-06
4.31843e-08
5.23437e-06
3.97375e-08
5.23761e-06
3.61811e-08
5.24071e-06
3.25033e-08
5.2436e-06
2.86883e-08
5.24621e-06
2.47452e-08
2.07206e-08
5.24842e-06
5.55268e-06
1.06881e-08
5.55724e-06
3.04569e-08
5.5626e-06
4.28606e-08
5.56778e-06
4.88328e-08
5.57292e-06
5.18678e-08
5.57796e-06
5.30078e-08
5.58273e-06
5.24547e-08
5.58721e-06
5.07509e-08
5.59144e-06
4.84063e-08
5.59546e-06
4.56793e-08
5.59928e-06
4.26959e-08
5.60292e-06
3.95361e-08
5.60641e-06
3.62499e-08
5.60973e-06
3.28569e-08
5.61287e-06
2.93647e-08
5.61578e-06
2.57803e-08
5.61839e-06
2.21334e-08
1.8483e-08
5.62063e-06
5.95108e-06
9.38384e-09
5.95515e-06
2.63884e-08
5.96025e-06
3.77638e-08
5.96538e-06
4.37015e-08
5.97053e-06
4.67174e-08
5.97562e-06
4.79102e-08
5.98051e-06
4.75645e-08
5.98515e-06
4.61165e-08
5.98955e-06
4.40095e-08
5.99373e-06
4.14989e-08
5.9977e-06
3.87164e-08
6.00149e-06
3.57455e-08
6.0051e-06
3.26434e-08
6.00851e-06
2.94425e-08
6.01171e-06
2.61652e-08
6.01466e-06
2.28352e-08
6.0173e-06
1.94919e-08
1.6197e-08
6.01959e-06
6.37805e-06
8.14334e-09
6.38171e-06
2.27264e-08
6.38654e-06
3.29382e-08
6.3916e-06
3.86428e-08
6.39673e-06
4.15813e-08
6.40186e-06
4.27794e-08
6.40684e-06
4.25831e-08
6.41161e-06
4.13524e-08
6.41615e-06
3.9465e-08
6.42048e-06
3.71654e-08
6.42461e-06
3.45884e-08
6.42854e-06
3.18198e-08
6.43226e-06
2.89221e-08
6.43576e-06
2.59367e-08
6.43903e-06
2.28977e-08
6.44202e-06
1.9838e-08
6.44472e-06
1.68009e-08
1.38445e-08
6.44707e-06
5.74183e-06
7.14667e-09
5.74465e-06
1.9902e-08
5.74852e-06
2.90701e-08
5.75273e-06
3.44398e-08
5.75704e-06
3.72635e-08
5.76139e-06
3.8435e-08
5.76565e-06
3.83223e-08
5.76975e-06
3.7244e-08
5.77369e-06
3.55275e-08
5.77745e-06
3.34016e-08
5.78104e-06
3.10001e-08
5.78445e-06
2.84109e-08
5.78767e-06
2.56976e-08
5.7907e-06
2.29093e-08
5.79351e-06
2.00837e-08
5.79609e-06
1.72602e-08
5.79841e-06
1.44801e-08
1.17994e-08
5.80046e-06
6.99922e-06
6.07813e-09
7.00223e-06
1.68994e-08
7.00643e-06
2.48696e-08
7.01112e-06
2.97434e-08
7.01602e-06
3.23612e-08
7.021e-06
3.34582e-08
7.02592e-06
3.33994e-08
7.0307e-06
3.2463e-08
7.03531e-06
3.09241e-08
7.03972e-06
2.89902e-08
7.04392e-06
2.67916e-08
7.04792e-06
2.44147e-08
7.05169e-06
2.19253e-08
7.05523e-06
1.9374e-08
7.0585e-06
1.68044e-08
7.06151e-06
1.42554e-08
7.06422e-06
1.17677e-08
9.38817e-09
7.06663e-06
8.53198e-06
4.94618e-09
8.53513e-06
1.37475e-08
8.53963e-06
2.03682e-08
8.54481e-06
2.45655e-08
8.55031e-06
2.68614e-08
8.55595e-06
2.78169e-08
8.56158e-06
2.77678e-08
8.56709e-06
2.69511e-08
8.57242e-06
2.55909e-08
8.57754e-06
2.38655e-08
8.58244e-06
2.18979e-08
8.58708e-06
1.97699e-08
8.59146e-06
1.75459e-08
8.59556e-06
1.52764e-08
8.59936e-06
1.30055e-08
8.60284e-06
1.07713e-08
8.606e-06
8.60871e-09
6.55796e-09
8.60883e-06
1.04004e-05
3.7629e-09
1.04037e-05
1.047e-08
1.04085e-05
1.5594e-08
1.04141e-05
1.89248e-08
1.04202e-05
2.07584e-08
1.04265e-05
2.14872e-08
1.04329e-05
2.13876e-08
1.04392e-05
2.0657e-08
1.04453e-05
1.9467e-08
1.04512e-05
1.79643e-08
1.04569e-05
1.62534e-08
1.04622e-05
1.44125e-08
1.04673e-05
1.24964e-08
1.0472e-05
1.05547e-08
1.04764e-05
8.6252e-09
1.04804e-05
6.74472e-09
1.04841e-05
4.93985e-09
3.2433e-09
1.04874e-05
1.2678e-05
2.53631e-09
1.26814e-05
7.06887e-09
1.26865e-05
1.05546e-08
1.26925e-05
1.2829e-08
1.26993e-05
1.40426e-08
1.27063e-05
1.44382e-08
1.27135e-05
1.42167e-08
1.27206e-05
1.35257e-08
1.27276e-05
1.24903e-08
1.27343e-05
1.12161e-08
1.27408e-05
9.78804e-09
1.27469e-05
8.26717e-09
1.27527e-05
6.70239e-09
1.27582e-05
5.13054e-09
1.27632e-05
3.5861e-09
1.27678e-05
2.09501e-09
1.27721e-05
6.8093e-10
-6.364e-10
1.2776e-05
1.54545e-05
1.26014e-09
1.5458e-05
3.50623e-09
1.54634e-05
5.20392e-09
1.547e-05
6.23483e-09
1.54773e-05
6.65955e-09
1.54852e-05
6.60191e-09
1.54932e-05
6.17661e-09
1.55013e-05
5.47372e-09
1.55092e-05
4.56882e-09
1.55169e-05
3.52698e-09
1.55243e-05
2.40181e-09
1.55313e-05
1.23521e-09
1.55379e-05
5.93914e-11
1.55442e-05
-1.09955e-09
1.555e-05
-2.21983e-09
1.55553e-05
-3.28299e-09
1.55603e-05
-4.27511e-09
-5.18325e-09
1.55648e-05
1.8839e-05
-1.02133e-10
1.88428e-05
-3.33209e-10
1.88487e-05
-6.20874e-10
1.88559e-05
-1.03702e-09
1.88642e-05
-1.57543e-09
1.8873e-05
-2.21086e-09
1.88821e-05
-2.92048e-09
1.88912e-05
-3.68249e-09
1.89003e-05
-4.47518e-09
1.89091e-05
-5.2783e-09
1.89176e-05
-6.07509e-09
1.89256e-05
-6.85108e-09
1.89333e-05
-7.5949e-09
1.89405e-05
-8.29666e-09
1.89472e-05
-8.94817e-09
1.89535e-05
-9.54195e-09
1.89593e-05
-1.0073e-08
-1.05364e-08
1.89646e-05
2.29649e-05
-1.64785e-09
2.29693e-05
-4.73092e-09
2.2976e-05
-7.33703e-09
2.29844e-05
-9.46802e-09
2.2994e-05
-1.11508e-08
2.30043e-05
-1.24761e-08
2.30149e-05
-1.35328e-08
2.30256e-05
-1.43781e-08
2.30361e-05
-1.50458e-08
2.30464e-05
-1.55729e-08
2.30563e-05
-1.59876e-08
2.30658e-05
-1.63135e-08
2.30748e-05
-1.65617e-08
2.30832e-05
-1.67433e-08
2.30911e-05
-1.68637e-08
2.30985e-05
-1.69309e-08
2.31054e-05
-1.69472e-08
-1.6917e-08
2.31118e-05
1.68119e-05
-2.83874e-09
1.68153e-05
-8.09603e-09
1.68204e-05
-1.24931e-08
1.68269e-05
-1.59012e-08
1.68341e-05
-1.83753e-08
1.68417e-05
-2.01488e-08
1.68496e-05
-2.142e-08
1.68575e-05
-2.22863e-08
1.68653e-05
-2.2829e-08
1.68729e-05
-2.31215e-08
1.68801e-05
-2.32341e-08
1.6887e-05
-2.32091e-08
1.68935e-05
-2.30829e-08
1.68997e-05
-2.2875e-08
1.69054e-05
-2.26075e-08
1.69108e-05
-2.22903e-08
1.69158e-05
-2.19367e-08
-2.15494e-08
1.69204e-05
1.46357e-05
-3.95906e-09
1.46389e-05
-1.13156e-08
1.46439e-05
-1.74669e-08
1.465e-05
-2.20114e-08
1.46567e-05
-2.5101e-08
1.46638e-05
-2.72115e-08
1.4671e-05
-2.8617e-08
1.46781e-05
-2.94416e-08
1.46851e-05
-2.98089e-08
1.46918e-05
-2.98511e-08
1.46983e-05
-2.96608e-08
1.47044e-05
-2.9304e-08
1.47101e-05
-2.88256e-08
1.47155e-05
-2.82634e-08
1.47205e-05
-2.76433e-08
1.47252e-05
-2.69866e-08
1.47296e-05
-2.63056e-08
-2.56109e-08
1.47336e-05
1.27411e-05
-4.97067e-09
1.27443e-05
-1.45159e-08
1.27494e-05
-2.25181e-08
1.27554e-05
-2.7971e-08
1.27617e-05
-3.14559e-08
1.27683e-05
-3.38201e-08
1.2775e-05
-3.53095e-08
1.27816e-05
-3.60244e-08
1.2788e-05
-3.61666e-08
1.2794e-05
-3.59268e-08
1.27998e-05
-3.54237e-08
1.28052e-05
-3.47347e-08
1.28103e-05
-3.39174e-08
1.28151e-05
-3.30206e-08
1.28195e-05
-3.20755e-08
1.28236e-05
-3.11083e-08
1.28274e-05
-3.01304e-08
-2.91526e-08
1.2831e-05
1.10917e-05
-5.74027e-09
1.10949e-05
-1.77425e-08
1.11003e-05
-2.78573e-08
1.11062e-05
-3.38749e-08
1.11122e-05
-3.75032e-08
1.11184e-05
-4.0036e-08
1.11247e-05
-4.15337e-08
1.11307e-05
-4.20803e-08
1.11365e-05
-4.19712e-08
1.1142e-05
-4.14432e-08
1.11472e-05
-4.06263e-08
1.11521e-05
-3.96083e-08
1.11567e-05
-3.84644e-08
1.11609e-05
-3.7249e-08
1.11648e-05
-3.60045e-08
1.11685e-05
-3.47532e-08
1.11718e-05
-3.3516e-08
-3.23019e-08
1.1175e-05
9.65563e-06
-6.15455e-09
9.65899e-06
-2.11091e-08
9.66453e-06
-3.3397e-08
9.67025e-06
-3.95941e-08
9.67607e-06
-4.33261e-08
9.68202e-06
-4.59816e-08
9.68784e-06
-4.73521e-08
9.69339e-06
-4.76363e-08
9.69867e-06
-4.72472e-08
9.70366e-06
-4.64321e-08
9.70834e-06
-4.53119e-08
9.71272e-06
-4.39839e-08
9.71679e-06
-4.25338e-08
9.72057e-06
-4.10279e-08
9.72407e-06
-3.95075e-08
9.72732e-06
-3.80001e-08
9.73032e-06
-3.65179e-08
-3.50566e-08
9.73307e-06
8.40493e-06
-5.7357e-09
8.40928e-06
-2.54543e-08
8.41465e-06
-3.87665e-08
8.41969e-06
-4.46377e-08
8.42518e-06
-4.88164e-08
8.43095e-06
-5.17491e-08
8.43655e-06
-5.29605e-08
8.44186e-06
-5.294e-08
8.44685e-06
-5.22413e-08
8.45153e-06
-5.11136e-08
8.45589e-06
-4.9673e-08
8.45994e-06
-4.80287e-08
8.46368e-06
-4.62762e-08
8.46714e-06
-4.44867e-08
8.47033e-06
-4.27046e-08
8.47329e-06
-4.09593e-08
8.47605e-06
-3.92744e-08
-3.76628e-08
8.47865e-06
7.31364e-06
-2.08841e-09
7.32067e-06
-3.24865e-08
7.32643e-06
-4.4526e-08
7.33118e-06
-4.93884e-08
7.33648e-06
-5.41236e-08
7.34206e-06
-5.73264e-08
7.3475e-06
-5.83982e-08
7.3527e-06
-5.81414e-08
7.35764e-06
-5.71819e-08
7.36227e-06
-5.57515e-08
7.36659e-06
-5.39851e-08
7.37057e-06
-5.20107e-08
7.37423e-06
-4.9944e-08
7.37761e-06
-4.78583e-08
7.3807e-06
-4.58032e-08
7.38355e-06
-4.38095e-08
7.38617e-06
-4.18876e-08
-3.99884e-08
7.38849e-06
6.36046e-06
7.5169e-09
6.37026e-06
-4.22905e-08
6.37811e-06
-5.23736e-08
6.38512e-06
-5.64022e-08
6.39218e-06
-6.11839e-08
6.39872e-06
-6.38677e-08
6.40463e-06
-6.43037e-08
6.41008e-06
-6.35958e-08
6.41518e-06
-6.22788e-08
6.41991e-06
-6.04872e-08
6.42427e-06
-5.83447e-08
6.42826e-06
-5.59966e-08
6.43188e-06
-5.35695e-08
6.43516e-06
-5.11397e-08
6.43812e-06
-4.87643e-08
6.4408e-06
-4.64855e-08
6.44324e-06
-4.4335e-08
-4.23384e-08
6.4456e-06
5.53916e-06
1.3817e-08
5.5475e-06
-5.06232e-08
5.55581e-06
-6.06861e-08
5.56602e-06
-6.66165e-08
5.57717e-06
-7.23351e-08
5.58761e-06
-7.43063e-08
5.59676e-06
-7.34549e-08
5.60464e-06
-7.14795e-08
5.61133e-06
-6.89655e-08
5.61689e-06
-6.60516e-08
5.62141e-06
-6.28615e-08
5.62496e-06
-5.95516e-08
5.62765e-06
-5.62572e-08
5.62956e-06
-5.30514e-08
5.63078e-06
-4.99855e-08
5.63142e-06
-4.71295e-08
5.63158e-06
-4.44917e-08
-4.21696e-08
5.63141e-06
4.87157e-06
-3.01475e-08
4.88647e-06
-6.55211e-08
4.89719e-06
-7.1412e-08
4.90594e-06
-7.53676e-08
4.91295e-06
-7.93473e-08
4.91719e-06
-7.85422e-08
4.91796e-06
-7.42325e-08
4.91516e-06
-6.86801e-08
4.9091e-06
-6.29018e-08
4.90028e-06
-5.72376e-08
4.88928e-06
-5.18591e-08
4.8766e-06
-4.68671e-08
4.86268e-06
-4.23425e-08
4.8479e-06
-3.82765e-08
4.83257e-06
-3.4655e-08
4.81694e-06
-3.15007e-08
4.80128e-06
-2.88292e-08
-2.71379e-08
4.78625e-06
4.17253e-06
4.10701e-06
4.0356e-06
3.96023e-06
3.88088e-06
3.80234e-06
3.72811e-06
3.65942e-06
3.59652e-06
3.53929e-06
3.48743e-06
3.44056e-06
3.39822e-06
3.35994e-06
3.32528e-06
3.29378e-06
3.26495e-06
3.23782e-06
1.50593e-08
-1.51556e-08
4.04705e-08
-2.55136e-08
6.61467e-08
-2.57987e-08
8.83265e-08
-2.22542e-08
1.05003e-07
-1.67906e-08
1.15439e-07
-1.05057e-08
1.1928e-07
-3.96242e-09
1.16716e-07
2.49314e-09
1.08107e-07
8.48109e-09
9.43728e-08
1.36626e-08
7.62982e-08
1.79394e-08
5.48732e-08
2.1352e-08
3.0709e-08
2.40181e-08
4.52738e-09
2.61039e-08
-2.35943e-08
2.7969e-08
-5.37282e-08
3.00636e-08
-8.62186e-08
3.23487e-08
-1.21041e-07
3.47655e-08
-1.58554e-07
3.73916e-08
-1.98814e-07
4.02191e-08
-2.42106e-07
4.31831e-08
-2.88335e-07
4.62022e-08
-3.37614e-07
4.91866e-08
-3.897e-07
5.20682e-08
-4.44547e-07
5.47621e-08
-5.01755e-07
5.71901e-08
-5.61129e-07
5.92835e-08
-6.22151e-07
6.09996e-08
-6.84537e-07
6.22962e-08
-7.47722e-07
6.31565e-08
-8.11396e-07
6.35775e-08
-8.7502e-07
6.35877e-08
-9.38334e-07
6.32183e-08
-1.0009e-06
6.25209e-08
-1.06254e-06
6.1541e-08
-1.12293e-06
6.03372e-08
-1.18198e-06
5.89559e-08
-1.23948e-06
5.74531e-08
-1.29543e-06
5.58673e-08
-1.34971e-06
5.42436e-08
-1.4024e-06
5.26074e-08
-1.45342e-06
5.09909e-08
-1.5029e-06
4.94072e-08
-1.55081e-06
4.78774e-08
-1.59728e-06
4.64047e-08
-1.64232e-06
4.50019e-08
-1.68605e-06
4.36652e-08
-1.72848e-06
4.24018e-08
-1.76975e-06
4.12043e-08
-1.80986e-06
4.00768e-08
-1.84893e-06
3.9008e-08
-1.88696e-06
3.79996e-08
-1.92407e-06
3.70398e-08
-1.96024e-06
3.61295e-08
-1.99557e-06
3.5257e-08
-2.03005e-06
3.44242e-08
-2.06374e-06
3.36206e-08
-2.09666e-06
3.28483e-08
-2.12884e-06
3.20976e-08
-2.16029e-06
3.13714e-08
-2.19103e-06
3.06614e-08
-2.22109e-06
2.9971e-08
-2.25047e-06
2.92936e-08
-2.27919e-06
2.8633e-08
-2.30726e-06
2.79841e-08
-2.3347e-06
2.73508e-08
-2.36151e-06
2.673e-08
-2.38773e-06
2.61254e-08
-2.41333e-06
2.55361e-08
-2.43838e-06
2.49647e-08
-2.46285e-06
2.44116e-08
-2.48681e-06
2.38791e-08
-2.51024e-06
2.33695e-08
-2.5332e-06
2.28829e-08
-2.55568e-06
2.24226e-08
-2.57777e-06
2.19872e-08
-2.59942e-06
2.15819e-08
-2.62073e-06
2.12055e-08
-2.64165e-06
2.0862e-08
-2.6623e-06
2.05441e-08
-2.68263e-06
2.02598e-08
-2.70274e-06
2.00025e-08
-2.72256e-06
1.97732e-08
-2.74222e-06
1.95543e-08
-2.76162e-06
1.93579e-08
-2.78088e-06
1.91705e-08
-2.79989e-06
1.89913e-08
-2.81871e-06
1.88043e-08
-2.83727e-06
1.86206e-08
-2.85557e-06
1.84261e-08
-2.87364e-06
1.81789e-08
-2.89141e-06
1.78652e-08
-2.90881e-06
1.74697e-08
-2.92571e-06
1.69842e-08
-2.94207e-06
1.64175e-08
-2.95778e-06
1.57778e-08
-2.9727e-06
1.49611e-08
-2.98665e-06
1.39867e-08
-2.99949e-06
1.28541e-08
-3.01101e-06
1.15077e-08
-3.021e-06
9.93895e-09
-3.02923e-06
8.12931e-09
-3.0355e-06
6.108e-09
-3.03946e-06
3.73519e-09
-3.0406e-06
8.92779e-10
-3.03925e-06
-1.6445e-09
-3.03572e-06
-3.79993e-09
-3.02955e-06
-6.45642e-09
-3.02061e-06
-9.17778e-09
-3.00883e-06
-1.2036e-08
-2.99405e-06
-1.49838e-08
-2.97628e-06
-1.79707e-08
-2.95529e-06
-2.11551e-08
-2.93083e-06
-2.46185e-08
-2.90272e-06
-2.82237e-08
-2.87101e-06
-3.183e-08
-2.83553e-06
-3.55447e-08
-2.79629e-06
-3.93045e-08
-2.75309e-06
-4.31942e-08
-2.70604e-06
-4.70792e-08
-2.65508e-06
-5.10101e-08
-2.60014e-06
-5.50752e-08
-2.5412e-06
-5.90898e-08
-2.47825e-06
-6.31014e-08
-2.41128e-06
-6.70353e-08
-2.34039e-06
-7.0915e-08
-2.26563e-06
-7.46872e-08
-2.18715e-06
-7.83738e-08
-2.10503e-06
-8.19225e-08
-2.01947e-06
-8.53486e-08
-1.93058e-06
-8.86031e-08
-1.83859e-06
-9.16951e-08
-1.74366e-06
-9.4583e-08
-1.64605e-06
-9.72712e-08
-1.54595e-06
-9.9726e-08
-1.44363e-06
-1.0195e-07
-1.33934e-06
-1.03921e-07
-1.23333e-06
-1.05646e-07
-1.12588e-06
-1.07117e-07
-1.01724e-06
-1.0834e-07
-9.07674e-07
-1.09309e-07
-7.97444e-07
-1.10035e-07
-6.86769e-07
-1.10524e-07
-5.75879e-07
-1.10796e-07
-4.6497e-07
-1.10847e-07
-3.54294e-07
-1.10655e-07
-2.43881e-07
-1.10413e-07
-1.33377e-07
-1.10533e-07
-2.21045e-08
-1.11316e-07
8.98606e-08
-1.12027e-07
2.01034e-07
-1.1124e-07
3.10244e-07
-1.09287e-07
4.16993e-07
-1.06827e-07
5.20959e-07
-1.04049e-07
6.21935e-07
-1.01058e-07
7.19753e-07
-9.79016e-08
8.14302e-07
-9.46293e-08
9.05503e-07
-9.128e-08
9.93322e-07
-8.78938e-08
1.07774e-06
-8.4487e-08
1.15875e-06
-8.1077e-08
1.23639e-06
-7.77049e-08
1.31072e-06
-7.43788e-08
1.38176e-06
-7.10889e-08
1.44956e-06
-6.78516e-08
1.5142e-06
-6.46814e-08
1.57576e-06
-6.15882e-08
1.63428e-06
-5.85492e-08
1.68979e-06
-5.55448e-08
1.74233e-06
-5.25611e-08
1.79188e-06
-4.95727e-08
1.83839e-06
-4.6523e-08
1.8817e-06
-4.33316e-08
1.92153e-06
-3.98462e-08
1.95729e-06
-3.57821e-08
1.98782e-06
-3.05466e-08
2.01048e-06
-2.26979e-08
2.01742e-06
-6.96791e-09
1.98729e-06
3.01091e-08
9.80881e-08
1.8892e-06
2.57982e-08
-4.10182e-08
4.31361e-08
-4.29084e-08
5.22612e-08
-3.49714e-08
5.5897e-08
-2.59219e-08
5.52965e-08
-1.62285e-08
5.09594e-08
-6.19753e-09
4.30994e-08
3.85873e-09
3.1865e-08
1.36981e-08
1.71981e-08
2.31082e-08
-1.05252e-09
3.18828e-08
-2.30312e-08
3.98783e-08
-4.87636e-08
4.70547e-08
-7.82627e-08
5.34795e-08
-1.11502e-07
5.93151e-08
-1.48355e-07
6.47864e-08
-1.88431e-07
7.01139e-08
-2.31558e-07
7.54397e-08
-2.77652e-07
8.08346e-08
-3.26602e-07
8.6308e-08
-3.78208e-07
9.1805e-08
-4.32278e-07
9.72213e-08
-4.88521e-07
1.02427e-07
-5.46648e-07
1.07285e-07
-6.06265e-07
1.1167e-07
-6.67e-07
1.15467e-07
-7.28412e-07
1.18584e-07
-7.90122e-07
1.20962e-07
-8.51713e-07
1.22572e-07
-9.12859e-07
1.23408e-07
-9.73219e-07
1.23494e-07
-1.03256e-06
1.22881e-07
-1.09064e-06
1.21646e-07
-1.14734e-06
1.19878e-07
-1.20252e-06
1.1767e-07
-1.25613e-06
1.15114e-07
-1.30812e-06
1.12299e-07
-1.35851e-06
1.09303e-07
-1.40729e-06
1.06202e-07
-1.45451e-06
1.03058e-07
-1.50022e-06
9.99229e-08
-1.54448e-06
9.68378e-08
-1.58735e-06
9.38352e-08
-1.62891e-06
9.09367e-08
-1.66921e-06
8.81588e-08
-1.70835e-06
8.5509e-08
-1.74636e-06
8.29925e-08
-1.78333e-06
8.06078e-08
-1.81931e-06
7.83529e-08
-1.85436e-06
7.62204e-08
-1.88851e-06
7.42045e-08
-1.92182e-06
7.22948e-08
-1.95433e-06
7.04835e-08
-1.98609e-06
6.87596e-08
-2.0171e-06
6.71156e-08
-2.04742e-06
6.55407e-08
-2.07706e-06
6.40285e-08
-2.10605e-06
6.25697e-08
-2.1344e-06
6.11596e-08
-2.16214e-06
5.97901e-08
-2.18927e-06
5.84582e-08
-2.21581e-06
5.71579e-08
-2.24178e-06
5.58879e-08
-2.26718e-06
5.46442e-08
-2.29202e-06
5.3427e-08
-2.31632e-06
5.2234e-08
-2.34009e-06
5.1067e-08
-2.36333e-06
4.99253e-08
-2.38607e-06
4.8812e-08
-2.4083e-06
4.77276e-08
-2.43006e-06
4.66759e-08
-2.45134e-06
4.56582e-08
-2.47219e-06
4.4678e-08
-2.49259e-06
4.37371e-08
-2.51259e-06
4.28379e-08
-2.53219e-06
4.19813e-08
-2.55142e-06
4.1169e-08
-2.57029e-06
4.0404e-08
-2.58882e-06
3.96863e-08
-2.60702e-06
3.90155e-08
-2.62491e-06
3.83888e-08
-2.64251e-06
3.78059e-08
-2.65981e-06
3.72602e-08
-2.67683e-06
3.67433e-08
-2.69356e-06
3.62415e-08
-2.70999e-06
3.57503e-08
-2.72612e-06
3.52578e-08
-2.7419e-06
3.47505e-08
-2.75732e-06
3.42106e-08
-2.77229e-06
3.3634e-08
-2.78678e-06
3.29837e-08
-2.80076e-06
3.22289e-08
-2.81418e-06
3.13364e-08
-2.82695e-06
3.02824e-08
-2.83898e-06
2.9056e-08
-2.85017e-06
2.76385e-08
-2.86038e-06
2.60156e-08
-2.86952e-06
2.41283e-08
-2.87748e-06
2.19602e-08
-2.88413e-06
1.94974e-08
-2.88936e-06
1.67281e-08
-2.89312e-06
1.36411e-08
-2.89531e-06
1.02427e-08
-2.89588e-06
6.55555e-09
-2.89485e-06
2.54828e-09
-2.89235e-06
-1.78787e-09
-2.88786e-06
-6.32085e-09
-2.88079e-06
-1.10561e-08
-2.87127e-06
-1.61495e-08
-2.85906e-06
-2.15647e-08
-2.84395e-06
-2.72889e-08
-2.8258e-06
-3.3281e-08
-2.80434e-06
-3.95412e-08
-2.77954e-06
-4.6078e-08
-2.75134e-06
-5.29036e-08
-2.71962e-06
-6.00286e-08
-2.68416e-06
-6.73492e-08
-2.64492e-06
-7.48404e-08
-2.60175e-06
-8.24904e-08
-2.55468e-06
-9.02721e-08
-2.5036e-06
-9.81667e-08
-2.44847e-06
-1.06197e-07
-2.38932e-06
-1.14305e-07
-2.32611e-06
-1.22412e-07
-2.25882e-06
-1.30481e-07
-2.18746e-06
-1.38446e-07
-2.1121e-06
-1.46283e-07
-2.03282e-06
-1.5394e-07
-1.94972e-06
-1.61399e-07
-1.86294e-06
-1.68604e-07
-1.77262e-06
-1.75535e-07
-1.67893e-06
-1.82138e-07
-1.58206e-06
-1.88388e-07
-1.48223e-06
-1.94234e-07
-1.37965e-06
-1.99655e-07
-1.27457e-06
-2.04608e-07
-1.16724e-06
-2.09079e-07
-1.05792e-06
-2.1304e-07
-9.46892e-07
-2.16491e-07
-8.3442e-07
-2.19419e-07
-7.20783e-07
-2.21833e-07
-6.06246e-07
-2.23724e-07
-4.91077e-07
-2.25117e-07
-3.75521e-07
-2.26013e-07
-2.59813e-07
-2.26467e-07
-1.44026e-07
-2.26612e-07
-2.81414e-08
-2.2654e-07
8.75358e-08
-2.26098e-07
2.02248e-07
-2.2527e-07
3.14907e-07
-2.24001e-07
4.24767e-07
-2.21927e-07
5.32163e-07
-2.18674e-07
6.37273e-07
-2.14445e-07
7.39929e-07
-2.09528e-07
8.39941e-07
-2.04113e-07
9.37148e-07
-1.98314e-07
1.03142e-06
-1.92227e-07
1.12266e-06
-1.85921e-07
1.2108e-06
-1.79477e-07
1.29581e-06
-1.72945e-07
1.37765e-06
-1.66376e-07
1.45632e-06
-1.59799e-07
1.53184e-06
-1.53269e-07
1.60423e-06
-1.46805e-07
1.67353e-06
-1.4043e-07
1.73981e-06
-1.34158e-07
1.8031e-06
-1.28012e-07
1.86348e-06
-1.21994e-07
1.92099e-06
-1.1608e-07
1.97566e-06
-1.10234e-07
2.02751e-06
-1.04429e-07
2.07652e-06
-9.8606e-08
2.12265e-06
-9.26653e-08
2.16574e-06
-8.64434e-08
2.20554e-06
-7.96599e-08
2.24151e-06
-7.17694e-08
2.27275e-06
-6.18052e-08
2.29748e-06
-4.74451e-08
2.31478e-06
-2.42891e-08
2.32411e-06
2.07555e-08
1.08767e-07
2.31343e-06
1.46758e-08
-5.57453e-08
1.9178e-08
-4.74509e-08
1.76538e-08
-3.34795e-08
1.19785e-08
-2.02666e-08
3.10469e-09
-7.37885e-09
-8.47222e-09
5.36206e-09
-2.25745e-08
1.79389e-08
-3.91616e-08
3.02687e-08
-5.83203e-08
4.22453e-08
-8.02004e-08
5.3747e-08
-1.05012e-07
6.46686e-08
-1.32929e-07
7.49567e-08
-1.64095e-07
8.46253e-08
-1.98543e-07
9.37489e-08
-2.36213e-07
1.02437e-07
-2.76914e-07
1.108e-07
-3.20413e-07
1.18919e-07
-3.6642e-07
1.26827e-07
-4.14631e-07
1.345e-07
-4.64703e-07
1.41864e-07
-5.16305e-07
1.48804e-07
-5.69078e-07
1.55187e-07
-6.22692e-07
1.60881e-07
-6.768e-07
1.65766e-07
-7.31101e-07
1.69747e-07
-7.85292e-07
1.72762e-07
-8.39128e-07
1.74776e-07
-8.92362e-07
1.75791e-07
-9.44819e-07
1.75844e-07
-9.96351e-07
1.7501e-07
-1.04687e-06
1.7338e-07
-1.0963e-06
1.71057e-07
-1.1446e-06
1.68154e-07
-1.19173e-06
1.64781e-07
-1.23768e-06
1.61047e-07
-1.28245e-06
1.57054e-07
-1.32606e-06
1.5289e-07
-1.36852e-06
1.48638e-07
-1.40984e-06
1.44364e-07
-1.45006e-06
1.40127e-07
-1.48922e-06
1.35971e-07
-1.52733e-06
1.3193e-07
-1.56444e-06
1.28029e-07
-1.60058e-06
1.24284e-07
-1.63579e-06
1.20704e-07
-1.67011e-06
1.17294e-07
-1.70357e-06
1.14052e-07
-1.73621e-06
1.10974e-07
-1.76806e-06
1.08053e-07
-1.79915e-06
1.0528e-07
-1.82952e-06
1.02644e-07
-1.85919e-06
1.00133e-07
-1.88819e-06
9.77361e-08
-1.91654e-06
9.54415e-08
-1.94426e-06
9.32378e-08
-1.97137e-06
9.11147e-08
-1.99789e-06
8.90623e-08
-2.02383e-06
8.70723e-08
-2.0492e-06
8.51365e-08
-2.07402e-06
8.32489e-08
-2.09829e-06
8.14037e-08
-2.12203e-06
7.95973e-08
-2.14525e-06
7.78264e-08
-2.16794e-06
7.60897e-08
-2.19012e-06
7.43863e-08
-2.21181e-06
7.27168e-08
-2.23299e-06
7.10824e-08
-2.2537e-06
6.94856e-08
-2.27393e-06
6.79288e-08
-2.2937e-06
6.64156e-08
-2.31302e-06
6.4949e-08
-2.3319e-06
6.35329e-08
-2.35036e-06
6.21704e-08
-2.36841e-06
6.08639e-08
-2.38607e-06
5.96158e-08
-2.40336e-06
5.84279e-08
-2.42029e-06
5.73018e-08
-2.43687e-06
5.62376e-08
-2.45312e-06
5.52337e-08
-2.46904e-06
5.42866e-08
-2.48466e-06
5.33921e-08
-2.49997e-06
5.25417e-08
-2.51498e-06
5.17233e-08
-2.52969e-06
5.09217e-08
-2.54409e-06
5.01234e-08
-2.55817e-06
4.93106e-08
-2.5719e-06
4.84634e-08
-2.58525e-06
4.756e-08
-2.59818e-06
4.65756e-08
-2.61063e-06
4.54815e-08
-2.62259e-06
4.42303e-08
-2.63402e-06
4.27838e-08
-2.64482e-06
4.11159e-08
-2.65495e-06
3.91938e-08
-2.66428e-06
3.69978e-08
-2.67275e-06
3.44931e-08
-2.68026e-06
3.16466e-08
-2.68672e-06
2.84173e-08
-2.69203e-06
2.47926e-08
-2.69608e-06
2.07501e-08
-2.69877e-06
1.62802e-08
-2.69998e-06
1.1375e-08
-2.69957e-06
6.04251e-09
-2.69742e-06
2.72543e-10
-2.69339e-06
-5.96115e-09
-2.68719e-06
-1.26525e-08
-2.67859e-06
-1.97935e-08
-2.66747e-06
-2.73907e-08
-2.65367e-06
-3.54861e-08
-2.63701e-06
-4.40521e-08
-2.61733e-06
-5.30655e-08
-2.59444e-06
-6.25044e-08
-2.56826e-06
-7.23436e-08
-2.53866e-06
-8.25637e-08
-2.50555e-06
-9.32047e-08
-2.46876e-06
-1.04175e-07
-2.42821e-06
-1.15422e-07
-2.3838e-06
-1.26913e-07
-2.33547e-06
-1.38601e-07
-2.28317e-06
-1.50472e-07
-2.22688e-06
-1.62532e-07
-2.16658e-06
-1.74673e-07
-2.10224e-06
-1.86834e-07
-2.03385e-06
-1.98929e-07
-1.96144e-06
-2.10896e-07
-1.88505e-06
-2.22665e-07
-1.80479e-06
-2.34182e-07
-1.72075e-06
-2.45385e-07
-1.63307e-06
-2.56216e-07
-1.54189e-06
-2.66614e-07
-1.44741e-06
-2.7652e-07
-1.3498e-06
-2.85872e-07
-1.24929e-06
-2.94615e-07
-1.14611e-06
-3.02695e-07
-1.04052e-06
-3.10067e-07
-9.32764e-07
-3.16693e-07
-8.23127e-07
-3.22545e-07
-7.11882e-07
-3.27609e-07
-5.99314e-07
-3.31875e-07
-4.85699e-07
-3.35344e-07
-3.71315e-07
-3.38022e-07
-2.56428e-07
-3.39929e-07
-1.41258e-07
-3.41128e-07
-2.59985e-08
-3.41679e-07
8.90047e-08
-3.41583e-07
2.03266e-07
-3.40772e-07
3.16342e-07
-3.39154e-07
4.27811e-07
-3.36721e-07
5.37218e-07
-3.33398e-07
6.44265e-07
-3.28963e-07
7.48935e-07
-3.23339e-07
8.51179e-07
-3.16684e-07
9.50856e-07
-3.09204e-07
1.04782e-06
-3.01073e-07
1.14193e-06
-2.92429e-07
1.2331e-06
-2.83391e-07
1.32123e-06
-2.74061e-07
1.40629e-06
-2.64535e-07
1.48823e-06
-2.54893e-07
1.56706e-06
-2.45199e-07
1.64276e-06
-2.35507e-07
1.71537e-06
-2.2588e-07
1.78494e-06
-2.16369e-07
1.85151e-06
-2.07003e-07
1.91515e-06
-1.97801e-07
1.97592e-06
-1.88777e-07
2.03387e-06
-1.7994e-07
2.08906e-06
-1.71261e-07
2.14152e-06
-1.62696e-07
2.19129e-06
-1.54193e-07
2.23836e-06
-1.45668e-07
2.28268e-06
-1.36978e-07
2.32413e-06
-1.27896e-07
2.3625e-06
-1.18023e-07
2.39738e-06
-1.06642e-07
2.4281e-06
-9.25295e-08
2.45372e-06
-7.30697e-08
2.47336e-06
-4.39296e-08
2.48882e-06
5.29445e-09
9.33871e-08
2.50421e-06
6.72411e-10
-5.64638e-08
-6.20169e-09
-4.06092e-08
-1.58694e-08
-2.38368e-08
-2.78315e-08
-8.32e-09
-4.18181e-08
6.59025e-09
-5.76827e-08
2.12147e-08
-7.54147e-08
3.56551e-08
-9.50629e-08
4.99059e-08
-1.16742e-07
6.39098e-08
-1.4059e-07
7.75845e-08
-1.66782e-07
9.08457e-08
-1.95462e-07
1.03627e-07
-2.26742e-07
1.15892e-07
-2.60639e-07
1.27636e-07
-2.97092e-07
1.38876e-07
-3.35932e-07
1.4963e-07
-3.76933e-07
1.59906e-07
-4.19796e-07
1.6968e-07
-4.64208e-07
1.78898e-07
-5.09827e-07
1.87473e-07
-5.56336e-07
1.95298e-07
-6.03419e-07
2.0226e-07
-6.50806e-07
2.08252e-07
-6.98235e-07
2.13184e-07
-7.45501e-07
2.16997e-07
-7.92412e-07
2.1966e-07
-8.38832e-07
2.21179e-07
-8.84645e-07
2.21591e-07
-9.29784e-07
2.20965e-07
-9.74181e-07
2.19394e-07
-1.01781e-06
2.16987e-07
-1.06062e-06
2.13859e-07
-1.10261e-06
2.10129e-07
-1.14376e-06
2.05915e-07
-1.18406e-06
2.01329e-07
-1.22349e-06
1.96475e-07
-1.26206e-06
1.9145e-07
-1.29977e-06
1.86336e-07
-1.33663e-06
1.81207e-07
-1.37263e-06
1.76119e-07
-1.4078e-06
1.71122e-07
-1.44213e-06
1.66252e-07
-1.47565e-06
1.61535e-07
-1.50837e-06
1.56991e-07
-1.54031e-06
1.52632e-07
-1.57149e-06
1.48461e-07
-1.60193e-06
1.4448e-07
-1.63166e-06
1.40685e-07
-1.66069e-06
1.37068e-07
-1.68904e-06
1.3362e-07
-1.71674e-06
1.3033e-07
-1.74381e-06
1.27186e-07
-1.77027e-06
1.24173e-07
-1.79612e-06
1.2128e-07
-1.8214e-06
1.18494e-07
-1.84611e-06
1.15802e-07
-1.87026e-06
1.13194e-07
-1.89387e-06
1.10658e-07
-1.91694e-06
1.08187e-07
-1.93948e-06
1.05771e-07
-1.96151e-06
1.03407e-07
-1.98302e-06
1.01087e-07
-2.00402e-06
9.881e-08
-2.02453e-06
9.65731e-08
-2.04454e-06
9.43762e-08
-2.06407e-06
9.222e-08
-2.08312e-06
9.01064e-08
-2.10169e-06
8.80385e-08
-2.11981e-06
8.60199e-08
-2.13747e-06
8.4055e-08
-2.15469e-06
8.21482e-08
-2.17148e-06
8.03039e-08
-2.18786e-06
7.85265e-08
-2.20384e-06
7.68198e-08
-2.21943e-06
7.51865e-08
-2.23465e-06
7.36287e-08
-2.24952e-06
7.2148e-08
-2.26405e-06
7.07438e-08
-2.27825e-06
6.94136e-08
-2.29214e-06
6.81528e-08
-2.30572e-06
6.69545e-08
-2.31901e-06
6.58077e-08
-2.33201e-06
6.46978e-08
-2.34471e-06
6.36066e-08
-2.35713e-06
6.25142e-08
-2.36923e-06
6.13974e-08
-2.38101e-06
6.02297e-08
-2.39244e-06
5.89818e-08
-2.40347e-06
5.76248e-08
-2.41408e-06
5.61102e-08
-2.42423e-06
5.44031e-08
-2.43388e-06
5.24505e-08
-2.44297e-06
5.02162e-08
-2.45143e-06
4.7661e-08
-2.45918e-06
4.47523e-08
-2.46613e-06
4.14495e-08
-2.47221e-06
3.7715e-08
-2.47731e-06
3.35036e-08
-2.48132e-06
2.87876e-08
-2.48415e-06
2.35364e-08
-2.48565e-06
1.77275e-08
-2.48571e-06
1.13441e-08
-2.48415e-06
4.37834e-09
-2.48081e-06
-3.18019e-09
-2.47553e-06
-1.13631e-08
-2.46812e-06
-2.0183e-08
-2.45839e-06
-2.96369e-08
-2.44617e-06
-3.97119e-08
-2.43132e-06
-5.04328e-08
-2.41368e-06