/*--------------------------------*- C++ -*----------------------------------*\
| =========                 |                                                 |
| \\      /  F ield         | OpenFOAM: The Open Source CFD Toolbox           |
|  \\    /   O peration     | Version:  2306                                  |
|   \\  /    A nd           | Website:  www.openfoam.com                      |
|    \\/     M anipulation  |                                                 |
\*---------------------------------------------------------------------------*/
FoamFile
{
    version     2.0;
    format      ascii;
    arch        "LSB;label=32;scalar=64";
    class       volVectorField;
    location    "100";
    object      U;
}
// * * * * * * * * * * * * * * * * * * * * * * * * * * * * * * * * * * * * * //

dimensions      [0 1 -1 0 0 0 0];

internalField   nonuniform List<vector> 
12225
(
(9.84121 -0.956334 0)
(9.59261 -0.887931 0)
(9.31779 -0.594512 0)
(9.01514 -0.370046 0)
(8.72647 -0.226038 0)
(8.46816 -0.137989 0)
(8.24138 -0.0845042 0)
(8.04369 -0.0517029 0)
(7.87219 -0.0314494 0)
(7.72384 -0.0187467 0)
(7.5955 -0.0108365 0)
(7.48413 -0.00593471 0)
(7.38756 -0.00298643 0)
(7.30388 -0.00135021 0)
(7.23153 -0.000578457 0)
(7.17154 -0.00107601 0)
(7.11494 0.00151242 0)
(7.09094 -0.0181591 0)
(10.0721 0.255839 0)
(10.1867 0.418341 0)
(10.2285 0.384105 0)
(10.2298 0.310361 0)
(10.2116 0.245626 0)
(10.1798 0.195359 0)
(10.134 0.157543 0)
(10.0766 0.129516 0)
(10.0116 0.108659 0)
(9.9424 0.0928394 0)
(9.87124 0.0805992 0)
(9.79996 0.0709018 0)
(9.72966 0.0629965 0)
(9.6615 0.0563917 0)
(9.59589 0.0504285 0)
(9.53384 0.0455139 0)
(9.47583 0.0385254 0)
(9.424 0.0378267 0)
(10.0032 0.0599499 0)
(10.0309 0.0482575 0)
(10.0615 0.00994943 0)
(10.0899 -9.08777e-05 0)
(10.1154 0.00804379 0)
(10.138 0.0192615 0)
(10.1553 0.0288046 0)
(10.1665 0.0362342 0)
(10.1725 0.0417292 0)
(10.1744 0.0455087 0)
(10.1728 0.0478731 0)
(10.1684 0.0491227 0)
(10.1618 0.0494771 0)
(10.1535 0.0490693 0)
(10.1441 0.0479128 0)
(10.134 0.0459682 0)
(10.1242 0.0428709 0)
(10.1133 0.0371773 0)
(9.99715 0.0099037 0)
(10.009 0.0260574 0)
(10.0343 0.0382333 0)
(10.0556 0.0532859 0)
(10.0724 0.0647766 0)
(10.088 0.0700681 0)
(10.1021 0.0711659 0)
(10.1143 0.070342 0)
(10.1247 0.0686805 0)
(10.134 0.0666101 0)
(10.1422 0.0643187 0)
(10.1494 0.0619227 0)
(10.1559 0.0594289 0)
(10.1617 0.0567993 0)
(10.167 0.0538731 0)
(10.1719 0.0504706 0)
(10.1766 0.0460329 0)
(10.1804 0.0393929 0)
(9.99907 0.00679319 0)
(10.0082 0.0342536 0)
(10.028 0.0482595 0)
(10.0438 0.0547566 0)
(10.0562 0.0581706 0)
(10.0683 0.0592888 0)
(10.08 0.0589897 0)
(10.0906 0.058164 0)
(10.1002 0.0571702 0)
(10.1091 0.0560419 0)
(10.1175 0.0547618 0)
(10.1254 0.0533167 0)
(10.1329 0.0516699 0)
(10.1401 0.0497482 0)
(10.1471 0.0474079 0)
(10.1539 0.0444544 0)
(10.1604 0.0405129 0)
(10.1661 0.0352034 0)
(10.0002 0.00922262 0)
(10.008 0.0333445 0)
(10.0237 0.0439592 0)
(10.0371 0.0482302 0)
(10.0481 0.0516266 0)
(10.059 0.0539517 0)
(10.0696 0.0549012 0)
(10.0794 0.054965 0)
(10.0882 0.0545342 0)
(10.0965 0.0537361 0)
(10.1044 0.0526165 0)
(10.1119 0.0512094 0)
(10.1191 0.0495132 0)
(10.1261 0.0474814 0)
(10.1329 0.0450055 0)
(10.1395 0.0419353 0)
(10.1458 0.0380665 0)
(10.1514 0.0332285 0)
(10.0003 0.00909981 0)
(10.007 0.0286763 0)
(10.0202 0.0387515 0)
(10.0324 0.0438185 0)
(10.0429 0.0478463 0)
(10.053 0.0505653 0)
(10.0629 0.051712 0)
(10.072 0.0518306 0)
(10.0804 0.0513829 0)
(10.0882 0.0505383 0)
(10.0957 0.0493586 0)
(10.1029 0.0478806 0)
(10.1098 0.0461074 0)
(10.1165 0.0439969 0)
(10.1229 0.0414657 0)
(10.1291 0.0384035 0)
(10.1349 0.0346989 0)
(10.1401 0.0302853 0)
(10.0004 0.00811357 0)
(10.006 0.0246118 0)
(10.0172 0.0347135 0)
(10.0285 0.0402826 0)
(10.0384 0.044275 0)
(10.048 0.0468913 0)
(10.0573 0.0480575 0)
(10.066 0.048242 0)
(10.0741 0.0478543 0)
(10.0817 0.0470547 0)
(10.0889 0.0459042 0)
(10.0959 0.0444369 0)
(10.1025 0.0426597 0)
(10.1089 0.0405411 0)
(10.115 0.0380247 0)
(10.1208 0.0350401 0)
(10.1262 0.0315384 0)
(10.1309 0.0275212 0)
(10.0004 0.00717319 0)
(10.0052 0.0214009 0)
(10.0147 0.0310695 0)
(10.025 0.0366614 0)
(10.0344 0.0404607 0)
(10.0434 0.0429779 0)
(10.0522 0.044215 0)
(10.0606 0.0445099 0)
(10.0685 0.0442063 0)
(10.0759 0.0434639 0)
(10.0829 0.0423495 0)
(10.0896 0.0409004 0)
(10.0961 0.0391308 0)
(10.1022 0.0370246 0)
(10.108 0.0345507 0)
(10.1135 0.0316737 0)
(10.1185 0.0283858 0)
(10.123 0.0247254 0)
(10.0004 0.00632914 0)
(10.0045 0.0186093 0)
(10.0126 0.0275184 0)
(10.0218 0.0329586 0)
(10.0306 0.0365954 0)
(10.0391 0.0390243 0)
(10.0475 0.0403004 0)
(10.0556 0.0406699 0)
(10.0632 0.0404245 0)
(10.0704 0.0397246 0)
(10.0772 0.0386424 0)
(10.0838 0.0372184 0)
(10.09 0.0354738 0)
(10.0959 0.0334072 0)
(10.1014 0.0310083 0)
(10.1066 0.028269 0)
(10.1113 0.025206 0)
(10.1155 0.021875 0)
(10.0004 0.00553418 0)
(10.0039 0.016094 0)
(10.0108 0.024126 0)
(10.019 0.0293065 0)
(10.0272 0.0327613 0)
(10.0352 0.03506 0)
(10.0431 0.0363125 0)
(10.0508 0.0367117 0)
(10.0581 0.0365005 0)
(10.0651 0.0358321 0)
(10.0717 0.0347814 0)
(10.078 0.0333912 0)
(10.084 0.0316889 0)
(10.0897 0.0296859 0)
(10.095 0.0273881 0)
(10.1 0.0248064 0)
(10.1044 0.0219713 0)
(10.1085 0.0189446 0)
(10.0003 0.00482459 0)
(10.0034 0.0139776 0)
(10.0094 0.0211743 0)
(10.0168 0.0260222 0)
(10.0244 0.0292649 0)
(10.032 0.0314073 0)
(10.0395 0.0325965 0)
(10.0468 0.0329912 0)
(10.0538 0.0327935 0)
(10.0605 0.0321449 0)
(10.0669 0.031121 0)
(10.073 0.0297669 0)
(10.0788 0.0281149 0)
(10.0843 0.0261862 0)
(10.0894 0.0239977 0)
(10.0941 0.0215717 0)
(10.0983 0.0189445 0)
(10.1022 0.0161783 0)
(10.0003 0.00415932 0)
(10.003 0.0120355 0)
(10.0082 0.0183854 0)
(10.0149 0.0228193 0)
(10.0219 0.025811 0)
(10.029 0.0277749 0)
(10.0361 0.0288719 0)
(10.0431 0.0292377 0)
(10.0498 0.0290385 0)
(10.0562 0.0284022 0)
(10.0624 0.0274038 0)
(10.0683 0.0260899 0)
(10.0738 0.0244961 0)
(10.0791 0.0226508 0)
(10.0839 0.0205793 0)
(10.0884 0.0183107 0)
(10.0925 0.0158832 0)
(10.0962 0.0133559 0)
(10.0003 0.00346636 0)
(10.0026 0.0100104 0)
(10.0071 0.0153932 0)
(10.013 0.0192741 0)
(10.0195 0.0219206 0)
(10.026 0.0236413 0)
(10.0327 0.0245932 0)
(10.0392 0.0248924 0)
(10.0456 0.0246701 0)
(10.0517 0.0240364 0)
(10.0576 0.0230639 0)
(10.0632 0.0217995 0)
(10.0685 0.0202806 0)
(10.0735 0.0185397 0)
(10.0781 0.0166086 0)
(10.0824 0.0145201 0)
(10.0863 0.0123116 0)
(10.0898 0.0100358 0)
(10.0002 0.00274196 0)
(10.0022 0.00789884 0)
(10.0061 0.0122087 0)
(10.0113 0.0153952 0)
(10.0171 0.0175842 0)
(10.0231 0.0189821 0)
(10.0292 0.0197239 0)
(10.0354 0.0199075 0)
(10.0414 0.0196323 0)
(10.0472 0.0189873 0)
(10.0527 0.0180381 0)
(10.058 0.0168314 0)
(10.063 0.0154036 0)
(10.0677 0.0137889 0)
(10.0721 0.0120205 0)
(10.0762 0.0101325 0)
(10.0799 0.00815823 0)
(10.0833 0.006143 0)
(10.0002 0.00198679 0)
(10.0019 0.00570573 0)
(10.0052 0.00884529 0)
(10.0097 0.0111964 0)
(10.0149 0.0128009 0)
(10.0204 0.0137803 0)
(10.026 0.0142354 0)
(10.0317 0.014243 0)
(10.0373 0.0138747 0)
(10.0427 0.0131971 0)
(10.0479 0.0122648 0)
(10.0529 0.0111202 0)
(10.0576 0.00979702 0)
(10.0621 0.00832657 0)
(10.0662 0.0067397 0)
(10.07 0.00506748 0)
(10.0735 0.003339 0)
(10.0768 0.00158886 0)
(10.0002 0.00120016 0)
(10.0016 0.00342239 0)
(10.0045 0.00529418 0)
(10.0084 0.00667151 0)
(10.0131 0.00755606 0)
(10.0181 0.00800807 0)
(10.0232 0.0080898 0)
(10.0285 0.00785223 0)
(10.0336 0.00734187 0)
(10.0387 0.00660259 0)
(10.0436 0.00567468 0)
(10.0483 0.00459127 0)
(10.0527 0.00338013 0)
(10.0569 0.00206548 0)
(10.0608 0.000672363 0)
(10.0644 -0.000774685 0)
(10.0677 -0.00225227 0)
(10.0708 -0.00373626 0)
(10.0002 0.000368194 0)
(10.0014 0.00100289 0)
(10.004 0.00149113 0)
(10.0075 0.00175038 0)
(10.0117 0.00177169 0)
(10.0163 0.00157491 0)
(10.0211 0.0011843 0)
(10.026 0.000622661 0)
(10.0308 -8.73315e-05 0)
(10.0356 -0.000924076 0)
(10.0402 -0.00186699 0)
(10.0446 -0.0028969 0)
(10.0488 -0.00399641 0)
(10.0527 -0.0051501 0)
(10.0564 -0.00634253 0)
(10.0599 -0.00755782 0)
(10.0631 -0.00878078 0)
(10.066 -0.00999572 0)
(10.0001 -0.00055026 0)
(10.0013 -0.00166835 0)
(10.0037 -0.00272995 0)
(10.0071 -0.00375177 0)
(10.0111 -0.00473747 0)
(10.0155 -0.00570075 0)
(10.02 -0.00665711 0)
(10.0247 -0.00761546 0)
(10.0294 -0.00857804 0)
(10.0339 -0.00954684 0)
(10.0383 -0.0105233 0)
(10.0426 -0.0115077 0)
(10.0466 -0.0124973 0)
(10.0504 -0.0134888 0)
(10.0539 -0.0144779 0)
(10.0573 -0.01546 0)
(10.0604 -0.0164293 0)
(10.0633 -0.0173794 0)
(10.0002 -0.00141658 0)
(10.0014 -0.0041929 0)
(10.0039 -0.00673203 0)
(10.0074 -0.00896612 0)
(10.0116 -0.01089 0)
(10.0161 -0.0125597 0)
(10.0207 -0.0140325 0)
(10.0255 -0.015344 0)
(10.0301 -0.0165231 0)
(10.0347 -0.0175976 0)
(10.0391 -0.0185929 0)
(10.0434 -0.0195267 0)
(10.0473 -0.0204109 0)
(10.0511 -0.0212528 0)
(10.0546 -0.0220586 0)
(10.058 -0.0228328 0)
(10.061 -0.0235786 0)
(10.0639 -0.0242956 0)
(10.0002 -0.00214859 0)
(10.0015 -0.00635994 0)
(10.0043 -0.010184 0)
(10.0082 -0.0134073 0)
(10.0127 -0.0160428 0)
(10.0175 -0.0182419 0)
(10.0224 -0.0201038 0)
(10.0273 -0.0216691 0)
(10.0321 -0.0229827 0)
(10.0368 -0.0241011 0)
(10.0413 -0.0250748 0)
(10.0456 -0.0259382 0)
(10.0497 -0.0267154 0)
(10.0535 -0.027423 0)
(10.057 -0.0280755 0)
(10.0604 -0.0286841 0)
(10.0635 -0.0292569 0)
(10.0663 -0.0297983 0)
(10.0002 -0.00282413 0)
(10.0017 -0.00846358 0)
(10.0048 -0.0136022 0)
(10.0093 -0.0177236 0)
(10.0143 -0.0209135 0)
(10.0195 -0.023505 0)
(10.0247 -0.0256527 0)
(10.0299 -0.0273987 0)
(10.035 -0.028802 0)
(10.0399 -0.0299395 0)
(10.0446 -0.0308731 0)
(10.049 -0.0316498 0)
(10.0531 -0.0323043 0)
(10.057 -0.0328661 0)
(10.0606 -0.0333571 0)
(10.0639 -0.033795 0)
(10.0671 -0.0341901 0)
(10.0699 -0.0345491 0)
(10.0001 -0.00342457 0)
(10.0017 -0.0105435 0)
(10.0054 -0.0170065 0)
(10.0107 -0.0219391 0)
(10.0164 -0.025655 0)
(10.022 -0.0286098 0)
(10.0275 -0.0309318 0)
(10.0331 -0.0327078 0)
(10.0385 -0.0340818 0)
(10.0436 -0.0351705 0)
(10.0484 -0.0360382 0)
(10.053 -0.0367287 0)
(10.0572 -0.0372819 0)
(10.0612 -0.0377328 0)
(10.0649 -0.0381079 0)
(10.0683 -0.0384259 0)
(10.0715 -0.0386999 0)
(10.0744 -0.0389397 0)
(10.0001 -0.00390572 0)
(10.0016 -0.013008 0)
(10.006 -0.0205109 0)
(10.0123 -0.0256463 0)
(10.0186 -0.0297789 0)
(10.0247 -0.0333207 0)
(10.0307 -0.036003 0)
(10.0366 -0.0378547 0)
(10.0423 -0.0391427 0)
(10.0476 -0.0400696 0)
(10.0526 -0.0407334 0)
(10.0573 -0.0411967 0)
(10.0617 -0.0415169 0)
(10.0658 -0.0417414 0)
(10.0695 -0.0419038 0)
(10.073 -0.0420255 0)
(10.0763 -0.0421192 0)
(10.0792 -0.0421842 0)
(9.9998 -0.00357612 0)
(10.0011 -0.016642 0)
(10.0069 -0.0256716 0)
(10.014 -0.0299039 0)
(10.0205 -0.0332826 0)
(10.0269 -0.0367988 0)
(10.0337 -0.0397981 0)
(10.0403 -0.0420445 0)
(10.0465 -0.0436953 0)
(10.0522 -0.0448999 0)
(10.0576 -0.0457405 0)
(10.0626 -0.0462905 0)
(10.0672 -0.0466252 0)
(10.0715 -0.0468091 0)
(10.0754 -0.0468895 0)
(10.0791 -0.0468998 0)
(10.0825 -0.0468649 0)
(10.0857 -0.0467972 0)
(9.99829 -2.01232e-05 0)
(9.99794 -0.0176888 0)
(10.0068 -0.0316175 0)
(10.0161 -0.0377499 0)
(10.0231 -0.0404936 0)
(10.0299 -0.0420911 0)
(10.0374 -0.0430983 0)
(10.0448 -0.0438495 0)
(10.0518 -0.0445081 0)
(10.0584 -0.0450802 0)
(10.0645 -0.0455341 0)
(10.0701 -0.0458812 0)
(10.0754 -0.0461445 0)
(10.0802 -0.0463514 0)
(10.0846 -0.0465157 0)
(10.0887 -0.0466539 0)
(10.0924 -0.0467697 0)
(10.0957 -0.0468336 0)
(9.99413 0.0027617 0)
(9.98993 -0.00765035 0)
(10.0031 -0.0229422 0)
(10.0184 -0.0397944 0)
(10.03 -0.0532219 0)
(10.04 -0.0610297 0)
(10.0496 -0.0646018 0)
(10.0586 -0.0658894 0)
(10.0669 -0.0660215 0)
(10.0746 -0.0654426 0)
(10.0817 -0.0644338 0)
(10.0883 -0.0631855 0)
(10.0943 -0.0618617 0)
(10.0997 -0.0605421 0)
(10.1046 -0.0592914 0)
(10.109 -0.0581394 0)
(10.113 -0.0571121 0)
(10.1167 -0.0561617 0)
(9.9942 -0.0305177 0)
(9.99523 -0.0134949 0)
(10.0085 0.0214537 0)
(10.027 0.0319269 0)
(10.0467 0.0240263 0)
(10.0665 0.0114521 0)
(10.0846 -0.000296507 0)
(10.1001 -0.0105428 0)
(10.1132 -0.0192153 0)
(10.1242 -0.0263223 0)
(10.1332 -0.0319574 0)
(10.1405 -0.0363653 0)
(10.1461 -0.0397769 0)
(10.1502 -0.0424077 0)
(10.153 -0.0444202 0)
(10.1547 -0.0459852 0)
(10.1554 -0.0472323 0)
(10.1551 -0.0483086 0)
(10.0368 -0.209421 0)
(10.1083 -0.365921 0)
(10.1423 -0.352784 0)
(10.1567 -0.298088 0)
(10.1695 -0.247691 0)
(10.1817 -0.206875 0)
(10.1881 -0.174459 0)
(10.1862 -0.149118 0)
(10.1768 -0.129422 0)
(10.1611 -0.113918 0)
(10.1403 -0.101542 0)
(10.1156 -0.0915378 0)
(10.0879 -0.0833707 0)
(10.058 -0.0766335 0)
(10.0267 -0.0710444 0)
(9.99453 -0.0664244 0)
(9.962 -0.0626224 0)
(9.92977 -0.0599438 0)
(9.92865 0.765532 0)
(9.83918 0.742055 0)
(9.70517 0.524411 0)
(9.52604 0.348749 0)
(9.33135 0.227645 0)
(9.13989 0.14693 0)
(8.95782 0.0935145 0)
(8.78762 0.0579087 0)
(8.6307 0.0340341 0)
(8.48768 0.0180088 0)
(8.35794 0.00733559 0)
(8.24066 0.000348201 0)
(8.13469 -0.00421087 0)
(8.03895 -0.00707429 0)
(7.95233 -0.00876089 0)
(7.87386 -0.0097069 0)
(7.80219 -0.0101959 0)
(7.73694 -0.0108156 0)
(0.00654536 -0.0112936 -6.11933e-19)
(0.0255134 -0.0291922 4.2922e-19)
(0.0471828 -0.0356662 -2.60474e-19)
(0.0688176 -0.0340093 -7.64382e-20)
(0.0867261 -0.0274081 1.12394e-19)
(0.0991334 -0.0185699 -2.62022e-20)
(0.105682 -0.00904554 -2.39156e-20)
(0.10653 0.000313334 1.06114e-19)
(0.101366 0.00883242 -6.00397e-20)
(0.0911534 0.0160155 2.07356e-20)
(0.0767733 0.0217003 8.98384e-21)
(0.0590523 0.0259393 -1.22819e-19)
(0.0386943 0.0289546 2.08946e-19)
(0.0162215 0.0311266 2.52826e-19)
(-0.008068 0.0327578 2.40538e-20)
(-0.0340854 0.0339613 9.94721e-20)
(-0.0619989 0.0350037 3.59539e-20)
(-0.0920318 0.0362385 5.65281e-20)
(-0.124355 0.0377843 7.56495e-20)
(-0.15915 0.0396313 7.28125e-21)
(-0.196591 0.0416977 -2.16838e-20)
(-0.23677 0.0438926 1.58002e-19)
(-0.279662 0.0461191 -1.77354e-20)
(-0.325228 0.0483319 1.26809e-19)
(-0.37337 0.0504523 -2.32635e-20)
(-0.423875 0.0523987 7.83492e-20)
(-0.476476 0.0540976 3.49776e-20)
(-0.53085 0.0554942 2.01596e-20)
(-0.586642 0.0565369 -7.10704e-20)
(-0.643469 0.0572041 -1.14243e-20)
(-0.700936 0.0574825 -6.97414e-20)
(-0.758655 0.0573901 3.89194e-20)
(-0.81627 0.0569464 2.65138e-20)
(-0.873464 0.0561916 -3.10595e-20)
(-0.929962 0.0551633 -4.4681e-20)
(-0.985532 0.0539141 -2.81972e-21)
(-1.03999 0.0524871 1.51016e-20)
(-1.09321 0.0509362 3.53689e-20)
(-1.14508 0.0492997 2.36187e-20)
(-1.19556 0.047622 5.24273e-20)
(-1.24461 0.0459296 1.99622e-20)
(-1.29226 0.0442551 5.07052e-21)
(-1.33851 0.0426129 -6.55376e-20)
(-1.38341 0.0410238 -1.31009e-20)
(-1.42701 0.0394918 2.62495e-20)
(-1.46937 0.038029 1.31463e-21)
(-1.51054 0.0366323 5.95118e-20)
(-1.5506 0.0353078 1.869e-20)
(-1.58959 0.0340485 7.39639e-21)
(-1.62758 0.0328579 -5.92912e-20)
(-1.66463 0.0317251 4.72112e-20)
(-1.70079 0.030651 4.23922e-21)
(-1.73612 0.0296244 5.84211e-20)
(-1.77065 0.0286459 4.55297e-20)
(-1.80443 0.0277042 1.75793e-20)
(-1.83749 0.0268013 4.08187e-20)
(-1.86986 0.0259275 5.50973e-20)
(-1.90158 0.025085 -6.03068e-20)
(-1.93265 0.0242643 2.41589e-20)
(-1.9631 0.0234694 2.75637e-20)
(-1.99296 0.0226929 -6.62209e-20)
(-2.02222 0.0219393 -4.3519e-20)
(-2.05092 0.0212024 3.40525e-20)
(-2.07905 0.0204875 4.09418e-20)
(-2.10664 0.0197894 1.15145e-20)
(-2.13369 0.0191143 -4.43681e-20)
(-2.16021 0.0184587 4.88963e-21)
(-2.18621 0.0178291 2.31677e-21)
(-2.21172 0.0172232 1.15619e-20)
(-2.23673 0.0166466 5.63988e-20)
(-2.26128 0.0160973 -2.80123e-21)
(-2.28537 0.0155793 -4.05168e-20)
(-2.30903 0.0150914 4.34393e-20)
(-2.33228 0.0146372 1.57383e-20)
(-2.35515 0.014217 -2.52956e-20)
(-2.37765 0.0138349 2.08673e-20)
(-2.39982 0.0134949 -3.18542e-21)
(-2.42168 0.0132006 3.9561e-20)
(-2.44326 0.0129539 1.80528e-20)
(-2.46458 0.0127577 -2.63923e-20)
(-2.48568 0.0126203 -7.45951e-21)
(-2.50657 0.0125381 1.45963e-21)
(-2.52728 0.0124968 2.86632e-20)
(-2.54784 0.0124889 3.51553e-20)
(-2.56826 0.0125373 3.05618e-20)
(-2.58854 0.0126385 -3.0619e-20)
(-2.60871 0.0127639 6.42812e-20)
(-2.62873 0.0129034 -2.51807e-21)
(-2.64856 0.0130691 4.48464e-20)
(-2.66821 0.0132163 -6.26629e-20)
(-2.68771 0.0133139 -3.31511e-20)
(-2.70701 0.0133484 2.74884e-20)
(-2.72606 0.0133118 3.94293e-20)
(-2.74474 0.0131925 -5.90129e-21)
(-2.763 0.0130345 -3.60785e-20)
(-2.78074 0.0128421 -3.53704e-20)
(-2.79787 0.0123766 3.58409e-20)
(-2.81424 0.011771 -1.90809e-20)
(-2.82967 0.0111268 -4.50041e-20)
(-2.84402 0.0103907 -1.94022e-20)
(-2.85709 0.00964404 4.74169e-20)
(-2.86865 0.00893742 2.36109e-20)
(-2.8785 0.00828985 3.50521e-20)
(-2.88635 0.0072694 -2.13117e-20)
(-2.89183 0.00546936 6.75896e-21)
(-2.89451 0.00446898 2.33453e-21)
(-2.89527 0.00422257 -4.2677e-21)
(-2.89373 0.00285115 -9.2199e-21)
(-2.88961 0.00156353 -1.37909e-20)
(-2.88286 0.000379301 -2.23529e-20)
(-2.87322 -0.000712679 -3.04933e-20)
(-2.86082 -0.00158297 1.60717e-20)
(-2.84542 -0.00283346 -2.23399e-20)
(-2.82677 -0.00459733 -2.17088e-20)
(-2.80469 -0.00641104 3.79045e-20)
(-2.77912 -0.00798912 -2.21544e-21)
(-2.7499 -0.00973573 -2.37084e-20)
(-2.71704 -0.0114609 -2.42493e-20)
(-2.68038 -0.0134391 2.18314e-20)
(-2.63984 -0.015253 1.57779e-21)
(-2.59556 -0.0170691 6.06033e-21)
(-2.54732 -0.0192112 -3.73895e-21)
(-2.49513 -0.0213446 -1.00788e-20)
(-2.43892 -0.0235566 7.61288e-21)
(-2.37869 -0.0258025 -5.70369e-21)
(-2.31446 -0.0281018 3.99214e-21)
(-2.24629 -0.0304316 3.40527e-21)
(-2.17425 -0.0328027 -3.04966e-22)
(-2.09845 -0.035188 -2.35274e-21)
(-2.01901 -0.0375886 5.67909e-21)
(-1.93607 -0.0399772 -2.49362e-20)
(-1.84977 -0.0423547 3.44063e-21)
(-1.76029 -0.0446945 6.22606e-20)
(-1.66782 -0.0469929 -2.12989e-20)
(-1.57258 -0.0492284 7.27167e-21)
(-1.47477 -0.0513983 -5.25352e-20)
(-1.37463 -0.0534862 -9.18995e-20)
(-1.27242 -0.0554927 1.04416e-19)
(-1.16837 -0.0574193 5.16323e-20)
(-1.06274 -0.0592669 -1.35341e-20)
(-0.955776 -0.0610397 2.69391e-19)
(-0.847725 -0.0627503 2.4886e-19)
(-0.738826 -0.0644082 -1.37517e-19)
(-0.62929 -0.0660352 -1.52261e-19)
(-0.519321 -0.0676316 -2.8058e-19)
(-0.409188 -0.0691759 -4.22882e-19)
(-0.298964 -0.0706835 -3.31707e-19)
(-0.189039 -0.0722614 -5.62176e-19)
(-0.0786688 -0.0729452 2.78265e-19)
(0.0341698 -0.0716216 2.36824e-19)
(0.147219 -0.0690366 3.62409e-19)
(0.258755 -0.0661826 2.40714e-19)
(0.368423 -0.0633172 6.15618e-19)
(0.475779 -0.060493 3.77177e-20)
(0.580554 -0.0577342 2.19923e-20)
(0.682535 -0.0550342 -3.50155e-19)
(0.781592 -0.0524008 5.08065e-19)
(0.877593 -0.0498535 -2.77637e-19)
(0.970487 -0.0473963 3.55932e-20)
(1.06023 -0.0450187 1.18974e-19)
(1.14678 -0.0426964 4.01856e-20)
(1.23019 -0.0404627 9.48345e-20)
(1.31045 -0.0383399 4.16499e-19)
(1.3876 -0.0363023 1.90596e-19)
(1.46168 -0.0343423 8.35956e-20)
(1.53273 -0.0324587 1.10016e-19)
(1.60083 -0.0306552 2.88758e-19)
(1.66602 -0.0289247 -1.17502e-20)
(1.72833 -0.0272554 2.8778e-19)
(1.78779 -0.025638 3.86176e-19)
(1.84439 -0.0240625 3.49356e-19)
(1.8981 -0.022508 -1.18245e-20)
(1.94878 -0.0209471 2.84526e-20)
(1.99621 -0.0193277 -6.25133e-20)
(2.03995 -0.0175669 -7.2842e-19)
(2.079 -0.0154664 3.35061e-19)
(2.11205 -0.0126264 2.29807e-19)
(2.13225 -0.00760645 -4.37683e-19)
(2.14113 0.00476436 -4.14697e-19)
(2.049 0.0245838 6.25778e-19)
(0.014546 -0.0570269 1.03581e-18)
(0.0337589 -0.0702982 -3.20792e-19)
(0.0430391 -0.0623232 -8.67028e-20)
(0.0486649 -0.0497959 1.67757e-19)
(0.0502355 -0.0349555 3.22213e-20)
(0.0480413 -0.0190762 1.94087e-20)
(0.0425655 -0.00308677 -1.84309e-20)
(0.0340684 0.0123899 -9.25469e-20)
(0.0226534 0.0267771 -6.55306e-21)
(0.00803129 0.0395928 -1.00464e-19)
(-0.00989635 0.0506348 6.0702e-21)
(-0.0311752 0.0599504 -1.59014e-21)
(-0.0558181 0.0677754 3.95559e-20)
(-0.0838308 0.0744814 5.56019e-21)
(-0.115156 0.0804801 -1.25963e-20)
(-0.149555 0.0861424 -1.03208e-19)
(-0.186785 0.0917665 -2.14934e-20)
(-0.226751 0.0975523 8.93669e-20)
(-0.269365 0.103561 -9.90822e-20)
(-0.314492 0.10974 2.63454e-20)
(-0.361965 0.115944 2.28537e-21)
(-0.411574 0.121991 4.58546e-20)
(-0.46306 0.127691 5.04092e-20)
(-0.51612 0.132871 4.02621e-20)
(-0.570411 0.137368 4.95247e-20)
(-0.625564 0.141047 -2.65864e-20)
(-0.681211 0.143813 6.18263e-21)
(-0.736992 0.145624 7.37478e-21)
(-0.792574 0.146451 -2.67425e-20)
(-0.847652 0.146303 -1.7793e-20)
(-0.901969 0.145237 -2.75535e-20)
(-0.955311 0.143354 -8.33513e-21)
(-1.00752 0.140767 -6.01143e-20)
(-1.05847 0.137606 2.41951e-20)
(-1.10808 0.133994 -3.38387e-20)
(-1.15631 0.130052 3.96866e-20)
(-1.20314 0.12589 -3.72709e-20)
(-1.24858 0.12161 1.0114e-20)
(-1.29264 0.117295 2.53852e-20)
(-1.33537 0.113017 -1.9687e-20)
(-1.37681 0.108827 1.61733e-20)
(-1.41703 0.104769 -6.57073e-21)
(-1.45608 0.100867 -2.51021e-20)
(-1.49402 0.0971431 -7.36447e-20)
(-1.53092 0.0936032 -5.23879e-20)
(-1.56683 0.0902542 6.14162e-22)
(-1.60182 0.0870896 -6.48991e-20)
(-1.63593 0.0841077 -1.7677e-20)
(-1.66921 0.0812954 6.24068e-20)
(-1.70173 0.0786464 9.5514e-20)
(-1.7335 0.0761441 2.25543e-20)
(-1.76458 0.0737802 -9.83778e-21)
(-1.795 0.0715374 -1.04348e-20)
(-1.82478 0.0694081 -3.33922e-20)
(-1.85396 0.0673763 -2.57319e-20)
(-1.88257 0.065436 -6.76259e-20)
(-1.91061 0.0635734 -7.97681e-20)
(-1.93812 0.0617847 -1.77006e-20)
(-1.9651 0.0600579 1.18438e-20)
(-1.99157 0.0583911 -6.06213e-20)
(-2.01754 0.0567745 4.65643e-20)
(-2.04303 0.0552085 -1.98364e-20)
(-2.06804 0.0536856 -7.98909e-20)
(-2.09258 0.0522078 6.04546e-21)
(-2.11666 0.0507695 5.77098e-20)
(-2.1403 0.0493739 -2.21183e-20)
(-2.16349 0.0480174 2.44257e-21)
(-2.18626 0.0467044 -5.11827e-20)
(-2.20861 0.045433 1.75613e-20)
(-2.23055 0.0442073 -2.99009e-20)
(-2.25211 0.0430265 5.33609e-22)
(-2.27328 0.0418947 -3.65348e-20)
(-2.2941 0.0408119 1.16194e-21)
(-2.31457 0.0397801 -2.14307e-20)
(-2.33472 0.0387983 2.8203e-20)
(-2.35455 0.0378675 -4.83281e-20)
(-2.3741 0.0369889 6.24543e-21)
(-2.39336 0.0361629 -4.80728e-20)
(-2.41237 0.0353878 1.87485e-21)
(-2.43112 0.03466 3.72924e-20)
(-2.44964 0.0339804 7.25005e-21)
(-2.46793 0.0333454 -2.14633e-20)
(-2.48601 0.0327513 -3.17921e-20)
(-2.50386 0.0321849 1.80164e-20)
(-2.52149 0.0316416 5.02725e-20)
(-2.53889 0.0311124 -1.57236e-20)
(-2.55604 0.0305947 -5.72768e-22)
(-2.5729 0.0300763 -1.29534e-21)
(-2.58943 0.0295558 3.07303e-20)
(-2.60557 0.0290111 1.06894e-19)
(-2.6213 0.0284066 2.30588e-20)
(-2.63658 0.0277146 4.26214e-20)
(-2.65134 0.0269162 -9.16952e-20)
(-2.6655 0.0260014 -4.36103e-20)
(-2.67895 0.0249542 2.82168e-20)
(-2.69159 0.0237687 5.68098e-20)
(-2.70332 0.0224292 -3.10344e-20)
(-2.71402 0.0209047 -1.24257e-20)
(-2.72359 0.0191695 -2.12274e-20)
(-2.7319 0.0172133 3.09153e-20)
(-2.73888 0.0150142 -4.27773e-20)
(-2.74444 0.0125583 -3.19954e-20)
(-2.74852 0.00988228 -2.0645e-20)
(-2.75109 0.00703226 6.77923e-20)
(-2.75223 0.00408726 -7.6609e-21)
(-2.7519 0.00106293 4.7566e-21)
(-2.74932 -0.00201827 2.49035e-20)
(-2.74432 -0.00514858 5.37555e-20)
(-2.73689 -0.00845176 -7.28687e-21)
(-2.72678 -0.0119433 -2.05814e-20)
(-2.71384 -0.0155684 1.75979e-21)
(-2.69787 -0.0193551 -3.83892e-20)
(-2.67867 -0.0231987 4.17557e-20)
(-2.65619 -0.027112 1.56877e-20)
(-2.63041 -0.0311935 1.21495e-20)
(-2.60108 -0.0353614 3.03928e-20)
(-2.56808 -0.0395464 3.63578e-20)
(-2.53129 -0.0437749 -1.87681e-20)
(-2.49063 -0.0479909 1.20287e-20)
(-2.44611 -0.0522653 1.70551e-20)
(-2.39759 -0.0565984 2.00478e-20)
(-2.34507 -0.0608963 -2.22603e-21)
(-2.28852 -0.0651433 -8.63859e-22)
(-2.22789 -0.0693216 -1.38233e-20)
(-2.16316 -0.0733896 -1.17238e-20)
(-2.09436 -0.0773462 -1.07906e-20)
(-2.02154 -0.0811594 8.86164e-21)
(-1.94477 -0.0848319 -9.57239e-22)
(-1.86415 -0.0883325 -1.57194e-21)
(-1.77981 -0.0916637 -2.21709e-22)
(-1.69188 -0.0947952 4.85073e-21)
(-1.60053 -0.0977226 1.02738e-20)
(-1.50592 -0.10042 6.84206e-21)
(-1.40827 -0.102887 -6.14634e-21)
(-1.30779 -0.105101 -7.5904e-21)
(-1.20471 -0.107063 -9.49574e-21)
(-1.09926 -0.108766 1.81586e-20)
(-0.991712 -0.110218 -1.12837e-19)
(-0.882313 -0.111419 1.29205e-21)
(-0.771328 -0.112384 9.20852e-20)
(-0.659016 -0.113116 -5.90721e-20)
(-0.545631 -0.113638 7.73925e-20)
(-0.431426 -0.113962 3.50052e-20)
(-0.316629 -0.114116 -7.02472e-20)
(-0.201479 -0.114148 -2.2431e-20)
(-0.0859166 -0.114111 -1.139e-19)
(0.0301613 -0.114027 -6.88148e-20)
(0.146072 -0.114056 1.44455e-19)
(0.260668 -0.113669 2.24775e-19)
(0.373086 -0.112037 -2.99655e-19)
(0.483176 -0.109348 8.87948e-20)
(0.591235 -0.106141 1.69275e-20)
(0.697259 -0.102662 -4.66832e-19)
(0.801045 -0.0990271 1.11451e-20)
(0.902406 -0.0953013 6.83927e-21)
(1.00118 -0.0915313 -1.39747e-19)
(1.09725 -0.08775 1.72758e-19)
(1.19052 -0.0839905 2.38181e-19)
(1.28093 -0.0802753 2.42012e-19)
(1.36842 -0.0766235 2.10117e-19)
(1.45299 -0.0730496 -3.05559e-19)
(1.53462 -0.0695719 3.81107e-20)
(1.61331 -0.0661904 -8.03993e-20)
(1.6891 -0.0629088 2.12763e-19)
(1.76201 -0.0597338 -6.3534e-20)
(1.83212 -0.0566729 2.53333e-19)
(1.89944 -0.0537247 -2.48416e-19)
(1.96403 -0.0508727 -3.80201e-19)
(2.02592 -0.0480986 -5.7292e-19)
(2.08513 -0.04539 -2.67064e-19)
(2.14165 -0.0427218 -1.1941e-19)
(2.19544 -0.0400523 5.68124e-20)
(2.24638 -0.0373162 3.43769e-20)
(2.29426 -0.034406 -3.97153e-19)
(2.33871 -0.0311021 -3.68504e-19)
(2.37883 -0.0270292 5.07762e-19)
(2.41393 -0.0212103 6.20771e-19)
(2.43906 -0.0114135 5.82903e-19)
(2.46347 0.00891645 2.92678e-19)
(2.46012 0.0474594 -6.29158e-19)
(0.00767703 -0.0978595 1.04939e-19)
(0.0173341 -0.0905457 3.59043e-19)
(0.016869 -0.067829 2.19367e-19)
(0.0137729 -0.0457884 -1.49961e-19)
(0.00739181 -0.0242027 3.63884e-20)
(-0.00174421 -0.00298336 -2.26113e-20)
(-0.0132102 0.0176921 -1.13818e-20)
(-0.0268627 0.0375878 9.98882e-20)
(-0.0427451 0.0564815 8.60907e-20)
(-0.060992 0.074139 7.66526e-20)
(-0.0817732 0.0903713 3.61627e-20)
(-0.105265 0.105119 3.55413e-20)
(-0.131616 0.118476 -1.15449e-19)
(-0.16092 0.130662 -7.20173e-20)
(-0.193175 0.141976 2.56203e-20)
(-0.228274 0.152714 -5.40529e-20)
(-0.266026 0.163093 5.13966e-20)
(-0.306194 0.173221 7.13413e-21)
(-0.348511 0.183095 6.98057e-20)
(-0.39269 0.19261 5.82728e-20)
(-0.438431 0.201586 -5.24603e-20)
(-0.485429 0.209808 -1.32882e-19)
(-0.533376 0.21706 -2.23471e-20)
(-0.581969 0.22315 -1.33029e-19)
(-0.630914 0.227926 2.7407e-20)
(-0.679941 0.231286 3.97409e-20)
(-0.72881 0.233181 -1.47754e-20)
(-0.777298 0.233616 4.71242e-20)
(-0.825206 0.232654 2.37285e-20)
(-0.872391 0.230405 4.90186e-20)
(-0.918754 0.227012 -2.29832e-20)
(-0.964221 0.222645 -1.39387e-20)
(-1.00874 0.21748 6.79017e-21)
(-1.05227 0.211697 -8.02837e-21)
(-1.0948 0.205465 -1.16243e-20)
(-1.13631 0.198937 -8.32907e-22)
(-1.17682 0.192249 -4.18013e-20)
(-1.21633 0.185518 1.49514e-20)
(-1.25486 0.178841 -3.71886e-20)
(-1.29243 0.172297 -1.22067e-20)
(-1.32907 0.165945 1.00594e-20)
(-1.3648 0.159826 -9.61335e-21)
(-1.39966 0.153968 -1.87842e-20)
(-1.43367 0.148389 5.21921e-20)
(-1.46687 0.143092 5.78786e-20)
(-1.4993 0.138079 -3.87424e-20)
(-1.53098 0.13334 1.77156e-20)
(-1.56194 0.128866 -2.05152e-20)
(-1.59222 0.12464 -3.65698e-20)
(-1.62184 0.120647 -1.79873e-20)
(-1.65084 0.116868 -1.93381e-20)
(-1.67923 0.113285 3.64036e-20)
(-1.70704 0.109881 6.11297e-21)
(-1.7343 0.106639 2.87586e-20)
(-1.76102 0.103542 3.45506e-21)
(-1.78723 0.100576 4.23844e-21)
(-1.81293 0.0977273 1.71377e-20)
(-1.83813 0.0949849 2.66982e-20)
(-1.86286 0.0923375 -4.67893e-21)
(-1.88713 0.0897771 8.81085e-20)
(-1.91093 0.0872956 6.40443e-20)
(-1.93428 0.084888 1.51956e-20)
(-1.95719 0.0825493 3.4088e-20)
(-1.97966 0.080277 -7.95511e-20)
(-2.0017 0.0780684 1.16729e-20)
(-2.02333 0.0759236 4.67169e-20)
(-2.04453 0.0738419 -7.51867e-20)
(-2.06533 0.0718249 -3.41136e-20)
(-2.08573 0.0698739 2.29858e-20)
(-2.10574 0.0679909 1.8039e-20)
(-2.12538 0.0661777 -3.82946e-20)
(-2.14464 0.0644366 6.61474e-20)
(-2.16356 0.0627695 7.70847e-21)
(-2.18213 0.0611769 2.37869e-20)
(-2.20037 0.0596597 -7.78689e-20)
(-2.21831 0.0582176 7.51722e-20)
(-2.23594 0.0568516 1.5735e-20)
(-2.25329 0.0555596 -3.23304e-20)
(-2.27037 0.0543393 -5.85983e-20)
(-2.28719 0.0531855 -2.89357e-20)
(-2.30376 0.0520946 4.61749e-21)
(-2.32008 0.0510573 1.236e-20)
(-2.33616 0.0500628 -5.79473e-21)
(-2.35201 0.0490953 -4.30652e-20)
(-2.36762 0.0481461 -1.17812e-20)
(-2.38298 0.0472004 -1.28612e-20)
(-2.39807 0.0462428 7.63308e-21)
(-2.41287 0.0452544 -2.63422e-20)
(-2.42733 0.0442221 -3.76001e-20)
(-2.44141 0.0431173 -4.59898e-20)
(-2.45508 0.0419052 1.46889e-20)
(-2.46832 0.0405553 -5.34894e-20)
(-2.48106 0.0390478 5.17244e-20)
(-2.49323 0.0373661 4.57447e-21)
(-2.50475 0.0354972 -1.2045e-20)
(-2.51554 0.0334235 -2.23853e-20)
(-2.5255 0.03111 7.696e-21)
(-2.53455 0.0285317 3.68109e-20)
(-2.5426 0.0256845 3.03165e-20)
(-2.54954 0.0225602 1.32322e-20)
(-2.55528 0.0191599 1.60371e-20)
(-2.5597 0.0154943 8.04269e-21)
(-2.56268 0.011587 7.37376e-21)
(-2.5641 0.00742433 -1.02319e-19)
(-2.56382 0.00298085 2.01218e-20)
(-2.56168 -0.0017044 1.82111e-20)
(-2.55732 -0.00660157 -3.57118e-20)
(-2.55064 -0.0117437 3.0166e-20)
(-2.54149 -0.017156 -1.00859e-20)
(-2.52967 -0.0228142 4.43576e-20)
(-2.51505 -0.0286832 3.23689e-20)
(-2.49744 -0.0347435 2.29567e-20)
(-2.47665 -0.0409819 -1.52302e-20)
(-2.45265 -0.0473822 1.83138e-20)
(-2.42529 -0.0539736 1.17319e-20)
(-2.3944 -0.0606846 -1.4305e-20)
(-2.35989 -0.0674642 -2.13553e-20)
(-2.32163 -0.074297 6.63293e-20)
(-2.27953 -0.081152 9.80489e-21)
(-2.23357 -0.0880165 -2.21142e-20)
(-2.18365 -0.0949076 -5.43495e-20)
(-2.12975 -0.101753 -6.70407e-21)
(-2.07183 -0.108508 -4.79551e-22)
(-2.00986 -0.115126 -1.6757e-20)
(-1.94383 -0.121566 1.36117e-21)
(-1.87375 -0.127795 1.05346e-20)
(-1.79968 -0.133783 -2.4108e-20)
(-1.72169 -0.139504 5.98752e-21)
(-1.6399 -0.144926 1.27631e-21)
(-1.55442 -0.150025 5.6198e-24)
(-1.46539 -0.154772 1.76519e-21)
(-1.37299 -0.159142 -9.00517e-21)
(-1.27739 -0.163107 -3.5985e-20)
(-1.17881 -0.16665 -4.61207e-21)
(-1.07748 -0.169752 2.89715e-20)
(-0.973622 -0.172401 -8.94854e-21)
(-0.867498 -0.174592 -1.0197e-20)
(-0.759365 -0.176329 3.37978e-20)
(-0.649491 -0.177617 4.87343e-20)
(-0.538144 -0.17847 -3.98213e-21)
(-0.425592 -0.178903 2.50155e-20)
(-0.312093 -0.178938 -1.8687e-19)
(-0.19791 -0.178609 -2.30642e-20)
(-0.0832066 -0.17797 -2.31438e-20)
(0.0318171 -0.177078 -4.15838e-20)
(0.146683 -0.175891 1.79823e-19)