/*--------------------------------*- C++ -*----------------------------------*\
| =========                 |                                                 |
| \\      /  F ield         | OpenFOAM: The Open Source CFD Toolbox           |
|  \\    /   O peration     | Version:  2306                                  |
|   \\  /    A nd           | Website:  www.openfoam.com                      |
|    \\/     M anipulation  |                                                 |
\*---------------------------------------------------------------------------*/
FoamFile
{
    version     2.0;
    format      ascii;
    arch        "LSB;label=32;scalar=64";
    class       volVectorField;
    location    "1";
    object      flux;
}
// * * * * * * * * * * * * * * * * * * * * * * * * * * * * * * * * * * * * * //

dimensions      [0 1 -1 1 0 0 0];

internalField   nonuniform List<vector> 
5322
(
(-2.02841e-06 5.13303e-06 -6.79981e-06)
(1.44854e-07 6.81269e-07 -5.85516e-06)
(1.42577e-07 2.3252e-07 -4.37422e-06)
(-3.38604e-09 1.66594e-07 -4.7171e-06)
(-9.32483e-09 1.93213e-07 -3.0144e-06)
(-6.58653e-09 1.59358e-07 -1.77284e-06)
(-3.58458e-09 1.05252e-07 -9.57935e-07)
(-1.75191e-09 6.09151e-08 -4.75915e-07)
(-8.2707e-10 3.21915e-08 -2.18434e-07)
(-3.1705e-10 1.52557e-08 -9.4755e-08)
(-4.68835e-11 4.58854e-09 -4.27884e-08)
(4.13436e-10 -5.94114e-09 -2.82157e-08)
(4.60546e-10 -4.62725e-09 -1.71675e-08)
(-5.67468e-09 -4.49448e-09 -2.60338e-08)
(1.74583e-10 -4.47252e-09 -3.01776e-08)
(1.30254e-08 1.16243e-08 -2.94128e-08)
(-9.78807e-09 1.47245e-08 -3.3617e-08)
(8.70735e-10 -2.56228e-10 -3.00106e-08)
(-9.2854e-09 1.44021e-08 -5.21531e-08)
(1.47167e-08 -2.90775e-08 -7.78655e-08)
(-1.86405e-08 3.89953e-08 -1.27641e-07)
(3.89001e-08 -6.76663e-08 -1.89545e-07)
(-3.99962e-08 9.19218e-08 -3.00103e-07)
(8.93736e-08 -1.52826e-07 -4.33432e-07)
(-9.34302e-08 2.06256e-07 -6.53825e-07)
(1.79756e-07 -3.10956e-07 -8.97607e-07)
(-1.80525e-07 4.03735e-07 -1.29263e-06)
(3.44622e-07 -6.00467e-07 -1.72141e-06)
(-3.50607e-07 7.5666e-07 -2.36275e-06)
(5.88076e-07 -1.03204e-06 -2.99605e-06)
(-5.58644e-07 1.26209e-06 -3.92577e-06)
(9.88567e-07 -1.6544e-06 -4.81934e-06)
(-7.2127e-07 2.01194e-06 -5.98625e-06)
(1.61652e-06 -2.13844e-06 -6.90239e-06)
(2.08867e-07 2.28092e-06 -7.74057e-06)
(2.60785e-06 -1.3889e-06 -7.07258e-06)
(1.85419e-06 2.8245e-06 -8.52554e-06)
(-7.3434e-07 3.3898e-06 -8.27685e-06)
(2.01428e-06 1.72534e-06 -8.52114e-06)
(-1.22805e-07 1.97263e-06 -6.37599e-06)
(-1.91429e-06 2.50635e-06 -7.88316e-06)
(1.91567e-06 2.11162e-06 -8.1386e-06)
(-1.15691e-07 2.29959e-06 -6.24574e-06)
(-2.03546e-06 2.3441e-06 -8.13713e-06)
(2.02842e-06 2.2362e-06 -8.05441e-06)
(-6.77258e-08 2.3448e-06 -6.36042e-06)
(-2.16197e-06 2.27222e-06 -8.25949e-06)
(1.91639e-06 2.4294e-06 -7.81536e-06)
(-4.18165e-08 2.3891e-06 -6.30466e-06)
(-2.27189e-06 2.1636e-06 -8.16227e-06)
(-2.26431e-06 2.7402e-06 -9.42976e-06)
(-3.23365e-06 1.17244e-06 -6.19397e-06)
(-1.10189e-06 1.4084e-06 -8.7858e-06)
(1.98185e-06 -4.19285e-06 -7.51579e-06)
(-1.31326e-07 -1.90752e-07 -6.49811e-06)
(-3.2143e-06 -2.39631e-06 -7.09341e-06)
(-1.01803e-07 1.35547e-06 -9.01509e-06)
(3.04793e-06 -3.10955e-06 -6.94215e-06)
(-3.59084e-08 -1.31813e-07 -6.47562e-06)
(-3.04557e-06 -2.69997e-06 -7.05997e-06)
(-1.24791e-08 1.37529e-06 -9.09985e-06)
(2.96774e-06 -3.05352e-06 -7.0344e-06)
(-1.4342e-08 -1.16729e-07 -6.47128e-06)
(-2.99186e-06 -2.68066e-06 -6.88863e-06)
(5.30457e-09 1.38205e-06 -9.10446e-06)
(2.93077e-06 -3.17138e-06 -7.29569e-06)
(4.68922e-08 -1.67814e-07 -6.45574e-06)
(-2.96443e-06 -2.60642e-06 -6.55974e-06)
(1.71605e-07 1.40636e-06 -8.95841e-06)
(2.45414e-06 -3.56811e-06 -7.81687e-06)
(1.6607e-07 9.56661e-08 -5.39524e-06)
(-2.19847e-06 2.5803e-06 -7.70606e-06)
(2.50061e-06 1.4274e-06 -7.33075e-06)
(-2.57036e-06 2.0071e-06 -7.21842e-06)
(2.47271e-06 1.48762e-06 -7.28159e-06)
(-2.51934e-06 1.89531e-06 -7.24675e-06)
(2.52097e-06 1.57368e-06 -7.24161e-06)
(-2.52484e-06 1.89131e-06 -7.2273e-06)
(2.87986e-06 1.61193e-06 -7.35854e-06)
(-2.13221e-06 2.28017e-06 -7.06135e-06)
(9.76961e-07 1.42705e-07 -6.96309e-06)
(-1.65605e-06 9.68512e-07 -5.81021e-06)
(-1.14395e-06 1.39182e-06 -6.02951e-06)
(1.68233e-06 2.15524e-06 -7.50129e-06)
(1.23709e-07 -1.18236e-07 -4.67374e-06)
(-6.23847e-07 -7.07883e-07 -6.55674e-06)
(1.28979e-06 3.02986e-07 -1.00412e-05)
(-3.61698e-06 5.64413e-07 -6.77119e-06)
(-1.03292e-06 1.29943e-06 -6.70145e-06)
(3.80893e-06 2.04103e-07 -5.68849e-06)
(-1.76791e-07 3.51302e-07 -6.93141e-06)
(2.35748e-08 5.85387e-08 -4.27245e-06)
(3.81409e-08 7.22741e-09 -4.49443e-06)
(3.46985e-07 6.23205e-09 -4.49611e-06)
(1.99683e-06 2.38641e-06 -6.04715e-06)
(-3.45532e-07 -1.44394e-06 -6.20613e-06)
(8.53385e-08 4.84162e-08 -5.68914e-06)
(-7.92604e-08 1.4596e-06 -6.2831e-06)
(1.32556e-06 4.76653e-08 -1.02011e-05)
(-3.1873e-06 -1.04315e-07 -6.56187e-06)
(-3.17685e-06 3.0958e-07 -6.65487e-06)
(6.23794e-06 5.16166e-08 -5.76079e-06)
(-8.45147e-08 1.57075e-06 -6.33505e-06)
(1.54836e-06 -2.31903e-06 -5.9873e-06)
(2.53271e-06 2.08265e-06 -6.55155e-06)
(1.14741e-07 6.29564e-08 -5.54335e-06)
(3.64116e-08 -5.208e-08 -5.79576e-06)
(2.13753e-08 -5.53936e-09 -4.77454e-06)
(9.00201e-09 1.73758e-09 -3.05394e-06)
(1.91439e-09 4.45737e-09 -1.79908e-06)
(-6.19285e-10 3.69855e-09 -9.71542e-07)
(-1.06409e-09 2.41127e-09 -4.81172e-07)
(-8.39521e-10 1.38956e-09 -2.19085e-07)
(-4.82252e-10 6.82859e-10 -9.36665e-08)
(-1.80143e-10 2.70977e-10 -4.64751e-08)
(-1.34452e-10 1.64823e-10 -3.15302e-08)
(-4.07228e-09 4.1964e-09 -2.41133e-08)
(-3.63007e-09 -1.1888e-09 -2.47644e-08)
(6.43625e-10 -7.6346e-10 -4.14011e-08)
(1.97569e-09 -2.55233e-09 -2.64013e-08)
(-6.80008e-11 3.54685e-09 -2.15813e-08)
(2.72772e-09 -1.21125e-09 -2.37447e-08)
(-3.3673e-09 -2.79659e-09 -2.33818e-08)
(-3.16397e-10 -4.1551e-09 -3.1412e-08)
(-1.1074e-09 -4.50927e-09 -2.41166e-08)
(5.26056e-09 -1.32051e-10 -3.08859e-08)
(4.11762e-09 3.61831e-09 -2.31794e-08)
(8.77694e-10 -2.5475e-09 -2.42435e-08)
(3.3129e-09 3.02279e-10 -3.06359e-08)
(1.89114e-09 2.92773e-09 -2.33883e-08)
(1.33023e-09 -2.86128e-09 -2.39949e-08)
(3.57544e-09 1.33235e-10 -3.10682e-08)
(1.50211e-09 3.00555e-09 -2.37898e-08)
(1.6464e-09 -3.11569e-09 -2.35824e-08)
(3.62582e-09 -1.40505e-10 -3.10916e-08)
(1.23123e-09 2.7397e-09 -2.39113e-08)
(2.80019e-09 -3.37655e-09 -2.35161e-08)
(4.12422e-09 -3.23655e-10 -3.16999e-08)
(4.50023e-09 -1.10467e-09 -2.43137e-08)
(1.49e-10 5.22937e-09 -3.11347e-08)
(-3.59567e-09 4.12778e-09 -2.33907e-08)
(-5.62496e-12 -3.41453e-09 -2.17467e-08)
(2.57977e-09 2.01636e-09 -2.65407e-08)
(-3.5519e-09 1.56953e-09 -2.4524e-08)
(-4.15689e-09 -4.06566e-09 -2.42214e-08)
(8.02478e-10 6.88518e-10 -4.1572e-08)
(1.218e-09 -3.62045e-09 -2.487e-08)
(4.15467e-10 2.66293e-09 -2.48155e-08)
(-3.20846e-09 2.99807e-09 -2.4067e-08)
(-3.59994e-09 -3.43363e-09 -2.43758e-08)
(9.46438e-10 -7.09698e-11 -4.24155e-08)
(5.5238e-10 -2.89079e-09 -2.49198e-08)
(8.02916e-10 2.96482e-09 -2.48441e-08)
(-3.57909e-09 3.53771e-09 -2.42515e-08)
(-3.24961e-09 -2.92028e-09 -2.41767e-08)
(9.67834e-10 3.06815e-11 -4.23229e-08)
(1.6006e-10 -2.53681e-09 -2.4774e-08)
(1.59559e-09 3.61153e-09 -2.44302e-08)
(-3.4207e-09 3.2044e-11 -2.16266e-08)
(4.4879e-09 1.65205e-10 -3.02921e-08)
(-1.15951e-08 1.30663e-08 -2.94707e-08)
(-1.47323e-08 -9.80606e-09 -3.37999e-08)
(1.99086e-08 1.63693e-08 -5.84858e-08)
(-3.28843e-08 -2.63978e-08 -8.55533e-08)
(-2.22643e-09 1.81795e-09 -4.26502e-08)
(-1.45277e-08 -9.23226e-09 -5.24789e-08)
(3.58741e-10 8.49966e-10 -3.01602e-08)
(1.13442e-08 1.81268e-09 -3.42528e-08)
(-2.46128e-09 -5.09684e-10 -1.92989e-08)
(9.35337e-09 2.92627e-09 -2.50684e-08)
(4.5257e-09 -5.69186e-09 -2.61649e-08)
(6.9154e-09 5.80966e-09 -2.46225e-08)
(-1.39406e-08 -1.23327e-08 -3.24625e-08)
(4.59043e-09 9.63099e-11 -3.15996e-08)
(-1.21452e-08 1.27951e-08 -3.12698e-08)
(1.18197e-08 -1.86076e-08 -5.63332e-08)
(1.53873e-08 1.94749e-08 -5.57428e-08)
(-2.81376e-08 -3.00296e-08 -8.15585e-08)
(3.1769e-09 2.69119e-10 -5.43324e-08)
(-2.40296e-08 2.9967e-08 -8.17423e-08)
(3.26123e-08 -4.73198e-08 -1.30413e-07)
(4.07571e-08 4.93558e-08 -1.30356e-07)
(-6.6594e-08 -7.47521e-08 -1.96556e-07)
(5.21236e-09 5.64544e-10 -1.31787e-07)
(-5.60346e-08 7.39023e-08 -1.97256e-07)
(8.00316e-08 -1.1225e-07 -3.02441e-07)
(9.82802e-08 1.16681e-07 -3.02467e-07)
(-1.49944e-07 -1.70714e-07 -4.43274e-07)
(1.14905e-08 1.08169e-09 -3.04059e-07)
(-1.2551e-07 1.68428e-07 -4.44429e-07)
(1.77334e-07 -2.4487e-07 -6.53317e-07)
(2.16316e-07 2.54011e-07 -6.53492e-07)
(-3.13849e-07 -3.56955e-07 -9.20026e-07)
(2.31943e-08 2.03877e-09 -6.46319e-07)
(-2.6255e-07 3.51708e-07 -9.22349e-07)
(3.55582e-07 -4.9111e-07 -1.29894e-06)
(4.34643e-07 5.08704e-07 -1.3e-06)
(-6.09155e-07 -6.84e-07 -1.75244e-06)
(4.26322e-08 3.74314e-09 -1.26098e-06)
(-5.10141e-07 6.72462e-07 -1.75743e-06)
(6.46423e-07 -9.05752e-07 -2.37349e-06)
(7.97202e-07 9.36833e-07 -2.37737e-06)
(-1.09286e-06 -1.19827e-06 -3.06267e-06)
(7.26872e-08 6.15865e-09 -2.2566e-06)
(-9.12964e-07 1.17283e-06 -3.07227e-06)
(1.06363e-06 -1.52832e-06 -3.97452e-06)
(1.33269e-06 1.57722e-06 -3.98525e-06)
(-1.78389e-06 -1.88694e-06 -4.90658e-06)
(1.1714e-07 9.69603e-09 -3.68694e-06)
(-1.46955e-06 1.83382e-06 -4.92524e-06)
(1.54475e-06 -2.32713e-06 -6.008e-06)
(1.92147e-06 2.34487e-06 -6.01931e-06)
(-2.99494e-07 -1.45012e-06 -6.27438e-06)
(1.26908e-06 -1.21643e-08 -1.01983e-05)
(-3.1525e-06 -1.93101e-07 -6.55802e-06)
(-3.21592e-06 1.0002e-07 -6.53954e-06)
(6.26013e-06 -5.3826e-08 -5.77757e-06)
(-2.91785e-07 -2.70693e-09 -7.78809e-06)
(-3.0891e-07 1.18376e-08 -7.77217e-06)
(4.63133e-08 2.08374e-08 -4.495e-06)
(3.78101e-07 2.06681e-09 -4.50453e-06)
(1.99079e-06 2.38886e-06 -6.03967e-06)
(-2.39692e-07 -1.44351e-06 -6.25848e-06)
(1.05815e-07 5.01698e-09 -5.64905e-06)
(-3.04536e-07 1.74319e-06 -6.37677e-06)
(1.22139e-06 -2.84281e-07 -1.02029e-05)
(-3.20361e-06 -1.40752e-07 -6.60468e-06)
(-3.16273e-06 1.25371e-07 -6.52944e-06)
(6.2214e-06 -1.05055e-07 -5.79374e-06)
(-1.25622e-07 1.44902e-06 -6.24684e-06)
(1.54681e-06 -2.35361e-06 -6.01344e-06)
(8.25176e-08 1.49687e-08 -5.68401e-06)
(5.65517e-08 9.89736e-09 -5.65245e-06)
(2.50092e-08 2.91464e-08 -4.7657e-06)
(1.17394e-08 1.38271e-08 -3.05681e-06)
(3.3592e-09 4.38077e-09 -1.8033e-06)
(-4.94736e-11 4.61741e-10 -9.7422e-07)
(-8.84606e-10 -6.27825e-10 -4.8252e-07)
(-8.02307e-10 -6.78684e-10 -2.19679e-07)
(-4.74708e-10 -4.2063e-10 -9.39049e-08)
(-1.89586e-10 -1.60346e-10 -4.65933e-08)
(-1.39013e-10 -1.23565e-10 -3.16294e-08)
(2.97487e-09 -3.26121e-09 -2.42097e-08)
(-3.46185e-09 -3.57502e-09 -2.43244e-08)
(3.51015e-09 -3.59925e-09 -2.43104e-08)
(-2.92566e-09 -3.24266e-09 -2.41442e-08)
(6.91597e-11 1.01226e-09 -4.23341e-08)
(2.89887e-09 7.2345e-10 -2.48458e-08)
(-2.52736e-09 2.21362e-10 -2.47909e-08)
(4.62929e-11 -4.01207e-09 -2.25707e-08)
(-2.78354e-09 1.41507e-09 -2.40593e-08)
(1.4306e-11 -3.59985e-09 -3.91074e-08)
(-2.84251e-09 7.04371e-10 -2.48447e-08)
(-6.11496e-12 1.01488e-09 -4.23926e-08)
(2.58185e-09 2.43422e-10 -2.4863e-08)
(8.54563e-11 -3.54627e-09 -3.87458e-08)
(2.53962e-09 8.92819e-10 -2.43321e-08)
(-2.55586e-10 3.23925e-09 -3.07304e-08)
(-2.8608e-09 1.84894e-09 -2.34851e-08)
(-2.47511e-11 -4.01705e-09 -2.26091e-08)
(2.79925e-09 1.42524e-09 -2.40855e-08)
(5.83845e-12 3.53094e-09 -3.08172e-08)
(1.14974e-11 4.97672e-09 -1.7166e-08)
(5.66311e-09 5.72374e-09 -2.54977e-08)
(-1.24264e-08 -1.27702e-08 -3.13173e-08)
(1.24819e-08 -1.27718e-08 -3.12843e-08)
(-1.21305e-08 -1.35918e-08 -3.25161e-08)
(1.92679e-08 1.46688e-08 -5.5844e-08)
(-2.96452e-08 -2.70047e-08 -8.16574e-08)
(4.88061e-08 3.87591e-08 -1.30593e-07)
(-7.37474e-08 -6.34869e-08 -1.96708e-07)
(1.15262e-07 9.33614e-08 -3.02962e-07)
(-1.68372e-07 -1.42586e-07 -4.43442e-07)
(2.5079e-07 2.05483e-07 -6.54439e-07)
(-3.52048e-07 -2.98143e-07 -9.2022e-07)
(5.02164e-07 4.12924e-07 -1.30177e-06)
(-6.74467e-07 -5.78646e-07 -1.75253e-06)
(9.24902e-07 7.57878e-07 -2.38088e-06)
(-1.18145e-06 -1.03994e-06 -3.06172e-06)
(1.55844e-06 1.27102e-06 -3.99256e-06)
(-1.86177e-06 -1.70632e-06 -4.90103e-06)
(2.36147e-06 1.92067e-06 -6.06369e-06)
(-1.43341e-06 -2.9955e-07 -6.20197e-06)
(3.85868e-08 1.34727e-06 -1.02073e-05)
(1.45428e-06 -1.50503e-07 -6.31255e-06)
(4.324e-08 9.05207e-08 -5.68877e-06)
(-2.29837e-06 1.66362e-06 -5.99518e-06)
(1.81515e-06 -1.56915e-06 -4.93999e-06)
(1.11641e-08 1.21416e-07 -3.69017e-06)
(-1.50991e-06 1.15226e-06 -3.97505e-06)
(1.15907e-06 -9.83002e-07 -3.07823e-06)
(6.20523e-09 7.45548e-08 -2.25871e-06)
(-8.95047e-07 7.01532e-07 -2.37593e-06)
(6.64119e-07 -5.51127e-07 -1.75958e-06)
(3.4615e-09 4.34859e-08 -1.26211e-06)
(-4.85394e-07 3.85721e-07 -1.30066e-06)
(3.47254e-07 -2.83918e-07 -9.23162e-07)
(1.83522e-09 2.35921e-08 -6.46877e-07)
(-2.42059e-07 1.92313e-07 -6.54285e-07)
(1.66306e-07 -1.35628e-07 -4.44766e-07)
(9.50768e-10 1.16771e-08 -3.04341e-07)
(-1.1099e-07 8.69193e-08 -3.03011e-07)
(7.30032e-08 -6.03521e-08 -1.9737e-07)
(4.9155e-10 5.30803e-09 -1.31925e-07)
(-4.68084e-08 3.54941e-08 -1.30747e-07)
(2.95986e-08 -2.56853e-08 -8.17623e-08)
(2.43548e-10 3.22119e-09 -5.43866e-08)
(-1.83747e-08 1.2851e-08 -5.64755e-08)
(5.05114e-11 -1.50703e-09 -3.77322e-08)
(1.85036e-08 1.28675e-08 -5.64933e-08)
(-2.9391e-08 -2.56388e-08 -8.17949e-08)
(-1.28634e-10 3.22613e-09 -5.44391e-08)
(-1.91385e-08 1.47214e-08 -5.59081e-08)
(1.2203e-08 -1.35638e-08 -3.25757e-08)
(-5.55775e-11 4.62658e-09 -3.17108e-08)
(-5.70845e-09 6.70873e-09 -2.46814e-08)
(-3.98708e-10 4.51741e-09 -1.72806e-08)
(5.69499e-09 4.59496e-09 -2.63728e-08)
(-1.29174e-08 -1.18952e-08 -2.96282e-08)
(1.81894e-08 1.16134e-08 -5.62746e-08)
(-2.94547e-08 -2.41458e-08 -8.14161e-08)
(4.60373e-08 3.40525e-08 -1.30351e-07)
(-7.18419e-08 -5.67373e-08 -1.97332e-07)
(1.09838e-07 8.45977e-08 -3.03607e-07)
(-1.62789e-07 -1.28117e-07 -4.44956e-07)
(2.40721e-07 1.87993e-07 -6.57855e-07)
(-3.38757e-07 -2.69467e-07 -9.23621e-07)
(4.85254e-07 3.78309e-07 -1.31098e-06)
(-6.46416e-07 -5.2732e-07 -1.75958e-06)
(9.01722e-07 6.94645e-07 -2.40486e-06)
(-1.12547e-06 -9.50889e-07 -3.06617e-06)
(1.53459e-06 1.16243e-06 -4.05059e-06)
(-1.74859e-06 -1.51424e-06 -4.86757e-06)
(2.32947e-06 1.69855e-06 -6.11216e-06)
(-1.41675e-06 -1.41516e-07 -6.24801e-06)
(-3.71965e-07 1.02185e-06 -1.01126e-05)
(5.85565e-07 -6.70245e-07 -6.66624e-06)
(6.20807e-08 1.26659e-07 -5.53604e-06)
(-2.17155e-06 2.35969e-06 -6.6003e-06)
(1.60553e-06 -2.20636e-06 -5.37391e-06)
(8.77152e-09 1.45495e-07 -3.59854e-06)
(-1.38233e-06 1.69044e-06 -4.34929e-06)
(1.05269e-06 -1.33342e-06 -3.31489e-06)
(-8.18759e-09 8.32337e-08 -2.19834e-06)
(-7.92277e-07 1.0164e-06 -2.57976e-06)
(5.95961e-07 -7.27024e-07 -1.8794e-06)
(-8.6707e-09 4.59357e-08 -1.22461e-06)
(-4.25998e-07 5.52532e-07 -1.40528e-06)
(3.08138e-07 -3.70422e-07 -9.81361e-07)
(-5.88108e-09 2.45181e-08 -6.26473e-07)
(-2.12569e-07 2.76406e-07 -7.05298e-07)
(1.46966e-07 -1.7558e-07 -4.71018e-07)
(-3.77185e-09 1.20764e-08 -2.94195e-07)
(-9.74945e-08 1.26901e-07 -3.25136e-07)
(6.47326e-08 -7.70983e-08 -2.07727e-07)
(-2.26969e-09 5.56114e-09 -1.27163e-07)
(-4.1021e-08 5.32155e-08 -1.39016e-07)
(2.64778e-08 -3.22731e-08 -8.56878e-08)
(-1.36076e-09 3.36853e-09 -5.20331e-08)
(-1.60336e-08 1.977e-08 -5.85652e-08)
(9.78376e-09 -1.45625e-08 -3.39058e-08)
(-1.31421e-10 4.52962e-09 -3.04508e-08)
(-2.8782e-09 9.38692e-09 -2.52056e-08)
(4.43029e-09 7.91652e-09 -2.4534e-08)
(7.48855e-09 -3.89193e-09 -2.32355e-08)
(-1.48341e-09 1.13562e-08 -3.42908e-08)
(3.88222e-10 -2.45348e-09 -1.93225e-08)
(-1.49514e-09 7.19055e-10 -2.21805e-08)
(4.99904e-09 1.17001e-08 -3.00568e-08)
(-1.58486e-08 -1.06299e-08 -2.88796e-08)
(1.75138e-08 1.4214e-08 -5.65336e-08)
(-3.37284e-08 -2.13531e-08 -8.34879e-08)
(-2.27076e-08 3.38642e-08 -8.10455e-08)
(-2.87726e-08 -3.06416e-08 -8.1587e-08)
(3.27905e-09 -5.11774e-10 -5.3711e-08)
(1.23602e-08 -2.22974e-08 -5.53588e-08)
(1.3879e-08 1.8933e-08 -5.65395e-08)
(-1.3774e-08 -1.331e-08 -3.01503e-08)
(4.32369e-09 1.51658e-10 -3.13399e-08)
(-1.18638e-08 1.33931e-08 -3.27886e-08)
(-1.76253e-09 3.38369e-10 -3.72295e-08)
(-1.85236e-10 -3.65249e-10 -3.64062e-08)
(-3.86001e-09 -3.10922e-09 -3.66828e-08)
(2.35481e-10 2.27448e-10 -2.56521e-08)
(-2.13061e-10 -2.52559e-10 -2.46093e-08)
(-3.74288e-09 1.41786e-10 -3.86643e-08)
(-1.05735e-09 -2.27573e-10 -3.99541e-08)
(-1.7054e-09 -1.69823e-10 -3.76506e-08)
(-1.24902e-08 1.26423e-08 -3.22988e-08)
(-1.36045e-08 -1.27517e-08 -3.15039e-08)
(1.43531e-08 1.89212e-08 -5.64735e-08)
(-2.80173e-08 -2.9936e-08 -8.17945e-08)
(-3.35204e-09 9.20814e-11 -8.5361e-08)
(3.93949e-08 4.81147e-08 -1.30771e-07)
(-6.64151e-08 -7.3857e-08 -1.97382e-07)
(9.64539e-08 1.14222e-07 -3.03064e-07)
(-1.49576e-07 -1.68202e-07 -4.44744e-07)
(-1.68998e-08 8.10991e-10 -4.42241e-07)
(2.13795e-07 2.49485e-07 -6.54778e-07)
(-3.13219e-07 -3.50913e-07 -9.22604e-07)
(4.30547e-07 5.0107e-07 -1.30281e-06)
(-6.08034e-07 -6.70494e-07 -1.75646e-06)
(-2.31789e-08 2.83905e-09 -1.67935e-06)
(7.88986e-07 9.2441e-07 -2.38248e-06)
(-1.08602e-06 -1.16965e-06 -3.06666e-06)
(1.31034e-06 1.55425e-06 -3.98943e-06)
(-1.74653e-06 -1.83441e-06 -4.91176e-06)
(3.6288e-07 -3.98279e-09 -4.50331e-06)
(4.58197e-08 3.07583e-09 -4.49339e-06)
(-2.99515e-09 5.02658e-09 -2.88077e-06)
(7.73849e-10 1.48327e-08 -2.88636e-06)
(-2.19461e-08 6.39724e-09 -1.6999e-06)
(-2.12261e-08 7.35961e-09 -1.68655e-06)
(8.20526e-07 9.35795e-07 -2.39921e-06)
(-1.11569e-06 -1.17057e-06 -3.07324e-06)
(8.07332e-08 4.60477e-09 -2.26415e-06)
(-9.04528e-07 1.39434e-06 -3.11029e-06)
(9.95396e-07 -1.78218e-06 -3.98378e-06)
(1.3733e-06 1.58912e-06 -4.02794e-06)
(-1.75346e-06 -1.81791e-06 -4.89095e-06)
(1.41106e-07 1.58837e-08 -3.69486e-06)
(-1.54287e-06 2.22525e-06 -5.01511e-06)
(1.3751e-06 -2.61935e-06 -5.96436e-06)
(2.77066e-06 1.69144e-06 -6.78363e-06)
(-1.702e-07 -1.3393e-06 -6.14698e-06)
(1.90774e-07 -2.67444e-06 -1.03813e-05)
(-3.46119e-06 -2.16712e-07 -6.79982e-06)
(-3.22528e-06 2.09486e-08 -6.42187e-06)
(5.98083e-06 -9.55344e-07 -6.01425e-06)
(-4.20018e-07 -2.62401e-07 -7.65597e-06)
(4.54062e-08 2.65321e-08 -4.28976e-06)
(8.606e-08 1.23727e-06 -3.93883e-06)
(-1.25653e-06 1.46424e-06 -5.25646e-06)
(2.26653e-07 8.65198e-08 -3.09273e-06)
(6.0901e-07 -1.74404e-06 -4.0669e-06)
(-6.35353e-07 1.07256e-06 -3.15773e-06)
(3.54158e-08 -9.54238e-09 -1.84113e-06)
(3.8457e-07 -8.46171e-07 -2.41314e-06)
(-3.39104e-07 6.08623e-07 -1.75904e-06)
(-1.9326e-09 -1.6363e-08 -1.01566e-06)
(1.9806e-07 -4.25671e-07 -1.31785e-06)
(-1.80977e-07 3.18885e-07 -9.14928e-07)
(-4.5909e-09 -9.5711e-09 -5.18326e-07)
(8.96808e-08 -2.02459e-07 -6.57999e-07)
(-8.66917e-08 1.52328e-07 -4.34183e-07)
(-4.55995e-09 -6.22115e-09 -2.42338e-07)
(4.20469e-08 -9.18227e-08 -3.02684e-07)
(-3.79268e-08 6.9345e-08 -1.89802e-07)
(-3.48425e-09 -3.55599e-09 -1.04207e-07)
(1.83338e-08 -3.64736e-08 -1.2734e-07)
(-1.37486e-08 2.93992e-08 -7.72665e-08)
(-2.27384e-09 -2.51439e-09 -4.24412e-08)
(9.74224e-09 -1.36602e-08 -5.23126e-08)
(2.87625e-09 2.02539e-09 -3.21387e-08)
(1.8478e-09 4.17252e-09 -3.05985e-08)
(-2.40139e-11 -9.71429e-09 -4.79987e-08)
(-5.57473e-11 -1.63536e-09 -5.04612e-08)
(7.72782e-09 1.95367e-08 -6.95082e-08)
(-3.31507e-09 -3.09922e-08 -1.16519e-07)
(4.84129e-08 3.3882e-08 -1.31127e-07)
(-8.00468e-08 -5.24867e-08 -2.02148e-07)
(1.19697e-07 8.01318e-08 -3.08653e-07)
(-1.81456e-07 -1.19516e-07 -4.56825e-07)
(-1.16829e-07 1.91791e-07 -4.431e-07)
(-1.53736e-07 -1.69947e-07 -4.45885e-07)
(1.17758e-08 -1.53706e-09 -3.03524e-07)
(7.88771e-08 -1.31618e-07 -3.03963e-07)
(9.90019e-08 1.13809e-07 -3.0343e-07)
(-6.8117e-08 -7.49167e-08 -1.97741e-07)
(5.34038e-09 -1.03038e-09 -1.31244e-07)
(-5.18114e-08 8.37288e-08 -1.95668e-07)
(-6.48973e-09 4.21958e-10 -1.99518e-07)
(-3.42686e-09 -3.30716e-09 -1.95615e-07)
(-1.39528e-09 -1.49241e-09 -8.28168e-08)
(-1.97085e-09 -1.85733e-09 -7.03176e-08)
(-3.62083e-09 -9.65104e-09 -8.79322e-08)
(1.35141e-09 -2.53426e-09 -7.84512e-08)
(2.69054e-10 -5.2716e-10 -7.42921e-08)
(-4.14384e-09 -8.55822e-10 -8.97675e-08)
(-1.48004e-08 1.97625e-09 -9.3816e-08)
(-4.35487e-09 1.13383e-09 -4.24695e-08)
(5.24021e-09 3.09578e-10 -2.80334e-08)
(6.15158e-09 -5.95858e-10 -1.76939e-08)
(5.48648e-09 8.76293e-09 -3.12948e-08)
(2.09646e-09 2.74305e-09 -1.81945e-08)
(1.12093e-08 2.55649e-10 -2.97725e-08)
(3.24199e-09 2.41827e-09 -3.95352e-08)
(7.06186e-09 -1.65466e-09 -5.97023e-08)
(1.06844e-08 -5.46196e-09 -1.4099e-07)
(-1.55096e-08 -4.43008e-09 -2.13764e-07)
(-3.27691e-08 3.87254e-09 -2.17626e-07)
(-6.59991e-08 8.19698e-09 -4.78213e-07)
(-3.48501e-08 -8.96461e-09 -4.76993e-07)
(1.91655e-08 -1.25859e-08 -3.233e-07)
(-1.20731e-08 -7.58621e-08 -2.76445e-07)
(3.13727e-09 -7.15963e-09 -2.91895e-07)
(3.2007e-08 1.0193e-07 -3.98668e-07)
(-2.86627e-08 -1.68138e-07 -5.98962e-07)
(2.65854e-07 1.75076e-07 -6.73846e-07)
(-3.81058e-07 -2.49205e-07 -9.49422e-07)
(5.38111e-07 3.54452e-07 -1.34817e-06)
(-7.4684e-07 -4.77512e-07 -1.81257e-06)
(-4.87e-07 7.81644e-07 -1.7666e-06)
(-6.26798e-07 -6.74022e-07 -1.76263e-06)
(4.49487e-08 -6.72925e-10 -1.26318e-06)
(3.43349e-07 -5.7183e-07 -1.30893e-06)
(4.45352e-07 5.03522e-07 -1.30893e-06)
(-3.22488e-07 -3.53647e-07 -9.25443e-07)
(2.40027e-08 -1.75985e-09 -6.46398e-07)
(-2.46709e-07 4.03541e-07 -9.23273e-07)
(-1.91516e-08 4.12883e-09 -9.03691e-07)
(-7.77545e-09 -8.42858e-09 -8.71788e-07)
(-6.01685e-09 -5.83434e-09 -4.3063e-07)
(-7.13108e-09 2.91906e-09 -3.7371e-07)
(-1.69624e-08 -4.96058e-08 -4.52493e-07)
(-1.26902e-09 -2.53842e-08 -4.31275e-07)
(-5.36471e-09 -1.78822e-08 -4.09314e-07)
(-8.67936e-09 -2.37985e-08 -2.05449e-07)
(-7.12355e-10 -1.10325e-08 -1.88492e-07)
(-2.20835e-09 -7.92004e-09 -1.78993e-07)
(1.59103e-08 4.52119e-08 -1.73616e-07)
(1.28228e-09 -3.37904e-09 -1.25226e-07)
(-3.97499e-09 -1.08038e-09 -1.67992e-07)
(-3.81355e-10 9.92627e-09 -1.44681e-07)
(4.86849e-10 -1.46973e-08 -9.54737e-08)
(1.04142e-10 -4.39753e-09 -4.32137e-08)
(-3.756e-10 6.06254e-09 -2.84772e-08)
(5.55234e-10 1.0854e-08 -2.9585e-08)
(-7.13108e-09 1.91258e-08 -2.61481e-08)
(-1.33193e-09 -5.29054e-10 -3.92533e-08)
(-8.87623e-10 -1.0638e-10 -3.00811e-08)
(-3.36465e-10 4.00721e-09 -6.11656e-08)
(-1.62853e-10 2.45745e-09 -6.14747e-08)
(2.99028e-08 -2.69263e-08 -8.17737e-08)
(1.52219e-10 -3.30574e-09 -8.50092e-08)
(-4.84936e-08 3.89838e-08 -1.30706e-07)
(4.71867e-08 3.55133e-08 -1.30833e-07)
(-7.24154e-08 -6.01677e-08 -1.97378e-07)
(-1.32805e-10 5.32857e-09 -1.32083e-07)
(7.45382e-08 -6.34988e-08 -1.97123e-07)
(6.14276e-10 -7.77657e-09 -2.00086e-07)
(-1.14538e-07 9.38167e-08 -3.03232e-07)
(1.12063e-07 8.70761e-08 -3.03413e-07)
(-1.64826e-07 -1.35126e-07 -4.44601e-07)
(8.42603e-11 1.17511e-08 -3.04799e-07)
(1.7047e-07 -1.43224e-07 -4.44867e-07)
(1.60564e-09 -1.54125e-08 -4.42118e-07)
(-2.49155e-07 2.05886e-07 -6.55057e-07)
(2.44809e-07 1.93121e-07 -6.5575e-07)
(-3.43868e-07 -2.8294e-07 -9.22261e-07)
(8.28374e-10 2.3796e-08 -6.48049e-07)
(3.57062e-07 -3.00804e-07 -9.2421e-07)
(3.73331e-09 -2.29706e-08 -8.99741e-07)
(-4.98914e-07 4.11845e-07 -1.30282e-06)
(4.91681e-07 3.88814e-07 -1.30502e-06)
(-6.57171e-07 -5.50139e-07 -1.75592e-06)
(2.73138e-09 4.40572e-08 -1.26467e-06)
(6.85233e-07 -5.86895e-07 -1.76252e-06)
(7.18056e-09 -1.27365e-08 -1.68144e-06)
(-9.19289e-07 7.47907e-07 -2.38015e-06)
(9.07397e-07 7.12757e-07 -2.38808e-06)
(-1.14662e-06 -9.86741e-07 -3.06447e-06)
(6.83563e-09 7.59959e-08 -2.26307e-06)
(1.19952e-06 -1.05741e-06 -3.08485e-06)
(7.24788e-09 7.89955e-08 -2.88238e-06)
(-1.54816e-06 1.22125e-06 -3.9772e-06)
(1.52741e-06 1.18954e-06 -4.00395e-06)
(-1.79853e-06 -1.59982e-06 -4.90105e-06)
(1.20872e-08 1.23963e-07 -3.69262e-06)
(1.87239e-06 -1.70951e-06 -4.94557e-06)
(-1.29652e-08 4.42999e-07 -4.49785e-06)
(-2.3393e-06 1.76304e-06 -5.9961e-06)
(2.30607e-06 1.76262e-06 -6.05087e-06)
(-1.4423e-06 -2.08925e-07 -6.26918e-06)
(-4.07595e-09 9.15138e-08 -5.67914e-06)
(1.42963e-06 -2.64943e-07 -6.27355e-06)
(-1.06135e-07 6.23254e-06 -5.8294e-06)
(-2.64621e-07 -3.1664e-06 -6.58322e-06)
(-1.83473e-07 -3.28401e-06 -6.35641e-06)
(-3.27412e-07 4.67868e-06 -5.63003e-06)
(-3.04079e-06 1.23992e-06 -7.55669e-06)
(5.94242e-07 4.13608e-07 -4.8026e-06)
(3.26468e-07 -3.3884e-06 -6.08465e-06)
(-2.25037e-07 -8.3534e-07 -4.42633e-06)
(-4.47266e-07 -5.13425e-07 -4.22889e-06)
(-1.16697e-07 1.3305e-06 -4.94637e-06)
(-2.07622e-06 -1.40403e-06 -4.87783e-06)
(4.9751e-07 -2.72384e-08 -4.55994e-06)
(-1.01761e-06 8.13172e-08 -4.93321e-06)
(-1.28005e-06 -3.11511e-07 -4.99313e-06)
(-1.73244e-07 -3.36894e-07 -4.0758e-06)
(-3.75652e-07 -7.51973e-08 -3.21086e-06)
(-5.15885e-07 8.73735e-08 -3.15605e-06)
(-2.52003e-07 4.16381e-08 -1.82359e-06)
(-1.3715e-07 -2.40081e-08 -1.84591e-06)
(6.22754e-08 -4.86044e-08 -1.34405e-06)
(-6.74657e-08 -1.61536e-08 -9.77261e-07)
(-1.28218e-07 1.80471e-08 -9.71978e-07)
(-1.17195e-07 4.51489e-09 -9.64292e-07)
(-5.9925e-08 1.6799e-09 -4.76379e-07)
(-3.03766e-08 4.8061e-10 -2.18238e-07)
(-1.44839e-08 -4.95302e-11 -9.4824e-08)
(-4.27764e-09 -2.36123e-10 -4.28733e-08)
(6.4175e-09 -6.63322e-10 -2.8297e-08)
(5.37793e-09 -2.82711e-10 -1.732e-08)
(5.69596e-09 5.91299e-09 -2.61011e-08)
(6.52227e-09 -5.96602e-09 -2.29943e-08)
(9.9003e-09 -6.58073e-11 -2.97492e-08)
(9.53113e-09 1.67655e-11 -3.01932e-08)
(6.10831e-09 -6.12403e-09 -2.48559e-08)
(6.16558e-09 5.99779e-09 -2.5675e-08)
(4.57863e-09 -3.96578e-11 -3.17422e-08)
(-4.07304e-09 2.62882e-12 -2.25469e-08)
(1.16031e-09 -2.91157e-11 -2.7576e-08)
(-4.58907e-10 -4.66478e-10 -2.49164e-08)
(-3.12969e-10 -3.1069e-10 -2.46628e-08)
(1.05468e-09 1.06121e-09 -2.73706e-08)
(-3.54509e-09 -5.96787e-11 -2.17049e-08)
(-1.60126e-11 1.21794e-09 -2.74916e-08)
(2.54279e-12 -4.62438e-10 -2.47969e-08)
(-2.85097e-13 -5.66632e-10 -2.52317e-08)
(2.07384e-11 -1.00365e-10 -3.2056e-08)
(-2.25402e-09 2.13041e-09 -2.40229e-08)
(-2.69131e-09 -2.67516e-09 -2.43826e-08)
(-2.69589e-09 2.7537e-09 -2.4352e-08)
(-2.25225e-09 -2.05006e-09 -2.40186e-08)
(2.28985e-09 -2.10406e-09 -2.39635e-08)
(-1.65424e-09 -1.63758e-09 -2.36126e-08)
(1.60679e-10 1.56423e-10 -4.37047e-08)
(2.76446e-09 2.75294e-09 -2.43233e-08)
(-2.08309e-09 2.31393e-09 -2.40066e-08)
(-2.06651e-09 -2.25005e-09 -2.4008e-08)
(1.67569e-10 -9.05219e-11 -4.3757e-08)
(2.73075e-09 -2.70833e-09 -2.43528e-08)
(1.98818e-11 2.24949e-11 -3.25086e-08)
(4.76933e-11 5.37002e-11 -4.77936e-08)
(5.09765e-11 -1.72827e-10 -4.71357e-08)
(4.40605e-11 -1.02796e-09 -4.01477e-08)
(-2.74772e-10 -1.00607e-09 -3.98381e-08)
(-3.60802e-11 -1.77712e-09 -3.73966e-08)
(-2.16861e-10 -2.93779e-09 -8.74809e-08)
(-2.86523e-10 -6.72606e-09 -2.06033e-07)
(4.7752e-12 -1.25542e-08 -4.52875e-07)
(1.29274e-09 -1.90722e-08 -9.15155e-07)
(4.6894e-09 -1.90012e-08 -1.69636e-06)
(-2.90007e-09 -8.05005e-09 -1.61959e-06)
(-1.16158e-08 6.39322e-08 -1.43315e-06)
(-4.65517e-08 -1.93847e-07 -1.71795e-06)
(1.14609e-08 -8.94644e-08 -1.65486e-06)
(-2.42345e-08 -3.70797e-08 -1.57519e-06)
(1.08348e-07 4.46089e-07 -1.61341e-06)
(-1.50605e-07 -6.02801e-07 -2.20154e-06)
(1.01226e-06 6.62592e-07 -2.49825e-06)
(-1.35061e-06 -8.5701e-07 -3.1485e-06)
(1.77968e-06 1.13217e-06 -4.31743e-06)
(-3.41792e-09 -6.24968e-08 -3.75078e-06)
(-5.01445e-07 -1.08622e-06 -3.6703e-06)
(-1.062e-07 -7.90634e-08 -2.70435e-06)
(1.40762e-07 8.51565e-07 -2.90631e-06)
(1.19781e-08 -3.3034e-08 -2.22999e-06)
(7.3893e-08 -1.12298e-07 -2.43958e-06)
(1.02201e-07 1.71993e-08 -2.46437e-06)
(-2.31086e-07 1.11006e-08 -1.80003e-06)
(-4.60719e-07 2.47981e-08 -3.0904e-06)
(-9.42721e-07 3.07884e-08 -4.86351e-06)
(-2.2374e-06 -3.02026e-08 -7.07176e-06)
(-2.30944e-06 -3.49898e-07 -7.08471e-06)
(-5.08673e-06 1.21101e-06 -7.1848e-06)
(-1.9333e-06 -5.93813e-07 -5.79093e-06)
(-1.6299e-06 -1.90305e-06 -5.2246e-06)
(-1.37188e-08 -3.17916e-07 -5.63915e-06)
(-6.18533e-07 -4.25302e-07 -6.47454e-06)
(6.2476e-07 -4.84794e-06 -5.67748e-06)
(-4.62875e-06 -1.38653e-06 -6.61519e-06)
(-2.84258e-06 1.81985e-07 -9.83726e-06)
(-1.3989e-06 -2.08553e-06 -8.86414e-06)
(1.99786e-06 1.49501e-06 -8.37771e-06)
(1.60804e-07 7.84072e-08 -8.69432e-06)
(8.08319e-08 6.22455e-08 -5.43482e-06)
(-2.02081e-06 1.80346e-06 -6.98741e-06)
(2.12705e-06 1.50864e-06 -7.31085e-06)
(1.5873e-08 1.86761e-07 -8.85141e-06)
(-2.67008e-07 -1.74231e-07 -5.56877e-06)
(-2.19975e-06 1.97351e-06 -7.20171e-06)
(2.13096e-06 1.77657e-06 -7.335e-06)
(4.23036e-09 1.9613e-07 -8.89308e-06)
(-2.9547e-07 -2.07923e-07 -5.59386e-06)
(-2.14975e-06 1.7984e-06 -7.11311e-06)
(2.12386e-06 2.01915e-06 -7.43208e-06)
(1.54742e-08 1.83435e-07 -8.88392e-06)
(-4.71481e-07 -4.62284e-07 -5.74449e-06)
(-2.05396e-06 1.50411e-06 -7.0693e-06)
(1.51654e-06 2.03901e-06 -7.95201e-06)
(-1.3444e-06 -7.36265e-07 -1.11112e-05)
(1.19356e-06 1.22771e-06 -9.10327e-06)
(9.1212e-07 -1.06168e-06 -8.91292e-06)
(2.54812e-06 1.13901e-06 -1.13434e-05)
(-1.19957e-06 -4.44721e-06 -1.11803e-05)
(-6.58215e-07 -2.39647e-06 -8.78357e-06)
(3.71699e-07 3.66808e-07 -6.32696e-06)
(1.41058e-06 -1.09935e-06 -8.78703e-06)
(-4.16716e-06 2.0018e-06 -7.52213e-06)
(-1.9249e-07 -1.26992e-07 -6.49536e-06)
(-2.4109e-06 -3.22726e-06 -7.07951e-06)
(2.44274e-06 1.92936e-06 -7.83185e-06)
(2.38813e-06 -3.42307e-08 -6.30855e-06)
(2.16165e-06 -2.26845e-06 -8.14965e-06)
(2.73986e-06 -2.26432e-06 -9.43488e-06)
(1.17081e-06 -3.23695e-06 -6.19273e-06)
(1.53663e-07 9.90617e-07 -6.96753e-06)
(9.69306e-07 -1.65989e-06 -5.81346e-06)
(1.39329e-06 -1.13646e-06 -6.03451e-06)
(2.14251e-06 1.67141e-06 -7.50355e-06)
(-6.34955e-07 -2.71206e-06 -6.0242e-06)
(1.79304e-07 -4.52659e-07 -4.32768e-06)
(1.11176e-06 1.62097e-06 -5.05265e-06)
(-5.99439e-07 -1.48879e-06 -3.97429e-06)
(1.50214e-08 -1.60083e-07 -2.78507e-06)
(6.10736e-07 1.05725e-06 -3.0762e-06)
(-3.62233e-07 -7.94835e-07 -2.37567e-06)
(3.49005e-09 -7.99741e-08 -1.61722e-06)
(3.39545e-07 6.01731e-07 -1.73723e-06)
(-1.87263e-07 -4.13015e-07 -1.30178e-06)
(3.31156e-09 -4.71355e-08 -8.65712e-07)
(1.78901e-07 3.12969e-07 -9.05759e-07)
(-8.98648e-08 -2.03131e-07 -6.549e-07)
(2.21134e-09 -2.59778e-08 -4.24658e-07)
(8.72154e-08 1.50475e-07 -4.34468e-07)
(-4.02911e-08 -9.24824e-08 -3.02056e-07)
(9.45872e-10 -1.22682e-08 -1.91483e-07)
(3.85008e-08 6.70789e-08 -1.91022e-07)
(-1.7879e-08 -3.88104e-08 -1.2839e-07)
(-3.79989e-10 -4.04135e-09 -7.83851e-08)
(1.46679e-08 2.88163e-08 -7.85173e-08)