/*--------------------------------*- C++ -*----------------------------------*\
| =========                 |                                                 |
| \\      /  F ield         | OpenFOAM: The Open Source CFD Toolbox           |
|  \\    /   O peration     | Version:  2306                                  |
|   \\  /    A nd           | Website:  www.openfoam.com                      |
|    \\/     M anipulation  |                                                 |
\*---------------------------------------------------------------------------*/
FoamFile
{
    version     2.0;
    format      ascii;
    arch        "LSB;label=32;scalar=64";
    class       volVectorField;
    location    "1";
    object      flux;
}
// * * * * * * * * * * * * * * * * * * * * * * * * * * * * * * * * * * * * * //

dimensions      [0 1 -1 1 0 0 0];

internalField   nonuniform List<vector> 
5322
(
(-0.00100438 0.00259403 -0.00347904)
(2.34678e-05 0.000245024 -0.0035444)
(2.85051e-05 -1.56857e-05 -0.00364707)
(3.0976e-06 -0.000106066 -0.00395339)
(-6.00637e-07 -5.75758e-05 -0.00390832)
(-7.47976e-07 -1.90466e-05 -0.00388386)
(-4.53376e-08 1.1432e-06 -0.0038687)
(4.59938e-07 2.0447e-05 -0.00386179)
(2.5963e-07 5.65296e-05 -0.00386483)
(-8.52509e-07 0.000101674 -0.00389055)
(-3.9563e-06 1.27787e-06 -0.00384277)
(4.28739e-05 -0.000750881 -0.00385245)
(6.60461e-05 -0.000834372 -0.00289892)
(-0.000909847 -0.000748947 -0.00399683)
(-2.40993e-05 -0.000650204 -0.00437056)
(0.00158369 0.00140731 -0.0034893)
(-0.00124447 0.00188235 -0.00412455)
(-1.9592e-05 -3.02287e-06 -0.00308825)
(-0.000949657 0.00130018 -0.0043489)
(0.000612707 -0.00154229 -0.00439038)
(-0.000833021 0.00146751 -0.00442101)
(0.00072555 -0.00149221 -0.00440421)
(-0.000767445 0.00146484 -0.00441071)
(0.000773088 -0.00150106 -0.00443821)
(-0.000783204 0.00149727 -0.00444361)
(0.000754119 -0.00147111 -0.00442434)
(-0.000755785 0.00147131 -0.00443269)
(0.000786212 -0.00150475 -0.00445951)
(-0.000774639 0.0015025 -0.00446897)
(0.000777238 -0.00148713 -0.00445371)
(-0.000737549 0.00149847 -0.00446147)
(0.000840685 -0.00150177 -0.00447736)
(-0.000631427 0.00155303 -0.00445564)
(0.000965801 -0.00133709 -0.00439181)
(1.49113e-05 0.0012842 -0.00418357)
(0.00121567 -0.000643547 -0.00343929)
(0.000857155 0.00126495 -0.00391499)
(-0.000341828 0.00158689 -0.0039874)
(0.000960404 0.000792832 -0.00411579)
(-5.52124e-05 0.000859057 -0.00290086)
(-0.000910906 0.0011712 -0.00382723)
(0.000915924 0.00097831 -0.00394978)
(-5.54571e-05 0.00101337 -0.00284875)
(-0.00097449 0.00109325 -0.00395554)
(0.000968475 0.00104231 -0.00391685)
(-3.33031e-05 0.00103284 -0.00289614)
(-0.00103575 0.00105893 -0.00401039)
(0.000904702 0.0011313 -0.00378568)
(-2.28132e-05 0.00104905 -0.00285775)
(-0.00108559 0.00100108 -0.00392157)
(-0.00107113 0.00125602 -0.00439385)
(-0.00155523 0.000607179 -0.00314931)
(-0.000486363 0.000680292 -0.00428816)
(0.0010418 -0.0022395 -0.00402401)
(-6.64477e-05 -0.000121951 -0.00376936)
(-0.00171993 -0.00129567 -0.00382546)
(-4.89145e-05 0.000681643 -0.00454177)
(0.00164361 -0.00169898 -0.0037659)
(-1.97081e-05 -9.64115e-05 -0.00380819)
(-0.00164238 -0.00147659 -0.00382925)
(-7.07411e-06 0.00069213 -0.00459699)
(0.00160065 -0.00167078 -0.00381664)
(-9.23517e-06 -8.6074e-05 -0.00380971)
(-0.00161321 -0.00146564 -0.00373483)
(-5.58466e-07 0.000694921 -0.00459383)
(0.00157617 -0.00172905 -0.0039451)
(2.00557e-05 -0.000110978 -0.00379164)
(-0.00159763 -0.00141753 -0.00354724)
(6.90356e-05 0.000701449 -0.00448517)
(0.00130845 -0.00190266 -0.00418868)
(5.23724e-05 6.67779e-05 -0.00314092)
(-0.001394 0.00166823 -0.00489003)
(0.0015795 0.000929149 -0.00465713)
(-0.00163468 0.00129814 -0.00459088)
(0.0015736 0.000969601 -0.00463954)
(-0.0016025 0.0012281 -0.00461698)
(0.0016056 0.00102472 -0.00461458)
(-0.00160231 0.00122272 -0.00459841)
(0.0018241 0.00103824 -0.0046586)
(-0.00131459 0.00143671 -0.00441156)
(0.000643735 0.000130428 -0.00419824)
(-0.000852774 0.000484397 -0.00323015)
(-0.000551893 0.00073166 -0.00334821)
(0.00095632 0.00121689 -0.00452164)
(9.90292e-05 -0.000103149 -0.00308075)
(-0.000539917 -0.000507197 -0.00409821)
(0.000634552 0.000144941 -0.00553871)
(-0.00170938 0.000284849 -0.00338742)
(-0.000643014 0.000529189 -0.00347116)
(0.00203422 6.10357e-05 -0.00311721)
(-8.75329e-05 0.000138584 -0.0039402)
(3.77403e-05 2.55898e-05 -0.00351002)
(6.95822e-05 4.02313e-06 -0.00370331)
(0.00031565 4.71457e-06 -0.00367438)
(0.00145395 0.00176574 -0.00446504)
(-0.000337309 -0.000943921 -0.00387341)
(-4.03507e-05 2.84722e-05 -0.00385659)
(-0.000165726 0.000951703 -0.00392893)
(0.000654243 2.58882e-05 -0.00563683)
(-0.00151564 -2.5262e-05 -0.00329663)
(-0.00151716 0.00013053 -0.00332452)
(0.00338469 2.55084e-05 -0.003168)
(-0.000162964 0.00100783 -0.00395872)
(0.00112151 -0.00172147 -0.00441259)
(0.00182557 0.00154054 -0.00480047)
(-2.17404e-05 2.09929e-05 -0.0037429)
(1.11563e-05 -2.95387e-05 -0.00397019)
(1.50708e-05 -5.47582e-06 -0.00397175)
(9.10684e-06 -8.74212e-07 -0.00394437)
(4.43861e-06 1.6803e-06 -0.00393636)
(1.74815e-06 1.8998e-06 -0.00392576)
(-4.77547e-07 2.30381e-06 -0.00391419)
(-4.60682e-06 5.18662e-06 -0.00390156)
(-1.12889e-05 1.0365e-05 -0.00390905)
(1.77533e-05 -1.75562e-05 -0.00449678)
(-5.98853e-06 4.60911e-06 -0.00445192)
(-0.000522856 0.000535213 -0.00311564)
(-0.000515858 -0.000220117 -0.00337608)
(5.46369e-05 -7.56656e-05 -0.00449752)
(0.000328793 -0.000413058 -0.00372083)
(1.86687e-05 0.000508022 -0.00329794)
(0.000501559 -0.000282691 -0.00401104)
(-0.000599913 -0.000550888 -0.00395482)
(-4.49353e-05 -0.000753598 -0.00557159)
(-0.000138195 -0.000851581 -0.00415044)
(0.00093004 -3.43139e-05 -0.00545564)
(0.000765036 0.000624186 -0.00391722)
(0.000212729 -0.000471011 -0.00409033)
(0.000598177 4.41326e-05 -0.00536197)
(0.000386658 0.00051441 -0.00390066)
(0.000294017 -0.00051237 -0.00400327)
(0.000642228 2.15828e-05 -0.00541037)
(0.000324225 0.000534753 -0.00396109)
(0.000347842 -0.000548308 -0.00392872)
(0.000653409 -1.73155e-05 -0.00543512)
(0.000283846 0.000499426 -0.00401712)
(0.000547416 -0.000599083 -0.0039531)
(0.000742756 -4.76882e-05 -0.00558045)
(0.000841998 -0.000138287 -0.00415354)
(3.61826e-05 0.000917208 -0.0054561)
(-0.000617181 0.000759853 -0.003927)
(3.40283e-05 -0.00049803 -0.00330919)
(0.000411184 0.000330222 -0.00372121)
(-0.000498127 0.000256684 -0.00332883)
(-0.000534449 -0.00052503 -0.00312143)
(7.64367e-05 5.66181e-05 -0.00449807)
(0.000220823 -0.000514403 -0.00337624)
(0.000121498 0.000403515 -0.00335252)
(-0.000418275 0.000414696 -0.00308001)
(-0.000459716 -0.000457257 -0.0031003)
(8.60506e-05 -6.90884e-06 -0.00448922)
(0.000136917 -0.000426677 -0.0033571)
(0.000165024 0.000428257 -0.00334413)
(-0.00045365 0.000462278 -0.00308176)
(-0.000430422 -0.000415287 -0.00310773)
(8.67635e-05 -1.39853e-06 -0.00448805)
(9.00044e-05 -0.000396932 -0.00336383)
(0.000261295 0.000503904 -0.00332725)
(-0.000497859 -3.28593e-05 -0.00330802)
(0.000649625 -2.48492e-05 -0.0043699)
(-0.0014005 0.00158367 -0.00348418)
(-0.00187719 -0.0012412 -0.00412995)
(0.00161851 0.00137286 -0.00480407)
(-0.00189595 -0.00145856 -0.00469761)
(-7.94158e-05 4.92931e-05 -0.00297945)
(-0.00130396 -0.000940685 -0.00434974)
(1.05782e-05 -2.00828e-05 -0.00308854)
(0.00127101 -8.4507e-06 -0.00418296)
(-0.000305226 -0.000175984 -0.00286368)
(0.00151446 0.0004543 -0.00387268)
(0.000750735 -0.00090901 -0.00400167)
(0.00111948 0.000904397 -0.00371721)
(-0.001678 -0.00151843 -0.00384986)
(0.00065471 3.4624e-06 -0.00446792)
(-0.00144584 0.00155091 -0.00367555)
(0.00096222 -0.00153268 -0.00452808)
(0.00125448 0.0015957 -0.00449639)
(-0.00153495 -0.00163151 -0.00434445)
(3.46213e-05 6.7853e-06 -0.00362996)
(-0.001305 0.0016073 -0.00433692)
(0.00114935 -0.00164773 -0.00444186)
(0.00143065 0.001709 -0.004451)
(-0.00152148 -0.00170508 -0.00441379)
(-9.13172e-06 6.34543e-06 -0.00369132)
(-0.00127521 0.00166723 -0.00441886)
(0.0012148 -0.00168017 -0.00443682)
(0.00148412 0.00173434 -0.00444244)
(-0.00152262 -0.00172894 -0.00443217)
(-2.5851e-06 3.90644e-06 -0.0037114)
(-0.00127056 0.0016887 -0.00443624)
(0.00123917 -0.00169495 -0.0044469)
(0.00150492 0.00174611 -0.00445076)
(-0.0015352 -0.00174093 -0.00444349)
(7.65263e-07 3.30704e-06 -0.00372579)
(-0.00128163 0.00170097 -0.00444918)
(0.00124063 -0.00170888 -0.00446158)
(0.00151217 0.00176001 -0.00446749)
(-0.00156221 -0.00174921 -0.00445163)
(2.37371e-06 4.31076e-06 -0.00374085)
(-0.00130749 0.00170945 -0.00446072)
(0.00122447 -0.00172505 -0.00448042)
(0.00150907 0.00177747 -0.00449051)
(-0.00160196 -0.00175099 -0.0044576)
(4.80012e-06 5.68785e-06 -0.00375586)
(-0.00133999 0.00170873 -0.00447058)
(0.00118956 -0.00173625 -0.00449476)
(0.00149355 0.00178856 -0.00451006)
(-0.00163527 -0.00172131 -0.00446754)
(1.05183e-05 7.32621e-06 -0.00375746)
(-0.00135181 0.00167201 -0.00448603)
(0.00112149 -0.00172474 -0.00443238)
(0.00140001 0.00173914 -0.00444696)
(-0.000304886 -0.00094383 -0.00392013)
(0.000625049 -4.27025e-06 -0.00563992)
(-0.0015044 -7.01147e-05 -0.00329785)
(-0.00153416 2.93072e-05 -0.0032862)
(0.00340539 -2.81225e-05 -0.00317891)
(-0.000117529 -1.72293e-06 -0.00447523)
(-0.000128709 1.10302e-05 -0.00446299)
(7.78842e-05 1.46584e-05 -0.00370361)
(0.000340728 7.98276e-08 -0.00367542)
(0.0014446 0.00176955 -0.00445136)
(-0.000266076 -0.000939518 -0.00390419)
(-2.55817e-05 7.89985e-06 -0.00380953)
(-0.000296855 0.00112017 -0.00395414)
(0.000595471 -0.000152482 -0.00562019)
(-0.00153277 -4.51952e-05 -0.00331552)
(-0.00150765 3.73789e-05 -0.00328553)
(0.00338587 -5.52663e-05 -0.00318479)
(-0.000196597 0.000948859 -0.00390584)
(0.0011218 -0.00174256 -0.00443773)
(-4.16185e-05 1.01289e-05 -0.00385512)
(1.87642e-05 7.76495e-06 -0.00389954)
(1.80791e-05 2.18133e-05 -0.00396487)
(1.1604e-05 1.4081e-05 -0.00394369)
(6.02007e-06 7.49789e-06 -0.00393809)
(2.60246e-06 3.36318e-06 -0.00392734)
(-9.14193e-09 2.37949e-07 -0.00391515)
(-4.25176e-06 -4.56829e-06 -0.00390196)
(-1.02525e-05 -1.15141e-05 -0.00390892)
(1.77193e-05 1.71292e-05 -0.00449659)
(-5.48773e-06 -6.16147e-06 -0.00445302)
(0.000415482 -0.000430844 -0.00310193)
(-0.000461167 -0.000458902 -0.00309233)
(0.000459553 -0.00045911 -0.00308993)
(-0.000417419 -0.00043184 -0.00310173)
(8.34901e-07 8.82542e-05 -0.0044875)
(0.000417861 0.000152021 -0.00334388)
(-0.000394917 9.58329e-05 -0.00336267)
(-2.21957e-06 -0.000580147 -0.00338301)
(-0.000497363 0.00030424 -0.00400225)
(2.78914e-07 -0.000615167 -0.00562278)
(-0.000417953 0.000152376 -0.00334481)
(-3.13675e-07 8.84275e-05 -0.00448768)
(0.000393902 9.60202e-05 -0.00336164)
(1.54949e-05 -0.000607955 -0.00559126)
(0.00046452 0.000211686 -0.00407815)
(-3.79302e-05 0.000581697 -0.005344)
(-0.000502223 0.000375491 -0.00389791)
(1.6448e-06 -0.000579913 -0.00338383)
(0.000496673 0.00030487 -0.0040019)
(-5.07634e-07 0.000631463 -0.00534516)
(-7.71659e-08 0.000881746 -0.0028538)
(0.000879808 0.000931303 -0.00383407)
(-0.00151252 -0.00152573 -0.00367781)
(0.00151071 -0.00152227 -0.00367355)
(-0.00149421 -0.00163835 -0.00385104)
(0.00157345 0.00118896 -0.0044931)
(-0.00161054 -0.00147562 -0.0043452)
(0.00168532 0.00135511 -0.00444832)
(-0.00168151 -0.00145198 -0.0044139)
(0.00170991 0.00140575 -0.00444117)
(-0.00170453 -0.00144922 -0.00443171)
(0.0017215 0.00142628 -0.00445044)
(-0.00171647 -0.00145964 -0.00444318)
(0.00173538 0.0014338 -0.00446811)
(-0.00172459 -0.00148517 -0.0044513)
(0.00175311 0.00143216 -0.00449276)
(-0.00172651 -0.00152542 -0.00445625)
(0.00176581 0.00142238 -0.00451515)
(-0.0016987 -0.00156484 -0.00446293)
(0.00174638 0.00139768 -0.00447487)
(-0.000936943 -0.000306954 -0.00386989)
(1.97595e-05 0.00066617 -0.00563755)
(0.000945768 -0.000210054 -0.00394404)
(2.5515e-05 -3.55525e-05 -0.00385519)
(-0.00170363 0.00121006 -0.00442206)
(0.0016533 -0.00144104 -0.00449678)
(8.59049e-06 1.48594e-05 -0.00375941)
(-0.0017152 0.00128978 -0.00449332)
(0.00168722 -0.00144077 -0.00447609)
(5.82678e-06 7.10078e-06 -0.00375759)
(-0.00170394 0.00132824 -0.00448233)
(0.001687 -0.00141072 -0.00446289)
(3.85951e-06 3.54151e-06 -0.00374208)
(-0.00168783 0.00134369 -0.00446429)
(0.00167822 -0.00138418 -0.00444956)
(2.67454e-06 1.19584e-06 -0.00372649)
(-0.00167401 0.00134041 -0.00444969)
(0.00166594 -0.00137113 -0.00443543)
(2.77019e-06 -2.74721e-06 -0.00371168)
(-0.00165961 0.00131458 -0.00444061)
(0.00164484 -0.0013716 -0.00441631)
(4.42518e-06 -9.83151e-06 -0.00369126)
(-0.00162839 0.00124516 -0.00444801)
(0.00158469 -0.0013932 -0.00433227)
(5.02316e-06 3.28306e-05 -0.00362896)
(-0.00151298 0.00104182 -0.00453424)
(8.94337e-07 -9.6199e-05 -0.00371869)
(0.00151247 0.00104091 -0.00452916)
(-0.00158566 -0.00139545 -0.00433715)
(-7.10781e-06 3.28934e-05 -0.003629)
(-0.00157111 0.00119518 -0.00449768)
(0.00149195 -0.00162891 -0.0038501)
(-2.79786e-06 0.000653687 -0.00446692)
(-0.0008873 0.00108079 -0.00370914)
(-5.76446e-05 0.000807796 -0.00288858)
(0.000902566 0.000756091 -0.00401029)
(-0.00156639 -0.00143701 -0.00349003)
(0.00151295 0.000943064 -0.00454868)
(-0.00159391 -0.00134228 -0.00435398)
(0.00160223 0.00118797 -0.00443986)
(-0.00163212 -0.00131707 -0.00443959)
(0.00163187 0.00126344 -0.00443861)
(-0.00164111 -0.00131586 -0.00444815)
(0.00164744 0.00128996 -0.00445373)
(-0.00164729 -0.00132962 -0.00445539)
(0.00166611 0.00129576 -0.00447398)
(-0.00165185 -0.00136146 -0.00446127)
(0.0016929 0.00129023 -0.00450607)
(-0.00164479 -0.00139963 -0.00445115)
(0.0017202 0.00127291 -0.0045447)
(-0.00159293 -0.00139138 -0.00442095)
(0.00171364 0.00121812 -0.00448635)
(-0.000923329 -0.000200067 -0.00389108)
(-0.000198636 0.000482364 -0.00555569)
(0.000401374 -0.00054903 -0.00410824)
(5.05556e-05 -9.335e-06 -0.00371491)
(-0.0015906 0.00167 -0.00476248)
(0.00142898 -0.00203848 -0.00482837)
(1.9918e-05 3.60442e-05 -0.00363802)
(-0.00156137 0.00182797 -0.00482908)
(0.00150657 -0.00198485 -0.00480073)
(2.76191e-06 1.83805e-05 -0.00363828)
(-0.00150863 0.00185523 -0.00480846)
(0.00150012 -0.00190805 -0.00477865)
(-1.94726e-06 7.44878e-06 -0.0036193)
(-0.00148564 0.00185021 -0.00478018)
(0.00148522 -0.00186681 -0.00476182)
(-2.68862e-06 2.18382e-06 -0.0036031)
(-0.00147655 0.00184483 -0.00476403)
(0.0014787 -0.00185166 -0.00475283)
(-7.59297e-06 -3.16427e-06 -0.00359108)
(-0.00146901 0.00183762 -0.00475546)
(0.00147817 -0.00184783 -0.00474274)
(-1.90732e-05 -7.28105e-06 -0.00357692)
(-0.00144647 0.00180396 -0.00476645)
(0.00145674 -0.00186146 -0.00469924)
(-4.39175e-05 4.1753e-05 -0.00352269)
(-0.00134504 0.00160238 -0.00480335)
(0.0012312 -0.00185203 -0.00412915)
(2.65396e-05 0.000649813 -0.00436843)
(-0.000446103 0.00150963 -0.00387131)
(0.000759259 0.00134153 -0.00408985)
(0.00124852 -0.000673512 -0.00356838)
(3.96803e-05 0.00127935 -0.0041966)
(0.000155371 -0.000303651 -0.00285557)
(-0.000228232 0.000240956 -0.00325916)
(0.000638919 0.00153276 -0.00370766)
(-0.00197075 -0.00132655 -0.00340367)
(0.00149589 0.00123808 -0.00465475)
(-0.00187655 -0.00116612 -0.00453511)
(-0.00126364 0.00186792 -0.0043691)
(-0.00156241 -0.00164456 -0.00433966)
(4.08216e-05 -1.30026e-05 -0.00362003)
(0.00102844 -0.0018397 -0.00449873)
(0.00113751 0.00156924 -0.00456413)
(-0.0016371 -0.00160478 -0.00354264)
(0.000633036 4.71524e-05 -0.00448594)
(-0.00146919 0.00168959 -0.00394064)
(-0.0001092 7.54465e-05 -0.00374835)
(7.86899e-05 3.27107e-05 -0.00368442)
(-0.000594616 -0.000478069 -0.00542911)
(5.08777e-05 4.68837e-05 -0.00438043)
(-2.40072e-05 -3.8383e-05 -0.00415298)
(-0.000630827 2.50905e-05 -0.0055742)
(6.42539e-05 -9.15854e-06 -0.00399696)
(-0.000101915 -3.2669e-06 -0.00372627)
(-0.00149069 0.00154473 -0.00380503)
(-0.00161673 -0.00154773 -0.00369799)
(0.00116686 0.00154937 -0.00453396)
(-0.00151374 -0.00161139 -0.00433219)
(1.92763e-05 2.67603e-07 -0.00366972)
(0.001382 0.0016635 -0.00445118)
(-0.00150756 -0.00167542 -0.00441627)
(0.00145728 0.00169622 -0.00444297)
(-0.00151181 -0.00169749 -0.00443557)
(1.02875e-05 1.19881e-06 -0.00366176)
(0.0014876 0.0017126 -0.00445333)
(-0.00152691 -0.00170839 -0.00444721)
(0.00149674 0.00172952 -0.00447106)
(-0.00155574 -0.00171414 -0.00445504)
(5.76476e-05 1.43113e-06 -0.00367322)
(0.00149093 0.00174896 -0.00449443)
(-0.00158983 -0.00170998 -0.00445905)
(0.0014662 0.00175986 -0.00451166)
(-0.00160029 -0.00167288 -0.00447051)
(0.000330563 -2.71141e-06 -0.00367936)
(7.69849e-05 2.29299e-06 -0.00370755)
(4.90575e-05 3.79053e-06 -0.00369921)
(5.1656e-05 1.26162e-05 -0.00369961)
(2.45548e-05 7.07911e-06 -0.00369367)
(6.06067e-05 4.62067e-06 -0.00368005)
(0.00154111 0.00176472 -0.00450896)
(-0.0016314 -0.00170749 -0.00445946)
(1.34037e-05 9.0112e-06 -0.00375043)
(-0.00132322 0.00201937 -0.00449797)
(0.00109246 -0.00199854 -0.00446165)
(0.00152291 0.00179023 -0.00453591)
(-0.00160618 -0.00165598 -0.00444694)
(2.96568e-05 1.73625e-05 -0.00374493)
(-0.00141024 0.00201158 -0.00453163)
(0.000982616 -0.00191562 -0.00435982)
(0.00196397 0.00122101 -0.00485525)
(-0.000230197 -0.000850686 -0.00373422)
(3.79585e-05 -0.00136237 -0.005512)
(-0.00164511 -9.27864e-05 -0.00335268)
(-0.00151834 -2.06002e-05 -0.00320743)
(0.00320519 -0.000492393 -0.00325833)
(-0.000199265 -0.000126616 -0.00430922)
(5.29556e-05 3.78224e-05 -0.0034851)
(8.92088e-05 0.000902687 -0.00310328)
(-0.00097427 0.00117716 -0.00453114)
(0.000222475 9.36241e-05 -0.00303161)
(0.000763033 -0.00191277 -0.00435479)
(-0.000789777 0.00145105 -0.00450663)
(6.47595e-05 1.42181e-05 -0.00301626)
(0.000816301 -0.00161618 -0.00443096)
(-0.000740329 0.00147524 -0.00446559)
(1.01996e-05 -3.41457e-06 -0.00299922)
(0.000792237 -0.00151586 -0.00445141)
(-0.000757338 0.00148984 -0.00445379)
(-1.43475e-06 4.82308e-07 -0.002989)
(0.000755614 -0.00146025 -0.00442592)
(-0.000733236 0.00148097 -0.00441483)
(-1.95582e-05 -1.05804e-05 -0.00298385)
(0.00078488 -0.00145592 -0.00443303)
(-0.000707754 0.00153562 -0.00440564)
(-4.79763e-05 -2.63729e-05 -0.00298364)
(0.000826456 -0.00138617 -0.00441601)
(-0.000556111 0.00156589 -0.0043671)
(-8.01643e-05 -9.84746e-05 -0.00297762)
(0.000976169 -0.0012354 -0.00437199)
(0.000370615 0.000400859 -0.00334969)
(0.000274082 0.000602737 -0.00322956)
(-7.20217e-05 -0.000743624 -0.00402413)
(-3.74795e-05 6.17843e-06 -0.00351405)
(0.000384574 0.00121507 -0.00391717)
(-0.000169064 -0.00103502 -0.0040648)
(0.00173309 0.00121464 -0.00453236)
(-0.00185297 -0.0011884 -0.00458297)
(0.00181252 0.00120784 -0.00454593)
(-0.00185263 -0.00119638 -0.00457724)
(-0.00119942 0.00194661 -0.00443878)
(-0.00155533 -0.00170627 -0.00444784)
(-3.18745e-06 -4.02914e-06 -0.00370389)
(0.00118601 -0.00194933 -0.0044505)
(0.00149642 0.00169873 -0.00444782)
(-0.00155118 -0.00169214 -0.00443347)
(-8.19893e-06 -1.01517e-05 -0.00368625)
(-0.00120189 0.00192543 -0.00442018)
(9.93158e-06 -4.07493e-08 -0.00366737)
(8.19915e-07 -4.41108e-06 -0.00346999)
(1.30511e-05 -2.86549e-06 -0.00347666)
(-1.32735e-06 -0.000111385 -0.00309082)
(2.55365e-05 2.46374e-05 -0.00360407)
(9.93552e-05 0.000155301 -0.00349818)
(9.18836e-05 0.000168831 -0.00335583)
(0.00016662 6.87343e-05 -0.00391231)
(-4.96386e-05 2.95998e-05 -0.00388408)
(2.60382e-05 9.73453e-05 -0.0038406)
(0.000695107 6.89052e-05 -0.00387498)
(0.00110424 -8.86596e-05 -0.00300877)
(0.000920969 0.00143587 -0.00490293)
(0.000311319 0.000460312 -0.00271557)
(0.0014005 0.000100077 -0.00364584)
(0.000557412 0.000343682 -0.00387153)
(0.000261762 7.32415e-05 -0.00378505)
(7.84811e-05 2.18048e-05 -0.00380536)
(4.93135e-05 1.52186e-05 -0.00391837)
(-2.3862e-05 5.32409e-06 -0.00385949)
(-1.60937e-05 3.12053e-06 -0.00385571)
(1.34972e-05 3.81849e-06 -0.00393235)
(2.40821e-05 3.54994e-06 -0.00381199)
(-0.000220298 -0.0010938 -0.00406808)
(-3.25184e-06 9.66863e-07 -0.00357777)
(0.000254531 0.00111718 -0.0040295)
(-0.00023496 -0.00110609 -0.00404818)
(0.00183957 0.00120746 -0.0045745)
(-0.00186576 -0.00120261 -0.00457543)
(0.00185568 0.00122268 -0.00459916)
(-0.00190795 -0.00120843 -0.00457602)
(-0.00125143 0.00198685 -0.00447191)
(-0.00160246 -0.00171732 -0.00446358)
(5.07844e-06 3.19505e-06 -0.00373443)
(0.00118243 -0.0019688 -0.00446823)
(0.00154241 0.00173685 -0.00447978)
(-0.00157189 -0.00171398 -0.00445705)
(1.10825e-06 -2.29285e-07 -0.00371814)
(-0.00121462 0.00196302 -0.00445477)
(1.73164e-05 3.90038e-06 -0.00367555)
(7.69554e-06 3.80505e-06 -0.003486)
(1.86365e-06 -5.7655e-07 -0.00347612)
(1.19362e-06 -1.11641e-05 -0.00308792)
(2.97475e-06 -6.70342e-06 -0.0036051)
(6.00431e-06 1.6285e-05 -0.00356559)
(9.42732e-06 1.181e-05 -0.00341354)
(7.3731e-06 1.27277e-06 -0.00359707)
(2.05236e-05 5.21553e-05 -0.00347838)
(3.11947e-05 3.73978e-05 -0.00333971)
(0.000298703 0.0011393 -0.00401079)
(-5.10091e-06 5.39358e-06 -0.00356756)
(-2.06476e-06 -5.23274e-05 -0.00308483)
(-9.54556e-06 -4.00522e-06 -0.0038888)
(1.71053e-06 -7.6954e-05 -0.00390395)
(4.01225e-06 9.46828e-06 -0.00385702)
(-3.93199e-05 0.00075563 -0.00385499)
(9.13287e-05 0.00144275 -0.00363771)
(-0.00105264 0.00265198 -0.00353103)
(-2.69574e-06 0.000277783 -0.00350716)
(1.44295e-05 -4.02101e-05 -0.00308073)
(7.11753e-07 -1.84183e-05 -0.00384128)
(-1.4235e-05 -7.17055e-05 -0.00379129)
(0.00161082 -0.00146628 -0.00434277)
(-2.28604e-07 6.25364e-06 -0.00366415)
(-0.00168458 0.00136529 -0.00445183)
(0.00162823 0.00124262 -0.00444401)
(-0.00164494 -0.0013723 -0.00441991)
(-5.76488e-06 -9.74838e-06 -0.00369189)
(0.00168399 -0.00144664 -0.00441263)
(7.62871e-08 1.04274e-05 -0.0036525)
(-0.00170963 0.00141453 -0.00444317)
(0.00166086 0.00131242 -0.00443867)
(-0.00166472 -0.00137043 -0.00443671)
(-2.38612e-06 -2.5963e-06 -0.00371267)
(0.00170869 -0.00144917 -0.00443278)
(1.03971e-06 8.91594e-06 -0.00365411)
(-0.00172061 0.00143027 -0.00445079)
(0.00167732 0.00134036 -0.00445105)
(-0.00167492 -0.00138293 -0.00444744)
(1.45463e-07 1.44387e-06 -0.00372796)
(0.00172291 -0.00146526 -0.00444708)
(1.93747e-06 2.43624e-05 -0.00365961)
(-0.00173375 0.00143023 -0.00446605)
(0.00169403 0.00134792 -0.00447026)
(-0.0016806 -0.00141037 -0.00445481)
(2.5789e-06 4.04287e-06 -0.0037441)
(0.00173443 -0.00149858 -0.00445982)
(1.6435e-06 6.94894e-05 -0.00366499)
(-0.00175017 0.00141181 -0.00448376)
(0.00171355 0.00134241 -0.00449677)
(-0.00167649 -0.00144639 -0.00445605)
(6.16695e-06 7.95171e-06 -0.00375954)
(0.00173803 -0.00154434 -0.00447349)
(-3.23949e-06 0.000170501 -0.00366845)
(-0.00175864 0.00136353 -0.00448938)
(0.00172595 0.00132566 -0.00452014)
(-0.00164044 -0.00146702 -0.00446049)
(9.78395e-06 1.61763e-05 -0.00375816)
(0.00169992 -0.00156468 -0.00449249)
(-1.49577e-05 0.000382562 -0.00366165)
(-0.00173202 0.0012807 -0.00442075)
(0.00170752 0.00128061 -0.00446318)
(-0.000938361 -0.000245708 -0.0039138)
(-1.15387e-06 -3.45291e-05 -0.00384828)
(0.000931753 -0.00028467 -0.00391446)
(-5.72863e-05 0.00338188 -0.00319862)
(-0.000119461 -0.00151317 -0.00329837)
(-0.000124923 -0.00154538 -0.00316988)
(-0.000131301 0.002499 -0.00300074)
(-0.00163824 0.000649869 -0.00429628)
(0.000407616 0.000269171 -0.00305676)
(0.000361358 -0.00232625 -0.00412322)
(-0.000139248 -0.000480501 -0.00338628)
(-0.000286882 -0.0002814 -0.00324468)
(-0.00014228 0.00119232 -0.00423526)
(-0.0018611 -0.00124478 -0.00434098)
(0.000392488 -2.17513e-05 -0.00365297)
(-0.000479722 2.63577e-05 -0.00385342)
(-0.00080084 -0.000156873 -0.00385377)
(-0.000291177 -0.000188505 -0.00387662)
(-0.00023006 -1.97523e-05 -0.003948)
(-0.000241927 5.00383e-05 -0.00387154)
(-0.000103891 2.89833e-05 -0.00386633)
(-4.67383e-05 1.12752e-05 -0.00395921)
(8.35531e-06 -1.57884e-05 -0.00384318)
(-3.01662e-06 6.5048e-06 -0.0039457)
(-3.86895e-05 1.11972e-05 -0.00386025)
(-4.76044e-05 3.30166e-06 -0.0038325)
(-2.82492e-05 4.24806e-07 -0.00383249)
(-5.2913e-05 -2.87379e-06 -0.00384003)
(-0.000103358 -1.00146e-05 -0.00386713)
(1.77779e-05 -1.92832e-05 -0.00381716)
(0.000816318 -6.69281e-05 -0.00381924)
(0.000956962 -3.58496e-05 -0.0029056)
(0.000938444 0.000933773 -0.00396873)
(0.00108125 -0.000934147 -0.00351273)
(0.00133736 1.12472e-05 -0.00365377)
(0.00127325 6.03109e-06 -0.00367087)
(0.000995727 -0.000948833 -0.00374098)
(0.00100228 0.000934895 -0.00386552)
(0.000653979 -2.20589e-06 -0.00447831)
(-0.000581579 3.8888e-06 -0.00337601)
(0.000187723 -4.22499e-06 -0.00415973)
(-6.82351e-05 -7.08149e-05 -0.00410721)
(-4.77867e-05 -4.4874e-05 -0.00415144)
(0.00017039 0.000169535 -0.00421295)
(-0.000507034 1.83734e-05 -0.00330055)
(-1.37943e-06 0.000195092 -0.00414637)
(-7.9526e-07 -6.91941e-05 -0.00416099)
(-1.63769e-06 -8.48469e-05 -0.00414128)
(1.30324e-07 9.31544e-08 -0.00448255)
(-0.000320301 0.000312515 -0.00302931)
(-0.000364918 -0.000363275 -0.00304924)
(-0.000361654 0.000364738 -0.00304386)
(-0.000324223 -0.000311345 -0.003039)
(0.000321416 -0.000315184 -0.00302924)
(-0.000272837 -0.000269436 -0.0030185)
(1.01276e-05 1.00518e-05 -0.0044903)
(0.000363321 0.000361693 -0.00303898)
(-0.000313505 0.000325488 -0.00303577)
(-0.00031478 -0.000324899 -0.00303684)
(1.00491e-05 -9.6799e-06 -0.00449055)
(0.000361987 -0.000364427 -0.00304405)
(-1.90313e-08 -1.35878e-08 -0.0045084)
(6.23517e-08 6.06314e-08 -0.00451495)
(1.64597e-07 2.31426e-05 -0.00450554)
(1.82608e-07 6.55699e-05 -0.00399711)
(-9.56429e-06 5.86909e-05 -0.00398992)
(1.28422e-05 -0.000130325 -0.00370685)
(-6.53956e-06 2.43013e-06 -0.00365911)
(-3.59245e-06 4.5921e-07 -0.00365505)
(-4.31922e-07 3.5696e-06 -0.00366427)
(2.03285e-06 1.07406e-05 -0.00367457)
(5.05097e-06 2.66285e-05 -0.00368452)
(2.11896e-05 1.14674e-05 -0.00349468)
(1.55497e-05 9.4886e-05 -0.00310619)
(7.97607e-06 -7.62989e-05 -0.00361388)
(3.7235e-05 -9.32108e-06 -0.00357384)
(-1.07186e-05 5.30138e-05 -0.00341753)
(0.000223477 0.00118144 -0.00407426)
(-0.000318811 -0.00108037 -0.00406032)
(0.00189045 0.00124687 -0.00465491)
(-0.00195414 -0.00123066 -0.00451923)
(0.00194875 0.00126445 -0.00476911)
(-4.02756e-05 -3.06773e-05 -0.00366143)
(-0.000572259 -0.00112176 -0.00394251)
(-8.58482e-05 3.16448e-05 -0.0033594)
(0.000157656 0.00125387 -0.00412606)
(-1.66981e-05 -4.91958e-06 -0.00364017)
(-3.67331e-05 -5.55965e-05 -0.00386468)
(-1.86785e-05 1.13858e-05 -0.00394438)
(-0.000110986 7.86513e-06 -0.00383428)
(-0.000231028 1.56468e-05 -0.00383738)
(-0.000460132 1.85209e-05 -0.00385646)
(-0.00105162 -1.33717e-05 -0.0040134)
(-0.00107529 -0.000187454 -0.00396141)
(-0.00267523 0.0006425 -0.00390269)
(-0.00125967 -0.000286976 -0.00369907)
(-0.00110104 -0.00122974 -0.00354127)
(-3.71995e-05 -0.000156391 -0.00357694)
(-0.000434007 -0.000149361 -0.00372381)
(0.000342005 -0.00242989 -0.00294207)
(-0.00216523 -0.000670146 -0.0032244)
(-0.00129431 8.54954e-05 -0.00436781)
(-0.00060583 -0.000980996 -0.00395542)
(0.000980211 0.000725005 -0.004137)
(7.89538e-05 3.33854e-05 -0.00424194)
(5.10217e-05 4.09156e-05 -0.0028075)
(-0.00102462 0.00087759 -0.00350577)
(0.00108428 0.000736147 -0.00369724)
(6.38798e-06 0.00010303 -0.00437026)
(-0.000128361 -8.23522e-05 -0.00290924)
(-0.00112556 0.000975988 -0.00365166)
(0.00108949 0.000877128 -0.0037176)
(1.90331e-06 0.000111046 -0.00439133)
(-0.000143104 -9.92289e-05 -0.00292097)
(-0.00109845 0.000885661 -0.00360578)
(0.00108588 0.00100026 -0.00376135)
(9.33436e-06 0.000103508 -0.00437518)
(-0.000234483 -0.000228631 -0.00297634)
(-0.0010481 0.000734701 -0.00356275)
(0.000774245 0.0010213 -0.00398222)
(-0.000617702 -0.000354025 -0.00544163)
(0.000506515 0.000533491 -0.00406675)
(0.000384007 -0.000465041 -0.00396849)
(0.00113285 0.000497092 -0.00499041)
(-0.000532318 -0.00196251 -0.00483853)
(-0.000307877 -0.00106579 -0.00393855)
(0.000168287 0.000192305 -0.00297828)
(0.000681279 -0.000484373 -0.00428837)
(-0.0022262 0.00105295 -0.00402709)
(-0.000123705 -6.35225e-05 -0.00376748)
(-0.00130329 -0.0017257 -0.0038175)
(0.00113763 0.00091191 -0.00379325)
(0.00104882 -1.81721e-05 -0.00285905)
(0.00100025 -0.0010828 -0.00391467)
(0.00125588 -0.00107053 -0.00439583)
(0.000606405 -0.00155606 -0.0031484)
(0.000137059 0.000652504 -0.00420104)
(0.000484713 -0.000855017 -0.00323197)
(0.000732562 -0.000547951 -0.00335119)
(0.00120954 0.00095016 -0.00452321)
(-0.000561048 -0.00196606 -0.00428399)
(0.000116066 -0.000221582 -0.00346429)
(0.000894244 0.00138091 -0.0045353)
(-0.000767069 -0.00169599 -0.00439581)
(1.0018e-06 -4.45471e-05 -0.00354409)
(0.000779685 0.00147396 -0.00449111)
(-0.000787914 -0.00154775 -0.00443503)
(-9.78777e-06 2.41151e-06 -0.00354197)
(0.000753907 0.00148074 -0.00446207)
(-0.000768047 -0.00148742 -0.00443614)
(-5.6955e-06 6.80037e-06 -0.00353756)
(0.000747019 0.00146981 -0.00444059)
(-0.000758016 -0.00146871 -0.00442906)
(-4.98697e-06 7.64348e-06 -0.00352612)
(0.000742779 0.0014653 -0.00442827)
(-0.000761317 -0.00146208 -0.00441968)
(-1.06033e-05 2.20124e-05 -0.00352568)
(0.000716286 0.00147021 -0.00441223)
(-0.000802519 -0.00145043 -0.00441489)
(-6.32494e-05 8.95075e-05 -0.00346164)
(0.000607333 0.00151449 -0.00439213)
(-0.000928485 -0.00129828 -0.00434695)
(-0.000345749 0.000365152 -0.00337188)
(-1.48292e-05 0.00125913 -0.00418474)
(-0.00125027 -0.000702841 -0.00355014)
(-0.000774113 0.00133559 -0.00408473)
(0.000451639 0.00150846 -0.00386671)
(-0.00123206 -0.00187084 -0.00412775)
(0.00136349 0.00159716 -0.00480489)
(-0.0014478 -0.00187902 -0.00469646)
(4.06636e-05 4.34334e-05 -0.00352269)
(-0.00151654 0.000940013 -0.00455724)
(0.00156392 -0.00143771 -0.00348281)
(-2.37537e-05 0.000649086 -0.00437033)
(-0.000901649 0.000752438 -0.00400864)
(5.75758e-05 0.000814585 -0.00288915)
(0.000888643 0.00108068 -0.00370443)
(-0.000879069 0.000929441 -0.00383666)
(3.11591e-06 0.000653208 -0.00446795)
(5.19739e-06 0.00125856 -0.0036594)
(1.53414e-06 0.000749616 -0.00384374)
(1.23341e-06 -6.56697e-06 -0.00384991)
(1.90208e-06 -0.000109987 -0.00389339)
(1.7729e-06 -6.2387e-05 -0.00386445)
(6.51904e-07 -3.95742e-05 -0.00387437)
(1.37097e-06 -2.47615e-05 -0.00386899)
(3.52725e-06 -4.73211e-05 -0.00387044)
(4.49996e-06 -2.55005e-05 -0.0036127)
(1.50113e-05 5.93814e-06 -0.00350615)
(2.01037e-06 2.36718e-05 -0.00336504)
(0.000241872 0.00112495 -0.0040759)
(-0.000254297 -0.00109218 -0.00408486)
(-7.1589e-06 -2.89436e-07 -0.00360775)
(-1.65969e-06 1.63069e-06 -0.0035881)
(1.10126e-05 -7.22795e-08 -0.00382511)
(1.88848e-06 1.50257e-07 -0.00388977)