/*--------------------------------*- C++ -*----------------------------------*\
| =========                 |                                                 |
| \\      /  F ield         | OpenFOAM: The Open Source CFD Toolbox           |
|  \\    /   O peration     | Version:  2306                                  |
|   \\  /    A nd           | Website:  www.openfoam.com                      |
|    \\/     M anipulation  |                                                 |
\*---------------------------------------------------------------------------*/
FoamFile
{
    version     2.0;
    format      ascii;
    arch        "LSB;label=32;scalar=64";
    class       volScalarField;
    location    "1";
    object      gradTx;
}
// * * * * * * * * * * * * * * * * * * * * * * * * * * * * * * * * * * * * * //

dimensions      [0 -1 0 1 0 0 0];

internalField   nonuniform List<scalar> 
5322
(
-0.251096
0.00586695
0.00712629
0.0007744
-0.000150159
-0.000186994
-1.13344e-05
0.000114985
6.49076e-05
-0.000213127
-0.000989075
0.0107185
0.0165115
-0.227462
-0.00602481
0.395923
-0.311117
-0.00489799
-0.237414
0.153177
-0.208255
0.181387
-0.191861
0.193272
-0.195801
0.18853
-0.188946
0.196553
-0.19366
0.194309
-0.184387
0.210171
-0.157857
0.24145
0.00372782
0.303918
0.214289
-0.0854571
0.240101
-0.0138031
-0.227726
0.228981
-0.0138643
-0.243623
0.242119
-0.00832579
-0.258938
0.226176
-0.0057033
-0.271397
-0.267783
-0.388808
-0.121591
0.260449
-0.0166119
-0.429983
-0.0122286
0.410902
-0.00492704
-0.410596
-0.00176853
0.400163
-0.00230879
-0.403303
-0.000139617
0.394043
0.00501394
-0.399407
0.0172589
0.327112
0.0130931
-0.348501
0.394876
-0.408669
0.393401
-0.400624
0.401401
-0.400578
0.456025
-0.328648
0.160934
-0.213193
-0.137973
0.23908
0.0247573
-0.134979
0.158638
-0.427345
-0.160754
0.508554
-0.0218832
0.00943507
0.0173955
0.0789124
0.363488
-0.0843273
-0.0100877
-0.0414314
0.163561
-0.378909
-0.379289
0.846171
-0.0407411
0.280379
0.456393
-0.00543511
0.00278908
0.00376769
0.00227671
0.00110965
0.000437037
-0.000119387
-0.0011517
-0.00282222
0.00443832
-0.00149713
-0.130714
-0.128964
0.0136592
0.0821983
0.00466718
0.12539
-0.149978
-0.0112338
-0.0345486
0.23251
0.191259
0.0531823
0.149544
0.0966645
0.0735042
0.160557
0.0810563
0.0869606
0.163352
0.0709616
0.136854
0.185689
0.2105
0.00904564
-0.154295
0.00850708
0.102796
-0.124532
-0.133612
0.0191092
0.0552058
0.0303744
-0.104569
-0.114929
0.0215126
0.0342294
0.041256
-0.113412
-0.107606
0.0216909
0.0225011
0.0653236
-0.124465
0.162406
-0.350125
-0.469299
0.404629
-0.473988
-0.019854
-0.32599
0.00264455
0.317753
-0.0763066
0.378616
0.187684
0.27987
-0.419501
0.163677
-0.361461
0.240555
0.31362
-0.383739
0.00865533
-0.326251
0.287337
0.357664
-0.380371
-0.00228293
-0.318802
0.303701
0.371031
-0.380655
-0.000646274
-0.31764
0.309791
0.376229
-0.3838
0.000191316
-0.320408
0.310156
0.378041
-0.390552
0.000593427
-0.326874
0.306117
0.377267
-0.400491
0.00120003
-0.334999
0.297389
0.373388
-0.408818
0.00262959
-0.337952
0.280372
0.350002
-0.0762216
0.156262
-0.3761
-0.38354
0.851348
-0.0293822
-0.0321771
0.0194711
0.085182
0.36115
-0.0665191
-0.00639543
-0.0742138
0.148868
-0.383191
-0.376913
0.846466
-0.0491493
0.280451
-0.0104046
0.00469105
0.00451978
0.002901
0.00150502
0.000650614
-2.28548e-06
-0.00106294
-0.00256312
0.00442983
-0.00137193
0.10387
-0.115292
0.114888
-0.104355
0.000208725
0.104465
-0.0987292
-0.000554894
-0.124341
6.97286e-05
-0.104488
-7.84186e-05
0.0984754
0.00387372
0.11613
-0.00948255
-0.125556
0.0004112
0.124168
-0.000126908
-1.92915e-05
0.219952
-0.37813
0.377678
-0.373553
0.393364
-0.402635
0.42133
-0.420376
0.427477
-0.426133
0.430376
-0.429119
0.433845
-0.431147
0.438277
-0.431627
0.441453
-0.424674
0.436595
-0.234236
0.00493987
0.236442
0.00637876
-0.425907
0.413326
0.00214762
-0.428801
0.421804
0.0014567
-0.425984
0.42175
0.000964879
-0.421958
0.419554
0.000668635
-0.418503
0.416485
0.000692548
-0.414903
0.41121
0.00110629
-0.407097
0.396171
0.00125579
-0.378246
0.000223584
0.378119
-0.396415
-0.00177695
-0.392777
0.372988
-0.000699466
-0.221825
-0.0144112
0.225641
-0.391596
0.378237
-0.398476
0.400559
-0.408031
0.407969
-0.410278
0.41186
-0.411822
0.416527
-0.412963
0.423224
-0.411198
0.430051
-0.398232
0.428409
-0.230832
-0.0496589
0.100344
0.0126389
-0.397651
0.357245
0.0049795
-0.390342
0.376643
0.000690477
-0.377157
0.375031
-0.000486816
-0.371409
0.371304
-0.000672154
-0.369139
0.369675
-0.00189824
-0.367252
0.369544
-0.0047683
-0.361617
0.364185
-0.0109794
-0.33626
0.3078
0.00663491
-0.111526
0.189815
0.312131
0.00992008
0.0388428
-0.0570581
0.15973
-0.492687
0.373973
-0.469138
-0.315909
-0.390603
0.0102054
0.257111
0.284378
-0.409274
0.158259
-0.367297
-0.0272999
0.0196725
-0.148654
0.0127194
-0.00600181
-0.157707
0.0160635
-0.0254787
-0.372672
-0.404181
0.291715
-0.378434
0.00481909
0.3455
-0.376891
0.364319
-0.377953
0.00257188
0.371899
-0.381728
0.374185
-0.388934
0.0144119
0.372734
-0.397458
0.366551
-0.400072
0.0826408
0.0192462
0.0122644
0.012914
0.00613869
0.0151517
0.385279
-0.40785
0.00335093
-0.330806
0.273115
0.380727
-0.401546
0.0074142
-0.35256
0.245654
0.490994
-0.0575493
0.00948963
-0.411278
-0.379584
0.801298
-0.0498164
0.0132389
0.0223022
-0.243568
0.0556187
0.190758
-0.197444
0.0161899
0.204075
-0.185082
0.00254991
0.198059
-0.189335
-0.000358687
0.188904
-0.183309
-0.00488954
0.19622
-0.176938
-0.0119941
0.206614
-0.139028
-0.0200411
0.244042
0.0926538
0.0685205
-0.0180054
-0.00936986
0.0961434
-0.042266
0.433273
-0.463243
0.45313
-0.463158
-0.299854
-0.388833
-0.000796862
0.296502
0.374105
-0.387795
-0.00204973
-0.300473
0.0024829
0.000204979
0.00326277
-0.000331837
0.00638412
0.0248388
0.0229709
0.0416549
-0.0124097
0.00650955
0.173777
0.276061
0.230242
0.0778297
0.350126
0.139353
0.0654406
0.0196203
0.0123284
-0.00596549
-0.00402342
0.00337429
0.00602053
-0.0550745
-0.00081296
0.0636327
-0.05874
0.459892
-0.466439
0.463921
-0.476988
-0.312856
-0.400614
0.00126961
0.295608
0.385603
-0.392973
0.000277063
-0.303655
0.00432911
0.00192388
0.000465913
0.000298405
0.000743687
0.00150108
0.00235683
0.00184328
0.00513091
0.00779867
0.0746757
-0.00127523
-0.000516191
-0.00238639
0.000427634
0.00100306
-0.00982998
0.0228322
-0.263159
-0.000673935
0.00360737
0.000177938
-0.00355876
0.402704
-5.7151e-05
-0.421145
0.407058
-0.411236
-0.00144122
0.420998
1.90718e-05
-0.427407
0.415214
-0.416179
-0.000596531
0.427172
0.000259927
-0.430151
0.41933
-0.418731
3.63658e-05
0.430729
0.000484367
-0.433438
0.423507
-0.420151
0.000644726
0.433608
0.000410876
-0.437542
0.428388
-0.419122
0.00154174
0.434508
-0.000809873
-0.439661
0.431487
-0.410111
0.00244599
0.424979
-0.00373942
-0.433004
0.426881
-0.23459
-0.000288466
0.232938
-0.0143216
-0.0298653
-0.0312307
-0.0328252
-0.409559
0.101904
0.0903394
-0.034812
-0.0717206
-0.03557
-0.465276
0.0981221
-0.11993
-0.20021
-0.0727941
-0.0575149
-0.0604818
-0.0259728
-0.0116846
0.00208883
-0.000754155
-0.00967238
-0.0119011
-0.00706229
-0.0132283
-0.0258395
0.00444448
0.204079
0.239241
0.234611
0.270311
0.334341
0.318312
0.248932
0.250571
0.163495
-0.145395
0.0469307
-0.0170588
-0.0119467
0.0425975
-0.126759
-0.000344856
-0.000198815
-0.000409423
3.25811e-05
-0.0800751
-0.0912295
-0.0904135
-0.0810556
0.080354
-0.0682093
0.0025319
0.0908303
-0.0783763
-0.0786951
0.00251227
0.0904967
-4.75784e-06
1.55879e-05
4.11494e-05
4.56519e-05
-0.00239107
0.00321055
-0.00163489
-0.000898112
-0.000107981
0.000508213
0.00126274
0.00529739
0.00388742
0.00199402
0.00930875
-0.00267966
0.0558692
-0.0797028
0.472613
-0.488535
0.487188
-0.0100689
-0.143065
-0.0214621
0.039414
-0.00417451
-0.00918328
-0.00466961
-0.0277465
-0.0577571
-0.115033
-0.262905
-0.268824
-0.668808
-0.314918
-0.275261
-0.00929987
-0.108502
0.0855012
-0.541307
-0.323577
-0.151457
0.245053
0.0197384
0.0127554
-0.256154
0.27107
0.00159699
-0.0320902
-0.28139
0.272373
0.000475827
-0.035776
-0.274612
0.27147
0.00233359
-0.0586207
-0.262025
0.193561
-0.154426
0.126629
0.0960018
0.283212
-0.133079
-0.0769693
0.0420718
0.17032
-0.556549
-0.0309261
-0.325822
0.284409
0.262204
0.250063
0.313971
0.151601
0.0342648
0.121178
0.18314
0.302385
-0.140262
0.0290164
0.223561
-0.191767
0.00025045
0.194921
-0.196979
-0.00244694
0.188477
-0.192012
-0.00142387
0.186755
-0.189504
-0.00124674
0.185695
-0.190329
-0.00265083
0.179072
-0.20063
-0.0158124
0.151833
-0.232121
-0.0864372
-0.00370729
-0.312566
-0.193528
0.11291
-0.308015
0.340872
-0.361951
0.0101659
-0.379135
0.39098
-0.00593842
-0.225412
0.014394
0.222161
-0.219767
0.000778978
0.00129935
0.000383535
0.000308352
0.00047552
0.000443224
0.000162976
0.000342742
0.000881812
0.00112499
0.00375282
0.000502593
0.0604681
-0.0635742
-0.00178972
-0.000414922
0.00275315
0.000472121
0.297132
0.382718
0.00238352
-0.316644
0.31004
0.000317107
-0.319648
0.309537
0.000725519
-0.327187
0.304687
0.0013606
-0.338264
0.295113
0.00262509
-0.346388
-0.0149517
-0.0118349
-0.065522
-0.0651141
-0.106309
-0.0516616
-0.02543
-0.0115574
-0.00775907
-0.0149713
-0.0273696
0.0016728
0.199096
0.23129
0.22458
0.318867
0.190876
0.00204314
-0.0218521
-0.011646
-0.00625979
-0.00975729
-0.0224173
-0.0478617
-0.0989822
-0.232591
-0.247518
-0.440396
-0.331959
-0.104674
-0.105425
0.224159
0.026239
-0.027505
-0.0218693
0.110895
0.00457543
-0.0883759
-0.0845783
0.0876273
-5.69016e-05
-0.0977308
-0.0935357
0.0766866
-0.00039134
-0.121495
-0.115922
0.0371207
-0.15392
0.0980614
0.0950688
0.0995011
0.0865373
-0.135046
0.0094816
0.0500086
-0.153053
0.0367188
-0.147743
0.173564
-0.401375
-0.0214976
-0.386231
0.262766
0.270816
0.270991
0.265932
0.261341
0.26438
-0.417847
-0.0252105
-0.37695
0.269752
0.288865
0.270922
0.285136
-0.0212531
-0.401941
-0.399405
0.173971
0.271984
0.240367
0.237818
0.296099
0.283731
0.227352
0.0691222
0.150951
0.0615306
-0.0327276
0.0754584
0.0116179
-0.055043
0.0570029
0.00253132
-0.0566159
0.0559695
0.000400622
-0.0575426
0.0551024
-0.000119189
-0.0556739
0.0566798
-0.000712929
-0.0570042
0.0547967
-0.00373713
-0.0595852
0.0519072
-0.013848
-0.0791991
0.0303097
-0.0629578
-0.152895
-0.0729719
-0.226945
-0.273445
-0.279073
-0.187931
-0.138132
-0.212389
-0.00894911
0.155309
-0.117344
0.0114029
0.128744
-0.128398
0.00542013
0.134181
-0.13762
-0.00455375
-0.00925045
-0.238665
-0.000761544
-0.387114
0.000454654
-0.383725
0.00205384
0.401647
-0.40769
0.00047603
-0.404733
0.00474698
0.411048
-0.372688
9.80325e-05
0.373557
0.00196714
-0.373473
0.000116091
0.374337
0.00130894
-0.374533
0.000159005
0.375116
-0.000646927
-0.375843
0.000248577
0.376211
-0.000987008
-0.377221
0.000605855
0.377747
-0.00561656
-0.374791
0.00281609
0.375591
-0.00757575
-0.00841709
-0.468448
-0.338601
0.00785224
0.435783
-0.00288983
-0.462244
-0.320682
0.00648942
0.45135
-0.000961057
-0.45847
-0.315021
0.0024916
0.454326
-0.000714536
-0.456104
-0.311653
0.000254812
0.455667
0.000615325
-0.452485
-0.309303
-0.00185133
0.455799
0.000742135
-0.447297
-0.30595
-0.00533205
0.458279
0.00295379
-0.428926
-0.297851
-0.00566859
0.465138
0.0104125
-0.372569
-0.263379
0.0244417
0.490334
0.0592126
-0.0424052
0.113317
-0.19407
-0.313789
-0.00315064
-0.0878301
0.00138487
0.269053
-0.0222201
0.00377036
-0.226729
0.00101239
0.388086
-0.379405
-0.00237837
-0.382172
0.010659
-0.366893
-0.000697097
0.369171
0.00829026
0.00300171
0.00075967
0.00440049
0.399372
0.00274189
-0.00341379
-0.0992294
-0.000277999
0.10725
-0.000148219
0.000351754
0.000483682
-0.0170839
-0.0197463
-0.0141539
-0.154678
0.0155395
-0.0253629
0.00234956
0.00269019
0.00477063
0.351691
0.290242
0.00164082
-0.00307536
-0.0131165
-0.0157063
0.257412
0.00953059
-0.328005
0.293963
-0.00208667
-0.318327
0.305876
-0.000575319
-0.000679485
0.00106304
0.0039838
0.00118982
0.00260969
0.00547005
0.00256948
0.00127838
0.00109439
0.00441362
0.000299702
0.000949331
0.00236787
-0.325128
0.286288
0.453993
-0.46909
0.462889
-0.468536
-0.00117719
-0.368794
-0.00351285
0.371855
-0.00462477
-0.365538
-0.0117046
0.382943
0.0227976
0.0286124
-0.261344
-0.000929505
0.280764
-0.294596
-0.000670201
-0.485797
-0.000933491
0.484478
-0.424848
-0.000183417
-0.430524
0.000124201
0.430933
-0.425926
-5.31641e-05
-0.423686
-5.24578e-05
0.424313
-0.436489
-0.000231941
-0.416116
-0.00128221
0.415851
-0.415719
-0.00369233
0.41266
-0.407407
-0.0076734
-0.00980851
-0.0022584
-0.000970448
-0.000125339
0.000154994
0.000438859
0.00126528
0.00260494
-0.00450379
0.00118259
-0.103975
0.115498
-0.11417
-0.106812
0.00106848
0.000641596
-0.00222186
0.00625622
0.101294
0.000921455
-0.00120612
-0.00942963
0.0123482
-0.0108149
-0.151498
0.0147821
-0.0321224
0.227264
0.0110504
-0.0108728
-0.00917604
0.00603862
8.74729e-05
0.0776797
0.0787079
-0.00237307
0.0671387
0.103862
-0.00179407
-0.00226155
-0.00232949
-0.000813837
0.00803061
-0.120746
0.309056
0.0180042
-0.461192
-0.00294805
0.467151
-0.409912
-0.00204442
-0.423323
-0.000205938
-0.418086
-0.000172287
-0.419774
0.000920834
0.420984
-0.431875
0.000175605
-0.413643
0.000644994
0.414614
-0.414979
-0.000360385
0.41566
-0.00026618
9.09249e-05
0.000450143
0.00113385
0.00184783
0.00245592
0.000133145
-7.37217e-05
-0.00249592
-0.00237899
-0.00897389
-0.0112993
-0.0023684
-0.00243509
4.11082e-05
5.34815e-05
0.000303288
0.000129905
0.000327276
0.000261579
0.000336177
0.000402658
0.000383076
0.00026592
0.0015724
0.00192021
0.00227273
0.00894798
-0.000748457
0.0638391
-0.329501
-0.0834825
-6.55391e-05
-0.03113
0.141768
-0.144608
-0.469737
-0.17026
-0.00269346
0.0411947
-0.000142454
-0.333446
-0.141404
-0.0935481
0.213007
0.0256675
-0.0235511
-0.0412705
0.120031
0.00435767
-0.0821541
-0.102254
0.102731
0.000226965
-0.0908212
-0.107766
0.0952713
0.000565158
-0.116769
-0.122142
0.0256354
-0.00704953
0.00113962
0.00144684
0.408541
-0.369434
0.00252951
0.381768
-0.013853
0.0101974
-0.482379
0.00187693
-0.299486
0.307599
-0.00250821
-0.292683
-0.509778
0.440109
-0.0277145
0.0447297
0.165762
0.00167411
0.357223
0.265364
0.298739
-0.396169
0.0047869
-0.335603
0.0103546
-0.371582
0.0081224
-0.35602
0.0102428
-0.357787
0.00915245
-0.381823
0.278521
0.272334
-0.0191541
-0.48058
-0.386402
0.170798
-0.118851
0.149388
0.0839477
0.0997389
-0.146077
0.0411585
0.0312387
-0.157737
0.0622071
0.114057
-0.136733
0.21455
-0.114949
0.01791
-0.126874
0.0220585
-0.138356
-0.10842
0.0211829
-0.00878054
-0.00200001
-0.00136747
-0.000290611
0.000324299
0.000391896
0.000520437
0.00124315
0.00254743
-0.00455866
0.00128136
-0.067965
0.080249
0.000584925
0.0161899
0.0116169
0.00935954
-0.116797
-0.00856687
0.124824
-0.102755
-0.0562485
0.12662
-0.137922
-0.18847
-0.212723
0.150012
0.154891
-0.00928483
-0.0130557
-0.0422969
0.00492018
0.158793
-0.0288713
-0.0371944
-0.0209854
0.113685
0.113767
-0.0373661
-0.0286069
0.146146
-0.080223
-0.169875
-0.0806446
0.156435
-0.0156549
-0.0166103
-0.020321
-0.00538645
0.00169679
0.268661
-0.0226838
0.0103326
-0.000445586
0.000331697
0.000547339
0.000334332
-5.84942e-05
-0.000710072
-0.00177001
-0.000232716
-0.00124885
0.000355057
-0.0111971
-0.00415971
0.00620529
-0.0158226
-0.00756229
-0.00747617
-0.209209
0.201047
-0.00575668
-0.00470933
0.00985659
-0.00491339
-0.00448421
0.0340727
0.0708185
0.0362514
0.251854
-0.126663
0.0164107
0.133068
0.167661
-0.0662145
0.00684768
-0.00241369
0.0110005
-0.00268715
0.00126793
-0.0191388
-0.00375418
0.000152151
6.99158e-06
-0.000503271
-0.00116982
-0.000799343
-0.00202887
0.00144127
0.0027458
0.000591704
-0.00512226
-0.00100873
-0.000124391
-7.03189e-05
-0.000211621
0.000745914
0.00749699
0.00232924
0.00385383
0.0022095
0.000845769
3.28922e-05
0.000751381
0.000789162
0.0016647
0.00290959
-0.401054
0.364679
-0.367228
0.36837
-0.36833
0.00191126
-0.407444
0.407057
0.00435459
0.00286276
0.00177072
0.000779078
0.397661
0.00240136
-0.00369672
0.125728
-0.00271261
0.00234986
0.0112759
-0.0185436
0.133085
0.10451
-0.0462126
0.0183806
-0.000391504
-0.000165857
0.0682218
-0.00234737
-0.0001388
0.0481338
-0.14562
0.042222
0.000506797
0.0169085
0.01237
0.00131638
-0.0129163
0.00523654
0.0113763
-0.0463098
-0.0425288
0.13354
-0.0563816
-0.102651
-0.0187066
0.126094
-0.0083989
0.0113571
0.00907254
-0.00631865
-0.000341919
0.0024857
0.00907313
-0.0035582
-0.00396468
-0.00103946
-0.000597434
-0.000147584
0.00114935
0.000725149
0.000625199
0.000411598
0.409773
-0.410489
0.369395
-0.370219
0.371057
-0.37312
0.00183913
-0.413692
0.411747
0.0013709
0.000548795
6.85364e-05
-0.000314705
0.000578406
-0.00099402
0.000546919
0.000234607
0.000438899
0.000340144
0.000645036
0.000224781
0.000680002
0.00199773
0.0110993
0.0100261
0.0361319
0.00173705
0.000743271
0.000146865
-0.000734767
-0.00264909
-0.00110578
-0.00111084
0.000127712
-0.000253227
-0.000199346
0.00024359
0.000271295
0.000260773
1.4675e-05
-0.00107409
-0.00283967
-0.00297285
-0.00115921
1.68615e-05
0.00011082
0.00019583
0.000301637
0.00041316
0.000728338
0.00062525
0.000585549
0.00129498
0.00110249
0.000605943
0.00175728
0.00338747
0.00138237
0.00203525
0.0489979
-0.0099759
0.00442828
0.00142456
0.0053282
0.108241
-0.00502691
-0.0156351
0.0776132
0.0233463
-0.333572
-0.116148
-0.253169
0.22727
-0.154841
-0.165799
0.203474
-0.269212
-0.0144936
-0.0197164
-0.224295
0.197571
-0.00312256
-0.0110014
-0.00112646
0.00403387
0.00564648
0.0826156
0.0258342
-0.153225
-0.131846
0.249919
0.024862
-0.0591112
-0.0171715
0.103135
0.00335727
-0.117868
-0.0764185
0.0775836
-0.000279712
-0.12339
-0.084801
0.0674211
-0.00111206
0.107465
0.103385
0.0061792
0.129489
-0.125909
0.000491611
-0.113519
-0.000637907
-0.00260617
-0.00044339
-3.52695e-05
0.000178967
0.000197405
0.000171616
0.000137535
4.0977e-05
-0.00102268
-0.00278563
-0.0013882
-0.317834
0.30411
-0.000558347
-0.316922
0.310108
0.465707
-0.470926
0.467566
-0.477636
0.000218341
-0.375564
0.00257261
0.371331
-0.000406735
-0.370742
-0.00017622
0.370508
0.0018262
0.00211905
-0.273072
0.000703959
0.27733
-0.2987
0.000450108
-0.487747
0.000419895
0.490675
-0.427873
-0.000144103
-0.431508
0.00045897
-0.427626
-0.000683662
-0.422092
-0.00130382
0.418845
-0.434564
0.000101146
0.417103
-0.00117466
-0.410553
0.409549
-0.00121338
-0.423612
0.428146
-0.414622
-0.000151395
0.000423724
0.00186099
0.00156051
0.000803988
0.000269099
-0.000212497
-0.00105624
-0.00118295
-0.000196828
0.00075471
0.00196223
0.00202624
0.00445496
-0.31946
0.310803
0.00108974
-0.325428
0.307642
0.468826
-0.489861
0.467819
-0.500784
0.0126031
-0.427775
0.0394918
0.37201
0.0023527
-0.390756
0.0113008
0.373867
0.000450526
0.00680245
-0.271581
0.00554595
0.289937
-0.307177
0.00154618
-0.486988
0.0026986
0.493052
-0.422192
-0.0016724
0.413966
0.00376023
-0.468148
0.273335
-0.00109076
-0.314834
0.279623
-0.293716
0.015248
-0.0361219
-0.0180214
-0.0312887
-0.0557794
0.348269
-0.494768
0.107173
-0.0795589
-0.0310885
-0.0120418
-0.00463798
-0.00280303
-0.00428845
-0.00121732
0.0646803
0.667561
0.334662
-0.173749
0.117147
0.0598904
0.381005
-0.330466
0.358934
-0.0213717
-0.234163
0.0113598
0.423699
-0.400615
-0.00106962
-0.397731
-9.9654e-05
-0.402405
-0.000250931
-0.4122
0.0017875
0.4162
-0.42602
0.000404465
-0.411205
0.00170797
0.41346
0.001587
0.00107501
0.433334
0.00240808
0.427644
-0.000337461
-0.00272404
-0.00514122
-0.0174831
0.00278507
0.234194
0.0162835
0.0203549
0.0807273
0.141867
-0.19626
-0.000576486
-0.291253
0.00101604
-0.482584
-0.00223193
0.48003
-0.421346
-0.000781161
-0.428838
-3.92048e-05
-0.423387
-3.77577e-05
-0.422346
0.000358475
0.423193
-0.434632
-1.22662e-05
0.435468
-6.73645e-05
0.000396216
0.434797
-2.88864e-05
-0.000156506
-0.000834795
-0.0022311
0.417127
-0.00442823
0.393139
0.023507
0.0119957
0.29668
0.0117385
0.00702948
-0.000591502
0.301634
0.00110793
0.00465176
-0.271818
-0.000410585
-0.296918
-0.000146593
-0.486658
-0.000200481
0.487436
-0.426749
-1.18041e-05
-0.431485
0.000276466
-0.427342
-0.000269298
-0.42409
-0.000567197
0.424068
-0.43761
-0.000452182
0.432088
-0.000933673
-0.000399833
7.48999e-06
0.000146205
0.000237077
0.000426944
0.00123081
0.00229865
0.0012446
0.00122583
0.000615802
0.00107658
-0.00147631
-0.00051452
0.000244826
0.000437125
0.000522641
0.000472618
0.000336417
0.000541425
0.00101438
0.00303235
0.00250179
-0.322175
-0.00832779
-0.315599
0.350837
-0.0071344
-0.333182
-0.340759
0.357626
0.334372
-0.00700349
-0.31805
-0.363246
0.380008
-0.341299
-0.00861096
-0.305304
0.343429
0.361222
0.355951
0.348151
-0.00789739
-0.336071
-0.312085
0.00253211
0.340644
-0.00650272
-0.357215
-0.325779
0.00107267
0.337344
-0.00230826
-0.366156
-0.332324
-0.341463
-0.349439
-0.00263954
0.348114
0.355482
0.00112077
0.330565
-0.00257833
-0.324273
-0.37255
0.378395
0.00102601
-0.298499
-0.448405
-0.00607776
0.3095
0.00201612
-0.290888
-0.430444
-0.00693434
0.326098
0.384078
-0.276116
0.0222468
-0.26841
-0.00953837
-0.272049
0.02193
-0.267597
-0.00949214
-0.273109
0.0230324
-0.272651
0.379444
0.33009
-0.0103669
0.014819
-0.00127029
-0.203508
-0.243898
-0.230952
-0.256049
-0.243802
-0.24574
-0.252446
-0.207333
-0.320846
-0.253657
-0.231837
-0.243185
-0.164289
-0.0709681
-0.0880916
0.145834
-0.163099
0.383806
0.38806
0.385072
0.386706
0.400817
0.37674
-0.158012
0.127389
-0.0706792
-0.164445
-0.0885316
0.15893
-0.016438
-0.00336193
-0.00336354
-0.00152886
-0.000627877
0.000376918
0.000259221
0.353885
0.000108191
-0.345787
-0.354092
-0.327549
-0.377442
-0.000126015
0.329006
0.377412
0.000342068
-0.301712
-0.45496
-0.00216359
0.305969
0.457583
0.00148271
0.0594616
-0.0584772
-0.000619018
0.0594201
-0.0589531
-1.94202e-05
0.0603459
-0.0586052
0.00221444
0.0670412
-0.0529938
0.0127571
0.0941212
0.0333163
0.0190589
0.00595258
0.00319683
0.000263496
0.000204922
-0.000638167
0.000193306
-0.00136512
-0.000719916
-0.00268411
-0.0603651
0.459113
0.00304081
0.0566152
-0.0785571
-0.0123233
-0.021259
-0.00848061
-0.0514418
0.0354904
0.0106314
-0.374013
0.0231163
-0.258195
-0.0105666
0.0152993
0.000749305
-0.163767
-0.278895
-0.271423
-0.227146
-0.0717195
-0.153205
-0.0618132
-0.122204
-0.347436
0.0592835
0.490263
0.374365
0.403265
-0.157612
-0.335643
-0.202572
-0.000430181
0.0342811
0.0224622
0.0130659
0.00525871
0.00207872
-7.95589e-05
-0.303446
-0.460149
0.457596
0.305453
0.00014471
0.00171767
0.00551033
0.00607083
0.0194835
0.00740305
0.00170094
-0.000483869
-5.22891e-05
0.375997
0.00176764
-0.329599
-0.381661
-0.303384
-0.468075
0.00112442
0.306969
0.458641
0.00232528
0.00154343
0.00162426
0.0011209
0.00172928
0.00300029
-0.41813
0.374604
-0.375667
-0.00575278
0.00250851
0.00122657
-0.00253569
0.00061201
0.000174465
0.4137
0.000607822
0.000400646
0.414408
0.00268168
0.000248
0.000921762
0.00160976
-0.000903969
-1.25653e-05
0.000488608
9.10841e-05
0.000311678
0.000133489
4.60451e-05
0.000373383
0.00135878
0.000598032
0.000145537
6.8998e-05
-0.000754007
-0.000241151
-0.000253565
-0.00083477
-6.19952e-05
0.000314902
0.000393669
-0.00026141
-0.000200021
-5.64868e-05
-9.06045e-06
-0.00353519
-0.00365306
-0.0165006
-0.00625023
0.362621
-0.00224866
0.000398353
0.000311122
-0.0014733
-0.00159214
-0.000765379
-0.00664911
-0.00604498
-0.00445386
-0.000676889
-0.332782
0.300013
0.00480703
-0.331674
-0.0132746
-0.0132397
-0.0644896
-0.0823351
-0.30359
-0.30614
-0.491346
0.123176
0.0467548
0.254067
-0.0894846
0.132001
-0.0148099
-0.150745
0.135688
-0.00338904
0.105616
-0.00345221
0.127616
-0.140835
-0.0118883
-0.00374319
-0.00461266
0.00202423
-0.0169898
0.113048
-0.00563915
0.00422245
0.00421433
0.00269282
0.00154781
0.000674753
0.000577373
0.00583931
0.00501446
0.0126353
0.0109764
0.0315166
0.00650773
0.00290748
0.000951807
0.298597
-0.301583
0.00112195
-0.488825
0.00133805
0.494548
-0.427539
-0.000619664
-0.428611
0.00045696
0.423644
-0.000276481
1.72349e-05
0.000310494
0.000439581
0.0011098
0.00249296
0.00140646
0.000864438
0.000478238
0.000185996
9.39766e-05
0.00014225
0.000164217
0.000152515
0.41615
9.69644e-06
0.421999
3.2623e-05
0.404277
0.387977
0.00157099
0.38635
0.232973
0.00613976
0.00133402
-0.000157221
8.21403e-05
-0.000811581
0.423819
0.00152147
-0.00111404
0.276031
0.000104966
0.000578519
-0.000424243
0.298198
0.000965668
0.00328415
-0.272736
0.00263798
0.282392
9.49764e-06
0.00202498
0.0010319
0.000696159
-6.98424e-05
0.426348
0.000160348
0.42576
9.14582e-06
0.000644494
0.428019
0.000296114
0.432639
-0.000120599
0.00182224
0.429178
-0.00170987
0.298853
-0.000482866
0.00577905
-0.275759
0.00938611
0.295377
-0.00978624
-0.000234273
-0.0105245
-0.0358711
-0.0841487
0.00307773
-0.012248
-0.00530109
0.00404092
0.00366105
0.42794
-0.000621644
-0.00135912
-0.00134242
-0.000297411
-0.00484687
-0.000238386
0.000663639
0.000511088
0.433072
0.426812
-0.000326618
-6.62304e-05
-0.00086988
-0.0016751
-0.00186159
-0.00798512
-0.00298794
-0.00309612
-0.00164259
-0.00062912
0.435215
-0.00123708
-0.000211265
0.000387584
-0.000172606
-0.00142302
-0.00532324
-0.0162402
-0.00389971
0.00023176
0.000556545
0.00197095
-0.00208427
0.00246391
0.00418585
-0.00731613
0.0323739
0.0671582
-0.0487843
0.347419
-0.00114237
-0.0224726
-0.0333253
-0.0182202
-0.00596531
0.000398208
0.00669621
0.0186455
0.0332385
0.0357439
0.000735118
0.017394
0.0172381
-0.320909
-0.16324
-0.336067
-0.164941
-0.000365147
0.0209547
0.00516989
0.00212972
0.314926
0.374237
-0.00135037
0.00303335
0.00124941
0.00248333
0.00136175
0.00294044
-0.00377563
-0.0201212
0.149915
0.343891
0.014384
-0.000456128
0.000975983
0.000998374
0.000510705
0.000591512
0.000256163
0.000258711
0.000314256
-0.000478717
0.000224617
0.000196522
0.00098286
-0.000419186
-0.000837689
-0.358232
0.00269461
-0.348904
0.33701
0.00695459
-0.3518
-0.363647
0.346285
0.324143
0.00469772
-0.331298
-0.387278
0.370578
-0.000864022
0.309838
0.457887
0.00505861
-0.00101735
-0.00150527
0.0015613
0.00233266
0.00507887
0.0770527
0.121326
0.186612
0.441139
0.0290865
0.228316
0.338034
-0.0158326
-0.00452392
-0.0106172
-0.00252753
-0.0017929
-0.000426887
0.327944
0.351795
0.34381
0.333835
0.00287328
-0.373829
-0.340348
-0.00105042
0.329795
0.00733633
-0.377027
-0.346681
-0.00240065
0.319443
0.340461
0.303049
-0.00174105
-0.00241535
-0.00270279
-0.000805843
0.000260152
0.0016553
0.000321735
0.000266774
-0.000806318
-0.00034312
-0.00311282
0.0294296
-0.0032303
-0.0020312
-0.00490792
-0.0038938
-0.00241201
-0.00410834
-0.0017594
0.084079
-0.00200676
0.00186755
0.000256852
-7.17387e-06
0.00506419
0.00443416
-0.0315975
0.18105
-0.0789598
-0.306157
-0.387177
0.029086
-0.177342
0.0736935
0.0233368
-0.109284
-0.117587
-0.0128105
-0.0193708
0.128697
0.117971
-0.0110865
-0.114775
-0.00199303
0.115251
-0.00058105
0.00149506
-0.000113169
0.00134012
0.00330378
0.00343792
0.00236067
0.00068667
0.000545788
-0.00132024
-0.00114158
-0.000179514
-0.000694483
-2.15471e-05
-0.000150076
0.000937604
0.00191209
0.00179312
-0.00235432
0.00316458
0.00658154
-0.0121558
0.38322
-0.0251093
0.0183914
-0.426482
0.00532562
0.00466462
0.0351028
0.00406384
0.00858709
0.0262739
-0.00193631
-0.000731652
-0.00258339
0.00680708
0.0739739
-0.00479199
-0.00276553
-0.00141902
0.00188707
-0.187928
0.217866
-0.00652857
0.00138009
-0.00894173
-0.0224072
-0.0253428
-0.004711
-0.00223548
0.0902088
-0.0023086
-0.00281082
-0.0053028
-0.000884452
-0.00310383
0.0795115
-0.00519057
-0.00296996
0.00681761
0.00520948
-0.00116869
-0.00132137
-0.000861533
-0.00219043
0.00201984
0.00554549
0.00447793
0.00363505
-0.00872715
0.0174716
0.0175591
0.0202497
0.0268292
0.383801
0.0520099
0.0078731
-0.0123094
-0.00404844
0.000233337
0.00425403
0.0117693
0.00159391
0.37201
0.312042
0.00102416
-4.06197e-05
0.000344467
0.000222175
0.310817
0.370481
0.000255529
-0.370636
-0.336241
0.335581
0.0002145
0.346273
0.000180801
0.00780311
0.0209888
0.00195476
0.00188835
0.00591595
0.000211016
0.000918034
-0.00557049
-0.0179725
-0.00543725
0.3111
0.332112
0.319328
-0.00609458
-0.00213555
-0.000513002
-0.00023789
-0.000513901
0.367907
0.310278
-0.000283375
0.000411018
0.000151464
-0.000727876
-0.000996676
0.30877
0.360596
-0.00201719
0.000813782
-0.000133475
-0.000607745
-0.00197988
-0.0103036
-0.0540021
-0.348624
-0.12576
-0.0245019
-0.00317081
-0.000253734
8.18521e-05
-7.21436e-06
-0.000298728
0.00113358
-0.00544785
-0.0137891
0.0124155
-0.016809
-0.0325015
-0.0216824
0.0130022
0.229448
0.33009
-0.0162665
0.00325021
0.219505
0.33188
0.00239704
0.20899
0.345157
0.164635
0.00107873
-0.00211105
0.352871
-0.00231346
0.0203769
0.121221
0.0208564
0.0446942
0.0473548
0.045013
0.0596202
0.0375976
-0.00102108
-0.00493701
0.0457956
-0.0215778
-0.0100355
-0.00779446
0.0489409
0.00473717
0.03384
0.0296604
0.207372
0.175041
0.194346
0.185555
0.190098
0.0410785
0.00666309
-0.000787524
-0.00694729
-0.0837352
-0.282778
-0.267779
-0.000123418
0.0111304
0.170809
0.000113135
0.426881
0.00324483
0.000594198
0.000191469
-0.000618422
-0.0111808
0.00156403
0.2987
0.428066
0.423405
-0.000215628
-0.010749
-0.423166
0.00118528
0.00152244
0.00135014
-0.0432957
0.465757
0.0123843
0.00661135
0.0022312
0.00559592
0.092474
0.00318556
0.214339
-0.253374
-0.0315322
-0.448566
-0.000200301
-0.0209515
0.104743
0.000702021
-0.454974
0.401727
0.00536311
0.226902
0.0152903
0.0886712
0.21131
0.0342126
0.0364527
0.0016574
0.00143874
-0.00169243
0.289182
0.012986
-0.0180807
-0.0256342
-0.00824611
0.00208791
0.000440202
0.000185139
0.000336411
0.000396499
0.000119569
-0.000968616
-0.00151105
-0.0135418
-0.00688008
0.243436
0.0197086
-0.407438
0.444018
0.0269419
0.320297
0.00215952
-0.296014
0.306517
0.0302364
-0.268138
0.290098
0.00598636
-0.278626
0.284367
0.00378356
-0.280195
0.283319
0.00272994
-0.281043
0.282434
-0.000470061
-0.283582
0.278679
-0.00695148
-0.289716
0.265976
-0.032684
-0.30431
0.198361
-0.144718
-0.385004
-0.117254
-0.360983
0.0225343
0.235904
-0.237726
0.0135379
0.246626
-0.244028
0.00506863
0.247735
-0.254704
-0.00286941
0.246969
-0.253604
-0.0209635
0.238467
0.250355
0.385944
0.0976465
-0.278603
0.0036454
0.409591
-0.000749251
-0.417363
-0.00185063
0.400192
-0.00244306
-0.404107
-6.80961e-05
0.401752
0.000417692
-0.395731
0.00126907
0.407285
-0.0120304
-0.428043
-0.0185965
0.333928
-0.0592773
0.076744
0.174054
-0.318709
0.32468
-0.386214
0.363901
-0.376105
0.370346
-0.371225
0.372843
-0.369291
0.375134
-0.368672
0.374881
-0.371899
0.377518
-0.371036
0.38885
-0.330993
0.320496
-0.158389
0.313292
0.393739
0.196019
0.29049
0.211955