/*--------------------------------*- C++ -*----------------------------------*\
| =========                 |                                                 |
| \\      /  F ield         | OpenFOAM: The Open Source CFD Toolbox           |
|  \\    /   O peration     | Version:  2306                                  |
|   \\  /    A nd           | Website:  www.openfoam.com                      |
|    \\/     M anipulation  |                                                 |
\*---------------------------------------------------------------------------*/
FoamFile
{
    version     2.0;
    format      ascii;
    arch        "LSB;label=32;scalar=64";
    class       volScalarField;
    location    "1";
    object      gradTz;
}
// * * * * * * * * * * * * * * * * * * * * * * * * * * * * * * * * * * * * * //

dimensions      [0 -1 0 1 0 0 0];

internalField   nonuniform List<scalar> 
5322
(
-0.86976
-0.8861
-0.911767
-0.988348
-0.977081
-0.970964
-0.967176
-0.965447
-0.966208
-0.972638
-0.960692
-0.963113
-0.72473
-0.999207
-1.09264
-0.872326
-1.03114
-0.772063
-1.08722
-1.09759
-1.10525
-1.10105
-1.10268
-1.10955
-1.1109
-1.10609
-1.10817
-1.11488
-1.11724
-1.11343
-1.11537
-1.11934
-1.11391
-1.09795
-1.04589
-0.859821
-0.978748
-0.996849
-1.02895
-0.725214
-0.956809
-0.987445
-0.712188
-0.988885
-0.979212
-0.724035
-1.0026
-0.94642
-0.714437
-0.980393
-1.09846
-0.787327
-1.07204
-1.006
-0.94234
-0.956364
-1.13544
-0.941476
-0.952048
-0.957312
-1.14925
-0.954161
-0.952427
-0.933708
-1.14846
-0.986274
-0.94791
-0.88681
-1.12129
-1.04717
-0.78523
-1.22251
-1.16428
-1.14772
-1.15988
-1.15424
-1.15364
-1.1496
-1.16465
-1.10289
-1.04956
-0.807537
-0.837053
-1.13041
-0.770188
-1.02455
-1.38468
-0.846855
-0.86779
-0.779302
-0.985051
-0.877505
-0.925828
-0.918596
-1.11626
-0.968353
-0.964149
-0.982233
-1.40921
-0.824157
-0.83113
-0.791999
-0.989679
-1.10315
-1.20012
-0.935724
-0.992546
-0.992939
-0.986092
-0.984089
-0.981439
-0.978547
-0.97539
-0.977263
-1.12419
-1.11298
-0.778911
-0.844019
-1.12438
-0.930206
-0.824485
-1.00276
-0.988705
-1.3929
-1.03761
-1.36391
-0.979306
-1.02258
-1.34049
-0.975166
-1.00082
-1.35259
-0.990272
-0.982181
-1.35878
-1.00428
-0.988275
-1.39511
-1.03838
-1.36402
-0.98175
-0.827297
-0.930303
-0.832209
-0.780358
-1.12452
-0.844059
-0.838131
-0.770001
-0.775076
-1.1223
-0.839275
-0.836032
-0.77044
-0.776933
-1.12201
-0.840957
-0.831812
-0.827005
-1.09247
-0.871045
-1.03249
-1.20102
-1.1744
-0.744862
-1.08743
-0.772136
-1.04574
-0.71592
-0.968169
-1.00042
-0.929302
-0.962466
-1.11698
-0.918887
-1.13202
-1.1241
-1.08611
-0.907491
-1.08423
-1.11046
-1.11275
-1.10345
-0.922831
-1.10471
-1.1092
-1.11061
-1.10804
-0.927851
-1.10906
-1.11172
-1.11269
-1.11087
-0.931448
-1.1123
-1.1154
-1.11687
-1.11291
-0.935213
-1.11518
-1.12011
-1.12263
-1.1144
-0.938964
-1.11765
-1.12369
-1.12752
-1.11688
-0.939365
-1.12151
-1.1081
-1.11174
-0.980034
-1.40998
-0.824464
-0.82155
-0.794728
-1.11881
-1.11575
-0.925903
-0.918856
-1.11284
-0.976048
-0.952382
-0.988535
-1.40505
-0.82888
-0.821382
-0.796197
-0.97646
-1.10943
-0.963779
-0.974886
-0.991218
-0.985922
-0.984522
-0.981835
-0.978789
-0.975489
-0.97723
-1.12415
-1.11326
-0.775482
-0.773082
-0.772483
-0.775433
-1.12188
-0.835969
-0.840667
-0.845753
-1.00056
-1.4057
-0.836203
-1.12192
-0.840409
-1.39781
-1.01954
-1.336
-0.974476
-0.845957
-1.00047
-1.33629
-0.713449
-0.958517
-0.919452
-0.918388
-0.96276
-1.12328
-1.0863
-1.11208
-1.10347
-1.11029
-1.10793
-1.11261
-1.1108
-1.11703
-1.11282
-1.12319
-1.11406
-1.12879
-1.11573
-1.11872
-0.967473
-1.40939
-0.98601
-0.963798
-1.10551
-1.12419
-0.939853
-1.12333
-1.11902
-0.939397
-1.12058
-1.11572
-0.93552
-1.11607
-1.11239
-0.931621
-1.11242
-1.10886
-0.927919
-1.11015
-1.10408
-0.922814
-1.112
-1.08307
-0.907241
-1.13356
-0.929674
-1.13229
-1.08429
-0.907249
-1.12442
-0.962525
-1.11673
-0.927285
-0.722146
-1.00257
-0.872507
-1.13717
-1.08849
-1.10997
-1.1099
-1.10965
-1.11204
-1.11343
-1.11385
-1.1185
-1.11532
-1.12652
-1.11279
-1.13617
-1.10524
-1.12159
-0.972769
-1.38892
-1.02706
-0.928728
-1.19062
-1.20709
-0.909504
-1.20727
-1.20018
-0.909569
-1.20211
-1.19466
-0.904826
-1.19504
-1.19045
-0.900775
-1.19101
-1.18821
-0.897769
-1.18887
-1.18569
-0.89423
-1.19161
-1.17481
-0.880672
-1.20084
-1.03229
-1.09211
-0.967828
-1.02246
-0.892096
-1.04915
-0.713892
-0.814789
-0.926915
-0.850918
-1.16369
-1.13378
-1.09227
-1.08491
-0.905006
-1.12468
-1.14103
-0.885659
-1.12148
-0.985161
-0.937087
-0.921104
-1.35728
-1.09511
-1.03824
-1.39355
-0.999241
-0.931567
-0.951256
-0.924496
-1.13349
-1.08305
-0.917429
-1.11279
-1.10407
-1.11074
-1.10889
-0.91544
-1.11333
-1.1118
-1.11777
-1.11376
-0.918306
-1.12361
-1.11476
-1.12791
-1.11763
-0.919839
-0.926887
-0.924803
-0.924902
-0.923417
-0.920011
-1.12724
-1.11487
-0.937606
-1.12449
-1.11541
-1.13398
-1.11174
-0.936233
-1.13291
-1.08996
-1.21381
-0.933555
-1.378
-0.838171
-0.801858
-0.814583
-1.0773
-0.871275
-0.775821
-1.13278
-0.757901
-1.0887
-1.12666
-0.754066
-1.10774
-1.1164
-0.749806
-1.11285
-1.11345
-0.747251
-1.10648
-1.10371
-0.745962
-1.10826
-1.10141
-0.74591
-1.104
-1.09178
-0.744404
-1.093
-0.837423
-0.807391
-1.00603
-0.878513
-0.979293
-1.0162
-1.13309
-1.14574
-1.13648
-1.14431
-1.10969
-1.11196
-0.925973
-1.11262
-1.11195
-1.10837
-0.921562
-1.10504
-0.916842
-0.867496
-0.869164
-0.772704
-0.901017
-0.874545
-0.838957
-0.978077
-0.971021
-0.96015
-0.968744
-0.752193
-1.22573
-0.678893
-0.911461
-0.967882
-0.946262
-0.95134
-0.979592
-0.964872
-0.963928
-0.983089
-0.952997
-1.01702
-0.894443
-1.00738
-1.01204
-1.14363
-1.14386
-1.14979
-1.144
-1.11798
-1.11589
-0.933608
-1.11706
-1.11994
-1.11426
-0.929535
-1.11369
-0.918888
-0.8715
-0.86903
-0.771981
-0.901275
-0.891399
-0.853385
-0.899268
-0.869595
-0.834927
-1.0027
-0.891889
-0.771208
-0.9722
-0.975988
-0.964254
-0.963748
-0.909426
-0.882757
-0.876789
-0.770183
-0.960321
-0.947823
-1.08569
-0.916038
-1.11296
-1.111
-1.10498
-0.922972
-1.10316
-0.913124
-1.11079
-1.10967
-1.10918
-0.928167
-1.10819
-0.913528
-1.1127
-1.11276
-1.11186
-0.93199
-1.11177
-0.914901
-1.11651
-1.11757
-1.1137
-0.936024
-1.11496
-0.916247
-1.12094
-1.12419
-1.11401
-0.939885
-1.11837
-0.917113
-1.12234
-1.13003
-1.11512
-0.939541
-1.12312
-0.915411
-1.10519
-1.11579
-0.978451
-0.96207
-0.978614
-0.799655
-0.824594
-0.79247
-0.750184
-1.07407
-0.764191
-1.03081
-0.84657
-0.811171
-1.05881
-1.08525
-0.913243
-0.963355
-0.963444
-0.969156
-0.987001
-0.967885
-0.966582
-0.989803
-0.960795
-0.986424
-0.965063
-0.958124
-0.958122
-0.960008
-0.966782
-0.954289
-0.95481
-0.726399
-0.992181
-0.878181
-0.913442
-0.917716
-0.935245
-0.966381
-1.11958
-0.844002
-1.03993
-1.0268
-1.03786
-1.05324
-0.825138
-1.03659
-1.04025
-1.03532
-1.12064
-0.757326
-0.762311
-0.760965
-0.75975
-0.75731
-0.754625
-1.12257
-0.759746
-0.758943
-0.759209
-1.12264
-0.761014
-1.1271
-1.12874
-1.12639
-0.999276
-0.99748
-0.926712
-0.914778
-0.913763
-0.916067
-0.918643
-0.921131
-0.873669
-0.776549
-0.903469
-0.89346
-0.854381
-1.01856
-1.01508
-1.16373
-1.12981
-1.19228
-0.915357
-0.985627
-0.839849
-1.03152
-0.910042
-0.96617
-0.986096
-0.958569
-0.959346
-0.964115
-1.00335
-0.990354
-0.975673
-0.924768
-0.885318
-0.894234
-0.930953
-0.735517
-0.8061
-1.09195
-0.988856
-1.03425
-1.06049
-0.701876
-0.876442
-0.92431
-1.09257
-0.727311
-0.912914
-0.9294
-1.09783
-0.730242
-0.901444
-0.940336
-1.09379
-0.744084
-0.890687
-0.995555
-1.36041
-1.01669
-0.992122
-1.2476
-1.20963
-0.984638
-0.744569
-1.07209
-1.00677
-0.941869
-0.954375
-0.948312
-0.714762
-0.978667
-1.09896
-0.787101
-1.05026
-0.807992
-0.837796
-1.1308
-1.071
-0.866071
-1.13383
-1.09895
-0.886021
-1.12278
-1.10876
-0.885493
-1.11552
-1.10904
-0.884389
-1.11015
-1.10727
-0.881531
-1.10707
-1.10492
-0.881419
-1.10306
-1.10372
-0.865411
-1.09803
-1.08674
-0.842971
-1.04618
-0.887536
-1.02118
-0.966677
-1.03194
-1.20122
-1.17411
-0.880671
-1.13931
-0.870703
-1.09258
-1.00216
-0.722287
-0.926107
-0.959165
-1.11699
-0.914851
-0.960934
-0.962478
-0.973348
-0.966113
-0.968592
-0.967248
-0.96761
-0.903176
-0.876539
-0.84126
-1.01898
-1.02121
-0.901939
-0.897025
-0.956279
-0.972444
-1.11371
-1.115
-0.917203
-1.10858
-1.11207
-0.932183
-1.11199
-1.11583
-0.936103
-1.11494
-1.12043
-0.939684
-1.11728
-1.12319
-0.939272
-1.11933
-0.984786
-0.993829
-0.977198
-0.982839
-0.969452
-0.961159
-0.959584
-0.958988
-0.959137
-0.961076
-0.967952
-0.957301
-0.957915
-0.722026
-0.959167
-0.914412
-0.962027
-0.961332
-0.972986
-0.965927
-0.964374
-0.964546
-0.965276
-0.966756
-0.972949
-1.01985
-1.01405
-0.741944
-1.3258
-0.999073
-0.958905
-0.930628
-1.09782
-0.731489
-0.733274
-0.802524
-1.14439
-0.765152
-0.776691
-0.791725
-1.15092
-0.768645
-0.780168
-0.784906
-1.14615
-0.785047
-0.798523
-0.867286
-1.44619
-1.03034
-1.00593
-1.01072
-1.00163
-0.847922
-0.816621
-0.870477
-1.44085
-0.86121
-0.863438
-1.14849
-0.955739
-0.951901
-0.932816
-0.993522
-0.711698
-0.983528
-0.984272
-0.725548
-0.99876
-0.943993
-0.951469
-0.953967
-1.15531
-1.15145
-1.1617
-1.14593
-0.952437
-0.899296
-0.97892
-1.15027
-0.964275
-0.732349
-1.02402
-0.898556
-0.731124
-1.22389
-0.675148
-0.931702
-0.815956
-1.00155
-1.00608
-0.839647
-1.02767
-1.01634
-0.860454
-1.01782
-1.02263
-0.840396
-1.02134
-1.01202
-0.8583
-1.00996
-1.01804
-0.833895
-1.01571
-1.00816
-0.852546
-1.00231
-1.01629
-0.828648
-0.989401
-0.995881
-0.809323
-0.927457
-0.67641
-1.22155
-0.878966
-0.75301
-1.39466
-0.989034
-1.0378
-1.3624
-0.980754
-1.02075
-1.33895
-0.973848
-1.0022
-1.35243
-0.992769
-0.979515
-1.35796
-0.728525
-0.934193
-1.12011
-0.921626
-0.930163
-1.13099
-0.907291
-1.0842
-1.08473
-0.91601
-1.11036
-0.894155
-1.1085
-1.18531
-0.771455
-1.18897
-0.745049
-1.18719
-0.771898
-1.18931
-0.746234
-1.19075
-0.773724
-1.19254
-0.748342
-1.19423
-0.776268
-1.19573
-0.751219
-1.20025
-0.779893
-1.20007
-0.754854
-1.20845
-0.784481
-1.19374
-0.755985
-0.890699
-1.14011
-1.11349
-0.935842
-1.15634
-0.901693
-1.15408
-1.12016
-0.927769
-1.15205
-0.899534
-1.14865
-1.11791
-0.923313
-1.14692
-0.896529
-1.14588
-1.11495
-0.919922
-1.14481
-0.89407
-1.14146
-1.11277
-0.91807
-1.14131
-0.892299
-1.13993
-1.11202
-0.917517
-1.14212
-0.89041
-1.13754
-1.11513
-0.921643
-1.12669
-0.878119
-1.16954
-1.12432
-0.93718
-0.847263
-0.814022
-0.714772
-0.968143
-1.02252
-0.887697
-1.04652
-0.840671
-0.874051
-0.885294
-0.911509
-0.915485
-0.956532
-1.11742
-0.919215
-0.960445
-0.926746
-1.13729
-0.881104
-1.1739
-0.772858
-1.19133
-0.745181
-0.97297
-0.961946
-0.949822
-1.12519
-0.997603
-1.39677
-0.840646
-1.12193
-0.836446
-0.844682
-1.03874
-1.034
-1.02595
-1.03469
-1.04103
-1.40525
-0.998645
-0.929989
-0.915898
-0.917172
-0.919841
-1.11422
-1.11573
-0.921293
-0.965404
-0.956666
-0.950667
-1.12386
-0.907717
-1.08602
-1.11104
-0.923144
-1.10397
-1.10982
-0.928373
-1.00543
-0.916042
-0.916968
-0.918336
-0.920893
-0.918498
-0.92073
-0.91818
-0.915569
-0.915045
-0.913865
-0.914952
-0.916123
-1.08652
-1.11116
-1.19091
-1.18525
-1.18828
-1.18699
-0.745337
-1.10602
-0.770933
-1.10329
-0.745408
-1.10512
-0.772644
-1.09829
-0.864266
-0.83023
-1.01344
-0.890509
-1.00494
-1.14076
-0.917444
-1.11143
-0.924737
-1.10946
-1.11083
-0.917596
-1.11076
-0.930391
-1.11172
-1.1122
-0.917933
-1.1134
-0.932737
-1.11594
-1.11601
-0.91949
-1.11842
-0.904792
-1.12126
-1.12169
-0.906665
-1.12895
-1.10491
-0.898215
-0.996472
-0.994991
-0.986817
-0.984269
-0.981515
-0.978631
-0.975468
-0.977366
-1.12421
-1.11271
-0.776066
-0.76976
-0.774053
-0.838942
-1.40433
-0.998844
-0.999509
-1.39216
-0.838465
-0.843364
-1.04073
-1.03803
-1.09562
-1.0373
-1.39756
-0.997361
-0.926647
-1.13843
-0.881453
-0.975858
-0.957211
-1.12654
-1.12036
-0.759017
-0.756516
-1.12263
-0.754001
-0.769314
-1.12218
-0.957705
-0.917118
-0.869297
-0.920961
-1.35557
-1.17154
-0.937556
-1.12266
-0.904813
-1.09351
-1.08261
-0.919718
-1.11051
-0.922631
-1.10289
-0.915172
-1.10871
-0.927121
-1.10878
-1.10785
-0.91425
-1.11182
-0.899447
-1.11367
-1.11495
-0.901971
-1.11695
-0.921459
-0.918653
-0.916179
-0.913955
-0.91499
-0.957138
-1.12649
-1.12017
-0.936145
-0.980251
-0.957791
-0.975769
-0.956894
-0.936093
-0.980026
-0.915479
-0.917274
-0.915133
-0.914656
-0.917752
-0.915079
-0.964378
-0.964485
-0.965306
-0.968134
-0.968948
-0.898253
-0.879552
-0.886449
-0.896672
-0.732025
-1.01694
-0.74939
-1.35896
-0.980511
-0.957796
-0.958359
-1.112
-0.985883
-1.0324
-0.980949
-1.34933
-0.966279
-0.957292
-0.92911
-1.09316
-0.729785
-0.743157
-0.810089
-1.13806
-0.761905
-0.788491
-0.802077
-1.14437
-0.76534
-0.789675
-0.797619
-1.13962
-0.78332
-0.803276
-1.15837
-0.99268
-0.92595
-0.918871
-1.12352
-1.19801
-0.909541
-1.20861
-0.756431
-0.90636
-1.1701
-0.924559
-1.111
-1.13824
-0.92906
-1.09284
-1.17836
-1.12378
-1.04228
-0.830865
-0.952014
-0.88506
-1.10265
-1.1657
-1.14766
-1.11054
-0.932819
-1.10089
-0.926262
-1.10655
-0.932581
-1.10108
-0.927001
-1.10755
-0.935161
-1.10149
-1.1684
-1.14186
-0.952371
-0.845335
-1.00602
-1.1514
-0.843764
-1.01223
-1.02979
-0.990298
-0.86267
-0.861017
-0.866278
-1.43219
-0.867431
-0.955975
-1.37346
-1.03364
-0.993621
-0.84322
-0.856189
-1.15568
-0.794932
-0.794378
-1.15222
-0.978567
-0.997511
-0.993078
-0.986253
-0.984251
-0.981565
-0.978643
-0.975445
-0.9773
-1.12421
-1.113
-0.753982
-0.757083
-1.03002
-1.02592
-1.03747
-1.33572
-1.0199
-0.826866
-0.832018
-0.929968
-0.844116
-0.824834
-0.988796
-1.39513
-1.03788
-1.35541
-0.980308
-1.36168
-1.09568
-1.05417
-1.03828
-1.39258
-0.838563
-0.839104
-1.1223
-0.772182
-0.77169
-0.839273
-0.838464
-0.842762
-0.994143
-1.37022
-0.994693
-1.40375
-0.998236
-0.999241
-0.921034
-0.772591
-0.875791
-0.882301
-0.911869
-0.963701
-0.963654
-0.975875
-0.968911
-0.967509
-0.967838
-0.96873
-0.970306
-0.967163
-0.97534
-0.974256
-1.0104
-0.746532
-0.817793
-0.822419
-1.41
-0.956181
-0.96806
-0.998283
-1.32221
-0.739376
-0.820741
-0.823221
-0.751812
-0.831094
-0.846264
-1.38484
-0.992299
-1.02453
-0.779732
-0.867871
-0.947682
-0.889589
-0.899654
-0.97626
-1.02161
-1.01921
-0.97756
-0.976063
-1.00245
-0.992759
-0.983278
-0.97759
-0.974366
-0.958857
-0.954783
-0.95451
-0.947972
-0.960915
-0.901298
-0.900661
-0.90171
-0.903253
-0.904373
-0.903416
-0.997193
-0.98161
-0.982246
-0.975528
-0.968811
-0.963352
-0.962816
-0.958426
-0.972977
-0.971108
-1.11185
-1.19098
-1.18502
-1.18845
-1.18688
-0.89695
-1.11044
-1.10799
-0.893697
-1.0147
-0.914801
-0.916044
-1.08592
-0.997707
-1.39698
-0.974503
-0.926849
-0.956903
-0.975861
-1.12434
-0.779071
-0.770732
-1.04173
-1.03329
-1.04103
-1.0296
-0.753286
-1.1227
-1.03002
-1.03799
-0.845279
-1.05423
-1.03044
-1.02522
-1.03716
-1.0401
-1.09586
-1.03801
-1.04049
-1.04201
-1.05493
-0.778012
-0.844412
-0.929882
-1.12427
-0.832492
-0.826469
-0.975959
-0.958039
-1.12666
-1.11988
-0.936152
-0.958035
-0.917302
-0.869327
-0.772842
-0.867604
-0.771213
-0.913707
-0.913263
-0.915912
-0.913591
-1.11101
-1.11277
-1.19009
-1.18904
-1.19419
-1.19141
-0.903208
-1.11619
-1.11387
-0.899685
-1.02264
-0.868989
-0.771688
-0.871048
-0.773263
-0.918359
-0.914938
-0.920346
-0.916469
-0.922837
-0.918179
-0.92461
-0.922556
-0.874178
-0.779337
-0.919874
-1.02907
-1.0264
-1.02313
-1.01996
-1.01475
-0.998636
-0.97993
-0.978968
-1.00436
-0.985875
-0.9826
-1.00771
-0.98941
-0.982777
-0.979155
-0.999687
-0.998845
-0.979885
-0.982488
-0.981902
-0.985904
-0.989011
-0.985682
-1.01076
-0.992221
-0.988266
-1.01307
-0.994051
-0.989705
-1.01173
-1.0274
-0.923554
-1.11172
-0.738264
-1.16418
-0.99058
-0.97405
-1.1403
-0.784671
-1.15454
-1.06591
-1.03574
-0.977164
-1.33979
-0.968505
-0.960179
-0.90131
-1.06916
-1.07932
-0.849055
-0.960698
-1.0698
-1.07848
-0.988317
-0.967621
-1.33197
-0.981399
-1.03872
-1.04483
-1.04745
-1.03925
-0.97726
-1.06907
-0.943988
-0.940476
-1.09396
-0.74463
-0.728902
-0.797737
-1.13991
-0.782716
-0.771594
-0.784988
-1.14664
-0.783665
-0.775076
-0.778135
-1.14162
-0.799341
-0.867551
-1.4355
-1.0579
-0.992112
-0.865281
-0.859765
-1.15215
-0.977765
-0.997279
-0.990151
-0.988151
-0.985546
-0.982565
-0.979009
-0.980189
-0.99949
-1.01466
-0.894448
-1.1082
-1.10994
-0.897645
-1.11094
-1.11229
-1.18982
-1.18902
-1.19384
-1.19131
-0.74861
-1.10984
-0.772845
-1.11065
-0.746479
-1.10825
-0.771355
-1.10755
-0.880795
-0.844495
-1.01311
-0.894319
-1.01395
-1.14301
-0.91942
-1.11381
-0.930019
-1.1178
-1.11678
-0.922207
-1.11488
-0.935209
-1.12023
-0.925365
-1.11779
-0.935852
-1.12904
-1.13003
-0.931655
-1.10704
-0.926439
-1.10302
-1.10536
-0.932979
-1.12853
-1.12937
-1.10192
-0.925978
-0.976949
-0.931255
-0.925669
-0.923099
-0.920472
-0.918046
-0.915886
-0.867495
-0.868816
-0.916026
-0.913624
-0.91841
-0.914868
-1.11358
-1.11568
-0.903734
-1.11653
-1.12047
-1.20021
-1.19413
-1.20792
-1.19825
-0.756365
-1.09965
-0.777923
-1.12321
-0.751842
-1.10947
-0.775105
-1.11608
-0.884797
-0.847681
-1.01499
-0.901623
-1.02431
-1.13992
-0.924677
-1.11108
-0.932195
-1.13758
-1.12408
-0.932943
-1.10969
-0.919317
-1.09337
-1.17795
-0.929289
-1.12351
-1.04139
-0.951332
-0.884472
-0.951785
-0.981964
-0.83
-0.865394
-1.13405
-1.07157
-0.777964
-0.897226
-0.900803
-0.901837
-0.900825
-0.899381
-0.898401
-0.89909
-0.873985
-0.883594
-1.02262
-0.887712
-0.676261
-0.814304
-0.927198
-0.846229
-1.22243
-0.75143
-0.876069
-1.12211
-0.984584
-0.883746
-0.931857
-1.12283
-0.90754
-1.08138
-0.917221
-1.10991
-0.922451
-1.10453
-1.10255
-0.913566
-1.10955
-0.897209
-1.11096
-0.974442
-0.95999
-1.1107
-0.956574
-1.11342
-0.967434
-0.966438
-0.952978
-0.955339
-0.916074
-0.992735
-0.968396
-0.912763
-0.966852
-0.810596
-0.993557
-0.878474
-1.12498
-0.921647
-1.11415
-0.920867
-1.10565
-1.10662
-0.917151
-1.10923
-0.927378
-1.10834
-0.915952
-1.11079
-0.930098
-1.11217
-1.11184
-0.916304
-1.11379
-0.965851
-0.963106
-1.11165
-0.960417
-0.959418
-0.960648
-0.964309
-1.11555
-0.957008
-1.1428
-0.959637
-0.94669
-0.990485
-0.97783
-0.970919
-0.95099
-1.13918
-0.980197
-0.844599
-1.01095
-0.89241
-1.14116
-0.917716
-1.11213
-0.927351
-1.1131
-1.11391
-0.919425
-1.11289
-0.933052
-1.11591
-0.921017
-1.1161
-0.935105
-1.12056
-1.12117
-0.924016
-1.11774
-0.924552
-1.013
-1.01036
-0.992083
-0.985837
-0.982837
-0.979253
-0.980431
-0.979911
-0.998592
-1.00425
-1.01975
-0.916153
-0.918375
-0.920835
-1.02561
-1.01057
-1.00755
-0.989329
-0.985828
-1.00548
-0.999815
-0.922996
-1.11255
-0.917012
-1.11166
-1.10383
-0.915294
-1.1099
-1.11045
-1.10332
-1.10353
-0.917268
-1.10994
-1.11217
-1.1068
-1.11511
-0.919652
-1.11146
-1.08545
-1.08216
-1.08308
-1.08456
-0.919578
-1.11407
-1.11215
-0.922991
-1.10304
-0.917228
-1.11157
-1.11034
-0.927777
-1.10806
-0.917807
-1.11315
-1.11167
-1.11156
-1.11204
-0.916133
-1.10886
-1.10853
-0.92777
-1.10834
-0.917815
-1.11132
-1.11377
-1.11095
-0.925363
-1.11161
-1.14035
-0.917254
-1.10577
-0.921449
-1.11431
-1.13975
-0.921343
-1.09344
-1.08305
-1.14178
-0.931643
-1.12383
-0.90805
-1.13341
-0.930305
-1.13199
-0.908009
-1.12515
-0.931567
-1.14039
-1.08391
-1.09241
-0.905266
-0.95812
-0.949964
-0.954781
-0.731077
-0.989241
-0.940358
-0.963202
-0.964833
-0.72717
-0.952115
-0.919616
-0.938717
-0.990394
-0.730937
-1.36349
-1.00412
-0.978344
-0.843008
-1.12027
-0.950804
-0.92185
-0.923457
-0.949154
-0.886395
-0.98271
-1.12205
-0.824345
-1.00399
-1.36309
-0.978966
-1.39235
-0.999312
-0.917356
-0.916166
-0.915894
-0.918538
-1.00866
-0.930792
-1.11223
-0.918087
-1.11385
-1.11458
-1.11333
-1.11675
-0.919611
-1.11224
-1.11398
-0.928049
-1.11232
-1.14302
-0.917587
-1.10972
-1.14136
-0.89302
-1.01167
-1.01227
-0.845592
-1.01389
-1.01494
-0.848038
-1.01593
-1.01911
-0.848755
-1.01595
-1.02527
-0.848064
-1.00109
-0.961947
-0.988155
-0.96022
-0.987574
-0.957492
-0.98496
-0.954726
-0.982616
-0.952423
-0.980862
-0.845277
-1.00616
-1.1407
-0.891063
-1.01363
-0.991389
-0.831488
-0.97825
-0.951304
-0.946737
-0.993924
-0.87907
-1.17174
-0.937099
-1.12288
-0.90536
-0.958078
-0.958344
-0.968631
-0.752163
-0.877691
-1.22195
-0.676401
-0.928051
-0.810769
-0.966547
-0.912843
-0.814678
-0.846508
-0.984018
-0.885241
-1.12206
-0.916141
-0.954506
-0.950043
-0.963298
-0.969553
-0.964211
-0.963439
-0.964875
-0.91932
-1.11403
-1.14711
-1.14336
-1.11344
-0.970968
-0.968105
-0.965815
-0.96024
-0.957874
-0.956674
-0.957855
-0.974091
-0.930766
-1.11675
-0.922392
-1.11509
-1.12085
-1.11476
-1.15463
-0.921803
-1.11824
-1.14453
-0.898122
-0.748617
-0.980825
-0.967954
-0.974265
-0.988013
-1.12088
-1.20072
-1.19419
-0.778441
-0.87545
-0.873394
-0.775554
-0.920908
-0.916686
-1.11709
-0.923064
-0.918767
-1.11994
-0.907423
-1.02839
-0.923471
-0.925994
-1.02816
-1.01235
-1.01302
-0.994142
-0.992148
-1.01152
-0.988442
-0.991475
-0.988384
-0.985834
-1.00877
-1.00775
-1.0045
-0.985794
-1.00509
-1.01965
-1.02248
-0.900321
-0.977798
-0.974816
-0.960944
-0.96282
-0.968437
-0.958247
-0.95695
-0.949817
-0.962112
-0.911077
-0.972957
-0.967475
-0.96522
-0.97015
-0.972694
-0.978105
-0.978698
-0.976185
-0.989391
-0.982382
-1.11895
-1.12505
-0.90991
-1.12195
-0.998367
-0.983231
-0.981482
-0.986394
-0.888645
-0.949024
-1.21038
-1.247
-0.744483
-0.995245
-1.36068
-1.0164
-0.848158
-1.00145
-1.01252
-0.864652
-0.866601
-1.44823
-1.0364
-1.00413
-1.27756
-1.102
-1.10342
-1.04409
-1.06522
-0.788084
-1.15652
-0.975574
-0.99555
-0.989791
-1.01402
-1.01179
-1.0107
-0.923137
-0.920884
-0.916477
-0.922979
-0.918483
-0.875173
-0.873124
-0.870817
-1.14653
-1.14412
-0.921867
-1.11459
-0.932392
-1.12507
-1.11917
-0.926121
-1.11533
-0.935515
-1.11872
-0.925842
-0.923193
-1.01107
-1.02539
-1.02814
-0.90788
-1.01308
-0.994056
-0.992068
-0.989269
-1.00824
-0.917998
-0.915418
-0.915769
-1.11351
-0.957579
-1.10357
-0.950768
-1.08582
-1.13467
-0.919368
-0.951731
-0.966179
-0.720461
-0.956832
-0.956128
-0.961386
-0.966503
-1.11225
-0.965368
-0.952004
-1.01134
-0.981894
-0.964537
-0.954235
-1.14247
-0.984188
-0.847025
-1.01502
-0.89733
-1.01811
-0.956941
-0.986776
-0.968935
-0.965971
-0.969289
-1.11367
-0.964723
-1.11206
-0.960659
-0.97236
-1.11653
-0.967552
-1.1158
-0.963953
-0.975672
-1.12047
-0.959694
-1.15403
-0.987409
-0.847027
-1.00019
-0.905657
-1.16956
-0.961556
-0.973565
-0.982127
-0.972272
-0.947975
-0.890837
-0.93622
-0.918422
-0.973043
-0.978801
-1.12427
-0.969634
-0.980288
-0.972304
-0.958791
-0.937174
-0.96954
-0.971377
-0.969778
-1.12089
-1.11714
-0.965626
-0.961867
-0.971966
-0.983284
-0.976137
-0.965175
-0.937252
-0.969075
-0.970344
-0.968225
-1.11628
-0.982481
-0.979329
-0.976595
-0.899353
-0.898302
-0.898819
-0.861719
-0.889983
-0.901816
-0.90453
-0.908246
-0.985989
-0.978924
-0.979731
-0.978221
-0.930514
-0.725223
-0.811519
-0.916444
-0.972313
-0.983268
-0.978371
-0.968018
-0.961622
-0.957718
-0.956237
-0.957361
-0.962901
-0.961565
-0.950055
-0.952951
-0.952979
-0.919473
-1.12027
-0.915726
-0.969015
-0.958062
-0.969158
-0.966219
-0.921478
-1.10525
-1.10738
-0.916236
-0.999815
-0.979893
-0.936212
-0.998724
-1.01482
-0.869566
-0.921147
-1.35569
-1.20165
-0.744258
-0.867833
-1.01987
-1.00547
-0.985784
-1.00433
-1.00748
-0.989257
-1.00865
-0.918464
-0.920954
-0.921107
-0.923743
-1.01395
-0.935646
-1.11754
-0.921121
-1.11609
-1.12187
-0.925414
-1.11685
-1.11945
-1.11965
-1.12178
-0.926202
-1.11509
-1.12481
-1.11891
-0.933165
-1.12561
-1.14032
-0.902471
-0.751905
-0.977388
-0.967828
-0.972422
-0.980794
-0.982399
-0.951843
-0.947854
-0.89088
-0.97097
-0.936265
-0.918094
-0.973992
-0.980339
-0.966721
-0.96112
-0.972688
-0.970513
-1.11649
-1.11576
-1.11678
-1.11587
-0.923039
-1.11863
-1.11669
-0.935782
-1.12054
-0.927677
-1.12041
-1.11854
-0.936371
-1.12816
-1.13293
-1.13022
-0.934454
-1.02953
-1.01442
-0.990411
-0.992837
-0.992697
-0.995462
-0.926752
-0.919932
-1.11785
-0.796292
-0.731884
-1.15473
-1.06448
-1.06615
-0.977557
-1.04034
-1.0479
-1.0639
-0.775362
-1.14486
-0.95258
-1.14657
-1.15255
-1.14675
-1.14621
-1.11702
-0.89026
-1.04494
-1.33258
-0.753337
-0.985404
-1.1164
-1.03861
-1.10251
-1.02634
-0.992397
-1.29371
-1.08546
-0.803123
-0.869594
-1.44164
-0.862048
-1.15084
-0.800171
-1.15278
-0.954096
-0.998859
-0.993294
-1.01237
-1.01259
-1.02793
-1.01334
-1.01351
-1.01334
-0.994027
-0.994249
-1.01416
-1.01154
-1.02563
-0.923745
-0.926838
-0.926308
-1.0137
-0.931445
-0.877715
-0.778419
-1.20104
-0.770334
-0.985815
-1.10188
-0.935044
-0.980008
-0.984972
-1.11681
-0.792811
-0.728477
-1.15668
-0.975509
-0.954156
-1.14614
-0.771377
-1.14687
-1.06438
-1.06469
-1.06809
-0.945649
-1.04458
-1.33175
-0.985257
-1.03888
-1.04427
-1.04561
-1.04939
-1.06428
-0.780134
-1.14685
-1.08164
-1.04617
-1.07989
-1.06495
-0.776362
-1.1489
-0.955689
-1.15281
-1.15224
-1.02397
-0.931352
-0.931896
-1.02419
-1.01954
-0.884031
-0.933712
-0.93219
-0.977183
-1.01918
-1.02336
-1.02541
-0.941511
-1.19243
-0.958983
-0.963316
-0.974264
-0.96854
-0.964801
-0.963114
-0.963774
-0.968571
-1.11127
-1.1095
-0.925452
-0.869398
-1.0227
-0.928045
-1.11299
-1.11459
-0.919817
-1.1158
-1.11398
-1.1119
-0.930789
-1.11267
-0.967761
-0.955327
-0.956425
-0.964219
-0.964369
-0.960391
-0.967651
-0.956638
-0.960398
-0.966688
-0.974003
-1.13056
-1.127
-1.131
-0.974208
-0.972699
-0.970553
-0.933466
-0.973985
-1.11836
-1.11708
-0.930674
-0.874367
-0.871441
-1.02867
-0.933328
-1.12219
-1.12345
-0.976691
-0.960325
-0.957293
-0.954639
-0.952458
-0.951205
-0.946438
-0.91262
-0.966684
-0.978553
-0.98155
-0.982764
-0.971255
-0.985712
-0.988369
-0.992328
-0.979457
-0.975605
-0.922914
-0.972107
-0.977113
-0.977041
-0.969157
-0.957442
-0.936584
-0.971402
-0.969524
-0.957313
-0.939931
-0.968801
-0.96957
-0.935627
-0.965383
-0.877686
-0.935848
-1.12326
-0.932855
-0.992416
-0.975612
-1.15071
-1.08243
-1.08534
-1.11616
-1.02603
-1.10215
-1.10341
-1.10193
-1.08275
-1.04352
-1.09901
-1.29237
-1.10095
-1.10449
-1.18373
-1.15436
-1.29896
-1.30015
-1.27996
-1.29619
-1.29413
-0.952443
-0.956156
-0.99337
-1.15838
-0.817304
-0.95238
-0.984934
-0.933463
-0.919786
-1.13512
-0.920541
-1.11441
-0.897883
-0.874142
-0.896187
-0.867128
-0.885354
-0.883717
-1.13981
-1.10804
-1.11075
-0.961484
-1.29421
-1.12505
-0.976091
-0.746415
-0.895025
-0.715892
-1.12485
-0.744826
-0.745251
-0.745212
-0.88118
-0.842691
-0.913359
-0.897829
-0.95705
-0.948978
-0.753457
-0.920285
-1.12227
-0.77069
-1.03692
-0.750375
-1.08695
-0.916687
-0.931186
-0.872916
-0.847368
-0.723036
-0.92024
-0.921406
-0.917119
-0.773768
-0.914035
-1.11977
-0.920198
0.967111
0.956032
0.967517
0.960976
0.956381
0.955832
0.957742
0.961874
0.968338
0.978671
0.968651
0.965591
0.720073
1.01473
1.14958
0.902501
1.00314
0.951456
1.19063
0.890345
1.14089
1.00386
0.841404
1.02692
1.01692
0.853413
1.0224
1.01721
0.851766
1.01862
1.01478
0.845264
1.01593
1.01129
0.844507
1.01061
1.01118
0.841779
1.00351
1.01363
0.830595
0.987393
0.99403
0.809416
0.925371
0.675153
1.21963
0.752097
0.87739
0.988166
0.731889
0.938396
0.965862
0.729066
0.958609
0.956802
0.734496
0.969303
0.929071
0.728204
0.959325
1.15215
0.799068
1.07084
1.00925
0.929828
0.934358
1.10735
0.925686
0.930501
0.93027
1.1165
0.932104
0.928942
0.913858
1.11785
0.949713
0.930081
0.881846
1.12015
0.980694
0.935616
0.844517
0.81191
0.712949
0.885724
1.04401
1.08541
1.09558
1.1026
1.10123
1.10403
1.1052
1.10596
1.1093
1.11031
1.11251
1.11402
1.11656
1.11624
1.11882
1.11301
1.09807
1.04564
0.859664
0.976431
0.995487
1.02638
0.954561
0.720273
1.29022
0.997169
1.05601
0.993249
1.03116
1.15439
1.18235
1.10014
1.04896
1.05318
1.04953
1.10003
1.29043
1.05595
0.844842
0.855127
0.954892
0.867588
0.845287
1.00978
1.30086
1.03107
1.37278
0.993115
1.15438
0.976249
0.99555
1.04749
1.22129
1.19387
0.898207
1.16375
0.887822
1.11934
1.02696
0.719656
0.953625
0.984685
1.14804
1.10731
1.13046
1.11869
1.12178
1.11714
1.11724
1.11352
1.11493
1.10881
1.11435
1.10373
1.11335
1.09974
1.09682
0.947995
1.37487
0.963472
0.944871
1.08494
1.10636
0.92638
1.10884
1.10726
0.930972
1.11294
1.11002
0.932698
1.11608
1.11259
0.934544
1.1195
1.11556
0.936395
1.12288
1.11829
0.936752
1.12998
1.10449
0.926715
1.158
0.939497
1.14682
0.983109
0.709051
0.98969
0.943951
1.14928
0.959628
0.71881
1.01861
0.902241
1.16714
1.1042
1.13165
1.12558
1.11972
1.12821
1.11092
1.12766
1.11182
1.10954
1.11447
1.10441
1.11493
1.09288
1.10575
0.9547
1.37939
0.991382
0.93664
1.04703
1.20177
0.895525
1.1864
1.18459
0.898115
1.18731
1.1874
0.899905
1.20549
1.08561
0.93267
1.1411
1.10425
0.934691
1.13234
1.11614
0.935041
1.13358
1.11219
0.922623
1.14285
1.00542
1.14954
0.898732
0.732119
1.22482
0.849226
1.18887
1.14445
0.89089
1.00784
0.931565
0.812451
0.675992
0.861819
0.725778
1.04705
1.10201
0.756352
1.19509
1.10586
0.897344
1.22064
1.16454
0.887413
1.11912
1.04875
0.783841
0.941068
1.37351
0.992915
1.1543
1.03122
1.30092
1.01011
0.845654
0.95513
0.867581
0.803261
1.15564
0.85509
0.865802
0.798526
0.795696
1.15246
0.860659
0.860123
0.7949
0.798694
1.15239
0.866327
0.8547
0.801891
0.867903
1.15536
0.954899
0.84504
1.03127
1.00974
1.30139
1.03128
1.15431
0.992137
1.05633
1.28786
1.00061
1.02641
1.27617
1.0257
1.00135
1.28745
1.05594
0.845164
1.09472
1.18164
1.1001
1.43597
1.02384
0.947456
0.986
0.941849
1.15906
1.10515
1.10498
1.10824
0.926582
1.15953
1.14735
0.986897
1.14737
0.94054
0.951645
1.02595
1.44891
1.10385
1.10016
1.43557
1.02384
0.94739
0.886091
1.04902
1.22091
1.19443
0.756276
1.09896
0.784335
1.04529
0.726124
0.9944
1.11921
1.03052
0.949264
0.987098
0.98603
1.14728
0.950202
1.02951
0.994706
0.975356
0.865127
0.888444
0.840145
0.810292
0.974987
0.915441
0.968723
0.974381
0.985604
0.992458
0.850727
0.999579
1.02724
1.15283
1.1619
1.13853
1.17439
0.895421
1.03849
1.01822
0.901571
0.754902
1.11539
1.12521
0.749322
1.19474
1.12047
0.903484
1.19614
1.12007
1.12322
0.905803
1.20083
0.779611
0.878256
0.883895
0.936097
0.784447
1.11902
0.886121
1.10856
0.91552
0.913216
0.884425
0.850231
0.994283
0.96484
0.959024
0.973991
0.973434
0.967515
0.933426
0.939392
0.974183
0.952026
1.14811
1.15926
1.10424
0.927104
1.10668
0.93593
1.13056
1.13083
1.1202
0.93729
1.11676
0.928338
1.12522
1.12108
1.1196
0.937154
1.11233
0.923198
1.12295
1.11625
1.11598
0.935419
1.11026
0.917562
1.11755
1.11463
1.10994
0.932955
1.10922
0.91131
1.11255
1.11418
1.10381
0.930607
1.10627
0.907559
1.108
1.11341
1.0995
0.926104
1.10627
0.903738
1.08382
1.09459
0.957452
0.945029
0.962244
0.781313
0.813204
0.78433
0.814166
0.885006
1.37851