/*--------------------------------*- C++ -*----------------------------------*\
| =========                 |                                                 |
| \\      /  F ield         | OpenFOAM: The Open Source CFD Toolbox           |
|  \\    /   O peration     | Version:  2306                                  |
|   \\  /    A nd           | Website:  www.openfoam.com                      |
|    \\/     M anipulation  |                                                 |
\*---------------------------------------------------------------------------*/
FoamFile
{
    version     2.0;
    format      ascii;
    arch        "LSB;label=32;scalar=64";
    class       volScalarField;
    location    "1";
    object      gradTx;
}
// * * * * * * * * * * * * * * * * * * * * * * * * * * * * * * * * * * * * * //

dimensions      [0 -1 0 1 0 0 0];

internalField   nonuniform List<scalar> 
5322
(
-0.0173368
0.00123807
0.00121861
-2.89405e-05
-7.96994e-05
-5.62951e-05
-3.06374e-05
-1.49736e-05
-7.06897e-06
-2.70983e-06
-4.00714e-07
3.53364e-06
3.93629e-06
-4.85016e-05
1.49216e-06
0.000111328
-8.36587e-05
7.44218e-06
-7.93624e-05
0.000125783
-0.000159321
0.00033248
-0.000341848
0.000763877
-0.000798549
0.00153637
-0.00154294
0.00294548
-0.00299664
0.00502629
-0.00477474
0.00844929
-0.0061647
0.0138164
0.00178519
0.0222893
0.0158478
-0.00627641
0.017216
-0.00104961
-0.0163615
0.0163732
-0.000988813
-0.0173971
0.0173369
-0.000578853
-0.0184784
0.0163794
-0.000357406
-0.0194179
-0.0193531
-0.027638
-0.00941786
0.0169389
-0.00112245
-0.0274727
-0.000870111
0.0260507
-0.000306909
-0.0260305
-0.000106659
0.0253653
-0.000122581
-0.0255714
4.53382e-05
0.0250493
0.000400788
-0.025337
0.00146671
0.0209755
0.0014194
-0.0187903
0.0213728
-0.0219689
0.0211343
-0.0215329
0.0215467
-0.0215798
0.0246142
-0.018224
0.0083501
-0.0141543
-0.00977735
0.0143789
0.00105734
-0.00533203
0.0110239
-0.0309144
-0.00882842
0.032555
-0.00151104
0.000201494
0.000325991
0.00296568
0.0170669
-0.00295326
0.000729389
-0.000677439
0.0113295
-0.0272418
-0.0271526
0.0533157
-0.000722348
0.0132339
0.0216471
0.000980691
0.00031121
0.000182695
7.69403e-05
1.63623e-05
-5.29303e-06
-9.09478e-06
-7.17539e-06
-4.12181e-06
-1.53969e-06
-1.14916e-06
-3.48058e-05
-3.10262e-05
5.50107e-06
1.68862e-05
-5.81203e-07
2.33139e-05
-2.87804e-05
-2.70425e-06
-9.46497e-06
4.49621e-05
3.51933e-05
7.50166e-06
2.83154e-05
1.61636e-05
1.13695e-05
3.05594e-05
1.28386e-05
1.40718e-05
3.09899e-05
1.05233e-05
2.39332e-05
3.52498e-05
3.84635e-05
1.2735e-06
-3.07322e-05
-4.80766e-08
2.20493e-05
-3.03581e-05
-3.5529e-05
6.85879e-06
1.04103e-05
3.551e-06
-2.74227e-05
-3.07687e-05
8.08922e-06
4.7212e-06
6.86253e-06
-3.05905e-05
-2.77744e-05
8.27208e-06
1.36803e-06
1.36375e-05
-2.92368e-05
3.83581e-05
-9.91031e-05
-0.000125917
0.000170159
-0.000281062
-1.90293e-05
-0.000124168
3.06617e-06
9.69587e-05
-2.10366e-05
7.99433e-05
3.86812e-05
5.9106e-05
-0.00011915
3.92345e-05
-0.000103805
0.000101023
0.000131515
-0.000240493
2.7153e-05
-0.000205381
0.000278737
0.000348352
-0.000569179
4.45501e-05
-0.000478928
0.000684031
0.000840002
-0.00128157
9.8209e-05
-0.00107273
0.00151568
0.00184885
-0.00268247
0.000198242
-0.00224402
0.00303916
0.0037149
-0.00520646
0.000364378
-0.00436018
0.00552498
0.00681369
-0.00934072
0.000621258
-0.00780311
0.00909085
0.0113905
-0.0152469
0.0010012
-0.0125602
0.013203
0.0164229
-0.00255978
0.0108469
-0.0269445
-0.0274865
0.0535053
-0.00249389
-0.00264026
0.00039584
0.00323163
0.0170153
-0.00204865
0.000904401
-0.00260287
0.0104392
-0.0273813
-0.0270319
0.0531744
-0.00107369
0.0132206
0.000705278
0.000483348
0.000213754
0.000100337
2.87111e-05
-4.22851e-07
-7.56074e-06
-6.85732e-06
-4.05734e-06
-1.62039e-06
-1.18814e-06
2.54263e-05
-2.95884e-05
3.00013e-05
-2.50057e-05
5.91109e-07
2.47767e-05
-2.16013e-05
3.95665e-07
-2.37909e-05
1.22274e-07
-2.4295e-05
-5.22646e-08
2.20671e-05
7.30396e-07
2.17062e-05
-2.18449e-06
-2.44513e-05
-2.11548e-07
2.39252e-05
4.99013e-08
9.8268e-08
4.84027e-05
-0.000106209
0.000106683
-0.000103679
0.000164683
-0.000253378
0.000417146
-0.00063032
0.000985145
-0.00143908
0.00214351
-0.00300896
0.004292
-0.00576467
0.00790514
-0.0100978
0.01332
-0.0159126
0.0201835
-0.0122513
0.000329802
0.0124297
0.000369573
-0.0196442
0.0155141
9.542e-05
-0.0129052
0.00990662
5.30361e-05
-0.00764998
0.00567623
2.95855e-05
-0.00414866
0.00296799
1.56857e-05
-0.00206888
0.00142142
8.12623e-06
-0.000948636
0.000623959
4.20128e-06
-0.000400072
0.000252979
2.08161e-06
-0.000157048
4.31721e-07
0.00015815
-0.000251205
-1.09944e-06
-0.000163577
0.000104299
-4.75021e-07
-4.87902e-05
-3.40776e-06
4.86751e-05
-0.000110405
0.000155465
-0.000251749
0.000393481
-0.000614033
0.000938782
-0.00139136
0.00205744
-0.00289536
0.00414747
-0.00552492
0.00770702
-0.0096194
0.0131162
-0.0149452
0.01991
-0.0121089
-0.00317919
0.00500483
0.000530605
-0.0185603
0.0137224
7.49703e-05
-0.0118148
0.00899732
-6.99794e-05
-0.0067716
0.00509368
-7.41085e-05
-0.00364101
0.00263366
-5.02657e-05
-0.00181683
0.00125612
-3.2238e-05
-0.000833286
0.00055327
-1.93991e-05
-0.000350607
0.000226306
-1.16304e-05
-0.00013704
8.36219e-05
-1.12326e-06
-2.46e-05
3.78657e-05
6.40047e-05
-1.26788e-05
3.31813e-06
-1.2779e-05
4.27268e-05
-0.000135458
0.000149691
-0.000288277
-0.000194082
-0.000245919
2.80261e-05
0.000105643
0.000118624
-0.000117727
3.69546e-05
-0.0001014
-1.50644e-05
-1.58322e-06
-3.29915e-05
2.01265e-06
-1.82103e-06
-3.19904e-05
-9.03717e-06
-1.4576e-05
-0.000106754
-0.000116278
0.000122676
-0.000239464
-2.86499e-05
0.000336709
-0.00056765
0.000824393
-0.00127843
-0.000144443
0.00182731
-0.00267708
0.00367989
-0.00519687
-0.00019811
0.00674347
-0.00928222
0.0111995
-0.0149276
0.00310154
0.000391622
-2.55996e-05
6.6141e-06
-0.000187573
-0.000181419
0.00701304
-0.00953583
0.000690027
-0.00773101
0.00850765
0.0117376
-0.0149868
0.00120603
-0.0131869
0.011753
0.0236808
-0.0014547
0.00163055
-0.0295828
-0.0275665
0.0511182
-0.0035899
0.000388087
0.000735556
-0.0107396
0.0019372
0.00520521
-0.00543037
0.000302699
0.00328692
-0.00289832
-1.6518e-05
0.00169282
-0.00154681
-3.92385e-05
0.000766503
-0.000740955
-3.89739e-05
0.000359375
-0.000324161
-2.97799e-05
0.000156699
-0.000117509
-1.94345e-05
8.3267e-05
2.45834e-05
1.57932e-05
-2.05247e-07
-4.76472e-07
6.60497e-05
-2.8334e-05
0.000413785
-0.000684161
0.00102305
-0.00155091
-0.000998538
-0.00131398
0.000100648
0.000674163
0.00084617
-0.000582197
4.56442e-05
-0.000442832
-5.54678e-05
-2.92894e-05
-1.19255e-05
-1.68449e-05
-3.09473e-05
1.15505e-05
2.29961e-06
-3.54174e-05
-0.000126499
-3.72211e-05
4.47881e-05
5.25776e-05
4.6893e-05
1.79184e-05
9.58058e-05
2.77093e-05
6.03578e-05
9.132e-05
-0.00013256
-0.000280077
-0.000564095
-0.000297864
0.000163808
-0.000103189
2.68143e-05
0.000273564
-0.00024498
0.00227226
-0.00325691
0.00459924
-0.00638325
-0.00416239
-0.00535725
0.000384177
0.00293461
0.00380643
-0.00275631
0.000205152
-0.00210863
-0.000163689
-6.64569e-05
-5.1426e-05
-6.09494e-05
-0.000144978
-1.08464e-05
-4.58522e-05
-7.41826e-05
-6.08851e-06
-1.88748e-05
0.000135985
1.09597e-05
-3.39743e-05
-3.25945e-06
4.1611e-06
8.90099e-07
-3.21026e-06
4.74559e-06
-6.09494e-05
-1.1384e-05
-7.58652e-06
-2.87577e-06
-1.3919e-06
0.000255579
1.30102e-06
-0.000414475
0.000403305
-0.000618935
-1.13509e-06
0.000637078
5.25022e-06
-0.000978959
0.000957807
-0.00140877
7.20173e-07
0.00145701
1.37234e-05
-0.00212953
0.00209238
-0.00293904
7.08012e-06
0.00305182
3.19086e-05
-0.00426422
0.0042024
-0.00561685
2.33451e-05
0.00585669
6.13723e-05
-0.00785717
0.00775553
-0.00980016
5.84242e-05
0.0102523
6.19477e-05
-0.0132321
0.0130548
-0.0153721
0.00010331
0.0160033
-0.000110814
-0.0199941
0.01971
-0.0123273
-3.48372e-05
0.0122191
-0.000907137
-0.00226172
-0.00156815
-0.00279839
-0.0259897
0.00507899
0.00279033
-0.00192339
-0.00382279
-0.00099741
-0.0177455
0.00425222
-0.00869752
-0.0109406
-0.00148072
-0.0032107
-0.00440928
-0.00215387
-0.00117222
0.000532268
-0.00057663
-0.00109588
-0.00100167
-0.000512179
-0.000259629
-0.000123794
-3.6561e-05
5.48504e-05
4.59652e-05
4.86834e-05
5.57459e-05
8.4618e-05
8.14626e-05
5.22078e-05
5.26973e-05
3.91336e-05
-3.48123e-05
9.91716e-06
-3.92228e-06
-2.67495e-06
9.01438e-06
-3.02999e-05
-1.3686e-07
2.17332e-08
-2.43673e-09
1.77252e-07
-1.92651e-05
-2.30027e-05
-2.30418e-05
-1.925e-05
1.95714e-05
-1.41388e-05
1.37332e-06
2.36279e-05
-1.78042e-05
-1.76625e-05
1.43221e-06
2.33397e-05
1.6993e-07
4.07635e-07
4.35696e-07
3.76586e-07
-2.34848e-06
-3.08378e-07
-1.85351e-06
-2.44892e-06
4.08137e-08
1.10491e-05
4.00804e-05
-2.47869e-05
-9.92806e-05
-0.000397878
9.79563e-05
-0.000207132
0.000926055
-0.00128722
0.00865178
-0.0115436
0.0152109
-2.9213e-05
-0.00428586
-0.00090769
0.00120309
0.000102377
0.000631564
0.00087351
-0.0019751
-0.00393777
-0.00805745
-0.0191231
-0.0197388
-0.0434763
-0.0165239
-0.0139308
-0.000117254
-0.00528661
0.00533983
-0.0395619
-0.0242955
-0.0119564
0.0170757
0.00137439
0.000690871
-0.0172719
0.0181799
0.000135667
-0.00228212
-0.0188012
0.0182134
3.61569e-05
-0.00252538
-0.0183739
0.0181527
0.000132258
-0.00402975
-0.0175553
0.0129618
-0.0114906
0.0102014
0.0077959
0.0217788
-0.0102527
-0.00562577
0.00317691
0.0120563
-0.0356168
-0.00164521
-0.020606
0.0208781
0.0204114
0.0184756
0.0234176
0.0100069
0.00131336
0.00828467
0.0119085
0.018312
-0.00542696
0.00153251
0.00950222
-0.00512341
0.000128388
0.00521996
-0.00309601
2.98295e-05
0.00290209
-0.00160054
2.8304e-05
0.00152907
-0.000768075
1.89003e-05
0.000745431
-0.000344368
8.08438e-06
0.000329067
-0.000152812
-3.24777e-06
0.000125367
-7.77004e-05
-2.25827e-05
1.52011e-05
-6.3518e-05
-3.82214e-05
2.49701e-05
-8.30962e-05
0.00013945
-0.000223894
1.20831e-05
-0.000154767
0.000110579
1.5624e-06
-4.82639e-05
3.59237e-06
4.89789e-05
-4.81214e-05
8.06602e-07
9.55001e-07
3.42981e-07
5.63369e-07
1.5788e-06
3.8757e-06
1.10902e-05
2.56125e-05
5.69787e-05
-0.00024913
-1.19493e-05
-0.000104276
0.000530601
-0.000540142
8.93233e-05
5.76331e-05
0.000301585
0.000318244
0.00147137
0.00188449
-0.000143731
-0.00106985
0.00152058
0.000198488
-0.00224154
0.00304036
0.00036654
-0.00437417
0.00551212
0.000628161
-0.00790043
0.00903944
0.0010041
-0.0129026
0.000772754
0.00109366
-0.00181387
-0.00182344
-0.00765074
-0.00370999
-0.00191407
-0.00099121
-0.00051186
-0.000261636
-0.000125283
-3.77031e-05
5.40127e-05
4.45566e-05
4.68166e-05
8.13815e-05
5.17964e-05
-3.80511e-05
-0.000127347
-0.00027221
-0.000536735
-0.00102734
-0.00194816
-0.0037368
-0.00745901
-0.0175055
-0.0182165
-0.0309472
-0.0257374
-0.00875696
-0.00868372
0.0154815
0.00158471
-0.00193031
-0.00153612
0.00708713
0.000223575
-0.00581066
-0.00554338
0.00565867
-1.29048e-05
-0.00635325
-0.00606497
0.00500087
1.0376e-05
-0.00789216
-0.00752022
0.002536
-0.011337
0.00807729
0.00784701
0.00819079
0.00718242
-0.00959389
0.000743372
0.00334739
-0.0112794
0.0025224
-0.0103921
0.0117988
-0.0250498
-0.000945189
-0.0241198
0.0193213
0.0209346
0.0198784
0.0194862
0.0202703
0.0193964
-0.0261343
-0.00116868
-0.0235617
0.0141842
0.0152348
0.0142455
0.0150485
-0.000955566
-0.0251504
-0.0249722
0.0118345
0.0199132
0.0187467
0.0175279
0.0218959
0.0220652
0.0169624
0.00475119
0.00967491
0.00414437
-0.00234215
0.00328115
0.000859279
-0.00241997
0.00150143
0.00029422
-0.00158114
0.000864891
0.000182245
-0.000937026
0.000454988
9.27517e-05
-0.000497429
0.000236739
6.03789e-05
-0.000247369
0.000101711
2.18499e-05
-0.000115161
3.85355e-05
5.67135e-06
-5.61225e-05
5.35243e-06
-1.37097e-05
-4.07074e-05
-1.662e-05
-4.56077e-05
-5.57966e-05
-5.25859e-05
-3.52991e-05
-2.38541e-05
-3.828e-05
-1.20877e-06
3.06594e-05
-2.15966e-05
2.63686e-06
2.49316e-05
-2.44357e-05
1.10551e-06
2.56188e-05
-2.66504e-05
-1.28875e-06
-2.51892e-06
-5.25058e-05
-4.78685e-07
-0.000108876
2.7136e-07
-0.000159054
2.27727e-06
0.000255005
-0.000256247
4.04443e-07
-0.000393195
2.13828e-05
0.00061867
-0.000552767
3.50123e-05
0.000845911
3.53875e-05
-0.00125427
6.63054e-05
0.00183474
5.81892e-05
-0.00261546
0.000116936
0.0036499
6.80623e-05
-0.00499948
0.000183679
0.00665776
8.79067e-05
-0.00874611
0.000281107
0.0111579
-2.07119e-05
-0.0138621
0.000495529
0.0169926
-4.59447e-05
-0.000658782
-0.0212416
-0.0154071
0.0007834
0.0159852
-0.000318596
-0.0137146
-0.00952372
0.000603152
0.0103641
-0.000180772
-0.00814424
-0.005604
0.000357822
0.0059845
-0.000110125
-0.00443957
-0.00304144
0.000209338
0.00315544
-5.28111e-05
-0.00220715
-0.00151552
0.000113699
0.0015199
-2.63e-05
-0.00100133
-0.000690967
5.3155e-05
0.000676226
-8.75934e-06
-0.000407355
-0.000288306
2.30515e-05
0.000285976
1.00204e-06
-0.000148084
-0.000107523
1.44363e-05
0.000134395
1.3159e-05
-3.94081e-06
2.48642e-05
-3.81951e-05
-6.3553e-05
1.51976e-05
-2.2872e-05
1.25391e-05
6.19198e-05
-4.34346e-06
1.45622e-06
-4.95034e-05
8.11514e-07
0.000109012
-0.000105113
1.05189e-06
-0.00015541
1.21437e-05
-0.000226168
1.65162e-05
0.000357513
2.68739e-05
6.30286e-06
4.0344e-06
2.85205e-06
0.000166105
2.99945e-06
-4.93e-07
-2.15849e-05
2.49145e-07
2.5172e-05
4.77071e-07
2.78777e-07
1.76732e-07
-3.89688e-06
-4.58683e-06
-3.44328e-06
-3.11793e-05
-9.42504e-06
-1.41921e-05
-2.62247e-05
-2.57408e-05
-2.8804e-05
0.000341089
0.000282425
-2.48372e-05
6.9112e-05
2.43421e-05
2.1528e-05
0.00010792
2.72225e-05
-0.000206599
0.000285529
4.42595e-05
-0.000478355
0.000690519
9.77449e-05
2.07445e-06
-6.01098e-05
-7.0215e-05
-0.000113801
-0.000175879
-0.000224385
-0.000182886
-0.000117114
-6.15733e-05
-6.98928e-05
-5.86759e-05
-2.55316e-05
-2.8969e-05
-0.000200204
0.000278921
0.000456293
-0.00066891
0.00108715
-0.00151523
-5.02811e-05
-0.000796269
4.71237e-06
0.000577888
-2.83057e-05
-0.000333619
-4.79942e-06
0.000247888
-3.48122e-05
-1.60467e-05
-0.000267824
-3.22689e-05
0.000380575
-0.000445441
7.99015e-07
-0.00111962
-1.57812e-05
0.0016198
-0.00144421
2.74014e-06
-0.00212528
3.26016e-06
0.00301939
-0.0029805
1.92288e-06
-0.00414068
7.77775e-06
0.00563935
-0.00579671
-2.54743e-05
-0.00741651
0.000104482
0.00961808
-0.0123524
4.93348e-05
0.0152404
-0.0184261
-0.000147531
-0.000586709
-8.77709e-05
-1.0892e-05
2.38547e-05
2.53238e-05
1.83633e-05
1.12651e-05
5.75598e-06
2.27932e-06
1.43212e-06
-2.50811e-05
3.02122e-05
-2.94837e-05
-2.47196e-05
2.09934e-07
4.70553e-07
-2.13925e-06
1.1288e-06
2.25589e-05
-6.61255e-08
-3.25294e-07
-2.15803e-06
1.98371e-06
-2.65237e-06
-3.01749e-05
-8.87476e-06
-1.55458e-05
9.5189e-05
2.86097e-05
-4.05355e-06
-2.40751e-06
-1.58084e-06
-9.5058e-07
1.79236e-05
1.84413e-05
-9.03631e-07
1.43675e-05
2.55845e-05
-7.7075e-07
-1.31221e-06
-2.18986e-06
-1.34629e-05
-3.48477e-06
-2.68409e-05
0.000120922
2.44031e-06
-0.000191168
-4.58212e-06
0.00028845
-0.000261145
-1.67473e-06
-0.000416839
-1.64774e-07
-0.000629953
2.33457e-07
-0.000957781
6.80195e-06
0.00142648
-0.00145573
-3.16012e-06
-0.00203725
6.15133e-05
0.00290748
-0.00406263
8.75527e-05
0.00552767
4.20908e-06
1.12596e-05
9.8807e-06
6.65472e-06
3.49961e-06
2.58466e-06
4.313e-07
1.45521e-07
-1.75659e-06
-3.99471e-06
-2.38875e-06
-4.59282e-06
-1.39159e-06
-1.70518e-06
1.11367e-06
1.0934e-06
1.30703e-06
2.91032e-06
3.42612e-06
7.07869e-06
7.91318e-06
8.57382e-06
1.70279e-05
2.71306e-05
0.000117021
0.000191116
-0.00067038
0.000109397
-0.00116685
0.00330648
-0.0223419
-0.00626436
0.000264604
-0.00200526
0.0109264
-0.0107393
-0.0318085
-0.0126936
5.68144e-05
0.00333428
0.000395433
-0.0259368
-0.011502
-0.00781147
0.0147353
0.00157152
-0.00167049
-0.0027715
0.00770413
0.000231203
-0.00542625
-0.00665378
0.00662708
5.798e-06
-0.00594328
-0.0069747
0.00617321
5.54834e-05
-0.00762865
-0.00792761
0.00142862
-0.000425523
6.96531e-05
6.86475e-05
0.0153316
-0.0139033
0.000279988
0.0114851
-0.00030432
0.000144196
-0.0145081
0.000474545
-0.00894456
0.0112338
0.000302052
-0.0134021
-0.0235799
0.0163684
-0.0014501
0.00241102
0.00783342
-0.000282751
0.0193853
0.0140943
0.0158014
-0.0179909
0.000812977
-0.0151759
-0.00061684
-0.0167796
0.000955339
-0.0160804
-0.00062333
-0.0161684
0.000984649
-0.0172804
0.0146786
0.0144026
-0.000956778
-0.030613
-0.0245737
0.011714
-0.00839023
0.012046
0.00698447
0.00821296
-0.0102722
0.00281021
0.00218209
-0.0115956
0.00425488
0.00770346
-0.00971333
0.016789
-0.00898751
0.00146893
-0.00842588
0.00125531
-0.00904875
-0.00706895
0.00115884
-0.000591724
-8.67574e-05
-4.12365e-05
1.56663e-05
3.73716e-05
3.10749e-05
2.04598e-05
1.191e-05
5.94117e-06
2.30836e-06
1.47629e-06
-1.42793e-05
1.98227e-05
4.19638e-07
3.87976e-06
2.71124e-06
2.29309e-06
-2.16034e-05
2.23792e-07
3.0747e-05
-2.16547e-05
-1.03382e-05
3.03297e-05
-2.38774e-05
-3.5521e-05
-3.84942e-05
3.32747e-05
3.08148e-05
-1.19431e-06
-1.97842e-06
-8.78256e-06
1.70002e-06
3.22478e-05
-2.80186e-06
-5.1461e-06
-7.41532e-06
3.08609e-05
3.10422e-05
-5.3548e-06
-2.58582e-06
3.51114e-05
-1.23294e-05
-3.21286e-05
-1.24659e-05
3.17188e-05
9.99815e-06
9.36994e-06
1.86878e-06
7.36618e-06
1.2887e-05
6.24952e-05
-4.40072e-06
3.77442e-06
7.413e-08
-1.49444e-06
-4.36914e-06
-1.0012e-05
-2.26625e-05
-5.11037e-05
-0.000107395
2.00273e-05
-4.42613e-05
0.000124198
-0.000692609
-0.000162863
0.000902677
-0.00146424
-0.000471519
-0.000500687
-0.01541
0.0147997
-0.000446755
-0.000337036
0.00103955
-0.000774317
-0.000368494
0.00274221
0.00480114
0.00259191
0.0134338
-0.00605194
0.0018144
0.0111428
0.0121495
-0.00312432
0.00139124
-0.00013784
0.000742447
-0.00017964
4.65247e-05
-0.00114275
-2.84162e-05
5.88211e-05
1.64424e-05
1.31937e-06
-2.1502e-06
4.20842e-06
-5.93365e-08
3.15891e-06
2.25348e-06
4.06338e-06
3.32964e-05
7.73742e-05
0.000153192
0.000272927
0.000448584
0.000742698
0.00032921
9.41314e-05
0.000192731
0.000102831
4.04721e-05
1.46928e-05
1.15125e-05
5.47518e-06
1.10604e-05
6.72737e-06
-0.000390999
0.000355265
-0.000546263
0.000838683
-0.00124004
3.89849e-05
-0.000928924
0.000615741
2.14506e-05
6.4627e-06
3.76479e-06
1.08774e-06
0.000252555
2.98646e-06
-4.87144e-07
2.45712e-05
1.08841e-06
2.71159e-06
5.49449e-06
-6.24978e-06
3.573e-05
2.77455e-05
-9.57668e-06
4.44811e-06
2.2788e-09
-1.39556e-07
1.48949e-05
-8.57697e-07
-1.28461e-07
1.01839e-05
-3.46598e-05
8.93476e-06
3.93454e-07
4.01085e-06
2.83399e-06
3.05129e-07
-1.962e-06
1.76118e-06
3.04131e-06
-9.59392e-06
-8.82054e-06
3.58731e-05
-1.05111e-05
-2.1493e-05
-6.38496e-06
3.07665e-05
2.53539e-07
5.41252e-06
3.32333e-06
2.21018e-06
1.2134e-06
2.98741e-06
3.37651e-06
2.64139e-05
1.25502e-05
1.64702e-05
3.17181e-05
3.49833e-05
7.56575e-06
1.11576e-06
1.29042e-05
9.6443e-07
0.00139605
-0.00202825
0.0018214
-0.00259436
0.00363914
-0.00499241
0.000123728
-0.00406901
0.0029067
7.0268e-05
1.14168e-05
6.18156e-05
6.64045e-05
0.000107412
0.000110792
2.02322e-05
-4.90364e-07
1.52639e-05
1.59197e-05
2.78092e-05
2.50477e-05
3.61914e-05
8.62905e-05
0.000189507
6.1625e-05
0.000662399
0.000106502
3.58516e-05
7.64078e-06
-1.93467e-06
-3.696e-06
-1.06833e-06
-1.55522e-06
2.9019e-06
5.26684e-07
-6.12129e-07
6.8527e-06
6.458e-06
3.88069e-06
-8.54181e-06
-7.27027e-06
-1.71849e-06
-1.95435e-06
-1.77258e-06
9.91884e-07
2.49319e-06
5.62737e-06
1.12683e-05
1.44631e-05
2.15005e-05
1.66149e-05
2.53569e-05
4.99976e-05
4.32697e-05
3.16314e-05
8.07425e-05
0.00023468
7.78436e-05
7.398e-05
0.0033213
-0.000537291
0.000389603
6.31078e-05
0.000215884
0.0069673
-0.00025464
-0.00100497
0.00589981
0.00212567
-0.0258353
-0.00956492
-0.0153093
0.0157357
-0.0113562
-0.0121949
0.0142632
-0.01639
-0.000881157
-0.00122793
-0.0163222
0.0146976
-8.89586e-05
-0.000688547
-9.70142e-06
0.00028283
0.00037849
0.00623161
0.00225343
-0.0112724
-0.0106447
0.0172486
0.00151563
-0.00405625
-0.00125007
0.00663179
0.000159348
-0.00777824
-0.00505257
0.00506257
-1.69832e-05
-0.00807617
-0.00554284
0.00445084
-3.40104e-05
0.00709258
0.00689934
0.000391172
0.0100195
-0.00982826
8.99806e-05
-0.00750841
-6.35611e-05
-0.000122577
-1.78409e-05
7.10755e-06
1.23053e-05
8.60443e-06
4.65554e-06
2.19351e-06
8.9194e-07
-1.15566e-06
-3.72584e-06
4.68251e-05
-0.000468804
0.000691014
0.000100973
-0.00105526
0.00153141
0.00236799
-0.00317956
0.00472844
-0.00617792
-0.000136466
-0.00356448
7.83597e-05
0.00269819
-8.86503e-05
-0.00175165
2.54785e-05
0.00129705
-0.000225124
-0.000158157
-0.00140532
-0.000114177
0.00182051
-0.00210951
2.09643e-05
-0.00480602
-2.33733e-05
0.00650284
-0.00569794
2.21563e-05
-0.00765943
2.22201e-05
-0.00987562
-1.85491e-05
-0.0124999
-3.97547e-05
0.0154198
-0.0160217
-1.84404e-05
0.0188456
-4.1062e-05
-0.0185329
0.0184616
-5.71767e-05
-0.015603
0.0157819
-0.0187003
-1.02004e-05
2.03468e-05
0.000107597
6.95616e-05
2.56497e-05
5.00123e-06
-1.82822e-06
-2.99603e-06
-2.98539e-05
-5.33395e-05
-0.000111084
-0.00013871
-0.000174952
-0.00022068
-0.00221115
0.00306989
0.000370748
-0.00429777
0.00558714
0.00866065
-0.0111389
0.0145105
-0.018333
0.000240253
-0.0128414
0.00126954
0.0091158
-0.0001414
-0.00686093
0.000289261
0.00518735
-0.000694071
-0.000397521
-0.0050529
-0.000160896
0.00650926
-0.00720371
0.000115107
-0.0145387
5.25055e-05
0.0182249
-0.0155887
-3.45742e-05
0.0187029
0.000119065
-0.0213506
0.0125561
2.03778e-05
-0.0118835
0.0102101
-0.0144374
0.000293346
-0.00292427
-0.00143814
-0.00237309
-0.00389669
0.0139721
-0.0233373
0.00493761
-0.0061259
-0.00283245
-0.00146147
-0.000789849
-0.000418155
-0.000207481
-8.81739e-05
-7.04574e-06
0.000163745
6.69857e-05
-3.42232e-05
2.36064e-05
5.87013e-06
9.90841e-05
-9.07719e-05
7.42788e-05
-5.03813e-06
-5.10488e-05
1.03426e-06
0.000114135
-0.000113499
-1.74392e-06
-0.000165834
-2.87651e-07
-0.00025554
-2.46253e-08
-0.000404405
4.31307e-06
0.00062771
-0.000637955
-6.71632e-07
-0.000934695
3.67732e-05
0.00140107
9.21403e-06
3.7741e-06
0.000992077
3.46535e-06
0.000420759
-5.45292e-07
-1.33283e-06
-2.37703e-06
-6.03497e-06
-7.33243e-07
5.03761e-05
2.10854e-06
4.20623e-07
1.83553e-05
3.27669e-05
-8.89979e-05
-1.48537e-05
-0.000183149
2.57938e-07
-0.000477341
-9.48668e-06
0.000710092
-0.000637551
-4.67612e-07
-0.000981589
5.18443e-07
-0.00143241
1.18775e-06
-0.00208095
9.02512e-06
0.00296597
-0.00303682
-9.97225e-06
0.00426177
-2.62984e-06
2.97913e-06
0.00214818
-3.05248e-07
7.60679e-06
1.66472e-06
-2.55237e-06
0.000406777
-3.99507e-06
0.0001614
9.35849e-06
-1.7964e-05
0.000165463
-1.29072e-05
1.61561e-05
-5.37457e-05
0.000287109
-4.10587e-05
-7.40953e-05
-0.000648488
-6.47363e-05
-0.00101232
6.0149e-06
-0.00242078
-2.25367e-05
0.00338879
-0.00299833
1.03383e-05
-0.00421821
1.02232e-05
-0.00567338
-1.55237e-06
-0.00753598
-5.14508e-06
0.00979635
-0.0101195
-4.80141e-05
0.012787
-2.45464e-05
-3.11851e-07
1.15069e-05
1.46885e-05
2.73011e-05
1.93542e-05
1.17007e-05
5.73045e-06
4.88974e-06
4.79506e-06
9.06554e-06
9.24958e-06
6.2693e-05
0.000124808
0.000219488
9.63282e-06
2.50333e-05
1.60614e-05
1.44458e-05
8.81436e-06
4.20433e-06
4.21262e-06
-4.13732e-05
-0.000312253
2.78266e-05
-0.000304976
0.000529375
6.86936e-05
-0.000746725
-0.000765601
0.000539164
0.000503235
6.73598e-05
-0.00071397
-0.000816232
0.000571073
-0.000329634
2.71184e-05
-0.000295233
0.000217001
0.00022896
0.000225838
0.000219219
2.76568e-05
-0.000323053
-0.000302027
-4.14248e-05
0.000511053
6.81928e-05
-0.000799717
-0.000731985
-9.11951e-05
0.00113518
0.000148335
-0.00177934
-0.00161671
-0.00165732
-0.00169935
0.000150924
0.00117665
0.00120071
-9.07392e-05
0.00111539
0.000147675
-0.00157618
-0.00181571
0.00127688
-9.42072e-05
-0.000675077
-0.00100883
5.1317e-05
0.00045699
-4.33985e-05
-0.000282174
-0.000411485
2.17723e-05
0.000200976
0.000242172
-0.000114753
1.39877e-05
-0.00011184
-2.61416e-05
-0.000113818
1.3961e-05
-0.000111617
-2.61303e-05
-0.000113859
1.42459e-05
-0.000112715
0.000238843
0.000202366
-2.72943e-05
-2.30375e-05
3.83747e-05
-5.3972e-05
-4.64681e-05
-4.73852e-05
-5.33125e-05
-5.06524e-05
-5.11256e-05
-4.84997e-05
-5.52396e-05
-8.14904e-05
-5.28679e-05
-4.77409e-05
-4.64735e-05
-3.0961e-05
-1.03739e-05
-1.40412e-05
3.5091e-05
-3.85721e-05
0.000110008
0.000111764
0.000111033
0.000110411
0.000115061
0.00010339
-3.64633e-05
3.04012e-05
-1.0227e-05
-3.08959e-05
-1.41372e-05
3.21897e-05
9.40844e-06
2.64263e-05
2.69527e-05
6.41001e-05
0.000127363
1.3916e-07
-0.000182628
0.0024687
0.000283336
-0.00334294
-0.00342852
-0.00317002
-0.00366726
0.000275556
0.00229425
0.00263337
-0.00018774
-0.00147997
-0.0022285
0.00011155
0.00101751
0.00153042
-2.20699e-05
0.000113758
-0.000253408
5.67372e-05
0.000250283
-0.000516936
0.00010415
0.000511281
-0.000953341
0.000207161
0.00106836
-0.00150311
0.000621728
0.00268683
0.000149932
0.00186735
-0.000609869
0.000952448
-0.000469228
0.000550437
-0.000277656
0.000305453
-0.000147039
0.00015253
2.58614e-05
-0.000116022
0.000680019
-7.82262e-06
4.36073e-05
-5.61544e-05
6.7257e-06
5.20946e-05
-7.69741e-05
-5.30096e-05
7.64158e-06
1.4266e-06
-0.000149724
1.39082e-05
-0.000105692
-2.7337e-05
-2.28447e-05
4.12037e-05
-4.19986e-05
-5.27546e-05
-5.55658e-05
-4.58661e-05
-1.64082e-05
-4.11004e-05
-1.34275e-05
-2.0875e-05
-9.47648e-05
1.33945e-05
0.000135052
0.000103313
0.000115944
-3.64776e-05
-8.44194e-05
-5.38669e-05
3.88838e-05
0.000130669
0.00013563
0.000290183
0.000554119
0.000977969
0.000206798
-0.00296555
-0.0044992
0.00317865
0.00210818
-0.00029704
-0.000148838
-6.43133e-05
-5.70867e-05
0.000267214
0.000495482
0.000853552
-0.000525702
-0.000338099
0.00497544
0.000456772
-0.00582026
-0.00677561
-0.00541395
-0.00837681
0.000337593
0.00403467
0.00607144
-6.55055e-05
0.000100722
4.10324e-05
2.5348e-05
5.18547e-05
9.59434e-05
-0.00751262
0.00671144
-0.00880544
0.000128829
0.000272535
0.000172325
0.000151785
2.79288e-05
-4.78284e-06
0.00555302
3.18544e-05
-3.99932e-06
0.00971149
0.000206446
-6.12837e-06
0.000344263
0.000479464
-7.68178e-05
9.95776e-06
2.92684e-05
1.36338e-05
1.95239e-05
-1.43771e-05
2.6746e-05
1.82328e-05
2.50152e-05
-2.58981e-06
1.50415e-05
1.29572e-05
1.3316e-06
-1.28834e-06
-4.47008e-07
-2.95045e-06
3.16029e-06
0.000202054
0.000355354
0.000181307
0.000143096
0.000144032
0.000159629
6.15204e-05
6.15964e-05
2.1493e-05
3.3305e-05
9.27496e-05
8.22666e-05
0.000288692
0.000285678
0.000494072
0.000499952
0.000564321
0.000716356
0.000714068
0.000926549
0.000617895
-0.00769355
0.00921659
0.0010496
-0.01227
0.0010763
0.000824459
-0.00177096
-0.00253317
-0.0209509
-0.0225703
-0.0380486
0.00966819
0.00305199
0.0173539
-0.00634762
0.0104162
-0.00113667
-0.0116516
0.0106111
-0.000232617
0.00700261
-0.000259335
0.0099685
-0.0109378
-0.000877317
-0.000270005
-0.000316074
0.000137739
-0.00110598
0.00724582
-0.000293917
0.000457418
0.000216185
9.82287e-05
0.00012697
4.89439e-05
4.39979e-05
-0.000203034
-0.000200844
-0.000203982
-4.69599e-05
0.000324743
1.97258e-05
-8.01553e-05
-7.9253e-05
0.00292214
-0.00404577
5.69883e-05
-0.00875146
-2.38411e-06
0.0114454
-0.0098974
2.56747e-05
-0.0126706
2.66433e-05
0.0125413
-1.68019e-06
7.27236e-06
1.07849e-05
2.35674e-05
7.52729e-05
0.000639134
0.000117354
3.44365e-05
1.20454e-05
2.00007e-06
2.60203e-06
3.57823e-06
1.76151e-06
7.42831e-07
0.00040955
4.87325e-07
0.000634771
-8.65476e-08
0.00025564
0.000161283
5.23775e-08
0.000107579
5.0854e-05
1.30841e-06
8.28584e-09
-2.1602e-07
2.05663e-06
-2.04127e-07
0.000963976
3.11225e-05
-0.000111203
0.000861237
-8.45267e-05
6.19851e-05
-0.000205951
0.00146401
-0.000144015
-0.000275237
-0.00278313
-0.000163761
0.00357972
-0.000348674
-0.000223536
0.000212571
0.000119116
6.98049e-06
0.00209914
5.99514e-06
0.00210249
1.89669e-05
2.89924e-05
0.00418815
1.49999e-05
0.00575734
3.51262e-05
8.93107e-05
0.00764711
-0.000594279
0.00534174
-0.000432561
-0.000612647
-0.00868156
-8.15403e-08
0.00884987
-0.00118212
0.00029666
-9.38428e-05
-0.00192133
-0.00530513
-0.00013029
-0.000837721
-0.000345733
0.000211397
0.000209373
0.0127123
4.26828e-05
4.06232e-06
-4.28323e-05
-7.81903e-05
-0.000314599
-9.58027e-06
4.37298e-05
3.1209e-05
0.0100252
0.00759068
-7.6147e-06
-1.17331e-06
-3.07075e-05
-8.6784e-05
-0.000124722
-0.000559751
-0.000184626
-0.000162137
-7.00627e-05
-2.15373e-05
0.00773339
-1.65443e-05
7.16784e-06
1.02717e-05
0.000153407
7.69973e-05
3.31325e-05
-3.37681e-06
2.53928e-06
0.000273746
0.000446506
0.000705539
-4.41896e-05
0.000306123
0.00022738
-0.000454165
0.00224169
0.00522335
-0.00350278
0.0223446
0.00254937
0.00175711
0.000955816
0.00138873
0.00123768
0.000837215
0.0004913
0.00026511
0.000129411
0.000130794
3.92295e-05
-2.01835e-05
-2.02755e-05
-8.14174e-05
-3.85697e-05
-8.42194e-05
-4.20583e-05
4.05171e-05
0.00013403
-6.47436e-05
-4.35718e-05
0.000462771
0.000561528
6.24517e-05
4.02958e-06
4.64179e-06
2.91455e-06
4.369e-06
6.17544e-06
1.25677e-05
1.90036e-06
3.3057e-05
0.000139789
1.69351e-05
3.15467e-05
7.82253e-06
3.66395e-06
8.04853e-06
7.37727e-06
1.09367e-05
1.24109e-05
-1.38346e-06
0.000123693
0.000216402
0.000223443
0.000349581
-5.77673e-05
-0.000555807
-0.00632861
0.000478182
-0.00615648
0.00771849
0.000768789
-0.0103755
-0.0107327
0.00793985
0.00743235
0.000703567
-0.00977815
-0.011506
0.00852015
-0.000563054
0.00710418
0.0106111
-4.02031e-05
9.83441e-05
-0.000851131
0.0015876
0.00233805
0.00303236
0.00498953
0.00519496
0.0124401
0.0290911
0.00417274
0.015292
0.0226804
-0.0022343
-0.00131375
0.00163019
0.0013101
-0.000768759
-0.000476879
0.00433427
0.00464899
0.00454234
0.00440358
0.000469598
-0.00661339
-0.00601137
-0.000562334
0.00755306
0.000765781
-0.0111493
-0.0102284
-0.000880081
0.0116196
0.0123919
0.0109926
-0.000863172
-0.000136494
-0.000204792
-1.07977e-05
1.82471e-05
8.21352e-05
1.7634e-05
1.80615e-05
-2.63381e-05
-1.05283e-05
-0.000206062
0.0020925
-0.000238278
-0.000142109
-0.000313248
-0.000297049
-0.000186754
-0.000314256
-0.000142898
0.00548076
-0.000178888
9.121e-05
2.41709e-05
1.02146e-05
0.000192802
0.000168313
-0.00260276
0.0126901
-0.00693344
-0.0238414
-0.0272034
0.00246304
-0.0131148
0.00562276
0.00184214
-0.0081421
-0.00914915
-0.000869033
-0.00127229
0.00834493
0.00776084
-0.000795741
-0.00763311
-0.000172041
0.00754684
-1.80988e-05
7.20879e-05
-2.65789e-06
6.87831e-05
0.00027259
0.000282544
0.000179567
4.1708e-05
2.65326e-05
-4.55371e-05
-4.47068e-05
3.91336e-06
-6.65762e-05
-1.83544e-05
-2.89099e-06
0.000339516
0.000482876
0.000486453
-0.000189804
0.000625122
0.000509091
-0.000145182
0.0177125
-0.000973759
0.00126163
-0.0196391
0.0005399
0.000254706
0.0030289
0.000361422