/*--------------------------------*- C++ -*----------------------------------*\
| =========                 |                                                 |
| \\      /  F ield         | OpenFOAM: The Open Source CFD Toolbox           |
|  \\    /   O peration     | Version:  2306                                  |
|   \\  /    A nd           | Website:  www.openfoam.com                      |
|    \\/     M anipulation  |                                                 |
\*---------------------------------------------------------------------------*/
FoamFile
{
    version     2.0;
    format      ascii;
    arch        "LSB;label=32;scalar=64";
    class       volScalarField;
    location    "1";
    object      gradTy;
}
// * * * * * * * * * * * * * * * * * * * * * * * * * * * * * * * * * * * * * //

dimensions      [0 -1 0 1 0 0 0];

internalField   nonuniform List<scalar> 
5322
(
0.0438721
0.00582281
0.00198735
0.00142388
0.00165139
0.00136203
0.000899591
0.000520642
0.000275141
0.00013039
3.92183e-05
-5.0779e-05
-3.95491e-05
-3.84143e-05
-3.82267e-05
9.93531e-05
0.000125851
-2.18998e-06
0.000123095
-0.000248525
0.000333293
-0.000578345
0.000785657
-0.0013062
0.00176287
-0.00265774
0.00345073
-0.0051322
0.00646718
-0.00882086
0.0107871
-0.0141402
0.0171961
-0.0182773
0.0194951
-0.0118709
0.024141
0.0289726
0.0147465
0.0168601
0.0214218
0.018048
0.0196546
0.0200351
0.0191128
0.020041
0.0194207
0.0207641
0.0204196
0.0184923
0.0234205
0.0100208
0.0120376
-0.0358363
-0.00163036
-0.0204813
0.0115852
-0.0265773
-0.00112661
-0.0230767
0.0117546
-0.0260985
-0.000997682
-0.0229116
0.0118124
-0.0271058
-0.0014343
-0.0222771
0.0120202
-0.0304967
0.000817659
0.0220538
0.0122
0.0171547
0.0127147
0.0161992
0.0134503
0.016165
0.0137772
0.0194886
0.0012197
0.00827788
0.0118959
0.0184209
-0.00101056
-0.00605028
0.00258963
0.00482404
0.0111062
0.00174447
0.00300259
0.000500331
6.17727e-05
5.32654e-05
0.0203966
-0.0123414
0.000413814
0.0124752
0.000407396
-0.000891581
0.00264598
0.000441167
0.0134252
-0.0198208
0.0178004
0.000538089
-0.000445128
-4.7345e-05
1.48511e-05
3.80972e-05
3.16115e-05
2.06092e-05
1.18766e-05
5.83641e-06
2.31604e-06
1.40874e-06
3.58667e-05
-1.01607e-05
-6.5253e-06
-2.18148e-05
3.03149e-05
-1.03526e-05
-2.39025e-05
-3.55137e-05
-3.85407e-05
-1.12864e-06
3.09258e-05
-2.17735e-05
2.58358e-06
2.50234e-05
-2.44554e-05
1.13876e-06
2.56884e-05
-2.66298e-05
-1.2009e-06
2.34163e-05
-2.88594e-05
-2.76628e-06
-9.44163e-06
4.46955e-05
3.52802e-05
-2.91841e-05
1.72338e-05
1.34148e-05
-3.47492e-05
5.88477e-06
-3.0944e-05
2.27601e-05
2.56245e-05
-2.93473e-05
-6.06579e-07
-2.47076e-05
2.53403e-05
3.02368e-05
-2.49597e-05
2.62235e-07
-2.16821e-05
3.08678e-05
2.7388e-07
1.41201e-06
0.000111678
-8.38125e-05
0.000139908
-0.000225622
1.55381e-05
-7.89082e-05
7.26467e-06
1.5493e-05
-4.35627e-06
2.50108e-05
-4.86483e-05
4.96552e-05
-0.000105407
8.23161e-07
0.00010936
-0.00015904
0.000166452
-0.000256663
2.30016e-06
0.000256128
-0.000404442
0.000421845
-0.000638907
4.82516e-06
0.000631643
-0.000959403
0.00099727
-0.00145909
9.24523e-06
0.00143955
-0.00209291
0.00217103
-0.0030509
1.74254e-05
0.00300605
-0.00419752
0.0043479
-0.00584615
3.19927e-05
0.00574754
-0.00774147
0.00800712
-0.0102416
5.2638e-05
0.0100242
-0.0130625
0.0134805
-0.0161277
8.2872e-05
0.0156736
-0.01989
0.0200417
-0.0123942
-0.000103968
-0.00165044
0.000854868
-0.000460051
-2.31362e-05
0.000101176
0.000178097
1.7665e-05
0.0204176
-0.0123376
4.28802e-05
0.0148991
-0.00242975
-0.00120301
0.00107155
-0.000897905
0.0123848
-0.0201163
0.000127938
8.45928e-05
0.000249115
0.000118181
3.74425e-05
3.9465e-06
-5.36603e-06
-5.80071e-06
-3.59513e-06
-1.37048e-06
-1.05611e-06
-2.78736e-05
-3.05557e-05
-3.07629e-05
-2.7715e-05
8.65176e-06
6.18333e-06
1.89198e-06
-3.42912e-05
1.20946e-05
-3.07679e-05
6.02027e-06
8.67423e-06
2.08053e-06
-3.031e-05
7.63093e-06
2.76859e-05
1.58029e-05
-3.43338e-05
1.21815e-05
3.0179e-05
4.25361e-05
4.89208e-05
-0.000109147
-0.00010916
-0.000116169
0.000125374
-0.00023081
0.000331274
-0.000542623
0.000797961
-0.00121869
0.00175627
-0.00254823
0.00352927
-0.00494569
0.00647759
-0.0088884
0.0108635
-0.014584
0.016416
-0.00256026
0.0115151
-0.00128635
0.000773681
0.014219
-0.0134115
0.00103774
0.0098484
-0.00840173
0.00063722
0.005996
-0.00471048
0.000371674
0.00329676
-0.00242665
0.000201642
0.0016437
-0.00115921
9.9804e-05
0.0007429
-0.000515829
4.53678e-05
0.000303368
-0.000219532
2.75316e-05
0.000109837
-1.28806e-05
0.000109979
-0.000219135
2.75737e-05
0.000125824
-0.00011593
3.95434e-05
5.73396e-05
3.86103e-05
3.92732e-05
-0.000101669
9.92599e-05
-0.000206375
0.000291047
-0.000484935
0.000723057
-0.00109502
0.00160678
-0.00230313
0.00323341
-0.00450701
0.00593714
-0.00812725
0.00993532
-0.0129422
0.0145175
-0.00120954
0.0087338
-0.00572859
0.00108256
0.0201683
-0.0188578
0.00124355
0.0144482
-0.0113967
0.000711399
0.00868717
-0.00621388
0.000392613
0.00472249
-0.003166
0.000209556
0.00236245
-0.00150069
0.000103217
0.00108462
-0.00065896
4.75311e-05
0.000454833
-0.000275839
2.87908e-05
0.000168974
-0.000124466
3.87147e-05
8.02301e-05
6.76626e-05
-3.32644e-05
9.70619e-05
-2.09699e-05
6.14577e-06
0.000100001
-9.08538e-05
0.000121487
-0.000182505
0.000289438
-0.000261894
-4.37414e-06
-0.000190576
0.000161821
-0.00011376
1.29623e-06
0.000114471
2.89204e-06
-3.12178e-06
-2.65745e-05
1.944e-06
-2.15862e-06
1.21185e-06
-1.94506e-06
-1.45148e-06
0.000108054
-0.000108989
0.00016172
-0.000255863
7.87021e-07
0.000411237
-0.000631256
0.000976254
-0.00143762
6.93155e-06
0.00213235
-0.00299926
0.00428265
-0.00573071
2.42654e-05
0.00790094
-0.00999704
0.0132842
-0.0156787
-3.40409e-05
2.62891e-05
4.29622e-05
0.000126775
5.46773e-05
6.29026e-05
0.00799825
-0.0100049
3.9357e-05
0.0119174
-0.0152323
0.0135822
-0.0155377
0.000135758
0.0190192
-0.0223876
0.0144568
-0.0114471
-0.0228584
-0.00185224
0.000179048
-0.00816533
-0.00224274
0.00022677
0.010575
0.0125149
0.000739485
-0.0149064
0.00916718
-8.15588e-05
-0.00723223
0.00520191
-0.000139855
-0.00363822
0.00272552
-8.18043e-05
-0.00173042
0.00130195
-5.31722e-05
-0.00078481
0.000592692
-3.0393e-05
-0.00031174
0.000251275
-2.14905e-05
-0.000116754
1.7311e-05
3.56626e-05
-8.30281e-05
-1.39774e-05
0.00016698
-0.000264891
0.00028959
-0.000448605
0.000684887
-0.0010215
0.00163924
-0.00145254
-1.31372e-05
-0.00112494
0.000972724
-0.000640314
-8.8067e-06
0.000715631
3.60648e-06
-2.82663e-05
-1.27557e-05
-1.58746e-05
-8.24876e-05
-2.16603e-05
-4.50564e-06
-7.31472e-06
1.6891e-05
9.69083e-06
2.64597e-06
-5.09281e-06
7.48968e-05
2.34449e-05
2.18504e-06
2.0669e-05
-1.41424e-05
-4.66834e-05
-3.78639e-05
3.30986e-05
7.00597e-05
-7.66206e-05
-0.000107572
-0.000648394
-6.11934e-05
0.000871193
-0.00143708
0.00149638
-0.00212995
0.0030295
-0.0040813
0.00668072
-0.00576087
-5.7515e-06
-0.00488744
0.00430361
-0.00302263
-1.50415e-05
0.00344907
3.52891e-05
-7.20391e-05
-4.98662e-05
2.49492e-05
-0.000423981
-0.000216959
-0.00015284
-0.000203406
-9.42951e-05
-6.76927e-05
0.000386427
-2.88807e-05
-9.23399e-06
8.48399e-05
-0.000125618
-3.75857e-05
5.18166e-05
9.27693e-05
0.000163469
-4.52183e-06
-9.09227e-07
3.42497e-05
2.10038e-05
-0.000230139
-2.82542e-05
0.000333195
0.000303533
-0.000514254
4.55434e-05
-0.000542724
-6.64664e-05
0.000801852
0.00074424
-0.00115493
0.000100437
-0.00122414
-0.000131731
0.00175971
0.00165061
-0.00241829
0.000203385
-0.00257097
-0.00019633
0.00352004
0.0033232
-0.00470204
0.000376557
-0.0050162
-0.000108859
0.00639237
0.00609194
-0.00843368
0.000649537
-0.0090377
0.000675175
0.010438
0.010167
-0.0136737
0.00105951
-0.0146112
0.00378632
0.0150687
0.0150651
-0.00178569
0.000782169
-0.00226447
0.0532696
-0.0270632
-0.0280685
0.0399887
0.0105976
0.00353511
-0.0289607
-0.00713966
-0.00438824
0.0113718
-0.0120002
-0.000232807
0.000695018
-0.00266249
-0.00287944
-0.000642712
0.000746782
0.000355881
-0.000205197
-0.000415423
-0.000138065
0.000154249
3.85888e-05
1.43581e-05
4.10778e-06
-4.23335e-07
-2.01815e-06
-5.66942e-06
-2.41633e-06
5.05383e-05
-5.09916e-05
-5.62456e-07
1.43295e-07
-5.23421e-05
5.12632e-05
-3.38956e-07
2.24686e-08
-2.48852e-07
-3.98699e-06
-2.65547e-06
9.07015e-06
-5.10074e-07
1.04097e-05
-3.95246e-06
-4.84301e-06
-8.5782e-07
1.82087e-05
-2.28646e-05
2.35359e-05
-1.75219e-05
-1.79835e-05
-1.39964e-05
1.33695e-06
2.35294e-05
1.97772e-05
-1.92312e-05
-7.73691e-07
-2.31481e-05
1.92264e-07
4.58976e-07
-1.47715e-06
-8.78597e-06
-8.59889e-06
-1.5189e-05
-2.51093e-05
-5.74877e-05
-0.000107301
-0.00016301
-0.000162403
-6.88038e-05
0.000546429
-0.00165681
-0.000764653
-0.00031692
0.00381272
-0.00515214
0.00566318
-0.00732487
0.00967664
-0.000534161
-0.00928392
-0.000675755
0.00727834
-0.000282342
-0.000959814
0.000147003
9.48771e-05
0.000211949
0.000263149
-0.000258141
-0.00299058
0.0103505
-0.00507533
-0.0162654
-0.00271723
-0.00363506
-0.0414354
-0.0118507
0.00155543
-0.017825
0.0127779
0.000670147
0.000532013
0.0154141
0.0128944
0.00159625
-0.00148916
0.0168676
0.0151844
0.00167632
-0.00177712
0.015371
0.0172577
0.00156782
-0.00395115
0.0128556
0.0174275
-0.00629286
0.0104933
-0.00907415
0.00973514
-0.0380103
-0.0204826
0.00313511
-0.00939616
0.0171094
-0.0010854
-0.0275834
0.0164902
-0.00029257
-0.0193885
-0.0193531
-0.0276662
0.00846681
-0.0141871
-0.00971331
0.0142856
-0.02318
-0.00386888
0.0138545
-0.0127247
-0.00136823
0.00903636
-0.00679346
-0.000683539
0.005143
-0.00353004
-0.000402868
0.00267495
-0.00173616
-0.000222033
0.00128611
-0.000790448
-0.000104857
0.000573324
-0.000331713
-3.45414e-05
0.000246294
-0.000123847
1.40447e-05
9.64887e-05
-3.45476e-05
6.701e-05
7.98254e-05
-0.000125404
0.000168603
-0.000278497
2.90056e-05
9.88656e-05
-0.000101815
3.85646e-05
3.89618e-05
3.88217e-05
5.72217e-05
4.8781e-05
3.94778e-05
8.0705e-05
5.17642e-05
-3.91567e-05
-0.00012744
-0.000267585
-0.000271599
-0.000543724
-0.00106464
-0.000830914
-0.000418552
-0.00026332
0.00187917
-0.00280422
-0.000189282
-0.000112172
-0.000207021
1.45715e-05
-0.00244279
0.00213283
9.27548e-06
0.00146445
-0.00214077
1.2075e-05
0.00306841
-0.00428444
3.28759e-05
0.00588811
-0.00788162
7.27288e-05
0.010303
-0.0132444
0.000108445
0.0160724
0.000133277
0.000338552
8.95041e-07
-3.61818e-05
-6.98367e-05
8.08628e-06
2.02243e-05
1.27828e-05
5.98719e-06
2.1185e-06
5.20246e-07
1.41554e-07
3.69483e-07
1.3913e-06
-4.97614e-05
1.42034e-06
3.74386e-06
-1.80816e-07
-1.91558e-06
-5.03576e-06
-1.11325e-05
-2.51031e-05
-5.70173e-05
-0.000120402
-0.000165885
0.000702533
-0.000219949
-0.000566796
-0.000785982
0.0150192
-0.0161053
0.0183982
1.13898e-05
-0.00261691
0.00216679
0.00658722
1.35194e-05
-0.00595785
0.0055511
0.00565412
-3.39527e-06
-0.00633359
0.00589136
0.00509697
-1.41821e-05
-0.00800912
0.00758435
0.00718186
-0.000165328
0.0105833
-0.0111277
0.0108623
-0.0116316
-0.00108785
-0.00559726
0.00788566
-0.000724711
-0.00762779
-0.000184387
-5.39339e-05
0.0259717
-7.99208e-05
-0.0261434
0.0170579
-0.000616832
-0.017646
0.0177048
-0.000390689
-0.0185357
0.0263254
-0.000255156
-0.0263416
0.0218413
-0.0217779
0.0216194
-0.0221694
0.000123679
-0.0260408
0.0257669
-1.8309e-05
-0.0177104
-0.000698204
0.0178397
-0.0152712
6.20736e-05
0.0272414
0.00992552
0.0255104
0.00952001
-0.010133
0.0144574
0.00215892
-0.00954542
0.00894755
0.000866801
-0.00618651
0.00521139
0.000524746
-0.00353651
0.00288737
0.000296466
-0.00183146
0.00142637
0.000165802
-0.000880042
0.00066939
6.89061e-05
-0.000385994
0.000269622
1.47096e-05
-0.000168385
8.94042e-05
-3.33527e-05
-9.96835e-05
-2.3368e-05
-7.43215e-05
5.11611e-05
5.15588e-06
2.80511e-06
2.88056e-05
9.60643e-06
-4.46493e-05
-3.50191e-05
-7.4347e-06
-2.7863e-05
-1.59088e-05
-1.1556e-05
-3.10507e-05
-1.28741e-05
-1.39487e-05
-3.0674e-05
-4.54834e-05
-5.15113e-05
-3.8807e-05
0.000116495
1.32592e-05
-9.98729e-05
-2.65166e-05
0.000205825
0.0002413
2.77818e-05
-0.000275712
-4.53373e-05
0.000467874
0.000671
-1.84071e-06
-0.00108707
4.89379e-05
0.00151658
-1.90757e-05
-0.0023655
9.66247e-05
0.00315825
-4.73398e-05
-0.00471812
0.000135372
0.00603098
-9.03986e-05
-0.00862033
0.000215595
0.0105366
-0.000183866
-0.0144705
0.000157968
0.0166616
-0.000462218
-0.0223569
-0.00049291
0.000707335
-0.0134464
0.0219872
0.000119873
0.0115984
0.000437732
-0.00892432
0.0146754
-4.31817e-05
0.00711296
0.000314562
-0.0053744
0.00883555
-2.94023e-05
0.00406178
0.000202789
-0.00293686
0.00486406
-1.17348e-05
0.00212763
0.00012495
-0.00147596
0.00245162
-4.04214e-06
0.00102545
6.52812e-05
-0.000677088
0.00113359
-4.60922e-07
0.000450298
3.20398e-05
-0.00028827
0.000482377
-2.76931e-07
0.000184818
1.47521e-05
-0.000120915
0.000192482
-2.42644e-06
9.12922e-05
-5.75869e-06
2.10956e-05
-7.96817e-05
-6.66101e-05
3.41688e-05
-9.68036e-05
-1.45854e-05
7.21419e-06
-0.000162783
-9.2372e-05
-8.08904e-05
-4.69028e-05
-3.90028e-05
0.000104076
0.000119118
1.50617e-05
-9.42487e-05
-2.80544e-05
0.000281526
7.20436e-06
-0.000455888
2.95519e-05
-8.02204e-05
-3.2579e-05
-2.02799e-05
-0.000131053
9.04379e-06
3.03727e-05
-1.17372e-06
-8.0059e-06
-6.57973e-06
3.47112e-05
-1.00888e-05
4.72506e-06
4.12202e-06
1.95804e-07
3.29976e-07
2.86371e-07
6.48121e-07
5.01887e-07
1.26494e-06
-1.60746e-06
-7.61242e-07
0.000408526
-0.000477823
1.26116e-06
-1.64037e-06
-3.84176e-06
6.79634e-08
-0.000165651
-7.71458e-08
0.000257181
-0.000416829
6.81166e-07
0.000640039
-0.00098409
3.53154e-06
2.49916e-06
-1.31084e-06
2.03606e-06
2.83348e-06
1.7209e-05
2.66165e-05
1.74402e-05
8.10288e-06
3.35286e-06
2.55736e-06
7.66397e-06
3.73894e-06
8.22992e-07
0.000254441
-0.000394003
0.000357095
-0.000550729
0.000844002
-0.00125032
3.51219e-05
-0.000351983
3.4378e-05
0.000334297
2.42902e-05
-0.000156206
1.61987e-05
0.000127109
-3.55011e-06
6.23885e-06
4.48194e-05
-9.39903e-06
-0.000120134
0.000686248
4.9297e-05
-0.000659583
-9.51455e-05
0.000991238
0.00131228
0.000143451
-0.00149518
-0.000184694
0.00217015
0.00263162
0.000272949
-0.00302115
-0.00034026
0.00408366
0.00500272
0.000436985
-0.00564675
-0.000565397
0.00693215
-0.00955931
-0.000839154
0.010431
-0.015005
-0.000512361
-0.000576917
-0.00010627
-1.61951e-05
2.17377e-05
2.41694e-05
1.75276e-05
1.07692e-05
5.51918e-06
2.12257e-06
1.33051e-06
2.8069e-05
3.0844e-05
3.10658e-05
-4.5333e-06
3.12847e-05
9.49053e-06
9.06519e-06
3.23751e-05
-3.22678e-06
3.48445e-05
-9.79498e-06
1.81779e-06
-1.98886e-06
2.86456e-06
-4.17577e-07
3.07792e-06
1.12227e-06
-0.000155864
1.17969e-05
5.38549e-06
2.74228e-06
5.69983e-07
2.03012e-07
-1.93703e-05
1.98372e-05
1.35953e-06
-1.43743e-05
2.77019e-05
-7.75642e-06
3.15556e-06
2.59364e-05
1.20937e-05
1.68119e-06
3.34767e-05
-0.000150681
1.34392e-05
-0.000103697
-2.76176e-05
0.000196793
0.000247933
2.57155e-05
-0.0002803
-4.21904e-05
0.000571393
6.60329e-05
-0.000673638
-9.36892e-05
0.0010585
0.0012797
0.0001406
-0.00151887
-0.000192538
0.00215342
-0.00306393
-0.000346845
0.00406076
0.000319113
0.000206042
0.000118661
6.04891e-05
2.60488e-05
3.0806e-06
2.18975e-06
1.15749e-06
2.95468e-06
1.27652e-06
-9.78236e-07
-3.72322e-06
-2.08116e-06
-1.50143e-06
-3.62591e-06
-2.54662e-05
-2.57207e-05
-6.00687e-05
-6.41337e-05
-0.000114112
-0.000133246
-0.000524422
-0.00101245
-0.00194816
-0.00210541
-0.00422621
-0.00364661
-0.00206003
-0.0082294
-0.02472
0.00126285
-0.0398316
-0.0298873
-0.02306
-0.0154051
-0.0134645
0.00501
-0.011813
-0.00049963
0.00310879
0.000419677
-6.08282e-05
0.0146095
-0.0168387
0.0187401
0.00017121
-0.00235049
0.00351488
0.0076436
0.000258369
-0.00537759
0.00715362
0.00712867
0.000263943
-0.00574394
0.0073631
0.00670713
0.000191981
-0.00770345
0.00842024
-0.000370818
0.000346794
0.000363127
0.00300596
-0.0126272
-0.0181058
0.00107761
0.0143552
0.000260079
2.0444e-05
0.00896207
0.000129975
-0.0146408
0.0183878
4.00566e-05
-0.0214769
0.0127151
-0.0119682
0.0103214
-0.00236374
-0.0145467
0.00033218
-0.0182905
0.0248023
-0.0216986
0.0188768
-2.50596e-05
-0.0188911
2.53459e-05
0.0187049
-5.80349e-05
-0.0187981
8.84314e-06
0.0188782
-7.45768e-05
-0.0189494
0.0220888
-0.0252599
0.00188556
-0.0208272
0.0288037
0.00157334
0.000906211
-0.00980967
0.0103782
-0.0107718
4.36192e-05
-0.00764871
0.00703695
0.000500871
-0.00876029
0.00636029
-0.00757315
0.000736247
0.0151695
-0.00818175
0.0047778
0.000952092
-0.00890918
0.00704267
-0.000163589
-0.000128645
-1.14362e-05
0.000206345
8.92198e-05
2.22489e-05
-2.51416e-06
-7.69147e-06
-6.48166e-06
-3.74439e-06
-1.43044e-06
-1.03246e-06
1.45777e-05
1.83338e-05
-3.26476e-08
-4.13952e-06
-2.67112e-06
2.78417e-05
7.61023e-06
-2.90745e-05
1.347e-05
1.71267e-05
-3.11614e-05
-6.23545e-07
-2.88806e-05
-2.7374e-06
-9.55772e-06
-2.70045e-05
3.5319e-05
4.50824e-05
2.00181e-06
9.08382e-06
-2.30826e-06
1.13401e-06
2.2781e-05
-2.52556e-05
-4.03086e-07
-2.96442e-05
3.00256e-05
2.56773e-05
-2.23068e-05
2.73929e-07
-2.63824e-05
5.88197e-08
2.65378e-05
9.74853e-08
3.20737e-07
-2.09315e-06
-3.18858e-06
3.47254e-06
-8.36481e-06
0.00016331
9.25931e-05
5.08541e-05
-3.96873e-05
-0.000130431
-0.000277894
-0.000545431
-0.00103794
-0.00195591
-0.00372428
-0.00374972
-0.00761894
-0.00828162
-0.0181518
-0.0293272
-0.0266695
-0.0267767
0.0110164
-0.0150607
-0.008127
-0.00877679
-0.0251439
-0.029873
-0.0271163
-0.0271434
-0.0268754
-0.0269533
-0.0308782
0.0111617
-0.000983835
-0.00524406
0.0326482
-0.00876457
-0.0225655
-0.0206465
-0.00608821
-0.00738187
-0.0171176
-0.0176262
-0.00170658
-0.0034054
0.000817513
0.000921232
0.000631436
0.000360666
0.000186092
0.000142766
6.12513e-05
6.0141e-05
2.05636e-05
3.27913e-05
-9.08424e-05
-0.000212391
-0.000425826
-0.000800607
-0.00147339
-0.00283342
0.00110682
0.000859138
0.000800353
0.000716276
0.000496933
0.00028575
0.000282713
0.000140746
0.000179601
8.11781e-05
0.000289755
0.00045138
-0.000661324
0.00107459
-0.00149633
0.000102627
0.000717635
-0.000487152
4.76573e-05
-3.30429e-06
-2.45504e-05
-2.56955e-05
-0.000207374
-8.36784e-06
-3.0446e-05
1.59369e-05
-1.41058e-05
-2.1006e-06
-3.78697e-06
5.81828e-06
-3.48982e-05
2.55924e-05
-1.97053e-07
3.17332e-09
1.55187e-08
-3.7467e-08
1.47836e-05
-7.52627e-07
3.43555e-07
2.77818e-07
4.88651e-07
-8.87735e-06
3.05892e-07
4.11042e-06
2.70742e-06
3.54593e-06
-1.88568e-06
2.35358e-06
2.34146e-08
4.07821e-07
-8.89265e-06
3.51244e-05
3.14593e-05
-1.66965e-05
-5.40993e-06
-1.3403e-05
2.93656e-05
4.67522e-06
2.3286e-06
4.0943e-07
1.62375e-07
-1.56992e-06
-1.14769e-06
-1.85469e-06
-1.27373e-05
-3.42909e-06
-2.8469e-05
7.35569e-06
-5.68436e-05
-6.21929e-05
-0.000107885
-0.000128234
-0.0010968
0.00159045
0.00234021
-0.00313777
0.00467284
-0.00609454
0.000377058
0.00319005
-0.00229685
0.000205136
4.73642e-06
-5.09538e-05
2.95959e-05
-7.5157e-05
8.4267e-05
-0.000169217
-0.000203415
-0.000176573
-0.000207155
-0.000188223
-0.000154594
1.04418e-05
6.49489e-05
2.88545e-05
0.00270149
0.000128485
0.000112219
4.01354e-05
1.00443e-05
-4.27929e-07
-2.72363e-06
-1.39649e-06
-1.1311e-06
-6.54669e-06
2.6303e-06
3.08157e-07
-7.07119e-06
1.61555e-05
5.83331e-06
7.90791e-06
3.39012e-06
-1.20676e-07
5.03429e-06
4.89191e-06
1.11917e-06
2.81015e-06
6.36117e-06
1.28994e-05
4.24428e-07
5.16245e-05
2.05326e-05
3.16207e-05
0.000134845
5.11053e-05
0.000112974
0.000306449
0.000236091
0.000540273
-0.0024549
-0.00274992
-0.00042154
0.000385275
0.0005337
0.000244071
-0.00658624
-0.000169204
-9.28485e-05
-8.67092e-05
-0.000697128
-0.000219763
0.0158202
-0.000221257
-0.0190254
-0.000153509
-0.000785832
-0.0177192
-0.000823439
-0.000964635
-0.0121002
-0.00641012
-0.0103203
-0.0244769
0.00263361
0.00611001
0.000361716
-0.00034257
-0.000298355
-0.000532616
6.06681e-05
-0.0142087
0.018202
9.8969e-05
-0.00411324
0.00187736
0.00610983
4.00997e-05
-0.00768391
0.00489136
0.00493633
-9.56999e-06
-0.00790911
0.00521843
0.0043946
-5.80011e-05
-0.00729107
0.00180698
-0.0111996
0.00565451
0.00868376
-0.0103442
0.00299268
0.00117939
-0.000605023
-9.43085e-05
-1.20674e-05
2.70346e-05
2.74278e-05
1.92158e-05
1.15185e-05
5.57973e-06
4.02218e-06
6.40916e-06
2.09801e-05
0.000620978
-0.000936686
3.81914e-05
0.00140874
-0.0020459
0.0018342
-0.00261624
0.00366542
-0.00503566
9.25948e-05
-0.00163761
0.000108277
0.00155749
5.81514e-05
-0.00078544
6.5239e-05
0.000758846
1.79985e-05
5.52971e-05
0.000259674
-4.89225e-05
-0.000533307
0.00320812
0.000200528
-0.00289524
-0.000340627
0.0039301
0.00511748
0.000448921
-0.00552888
-0.000560135
0.00848486
0.000750728
-0.00944798
-0.000899154
0.0104213
0.0132982
0.000825971
-0.0178692
-0.00070784
-0.0148661
-0.0176562
0.000939964
0.0129157
0.0107125
-0.014596
-0.000649859
-0.000598747
0.00061876
0.00047718
0.000342889
0.000218201
0.000123809
6.19396e-05
3.10215e-05
6.08891e-05
1.33708e-05
7.91322e-07
2.12118e-05
-5.62543e-07
0.00293361
-0.00410544
0.000121576
0.00560431
-0.0075825
0.00675899
-0.0088835
0.0115589
-0.0140202
-0.000331803
-0.00524729
0.000113037
0.00531011
8.43935e-05
-0.00316841
0.00014573
0.00295502
2.43082e-05
0.000203932
0.00110378
-5.09484e-05
-0.00155547
0.0106993
0.000466991
-0.00875077
-0.000895
0.0109601
0.0132352
0.000832782
-0.0183958
-0.000625592
-0.0131753
-0.0237602
0.000305153
0.0164856
-0.00153283
0.00791563
-0.000311699
0.00519012
0.00495271
0.0024054
0.00151602
0.00962947
-0.00557944
-0.000181014
0.0013766
0.000737444
0.000449775
0.000274856
0.00015471
7.8103e-05
3.34686e-05
1.27386e-05
6.2617e-05
-3.83882e-05
-6.39574e-05
-1.64715e-05
1.32799e-05
-4.15133e-05
0.000136173
-4.60838e-05
-5.26961e-05
-5.52486e-05
-3.66288e-05
0.000102326
0.000118132
1.32775e-05
-0.000106408
-2.64999e-05
0.000241203
2.64255e-05
-0.000274618
-4.27559e-05
0.000477525
0.000571253
6.61712e-05
-0.00068361
-9.76386e-05
0.00104439
-0.000174639
-0.000134896
-0.000837685
-5.81177e-05
-0.000347531
0.000130521
0.000131157
3.95395e-05
-5.33536e-05
-8.41158e-05
-4.8051e-05
-4.23344e-05
-9.48498e-05
-2.12623e-05
-1.36388e-05
7.84414e-06
7.55728e-07
0.000290087
2.07289e-05
-0.00027603
-4.39629e-05
0.000445633
0.000586197
6.50427e-05
-0.000677339
-9.22366e-05
0.00127727
0.000145173
-0.00149653
-0.000187638
0.00217249
0.00264346
0.000259358
-0.00369547
-0.000474449
-0.000269211
-0.0018411
0.000495491
0.000498574
0.000268344
-6.44968e-05
-0.000339433
-2.27625e-05
-0.000118035
4.12543e-05
-5.35649e-05
-5.78111e-05
5.0807e-05
0.000135439
-7.8032e-05
-0.000414495
0.000150196
2.4718e-05
0.000117482
-2.49289e-05
0.00154465
0.000107817
-0.00144522
-0.000189355
0.0020535
0.00270831
0.000268821
-0.00300768
-0.000334369
0.00496219
0.000463016
-0.00557487
-0.00057048
0.00693982
0.00861434
0.000698169
-0.0114722
0.000438713
-6.49701e-05
-1.71828e-05
1.54646e-05
9.67316e-06
5.11933e-06
2.35766e-06
9.90775e-07
-1.37161e-06
-1.56523e-06
2.02167e-06
-2.17068e-06
-2.3568e-06
-6.46704e-07
7.20066e-06
2.69973e-05
4.73903e-05
1.44124e-05
3.68713e-06
-4.70984e-07
1.0387e-07
-8.87374e-07
-2.22706e-07
0.000414942
7.24925e-07
-0.000412406
0.000640637
1.64927e-06
-0.00097594
0.000981334
-0.000637057
0.000643998
7.51208e-07
-0.000992735
0.000973667
-0.000642068
0.000410816
-1.03013e-06
-0.000421336
0.000259332
-0.000258538
0.00026004
-0.00025764
2.38538e-06
-0.000408104
0.000423462
3.00917e-06
-0.000640355
2.38061e-06
-0.000968449
0.000997842
5.12186e-06
-0.00146163
1.77742e-06
-0.0021101
0.00216039
-0.00211956
0.00213
3.38649e-06
0.00145651
-0.00144895
6.60752e-07
0.00146887
4.89229e-06
-0.00214996
0.00211994
-0.00145507
-1.46554e-05
-0.00112706
0.000681807
2.66398e-06
0.00071736
-8.95109e-06
-0.000480135
0.00029041
1.17627e-06
0.000291348
-0.000262839
0.00016301
-1.62575e-06
-0.000167633
-3.04245e-07
0.000163793
3.05136e-07
-0.000162752
1.49601e-06
0.000168346
2.18071e-06
-0.00016177
0.000264015
-0.000289839
5.28597e-06
4.99797e-06
2.46753e-06
5.76791e-06
3.04775e-06
-5.06249e-05
5.3534e-05
-5.23493e-05
5.25588e-05
8.2665e-08
-2.90661e-08
-3.42953e-07
-5.34349e-05
5.0901e-05
-2.8911e-06
-1.63023e-06
2.35449e-05
-2.72076e-05
-1.22067e-07
-4.3228e-07
0.000109564
-0.000111587
0.000112108
-0.000108903
0.000114856
-0.000114503
-9.71589e-07
7.31513e-07
-2.33476e-05
1.76568e-06
2.72831e-05
-9.61044e-07
2.65437e-06
3.38426e-06
8.34807e-07
1.94664e-06
4.03963e-06
3.83751e-06
4.06821e-06
-0.00301535
5.1476e-06
-0.00421641
0.00423361
-0.00426779
0.00422962
1.36803e-05
0.00306305
-0.00302177
-2.01962e-05
-0.00243779
0.00148225
9.38972e-06
0.00163615
-0.00102251
-6.14707e-05
-0.00065438
0.000874167
-0.000153561
-0.00141862
0.00184604
-0.000268141
-0.00281079
0.00362649
-0.000387785
-0.00510392
0.00658708
-0.000598106
-0.00876696
-0.00118427
-0.000413454
-0.000595506
-0.000210237
-0.000349443
-0.000136492
-0.000206191
-8.01849e-05
-0.000111415
-3.90527e-05
-7.18869e-05
0.000386426
-0.000449905
-3.04154e-05
-0.000270393
0.000167739
-1.49747e-05
-1.18776e-05
-5.37665e-05
-1.80125e-05
-8.97946e-05
-1.41386e-05
0.000122012
2.7532e-06
-0.000192047
-4.26787e-06
-3.83583e-06
9.97237e-06
2.40341e-06
-5.09846e-06
-5.12381e-05
7.46696e-05
2.37023e-05
9.98237e-05
3.30092e-05
1.8702e-05
3.41561e-07
5.99617e-06
-9.15933e-05
0.000115187
-0.000114547
1.17834e-06
-7.94936e-07
-5.88353e-06
-1.93911e-06
-4.00246e-07
1.73279e-05
3.34541e-05
6.64363e-05
0.000127142
2.69177e-05
-0.00484119
0.00295872
-0.00213051
0.00342226
8.54118e-06
6.4817e-07
-2.11119e-06
3.47362e-07
3.48448e-06
1.08096e-05
2.44929e-05
3.20166e-05
-1.89145e-05
-0.00574307
2.76458e-05
-0.00774866
0.00772203
-0.0088153
0.00540961
6.64131e-05
0.00656668
-0.00408536
-0.000154295
-0.000135055
0.00061833
0.000492559
0.00072038
0.000934382
0.00580884
0.00856045
-0.0109886
0.00128498
3.326e-05
-7.27173e-05
0.000298675
-0.000189637
-0.000175741
-0.00445902
-2.47334e-05
0.000366059
-0.00795837
0.000652049
8.33493e-05
3.01987e-05
7.89785e-05
0.000198015
0.000294705
0.000126529
4.16224e-05
1.55598e-05
1.34275e-05
1.4846e-05
2.15008e-05
2.93058e-05
1.66465e-05
1.03479e-05
1.73358e-05
9.66867e-06
8.94029e-06
4.08727e-06
9.35507e-06
1.19036e-05
6.92145e-05
1.90934e-05
1.03574e-05
6.69472e-06
5.54189e-06
2.90845e-06
1.36442e-06
3.97796e-06
2.8181e-06
3.70435e-06
-4.50185e-06
6.16947e-06
1.63893e-05
1.32703e-05
2.61982e-05
4.22791e-05
4.79377e-05
9.39158e-05
4.35699e-05
8.82205e-05
3.89442e-05
0.00979522
-0.0128581
0.000265919
0.0154395
0.00031053
5.64714e-05
0.000184001
0.00122741
-0.00319688
0.0121996
-0.0103406
0.0217848
0.00312666
0.0129361
-0.0115794
0.0101687
-0.00964552
0.00714629
0.00809961
-0.0104362
0.00232905
-0.0114055
0.00755536
0.00779909
0.0144804
-0.000803812
-0.000347802
-0.00181725
-0.000150155
-0.00697023
-0.000162664
-3.1206e-05
2.54639e-05
3.74679e-05
6.29864e-05
2.88488e-05
2.72998e-05
3.19884e-05
2.91002e-05
-5.52974e-06
3.11087e-05
-7.29219e-06
0.000268845
0.000170551
0.000106281
-0.00453738
0.006126
0.000329055
-0.00528848
-0.000567534
0.00692318
0.00875883
0.000701167
-0.00931784
-0.000876847
-0.0113769
0.000478761
0.000346068
-1.3727e-05
1.04797e-05
-6.31176e-06
0.000201362
3.14388e-05
1.53881e-05
2.06436e-05
1.49308e-05
3.06445e-07
0.000126099
6.3379e-05
2.65382e-05
-0.000335247
-5.71019e-05
0.000477413
-1.99512e-05
0.000207365
-0.000122034
-8.09323e-05
0.000107097
-5.2542e-05
-4.54136e-05
-5.30166e-05
3.97781e-05
-0.000134037
-0.000149165
-0.000840264
0.000289842
-0.000148182
-0.000261789
0.000301575
0.000553898
-0.000278769
-0.00224715
0.000544032
0.000102035
0.000530793
-7.27234e-05
-0.000983455
-0.000470431
0.000941026
0.00158333
0.000977316
-0.000297333
-0.00186838
-0.000269082
-0.00181638
0.000859296
-0.000526277
-0.00377114
-0.000475339
0.00409875
0.00131791
-0.000855431
-0.00696211
-0.000611068
-0.0084481
0.00185028
0.000616495
0.00274952
0.000128194
-0.0146319
0.000152643
0.00232452
0.00300833
0.00412825
0.0123839
0.0290059
0.0152925
0.0225399
-0.00227892
-0.00132834
-0.0118051
0.00163891
0.00146382
0.00309604
0.0150023
0.0218685
-0.00217605
-0.00119787
-0.000768383
0.00703112
-0.00673593
0.00126027
0.000846173
0.00144079
0.00108006
0.00256619
0.0137757
0.0220715
-0.00223164
-0.0012034
-0.000768459
-0.00679379
-0.000945565
-0.000591417
-0.000341926
0.000409213
0.000207343
8.83493e-05
3.30508e-05
0.000103037
0.000722068
0.001133
0.0015201
-0.00137731
-0.00189318
0.00251514
0.0125603
0.0246694
-0.00414745
0.00539265
0.00237548
0.00180455
0.000111558
-0.000135162
-6.80971e-05
-3.0699e-05
-1.21546e-05
-3.69857e-06
-1.31732e-07
1.7533e-06
6.86013e-07
2.81609e-07
-3.50438e-07
1.68267e-06
8.03861e-07
7.26221e-07
1.15838e-06
-2.53572e-06
-9.64783e-06
-1.63928e-05
4.7059e-06
1.13814e-05
-0.000715037
0.000645288
5.94835e-06
3.82251e-06
4.60329e-06
2.86356e-06
3.89543e-06
5.50102e-06
1.3919e-05
3.62886e-06
2.68052e-05
-0.000169691
1.95205e-05
3.14162e-05
7.02419e-06
6.3932e-06
8.07392e-06
3.61188e-06
-9.76141e-07
1.26762e-05
9.30165e-06
8.38842e-06
8.67351e-06
7.21091e-06
9.53301e-06
3.23271e-05
2.9824e-05
0.00768917
2.58746e-06
-0.00766934
0.0100031
-1.56933e-05
-0.0127052
0.0127008
-0.00998875
0.0101684
3.27298e-05
-0.0128127
0.0128358
-0.00997363
6.36049e-06
0.011554
-0.0072678
-0.00014622
-0.000136992
9.5321e-05
0.000226363
0.000317556
-7.32521e-05
-0.00141437
-0.00291577
-0.00528498
-5.0728e-05
-0.00193173
-0.000827704
-0.000246656
0.000243335
0.000223729
5.35986e-05
4.3619e-05
4.04489e-05
1.7854e-05
0.00584021
-0.00573987
0.00575935
-0.00581957
-1.41111e-05
-0.00767391
0.0077701
-1.06197e-06
-0.010155
-4.33405e-05
-0.0127552
0.0128246
-1.76966e-05
-0.0160786
0.0158404
-0.0181683
1.2645e-05
-0.000140985
-4.90629e-05
1.24242e-05
2.39882e-05
9.72897e-05
0.000246281
0.000461543
0.00324524
-0.00236443
0.0537011
-0.00147339
-0.000231535
-0.00102259
-0.011025
0.00255688
0.00645301
0.000486031
-0.000126683
-0.00551978
-0.000157348
0.000114524
0.000239029
2.03878e-05
2.67941e-05
0.000554195
0.000326317
-0.0177012
0.0158895
-0.000807726
-0.000477524
-0.000191584
0.00313393
-0.000887767
0.00256149
0.00421677
0.00777104
0.0148347
0.00312826
-0.00796399
0.0032351
-0.0113728
0.00258083
0.00112155
-0.0076127
0.000569544
-0.000125204
5.45772e-06
-2.71988e-05
7.75533e-06
9.87774e-05
-8.25771e-05
-0.000192681
-5.7245e-05
-0.00020827
-4.51124e-05
5.08734e-06
-2.73479e-06
9.47471e-06
-3.60169e-06
-2.56784e-07
-3.4957e-05
2.96242e-06
5.47776e-05
0.000127117
0.00022488
0.0049685
0.0214705
0.00111013
-0.00243402
0.0137073
0.00102105
-0.00165555
-0.00145722
-0.00252281
0.0533887
-0.00121664
-0.000250881
0.000500046
9.23848e-05
0.000206696