/*--------------------------------*- C++ -*----------------------------------*\
| =========                 |                                                 |
| \\      /  F ield         | OpenFOAM: The Open Source CFD Toolbox           |
|  \\    /   O peration     | Version:  2306                                  |
|   \\  /    A nd           | Website:  www.openfoam.com                      |
|    \\/     M anipulation  |                                                 |
\*---------------------------------------------------------------------------*/
FoamFile
{
    version     2.0;
    format      ascii;
    arch        "LSB;label=32;scalar=64";
    class       volScalarField;
    location    "1";
    object      gradTz;
}
// * * * * * * * * * * * * * * * * * * * * * * * * * * * * * * * * * * * * * //

dimensions      [0 -1 0 1 0 0 0];

internalField   nonuniform List<scalar> 
5322
(
-0.058118
-0.0500441
-0.0373865
-0.0403171
-0.0257641
-0.0151525
-0.00818748
-0.00406765
-0.00186696
-0.000809872
-0.000365713
-0.00024116
-0.000146731
-0.000222511
-0.000257929
-0.000251392
-0.000287325
-0.0002565
-0.000445753
-0.000665517
-0.00109095
-0.00162005
-0.00256499
-0.00370455
-0.00558825
-0.00767185
-0.0110482
-0.0147129
-0.0201944
-0.0256072
-0.0335536
-0.041191
-0.0511645
-0.0589948
-0.0661588
-0.0604494
-0.0728679
-0.0707423
-0.0728303
-0.0544956
-0.0673774
-0.0695607
-0.0533824
-0.0695481
-0.0688411
-0.0543626
-0.0705939
-0.066798
-0.053886
-0.069763
-0.0805962
-0.05294
-0.0750923
-0.0642375
-0.0555394
-0.0606274
-0.0770521
-0.0593346
-0.0553472
-0.0603416
-0.0777765
-0.0601231
-0.0553101
-0.0588772
-0.0778159
-0.0623563
-0.0551773
-0.0560661
-0.0765676
-0.0668109
-0.0461132
-0.0658637
-0.062656
-0.0616959
-0.0622358
-0.061938
-0.0618941
-0.0617718
-0.0628935
-0.0603534
-0.0595136
-0.0496599
-0.0515343
-0.0641136
-0.0399465
-0.0560405
-0.0858224
-0.0578734
-0.0572774
-0.0486196
-0.0592428
-0.0365167
-0.0384139
-0.0384283
-0.051685
-0.0530438
-0.0486251
-0.0537017
-0.0871888
-0.0560843
-0.0568792
-0.0492376
-0.0541458
-0.0511735
-0.0559961
-0.0473791
-0.0495364
-0.040808
-0.026102
-0.0153767
-0.00830378
-0.00411258
-0.00187252
-0.000800568
-0.000397223
-0.000269489
-0.000206097
-0.000211661
-0.000353856
-0.000225652
-0.000184456
-0.000202946
-0.000199845
-0.000268479
-0.000206125
-0.000263982
-0.000198114
-0.000207209
-0.000261845
-0.0001999
-0.000205084
-0.00026554
-0.000203332
-0.000201559
-0.00026574
-0.00020437
-0.000200992
-0.000270939
-0.000207809
-0.000266108
-0.000199921
-0.000185869
-0.000226843
-0.000209607
-0.00020702
-0.000355316
-0.000212564
-0.000212098
-0.000205701
-0.00020834
-0.000362526
-0.00021299
-0.000212343
-0.000207278
-0.000206639
-0.000361734
-0.000211744
-0.000208805
-0.000184843
-0.000258906
-0.000251887
-0.000288888
-0.000499879
-0.000731225
-0.000364532
-0.000448537
-0.00025778
-0.000292759
-0.000164948
-0.00021426
-0.000223631
-0.000210449
-0.000277457
-0.000270082
-0.000267264
-0.00048148
-0.000476434
-0.000697081
-0.00046438
-0.000698652
-0.00111464
-0.00111415
-0.00167996
-0.00112638
-0.00168595
-0.00258496
-0.00258519
-0.00378866
-0.0025988
-0.00379853
-0.0055839
-0.0055854
-0.00786347
-0.00552409
-0.00788332
-0.011102
-0.0111111
-0.0149781
-0.0107776
-0.0150208
-0.0202862
-0.0203194
-0.0261767
-0.0192872
-0.0262587
-0.0339702
-0.034062
-0.0419366
-0.0315123
-0.042096
-0.0513504
-0.0514471
-0.0536272
-0.0871654
-0.0560514
-0.0558935
-0.0493809
-0.0665649
-0.0664288
-0.0384188
-0.0385003
-0.0516211
-0.0534913
-0.0482825
-0.0545023
-0.0872041
-0.0564502
-0.0558071
-0.0495191
-0.0533918
-0.0513969
-0.0485813
-0.0483115
-0.0407325
-0.0261266
-0.0154128
-0.00832666
-0.0041241
-0.00187759
-0.000802606
-0.000398234
-0.000270336
-0.000206921
-0.0002079
-0.000207781
-0.000206361
-0.00036183
-0.000212357
-0.000211888
-0.000192912
-0.000205635
-0.000334251
-0.000212348
-0.00036233
-0.000212504
-0.000331161
-0.000207967
-0.000262653
-0.000200728
-0.00019324
-0.000205859
-0.000263395
-0.000146718
-0.000217929
-0.000267669
-0.000267387
-0.000277916
-0.000477299
-0.000697927
-0.00111618
-0.00168127
-0.00258942
-0.0037901
-0.0055935
-0.00786513
-0.0111262
-0.0149789
-0.0203494
-0.0261685
-0.0341244
-0.0418891
-0.0518264
-0.0530083
-0.0872421
-0.0539534
-0.0486219
-0.0512408
-0.0422221
-0.0315399
-0.0339748
-0.0263096
-0.0193052
-0.0203071
-0.0150392
-0.0107872
-0.0111167
-0.00789028
-0.00552887
-0.00559218
-0.00380142
-0.0026012
-0.00258984
-0.00168692
-0.00112756
-0.0011175
-0.000698823
-0.000464842
-0.000482697
-0.000322498
-0.000482849
-0.000699102
-0.000465292
-0.000477847
-0.000278424
-0.000271032
-0.000210952
-0.000147698
-0.000225409
-0.000253232
-0.000480979
-0.000695864
-0.00111411
-0.0016866
-0.00259493
-0.00380305
-0.00562269
-0.0078942
-0.011205
-0.0150391
-0.0205544
-0.0262066
-0.0346204
-0.0416032
-0.0522407
-0.0534018
-0.0864322
-0.0569764
-0.0473166
-0.0564129
-0.0459309
-0.0307568
-0.0371734
-0.0283324
-0.0187892
-0.0220492
-0.0160632
-0.0104668
-0.012011
-0.0083877
-0.00535447
-0.00602819
-0.0040258
-0.00251449
-0.00277894
-0.00177544
-0.00108687
-0.00118817
-0.000732374
-0.000444727
-0.000500557
-0.000289793
-0.000260263
-0.000215433
-0.000209692
-0.000198594
-0.000293084
-0.00016515
-0.000189577
-0.000256896
-0.000246834
-0.000483193
-0.000713572
-0.000692696
-0.000697325
-0.000459068
-0.000473152
-0.000483244
-0.000257695
-0.000267862
-0.000280244
-0.000318201
-0.000311164
-0.000313528
-0.000219248
-0.000210336
-0.000330464
-0.000341488
-0.0003218
-0.000276058
-0.000269264
-0.00048268
-0.000699098
-0.000729581
-0.0011177
-0.00168703
-0.00259029
-0.00380123
-0.00377984
-0.00559639
-0.0078855
-0.0111351
-0.0150125
-0.0143534
-0.020363
-0.0262107
-0.0340977
-0.0419809
-0.0384898
-0.0384051
-0.024622
-0.0246698
-0.0145291
-0.014415
-0.0205061
-0.026267
-0.0193517
-0.0265837
-0.0340494
-0.0344268
-0.041803
-0.03158
-0.0428642
-0.0509774
-0.0579798
-0.0525383
-0.0887291
-0.0581181
-0.0548878
-0.0514039
-0.0654356
-0.0366647
-0.0336652
-0.044927
-0.0264336
-0.0347598
-0.0269892
-0.0157362
-0.0206251
-0.0150345
-0.00868086
-0.0112637
-0.0078199
-0.00443013
-0.00562393
-0.00371096
-0.00207127
-0.00258704
-0.00162224
-0.000890654
-0.00108838
-0.000660398
-0.000362746
-0.000447117
-0.00027469
-0.000261526
-0.000410245
-0.000431293
-0.000594087
-0.000995888
-0.00112074
-0.00172776
-0.00263806
-0.00390449
-0.00378718
-0.00381098
-0.00259423
-0.00259797
-0.00259342
-0.00169009
-0.00112174
-0.00167238
-0.00170528
-0.00167193
-0.000707836
-0.000601005
-0.000751557
-0.000670523
-0.000634975
-0.000767244
-0.000801846
-0.000362987
-0.000239602
-0.00015123
-0.000267477
-0.000155508
-0.000254466
-0.000337907
-0.000510276
-0.00120505
-0.00182704
-0.00186005
-0.00408729
-0.00407686
-0.00276325
-0.00236278
-0.00249483
-0.00340742
-0.00511934
-0.00575937
-0.00811471
-0.0115229
-0.0154921
-0.0150992
-0.0150652
-0.0107964
-0.0111875
-0.0111875
-0.00790977
-0.00552477
-0.00789122
-0.00772385
-0.00745118
-0.0036806
-0.0031941
-0.00386746
-0.00368611
-0.00349841
-0.00175597
-0.00161105
-0.00152986
-0.0014839
-0.0010703
-0.00143583
-0.00123659
-0.000816014
-0.000369348
-0.000243395
-0.000252863
-0.000223488
-0.000335498
-0.000257103
-0.000522783
-0.000525425
-0.00069892
-0.000726574
-0.00111714
-0.00111823
-0.00168699
-0.00112892
-0.00168481
-0.00171014
-0.00259172
-0.00259327
-0.0038
-0.00260512
-0.00380228
-0.00377878
-0.00559878
-0.0056047
-0.00788257
-0.00553888
-0.00789923
-0.00769009
-0.0111352
-0.011154
-0.0150079
-0.0108091
-0.0150643
-0.0143713
-0.0203432
-0.020411
-0.0261921
-0.0193425
-0.0263663
-0.0246358
-0.0339931
-0.0342218
-0.0418893
-0.0315609
-0.0422698
-0.0384432
-0.0512487
-0.0517168
-0.0535828
-0.0485397
-0.0536201
-0.049824
-0.0562668
-0.0543283
-0.0481199
-0.0645871
-0.0410479
-0.0520056
-0.0378319
-0.0361444
-0.0422766
-0.0416908
-0.0389738
-0.0421642
-0.0426764
-0.0348359
-0.0274432
-0.0269748
-0.0155863
-0.015777
-0.0114876
-0.00835266
-0.0083075
-0.00824181
-0.00407161
-0.00186528
-0.000810462
-0.000366438
-0.000241854
-0.000148035
-0.000223086
-0.000196533
-0.000254267
-0.000258062
-0.000212444
-0.000219444
-0.000271301
-0.000192709
-0.000235692
-0.000212961
-0.000210793
-0.000233937
-0.000185512
-0.000234971
-0.000211939
-0.000215656
-0.000273983
-0.000205324
-0.000208399
-0.000208137
-0.000205287
-0.000204817
-0.000201817
-0.000373545
-0.000207891
-0.000205184
-0.000205196
-0.000373991
-0.000208144
-0.000277851
-0.000408492
-0.000402869
-0.000343143
-0.000340497
-0.000319629
-0.0007477
-0.00176097
-0.00387073
-0.00782184
-0.0144988
-0.0138426
-0.0122491
-0.0146833
-0.0141441
-0.0134632
-0.0137898
-0.0188166
-0.0213525
-0.0269102
-0.0369011
-0.0320579
-0.0313701
-0.0231141
-0.0248403
-0.0190597
-0.0208511
-0.021063
-0.0153849
-0.0264137
-0.0415684
-0.0604424
-0.0605531
-0.0614085
-0.0494951
-0.0446547
-0.0481979
-0.0553379
-0.0485255
-0.0565401
-0.0840791
-0.0757619
-0.0716043
-0.0743104
-0.0464514
-0.0597215
-0.0624859
-0.0756531
-0.0475963
-0.0615531
-0.0626923
-0.0760092
-0.0478107
-0.0607958
-0.063522
-0.0759309
-0.0490982
-0.0604214
-0.0679659
-0.0949674
-0.0778057
-0.0761788
-0.0969522
-0.0955578
-0.0750732
-0.0540766
-0.0751028
-0.0642917
-0.0555159
-0.0605087
-0.0669389
-0.0539193
-0.0696551
-0.08064
-0.0529293
-0.0595515
-0.0496877
-0.051577
-0.0641329
-0.0514888
-0.0369887
-0.043185
-0.0339683
-0.023804
-0.0262923
-0.0203049
-0.0138224
-0.0148481
-0.0111263
-0.00739925
-0.00774153
-0.00559744
-0.00362956
-0.00371341
-0.00258168
-0.0016366
-0.00163266
-0.00109735
-0.000669958
-0.000671088
-0.000449125
-0.000278335
-0.000293204
-0.000196939
-0.000208247
-0.000214274
-0.000289104
-0.000500932
-0.000732104
-0.000444054
-0.000480855
-0.000252326
-0.000259434
-0.000224492
-0.000147246
-0.000210308
-0.000217836
-0.000270712
-0.000257303
-0.000246079
-0.000372196
-0.000819414
-0.00188297
-0.00188254
-0.00411749
-0.00834119
-0.0078501
-0.00739477
-0.00705132
-0.00719481
-0.010291
-0.0104779
-0.00534007
-0.005867
-0.00594394
-0.00562035
-0.00561419
-0.00379109
-0.00380276
-0.00559187
-0.00553723
-0.00789711
-0.0111198
-0.0108039
-0.0150535
-0.0203135
-0.0193245
-0.0263108
-0.0339721
-0.0315226
-0.0420619
-0.0343077
-0.0349493
-0.0509788
-0.0509679
-0.0417018
-0.0263538
-0.0153512
-0.00823344
-0.00407306
-0.00186874
-0.00081286
-0.000368848
-0.00024414
-0.000147835
-0.000217399
-0.000256254
-0.0002417
-0.000366746
-0.000811382
-0.00187142
-0.00408716
-0.00826497
-0.0154063
-0.0264498
-0.0417744
-0.061443
-0.0609704
-0.0531909
-0.104434
-0.0759673
-0.0728305
-0.0627261
-0.075972
-0.0478628
-0.0479942
-0.0518718
-0.0780254
-0.0493143
-0.0500713
-0.0510536
-0.0784515
-0.0495418
-0.0502934
-0.0507754
-0.078402
-0.0510849
-0.0519847
-0.0576476
-0.100076
-0.0787154
-0.0767662
-0.0771004
-0.0764441
-0.0595578
-0.0547495
-0.0579162
-0.099711
-0.0572384
-0.060457
-0.0777251
-0.0601948
-0.0552671
-0.0587532
-0.0699287
-0.0533471
-0.069159
-0.0691935
-0.0544907
-0.0703362
-0.0594965
-0.055322
-0.0601215
-0.0619894
-0.0617777
-0.0623089
-0.0615166
-0.0553429
-0.0567057
-0.0617418
-0.0778797
-0.0677915
-0.0549989
-0.0722613
-0.0636069
-0.0550165
-0.0875399
-0.0466383
-0.0589763
-0.0479601
-0.0539386
-0.0460805
-0.0345916
-0.037958
-0.0304657
-0.0226302
-0.0235224
-0.0184173
-0.0129509
-0.013546
-0.0100457
-0.00710192
-0.00704701
-0.00510066
-0.00339049
-0.0034096
-0.00233371
-0.00155791
-0.00148335
-0.000998582
-0.000628839
-0.000602121
-0.000407325
-0.000261838
-0.000256093
-0.000153627
-0.000263769
-0.000194806
-0.000149708
-0.000267821
-0.000199093
-0.000205282
-0.000262538
-0.000197574
-0.000206037
-0.000260497
-0.000198871
-0.000204496
-0.000264263
-0.000202867
-0.000200077
-0.000264092
-0.000147734
-0.000211373
-0.000270316
-0.000267695
-0.000321254
-0.000479888
-0.000462964
-0.000696846
-0.000694677
-0.000722648
-0.00110713
-0.00108012
-0.00167593
-0.00176489
-0.00142933
-0.0027614
-0.00205829
-0.00399222
-0.00316698
-0.00596645
-0.00437674
-0.00830352
-0.00644168
-0.0118459
-0.00854918
-0.0158264
-0.0120097
-0.0215408
-0.0152797
-0.0277003
-0.0205527
-0.0359614
-0.0251162
-0.0445605
-0.0323056
-0.0545352
-0.0377415
-0.0443876
-0.0517692
-0.0505939
-0.0383789
-0.0427552
-0.0300285
-0.0344299
-0.0334269
-0.024386
-0.0267001
-0.0183282
-0.0205953
-0.0200681
-0.01425
-0.0152835
-0.0102712
-0.0113205
-0.0110407
-0.00763872
-0.00803722
-0.00526234
-0.00568944
-0.00556925
-0.00375646
-0.00386797
-0.00247685
-0.00262789
-0.00258026
-0.00169724
-0.00171535
-0.00106587
-0.00111981
-0.00110982
-0.000718218
-0.000707266
-0.000431274
-0.000483089
-0.000470211
-0.000316409
-0.000244258
-0.000187798
-0.000163896
-0.000213336
-0.000207331
-0.000195865
-0.000291255
-0.000275492
-0.000333135
-0.000222517
-0.000251596
-0.000255925
-0.000215981
-0.000269202
-0.000266518
-0.000276092
-0.000317529
-0.000477643
-0.000442151
-0.000728343
-0.000599856
-0.00118198
-0.000887222
-0.00123385
-0.000522226
-0.00052483
-0.000475578
-0.000338479
-0.000328658
-0.000210956
-0.000360703
-0.000211656
-0.000191733
-0.00023429
-0.000214699
-0.000212059
-0.000215407
-0.000211574
-0.000334055
-0.000343097
-0.000322046
-0.000750861
-0.000749951
-0.000730585
-0.00111679
-0.00111644
-0.000720716
-0.00123479
-0.000526571
-0.000527801
-0.000478347
-0.000465727
-0.000700263
-0.00111564
-0.00112899
-0.00168669
-0.00258851
-0.00260463
-0.00288186
-0.00176517
-0.0017172
-0.00387924
-0.0078384
-0.00771331
-0.00782436
-0.00387457
-0.00176439
-0.0017137
-0.00175579
-0.000745632
-0.000724488
-0.00069297
-0.00111072
-0.00118567
-0.00177009
-0.00276813
-0.00400257
-0.00206412
-0.00258084
-0.00143326
-0.00163027
-0.000891279
-0.00109663
-0.00060227
-0.000669831
-0.000668159
-0.000634131
-0.00100185
-0.00107115
-0.00149399
-0.00171975
-0.00170273
-0.00258565
-0.00257864
-0.00376526
-0.00378969
-0.00377119
-0.00555511
-0.00549644
-0.00783423
-0.00783854
-0.00763273
-0.0110024
-0.010683
-0.014881
-0.0148933
-0.0141972
-0.0200801
-0.0184362
-0.0259637
-0.0334793
-0.0301537
-0.0416695
-0.0501679
-0.0446322
-0.0497477
-0.0409187
-0.0261114
-0.0153656
-0.00829426
-0.00410708
-0.00186971
-0.000799295
-0.000396512
-0.000268884
-0.000206048
-0.000206658
-0.00020765
-0.000212138
-0.000332661
-0.000342045
-0.000340318
-0.000328774
-0.000211235
-0.000191774
-0.000235058
-0.00020922
-0.000217893
-0.000209604
-0.000329901
-0.00033941
-0.000318427
-0.000479549
-0.000443768
-0.00050751
-0.000507984
-0.000402895
-0.000273868
-0.000205623
-0.000205138
-0.000373931
-0.000202141
-0.000204963
-0.000361284
-0.000507672
-0.000747291
-0.000705951
-0.000310045
-0.000311574
-0.000486495
-0.000318168
-0.000471483
-0.000457621
-0.000692052
-0.000694423
-0.00072885
-0.00111235
-0.0011246
-0.00168095
-0.00170877
-0.00257623
-0.00258811
-0.0037811
-0.00377574
-0.00375308
-0.00556443
-0.0053025
-0.00782661
-0.0110396
-0.010328
-0.014881
-0.0144043
-0.00777251
-0.00384852
-0.00175149
-0.00074374
-0.00050665
-0.000402036
-0.000273203
-0.00051016
-0.000808208
-0.00050928
-0.000509159
-0.000508559
-0.000510783
-0.00080812
-0.000750742
-0.000730318
-0.00176439
-0.00171489
-0.00387453
-0.00378228
-0.00410407
-0.00829638
-0.0154697
-0.0155805
-0.0267802
-0.0252379
-0.0242882
-0.0391632
-0.0545171
-0.0481475
-0.0702035
-0.054669
-0.106927
-0.0745565
-0.0733375
-0.0668978
-0.0845928
-0.078061
-0.0803152
-0.0776632
-0.106318
-0.0736687
-0.0727386
-0.0627007
-0.075631
-0.0477172
-0.0487349
-0.0524866
-0.0776076
-0.049101
-0.0509588
-0.0518484
-0.078031
-0.0493328
-0.0510322
-0.0517099
-0.0779714
-0.0509796
-0.0523821
-0.0704078
-0.0495447
-0.0384241
-0.0384453
-0.0421221
-0.0448844
-0.0305449
-0.036734
-0.0257221
-0.0307656
-0.0353112
-0.0244807
-0.0332856
-0.0422071
-0.0385244
-0.0498753
-0.0544239
-0.0420821
-0.039687
-0.0352523
-0.0454665
-0.0456074
-0.0603432
-0.0629575
-0.0616795
-0.050336
-0.0382021
-0.0497957
-0.0457988
-0.0500117
-0.0381197
-0.0497785
-0.045847
-0.0500832
-0.0382449
-0.0498706
-0.0627724
-0.0614135
-0.0554974
-0.0530683
-0.0639228
-0.0783909
-0.0595361
-0.0776235
-0.078715
-0.0755531
-0.0604429
-0.0572473
-0.057665
-0.0992315
-0.0579927
-0.0646229
-0.096262
-0.0796353
-0.0761906
-0.0595877
-0.0572997
-0.0708054
-0.0521401
-0.05186
-0.0698814
-0.048562
-0.0409236
-0.0408146
-0.0261076
-0.0153808
-0.00830608
-0.00411381
-0.00187309
-0.000800821
-0.000397355
-0.00026959
-0.000202213
-0.000205306
-0.000239825
-0.000212137
-0.000210034
-0.00026178
-0.000207162
-0.000185019
-0.000209018
-0.000225737
-0.000211733
-0.000184552
-0.000199852
-0.000269022
-0.000206298
-0.000311725
-0.000198645
-0.000263973
-0.000218078
-0.000233231
-0.000209164
-0.000328896
-0.000211282
-0.000212267
-0.000361417
-0.000207257
-0.000207161
-0.000212372
-0.000210678
-0.000191334
-0.000202547
-0.000266945
-0.000202859
-0.0003326
-0.000342225
-0.00034034
-0.000310268
-0.000258357
-0.000336519
-0.000223511
-0.000253472
-0.000243122
-0.000369437
-0.000817229
-0.00188315
-0.00410975
-0.00830632
-0.0154774
-0.0265595
-0.0265593
-0.0419955
-0.0421615
-0.0609944
-0.0537154
-0.0556645
-0.055939
-0.087299
-0.064375
-0.0735888
-0.075912
-0.104155
-0.0529966
-0.055877
-0.0560115
-0.0540771
-0.0568821
-0.0578256
-0.085836
-0.0542999
-0.0560425
-0.0486453
-0.0572797
-0.0690434
-0.05288
-0.0386318
-0.0419145
-0.0615322
-0.0613116
-0.0507985
-0.0512602
-0.0354942
-0.0212673
-0.0117162
-0.00598109
-0.00282249
-0.00278661
-0.00122844
-0.00122869
-0.000525873
-0.00052508
-0.000756133
-0.00176089
-0.00385556
-0.00778794
-0.014486
-0.0247807
-0.0346083
-0.0341364
-0.0343123
-0.0207489
-0.011511
-0.00589069
-0.005878
-0.00278398
-0.00281561
-0.0012387
-0.00111333
-0.00118787
-0.00177169
-0.00277221
-0.00400537
-0.0025043
-0.0025879
-0.0016824
-0.00108405
-0.00126508
-0.000746115
-0.000726015
-0.000694017
-0.000339777
-0.000330061
-0.000200348
-0.000319312
-0.000507938
-0.000507772
-0.000354019
-0.000206206
-0.000205368
-0.000235309
-0.00021453
-0.000217916
-0.000240017
-0.000202637
-0.000374448
-0.00023978
-0.000234815
-0.000192549
-0.000233119
-0.000239622
-0.000211381
-0.000208773
-0.000210506
-0.000217055
-0.000208522
-0.000210232
-0.000235083
-0.000232562
-0.000205477
-0.000211344
-0.000224704
-0.000352829
-0.000208275
-0.000184039
-0.000506289
-0.000507523
-0.000402187
-0.000273185
-0.000510236
-0.000508043
-0.00074757
-0.000706495
-0.000603533
-0.00166681
-0.00143568
-0.00175672
-0.00170789
-0.00386003
-0.00376992
-0.00379293
-0.0055944
-0.00599731
-0.00832717
-0.0119294
-0.0158889
-0.0103954
-0.011122
-0.00787377
-0.00532546
-0.00613988
-0.00366326
-0.00317989
-0.00740127
-0.0064727
-0.00779823
-0.00766526
-0.00782434
-0.00768974
-0.0144978
-0.0143643
-0.0246262
-0.0246211
-0.023567
-0.0212542
-0.0249411
-0.0212615
-0.0119612
-0.00616717
-0.00291706
-0.00126898
-0.00125692
-0.00124337
-0.00188478
-0.00287933
-0.00283478
-0.00413616
-0.00607531
-0.00596887
-0.00413625
-0.00188481
-0.00125816
-0.00125513
-0.00124174
-0.000814283
-0.00189159
-0.00414704
-0.00836428
-0.00834679
-0.0117602
-0.0115312
-0.0154448
-0.0208611
-0.0204135
-0.0261813
-0.0338165
-0.034513
-0.0383489
-0.0662417
-0.0484521
-0.0701937
-0.049518
-0.0482918
-0.066117
-0.0507124
-0.0692778
-0.0755485
-0.0803718
-0.0774175
-0.105516
-0.0735222
-0.0645545
-0.060695
-0.0799746
-0.0809012
-0.0577658
-0.0647961
-0.0762244
-0.0808541
-0.0751692
-0.0735228
-0.104906
-0.0777531
-0.0806222
-0.0807353
-0.0809464
-0.0806723
-0.0774494
-0.0800746
-0.0717895
-0.0635233
-0.0759298
-0.0491188
-0.0478199
-0.0517222
-0.077993
-0.0509363
-0.0498956
-0.0507903
-0.0784484
-0.0509982
-0.0501278
-0.0504979
-0.0783537
-0.0522126
-0.0578169
-0.0995765
-0.0810429
-0.0757797
-0.0606851
-0.0571841
-0.0699077
-0.0485464
-0.0409185
-0.026174
-0.0154211
-0.00833033
-0.00412745
-0.00188073
-0.000806489
-0.00125399
-0.00126444
-0.00108364
-0.00168014
-0.00258335
-0.00250394
-0.00378853
-0.00558669
-0.00599017
-0.00832287
-0.0119179
-0.0158827
-0.00859528
-0.0111291
-0.00646524
-0.00773909
-0.00439598
-0.00559778
-0.00317548
-0.0037104
-0.00362422
-0.00344492
-0.00509348
-0.0052834
-0.00709779
-0.00804832
-0.00765482
-0.0110528
-0.0106639
-0.0149122
-0.0149136
-0.014246
-0.0199632
-0.0190449
-0.0259593
-0.0242839
-0.0332632
-0.0310767
-0.0416374
-0.0417376
-0.0381667
-0.0501373
-0.0458555
-0.0499238
-0.0499715
-0.0381546
-0.0416399
-0.0416799
-0.0498533
-0.0457897
-0.0484423
-0.038411
-0.0245367
-0.0144382
-0.00779465
-0.00386092
-0.00175808
-0.00166555
-0.00366075
-0.00385841
-0.00376543
-0.00779542
-0.00765788
-0.00786564
-0.0111096
-0.0103966
-0.0149947
-0.0203061
-0.0218077
-0.0278553
-0.0367067
-0.044896
-0.0257186
-0.0339906
-0.0208369
-0.0262962
-0.0154672
-0.0203136
-0.0120945
-0.0148477
-0.0138084
-0.0131448
-0.0184594
-0.0185433
-0.0240054
-0.0266269
-0.0244815
-0.0332886
-0.0310426
-0.0421744
-0.0415315
-0.038206
-0.0502946
-0.0456619
-0.0498964
-0.0543964
-0.0385303
-0.0420723
-0.0396499
-0.0454337
-0.045576
-0.0480869
-0.0412742
-0.0352135
-0.0369598
-0.0431908
-0.0515212
-0.0328796
-0.0385377
-0.0247047
-0.0144356
-0.00775765
-0.00383841
-0.0017517
-0.000751528
-0.000334501
-0.000223108
-0.000208207
-0.0001968
-0.000154444
-0.000188897
-0.000257793
-0.000245344
-0.000265265
-0.000150086
-0.000195061
-0.000266757
-0.000279153
-0.000256393
-0.000321062
-0.000476764
-0.00046418
-0.000696591
-0.0007278
-0.0011116
-0.00112276
-0.00168054
-0.0016747
-0.00170094
-0.00257559
-0.00249573
-0.00377553
-0.0028024
-0.00277111
-0.00257686
-0.00122643
-0.00111184
-0.000812227
-0.000810821
-0.000365933
-0.00024137
-0.000254654
-0.000222178
-0.000239304
-0.000255229
-0.000339265
-0.000264056
-0.000409204
-0.000433938
-0.000709584
-0.000721391
-0.00111272
-0.00111707
-0.00166775
-0.00168265
-0.00171169
-0.00257805
-0.00259108
-0.00378441
-0.00376347
-0.00555414
-0.00549189
-0.00783068
-0.00782971
-0.00762011
-0.0110011
-0.0112131
-0.0058137
-0.00555407
-0.00405045
-0.00404732
-0.00186276
-0.00123478
-0.00111442
-0.000528016
-0.000482544
-0.000363908
-0.000514445
-0.000606819
-0.000772479
-0.000805036
-0.00121048
-0.00112634
-0.00183078
-0.00155056
-0.00234922
-0.00248308
-0.0038783
-0.00376485
-0.00557829
-0.00547665
-0.00782077
-0.00785066
-0.0076509
-0.0109984
-0.0106894
-0.0148926
-0.0142103
-0.0199861
-0.0190427
-0.0259493
-0.0259958
-0.0242792
-0.0332583
-0.0245049
-0.0207891
-0.0117099
-0.0115144
-0.00833289
-0.00412872
-0.0018813
-0.000806804
-0.00124192
-0.00125529
-0.00287534
-0.00290631
-0.00175886
-0.00386281
-0.0077985
-0.0119007
-0.0117455
-0.00606678
-0.0059625
-0.0028315
-0.00287302
-0.00125461
-0.00112501
-0.00111421
-0.000727703
-0.00111213
-0.00168233
-0.001709
-0.00257575
-0.00257932
-0.00168142
-0.00168106
-0.00171173
-0.00257768
-0.0025823
-0.00168273
-0.0011141
-0.000728572
-0.00111218
-0.00069831
-0.000696978
-0.000697606
-0.000696152
-0.000726888
-0.00110967
-0.00111174
-0.00112394
-0.00167709
-0.00170857
-0.00257452
-0.00257656
-0.00259021
-0.0037776
-0.00376651
-0.00555672
-0.00555288
-0.00555088
-0.00555725
-0.00376362
-0.00378607
-0.00378461
-0.00259215
-0.00378446
-0.00377196
-0.0055544
-0.00557117
-0.00379002
-0.00258098
-0.00258583
-0.00263948
-0.00170294
-0.00166897
-0.001118
-0.00111263
-0.00112804
-0.000721364
-0.000692389
-0.000694455
-0.000482088
-0.000320723
-0.000476663
-0.000464371
-0.000481341
-0.00032113
-0.000480113
-0.000463836
-0.000476672
-0.000319886
-0.000479764
-0.000693446
-0.0006887
-0.000456346
-0.000526007
-0.000362862
-0.00023996
-0.000147633
-0.00022049
-0.000212089
-0.000217389
-0.000217961
-0.000147827
-0.000241699
-0.000257678
-0.000212076
-0.000221523
-0.000148031
-0.00026499
-0.000203133
-0.000199594
-0.000191621
-0.000270046
-0.00027505
-0.000267772
-0.000268152
-0.000273956
-0.00025624
-0.000277401
-0.000265629
-0.000183767
-0.000202353
-0.000264103
-0.00019937
-0.000328066
-0.000339597
-0.000746148
-0.000749084
-0.00175957
-0.00386231
-0.00606001
-0.00549875
-0.00783772
-0.00763228
-0.0109934
-0.0110065
-0.0109969
-0.011049
-0.00765235
-0.0078422
-0.00785132
-0.00548183
-0.00557884
-0.00571806
-0.00376537
-0.00376832
-0.00388
-0.00248686
-0.00235291
-0.0034131
-0.00345075
-0.00510014
-0.00710836
-0.00704341
-0.0101347
-0.0136034
-0.0131637
-0.0184802
-0.0240326
-0.0226374
-0.0307004
-0.0327969
-0.0264186
-0.0200258
-0.015397
-0.0112376
-0.00824303
-0.00580313
-0.00405423
-0.00275635
-0.00183301
-0.00155254
-0.00149739
-0.00172026
-0.00107308
-0.00100331
-0.000608251
-0.000635619
-0.000773301
-0.00121137
-0.000514652
-0.000409866
-0.000434765
-0.000486989
-0.000318032
-0.000471401
-0.000457923
-0.000528272
-0.000363093
-0.000239175
-0.00015029
-0.000195352
-0.000265339
-0.000154582
-0.000258138
-0.000264246
-0.000339316
-0.000255185
-0.00018908
-0.000245431
-0.000279044
-0.000256639
-0.000266609
-0.000254363
-0.0002406
-0.000364031
-0.000807393
-0.000803645
-0.00185812
-0.00405807
-0.00818546
-0.00765555
-0.0110544
-0.0113779
-0.00805169
-0.0078269
-0.00587175
-0.00279552
-0.00123635
-0.00123525
-0.00185637
-0.00403426
-0.00811158
-0.0113499
-0.010674
-0.0149137
-0.0142486
-0.019958
-0.0201094
-0.0200686
-0.0208387
-0.0142859
-0.0149237
-0.0153159
-0.0103315
-0.0085996
-0.0115874
-0.011468
-0.0206352
-0.0208636
-0.0203219
-0.0218262
-0.0278593
-0.0208537
-0.0233608
-0.0137258
-0.0121063
-0.0144574
-0.0143178
-0.0150103
-0.024584
-0.0245596
-0.0262614
-0.0186289
-0.0211526
-0.0144446
-0.0245453
-0.0344046
-0.0338318
-0.0208454
-0.020408
-0.0115217
-0.0117274
-0.0154255
-0.0154709
-0.0154449
-0.00834696
-0.00608048
-0.00606622
-0.00287503
-0.00283111
-0.00287158
-0.00290488
-0.0061371
-0.00532574
-0.00594568
-0.0028141
-0.00278451
-0.00279499
-0.00280708
-0.00123305
-0.00122807
-0.0005251
-0.000523682
-0.000252411
-0.00123687
-0.00590674
-0.00588171
-0.0114776
-0.0115364
-0.011638
-0.0207682
-0.0206533
-0.0208819
-0.0115939
-0.0262299
-0.0340461
-0.0305539
-0.0420583
-0.034647
-0.0341689
-0.05085
-0.0509494
-0.0528498
-0.0691482
-0.0956118
-0.096909
-0.0540702
-0.067951
-0.0949837
-0.0777931
-0.0595731
-0.0764172
-0.0772698
-0.0605546
-0.0576385
-0.100259
-0.0792541
-0.0766263
-0.100806
-0.08584
-0.0859131
-0.080798
-0.0756039
-0.0509327
-0.0694784
-0.0483971
-0.040826
-0.0261808
-0.0208757
-0.0117697
-0.0117441
-0.0144968
-0.0144528
-0.0143055
-0.0245773
-0.0245429
-0.023351
-0.0137185
-0.00739671
-0.0113663
-0.0153094
-0.0142845
-0.0200665
-0.019027
-0.0261371
-0.0259654
-0.024343
-0.0331823
-0.0310545
-0.0332594
-0.0245158
-0.014426
-0.0117218
-0.0118956
-0.0211448
-0.018633
-0.0208425
-0.0204055
-0.0115202
-0.00596166
-0.00605697
-0.00386012
-0.00175859
-0.000748547
-0.00111499
-0.00123193
-0.00167997
-0.000528173
-0.000698131
-0.000481759
-0.000258001
-0.000275274
-0.000218463
-0.000146924
-0.000243451
-0.000368066
-0.00277958
-0.00279116
-0.00258201
-0.00186049
-0.00275418
-0.00340706
-0.00404949
-0.0040626
-0.00579876
-0.00571141
-0.00823407
-0.00703366
-0.0101223
-0.0103184
-0.0135846
-0.0112289
-0.0153807
-0.0152112
-0.00819424
-0.00586173
-0.00556968
-0.00582758
-0.00555722
-0.00813724
-0.0113292
-0.0110451
-0.0112381
-0.0148955
-0.0150554
-0.0201035
-0.0201005
-0.0200115
-0.0208199
-0.0263934
-0.0226083
-0.0306713
-0.030739
-0.0352862
-0.0327777
-0.0259812
-0.0406959
-0.0556056
-0.0559995
-0.0579925
-0.0635372
-0.0591556
-0.0477697
-0.0326667
-0.0335274
-0.0255942
-0.0399893
-0.0547924
-0.0642941
-0.0601111
-0.0471993
-0.0321272
-0.0198632
-0.0259871
-0.0199898
-0.0150506
-0.00813911
-0.025576
-0.0399928
-0.0548713
-0.0645412
-0.0601885
-0.0472149
-0.0320905
-0.0198229
-0.0199831
-0.0201791
-0.011388
-0.00589472
-0.00381903
-0.00174546
-0.000748635
-0.000662219
-0.00164422
-0.00769263
-0.014214
-0.0241086
-0.0327687
-0.0479451
-0.0552688
-0.0658661
-0.0600019
-0.0498965
-0.0556552
-0.0585625
-0.054797
-0.0400852
-0.0397684
-0.0254566
-0.0149772
-0.00809503
-0.00402515
-0.00185126
-0.000804795
-0.000807327
-0.000365164
-0.000529206
-0.000528452
-0.00025726
-0.000269698
-0.000253138
-0.000237792
-0.000360747
-0.00079882
-0.00123233
-0.00111483
-0.00166207
-0.00168052
-0.00175606
-0.00125345
-0.00124058
-0.000509711
-0.00125186
-0.00126177
-0.000703923
-0.000308927
-0.000310412
-0.000498166
-0.000362429
-0.00166172
-0.00289964
-0.00287075
-0.00282863
-0.0028674
-0.00604923
-0.0059572
-0.00605618
-0.00385777
-0.00779063
-0.00779454
-0.014433
-0.0208087
-0.0190522
-0.0199944
-0.0142075
-0.0199623
-0.0259881
-0.0242746
-0.0331957
-0.0332733
-0.0259408
-0.026016
-0.0243444
-0.0331629
-0.0335453
-0.0259603
-0.0190445
-0.0261566
-0.0266362
-0.0185646
-0.0154723
-0.0201413
-0.0151958
-0.0259562
-0.0406546
-0.0413008
-0.0480976
-0.0559975
-0.0580091
-0.0555551
-0.063571
-0.0591559
-0.0478307
-0.0327257
-0.0255179
-0.0150095
-0.0199176
-0.0112697
-0.0149112
-0.0148884
-0.0149019
-0.0148877
-0.0142398
-0.0200328
-0.0199768
-0.01905
-0.0259676
-0.0243458
-0.033353
-0.0332473
-0.031077
-0.0416326
-0.0418017
-0.0417002
-0.0310486
-0.0343852
-0.0338257
-0.0261795
-0.0262194
-0.033028
-0.0408272
-0.0384154
-0.0385203
-0.0665459
-0.0495154
-0.0479374
-0.0693119
-0.075479
-0.0798219
-0.0774818
-0.0807683
-0.0809847
-0.0749635
-0.0499985
-0.0683302
-0.0467763
-0.0664071
-0.0666621
-0.0664103
-0.0667343
-0.0667141
-0.0603834
-0.0795977
-0.104946
-0.0542073
-0.0780586
-0.0839691
-0.0806719
-0.0859993
-0.0808774
-0.07619
-0.102081
-0.0778867
-0.0523821
-0.0578748
-0.0997764
-0.057291
-0.0697416
-0.0521164
-0.0670667
-0.0469061
-0.0408752
-0.033052
-0.0338264
-0.033834
-0.0343948
-0.033784
-0.0208003
-0.0337976
-0.0330848
-0.0204056
-0.0208104
-0.0117229
-0.011875
-0.0144364
-0.0245562
-0.0245232
-0.0337928
-0.0384172
-0.0365266
-0.0328984
-0.0560389
-0.0399535
-0.050918
-0.0511106
-0.0473453
-0.0507997
-0.0592399
-0.0667138
-0.049295
-0.0478106
-0.0695013
-0.0484047
-0.0469087
-0.0667294
-0.0498923
-0.0685359
-0.0750984
-0.0755819
-0.0800305
-0.0719354
-0.0795603
-0.10488
-0.078052
-0.080695
-0.0808074
-0.0809248
-0.0811009
-0.0750943
-0.050304
-0.0685358
-0.0773183
-0.0809796
-0.0773045
-0.0752412
-0.0502208
-0.0687457
-0.0470422
-0.0670578
-0.0673657
-0.0610401
-0.0384541
-0.0384007
-0.0608227
-0.0605216
-0.0365713
-0.0385261
-0.0383995
-0.0484443
-0.0604902
-0.0607294
-0.0610515
-0.0564159
-0.0642101
-0.0470115
-0.0321133
-0.025697