/*--------------------------------*- C++ -*----------------------------------*\
| =========                 |                                                 |
| \\      /  F ield         | OpenFOAM: The Open Source CFD Toolbox           |
|  \\    /   O peration     | Version:  2306                                  |
|   \\  /    A nd           | Website:  www.openfoam.com                      |
|    \\/     M anipulation  |                                                 |
\*---------------------------------------------------------------------------*/
FoamFile
{
    version     2.0;
    format      ascii;
    arch        "LSB;label=32;scalar=64";
    class       volScalarField;
    location    "1";
    object      gradTy;
}
// * * * * * * * * * * * * * * * * * * * * * * * * * * * * * * * * * * * * * //

dimensions      [0 -1 0 1 0 0 0];

internalField   nonuniform List<scalar> 
5322
(
0.648507
0.0612561
-0.00392143
-0.0265166
-0.014394
-0.00476165
0.0002858
0.00511176
0.0141324
0.0254186
0.000319468
-0.18772
-0.208593
-0.187237
-0.162551
0.351826
0.470588
-0.000755717
0.325046
-0.385573
0.366878
-0.373052
0.366209
-0.375266
0.374317
-0.367777
0.367827
-0.376187
0.375624
-0.371783
0.374617
-0.375441
0.388257
-0.334272
0.32105
-0.160887
0.316237
0.396722
0.198208
0.214764
0.292801
0.244577
0.253341
0.273314
0.260579
0.25821
0.264734
0.282826
0.262263
0.250269
0.314005
0.151795
0.170073
-0.559876
-0.0304876
-0.323916
0.170411
-0.424745
-0.0241029
-0.369148
0.173033
-0.417695
-0.0215185
-0.366409
0.17373
-0.432263
-0.0277446
-0.354382
0.175362
-0.475665
0.0166945
0.417057
0.232287
0.324534
0.2424
0.307024
0.25618
0.305679
0.25956
0.359178
0.0326069
0.121099
0.182915
0.304222
-0.0257871
-0.126799
0.0362352
0.0712123
0.132297
0.0152589
0.034646
0.00639746
0.00100578
0.00117864
0.441435
-0.23598
0.00711805
0.237926
0.00647206
-0.00631551
0.0326325
0.00637711
0.251958
-0.430368
0.385135
0.00524822
-0.00738468
-0.00136896
-0.000218553
0.000420076
0.00047495
0.000575952
0.00129665
0.00259125
-0.00438905
0.00115228
0.133803
-0.0550292
-0.0189164
-0.103265
0.127005
-0.0706728
-0.137722
-0.1884
-0.212895
-0.00857848
0.156047
-0.117753
0.0110331
0.128603
-0.128092
0.00539569
0.133688
-0.137077
-0.00432886
0.124857
-0.149771
-0.0119221
-0.0345717
0.229302
0.189963
-0.124507
0.0825554
0.064171
-0.131258
0.0141545
-0.128601
0.100879
0.103674
-0.114314
-0.00172721
-0.106669
0.107064
0.115569
-0.103822
-0.000349633
-0.0992331
0.125976
-0.00821483
-0.00621229
0.395919
-0.310301
0.343215
-0.364641
0.0123233
-0.235171
-0.00502069
-0.00211268
-0.0439961
0.113575
-0.227252
0.226099
-0.379608
0.000865599
0.387728
-0.38317
0.398925
-0.407877
0.00169632
0.401824
-0.411932
0.427249
-0.42627
0.00158636
0.416807
-0.420043
0.433584
-0.432236
0.000976611
0.422174
-0.423738
0.436528
-0.435232
0.00082676
0.425242
-0.42722
0.440002
-0.437301
0.00107769
0.427363
-0.431264
0.444367
-0.437747
0.00142196
0.427183
-0.434062
0.447139
-0.430327
0.00183155
0.418003
-0.431184
0.434784
-0.235957
-0.00106756
-0.0175287
0.00732679
-0.00703063
-0.000430733
0.00275754
0.00366459
1.99569e-05
0.442388
-0.23488
0.00197496
0.280042
-0.0381206
-0.0112988
0.00934473
-0.0138166
0.237215
-0.435639
0.00253224
0.00194124
0.00545333
0.00352024
0.00187447
0.000840795
5.94872e-05
-0.00114207
-0.00287852
0.0042823
-0.00154037
-0.107711
-0.114725
-0.114777
-0.10796
0.0220636
0.0380052
0.0239582
-0.145037
0.0760599
-0.153792
0.038094
0.0221069
0.0240051
-0.151989
0.0529215
0.145424
0.0938729
-0.144978
0.0762175
0.157866
0.220436
0.232826
-0.381431
-0.380568
-0.409586
0.29724
-0.368904
0.338776
-0.362995
0.351439
-0.362305
0.35657
-0.364909
0.35845
-0.371293
0.358039
-0.381356
0.355594
-0.391211
0.34942
-0.0767385
0.166543
-0.0525134
-0.00888812
0.302514
-0.36026
0.00371485
0.322445
-0.360192
0.0017752
0.332059
-0.352679
0.000885378
0.335923
-0.346045
0.00029896
0.335103
-0.342783
-0.000686802
0.328644
-0.342901
-0.00245788
0.31129
-0.3483
0.00820765
0.260455
-0.0240498
0.260228
-0.348863
0.00822336
0.298794
-0.407227
0.163422
0.270196
0.201949
0.189023
-0.359252
0.235766
-0.335571
0.296992
-0.329266
0.31586
-0.328965
0.32249
-0.332405
0.323941
-0.340365
0.322557
-0.349909
0.318228
-0.347844
0.30453
-0.0500168
0.120591
-0.137257
-0.00233375
0.4175
-0.50962
0.00901104
0.456992
-0.496212
0.00459513
0.463807
-0.477012
0.0018622
0.462553
-0.466703
0.000545955
0.461207
-0.462914
-0.000791067
0.459406
-0.461957
-0.00182026
0.45099
-0.465366
0.0104383
0.400595
-0.463007
0.162453
0.377409
0.335382
-0.168378
0.319838
-0.0759127
0.0602391
0.38319
-0.331637
0.309519
-0.29153
0.46698
-0.41114
-0.00325065
-0.459924
0.39231
-0.401195
0.0117881
0.422398
0.0188616
0.00817768
-0.119517
0.0117209
-0.00959576
0.00627263
-0.00228963
-0.000816724
0.386181
-0.386932
0.387342
-0.402847
6.69008e-05
0.415876
-0.418854
0.424055
-0.424373
0.000299702
0.428151
-0.427098
0.43238
-0.428535
0.000357782
0.437241
-0.427494
0.439964
-0.41822
-0.000677854
0.000573247
0.000947632
0.00315406
0.00176978
0.00115517
0.441181
-0.426873
0.0022528
0.504841
-0.499634
0.447557
-0.413996
0.00434062
0.502895
-0.478906
0.305253
-0.212671
-0.340591
-0.0231966
-0.00515005
-0.123098
-0.0316539
0.00945559
0.225672
0.29429
0.023406
-0.478192
0.362762
0.00355452
-0.404045
0.368809
-0.000853642
-0.378966
0.372459
0.000120577
-0.365062
0.370242
-0.0026451
-0.363981
0.383904
-0.00659321
-0.346542
0.391471
-0.0246187
-0.30885
0.100215
0.150684
-0.185906
0.00154461
0.303768
-0.258755
0.30366
-0.297101
0.301961
-0.299094
0.486652
-0.426568
-0.00100729
-0.487332
0.424683
-0.423034
-0.00253792
0.481358
-1.01873e-05
-0.00110277
-0.000716372
-0.0278463
0.00615936
0.0388252
0.0422076
0.0171836
0.00739995
0.0243363
0.0172263
-0.0221649
0.358967
0.115078
0.0250194
0.0859205
0.0183104
0.00545121
0.00380464
0.00133102
0.000780133
0.000954623
0.000887485
-0.27345
0.000241716
0.279295
-0.276523
0.301866
-0.300652
0.305671
-0.302107
0.496712
-0.42933
0.000798763
-0.4922
0.434212
-0.428496
-5.73213e-05
0.490754
0.000975095
0.000951264
-0.000144137
-0.00279102
-0.00167586
0.00407125
0.0029525
0.000318194
0.0130388
0.00934944
0.284825
0.00134839
-0.0130818
-0.00100131
-0.0192385
0.00236707
0.188907
0.360687
0.662995
0.0694458
-0.0100525
-0.00460457
-0.0179264
-0.36657
0.00156341
0.341322
0.310655
-0.343075
-0.00243709
-0.361661
0.00260686
0.353632
0.328106
-0.342608
-0.000649074
-0.362291
0.00222898
0.357567
0.335091
-0.345731
0.000360968
-0.366315
0.00609061
0.357558
0.336979
-0.352593
0.00101072
-0.374646
0.0173724
0.352953
0.335602
-0.361596
0.00198793
-0.386086
0.0426252
0.340882
0.331416
-0.366754
0.00404408
-0.39117
0.0956404
0.320174
0.320152
-0.061427
-0.00863227
-0.0711675
0.845469
-0.378293
-0.386345
0.624751
0.162467
0.0672927
-0.581563
-0.120125
-0.0703499
0.298081
-0.311195
-0.00543781
0.00658943
-0.0392182
-0.0471263
-0.00493807
0.0125096
0.00724583
0.00281881
-0.00394711
0.0016262
0.00279931
0.000825415
0.000106201
-0.000718449
-0.00250366
-0.0048208
-0.016732
-0.00896239
0.233443
-0.233537
0.00281181
0.00150777
-0.237208
0.233724
-0.000551473
0.0009722
-0.00105625
-0.0177037
-0.0112185
0.0423837
0.00459334
0.048773
-0.0172985
-0.0212117
2.32886e-05
0.0781287
-0.0908188
0.0911845
-0.0778363
-0.078796
-0.0673589
0.00251294
0.0904233
0.081372
-0.0812246
-0.00241998
-0.0911068
-3.39694e-06
1.51579e-05
0.00578564
0.0163925
0.0146727
-0.0325812
0.000607532
0.000114803
0.000892401
0.00268516
0.00665712
0.00286685
0.0237215
-0.0190747
-0.00233027
0.0132534
0.295361
-0.270093
0.311717
-0.307666
0.316113
-0.00766932
-0.280441
0.00791119
0.313467
-0.00122989
-0.0138991
0.00284646
0.00196628
0.0039117
0.00463023
-0.00334294
-0.0468635
0.160625
-0.0717441
-0.307435
-0.0390977
-0.0373403
-0.607472
-0.167536
0.0213739
-0.245249
0.181251
0.00834636
0.0102289
0.219397
0.184037
0.0257576
-0.020588
0.243997
0.219282
0.0277614
-0.0248072
0.221415
0.250065
0.0258769
-0.0571578
0.183675
0.255324
-0.0885061
0.133373
-0.11626
0.124273
-0.490628
-0.266447
0.0480763
-0.121093
0.263236
-0.0158806
-0.431424
0.227978
-0.00454302
-0.2707
-0.267633
-0.389016
0.163126
-0.213754
-0.136988
0.23754
-0.491515
-0.0553956
0.345227
-0.423998
-0.0111368
0.368489
-0.386937
0.000602876
0.370186
-0.371856
0.00170009
0.367453
-0.367177
0.00191087
0.366325
-0.365521
0.0055031
0.367553
-0.362607
0.0223769
0.378622
-0.32457
0.0912881
0.314783
-0.17571
0.333897
0.377116
-0.46771
0.399289
-0.469756
0.0108584
0.235003
-0.359426
0.162272
0.188109
0.203646
0.27017
0.23236
0.163302
0.314641
0.187404
-0.00164174
-0.0274967
-0.0155968
-0.00989355
-0.00619037
-0.0118303
-0.00637513
0.00148454
0.00591796
0.281238
-0.273046
-7.23591e-05
0.000407673
-1.80699e-05
3.75643e-05
-0.489063
0.429095
0.000205418
0.429657
-0.432362
0.000461443
0.433467
-0.435546
0.00110207
0.436427
-0.439143
0.00196407
0.437301
-0.440546
0.00250287
0.427827
0.00275545
0.00532092
0.000816931
-2.05743e-06
-0.0012508
-5.47201e-05
0.000377168
0.00041042
0.000358264
0.00023314
0.000177745
0.000227085
0.00221379
0.00628345
-0.227385
0.00338574
0.0112579
-0.000594453
0.000393807
0.000598574
0.000381449
-4.96247e-05
-0.000785353
-0.00195051
-0.00284305
0.0104056
-0.00295291
-0.00781433
-0.0102264
0.2041
-0.217837
0.275805
0.000397179
-0.0371476
0.0310347
0.102324
0.000578043
-0.0909459
0.0856005
0.0877611
0.000324307
-0.0972818
0.0913126
0.0783775
1.88195e-05
-0.122199
0.116234
0.108651
-0.00207019
0.135666
-0.142848
0.139294
-0.150045
-0.0138556
-0.0827462
0.120185
-0.00989181
-0.114299
-0.00242942
-0.000760506
0.410112
-0.00142415
-0.41252
0.238869
-0.00831353
-0.247027
0.247485
-0.00537744
-0.259387
0.41551
-0.003909
-0.415323
0.406999
-0.405087
0.402792
-0.412538
0.000950819
-0.41161
0.40614
-0.000823544
-0.247175
-0.00905252
0.249342
-0.212096
0.00193828
0.373232
0.1332
0.392592
0.143558
-0.20232
0.309016
0.0286432
-0.269932
0.291319
0.00602798
-0.281404
0.284201
0.00149744
-0.280265
0.282681
0.000344747
-0.282176
0.279738
-0.00121328
-0.281492
0.27955
-0.0066455
-0.28737
0.265235
-0.03034
-0.303957
0.198621
-0.144481
-0.385315
-0.116664
-0.36077
0.235797
0.0220739
0.0117863
0.150679
0.035262
-0.232015
-0.191183
-0.0531567
-0.1479
-0.0958838
-0.0748954
-0.163815
-0.0818388
-0.0869575
-0.162719
-0.238287
-0.246917
-0.163092
0.405275
0.0223554
-0.238564
-0.00842542
0.3272
0.384977
-0.00430102
-0.284072
0.00180383
0.317708
0.471327
0.00446276
-0.464725
0.000365388
0.469744
0.00108379
-0.46768
0.00131751
0.469388
0.000600189
-0.470355
-0.000934959
0.469342
0.000482139
-0.473416
-0.000108761
0.468843
-0.00101723
-0.477868
-0.00406319
0.462557
-0.00684528
-0.484567
-0.0169504
0.00223443
-0.297814
0.483836
0.00303771
0.310347
6.32776e-05
-0.301505
0.49311
-0.000164003
0.305051
0.000125002
-0.30282
0.494351
-0.000130723
0.303408
-0.000198004
-0.30169
0.493847
9.626e-05
0.301463
0.000501016
-0.302019
0.493081
0.000321062
0.301084
0.000153626
-0.301832
0.492177
0.000534739
0.2983
0.00053793
-0.304747
0.488458
-0.00133972
0.29482
0.000102915
-0.311133
0.4655
-0.018379
0.333901
-0.0596949
0.0767398
-0.378997
-0.334219
0.174376
-0.318762
-0.0934978
-0.0645571
-0.66643
-0.362777
-0.318338
-0.226162
-0.163528
0.363142
0.420044
0.030498
-0.22602
-0.0107473
0.4757
0.0141058
-0.455418
0.00540462
0.00333458
0.00718259
0.0182966
-0.313443
-0.0151117
0.152629
-0.0224552
-0.0216382
-0.0411337
0.145935
-0.0482513
0.0198773
0.0174654
0.000458793
0.00131563
0.00120083
0.000703123
0.000599733
0.000184214
-0.00236643
-0.00171974
0.416765
-0.483113
0.0018478
-0.00250135
-0.00469032
-0.000344741
-0.39697
-0.000404696
0.40475
-0.423136
-0.000415879
0.423007
-0.429434
-2.10818e-05
-0.000124783
-0.00103893
-0.000496913
-3.9642e-05
0.000741084
0.000673685
0.000590938
0.000381828
0.000249353
0.000154051
0.00117871
0.0018367
0.000721211
0.401628
-0.404644
0.367729
-0.370201
0.371599
-0.371359
0.00208771
-0.194022
9.47171e-05
0.182992
0.00660353
-0.20446
-0.000705837
0.155354
-0.0158524
-0.0127703
0.0581619
0.00265171
-0.062878
0.463628
-0.00625078
-0.291401
0.00102575
0.29868
0.388886
-0.00268245
-0.307286
0.000285036
0.311854
0.377217
0.000185048
-0.31194
-0.000167941
0.309911
0.379078
0.0026014
-0.316207
-0.00077073
0.304717
-0.320451
-0.00129347
0.288007
-0.328901
0.0127775
-0.00937971
-0.00239235
-0.000904709
-2.22659e-05
0.000261978
0.000531417
0.00141196
0.00294121
-0.00436065
0.00133204
0.107857
0.113609
0.114972
-0.0342068
0.155432
-0.0162749
-0.0169027
0.159655
-0.0302036
0.145586
-0.0469828
0.00573806
-0.0129533
0.012483
-0.00312136
0.00282535
-0.0022905
-0.382099
0.0100671
0.0112779
0.00240636
0.000138642
-4.11077e-05
-0.0810875
0.0804259
0.00253203
-0.0684009
0.104908
-0.0213756
0.0090124
-0.00363855
-0.00415332
-0.0203688
0.151286
-0.37635
0.0227303
-0.252732
-0.0104114
0.320229
0.393186
-0.00920654
-0.289344
0.00248265
0.379157
-0.00687455
-0.30024
0.00108884
0.314518
0.380732
-0.00162304
-0.309201
0.000315568
0.312797
-0.313046
-0.000276166
0.310524
0.000696925
0.000308043
-4.22544e-05
-0.000321347
-0.00122767
0.00921791
-0.00608037
-0.000273859
0.00248849
3.86613e-05
-0.00231506
-0.0108884
-0.00917546
-0.00250409
-0.00248875
0.0022789
0.00646162
0.00119311
0.00567246
0.00150862
0.00362461
-0.00865851
-0.0122063
-0.025779
-0.0285463
-0.0607738
-0.0510338
-0.0308026
-0.118056
-0.367053
0.0315858
-0.567452
-0.417073
-0.299336
-0.19898
-0.179518
0.0710471
-0.161301
-0.0156861
0.0378725
0.00151723
-0.00616244
0.193612
-0.228771
0.28097
0.0026645
-0.0329438
0.0522718
0.119304
0.00504509
-0.081207
0.111532
0.111784
0.00549411
-0.0870863
0.115318
0.104607
0.0041583
-0.116453
0.130244
-0.00620416
0.00372369
0.0184914
0.0795008
-0.34113
-0.494841
0.00560945
0.462526
0.0132014
0.00972311
0.29895
0.00181841
-0.490511
0.497319
-0.000735346
-0.470855
0.276757
-0.317159
0.282567
-0.0313012
-0.295951
0.0159689
-0.329787
0.45958
-0.402582
0.417876
-0.00141329
-0.418878
0.000768365
0.415157
-0.00124289
-0.41682
0.000243631
0.418687
-0.00122223
-0.42044
0.409385
-0.471253
0.0271794
-0.327091
0.44768
0.0208402
0.0108077
-0.123502
0.133965
-0.138249
3.29785e-05
-0.115266
0.10588
0.00752457
-0.131642
0.0937112
-0.10702
0.00488963
0.191931
-0.115641
0.0709145
0.0176326
-0.13613
0.107059
-0.00212589
-0.0023216
-7.20191e-05
0.00450467
0.00279574
0.00144273
0.000636393
1.09301e-06
-0.00110961
-0.00280824
0.0043148
-0.00133835
0.0676236
0.0778091
0.000143764
-0.0184345
-0.0113954
0.146578
0.0531061
-0.124414
0.0639788
0.0826698
-0.130236
0.00424811
-0.15078
-0.0117074
-0.0351621
-0.121796
0.190942
0.232248
0.0121284
0.0426115
-0.0103554
0.00582396
0.101876
-0.109477
-0.00132408
-0.114844
0.11452
0.109473
-0.101832
-0.000701341
-0.138923
-6.76282e-05
0.138877
3.09799e-05
7.03608e-05
-0.00252667
0.00828963
0.00369599
0.0620422
0.662378
0.360317
0.185402
-0.00158038
-0.0245433
-0.0139537
-0.00790757
-0.0106744
-0.0226193
-0.0472078
-0.051539
-0.10468
-0.115931
-0.246599
-0.416169
-0.370602
-0.373807
0.158752
-0.249035
-0.0969858
-0.105143
-0.323836
-0.4257
-0.378031
-0.377606
-0.382717
-0.376412
-0.426817
0.16099
-0.0453963
-0.133142
0.510186
-0.159689
-0.306137
-0.298659
-0.0782777
-0.0971032
-0.226383
-0.237854
-0.0620835
-0.0957444
-0.0230374
-0.00731777
-0.0010818
0.000237828
0.000402547
-0.000615797
-0.00425883
-0.0050086
-0.0188106
-0.00786531
-0.00304965
-0.00578323
-0.0037733
-0.00514916
-0.0121374
-0.0305951
-0.012275
-0.0119983
-0.0139697
-0.00651795
-0.00167691
2.27275e-05
-0.000163483
-0.00108388
-0.00105594
-0.00347071
0.29618
0.447433
-0.463889
0.456217
-0.462877
-0.000528876
0.314836
-0.329764
-0.00145399
-0.0028064
0.00145017
0.0051066
-0.336101
0.0154269
-0.153026
0.0944115
-0.0294108
-0.00913509
-0.0108506
0.0139817
-0.131471
0.103275
-0.000774424
-0.00037209
-0.000380516
8.59311e-05
0.0673569
-0.00231454
0.000290085
0.000285991
-0.000194561
-0.0425813
0.000217922
0.0176476
0.0109472
0.0144547
-0.0120147
0.0100951
-0.00016311
0.00104702
-0.042465
0.131201
0.130249
-0.0823703
-0.0138868
-0.0652287
0.125163
0.0109881
0.00242515
5.3953e-05
6.48116e-06
-0.00248791
-0.00226751
-0.00233295
-0.000478884
-0.0101533
-0.000877478
-0.00230512
0.000732343
0.00517342
0.0011281
0.00331717
-0.329022
0.321364
0.459214
-0.465014
0.461294
-0.471494
0.00131234
0.32254
-0.331579
0.000394687
5.3028e-05
5.57928e-05
0.000551792
0.00120362
0.00301886
0.00242376
0.00544234
0.00297029
0.00636097
0.0065619
0.0158566
0.0135498
0.0143857
0.00638035
0.085526
0.00118839
0.00206102
0.000973733
0.000226442
-0.000750314
-0.00271064
-0.00301085
-0.00115217
-0.00108289
-0.000693458
-0.000153392
0.000108636
0.00025527
0.000392628
0.000347115
0.000206725
-0.00101437
0.00137303
0.0012982
3.37171e-05
0.000155937
0.000282966
0.000453446
0.000796952
0.000930754
0.000857433
0.00172507
0.00205097
0.00147604
0.00329784
0.00435562
0.00358794
0.022437
-0.0288238
-0.0409849
-0.00795033
0.00450159
0.00599821
0.00607901
-0.100784
-0.00170878
-0.000979584
-0.00149713
-0.00982238
-0.00381498
0.213737
-0.00279622
-0.284409
-0.00206588
-0.0128769
-0.263393
-0.0114528
-0.0155446
-0.165454
-0.0737565
-0.126815
-0.315284
0.0306214
0.0803678
0.0054121
-0.00423735
-0.00356891
-0.00662439
0.00184585
-0.191374
0.272337
0.00192091
-0.059962
0.0264826
0.0943326
0.000449809
-0.117588
0.0746997
0.0757675
-0.000545786
-0.121664
0.0799954
0.0667052
-0.00129512
-0.111499
0.0253042
-0.151112
0.0668833
0.105978
-0.146778
0.0443311
0.0217787
-0.00889565
-0.00197583
-0.000697146
0.000168792
0.000334141
0.000496007
0.00130979
0.00243126
0.00305985
0.00289062
0.00427955
0.411193
-0.411318
0.00180895
0.413918
-0.414437
0.372617
-0.373292
0.374206
-0.376257
0.0013926
-0.195925
-0.000938559
0.19094
0.00138493
-0.193277
-0.000169896
0.190003
-0.00110903
-0.000733038
0.0614804
0.00115704
-0.0611085
0.461973
-0.00015256
-0.29608
-5.11226e-05
0.299423
0.386727
0.00195862
-0.312776
-0.000772879
0.369927
0.00717739
-0.319501
-0.00251459
0.287487
0.365004
0.00638568
-0.394703
0.00906529
-0.328049
-0.39086
0.00853768
0.35471
0.295022
-0.322436
0.00996216
-0.00875139
0.00316148
0.0016852
0.000988132
0.000272486
-0.000518415
-0.00153179
-0.000743555
-2.51869e-05
0.000655644
0.000398845
0.000586205
0.000243493
0.415833
-0.417655
0.00174822
0.417722
-0.422165
0.377587
-0.378872
0.384411
-0.372432
-0.0143691
-0.195878
-0.00611526
0.198682
-0.00126406
-0.201089
-0.0026317
0.192475
-0.00251355
0.00222179
0.0691125
0.0049612
-0.0551195
0.46176
0.00207947
-0.29287
-0.0025141
0.300361
0.362303
0.00574277
-0.405097
0.0106052
-0.287655
-0.513732
-0.00210442
0.443306
-0.0298465
0.167495
0.00121821
0.121172
0.0765832
0.0446772
0.0287193
0.226746
-0.143583
-0.0128901
0.0061914
0.000327135
-0.000335334
-3.82305e-05
4.40274e-05
-0.000759961
-0.00494903
0.001621
0.270716
-0.194209
-0.314296
-0.0718033
0.0597169
-0.154332
0.494724
-0.228093
-0.278704
-0.269709
-0.157733
0.371664
0.410948
0.0214587
-0.254425
-0.00926765
0.380766
-0.00814233
-0.28389
0.00268112
0.31834
0.381804
-0.00466797
-0.302015
0.000884927
0.314518
0.00150416
0.00177985
-0.371649
0.00563753
-0.357906
0.03324
0.0340021
0.00112709
-0.199225
-0.333598
-0.232799
-0.164501
-0.346895
-0.122725
-0.0623145
0.0363801
0.0103411
0.470102
-0.00726957
-0.284165
0.00203248
0.302543
0.390072
-0.007211
-0.301367
0.00106249
0.378193
-0.00252927
-0.307875
0.000263239
0.312358
0.380071
0.000381332
-0.380772
-0.00054614
0.000200814
-0.377414
0.00712264
0.00727589
0.0191086
0.00559052
-0.351136
0.0158398
-0.28367
0.00113953
-0.0520881
-0.0810906
-0.0218798
0.0223314
-0.00907813
-0.433732
-0.0010217
-0.00299899
0.0613125
0.00119083
0.462061
-0.00228088
-0.294431
0.000328687
0.298025
0.388141
-0.000114829
-0.310458
-4.8272e-05
0.37542
0.00282574
-0.315271
-0.000979153
0.303649
0.375717
0.00615284
-0.388183
0.00111956
-0.000611035
5.84455e-05
0.000298276
0.000335406
0.000241883
0.000151521
7.93137e-05
-0.00115596
-0.00301094
-0.000710492
-0.000793812
-0.00100635
-0.00011668
0.000425238
0.000661703
0.000835821
0.000202928
0.000312958
-0.000183779
-0.000222371
-0.00107505
-0.000543421
0.42113
-1.68565e-05
-0.420974
0.4237
3.80098e-05
-0.428389
0.4286
-0.423183
0.427302
-0.000626679
-0.434413
0.427584
-0.424833
0.420672
-0.00187933
-0.428834
0.40913
-0.407693
0.408078
-0.409313
0.0018348
-0.420978
0.429508
0.000974087
-0.427509
0.000721628
-0.427974
0.435266
0.000584722
-0.433751
0.000261783
-0.430486
0.436953
-0.430804
0.431127
0.000110303
0.429133
-0.428528
-0.000156729
0.43362
-3.70517e-05
-0.436067
0.430182
-0.428396
-0.000934931
-0.489561
0.301662
-0.000438655
0.483976
-0.00231554
-0.486138
0.304276
0.00128408
0.470741
-0.413295
0.396356
-0.001442
-0.40316
-0.000471641
0.393296
4.24072e-05
-0.393195
0.000882277
0.403473
0.00146749
-0.396456
0.414318
-0.472024
0.00334307
0.00499099
0.00454947
0.0167709
0.0114333
-0.236476
0.24389
-0.240307
0.240255
-7.1424e-05
-0.000709172
-0.000673531
-0.24387
0.236319
-0.0115613
-0.0066609
0.12637
-0.141138
0.00049768
-0.000921255
0.392474
-0.397338
0.397567
-0.392671
0.405825
-0.427258
-0.0116268
-0.00445117
-0.126368
0.00663916
0.141073
-0.00582389
0.00259236
0.00249401
7.4035e-05
0.000130656
0.000190858
0.000215407
0.000174358
-0.43107
7.16245e-05
-0.431979
0.432379
-0.436959
0.431971
0.000124346
0.43668
-0.43032
-0.000105121
-0.490512
0.301362
3.34124e-05
0.488578
-0.300197
-4.38621e-05
-0.274232
0.279401
0.00265296
-0.275662
0.280625
0.00366756
-0.275483
0.28565
0.00698435
-0.27439
0.293125
0.00597248
-0.278517
-0.00955035
-0.000218814
-0.00152789
0.00226069
0.000165518
0.00114368
-0.000295865
0.000275697
-0.00103665
0.00128084
0.00529382
0.283973
-0.297915
-0.000447088
-0.263673
0.299631
0.0292208
0.011978
-0.000552916
0.0117765
-0.198178
-0.000302059
0.311049
0.0181357
-0.464171
-0.00297771
-0.00463368
0.0243071
0.0167041
-0.0221003
-0.235458
0.360055
0.116907
0.383002
0.142349
0.0810085
0.0194515
0.0590992
-0.33383
0.42666
-0.40513
0.0115858
0.00193452
-0.0183822
-0.00490286
-0.00254634
0.00732546
0.00170665
0.000721959
0.000857807
0.000640825
-0.491635
0.301932
-0.301964
0.491627
3.51082e-05
-0.000748188
-0.00222256
-0.000489207
-0.000633964
-2.30353e-06
0.000163511
0.000819011
0.000593578
-0.4314
3.91249e-05
-0.436818
0.433212
-0.492612
0.302336
0.00131588
0.495031
-0.304756
0.00287775
0.000260994
-0.000704551
-0.00154411
-0.00562917
-0.00407514
0.31968
0.462846
-0.483574
0.0398594
0.00696897
0.00322969
0.011657
0.00555632
0.0135102
-0.337435
0.0117856
0.0323387
-0.344069
0.00291296
0.0015067
0.00106636
0.00196565
0.00301746
0.00411894
0.00189881
0.00122835
0.000706275
0.000529123
0.000413051
0.00060767
0.000805109
0.000567569
0.000443719
0.000580424
0.000721995
0.000600754
0.00103805
0.00108543
0.000573027
0.00130662
0.00106861
0.0015119
0.00112313
7.2039e-05
-0.000898959
-0.000311776
0.00211726
0.00396557
0.000333648
-0.0225927
0.0026992
0.000563237
0.000925162
0.00113709
0.00126368
0.00105574
0.0022436
0.00138791
0.00262146
0.00145157
0.418131
-0.427228
0.00218432
0.411527
0.00689259
0.00135133
0.00336252
0.0175745
-0.0675713
0.168346
-0.134305
0.283195
0.0413747
0.19314
-0.155673
0.12606
-0.135726
0.0861163
0.0981352
-0.148215
0.0339046
-0.154583
0.090997
0.0945376
0.185374
-0.00863901
-0.00236094
-0.0235875
-0.00114697
-0.107325
-0.00167621
-0.000747303
0.000653682
0.000882858
0.00166776
0.000984712
0.000653644
0.000849221
0.000646151
0.000160961
0.000589283
0.000342097
0.00243296
0.00118494
0.000529498
-0.464174
0.462864
0.00116044
-0.296202
-0.000887824
0.302273
0.38098
0.00519516
-0.315355
-0.00208929
-0.385289
0.00176205
0.00102537
0.000212866
0.000464581
0.000231905
0.00252367
0.000602566
0.000279201
0.00045423
0.000433022
0.000428898
-0.000503113
-0.00131682
-0.00301044
-0.345202
0.00606189
0.318169
0.0181362
0.329437
-0.291153
-0.317606
0.374754
-0.251154
-0.236493
-0.195984
0.00229456
0.00196376
0.00176727
-0.37375
0.0129573
-0.00160231
-0.0607711
0.000120958
0.00526097
-0.000689751
-0.458923
0.000230366
-3.83595e-05
0.0624548
0.00221213
-0.0607262
0.000229625
0.0031768
0.00143127
0.00210533
0.000206074
-0.383246
0.000270398
-0.37304
0.00167796
-0.000469748
-0.388074
-0.000441627
0.310666
-0.0025955
-0.00166405
-0.392138
0.00592148
-0.472152
0.0190095
0.0127286
0.096227
0.0100075
-0.486562
0.0333375
0.00196785
0.00459224
0.0283616
0.18581
0.439937
0.228497
0.336025
-0.0167119
-0.00492903
-0.397339
-0.0107539
-0.0220093
0.0110968
0.22668
0.326923
-0.0173889
-0.00578247
-0.00190846
0.307106
-0.381062
-0.00517981
0.000842048
-0.0168411
-0.0308303
0.00115802
0.209317
0.329261
-0.0183299
-0.00614891
-0.00218803
-0.383991
-0.00221653
-0.000512636
-8.70399e-05
0.00208876
0.00481814
0.00154542
-0.0251384
-0.00706642
7.12304e-05
-0.00217835
-0.00584551
-0.00427697
-0.00715764
-0.000741443
0.191135
0.36865
-0.0688215
0.0597211
0.0266318
0.0328913
0.00908421
-0.002112
-0.000803765
-0.000184426
9.69701e-05
0.000285218
0.000752643
0.0023538
-0.000124151
-0.000152845
-0.00102957
0.00153224
0.000859807
0.000951522
-0.00184614
-0.01801
-0.0250497
-0.00760856
0.00265078
0.00268776
-0.485833
0.426089
0.00128312
0.00133738
0.00133985
0.00256421
0.0031793
0.0030275
0.000650967
-0.00824076
0.121049
-0.405367
0.0206334
0.0011822
0.00107211
0.000607368
0.00058921
0.00105771
0.000381391
0.000362401
0.000329404
0.000521677
0.000184284
0.000240628
0.000235032
0.000896264
0.000888804
0.432383
-0.00015915
-0.432069
0.433013
-0.000644589
-0.429466
0.429176
-0.43254
0.439088
-0.000431215
-0.433591
0.432042
-0.430876
0.00164099
0.498945
-0.310095
0.00578796
0.00252411
0.00208744
0.00125609
5.24027e-05
-0.010312
-0.0176872
-0.0356891
-0.0838361
0.00447417
-0.0359882
-0.011929
-0.00354868
0.00483064
0.00411894
-0.000470813
5.33526e-05
0.000960636
0.000497878
0.438544
-0.432431
0.433092
-0.438385
-0.000147432
-0.432363
0.437416
-1.00334e-05
-0.439281
-0.000638174
-0.430929
0.433854
-0.000249974
-0.436167
0.429232
-0.494838
-0.00157209
-0.00239541
-0.00101876
0.000308115
0.000584164
0.00220583
0.00511249
0.0211296
0.0852023
-0.026782
0.853498
-0.0204492
-0.00446396
-0.0156031
-0.149951
0.0304198
0.085904
0.00746264
-0.00124313
-0.0837489
-0.00137644
0.00255728
0.00618626
0.000395303
0.000480094
0.00656853
0.00349365
-0.264109
0.217862
-0.00873395
-0.0061056
-0.00045028
0.0446457
-0.0101951
0.0369323
0.059209
0.0956518
0.190042
0.0470501
-0.122451
0.048235
-0.154308
0.0378312
0.020972
-0.117022
0.00662111
-0.00237947
0.000271084
-0.000582234
9.58756e-06
0.0021996
-0.00104131
-0.00233498
-0.000339133
-0.00273121
-0.000952103
1.49476e-05
-0.000142439
0.000180785
-6.24022e-05
-0.000151166
-0.000870708
4.16895e-05
0.001222
0.0024716
0.0101046
0.10779
0.452687
0.0259038
-0.0801613
0.290803
-0.00441178
-0.0618764
-0.0207598
-0.0299282
0.847199
-0.0162326
-0.00470069
0.00535006
0.00214379
0.00540581
-0.0757858
-0.00164493
-0.0017695
-0.016322
-0.150989
-0.129212
-0.0780496
-0.304704
0.0310777
0.0758737
0.00388055
-0.00428077
-0.00449549
-0.0023983
-0.0935355
-0.00463594
0.0448719
-0.0269742
0.0477654
-0.00270627
-0.0853363
-0.00504837
-0.00278697
-7.90045e-05
0.00522239
0.0192291
0.00258457
0.00339383
0.0178926
0.0174537
0.000878863
-0.00176727
-0.00044376
0.00104373
0.00297968
-0.00136004
-0.00109417
0.0135453
0.321744
0.0142218
-0.000147232
0.00181073
0.000396896
9.43518e-05
-0.000188164
-0.00150605
0.00114504
0.429725
-0.490395
0.00125535
0.000556471
0.000424762
0.000452614
-0.492753
0.431564
9.45497e-05
-0.431791
0.437761
-0.436641
0.000346236
0.431718
0.000314168
0.00012643
1.01121e-05
-7.59033e-05
0.000540886
0.00102623
0.000198545
8.26889e-05
-0.00021116
-0.000947074
0.00151217
0.43403
-0.428127
0.427879
-6.30019e-05
0.000111975
0.000204322
0.000180533
-1.65938e-05
0.432771
-0.49475
-4.17032e-05
-0.000131042
0.000196446
-0.000684985
-0.00069887
-0.49645
0.432956
-0.000533743
-0.000216142
-0.000859448
0.00112431
0.000167094
0.000191408
-0.0127179
-0.0203236
-0.0825999
-0.0131648
-0.00132607
0.000114272
0.000409544
9.90314e-05
0.000199278
0.00131651
-0.00135637
-0.00154501
-0.000336129
-0.000236105
-0.00189261
-0.00117652
-0.00111665
0.000312513
-0.00173556
0.0013163
-0.00194453
-0.00676205
-0.000588458
-0.00239472
-0.0149672
0.0107063
0.029836
-0.000554005
0.0011888
-0.425059
0.0032227
0.0132728
0.0865464
-0.0017705
-0.00251477
-0.0186417
-0.176442
-0.108371
0.0246514
-0.00313537
-0.00247782
-0.00196393
-0.022364
-0.0028856
0.163045
0.049229
-0.00835884
0.0346693
0.245721
0.0213906
-0.0036118
-0.00642543
-0.00758406
-0.0113869
-0.282189
-0.251187
0.00185508
0.0254299
0.00945611
0.041004
-0.0775599
0.000477322
0.00448543
-0.0115501
0.000268287
-0.377428
0.00557198
0.00133452
-5.61432e-05
-0.00144859
0.000107499
-0.00132725
-0.452208
0.313642
-0.364486
0.0192384
0.184345
0.311864
1.20844e-05
-0.000386364
0.0010176
-0.0775905
-0.294493
-0.0204707
-0.00469842
-0.00118467
-0.0024879
-0.0866717
0.000657083
-0.278079
0.00708168
-0.269711
-0.00208205
0.0363798
0.00133117
-0.103724
0.048875
-0.00996895
0.325982
0.000392688
-0.27774
0.0214891
0.0889935
0.0162731
2.42694e-05
0.00149101
0.000324815
0.00500277
0.314999
-0.49732
0.00164953
-0.163934
2.14117e-05
0.0217054
0.0340222
0.0192247
0.00678156
-7.90171e-05
-0.00697189
-0.0194928
-0.0345053
0.000734093
0.20566
0.245152
0.243706
0.170644
-0.404873
-0.381098
-0.0187859
0.38522
-0.00823764
-0.470114
0.0791814
0.0130255
-0.0547919
0.0602016
0.00383991
-0.0561343
0.0580565
0.00241047
-0.0537635
0.0585014
0.00192944
-0.0531986
0.0573125
0.000147874
-0.0547359
0.0549109
-0.00392812
-0.0596103
0.049702
-0.0147011
-0.0786553
0.0296121
-0.0634962
-0.152329
-0.0730371
-0.228191
-0.28019
-0.274033
-0.233043
-0.248045
-0.257892
-0.246736
-0.266487
-0.253332
-0.251693
-0.262348
-0.25082
-0.267761
-0.265972
-0.248018
-0.329893
-0.154564
-0.148711
0.570257
0.036245
0.321096
-0.158625
0.415386
0.0262748
0.368652
-0.163065
0.393288
0.0218538
0.380141
-0.163567
0.388871
0.0225985
0.400105
-0.158362
0.377443
0.0241078
0.490533
0.0591806
-0.042214
-0.314315
-0.00294714
-0.237988
0.153292
-0.207208
0.182081
-0.195857
0.190327
-0.191083
0.193765
-0.190579
0.194512
-0.189605
0.198072
-0.184071
0.209081
-0.156105
0.241676
0.00461231
0.302468
0.213159
-0.0846608
0.238417
-0.222362
-0.0108732
-0.0052365
-0.122052
0.128827
-0.114727
0.212112
0.0287042
0.0344379