/*--------------------------------*- C++ -*----------------------------------*\
| =========                 |                                                 |
| \\      /  F ield         | OpenFOAM: The Open Source CFD Toolbox           |
|  \\    /   O peration     | Version:  2306                                  |
|   \\  /    A nd           | Website:  www.openfoam.com                      |
|    \\/     M anipulation  |                                                 |
\*---------------------------------------------------------------------------*/
FoamFile
{
    version     2.0;
    format      ascii;
    arch        "LSB;label=32;scalar=64";
    class       volVectorField;
    location    "0.1";
    object      flux;
}
// * * * * * * * * * * * * * * * * * * * * * * * * * * * * * * * * * * * * * //

dimensions      [0 1 -1 1 0 0 0];

internalField   nonuniform List<vector> 
5322
(
(-1.42367e-06 3.33124e-06 -4.22587e-06)
(1.7351e-07 6.48325e-07 -2.0711e-06)
(5.79845e-08 1.06968e-07 -4.77904e-07)
(-2.71885e-09 1.16117e-07 -4.76684e-07)
(-3.15318e-10 1.50669e-08 -5.02068e-08)
(-5.94072e-12 1.1021e-09 -3.30178e-09)
(1.42946e-12 5.1515e-11 -1.4862e-10)
(1.60419e-13 1.77946e-12 -5.08838e-12)
(1.32007e-14 5.84786e-14 -1.53851e-13)
(3.62869e-16 -1.17438e-14 -6.66844e-15)
(7.25495e-16 -3.70991e-15 -4.51547e-15)
(6.58304e-15 -4.36096e-15 8.00303e-16)
(-6.91299e-15 -1.532e-14 2.03612e-15)
(-7.81598e-17 2.19086e-15 2.51864e-15)
(-3.8225e-15 2.77961e-16 -9.06851e-15)
(4.28461e-15 1.65433e-15 -3.7468e-15)
(-6.12128e-15 7.40351e-15 -4.14909e-15)
(-3.81904e-15 1.14232e-14 1.77318e-15)
(-5.15474e-15 1.00554e-14 -6.6741e-15)
(-1.40254e-15 -5.05904e-16 -9.7599e-15)
(4.63314e-17 -2.97734e-15 1.66129e-15)
(2.43937e-14 -1.65356e-14 -1.40921e-14)
(4.1162e-14 2.15545e-14 -1.01085e-13)
(6.03498e-13 -4.82018e-13 -8.33339e-13)
(1.11087e-12 7.64433e-13 -4.89354e-12)
(1.82219e-11 -1.61243e-11 -3.42934e-11)
(2.5817e-11 2.84833e-11 -1.96331e-10)
(4.20803e-10 -4.26464e-10 -1.06821e-09)
(2.13594e-10 9.65656e-10 -5.26546e-09)
(6.8082e-09 -7.83976e-09 -2.19215e-08)
(-3.37857e-10 1.89374e-08 -8.86611e-08)
(7.49281e-08 -9.39276e-08 -2.79226e-07)
(-1.92492e-08 2.27371e-07 -8.7261e-07)
(5.21103e-07 -5.86565e-07 -1.9109e-06)
(4.04226e-07 9.92325e-07 -3.95289e-06)
(2.05261e-06 -1.1099e-06 -5.01795e-06)
(1.44903e-06 2.51823e-06 -7.08969e-06)
(-6.81686e-07 2.67628e-06 -6.01023e-06)
(1.44709e-06 1.43788e-06 -6.11423e-06)
(-1.51457e-07 1.86327e-06 -5.43341e-06)
(-1.4813e-06 1.96943e-06 -5.58534e-06)
(1.41794e-06 1.69753e-06 -5.76137e-06)
(-7.86986e-08 2.10712e-06 -5.28732e-06)
(-1.49126e-06 1.85097e-06 -5.72925e-06)
(1.55132e-06 1.76212e-06 -5.68094e-06)
(-6.24275e-09 2.15156e-06 -5.4119e-06)
(-1.54192e-06 1.80312e-06 -5.8436e-06)
(1.57374e-06 1.92688e-06 -5.62274e-06)
(6.02282e-08 2.21875e-06 -5.43814e-06)
(-1.6185e-06 1.77887e-06 -6.00608e-06)
(-1.69202e-06 2.31333e-06 -7.64635e-06)
(-2.38497e-06 7.00622e-07 -3.93978e-06)
(-9.30497e-07 9.66518e-07 -6.18508e-06)
(1.13094e-06 -2.22515e-06 -4.03143e-06)
(-2.95087e-08 -7.02171e-08 -2.54359e-06)
(-1.62269e-06 -1.1688e-06 -3.6683e-06)
(-1.98303e-08 8.21476e-07 -5.66348e-06)
(1.56741e-06 -1.4797e-06 -3.52073e-06)
(2.14915e-09 -2.90696e-09 -2.36903e-06)
(-1.49752e-06 -1.2444e-06 -3.54603e-06)
(1.29007e-08 8.37163e-07 -5.62799e-06)
(1.48805e-06 -1.41699e-06 -3.53109e-06)
(-1.20679e-10 1.70116e-09 -2.34141e-06)
(-1.49118e-06 -1.23843e-06 -3.46482e-06)
(4.36946e-09 8.4507e-07 -5.64844e-06)
(1.45213e-06 -1.47959e-06 -3.69447e-06)
(1.43081e-08 -3.49898e-08 -2.37192e-06)
(-1.54192e-06 -1.26141e-06 -3.37192e-06)
(1.14027e-07 8.83647e-07 -5.72083e-06)
(1.23566e-06 -1.8494e-06 -4.1103e-06)
(1.46109e-07 -1.91832e-08 -2.08198e-06)
(-5.95814e-07 6.14415e-07 -2.15436e-06)
(6.71337e-07 3.10963e-07 -2.02533e-06)
(-6.80986e-07 4.67708e-07 -1.97973e-06)
(6.44505e-07 3.25372e-07 -1.97127e-06)
(-6.54378e-07 4.32715e-07 -1.96237e-06)
(6.66962e-07 3.49984e-07 -1.97274e-06)
(-6.62934e-07 4.34378e-07 -1.98429e-06)
(7.94352e-07 3.79399e-07 -2.09239e-06)
(-6.53674e-07 5.82925e-07 -2.12982e-06)
(1.641e-07 -8.29449e-08 -2.42839e-06)
(-9.72469e-07 6.2771e-07 -2.67054e-06)
(-8.22603e-07 7.67057e-07 -2.81948e-06)
(6.62866e-07 8.94168e-07 -2.60111e-06)
(3.66654e-08 -3.31818e-08 -1.09416e-06)
(1.93621e-07 -5.44764e-08 -1.97759e-06)
(8.11829e-07 1.78491e-07 -4.82942e-06)
(-2.81879e-06 2.51018e-07 -4.47341e-06)
(-2.00603e-07 1.3311e-06 -4.04488e-06)
(2.01574e-06 2.37454e-07 -2.79935e-06)
(-1.03129e-07 3.22707e-07 -3.06463e-06)
(-1.49469e-08 1.95484e-08 -4.79744e-07)
(-3.09477e-08 2.96755e-09 -4.89159e-07)
(-2.27461e-09 -1.70946e-09 -4.29661e-07)
(2.78327e-07 3.38219e-07 -9.33729e-07)
(1.88756e-07 -3.31096e-07 -1.88566e-06)
(1.07831e-07 1.34274e-08 -1.19482e-06)
(2.55029e-07 3.2074e-07 -1.8807e-06)
(8.04842e-07 1.46363e-08 -4.78591e-06)
(-2.43757e-06 -2.43769e-07 -4.26536e-06)
(-2.45843e-06 2.43969e-07 -4.44226e-06)
(3.05855e-06 1.30951e-09 -2.7643e-06)
(2.52046e-07 3.6794e-07 -1.91619e-06)
(2.17038e-07 -3.33781e-07 -9.40523e-07)
(3.85818e-07 2.8255e-07 -1.03574e-06)
(1.30087e-07 3.12752e-08 -1.18711e-06)
(2.41691e-08 -1.12686e-08 -1.24738e-06)
(-2.1326e-10 4.9583e-09 -4.86081e-07)
(-1.10693e-09 1.2889e-09 -5.56538e-08)
(-2.00297e-10 1.89377e-10 -4.40778e-09)
(-1.92379e-11 1.71303e-11 -2.64983e-10)
(-1.23649e-12 1.09483e-12 -1.29849e-11)
(-6.04954e-14 5.40291e-14 -5.50578e-13)
(-1.17843e-15 4.04016e-15 -1.44497e-14)
(-4.6141e-16 -1.05756e-15 -3.07673e-15)
(-7.66464e-15 -7.36684e-15 1.40618e-14)
(-4.92331e-15 -1.22192e-15 1.73306e-15)
(1.10225e-15 4.60628e-16 4.35845e-15)
(-2.56475e-15 -4.9157e-15 -9.5513e-15)
(-3.81683e-15 -2.01721e-15 2.21854e-15)
(-6.68936e-15 6.60878e-15 -1.09363e-15)
(4.74574e-15 2.91492e-15 -8.21665e-16)
(-4.76166e-15 -7.65337e-15 -5.46928e-15)
(1.9987e-15 -5.72077e-15 9.91861e-15)
(-1.71722e-15 6.80317e-15 4.67527e-15)
(-8.84202e-15 -7.1924e-15 2.28588e-14)
(-4.98262e-15 1.84335e-15 5.08703e-15)
(-1.19051e-15 2.15115e-15 7.77258e-15)
(-3.8526e-16 5.96122e-15 -2.3401e-15)
(1.34754e-14 2.73238e-15 -1.21598e-14)
(7.25714e-15 -2.40622e-15 -4.27772e-15)
(-2.43677e-15 5.31644e-16 -2.51569e-14)
(8.50016e-15 1.63345e-15 -1.26045e-14)
(5.38499e-15 -7.80714e-15 -9.55371e-15)
(-1.45239e-16 -5.10409e-15 -2.19472e-15)
(-1.1132e-16 -5.3578e-15 4.22318e-15)
(-4.11523e-16 -4.42714e-16 9.71818e-15)
(-6.04334e-15 1.42279e-14 1.5035e-14)
(-1.86022e-15 -8.42126e-16 -6.20282e-15)
(2.51079e-15 6.79421e-15 -1.04982e-14)
(1.99538e-15 3.64328e-15 1.5706e-15)
(-2.72632e-15 2.20745e-15 -3.62264e-15)
(-4.56915e-15 -6.26649e-16 1.00996e-14)
(-2.08163e-15 -4.49086e-15 7.08514e-15)
(-5.30921e-16 6.12001e-15 4.40768e-15)
(-8.35501e-15 2.52113e-16 1.27307e-14)
(-1.40083e-15 -1.31452e-15 5.25333e-15)
(6.63265e-15 1.44345e-15 -9.7785e-15)
(1.12789e-15 3.45255e-15 -8.46229e-15)
(-2.77429e-15 -8.94297e-15 -1.31105e-14)
(-1.07658e-15 -5.07312e-15 -6.29866e-15)
(1.78212e-15 2.49151e-15 -4.65826e-15)
(-2.72985e-15 7.13358e-16 -3.05984e-15)
(-4.18436e-15 5.09117e-16 2.99316e-16)
(-4.48973e-15 -4.9157e-15 -2.88524e-15)
(1.4683e-15 -1.12125e-14 -5.84664e-15)
(-9.54061e-16 -5.83945e-16 -4.24128e-16)
(-3.16204e-15 -3.96025e-15 1.60155e-15)
(-3.78985e-15 -1.64194e-15 9.32582e-16)
(-5.35858e-15 -2.13097e-15 7.50177e-16)
(-4.13516e-15 3.33888e-15 1.62326e-15)
(-6.00537e-15 -1.13512e-15 -2.68729e-16)
(5.07039e-15 1.7711e-15 -2.03157e-15)
(-1.5073e-15 9.44846e-16 -8.90668e-16)
(-3.69819e-16 3.9731e-15 -1.16675e-15)
(-8.32244e-15 1.2686e-15 -3.2704e-15)
(-1.36752e-14 6.15312e-15 -8.08236e-17)
(-1.2234e-14 -1.39507e-15 3.39749e-15)
(-5.8789e-15 -5.66279e-15 -6.80119e-17)
(2.9675e-15 -4.0241e-17 1.15613e-14)
(4.16115e-16 9.80351e-15 6.85539e-15)
(2.51543e-15 4.6813e-16 -3.70057e-16)
(1.13147e-14 8.1624e-15 8.10434e-15)
(1.45609e-14 -4.64715e-16 -4.4716e-15)
(5.12649e-15 -3.45766e-15 7.44883e-15)
(-1.2411e-15 -3.96534e-15 -2.67432e-15)
(9.86474e-15 1.0597e-15 -1.05641e-15)
(6.99653e-15 6.71686e-15 4.90309e-15)
(-5.71981e-15 3.97441e-15 1.76344e-16)
(2.51776e-15 1.0056e-15 -3.82923e-15)
(2.52506e-15 1.24958e-16 -1.72626e-14)
(7.98253e-16 1.27158e-14 -2.41092e-14)
(-4.34507e-14 -2.66001e-14 -7.73279e-14)
(-1.41794e-15 7.36273e-16 -3.68952e-14)
(-4.10747e-14 3.63831e-14 -8.79185e-14)
(-2.36195e-14 -1.08284e-13 -4.60357e-13)
(2.11102e-16 1.38329e-13 -4.32398e-13)
(-1.07578e-12 -6.69527e-13 -2.04692e-12)
(-1.38938e-13 5.01504e-14 -7.49244e-13)
(-1.10824e-12 8.60728e-13 -2.26761e-12)
(-5.79603e-13 -3.21995e-12 -1.24049e-11)
(1.65973e-14 3.67261e-12 -1.20064e-11)
(-2.64724e-11 -1.87051e-11 -5.64333e-11)
(-3.24025e-12 7.92069e-13 -2.02723e-11)
(-2.58429e-11 2.13827e-11 -6.00682e-11)
(3.59366e-12 -8.91379e-11 -3.17518e-10)
(1.87673e-11 9.58549e-11 -3.11932e-10)
(-5.54805e-10 -4.68295e-10 -1.4049e-09)
(-3.77563e-11 1.15947e-11 -5.07736e-10)
(-5.10894e-10 4.96701e-10 -1.45394e-09)
(6.76204e-10 -2.07479e-09 -6.73821e-09)
(1.03286e-09 2.17491e-09 -6.68635e-09)
(-9.13538e-09 -8.99583e-09 -2.64513e-08)
(1.29354e-10 1.27587e-10 -1.01359e-08)
(-7.93877e-09 9.09356e-09 -2.68487e-08)
(1.89935e-08 -3.3897e-08 -1.00261e-07)
(2.51819e-08 3.51472e-08 -1.00176e-07)
(-1.04088e-07 -1.1109e-07 -3.18263e-07)
(1.05724e-08 8.27973e-10 -1.36798e-07)
(-8.55223e-08 1.08112e-07 -3.18969e-07)
(2.11183e-07 -3.30014e-07 -9.31188e-07)
(2.66104e-07 3.3058e-07 -9.25067e-07)
(1.98242e-07 -3.18779e-07 -1.88474e-06)
(7.7138e-07 -3.79351e-11 -4.76646e-06)
(-2.40286e-06 -2.41066e-07 -4.26014e-06)
(-2.45028e-06 1.63847e-07 -4.25896e-06)
(3.00349e-06 -2.97895e-08 -2.74567e-06)
(-2.53497e-07 1.31758e-09 -3.20069e-06)
(-2.52984e-07 5.37145e-09 -3.21433e-06)
(-3.36829e-08 1.31716e-09 -4.895e-07)
(-1.03267e-09 5.7806e-10 -4.33172e-07)
(2.87811e-07 3.44392e-07 -9.46426e-07)
(2.26097e-07 -3.04756e-07 -1.90542e-06)
(1.23107e-07 9.47016e-09 -1.22346e-06)
(1.90198e-07 4.49747e-07 -2.01125e-06)
(7.91422e-07 -1.1005e-07 -4.8808e-06)
(-2.43485e-06 -1.54215e-07 -4.32689e-06)
(-2.39695e-06 2.45001e-07 -4.22882e-06)
(2.99955e-06 -3.43459e-08 -2.77447e-06)
(2.41781e-07 3.28891e-07 -1.88093e-06)
(2.12392e-07 -3.34907e-07 -9.3217e-07)
(1.06154e-07 7.60561e-09 -1.19106e-06)
(2.28446e-08 1.67271e-09 -1.17839e-06)
(-2.85462e-10 3.46563e-11 -4.86458e-07)
(-1.15409e-09 -1.05092e-09 -5.61507e-08)
(-2.08349e-10 -1.89755e-10 -4.43122e-09)
(-2.01825e-11 -1.84378e-11 -2.63593e-10)
(-1.2769e-12 -1.19093e-12 -1.27706e-11)
(-6.24543e-14 -5.80939e-14 -5.40786e-13)
(-7.85884e-15 -8.55936e-15 -2.03639e-14)
(-7.36208e-15 -4.05024e-15 -1.87194e-15)
(-6.50335e-15 1.59625e-15 1.36161e-14)
(-7.29951e-15 6.2699e-15 -2.52594e-15)
(-3.3894e-15 -2.49645e-15 -6.17142e-15)
(1.73003e-15 -3.88342e-15 -3.56708e-15)
(-2.7762e-15 2.71046e-15 -4.81467e-16)
(-1.83665e-16 1.63391e-15 2.4838e-15)
(4.87447e-16 -1.42263e-15 -2.15819e-15)
(4.99e-15 -8.82301e-15 1.6235e-15)
(1.72573e-16 -2.50606e-15 -9.50187e-16)
(2.83109e-15 -1.35253e-15 -3.24218e-15)
(1.13158e-15 -5.33454e-15 -3.97011e-15)
(-2.62414e-15 1.81345e-15 -2.27326e-15)
(-8.85165e-15 2.80665e-15 -4.34419e-15)
(-4.37919e-15 -2.48237e-15 1.3613e-15)
(-4.69868e-17 -7.76426e-15 1.71641e-16)
(-4.20853e-15 -6.31123e-15 1.21852e-14)
(5.33621e-15 -4.91389e-15 3.33419e-14)
(-1.03569e-15 -3.80904e-15 1.17527e-14)
(-1.98548e-15 -5.16873e-15 1.51019e-15)
(-7.05215e-15 -4.28139e-15 7.88835e-15)
(-7.34433e-17 3.06226e-15 9.93166e-16)
(-6.90426e-15 0 5.89414e-15)
(-8.48927e-15 -7.3695e-15 1.065e-14)
(-7.46019e-15 -5.37021e-15 -3.0691e-15)
(2.94653e-15 9.11438e-16 1.56032e-15)
(3.626e-15 1.12682e-14 5.24775e-15)
(2.28268e-15 2.25904e-15 5.18428e-15)
(-1.45633e-14 -1.731e-14 -1.50067e-14)
(-1.0485e-15 -1.73925e-14 -1.27766e-14)
(-3.16362e-14 -5.27665e-14 -8.86548e-14)
(1.38027e-13 7.6193e-16 -4.57896e-13)
(-7.04495e-13 -1.05684e-12 -2.18556e-12)
(3.87368e-12 2.01834e-13 -1.27266e-11)
(-1.92952e-11 -2.57975e-11 -5.97083e-11)
(9.99368e-11 2.28091e-11 -3.24851e-10)
(-4.71635e-10 -5.32455e-10 -1.44517e-09)
(2.20088e-09 1.03834e-09 -6.80571e-09)
(-8.90059e-09 -8.68171e-09 -2.66002e-08)
(3.48559e-08 2.41538e-08 -1.00611e-07)
(-1.09412e-07 -9.91252e-08 -3.17087e-07)
(3.33265e-07 2.65374e-07 -9.35773e-07)
(-3.3132e-07 1.96523e-07 -1.88333e-06)
(1.04542e-08 8.12099e-07 -4.78756e-06)
(3.20792e-07 2.35162e-07 -1.89023e-06)
(9.71916e-09 1.06358e-07 -1.19361e-06)
(-3.25335e-07 2.26642e-07 -9.27277e-07)
(1.06923e-07 -9.12558e-08 -3.19397e-07)
(8.3151e-10 1.09055e-08 -1.36853e-07)
(-3.34952e-08 2.12782e-08 -1.00485e-07)
(9.08651e-09 -8.44211e-09 -2.70986e-08)
(1.39367e-10 2.14837e-10 -1.02428e-08)
(-2.08544e-09 8.83329e-10 -6.85841e-09)
(5.0635e-10 -5.38668e-10 -1.49598e-09)
(1.25433e-11 -2.98901e-11 -5.23331e-10)
(-9.24988e-11 1.57748e-11 -3.30921e-10)
(2.20839e-11 -2.71275e-11 -6.31996e-11)
(8.14075e-13 -2.88145e-12 -2.12924e-11)
(-3.45562e-12 -1.03907e-13 -1.31486e-11)
(8.63233e-13 -1.1531e-12 -2.37801e-12)
(4.51949e-14 -1.36508e-13 -7.81457e-13)
(-1.25161e-13 -6.60388e-15 -4.92653e-13)
(3.148e-14 -5.1795e-14 -9.06238e-14)
(-7.83522e-15 -1.04004e-14 -3.1189e-14)
(-5.87239e-15 -5.96795e-15 -2.068e-14)
(2.18504e-15 -1.47071e-14 -1.50599e-15)
(2.3731e-15 -2.74411e-15 -6.6319e-16)
(1.02055e-14 -9.21663e-15 9.19861e-15)
(-6.33909e-15 -8.68957e-15 2.61812e-15)
(-5.72726e-15 -2.18425e-14 5.8237e-15)
(-1.80421e-15 -1.29504e-14 -3.81107e-16)
(-8.79212e-15 -4.47232e-15 1.91901e-15)
(-1.87709e-16 -1.1766e-14 5.11758e-15)
(5.31702e-15 -7.45729e-15 -2.94765e-15)
(-2.54401e-15 -7.9127e-15 7.73709e-15)
(1.43875e-15 -2.49368e-15 -2.61647e-15)
(-3.95746e-15 3.34775e-15 5.00897e-16)
(6.24022e-15 -1.8248e-15 -8.29533e-15)
(5.49118e-15 5.33375e-15 -3.87332e-15)
(1.50883e-15 4.40474e-15 -5.80371e-15)
(-1.75423e-15 -2.71153e-15 -2.22761e-15)
(-1.31892e-15 2.6822e-15 -1.2573e-14)
(-3.71984e-14 -4.27468e-14 -8.24851e-14)
(5.93182e-14 -2.10192e-14 -3.62958e-13)
(-8.07698e-13 -9.66433e-13 -1.91225e-12)
(2.02559e-12 -2.71571e-13 -1.06848e-11)
(-2.18573e-11 -2.37796e-11 -5.6153e-11)
(7.2801e-11 1.51844e-11 -3.0421e-10)
(-5.09281e-10 -4.97508e-10 -1.44956e-09)
(2.03202e-09 1.0054e-09 -6.92461e-09)
(-9.15477e-09 -8.18445e-09 -2.75697e-08)
(3.61963e-08 2.57236e-08 -1.0642e-07)
(-1.0685e-07 -8.91936e-08 -3.24698e-07)
(3.53335e-07 2.57762e-07 -9.78245e-07)
(-2.9444e-07 2.42121e-07 -1.91319e-06)
(-1.60837e-07 7.03999e-07 -4.8838e-06)
(9.42325e-08 1.47227e-07 -2.13171e-06)
(2.52149e-08 1.28265e-07 -1.22577e-06)
(-3.15605e-07 3.98414e-07 -1.13906e-06)
(1.04482e-07 -1.20121e-07 -3.80094e-07)
(-8.0581e-10 1.529e-08 -1.39351e-07)
(-3.10399e-08 4.33757e-08 -1.18314e-07)
(8.08365e-09 -9.3772e-09 -2.95359e-08)
(-5.12926e-10 5.22353e-10 -9.90991e-09)
(-1.82498e-09 2.06723e-09 -7.11287e-09)
(3.31899e-10 -4.68434e-10 -1.37019e-09)
(-5.91068e-11 -1.1683e-11 -4.49832e-10)
(-7.95703e-11 5.36048e-11 -2.7544e-10)
(9.01813e-12 -1.8819e-11 -4.41766e-11)
(-3.6596e-12 -1.87958e-12 -1.55466e-11)
(-2.84158e-12 8.16772e-13 -8.17873e-12)
(2.53625e-13 -7.07447e-13 -1.26328e-12)
(-1.51011e-13 -9.44018e-14 -5.13815e-13)
(-1.03276e-13 2.80248e-14 -2.66036e-13)
(9.57714e-15 -2.21204e-14 -5.16574e-14)
(-6.80152e-15 2.69054e-15 -1.47196e-14)
(-3.27697e-15 9.86834e-15 -6.69707e-15)
(1.44047e-15 -1.34376e-15 -2.93064e-15)
(3.42535e-15 5.87285e-15 -1.92201e-15)
(1.93338e-16 1.19165e-14 -2.96759e-15)
(2.37635e-16 8.91246e-16 2.19326e-15)
(5.60741e-15 -1.51863e-15 3.99843e-15)
(6.33467e-15 1.28928e-14 -9.59153e-15)
(-1.14602e-14 -6.70447e-16 1.63009e-14)
(-1.22061e-14 1.00409e-14 4.23927e-15)
(4.58054e-15 -1.49833e-15 -6.18911e-16)
(-1.08184e-15 -6.18632e-15 1.96179e-15)
(-4.40887e-15 7.81227e-15 4.90815e-15)
(-4.98312e-15 7.9277e-15 -9.32448e-16)
(9.32466e-15 3.42339e-15 1.00376e-14)
(6.79407e-15 6.54131e-15 -1.79033e-15)
(-6.70724e-16 6.15653e-15 -1.30733e-15)
(-4.76689e-15 8.42926e-15 -7.01276e-15)
(-1.72744e-14 -1.5532e-14 -9.30764e-15)
(4.82965e-15 -4.38988e-15 -1.1996e-15)
(-1.15176e-14 2.15282e-15 4.16869e-15)
(-1.11646e-14 -7.34998e-15 1.01205e-14)
(2.65846e-16 -1.14946e-18 8.96281e-16)
(-2.36776e-16 1.87894e-15 3.69122e-15)
(1.05104e-14 -4.75134e-16 4.12957e-15)
(-5.02546e-15 2.50396e-15 1.25492e-14)
(-3.42528e-15 4.4868e-15 3.85348e-15)
(3.36382e-15 4.24798e-17 1.87436e-15)
(-5.95824e-15 -1.4517e-15 1.47684e-14)
(1.66742e-15 3.17259e-15 6.84312e-15)
(7.83876e-15 -7.66291e-15 2.23179e-15)
(2.67413e-15 -3.86797e-15 3.57198e-15)
(-1.85644e-15 -7.07678e-15 -4.07157e-16)
(6.06785e-15 -1.07454e-14 3.69255e-15)
(1.27218e-14 3.31699e-15 2.28556e-15)
(6.76115e-15 -4.73454e-16 1.27056e-15)
(1.38899e-14 2.61235e-16 -3.43959e-15)
(9.95585e-15 8.19717e-16 -5.92133e-15)
(3.73193e-15 5.69598e-15 -2.6602e-14)
(-3.92329e-14 -3.11459e-14 -7.97331e-14)
(3.07961e-15 1.24449e-13 -4.71992e-13)
(-1.1996e-12 -8.60637e-13 -2.23699e-12)
(-1.5075e-12 -2.81821e-14 -3.1118e-12)
(-1.15404e-13 3.07331e-12 -1.21902e-11)
(-2.86294e-11 -2.22883e-11 -5.89661e-11)
(1.29292e-11 8.33983e-11 -3.1195e-10)
(-5.86088e-10 -5.15532e-10 -1.44247e-09)
(-6.45747e-10 -3.10185e-11 -2.09375e-09)
(9.53337e-10 2.03459e-09 -6.70158e-09)
(-9.41292e-09 -9.263e-09 -2.6859e-08)
(2.45123e-08 3.41065e-08 -1.00205e-07)
(-1.03357e-07 -1.09343e-07 -3.19081e-07)
(-2.2083e-09 -1.62283e-09 -4.28071e-07)
(-3.38201e-08 -2.46284e-10 -4.85105e-07)
(-7.65729e-09 -1.52241e-11 -5.30504e-08)
(-7.522e-09 -4.44154e-10 -5.30515e-08)
(-9.59215e-10 -1.14726e-10 -3.8229e-09)
(-6.99496e-10 -1.63576e-10 -1.94754e-09)
(6.25538e-10 1.70693e-09 -6.34585e-09)
(-1.0031e-08 -9.75861e-09 -2.69697e-08)
(-5.33807e-11 -4.08775e-10 -9.77497e-09)
(-7.56467e-09 9.68572e-09 -2.64772e-08)
(1.89371e-08 -4.30194e-08 -1.04499e-07)
(2.69818e-08 3.48211e-08 -1.02106e-07)
(-1.05634e-07 -1.1208e-07 -3.22297e-07)
(1.29727e-08 -4.35146e-10 -1.39557e-07)
(-8.88689e-08 1.34614e-07 -3.38995e-07)
(2.02013e-07 -3.9937e-07 -9.76415e-07)
(4.71792e-07 2.86927e-07 -1.22726e-06)
(3.29964e-07 -3.24151e-07 -2.11287e-06)
(3.18023e-07 -1.62189e-06 -5.67633e-06)
(-2.67846e-06 -1.54369e-07 -4.72022e-06)
(-2.49323e-06 2.55617e-07 -4.2492e-06)
(3.14297e-06 -4.98359e-07 -3.06516e-06)
(-2.64683e-07 -1.65592e-07 -3.47811e-06)
(-1.60122e-08 -1.2425e-08 -5.12812e-07)
(1.11121e-08 1.84464e-07 -4.78234e-07)
(-1.51776e-07 1.44032e-07 -4.58448e-07)
(7.34851e-09 5.53564e-09 -1.33575e-07)
(6.56552e-10 -4.2255e-08 -1.32623e-07)
(-1.04337e-08 1.18622e-08 -3.00749e-08)
(-1.06084e-09 -9.97354e-10 -7.48313e-09)
(-3.62235e-10 -1.12808e-09 -6.06633e-09)
(-5.08953e-10 5.13622e-10 -1.09403e-09)
(-1.11655e-10 -8.5122e-11 -2.60359e-10)
(-3.43227e-11 -1.54028e-11 -1.53197e-10)
(-1.7789e-11 1.47485e-11 -2.2624e-11)
(-5.21784e-12 -3.97963e-12 -6.36443e-12)
(-1.13849e-12 -2.40443e-13 -1.95359e-12)
(-4.54157e-13 3.26817e-13 -3.56379e-13)
(-1.50836e-13 -1.29411e-13 -1.80724e-13)
(-1.56548e-14 -2.36137e-14 -4.63845e-14)
(-1.70894e-14 1.48505e-14 -1.96571e-14)
(-7.3021e-15 -2.17102e-15 -4.84767e-15)
(9.96503e-17 -5.65993e-15 -2.18182e-15)
(5.7012e-15 -2.54724e-15 -2.28241e-15)
(-2.89128e-15 -1.96569e-15 -3.14048e-15)
(-6.50088e-16 3.60122e-15 9.03325e-16)
(-1.83254e-15 1.18779e-14 -1.29723e-15)
(1.48395e-14 -2.46489e-15 1.24588e-14)
(-1.88493e-15 1.57657e-15 -4.15359e-16)
(7.93072e-16 5.20597e-15 -1.06165e-14)
(1.11122e-15 9.88805e-15 -2.89351e-15)
(1.35188e-15 5.80899e-15 5.4375e-15)
(3.60339e-15 7.72002e-16 -1.30367e-14)
(-2.75048e-14 -1.7783e-14 -4.73061e-14)
(-1.26196e-15 -4.90004e-15 -1.37933e-13)
(-7.01206e-13 -3.17963e-13 -7.17894e-13)
(-5.89267e-13 2.36082e-13 -1.0006e-12)
(-1.06803e-12 -8.19327e-13 -1.66996e-12)
(-1.21292e-13 -1.43377e-13 -4.9477e-13)
(8.55825e-15 -1.26776e-13 -2.71615e-13)
(-5.07785e-15 6.72056e-14 -3.51487e-13)
(-3.98316e-14 -3.71441e-14 -7.78395e-14)
(6.20487e-15 -1.11206e-14 -2.50193e-14)
(-1.92234e-14 1.87795e-14 -5.34365e-14)
(-1.66902e-14 -1.12187e-14 -6.5018e-14)
(-5.84544e-14 -5.73667e-14 -2.19655e-13)
(-2.25306e-15 8.66274e-15 -8.61826e-15)
(-2.11928e-16 7.96402e-15 -1.762e-16)
(2.48969e-15 8.05726e-16 -4.41941e-15)
(2.07433e-15 7.34276e-16 3.35767e-15)
(-4.29462e-15 -1.90587e-15 -7.80812e-15)
(2.7883e-15 6.38116e-15 -3.77172e-15)
(3.28593e-15 3.56416e-15 -1.19211e-14)
(-1.29037e-14 6.86716e-15 5.16195e-15)
(-3.05121e-15 4.82273e-15 5.30688e-15)
(-1.08975e-14 4.38251e-15 -1.19894e-15)
(2.68217e-15 -6.70259e-17 4.57816e-15)
(-1.22153e-15 -9.6348e-15 2.35408e-15)
(-7.97014e-15 6.30839e-15 1.6443e-15)
(-1.03722e-14 3.54693e-15 -2.57406e-15)
(5.37522e-15 3.98629e-15 -4.55763e-15)
(6.67566e-15 -5.57203e-15 -1.34914e-14)
(-1.86895e-15 -4.40076e-15 -3.57383e-14)
(-2.64689e-14 -1.67876e-14 -5.60871e-14)
(-6.05981e-14 -6.83234e-13 1.47338e-13)
(3.47416e-13 -5.43305e-14 6.07937e-13)
(-7.89028e-14 -5.94433e-14 4.88156e-14)
(-1.02535e-14 -3.31306e-14 -2.67004e-14)
(-6.68707e-14 -1.35456e-13 -1.12957e-13)
(-5.21194e-14 -1.10063e-13 5.53955e-14)
(-1.20038e-12 3.56597e-13 -8.18869e-13)
(-1.69666e-12 -1.39795e-14 -3.39719e-12)
(-2.11574e-11 -8.51785e-12 -2.51875e-11)
(-3.1197e-11 2.66626e-11 -1.75142e-10)
(-5.70961e-10 -2.75756e-10 -1.08424e-09)
(-4.26008e-10 3.49421e-10 -1.12319e-09)
(-6.05209e-10 -5.30754e-10 -1.30733e-09)
(-6.31168e-11 -5.35246e-11 -4.12708e-10)
(-2.40918e-11 -8.6438e-11 -2.31892e-10)
(-2.15215e-11 4.63712e-11 -2.5427e-10)
(-2.7449e-11 -2.17298e-11 -4.5768e-11)
(-3.8139e-12 -3.39205e-12 -1.33966e-11)
(-1.75515e-11 7.76074e-12 -3.1312e-11)
(-3.79794e-11 -1.02131e-11 -3.91753e-11)
(-4.88759e-11 -2.7003e-11 -1.5487e-10)
(-2.00752e-12 -1.41953e-12 -5.76352e-12)
(-6.96096e-13 -8.81499e-13 -1.12564e-12)
(-7.56247e-13 -2.48325e-14 -4.52709e-12)
(-3.96196e-13 2.27236e-13 -4.44633e-13)
(-1.26745e-13 1.91497e-13 8.49789e-14)
(-2.10607e-14 -7.02815e-15 -1.19137e-13)
(-1.01893e-14 -2.01636e-15 -2.86561e-14)
(3.19204e-15 -6.71578e-15 -2.49134e-14)
(-7.06562e-15 8.36249e-15 -1.56091e-14)
(3.5418e-15 -1.00309e-14 -1.26732e-14)
(-1.72446e-14 -1.71919e-14 -4.59767e-14)
(-7.26962e-16 1.36515e-15 -2.62074e-14)
(6.79437e-15 -5.39389e-15 -7.44618e-15)
(7.27e-15 1.71604e-14 5.2867e-16)
(1.24214e-14 -8.7959e-15 -8.25695e-15)
(1.20307e-15 1.05829e-14 -7.25023e-15)
(7.3553e-16 -1.05289e-14 2.18938e-15)
(-2.65592e-15 -1.40439e-15 2.23214e-15)
(-1.77375e-15 3.10548e-15 5.86332e-15)
(1.18836e-15 4.58262e-16 -1.75605e-16)
(4.03327e-15 -7.72928e-15 4.5948e-15)
(6.17075e-15 -1.43523e-14 -2.90475e-15)
(6.66133e-16 -9.24903e-15 -1.02103e-14)
(2.85238e-15 -3.70637e-15 -1.35047e-14)
(2.74215e-15 -7.15698e-15 -1.39118e-14)
(-3.37487e-14 -4.15006e-14 -9.32937e-14)
(-3.28449e-15 -8.04695e-15 -3.40212e-14)
(3.36055e-14 -4.5226e-14 -8.35578e-14)
(-2.09833e-15 -4.25913e-14 -1.02369e-13)
(-1.37471e-13 -8.99111e-15 -4.40228e-13)
(1.16275e-13 -1.56427e-14 -4.77388e-13)
(-8.89225e-13 -1.16185e-12 -2.34109e-12)
(-5.66074e-14 -1.50531e-13 -7.57711e-13)
(6.3506e-13 -1.03322e-12 -2.05627e-12)
(-2.50736e-13 -1.47427e-12 -2.8096e-12)
(-3.85797e-12 4.85989e-14 -1.23117e-11)
(3.18968e-12 -2.86336e-13 -1.29024e-11)
(-2.26746e-11 -2.73067e-11 -6.27377e-11)
(-1.15565e-12 -3.05326e-12 -2.08788e-11)
(1.81448e-11 -2.55228e-11 -5.79491e-11)
(-3.42854e-12 -3.76967e-11 -8.31224e-11)
(-1.00637e-10 1.99407e-11 -3.23171e-10)
(8.8947e-11 1.29185e-11 -3.28654e-10)
(-5.12767e-10 -5.4458e-10 -1.49602e-09)
(-1.3863e-11 -3.26141e-11 -5.22877e-10)
(4.69379e-10 -5.40328e-10 -1.45294e-09)
(-7.65363e-12 -6.91393e-10 -2.1435e-09)
(-2.22858e-09 1.0126e-09 -6.8991e-09)
(2.09182e-09 9.03583e-10 -6.89645e-09)
(-9.09357e-09 -8.59167e-09 -2.71519e-08)
(-5.98227e-11 2.06597e-10 -1.03516e-08)
(9.16553e-09 -8.95371e-09 -2.72693e-08)
(5.81425e-10 -6.64688e-09 -3.9667e-08)
(-3.51303e-08 2.35726e-08 -1.01856e-07)
(3.4163e-08 2.27553e-08 -1.0158e-07)
(-1.06647e-07 -9.4065e-08 -3.17983e-07)
(4.32923e-10 1.11417e-08 -1.37931e-07)
(1.11567e-07 -1.00372e-07 -3.23565e-07)
(4.29449e-09 1.02559e-08 -4.3835e-07)
(-3.30601e-07 2.43497e-07 -9.30531e-07)
(3.26024e-07 2.43402e-07 -9.33861e-07)
(-3.18409e-07 2.17284e-07 -1.88516e-06)
(3.82713e-10 1.06003e-07 -1.19212e-06)
(3.3172e-07 2.05151e-07 -1.90133e-06)
(-2.93858e-08 3.03275e-06 -2.80524e-06)
(-1.91195e-07 -2.4227e-06 -4.33883e-06)
(1.23847e-07 -2.58026e-06 -4.23452e-06)
(-2.55554e-07 2.48354e-06 -3.04317e-06)
(-1.53048e-06 6.3926e-07 -3.30416e-06)
(1.62228e-07 1.75491e-07 -1.33622e-06)
(-1.20952e-07 -7.1371e-07 -1.4366e-06)
(-7.40656e-08 -2.42476e-07 -6.23357e-07)
(-1.20795e-07 -1.40752e-07 -5.49263e-07)
(1.6956e-08 6.5078e-08 -4.32836e-07)
(-1.31366e-07 -1.01016e-07 -3.6027e-07)
(4.28128e-08 7.21275e-09 -4.81582e-07)
(-3.9103e-07 4.43514e-08 -7.23878e-07)
(-3.37743e-07 -1.04387e-07 -6.78613e-07)
(1.92285e-08 -5.64706e-08 -2.85358e-07)
(-2.64823e-08 -2.9876e-09 -5.64755e-08)
(-3.90814e-08 4.60975e-09 -7.31128e-08)
(-1.56734e-09 3.45327e-12 -3.07124e-09)
(-9.76285e-10 1.09373e-10 -1.73787e-09)
(-5.92424e-11 2.15586e-11 -4.54965e-10)
(-1.05707e-11 6.38405e-12 -3.57029e-12)
(-2.49785e-11 -1.34009e-11 -4.11673e-11)
(-3.34647e-11 -1.96765e-11 -1.0103e-10)
(-8.65049e-13 -6.73826e-13 -2.64554e-12)
(-3.22787e-14 -1.5194e-14 -1.19512e-13)
(-6.01646e-15 -1.27111e-14 -1.3707e-14)
(-5.57701e-15 -1.27069e-14 5.15183e-15)
(-6.66163e-15 -3.15676e-15 5.30858e-15)
(-8.81003e-15 -7.97791e-15 -2.9945e-16)
(4.41633e-15 -2.69716e-15 2.49879e-15)
(4.55131e-15 2.5138e-16 -6.10711e-15)
(-3.36598e-15 -4.87523e-15 7.94618e-15)
(9.8472e-16 -2.6015e-15 3.62245e-15)
(4.03112e-15 -8.2584e-15 -1.96944e-15)
(2.53218e-15 -1.72112e-17 6.87479e-15)
(-3.33051e-15 -2.46781e-15 1.34456e-14)
(1.55596e-14 -1.46018e-15 -3.07047e-15)
(3.1127e-15 1.18963e-15 -7.63369e-16)
(1.42358e-15 6.62188e-15 7.80066e-15)
(-5.58039e-16 -8.25323e-15 -6.00929e-16)
(-3.11188e-15 6.2774e-16 6.78905e-15)
(-2.48588e-15 4.97617e-15 1.26174e-15)
(1.11598e-16 1.6505e-15 -7.2258e-16)
(9.26835e-16 -1.74881e-15 -4.46504e-16)
(-3.67591e-16 4.77084e-15 4.38742e-15)
(4.86341e-15 3.95961e-15 -2.54357e-15)
(-7.87595e-15 8.94251e-15 -1.61293e-14)
(-2.76324e-15 -2.9007e-15 -3.9541e-15)
(5.60464e-15 -4.11076e-15 4.46815e-15)
(6.646e-15 5.45839e-15 1.07225e-14)
(-8.66506e-15 4.51668e-15 5.13798e-15)
(3.4964e-16 9.23173e-15 1.57806e-15)
(-4.87288e-15 8.76248e-15 8.17621e-16)
(-1.20742e-14 -6.51118e-15 6.87919e-15)
(-5.14248e-15 7.65126e-16 -6.69398e-15)
(-1.4983e-14 -1.10278e-14 -2.36643e-14)
(2.36218e-15 -6.65222e-15 -1.42461e-14)
(-6.92666e-15 3.50038e-15 -9.40788e-15)
(3.18226e-15 -4.36889e-15 -8.52937e-15)
(-3.62176e-15 3.02768e-15 -4.78396e-15)
(-2.99053e-15 -3.71017e-15 -8.27443e-15)
(-1.79765e-15 -3.48105e-15 -9.51574e-16)
(-2.74069e-15 1.11962e-15 5.54762e-15)
(-1.30154e-15 9.4703e-15 1.37431e-15)
(-4.38693e-15 -1.8268e-15 -1.48073e-14)
(-3.24389e-14 -1.22542e-13 -3.64603e-13)
(-6.86345e-13 -3.01758e-12 -9.14583e-12)
(-1.08488e-11 -5.98032e-11 -2.08155e-10)
(-1.0339e-10 -8.36063e-10 -3.87837e-09)
(-7.06579e-10 -3.68115e-10 -3.43764e-09)
(-2.90445e-10 -5.82549e-11 -1.71579e-09)
(-4.75386e-10 -8.56144e-10 -4.92211e-09)
(-3.18834e-10 -2.65202e-10 -1.86531e-09)
(-3.22697e-10 5.21943e-11 -1.217e-09)
(4.96514e-11 1.02503e-10 -7.3433e-10)
(-9.56366e-10 -6.97309e-10 -5.79654e-09)
(8.32973e-10 1.28818e-09 -6.21255e-09)
(-1.13911e-08 -7.03219e-09 -2.7898e-08)
(3.97786e-08 2.73718e-08 -1.19808e-07)
(6.4064e-09 -1.08031e-09 -1.72613e-07)
(-1.87281e-08 -3.0944e-08 -1.23477e-07)
(-6.45835e-09 -5.31049e-09 -3.84325e-08)
(2.55205e-09 4.28561e-09 -2.56389e-08)
(-4.04988e-10 -4.15322e-10 -9.59685e-09)
(1.5027e-09 -1.63835e-09 -1.82317e-08)
(1.31252e-09 -4.3546e-10 -1.61745e-08)
(-1.28513e-09 -2.3226e-10 -3.36602e-09)
(-2.87623e-08 1.01422e-11 -6.50633e-08)
(-3.19709e-07 6.53835e-09 -6.59693e-07)
(-1.71106e-06 3.55566e-09 -3.13232e-06)
(-1.81326e-06 -1.19391e-07 -3.33798e-06)
(-2.93238e-06 6.95681e-07 -3.67574e-06)
(-5.74734e-07 -3.21819e-07 -1.81459e-06)
(-4.20135e-07 -4.68402e-07 -1.23677e-06)
(6.2778e-08 -9.50409e-08 -1.6178e-06)
(2.17458e-09 -5.00338e-07 -2.72118e-06)
(2.97839e-07 -3.17766e-06 -3.35992e-06)
(-3.76482e-06 -9.74792e-07 -4.77188e-06)
(-2.38504e-06 1.68848e-07 -9.02463e-06)
(-1.28874e-06 -1.61739e-06 -8.01458e-06)
(1.48711e-06 1.15256e-06 -5.80496e-06)
(1.72347e-07 1.30197e-07 -6.12068e-06)
(1.25894e-07 1.12248e-07 -3.12548e-06)
(-1.20432e-06 1.30295e-06 -4.50377e-06)
(1.35879e-06 1.10405e-06 -4.62457e-06)
(4.38862e-08 1.14046e-07 -5.96901e-06)
(-1.25718e-07 -4.99901e-08 -3.06701e-06)
(-1.30448e-06 1.34962e-06 -4.46876e-06)
(1.29892e-06 1.22956e-06 -4.56561e-06)
(4.97447e-09 1.00509e-07 -5.98443e-06)
(-1.66035e-07 -7.99826e-08 -3.08755e-06)
(-1.31473e-06 1.25587e-06 -4.42577e-06)
(1.25136e-06 1.37427e-06 -4.63594e-06)
(-3.98765e-08 1.10037e-07 -6.04378e-06)
(-3.12029e-07 -2.43598e-07 -3.28918e-06)
(-1.34589e-06 1.11595e-06 -4.54357e-06)
(8.63697e-07 1.36626e-06 -5.18472e-06)
(-1.15877e-06 -4.89915e-07 -7.80764e-06)
(1.17417e-06 1.26647e-06 -8.2049e-06)
(8.87041e-07 -8.80585e-07 -8.04933e-06)
(2.31682e-06 1.185e-06 -1.06312e-05)
(-1.14986e-06 -4.08201e-06 -1.08588e-05)
(-6.4338e-07 -2.11231e-06 -7.83811e-06)
(2.1229e-07 2.43502e-07 -4.97372e-06)
(9.66352e-07 -9.31854e-07 -6.18634e-06)
(-2.21182e-06 1.13964e-06 -4.03646e-06)
(-7.0736e-08 -2.97828e-08 -2.54401e-06)
(-1.17944e-06 -1.63503e-06 -3.66455e-06)
(1.93619e-06 1.5792e-06 -5.63704e-06)
(2.21653e-06 6.10105e-08 -5.44396e-06)
(1.776e-06 -1.62166e-06 -6.00064e-06)
(2.31205e-06 -1.69477e-06 -7.65186e-06)
(6.98409e-07 -2.39125e-06 -3.93992e-06)
(-7.95736e-08 1.67481e-07 -2.42991e-06)
(6.28001e-07 -9.74237e-07 -2.67153e-06)
(7.66427e-07 -8.18946e-07 -2.82059e-06)
(8.8791e-07 6.57622e-07 -2.60146e-06)
(-1.96927e-09 -4.33682e-07 -1.12143e-06)
(4.3063e-08 -1.33834e-07 -4.85405e-07)
(1.08155e-07 1.24164e-07 -3.54557e-07)
(-2.11585e-09 -2.9057e-08 -1.05408e-07)
(3.02543e-09 -8.25678e-09 -3.89562e-08)
(8.16444e-09 9.50687e-09 -2.50018e-08)
(1.85707e-10 -1.10395e-09 -5.47123e-09)
(2.41279e-10 -2.89031e-10 -1.76068e-09)
(4.31265e-10 4.43921e-10 -1.06403e-09)
(2.40214e-11 -2.69143e-11 -1.76079e-10)
(1.24457e-11 -4.27466e-12 -4.92587e-11)
(1.67734e-11 1.46756e-11 -2.94788e-11)
(1.0528e-12 -5.7536e-13 -3.75784e-12)
(4.12232e-13 5.59537e-14 -9.725e-13)
(5.11849e-13 3.97716e-13 -6.45712e-13)
(2.96711e-14 -3.00352e-14 -8.57752e-14)
(8.82278e-15 3.82421e-15 -1.6952e-14)
(1.77358e-14 7.93133e-15 -8.90583e-15)
(1.51505e-15 -4.11983e-15 -8.66274e-15)
(2.07542e-15 9.76112e-15 -4.70896e-15)
(-9.70506e-15 -6.17636e-15 -1.05585e-14)
(3.68298e-15 -8.45216e-15 1.97354e-15)