/*--------------------------------*- C++ -*----------------------------------*\
| =========                 |                                                 |
| \\      /  F ield         | OpenFOAM: The Open Source CFD Toolbox           |
|  \\    /   O peration     | Version:  2306                                  |
|   \\  /    A nd           | Website:  www.openfoam.com                      |
|    \\/     M anipulation  |                                                 |
\*---------------------------------------------------------------------------*/
FoamFile
{
    version     2.0;
    format      ascii;
    arch        "LSB;label=32;scalar=64";
    class       volVectorField;
    location    "0.1";
    object      flux;
}
// * * * * * * * * * * * * * * * * * * * * * * * * * * * * * * * * * * * * * //

dimensions      [0 1 -1 1 0 0 0];

internalField   nonuniform List<vector> 
5322
(
(-0.000929322 0.00237584 -0.00316679)
(4.54434e-05 0.000271716 -0.0029699)
(4.955e-05 5.59311e-05 -0.00263424)
(2.36665e-07 2.6328e-06 -0.00285026)
(-3.27529e-06 4.21291e-05 -0.00233661)
(-3.01522e-06 6.00328e-05 -0.00188285)
(-2.20506e-06 5.9434e-05 -0.00149426)
(-1.62411e-06 5.33646e-05 -0.00117638)
(-1.30965e-06 4.82543e-05 -0.00093192)
(-9.79508e-07 4.22093e-05 -0.000763358)
(-8.50794e-07 1.06668e-05 -0.000654974)
(7.0692e-06 -0.00012307 -0.000621441)
(1.05095e-05 -0.00013133 -0.000457464)
(-0.000144208 -0.000118282 -0.000636169)
(-3.20709e-06 -0.000104164 -0.000700155)
(0.000258751 0.000229989 -0.000572334)
(-0.000202723 0.000305909 -0.000674015)
(-1.15319e-06 -1.90243e-06 -0.000517063)
(-0.000159904 0.000222221 -0.00075123)
(0.000120316 -0.000288484 -0.000810655)
(-0.000162488 0.000295355 -0.000903829)
(0.000173476 -0.000341223 -0.000991161)
(-0.000183631 0.000366456 -0.00112532)
(0.000232184 -0.000433113 -0.00126083)
(-0.000238968 0.000476303 -0.00144011)
(0.000289267 -0.000540382 -0.00159819)
(-0.000291157 0.000593154 -0.00182197)
(0.000377251 -0.000696079 -0.00203316)
(-0.000376861 0.000760032 -0.00229952)
(0.000462997 -0.000854186 -0.00252217)
(-0.00043979 0.000932055 -0.00282285)
(0.000603858 -0.00104751 -0.00308837)
(-0.000448018 0.00116364 -0.00339197)
(0.000815537 -0.00110447 -0.00359594)
(5.64042e-05 0.00111505 -0.00370589)
(0.00116119 -0.000616637 -0.00321331)
(0.000822553 0.00123372 -0.00376828)
(-0.000326149 0.0015121 -0.00374344)
(0.000906743 0.000762824 -0.00385883)
(-5.34968e-05 0.000850745 -0.00280591)
(-0.000860372 0.00111715 -0.00357876)
(0.000863175 0.000937397 -0.00369411)
(-5.22992e-05 0.000997227 -0.0027519)
(-0.00091796 0.00104389 -0.00369646)
(0.000912968 0.000995627 -0.0036594)
(-3.13351e-05 0.00101659 -0.00280014)
(-0.000975617 0.00101151 -0.00374996)
(0.000857586 0.00108114 -0.0035439)
(-2.06565e-05 0.00103425 -0.00276967)
(-0.00102396 0.00095976 -0.0036868)
(-0.00101548 0.00121013 -0.00419658)
(-0.00146139 0.000549483 -0.00287596)
(-0.00047862 0.000638284 -0.00399887)
(0.000935411 -0.0019951 -0.00358069)
(-6.14538e-05 -9.8939e-05 -0.00322575)
(-0.00153171 -0.00114762 -0.00339199)
(-4.6476e-05 0.00062642 -0.00416779)
(0.00145715 -0.00149678 -0.00332928)
(-1.76589e-05 -7.37687e-05 -0.00323752)
(-0.00145691 -0.00130064 -0.00338583)
(-6.37412e-06 0.000635725 -0.00421274)
(0.00141927 -0.00147114 -0.00337403)
(-7.61884e-06 -6.56381e-05 -0.00323722)
(-0.00143084 -0.0012911 -0.00330294)
(1.05053e-06 0.00063851 -0.00421237)
(0.00139987 -0.00152531 -0.0034935)
(2.02333e-05 -8.8891e-05 -0.00322544)
(-0.00141698 -0.00125182 -0.00314086)
(7.18109e-05 0.000647116 -0.00412885)
(0.00116728 -0.00169683 -0.00372591)
(6.33249e-05 5.29857e-05 -0.00268325)
(-0.00114338 0.00135647 -0.0040086)
(0.00129797 0.000753398 -0.00381546)
(-0.00133892 0.00105548 -0.00375917)
(0.0012885 0.000785708 -0.00379581)
(-0.00131265 0.000997803 -0.00377756)
(0.00131397 0.000830676 -0.00377502)
(-0.00131408 0.00099462 -0.00376475)
(0.00149654 0.000845928 -0.00382261)
(-0.00109295 0.00118299 -0.00364302)
(0.000519107 9.21598e-05 -0.00352585)
(-0.00077408 0.000446278 -0.0028223)
(-0.000517838 0.000657397 -0.00292673)
(0.000826978 0.0010558 -0.00379827)
(7.23173e-05 -7.27409e-05 -0.00248114)
(-0.000388679 -0.00039384 -0.00338324)
(0.000589593 0.000136897 -0.00485658)
(-0.00162067 0.000261792 -0.00311902)
(-0.00053288 0.000543987 -0.00314008)
(0.00181221 7.60015e-05 -0.00274236)
(-8.14262e-05 0.000145708 -0.00340346)
(2.11749e-05 2.6446e-05 -0.00255286)
(3.76016e-05 3.78913e-06 -0.00269029)
(0.000219609 3.78399e-06 -0.00268195)
(0.0011184 0.00134834 -0.00341052)
(-0.000232173 -0.000763119 -0.00319935)
(3.69222e-06 2.45035e-05 -0.00306511)
(-9.27525e-05 0.000771107 -0.00324261)
(0.000606973 2.31554e-05 -0.00493878)
(-0.00143254 -3.51615e-05 -0.003029)
(-0.00143034 0.000131999 -0.00306306)
(0.00299213 2.4024e-05 -0.0027822)
(-9.28117e-05 0.000822599 -0.00326821)
(0.000864661 -0.0013119 -0.003373)
(0.00141071 0.00117676 -0.00367996)
(1.88461e-05 2.49554e-05 -0.00298037)
(1.34948e-05 -2.53355e-05 -0.00313844)
(1.15918e-05 -3.40117e-06 -0.00287387)
(5.95703e-06 5.45488e-07 -0.00236283)
(2.17213e-06 2.40195e-06 -0.00191003)
(4.18243e-07 2.28972e-06 -0.00151648)
(-3.84056e-07 1.87457e-06 -0.00119143)
(-1.10685e-06 1.86796e-06 -0.000938776)
(-1.98048e-06 2.18524e-06 -0.000763822)
(2.44102e-06 -2.21094e-06 -0.000756917)
(-1.0607e-06 9.33915e-07 -0.000714527)
(-8.46048e-05 8.66678e-05 -0.000505163)
(-8.26753e-05 -3.45811e-05 -0.000544221)
(9.56194e-06 -1.2878e-05 -0.000745736)
(5.2164e-05 -6.5683e-05 -0.000597854)
(2.58703e-06 8.12322e-05 -0.000525113)
(7.85594e-05 -4.34651e-05 -0.000632292)
(-9.40205e-05 -8.57284e-05 -0.000623422)
(-7.02435e-06 -0.000118095 -0.000874743)
(-2.24622e-05 -0.000133204 -0.000653642)
(0.000145969 -5.406e-06 -0.000856675)
(0.000119632 9.81216e-05 -0.000617611)
(3.25745e-05 -7.37442e-05 -0.000644796)
(9.38754e-05 7.01189e-06 -0.000841994)
(5.99284e-05 8.07304e-05 -0.000615388)
(4.53164e-05 -8.03106e-05 -0.000631531)
(0.000100822 3.43355e-06 -0.000849884)
(5.0083e-05 8.38906e-05 -0.000625048)
(5.37854e-05 -8.60296e-05 -0.000619921)
(0.000102547 -2.73258e-06 -0.000853714)
(4.36936e-05 7.82896e-05 -0.00063363)
(8.52661e-05 -9.39287e-05 -0.000623572)
(0.000116485 -7.42853e-06 -0.000876852)
(0.000131845 -2.246e-05 -0.000654673)
(5.73098e-06 0.000144078 -0.000857501)
(-9.70568e-05 0.000118924 -0.000619577)
(4.98633e-06 -7.95488e-05 -0.00052708)
(6.54978e-05 5.24739e-05 -0.000598242)
(-7.99059e-05 4.07122e-05 -0.00053681)
(-8.64466e-05 -8.49011e-05 -0.000506237)
(1.31021e-05 9.94236e-06 -0.000746149)
(3.47765e-05 -8.24646e-05 -0.000544503)
(1.87057e-05 6.45527e-05 -0.000541055)
(-6.76067e-05 6.6781e-05 -0.00049995)
(-7.44176e-05 -7.37396e-05 -0.000503496)
(1.48117e-05 -1.07134e-06 -0.000746549)
(2.11758e-05 -6.82228e-05 -0.000541814)
(2.58164e-05 6.86587e-05 -0.000539779)
(-7.3507e-05 7.47231e-05 -0.000500546)
(-6.94693e-05 -6.66801e-05 -0.000504202)
(1.49494e-05 -1.93267e-07 -0.000746178)
(1.35254e-05 -6.3267e-05 -0.000542547)
(4.1454e-05 8.09111e-05 -0.000536391)
(-7.95323e-05 -4.73813e-06 -0.000526629)
(0.000104124 -3.33473e-06 -0.000700339)
(-0.000228931 0.000258848 -0.000571716)
(-0.000305163 -0.000202277 -0.000675189)
(0.000281174 0.000236461 -0.000831034)
(-0.000348495 -0.000271057 -0.000871246)
(-1.59438e-05 1.01522e-05 -0.000529911)
(-0.000222971 -0.000158396 -0.000751942)
(3.22395e-06 -1.25201e-06 -0.000517393)
(0.000210296 2.97636e-06 -0.000684503)
(-4.96586e-05 -2.67524e-05 -0.0004578)
(0.000239756 7.20869e-05 -0.000616036)
(0.000118618 -0.000144137 -0.000637198)
(0.000177244 0.000143584 -0.000592606)
(-0.00027454 -0.000247966 -0.000631445)
(0.000105151 6.99161e-07 -0.000717515)
(-0.000236748 0.000253598 -0.000603449)
(0.000167351 -0.000265027 -0.000785366)
(0.00021784 0.000275948 -0.000779403)
(-0.000284798 -0.000303554 -0.000809869)
(1.29331e-05 1.41321e-06 -0.000649637)
(-0.000242073 0.000299374 -0.000808826)
(0.000235373 -0.000336598 -0.000910026)
(0.000292769 0.000349152 -0.000911289)
(-0.000344035 -0.000386171 -0.00100101)
(7.62506e-06 1.62978e-06 -0.000792909)
(-0.000288362 0.000378115 -0.00100248)
(0.000308913 -0.000426851 -0.0011309)
(0.000377437 0.000441088 -0.00113185)
(-0.000434293 -0.000493631 -0.00126714)
(1.22383e-05 1.59999e-06 -0.000999951)
(-0.000362563 0.000483192 -0.00126872)
(0.000399893 -0.000546515 -0.00143866)
(0.00048593 0.000564113 -0.00143959)
(-0.000557104 -0.000632011 -0.00161517)
(1.68116e-05 2.02727e-06 -0.00127628)
(-0.000465399 0.000619149 -0.00161783)
(0.000508549 -0.000699189 -0.00183109)
(0.000620231 0.000721767 -0.00183327)
(-0.000716298 -0.000802027 -0.00204313)
(2.1545e-05 3.03043e-06 -0.00162218)
(-0.000599816 0.000785786 -0.00204799)
(0.00063097 -0.000885492 -0.00230552)
(0.00077776 0.000914264 -0.00231035)
(-0.000913855 -0.000998914 -0.00254451)
(2.76488e-05 4.27559e-06 -0.00203334)
(-0.000764341 0.00097651 -0.00255236)
(0.00075834 -0.00109871 -0.00284832)
(0.000951409 0.00113338 -0.00285745)
(-0.00113591 -0.00119695 -0.00310735)
(3.73958e-05 5.85599e-06 -0.00249063)
(-0.000937965 0.00116355 -0.00312003)
(0.000863709 -0.00131536 -0.00338659)
(0.00107657 0.00132653 -0.00339583)
(-0.000206876 -0.000764811 -0.00323643)
(0.000580534 -4.7892e-06 -0.00493953)
(-0.00141923 -7.67192e-05 -0.00302857)
(-0.00144734 3.68894e-05 -0.00301885)
(0.00300691 -2.51516e-05 -0.00279117)
(-0.000122391 -1.22095e-06 -0.003846)
(-0.000131481 7.65552e-06 -0.00383667)
(4.32017e-05 1.15907e-05 -0.00269047)
(0.000238166 6.96203e-07 -0.00268454)
(0.00111273 0.00135014 -0.00340263)
(-0.000175644 -0.000761682 -0.00322558)
(1.49686e-05 4.40695e-06 -0.00303488)
(-0.00020478 0.000912973 -0.00327597)
(0.000555714 -0.000135902 -0.0049315)
(-0.00144389 -5.37817e-05 -0.00304734)
(-0.00142313 4.59222e-05 -0.00301626)
(0.00298881 -4.97948e-05 -0.00279753)
(-0.000117398 0.000766916 -0.00322351)
(0.000864407 -0.00132971 -0.00339022)
(2.45663e-06 8.18062e-06 -0.00306316)
(2.187e-05 5.95162e-06 -0.00307233)
(1.38513e-05 1.66244e-05 -0.00286862)
(7.78473e-06 9.45699e-06 -0.00236332)
(3.27677e-06 4.21403e-06 -0.00191199)
(9.67487e-07 1.46238e-06 -0.00151802)
(-1.32983e-07 1.02523e-07 -0.00119238)
(-9.89072e-07 -9.40302e-07 -0.000939284)
(-1.79238e-06 -1.93783e-06 -0.000764054)
(2.43292e-06 2.37743e-06 -0.000757099)
(-9.86347e-07 -1.06259e-06 -0.000714922)
(6.68558e-05 -6.95716e-05 -0.000503436)
(-7.43778e-05 -7.42626e-05 -0.00050222)
(7.42582e-05 -7.43506e-05 -0.000501846)
(-6.70218e-05 -6.96776e-05 -0.00050327)
(1.99778e-07 1.5247e-05 -0.000746097)
(6.69759e-05 2.37295e-05 -0.000539703)
(-6.29634e-05 1.45002e-05 -0.000542406)
(-2.39838e-07 -9.27121e-05 -0.00053958)
(-7.79765e-05 4.69739e-05 -0.000631502)
(7.66119e-08 -9.67376e-05 -0.000900678)
(-6.68527e-05 2.37369e-05 -0.000539832)
(2.20394e-08 1.52802e-05 -0.000746227)
(6.29506e-05 1.4583e-05 -0.000542418)
(2.51249e-06 -9.55938e-05 -0.000895439)
(7.28159e-05 3.24722e-05 -0.000643306)
(-5.993e-06 9.13625e-05 -0.000839722)
(-7.88104e-05 5.82164e-05 -0.000615208)
(2.12701e-07 -9.26877e-05 -0.000539786)
(7.7923e-05 4.70895e-05 -0.000631519)
(-5.68085e-08 9.92168e-05 -0.000839908)
(1.89427e-08 0.000139162 -0.0004511)
(0.000139721 0.00014741 -0.000611411)
(-0.00024715 -0.000249718 -0.000603815)
(0.000247027 -0.000249232 -0.000603135)
(-0.000244015 -0.000268015 -0.000631711)
(0.000272174 0.000206623 -0.000779059)
(-0.000299689 -0.000273716 -0.000810109)
(0.000344415 0.000277518 -0.000911123)
(-0.000380942 -0.000328278 -0.00100118)
(0.000434976 0.000357768 -0.00113204)
(-0.000486836 -0.00041332 -0.00126719)
(0.000556277 0.000460871 -0.00144013)
(-0.00062335 -0.000529624 -0.00161527)
(0.000711831 0.000588522 -0.00183431)
(-0.000790952 -0.000680873 -0.00204318)
(0.000901979 0.000738678 -0.00231242)
(-0.000985092 -0.000870038 -0.00254387)
(0.00111929 0.000906723 -0.0028616)
(-0.00118125 -0.00108682 -0.00310414)
(0.00133385 0.00107552 -0.00341893)
(-0.000757573 -0.000207678 -0.00319687)
(1.82181e-05 0.000617532 -0.00494066)
(0.000767116 -0.000129325 -0.00325639)
(2.18872e-05 7.18555e-06 -0.00306448)
(-0.00129935 0.000931255 -0.00337915)
(0.00115095 -0.00100044 -0.00312836)
(6.65698e-06 4.04079e-05 -0.00249239)
(-0.00108563 0.00082203 -0.00284812)
(0.000964443 -0.000822154 -0.00255626)
(4.21418e-06 2.91338e-05 -0.00203473)
(-0.000874986 0.000684564 -0.00230717)
(0.000775558 -0.000647399 -0.00204954)
(2.64942e-06 2.22715e-05 -0.00162309)
(-0.0006909 0.000551008 -0.00183274)
(0.000610897 -0.000502827 -0.00161835)
(1.63768e-06 1.71288e-05 -0.0012768)
(-0.00054002 0.000432759 -0.00143996)
(0.000476698 -0.000391435 -0.00126875)
(1.16952e-06 1.23195e-05 -0.00100023)
(-0.0004218 0.000334425 -0.00113213)
(0.000373064 -0.000310303 -0.00100207)
(1.15087e-06 7.57892e-06 -0.000793028)
(-0.000332731 0.000255073 -0.000911428)
(0.000295186 -0.000258529 -0.000808046)
(1.06329e-06 1.27081e-05 -0.00064954)
(-0.000261639 0.00018121 -0.0007865)
(2.40753e-07 -1.66328e-05 -0.000625718)
(0.000261822 0.000181101 -0.000785759)
(-0.000294954 -0.000258777 -0.000808808)
(-1.16123e-06 1.27211e-05 -0.000649592)
(-0.000271531 0.000207627 -0.000779783)
(0.000243855 -0.000266576 -0.000631683)
(-4.84437e-07 0.00010506 -0.000717574)
(-0.000140853 0.000171194 -0.000591561)
(-9.12994e-06 0.000127325 -0.000456335)
(0.000143229 0.000119565 -0.000638929)
(-0.000255946 -0.000234868 -0.00057286)
(0.000261532 0.000164092 -0.000788463)
(-0.000295961 -0.000247894 -0.000810601)
(0.000327735 0.000243735 -0.000909665)
(-0.000368798 -0.000296188 -0.00100554)
(0.000415751 0.000322545 -0.00113228)
(-0.000467995 -0.000373591 -0.00127079)
(0.000533331 0.000418502 -0.00144305)
(-0.000597685 -0.000480716 -0.00161923)
(0.000685052 0.000534457 -0.00184001)
(-0.000757048 -0.000622445 -0.00204823)
(0.000873921 0.000669808 -0.00232502)
(-0.000938101 -0.000796984 -0.00254296)
(0.00109478 0.000818656 -0.00288931)
(-0.00110845 -0.000965573 -0.00307814)
(0.00131136 0.000943456 -0.00343566)
(-0.000748256 -0.000122827 -0.00321735)
(-0.000177404 0.000457988 -0.00488121)
(0.000317534 -0.000403827 -0.0034139)
(3.65808e-05 2.73065e-05 -0.00296626)
(-0.00122023 0.00130124 -0.00367584)
(0.00100464 -0.00141086 -0.00337777)
(9.84346e-06 5.53627e-05 -0.00241956)
(-0.000990959 0.00118171 -0.00308374)
(0.000867081 -0.00112469 -0.00274553)
(-2.04561e-06 3.59068e-05 -0.00197377)
(-0.000774719 0.00096921 -0.00248639)
(0.000692309 -0.000866826 -0.00219205)
(-4.4312e-06 2.43986e-05 -0.0015713)
(-0.000607307 0.000768656 -0.00196862)
(0.000541808 -0.000670176 -0.0017278)
(-4.10255e-06 1.77704e-05 -0.00123494)
(-0.000475207 0.000603066 -0.00154511)
(0.000423509 -0.000521895 -0.00135479)
(-4.52387e-06 1.23773e-05 -0.000967367)
(-0.000371951 0.000472292 -0.00121324)
(0.000335191 -0.00041279 -0.00107102)
(-5.75058e-06 8.10568e-06 -0.000767545)
(-0.00029407 0.000371656 -0.000975312)
(0.000270904 -0.000342022 -0.00087145)
(-8.83955e-06 1.41717e-05 -0.000629145)
(-0.000231538 0.000278434 -0.000830886)
(0.000200812 -0.000301117 -0.000675286)
(3.68382e-06 0.000104243 -0.000700485)
(-7.07736e-05 0.000239155 -0.000616184)
(0.000119752 0.000211623 -0.000646137)
(0.000197626 -0.000106227 -0.00056839)
(2.39643e-06 0.000211471 -0.000686532)
(2.35674e-05 -4.94113e-05 -0.000456716)
(-3.58252e-05 3.61744e-05 -0.000521603)
(0.000104253 0.000248878 -0.000606191)
(-0.000320976 -0.00021607 -0.000559068)
(0.000258369 0.000212883 -0.000805353)
(-0.000346809 -0.000216162 -0.000842373)
(-0.000233626 0.000346981 -0.000812981)
(-0.000289782 -0.000305893 -0.000808937)
(1.41046e-05 -2.56575e-06 -0.000647121)
(0.000178258 -0.000317735 -0.000779186)
(0.000197699 0.00027148 -0.00079149)
(-0.000268093 -0.000262433 -0.000581785)
(0.000101459 7.27423e-06 -0.000719659)
(-0.00023955 0.000275371 -0.000645569)
(-1.89666e-05 1.1999e-05 -0.000629377)
(1.14413e-05 4.14036e-06 -0.000616821)
(-9.44548e-05 -7.59524e-05 -0.00086742)
(7.97476e-06 7.36583e-06 -0.000689855)
(-3.8554e-06 -6.06122e-06 -0.000654361)
(-9.93269e-05 4.0242e-06 -0.000892857)
(7.28383e-06 -1.64139e-06 -0.00066992)
(-1.79306e-05 -6.39302e-07 -0.000626836)
(-0.000244128 0.000252563 -0.000624648)
(-0.000264799 -0.000252989 -0.000607224)
(0.000202857 0.000268212 -0.000786549)
(-0.000281124 -0.00029987 -0.000808183)
(-1.84163e-06 2.334e-07 -0.000715075)
(0.000283065 0.000340422 -0.000912058)
(-0.000341142 -0.000379349 -0.00100215)
(0.000370766 0.000431983 -0.00113267)
(-0.000431532 -0.000484571 -0.00126875)
(-1.05517e-05 9.77645e-07 -0.00111291)
(0.000480461 0.000553894 -0.00144111)
(-0.000554517 -0.000620127 -0.00161733)
(0.000614148 0.000710057 -0.00183562)
(-0.000713808 -0.000785762 -0.00204567)
(8.15144e-06 1.80862e-06 -0.00178678)
(0.00076894 0.000900658 -0.00231349)
(-0.000907356 -0.000975185 -0.00254623)
(0.000934592 0.00111591 -0.00285928)
(-0.00111182 -0.00116336 -0.00310992)
(0.000229992 -1.87909e-06 -0.00268591)
(4.26403e-05 2.01374e-06 -0.00269172)
(1.58249e-05 3.21831e-06 -0.00222045)
(1.80132e-05 9.33844e-06 -0.0022222)
(-1.46487e-06 4.93688e-06 -0.00179597)
(9.94731e-06 4.63711e-06 -0.00179148)
(0.000796558 0.000909656 -0.002324)
(-0.000931313 -0.000974536 -0.00254821)
(3.33936e-05 4.66664e-06 -0.00203393)
(-0.000755535 0.00115635 -0.0025737)
(0.000702083 -0.00127173 -0.00283856)
(0.000974145 0.00113719 -0.00287942)
(-0.00111608 -0.00115224 -0.00309484)
(5.15384e-05 1.11395e-05 -0.00248798)
(-0.000981061 0.0014046 -0.00316222)
(0.000762351 -0.0014702 -0.0033451)
(0.00152883 0.000942416 -0.00376116)
(-0.000143762 -0.000697752 -0.0031243)
(6.17221e-05 -0.00124353 -0.00492562)
(-0.00155513 -9.32059e-05 -0.00310985)
(-0.00144294 -5.34299e-06 -0.00295586)
(0.00285027 -0.000447232 -0.00288255)
(-0.0001894 -0.000119131 -0.00374035)
(3.30037e-05 2.22022e-05 -0.00254695)
(5.85061e-05 0.000693274 -0.00230155)
(-0.000729027 0.000866402 -0.00322765)
(0.000149324 5.95026e-05 -0.0020433)
(0.000464518 -0.00122879 -0.00282266)
(-0.00048224 0.000854529 -0.00259212)
(3.3959e-05 1.02818e-06 -0.00164343)
(0.000402837 -0.000829205 -0.00230418)
(-0.000361078 0.000690364 -0.00204929)
(2.42655e-06 -8.5109e-06 -0.00130314)
(0.000309573 -0.000615572 -0.00183788)
(-0.000290319 0.000549018 -0.00161409)
(-2.56581e-06 -5.90353e-06 -0.00102427)
(0.000230072 -0.00046501 -0.00143764)
(-0.000221663 0.000428178 -0.00125539)
(-7.08959e-06 -7.57042e-06 -0.000802444)
(0.000188852 -0.000364349 -0.00113096)
(-0.00016898 0.00035037 -0.000990734)
(-1.17072e-05 -8.90185e-06 -0.000638128)
(0.00016084 -0.000278194 -0.000901781)
(-0.000109835 0.000292441 -0.000805477)
(-1.55292e-05 -1.9304e-05 -0.000529029)
(0.000164756 -0.000210992 -0.000754661)
(6.0743e-05 6.26303e-05 -0.000559912)
(4.41444e-05 9.69199e-05 -0.000539085)
(-1.01201e-05 -0.000130238 -0.000693972)
(-5.06428e-06 -2.16475e-06 -0.000624946)
(7.27476e-05 0.000221136 -0.000723309)
(-3.11873e-05 -0.000213861 -0.00082843)
(0.000353454 0.000246929 -0.000926176)
(-0.000417337 -0.000268803 -0.00103653)
(0.000460714 0.000306443 -0.00115773)
(-0.000527176 -0.000341899 -0.00130721)
(-0.00034099 0.000555618 -0.00126813)
(-0.000443548 -0.000487315 -0.00127184)
(1.23801e-05 -1.71676e-06 -0.000997946)
(0.000302277 -0.000495969 -0.00113468)
(0.000380809 0.000432362 -0.00113404)
(-0.000350497 -0.00038304 -0.00100531)
(7.94026e-06 -2.56773e-06 -0.000791389)
(-0.000270742 0.000435493 -0.00100101)
(-4.62637e-06 1.03625e-06 -0.000878765)
(-2.72185e-06 -3.99006e-06 -0.000835167)
(7.00201e-07 -2.38947e-06 -0.000678373)
(-3.08544e-06 -1.91254e-05 -0.000599474)
(-2.02146e-06 -1.37916e-05 -0.000706121)
(1.81516e-05 1.89354e-05 -0.000676555)
(1.48294e-05 2.47481e-05 -0.000648152)
(1.8597e-05 8.97991e-06 -0.000760256)
(-3.31914e-05 8.59381e-06 -0.000760888)
(-6.04283e-06 1.71232e-05 -0.000654314)
(0.000113171 1.08235e-05 -0.000624634)
(0.000173461 -1.39828e-05 -0.000474647)
(0.000145368 0.000227279 -0.000779167)
(5.00645e-05 7.27172e-05 -0.000433904)
(0.000228778 1.49956e-05 -0.000596183)
(8.85511e-05 5.54416e-05 -0.000652762)
(5.36375e-05 7.47933e-06 -0.000682536)
(2.86415e-05 -4.39075e-06 -0.000820894)
(-9.7219e-06 -2.80743e-06 -0.000938779)
(-4.29237e-05 6.13371e-06 -0.000929708)
(-5.60008e-05 7.68509e-06 -0.00117622)
(-2.49872e-05 -6.58318e-06 -0.00119543)
(2.35994e-05 -1.1631e-05 -0.00103136)
(-5.19329e-05 -0.000281484 -0.00103581)
(3.01515e-06 -6.59078e-06 -0.000962657)
(7.80762e-05 0.000312284 -0.00114822)
(-7.05549e-05 -0.000363476 -0.00131221)
(0.000594945 0.000389803 -0.00148122)
(-0.000676371 -0.000437386 -0.00166368)
(0.000763348 0.000501741 -0.0018919)
(-0.00087552 -0.000555618 -0.00210426)
(-0.000573387 0.000913194 -0.00205463)
(-0.000735182 -0.000787927 -0.00205037)
(2.34408e-05 7.9485e-07 -0.00162115)
(0.000487011 -0.000808263 -0.00183734)
(0.000633697 0.000713176 -0.00184075)
(-0.000570586 -0.000622682 -0.00162098)
(1.74332e-05 -8.23266e-07 -0.0012744)
(-0.000439811 0.000713422 -0.00161946)
(-5.35528e-06 3.53238e-06 -0.00142096)
(-1.70127e-06 -3.37006e-06 -0.00134995)
(-3.39779e-06 -4.19973e-06 -0.00105952)
(-5.05652e-06 1.13606e-06 -0.000938295)
(-1.26511e-05 -4.17513e-05 -0.00110107)
(6.53169e-07 -1.75075e-05 -0.00108313)
(-2.11456e-06 -1.23659e-05 -0.0010358)
(-8.66079e-06 -2.88412e-05 -0.000867212)
(3.20508e-06 -4.65901e-06 -0.000831926)
(3.05145e-06 -3.41227e-06 -0.000797735)
(7.09704e-05 0.000252414 -0.000903436)
(1.66096e-06 -3.72215e-06 -0.000763416)
(-4.5627e-06 -9.1148e-06 -0.000738802)
(-1.63655e-06 1.42533e-05 -0.000840103)
(1.39514e-06 -3.73733e-05 -0.00076615)
(9.92963e-07 -8.6035e-06 -0.000657787)
(-6.45039e-06 0.000124084 -0.000622393)
(1.45493e-05 0.000233675 -0.000594116)
(-0.000167995 0.00042679 -0.00057037)
(-3.15665e-06 3.8564e-05 -0.000598076)
(4.22544e-07 -5.13858e-06 -0.000516012)
(-2.71272e-07 6.03007e-06 -0.000693577)
(-2.28675e-06 -4.86183e-06 -0.000686667)
(0.000300144 -0.000272109 -0.000809822)
(5.71189e-07 -3.80903e-06 -0.000713471)
(-0.000343771 0.000279444 -0.000911671)
(0.000333242 0.000254672 -0.000910851)
(-0.000372328 -0.000310163 -0.00100262)
(-9.01766e-07 7.61277e-06 -0.00079324)
(0.000382252 -0.000327302 -0.00100124)
(1.15531e-06 -6.41477e-06 -0.000876421)
(-0.000434087 0.000359776 -0.00113239)
(0.00042309 0.000334156 -0.00113209)
(-0.000475145 -0.000390824 -0.00126875)
(-1.48624e-07 1.24056e-05 -0.00100068)
(0.000489329 -0.000413753 -0.00126829)
(1.84023e-06 -9.62884e-06 -0.0011108)
(-0.000554771 0.000461919 -0.00144027)
(0.00054268 0.000433294 -0.00144119)
(-0.000607972 -0.000501873 -0.00161714)
(7.50191e-07 1.73046e-05 -0.0012777)
(0.000627787 -0.000532464 -0.00161822)
(2.77782e-06 -6.03554e-06 -0.00141462)
(-0.00070952 0.000586891 -0.00183386)
(0.000695795 0.000553685 -0.00183645)
(-0.000770446 -0.000646761 -0.00204541)
(2.12194e-06 2.26658e-05 -0.00162463)
(0.000798482 -0.000688264 -0.00204966)
(3.52472e-06 1.61113e-05 -0.00178472)
(-0.00089858 0.000728333 -0.0023089)
(0.000882927 0.000693307 -0.00231632)
(-0.000956217 -0.000825174 -0.00254457)
(4.57308e-06 2.99178e-05 -0.00203675)
(0.000995251 -0.000882348 -0.0025573)
(1.18513e-06 8.56343e-05 -0.00221385)
(-0.00111315 0.000869914 -0.00284715)
(0.00109522 0.000846524 -0.00286678)
(-0.00114089 -0.00101897 -0.00310315)
(7.31657e-06 4.16476e-05 -0.00249251)
(0.00118491 -0.00108767 -0.003128)
(-9.53667e-06 0.000272429 -0.00267714)
(-0.00132186 0.000986246 -0.00337884)
(0.0013033 0.000986141 -0.0034107)
(-0.00076067 -0.000158984 -0.00323249)
(-1.49726e-06 7.88795e-06 -0.00305906)
(0.000754569 -0.000189592 -0.00323372)
(-5.10502e-05 0.00298977 -0.00281217)
(-0.000116471 -0.00142615 -0.00303451)
(-0.000100491 -0.00146852 -0.00292342)
(-0.000137085 0.00222594 -0.00267619)
(-0.00145415 0.000585072 -0.00371157)
(0.000321164 0.000216775 -0.00250191)
(0.000235259 -0.00183732 -0.00327486)
(-0.000115698 -0.000414694 -0.00254468)
(-0.000234103 -0.000249318 -0.00243636)
(-8.92228e-05 0.000836694 -0.00302564)
(-0.0013055 -0.00087628 -0.00304921)
(0.000290143 -1.64466e-05 -0.00268998)
(-0.000461974 3.17141e-05 -0.00286569)
(-0.000662236 -0.000145112 -0.0028844)
(-0.00016098 -0.000167256 -0.00263937)
(-0.000199365 -3.04873e-05 -0.00241454)
(-0.000247178 4.51621e-05 -0.00236587)
(-0.000132703 2.57267e-05 -0.00189619)
(-6.93292e-05 -6.4935e-06 -0.00193807)
(3.17797e-05 -2.72342e-05 -0.00168038)
(-3.80668e-05 -7.55534e-06 -0.00152783)
(-8.05952e-05 1.31371e-05 -0.00149869)
(-7.69685e-05 3.71949e-06 -0.0014878)
(-5.38963e-05 1.90801e-06 -0.00117012)
(-4.53107e-05 5.9653e-07 -0.000927043)
(-4.10052e-05 -1.17698e-06 -0.000759726)
(-7.10765e-06 -3.05598e-06 -0.000651424)
(0.000133583 -1.10603e-05 -0.000616981)
(0.000150714 -5.69256e-06 -0.000458909)
(0.000148414 0.000148255 -0.000632426)
(0.000170879 -0.000148229 -0.000559571)
(0.00021644 1.65836e-06 -0.000597071)
(0.00020628 9.9707e-07 -0.000600374)
(0.00015758 -0.000150696 -0.000596624)
(0.000158659 0.000148472 -0.000616409)
(0.000105031 -3.5405e-07 -0.00071937)
(-9.30384e-05 6.05814e-07 -0.000538557)
(2.98285e-05 -6.44421e-07 -0.000662848)
(-1.08095e-05 -1.12053e-05 -0.000648205)
(-7.5524e-06 -7.10656e-06 -0.000654199)
(2.70808e-05 2.69536e-05 -0.000670132)
(-8.10694e-05 2.56459e-06 -0.000525806)
(-2.0574e-07 3.10071e-05 -0.000660702)
(-1.06218e-07 -1.0953e-05 -0.000655753)
(-2.33635e-07 -1.34543e-05 -0.000653728)
(6.78544e-08 -1.00006e-07 -0.000720031)
(-5.14002e-05 5.01122e-05 -0.000492492)
(-5.87626e-05 -5.84897e-05 -0.000496092)
(-5.83065e-05 5.88922e-05 -0.000495251)
(-5.19611e-05 -4.97521e-05 -0.000493886)
(5.16487e-05 -5.04313e-05 -0.000492356)
(-4.33643e-05 -4.2823e-05 -0.000490108)
(1.73531e-06 1.73007e-06 -0.0007493)
(5.87076e-05 5.84541e-05 -0.000494487)
(-5.01602e-05 5.23091e-05 -0.000493414)
(-5.03024e-05 -5.20612e-05 -0.000493566)
(1.73854e-06 -1.5099e-06 -0.000749436)
(5.84334e-05 -5.87316e-05 -0.00049528)
(4.48996e-08 5.60132e-08 -0.000724664)
(1.0798e-07 1.28214e-07 -0.000762134)
(1.29064e-07 3.25215e-06 -0.000759459)
(1.21257e-07 7.48789e-06 -0.000670203)
(-1.8052e-06 6.4827e-06 -0.000668566)
(1.9273e-06 -2.22376e-05 -0.000623296)
(-9.5114e-07 -3.6136e-06 -0.000714465)
(-4.66872e-07 -6.68181e-06 -0.000879909)
(3.2812e-07 -8.288e-06 -0.00111652)
(1.48906e-06 -7.31142e-06 -0.00142165)
(3.54627e-06 3.41691e-07 -0.00179176)
(5.43151e-06 2.69326e-07 -0.00170281)
(7.94183e-08 5.48493e-05 -0.00151502)
(-1.64105e-05 -0.000101485 -0.00177458)
(1.60918e-05 -3.93674e-05 -0.00174514)
(-1.29672e-05 7.28309e-07 -0.00166783)
(0.000110625 0.000535594 -0.00187343)
(-0.000155966 -0.000569035 -0.00210729)
(0.000979183 0.000642906 -0.00240693)
(-0.00112011 -0.000706531 -0.00259333)
(0.00125313 0.000805792 -0.00305164)
(-1.6732e-05 -3.04e-05 -0.00247128)
(-0.000360317 -0.000740141 -0.00255179)
(-6.38984e-05 -1.3415e-05 -0.00204802)
(9.98049e-05 0.000714146 -0.00237815)
(-1.13827e-06 -1.35778e-05 -0.00198501)
(1.40014e-05 -5.76796e-05 -0.00212457)
(3.00029e-05 9.94839e-06 -0.00216169)
(-0.000126703 7.15851e-06 -0.0018776)
(-0.000226503 1.35642e-05 -0.00233392)
(-0.000434638 1.57589e-05 -0.00284881)
(-0.00100022 -1.33433e-05 -0.00346965)
(-0.00102788 -0.000167402 -0.00344962)
(-0.00240147 0.000574029 -0.00344805)
(-0.00101868 -0.000270003 -0.0030192)
(-0.000875453 -0.00099991 -0.00281253)
(-1.99999e-05 -0.000146763 -0.00293203)
(-0.000340863 -0.000167477 -0.0031988)
(0.000301071 -0.00223547 -0.00266131)
(-0.0020636 -0.000628475 -0.0030085)
(-0.00125194 8.11539e-05 -0.00427912)
(-0.000602251 -0.000932537 -0.00386499)
(0.000910537 0.000677566 -0.00383369)
(7.27088e-05 3.29907e-05 -0.00395636)
(4.09098e-05 3.21406e-05 -0.00254407)
(-0.000937625 0.000819319 -0.00322344)
(0.000988247 0.00068601 -0.00338541)
(6.28514e-06 9.0022e-05 -0.00405151)
(-0.000121203 -7.87441e-05 -0.00262145)
(-0.00102484 0.000903687 -0.00333971)
(0.000992142 0.000812775 -0.00340072)
(1.95574e-06 9.58988e-05 -0.00407091)
(-0.000134092 -9.40656e-05 -0.00263255)
(-0.00100035 0.000821679 -0.00329803)
(0.00098929 0.000925421 -0.00344343)
(8.29763e-06 8.94854e-05 -0.0040613)
(-0.000216373 -0.000212126 -0.00269276)
(-0.000954668 0.000684272 -0.00326799)
(0.000706056 0.000939554 -0.00366491)
(-0.000594038 -0.000332975 -0.00506494)
(0.000508773 0.000528273 -0.0039713)
(0.000387567 -0.000459551 -0.00388247)
(0.0011093 0.000490953 -0.00491326)
(-0.000521389 -0.00192949 -0.004806)
(-0.000292819 -0.00104376 -0.00383854)
(0.000163911 0.000172726 -0.0028295)
(0.000639256 -0.000477062 -0.00399931)
(-0.00198312 0.000945222 -0.00358363)
(-0.000100118 -5.89992e-05 -0.00322429)
(-0.00115442 -0.00153719 -0.00338511)
(0.00108713 0.000864038 -0.00355123)
(0.00103392 -1.66662e-05 -0.00277116)
(0.000958954 -0.00102179 -0.0036807)
(0.00121 -0.00101516 -0.00419871)
(0.000548771 -0.00146249 -0.00287528)
(9.77397e-05 0.000526324 -0.00352821)
(0.000446615 -0.000775981 -0.00282393)
(0.000658163 -0.000514299 -0.00292928)
(0.00104952 0.000821669 -0.00379954)
(-0.000396849 -0.0015151 -0.00332878)
(9.45922e-05 -0.000209439 -0.00255159)
(0.000658381 0.000990345 -0.0031749)
(-0.000463079 -0.00107288 -0.00281209)
(5.03385e-06 -6.66417e-05 -0.00213862)
(0.00047102 0.000857781 -0.00256117)
(-0.000385502 -0.000788604 -0.00229292)
(-1.71558e-06 -3.22117e-05 -0.0017215)
(0.000365482 0.000689426 -0.0020402)
(-0.000297823 -0.000601978 -0.001827)
(1.01008e-07 -2.5056e-05 -0.00136523)
(0.000286841 0.000541059 -0.00160656)
(-0.000230872 -0.00046765 -0.00143723)
(3.15585e-07 -1.98385e-05 -0.00107052)
(0.000224147 0.000423758 -0.00125934)
(-0.000182815 -0.000366424 -0.00112869)
(-1.21334e-06 -1.13978e-05 -0.000844396)
(0.000171268 0.000336599 -0.000994183)
(-0.000156417 -0.000292258 -0.00090379)
(-1.08857e-05 6.17215e-06 -0.000671155)
(0.000119346 0.000283709 -0.00081201)
(-0.000156362 -0.000222089 -0.00075171)
(-5.65899e-05 5.65649e-05 -0.000564222)
(1.9329e-06 0.00020845 -0.000684948)
(-0.000197738 -0.000110816 -0.000565338)
(-0.000121963 0.00021052 -0.000644915)
(7.16904e-05 0.000238869 -0.000615205)
(-0.000200801 -0.000304127 -0.000674964)
(0.00023492 0.000277629 -0.000831407)
(-0.000269114 -0.000345389 -0.000871272)
(8.46585e-06 1.44874e-05 -0.000629136)
(-0.000261931 0.000163574 -0.000789832)
(0.000255671 -0.000235036 -0.000571625)
(-3.15065e-06 0.000104097 -0.000700552)
(-0.000142975 0.00011895 -0.000638438)
(9.1813e-06 0.000128331 -0.000456261)
(0.000141115 0.00017114 -0.000590714)