/*--------------------------------*- C++ -*----------------------------------*\
| =========                 |                                                 |
| \\      /  F ield         | OpenFOAM: The Open Source CFD Toolbox           |
|  \\    /   O peration     | Version:  2306                                  |
|   \\  /    A nd           | Website:  www.openfoam.com                      |
|    \\/     M anipulation  |                                                 |
\*---------------------------------------------------------------------------*/
FoamFile
{
    version     2.0;
    format      ascii;
    arch        "LSB;label=32;scalar=64";
    class       volScalarField;
    location    "0.1";
    object      gradTx;
}
// * * * * * * * * * * * * * * * * * * * * * * * * * * * * * * * * * * * * * //

dimensions      [0 -1 0 1 0 0 0];

internalField   nonuniform List<scalar> 
5322
(
-0.232331
0.0113608
0.0123875
5.91662e-05
-0.000818822
-0.000753804
-0.000551266
-0.000406027
-0.000327413
-0.000244877
-0.000212698
0.0017673
0.00262738
-0.0360521
-0.000801772
0.0646878
-0.0506807
-0.000288296
-0.0399761
0.0300791
-0.040622
0.0433691
-0.0459078
0.0580459
-0.0597419
0.0723168
-0.0727893
0.0943127
-0.0942153
0.115749
-0.109948
0.150964
-0.112005
0.203884
0.014101
0.290299
0.205638
-0.0815372
0.226686
-0.0133742
-0.215093
0.215794
-0.0130748
-0.22949
0.228242
-0.00783378
-0.243904
0.214397
-0.00516411
-0.25599
-0.253869
-0.365347
-0.119655
0.233853
-0.0153635
-0.382926
-0.011619
0.364287
-0.00441472
-0.364227
-0.00159353
0.354816
-0.00190471
-0.357711
0.000262631
0.349968
0.00505833
-0.354245
0.0179527
0.29182
0.0158312
-0.285845
0.324492
-0.334729
0.322126
-0.328163
0.328493
-0.32852
0.374135
-0.273237
0.129777
-0.19352
-0.129459
0.206744
0.0180793
-0.0971699
0.147398
-0.405167
-0.13322
0.453053
-0.0203566
0.00529373
0.00940039
0.0549024
0.2796
-0.0580432
0.000923056
-0.0231881
0.151743
-0.358136
-0.357586
0.748031
-0.0232029
0.216165
0.352677
0.00471152
0.00337371
0.00289796
0.00148926
0.000543033
0.000104561
-9.6014e-05
-0.000276712
-0.000495121
0.000610255
-0.000265175
-0.0211512
-0.0206688
0.00239049
0.013041
0.000646758
0.0196398
-0.0235051
-0.00175609
-0.00561554
0.0364923
0.0299081
0.00814361
0.0234689
0.0149821
0.0113291
0.0252055
0.0125208
0.0134463
0.0256368
0.0109234
0.0213165
0.0291214
0.0329613
0.00143274
-0.0242642
0.00124658
0.0163744
-0.0199765
-0.0216116
0.00327553
0.00869412
0.00467642
-0.0169017
-0.0186044
0.00370293
0.00529395
0.00645411
-0.0183767
-0.0173673
0.00373736
0.00338134
0.0103635
-0.0198831
0.026031
-0.0572327
-0.0762909
0.0702935
-0.0871238
-0.00398594
-0.0557428
0.000805988
0.052574
-0.0124146
0.0599391
0.0296545
0.044311
-0.0686349
0.0262878
-0.0591871
0.0418379
0.0544599
-0.0711996
0.00323328
-0.0605183
0.0588432
0.0731921
-0.0860088
0.00190626
-0.0720906
0.0772281
0.0943592
-0.108573
0.00305958
-0.0906408
0.0999732
0.121483
-0.139276
0.0042029
-0.11635
0.127137
0.155058
-0.179074
0.00538625
-0.149954
0.157742
0.19444
-0.228464
0.0069122
-0.191085
0.189585
0.237852
-0.283978
0.00934895
-0.234491
0.215927
0.269142
-0.0517191
0.145133
-0.354806
-0.361834
0.751727
-0.0305976
-0.0328704
0.0108004
0.0595414
0.278183
-0.043911
0.00374216
-0.0511951
0.138929
-0.360973
-0.355783
0.747204
-0.0293495
0.216102
0.000614157
0.0054675
0.00346282
0.00194618
0.000819192
0.000241872
-3.32459e-05
-0.000247268
-0.000448095
0.000608231
-0.000246587
0.0167139
-0.0185944
0.0185645
-0.0167554
4.99445e-05
0.016744
-0.0157408
-5.99595e-05
-0.0194941
1.9153e-05
-0.0167132
5.50985e-06
0.0157376
0.000628122
0.018204
-0.00149825
-0.0197026
5.31752e-05
0.0194807
-1.42021e-05
4.73568e-06
0.0349303
-0.0617875
0.0617567
-0.0610038
0.0680435
-0.0749224
0.0861038
-0.0952354
0.108744
-0.121709
0.139069
-0.155837
0.177958
-0.197738
0.225495
-0.246273
0.279823
-0.295312
0.333463
-0.189393
0.00455453
0.191779
0.0054718
-0.324838
0.287737
0.00166425
-0.271407
0.241111
0.00105354
-0.218747
0.193889
0.000662354
-0.172725
0.152724
0.00040942
-0.135005
0.119174
0.000292381
-0.10545
0.0932659
0.000287717
-0.0831828
0.0737965
0.000265822
-0.0654097
6.01884e-05
0.0654554
-0.0737385
-0.000290308
-0.0678827
0.0609638
-0.000121109
-0.0352132
-0.00228248
0.0358073
-0.0639865
0.0653831
-0.0739901
0.0819339
-0.0921994
0.103938
-0.116999
0.133333
-0.149421
0.171263
-0.189262
0.21848
-0.234525
0.273694
-0.277114
0.327841
-0.187064
-0.0443511
0.0793835
0.00914521
-0.305057
0.25116
0.00246087
-0.24774
0.21677
-0.000511402
-0.19368
0.173077
-0.0011078
-0.151827
0.135452
-0.00102564
-0.118802
0.105877
-0.00113097
-0.0929877
0.0837978
-0.00143764
-0.0735175
0.067726
-0.00220989
-0.0578846
0.050203
0.000920955
-0.0176934
0.0299381
0.0494064
0.000599109
0.00589185
-0.00895631
0.0260632
-0.080244
0.0645923
-0.0867023
-0.0584065
-0.0724454
0.00352616
0.0445645
0.0494247
-0.0670232
0.0253646
-0.0598876
-0.00474165
0.00286033
-0.0236137
0.00199369
-0.000963851
-0.0248317
0.00182096
-0.00448264
-0.061032
-0.0661998
0.0507142
-0.070281
-0.000460408
0.0707662
-0.0852855
0.0926916
-0.107883
-0.00263793
0.120115
-0.138629
0.153537
-0.178452
0.00203786
0.192235
-0.226839
0.233648
-0.277955
0.0574979
0.0106601
0.00395621
0.0045033
-0.000366217
0.00248683
0.19914
-0.232828
0.00834839
-0.188884
0.175521
0.243536
-0.27902
0.0128846
-0.245265
0.190588
0.382207
-0.0359404
0.0154305
-0.388783
-0.360735
0.712567
-0.0473499
0.00825093
0.0146265
-0.182257
0.037331
0.11613
-0.12056
0.00848975
0.100709
-0.0902695
0.000606638
0.0773933
-0.0725797
-0.000641452
0.0575181
-0.0554158
-0.0017724
0.047213
-0.042245
-0.0029268
0.0402101
-0.0274588
-0.00388229
0.0411889
0.0151858
0.0110361
-0.00253002
-0.00126607
0.0181869
-0.00779683
0.0883634
-0.104334
0.115178
-0.131794
-0.0852476
-0.110887
0.00309502
0.0755692
0.0952023
-0.0876242
0.00198506
-0.0676854
-0.00115659
-0.000680461
0.00017505
-0.000771359
-0.000505365
0.0045379
0.00370735
0.00464925
-0.00829786
-0.00151071
0.0282928
0.0433653
0.036342
0.0125161
0.0571945
0.0221378
0.0134094
0.00716037
-0.00243047
-0.0107309
-0.0140002
-0.00624679
0.00589985
-0.0129832
0.000753788
0.019519
-0.0176387
0.148736
-0.169093
0.190837
-0.21888
-0.143347
-0.183795
0.00586019
0.121753
0.158424
-0.142647
0.0043583
-0.109953
-0.00133882
-0.000425317
-0.000849449
-0.00126413
-0.00316277
0.000163292
-0.000528639
-0.0021652
0.00080127
0.000762864
0.0177426
0.000415241
-0.00114068
-0.000409138
0.000348785
0.000248241
-0.0016126
0.00363733
-0.0419989
-0.000789163
0.000105636
-6.78179e-05
-0.000571688
0.0750359
0.000142797
-0.0859428
0.0833106
-0.093082
-0.000225441
0.095563
0.000288828
-0.108522
0.105773
-0.118786
-3.7156e-05
0.122332
0.000460057
-0.138693
0.13567
-0.151993
0.000187548
0.156947
0.000694454
-0.17738
0.173949
-0.192611
0.000530485
0.19962
0.000881181
-0.224645
0.220732
-0.239054
0.00114327
0.248813
0.000296283
-0.278287
0.273805
-0.285223
0.00182914
0.296227
-0.00238417
-0.330465
0.325826
-0.190168
-0.000374316
0.188642
-0.0127625
-0.0291178
-0.0251226
-0.0342713
-0.363538
0.080291
0.0588149
-0.0289245
-0.0585257
-0.0223057
-0.326375
0.0725357
-0.115494
-0.165559
-0.0402451
-0.0498411
-0.0617946
-0.0331758
-0.0173323
0.00794492
-0.00951669
-0.0201488
-0.0192421
-0.0134741
-0.0113277
-0.0102513
-0.00177691
0.0333957
0.0376786
0.0371035
0.0427198
0.0541101
0.05157
0.0393951
0.0396648
0.0262578
-0.0232596
0.00745712
-0.00270238
-0.0018881
0.0067702
-0.0202673
-5.14349e-05
-2.65546e-05
-5.84088e-05
1.69636e-05
-0.0128501
-0.0146907
-0.0145766
-0.0129903
0.0129122
-0.0108411
0.000433826
0.0146769
-0.01254
-0.0125756
0.000434636
0.0146083
1.12249e-05
2.6995e-05
3.22661e-05
3.03141e-05
-0.0004513
0.000481825
-0.000237785
-0.000116718
8.203e-05
0.000372264
0.000886567
0.00135788
1.98546e-05
-0.00410263
0.00402294
-0.00324179
0.0276562
-0.0389915
0.244796
-0.280028
0.313283
-0.004183
-0.0900793
-0.0159746
0.0249512
-0.000284567
0.00350035
0.00750072
-0.0316757
-0.0566259
-0.108659
-0.250054
-0.25697
-0.600368
-0.254671
-0.218863
-0.00499998
-0.0852158
0.0752678
-0.515901
-0.312985
-0.150563
0.227634
0.0181772
0.0102275
-0.234406
0.247062
0.00157129
-0.0303008
-0.25621
0.248036
0.000488934
-0.033523
-0.250087
0.247322
0.00207441
-0.0540933
-0.238667
0.176514
-0.148509
0.127193
0.0968918
0.277326
-0.130347
-0.0732047
0.0409777
0.159814
-0.49578
-0.0250294
-0.288605
0.271783
0.258481
0.239739
0.3025
0.137193
0.0244349
0.111654
0.164541
0.262379
-0.0992123
0.023648
0.164595
-0.11577
0.00125846
0.117755
-0.0963755
-0.000428895
0.0913706
-0.0744558
2.5252e-05
0.0717102
-0.0577181
7.88962e-05
0.0560366
-0.0457038
-0.000303335
0.042817
-0.0391043
-0.00272142
0.0298365
-0.0390905
-0.0141475
0.000483225
-0.0494344
-0.0304907
0.0179226
-0.0502001
0.0587299
-0.0672784
0.00211646
-0.0654827
0.0639177
-0.000787662
-0.0357437
0.00229533
0.0352788
-0.0348818
0.000157512
0.000241968
8.00617e-05
7.97234e-05
0.000146544
0.00020248
0.000501438
0.000742945
0.00118942
-0.0037212
0.000828036
-0.00152839
0.0236348
-0.0244025
0.000822942
0.00113644
0.00655767
0.00647377
0.096252
0.123705
-0.00264243
-0.0903928
0.100098
0.00424256
-0.116129
0.126972
0.00545682
-0.15021
0.157142
0.00703886
-0.193136
0.188296
0.00937574
-0.240554
0.000632121
0.00442341
-0.0413731
-0.0412284
-0.102024
-0.0524382
-0.0303072
-0.0190185
-0.0136336
-0.0117168
-0.0105722
-0.00225584
0.0326325
0.0364501
0.0355232
0.0516362
0.0312916
-0.00223848
-0.00984069
-0.0115149
-0.0139118
-0.0191705
-0.0298373
-0.0513747
-0.0976183
-0.225318
-0.236897
-0.411325
-0.326614
-0.107432
-0.107303
0.207415
0.0226246
-0.0258209
-0.0206226
0.0987452
0.00355516
-0.0798821
-0.0763724
0.078503
-9.87085e-05
-0.0877649
-0.0839151
0.0691151
-3.28541e-05
-0.109006
-0.103944
0.0343385
-0.147283
0.0997278
0.0967958
0.101153
0.0884109
-0.126655
0.0096051
0.0457281
-0.14648
0.0340798
-0.137908
0.159483
-0.353224
-0.0160248
-0.339997
0.25131
0.265981
0.258854
0.253888
0.257135
0.252558
-0.368057
-0.0192224
-0.331988
0.218834
0.234655
0.219786
0.231686
-0.0159803
-0.354128
-0.351831
0.159903
0.259546
0.237201
0.22772
0.284024
0.279536
0.219093
0.0638629
0.134625
0.0563141
-0.0308574
0.0559626
0.0114184
-0.0409909
0.0339814
0.00365135
-0.0346222
0.0269017
0.00228839
-0.0283349
0.0209311
0.00144539
-0.0219325
0.0170366
0.00121974
-0.0175622
0.0128925
4.37205e-05
-0.0144137
0.00980459
-0.00189718
-0.0150861
0.00465602
-0.010095
-0.0249401
-0.0117242
-0.0357722
-0.0431672
-0.0437792
-0.0294357
-0.0214854
-0.0332015
-0.00140661
0.0244036
-0.018363
0.00181003
0.0201938
-0.0201186
0.000859363
0.0210354
-0.0215841
-0.000721328
-0.00147141
-0.0378921
-0.000128803
-0.0632676
9.03085e-05
-0.0663473
0.000402997
0.0747685
-0.0758556
1.09135e-05
-0.0826311
0.00152611
0.0929559
-0.0843726
0.00111727
0.0946208
0.00113242
-0.106674
0.00148407
0.120418
0.00123467
-0.136006
0.00189356
0.153059
0.000660823
-0.172216
0.0022554
0.19225
0.000565723
-0.214612
0.00285333
0.237431
-0.00227046
-0.259275
0.00504869
0.284158
-0.00345679
-0.00834716
-0.354726
-0.256815
0.00945845
0.300602
-0.00377138
-0.291184
-0.202128
0.00797337
0.25593
-0.0022363
-0.23488
-0.161542
0.0049518
0.20745
-0.00179195
-0.186531
-0.127646
0.00329035
0.16488
-0.00100582
-0.145871
-0.0999129
0.00200423
0.129663
-0.000753123
-0.113533
-0.077882
0.000587435
0.103286
-4.96242e-05
-0.0874341
-0.0609714
-2.26805e-05
0.0860242
0.00145737
-0.0643009
-0.0456188
0.00428951
0.0798504
0.0092996
-0.0064258
0.0179734
-0.0305596
-0.0495926
0.000569839
-0.0143743
0.000983468
0.0429258
-0.00351605
0.000632375
-0.0359808
0.000192951
0.0634265
-0.0619461
-0.000307241
-0.0659722
0.00220009
-0.0681564
0.000609262
0.0750971
0.0022174
0.000646885
0.000284977
0.000781238
0.0690328
0.000548125
-0.000543237
-0.0158087
-4.01941e-05
0.017177
5.59098e-06
6.36117e-05
8.22654e-05
-0.00270586
-0.0031347
-0.00224869
-0.0243389
0.00171855
-0.00444139
-0.00064425
-0.000572538
-0.000466184
0.0720084
0.0594498
-0.000686826
0.00266916
-0.000266872
-0.000837839
0.0447292
0.00337252
-0.0608873
0.0601752
0.00193349
-0.0720255
0.0777877
0.00306755
0.000185781
-0.0015495
-0.00147308
-0.00212055
-0.00202759
-0.00211525
-0.0021631
-0.00218163
-0.00159046
-0.00139956
-0.00166505
-0.000859482
-0.00085561
-0.0600683
0.0587006
0.0935071
-0.104833
0.118868
-0.132031
-0.001543
-0.0923786
-0.000131913
0.0850577
-0.00183204
-0.0736139
-0.00174293
0.0716774
0.00159855
0.00349741
-0.0540372
-0.00145151
0.0622378
-0.0666944
4.7574e-05
-0.123607
-0.000483888
0.138067
-0.121337
0.000140689
-0.138742
0.000146822
0.156509
-0.154508
3.2346e-05
-0.173122
8.36104e-05
0.194205
-0.19975
-0.000391835
-0.213138
0.000674751
0.23621
-0.261816
-0.000956071
0.285219
-0.308062
-0.00429907
-0.00843261
-0.00156418
-0.000409133
0.000234561
0.000367334
0.000372129
0.000429784
0.000537267
-0.000576031
0.000237976
-0.0167044
0.0186688
-0.0184247
-0.0170756
0.000169909
0.00012822
-0.000411049
0.000998567
0.0161812
0.000137085
-0.000187974
-0.00149137
0.00193278
-0.00171773
-0.023817
0.00162399
-0.00551693
0.03953
0.00363614
-0.00170647
-0.00132771
0.000849427
-2.03995e-05
0.012446
0.0126304
-0.000378837
0.0107021
0.016722
-0.000289123
-0.000358701
-0.00035531
-0.000639673
0.000991231
-0.0191839
0.0531139
0.0028406
-0.0796712
-0.000606659
0.0867483
-0.0762643
-0.000287182
-0.0864213
3.11064e-05
-0.0946934
-1.15822e-05
-0.106656
0.000314216
0.120263
-0.123307
-0.000120773
-0.13339
0.00124304
0.150416
-0.169695
0.00106973
0.190198
-4.36224e-05
0.000146712
0.000220746
0.000302259
0.000354301
0.000467283
4.77181e-05
1.01619e-07
-0.00041497
-0.000402344
-0.00129091
-0.00178579
-0.000383565
-0.000402832
5.77171e-05
5.89027e-05
0.000108594
0.000116677
0.000169836
0.000215147
0.000250258
0.000276675
0.000375713
0.000424306
0.00187822
0.0024508
-0.00531803
0.004233
-0.00919241
0.0513399
-0.302328
-0.0808583
0.00158412
-0.0280093
0.13872
-0.139101
-0.430758
-0.164202
-0.00105648
0.0412725
0.00236486
-0.32863
-0.142957
-0.0959441
0.19719
0.0222544
-0.0223021
-0.03785
0.107054
0.00350203
-0.074456
-0.0919545
0.0919491
0.000167031
-0.081836
-0.0965498
0.0855503
0.00072709
-0.105064
-0.109501
0.0214526
-0.00605363
0.00104793
0.00116079
0.284355
-0.25745
0.00337676
0.241757
-0.00776264
0.00512857
-0.305532
0.00512767
-0.189194
0.211832
0.00153509
-0.222606
-0.389447
0.305409
-0.0223685
0.0368176
0.127702
-0.00122682
0.294156
0.216288
0.243029
-0.300135
0.00845982
-0.253793
1.59169e-06
-0.280832
0.0109223
-0.269087
-0.00010398
-0.270505
0.011566
-0.288838
0.226196
0.221535
-0.0149857
-0.427097
-0.343212
0.157645
-0.111126
0.150096
0.0858705
0.101394
-0.13635
0.0380255
0.0292573
-0.150782
0.0574254
0.10457
-0.12836
0.212144
-0.113421
0.0182446
-0.115145
0.018617
-0.12455
-0.0974923
0.0175454
-0.00804153
-0.00143755
-0.000819271
9.40167e-05
0.000535263
0.000515839
0.000430138
0.000440691
0.000532545
-0.000585122
0.000255013
-0.0108176
0.0129131
0.000104942
0.00257551
0.00184429
0.00149068
-0.0182871
-0.00124098
0.0200476
-0.0163417
-0.00883899
0.0202543
-0.0214615
-0.0295352
-0.0332756
0.0238291
0.0243534
-0.00146164
-0.00203838
-0.00671026
0.000802196
0.0250074
-0.00440658
-0.00575118
-0.00358118
0.0184319
0.0184582
-0.0057923
-0.00435171
0.0233886
-0.0123619
-0.0266376
-0.0124332
0.0246291
-0.00170213
-0.00187797
-0.00293321
-0.000371049
0.00104199
0.0429051
-0.00358927
0.00172758
-0.000105803
-0.000107107
-0.000161715
-0.000256633
-0.000435583
-0.000828308
-0.00159616
0.000144177
-0.000804057
0.00110216
-0.00987121
-0.00310234
0.00886951
-0.017167
-0.00667561
-0.0068503
-0.200188
0.192367
-0.00563738
-0.0044132
0.0116163
-0.00736235
-0.00442399
0.034312
0.0651167
0.0342487
0.20566
-0.0984074
0.0200019
0.136602
0.15921
-0.0511499
0.0135451
-0.00200321
0.0101468
-0.00241954
0.000874446
-0.0165718
-0.00172828
0.000643928
0.00025453
-2.11876e-05
-0.000178573
2.64182e-05
-0.000273433
0.000295191
0.000494733
0.000251866
0.000810997
0.00240683
0.00347297
0.00437448
0.0052641
0.00714036
0.00562308
0.00171539
0.00310162
0.00181678
0.00082209
0.000336832
0.000340609
0.000230843
0.000510497
0.00063485
-0.0819314
0.074249
-0.0831892
0.093404
-0.105269
0.00131429
-0.103591
0.092128
0.00145242
0.000496575
0.000347445
8.29743e-05
0.0739261
0.00049357
-0.000584011
0.0197371
-0.000358148
0.000453002
0.00183264
-0.00315215
0.0215519
0.0169166
-0.00733034
0.00292922
-5.55389e-05
-2.50525e-05
0.0108961
-0.000371573
-2.06505e-05
0.00764602
-0.0232846
0.00670579
9.20939e-05
0.0026878
0.00196141
0.000211436
-0.00201349
0.000852601
0.00182212
-0.00734526
-0.00674465
0.0216295
-0.00886753
-0.0163104
-0.00318221
0.0202335
-0.00121307
0.0018447
0.00135766
-0.000853465
1.98208e-06
0.000480386
0.00135925
0.000468749
-0.000253059
0.000545704
0.000690597
0.00105947
0.000324418
4.99711e-05
0.000315325
9.50229e-06
0.11706
-0.132484
0.119012
-0.134577
0.151781
-0.171308
0.0021589
-0.169409
0.149662
0.0015611
0.000171143
0.00119575
0.0013816
0.00171313
0.00148153
0.000399726
-8.1667e-06
0.000363475
0.000348666
0.000547989
0.000386896
0.000615753
0.00152057
0.00562051
0.00409701
0.0189534
0.00167709
0.000780282
0.000343932
2.66216e-05
-0.000354743
-0.000150288
-0.000155457
0.000116032
3.83407e-05
3.21082e-05
0.000206352
0.00023937
0.000197478
-3.81041e-05
-0.000245312
-0.000265392
-0.000303159
-0.000171612
4.89957e-05
0.000101226
0.000170058
0.00026412
0.000343957
0.000531057
0.000435667
0.000499732
0.000971239
0.000826263
0.000543493
0.00137161
0.00321502
0.0011603
0.00137157
0.0449178
-0.00825802
0.0046509
0.00107308
0.00383212
0.0967039
-0.00405545
-0.0140694
0.0753665
0.0248619
-0.328007
-0.1182
-0.219621
0.210552
-0.148055
-0.158781
0.189663
-0.234324
-0.0127325
-0.0174997
-0.213388
0.189941
-0.00212229
-0.00980986
-0.000669917
0.00369819
0.00509043
0.0799229
0.0268802
-0.146738
-0.132714
0.231201
0.0215239
-0.054675
-0.016572
0.0921338
0.0025516
-0.106707
-0.0693516
0.0698783
-0.000242915
-0.111182
-0.0764232
0.0611533
-0.000676074
0.0973001
0.0941981
0.00553318
0.127305
-0.124213
0.000852146
-0.102911
-0.000712422
-0.00199407
-0.000310887
6.72071e-05
0.000212795
0.000195891
0.00014634
9.99761e-05
5.10668e-05
-0.000132848
-0.000396394
0.00208492
-0.0715274
0.0775314
0.00309519
-0.0900255
0.10038
0.151966
-0.16887
0.193679
-0.216511
-0.00179374
-0.151976
0.00209999
0.136606
-0.00173129
-0.118012
0.000832759
0.107063
-0.00504256
-0.00339366
-0.0895064
-0.00202629
0.0987638
-0.108585
0.00052137
-0.199805
-0.000163837
0.224378
-0.195881
0.000252191
-0.220657
0.000390762
-0.242796
-0.000411589
-0.265488
-0.000826108
0.289112
-0.300166
-0.000106734
0.315278
-0.00079287
-0.310208
0.309221
-0.000946297
-0.292484
0.295668
-0.313192
-0.000174573
0.000301902
0.00155081
0.00118165
0.000565931
0.000215596
2.41506e-05
-0.00015509
-0.00105531
-0.00113222
-0.0021786
-0.00262344
-0.00218683
-0.00232694
-0.115511
0.127766
0.00559324
-0.148701
0.158917
0.243702
-0.276547
0.300081
-0.345024
0.00666769
-0.270635
0.0257564
0.216417
-0.000743305
-0.199097
0.00691879
0.173985
-0.00821821
-0.00276566
-0.141723
9.42526e-05
0.163007
-0.175393
0.00157316
-0.307357
0.00141431
0.340871
-0.291813
-0.00098976
0.312813
0.00238004
-0.35542
0.208073
-0.00038055
-0.219649
0.192538
-0.230866
0.00847729
-0.0367779
-0.0183755
-0.0310586
-0.0527305
0.249722
-0.381313
0.0816522
-0.0793889
-0.0371485
-0.0210645
-0.0141564
-0.0105552
-0.00814506
-0.00485693
0.00878176
0.107403
0.0527481
-0.02738
0.0184815
0.00896982
0.0618336
-0.0538554
0.0567628
-0.00338021
-0.0371514
0.00173722
0.0690094
-0.0655099
-0.000215537
-0.0687567
1.66116e-05
-0.0748985
-3.13329e-05
-0.0842139
0.000416056
0.0943056
-0.0965018
-5.46902e-05
-0.104478
0.00122927
0.117975
0.000460895
0.000249826
0.11009
0.000474939
0.0873164
-7.60705e-05
-0.000370749
-0.000832559
-0.0028989
0.00039795
0.0371572
0.00252862
0.00294251
0.0129383
0.022748
-0.0344805
-0.000918361
-0.0540586
0.000299515
-0.0986152
-0.000615736
0.108504
-0.0954104
-1.94567e-05
-0.108907
7.86993e-05
-0.120872
3.2583e-05
-0.13614
0.000222866
0.153624
-0.157692
-0.000214327
0.177994
-7.30411e-05
0.000107074
0.140196
-5.90748e-06
0.000265619
4.83591e-05
-0.000306004
0.0852474
-0.000776581
0.0679779
0.00413538
0.000699784
0.0541605
0.0011198
0.00204955
-0.00236902
0.0613223
-0.00127673
-0.00189904
-0.0701189
-0.00187482
-0.0848615
0.000222843
-0.157217
-0.000382659
0.176596
-0.154915
0.000240757
-0.176257
0.000248558
-0.195486
-8.77907e-05
-0.216981
-0.000234048
0.240816
-0.248613
-0.000613164
0.271703
-0.000545818
-0.000121015
0.000147542
0.00022652
0.000409387
0.000372764
0.000415104
0.00046955
0.000306974
0.000313105
0.000287391
0.000232267
0.00156171
0.00251433
0.00344702
0.000165817
0.000477089
0.000361516
0.000291951
0.000254705
4.40561e-05
0.000392101
-0.00175611
-0.0659653
-0.000126534
-0.0645804
0.0794616
0.000877352
-0.0846198
-0.0866022
0.0809733
0.0757237
0.000842489
-0.0807883
-0.0923386
0.0859274
-0.0698609
-0.000216558
-0.0624558
0.0638131
0.0671172
0.066153
0.0646516
-7.5611e-05
-0.0687301
-0.0638548
-0.0017525
0.0770872
0.000964789
-0.0907237
-0.0827758
-0.00279828
0.0962358
0.00278674
-0.117937
-0.10706
-0.109927
-0.11257
0.00278681
0.0994054
0.101471
-0.00277806
0.0943779
0.00270758
-0.104429
-0.120103
0.107924
-0.00288046
-0.0760083
-0.113946
0.000386513
0.0697922
-0.00190495
-0.0595701
-0.087847
-0.000285926
0.0603505
0.0712755
-0.0479797
0.00397988
-0.0466038
-0.00331743
-0.0472844
0.00393918
-0.0464903
-0.00331034
-0.0474245
0.0041118
-0.0473436
0.0704022
0.0610397
-0.00351269
0.00059013
0.00237652
-0.0332401
-0.0383615
-0.0364829
-0.0404904
-0.0385466
-0.0388582
-0.0397237
-0.033869
-0.051936
-0.0401178
-0.0366374
-0.0382583
-0.0257601
-0.0109097
-0.0136052
0.0233445
-0.0261624
0.0628685
0.0635735
0.0630946
0.0633112
0.0656329
0.0613939
-0.0252889
0.0203737
-0.010854
-0.0257766
-0.013674
0.0250224
-0.00184793
0.000504893
0.000515864
0.00159283
0.00254844
-0.000108876
-0.00381459
0.128354
0.00453668
-0.14109
-0.144571
-0.133699
-0.154283
0.00433053
0.119359
0.136835
-0.00389051
-0.0974875
-0.146836
0.00187858
0.0870043
0.130244
-0.000496822
0.0141273
-0.0180022
0.00115473
0.0179195
-0.0230552
0.00166268
0.0231481
-0.0288289
0.00312755
0.0326221
-0.0325841
0.0102992
0.0580528
0.0139261
0.0241428
-0.00444992
0.0123543
-0.00648771
0.0090358
-0.00563427
0.00719232
-0.0045572
0.00514786
0.000370834
-0.0145757
0.103542
4.83073e-06
0.0107924
-0.0149869
-0.00160808
-0.000668152
-0.00475017
-0.0109058
0.00556626
0.0015152
-0.0646126
0.00405891
-0.0447397
-0.00354431
0.000676425
0.00283444
-0.0266608
-0.0437778
-0.0428638
-0.0358241
-0.0115344
-0.0250093
-0.00990606
-0.0191972
-0.056746
0.00932163
0.0798789
0.0610458
0.0660435
-0.0252344
-0.0542858
-0.0330961
0.00252678
0.0119019
0.0103012
0.012318
0.0140687
0.016494
0.00314751
-0.124337
-0.188462
0.1657
0.110443
-0.00595048
-0.00416269
-0.00207329
-0.00165111
0.012686
0.0131977
0.0144375
-0.00755371
-0.00489875
0.171929
0.00596717
-0.168471
-0.195469
-0.15575
-0.24045
0.00427496
0.140094
0.209745
-0.000347603
0.0016884
0.000968046
0.000636486
0.00111776
0.00196963
-0.214764
0.192292
-0.214617
-0.000840398
0.00345771
0.00234976
0.00100907
0.000508275
-1.90297e-05
0.18991
0.000545772
0.000124992
0.236609
0.00303345
2.02701e-05
0.00433738
0.00512
-0.0009247
0.000129718
0.000496612
0.000202399
0.000340035
-0.000256453
0.000323518
0.00034628
0.000725219
0.000199468
0.000512005
0.000448731
0.000144629
6.38633e-06
1.94356e-05
-3.76443e-05
0.000195675
0.00426215
0.0071088
0.00526282
0.00423851
0.00430111
0.00478152
0.00224205
0.00221721
-0.000964412
0.00121917
0.0587006
0.00326655
0.00585882
0.00577577
0.00649853
0.00654407
0.00767739
0.00523881
0.00542576
0.00817186
0.00841452
-0.189211
0.191667
0.0105994
-0.229657
0.00385494
0.00172909
-0.0405729
-0.0537205
-0.280812
-0.293154
-0.482967
0.121765
0.0419988
0.233787
-0.0840874
0.130878
-0.0145809
-0.14814
0.13395
-0.00317471
0.09583
-0.00335269
0.126003
-0.138677
-0.0114121
-0.00355623
-0.00434087
0.00178598
-0.0153745
0.100759
-0.00459984
0.00507446
0.00334584
0.00183685
0.00182048
0.000950119
0.000849828
-0.000659036
-0.000880489
0.00143658
0.00331261
0.0141635
0.00242173
-7.01846e-05
-0.000959357
0.122041
-0.138392
0.00103118
-0.2508
0.000399979
0.281007
-0.242947
9.11256e-06
-0.269396
0.000387177
0.266422
-0.000107057
0.000102652
0.000263941
0.000514626
0.00113492
0.0075327
0.00166785
0.000647491
0.000329036
0.000144322
0.000130073
0.000120968
9.61899e-05
6.65585e-05
0.0850974
9.33326e-05
0.0957144
5.15665e-05
0.0753251
0.0671259
0.000252846
0.0631343
0.0369786
0.000980249
0.000194354
-3.28442e-05
0.00014574
-2.3074e-06
0.107719
0.00149963
-0.00338215
0.0772371
-0.00199903
0.00170366
-0.00411075
0.0960363
-0.0021473
-0.00377431
-0.113448
-0.00154299
0.127267
-0.00484813
-0.00208391
0.00288733
0.00220399
0.000237384
0.13749
0.000210287
0.137366
0.000395887
0.000641701
0.175012
0.000324612
0.198143
0.000426527
0.00153318
0.219803
-0.00677151
0.153184
-0.00417144
-0.00365996
-0.178195
0.00344625
0.186592
-0.0136469
0.00266827
-0.00504736
-0.0294797
-0.0744147
0.000452871
-0.0114057
-0.00489644
0.00317352
0.00310454
0.269453
0.00018029
-0.000552912
-0.000979092
-0.000776025
-0.00441312
-0.000214748
0.000606573
0.00050422
0.246128
0.218465
-0.000179532
-2.54946e-05
-0.000592295
-0.00136426
-0.0017206
-0.00747729
-0.00260106
-0.00250115
-0.00122091
-0.000436659
0.222674
-0.000588698
7.82935e-06
0.000218569
0.00349093
0.00234537
0.000790402
-0.00279439
-0.000715334
0.00448627
0.0054978
0.00728176
-0.00117701
0.00328825
0.00346774
-0.00636674
0.0300784
0.0663522
-0.045992
0.310295
0.0176178
0.0048989
-0.00572694
0.00674575
0.013169
0.0138691
0.0129711
0.0124831
0.0116901
0.0121415
0.00272352
0.00116278
0.00113378
-0.0519396
-0.0261817
-0.0543326
-0.0268293
0.00263553
0.0100087
-0.00215184
-0.00189242
0.0709464
0.0846077
0.00158391
0.000387321
0.000300647
0.000477753
0.000327476
0.000504986
-0.000216647
-0.00289572
0.0238035
0.0592072
0.00291267
0.000720437
0.000183389
2.93257e-05
0.000231054
0.000247063
0.000222141
0.000237479
-0.000149378
0.00250614
0.00340207
0.00350598
0.00443231
-0.000730482
-0.00613357
-0.183147
0.00652532
-0.178278
0.190973
0.00974535
-0.221026
-0.228556
0.196282
0.183766
0.00831825
-0.208218
-0.244041
0.210234
-0.00623502
0.175633
0.260545
0.00120374
0.000653751
-0.00944238
0.0194853
0.0226812
0.0257955
0.069998
0.089604
0.169849
0.398934
0.0422777
0.20815
0.308411
-0.0230334
-0.01276
0.0116257
0.0150266
-0.00867579
-0.00684494
0.149979
0.16084
0.157207
0.15255
0.00646326
-0.191204
-0.174
-0.00627512
0.186861
0.00984001
-0.237137
-0.217876
-0.00828253
0.219597
0.234104
0.208086
-0.0079093
-0.00202451
-0.00268959
-0.000335574
0.000286002
0.00132749
0.000301788
0.00028737
-0.000490618
-0.000199944
-0.00279522
0.0277445
-0.00311339
-0.00191632
-0.00440568
-0.0037676
-0.00234216
-0.00398584
-0.00179256
0.075667
-0.0021505
0.00146406
0.000309079
8.46088e-05
0.00355288
0.00309432
-0.0323365
0.168722
-0.0832976
-0.301936
-0.36158
0.0297922
-0.170257
0.0717059
0.0230386
-0.105425
-0.116032
-0.0118975
-0.0176103
0.115329
0.106546
-0.0105452
-0.104425
-0.00212416
0.103854
-0.000383655
0.00115416
-4.42544e-05
0.00108233
0.00348275
0.00362684
0.00234586
0.000600587
0.000459983
-0.000868899
-0.000777676
5.07323e-06
-0.000916517
-0.000353233
-0.000164171
0.00428951
0.0052509
0.00526008
-0.00242286
0.00630881
0.00675174
-0.00598612
0.292739
-0.0176204
0.0170582
-0.325013
0.00628442
0.0039141
0.0368173
0.00440465
0.00793468
0.0249715
-0.00194195
-0.000431408
-0.00197712
0.00709982
0.0669636
-0.00441606
-0.00282007
-0.00163535
0.00146559
-0.180366
0.20749
-0.00727494
0.000426462
-0.00931806
-0.0218313
-0.0244649
-0.00454199
-0.00222137
0.080916
-0.00243129
-0.00267969
-0.00506249
-0.000931559
-0.00308133
0.0717814
-0.00475776
-0.00230188
0.00719245
0.00573878
-0.000266821
-0.000931875
-0.000627647
-0.00178553
0.00147995
0.00594476
0.00725987
0.00662769
-0.00800151
0.0228348
0.0232421
0.0255878
0.027686
0.313961
0.0325927
-0.00317084
0.0130088
0.0163901
0.0156956
0.0137834
0.0120314
-0.00420206
0.106088
0.0886397
-0.00290523
0.00114185
5.67405e-05
-0.0039748
0.112234
0.134293
0.00445994
-0.151354
-0.137295
0.121641
-0.00384412
0.125633
-0.00540543
0.0131412
0.0129191
-0.00368061
-0.00370344
-0.00168844
-0.00539288
0.0138872
0.0131568
0.00665236
-0.0120946
0.213856
0.228359
0.219394
-0.0124594
-0.00882087
-0.00687109
-0.00489167
-0.00749539
0.168142
0.141342
-0.00506388
0.00186241
0.00150571
-0.000609775
-0.00637209
0.174552
0.204355
-0.00946848
-0.00722606
-0.00670398
-0.00569544
-0.0047782
-0.00518136
-0.0113714
-0.0569022
-0.0197829
-0.00126393
0.00463712
0.00712218
-0.0059635
0.00898949
0.0104526
0.0126683
-0.0128078
-0.0209224
0.00129466
-0.0228077
-0.00532689
0.00287561
0.0283898
0.208125
0.300686
-0.0224187
0.0204233
0.198794
0.302318
0.0198468
0.189526
0.314609
0.150058
0.00245264
-0.00806681
0.243019
-0.0082629
0.0273909
0.112746
0.0171863
0.0407286
0.0432024
0.0421817
0.0563301
0.0350672
-0.00200061
-0.00569085
0.0418989
-0.0209125
-0.00994726
-0.00790466
0.0451159
0.0037106
0.032164
0.0284948
0.205072
0.173054
0.191703
0.183119
0.187654
0.0395257
0.00627202
-0.00049373
-0.00598273
-0.0767932
-0.247232
-0.262092
-0.00481953
0.000543809
0.15701
0.000138875
0.174561
0.00248008
0.00111413
0.000379478
0.000403319
-0.0167915
-0.00639125
0.0757149
0.12236
0.107682
-5.36151e-05
-0.0101723
-0.267837
0.000569911
0.00135318
-0.000670809
-0.0065703
0.0861957
0.00256028
0.00187214
0.00123092
-0.0028696
0.0143337
-0.00155789
0.198989
-0.219795
-0.0291318
-0.419878
0.000137761
-0.0035771
0.0169373
0.000120215
-0.428153
0.0746308
-0.00222627
0.0360046
0.0125303
0.0784316
0.0332766
0.0155863
0.01709
-0.00190326
-0.0010723
-0.000274706
0.149921
0.00292265
-0.00281893
-0.00448313
-0.00227668
0.000308462
-4.06059e-05
-0.000116484
-8.75134e-05
-8.15081e-05
-0.00024437
-0.000914269
-0.00123262
-0.0116569
-0.00664765
0.22957
0.0192907
-0.360782
0.396791
0.0251185
0.265195
0.0061828
-0.223581
0.235694
0.0295505
-0.182031
0.185534
0.0103469
-0.155692
0.147987
0.00775747
-0.125965
0.117839
0.00610636
-0.100078
0.0927191
0.00390651
-0.0793269
0.071951
0.00136987
-0.0642387
0.0550454
-0.00430349
-0.0555731
0.0348673