/*--------------------------------*- C++ -*----------------------------------*\
| =========                 |                                                 |
| \\      /  F ield         | OpenFOAM: The Open Source CFD Toolbox           |
|  \\    /   O peration     | Version:  2306                                  |
|   \\  /    A nd           | Website:  www.openfoam.com                      |
|    \\/     M anipulation  |                                                 |
\*---------------------------------------------------------------------------*/
FoamFile
{
    version     2.0;
    format      ascii;
    arch        "LSB;label=32;scalar=64";
    class       volScalarField;
    location    "0.1";
    object      gradTz;
}
// * * * * * * * * * * * * * * * * * * * * * * * * * * * * * * * * * * * * * //

dimensions      [0 -1 0 1 0 0 0];

internalField   nonuniform List<scalar> 
5322
(
-0.0361185
-0.0177017
-0.00408465
-0.00407423
-0.000429118
-2.82204e-05
-1.27026e-06
-4.34904e-08
-1.31496e-09
-5.69952e-11
-3.85938e-11
6.84019e-12
1.74027e-11
2.15268e-11
-7.75087e-11
-3.20239e-11
-3.54623e-11
1.51554e-11
-5.70436e-11
-8.34179e-11
1.4199e-11
-1.20446e-10
-8.63973e-10
-7.12256e-09
-4.18252e-08
-2.93106e-07
-1.67805e-06
-9.13001e-06
-4.50039e-05
-0.000187363
-0.000757787
-0.00238655
-0.0074582
-0.0163325
-0.0337854
-0.0428884
-0.0605956
-0.0513695
-0.0522584
-0.0464394
-0.0477379
-0.0492425
-0.0451908
-0.0489679
-0.048555
-0.0462556
-0.0499453
-0.0480576
-0.0464798
-0.051334
-0.0653534
-0.0336734
-0.0528639
-0.0344567
-0.0217401
-0.031353
-0.0484058
-0.0300917
-0.0202481
-0.030308
-0.0481025
-0.0301803
-0.0200121
-0.0296138
-0.0482773
-0.0315766
-0.0202728
-0.0288198
-0.048896
-0.0351308
-0.0177947
-0.0184134
-0.0173105
-0.0169208
-0.0168485
-0.0167724
-0.0168611
-0.0169597
-0.0178837
-0.0182036
-0.0207554
-0.0228252
-0.0240981
-0.0222317
-0.0093518
-0.0169025
-0.0412771
-0.0382343
-0.0345716
-0.0239261
-0.0261934
-0.00410037
-0.00418085
-0.00367232
-0.00798059
-0.0161168
-0.0102122
-0.0160744
-0.0409052
-0.0364561
-0.037968
-0.0236265
-0.0163777
-0.00803866
-0.00885247
-0.0101462
-0.0106614
-0.00415454
-0.000475673
-3.76734e-05
-2.26481e-06
-1.10982e-07
-4.7058e-09
-1.23502e-10
-2.62969e-11
1.20186e-10
1.48124e-11
3.72517e-11
-8.1635e-11
1.89618e-11
-9.34726e-12
-7.02277e-12
-4.6746e-11
8.47744e-11
3.99596e-11
1.95375e-10
4.34789e-11
6.64323e-11
-2.00008e-11
-1.0393e-10
-3.65617e-11
-2.15017e-10
-1.07731e-10
-8.16556e-11
-1.87583e-11
3.60956e-11
8.30614e-11
1.28504e-10
-5.30156e-11
-8.97284e-11
1.34239e-11
-3.09628e-11
8.6321e-11
6.05567e-11
3.76724e-11
1.08809e-10
4.49003e-11
-8.35769e-11
-7.23272e-11
-1.12055e-10
-5.38347e-11
-3.98142e-11
-2.61525e-11
2.55826e-12
-2.46602e-11
-4.99713e-11
-3.62503e-12
1.36885e-11
7.97078e-12
6.41177e-12
1.3874e-11
-2.29683e-12
-1.73638e-11
-7.61254e-12
-9.97221e-12
-2.79521e-11
-6.908e-13
2.90383e-11
-5.81298e-13
9.88146e-11
5.85931e-11
-3.16288e-12
6.92679e-11
-3.82188e-11
6.36652e-11
-2.28575e-11
-9.02911e-12
4.19068e-11
1.50721e-12
-3.27285e-11
-1.47544e-10
-2.06062e-10
-6.60922e-10
-3.15344e-10
-7.51441e-10
-3.93468e-09
-3.69571e-09
-1.7495e-08
-6.40379e-09
-1.93813e-08
-1.06025e-07
-1.02619e-07
-4.82336e-07
-1.73267e-07
-5.13403e-07
-2.71382e-06
-2.66609e-06
-1.20077e-05
-4.33962e-06
-1.24268e-05
-5.75915e-05
-5.71482e-05
-0.000226079
-8.66316e-05
-0.000229476
-0.000856929
-0.000856202
-0.0027202
-0.00116921
-0.00272623
-0.00795887
-0.00790656
-0.0161089
-0.040739
-0.0364114
-0.0364013
-0.0234673
-0.0273563
-0.0274729
-0.00418376
-0.00370233
-0.00808911
-0.0162856
-0.0104569
-0.0171902
-0.0417162
-0.036982
-0.0361438
-0.0237134
-0.0160763
-0.00796727
-0.01018
-0.0100717
-0.00415776
-0.000479921
-3.78736e-05
-2.25293e-06
-1.09151e-07
-4.62211e-09
-1.74051e-10
-1.59995e-11
1.16377e-10
-2.15892e-11
-5.27472e-11
-3.04879e-11
-4.1151e-12
2.1229e-11
-1.84461e-11
1.38761e-11
-8.12126e-12
-2.7711e-11
-3.39325e-11
-1.94296e-11
-3.71298e-11
1.16351e-11
1.46702e-12
1.04147e-10
2.84974e-10
1.00451e-10
1.29076e-11
6.74218e-11
8.4886e-12
5.03773e-11
9.10253e-11
-2.62317e-11
1.3336e-11
4.48525e-11
4.43101e-11
-1.28262e-10
-1.09202e-10
-7.57734e-10
-3.91364e-09
-1.868e-08
-1.08775e-07
-5.10328e-07
-2.77651e-06
-1.23519e-05
-5.81685e-05
-0.000227352
-0.000859926
-0.00271014
-0.00799806
-0.0160969
-0.0409193
-0.0161558
-0.0102018
-0.00792544
-0.00272989
-0.00116969
-0.000858847
-0.000231612
-8.75455e-05
-5.86189e-05
-1.27862e-05
-4.47292e-06
-2.82839e-06
-5.40167e-07
-1.81987e-07
-1.12381e-07
-2.03249e-08
-6.67912e-09
-4.21071e-09
-7.74562e-10
-2.66572e-10
-1.76752e-10
-1.28717e-11
-5.66829e-12
7.86206e-11
2.23771e-11
4.97752e-11
-3.25733e-12
1.64018e-11
4.374e-11
-2.51936e-11
6.6129e-11
-2.2363e-11
4.28117e-12
-7.09002e-11
-3.31053e-11
-4.96044e-11
-1.90394e-11
-1.07462e-10
-7.05001e-10
-3.1022e-09
-1.6344e-08
-9.1323e-08
-4.7994e-07
-2.60008e-06
-1.23894e-05
-5.91847e-05
-0.000235639
-0.000909574
-0.00277519
-0.00836107
-0.016352
-0.0417419
-0.0182197
-0.0104767
-0.00973556
-0.00324867
-0.00119104
-0.00101123
-0.000252444
-8.47001e-05
-6.07938e-05
-1.1711e-05
-3.84472e-06
-2.35419e-06
-3.77577e-07
-1.32877e-07
-6.99037e-08
-1.07973e-08
-4.39158e-09
-2.27382e-09
-4.41516e-10
-1.25809e-10
-5.72399e-11
-2.50482e-11
-1.64274e-11
-2.5364e-11
1.87458e-11
3.41746e-11
-8.19789e-11
1.39324e-10
3.62331e-11
-5.28984e-12
1.67675e-11
4.195e-11
-7.96964e-12
8.57917e-11
-1.53019e-11
-1.11737e-11
-5.99381e-11
-7.95524e-11
-1.0253e-11
3.56298e-11
8.65002e-11
7.66052e-12
3.15489e-11
3.52954e-11
1.07258e-10
3.29357e-11
1.60202e-11
1.26226e-10
5.84882e-11
1.90751e-11
3.05298e-11
-3.47997e-12
3.15602e-11
1.95347e-11
1.08595e-11
-2.93982e-11
-5.06097e-11
-2.27367e-10
-6.81479e-10
-4.03412e-09
-1.91195e-08
-2.65965e-08
-1.04189e-07
-5.03984e-07
-2.66624e-06
-1.23288e-05
-1.78953e-05
-5.72785e-05
-0.000229564
-0.000856454
-0.00272719
-0.00365872
-0.0041462
-0.000453423
-0.000453432
-3.26744e-05
-1.66456e-05
-5.42381e-05
-0.00023051
-8.35467e-05
-0.000226301
-0.000893157
-0.000872698
-0.00275468
-0.0011928
-0.00289739
-0.00834543
-0.0104894
-0.0180587
-0.0485156
-0.0403437
-0.0363179
-0.026198
-0.0297274
-0.00438301
-0.00408747
-0.00391836
-0.00114167
-0.00113353
-0.000257051
-6.39584e-05
-5.1849e-05
-9.35069e-06
-2.22529e-06
-1.30937e-06
-1.93367e-07
-5.43968e-08
-1.66973e-08
-3.04598e-09
-1.54465e-09
-3.96449e-10
-1.6801e-10
-4.14331e-11
-1.8648e-11
-1.95077e-11
-2.68417e-11
7.72073e-12
-1.10874e-11
1.06486e-10
-3.55008e-12
-9.07392e-11
-2.47308e-11
4.64743e-11
-1.11425e-10
-4.04326e-10
-1.17891e-09
-6.13584e-09
-8.55212e-09
-1.42732e-08
-4.2288e-09
-2.3215e-09
-3.00417e-09
-6.65295e-10
-2.1384e-10
-4.56722e-10
-5.55709e-10
-1.87739e-09
-7.36604e-11
-1.50598e-12
-3.77727e-11
2.8698e-11
-6.67361e-11
-3.22369e-11
-1.0189e-10
4.41192e-11
4.5358e-11
-1.02474e-11
3.91296e-11
2.01203e-11
1.40539e-11
-2.20005e-11
-3.89541e-11
-1.15311e-10
-3.05455e-10
-4.79377e-10
1.2593e-09
5.19605e-09
4.17227e-10
-2.28209e-10
-9.65441e-10
4.73466e-10
-6.99888e-09
-2.90358e-08
-2.15278e-07
-1.49694e-06
-9.26704e-06
-9.59987e-06
-1.11738e-05
-3.52742e-06
-1.98198e-06
-2.17325e-06
-3.9118e-07
-1.14501e-07
-2.67624e-07
-3.34832e-07
-1.32367e-06
-4.92609e-08
-9.62085e-09
-3.8693e-08
-3.80028e-09
7.26315e-10
-1.01826e-09
-2.44924e-10
-2.12935e-10
-1.33411e-10
-1.08318e-10
-3.92964e-10
-2.23995e-10
-6.36425e-11
4.51855e-12
-7.05722e-11
-6.19678e-11
1.87126e-11
1.90781e-11
5.01138e-11
-1.5009e-12
3.92718e-11
-2.48269e-11
-8.72675e-11
-1.15425e-10
-1.18904e-10
-7.97382e-10
-2.90779e-10
-7.1417e-10
-8.74947e-10
-3.76263e-09
-4.08024e-09
-2.00093e-08
-6.47616e-09
-1.75749e-08
-2.40137e-08
-1.05228e-07
-1.10277e-07
-5.36219e-07
-1.78451e-07
-4.95292e-07
-7.10448e-07
-2.76214e-06
-2.80901e-06
-1.27865e-05
-4.46904e-06
-1.24183e-05
-1.83205e-05
-5.89666e-05
-5.8944e-05
-0.000232068
-8.84754e-05
-0.000233071
-0.000339034
-0.000870563
-0.000868204
-0.0027178
-0.0011789
-0.00276552
-0.00374658
-0.00795325
-0.00798172
-0.0161125
-0.010189
-0.0162507
-0.0239764
-0.037084
-0.0361925
-0.02601
-0.0282407
-0.0114207
-0.0122787
-0.00532784
-0.00469455
-0.00369946
-0.00307923
-0.00411609
-0.00618699
-0.00580011
-0.00243896
-0.000482696
-0.000624896
-2.625e-05
-1.48536e-05
-3.88859e-06
-3.05153e-08
-3.51858e-07
-8.63506e-07
-2.26115e-08
-1.02147e-09
-1.17154e-10
4.40327e-11
4.53725e-11
-2.5594e-12
2.13572e-11
-5.21975e-11
6.79161e-11
3.09611e-11
-1.68328e-11
5.87589e-11
1.1492e-10
-2.62433e-11
-6.52452e-12
6.66723e-11
-5.13615e-12
5.8026e-11
1.07841e-11
-6.17589e-12
-3.81628e-12
3.74993e-11
-2.17399e-11
-1.37857e-10
-3.37957e-11
3.81893e-11
9.16453e-11
4.39143e-11
1.34877e-11
6.98821e-12
5.87965e-11
-5.72135e-11
-2.02259e-10
-1.21761e-10
-8.04092e-11
-7.29006e-11
-4.08885e-11
-7.07216e-11
-8.13312e-12
4.74156e-11
1.17463e-11
-1.26558e-10
-3.11626e-09
-7.81695e-08
-1.77911e-06
-3.31484e-05
-2.93815e-05
-1.46648e-05
-4.20693e-05
-1.59428e-05
-1.04017e-05
-6.27633e-06
-4.95431e-05
-5.30987e-05
-0.000238444
-0.001024
-0.00147533
-0.00105536
-0.000328483
-0.000219136
-8.20243e-05
-0.000155827
-0.000138244
-2.87694e-05
-0.000556097
-0.0056384
-0.026772
-0.0285297
-0.0314166
-0.0155093
-0.0105707
-0.0138273
-0.0232579
-0.0287173
-0.0407853
-0.0771336
-0.0685007
-0.049615
-0.0523135
-0.0267135
-0.0384938
-0.0395262
-0.0510172
-0.0262137
-0.0381945
-0.0390223
-0.051149
-0.0263893
-0.0378271
-0.0396234
-0.0516563
-0.0281127
-0.0388339
-0.0443139
-0.066732
-0.0701273
-0.0687977
-0.0908653
-0.0928101
-0.0669924
-0.0425105
-0.0528747
-0.0344996
-0.0217437
-0.0313209
-0.0481798
-0.0465295
-0.0512875
-0.0654005
-0.0336745
-0.0207684
-0.0228336
-0.0241076
-0.0222347
-0.00958488
-0.00414876
-0.00303041
-0.00090092
-0.000332959
-0.00021369
-4.67626e-05
-1.50486e-05
-9.09427e-06
-1.50495e-06
-4.21014e-07
-2.51956e-07
-3.21183e-08
-8.31197e-09
-5.51891e-09
-7.33121e-10
-1.44889e-10
-7.61182e-11
-7.40405e-11
-4.02475e-11
-9.02434e-11
1.68679e-11
1.09535e-10
4.82424e-11
-1.17213e-11
-3.35565e-11
9.75129e-12
6.21549e-14
6.62819e-11
-5.86378e-11
-1.11165e-11
-4.61801e-11
2.86872e-11
2.63211e-11
2.82134e-11
1.42748e-11
1.6772e-11
-4.34654e-11
2.23378e-11
3.69132e-11
3.30467e-11
5.96831e-11
-1.04789e-10
-1.41822e-09
-1.02501e-09
-3.11589e-08
-1.14567e-06
-1.5041e-06
-3.18271e-07
-9.76375e-08
-5.14855e-08
-1.11884e-06
-2.40151e-06
-3.68335e-08
-1.12607e-09
-7.67563e-08
-5.92709e-08
-7.48148e-08
-2.097e-08
-1.67329e-08
-9.75804e-08
-1.66973e-07
-4.51354e-07
-2.59525e-06
-4.26197e-06
-1.17523e-05
-5.73068e-05
-8.68416e-05
-0.000228256
-0.000860343
-0.00117233
-0.00273488
-0.00187647
-0.00204874
-0.0140016
-0.013443
-0.00558779
-0.000546234
-3.05147e-05
-1.11487e-06
-3.44291e-08
-1.23037e-09
-2.85283e-11
-5.49157e-12
2.20992e-11
-5.95369e-11
-5.44564e-11
6.81609e-11
5.18159e-11
-1.93952e-11
-7.25227e-12
-9.6203e-10
-2.96262e-08
-1.05468e-06
-2.99415e-05
-0.000546758
-0.00561555
-0.0273982
-0.0267435
-0.040944
-0.100706
-0.0674602
-0.0644848
-0.0390232
-0.0510887
-0.0263784
-0.0264585
-0.0273935
-0.0499146
-0.0256436
-0.0260676
-0.0266016
-0.0500861
-0.0257487
-0.0261728
-0.0266564
-0.0505713
-0.0276937
-0.0282652
-0.0335036
-0.067616
-0.070221
-0.0682537
-0.0686544
-0.0678881
-0.0418525
-0.032909
-0.0340494
-0.0675689
-0.0332213
-0.0418301
-0.0480771
-0.0302022
-0.0200075
-0.0294677
-0.0493913
-0.0451554
-0.0486756
-0.048809
-0.0464012
-0.0497995
-0.030196
-0.0202713
-0.030217
-0.0169112
-0.0167457
-0.016869
-0.0167803
-0.0201855
-0.0288228
-0.0310486
-0.0481849
-0.0477464
-0.0467981
-0.0513727
-0.045965
-0.0469867
-0.0652128
-0.0312268
-0.0300754
-0.0183574
-0.0151995
-0.00676221
-0.00296491
-0.00218822
-0.000708992
-0.000243681
-0.000161321
-4.24375e-05
-1.08558e-05
-6.91001e-06
-1.51988e-06
-2.93745e-07
-1.72658e-07
-3.47735e-08
-4.83187e-09
-2.80861e-09
-6.85075e-10
-2.78922e-11
2.66596e-11
6.19215e-12
-3.80178e-11
-6.47859e-11
-4.34993e-11
5.8385e-12
3.87299e-11
-4.75277e-11
3.58774e-12
-9.48843e-11
-5.13277e-11
1.44749e-10
9.6207e-11
-1.17842e-11
-1.59966e-10
-2.02446e-11
-9.53634e-12
2.40115e-10
6.6873e-11
1.79541e-11
-5.85213e-11
-4.60827e-11
-5.88444e-11
-3.00944e-12
-1.7725e-11
1.94116e-11
8.92068e-11
2.35292e-11
-9.97538e-12
1.54738e-11
-1.30232e-11
-6.06682e-11
-4.38263e-11
-4.78252e-11
-1.42728e-10
-1.03497e-10
-6.36697e-10
-4.14227e-10
-4.0788e-10
-2.90734e-09
-2.32942e-09
-1.5269e-08
-1.59134e-08
-9.34651e-08
-8.24439e-08
-4.73142e-07
-5.40573e-07
-2.62438e-06
-2.52771e-06
-1.19562e-05
-1.42841e-05
-5.64939e-05
-5.6421e-05
-0.000218648
-0.000258467
-0.00084169
-0.00083523
-0.00262864
-0.00291731
-0.00774216
-0.00735601
-0.00876066
-0.00726043
-0.00714091
-0.00333725
-0.00254971
-0.00103859
-0.000783088
-0.00078909
-0.000290693
-0.000205561
-6.92266e-05
-4.87042e-05
-5.29776e-05
-1.53664e-05
-1.02771e-05
-2.88653e-06
-1.96255e-06
-2.42849e-06
-5.51692e-07
-3.56955e-07
-8.15924e-08
-5.83365e-08
-8.72989e-08
-1.67349e-08
-1.07006e-08
-2.02892e-09
-1.67522e-09
-2.87861e-09
-4.86256e-10
-2.51187e-10
4.6848e-11
-3.25872e-11
5.0518e-12
-2.3107e-11
-8.31303e-11
-5.67349e-11
-3.12136e-11
-3.1604e-11
-1.05564e-10
-6.1151e-12
-1.15052e-11
-8.68432e-12
-3.61891e-11
-2.43492e-11
8.83793e-11
6.7376e-12
-1.27962e-11
1.87011e-12
-1.76819e-12
-5.21143e-12
-2.45765e-11
7.85201e-11
1.49334e-11
-3.40345e-11
-5.33115e-11
-6.11656e-12
-5.08226e-11
-4.54675e-11
-1.58636e-10
-1.05857e-11
-3.62153e-11
-1.05625e-11
-1.93201e-10
-5.69111e-11
-4.24905e-11
2.43993e-11
1.39176e-11
-6.13403e-11
-6.47874e-12
-9.05324e-12
5.50151e-12
1.07763e-10
3.26518e-11
-1.73106e-10
-1.45388e-10
7.71894e-11
-3.61369e-11
3.4208e-11
-3.80954e-11
2.56395e-11
-1.15944e-10
-1.19353e-10
-5.69643e-11
-1.37942e-10
-1.56834e-10
-1.6221e-11
-2.50358e-10
-1.93417e-11
-2.47287e-11
-3.41887e-12
2.78929e-13
-3.71414e-11
-2.08796e-10
-2.44693e-10
-6.53135e-10
-3.70371e-09
-6.35833e-09
-2.04064e-08
-3.07833e-09
-9.37829e-10
-7.58047e-08
-1.72724e-06
-5.90194e-07
-1.87423e-06
-8.65084e-08
-3.56303e-09
-1.01654e-09
-3.11245e-09
-8.15817e-11
-2.37152e-11
7.01904e-11
-1.45174e-10
-1.0125e-10
-4.28597e-10
-2.42001e-09
-1.23199e-08
-1.81925e-09
-5.29688e-10
-2.83832e-10
-1.01928e-10
-9.39728e-11
-9.13156e-11
-4.07243e-11
-9.697e-13
7.27739e-12
5.2397e-11
-1.03627e-10
-7.3564e-11
5.73692e-13
-2.27433e-10
-4.44031e-10
-2.64689e-09
-5.01202e-09
-1.18805e-08
-1.80624e-08
-2.75489e-08
-1.18434e-07
-1.96907e-07
-5.47536e-07
-5.96059e-07
-8.6751e-07
-3.00691e-06
-4.68551e-06
-1.31553e-05
-1.28452e-05
-1.86715e-05
-5.6284e-05
-7.91632e-05
-0.000216647
-0.000796792
-0.00105855
-0.00248705
-0.00702085
-0.00861126
-0.0107137
-0.00416136
-0.000473496
-3.77041e-05
-2.2906e-06
-1.13294e-07
-4.81408e-09
-1.54669e-10
5.79985e-11
4.96266e-11
-2.18555e-12
3.63627e-12
1.59925e-11
5.58877e-11
1.10703e-10
3.99263e-11
2.76635e-11
1.43548e-11
1.99233e-11
2.06225e-11
3.76832e-11
-1.43572e-10
1.10338e-10
-5.3825e-11
6.37347e-11
-9.56428e-13
-1.77992e-12
-2.63126e-11
7.21773e-11
-1.70424e-11
-2.30084e-11
-7.71228e-11
-8.66346e-11
-1.60237e-10
6.22439e-11
-4.8621e-11
7.47541e-12
6.25963e-11
3.85457e-11
-5.51121e-12
-8.4299e-11
-6.27386e-11
-2.68487e-11
-7.38575e-11
4.25321e-11
3.23286e-11
-3.01098e-12
1.06266e-10
1.13395e-12
2.69094e-11
7.77173e-12
-1.68818e-10
-2.91689e-10
-8.06742e-10
-1.18108e-09
-4.68565e-09
-7.54256e-09
-2.33147e-08
-2.13329e-08
-3.01784e-08
-1.10822e-07
-1.62142e-07
-5.58854e-07
-2.81991e-06
-4.09543e-06
-1.27358e-05
-3.30133e-05
-1.86228e-06
-8.52201e-08
-3.40047e-09
-1.15247e-10
-4.26765e-11
-3.28142e-11
8.74613e-11
-4.89596e-11
-1.48209e-10
-3.21063e-11
-2.25314e-11
-1.38987e-11
-3.82195e-11
-1.38858e-10
-1.14414e-10
-7.35063e-11
-3.62239e-09
-1.13558e-09
-8.85546e-08
-2.83051e-08
-3.98773e-08
-1.25134e-06
-3.23926e-05
-3.3011e-05
-0.000596566
-0.000727867
-0.000406476
-0.0064472
-0.0256084
-0.0282558
-0.0482273
-0.0440656
-0.102946
-0.0663071
-0.0663624
-0.0472253
-0.0746963
-0.0760408
-0.0751635
-0.0756088
-0.102587
-0.0658208
-0.0644488
-0.0394664
-0.0509042
-0.0262174
-0.0271902
-0.0281357
-0.0497306
-0.0255348
-0.0268756
-0.0273732
-0.0499271
-0.0256623
-0.0269253
-0.0274942
-0.0504072
-0.0276612
-0.0288603
-0.0310663
-0.0106618
-0.00417983
-0.00366692
-0.00272346
-0.0029034
-0.00113096
-0.000916891
-0.000956086
-0.00118035
-0.000854742
-0.00030144
-0.000802769
-0.00256301
-0.00356041
-0.00723817
-0.00833757
-0.00270782
-0.00270998
-0.00359052
-0.0083273
-0.0105874
-0.0182061
-0.0179128
-0.0169654
-0.00702257
-0.00331081
-0.00684402
-0.00862933
-0.00683327
-0.0032503
-0.00680166
-0.00863733
-0.00687298
-0.00328479
-0.00690613
-0.0171979
-0.0171292
-0.0207377
-0.0269477
-0.0331754
-0.0495567
-0.0422651
-0.070177
-0.0700542
-0.0672518
-0.0418691
-0.0332768
-0.033548
-0.0674285
-0.0346591
-0.0398451
-0.0683166
-0.0724161
-0.0688511
-0.0425601
-0.0344015
-0.0322563
-0.0293034
-0.0283818
-0.0303482
-0.010187
-0.00412406
-0.00415451
-0.000475718
-3.7705e-05
-2.26972e-06
-1.11346e-07
-4.68252e-09
-1.41845e-10
-3.28141e-11
-8.30811e-11
-1.19176e-10
-1.00296e-10
-5.96352e-11
5.0121e-11
5.88417e-11
1.18076e-10
5.4156e-12
3.27878e-11
1.02989e-11
-2.13911e-11
9.05554e-12
1.03552e-11
1.59505e-10
1.07022e-10
4.81178e-11
2.16193e-11
9.84628e-12
1.03902e-10
-1.38027e-10
-4.68795e-11
1.99225e-11
-6.67333e-11
2.7054e-11
7.06597e-11
-7.4458e-11
-7.43512e-11
-6.03859e-11
6.31418e-11
2.80736e-11
-1.76096e-11
1.21178e-11
-1.23653e-10
-4.97451e-11
-5.78901e-13
2.28378e-11
2.71063e-11
2.3353e-11
3.64914e-11
4.23772e-11
8.37034e-12
-1.39548e-11
-1.53781e-11
6.19592e-11
-6.70573e-11
-1.20177e-09
-3.53958e-08
-1.17096e-06
-3.12371e-05
-0.000553009
-0.000560905
-0.00564735
-0.00585458
-0.027203
-0.0417363
-0.0362052
-0.0363426
-0.04092
-0.0402567
-0.0652832
-0.0674067
-0.10045
-0.0407478
-0.0364345
-0.0363508
-0.0420095
-0.0379653
-0.0381659
-0.0412622
-0.016407
-0.0169005
-0.0239272
-0.0345622
-0.055178
-0.0230934
-0.00547139
-0.00562376
-0.0273805
-0.0268877
-0.013509
-0.0144088
-0.00219791
-0.000160593
-6.76203e-06
-1.96635e-07
-5.13975e-09
-6.39329e-09
-3.42249e-10
-3.09364e-10
-5.16798e-12
-2.71766e-11
-5.34077e-11
-1.25503e-09
-4.37239e-08
-1.44252e-06
-3.59327e-05
-0.000590681
-0.00190951
-0.00185671
-0.00190844
-0.000140789
-6.28076e-06
-2.04856e-07
-2.13457e-07
-6.89985e-09
-6.16933e-09
-2.49009e-10
-8.36986e-11
-1.60852e-10
-4.20058e-10
-2.64172e-09
-1.30732e-08
-4.8098e-09
-3.42838e-09
-6.9778e-10
-2.13697e-10
-6.38781e-10
-1.22084e-10
1.43964e-11
-9.05427e-11
2.71265e-11
5.99021e-11
-3.869e-12
-3.96583e-11
1.8459e-13
1.05813e-11
3.54691e-11
-3.39003e-11
1.61688e-11
-6.17308e-11
-6.44205e-11
6.3447e-11
-1.96092e-11
-6.3502e-11
-1.6387e-10
-1.95571e-11
9.29675e-12
-1.25671e-12
6.00286e-11
-6.84396e-11
-4.55584e-11
5.80608e-11
-1.88384e-10
9.48267e-11
-1.74817e-10
-4.10532e-11
-4.68124e-11
-2.73542e-11
-8.87676e-12
3.50673e-12
-4.64075e-11
-4.79812e-12
-3.63599e-11
-6.03715e-11
-5.3645e-11
-1.23511e-11
-7.1596e-11
-9.21606e-11
7.32578e-12
2.95104e-11
-1.20815e-10
-7.5151e-11
-7.81238e-11
-2.02458e-09
-3.97895e-10
-3.18617e-09
-8.9629e-10
-8.05533e-08
-2.59388e-08
-1.77338e-08
-9.81009e-08
-8.11591e-08
-4.18262e-07
-2.43355e-06
-1.15192e-05
-3.87765e-06
-2.63185e-06
-4.98271e-07
-1.44248e-07
-3.88995e-07
-5.55234e-08
-1.29506e-08
-1.40194e-06
-4.73239e-07
-1.79554e-06
-7.33763e-07
-1.90992e-06
-7.71557e-07
-3.39832e-05
-1.8583e-05
-0.000454531
-0.000455499
-0.000452183
-0.000328617
-0.000341542
-0.000132212
-7.94281e-06
-3.71887e-07
-1.51462e-08
-5.96261e-10
-8.28835e-10
-1.13156e-09
-5.34863e-09
-2.0717e-08
-2.78373e-08
-1.23069e-07
-4.70551e-07
-5.87831e-07
-1.22181e-07
-5.32092e-09
-7.96369e-10
-8.13918e-10
-1.12447e-09
-1.63163e-10
-6.24159e-09
-1.38327e-07
-2.63198e-06
-2.43259e-06
-9.05601e-06
-1.039e-05
-3.92415e-05
-0.000137454
-0.000145384
-0.000482984
-0.00150459
-0.0015386
-0.00418966
-0.0274679
-0.0271087
-0.0298528
-0.0107235
-0.010074
-0.0241095
-0.0267499
-0.0287794
-0.0548046
-0.0747457
-0.0755603
-0.101708
-0.0650528
-0.0402497
-0.0375514
-0.0677365
-0.0688863
-0.037051
-0.0409683
-0.0562973
-0.0688941
-0.0667671
-0.0651906
-0.10114
-0.0758944
-0.075007
-0.0743834
-0.0745821
-0.0750685
-0.0756681
-0.0680453
-0.0637534
-0.0396645
-0.0516471
-0.028099
-0.0264862
-0.0275229
-0.0504234
-0.0276242
-0.0261643
-0.0266814
-0.0506174
-0.0276465
-0.0262944
-0.0267001
-0.0510692
-0.0285976
-0.0337279
-0.0678809
-0.0724701
-0.0677032
-0.0421553
-0.0332901
-0.0303955
-0.0101997
-0.00412495
-0.000479378
-3.90846e-05
-2.443e-06
-1.24581e-07
-5.47393e-09
-1.90434e-10
-8.3411e-10
-5.86983e-10
-1.94133e-10
-6.57951e-10
-3.19184e-09
-4.5984e-09
-1.6684e-08
-9.27645e-08
-7.7473e-08
-4.02176e-07
-2.36603e-06
-1.13096e-05
-2.31318e-06
-1.49468e-06
-4.56538e-07
-2.49664e-07
-6.78444e-08
-3.17852e-08
-1.22512e-08
-5.35626e-09
-8.23268e-09
-3.1577e-09
-2.62612e-08
-6.76124e-08
-1.39393e-07
-3.15217e-07
-5.00609e-07
-2.31494e-06
-3.88235e-06
-1.03446e-05
-1.20247e-05
-1.77924e-05
-5.6737e-05
-8.46374e-05
-0.000217713
-0.000306192
-0.000787492
-0.00109075
-0.00245758
-0.00247573
-0.00330581
-0.00692178
-0.00865732
-0.00684508
-0.00682444
-0.00325906
-0.00245867
-0.00246742
-0.00684684
-0.00861893
-0.0101243
-0.00401711
-0.000440195
-3.27255e-05
-1.8146e-06
-8.21335e-08
-3.28536e-09
-1.95302e-09
-5.47764e-08
-7.89239e-08
-2.39779e-08
-1.76967e-06
-6.90089e-07
-4.73653e-07
-2.54013e-06
-3.788e-06
-1.19318e-05
-5.62545e-05
-5.66459e-05
-0.00022934
-0.000915003
-0.00290761
-0.000955587
-0.000900816
-0.000283604
-0.000213716
-5.81908e-05
-4.66023e-05
-1.38417e-05
-9.07748e-06
-1.50878e-05
-1.09028e-05
-4.41529e-05
-7.21661e-05
-0.000179171
-0.000212787
-0.000301994
-0.00080308
-0.001096
-0.00255896
-0.00249945
-0.00330774
-0.00700892
-0.00885259
-0.00723424
-0.00832766
-0.00355854
-0.00270641
-0.00270772
-0.0083192
-0.0105759
-0.0118149
-0.00427823
-0.00358987
-0.00415098
-0.00303193
-0.00959402
-0.00342965
-0.00546442
-0.000586486
-3.51864e-05
-1.37843e-06
-4.03908e-08
-1.10389e-09
-1.84264e-11
-2.27902e-11
5.64726e-11
-2.19584e-11
3.66859e-11
3.8372e-12
-4.11567e-11
5.51328e-11
-9.85265e-12
-1.59127e-11
2.73676e-11
2.61898e-11
9.00286e-11
1.24678e-11
-1.48069e-11
-1.73788e-11
1.41979e-11
1.11191e-11
-3.1323e-11
-1.12689e-11
-1.97265e-10
-2.77129e-10
-8.30919e-10
-7.1229e-10
-1.03127e-09
-3.79145e-09
-5.49595e-09
-2.03653e-08
-7.44623e-09
-8.45404e-09
-4.43663e-09
-2.66572e-10
-1.59391e-10
-5.25774e-11
-4.6067e-11
2.57381e-11
2.35819e-11
1.65322e-11
7.5616e-11
1.2121e-11
1.94361e-11
-1.07074e-11
3.13939e-11
-2.87545e-11
-4.07775e-11
-1.14637e-10
-1.11496e-11
-9.7241e-11
-1.697e-10
-4.17315e-10
-6.43865e-10
-9.49423e-10
-4.35058e-09
-7.38903e-09
-2.31241e-08
-3.32109e-08
-1.25873e-07
-2.01912e-07
-6.02529e-07
-5.72559e-07
-8.30266e-07
-2.96822e-06
-6.22384e-06
-2.50336e-07
-1.22397e-07
-4.8711e-08
-3.80713e-08
-1.30177e-09
-1.90355e-10
-2.2136e-10
-1.61559e-11
-2.75169e-11
-2.62948e-11
-4.41051e-11
-4.42184e-13
-1.10149e-10
-6.67524e-11
-3.96411e-11
-7.94276e-11
-5.4624e-12
9.02714e-11
-3.17644e-10
-1.53313e-09
-9.08038e-09
-1.4532e-08
-8.01683e-08
-1.45583e-07
-3.69041e-07
-4.96258e-07
-7.54031e-07
-2.89973e-06
-4.60927e-06
-1.30932e-05
-1.89485e-05
-5.73159e-05
-8.50173e-05
-0.000217747
-0.000216636
-0.000307037
-0.000789555
-0.000439752
-0.000135801
-9.13503e-06
-1.0381e-05
-2.4373e-06
-1.2418e-07
-5.42892e-09
-1.32036e-10
-1.13674e-09
-8.16135e-10
-2.09538e-08
-1.60539e-08
-3.24387e-09
-8.17458e-08
-1.80851e-06
-8.02765e-06
-9.04708e-06
-4.73304e-07
-5.90074e-07
-2.80262e-08
-2.12798e-08
-8.65514e-10
-2.9789e-10
-1.66883e-10
-5.511e-12
-1.16665e-10
-8.62851e-10
-1.13919e-09
-4.49662e-09
-4.5368e-09
-8.47247e-10
-7.61181e-10
-9.89753e-10
-4.27721e-09
-3.37321e-09
-6.55894e-10
-1.6779e-10
-4.24788e-12
-1.76785e-10
4.23333e-12
5.48731e-11
3.25116e-11
-1.39934e-11
-1.26801e-11
-8.77856e-11
-7.48847e-11
-2.28989e-10
-7.68016e-10
-9.33846e-10
-3.55983e-09
-4.34836e-09
-7.316e-09
-2.06569e-08
-2.79898e-08
-1.00358e-07
-1.17941e-07
-1.22245e-07
-1.20921e-07
-3.19807e-08
-2.25447e-08
-2.23603e-08
-7.17153e-09
-1.99661e-08
-2.66499e-08
-1.15203e-07
-9.42259e-08
-1.77701e-08
-5.05961e-09
-2.69863e-09
-1.4584e-09
-4.78872e-10
-4.10561e-10
-2.06268e-10
-9.9511e-11
-6.74152e-11
-5.09701e-11
4.01104e-11
-4.61484e-11
-1.53328e-11
-6.70766e-11
5.82508e-11
8.678e-11
1.3044e-11
-6.22395e-11
-1.86113e-11
-2.63539e-11
9.75646e-12
1.79859e-11
-4.1791e-11
3.28841e-11
-3.57847e-11
5.59302e-12
2.26943e-12
-4.02554e-11
-4.85488e-11
5.15789e-11
-7.14807e-11
4.88418e-11
-8.93293e-11
4.11539e-11
-2.32427e-11
-4.20812e-11
-8.93334e-12
2.27016e-11
1.17512e-10
7.32196e-11
-7.77492e-12
6.14369e-11
-2.76236e-11
2.62747e-11
9.75767e-11
-1.3822e-11
-1.50677e-11
-3.80111e-12
3.38994e-11
-2.72734e-11
-4.23341e-11
-6.82124e-11
-9.74611e-11
5.95555e-11
-1.1699e-10
-3.89376e-11
3.53044e-11
1.34021e-11
-7.70586e-11
-1.18512e-10
-3.76799e-09
-9.18239e-08
-4.78847e-07
-1.93e-07
-5.83725e-07
-8.42275e-07
-2.93893e-06
-2.9161e-06
-2.85225e-06
-2.49013e-06
-7.36699e-07
-5.36415e-07
-4.88017e-07
-1.43924e-07
-7.91433e-08
-4.84847e-08
-1.44356e-08
-1.18228e-08
-9.1214e-09
-1.64571e-09
-5.0048e-10
-1.7186e-09
-2.80519e-09
-2.55402e-08
-1.34177e-07
-2.30872e-07
-1.37574e-06
-6.65362e-06
-1.07419e-05
-4.40965e-05
-0.000178767
-0.0002684
-0.000822317
-0.00171229
-0.000356356
-0.000119022
-1.46511e-05
-4.31384e-06
-2.7637e-07
-7.79517e-08
-1.75259e-09
-1.07522e-09
-2.15927e-10
-3.68398e-11
1.24401e-11
-3.44462e-10
-4.46338e-11
-9.8017e-12
-5.41187e-11
6.67776e-11
-8.37144e-11
-6.04462e-11
7.95806e-12
-4.28886e-11
-8.76496e-11
4.46998e-13
-9.17687e-12
2.1117e-11
6.33336e-11
-1.64607e-11
-3.46819e-11
-4.72804e-13
6.07162e-11
-7.38833e-11
-6.25092e-11
3.17432e-12
3.67655e-11
7.49035e-11
-4.82911e-12
-1.65131e-11
6.89198e-11
1.62488e-11
-6.013e-11
-3.10035e-11
8.97363e-11
-1.10632e-13
2.79872e-11
-6.79263e-12
-4.35978e-11
-2.32204e-11
-5.01254e-10
-1.25185e-08
-6.51924e-07
-4.90838e-07
-2.29252e-06
-1.79698e-06
-3.12422e-07
-3.64436e-07
-1.48219e-07
-4.5422e-09
-1.86237e-10
-2.74091e-10
-1.24097e-09
-3.4966e-08
-1.06874e-06
-4.89841e-06
-3.85913e-06
-1.19309e-05
-1.76045e-05
-5.63265e-05
-5.33617e-05
-5.25769e-05
-4.94336e-05
-1.49148e-05
-1.02837e-05
-9.8837e-06
-2.68775e-06
-2.34632e-06
-6.39801e-06
-6.25537e-06
-0.000136586
-0.000140783
-5.70384e-05
-5.72915e-05
-0.00023026
-0.000284588
-0.00042653
-2.88425e-05
-1.40559e-05
-3.28639e-05
-1.80662e-05
-1.22412e-05
-0.00044949
-0.000327167
-0.000227235
-8.10043e-05
-0.000129904
-3.26757e-05
-0.000440132
-0.00149915
-0.00150249
-0.000136889
-0.000144954
-1.03821e-05
-9.06702e-06
-3.90377e-05
-4.0871e-05
-3.91513e-05
-2.42017e-06
-4.6298e-07
-4.6763e-07
-2.0678e-08
-2.80133e-08
-2.14371e-08
-1.59328e-08
-3.86464e-07
-1.38164e-07
-1.91561e-07
-5.37763e-09
-5.96573e-09
-6.00377e-09
-2.79544e-09
-2.74622e-10
-2.30133e-10
-1.98657e-11
-1.30009e-11
3.66035e-12
-2.04863e-10
-1.79639e-07
-1.88892e-07
-5.88751e-06
-5.80065e-06
-4.42042e-06
-0.000136022
-0.000134132
-0.000139367
-6.13205e-06
-0.000225803
-0.000859348
-0.00113195
-0.0027258
-0.00191357
-0.00185621
-0.0134171
-0.0133807
-0.0231201
-0.055286
-0.092849
-0.0908404
-0.0425079
-0.0443273
-0.0667153
-0.0701435
-0.041852
-0.0678446
-0.0688846
-0.0419047
-0.0335419
-0.0677394
-0.0708698
-0.0681448
-0.0973925
-0.0803763
-0.0803652
-0.0745436
-0.0550647
-0.0268763
-0.028976
-0.0101422
-0.00412305
-0.000482734
-0.000136983
-8.96344e-06
-8.98393e-06
-3.36658e-05
-3.26536e-05
-1.75393e-05
-0.000449034
-0.000324923
-0.00042613
-2.87417e-05
-1.39081e-06
-1.80728e-06
-9.93084e-06
-1.50511e-05
-5.27717e-05
-7.99327e-05
-0.000206529
-0.000215693
-0.000304773
-0.000787467
-0.00108939
-0.000784165
-0.000441768
-3.38545e-05
-9.08838e-06
-7.99815e-06
-0.000129746
-8.04662e-05
-0.000136594
-0.000144941
-1.03768e-05
-5.89404e-07
-4.80845e-07
-9.29407e-08
-3.85628e-09
-1.32364e-10
-1.61195e-10
-3.25322e-10
-7.72698e-10
1.42023e-11
-3.59591e-11
-4.2237e-11
1.24104e-12
3.86897e-11
1.12094e-10
2.72593e-11
-5.872e-11
-1.62516e-12
-8.51399e-09
-4.84514e-09
-3.41229e-09
-4.09449e-10
-1.09708e-09
-1.73645e-09
-2.27561e-09
-1.40103e-08
-8.4247e-08
-4.8678e-08
-2.9803e-07
-2.40314e-07
-1.39138e-06
-2.70148e-06
-6.74475e-06
-4.42398e-06
-1.49305e-05
-2.35601e-05
-6.92021e-07
-1.5708e-07
-9.60114e-08
-2.44811e-07
-1.24329e-07
-1.12615e-06
-5.02364e-06
-2.52013e-06
-6.13576e-06
-1.25294e-05
-2.66646e-05
-0.000111127
-5.35989e-05
-0.000119636
-4.9517e-05
-0.000356851
-0.000269328
-0.000821184
-0.00117821
-0.000854093
-0.00171113
-0.000448417
-0.0044628
-0.0202285
-0.022408
-0.0334701
-0.0412623
-0.032493
-0.0100235
-0.00145461
-0.000789991
-0.000421801
-0.00400976
-0.0185858
-0.039934
-0.0323431
-0.00939113
-0.00135504
-0.000113034
-0.000215317
-5.68899e-05
-2.82471e-05
-1.32234e-06
-0.000419467
-0.0039327
-0.0183204
-0.0396252
-0.0324863
-0.00945563
-0.00135673
-0.0001132
-5.71319e-05
-0.000118201
-6.33319e-06
-2.42357e-07
-4.92264e-08
-1.3584e-09
-5.41544e-11
1.2096e-11
-2.52159e-10
-1.44072e-06
-3.11745e-05
-0.000456144
-0.00143497
-0.00991955
-0.0188928
-0.0414255
-0.0330804
-0.0327298
-0.0364962
-0.0316351
-0.0188152
-0.00401905
-0.00391299
-0.000408705
-2.60664e-05
-1.11186e-06
-3.71323e-08
-1.2168e-09
2.16653e-11
-2.05375e-11
2.06856e-11
-1.36144e-11
-6.8835e-12
2.49618e-12
-9.27332e-11
-7.52493e-11
-2.23794e-11
-5.60407e-11
3.66586e-11
-1.43086e-10
-1.32465e-10
-4.16753e-10
-6.39606e-10
-3.36774e-09
-8.26895e-10
-1.14844e-09
-3.19243e-11
-8.48182e-10
-6.12613e-10
-4.98067e-11
-1.42685e-11
-1.50362e-10
-4.28366e-11
-6.27344e-11
-2.16187e-09
-1.68686e-08
-2.15282e-08
-2.81957e-08
-2.17257e-08
-4.86177e-07
-5.92143e-07
-4.82414e-07
-8.39438e-08
-1.83913e-06
-1.94681e-06
-3.37156e-05
-0.000135644
-8.43366e-05
-5.64724e-05
-1.86578e-05
-5.65953e-05
-0.000217039
-0.000304278
-0.000781559
-0.000783046
-0.000216944
-0.000215101
-0.000304037
-0.000785934
-0.000790124
-0.000215358
-7.9861e-05
-0.000206435
-0.000212666
-7.22215e-05
-5.84845e-05
-0.000110539
-2.31013e-05
-0.000446694
-0.00446491
-0.00428679
-0.0118244
-0.0224186
-0.0335035
-0.0202498
-0.0413447
-0.0325376
-0.0100555
-0.00145836
-0.000418456
-2.60485e-05
-0.000112265
-5.99035e-06
-1.24159e-05
-1.29566e-05
-1.29874e-05
-1.25733e-05
-1.78974e-05
-5.38348e-05
-5.64081e-05
-8.44117e-05
-0.000214748