/*--------------------------------*- C++ -*----------------------------------*\
| =========                 |                                                 |
| \\      /  F ield         | OpenFOAM: The Open Source CFD Toolbox           |
|  \\    /   O peration     | Version:  2306                                  |
|   \\  /    A nd           | Website:  www.openfoam.com                      |
|    \\/     M anipulation  |                                                 |
\*---------------------------------------------------------------------------*/
FoamFile
{
    version     2.0;
    format      ascii;
    arch        "LSB;label=32;scalar=64";
    class       volScalarField;
    location    "0.1";
    object      gradTz;
}
// * * * * * * * * * * * * * * * * * * * * * * * * * * * * * * * * * * * * * //

dimensions      [0 -1 0 1 0 0 0];

internalField   nonuniform List<scalar> 
5322
(
-0.791697
-0.742476
-0.658561
-0.712564
-0.584152
-0.470713
-0.373566
-0.294096
-0.23298
-0.19084
-0.163743
-0.15536
-0.114366
-0.159042
-0.175039
-0.143083
-0.168504
-0.129266
-0.187807
-0.202664
-0.225957
-0.24779
-0.28133
-0.315207
-0.360027
-0.399547
-0.455493
-0.50829
-0.574881
-0.630543
-0.705712
-0.772092
-0.847992
-0.898985
-0.926472
-0.803326
-0.942071
-0.93586
-0.964707
-0.701478
-0.89469
-0.923528
-0.687975
-0.924114
-0.91485
-0.700035
-0.937491
-0.885975
-0.692417
-0.9217
-1.04915
-0.718989
-0.999717
-0.895172
-0.806438
-0.847998
-1.04195
-0.832321
-0.809381
-0.846457
-1.05318
-0.843507
-0.809305
-0.825736
-1.05309
-0.873374
-0.806361
-0.785216
-1.03221
-0.931478
-0.670814
-1.00215
-0.953865
-0.939793
-0.948953
-0.944389
-0.943756
-0.941186
-0.955652
-0.910756
-0.881461
-0.705575
-0.731682
-0.949567
-0.620286
-0.84581
-1.21415
-0.779756
-0.785021
-0.68559
-0.850865
-0.638216
-0.672573
-0.670487
-0.852631
-0.799838
-0.766278
-0.810654
-1.2347
-0.75725
-0.765765
-0.69555
-0.817053
-0.84325
-0.919989
-0.745092
-0.784609
-0.718466
-0.590707
-0.477507
-0.37912
-0.297859
-0.234694
-0.190956
-0.189229
-0.178632
-0.126291
-0.136055
-0.186434
-0.149464
-0.131278
-0.158073
-0.155855
-0.218686
-0.163411
-0.214169
-0.154403
-0.161199
-0.210498
-0.153847
-0.157883
-0.212471
-0.156262
-0.15498
-0.213428
-0.158408
-0.155893
-0.219213
-0.163668
-0.214375
-0.154894
-0.13177
-0.149561
-0.134202
-0.126559
-0.186537
-0.136126
-0.135264
-0.124988
-0.125874
-0.186637
-0.135454
-0.134945
-0.125136
-0.12605
-0.186545
-0.135637
-0.134098
-0.131657
-0.175085
-0.142929
-0.168797
-0.207758
-0.217812
-0.132478
-0.187985
-0.129348
-0.171126
-0.11445
-0.154009
-0.159299
-0.148152
-0.157861
-0.179379
-0.150862
-0.196341
-0.194851
-0.202467
-0.162409
-0.202207
-0.227506
-0.227822
-0.250252
-0.198227
-0.25062
-0.282726
-0.282963
-0.316785
-0.249988
-0.31718
-0.359665
-0.359898
-0.403793
-0.31907
-0.404457
-0.457773
-0.458316
-0.510782
-0.405545
-0.511998
-0.576379
-0.577588
-0.636126
-0.508335
-0.63809
-0.712081
-0.714364
-0.776838
-0.622657
-0.780007
-0.846647
-0.848958
-0.809108
-1.23488
-0.757142
-0.754713
-0.697792
-0.9615
-0.959168
-0.672618
-0.671134
-0.850657
-0.806395
-0.75872
-0.818992
-1.23287
-0.761836
-0.754065
-0.699383
-0.805878
-0.847555
-0.76579
-0.768083
-0.717155
-0.59083
-0.477998
-0.379506
-0.298095
-0.234821
-0.191014
-0.189275
-0.17873
-0.125859
-0.125555
-0.125462
-0.125817
-0.186524
-0.134926
-0.135602
-0.134895
-0.157876
-0.225169
-0.134958
-0.186557
-0.135604
-0.22386
-0.160827
-0.20993
-0.153802
-0.134946
-0.15788
-0.209977
-0.112775
-0.152853
-0.150954
-0.150784
-0.157928
-0.194765
-0.202527
-0.227781
-0.250294
-0.28301
-0.316798
-0.360033
-0.403816
-0.458577
-0.510795
-0.578106
-0.635967
-0.715401
-0.776036
-0.854732
-0.799217
-1.23517
-0.814096
-0.76612
-0.844787
-0.78209
-0.623097
-0.712031
-0.639065
-0.508683
-0.576793
-0.512385
-0.405771
-0.458185
-0.404587
-0.3192
-0.359989
-0.317189
-0.250057
-0.283033
-0.250518
-0.198257
-0.227857
-0.202011
-0.162385
-0.196625
-0.15643
-0.19644
-0.202202
-0.162398
-0.194946
-0.157921
-0.179393
-0.14789
-0.114084
-0.159732
-0.143215
-0.197116
-0.20265
-0.227416
-0.251386
-0.283071
-0.317698
-0.360763
-0.404807
-0.460002
-0.512058
-0.581256
-0.63574
-0.722327
-0.769535
-0.858914
-0.804336
-1.2203
-0.853475
-0.741566
-0.918959
-0.844442
-0.604889
-0.770934
-0.686382
-0.493443
-0.621598
-0.548014
-0.392826
-0.492154
-0.431949
-0.308734
-0.386277
-0.338699
-0.241842
-0.303309
-0.267754
-0.191886
-0.243828
-0.217863
-0.157286
-0.207722
-0.168822
-0.175121
-0.154046
-0.161534
-0.142097
-0.171633
-0.114179
-0.130401
-0.151548
-0.139767
-0.201338
-0.210593
-0.203245
-0.202234
-0.16178
-0.194797
-0.197872
-0.145446
-0.179915
-0.161392
-0.157344
-0.154205
-0.216855
-0.172464
-0.16359
-0.223214
-0.16748
-0.156709
-0.156162
-0.151806
-0.196637
-0.202046
-0.178769
-0.228015
-0.250536
-0.283167
-0.317189
-0.278228
-0.360278
-0.404332
-0.458905
-0.511417
-0.446694
-0.578373
-0.636558
-0.71482
-0.77748
-0.671478
-0.672929
-0.555113
-0.55555
-0.448992
-0.447869
-0.580999
-0.637053
-0.508482
-0.643424
-0.709641
-0.719855
-0.773709
-0.621994
-0.790556
-0.836276
-0.940289
-0.781076
-1.23141
-0.777462
-0.738964
-0.720638
-0.935087
-0.636737
-0.575388
-0.806911
-0.510825
-0.705666
-0.64803
-0.410858
-0.576046
-0.512323
-0.325785
-0.459469
-0.403523
-0.256068
-0.359409
-0.313848
-0.200611
-0.28274
-0.247683
-0.159532
-0.225445
-0.201369
-0.132257
-0.188665
-0.139978
-0.134771
-0.173493
-0.156236
-0.180827
-0.207107
-0.231544
-0.259133
-0.289434
-0.326802
-0.317033
-0.31796
-0.249486
-0.283669
-0.283511
-0.251327
-0.197847
-0.250253
-0.219691
-0.208792
-0.169593
-0.149869
-0.17653
-0.169139
-0.162038
-0.190064
-0.190222
-0.163579
-0.156158
-0.118662
-0.194792
-0.108476
-0.149046
-0.163191
-0.170634
-0.205224
-0.234695
-0.232427
-0.294054
-0.298857
-0.25784
-0.258953
-0.240664
-0.287055
-0.328052
-0.370306
-0.41592
-0.472976
-0.526064
-0.513657
-0.512593
-0.405287
-0.459335
-0.460188
-0.405244
-0.318599
-0.404865
-0.35524
-0.337487
-0.26488
-0.234574
-0.275267
-0.270781
-0.258951
-0.216803
-0.207982
-0.199434
-0.225859
-0.190854
-0.184701
-0.210026
-0.191537
-0.164447
-0.155598
-0.148529
-0.142592
-0.149519
-0.129003
-0.173394
-0.171667
-0.202456
-0.178368
-0.227918
-0.227713
-0.250655
-0.19831
-0.25031
-0.219105
-0.283098
-0.283023
-0.317188
-0.25017
-0.317073
-0.277699
-0.360067
-0.360296
-0.404285
-0.319424
-0.404555
-0.353654
-0.458466
-0.459112
-0.511352
-0.406158
-0.512415
-0.446179
-0.577224
-0.57908
-0.636143
-0.509188
-0.639325
-0.553462
-0.711788
-0.716696
-0.775787
-0.623128
-0.782
-0.669286
-0.844709
-0.852674
-0.808122
-0.764766
-0.808431
-0.703044
-0.758627
-0.730855
-0.669048
-0.927893
-0.625479
-0.818716
-0.636169
-0.609091
-0.756409
-0.762302
-0.672494
-0.716422
-0.7211
-0.659841
-0.603634
-0.591467
-0.474048
-0.484516
-0.420094
-0.381957
-0.374674
-0.371951
-0.292529
-0.231761
-0.189932
-0.162856
-0.154245
-0.114727
-0.158106
-0.139893
-0.149268
-0.150093
-0.149156
-0.154102
-0.179843
-0.134639
-0.165712
-0.162051
-0.16355
-0.167533
-0.131451
-0.165176
-0.163938
-0.163432
-0.180008
-0.123123
-0.124023
-0.123813
-0.123472
-0.123089
-0.122527
-0.187325
-0.123622
-0.123354
-0.123391
-0.187359
-0.12382
-0.181166
-0.190534
-0.189865
-0.167551
-0.167142
-0.155824
-0.178616
-0.219977
-0.279131
-0.355413
-0.447941
-0.425704
-0.378755
-0.443645
-0.436286
-0.416957
-0.468357
-0.526822
-0.601732
-0.648332
-0.762911
-0.617819
-0.637948
-0.512006
-0.594536
-0.496253
-0.531142
-0.540422
-0.4694
-0.583479
-0.712204
-0.867413
-0.862406
-0.862013
-0.7548
-0.703132
-0.733008
-0.799699
-0.665327
-0.752125
-1.06978
-0.966249
-0.958422
-0.98909
-0.636018
-0.805861
-0.846352
-1.01288
-0.655363
-0.834927
-0.85018
-1.01773
-0.658139
-0.824509
-0.860857
-1.01533
-0.673189
-0.816996
-0.916227
-1.26623
-0.992824
-0.970618
-1.22832
-1.2015
-0.959634
-0.707375
-0.999826
-0.895907
-0.806074
-0.846278
-0.887807
-0.69279
-0.920175
-1.04968
-0.71882
-0.882051
-0.705982
-0.732321
-0.949886
-0.832194
-0.637896
-0.793726
-0.703023
-0.534655
-0.640292
-0.573231
-0.430376
-0.510051
-0.45675
-0.341308
-0.401641
-0.359306
-0.267631
-0.314835
-0.282173
-0.211099
-0.248546
-0.225947
-0.167789
-0.203002
-0.187928
-0.141056
-0.171237
-0.141335
-0.161229
-0.153801
-0.168741
-0.207852
-0.217818
-0.157284
-0.197458
-0.142906
-0.175138
-0.15961
-0.114065
-0.147678
-0.152939
-0.17941
-0.149614
-0.155371
-0.164353
-0.191309
-0.233374
-0.233716
-0.295326
-0.375768
-0.351054
-0.339019
-0.3251
-0.370007
-0.420814
-0.392092
-0.307568
-0.329354
-0.334929
-0.360741
-0.360995
-0.278814
-0.317203
-0.359816
-0.319451
-0.404606
-0.458068
-0.40611
-0.512298
-0.576725
-0.508926
-0.638427
-0.711891
-0.62269
-0.778844
-0.66209
-0.670716
-0.788201
-0.79059
-0.715409
-0.583637
-0.469381
-0.372088
-0.292808
-0.232074
-0.190205
-0.163414
-0.154817
-0.114068
-0.152921
-0.149488
-0.155246
-0.163891
-0.190924
-0.232996
-0.294185
-0.373945
-0.4717
-0.586464
-0.717357
-0.881697
-0.875864
-0.700066
-1.31489
-0.972298
-0.93264
-0.850961
-1.01745
-0.659058
-0.660814
-0.718651
-1.05261
-0.684203
-0.694656
-0.708192
-1.05849
-0.687329
-0.697723
-0.703228
-1.05598
-0.705309
-0.717585
-0.787596
-1.34016
-1.00529
-0.980895
-0.985333
-0.976771
-0.791847
-0.744814
-0.790835
-1.33521
-0.782043
-0.805063
-1.05249
-0.84472
-0.808774
-0.824468
-0.92881
-0.687508
-0.919015
-0.919567
-0.701593
-0.933976
-0.834584
-0.808953
-0.843421
-0.945191
-0.942014
-0.950286
-0.937727
-0.809536
-0.795248
-0.865832
-1.05436
-0.900915
-0.708155
-0.958603
-0.842481
-0.707736
-1.15368
-0.625172
-0.825664
-0.697476
-0.820862
-0.764922
-0.609021
-0.709941
-0.642033
-0.515269
-0.577487
-0.52535
-0.407029
-0.466511
-0.415176
-0.330513
-0.365608
-0.329342
-0.252651
-0.289101
-0.256704
-0.203707
-0.226
-0.207432
-0.160252
-0.182917
-0.171891
-0.135115
-0.151595
-0.107982
-0.193909
-0.139876
-0.118639
-0.218862
-0.155841
-0.163359
-0.213826
-0.154559
-0.160839
-0.210162
-0.153572
-0.158024
-0.212328
-0.156571
-0.154477
-0.213169
-0.114998
-0.148923
-0.179846
-0.151288
-0.156445
-0.196111
-0.162317
-0.202142
-0.202165
-0.178267
-0.227305
-0.191728
-0.25093
-0.267517
-0.184697
-0.303067
-0.20027
-0.337955
-0.234159
-0.384961
-0.255042
-0.430913
-0.298189
-0.489454
-0.323842
-0.545307
-0.37615
-0.614408
-0.405458
-0.680665
-0.467078
-0.758035
-0.498893
-0.834258
-0.568658
-0.9065
-0.598243
-0.704173
-0.863344
-0.843423
-0.677241
-0.799202
-0.595974
-0.727563
-0.706234
-0.555218
-0.654392
-0.485602
-0.589072
-0.573527
-0.447196
-0.524727
-0.388118
-0.469352
-0.456972
-0.354421
-0.415179
-0.305694
-0.36872
-0.359782
-0.278461
-0.325601
-0.240001
-0.290031
-0.283262
-0.219732
-0.258283
-0.190593
-0.232386
-0.22817
-0.179047
-0.209299
-0.156254
-0.202263
-0.194627
-0.157283
-0.139088
-0.130163
-0.114212
-0.153935
-0.161343
-0.141262
-0.171151
-0.140541
-0.149013
-0.142897
-0.148759
-0.14962
-0.152435
-0.179376
-0.15086
-0.15748
-0.155724
-0.196984
-0.157261
-0.217619
-0.149937
-0.24368
-0.159404
-0.210223
-0.173694
-0.172008
-0.194973
-0.167054
-0.223536
-0.135535
-0.186469
-0.134954
-0.134658
-0.165434
-0.163173
-0.161862
-0.163326
-0.164037
-0.225103
-0.16747
-0.156463
-0.178951
-0.179118
-0.17921
-0.228272
-0.228406
-0.179
-0.208963
-0.173155
-0.172275
-0.194927
-0.162517
-0.202618
-0.227586
-0.198368
-0.250563
-0.282863
-0.250219
-0.271676
-0.22054
-0.220086
-0.279817
-0.356256
-0.354988
-0.356041
-0.279712
-0.220444
-0.219645
-0.219894
-0.178588
-0.178337
-0.20226
-0.227536
-0.243726
-0.267623
-0.303061
-0.338067
-0.200427
-0.282348
-0.184683
-0.248481
-0.159568
-0.226136
-0.149993
-0.202969
-0.167515
-0.160725
-0.207071
-0.190779
-0.226779
-0.258143
-0.219843
-0.283235
-0.248951
-0.316625
-0.317368
-0.278581
-0.358937
-0.318402
-0.403633
-0.403798
-0.353748
-0.455957
-0.403709
-0.510629
-0.510813
-0.445335
-0.573769
-0.488473
-0.636589
-0.707207
-0.598931
-0.779601
-0.836601
-0.709134
-0.787848
-0.720185
-0.591095
-0.477485
-0.379045
-0.297805
-0.234656
-0.190935
-0.189195
-0.178552
-0.125888
-0.124997
-0.125681
-0.135344
-0.224867
-0.167438
-0.167455
-0.222891
-0.13525
-0.134476
-0.165776
-0.163466
-0.17242
-0.163383
-0.223741
-0.167072
-0.15576
-0.197251
-0.157387
-0.174805
-0.171951
-0.189893
-0.179963
-0.123389
-0.122997
-0.187353
-0.122457
-0.124841
-0.186545
-0.172022
-0.17903
-0.169585
-0.154129
-0.21647
-0.202737
-0.157433
-0.194432
-0.161703
-0.203464
-0.201782
-0.179162
-0.227431
-0.198171
-0.250202
-0.219582
-0.282474
-0.249638
-0.316802
-0.316539
-0.277459
-0.359462
-0.307673
-0.403881
-0.45692
-0.390403
-0.510857
-0.447105
-0.354815
-0.278819
-0.219826
-0.178535
-0.171883
-0.189839
-0.179887
-0.168828
-0.191745
-0.172103
-0.174851
-0.171917
-0.168845
-0.191701
-0.178864
-0.178749
-0.220353
-0.219583
-0.279614
-0.278183
-0.294543
-0.374416
-0.472457
-0.474442
-0.59015
-0.550075
-0.536486
-0.661572
-0.77852
-0.661132
-0.94114
-0.713534
-1.34693
-0.954197
-0.935565
-0.89204
-1.08259
-0.980541
-1.01707
-0.975595
-1.33841
-0.941705
-0.931289
-0.850003
-1.01299
-0.657307
-0.670319
-0.726232
-1.04688
-0.681288
-0.706049
-0.718295
-1.05264
-0.684414
-0.70706
-0.715363
-1.05007
-0.703814
-0.722421
-1.00603
-0.784738
-0.672716
-0.670749
-0.781013
-0.832622
-0.603228
-0.767831
-0.504503
-0.603846
-0.741098
-0.554885
-0.701545
-0.787563
-0.675574
-0.829383
-0.899128
-0.780873
-0.729509
-0.610478
-0.737522
-0.710557
-0.910582
-0.956596
-0.939673
-0.840192
-0.674586
-0.832135
-0.729584
-0.836129
-0.673872
-0.832085
-0.730256
-0.837085
-0.675884
-0.832942
-0.956514
-0.935229
-0.810596
-0.745887
-0.893054
-1.05836
-0.789821
-0.989553
-1.00507
-0.965489
-0.80462
-0.781994
-0.787286
-1.32802
-0.789963
-0.875535
-1.28101
-1.01306
-0.971315
-0.789913
-0.78012
-1.00757
-0.716992
-0.71488
-0.999629
-0.77151
-0.721247
-0.718585
-0.59083
-0.477618
-0.379199
-0.297913
-0.234726
-0.190976
-0.189243
-0.178644
-0.122462
-0.123088
-0.164547
-0.161866
-0.163433
-0.209807
-0.16081
-0.131651
-0.134139
-0.149441
-0.136083
-0.131341
-0.155879
-0.219054
-0.163468
-0.216467
-0.154583
-0.213846
-0.172448
-0.167617
-0.163506
-0.222972
-0.135276
-0.135389
-0.186582
-0.12539
-0.125313
-0.135421
-0.135215
-0.134368
-0.156754
-0.215077
-0.156858
-0.224794
-0.167378
-0.167428
-0.154158
-0.129459
-0.149467
-0.142543
-0.148937
-0.155582
-0.164386
-0.191628
-0.233883
-0.295326
-0.375413
-0.47357
-0.588742
-0.587638
-0.720065
-0.720847
-0.874384
-0.705729
-0.751479
-0.755446
-1.23583
-0.873834
-0.941971
-0.971558
-1.31135
-0.697578
-0.754245
-0.756332
-0.710601
-0.765774
-0.779169
-1.21432
-0.819302
-0.845822
-0.685971
-0.785085
-0.901771
-0.763952
-0.663067
-0.719795
-0.883107
-0.880539
-0.787092
-0.789725
-0.678477
-0.544603
-0.429741
-0.336662
-0.263753
-0.259949
-0.20691
-0.206912
-0.171732
-0.173663
-0.176876
-0.217368
-0.275296
-0.350343
-0.441942
-0.548106
-0.669308
-0.659463
-0.661133
-0.533875
-0.423201
-0.331884
-0.331586
-0.259849
-0.263458
-0.210039
-0.22776
-0.243827
-0.26765
-0.30321
-0.338124
-0.24152
-0.283126
-0.251001
-0.191761
-0.21845
-0.178582
-0.178384
-0.202209
-0.167142
-0.223667
-0.153774
-0.155841
-0.171896
-0.174823
-0.186443
-0.126324
-0.125075
-0.165945
-0.163064
-0.164387
-0.1645
-0.122386
-0.187392
-0.164542
-0.165368
-0.134806
-0.167613
-0.164592
-0.161708
-0.163292
-0.163814
-0.172381
-0.163413
-0.163867
-0.165967
-0.167672
-0.126122
-0.136096
-0.149351
-0.186358
-0.134157
-0.131521
-0.174771
-0.17208
-0.18988
-0.179849
-0.168835
-0.172103
-0.179083
-0.16962
-0.150085
-0.208756
-0.184816
-0.219893
-0.219127
-0.278945
-0.277606
-0.317374
-0.360183
-0.385666
-0.430794
-0.490993
-0.545132
-0.391561
-0.458331
-0.40462
-0.308076
-0.350744
-0.264633
-0.234341
-0.336761
-0.298488
-0.355063
-0.353372
-0.355945
-0.354143
-0.448514
-0.446785
-0.555098
-0.554267
-0.527164
-0.473021
-0.557223
-0.557374
-0.445741
-0.351226
-0.275502
-0.218535
-0.215306
-0.211571
-0.235689
-0.271393
-0.266508
-0.299206
-0.345894
-0.339575
-0.299245
-0.235727
-0.215541
-0.215303
-0.211521
-0.192362
-0.236439
-0.300166
-0.382019
-0.380859
-0.438672
-0.430369
-0.47958
-0.547986
-0.537077
-0.592742
-0.668801
-0.680614
-0.671125
-0.956075
-0.666139
-1.00714
-0.783598
-0.767591
-0.967901
-0.702602
-0.996482
-1.00002
-1.01898
-0.972179
-1.32861
-0.941713
-0.876868
-0.823763
-1.03161
-1.04255
-0.780043
-0.878731
-1.00637
-1.04184
-0.961967
-0.94131
-1.3209
-0.976399
-1.02205
-1.02558
-1.02822
-1.02263
-0.972448
-1.03226
-0.918764
-0.860914
-1.01538
-0.67358
-0.657668
-0.715487
-1.05034
-0.703252
-0.691174
-0.703359
-1.05652
-0.704094
-0.694312
-0.698279
-1.05358
-0.71954
-0.788896
-1.33188
-1.03372
-0.967852
-0.807459
-0.781003
-0.999783
-0.771053
-0.721109
-0.592869
-0.479318
-0.380624
-0.299062
-0.235612
-0.191679
-0.215398
-0.218413
-0.191871
-0.250971
-0.282893
-0.241644
-0.317264
-0.359905
-0.38546
-0.430695
-0.490726
-0.544997
-0.324462
-0.456991
-0.298254
-0.401701
-0.255395
-0.359523
-0.234169
-0.314849
-0.267341
-0.256041
-0.328002
-0.306072
-0.367351
-0.414823
-0.354466
-0.456739
-0.402682
-0.511507
-0.5112
-0.446726
-0.571339
-0.504726
-0.636232
-0.553373
-0.703881
-0.617775
-0.77939
-0.780591
-0.673837
-0.83726
-0.730074
-0.833988
-0.835307
-0.67429
-0.779218
-0.779839
-0.833004
-0.729391
-0.769942
-0.674807
-0.554699
-0.447963
-0.355591
-0.279461
-0.220365
-0.20869
-0.264532
-0.278931
-0.277519
-0.355022
-0.353236
-0.404416
-0.457991
-0.391711
-0.512017
-0.576721
-0.618603
-0.679878
-0.767312
-0.832789
-0.504437
-0.703455
-0.468863
-0.640454
-0.407517
-0.573533
-0.376684
-0.510192
-0.429978
-0.411406
-0.523223
-0.488408
-0.584289
-0.649378
-0.554911
-0.701591
-0.616077
-0.787008
-0.776564
-0.674654
-0.839495
-0.725615
-0.829767
-0.898727
-0.675699
-0.780684
-0.728848
-0.736983
-0.710069
-0.756317
-0.718123
-0.609811
-0.637383
-0.793848
-0.832662
-0.570354
-0.661348
-0.546473
-0.440587
-0.349259
-0.274433
-0.216675
-0.17632
-0.149073
-0.142695
-0.161433
-0.141335
-0.108015
-0.130275
-0.151652
-0.139001
-0.194146
-0.118457
-0.139479
-0.179917
-0.161242
-0.145087
-0.156717
-0.194703
-0.162428
-0.201701
-0.178693
-0.227342
-0.19807
-0.250466
-0.249981
-0.219028
-0.282676
-0.241406
-0.317037
-0.263483
-0.259939
-0.282812
-0.207264
-0.227879
-0.190146
-0.18996
-0.162651
-0.154286
-0.149678
-0.158114
-0.156087
-0.149291
-0.163153
-0.135424
-0.171643
-0.156443
-0.209126
-0.179164
-0.228083
-0.197627
-0.250318
-0.250868
-0.220036
-0.282564
-0.249759
-0.316795
-0.278071
-0.358984
-0.318261
-0.403662
-0.403597
-0.353107
-0.456016
-0.41864
-0.33062
-0.359133
-0.29272
-0.292438
-0.231917
-0.208894
-0.228467
-0.173334
-0.198122
-0.163585
-0.170991
-0.183305
-0.190378
-0.190443
-0.205523
-0.232884
-0.235095
-0.20198
-0.257619
-0.240122
-0.325734
-0.278501
-0.359729
-0.31735
-0.403727
-0.40435
-0.354388
-0.455711
-0.403867
-0.510758
-0.445981
-0.572012
-0.504685
-0.636251
-0.636914
-0.552828
-0.703816
-0.554037
-0.547324
-0.438007
-0.430163
-0.380746
-0.299156
-0.235681
-0.191738
-0.211534
-0.215261
-0.271305
-0.275287
-0.220451
-0.279587
-0.35576
-0.444855
-0.438466
-0.345743
-0.339476
-0.266444
-0.271543
-0.215488
-0.198269
-0.227919
-0.178688
-0.227682
-0.250459
-0.219649
-0.282713
-0.282927
-0.250321
-0.25041
-0.220083
-0.28271
-0.283381
-0.250921
-0.228401
-0.179159
-0.2276
-0.2025
-0.201867
-0.202048
-0.202254
-0.17908
-0.22806
-0.227715
-0.198235
-0.250192
-0.219994
-0.283065
-0.282787
-0.249849
-0.316663
-0.278574
-0.359642
-0.359159
-0.359114
-0.359364
-0.27815
-0.316992
-0.316865
-0.249886
-0.316878
-0.278671
-0.35907
-0.360044
-0.317421
-0.249149
-0.283291
-0.290395
-0.219832
-0.250398
-0.197773
-0.228121
-0.233064
-0.179128
-0.203482
-0.201869
-0.19796
-0.15668
-0.194867
-0.162533
-0.196591
-0.156479
-0.196303
-0.1625
-0.195071
-0.156616
-0.197618
-0.201969
-0.203151
-0.161721
-0.173425
-0.162041
-0.154117
-0.115347
-0.157498
-0.149867
-0.153508
-0.153783
-0.114782
-0.153828
-0.150358
-0.149632
-0.157745
-0.115359
-0.214029
-0.158287
-0.154289
-0.134424
-0.179863
-0.156047
-0.151344
-0.151602
-0.155732
-0.145475
-0.160862
-0.179836
-0.131208
-0.158198
-0.21389
-0.154357
-0.222876
-0.167393
-0.17904
-0.178963
-0.22043
-0.279624
-0.345945
-0.318559
-0.403811
-0.353814
-0.455962
-0.45637
-0.455826
-0.457548
-0.354486
-0.403931
-0.404397
-0.317626
-0.359804
-0.369574
-0.278504
-0.316773
-0.325824
-0.240349
-0.257869
-0.288416
-0.256419
-0.328319
-0.367794
-0.326905
-0.417417
-0.466482
-0.411977
-0.523772
-0.584908
-0.51082
-0.638256
-0.64059
-0.595062
-0.521209
-0.479724
-0.41617
-0.380112
-0.32808
-0.298478
-0.257773
-0.235303
-0.202186
-0.227133
-0.25816
-0.190957
-0.207172
-0.183526
-0.161002
-0.190495
-0.205627
-0.171023
-0.171747
-0.156585
-0.20281
-0.157369
-0.194474
-0.161813
-0.17353
-0.16336
-0.156123
-0.118579
-0.139739
-0.194093
-0.108054
-0.151817
-0.135477
-0.163126
-0.149313
-0.130353
-0.139056
-0.161164
-0.145333
-0.179913
-0.149681
-0.154126
-0.162123
-0.189339
-0.190183
-0.23243
-0.293541
-0.373007
-0.354475
-0.456841
-0.470432
-0.414979
-0.403942
-0.333489
-0.262166
-0.209231
-0.208281
-0.231256
-0.291616
-0.37012
-0.422708
-0.403047
-0.511207
-0.446839
-0.571362
-0.574863
-0.572445
-0.593532
-0.447093
-0.511813
-0.524319
-0.389295
-0.324532
-0.427545
-0.422451
-0.532356
-0.539147
-0.57706
-0.618982
-0.679969
-0.46922
-0.525872
-0.424437
-0.376971
-0.447475
-0.445783
-0.51238
-0.554167
-0.553429
-0.638879
-0.491221
-0.556156
-0.44817
-0.55491
-0.680085
-0.669186
-0.547846
-0.537079
-0.430257
-0.438555
-0.479465
-0.480912
-0.479609
-0.380896
-0.346238
-0.345774
-0.271346
-0.266424
-0.271416
-0.275221
-0.350643
-0.308221
-0.33624
-0.26378
-0.260377
-0.261011
-0.262341
-0.207734
-0.207323
-0.171993
-0.173774
-0.14875
-0.210282
-0.3332
-0.332231
-0.423199
-0.424674
-0.427392
-0.535158
-0.53317
-0.539777
-0.428062
-0.638221
-0.713248
-0.603424
-0.779864
-0.670063
-0.660341
-0.789148
-0.791978
-0.763319
-0.903086
-1.2022
-1.22774
-0.707283
-0.915966
-1.26647
-0.992588
-0.792057
-0.97652
-0.987287
-0.806282
-0.787207
-1.34234
-1.0117
-0.979127
-1.26818
-1.08637
-1.08752
-1.02568
-1.00009
-0.705633
-0.998765
-0.769006
-0.719661
-0.59276
-0.548441
-0.439079
-0.438469
-0.448584
-0.447397
-0.445565
-0.554056
-0.553154
-0.525665
-0.424253
-0.336617
-0.470077
-0.524107
-0.447074
-0.57235
-0.5036
-0.639535
-0.635865
-0.554153
-0.702247
-0.617447
-0.704184
-0.5546
-0.447886
-0.438342
-0.444706
-0.555973
-0.491395
-0.547816
-0.537018
-0.430207
-0.339441
-0.345777
-0.279443
-0.220294
-0.178857
-0.228076
-0.207667
-0.250347
-0.172349
-0.202524
-0.196776
-0.150329
-0.156182
-0.153995
-0.113769
-0.154609
-0.163206
-0.260453
-0.26171
-0.283363
-0.232687
-0.257614
-0.288068
-0.298204
-0.293844
-0.32786
-0.369295
-0.379754
-0.326465
-0.416979
-0.388887
-0.465937
-0.415874
-0.479271
-0.470761
-0.373389
-0.332882
-0.359963
-0.331265
-0.359328
-0.371185
-0.421917
-0.457397
-0.419458
-0.510761
-0.467503
-0.527493
-0.574604
-0.520861
-0.593102
-0.594543
-0.510152
-0.637651
-0.603343
-0.740643
-0.640259
-0.584842
-0.713004
-0.819774
-0.812131
-0.800333
-0.859001
-0.820783
-0.763181
-0.646255
-0.708532
-0.579973
-0.706794
-0.81402
-0.874381
-0.835804
-0.757539
-0.638998
-0.5232
-0.636708
-0.572383
-0.467983
-0.371537
-0.580663
-0.708038
-0.816262
-0.878969
-0.836375
-0.757444
-0.638289
-0.522268
-0.572027
-0.530531
-0.424624
-0.33514
-0.274099
-0.216523
-0.176178
-0.166859
-0.212922
-0.348647
-0.439065
-0.543973
-0.649888
-0.766971
-0.820625
-0.893941
-0.832022
-0.670202
-0.748673
-0.815773
-0.814074
-0.708806
-0.704336
-0.578202
-0.465966
-0.369856
-0.291349
-0.231021
-0.189168
-0.189048
-0.162165
-0.172767
-0.172733
-0.150308
-0.179838
-0.149537
-0.156074
-0.163181
-0.18992
-0.209166
-0.19768
-0.250095
-0.25098
-0.220402
-0.215455
-0.211495
-0.168822
-0.215198
-0.218376
-0.169562
-0.154093
-0.216406
-0.207766
-0.132282
-0.208677
-0.275184
-0.271499
-0.266382
-0.271176
-0.345478
-0.339387
-0.345892
-0.279527
-0.355701
-0.355793
-0.44815
-0.547834
-0.504963
-0.5726
-0.446009
-0.571757
-0.637121
-0.553327
-0.702942
-0.704609
-0.635858
-0.637334
-0.554217
-0.70199
-0.708926
-0.635736
-0.504055
-0.639948
-0.649624
-0.488923
-0.407604
-0.528478
-0.470279
-0.584236
-0.712164
-0.718516
-0.756435
-0.812076
-0.800478
-0.818857
-0.85926
-0.820645
-0.764045
-0.647357
-0.578274
-0.466154
-0.524753
-0.420748
-0.511199
-0.510675
-0.511181
-0.51072
-0.446958
-0.573339
-0.572123
-0.504997
-0.636429
-0.554778
-0.705632
-0.704043
-0.617984
-0.779015
-0.782268
-0.780375
-0.617043
-0.680483
-0.66998
-0.593019
-0.594255
-0.654901
-0.719642
-0.672968
-0.671767
-0.960952
-0.699436
-0.659777
-0.996808
-0.998894
-1.0292
-0.972804
-1.02379
-1.02868
-0.99513
-0.693534
-0.985552
-0.747312
-0.972724
-0.977147
-0.972819
-0.974832
-0.961727
-0.816527
-1.01792
-1.32146
-0.71218
-0.980321
-1.08036
-1.02234
-1.08769
-1.01828
-0.970826
-1.28422
-1.02485
-0.722334
-0.79013
-1.33602
-0.782798
-0.998037
-0.719221
-0.980077
-0.748906
-0.721408
-0.655343
-0.669131
-0.669264
-0.679898
-0.6692
-0.54759
-0.669329
-0.655915
-0.537107
-0.547933
-0.438519
-0.444577
-0.448187
-0.555332
-0.554846
-0.669418
-0.674943
-0.638392
-0.570696
-0.920715
-0.620408
-0.791509
-0.84228
-0.744567
-0.788158
-0.850818
-0.961643
-0.696321
-0.6574
-0.999007
-0.769047
-0.748954
-0.974773
-0.691038
-0.987886
-0.996268
-0.999696
-1.0315
-0.920511
-1.01751
-1.32063
-0.980205
-1.02263
-1.02583
-1.02724
-1.03015
-0.996197
-0.697762
-0.987872
-1.01925
-1.02787
-1.01836
-0.997504
-0.695522
-0.990253
-0.750582
-0.980029
-0.98192
-0.880729
-0.675197
-0.675003
-0.879321
-0.875144
-0.641341
-0.676719
-0.675121
-0.770061
-0.874769
-0.8783
-0.881451
-0.81176
-0.977289
-0.751585
-0.635559
-0.582624
-0.469544
-0.372546
-0.29319
-0.232112
-0.262113
-0.317431
-0.316488
-0.249058
-0.264576
-0.35057
-0.317472
-0.403469
-0.404519
-0.354442
-0.456894
-0.456067
-0.403642
-0.318513
-0.404017
-0.332248
-0.291195
-0.230964
-0.261255
-0.261234
-0.208262
-0.332292
-0.369507
-0.465391
-0.577368
-0.640682
-0.78078
-0.778094
-0.780778
-0.640346
-0.524469
-0.42062
-0.404016
-0.422168
-0.511785
-0.510775
-0.402804
-0.424351
-0.336621
-0.555882
-0.503789
-0.637008
-0.638018
-0.52693
-0.518892
-0.415271
-0.327678
-0.257523
-0.205361
-0.170782
-0.149158
-0.163001
-0.19033
-0.235216
-0.298238
-0.333343
-0.37992
-0.478806
-0.593797
-0.644456
-0.762445
-0.727941
-0.759039
-0.703365
-0.704542
-0.811633
-0.873452
-0.835333
-0.758945
-0.810741
-0.871695
-0.838215
-0.810518
-0.884904
-0.835455
-0.882446
-0.526129
-0.617647
-0.776032
-0.616545
-0.717427
-0.824525
-0.997831
-1.01985
-1.02474
-1.08019
-1.01806
-1.08734
-1.08747
-1.08612
-1.02072
-1.02582
-1.08388
-1.28282
-1.04304
-1.08894
-1.16872
-1.14593
-1.2896
-1.29034
-1.27049
-1.28641
-1.28465
-0.872979
-0.873994
-0.655403
-1.00603
-0.74538
-0.872883
-0.959869
-0.404061
-0.726021
-1.04172
-0.355564
-0.456267
-0.537926
-0.42363
-0.345381
-0.262996
-0.534213
-0.340982
-0.290173
-0.316698
-0.28296
-0.23213
-1.28446
-0.713333
-0.335828
-0.255442
-0.30638
-0.114465
-0.209119
-0.132512
-0.159598
-0.200461
-0.210975
-0.140977
-0.219069
-0.820944
-0.874596
-0.868933
-0.712057
-0.554672
-0.186551
-0.125033
-0.165205
-0.712544
-0.202271
-0.354126
-0.148391
-0.633411
-0.72418
-0.114149
-0.55443
-0.5557
-0.278645
-0.299205
-0.149484
-0.577836
-0.448633
0.156007
0.163084
0.189875
0.18907
0.231063
0.29148
0.37007
0.466213
0.578423
0.704483
0.810202
0.880694
0.696078
0.95009
1.05672
0.798133
0.89051
0.809797
0.975957
0.704019
0.863962
0.763502
0.610486
0.709711
0.642844
0.51138
0.580561
0.523125
0.412987
0.465901
0.41696
0.325968
0.36833
0.327657
0.256216
0.288047
0.257773
0.201361
0.22651
0.207143
0.160836
0.182801
0.171824
0.135333
0.151487
0.107947
0.193899
0.118678
0.139844
0.157571
0.115645
0.149799
0.15418
0.115248
0.153075
0.152791
0.116105
0.154762
0.148285
0.115098
0.152941
0.182747
0.129061
0.171099
0.165072
0.155685
0.153395
0.178028
0.152189
0.156663
0.152996
0.179585
0.153281
0.156485
0.150301
0.179743
0.156082
0.15661
0.144968
0.179815
0.160788
0.157262
0.138857
0.130024
0.114093
0.141163
0.171003
0.187769
0.202573
0.225704
0.248111
0.281975
0.314359
0.359001
0.401347
0.457003
0.507831
0.57386
0.632901
0.706704
0.772058
0.847558
0.899281
0.926341
0.803208
0.93988
0.934583
0.962345
0.892739
0.696681
1.28081
0.973027
1.03197
0.970948
1.01062
1.14602
1.16756
1.08523
1.0316
1.03547
1.03221
1.08515
1.28101
1.03187
0.791529
0.779297
0.874601
0.790387
0.791341
0.987058
1.29153
1.01044
1.28041
0.970774
1.146
0.939654
0.934585
0.931747
1.00103
0.906564
0.709091
0.953454
0.786135
1.03041
0.962862
0.696099
0.891846
0.872109
0.940016
0.837552
0.780775
0.70443
0.637045
0.572333
0.510948
0.455523
0.403976
0.357473
0.317254
0.27989
0.251004
0.223815
0.202843
0.163533
0.22715
0.166289
0.168111
0.200662
0.225188
0.198262
0.249999
0.280746
0.250052
0.31684
0.357756
0.318738
0.404344
0.455011
0.40427
0.511869
0.571406
0.505299
0.637451
0.704054
0.618356
0.780088
0.835064
0.730321
0.947571
0.831049
1.05168
0.919548
0.685007
0.925288
0.834753
1.05355
0.896907
0.694863
0.953687
0.798001
0.955539
0.835013
0.781372
0.708868
0.635661
0.578112
0.507661
0.461167
0.402118
0.357565
0.316638
0.280221
0.250974
0.222706
0.204412
0.164768
0.22782
0.170519
0.166217
0.19326
0.244462
0.191419
0.26656
0.300602
0.240911
0.336528
0.382437
0.307002
0.434783
0.444032
0.403877
0.52224
0.567008
0.504657
0.643084
0.70395
0.617446
0.782788
0.842619
0.727716
0.936051
0.892604
1.05664
0.842509
0.708838
1.15466
0.749576
0.974664
0.867049
0.704853
0.826721
0.825993
0.749657
0.626115
0.805293
0.670725
0.92793
0.903077
0.598945
0.907892
0.837621
0.708569
1.00084
0.954276
0.785952
1.03024
0.932991
0.669814
0.811501
1.28118
0.970605
1.14594
1.01056
1.29159
0.987364
0.791722
0.874834
0.790358
0.725017
1.00782
0.779435
0.787422
0.719055
0.715695
1.0006
0.782422
0.78186
0.714899
0.719251
1.00053
0.787965
0.779007
0.723684
0.79059
1.00755
0.8746
0.791115
1.00684
0.986971
1.29205
1.01067
1.14594
0.969803
1.03223
1.27847
0.976623
1.00206
1.26698
1.00129
0.977419
1.27807
1.03181
0.79187
1.03767
1.16686
1.08527
1.33279
0.880935
0.806144
0.873513
0.833569
0.948763
0.836052
0.835815
0.838597
0.730397
0.9492
0.939614
0.874313
1.0523
0.832333
0.808944
0.881682