/*--------------------------------*- C++ -*----------------------------------*\
| =========                 |                                                 |
| \\      /  F ield         | OpenFOAM: The Open Source CFD Toolbox           |
|  \\    /   O peration     | Version:  2306                                  |
|   \\  /    A nd           | Website:  www.openfoam.com                      |
|    \\/     M anipulation  |                                                 |
\*---------------------------------------------------------------------------*/
FoamFile
{
    version     2.0;
    format      ascii;
    arch        "LSB;label=32;scalar=64";
    class       volScalarField;
    location    "0.1";
    object      gradTx;
}
// * * * * * * * * * * * * * * * * * * * * * * * * * * * * * * * * * * * * * //

dimensions      [0 -1 0 1 0 0 0];

internalField   nonuniform List<scalar> 
5322
(
-0.0121681
0.00148299
0.000495594
-2.3238e-05
-2.69503e-06
-5.07754e-08
1.22176e-08
1.3711e-09
1.12826e-10
3.10145e-12
6.20081e-12
5.62653e-11
-5.90854e-11
-6.68032e-13
-3.26709e-11
3.66206e-11
-5.23187e-11
-3.26414e-11
-4.40576e-11
-1.19876e-11
3.95995e-13
2.08494e-10
3.51812e-10
5.15811e-09
9.49462e-09
1.55743e-07
2.20658e-07
3.5966e-06
1.82559e-06
5.81897e-05
-2.88767e-06
0.000640412
-0.000164523
0.00445388
0.00345492
0.0175437
0.0123849
-0.00582638
0.0123683
-0.00129451
-0.0126607
0.0121192
-0.000672638
-0.0127458
0.0132591
-5.33568e-05
-0.0131788
0.0134508
0.000514771
-0.0138334
-0.0144617
-0.0203844
-0.00795297
0.00966612
-0.000252211
-0.0138692
-0.00016949
0.0133967
1.83688e-05
-0.0127993
0.000110262
0.0127184
-1.03144e-06
-0.0127451
3.73459e-05
0.0124114
0.000122291
-0.0131788
0.000974588
0.0105612
0.00124879
-0.00509243
0.00573792
-0.00582039
0.00550859
-0.00559298
0.00570053
-0.0056661
0.00678934
-0.00558695
0.00140257
-0.0083117
-0.00703079
0.00566552
0.00031338
0.00165488
0.00693871
-0.0240922
-0.00171456
0.0172286
-0.000881448
-0.000127751
-0.00026451
-1.94411e-05
0.00237886
0.0016133
0.000921629
0.00217973
0.006879
-0.0208339
-0.0210122
0.0261414
0.00215424
0.00185502
0.00329759
0.00111186
0.000206574
-1.82274e-06
-9.46098e-06
-1.71194e-06
-1.64426e-07
-1.05683e-08
-5.17055e-10
-1.00721e-11
-3.94368e-12
-6.55098e-11
-4.20796e-11
9.42095e-12
-2.19209e-11
-3.26225e-11
-5.7174e-11
4.05619e-11
-4.0698e-11
1.70829e-11
-1.46771e-11
-7.55728e-11
-4.25865e-11
-1.01753e-11
-3.29282e-12
1.15174e-10
6.20268e-11
-2.08271e-11
7.2651e-11
4.60256e-11
-1.24136e-12
-9.51455e-13
-3.51729e-12
-5.16525e-11
-1.58993e-11
2.14597e-11
1.70545e-11
-2.33019e-11
-3.90526e-11
-1.77917e-11
-4.53779e-12
-7.14103e-11
-1.19729e-11
5.66893e-11
9.64007e-12
-2.37119e-11
-9.20157e-12
1.52318e-11
-2.3332e-11
-3.57637e-11
-3.83738e-11
1.25496e-11
-8.15437e-12
-2.7026e-11
-3.23919e-11
-4.57998e-11
-3.53433e-11
-5.13279e-11
4.33366e-11
-1.28829e-11
-3.16085e-12
-7.11319e-11
-1.16882e-10
-1.04564e-10
-5.02471e-11
2.53633e-11
3.55654e-12
2.14994e-11
9.67071e-11
1.24452e-10
4.38162e-11
-1.06077e-11
8.4314e-11
5.97994e-11
-4.88873e-11
2.15193e-11
2.15817e-11
6.82267e-12
-3.71373e-10
-1.21191e-11
-3.51066e-10
-2.01876e-10
1.80429e-12
-9.1947e-09
-1.1875e-09
-9.47212e-09
-4.95387e-09
1.41857e-10
-2.2626e-07
-2.76944e-08
-2.20879e-07
3.0715e-08
1.60404e-07
-4.74193e-06
-3.22704e-07
-4.36662e-06
5.77952e-06
8.82789e-06
-7.80802e-05
1.10559e-06
-6.78527e-05
0.000162337
0.00021523
-0.000889638
9.03624e-05
-0.00073096
0.00180499
0.00227439
0.00169438
0.00659299
-0.0205373
-0.0209426
0.0256709
-0.00216664
-0.00216225
-0.000287888
-8.82623e-06
0.00245992
0.00193245
0.0010522
0.00162563
0.00676429
-0.0208107
-0.0204867
0.0256371
0.00206651
0.00181532
0.0009073
0.000195253
-2.43985e-06
-9.86401e-06
-1.78076e-06
-1.725e-07
-1.09137e-08
-5.33798e-10
-6.71696e-11
-6.29237e-11
-5.55841e-11
-6.23889e-11
-2.89692e-11
1.47866e-11
-2.37282e-11
-1.56978e-12
4.16621e-12
4.26496e-11
1.47498e-12
2.41974e-11
9.67166e-12
-2.24286e-11
-7.56551e-11
-3.7429e-11
-4.01596e-13
-3.59703e-11
4.56087e-11
-8.85205e-12
-1.69699e-11
-6.02748e-11
-6.27721e-13
-5.90108e-11
-7.25579e-11
-6.37623e-11
2.5184e-11
3.09915e-11
1.95101e-11
-1.24473e-10
-8.9615e-12
-2.70394e-10
1.17972e-09
-6.02132e-09
3.31084e-08
-1.64916e-07
8.54161e-07
-4.03107e-06
1.8811e-05
-7.60734e-05
0.000297913
-0.000935143
0.00284842
-0.0028318
8.93524e-05
0.00274181
8.30697e-05
-0.00278064
0.000913869
7.10692e-06
-0.000286284
7.76625e-05
1.19117e-06
-1.78243e-05
4.32778e-06
1.07208e-07
-7.90588e-07
1.88751e-07
6.95791e-09
-2.95353e-08
7.37806e-09
3.86281e-10
-1.06975e-09
2.6906e-10
-6.69677e-11
-5.01913e-11
1.86755e-11
2.02829e-11
8.72267e-11
-5.41802e-11
-4.8951e-11
-1.54206e-11
-7.51463e-11
-1.60435e-12
4.54446e-11
-2.17437e-11
1.2297e-11
-3.38244e-11
5.33352e-11
4.69332e-11
1.28959e-11
-1.49934e-11
-1.12728e-11
-3.17935e-10
5.06993e-10
-6.9034e-09
1.73128e-08
-1.86815e-07
6.22231e-07
-4.35283e-06
1.73677e-05
-7.82459e-05
0.00030937
-0.000913248
0.00301996
-0.00251658
-0.00137467
0.000805406
0.000215512
-0.00269748
0.00089301
-6.88726e-06
-0.000265298
6.9091e-05
-4.38398e-06
-1.55981e-05
2.83674e-06
-5.05187e-07
-6.80088e-07
7.70781e-08
-3.12786e-08
-2.4287e-08
2.16773e-09
-1.29069e-09
-8.82701e-10
8.18559e-11
-5.81327e-11
-2.80083e-11
1.23117e-11
2.92765e-11
1.65247e-12
2.03107e-12
4.79266e-11
5.41424e-11
-9.79501e-11
-1.04325e-10
3.91499e-11
-9.24652e-12
-3.76827e-11
-4.25908e-11
7.96979e-11
5.80689e-11
-5.73268e-12
-4.07426e-11
-1.47644e-10
4.1279e-11
-9.84412e-11
-9.5424e-11
2.27219e-12
-2.02372e-12
8.98326e-11
-4.29526e-11
-2.92759e-11
2.87506e-11
-5.09252e-11
1.42515e-11
6.69979e-11
2.28558e-11
-1.5867e-11
5.18619e-11
1.08734e-10
5.77876e-11
1.18717e-10
8.50927e-11
3.18969e-11
-3.35324e-10
2.63214e-11
-1.0253e-08
-1.28846e-08
-9.86357e-10
-2.44696e-07
1.10506e-07
-5.0093e-06
-5.5192e-06
8.14818e-06
-8.04523e-05
0.000209507
-0.000883396
-1.88743e-05
-0.000289061
-6.54469e-05
-6.42906e-05
-8.19842e-06
-5.9786e-06
5.34648e-06
-8.57347e-05
-4.56246e-07
-6.46553e-05
0.000161856
0.000230614
-0.000902857
0.000110878
-0.000759563
0.00172661
0.00403241
0.00282021
0.00271814
-0.0228928
-0.0213096
0.026863
-0.00226225
-0.000136856
9.49751e-05
-0.00129723
6.28078e-05
5.61155e-06
-8.91771e-05
-9.06697e-06
-3.09602e-06
-4.35002e-06
-9.5432e-07
-2.93356e-07
-1.52043e-07
-4.45969e-08
-9.73065e-09
-3.88169e-09
-1.2892e-09
-1.33801e-10
-1.46063e-10
-6.24111e-11
8.51712e-13
4.87282e-11
-2.47118e-11
-5.55631e-12
-1.56627e-11
1.26833e-10
-1.61105e-11
6.7784e-12
9.4976e-12
1.15545e-11
3.07982e-11
-2.35083e-10
-1.0786e-11
-5.99322e-09
-5.03647e-09
-9.12844e-09
-1.03669e-09
7.31474e-11
-4.34005e-11
-3.40441e-10
5.30331e-11
-1.64303e-10
-1.42651e-10
-4.9961e-10
-1.92569e-11
-1.81135e-12
2.12794e-11
1.77293e-11
-3.67061e-11
2.38317e-11
2.80848e-11
-1.10288e-10
-2.60787e-11
-9.3141e-11
2.29246e-11
-1.04404e-11
-6.81209e-11
-8.86509e-11
4.59421e-11
5.70569e-11
-1.59739e-11
-2.2623e-10
-5.17932e-10
2.96937e-09
-6.74383e-10
-8.76364e-11
-5.71545e-10
-4.45465e-10
-1.02596e-08
-1.45014e-08
-1.80832e-07
-2.66641e-07
-4.88001e-06
-3.6411e-06
-5.17272e-06
-5.3946e-07
-2.05912e-07
-1.83944e-07
-2.34607e-07
-3.25974e-08
-1.50012e-07
-3.24611e-07
-4.17743e-07
-1.71583e-08
-5.94954e-09
-6.46365e-09
-3.38629e-09
-1.08329e-09
-1.80006e-10
-8.70878e-11
2.72824e-11
-6.03899e-11
3.02718e-11
-1.4739e-10
-6.21335e-12
5.80715e-11
6.21368e-11
1.06166e-10
1.02827e-11
6.28658e-12
-2.27002e-11
-1.51603e-11
1.01569e-11
3.44724e-11
5.27415e-11
5.69344e-12
2.43793e-11
2.34372e-11
-2.88451e-10
-2.80725e-11
2.87226e-10
-1.79344e-11
-1.17497e-09
9.938e-10
-7.60022e-09
-4.83824e-10
5.42786e-09
-2.14304e-09
-3.29741e-08
2.72623e-08
-1.938e-07
-9.87732e-09
1.55084e-07
-2.93037e-08
-8.60149e-07
7.60231e-07
-4.38262e-06
-1.18487e-07
4.01179e-06
-6.54157e-08
-1.90477e-05
1.78788e-05
-7.77228e-05
-5.11306e-07
7.83379e-05
4.96945e-06
-0.000300259
0.000291992
-0.000911516
3.70019e-06
0.000953564
3.67051e-05
-0.00282565
0.00278653
-0.00272144
3.27106e-06
0.00283522
-0.00025116
-0.00163414
0.00105853
-0.00218422
-0.013081
0.00138656
-0.00103378
-0.000633039
-0.00103244
0.000144923
-0.00112279
0.000365921
-0.00334214
-0.00288669
0.000164346
-0.000226344
-0.000334029
-1.33961e-05
-8.34431e-06
-5.06345e-07
-9.0348e-08
-2.13491e-07
-2.86023e-07
-7.39358e-09
-2.75886e-10
-5.14228e-11
-4.76668e-11
-5.6937e-11
-7.52994e-11
3.77464e-11
3.89001e-11
-2.87691e-11
8.41641e-12
3.4454e-11
2.16426e-11
-2.84659e-11
1.32988e-10
2.66042e-11
1.21673e-11
-4.76956e-12
-2.65972e-11
-2.12468e-11
9.53832e-13
7.92167e-12
-3.1418e-12
4.15676e-11
-6.73158e-11
-2.36174e-11
4.79029e-11
5.68034e-11
-7.40604e-11
2.98838e-12
-4.16485e-11
-1.03198e-10
-4.39528e-11
-1.2806e-10
2.01896e-11
-5.92022e-11
2.71988e-11
-3.09552e-11
-2.55601e-11
-1.53645e-11
-2.34247e-11
-1.11242e-11
-3.74952e-11
-2.77256e-10
-5.8662e-09
-9.2725e-08
-8.83679e-07
-6.03914e-06
-2.48244e-06
-4.06313e-06
-2.72508e-06
-2.7581e-06
4.24371e-07
-8.17407e-06
7.11943e-06
-9.73599e-05
0.000339988
5.47555e-05
-0.000160069
-5.51996e-05
2.18124e-05
-3.46144e-06
1.28436e-05
1.12181e-05
-1.0984e-05
-0.000245832
-0.00273255
-0.0146245
-0.015498
-0.0250631
-0.00491226
-0.0035909
0.000536564
1.85862e-05
0.00254563
-0.032178
-0.020385
-0.0110148
0.0127104
0.00147305
0.00107602
-0.0102933
0.0116136
0.000375095
-0.00107451
-0.0111494
0.0111019
4.25169e-05
-0.0014191
-0.011237
0.0106954
-0.000340824
-0.00266691
-0.0115033
0.00738203
-0.00990401
0.0100356
0.00758155
0.0198019
-0.00982783
-0.00549897
0.00181444
0.00825942
-0.0189044
-0.000604581
-0.0100807
0.0165486
0.0189447
0.0151795
0.0197611
0.00596931
-0.000680116
0.00536753
0.00655066
0.00758898
-1.68313e-05
0.00036806
0.000924401
-1.80842e-05
2.58584e-05
6.97816e-05
1.58724e-06
2.06221e-06
3.68602e-06
2.05311e-07
1.06373e-07
1.43362e-07
8.99825e-09
3.52335e-09
4.37478e-09
2.53599e-10
7.54084e-11
1.51588e-10
1.29491e-11
1.77386e-11
-8.29493e-11
3.14784e-11
-9.59921e-12
-1.87315e-11
-6.92349e-12
-5.29319e-11
7.60812e-12
-3.45704e-11
-3.93767e-11
8.11042e-12
3.62851e-11
-1.71455e-11
-3.96966e-11
-2.14227e-11
-6.52025e-12
-9.4281e-12
2.80205e-11
-2.64819e-11
2.8168e-11
-1.25996e-11
-1.02089e-10
-1.77155e-11
4.50476e-12
-9.58694e-12
-6.35641e-11
-1.48527e-09
-5.72214e-09
-1.91068e-07
-1.3307e-07
-9.0477e-08
-1.26607e-08
-4.14947e-07
-5.86034e-07
-2.69424e-08
-4.47177e-08
-5.28299e-08
-9.36106e-09
-1.03795e-08
-1.18619e-08
-8.27111e-09
-3.34651e-09
-2.91595e-08
-2.02834e-07
2.66481e-08
-3.70847e-07
-4.21632e-06
5.63763e-06
6.40859e-07
-6.80971e-05
0.000162556
8.79507e-05
-0.000756139
0.000258852
0.000354763
0.00123364
0.00112356
-0.00259641
-0.000225974
-1.10347e-05
-3.49486e-07
-9.89378e-09
-3.56571e-10
8.29901e-12
-1.13744e-10
9.53058e-11
-5.98493e-11
3.96091e-11
-1.94438e-11
-6.59305e-11
-1.93671e-11
4.24342e-12
-3.01042e-10
-1.13249e-08
-4.09099e-07
-1.2189e-05
-0.000241375
-0.00263955
-0.0142987
-0.0142229
-0.0225069
-0.0233557
-0.00885466
-0.00857307
0.010679
0.000844929
-0.000700398
-0.00048167
0.0034755
6.36497e-05
-0.00285571
-0.00272613
0.00278336
1.0706e-05
-0.0031178
-0.00298696
0.00232955
-9.64586e-05
-0.00429832
-0.00412724
0.00089154
-0.00926305
0.00810412
0.00786791
0.00826247
0.00718189
-0.00785311
-0.000342642
0.00131022
-0.00926705
0.00081391
-0.00807026
0.00715726
-0.0116191
6.90633e-05
-0.0111586
0.0153535
0.0190045
0.015703
0.015303
0.0185657
0.0153839
-0.0124411
-3.06859e-05
-0.0109033
0.00318051
0.00344771
0.00317282
0.00343903
-1.06171e-05
-0.0120007
-0.0115928
0.0071819
0.0156096
0.0174044
0.0140943
0.017754
0.0204076
0.0141785
0.00312513
0.00513466
0.00242542
-0.00156776
0.000506418
0.000274294
-0.000274069
5.07285e-05
2.70449e-05
-1.95891e-05
5.02815e-06
2.04065e-06
-6.64718e-07
3.09016e-07
8.78248e-08
-8.84612e-09
1.16708e-08
2.20049e-09
1.00031e-10
2.96739e-10
3.54201e-11
-5.11348e-11
4.03367e-13
-1.98013e-11
-4.29558e-11
-7.60894e-12
-6.77602e-11
5.78539e-12
2.15229e-11
8.08983e-11
-2.01445e-11
1.46311e-11
5.06028e-11
7.19571e-11
-1.88655e-11
-1.40581e-10
-3.34303e-11
5.88325e-12
-3.22183e-11
9.31275e-12
5.1852e-11
6.53822e-11
2.60087e-11
-1.5466e-11
1.52128e-11
-1.35048e-11
-3.78514e-11
5.83562e-12
4.83832e-11
-3.49368e-13
-1.18314e-11
-4.02914e-11
5.3445e-11
-4.43817e-11
-2.39679e-11
-5.95304e-11
-1.4781e-11
2.63991e-10
-1.10653e-10
2.07482e-10
9.42543e-10
1.507e-09
-3.42142e-09
6.29147e-09
2.89779e-08
4.22438e-08
-1.10091e-07
1.43883e-07
7.4325e-07
8.09837e-07
-2.99709e-06
2.31233e-06
1.50683e-05
9.86711e-06
-5.90254e-05
2.41233e-05
0.000221289
6.22335e-05
-0.000744005
0.000172615
0.00210004
0.000198499
-0.000409033
-0.00260204
-0.00188341
0.000338511
0.000826776
-3.04637e-05
-0.000213441
-0.000149257
6.59027e-05
7.60486e-05
1.4917e-06
-8.08395e-06
-5.91017e-06
5.84219e-06
4.60359e-06
3.24332e-07
-4.6893e-08
-6.41731e-08
3.06855e-07
2.05678e-07
2.05885e-08
7.13304e-09
3.18308e-09
1.08504e-08
7.56732e-09
7.8675e-10
2.84901e-10
1.684e-10
2.3843e-10
2.15948e-10
5.36559e-11
8.8676e-11
8.91144e-11
9.89367e-11
8.70714e-11
-1.28678e-10
-5.92569e-11
-4.50914e-11
2.72357e-12
3.58711e-12
1.88455e-11
-6.00156e-11
-4.18116e-11
-4.59127e-11
-1.67226e-11
-1.58343e-11
-1.89536e-11
-2.47746e-11
2.25508e-12
-6.0451e-12
2.83846e-11
2.54896e-11
4.82187e-11
5.40878e-11
-4.19632e-11
3.01443e-11
-3.83279e-11
-1.96775e-11
-1.16841e-10
-1.04173e-11
-1.67875e-11
-4.71367e-12
-2.13818e-11
-1.37991e-11
-1.6886e-11
4.87458e-11
-1.93696e-11
1.71501e-11
-7.82391e-11
-2.52553e-11
5.29982e-11
-1.88385e-11
3.53811e-11
4.51528e-11
-6.03776e-11
-1.59959e-11
4.93591e-11
8.6259e-11
2.79851e-11
4.87081e-11
-5.18301e-11
2.97527e-11
2.92916e-11
1.89595e-11
2.85054e-11
-1.14048e-11
-1.94751e-12
-4.68895e-11
2.30214e-11
8.99924e-11
6.32837e-11
4.01104e-11
3.06045e-11
5.95946e-12
-2.89099e-10
-3.42591e-11
-1.16046e-09
-3.15637e-09
-9.90376e-10
-2.31509e-10
-2.71637e-08
-5.7682e-07
-3.14872e-07
-5.8401e-07
-2.98512e-08
-1.17126e-09
-4.25386e-10
-1.0388e-09
-8.22342e-11
2.73115e-11
-5.58472e-12
-6.62692e-12
-3.58656e-11
-2.65379e-10
1.60299e-10
-6.64961e-09
-1.33038e-09
-1.26108e-10
-3.4613e-10
-3.55937e-11
-1.43743e-10
-9.04234e-11
-6.79507e-11
-7.14301e-11
1.69226e-11
-2.9796e-11
-1.37709e-10
-9.38432e-11
-4.50829e-11
-5.73324e-11
-1.95862e-10
-1.17519e-09
-1.37648e-09
2.69939e-09
-8.36182e-09
-4.53559e-09
-4.0024e-08
-1.20055e-08
1.59887e-07
-2.15875e-07
-1.32417e-08
-8.68196e-07
8.72394e-08
4.4693e-06
-4.23633e-06
1.53629e-07
-1.62581e-05
5.06191e-06
7.47153e-05
-0.000253457
2.98892e-05
0.000850682
-0.00238745
6.31873e-05
-0.000164203
3.36739e-05
1.01351e-05
1.58193e-06
1.47269e-07
9.52316e-09
4.75931e-10
1.9707e-11
-1.19595e-11
-5.28403e-11
-3.03967e-11
4.06817e-11
5.22297e-11
7.18465e-11
6.72413e-11
1.33799e-11
2.23978e-11
3.06384e-11
-3.83255e-11
-3.34236e-11
5.59384e-12
-2.02413e-11
-3.03712e-11
-2.77484e-11
-2.28772e-11
-4.13807e-11
2.44334e-11
8.33199e-11
-6.42751e-11
-3.27258e-11
-5.69362e-11
-3.64306e-11
-3.26052e-11
3.42591e-11
-7.74323e-11
-2.08685e-11
-2.37578e-11
2.51471e-12
2.2587e-11
-6.97443e-12
2.58719e-11
-4.02771e-11
-5.99085e-11
-2.16234e-11
-5.33864e-11
-5.69666e-11
-3.42029e-11
-3.9901e-12
1.33891e-13
-4.21023e-12
-3.32502e-11
-7.10755e-11
-3.09713e-11
-2.83906e-10
-7.16926e-11
-1.20298e-09
4.16622e-10
8.41654e-09
-6.7705e-09
1.74168e-09
-2.4264e-08
2.87649e-08
2.09211e-07
-7.17629e-07
4.6747e-07
4.5223e-06
7.49367e-07
7.44819e-08
4.89768e-09
2.56294e-10
-6.42628e-13
6.08746e-12
1.46206e-11
1.64718e-11
8.42999e-12
-7.93162e-11
-4.37584e-11
-1.38598e-11
-6.38628e-11
-4.41388e-11
-6.14222e-12
-1.57732e-11
2.25991e-11
-1.33652e-12
4.47803e-11
-3.27325e-10
-4.98516e-10
-7.767e-10
-1.41594e-08
-9.62528e-08
5.90919e-07
1.54233e-05
-7.83306e-05
-3.55947e-05
-0.000851033
0.000805645
-0.0140933
-0.00490715
0.00139931
-0.000352808
0.010966
-0.00864369
-0.0197954
-0.00994304
0.00137608
0.00405351
0.0021343
-0.023819
-0.0109026
-0.00787965
0.0104175
0.000952307
-0.000470425
-0.00109666
0.00398079
0.00013639
-0.00266111
-0.00326836
0.0033167
1.09652e-05
-0.00295463
-0.00351767
0.0028979
-0.000146139
-0.00420239
-0.00450323
9.60434e-05
-0.000101194
2.3823e-05
-1.35448e-05
0.000911016
-0.000837138
3.48132e-05
0.000238612
2.64897e-05
-2.95225e-05
-0.000252274
6.77216e-05
-0.000142749
0.000547722
0.000277175
-0.00167922
-0.0032583
0.000894275
-0.000285255
0.000566551
0.00153647
-0.000632514
0.00495102
0.00332415
0.00361971
-0.00222265
0.000340046
-0.00177693
-0.000869533
-0.00197056
0.000341034
-0.0018774
-0.000873415
-0.00190236
0.000341675
-0.00208324
0.00328604
0.00329234
-0.000391403
-0.0160635
-0.0122803
0.00727826
-0.00685224
0.011947
0.00701228
0.00828665
-0.00799562
0.00101833
0.000662925
-0.00947139
0.00206788
0.00382702
-0.00749031
0.015263
-0.00927527
0.000981797
-0.00496955
0.000112479
-0.00526843
-0.00388254
9.51718e-05
-9.26426e-05
4.52088e-05
4.18568e-05
1.11212e-05
1.6564e-06
1.50876e-07
9.61711e-09
4.53734e-10
3.79087e-11
4.84309e-11
2.55465e-11
-5.01264e-11
1.16596e-11
-8.37313e-12
-2.90922e-11
-2.08348e-11
1.68479e-11
-3.47944e-11
2.64522e-12
-5.89038e-11
3.78019e-11
3.79231e-11
4.274e-11
1.10527e-10
3.85079e-11
6.91911e-11
1.38981e-12
-4.19286e-14
1.40534e-11
-1.48728e-12
-7.20818e-12
1.57713e-11
3.53187e-11
-2.88528e-12
7.0567e-11
5.37596e-11
6.99543e-11
6.20246e-11
4.45327e-11
4.55171e-11
6.14548e-11
1.68914e-11
-6.36661e-11
-3.84778e-11
1.22368e-11
3.29707e-11
4.16201e-11
-2.16447e-13
5.17685e-13
2.27628e-11
1.41354e-11
-1.50006e-11
1.44955e-11
-1.12477e-11
-3.52645e-11
3.01882e-11
8.3526e-10
-2.07606e-10
-3.20856e-07
-7.83359e-06
2.31497e-07
-1.21406e-05
9.53441e-05
-0.000126544
0.000470138
0.00204147
-0.00183977
-0.000128577
-0.000173603
-0.0127633
0.0122084
-0.000425264
-0.000272448
0.00148459
-0.00201579
-0.000913604
0.00209905
0.00210408
0.00150543
0.00313701
-0.000498768
0.00204622
0.0113507
0.00891342
-0.000261533
0.00062909
-6.67303e-05
0.000214672
-0.00012395
5.2305e-05
-0.000230161
7.00966e-05
7.34332e-06
3.05674e-07
4.72662e-09
-1.24153e-10
-6.52516e-10
1.16748e-11
-3.52974e-11
-3.50587e-11
9.9365e-12
-4.46416e-11
2.48535e-10
6.36544e-09
1.63262e-07
3.35853e-06
5.705e-05
3.94105e-06
6.82605e-06
2.1811e-05
-4.2657e-07
-2.15221e-07
-1.53596e-08
9.45941e-09
3.8673e-10
9.45882e-11
1.60229e-11
2.08617e-11
9.42744e-12
-1.1501e-10
1.00984e-09
-2.87452e-09
1.22207e-09
-6.55381e-10
2.47345e-10
8.6713e-11
1.2506e-10
2.50842e-11
-1.75563e-11
1.11383e-10
1.84481e-11
-3.69939e-11
2.30364e-11
7.76883e-12
2.70274e-11
1.21998e-11
3.68457e-11
1.8019e-12
6.55929e-12
-1.012e-11
-4.68697e-11
-1.48403e-11
-8.33257e-12
-6.37559e-11
-4.79181e-11
-1.44432e-11
-2.55994e-11
4.37055e-11
-3.53645e-11
3.29361e-12
7.23915e-14
1.13408e-11
1.92739e-11
-7.7035e-12
-5.45215e-12
1.99203e-11
-7.36969e-12
-1.61376e-11
-3.32751e-12
9.45061e-12
2.69414e-11
2.08221e-11
-4.98285e-11
3.09755e-11
-2.8707e-11
4.61072e-11
1.99835e-11
4.79045e-11
6.12472e-12
7.25685e-11
3.38136e-11
1.9194e-12
-5.26813e-11
6.02825e-10
1.85348e-10
2.2399e-10
1.00452e-10
4.86844e-09
1.52758e-09
7.15259e-09
-2.08967e-08
2.50384e-08
-9.80853e-08
6.57119e-07
-2.9585e-06
4.38494e-07
-6.59595e-07
1.86554e-07
2.64789e-08
4.67798e-08
1.6295e-08
5.6677e-09
3.45734e-07
1.31488e-07
7.50147e-08
2.00248e-08
-3.66173e-09
-8.63178e-09
-5.88566e-10
-4.945e-08
3.46298e-07
-3.93368e-06
-4.00002e-05
-1.4515e-05
-6.63528e-05
-6.13283e-06
-8.08381e-07
-5.55645e-08
-2.57598e-09
-1.27981e-10
-2.94369e-11
-6.49611e-11
1.24594e-11
-1.00413e-09
-1.36486e-09
-2.8704e-10
-1.7825e-08
-2.29468e-08
-1.25652e-08
-6.34611e-10
-1.32596e-10
-1.43917e-10
-7.69564e-11
2.41164e-11
3.94367e-12
-2.53854e-10
-2.11911e-09
-2.05324e-09
-2.04688e-07
-2.69979e-07
2.90494e-08
-1.30471e-06
-1.91199e-06
5.58903e-07
-2.02832e-06
-1.1562e-05
4.08541e-06
5.14937e-05
0.00191856
3.13359e-07
0.000220063
1.10803e-05
-4.76823e-05
0.00344424
-2.56613e-05
-0.000145583
0.00573778
0.0035226
-0.0234098
-0.00934268
-0.00588017
0.0108679
-0.00842064
-0.00912568
0.0103659
-0.00642611
0.000118855
1.6413e-05
-0.0127371
0.0128443
0.00053475
4.90735e-05
0.000440084
0.000404301
0.000420447
0.00588223
0.00347766
-0.00845513
-0.010106
0.0117742
0.000946583
-0.00208547
-0.000209998
0.0032646
0.000114022
-0.00412383
-0.00243728
0.00250708
3.13399e-05
-0.00432039
-0.00271862
0.00204217
-0.000150496
0.00371707
0.00340854
-0.000110707
0.00853406
-0.00952673
9.54243e-05
-0.00388807
-0.000105423
-2.93375e-05
-2.61007e-06
1.89998e-07
-1.31967e-08
-4.54735e-09
-3.44443e-10
-1.53321e-11
-4.10732e-13
-7.39338e-11
-8.04896e-11
-9.18816e-11
-2.71532e-10
-1.54137e-10
-7.93866e-10
-8.25645e-09
-3.0746e-09
8.50599e-09
-1.78038e-07
4.43455e-07
-4.17344e-06
-7.39048e-07
-2.35685e-07
-1.29624e-07
1.19974e-07
-3.48308e-08
-4.84105e-09
-7.135e-09
3.22718e-09
4.44062e-10
1.36734e-09
-2.14399e-09
-2.44085e-08
1.41082e-09
-1.00222e-07
-1.01711e-07
-9.20851e-07
-4.93863e-07
3.13532e-06
-4.7868e-06
-1.24071e-06
-1.92486e-05
-1.20033e-06
-7.5305e-05
-1.56585e-06
-0.000257468
2.73855e-07
0.000836713
-0.00086354
-1.91028e-05
0.00238713
-2.67795e-05
-0.00233864
0.0023199
-9.65973e-06
-0.000847661
0.000850322
-0.00234656
2.41115e-05
1.50984e-05
1.24433e-05
-4.79168e-06
-1.05246e-06
-1.01493e-07
-6.2605e-09
-2.91956e-10
-4.90719e-10
-1.30662e-08
-2.64365e-08
-1.28392e-08
-5.25396e-07
-3.21699e-07
-1.99982e-07
7.90914e-08
-1.68449e-07
-4.05796e-06
6.49647e-06
1.54756e-05
-7.7148e-05
0.000319536
-0.000965099
-3.34731e-05
-0.000251126
1.64131e-05
8.12932e-05
-9.94382e-06
-9.61424e-06
-1.06709e-06
3.72808e-06
-2.57603e-06
-5.63089e-07
-7.71615e-06
-7.67566e-06
2.33315e-05
-5.72106e-05
-1.04576e-06
-0.000319852
-1.63548e-05
0.000973752
-0.00088534
1.62924e-05
0.00241535
6.83435e-05
-0.00287868
0.00181153
6.41691e-05
-0.000769661
0.000385198
-0.00255469
-0.000150645
-0.00165517
-0.000453148
-0.000639697
-0.00114985
0.00107053
-0.00373035
0.00064462
-0.0021503
-0.000162561
-6.33483e-06
-1.39057e-07
-1.64409e-09
-5.14936e-11
-1.41173e-11
-5.04296e-11
-2.70917e-11
-1.2184e-12
-2.87406e-11
1.21838e-11
-5.22105e-12
-5.22374e-11
-7.74028e-12
-3.85901e-11
2.76011e-11
-5.58612e-11
8.40765e-11
-4.95237e-11
1.77318e-11
-2.85543e-11
-1.53399e-11
-4.32824e-12
-6.37235e-11
-3.89147e-12
-7.08703e-11
7.50589e-11
2.7431e-10
-2.22247e-10
1.46625e-10
-7.32513e-10
1.32358e-09
8.16543e-09
1.28168e-10
5.95167e-10
1.46868e-09
1.14112e-11
4.53844e-11
-3.35846e-11
2.8658e-11
-1.83845e-11
4.54707e-11
-1.42958e-11
5.07316e-12
-4.36506e-12
-7.55848e-12
1.9896e-11
-3.05007e-11
-1.04148e-10
-2.06668e-11
2.57347e-11
8.57879e-11
3.20783e-12
-7.9929e-11
7.5414e-11
-3.18264e-10
-1.61377e-10
-1.39332e-09
-5.18439e-10
-8.61465e-09
-4.54412e-10
-3.38429e-08
6.99726e-09
2.09153e-07
-1.84747e-07
2.34077e-08
9.40515e-07
1.38507e-07
1.03959e-08
3.82894e-08
7.22296e-11
-6.07489e-09
-1.61961e-10
3.16291e-12
9.94105e-11
1.27386e-11
4.50804e-11
7.14128e-12
-7.60845e-12
-7.04546e-11
-6.93819e-11
-4.66846e-12
-6.86516e-11
-6.88689e-12
-5.99364e-11
1.08877e-11
-2.71364e-10
-9.82988e-10
-3.47855e-09
-5.33335e-09
-3.39637e-08
-3.08113e-08
9.41296e-08
-2.16489e-07
-1.00631e-07
-9.84426e-07
-1.70444e-07
-4.60441e-06
-1.95912e-07
-1.76842e-05
6.44279e-07
7.38786e-05
-7.35631e-05
-8.80315e-07
0.00026667
3.89719e-06
1.33611e-06
1.71431e-07
2.46678e-07
1.75347e-07
1.13867e-08
5.55126e-10
3.05108e-11
6.23902e-11
3.2298e-11
8.49089e-10
2.34584e-09
1.05751e-09
2.60196e-08
5.07596e-07
6.59298e-07
1.88449e-07
1.45968e-08
2.01526e-08
1.21506e-09
2.8543e-09
1.14276e-10
1.25276e-10
-1.60216e-11
-8.016e-12
1.34229e-11
4.53648e-10
5.98263e-10
1.20607e-10
3.21453e-11
4.56404e-10
3.51191e-10
5.30018e-10
6.05199e-11
1.35505e-10
4.4048e-10
-5.07585e-11
-1.46118e-10
-3.78417e-11
-1.25338e-10
-7.25234e-11
8.94031e-12
1.70929e-11
4.81019e-12
6.2633e-11
1.50396e-11
5.23996e-11
3.21878e-10
5.1503e-10
1.82669e-10
-3.06539e-11
1.12094e-09
9.23537e-09
1.29327e-08
3.19469e-09
-3.27011e-09
-2.99568e-09
-3.13337e-09
1.34586e-08
1.03956e-08
1.04601e-08
9.85176e-10
8.85054e-09
1.24781e-08
-2.59321e-09
4.20452e-09
9.7299e-09
9.28745e-10
9.35554e-11
2.52629e-10
3.21607e-10
2.01388e-10
2.98534e-11
4.18658e-13
-4.84833e-11
6.5246e-11
1.2589e-11
-8.15653e-11
-2.46047e-12
6.15289e-11
8.6077e-11
8.90331e-11
-7.80448e-11
-1.83991e-11
-1.60134e-11
-3.47503e-11
-2.75207e-11
-2.88123e-11
-5.18132e-11
-5.13331e-11
7.1605e-11
-3.8886e-11
-1.06154e-11
-1.56606e-11
-4.36677e-11
9.28243e-11
-5.91165e-12
3.8342e-11
-3.17183e-11
-1.07505e-11
3.18519e-11
2.16788e-11
-3.08321e-11
4.04827e-11
-6.24778e-12
-8.75465e-11
2.15719e-11
3.96689e-11
-3.03439e-11
4.58606e-11
4.56501e-11
-1.767e-11
-5.19561e-11
-4.36306e-13
-4.26266e-11
2.31641e-12
-5.09863e-12
9.39585e-12
7.05969e-11
1.57892e-11
4.1276e-11
2.12279e-11
3.56138e-13
-2.52004e-11
3.80185e-11
9.34724e-11
1.24188e-09
2.8535e-08
5.44283e-08
1.97292e-08
2.35435e-07
2.97216e-07
-2.44246e-07
-2.45291e-07
-2.14056e-07
-5.62149e-08
2.96729e-07
2.05435e-07
2.33808e-07
2.25117e-08
4.29344e-09
8.76118e-09
9.94362e-09
5.65541e-09
6.94366e-09
6.51228e-10
2.01816e-10
3.28738e-10
1.7087e-09
1.04299e-08
-3.99706e-09
8.34415e-08
3.0578e-07
-6.91554e-07
2.14324e-06
5.55409e-06
-2.24992e-05
3.70459e-05
8.78717e-05
-0.000173588
0.000126537
-1.11778e-05
6.38736e-06
4.4791e-08
1.58837e-07
2.35699e-08
1.16207e-09
7.31642e-10
1.37588e-11
7.563e-11
9.23036e-11
2.50172e-10
7.364e-11
3.48615e-11
-5.09508e-11
1.31942e-10
5.79023e-11
1.14208e-10
1.62325e-11
-8.17792e-11
-5.74046e-11
3.09121e-11
6.47639e-12
-2.69351e-11
-7.51091e-11
3.20475e-11
-2.66144e-11
-2.70792e-11
4.88592e-11
1.62833e-11
-4.2272e-11
-8.63414e-12
2.21727e-12
2.47926e-11
-4.48141e-11
-1.73243e-11
-2.38451e-11
2.09446e-11
1.23593e-10
1.37925e-10
3.38794e-11
3.70356e-11
-7.45992e-11
-3.23509e-11
-2.20987e-11
-2.00485e-11
2.52448e-10
6.2579e-09
3.11553e-07
3.00963e-07
-1.36985e-08
1.41563e-08
1.92249e-07
1.49021e-07
3.21417e-08
1.19579e-09
3.9603e-11
2.24053e-11
3.96837e-10
1.08006e-08
3.29468e-07
2.15173e-07
2.5602e-07
4.64271e-06
5.20049e-06
-7.91561e-06
-7.12912e-06
-5.13888e-06
-8.22145e-06
6.06445e-06
3.2198e-06
4.52962e-06
3.35633e-07
7.58906e-07
-2.03805e-07
1.72433e-07
2.02213e-06
-2.79456e-06
-1.65474e-05
1.45202e-05
-6.38069e-05
1.929e-05
4.00562e-05
4.86263e-06
2.06865e-06
7.81834e-07
1.18853e-07
4.25703e-06
4.91118e-06
-1.08641e-06
7.62168e-05
5.09743e-06
5.48614e-06
7.07592e-06
6.31302e-05
1.52656e-05
6.41241e-06
1.62058e-06
2.15168e-06
2.55349e-07
7.36627e-07
1.90044e-06
2.07298e-08
-2.03782e-06
-1.95422e-07
-6.30434e-08
-6.10757e-08
-3.15383e-09
-1.35667e-09
-1.07153e-09
-2.4993e-09
-5.01285e-08
-1.80995e-08
2.31287e-10
-4.20539e-10
-1.20057e-09
-1.19818e-09
-1.26231e-09
1.5465e-11
-2.61658e-11
3.47181e-11
6.42972e-12
-3.98516e-11
-4.92576e-11
-2.8968e-08
-2.38466e-08
1.6413e-08
-7.89832e-08
-6.68644e-07
1.23016e-05
1.24038e-05
2.04907e-05
5.53098e-07
-6.45018e-05
0.000171774
0.000104557
-0.000699139
0.000337301
0.00026059
0.00116287
0.00110287
-0.0145512
-0.0186905
-0.0348751
0.0101052
0.00205095
0.0116646
-0.00419313
0.0108118
-0.000625995
-0.010068
0.0102896
-2.96749e-05
0.00371577
-0.000185978
0.00928137
-0.00997516
-0.000668461
-0.000179405
0.00012807
0.00035111
-0.000191069
0.00356882
-4.11383e-05
0.000190274
-8.21004e-06
-1.15975e-05
-7.13938e-06
-8.89434e-07
-8.53248e-07
-8.05347e-06
-7.37756e-06
-5.88157e-06
-6.07864e-05
-6.08512e-05
-3.04348e-05
-3.70583e-06
-2.61204e-07
2.5181e-07
-2.74655e-06
-1.09274e-06
-2.06446e-05
-4.58341e-06
7.2053e-05
-7.96845e-05
-5.07735e-06
-0.000267829
-1.46732e-06
0.000255735
-4.14856e-07
-8.27834e-08
-2.16132e-07
-7.1207e-07
-5.78665e-06
2.74818e-06
-6.93659e-06
-1.89991e-06
-2.67738e-07
-2.26495e-08
-1.80716e-08
-4.22981e-10
-3.74599e-11
-2.85628e-11
2.39701e-11
-3.5181e-11
2.22904e-10
-1.66095e-11
3.08207e-11
1.47935e-11
-3.32202e-12
-7.1162e-12
5.83894e-11
1.26787e-10
7.56528e-11
6.19113e-14
-5.90983e-10
-1.36277e-09
5.17428e-10
-2.43824e-10
-5.27516e-10
-6.71637e-10
-3.96563e-10
-6.33554e-09
-4.27006e-09
2.93168e-09
8.85314e-09
2.80451e-08
-1.53674e-07
-4.99467e-07
6.487e-07
-2.33075e-07
-2.0597e-07
-6.94539e-07
-1.10504e-07
-3.93272e-08
1.67664e-08
-1.56115e-08
3.26702e-08
-1.38489e-07
-6.85573e-07
5.37101e-07
-2.46222e-07
3.85036e-06
-1.6981e-06
-5.20046e-06
1.43955e-05
-1.07019e-05
9.2472e-06
-1.97976e-05
-3.25012e-05
-0.000193443
-5.30558e-05
0.000181976
-0.000218503
9.51973e-06
0.000134318
-9.6305e-05
-0.00273473
-0.000494358
-6.83311e-05
0.000226184
0.00015335
9.79786e-06
0.000250706
-6.97907e-06
2.00788e-05
0.000197319
0.000130551
-1.91386e-05
3.50502e-05
3.20115e-07
-1.66947e-06
7.087e-05
1.7297e-05
-1.55473e-07
-8.05159e-09
-1.52464e-06
-1.57645e-05
-5.50063e-05
-0.000338483
-0.000220553
-8.15142e-05
-1.5955e-06
1.03832e-06
1.86377e-05
-4.3484e-07
-2.62925e-08
9.89239e-11
7.72551e-09
2.17531e-10
-1.11481e-11
-2.26996e-11
1.38265e-10
2.05551e-07
4.00773e-06
5.47964e-05
2.67766e-06
0.000187657
-0.000106253
-0.000557959
0.00105736
0.00383919
-0.0029008
0.0124287
0.00432109
0.00115301
0.000846095
0.000109659
7.77015e-06
3.37088e-07
1.12194e-08
4.04924e-10
-1.15825e-10
1.1827e-11
-2.39508e-12
2.02049e-11
-2.75022e-11
-1.21322e-11
3.01086e-12
-5.63497e-11
2.6366e-11
-3.15637e-11
1.61659e-10
5.26296e-11
-5.67626e-11
1.66733e-10
3.60515e-10
1.10974e-09
1.2848e-10
6.50178e-11
-1.61768e-11
3.66854e-11
7.79677e-11
1.51403e-11
6.35106e-12
1.73455e-12
1.04669e-11
-3.30991e-11
6.45203e-10
2.39405e-09
2.90337e-09
1.17376e-09
8.40962e-10
1.40479e-08
1.97387e-08
5.39292e-08
2.63691e-08
5.04295e-07
5.2617e-07
7.09552e-06
6.02656e-06
-3.08941e-06
-8.86296e-06
4.97101e-06
-8.64057e-06
5.95275e-05
5.60402e-05
-0.000169274
-0.000176655
6.16668e-05
5.6531e-05
5.87629e-05
-0.00015868
-0.0001886
6.84845e-05
-1.95022e-06
5.14285e-05
7.94768e-05
1.47644e-06
8.78429e-06
-9.05862e-06
1.00999e-05
0.000177389
0.00149034
0.00136798
0.000406032
0.00715489
0.017639
0.00506128
0.00969176
0.0141938
-0.00171733
-0.000224307
0.000119864
8.01874e-06
-1.14124e-05
-2.11184e-07
3.92166e-06
4.36998e-06
4.26146e-06
3.99122e-06
5.09939e-06
-7.44338e-06
-8.47107e-06
-3.33012e-06
5.71532e-05
5.76141e-05
-0.000177751
-0.000167848
-9.36398e-05
0.000568052
0.000621177
0.000527097
-9.60422e-05
1.11475e-05
1.43476e-05
1.25807e-05
4.67656e-07
-4.97422e-06
-1.62636e-06
-1.93103e-06
-4.73898e-06
8.08941e-06
-0.000131785
0.0011661
-0.000105167