/*--------------------------------*- C++ -*----------------------------------*\
| =========                 |                                                 |
| \\      /  F ield         | OpenFOAM: The Open Source CFD Toolbox           |
|  \\    /   O peration     | Version:  2306                                  |
|   \\  /    A nd           | Website:  www.openfoam.com                      |
|    \\/     M anipulation  |                                                 |
\*---------------------------------------------------------------------------*/
FoamFile
{
    version     2.0;
    format      ascii;
    arch        "LSB;label=32;scalar=64";
    class       volScalarField;
    location    "0.1";
    object      gradTy;
}
// * * * * * * * * * * * * * * * * * * * * * * * * * * * * * * * * * * * * * //

dimensions      [0 -1 0 1 0 0 0];

internalField   nonuniform List<scalar> 
5322
(
0.0284721
0.00554124
0.000914258
0.000992456
0.000128777
9.41966e-06
4.40299e-07
1.52091e-08
4.99817e-10
-1.00374e-10
-3.17087e-11
-3.72731e-11
-1.3094e-10
1.87253e-11
2.37573e-12
1.41396e-11
6.32778e-11
9.76343e-11
8.59439e-11
-4.32396e-12
-2.54473e-11
-1.4133e-10
1.84227e-10
-4.11981e-09
6.53362e-09
-1.37815e-07
2.43447e-07
-3.64499e-06
8.25347e-06
-6.70065e-05
0.000161858
-0.0008028
0.00194334
-0.00501338
0.00848141
-0.00948636
0.0215233
0.0228742
0.0122895
0.0159254
0.0168327
0.0145088
0.0180095
0.0158202
0.0150609
0.0183894
0.0154113
0.0164691
0.0189637
0.015204
0.0197721
0.00598822
0.00826083
-0.0190183
-0.000600146
-0.0099897
0.00702117
-0.012647
-2.48458e-05
-0.0106359
0.00715524
-0.012111
1.45398e-05
-0.0105849
0.00722282
-0.0126461
-0.000299058
-0.0107813
0.00755254
-0.0158069
-0.000163959
0.00525141
0.0026578
0.00399751
0.00278096
0.00369842
0.00299132
0.00371263
0.00324273
0.00498226
-0.000708931
0.00536505
0.00655604
0.00764247
-0.000283605
-0.00046561
0.00152557
0.00214545
0.0113769
0.00202952
0.00275818
0.00016708
2.53637e-05
-1.46107e-05
0.00289076
-0.00282988
0.000114764
0.00274137
0.000125097
-0.00208349
0.00208521
1.11924e-05
0.00314478
-0.00285283
0.00241495
0.00026731
-9.63128e-05
4.23786e-05
1.10163e-05
1.61861e-06
1.46413e-07
9.3575e-09
4.61787e-10
3.45313e-11
-9.03893e-12
-6.29644e-11
-1.04437e-11
3.93699e-12
-4.20145e-11
-1.72412e-11
5.64853e-11
2.49139e-11
-6.54134e-11
-4.88955e-11
5.81467e-11
-6.14735e-11
1.57551e-11
1.83859e-11
5.09506e-11
2.33537e-11
-2.0566e-11
4.54397e-12
1.39611e-11
-6.67277e-11
-4.36247e-11
-4.57932e-11
-3.78388e-12
1.21606e-10
-7.19766e-12
5.80702e-11
3.11392e-11
1.88671e-11
-5.35597e-12
-3.83834e-11
5.23078e-11
2.15481e-12
-1.12352e-11
1.23371e-11
2.9509e-11
-7.64356e-11
-4.336e-11
2.1295e-11
6.09708e-12
4.35143e-12
-4.20146e-11
-9.58334e-11
-4.99098e-12
-3.38483e-11
-1.40337e-11
-1.82134e-11
2.85374e-11
-9.7019e-12
1.51376e-11
8.07561e-12
3.39582e-11
1.08427e-11
5.25907e-11
-1.19237e-11
-4.83999e-11
-3.4394e-13
8.37907e-11
4.00111e-12
6.97641e-11
-3.97192e-12
-2.95527e-11
-3.38918e-11
9.05724e-12
5.7409e-11
3.39693e-11
8.59483e-12
1.06802e-12
1.08682e-10
-2.27351e-10
6.29293e-12
3.10967e-10
-9.25504e-10
1.1823e-09
-5.72246e-09
4.28636e-10
7.35665e-09
-2.75209e-08
3.13898e-08
-1.59873e-07
6.76982e-09
1.82758e-07
-7.61863e-07
8.19273e-07
-4.00252e-06
9.90997e-08
4.24531e-06
-1.77332e-05
1.8589e-05
-7.68874e-05
1.09049e-06
7.77227e-05
-0.000289718
0.000300403
-0.000949485
7.07669e-06
0.000924035
-0.00282063
0.00282547
-0.0027246
-3.24232e-07
-0.00206039
0.0014004
-0.000254611
1.12613e-05
4.59098e-05
1.12578e-05
4.94068e-06
0.00294352
-0.00260476
8.09415e-05
0.003844
-0.000940597
-0.00131808
0.00209402
-0.000293555
0.00281103
-0.00286245
6.50052e-05
1.42967e-05
2.96208e-07
-8.98219e-06
-1.62184e-06
-1.57588e-07
-1.01789e-08
-4.96529e-10
-7.31569e-11
-3.46174e-11
1.36431e-11
5.35889e-11
-2.13372e-11
-3.31917e-11
2.31663e-11
1.3965e-11
-1.21593e-11
-7.54104e-11
-2.14193e-11
-1.15601e-11
-4.55943e-11
1.54996e-11
2.39885e-11
-2.12169e-11
-6.63612e-11
-5.39421e-11
-4.19991e-11
-3.25559e-11
-4.41772e-11
-3.65931e-11
2.61732e-11
0
-6.29872e-11
-4.58992e-11
7.79007e-12
9.63091e-11
1.9308e-11
-1.47949e-10
-1.48654e-10
-4.50995e-10
6.51222e-12
-9.03282e-09
1.72507e-09
-2.20491e-07
1.9495e-07
-4.5509e-06
8.87468e-06
-7.42026e-05
0.000206443
-0.000847224
0.00226815
0.00167968
0.00694102
0.00200994
0.000909039
0.00193711
-0.000779964
9.32092e-05
0.000181865
-7.21548e-05
1.83621e-06
7.54982e-06
-4.604e-06
-2.55471e-07
1.34827e-07
-2.31859e-07
-2.46278e-08
-8.88091e-10
-9.85556e-09
-1.16674e-09
-5.64434e-11
-4.42692e-10
-8.88924e-11
-5.10081e-11
-1.25701e-10
-2.34539e-11
-7.87746e-11
-7.42698e-11
-1.86688e-10
-1.10688e-10
-3.8225e-11
-1.00564e-10
-6.37376e-11
-6.76299e-11
-2.13135e-11
2.86132e-11
-1.55966e-11
4.55876e-11
3.76473e-11
-2.31755e-11
2.29248e-11
-3.65357e-10
-1.79651e-10
-8.26011e-09
-2.32112e-09
-2.03244e-07
1.29781e-07
-4.2522e-06
8.5932e-06
-6.99525e-05
0.000219859
-0.000762339
0.0022031
0.00206941
0.00601708
0.00125835
0.00109628
0.00340525
-0.00102667
0.000130684
0.000370732
-8.0147e-05
4.46456e-06
1.76686e-05
-4.00371e-06
-9.98548e-08
4.58161e-07
-1.60846e-07
-1.60648e-08
6.98095e-09
-6.04655e-09
-8.06853e-10
2.39528e-10
-1.89064e-10
2.2996e-11
8.43448e-11
-1.14851e-11
5.01953e-11
1.01851e-10
7.61749e-12
-1.29798e-11
1.10195e-10
-5.73032e-12
8.58201e-11
-1.28062e-11
-5.28745e-11
6.67716e-11
6.77581e-11
2.92598e-11
5.59086e-11
5.26199e-11
7.2045e-11
-1.32752e-10
-3.75204e-11
1.84002e-11
-6.28203e-11
-9.82442e-15
1.60593e-11
-4.06097e-12
2.14014e-11
3.83487e-11
3.63075e-13
-1.24077e-11
2.71161e-11
-6.5495e-11
-3.30595e-11
-6.04853e-11
-9.18412e-11
2.83503e-11
-4.04662e-12
2.23278e-12
7.00613e-12
4.86836e-11
-2.66204e-10
1.06367e-09
-7.35587e-09
-2.40873e-10
2.62676e-08
-1.90499e-07
7.12806e-07
-4.40626e-06
-2.65115e-07
1.73896e-05
-7.9171e-05
0.000291508
-0.000934555
-1.38703e-05
-2.105e-06
-1.3012e-07
-3.79618e-06
-9.80566e-07
-1.39808e-06
1.45891e-05
-8.3407e-05
-3.4938e-06
8.27839e-05
-0.000367687
0.000297617
-0.000957948
-3.7192e-06
0.00115055
-0.00341342
0.00245237
-0.00277052
-0.0138623
-0.00131939
0.00218476
-0.00425948
-0.00141532
-0.000106197
0.00157662
0.00123104
4.73132e-05
-0.000361154
0.000101386
-8.52439e-06
-9.64169e-06
4.38993e-06
-7.27539e-07
-1.31648e-07
1.26056e-07
-3.4014e-08
-2.05507e-09
2.79331e-09
-1.10607e-09
-2.01826e-10
1.26928e-10
-1.85557e-11
-4.83755e-11
-2.17713e-11
-1.68007e-11
3.07797e-11
1.01521e-10
-2.10675e-11
1.3475e-11
4.44955e-11
8.45132e-11
4.96495e-11
6.59831e-12
-1.51992e-10
-4.18807e-11
-2.71763e-09
2.0178e-09
-7.00279e-09
-1.22545e-09
-1.08355e-09
5.74407e-10
-3.17471e-10
-9.5048e-11
1.60508e-10
-9.58863e-11
-4.90314e-10
7.40405e-11
6.80685e-11
6.88655e-12
6.27587e-12
-1.62895e-11
5.45398e-11
3.04629e-11
5.86937e-11
4.122e-11
3.74573e-11
-5.72871e-13
-8.23487e-11
5.39179e-11
3.03157e-11
3.40708e-11
-4.76242e-11
-3.76133e-11
-1.43484e-10
-5.83961e-09
-4.64363e-10
-5.08063e-10
-2.83167e-10
-1.15774e-09
-9.40707e-10
3.04784e-09
-1.19483e-10
-7.28022e-08
2.27886e-07
-2.35689e-06
2.98651e-06
-4.53636e-06
-4.57475e-07
-7.38786e-07
3.96335e-07
-1.85725e-07
-2.89919e-08
6.63311e-08
-8.72913e-08
-2.30794e-07
-1.21328e-08
-7.53418e-09
-2.12244e-10
1.94218e-09
1.63673e-09
-6.00697e-11
-1.72338e-11
-5.73999e-11
7.14743e-11
-8.57339e-11
-1.4694e-10
1.1668e-11
-4.61016e-11
1.4667e-10
-7.51786e-11
9.04522e-11
-8.99905e-11
-1.20034e-11
2.65426e-11
3.91677e-12
-6.60623e-11
-1.2267e-10
-7.90515e-11
-3.16784e-11
-6.11708e-11
-3.54706e-10
-6.87774e-11
-3.86547e-10
-3.64028e-10
-7.68471e-11
-1.33699e-10
-9.93034e-09
-1.28659e-09
-8.83092e-09
-1.26006e-08
4.15375e-10
-2.44731e-09
-2.33391e-07
-2.60963e-08
-2.18143e-07
-3.22194e-07
1.70434e-07
1.10415e-07
-4.65453e-06
-2.78753e-07
-4.61819e-06
-5.90934e-06
8.65471e-06
7.72293e-06
-7.3433e-05
1.76579e-06
-7.65275e-05
-5.68109e-05
0.000201475
0.00019449
-0.000803974
9.5228e-05
-0.000857879
8.76569e-05
0.00208117
0.00208036
0.00185713
0.000906005
0.00175343
0.0259209
-0.0207068
-0.0220535
0.0212268
0.00546376
0.00149992
-0.00610009
-0.00207244
-0.00120301
0.000556222
-0.000863381
6.16474e-05
0.000379072
-0.000892199
-0.000482655
-2.55351e-05
3.93996e-05
2.95151e-08
9.34812e-07
1.84262e-07
5.45645e-08
-1.14537e-07
-1.68175e-07
-5.75919e-09
-1.29863e-10
-1.08642e-10
-1.08606e-10
-2.69809e-11
-6.81873e-11
-2.30527e-11
2.14855e-12
-4.16687e-11
-2.22351e-11
-7.05846e-11
-1.47104e-13
-2.10924e-11
-1.24802e-11
1.01678e-11
5.65973e-11
-7.05404e-11
5.3653e-12
4.25313e-11
1.41069e-11
-1.49471e-11
4.07764e-11
3.38428e-11
7.64317e-11
-2.47923e-11
-3.51347e-11
4.66529e-11
3.86041e-11
7.89036e-11
7.4893e-11
-5.56512e-11
6.53954e-12
-9.4255e-11
-5.68566e-11
2.99178e-11
-3.73409e-11
2.58776e-11
-3.17108e-11
-2.97526e-11
9.56943e-12
8.09427e-11
-1.56137e-11
-1.04736e-09
-2.57913e-08
-5.11139e-07
-7.14584e-06
-3.14628e-06
-4.97905e-07
-7.31747e-06
-2.26668e-06
4.46105e-07
8.76092e-07
-5.95991e-06
1.10101e-05
-6.01042e-05
0.000233947
-9.23346e-06
-0.000264479
-4.53888e-05
3.66292e-05
-3.54976e-06
-1.4003e-05
-3.72188e-06
-1.98513e-06
8.66852e-08
5.58833e-05
3.03902e-05
-0.00102043
0.00594599
-0.00275059
-0.00400344
-0.000812315
-0.00427639
-0.0271595
-0.00833156
0.00144314
-0.0138239
0.00985092
0.00111279
0.000959385
0.0111364
0.00943636
0.000974755
-0.000427266
0.0115352
0.010509
0.000859053
-0.000683612
0.010734
0.0117459
0.000940486
-0.00208204
0.00953807
0.0116775
-0.00418731
0.0108245
-0.00752637
0.0101282
-0.0348889
-0.0180539
0.00208121
-0.00796456
0.00974052
-0.000254554
-0.0139746
0.0134974
0.000521457
-0.0138603
-0.0144852
-0.020438
0.00143146
-0.00832681
-0.00699953
0.0056207
-0.00370668
-0.00114388
0.00106123
-0.000248351
-7.05708e-05
8.12553e-05
-9.43548e-06
-2.47035e-06
3.7942e-06
-2.30037e-07
-3.65355e-08
1.25432e-07
-4.91761e-09
4.78236e-10
3.39929e-09
-2.56711e-10
3.26855e-11
6.77892e-11
-3.52122e-11
8.34284e-11
-5.27894e-11
-7.22406e-11
1.126e-10
-4.07665e-11
1.45321e-10
3.3357e-11
4.56824e-11
-7.58894e-11
-1.57519e-11
-1.35931e-11
4.69668e-11
1.02509e-11
3.83464e-11
-2.16051e-11
-1.49269e-11
3.81846e-11
5.16868e-11
4.27294e-11
1.04819e-11
-1.34432e-11
5.59014e-11
-2.35305e-13
-1.20197e-11
-3.70985e-10
-2.43998e-10
-1.17443e-08
-4.49481e-07
-1.05365e-07
6.35288e-09
8.58214e-08
-4.59887e-09
8.6716e-08
-2.19928e-07
-1.61769e-08
1.16214e-08
-4.00002e-08
-2.5212e-08
1.067e-08
-4.18497e-09
5.0136e-09
-3.30549e-08
-1.26658e-08
1.29699e-07
-8.82042e-07
-1.81282e-07
3.57556e-06
-1.94918e-05
-9.67578e-07
7.56414e-05
-0.00030098
1.15024e-06
0.000941576
4.58561e-06
6.80644e-05
0.000139899
1.05649e-06
-2.69173e-05
-2.16056e-06
-2.36056e-07
-1.36346e-08
1.48286e-10
1.01762e-10
4.70299e-11
-4.18835e-12
-1.28076e-11
4.48472e-11
-9.21426e-12
1.50732e-11
1.47444e-10
3.13404e-11
1.97493e-11
6.69879e-11
6.76319e-10
-6.53915e-09
-4.21621e-07
-8.79553e-06
-7.05413e-05
0.000207903
-0.000172514
-0.000425412
-0.000683844
0.0124574
-0.0134248
0.0111944
2.24987e-05
-0.00143518
0.0011793
0.00329902
1.14312e-05
-0.00295224
0.0027322
0.00277367
1.19424e-05
-0.00310655
0.00289173
0.00250766
2.74939e-05
-0.00428986
0.0041187
0.00379181
-0.000106186
0.00988148
-0.0102062
0.0104706
-0.0101168
-0.000626548
-0.00242245
0.0043297
-0.00032187
-0.00383488
-2.55578e-05
0.000120663
0.0130108
1.00738e-05
-0.0130168
0.0126319
-0.000448563
-0.0129466
0.013509
3.08023e-05
-0.013284
0.0135165
2.34581e-05
-0.012998
0.00577545
-0.00567114
0.00563331
-0.0058585
5.85606e-06
-0.0133185
0.0127581
2.06039e-05
-0.0134802
-0.000928198
0.0128346
-0.0123747
-0.000748412
0.0211249
0.00811045
0.0139776
0.00521142
-0.00165204
0.00204521
0.000494659
-0.000329289
0.000176905
2.8756e-05
-2.22298e-05
7.52803e-06
7.19421e-07
-8.16783e-07
1.91972e-07
-2.44398e-08
-7.76833e-09
2.66244e-09
-1.19641e-09
5.34369e-10
2.20093e-10
-4.07926e-11
6.67359e-11
1.56021e-11
-5.67799e-12
8.06659e-11
1.75294e-11
8.91063e-11
2.75127e-11
-8.23213e-11
-1.47391e-11
2.6251e-11
-6.61217e-11
-1.55311e-10
2.81206e-11
-2.5163e-11
8.12398e-11
-3.49925e-11
-2.07394e-11
-2.49832e-11
4.44746e-11
6.37058e-11
6.394e-11
-1.50478e-11
-9.93557e-12
5.66949e-11
9.52836e-11
-1.96521e-11
4.66557e-11
-6.29518e-11
3.04928e-11
-1.73798e-11
-7.29292e-11
2.06624e-11
1.02771e-11
-1.49805e-10
-3.70308e-11
1.66604e-11
3.20638e-10
2.43224e-10
2.39077e-10
-2.72118e-10
1.47879e-09
7.30138e-09
7.57444e-09
-1.53251e-08
3.5918e-08
1.8686e-07
1.40138e-07
-6.04066e-07
6.87388e-07
4.07418e-06
1.67361e-06
-1.6358e-05
9.46057e-06
6.84791e-05
8.11466e-06
-0.000284885
7.55305e-05
0.000793426
-4.99811e-05
-0.00297644
0.000170806
0.000591181
-0.00174959
0.00288008
1.02151e-05
0.000696241
9.15127e-05
-0.00017113
0.000311968
5.01206e-06
5.42714e-05
7.77365e-06
-9.51716e-06
2.05265e-05
9.87409e-07
2.80666e-06
4.52651e-07
-3.11292e-07
9.41395e-07
8.70316e-08
1.07783e-07
2.33518e-08
-5.66228e-09
3.50153e-08
4.64932e-09
3.72501e-09
9.73804e-10
-2.5857e-11
1.18407e-09
1.69951e-10
9.97059e-11
1.04574e-10
-1.57286e-11
-7.35198e-11
-7.30421e-11
-1.15087e-11
1.10431e-10
1.01636e-11
-2.12943e-12
2.32496e-11
2.12898e-11
-8.39187e-11
2.94859e-11
2.46907e-14
1.04039e-10
-4.19761e-11
7.06764e-11
-5.40228e-13
3.99314e-11
5.08419e-11
-2.07395e-11
-3.39587e-11
3.72579e-11
4.52642e-11
-6.08528e-13
3.5772e-11
7.60273e-12
1.55137e-11
6.61454e-11
1.42265e-10
9.61305e-11
3.93428e-11
9.2289e-11
-1.39485e-11
3.89484e-11
-3.51665e-11
-1.183e-11
2.77491e-11
3.19234e-11
-3.15825e-11
-4.1279e-12
-2.1589e-12
2.72508e-11
2.43702e-11
-1.0098e-11
-1.77154e-11
-7.13956e-11
-2.76112e-11
9.09445e-12
-9.50154e-12
5.40083e-11
-3.70349e-12
-4.177e-11
-9.80148e-11
-3.19148e-11
-5.75548e-11
7.13896e-11
-6.91711e-11
-2.02883e-11
-4.20722e-11
-3.82019e-11
-4.82166e-11
-1.46696e-11
-1.03165e-10
-8.05971e-11
2.11661e-10
-1.20355e-09
-5.37728e-10
-9.74267e-10
-2.76027e-10
-7.13499e-11
-5.87787e-09
-9.78726e-08
-1.1338e-07
-8.42241e-09
-3.91602e-10
1.19585e-11
6.29472e-11
2.20229e-10
-2.11575e-11
4.54081e-11
-2.37814e-11
-6.99411e-11
-1.89772e-11
-1.07433e-10
8.29522e-10
-2.89428e-09
1.43346e-09
3.00661e-10
2.057e-10
4.65221e-11
5.29797e-12
-3.22018e-13
-2.63707e-12
-2.84451e-11
8.24991e-12
7.30982e-11
-1.97708e-11
-5.56697e-11
5.08353e-12
1.60115e-10
2.87362e-10
1.43313e-10
8.80246e-10
5.4628e-09
9.88628e-09
1.25112e-08
-3.01917e-09
1.8067e-08
1.97648e-07
2.4604e-07
2.93757e-07
-2.09942e-07
7.70242e-08
3.90611e-06
4.39801e-06
5.11306e-06
-8.12269e-06
-4.62013e-06
5.25606e-05
-0.000161302
-9.89026e-05
0.000507463
-0.00184273
-0.000937858
-0.000153236
3.05619e-05
9.57204e-06
1.49265e-06
1.38902e-07
9.01942e-09
4.19673e-10
2.58319e-11
5.21565e-11
4.00152e-11
4.32481e-11
3.74923e-11
-4.24503e-11
4.42778e-11
-9.91016e-13
3.09652e-11
3.61731e-11
2.26006e-11
6.42003e-11
6.6106e-11
3.46751e-11
3.4111e-11
2.35259e-11
9.32207e-12
3.22478e-11
-2.12475e-11
1.29449e-11
-1.68167e-11
-1.29276e-11
-9.71646e-12
2.0164e-11
-3.06049e-11
-3.98187e-11
-8.24436e-11
-4.52065e-11
-1.65888e-11
8.44399e-12
1.70298e-11
1.69712e-11
3.26321e-11
3.12345e-11
4.59537e-11
1.00679e-11
1.13424e-11
1.88546e-11
3.2471e-11
2.26119e-11
1.6309e-10
-2.43488e-11
7.77274e-12
1.38289e-10
-2.25093e-11
4.27816e-12
4.71144e-10
4.61669e-10
8.94938e-11
1.01252e-09
9.79342e-09
9.76816e-09
1.33638e-08
-1.97997e-09
9.47032e-09
1.97994e-07
-2.27973e-07
-2.83745e-08
3.70401e-06
6.41692e-06
4.66874e-07
2.504e-08
1.12097e-09
2.20797e-11
1.88385e-11
2.72553e-11
6.94176e-11
3.24956e-11
1.883e-11
-4.54253e-11
3.47145e-12
-1.63416e-11
-3.28486e-11
-7.43814e-11
-1.20459e-10
-1.36839e-10
-1.23943e-09
-4.24281e-10
-2.97607e-08
-1.27764e-08
-1.11846e-08
-3.90541e-07
-1.1712e-05
-1.40693e-05
-0.000286636
-0.000231733
-0.00010243
-0.00311207
-0.016579
-0.00105343
-0.028877
-0.0231177
-0.0209479
-0.0137445
-0.0113044
0.00398353
-0.00887537
0.00175922
0.00381959
0.00170671
0.00135485
0.0136863
-0.0135535
0.0117597
0.00031955
-0.00111456
0.00198092
0.00392625
0.000121734
-0.00265055
0.00349823
0.00346166
5.78851e-05
-0.00284469
0.00359373
0.0032647
0.000106698
-0.00411308
0.00461152
-2.43598e-05
0.000202221
-0.000267084
-1.11039e-05
-0.000717966
-0.00094917
0.000106999
0.000318162
-3.1842e-05
-4.96263e-05
0.000184401
-3.43711e-07
-0.00032186
0.00098253
6.59382e-05
-0.0029035
0.00183159
-0.000774871
0.000393964
-0.000635984
-0.0025829
-0.00014755
-0.00561497
0.00683118
-0.00571914
0.00243731
1.61173e-05
-0.00237574
2.44629e-05
0.00235187
-5.17212e-06
-0.00236057
-1.65489e-05
0.00237583
-1.80023e-05
-0.00241044
0.0058588
-0.00672866
0.000887382
-0.0111335
0.0148536
0.000860741
0.000523427
-0.0103302
0.00898977
-0.0102693
7.92144e-05
-0.00397126
0.00348897
6.71506e-05
-0.00512332
0.0031452
-0.00587017
0.00090318
0.0145661
-0.00668589
0.0023151
-4.71583e-05
-0.00517546
0.003701
-0.000147411
-3.58541e-05
-3.09756e-06
-1.99638e-06
-9.2114e-06
-1.64308e-06
-1.57117e-07
-1.00783e-08
-4.88376e-10
-4.96091e-11
-7.30164e-11
-5.29818e-12
-2.45653e-11
2.05304e-11
-1.21525e-11
-1.09202e-11
-1.53108e-11
4.22649e-13
1.29934e-11
-5.29038e-11
-1.01197e-10
-1.35137e-11
-9.0072e-12
-1.43647e-11
3.00027e-11
1.48784e-11
-3.48217e-11
-1.79132e-11
-3.61657e-11
2.07925e-11
-2.25853e-11
2.65224e-11
-2.80144e-11
-3.44108e-11
-4.50817e-11
4.51129e-11
-1.02854e-10
-4.93393e-11
3.40639e-11
-8.5089e-11
4.40818e-11
-4.02463e-12
-5.26575e-11
-3.88989e-11
8.07396e-11
-2.16331e-11
-1.19033e-11
-2.80056e-11
-3.67516e-11
-5.67578e-11
1.20035e-10
-5.23578e-11
2.5544e-11
-2.92365e-12
4.2409e-11
7.5297e-11
-3.78415e-10
-1.29621e-08
-4.43044e-07
-1.25414e-05
-0.000242093
-0.000233271
-0.00262386
-0.0029444
-0.0143182
-0.0215234
-0.0204392
-0.020402
0.00667704
-0.00580018
-0.00827008
-0.00890357
-0.0228902
-0.0216279
-0.0207474
-0.0207369
-0.019653
-0.0209042
-0.0240609
0.00698213
0.00207386
0.00165195
0.0172626
-0.0017015
-0.0186748
-0.014406
-0.0021525
-0.00262777
-0.0141143
-0.0139836
0.00111312
0.000787271
0.000390596
2.60344e-05
7.67725e-07
4.95082e-09
-3.67269e-10
-1.10966e-09
-4.55206e-11
-5.48047e-11
-2.85689e-11
1.80903e-12
-9.45795e-11
-1.19235e-10
-2.33995e-09
-1.50212e-07
-6.49075e-06
-0.000163623
0.000339468
0.00026264
0.000267851
1.39195e-05
1.1729e-07
-1.94802e-08
-1.67949e-08
-1.01794e-09
-1.23819e-10
1.59795e-11
-7.88489e-11
9.55248e-11
-2.66562e-10
3.31314e-10
-6.70093e-09
-7.31371e-10
-5.65697e-11
-3.18225e-10
-4.92247e-11
-6.36096e-11
-6.32647e-11
3.14133e-11
-9.9526e-11
-6.9247e-11
-4.91953e-11
3.63567e-11
-9.63815e-12
-3.56448e-11
2.13232e-12
6.37767e-11
-2.87657e-11
-1.00784e-11
-1.9332e-11
-4.40226e-11
-9.86918e-11
7.9779e-12
1.88656e-12
1.23258e-11
-6.16474e-11
-3.40616e-11
-1.84718e-12
-5.45797e-12
-1.47774e-11
4.6041e-11
2.09102e-11
4.40849e-11
4.30859e-11
3.97584e-11
-1.88715e-11
-1.5659e-11
9.64536e-12
3.60528e-11
-8.08731e-12
4.29509e-11
-3.31979e-11
2.52693e-11
7.09178e-11
-8.19794e-12
1.1463e-11
3.80965e-11
1.01622e-11
-1.5196e-11
-2.31074e-11
-1.89411e-11
-3.42201e-11
1.0124e-10
-4.98869e-10
-2.80156e-10
-1.0578e-09
-3.76588e-10
-2.59528e-08
-1.26697e-08
-8.44654e-09
-4.64274e-10
1.04035e-08
-1.77325e-07
4.85278e-07
-4.1173e-06
-1.10329e-07
1.48065e-07
-2.04647e-07
-1.53624e-08
-4.79983e-08
-1.266e-08
-7.41932e-09
-2.48985e-07
-1.3661e-07
-5.09553e-07
-3.11743e-07
-5.70166e-07
-3.0193e-07
-7.77745e-06
-5.26835e-06
-6.33838e-05
-5.71816e-05
-2.5358e-05
5.60452e-05
8.90945e-06
-5.09535e-06
-6.69333e-07
-4.7975e-08
-2.36355e-09
-7.84998e-11
-9.77949e-11
-6.83982e-11
-6.26671e-10
-3.06137e-09
-1.28115e-09
-1.20187e-08
-5.92463e-08
-2.14674e-08
-3.05551e-10
3.91878e-12
-6.81993e-11
5.47932e-11
7.22175e-11
4.39765e-11
6.366e-12
-2.28463e-10
-1.29516e-09
-1.85071e-07
-8.2205e-07
-2.5202e-07
-1.93693e-06
-6.67384e-06
-1.79021e-06
-1.11417e-05
-1.71218e-05
-9.23412e-06
-0.000254519
-0.00212457
-0.00108142
2.95013e-05
0.000209892
0.0001914
-5.20637e-05
-0.00326362
-9.31604e-05
3.08282e-05
0.000275486
-0.000164029
0.000248399
0.0136835
-2.81245e-05
-0.0113362
5.68375e-05
0.000222121
-0.0105209
-0.000146043
1.87231e-05
-0.00902674
-0.00692046
-0.00999626
-0.0223076
0.0038089
0.00587849
0.000428908
-0.000269231
-0.000273192
-0.000484688
-0.000302649
-0.0124952
0.0107694
-0.000337703
-0.00267247
0.000725559
0.00289079
-0.000139138
-0.00420525
0.00225644
0.00231256
-9.14012e-05
-0.00428781
0.00245016
0.00202109
-0.000144301
-0.00397892
0.000528962
-0.00930568
0.00587746
0.00878823
-0.00799606
0.00112147
0.000119808
-8.70497e-05
4.46913e-05
1.23376e-05
1.84989e-06
1.69837e-07
1.10209e-08
5.30839e-10
1.73036e-11
1.20467e-10
6.68204e-11
-4.79999e-11
2.87234e-10
-6.30641e-10
1.0982e-09
6.92835e-09
-1.9814e-08
2.30261e-08
-9.97091e-08
6.14891e-07
-3.01471e-06
6.68742e-07
1.83632e-07
1.14557e-07
1.36488e-07
3.4735e-08
8.39726e-09
5.10989e-09
4.22408e-09
3.31327e-09
1.74095e-09
9.99031e-09
1.80079e-08
-6.33435e-09
1.90365e-07
2.95792e-07
-2.7895e-08
2.27868e-07
3.10136e-06
4.73756e-06
5.10625e-06
-7.55424e-06
-3.34411e-06
6.56105e-05
5.52298e-05
-0.000153559
-9.56217e-05
0.000506284
0.000659759
0.000334965
-0.00212832
-0.000891364
-0.00174572
-0.00207438
0.000336777
0.000645017
0.000522654
-0.00170254
-0.000869883
-9.07818e-05
0.000325343
6.27751e-05
6.98031e-06
4.99064e-07
2.56534e-08
1.02971e-09
5.91664e-10
1.58398e-08
4.65724e-09
1.40055e-09
7.04553e-08
1.40426e-08
1.78877e-07
-6.44041e-07
4.01594e-07
4.16936e-06
-1.64933e-05
1.41034e-05
-6.48234e-05
0.00023864
-0.000845901
2.16863e-05
-2.20749e-05
1.75148e-05
6.99449e-05
7.74757e-06
1.19696e-06
1.81319e-06
3.60306e-06
1.93899e-06
2.11267e-06
5.37597e-06
7.07332e-07
-2.35322e-05
7.9544e-05
6.58213e-05
-0.000139597
-9.80917e-05
0.000531782
0.000684614
0.000337165
-0.00226915
-0.000969263
-0.00164421
-0.00328085
0.00027165
0.000899665
-0.000292824
0.00155418
-0.000638426
0.000415405
0.00135786
0.000565799
0.000366754
0.000936825
-3.7576e-05
5.06909e-05
0.000636301
5.54137e-05
2.98716e-06
1.3495e-07
5.25899e-09
1.9058e-10
1.53551e-11
2.05096e-11
-5.43974e-11
-3.68009e-11
1.16252e-11
8.04589e-11
-4.6498e-11
-2.34118e-11
3.95526e-11
-1.68189e-11
-9.29747e-11
5.14953e-11
7.74314e-11
-5.66345e-12
2.13053e-11
1.80523e-11
-1.33239e-11
1.73503e-11
6.51588e-11
-2.80576e-11
1.92707e-11
1.0097e-10
4.12744e-10
4.11543e-10
5.65774e-10
1.75076e-10
7.34315e-10
8.67962e-09
-7.82309e-12
7.63528e-10
-1.91786e-10
-1.2621e-11
-3.92034e-11
2.99225e-11
2.47898e-11
4.90872e-12
-5.25193e-12
4.57571e-11
3.82407e-11
-8.02683e-11
-1.88332e-11
-7.26965e-11
-1.31802e-10
-4.51974e-11
-1.56623e-11
1.72899e-11
-3.46512e-11
-7.69518e-11
-7.1645e-11
1.56366e-10
2.9712e-10
4.73285e-10
2.81631e-11
1.14199e-09
1.09685e-08
1.35003e-08
-1.50391e-09
1.68516e-08
2.1603e-07
2.282e-07
3.01482e-07
-3.60218e-07
-3.23423e-07
4.82404e-09
-7.81506e-09
1.42467e-08
1.1986e-08
4.31935e-10
2.42648e-11
-6.63264e-11
2.19625e-11
1.68077e-11
2.22261e-11
-2.77009e-11
-9.38412e-12
5.66335e-12
3.26787e-11
2.42677e-11
-6.63908e-11
-2.31604e-11
1.51666e-11
1.78196e-10
7.36999e-10
6.87144e-09
9.86437e-09
3.62191e-09
2.12146e-08
1.43716e-07
2.38244e-07
2.9368e-07
-2.12598e-07
1.10996e-07
4.6002e-06
4.88926e-06
-7.69587e-06
-3.72518e-06
5.36574e-05
6.47267e-05
5.78782e-05
-0.000195672
5.86044e-05
5.70457e-06
6.95132e-07
2.37098e-07
-3.16599e-09
-2.98273e-10
-9.68101e-12
4.20697e-11
-6.03832e-11
-9.71292e-11
-3.04318e-09
-2.38227e-09
-2.69613e-10
-5.8568e-09
-9.58038e-08
-6.8156e-07
-8.17362e-07
-5.8892e-08
-2.13968e-08
-1.27916e-09
-9.70993e-10
-6.25389e-11
-9.18225e-11
8.1219e-11
-5.23705e-11
-3.82054e-11
3.53841e-10
-7.34615e-12
-1.15935e-09
1.18408e-09
-3.4213e-10
2.49625e-10
-1.10251e-10
-1.40717e-09
5.53585e-10
-2.93093e-10
4.82076e-11
9.06035e-11
-6.09989e-11
-6.05908e-12
-2.43119e-11
-4.9981e-11
-3.17134e-11
-2.14079e-11
-5.60998e-11
-1.90593e-11
-4.17259e-11
-2.17063e-10
1.4228e-10
-6.23647e-10
1.4035e-09
3.75176e-10
-6.45464e-09
3.59343e-09
-1.98545e-08
3.85809e-08
-3.32823e-08
3.19688e-08
-2.42609e-10
8.33198e-09
-8.41963e-09
-4.61296e-10
6.00328e-09
-4.17447e-09
-3.87618e-08
1.68507e-08
-8.22973e-09
-1.25108e-09
-1.18872e-09
-6.46658e-13
-1.82855e-10
1.08103e-10
-1.03891e-10
-2.17182e-11
2.78444e-11
-5.11428e-11
-3.39798e-11
-1.09313e-11
-2.02755e-11
-6.61441e-11
3.90865e-11
1.11776e-11
-3.57003e-11
-4.642e-13
-3.61975e-11
3.63514e-11
-2.22511e-11
-3.8275e-11
-1.77762e-11
-3.01215e-11
-4.38079e-11
-1.83656e-11
6.05142e-12
-1.30776e-11
-3.45854e-11
7.90093e-11
1.6484e-11
1.56796e-11
-1.58412e-11
2.46149e-12
-3.10452e-11
2.19757e-11
-3.12158e-11
-1.90738e-11
-3.09147e-11
-4.61076e-11
-9.57981e-11
1.60453e-11
-6.82914e-11
-7.34506e-12
1.87454e-11
-2.72534e-11
-7.12838e-12
-5.38964e-11
2.92777e-11
-1.70529e-12
1.38488e-11
8.79e-11
-2.32532e-11
6.41493e-11
6.59144e-11
-8.47524e-12
5.49134e-11
4.34268e-12
-1.39819e-12
-1.00681e-11
6.12087e-12
-2.88267e-10
-1.70182e-08
-1.13734e-08
-2.14007e-07
-6.90859e-09
-8.53618e-07
8.2481e-07
-9.70893e-07
5.36774e-07
-9.49062e-08
1.60603e-07
-2.13632e-07
-2.94813e-08
-3.31165e-08
3.16513e-09
-4.98149e-09
2.90716e-09
-3.41501e-09
-1.06845e-09
-2.58948e-10
-5.43807e-10
1.36667e-09
-1.74292e-09
1.89393e-09
3.36812e-08
-1.36294e-07
6.91621e-07
-4.52307e-07
-7.56062e-06
2.43192e-05
-3.15734e-05
-0.000195239
-0.000220098
-1.85649e-05
-1.02918e-05
-7.89562e-08
-1.82237e-07
1.44276e-08
-2.12253e-09
-2.48829e-10
-4.37186e-10
-1.20466e-10
-1.5359e-11
7.21716e-12
-1.19178e-10
-5.07943e-12
8.67413e-11
5.69133e-11
3.41733e-11
1.80852e-11
-8.68281e-12
7.97629e-12
-7.58483e-11
-4.57617e-11
1.31315e-11
-7.07384e-11
-9.75311e-12
5.48686e-11
0
2.5603e-11
1.00092e-10
5.23345e-11
2.93334e-11
1.76097e-11
-5.35824e-11
9.67378e-13
-5.08795e-11
-4.54902e-11
3.71049e-11
9.70167e-12
2.60638e-12
4.30793e-11
-3.7171e-11
8.11207e-11
1.16703e-11
-1.32933e-10
-3.88362e-11
4.55327e-12
-6.59835e-12
-2.02313e-10
-6.07126e-09
-1.08828e-07
-9.69626e-08
-9.07538e-07
2.59304e-07
-9.99519e-08
9.65804e-08
-3.79771e-08
-1.27003e-09
-7.063e-11
8.15063e-12
-1.62362e-10
-5.72384e-09
-1.36585e-07
-6.85023e-07
-4.77912e-07
-4.77643e-06
-1.18294e-06
-1.92573e-05
1.4465e-05
-2.0611e-05
9.41084e-06
-1.01914e-06
3.18084e-06
-2.74681e-06
-4.54564e-07
-7.35537e-07
6.84456e-07
1.49619e-07
1.35125e-05
2.16134e-05
7.60163e-06
1.5865e-05
-7.57603e-05
1.60152e-05
-2.93727e-05
-3.52007e-06
-1.16876e-06
-7.13621e-06
-5.61261e-06
-4.14792e-06
-5.94332e-05
-5.7773e-05
-6.60801e-05
3.38616e-06
-5.5779e-06
-1.00027e-06
-4.60306e-06
-1.25215e-05
-1.67281e-05
-6.67858e-06
-1.80819e-06
-2.53186e-07
-2.0476e-07
-4.24925e-09
2.61125e-08
2.02112e-08
-2.90175e-09
-1.75663e-08
1.39315e-08
8.6232e-10
1.14676e-09
2.83454e-09
2.28166e-09
4.55268e-08
2.41141e-08
-1.0722e-08
-7.51147e-11
5.45488e-10
-4.55586e-10
-9.91083e-10
-1.36516e-11
4.87326e-11
4.73148e-11
2.51903e-11
2.74278e-11
9.69422e-12
-1.84378e-08
1.03826e-08
1.70298e-07
-3.25112e-07
-8.10156e-07
-1.76952e-06
1.84296e-06
-3.63995e-06
-3.01044e-07
7.63246e-05
-0.000284167
3.48492e-05
0.000920828
3.31342e-06
4.23734e-06
-1.7629e-05
0.000573482
-0.00026464
0.008971
-0.00987724
0.0198378
0.00181232
0.00740359
-0.00994588
0.010051
-0.00785091
0.0071686
0.00824738
-0.00804778
0.000822181
-0.00930954
0.00773851
0.00785821
0.0133339
-0.00160809
-0.00128359
-0.00189032
-0.000359979
-0.00352434
-0.000210485
-1.73091e-05
-1.29486e-06
5.16536e-07
-1.24966e-06
-2.07268e-07
1.78659e-07
-7.37304e-08
7.33566e-07
2.14126e-08
4.78846e-06
-1.75969e-06
3.90847e-05
4.66579e-06
3.31576e-07
-1.42462e-08
4.50417e-06
5.89666e-06
-5.1616e-06
-2.22739e-06
4.96944e-05
7.01197e-05
5.76914e-05
-0.000150579
-9.28252e-05
-0.000190665
6.29832e-05
7.00035e-06
7.23211e-07
6.42265e-07
5.41187e-06
4.83579e-06
1.55484e-06
2.09184e-06
2.46842e-07
1.93891e-08
5.33795e-08
2.8309e-08
1.2389e-09
5.90676e-11
5.44547e-11
8.22918e-11
3.4502e-10
1.81202e-11
-6.60299e-12
-1.42928e-11
3.69336e-12
-2.34871e-11
3.67336e-11
1.37634e-11
9.44442e-11
-5.95746e-11
8.29397e-10
1.19631e-09
1.40752e-10
2.51856e-10
6.93927e-10
2.43658e-10
1.34741e-09
6.99626e-09
2.05248e-08
8.18532e-09
1.66952e-07
8.27406e-08
2.90292e-07
2.73416e-07
-7.64775e-07
-2.97082e-08
6.43466e-06
1.01886e-05
3.26878e-07
2.91999e-08
2.84067e-09
8.23367e-09
-6.67925e-09
3.51846e-07
1.5514e-07
-9.37339e-08
-2.62502e-07
3.73799e-06
8.23891e-06
-9.58339e-06
-7.74368e-06
-1.18852e-05
-8.70426e-06
0.000125855
3.67793e-05
8.84779e-05
-3.32992e-05
-0.000256263
-0.000174307
0.000176597
0.0014824
0.0050401
0.00712082
0.0175925
0.00967234
0.0141116
-0.00171912
-0.000225397
-0.000195177
0.000120905
0.000945743
0.00436204
0.00911384
0.0135178
-0.00149643
-0.000189075
-1.17455e-05
5.34233e-05
-1.00821e-05
8.30885e-06
3.92888e-07
0.000112027
0.000863205
0.00415864
0.0082093
0.013747
-0.00153044
-0.000188626
-1.1963e-05
-1.06331e-05
-1.79663e-05
-7.4959e-07
-1.63464e-08
3.12989e-09
-1.32763e-11
-6.50889e-11
-5.7628e-11
-8.82805e-11
1.54531e-07
4.79478e-06
8.6899e-05
-0.000240797
-0.00166042
0.00431054
0.0075847
0.0155306
-0.00154213
0.00628884
0.0022797
0.0002622
-5.67523e-05
-2.2438e-05
5.73489e-06
1.34158e-06
1.11272e-07
5.07255e-09
1.55346e-10
-1.1907e-11
-1.1224e-11
-2.29301e-11
-6.83982e-12
-2.80262e-11
-1.30039e-11
-2.72178e-11
2.85069e-11
2.69077e-11
3.6414e-11
-2.32621e-11
2.86776e-11
9.81428e-12
-1.4725e-10
2.5298e-10
2.39718e-10
3.3786e-11
2.22321e-11
3.24701e-11
1.43924e-10
6.77086e-11
3.04841e-11
2.21915e-11
2.83094e-11
1.98677e-12
4.53188e-11
5.29636e-10
2.20413e-09
7.83391e-10
1.09827e-09
2.7961e-09
5.1994e-08
1.89452e-08
1.37136e-08
5.00562e-09
7.87364e-08
-4.6779e-09
-4.33695e-08
-1.35784e-06
-1.11295e-06
1.73733e-05
-9.46709e-08
-1.76678e-05
7.52806e-05
-6.98494e-07
-0.000259601
0.000258503
-7.59652e-05
7.18161e-05
-4.72972e-06
-0.000270254
0.00025294
-8.01413e-05
-4.45864e-06
7.286e-05
-5.74952e-05
-7.03373e-06
-9.74507e-06
-5.32716e-06
-6.79261e-07
1.00249e-05
0.000137957
-0.000450256
-0.0016734
-0.00273535
-0.000481453
-0.000112079
-8.98029e-05
0.000248429
0.000149388
9.01218e-06
-6.98052e-06
-1.70835e-06
-1.7403e-06
-2.54663e-07
3.88686e-06
-4.60574e-06
4.53693e-06
-4.04668e-06
8.9904e-07
-1.50866e-05
1.89842e-05
8.95546e-07
-7.2632e-05
3.55151e-06
-0.00025107
0.000267858
1.48561e-06
-0.000865641
0.000884884
-0.000947989
1.82906e-05
1.07919e-05
2.56833e-06
1.94405e-07
4.74962e-07
-4.52662e-06
-7.62359e-06
-0.000288453
4.29204e-06
-0.00215821
0.0257895
-0.000495103
-4.50296e-05
-0.000207217
-0.00826216
0.00361937
0.00599637
0.000466516
-3.75644e-05