/*--------------------------------*- C++ -*----------------------------------*\
| =========                 |                                                 |
| \\      /  F ield         | OpenFOAM: The Open Source CFD Toolbox           |
|  \\    /   O peration     | Version:  2306                                  |
|   \\  /    A nd           | Website:  www.openfoam.com                      |
|    \\/     M anipulation  |                                                 |
\*---------------------------------------------------------------------------*/
FoamFile
{
    version     2.0;
    format      ascii;
    arch        "LSB;label=32;scalar=64";
    class       volScalarField;
    location    "0.1";
    object      gradTy;
}
// * * * * * * * * * * * * * * * * * * * * * * * * * * * * * * * * * * * * * //

dimensions      [0 -1 0 1 0 0 0];

internalField   nonuniform List<scalar> 
5322
(
0.593959
0.067929
0.0139828
0.000658201
0.0105323
0.0150082
0.0148585
0.0133412
0.0120636
0.0105523
0.00266669
-0.0307674
-0.0328324
-0.0295705
-0.0260411
0.0574972
0.0764772
-0.000475608
0.0555552
-0.072121
0.0738387
-0.0853057
0.0916139
-0.108278
0.119076
-0.135095
0.148288
-0.17402
0.190008
-0.213547
0.233014
-0.261878
0.29091
-0.276118
0.278763
-0.154159
0.308431
0.378025
0.190706
0.212686
0.279289
0.234349
0.249307
0.260973
0.248907
0.254148
0.252878
0.270284
0.258561
0.23994
0.302533
0.137371
0.159571
-0.498776
-0.0247348
-0.286904
0.156605
-0.374196
-0.0184422
-0.32516
0.158931
-0.367785
-0.0164095
-0.322776
0.159628
-0.381328
-0.0222227
-0.312954
0.161779
-0.424206
0.0132464
0.339117
0.188349
0.26387
0.196427
0.249451
0.207669
0.248655
0.211482
0.295747
0.0230399
0.11157
0.164349
0.263949
-0.0181852
-0.0984601
0.0342242
0.0654481
0.135997
0.0190004
0.0364269
0.0066115
0.000947282
0.000945998
0.337085
-0.19078
0.00612587
0.192777
0.00578884
-0.00879037
0.0329998
0.00600601
0.20565
-0.327975
0.294189
0.00623884
-0.00633388
-0.000850292
0.000136372
0.000600489
0.000572429
0.000468642
0.000466991
0.00054631
-0.000552734
0.000233479
0.021667
-0.00864527
-0.0032195
-0.0164207
0.0203081
-0.0108663
-0.0214321
-0.0295237
-0.0333009
-0.0013515
0.0245304
-0.0184361
0.00175297
0.0201826
-0.0200777
0.000858387
0.0209726
-0.0215074
-0.000683144
0.0195724
-0.0234822
-0.00185713
-0.00561499
0.0360195
0.029731
-0.0198872
0.0131185
0.0101781
-0.0212253
0.00248559
-0.0206161
0.0161382
0.0166952
-0.0184349
-0.000267835
-0.0170557
0.0171647
0.0186808
-0.01667
-4.83168e-05
-0.0158167
0.0202278
-0.00118453
-0.000833682
0.0647121
-0.0505692
0.0591151
-0.0677642
0.00253806
-0.0395989
-0.000313003
0.00074409
-0.00668811
0.0180217
-0.0360341
0.0358961
-0.0619914
0.00017479
0.0633995
-0.0662568
0.0689869
-0.0758886
0.000353302
0.0748435
-0.0841495
0.087288
-0.0965429
0.000407444
0.0945288
-0.106713
0.110272
-0.123408
0.000399997
0.120798
-0.136629
0.141028
-0.158003
0.000506818
0.154787
-0.174797
0.180442
-0.200507
0.000757608
0.196447
-0.221373
0.228566
-0.249728
0.0010689
0.244128
-0.274679
0.283345
-0.299237
0.001464
0.290887
-0.32884
0.331633
-0.191203
-0.0011973
-0.0191798
0.00922236
-0.0062879
-0.000305237
0.00191388
0.00289768
0.000174051
0.337536
-0.19042
0.00110174
0.228243
-0.0339754
-0.0134454
0.0114806
-0.0124487
0.191729
-0.332427
0.00204516
0.00148791
0.0041561
0.00236425
0.00105351
0.000365596
2.56308e-05
-0.000235075
-0.000484457
0.000594357
-0.000265648
-0.0173929
-0.0185656
-0.0185877
-0.0174194
0.00381176
0.00593237
0.00362504
-0.023178
0.0117435
-0.0241844
0.00593421
0.00382004
0.00364575
-0.0238985
0.00811804
0.0228406
0.0145541
-0.0231719
0.0117724
0.0248042
0.0347904
0.0368525
-0.0624296
-0.0623079
-0.0670037
0.0516558
-0.0684291
0.0693795
-0.0820695
0.089442
-0.10333
0.115218
-0.132406
0.147131
-0.170218
0.18467
-0.217509
0.226681
-0.271705
0.268881
-0.0519195
0.154383
-0.0323311
0.00179639
0.232814
-0.250109
0.010102
0.205508
-0.205538
0.00728346
0.171141
-0.16185
0.00556787
0.137752
-0.125707
0.00428219
0.10819
-0.0978589
0.00307988
0.0836062
-0.0775757
0.00189473
0.0637682
-0.0646323
0.00317703
0.0453026
-0.00415819
0.0452752
-0.0646942
0.00318027
0.0519069
-0.066644
0.026265
0.0427984
0.0318314
0.0298912
-0.0587169
0.0410229
-0.0619734
0.0609338
-0.074047
0.0806361
-0.0933978
0.104626
-0.120179
0.133614
-0.155611
0.167452
-0.199246
0.204664
-0.241393
0.235864
-0.0307068
0.114497
-0.100957
0.00682664
0.325309
-0.352715
0.0138407
0.295427
-0.281173
0.0089767
0.242302
-0.216707
0.00609964
0.192164
-0.167544
0.00444261
0.150766
-0.130474
0.00309433
0.118073
-0.103198
0.00202642
0.0929141
-0.0855054
0.00354292
0.0696085
-0.0752792
0.0260608
0.0597888
0.0529058
-0.0265568
0.0528677
-0.0123528
0.0090436
0.0622196
-0.0540174
0.0532208
-0.0540404
0.0867453
-0.0764733
-0.000641437
-0.0794337
0.0678701
-0.0656082
0.00181856
0.0688428
0.00299974
0.00103509
-0.0189881
0.00184146
-0.0015153
0.00100605
-0.000410348
-0.000159825
0.0631407
-0.0632473
0.067053
-0.0749675
5.83499e-05
0.0851056
-0.0948372
0.107996
-0.121143
0.000244411
0.138474
-0.155032
0.177514
-0.196441
0.000452154
0.225165
-0.243796
0.278978
-0.29084
-0.000469772
0.000503436
0.000804578
0.00233461
0.00123422
0.00115928
0.227414
-0.243634
0.00116666
0.289086
-0.317933
0.284299
-0.288061
0.00278488
0.351149
-0.36755
0.235604
-0.174438
-0.310882
-0.0233015
-0.00133575
-0.111808
-0.0297827
0.00555056
0.173318
0.2166
0.0148757
-0.307197
0.213632
0.000257045
-0.207301
0.172591
-0.00212772
-0.153893
0.137255
-0.00147588
-0.116252
0.107045
-0.0018926
-0.0910874
0.0875925
-0.00222546
-0.0695485
0.0731102
-0.004826
-0.0527481
0.0156576
0.02423
-0.0325596
-0.000541189
0.0552841
-0.0534652
0.0617321
-0.0672007
0.0766109
-0.0854748
0.138905
-0.121829
-0.000429189
-0.123992
0.108091
-0.0957601
-0.000641932
0.108873
0.000259062
-0.000997514
-0.000597368
-0.00478136
-0.00344791
0.00473385
0.00618702
0.00224498
0.00214845
0.0042808
0.00270587
-0.00349571
0.0568197
0.0181793
0.00374889
0.0138604
0.00186983
-0.00109769
-0.000701858
0.00153343
0.00192127
-0.00164579
-0.00290775
-0.070371
-0.00164769
0.078071
-0.090869
0.0974506
-0.109347
0.125435
-0.138905
0.228299
-0.196982
0.000198713
-0.202066
0.178294
-0.155671
-0.000205817
0.178356
0.000883095
-0.000842514
-0.00104993
0.000284015
-0.0104378
-0.00437688
-0.00309147
-0.0072103
-0.00116475
-0.000853068
0.0631036
-0.000930537
-0.0022787
0.00356333
-0.00934332
-0.00215088
0.031021
0.0584188
0.106698
0.00964101
-0.00128464
0.00150752
-0.00121546
-0.0680274
-0.000952256
0.069861
0.0636679
-0.0775408
0.00190319
-0.0818254
-0.00160369
0.089944
0.0835389
-0.097706
0.00310141
-0.103438
-0.00240721
0.11548
0.108323
-0.125468
0.00432614
-0.133116
-0.00150888
0.146723
0.138421
-0.16169
0.00566645
-0.172066
0.00402784
0.182083
0.173327
-0.206293
0.00747945
-0.220587
0.0214086
0.217478
0.211631
-0.254741
0.0104119
-0.271918
0.0681071
0.246561
0.246535
-0.0397461
0.00197199
-0.047398
0.747443
-0.356538
-0.367131
0.556484
0.146268
0.0541938
-0.45933
-0.103674
-0.0623294
0.209173
-0.21907
-0.00411164
0.00792853
-0.0362779
-0.0418139
-0.00762183
0.0112905
0.00643167
-0.00162337
-0.00680855
-0.00188883
0.00328427
0.000929872
0.000477002
0.000149132
-0.000294244
-0.000763995
-0.00276508
-0.00142314
0.0370638
-0.0370571
0.000414589
0.000249268
-0.037674
0.0371181
-8.85125e-05
0.000151454
-0.000161105
-0.00280133
-0.00177664
0.0067384
0.000641147
0.00775177
-0.00273824
-0.00336357
-2.50014e-05
0.012528
-0.0146224
0.0147231
-0.012438
-0.0126078
-0.0107058
0.000432517
0.0146135
0.0130773
-0.0130153
-0.000377474
-0.0146829
1.40033e-05
3.20535e-05
0.000813038
0.00187197
0.00162068
-0.00555939
-0.0009034
-0.00167045
-0.002072
-0.00182786
8.54227e-05
6.73315e-05
0.0137123
-0.0253714
-0.00984185
0.000182077
0.133899
-0.142259
0.160727
-0.176633
0.201448
-0.00759999
-0.185035
-0.00335375
0.178536
-0.00339444
-0.0144199
0.0024871
0.00178963
0.00339106
0.00393973
-0.00333584
-0.0418505
0.143507
-0.0675006
-0.249978
-0.0366907
-0.0418692
-0.558868
-0.157119
0.0202885
-0.233134
0.169392
0.00824768
0.00803516
0.20483
0.171502
0.0225055
-0.019686
0.225922
0.203194
0.0239747
-0.0235164
0.20542
0.231355
0.0223714
-0.0530314
0.171068
0.234889
-0.0832437
0.132068
-0.114888
0.122738
-0.482374
-0.260939
0.0431814
-0.119266
0.236305
-0.0147498
-0.384297
0.21601
-0.00416656
-0.255446
-0.25379
-0.365622
0.131581
-0.193995
-0.128575
0.205417
-0.378774
-0.0523596
0.247586
-0.26822
-0.0166604
0.214445
-0.197151
-0.00805292
0.172357
-0.150494
-0.00626399
0.135265
-0.116912
-0.00495963
0.105939
-0.0916059
-0.00284945
0.0841498
-0.0730646
0.00154304
0.0709273
-0.0555222
0.0141412
0.0521126
-0.0277039
0.05263
0.0597172
-0.0760318
0.0694071
-0.0863472
0.00362184
0.0408935
-0.0587589
0.0260242
0.0297376
0.0320827
0.0427849
0.0367761
0.0262428
0.0509805
0.0308296
-0.00282051
-0.0106957
-0.0120268
-0.0111767
-0.0140337
-0.0202352
-0.0152029
-0.00654095
-0.00289723
0.100673
-0.113771
-0.00263785
-0.00206494
-0.00404195
0.000410796
-0.158121
0.138731
0.000373738
0.123042
-0.139398
0.000403181
0.157923
-0.178204
0.000816561
0.200866
-0.225375
0.00146413
0.250296
-0.278673
0.00193027
0.297941
0.00223229
0.00482631
0.000297802
-0.00023164
-0.00096951
0.000134489
0.000411403
0.000343092
0.000228062
0.000118533
5.618e-05
4.65222e-05
0.000346754
0.00100668
-0.0360945
0.00057688
0.0018624
-0.000136683
-0.000105381
-0.00015528
-0.000246554
-0.000442868
-0.000892223
-0.00175734
-0.00238075
0.00961076
-0.0027933
-0.00736905
-0.00996061
0.195261
-0.208817
0.250872
0.000306862
-0.0347638
0.0290278
0.0915078
0.000402807
-0.081984
0.076887
0.0785529
0.000162963
-0.0874126
0.0817611
0.0705022
-6.45701e-05
-0.110159
0.104591
0.0984727
-0.00206048
0.133878
-0.140847
0.137349
-0.14764
-0.013785
-0.0760158
0.108451
-0.00948544
-0.104127
-0.00238119
-0.000741206
0.36351
-0.0011826
-0.365763
0.224983
-0.00798388
-0.232698
0.233233
-0.00517248
-0.244457
0.368299
-0.0035621
-0.368449
0.333082
-0.331815
0.329714
-0.337816
0.00133619
-0.364582
0.360374
-0.000468786
-0.233128
-0.00881104
0.23514
-0.200487
0.00140473
0.355588
0.128301
0.352517
0.130295
-0.160489
0.237465
0.0284164
-0.183332
0.1863
0.0102606
-0.156906
0.147488
0.00680746
-0.126116
0.117653
0.00503944
-0.100116
0.0914507
0.00377652
-0.0788297
0.0722193
0.00137619
-0.0635687
0.054767
-0.00382377
-0.055428
0.0348594
-0.0231703
-0.0625063
-0.0183993
-0.0570246
0.0373968
0.00349398
0.0018461
0.0236062
0.00573045
-0.0363999
-0.0298795
-0.00813326
-0.0231992
-0.014849
-0.0115377
-0.0257037
-0.0126318
-0.0134335
-0.0255197
-0.0375027
-0.0390534
-0.0261742
0.0663771
0.00394948
-0.0414743
-0.00315733
0.060701
0.0714503
0.000503036
-0.0582109
-0.00194553
0.0714937
0.105328
0.000391738
-0.119229
0.00135792
0.132356
-0.000497417
-0.152378
0.00209942
0.168187
-0.000802382
-0.194308
0.0015855
0.212309
-0.00101302
-0.244781
0.00222077
0.263509
-0.00206811
-0.303563
-0.000178276
0.316486
-0.00630322
-0.369838
-0.0107668
0.00618724
-0.224998
0.366728
0.00217444
0.215603
0.00375552
-0.189558
0.310846
-0.000462155
0.173827
0.00336027
-0.154827
0.253531
-0.000411386
0.139172
0.0027718
-0.123096
0.20234
-0.000225573
0.109612
0.00253438
-0.0971402
0.159333
-0.000129736
0.0860609
0.00186016
-0.0764085
0.125262
-5.05225e-05
0.0675337
0.00139577
-0.0618817
0.0998196
-0.000345642
0.0547026
0.000846824
-0.0534298
0.0804051
-0.00289062
0.0543912
-0.00893475
0.0124798
-0.0599716
-0.0526543
0.0274659
-0.052708
-0.0144929
-0.00874096
-0.107163
-0.0586945
-0.0515214
-0.0357515
-0.0262465
0.059452
0.0687168
0.0052537
-0.039291
-0.00355335
0.0874265
0.00223058
-0.0937332
0.00201477
-0.00300454
-0.00103844
0.00130391
-0.054406
-0.00165459
0.0239938
-0.00335638
-0.00370617
-0.00641165
0.0233353
-0.00765377
0.00316454
0.00277619
8.03701e-05
0.000213395
0.000194645
0.000149132
0.000126951
9.72295e-05
-0.000337613
-0.00019403
0.0852344
-0.0986871
0.00048321
-0.000313774
-0.000806524
2.71557e-06
-0.0686263
-1.79243e-05
0.0754587
-0.0863667
2.94581e-05
0.0960405
-0.109048
0.000167056
0.000125967
-0.000100697
0.000112967
0.000166348
0.000543015
0.000690488
0.000462315
0.000283378
0.000166636
0.000126862
0.000352897
0.000369755
7.53462e-05
0.0746476
-0.0826264
0.0748401
-0.0838381
0.0941893
-0.106104
0.00116634
-0.0465933
0.00110414
0.043696
0.00185013
-0.0398543
0.000600801
0.0304794
-0.00273745
-0.00170385
0.0110992
-0.000104024
-0.0151479
0.104553
0.000302014
-0.0742089
-0.0028845
0.0848903
0.110924
0.00260251
-0.0989924
-0.00382514
0.113063
0.136826
0.00439892
-0.127378
-0.00492686
0.141581
0.173246
0.00598988
-0.162335
-0.0062194
0.172183
-0.202315
-0.00754933
0.197623
-0.249737
0.00178361
-0.00818137
-0.00174769
-0.0004123
0.000267309
0.000402569
0.000396472
0.000458584
0.000592065
-0.000555523
0.000256497
0.0174299
0.0184263
0.0186351
-0.0052723
0.024455
-0.00181406
-0.00193292
0.0251389
-0.00462335
0.0232924
-0.00745345
0.000928464
-0.00202253
0.00198021
-0.000494915
0.000568329
-0.000286551
-0.0659791
0.00209748
0.00183699
0.000471619
5.80504e-05
9.05746e-06
-0.0130043
0.0129433
0.000435777
-0.0108835
0.0169753
-0.00365522
0.00134734
0.000448444
-0.00028723
-0.00294314
0.024028
-0.0650053
0.003976
-0.0438018
-0.00352672
0.0592374
0.0729707
-0.000370346
-0.0592126
-0.00177604
0.0858498
0.000845061
-0.0762898
-0.00283594
0.0896951
0.108594
0.0027612
-0.0999406
-0.00391919
0.112937
-0.128303
-0.0050325
0.141421
0.00399911
0.00329256
0.00252404
0.00174082
0.000854534
0.00137985
-0.000811945
1.05406e-05
0.000485704
7.07061e-05
-0.000349399
-0.00169559
-0.00131698
-0.000403678
-0.000409039
-0.000636032
-6.70709e-05
-0.00154426
-0.000991542
-0.00208374
-0.00216695
-0.0141058
-0.0195152
-0.0308002
-0.033426
-0.0602826
-0.0514474
-0.0298936
-0.110865
-0.335186
0.0229617
-0.529631
-0.393424
-0.293415
-0.195648
-0.173515
0.0663903
-0.154062
-0.0107297
0.0382819
0.00338623
-0.00334172
0.187442
-0.218911
0.25541
0.00233635
-0.0311322
0.0477915
0.106339
0.00403764
-0.0736679
0.0995328
0.0994642
0.00428423
-0.0788095
0.102643
0.0933541
0.00317389
-0.105514
0.116589
-0.00537258
0.00407074
0.0101738
0.0554856
-0.23624
-0.340845
0.0111714
0.296789
0.00707736
0.00376923
0.188924
0.0018315
-0.309526
0.343911
-5.32539e-05
-0.357459
0.210719
-0.221227
0.194612
-0.0309853
-0.232599
0.00909474
-0.274189
0.377071
-0.330198
0.315795
-0.000772632
-0.316354
0.000513907
0.313428
-0.000931437
-0.314775
0.000199309
0.316216
-0.00104722
-0.317403
0.335942
-0.385446
0.0253056
-0.290626
0.400016
0.020288
0.0111631
-0.122929
0.131777
-0.136248
0.000339261
-0.104636
0.0962867
0.00689396
-0.119602
0.086139
-0.10026
0.00732215
0.190713
-0.108268
0.0649369
0.0145284
-0.122588
0.0967862
-0.00205215
-0.00189406
-7.89984e-05
0.00341979
0.00182106
0.000735948
0.000210338
-3.69273e-05
-0.00024952
-0.000479609
0.000594917
-0.00023526
0.0107875
0.0124905
2.62562e-05
-0.00291678
-0.00180481
0.0230124
0.00814045
-0.0198702
0.0101529
0.0131252
-0.020867
0.000583938
-0.0236268
-0.00182798
-0.00571234
-0.0193495
0.0298674
0.0364556
0.00190059
0.00677124
-0.0016353
0.000935427
0.0162816
-0.0175
-0.000196975
-0.0185315
0.018516
0.0175336
-0.0162371
-8.84021e-05
-0.0217671
-4.17593e-06
0.0217737
1.27207e-05
3.35527e-05
-0.000455603
0.00104374
0.000997298
0.00831285
0.106607
0.0583575
0.0304527
-0.00286246
-0.0103996
-0.0120992
-0.0144414
-0.0195599
-0.0299804
-0.0510177
-0.0527379
-0.101094
-0.110691
-0.236007
-0.389252
-0.350442
-0.352598
0.14744
-0.216021
-0.0996381
-0.107761
-0.318864
-0.397315
-0.356804
-0.356865
-0.357316
-0.354912
-0.404679
0.149422
-0.027075
-0.095722
0.454451
-0.132296
-0.293119
-0.276496
-0.0785737
-0.0962494
-0.219844
-0.22847
-0.0390608
-0.0657988
-0.00212218
0.00711127
0.00844471
0.00714509
0.00550003
0.00412976
0.00208679
0.00191754
-0.00137231
0.000937293
-0.00526898
-0.00856731
-0.0109274
-0.014453
-0.0212311
-0.0369788
0.00450722
0.00250863
0.00124598
0.00527859
0.00646359
0.00569111
0.00559468
0.00398531
0.00504511
0.0030041
0.0607657
0.0922254
-0.103673
0.117245
-0.13043
0.00313582
0.0803177
-0.074243
0.00209591
-0.000389301
-0.00074615
-0.000273379
-0.0621223
0.00174342
-0.0240581
0.0146383
-0.00502627
-0.00131189
-0.00169371
0.00245602
-0.0212682
0.0166353
-0.000117557
-5.20761e-05
-5.26529e-05
1.75551e-05
0.0107617
-0.000361402
5.84986e-05
5.4718e-05
-3.07141e-08
-0.00675587
4.59396e-05
0.00280299
0.00174298
0.00230129
-0.00187596
0.00160242
-2.08094e-05
0.000173021
-0.00673548
0.0212473
0.0208923
-0.0130488
-0.00241199
-0.0103271
0.0199957
0.00176772
0.000450776
3.57911e-05
1.38673e-05
-0.000404779
-0.000352312
-0.000343403
-0.000560134
-0.0014187
-0.000963238
0.000191866
-0.00154142
-0.00100436
-0.00203813
-0.00210234
-0.0934925
0.104083
0.149955
-0.166727
0.191204
-0.213683
0.00574584
0.132652
-0.119917
0.00433385
0.000254303
-0.00103005
0.00110314
-0.000827861
0.00233563
-0.00199598
-0.0017981
-0.00196948
-0.00163761
-0.000257835
0.00300112
0.00477382
0.00559199
0.00249756
0.0553164
0.00156563
0.00186161
0.000900592
0.00039073
3.98995e-05
-0.000352118
-0.000297722
-0.000146067
-0.000229372
0.000182153
6.92727e-05
1.34452e-05
0.000548839
0.000275156
0.000267462
0.000155848
-9.2321e-05
0.000360888
0.000326769
6.16953e-05
0.000127438
0.000218416
0.00034932
0.000305806
0.00106064
0.000573531
0.000934659
0.00208672
0.0010604
0.00222125
0.00421006
0.00333849
0.0131666
-0.0300425
-0.0375025
-0.00650735
0.00469485
0.00643228
0.00439917
-0.0907673
-0.00192331
-0.00106927
-0.00132349
-0.00929158
-0.00329503
0.20497
-0.0027925
-0.259058
-0.00199393
-0.0113312
-0.240678
-0.0109403
-0.0137347
-0.157921
-0.0773434
-0.128179
-0.310417
0.031671
0.0780976
0.00490234
-0.00421349
-0.00360614
-0.00659232
0.00135196
-0.183738
0.24805
0.00166582
-0.0552824
0.0250673
0.084688
0.000576448
-0.105825
0.067499
0.0682559
-0.000233984
-0.109207
0.0720879
0.06045
-0.000920519
-0.100406
0.0239836
-0.145078
0.0690142
0.107428
-0.137179
0.0407149
0.0179483
-0.00818612
-0.00147024
-0.000285147
0.000390814
0.000462125
0.000407032
0.000440902
0.000495336
0.000404279
0.000516011
0.00144174
0.0930521
-0.104517
0.00130024
0.118239
-0.133685
0.120013
-0.135664
0.153026
-0.172729
0.00157142
-0.076014
0.00147815
0.0732258
0.00127082
-0.0588872
0.00140845
0.0572555
9.37272e-05
0.00109363
0.018571
-0.00078511
-0.0238495
0.167279
0.003044
-0.121337
-0.00491094
0.136587
0.176843
0.00594254
-0.159942
-0.00614185
0.209709
0.00965709
-0.200972
-0.00848271
0.197368
0.251059
0.00918743
-0.298652
-0.00122969
-0.24833
-0.295432
0.0109655
0.243936
0.202674
-0.243967
-0.000409184
-0.00806245
0.00626206
0.00513965
0.00436278
0.003459
0.00251638
0.00154877
0.000665864
0.00118311
0.000357644
3.08446e-05
0.000453674
2.40612e-05
0.151144
-0.170954
0.002133
0.191747
-0.216768
0.193771
-0.216451
0.243382
-0.259558
-0.0081807
-0.118363
-0.00110537
0.119922
0.000448872
-0.0984554
0.000926077
0.093207
-0.000511054
0.00308671
0.0336634
0.00107036
-0.0338181
0.262736
0.00513687
-0.185051
-0.00843915
0.206763
0.249503
0.00900065
-0.306875
7.36223e-05
-0.218818
-0.392433
0.00172234
0.307616
-0.0238773
0.129031
-0.00164013
0.089487
0.0695156
0.0367443
0.0233937
0.166869
-0.10174
-0.00656043
0.0131634
0.00695542
0.00526504
0.00444619
0.00357642
0.00250807
0.00087123
0.00103733
0.0432166
-0.030596
-0.0496975
-0.0115466
0.00938092
-0.0251968
0.0805996
-0.0359728
-0.0437475
-0.0425929
-0.0252586
0.0605887
0.0672981
0.00381706
-0.0441983
-0.00328768
0.0707484
-0.000160693
-0.0581153
-0.00175836
0.0719872
0.0863664
0.00123457
-0.0769355
-0.002926
0.0893017
-0.00484144
-0.00370593
-0.0944166
-0.00174494
-0.0732024
0.0117437
0.0118797
0.00278797
-0.032595
-0.053967
-0.0367954
-0.0267934
-0.0566689
-0.0192991
-0.00999626
0.00571215
0.00144587
0.0869935
-0.000378947
-0.0582022
-0.00190797
0.06819
0.0882097
0.000739642
-0.0765756
-0.00280914
0.10796
0.00269001
-0.0991769
-0.00387927
0.113208
0.137763
0.00421071
-0.155513
-0.00682879
-0.00535271
-0.121597
0.0131631
0.0132444
0.0126581
-0.00205585
-0.0718632
0.000769353
-0.0492879
0.00289215
-0.0110274
-0.0154572
-0.000827916
0.0102712
-0.0048784
-0.0884941
0.00501407
0.000274823
0.0145864
-0.000610881
0.131512
0.00178454
-0.0951457
-0.0039003
0.107706
0.140735
0.00423876
-0.126772
-0.00481525
0.171656
0.00639112
-0.161243
-0.00632237
0.171937
0.212952
0.00877503
-0.244096
0.00456619
-0.000852408
-0.000289896
0.000305612
0.000268041
0.000184234
0.00011456
6.47228e-05
-0.000155005
-0.000303543
0.000163645
-1.24931e-05
-0.000126731
7.43633e-05
0.000302226
0.000635172
0.000976251
0.000505056
0.000216795
4.38545e-05
4.47391e-05
-0.000131021
-2.70368e-05
0.086149
3.91346e-05
-0.0859931
0.0960837
7.42124e-05
-0.108809
0.109044
-0.095834
0.0969722
4.8311e-05
-0.110284
0.108718
-0.0961799
0.0860026
-0.000232586
-0.087518
0.0762666
-0.0758744
0.0760281
-0.0761954
0.00030229
-0.0859276
0.0877452
0.0002284
-0.0968564
9.29723e-05
-0.108623
0.110638
0.000207129
-0.123833
6.43369e-06
-0.138625
0.140946
-0.138803
0.139143
0.000121363
0.122678
-0.122318
6.41512e-05
0.124017
0.000225073
-0.140475
0.138783
-0.122324
-0.000454458
-0.124538
0.0765163
0.000147609
0.10945
-0.000610829
-0.0993217
0.0618965
0.000382434
0.087451
-0.0768785
0.068555
-0.000263948
-0.0696781
-4.26237e-05
0.0680714
2.80465e-05
-0.0679839
0.000180581
0.0697792
0.000310129
-0.0684887
0.0771142
-0.0875706
0.000714578
0.000924094
0.000758011
0.00278461
0.00183047
-0.0374999
0.0387245
-0.0381399
0.0381501
-2.59549e-06
-0.000102338
-9.77227e-05
-0.0387116
0.0375039
-0.00183286
-0.00105069
0.0197968
-0.0221302
7.19309e-05
-0.00014992
0.0641564
-0.0649364
0.0650096
-0.0641315
0.0663683
-0.0695452
-0.00176738
-0.00060256
-0.0197765
0.00106025
0.022128
-0.00092059
0.000505671
0.000451649
5.8019e-05
9.91943e-05
0.000150669
0.000193363
0.000183991
-0.156344
0.000131303
-0.176421
0.176856
-0.178425
0.176697
0.000342554
0.15868
-0.156178
-0.000310756
-0.158424
0.0971198
0.000338324
0.139308
-0.0857727
-0.00172142
-0.070742
0.0782376
-0.00317675
-0.0903519
0.100005
-0.00355784
-0.114576
0.128808
-0.00259392
-0.143163
0.16487
-0.00344807
-0.179947
-0.0135511
-0.00388482
-0.00671274
-0.00184768
-0.00481
-0.00197601
-0.00409021
-0.00186459
-0.00337842
-0.00117734
-0.00170739
0.0630047
-0.0674288
-0.00130799
-0.0545285
0.0547346
0.00364328
0.0012049
-0.00237191
0.000662999
-0.0348101
-0.000836939
0.0534831
0.00287881
-0.0801722
-0.000596732
-0.000800525
0.00429283
0.00261066
-0.00349091
-0.0373523
0.0569531
0.0184514
0.0621824
0.0228389
0.0130063
0.00280839
0.00886355
-0.054399
0.0695111
-0.0662388
0.00178049
0.000272381
-0.00301824
-0.000770214
-0.00029645
0.00215314
0.00161223
0.00184023
0.00238491
0.000672509
-0.201349
0.123481
-0.109736
0.178207
0.000298129
3.39418e-05
-0.000288859
8.66929e-06
0.000149216
0.000380815
0.000541523
0.000747733
-4.03156e-05
-0.197457
0.000396228
-0.223294
0.221942
-0.252687
0.155054
0.00121675
0.226477
-0.139803
-0.00134573
-0.00175577
0.00840564
0.00645015
0.00563076
0.00838151
0.16518
0.240723
-0.272928
0.0260581
0.0027355
0.000127565
0.0071661
-0.000571629
0.00204636
-0.154208
0.00383525
0.0148606
-0.195647
0.00782194
0.00137329
0.000721367
0.00144481
0.00278545
0.0040126
0.00194667
0.000872113
0.000460994
0.000382346
0.00034134
0.000483739
0.000641905
0.000440397
0.000368617
0.000436567
0.000344402
0.000285769
6.56882e-05
0.000259597
0.000212057
0.00155598
0.000562626
0.000495195
0.000349242
0.000243325
6.55937e-05
7.57703e-05
0.000453029
0.000717549
0.0002098
-0.0035791
0.000604119
0.000513618
0.000441898
0.000685023
0.000995572
0.00103364
0.00177674
0.000952549
0.0017866
0.000923723
0.238716
-0.270369
0.0031381
0.286407
0.00524332
0.00105426
0.00286223
0.0164563
-0.0522632
0.159859
-0.131506
0.277351
0.0403112
0.176136
-0.149685
0.126698
-0.127322
0.087975
0.0998926
-0.138436
0.0314471
-0.14806
0.0929368
0.0962249
0.183095
-0.00929069
-0.00330378
-0.0230076
-0.00145257
-0.0962796
-0.00180405
-0.000468247
0.000528485
0.000728771
0.00126115
0.000726857
0.000574691
0.000689093
0.000560006
-3.14559e-06
0.000555023
9.57434e-05
0.0034107
0.00233931
0.00171096
-0.190061
0.211668
0.00419732
-0.152089
-0.00627336
0.171269
0.216136
0.00847886
-0.198298
-0.00812183
-0.242175
0.00519009
0.0044242
-0.00020224
0.000210991
3.50931e-05
0.00295022
0.00058826
0.000311675
0.000421682
0.000345362
-7.05026e-05
0.00257301
0.0016303
0.000569075
-0.0706661
-0.00164089
0.0719997
0.00129302
0.061166
-0.050594
-0.0514279
0.0613609
-0.0397333
-0.0372533
-0.0321129
0.00297683
-0.00365618
-0.00414795
-0.0949897
0.0122892
-0.00462267
-0.0186646
0.00708299
0.0140668
-0.00565575
-0.148071
0.00893271
0.00161855
0.0239931
-0.000461003
-0.0298173
-0.00650876
0.0122075
0.0194016
0.0164945
-0.00592796
-0.123525
-0.00534182
-0.120163
0.0145286
-0.00754592
-0.158598
-0.00681504
0.141991
0.0151049
-0.00953202
-0.200805
-0.00447213
-0.242496
0.0239606
0.0102341
0.059372
0.00492134
-0.308139
0.0139464
0.0224346
0.0254185
0.0416494
0.169095
0.39779
0.20823
0.306531
-0.0237386
-0.0130363
-0.250354
0.0116667
0.00275634
0.0268128
0.205401
0.297805
-0.023308
-0.012294
-0.00870134
0.174005
-0.194819
0.0136752
0.0141309
0.00771622
-0.0037564
0.0187176
0.189145
0.300246
-0.0241216
-0.0124895
-0.00879904
-0.196382
-0.0106749
-0.00842725
-0.00679316
0.0102272
0.00825068
0.00493304
-0.00203745
0.00252275
0.0119795
0.0130503
0.0122447
-0.0132855
-0.0169245
0.0175117
0.172577
0.33582
-0.0595524
0.0639543
0.0283726
0.0272651
0.0045191
-0.00188377
-0.000907015
-0.000435147
-0.000228626
-0.000126596
2.02006e-06
0.000340585
1.98625e-05
-1.66824e-06
-0.000122468
0.000280695
0.000160391
0.000178161
-0.000228699
-0.00280161
-0.00437812
-0.00215297
0.00047206
0.000779655
-0.10969
0.0965448
0.00031236
0.000307611
0.000324715
0.000493593
0.000426658
0.000520986
0.00064794
-0.00100725
0.0192265
-0.0703793
0.00413205
0.00112372
0.000212838
0.000234729
0.000262696
6.4434e-05
-9.9297e-05
0.000287899
0.000226085
0.000214757
0.000146996
0.000204516
0.000220627
0.000666817
0.000640442
0.221354
1.97504e-05
-0.220947
0.245942
-0.000339231
-0.269979
0.269911
-0.24555
0.249633
0.000174204
-0.272446
0.272099
-0.244806
0.000615555
0.283615
-0.177007
0.000333441
-0.000630578
0.00170875
0.00313705
0.00299
-0.00477088
-0.0180359
-0.0365058
-0.0741154
0.00165428
-0.0295736
-0.0111602
-0.00338815
0.00378009
0.00343299
0.000370281
0.000607026
0.000778747
0.000442179
0.200939
-0.197778
0.198305
-0.200566
-0.00021566
-0.221105
0.223807
1.67865e-05
-0.249498
-0.000607945
-0.270952
0.272722
-0.000211407
-0.301219
0.296618
-0.341166
-0.000457293
-0.00204649
-0.000755609
0.000270731
0.000486579
0.00170091
0.00398321
0.0120085
0.0596863
-0.0285044
0.754087
-0.0194922
-0.00360239
-0.0141347
-0.143541
0.0310604
0.0829647
0.00668733
-0.00141475
-0.0757813
-0.00168632
0.00196584
0.00440936
0.00035898
0.000451137
0.00686839
0.00391411
-0.240594
0.207507
-0.00935082
-0.00590136
-0.00136769
0.0418222
-0.0105583
0.0344213
0.0558982
0.096561
0.187628
0.0428923
-0.109869
0.0441392
-0.147692
0.034996
0.0172057
-0.10506
0.00698464
-0.00186492
0.000205843
-0.000377869
0.000147882
0.0017296
-0.0010109
-0.00242581
-0.000678402
-0.00271797
-0.000682228
0.000109955
-3.30107e-05
0.000192103
-0.000120833
-4.0007e-05
-0.000597623
8.01902e-05
0.000951981
0.00198726
0.00577965
0.0821655
0.349834
0.0189713
-0.0520497
0.22409
0.00547859
-0.0385971
-0.0194538
-0.0310045
0.749035
-0.0158722
-0.00384381
0.00590475
0.00161637
0.00382894
-0.0689297
-0.00191744
-0.00190098
-0.0148847
-0.14474
-0.13039
-0.08241
-0.300626
0.0315858
0.073675
0.00342161
-0.00418551
-0.00443719
-0.00254948
-0.0840504
-0.00435901
0.040875
-0.0260827
0.043761
-0.00279021
-0.0770396
-0.00470006
-0.0022207
-4.78462e-05
0.00568486
0.024618
0.00564471
0.00636734
0.0235111
0.0228013
0.00260343
-0.00141536
-0.000358915
0.000738867
0.00223145
-0.00116858
-0.000381654
0.0155972
0.266312
0.0192843
0.00667917
-0.00135899
-0.00203038
-0.00184678
-0.00156275
-0.00149298
0.000204815
0.122824
-0.139589
0.000669769
0.00133825
9.16927e-05
0.000609592
-0.178276
0.156789
-5.19857e-05
-0.176297
0.178974
-0.158388
0.000195292
0.156807
0.000121573
0.000128301
6.97549e-05
0.000127337
0.000147394
0.000213014
0.000250342
0.000136893
-7.90173e-06
-0.000522843
0.00119336
0.299799
-0.295572
0.295327
-0.00014533
1.30025e-05
9.07769e-05
0.000151187
-0.000139316
0.198249
-0.225871
0.000515041
0.0016212
0.00154676
-0.000594202
0.000181106
-0.28144
0.246091
-0.000487216
0.00570061
0.00463708
0.00452495
0.00326313
0.0023775
-0.000796592
-0.00293829
-0.0132575
-0.00139415
0.00116716
0.00215332
4.02674e-05
0.00242673
0.00319901
0.00419732
-0.00109268
-0.000760651
0.000534761
-0.000278222
-0.00140006
-0.000333323
-0.000770127
-0.000157527
-0.00166051
0.00100757
-0.00170543
-0.00620679
-0.000556032
-0.00209827
-0.0130341
0.0102069
0.0279436
0.00149837
0.000875927
-0.293779
0.00180055
0.0143659
0.0794805
-0.00195557
-0.00251448
-0.0170429
-0.169491
-0.104639
0.0241953
-0.00304028
-0.00241567
-0.0020358
-0.0217146
-0.0037732
0.161502
0.0454305
-0.00831713
0.0330104
0.241354
0.0199588
-0.00377588
-0.00627434
-0.00725572
-0.010641
-0.246738
-0.2179
0.00142742
0.0212175
0.00953808
0.0394428
-0.0737866
0.000357207
0.00294801
-0.0110791
0.00351557
-0.154093
0.0127556
0.00900141
0.00691797
0.0052338
0.00111664
2.24935e-05
-0.114877
0.0894835
-0.0926184
0.0126726
0.181986
0.199221
0.00697696
-0.00170872
-0.00184598
-0.0126156
-0.0546475
-0.00408509
-0.0018373
-0.00153275
-0.00028766
-0.0141934
4.85902e-05
-0.253301
0.00657529
-0.234597
-0.00165698
0.017203
0.00023225
-0.0166696
0.0077667
-0.00711941
0.0602252
0.000378521
-0.043953
0.0260772
0.0854357
0.0025918
0.000245611
0.00160195
0.000457214
0.00343386
0.0510421
-0.256373
0.0015058
-0.0267005
0.00270752
0.0101636
0.0118486
0.0126191
0.0129856
0.0136617
0.0126539
0.00597606
-0.0065459
0.0184833
0.186299
0.241652
0.233472
0.157602
-0.356606
-0.338507
-0.0146922
0.315228
-0.00816263
-0.355963
0.058826
0.0124035
-0.0408387
0.0360837
0.00455201
-0.0343452
0.0279802
0.00307695
-0.0267042
0.0224319
0.0024031
-0.0210338
0.0172471
0.00137139
-0.0169704
0.0129571
7.88883e-05
-0.0144051
0.00935917
-0.00208513
-0.0150061
0.00454371
-0.0102081
-0.0248888
-0.0117521
-0.0360236
-0.0440233
-0.043328
-0.03687