/*--------------------------------*- C++ -*----------------------------------*\
| =========                 |                                                 |
| \\      /  F ield         | OpenFOAM: The Open Source CFD Toolbox           |
|  \\    /   O peration     | Version:  2306                                  |
|   \\  /    A nd           | Website:  www.openfoam.com                      |
|    \\/     M anipulation  |                                                 |
\*---------------------------------------------------------------------------*/
FoamFile
{
    version     2.0;
    format      ascii;
    arch        "LSB;label=32;scalar=64";
    class       volVectorField;
    location    "1.3";
    object      flux;
}
// * * * * * * * * * * * * * * * * * * * * * * * * * * * * * * * * * * * * * //

dimensions      [0 1 -1 1 0 0 0];

internalField   nonuniform List<vector> 
5712
(
(-0.288335 0.499759 0.317354)
(-0.368589 0.288336 1.04077)
(-0.680868 0.806902 0.25284)
(-0.997444 0.531069 1.06657)
(-1.01924 0.882598 0.188668)
(-1.75679 0.655181 1.09921)
(-0.779673 1.37795 0.29527)
(-1.98264 1.71972 1.68193)
(-0.632719 1.81554 0.362355)
(-1.38964 2.23357 2.30913)
(-0.946337 1.17768 0.361186)
(-1.44118 1.02665 1.6893)
(-0.846751 0.74731 0.349906)
(-1.11442 0.594944 1.40632)
(-0.373201 0.376363 0.363842)
(-0.427823 0.254971 1.25897)
(-0.651279 0.828518 0.220081)
(-0.747582 0.837305 0.138589)
(-0.83535 0.718323 0.589277)
(-0.828883 0.838384 0.352529)
(-0.65443 1.11877 0.214098)
(-0.805734 0.987316 0.116111)
(-0.961407 1.30206 0.638889)
(-0.861037 1.04201 0.317486)
(-0.237096 0.349539 0.243631)
(-0.180944 0.248415 0.180088)
(-0.294326 0.197573 0.779488)
(-0.200345 0.147555 0.557192)
(-0.551355 0.414967 0.184421)
(-0.446379 0.336541 0.136271)
(-0.936727 0.254284 0.766222)
(-0.684509 0.207575 0.564908)
(-0.723927 0.774439 0.433528)
(-0.75534 0.794893 0.184679)
(-0.810593 0.782135 0.376786)
(-0.784093 0.645262 0.1696)
(-0.2931 0.597707 0.176103)
(-0.224927 0.476355 0.408282)
(-1.70199 0.476283 1.47139)
(-2.27852 0.543855 0.396128)
(-1.10227 0.765977 0.528203)
(-1.35234 0.765545 0.174344)
(-2.27474 1.62289 1.88235)
(-2.95447 1.68172 0.506944)
(-1.17789 1.1381 0.489022)
(-1.34902 1.17683 0.16333)
(-1.2689 0.664549 1.05889)
(-1.79183 0.560465 0.32688)
(-1.11138 0.715246 0.544303)
(-1.47029 0.508296 0.187304)
(-0.65471 0.332734 0.927837)
(-1.05067 0.344278 0.293614)
(-0.128554 0.280038 0.289535)
(-0.0436122 0.411665 0.143579)
(-0.134777 0.147077 0.401958)
(-0.0488496 0.182882 0.158567)
(-0.387276 0.382448 0.31394)
(-0.157271 0.547257 0.16916)
(-0.52731 0.229612 0.390833)
(-0.1953 0.273882 0.152173)
(-0.380753 0.418475 0.39141)
(-0.145213 0.736212 0.224425)
(-0.397383 0.292272 0.336944)
(-0.128016 0.491463 0.148729)
(-0.673399 0.110456 0.486999)
(-0.215156 0.290289 0.176819)
(-0.867798 0.0920964 0.166386)
(-0.294031 0.215846 0.0586352)
(-1.03752 0.732936 0.556421)
(-0.520554 0.909775 0.392162)
(-0.950137 0.766115 0.338859)
(-0.562773 0.911889 0.250622)
(-0.963275 0.892366 0.600495)
(-0.624038 0.897472 0.495867)
(-0.84814 0.918609 0.32536)
(-0.632478 0.892115 0.281336)
(-0.756042 0.658728 0.329185)
(-0.450758 0.898312 0.22808)
(-0.758757 0.66848 0.475996)
(-0.39178 0.883278 0.32737)
(-0.981181 0.759122 0.219367)
(-0.622615 0.909184 0.162315)
(-0.983979 0.761467 0.10651)
(-0.627141 0.909146 0.087737)
(-0.896762 0.932179 0.205997)
(-0.666615 0.884512 0.177674)
(-0.907735 0.932228 0.100804)
(-0.668 0.878147 0.098055)
(-0.815602 0.611718 0.21554)
(-0.516613 0.904307 0.144137)
(-0.844581 0.592385 0.106411)
(-0.528344 0.90897 0.0688897)
(-0.776863 0.765718 0.299926)
(-0.34086 0.918006 0.164868)
(-0.363739 0.96661 0.230219)
(-0.44889 1.37666 0.272922)
(-0.779578 0.812229 0.419613)
(-0.374266 1.07077 0.299692)
(-0.321082 0.959077 0.340814)
(-0.4602 1.50865 0.473053)
(-0.821912 0.725567 0.194571)
(-0.337723 0.80331 0.0934372)
(-0.409423 0.969579 0.133447)
(-0.449095 1.3172 0.154303)
(-0.862705 0.718274 0.0936818)
(-0.345304 0.749872 0.0396606)
(-0.443873 0.980123 0.0555674)
(-0.467474 1.30498 0.0563377)
(-0.166302 0.248224 0.396714)
(-0.182391 0.330863 0.707662)
(-0.0565919 0.63831 0.266309)
(-0.114343 1.13924 0.786557)
(-0.483079 0.303317 0.460081)
(-0.511927 0.349974 0.690243)
(-0.190602 0.811732 0.325232)
(-0.347676 1.27858 0.818345)
(-0.619119 0.3705 0.516188)
(-0.683037 0.37599 0.620576)
(-0.309575 1.01472 0.413763)
(-0.531138 1.39977 0.790313)
(-0.490977 1.01661 0.564404)
(-0.0229865 1.06621 0.643528)
(-0.569534 0.883867 0.451048)
(-0.723537 0.876253 0.441444)
(-0.404484 1.3218 0.476395)
(-0.00853822 1.06658 0.646384)
(-0.284059 1.02639 0.628081)
(-0.522519 0.898436 0.644605)
(-0.852904 0.795122 0.675744)
(-0.627338 1.52786 0.960914)
(-0.428482 0.975282 0.526372)
(-0.528832 0.979743 0.429268)
(-0.47447 0.893059 0.388897)
(-0.420314 0.918905 0.439032)
(-0.664608 1.72098 0.670241)
(-0.156292 0.0929905 0.82552)
(-0.126138 0.112615 0.743133)
(-0.0903799 0.203583 0.953466)
(-0.0890251 0.485483 0.925961)
(-0.436703 0.130603 0.756131)
(-0.359163 0.150553 0.705645)
(-0.270859 0.275041 0.938181)
(-0.255849 0.532285 0.903763)
(-0.540309 0.190703 0.652912)
(-0.441561 0.16234 0.642093)
(-0.35344 0.36675 0.875232)
(-0.314055 0.594475 0.867138)
(-0.225592 1.04035 0.477244)
(-0.292956 1.00095 0.381515)
(-0.475097 0.953438 0.473349)
(-0.49834 0.911193 0.422976)
(-0.590678 0.843083 0.530895)
(-0.535045 0.746373 0.491121)
(-0.669068 0.64932 0.583743)
(-0.573352 0.562424 0.574289)
(-0.476486 0.474677 0.796184)
(-0.401668 0.682096 0.830444)
(-0.373509 0.954964 0.443478)
(-0.378768 0.900459 0.395225)
(-0.49712 0.979649 0.446242)
(-0.370713 0.943242 0.450085)
(-0.460445 0.870564 0.475797)
(-0.314929 0.799973 0.527199)
(-0.406223 0.739753 0.542399)
(-0.26329 0.65482 0.631126)
(-0.48972 0.502118 0.703107)
(-0.313639 0.678432 0.837922)
(-0.420832 0.981107 0.372763)
(-0.170461 1.09816 0.294117)
(-0.367216 0.981733 0.251436)
(-0.383458 1.13056 0.314949)
(-0.515009 0.933496 0.482719)
(-0.654853 0.956846 0.577445)
(-0.568928 0.915285 0.330385)
(-0.816251 0.970364 0.5158)
(-0.296459 0.909824 0.221034)
(-0.315375 0.922546 0.284436)
(-0.375986 0.90135 0.334963)
(-0.0901982 0.893562 0.278866)
(-0.329517 0.975616 0.063662)
(-0.621494 1.13748 0.206556)
(-0.313631 0.972908 0.0284774)
(-0.670766 1.13844 0.071419)
(-0.564455 0.89083 0.16631)
(-1.01088 0.985822 0.342149)
(-0.574539 0.885175 0.0570978)
(-1.07781 0.98551 0.115119)
(-0.254586 0.913477 0.0364393)
(-0.542265 0.920483 0.180531)
(-0.233424 0.914435 0.0160046)
(-0.582296 0.920923 0.0612611)
(-0.35518 0.778745 0.221398)
(-0.255248 0.739206 0.223756)
(-0.502486 0.506511 0.252651)
(-0.188611 0.569149 0.162482)
(-0.356353 0.774771 0.354731)
(-0.0400322 0.721648 0.288773)
(-0.433177 0.500165 0.417239)
(-0.00369067 0.577093 0.296256)
(-0.344551 0.788555 0.0576734)
(-0.394139 0.735777 0.122105)
(-0.52792 0.516935 0.125809)
(-0.238838 0.568841 0.0750372)
(-0.287663 0.791859 0.0664882)
(-0.468618 0.728153 0.0852755)
(-0.469857 0.532882 0.0934762)
(-0.316131 0.568236 0.0709485)
(-0.0967647 0.0726082 0.598826)
(-0.0830207 0.0461449 0.367022)
(-0.0705767 0.0305311 0.117144)
(-0.0701677 0.0403545 0.674595)
(-0.0627373 0.0255728 0.391313)
(-0.0539931 0.0234825 0.128827)
(-0.282654 0.102139 0.575191)
(-0.220132 0.0558686 0.363308)
(-0.18204 0.0402126 0.12408)
(-0.18686 0.0779619 0.661994)
(-0.141793 0.0595546 0.391384)
(-0.11742 0.0490477 0.128785)
(-0.334688 0.113717 0.528738)
(-0.275132 0.0861691 0.334373)
(-0.248038 0.0828944 0.110745)
(-0.222907 0.135453 0.643051)
(-0.170792 0.105032 0.391828)
(-0.156513 0.0914283 0.131443)
(-0.247591 0.918822 0.261195)
(-0.206167 0.790754 0.149946)
(-0.196437 0.706994 0.0434408)
(-0.425642 0.858621 0.34999)
(-0.301555 0.76113 0.233186)
(-0.244457 0.690695 0.0804791)
(-0.415713 0.624237 0.428394)
(-0.286116 0.553254 0.295395)
(-0.220892 0.513628 0.101966)
(-0.433173 0.437481 0.502433)
(-0.321878 0.357541 0.328755)
(-0.270623 0.322457 0.109802)
(-0.290038 0.208036 0.634503)
(-0.178718 0.14315 0.400527)
(-0.132892 0.116718 0.139792)
(-0.610992 0.839726 0.302986)
(-0.499663 0.738917 0.179213)
(-0.41323 0.662718 0.0598455)
(-0.405942 0.879258 0.339633)
(-0.318453 0.760726 0.246765)
(-0.248539 0.676508 0.0938682)
(-0.375523 0.664615 0.412629)
(-0.272869 0.538174 0.304727)
(-0.202249 0.468386 0.113025)
(-0.327618 0.442255 0.511971)
(-0.220942 0.330837 0.361161)
(-0.156224 0.28475 0.130342)
(-0.357103 0.220124 0.643285)
(-0.189231 0.141435 0.407675)
(-0.0976919 0.108824 0.145887)
(-0.434354 1.12139 0.0114558)
(-0.58377 1.08739 0.0818054)
(-0.347422 1.23018 0.114749)
(-0.443993 1.09406 0.166497)
(-0.478503 1.26836 0.092753)
(-0.696811 1.09469 0.10535)
(-0.430854 1.54369 0.231374)
(-0.619471 1.16169 0.218502)
(-0.00051747 0.858686 0.023994)
(-0.0281781 0.859947 0.0397597)
(0.0208035 0.851063 0.0256012)
(-0.00477703 0.781482 0.0413721)
(-0.120138 0.964923 0.0186791)
(-0.132795 0.897309 0.054904)
(-0.0518526 0.95242 0.033811)
(-0.0284023 0.805333 0.0720698)
(-0.0316314 0.942831 0.125651)
(-0.0991803 0.928729 0.0617446)
(-0.386208 0.866438 0.160782)
(-0.558456 0.918786 0.0936858)
(-0.26685 1.1369 0.08403)
(-0.152775 1.03051 0.145664)
(-0.416321 1.1588 0.135654)
(-0.413471 1.1806 0.0271686)
(-0.651491 1.26903 0.254673)
(-0.717954 1.31721 0.0542938)
(0.0232724 0.959528 -0.0901871)
(0.171447 0.999431 0.0135329)
(-0.313034 0.858774 0.0639897)
(-0.293624 0.835654 0.0412821)
(-0.296355 1.03661 0.0394662)
(-0.227813 1.06647 0.0299916)
(-0.0407897 0.659677 0.377551)
(-0.0212953 0.356796 0.163699)
(-0.0283395 0.620557 0.102407)
(-0.0125575 0.394659 0.0605415)
(-0.0790255 0.67079 0.383641)
(-0.00589937 0.36003 0.169541)
(0.0116657 0.620353 0.129475)
(0.0320606 0.392372 0.0766698)
(-0.371339 0.662621 0.379059)
(-0.0906263 0.361578 0.181558)
(-0.256224 0.620105 0.185411)
(-0.0651751 0.408935 0.123403)
(-0.36974 0.605346 0.130331)
(-0.110941 0.427829 0.0892341)
(-0.446104 0.613847 0.0544168)
(-0.139724 0.423956 0.0520511)
(-0.370185 0.859533 0.516211)
(-0.485347 0.724813 0.455631)
(-0.339953 0.861943 0.240071)
(-0.471671 0.728361 0.247632)
(-0.603383 0.95634 0.572391)
(-0.627288 0.855775 0.53451)
(-0.573246 0.974294 0.28007)
(-0.591379 0.852601 0.280703)
(-0.228254 0.838188 0.205752)
(-0.369338 0.600973 0.210305)
(-0.264949 0.867013 0.430825)
(-0.368007 0.589336 0.355419)
(-0.359336 0.886227 0.138767)
(-0.453193 0.727644 0.14595)
(-0.394797 0.899979 0.0711129)
(-0.456117 0.720293 0.0843628)
(-0.596401 1.00535 0.168585)
(-0.579279 0.848965 0.167416)
(-0.623367 1.00898 0.0863508)
(-0.580013 0.839508 0.0944912)
(-0.229451 0.834603 0.115476)
(-0.356206 0.604817 0.1262)
(-0.24828 0.834227 0.0581759)
(-0.361017 0.601476 0.0773705)
(0.0131199 0.544112 0.176819)
(-0.0409557 0.362675 0.11566)
(-0.277321 0.471734 0.1741)
(-0.157066 0.308098 0.114444)
(0.0335686 0.503046 0.280099)
(-0.0254023 0.324522 0.153169)
(-0.256981 0.450859 0.262444)
(-0.138037 0.287931 0.159728)
(-0.00474799 0.559924 0.101749)
(-0.0515788 0.385364 0.0816643)
(-0.282621 0.480681 0.107938)
(-0.171455 0.317568 0.0722436)
(-0.0211605 0.561675 0.0505417)
(-0.061148 0.398609 0.0474458)
(-0.282337 0.479686 0.066117)
(-0.176189 0.319769 0.0406261)
(0.0278713 0.103604 0.438706)
(0.0317253 0.0542871 0.285828)
(-0.00564818 0.192243 0.20872)
(0.00112665 0.108255 0.199708)
(0.11612 0.110095 0.437843)
(0.11553 0.0657062 0.296354)
(0.0111792 0.204339 0.209335)
(0.0192494 0.127534 0.198978)
(0.0276942 0.134512 0.458867)
(0.0797624 0.0977797 0.316129)
(-0.0562738 0.225374 0.212357)
(-0.0285844 0.163543 0.195117)
(0.406256 0.515527 0.566761)
(0.395366 0.809349 0.631378)
(0.218429 0.370677 0.501102)
(0.16957 0.355407 0.322941)
(0.0247521 0.258656 0.169453)
(0.430089 0.786073 0.5989)
(0.426853 0.53925 0.533676)
(0.166263 0.313031 0.477326)
(0.24554 0.314939 0.37822)
(0.0411191 0.213452 0.223539)
(-0.428576 0.826586 0.559533)
(-0.328211 0.642458 0.489201)
(-0.278428 0.505706 0.377916)
(-0.248501 0.391838 0.278613)
(-0.135774 0.252632 0.159863)
(0.030202 0.0291778 0.224684)
(0.0261787 0.0208213 0.186668)
(0.00323158 0.0660949 0.199614)
(0.000704441 0.0499071 0.213813)
(0.0963357 0.0398656 0.237932)
(0.0881592 0.0263383 0.188802)
(0.0106239 0.0883557 0.20438)
(0.00382442 0.0699649 0.214227)
(0.0978501 0.067522 0.258925)
(0.110171 0.0489853 0.198463)
(-0.0151187 0.123453 0.211011)
(-0.0218611 0.0994714 0.216825)
(0.202749 0.786955 0.451645)
(0.082172 0.740201 0.322028)
(0.312903 0.523488 0.402828)
(0.183751 0.484281 0.278599)
(0.136309 0.334823 0.302712)
(0.0963664 0.322842 0.238811)
(0.154905 0.280928 0.26848)
(0.126836 0.244493 0.220681)
(-0.00304984 0.181774 0.19898)
(-0.0318125 0.146498 0.219374)
(-0.157211 0.744936 0.376251)
(-0.0981748 0.658854 0.328365)
(-0.0460396 0.567656 0.31919)
(0.0335902 0.480441 0.276252)
(-0.0371668 0.43551 0.259931)
(0.027695 0.369324 0.230741)
(-0.0542269 0.329502 0.215424)
(-0.00528083 0.281693 0.206017)
(-0.0575151 0.221059 0.154991)
(-0.0628899 0.20624 0.208054)
(-0.206039 0.589067 0.284702)
(-0.184174 0.458109 0.193768)
(-0.390712 0.596788 0.187663)
(-0.233461 0.452163 0.115436)
(-0.329567 0.720628 0.385305)
(-0.323436 0.583102 0.29787)
(-0.498545 0.72431 0.265062)
(-0.399017 0.582011 0.216353)
(-0.294612 0.490926 0.146485)
(-0.168468 0.380389 0.0883634)
(-0.144755 0.473455 0.214007)
(-0.139684 0.377691 0.155916)
(-0.460667 0.599598 0.185389)
(-0.201554 0.448117 0.0886195)
(-0.50583 0.596619 0.0636286)
(-0.225678 0.448083 0.0360505)
(-0.555827 0.724379 0.202694)
(-0.407603 0.596968 0.148239)
(-0.592579 0.718636 0.0662992)
(-0.438226 0.596468 0.0553595)
(-0.358966 0.501561 0.154767)
(-0.136198 0.37676 0.06829)
(-0.401523 0.50092 0.0573274)
(-0.15796 0.381757 0.0292467)
(-0.215081 0.378857 0.113177)
(-0.160624 0.304285 0.100021)
(-0.144889 0.259064 0.0901125)
(-0.211134 0.256197 0.127717)
(-0.13473 0.3632 0.158861)
(-0.145964 0.294904 0.1436)
(-0.121951 0.247203 0.114677)
(-0.195215 0.241078 0.162015)
(-0.249896 0.39571 0.116047)
(-0.156714 0.311386 0.0713568)
(-0.164234 0.265935 0.0662464)
(-0.242875 0.270728 0.0875873)
(-0.30717 0.404688 0.0317165)
(-0.169923 0.311355 0.0142439)
(-0.213158 0.275993 0.00199899)
(-0.249893 0.274526 0.0132563)
(0.0242076 0.0533784 0.125578)
(0.0242206 0.04582 0.0527174)
(0.0265383 0.037353 0.0155987)
(0.00193527 0.226722 0.138879)
(0.00857966 0.119564 0.0369168)
(0.00932175 0.0964401 0.00990813)
(0.0878149 0.0523371 0.13093)
(0.0879769 0.0503558 0.0584929)
(0.085761 0.0439927 0.0180058)
(0.00946434 0.249191 0.140924)
(0.0245585 0.143002 0.0391569)
(0.0239815 0.119457 0.0110356)
(0.113801 0.0733619 0.129837)
(0.118913 0.0799434 0.0616189)
(0.118264 0.0804255 0.0163361)
(-0.0131087 0.280851 0.142386)
(0.0243232 0.181672 0.0411291)
(0.031476 0.159025 0.00992412)
(0.0386176 0.66634 0.204581)
(0.0320347 0.593916 0.108937)
(0.0200368 0.546954 0.0272387)
(0.122784 0.44138 0.1706)
(0.121763 0.40676 0.0853679)
(0.110825 0.38689 0.0218101)
(0.098169 0.311791 0.153633)
(0.106435 0.292513 0.0751524)
(0.102599 0.284295 0.0210292)
(0.122271 0.257188 0.140348)
(0.123949 0.237496 0.0663447)
(0.117743 0.225828 0.0151231)
(-0.0352239 0.325965 0.145259)
(0.0111744 0.227359 0.0416184)
(0.0142526 0.201168 0.0068638)
(-0.142681 0.574154 0.251099)
(-0.081937 0.500724 0.131458)
(-0.0453573 0.454455 0.0378233)
(0.0252514 0.412207 0.210576)
(0.0607108 0.361492 0.106441)
(0.0791528 0.333705 0.030319)
(0.0270236 0.330155 0.178548)
(0.0697204 0.288879 0.0889849)
(0.087601 0.267113 0.0262726)
(0.0134378 0.304727 0.156368)
(0.0577528 0.257152 0.0684717)
(0.0698678 0.231077 0.0175957)
(-0.0648778 0.400801 0.158284)
(0.0147629 0.257753 0.0397474)
(0.0237982 0.22532 0.00997212)
(0.00103839 0.195399 0.0606356)
(0.00105132 0.116823 0.0209648)
(0.0010972 0.0741335 0.00485414)
(0.00158904 0.0505466 -0.00351694)
(0.00899504 0.218797 0.025294)
(0.00449096 0.126343 0.00913356)
(0.00337067 0.0780198 0.00263686)
(0.00285836 0.0519371 -0.000506621)
(0.000627148 0.196559 0.0638948)
(0.00194169 0.116902 0.0227154)
(0.00455058 0.0743634 0.00630416)
(0.00627513 0.0508513 -0.00176649)
(0.0144513 0.223485 0.0318089)
(0.00799982 0.129013 0.0123274)
(0.00855106 0.0799172 0.00580186)
(0.00799595 0.0530264 0.002564)
(-0.00702608 0.196542 0.0679957)
(0.000267584 0.116123 0.0248691)
(0.00662923 0.0754335 0.00897609)
(0.0115151 0.0516024 0.001168)
(0.00489968 0.228231 0.0530328)
(0.00590302 0.13086 0.0226369)
(0.00703174 0.0826927 0.00762737)
(0.00723467 0.054429 0.00138008)
(0.000404938 0.245089 0.0385076)
(0.00329093 0.138113 0.0194907)
(0.00283578 0.0832975 0.00481973)
(0.00256899 0.0548273 -0.00134235)
(-0.00767751 0.251818 0.0333081)
(-0.000856001 0.143068 0.0197238)
(0.00278315 0.0851875 0.00954544)
(0.00442398 0.0561693 0.00479022)
(-0.0312758 0.209109 0.0546269)
(-0.00710077 0.12355 0.0225093)
(0.000731529 0.0788815 0.00603584)
(0.00564449 0.0528139 -0.00414485)
(-0.0474495 0.174852 0.0457335)
(-0.0114156 0.110163 0.0185485)
(-0.00223129 0.0731277 0.00756157)
(0.0104658 0.0504789 -0.00363485)
(-0.0209608 0.184987 0.0655354)
(-0.00326345 0.112708 0.0241561)
(0.00354599 0.0742853 0.00788784)
(0.00964714 0.0501139 -0.00197983)
(-0.038642 0.162118 0.0582443)
(-0.00867749 0.104271 0.0214611)
(-0.0026698 0.0704365 0.00841607)
(0.00883947 0.0487761 -0.00580368)
(-0.0335995 0.225302 0.0422525)
(-0.00830556 0.13171 0.0197829)
(0.00186806 0.0818782 0.00665811)
(0.00792808 0.0544254 -0.00156401)
(-0.0533624 0.18252 0.0339825)
(-0.013514 0.114446 0.0155435)
(-0.00243898 0.0747756 0.00751292)
(0.0125011 0.0517376 6.72371e-05)
(-0.0372586 0.234296 0.0291843)
(-0.0104481 0.137217 0.0161255)
(0.0019069 0.0841438 0.00822944)
(0.00981531 0.0559182 0.00434892)
(-0.0574248 0.185941 0.0220561)
(-0.0153003 0.117502 0.0121996)
(-0.00307162 0.0763188 0.00725426)
(0.0130245 0.0528167 0.00369729)
(0.000561852 0.149779 0.0760252)
(0.000639413 0.101259 0.025305)
(0.00101183 0.0682149 0.00541978)
(0.00207277 0.0481836 -0.00733399)
(0.0016825 0.102514 0.0731147)
(0.00101008 0.0830482 0.0231206)
(0.000505586 0.0610419 0.00767637)
(0.00186155 0.0452687 -0.00974777)
(0.00319751 0.150509 0.0758038)
(0.00231153 0.10101 0.0255184)
(0.00344457 0.0682851 0.00585535)
(0.00580539 0.0481748 -0.00703251)
(0.0066391 0.106789 0.0709084)
(0.00345319 0.0842416 0.0224489)
(0.00178949 0.0614624 0.00780483)
(0.00510768 0.0455358 -0.00951527)
(-0.0122335 0.154501 0.0741387)
(-0.00197753 0.101335 0.0253675)
(0.0031869 0.0691678 0.00807559)
(0.0095995 0.0488097 -0.00443273)
(-0.00442266 0.119264 0.0664331)
(0.000780472 0.0879331 0.0211685)
(0.0019499 0.0629629 0.00901211)
(0.00892182 0.0466055 -0.00741349)
(-0.000937544 0.153709 0.0648017)
(0.00346194 0.0995675 0.0231461)
(0.00546976 0.0685148 0.0101717)
(0.00992552 0.0499605 0.000942633)
(0.0010888 0.130247 0.072798)
(0.00298194 0.0906867 0.0234891)
(0.0015289 0.0650648 0.0120652)
(0.00896279 0.046852 -0.00849906)
(-0.0326073 0.145193 0.056964)
(-0.0066263 0.0974009 0.0203198)
(-0.00144868 0.0674197 0.00977979)
(0.0123253 0.048103 -0.001628)
(0.0031172 0.0577331 0.0560722)
(0.00144826 0.0686442 0.0160999)
(0.000837411 0.0495912 0.00655074)
(0.00150991 0.015111 -0.00614707)
(0.00548056 0.0109323 0.021894)
(0.00212662 0.0608723 0.0058134)
(0.000984475 0.0452061 0.00176607)
(0.000755843 0.015437 -0.00104821)
(0.00665013 0.0660853 0.0585176)
(0.00344498 0.0714592 0.0172106)
(0.00164111 0.0507759 0.00703148)
(0.00376313 0.0159102 -0.00582193)
(0.0141397 0.0205569 0.0230692)
(0.00566966 0.063942 0.00630025)
(0.00240852 0.0462013 0.00213041)
(0.00190735 0.0157709 -0.000707959)
(0.00481095 0.0820528 0.0604891)
(0.00381522 0.0765056 0.0184441)
(0.00212777 0.0524251 0.00821611)
(0.00610446 0.015884 -0.00493245)
(0.0183401 0.0373409 0.0239406)
(0.00798452 0.0692071 0.00685857)
(0.00360114 0.0475997 0.00256212)
(0.00296521 0.0159581 -0.000323385)
(-0.00108805 0.102113 0.054948)
(0.00342418 0.0826787 0.0173088)
(0.00261229 0.0551784 0.00913016)
(0.00852039 0.0172197 -0.00363528)
(0.0153981 0.0561025 0.0235825)
(0.00861729 0.0752341 0.0070704)
(0.00418161 0.0497295 0.00335365)
(0.0036853 0.0166543 0.000357697)
(-0.0156055 0.116426 0.0504642)
(0.000310591 0.0885571 0.0169887)
(0.000183126 0.0586374 0.00935566)
(0.00770573 0.0198328 -0.00172082)
(0.00623416 0.0633782 0.0214431)
(0.00733828 0.0801146 0.00737237)
(0.00355344 0.0517483 0.00431993)
(0.00360938 0.0172741 0.00122547)
(-0.0375877 0.125256 0.033984)
(-0.00451258 0.0953504 0.0127767)
(-0.000826577 0.060133 0.00574041)
(0.00864554 0.0190719 -0.000651051)
(-0.0114077 0.0575761 0.0196819)
(0.00140056 0.086012 0.00887649)
(0.00173988 0.0555904 0.00474958)
(0.00302793 0.018393 0.00223326)
(-0.0282002 0.121759 0.0400127)
(-0.00154051 0.0923723 0.0135791)
(-0.000383557 0.0590538 0.00669451)
(0.00800379 0.0190364 -0.00142845)
(-0.00550383 0.0549477 0.0203481)
(0.00406853 0.083312 0.00811514)
(0.00273854 0.0536328 0.00460255)
(0.00346097 0.0177395 0.00177812)
(-0.0459087 0.126847 0.026542)
(-0.00781602 0.0974209 0.0116384)
(-0.00178066 0.0606605 0.00560097)
(0.00939882 0.0179198 0.000690176)
(-0.0163823 0.0568572 0.0168466)
(-0.00101318 0.0882324 0.00873654)
(0.000919108 0.0567452 0.00471443)
(0.00276571 0.0185006 0.00265462)
(-0.0519166 0.129454 0.0176735)
(-0.0108442 0.0994735 0.00978253)
(-0.00297043 0.0620668 0.00584075)
(0.00919249 0.0182354 0.00312327)
(-0.0206145 0.0607425 0.0130952)
(-0.00336505 0.0904126 0.00806761)
(-7.81629e-05 0.0581292 0.00488954)
(0.00234226 0.0189103 0.00326366)
(0.000689485 0.0377368 -0.000295009)
(0.000270215 0.0252312 0.000111775)
(0.000118866 0.0154761 0.000101199)
(5.8534e-05 0.00823497 6.02792e-05)
(3.62445e-05 0.00256913 3.95792e-05)
(0.000904086 0.0374268 -3.12917e-05)
(0.000403608 0.0251937 7.71566e-05)
(0.000190033 0.0154913 5.66124e-05)
(9.63616e-05 0.00824768 3.26205e-05)
(6.0357e-05 0.00257325 2.12448e-05)
(0.00164634 0.0382308 0.000205387)
(0.000623118 0.0254716 0.000338398)
(0.000271983 0.0155812 0.000209877)
(0.0001339 0.00827943 0.000116113)
(8.2972e-05 0.00258146 7.48186e-05)
(0.00200598 0.0381118 0.000512741)
(0.000889891 0.0255002 0.000335445)
(0.000419547 0.0156301 0.000183283)
(0.000213422 0.00830775 9.82313e-05)
(0.000133974 0.00259007 6.27539e-05)
(0.00218154 0.0392614 0.000709279)
(0.000777236 0.0258087 0.000599284)
(0.000334198 0.0157157 0.000340414)
(0.000164064 0.00833506 0.000184365)
(0.000101644 0.00259684 0.000118158)
(0.00265444 0.0390115 0.00192377)
(0.00116568 0.0258538 0.00111747)
(0.00054964 0.0157903 0.000586347)
(0.000280163 0.0083775 0.000310876)
(0.00017611 0.0026097 0.00019818)
(0.00135547 0.0394823 0.00220317)
(0.00058699 0.0262426 0.00128377)
(0.000276132 0.0159972 0.000677513)
(0.000141117 0.00847325 0.000361109)
(8.89396e-05 0.00263719 0.000230993)
(0.00098971 0.0403782 0.0032048)
(0.000352308 0.026784 0.00168802)
(0.000150169 0.016284 0.00086531)
(7.39288e-05 0.00860702 0.000458094)
(4.60439e-05 0.0026758 0.000292949)
(0.00212291 0.0402808 0.00113658)
(0.000778578 0.0262076 0.00086297)
(0.000341245 0.0159053 0.000478198)
(0.000169373 0.0084195 0.000257954)
(0.000105474 0.00262078 0.00016553)
(0.00102071 0.0428307 0.00123766)
(0.000324027 0.0266733 0.000815244)
(0.000133876 0.0160321 0.000439555)
(6.50865e-05 0.00846314 0.000235812)
(4.02387e-05 0.00263213 0.000151147)
(0.00225932 0.0404677 0.000808746)
(0.000897777 0.0261005 0.000692856)
(0.000411409 0.0158154 0.000387212)
(0.000207565 0.00837356 0.000208645)
(0.000129936 0.00260725 0.000133591)
(0.000973775 0.042767 0.00154633)
(0.000323134 0.0265016 0.000870395)
(0.000137547 0.0159325 0.000446317)
(6.7505e-05 0.00841634 0.000235205)
(4.18529e-05 0.00261861 0.000149606)
(0.00164426 0.0406125 0.00145275)
(0.000515272 0.0265469 0.00101264)
(0.000208757 0.0160898 0.000556402)
(0.000100671 0.00850551 0.00030033)
(6.21498e-05 0.00264555 0.000192978)
(0.000966943 0.0436184 0.00166153)
(0.000287009 0.0270014 0.000966986)
(0.000115639 0.0161987 0.000510397)
(5.59336e-05 0.00854022 0.000272639)
(3.46012e-05 0.00265433 0.000174766)
(0.00147539 0.0415693 0.00253631)
(0.000350328 0.0270749 0.00135411)
(0.000114408 0.0163592 0.000696609)
(4.95767e-05 0.00862989 0.000369357)
(2.941e-05 0.00268137 0.000236397)
(0.000817807 0.0446299 0.00212376)
(0.000168529 0.0274728 0.00111711)
(5.06029e-05 0.0164312 0.000573754)
(2.11178e-05 0.00864712 0.000304372)
(1.23606e-05 0.00268512 0.000194933)
(0.00058453 0.0386569 -0.000586345)
(0.000209632 0.0253478 5.07077e-05)
(8.935e-05 0.0154728 7.40263e-05)
(4.34239e-05 0.00822463 4.60277e-05)
(2.67386e-05 0.00256547 3.04849e-05)
(0.00043106 0.040459 -0.000327223)
(0.000167302 0.0254859 1.31211e-05)
(7.43824e-05 0.0154752 2.78856e-05)
(3.672e-05 0.00821869 1.75504e-05)
(2.27185e-05 0.00256328 1.16306e-05)
(0.00143614 0.0391324 -0.000257624)
(0.000520477 0.0255391 0.0001944)
(0.000226277 0.0155523 0.000141259)
(0.000111253 0.00825748 8.01636e-05)
(6.88795e-05 0.00257451 5.19135e-05)
(0.00111719 0.0408472 -0.000207807)
(0.000436318 0.0256323 6.53197e-05)
(0.000196744 0.0155365 5.20384e-05)
(9.79352e-05 0.00824409 2.97271e-05)
(6.08552e-05 0.00257027 1.92415e-05)
(0.00200565 0.0401207 0.000140772)
(0.000644604 0.025858 0.000352848)
(0.000269336 0.0156762 0.000213084)
(0.000130818 0.00830842 0.000116505)
(8.07327e-05 0.00258854 7.47281e-05)
(0.00151026 0.0417031 0.000253238)
(0.000595014 0.0258994 0.000239665)
(0.000271887 0.0156448 0.000130537)
(0.000136352 0.0082893 6.91282e-05)
(8.50695e-05 0.00258276 4.38807e-05)
(0.00177235 0.0416244 0.00104254)
(0.00069991 0.0262132 0.000696641)
(0.000322933 0.0157999 0.000366905)
(0.000162914 0.00835791 0.000193316)
(0.000101865 0.0026021 0.000122524)
(0.00102387 0.0427241 0.000720826)
(0.000445429 0.0261845 0.000450782)
(0.000210522 0.0157664 0.000231005)
(0.000106882 0.00834115 0.00012066)
(6.69886e-05 0.0025972 7.62187e-05)
(0.00090149 0.0430217 0.00195162)
(0.000376471 0.0263947 0.000942108)
(0.000177344 0.0158689 0.000462906)
(8.99905e-05 0.00838666 0.000239446)
(5.63724e-05 0.00261005 0.000151133)
(-0.00869073 0.482652 0.0863579)
(-0.0155919 0.749913 0.196354)
(-0.016275 0.500221 0.0892222)
(-0.0370468 0.756729 0.195541)
(-0.00913443 0.524343 0.0997796)
(-0.0441311 0.762802 0.195275)
(0.0186664 0.535459 0.118114)
(-0.0297395 0.760387 0.202584)
(0.047273 0.503124 0.121455)
(0.0143637 0.717968 0.206658)
(-0.0203335 0.452117 0.051438)
(-0.0438526 0.511869 0.0744415)
(0.0318158 0.4573 0.0815528)
(0.0276196 0.545305 0.124167)
(-0.0448321 0.452149 0.0283652)
(-0.0756189 0.503101 0.0375147)
(-0.0612403 0.45903 0.0100583)
(-0.0894511 0.507388 0.0125523)
(-0.0303992 0.431614 0.44087)
(-0.00717651 0.0742302 0.105893)
(-0.00163536 0.0159505 0.0244297)
(-0.000365156 0.00359909 0.00549759)
(-9.26989e-05 0.000640471 0.00137841)
(-0.00852653 0.481283 0.120882)
(-0.00435689 0.137478 0.0326795)
(-0.000597198 0.0335394 0.00873172)
(-0.000165263 0.00765166 0.00199907)
(-7.57447e-05 0.00136091 0.000439134)
(-0.0932806 0.432554 0.433505)
(-0.0218989 0.073145 0.103355)
(-0.00500725 0.0156197 0.0238352)
(-0.00111252 0.0035136 0.00532177)
(-0.000282836 0.000623846 0.00134468)
(-0.0197886 0.481318 0.123219)
(-0.00568882 0.135961 0.0364043)
(-0.00143797 0.033076 0.00901859)
(-0.000308152 0.00751536 0.00211061)
(-8.59089e-05 0.00132588 0.000528742)
(-0.15572 0.430313 0.409997)
(-0.0366225 0.0718948 0.0971898)
(-0.00839851 0.0152477 0.0223525)
(-0.00187288 0.00341924 0.00498852)
(-0.000475272 0.00060628 0.00126292)
(-0.0321862 0.477739 0.119598)
(-0.00984526 0.133799 0.0351361)
(-0.00246211 0.0324234 0.00867808)
(-0.000585798 0.0073482 0.00202054)
(-0.00015041 0.00129543 0.000508061)
(-0.206723 0.418749 0.370622)
(-0.0487578 0.0685656 0.0872026)
(-0.0112327 0.0144349 0.0200195)
(-0.002514 0.00323316 0.00446871)
(-0.000639133 0.000573431 0.00113278)
(-0.0374282 0.46437 0.115605)
(-0.0124166 0.129076 0.0332432)
(-0.00320278 0.0312099 0.0081079)
(-0.000769311 0.00706967 0.00187182)
(-0.000196755 0.00124607 0.000468405)
(-0.254869 0.389374 0.305625)
(-0.0607175 0.0621683 0.071636)
(-0.0140931 0.0130765 0.0164734)
(-0.00317223 0.00294163 0.00368599)
(-0.000810463 0.000523397 0.000936511)
(-0.0415416 0.432448 0.108106)
(-0.0151973 0.120554 0.0302771)
(-0.00402803 0.0292757 0.00731091)
(-0.000978386 0.00665695 0.00167853)
(-0.000253006 0.00117591 0.000419135)
(-0.294894 0.335164 0.140753)
(-0.0724001 0.0556761 0.0345434)
(-0.0170533 0.0121101 0.0080947)
(-0.0038763 0.00277345 0.00182795)
(-0.000996461 0.000497958 0.000466172)
(-0.069524 0.343507 0.0525062)
(-0.0218065 0.100809 0.0149385)
(-0.00548082 0.0251892 0.00358437)
(-0.00128017 0.00583461 0.000809816)
(-0.000326416 0.00104217 0.000201939)
(-0.277312 0.351985 0.212287)
(-0.0678964 0.0575335 0.0513484)
(-0.0159186 0.0123629 0.0119306)
(-0.00360137 0.002812 0.00267874)
(-0.000922159 0.000502973 0.000681378)
(-0.0516233 0.37039 0.0773027)
(-0.0181062 0.108468 0.0217034)
(-0.00472372 0.0268434 0.00524495)
(-0.00112963 0.00616306 0.00120381)
(-0.000288849 0.00109421 0.00030269)
(-0.30215 0.32786 0.0819523)
(-0.0742348 0.0549814 0.0202724)
(-0.0175183 0.0120131 0.00477491)
(-0.00398947 0.00275818 0.00108416)
(-0.00102763 0.000495811 0.000277224)
(-0.0802735 0.333118 0.0295041)
(-0.0241768 0.0971009 0.00871661)
(-0.0059703 0.0242831 0.00208383)
(-0.00137281 0.0056443 0.000471019)
(-0.000348819 0.00101142 0.000118567)
(-0.31388 0.325438 0.0282108)
(-0.0764295 0.0543438 0.0069449)
(-0.0180586 0.0118619 0.0016411)
(-0.00411099 0.00272435 0.000374172)
(-0.00105854 0.00048933 9.58005e-05)
(-0.0839493 0.331904 0.0116416)
(-0.0252984 0.0959959 0.00316854)
(-0.00629487 0.0239383 0.000710504)
(-0.00134558 0.00557668 0.000197504)
(-0.00036124 0.000997794 3.97792e-05)
(-0.0226583 1.41523 -0.010807)
(-0.299961 2.02772 0.00999272)
(-0.273899 1.9768 0.190971)
(-0.0973028 1.36911 -0.0433319)
(0.0691327 0.795129 0.0313177)
(0.117098 0.838976 0.0335588)
(0.325058 1.17452 0.0978168)
(0.476379 1.23232 0.125561)
(0.0706061 0.927462 0.0794832)
(0.348324 1.04497 0.149359)
(-0.0783618 1.48423 0.127441)
(0.0998612 2.03896 0.196622)
(0.100336 1.88115 0.155396)
(0.204694 2.50514 0.1927)
(0.392496 1.22378 0.0801703)
(0.558058 1.4008 0.107787)
(0.593567 0.95528 0.0845915)
(0.747268 1.02445 0.100402)
(0.242545 0.516598 0.0439087)