/*--------------------------------*- C++ -*----------------------------------*\
| =========                 |                                                 |
| \\      /  F ield         | OpenFOAM: The Open Source CFD Toolbox           |
|  \\    /   O peration     | Version:  2306                                  |
|   \\  /    A nd           | Website:  www.openfoam.com                      |
|    \\/     M anipulation  |                                                 |
\*---------------------------------------------------------------------------*/
FoamFile
{
    version     2.0;
    format      ascii;
    arch        "LSB;label=32;scalar=64";
    class       volScalarField;
    location    "1.3";
    object      gradTx;
}
// * * * * * * * * * * * * * * * * * * * * * * * * * * * * * * * * * * * * * //

dimensions      [0 -1 0 1 0 0 0];

internalField   nonuniform List<scalar> 
5712
(
-7208.38
-9214.73
-17021.7
-24936.1
-25481.1
-43919.7
-19491.8
-49566
-15818
-34741
-23658.4
-36029.4
-21168.8
-27860.4
-9330.03
-10695.6
-16282
-18689.5
-20883.8
-20722.1
-16360.7
-20143.4
-24035.2
-21525.9
-5927.39
-4523.6
-7358.14
-5008.62
-13783.9
-11159.5
-23418.2
-17112.7
-18098.2
-18883.5
-20264.8
-19602.3
-7327.5
-5623.17
-42549.8
-56962.9
-27556.7
-33808.4
-56868.6
-73861.8
-29447.2
-33725.6
-31722.6
-44795.8
-27784.4
-36757.3
-16367.7
-26266.7
-3213.86
-1090.31
-3369.43
-1221.24
-9681.9
-3931.77
-13182.8
-4882.5
-9518.82
-3630.32
-9934.57
-3200.41
-16835
-5378.89
-21694.9
-7350.77
-25937.9
-13013.8
-23753.4
-14069.3
-24081.9
-15601
-21203.5
-15811.9
-18901
-11269
-18968.9
-9794.5
-24529.5
-15565.4
-24599.5
-15678.5
-22419
-16665.4
-22693.4
-16700
-20390.1
-12915.3
-21114.5
-13208.6
-19421.6
-8521.51
-9093.48
-11222.2
-19489.5
-9356.64
-8027.06
-11505
-20547.8
-8443.08
-10235.6
-11227.4
-21567.6
-8632.61
-11096.8
-11686.9
-4157.54
-4559.78
-1414.8
-2858.57
-12077
-12798.2
-4765.05
-8691.91
-15478
-17075.9
-7739.38
-13278.5
-12274.4
-574.663
-14238.4
-18088.4
-10112.1
-213.455
-7101.48
-13063
-21322.6
-15683.5
-10712
-13220.8
-11861.8
-10507.8
-16615.2
-3907.29
-3153.46
-2259.5
-2225.63
-10917.6
-8979.07
-6771.46
-6396.23
-13507.7
-11039
-8836
-7851.37
-5639.79
-7323.9
-11877.4
-12458.5
-14767
-13376.1
-16726.7
-14333.8
-11912.1
-10041.7
-9337.73
-9469.19
-12428
-9267.81
-11511.1
-7873.22
-10155.6
-6582.26
-12243
-7840.97
-10520.8
-4261.53
-9180.41
-9586.46
-12875.2
-16371.3
-14223.2
-20406.3
-7411.48
-7884.38
-9399.66
-2254.96
-8237.93
-15537.3
-7840.78
-16769.2
-14111.4
-25272.1
-14363.5
-26945.3
-6364.64
-13556.6
-5835.6
-14557.4
-8879.5
-6381.19
-12562.1
-4715.29
-8908.82
-1000.8
-10829.4
-92.2668
-8613.76
-9853.47
-13198
-5970.94
-7191.59
-11715.5
-11746.4
-7903.26
-2419.12
-2075.52
-1764.42
-1754.19
-1568.43
-1349.83
-7066.36
-5503.3
-4551
-4671.49
-3544.83
-2935.49
-8367.21
-6878.3
-6200.96
-5572.67
-4269.81
-3912.81
-6189.77
-5154.16
-4910.93
-10641.1
-7538.89
-6111.43
-10392.8
-7152.9
-5522.3
-10829.3
-8046.95
-6765.58
-7250.94
-4467.95
-3322.3
-15274.8
-12491.6
-10330.7
-10148.5
-7961.33
-6213.48
-9388.08
-6821.73
-5056.23
-8190.44
-5523.55
-3905.59
-8927.56
-4730.79
-2442.3
-10858.8
-14594.2
-8685.54
-11099.8
-11962.6
-17420.3
-10771.3
-15486.8
-12.9367
-704.453
520.086
-119.426
-3003.45
-3319.87
-1296.31
-710.058
-790.785
-2479.51
-9655.19
-13961.4
-6671.26
-3819.36
-10408
-10336.8
-16287.3
-17948.9
581.809
4286.16
-7825.85
-7340.6
-7408.88
-5695.31
-1019.74
-532.382
-708.487
-313.939
-1975.64
-147.484
291.643
801.516
-9283.46
-2265.66
-6405.61
-1629.38
-9243.51
-2773.53
-11152.6
-3493.1
-9254.63
-12133.7
-8498.82
-11791.8
-15084.6
-15682.2
-14331.1
-14784.5
-5706.34
-9233.46
-6623.72
-9200.17
-8983.4
-11329.8
-9869.94
-11402.9
-14910
-14482
-15584.2
-14500.3
-5736.29
-8905.15
-6206.99
-9025.42
327.997
-1023.89
-6933.03
-3926.65
839.214
-635.057
-6424.53
-3450.93
-118.7
-1289.47
-7065.53
-4286.37
-529.012
-1528.7
-7058.43
-4404.74
696.783
793.131
-141.204
28.1663
2902.99
2888.26
279.48
481.234
692.356
1994.06
-1406.84
-714.609
10156.4
9884.15
5460.72
4239.25
618.802
10752.2
10671.3
4156.57
6138.5
1027.98
-10714.4
-8205.28
-6960.7
-6212.53
-3394.35
755.051
654.466
80.7896
17.611
2408.39
2203.98
265.599
95.6106
2446.25
2754.28
-377.967
-546.526
5068.74
2054.3
7822.57
4593.78
3407.72
2409.16
3872.63
3170.9
-76.2459
-795.313
-3930.29
-2454.37
-1150.99
839.754
-929.17
692.374
-1355.67
-132.021
-1437.88
-1572.25
-5150.97
-4604.34
-9767.8
-5836.52
-8239.17
-8085.91
-12463.6
-9975.43
-7365.29
-4211.69
-3618.88
-3492.1
-11516.7
-5038.84
-12645.8
-5641.95
-13895.7
-10190.1
-14814.5
-10955.6
-8974.15
-3404.94
-10038.1
-3949
-5377.02
-4015.61
-3622.23
-5278.34
-3368.26
-3649.11
-3048.78
-4880.38
-6247.4
-3917.85
-4105.85
-6071.87
-7679.24
-4248.07
-5328.95
-6247.33
605.189
605.515
663.457
48.3818
214.491
233.044
2195.37
2199.42
2144.02
236.608
613.962
599.537
2845.04
2972.82
2956.61
-327.718
608.08
786.899
965.441
800.868
500.92
3069.6
3044.07
2770.61
2454.23
2660.87
2564.99
3056.78
3098.72
2943.56
-880.597
279.36
356.315
-3567.03
-2048.43
-1133.93
631.284
1517.77
1978.82
675.591
1743.01
2190.02
335.945
1443.82
1746.69
-1621.95
369.073
594.954
25.9597
26.283
27.4301
39.7261
224.876
112.274
84.2666
71.4591
15.6787
48.5422
113.764
156.878
361.283
199.995
213.777
199.899
-175.652
6.68959
165.731
287.877
122.492
147.576
175.794
180.867
10.1235
82.2732
70.8946
64.2248
-191.938
-21.4
69.5788
110.6
-781.896
-177.519
18.2882
141.112
-1186.24
-285.389
-55.7823
261.645
-524.02
-81.5862
88.6498
241.178
-966.049
-216.937
-66.7451
220.987
-839.987
-207.639
46.7015
198.202
-1334.06
-337.849
-60.9745
312.527
-931.466
-261.203
47.6726
245.383
-1435.62
-382.507
-76.7906
325.612
14.0463
15.9853
25.2957
51.8193
42.0626
25.2521
12.6397
46.5387
79.9377
57.7881
86.1142
145.135
165.978
86.3297
44.7372
127.692
-305.837
-49.4382
79.6725
239.988
-110.566
19.5118
48.7474
223.045
-23.4386
86.5484
136.744
248.138
27.22
74.5486
38.2225
224.07
-815.181
-165.657
-36.2169
308.132
77.93
36.2065
20.9353
37.7478
137.014
53.1656
24.6119
18.8961
166.253
86.1244
41.0278
94.0784
353.493
141.742
60.213
47.6837
120.274
95.3806
53.1942
152.612
458.503
199.613
90.0286
74.1303
-27.2013
85.6045
65.3073
213.01
384.954
215.432
104.54
92.1325
-390.137
7.76478
4.57815
192.643
155.854
183.457
88.836
90.2345
-939.693
-112.815
-20.6644
216.138
-285.192
35.014
43.497
75.6983
-705.004
-38.5128
-9.58892
200.095
-137.596
101.713
68.4635
86.5242
-1147.72
-195.401
-44.5164
234.971
-409.559
-25.3294
22.9777
69.1427
-1297.92
-271.106
-74.2606
229.812
-515.364
-84.1262
-1.95407
58.5566
17.2371
6.75538
2.97164
1.46335
0.906112
22.6021
10.0902
4.75083
2.40904
1.50893
41.1584
15.578
6.79958
3.34749
2.0743
50.1494
22.2473
10.4887
5.33555
3.34935
54.5384
19.4309
8.35496
4.1016
2.54109
66.3611
29.1419
13.741
7.00408
4.40276
33.8869
14.6747
6.90331
3.52792
2.22349
24.7428
8.8077
3.75424
1.84822
1.1511
53.0727
19.4644
8.53111
4.23433
2.63685
25.5177
8.10067
3.34691
1.62716
1.00597
56.4829
22.4444
10.2852
5.18913
3.24841
24.3444
8.07834
3.43866
1.68763
1.04632
41.1065
12.8818
5.21892
2.51678
1.55375
24.1736
7.17523
2.89098
1.39834
0.86503
36.8848
8.7582
2.86021
1.23942
0.735251
20.4452
4.21323
1.26507
0.527946
0.309016
14.6132
5.24079
2.23375
1.0856
0.668464
10.7765
4.18256
1.85956
0.918001
0.567961
35.9035
13.0119
5.65693
2.78133
1.72199
27.9297
10.908
4.9186
2.44838
1.52138
50.1412
16.1151
6.73341
3.27044
2.01832
37.7564
14.8754
6.79718
3.40879
2.12674
44.3087
17.4978
8.07332
4.07286
2.54663
25.5967
11.1357
5.26306
2.67205
1.67472
22.5373
9.41178
4.43359
2.24976
1.40931
-217.268
-389.799
-406.876
-926.17
-228.361
-1103.28
466.66
-743.488
1181.82
359.092
-508.338
-1096.32
795.396
690.49
-1120.8
-1890.47
-1531.01
-2236.28
-759.98
-179.413
-40.8839
-9.12889
-2.31747
-213.163
-108.922
-14.9299
-4.13158
-1.89362
-2332.02
-547.472
-125.181
-27.8129
-7.07089
-494.714
-142.221
-35.9491
-7.70379
-2.14772
-3893.01
-915.563
-209.963
-46.8219
-11.8818
-804.655
-246.132
-61.5527
-14.645
-3.76026
-5168.08
-1218.95
-280.816
-62.85
-15.9783
-935.705
-310.415
-80.0695
-19.2328
-4.91889
-6371.71
-1517.94
-352.326
-79.3058
-20.2616
-1038.54
-379.932
-100.701
-24.4597
-6.32514
-7372.35
-1810
-426.333
-96.9074
-24.9115
-1738.1
-545.162
-137.021
-32.0042
-8.1604
-6932.8
-1697.41
-397.966
-90.0342
-23.054
-1290.58
-452.656
-118.093
-28.2408
-7.22122
-7553.76
-1855.87
-437.958
-99.7368
-25.6907
-2006.84
-604.42
-149.257
-34.3202
-8.72048
-7847
-1910.74
-451.466
-102.775
-26.4635
-2098.73
-632.459
-157.372
-33.6394
-9.03101
-566.458
-7499.03
-6847.47
-2432.57
1728.32
2927.45
8126.44
11909.5
1765.15
8708.11
-1959.05
2496.53
2508.39
5117.35
9812.39
13951.4
14839.2
18681.7
6063.62
7865.61
-20108.2
-14358.8
-4060.87
-2956.76
-2096.87
-2926.25
-2893.19
-12090.9
-10912.7
-9522.4
-9793.59
-7741.35
-5616.58
-7583.27
-4728.6
-4007.61
-4757.26
-3262.69
-19710.8
-9837.52
-3185.2
-5535.37
-7905.56
-5384.13
-5684.76
-4158.05
-2395.54
-3358.66
-3729.08
-4063.97
-19707.5
-12690.6
-11943.5
-8492.31
-8216.03
-8833.82
-3423.28
-4402.72
-5942.74
-13862
-11517.3
-9168.86
-7894.83
-6265.31
-9177.5
-6154.93
-4563.91
-3284.65
-1579.19
-3551.5
-2910.39
-2152.86
-1326.1
-450.335
-2623.15
-2178.01
-1624.51
-1002
-338.872
-1850.65
-1526.35
-1130.09
-692.589
-233.308
-2602.52
-2164.94
-1615.53
-995.457
-336.13
-2549.29
-2100.56
-1555.86
-955.117
-322.36
-7548.99
-5547.11
-4111.19
-3527.85
-3507.73
-5795.76
-4091.94
-2761.99
-2158.05
-1437.66
-5914.99
-3549.62
-2385.49
-1572.96
-712.012
-4960.83
-3248.4
-2077.67
-1427.37
-796.324
-3584.47
-2195.34
-1325.53
-867.514
-404.608
-4400.21
-3244.32
-2205.42
-1296.1
-439.806
-5150.32
-3315.14
-2142.06
-1254.69
-454.966
-3094.96
-1864.36
-1117.05
-601.2
-199.892
-3272.74
-2497.44
-1735.28
-1024.91
-342.684
-3765.41
-2782.75
-1875.64
-1080.74
-356.153
-2695.31
-2076.25
-1449.39
-854.691
-283.719
-12698.7
-9328.42
-7146.43
-5899.78
-5161.59
-7133.57
-5075.96
-3602.11
-2344.32
-1003.12
-2623
-2025.38
-1428.39
-857.917
-292.218
-4632.46
-3645.46
-2622.64
-1604.19
-555.097
-6387.42
-4921.07
-3533.63
-2211.12
-814.346
-4523.25
-3583.7
-2603.05
-1609.49
-561.927
-4859.63
-3907.64
-2862.29
-1768.24
-609.944
-3580.74
-2888.93
-2111.01
-1292.83
-439.622
-2049.06
-1634.43
-1175.25
-706.673
-236.368
-2934.44
-2395.24
-1758.79
-1073.22
-361.343
-3142.72
-2474.76
-1766.24
-1061.94
-357.566
-3485.11
-2796.76
-2031.34
-1237.1
-419.14
-13301.9
-10587.5
-8381.43
-6944.05
-5552.17
-8655.58
-6061.8
-4477.95
-3137.15
-1502.49
-8611.56
-6632.76
-4839.13
-3380.47
-1553.94
-6568.24
-4877.31
-3553.9
-2324.61
-912.91
-6749.94
-5291.41
-3854.36
-2433.09
-891.282
-6779.29
-5001.64
-3622.7
-2358.73
-914.359
-2900.59
-2308.32
-1674.44
-1027.52
-353.537
-3846.42
-3143.35
-2314.9
-1418.44
-479.341
-5054.34
-4038.64
-2940.36
-1807.98
-621.468
-6138.66
-12562.8
-12959.9
-35773.4
-12661.9
-47493.3
-6955.95
-16939.7
-12669.7
-9732.52
-21243.4
-17628.1
-12503.1
-11614
-23648.1
-18543.1
-4537.88
-3389.98
-8850.79
-6125.83
-10151.9
-7665.95
-27451.6
-20402.9
-16650.6
-12528.6
-17165.7
-10167.2
-1243.88
-4149.36
-44250.2
-57680.8
-26651.1
-33671.7
-58089
-74385.6
-28432
-33485.3
-33139.3
-45532.8
-26965.5
-36729.4
-18111.7
-27112.9
-2198.69
-583.987
-3885.63
-1329.56
-7477.45
-3371.25
-15221.3
-5518.68
-3256.19
-1872.13
-8163.24
-2579.58
-16889.7
-5325.12
-21913.8
-7410.86
-17608.7
-9227.49
-20501.1
-12154.1
-15781.8
-11371.9
-17944.4
-13799.7
-16603.9
-9733.96
-13073.3
-6860.17
-23286.5
-14712.5
-24292.5
-15447.1
-21123.5
-15792.7
-22346.9
-16464.1
-19563.9
-12215.8
-20924.5
-13016.8
-18365.9
-8208.4
-8079.21
-10814
-16407.5
-8426.34
-6123.74
-10729.2
-20300.1
-8374.13
-9769.52
-11035
-21552.9
-8631.46
-10968.1
-11632.9
-1261.3
-1157.35
-317.108
-1435.01
-5132.65
-5373.27
-3279.46
-6636.49
-2985.61
-3719.29
-5173.84
-9842.76
-12457.2
-9613.29
-10020.5
-12754.5
-8659
-7477.61
-8239.97
-7584.91
-14851.8
-13504.9
-12300.1
-10606.9
-7631.71
-6734.41
-14728.1
-1259.63
-940.514
-719.018
-809.829
-4802.24
-3781.46
-4141.52
-3655.66
-808.518
435.434
-4925.76
-3880.06
-10126.3
-10764.9
-9531.03
-8776.63
-7509.7
-5457.11
-9959.83
-7890.71
-9368.76
-7336.45
-11823
-11774.4
-10305.2
-7728.52
-7796.43
-5026.46
-7056.92
-4255.62
-10885.3
-6493.13
-9521.9
-4767.31
-8558.03
-9551.87
-13258.5
-17435.2
-14024.1
-20413.9
-6704.65
-7762.05
-8049.8
-2542.15
-7960.58
-15418.9
-7762.8
-16717.4
-13936.7
-25355
-14301.8
-26921
-6060.48
-13431.2
-5753.15
-14512.7
-8402.36
-6365.59
-12413.3
-4838.68
-7967.2
-1485.1
-10653
-959.507
-8409.11
-9793.92
-13128.6
-5993.06
-7131.24
-11690.9
-11724.5
-7899.99
-911.542
-842.493
-648.214
-746.666
-2875.7
-2111.15
-2664.16
-2430.38
1027.7
462.22
-3109.76
-3412.67
-10593.9
-9903.09
-7849.56
-6616.86
-4356.61
-3584.91
-6216.13
-5075.53
-6187.43
-4479.12
-18219.6
-15604.3
-8190.77
-6692.45
-6466.76
-4659.15
-5527.94
-3329.97
-6104.12
-2453.51
-5652.49
-9308.12
-4891.82
-9543.43
-8726.04
-10784.4
-9864.4
-13422.1
-947.626
-642.292
-666.632
-536.162
-3566.31
-2419.05
-2817.53
-1412.7
-1120.57
-1481.74
-8276.42
-8830.51
-4480.78
-3972.44
-9630.07
-10113.8
-15243.1
-17637.8
549.483
4195.73
-7327.4
-7215.57
-7132.28
-5657.78
-985.054
-864.721
-1057.8
-851.213
-1533.53
-913.103
-363.977
-254.201
-7842.27
-3343.28
-6647.84
-2761.34
-9234.81
-3427.74
-11145
-3750.99
-5321.18
-10245.1
-7051.36
-10755.9
-8922.95
-12049.5
-11897.6
-13076.6
-5051.6
-8881.51
-4498.91
-8820.13
-8334.21
-10874.9
-9672.08
-11278.6
-13858.9
-13751.2
-15280
-14302
-5473.47
-8750.04
-6129.45
-8986.2
-41.6323
-1633.16
-7192.84
-4420.26
-15.1062
-1678.44
-7111.92
-4220.08
-385.188
-1709.44
-7193.6
-4579.73
-635.821
-1695.41
-7094.06
-4503.9
-980.625
-1055.51
-888.715
-928.637
-1861.08
-1867.87
-1145.72
-1195.13
-7948.93
-7169.06
-3327.55
-3243.61
-3432.11
-4911.52
-3720.77
154.319
-1265.36
-983.02
-1173.27
-3499.49
2822.1
-370.464
-14274.2
-11746.5
-10161.1
-8399.3
-4736.45
-1043.35
-911.491
-1022.41
-1216.3
-1823.29
-1410.67
-1523.81
-1996.49
-7343.54
-7058.39
-3555.26
-4467.91
-4856.88
-6570.99
-2907.26
-4838.77
-4510.96
-4882.07
-759.798
-1164.27
-2099.03
-3196.41
-9660.59
-7788.47
-7351.13
-5285.94
-6099.27
-4269.9
-5042.88
-3528.42
-3239
-3457.6
-7928.75
-7733.94
-10796.9
-6904.32
-10322.8
-10922.9
-12993.5
-10858.1
-8631.11
-5222.42
-6247.25
-6144.34
-11867.3
-5672.3
-12725.1
-5786.48
-13970.1
-10723
-14812
-11058.9
-9515.52
-4015.81
-10181.8
-4103.96
-6563.28
-4892.48
-4631.75
-6216.28
-5536.87
-5708.82
-4568.62
-6488.39
-6839.75
-4475.26
-4661.01
-6652.72
-7858
-4416.87
-5504.77
-6408.94
-704.429
-614.42
-872.226
-669.188
-1233.55
-1490.75
-1243.66
-976.182
-6769.44
-5927.87
-2926.8
-1340.68
-7677.73
-7190.5
-5823.3
-5169.2
-4682.17
-4016.17
-1549.99
-1646.76
-3040.69
-1439.33
-8470.22
-7147.64
-4672.17
-3753.15
-3478.63
-2357.88
-2372.78
-1216.65
-3124.97
-91.8279
-170.278
-73.372
-25.3597
11.7317
-139.061
-81.332
-17.2724
16.8602
-465.949
-194.371
0.347621
103.177
-379.487
-204.133
8.35085
89.7221
-784.546
-297.046
31.2696
237.946
-733.014
-331.352
-91.318
22.071
-516.293
-224.886
-104.787
-32.1654
-418.359
-158.656
-9.24375
66.0887
-1212.6
-409.786
-116.973
55.9019
-1443.78
-407.761
-118.641
249.204
-1146.28
-384.284
-70.7937
148.528
-1303.82
-363.734
-138.188
217.441
-1146.86
-382.464
-49.5768
149.426
-1504.25
-424.178
-109.565
296.04
-1055.71
-334.437
6.85557
224.183
-1497.11
-415.033
-95.3415
319.397
-161.919
-62.3043
-10.5429
38.1951
-138.79
-46.9023
-22.8043
34.6523
-415.55
-160.973
-11.3074
104.638
-346.478
-121.222
-55.7466
91.5645
-847.186
-284.964
-19.9005
212.68
-764.2
-243.591
-76.4102
187.513
-925.488
-317.911
-52.0167
168.1
-699.213
-223.472
-94.3086
208.181
-1305.69
-359.427
-123.868
324.69
-100.704
-34.3846
-9.93253
24.7438
-46.5824
-22.2566
-7.89628
1.24521
-303.832
-100.105
-46.3087
55.3949
-152.659
-66.6761
-32.1832
-2.15092
-542.879
-168.808
-72.358
98.4922
-308.294
-118.065
-49.8135
-0.474017
-827.48
-244.088
-90.0562
152.31
-537.676
-175.882
-66.6092
2.39303
-1093.57
-297.608
-153.71
118.006
-720.919
-213.012
-94.5753
-10.5967
-1459.19
-388.405
-169.197
144.781
-716.364
-203.586
-82.3289
2.81165
-1401.65
-376.289
-186.589
115.655
-789.722
-223.619
-92.8936
-6.57428
-1453.37
-366.883
-139.322
190.539
-649.777
-169.709
-54.7656
25.7636
-1396.24
-328.078
-106.2
214.786
-588.461
-129.99
-27.0712
44.6025
-0.401646
-3.06892
-2.12025
-1.23487
-0.818859
-9.11997
-6.69753
-3.82855
-2.12117
-1.38522
0.222187
-7.1121
-4.93472
-2.86748
-1.89894
-20.2893
-15.0896
-8.61684
-4.7613
-3.10416
4.42804
-8.51535
-6.08856
-3.54676
-2.34868
-27.5427
-20.2048
-11.4514
-6.30397
-4.10342
-14.0484
-10.3375
-5.86371
-3.22156
-2.09312
0.294453
-3.99548
-2.79445
-1.61833
-1.0675
-2.55776
-9.90863
-6.48745
-3.70255
-2.43661
4.72064
-3.05421
-2.37576
-1.40015
-0.929939
-14.6035
-14.3607
-8.3859
-4.65113
-3.03608
2.09942
-3.66991
-2.5545
-1.47565
-0.974668
9.14142
-4.20633
-3.5575
-2.13009
-1.41909
6.11972
-2.40766
-2.01371
-1.19643
-0.795053
22.3994
0.98049
-1.14286
-0.882596
-0.622761
14.4577
0.978335
-0.399828
-0.354432
-0.255484
2.04392
-1.97853
-1.51444
-0.898962
-0.599454
-1.15792
-2.13663
-1.3464
-0.767346
-0.506373
1.35613
-6.04764
-4.12247
-2.37991
-1.57308
-5.41113
-6.34038
-3.77568
-2.11506
-1.38694
11.0617
-6.1229
-4.73827
-2.7938
-1.85555
-10.3317
-9.55013
-5.46535
-3.02477
-1.97425
-13.7248
-11.9624
-6.75353
-3.71965
-2.42527
-14.1594
-8.39095
-4.47215
-2.42878
-1.57633
-11.1475
-7.20415
-3.88601
-2.11875
-1.37774
-11.8643
-191.473
42.5721
-476.116
208.949
-633.456
615.281
-502.344
955.303
172.061
-655.833
-1247.27
456.174
223.828
-1179.83
-1938.8
-1544.83
-2245.67
-710.367
-170.161
-39.0161
-8.74526
-2.22722
-176.222
-101.435
-14.0834
-3.97082
-1.82515
-2193.02
-520.818
-119.721
-26.6918
-6.80602
-416.545
-131.062
-34.2989
-7.49169
-2.10677
-3684.2
-874.376
-201.432
-45.0589
-11.4658
-726.743
-234.198
-59.6903
-14.3315
-3.70064
-4938.57
-1171.54
-270.782
-60.7511
-15.4804
-911.343
-305.425
-79.0856
-19.0222
-4.87443
-6175.4
-1472.9
-342.304
-77.1522
-19.7426
-1089.01
-384.185
-100.862
-24.3876
-6.29791
-7300.25
-1788.26
-420.775
-95.6119
-24.5821
-1770.51
-549.793
-137.573
-32.047
-8.15823
-6814.08
-1663.73
-389.825
-88.2116
-22.6051
-1362.99
-460.996
-118.97
-28.2982
-7.21982
-7516.71
-1844.27
-434.861
-98.9917
-25.4963
-2015.91
-605.669
-149.371
-34.3181
-8.71529
-7835.47
-1907.09
-450.468
-102.53
-26.3989
-2099.6
-632.472
-157.34
-33.6335
-9.02801
-505.508
-7367.76
-6444.65
-2200.26
-1606.1
-875.913
-3750.71
-2598.4
-6785.24
-6297.13
-3263.52
-2415.33
-249.684
-396.284
-703.259
-1181.16
-1836.51
-2637.7
-184.537
-410.937
-877.09
-1574.45
-2458.45
-3432.72
-187.052
-85.9277
-331.628
-224.103
-629.422
-513.976
-1087
-995.111
-1622.65
-1535.9
-2227.76
-1969.92
-3413.59
-4024.72
-4567.58
-7142.71
-8266.67
-9268.62
-4332.19
-4945.72
-5091.23
-4799.02
-4243.6
-3808.18
-225.106
-190.219
-144.084
-89.7513
-30.4682
-356.919
-301.245
-227.909
-141.835
-48.1254
-632.631
-533.191
-402.831
-250.435
-84.9282
-1060.77
-892.331
-672.956
-417.831
-141.607
-1645.23
-1380.17
-1038.3
-643.608
-217.967
-2353.64
-1966.19
-1474.01
-911.839
-308.608
-166.278
-140.412
-106.284
-66.1702
-22.4566
-369.842
-311.881
-235.757
-146.627
-49.7347
-788.411
-663.92
-501.206
-311.424
-105.583
-1412.78
-1187.37
-894.765
-555.282
-188.154
-2200.35
-1844.12
-1386.32
-859.025
-290.898
-3060.94
-2555.48
-1915.11
-1184.67
-400.994
-168.702
-142.623
-108.08
-67.348
-22.8671
-77.5104
-65.5399
-49.6754
-30.9583
-10.5122
-298.852
-252.402
-191.079
-118.973
-40.3781
-202.025
-170.695
-129.276
-80.5164
-27.3307
-566.628
-477.97
-361.403
-224.812
-76.2612
-462.901
-390.669
-295.535
-183.903
-62.3946
-977.029
-822.651
-620.92
-385.734
-130.761
-894.741
-753.637
-568.997
-353.537
-119.853
-1455
-1221.76
-919.796
-570.363
-193.178
-1377.67
-1157.13
-871.227
-540.203
-182.939
-1989.07
-1662.38
-1246.32
-770.753
-260.755
-1759.52
-1470.7
-1102.27
-681.21
-230.32
-3026.61
-2512.5
-1874.82
-1157.51
-391.829
-3530.21
-2902.16
-2152.65
-1328.02
-451.003
-3931.04
-3182.61
-2343.75
-1450.89
-498.945
-5935.13
-4694.24
-3438.85
-2166.14
-778.009
-6470.97
-4955.25
-3628.66
-2374.57
-941.161
-6940.97
-5202.45
-3813.48
-2568.81
-1091.83
-3842.59
-3191.38
-2382.64
-1471.63
-498.22
-4353.36
-3590.39
-2668.86
-1647.2
-558.676
-4430
-3618.54
-2676.8
-1654.23
-564.317
-4095.78
-3297.97
-2427.43
-1509.85
-523.641
-3491.74
-2745.9
-2012.22
-1275.14
-462.432
-3015.56
-2315.64
-1691.43
-1095.4
-417.504
-259.813
-428.848
-764.552
-1281.14
-1988.39
-2842.02
-198.067
-454.649
-959.05
-1703.35
-2634.76
-3637.69
-196.168
-93.0823
-361.683
-248.926
-688.397
-566.864
-1188.75
-1094.06
-1790.29
-1734.5
-2467.95
-2298.58
-3646.89
-4262.89
-4803.17
-7307.47
-8344.53
-9291.71
-4527.11
-5087.01
-5154.96
-4788.16
-4196.79
-3783.7
-234.312
-198.077
-150.099
-93.5313
-31.7577
-386.534
-326.543
-247.292
-154.024
-52.2849
-688.447
-580.947
-439.483
-273.514
-92.8106
-1152
-970.59
-733.179
-455.835
-154.603
-1784.23
-1499.83
-1130.72
-702.104
-238.004
-2541.65
-2129.07
-1600.62
-992.401
-336.288
-178.572
-150.904
-114.314
-71.2153
-24.1775
-409.596
-345.84
-261.775
-162.987
-55.3182
-863.063
-727.809
-550.252
-342.314
-116.135
-1530.46
-1288.36
-972.522
-604.373
-204.945
-2361.85
-1983.29
-1493.92
-927.192
-314.261
-3249.73
-2719.22
-2042.56
-1265.86
-428.91
-176.982
-149.684
-113.481
-70.7393
-24.0235
-84.0041
-71.0731
-53.9035
-33.6111
-11.4163
-326.167
-275.716
-208.927
-130.187
-44.2037
-224.572
-189.926
-143.987
-89.7547
-30.4811
-620.298
-523.854
-396.589
-246.952
-83.8197
-511.019
-431.793
-327.059
-203.733
-69.1635
-1069.84
-902.227
-682.125
-424.339
-143.958
-985.068
-831.155
-628.678
-391.212
-132.738
-1608.27
-1353.52
-1021.43
-634.616
-215.172
-1559.12
-1313.01
-991.378
-616.123
-208.92
-2209.85
-1853.39
-1394.58
-864.96
-293.097
-2060.57
-1730.11
-1302.79
-808.221
-273.844
-3243.35
-2702.31
-2023.98
-1253.27
-424.915
-3755.15
-3102.67
-2312.95
-1432.43
-487.435
-4159.6
-3391.74
-2515.08
-1564.91
-539.441
-6113.02
-4871.34
-3595.15
-2277.49
-820.372
-6572.63
-5065.63
-3733.62
-2455.91
-976.024
-6976.26
-5242.59
-3853.24
-2601.16
-1106.51
-4023.91
-3350.45
-2507.88
-1552.17
-526.074
-4487.7
-3711.08
-2766.11
-1710.95
-581
-4495.3
-3681.58
-2730.95
-1691.6
-577.87
-4094.28
-3304.54
-2438.89
-1520.99
-528.594
-3456.76
-2722.32
-1999.51
-1270.94
-462.457
-2996.47
-2301.75
-1682.91
-1091.69
-416.933
-20062.4
-14405.1
-4395.11
-3294.61
-2533.69
-3435.42
-3329.69
-12940.1
-14232.1
-11196.7
-12874.6
-7239.19
-10672.5
-5436.29
-5714.7
-4089
-20438.9
-10882.1
-3933.69
-6444.43
-8744.05
-5884.68
-6290.85
-4717.13
-2850.6
-4006.97
-4688.77
-4770.24
-19618.2
-12864.8
-12578.7
-8860.09
-8659.45
-9359.24
-4059.77
-5002.85
-6566.53
-13877
-11579.1
-9260.55
-8015.43
-6374.68
-9254.67
-6234.82
-4640.35
-3347.07
-1605.8
-3868.63
-3194.36
-2380.72
-1474.9
-502.334
-2936
-2450.95
-1838.11
-1138.64
-385.973
-2255.94
-1880.66
-1407.88
-870.51
-294.67
-3071.45
-2571.55
-1931.86
-1196.85
-405.347
-2956.92
-2459.35
-1838.86
-1137.17
-385.296
-9172.41
-7351.28
-5780.15
-4877.82
-4439.11
-10273.5
-8556.75
-6663.88
-5079.16
-2845.03
-7948.11
-5509.98
-4027.38
-2691.24
-1111.85
-9315.1
-7460
-5659.21
-3992.47
-1844.36
-6050.53
-4784.93
-3473.46
-2135.73
-734.989
-8273.13
-6097.3
-4366.95
-2710.09
-968.992
-4663.37
-3759.15
-2752.63
-1690.16
-575.247
-4882.08
-3921.88
-2865.53
-1758.53
-598.95
-3541.45
-2876.4
-2114.04
-1297.33
-439.727
-13975.5
-10787.4
-8548.17
-7062.66
-5935.11
-8320.33
-6251.21
-4615.9
-3053.23
-1278.8
-3363.91
-2709.24
-1988.15
-1227.89
-422.48
-5527.88
-4471.9
-3301.08
-2054.87
-714.986
-7268.03
-5772.12
-4258.2
-2708.99
-998.865
-5025.39
-4055.25
-2996.58
-1874.93
-657.44
-5444.35
-4439.21
-3294.62
-2054.02
-710.971
-4117.98
-3375.34
-2504.54
-1551.21
-530.226
-2499.35
-2052.64
-1519.92
-935.332
-316.766
-3544.49
-2936.5
-2188.93
-1351.6
-457.949
-4069.74
-3314.89
-2444.56
-1505.89
-512.752
-4164.53
-3411.91
-2528.49
-1562.96
-533.205
-13418.6
-10828.2
-8694.53
-7291.19
-5887.06
-8903.98
-6318.15
-4717.5
-3325.2
-1584.85
-9463.49
-7509.95
-5645.75
-3992.88
-1823.66
-6983.22
-5296.66
-3926.49
-2593.72
-1015.66
-7223.79
-5758.57
-4260.69
-2718.41
-999.208
-7373.4
-5587.84
-4140.02
-2728.85
-1057.95
-3510.9
-2859.28
-2119.04
-1319.14
-455.947
-4412.86
-3647.54
-2716.82
-1679.22
-569.992
-5667.22
-4604.81
-3406.49
-2118.56
-731.711
-411.092
-1188.73
-1928.03
-2656.1
-3366.54
-4042.1
-2857.52
-7642.04
-7168.18
-2761.18
-9644.77
-8133.21
-9507.12
-10489.3
-2612.14
-1679.19
-6076.27
-3426.57
-11358.3
-8199.57
366.419
-2303.41
-6325.16
-5836.02
-2204.13
-8135.71
-6548.67
-7893.19
-8818.64
-2159.16
-963.698
-5235.39
-1710.6
-9269.57
-4881.05
1899
-1659.42
-4739.89
-4342.47
-1585.66
-6329.28
-3780.97
-6283.05
-6854.4
-1610.81
-882.568
-3661.93
-1806.53
-7253.47
-1746.5
2050.32
-1195.26
-3597.03
-3343.99
-1179.31
-4734.41
-2164.7
-5102.29
-5901.06
-1192.04
-938.262
-2646.72
-1853.36
-6266.7
-196.177
1545.51
-945.499
-2993.76
-2818.98
-971.85
-3708.67
-1742.35
-4488.9
-5653.55
-924.988
-1036.83
-1856.31
-1799.54
-5406.31
8.6462
240.762
-821.62
-2623.17
-2550.56
-866.179
-3385.48
-2045.02
-4098.53
-5367.18
-698.517
-814.311
-1486.41
-1751.41
-5332.58
-937.752
-506.721
-1401.75
-3412.04
-5170.02
-2007.35
-5507.09
-9678.89
-7522.58
-10807.5
-970.506
-642.706
-3803.18
-2205.98
-1005.99
-9044.63
-4574.75
-1297.07
-3163.1
-4508.7
-1731.66
-5056.34
-8681.39
-6734.91
-9108.2
-986.933
-550.224
-3915.05
-2046
-182.659
-8793.58
-3316.29
-1126.89
-2757.22
-3639.34
-1370.88
-4552.16
-7625.83
-5651.5
-7871.46
-861.138
-630.121
-3285.58
-2105.87
-426.017
-6943.46
-3104.8
-956.427
-2448.72
-2959.75
-1090.42
-4182.94
-6782.66
-4945.61
-7020.01
-773.631
-626.076
-2976.18
-2149.89
-293.516
-6319.67
-3062.94
-850.772
-2175.82
-2584.44
-936.892
-3737.28
-6122.66
-4445.85
-6591.38
-711.951
-678.183
-2653.02
-2312.44
-472.448
-5973.67
-3097.54
-781.618
-1921.05
-2369.93
-851.411
-3418.53
-6014.46
-4083.51
-6331.11
-733.993
-794.443
-2340.52
-2200.43
-744.671
-6098.46
-3448.52
6554.76
8277.2
17060.8
25019.5
25514.3
43903.7
19501.1
49569.1
15832
34747.2
23706.8
36031.9
21186
27950.3
8020.16
9118.67
16295.5
18692.7
20878.4
20719.4
16362.5
20141.2
24032.3
21522.8
5466.84
4209.33
6695.04
4572.17
13785.9
11130.4
23473
17138.9
18072.8
18888.2
20256.1
19603.1
7325.73
5599.93
42555.8
56970.4
27557.4
33810.6
56875.8
73870.4
29447.1
33726.7
31727.1
44802.4
27783.9
36760.3
16374.1
26272.6
3030.97
1045.9
3096.08
1134.8
9650.84
3916.47
13189.2
4884.03
9512.77
3626.74
9920.65
3194.95
16835.9
5378.91
21698.1
7351.82
25937.5
13012.8
23751.8
14068
24079
15598.6
21200.8
15809.8
18898.3
11267.6
18968.1
9793.35
24529
15564.4
24599.5
15677.7
22417.6
16663.8
22692.5
16698.7
20389.6
12914.5
21115
13208
19417.6
8520.16
9092.13
11222.1
19486.4
9355.32
8025.49
11504.7
20547.6
8443.11
10235
11227.5
21569
8633.18
11096.6
11687.2
3908.83
4238.73
1359.28
2686.51
12020.8
12751
4738.13
8652.14
15468.6
17065.9
7734.93
13270.9
12274.5
575.548
14237.4
18084.7
10110.4
214.421
7101.72
13062.2
21318.2
15680.7
10710.6
13219.7
11860.3
10505.5
16614.4
3558.8
2840.9
2031.43
2030.13
10951.2
9008.75
6838.88
6439.1
13499.7
11036.1
8832.7
7850.49
5639.95
7323.8
11877.2
12458.1
14765.7
13375.1
16722.7
14331.8
11910.8
10041.5
9337.04
9468.85
12427.3
9267.53
11510
7872.73
10154
6581.59
12242.8
7841.1
10520.1
4261.41
9179.5
9586.17
12874.1
16370.6
14221.8
20405.3
7410.8
7884.29
9398.99
2254.89
8237.09
15537.1
7839.97
16768.9
14110.1
25271.1
14362.3
26944.4
6364.09
13556.7
5835.08
14557.5
8879.22
6381.27
12562.6
4715.52
8908.23
1000.81
10829.7
92.5403
8613.68
9853.66
13198.5
5971.19
7191.47
11715.7
11746.9
7903.58
2139.26
1854.22
1603.59
1597.25
1440.81
1254.38
7103.63
5518.08
4552.48
4709.31
3561.75
2939.08
8367.84
6879.72
6202.07
5573.75
4272.43
3915.35
6189.77
5154.33
4911.14
10640.9
7539.1
6111.73
10392.5
7153.19
5522.74
10829.1
8047.8
6766.57
7251.39
4469.15
3323.64
15274.5
12491.7
10331.1
10148.4
7961.39
6213.72
9387.9
6821.86
5056.54
8190.3
5523.77
3905.99
8927.67
4731.1
2442.76
10832
14577.3
8656.15
11085
11950.1
17410.8
10756.2
15478.3
56.2664
612.23
-433.116
76.583
3002.33
3394.06
1296.26
789.946
764.498
2453.06
9638.19
13940.4
6653.6
3805.84
10400.5
10333.4
16282.9
17946.9
-587.936
-4288.13
7816.06
7336.04
7403.22
5693.15
890.949
483.68
602.797
274.32
2030.79
158.729
-231.42
-785.555
9272.24
2264.23
6398.71
1629.4
9236.51
2771.88
11148.9
3491.95
9244.32
12128.4
8490.7
11787.5
15077.5
15678
14325.6
14781.2
5698.99
9229.49
6614.72
9195.44
8978.43
11326.9
9867.2
11400.9
14906.5
14479.6
15582.1
14498.6
5731.69
8902.31
6204.55
9023.5
-331.905
1023.36
6930.19
3925.57
-843.689
634.391
6421.44
3449.85
115.7
1288.72
7063.29
4285.36
527.406
1528.17
7056.87
4403.95
-660.976
-746.98
128.439
-32.477
-2878.16
-2863.33
-275.08
-471.641
-690.936
-1992.48
1406.56
714.579
-10156.3
-9883.27
-5460.99
-4239.38
-618.815
-10751
-10670
-4156.47
-6137.17
-1027.74
10712.3
8202.06
6957.52
6210
3393.35
-720.37
-620.43
-93.6643
-33.4587
-2383.27
-2183.75
-246.975
-79.1754
-2444.62
-2752.13
377.966
546.301
-5068.5
-2054.31
-7822.24
-4593.71
-3407.99
-2409.22
-3872.02
-3170.12
76.1219
795.044
3929.27
2453.98
1149.56
-840.161
927.921
-692.673
1354.86
131.866
1437.41
1571.86
5148.71
4603.26
9765.42
5835.28
8237.36
8084.95
12461.6
9974.27
7363.11
4210.59
3616.9
3491.12
11514.8
5037.75
12644.2
5641.04
13894
10189
14813.1
10954.7
8972.34
3404.01
10036.6
3948.23
5375.41
4014.67
3621.29
5277.41
3366.78
3648.24
3047.92
4879.49
6246.03
3916.97
4104.97
6070.91
7678.05
4247.32
5328.14
6246.48
-575.721
-564.671
-617.518
-63.4113
-211.278
-226.117
-2175.73
-2188.65
-2136.65
-218.897
-604.487
-593.114
-2842.78
-2970.89
-2955.27
327.015
-607.719
-786.637
-965.408
-800.766
-500.821
-3069.56
-3043.91
-2770.46
-2454.06
-2660.58
-2564.72
-3055.9
-3097.78
-2942.78
880.177
-279.317
-356.193
3566.77
2048.47
1134.09
-631.451
-1517.66
-1978.62
-675.667
-1742.81
-2189.76
-335.898
-1443.52
-1746.36
1621.56
-369.084
-594.89
-21.6132
-23.0025
-24.3783
-35.5259
-209.373
-104.043
-78.1533
-65.9054
-15.1993
-48.3424
-113.959
-157.529
-357.203
-198.51
-212.63
-199.131
175.789
-6.55224
-165.574
-287.694
-121.831
-147.275
-175.612
-180.724
-10.1219
-82.2218
-70.8476
-64.1809