/*--------------------------------*- C++ -*----------------------------------*\
| =========                 |                                                 |
| \\      /  F ield         | OpenFOAM: The Open Source CFD Toolbox           |
|  \\    /   O peration     | Version:  2306                                  |
|   \\  /    A nd           | Website:  www.openfoam.com                      |
|    \\/     M anipulation  |                                                 |
\*---------------------------------------------------------------------------*/
FoamFile
{
    version     2.0;
    format      ascii;
    arch        "LSB;label=32;scalar=64";
    class       volVectorField;
    location    "2.8";
    object      flux;
}
// * * * * * * * * * * * * * * * * * * * * * * * * * * * * * * * * * * * * * //

dimensions      [0 1 -1 1 0 0 0];

internalField   nonuniform List<vector> 
2658
(
(1.01555e-06 9.94605e-07 -8.98631e-06)
(1.47831e-06 5.72917e-07 -8.71698e-06)
(4.73879e-07 1.78423e-07 -6.72234e-06)
(-4.92523e-08 -2.61863e-08 -6.12736e-06)
(-2.1988e-06 -2.16265e-06 -7.52104e-06)
(-1.86056e-06 2.66298e-06 -7.70934e-06)
(1.97992e-06 -2.30959e-06 -7.11224e-06)
(1.95298e-06 1.94289e-06 -6.85294e-06)
(-3.85228e-08 -4.089e-08 -6.12222e-06)
(2.64418e-06 -1.88431e-06 -7.68671e-06)
(-1.75801e-06 5.88505e-07 -7.51775e-06)
(-1.25482e-06 -4.15642e-06 -5.88976e-06)
(8.1996e-07 2.49773e-06 -7.81158e-06)
(9.86267e-07 2.54231e-06 -7.28482e-06)
(7.58164e-07 2.05224e-06 -7.56614e-06)
(-7.33341e-08 2.11055e-06 -7.78258e-06)
(-3.37218e-08 2.31888e-06 -7.44725e-06)
(-5.33568e-09 2.07761e-06 -7.76507e-06)
(-8.3249e-07 2.101e-06 -7.56053e-06)
(-1.07257e-06 2.51114e-06 -7.19042e-06)
(-1.01018e-06 2.41772e-06 -7.68524e-06)
(-2.35036e-06 2.10031e-06 -6.92182e-06)
(-2.82824e-06 6.90787e-07 -7.92678e-06)
(2.13981e-06 -4.87357e-07 -6.12043e-06)
(-9.12e-07 7.88764e-07 -9.55418e-06)
(-1.11032e-06 2.3175e-06 -7.66758e-06)
(-2.39185e-06 -5.1029e-07 -6.83499e-06)
(-3.50283e-07 1.35997e-07 -8.10374e-06)
(-1.75208e-06 1.89024e-06 -8.2502e-06)
(-1.87358e-06 -2.12577e-10 -6.75012e-06)
(-1.75207e-06 -1.8904e-06 -8.25018e-06)
(-2.39189e-06 5.10338e-07 -6.83505e-06)
(-1.11053e-06 -2.31751e-06 -7.66754e-06)
(-2.8285e-06 -6.90526e-07 -7.92681e-06)
(-9.1197e-07 -7.88615e-07 -9.55419e-06)
(2.13984e-06 4.87503e-07 -6.12042e-06)
(-1.2005e-06 -1.5982e-07 -7.94685e-06)
(5.44977e-07 1.9595e-07 -1.098e-05)
(-2.34991e-06 -2.10099e-06 -6.9217e-06)
(-1.01037e-06 -2.418e-06 -7.68551e-06)
(-1.07247e-06 -2.51139e-06 -7.1907e-06)
(-8.32202e-07 -2.10112e-06 -7.56059e-06)
(-5.37007e-09 -2.07739e-06 -7.76482e-06)
(7.20871e-08 1.04852e-06 -1.13665e-05)
(-1.47595e-06 -1.80238e-07 -7.29576e-06)
(1.38222e-06 -9.59381e-08 -7.21412e-06)
(-1.75803e-06 -5.88557e-07 -7.51788e-06)
(-6.31744e-08 1.09129e-06 -1.13542e-05)
(-7.36398e-08 -2.11093e-06 -7.78264e-06)
(7.5802e-07 -2.05218e-06 -7.56607e-06)
(9.86233e-07 -2.54186e-06 -7.28454e-06)
(8.20127e-07 -2.49763e-06 -7.81166e-06)
(2.22812e-06 -2.20756e-06 -6.99093e-06)
(-4.76611e-07 4.60782e-07 -1.13664e-05)
(2.51127e-06 -8.22328e-07 -7.81869e-06)
(2.06024e-06 -7.84998e-07 -7.57702e-06)
(-1.10923e-06 5.28055e-08 -1.13546e-05)
(1.19414e-07 -1.4025e-06 -7.24725e-06)
(-3.95841e-06 -2.36759e-10 -6.15984e-06)
(2.08415e-06 -2.62085e-08 -7.77245e-06)
(-1.10924e-06 -5.28429e-08 -1.13549e-05)
(2.06027e-06 7.84804e-07 -7.57721e-06)
(2.51083e-06 8.22428e-07 -7.8184e-06)
(-4.76802e-07 -4.60851e-07 -1.13663e-05)
(5.60412e-07 5.67844e-07 -7.40935e-06)
(-4.16543e-06 -1.2166e-06 -5.90138e-06)
(5.52771e-07 -1.74408e-06 -7.49805e-06)
(-2.46195e-08 -7.52368e-08 -6.81797e-06)
(-1.3926e-06 -2.94878e-06 -7.62967e-06)
(-1.3927e-06 2.94865e-06 -7.62942e-06)
(-6.90823e-08 -5.51455e-11 -6.22715e-06)
(1.42588e-06 2.55172e-06 -6.9821e-06)
(-7.99232e-08 -2.50149e-08 -5.46814e-06)
(-1.577e-06 2.15005e-06 -6.34555e-06)
(2.37983e-08 -1.00092e-08 -4.92505e-06)
(-1.65947e-06 -1.62682e-06 -6.27338e-06)
(2.13132e-06 -1.61444e-06 -6.32881e-06)
(-1.76809e-08 3.30169e-08 -4.91872e-06)
(-1.87711e-06 1.60127e-06 -5.67557e-06)
(2.10141e-06 1.05364e-06 -5.57056e-06)
(-2.44511e-06 -1.07938e-06 -6.32814e-06)
(-4.2691e-08 -6.21519e-08 -5.46651e-06)
(2.56181e-06 1.36151e-06 -6.94807e-06)
(-2.31938e-06 2.04259e-06 -7.13476e-06)
(-6.27827e-08 -4.73674e-08 -5.77117e-06)
(-3.94666e-08 -2.87581e-08 -4.61725e-06)
(-8.32522e-09 -1.62666e-09 -3.61355e-06)
(6.19671e-09 1.07385e-08 -2.75694e-06)
(1.15621e-08 1.54686e-08 -2.0601e-06)
(1.3191e-08 1.76541e-08 -1.5263e-06)
(1.19366e-08 1.58998e-08 -1.15404e-06)
(-3.70685e-08 -6.70077e-08 -1.23844e-06)
(3.3096e-08 3.5219e-08 -1.09263e-06)
(-2.20866e-07 1.73063e-07 -9.00894e-07)
(1.5093e-07 -7.8207e-08 -9.86085e-07)
(-2.63802e-08 -1.76348e-07 -1.04016e-06)
(-1.87486e-07 -3.40137e-08 -9.67717e-07)
(1.03141e-09 -1.93823e-07 -1.46904e-06)
(1.88872e-07 -3.65068e-08 -9.68487e-07)
(-1.53369e-07 -7.49144e-08 -9.82851e-07)
(8.3629e-08 -2.12687e-07 -1.47764e-06)
(2.14061e-07 -5.79703e-08 -9.9501e-07)
(1.84204e-07 -1.80068e-07 -1.05729e-06)
(1.54359e-07 -9.98725e-08 -1.19799e-06)
(1.60496e-07 -8.25548e-08 -1.01167e-06)
(-3.20185e-07 1.89007e-07 -1.08261e-06)
(-6.25193e-08 -6.80613e-08 -7.70128e-07)
(-4.46111e-08 3.91058e-11 -1.2765e-06)
(-1.41874e-08 2.41399e-08 -8.44121e-07)
(8.90203e-08 -1.99931e-07 -1.29443e-06)
(1.9079e-07 6.5971e-08 -1.20128e-06)
(7.68232e-08 -9.08072e-08 -9.80573e-07)
(1.52106e-07 -4.94161e-12 -1.35109e-06)
(7.68189e-08 9.08031e-08 -9.80538e-07)
(1.908e-07 -6.59831e-08 -1.20128e-06)
(8.90074e-08 1.99916e-07 -1.29439e-06)
(1.60492e-07 8.25568e-08 -1.01166e-06)
(-3.20176e-07 -1.89002e-07 -1.08261e-06)
(1.84204e-07 1.80064e-07 -1.05728e-06)
(1.54366e-07 9.98766e-08 -1.19798e-06)
(2.14063e-07 5.79682e-08 -9.9501e-07)
(8.36261e-08 2.12686e-07 -1.47758e-06)
(-1.53369e-07 7.49105e-08 -9.82833e-07)
(1.88874e-07 3.65029e-08 -9.68465e-07)
(-2.95208e-07 -1.48594e-07 -9.37064e-07)
(2.96595e-07 -1.44002e-07 -9.41644e-07)
(-2.20849e-07 -1.7307e-07 -9.00851e-07)
(-2.63667e-08 1.7634e-07 -1.04016e-06)
(-1.87489e-07 3.40045e-08 -9.67685e-07)
(1.50924e-07 7.82131e-08 -9.86094e-07)
(-8.50607e-08 2.08409e-07 -1.47084e-06)
(-2.08403e-07 5.44946e-08 -9.82218e-07)
(-1.43957e-07 9.9963e-08 -1.17809e-06)
(-1.30985e-07 8.98917e-08 -9.74546e-07)
(-8.2646e-08 1.86017e-07 -1.27809e-06)
(9.29282e-09 -8.27522e-08 -8.94448e-07)
(-3.78052e-08 5.04393e-09 -8.63572e-07)
(-2.16957e-07 8.14048e-09 -1.00725e-06)
(1.807e-07 -1.87641e-07 -8.75508e-07)
(1.80595e-07 1.87661e-07 -8.75539e-07)
(-3.77754e-08 -5.07447e-09 -8.63546e-07)
(9.26372e-09 8.27608e-08 -8.94449e-07)
(8.85112e-08 -5.02908e-08 -9.94727e-07)
(-9.13638e-08 -5.2517e-08 -1.05966e-06)
(-1.05043e-07 -4.76306e-10 -1.33325e-06)
(-9.11535e-08 5.23391e-08 -1.05917e-06)
(5.10481e-08 9.03867e-11 -1.22995e-06)
(6.65259e-08 1.02154e-10 -1.17433e-06)
(-1.82546e-07 -1.03381e-07 -8.43365e-07)
(-1.89961e-07 1.01907e-07 -8.47604e-07)
(-1.58671e-07 2.20449e-10 -8.05589e-07)
(-2.00633e-07 8.08707e-09 -1.13615e-06)
(-1.96741e-07 5.40276e-08 -1.10002e-06)
(-2.04091e-07 -5.98816e-08 -7.14172e-07)
(-1.56389e-07 2.43576e-07 -9.56277e-07)
(-2.78591e-07 5.69901e-08 -8.99446e-07)
(-2.54568e-07 2.27947e-07 -8.14808e-07)
(-1.07133e-07 2.69267e-07 -8.98239e-07)
(-1.21563e-07 2.85262e-07 -8.49968e-07)
(-8.82101e-08 2.26723e-07 -8.78443e-07)
(2.16153e-10 2.28246e-07 -9.05973e-07)
(2.70039e-10 2.60916e-07 -8.71735e-07)
(-3.01841e-10 2.27994e-07 -9.0662e-07)
(8.5343e-08 2.3095e-07 -8.79278e-07)
(1.2124e-07 2.91903e-07 -8.46951e-07)
(1.0965e-07 2.72012e-07 -8.95314e-07)
(2.60511e-07 2.38444e-07 -8.15365e-07)
(3.21747e-07 7.74266e-08 -9.33914e-07)
(-7.34507e-08 -1.85248e-08 -1.37628e-06)
(1.90808e-07 4.22128e-08 -1.13438e-06)
(-4.80642e-07 -3.0829e-07 -1.41306e-06)
(5.24453e-07 3.92636e-07 -1.66093e-06)
(-6.01976e-07 -4.14429e-07 -1.92189e-06)
(7.01394e-07 5.09962e-07 -2.22404e-06)
(-8.05168e-07 -5.74199e-07 -2.59684e-06)
(9.45878e-07 6.76094e-07 -3.00854e-06)
(-1.08177e-06 -7.87859e-07 -3.48915e-06)
(1.2605e-06 8.88068e-07 -4.01649e-06)
(-1.43107e-06 -1.05822e-06 -4.60054e-06)
(1.64842e-06 1.13987e-06 -5.24301e-06)
(-1.84883e-06 -1.38957e-06 -5.91636e-06)
(2.11896e-06 1.42322e-06 -6.65571e-06)
(-2.3262e-06 -1.79407e-06 -7.40899e-06)
(2.74092e-06 1.73053e-06 -7.98222e-06)
(-2.74423e-06 1.68906e-06 -7.73269e-06)
(2.91677e-06 1.41494e-06 -7.59241e-06)
(-3.01115e-06 1.34303e-06 -7.6629e-06)
(2.64415e-06 1.88441e-06 -7.68678e-06)
(-2.19898e-06 2.16254e-06 -7.52097e-06)
(-4.93424e-08 2.6075e-08 -6.12723e-06)
(-1.86049e-06 -2.66321e-06 -7.70948e-06)
(5.52754e-07 1.74399e-06 -7.49778e-06)
(-4.16506e-06 1.21646e-06 -5.90131e-06)
(5.60544e-07 -5.67799e-07 -7.40937e-06)
(-1.25485e-06 4.15644e-06 -5.88979e-06)
(4.90988e-07 -5.03298e-07 -9.63355e-06)
(-6.28055e-08 4.71711e-08 -5.7712e-06)
(-3.94616e-08 2.86406e-08 -4.61722e-06)
(-8.35908e-09 1.51866e-09 -3.61351e-06)
(6.14325e-09 -1.08358e-08 -2.7569e-06)
(1.15595e-08 -1.55323e-08 -2.06007e-06)
(1.32013e-08 -1.76908e-08 -1.52627e-06)
(1.19393e-08 -1.59218e-08 -1.15402e-06)
(-3.70732e-08 6.69941e-08 -1.23844e-06)
(3.31062e-08 -3.52023e-08 -1.09262e-06)
(5.99495e-10 2.85005e-09 -7.34592e-07)
(-7.95757e-08 -7.81861e-08 -7.91021e-07)
(-4.6018e-09 2.68922e-08 -1.23428e-06)
(1.1229e-07 -1.00933e-07 -8.12505e-07)
(1.12289e-07 1.00934e-07 -8.12503e-07)
(-7.95876e-08 7.81879e-08 -7.91025e-07)
(5.91134e-10 -2.8633e-09 -7.34594e-07)
(-4.59128e-09 -2.6897e-08 -1.23428e-06)
(3.74738e-08 -3.06151e-08 -7.58645e-07)
(2.9661e-07 1.44015e-07 -9.41632e-07)
(-2.95223e-07 1.48592e-07 -9.37065e-07)
(2.03031e-08 -1.78308e-07 -1.03857e-06)
(2.2784e-07 1.69146e-07 -9.0799e-07)
(-2.19796e-08 4.08755e-08 -1.09561e-06)
(8.59442e-09 -5.60892e-09 -7.40395e-07)
(-3.40245e-08 -2.73279e-08 -7.56449e-07)
(5.62402e-10 2.64942e-08 -1.11534e-06)
(3.35703e-09 -2.55905e-08 -1.22911e-06)
(3.15454e-08 -2.76208e-08 -1.23274e-06)
(1.97687e-08 -1.07415e-11 -1.24178e-06)
(3.15366e-08 2.76147e-08 -1.23272e-06)
(-2.20075e-08 -4.0902e-08 -1.09561e-06)
(-6.25144e-08 6.80645e-08 -7.70112e-07)
(-1.46823e-07 -1.28284e-07 -8.26612e-07)
(-4.46076e-08 -3.86303e-11 -1.27648e-06)
(3.28785e-08 -1.42638e-07 -8.82285e-07)
(3.28634e-08 1.42625e-07 -8.82281e-07)
(-1.4682e-07 1.28267e-07 -8.26605e-07)
(-6.49581e-09 -1.81055e-11 -1.14286e-06)
(9.17596e-08 -8.92854e-08 -8.01985e-07)
(-1.08677e-07 -9.77157e-08 -8.07648e-07)
(-1.08665e-07 9.77007e-08 -8.07627e-07)
(1.87647e-09 -2.55815e-08 -1.2336e-06)
(9.17571e-08 8.92591e-08 -8.0197e-07)
(-2.01334e-09 -1.31659e-08 -1.07206e-06)
(-2.02998e-08 -9.1986e-12 -1.02253e-06)
(-2.66363e-08 -7.22194e-08 -1.00313e-06)
(-2.44384e-08 -3.19045e-08 -9.3288e-07)
(1.1046e-07 9.41614e-08 -1.05489e-06)
(-2.47658e-08 -2.43796e-08 -1.01048e-06)
(-8.31791e-09 4.35361e-12 -1.0507e-06)
(-1.82959e-07 1.30291e-12 -1.42808e-06)
(2.64544e-08 -1.29653e-11 -1.12577e-06)
(-7.28119e-08 -1.35504e-07 -8.28261e-07)
(1.12899e-07 9.78018e-08 -1.19969e-06)
(1.21682e-07 2.72978e-07 -9.02123e-07)
(2.69694e-07 -6.57418e-08 -7.8613e-07)
(1.91465e-07 2.16903e-07 -9.55574e-07)
(-4.94908e-07 -2.8852e-07 -9.97325e-07)
(3.17939e-07 3.32169e-07 -1.4079e-06)
(-5.04445e-07 -3.51234e-07 -1.47504e-06)
(-5.04426e-07 3.51187e-07 -1.47502e-06)
(-1.28019e-08 4.45327e-08 -1.033e-06)
(-4.99675e-07 3.97051e-07 -1.74607e-06)
(1.03276e-08 2.83297e-08 -1.18131e-06)
(5.39871e-07 -4.78224e-07 -2.00785e-06)
(-6.4368e-07 5.38163e-07 -2.342e-06)
(7.39072e-09 1.48536e-08 -1.58713e-06)
(7.33984e-07 -6.37661e-07 -2.70758e-06)
(-8.63123e-07 7.34455e-07 -3.15571e-06)
(1.4562e-09 3.03956e-09 -2.13825e-06)
(9.89251e-07 -8.50442e-07 -3.64038e-06)
(-1.14869e-06 9.87166e-07 -4.19965e-06)
(-8.20066e-09 -1.37696e-08 -2.83649e-06)
(1.30814e-06 -1.11422e-06 -4.80554e-06)
(-1.49235e-06 1.2968e-06 -5.46545e-06)
(-2.45762e-08 -4.86879e-08 -3.67614e-06)
(1.69839e-06 -1.42234e-06 -6.18942e-06)
(-1.8746e-06 1.66366e-06 -6.92863e-06)
(-4.57143e-08 -1.32615e-07 -4.63763e-06)
(2.21768e-06 -1.7635e-06 -7.7131e-06)
(-2.22182e-06 2.07974e-06 -8.66102e-06)
(-1.20495e-07 -3.57248e-07 -5.87975e-06)
(3.3184e-06 -2.24724e-06 -8.93907e-06)
(5.36264e-07 -1.03488e-06 -6.11345e-06)
(3.82549e-06 -2.30006e-06 -7.76727e-06)
(3.82543e-06 2.29993e-06 -7.76717e-06)
(-3.50261e-07 -1.35932e-07 -8.10363e-06)
(8.29409e-07 -6.23574e-07 -8.08369e-06)
(-3.081e-07 1.19271e-06 -7.32555e-06)
(1.20801e-06 1.06423e-06 -6.80468e-06)
(5.91814e-08 -6.47931e-11 -9.7286e-06)
(-7.72558e-07 -7.56791e-07 -6.52002e-06)
(-7.72549e-07 7.5678e-07 -6.52007e-06)
(8.36463e-07 7.89213e-07 -6.57091e-06)
(-4.22921e-08 -5.69818e-11 -9.74573e-06)
(-9.88682e-07 -9.51298e-07 -6.65637e-06)
(-9.88618e-07 9.51228e-07 -6.65635e-06)
(2.64868e-07 3.83777e-07 -6.30668e-06)
(-3.12333e-07 -1.50631e-10 -9.58838e-06)
(-1.38356e-06 -2.47221e-06 -7.99544e-06)
(-1.38344e-06 2.47185e-06 -7.99522e-06)
(4.52961e-07 -1.53317e-06 -9.06057e-06)
(1.94414e-06 -2.15891e-10 -1.27743e-05)
(4.52915e-07 1.53271e-06 -9.06041e-06)
(7.3227e-07 -1.19505e-06 -9.20349e-06)
(2.12224e-06 7.59664e-07 -1.26255e-05)
(8.89621e-07 1.74972e-06 -9.16514e-06)
(1.21745e-06 1.21364e-06 -1.0647e-05)
(1.61e-06 1.60588e-06 -9.36791e-06)
(-2.38816e-06 -2.36815e-06 -9.15739e-06)
(-1.3904e-06 1.68988e-06 -7.59811e-06)
(1.39263e-06 2.25555e-07 -8.88617e-06)
(8.9194e-07 1.43168e-07 -1.01885e-05)
(-2.1191e-10 2.46519e-08 -9.56718e-06)
(2.64855e-07 -3.83903e-07 -6.30672e-06)
(-1.57864e-07 -1.38903e-07 -6.01365e-06)
(-4.0211e-07 -3.92498e-07 -9.44396e-06)
(1.67996e-06 -1.35713e-06 -7.62959e-06)
(-1.21497e-06 7.28655e-07 -9.20668e-06)
(7.53336e-07 2.09415e-06 -1.26259e-05)
(1.74981e-06 8.87124e-07 -9.17101e-06)
(1.00035e-06 1.00223e-06 -1.01862e-05)
(-5.25277e-07 -5.11538e-07 -9.2547e-06)
(-7.08869e-07 -8.29281e-11 -9.3545e-06)
(-5.25156e-07 5.11546e-07 -9.25471e-06)
(-4.02085e-07 3.92507e-07 -9.44394e-06)
(-1.39015e-06 -1.6898e-06 -7.59799e-06)
(-2.38814e-06 2.36813e-06 -9.15739e-06)
(8.89934e-07 -1.74971e-06 -9.16503e-06)
(2.12255e-06 -7.59431e-07 -1.26252e-05)
(7.32503e-07 1.19487e-06 -9.20343e-06)
(1.39284e-06 -2.25805e-07 -8.88632e-06)
(8.92098e-07 -1.43392e-07 -1.01886e-05)
(1.00051e-06 -1.00203e-06 -1.01859e-05)
(1.74973e-06 -8.87147e-07 -9.17136e-06)
(7.53047e-07 -2.09396e-06 -1.26253e-05)
(-1.21502e-06 -7.28675e-07 -9.2067e-06)
(1.67991e-06 1.35708e-06 -7.62956e-06)
(2.10186e-07 -1.40159e-06 -8.8777e-06)
(1.50904e-06 -4.97506e-07 -9.12075e-06)
(-3.85557e-08 -1.93985e-06 -1.27839e-05)
(-1.576e-06 -4.37552e-07 -9.07331e-06)
(2.45919e-06 1.2796e-06 -8.0208e-06)
(-3.9498e-08 3.04483e-07 -9.60285e-06)
(-4.39521e-07 -2.99813e-07 -6.30487e-06)
(-2.53306e-06 1.39126e-06 -8.0044e-06)
(-4.76639e-08 -2.75177e-07 -9.2637e-06)
(-2.96917e-07 -3.31215e-07 -9.35756e-06)
(1.67878e-08 1.58103e-08 -6.12858e-06)
(1.40159e-08 -8.377e-09 -4.91871e-06)
(6.71443e-09 -2.70612e-08 -3.85665e-06)
(3.82015e-09 -3.19513e-08 -2.94578e-06)
(2.04632e-09 -3.09849e-08 -2.20302e-06)
(-8.44085e-11 -2.85585e-08 -1.63266e-06)
(-1.55387e-09 -2.47556e-08 -1.2343e-06)
(-9.56814e-09 -3.01405e-08 -1.22438e-06)
(4.82918e-07 -2.91959e-07 -1.37384e-06)
(-5.21671e-07 -2.48894e-07 -1.35533e-06)
(5.27174e-07 -2.24564e-07 -1.36049e-06)
(-4.73263e-07 -3.40634e-07 -1.36822e-06)
(5.10036e-07 4.42897e-07 -1.58116e-06)
(-6.16201e-07 -4.70022e-07 -1.83347e-06)
(6.96262e-07 5.82363e-07 -2.11425e-06)
(-8.27627e-07 -6.51993e-07 -2.47887e-06)
(9.46678e-07 7.72952e-07 -2.86166e-06)
(-1.10838e-06 -8.97065e-07 -3.334e-06)
(1.26963e-06 1.01427e-06 -3.82258e-06)
(-1.46011e-06 -1.21201e-06 -4.40286e-06)
(1.66734e-06 1.29913e-06 -4.99083e-06)
(-1.87697e-06 -1.60125e-06 -5.67562e-06)
(2.13113e-06 1.61454e-06 -6.32855e-06)
(-2.31934e-06 -2.04264e-06 -7.13482e-06)
(-3.86448e-08 4.08757e-08 -6.12219e-06)
(1.95286e-06 -1.9429e-06 -6.85294e-06)
(1.97959e-06 2.30962e-06 -7.11206e-06)
(1.4262e-06 -2.55192e-06 -6.98234e-06)
(-1.14286e-06 2.3989e-06 -6.31786e-06)
(2.16262e-08 -1.06813e-10 -5.02972e-06)
(-1.14269e-06 -2.39905e-06 -6.318e-06)
(1.11919e-06 2.08284e-06 -5.59032e-06)
(1.54417e-06 -1.87092e-06 -5.66391e-06)
(1.53078e-06 1.51674e-06 -5.49303e-06)
(-1.29754e-06 -1.27191e-06 -4.89896e-06)
(-1.26233e-06 1.68129e-06 -5.00094e-06)
(3.71057e-08 8.37695e-09 -3.8446e-06)
(1.16776e-06 1.15358e-06 -4.28045e-06)
(4.59042e-09 4.42527e-08 -3.83895e-06)
(1.6676e-06 -1.29903e-06 -4.99102e-06)
(-2.27463e-08 -4.82553e-08 -4.35293e-06)
(-1.90861e-06 -8.59197e-07 -4.97381e-06)
(1.86246e-06 -9.83351e-07 -4.95704e-06)
(-3.8169e-09 4.33196e-08 -3.92216e-06)
(-1.63425e-06 9.12076e-07 -4.36169e-06)
(1.51189e-06 9.96682e-07 -4.35917e-06)
(-1.74775e-06 -1.09943e-06 -4.98356e-06)
(-4.40787e-09 -5.40423e-08 -4.35775e-06)
(-2.09897e-06 1.20096e-06 -5.61099e-06)
(-7.3123e-09 2.43171e-08 -5.01458e-06)
(2.37501e-06 -1.2124e-06 -6.28336e-06)
(-2.57673e-06 1.5132e-06 -7.02359e-06)
(-1.30375e-08 -6.6137e-08 -6.213e-06)
(-3.0111e-06 -1.34303e-06 -7.66282e-06)
(-9.14378e-08 -2.25534e-09 -6.82459e-06)
(1.38222e-06 9.59087e-08 -7.21411e-06)
(-6.31223e-08 -1.09135e-06 -1.13541e-05)
(2.10219e-07 1.40146e-06 -8.87769e-06)
(-2.53309e-06 -1.39135e-06 -8.00437e-06)
(-4.39504e-07 2.99701e-07 -6.30482e-06)
(8.15444e-08 1.04287e-07 -9.3828e-06)
(-3.04337e-08 -1.00295e-08 -7.21939e-06)
(-2.9118e-08 -6.87311e-11 -6.45568e-06)
(-2.47077e-08 2.76853e-08 -6.04999e-06)
(-1.55346e-08 2.87649e-09 -4.86697e-06)
(-7.96745e-09 -1.68362e-08 -3.8155e-06)
(-3.6465e-09 -2.36941e-08 -2.91361e-06)
(-1.41718e-09 -2.45378e-08 -2.17813e-06)
(-3.08713e-10 -2.35266e-08 -1.61382e-06)
(4.94997e-10 -2.05048e-08 -1.21923e-06)
(3.35927e-09 2.55762e-08 -1.22909e-06)
(5.45915e-10 -2.65002e-08 -1.11534e-06)
(-3.40277e-08 2.73325e-08 -7.56455e-07)
(1.85698e-09 2.55631e-08 -1.23359e-06)
(8.59284e-09 5.62434e-09 -7.40384e-07)
(2.27836e-07 -1.69148e-07 -9.07992e-07)
(2.02917e-08 1.78301e-07 -1.03856e-06)
(-9.18574e-09 -1.22745e-07 -1.44893e-06)
(-2.58996e-07 8.31093e-08 -1.07178e-06)
(2.27601e-07 4.67437e-08 -1.06498e-06)
(-2.2694e-07 3.79572e-08 -1.05885e-06)
(2.50875e-07 1.04372e-07 -1.08193e-06)
(-1.00938e-07 7.34656e-08 -1.02128e-06)
(4.94047e-07 -2.015e-08 -8.10592e-07)
(-1.29532e-07 -2.82927e-07 -1.13256e-06)
(3.22806e-07 4.6305e-07 -1.36412e-06)
(2.16231e-08 1.39675e-09 -1.21664e-06)
(-4.17917e-07 -5.14958e-07 -1.60612e-06)
(-4.2126e-07 4.18005e-07 -1.51809e-06)
(3.95455e-07 -3.58986e-07 -1.33298e-06)
(1.24733e-08 -2.92395e-08 -1.20488e-06)
(-9.27928e-09 2.18366e-08 -1.29842e-06)
(-5.49091e-08 1.47394e-07 -1.14668e-06)
(1.52104e-09 1.49964e-07 -1.15088e-06)
(6.23869e-08 1.48757e-07 -1.14691e-06)
(1.23135e-07 9.27752e-08 -1.13304e-06)
(1.56463e-07 1.0351e-07 -1.06985e-06)
(6.68765e-10 6.73331e-09 -1.30044e-06)
(2.41491e-08 4.0435e-08 -1.32672e-06)
(6.00931e-08 4.43928e-08 -1.1551e-06)
(7.83428e-09 2.26145e-08 -1.30257e-06)
(-9.24899e-09 -2.07371e-08 -1.72327e-06)
(-3.40442e-09 5.74173e-09 -1.75778e-06)
(-1.52689e-08 -8.77818e-09 -1.71807e-06)
(-2.63851e-08 -1.96474e-08 -2.31562e-06)
(-2.1341e-08 -1.7158e-08 -2.38177e-06)
(1.36067e-08 1.41675e-08 -2.04574e-06)
(1.86011e-08 2.01604e-08 -1.51356e-06)
(6.49776e-09 2.17532e-08 -1.47469e-06)
(-5.31428e-07 3.82493e-07 -1.56464e-06)
(5.73301e-07 3.36376e-07 -1.57159e-06)
(-6.85993e-07 -3.4725e-07 -1.81796e-06)
(6.92416e-07 -3.03543e-07 -1.81892e-06)
(-2.06328e-09 1.684e-08 -1.38913e-06)
(-5.80733e-07 3.03919e-07 -1.563e-06)
(9.4942e-11 -3.29057e-08 -1.23345e-06)
(2.24388e-10 2.90763e-08 -1.30488e-06)
(3.20489e-10 -1.74285e-08 -1.72478e-06)
(6.73655e-10 -5.39255e-08 -2.34415e-06)
(-1.65073e-08 -5.49249e-08 -2.34061e-06)
(-2.4148e-08 -9.34139e-08 -3.14601e-06)
(-4.28379e-08 -4.13713e-08 -3.19791e-06)
(-4.04667e-08 -3.23784e-08 -3.09756e-06)
(-5.86985e-08 -4.86188e-08 -4.06166e-06)
(-7.42369e-08 -7.75725e-08 -4.20561e-06)
(-4.76241e-11 -1.3518e-09 -3.6735e-06)
(8.81439e-09 8.04236e-09 -2.76403e-06)
(8.84217e-09 1.69795e-08 -2.69188e-06)
(-9.93095e-07 6.48486e-07 -2.8478e-06)
(1.06287e-06 5.89911e-07 -2.84394e-06)
(-1.23927e-06 -6.74246e-07 -3.3062e-06)
(1.24841e-06 -5.83665e-07 -3.29617e-06)
(-8.56425e-09 3.22036e-08 -2.52925e-06)
(-1.08298e-06 5.14806e-07 -2.84127e-06)
(9.31589e-07 -4.22242e-07 -2.45498e-06)
(-5.39609e-09 2.47968e-08 -1.87466e-06)
(-7.96144e-07 3.92606e-07 -2.09564e-06)
(-4.81666e-10 -3.22439e-08 -1.64251e-06)
(7.83182e-07 4.45401e-07 -2.10164e-06)
(-9.23801e-07 -4.87472e-07 -2.45896e-06)
(2.15236e-09 2.61717e-08 -1.87934e-06)
(-7.29416e-07 4.92017e-07 -2.09981e-06)
(6.37947e-07 -3.95625e-07 -1.83121e-06)
(2.29408e-09 1.82004e-08 -1.39226e-06)
(1.91608e-10 3.18902e-09 -1.54378e-06)
(-1.30778e-08 -1.12462e-08 -1.47738e-06)
(-4.99618e-07 -3.96983e-07 -1.74603e-06)
(1.6329e-08 5.02146e-09 -1.01617e-06)
(3.98221e-07 3.69737e-07 -1.55277e-06)
(1.71298e-08 -5.26655e-08 -9.39419e-07)
(-4.80039e-07 -3.2109e-07 -1.30195e-06)
(-2.63522e-07 -6.70439e-08 -7.88946e-07)
(8.31328e-08 -2.68026e-08 -9.38034e-07)
(-2.28315e-08 -3.92668e-09 -1.11237e-06)
(-1.30059e-09 8.85252e-09 -1.14861e-06)
(-4.42649e-09 2.18779e-08 -1.09671e-06)
(5.67532e-09 4.87346e-08 -1.13654e-06)
(-6.62572e-09 4.7224e-08 -1.13595e-06)
(1.03505e-08 -1.25725e-07 -1.44329e-06)
(-5.58602e-08 4.65241e-08 -1.18462e-06)
(-9.8881e-08 9.19722e-08 -1.12796e-06)
(-6.87133e-08 5.79843e-08 -1.11024e-06)
(4.02109e-09 9.62458e-09 -1.31566e-06)
(-3.44114e-08 2.9737e-08 -1.30046e-06)
(-2.34613e-08 2.29813e-08 -1.53661e-06)
(-7.9932e-09 2.08474e-08 -1.47263e-06)
(9.52806e-09 -2.11049e-08 -1.71503e-06)
(1.93857e-08 -5.6046e-08 -2.32978e-06)
(2.99919e-08 -9.62299e-08 -3.13471e-06)
(9.28743e-10 -9.54009e-08 -3.15372e-06)
(9.05032e-10 -1.55222e-07 -4.14942e-06)
(-3.43863e-08 -1.47244e-07 -4.13578e-06)
(-5.36504e-08 -2.40061e-07 -5.30095e-06)
(-1.29316e-07 -1.50502e-07 -5.40076e-06)
(-8.32655e-08 -7.19299e-08 -5.19525e-06)
(-1.55923e-07 -1.43217e-07 -6.45421e-06)
(-2.89882e-07 -3.51099e-07 -6.80501e-06)
(-6.42379e-08 -5.73056e-08 -6.02731e-06)
(-1.8352e-08 -1.95034e-08 -4.7698e-06)
(5.66945e-09 1.34251e-09 -4.66499e-06)
(-1.74767e-06 1.09945e-06 -4.98335e-06)
(1.86239e-06 9.83495e-07 -4.95692e-06)
(-2.09901e-06 -1.2009e-06 -5.61092e-06)
(2.10146e-06 -1.05347e-06 -5.57048e-06)
(-2.27776e-08 4.82203e-08 -4.35296e-06)
(-1.90844e-06 8.59248e-07 -4.97374e-06)
(1.64284e-06 -7.92218e-07 -4.34168e-06)
(-1.33547e-08 3.95726e-08 -3.35812e-06)
(-1.45217e-06 6.71164e-07 -3.80096e-06)
(-1.93299e-09 -4.18601e-08 -2.98698e-06)
(1.42182e-06 7.71222e-07 -3.79782e-06)
(-1.6342e-06 -9.11979e-07 -4.36169e-06)
(-7.72807e-10 4.31566e-08 -3.3637e-06)
(-1.33203e-06 8.51604e-07 -3.80929e-06)
(1.15054e-06 -7.40529e-07 -3.31168e-06)
(1.20099e-09 3.43733e-08 -2.5348e-06)
(4.43081e-10 5.92242e-09 -2.79996e-06)
(8.12283e-10 4.6243e-09 -2.07968e-06)
(-1.3631e-08 -1.4701e-08 -1.98531e-06)
(-6.43657e-07 -5.38097e-07 -2.34199e-06)
(8.89964e-09 2.71544e-09 -1.3586e-06)
(5.39881e-07 4.78239e-07 -2.00781e-06)
(1.03732e-08 -2.83285e-08 -1.18131e-06)
(3.77499e-08 -7.7539e-09 -1.20022e-06)
(-6.24654e-07 -4.7709e-07 -1.95357e-06)
(6.82568e-07 5.76167e-07 -2.2703e-06)
(-8.29669e-07 -6.4954e-07 -2.63014e-06)
(-8.29677e-07 6.49489e-07 -2.63006e-06)
(-1.95592e-09 1.3168e-08 -1.83236e-06)
(9.35129e-07 -7.73771e-07 -3.05261e-06)
(8.93202e-09 6.98948e-09 -2.17384e-06)
(-1.10866e-06 8.77451e-07 -3.52867e-06)
(-1.47774e-09 4.43424e-09 -2.44972e-06)
(1.25267e-06 -1.02607e-06 -4.06133e-06)
(-2.90221e-09 8.3348e-09 -2.88143e-06)
(-1.45198e-06 1.16134e-06 -4.64955e-06)
(-1.23446e-10 -1.23599e-08 -3.21126e-06)
(1.63978e-06 -1.32738e-06 -5.28491e-06)
(-3.19696e-08 6.68288e-09 -3.72755e-06)
(-1.8303e-06 1.49779e-06 -5.98162e-06)
(1.03344e-08 -5.84059e-08 -4.10639e-06)
(2.10879e-06 -1.66168e-06 -6.68509e-06)
(-1.24726e-07 -8.83016e-09 -4.68649e-06)
(-2.16132e-06 1.87852e-06 -7.51578e-06)
(6.49529e-08 -2.13278e-07 -5.10658e-06)
(2.74063e-06 -1.95595e-06 -8.07237e-06)
(-4.64706e-07 -1.60726e-07 -5.76748e-06)
(-2.12357e-06 2.18709e-06 -9.36306e-06)
(-2.84781e-07 -1.0405e-10 -7.48851e-06)
(-2.12351e-06 -2.18717e-06 -9.36302e-06)
(5.36277e-07 1.03468e-06 -6.11345e-06)
(3.31841e-06 2.24741e-06 -8.93878e-06)
(-1.20401e-07 3.57117e-07 -5.87968e-06)
(-2.22168e-06 -2.07964e-06 -8.6611e-06)
(-9.35413e-08 -2.3229e-08 -5.09216e-06)
(2.21765e-06 1.76346e-06 -7.71301e-06)
(-4.55269e-08 1.32488e-07 -4.63756e-06)
(-1.87453e-06 -1.66355e-06 -6.92862e-06)
(-4.85322e-08 -7.62079e-09 -4.12447e-06)
(1.69851e-06 1.42255e-06 -6.18935e-06)
(-2.44087e-08 4.85954e-08 -3.67614e-06)
(-1.49209e-06 -1.29664e-06 -5.4655e-06)
(-2.20458e-08 -3.62534e-09 -3.22861e-06)
(1.30824e-06 1.11438e-06 -4.80553e-06)
(-8.07113e-09 1.36391e-08 -2.83642e-06)
(-1.14863e-06 -9.87097e-07 -4.19969e-06)
(-8.01226e-09 -9.56975e-10 -2.4615e-06)
(9.8927e-07 8.50521e-07 -3.64027e-06)
(1.57263e-09 -3.09804e-09 -2.13821e-06)
(-8.6309e-07 -7.34381e-07 -3.15573e-06)
(1.06923e-09 1.03387e-09 -1.83752e-06)
(7.33991e-07 6.37712e-07 -2.70752e-06)
(7.48392e-09 -1.48587e-08 -1.58711e-06)
(1.95056e-08 -6.17615e-09 -1.61367e-06)
(-2.46754e-08 -2.29684e-08 -2.03841e-06)
(-2.69662e-08 -1.72175e-08 -1.53184e-06)
(-2.66995e-08 -6.0369e-09 -1.19648e-06)
(1.51565e-07 7.3459e-08 -1.05894e-06)
(1.36712e-08 -3.09029e-11 -1.02491e-06)
(-5.67332e-08 -4.33231e-12 -1.08897e-06)
(-6.72707e-08 -6.10395e-11 -1.33048e-06)
(-6.89619e-08 -6.19447e-12 -1.72674e-06)
(-7.7251e-08 2.41505e-11 -2.30672e-06)
(-9.06414e-08 4.41396e-11 -3.07312e-06)
(-9.65837e-08 1.13415e-10 -4.01933e-06)
(-6.30556e-08 4.03062e-10 -5.12798e-06)
(5.64486e-08 1.28736e-10 -6.35331e-06)
(1.96662e-07 -7.09521e-11 -7.42068e-06)
(-1.60361e-07 -1.87668e-10 -8.27365e-06)
(-1.3428e-06 6.3678e-07 -8.2099e-06)
(-1.34282e-06 -6.36908e-07 -8.20983e-06)
(-1.38746e-06 -8.88858e-07 -7.71098e-06)
(-1.14329e-06 -8.47655e-07 -8.88662e-06)
(-4.20832e-07 -2.57795e-07 -7.33208e-06)
(-1.4974e-07 -4.53311e-07 -6.66257e-06)
(-6.18507e-07 -1.42166e-06 -8.66567e-06)
(1.02611e-06 4.27717e-06 -6.01646e-06)
(1.69185e-06 -4.07722e-07 -7.347e-06)
(2.95369e-08 1.85637e-08 -6.83116e-06)
(6.11276e-09 -1.84281e-08 -7.01758e-06)
(1.02521e-07 -2.42067e-08 -6.81017e-06)
(-4.64642e-07 1.60762e-07 -5.76738e-06)
(2.74047e-06 1.95603e-06 -8.07224e-06)
(6.50002e-08 2.13176e-07 -5.10657e-06)
(-2.16131e-06 -1.87849e-06 -7.51581e-06)
(-1.94403e-07 -4.57587e-11 -5.99795e-06)
(-5.41865e-08 -5.01949e-11 -6.16367e-06)
(-5.49001e-08 -5.67854e-11 -4.93725e-06)
(1.04768e-08 5.83575e-08 -4.10633e-06)
(-1.83027e-06 -1.49782e-06 -5.98168e-06)
(2.10876e-06 1.66167e-06 -6.68492e-06)
(-1.24683e-07 8.8242e-09 -4.68654e-06)
(1.73822e-09 -1.72345e-08 -5.74144e-06)
(-1.58001e-08 -2.11468e-08 -4.5696e-06)
(-3.19579e-08 -6.72373e-09 -3.72753e-06)
(1.63959e-06 1.32737e-06 -5.28479e-06)
(-4.52216e-11 1.23044e-08 -3.21127e-06)
(-1.45188e-06 -1.16144e-06 -4.6497e-06)
(-3.48409e-08 -1.10507e-11 -3.74882e-06)
(-4.96316e-08 -4.67483e-11 -3.86797e-06)
(-4.22451e-08 -5.48211e-11 -2.95516e-06)
(-3.33232e-08 -4.68223e-11 -2.21274e-06)
(-1.88766e-09 -1.32765e-08 -1.83236e-06)
(9.35134e-07 7.73721e-07 -3.05248e-06)
(-1.10865e-06 -8.77527e-07 -3.52878e-06)
(1.25264e-06 1.02606e-06 -4.0612e-06)
(-2.86274e-09 -8.31939e-09 -2.88135e-06)
(-1.79982e-08 -2.0801e-08 -3.53545e-06)
(-1.60297e-08 -1.81476e-08 -2.67055e-06)
(1.77832e-09 -4.70512e-11 -2.32991e-06)
(8.01987e-10 -3.06365e-11 -1.72819e-06)
(-1.42696e-09 -1.29134e-11 -1.31206e-06)
(-1.45421e-08 -1.92109e-11 -1.25262e-06)
(-1.27733e-08 -4.45944e-08 -1.03301e-06)
(4.87866e-07 4.34047e-07 -1.71747e-06)
(3.20322e-08 -1.73193e-11 -1.22205e-06)
(4.87878e-07 -4.3411e-07 -1.71751e-06)
(3.76735e-08 7.73548e-09 -1.20024e-06)
(-6.24652e-07 4.77035e-07 -1.95354e-06)
(-4.21542e-09 2.27629e-08 -1.36147e-06)
(6.82607e-07 -5.76255e-07 -2.2704e-06)
(1.95038e-08 6.14386e-09 -1.61368e-06)
(-1.3627e-08 1.46374e-08 -1.98532e-06)
(-2.3551e-08 -2.53442e-11 -1.64476e-06)
(-4.18629e-09 -2.28506e-08 -1.36145e-06)
(1.26856e-08 -2.15088e-11 -1.59508e-06)
(-1.30579e-08 1.11985e-08 -1.47738e-06)
(-2.28168e-08 3.9033e-09 -1.11238e-06)
(-4.80059e-07 3.21102e-07 -1.30196e-06)
(1.71388e-08 5.26476e-08 -9.39444e-07)
(3.98225e-07 -3.69737e-07 -1.55282e-06)
(8.30917e-08 2.67844e-08 -9.38063e-07)
(3.17919e-07 -3.32194e-07 -1.40793e-06)
(-7.28127e-08 1.35501e-07 -8.28274e-07)
(-4.9494e-07 2.88512e-07 -9.97325e-07)
(3.97505e-08 -3.0845e-13 -1.04107e-06)
(1.91461e-07 -2.16892e-07 -9.55587e-07)
(2.69674e-07 6.57404e-08 -7.86129e-07)
(1.21678e-07 -2.73027e-07 -9.02136e-07)
(3.21773e-07 -7.7433e-08 -9.33925e-07)
(1.12897e-07 -9.77997e-08 -1.19971e-06)
(3.94296e-08 -1.1569e-08 -9.64579e-07)
(-1.02425e-07 -6.29852e-08 -9.2312e-07)
(5.68863e-08 -3.20945e-08 -1.0868e-06)
(-2.47749e-08 2.43768e-08 -1.0105e-06)
(-2.66291e-08 7.22144e-08 -1.00314e-06)
(1.10458e-07 -9.41697e-08 -1.05491e-06)
(-2.44548e-08 3.19184e-08 -9.32808e-07)
(1.6824e-08 -9.76814e-08 -1.07868e-06)
(8.84845e-10 7.22866e-08 -1.01373e-06)
(1.06225e-09 -9.3961e-12 -1.04108e-06)
(8.71774e-10 -7.22844e-08 -1.0137e-06)
(3.08929e-10 -3.55316e-08 -9.3365e-07)
(1.02957e-09 1.93811e-07 -1.46897e-06)
(1.68282e-08 9.7684e-08 -1.07868e-06)
(-2.00608e-09 1.31706e-08 -1.07206e-06)
(5.68876e-08 3.20974e-08 -1.08679e-06)
(-1.4184e-08 -2.41284e-08 -8.44128e-07)
(-1.02425e-07 6.29767e-08 -9.23098e-07)
(3.94479e-08 1.15661e-08 -9.64583e-07)
(9.05338e-10 1.35309e-08 -1.07244e-06)
(3.28667e-08 -6.93166e-08 -9.9687e-07)
(2.79587e-08 -2.93487e-08 -9.28127e-07)
(-1.76427e-08 9.74129e-08 -1.0803e-06)
(-1.08095e-07 9.07226e-08 -1.05169e-06)
(3.27841e-08 -2.08682e-08 -1.00527e-06)
(-5.65435e-08 2.32309e-08 -1.0627e-06)
(1.05528e-07 1.2838e-07 -7.94993e-07)
(3.22649e-07 -1.86523e-07 -1.07325e-06)
(-1.84897e-07 1.72892e-07 -1.06798e-06)
(6.43136e-08 -2.61074e-08 -1.4003e-06)
(2.96853e-08 -1.48993e-12 -1.01617e-06)
(1.64883e-08 -4.03963e-13 -1.13295e-06)
(1.35221e-08 1.74738e-12 -1.21847e-06)
(2.31398e-09 -6.54591e-12 -1.22803e-06)
(-1.51685e-10 -6.17531e-12 -1.15417e-06)
(3.07423e-10 -1.31025e-11 -1.30922e-06)
(-6.17522e-10 -1.10718e-11 -1.72528e-06)
(-1.70663e-09 -1.25174e-11 -2.32731e-06)
(-4.07384e-09 -3.18174e-11 -3.11131e-06)
(1.95039e-09 -4.60421e-11 -3.11397e-06)
(2.41142e-09 -2.34339e-11 -4.07546e-06)
(6.26426e-09 -3.66606e-11 -5.19587e-06)
(1.86899e-08 -5.87721e-11 -6.4687e-06)
(-1.54012e-07 -4.41675e-11 -9.07651e-06)
(-3.87637e-07 -4.94751e-11 -8.33678e-06)
(1.61501e-06 -1.11788e-10 -1.22566e-05)
(-3.08101e-07 -1.19284e-06 -7.32552e-06)