/*--------------------------------*- C++ -*----------------------------------*\
| =========                 |                                                 |
| \\      /  F ield         | OpenFOAM: The Open Source CFD Toolbox           |
|  \\    /   O peration     | Version:  2306                                  |
|   \\  /    A nd           | Website:  www.openfoam.com                      |
|    \\/     M anipulation  |                                                 |
\*---------------------------------------------------------------------------*/
FoamFile
{
    version     2.0;
    format      ascii;
    arch        "LSB;label=32;scalar=64";
    class       volScalarField;
    location    "2.8";
    object      gradTx;
}
// * * * * * * * * * * * * * * * * * * * * * * * * * * * * * * * * * * * * * //

dimensions      [0 -1 0 1 0 0 0];

internalField   nonuniform List<scalar> 
2658
(
0.00867992
0.0126351
0.00405025
-0.00042096
-0.0187932
-0.0159022
0.0169224
0.0166922
-0.000329255
0.0225998
-0.0150257
-0.010725
0.0070082
0.00842963
0.00648003
-0.000626787
-0.000288221
-4.56041e-05
-0.0071153
-0.00916729
-0.00863404
-0.0200886
-0.024173
0.018289
-0.00779487
-0.00948994
-0.0204432
-0.00299388
-0.014975
-0.0160135
-0.0149749
-0.0204435
-0.0094917
-0.0241752
-0.00779462
0.0182892
-0.0102607
0.00465792
-0.0200847
-0.00863562
-0.00916643
-0.00711284
-4.58981e-05
0.000616129
-0.012615
0.0118138
-0.0150259
-0.000539952
-0.0006294
0.00647881
0.00842934
0.00700963
0.0190438
-0.0040736
0.0214639
0.0176089
-0.0094806
0.00102063
-0.0338325
0.0178132
-0.00948072
0.0176092
0.0214601
-0.00407523
0.00478985
-0.035602
0.00472454
-0.000210423
-0.0119025
-0.0119034
-0.000590447
0.012187
-0.000683104
-0.0134786
0.000203404
-0.0141835
0.0182164
-0.000151118
-0.0160437
0.0179608
-0.0208984
-0.00036488
0.0218958
-0.0198237
-0.000536604
-0.000337321
-7.11558e-05
5.29634e-05
9.88214e-05
0.000112743
0.000102023
-0.000316825
0.000282872
-0.00188775
0.00129
-0.000225472
-0.00160245
8.81545e-06
0.00161429
-0.00131084
0.000714778
0.00182958
0.00157439
0.00131931
0.00137176
-0.00273662
-0.000534353
-0.000381291
-0.00012126
0.000760857
0.00163068
0.000656609
0.00130005
0.000656572
0.00163077
0.000760747
0.00137173
-0.00273655
0.00157439
0.00131937
0.00182959
0.000714753
-0.00131085
0.0016143
-0.00252315
0.002535
-0.0018876
-0.000225357
-0.00160247
0.00128995
-0.000727015
-0.00178122
-0.0012304
-0.00111953
-0.000706376
7.94258e-05
-0.000323122
-0.00185434
0.00154445
0.00154355
-0.000322867
7.91771e-05
0.000756506
-0.000780888
-0.000897805
-0.000779089
0.000436308
0.000568597
-0.00156022
-0.00162359
-0.00135616
-0.00171481
-0.00168154
-0.00174437
-0.00133666
-0.00238112
-0.00217579
-0.000915666
-0.001039
-0.000753932
1.84746e-06
2.30803e-06
-2.57983e-06
0.000729427
0.00103624
0.000937183
0.00222659
0.00274997
-0.000627784
0.00163084
-0.00410805
0.0044825
-0.0051451
0.00599482
-0.00688178
0.00808443
-0.00924592
0.0107735
-0.0122313
0.0140891
-0.015802
0.0181108
-0.0198821
0.0234267
-0.0234549
0.0249297
-0.0257364
0.0225996
-0.0187947
-0.00042173
-0.0159017
0.00472439
-0.0355988
0.00479097
-0.0107252
0.00419648
-0.000536799
-0.000337279
-7.14451e-05
5.25064e-05
9.87988e-05
0.000112831
0.000102045
-0.000316865
0.000282959
5.12389e-06
-0.000680135
-3.93316e-05
0.000959743
0.000959731
-0.000680236
5.05243e-06
-3.92417e-05
0.000320289
0.00253512
-0.00252327
0.000173531
0.00194735
-0.00018786
7.34565e-05
-0.000290808
4.80685e-06
2.86926e-05
0.000269619
0.000168963
0.000269543
-0.000188099
-0.000534311
-0.0012549
-0.000381261
0.000281012
0.000280884
-0.00125487
-5.55197e-05
0.00078427
-0.000928864
-0.000928765
1.60382e-05
0.000784248
-1.7208e-05
-0.000173503
-0.000227661
-0.000208875
0.000944103
-0.000211674
-7.10932e-05
-0.00156376
0.000226106
-0.000622324
0.000964946
0.00104002
0.00230508
0.00163646
-0.00422999
0.00271743
-0.0043115
-0.00431133
-0.000109418
-0.00427073
8.82698e-05
0.00461429
-0.00550154
6.31685e-05
0.00627337
-0.00737712
1.24462e-05
0.00845513
-0.00981788
-7.00911e-05
0.0111807
-0.0127552
-0.000210053
0.0145161
-0.0160222
-0.00039072
0.0189546
-0.0189899
-0.00102987
0.0283624
0.00458345
0.0326965
0.032696
-0.00299369
0.00708897
-0.00263333
0.0103248
0.000505824
-0.00660306
-0.00660298
0.00714925
-0.000361471
-0.00845027
-0.00844973
0.00226383
-0.00266951
-0.0118253
-0.0118243
0.00387146
0.0166165
0.00387107
0.00625872
0.0181388
0.0076036
0.0104055
0.0137606
-0.0204116
-0.0118837
0.0119028
0.00762341
-1.81119e-06
0.00226372
-0.00134927
-0.00343684
0.0143586
-0.0103844
0.00643877
0.0149557
0.00855002
-0.00448954
-0.00605871
-0.00448851
-0.00343662
-0.0118816
-0.0204114
0.00760627
0.0181415
0.00626071
0.0119046
0.00762477
0.00855137
0.014955
0.0064363
-0.0103848
0.0143582
0.00179646
0.0128978
-0.000329536
-0.01347
0.0210187
-0.00033759
-0.00375659
-0.0216501
-0.000407384
-0.00253776
0.000143485
0.000119794
5.73883e-05
3.26509e-05
1.74899e-05
-7.2144e-07
-1.32809e-05
-8.1779e-05
0.00412751
-0.00445873
0.00450576
-0.00404498
0.00435928
-0.00526668
0.00595096
-0.00707373
0.00809126
-0.0094733
0.0108516
-0.0124796
0.0142508
-0.0160425
0.0182148
-0.0198234
-0.000330297
0.0166911
0.0169196
0.0121897
-0.00976804
0.000184839
-0.00976654
0.00956572
0.013198
0.0130836
-0.0110901
-0.0107892
0.000317143
0.00998082
3.92344e-05
0.014253
-0.000194412
-0.0163129
0.0159185
-3.26231e-05
-0.013968
0.0129221
-0.014938
-3.76741e-05
-0.0179399
-6.24983e-05
0.0202993
-0.0220234
-0.000111432
-0.0257359
-0.00078152
0.0118139
-0.000539507
0.00179674
-0.0216503
-0.00375644
0.00069696
-0.000260117
-0.000248872
-0.000211177
-0.000132774
-6.80979e-05
-3.11667e-05
-1.21127e-05
-2.63857e-06
4.23075e-06
2.87117e-05
4.66594e-06
-0.000290835
1.58717e-05
7.34431e-05
0.00194732
0.000173433
-7.85106e-05
-0.00221364
0.00194531
-0.00193966
0.00214423
-0.000862717
0.00422262
-0.00110711
0.00275902
0.000184813
-0.00357194
-0.00360052
0.00337996
0.000106609
-7.93101e-05
-0.000469308
1.30004e-05
0.000533221
0.00105244
0.00133729
5.71594e-06
0.000206402
0.000513616
6.69597e-05
-7.90512e-05
-2.90976e-05
-0.000130504
-0.000225514
-0.000182402
0.000116297
0.000158983
5.55364e-05
-0.00454212
0.00490001
-0.00586319
0.00591809
-1.76349e-05
-0.00496353
8.1147e-07
1.91785e-06
2.73922e-06
5.75773e-06
-0.000141088
-0.000206394
-0.000366136
-0.000345869
-0.000501696
-0.000634504
-4.07043e-07
7.53367e-05
7.55741e-05
-0.00848799
0.00908433
-0.0105921
0.0106702
-7.31987e-05
-0.00925627
0.0079623
-4.61204e-05
-0.00680465
-4.1168e-06
0.00669386
-0.00789574
1.83962e-05
-0.00623432
0.00545254
1.96075e-05
1.63767e-06
-0.000111776
-0.00427024
0.000139564
0.0034036
0.000146409
-0.0041029
-0.00225233
0.000710537
-0.000195141
-1.11162e-05
-3.78333e-05
4.8507e-05
-5.66301e-05
8.84657e-05
-0.000477438
-0.000845136
-0.000587293
3.43683e-05
-0.000294115
-0.000200524
-6.8318e-05
8.14364e-05
0.00016569
0.000256341
7.93798e-06
7.73532e-06
-0.0002939
-0.00045855
-0.00110526
-0.000711671
-0.00133268
-0.00247762
-0.000549042
-0.000156855
4.84569e-05
-0.0149374
0.0159178
-0.0179402
0.0179612
-0.00019468
-0.0163115
0.0140414
-0.000114143
-0.0124117
-1.65212e-05
0.0121523
-0.0139676
-6.60519e-06
-0.0113849
0.00983366
1.02648e-05
3.78702e-06
6.94259e-06
-0.000116504
-0.00550134
7.60653e-05
0.00461437
8.86597e-05
0.000322649
-0.00533892
0.00583391
-0.00709119
-0.00709126
-1.67173e-05
0.00799256
7.63421e-05
-0.00947571
-1.26302e-05
0.0107065
-2.48052e-05
-0.0124101
-1.05509e-06
0.0140152
-0.000273245
-0.0156436
8.83279e-05
0.0180238
-0.00106603
-0.0184728
0.000555153
0.0234242
-0.00397185
-0.0181502
-0.00243402
-0.0181497
0.00458356
0.0283625
-0.00102907
-0.0189887
-0.000799498
0.0189543
-0.000389119
-0.0160217
-0.000414806
0.0145171
-0.000208622
-0.0127529
-0.000188425
0.0111815
-6.8984e-05
-0.00981734
-6.84809e-05
0.0084553
1.34413e-05
-0.00737684
9.13873e-06
0.00627343
6.39651e-05
0.000166715
-0.000210901
-0.00023048
-0.000228201
0.00129542
0.000116848
-0.000484899
-0.000574963
-0.000589418
-0.000660265
-0.000774713
-0.000825502
-0.000538937
0.000482467
0.00168087
-0.0013706
-0.0114769
-0.0114771
-0.0118586
-0.00977168
-0.00359686
-0.00127983
-0.00528639
0.0087702
0.0144602
0.000252453
5.22458e-05
0.000876244
-0.0039713
0.0234228
0.000555558
-0.0184727
-0.00166157
-0.000463132
-0.000469232
8.95451e-05
-0.0156433
0.0180236
-0.00106566
1.48566e-05
-0.000135044
-0.000273145
0.0140136
-3.8651e-07
-0.0124092
-0.000297786
-0.000424202
-0.000361069
-0.000284814
-1.61338e-05
0.0079926
-0.00947561
0.0107063
-2.44679e-05
-0.000153831
-0.000137006
1.51993e-05
6.85459e-06
-1.21962e-05
-0.000124291
-0.000109173
0.0041698
0.000273779
0.0041699
0.000321996
-0.00533891
-3.60292e-05
0.00583425
0.000166699
-0.00011647
-0.000201291
-3.57803e-05
0.000108424
-0.000111606
-0.000195015
-0.00410307
0.000146485
0.00340363
0.000710185
0.00271726
-0.00062233
-0.00423025
0.000339748
0.00163642
0.00230491
0.00103999
0.0027502
0.000964931
0.000337005
-0.000875429
0.000486207
-0.000211752
-0.000227599
0.000944087
-0.000209015
0.000143795
7.56278e-06
9.07904e-06
7.45106e-06
2.64042e-06
8.79978e-06
0.000143831
-1.7146e-05
0.000486219
-0.000121231
-0.000875428
0.000337161
7.73793e-06
0.000280912
0.000238963
-0.000150792
-0.000923889
0.000280206
-0.000483278
0.000901945
0.00275769
-0.00158032
0.000549689
0.00025372
0.000140926
0.000115573
1.97776e-05
-1.29646e-06
2.62754e-06
-5.27796e-06
-1.45866e-05
-3.48191e-05
1.667e-05
2.06105e-05
5.35407e-05
0.000159743
-0.00131635
-0.00331314
0.0138035
-0.00263334
0.00709011
-0.0152499
-0.00701618
-0.00701634
-0.0152514
-0.00775612
2.51715e-05
-0.0137293
0.0232076
0.00155933
-0.000963476
-0.016891
-0.00159387
0.00980253
-0.00736915
-0.0160301
-0.0131932
-0.0138695
-0.00931119
0.000856575
0.00192428
0.000857551
0.000215953
-0.0129496
0.000858497
-0.00775428
-0.013729
2.67563e-05
0.00445346
0.00155907
-0.0168923
-0.000963121
0.00210572
-0.000337831
0.0210185
-0.0134726
-0.000328349
0.0128998
0.00103137
-0.000583482
0.00192428
0.00155755
-0.00440883
0.00445348
0.00310289
0.000159653
-0.00153984
-0.000582612
-0.000194141
0.00103068
-0.00187178
-1.57002e-06
-0.00134846
0.000697507
-0.000260115
-0.00078184
-0.000276722
-6.79879e-05
-7.02079e-06
4.74817e-06
-0.0190447
0.0202993
-0.0220245
0.0218974
-0.000364976
-0.0208977
-6.23644e-05
-0.000259913
0.000621841
0.000386205
-0.00017841
-0.000141407
-0.000114706
-9.28773e-05
6.87162e-05
0.00734531
-9.18008e-05
-0.000138713
-0.00479006
0.000175046
-0.00478509
0.00538016
0.000223512
-0.00638379
-0.00643152
0.00548685
0.000126723
0.00745176
0.000284057
-0.00839873
-0.00853205
0.000106266
0.00998125
0.000315739
-0.0107879
-0.011091
3.88081e-05
0.0130841
0.000202699
-0.0134778
-0.0141854
-0.000150205
0.000895823
0.00141743
0.00463008
-0.000258204
-0.000279946
-0.000166761
-0.000466811
0.00314091
0.003269
0.00404899
0.00216022
0.00130836
0.000832868
0.000523515
0.000281227
-4.91889e-05
-0.000127517
-0.000235402
-0.00343993
0.000224123
-0.00343844
0.0039016
0.000278307
-0.00462905
-0.00463044
0.00390292
0.000152698
0.000133287
0.000104459
-3.20406e-05
3.56961e-05
-0.000218476
-0.000331751
0.00381456
-0.000330521
0.00218977
0.000225303
-0.00247727
-0.0024794
0.00219228
-0.000196261
0.00122408
-0.000248869
-0.000250499
0.00178188
-0.000202057
0.00122529
-0.00110847
0.00422398
-0.000862041
0.00337996
0.000184712
-0.00359949
-0.00357379
0.00276224
-0.000218262
-3.20271e-05
-1.11249e-05
-1.31712e-05
0.000139464
-0.00410815
-8.13134e-05
-0.00454226
1.99974e-05
-0.00586343
-3.86163e-06
-0.00680463
-4.65767e-05
0.00796304
-0.00707425
0.000127625
-0.00643059
-0.00638524
0.000222878
0.0054869
-0.00478918
-0.00478624
0.000174425
0.00407577
0.000135388
0.00595177
-0.00526748
0.00591812
-0.00496382
-1.78675e-05
0.00436052
0.000107012
-0.00404587
0.0045061
7.83606e-07
0.00490022
-0.00445909
0.0041275
-0.00221381
-3.78509e-05
0.00194535
3.49604e-05
-0.00194003
3.57137e-05
0.00214514
0.00143159
-0.000753897
1.95584e-06
8.83664e-05
-5.63812e-05
4.84432e-05
0.000513417
0.00133734
0.00129555
-0.000228407
-0.000230661
5.86126e-06
-0.000130832
-0.00021218
-0.000237505
-0.000225625
-0.000345707
-0.000282771
-0.000280658
-0.000236284
7.63261e-05
-0.00024327
-0.000247153
-0.000500832
-0.000712109
6.8991e-05
7.39659e-05
0.000511207
0.00051069
-0.00133462
-0.0118592
-0.00978154
-0.00360136
0.0234252
0.0001353
-0.0234556
0.000251333
-0.0126152
-0.000466695
-0.000407438
-0.00253785
0.000143416
0.000119711
5.77591e-05
3.27589e-05
1.75984e-05
-5.44928e-07
7.57895e-05
-0.00514519
-0.000100417
-0.00623421
1.829e-05
-0.00789611
-7.69319e-06
-0.00925663
-7.3501e-05
0.0106709
-0.0094739
0.00010663
-0.00853133
-0.00840039
0.000283962
0.00745115
0.0073873
-0.000309096
0.00535186
0.000335237
-0.00609618
-0.00609751
0.00535326
-0.000309046
0.0073856
-0.000126748
0.000537696
0.000296569
0.000113336
0.000661464
-0.000196126
-0.000587798
-0.0013352
-0.00175336
-0.00130881
-0.000706218
-0.00111995
-0.0012309
-0.00157982
-0.00178155
-0.00072714
-0.00103906
-0.000915664
0.000550421
-0.0021762
-0.00238197
-0.000845192
-0.000469505
1.29502e-05
0.00053303
0.00103604
0.000729228
-7.87564e-05
-2.46965e-06
1.97314e-06
-0.00117086
0.00163099
-0.00225241
-0.000627872
0.000937599
0.00222634
0.00105188
6.72593e-05
0.000206252
0.000158624
0.00448274
5.55095e-05
0.0054528
-7.92058e-05
-2.80972e-05
0.00011554
0.00599496
-0.00688259
-9.12978e-05
-0.00848944
9.78182e-06
0.00983322
-0.0105923
-1.60029e-05
-0.0124121
-0.000114642
0.0140413
-0.0124797
0.0108534
-0.000140834
7.25042e-05
-0.0113861
-7.54056e-06
0.0121529
-3.10548e-05
-1.19173e-05
-2.49617e-06
4.3872e-06
1.77369e-06
7.27913e-06
3.76188e-06
-0.000136869
-0.00015356
-7.62303e-06
-7.49777e-06
-2.26295e-05
-3.76853e-05
0.0165259
5.40798e-05
-1.77232e-05
-7.11904e-05
0.0201687
0.000136415
-0.000324973
-0.000205142
-0.000143329
-0.000104438
-7.46665e-05
-4.50386e-05
-0.000173307
0.00389556
0.00285393
0.00285239
0.00389774
-0.000173171
-4.50031e-05
-7.48235e-05
-0.00023508
0.00538208
-0.000127166
-0.000109857
3.48313e-05
0.000281806
0.000523805
-0.000126668
-7.72335e-05
-0.000138096
-9.27489e-05
6.90865e-05
0.00734572
-0.000141803
-0.000180819
7.42523e-05
0.00808455
-0.00924629
-8.46734e-05
0.0107735
-0.012232
-5.55519e-05
0.0140888
-0.0158038
5.44752e-05
-0.0190461
-7.11311e-05
0.0201661
-0.0198845
-0.000800806
0.0181096
-0.000416856
-0.000549325
-0.00015818
-1.52812e-06
-0.000364162
-0.000207326
-0.000296088
-0.000629438
-0.000460402
-0.00109687
-0.00128
-0.00248299
-0.00529025
0.00876869
-0.010261
0.0046553
-0.013871
-0.0160306
-0.0073697
0.00979997
-0.00159658
0.000614736
0.0144582
-0.00016681
0.024929
-0.000211321
-0.000132923
-6.84162e-05
-7.40436e-05
-0.000143817
-1.81279e-05
1.47051e-05
-0.000135211
-2.29086e-05
-0.000205175
7.04771e-05
0.000144941
-0.00014324
-0.000104161
-0.000393018
0.00997489
0.00723539
0.000349522
-0.00781769
-0.00781891
0.00723693
-0.000393242
0.00997336
-9.98345e-05
3.23992e-05
0.000318758
-7.85497e-05
0.000125273
0.000290284
0.000657542
-8.32575e-06
0.013195
0.00956752
-0.000502951
-0.000127709
-0.000366628
0.00237568
-0.000160162
0.00714937
-0.000217764
5.20802e-05
0.000876195
0.00310215
0.0103255
-0.0044092
0.000158973
-0.00154124
-0.00931128
0.0232054
-0.013193
0.000855469
-0.000194532
-0.000919987
0.00419585
0.00101938
0.00194525
0.0042248
0.000171231
-0.000683122
0.00194434
0.0126348
0.00868714
0.0220543
0.012112
0.0178133
0.019807
-0.000209769
0.00225644
0.00136474
0.000860474
-9.95753e-05
0.000832165
0.00130868
-7.44961e-06
-0.000503009
0.000291869
3.269e-05
0.000256268
0.000165871
8.18747e-05
-7.90083e-05
1.71417e-06
2.34732e-06
5.15154e-06
7.57053e-05
0.00908512
7.06678e-06
6.82548e-06
4.88141e-05
0.0165239
4.43094e-06
-0.000258852
-0.000177926
0.000385672
0.000621683
-8.38703e-06
-6.92925e-05
-0.000257692
-0.000277097
0.00141761
0.00462944
0.00313999
0.000895769
0.000172444
0.00215854
0.00140762
0.00326996
0.000658521
-0.000114608
0.00809284
-6.82109e-05
-0.000199962
-0.000476551
-0.000293323
-4.86975e-05
0.00012669
0.000324837
-0.00032493
0.00139974
-0.000190148
-6.9304e-05
8.65559e-06
0.00669406
-0.00011003
0.00407576
0.000134784
0.000238927
0.000280862
7.74497e-06
-0.00048335
0.000354961
0.000280087
-0.000924045
-0.000150825
2.87502e-06
0.00275735
0.000902504
-0.00185454
-0.00166054
0.00177798
-0.000202907
0.00075569
-0.00130706
7.21621e-05
0.0129221
-5.52181e-05
-0.0001117
0.00210661
-0.000217294
-0.00187231
0.00032019
0.00174149
-1.18568e-05
-0.00013536
-2.73298e-05
-0.000722944
-8.49075e-05
-3.19276e-05
-0.000100548
-8.42766e-06
-0.00117093
3.50446e-05
0.00143241
0.013763
0.0104078
0.000232914
-0.00124728
0.000230188
0.0190414
0.0220534
-0.000844453
-0.000587291
3.48364e-05
0.00018493
0.00338006
0.00275948
-0.00357207
-0.00360001
0.000106981
-0.00404506
0.0021444
0.0014324
-0.000915788
-0.00103903
-0.000753705
1.60153e-06
2.3515e-06
-2.56305e-06
0.000729289
0.00103594
0.000937165
0.00222658
0.00275004
-0.00225237
0.000964779
0.00103979
0.00230494
0.000337058
0.00163629
0.00174105
0.00163629
0.00230489
0.00103982
0.00275021
0.000964814
-0.00225221
0.00163089
-0.000627782
0.00222624
0.000937407
0.00103609
0.00072932
-2.43504e-06
-7.84769e-05
0.00194537
-0.00194004
0.00214488
8.8298e-05
1.81926e-06
-0.000753794
-0.00103933
-0.0009156
-0.00217602
0.000550177
-0.00238184
-0.000202058
0.00122522
-0.000330527
0.00381472
-0.000248907
0.00122423
-0.000203037
-0.0023813
0.000549825
-0.000862595
0.00422286
-0.00110708
-0.000218458
0.00219189
0.00218982
0.000225018
-0.00247915
-0.000173325
0.00389617
0.000174736
0.00407587
-0.00526714
0.000135045
0.00595095
-0.00680438
0.00591824
-1.79543e-05
-0.00496366
0.00435927
0.000102032
0.000112713
9.90119e-05
5.32599e-05
-7.07336e-05
-0.0003366
-0.000536632
0.00419519
-0.00343767
0.0143574
-0.0103828
0.00179694
0.0128999
-0.000328131
-0.0134714
0.00979924
-0.00737084
-0.0160304
-0.0138704
-0.0131932
-0.0137325
0.0232037
0.00445147
0.00310118
2.34846e-05
-0.00775735
-0.0152519
-0.00701743
-0.0129479
-0.00701615
-0.0152511
-0.00775652
-0.0137329
0.0232031
-0.0138709
-0.0131933
-0.0160303
-0.00736949
0.00979986
-0.0134721
0.0210165
-0.0216493
0.0143557
0.00179594
0.0128986
-0.0103852
0.0064353
0.0149523
0.0104037
0.00760377
0.0181387
0.00625888
0.00387055
0.0119015
-0.0118257
-0.0118259
0.00387044
0.00625861
0.0181387
0.0076023
0.0104023
0.0137569
0.0149537
0.00643826
0.00843069
0.00700683
-0.00407785
0.0190374
0.0214606
0.0220505
0.0176094
0.0178129
0.0198047
0.0178131
-0.033833
0.00101846
0.0010195
-0.00948255
0.0176084
0.0220486
0.0214615
0.0190405
0.00700603
0.00842897
0.00647789
-0.000627454
-0.00028853
-4.52967e-05
-0.00711292
-0.00916693
-0.00863477
-0.0200852
-0.0241733
0.00465559
-0.0102612
0.0234242
-0.0198833
0.0181093
-0.0158037
0.0140877
-0.012232
0.010773
-0.00924631
0.0080848
-0.00688159
0.00599524
-0.00514507
0.00448275
-0.00410802
0.00412756
-0.00445874
0.00450576
-0.00404552
0.00337951
0.000184329
0.0027617
-0.00110839
0.00422404
-0.000862211
0.00143168
-0.000316791
0.000101949
0.000112801
9.86802e-05
5.25555e-05
-7.13195e-05
-0.000337194
-0.000536944
0.00419485
-0.00343781
-0.00134922
0.00226255
0.000697292
-0.00844927
-0.00844945
0.00226274
-0.00134961
0.000697383
-0.00375559
-0.0216487
0.0210178
-0.0015961
-0.0168927
0.00155713
-0.000964364
0.00210579
-0.000337061
-0.000407414
-0.00253827
-0.00131712
-0.00253824
0.00155763
0.00445232
0.0103222
0.00310153
-0.00263472
-0.0026355
0.0103225
0.000503879
-0.00660239
0.00714801
0.00714959
-0.000216954
-0.0066034
0.000158682
0.00155622
0.00192286
0.000855513
-0.00931325
0.000854575
0.000213412
0.0138019
-0.00331342
0.00458351
-0.00779538
-0.00949053
-0.0204436
-0.0149737
0.0326952
-0.0181492
0.0234219
0.0234226
0.000554292
0.0189535
-0.000390744
-0.0160224
0.0145166
-0.00020973
-0.0127534
0.0111807
-6.97786e-05
-0.00981687
0.00845548
1.25952e-05
-0.00737705
0.00627388
6.35963e-05
-0.00550149
0.0046145
8.81595e-05
-0.00427059
0.0034038
0.000146384
-0.00410272
-0.000622346
-0.00423007
-0.00423005
0.000336983
-0.00087544
0.000281051
-0.00125487
-5.55924e-05
0.000784109
0.000784119
-0.000928851
-1.29762e-06
0.000959628
0.000959642
-0.000680181
0.000141004
0.00154449
0.00154376
-0.000322809
0.000436386
-0.000779057
-0.000780921
-0.0013088
-0.000706137
-0.0011199
-0.00123066
-0.00178154
-0.000727166
0.00129007
-0.00188781
0.000282892
0.000902598
0.00275734
-0.00157998
-0.000924021
-0.000150867
-0.00160251
8.81398e-06
0.00161428
-0.00252303
4.70802e-06
0.000320043
0.00253491
-0.000225465
2.86476e-05
0.000269552
-1.32036e-05
-6.04124e-07
1.76222e-05
3.27276e-05
5.7242e-05
0.000119493
0.000143188
0.000134873
-0.023455
0.0249291
-0.025735
0.0225979
-0.0198222
0.0182145
-0.0160414
0.0142503
-0.0124791
0.0108512
-0.00947357
0.00809085
-0.00707431
0.00595111
-0.00526758
0.00435993
0.000106381
-0.00359979
-0.00357352
-0.00247775
0.00285254
0.000224153
0.00285337
-0.0034393
-0.00478532
-0.00478974
0.00548714
0.00538098
0.00022263
-0.00643086
0.000127864
-0.007074
-4.60593e-05
0.00796251
-0.00789583
-8.34123e-06
0.00908454
-0.00848801
0.00734554
1.87133e-05
0.00669387
-3.81021e-06
-0.00586333
0.00490006
7.93787e-07
0.00450593
3.57143e-05
-0.00193998
8.86017e-05
-0.000225522
0.00129009
-0.000727071
-0.00178131
-0.00123052
-0.00111957
-0.000706492
-0.00130694
0.000755874
-0.000322946
7.95569e-05
-0.00185399
0.00090204
5.11739e-06
0.000282985
0.00275776
-0.00188763
0.00253501
0.000320144
-3.93435e-05
-0.000680057
0.000115626
0.000104474
0.00013326
0.000152611
0.000145128
7.0755e-05
-0.000127232
-0.000366907
0.00237447
-0.00267079
-0.00606002
-0.00449052
-0.0018737
0.00103026
-0.000195364
-0.000328668
-0.0015412
-0.0168908
-0.000964499
0.00210579
-0.000217004
5.18941e-05
0.000252441
-0.0126146
0.0118138
-0.0150267
0.00478825
-0.0356019
0.00472251
-0.0159024
-0.000421218
0.0169199
0.0166907
-0.0187954
-0.000330521
0.00141711
0.0046287
-0.000258105
-0.00528802
-0.00977234
-0.011858
-0.00133229
-0.0024888
-0.00360053
-0.00127956
-0.000459764
-0.00109374
-0.00071385
-0.0005031
-0.000628922
-0.000157531
-0.000549275
4.90862e-06
0.0201665
-0.0220231
0.0202987
-0.0208974
-0.00036475
0.0218969
-0.000111909
-0.000211421
-0.000407875
-0.00033878
-0.00375754
-2.49776e-06
-0.000583625
0.000158946
-0.0044106
2.38524e-05
0.00708807
-0.0029934
-0.0114762
-0.00136768
0.00168138
0.000482401
-0.00054004
-0.000825382
-0.000775544
-0.000660447
-0.000589946
-0.000574841
-0.00048487
0.00011723
0.00129547
0.0012955
0.00133718
5.87384e-06
-0.000131056
-0.000226224
-0.000346893
-0.000363011
-9.27113e-07
-0.00029526
-0.000207412
-0.000141763
-0.000179466
7.50459e-05
7.60051e-05
0.00983324
-0.0105923
0.00908452
-0.00925615
-7.34296e-05
0.0106707
-0.0124112
-0.000114182
0.0140416
-0.0163117
-0.000193901
0.0179597
-6.14777e-05
-0.0179393
0.0159184
-3.81183e-05
0.0165245
-0.0190459
-7.08317e-05
-1.80513e-05
-0.000132863
-6.83027e-05
-3.16903e-05
-0.0139673
0.012152
-6.58514e-06
0.0129213
-0.0149378
-5.62396e-05
4.95175e-05
-7.87038e-06
-6.90465e-05
-0.000166479
0.014458
0.000616173
-0.00159554
0.00876724
-0.000277138
-0.000540189
0.0031388
0.00868021
0.0126329
0.00404792
0.00327716
0.000895977
-0.000259846
0.000622124
0.000386409
7.05721e-06
7.53522e-06
5.19321e-06
2.60571e-06
-7.92452e-05
-2.57739e-05
0.000116203
6.93025e-05
0.00734571
-0.0078958
0.00669382
-0.00680463
-4.65169e-05
0.00796253
-8.44197e-06
-1.20996e-05
-3.11922e-05
-1.64627e-05
3.84959e-06
1.07023e-05
-0.00848845
-9.1594e-05
-0.000136635
0.00845503
-6.82979e-05
-0.0098183
-6.97719e-05
0.0111807
-0.00018828
-0.0127539
-0.000209685
0.0145156
-0.000415403
-0.0160217
-0.000391336
0.0189534
-0.000801068
-0.0189887
-0.00102996
0.0283604
0.018286
-0.00397218
0.000875448
0.000875524
0.0283609
-0.00102986
-0.0189886
-0.00397367
-0.0181488
0.00458336
0.0326939
-0.00243358
-0.0149742
-0.0204442
-0.00949114
-0.024175
-0.00779589
-0.00299485
0.00708761
-0.00441107
0.000854253
0.0019229
-0.00931356
0.000854871
-0.00154133
-0.000582977
-0.000920348
-0.000361837
-0.000160477
-0.000249141
0.000159377
-0.000464144
0.000554853
-0.0184721
0.0180244
-0.0156437
0.0140137
0.0140133
-6.45789e-07
-0.0124096
-2.44346e-05
0.0107059
-1.21643e-05
-0.00947543
7.69369e-05
0.00799242
-1.62517e-05
-0.00709193
0.00016706
0.00583459
-3.58873e-05
-0.0053389
0.000322364
0.00416993
-0.000109188
-0.00431138
0.000710667
0.00271757
0.000339699
0.00271738
-0.000622365
-0.00410293
0.000146454
0.00340373
0.00013975
-0.00427039
8.86085e-05
0.00461443
7.6499e-05
-0.00550155
6.38777e-05
0.00627359
9.68788e-06
-0.00737701
1.326e-05
7.72073e-05
0.00799249
-2.71324e-05
-0.00709133
0.00583436
-0.00533868
0.00416982
0.000273724
-0.0043113
0.00071034
-0.000195043
-0.000111609
0.000322481
-0.00023099
-0.00021215
-0.000237563
-0.000282721
-0.000245932
7.21038e-05
0.000511462
0.000511189
-0.0114768
-0.0118583
-0.00133234
7.09019e-05
-0.018471
-0.00106764
0.0180245
8.8297e-05
-0.0156437
-0.000273835
-0.000135618
-0.000470284
8.814e-05
-0.000722151
-0.000424497
-7.69803e-07
-0.0124091
0.0107065
-0.00947526
-1.23325e-05
-0.000360497
-0.000133938
-0.000284064
-1.6287e-05
-0.000201024
-3.59169e-05
0.000108994
-0.00012428
-0.000109221
0.000225988
-0.00156347
0.000280976
-0.000875344
0.00163064
0.00065666
0.00065655
0.00163067
0.000760738
-0.000121228
0.00137183
-0.00273646
-0.000188057
7.33864e-05
0.00194733
0.000173467
-0.00131077
0.00071469
0.00182959
0.00131936
0.00157447
0.000944165
-0.000208871
-0.00022768
-0.000211655
-7.11604e-05
0.00129971
-0.000211788
0.000760685
0.00137189
-0.000121293
-0.000534286
-0.000187903
0.0019473
7.33154e-05
-0.000290749
4.7051e-06
-0.00252318
0.00161429
8.81245e-06
-0.00160253
-0.000150848
7.46486e-06
-0.000227525
-0.000173539
0.000486191
-0.000534349
-0.000381233
-1.71597e-05
0.000143797
7.54081e-06
2.81791e-06
9.02644e-06
-1.72216e-05
0.000486251
-0.00125484
-0.000380894
-0.000195185
-1.2268e-05
6.88226e-06
1.53312e-05
1.66194e-05
2.04034e-05
5.30324e-05
1.40907e-05
-0.00106604
1.41961e-05
0.000143095
-0.00080107
0.0234245
0.000135439
0.0201678
-7.09548e-05
0.0202996
-6.20402e-05
0.0179609
-0.000195207
-0.016312
0.0142518
4.04698e-05
0.00998073
0.0099743
0.00031586
-0.0110912
0.0130827
0.0131964
0.0002023
-0.0141847
-0.000148312
-0.0160437
0.0182159
-0.020899
0.0218961
-0.000364465
-0.019823
-0.000328823
0.0166899
0.0169213
-0.00042154
-0.0187945
0.0225999
-0.0257359
-0.000111476
-0.0220241
0.0249295
-0.0234558
0.0144577
0.000251603
-0.0126151
-0.00046628
0.0118143
-0.000781794
-0.0150257
-0.0107237
0.00478884
0.00472356
-0.0356026
0.0126338
0.0121109
0.001944
-0.000211091
-0.0119048
-0.000589834
0.0121868
0.0121884
-0.000681917
-0.0134768
0.000202495
0.0131945
0.0130839
-0.0141851
-0.000150865
-0.0110909
0.00031646
0.00997345
0.00998115
3.89e-05
-0.00853209
0.000283758
0.00738539
0.00745156
0.000106076
0.000256644
0.000166239
8.18387e-05
-7.91601e-05
1.58466e-06
6.7203e-05
0.000204228
0.000158945
5.56759e-05
0.00545277
-0.0058632
0.00490047
-0.00496387
-1.76979e-05
0.00591825
-4.19717e-06
-2.61974e-06
4.31899e-06
4.97631e-07
-1.1177e-05
-3.78326e-05
-0.00221357
-0.00117089
0.000532895
0.00105184
0.000513092
4.87023e-05
1.29926e-05
1.86595e-06
3.48996e-05
-5.66465e-05
-6.82763e-05
-9.2767e-05
-0.000114807
-0.000141345
-0.000178375
0.000292579
0.00140358
0.00215751
0.00130761
0.000663972
3.32229e-05
-9.98568e-05
-8.05725e-06
-0.0107876
-0.00781937
0.00034885
0.00723487
0.00723633
-0.000393192
-0.00609806
0.000335708
0.00535157
0.00535258
-0.000309253
-0.00638417
0.000223171
0.00538075
0.00548725
-0.00643144
0.000126953
-7.67052e-05
0.000328575
0.000831316
0.000523272
0.00012648
-0.00013881
-0.000127437
-0.0047859
0.000174405
0.00389667
0.00407587
-0.00478953
0.000134699
-0.000200368
-4.94574e-05
0.000281504
3.48491e-05
-0.000295204
-0.000477061
-0.000469586
-0.000845647
-0.000587505
-0.00133505
-0.00175333
-0.00156016
-0.00135555
-0.00162356
-0.00174421
-0.00133666
0.00177802
-0.00168126
0.000661533
0.000113438
-0.000109847
-0.000173387
-4.50273e-05
1.69764e-06
1.98315e-05
-0.00454234
-8.13944e-05
7.28645e-06
1.88535e-05
-0.00623398
-0.000100109
-0.000116268
0.000167446
-0.000116237
-0.000136721
-0.000153851
5.72782e-05
0.000119641
-0.000416629
0.0181098
5.37312e-05
0.0165255
-3.83424e-05
0.0159181
-3.23477e-05
0.0140419
-0.000115038
-0.0124113
0.0108526
0.000107304
0.00745127
0.0073864
0.000283531
-0.00853123
-0.00840049
-0.000393266
-0.00609653
-0.00010029
0.00136312
0.00225415
0.00422324
0.000170521
0.000170797
0.0019441
-0.00021105
-0.0159042
-0.0119031
-0.000260099
5.18432e-05
-1.81508e-05
-0.000211278
-0.000132978
-0.000144084
-2.30575e-05
-0.000135513
-0.00027399
-0.00015386
-2.39499e-05
-7.56454e-06
-7.40817e-05
-3.47869e-05
-1.43667e-05
-5.2447e-06
2.59634e-06
1.97502e-05
0.000168893
0.000269582
-1.32843e-05
-5.29353e-07
1.75895e-05
3.26971e-05
-6.84706e-05
0.0107723
-8.41189e-05
0.00983383
1.04801e-05
-0.0105923
-1.63018e-05
0.0106705
-7.32252e-05
-0.00925614
0.00809199
-0.0094733
-0.000115034
7.53334e-05
7.50286e-05
-0.000347255
-0.000503147
-0.000712337
-0.000243384
-0.000281052
-0.000236228
-0.000210751
-0.00022671
-0.000131206
-0.000229774
-0.000228168
6.25524e-06
0.00133739
0.00105294
0.000513636
-0.00410814
-8.16456e-05
0.00412723
-3.80247e-05
0.00194519
3.49189e-05
2.86781e-05
4.26993e-06
-2.59508e-06
-1.19961e-05
-3.11739e-05
-6.80993e-05
-2.28017e-05
-7.58807e-06
-7.51031e-06
-0.0113845
0.0121518
-0.013968
0.0129225
-0.0122321
-5.59774e-05
0.0140877
-0.000189275
-0.0158037
-0.000156516
-0.000548788
-0.0198836
-0.00359985
-0.0102616
0.00876838
-0.00863649
-0.0200839
0.00465565
-0.00977064
-0.00528791
-0.00916741
-0.00711499
0.000614679
-4.65156e-05
-0.000279041
-0.000627546
-0.000539157
0.00648082
0.00462877
-0.000257371
-0.000166698
-0.00128108
-0.00248684
-0.000459209
-0.0010976
-0.000294515
-0.000631184
-2.05318e-07
7.19717e-05
4.82688e-05
-0.0149373
-0.0179404
4.30469e-06
-0.0190456
-6.88953e-05
-7.18297e-06
7.24838e-06
8.00474e-06
-0.000206556
-0.00036494
-0.000141204
-9.16062e-05
-0.00688192
0.00599483
-0.000100532
0.00545236
1.97848e-05
-0.00454234
0.00448271
0.000139365
-0.00514541
7.59859e-05
0.000158708
0.000116307
-0.000181033
6.87608e-05
-0.00623421
-7.90275e-05
-2.81207e-05
6.68806e-05
0.000204981
0.000533189
-0.00117096