/*--------------------------------*- C++ -*----------------------------------*\
| =========                 |                                                 |
| \\      /  F ield         | OpenFOAM: The Open Source CFD Toolbox           |
|  \\    /   O peration     | Version:  2306                                  |
|   \\  /    A nd           | Website:  www.openfoam.com                      |
|    \\/     M anipulation  |                                                 |
\*---------------------------------------------------------------------------*/
FoamFile
{
    version     2.0;
    format      ascii;
    arch        "LSB;label=32;scalar=64";
    class       volScalarField;
    location    "2.8";
    object      gradTz;
}
// * * * * * * * * * * * * * * * * * * * * * * * * * * * * * * * * * * * * * //

dimensions      [0 -1 0 1 0 0 0];

internalField   nonuniform List<scalar> 
2658
(
-0.076806
-0.0745041
-0.0574559
-0.0523706
-0.0642824
-0.0658918
-0.0607884
-0.0585721
-0.0523267
-0.0656983
-0.0642543
-0.0503398
-0.0667657
-0.0622634
-0.0646679
-0.0665178
-0.0636517
-0.0663681
-0.0646199
-0.0614566
-0.0656858
-0.0591609
-0.0677502
-0.0523113
-0.0816597
-0.0655349
-0.0584187
-0.0692628
-0.0705146
-0.0576934
-0.0705143
-0.0584193
-0.0655345
-0.0677505
-0.0816598
-0.0523112
-0.0679218
-0.093846
-0.0591598
-0.0656881
-0.0614589
-0.0646204
-0.066366
-0.0971497
-0.0623569
-0.0616592
-0.0642554
-0.0970443
-0.0665183
-0.0646673
-0.0622611
-0.0667663
-0.0597515
-0.0971486
-0.0668264
-0.0647609
-0.0970476
-0.0619423
-0.0526482
-0.0664312
-0.0970503
-0.0647624
-0.0668239
-0.097148
-0.0633278
-0.0504392
-0.0640859
-0.0582732
-0.0652108
-0.0652088
-0.0532235
-0.0596761
-0.0467363
-0.0542354
-0.0420945
-0.0536187
-0.0540924
-0.0420403
-0.0485092
-0.0476116
-0.0540867
-0.0467223
-0.0593853
-0.0609808
-0.0493263
-0.0394637
-0.030885
-0.0235636
-0.0176077
-0.0130453
-0.00986355
-0.010585
-0.00933875
-0.00769994
-0.00842808
-0.00889026
-0.00827109
-0.0125559
-0.00827767
-0.00840043
-0.0126294
-0.00850436
-0.00903669
-0.0102392
-0.00864674
-0.00925306
-0.00658229
-0.0109103
-0.00721471
-0.0110635
-0.0102674
-0.00838096
-0.0115478
-0.00838067
-0.0102674
-0.0110632
-0.0086467
-0.00925306
-0.00903661
-0.0102391
-0.00850436
-0.0126289
-0.00840028
-0.00827748
-0.00800909
-0.00804824
-0.00769958
-0.00889024
-0.00827081
-0.00842816
-0.0125713
-0.00839502
-0.0100691
-0.00832945
-0.0109239
-0.00764486
-0.00738096
-0.00860897
-0.00748297
-0.00748324
-0.00738074
-0.00764486
-0.00850194
-0.00905691
-0.0113953
-0.00905269
-0.0105124
-0.010037
-0.00720825
-0.00724448
-0.00688538
-0.0097107
-0.00940192
-0.00610403
-0.00817331
-0.00768757
-0.00696417
-0.00767726
-0.00726468
-0.00750806
-0.00774336
-0.00745073
-0.00774889
-0.0075152
-0.00723889
-0.00765225
-0.00696893
-0.00798217
-0.0117631
-0.00969557
-0.0120775
-0.014196
-0.0164264
-0.0190089
-0.0221952
-0.025714
-0.0298218
-0.034329
-0.0393208
-0.044812
-0.0505671
-0.0568864
-0.0633247
-0.0682241
-0.0660913
-0.0648924
-0.0654949
-0.0656989
-0.0642818
-0.0523695
-0.065893
-0.0640836
-0.0504385
-0.0633279
-0.0503401
-0.0823381
-0.0493265
-0.0394634
-0.0308847
-0.0235633
-0.0176074
-0.013045
-0.00986342
-0.010585
-0.00933867
-0.00627857
-0.00676086
-0.0105494
-0.00694449
-0.00694447
-0.0067609
-0.00627858
-0.0105494
-0.00648414
-0.00804814
-0.0080091
-0.00887669
-0.00776059
-0.00936421
-0.00632817
-0.00646537
-0.00953285
-0.0105052
-0.0105362
-0.0106135
-0.0105361
-0.00936415
-0.00658215
-0.00706506
-0.0109101
-0.0075409
-0.00754086
-0.007065
-0.009768
-0.00685457
-0.00690297
-0.0069028
-0.0105436
-0.00685444
-0.00916291
-0.00873955
-0.00857372
-0.00797333
-0.00901613
-0.00863662
-0.00898032
-0.0122058
-0.009622
-0.00707915
-0.0102537
-0.00771045
-0.00671906
-0.0081673
-0.00852415
-0.0120334
-0.0126072
-0.012607
-0.00882905
-0.0149236
-0.0100967
-0.0171611
-0.0200171
-0.0135652
-0.0231417
-0.0269719
-0.0182756
-0.0311143
-0.0358945
-0.0242435
-0.041073
-0.0467132
-0.03142
-0.052901
-0.0592191
-0.0396379
-0.065924
-0.0740258
-0.0502542
-0.0764023
-0.0522517
-0.066387
-0.066386
-0.0692618
-0.0690914
-0.0626115
-0.0581597
-0.0831504
-0.0557267
-0.0557271
-0.0561617
-0.0832969
-0.0568921
-0.0568919
-0.0539033
-0.0819519
-0.0683371
-0.0683352
-0.0774408
-0.109182
-0.0774394
-0.0786623
-0.10791
-0.0783345
-0.0910001
-0.0800676
-0.0782683
-0.0649411
-0.0759502
-0.0870813
-0.0817708
-0.0539036
-0.0513987
-0.0807176
-0.0652102
-0.0786896
-0.107914
-0.0783847
-0.0870613
-0.0791
-0.079953
-0.0791001
-0.0807174
-0.0649401
-0.0782683
-0.0783336
-0.107907
-0.0786618
-0.0759515
-0.0870823
-0.0870594
-0.0783877
-0.107909
-0.0786897
-0.0652099
-0.0758778
-0.0779551
-0.109264
-0.0775497
-0.0685538
-0.0820757
-0.0538878
-0.0684137
-0.0791769
-0.0799792
-0.0523811
-0.0420403
-0.0329628
-0.0251776
-0.0188293
-0.0139544
-0.0105495
-0.0104648
-0.0117422
-0.011584
-0.0116281
-0.0116942
-0.0135142
-0.0156707
-0.0180705
-0.0211869
-0.0244586
-0.0284957
-0.0326717
-0.0376313
-0.0426567
-0.0485096
-0.0540902
-0.0609813
-0.0523264
-0.0585721
-0.0607868
-0.0596782
-0.0539988
-0.042989
-0.054
-0.0477806
-0.0484095
-0.046949
-0.0418714
-0.042743
-0.0328598
-0.036585
-0.0328115
-0.0426582
-0.0372045
-0.0425112
-0.0423678
-0.0335228
-0.0372794
-0.0372579
-0.0425945
-0.0372458
-0.0479572
-0.0428596
-0.053704
-0.0600307
-0.0531026
-0.0654942
-0.0583298
-0.061659
-0.0970435
-0.0758777
-0.0684135
-0.0538874
-0.0801949
-0.0617042
-0.0551768
-0.0517093
-0.041598
-0.0326111
-0.0249027
-0.0186165
-0.0137933
-0.0104208
-0.010505
-0.00953281
-0.00646543
-0.0105435
-0.00632807
-0.00776061
-0.00887655
-0.012384
-0.00916053
-0.0091024
-0.00905002
-0.00924726
-0.00872885
-0.00692814
-0.00968004
-0.0116592
-0.0103986
-0.0137276
-0.0129751
-0.011393
-0.0102981
-0.0110976
-0.00980073
-0.00983656
-0.00980261
-0.00968411
-0.00914403
-0.0111149
-0.0113395
-0.00987269
-0.0111331
-0.0147288
-0.0150238
-0.0146844
-0.0197916
-0.020357
-0.0174849
-0.0129364
-0.0126042
-0.013373
-0.0134324
-0.0155381
-0.0155463
-0.0118729
-0.0133589
-0.0105423
-0.0111529
-0.0147417
-0.0200355
-0.0200052
-0.026889
-0.0273325
-0.0264749
-0.0347151
-0.0359454
-0.0313974
-0.0236242
-0.0230075
-0.0243401
-0.0243072
-0.0282581
-0.0281724
-0.0216175
-0.0242843
-0.0209828
-0.0160227
-0.0179115
-0.0140385
-0.0179628
-0.0210167
-0.0160627
-0.0179471
-0.0156514
-0.0118996
-0.0131947
-0.0126271
-0.0149233
-0.00868517
-0.0132715
-0.00802923
-0.0111277
-0.00674313
-0.00801738
-0.00950741
-0.00981718
-0.00937361
-0.00971402
-0.009709
-0.0123358
-0.010125
-0.0096407
-0.0094892
-0.011245
-0.011115
-0.0131335
-0.0125866
-0.0146584
-0.0199127
-0.0267924
-0.0269549
-0.0354651
-0.0353486
-0.0453072
-0.0461603
-0.0444038
-0.0551642
-0.0581625
-0.0515154
-0.0407675
-0.0398717
-0.0425927
-0.0423668
-0.0479566
-0.0476109
-0.0372048
-0.0425106
-0.0371084
-0.0287019
-0.0324868
-0.0255297
-0.03246
-0.0372794
-0.0287495
-0.0325581
-0.0283049
-0.021665
-0.0239313
-0.0177751
-0.0169684
-0.020017
-0.011612
-0.0171608
-0.0100966
-0.0102583
-0.0166972
-0.0194043
-0.0224798
-0.0224791
-0.0156612
-0.0260907
-0.0185799
-0.0301596
-0.0209378
-0.0347122
-0.0246276
-0.0397398
-0.0274467
-0.0451702
-0.0318594
-0.0511249
-0.0350973
-0.0571376
-0.0400555
-0.0642375
-0.043646
-0.0689946
-0.0492947
-0.0800261
-0.0640043
-0.0800258
-0.0522517
-0.0763999
-0.0502537
-0.0740265
-0.0435228
-0.0659232
-0.0396373
-0.059219
-0.0352519
-0.0529004
-0.03142
-0.0467137
-0.0275949
-0.0410729
-0.0242429
-0.0358948
-0.0210384
-0.0311134
-0.0182753
-0.0269721
-0.0157053
-0.0231412
-0.0135651
-0.013792
-0.0174223
-0.0130926
-0.0102263
-0.00905081
-0.00875993
-0.00930741
-0.0113716
-0.0147585
-0.0197156
-0.0262659
-0.0343532
-0.0438289
-0.0543018
-0.0634247
-0.070715
-0.0701701
-0.0701695
-0.0659058
-0.075954
-0.0626674
-0.0569451
-0.0740656
-0.0514227
-0.0627949
-0.058386
-0.0599793
-0.0582066
-0.0492939
-0.0689935
-0.0436459
-0.0642377
-0.0512645
-0.052681
-0.0421987
-0.0350969
-0.0511254
-0.0571361
-0.0400559
-0.0490721
-0.0390564
-0.0318592
-0.0451692
-0.0274468
-0.0397411
-0.0320412
-0.0330595
-0.0252578
-0.0189123
-0.0156612
-0.0260896
-0.0301605
-0.0347111
-0.0246269
-0.0302175
-0.0228252
-0.0199138
-0.0147708
-0.0112142
-0.0107062
-0.00882917
-0.0146792
-0.0104449
-0.0146796
-0.0102585
-0.0166969
-0.0116365
-0.0194051
-0.0137922
-0.0169686
-0.0140578
-0.0116364
-0.0136331
-0.0126272
-0.00950749
-0.0111279
-0.00802944
-0.0132719
-0.00801763
-0.0120336
-0.00707927
-0.00852415
-0.00889803
-0.00816741
-0.00671905
-0.00771057
-0.00798227
-0.010254
-0.00824427
-0.00788992
-0.00928892
-0.00863676
-0.00857381
-0.0090163
-0.00797272
-0.00921945
-0.00866436
-0.0088981
-0.00866408
-0.00797992
-0.0125553
-0.00921951
-0.00916291
-0.00928884
-0.00721477
-0.00788973
-0.0082443
-0.00916614
-0.00852026
-0.00793271
-0.00923335
-0.00898877
-0.00859203
-0.00908289
-0.00679481
-0.00917306
-0.00912803
-0.0119684
-0.00868525
-0.00968332
-0.0104143
-0.010496
-0.00986471
-0.0111899
-0.014746
-0.0198915
-0.0265924
-0.0266151
-0.034833
-0.0444092
-0.0552881
-0.077577
-0.0712545
-0.104757
-0.0626113
-0.0690917
-0.0936823
-0.0782594
-0.0782586
-0.0936832
-0.0995878
-0.0616285
-0.0800431
-0.0798901
-0.0813208
-0.0523516
-0.0664162
-0.0751696
-0.0792782
-0.108331
-0.0794161
-0.0920632
-0.0778044
-0.0858778
-0.0781499
-0.0806418
-0.0807462
-0.0866305
-0.103511
-0.0807484
-0.0995873
-0.0800453
-0.0616271
-0.0548908
-0.0813206
-0.0664161
-0.0523513
-0.0531977
-0.0820762
-0.0685552
-0.0775492
-0.109265
-0.0779566
-0.0869262
-0.0802919
-0.080642
-0.0815553
-0.0828047
-0.0548905
-0.0831152
-0.0807422
-0.086345
-0.0802935
-0.0779189
-0.0869259
-0.0770498
-0.081771
-0.0513992
-0.0801944
-0.0617046
-0.0583307
-0.0617525
-0.0571342
-0.0454864
-0.0506041
-0.0542018
-0.0537025
-0.0600313
-0.0593845
-0.0467212
-0.0540859
-0.0428583
-0.0507141
-0.0453537
-0.0352843
-0.0399102
-0.0306269
-0.0229842
-0.0169805
-0.0170058
-0.0211008
-0.0188797
-0.0177524
-0.0174659
-0.0137754
-0.0181856
-0.0211423
-0.0186367
-0.0245268
-0.0237359
-0.0207173
-0.01859
-0.0277851
-0.0250038
-0.0327307
-0.0318526
-0.0249607
-0.0365844
-0.0328592
-0.0427432
-0.0418707
-0.0328114
-0.0469487
-0.0420947
-0.0542367
-0.0536182
-0.0420409
-0.0529972
-0.0571834
-0.074462
-0.0741872
-0.0636516
-0.0616069
-0.0529091
-0.0652601
-0.0577096
-0.0574556
-0.0456544
-0.0355452
-0.0270131
-0.0201185
-0.0148695
-0.0147137
-0.0170396
-0.0160227
-0.0179913
-0.0141457
-0.0179919
-0.0210147
-0.0191074
-0.0243326
-0.0243318
-0.0210155
-0.0185351
-0.0137479
-0.0104369
-0.0100547
-0.00933878
-0.00939043
-0.00930397
-0.00826764
-0.00930467
-0.0118966
-0.0107138
-0.0134801
-0.0134788
-0.0118977
-0.0100728
-0.0133075
-0.00866893
-0.00866834
-0.00762079
-0.00819455
-0.0133077
-0.00968037
-0.00692768
-0.00872891
-0.0113928
-0.0103989
-0.0129759
-0.0137267
-0.01166
-0.00939049
-0.0100548
-0.00981725
-0.0105497
-0.00868533
-0.0120777
-0.0104649
-0.0133732
-0.0118997
-0.0155381
-0.014039
-0.0179118
-0.016023
-0.0209831
-0.021187
-0.0185911
-0.0237371
-0.0245263
-0.0186375
-0.0207173
-0.0174664
-0.0181852
-0.0137761
-0.0153909
-0.0137166
-0.0180709
-0.0156706
-0.0155459
-0.0133592
-0.0118732
-0.0135147
-0.0102987
-0.0116943
-0.011628
-0.0105422
-0.0134324
-0.0115842
-0.0117423
-0.0091606
-0.00937373
-0.00910237
-0.00670587
-0.00905034
-0.00933874
-0.00924716
-0.00629196
-0.00750823
-0.00774355
-0.0123362
-0.0097092
-0.00971406
-0.00987291
-0.00914416
-0.00905098
-0.0102265
-0.0130927
-0.0111147
-0.0146849
-0.0174225
-0.0233571
-0.0197924
-0.0264759
-0.0308862
-0.0308861
-0.0233568
-0.0185794
-0.0399023
-0.0399024
-0.0347157
-0.044404
-0.0501256
-0.0501242
-0.0601514
-0.0601523
-0.0551638
-0.0659062
-0.0759613
-0.0626663
-0.068225
-0.0527529
-0.0660906
-0.0583848
-0.0623563
-0.0529087
-0.0791764
-0.0799783
-0.052381
-0.0420405
-0.032963
-0.0251778
-0.0188295
-0.0139544
-0.0116121
-0.0164264
-0.0139394
-0.0179471
-0.0160633
-0.0210172
-0.0190259
-0.024285
-0.0216174
-0.0281732
-0.0284955
-0.0249614
-0.0318534
-0.0327302
-0.0250043
-0.0277849
-0.0284579
-0.0216191
-0.0282176
-0.0256088
-0.0325124
-0.032512
-0.0282178
-0.0216196
-0.0284566
-0.0230151
-0.0202521
-0.0150093
-0.0114532
-0.00955819
-0.0100735
-0.00948736
-0.00816808
-0.00610928
-0.0100056
-0.0109229
-0.00833086
-0.0100699
-0.00912759
-0.00839559
-0.0125715
-0.0072645
-0.00767719
-0.0119677
-0.00696406
-0.00768745
-0.00963966
-0.00980051
-0.00983622
-0.00980248
-0.00723889
-0.00751535
-0.012384
-0.00774907
-0.00745133
-0.00646206
-0.00969568
-0.00674333
-0.0117632
-0.00765248
-0.00696874
-0.00968333
-0.011133
-0.0113395
-0.0129368
-0.0141964
-0.0126045
-0.0156517
-0.014729
-0.0150249
-0.017485
-0.0190097
-0.0221951
-0.0188795
-0.0243408
-0.0216648
-0.0283051
-0.0282585
-0.0255309
-0.0324876
-0.0287019
-0.0371094
-0.0376313
-0.0326735
-0.0306272
-0.0306337
-0.0325589
-0.0287494
-0.0324608
-0.0249028
-0.0186169
-0.0137935
-0.0104208
-0.0131948
-0.0177752
-0.0239314
-0.0228253
-0.0302177
-0.0316939
-0.0316938
-0.0409587
-0.0372442
-0.0477819
-0.0424953
-0.0513568
-0.0467433
-0.0596205
-0.0527534
-0.0528244
-0.0421262
-0.0325746
-0.0245808
-0.0182478
-0.013537
-0.0118847
-0.0156057
-0.0156041
-0.0156032
-0.015607
-0.0118846
-0.0135371
-0.0182479
-0.0160225
-0.021143
-0.0170402
-0.0127122
-0.0112448
-0.0148695
-0.0201191
-0.0230155
-0.0240301
-0.0177527
-0.0169811
-0.0170062
-0.0211012
-0.0200054
-0.0203576
-0.0236248
-0.0257149
-0.0298218
-0.0253216
-0.0343296
-0.0393209
-0.0332378
-0.044813
-0.0505678
-0.0424963
-0.0542038
-0.0467439
-0.0596202
-0.0633249
-0.0435224
-0.0568872
-0.035252
-0.0515164
-0.0407678
-0.0313977
-0.0273342
-0.0268896
-0.0353497
-0.0359482
-0.0453091
-0.0461642
-0.056947
-0.05816
-0.0740682
-0.0514219
-0.0679208
-0.0938452
-0.0778053
-0.0794147
-0.108327
-0.079278
-0.0751693
-0.097149
-0.0627949
-0.0616072
-0.0648931
-0.0517093
-0.0415984
-0.0326114
-0.0348053
-0.0443581
-0.051357
-0.0490721
-0.0390565
-0.0409589
-0.0421265
-0.0324654
-0.0247882
-0.0325749
-0.024581
-0.0287101
-0.0375791
-0.0371938
-0.0336192
-0.0425067
-0.0425058
-0.0371938
-0.0287098
-0.0375776
-0.0306522
-0.0320192
-0.0268605
-0.0240298
-0.0199675
-0.0417245
-0.0354058
-0.0399433
-0.0484083
-0.047781
-0.0372222
-0.0414222
-0.0515071
-0.0790165
-0.0764651
-0.0561618
-0.0795156
-0.059979
-0.0582065
-0.0831158
-0.05816
-0.0828037
-0.0807424
-0.0863444
-0.085878
-0.0798914
-0.0920634
-0.0781493
-0.0779218
-0.08196
-0.0823377
-0.061942
-0.0617302
-0.0574535
-0.050744
-0.0467365
-0.0617289
-0.0745025
-0.0768094
-0.0622015
-0.0743112
-0.0664302
-0.0637111
-0.0582725
-0.0457888
-0.0357086
-0.0271635
-0.0306524
-0.0270138
-0.0355449
-0.0399436
-0.0372225
-0.0417252
-0.0320199
-0.0267929
-0.0199134
-0.0146586
-0.0110977
-0.0111526
-0.0147417
-0.0200358
-0.0230084
-0.0243082
-0.0269554
-0.0354659
-0.0398727
-0.0477816
-0.0506047
-0.0507133
-0.0399115
-0.0352849
-0.0453543
-0.045488
-0.057136
-0.0741896
-0.0617514
-0.057185
-0.0744621
-0.0652616
-0.0529972
-0.0507447
-0.0456551
-0.045593
-0.0577102
-0.0354086
-0.0229847
-0.0244597
-0.0125871
-0.0131337
-0.0101248
-0.0111158
-0.0147144
-0.0199684
-0.0268649
-0.0528245
-0.0455877
-0.027595
-0.0210384
-0.0157057
-0.0179631
-0.0127121
-0.0153909
-0.0137161
-0.00793291
-0.00852043
-0.00916613
-0.00908313
-0.00874498
-0.00859281
-0.0089892
-0.00923349
-0.00797954
-0.0091731
-0.00679431
-0.00860903
-0.00941557
-0.00762055
-0.00819472
-0.00850506
-0.0100012
-0.0306328
-0.0372578
-0.0332378
-0.0531007
-0.0531981
-0.0795159
-0.0770471
-0.00648408
-0.00658196
-0.0209381
-0.0244437
-0.018299
-0.0410111
-0.0253209
-0.0335225
-0.0139392
-0.0190249
-0.00646205
-0.00670574
-0.00629141
-0.0800674
-0.0909993
-0.0769941
-0.077688
-0.0769962
-0.05975
-0.0622028
0.0096407
0.0094892
0.0112449
0.0103989
0.0113933
0.0116592
0.0137275
0.0129752
0.0102985
0.0116947
0.00924744
0.00629142
0.0076773
0.00726469
0.00750801
0.00774334
0.00745082
0.00774873
0.00751501
0.00723873
0.00765214
0.00696857
0.00798212
0.0067431
0.0102537
0.00771041
0.00671892
0.00824404
0.00816715
0.00658187
0.008167
0.00671881
0.00771021
0.00798198
0.0102536
0.00674305
0.00969562
0.011763
0.00696843
0.0076522
0.00723865
0.00751497
0.00774869
0.0123836
0.00910212
0.00904999
0.00924689
0.0123355
0.00774321
0.00750789
0.00726441
0.00767692
0.00696386
0.0119675
0.00768739
0.00819437
0.0133077
0.00930478
0.00826775
0.00866911
0.0133076
0.00819497
0.00768753
0.0119683
0.00872897
0.00692796
0.00968024
0.00939049
0.0118977
0.0118968
0.010714
0.0134788
0.0118845
0.015606
0.0137761
0.0153912
0.0156707
0.0137164
0.0180704
0.0179114
0.0155463
0.0118728
0.0133591
0.0135141
0.00986352
0.0130451
0.0176073
0.0235632
0.0308847
0.0394633
0.0493257
0.0823353
0.0807159
0.0652086
0.07869
0.0758753
0.0779554
0.109264
0.0775487
0.0792774
0.108329
0.0794146
0.0778032
0.092063
0.0800437
0.0798885
0.0548887
0.0831128
0.0616257
0.099585
0.0936823
0.0782591
0.103508
0.078256
0.0936815
0.0995849
0.0800448
0.079887
0.0778033
0.0920634
0.0794144
0.108326
0.0792762
0.077551
0.0685512
0.0684119
0.0652076
0.0758754
0.0779572
0.0786908
0.107911
0.0783893
0.0910003
0.0783343
0.107908
0.0786618
0.0774417
0.0759503
0.0683362
0.0683369
0.0774412
0.0786631
0.10791
0.078336
0.0909989
0.0800663
0.0783868
0.10791
0.062259
0.0667627
0.0971448
0.0597472
0.0668245
0.0622025
0.0647617
0.0664308
0.0637128
0.0664305
0.0526468
0.0619414
0.0619418
0.0970454
0.064761
0.0622001
0.0668249
0.0597494
0.0667643
0.0622598
0.0646644
0.0665147
0.0636499
0.0663647
0.0646157
0.0614537
0.0656818
0.0591575
0.0677453
0.0938389
0.067918
0.0682224
0.0633233
0.0568869
0.0505663
0.0448129
0.0393203
0.0343298
0.0298212
0.0257143
0.0221948
0.0190095
0.0164265
0.0141962
0.0120772
0.0117423
0.0115839
0.0116279
0.011694
0.0113928
0.010399
0.0116598
0.00968043
0.00692774
0.00872886
0.00629174
0.0105848
0.00986343
0.0130452
0.0176075
0.0235634
0.0308848
0.0394631
0.0493255
0.0823356
0.0807168
0.0513986
0.053902
0.0801931
0.0568916
0.0568916
0.0539024
0.0513979
0.0801929
0.0538866
0.0684119
0.0685538
0.0751675
0.0664154
0.0813205
0.052351
0.0531972
0.0820758
0.0791742
0.0799761
0.0775756
0.0799756
0.081319
0.0548887
0.0581571
0.0831128
0.0626089
0.0626095
0.0581575
0.083149
0.0557257
0.0561605
0.0561613
0.0795142
0.0557262
0.0807412
0.0815563
0.080642
0.0781499
0.0858802
0.0807452
0.08663
0.104752
0.0712517
0.0522493
0.0816554
0.0655299
0.0584151
0.0705108
0.0663822
0.0800242
0.0689921
0.0689921
0.0436454
0.0659221
0.0396368
0.0592191
0.0529004
0.0314199
0.0467127
0.0410721
0.0242427
0.0358938
0.0311135
0.0182753
0.0269715
0.0231418
0.0135652
0.0200171
0.0171615
0.0100967
0.0149236
0.0132718
0.00802929
0.0111278
0.00707932
0.00852399
0.008524
0.00824388
0.00788971
0.00754091
0.00706505
0.00976782
0.00685436
0.00685444
0.00690299
0.00986474
0.00694441
0.00694445
0.00676091
0.00968336
0.00748297
0.00748327
0.00738064
0.0105122
0.00905263
0.00905657
0.0100052
0.0109225
0.00833081
0.01007
0.00839571
0.0125711
0.0084279
0.00769992
0.00933861
0.00679429
0.00917301
0.00912725
0.00898899
0.00923346
0.00827104
0.0125552
0.00827749
0.00800906
0.00953266
0.00648393
0.00804798
0.00888985
0.0105049
0.0105359
0.0105495
0.0139544
0.0188292
0.0251777
0.0329626
0.0420399
0.0523798
0.0527522
0.0660892
0.064891
0.0654921
0.0656965
0.0609801
0.0540897
0.0485089
0.0426568
0.0376312
0.0326724
0.0284955
0.0244588
0.0211868
0.0180706
0.0156705
0.0135144
0.0102986
0.0129756
0.0137267
0.0134798
0.0156033
0.0141458
0.015604
0.0179909
0.0181854
0.0174658
0.0207173
0.0211424
0.0186369
0.023736
0.0185902
0.0211869
0.0160231
0.0209829
0.0210169
0.0190251
0.0243072
0.0243398
0.021101
0.0160625
0.0179626
0.0140388
0.0155383
0.0134324
0.0105419
0.0116282
0.00933889
0.00905017
0.0123359
0.00889021
0.00842818
0.0125713
0.0083953
0.010069
0.00832945
0.0109237
0.0100009
0.0085046
0.00738097
0.00764482
0.00860891
0.0067949
0.0062786
0.00933876
0.00917312
0.00769977
0.00804819
0.00648409
0.0105494
0.00676081
0.0104142
0.0104368
0.0137478
0.018535
0.0247881
0.0324654
0.041422
0.0515065
0.0790143
0.0819521
0.0799524
0.0790993
0.0770487
0.0869265
0.077924
0.109266
0.0863445
0.0664144
0.0523509
0.0531967
0.0795139
0.0599775
0.0583836
0.0623541
0.0616566
0.0642535
0.0633268
0.0504375
0.0640834
0.0658926
0.0523703
0.0607866
0.0585717
0.0642814
0.0523266
0.0571823
0.0744588
0.074184
0.0740644
0.0759565
0.0659024
0.0551625
0.0581617
0.0626643
0.0569458
0.0453067
0.0461613
0.0444048
0.034715
0.0359466
0.0407684
0.0515138
0.0506031
0.0596197
0.0600293
0.0537023
0.0540852
0.0467207
0.0593838
0.0531002
0.0517081
0.0791739
0.0820739
0.0538873
0.0817705
0.0802934
0.0807412
0.0828027
0.0616247
0.0690866
0.0692573
0.0701652
0.0707122
0.0634225
0.0543005
0.0438281
0.0343526
0.0262656
0.0197158
0.0147587
0.0113717
0.00930738
0.00875993
0.00905084
0.00905079
0.00914399
0.0111149
0.0146847
0.0197919
0.0264752
0.027333
0.031398
0.0353495
0.0268893
0.0200051
0.0203567
0.0236245
0.0230078
0.028305
0.0282582
0.0243077
0.0242844
0.0216175
0.0281729
0.0324868
0.0287017
0.037109
0.0425102
0.0372049
0.0476111
0.0428576
0.0479563
0.042367
0.0372453
0.0477817
0.0542013
0.0467432
0.051356
0.0415975
0.032611
0.0335226
0.0372797
0.0324604
0.02875
0.0372584
0.0425931
0.033238
0.0398721
0.0454868
0.0571333
0.0616039
0.0627918
0.0971426
0.075166
0.051419
0.0617497
0.0970383
0.0652603
0.0768047
0.0745023
0.0574563
0.0577164
0.0529952
0.0507121
0.0453534
0.0352842
0.0354652
0.0269551
0.0200354
0.0147415
0.0147289
0.0150239
0.017485
0.0170057
0.021101
0.0210166
0.0179626
0.0179113
0.0160229
0.0209827
0.0190249
0.0186165
0.0249027
0.0255302
0.0239312
0.0216647
0.0243401
0.0188795
0.022825
0.0311137
0.0210383
0.0358941
0.0242433
0.0410731
0.0275944
0.0467127
0.0314203
0.0529011
0.0352516
0.059218
0.0396369
0.0659226
0.0435217
0.0740234
0.0502518
0.0763975
0.0523079
0.0492931
0.0582048
0.0582048
0.0763974
0.0502519
0.0740238
0.0492928
0.0800242
0.0522486
0.066382
0.0640022
0.0705115
0.0584158
0.0655302
0.0677464
0.0816557
0.0692576
0.0690878
0.0828027
0.0807469
0.0806437
0.0858801
0.0781467
0.0863445
0.0802922
0.0819605
0.0832972
0.0764633
0.0551759
0.0552871
0.05268
0.0436452
0.0642362
0.0571369
0.0511239
0.0451695
0.045169
0.0274468
0.0397391
0.0246262
0.0347109
0.0209377
0.0301592
0.0185792
0.0260899
0.015661
0.0224798
0.0137924
0.0194051
0.0116369
0.0166975
0.0102583
0.0146794
0.00882935
0.0126072
0.00801735
0.0120336
0.00889823
0.0120335
0.00707915
0.0111278
0.00802918
0.0132717
0.00868519
0.0149233
0.0100968
0.0171613
0.0116121
0.0200172
0.0135651
0.0231416
0.0157053
0.0269715
0.0182754
0.0185794
0.0260895
0.018299
0.0224796
0.0194053
0.0166973
0.0146793
0.0104448
0.0126071
0.00801747
0.00950731
0.0126272
0.0102585
0.0130927
0.0174227
0.023357
0.0308861
0.0399023
0.0501243
0.0601498
0.0601493
0.0701661
0.0659033
0.0551619
0.0501238
0.0642364
0.0400556
0.0571369
0.0350966
0.0511245
0.0318588
0.039056
0.0421984
0.0350963
0.0410107
0.0330589
0.0274464
0.0397389
0.0347115
0.030159
0.0209374
0.0252573
0.0244434
0.0189122
0.015661
0.014058
0.0116368
0.0136334
0.0107061
0.00882891
0.00962187
0.0122059
0.00754088
0.00788984
0.0102673
0.00838102
0.00838064
0.0102672
0.0110633
0.00721462
0.00864677
0.00925303
0.00936408
0.006328
0.00776049
0.0088762
0.00840042
0.0126288
0.00850441
0.0102392
0.00903656
0.00901621
0.00797294
0.00857367
0.00863662
0.00898018
0.0115477
0.00863686
0.0110635
0.00864711
0.00721474
0.0065823
0.0093641
0.00776055
0.0063281
0.00646544
0.00953281
0.00800923
0.00827766
0.0125557
0.00827123
0.00923363
0.00866427
0.0085736
0.00873941
0.00928866
0.00658214
0.0109101
0.00916284
0.00921935
0.00866394
0.00797956
0.00889804
0.00916292
0.00928873
0.00706501
0.0109102
0.0095074
0.0112142
0.0147709
0.0199136
0.0266148
0.0348326
0.0444088
0.0490715
0.0400561
0.0490716
0.0523802
0.0435221
0.0682222
0.0527521
0.05962
0.0467435
0.0537023
0.0428581
0.047611
0.0372046
0.0425103
0.0426571
0.0328112
0.0365839
0.0375786
0.0328599
0.0418708
0.0469485
0.0484091
0.0420947
0.0536179
0.0420398
0.0485092
0.0540909
0.0540861
0.059384
0.0467217
0.0609794
0.0523277
0.0585718
0.0607879
0.0523706
0.0642818
0.0656978
0.0654928
0.0531008
0.0600307
0.0648916
0.0660898
0.0627922
0.0583839
0.0623547
0.0529063
0.0616571
0.0583288
0.0642522
0.0503365
0.0633259
0.0640845
0.0504369
0.0745024
0.07431
0.0617295
0.0582728
0.0652093
0.0532248
0.0596771
0.059677
0.046735
0.0542354
0.0420941
0.0484085
0.0469489
0.0536172
0.0420407
0.0418702
0.0328599
0.0375784
0.0365842
0.0328117
0.0318531
0.025005
0.0284577
0.0277843
0.0249609
0.0267925
0.0199129
0.0146583
0.0110974
0.0111527
0.011133
0.0113395
0.0129371
0.0126043
0.0156517
0.0155379
0.0134325
0.0133588
0.0118727
0.0155462
0.0140385
0.0137933
0.0104207
0.0105418
0.00981704
0.00937347
0.00916024
0.00646193
0.00980223
0.00968302
0.00987277
0.00971391
0.00983608
0.00745097
0.00670557
0.00970911
0.0125866
0.0169807
0.0229843
0.0306268
0.0399105
0.0417254
0.0455923
0.0456549
0.0355433
0.0354048
0.0320195
0.0306515
0.0399429
0.0427426
0.0425056
0.0336194
0.0371934
0.0371937
0.0287091
0.0325123
0.0256083
0.0282171
0.028217
0.0216184
0.0245257
0.0186371
0.0211428
0.0207174
0.0237367
0.0185904
0.0240298
0.0268627
0.0270132
0.0201185
0.0199636
0.0177525
0.0170397
0.018185
0.013776
0.0156065
0.0153907
0.0174663
0.0137163
0.0131333
0.0147141
0.0148696
0.0112446
0.0111148
0.0101248
0.00980033
0.00963968
0.00948748
0.00816788
0.00610912
0.00720802
0.00688489
0.00724425
0.00610405
0.00817333
0.00762043
0.00940211
0.00955822
0.0114534
0.0127124
0.0118841
0.0135369
0.0131947
0.0118997
0.0133728
0.0104646
0.017775
0.0160629
0.0179468
0.013939
0.0169686
0.0137923
0.0169686
0.0228249
0.0302172
0.0329624
0.0420402
0.0352519
0.0568865
0.042496
0.0477817
0.037245
0.0423662
0.0335218
0.0371083
0.0287016
0.0324862
0.0326722
0.0249606
0.0277845
0.028457
0.0250041
0.0318528
0.0327297
0.028709
0.0325121
0.0306519
0.0357083
0.0457884
0.0574533
0.0507429
0.0507444
0.0617283
0.0582719
0.0658915
0.0652103
0.0617031
0.0599777
0.0513564
0.0517087
0.0415978
0.0443577
0.0409586
0.0390561
0.0318586
0.0302172
0.024627
0.0316937
0.0348051
0.0265923
0.0198913
0.0147459
0.0111899
0.0104959
0.0106135
0.0105361
0.0105497
0.0139545
0.0188293
0.0251774
0.0210379
0.0343284
0.0253206
0.0283044
0.0216646
0.028258
0.0255299
0.0281723
0.0216174
0.0242842
0.0244586
0.0284949
0.0229836
0.0230072
0.0236237
0.0264753
0.034715
0.0444045
0.0399017
0.0308855
0.0233566
0.0174225
0.0197921
0.0146847
0.013093
0.0102264
0.0111146
0.00914394
0.00968384
0.00987264
0.0120777
0.010465
0.0117423
0.0093738
0.0091024
0.00670565
0.0105051
0.0104208
0.0137934
0.0186165
0.0249025
0.0326109
0.0409585
0.0316935
0.0287492
0.0325572
0.0324595
0.037279
0.0372579
0.0393201
0.033237
0.0448119
0.0275945
0.0505671
0.0407668
0.0515137
0.0633234
0.0626665
0.0679192
0.0514197
0.0656844
0.0591562
0.0938406
0.0759519
0.0740622
0.0614546
0.0646183
0.0971454
0.0663652
0.0636509
0.066516
0.0970381
0.0646652
0.0744576
0.074185
0.0616066
0.0569444
0.0581617
0.0453066
0.046163
0.0353477
0.0359456
0.0313966
0.0306321
0.0398718
0.0425924
0.0479568
0.0506033
0.0542022
0.057133
0.0454862
0.0354644
0.0269545
0.0268885
0.0273329
0.0200047
0.0188795
0.0221954
0.0190094
0.0139394
0.0156518
0.0118997
0.0133734
0.0141963
0.00868537
0.0164269
0.0116122
0.012937
0.0174848
0.0203572
0.0170056
0.017947
0.0147291
0.0150246
0.0111333
0.0113388
0.0098027
0.00646195
0.00969556
0.0117629
0.00903653
0.00850449
0.0126289
0.00840043
0.00887652
0.0123839
0.0091606
0.00971403
0.0115845
0.0126043
0.0125865
0.0169802
0.0200351
0.0147416
0.0111529
0.00983652
0.00970897
0.0110977
0.0146582
0.0199125
0.026792
0.035284
0.0453536
0.0571823
0.0617513
0.0652607
0.0574555
0.0456537
0.0399433
0.0477805
0.0477806
0.0429888
0.053998
0.0542346
0.0467356
0.052824
0.0528236
0.0617031
0.0583286
0.0421259
0.0372212
0.042126
0.0372208
0.0427423
0.0425058
0.0325744
0.0325747
0.0245807
0.0245806
0.023931
0.0177752
0.0131948
0.0126272
0.00981721
0.0105436
0.00690293
0.0100548
0.013537
0.0182477
0.0182477
0.0160221
0.0210148
0.0191071
0.0210151
0.0160223
0.0170397
0.0202517
0.0230147
0.024332
0.0243317
0.0245261
0.0216184
0.0230149
0.027163
0.027013
0.0355444
0.0320192
0.0417242
0.0399099
0.0507125
0.0529955
0.0577153
0.0455917
0.0306261
0.0376304
0.035408
0.0268644
0.0240289
0.0201182
0.0148694
0.0150092
0.0127121
0.0131333
0.0177524
0.0199662
0.0147139
0.0101251
0.0111151
0.010073
0.00930399
0.0100735
0.00939047
0.0100546
0.00933837
0.0105493
0.00627848
0.00916605
0.00852024
0.00793239
0.00868521
0.00916616
0.00908283
0.00852038
0.00793175
0.00898888
0.00859182
0.00874469
0.00859253
0.00908298
0.00764484
0.00850187
0.00762077
0.00866817
0.0100368
0.0094157
0.00971044
0.00860876
0.0113943
0.00912798
0.00980077
0.0179918
0.0105851
0.0539983
0.0768043
0.00921962
0.0090161
0.00925323
0.0102393
0.00797296
0.00797983
0.0157055
0.0257142
0.0298208
0.052308
0.0102264
0.0970462
0.0759487
0.0649408
0.0782674
0.0870603
0.0790983
0.0817708
0.0870811
0.0776887
0.0870815
0.0770001
0.0870599
0.078268
0.0649415
0.0800639
0.0971437
0.109184
0.0769974
0.0869264
0.0779249
0.0770513
0.03273
0.0306331
0.0325581
0.0253213
0.0105434
0.00646532
0.0320399
0.0512644
0.0576904
0.0424946
0.0529053
0.0503373
0.00696405
)
;

boundaryField
{
    face
    {
        type            calculated;
        value           nonuniform List<scalar> 
154
(
-0.08
-0.08
-0.08
-0.08
-0.08
-0.08
-0.08
-0.08
-0.08
-0.08
-0.08
-0.08
-0.08
-0.08
-0.08
-0.08
-0.08
-0.08
-0.08
-0.08
-0.08
-0.08
-0.08
-0.08
-0.08
-0.08
-0.08
-0.08
-0.08
-0.08
-0.08
-0.08
-0.08
-0.08
-0.08
-0.08
-0.08
-0.08
-0.08
-0.08
-0.08
-0.08
-0.08
-0.08
-0.08
-0.08
-0.08
-0.08
-0.08
-0.08
-0.08
-0.08
-0.08
-0.08
-0.08
-0.08
-0.08
-0.08
-0.08
-0.08
-0.08
-0.08
-0.08
-0.08
-0.08
-0.08
-0.08
-0.08
-0.08
-0.08
-0.08
-0.08
-0.08
-0.08
-0.08
-0.08
-0.08
0.08
0.08
0.08
0.08
0.08
0.08
0.08
0.08
0.08
0.08
0.08
0.08
0.08
0.08
0.08
0.08
0.08
0.08
0.08
0.08
0.08
0.08
0.08
0.08
0.08
0.08
0.08
0.08
0.08
0.08
0.08
0.08
0.08
0.08
0.08
0.08
0.08
0.08
0.08
0.08
0.08
0.08
0.08
0.08
0.08
0.08
0.08
0.08
0.08
0.08
0.08
0.08
0.08
0.08
0.08
0.08
0.08
0.08
0.08
0.08
0.08
0.08
0.08
0.08
0.08
0.08
0.08
0.08
0.08
0.08
0.08
0.08
0.08
0.08
0.08
0.08
0.08
)
;
    }