/*--------------------------------*- C++ -*----------------------------------*\
| =========                 |                                                 |
| \\      /  F ield         | OpenFOAM: The Open Source CFD Toolbox           |
|  \\    /   O peration     | Version:  2306                                  |
|   \\  /    A nd           | Website:  www.openfoam.com                      |
|    \\/     M anipulation  |                                                 |
\*---------------------------------------------------------------------------*/
FoamFile
{
    version     2.0;
    format      ascii;
    arch        "LSB;label=32;scalar=64";
    class       volScalarField;
    location    "2.8";
    object      gradTy;
}
// * * * * * * * * * * * * * * * * * * * * * * * * * * * * * * * * * * * * * //

dimensions      [0 -1 0 1 0 0 0];

internalField   nonuniform List<scalar> 
2658
(
0.00850089
0.00489672
0.00152499
-0.000223814
-0.0184842
0.0227605
-0.0197401
0.0166059
-0.000349487
-0.0161052
0.00502996
-0.0355249
0.0213481
0.0217291
0.0175405
0.0180389
0.0198195
0.0177573
0.0179572
0.0214627
0.0206643
0.0179514
0.00590416
-0.00416544
0.00674157
0.0198077
-0.00436145
0.00116237
0.0161559
-1.8169e-06
-0.0161573
0.00436187
-0.0198078
-0.00590193
-0.0067403
0.00416669
-0.00136598
0.00167479
-0.0179572
-0.0206667
-0.0214649
-0.0179583
-0.0177555
0.00896175
-0.00154049
-0.000819984
-0.00503041
0.00932724
-0.0180421
-0.01754
-0.0217253
-0.0213472
-0.0188681
0.00393831
-0.00702845
-0.00670938
0.000451329
-0.0119871
-2.02358e-06
-0.000224005
-0.000451649
0.00670772
0.0070293
-0.0039389
0.00485337
-0.0103983
-0.0149066
-0.00064305
-0.0252032
0.0252021
-4.71329e-07
0.0218096
-0.000213802
0.0183765
-8.55487e-05
-0.0139044
-0.0137986
0.000282196
0.013686
0.00900546
-0.00922548
-0.000531213
0.0116369
0.017458
-0.000404849
-0.000245796
-1.39031e-05
9.17822e-05
0.00013221
0.00015089
0.000135896
-0.000572715
0.000301017
0.00147917
-0.000668436
-0.00150725
-0.000290716
-0.00165661
-0.000312024
-0.000640294
-0.00181784
-0.000495472
-0.00153904
-0.000853611
-0.000705596
0.00161545
-0.00058172
3.34238e-07
0.000206324
-0.00170881
0.000563855
-0.00077613
-4.2236e-08
0.000776095
-0.000563958
0.00170868
0.000705614
-0.0016154
0.00153901
0.000853646
0.000495455
0.00181783
0.000640261
0.000311991
-0.00127003
-0.00123078
-0.00147923
0.00150718
0.000290637
0.000668488
0.00178128
0.000465766
0.000854384
0.000768305
0.00158989
-0.000707284
4.31105e-05
6.95768e-05
-0.00160377
0.00160394
-4.33715e-05
0.000707357
-0.000429835
-0.000448864
-4.07099e-06
0.000447343
7.72536e-07
8.73107e-07
-0.000883597
0.000871003
1.88418e-06
6.91202e-05
0.000461774
-0.000511809
0.00208185
0.000487095
0.00194827
0.00230143
0.00243813
0.0019378
0.00195082
0.00223005
0.00194867
0.00197393
0.0024949
0.00232489
0.00203798
0.000661765
-0.000158332
0.000360793
-0.00263496
0.00335586
-0.00354213
0.00435865
-0.00490768
0.00577858
-0.00673384
0.00759032
-0.00904466
0.00974248
-0.0118767
0.0121642
-0.0153339
0.0147909
0.0144364
0.0120935
0.0114789
0.016106
0.0184832
0.000222863
-0.0227624
0.0149059
0.0103971
-0.00485299
0.0355251
-0.0043017
0.000403172
0.000244792
1.298e-05
-9.26136e-05
-0.000132755
-0.000151204
-0.000136084
0.000572599
-0.000300875
2.43594e-05
-0.000668257
0.000229848
-0.000862675
0.00086268
0.000668272
-2.44726e-05
-0.000229889
-0.000261668
0.0012309
0.00127001
-0.001524
0.00144569
0.000349363
-4.79395e-05
-0.000233572
0.000226446
-0.000218722
-0.000236075
-9.18077e-08
0.000236023
-0.00034959
0.000581748
-0.00109644
-3.30174e-07
-0.00121913
0.00121902
0.0010963
-1.54748e-07
-0.000763123
-0.000835177
0.000835048
-0.000218646
0.000762899
-0.000112529
-7.86205e-08
-0.00061726
-0.000272688
0.000804798
-0.000208372
3.72103e-08
1.1136e-08
-1.10815e-07
-0.00115815
0.000835913
0.00233314
-0.000561896
0.00185387
-0.00246598
0.00283905
-0.003002
0.0030016
0.000380622
0.0033936
0.000242134
-0.00408738
0.00459968
0.000126954
-0.00545009
0.00627739
2.59792e-05
-0.00726873
0.00843732
-0.000117689
-0.00952326
0.0110838
-0.000416136
-0.0121568
0.0142193
-0.00113346
-0.0150727
0.0177756
-0.0030534
-0.0192072
-0.0088451
-0.0196586
0.0196575
-0.00116181
-0.0053297
0.0101941
0.00909599
-5.53787e-07
-0.0064683
0.0064682
0.00674541
-4.87024e-07
-0.00813075
0.00813015
0.00328014
-1.28744e-06
-0.02113
0.0211269
-0.013104
-1.84522e-06
0.0131001
-0.0102141
0.00649285
0.0149549
0.010373
0.0137255
-0.0202406
0.0144434
0.00192782
0.00122366
0.0002107
-0.00328122
-0.0011872
-0.00335468
-0.0115994
0.00622782
0.0178988
0.00758225
0.00856607
-0.00437212
-7.08787e-07
0.00437219
0.00335476
-0.0144427
0.0202405
-0.0149548
-0.00649086
0.0102126
-0.00192996
-0.00122557
-0.00856433
-0.00758245
-0.0178971
-0.00622799
0.011599
-0.0119794
-0.00425219
-0.01658
-0.00373976
0.0109367
0.00260242
-0.00256251
0.0118912
-0.00235194
-0.0028309
0.000135131
-7.15983e-05
-0.000231292
-0.000273088
-0.000264828
-0.000244089
-0.000211587
-0.000257611
-0.00249537
-0.0021273
-0.00191935
-0.00291141
0.00378545
-0.00401728
0.00497746
-0.00557259
0.00660643
-0.00766722
0.008669
-0.0103591
0.0111037
-0.0136859
0.0137995
-0.0174584
0.000349365
-0.016606
0.0197403
-0.0218113
0.0205035
-9.12934e-07
-0.0205047
0.017802
-0.0159907
0.0129636
-0.010871
0.01437
7.15979e-05
0.00985969
0.000378228
-0.0111028
-0.000412438
-0.00734356
-0.00840471
0.000370253
0.00779553
0.00851865
-0.00939682
-0.0004619
0.0102646
0.000207839
-0.0103624
0.0129334
-0.000565274
-0.0114789
-1.92764e-05
0.000819732
-0.00932779
0.0119783
-0.0118919
0.00256155
0.000891345
-8.57219e-05
-5.87445e-07
0.000236627
2.45853e-05
-0.0001439
-0.000202514
-0.000209725
-0.000201082
-0.000175255
0.0002186
-0.000226498
0.000233612
0.000218488
4.80713e-05
-0.00144571
0.00152394
-0.00104911
0.000710336
0.000399519
0.000324421
0.000892066
0.000627911
-0.000172222
-0.00241818
0.00395769
1.1938e-05
-0.00440135
0.00357269
-0.00306826
-0.000249911
0.000186638
0.00125978
0.00128174
0.00127142
0.00079295
0.000884697
5.75497e-05
0.000345598
0.000379426
0.000193286
-0.00017724
4.90746e-05
-7.50271e-05
-0.000167926
-0.000146649
0.00012109
0.000172311
0.000185925
0.00326917
0.00287501
-0.00296795
-0.00259438
0.000143932
0.0025976
-0.000281246
0.000248515
-0.000148962
-0.000460902
-0.000469443
-0.000798409
-0.000353601
-0.000276738
-0.000415545
-0.000663013
-1.15539e-05
6.87382e-05
0.000145124
0.00554262
0.00504197
-0.00576279
-0.00498859
0.000275245
0.00440005
-0.0036089
0.000211939
0.00335561
-0.000275589
0.00380684
-0.00416643
0.000223689
0.00420528
-0.00338141
0.000155559
2.72566e-05
-9.61214e-05
-0.00339302
4.29184e-05
0.00316014
-0.000450133
-0.00274436
-0.000573024
-0.000229082
-3.35614e-05
7.56626e-05
0.00018699
0.000416535
0.000403624
-0.00107457
0.000397641
0.000786087
0.000495593
8.22614e-05
0.000254162
0.000196421
0.000178183
-0.000180384
-0.000479026
-0.000822478
-0.000815392
-0.00132668
-0.0012585
-0.0020518
-0.00128634
-0.000614785
-0.00122408
-0.00300085
-0.000489791
-0.000166696
1.14745e-05
0.00939703
0.00840594
-0.0102641
-0.00900401
0.00041214
0.007344
-0.0067711
0.000338227
0.00573645
-0.000357778
0.00659164
-0.00779469
0.00036886
0.00727866
-0.00632931
0.000293789
5.0619e-05
3.95239e-05
-0.00012565
-0.00459912
2.32089e-05
0.00408751
-0.000242124
-6.62727e-05
-0.0040777
0.00492451
-0.00555162
0.00555118
0.000112547
-0.00661343
5.97392e-05
0.00749959
3.78995e-05
-0.00876986
7.12376e-05
0.00992596
-0.00010564
-0.0113451
5.71186e-05
0.0128016
-0.000499196
-0.0142024
-7.54715e-05
0.0160557
-0.00182289
-0.0167175
-0.00137372
0.018693
-8.89312e-07
-0.0186938
0.00884338
0.0192087
0.00305228
-0.0177747
-0.000198538
0.0150724
0.00113237
-0.0142184
-6.5135e-05
0.0121586
0.000415345
-0.0110824
-3.09858e-05
0.00952464
0.000116574
-0.00843673
-8.17928e-06
0.00726941
-2.6479e-05
-0.00627676
8.83654e-06
0.00545053
-0.000126997
-5.27876e-05
-0.000196311
-0.000147158
-5.15974e-05
0.000627854
-2.64128e-07
-3.70283e-08
-5.21705e-07
-5.29442e-08
2.06415e-07
3.77262e-07
9.69362e-07
3.44498e-06
1.10031e-06
-6.06428e-07
-1.604e-06
0.00544256
-0.00544366
-0.00759708
-0.00724491
-0.00220338
-0.00387445
-0.0121509
0.036557
-0.0034848
0.000158664
-0.000157505
-0.000206895
0.00137403
0.0167182
0.00182201
-0.0160555
-3.911e-07
-4.29017e-07
-4.85345e-07
0.000498782
-0.0128018
0.0142023
7.54205e-05
-0.000147304
-0.000180742
-5.74678e-05
0.011345
0.000105166
-0.0099268
-9.44506e-08
-3.99558e-07
-4.68557e-07
-4.0019e-07
-0.000113474
0.006613
-0.00750023
0.00876973
-7.11059e-05
-0.000177786
-0.000155108
-4.02147e-07
-2.61851e-07
-1.10371e-07
-1.64195e-07
-0.000381149
0.00370981
-1.48028e-07
-0.00371034
6.61152e-05
0.00407722
0.000194554
-0.00492526
5.25116e-05
0.000125106
-2.16617e-07
-0.000195304
-1.83836e-07
9.5714e-05
3.33616e-05
0.00274446
0.000449979
-0.00316015
0.000228927
-0.00283926
0.00115813
0.00246592
-2.63632e-09
-0.00185378
0.000561884
-0.00233356
-0.000661821
-0.000835895
-9.88806e-05
-0.000538335
-0.000274312
0.000208349
0.000617217
-0.000804869
0.000272807
-0.000834884
0.000617834
-8.03086e-08
-0.000617816
-0.000303689
0.00165651
0.000834906
0.000112569
0.000274337
-0.000206225
0.000538263
9.88559e-05
0.000115649
-0.000592449
-0.000250843
0.000832589
0.000775407
-0.00017836
0.000198555
0.00109727
-0.00159421
0.00147771
-0.00022314
-1.27345e-08
-3.45268e-09
1.49349e-08
-5.59479e-08
-5.27804e-08
-1.11988e-07
-9.46311e-08
-1.06987e-07
-2.71944e-07
-3.93522e-07
-2.0029e-07
-3.13338e-07
-5.02325e-07
-3.775e-07
-4.22864e-07
-9.55457e-07
-0.0101952
0.00532968
-0.00453444
0.00754946
-0.0075506
0.00453449
-0.0150774
0.00157407
-0.00605139
0.0140029
0.00353212
-0.000335403
0.0131386
-0.0119281
-0.00669969
-0.0177046
-0.00566009
-0.00864059
-0.0129336
-0.0072712
0.000674072
0.00626458
0.00192103
-1.74975e-06
-2.85512e-07
-0.00191994
0.015078
0.00605365
-0.00157413
0.00476559
-0.00353213
-0.0131392
0.000334986
0.00154967
-0.00260349
-0.0109377
0.00373798
0.0165795
0.00425142
0.00760816
-0.0061309
-0.00626602
8.76521e-07
-0.0023418
-0.00476509
0.000336608
-0.000481278
-0.00738485
0.00613021
0.00119769
-0.0076086
-0.000225311
-0.00021152
0.00118659
-0.000891523
8.4561e-05
1.8163e-05
-0.00208328
-0.0042362
-0.00221881
-0.000163897
0.0119033
0.0103644
-0.0129332
-0.0116356
0.000530858
0.0092254
-0.000208124
-0.000244886
-0.00220506
-0.00132425
-3.34442e-05
7.84768e-05
0.000125319
0.000153626
0.000167699
-0.00463104
-0.000276022
0.000125595
0.00472949
-8.99719e-05
-0.00599407
0.00703158
-0.000113176
-0.00814606
0.00632378
-0.00537198
-0.000279729
-0.00733816
-0.000115586
-0.0109325
0.00837118
-0.000335736
-0.00985918
-7.22309e-05
-0.0143701
0.0108702
-0.000378706
-0.0129635
8.54386e-05
-0.0183781
0.013903
-0.000283143
-0.000980634
-0.00412384
-0.012505
-0.0124721
-0.0198246
-0.0020419
0.0336009
-0.00319474
-0.00327373
-0.00152518
-0.000684339
-0.000417535
-0.000269827
-0.00016746
-7.17791e-05
1.47965e-05
6.89867e-05
1.85575e-05
0.00666728
2.33829e-07
-0.0066679
0.00782312
5.95609e-07
-0.00907906
0.00907906
-0.00782298
-2.74153e-09
-8.01183e-08
2.46699e-08
7.45993e-05
0.000173134
-5.25675e-05
0.00207091
7.75492e-07
-0.00207145
0.00420222
4.38522e-07
-0.004849
0.00484845
-0.00420185
4.06426e-05
0.000588378
-0.000782861
0.000782885
-0.000447172
-0.000226205
-0.000588578
0.0024184
0.000172559
-0.000628394
0.00306919
-1.15826e-05
-0.00357336
0.00440136
-0.00395745
5.19977e-05
-7.46973e-05
-7.57833e-05
0.000211415
-4.27838e-05
0.00263513
0.000258029
-0.00326892
-0.000155435
0.00296811
0.000275558
-0.00335524
-0.000212152
0.00361041
0.00557229
0.000279857
-0.006324
0.00814499
0.000113758
0.00537321
-0.00472992
0.0059939
8.99695e-05
0.00393313
0.000247772
-0.00497686
0.00401714
0.00259522
-0.00259787
-0.000144002
-0.00378504
0.00024945
0.00291122
0.00191981
0.000281073
-0.00287474
0.00212745
0.00249569
-0.000710315
-0.00018694
-0.000399295
0.00427205
-0.000324536
-0.000173257
-0.000891831
0.00449614
-0.00193788
-0.00195123
0.00107463
-0.000403482
-0.000416555
-0.000379094
-0.000884818
-0.000627842
5.13842e-05
0.000147465
-5.74062e-05
7.55863e-05
0.00019602
0.000252944
0.000168599
0.0002776
0.000310541
-0.00031136
-0.000253117
-5.99082e-05
-0.000327256
0.000326277
0.000416138
0.000615543
0.000243476
-0.000244647
-0.000314315
0.000315157
0.0012268
0.0075992
0.00724845
0.00220734
-0.0147901
-0.000582863
-0.014436
-0.000159755
0.00154022
-0.0336012
0.00235083
0.00283024
-0.000136434
7.05275e-05
0.000230315
0.000272454
0.000264364
0.000243777
-2.31477e-05
0.00354278
0.000256442
-0.00420483
-0.000223979
0.00416658
0.000310693
-0.00439976
-0.000274757
0.0049902
0.00766742
0.000335394
-0.0083719
0.0109317
0.000115096
0.00733885
-0.0094424
-3.89509e-05
0.0105182
1.80392e-07
-0.0121817
0.0121813
-0.010518
3.84971e-05
0.00944238
8.94393e-05
1.78739e-07
4.03859e-07
9.96362e-08
1.20742e-06
-4.11475e-05
-0.0004973
-0.00208444
0.000517113
0.000317839
-0.0015904
-0.000768859
-0.000854591
-0.00147801
-0.000465872
-0.00178131
-0.00243756
-0.00230135
0.000222257
-0.00194915
-0.000487398
-0.00078583
-0.00125948
-0.00128193
-0.00127163
-0.00249491
-0.00197405
0.00104904
-0.00194881
-0.00223108
0.00456434
-0.000360731
0.000572955
0.000158334
-0.00232498
-0.00203827
-0.000792436
-0.000193022
-0.000346298
-0.000171657
-0.00335543
-0.000185618
0.00338226
0.000177292
-4.49207e-05
-0.000119825
-0.00435804
0.00490859
0.00027693
-0.00554203
-0.00029369
0.00633046
0.00576287
0.000357683
-0.00573683
-0.000338831
0.00677274
0.0103585
-0.00866814
-7.78551e-05
-0.000105423
-0.0072774
-0.00036844
-0.00659055
0.000201744
0.000209147
0.000200771
0.000175066
-2.74733e-05
-3.97795e-05
-5.10669e-05
0.000154582
0.000177146
-6.47865e-05
6.38931e-05
8.38795e-05
0.000461271
-0.0112639
-0.000106066
0.000117263
0.000598889
-0.014658
0.000583304
0.00017071
0.000111093
8.84815e-05
7.18592e-05
5.57221e-05
3.53345e-05
-4.34753e-06
0.0052046
-0.00576828
0.00576857
-0.00520414
3.97142e-06
-3.54241e-05
-5.59322e-05
-1.94966e-05
-0.00703134
-6.92312e-05
-4.48978e-05
-8.16943e-05
7.20369e-05
0.000167648
-8.95617e-05
-5.27419e-05
-0.000125274
-0.000153454
-0.000167205
0.00463185
0.000470147
0.00015287
-6.68316e-05
-0.00577765
0.00673498
0.000301612
-0.00758941
0.00904583
0.00028663
-0.00974098
0.0118774
0.000106515
-0.0119036
-0.000599966
0.0146588
0.0153349
0.000197827
-0.0121629
6.51568e-05
0.00049111
0.000169537
1.37948e-05
0.000360139
0.000799012
0.00125953
0.000672934
0.0020517
0.00130027
0.00387503
0.00299478
0.0121508
-0.0365559
0.00136633
-0.00167327
0.0129343
0.00565884
0.0177041
0.00669968
0.0119271
-0.00896191
0.00348484
0.00204208
-0.012093
-0.000238289
-2.56919e-05
0.00014298
-4.7183e-07
-6.14325e-07
-0.000118484
0.000146699
0.000180064
-8.46651e-05
-0.000112349
-3.27771e-07
-1.36038e-07
-8.90952e-05
-7.23377e-05
-6.04747e-05
-0.0124477
0.0138758
-2.10642e-07
-0.0160107
0.0160093
-0.0138762
5.99646e-05
0.0124477
0.000104617
-7.17695e-05
-0.000364832
5.31404e-05
-0.000159931
-0.000350927
-0.000706119
0.000115152
0.0159898
-0.0178027
0.000100967
-7.18296e-07
-6.65218e-07
-7.07429e-07
-4.30838e-07
-0.00674604
0.00127761
0.000156628
0.000206294
-0.000335984
-0.00909721
0.002342
0.000480536
0.00738391
0.00727151
-0.0140012
0.00864045
-0.000673512
-0.00119942
-5.59277e-07
0.00430107
0.0119847
-6.63025e-05
3.65816e-07
0.000144808
0.000213591
6.52209e-05
-0.00489798
-0.00850388
-0.00855288
-9.23839e-07
0.000220117
-1.641e-06
0.000642164
5.57739e-07
9.38694e-08
-6.35835e-08
-0.000105016
0.000270298
0.000417482
-0.000115764
-0.000102353
0.000351051
7.18917e-05
0.000822935
0.000479156
0.000180886
-0.00018669
-0.000248356
0.000149072
0.00046108
-0.000144295
-0.00504145
0.000815513
0.00132687
-1.04323e-05
0.0112654
0.000165862
0.000245857
3.45144e-05
0.00132499
0.00220693
0.00221991
0.004238
0.0124722
0.00208353
0.00412422
0.0125054
0.00319417
0.000980588
-0.000146146
0.000683289
0.00144414
0.00327438
0.000708671
-0.000125112
-0.00660529
-0.000178023
-0.000196485
-0.000398123
-0.000253908
-1.44047e-05
0.00016206
0.000364745
-0.000172099
-0.0014418
3.09355e-05
8.17904e-06
-8.78734e-06
-0.00380629
4.4776e-05
-0.00393242
-0.000248065
0.000250854
0.000592505
-0.000115649
-0.000198621
-2.32607e-07
0.000178379
-0.000775497
-0.0008326
0.000303749
0.00159425
-0.00109727
-7.02041e-05
-0.000462747
0.000446287
0.000226234
0.000430961
-0.000316691
0.000106378
-0.0085161
-0.000286594
0.000565918
-0.00155069
-0.00127744
0.000225246
0.000261592
-8.19464e-09
-3.89574e-05
-2.862e-07
-8.09653e-08
1.06574e-07
-0.000301426
-0.000369803
-0.00025596
-0.000310634
-0.0045641
-0.00427192
-0.00449587
-0.0137269
-0.0103752
0.00177232
-1.77704e-06
-0.00177175
0.0188682
0.00855147
-0.000786525
-0.000495494
-8.2154e-05
-1.2048e-05
0.00306817
-0.00395772
0.00440109
-0.00357316
0.000249895
0.00291114
-0.000892151
0.00449603
-0.00230148
-0.00243809
-0.00193783
-0.00195075
-0.00222982
-0.00194859
-0.00197386
-0.00249445
-0.00232486
-0.00203754
-0.000661865
0.000573035
-0.00083592
-0.00233332
0.000561762
-9.88689e-05
-0.00185391
7.43546e-08
0.0018538
-0.000561784
0.00233348
0.00066197
0.000835926
-0.000573044
0.000360839
-0.00015838
0.00203797
0.00232488
0.00249452
0.00197388
0.00194865
-0.00104909
0.000399404
0.000324483
0.000891894
-0.00107453
0.001951
0.00193776
0.0024376
0.00230134
0.00194878
-0.000222277
0.000487603
0.000226126
0.000588796
0.00207135
-1.0579e-06
0.000782803
-0.000588463
-0.000226482
-0.000487034
0.000222934
-0.000628041
0.000172234
0.00241813
5.22847e-05
0.00420155
-0.00420217
-6.20136e-07
-0.0048488
4.23648e-06
-0.00520434
8.9595e-05
0.00393232
0.00401688
0.000248031
-0.00497718
-0.0033558
0.00259453
-0.000144318
-0.00259785
-0.00378547
0.000135896
0.000150933
0.000132095
9.16122e-05
-1.3521e-05
-0.000245758
-0.000404508
0.0043013
-0.00335387
-0.0115979
0.0062287
0.0119791
0.00425182
0.0165794
0.00373884
0.00670025
0.0177045
0.00566024
0.0129323
0.00863902
0.00605051
-0.0140013
0.00476441
-0.000336404
-0.00157353
0.0150772
-0.00453264
0.00754999
-1.23655e-07
-0.00755125
0.00453137
-0.0150785
-0.00605206
0.0140003
-0.0129332
-0.0086394
-0.00566106
-0.0177043
-0.00670004
-0.00374056
0.0109359
0.0118892
0.0115969
-0.0119799
-0.00425383
-0.00622936
-0.0178997
-0.00758725
-0.0103756
-0.0149573
-0.00649262
0.0102134
-0.0131045
-0.00192884
0.0211279
-0.0211294
0.0131031
-0.0102144
0.00649273
0.0149566
0.0103753
0.0137278
0.00758738
0.0178994
0.0217263
0.0213498
-0.00393721
0.0188682
0.0070308
0.00855241
0.00670808
-0.000221614
1.57276e-07
0.000220656
-7.98831e-07
0.0119852
-0.0119865
0.000451773
-0.00670819
-0.00855288
-0.0070315
-0.0188692
-0.0213507
-0.0217261
-0.0175398
-0.018039
-0.0198177
-0.0177574
-0.0179565
-0.0214616
-0.0206633
-0.0179503
-0.00590139
0.00167563
-0.00136615
0.0147904
-0.0153351
0.0121633
-0.0118764
0.00974247
-0.00904521
0.00758963
-0.0067346
0.00577845
-0.00490784
0.0043585
-0.00354257
0.00335555
-0.00263504
-0.00249544
-0.00212726
-0.0019195
-0.0029112
-0.00306892
1.14817e-05
0.00395737
-0.00241842
-0.000172485
0.000628376
-0.00449607
0.000572561
-0.000136201
-0.000151234
-0.000132549
-9.23205e-05
1.31164e-05
0.000244839
0.000403122
-0.00430217
0.00335327
0.00118631
0.00327942
-0.000891996
0.00812943
-0.00813024
-0.00328026
-0.00118732
0.000891241
0.00256143
-0.0118904
-0.0109366
0.011927
-0.0131385
-0.00353158
0.000336019
0.00154953
-0.0026026
0.00235069
0.00283007
-8.16798e-07
-0.00283058
0.00353084
-0.00476583
0.00909389
0.000334759
0.0101932
-0.0101953
-0.00909603
-1.60579e-06
0.0064662
0.00674359
-0.0067462
0.00127762
-0.00646872
0.00048027
-6.33222e-07
0.0062631
0.000671624
-0.00727213
0.00191962
-9.85224e-07
-8.5231e-07
-5.0474e-07
0.00884224
-0.00674271
-0.0198077
0.00435835
-0.0161581
0.0196557
-0.0186934
0.0167165
-0.0167183
-0.00182379
-0.0150725
-0.00113341
0.0142176
-0.0121587
-0.000415575
0.0110818
-0.00952467
-0.000116444
0.00843627
-0.00726931
2.67309e-05
0.00627675
-0.00545049
0.000127235
0.00459923
-0.0040876
0.000242335
0.00339339
-0.00316041
0.000450036
0.00274434
0.00115803
0.00246562
-0.00246591
9.86812e-05
0.000538158
-0.00121907
-0.00109634
-6.97975e-08
0.000762856
-0.000763014
-0.000835164
-9.91474e-08
0.000862577
-0.000862704
-0.00066833
-1.70008e-07
0.00160371
-0.00160413
4.33103e-05
-7.20406e-07
-0.000447468
0.000448882
-0.000317852
0.00159035
0.000768884
0.000854465
0.000465956
0.00178122
0.000668334
-0.00147914
-0.000301058
0.00109732
-0.00159422
0.00147799
0.000775433
0.00083266
0.000290721
0.00165635
0.000311978
-0.00126994
-0.000226545
0.00026141
-0.0012308
0.00150734
0.000218494
0.000235974
-0.000211661
-0.000244189
-0.000264926
-0.000272915
-0.000230659
-7.08078e-05
0.000136295
0.000583714
0.0144346
0.0120941
0.0114781
0.0161061
-0.0174583
0.0137999
-0.0136864
0.011104
-0.0103592
0.00866886
-0.00766824
0.00660581
-0.00557275
0.00497705
-0.00401734
0.00378524
-0.000249646
0.00357312
-0.00440161
0.00484884
-0.00576859
-2.134e-07
0.0057677
-0.00666804
0.00599346
-0.00473017
0.0053724
-0.00703155
0.000113181
-0.00632456
0.000279901
0.00557178
-0.00021217
0.00360957
0.00416589
0.000310688
-0.00504174
-0.00554253
0.004631
-0.00022404
-0.00380676
0.000275493
0.00296758
-0.00287507
0.00028144
0.00191936
-0.00017342
-0.000324516
0.00107438
-0.00150743
-0.000668403
-0.00178134
-0.000465915
-0.000854406
-0.000768492
-0.00158986
0.000316601
-0.000430992
-4.32135e-05
0.000707382
-6.96383e-05
-0.00109736
-2.4444e-05
0.000300917
0.00159426
0.00147917
0.00123078
-0.000261592
-0.000229846
0.000668241
-1.62086e-07
-2.52263e-07
-2.82037e-07
-1.41574e-07
-1.06097e-07
-6.74591e-08
-5.39482e-08
-3.71203e-07
-4.57309e-07
-6.3638e-07
-1.99361e-07
0.00437062
-0.000227347
-0.00760984
0.00119796
-0.0165794
-0.00738546
0.0131367
-0.000337126
-0.00155122
-0.0012791
-0.0001577
0.000159185
-0.00154085
-0.000819681
-0.00503092
-0.00485372
0.0103959
0.0149054
-0.022762
0.00022327
0.01974
-0.0166053
0.0184834
0.000348533
-0.00412356
-0.0125055
-0.0124708
-0.0121482
-0.00724619
-0.00759752
-0.0012262
-0.00299718
-0.00220618
-0.00387564
-0.00205047
-0.00129994
-0.000614932
-0.00041631
-0.000671745
-0.000168658
-0.000490665
-0.000164881
-0.0146578
-0.0129334
0.0103634
0.00922434
0.000530881
-0.0116352
0.000564516
0.000237204
-0.00235186
0.00260138
-0.0025636
-0.000212309
0.00612914
-0.000482641
-0.00234333
0.00157239
-0.00533038
-0.00116347
-0.00544336
4.27887e-07
2.78741e-07
7.81577e-07
-1.01568e-07
-6.01213e-07
-6.99528e-07
-6.52398e-07
-1.29033e-06
-6.18722e-07
-1.31749e-08
1.35323e-07
-0.000627909
0.000627833
0.000884581
5.70515e-05
-7.55005e-05
-0.000168686
-0.000277627
-0.00036006
-1.33555e-05
-0.00125834
-0.000798403
-0.000469844
-0.000151908
6.73203e-05
0.000145224
-0.00633023
-0.00576339
0.00504152
0.00439955
0.000274677
-0.00498923
0.00573594
0.000338074
-0.0067716
0.0073432
0.000411887
-0.00900394
-0.00020865
-0.0102651
0.00840572
0.000461543
-0.0112637
0.0119026
0.00059954
0.000117595
2.50333e-05
-0.00014359
-0.000370281
-0.00779538
0.00659115
0.000368362
-0.0085169
0.0093972
-0.000286846
1.13632e-05
-0.00221841
-0.00423665
-0.00204152
-0.00348413
0.00896114
-0.0119277
0.0365539
-0.00208381
0.0093267
-0.00319479
-0.00850147
-0.00489767
-0.0015259
-0.00327434
-0.000980079
-0.000244659
-0.00220521
-0.00132377
-0.00132562
-0.000814433
-0.000460468
-0.000148779
-0.000176965
4.55882e-05
0.000120099
0.000167938
-0.00463127
-0.00416633
0.00380685
0.0033553
0.000211688
-0.00360942
-0.000310541
-0.000209891
-0.000202377
-0.000357901
5.05337e-05
0.000293391
0.0055418
-0.000276533
-0.000155111
0.007269
-8.91151e-06
-0.00843715
0.000116925
0.00952419
-3.08238e-05
-0.0110829
0.000416488
0.0121576
-6.48356e-05
-0.0142182
0.00113356
0.0150719
-0.000198307
-0.0177744
0.00305362
0.0192062
0.00416538
0.00137307
-0.000207319
0.000205965
-0.0192075
-0.00305311
0.0177738
-0.00137478
0.0186922
-0.00884398
-0.0196567
-3.75468e-07
0.0161572
-0.00436031
0.0198064
0.00590036
0.00674113
0.0011624
0.00532949
0.0023415
-0.00192128
-0.00626525
0.00727183
-0.000672832
0.00738456
-0.00613033
-1.19248e-06
-6.13997e-07
-6.97574e-07
-6.84146e-07
-7.02296e-07
-6.32198e-07
0.00182315
-0.0160555
0.0142015
-0.0128016
0.0113451
-0.0113467
-0.000106208
0.0099258
7.11659e-05
-0.00876992
3.79967e-05
0.00749897
6.01681e-05
-0.00661351
0.000113156
0.00555117
5.27492e-05
-0.00492523
0.000194797
0.00407724
6.60244e-05
-0.00371063
0.000380862
0.00300153
0.000228877
-0.00283946
-9.73385e-08
0.00283911
-0.00115803
-0.00274448
-0.000450086
0.00316008
4.27435e-05
-0.0033934
-0.000242176
0.00408759
2.29631e-05
-0.00459966
-0.000127271
0.0054499
8.38835e-06
-0.00627746
-2.67406e-05
-6.05251e-05
0.00661238
-3.38439e-07
-0.00555223
0.00492462
-0.00407799
0.00371007
-4.134e-07
-0.00300186
-0.00022901
-3.35098e-05
-9.60873e-05
-6.62486e-05
-0.000147128
-0.000196429
-0.000253722
-0.000311672
-0.000327054
-0.000243871
-0.000314214
0.000313721
0.00544277
0.00759706
0.00122578
0.000242091
0.0160538
-7.65051e-05
-0.0142035
-0.000500752
0.0127997
5.69689e-05
0.000179888
-1.95087e-07
0.000500835
-5.27356e-07
-3.28853e-07
0.00010647
-0.00992681
0.00876853
-0.00750047
-3.8549e-05
-5.37369e-07
-6.69086e-07
-3.91369e-07
-0.000113762
-3.68915e-07
-0.000194933
-4.71286e-07
-1.69463e-07
-0.000380656
-1.14815e-07
-5.23462e-09
0.00121897
-0.000538211
0.000563832
-0.000776064
0.000775955
-0.000563792
0.00170887
-0.000206201
0.000705636
-0.00161523
-0.000349565
4.80218e-05
-0.00144569
0.00152392
0.000640298
0.00181764
0.000495428
0.000853533
0.00153896
0.000804841
-0.000272676
-0.000617261
-0.000208361
1.48979e-07
-8.72276e-08
0.000208229
-0.00170888
-0.000705579
0.000206087
-0.000581827
0.000349365
0.00144569
-4.8041e-05
-0.000233558
0.000226453
0.00126998
-0.000312003
-0.00165639
-0.000290728
-0.000832675
0.000617867
0.000617285
-9.9533e-08
0.000274356
0.000581748
-2.57056e-07
0.000112551
0.000834917
-0.000617848
-0.000303746
-7.6668e-08
-0.000112568
-0.000274401
0.00109631
6.82851e-08
3.33301e-05
-2.51385e-07
-2.82298e-07
-3.92805e-07
-3.16858e-07
-3.70404e-07
-3.07727e-07
-0.000146994
7.63589e-05
0.000146163
-0.000136533
0.000197615
-0.0147909
-0.000582725
0.0146582
-0.000600199
-0.0103647
0.000208027
0.00900377
-0.000412289
-0.00734479
-0.0111041
0.000377968
0.00985861
-0.012448
7.12566e-05
-0.0108717
0.0129622
-0.0159909
-8.53852e-05
-0.0139053
0.00028279
0.0136848
-0.0137995
-0.00922706
0.0116355
-0.000531055
0.0174572
-0.000347823
0.0166053
-0.0197405
-0.000223517
-0.0184845
-0.0161063
-0.0114794
-0.000564562
0.0129324
-0.0120935
-0.0144363
0.0034838
-0.000159751
0.00154029
-0.0336005
0.000819809
-1.92404e-05
0.00502988
-0.0355227
0.00485415
-0.0149063
-0.0103974
0.00489658
1.35364e-07
6.53113e-05
0.000641928
0.0252017
-3.51177e-07
0.0218096
-0.0218096
0.000213119
-0.0183779
8.56728e-05
0.015991
-0.0129627
0.0139031
-0.000283221
0.0108698
-7.20983e-05
0.0124483
-0.00985833
-0.000378451
0.00837069
-0.000116001
0.00944278
-0.00733777
-0.000336112
-0.000822346
-0.000478756
-0.000180453
0.000186883
0.0002484
0.000193014
0.000346269
0.000172054
0.000185939
-0.0033818
-0.00296819
0.00287497
0.00259763
0.000143777
-0.00259477
-0.000275649
-0.00020127
-0.000175425
-0.000280965
7.55375e-05
0.000186901
0.000710336
-0.00456417
0.00127145
0.000792041
0.000378968
0.000416653
0.00128176
0.00223059
-0.00427198
0.000403663
0.000178456
0.000153824
0.000125772
7.88284e-05
-3.36651e-05
-0.000351374
-0.00144428
-0.000683431
-0.000417725
-0.000709521
-7.25125e-05
0.000104738
0.00011476
-0.0143708
0.0160102
1.36245e-08
0.013876
-0.0138758
6.05194e-05
0.0121816
-1.94339e-07
0.0105183
-0.0105185
3.83036e-05
-0.00814549
-0.00011376
0.00703149
-0.00537265
0.00632351
-0.000279947
5.20959e-05
-0.000365407
-0.000270366
-0.000167762
-0.000162474
0.000125681
6.89816e-05
-0.00599448
-9.02561e-05
0.00520411
-0.00393292
0.00472953
-0.000247846
0.000196612
1.42531e-05
-7.19239e-05
8.2047e-05
0.000253915
0.000398226
0.00125951
0.000785703
0.000497408
0.00208426
-0.000517191
0.000883578
-1.80981e-06
-0.000870946
0.000511597
-0.00208205
-0.000446351
-0.000461726
-1.24529e-06
-2.63716e-07
4.46492e-05
-4.26459e-06
3.50934e-05
2.71559e-05
0.000155117
0.00326907
-0.000257621
3.92829e-05
0.000223846
0.00420491
-0.000256091
-0.000125529
-5.30269e-05
0.000124857
0.000154394
0.000177131
0.000230604
7.071e-05
6.46643e-05
-0.0121643
0.000106304
0.0112634
-0.000462339
-0.00840603
0.000370666
0.00677129
-0.000338571
-0.0057375
-0.00866821
0.000336666
0.00733796
-0.00944273
0.000115192
-0.00837212
0.0109313
-6.05852e-05
-0.0121816
-0.000104785
-3.76719e-07
-1.06146e-07
-9.41728e-07
0.00014559
-0.000145269
-6.56248e-05
-0.000642931
0.0227606
-0.0252032
-8.55764e-05
0.000156398
-0.000118326
-0.000237908
-2.52379e-05
-3.19622e-07
8.4232e-05
-0.000180275
-5.70684e-05
-0.000177528
-7.12492e-05
6.40962e-05
-1.36475e-07
-3.24919e-07
-4.08154e-07
-3.65687e-07
-2.66338e-07
-1.01846e-07
-6.13243e-08
-0.000236009
0.00021154
0.000243729
0.000264455
0.000272425
7.86433e-06
-0.00759021
0.000301814
0.00632977
-0.000293682
0.00576223
0.000357851
0.00498915
-0.000275415
-0.00440025
-0.00660595
0.0076667
-0.000125614
-0.000145455
-6.84211e-05
0.000276946
0.000415473
0.000614008
0.000326914
0.000311475
0.000253753
0.000196503
0.000168325
7.54026e-05
0.000147152
5.12365e-05
-5.74308e-05
-0.000884811
-0.000792713
-0.000379399
0.00263506
0.000257968
0.00249532
-0.000187226
-0.000399431
0.0042721
-0.000218636
0.000175115
0.000200807
0.00020928
0.000201861
0.000143376
-8.45453e-05
-6.47124e-05
-0.000369075
-0.00727797
-0.00659126
0.00779448
0.00851666
0.00904468
0.00028725
-0.00974215
3.02144e-05
0.0118765
0.000166751
0.000490205
0.015333
0.00220409
0.00136598
-0.0365562
0.0206645
0.0179536
-0.00167646
0.00724415
0.0121485
0.0214633
0.0179575
-0.00896214
0.0177551
0.0198232
0.0180411
-0.00932764
0.01754
0.0125037
0.0124722
0.00204185
0.00387381
0.00300122
0.00205055
0.00128542
0.00125794
0.000661455
1.1398e-05
-0.000106902
-1.1669e-05
-0.00939797
0.0102628
0.000164547
-0.0119043
0.00423643
0.00221779
0.00132507
0.000813804
0.000797383
0.000353323
0.000468944
0.000276587
0.00490734
-0.00435847
0.000256398
0.00338182
-0.0001556
-0.00326923
-0.00335559
-4.28134e-05
0.00354228
-2.31827e-05
-0.000172091
-0.000121033
0.000145857
-0.000167998
-0.00420556
0.000176609
-4.97e-05