/*--------------------------------*- C++ -*----------------------------------*\
| =========                 |                                                 |
| \\      /  F ield         | OpenFOAM: The Open Source CFD Toolbox           |
|  \\    /   O peration     | Version:  2306                                  |
|   \\  /    A nd           | Website:  www.openfoam.com                      |
|    \\/     M anipulation  |                                                 |
\*---------------------------------------------------------------------------*/
FoamFile
{
    version     2.0;
    format      ascii;
    arch        "LSB;label=32;scalar=64";
    class       volScalarField;
    location    "1.6";
    object      gradTy;
}
// * * * * * * * * * * * * * * * * * * * * * * * * * * * * * * * * * * * * * //

dimensions      [0 -1 0 1 0 0 0];

internalField   nonuniform List<scalar> 
5712
(
12130.6
6996.95
19626.5
12892.3
21443.4
15897.4
33575.5
41759.4
44191.2
54220.8
28618.8
24908.2
18168.9
14432.6
9135.13
6183.91
20236.6
20566.9
17490.6
20474.9
27336.3
24256.8
31679.3
25487.7
8522.82
6095.08
4803.52
3577.83
10159.3
8253.11
6194.7
5030.38
18705.6
19308.5
19001.3
15856
14657.4
11568.6
11594.7
13201
18663.2
18611
39344.6
40717
27736.7
28623.4
16003.1
13493.8
17330.4
12337.2
8060.4
8306.22
6690.39
9591.39
3506.92
4291.72
9154.68
12808.6
5473.26
6455.2
10081.6
17314.6
7013.15
11629.9
2662.28
6891.5
2216.91
5131.75
18066.8
22367.9
18761.5
22346.3
22055.5
22225.4
22581.5
22015.9
16044
21804.3
16387.6
21489.1
18533.7
22235.3
18557.6
22207.6
22840.2
21780.3
22800.6
21597.5
14860.2
21920.8
14366.3
22014.2
18358.3
21766.8
23177
32654
19457.6
25256.4
22983.4
35619.8
17400.2
19104.6
23256.7
31318.8
17218.1
17853.2
23505.2
31051.2
5714.94
7546.68
14636
25830.7
7038.18
8062.37
18736
29192.6
8685.87
8794.62
23597.7
32290.6
24955.1
26492.1
21403.3
20945.2
30957.2
26589.1
25341.5
21803.4
19099.9
35573.8
24272
24165.6
21775.6
22019.2
40375.2
2176.35
2624.14
4710.83
10976.3
3074.4
3511.28
6440.03
12174.7
4540.43
3855.11
8679.61
13792.2
26141.8
25513
23761.7
23067
20677.6
18642.7
15790.4
13831.8
11335.2
16011.3
23893.8
22820.3
24289.6
23660.7
21343.1
19820.9
17894
15945.7
12040.4
16054.5
24187.3
27160.1
24158.7
27891.5
23202.4
23909.8
22696.4
24156.1
22203.5
22554.4
22009.9
21873.9
23987
28033.6
23896.9
28030
22059.3
24493.5
21896.6
24459.2
22290.5
22503.5
22297.3
22500
18839.5
17898.9
12198.5
13631.9
18725.7
17448.9
12029.2
13748.3
19089.8
17831.7
12456.6
13657.5
19167.4
17648.4
12841.4
13654.1
1738.12
1143.55
777.522
988.562
656.096
608.084
2430.3
1395.65
1033.92
1931.78
1518.92
1284.3
2768.98
2210.22
2177.73
3379.2
2700.27
2392.98
23939.8
21164
19289.2
22196.5
20175.9
18644
16027.6
14577.8
13774
11047.2
9331.99
8591.05
5168.99
3697.01
3080.79
21754
19691.7
18046
22545
20077.1
18247.5
16861.3
14110.4
12571.3
11104.3
8623.36
7603.74
5484.7
3667.7
2890.17
27589.1
26882.8
30148.8
26944
31044.2
26946.2
37616.7
28478.2
21280.9
21483.4
21052.4
19458.9
23888.6
22381.8
23516.1
20015.4
23287.6
23032.2
21419.5
22814
28351.1
25578.1
28451.5
28932.7
31007.7
32120.8
23653.1
24583.6
21166.2
20567.9
25673.1
26372.5
16562.3
8977.33
15534.2
9930.15
16820.2
9059.75
15509
9872.78
16598.1
9104.06
15477.4
10286.9
15080.7
10760.7
15277.8
10671.2
21391.2
18180.6
21356.6
18208.5
23689.5
21307.5
24024.3
21158
20863
15141.7
21673.7
14898.7
21890.4
18154.5
22197
17960.4
24710.7
21023.3
24761.2
20770.8
20716
15212
20682.1
15124.6
13650.8
9142.85
11968.1
7780.74
12676.3
8193.3
11473.5
7275.96
14015.3
9711.86
12177.7
8017.85
14047.5
10053.9
12151.9
8076.29
2609.44
1370.42
4824.24
2662.97
2781.28
1673.03
5136.51
3166.27
3413.59
2510.51
5679.43
4106.08
13090.3
20356.1
9443.63
9068.04
6547.42
19864
13768.6
8065.57
8113.53
5406.21
20755.3
16269.4
12898.6
10042.9
6390.64
739.571
548.769
1582.47
1188.18
1031.38
704.635
2175.36
1735.93
1769.58
1339.6
3101.03
2523.58
20043.9
19166.7
13499.7
12749.2
8738.63
8645.38
7357.47
6612.85
4625.49
3777.82
18874.9
16967
14545.1
12580.5
11273.8
9827.34
8577.82
7577.09
5630.17
5428.37
14981.7
11931.7
15114.7
11697.1
18125
14890
18139
14754.5
12580.4
10018.7
12178.2
10013.6
15146.1
11546.8
15061.4
11536.8
18099.2
15075.4
17939.1
15045
12824.7
9886.55
12806.2
10018.2
9786.42
8111.82
6610.82
6772.49
9412.8
7908.27
6310.35
6402.4
10208.5
8281.62
6781.39
7160.48
10446.2
8280.62
7042
7262.99
1586.88
1384.17
1140.76
6781.98
3624.32
2953.97
1549.81
1513.83
1337.42
7405.36
4312.23
3641.77
2145.36
2379.79
2424.58
8264.35
5440.26
4820.77
17704.1
16215.6
15200.7
11973.5
11362
10996.3
8636.12
8347.54
8247.38
7299.11
6926.66
6689.79
9496.41
6763.35
6069.36
15163.7
13647
12659.9
11144.1
10112.3
9536.93
9141.84
8277.41
7805.96
8652.47
7523.89
6886.04
11600.5
7647.61
6804.09
4975.57
3080.69
2079.99
1578.18
5583.88
3337.69
2191.15
1618.38
5003.24
3080.08
2085.46
1588.74
5704.99
3407.14
2239.33
1644.73
4996.37
3053.36
2102.2
1596.69
5823.29
3453.06
2302.26
1666.12
6261.08
3651.01
2336.89
1705.51
6443.56
3788.95
2401.62
1759.56
5322.25
3249.02
2191.48
1625.13
4399.55
2872.48
2020.13
1558.1
4689.03
2953.44
2054.1
1527.44
4064.35
2713.13
1942.49
1500.27
5748.39
3472.78
2285.56
1686.98
4601.55
2989.14
2069.01
1602.6
5988.85
3625.5
2355.08
1737.03
4691.98
3073.19
2112.66
1633.99
3786.21
2658.34
1904.35
1500.97
2519.78
2157.28
1690.74
1411.52
3800.93
2648.48
1903.67
1498.82
2628.73
2187.37
1701.46
1419.46
3897.12
2651.51
1920.48
1511.89
2953.66
2283.53
1740.47
1453.35
3863.27
2595.3
1893.44
1544.24
3236.27
2352.75
1792.88
1452.11
3617.97
2528.01
1855.32
1478.88
1272.33
1754.51
1359.4
413.451
-88.4057
1533.22
1228.56
430.274
1500.07
1830.53
1390.81
435.783
185.425
1617.13
1255.29
439.429
1930.87
1965.85
1436.32
434.508
655.633
1759.8
1293.52
444.364
2464.44
2128.98
1507.86
471.28
1167.54
1920.41
1350.38
463.4
2829.57
2281.17
1597.3
545.858
1333.25
2045.96
1403.78
480.171
3028.21
2453.04
1636.37
521.798
1099.17
2188.45
1504.63
510.15
2949.66
2377.13
1607.2
521.508
1047.55
2122.62
1453.27
492.438
3059.14
2506.77
1655.36
488.367
1059.6
2244.23
1537.08
513.175
3123.03
2562.08
1696.99
497.997
1161.06
2302.58
1576.58
525.25
1308.16
935.149
608.778
339.371
108.661
1295.12
933.432
609.297
339.86
108.825
1324.77
943.341
612.584
341.071
109.148
1316.82
943.913
614.365
342.172
109.493
1357.99
954.961
617.497
343.211
109.759
1344.69
956.249
620.283
344.879
110.278
1363.34
970.119
628.023
348.629
111.385
1395.26
989.855
638.953
353.944
112.959
1391.41
968.842
624.501
346.49
110.716
1483.38
985.526
629.152
348.163
111.166
1398.08
965.195
621.147
344.692
110.172
1481.25
979.452
625.436
346.335
110.623
1403.75
981.021
631.429
349.867
111.716
1510.69
997.323
635.433
351.199
112.064
1436.41
1000.22
641.702
354.814
113.178
1545.31
1014.45
644.314
355.458
113.322
1342.94
939.776
608.709
338.976
108.516
1409.88
945.068
608.836
338.749
108.43
1358.71
946.264
611.566
340.224
108.871
1422.52
949.987
611.027
339.71
108.703
1391.23
957.126
616.048
342.171
109.426
1450.45
958.959
614.918
341.432
109.195
1442.68
969.446
620.556
344.071
109.963
1483.9
968.595
619.327
343.422
109.768
1491.11
975.772
623.089
345.183
110.281
10870.7
16806.7
11328.4
17039.6
11981.1
17308
12361.9
17401.1
11734.9
16572
10707.2
12091.7
10774.5
12777
10737.2
11935.8
10910.7
12057.7
9674.3
1659.85
355.526
79.9449
14.1858
10774.8
3071.59
747.299
169.943
30.1419
9731.65
1640.68
349.051
78.2179
13.8448
10818.8
3047.23
738.906
167.293
29.4246
9747.4
1622.2
342.466
76.4533
13.5087
10810.4
3015.45
727.78
164.253
28.8569
9567.77
1559.26
326.471
72.7424
12.8498
10591.4
2929.29
704.875
158.901
27.8981
8981.26
1426.84
298.266
66.697
11.8132
9943.56
2756.36
665.731
150.566
26.4822
7855.9
1297.91
280.303
63.7462
11.3836
8047.26
2343.9
581.711
133.856
23.7838
8196.72
1332.63
284.396
64.2587
11.4356
8606.64
2502.14
615.334
140.421
24.811
7713.56
1286.53
279.096
63.622
11.373
7842.04
2269.43
563.654
130.118
23.1876
7668.28
1273.62
276.026
62.9406
11.2412
7829.56
2248.63
556.914
128.846
22.9233
34538.4
49190
48019.3
33471.1
19600.7
20651.6
28921.7
30272.4
22725.7
25528
36228.5
49576.7
45852.9
60881.9
29898.4
34140.2
23409.9
25051.8
12689.6
13930.1
4847.91
3145.46
715.878
529.43
599.658
517.599
650.271
4656.6
4505.67
2676.4
3721.39
3506.63
1481.14
2095.66
1862.49
1198.9
1392.25
1122.51
4219.57
2189.32
1325.18
1164.18
1524.48
1309
1000.55
930.776
855.254
741.942
1045.92
937.727
4457.47
2635.38
3043.09
1874.02
1508.77
2187.09
1018.79
769.711
1129.8
9737.3
9598.91
9558.81
10459.1
16697.1
6881.61
7722.5
8259.25
9084.17
10426
1872.59
2652.44
3231.5
3618.33
3816.1
1397.57
2005.8
2469.39
2780.99
2938.17
1581.1
2264.1
2779.58
3121.86
3292.61
1368.3
1967.48
2425.04
2731.81
2885.69
1709.3
2437.09
2982.25
3344.28
3526.04
9677.77
9764.68
9425.55
9757.17
14838
9343.95
9263.95
8783.92
8803.67
9898.14
6082.91
7073.15
7487.49
7866.58
8396.5
7946.99
8183.88
7819.96
7633.76
7746.81
7487.82
7788.13
7431.34
7140.56
7079.44
3660.93
4774.02
5434.72
5833.16
6051.72
4932.58
6002.95
6497.98
6790.42
7007.7
4446.05
5508.51
6008.43
6250.64
6373
3033.9
4088.04
4766.17
5176.59
5381.01
3459.18
4538.44
5175.4
5536.55
5712.22
2859.86
3888.85
4562.18
4967.46
5163.16
8938.19
9322.75
9263.57
9838.48
15141.6
5147.62
6299.21
6942.68
7484.03
8063.15
3326.33
4436.95
5148.97
5603.85
5858.54
2956.89
4014.3
4729.1
5198.25
5457.29
3763.27
4916.97
5647.59
6156.97
6503.79
3293.88
4420.02
5177.82
5700.51
6016.78
2570.7
3552.02
4251.24
4724.78
4983.82
2407.09
3352.23
4026.56
4470.22
4700.08
2224.52
3119.79
3759.01
4167.59
4368.68
1941.73
2749.33
3341.96
3728.79
3921.12
2682.06
3685.55
4370.04
4802.25
5020.95
2423.23
3369.17
4037.09
4469.46
4689.83
9176.76
9324.37
9339.4
10151.7
16001.6
5955.32
6974.11
7617.4
8379.49
9411.68
6986.54
8024.83
8441.68
9179.8
10988.1
4517.23
5744.06
6541.33
7205.43
7775.87
3741.57
4929.44
5719.65
6302.14
6701.77
5150.11
6335.02
7040.31
7673.76
8353.35
2616.28
3610.25
4311.97
4781.18
5034.76
2009.07
2835.1
3439.9
3838.01
4039.21
2877.9
3925.3
4645.85
5126.69
5393.93
19157.9
12751
19712.7
14116.1
25469.2
36614.9
26662.8
36471.6
20231.2
21336.1
17395
20662.7
22866.4
21652.5
29288.2
23868.6
14848.5
13997.2
7275.03
6255.67
16159.2
14871.1
8343.88
6850.43
20022.1
21594.5
20445.5
18588.4
20932.3
13777.7
11443
13186.2
18653.1
18607.5
38921.2
40650.3
27059.5
28448.4
16684.3
13644.5
18130.4
12486.7
8805.37
8489.45
14835.8
16494.7
6198.06
6789.45
16286.2
18685.8
7714.36
8553.65
15468.6
21780.6
8969.99
13914.7
3120.12
7681.27
2309.65
5286.31
18758.1
21389.7
18706.6
21783.1
20308.3
20541.3
21457.5
21084.5
17197.7
21735.6
19529
21434.3
18396
21935.7
18498.2
22110.5
22269.9
21309.2
22634.6
21452.4
15222.4
21859.6
14431
21986.9
19359.2
23076.2
23472.1
32981.8
21121.4
27408.6
23579.4
36268.6
17862
19743.5
23377.3
31468.7
17338.6
18032
23531.2
31091.6
20371.2
21981.6
25705.9
38266.8
20442.3
20879.7
27485.2
38726
20061.5
19672.6
29522.8
38326.8
18950.7
19658.4
20462.3
22010.7
33506.9
18859.9
17767.4
21801.7
20061.2
38395.9
19677.8
20705.5
20749.6
22783.7
41406.8
11952.4
10869.5
11246.8
14687.1
13092.4
11926.9
11641.8
15070
14429.2
12428.8
12158.6
15367.5
18193.6
17346
17221.5
16623.5
20134.9
18670.7
16751.3
14992.1
12714.1
16005.1
19255.8
18880.9
20586.5
20588.6
19952
18674.7
18290.3
16184.7
12501.4
15443.3
22447
25194.7
23300.3
26849.5
21036.6
21851.3
21672.9
23152.4
21769.3
21969
21247
20932.6
23573.7
27537.2
23772.3
27883.6
21586.8
24012.8
21757.4
24319.8
22057.8
22207.9
22223.9
22412.7
18767.8
17685.7
12269.5
13555.8
18723.9
17221.5
12260.8
13657.3
19026.4
17705
12471.3
13608.6
19142.5
17607.2
12841.5
13635.8
9904.56
10060.3
4301.72
3946.04
11047.6
10667.6
4817.99
4596.69
10748.1
10019.2
5472.82
5265.37
16934.7
16305.8
16705.9
16680.3
16838.9
16218.4
12797.6
11364.7
6470.6
5300.23
18986.1
18069.7
20537.5
19587.9
16495.6
15155.7
11976.9
10182.1
5936.65
4402.61
22585.1
21367.7
27893.1
24224.8
25297.2
22430.3
34894
26143.4
20602
16901.1
22545.7
17804
20460.6
17182.6
22640.4
18045.1
21144
18624.6
19044.4
17605.2
21471
22894
27102.5
28526.6
29903.1
31806.5
22329.8
24123.4
20096.7
20263.6
24142.1
25858.9
13737.2
10156.5
14224.6
10395.7
14021.1
10073.1
14428.4
10254.7
13917.4
9926.08
14372.8
10460.4
14434.7
10781.3
15064.5
10670.4
17506.1
16895.3
19436.2
17416.3
20171.5
19252.7
22173.4
20024.4
19034.5
14840.1
17993.2
14612.7
20943.7
17734.7
21916.9
17833.5
23821.3
20456.3
24505.8
20600.5
19808.9
15022.3
20416.4
15065.5
13236.9
9540.17
12159.6
8153.58
12608.5
9233.7
12058.1
8067.73
13697.6
9853.75
12233.7
8190.84
13936.7
10086.7
12165.5
8132.03
13145.1
13164.3
9528.6
8784.79
13276.2
13277
9385.74
8713.53
13215.4
12763.2
9157.9
8618.58
15390.5
18261.7
16127.4
11974.8
8888.27
16908.4
15730.5
17473
11955.7
8584.82
18660
16414.3
14474.4
12116.8
7986.08
13507.4
14326.6
8649.17
9161.34
13393.1
13987.8
8581.83
9051.21
12534.4
12762.6
8241.05
8270.58
16636.3
15614.1
14914.5
14174.3
15364.3
15551.2
11934.1
12455.7
8021.01
7766.33
16845.7
15275.2
15036.8
13527.4
13420.1
12587.7
11327
11074.5
7430.89
7705.2
14739.9
12368.3
14836.8
11838.8
16848.5
14127.1
17402.4
14347
12746.8
10567.8
12810.2
11287.1
14966.2
11601.1
15005
11550
17731.1
14872
17829.6
14986.5
12843.1
10116.8
12798.7
10075.1
10269.8
8874.34
7093.5
7481.36
10531.7
9521.81
7268.58
7834.2
10398
8614.19
7004.69
7532.82
10499
8375.87
7116.55
7378.7
16657.2
16545.1
22038.8
18705.6
16060.1
16037.6
21152.8
17896.8
14150.3
14625.1
19444.3
16641.9
14977.6
14358.7
13596.7
13282.2
15502.9
15769.2
14027.2
13863
17845.4
15191.7
14081
13271
12648.7
12338.7
12659.7
12837.6
13276.4
12869.2
17310.4
13858.3
6405.82
4012.27
2621.44
1920.16
6635.43
4132.68
2688.61
1938.4
6299.56
3945.03
2580.4
1899.94
6581.42
4093.85
2669.72
1923.33
6106.78
3814.39
2537.8
1870.27
6503.72
4005.8
2662.94
1902.23
6655.2
3997.63
2577.85
1869.85
6574.89
3909.28
2483.16
1816.66
5901.08
3687.71
2486.82
1830.85
4795.76
3188.93
2232.08
1713.43
5607.64
3579.54
2440.64
1781.1
4713.81
3199.59
2227.34
1688.34
6065.9
3734.15
2470.23
1818.48
4815.01
3168
2201.03
1707.07
6087.07
3712.86
2418.33
1782.88
4759.22
3131.45
2157.59
1669.81
5931.09
3786.02
2504.64
1868.82
5156.76
3453.85
2349.41
1804.52
5790.34
3716.32
2467.16
1842.07
5060.73
3414
2327.48
1794.79
5594.04
3603.67
2427.88
1823.49
4990.6
3361.66
2302.84
1790.68
5171.34
3396.22
2330.07
1817.85
4826.98
3274.6
2272.21
1728.07
4582.94
3186.85
2210.28
1692.18
4036.62
3115.75
1976
563.211
2326.11
2901.37
1858.41
607.956
4066
3113.43
1978.39
582.718
2462.36
2902.89
1856.38
610.441
4121.65
3093.31
1956.92
558.233
2651.79
2888.99
1832.59
597.025
4075.33
3044.7
1965.05
586.183
2658.52
2845.7
1815.49
597.57
3821.86
2948.58
1967.66
656.263
2190.57
2744.73
1783.21
594.16
3337.11
2736.45
1853.54
599.095
1278.21
2491.4
1705.02
577.655
3511.1
2827.17
1904.89
616.792
1453.35
2600.91
1738.4
582.376
3213.81
2662.54
1786.33
536.559
1130.29
2408.95
1653.99
554.014
3168.07
2611.73
1740.18
514.225
1176.83
2354.04
1614.32
538.639
1547.87
1072.72
682.19
374.518
119.016
1514.29
1063.93
679.782
373.743
118.819
1546.68
1068.8
679.466
373.092
118.584
1510.02
1057.83
675.843
371.73
118.213
1560.26
1065.69
676.253
371.318
118.04
1507.77
1050.67
671.134
369.323
117.49
1475.22
1035.6
663.446
365.691
116.423
1436.36
1014.52
652.368
360.421
114.873
1540.64
1054.2
669.965
368.277
117.14
1624.61
1061.47
669.095
367.246
116.788
1587.65
1066.63
674.563
370.203
117.686
1663.34
1070.77
673.088
369.047
117.31
1502.23
1039.53
662.833
364.957
116.169
1602.16
1048.74
662.685
364.256
115.914
1470.48
1020.47
652.633
360.079
114.733
1576.7
1032.34
653.846
360.035
114.673
1614.72
1085.69
685.072
375.326
119.209
1724.63
1097.45
687.099
375.842
119.33
1617.97
1083.33
683.185
374.311
118.9
1725.68
1095.31
685.608
375.061
119.092
1632.07
1080.27
680.18
372.69
118.405
1731.38
1091.17
682.736
373.593
118.649
1668.02
1079.38
677.485
371.145
117.929
1740.01
1084.9
679.127
371.816
118.119
1706.05
1077.05
675.582
370.159
117.63
12575.8
16621.1
12629.7
16616
12744.9
16586.7
12496.6
16346.2
11629
15490
10679.5
11979.1
10753.7
12527.6
10716.5
11881.3
10903.3
12041.7
9777.89
1635.99
346.131
77.408
13.7014
10528.5
2996.17
725.866
164.5
29.1145
9726.95
1607.5
338.818
75.6284
13.3634
10472
2956.17
715.498
161.672
28.3985
9581.64
1575.33
331.05
73.7982
13.0329
10331.2
2903.96
701.972
158.449
27.8326
9279.41
1505.45
315.051
70.2373
12.4127
10039.6
2808.83
678.671
153.26
26.9278
8711.62
1382.01
289.01
64.6785
11.462
9462.72
2650.76
642.755
145.644
25.6406
7777.48
1282.38
276.459
62.8084
11.2111
7945.25
2307.68
571.884
131.495
23.3572
8054.75
1305.43
278.116
62.8074
11.1765
8396.24
2436.01
599.014
136.736
24.1678
7673.5
1278.49
277.031
63.1004
11.275
7794.21
2251.9
558.628
128.855
22.9525
7655.96
1271.12
275.376
62.7739
11.2095
7815.34
2243.46
555.397
128.454
22.8492
34105.2
48941
47093.1
32148.1
24995.4
29948.3
24128.7
29820
28145.7
45014.9
29894.4
46134.7
123.797
137.755
168.696
219.481
295.081
401.892
135.291
149.886
182.097
234.439
310.694
415.667
115.201
110.992
129.82
126.951
162.357
162.68
216.27
223.092
295.666
311.221
402.147
419.466
548.301
744.131
1009.82
1375.58
1805.13
2115.35
554.711
732.445
952.298
1206.21
1453.44
1614.61
331.038
484.731
607.983
693.9
737.967
368.155
538.583
674.899
769.706
818.261
450.38
657.777
822.907
937.307
995.751
585.058
852.375
1063.82
1209.53
1283.73
784.772
1139.24
1417.07
1607.22
1703.72
1065.07
1537.82
1903.64
2152.01
2277.71
361.634
529.197
663.335
756.702
804.545
400.369
585.226
732.757
835.18
887.579
485.797
708.683
885.626
1007.94
1070.36
624.281
908.073
1131.71
1285.43
1363.64
825.175
1195.48
1484.45
1681.79
1781.91
1099.87
1584.54
1958
2211.29
2339.69
308.139
451.403
566.435
646.71
687.913
296.922
435.067
546.055
623.55
663.341
347.06
507.983
636.875
726.625
772.623
339.435
496.926
623.142
711.069
756.147
433.627
633.703
793.255
903.929
960.508
434.541
635.15
795.195
906.242
963.02
576.783
840.951
1050.27
1194.68
1268.26
595.006
867.572
1083.54
1232.51
1308.39
786.827
1143.28
1423.17
1614.87
1712.13
828.176
1203.2
1497.43
1698.74
1800.76
1066.8
1542.47
1911.32
2161.69
2288.17
1112.92
1609.32
1993.92
2254.46
2385.77
1444.78
2068.53
2542.53
2861.83
3023.83
1942.72
2745.08
3340.16
3740.25
3947.05
2596.67
3593.77
4309.98
4799.12
5067.46
3450.88
4623.54
5433.88
6021.31
6394.15
4379.48
5622.11
6451.04
7128.38
7668.06
5022.2
6270.69
7089.14
7827.25
8503.42
1459.93
2086.8
2562.09
2882.59
3045.71
1913.03
2704.9
3293.38
3689.71
3894.54
2461
3428.97
4131.57
4608.84
4864.58
3074.53
4205.21
5005.56
5563
5882.29
3650.12
4896.5
5760.12
6385.92
6776.96
4017.18
5324.64
6221.19
6891.53
7335.53
125.572
143.276
178.539
234.613
316.829
431.802
137.169
155.686
192.297
249.77
331.943
443.301
116.96
112.794
135.329
132.636
172.332
173.124
231.973
239.923
318.778
336.042
435.577
456.774
586.544
787.546
1052.31
1407.82
1822.16
2120.11
588.039
768.853
987.331
1234.43
1471
1620.44
335.819
491.811
616.965
704.247
749.03
383.025
560.618
702.88
801.967
852.766
476.922
697.188
873.059
995.227
1057.76
625.951
913.304
1141.63
1299.64
1380.35
843.75
1227.61
1530.54
1739.22
1845.6
1146.6
1661
2063.1
2338.68
2479.06
366.695
536.703
672.875
767.709
816.322
416.007
608.442
762.296
869.29
924.094
513.339
749.661
937.88
1068.39
1135.13
665.768
970.019
1210.98
1377.4
1462.35
882.869
1282.08
1595.86
1811.58
1921.55
1175.26
1698.57
2105.78
2384.47
2526.59
312.87
458.399
575.299
656.911
698.813
301.766
442.225
555.119
633.976
674.478
361.886
529.926
664.706
758.679
806.888
354.729
519.551
651.82
744.085
791.431
460.509
673.573
843.933
962.402
1023.07
462.682
676.877
848.218
967.406
1028.46
619.197
904.093
1130.84
1287.92
1368.2
640.48
935.298
1169.99
1332.59
1415.68
849.506
1237.2
1543.78
1755.18
1862.95
895.601
1304.48
1627.83
1850.73
1964.31
1157.97
1680.26
2089.77
2370.66
2513.6
1214.8
1763.64
2194.24
2489.47
2639.54
1549.94
2229.51
2753.53
3111.23
3294.27
2063.87
2934.49
3593.19
4043.66
4278.77
2718.6
3791.49
4582.16
5132.91
5437.23
3549.04
4793.39
5678.67
6331.9
6746.14
4437.63
5732.39
6617.79
7347.91
7924.62
5040.57
6308.23
7147.75
7906.34
8597.82
1551.51
2226.83
2745.45
3099.2
3280.56
2014.16
2861.96
3502.02
3938.93
4166.44
2559.95
3586.19
4344.54
4867.07
5148.8
3156.28
4339.22
5191.62
5792.87
6138.31
3702.66
4985.65
5886.87
6545.42
6956.94
4035.06
5355.71
6266.03
6948.61
7400.5
4831.92
3144.63
769.535
573.547
664.433
568.154
710.611
4400.26
4191.08
2667.82
3396.97
1569.57
2131.65
1295.22
1451.93
1203.16
4104.99
2228.38
1414.92
1246.62
1598.27
1376.29
1056.4
1002.97
950.991
825.593
1139.73
1021.25
4411.39
2641.3
3022.91
1904.25
1559.85
2219.57
1084.89
839.254
1203.87
9736.72
9648.27
9652.35
10610
16970.3
6894.67
7766.06
8336.09
9197.22
10573.2
2022.66
2887.74
3546.49
3996.45
4229.59
1518.95
2191.7
2713.14
3069.14
3250.61
1759.81
2539.06
3141.77
3551.62
3759.6
1507.2
2179.84
2703.07
3060.12
3241.48
1877.03
2697.87
3328.74
3757.8
3976.66
9593.3
10475.3
10861.8
11868
18060
9339.34
10414.2
10987.8
11906.2
13696.1
6292.96
7803.66
8796.02
9685.95
10555.8
8036.6
9528.3
10236.3
10992
11685.3
3983.92
5422.62
6435.9
7135.58
7531.51
5227.93
6801.89
7850.05
8620.07
9122.32
3346.65
4663.18
5618.76
6263.16
6603.5
3725.14
5139.85
6148.34
6828.06
7191.85
3127.07
4391.32
5318.73
5940.41
6262.2
8903.39
9726.05
10136.7
11158.7
17266.5
5360.06
6821.27
7816.21
8677
9475.8
3618.14
4975.06
5949.62
6628.33
7015.3
3208.91
4453.1
5361.86
5994.84
6350.34
4014.54
5398.81
6380.47
7109.48
7593.03
3503.03
4790.71
5719.42
6389.68
6795.48
2732.94
3819.15
4623.06
5183.79
5493.88
2615.71
3693.54
4498.97
5050.12
5341.54
2497.88
3560.43
4362.11
4902.5
5178.47
2175.8
3116.67
3834.08
4319.82
4567.48
2964.49
4169.27
5059.57
5662.85
5979.99
2666.48
3770.69
4595.92
5157.29
5451.33
9179.3
9484.21
9643.01
10629.5
16857.6
6006.22
7108.85
7845.2
8703.04
9818.2
7050.95
8322.33
9001.67
10006.3
12091.6
4628.76
5969.43
6894.35
7678.53
8333.21
3906.76
5233.32
6174.21
6891.1
7376.34
5311.32
6720.78
7686.76
8565.03
9420.19
2809.76
3931.68
4762
5338.3
5654.28
2205.64
3147.73
3863.1
4349.65
4600.53
3100.49
4306.12
5189.52
5807.77
6155.98
8028.17
7620.08
6895.35
5836.75
4311.37
1704.79
19437.7
19766.9
22302.6
23055.1
18968.3
20044.9
21256.1
20511.3
16043.4
20109.9
16684.7
20643.5
19123.8
17203.2
27023.1
18631.1
18813.7
20986
21483.7
17885.8
18948.2
20264.1
19741.4
15946.1
24283.9
16494.5
24082.7
19285.7
20987.7
28980.3
17700.2
17749.4
19290.6
19530.4
17044.4
18530.8
18919.2
18916.6
18246.3
21364.8
19009.1
21332.1
20910.6
23107.5
25967.1
16795.2
16864.7
17705.7
17778.5
16496.6
18221.1
17513.1
17796.6
16996.2
18568.6
17726.3
18051.2
18992.3
20618.3
22270.5
15860.2
15964.6
16594
16578.6
16089.8
17959.7
16553.1
17023.2
15998.4
15188.9
16753
14535.8
17337.4
17183.7
18222.9
15424
15574.3
15842.7
15792.7
15622.2
17145.6
15923.7
16313
15195.8
12949.1
15744.1
12647.7
16032.9
14951.8
16379.2
21992.5
21102
23170.5
24393.1
20271.3
20179.4
21508.8
20461
19293.7
14251.2
19221.2
14313.1
17040.1
15396.1
18522.7
20662.3
20014.8
21329
22137.3
19494.7
19576.2
20216.3
19335.8
17758.7
13697
17718.6
13782.6
15503.7
13791.3
17018.4
18886.6
18497.6
19094.9
19494.7
18185.1
18281.3
18526.8
17982.7
16696.3
13263.2
16469
13002.2
14732.2
12501.8
16506.8
17135.5
16908
17307.1
17493.6
16694.2
16727.6
17093.5
16656.7
15505.2
13388.8
15379.6
13084.5
13911.6
12379.3
16488.5
16139.4
15984.5
16255.6
16350.3
15654.6
15684.8
16190
15900.9
15054.2
14139.5
14969
13986.7
13791.4
12701.8
16745.3
15422.4
15281.1
15618.3
15681.1
15022.4
15246.9
15534.2
15397.5
14806
14605
14782.1
14526.1
13743.2
13091
17238.1
11935.1
6773.84
19618.7
12899.6
21465.5
15884
33604.6
41773.5
44243.8
54246.8
28670.4
24908.6
18177.1
14460
8863.02
5902.3
20239.6
20569.2
17489.1
20475.9
27349.8
24262.6
31687.9
25492.1
8348.19
5972.23
4641.71
3469.63
10130.3
8242.89
6192.86
5044.53
18700.5
19303.4
18999.6
15856.4
14652.9
11571.7
11595.6
13202.6
18664.8
18612.7
39351.8
40722
27740.1
28625.9
16004
13495.4
17332
12338.6
8061.58
8307.37
6570.61
9442.31
3413.28
4187.21
9156.66
12821.8
5488.41
6473.03
10083
17321.2
7019.68
11638.3
2663.72
6894.74
2217.42
5132.99
18067.8
22369
18762.9
22347.4
22058.3
22226.9
22583.9
22017.1
16046
21805.6
16387.7
21490.1
18535
22236.3
18558.6
22208.5
22842
21781.2
22801.7
21598.1
14861.6
21922.1
14367.5
22015.5
18360.4
21770.8
23178.8
32656.8
19459.2
25260.6
22985.2
35623
17402.1
19107.5
23258.4
31321.2
17219.9
17855.6
23507
31053.6
5626.05
7459.76
14447.5
25626.7
7044.05
8066.3
18752.7
29213.1
8688.54
8796.85
23605.2
32298.4
24955.1
26492.8
21402.9
20946.5
30961.6
26589.5
25341.3
21802.3
19100.6
35578.5
24272.9
24166.2
21776.1
22020.9
40378.9
2133.86
2591.83
4616.67
10874.6
3079.07
3516.01
6452.89
12185.8
4542.59
3856.32
8683.77
13794.7
26142
25512.9
23761.5
23066.9
20676.8
18642.3
15791.2
13832.6
11337.3
16012.8
23894.1
22820.4
24289.8
23660.9
21343.5
19821.3
17895.2
15946.7
12041.8
16055.5
24187.9
27160.3
24159.3
27891.8
23202.9
23909.9
22696.8
24156.2
22204.3
22555
22010.7
21874.5
23987.6
28033.8
23897.3
28030.2
22059.6
24493.5
21896.7
24459.2
22291.3
22504
22298.1
22500.5
18840.5
17899.7
12199.3
13632.7
18726.8
17449.8
12030.2
13749.2
19090.8
17832.4
12457.4
13658.2
19168.3
17649.1
12842.2
13654.8
1715.24
1126.11
763.512
984.586
650.816
601.766
2438.03
1399.64
1035.52
1938.76
1523.19
1286.58
2769.51
2210.96
2178.56
3380.2
2701.7
2394.39
23939.8
21164.3
19289.6
22196.7
20176.5
18644.7
16028
14578.5
13774.9
11047.9
9332.86
8592.03
5169.65
3697.8
3081.54
21754.1
19692
18046.4
22545.3
20077.6
18248.2
16861.7
14111
12572.1
11104.9
8624.01
7604.45
5485.2
3668.17
2890.59
27593.7
26884.1
30152
26945.2
31058.8
26951.9
37629.6
28483.2
21100.4
21428.8
20838.8
19392.2
23856.7
22352.7
23480.7
19987.1
23282.1
23027.5
21419.4
22812.2
28333.7
25562.6
28452.5
28933
31011.4
32123
23651.2
24582.6
21165.3
20567
25665.5
26368.9
16566.3
8982.13
15531.5
9936.86
16800.9
9054.7
15492.6
9868.87
16585.5
9099.29
15466.5
10282
15074.5
10756.9
15274.6
10668.9
21389.4
18180.2
21355.5
18208.1
23691.5
21308.4
24026.2
21158.7
20857.5
15140.3
21666.6
14897
21889.9
18154.1
22196.5
17959.9
24712
21023.7
24761.9
20770.9
20712.7
15211
20680.1
15123.7
13647.5
9140.31
11966.3
7779.41
12672.8
8190.79
11471.4
7274.5
14012.9
9709.72
12176.3
8016.73
14045.8
10052.3
12150.7
8075.35
2596.6
1354.63
4809.5
2644.59
2781.68
1674.04
5136.36
3167.09
3412.65
2510.32
5677.82
4105.44
13090.9
20357.3
9443.21
9066.43
6545.88
19864.9
13768.9
8065.43
8112.33
5405.19
20756.1
16269.3
12897.4
10041.3
6389.38
723.237
529.998
1563.12
1176.56
1032.64
704.448
2175.65
1735.41
1769.81
1340.13
3100.91
2523.9
20044.2
19166.6
13499.5
12748.8
8738.22
8644.82
7356.74
6612.49
4624.91
3777.67
18875.2
16967
14544.9
12580.2
11273
9826.83
8576.88
7576.57
5629.33
5427.83
14981.4
11931.4
15114.4
11696.7
18125.4
14890
18139.2
14754.4
12579.6
10018.1
12177.4
10012.9
15145.9
11546.5
15061.1
11536.4
18099.3
15075.3
17939.1
15044.8
12824.1
9886
12805.6
10017.7
9785.46
8111.16
6610
6771.77
9411.73
7907.6
6309.46
6401.68
10207.7
8281
6780.67
7159.79
10445.4
8280.06
7041.35
7262.38
1558.49
1360.69
1122.03
6741.79
3589.6
2921
1547.5
1512.79
1337.44
7402.33
4312.1
3641.96
2145.89
2380.17
2424.88
8264.28
5440.64
4821.24
17704
16215.5
15200.7
11973.1
11361.7
10996
8635.5
8347.02
8246.97
7298.83
6926.4
6689.56
9495.91
6763.32
6069.45
15163.5
13647
12659.9
11143.8
10112.1
9536.73
9141.43
8277.12
7805.74
8652.01
7523.62
6885.86
11599.6
7647.32
6803.97
4975.31
3080.21
2079.57
1577.51
5582.06
3335.7
2190.07
1617.41
5002.01
3079.58
2085.17
1588.6
5704.21
3406.82
2239.14
1644.61
4995.03
3052.84
2101.92
1596.54
5821.92
3452.57
2302.01
1665.97
6259.71
3650.5
2336.64
1705.37
6442.5
3788.5
2401.39
1759.42
5321.15
3248.52
2191.22
1624.98
4398.81
2872.07
2019.89
1557.95
4687.98
2952.95
2053.82
1527.29
4063.59
2712.7
1942.24
1500.12
5747.35
3472.29
2285.31
1686.83
4600.88
2988.75
2068.78
1602.45
5987.98
3625.08
2354.85
1736.88
4691.4
3072.84
2112.44
1633.84
3784.61
2658.26
1904.44
1500.5
2516.77
2156.49
1690.84
1410.84
3800.09
2648.04
1903.39
1498.68
2628.11
2187.06
1701.25
1419.38
3896.22
2651.06
1920.21
1511.75
2953.03
2283.17
1740.24
1453.23
3862.45
2594.87
1893.18
1544.08
3235.6
2352.38
1792.64
1451.96
3617.27
2527.6
1855.07
1478.71
1270.91
1753.79
1359.77
413.535
-88.5789
1531.69
1228.1
430.088
1499.54
1830.36
1390.62
435.724
184.84
1617.11
1255.23
439.418
1930.45
1965.58
1436.14
434.438
655.368
1759.59
1293.39
444.318
2463.97
2128.65
1507.66
471.214
1167.3
1920.12
1350.21
463.342
2829.06
2280.8
1597.08
545.787
1333
2045.64
1403.58
480.109
3027.76
2452.7
1636.16
521.74
1099
2188.14
1504.43
510.088
2949.17
2376.77
1606.98
521.447
1047.35
2122.3
1453.07
492.375
3058.74
2506.45
1655.16
488.316
1059.46
2243.94
1536.89
513.118
3122.68
2561.79
1696.82
497.951
1160.94
2302.32
1576.41
525.198
1307.1
934.661
608.575
339.286
108.638
1293.94
932.83
609.028
339.744
108.792
1324.74
943.291
612.552
341.056
109.144
1316.77
943.862
614.335
342.158
109.489
1357.92
954.906
617.464
343.194
109.754
1344.61
956.194
620.249
344.863
110.273
1363.25
970.059
627.988
348.611
111.379
1395.17
989.795
638.917
353.926
112.954
1391.31
968.782
624.465
346.472
110.711
1483.25
985.46
629.114
348.144
111.16
1397.98
965.137
621.112
344.675
110.167
1481.13
979.388
625.399
346.316
110.617
1403.64
980.957
631.392
349.848
111.71
1510.56
997.254
635.395
351.179
112.058
1436.31
1000.15
641.665
354.795
113.172
1545.18
1014.38
644.277
355.438
113.316
1341.87
939.361
608.546
338.909
108.498
1408.87
944.721
608.7
338.693
108.414
1358.71
946.216
611.534
340.209
108.867
1422.55
949.934
610.995
339.696
108.699
1391.17
957.073
616.015
342.155
109.421
1450.4
958.907
614.885
341.416
109.19
1442.59
969.387
620.521
344.054
109.958
1483.81
968.537
619.292
343.405
109.763
1490.99
975.71
623.053
345.165
110.275
10816.9
16746.3
11331.1
17041.8
11982.8
17309
12363.1
17401.8
11735.7
16572.7
10707.9
12092.4
10775.2
12777.7
10737.8
11936.5
10911.3
12058.3
9664.12
1649.12
352.724
79.2961
14.0705
10759.2
3065.33
745.45
169.494
30.0591
9728.75
1641.38
349.184
78.2385
13.8473
10817
3046.52
738.652
167.219
29.4103
9746.74
1622.27
342.477
76.4511
13.5077
10809.9
3015.21
727.686
164.222
28.8503
9567.82
1559.27
326.468
72.7395
12.8489
10591.5
2929.24
704.844
158.888
27.8951
8981.56
1426.88
298.269
66.6966
11.813
9943.83
2756.4
665.729