/*--------------------------------*- C++ -*----------------------------------*\
| =========                 |                                                 |
| \\      /  F ield         | OpenFOAM: The Open Source CFD Toolbox           |
|  \\    /   O peration     | Version:  2306                                  |
|   \\  /    A nd           | Website:  www.openfoam.com                      |
|    \\/     M anipulation  |                                                 |
\*---------------------------------------------------------------------------*/
FoamFile
{
    version     2.0;
    format      ascii;
    arch        "LSB;label=32;scalar=64";
    class       volScalarField;
    location    "1.6";
    object      gradTz;
}
// * * * * * * * * * * * * * * * * * * * * * * * * * * * * * * * * * * * * * //

dimensions      [0 -1 0 1 0 0 0];

internalField   nonuniform List<scalar> 
5712
(
7608.3
24973.7
6050.04
25600.7
4530.04
26434.3
7122.21
40612.2
8746.03
55802
8697.63
40724.5
8406.47
33846.9
8738.97
30269
5288.16
3300.1
14145.2
8429.27
5164.67
2793.26
15415.8
7659.42
5813.86
4253.46
18621.8
13200.4
4399.27
3206.34
18310.6
13395
10328.7
4385.98
8949.66
4007.81
4148.04
9678.6
35388.7
9564.83
12692.3
4251.71
45444
12297.4
11823.6
4030.8
25363
7853.75
13031.1
4522.78
22131.6
7021.96
6574.06
3259.93
9398.06
3683.91
7121.4
3843.55
9151.58
3536.69
8956.63
5120.08
7889.6
3454.34
11532.9
4165.14
3956.35
1387.64
13123.5
9178.51
8059.26
5931.35
14412.6
11884.3
7848.71
6793.22
7731.19
5295.99
11036.3
7494.32
5269.58
3890.92
2626.36
2162.3
5021.54
4337.33
2537.74
2458.46
5114.33
3392.23
2579.34
1667.85
6975.02
3812.1
5296.42
6326.72
9652.53
6880.03
7755.67
10896.5
4571.97
2179.78
3100.03
3600.88
2240.41
939.154
1320.8
1327.92
8841.86
15813.6
5964.96
17613.2
10307.9
15453.7
7309.82
18382.1
11636.7
13943.6
9355.77
17845.6
13207.8
15396
10254.1
9960.17
10816.5
15426.6
14626.7
14699.4
15248.4
21829
12552.1
9954.66
8825.14
9924.52
15335.1
18380.6
16481.5
21270
20555.9
16834.6
15658
20967.8
20095.1
14554.8
14256.6
19613.9
19322.8
11327.5
8971.45
10895.1
9617.01
12060.5
10977.4
13116.5
12753.7
17946.2
18551.6
10557.4
9276.96
10352.6
10201
10860.9
11782.5
12301.4
14074
15987.5
18785
8802
6930.01
5994.34
7566.61
11641.8
14055.4
8025.58
12611
5175.24
6728.97
7771.37
6441.46
1494.56
4997.65
728.997
1771
4077.65
8427.43
1463.66
2888.13
791.663
4302.8
397.888
1492.42
5134.02
5202.65
5843.44
3701.21
8171.86
6600.12
9607.36
6732.73
1280
2849.04
2909.37
1701.06
1586.35
2041.66
2229.77
1690.55
13207.6
8061.77
2556.25
14911.6
8607.23
2826.35
12678.8
7979.46
2710.13
14656.4
8613.84
2825.12
11661.1
7337.22
2421.46
14269.8
8640.23
2892.92
6007.68
3356.93
943.151
7879.9
5220.75
1806.9
9526.76
6569.51
2266.3
11097
7225.08
2406.43
14106.6
8854.11
3092.96
7048.09
4070.84
1327.92
7540.85
5454.08
2066.41
9062.22
6692.04
2470.63
11276.6
7934.94
2851.58
14287.2
8989.2
3204.14
296.234
2034.28
2873.22
4148.91
2257.06
2576.23
5650.62
5345.97
603.196
1016.42
643.818
1058.19
481.316
1400.43
862.599
1836.7
3202.43
1566.96
4063.7
2355.71
2144.24
3737.75
3415.2
829.567
6244.27
1442.24
-2075.27
558.065
1707.11
1207.06
1133.87
977.074
9651.6
4298.25
2627.98
1591.08
9804.01
4460.51
3319.03
2018
9678.7
4789.31
4789.54
3279.41
3415.66
2405.04
1578.37
1506.18
12775.4
11321.5
5985.73
6195.03
13945.7
13060.5
6859.58
6898.47
5230.63
5366.24
10828.7
8996.44
3525.96
3698.33
1903
2202.82
4186.6
4159.9
2233.91
2415.34
3009.96
3264.69
1617.95
2056.96
4585.41
3111.6
4546.17
3115.09
7187.99
4098.68
6801.1
4320.16
2713.68
2236.79
2857.03
1997.51
1449.7
1364.58
1794.74
1157.66
11316.7
7613.92
5545.16
5465.19
11278.5
7847.23
5568.35
5441.61
11760.4
8267.37
5648.04
5313
14017.1
15357.7
12604.3
8292.56
4543.01
14560.1
13234.5
12080.8
9796.13
6074.93
13630.7
12130.6
9547.76
7211.02
4335.78
6221.84
5353.43
5675.34
6291.73
6503.71
5336.66
5772.49
6257.55
6931.04
5455.08
5896.69
6254.21
10982.7
7787.09
10027.4
6952.97
7723.15
6168.7
7052.58
5921.94
5516.61
6264.22
9137.03
7949.03
7921
6885.31
6614.97
5938.53
5673.32
5536.92
4319.98
5949.49
7076.47
4795.19
4690.36
2837.42
9404.9
7258.97
6511.96
5275.01
3750.36
2249.25
5452.31
3996.02
4698.53
2231
1678.13
960.401
5049.4
3671.61
1719.56
1429.8
4000.64
1771.75
1539.63
799.619
3016.16
2718.54
2538.28
3661.78
4208.21
3892.26
3226.78
4662.39
3084.31
1946.4
1859.76
2503.99
895.769
418.644
137.182
429.667
3655.65
1529.03
452.367
4131.83
1082.32
289.406
3755.08
1673.72
514.891
4157.99
1136.52
319.18
3611.3
1708.53
446.566
4143.47
1174.62
278.833
4871.99
2528.66
598.048
4230.19
2072.51
507.013
3981.92
1921.51
527.146
3800.09
1784.34
389.938
4179.67
1171.65
182.146
6079.18
3114.44
862.905
5288.09
2643.8
735.675
4651.14
2302.58
673.367
4248.29
1833.76
459.366
4545.6
1109.33
274.412
1636.13
577.526
125.258
-134.704
682.765
253.023
71.5366
-23.7429
1730.19
630.273
170.312
-76.2804
865.269
347.65
166.946
75.9176
1851.07
696.462
250.659
17.8917
1466.83
655.948
237.264
47.5675
1099.3
588.027
174.865
-27.868
998.786
621.791
330.304
180.517
1515.71
650.077
185.256
-137.796
1283.03
543.004
229.834
-129.152
1798.28
681.847
222.703
-82.5079
1613.36
613.834
244.001
-209.103
1200.44
590.925
216.346
-48.6405
973.836
469.482
239.01
1.52049
865.784
504.722
278.145
158.539
657.69
385.325
242.981
133.11
2063.59
695.643
132.652
-272.775
2009.56
637.079
191.957
-367.064
2060.68
704.319
148.101
-260.583
1948.64
619.542
197.442
-356.948
2019.91
704.487
215.273
-175.348
1823.61
585.919
235.107
-285.431
1771.38
648.709
284.131
3.14581
2000.56
654.14
322.446
-330.692
1570.01
575.53
278.8
-72.4995
1564.23
446.064
167.71
-240.732
616.207
161.572
44.8715
-46.3609
1626.25
477.404
182.945
-228.768
646.491
175.223
55.7533
-35.2767
1671.64
512.892
219.491
-197.553
666.092
191.076
69.3404
-22.2657
1514.39
483.244
248.407
-151.171
652.599
197.662
93.2867
0.954231
1391.3
478.834
261.369
-81.0644
590.638
208.135
123.894
31.5616
956.959
375.095
176.106
-27.1996
552.907
262.873
149.945
74.5923
1112.64
388.219
192.841
-62.0701
562.874
233.699
138.139
54.0163
763.199
353.944
182.73
25.1607
487.047
268.662
157.109
94.4801
528.768
311.308
198.555
114.499
395.767
258.972
168.643
119.828
-12.0253
4.44763
4.34019
2.79726
1.97482
-1.73312
3.04608
2.42178
1.51324
1.06062
6.39298
13.3959
8.96699
5.38706
3.73873
18.2637
13.2608
7.82216
4.55949
3.13984
25.6315
23.8934
14.5873
8.57596
5.91931
71.9364
44.5976
25.1448
14.4839
9.94734
84.6256
51.997
29.3592
16.9559
11.6646
123.631
68.8912
37.7863
21.6586
14.8809
43.7869
34.8589
20.637
12.0595
8.32335
47.3704
32.8769
18.9572
11.0198
7.59675
30.147
27.7178
16.6095
9.7115
6.69536
57.5485
34.5003
19.0383
10.9107
7.4803
56.8473
41.3509
24.2115
14.1326
9.75574
63.8801
39.2838
22.1639
12.8174
8.82981
98.0653
55.3878
30.4684
17.4829
12.0179
82.0459
45.7184
25.1092
14.412
9.91151
-22.5636
2.07134
3.18415
2.13605
1.51992
-12.4362
0.552723
1.19957
0.81407
0.579706
-10.4928
7.69616
6.02935
3.71351
2.59011
-8.06798
2.58603
2.21865
1.37604
0.959787
4.40642
14.0024
9.10296
5.40609
3.73639
8.6341
9.36724
5.53025
3.19458
2.1901
37.6211
27.4688
15.6199
8.96493
6.13349
25.6669
17.6223
9.78025
5.57413
3.80404
71.241
36.9494
19.6304
11.0777
7.55214
1913.74
4359.33
1958.82
4330.45
2170.25
4313.03
2576.29
4480.51
2666.41
4593.36
1112.6
1648.51
1781.28
2757.4
610.651
825.687
224.642
282.47
9845.44
2358.1
542.198
121.547
30.3301
2692.28
726.341
193.618
44.1747
9.65144
9704.33
2306.32
529.937
117.836
29.6263
2742.54
809.475
200.008
46.6504
11.6347
9220.49
2177.43
498.701
110.793
27.8982
2662.07
781.934
192.645
44.7048
11.1901
8387.82
1964.61
448.86
99.6838
25.1198
2579.36
741.65
180.393
41.4989
10.3348
6968.45
1624.79
371.611
82.6781
20.87
2423.62
678.377
163.28
37.3404
9.27529
3251.73
793.24
184.687
41.426
10.4838
1180.63
335.687
80.2321
18.0452
4.47463
4875.56
1172.53
270.796
60.421
15.2596
1736.7
487.362
117.379
26.8303
6.71004
1901.13
467.425
109.359
24.6563
6.25411
663.617
196.053
46.6498
10.4953
2.62771
656.88
160.64
37.6962
8.53357
2.16728
265.875
71.9174
15.9888
4.45251
0.886506
-59.9376
390.981
4693.93
-958.098
770.902
826.117
2409.75
3089.1
1953.9
3663.56
3101.2
4781.96
3757.5
4661.17
1946.07
2618.38
2064.15
2449.18
1072.41
1115.08
2316.19
1654.69
607.099
-309.775
-595.632
-709.567
-120.745
13476.6
3607.74
4585.25
3111.68
59.2877
188.533
3167.95
-1100.12
-523.246
-800.545
-433.006
7377.26
3987.36
1584.25
1225.86
3752.52
2175.97
746.051
1469.89
-1223.66
-626.587
851.83
713.093
8854.97
4318.99
5510.46
2933.53
4100.67
4722.02
1660.96
-656.701
1102.04
1606.5
1279.99
1071.75
929.205
675.951
1292.77
1024.07
785.563
541.531
227.908
530.493
436.679
327.079
205.014
70.5902
-276.6
-230.654
-171.944
-105.528
-35.5115
-531.645
-443.403
-330.925
-203.436
-68.5054
-634.269
-529.969
-396.342
-244.096
-82.2873
-104.276
-81.7174
-55.1868
-29.9444
-9.07334
9548.62
7987.29
6532.95
5662.88
4940.01
3052.81
2539.96
2227.68
1752.93
880.446
3466.73
2693.87
2163.02
1603.49
791.051
2338.88
1799.56
1473.26
1076.33
435.122
140.068
123.935
183.121
166.181
76.2385
236.34
263.637
253.835
192.971
76.171
2641.97
2148.4
1637.6
1100.16
437.049
-640.012
-291.522
-100.016
-5.57539
11.0559
-409.478
-283.367
-163.825
-72.6511
-16.9804
-546.03
-322.961
-154.058
-51.923
-7.9607
-394.501
-329.068
-240.901
-143.585
-46.8042
5342.29
4663.4
3876.91
3397.67
2973.23
3039.1
2351.97
1874.58
1357.07
628.911
1417.77
1225.14
986.113
674.38
256.851
1063.52
887.2
689.209
456.411
168.556
3103.03
2467.39
1840.2
1193.01
448.369
1904.48
1587.82
1219.77
791.573
282.142
645.018
532.071
405.374
261.644
93.4858
1285.86
1062.79
801.684
507.137
176.39
-1058.82
-851.84
-613.329
-366.126
-121.015
-551.433
-449.759
-325.598
-193.629
-63.5276
748.692
628.28
487.085
319.121
115.092
629.87
530.731
411.978
268.954
96.0416
5645.48
4020.3
3327.44
2904.11
2391.88
3263.96
2497.21
1882.5
1301.37
566.814
4002.79
3202.62
2505.32
1864.33
871.783
2322.09
1859.83
1414.02
963.049
405.152
3460.28
2794.08
2097.42
1351.28
491.841
3555.09
2603.24
2030.93
1451.08
589.353
1440.06
1182.25
889.827
564.656
197.822
-583.179
-481.52
-353.83
-213.625
-70.8947
958.511
799.431
619.597
408.042
148.187
-29485.7
-48084.7
-24474.1
-38897.9
-26108.4
-54376.5
-31225
-69079.7
-18719.5
-12850.3
-20961
-13120.3
-17211.1
-11090.6
-21219.6
-11239.9
-24504.7
-18553.9
-35544.5
-25711.5
-21064.4
-16873.6
-29675.4
-22381.5
-16822.2
-17268.3
-13841.7
-13377.5
-16376.5
-15336.8
-40594
-11204.4
-15544.6
-5831.02
-49492.1
-13754.1
-13888.9
-5218.74
-30299.6
-9539.98
-15919.6
-6113.82
-27012.4
-8381.94
-12762.1
-5148.97
-16173.3
-5872.43
-12127.9
-5348.84
-14048.9
-5099.15
-12557.2
-6122.94
-11224.3
-4471.54
-14308.3
-5065.4
-5012.31
-1763.61
-10746
-7242.07
-9273.24
-5720.84
-9419.6
-7624.6
-8107.75
-5812.62
-9464.59
-5471.43
-11112.4
-7050.74
-6361.07
-3843.37
-3426.29
-2134.2
-5488.76
-3810.4
-2875.87
-2067.96
-6474.14
-3575.99
-3564.45
-1818.74
-8370.91
-4263.43
-5488.06
-6325.42
-10655.8
-7180.13
-7752.78
-10706.3
-5661.65
-2545.58
-3283.91
-3642.01
-3039.17
-1225.25
-1474.41
-1375.72
-12635
-15461
-7149.11
-17543
-13137.2
-14752.1
-8214.22
-17930.1
-13271.7
-13414.3
-9787.24
-17044
-9014.79
-7244.22
-9950.11
-11059.7
-11045.1
-9864.23
-11498.9
-13436.6
-14541.2
-20642.6
-6849.61
-7160.24
-7839.53
-9476.36
-14685.7
-14733.7
-10295.9
-18731.3
-14445.2
-13659.8
-10130.8
-18456.1
-14392.8
-12087.4
-9482.77
-17228.7
-14260.3
-8068.92
-6423.87
-8468.88
-6803.03
-9513.29
-7748.08
-10479.3
-8943.95
-15687.2
-14345.2
-7553.15
-6555.76
-7740.19
-6837.01
-8601.06
-8168.1
-10361
-10391.1
-14418.7
-14963.5
-6993.54
-5586.02
-5146.72
-6650.95
-8593.34
-11703.3
-6502.97
-10823
-4776.92
-6214.18
-6822.75
-5588.42
-1021.47
-4393.89
-340.271
-1325.65
-3180.14
-7423.08
-769.111
-2122.16
-581.145
-3966.23
-219.313
-1240.76
-4927.49
-4881.99
-5669.75
-3453.55
-7628.09
-5956.46
-9179.12
-6086.79
-1176.65
-2653.54
-2805.45
-1556.62
-1500.97
-1894.75
-2147.25
-1579.12
-6261.88
-2153.86
-8483.59
-2891.79
-6402.56
-2250.29
-8685.97
-3114.8
-6358.32
-2217.23
-9189.05
-3534.61
-3804.55
-1085.7
-4805.24
-1833.78
-5486.11
-2121.59
-6639.88
-2506.14
-9713.12
-3857.65
-4799.75
-1480.44
-4513.75
-2195.51
-5494.86
-2577.98
-7373.03
-3197.06
-10113.4
-3818.95
-6477.76
-6050.77
-4978.67
-4850.63
-10893.4
-8332.05
-8912.08
-7374.65
-4296.51
-3629.32
-1772.62
-1245.61
-4073.89
-3843.19
-1663.03
-1695.09
-3195.08
-4802.33
-3742.05
-5180.56
-3866.88
-2667.43
-3503.17
-705.429
-7224.13
-2006.56
2451.61
198.794
-1115.33
-485.057
40.3409
439.849
-2380.9
-1582.87
-900.967
-504.155
-2563.33
-1688.62
-1390.07
-614.402
-2894.78
-2044.79
-1925.25
-910.607
-1373.46
-227.112
431.729
884.757
-5301.34
-5667.29
-4148.23
-3852.07
-7237.75
-7235.68
-6041.17
-5070.31
-2686.38
-2937.74
-3925.86
-4461.93
-2567.46
-2214.56
-1141.06
-1032.02
-3922.33
-3085.74
-2023.22
-1600.03
-1466.09
-1584.69
-349.621
-669.971
-1725.62
-1135.8
-2408.81
-1634.04
-2607.11
-1964.73
-3664.44
-2643.72
-693.624
-399.049
-1220.45
-655.834
288.212
432.401
-369.097
116.018
-3380.02
-4131.95
-2718.38
-3912.07
-3362.16
-4167.22
-2781.27
-3904.58
-3594.28
-3919.21
-2947.83
-3717.89
-3049.32
-5085.44
-2513.07
-2066.93
-2052.78
-7546.44
-5263.32
-4635.19
-4550.08
-4315.38
-6072.41
-4990.37
-4076.64
-3615.81
-2626.93
-4775.35
-4674.61
-5923.94
-9108.82
-4579.03
-4247.01
-5697.94
-8700.59
-4302.16
-4030.6
-5274.51
-8052.87
-7261.18
-5551.52
-6379.1
-4800.1
-5362.27
-4187.41
-5196.4
-4647.39
-4922.91
-7438.87
-5879.27
-5509.86
-4833.68
-4772.28
-4143.98
-4279.44
-4017.41
-4659.49
-3375.28
-6427.23
-3967.62
-2816.73
-2764.54
-1082.4
-5866.59
-5105.8
-4567.25
-3416.14
-2045.16
-729.086
-3061.92
-2373.46
-3304.71
-1064.17
-534.764
35.7971
-3788.72
-2514.2
-747.554
-465.577
-2650.95
-720.843
-351.949
127.593
-1715.25
-1673.76
-1731.07
-3217.09
-2627.86
-2850.78
-2445.67
-4456.41
-1922.64
-1131.45
-984.382
-1984.79
215.053
365.117
780.599
176.968
-3320.05
-969.358
-6071.09
-570.956
-3132.36
-1056.8
-5918.05
-595.168
-2465.86
-657.543
-5381.21
-439.817
-3072.53
-714.406
-2716.94
-647.897
-2781.88
-845.474
-2721.65
-510.435
-5061.33
-606.128
-4185.12
-855.831
-3677.77
-607.795
-3523
-684.502
-3674.13
-529.435
-5320.53
-634.754
-687.368
-161.921
103.587
294.46
-236.392
-47.0803
37.3773
89.5742
-684.08
-138.115
109.851
269.873
-175.906
6.51527
25.1526
36.8545
-707.28
-111.218
95.9815
220.873
-65.5092
153.593
263.65
281.998
416.582
352.637
419.139
407.606
820.692
552.41
405.822
276.282
-338.45
56.1629
274.732
461.548
-268.257
106.779
200.846
449.979
-756.977
-98.9831
149.177
360.405
-578.213
9.37586
166.706
552.888
66.1831
215.591
298.178
385.646
18.4209
194.8
208.537
317.983
468.556
370.935
292.404
216.197
326.944
288.519
218.953
196.379
-1067.81
-258.991
120.228
484.717
-1305.26
-293.142
-5.40149
595.965
-1027.76
-230.009
133.344
494.4
-1257.49
-272.961
-4.22679
590.532
-961.308
-185.428
86.6099
414.841
-1147.34
-234.609
-35.6344
528.676
-646.645
-64.2417
68.7694
276.618
-1192.25
-208.921
-53.4607
652.347
-599.586
-15.3006
92.4578
414.585
-1194.4
-219.921
-44.8405
410.479
-516.284
-83.3378
8.17533
101.232
-1119.46
-192.609
-30.9174
412.602
-492.464
-74.4117
9.53406
98.4895
-966.685
-138.77
-29.1045
398.381
-421.937
-51.7642
18.9176
102.609
-799.059
-92.7606
-46.8914
353.03
-347.764
-28.7049
14.7425
96.1248
-592.81
-19.8722
-6.71092
299.68
-183.697
24.1813
21.5539
91.9643
-278.195
82.9305
139.039
290.89
68.8213
148.715
121.954
138.905
-491.56
4.99061
66.3096
293.797
-26.4159
92.9308
71.4938
115.562
-15.0589
169.22
180.266
263.471
167.791
194.982
158.294
149.293
253.189
245.957
188.392
186.384
274.617
232.478
167.974
137.537
63.1955
16.9187
6.14763
2.99832
1.96489
26.4301
8.04343
3.15625
1.59172
1.05434
72.1882
23.8427
10.302
5.45082
3.66713
40.2978
16.8339
8.16972
4.50808
3.07061
88.1858
33.1507
15.5847
8.51907
5.7885
102.408
48.5903
25.1473
14.1841
9.72067
114.744
56.6039
29.672
16.7844
11.5069
127.029
69.1851
37.6116
21.5116
14.7849
105.98
43.479
21.4333
11.8968
8.10935
89.6569
38.3642
19.2566
10.7387
7.32994
95.9524
36.0616
17.3195
9.55255
6.5066
77.8383
35.3643
18.3737
10.3736
7.11506
113.698
50.0328
25.2323
14.0954
9.62553
90.646
43.1942
22.4383
12.6471
8.65455
106.008
56.3977
30.4751
17.4011
11.9544
88.1856
46.6587
25.1459
14.3419
9.8478
69.7243
15.2377
5.01251
2.35
1.52179
32.6514
6.23403
1.95538
0.906259
0.585743
74.0059
19.2456
7.50784
3.83888
2.55898
34.1598
7.66319
2.85198
1.44289
0.96032
75.3188
23.0185
10.1151
5.42689
3.67201
36.982
12.171
5.7352
3.16919
2.16389
82.1588
31.8577
15.8174
8.86308
6.07908
48.1838
18.8803
9.57218
5.40027
3.71291
66.9169
34.4506
18.6006
10.6648
7.35336
-1956.52
-3725.98
-2021.98
-3739.79
-2218.44
-3779.28
-2451.17
-3891.67
-2382.09
-3917.09
-973.019
-1473.21
-1578.43
-2423.06
-498.982
-712.029
-126.636
-193.323
-9619.13
-2290.59
-524.723
-117.333
-29.226
-2595.06
-703.734
-187.393
-42.6564
-9.29883
-9444.49
-2235.03
-512.208
-113.691
-28.548
-2646.81
-784.356
-193.45
-45.0245
-11.2094
-8914.36
-2102.58
-481.199
-106.844
-26.8921
-2562.5
-755.414
-185.921
-43.089
-10.7735
-8064.73
-1892.43
-432.827
-96.1765
-24.2448
-2460.7
-712.344
-173.484
-39.9184
-9.93984
-6702.53
-1567.36
-359.075
-79.9687
-20.2017
-2288.57
-648.131
-156.595
-35.8746
-8.9186
-3175.58
-773.984
-180.106
-40.3902
-10.222
-1107.53
-317.346
-76.0597
-17.137
-4.2543
-4725.68
-1137.16
-262.791
-58.6669
-14.8258
-1630.94
-463.321
-112.108
-25.6918
-6.43549
-1861.8
-457.221
-106.825
-24.0632
-6.09966
-613.642
-182.408
-43.3447
-9.74777
-2.44015
-632.4
-154.318
-36.0843
-8.1453
-2.06356
-227.369
-60.942
-13.1923
-3.79268
-0.716947
-87.9748
-1350.31
-5915.45
634.566
-6825.71
-3009.85
-6621.87
-3079.66
-12122.5
-6474.7
-13568.1
-7183.67
-114.996
-419.575
-654.638
-771.163
-683.607
-226.602
-188.438
-662.439
-1005.39
-1119.78
-907.124
-283.649
-95.8121
-99.9469
-331.593
-331.703
-471.141
-467.239
-449.604
-433.658
-392.49
-394.507
-277.29
-278.703
857.008
2125.61
3450.96
2454.36
2234.94
1044.22
767.032
2147.26
3497.68
4076.31
3402.37
1520.48
-103.589
-87.4448
-66.1642
-41.1779
-13.9719
-378.447
-319.987
-242.54
-151.168
-51.3345
-590.363
-499.072
-378.217
-235.705
-80.0381
-695.189
-587.426
-444.976
-277.214
-94.1158
-616.335
-520.801
-394.437
-245.653
-83.3805
-207.047
-177.177
-135.318
-84.508
-28.6669
-169.603
-143.029
-108.119
-67.2416
-22.8073
-596.965
-504.227
-381.812
-237.802
-80.7252
-905.588
-764.513
-578.654
-360.304
-122.297
-1007.66
-849.806
-642.627
-399.903
-135.705
-815.498
-687.013
-519.048
-322.819
-109.524
-256.457
-217.261
-164.793
-102.653
-34.8286
-86.3855
-73.0006
-55.2957
-34.4435
-11.6923
-90.1681
-76.2542
-57.8051
-36.0292
-12.2348
-299.255
-253.195
-192.038
-119.75
-40.6759
-299.409
-253.38
-192.22
-119.884
-40.725
-425.136
-359.641
-272.728
-170.045
-57.7557
-421.56
-356.56
-270.348
-168.54
-57.2409
-405.761
-343.287
-260.331
-162.305
-55.1223
-391.024
-330.484
-250.38
-155.992
-52.9605
-354.354
-299.834
-227.302
-141.617
-48.0686
-355.243
-299.729
-226.66
-140.993
-47.8249
-251.327
-213.267
-161.75
-100.592
-34.068
-250.938
-211.562
-159.726
-99.1511
-33.5796
757.374
627.753
469.301
291.129
99.0033
1869.51
1544.46
1154.01
717.717
245.17
2996.62
2455.48
1833.51
1149.3
398.359
2115.49
1728.66
1294.2
815.528
283.811
1958.13
1604.9
1196.62
742.864
242.146
944.308
790.754
598.737
373.532
119.239
678.965
563.464
421.349
261.176
88.7163
1895.29
1569.74
1173.44
728.431
248.029
3065.95
2526.32
1885.74
1173.7
401.697
3547.04
2907.8
2168.31
1353.95
466.084
2959.37
2424.71
1808.73
1130.21
387.837
1336.49
1106.57
833.142
523.624
179.669
213.147
519.655
757.504
876.793
790.449
345.27
328.566
803.17
1143.29
1244.91
1006.17
353.35
171.489
163.227
407.56
396.468
545.311
531.51
516.588
488.065
461.307
408.137
403.156
323.248
-715.83
-1913.25
-3085.8
-1971.01
-1660.94
-425.167
-707.603
-2054.52
-3293.63
-3710.19
-2877.25
-895.498
192.638
163.283
124.086
77.5034
26.3502
469.292
397.409
301.713
188.3
63.9918
683.839
578.841
439.269
274.061
93.1211
791.33
669.633
508.026
316.893
107.663
713.805
604.382
458.731
286.211
97.2463
315.367
270.122
206.857
129.652
44.102
296.798
251.425
190.963
119.227
40.5275
724.801
613.267
465.227
290.186
98.5895
1031.03
871.692
660.792
411.962
139.929
1121.7
947.474
717.662
447.191
151.864
905.957
764.686
578.885
360.613
122.455
320.087
271.869
206.834
129.19
43.9034
155.021
131.431
99.9018
62.4079
21.2195
147.553
125.098
95.0862
59.398
20.1957
368.192
311.922
236.904
147.895
50.268
358.184
303.454
230.478
143.885
48.9051
492.514
417.117
316.701
197.662
67.1738
479.975
406.421
308.521
192.527
65.4236
466.704
395.373
300.259
187.422
63.696
440.591
372.916
282.964
176.519
59.9727
417.263
353.912
269.007
167.979
57.091
368.351
311.666
236.387
147.403
50.0673
366.374
312.151
237.999
148.783
50.5605
292.173
247.54
187.887
117.16
39.7817
-628.838
-517.818
-385.002
-238.128
-80.9294
-1676.52
-1379.73
-1028.03
-638.768
-218.341
-2662.28
-2167.38
-1611.14
-1009.09
-350.673
-1659.65
-1323.4
-970.989
-605.143
-210.095
-1410.11
-1113.34
-800.33
-480.993
-148.267
-351.17
-256.586
-166.155
-86.3466
-16.2406
-625.14
-517.718
-386.508
-239.398
-81.3165
-1811.62
-1498.96
-1119.82
-695.107
-236.76
-2879.82
-2366.69
-1763.05
-1096.49
-375.392
-3208.57
-2613.05
-1937.98
-1206.73
-415.312
-2469.32
-1993.82
-1468.45
-910.289
-311.203
-750.802
-589.258
-422.643
-257.097
-86.515
-1527.12
-964.912
-318.885
553.829
849.335
1075.58
466.317
-11175.1
-1887.6
-3304.12
-1564.37
180.561
-3943.98
750.087
2340.74
1076.83
-6089.68
-2828.18
-598.594
-640.098
-3375.05
-1362.44
-329.972
-1058.73
1961.14
1179
-558.857
-244.289
-7904.9
-3646.4
-4418.29
-2153.84
-3518.45
-3508
-1151.64
1185.14
-484.458
-762.289
-490.545
-396.095
-448.607
-480.082
-607.751
-391.373
-259.438
-180.997
-92.3971
-266.527
-209.312
-151.49
-93.9984
-32.6234
501.155
425.129
323.028
201.589
68.4994
764.959
645.356
487.747
303.113
102.727
968.702
817.353
617.972
384.247
130.278
424.525
361.206
273.8
169.591
57.1282
-7792.38
-6677.74
-5708.04
-5442.89
-5394.19
-1203.78
-768.711
-800.373
-858.451
-583.947
-2295.3
-1647.6
-1346.21
-1104.53
-647.265
-995.58
-634.412
-548.748
-465.687
-201.766
174.526
147.013
98.7297
45.4588
7.85588
-3246.88
-2608.05
-1959.22
-1297.97
-509.821
680.476
570.424
421.508
252.618
81.7672
2024.11
1642.49
1205.56
738.055
249.108
964.551
806.22
602.415
370.223
124.236
-4135.52
-3671.76
-3164.58
-3049.84
-3041.81
-1931.92
-1357.45
-1089.03
-863.996
-473.218
-466.509
-367.877
-300.833
-232.669
-105.852
-512.632
-400.436
-305.776
-211.621
-85.156
-2782.65
-2211.78
-1659.54
-1091.34
-419.605
-1134.64
-903.462
-677.226
-442.31
-161.457
-258.648
-194.058
-140.544
-92.4785
-35.3997
-906.39
-733.503
-546.06
-345.239
-121.106
1745.38
1453.54
1086.1
669.616
225.85
1061.93
894.076
672.517
415.131
139.773
-462.895
-367.424
-276.217
-181.939
-67.7661
-190.856
-144.015
-107.58
-74.0488
-29.0749
-4754.39
-3220.64
-2688.96
-2512.15
-2317.72
-2623.53
-1920.7
-1417.35
-995.979
-459.547
-2911.31
-2225.19
-1711.08
-1346.17
-674.027
-1582.12
-1195.83
-881.772
-617.109
-286.759
-2921.08
-2323.41
-1731
-1119.74
-413.51
-2422.52
-1584.33
-1230.34
-947.018
-420.837
-971.625
-776.98
-575.97
-366.268
-130.194
1069.22
902.29
680.619
421.356
142.209
-379.146
-288.192
-216.737
-150.093
-59.6376
1.28694
34.8655
77.3923
93.302
45.7985
-70.968
-20941.5
-18501.4
-17561.2
-20006.2
-15371.4
-12186.9
-13785.6
-10477.8
-18248
-16063.7
-16821.7
-15877.3
-14779.6
-12613
-15556.5
-17282.5
-15463.4
-14148.1
-15944.4
-13016.7
-11028.7
-11575.8
-9288.37
-16414
-14658.5
-15134.3
-13850.1
-13125.9
-12249.9
-12697.9
-13617.4
-12491.2
-11221.8
-12271.9
-10853.7
-9334.12
-9683.86
-8315.09
-13780
-12605.9
-12834.8
-11793.2
-11181.8
-10338
-10706.3
-9549.28
-8990.48
-7934.96
-8413.96
-8075.16
-7250.08
-7205.9
-6583.97
-9982.69
-10112.4
-9423.77
-9535.15
-8418.39
-7619.17
-8478.26
-6122.58
-5855.02
-5111.99
-5334.59
-5418.85
-4911.74
-4761.38
-4396.94
-6625.02
-6642.22
-6330.91
-6221.87
-5772.14
-5221.48
-5664.25
-2206.73
-2129.01
-1850.27
-1916.22
-2003.71
-1872.23
-1745.91
-1627.56
-2508.1
-2514.43
-2350.8
-2254.4
-2169.33
-1991.66
-2137.36
-7849.94
-7730.14
-11808.5
-12733.5
-7369.81
-6539.23
-10354.7
-8416.29
-6043.74
-4401.26
-6003.99
-4383.83
-6019.73
-5774.28
-4476.08
-7802.76
-7402.43
-10512.9
-11464.4
-6871.08
-6214.86
-9144.04
-7866.29
-5994.21
-3810.18
-5893.89
-4048.88
-5381.38
-5186.54
-4458.59
-7092.92
-6758.8
-8902.53
-9548.03
-6349.13
-5900.74
-7964.35
-7040.57
-4916.69
-4067.28
-4907.36
-4324.68
-4580.2
-4598.81
-4526.8
-5685.6
-5472.02
-6655.27
-6992.41
-5195.87
-4854.26
-6158.54
-5614.8
-4651.78
-3601.05
-4578.72
-3870.61
-4283.28
-4266.72
-3996.76
-3900.21
-3777.42
-4389.5
-4558.12
-3514.62
-3250.8
-4134.47
-3793.64
-3234.18
-2741.07
-3166.86
-2909.76
-2966.72
-2925.31
-2816.84
-1447.08
-1403.35
-1601.93
-1655.3
-1300.37
-1194.75
-1518.47
-1398.35
-1054.33
-999.33
-1126.17
-1100.59
-1094.82
-1068.34
-1024.41
7574.02
24459.7
6016.98
25598.7
4512.97
26436.4
7117.78
40620.7
8740.86
55814.1
8680.32
40720.9
8370.78
33828.8
8714.64
29615.6
5280.65
3298.34
14146.1
8429.42
5163.06
2793.06
15419.2
7660.64
5777.53
4224.73
18249.6
12953.9
4377.57
3197.25
18326.1
13413.7
10335.2
4379.02
8950.2
4005.36
4143.12
9686.98
35398.4
9566.17
12694.5
4251.74
45454.6
12299.7
11825.9
4031.47
25376.4
7856.18
13034.9
4523.39
22149.1
7025.13
6512.31
3229.62
9234.6
3622.28
7122.18
3844.19
9166.83
3542.47
8955.69
5120.31
7894.58
3456.74
11542.5
4168.76
3958.65
1388.54
13122.4
9177.8
8059.09
5931.15
14410.9
11883
7848.84
6793.04
7731.36
5295.97
11035.5
7494.04
5269.98
3890.94
2625.97
2162.11
5022.2
4337.46
2537.77
2458.44
5115.19
3392.32
2579.1
1667.65
6975.94
3812.69
5296.62
6327.04
9652.42
6880.38
7755.78
10896.9
4573.41
2180.41
3100.23
3601.09
2240.57
939.264
1320.7
1327.94
8792.4
15810.5
5929.57
17606.3
10310.1
15449.2
7313.51
18378.8
11636.9
13942.5
9356.66
17844.9
13206.8
15393.8
10253.6
9960.66
10817.3
15424.6
14625.4
14698.5
15248
21829
12550.4
9953.75
8824.74
9924.56
15335.6
18409.1
16526.3
21279.6
20536.9
16826.7
15652.2
20958.8
20089.6
14551.8
14252.7
19612.4
19320.8
11326.1
8970.37
10894
9615.88
12059.3
10976
13114.8
12751.7
17945.5
18550.5
10556.3
9275.89
10351.7
10199.9
10860.2
11781.4
12300.8
14073
15987.5
18784.5
8801.48
6929.75
5994.13
7566.56
11640.8
14054.6
8025.15
12610.6
5175.19
6729.07
7771.12
6441.36
1494.43
4997.64
728.903
1770.96
4077.51
8427.24
1463.66
2888.09
791.571
4302.87
397.772
1492.39
5134.13
5202.78
5843.67
3701.3
8171.88
6600.17
9607.64
6732.81
1280
2849.11
2909.48
1701.1
1586.34
2041.69
2229.82
1690.57
13239.4
8078.53
2566.48
14920.6
8618.89
2830.3
12674.7
7978.38
2710.07
14652.8
8612.02
2824.92
11658.3
7335.86
2421.13
14267.7
8638.79
2892.53
6006.86
3356.4
942.974
7878.89
5220.06
1806.67
9525.38
6568.59
2265.99
11095.2
7223.93
2406.08
14105.3
8853.02
3092.58
7047.24
4070.27
1327.7
7539.86
5453.32
2066.12
9061.09
6691.15
2470.28
11275.4
7933.97
2851.2
14286.3
8988.25
3203.75
301.826
2036.43
2888.03
4153.53
2259.51
2577.36
5658.89
5348.64
586.225
1004.2
624.582
1041.76
485.637
1399.89
867.038
1835.74
3215
1572.3
4068.47
2357.04
2147.94
3745.92
3420.07
833.598
6247.21
1444.3
-2062.86
566.705
1713.02
1212.41
1143.92
985.086
9665.35
4295.9
2617.97
1584.34
9794.82
4460.19
3316.73
2017.76
9673.52
4788.21
4790.96
3279.02
3419.8
2405.56
1583.45
1508
12771.7
11319.4
5986.73
6195.1
13943
13058.7
6860.15
6898.46
5231.69
5366.23
10824.9
8994.61
3528.2
3698.93
1904.81
2203.43
4187.96
4160.29
2234.77
2415.65
3012.49
3265.28
1620.31
2057.66
4585.8
3111.58
4546.06
3114.98
7185.5
4097.92
6799.79
4319.53
2715.51
2237.35
2857.48
1997.75
1451.88
1365.62
1795.38
1158.12
11346.9
7617.77
5548.08
5465.38
11269.9
7846.41
5566.86
5441.3
11752.4
8263.81
5646.18
5311.68
14012
15353.9
12599
8288.88
4541.84
14557.1
13230.4
12076.4
9792.4
6073.43
13628.2
12127.7
9545.19
7209.14
4334.97
6219.06
5353.49
5671.5
6286.04
6501.91
5336.54
5770.17
6256.5
6928.89
5453.73
5895.71
6253.51
10980.8
7785.87
10024.9
6951.52
7720.66
6167.19
7050.38
5920.5
5515.49
6263.27
9135.39
7947.77
7918.98
6883.87
6613.04
5937.13
5671.77
5535.71
4319.13
5948.55
7074.82
4794.15
4689.82
2836.94
9403.42
7257.98
6511.44
5274.51
3749.9
2248.85
5450.91
3995.1
4698.51
2230.86
1678.39
960.511
5049.33
3671.44
1719.7
1429.84
4000.62
1771.65
1539.94
799.752
3015.82
2718.15
2538.05
3661.37
4207.22
3891.49
3226.25
4661.72
3084.3
1946.29
1859.78
2503.83
896.086
418.788
137.476
429.786
3657.36
1531.91
454.062
4135.15
1088.3
290.894
3754.1
1673.93
514.924
4156.21
1135.38
319.211
3610.44
1708.27
446.55
4142.76
1174.13
278.73
4871.21
2528.21
597.905
4229.36
2072.09
506.885
3981.06
1921.11
527.035
3799.23
1783.96
389.83
4179.01
1171.34
182.055
6078.3
3113.95
862.734
5287.17
2643.33
735.524
4650.25
2302.14
673.234
4247.48
1833.38
459.246
4544.94
1109.12
274.351
1629.87
574.12
123.415
-135.289
676.232
249.923
70.2508
-24.1904
1730.42
630.317
170.284
-76.413
865.34
347.66
166.87
75.7977
1850.95
696.425
250.626
17.8114
1466.66
655.881
237.212
47.4795
1099.36
588.034
174.868
-27.8869
999.341
622.012
330.402
180.55
1515.7
650.087
185.266
-137.806
1283.05
543.032
229.852
-129.132
1798.08
681.795
222.684
-82.5416
1613.21
613.795
243.984
-209.106
1200.63
591.015
216.397
-48.6176
973.988
469.572
239.061
1.55259
866.208
504.917
278.244
158.584
657.957
385.473
243.065
133.159
2062.87
694.808
131.391
-273.672
2011.68
637.617
191.582
-368.304
2060.19
704.083
148.023
-260.698
1948.19
619.36
197.443
-356.968
2019.49
704.328
215.217
-175.399
1823.15
585.758
235.067
-285.442
1771.03
648.567
284.054
3.06701
2000.14
654.003
322.389
-330.706
1569.78
575.451
278.746
-72.5675
1568.95
447.77
168.202
-242.374
619.157
162.502
45.0216
-46.9792
1624.07
476.697
182.744
-228.595
645.57
174.934
55.6368
-35.1969
1671.07
512.639
219.414
-197.554
665.798
190.95
69.2862
-22.262
1514.01
483.092
248.344
-151.18
652.412
197.581
93.2443
0.934506
1391.04
478.736
261.317
-81.0789
590.515
208.08
123.856
31.5333
956.945
375.114
176.118
-27.1872
552.914
262.88
149.941
74.5834
1112.51
388.188
192.825
-62.072
562.81
233.667
138.111
53.9909
763.295
354.014
182.772
25.1924
487.134
268.717
157.138
94.4959
528.955
311.426
198.626
114.549
395.921
259.073
168.703
119.868
-12.7165
4.05619
4.13369
2.6827
1.89805
-2.16434
2.79756
2.28792