/*--------------------------------*- C++ -*----------------------------------*\
| =========                 |                                                 |
| \\      /  F ield         | OpenFOAM: The Open Source CFD Toolbox           |
|  \\    /   O peration     | Version:  2306                                  |
|   \\  /    A nd           | Website:  www.openfoam.com                      |
|    \\/     M anipulation  |                                                 |
\*---------------------------------------------------------------------------*/
FoamFile
{
    version     2.0;
    format      ascii;
    arch        "LSB;label=32;scalar=64";
    class       volVectorField;
    location    "2.2";
    object      flux;
}
// * * * * * * * * * * * * * * * * * * * * * * * * * * * * * * * * * * * * * //

dimensions      [0 1 -1 1 0 0 0];

internalField   nonuniform List<vector> 
5712
(
(-0.264087 0.46703 0.28894)
(-0.337537 0.269308 0.94945)
(-0.627519 0.75728 0.229259)
(-0.916039 0.496366 0.973653)
(-0.93429 0.826205 0.172269)
(-1.61297 0.611624 1.00745)
(-0.718587 1.29719 0.27219)
(-1.83085 1.60761 1.55441)
(-0.585515 1.70522 0.334538)
(-1.2865 2.08648 2.13759)
(-0.875501 1.10273 0.331889)
(-1.33159 0.958121 1.55611)
(-0.785904 0.700515 0.319983)
(-1.03006 0.555182 1.29101)
(-0.345516 0.351613 0.332552)
(-0.394944 0.237836 1.15323)
(-0.58833 0.784282 0.201233)
(-0.673815 0.80228 0.124176)
(-0.761072 0.675494 0.537882)
(-0.7547 0.793546 0.318785)
(-0.599274 1.05948 0.197331)
(-0.740795 0.946056 0.106318)
(-0.883523 1.22222 0.589416)
(-0.792939 0.989191 0.292541)
(-0.214519 0.329863 0.219633)
(-0.160948 0.237712 0.158738)
(-0.266883 0.185308 0.704473)
(-0.179232 0.137682 0.49453)
(-0.497022 0.394882 0.166083)
(-0.396863 0.321655 0.119087)
(-0.849212 0.239455 0.692971)
(-0.61438 0.193443 0.502367)
(-0.658217 0.716584 0.389406)
(-0.683777 0.744322 0.164701)
(-0.730022 0.732453 0.335973)
(-0.695184 0.619023 0.149526)
(-0.255226 0.571205 0.154248)
(-0.200351 0.445879 0.362792)
(-1.55912 0.447652 1.3491)
(-2.08732 0.508217 0.365865)
(-1.00703 0.721456 0.482883)
(-1.23646 0.71777 0.163671)
(-2.09813 1.51264 1.7393)
(-2.72227 1.56351 0.472607)
(-1.08527 1.07233 0.452781)
(-1.24242 1.10431 0.156977)
(-1.15518 0.611161 0.962549)
(-1.63202 0.515351 0.298832)
(-1.00777 0.66608 0.493858)
(-1.33603 0.475041 0.172491)
(-0.589164 0.309795 0.836052)
(-0.950338 0.317944 0.265958)
(-0.112797 0.253174 0.233278)
(-0.0380009 0.352016 0.115661)
(-0.118848 0.132402 0.346451)
(-0.0428193 0.158957 0.134721)
(-0.340637 0.347223 0.252362)
(-0.137416 0.472836 0.136501)
(-0.46766 0.206588 0.337995)
(-0.171936 0.240415 0.129397)
(-0.332305 0.385223 0.321042)
(-0.127557 0.64312 0.182809)
(-0.35416 0.26674 0.291281)
(-0.11352 0.435364 0.126252)
(-0.603978 0.101773 0.431968)
(-0.192095 0.259087 0.155011)
(-0.779376 0.0846788 0.148704)
(-0.262848 0.193432 0.0518454)
(-0.955726 0.707776 0.48858)
(-0.474059 0.873948 0.338002)
(-0.874954 0.7296 0.302669)
(-0.518645 0.869853 0.220969)
(-0.897097 0.866162 0.548168)
(-0.580122 0.874958 0.450872)
(-0.788963 0.881386 0.299721)
(-0.593728 0.863252 0.259389)
(-0.687195 0.620373 0.28602)
(-0.408085 0.840165 0.192671)
(-0.686925 0.638336 0.402144)
(-0.349622 0.830133 0.268118)
(-0.902675 0.718284 0.199734)
(-0.577552 0.863595 0.146681)
(-0.904626 0.717797 0.101782)
(-0.583024 0.861397 0.0834518)
(-0.833237 0.888211 0.193472)
(-0.628757 0.851866 0.167144)
(-0.843299 0.884907 0.10048)
(-0.631713 0.843549 0.096875)
(-0.742332 0.572932 0.191183)
(-0.471602 0.843509 0.125051)
(-0.768905 0.552936 0.0982068)
(-0.483311 0.846394 0.0628895)
(-0.70165 0.697773 0.255012)
(-0.3035 0.816977 0.13844)
(-0.323773 0.881192 0.190683)
(-0.393848 1.22657 0.230677)
(-0.704552 0.738706 0.348158)
(-0.331657 0.941597 0.247641)
(-0.282171 0.873014 0.2755)
(-0.398676 1.32989 0.394071)
(-0.743138 0.661767 0.16906)
(-0.30222 0.719982 0.0799523)
(-0.367237 0.884894 0.112633)
(-0.397049 1.18039 0.132277)
(-0.780032 0.654812 0.0841251)
(-0.309586 0.674098 0.0348657)
(-0.399588 0.894502 0.0487525)
(-0.414988 1.17198 0.049072)
(-0.146173 0.206573 0.305784)
(-0.159574 0.269412 0.548782)
(-0.0490497 0.526181 0.207718)
(-0.0956696 0.914751 0.61308)
(-0.428334 0.256988 0.359074)
(-0.452666 0.291608 0.537642)
(-0.165154 0.679454 0.255759)
(-0.292226 1.04352 0.642587)
(-0.548535 0.321291 0.408736)
(-0.609951 0.324333 0.487395)
(-0.263598 0.86408 0.330027)
(-0.44796 1.17002 0.628319)
(-0.491039 0.973759 0.487075)
(-0.0442412 1.04728 0.583601)
(-0.541373 0.822557 0.36409)
(-0.666536 0.793073 0.350003)
(-0.361134 1.14374 0.383608)
(-0.030685 1.05511 0.582755)
(-0.298723 0.995385 0.535816)
(-0.48604 0.840079 0.523918)
(-0.782478 0.727419 0.535955)
(-0.54085 1.30443 0.774856)
(-0.393602 0.961169 0.473621)
(-0.477265 0.947872 0.362513)
(-0.416356 0.84341 0.312218)
(-0.358599 0.836184 0.349475)
(-0.562125 1.49513 0.549598)
(-0.140697 0.0802987 0.634423)
(-0.116195 0.0962485 0.565433)
(-0.0803022 0.17122 0.736197)
(-0.0796968 0.386914 0.706233)
(-0.396935 0.11425 0.580912)
(-0.335462 0.128902 0.537476)
(-0.238476 0.237639 0.727588)
(-0.226932 0.435872 0.691922)
(-0.496018 0.171079 0.503002)
(-0.421037 0.14473 0.489681)
(-0.311534 0.324565 0.683123)
(-0.279633 0.503015 0.667313)
(-0.234532 1.04658 0.424934)
(-0.298174 1.03762 0.332653)
(-0.483656 0.943052 0.392941)
(-0.500844 0.931162 0.341057)
(-0.560194 0.806315 0.427566)
(-0.509894 0.741784 0.38035)
(-0.631556 0.609906 0.458265)
(-0.550384 0.541003 0.438082)
(-0.425656 0.428474 0.630034)
(-0.358151 0.592627 0.642856)
(-0.361825 0.951985 0.397361)
(-0.382071 0.922324 0.34307)
(-0.477357 0.958337 0.377109)
(-0.378528 0.945619 0.360096)
(-0.434497 0.831744 0.387361)
(-0.317986 0.781583 0.408002)
(-0.375724 0.686848 0.435148)
(-0.260434 0.616698 0.486059)
(-0.436677 0.457404 0.567892)
(-0.28683 0.600211 0.65392)
(-0.409224 0.948015 0.327724)
(-0.193231 1.06841 0.257188)
(-0.350995 0.944846 0.225379)
(-0.38142 1.09397 0.287256)
(-0.502026 0.917508 0.444852)
(-0.655993 0.951488 0.54269)
(-0.552171 0.895065 0.308787)
(-0.804528 0.957161 0.488938)
(-0.279049 0.860594 0.190287)
(-0.31094 0.875898 0.250744)
(-0.362303 0.853727 0.283014)
(-0.11831 0.850781 0.233092)
(-0.312671 0.937178 0.0543282)
(-0.603397 1.09828 0.190816)
(-0.296556 0.93263 0.028452)
(-0.646591 1.09696 0.0686994)
(-0.546609 0.868539 0.157908)
(-0.992916 0.968392 0.329042)
(-0.556112 0.861092 0.0585527)
(-1.05339 0.965832 0.114246)
(-0.236048 0.863897 0.0254256)
(-0.517878 0.873934 0.161332)
(-0.214371 0.863512 0.0144894)
(-0.551576 0.873267 0.0566057)
(-0.325852 0.723275 0.186642)
(-0.247422 0.687789 0.189684)
(-0.452685 0.465948 0.212085)
(-0.180232 0.5175 0.131369)
(-0.336053 0.718072 0.29507)
(-0.0693187 0.669343 0.235635)
(-0.395097 0.458642 0.347025)
(-0.0327106 0.518408 0.23867)
(-0.312864 0.733565 0.0431967)
(-0.36989 0.686004 0.103878)
(-0.474144 0.476243 0.105169)
(-0.219606 0.520134 0.0595625)
(-0.258604 0.736556 0.0588661)
(-0.435835 0.679145 0.0764541)
(-0.419394 0.491108 0.0833792)
(-0.287861 0.52069 0.0629387)
(-0.0927599 0.0658645 0.449281)
(-0.0819925 0.0450661 0.272458)
(-0.0736714 0.0315436 0.0855332)
(-0.0665628 0.0384873 0.508941)
(-0.0612365 0.0268354 0.29152)
(-0.0549685 0.0250976 0.0953356)
(-0.275023 0.0914145 0.430864)
(-0.226853 0.0554876 0.269609)
(-0.197211 0.042369 0.0907972)
(-0.176197 0.0761738 0.50133)
(-0.142592 0.0617495 0.291962)
(-0.124252 0.053609 0.0952682)
(-0.338097 0.107037 0.396474)
(-0.292859 0.0903941 0.2475)
(-0.271079 0.0912269 0.0812291)
(-0.212285 0.134251 0.489645)
(-0.174214 0.110698 0.293626)
(-0.165061 0.0998641 0.0980066)
(-0.26301 0.996713 0.216571)
(-0.233824 0.905474 0.116678)
(-0.228486 0.840722 0.0313755)
(-0.43777 0.915969 0.275665)
(-0.334891 0.853909 0.181192)
(-0.282909 0.803062 0.0629596)
(-0.411279 0.656608 0.327587)
(-0.30598 0.612983 0.225846)
(-0.249197 0.589144 0.0778278)
(-0.432029 0.444684 0.378013)
(-0.342928 0.388605 0.24423)
(-0.299047 0.364997 0.0809899)
(-0.266829 0.204433 0.485296)
(-0.177074 0.15228 0.301957)
(-0.138712 0.129667 0.105577)
(-0.629934 0.900236 0.257699)
(-0.547651 0.838733 0.144275)
(-0.475888 0.784847 0.0455734)
(-0.403856 0.922404 0.258624)
(-0.337861 0.845883 0.185826)
(-0.281911 0.785178 0.0699935)
(-0.35756 0.682117 0.30598)
(-0.279632 0.590386 0.225899)
(-0.224514 0.538062 0.0828127)
(-0.299317 0.444285 0.382534)
(-0.217591 0.358617 0.268126)
(-0.168261 0.323744 0.0957305)
(-0.30631 0.217625 0.490721)
(-0.171471 0.151722 0.305444)
(-0.0974349 0.122385 0.108213)
(-0.413373 1.07629 0.0119584)
(-0.560347 1.05481 0.0803858)
(-0.326682 1.1711 0.113642)
(-0.422513 1.05237 0.164119)
(-0.444232 1.20505 0.0868792)
(-0.653071 1.05276 0.0998797)
(-0.396633 1.45336 0.218366)
(-0.577983 1.10749 0.207282)
(-0.00165806 0.835399 0.0240918)
(-0.029229 0.850034 0.0414406)
(0.0201857 0.824524 0.0257245)
(-0.00404219 0.766352 0.0431695)
(-0.118357 0.937273 0.019537)
(-0.134082 0.884569 0.0567237)
(-0.0488964 0.919576 0.0348566)
(-0.0262399 0.786916 0.0744052)
(-0.027372 0.910165 0.129142)
(-0.09589 0.904638 0.0631608)
(-0.374958 0.839288 0.163282)
(-0.547875 0.899088 0.0943618)
(-0.265855 1.12087 0.087063)
(-0.145577 1.00492 0.151978)
(-0.394162 1.10757 0.136158)
(-0.391228 1.12404 0.03794)
(-0.606762 1.20162 0.242454)
(-0.668299 1.24218 0.0596416)
(0.0243382 0.922621 -0.0757108)
(0.164664 0.957032 0.029615)
(-0.30177 0.826669 0.0718999)
(-0.284517 0.802242 0.0539556)
(-0.286023 1.00591 0.050125)
(-0.22066 1.03141 0.0466734)
(-0.040994 0.656896 0.394318)
(-0.0218379 0.352094 0.182182)
(-0.0264582 0.613267 0.107825)
(-0.0105731 0.390085 0.0674191)
(-0.0793996 0.666439 0.400512)
(-0.00825611 0.355256 0.189473)
(0.0143379 0.611252 0.135619)
(0.0344382 0.387512 0.0852743)
(-0.368787 0.657847 0.395452)
(-0.0961636 0.357249 0.204045)
(-0.248987 0.609916 0.196967)
(-0.0650941 0.404016 0.139354)
(-0.360036 0.592851 0.141194)
(-0.110009 0.422781 0.102384)
(-0.435947 0.599807 0.0704115)
(-0.140829 0.419313 0.0676631)
(-0.351461 0.845333 0.504288)
(-0.475949 0.724653 0.448616)
(-0.325267 0.839383 0.237692)
(-0.464482 0.722886 0.246863)
(-0.564062 0.932271 0.540176)
(-0.598035 0.843431 0.507223)
(-0.538637 0.940415 0.266665)
(-0.566672 0.834288 0.269067)
(-0.225647 0.822867 0.212529)
(-0.377458 0.604795 0.219002)
(-0.260336 0.859611 0.435416)
(-0.374817 0.597523 0.364553)
(-0.345252 0.857184 0.142203)
(-0.447652 0.718987 0.148834)
(-0.380977 0.867602 0.080028)
(-0.45251 0.710691 0.0907523)
(-0.561291 0.963746 0.164619)
(-0.5568 0.826915 0.16365)
(-0.587836 0.963977 0.0908868)
(-0.559364 0.816093 0.0972441)
(-0.22787 0.814123 0.124836)
(-0.365512 0.606232 0.134591)
(-0.248063 0.811399 0.070593)
(-0.372539 0.602408 0.0864583)
(0.00404686 0.540277 0.190668)
(-0.0559093 0.358694 0.135091)
(-0.299373 0.479185 0.190787)
(-0.190549 0.30399 0.137429)
(0.0268424 0.504153 0.296522)
(-0.0392524 0.321239 0.178199)
(-0.277363 0.460954 0.283676)
(-0.168552 0.283843 0.190027)
(-0.0142535 0.553141 0.115382)
(-0.066132 0.381306 0.0979881)
(-0.306299 0.486651 0.120985)
(-0.207607 0.313315 0.0890371)
(-0.0325559 0.553662 0.0651218)
(-0.0770977 0.395283 0.0617977)
(-0.308232 0.485322 0.0771723)
(-0.215241 0.315544 0.0523946)
(0.0277015 0.102289 0.468837)
(0.0319857 0.0528796 0.330278)
(-0.00683026 0.185408 0.239173)
(-0.00087422 0.0960326 0.245586)
(0.117033 0.109468 0.466873)
(0.118716 0.065624 0.337897)
(0.00833898 0.197846 0.240583)
(0.0146947 0.116643 0.244423)
(0.0236918 0.135471 0.484191)
(0.0797638 0.100451 0.350431)
(-0.0687096 0.21987 0.244031)
(-0.042716 0.155597 0.237471)
(0.410481 0.52753 0.553229)
(0.381752 0.814535 0.59408)
(0.223213 0.380201 0.507391)
(0.170935 0.364503 0.342621)
(0.0165615 0.255735 0.198369)
(0.418799 0.799045 0.562898)
(0.432435 0.558623 0.524632)
(0.173474 0.328235 0.491374)
(0.256244 0.329637 0.410208)
(0.0321991 0.209725 0.270777)
(-0.40815 0.829292 0.527874)
(-0.321338 0.655091 0.479918)
(-0.287455 0.522115 0.386525)
(-0.271716 0.40631 0.300919)
(-0.167957 0.248382 0.192115)
(0.0327926 0.0277869 0.284003)
(0.0306372 0.0212003 0.255278)
(0.00117578 0.0517997 0.267581)
(-0.00313421 0.0367775 0.308841)
(0.10369 0.0405814 0.292059)
(0.102757 0.0281734 0.250243)
(0.00346297 0.0767416 0.269933)
(-0.00675543 0.0605052 0.304537)
(0.104315 0.0721248 0.303235)
(0.127513 0.0571537 0.247413)
(-0.029428 0.115497 0.272151)
(-0.0431467 0.0937176 0.299878)
(0.205525 0.813718 0.424795)
(0.0939966 0.792731 0.299555)
(0.327829 0.554426 0.399639)
(0.206688 0.536295 0.278837)
(0.146682 0.361823 0.318233)
(0.112126 0.369378 0.258792)
(0.165584 0.304628 0.301439)
(0.14473 0.284481 0.260527)
(-0.0200408 0.178835 0.252302)
(-0.0589591 0.146957 0.296741)
(-0.15021 0.76194 0.352803)
(-0.0949026 0.69771 0.306071)
(-0.0412015 0.593599 0.314631)
(0.0415482 0.526408 0.275542)
(-0.0409588 0.464093 0.271699)
(0.0305326 0.417754 0.248009)
(-0.0708505 0.352978 0.243623)
(-0.0168347 0.32412 0.244373)
(-0.0886444 0.219612 0.199178)
(-0.101754 0.221623 0.282497)
(-0.209533 0.606735 0.281283)
(-0.192035 0.496819 0.190292)
(-0.39852 0.609461 0.187089)
(-0.240789 0.48366 0.111416)
(-0.324267 0.725813 0.365012)
(-0.327261 0.606977 0.28127)
(-0.492418 0.722969 0.254102)
(-0.399421 0.596778 0.203989)
(-0.31648 0.512872 0.154382)
(-0.187259 0.421954 0.0930546)
(-0.158459 0.49826 0.223987)
(-0.157923 0.424534 0.166463)
(-0.469756 0.608989 0.189489)
(-0.207849 0.475401 0.0894629)
(-0.516783 0.605063 0.0696756)
(-0.233093 0.474457 0.040132)
(-0.549221 0.719546 0.199515)
(-0.407635 0.60713 0.1441)
(-0.586168 0.71237 0.0699967)
(-0.436852 0.605021 0.0579515)
(-0.383663 0.521673 0.165178)
(-0.152794 0.41476 0.0741198)
(-0.429807 0.520704 0.0652782)
(-0.177048 0.420251 0.0345046)
(-0.25316 0.400051 0.130784)
(-0.202701 0.344298 0.121764)
(-0.199468 0.260548 0.11756)
(-0.296062 0.280684 0.173732)
(-0.164712 0.38595 0.182057)
(-0.186506 0.337585 0.174178)
(-0.170877 0.248303 0.150146)
(-0.274569 0.266491 0.222954)
(-0.291799 0.416933 0.131855)
(-0.200801 0.350831 0.0866505)
(-0.225227 0.26718 0.0848317)
(-0.339767 0.297543 0.117592)
(-0.353909 0.427008 0.0403638)
(-0.218288 0.350876 0.0198097)
(-0.280752 0.27794 0.00980192)
(-0.350991 0.301923 0.0225592)
(0.0316003 0.0764639 0.177371)
(0.0340325 0.0676192 0.0739354)
(0.0383924 0.0561478 0.0217968)
(0.000764963 0.333793 0.205469)
(0.0118929 0.178527 0.0530485)
(0.0134233 0.146128 0.0141032)
(0.115298 0.0740099 0.179082)
(0.123234 0.0734662 0.0797105)
(0.123485 0.06544 0.0244552)
(0.00848086 0.360899 0.204832)
(0.0341039 0.210753 0.0551285)
(0.0344065 0.178987 0.0153732)
(0.145573 0.101215 0.166412)
(0.163594 0.114225 0.0785818)
(0.168382 0.117493 0.0202878)
(-0.0250532 0.397105 0.200945)
(0.0330562 0.263329 0.0560167)
(0.0450648 0.23517 0.0131037)
(0.0509259 0.75289 0.184297)
(0.0436768 0.708932 0.092759)
(0.0316163 0.675995 0.0203727)
(0.153424 0.520654 0.169022)
(0.157362 0.509023 0.0810608)
(0.1471 0.500839 0.0188706)
(0.125762 0.383903 0.168473)
(0.142908 0.382521 0.0804401)
(0.140894 0.383741 0.0216477)
(0.155639 0.333585 0.169608)
(0.168505 0.325039 0.0792703)
(0.16491 0.318183 0.0166554)
(-0.0563211 0.450428 0.200039)
(0.0145734 0.324789 0.0549338)
(0.020083 0.29443 0.00817905)
(-0.137818 0.641096 0.234337)
(-0.0782347 0.595905 0.117139)
(-0.0410946 0.564543 0.0309748)
(0.0418466 0.483303 0.213869)
(0.0879683 0.454145 0.105942)
(0.112623 0.437052 0.0287872)
(0.0399582 0.407004 0.197214)
(0.0993335 0.381407 0.0972054)
(0.125275 0.366157 0.0281899)
(0.0172803 0.396609 0.189818)
(0.0819387 0.35467 0.0808149)
(0.100637 0.32961 0.0197447)
(-0.0962742 0.54701 0.216644)
(0.0207587 0.366357 0.0512794)
(0.0347349 0.330303 0.0124946)
(0.00111957 0.192621 0.0715766)
(0.00163425 0.121903 0.025767)
(0.00213747 0.0887539 0.00510828)
(0.00324424 0.0776446 -0.0080008)
(0.0108632 0.218061 0.029807)
(0.00622704 0.133145 0.0113363)
(0.00524096 0.0939148 0.00309044)
(0.00513672 0.0794987 -0.00158909)
(0.000351231 0.193461 0.0759069)
(0.00321396 0.121633 0.028295)
(0.00751845 0.088907 0.00731429)
(0.011724 0.0782353 -0.00489971)
(0.0176939 0.222881 0.0379028)
(0.0114936 0.135909 0.015787)
(0.0130105 0.0957129 0.00760616)
(0.01412 0.0803317 0.00354568)
(-0.00916592 0.192549 0.0816264)
(0.0012981 0.119978 0.0315374)
(0.0107451 0.0887372 0.0111078)
(0.0208894 0.0776434 -0.000102734)
(0.00657516 0.227294 0.0650298)
(0.00944121 0.137492 0.0304694)
(0.0122695 0.0974983 0.011922)
(0.014067 0.0799864 0.00272014)
(0.00157398 0.245263 0.0497081)
(0.00570029 0.146057 0.0281817)
(0.00594371 0.100111 0.0101498)
(0.005876 0.0836034 -0.000437769)
(-0.00863085 0.252847 0.0468162)
(-0.000202481 0.151972 0.0308597)
(0.0049764 0.103563 0.0181167)
(0.00848457 0.0869796 0.0108056)
(-0.0384454 0.20566 0.0678116)
(-0.00783061 0.127947 0.0302111)
(0.00414306 0.0921923 0.00927767)
(0.0127471 0.0784791 -0.00716764)
(-0.0602594 0.164718 0.0581405)
(-0.0139789 0.110346 0.0255591)
(0.000268007 0.0837318 0.0112186)
(0.021889 0.0754297 -0.00719727)
(-0.026761 0.178865 0.0800668)
(-0.00321603 0.11495 0.0311345)
(0.00750463 0.0855117 0.0100616)
(0.0187263 0.0727586 -0.0051605)
(-0.0495396 0.150519 0.0725195)
(-0.0106103 0.103509 0.0283465)
(-0.000494442 0.0801777 0.0113106)
(0.0191475 0.0722752 -0.0118305)
(-0.0409642 0.22358 0.0545464)
(-0.00940674 0.137749 0.0282141)
(0.00522124 0.0969721 0.01134)
(0.0160928 0.0822625 -0.00229529)
(-0.0675863 0.173167 0.0447551)
(-0.0166585 0.115343 0.022665)
(0.000181684 0.0860199 0.0121616)
(0.0257385 0.0779392 0.000106831)
(-0.0457797 0.233675 0.0404805)
(-0.0125387 0.144389 0.024974)
(0.00477824 0.100333 0.0149293)
(0.0191661 0.0849108 0.00921079)
(-0.0728554 0.176794 0.0309692)
(-0.0191059 0.118899 0.0192366)
(-0.000698886 0.0878879 0.0129135)
(0.026919 0.0793034 0.00763849)
(0.000325295 0.142597 0.0911859)
(0.000958483 0.103248 0.0310479)
(0.00186283 0.0801953 0.00501239)
(0.00407585 0.0735049 -0.0158948)
(0.00151405 0.0872272 0.0904162)
(0.0013113 0.0806934 0.0286023)
(0.00112459 0.0697089 0.00722058)
(0.0037312 0.0690474 -0.0216854)
(0.00283055 0.142767 0.0911532)
(0.00327867 0.102562 0.0315426)
(0.00576405 0.0799762 0.00586605)
(0.0110164 0.0732884 -0.0151266)
(0.00666863 0.0914625 0.087648)
(0.00444347 0.0818325 0.0278539)
(0.00349039 0.0701223 0.00755578)
(0.0100958 0.0694307 -0.0210191)
(-0.0164845 0.146067 0.0895042)
(-0.00194112 0.102242 0.0317227)
(0.00632775 0.0801631 0.00900843)
(0.0188131 0.0735129 -0.0106958)
(-0.00752438 0.104807 0.0818745)
(0.00124031 0.085743 0.026407)
(0.00463379 0.0716641 0.00935525)
(0.0178315 0.0711708 -0.017154)
(-0.00335342 0.143463 0.0785596)
(0.00493591 0.099122 0.0293984)
(0.00936696 0.0783172 0.0125111)
(0.0188156 0.0748413 -0.00127093)
(-0.00089566 0.116167 0.0898412)
(0.00396297 0.0883719 0.0296303)
(0.00396535 0.0735446 0.0132313)
(0.0179919 0.0705987 -0.0200342)
(-0.0426573 0.131449 0.0703139)
(-0.00809127 0.0955237 0.0263571)
(0.00112412 0.0761127 0.0125808)
(0.0250932 0.0711398 -0.00471297)
(0.00344091 0.0298459 0.0717595)
(0.00184282 0.0622024 0.0201777)
(0.00135992 0.0545159 0.00650588)
(0.00283235 0.0163932 -0.0146615)
(0.00660134 -0.0361057 0.0285938)
(0.00269345 0.0517676 0.00733789)
(0.00143128 0.0481764 0.00177783)
(0.0013213 0.0175492 -0.00304276)
(0.00701364 0.0398296 0.0741481)
(0.00438133 0.065476 0.0215768)
(0.00299885 0.0557942 0.00728656)
(0.00728991 0.0173328 -0.0139576)
(0.0168268 -0.0233945 0.029804)
(0.00716012 0.0554442 0.00794784)
(0.00360734 0.0492997 0.00229298)
(0.00339695 0.0179343 -0.00246708)
(0.00399159 0.0585047 0.0755229)
(0.00487753 0.0712565 0.023167)
(0.00417506 0.0578019 0.00905346)
(0.0120005 0.0172803 -0.0122135)
(0.021202 -0.00195245 0.0303638)
(0.0100662 0.0616268 0.00864904)
(0.00544671 0.050984 0.00297454)
(0.00535961 0.0181552 -0.00176064)
(-0.0040646 0.0812073 0.0681423)
(0.0044451 0.0780654 0.0218937)
(0.0052709 0.0605962 0.0104506)
(0.016694 0.0188002 -0.00958811)
(0.0164752 0.0206016 0.0295017)
(0.010879 0.0684152 0.00895518)
(0.00648645 0.05335 0.00409755)
(0.00682114 0.0189543 -0.000499734)
(-0.0223851 0.0958326 0.0624601)
(0.000607486 0.0841971 0.0218398)
(0.00276456 0.0640384 0.011405)
(0.0160142 0.0220399 -0.00551219)
(0.00451124 0.0258428 0.0264349)
(0.00938565 0.0734314 0.00947634)
(0.00600207 0.0555344 0.00561076)
(0.0069935 0.0196491 0.00121917)
(-0.0495741 0.102223 0.0436788)
(-0.00491017 0.090778 0.0177141)
(0.00223835 0.0656428 0.008686)
(0.0185158 0.0208817 -0.00166099)
(-0.016023 0.011129 0.0249537)
(0.00238234 0.0784428 0.0124387)
(0.00383894 0.0595285 0.00759623)
(0.00652327 0.0208565 0.00403227)
(-0.0383835 0.0997212 0.050389)
(-0.00139209 0.0878614 0.0179453)
(0.00268572 0.0644256 0.00881218)
(0.0172532 0.0209059 -0.0039963)
(-0.00964179 0.0098984 0.0251458)
(0.00551281 0.0761065 0.0107998)
(0.00510892 0.0575235 0.00662329)
(0.00706352 0.0201411 0.00264768)
(-0.0598985 0.102793 0.0352723)
(-0.00926087 0.0928474 0.0171895)
(0.000798972 0.0667269 0.00956266)
(0.020099 0.0194097 0.00151612)
(-0.0217979 0.00824734 0.0224442)
(-0.000715603 0.0804781 0.0131198)
(0.00251352 0.060927 0.00836961)
(0.00610318 0.0209923 0.00538705)
(-0.067672 0.105084 0.0250079)
(-0.0136021 0.095071 0.0156407)
(-0.00122246 0.0686196 0.0107094)
(0.0198387 0.0198656 0.00666811)
(-0.0271522 0.0124394 0.0187948)
(-0.004097 0.0828012 0.01308)
(0.00075767 0.0626261 0.00920959)
(0.00527515 0.0215329 0.00697676)
(0.00143588 0.0729059 -0.000721648)
(0.000637376 0.0561956 0.000304269)
(0.000330142 0.0390014 0.000310471)
(0.000194891 0.0228061 0.000217459)
(0.000141311 0.00749246 0.000165466)
(0.00189185 0.0720755 -0.000108454)
(0.000978658 0.0560803 0.000205947)
(0.000542764 0.0390304 0.00017523)
(0.000329373 0.0228363 0.000120173)
(0.000240731 0.00750287 9.14511e-05)
(0.00342966 0.0737989 0.000368501)
(0.00148419 0.05664 0.00087841)
(0.000766848 0.0392199 0.000634442)
(0.000455155 0.0229082 0.000417218)
(0.000332652 0.00752229 0.000312363)
(0.00428717 0.0731611 0.00107079)
(0.00219471 0.056649 0.000858288)
(0.00121922 0.0393232 0.000549614)
(0.000744019 0.0229763 0.000351313)
(0.000545883 0.0075443 0.000261099)
(0.00454971 0.0754888 0.00156342)
(0.00185965 0.0572756 0.00158013)
(0.000948832 0.0395041 0.00104695)
(0.000562694 0.0230376 0.00067833)
(0.000412442 0.0075599 0.000506749)
(0.00577111 0.0745047 0.00437611)
(0.00291354 0.0573306 0.00291413)
(0.00162295 0.0396695 0.00178556)
(0.00099632 0.0231424 0.00113155)
(0.000733849 0.00759384 0.000839246)
(0.00302912 0.0756594 0.0052611)
(0.0014934 0.0581134 0.00344084)
(0.000828432 0.0401284 0.00210663)
(0.000509613 0.0233758 0.001338)
(0.000375667 0.00766501 0.000995361)
(0.00214849 0.0774448 0.00765875)
(0.000875311 0.0592456 0.00455892)
(0.00044417 0.0407851 0.00271027)
(0.000265402 0.0237097 0.00170564)
(0.000193698 0.00776686 0.00126681)
(0.00457493 0.0772254 0.00276347)
(0.00190464 0.058042 0.00231232)
(0.000991044 0.0399148 0.00148059)
(0.000595273 0.02324 0.000950874)
(0.000435117 0.00762103 0.000706119)
(0.00218328 0.0824783 0.00296174)
(0.000779459 0.0589878 0.00218196)
(0.000381839 0.0401843 0.00136603)
(0.000224344 0.0233409 0.000875154)
(0.000162705 0.00764876 0.000650243)
(0.00481923 0.0775941 0.0019008)
(0.00221471 0.0578453 0.00185312)
(0.00120593 0.0397162 0.00120898)
(0.000735635 0.0231273 0.000783334)
(0.000541094 0.00758526 0.000584567)
(0.00206126 0.0823651 0.00351174)
(0.000775372 0.058648 0.00226525)
(0.000391605 0.0399645 0.00136952)
(0.000231986 0.0232266 0.000870886)
(0.000168085 0.00761329 0.000645029)
(0.00352085 0.0779463 0.00361008)
(0.00124451 0.0587315 0.00276181)
(0.000599746 0.0403264 0.00174679)
(0.000351294 0.0234508 0.0011197)
(0.000255158 0.00768563 0.000833663)
(0.002069 0.083976 0.0039777)
(0.000696458 0.0596569 0.00261216)
(0.000334514 0.040559 0.00159967)
(0.000196483 0.0235312 0.0010185)
(0.000142855 0.00770717 0.000757006)
(0.00305842 0.0796932 0.00608721)
(0.000799742 0.0598295 0.00367296)
(0.000310004 0.0409442 0.00218905)
(0.000165569 0.0237623 0.00137875)
(0.000115842 0.00778068 0.0010236)
(0.00168944 0.0858321 0.00508755)
(0.000378016 0.0606358 0.00303271)
(0.000133543 0.041094 0.0018046)
(6.84069e-05 0.0238004 0.00113656)
(4.69595e-05 0.00778964 0.000842454)
(0.00119726 0.0749564 -0.0013293)
(0.000480934 0.0564796 0.000154515)
(0.000239816 0.0389997 0.000230151)
(0.000138561 0.022782 0.000167007)
(9.95426e-05 0.00748333 0.000128115)
(0.000864191 0.078862 -0.000725795)
(0.000381137 0.056796 4.8634e-05)
(0.000198749 0.0390081 9.02557e-05)
(0.000116451 0.0227679 6.67832e-05)
(8.39532e-05 0.00747782 5.19128e-05)
(0.00292433 0.0757933 -0.000613632)
(0.00120752 0.0568299 0.00051499)
(0.000617732 0.0391621 0.000430473)
(0.000362238 0.022856 0.000290277)
(0.00026269 0.0075046 0.000219564)
(0.00223161 0.0795245 -0.000470208)
(0.00100427 0.0570594 0.000176335)
(0.000532973 0.039132 0.000160003)
(0.000315328 0.0228247 0.000108986)
(0.000228277 0.00749424 8.33019e-05)
(0.00410376 0.0774951 0.000289267)
(0.00148956 0.0574175 0.000934527)
(0.000730512 0.0394183 0.000658797)
(0.000422143 0.022972 0.000432648)
(0.00030521 0.00753802 0.000326478)
(0.00303084 0.0809837 0.000496412)
(0.00138464 0.0575389 0.0006006)
(0.000743061 0.0393528 0.000385855)
(0.000441267 0.0229267 0.000244965)
(0.000321709 0.00752367 0.000183916)
(0.00369601 0.080294 0.00229303)
(0.00170249 0.0580957 0.00183039)
(0.000931742 0.0396782 0.00114807)
(0.000565686 0.023086 0.000738785)
(0.00041643 0.00757056 0.000554012)
(0.00206241 0.0827326 0.00153115)
(0.0010545 0.0580552 0.00115661)
(0.000585455 0.0396053 0.000708979)
(0.000352197 0.0230449 0.000452426)
(0.000259377 0.0075575 0.000339307)
(0.00191779 0.0829583 0.00425439)
(0.000936358 0.0584453 0.00240313)
(0.000524539 0.0398258 0.00140635)
(0.000322065 0.023154 0.000884191)
(0.000237237 0.00759046 0.000654783)
(-0.0132867 0.38137 0.06551)
(-0.0182198 0.585456 0.149748)
(-0.0297628 0.400412 0.0661328)
(-0.0445524 0.597446 0.148201)
(-0.0307068 0.428598 0.0722238)
(-0.055654 0.613198 0.146991)
(-0.00961863 0.448263 0.0860373)
(-0.044976 0.623563 0.152914)
(0.0163219 0.431251 0.0898188)
(-0.00754237 0.600652 0.15779)
(-0.0287706 0.401488 0.0362149)
(-0.0484676 0.451962 0.0560073)
(0.00847554 0.401245 0.0593323)
(0.00532336 0.47246 0.094443)
(-0.0453736 0.404167 0.0193379)
(-0.0719408 0.448765 0.0274712)
(-0.0575285 0.411404 0.0069534)
(-0.0821952 0.454553 0.00921966)
(-0.024659 0.337258 0.341585)
(-0.00572413 0.0576877 0.081539)
(-0.00128885 0.012308 0.0186755)
(-0.000284545 0.00275639 0.00416862)
(-7.13316e-05 0.000487497 0.00103486)
(-0.00834071 0.374918 0.0930606)
(-0.00372361 0.106629 0.0250503)
(-0.000527893 0.0258579 0.00665996)
(-0.000139355 0.00585838 0.00151365)
(-6.03443e-05 0.00103577 0.000328752)
(-0.0757451 0.341027 0.337847)
(-0.017503 0.0572739 0.0799878)
(-0.00395448 0.0121293 0.0183017)
(-0.000868724 0.00270578 0.00405081)
(-0.00021806 0.000477229 0.00101302)
(-0.0199379 0.378558 0.0947056)
(-0.00534778 0.106255 0.0279309)
(-0.00129458 0.025665 0.00688089)
(-0.000271905 0.00578652 0.00159893)
(-7.2969e-05 0.00101423 0.000396846)
(-0.127308 0.344807 0.323107)
(-0.0294788 0.0571031 0.0759584)
(-0.00667747 0.0119882 0.017313)
(-0.00147161 0.00266226 0.00382677)
(-0.000368563 0.000468517 0.000958062)
(-0.0315953 0.381772 0.0919248)
(-0.00904329 0.105974 0.0270121)
(-0.00218466 0.0254535 0.00663698)
(-0.000504926 0.00571674 0.00153457)
(-0.000126516 0.00100042 0.000382249)
(-0.170922 0.342472 0.296556)
(-0.0396937 0.0554928 0.0690909)
(-0.00902721 0.0115434 0.0156984)
(-0.00199528 0.00255659 0.00346662)
(-0.000500266 0.000449576 0.000868087)
(-0.0366619 0.378105 0.0893609)
(-0.0113495 0.103954 0.025711)
(-0.00283088 0.0248728 0.00623536)
(-0.000661901 0.00557605 0.00142892)
(-0.000165539 0.000974696 0.000354008)
(-0.213675 0.325651 0.248959)
(-0.0501121 0.0514353 0.0576985)
(-0.0114746 0.0106753 0.0131156)
(-0.00254874 0.00237119 0.00289998)
(-0.000641634 0.000417878 0.00072706)
(-0.0403206 0.35892 0.0845288)
(-0.0137449 0.0988441 0.0236624)
(-0.00353137 0.0237241 0.00567561)
(-0.000836801 0.0053331 0.00129243)
(-0.000211762 0.000933547 0.000319224)
(-0.253546 0.29118 0.118304)
(-0.0612973 0.0478203 0.0286687)
(-0.0142294 0.0102476 0.00662764)
(-0.00318704 0.00231311 0.00147593)
(-0.000805809 0.000410733 0.000370574)
(-0.0621512 0.297974 0.0412666)
(-0.019045 0.086055 0.0117362)
(-0.0047037 0.0211978 0.00279238)
(-0.00107994 0.00484319 0.000624793)
(-0.0002703 0.000855779 0.000153942)
(-0.235914 0.3011 0.175959)
(-0.0568289 0.0486552 0.0420414)
(-0.0131343 0.0103035 0.00964459)
(-0.00292969 0.00231114 0.00213742)
(-0.00073845 0.000409057 0.000535842)
(-0.0483958 0.315161 0.060721)
(-0.0161582 0.0908486 0.0170468)
(-0.00411162 0.0221822 0.0040906)
(-0.00096266 0.00502812 0.000930917)
(-0.000241242 0.000883788 0.000231466)
(-0.261647 0.287455 0.0695201)
(-0.0633561 0.0476663 0.0169817)
(-0.0147355 0.0102627 0.00394399)
(-0.00330556 0.0023221 0.00088256)
(-0.000837029 0.000412731 0.000222003)
(-0.0703528 0.29238 0.0230955)
(-0.0208681 0.0839536 0.00683313)
(-0.00507881 0.0206995 0.00161585)
(-0.00114995 0.00474431 0.000361361)
(-0.000287095 0.000840658 8.98751e-05)
(-0.272758 0.286527 0.0240292)
(-0.0654928 0.0473221 0.00583466)
(-0.015254 0.0101811 0.00135822)
(-0.00342033 0.00230466 0.000304971)
(-0.000865584 0.000409289 7.67599e-05)
(-0.0729478 0.292889 0.00926626)
(-0.0217109 0.0835019 0.00248476)
(-0.00533163 0.0205359 0.000543582)
(-0.00112166 0.00471796 0.000152654)
(-0.000296312 0.000834648 2.95805e-05)
(-0.0203237 1.33607 0.00462415)
(-0.276489 1.8923 0.01993)
(-0.252316 1.84956 0.182364)
(-0.0902959 1.29697 -0.0337139)
(0.0655771 0.765231 0.0300827)
(0.111782 0.805004 0.0322394)
(0.311562 1.12834 0.0940511)
(0.455377 1.17801 0.120416)
(0.0703327 0.882317 0.0758597)
(0.334483 0.988181 0.142244)
(-0.0645957 1.40192 0.119449)
(0.103844 1.9109 0.184206)
(0.099971 1.77159 0.143946)
(0.197216 2.34523 0.178645)
(0.372079 1.15754 0.0748089)
(0.526497 1.31858 0.100757)
(0.562871 0.909039 0.0798159)
(0.706381 0.970663 0.0946738)
(0.229817 0.49371 0.0415098)
(0.297613 0.541136 0.0431602)
(-0.792855 0.197018 0.0922937)
(-0.573643 0.130664 0.0674084)
(-0.191467 0.0353837 0.0213479)