/*--------------------------------*- C++ -*----------------------------------*\
| =========                 |                                                 |
| \\      /  F ield         | OpenFOAM: The Open Source CFD Toolbox           |
|  \\    /   O peration     | Version:  2306                                  |
|   \\  /    A nd           | Website:  www.openfoam.com                      |
|    \\/     M anipulation  |                                                 |
\*---------------------------------------------------------------------------*/
FoamFile
{
    version     2.0;
    format      ascii;
    arch        "LSB;label=32;scalar=64";
    class       volScalarField;
    location    "2.2";
    object      gradTy;
}
// * * * * * * * * * * * * * * * * * * * * * * * * * * * * * * * * * * * * * //

dimensions      [0 -1 0 1 0 0 0];

internalField   nonuniform List<scalar> 
5712
(
11675.8
6732.71
18932
12409.1
20655.1
15290.6
32429.6
40190.4
42630.4
52162
27568.1
23953
17512.9
13879.5
8790.33
5945.9
19607
20057
16887.3
19838.7
26487.1
23651.4
30555.5
24729.8
8246.57
5942.8
4632.69
3442.06
9872.06
8041.38
5986.38
4836.06
17914.6
18608.1
18311.3
15475.6
14280.1
11147
11191.3
12705.4
18036.4
17944.2
37816
39087.8
26808.2
27607.9
15279
12883.8
16652
11876
7744.88
7948.61
6329.35
8800.39
3310.06
3973.93
8680.57
11820.9
5164.71
6010.38
9630.57
16078
6668.5
10884.1
2544.32
6477.16
2116.97
4835.79
17694.4
21848.7
18240
21746.3
21654.1
21873.9
22034.7
21581.3
15509.3
21004.1
15958.4
20753.3
17957.1
21589.9
17944.9
21534.9
22205.3
21296.6
22122.7
21088.7
14323.3
21087.7
13823.4
21159.9
17444.3
20424.4
22029.8
30664.3
18467.7
23539.9
21825.4
33247.3
16544.2
17999.5
22122.3
29509.6
16370.3
16852.4
22362.5
29299.5
5164.34
6735.29
13154.5
22868.8
6424.7
7290.19
16986.4
26088
8032.26
8108.33
21602
29250.6
24344
26182
20563.9
19826.8
28593.6
26377.8
24884.6
21002
18185.5
32610.7
24029.2
23696.8
21085.3
20904.6
37378.1
2007.47
2406.21
4280.49
9672.86
2856.25
3222.56
5940.99
10896.8
4276.98
3618.24
8114.12
12575.4
26164.6
25940.4
23576.3
23279
20157.9
18544.6
15247.7
13525.1
10711.9
14815.7
23799.6
23058.1
23958.4
23640.5
20793.6
19539.6
17171.2
15417.4
11435.1
15005.3
23700.4
26710.2
23621.2
27349.2
22937.7
23787.2
22376.6
23929
21514.8
21897.5
21343.2
21269.5
23429.5
27457
23315.7
27423.9
21713.5
24209.8
21527.3
24145.8
21597.4
21848.3
21587.8
21831.7
18081.9
17194.7
11648.7
12937.5
17951.8
16733.6
11466
12960.2
18339.1
17150.1
11906.1
13003.4
18413.9
16978.6
12277.7
13017.2
1646.61
1126.65
788.59
962.184
670.884
627.439
2285.36
1387.19
1059.22
1904.35
1543.74
1340.22
2675.93
2259.85
2280.67
3356.27
2767.45
2496.6
24917.8
22636.9
21018.1
22899.2
21347.7
20076.5
16415.2
15324.6
14728.6
11117.1
9715.12
9124.92
5110.82
3807
3241.68
22505.9
20968.3
19621.2
23060.1
21147.1
19629.4
17052.9
14759.7
13451.5
11107.1
8965.41
8093.6
5440.63
3793.04
3059.62
26907.2
26370.2
29277.4
26309.4
30126.2
26318.9
36334.1
27687.2
20885
21250.9
20613.1
19158.8
23431.8
22114.2
22989.4
19672.9
22754.1
22615.9
20982.2
22477.2
28021.7
25123
27689.2
28100.9
30040.6
31054.6
23065.5
23925.8
20666.7
20056.1
25147.9
25785.4
16422.4
8802.35
15331.7
9752.13
16661
8881.41
15281.3
9687.81
16446.2
8931.22
15247.9
10100.4
14821.3
10569.5
14995.2
10482.8
21133.3
18116.3
20984.6
18072.2
23306.8
21085.8
23510.4
20857.2
20571.7
15119.9
21490.3
14938.1
21429.6
17974.7
21690
17767.3
24093.7
20672.9
24099.4
20402.3
20353.1
15155.8
20285
15060.2
13506.9
8967.34
11979.6
7599.75
12603.8
8030.96
11523.9
7096.08
13828.5
9532.66
12166.3
7832.87
13841.5
9882.07
12133
7888.61
2557.23
1321.99
4635.19
2400.82
2736.71
1640.6
4946.16
2916.07
3386.77
2511.29
5496.76
3889.93
13188.3
20363.4
9505.02
9112.59
6393.37
19976.1
13965.6
8205.87
8240.91
5243.13
20732.3
16377.3
13052.9
10157.7
6209.55
694.673
530.007
1294.99
919.437
1014.53
704.336
1918.54
1512.63
1803.12
1428.84
2887.43
2342.94
20343
19818.3
13860.6
13407.4
9045.58
9234.46
7615.71
7112.03
4470.88
3673.94
19048.5
17442.8
14840
13160.2
11602.3
10443.9
8824.45
8103.01
5490.3
5540.58
15168.4
12420.5
15236.5
12091.5
18145.3
15174.4
18074.2
14919.5
12821.8
10548.8
12456.5
10613.4
15224.7
11885
15126.6
11861.4
17988.7
15178.2
17809.3
15125.5
13041.8
10369
13017.6
10506.3
10001.3
8607.44
6513.71
7017.11
9648.76
8439.62
6207.57
6662.28
10423.3
8770.78
6679.5
7438.56
10675.2
8771.9
6948.51
7548.07
1911.6
1690.48
1403.7
8344.82
4463.17
3653.21
1850.25
1836.65
1636
9022.47
5268.84
4474.68
2530.36
2855.64
2937.32
9927.61
6583.23
5879.25
18822.2
17723.3
16899.9
13016.3
12725.6
12521
9597.57
9563.04
9593.52
8339.63
8125.98
7954.57
11260.7
8119.73
7360.75
16027.4
14897.6
14113.6
12082.6
11353.6
10926.3
10175.1
9535.19
9153.93
9915.23
8866.74
8240.25
13675.3
9158.93
8257.58
4815.53
3047.57
2218.85
1941.11
5451.53
3328.63
2347.87
1987.47
4836.53
3040.82
2222.68
1955.88
5572.03
3397.73
2392.82
2008.29
4813.72
2999.45
2218.43
1941.08
5682.35
3437.3
2437.46
1999.66
6131.58
3651.42
2502.77
2090.09
6321.18
3799.29
2589.08
2174.49
5141.49
3198.68
2304.81
1961.98
4117.96
2758.66
2093.29
1885.74
4471.61
2873.74
2137.79
1818.97
3762.97
2587.73
2004.44
1806.88
5589.49
3443.73
2424.3
2056.56
4329.18
2883.58
2150.5
1948.48
5841.87
3609.72
2508.31
2122.77
4419.86
2972.47
2197.2
1982.59
3564.91
2581.21
2004.88
1837.62
2180.68
2017.33
1742.72
1726.18
3569.18
2564.05
1999.4
1832.21
2286.56
2045.81
1753.06
1735.77
3651.68
2556.06
2004.08
1837.82
2620.17
2143.58
1791.6
1779.27
3586.58
2478.05
1957.93
1871.03
2904.18
2209.3
1838.61
1764.97
3286.23
2388.09
1902.82
1778.5
746.148
1555.06
1362.9
409.831
-902.642
1294.19
1204.41
438.729
995.741
1636.9
1394.85
433.319
-584.862
1386.1
1232.49
448.358
1462.62
1781.41
1445.05
432.008
-48.8113
1540.67
1274.6
453.879
2030.18
1951.64
1514.91
470.004
515.04
1710.38
1333.75
473.857
2395.81
2104.93
1600.96
550.997
646.069
1835.78
1388.36
491.226
2555.57
2269.45
1641.07
522.043
278.225
1961.07
1488.21
521.413
2493.03
2196.54
1610.64
522.648
247.46
1902.66
1438.09
503.527
2569.83
2321.18
1668.17
485.244
206.183
2011.95
1523.17
524.809
2627.1
2376.77
1715.49
496.64
310.986
2070.03
1565.65
538.321
1822.65
1404.89
975.036
570.153
187.311
1801.89
1402.01
975.759
570.906
187.572
1844.97
1416
980.497
572.706
188.057
1829.03
1416.22
983.081
574.408
188.608
1887.22
1431.89
987.603
575.941
188.998
1862.62
1433.26
991.738
578.561
189.846
1891.49
1452.83
1003.21
584.394
191.625
1936.12
1481.14
1019.63
592.741
194.172
1930.64
1451.05
997.871
581.001
190.526
2061.96
1474.7
1004.61
583.522
191.219
1939.85
1446.13
992.905
578.181
189.631
2059.13
1466.2
999.112
580.665
190.332
1948.66
1468.29
1008.16
586.269
192.141
2099.4
1491.42
1013.97
588.279
192.679
1992.33
1495.74
1023.61
594.057
194.517
2145.8
1515.9
1027.35
595.011
194.741
1873.91
1411.99
974.991
569.549
187.083
1971.55
1419.9
975.202
569.198
186.946
1894.83
1420.75
979.052
571.399
187.615
1988.11
1426.49
978.3
570.619
187.356
1937.38
1435.44
985.458
574.301
188.451
2024.59
1438.47
983.82
573.167
188.092
2007.35
1452.39
991.955
577.151
189.264
2068.32
1451.38
990.133
576.122
188.938
2073.96
1461.13
995.645
578.851
189.761
9534.24
14636.4
10010.3
14936.1
10715
15329.9
11206.6
15589.1
10781.3
15016.3
10037.2
11299
10031.1
11811.5
10104.2
11219.1
10285.1
11363.8
8431.45
1442.19
307.699
68.9097
12.1874
9372.95
2665.72
646.446
146.46
25.8944
8525.66
1431.85
303.233
67.6446
11.9307
9463.96
2656.38
641.626
144.663
25.3558
8620.18
1427.58
299.705
66.5565
11.7129
9544.29
2649.34
636.338
142.919
25.0105
8561.8
1387.32
288.586
63.9147
11.2394
9452.62
2598.85
621.819
139.401
24.3674
8141.27
1285.88
266.881
59.2798
10.4469
8972.99
2471.1
593.104
133.327
23.3387
7279.5
1195.51
256.191
57.8277
10.2683
7449.34
2151.37
529.945
121.08
21.3945
7527.51
1216.38
257.587
57.7784
10.2264
7879.02
2271.22
554.556
125.703
22.0947
7186.37
1191.66
256.566
58.0524
10.3183
7309.51
2098.84
517.486
118.608
21.0164
7163.16
1183.05
254.527
57.6165
10.2322
7322.22
2087.55
513.396
117.949
20.8662
33401.7
47307.4
46239.1
32424.3
19130.8
20125.1
28208.5
29450.2
22057.9
24704.5
35048
47772.6
44289.7
58630.7
28938.5
32964.6
22726
24266.6
12342.7
13528.4
4925.45
3266.6
884.593
685.576
770.229
676.982
820.94
4831.5
4788.36
2897.82
4076.95
3920.78
1708.39
2350.89
2141.54
1418.2
1632.11
1342.12
4351.47
2378.06
1533.78
1359.34
1719.66
1493.8
1175.81
1115.1
1051.24
925.447
1249.76
1129.61
4545.35
2771.82
3176.92
2034.77
1683
2355.45
1200.43
948.852
1317.76
10028.3
10155.2
10404
11733.1
19368.2
7247.88
8346.87
9172.19
10343.6
12077.4
2327.84
3329.4
4095.61
4620.81
4893.44
1817.72
2627.42
3257.9
3689.94
3910.66
2039.37
2940.47
3635.38
4106.29
4344.55
1796.58
2599.72
3225.06
3651.94
3868.76
2168.51
3116.68
3844.94
4339.74
4591.9
10171.7
10510.1
10421.8
11105.3
17406.9
10052.2
10206.5
9939.87
10213.4
11673.3
6669.54
7930.19
8594.22
9218.42
9964.6
8827.84
9298.21
9097.16
9058.53
9301.52
8482.82
9010.63
8782.61
8591.19
8607.07
4263.54
5649.89
6537.07
7108.78
7428.56
5595.83
6942.86
7665.36
8142.53
8481.07
5162.99
6504.7
7216.77
7613.55
7823.9
3617.65
4939.6
5836.9
6408.4
6701.25
4090.36
5444.44
6300.12
6820.11
7082.91
3444.24
4740.27
5630.03
6191.6
6471.17
9341.61
9987.54
10201
11149.7
17692.8
5663.7
7084.57
7986.01
8776.29
9565.42
3885.75
5263.14
6202.81
6834.87
7194.1
3483.12
4797.52
5734.05
6375.57
6735.04
4292.17
5711.01
6680.02
7390.05
7869.88
3796.58
5178.94
6167.53
6879.83
7313.76
3046.43
4267.03
5176.37
5814.15
6167.94
2904.47
4092.61
4974.27
5574.25
5890.72
2750.01
3893.52
4737.04
5293.18
5572.65
2434.67
3477.04
4263.72
4790.83
5057.5
3228.35
4490.22
5389.8
5981.21
6287.25
2939.34
4133.41
5009.96
5597.35
5902.6
9491.17
9902.55
10199.8
11418.3
18595.4
6353.82
7630.19
8550
9620.21
10965.7
7390.6
8694.15
9393.72
10476.9
12770.6
4967.28
6452.28
7507.92
8420.05
9182.19
4220.68
5664.89
6696.96
7491.29
8033.56
5619.57
7068.98
8039.67
8940.79
9852.34
3108.05
4346.43
5260.77
5894.68
6242.51
2491.34
3549.77
4349.16
4890.13
5168.17
3386.38
4685.93
5626.61
6280.13
6648.36
18340.1
12176.3
18896.4
13492.4
24501.5
34975.9
25602.7
34800.5
19431.4
20562.9
16671.3
19863.9
22086.5
21007.6
28105.2
23050.6
14129.6
13192.6
6922.83
5901.51
15401.9
14062.7
7953.13
6484.71
19041.5
20584.1
19527.4
17823.6
19892.4
13105.3
10987.7
12667
17939.4
17910.4
37261.8
38966.5
26065.2
27404.7
15858.8
13006.3
17320.6
11992.8
8392.73
8104.41
13856.6
15321.6
5798.81
6319.95
15253.9
17387.2
7235.39
7982.54
14560.1
20321.2
8456.5
13025
2956.88
7211.91
2199.24
4978.85
18105.4
20703.2
18045.3
21075.3
19765.6
20051.3
20821.9
20559.2
16462
20831.1
18672.6
20536.9
17748.7
21229.6
17864.1
21418
21579.5
20773.5
21938.1
20926.6
14595.8
20967.8
13863.4
21113.4
18323.9
21659.9
22252.5
30986.9
19956.9
25631.6
22317.8
33944.3
16939.9
18589.6
22199.9
29644.9
16470.7
17015.2
22374.4
29333.4
18997.8
20525.8
23803.8
35283.2
19122.5
19573.8
25483.1
35753.5
18856.8
18531.5
27435.8
35491.9
18311.8
19200.4
19555.2
20789.7
31218
18457.2
17235.7
20877.8
19012.5
35669.9
19256.7
20073
19900.5
21556.7
38593.7
11420.4
10457.2
10571.7
13656.1
12499.8
11462.4
10956.5
14039.2
13754.3
11938.9
11465.6
14358.4
17904.9
17234.3
16795.1
16353.3
19373.7
18133.9
15996
14412.8
12013.4
14988.2
18923.7
18725.7
20036.2
20183.4
19213.3
18095.4
17421.8
15479.8
11836
14501.9
21806.9
24552.5
22659.9
26186.6
20628.7
21543.7
21262.5
22819.3
20986.9
21216.5
20444.4
20180
22957.9
26891.4
23172.1
27255
21191.3
23670.7
21372.3
23988.1
21310.1
21497.4
21496.6
21726.3
17940.9
16919.7
11678.9
12845.3
17852.7
16425.4
11641.2
12879.7
18233.7
16985.4
11896
12938.1
18375.2
16924.9
12269
12992.4
9579.78
9724.29
4118.44
3794.46
10686
10340.3
4614.62
4417.02
10414.8
9761.77
5255.43
5074.14
16995.2
16492.8
16572.5
16646.7
16518.6
16020.3
12420.2
11121.3
6196.77
5118.47
19047.1
18283
20338
19552.7
16143.2
14974
11597.8
9970.6
5701.38
4291.58
22048
20976
27016.7
23617.3
24522.6
21871.8
33560.2
25332.3
20174.2
16661.7
21964.8
17471.1
20056.9
16944.7
22059.5
17697.8
20603.1
18277.8
18654.3
17365.1
21200.1
22455.3
26332.8
27687.7
28892.9
30720.9
21714.9
23447.9
19622.9
19757.7
23622.9
25271.8
13601.5
10033.2
14029.6
10260.4
13882.5
9943.33
14215
10108.7
13807.2
9794.84
14165.5
10301.7
14196.9
10609.4
14792.6
10489.1
17267.9
16794.6
19057.3
17255.5
19766.4
18960.5
21624.6
19673.3
18764.4
14816.8
17851.3
14648.6
20472.2
17540.2
21405.2
17635.5
23173.1
20075.5
23832.2
20221.6
19458.3
14965.3
20024.4
15000.9
13103.4
9386.62
12187.5
7980.45
12555.9
9104.91
12132.1
7902.69
13513.6
9688.07
12231.8
8010.5
13730.3
9919.1
12149.7
7946.45
13121.8
13341
9419.55
8676.52
13266.1
13455.2
9272.62
8603.63
13228.9
12925.9
9038.43
8503.29
15317.5
18028.5
16148.4
12033.9
8782.97
16735.6
15700.5
17591.8
12094.8
8485.72
18449.9
16400.4
14595.7
12264.2
7833.16
13993.5
15253.4
8647.86
9381.62
13841.4
14832.6
8566.9
9246.32
12910.8
13475.8
8186.37
8360.47
16578.2
15749.9
15032.7
14520.8
15664.4
16173.8
12255.6
13128.8
7940.44
7798.26
16788.1
15437.2
15184.1
13941.2
13713.4
13199.6
11625.8
11720.4
7315.57
7890.8
14862.9
12796.8
14928.9
12215.4
16753.9
14276.5
17275.6
14451.5
12988.5
11117.3
13078.8
11901.5
15030.3
11937.6
15065.9
11875.5
17588.2
14948
17689.7
15059.8
13061
10615.7
13009.7
10568.7
10505
9410.7
7006.49
7758.7
10796.5
10113.9
7181.5
8150.9
10624.4
9129.45
6908.54
7836.07
10732.4
8876.83
7026.45
7673.35
18277
18239.3
25154.1
21146.1
17517.4
17611.2
24111.4
20207.1
15364.6
16038.8
22119.6
18780.8
15301.3
14807.5
14153.3
13989.6
16439.3
16924.5
15284.4
15286.5
20291.8
17200.3
14476.2
13810.2
13355.9
13215.3
13695.9
14071.8
14747.7
14437.6
19849.3
15818.7
6310.93
4046.8
2825.92
2365.24
6562.33
4186.49
2909.55
2385.15
6190.8
3968.91
2776.72
2342.1
6499.79
4140.12
2877.54
2353.17
5970.87
3815.3
2701.24
2276.52
6402.5
4034.77
2842.03
2289.21
6552.39
4027.16
2777.96
2296.8
6462.03
3929.9
2681.92
2246.41
5747.24
3669.22
2635.94
2217.69
4523.01
3093.15
2325.68
2077.69
5423.1
3542.12
2565.85
2129.12
4424.42
3102.9
2312.62
2034.38
5924.45
3724.73
2632.78
2221.1
4547.94
3072.19
2296.83
2079.68
5945.66
3703.84
2580.11
2180.43
4488.79
3033.89
2247.28
2027.69
5784.35
3781.36
2669.85
2290.14
4901.59
3388.65
2464.3
2207.41
5625.05
3700.34
2622.09
2253.86
4791.77
3342.97
2439.04
2196
5400.95
3568.93
2561.76
2219.18
4710.89
3283.72
2407.93
2193.6
4928.7
3328.12
2434.86
2203.94
4530.35
3184.3
2358.81
2098.95
4266.4
3085.1
2284.27
2032.13
3591.36
2987.4
2032.14
567.791
1553.52
2728.91
1885.05
633.027
3631.32
2986.25
2031.79
587.762
1726.38
2733.18
1882.09
635.321
3702.56
2966.47
2008.74
559.681
1966.18
2721.55
1857.32
620.39
3665.6
2913.65
2011.2
589.44
1998.62
2675.62
1836.5
619.852
3391.59
2805.04
2002.47
668.734
1467.27
2562.5
1798.62
615.625
2857.61
2565.1
1886.09
612.517
420.314
2274.78
1706.86
597.075
3049.16
2667.7
1941.09
629.651
609.357
2398.74
1747.07
602.482
2719.51
2483.06
1817.51
543.142
253.611
2182.44
1651.7
571.325
2670.03
2428.33
1764.92
516.307
318.631
2123.32
1607.29
553.68
2150.76
1603.2
1086.16
625.582
204.041
2101.62
1590.25
1082.51
624.357
203.721
2149.6
1596.99
1081.78
623.218
203.304
2093.65
1580.67
1076.23
621.05
202.701
2165.39
1591.72
1076.61
620.292
202.382
2085.97
1569.62
1068.81
617.141
201.504
2045.22
1547.5
1056.93
611.331
199.771
1992.66
1516.85
1039.99
602.978
197.271
2135.78
1574.41
1066.79
615.389
200.909
2257.5
1584.61
1065.19
613.658
200.313
2200.67
1592.61
1073.84
618.439
201.776
2311.31
1598.2
1071.34
616.516
201.143
2084.25
1552.97
1055.81
610.101
199.343
2226.12
1565.95
1055.35
608.915
198.913
2039.31
1525.09
1040.2
602.383
197.04
2189.35
1541.86
1041.83
602.255
196.939
2246.13
1622.12
1090.5
626.858
204.356
2403.18
1639.14
1093.53
627.665
204.55
2250.72
1618.26
1087.43
625.151
203.816
2404.66
1635.7
1091.1
626.346
204.137
2269.01
1613.04
1082.55
622.44
202.96
2411.9
1629.01
1086.44
623.882
203.366
2318.76
1611.07
1078.18
619.867
202.138
2422.78
1619.18
1080.68
620.915
202.433
2371.67
1607.41
1075.18
618.263
201.641
11537.6
15189.6
11600.1
15200.5
11735.3
15205.5
11547.3
15025.3
10798.7
14292
10021.9
11217.5
10049.1
11661
10085.7
11171.4
10277.4
11348
8881.3
1478.27
310.787
69.0739
12.1671
9562.41
2705.31
651.604
146.804
25.8593
8845.74
1454.32
304.592
67.5666
11.8811
9522.65
2672.36
643.063
144.451
25.2518
8735.69
1428.86
298.367
66.0973
11.6161
9416.61
2631.37
632.394
141.901
24.8058
8492.61
1370.78
285.038
63.1462
11.1048
9181.72
2553.75
613.441
137.707
24.0778
8013.56
1265.01
262.835
58.4443
10.3057
8690.38
2420.05
583.355
131.392
23.0188
7232.49
1186.38
254.028
57.3214
10.1778
7385.47
2130.38
524.553
119.84
21.1769
7453.9
1201.95
254.367
57.0654
10.1028
7759.26
2236.22
546.485
123.974
21.8028
7159.2
1186.51
255.325
57.7533
10.2637
7275.49
2087.68
514.489
117.89
20.887
7154.19
1181.37
254.121
57.5175
10.214
7311.24
2084.07
512.449
117.717
20.8237
32949.8
47007.3
45188.9
31064.1
24277.3
28916.2
23470.4
28804.5
27178.3
43106.5
28810.8
44137.1
218.295
234.995
272.184
332.483
420.4
541.299
232.366
249.543
287.644
348.851
436.293
553.724
207.7
202.481
225.409
221.954
264.977
265.641
329.647
338.357
422.856
442.087
544.784
566.893
701.623
908.45
1179.78
1543.04
1963.82
2266.77
704.951
892.756
1119
1374.77
1620.61
1780.34
584.454
857.352
1077.19
1231.11
1310.34
628.923
922.055
1157.86
1322.76
1407.55
727.977
1066.18
1337.52
1526.84
1624.07
888.315
1298.88
1626.93
1855.12
1972.1
1121.33
1635.43
2043.77
2326.67
2471.45
1439.92
2091.67
2604.96
2958.99
3140.09
621.95
911.997
1145.46
1308.79
1392.8
667.627
978.309
1227.95
1402.36
1491.99
768.953
1125.39
1410.91
1609.91
1712.04
931.399
1360.5
1702.66
1940.39
2062.22
1162.65
1693.45
2114.05
2405.24
2554.34
1471.38
2134.19
2655.08
3014.51
3198.78
556.139
815.982
1025.45
1172.19
1247.73
542.172
795.546
999.875
1143.05
1216.76
603.356
884.803
1111.38
1269.91
1351.45
594.12
871.324
1094.56
1250.78
1331.14
708.839
1038.49
1303.2
1488
1582.93
710.624
1041.16
1306.64
1491.99
1587.18
880.967
1288.67
1614.72
1841.62
1957.94
904.207
1322.6
1657.17
1889.91
2009.18
1128.27
1646.38
2058.23
2343.54
2489.44
1179.43
1720.63
2150.46
2447.9
2599.85
1450.03
2108.01
2626.54
2983.74
3166.03
1508.83
2193.16
2731.73
3101.92
3290.39
1857.92
2681.3
3321.96
3762.56
3989.04
2387.18
3408.74
4191.16
4731.61
5015.22
3059.45
4292.74
5218.78
5873.4
6237.56
3912.35
5334.12
6379.11
7167.53
7669.66
4824.28
6323.63
7409.11
8327.98
9046.57
5452.65
6962.25
8051.77
9060.6
9954.6
1865.19
2688.92
3329.43
3770.87
3998.6
2347.06
3353.92
4126.81
4661.69
4942.37
2914.81
4114
5021.13
5658.07
6004.72
3536.84
4911.86
5936.78
6678.45
7108.62
4112.43
5612.43
6717.87
7552.12
8076.55
4478.21
6045.04
7194.63
8089.9
8683.44
221.023
243.288
286.585
353.833
449.794
579.933
235.17
258.059
302.301
370.234
464.948
589.748
210.445
205.32
233.831
230.716
279.744
281.145
351.888
362.071
453.92
475.038
587.241
613.193
749.059
960.679
1229.76
1580.68
1983.87
2272.47
747.102
937.71
1161.52
1408.74
1641.73
1787.37
591.77
868.155
1090.89
1246.88
1327.18
651.26
955.145
1199.86
1371.15
1459.3
766.808
1123.81
1410.82
1611.46
1714.63
946.003
1384.8
1736.6
1982.08
2108.21
1201.05
1754.85
2197.09
2505
2663.11
1545.29
2250.94
2811.22
3200.56
3400.73
629.491
923.161
1159.63
1325.14
1410.28
690.593
1012.39
1271.29
1452.38
1545.52
808.52
1184.23
1485.89
1696.6
1804.91
989.249
1446.83
1813.07
2068.42
2199.6
1240.43
1810.15
2264.12
2580.02
2742.33
1569.64
2282.79
2847.63
3240.15
3442.29
563.51
826.865
1039.23
1188.04
1264.65
549.796
806.799
1014.11
1159.41
1234.23
626.021
918.335
1153.89
1318.85
1403.75
617.69
906.176
1138.72
1301.6
1385.43
748.629
1097.48
1378.14
1574.44
1675.39
752.39
1103.06
1385.26
1582.64
1684.15
941.034
1378.06
1728.74
1973.54
2099.31
968.271
1417.99
1778.89
2030.8
2160.19
1212.54
1772.66
2220.41
2532.21
2692.26
1268.96
1855.17
2323.73
2649.91
2817.25
1565.94
2283.44
2854.03
3250.41
3453.87
1635.5
2385.55
2982.08
3396.18
3608.5
1988.5
2881.45
3584.66
4073.43
4326.37
2533.16
3637.48
4497.41
5099.54
5417.89
3203.13
4526.41
5541.41
6270.06
6677.62
4026.97
5532.83
6666.27
7532.84
8084.3
4892.39
6452.57
7604.38
8585.58
9348.11
5474.3
7006.24
8120.46
9153.44
10065.6
1981.01
2866.03
3561.42
4045.03
4295.88
2471.93
3547.93
4384.71
4969.96
5278.82
3034.88
4304.85
5279.89
5972.1
6350.54
3635.13
5072.9
6160.5
6955.08
7416.89
4175.44
5719.14
6869.56
7743.13
8292.18
4499.68
6082.2
7248.21
8158.13
8761.12
4907.51
3265.83
947.278
739.138
843.789
736.806
890.256
4515.54
4353.47
2847.72
3596.33
1777.37
2338.63
1503.48
1663.4
1411.29
4210.98
2403.82
1616.77
1442.74
1789.63
1563.93
1238.92
1193.46
1149.96
1016.12
1342.42
1217.26
4492.97
2778.49
3149.1
2067.75
1737.65
2382.7
1272.6
1026.03
1395.48
10027.5
10210.5
10509.7
11905.2
19683.6
7262.98
8396.76
9260.51
10474.1
12248
2503.67
3606.4
4468.14
5069.62
5385.17
1965.3
2854.04
3555.88
4042.96
4293.88
2243.44
3257.06
4055.69
4607.98
4891.42
1961.47
2853.06
3558.33
4046.94
4297.66
2362.05
3419.64
4250.06
4825.58
5122.71
9987.92
11180.2
11900
13353.8
20938.6
9841.36
11248.7
12169.6
13484.3
15761.1
6805.79
8626.65
9939.17
11151.4
12294.3
8625.88
10462.1
11495.1
12565.5
13501.8
4553.39
6290.94
7576.38
8497.22
9025.43
5801.68
7689.88
9036.73
10067.4
10740.9
3913.84
5519.72
6731.03
7574.3
8027.22
4302.46
6015.2
7290.39
8180.76
8665.71
3692.69
5242.53
6419.5
7232.24
7660.23
9268.18
10388.5
11122.8
12580.4
20054.9
5857.3
7614.71
8911.4
10068.8
11113.5
4170.75
5816.7
7053.77
7945.17
8459.55
3744.55
5265.92
6423.81
7255.85
7728.66
4543.2
6215.02
7468.36
8432.2
9071.78
4018.96
5582.1
6766.5
7650.56
8189.64
3230.73
4572.85
5605.07
6346.19
6760.81
3133.23
4472.13
5505.83
6232.29
6621.79
3036.53
4365.74
5395.52
6106.11
6474.38
2690.77
3884.45
4816.26
5460.41
5793.23
3515.37
4998.46
6132.3
6922.74
7344.69
3198.48
4569.73
5627.09
6365.42
6757.76
9490.45
10076.8
10537.2
11955.9
19575
6411.19
7782.86
8809.86
9991.48
11434.4
7448.08
9007.27
10001.9
11390.4
14004.5
5090.65
6704.81
7907.37
8959.28
9820.19
4400.29
6001.06
7206.34
8157.21
8799.97
5777.76
7473.97
8738.89
9921.66
11037.4
3321.36
4705.5
5769.1
6528.94
6950.73
2711.1
3902.98
4831.84
5477.73
5815.19
3623.92
5100.82
6228.52
7042.4
7506.02
9567.23
9021.62
8067.11
6726.99
4894.15
1917.24
18667.1
19011.8
21576.4
22257.5
18307.4
19419.9
20637.1
20000.9
15316.1
18860.3
15972.9
19419
18328.3
16526.7
25589.5
17956.8
18163.2
20375.7
20817.7
17337.6
18432.5
19741
19303.9
15254.1
22770.7
15825.5
22659.9
18504.8
20072
27452.3
17162.8
17242.2
18850.1
19050.3
16620.5
18110.3
18543.7
18597.4
17495.5
20160
18255
20174.8
20095.5
22091.7
24729.5
16414.6
16512.9
17475.3
17518.9
16203.5
17927.7
17338.1
17663.1
16407
17641.8
17139.9
17203.6
18388.2
19886.2
21395.8
15629.1
15760.8
16543.3
16503.7
15915.9
17793.8
16551.5
17060.4
15545.2
14580.3
16304.8
14010.9
16925.6
16790.2
17701.9
15284.9
15459
15927.4
15855.7
15545.2
17103.8
16048.5
16478.9
14851.8
12554
15420.7
12311.1
15764.6
14785.7
16050.1
21507
20685
22541.4
23671.6
19949.1
19937.8
21011.8
20074.1
19021.2
14150.6
18983.2
14228.8
16870.5
15313.9
18449.3
20310.3
19718.2
20848.2
21588.1
19277.2
19428.8
19836.2
19051.4
17658.3
13722.9
17648
13819.8
15492.3
13823.8
17109.5
18743.3
18396.5
18822.6
19178
18147.3
18313.5
18322.1
17854.1
16798.8
13485.1
16604
13226.1
14908
12673.7
16833.2
17272.3
17078
17277.4
17432.8
16918.1
17026
17109.6
16742.7
15892.2
13936.8
15792.6
13619.2
14344
12764.6
17181.9
16520.5
16394.2
16427.8
16497.4
16103
16205.6
16396.8
16170
15706.8
15023.8
15643.7
14875.3
14461.2
13292.7
17781.7
15983.4
15866.4
15941.1
15982.3
15626.9
15910.3
15886.6
15797.1
15629.4
15708.1
15626.1
15625.5
14571.5
13830.9
18500.3
11485.7
6517.44
18924.7
12416.3
20676.4
15278
32457.7
40204.2
42681
52187.1
27617.7
23953.6
17520.5
13905.6
8526.68
5674.55
19610.1
20059.4
16886
19839.7
26500.2
23657.1
30563.9
24734.1
8077.43
5824.66
4476.7
3338.44
9844.58
8031.68
5984.86
4849.57
17909.8
18603.4
18309.8
15476
14275.9
11150
11192.2
12706.9
18038
17945.9
37823
39092.6
26811.5
27610.2
15279.9
12885.3
16653.5
11877.4
7746.02
7949.71
6216.41
8661.49
3221.66
3876.27
8682.31
11833.1
5178.95
6027.01
9631.75
16084.1
6674.64
10891.9
2545.68
6480.18
2117.45
4836.95
17695.5
21849.8
18241.4
21747.4
21656.8
21875.4
22037
21582.5
15511.2
21005.3
15958.6
20754.3
17958.3
21590.9
17946
21535.8
22207
21297.5
22123.8
21089.3
14324.6
21088.9
13824.5
21161
17446.3
20428.1
22031.6
30666.8
18469.2
23543.8
21827.1
33250.3
16546
18002.3
22124
29511.9
16372
16854.7
22364.2
29301.8
5081.35
6653.78
12979.1
22677.9
6430.22
7294.01
17001.8
26106.8
8034.75
8110.42
21608.9
29257.7
24344
26182.7
20563.6
19828
28597.6
26378.3
24884.5
21001
18186.1
32615
24030.1
23697.4
21085.8
20906.2
37381.6
1966.62
2374.72
4193.15
9580.04
2860.66
3226.87
5952.58
10906.6
4278.99
3619.41
8117.91
12577.7
26164.8
25940.4
23576.1
23279
20157.2
18544.3
15248.5
13525.8
10713.8
14817
23800
23058.2
23958.7
23640.6
20794
19540
17172.3
15418.3
11436.3
15006.2
23700.9
26710.4
23621.8
27349.5
22938.2
23787.3
22377.1
23929.1
21515.6
21898
21343.9
21270.1
23430
27457.2
23316.2
27424.1
21713.8
24209.8
21527.5
24145.8
21598.2
21848.8
21588.5
21832.2
18082.8
17195.5
11649.5
12938.2
17952.8
16734.4
11467
12961
18340
17150.8
11906.8
13004
18414.8
16979.3
12278.4
13017.9
1624.16
1109.16
774.168
957.674
665.377
620.885
2292.16
1390.83
1060.84
1910.69
1547.77
1342.55
2676.49
2260.6
2281.49
3357.29
2768.84
2497.97
24917.9
22637.1
21018.4
22899.4
21348.3
20077.2
16415.5
15325.3
14729.4
11117.7
9715.94
9125.83
5111.48
3807.77
3242.39
22506
20968.6
19621.5
23060.4
21147.6
19630.1
17053.3
14760.3
13452.2
11107.7
8966.04
8094.27
5441.11
3793.5
3060.02
26911.7
26371.5
29280.6
26310.7
30140.3
26324.5
36346.6
27692.1
20709.1
21197.9
20406
19094.5
23401.3
22086
22955.3
19645.4
22748.9
22611.5
20982.1
22475.5
28004.9
25108.1
27690.2
28101.2
30044.2
31056.7
23063.7
23924.9
20665.9
20055.2
25140.5
25781.9
16426.7
8807.41
15329.7
9759.12
16642.2
8876.55
15265.4
9684.11
16434
8926.63
15237.4
10095.7
14815.3
10566
14992.1
10480.6
21131.6
18116
20983.6
18071.8
23308.8
21086.7
23512.2
20857.8
20566.4
15118.6
21483.4
14936.5
21429.1
17974.4
21689.6
17766.9
24095
20673.2
24100.1
20402.4
20349.9
15154.8
20283.1
15059.3
13503.8
8964.92
11977.9
7598.5
12600.5
8028.57
11521.9
7094.7
13826.2
9530.62
12164.9
7831.81
13839.9
9880.55
12132
7887.73
2544.36
1305.84
4620.56
2382.1
2737.19
1641.68
4946.09
2916.95
3385.91
2511.16
5495.25
3889.35
13188.9
20364.6
9504.66
9111.07
6391.92
19977
13965.9
8205.78
8239.82
5242.19
20733.1
16377.2
13051.8
10156.2
6208.36
677.106
509.109
1275.2
909.254
1015.91
704.141
1918.82
1512.01
1803.41
1429.48
2887.38
2343.4
20343.3
19818.2
13860.4
13407
9045.23
9233.95
7615.06
7111.75
4470.38
3673.87
19048.8
17442.8
14839.9
13160
11601.7
10443.4
8823.58
8102.55
5489.53
5540.1
15168.1
12420.2
15236.3
12091.2
18145.7
15174.4
18074.5
14919.4
12821.1
10548.3
12455.7
10612.8
15224.5
11884.7
15126.2
11861.1
17988.8
15178.2
17809.2
15125.4
13041.2
10368.5
13017
10505.8
10000.4
8606.82
6512.94
7016.44
9647.76
8439
6206.73
6661.61
10422.5
8770.2
6678.83
7437.92
10674.5
8771.37
6947.91
7547.49
1877.72
1662.13
1380.96
8297.62
4421.49
3613.26
1847.47
1835.39
1636.02
9018.69
5268.66
4474.9
2531.02
2856.12
2937.71
9927.63
6583.75
5879.86
18822.1
17723.2
16899.9
13015.9
12725.2
12520.6
9596.95
9562.48
9593.08
8339.41
8125.76
7954.36
11260.3
8119.78
7360.93
16027.3
14897.6
14113.6
12082.3
11353.4
10926.1
10174.7
9534.91
9153.72
9914.82
8866.52
8240.11
13674.3
9158.69
8257.53
4815.64
3047.39
2218.77
1940.48
5449.97
3326.83
2346.99
1986.42
4835.35
3040.31
2222.32
1955.66
5571.34
3397.44
2392.6
2008.1
4812.43
2998.95
2218.12
1940.87
5681.06
3436.83
2437.18
1999.45
6130.29
3650.94
2502.51
2089.9
6320.18
3798.87
2588.85
2174.33
5140.45
3198.2
2304.53
1961.79
4117.27
2758.26
2093.05
1885.56
4470.62
2873.27
2137.51
1818.78
3762.25
2587.33
2004.19
1806.7
5588.51
3443.27
2424.04
2056.38
4328.56
2883.21
2150.27
1948.3
5841.06
3609.32
2508.09
2122.6
4419.32
2972.14
2196.99
1982.42
3563.78
2581.46
2005.34
1837.18
2178.14
2016.76
1743.09
1725.22
3568.36
2563.61
1999.07
1832.01
2285.92
2045.51
1752.81
1735.67
3650.81
2555.62
2003.79
1837.64
2619.56
2143.23
1791.36
1779.13
3585.8
2477.63
1957.66
1870.83
2903.54
2208.93
1838.37
1764.79
3285.57
2387.7
1902.56
1778.29
745.543
1554.54
1363.54
409.898
-901.638
1292.72
1204.04
438.556
995.164
1636.77
1394.67
433.304
-585.527
1386.16
1232.5
448.385
1462.2
1781.17
1444.88
431.963
-49.0776
1540.5
1274.5
453.854
2029.74
1951.33
1514.71
469.95
514.816
1710.12
1333.59
473.809
2395.34
2104.59
1600.74
550.931
645.854
1835.49
1388.18
491.168
2555.15
2269.13
1640.87
521.986
278.079
1960.78
1488.02
521.352
2492.57
2196.19
1610.43
522.59
247.295
1902.36
1437.9
503.466
2569.47
2320.89
1667.99
485.195
206.066
2011.69
1523
524.753
2626.78
2376.51
1715.32
496.597
310.884
2069.8
1565.5
538.272
1821.22
1404.22
974.749
570.028
187.275
1800.3
1401.17
975.37
570.729
187.519
1844.91
1415.93
980.455
572.687
188.052
1828.92
1416.15
983.04
574.393
188.606
1887.12
1431.82
987.564
575.925
188.994
1862.5
1433.19
991.696
578.545
189.844
1891.36
1452.75
1003.16
584.375
191.621
1936
1481.06
1019.58
592.721
194.166
1930.5
1450.97
997.826
580.982
190.521
2061.79
1474.61
1004.56
583.501
191.213
1939.72
1446.06
992.863
578.163
189.627
2058.96
1466.11
999.067
580.645
190.327
1948.52
1468.2
1008.11
586.248
192.135
2099.23
1491.33
1013.93
588.257
192.673
1992.2
1495.66
1023.56
594.035
194.511
2145.65
1515.81
1027.3
594.988
194.735
1872.45
1411.42
974.763
569.452
187.054
1970.16
1419.42
975.013
569.122
186.926
1894.8
1420.68
979.012
571.384
187.612
1988.1
1426.4
978.255
570.605
187.357
1937.28
1435.37
985.419
574.286
188.448
2024.5
1438.4
983.778
573.152
188.091
2007.21
1452.31
991.912
577.132
189.26
2068.17
1451.3
990.09
576.105
188.934
2073.79
1461.05
995.601
578.831
189.756
9484.09
14580.2
10012.7
14937.9
10716.5
15330.8
11207.6
15589.7
10782
15016.9
10037.8
11299.6
10031.8
11812.1
10104.8
11219.7
10285.7
11364.4
8420.65
1432.6
305.225
68.3408
12.0868
9357.47
2659.83
644.754
146.054
25.8202
8523.14
1432.46
303.35
67.663
11.933
9462.31
2655.76
641.407
144.601
25.3437
8619.61
1427.64
299.714
66.5548
11.7121
9543.87
2649.14
636.257
142.892
25.005
8561.85
1387.34
288.585
63.9124
11.2387
9452.68
2598.8
621.792
139.391
24.3649
8141.54
1285.92