/*--------------------------------*- C++ -*----------------------------------*\
| =========                 |                                                 |
| \\      /  F ield         | OpenFOAM: The Open Source CFD Toolbox           |
|  \\    /   O peration     | Version:  2306                                  |
|   \\  /    A nd           | Website:  www.openfoam.com                      |
|    \\/     M anipulation  |                                                 |
\*---------------------------------------------------------------------------*/
FoamFile
{
    version     2.0;
    format      ascii;
    arch        "LSB;label=32;scalar=64";
    class       volScalarField;
    location    "2.2";
    object      gradTx;
}
// * * * * * * * * * * * * * * * * * * * * * * * * * * * * * * * * * * * * * //

dimensions      [0 -1 0 1 0 0 0];

internalField   nonuniform List<scalar> 
5712
(
-6602.18
-8438.42
-15688
-22901
-23357.2
-40324.3
-17964.7
-45771.3
-14637.9
-32162.5
-21887.5
-33289.7
-19647.6
-25751.4
-8637.91
-9873.6
-14708.2
-16845.4
-19026.8
-18867.5
-14981.9
-18519.9
-22088.1
-19823.5
-5362.98
-4023.7
-6672.07
-4480.8
-12425.5
-9921.57
-21230.3
-15359.5
-16455.4
-17094.4
-18250.6
-17379.6
-6380.64
-5008.78
-38978
-52182.9
-25175.8
-30911.5
-52453.3
-68056.9
-27131.8
-31060.4
-28879.4
-40800.5
-25194.1
-33400.9
-14729.1
-23758.5
-2819.92
-950.023
-2971.2
-1070.48
-8515.93
-3435.41
-11691.5
-4298.4
-8307.64
-3188.91
-8853.99
-2838.01
-15099.5
-4802.38
-19484.4
-6571.19
-23893.1
-11851.5
-21873.9
-12966.1
-22427.4
-14503
-19724.1
-14843.2
-17179.9
-10202.1
-17173.1
-8740.54
-22566.9
-14438.8
-22615.7
-14575.6
-20830.9
-15718.9
-21082.5
-15792.8
-18558.3
-11790.1
-19222.6
-12082.8
-17541.2
-7587.51
-8094.33
-9846.2
-17613.8
-8291.43
-7054.28
-9966.91
-18578.5
-7555.5
-9180.93
-9926.23
-19500.8
-7739.64
-9989.7
-10374.7
-3654.32
-3989.34
-1226.24
-2391.74
-10708.4
-11316.7
-4128.84
-7305.64
-13713.4
-15248.8
-6589.96
-11199
-12276
-1106.03
-13534.3
-16663.4
-9028.35
-767.124
-7468.07
-12151
-19562
-13521.2
-9840.06
-11931.6
-10408.9
-8964.98
-14053.1
-3517.43
-2904.86
-2007.55
-1992.42
-9923.38
-8386.54
-5961.91
-5673.3
-12400.5
-10525.9
-7788.35
-6990.82
-5863.31
-7454.36
-12091.4
-12521.1
-14004.9
-12747.4
-15788.9
-13759.6
-10641.4
-8953.77
-9045.63
-9551.78
-11933.9
-9463.21
-10862.4
-7949.65
-9393.1
-6510.85
-10916.9
-7170.75
-10230.6
-4830.76
-8774.88
-9535.51
-12550.7
-16399.8
-13804.3
-20113.2
-6976.21
-7773.5
-9057.58
-2957.75
-7816.76
-15084.9
-7413.89
-16164.8
-13665.2
-24822.9
-13902.8
-26334.8
-5901.2
-12947
-5359.27
-13789.4
-8146.29
-6185.56
-11317.1
-4505.81
-8401.32
-1732.97
-9877.43
-817.765
-7821.59
-9247.26
-11853.6
-5490.16
-6465.11
-10895.9
-10484.8
-7196.53
-2319
-2049.81
-1841.78
-1664.07
-1530.91
-1374.21
-6875.57
-5671.32
-4930.28
-4404.92
-3564.81
-3106.29
-8452.44
-7321.47
-6776.96
-5307.14
-4355.34
-4126.52
-6575.25
-5845.61
-5712.15
-10944.2
-8372.27
-7072.73
-10282
-7649.49
-6229.91
-10800.7
-8573.21
-7476.18
-6670.72
-4426.86
-3467.81
-15748.4
-13691.3
-11897.2
-10096.4
-8446.52
-7047.78
-8939
-6990.79
-5612.85
-7482.93
-5439.77
-4206.53
-7657.75
-4286.79
-2435.87
-10334.3
-14008.7
-8167.05
-10562.8
-11105.8
-16326.8
-9915.82
-14449.6
-41.4516
-730.726
504.642
-101.055
-2958.93
-3352.04
-1222.41
-655.998
-684.299
-2397.25
-9373.96
-13696.9
-6646.38
-3639.42
-9854.04
-9780.7
-15169.1
-16707.5
608.454
4116.61
-7544.25
-7112.93
-7150.56
-5516.5
-1024.85
-545.948
-661.456
-264.328
-1984.99
-206.403
358.446
860.954
-9219.68
-2404.09
-6224.68
-1627.35
-9000.91
-2750.23
-10898.7
-3520.72
-8786.53
-11898.7
-8131.67
-11612.1
-14101.5
-14950.9
-13465.9
-14166.8
-5641.17
-9436.46
-6508.39
-9370.43
-8631.31
-11191.3
-9524.43
-11312.7
-14032.3
-13920
-14695.9
-13984.1
-5696.76
-9137.81
-6201.58
-9313.47
101.172
-1397.73
-7484.32
-4763.72
671.059
-981.31
-6934.08
-4213.79
-356.337
-1653.3
-7657.47
-5190.17
-813.899
-1927.44
-7705.81
-5381.03
692.538
799.644
-170.757
-21.8555
2925.82
2967.89
208.474
367.367
592.296
1994.09
-1717.74
-1067.9
10262
9543.79
5580.32
4273.38
414.038
10470
10810.9
4336.84
6406.1
804.978
-10203.8
-8033.45
-7186.38
-6792.9
-4198.93
819.816
765.931
29.3945
-78.3553
2592.25
2568.93
86.5743
-168.886
2607.88
3187.83
-735.701
-1078.67
5138.11
2349.91
8195.72
5167.21
3667.04
2803.15
4139.6
3618.25
-501.02
-1473.98
-3755.25
-2372.56
-1030.04
1038.7
-1023.97
763.316
-1771.26
-420.868
-2216.11
-2543.85
-5238.33
-4800.87
-9963
-6019.72
-8106.67
-8181.52
-12310.4
-9985.51
-7912
-4681.47
-3961.47
-3948.07
-11743.9
-5196.22
-12919.6
-5827.32
-13730.5
-10190.9
-14654.2
-10921.3
-9591.56
-3819.86
-10745.2
-4426.2
-6329
-5067.52
-4986.7
-7401.54
-4117.8
-4662.65
-4271.92
-6864.22
-7294.98
-5020.02
-5630.67
-8494.18
-8847.73
-5457.2
-7018.81
-8774.77
790.008
850.813
959.811
19.1241
297.322
335.582
2882.45
3080.85
3087.14
212.022
852.598
860.163
3639.32
4089.84
4209.54
-626.331
826.406
1126.62
1273.15
1091.92
790.407
3835.59
3934.05
3677.5
3144.05
3572.71
3522.34
3890.97
4212.64
4122.75
-1408.03
364.334
502.076
-3445.46
-1955.87
-1027.36
1046.17
2199.21
2815.57
998.954
2483.34
3131.88
432.008
2048.47
2515.94
-2406.86
518.966
868.373
27.9892
40.8563
53.4366
81.106
271.579
155.676
131.024
128.418
8.78078
80.349
187.961
293.1
442.347
287.34
325.263
353.001
-229.148
32.4526
268.627
522.234
164.379
236.03
306.737
351.674
39.3494
142.507
148.593
146.9
-215.771
-5.06202
124.41
212.114
-961.135
-195.765
103.576
318.678
-1506.48
-349.474
6.70017
547.224
-669.025
-80.4007
187.616
468.157
-1238.49
-265.257
-12.3611
478.688
-1024.1
-235.168
130.531
402.32
-1689.66
-416.462
4.54211
643.463
-1144.49
-313.467
119.456
479.153
-1821.39
-477.647
-17.4721
672.974
8.13237
23.9621
46.5708
101.896
37.8513
32.7825
28.1147
93.2799
70.7637
81.9668
144.101
275.41
166.716
111.087
87.2598
252.395
-412.112
-48.5281
158.194
470.328
-188.11
31.0078
115.845
445.786
-83.8355
123.398
234.174
470.39
-22.3915
99.0743
99.1338
449.797
-1066.43
-202.282
28.1029
627.331
86.0228
46.0706
33.998
70.8086
165.034
67.3362
35.7821
33.0325
175.341
109.533
74.9711
182.248
420.67
179.003
90.1835
84.9237
99.7898
121.938
104.376
300.012
530.049
251.655
136.168
133.99
-101.615
111.128
131.773
417.349
411.879
271.975
162.161
170.529
-559.627
15.1871
69.1141
400.356
112.781
234.641
150.052
174.838
-1239.35
-122.754
55.9587
462.895
-400.576
59.5585
95.9736
163.082
-959.589
-34.8022
67.1431
431.331
-241.045
137.82
127.723
176.588
-1497.46
-231.522
19.9743
502.475
-544.948
-17.8901
62.8379
152.58
-1691.8
-340.052
-30.5615
495.968
-678.805
-102.425
18.9417
131.879
35.897
15.9344
8.25356
4.87228
3.53276
47.2962
24.4664
13.5691
8.23433
6.01828
85.7415
37.1047
19.1712
11.3789
8.31629
107.179
54.8678
30.4804
18.6005
13.6471
113.743
46.4912
23.7208
14.0673
10.311
144.278
72.8385
40.5739
24.908
18.3462
75.728
37.335
20.7108
12.7403
9.39167
53.7123
21.8828
11.1042
6.63505
4.84245
114.373
47.6161
24.7761
14.8818
10.8779
54.582
19.4865
9.54597
5.6086
4.06762
120.481
55.3678
30.1481
18.3909
13.5274
51.5316
19.3843
9.79012
5.79966
4.20213
88.0212
31.1128
14.9936
8.78235
6.37896
51.7249
17.4115
8.36285
4.91208
3.57137
76.4605
19.9936
7.75009
4.13921
2.89605
42.2359
9.4504
3.33857
1.71017
1.17399
29.9316
12.0233
5.99541
3.46403
2.48856
21.6048
9.52842
4.96871
2.91127
2.09883
73.1081
30.1879
15.4433
9.05595
6.56724
55.7903
25.1067
13.3243
7.88319
5.70693
102.594
37.239
18.2628
10.5536
7.63025
75.7709
34.616
18.5765
11.0317
8.04273
92.4002
42.5623
23.2935
14.1421
10.4108
51.5603
26.3625
14.6364
8.80492
6.48442
47.9447
23.409
13.1135
8.05162
5.93094
-332.169
-455.496
-744.071
-1113.81
-767.669
-1391.35
-240.466
-1124.4
408.047
-188.559
-719.265
-1211.69
211.889
133.084
-1134.34
-1798.52
-1438.21
-2054.88
-616.475
-143.103
-32.2213
-7.11363
-1.78329
-208.518
-93.0904
-13.1973
-3.48387
-1.50861
-1893.63
-437.575
-98.8621
-21.7181
-5.45151
-498.448
-133.694
-32.3646
-6.79762
-1.82422
-3182.69
-736.97
-166.937
-36.7901
-9.21408
-789.883
-226.082
-54.6165
-12.6231
-3.1629
-4273.04
-992.341
-225.68
-49.8821
-12.5067
-916.547
-283.738
-70.7721
-16.5475
-4.13847
-5341.86
-1252.8
-286.865
-63.7184
-16.0408
-1008.02
-343.623
-88.2843
-20.92
-5.29405
-6338.65
-1532.43
-355.735
-79.676
-20.1452
-1553.78
-476.125
-117.592
-26.9985
-6.75749
-5897.84
-1420.72
-328.358
-73.2423
-18.4612
-1209.9
-403.955
-102.79
-24.0665
-6.03105
-6541.19
-1583.9
-368.388
-82.6389
-20.9257
-1758.82
-521.702
-126.97
-28.7488
-7.17737
-6818.95
-1637.32
-381.35
-85.5082
-21.6396
-1823.7
-542.772
-133.291
-28.0415
-7.4078
-508.093
-6912.22
-6307.89
-2257.4
1639.43
2794.55
7789.06
11384.4
1758.32
8362.08
-1614.89
2596.11
2499.27
4930.39
9301.97
13162.4
14071.8
17659.5
5745.41
7440.33
-19821.4
-14341.1
-4786.68
-3756.97
-2701.7
-3862.02
-3591.61
-12213.9
-11720.5
-9993.82
-10848
-8976.73
-6429.11
-8364.76
-5563.37
-4711.78
-5734.24
-3937.43
-19778.3
-10316.8
-3667.72
-6248.96
-8457.77
-5913.47
-6465.57
-4814.66
-2936.18
-4153.74
-4404.29
-4759.77
-19499.6
-12808.4
-12182.2
-8811.02
-8766.05
-9198.21
-3976.76
-5249.7
-6641.39
-14176.4
-12328.9
-10435.7
-9738.33
-8459.04
-9330.58
-6410.84
-5008.73
-3878.89
-2013.94
-4225.48
-3503.3
-2624.83
-1635.28
-559.351
-3354.75
-2807.86
-2112.19
-1312.13
-445.597
-2399
-1993.69
-1488.13
-918.244
-310.534
-3452.79
-2891.01
-2172.35
-1346.31
-456.099
-3187.03
-2649.28
-1981
-1225.97
-415.741
-7869.34
-6053.85
-4784.16
-4486.67
-4897.5
-6417.96
-4739.74
-3403.13
-2851.26
-2005.81
-6241.12
-3750.32
-2611.17
-1834.88
-889.566
-5577.31
-3767.14
-2518.7
-1848.42
-1098.49
-4193.05
-2621.27
-1638.18
-1143.58
-563.867
-5088.22
-3800.16
-2625.92
-1570.93
-541.153
-5691.31
-3652.96
-2391.06
-1436.11
-539.473
-3651.02
-2179.24
-1305.69
-707.894
-239.484
-3881.86
-2995.4
-2108.89
-1261.85
-425.9
-4576.36
-3415.15
-2328.3
-1356.76
-450.815
-3278.51
-2550.42
-1800.46
-1072.86
-358.618
-13113.8
-10037.7
-8167.27
-7339.8
-7065.88
-7602.69
-5516.71
-4050.95
-2764.98
-1252.79
-3051.9
-2387.84
-1710.82
-1044.1
-360.126
-5292.34
-4228.47
-3097.81
-1930.12
-677.946
-6933.23
-5447.15
-4015.41
-2590.32
-983.635
-5032.38
-4054.84
-3006.59
-1899.04
-674.727
-5596.19
-4570.51
-3408
-2141.64
-748.087
-4188.5
-3423.12
-2538.16
-1575.65
-540.75
-2531.02
-2038.57
-1481.61
-899.35
-302.577
-3655.91
-3011.79
-2233.74
-1374.82
-465.278
-3745.79
-2983.85
-2157.82
-1313.55
-446.079
-4120.91
-3347.11
-2464.45
-1519.95
-519.401
-13601.3
-11320.7
-9519.69
-8563.46
-7543.53
-8905.84
-6392.85
-4948.44
-3696.53
-1900.17
-9002.56
-7150.34
-5472.33
-4073.94
-1995.15
-6935.14
-5269.78
-3978.38
-2719.82
-1114.77
-7314.88
-5853.97
-4379.49
-2848.58
-1073.59
-7182.18
-5414.3
-4060.96
-2763.96
-1119.31
-3413.12
-2759.81
-2038.31
-1272.31
-443.158
-4624.99
-3819.94
-2846.29
-1762.12
-599.278
-5714.64
-4635.73
-3436.04
-2150.37
-748.975
-5556.33
-11309.2
-11793.7
-32279.9
-11631
-43225.8
-6341.84
-15380.2
-11643.6
-8991.21
-19327.7
-16116.4
-11620.2
-10936.7
-21693
-17177.5
-4088.84
-3036.82
-7907.35
-5431.8
-9164.3
-6904.81
-24569.9
-18148.9
-15107
-11470.5
-15525.1
-9231.6
-1190.45
-3732.95
-40230.1
-52690.5
-24328.7
-30763.1
-53194.6
-68355.7
-26201.4
-30835.4
-29967.5
-41359.1
-24423.1
-33340.4
-16189.8
-24448.9
-1951.21
-514.351
-3425.14
-1168.38
-6637.35
-2961.6
-13459.1
-4858.73
-2921.67
-1656.69
-7308.24
-2296.83
-15120.2
-4748.81
-19659.7
-6619.79
-16444.1
-8513.07
-18941.1
-11256.7
-14992
-10720.8
-16818.6
-13031.5
-15117.4
-8844.22
-11965.8
-6175.39
-21431.6
-13667.4
-22331.3
-14364.3
-19674.2
-14931.4
-20773.3
-15578.3
-17796.7
-11161
-19041.9
-11908.8
-16545.1
-7301.44
-7201.37
-9497.27
-14806.9
-7462.79
-5393.73
-9330.64
-18308.2
-7482.13
-8764.02
-9754.42
-19467.4
-7733.07
-9871.87
-10324.5
-1122.72
-1009.39
-271.695
-1196.78
-4560.55
-4714.69
-2851.68
-5654.64
-2552.94
-3182.62
-4428.38
-8368.81
-12068.3
-9676.41
-9337.24
-11651.9
-7677.76
-7621.71
-8155.5
-6881.22
-13489
-11711.2
-11504.5
-9633.08
-6689.54
-5743.66
-12610.2
-1088.81
-816.942
-607.675
-681.658
-4239.19
-3367.23
-3588.32
-3162.39
-613.074
514.283
-4240.27
-3330.36
-10151.1
-10780.2
-9488.21
-8683.53
-7063.33
-5130.79
-9242.79
-7361.99
-8272.06
-6479.8
-11552.7
-11755.1
-9881.5
-7727.4
-7311.14
-4965.05
-6448.03
-4082.2
-9630.63
-5859.95
-9289.83
-5070.61
-8284.42
-9438.64
-13046.2
-17352.9
-13760.4
-20091.7
-6347.77
-7540.88
-7703.01
-2877.92
-7636
-14946.2
-7370.54
-16111.3
-13597
-24925
-13877.2
-26316.7
-5662.38
-12775.8
-5301.87
-13736.3
-7681.27
-6043.15
-11124.8
-4504.47
-7394.7
-1794.41
-9572.79
-1224.29
-7635.18
-9140.39
-11765.7
-5473.64
-6415.6
-10860.5
-10460.8
-7184.07
-804.835
-747.978
-547.044
-631.918
-2567.96
-1877.86
-2325.78
-2116.16
1076.9
588.742
-2725.24
-3025.76
-10667.8
-10120.2
-7691.35
-6640.32
-4078.71
-3437.59
-5774.73
-4765.05
-5448.29
-3978.45
-18282.2
-16008.4
-7973.5
-6788.69
-6052.53
-4608.78
-5003.78
-3217.05
-5335.98
-2321.26
-5599.66
-9212.53
-4907.7
-9329.79
-8316.99
-10393.3
-9336.15
-12718.4
-992.594
-722.622
-773.999
-659.826
-3637.51
-2602.33
-2980.82
-1680.9
-1401.72
-1676.08
-8337.45
-8956.19
-4692.81
-4242.01
-9333.46
-9662.13
-14339
-16475.6
359.002
3920.97
-7363.63
-7135.55
-7057.61
-5566.95
-1074.44
-973.227
-1168.08
-963.786
-1743.79
-1188.66
-615.111
-522.438
-8142.31
-3790.49
-6920.61
-3179.7
-9297.6
-3681.73
-11027.3
-3902.23
-5396.38
-10257.8
-6993.36
-10739.9
-8665.79
-11654.7
-11373.8
-12635.2
-5245.92
-9246.56
-4750.91
-9208.66
-8170.82
-10833.9
-9389.19
-11218.5
-13154.2
-13279.9
-14445.7
-13810.9
-5613.12
-9088.05
-6190.79
-9309.68
-514.651
-2240.13
-7917.11
-5431.9
-494.55
-2319.34
-7844.52
-5202.02
-817.212
-2246.94
-7899.31
-5600.11
-1004.27
-2166.79
-7778.45
-5522.38
-1076.21
-1181.09
-1011.15
-1095.16
-2097.19
-2145.74
-1442.17
-1565.91
-8398.14
-7727.38
-3934.67
-3969.38
-3745.05
-5214.48
-4052.83
-299.553
-1841.4
-1308.84
-1399.25
-3600.82
2658.49
-890.017
-13777.3
-11729.9
-10635.6
-9281.08
-5838.7
-1187.85
-1071.53
-1237.08
-1542.7
-2125.95
-1669.22
-2015.05
-2679.07
-8077.48
-7971.39
-4401.12
-5699.61
-5038.77
-6704.48
-3168.78
-5096.79
-4852.6
-5294.17
-1164.81
-1534.45
-2946.1
-4400.74
-9664.09
-7942.56
-7634.6
-5611.22
-6690.69
-4780.73
-5963.77
-4352.07
-4415.87
-4864.49
-8357.17
-8257.23
-11256.5
-7269.1
-10419.6
-11187.2
-13049.9
-10986.3
-9474.91
-5894.29
-6977.03
-6970.34
-12254
-5975.12
-13051.9
-6016.86
-13935
-10841.1
-14694.8
-11061.1
-10313.4
-4581.95
-10949
-4629.4
-7818.29
-6169.82
-6309.39
-8644.31
-6685.24
-7104.17
-6182.89
-8886.96
-8074.95
-5741.59
-6383.19
-9287.38
-9091.73
-5684.3
-7262.5
-9001.83
-864.515
-744.814
-1114.06
-817.73
-1423.68
-1692.54
-1639.19
-1199.2
-7791.83
-6822.17
-3813.49
-1698.48
-7874.65
-7474.25
-6136.97
-5519.9
-5132.66
-4401.18
-1861.49
-1915.4
-4194.04
-1891.9
-8640.58
-7406.87
-4894.78
-3882.21
-3810.22
-2402.59
-2821.88
-1237.9
-4367.55
-106.783
-236.725
-108.93
-37.5584
23.8037
-222.554
-139.526
-49.9485
13.2983
-639.718
-283.849
-11.6375
178.844
-577.9
-334.918
-46.7248
116.365
-1047.04
-420.369
30.1283
409.564
-1032.81
-507.777
-173.477
17.2245
-710.327
-342.368
-168.737
-54.2634
-544.826
-225.047
-20.5566
117.293
-1565
-550.566
-130.061
146.784
-1861.79
-530.865
-95.159
525.423
-1502.48
-529.317
-86.6198
275.605
-1690.92
-477.841
-123.561
478.316
-1462.65
-507.055
-40.0693
301.285
-1929.18
-546.841
-76.6688
611.037
-1324.5
-429.006
45.6964
434.198
-1909.02
-527.451
-48.9626
660.628
-219.735
-89.351
-13.603
73.9114
-189.197
-68.1181
-28.161
70.5469
-566.878
-233.617
-21.1349
191.48
-475.92
-179.586
-74.1985
182.469
-1119.51
-390.359
-9.45575
413.306
-1017.79
-340.158
-85.1291
377.796
-1244.3
-462.121
-87.4471
305.968
-940.189
-322.5
-114.799
421.324
-1704.14
-477.459
-107.896
664.236
-136.611
-51.067
-15.6072
46.033
-62.8722
-35.77
-16.3546
0.0320346
-411.548
-147.643
-64.2327
109.761
-207.817
-106.99
-57.8977
-8.26679
-730.725
-245.619
-97.6957
198.111
-423.023
-187.558
-90.8054
-7.12258
-1111.6
-353.856
-123.844
300.027
-740.7
-276.48
-120.737
-1.86233
-1464.58
-424.919
-193.367
255.656
-999.295
-334.18
-159.483
-22.4362
-1958.63
-550.734
-206.63
318.718
-990.657
-310.352
-130.824
13.2832
-1887.54
-540.572
-236.089
264.965
-1095.69
-345.877
-153.464
-10.0622
-1933.4
-504.548
-150.839
411.299
-887.74
-249.96
-81.2853
61.5575
-1834.87
-432.313
-88.9582
464.713
-786.256
-177.99
-28.5284
102.147
-6.31684
-10.6612
-7.70571
-5.1633
-3.91694
-28.1517
-20.8548
-13.2988
-8.6114
-6.4794
-12.2781
-24.3101
-17.6039
-11.7326
-8.83743
-60.9237
-46.17
-29.4561
-18.9944
-14.2511
-6.55348
-29.2303
-21.5907
-14.4043
-10.8218
-79.6043
-60.7303
-38.5012
-24.6728
-18.4468
-38.6612
-30.4431
-19.3782
-12.3962
-9.26395
-4.96002
-12.9534
-9.53671
-6.32755
-4.79654
-17.8007
-31.7966
-22.3189
-14.6586
-11.046
5.16026
-10.6534
-8.37483
-5.63701
-4.27912
-47.8786
-43.9236
-28.3686
-18.2477
-13.6503
-1.10727
-12.2957
-8.97189
-5.95983
-4.52233
11.8318
-15.1644
-12.5422
-8.51031
-6.46403
8.68239
-8.53576
-7.0259
-4.74385
-3.60075
41.5973
-1.27212
-4.95804
-3.88008
-3.09987
27.8083
0.587569
-1.96448
-1.64133
-1.33924
-0.137445
-7.48262
-5.73753
-3.91309
-2.98662
-6.28745
-7.38691
-5.03069
-3.34664
-2.54023
-8.99593
-21.1496
-15.1288
-10.1158
-7.65258
-22.045
-21.0246
-13.7812
-9.05401
-6.84428
9.06711
-22.8216
-17.6495
-11.9911
-9.09692
-36.5954
-30.7421
-19.6697
-12.8503
-9.6534
-44.1071
-36.5848
-23.071
-14.8341
-11.0701
-41.0618
-25.833
-15.7203
-10.1278
-7.54125
-31.0093
-21.208
-12.9098
-8.19944
-6.11568
-60.1729
-202.484
-106.587
-516.325
-47.4902
-711.914
243.731
-640.554
513.42
-91.315
-765.501
-1258.66
116.37
-55.8312
-1157.91
-1812.71
-1444.85
-2057.73
-591.541
-139.792
-31.65
-7.00229
-1.75663
-157.628
-86.153
-12.0348
-3.30643
-1.47774
-1828.12
-428.389
-97.2346
-21.3962
-5.37378
-378.729
-115.377
-29.5498
-6.3685
-1.7505
-3082.43
-721.832
-164.183
-36.244
-9.08322
-655.576
-204.729
-51.211
-12.0784
-3.06455
-4157.21
-972.957
-221.994
-49.1417
-12.3303
-824.826
-267.393
-67.9226
-16.052
-4.04336
-5239.79
-1232.69
-282.723
-62.8567
-15.8334
-985.863
-336.018
-86.5404
-20.562
-5.2175
-6294
-1520.43
-352.846
-79.0253
-19.982
-1560.83
-476.08
-117.346
-26.9152
-6.73348
-5832.25
-1404.03
-324.547
-72.4138
-18.2588
-1223.44
-402.409
-102.034
-23.8678
-5.98334
-6514.95
-1576.73
-366.612
-82.2307
-20.8216
-1760.42
-521.541
-126.848
-28.7116
-7.16676
-6810.21
-1634.94
-380.75
-85.3686
-21.6038
-1823.69
-542.648
-133.244
-28.0328
-7.40491
-524.166
-6834.72
-6047.93
-2204.11
-1567.95
-933.297
-3688.02
-2688.45
-6392.2
-5978.13
-3042.36
-2294.59
-394.342
-603.471
-1034.42
-1676.4
-2505.07
-3439.9
-284.465
-610.469
-1268.1
-2203.53
-3309.37
-4426.23
-300.012
-138.278
-514.741
-352.369
-946.897
-786.71
-1577.49
-1466.19
-2261.22
-2177.27
-2950.78
-2669.1
-4243.69
-4771.29
-5165.68
-7656.22
-8547.03
-9401.91
-5346.87
-5855.34
-5803.53
-5276.77
-4504.4
-3929.62
-356.262
-301.827
-229.253
-143.131
-48.6511
-544.843
-461.247
-350.085
-218.449
-74.2311
-933.221
-789.36
-598.645
-373.343
-126.833
-1510.77
-1276.37
-966.99
-602.661
-204.681
-2253.77
-1900.74
-1437.97
-895.495
-304.065
-3086.13
-2595.49
-1959.67
-1219.44
-414.099
-256.864
-217.516
-165.14
-103.064
-35.0227
-550.876
-466.097
-353.583
-220.549
-74.9294
-1143.49
-966.729
-732.85
-456.92
-155.209
-1984.8
-1676.01
-1269.31
-790.965
-268.632
-2975.77
-2508.44
-1897.26
-1181.55
-401.252
-3969.66
-3337.87
-2520.42
-1568.92
-532.956
-271.152
-229.785
-174.579
-109.021
-37.0664
-124.981
-105.919
-80.4735
-50.2543
-17.0865
-464.921
-393.736
-298.945
-186.588
-63.4173
-318.31
-269.62
-204.742
-127.803
-43.4392
-854.661
-723.252
-548.736
-342.312
-116.31
-710.217
-601.153
-456.185
-284.608
-96.7062
-1422.32
-1202.22
-911.138
-567.949
-192.901
-1322.11
-1117.6
-847.015
-527.942
-179.299
-2035.37
-1717.25
-1299.37
-809.103
-274.682
-1959.81
-1653.3
-1250.61
-778.427
-264.185
-2647.8
-2226.66
-1680.38
-1044.86
-354.584
-2394.68
-2012.76
-1517.47
-942.419
-319.524
-3789.12
-3172.96
-2389.71
-1486.96
-505.652
-4223.87
-3512.42
-2637.94
-1645.24
-562.546
-4500.22
-3699.56
-2772.09
-1744.28
-606.83
-6462.46
-5217.18
-3920.23
-2536.91
-932.884
-6818.09
-5358.39
-4065.65
-2775.01
-1148.22
-7179.52
-5539.44
-4236.56
-3007.77
-1349.29
-4776.49
-4002.24
-3016.36
-1877.93
-638.725
-5199.4
-4335.34
-3261.13
-2033.59
-694.073
-5104.45
-4226.45
-3174.22
-1988.81
-684.637
-4564.1
-3738.6
-2807.31
-1780.49
-626.57
-3768.43
-3029.33
-2281.72
-1489.11
-554.192
-3168.62
-2496.8
-1888.66
-1273.06
-503.625
-415.118
-667.295
-1145.58
-1841.04
-2732.01
-3718.27
-313.525
-699.708
-1421.57
-2422.21
-3581.29
-4714.93
-319.92
-155.28
-576.237
-406.09
-1055.68
-885.5
-1743.16
-1622.91
-2503.51
-2450
-3265.45
-3081.92
-4534.92
-5043.54
-5416.71
-7810.76
-8616.08
-9423.36
-5594.77
-6006.28
-5835.08
-5209.59
-4405.56
-3884.18
-375.141
-317.938
-241.583
-150.876
-51.2929
-602.886
-510.819
-388.058
-242.323
-82.3781
-1034.46
-875.979
-665.128
-415.207
-141.132
-1661.09
-1405.4
-1066.36
-665.412
-226.147
-2461.78
-2080.14
-1576.81
-983.52
-334.247
-3343.06
-2818.91
-2134.05
-1330.77
-452.424
-283.275
-240.046
-182.376
-113.889
-38.7153
-632.006
-535.366
-406.628
-253.89
-86.3046
-1283.24
-1086.29
-824.609
-514.697
-174.941
-2184.46
-1847.39
-1401.3
-874.311
-297.144
-3225.05
-2723.48
-2063.73
-1287.12
-437.457
-4236.11
-3569.59
-2701.29
-1684.42
-572.726
-289.22
-245.189
-186.356
-116.413
-39.5868
-140.408
-119.06
-90.5117
-56.5513
-19.2332
-520.807
-441.424
-335.444
-209.518
-71.2395
-367.097
-311.219
-236.553
-147.775
-50.2494
-953.669
-807.906
-613.66
-383.17
-130.26
-800.109
-677.992
-515.098
-321.673
-109.36
-1573.56
-1332.02
-1011.08
-631.049
-214.484
-1465.35
-1240.72
-941.955
-587.954
-199.84
-2257.39
-1908.66
-1447.44
-902.946
-306.851
-2209.88
-1869.05
-1417.65
-884.36
-300.513
-2938.22
-2479.21
-1877.46
-1170.64
-397.864
-2774.95
-2342.67
-1774.32
-1106.03
-375.763
-4061.27
-3412.99
-2579.74
-1609.71
-548.214
-4483.97
-3747.39
-2828.33
-1770.63
-606.583
-4748.9
-3932.22
-2966.84
-1876.19
-654.219
-6640.11
-5403.09
-4091.42
-2663.2
-982.267
-6920.6
-5477.25
-4184.67
-2871.5
-1191.39
-7217.37
-5584.97
-4283.75
-3047.79
-1368.21
-5008.24
-4206.79
-3178.45
-1982.73
-675.084
-5345.31
-4468.88
-3370.73
-2106.51
-719.834
-5143.48
-4270.18
-3216.29
-2020.19
-696.537
-4514.21
-3706.68
-2791.84
-1776.39
-626.84
-3688.32
-2969.22
-2242.95
-1470.06
-549.795
-3131.34
-2468.11
-1869.54
-1263.34
-501.316
-19760.6
-14397.3
-5167.66
-4168.3
-3175.25
-4456.41
-4085.43
-12989.4
-14622.7
-11570.5
-13353.7
-7945.71
-11316.6
-6083.08
-6348.14
-4641.58
-20463.2
-11328.7
-4380.39
-7166.92
-9324.12
-6427.16
-7131.95
-5402.83
-3329.6
-4825.31
-5340.71
-5480.36
-19385.1
-13007.6
-12839.5
-9208.02
-9215.07
-9734.11
-4658.52
-5900.18
-7283.97
-14193.2
-12406.9
-10554.6
-9900.33
-8611.99
-9426.11
-6510.23
-5105.48
-3959.98
-2049.53
-4591.57
-3835.86
-2895.53
-1814.12
-622.279
-3738.27
-3145.26
-2378.53
-1483.7
-504.965
-2844.8
-2389.99
-1804.02
-1123.21
-381.729
-4005.08
-3375.03
-2553
-1590.75
-540.511
-3653.81
-3065.89
-2314.16
-1442.62
-491.09
-9575.12
-8031.38
-6686.05
-6090.51
-6073.47
-10950.7
-9510.64
-7751.73
-6227.06
-3703.48
-8359.65
-5895.82
-4468.2
-3135.57
-1367.99
-9970.82
-8282.59
-6528.64
-4812.88
-2330.71
-6731.07
-5410.94
-4003.35
-2507.51
-875.177
-8896.46
-6647.69
-4872.28
-3103.83
-1138.63
-5277.88
-4315.3
-3210.87
-2000.91
-687.903
-5486.7
-4472.44
-3322.59
-2070.92
-712.929
-4061.65
-3341.75
-2491.51
-1548.78
-529.314
-14484.3
-11675.1
-9801.05
-8755.11
-8073.43
-8834.9
-6792.79
-5191.61
-3587.33
-1582.5
-3792.23
-3101.27
-2316.01
-1454.49
-506.715
-6227.81
-5120.58
-3851.49
-2441.82
-861.958
-7879.22
-6392.21
-4843.38
-3172.73
-1203.51
-5565.15
-4571.22
-3449.8
-2204.68
-786.341
-6250.69
-5177.09
-3910.64
-2478.99
-868.518
-4766.87
-3959.66
-2982.16
-1872.28
-645.823
-2945.48
-2446.18
-1833.53
-1140.38
-388.746
-4301.47
-3598.15
-2710.17
-1688.42
-575.125
-4684.6
-3866.15
-2893.11
-1806.05
-620.44
-4833.76
-4011.34
-3015.39
-1888.16
-649.718
-13742.2
-11619.4
-9918.37
-9021.71
-8005.66
-9200.27
-6701.97
-5243.84
-3935.09
-2008.6
-9938.65
-8148.76
-6419.16
-4816.25
-2334.67
-7399.3
-5751.66
-4417.75
-3045.36
-1242.1
-7816.63
-6367.42
-4840.82
-3181.44
-1202.27
-7818.98
-6065.15
-4653.91
-3200.59
-1292.91
-4080.25
-3375.24
-2545.23
-1610.24
-563.018
-5249.45
-4386.37
-3306.09
-2064.7
-705.293
-6364.91
-5254.36
-3959.04
-2506.07
-876.831
-485.725
-1382.32
-2196.76
-2965.16
-3694.87
-4376.46
-2620.39
-7040.92
-6692.69
-2566.31
-8953.62
-7507.87
-8957.83
-9916.72
-2375.03
-1533.78
-5516.33
-3194.57
-10501.2
-7441.59
226.959
-2126.54
-5870.55
-5502.65
-2067.69
-7621.23
-6128.62
-7517.01
-8464.2
-1966.43
-906.685
-4738.77
-1672.16
-8709.7
-4462.78
1537.51
-1554.75
-4468.44
-4176.52
-1516.77
-6026.59
-3689.02
-6103.73
-6761.84
-1484.1
-825.338
-3359.29
-1738.16
-6960.67
-1787.51
1675.33
-1146.39
-3462.36
-3304.03
-1159.61
-4618.46
-2253.71
-5076.91
-5975.22
-1117.99
-866.837
-2461.6
-1756.15
-6131.74
-376.192
1259.29
-927.573
-2939.24
-2850.49
-979.215
-3716.76
-1871.8
-4558.34
-5801.94
-886.013
-943.752
-1773.49
-1686.65
-5353.71
-158.711
135.672
-820.061
-2626.05
-2620.08
-887.89
-3444.75
-2130.05
-4225.94
-5548.5
-685.272
-740.584
-1468.28
-1651.96
-5267.09
-954.001
-469.942
-1389.56
-3399.63
-4950.58
-1913.96
-5508.57
-9622.8
-7261.67
-10466.9
-1016.11
-723.993
-3899.47
-2424.85
-1194.26
-9253.72
-4850.52
-1295.68
-3176.98
-4360.29
-1667.03
-5105.27
-8721.51
-6571.26
-8938.52
-1042
-644.412
-4048.09
-2303.87
-374.233
-9101.78
-3672.48
-1144.84
-2816.66
-3589.85
-1345.98
-4669.17
-7843
-5618.34
-7904.48
-930.753
-741.257
-3484.9
-2410.09
-588.144
-7402.41
-3528.8
-996.731
-2554.15
-2998.28
-1100.58
-4380.55
-7166.44
-5029.2
-7214.96
-860.592
-753.191
-3246.05
-2520.6
-385.227
-6904.46
-3578.96
-905.94
-2308.89
-2676.07
-968.035
-3997.76
-6610.91
-4609.07
-6881.91
-810.648
-810.981
-2968.1
-2734.7
-523.675
-6658.5
-3663.92
-844.359
-2068.11
-2489.37
-893.833
-3701.08
-6537.74
-4294.16
-6668.88
-843.563
-938.389
-2653.23
-2604.9
-774.353
-6822.16
-4058.48
6003.29
7579.92
15723.8
22976.8
23388
40309.8
17973.1
45774.2
14650.8
32168.4
21932.2
33292.1
19662
25832.6
7426.96
8419.45
14720.7
16848.3
19021.9
18865.1
14983.4
18517.8
22085.3
19820.5
4945.97
3745.5
6070.77
4091.27
12427.2
9894.12
21279.3
15381.5
16432.6
17099.1
18242.8
17380.5
6379.36
4988.04
38983.5
52189.7
25176.4
30913.5
52459.9
68064.7
27131.6
31061.4
28883.5
40806.4
25193.7
33403.6
14734.7
23763.7
2660.88
911.431
2731.41
995.202
8487.61
3422.08
11696
4299.37
8302.43
3185.81
8841.65
2833.22
15100.3
4802.4
19487.2
6572.11
23892.9
11850.5
21872.4
12964.9
22424.8
14500.8
19721.6
14841.3
17177.5
10200.9
17172.5
8739.53
22566.4
14437.9
22615.6
14574.8
20829.5
15717.5
21081.7
15791.6
18557.9
11789.4
19223.1
12082.3
17537.7
7586.34
8093.14
9846.08
17611.2
8290.29
7052.91
9966.62
18578.3
7555.53
9180.41
9926.36
19502
7740.15
9989.48
10375
3434.69
3708.32
1177.22
2247.84
10659.9
11275.2
4106.41
7272.89
13705.1
15240
6586.14
11192.7
12276.1
1106.89
13533.5
16660.2
9026.9
768.057
7468.35
12150.3
19558.2
13519
9838.73
11930.7
10407.7
8962.95
14052.4
3211.1
2624.53
1812.81
1823.1
9946.45
8406.9
6013.88
5705.75
12393.5
10523.2
7785.63
6990.2
5863.49
7454.28
12091.3
12520.8
14003.8
12746.5
15785.5
13757.8
10640.3
8953.66
9045.02
9551.5
11933.4
9462.99
10861.5
7949.25
9391.75
6510.29
10916.7
7170.87
10230
4830.69
8774.07
9535.28
12549.6
16399.2
13803
20112.4
6975.62
7773.45
9057.02
2957.73
7816.01
15084.7
7413.17
16164.6
13664.1
24822.1
13901.8
26334.1
5900.71
12947
5358.81
13789.5
8146.06
6185.64
11317.5
4506.02
8400.84
1733
9877.66
818.028
7821.53
9247.44
11854.1
5490.38
6465.01
10896.1
10485.3
7196.81
2062.28
1837.41
1676.51
1521.99
1410.26
1278.23
6902.27
5681.27
4930.43
4433.83
3577.94
3109.65
8452.54
7322.32
6777.7
5308.19
4357.69
4128.88
6575.26
5845.77
5712.35
10944.1
8372.46
7073
10281.7
7649.73
6230.29
10800.5
8573.84
7476.97
6671.19
4427.97
3469.05
15748.2
13691.5
11897.6
10096.3
8446.59
7048
8938.85
6990.91
5613.13
7482.8
5439.95
4206.88
7657.85
4287.09
2436.31
10308.9
13992.6
8139.29
10548.8
11093.9
16317.8
9901.53
14441.6
79.8876
636.175
-422.237
58.8336
2958.42
3425.22
1223.49
735.222
659.323
2371.88
9357.85
13676.9
6629.11
3626.52
9846.93
9777.57
15164.9
16705.6
-614.275
-4118.48
7534.98
7108.62
7145.21
5514.47
895.125
496.21
558.467
227.392
2040.23
217.601
-297.864
-844.182
9208.83
2402.55
6218.23
1627.41
8994.29
2748.66
10895.2
3519.64
8776.76
11893.7
8124
11608.1
14094.8
14947
13460.7
14163.7
5634.2
9432.73
6499.82
9365.97
8626.62
11188.5
9521.88
11310.9
14029
13917.8
14693.9
13982.5
5692.42
9135.15
6199.3
9311.69
-104.904
1397.22
7481.64
4762.69
-675.411
980.599
6931.14
4212.74
353.482
1652.59
7655.38
5189.22
812.38
1926.95
7704.37
5380.3
-657.111
-754.198
156.258
12.872
-2901.21
-2941.58
-204.461
-356.804
-590.973
-1992.68
1717.27
1067.59
-10262
-9542.98
-5580.62
-4273.56
-414.178
-10468.9
-10809.7
-4336.79
-6404.91
-804.923
10201.8
8030.41
7183.37
6790.5
4197.92
-784.849
-728.705
-50.9002
50.3427
-2562.65
-2543.15
-63.244
190.384
-2606.4
-3185.5
735.421
1078.07
-5137.91
-2349.93
-8195.43
-5167.15
-3667.34
-2803.23
-4139.09
-3617.48
500.736
1473.52
3754.3
2372.21
1028.67
-1039.09
1022.77
-763.609
1770.46
420.702
2215.58
2543.38
5236.21
4799.87
9960.78
6018.57
8104.99
8180.64
12308.6
9984.46
7909.95
4680.44
3959.59
3947.14
11742.1
5195.22
12918.2
5826.49
13729
10189.9
14652.9
10920.5
9589.87
3818.99
10743.8
4425.49
6327.47
5066.62
4985.79
7400.63
4116.37
4661.81
4271.05
6863.33
7293.68
5019.19
5629.82
8493.26
8846.63
5456.5
7018.05
8773.96
-753.922
-793.805
-893.573
-44.3015
-293.785
-326.065
-2855.09
-3065.52
-3076.43
-186.309
-838.673
-850.541
-3636.49
-4087.25
-4207.7
625.162
-825.937
-1126.27
-1273.11
-1091.8
-790.29
-3835.54
-3933.84
-3677.3
-3143.87
-3572.34
-3522
-3889.95
-4211.41
-4121.7
1407.41
-364.297
-501.914
3445.23
1955.94
1027.55
-1046.31
-2199.05
-2815.32
-999.005
-2483.08
-3131.55
-431.935
-2048.08
-2515.5
2406.39
-518.991
-868.299
-23.2815
-36.1768
-48.0238
-72.8207
-253.03
-144.243
-121.247
-118.183
-8.27628
-80.0628
-188.171
-294.414
-437.682
-285.561
-323.955
-352.143
229.123
-32.4451
-268.566
-522.07
-163.806
-235.842
-306.674
-351.597
-39.3776