/*--------------------------------*- C++ -*----------------------------------*\
| =========                 |                                                 |
| \\      /  F ield         | OpenFOAM: The Open Source CFD Toolbox           |
|  \\    /   O peration     | Version:  2306                                  |
|   \\  /    A nd           | Website:  www.openfoam.com                      |
|    \\/     M anipulation  |                                                 |
\*---------------------------------------------------------------------------*/
FoamFile
{
    version     2.0;
    format      ascii;
    arch        "LSB;label=32;scalar=64";
    class       volVectorField;
    location    "1";
    object      flux;
}
// * * * * * * * * * * * * * * * * * * * * * * * * * * * * * * * * * * * * * //

dimensions      [0 1 -1 1 0 0 0];

internalField   nonuniform List<vector> 
5712
(
(-0.305234 0.52118 0.337363)
(-0.39031 0.300785 1.10496)
(-0.717463 0.838597 0.26954)
(-1.05394 0.553536 1.1318)
(-1.07864 0.91851 0.200047)
(-1.85694 0.683237 1.16296)
(-0.822137 1.4268 0.310822)
(-2.08622 1.79075 1.76789)
(-0.66467 1.88304 0.381082)
(-1.45886 2.32695 2.42389)
(-0.993991 1.22494 0.381286)
(-1.51536 1.07069 1.78031)
(-0.887127 0.776885 0.370754)
(-1.17144 0.620656 1.48599)
(-0.391757 0.392382 0.385693)
(-0.450161 0.266133 1.33251)
(-0.696893 0.855107 0.232992)
(-0.800663 0.856572 0.148328)
(-0.888813 0.744838 0.625004)
(-0.882767 0.865151 0.375376)
(-0.693883 1.15329 0.225275)
(-0.851248 1.00898 0.122342)
(-1.01644 1.35149 0.672134)
(-0.909543 1.07218 0.333456)
(-0.253232 0.362231 0.260777)
(-0.195469 0.255455 0.195556)
(-0.313982 0.205591 0.833101)
(-0.21574 0.154334 0.602659)
(-0.590455 0.427202 0.197451)
(-0.482366 0.34614 0.148711)
(-0.999583 0.263666 0.818516)
(-0.7356 0.21718 0.610274)
(-0.771392 0.814046 0.464904)
(-0.806636 0.828393 0.198854)
(-0.870075 0.81426 0.405253)
(-0.848955 0.660241 0.183623)
(-0.32099 0.614475 0.191786)
(-0.243364 0.496616 0.440996)
(-1.80345 0.49385 1.55675)
(-2.41536 0.566504 0.41641)
(-1.17157 0.793082 0.559017)
(-1.43682 0.795316 0.179903)
(-2.39698 1.69449 1.97938)
(-3.1166 1.75961 0.528944)
(-1.24383 1.17786 0.512572)
(-1.42521 1.22172 0.165351)
(-1.35128 0.701962 1.12755)
(-1.90868 0.592211 0.346317)
(-1.18806 0.747542 0.579397)
(-1.56981 0.529492 0.196457)
(-0.703122 0.348078 0.994341)
(-1.1254 0.362467 0.313402)
(-0.140131 0.299438 0.33034)
(-0.0477598 0.455169 0.163816)
(-0.146528 0.157688 0.442464)
(-0.0533231 0.200397 0.175988)
(-0.421569 0.407779 0.358497)
(-0.171945 0.601632 0.1928)
(-0.571354 0.246277 0.429395)
(-0.212663 0.298507 0.168804)
(-0.416869 0.441964 0.442038)
(-0.158532 0.804343 0.254484)
(-0.429977 0.310434 0.369893)
(-0.139094 0.532881 0.165038)
(-0.725783 0.116497 0.527268)
(-0.232818 0.313583 0.192872)
(-0.935269 0.0973304 0.178977)
(-0.318127 0.23292 0.0634833)
(-1.09425 0.745697 0.602751)
(-0.553293 0.928731 0.427931)
(-1.00353 0.787142 0.362759)
(-0.594209 0.935484 0.269052)
(-1.00783 0.903285 0.634433)
(-0.653213 0.905363 0.523755)
(-0.889254 0.937558 0.341034)
(-0.658407 0.904584 0.293493)
(-0.80664 0.683139 0.358889)
(-0.482765 0.936368 0.251508)
(-0.810751 0.686685 0.527813)
(-0.422971 0.917357 0.367837)
(-1.03781 0.783457 0.231266)
(-0.654893 0.935513 0.170857)
(-1.04176 0.787917 0.10748)
(-0.658952 0.93708 0.0882324)
(-0.941597 0.956126 0.212318)
(-0.692156 0.899722 0.18212)
(-0.953553 0.958654 0.0983323)
(-0.692519 0.894705 0.0961307)
(-0.870018 0.63678 0.231509)
(-0.550584 0.944635 0.155788)
(-0.901234 0.618177 0.110391)
(-0.562649 0.950851 0.0710062)
(-0.832572 0.814322 0.331597)
(-0.369201 0.992978 0.183872)
(-0.394927 1.02792 0.2577)
(-0.4922 1.48956 0.304024)
(-0.834472 0.864381 0.470303)
(-0.40623 1.16553 0.337251)
(-0.350859 1.02016 0.386743)
(-0.507394 1.64119 0.530836)
(-0.88097 0.771682 0.21207)
(-0.364993 0.865927 0.102954)
(-0.442717 1.03105 0.14722)
(-0.490909 1.4216 0.17039)
(-0.925386 0.764701 0.0992675)
(-0.373068 0.807591 0.0426394)
(-0.479068 1.04296 0.0588842)
(-0.510237 1.40789 0.061084)
(-0.180952 0.278506 0.462257)
(-0.198821 0.375322 0.821688)
(-0.0621065 0.719789 0.308559)
(-0.127854 1.30157 0.91146)
(-0.522853 0.33699 0.532723)
(-0.554523 0.392147 0.799417)
(-0.209245 0.907899 0.375292)
(-0.387875 1.44855 0.944834)
(-0.669932 0.406173 0.59308)
(-0.734955 0.413158 0.71531)
(-0.343197 1.1243 0.474036)
(-0.59157 1.56599 0.906856)
(-0.488669 1.04096 0.617191)
(-0.00799251 1.07051 0.682512)
(-0.588853 0.924572 0.511868)
(-0.764907 0.934924 0.505951)
(-0.436938 1.45126 0.542971)
(0.00753174 1.06549 0.686501)
(-0.27166 1.04194 0.690004)
(-0.546653 0.936731 0.728111)
(-0.902148 0.842312 0.774279)
(-0.690168 1.6895 1.0949)
(-0.450504 0.976673 0.559835)
(-0.563321 0.995484 0.473871)
(-0.515568 0.924347 0.441433)
(-0.465475 0.976924 0.501815)
(-0.740533 1.88641 0.757585)
(-0.167335 0.101992 0.961759)
(-0.132833 0.124052 0.868418)
(-0.0976182 0.226274 1.10871)
(-0.0955187 0.555181 1.08113)
(-0.464696 0.142148 0.880607)
(-0.374857 0.165548 0.823777)
(-0.294155 0.301178 1.08849)
(-0.276062 0.600171 1.0531)
(-0.571067 0.204393 0.758692)
(-0.454422 0.174269 0.748444)
(-0.383871 0.39603 1.01204)
(-0.338266 0.658436 1.00757)
(-0.217497 1.02645 0.509756)
(-0.286302 0.96554 0.411529)
(-0.465982 0.95391 0.526936)
(-0.492331 0.889193 0.476934)
(-0.610256 0.864984 0.601871)
(-0.549682 0.74443 0.566506)
(-0.69482 0.67516 0.671708)
(-0.587337 0.574533 0.668729)
(-0.513844 0.506277 0.914365)
(-0.432448 0.744125 0.961811)
(-0.379212 0.948275 0.471768)
(-0.372708 0.876419 0.427225)
(-0.508794 0.987177 0.491683)
(-0.362618 0.933168 0.509245)
(-0.478506 0.893244 0.535926)
(-0.311829 0.807303 0.607749)
(-0.429315 0.77494 0.617049)
(-0.265681 0.678678 0.730849)
(-0.530293 0.532579 0.799099)
(-0.333502 0.732473 0.965835)
(-0.428544 0.996709 0.401644)
(-0.15431 1.10932 0.317029)
(-0.37902 0.999791 0.266928)
(-0.382988 1.14607 0.330458)
(-0.521307 0.93603 0.504681)
(-0.647364 0.951299 0.594696)
(-0.577855 0.920798 0.341413)
(-0.815977 0.970063 0.527387)
(-0.310918 0.939407 0.240804)
(-0.318315 0.94938 0.305233)
(-0.387008 0.93005 0.369918)
(-0.0716779 0.918022 0.30885)
(-0.341866 0.994676 0.0680947)
(-0.629905 1.15479 0.214091)
(-0.325929 0.993247 0.0260358)
(-0.682604 1.15739 0.0706649)
(-0.574152 0.897874 0.16891)
(-1.01342 0.988277 0.345857)
(-0.584198 0.89338 0.053383)
(-1.08369 0.98942 0.112587)
(-0.269893 0.943178 0.0425432)
(-0.557407 0.947219 0.191278)
(-0.248954 0.945175 0.0148095)
(-0.601296 0.94856 0.0621283)
(-0.379501 0.81572 0.244861)
(-0.262101 0.772945 0.245861)
(-0.542833 0.534337 0.281326)
(-0.196776 0.605733 0.183396)
(-0.373751 0.812652 0.396192)
(-0.0215631 0.756029 0.324676)
(-0.464862 0.528487 0.467461)
(0.0141243 0.61826 0.335992)
(-0.37048 0.8252 0.0666318)
(-0.411664 0.768451 0.133023)
(-0.571208 0.54505 0.139666)
(-0.254401 0.603693 0.0846409)
(-0.311711 0.828815 0.0699685)
(-0.491635 0.760424 0.0894881)
(-0.510907 0.561918 0.0990862)
(-0.33784 0.602546 0.0749626)
(-0.0990135 0.077044 0.703199)
(-0.0829487 0.0464811 0.432386)
(-0.0674757 0.0294267 0.138916)
(-0.0723771 0.0414746 0.79049)
(-0.0632414 0.0244072 0.460431)
(-0.0526462 0.0220215 0.151886)
(-0.286231 0.10922 0.675623)
(-0.213031 0.0555735 0.427867)
(-0.168769 0.0381477 0.146915)
(-0.193558 0.0787775 0.774104)
(-0.139898 0.0573806 0.460045)
(-0.111038 0.045124 0.151792)
(-0.329782 0.117695 0.620099)
(-0.259397 0.0821772 0.393789)
(-0.228226 0.0757981 0.130827)
(-0.229484 0.135457 0.749618)
(-0.16672 0.0998595 0.459281)
(-0.148402 0.0841615 0.154237)
(-0.233692 0.854941 0.289137)
(-0.183639 0.702194 0.17117)
(-0.170674 0.605968 0.0513082)
(-0.412556 0.809033 0.398643)
(-0.274219 0.686313 0.267024)
(-0.213979 0.602317 0.0917938)
(-0.415116 0.595146 0.496279)
(-0.268581 0.503985 0.341683)
(-0.197741 0.452902 0.117919)
(-0.430669 0.428536 0.587786)
(-0.30322 0.331097 0.386159)
(-0.246654 0.287619 0.129248)
(-0.305267 0.209215 0.737744)
(-0.17826 0.135029 0.467896)
(-0.127042 0.105848 0.162942)
(-0.589612 0.788773 0.330734)
(-0.457988 0.661016 0.201068)
(-0.361961 0.569831 0.0689567)
(-0.403088 0.839489 0.393155)
(-0.300679 0.691031 0.286842)
(-0.221422 0.590461 0.109527)
(-0.384938 0.645892 0.484732)
(-0.264864 0.494439 0.35759)
(-0.183598 0.412272 0.133197)
(-0.345516 0.437279 0.600609)
(-0.221029 0.307127 0.424295)
(-0.145534 0.252908 0.153688)
(-0.391479 0.220509 0.748579)
(-0.200268 0.132524 0.477518)
(-0.0966687 0.0976025 0.171425)
(-0.448682 1.14216 0.0106793)
(-0.599115 1.09907 0.0819191)
(-0.362307 1.26077 0.113464)
(-0.459087 1.1124 0.166169)
(-0.503159 1.30343 0.0961819)
(-0.726831 1.1147 0.108254)
(-0.456218 1.59788 0.238544)
(-0.648922 1.19064 0.224444)
(-0.00039507 0.863083 0.023633)
(-0.0279438 0.852547 0.0381321)
(0.0202868 0.857874 0.0252031)
(-0.00600966 0.778277 0.0396478)
(-0.122029 0.971991 0.0175518)
(-0.132323 0.892249 0.0527113)
(-0.0551566 0.963233 0.0324289)
(-0.0313258 0.804677 0.0693424)
(-0.0377518 0.952404 0.120615)
(-0.104437 0.932483 0.059834)
(-0.394249 0.874893 0.156881)
(-0.564895 0.921804 0.0922738)
(-0.266111 1.13149 0.0807517)
(-0.157307 1.03246 0.138326)
(-0.432082 1.18393 0.133159)
(-0.429372 1.20969 0.0168475)
(-0.683417 1.30748 0.260966)
(-0.753354 1.36136 0.0479652)
(0.0200845 0.972395 -0.101284)
(0.172215 1.01649 -0.00123063)
(-0.321334 0.87131 0.0566783)
(-0.300095 0.849786 0.0294069)
(-0.299249 1.04195 0.029414)
(-0.229233 1.07429 0.0148441)
(-0.0411016 0.647192 0.362503)
(-0.0213641 0.345323 0.15144)
(-0.029963 0.611065 0.0977243)
(-0.0141495 0.382375 0.0558694)
(-0.081158 0.659653 0.36863)
(-0.0069065 0.34831 0.156368)
(0.00664208 0.612052 0.123516)
(0.0276058 0.379891 0.0703588)
(-0.371975 0.653461 0.364996)
(-0.0884642 0.349493 0.166778)
(-0.2609 0.614206 0.17454)
(-0.0669511 0.396342 0.111145)
(-0.372088 0.601191 0.11898)
(-0.110598 0.41483 0.0777504)
(-0.446561 0.610392 0.0399151)
(-0.136758 0.41026 0.039092)
(-0.385562 0.85948 0.521525)
(-0.490589 0.715787 0.456793)
(-0.352412 0.867546 0.239487)
(-0.475822 0.722742 0.245295)
(-0.631102 0.964196 0.591668)
(-0.64539 0.855777 0.549217)
(-0.59796 0.989133 0.286916)
(-0.606945 0.856735 0.28543)
(-0.233001 0.836486 0.199346)
(-0.364082 0.587812 0.202336)
(-0.271029 0.859924 0.425401)
(-0.363327 0.573706 0.346729)
(-0.370983 0.89608 0.134012)
(-0.45664 0.723976 0.141391)
(-0.40561 0.911853 0.0623584)
(-0.458164 0.717063 0.0774842)
(-0.621567 1.02564 0.168769)
(-0.593749 0.855634 0.167099)
(-0.648662 1.03165 0.0804203)
(-0.593212 0.847013 0.0898515)
(-0.23313 0.836166 0.107041)
(-0.350507 0.592877 0.118468)
(-0.250398 0.836991 0.0474215)
(-0.353718 0.589535 0.0690286)
(0.0128735 0.533977 0.166165)
(-0.0356583 0.349314 0.102755)
(-0.263901 0.454383 0.161865)
(-0.13915 0.294481 0.0999496)
(0.0311135 0.490351 0.268205)
(-0.0211834 0.311387 0.137975)
(-0.244571 0.432349 0.247326)
(-0.122029 0.274621 0.141337)
(-0.00376485 0.551267 0.0908369)
(-0.045674 0.371555 0.0699001)
(-0.268227 0.463781 0.0978207)
(-0.151689 0.303637 0.0611983)
(-0.0181146 0.55341 0.0387628)
(-0.0536597 0.383862 0.0366392)
(-0.266547 0.462548 0.0569978)
(-0.154778 0.305336 0.0322283)
(0.0258801 0.0999981 0.416475)
(0.0293389 0.0515581 0.259928)
(-0.00565649 0.184556 0.190177)
(0.00136911 0.104492 0.174737)
(0.109212 0.105825 0.416781)
(0.107175 0.0618515 0.271824)
(0.0102218 0.195688 0.190414)
(0.0188708 0.122128 0.174312)
(0.0245125 0.128679 0.440245)
(0.0729571 0.0915274 0.295143)
(-0.0514942 0.215324 0.19321)
(-0.0239154 0.155386 0.172073)
(0.397197 0.498752 0.573096)
(0.400882 0.796724 0.653973)
(0.208843 0.355463 0.494129)
(0.160343 0.338965 0.308986)
(0.0251628 0.246033 0.152362)
(0.434124 0.768135 0.619792)
(0.418056 0.517325 0.537198)
(0.156621 0.294551 0.46682)
(0.229001 0.29581 0.35788)
(0.0408486 0.201854 0.197593)
(-0.440197 0.815829 0.57752)
(-0.332419 0.624976 0.492078)
(-0.273379 0.48535 0.369927)
(-0.234862 0.371358 0.26336)
(-0.119276 0.239806 0.141275)
(0.0267086 0.0269909 0.193278)
(0.0220301 0.0178878 0.152268)
(0.00344591 0.0642832 0.165026)
(0.00170184 0.0478747 0.16733)
(0.086112 0.0362254 0.208556)
(0.0748061 0.0223436 0.157522)
(0.0115694 0.0840703 0.170633)
(0.0063645 0.0650196 0.169638)
(0.0878093 0.060986 0.233941)
(0.0946002 0.0412363 0.172698)
(-0.0102725 0.115904 0.178993)
(-0.0137188 0.0911595 0.175117)
(0.198419 0.759709 0.466606)
(0.0731981 0.696413 0.334524)
(0.298113 0.494723 0.403004)
(0.165462 0.443325 0.27743)
(0.124169 0.309311 0.292909)
(0.0821301 0.286839 0.226984)
(0.140172 0.257183 0.249285)
(0.109241 0.212985 0.198756)
(0.00165551 0.169645 0.170872)
(-0.0215254 0.133112 0.179963)
(-0.161741 0.725043 0.389344)
(-0.0997295 0.625356 0.340497)
(-0.0513915 0.542234 0.32064)
(0.0265208 0.443829 0.275464)
(-0.0383939 0.408458 0.252306)
(0.0225665 0.332002 0.220363)
(-0.0485477 0.304628 0.199429)
(-0.0031277 0.247648 0.185269)
(-0.0443473 0.207028 0.132163)
(-0.0461042 0.184411 0.170362)
(-0.204883 0.569388 0.285248)
(-0.178975 0.427062 0.194931)
(-0.38494 0.580536 0.186032)
(-0.228117 0.42605 0.116688)
(-0.332257 0.709359 0.395935)
(-0.318074 0.560995 0.30579)
(-0.500588 0.717542 0.269368)
(-0.395181 0.566182 0.221343)
(-0.281692 0.468028 0.140408)
(-0.158555 0.347873 0.0855551)
(-0.139021 0.4487 0.207272)
(-0.130296 0.341761 0.149868)
(-0.452993 0.585483 0.179581)
(-0.19767 0.424684 0.0863617)
(-0.496011 0.582926 0.0571938)
(-0.220649 0.424956 0.0316762)
(-0.557534 0.719915 0.201412)
(-0.404323 0.583968 0.148052)
(-0.593415 0.714998 0.0611334)
(-0.43527 0.584313 0.0513501)
(-0.343007 0.479727 0.145543)
(-0.128717 0.346446 0.0639565)
(-0.382315 0.479034 0.0500786)
(-0.148581 0.350827 0.0246974)
(-0.195409 0.354828 0.102532)
(-0.139788 0.271555 0.0883733)
(-0.118302 0.242991 0.0750522)
(-0.168585 0.228839 0.103706)
(-0.120888 0.338398 0.14585)
(-0.125829 0.260683 0.127817)
(-0.0986629 0.231544 0.0961832)
(-0.155407 0.213752 0.131257)
(-0.22717 0.371364 0.104777)
(-0.135374 0.278892 0.062245)
(-0.133907 0.249661 0.0549383)
(-0.193893 0.241801 0.0710007)
(-0.279541 0.379397 0.0255879)
(-0.146294 0.278815 0.0107404)
(-0.177454 0.258974 -0.00259963)
(-0.198658 0.244987 0.00824959)
(0.0189189 0.0398542 0.0999105)
(0.0178929 0.03313 0.0421375)
(0.019165 0.0263611 0.0124238)
(0.00182493 0.169844 0.106722)
(0.00632717 0.0863111 0.0290567)
(0.00671331 0.0678281 0.00782557)
(0.0688694 0.039182 0.106641)
(0.0656136 0.0366875 0.0477719)
(0.0623977 0.0312802 0.0146811)
(0.00803726 0.188344 0.109762)
(0.0182119 0.103995 0.031341)
(0.0174039 0.0846381 0.00884909)
(0.0914368 0.0562597 0.110948)
(0.0902815 0.0592851 0.0528528)
(0.0869454 0.0580499 0.014327)
(-0.00909637 0.215282 0.113408)
(0.0182088 0.133542 0.0338029)
(0.0228809 0.1137 0.00837492)
(0.0303982 0.601122 0.216463)
(0.0249341 0.510776 0.118882)
(0.0133758 0.455015 0.0316892)
(0.101195 0.384931 0.171266)
(0.0979822 0.336918 0.0880848)
(0.0870069 0.310038 0.0237625)
(0.0782953 0.262554 0.145357)
(0.0824574 0.233575 0.0724965)
(0.0780279 0.219879 0.0208511)
(0.0980714 0.208027 0.124827)
(0.0948519 0.182635 0.0595653)
(0.0878127 0.168285 0.0144471)
(-0.0266523 0.253791 0.117771)
(0.00810135 0.169038 0.0349584)
(0.0103786 0.145038 0.00636481)
(-0.143395 0.52337 0.259943)
(-0.0812528 0.43233 0.139745)
(-0.0450602 0.376738 0.0420801)
(0.0139736 0.36187 0.207548)
(0.0438109 0.299012 0.106407)
(0.0586289 0.265039 0.0312726)
(0.0170112 0.278641 0.167387)
(0.0510115 0.229355 0.0841636)
(0.0644018 0.204046 0.0251861)
(0.00823328 0.246795 0.138128)
(0.0422233 0.196892 0.0617336)
(0.0508828 0.170409 0.0164599)
(-0.0506014 0.315959 0.128527)
(0.0103163 0.192631 0.0337198)
(0.017029 0.16217 0.00863377)
(0.000659846 0.182109 0.053749)
(0.000632678 0.101705 0.017909)
(0.000594575 0.0587107 0.0044115)
(0.000859748 0.0345136 -0.0015638)
(0.00740177 0.204043 0.022369)
(0.00335306 0.11015 0.00772985)
(0.00231209 0.0618721 0.00225113)
(0.00175855 0.0356016 -7.40531e-05)
(-3.50233e-05 0.18318 0.0562988)
(0.00100846 0.101825 0.0191896)
(0.00289794 0.0589077 0.00541533)
(0.00369456 0.0346869 -0.000480621)
(0.0114979 0.208306 0.0277061)
(0.0057144 0.112534 0.0101286)
(0.00591394 0.0635772 0.00454574)
(0.00497097 0.0365862 0.00191438)
(-0.00689077 0.183271 0.0594044)
(-0.000592281 0.101255 0.020711)
(0.0042536 0.0601931 0.0073593)
(0.00693858 0.0356695 0.00145372)
(0.00258457 0.212799 0.0448223)
(0.00354799 0.114183 0.0177629)
(0.00430717 0.0663172 0.00538915)
(0.00413679 0.0382382 0.000876736)
(-0.00105395 0.228365 0.0305434)
(0.00173972 0.12036 0.0141775)
(0.00139794 0.0661537 0.00254471)
(0.00122089 0.0376654 -0.00128372)
(-0.00751045 0.233902 0.0238151)
(-0.00129549 0.1243 0.0131205)
(0.00161954 0.0671713 0.00545897)
(0.00253396 0.0381812 0.00237665)
(-0.0281431 0.194659 0.0461314)
(-0.0068949 0.107795 0.0178124)
(-0.000652711 0.063225 0.00440313)
(0.0026759 0.0367922 -0.00248394)
(-0.0410124 0.163656 0.0379372)
(-0.010129 0.0963746 0.0143443)
(-0.00291548 0.0587061 0.00551347)
(0.00544127 0.0349469 -0.0019127)
(-0.0188521 0.172419 0.0565832)
(-0.00358844 0.0983903 0.0198782)
(0.00163577 0.0597385 0.00640158)
(0.00547351 0.0353227 -0.000622835)
(-0.0333795 0.152041 0.0494838)
(-0.007788 0.0912895 0.0172674)
(-0.00314863 0.0566061 0.00656375)
(0.00440523 0.0339194 -0.00300295)
(-0.0301167 0.2094 0.0340924)
(-0.0078132 0.114737 0.0147337)
(0.000334245 0.0652935 0.00437712)
(0.00426681 0.0375414 -0.000996537)
(-0.0460016 0.170536 0.0270608)
(-0.0118527 0.0999844 0.0113599)
(-0.00314328 0.0599128 0.00506902)
(0.00662388 0.0356403 0.000129823)
(-0.0328392 0.217217 0.0215135)
(-0.00931637 0.119234 0.0109391)
(0.000508533 0.0668553 0.00494392)
(0.00548694 0.0384376 0.00231955)
(-0.0492215 0.173436 0.0161445)
(-0.0132145 0.102457 0.00814617)
(-0.00361616 0.0610863 0.00443116)
(0.00686226 0.0364278 0.00202382)
(0.000393551 0.13942 0.0669079)
(0.000378056 0.087957 0.0216978)
(0.00057957 0.0541025 0.00519772)
(0.00115877 0.0329397 -0.00356274)
(0.00148056 0.0967777 0.0632584)
(0.000756147 0.0721738 0.0197743)
(0.000240696 0.048528 0.00707487)
(0.00102438 0.0308209 -0.00462687)
(0.00259374 0.140167 0.0665307)
(0.00153938 0.0878159 0.0217439)
(0.00217756 0.054232 0.00542606)
(0.00336468 0.0329895 -0.00344166)
(0.00582171 0.10076 0.0613591)
(0.00265657 0.0732811 0.0191551)
(0.00101059 0.0489061 0.00710489)
(0.00285372 0.0310205 -0.00455638)
(-0.0108873 0.144069 0.0648162)
(-0.00225871 0.0882571 0.0214096)
(0.00159698 0.0551883 0.00700006)
(0.00536551 0.0336272 -0.00179609)
(-0.00381924 0.11223 0.0575721)
(0.000208588 0.076627 0.0179845)
(0.000770514 0.0502332 0.00790801)
(0.00491007 0.0317499 -0.0033093)
(-0.000984682 0.143651 0.0562224)
(0.00221559 0.0869232 0.0192235)
(0.00338549 0.0548942 0.00827818)
(0.00576388 0.0344977 0.00153421)
(0.00104341 0.122457 0.062934)
(0.00208769 0.0792009 0.0197629)
(0.000515469 0.0521458 0.0102788)
(0.00490349 0.0322061 -0.00367826)
(-0.0280518 0.136532 0.0488095)
(-0.0060655 0.0852695 0.0166006)
(-0.00221528 0.054213 0.00774591)
(0.00661142 0.033442 -0.000358162)
(0.00266627 0.0585657 0.047475)
(0.00114306 0.059989 0.0136595)
(0.000557346 0.0395646 0.00587176)
(0.000886087 0.0119436 -0.00261931)
(0.00461338 0.021164 0.0182986)
(0.00172155 0.053569 0.00490897)
(0.000719868 0.0362311 0.00162033)
(0.000477573 0.01192 -0.000266384)
(0.00573001 0.0657854 0.0497654)
(0.00269544 0.0624359 0.0145575)
(0.000995913 0.0405915 0.00619955)
(0.00214756 0.012572 -0.00245133)
(0.011976 0.0289958 0.0193836)
(0.00458999 0.056194 0.00530771)
(0.00173573 0.0370878 0.00188846)
(0.0011882 0.0121938 -4.80999e-05)
(0.00424152 0.0798298 0.0517816)
(0.00290252 0.0668695 0.0155177)
(0.00117884 0.0419746 0.00702127)
(0.00342581 0.0125867 -0.0019511)
(0.0157293 0.0429935 0.0202935)
(0.00645309 0.060754 0.00575167)
(0.00256683 0.0382823 0.00218292)
(0.00182004 0.0123664 0.000185491)
(-0.000677986 0.0978272 0.0472081)
(0.00246927 0.0723847 0.0144716)
(0.0013675 0.0444058 0.0076118)
(0.0047821 0.0136607 -0.0012531)
(0.0135478 0.0592458 0.0201256)
(0.00691564 0.0660829 0.00589168)
(0.00291343 0.0401271 0.00274455)
(0.00221106 0.0129401 0.000589215)
(-0.0130081 0.111343 0.043256)
(-0.00020228 0.0777475 0.0139812)
(-0.00069788 0.0474675 0.00755793)
(0.00407015 0.0156656 -0.000267554)
(0.0059609 0.0669095 0.0183641)
(0.00577262 0.0705747 0.00603466)
(0.00232284 0.0418914 0.00338173)
(0.00208028 0.0134579 0.00107229)
(-0.0319746 0.120804 0.0280758)
(-0.00453592 0.0840281 0.00983694)
(-0.00179064 0.0487887 0.00412739)
(0.00439493 0.0151721 -0.000169507)
(-0.00956341 0.0651398 0.0161977)
(0.000659475 0.0762953 0.00669585)
(0.000799785 0.0452249 0.00325001)
(0.00154123 0.0143917 0.00141247)
(-0.0237877 0.117085 0.0338471)
(-0.00196989 0.0813211 0.0109358)
(-0.00136719 0.0478899 0.00523227)
(0.00405019 0.01512 -0.000373233)
(-0.00420098 0.0619744 0.0172288)
(0.0029463 0.0737209 0.00641895)
(0.00160405 0.0435413 0.00339358)
(0.00188433 0.013859 0.00129412)
(-0.0389285 0.122618 0.0210456)
(-0.00715549 0.085826 0.00840137)
(-0.00249137 0.04904 0.00363442)
(0.00477075 0.0143095 0.000415756)
(-0.0138657 0.0653203 0.0131372)
(-0.00127843 0.0783003 0.0061536)
(0.000222504 0.0461209 0.00293475)
(0.00134885 0.0144737 0.00149194)
(-0.0436793 0.125064 0.0128777)
(-0.00937703 0.087494 0.00643804)
(-0.00326892 0.0500401 0.00347582)
(0.00459752 0.0145226 0.00164724)
(-0.0172624 0.0687726 0.009311)
(-0.00299566 0.0800871 0.00520639)
(-0.00040968 0.0471513 0.00282599)
(0.00109806 0.0147636 0.00170546)
(0.000376063 0.0219953 -9.32958e-05)
(0.000135784 0.0132309 6.05967e-05)
(5.31703e-05 0.00735988 4.43285e-05)
(2.28224e-05 0.00361512 2.30066e-05)
(1.24073e-05 0.00107665 1.3362e-05)
(0.000498558 0.021895 1.20616e-05)
(0.000200083 0.0132238 4.03113e-05)
(8.36234e-05 0.00736956 2.47225e-05)
(3.706e-05 0.00362144 1.24268e-05)
(2.04443e-05 0.00107856 7.15645e-06)
(0.000898193 0.0222943 0.000172194)
(0.000311354 0.013374 0.00016878)
(0.000120906 0.00741678 9.07894e-05)
(5.18866e-05 0.00363707 4.40108e-05)
(2.82344e-05 0.0010824 2.50936e-05)
(0.0010836 0.0223507 0.000303201)
(0.000434906 0.0134051 0.000163707)
(0.000182609 0.00744353 7.88348e-05)
(8.13383e-05 0.0036507 3.70846e-05)
(4.50287e-05 0.00108631 2.09627e-05)
(0.00118521 0.0229596 0.000421451)
(0.000386547 0.0135703 0.000288601)
(0.000147898 0.00748817 0.000145223)
(6.33041e-05 0.00366415 6.92249e-05)
(3.44493e-05 0.00108949 3.93168e-05)
(0.00141197 0.0229674 0.00101485)
(0.000565127 0.0136069 0.000529065)
(0.000237734 0.00752675 0.00024837)
(0.000106224 0.00368407 0.000116067)
(5.89382e-05 0.00109523 6.56001e-05)
(0.000697693 0.0231661 0.0010953)
(0.000278745 0.0138204 0.000587692)
(0.000117483 0.00763202 0.00028)
(5.2784e-05 0.00372907 0.000132235)
(2.94354e-05 0.00110752 7.52723e-05)
(0.000515602 0.0236494 0.00156015)
(0.000168954 0.0141045 0.000755625)
(6.44227e-05 0.00777216 0.00035042)
(2.77908e-05 0.00378995 0.000164796)
(1.52758e-05 0.00112431 9.40233e-05)
(0.00111934 0.0236055 0.000580177)
(0.00038109 0.0137995 0.000400564)
(0.000149154 0.00758693 0.00019999)
(6.47224e-05 0.00370455 9.54841e-05)
(3.54849e-05 0.00110036 5.44741e-05)
(0.00053526 0.0249477 0.000629072)
(0.000158987 0.0140496 0.000377891)
(5.87374e-05 0.00765291 0.000183671)
(2.49308e-05 0.00372579 8.72333e-05)
(1.35491e-05 0.0011056 4.97226e-05)
(0.00121806 0.0236995 0.000450675)
(0.000440621 0.0137341 0.000329589)
(0.000179544 0.00754055 0.000164407)
(7.91943e-05 0.00368286 7.81117e-05)
(4.36714e-05 0.00109428 4.4356e-05)
(0.000519177 0.0249048 0.000819566)
(0.000159956 0.0139533 0.00041648)
(6.06577e-05 0.00760196 0.000190863)
(2.59617e-05 0.0037037 8.85442e-05)
(1.41421e-05 0.00109953 4.98934e-05)
(0.000860765 0.0237709 0.000707273)
(0.000251819 0.0139837 0.000457534)
(9.1353e-05 0.00767995 0.000228063)
(3.848e-05 0.00374472 0.000109392)
(2.08919e-05 0.00111138 6.26611e-05)
(0.000506039 0.0253997 0.000824661)
(0.00013965 0.0142269 0.00043929)
(5.03121e-05 0.00773624 0.000209659)
(2.12646e-05 0.00376155 9.93933e-05)
(1.15789e-05 0.00111542 5.67726e-05)
(0.000785543 0.0243311 0.00123019)
(0.000176444 0.0142622 0.000603174)
(5.20788e-05 0.00781134 0.000280998)
(1.96216e-05 0.00380119 0.000132475)
(1.01493e-05 0.00112692 7.56968e-05)
(0.000434954 0.0259898 0.00103122)
(8.53669e-05 0.0144759 0.000496833)
(2.32418e-05 0.00784919 0.000231066)
(8.42461e-06 0.00380987 0.000109035)
(4.28956e-06 0.00112873 6.23694e-05)
(0.000321054 0.0224228 -0.000249193)
(0.000106805 0.0132779 3.05127e-05)
(4.04935e-05 0.00735583 3.26058e-05)
(1.71119e-05 0.00360985 1.76274e-05)
(9.23019e-06 0.00107494 1.03253e-05)
(0.000244019 0.0233057 -0.000146493)
(8.64273e-05 0.01334 8.78447e-06)
(3.39399e-05 0.00735545 1.23309e-05)
(1.45414e-05 0.00360678 6.73842e-06)
(7.87821e-06 0.0010739 3.94605e-06)
(0.000796803 0.0227169 -7.46924e-05)
(0.00026404 0.0133927 0.000100228)
(0.00010166 0.00739942 6.17206e-05)
(4.34506e-05 0.00362627 3.059e-05)
(2.35848e-05 0.00107919 1.75078e-05)
(0.000636363 0.0235541 -8.26511e-05)
(0.000223975 0.0134294 3.43712e-05)
(8.88991e-05 0.00738948 2.28678e-05)
(3.84055e-05 0.00361959 1.13835e-05)
(2.09133e-05 0.00107722 6.50314e-06)
(0.00109806 0.0233358 0.000126905)
(0.000325342 0.0135825 0.000173745)
(0.000120666 0.00746652 9.18762e-05)
(5.09571e-05 0.00365142 4.4075e-05)
(2.75656e-05 0.00108573 2.50127e-05)
(0.000856333 0.0241004 0.000167298)
(0.000301897 0.0135925 0.000119871)
(0.000121423 0.00744896 5.70824e-05)
(5.29362e-05 0.0036421 2.63996e-05)
(2.89901e-05 0.00108308 1.47763e-05)
(0.000976815 0.0242152 0.000599287)
(0.00034715 0.0137865 0.00033958)
(0.000141718 0.0075324 0.000158237)
(6.23652e-05 0.0036756 7.30905e-05)
(3.42977e-05 0.001092 4.091e-05)
(0.000583552 0.024746 0.000421022)
(0.000223886 0.013765 0.000222909)
(9.31122e-05 0.00751452 0.000100715)
(4.11685e-05 0.00366753 4.60115e-05)
(2.26847e-05 0.00108977 2.56333e-05)
(0.000491728 0.0250138 0.00106287)
(0.000184827 0.0138902 0.000459368)
(7.71521e-05 0.00756869 0.000200479)
(3.41918e-05 0.00368947 9.08651e-05)
(1.88501e-05 0.00109563 5.06257e-05)
(-0.00551791 0.555319 0.100868)
(-0.0137796 0.867186 0.229197)
(-0.00700376 0.571818 0.10521)
(-0.0319205 0.870213 0.228782)
(0.00555583 0.593041 0.118688)
(-0.0363935 0.869277 0.228938)
(0.0376788 0.598102 0.139825)
(-0.0197423 0.857713 0.236842)
(0.0677089 0.555261 0.142522)
(0.0285856 0.801826 0.240007)
(-0.0154208 0.490507 0.060559)
(-0.0417981 0.557167 0.0862353)
(0.0468242 0.498926 0.0957739)
(0.0418289 0.598991 0.144013)
(-0.0449891 0.489201 0.0330492)
(-0.0790932 0.545121 0.0433178)
(-0.0639628 0.496387 0.0105728)
(-0.0951148 0.548942 0.0135749)
(-0.0346624 0.499856 0.513356)
(-0.008277 0.0862842 0.123934)
(-0.0019048 0.0186422 0.028776)
(-0.000429959 0.00423319 0.00652852)
(-0.000110716 0.000757521 0.00165612)
(-0.00877814 0.557864 0.141201)
(-0.00486146 0.159948 0.0383372)
(-0.000662722 0.0392135 0.010293)
(-0.000189047 0.00899976 0.00237395)
(-8.89032e-05 0.00160942 0.000528253)
(-0.106335 0.498833 0.503467)
(-0.0252398 0.0847357 0.120715)
(-0.00582869 0.0182078 0.0280306)
(-0.00130934 0.00412426 0.00631255)
(-0.000337723 0.000736639 0.00161433)
(-0.0200302 0.555361 0.144024)
(-0.00606956 0.157646 0.0426735)
(-0.00158569 0.0385692 0.0106285)
(-0.000347565 0.00882102 0.00250543)
(-9.98836e-05 0.00156542 0.000634422)
(-0.17703 0.492443 0.473812)
(-0.0420994 0.0827578 0.113061)
(-0.00975492 0.0176845 0.0262044)
(-0.00220052 0.00399748 0.00590312)
(-0.000566875 0.000713551 0.00151368)
(-0.0332373 0.547045 0.139759)
(-0.0106572 0.154214 0.041146)
(-0.00273741 0.0376278 0.0102166)
(-0.000666951 0.00859205 0.00239628)
(-0.000175491 0.00152468 0.000609144)
(-0.233955 0.474592 0.425448)
(-0.0558182 0.078272 0.10089)
(-0.0130021 0.0166284 0.0233673)
(-0.00294607 0.00375935 0.00527044)
(-0.000761036 0.000671848 0.00135464)
(-0.0389154 0.526993 0.134699)
(-0.0135179 0.147682 0.0388224)
(-0.00357546 0.0360013 0.00952349)
(-0.000878154 0.00822595 0.00221578)
(-0.000229965 0.00146064 0.000560826)
(-0.286903 0.436806 0.348164)
(-0.0691745 0.0703039 0.0823556)
(-0.0162482 0.0149445 0.0191296)
(-0.00370625 0.00339824 0.00433008)
(-0.000963274 0.000609922 0.00111696)
(-0.0437079 0.486454 0.125272)
(-0.0166851 0.136883 0.0352)
(-0.00452303 0.0335527 0.00855613)
(-0.00112142 0.00770441 0.00198124)
(-0.000296709 0.00137224 0.000500782)
(-0.328889 0.369854 0.158287)
(-0.0817952 0.0620256 0.0392701)
(-0.019528 0.0136646 0.00931353)
(-0.00450678 0.00317093 0.00213215)
(-0.00118131 0.000575371 0.000553418)
(-0.0764538 0.379035 0.0605336)
(-0.0243828 0.112634 0.0172832)
(-0.00622401 0.0284813 0.00417736)
(-0.00147881 0.0066788 0.000952436)
(-0.000385257 0.00120527 0.000240512)
(-0.310451 0.390977 0.240114)
(-0.0769823 0.0644814 0.0586699)
(-0.0182812 0.0140219 0.0137842)
(-0.00419546 0.00322839 0.00313458)
(-0.00109422 0.000583119 0.000810593)
(-0.0554656 0.412141 0.089322)
(-0.0200369 0.122097 0.0251628)
(-0.00532822 0.0305432 0.00612359)
(-0.00129854 0.00709074 0.00141802)
(-0.000339581 0.00127067 0.000361062)
(-0.336221 0.36052 0.0917456)
(-0.0836868 0.0610545 0.0229531)
(-0.0200268 0.0135178 0.00547479)
(-0.00463362 0.0031467 0.00126096)
(-0.00121798 0.000571963 0.000328408)
(-0.0890743 0.365818 0.0338747)
(-0.0271768 0.107994 0.010038)
(-0.00680635 0.0273486 0.00241797)
(-0.00159078 0.00644082 0.000551338)
(-0.000412756 0.00116691 0.000140449)
(-0.349067 0.357496 0.0313229)
(-0.0861234 0.0602927 0.00780573)
(-0.020641 0.0133389 0.00186815)
(-0.00477578 0.00310708 0.00043204)
(-0.00125547 0.000564474 0.000112648)
(-0.0935442 0.363876 0.0129195)
(-0.028519 0.106608 0.00354687)
(-0.00719046 0.0269298 0.000802187)
(-0.00156393 0.006359 0.000224366)
(-0.000428081 0.00115083 4.56096e-05)
(-0.0258188 1.46041 -0.025014)
(-0.317361 2.11449 0.000147578)
(-0.289938 2.05699 0.194955)
(-0.103295 1.40887 -0.0513725)
(0.0703877 0.80654 0.0319115)
(0.1191 0.853056 0.0341907)
(0.329927 1.1939 0.099417)
(0.485231 1.25756 0.127907)
(0.0668167 0.950815 0.0809664)
(0.352234 1.07675 0.152872)
(-0.0910656 1.53208 0.132163)
(0.0928375 2.11828 0.204138)
(0.0979756 1.94623 0.162927)
(0.206918 2.60474 0.201926)
(0.40254 1.26097 0.0835198)
(0.575381 1.44929 0.112166)
(0.609553 0.979149 0.0873789)