/*--------------------------------*- C++ -*----------------------------------*\
| =========                 |                                                 |
| \\      /  F ield         | OpenFOAM: The Open Source CFD Toolbox           |
|  \\    /   O peration     | Version:  2306                                  |
|   \\  /    A nd           | Website:  www.openfoam.com                      |
|    \\/     M anipulation  |                                                 |
\*---------------------------------------------------------------------------*/
FoamFile
{
    version     2.0;
    format      ascii;
    arch        "LSB;label=32;scalar=64";
    class       volScalarField;
    location    "1";
    object      gradTz;
}
// * * * * * * * * * * * * * * * * * * * * * * * * * * * * * * * * * * * * * //

dimensions      [0 -1 0 1 0 0 0];

internalField   nonuniform List<scalar> 
5712
(
8434.09
27623.9
6738.51
28295.1
5001.18
29074.1
7770.55
44197.2
9527.06
60597.4
9532.16
44507.7
9268.85
37149.8
9642.32
33312.8
5824.79
3708.2
15625.1
9384.39
5631.87
3058.55
16803.3
8336.41
6519.42
4888.9
20827.5
15066.5
4936.28
3717.77
20462.9
15256.8
11622.6
4971.34
10131.3
4590.57
4794.64
11024.9
38918.7
10410.2
13975.4
4497.57
49484.5
13223.6
12814.3
4133.77
28188.7
8657.93
14484.9
4911.41
24858.5
7835.05
8258.51
4095.4
11061.6
4399.7
8962.43
4820
10734.9
4220.09
11050.9
6362.1
9247.32
4125.94
13181.7
4821.79
4474.42
1587.08
15068.8
10698.3
9068.97
6726.31
15860.8
13093.9
8525.84
7337.34
8972.23
6287.71
13195.3
9195.92
5781.66
4271.42
2686.99
2205.81
5307.96
4553.01
2458.31
2403.27
5787.73
3894.7
2759.77
1775.16
8289.93
4596.79
6442.51
7600.6
11757.6
8431.28
9668.57
13270.9
5301.74
2573.85
3680.49
4259.75
2481.69
1065.98
1472.1
1527.1
11556.4
20542.2
7713.98
22786.5
13318.1
19985.4
9382.29
23620.9
14827
17882.8
11850.9
22671.4
15429.8
17062.8
12796.7
12648.8
13574.3
17162.5
17250.1
18202.8
19357
27372.5
13995.9
11846.8
11035.8
12545.4
18939.6
24044
21710.5
27717.8
27028.3
22015.2
20594.4
27212.3
26327.5
18967.3
18711.1
25301.1
25189.3
12743.9
10288.2
13173.4
11923.3
15046.8
14162.7
16792.7
16718.2
22859.1
24045.3
11794.2
10680.6
12292.1
12731.1
13398.2
15193.7
15426.2
18271.2
19977.5
24145.9
10041.1
7925.73
6673.2
8261.46
12617
14867.4
8535.33
13184.7
6020.1
7630.84
9247.95
7721.24
1702.37
5352.28
650.894
1766.62
4222.75
8646.42
1334.58
2814.67
1063.58
4781.96
370.237
1553.21
6121.51
6146.51
7033.14
4584.9
9904.81
8116.91
11686.5
8399.8
1665.8
3325.57
3491.66
2116.02
1749.21
2237.2
2477.15
1874.07
17580
10809.7
3472.89
19762.2
11510.8
3797.16
16890.6
10696.7
3672.87
19352.6
11501.1
3794.79
15502.5
9844.71
3270.68
18740.4
11482
3855.93
7228.43
4279.25
1282.71
9966.09
6675.6
2294.85
12407
8542.08
2947.98
14694.6
9653.97
3231.2
18443.6
11697.4
4073.56
8268.35
5026.71
1723.92
9828.87
7171.05
2738.18
12118.3
8939.74
3329.92
15015.2
10607.4
3842.2
18714.5
11937.9
4285.62
266.983
2047.98
2836.59
4154.22
2404.55
2706.34
5963.59
5611.1
590.824
953.302
630.078
991.196
438.794
1317.78
810.721
1733.56
3015.38
1495.85
3922.02
2306.85
2018.79
3458.14
3328.97
421.189
6524.14
1199.13
-2532.1
-30.7659
1416.96
735.172
735.349
371.103
9062.57
3785.99
2443.11
1396.73
9215.74
3909.19
3087.91
1758.97
9124.89
4169.44
4363.49
2778.64
2974.51
1943.76
997.878
977.299
13038.1
11419.8
5987.17
6132.36
14791.7
13730.4
7172.91
7135.74
4983.64
5058.4
10635
8668.23
3350.31
3534.77
1558.96
1937.1
4219.23
4177.48
2010.51
2246.29
2676.03
2961.69
1185.54
1725.72
4154.13
2568.87
4046.63
2498.74
6705.13
3449.38
6183.16
3533.42
2270.92
1747.5
2445.52
1529.96
969.071
915.98
1424.95
805.708
10411.9
6498.2
4754.43
4368.42
10419.5
6795.59
4760.35
4357.8
11006.1
7378.59
4830.25
4301.83
14327.4
16349.3
12353.2
7724.64
3809.06
15494.8
13429.9
11670.5
8947.01
4939.83
14438
12302
9248.17
6584.01
3531.88
4831.95
3806.69
4125.66
4183.25
5213.89
3938.04
4265.84
4240.94
5848.51
4317.44
4474.83
4377.93
11665.2
8363.09
10075.1
6935.76
7322.72
5674.59
6232.13
4968.89
4271.8
4499.07
9733.6
8512.43
8016
6886.6
6307.65
5509.07
4985.73
4631.73
3304.09
4259.06
7131.19
4873.28
4650.8
2917.19
9898.37
7644.76
6734.19
5533.57
3510.19
2138.88
5181.81
3746.71
4489.53
2159.04
1429.85
791.905
5035.3
3701.3
1528.34
1283.75
3638.58
1598.91
1251.96
617.435
2563.31
2209.33
1876.31
2592.65
3646.26
3195.43
2404.58
3281.42
2619.43
1556.13
1373.46
1775.02
639.698
268.511
-64.9906
206.24
2497.76
1053.44
310.595
2668.04
726.418
195.639
2666.04
1194.3
367.027
2744.06
783.524
221.227
2773.7
1321.32
358.174
2835.21
845.071
209.373
5411.59
2972.04
792.229
4281.65
2202.12
594.063
3633.92
1812.41
521.279
3120.66
1489.13
361.177
2944.27
873.959
159.12
6498.58
3493.62
1052
5188.69
2660.18
781.815
4184.67
2104.09
629.652
3453.2
1543.34
411.498
3213.19
842.994
215.844
1343.72
447.724
110.287
-39.0951
559.226
193.246
56.2783
-1.85133
1407.47
479.74
135.383
-12.0155
692.652
253.216
113.643
47.8596
1485.11
517.775
183.983
36.3431
1120.56
444.073
134.729
21.9184
763.586
354.437
63.6178
-32.093
595.377
328.012
136.474
59.4162
1153.29
445.309
110.078
-62.0986
948.431
358.608
137.837
-47.8175
1414.58
496.955
160.039
-15.5709
1237.1
431.684
164.094
-75.0737
852.309
368.342
109.428
-24.9134
676.519
283.998
126.725
3.24558
537.838
273.478
123.598
57.9887
403.612
203.654
110.779
50.5954
1672.7
542.445
129.943
-89.0685
1581.46
494.357
176.872
-115.672
1663.27
543.598
135.652
-86.0414
1533.98
478.877
177.622
-113.91
1620.41
535.239
175.001
-44.9023
1439.3
449.612
197.7
-82.7324
1405.56
480.586
206.954
38.3551
1573.35
494.073
256.97
-91.9565
1220.24
415.015
193.648
-8.95404
1186.88
341.487
146.794
-65.4827
457.464
122.724
40.5083
-6.65959
1244.13
363.939
154.989
-61.2833
484.59
132.693
47.2115
-1.2025
1294.54
387.942
175.532
-48.7774
507.338
143.792
54.573
4.63728
1180.2
361.789
190.295
-31.3275
503.139
147.292
68.6137
14.7304
1081.4
349.529
188.948
-6.68886
459.102
150.866
84.5434
26.8072
701.894
245.923
103.185
-4.23769
404.943
167.396
81.2502
35.3118
846.177
273.394
130.807
-9.33083
430.721
160.474
84.8394
32.353
526.141
210.034
90.8604
10.3939
328.43
153.84
73.3688
37.2985
321.944
160.951
86.8954
41.1811
232.775
130.16
70.6497
42.6364
-2.33239
1.51492
1.10821
0.575165
0.334051
0.30154
1.00778
0.618064
0.310671
0.178911
4.30484
4.21949
2.26974
1.10027
0.627339
7.58003
4.09266
1.97087
0.927115
0.524068
10.5363
7.21503
3.63059
1.73062
0.982921
25.3713
13.2266
6.20926
2.90166
1.64
27.3825
14.6923
7
3.30586
1.88181
39.0038
18.8906
8.76051
4.11991
2.35058
14.5044
10.0141
4.99975
2.3871
1.36185
15.7268
9.44726
4.59178
2.18083
1.24307
11.2669
8.23973
4.11016
1.95279
1.1089
20.4892
10.412
4.77157
2.2136
1.24734
17.6818
11.4383
5.70158
2.73479
1.56653
20.6165
10.9823
5.24148
2.48483
1.41931
30.7547
15.0794
7.02496
3.31186
1.89242
25.7806
12.4208
5.77666
2.72587
1.55924
-6.22983
0.762818
0.815144
0.440686
0.258132
-3.66234
0.219612
0.308272
0.16846
0.0986513
-1.86731
2.50569
1.54301
0.764751
0.437694
-2.06628
0.859281
0.571695
0.284589
0.162579
3.17262
4.34362
2.2969
1.10187
0.625318
4.18246
2.99679
1.42706
0.65999
0.369408
14.9822
8.4895
3.95593
1.82726
1.02275
10.5256
5.57272
2.51788
1.15029
0.640833
26.5717
11.4842
5.01198
2.27163
1.26564
2521.69
5729.92
2630.25
5719.55
2967.19
5723.46
3495.62
5921.06
3563.04
6000.16
1513.98
2155.88
2394.35
3600.33
826.231
1082.95
264.32
339.372
12833.9
3098.35
719.4
163.213
41.403
3530.03
958.431
257.324
59.3487
13.2063
12586.7
3017.88
700.765
157.814
40.3583
3600.59
1066.84
265.712
62.6358
15.8605
11845.3
2826.53
655.11
147.578
37.8419
3493.98
1028.65
255.414
59.9069
15.2286
10636.2
2522.25
584.183
131.761
33.8659
3367.48
970.561
238.087
55.3945
14.0206
8704.1
2058.89
478.239
108.252
27.9239
3131.81
880
213.903
49.531
12.5196
3957.17
981.752
232.838
53.3037
13.8354
1513.34
432.079
104.434
23.8109
6.0128
6002.86
1466.75
344.606
78.3645
20.2648
2233.05
629.07
153.09
35.4506
9.02655
2293.64
573.827
136.87
31.524
8.2102
846.867
250.949
60.4491
13.7835
3.51122
783.071
195.143
46.7038
10.801
2.8162
322.986
88.6717
20.0547
5.60916
1.14024
-625.349
3.68945
4873.88
-1284.31
797.786
854.769
2485.43
3197.67
2024.16
3821.79
3304.07
5103.45
4073.17
5048.15
2088
2804.14
2184.47
2594.05
1132.56
1177.65
2209.18
1479.87
697.129
-64.8657
-298.532
-348.342
117.681
14279.3
4476.8
5111.21
3742.63
475.947
565.506
3425.09
-508.086
-49.7346
-279.154
-203.229
7749.14
4309.51
2027.18
1442.62
3738.35
2288.98
842.49
1499.66
-719.281
-214.358
1047.99
914.062
8915.57
4144.9
5645.34
2902.43
3899.26
5020.66
1733.56
-246.155
1314.76
1447.28
1084.46
856.558
695.896
467.414
1111.48
844.329
619.564
409.217
166.033
603.767
489.611
358.986
219.91
74.4703
-57.9376
-48.1873
-35.6518
-21.6538
-7.23641
-265.357
-220.028
-163.078
-99.6193
-33.417
-310.067
-257.561
-191.287
-117.069
-39.3137
104.364
87.791
67.4647
43.2467
15.0828
9735.8
7654.31
5813.41
4546.69
3509.67
3535.48
2718.63
2161.44
1539.07
707.612
3794.84
2845.51
2131.09
1447.81
646.891
2728.93
1972.75
1478.52
988.846
376.855
418.376
300.645
267.819
193.841
77.8233
530.606
468.472
374.462
248.43
89.943
2778.99
2168.34
1570.65
996.208
374.38
-217.1
-25.4335
52.4545
65.9631
30.3198
-16.6654
15.6121
37.1242
38.578
17.4481
-137.204
-30.5011
30.8902
45.1846
21.1649
-190.708
-161.347
-118.242
-69.9692
-22.5745
5385.52
4409.42
3415.08
2715.33
2104.91
3232.49
2427.12
1821.25
1223.08
520.842
1747.94
1433.39
1082.11
693.891
250.421
1225.58
988.127
732.795
461.711
163.448
3044.43
2363.47
1703.5
1061.33
383.626
1963.76
1591.21
1179.38
738.205
256.28
718.433
578.901
426.668
265.573
92.1061
1293.01
1046.64
769.048
473.919
161.792
-615.841
-488.822
-346.789
-204.366
-67.0073
-188.797
-152.829
-108.601
-62.9008
-20.1417
900.383
729.636
540.261
337.555
117.348
790.648
644.444
478.594
298.563
103.067
5526.46
3759.61
2907.79
2309.04
1700.53
3055.26
2261.39
1630.8
1069.57
440.931
3994.14
3066.11
2266.91
1567.37
682.218
2248.98
1743.41
1271.46
824.492
327.795
3231.18
2545.39
1852.26
1154.92
408.965
3737.13
2690.22
1984.36
1317.4
503.607
1482.95
1192.72
873.479
538.606
184.64
-219.34
-180.799
-131.733
-78.5035
-25.7455
1121.63
905.842
671.456
421.617
147.466
-34042.9
-54830
-28352.7
-44288.2
-29888.9
-61063
-35648.3
-77648.2
-21786.2
-15142
-24035.8
-15292.2
-19894.3
-12982
-24158.2
-13086.6
-28657.4
-21999.6
-41079
-30066
-24692.4
-20061.7
-34201.6
-26084.8
-19522
-20314.1
-16181.9
-15886.8
-19391.9
-17871.9
-45687.3
-12646.6
-17818.2
-6802.51
-55204.1
-15463.5
-15903.5
-6172.65
-34445.4
-10859.5
-18254
-7096.31
-30948
-9569.97
-15270.8
-6209.31
-19075.9
-6967.41
-14562.4
-6475.22
-16544.2
-6052.49
-15042.2
-7433.79
-13231.4
-5325.72
-16609
-5926.39
-5812.42
-2060.11
-12691.3
-8879.35
-10939.6
-6973.29
-10991.7
-9067.45
-9506.26
-6929.76
-11254.5
-6782.51
-13307.1
-8818.63
-7547.26
-4728.75
-4123.95
-2691.21
-6528.05
-4630.59
-3531.3
-2622.33
-7704.76
-4454.22
-4258.47
-2315.5
-10034.5
-5153
-6818.16
-7674.04
-12871
-8735.7
-9689.17
-13064
-6761.16
-3061.51
-4101.05
-4399.53
-3620.19
-1469.84
-1876.85
-1676.22
-15413.9
-19145.5
-8808.81
-21886.9
-16025.8
-18261.2
-10132
-22346.8
-16170.3
-16541.1
-12065.9
-21179.8
-10817.7
-8652.48
-12145.9
-13592.4
-13614.1
-11648.6
-13816.5
-16399.4
-18018.9
-25561.2
-8287.85
-8903.74
-9870.46
-11899.4
-18075.1
-18412.4
-12921.8
-23512.5
-18238.6
-17074.7
-12703.7
-23168.7
-18188.9
-15095.7
-11946
-21635.2
-18054.9
-9488.43
-7580.96
-10334.9
-8421.47
-11752.6
-9772.8
-13174.2
-11432.3
-19661.4
-18185.8
-8779.69
-7771.83
-9402.68
-8704.86
-10687.4
-10583
-12951.3
-13386.1
-17875.6
-18944.9
-8256.61
-6588.56
-6082.17
-7547.64
-9702.06
-12651.2
-7349.09
-11710.3
-5803.92
-7247.13
-8271.77
-6787.4
-1592.2
-5041.7
-685.494
-1656.24
-3774.97
-8001.73
-1139.81
-2462.35
-1124.7
-4662.96
-522.818
-1559.55
-6028.96
-5883.4
-6918.35
-4332.52
-9308.43
-7331.23
-11193.7
-7563.51
-1743.14
-3268.85
-3497.89
-2044.81
-1894.32
-2272.54
-2536.9
-1879.65
-7906.06
-2718.85
-10737.5
-3650.94
-8088.18
-2848.59
-10996.9
-3932.15
-8049.2
-2810.5
-11600.1
-4429.25
-4594.82
-1373.22
-5939.67
-2232.37
-6941.65
-2655.82
-8491.62
-3175.27
-12297.3
-4844.54
-5623.98
-1821
-5863.04
-2724.44
-7258.8
-3269.18
-9601.65
-4065.32
-12932.6
-4864.84
-7587.38
-7043.78
-6048.92
-5813.71
-12673.2
-9747.55
-10500.1
-8698.66
-4875.08
-3893.68
-2041.86
-1387.16
-4710.04
-4207.83
-2011
-1933.05
-3939.31
-5497.3
-4467.59
-5881
-4371.65
-3285.26
-4389
-1357.45
-8489.26
-2735.48
1865.02
-535.913
-1784.96
-1137.57
-587.822
-298.821
-2433.33
-1437.02
-954.725
-486.322
-2683.18
-1561.73
-1511.92
-649.882
-3111.72
-1906.76
-2334
-1102.91
-1902.23
-606.259
-209.162
350.659
-6076.96
-6357.48
-4906.07
-4460
-8397.52
-8340.57
-7099.18
-5954.8
-3204.73
-3281.72
-4389.04
-4767.01
-3227.7
-2736.8
-1667.19
-1458.63
-4757.88
-3769.41
-2613.54
-2101.78
-1983.83
-1947.97
-820.89
-1014.12
-2022.32
-1173.84
-2497.54
-1486.61
-2767.88
-1755.87
-3613.34
-2258.3
-1081.92
-609.822
-1423.46
-704.73
-132.856
104.007
-629.119
-73.5986
-3261.83
-3712.25
-2291.23
-3018.97
-3307.09
-3834.34
-2350.09
-3020.14
-3636.12
-3757.5
-2510.46
-2906.98
-3805.03
-6143.32
-3013.42
-2235.92
-1741.56
-8854.98
-6123.75
-5063.53
-4402.46
-3406.92
-7153.88
-5684.27
-4379.69
-3522.04
-2160.69
-3974.42
-3631.6
-4228.35
-6246.85
-3937.09
-3416.28
-4106.82
-6013.48
-3907.03
-3472.09
-3862.32
-5644.89
-8257.68
-6311.79
-6940.97
-5181.98
-5454.57
-4169.79
-4729.34
-4012.8
-3669.3
-5239.28
-6680.1
-6209.09
-5242.84
-5028.12
-4148.14
-4081.21
-3546.85
-3829.22
-2460.45
-4442.49
-4341.17
-3124.5
-3139.04
-1523.07
-6611.8
-5668.34
-5183.02
-4012.15
-2205.09
-961.996
-3115.43
-2353.53
-3598.69
-1373.01
-833.778
-225.313
-4274.13
-2925.13
-1098.22
-763.601
-2762.43
-895.89
-585.351
-78.6727
-1601.5
-1413.98
-1312.26
-2246.79
-2324.16
-2295.06
-1770.01
-3028.19
-1871.09
-1020.14
-833.044
-1445.26
5.3554
189.915
592.311
141.289
-2514.26
-747.945
-4096.46
-366.873
-2450.01
-836.939
-4026.7
-389.789
-2113.24
-596.356
-3689.72
-275.294
-3591.74
-926.408
-2989.08
-785.387
-2741.81
-856.331
-2347.3
-499.312
-3485.91
-407.532
-4597.56
-1072.98
-3732.44
-720.432
-3199.05
-664.846
-2919.71
-455.673
-3660.54
-457.084
-613.351
-182.862
4.21919
103.097
-226.622
-65.9185
-3.19201
27.5678
-630.724
-178.276
-0.00852669
87.0791
-214.848
-47.8623
-25.2026
-6.49469
-674.145
-175.5
-22.9408
52.8014
-239.389
-8.93299
88.674
99.843
114.461
125.852
195.016
171.174
409.674
254.312
175.895
103.82
-422.401
-72.1045
93.0619
182.393
-338.316
-24.536
47.3381
164.87
-708.392
-169.176
8.87533
119.168
-563.355
-91.9613
19.0825
203.581
-126.421
36.6819
110.319
146.707
-119.398
41.8084
59.9985
110.592
193.138
154.743
115.616
74.9631
127.708
118.401
78.7655
65.0805
-890.572
-256.599
-0.244061
175.346
-1024.32
-266.194
-84.0925
207.342
-869.685
-241.294
5.48404
179.784
-993.091
-252.882
-83.0216
206.729
-832.449
-216.522
-29.5848
137.526
-920.532
-227.487
-103.862
176.892
-601.128
-132.933
-40.9416
67.0352
-975.925
-224.269
-134.031
213.825
-558.905
-96.8446
-24.152
138.592
-894.283
-191.897
-86.497
133.009
-377.535
-71.1525
-12.767
28.9396
-852.541
-178.573
-80.1787
134.307
-365.131
-67.1142
-13.4489
26.7723
-762.319
-150.228
-83.4769
127.461
-323.005
-55.0411
-9.64904
27.7575
-652.309
-122.105
-96.6776
108.634
-277.373
-42.6343
-15.698
23.6343
-520.643
-81.3495
-73.39
88.9375
-172.161
-13.5262
-16.3288
20.8777
-296.345
-12.4132
30.3221
99.5992
-26.2411
46.4921
35.4154
42.1342
-439.657
-58.5081
-16.8622
95.0849
-76.831
21.2688
9.64706
31.4092
-110.163
43.491
58.1132
91.5434
38.816
72.2134
56.0188
48.1836
95.2313
101.644
68.6643
63.2475
123.676
100.477
63.604
45.6631
20.1722
4.6905
1.37882
0.530889
0.284943
8.13329
2.16935
0.69569
0.280149
0.15301
21.9371
6.24785
2.21865
0.951024
0.53226
11.4214
4.22564
1.7237
0.782902
0.446958
26.5281
8.5531
3.33431
1.49071
0.846549
30.1157
12.1897
5.32477
2.48461
1.42959
35.0994
14.6438
6.46376
3.01431
1.72893
38.8215
18.1838
8.37486
3.95039
2.26698
33.1737
11.3319
4.63713
2.10941
1.20091
27.8465
9.94012
4.15213
1.9
1.08371
29.5262
9.29659
3.69801
1.67135
0.952232
23.1654
8.73655
3.82367
1.78761
1.03077
35.7702
13.2436
5.56971
2.54989
1.45221
27.6904
11.2576
4.91458
2.2789
1.30259
32.4196
14.8897
6.81151
3.2052
1.83759
26.7746
12.3102
5.62247
2.64259
1.51401
23.1537
4.36059
1.1465
0.41886
0.220524
11.0295
1.8082
0.449736
0.161709
0.0848834
23.7913
5.20939
1.63832
0.670398
0.369894
11.2337
2.10398
0.62505
0.252145
0.138856
23.4568
6.02664
2.168
0.945815
0.534097
11.083
3.0364
1.19147
0.543804
0.312467
24.2922
7.93153
3.30419
1.53308
0.88586
13.8162
4.55929
1.95966
0.920847
0.53497
18.3218
8.17528
3.79608
1.82257
1.06306
-2369.24
-4627.52
-2487.3
-4672.92
-2793.35
-4768.16
-3143.8
-4956.4
-3090.28
-5012.25
-1374.22
-1961.05
-2111.64
-3142.32
-769.68
-1009.69
-251.721
-321.59
-12270.6
-2968.01
-691.383
-157.489
-40.1534
-3330.29
-916.133
-247.112
-57.2242
-12.8063
-12022.5
-2890.22
-673.643
-152.366
-39.1664
-3399.45
-1019.03
-255.037
-60.3717
-15.3626
-11298
-2707.47
-630.383
-142.679
-36.7774
-3293.82
-981.067
-244.938
-57.7287
-14.7522
-10152.1
-2421.25
-563.652
-127.74
-32.999
-3160.12
-923.464
-228.117
-53.3795
-13.5875
-8360.21
-1988.19
-463.895
-105.442
-27.319
-2928.62
-836.911
-205.128
-47.8012
-12.1532
-3891.73
-965.064
-228.997
-52.4926
-13.6524
-1432.37
-412.509
-100.236
-22.9713
-5.83311
-5839.38
-1429.48
-336.651
-76.7639
-19.9161
-2092.79
-598.791
-146.906
-34.2366
-8.77001
-2270.38
-567.052
-135.152
-31.1377
-8.11862
-808.649
-240.135
-57.8782
-13.236
-3.38781
-774.43
-192.019
-45.8185
-10.5872
-2.76288
-307.001
-82.8723
-18.4533
-5.23498
-1.05072
-821.538
-2106.95
-7183
-108.933
-7901.15
-3498.32
-7707.55
-3655.56
-14050.2
-7511.31
-15645.8
-8243.85
-65.8856
-212.59
-331.285
-392.722
-333.197
-15.0546
-112.247
-357.541
-550.707
-633.583
-522.45
-116.905
-51.7147
-51.2238
-160.047
-157.572
-226.856
-228.001
-209.627
-217.136
-165.591
-202.063
-61.1341
-125.559
793.504
1848.02
3037.71
2159.65
1918.86
812.52
650.144
1749.89
2906.08
3436.84
2862.27
1202.54
-59.1383
-49.6969
-37.4212
-23.1958
-7.85254
-190.976
-160.656
-121.112
-75.147
-25.4543
-297.468
-250.111
-188.454
-116.887
-39.5847
-352.439
-296.134
-222.983
-138.23
-46.7996
-299.323
-251.766
-189.73
-117.667
-39.8431
-17.1158
-17.6197
-15.3447
-10.3148
-3.60096
-100.605
-84.3967
-63.439
-39.27
-13.2846
-320.665
-269.235
-202.578
-125.51
-42.4807
-493.411
-413.798
-311.014
-192.543
-65.1439
-566.736
-474.409
-355.95
-220.09
-74.4199
-466.598
-389.911
-292.097
-180.42
-60.9777
-106
-90.0181
-68.3665
-42.5911
-14.445
-46.476
-39.115
-29.4989
-18.3077
-6.20193
-46.0679
-38.8058
-29.2927
-18.1934
-6.16573
-143.92
-121.218
-91.4944
-56.8245
-19.2578
-141.736
-119.421
-90.1701
-56.0178
-18.9873
-203.936
-171.705
-129.554
-80.4385
-27.2561
-204.913
-172.474
-130.092
-80.7511
-27.3582
-188.586
-158.908
-119.981
-74.528
-25.258
-194.982
-163.94
-123.515
-76.5976
-25.9375
-149.43
-126.31
-95.6029
-59.4625
-20.16
-181.168
-152.022
-114.285
-70.7402
-23.9278
-57.1906
-50.077
-38.932
-24.56
-8.36178
-112.908
-94.9835
-71.4931
-44.2447
-14.955
694.363
567.935
418.046
255.67
86.1738
1605.49
1305.42
958.054
586.302
198.246
2597.93
2087.91
1525.08
936.589
320.073
1829.27
1463.02
1069.88
659.924
226.317
1654.93
1326.63
965.617
587.844
190.58
724.832
593.075
438.183
268.16
84.8851
569.418
466.118
343.271
209.949
70.7447
1525.59
1244.08
914.428
559.446
188.84
2511.65
2033.39
1488.88
911.227
308.634
2943.71
2366.37
1727.23
1058.3
359.927
2448.39
1964.43
1432.3
877.304
297.415
1037.42
839.451
617.104
380.235
128.978
89.9468
239.451
363.327
432.053
381.786
81.1069
149.144
397.945
595.901
680.75
565.362
152.48
69.258
65.5332
179.746
174.63
249.738
249.021
234.833
239.016
200.069
207.034
139.083
155.033
-703.303
-1713.25
-2813.06
-1884.05
-1628.7
-521.595
-614.848
-1697.44
-2799.42
-3258.74
-2620.49
-922.59
80.9879
68.3258
51.6655
32.1375
10.9011
215.379
181.476
137.043
85.1528
28.8667
326.605
274.995
207.515
128.869
43.6733
388.234
326.737
246.45
152.995
51.84
343.573
289.627
218.785
135.959
46.0894
77.1198
68.8026
54.4942
34.8941
11.981
134.134
113.007
85.3356
53.0255
17.9763
357.41
300.623
226.626
140.63
47.6403
534.57
449.015
338.041
209.56
70.9557
609.762
511.296
384.318
237.981
80.5357
505.788
423.556
318.008
196.779
66.5736
138.374
117.693
89.5832
55.9367
18.9999
62.3991
52.6832
39.8673
24.8131
8.41923
59.053
49.8679
37.7438
23.4946
7.97243
161.808
136.47
103.158
64.1463
21.7542
157.226
132.628
100.269
62.3576
21.1489
224.73
189.45
143.136
88.971
30.1664
224.022
188.79
142.586
88.6033
30.0371
211.501
178.474
134.964
83.9447
28.4706
214.901
180.975
136.583
84.8227
28.7459
180.844
153.203
116.253
72.4692
24.6029
186.118
156.692
118.206
73.377
24.8597
127.964
110.407
85.053
53.507
18.2302
139.955
118.331
89.5694
55.7039
18.8829
-612.848
-498.85
-365.568
-222.923
-75.0521
-1483.98
-1202.7
-880.252
-537.916
-181.867
-2393.69
-1913.37
-1391.48
-852.895
-291.698
-1568.48
-1230.81
-884.75
-539.599
-184.19
-1373.62
-1071.34
-758.065
-449.987
-141.002
-439.791
-331.619
-223.425
-124.217
-32.9616
-537.681
-439.379
-323.088
-197.424
-66.5057
-1478.66
-1204.76
-884.937
-541.264
-182.719
-2414.79
-1950.75
-1425.7
-871.651
-295.184
-2778.55
-2222.12
-1614.28
-986.017
-334.978
-2220.47
-1762.11
-1271.26
-772.629
-260.809
-771.468
-601.48
-426.177
-255.284
-85.1021
-1808.82
-1139.46
-495.57
230.075
482.26
604.803
146.429
-11995.6
-2504.85
-3760.15
-1748.12
-83.6611
-3783.78
425.812
1828.23
743.544
-6610.89
-3249.91
-1047.87
-911.425
-3380.51
-1628.93
-543.861
-1164.45
1350.51
669.346
-716.015
-494.746
-8294.28
-3763.34
-4826.28
-2389.2
-3469.57
-4011.96
-1342.37
654.288
-798.686
-990.718
-645.119
-474.606
-422.623
-356.038
-761.597
-513.586
-340.173
-216.038
-93.1101
-420.907
-333.904
-240.142
-145.467
-49.1381
208.715
177.466
135.043
84.3139
28.653
432.514
362.841
272.5
168.424
56.8992
542.196
454.741
341.537
211.163
71.3602
137.247
119.84
92.4234
57.6298
19.3963
-8062.26
-6447.3
-5044.11
-4268.23
-3750.84
-1651.52
-1052.18
-885.819
-759.501
-446.714
-2622.52
-1852.1
-1385.38
-998.485
-510.688
-1129.03
-710.887
-550.667
-409.075
-164.391
-54.0405
-34.9133
-27.529
-24.3052
-12.6033
-3049.61
-2373.47
-1712.83
-1083.81
-407.289
390.854
328.978
242.534
144.528
46.4418
1557.08
1240.86
893.72
538.564
180.108
662.136
548.558
405.681
247.13
82.5198
-4345.1
-3573.6
-2819.76
-2408.48
-2112.39
-2254.65
-1578.91
-1169.89
-820.044
-391.688
-841.934
-650.536
-478.797
-314.635
-122.029
-739.733
-571.558
-413.538
-261.753
-95.8306
-2744.63
-2128.09
-1538.59
-967.333
-355.46
-1350.74
-1057.63
-764.862
-475.434
-166.231
-444.204
-342.151
-243.628
-149.853
-52.5815
-988.666
-787.54
-571.599
-350.582
-119.957
1190.82
980.272
723.533
441.59
148.093
602.081
505.274
378.211
232.289
77.9395
-593.146
-463.785
-335.094
-208.274
-73.3637
-407.347
-315.852
-226.532
-140.224
-49.1728
-4944.27
-3239.65
-2494.53
-2055.11
-1647.59
-2689.69
-1930.9
-1363.72
-894.271
-379.353
-3182.15
-2348.48
-1692.17
-1196.53
-542.297
-1763.43
-1310.11
-926.709
-601.894
-251.75
-2838.22
-2207.44
-1592.9
-992.639
-354.222
-2816.52
-1883.53
-1363.92
-931.447
-375.071
-1128.02
-890.525
-643.086
-394.664
-135.842
589.778
496.413
372.896
229.83
77.3293
-647.345
-496.871
-356.154
-222.955
-79.7948
-7.82605
-5.15788
-1.32797
-22.0723
-95.4894
-230.533
-24508.7
-21718.2
-20390.2
-23175.7
-18108.7
-14437.9
-16081.3
-12291.7
-21688.4
-19338.8
-20031.8
-19107.6
-17674
-15176.2
-18671.9
-20425.3
-18340.9
-16595.8
-18643.3
-15515.7
-13176
-13645.5
-10985.7
-19692
-17851.1
-18203.8
-16879.2
-15865.4
-14778.1
-15495.5
-16288.8
-14988
-13284.2
-14493.9
-13081.6
-11308.4
-11495.5
-9867.1
-16691.5
-15577.2
-15578.1
-14604.3
-13634.7
-12599.4
-13279.6
-11605.6
-10952
-9498.45
-10061.5
-9874.2
-8896.84
-8629.47
-7846.62
-12318.9
-12563.3
-11650.7
-11885.2
-10461.1
-9508.02
-10626.8
-7520.15
-7203.88
-6160.87
-6426.97
-6672.9
-6065.79
-5735.47
-5278.08
-8236.13
-8316.02
-7877.03
-7833.98
-7212.38
-6550.31
-7151.49
-2724.69
-2631.71
-2237.09
-2316.75
-2474.8
-2308.78
-2109.07
-1960.63
-3103.18
-3144.08
-2924.66
-2846.25
-2711.07
-2492.27
-2690.57
-9022.84
-8864.9
-13691.2
-14754.7
-8437.43
-7482.75
-12014
-9778.66
-6658.04
-4633.16
-6638.83
-4685.88
-6641.68
-6425.52
-4861.93
-8939.84
-8482.93
-12249.8
-13335.3
-7872.29
-7102.65
-10673.6
-9150.73
-6590.69
-3906.18
-6497.14
-4190.4
-5941.94
-5769.6
-4672.79
-8075.85
-7685.89
-10396.1
-11143.2
-7200.42
-6657.03
-9297.78
-8183.84
-5356.35
-3940.81
-5344.82
-4255.24
-4966.58
-5012.86
-4546.92
-6398.94
-6142.3
-7781.43
-8181.69
-5810.48
-5397.3
-7183.1
-6513.53
-4864.75
-3332.64
-4791.75
-3630.65
-4466.89
-4474.09
-3851.52
-4339.95
-4191.45
-5129.13
-5332.82
-3900.58
-3585.76
-4817.47
-4398.47
-3308.58
-2433.14
-3249.26
-2632.82
-3039.48
-3016.15
-2651.52
-1600.35
-1548.4
-1870.97
-1935.63
-1437.48
-1315.3
-1769.68
-1624.1
-1090.01
-878.759
-1150.89
-982.483
-1114.77
-1096.55
-957.206
8396.6
27059.1
6702.32
28293.7
4982.57
29076.7
7765.62
44206.3
9521.3
60610
9513.19
44503.6
9229.81
37130.2
9616.52
32601.1
5816.58
3706.27
15626.2
9384.59
5630.03
3058.3
16806.9
8337.66
6478.8
4855.83
20413.3
14786.8
4912.39
3707.68
20480.9
15278.6
11630.1
4963.77
10132
4587.9
4789.34
11034.6
38929.4
10411.6
13977.8
4497.52
49495.9
13225.9
12816.8
4134.35
28203.8
8660.64
14489.2
4912.05
24878.6
7838.65
8185.44
4059.22
10873.4
4328.17
8963.35
4820.92
10752.5
4226.82
11050
6362.45
9253.16
4128.75
13192.7
4826
4477.08
1588.13
15067.6
10697.5
9068.8
6726.1
15859
13092.5
8525.95
7337.12
8972.47
6287.72
13194.5
9195.66
5782.08
4271.42
2686.49
2205.55
5308.61
4553.11
2458.25
2403.2
5788.71
3894.8
2759.47
1774.91
8291.05
4597.51
6442.78
7600.99
11757.5
8431.74
9668.76
13271.5
5303.42
2574.58
3680.73
4260
2481.87
1066.11
1471.98
1527.12
11498.4
20543.7
7671.46
22784.3
13320.7
19980.5
9387.1
23617.2
14827.3
17881.6
11852.1
22670.7
15428.7
17060.4
12796.3
12649.4
13575.4
17160.4
17248.8
18201.8
19356.6
27372.8
13994.1
11845.8
11035.5
12545.5
18940.2
24084.2
21769.7
27736.2
27009
22005.8
20587.8
27201.5
26321.1
18963.9
18706.5
25299.7
25187.3
12742.3
10287.1
13172.2
11922.1
15045.5
14161
16790.8
16715.9
22858.4
24044.2
11792.9
10679.5
12291.1
12730
13397.4
15192.6
15425.6
18270.2
19977.6
24145.4
10040.5
7925.46
6672.97
8261.41
12615.9
14866.5
8534.85
13184.2
6020.07
7630.96
9247.71
7721.17
1702.22
5352.26
650.773
1766.57
4222.58
8646.18
1334.54
2814.61
1063.49
4782.03
370.102
1553.17
6121.66
6146.68
7033.44
4585.03
9904.86
8117
11686.9
8399.94
1665.81
3325.66
3491.8
2116.08
1749.2
2237.23
2477.21
1874.09
17622.1
10832.9
3487.24
19777.3
11527.3
3802.74
16885.7
10695.7
3672.94
19348.6
11499.2
3794.71
15499.3
9843.26
3270.37
18738.3
11480.5
3855.54
7227.56
4278.69
1282.52
9964.97
6674.84
2294.6
12405.4
8541.07
2947.65
14692.5
9652.71
3230.83
18442.3
11696.2
4073.15
8267.43
5026.1
1723.69
9827.79
7170.23
2737.86
12117.1
8938.77
3329.55
15014
10606.3
3841.79
18713.5
11936.9
4285.21
272.793
2050.2
2852.08
4159
2407.05
2707.49
5972.22
5613.86
574.115
942.079
611.18
976.069
443.102
1317.05
815.193
1732.43
3028.41
1501.29
3926.93
2308.18
2022.41
3466.5
3334.02
425.325
6527.18
1201.18
-2519.17
-21.8001
1423.09
740.697
745.779
379.409
9076.84
3785.77
2434.65
1391.9
9206.28
3908.59
3085.46
1758.56
9119.41
4168.16
4364.88
2778.14
2978.77
1944.24
1003.12
979.113
13034.2
11417.6
5988.17
6132.39
14788.8
13728.4
7173.46
7135.68
4984.68
5058.35
10631.1
8666.29
3352.59
3535.36
1560.79
1937.69
4220.6
4177.84
2011.32
2246.55
2678.62
2962.27
1187.94
1726.42
4154.47
2568.78
4046.47
2498.59
6702.49
3448.54
6181.76
3532.74
2272.79
1748.03
2445.95
1530.18
971.303
917.004
1425.58
806.152
10440.4
6499.86
4758.14
4368.49
10410.8
6794.6
4758.7
4357.27
10997.8
7374.92
4828.26
4300.44
14322
16345.4
12347.7
7720.82
3807.8
15491.6
13425.7
11665.8
8943.14
4938.26
14435.3
12298.9
9245.46
6582.03
3531
4826.81
3802.84
4122.74
4178.75
5212.45
3938.12
4263.8
4240.02
5846.43
4316.31
4473.77
4377.21
11663.1
8361.8
10072.4
6934.25
7320.14
5673.08
6229.89
4967.51
4270.64
4498.12
9731.86
8511.11
8013.88
6885.1
6305.64
5507.64
4984.13
4630.51
3303.21
4258.12
7129.43
4872.19
4650.21
2916.68
9896.79
7643.71
6733.61
5533.02
3509.69
2138.46
5180.33
3745.76
4489.47
2158.88
1430.1
792.006
5035.2
3701.1
1528.45
1283.79
3638.53
1598.8
1252.27
617.563
2562.94
2208.93
1876.06
2592.24
3645.23
3194.65
2404.04
3280.75
2619.4
1556
1373.47
1774.86
640.013
268.652
-64.6999
206.356
2496.14
1053.83
311.274
2669.21
729.676
196.411
2665.56
1194.55
367.091
2742.88
782.816
221.246
2773.07
1321.15
358.166
2834.63
844.737
209.303
5410.77
2971.58
792.086
4280.82
2201.71
593.941
3633.1
1812.05
521.178
3119.91
1488.83
361.096
2943.66
873.72
159.055
6497.67
3493.11
1051.83
5187.75
2659.71
781.67
4183.78
2103.68
629.53
3452.42
1543
411.398
3212.54
842.807
215.793
1339.26
445.556
109.305
-39.3743
554.26
191.14
55.5457
-2.07827
1407.59
479.759
135.37
-12.0689
692.64
253.197
113.58
47.792
1484.93
517.723
183.955
36.3023
1120.32
443.977
134.671
21.8604
763.59
354.41
63.6042
-32.1076
595.864
328.174
136.535
59.4344
1153.23
445.294
110.078
-62.1011
948.42
358.618
137.845
-47.8016
1414.34
496.89
160.018
-15.5882
1236.92
431.634
164.074
-75.0723
852.457
368.399
109.459
-24.8974
676.645
284.065
126.76
3.26728
538.217
273.631
123.666
58.0158
403.853
203.774
110.84
50.6274
1672.49
542.082
129.3
-89.5182
1583.2
494.908
176.817
-116.202
1662.82
543.413
135.603
-86.0856
1533.61
478.74
177.621
-113.919
1619.98
535.098
174.958
-44.9244
1438.88
449.479
197.664
-82.7395
1405.18
480.448
206.887
38.307
1572.93
493.947
256.917
-91.9633
1219.99
414.932
193.598
-8.99616
1190.59
342.849
147.354
-66.0339
459.68
123.445
40.7042
-6.82639
1242.47
363.39
154.805
-61.2553
483.898
132.47
47.113
-1.18968
1294.03
387.73
175.461
-48.7911
507.088
143.688
54.5257
4.62477
1179.84
361.654
190.238
-31.3386
502.964
147.221
68.5768
14.7105
1081.13
349.435
188.901
-6.70071
458.977
150.814
84.51
26.785
701.865
245.931
103.19
-4.22868
404.939
167.397
81.2456
35.3058
846.037
273.358
130.789
-9.33232
430.648
160.441
84.8151
32.3345
526.219
210.088
90.8903
10.4159
328.504
153.884
73.3899
37.3097
322.112
161.048
86.9477
41.2144
232.914
130.243
70.6945
42.664
-2.59211
1.39259
1.05487
0.551336
0.32102
0.135611