/*--------------------------------*- C++ -*----------------------------------*\
| =========                 |                                                 |
| \\      /  F ield         | OpenFOAM: The Open Source CFD Toolbox           |
|  \\    /   O peration     | Version:  2306                                  |
|   \\  /    A nd           | Website:  www.openfoam.com                      |
|    \\/     M anipulation  |                                                 |
\*---------------------------------------------------------------------------*/
FoamFile
{
    version     2.0;
    format      ascii;
    arch        "LSB;label=32;scalar=64";
    class       volScalarField;
    location    "1";
    object      gradTx;
}
// * * * * * * * * * * * * * * * * * * * * * * * * * * * * * * * * * * * * * //

dimensions      [0 -1 0 1 0 0 0];

internalField   nonuniform List<scalar> 
5712
(
-7630.86
-9757.74
-17936.6
-26348.6
-26965.9
-46423.6
-20553.4
-52155.5
-16616.7
-36471.6
-24849.8
-37884
-22178.2
-29286.1
-9793.94
-11254
-17422.3
-20016.6
-22220.3
-22069.2
-17347.1
-21281.2
-25411
-22738.6
-6330.8
-4886.73
-7849.54
-5393.5
-14761.4
-12059.1
-24989.6
-18390
-19284.8
-20165.9
-21751.9
-21223.9
-8024.75
-6084.09
-45086.2
-60383.9
-29289.4
-35920.6
-59924.5
-77914.9
-31095.8
-35630.2
-33782.1
-47717
-29701.4
-39245.3
-17578.1
-28135.1
-3503.28
-1193.99
-3663.2
-1333.08
-10539.2
-4298.63
-14283.8
-5316.57
-10421.7
-3963.31
-10749.4
-3477.35
-18144.6
-5820.45
-23381.7
-7953.17
-27356.2
-13832.3
-25088.3
-14855.2
-25195.8
-16330.3
-22231.4
-16460.2
-20166
-12069.1
-20268.8
-10574.3
-25945.2
-16372.3
-26044
-16473.8
-23539.9
-17303.9
-23838.8
-17313
-21750.4
-13764.6
-22530.9
-14066.2
-20814.3
-9230.02
-9873.17
-12305
-20861.8
-10155.7
-8771.47
-12684.9
-22024.3
-9124.82
-11067.9
-12272.7
-23134.7
-9326.71
-11976.7
-12755.9
-4523.79
-4970.53
-1552.66
-3196.34
-13071.3
-13863.1
-5231.12
-9696.88
-16748.3
-18373.9
-8579.93
-14789.2
-12216.7
-199.813
-14721.3
-19122.7
-10923.4
188.293
-6791.5
-13666.3
-22553.7
-17254.2
-11262.6
-14083
-12889.2
-11636.9
-18513.3
-4183.37
-3320.83
-2440.46
-2387.97
-11617.4
-9371.42
-7353.88
-6901.55
-14276.7
-11360.5
-9596.78
-8456.65
-5437.43
-7157.55
-11649.6
-12308.3
-15256.4
-13742
-17370.5
-14683.4
-12846.1
-10811.2
-9480.3
-9317.69
-12719.9
-9065.44
-11962.7
-7795.73
-10732.9
-6642.02
-13257.3
-8337.55
-10713.6
-3857.74
-9475.49
-9574.71
-13032.7
-16184.1
-14446.4
-20399.4
-7772.95
-7957.87
-9675.2
-1791.95
-8546.66
-15747.6
-8148.22
-17065.1
-14353.8
-25335.6
-14605
-27092.2
-6747.32
-13935.2
-6223.84
-15032.4
-9487.52
-6552.52
-13570.8
-4919.41
-9343.78
-539.078
-11621.6
353.107
-9262.01
-10291.6
-14280.2
-6360.03
-7792.77
-12290.9
-12772.7
-8446
-2475.34
-2073.72
-1686.89
-1809.43
-1581.03
-1316.15
-7155.78
-5325.78
-4219.23
-4838.96
-3497.46
-2775.95
-8244.55
-6484.92
-5705.65
-5737.1
-4168
-3710.05
-5842.31
-4590.97
-4266.84
-10313.9
-6855.47
-5349.47
-10377.9
-6714.52
-4943.53
-10766.7
-7580.49
-6166.35
-7631.68
-4456.51
-3176.06
-14740.3
-11449.7
-9049.03
-10077.2
-7516.97
-5535.56
-9623.44
-6621.6
-4589.95
-8637.9
-5525.74
-3638.35
-9786.98
-5006.71
-2416.72
-11217
-14977.9
-9057.68
-11477.2
-12579
-18170.8
-11405.4
-16223
-9.87675
-698.595
507.169
-150.242
-3050.73
-3308.08
-1378.92
-783.145
-943.794
-2610.94
-9856.22
-14122.4
-6652.78
-3932.68
-10802
-10734.3
-17085.4
-18833.9
502.112
4305.37
-8033.36
-7502.39
-7481.24
-5730.82
-1027.54
-534.102
-749.076
-353.738
-2028.95
-172.662
166.052
690.145
-9299.36
-2211.61
-6522.49
-1673.78
-9302.21
-2764.96
-11164
-3418.94
-9639.04
-12264.7
-8810.3
-11895.5
-15777.5
-16134.7
-14949
-15173.6
-5825.01
-9102.06
-6775.71
-9083.17
-9274.58
-11416
-10140.3
-11454.1
-15539.2
-14843.7
-16216.6
-14830.3
-5828.25
-8762.69
-6259.95
-8842.96
321.838
-891.457
-6597.54
-3478.74
777.838
-529.585
-6114.28
-3050.74
-94.1214
-1141.85
-6705.69
-3792.22
-452.865
-1341.49
-6663.66
-3869.44
647.003
733.472
-141.412
34.2277
2730.3
2679.38
255.545
471.769
612.813
1823.93
-1287.36
-597.886
9929.93
10022
5221.08
4008.57
629.069
10853.1
10451.4
3915.53
5725.04
1021.21
-11004.9
-8310.46
-6834.47
-5871.56
-2981.89
667.714
550.754
86.1477
42.546
2152.8
1870.15
289.235
159.113
2195.23
2365.01
-256.813
-342.97
4960.48
1829.95
7452.83
4136.54
3104.21
2053.25
3504.3
2731.03
41.3877
-538.135
-4043.53
-2493.24
-1284.79
663.02
-959.846
564.162
-1213.69
-78.1925
-1108.68
-1152.6
-5122.07
-4474.37
-9623.5
-5702.94
-8306.43
-7951.85
-12514.7
-9879.53
-7042.29
-3963.88
-3475.53
-3257.41
-11324.8
-4941.75
-12400.3
-5516.22
-13938.3
-10108.1
-14835.4
-10881.8
-8575.18
-3217.93
-9557.88
-3714.53
-4885.23
-3494.69
-2957.55
-4214.61
-3022.19
-3145.73
-2466.57
-3885.17
-5679.26
-3384.34
-3347.67
-4847.33
-6988.52
-3657.35
-4436.35
-4966.45
472.973
447.323
479.125
45.6232
158.179
167.833
1721.74
1640.34
1559.94
200.932
455.296
435.097
2285.92
2257.04
2173.64
-227.409
455.219
572.022
759.956
623.353
334.396
2529.88
2449.55
2175.17
1957.38
2061.43
1950.7
2451.78
2371.3
2195.32
-666.309
202.534
259.465
-3584.86
-2031.32
-1126.51
349.34
1095.27
1465.72
425.28
1275.29
1610.04
205.832
1055.58
1272.07
-1265.04
257.906
425.725
16.4961
15.817
14.8644
21.4937
185.044
83.8265
57.8023
43.9637
-0.875583
25.2115
72.4484
92.364
287.448
142.86
147.849
124.274
-172.269
-14.807
106.34
173.465
64.6143
88.6996
107.679
103.42
-26.3488
43.493
34.9485
30.5222
-187.761
-32.3873
40.4885
63.3489
-703.578
-172.372
-16.3178
66.8976
-1025.31
-253.225
-72.887
136.032
-471.303
-89.7109
40.8942
136.838
-834.488
-194.7
-78.7157
110.131
-752.917
-195.33
8.35612
106.67
-1150.04
-296.317
-78.5821
165.597
-820.98
-232.909
12.7133
137.173
-1230.54
-330.362
-90.404
171.557
9.83878
9.45141
14.4892
28.9693
37.0139
18.9037
6.0174
25.6094
64.8436
38.4846
54.439
84.117
145.543
66.4143
25.2648
71.3429
-272.183
-56.4678
39.9245
134.138
-95.481
5.21471
19.2629
122.752
-24.617
55.3898
84.6371
144.097
26.0852
52.1923
12.8867
122.587
-701.296
-151.637
-55.3819
165.286
66.6568
28.5764
13.9337
22.1522
115.334
43.0387
17.9967
11.9393
143.25
67.3861
24.8978
53.689
299.399
114.75
43.3933
29.7051
106.038
72.5629
29.4709
85.6451
393.232
161.327
64.1708
45.5009
-16.9496
61.7317
34.1875
119.553
338.696
172.891
72.8357
55.2766
-325.202
-5.05701
-17.447
101.754
149.023
144.316
58.071
52.0071
-799.364
-113.398
-44.7659
109.873
-239.085
16.4869
19.9946
38.5308
-594.694
-49.2472
-34.1797
101.255
-105.025
73.6576
40.1012
47.1084
-973.211
-178.887
-62.2843
119.269
-346.642
-31.9608
5.5626
33.7213
-1091.98
-234.426
-81.7231
114.938
-431.561
-74.8914
-10.242
27.4515
9.40158
3.39459
1.32926
0.57056
0.310183
12.464
5.00206
2.09059
0.926499
0.511108
22.4548
7.78386
3.02265
1.29717
0.705859
27.0899
10.8727
4.56523
2.03346
1.12572
29.6302
9.66367
3.69744
1.5826
0.861232
35.2992
14.1282
5.94334
2.65561
1.47346
17.4423
6.96863
2.93708
1.3196
0.735886
12.89
4.22384
1.61057
0.694769
0.381896
27.9835
9.52724
3.72885
1.61806
0.887121
13.3815
3.97467
1.46843
0.62327
0.338727
30.4515
11.0155
4.4886
1.97986
1.09179
12.9794
3.99891
1.51644
0.649041
0.353552
21.5191
6.29547
2.28383
0.962001
0.522298
12.651
3.49126
1.2578
0.531615
0.289472
19.6386
4.41109
1.30197
0.490539
0.253732
10.8738
2.13417
0.581044
0.210615
0.107239
8.02634
2.67012
1.01234
0.427799
0.230755
6.10048
2.16068
0.848497
0.363535
0.196955
19.9201
6.601
2.54151
1.08627
0.58962
15.9091
5.59936
2.22248
0.960138
0.522832
27.4516
8.13356
3.01665
1.27393
0.689139
21.4083
7.54742
3.03558
1.32341
0.724754
24.4204
8.67874
3.54295
1.55913
0.857443
14.5888
5.59714
2.3278
1.02921
0.567119
12.2932
4.62066
1.9288
0.854795
0.471251
-137.948
-344.49
-175.094
-798.013
138.896
-909.836
941.971
-493.557
1692.72
714.64
-385.519
-1044.95
1170.6
1045.72
-1124.73
-1977.33
-1599.07
-2377.87
-866.561
-206.925
-47.62
-10.749
-2.7679
-219.453
-121.536
-16.5681
-4.72617
-2.22258
-2658.38
-630.996
-145.717
-32.7336
-8.44308
-500.755
-151.739
-39.6421
-8.68912
-2.49709
-4425.74
-1052.49
-243.873
-55.0131
-14.1719
-830.934
-266.43
-68.4353
-16.6738
-4.38728
-5848.86
-1395.46
-325.053
-73.6516
-19.0259
-972.885
-337.947
-89.3864
-21.9538
-5.74912
-7172.57
-1729.36
-406.204
-92.6562
-24.0819
-1092.7
-417.128
-113.076
-28.0356
-7.41772
-8222.21
-2044.88
-488.2
-112.669
-29.5328
-1911.34
-609.569
-155.6
-36.9703
-9.63143
-7761.28
-1924.56
-457.029
-104.887
-27.3555
-1386.64
-500.923
-133.205
-32.4634
-8.48951
-8405.53
-2092.17
-500.671
-115.841
-30.4494
-2226.86
-679.421
-170.159
-39.7696
-10.3189
-8726.67
-2153.08
-516.024
-119.394
-31.3867
-2338.6
-712.975
-179.762
-39.0983
-10.702
-645.47
-7934.02
-7248.45
-2582.37
1759.69
2977.5
8248.17
12130.8
1670.42
8805.84
-2276.64
2320.94
2449.39
5172.94
10063.5
14384.5
15238.8
19242.3
6227.46
8093.36
-20047.8
-14148.3
-3436.87
-2326.44
-1628.6
-2215.03
-2330.12
-11850.2
-10183.4
-9025.09
-8875.57
-6720.66
-4916.67
-6867.36
-4033.8
-3414.5
-3956.89
-2708.21
-19401.4
-9311.62
-2769.16
-4898.73
-7335.58
-4872.55
-4998.03
-3586.76
-1958.1
-2718.76
-3162.03
-3469.5
-19591.5
-12403.2
-11590.4
-8106.79
-7631.73
-8408.35
-2967.74
-3687.4
-5292.18
-13484.9
-10876.4
-8320.82
-6789.86
-5075.47
-8923.76
-5893.42
-4237.67
-2919.3
-1339.61
-2980.2
-2416.91
-1768.24
-1079.14
-364.489
-2050.4
-1688.78
-1249.04
-765.13
-257.776
-1428.25
-1168.74
-858.187
-522.379
-175.301
-1958.99
-1618.33
-1198.82
-734.263
-247.102
-2038.9
-1665.64
-1222.61
-744.957
-250.373
-7244.58
-5170.81
-3685.17
-2987.02
-2787.05
-5286.76
-3619.81
-2345.04
-1746.53
-1120.25
-5573.09
-3338.62
-2201.71
-1402.94
-612.581
-4438.23
-2842.01
-1764.58
-1158.44
-616.241
-3078.65
-1852.13
-1089.8
-680.874
-304.525
-3814.3
-2779.91
-1864.98
-1082.28
-363.935
-4644.25
-2986.11
-1912.26
-1104.43
-393.145
-2621.94
-1579.05
-941.51
-503.086
-165.58
-2764.12
-2087.15
-1433.52
-837.976
-278.357
-3103.23
-2269.22
-1512.09
-862.451
-282.402
-2218.87
-1692.3
-1168.76
-682.851
-225.419
-12258.4
-8773.27
-6477.52
-5066.8
-4160.99
-6663.81
-4675.02
-3248.02
-2056.29
-852.892
-2258.63
-1723.95
-1200.36
-712.589
-240.829
-4057.56
-3153.31
-2237.21
-1350.89
-463.258
-5859
-4449.41
-3138.8
-1927.1
-697.665
-4050.17
-3166.79
-2265.83
-1381
-477.141
-4227.03
-3355.29
-2423.53
-1478.68
-505.969
-3060.84
-2442.1
-1763.18
-1068.62
-361.071
-1661.85
-1312.92
-934.495
-557.122
-185.432
-2358.06
-1907.54
-1387.46
-840
-281.564
-2641.76
-2058.34
-1452.35
-864.59
-289.363
-2949.35
-2341.59
-1681.27
-1013.78
-341.414
-12936.6
-10005.5
-7622.06
-5984.81
-4490.96
-8339.22
-5745.98
-4126.75
-2782.28
-1277.62
-8215.17
-6202.34
-4392.63
-2950.48
-1306.58
-6186.94
-4520.22
-3219.91
-2050.42
-786.669
-6193.17
-4781.25
-3419.46
-2117.82
-763.277
-6367.36
-4626.15
-3276.99
-2077.42
-786.521
-2486.45
-1952.17
-1395.74
-845.709
-288.672
-3196.38
-2586.98
-1885.63
-1145.44
-385.148
-4456.97
-3518
-2526.59
-1534.29
-523.02
-6577.27
-13509.4
-13830.3
-38400.7
-13412.1
-50602.6
-7408.58
-18082.1
-13423.9
-10285.2
-22667.7
-18756.6
-13132.4
-12079.5
-25063.3
-19524.9
-4881.74
-3665.47
-9580.75
-6673.95
-10910
-8255.43
-29675.8
-22172.7
-17809.7
-13309.3
-18428.2
-10897.3
-1283.41
-4475.54
-47217.7
-61303.5
-28370.8
-35806.6
-61597.4
-78650.7
-30036.2
-35385.8
-35529
-48631
-28892.5
-39264.8
-19607.6
-29138
-2397.22
-641.687
-4254.93
-1460
-8151.63
-3706.8
-16628.3
-6051.38
-3538.59
-2054.61
-8842.59
-2808.93
-18274.5
-5782.43
-23658.7
-8031.13
-18409
-9765.92
-21627.5
-12816.7
-16276.3
-11818.5
-18723.6
-14321.7
-17733.1
-10435.8
-13906
-7418.1
-24641.4
-15472
-25727.5
-16231.1
-22150.1
-16375.1
-23467.8
-17062.9
-20903.3
-13029.7
-22343.9
-13866.3
-19777.9
-8938.61
-8805.67
-11921.8
-17645.5
-9209.97
-6743.17
-11916.1
-21837.4
-9083.85
-10587
-12102.7
-23150.2
-9338.14
-11847.7
-12710.9
-1374.58
-1283.49
-358.021
-1645.23
-5597.2
-5919.69
-3637.87
-7476.59
-3375.91
-4196.93
-5814.81
-11111.8
-12603.3
-9390.61
-10499.2
-13578.9
-9455.97
-7206.71
-8168.34
-8128.93
-15874.2
-15003.3
-12870.1
-11370.8
-8427.4
-7600.52
-16543.5
-1406.46
-1045.91
-818.836
-923.69
-5264.44
-4114
-4608.94
-4071.98
-1013.82
322.48
-5516.79
-4354.28
-9922.93
-10549.9
-9393.47
-8699.16
-7806.88
-5673.88
-10459.1
-8243.25
-10267.2
-8031.42
-11882.8
-11568.7
-10533.2
-7582.07
-8132.84
-4990.35
-7532.21
-4345.81
-11919
-6986.68
-9586.23
-4390.65
-8693.22
-9488.99
-13242.1
-17181.6
-14059.8
-20344.4
-6952.08
-7828.58
-8250.34
-2173.55
-8159.34
-15589.9
-8032.32
-16999.1
-14055.8
-25322
-14502.1
-27039.2
-6361.21
-13800.1
-6112.38
-14981.6
-8969.16
-6558.86
-13458.2
-5078.99
-8393.02
-1163.26
-11529.3
-693.098
-9025.07
-10235.7
-14228.2
-6387.69
-7718.01
-12265.8
-12754.1
-8446.25
-999.093
-919.213
-738.142
-847.491
-3120.59
-2299.8
-2946.48
-2693.27
935.614
310.439
-3429.56
-3723.24
-10311.4
-9476.32
-7849.47
-6457.76
-4543.06
-3655.02
-6516.84
-5271.41
-6782.91
-4874.32
-17769.2
-14853.7
-8228.23
-6450.56
-6726.42
-4597.3
-5917.91
-3360.58
-6724.55
-2522.34
-5668.63
-9312.6
-4846.67
-9648.43
-8997.3
-11016.9
-10217.8
-13897
-909.38
-581.3
-570.865
-430.436
-3485.89
-2261.12
-2652.76
-1185.48
-918.777
-1372.47
-8181.71
-8676.93
-4236.18
-3667.99
-9801.8
-10421
-15867
-18457.3
660.439
4305.55
-7255.51
-7247.96
-7029.91
-5612.75
-913.096
-782.463
-953.874
-751.965
-1413.68
-760.069
-216.816
-100.813
-7523.25
-3020.43
-6358.77
-2457.81
-9013.56
-3186.12
-11032.7
-3574.08
-5296.37
-10191.6
-7121.99
-10733.3
-9086.8
-12280
-12261.3
-13344.7
-4959.62
-8614.33
-4359.06
-8518.08
-8472.91
-10882.2
-9891.03
-11304.8
-14355.8
-14045.8
-15870.6
-14612.8
-5416.55
-8518.05
-6126.17
-8773.29
147.174
-1318.54
-6706.56
-3830.38
177.704
-1337
-6601.66
-3639.38
-202.676
-1424.83
-6735.22
-3991.09
-490.803
-1450.7
-6667.52
-3934.91
-907.654
-964.116
-797.945
-811.816
-1712.73
-1699.54
-970.697
-982.006
-7551.49
-6718.97
-2942.01
-2800.63
-3176.79
-4580.28
-3498.87
366.395
-947.23
-679.098
-982.666
-3450.66
2764.38
-150.267
-14571.9
-11723.4
-9801.53
-7777.48
-4078.41
-938.159
-799.432
-873.386
-1004.68
-1644.73
-1262.64
-1242.14
-1602.06
-6737.48
-6325.05
-3014.63
-3690.24
-4626.36
-6348.62
-2667.49
-4580.47
-4260.38
-4561
-570.067
-984.756
-1647.49
-2528.76
-9547.67
-7534.85
-7094.21
-4979.42
-5671.03
-3892.93
-4451.65
-3029.31
-2589.65
-2693.05
-7556.7
-7266.96
-10384.6
-6591.86
-10126.2
-10541
-12813.8
-10609.6
-8025.5
-4793.78
-5740.35
-5563.82
-11512.5
-5427.94
-12425.7
-5616.4
-13870.2
-10494.6
-14785.9
-10941.3
-8944.06
-3690.33
-9644.54
-3826.3
-5805.41
-4186.47
-3718.13
-4915.71
-4837.18
-4871.42
-3667.4
-5150.17
-6107.29
-3805.04
-3748.54
-5264.78
-7110.01
-3778.42
-4559.09
-5079.1
-600.958
-527.198
-718.699
-566.276
-1116.49
-1342.15
-1017.59
-832.297
-5962.39
-5208.63
-2390.58
-1116.06
-7367.89
-6780.6
-5502.32
-4786.26
-4313.28
-3664.11
-1371.66
-1458.74
-2402.97
-1170.31
-8150.58
-6715.55
-4419.59
-3513.56
-3216.94
-2232.12
-2100.63
-1158.35
-2453.14
-95.0369
-129.747
-52.8888
-18.1506
6.01005
-84.8489
-48.2179
-4.13582
14.6008
-360.532
-142.649
2.46857
63.4491
-252.857
-129.621
24.4061
66.0068
-627.855
-225.741
23.7494
147.684
-547.083
-230.657
-53.108
18.2914
-395.027
-157.854
-69.9028
-21.2581
-342.386
-120.822
-5.75867
39.8743
-1008.93
-328.791
-100.142
19.4019
-1210.43
-337.605
-113.626
127.77
-937.884
-300.795
-59.1389
86.0438
-1086.49
-298.552
-126.415
105.89
-965.476
-310.928
-50.0284
80.0351
-1269.35
-354.715
-109.337
155.816
-905.693
-280.664
-11.6361
125.818
-1273.01
-352.072
-101.993
167.903
-127.211
-46.621
-8.5441
21.3146
-108.482
-34.6038
-17.8408
18.4598
-323.878
-118.896
-7.89021
61.5772
-267.419
-87.4527
-41.9027
49.9099
-689.764
-224.15
-23.76
118.605
-615.813
-187.923
-64.1072
101.163
-732.86
-235.057
-35.7025
99.4409
-555.363
-166.567
-75.0956
111.978
-1081.24
-291.957
-114.427
172.59
-78.1884
-24.5944
-6.86998
14.3193
-34.2558
-14.19
-4.05394
1.26366
-237.388
-72.4442
-34.1133
30.2131
-112.965
-42.9285
-19.1868
-0.373783
-429.495
-124.458
-54.6033
52.9312
-231.007
-77.5196
-29.5623
0.946617
-658.106
-181.118
-67.9772
83.6033
-408.105
-117.794
-40.0505
2.49066
-877.093
-225.283
-120.197
58.1693
-548.928
-143.926
-60.3797
-6.10392
-1175.56
-297.806
-135.418
70.0646
-556.261
-144.096
-55.9307
-1.2279
-1121.1
-283.969
-145.569
52.9529
-606.777
-154.838
-60.8337
-5.13767
-1187.04
-290.53
-118.98
94.8481
-515.377
-125.406
-39.9086
10.6144
-1159.17
-270.854
-100.552
106.778
-481.177
-103.786
-24.6346
20.1337
0.772233
-0.99363
-0.723491
-0.394531
-0.239969
-3.08507
-2.50057
-1.36637
-0.692662
-0.411357
2.4602
-2.3426
-1.70428
-0.924471
-0.560859
-7.28907
-5.76547
-3.11827
-1.57089
-0.929732
5.21439
-2.79504
-2.11595
-1.14963
-0.696919
-10.5432
-7.84753
-4.18076
-2.09233
-1.2347
-5.86348
-4.12835
-2.17964
-1.08406
-0.636812
1.0772
-1.43487
-1.00766
-0.537944
-0.323039
0.708333
-3.56695
-2.30902
-1.21415
-0.728307
3.18884
-0.994148
-0.831013
-0.456681
-0.277601
-4.52064
-5.43929
-3.02937
-1.5341
-0.909806
2.00601
-1.25598
-0.897723
-0.48106
-0.290396
5.92477
-1.2949
-1.23624
-0.693798
-0.423456
3.85537
-0.762724
-0.708324
-0.392601
-0.238557
12.6193
0.969846
-0.299573
-0.264397
-0.177854
7.97285
0.70327
-0.0848883
-0.103239
-0.0721268
1.84844
-0.567416
-0.502727
-0.283195
-0.174016
0.100638
-0.702101
-0.453513
-0.24158
-0.146348
2.87888
-1.95733
-1.41142
-0.762039
-0.461833
-0.825245
-2.20591
-1.30455
-0.676805
-0.405873
8.28327
-1.82447
-1.6133
-0.895947
-0.546472
-2.64298
-3.4814
-1.9309
-0.981846
-0.58395
-4.34233
-4.55135
-2.44175
-1.22729
-0.727252
-5.29832
-3.21684
-1.61261
-0.797533
-0.470001
-4.43042
-2.83975
-1.42722
-0.70638
-0.416671
35.7868
-176.99
188.134
-427.556
456.03
-544.534
965.61
-358.699
1365.25
422.324
-534.209
-1214.75
776.501
487.596
-1172.39
-2023.94
-1607.45
-2384.6
-815.315
-197.596
-45.8402
-10.4097
-2.69586
-192.133
-115.049
-16.0192
-4.62083
-2.16552
-2515.24
-604.336
-140.563
-31.7548
-8.23482
-448.587
-145.356
-38.8471
-8.63318
-2.4879
-4215.21
-1012.29
-236.018
-53.5111
-13.8531
-787.835
-261.087
-67.7915
-16.5851
-4.37526
-5627.46
-1351.27
-316.22
-71.9389
-18.6601
-986.397
-340.314
-89.7836
-22.0006
-5.75916
-6999.54
-1690.62
-398.01
-91.0175
-23.7259
-1179.81
-428.54
-114.597
-28.2218
-7.4463
-8183.45
-2031.37
-484.684
-111.878
-29.3472
-1954.7
-617.001
-156.754
-37.1365
-9.65689
-7677.89
-1899.41
-451.082
-103.629
-27.0742
-1485.9
-514.767
-135.155
-32.7272
-8.53227
-8391.94
-2086.44
-499.008
-115.442
-30.3513
-2239.15
-681.763
-170.53
-39.8236
-10.3269
-8723.7
-2151.57
-515.545
-119.274
-31.3564
-2339.97
-713.24
-179.797
-39.1044
-10.7025
-517.204
-7757.25
-6724.01
-2191.8
-1630.09
-822.094
-3787.48
-2504.82
-7058.65
-6502.86
-3422.01
-2493.41
-155.127
-256.186
-472.742
-826.258
-1340.95
-2018.06
-117.485
-272.242
-600.33
-1118.35
-1820.73
-2656.27
-113.962
-51.8424
-209.44
-138.883
-412.397
-329.832
-742.1
-667.815
-1158.3
-1076.14
-1677.86
-1449.46
-2740.54
-3386.15
-4022.82
-6603.23
-7898.56
-9001.57
-3498.96
-4155.76
-4433.3
-4323.56
-3953.34
-3639.66
-139.469
-117.444
-88.6284
-55.037
-18.651
-230.018
-193.379
-145.692
-90.3554
-30.5984
-423.756
-355.564
-267.365
-165.571
-56.026
-739.015
-618.508
-463.943
-286.782
-96.9519
-1195.55
-997.008
-745.374
-459.675
-155.231
-1790.48
-1485.25
-1105.27
-679.627
-229.246
-105.545
-88.7935
-66.9435
-41.54
-14.0714
-244.188
-205.047
-154.301
-95.6093
-32.3621
-537.563
-450.516
-338.381
-209.376
-70.8193
-999.093
-835.093
-625.673
-386.451
-130.6
-1621.25
-1350.2
-1008.28
-621.39
-209.79
-2354.49
-1951.29
-1451.11
-892.022
-300.882
-102.518
-86.3899
-65.24
-40.5358
-13.741
-46.6499
-39.3241
-29.7069
-18.4629
-6.25951
-188.2
-158.376
-119.437
-74.1283
-25.1131
-124.866
-105.147
-79.3471
-49.2717
-16.6967
-370.05
-310.881
-234.046
-145.067
-49.1104
-296.156
-248.993
-187.594
-116.341
-39.3972
-664.525
-556.909
-418.258
-258.77
-87.5188
-598.335
-501.746
-377.035
-233.352
-78.935
-1034.07
-863.557
-646.373
-398.911
-134.749
-961.302
-803.269
-601.502
-371.283
-125.417
-1490.09
-1237.13
-921.056
-566.357
-190.996
-1288.28
-1070.23
-796.92
-489.877
-165.134
-2413.08
-1986.26
-1469.07
-900.441
-303.574
-2944.88
-2396.01
-1758
-1074.77
-363.094
-3426.08
-2738.72
-1989.43
-1216.84
-415.28
-5418.58
-4219.91
-3036.55
-1879.25
-665.699
-6095.13
-4583.4
-3279.46
-2090.68
-808.026
-6645.42
-4885.33
-3486.4
-2273.68
-935.104
-3082.03
-2537.97
-1877.96
-1151.44
-388.221
-3628.56
-2963.12
-2179.72
-1333.68
-450.093
-3821.27
-3085.43
-2254.42
-1378.55
-467.275
-3649.05
-2898.27
-2101.31
-1289.27
-443.056
-3210.27
-2483.4
-1785.34
-1109.98
-396.453
-2843.1
-2144.11
-1530.6
-966.707
-360.358
-159.8
-271.814
-504.158
-881.659
-1431.95
-2149.44
-123.552
-292.772
-641.662
-1188.44
-1923.39
-2783.15
-117.984
-54.7988
-223.444
-150.048
-442.389
-356.775
-799.34
-725.132
-1262.62
-1206.83
-1839.79
-1684.3
-2900.46
-3560.23
-4204.07
-6733.08
-7954.69
-9015.52
-3627.37
-4257.51
-4490.44
-4331.69
-3932.14
-3626.62
-143.719
-121.075
-91.4102
-56.7862
-19.248
-244.24
-205.538
-155.016
-96.2223
-32.6013
-452.383
-380.076
-286.191
-177.431
-60.078
-789.596
-661.919
-497.363
-307.879
-104.167
-1278.85
-1068.72
-800.757
-494.723
-167.235
-1911.37
-1589.95
-1186.62
-731.353
-247.011
-111.062
-93.5067
-70.5546
-43.8104
-14.8462
-262.875
-221.027
-166.558
-103.323
-34.9957
-575.244
-482.8
-363.19
-225.014
-76.1635
-1063.14
-890.118
-668.081
-413.244
-139.768
-1715.39
-1431.4
-1071.13
-661.231
-223.449
-2471.5
-2052.91
-1530.28
-942.481
-318.236
-106.173
-89.5093
-67.6277
-42.0359
-14.2527
-49.3346
-41.6131
-31.4572
-19.5615
-6.63405
-200.934
-169.253
-127.769
-79.3661
-26.9004
-135.012
-113.805
-85.9736
-53.4346
-18.1166
-397.354
-334.234
-251.96
-156.342
-52.9605
-320.671
-269.946
-203.657
-126.446
-42.8463
-716.738
-601.673
-452.682
-280.479
-94.9396
-650.638
-546.606
-411.549
-255.126
-86.3796
-1129.36
-945.382
-709.399
-438.71
-148.363
-1080.45
-905.334
-679.931
-420.717
-142.31
-1638.71
-1365.44
-1020.42
-629.37
-212.603
-1502.63
-1254.1
-938.4
-579.145
-195.659
-2561.62
-2116.26
-1571.1
-965.859
-326.156
-3109.15
-2542.17
-1874.51
-1150.44
-389.446
-3601.59
-2898.74
-2119.86
-1303.17
-445.811
-5559.08
-4359.44
-3158.79
-1965.45
-698.147
-6171.41
-4667.36
-3359.21
-2151.8
-833.763
-6669.81
-4914.27
-3515.43
-2297.16
-945.597
-3201.68
-2643.08
-1960.78
-1204.72
-406.645
-3725.38
-3050.09
-2249.71
-1379.48
-466.106
-3878.82
-3139.97
-2300.43
-1409.8
-478.492
-3663.1
-2916.34
-2119.93
-1303.79
-448.812
-3197.19
-2477.27
-1784.71
-1112.3
-398.25
-2833.85
-2138.18
-1527.68
-966.045
-360.608
-20001.2
-14171.5
-3686.64
-2568.85
-1981.64
-2599.98
-2667
-12637.9
-13543.6
-10603.9
-12112.5
-6435.45
-9819.67
-4740.79
-5017.4
-3514.98
-20027.5
-10249.1
-3453.52
-5683.07
-8043.6
-5290.67
-5473.2
-4046.06
-2385.2
-3261.12
-4024.44
-4070.51
-19483.3
-12514
-12109.7
-8390.6
-7996.72
-8844.6
-3488.18
-4167.35
-5812.14
-13488
-10916
-8384.27
-6873.77
-5150.43
-8974.31
-5949.31
-4292.28
-2963.89
-1358.49
-3216.75
-2628.09
-1937.01
-1188.92
-402.757
-2274.33
-1883.52
-1400.9
-861.972
-291.096
-1753.28
-1450.26
-1076.83
-661.361
-223.032
-2311.73
-1922.32
-1433.82
-883.096
-298.105
-2351.91
-1939.42
-1437.12
-882.188
-297.663
-8703.72
-6756.06
-5112.75
-4102.29
-3514.99
-9507.41
-7679.42
-5787.61
-4251.07
-2287.39
-7411.88
-5067.8
-3619.04
-2348.2
-942.981
-8552.14
-6664.39
-4917.37
-3361.6
-1502.15
-5314.27
-4144.44
-2963.34
-1797.4
-612.88
-7515.33
-5471.3
-3853.38
-2350.21
-827.566
-4025.45
-3205.28
-2316.34
-1406.1
-475.181
-4242.15
-3365.42
-2425.96
-1471.25
-497.383
-3015.9
-2421.75
-1758.39
-1067.96
-359.751
-13351.3
-10003.9
-7634.67
-5995.85
-4743.91
-7706.45
-5688.36
-4104.99
-2643.67
-1076.34
-2921.18
-2322.18
-1680.36
-1025
-349.825
-4819.75
-3846.45
-2797.95
-1718.86
-592.756
-6595.71
-5153.22
-3730.13
-2328.1
-844.555
-4465.75
-3552.75
-2584.06
-1593.29
-552.909
-4683.69
-3768.14
-2757.03
-1697.69
-583.041
-3498.45
-2834.33
-2077.23
-1273.02
-432.361
-2073.86
-1685.84
-1234.9
-753.103
-253.723
-2863.19
-2350.41
-1735.26
-1062.99
-358.546
-3459.84
-2785.64
-2029.14
-1236.91
-418.493
-3520.57
-2851.8
-2088.15
-1277.64
-433.198
-13002.8
-10173.2
-7848.14
-6233.89
-4725.68
-8515.62
-5934.27
-4304.04
-2920.53
-1337.15
-8918.09
-6919.58
-5043.5
-3434.79
-1514.27
-6511.74
-4849.61
-3510.96
-2258.34
-865.136
-6581.23
-5160.63
-3745.67
-2343.98
-847.81
-6859.09
-5107.82
-3696.69
-2373.09
-899.665
-2981.77
-2395.26
-1749.81
-1075.98
-369.099
-3646.33
-2984.19
-2199.57
-1347.69
-455.164
-4962.95
-3980.19
-2902.66
-1782.32
-610.464
-346.742
-1012.91
-1666.85
-2332.4
-2997.85
-3642.09
-3033.66
-8081.55
-7503.25
-2900.81
-10140.6
-8608.17
-9880.06
-10879.1
-2792.67
-1789.41
-6509.69
-3591.87
-11968.1
-8801.11
478.694
-2433.12
-6650.69
-6061.79
-2299.25
-8491.25
-6855.49
-8131.16
-9027.31
-2306.95
-1003.22
-5627.64
-1724.73
-9630.85
-5220.68
2196.8
-1732.62
-4920.38
-4436.54
-1628.27
-6515.33
-3820.88
-6361.18
-6841.41
-1706.02
-924.504
-3897.79
-1848.5
-7395.04
-1697.27
2358.9
-1222.92
-3665.93
-3333.02
-1181.51
-4766.87
-2050.85
-5049.02
-5731.53
-1243.92
-992.014
-2786.74
-1920.56
-6269.82
-35.1732
1780.3
-946.979
-2993.92
-2745.13
-950.574
-3635.38
-1588.93
-4348.75
-5405.23
-947.231
-1109.33
-1909.22
-1881.93
-5344.16
159.734
326.976
-808.545
-2571.56
-2441.28
-831.705
-3263.74
-1923.28
-3902.69
-5082.55
-699.868
-872.66
-1480.59
-1820.49
-5283.61
-912.177
-545.203
-1405.56
-3412.23
-5313.93
-2069.96
-5480.27
-9652.28
-7679.53
-10997.7
-934.322
-580.803
-3709.02
-2019.88
-911.801
-8831.58
-4280.86
-1292.73
-3142.77
-4597.37
-1772.26
-4991.46
-8577.62
-6812.36
-9161.43
-945.009
-477.56
-3799.15
-1827.78
-80.3799
-8486.26
-2965.95
-1107.28
-2699.39
-3648.92
-1380.23
-4430.33
-7366.97
-5622.12
-7745.62
-809.217
-544.889
-3122.52
-1858.68
-325.553
-6505.87
-2706.53
-917.515
-2348.66
-2893.75
-1070.31
-3984.38
-6377.42
-4811.6
-6744.21
-707.731
-536.583
-2759.42
-1869.38
-230.36
-5774.72
-2615.62
-797.867
-2047.33
-2469.3
-897.891
-3476.06
-5629.52
-4236.95
-6224.29
-635.409
-588.274
-2396.11
-2000.76
-421.8
-5351.32
-2642.71
-720.566
-1773.8
-2226.74
-801.429
-3130.56
-5490.78
-3826.75
-5914.39
-645.744
-691.309
-2077.91
-1898.67
-701.801
-5454.76
-2975.08
6939.11
8764.95
17977.9
26437.3
27000.6
46406.4
20563.2
52158.6
16631.4
36477.9
24900.7
37886.5
22197.5
29382.1
8417.32
9593.33
17436.6
20019.9
22214.7
22066.3
17349
21279
25408.1
22735.3
5839.17
4546.2
7142.25
4922.83
14763.6
12028.9
25048.5
18419.2
19257.5
20170.6
21742.5
21224.5
8022.58
6059
45092.5
60391.9
29290.1
35922.9
59932.1
77923.9
31095.7
35631.3
33786.9
47724.1
29700.9
39248.6
17584.9
28141.4
3302.84
1145.29
3365.13
1238.39
10506.2
4281.87
14291.7
5318.49
10415
3959.37
10734.3
3471.41
18145.6
5820.47
23385.1
7954.3
27355.7
13831.2
25086.5
14853.8
25192.9
16327.9
22228.5
16458
20163
12067.7
20267.8
10573
25944.6
16371.3
26044
16472.8
23538.4
17302.2
23837.9
17311.6
21749.9
13763.7
22531.3
14065.6
20809.9
9228.55
9871.69
12304.8
20858.4
10154.3
8769.75
12684.5
22024.1
9124.85
11067.3
12272.9
23136.1
9327.32
11976.4
12756.3
4253.88
4620.65
1492.38
3003.95
13009.6
13811.8
5200.93
9652.03
16738.1
18362.8
8575.03
14780.7
12216.7
200.695
14720.2
19118.5
10921.5
-187.323
6791.68
13665.4
22548.8
17251.1
11261.1
14081.9
12887.6
11634.3
18512.4
3804.91
2986.15
2188.52
2174.21
11658.8
9407.9
7432.41
6951.87
14267.8
11357.5
9593.04
8455.56
5437.56
7157.41
11649.3
12307.8
15255
13740.9
17366.1
14681.2
12844.6
10810.9
9479.55
9317.29
12719.1
9065.08
11961.4
7795.16
10731.1
6641.26
13257
8337.66
10712.8
3857.57
9474.5
9574.36
13031.4
16183.3
14444.8
20398.4
7772.2
7957.74
9674.43
1791.83
8545.75
15747.3
8147.34
17064.8
14352.4
25334.5
14603.7
27091.2
6746.72
13935.2
6223.27
15032.5
9487.2
6552.58
13571.3
4919.65
9343.1
539.045
11621.8
-352.843
9261.91
10291.8
14280.7
6360.29
7792.64
12291.2
12773.2
8446.33
2180.54
1848.09
1531.32
1642.77
1449.72
1222.5
7200.68
5344.17
4221.88
4883.13
3517.11
2779.79
8245.51
6486.67
5706.92
5738.14
4170.72
3712.56
5842.28
4591.11
4267.04
10313.7
6855.67
5349.76
10377.5
6714.81
4943.98
10766.5
7581.45
6167.42
7632.08
4457.72
3177.41
14740
11449.8
9049.35
10077
7517
5535.78
9623.23
6621.72
4590.26
8637.75
5525.97
3638.77
9787.08
5007.02
2417.17
11189.5
14960.4
9027.42
11462
12566.2
18161
11389.9
16214.4
54.9027
607.693
-419.344
106.091
3049.06
3381.73
1377.92
862.179
916.834
2583.97
9838.77
14100.9
6635
3918.85
10794.3
10730.9
17080.9
18831.8
-508.385
-4307.36
8023.3
7497.68
7475.42
5728.59
899.703
485.614
641.93
312.145
2082.9
183.671
-107.231
-674.885
9287.96
2210.23
6515.33
1673.76
9295.01
2763.26
11160.2
3417.74
9628.45
12259.2
8801.95
11891.1
15770.2
16130.4
14943.3
15170.2
5817.46
9097.97
6766.5
9078.31
9269.45
11412.9
10137.4
11452
15535.6
14841.2
16214.3
14828.4
5823.52
8759.74
6257.42
8840.95
-325.832
890.917
6594.61
3477.64
-782.358
528.951
6111.11
3049.65
91.0505
1141.08
6703.38
3791.19
451.216
1340.94
6662.05
3868.63
-614.297
-690.952
128.574
-37.4917
-2706.11
-2655.94
-251.127
-462.923
-611.436
-1822.35
1287.15
597.966
-9929.8
-10021.1
-5221.33
-4008.68
-629.02
-10851.8
-10450
-3915.41
-5723.66
-1020.9
11002.7
8307.15
6831.2
5868.97
2980.9
-636.91
-521.916
-95.7979
-53.4637
-2130.56
-1853.21
-273.308
-145.601
-2193.62
-2363.04
256.929
342.906
-4960.23
-1829.97
-7452.48
-4136.47
-3104.48
-2053.31
-3503.67
-2730.3
-41.4395
537.954
4042.47
2492.82
1283.31
-663.445
958.564
-564.476
1212.87
78.0292
1108.24
1152.26
5119.74
4473.24
9621.02
5701.64
8304.54
7950.82
12512.6
9878.29
7040.04
3962.74
3473.49
3256.39
11322.8
4940.61
12398.7
5515.25
13936.6
10106.9
14833.9
10880.7
8573.29
3216.95
9556.36
3713.72
4883.58
3493.73
2956.61
4213.7
3020.68
3144.85
2465.72
3884.3
5677.84
3383.44
3346.79
4846.39
6987.29
3656.59
4435.53
4965.61
-450.048
-417.442
-446.008
-56.48
-155.791
-162.774
-1706.28
-1632.14
-1554.54
-187.421
-448.301
-430.52
-2284.04
-2255.52
-2172.6
226.917
-454.929
-571.813
-759.932
-623.265
-334.314
-2529.86
-2449.42
-2175.05
-1957.25
-2061.2
-1950.48
-2451.03
-2370.54
-2194.71
665.983
-202.496
-259.37
3584.57
2031.33
1126.63
-349.532
-1095.2
-1465.57
-425.384
-1275.13
-1609.83
-205.815
-1055.34
-1271.81
1264.69
-257.915
-425.671
-13.173
-13.5808
-13.0435
-19.168
-172.287
-77.6767
-53.6711
-40.6132
1.43561
-24.9849
-72.5471
-92.6983
-283.708
-141.553
-146.88
-123.658
172.457
14.9567