/*--------------------------------*- C++ -*----------------------------------*\
| =========                 |                                                 |
| \\      /  F ield         | OpenFOAM: The Open Source CFD Toolbox           |
|  \\    /   O peration     | Version:  2306                                  |
|   \\  /    A nd           | Website:  www.openfoam.com                      |
|    \\/     M anipulation  |                                                 |
\*---------------------------------------------------------------------------*/
FoamFile
{
    version     2.0;
    format      ascii;
    arch        "LSB;label=32;scalar=64";
    class       volVectorField;
    location    "0.4";
    object      flux;
}
// * * * * * * * * * * * * * * * * * * * * * * * * * * * * * * * * * * * * * //

dimensions      [0 1 -1 1 0 0 0];

internalField   nonuniform List<vector> 
5712
(
(-0.396085 0.624755 0.450196)
(-0.509219 0.359894 1.46432)
(-0.907496 0.981046 0.364678)
(-1.35741 0.65588 1.49448)
(-1.39462 1.07511 0.263798)
(-2.39564 0.808753 1.50924)
(-1.03841 1.61281 0.393292)
(-2.61283 2.09922 2.20572)
(-0.823163 2.15321 0.478567)
(-1.80308 2.73898 2.99951)
(-1.2311 1.42769 0.489359)
(-1.89317 1.26848 2.25853)
(-1.08289 0.904885 0.486127)
(-1.46135 0.737708 1.91615)
(-0.483926 0.46676 0.507185)
(-0.56509 0.318159 1.73619)
(-0.949838 0.951484 0.302418)
(-1.08254 0.898798 0.195334)
(-1.19093 0.84677 0.820662)
(-1.18976 0.945771 0.492449)
(-0.89738 1.26352 0.284848)
(-1.06414 1.03982 0.150032)
(-1.30643 1.54507 0.84685)
(-1.16153 1.14826 0.41086)
(-0.344067 0.426791 0.359294)
(-0.278669 0.304027 0.283445)
(-0.426997 0.245349 1.14172)
(-0.307035 0.193607 0.865818)
(-0.811387 0.481422 0.271527)
(-0.686973 0.404529 0.218601)
(-1.3621 0.304832 1.11753)
(-1.03855 0.268579 0.87305)
(-1.04578 1.01834 0.641539)
(-1.0914 0.993799 0.276873)
(-1.2299 0.949159 0.555654)
(-1.21355 0.705536 0.254336)
(-0.479783 0.70322 0.277099)
(-0.359987 0.595335 0.625434)
(-2.36182 0.554751 2.02444)
(-3.15565 0.649114 0.532868)
(-1.56993 0.875505 0.730133)
(-1.9162 0.888962 0.222031)
(-3.02216 2.00626 2.48023)
(-3.93474 2.09511 0.651418)
(-1.5937 1.30382 0.640948)
(-1.82976 1.37026 0.191719)
(-1.82982 0.902461 1.52131)
(-2.58023 0.755924 0.463073)
(-1.65517 0.884454 0.776355)
(-2.16466 0.600532 0.257427)
(-0.999974 0.419088 1.38757)
(-1.5776 0.448927 0.433995)
(-0.207899 0.4164 0.529051)
(-0.0725458 0.692733 0.262081)
(-0.217196 0.220602 0.667272)
(-0.0806396 0.300561 0.270912)
(-0.622763 0.558789 0.57269)
(-0.260072 0.905826 0.307143)
(-0.838705 0.344111 0.645019)
(-0.31986 0.444503 0.25951)
(-0.636323 0.578294 0.685246)
(-0.247359 1.19475 0.401074)
(-0.64168 0.41356 0.547813)
(-0.215576 0.784284 0.252601)
(-1.06486 0.148153 0.769087)
(-0.353546 0.460346 0.289843)
(-1.37239 0.123706 0.259101)
(-0.481185 0.34307 0.0946715)
(-1.37308 0.752454 0.790736)
(-0.723501 0.9315 0.546432)
(-1.29342 0.830656 0.467346)
(-0.773498 0.957287 0.329547)
(-1.19015 0.868621 0.742751)
(-0.763652 0.838106 0.586129)
(-1.08605 0.941241 0.396996)
(-0.769056 0.853333 0.314132)
(-1.11755 0.775156 0.500967)
(-0.703202 1.081 0.347831)
(-1.11126 0.751196 0.757607)
(-0.622762 1.03959 0.523394)
(-1.35969 0.840935 0.29136)
(-0.844684 0.967959 0.203194)
(-1.37603 0.851653 0.126168)
(-0.850027 0.972872 0.100196)
(-1.17219 0.983234 0.240692)
(-0.808694 0.857292 0.190006)
(-1.19547 0.994564 0.0995248)
(-0.806733 0.85426 0.0950533)
(-1.21212 0.730112 0.317179)
(-0.788998 1.10157 0.209492)
(-1.25943 0.712425 0.145366)
(-0.807816 1.11301 0.0918015)
(-1.18799 1.08677 0.490373)
(-0.564964 1.46001 0.285349)
(-0.641178 1.3708 0.393651)
(-0.840675 2.24006 0.497809)
(-1.17462 1.14774 0.703798)
(-0.619905 1.72089 0.526641)
(-0.570159 1.34797 0.593508)
(-0.85234 2.4663 0.85778)
(-1.26556 1.03444 0.30901)
(-0.557977 1.26957 0.158227)
(-0.711849 1.38307 0.221934)
(-0.846004 2.14266 0.27973)
(-1.33507 1.02923 0.140958)
(-0.570364 1.18151 0.0642311)
(-0.764039 1.40537 0.0859978)
(-0.878083 2.12928 0.0984738)
(-0.263685 0.433547 0.752929)
(-0.285511 0.588715 1.30864)
(-0.0933128 1.13131 0.498812)
(-0.195753 2.06801 1.46498)
(-0.750245 0.513151 0.854017)
(-0.783693 0.598804 1.25736)
(-0.316058 1.4042 0.601847)
(-0.594353 2.26664 1.50885)
(-0.94589 0.597055 0.929315)
(-1.00474 0.600947 1.10155)
(-0.529028 1.70635 0.751099)
(-0.90994 2.39677 1.4348)
(-0.485784 1.08778 0.805803)
(0.0321754 0.979551 0.787588)
(-0.715419 1.09828 0.746316)
(-1.03692 1.23811 0.765102)
(-0.659955 2.15702 0.848729)
(0.0632536 0.950691 0.754489)
(-0.215568 1.0501 0.871831)
(-0.646233 1.09613 1.01939)
(-1.16584 1.08238 1.15987)
(-1.03435 2.52643 1.72375)
(-0.500321 0.87711 0.630662)
(-0.690418 0.983823 0.607468)
(-0.717755 1.03119 0.62051)
(-0.723553 1.27024 0.753109)
(-1.19724 2.83689 1.20205)
(-0.225766 0.139885 1.49383)
(-0.162275 0.165437 1.28199)
(-0.137658 0.301731 1.73025)
(-0.125017 0.801933 1.59819)
(-0.613908 0.192197 1.35304)
(-0.446836 0.216132 1.20182)
(-0.419793 0.395076 1.68976)
(-0.365992 0.843594 1.54746)
(-0.732525 0.265157 1.14087)
(-0.51743 0.213156 1.07059)
(-0.559436 0.507244 1.55616)
(-0.454401 0.892226 1.4666)
(-0.175376 0.853454 0.540566)
(-0.224142 0.712548 0.410512)
(-0.419852 0.891722 0.656666)
(-0.424434 0.730373 0.56652)
(-0.698917 0.932344 0.820733)
(-0.579714 0.70207 0.749576)
(-0.857757 0.784465 0.984853)
(-0.656837 0.602319 0.942914)
(-0.751876 0.624733 1.39423)
(-0.586164 0.973523 1.3867)
(-0.373096 0.806836 0.496022)
(-0.305977 0.671437 0.430762)
(-0.548188 0.926219 0.593704)
(-0.320941 0.792688 0.607149)
(-0.59513 0.940688 0.713796)
(-0.327342 0.775749 0.792231)
(-0.613681 0.912908 0.882818)
(-0.331222 0.744926 1.00482)
(-0.835253 0.647402 1.20201)
(-0.472031 0.940642 1.36249)
(-0.491639 0.949502 0.472685)
(-0.129872 1.00417 0.341108)
(-0.464681 0.949251 0.29715)
(-0.368552 1.03955 0.324402)
(-0.51838 0.82055 0.51549)
(-0.53177 0.78479 0.532182)
(-0.581285 0.808639 0.331576)
(-0.687775 0.809661 0.456411)
(-0.454826 0.987318 0.304866)
(-0.355767 0.962411 0.335731)
(-0.514163 0.987769 0.487196)
(-0.0744091 0.936534 0.372009)
(-0.428031 0.939575 0.0802215)
(-0.597244 1.04687 0.200574)
(-0.411788 0.938768 0.0187191)
(-0.647164 1.05093 0.0572164)
(-0.578608 0.787148 0.154624)
(-0.85932 0.828441 0.288978)
(-0.584784 0.783413 0.0373004)
(-0.92268 0.830546 0.0852991)
(-0.412901 0.981376 0.0676208)
(-0.598124 0.952249 0.200776)
(-0.392789 0.983293 0.0132121)
(-0.643063 0.952884 0.0569735)
(-0.611358 0.950588 0.341619)
(-0.35156 0.880842 0.299893)
(-0.90019 0.642509 0.427563)
(-0.314123 0.783333 0.249211)
(-0.577223 0.957768 0.565548)
(-0.0490432 0.869858 0.424599)
(-0.786665 0.636574 0.712542)
(-0.0298859 0.802729 0.467435)
(-0.601192 0.951966 0.108204)
(-0.516843 0.868189 0.156212)
(-0.936396 0.655558 0.211887)
(-0.386223 0.779583 0.110979)
(-0.533278 0.951214 0.089437)
(-0.604408 0.854347 0.101035)
(-0.861828 0.6747 0.12896)
(-0.488896 0.775635 0.0886722)
(-0.104802 0.0898895 0.986455)
(-0.0739288 0.0428917 0.574854)
(-0.046768 0.0213183 0.180382)
(-0.0809557 0.0455198 1.11634)
(-0.0593195 0.0189167 0.616558)
(-0.0400825 0.0141219 0.196542)
(-0.292824 0.128113 0.939865)
(-0.169062 0.0481974 0.562548)
(-0.0996181 0.0253494 0.187842)
(-0.220282 0.0819588 1.08294)
(-0.123489 0.0458181 0.60942)
(-0.0735572 0.0258301 0.194026)
(-0.307059 0.123715 0.841658)
(-0.181077 0.0590941 0.504052)
(-0.1273 0.0406232 0.161787)
(-0.262438 0.135821 1.03273)
(-0.141846 0.0739713 0.595994)
(-0.0987118 0.0475951 0.191608)
(-0.150784 0.51508 0.281912)
(-0.0812612 0.312406 0.166123)
(-0.0592944 0.202128 0.0512366)
(-0.310085 0.537104 0.449642)
(-0.142332 0.337327 0.285195)
(-0.0815856 0.223895 0.0933436)
(-0.370668 0.438676 0.618087)
(-0.171757 0.270748 0.395814)
(-0.0897165 0.183793 0.13058)
(-0.404708 0.363367 0.781578)
(-0.208015 0.200185 0.482232)
(-0.128589 0.128418 0.154962)
(-0.362428 0.208784 1.00483)
(-0.16311 0.0941269 0.596097)
(-0.0870113 0.0536663 0.196257)
(-0.409123 0.500637 0.318228)
(-0.234444 0.30846 0.190083)
(-0.132509 0.19393 0.0657381)
(-0.330175 0.589877 0.464727)
(-0.187471 0.353981 0.320593)
(-0.0946409 0.219337 0.117881)
(-0.371127 0.512567 0.621901)
(-0.194893 0.278354 0.428888)
(-0.0904195 0.164346 0.153572)
(-0.381335 0.389708 0.80156)
(-0.190441 0.189838 0.530149)
(-0.084896 0.109348 0.183814)
(-0.489784 0.218634 1.01755)
(-0.210897 0.0899171 0.609889)
(-0.0748704 0.0458318 0.208368)
(-0.491303 1.1549 0.0115785)
(-0.629761 1.05264 0.0787377)
(-0.414446 1.32622 0.113963)
(-0.50911 1.10488 0.161968)
(-0.615779 1.39791 0.115749)
(-0.840724 1.11957 0.117485)
(-0.581869 1.79554 0.279401)
(-0.783357 1.24462 0.249833)
(0.00254595 0.798838 0.0213672)
(-0.0225394 0.718866 0.0279108)
(0.0202597 0.807556 0.0227649)
(-0.00776256 0.671547 0.0289687)
(-0.117433 0.913218 0.0129863)
(-0.11431 0.76907 0.0392685)
(-0.0591713 0.92558 0.0263357)
(-0.0347685 0.710376 0.0527531)
(-0.0631201 0.906156 0.0982947)
(-0.123452 0.857225 0.0499652)
(-0.403587 0.828616 0.134322)
(-0.546746 0.842701 0.0802124)
(-0.231918 0.982603 0.0622479)
(-0.1524 0.929086 0.102852)
(-0.493702 1.21033 0.132382)
(-0.500937 1.25483 -0.00718101)
(-0.838699 1.40965 0.300597)
(-0.931843 1.48877 0.0394421)
(0.000186103 0.943385 -0.125683)
(0.153742 1.00649 -0.0393147)
(-0.341156 0.84845 0.0371233)
(-0.319997 0.840065 -0.000811377)
(-0.275362 0.955258 -0.0016712)
(-0.208027 0.996433 -0.0244586)
(-0.0377699 0.503069 0.259404)
(-0.0191587 0.234129 0.0905721)
(-0.0315754 0.482403 0.0678406)
(-0.0168727 0.262333 0.0328518)
(-0.0849757 0.522539 0.266343)
(-0.0134489 0.235488 0.0928325)
(-0.0162467 0.489799 0.0859487)
(0.00659787 0.258789 0.0401506)
(-0.337872 0.530898 0.269755)
(-0.0731764 0.23523 0.098241)
(-0.253114 0.508055 0.117706)
(-0.0653349 0.273224 0.0589503)
(-0.339646 0.504826 0.0711518)
(-0.0924681 0.287733 0.0350175)
(-0.400245 0.517254 -0.000964279)
(-0.10634 0.281159 0.00420522)
(-0.439297 0.768946 0.491106)
(-0.471548 0.589964 0.401219)
(-0.404465 0.802928 0.219256)
(-0.461669 0.605509 0.205401)
(-0.735749 0.905337 0.622462)
(-0.680269 0.757026 0.542941)
(-0.706019 0.964168 0.298303)
(-0.6463 0.771159 0.270473)
(-0.249395 0.733333 0.158105)
(-0.31565 0.450334 0.147693)
(-0.284827 0.731168 0.358024)
(-0.312216 0.43271 0.266838)
(-0.424075 0.848637 0.113356)
(-0.448285 0.610892 0.112565)
(-0.456416 0.870581 0.0382948)
(-0.446344 0.603674 0.0549761)
(-0.741312 1.02563 0.167829)
(-0.638648 0.777391 0.153354)
(-0.772854 1.04004 0.0664781)
(-0.634961 0.769427 0.0761466)
(-0.248407 0.747018 0.0737449)
(-0.306549 0.456276 0.0808961)
(-0.260611 0.752083 0.0175466)
(-0.305537 0.451422 0.0412698)
(-0.00616624 0.41358 0.112141)
(-0.0245866 0.225988 0.0521922)
(-0.193287 0.310479 0.100368)
(-0.0754569 0.173557 0.0458501)
(0.00214577 0.366984 0.193481)
(-0.0160886 0.195423 0.0747233)
(-0.177246 0.290819 0.161312)
(-0.0656432 0.159492 0.0685699)
(-0.0165754 0.433565 0.050045)
(-0.0304209 0.243132 0.0300333)
(-0.196376 0.317642 0.0556823)
(-0.0815757 0.178843 0.0248859)
(-0.0231501 0.436013 0.00664124)
(-0.0326966 0.250676 0.0079571)
(-0.192647 0.314368 0.0275919)
(-0.0814102 0.177811 0.00958025)
(0.0121851 0.0659892 0.284784)
(0.0139121 0.0289074 0.147346)
(-0.00623554 0.11044 0.106882)
(-0.000199976 0.055019 0.0824444)
(0.0603585 0.0685505 0.289951)
(0.0546961 0.0339614 0.159426)
(0.000449517 0.115519 0.106515)
(0.00814851 0.0637278 0.0828025)
(-0.00056215 0.0823516 0.318817)
(0.0293442 0.0509186 0.186489)
(-0.0361514 0.126413 0.108794)
(-0.0156634 0.0820146 0.084646)
(0.300771 0.365358 0.531502)
(0.362466 0.649054 0.677744)
(0.134802 0.244475 0.405229)
(0.0903736 0.22102 0.217626)
(0.0115739 0.142352 0.0801886)
(0.391914 0.600107 0.609199)
(0.325777 0.360729 0.47051)
(0.0971204 0.180839 0.359768)
(0.127947 0.176962 0.237282)
(0.0216031 0.10956 0.0974458)
(-0.434592 0.671843 0.574025)
(-0.308701 0.473739 0.433354)
(-0.223865 0.338554 0.285684)
(-0.162302 0.234027 0.172538)
(-0.0619622 0.133239 0.0681836)
(0.00987847 0.0117949 0.0839278)
(0.00641013 0.00490531 0.0490886)
(0.00127547 0.0292444 0.0591501)
(0.00129219 0.0182478 0.0436602)
(0.0347722 0.0155028 0.0977796)
(0.0234677 0.0061506 0.0562448)
(0.00511889 0.0376341 0.0638305)
(0.00424327 0.0241502 0.0470997)
(0.035622 0.0274021 0.12454)
(0.0325588 0.012644 0.0740141)
(-0.00424799 0.0530658 0.072063)
(-0.000923101 0.0349012 0.0538677)
(0.147954 0.555197 0.432958)
(0.0356055 0.447262 0.285402)
(0.195536 0.317163 0.329534)
(0.0848227 0.242116 0.202101)
(0.0590679 0.17235 0.208397)
(0.0279222 0.131372 0.13876)
(0.0609484 0.13346 0.149701)
(0.0371616 0.086118 0.0989908)
(0.00167555 0.081746 0.0732059)
(-0.00378494 0.0536113 0.0599589)
(-0.165261 0.551551 0.363609)
(-0.089463 0.41832 0.290309)
(-0.0705927 0.369921 0.265214)
(-0.000535194 0.255529 0.201862)
(-0.0465809 0.249924 0.181465)
(-2.28182e-05 0.163953 0.137012)
(-0.0364532 0.166603 0.118678)
(-0.0054536 0.105105 0.0919573)
(-0.0157354 0.103867 0.0549538)
(-0.00990312 0.0741595 0.0559685)
(-0.188012 0.411448 0.239485)
(-0.13414 0.25607 0.14828)
(-0.3251 0.428476 0.148708)
(-0.1726 0.26581 0.087458)
(-0.319594 0.565868 0.371704)
(-0.250875 0.396407 0.257679)
(-0.464003 0.581944 0.24084)
(-0.316137 0.414834 0.181402)
(-0.209291 0.308418 0.0970279)
(-0.10528 0.184425 0.0550301)
(-0.113981 0.289141 0.15056)
(-0.0847717 0.17373 0.0961927)
(-0.374106 0.436123 0.131218)
(-0.155409 0.269012 0.0594687)
(-0.401752 0.433025 0.0318663)
(-0.169862 0.268126 0.0152924)
(-0.50955 0.586678 0.165773)
(-0.326606 0.433665 0.113697)
(-0.535014 0.582027 0.0390389)
(-0.350395 0.433562 0.0313141)
(-0.249051 0.318998 0.0924749)
(-0.0913747 0.186346 0.0379069)
(-0.270911 0.316812 0.0237967)
(-0.1019 0.186977 0.0098636)
(-0.12019 0.205299 0.0559093)
(-0.0688965 0.121121 0.0407264)
(-0.0443743 0.124185 0.0271352)
(-0.0501148 0.0915974 0.0315865)
(-0.0762787 0.192065 0.0854859)
(-0.0597095 0.112264 0.0618903)
(-0.03668 0.117819 0.0368688)
(-0.0457405 0.083535 0.0404984)
(-0.136837 0.215903 0.0554106)
(-0.06697 0.125038 0.0274397)
(-0.0485932 0.127345 0.0189746)
(-0.0571263 0.0962211 0.0209036)
(-0.163718 0.21905 0.00926402)
(-0.0712385 0.124519 0.00318167)
(-0.0687232 0.132221 -0.00807834)
(-0.0575961 0.0967714 -0.000957086)
(0.00355141 0.00595908 0.0261135)
(0.00224183 0.00372816 0.0100785)
(0.00195457 0.00228481 0.00270897)
(0.000362787 0.0289301 0.0237923)
(0.000725654 0.00994457 0.00662321)
(0.000642909 0.0058053 0.00167644)
(0.0137619 0.00572319 0.0311942)
(0.00916476 0.00438765 0.0126211)
(0.00692772 0.00289269 0.0035732)
(0.00144273 0.0335784 0.0263006)
(0.00226374 0.0125582 0.00772369)
(0.0018318 0.00768622 0.00202389)
(0.021856 0.0102886 0.040014)
(0.0147909 0.00831623 0.0170563)
(0.0106141 0.00617508 0.00461515)
(-0.00219809 0.0415692 0.0305972)
(0.00239171 0.0174766 0.00939173)
(0.00245245 0.0111361 0.00236608)
(0.00460473 0.30816 0.17467)
(0.00532396 0.191335 0.0944911)
(-0.000163568 0.128603 0.0273602)
(0.0308204 0.163117 0.113503)
(0.0253313 0.102332 0.0560599)
(0.0177999 0.0707471 0.0161366)
(0.0179812 0.090277 0.0783635)
(0.0161018 0.0564646 0.0365655)
(0.01264 0.0399786 0.0105819)
(0.0228046 0.0563916 0.053605)
(0.0165267 0.0342438 0.0231398)
(0.0120918 0.0235095 0.00610814)
(-0.00683026 0.0542139 0.0348889)
(0.000468532 0.0243379 0.0107074)
(0.00107414 0.0153377 0.00242218)
(-0.104927 0.283765 0.202506)
(-0.0484953 0.168009 0.104644)
(-0.0220094 0.105247 0.0327199)
(-0.00937185 0.160148 0.133555)
(0.00429353 0.0913277 0.0628561)
(0.00814133 0.0575716 0.0185196)
(-0.00549066 0.0986821 0.0889243)
(0.00600728 0.0542869 0.0402846)
(0.00822444 0.0342936 0.0115475)
(-0.0040276 0.0680698 0.0583955)
(0.00486452 0.0361883 0.0244699)
(0.00589755 0.0219994 0.00660252)
(-0.013164 0.073693 0.0382692)
(0.00032205 0.0291033 0.0107607)
(0.00161728 0.0168849 0.00268711)
(-0.000581723 0.089919 0.0249115)
(-0.00017632 0.0320155 0.00630483)
(-5.22153e-05 0.0110802 0.00134566)
(4.41681e-06 0.00347477 0.000177824)
(0.00199386 0.103699 0.0102376)
(0.000560271 0.0360489 0.00265067)
(0.000260382 0.0121408 0.000600994)
(0.000115512 0.00371807 0.000104627)
(-0.00221721 0.0899174 0.0255503)
(-0.000657133 0.0318753 0.0065469)
(9.94329e-05 0.0110515 0.00147331)
(0.000151159 0.00346705 0.000254332)
(0.00212353 0.105316 0.0118467)
(0.000577186 0.0368672 0.00312498)
(0.000674544 0.0126249 0.000943602)
(0.000344688 0.00391803 0.000276054)
(-0.00638069 0.0892235 0.026289)
(-0.00161651 0.0312539 0.00680022)
(0.000121446 0.0114159 0.00178734)
(0.000338534 0.00371652 0.000440477)
(-0.00350608 0.107532 0.017191)
(-0.000774797 0.0371414 0.00467364)
(9.79266e-05 0.0134696 0.000905611)
(0.000142504 0.00436093 0.000130153)
(-0.00408184 0.116266 0.00839484)
(-0.000794477 0.0394411 0.00255241)
(-0.000214169 0.0130749 2.81756e-05)
(-5.971e-05 0.00397297 -0.000182148)
(-0.00575974 0.117121 0.00271107)
(-0.0013001 0.0401852 0.00122176)
(-6.63454e-05 0.0128993 0.000194145)
(7.67018e-05 0.00386045 2.88763e-05)
(-0.0164179 0.0927707 0.0179083)
(-0.00402064 0.0332577 0.00495815)
(-0.000997868 0.012197 0.000921294)
(-0.000183315 0.00394826 -3.85845e-05)
(-0.019482 0.0727154 0.013262)
(-0.00459893 0.0274165 0.00355734)
(-0.00135947 0.0104555 0.000996735)
(-0.000113135 0.00348408 9.40554e-05)
(-0.0118365 0.0799753 0.0238486)
(-0.00280722 0.029309 0.00628228)
(-0.000498761 0.0112411 0.00156328)
(0.000124606 0.0038459 0.000269571)
(-0.0160635 0.0670522 0.0189558)
(-0.00371677 0.0256741 0.00489116)
(-0.00129649 0.00998247 0.00138442)
(-0.000183605 0.00340396 0.000119309)
(-0.0171104 0.100652 0.0110188)
(-0.00419251 0.0358905 0.00325629)
(-0.000765183 0.012591 0.000635528)
(-1.51467e-05 0.00392591 1.84112e-05)
(-0.02146 0.0755905 0.0080315)
(-0.0051552 0.0284915 0.0022727)
(-0.00144113 0.010641 0.00069846)
(-6.7867e-05 0.00349957 0.000123584)
(-0.0174347 0.103782 0.00408447)
(-0.00435623 0.0371818 0.00141748)
(-0.000680142 0.0127874 0.000354466)
(7.06728e-05 0.00397925 9.75964e-05)
(-0.0223377 0.0761546 0.00298244)
(-0.00546279 0.0290185 0.00097189)
(-0.0015276 0.0108063 0.000351035)
(-9.0523e-05 0.00358786 0.000110414)
(-0.000436162 0.0628364 0.0298455)
(-0.000162076 0.0254541 0.00759465)
(-3.16594e-05 0.00959308 0.00169582)
(1.95589e-05 0.00319511 0.000198558)
(0.00024274 0.0395709 0.0258876)
(3.81334e-05 0.0185743 0.00671635)
(-4.37632e-05 0.00783252 0.00196534)
(1.15127e-05 0.00277614 0.000276299)
(-0.000402679 0.0627514 0.0293526)
(-0.000243442 0.0252618 0.00746727)
(5.36391e-05 0.00958434 0.00167285)
(0.000109727 0.00320812 0.000184983)
(0.00140261 0.0413711 0.0251884)
(0.000296601 0.0189579 0.0064855)
(-3.96513e-05 0.00792322 0.00193377)
(5.14365e-05 0.00280449 0.000258759)
(-0.00686502 0.0644957 0.0282151)
(-0.0018667 0.0252654 0.00715455)
(-0.00034133 0.00980504 0.00185493)
(7.79229e-05 0.00332651 0.000306081)
(-0.00343241 0.0469666 0.0239564)
(-0.000916439 0.020212 0.00606987)
(-0.000338443 0.00827236 0.00198205)
(5.11296e-05 0.00289131 0.00031661)
(-0.003277 0.0631418 0.0231039)
(-0.000697051 0.0243211 0.00594908)
(-8.09189e-06 0.00960202 0.00181972)
(0.000185301 0.00337703 0.00050062)
(-0.0012788 0.0519554 0.0259251)
(-0.000275306 0.0211274 0.00648903)
(-0.000323007 0.008738 0.00239696)
(3.47716e-05 0.00303774 0.000427046)
(-0.0136614 0.0588616 0.0190034)
(-0.00314246 0.0233527 0.00484721)
(-0.00112179 0.00933496 0.00157334)
(-2.90487e-05 0.0032944 0.000276143)
(0.000610787 0.0233316 0.0174016)
(0.000170788 0.0138655 0.00440633)
(3.318e-05 0.00572685 0.00149914)
(2.94592e-05 0.00141677 0.000295786)
(0.00123731 0.01204 0.00629224)
(0.000354994 0.0116014 0.00153967)
(8.97245e-05 0.00492728 0.000458031)
(2.80474e-05 0.00125733 0.000132175)
(0.00116346 0.0260439 0.0184585)
(0.000338809 0.0146784 0.00462697)
(3.96259e-07 0.00598621 0.00154017)
(5.12769e-05 0.00150712 0.000296879)
(0.00327727 0.0142954 0.00676851)
(0.000941878 0.0124064 0.00164237)
(0.000208334 0.00514508 0.00049531)
(6.51072e-05 0.00130685 0.000146934)
(0.00017485 0.0318402 0.019601)
(0.000147543 0.0162225 0.00482516)
(-9.95969e-05 0.00634186 0.0016235)
(5.6689e-05 0.0015454 0.000311752)
(0.00439521 0.0188743 0.00727247)
(0.00129229 0.0138809 0.00173695)
(0.000285393 0.00546774 0.0005243)
(8.88396e-05 0.00136001 0.000159772)
(-0.0020349 0.0398008 0.018238)
(-0.00022753 0.0182051 0.00445247)
(-0.000210931 0.00697223 0.00164429)
(7.04989e-05 0.00171746 0.000318242)
(0.00368877 0.0250624 0.00739558)
(0.00127824 0.0157078 0.00174259)
(0.000273513 0.0059453 0.000580038)
(8.75027e-05 0.00146593 0.000176287)
(-0.00676719 0.0464136 0.0165412)
(-0.00116079 0.0201602 0.0040886)
(-0.00064298 0.00775411 0.00152732)
(-4.33978e-05 0.00199025 0.000310388)
(0.00120054 0.0294337 0.00668709)
(0.000869321 0.0173622 0.00164435)
(0.000129378 0.00640102 0.000612645)
(5.32115e-05 0.00156515 0.000184839)
(-0.0142985 0.0518276 0.00951614)
(-0.00278381 0.0223094 0.00236728)
(-0.00101638 0.00809472 0.000703413)
(-0.000116377 0.00197695 0.000137177)
(-0.00453161 0.0321598 0.0048842)
(-0.000601445 0.0194568 0.00131488)
(-0.000191708 0.00716393 0.000409331)
(-3.65051e-05 0.00172958 0.000126888)
(-0.0111634 0.0498915 0.0125705)
(-0.0019865 0.0214719 0.00306191)
(-0.000883339 0.00791689 0.00103808)
(-0.00011462 0.00195808 0.000211392)
(-0.00248995 0.030168 0.00583283)
(1.59441e-05 0.0186012 0.0015067)
(-4.4604e-05 0.00680892 0.000524618)
(7.32628e-06 0.00164732 0.000162886)
(-0.0164723 0.0526155 0.0060452)
(-0.00339063 0.0227245 0.00156334)
(-0.00113778 0.008025 0.000445203)
(-0.000133573 0.00187486 9.53209e-05)
(-0.00588828 0.0327635 0.00316816)
(-0.0010149 0.0199723 0.000901426)
(-0.000268332 0.00728507 0.000256108)
(-6.17029e-05 0.00174088 8.55011e-05)
(-0.0176347 0.0535635 0.00235658)
(-0.00377331 0.0230118 0.00069453)
(-0.00122647 0.00811419 0.000241379)
(-0.000169529 0.00189005 7.44389e-05)
(-0.00674349 0.033725 0.00131836)
(-0.00128493 0.0202735 0.000439029)
(-0.000326099 0.00739378 0.000145402)
(-7.9915e-05 0.00176466 5.44585e-05)
(1.03448e-05 0.00107318 3.63634e-05)
(3.15382e-06 0.000376994 7.19574e-06)
(8.58982e-07 0.000124048 1.48362e-06)
(2.26773e-07 3.77804e-05 3.25018e-07)
(6.99607e-08 8.18819e-06 8.84577e-08)
(2.00444e-05 0.00110697 1.71295e-05)
(5.20558e-06 0.000383121 3.43102e-06)
(1.37141e-06 0.000125262 7.26243e-07)
(3.59379e-07 3.8032e-05 1.63192e-07)
(1.10822e-07 8.23157e-06 4.53513e-08)
(2.44323e-05 0.00108749 4.49331e-05)
(6.80041e-06 0.000384386 9.29169e-06)
(1.86107e-06 0.000126003 2.0837e-06)
(4.96494e-07 3.82691e-05 4.94377e-07)
(1.54397e-07 8.28191e-06 1.43467e-07)
(3.65877e-05 0.00114725 2.8303e-05)
(1.00139e-05 0.000392744 6.10746e-06)
(2.75411e-06 0.000127664 1.47497e-06)
(7.38976e-07 3.86417e-05 3.69569e-07)
(2.31228e-07 8.35034e-06 1.11278e-07)
(2.8498e-05 0.00113559 4.92856e-05)
(7.75886e-06 0.000392986 1.09286e-05)
(2.16642e-06 0.00012807 2.66749e-06)
(5.86548e-07 3.88012e-05 6.72249e-07)
(1.84196e-07 8.38674e-06 2.03346e-07)
(3.94547e-05 0.00120937 4.80566e-05)
(1.20376e-05 0.00040131 1.38393e-05)
(3.41528e-06 0.000129919 3.77323e-06)
(9.29634e-07 3.92529e-05 1.0058e-06)
(2.93501e-07 8.47341e-06 3.14505e-07)
(1.18203e-05 0.00118764 3.51932e-05)
(4.74743e-06 0.000408969 1.22069e-05)
(1.45502e-06 0.000132704 3.55682e-06)
(4.10966e-07 4.00438e-05 9.84069e-07)
(1.3289e-07 8.63445e-06 3.16026e-07)
(5.9409e-06 0.0011965 3.32331e-05)
(2.01341e-06 0.000416454 1.1583e-05)
(6.57382e-07 0.000135513 3.52608e-06)
(1.96383e-07 4.08944e-05 1.01184e-06)
(6.5928e-08 8.81394e-06 3.349e-07)
(1.59888e-05 0.00118211 3.65559e-05)
(6.63102e-06 0.000403498 1.0855e-05)
(2.00436e-06 0.00013095 2.97145e-06)
(5.58539e-07 3.95698e-05 7.94837e-07)
(1.78341e-07 8.54003e-06 2.49602e-07)
(3.52684e-06 0.00115749 3.00644e-05)
(2.19933e-06 0.000404362 9.02172e-06)
(7.21584e-07 0.00013184 2.54057e-06)
(2.0735e-07 3.98711e-05 6.92919e-07)
(6.72314e-08 8.60499e-06 2.20433e-07)
(3.30936e-05 0.00117072 4.4294e-05)
(9.69396e-06 0.000397215 1.08198e-05)
(2.69173e-06 0.000129253 2.76613e-06)
(7.23736e-07 3.91296e-05 7.15643e-07)
(2.26685e-07 8.4534e-06 2.20076e-07)
(7.54359e-06 0.00114876 3.5173e-05)
(2.91415e-06 0.000399898 1.03946e-05)
(8.58415e-07 0.000130413 2.85665e-06)
(2.35703e-07 3.94743e-05 7.64713e-07)
(7.45257e-08 8.52464e-06 2.39622e-07)
(4.96922e-06 0.00118137 3.18227e-05)
(2.91004e-06 0.000409774 1.01481e-05)
(1.00384e-06 0.000133284 2.90565e-06)
(2.9802e-07 4.02459e-05 8.00893e-07)
(9.86247e-08 8.67899e-06 2.57338e-07)
(2.61229e-06 0.00117509 2.80633e-05)
(1.50353e-06 0.000410004 8.55268e-06)
(5.29252e-07 0.000133757 2.49097e-06)
(1.5903e-07 4.04341e-05 6.99198e-07)
(5.30582e-08 8.72222e-06 2.27655e-07)
(2.06432e-06 0.00120999 2.78927e-05)
(1.00922e-06 0.000417477 9.05802e-06)
(4.18965e-07 0.000135818 2.74086e-06)
(1.39341e-07 4.10063e-05 7.89941e-07)
(4.91741e-08 8.84025e-06 2.6294e-07)
(-2.27378e-07 0.00120297 2.37337e-05)
(3.00517e-07 0.000417048 7.36002e-06)
(1.6006e-07 0.000135883 2.21141e-06)
(5.66783e-08 4.10617e-05 6.39227e-07)
(2.05335e-08 8.85552e-06 2.13705e-07)
(8.27438e-06 0.00103732 3.42139e-05)
(2.57315e-06 0.000369872 6.42322e-06)
(6.94018e-07 0.000122658 1.27995e-06)
(1.80295e-07 3.75043e-05 2.72751e-07)
(5.48277e-08 8.14221e-06 7.25523e-08)
(9.46062e-06 0.000995206 1.47607e-05)
(2.60836e-06 0.000364463 2.61223e-06)
(6.6275e-07 0.000121712 5.11116e-07)
(1.65767e-07 3.73229e-05 1.07976e-07)
(4.91223e-08 8.11244e-06 2.85412e-08)
(2.48665e-05 0.00105322 3.9024e-05)
(6.68988e-06 0.000375781 7.88163e-06)
(1.74447e-06 0.000124225 1.68787e-06)
(4.49698e-07 3.78917e-05 3.84788e-07)
(1.36639e-07 8.2156e-06 1.08344e-07)
(2.72196e-05 0.00101171 1.65721e-05)
(6.87907e-06 0.000369544 3.19262e-06)
(1.70752e-06 0.000123025 6.70501e-07)
(4.25783e-07 3.76423e-05 1.50773e-07)
(1.26515e-07 8.17227e-06 4.19974e-08)
(2.50421e-05 0.00108971 4.07274e-05)
(7.04777e-06 0.00038513 8.43333e-06)
(1.90326e-06 0.000126471 1.93841e-06)
(5.02534e-07 3.84439e-05 4.70432e-07)
(1.55196e-07 8.32131e-06 1.38867e-07)
(3.67498e-05 0.00104861 2.3519e-05)
(8.95116e-06 0.00037902 4.97489e-06)
(2.22511e-06 0.000125266 1.16229e-06)
(5.61023e-07 3.81779e-05 2.84797e-07)
(1.68631e-07 8.27291e-06 8.44693e-08)
(3.40992e-05 0.00111597 4.8064e-05)
(8.89147e-06 0.000392266 1.11745e-05)
(2.33421e-06 0.000128318 2.80133e-06)
(6.09932e-07 3.89222e-05 7.1643e-07)
(1.87886e-07 8.41534e-06 2.18475e-07)
(2.887e-05 0.00108839 3.24356e-05)
(6.80361e-06 0.00038887 7.35917e-06)
(1.68615e-06 0.00012757 1.81879e-06)
(4.26886e-07 3.87405e-05 4.61222e-07)
(1.28974e-07 8.38054e-06 1.39786e-07)
(1.70555e-05 0.00113201 4.39229e-05)
(4.69521e-06 0.000396022 1.20098e-05)
(1.25401e-06 0.000129357 3.20382e-06)
(3.30272e-07 3.91966e-05 8.4404e-07)
(1.02281e-07 8.46966e-06 2.61605e-07)
(-0.00252332 0.862838 0.140596)
(-0.0146339 1.31957 0.337538)
(0.00252541 0.879861 0.145743)
(-0.034328 1.31222 0.334363)
(0.0201724 0.898723 0.161177)
(-0.0416927 1.29274 0.328499)
(0.0561454 0.891364 0.181236)
(-0.0281995 1.258 0.328556)
(0.0845249 0.827208 0.17515)
(0.0243504 1.17534 0.322418)
(-0.0258396 0.751066 0.0575966)
(-0.0758777 0.858035 0.103714)
(0.0521532 0.755237 0.105304)
(0.0346989 0.908269 0.18485)
(-0.05713 0.755003 0.0259976)
(-0.120717 0.847437 0.0477607)
(-0.0771849 0.770247 0.00441563)
(-0.1363 0.854903 0.01254)
(-0.0613141 0.814367 0.901227)
(-0.0175112 0.145329 0.254725)
(-0.00589279 0.034223 0.0848416)
(-0.00270309 0.00930404 0.0385775)
(-0.00176576 0.00210301 0.0250115)
(-0.0164547 0.889129 0.251404)
(-0.00983349 0.269322 0.0806323)
(-0.00226655 0.0722838 0.0298978)
(-0.00113417 0.0199406 0.0133818)
(-0.000762387 0.00454325 0.00820333)
(-0.18915 0.810506 0.88471)
(-0.0537554 0.142822 0.249226)
(-0.0181612 0.03357 0.0832822)
(-0.00832821 0.00913236 0.0378616)
(-0.00544997 0.00206465 0.024657)
(-0.0398552 0.881632 0.255885)
(-0.015535 0.265715 0.0879491)
(-0.00604299 0.0714162 0.030642)
(-0.00280543 0.0197063 0.0138092)
(-0.00184329 0.00448245 0.00870056)
(-0.318682 0.797888 0.835266)
(-0.0909914 0.140052 0.235555)
(-0.0309202 0.0329665 0.0789733)
(-0.014238 0.0090025 0.0360177)
(-0.00931887 0.0020416 0.0234886)
(-0.0693568 0.864551 0.247181)
(-0.0274457 0.260907 0.0846221)
(-0.0103877 0.0703719 0.0294704)
(-0.00492063 0.0194918 0.0132779)
(-0.00314988 0.00444906 0.00838516)
(-0.430155 0.771047 0.756538)
(-0.123707 0.134039 0.213802)
(-0.04243 0.0316525 0.0721249)
(-0.0196599 0.00870918 0.0330576)
(-0.012899 0.00198617 0.0215934)
(-0.0892066 0.832814 0.236288)
(-0.0364689 0.252476 0.0797567)
(-0.0139592 0.068567 0.0275819)
(-0.00662874 0.0191332 0.0123737)
(-0.00424715 0.0043892 0.00777803)
(-0.543853 0.722467 0.631136)
(-0.158544 0.123558 0.179434)
(-0.0550575 0.0294475 0.0611488)
(-0.025736 0.00820443 0.0282377)
(-0.0169755 0.00188495 0.0184996)
(-0.1097 0.7789 0.218612)
(-0.046572 0.238904 0.0727022)
(-0.0180369 0.0656568 0.0250834)
(-0.00864841 0.0185163 0.0112555)
(-0.00560353 0.0042734 0.00707141)
(-0.659934 0.646126 0.304349)
(-0.200115 0.116428 0.0916157)
(-0.0710703 0.0290746 0.0321026)
(-0.0336438 0.00831744 0.015017)
(-0.0223146 0.00192696 0.00986523)
(-0.171194 0.647519 0.104806)
(-0.0648857 0.21135 0.0355412)
(-0.0241931 0.0604903 0.0122791)
(-0.0114564 0.0175796 0.00551985)
(-0.00743957 0.00412864 0.00349448)
(-0.608664 0.667605 0.449037)
(-0.18272 0.1176 0.132421)
(-0.0642603 0.0288274 0.0458105)
(-0.0302143 0.0081594 0.0212826)
(-0.0199861 0.0018845 0.0139631)
(-0.135288 0.684961 0.155427)
(-0.0552812 0.220986 0.0521482)
(-0.0210799 0.0621979 0.0181464)
(-0.0100432 0.0178102 0.00821892)
(-0.00651408 0.00414496 0.00520966)
(-0.684867 0.638888 0.179734)
(-0.208936 0.116655 0.05482)
(-0.0746117 0.0293923 0.0193796)
(-0.0354427 0.00845265 0.00912089)
(-0.0235294 0.00196035 0.0060013)
(-0.191338 0.635722 0.0582888)
(-0.0703792 0.207676 0.0204606)
(-0.0259183 0.0598534 0.00705031)
(-0.0122118 0.0175372 0.00318059)
(-0.00794252 0.00414269 0.00203302)
(-0.715369 0.638121 0.0613175)
(-0.217134 0.116196 0.0187196)
(-0.0777567 0.0293186 0.00666242)
(-0.0369734 0.00844744 0.00315378)
(-0.0245503 0.00195829 0.00208024)
(-0.198768 0.636058 0.0212586)
(-0.0732139 0.20736 0.00687801)
(-0.0270614 0.0598301 0.00225726)
(-0.0123934 0.0176083 0.00111356)
(-0.00820129 0.00416329 0.00064378)