/*--------------------------------*- C++ -*----------------------------------*\
| =========                 |                                                 |
| \\      /  F ield         | OpenFOAM: The Open Source CFD Toolbox           |
|  \\    /   O peration     | Version:  2306                                  |
|   \\  /    A nd           | Website:  www.openfoam.com                      |
|    \\/     M anipulation  |                                                 |
\*---------------------------------------------------------------------------*/
FoamFile
{
    version     2.0;
    format      ascii;
    arch        "LSB;label=32;scalar=64";
    class       volVectorField;
    location    "1.2";
    object      flux;
}
// * * * * * * * * * * * * * * * * * * * * * * * * * * * * * * * * * * * * * //

dimensions      [0 1 -1 1 0 0 0];

internalField   nonuniform List<vector> 
5712
(
(-0.293138 0.505925 0.32302)
(-0.374752 0.291923 1.05896)
(-0.691308 0.816086 0.257564)
(-1.01351 0.537566 1.08506)
(-1.03613 0.893036 0.1919)
(-1.78524 0.663313 1.11733)
(-0.791777 1.39235 0.299717)
(-2.01223 1.74039 1.70655)
(-0.641872 1.83536 0.367714)
(-1.40949 2.26072 2.34205)
(-0.960003 1.19145 0.366913)
(-1.4624 1.03943 1.71527)
(-0.858365 0.755917 0.355824)
(-1.13074 0.602388 1.42898)
(-0.378525 0.380993 0.370041)
(-0.434208 0.258194 1.27986)
(-0.664167 0.836357 0.223765)
(-0.762647 0.843131 0.141401)
(-0.850433 0.726096 0.599435)
(-0.844064 0.846333 0.359097)
(-0.665637 1.12906 0.217301)
(-0.818786 0.993987 0.117939)
(-0.977028 1.31656 0.648408)
(-0.874808 1.05108 0.322137)
(-0.241658 0.353184 0.248474)
(-0.185041 0.250384 0.184457)
(-0.299872 0.199876 0.794626)
(-0.204673 0.149473 0.570012)
(-0.562399 0.418527 0.188108)
(-0.456535 0.339257 0.139789)
(-0.954451 0.257007 0.780996)
(-0.698872 0.210309 0.577698)
(-0.737293 0.785736 0.442415)
(-0.769851 0.804502 0.188703)
(-0.82726 0.791454 0.384916)
(-0.802411 0.649715 0.173616)
(-0.300964 0.602502 0.180554)
(-0.230069 0.482163 0.417536)
(-1.73069 0.48146 1.49562)
(-2.3172 0.550487 0.401911)
(-1.12176 0.774006 0.537001)
(-1.37609 0.774328 0.175992)
(-2.30958 1.64364 1.91009)
(-3.00063 1.70426 0.513269)
(-1.19657 1.14988 0.495803)
(-1.37058 1.19008 0.163982)
(-1.29207 0.675164 1.07828)
(-1.82465 0.56948 0.332384)
(-1.13282 0.724595 0.554279)
(-1.49813 0.514511 0.189944)
(-0.668256 0.337143 0.946547)
(-1.07155 0.349477 0.299184)
(-0.131813 0.285492 0.30118)
(-0.0447777 0.423981 0.149356)
(-0.138075 0.150064 0.413412)
(-0.0501033 0.187822 0.1635)
(-0.396927 0.389576 0.326671)
(-0.161394 0.562622 0.175912)
(-0.53966 0.234304 0.401731)
(-0.200161 0.280804 0.156882)
(-0.390882 0.425103 0.405889)
(-0.148922 0.755427 0.23301)
(-0.406453 0.297401 0.346296)
(-0.131084 0.503078 0.153358)
(-0.687961 0.112173 0.498317)
(-0.220041 0.296789 0.181329)
(-0.886506 0.0935842 0.169933)
(-0.300685 0.220584 0.060001)
(-1.05376 0.736902 0.569895)
(-0.529906 0.91567 0.402727)
(-0.965273 0.772447 0.345831)
(-0.571679 0.919105 0.256137)
(-0.97621 0.896015 0.610552)
(-0.63258 0.900331 0.504303)
(-0.859913 0.924546 0.330041)
(-0.640008 0.896296 0.285125)
(-0.770216 0.665847 0.33775)
(-0.459653 0.909374 0.234947)
(-0.773425 0.673827 0.490938)
(-0.400519 0.893237 0.33918)
(-0.997142 0.766397 0.222878)
(-0.631722 0.917178 0.164934)
(-1.00022 0.769357 0.106882)
(-0.636092 0.91761 0.087996)
(-0.909509 0.939539 0.20795)
(-0.673986 0.889488 0.179155)
(-0.920723 0.940306 0.100203)
(-0.675065 0.883529 0.0976282)
(-0.830788 0.619019 0.220166)
(-0.526021 0.915993 0.147598)
(-0.860359 0.599893 0.107615)
(-0.537815 0.921091 0.0695958)
(-0.792418 0.779447 0.309)
(-0.348717 0.938981 0.170279)
(-0.372281 0.983919 0.238135)
(-0.460733 1.40806 0.281679)
(-0.79497 0.827013 0.434175)
(-0.383168 1.09745 0.310406)
(-0.329312 0.976399 0.354058)
(-0.473254 1.54578 0.489417)
(-0.838339 0.738552 0.199589)
(-0.345249 0.820738 0.0961466)
(-0.418501 0.98687 0.137441)
(-0.460436 1.34608 0.158818)
(-0.880096 0.731316 0.0953164)
(-0.352944 0.765882 0.0405234)
(-0.45345 0.997754 0.0565852)
(-0.479026 1.33334 0.0576915)
(-0.170441 0.256836 0.415521)
(-0.187058 0.343559 0.740438)
(-0.0581499 0.661505 0.278423)
(-0.118193 1.18565 0.822395)
(-0.494307 0.31288 0.480935)
(-0.524014 0.362003 0.721661)
(-0.195864 0.83907 0.339583)
(-0.359114 1.32712 0.854631)
(-0.633526 0.380616 0.538291)
(-0.697817 0.386574 0.647897)
(-0.319094 1.04582 0.431034)
(-0.548308 1.44713 0.823726)
(-0.490337 1.02399 0.579836)
(-0.0185445 1.06812 0.655138)
(-0.574956 0.895654 0.468699)
(-0.735096 0.892959 0.460096)
(-0.413509 1.35847 0.495482)
(-0.00384583 1.06694 0.658533)
(-0.280544 1.03126 0.646352)
(-0.529527 0.909561 0.668956)
(-0.866916 0.808588 0.704258)
(-0.645146 1.57382 0.999269)
(-0.435105 0.976315 0.536456)
(-0.538927 0.984742 0.442445)
(-0.486239 0.902248 0.404271)
(-0.433085 0.935444 0.457216)
(-0.68598 1.76766 0.69514)
(-0.159433 0.0955711 0.864822)
(-0.128071 0.115921 0.779487)
(-0.0924306 0.210141 0.998193)
(-0.090888 0.505633 0.970949)
(-0.444665 0.133913 0.792098)
(-0.363695 0.154905 0.73998)
(-0.277467 0.282583 0.981498)
(-0.261651 0.551914 0.947086)
(-0.549081 0.194631 0.683567)
(-0.445296 0.165816 0.673099)
(-0.362033 0.375193 0.914685)
(-0.320976 0.612974 0.907926)
(-0.223335 1.03707 0.487194)
(-0.291275 0.991463 0.39081)
(-0.472594 0.95402 0.489256)
(-0.496915 0.905385 0.439129)
(-0.596361 0.849603 0.551683)
(-0.539478 0.746122 0.513353)
(-0.676335 0.656806 0.609289)
(-0.577431 0.566082 0.601904)
(-0.486953 0.483809 0.830252)
(-0.410445 0.700048 0.868647)
(-0.375355 0.953715 0.452164)
(-0.37732 0.894201 0.405126)
(-0.5006 0.982369 0.459787)
(-0.368509 0.940974 0.467806)
(-0.465527 0.877386 0.493466)
(-0.313982 0.802476 0.551021)
(-0.412553 0.749952 0.564109)
(-0.263794 0.661876 0.660376)
(-0.500903 0.510913 0.730757)
(-0.319153 0.694047 0.875219)
(-0.422969 0.986209 0.381401)
(-0.165666 1.10221 0.301096)
(-0.370491 0.987582 0.256168)
(-0.383419 1.13593 0.319829)
(-0.517037 0.934932 0.489563)
(-0.653271 0.956055 0.583222)
(-0.571734 0.917601 0.333968)
(-0.816961 0.971132 0.519896)
(-0.300287 0.918707 0.226901)
(-0.316127 0.930749 0.290733)
(-0.378852 0.909941 0.345224)
(-0.0845557 0.901035 0.2878)
(-0.332959 0.981778 0.0650981)
(-0.624273 1.14338 0.209044)
(-0.317079 0.979455 0.0279063)
(-0.674627 1.14483 0.0713737)
(-0.56749 0.893598 0.167325)
(-1.01255 0.987417 0.343723)
(-0.577603 0.888298 0.0561722)
(-1.08057 0.987548 0.114597)
(-0.258678 0.922422 0.0383174)
(-0.546734 0.928673 0.183872)
(-0.237597 0.923687 0.0157878)
(-0.587951 0.929377 0.0616696)
(-0.361658 0.78946 0.228236)
(-0.256964 0.749043 0.230329)
(-0.51336 0.514505 0.260863)
(-0.190617 0.579544 0.168626)
(-0.360856 0.785739 0.366742)
(-0.034309 0.731674 0.299336)
(-0.441581 0.508323 0.431607)
(0.00188724 0.588868 0.307843)
(-0.351519 0.799185 0.0603373)
(-0.39904 0.745306 0.12542)
(-0.539641 0.524994 0.129822)
(-0.243027 0.578699 0.0779225)
(-0.294108 0.802586 0.0675913)
(-0.475162 0.73757 0.0866167)
(-0.480948 0.541199 0.0951662)
(-0.322113 0.577921 0.0722079)
(-0.097445 0.073911 0.62928)
(-0.0830595 0.0462741 0.386193)
(-0.0697506 0.0302419 0.123545)
(-0.0708178 0.0406858 0.708366)
(-0.0629223 0.0252523 0.411563)
(-0.0536546 0.0230831 0.135604)
(-0.283783 0.104224 0.604538)
(-0.218242 0.0558266 0.382272)
(-0.178392 0.0396577 0.130805)
(-0.188823 0.0782148 0.694697)
(-0.141332 0.058966 0.411528)
(-0.115689 0.0479633 0.135557)
(-0.333396 0.114921 0.555528)
(-0.270803 0.085089 0.351891)
(-0.242578 0.0809344 0.116684)
(-0.224822 0.135488 0.674195)
(-0.16972 0.103614 0.411667)
(-0.154325 0.0894242 0.138174)
(-0.243815 0.901066 0.269828)
(-0.199877 0.765736 0.156469)
(-0.189225 0.67827 0.0458401)
(-0.422236 0.844971 0.364636)
(-0.293949 0.740214 0.243417)
(-0.2359 0.665828 0.0839156)
(-0.415836 0.616258 0.44854)
(-0.281323 0.539538 0.309221)
(-0.214444 0.49663 0.10675)
(-0.432648 0.435158 0.527542)
(-0.316753 0.350227 0.345739)
(-0.26399 0.312746 0.115576)
(-0.294483 0.208448 0.664726)
(-0.178697 0.140918 0.420386)
(-0.131337 0.113705 0.146652)
(-0.605523 0.825656 0.311618)
(-0.488256 0.716975 0.185979)
(-0.398946 0.636355 0.0626474)
(-0.405508 0.868486 0.35568)
(-0.31367 0.74132 0.258826)
(-0.240985 0.652336 0.0985918)
(-0.378536 0.65967 0.434)
(-0.270835 0.52605 0.320471)
(-0.197093 0.452684 0.119051)
(-0.332968 0.441048 0.538068)
(-0.221164 0.32428 0.379849)
(-0.153312 0.275867 0.137278)
(-0.367178 0.2203 0.674144)
(-0.192569 0.138971 0.428273)
(-0.0975043 0.105703 0.153453)
(-0.438547 1.12803 0.0112427)
(-0.588348 1.0915 0.0818971)
(-0.351711 1.23961 0.114461)
(-0.448371 1.10004 0.166516)
(-0.485545 1.27897 0.0937566)
(-0.705531 1.10105 0.106245)
(-0.438025 1.55972 0.233497)
(-0.627891 1.17057 0.220315)
(-0.000461798 0.860711 0.0239063)
(-0.028104 0.858757 0.0393238)
(0.0206898 0.853763 0.0255038)
(-0.00511012 0.781442 0.0409093)
(-0.120696 0.967748 0.0183789)
(-0.132694 0.896772 0.0543287)
(-0.0527776 0.956298 0.0334454)
(-0.0292078 0.806009 0.0713521)
(-0.0332552 0.94641 0.124327)
(-0.100582 0.93064 0.0612453)
(-0.388587 0.86956 0.159787)
(-0.560505 0.92039 0.0933481)
(-0.2668 1.13645 0.0831568)
(-0.15417 1.0321 0.143702)
(-0.420848 1.16671 0.135013)
(-0.418004 1.18963 0.024271)
(-0.660571 1.28061 0.256558)
(-0.728001 1.33041 0.0525473)
(0.0224836 0.964034 -0.0933964)
(0.171909 1.00513 0.00936661)
(-0.315442 0.863027 0.0619399)
(-0.295496 0.840323 0.0379387)
(-0.297485 1.03918 0.0366558)
(-0.228463 1.06979 0.0257036)
(-0.0408754 0.656998 0.373508)
(-0.0213043 0.35433 0.160187)
(-0.0288085 0.618735 0.101136)
(-0.0130197 0.392009 0.0592069)
(-0.0795546 0.668484 0.379604)
(-0.00606887 0.357508 0.165757)
(0.0103643 0.618872 0.127878)
(0.0309049 0.389686 0.0748828)
(-0.371691 0.66079 0.375263)
(-0.0899528 0.358954 0.1773)
(-0.257669 0.619226 0.182449)
(-0.0656448 0.406232 0.119926)
(-0.370739 0.604959 0.127228)
(-0.110943 0.425044 0.0859972)
(-0.446677 0.613686 0.0503119)
(-0.139027 0.420995 0.0483147)
(-0.374575 0.860204 0.51809)
(-0.48707 0.722851 0.456384)
(-0.343453 0.864242 0.240088)
(-0.473018 0.727415 0.247224)
(-0.61142 0.959227 0.578299)
(-0.632761 0.856406 0.539222)
(-0.580331 0.979172 0.282242)
(-0.596032 0.854438 0.282372)
(-0.229508 0.838521 0.204051)
(-0.367905 0.597885 0.208197)
(-0.266628 0.8658 0.429544)
(-0.366778 0.585483 0.353211)
(-0.362594 0.889767 0.137523)
(-0.454282 0.727291 0.144805)
(-0.397836 0.904127 0.0686736)
(-0.456796 0.72009 0.0824776)
(-0.603569 1.01179 0.168784)
(-0.583554 0.851549 0.167526)
(-0.630563 1.01612 0.0847495)
(-0.583913 0.842354 0.0932751)
(-0.230395 0.835894 0.113136)
(-0.354602 0.602122 0.124089)
(-0.248794 0.835894 0.0551236)
(-0.358945 0.598808 0.0750336)
(0.0133864 0.541993 0.173843)
(-0.039177 0.359748 0.111909)
(-0.273433 0.467492 0.170662)
(-0.151649 0.305101 0.110193)
(0.0332184 0.500121 0.276807)
(-0.0239188 0.3216 0.148714)
(-0.253399 0.446222 0.258221)
(-0.133182 0.284985 0.154326)
(-0.00416482 0.558274 0.0986558)
(-0.0496657 0.382348 0.0782517)
(-0.278432 0.476616 0.105077)
(-0.165498 0.314516 0.0689971)
(-0.0200092 0.560171 0.0471556)
(-0.0587989 0.395353 0.044289)
(-0.277726 0.475584 0.0635166)
(-0.169728 0.316603 0.0381564)
(0.0274036 0.102819 0.43251)
(0.0311456 0.0536932 0.278202)
(-0.00561382 0.190695 0.203306)
(0.00125262 0.107797 0.192208)
(0.114458 0.109128 0.43197)
(0.113432 0.0647973 0.289173)
(0.0110465 0.20255 0.203804)
(0.0193183 0.126638 0.191569)
(0.0270553 0.133122 0.453726)
(0.0781189 0.0962082 0.310076)
(-0.0547239 0.223222 0.206758)
(-0.026992 0.161895 0.188209)
(0.404097 0.511211 0.568999)
(0.397352 0.806333 0.63833)
(0.216037 0.366785 0.49945)
(0.167359 0.351249 0.319083)
(0.0251434 0.255807 0.16443)
(0.431628 0.781517 0.605507)
(0.424713 0.533458 0.53516)
(0.163722 0.308128 0.474615)
(0.241244 0.309919 0.37246)
(0.041366 0.210849 0.215785)
(-0.432253 0.824125 0.565219)
(-0.32963 0.638002 0.490482)
(-0.277052 0.500398 0.375926)
(-0.244546 0.386539 0.274347)
(-0.130752 0.24978 0.15436)
(0.029269 0.028696 0.215185)
(0.0250134 0.0200798 0.176098)
(0.0033534 0.0661513 0.189016)
(0.00107483 0.0498474 0.199388)
(0.0936188 0.0389615 0.229123)
(0.0844069 0.0252856 0.179254)
(0.0110961 0.0877266 0.194077)
(0.00479311 0.0690743 0.200432)
(0.0952027 0.0657924 0.251549)
(0.105792 0.046811 0.190716)
(-0.0134671 0.121921 0.20129)
(-0.019174 0.0976444 0.203992)
(0.201712 0.779698 0.456511)
(0.0796006 0.728049 0.326178)
(0.308952 0.515652 0.403289)
(0.178558 0.472735 0.278624)
(0.133039 0.327821 0.300059)
(0.0923405 0.312596 0.235522)
(0.151001 0.274453 0.262914)
(0.121935 0.235518 0.21421)
(-0.00134107 0.178988 0.190475)
(-0.0284214 0.143243 0.207304)
(-0.158596 0.739779 0.380499)
(-0.0987266 0.649643 0.332427)
(-0.0475355 0.560815 0.319959)
(0.0315808 0.470159 0.276404)
(-0.0373695 0.42814 0.257907)
(0.026326 0.358726 0.227898)
(-0.0523195 0.322791 0.210764)
(-0.00439923 0.272041 0.199879)
(-0.0532873 0.217792 0.148057)
(-0.0575269 0.200462 0.196501)
(-0.205706 0.58392 0.285162)
(-0.182776 0.449435 0.194415)
(-0.389192 0.592663 0.187431)
(-0.232088 0.444956 0.116057)
(-0.330472 0.717961 0.388813)
(-0.322182 0.577149 0.300663)
(-0.499383 0.72298 0.266652)
(-0.39831 0.577915 0.218228)
(-0.290868 0.484851 0.144861)
(-0.16556 0.371249 0.0876639)
(-0.142962 0.466804 0.212209)
(-0.136895 0.367511 0.154289)
(-0.458678 0.596122 0.183953)
(-0.200534 0.441725 0.0881438)
(-0.503285 0.59329 0.0618756)
(-0.22436 0.44181 0.034859)
(-0.556627 0.723747 0.20261)
(-0.40703 0.593742 0.148476)
(-0.593187 0.718266 0.0649418)
(-0.43781 0.593517 0.0543246)
(-0.354422 0.495827 0.152268)
(-0.133921 0.368299 0.0671157)
(-0.396093 0.495195 0.0553031)
(-0.155149 0.373144 0.027964)
(-0.209119 0.372492 0.110082)
(-0.154247 0.295101 0.0965644)
(-0.136642 0.255254 0.0855689)
(-0.19801 0.248837 0.120395)
(-0.130417 0.356566 0.155045)
(-0.139792 0.285231 0.13888)
(-0.114684 0.243484 0.109054)
(-0.182932 0.233658 0.152574)
(-0.243079 0.389293 0.112837)
(-0.15013 0.302308 0.0686807)
(-0.154865 0.262102 0.0628852)
(-0.227789 0.262936 0.0825754)
(-0.299025 0.398018 0.0299209)
(-0.162639 0.302274 0.0131934)
(-0.202275 0.27197 0.000578735)
(-0.234108 0.266575 0.0117048)
(0.0226563 0.0492837 0.117666)
(0.0223262 0.04196 0.0494724)
(0.0243152 0.0340029 0.0146301)
(0.00194124 0.209249 0.128869)
(0.0079096 0.109401 0.0344885)
(0.00853716 0.087697 0.00926827)
(0.0822331 0.0483753 0.123495)
(0.0812741 0.0462105 0.0552262)
(0.0787185 0.0401284 0.0169978)
(0.00913115 0.230588 0.131256)
(0.0226664 0.131124 0.0367513)
(0.0220028 0.108848 0.0103675)
(0.107249 0.0682313 0.124142)
(0.110359 0.0737052 0.0589958)
(0.108846 0.0736514 0.0157427)
(-0.011754 0.26094 0.133446)
(0.0225135 0.16708 0.0388889)
(0.0288917 0.145261 0.00945497)
(0.0361897 0.647788 0.208472)
(0.0298944 0.569996 0.112121)
(0.0179871 0.520385 0.028623)
(0.116467 0.42507 0.17109)
(0.114747 0.386338 0.086361)
(0.103773 0.364325 0.0224466)
(0.0923467 0.297401 0.151343)
(0.0993093 0.275075 0.0744791)
(0.0952675 0.265158 0.0210171)
(0.115201 0.242621 0.135753)
(0.115283 0.221084 0.0643661)
(0.108775 0.208549 0.0149464)
(-0.032464 0.304175 0.13682)
(0.0102856 0.209735 0.0395981)
(0.0130946 0.184164 0.00671726)
(-0.143189 0.559752 0.25416)
(-0.0820349 0.481025 0.134205)
(-0.0455387 0.431939 0.0391805)
(0.021854 0.397662 0.210022)
(0.0555938 0.343175 0.106653)
(0.072953 0.313464 0.0306762)
(0.024061 0.315059 0.175436)
(0.0640819 0.271202 0.0876909)
(0.0805972 0.248294 0.0259986)
(0.0119682 0.287515 0.15097)
(0.0530841 0.239074 0.0665234)
(0.0641334 0.2128 0.0172857)
(-0.0603969 0.375228 0.149174)
(0.0134432 0.238085 0.0379371)
(0.0217505 0.206181 0.00957615)
(0.000940409 0.192335 0.0586257)
(0.000924771 0.112949 0.0200697)
(0.000932307 0.0697782 0.00475136)
(0.00134423 0.0455406 -0.00285374)
(0.00854079 0.215322 0.024443)
(0.0041469 0.122153 0.00872046)
(0.0030379 0.0734422 0.00253084)
(0.00249834 0.0468405 -0.000355024)
(0.000467219 0.193486 0.0616732)
(0.00165923 0.113051 0.0216754)
(0.00402636 0.0700035 0.00606169)
(0.00542534 0.0458022 -0.00132114)
(0.0136112 0.219907 0.0306146)
(0.0073047 0.124753 0.0116721)
(0.00772804 0.0752988 0.00542912)
(0.00701058 0.0479147 0.00236779)
(-0.00693344 0.193528 0.0654722)
(7.10871e-06 0.112356 0.0236322)
(0.00588042 0.0711761 0.00851064)
(0.0100191 0.046663 0.00129383)
(0.00425735 0.224609 0.0506229)
(0.00518068 0.126564 0.0211598)
(0.00615336 0.0781075 0.00691514)
(0.00620274 0.0494475 0.00120508)
(-7.76521e-06 0.241127 0.0361526)
(0.00281034 0.133513 0.0178546)
(0.00235711 0.0784452 0.00404948)
(0.00210579 0.0494802 -0.00136507)
(-0.00761598 0.247544 0.0304628)
(-0.00099716 0.138187 0.0176596)
(0.00240787 0.0800593 0.00819449)
(0.00379764 0.0505375 0.00395419)
(-0.030294 0.205808 0.0521115)
(-0.00704608 0.119556 0.0210837)
(0.00024869 0.0745268 0.00551502)
(0.00463168 0.0478685 -0.00361523)
(-0.0454746 0.172559 0.0434123)
(-0.0110306 0.106792 0.0172639)
(-0.00250829 0.0691743 0.00692056)
(0.0087756 0.0456797 -0.00306886)
(-0.0202696 0.182216 0.0628886)
(-0.00336227 0.109132 0.0228751)
(0.0029154 0.0702788 0.00745155)
(0.00826158 0.045588 -0.00151547)
(-0.0370154 0.160131 0.0556469)
(-0.00840938 0.101124 0.0201969)
(-0.00288221 0.0666591 0.00785905)
(0.00733864 0.0441996 -0.00487249)
(-0.0325238 0.221602 0.0398195)
(-0.00816642 0.127366 0.0182264)
(0.00135083 0.0772287 0.00591453)
(0.00670275 0.0491828 -0.0013961)
(-0.0511146 0.180019 0.0319074)
(-0.0130177 0.110889 0.0142464)
(-0.00272657 0.0706905 0.00672955)
(0.0105293 0.04675 8.02967e-05)
(-0.0359097 0.230279 0.0268759)
(-0.0101137 0.132589 0.014502)
(0.00144194 0.0792796 0.00715118)
(0.00837868 0.0504822 0.00365346)
(-0.054928 0.183311 0.0202687)
(-0.0146757 0.113787 0.0109243)
(-0.00331083 0.0721309 0.00633122)
(0.0109559 0.047745 0.00312584)
(0.00052727 0.14755 0.0733436)
(0.000561981 0.0979243 0.024251)
(0.000871722 0.0642765 0.00540269)
(0.00176864 0.0434386 -0.00606016)
(0.00163891 0.101655 0.0701818)
(0.000936601 0.0804441 0.0221407)
(0.000416455 0.0576145 0.00756788)
(0.00158185 0.0407762 -0.00800743)
(0.00306 0.148304 0.0730756)
(0.00208328 0.0977182 0.0244114)
(0.00304147 0.0643729 0.00577028)
(0.00499918 0.0434528 -0.00582184)
(0.00644025 0.105863 0.0680672)
(0.00322205 0.0816202 0.0214825)
(0.00153239 0.0580259 0.00766315)
(0.00435659 0.0410229 -0.00783246)
(-0.0117759 0.152302 0.0713934)
(-0.00206081 0.0980962 0.0241998)
(0.00266748 0.0653019 0.00779419)
(0.00819241 0.044105 -0.00352955)
(-0.0041784 0.118072 0.0637989)
(0.000616383 0.0852246 0.0202309)
(0.00155252 0.0594851 0.00874606)
(0.00758236 0.041984 -0.0060112)
(-0.000873175 0.151664 0.0622833)
(0.00309538 0.0964837 0.0219834)
(0.00480339 0.0647826 0.00963145)
(0.00855121 0.0451795 0.00118304)
(0.0011415 0.128866 0.0698671)
(0.00272308 0.0879433 0.022386)
(0.00118302 0.0615523 0.011601)
(0.00760669 0.0423162 -0.00684828)
(-0.0311807 0.143606 0.0545549)
(-0.0064542 0.0944936 0.019208)
(-0.00174682 0.063832 0.0091841)
(0.0104126 0.0435914 -0.00118757)
(0.00299751 0.0588714 0.053488)
(0.00136004 0.0667134 0.0153823)
(0.000748833 0.0469134 0.00640165)
(0.00130462 0.0142771 -0.0049351)
(0.00523409 0.0149811 0.0208071)
(0.00200909 0.0593576 0.00554684)
(0.000903453 0.0428574 0.00173603)
(0.000665892 0.0144821 -0.000773771)
(0.00641557 0.0668969 0.0558992)
(0.00322863 0.0694256 0.0164309)
(0.00143084 0.0480576 0.00683359)
(0.00322728 0.0150291 -0.00466352)
(0.0135288 0.0240676 0.0219601)
(0.00535656 0.0623008 0.00600805)
(0.00219992 0.0438155 0.00207118)
(0.00167345 0.0147997 -0.000472644)
(0.00470001 0.0823139 0.0579025)
(0.00355249 0.0743028 0.0175837)
(0.00181506 0.0496311 0.00790604)
(0.00521328 0.0150149 -0.00390377)
(0.0176174 0.0400226 0.0228521)
(0.00754075 0.0673678 0.00653304)
(0.00327954 0.0451564 0.0024596)
(0.00259138 0.014983 -0.000137696)
(-0.000890623 0.101797 0.0526547)
(0.00314968 0.0803009 0.0164712)
(0.00220164 0.0523074 0.0087199)
(0.00727824 0.0162797 -0.00280739)
(0.0149208 0.0580558 0.022557)
(0.0081242 0.0732052 0.00672297)
(0.00378449 0.047211 0.0031814)
(0.00320138 0.015646 0.000452242)
(-0.0147545 0.115922 0.0483337)
(0.000165062 0.0860531 0.0160943)
(-0.000137305 0.0556734 0.00884633)
(0.00648305 0.0187191 -0.00120749)
(0.00623103 0.0655068 0.0205387)
(0.00688246 0.0779935 0.00697594)
(0.00315869 0.0491647 0.00404473)
(0.00310178 0.0162387 0.00119161)
(-0.0358436 0.125017 0.0322181)
(-0.00452533 0.0927403 0.011877)
(-0.00119175 0.0571271 0.00523264)
(0.00720756 0.018041 -0.000490902)
(-0.010814 0.0610154 0.0186543)
(0.00117454 0.0838915 0.00821031)
(0.00142453 0.0528818 0.00427172)
(0.00252365 0.0173101 0.00196173)
(-0.0268018 0.121419 0.038177)
(-0.00166721 0.0898213 0.0127828)
(-0.000751081 0.0560954 0.00626063)
(0.00666445 0.0179986 -0.00106328)
(-0.00505097 0.0581934 0.0194354)
(0.0037368 0.0812035 0.00760608)
(0.00236732 0.050991 0.00423116)
(0.00293165 0.0166883 0.00162792)
(-0.043766 0.126706 0.0248895)
(-0.00762502 0.0947471 0.0106319)
(-0.00206638 0.057566 0.00496131)
(0.00783428 0.0169732 0.000589039)
(-0.0156013 0.0606021 0.0157373)
(-0.00109975 0.0860699 0.00793252)
(0.000681478 0.053965 0.00413177)
(0.00228357 0.0174107 0.00225932)
(-0.0494032 0.129292 0.0162191)
(-0.0104059 0.0967013 0.00872686)
(-0.00312274 0.0588538 0.0050618)
(0.0076375 0.0172581 0.00261563)
(-0.0195893 0.0643832 0.0119469)
(-0.00325694 0.088151 0.00716278)
(-0.000196575 0.0552502 0.00420633)
(0.00191834 0.0177858 0.00272924)
(0.000582901 0.0324948 -0.000227054)
(0.000222774 0.0210898 9.24524e-05)
(9.46566e-05 0.01259 7.98114e-05)
(4.47762e-05 0.00655499 4.58216e-05)
(2.67256e-05 0.00201978 2.90957e-05)
(0.000765506 0.0322577 -1.67824e-05)
(0.000331288 0.021063 6.35718e-05)
(0.000150657 0.0126032 4.46563e-05)
(7.34732e-05 0.00656543 2.47927e-05)
(4.44083e-05 0.0020231 1.56109e-05)
(0.00139208 0.0329254 0.000192428)
(0.000513019 0.0212981 0.000276736)
(0.000216267 0.0126786 0.000165388)
(0.000102285 0.00659154 8.81903e-05)
(6.11021e-05 0.00202976 5.49351e-05)
(0.00168958 0.0328705 0.000439988)
(0.000727859 0.021328 0.000273547)
(0.000331743 0.0127199 0.000144355)
(0.000162394 0.00661464 7.45602e-05)
(9.84092e-05 0.00203668 4.60375e-05)
(0.00184316 0.0338399 0.000607204)
(0.000639257 0.0215886 0.000486818)
(0.000265468 0.0127915 0.000267557)
(0.000125208 0.00663711 0.000139769)
(7.47873e-05 0.00204217 8.66171e-05)
(0.0022272 0.0336826 0.00160563)
(0.000951542 0.021631 0.000905355)
(0.000433959 0.0128535 0.000460306)
(0.000212932 0.00667153 0.000235397)
(0.000129245 0.00205246 0.000145102)
(0.00112814 0.0340589 0.00181198)
(0.000476757 0.0219606 0.00103154)
(0.000217165 0.0130252 0.000528717)
(0.000106923 0.00674926 0.000272186)
(6.51141e-05 0.00207448 0.000168515)
(0.000827439 0.0348165 0.00262516)
(0.000287249 0.0224142 0.0013496)
(0.000118442 0.0132607 0.000672078)
(5.61075e-05 0.00685698 0.00034384)
(3.37379e-05 0.0021052 0.000212943)
(0.00177979 0.0347389 0.00093758)
(0.000637726 0.0219308 0.000695252)
(0.000270253 0.0129498 0.000374193)
(0.000128991 0.00670597 0.000194947)
(7.75004e-05 0.00206142 0.00012106)
(0.000855269 0.0368841 0.00102198)
(0.000265765 0.0223242 0.000656955)
(0.000106165 0.0130558 0.000343983)
(4.96038e-05 0.00674175 0.000178228)
(2.95728e-05 0.00207059 0.000110557)
(0.00190331 0.0348957 0.0006809)
(0.000735319 0.0218377 0.000561415)
(0.000325562 0.012875 0.000304073)
(0.000157988 0.00666864 0.000158093)
(9.54443e-05 0.00205057 9.78955e-05)
(0.000819021 0.0368277 0.00129297)
(0.000265488 0.0221779 0.000707393)
(0.000109174 0.0129731 0.000351302)
(5.14832e-05 0.00670371 0.000178499)
(3.07774e-05 0.00205975 0.00010976)
(0.00137738 0.0350137 0.00118595)
(0.00042235 0.0222175 0.000810634)
(0.000165494 0.0131025 0.000433298)
(7.67058e-05 0.00677568 0.000226105)
(4.56703e-05 0.00208124 0.000140688)
(0.000810012 0.0375604 0.00136584)
(0.000234998 0.0226012 0.000775648)
(9.15459e-05 0.0131934 0.000397803)
(4.25672e-05 0.00680413 0.00020534)
(2.54033e-05 0.00208833 0.000127445)
(0.00124289 0.0358399 0.00207532)
(0.000290047 0.0226605 0.00108131)
(9.17918e-05 0.0133237 0.000540552)
(3.81451e-05 0.0068758 0.000277049)
(2.17626e-05 0.00210972 0.00017175)
(0.000688969 0.0384331 0.00173832)
(0.000139824 0.0229969 0.000891751)
(4.07174e-05 0.0133841 0.000445067)
(1.62868e-05 0.00689009 0.000228253)
(9.16097e-06 0.00211279 0.000141609)
(0.000495309 0.033248 -0.000472535)
(0.000173487 0.0211825 4.24039e-05)
(7.13865e-05 0.0125864 5.83835e-05)
(3.32971e-05 0.00654646 3.50025e-05)
(1.97491e-05 0.00201682 2.24232e-05)
(0.000367872 0.0347392 -0.000266187)
(0.00013885 0.0212947 1.11032e-05)
(5.95025e-05 0.0125879 2.20039e-05)
(2.81834e-05 0.00654155 1.33521e-05)
(1.67957e-05 0.00201505 8.55696e-06)
(0.00121971 0.0336649 -0.000196788)
(0.000430107 0.0213487 0.000159752)
(0.000180362 0.0126537 0.000111493)
(8.51261e-05 0.00657354 6.09613e-05)
(5.0785e-05 0.00202415 3.81576e-05)
(0.000954714 0.0350827 -0.000165826)
(0.000361422 0.0214225 5.38419e-05)
(0.000156984 0.01264 4.11158e-05)
(7.49928e-05 0.00656254 2.26201e-05)
(4.49008e-05 0.00202072 1.41469e-05)
(0.00169862 0.0345343 0.000133767)
(0.000532263 0.021625 0.000287857)
(0.000214596 0.0127582 0.000167847)
(0.000100047 0.00661542 8.84642e-05)
(5.94895e-05 0.00203551 5.48479e-05)
(0.00128881 0.0358392 0.000223273)
(0.000491322 0.0216555 0.00019665)
(0.000216309 0.0127317 0.000103225)
(0.000104172 0.00659977 5.26054e-05)
(6.26577e-05 0.00203085 3.2243e-05)
(0.00150128 0.0358332 0.000888316)
(0.000574619 0.0219301 0.000568357)
(0.000255841 0.0128622 0.000289263)
(0.000124074 0.006656 0.000146799)
(7.48381e-05 0.00204646 8.98722e-05)
(0.000874242 0.0367397 0.000617475)
(0.000366761 0.0219036 0.000369251)
(0.000167067 0.012834 0.000182628)
(8.15089e-05 0.00664232 9.18115e-05)
(4.92764e-05 0.00204252 5.59969e-05)
(0.000761223 0.0370329 0.00164547)
(0.000308196 0.0220856 0.000769602)
(0.000140185 0.0129199 0.000365496)
(6.84132e-05 0.0066795 0.000182023)
(4.13505e-05 0.00205286 0.000110951)
(-0.00774238 0.503522 0.0905916)
(-0.0150428 0.783717 0.205882)
(-0.0135051 0.52077 0.0939031)
(-0.0354919 0.789433 0.205204)
(-0.00473887 0.544029 0.105343)
(-0.0417742 0.793468 0.205095)
(0.0243667 0.553364 0.124541)
(-0.0266804 0.788382 0.212625)
(0.0534261 0.517922 0.12773)
(0.0186969 0.741991 0.21647)
(-0.0187679 0.462764 0.0542633)
(-0.0430783 0.524453 0.0779919)
(0.0363789 0.46896 0.0858564)
(0.0319706 0.560417 0.130055)
(-0.0448045 0.46235 0.0298835)
(-0.0764938 0.514661 0.0393158)
(-0.062002 0.469268 0.0103327)
(-0.091 0.518761 0.0129447)
(-0.031602 0.451151 0.461536)
(-0.00748442 0.0776695 0.111001)
(-0.00170986 0.0167135 0.0256489)
(-0.000382789 0.00377733 0.00578289)
(-9.74809e-05 0.00067311 0.00145357)
(-0.0085778 0.503257 0.126676)
(-0.00449418 0.143892 0.0342811)
(-0.000613712 0.0351484 0.00917022)
(-0.000171353 0.00803079 0.00210306)
(-7.92256e-05 0.00143024 0.000463263)
(-0.0969595 0.451509 0.453429)
(-0.0228323 0.0764474 0.108263)
(-0.00523402 0.016352 0.0250099)
(-0.00116596 0.00368485 0.00559531)
(-0.00029737 0.000655216 0.00141746)
(-0.0197979 0.502545 0.129154)
(-0.00577736 0.142141 0.0381808)
(-0.00147387 0.0346307 0.00947088)
(-0.000317552 0.0078817 0.00222016)
(-8.92476e-05 0.00139253 0.000557472)
(-0.161703 0.448036 0.428125)
(-0.038146 0.0749796 0.101662)
(-0.00877118 0.0159343 0.0234267)
(-0.00196138 0.00358056 0.00523984)
(-0.000499387 0.000635942 0.00133023)
(-0.0323857 0.497568 0.125353)
(-0.0100431 0.139599 0.036839)
(-0.00253021 0.0338906 0.00911007)
(-0.000605819 0.00769554 0.0021247)
(-0.000156473 0.00135888 0.000535504)
(-0.214314 0.434602 0.386127)
(-0.0507068 0.0713052 0.0910379)
(-0.0117148 0.0150483 0.0209469)
(-0.00262966 0.00337869 0.00468734)
(-0.000670908 0.000600386 0.00119182)
(-0.0377101 0.482222 0.121057)
(-0.0126837 0.134335 0.0348226)
(-0.00329474 0.0325521 0.00850472)
(-0.000796081 0.00739016 0.00196695)
(-0.000204745 0.00130497 0.000493428)
(-0.263704 0.402716 0.317565)
(-0.0630265 0.06444 0.0746135)
(-0.0146735 0.0135925 0.017202)
(-0.00331344 0.00306622 0.00385969)
(-0.000849774 0.000546756 0.000983937)
(-0.0419727 0.447739 0.113002)
(-0.0155607 0.125132 0.0316668)
(-0.00415069 0.0304627 0.00765866)
(-0.00101365 0.00694428 0.00176185)
(-0.000263546 0.00122921 0.000441119)
(-0.304044 0.344653 0.145575)
(-0.0749008 0.057397 0.0358276)
(-0.0177026 0.0125262 0.00842132)
(-0.00403862 0.00287841 0.001908)
(-0.00104274 0.00051817 0.000488517)
(-0.0712882 0.353268 0.0548056)
(-0.0224654 0.104026 0.0156026)
(-0.00566917 0.0260748 0.00375053)
(-0.00132974 0.00605879 0.000849199)
(-0.000340725 0.00108499 0.000212352)
(-0.286331 0.362792 0.220017)
(-0.0703451 0.0594436 0.0533596)
(-0.0165466 0.0128138 0.012433)
(-0.00375635 0.00292369 0.00280014)
(-0.000965806 0.000524234 0.000714884)
(-0.0525087 0.382034 0.0807335)
(-0.0185861 0.112236 0.0226797)
(-0.00487447 0.0278557 0.0054901)
(-0.00117134 0.00641376 0.00126267)
(-0.000301079 0.00114138 0.000318368)
(-0.311243 0.336707 0.0846276)
(-0.0767261 0.0566103 0.0209951)
(-0.0181698 0.0124114 0.00496095)
(-0.00415362 0.0028596 0.0011303)
(-0.0010748 0.000515464 0.000290221)
(-0.0825751 0.341996 0.0307693)
(-0.0249552 0.100024 0.00909445)
(-0.00618436 0.0250959 0.00217852)
(-0.00142763 0.0058527 0.000493469)
(-0.000364474 0.00105164 0.000124544)
(-0.323224 0.334071 0.0290675)
(-0.0789698 0.0559295 0.00717838)
(-0.0187252 0.0122503 0.00170178)
(-0.00427935 0.00282357 0.000389344)
(-0.00110706 0.000508588 0.000100092)
(-0.0864802 0.340528 0.0120321)
(-0.0261387 0.0988215 0.00328295)
(-0.00652534 0.0247246 0.000738187)
(-0.00140065 0.00577953 0.000205328)
(-0.000377671 0.00103702 4.14774e-05)
(-0.0234672 1.42882 -0.0148044)
(-0.304852 2.05301 0.00724295)
(-0.278419 2.00023 0.192157)
(-0.0989676 1.38116 -0.045639)
(0.0695515 0.798989 0.0315)
(0.117756 0.843604 0.0337531)
(0.326711 1.18088 0.0983323)
(0.479241 1.24033 0.126301)
(0.0697168 0.934636 0.0799564)
(0.349737 1.05452 0.150435)
(-0.0818099 1.49849 0.128828)
(0.09811 2.06218 0.198823)
(0.0998196 1.9004 0.157559)
(0.205505 2.53424 0.195352)
(0.395595 1.23494 0.0811403)
(0.563252 1.41516 0.109058)
(0.598451 0.962621 0.0854148)
(0.754021 1.03333 0.101394)