/*--------------------------------*- C++ -*----------------------------------*\
| =========                 |                                                 |
| \\      /  F ield         | OpenFOAM: The Open Source CFD Toolbox           |
|  \\    /   O peration     | Version:  2306                                  |
|   \\  /    A nd           | Website:  www.openfoam.com                      |
|    \\/     M anipulation  |                                                 |
\*---------------------------------------------------------------------------*/
FoamFile
{
    version     2.0;
    format      ascii;
    arch        "LSB;label=32;scalar=64";
    class       volVectorField;
    location    "0.2";
    object      flux;
}
// * * * * * * * * * * * * * * * * * * * * * * * * * * * * * * * * * * * * * //

dimensions      [0 1 -1 1 0 0 0];

internalField   nonuniform List<vector> 
5322
(
(-0.000956852 0.00245582 -0.00328122)
(3.7461e-05 0.000262083 -0.00317977)
(4.21433e-05 3.05567e-05 -0.00300111)
(1.24034e-06 -3.60231e-05 -0.00324991)
(-2.38624e-06 8.00757e-06 -0.00289821)
(-2.31774e-06 3.46279e-05 -0.00258503)
(-1.58895e-06 4.2405e-05 -0.00231027)
(-1.06628e-06 4.55658e-05 -0.00207944)
(-9.2827e-07 5.40036e-05 -0.00189839)
(-1.01977e-06 6.37621e-05 -0.00177695)
(-1.85528e-06 8.83359e-06 -0.00167751)
(1.85417e-05 -0.000323873 -0.0016538)
(2.82504e-05 -0.000355556 -0.00123635)
(-0.00038854 -0.000319494 -0.00170895)
(-9.79785e-06 -0.000278537 -0.00187231)
(0.000682487 0.000606521 -0.00150545)
(-0.000535803 0.000809883 -0.00177751)
(-6.80989e-06 -2.40152e-06 -0.00134079)
(-0.000413022 0.000568087 -0.0019064)
(0.000279963 -0.000693443 -0.00196569)
(-0.000379805 0.000676146 -0.00204767)
(0.000355351 -0.000718961 -0.00210966)
(-0.000376018 0.000729686 -0.0022134)
(0.000413965 -0.000790699 -0.00232302)
(-0.00042218 0.0008212 -0.00245618)
(0.000449079 -0.000858991 -0.00256382)
(-0.000450993 0.000896396 -0.00272479)
(0.000520804 -0.00097891 -0.0028803)
(-0.000516682 0.00102183 -0.00306531)
(0.000575427 -0.00107986 -0.00320968)
(-0.000546341 0.00113531 -0.00341137)
(0.000689773 -0.00121193 -0.00359045)
(-0.000514543 0.00130521 -0.00377888)
(0.000870532 -0.00118951 -0.0038866)
(4.12702e-05 0.00117698 -0.00388085)
(0.0011812 -0.00062653 -0.00329623)
(0.000835266 0.00124517 -0.00382214)
(-0.000331889 0.00153954 -0.00383294)
(0.000926449 0.000773836 -0.00395311)
(-5.41199e-05 0.000853782 -0.00284075)
(-0.000878913 0.00113699 -0.00366991)
(0.000882528 0.000952416 -0.0037879)
(-5.34718e-05 0.00100313 -0.00278744)
(-0.00093873 0.00106201 -0.00379151)
(0.000933307 0.00101277 -0.00375384)
(-3.20919e-05 0.00102255 -0.00283538)
(-0.000997728 0.00102892 -0.00384552)
(0.000874843 0.00109955 -0.00363259)
(-2.14768e-05 0.00103967 -0.002802)
(-0.00104661 0.000974918 -0.00377294)
(-0.00103592 0.00122696 -0.00426897)
(-0.00149583 0.000570624 -0.00297616)
(-0.000481499 0.000653699 -0.00410499)
(0.000974389 -0.00208465 -0.00374306)
(-6.33331e-05 -0.000107318 -0.00342466)
(-0.0016007 -0.00120187 -0.00355074)
(-4.7406e-05 0.000646686 -0.00430495)
(0.00152541 -0.00157083 -0.00348915)
(-1.84432e-05 -8.20176e-05 -0.00344627)
(-0.00152489 -0.00136511 -0.00354821)
(-6.65404e-06 0.00065642 -0.00435366)
(0.00148569 -0.00154426 -0.00353609)
(-8.22509e-06 -7.30833e-05 -0.00344663)
(-0.00149767 -0.00135505 -0.00346109)
(4.59146e-07 0.000659205 -0.00435227)
(0.00146446 -0.00159995 -0.00365887)
(2.01766e-05 -9.69414e-05 -0.00343256)
(-0.00148315 -0.00131252 -0.00328966)
(7.08128e-05 0.000667049 -0.00425954)
(0.00121901 -0.00177225 -0.0038954)
(5.93639e-05 5.80263e-05 -0.00285069)
(-0.00123494 0.00147035 -0.00433048)
(0.00140081 0.000817609 -0.00412278)
(-0.00144695 0.00114413 -0.00406285)
(0.00139262 0.000852889 -0.00410387)
(-0.00141854 0.00108194 -0.00408406)
(0.00142046 0.000901561 -0.00408154)
(-0.00141939 0.00107797 -0.00406915)
(0.00161616 0.000916196 -0.00412787)
(-0.00117398 0.00127576 -0.00392376)
(0.000564645 0.000106125 -0.00377164)
(-0.000802945 0.000460257 -0.00297167)
(-0.000530339 0.000684616 -0.00308107)
(0.00087436 0.00111481 -0.00406273)
(8.19698e-05 -8.375e-05 -0.00269996)
(-0.000443868 -0.000435214 -0.00364439)
(0.000606124 0.000139875 -0.0051063)
(-0.00165322 0.000270268 -0.00321742)
(-0.000573204 0.000538611 -0.00326141)
(0.00189354 7.05607e-05 -0.00287963)
(-8.37018e-05 0.000143156 -0.00359975)
(2.70943e-05 2.62447e-05 -0.00289979)
(4.90145e-05 3.90197e-06 -0.00305747)
(0.000254333 4.14087e-06 -0.00304203)
(0.00124055 0.00150023 -0.00379407)
(-0.000270524 -0.000829116 -0.00344551)
(-1.22545e-05 2.59808e-05 -0.00335371)
(-0.000119381 0.000837096 -0.00349327)
(0.00062435 2.41811e-05 -0.00519436)
(-0.00146305 -3.14928e-05 -0.00312713)
(-0.00146217 0.000131503 -0.00315891)
(0.0031359 2.45954e-05 -0.00292346)
(-0.000118411 0.000890287 -0.0035204)
(0.000958169 -0.00146087 -0.00375111)
(0.00156178 0.00130915 -0.00408763)
(4.15734e-06 2.35686e-05 -0.00325845)
(1.26223e-05 -2.68535e-05 -0.00344147)
(1.28266e-05 -4.1191e-06 -0.00327176)
(7.06267e-06 8.90683e-08 -0.0029281)
(2.95239e-06 2.21233e-06 -0.00262121)
(8.66067e-07 2.21914e-06 -0.00234452)
(-4.12875e-07 2.06665e-06 -0.00210701)
(-2.23644e-06 2.97857e-06 -0.00191491)
(-4.95899e-06 4.82747e-06 -0.00178292)
(7.28789e-06 -7.05243e-06 -0.00195541)
(-2.64685e-06 2.12937e-06 -0.00190828)
(-0.000224679 0.000230033 -0.00133955)
(-0.000221051 -9.37648e-05 -0.00144901)
(2.40329e-05 -3.30133e-05 -0.0019468)
(0.000140457 -0.000176567 -0.00159542)
(7.67115e-06 0.000217515 -0.00141028)
(0.000213428 -0.00011966 -0.00171016)
(-0.000255344 -0.000234004 -0.00168619)
(-1.91293e-05 -0.000320741 -0.00237269)
(-5.94756e-05 -0.000362244 -0.00176907)
(0.000395992 -1.46228e-05 -0.00232335)
(0.000325411 0.000265919 -0.00167024)
(8.99519e-05 -0.000200413 -0.00174399)
(0.000254703 1.88644e-05 -0.00228361)
(0.000164062 0.000219052 -0.00166353)
(0.000124552 -0.000218102 -0.00170725)
(0.00027349 9.21832e-06 -0.00230446)
(0.000137424 0.000227679 -0.00168938)
(0.000147485 -0.000233464 -0.00167557)
(0.000278227 -7.39158e-06 -0.00231494)
(0.000120195 0.000212585 -0.00171307)
(0.000232585 -0.000255032 -0.00168579)
(0.000316196 -2.02772e-05 -0.00237701)
(0.000358294 -5.9507e-05 -0.00177082)
(1.54488e-05 0.000390616 -0.00232407)
(-0.000262967 0.000323288 -0.00167473)
(1.41964e-05 -0.000213174 -0.00141522)
(0.000175855 0.000141118 -0.00159583)
(-0.000213496 0.000109643 -0.00142889)
(-0.00022963 -0.000225561 -0.00134214)
(3.3419e-05 2.49389e-05 -0.00194728)
(9.4128e-05 -0.000220421 -0.00144926)
(5.14503e-05 0.000172783 -0.00143938)
(-0.000179673 0.000177932 -0.00132467)
(-0.000197562 -0.000196281 -0.0013336)
(3.76763e-05 -2.93608e-06 -0.00194493)
(5.80603e-05 -0.000182685 -0.00144137)
(7.02116e-05 0.000183502 -0.00143584)
(-0.000195011 0.000198568 -0.00132567)
(-0.000184814 -0.000178039 -0.0013364)
(3.79958e-05 -5.79424e-07 -0.00194428)
(3.78531e-05 -0.000169781 -0.00144397)
(0.000111617 0.000216026 -0.00142808)
(-0.000213104 -1.36533e-05 -0.00141451)
(0.000278336 -1.01133e-05 -0.00187227)
(-0.000603626 0.00068256 -0.00150341)
(-0.000807745 -0.000534455 -0.00178007)
(0.00071076 0.000601281 -0.00210684)
(-0.000847653 -0.000654417 -0.00210626)
(-3.65611e-05 2.29142e-05 -0.00131811)
(-0.000569891 -0.000409175 -0.00190724)
(5.7029e-06 -7.03911e-06 -0.00134113)
(0.000549772 -1.92302e-07 -0.00180343)
(-0.000131398 -7.42226e-05 -0.00122603)
(0.000646513 0.000194099 -0.00165556)
(0.000320301 -0.000388225 -0.00171122)
(0.00047792 0.000386421 -0.00159015)
(-0.000723414 -0.000654245 -0.00166097)
(0.000280678 1.59564e-06 -0.00191543)
(-0.000623478 0.000668501 -0.00158623)
(0.000422714 -0.000672082 -0.00198741)
(0.000550831 0.000699731 -0.00197314)
(-0.00068832 -0.000732281 -0.00195111)
(2.06807e-05 3.15911e-06 -0.00160904)
(-0.000585146 0.000721654 -0.001948)
(0.000532694 -0.00076296 -0.00205869)
(0.000662885 0.000791339 -0.00206245)
(-0.00073007 -0.00081865 -0.00212005)
(3.12855e-06 3.18067e-06 -0.00173917)
(-0.000611894 0.000800832 -0.00212271)
(0.000608943 -0.000841817 -0.00222559)
(0.000743942 0.000869277 -0.00222803)
(-0.000798311 -0.000906838 -0.00232572)
(8.38574e-06 2.392e-06 -0.0019022)
(-0.000666264 0.000886461 -0.00232814)
(0.000683829 -0.000934897 -0.00245606)
(0.000830652 0.000963884 -0.00245796)
(-0.000891544 -0.00101115 -0.00258202)
(1.23957e-05 2.50183e-06 -0.0021092)
(-0.000744508 0.000989085 -0.00258573)
(0.00076177 -0.00104826 -0.0027405)
(0.000928743 0.00108077 -0.00274396)
(-0.00101192 -0.00113295 -0.00288442)
(1.57543e-05 3.52157e-06 -0.00235855)
(-0.000847154 0.00110857 -0.00289078)
(0.000840584 -0.00118181 -0.0030731)
(0.00103604 0.00121901 -0.00307978)
(-0.00115907 -0.0012668 -0.00322575)
(2.01666e-05 4.81845e-06 -0.00264413)
(-0.000969504 0.0012374 -0.00323545)
(0.00091334 -0.00132769 -0.00343958)
(0.00114628 0.00136877 -0.00345094)
(-0.00131663 -0.00138661 -0.00359916)
(2.80505e-05 6.41809e-06 -0.00294726)
(-0.00108775 0.00134751 -0.00361395)
(0.000957542 -0.00146427 -0.00376695)
(0.0011943 0.00147666 -0.00377814)
(-0.000242634 -0.000830177 -0.00348612)
(0.0005969 -4.59694e-06 -0.00519597)
(-0.00145048 -7.42946e-05 -0.0031273)
(-0.00147918 3.4146e-05 -0.00311687)
(0.00315286 -2.62245e-05 -0.00293315)
(-0.000120704 -1.38696e-06 -0.00407613)
(-0.000130559 8.88353e-06 -0.00406573)
(5.55914e-05 1.27163e-05 -0.00305768)
(0.000275265 4.85383e-07 -0.00304407)
(0.00123354 0.00150273 -0.00378407)
(-0.000208652 -0.000826643 -0.00347342)
(2.87464e-07 5.65694e-06 -0.00331737)
(-0.000238397 0.000988658 -0.00352367)
(0.000570321 -0.000141995 -0.00518366)
(-0.00147649 -5.06716e-05 -0.00314567)
(-0.00145415 4.27906e-05 -0.00311499)
(0.00313423 -5.18087e-05 -0.00293934)
(-0.000146292 0.000833367 -0.0034727)
(0.000958105 -0.00147989 -0.0037712)
(-1.35047e-05 8.90295e-06 -0.00335192)
(2.07295e-05 6.62576e-06 -0.00337364)
(1.53606e-05 1.85094e-05 -0.00326591)
(9.13591e-06 1.11226e-05 -0.00292817)
(4.23217e-06 5.38327e-06 -0.00262311)
(1.5262e-06 2.13334e-06 -0.00234609)
(-8.58516e-08 1.70465e-07 -0.00210798)
(-2.04114e-06 -2.09879e-06 -0.0019154)
(-4.49979e-06 -4.99452e-06 -0.00178304)
(7.26797e-06 7.05034e-06 -0.00195549)
(-2.449e-06 -2.69944e-06 -0.00190891)
(0.000178227 -0.000185016 -0.00133404)
(-0.000197962 -0.000197189 -0.00133019)
(0.000197374 -0.000197319 -0.00132917)
(-0.000178952 -0.000185403 -0.00133386)
(4.07965e-07 3.86879e-05 -0.00194406)
(0.000179043 6.46358e-05 -0.00143572)
(-0.000168942 4.03811e-05 -0.00144353)
(-8.57999e-07 -0.000248344 -0.0014474)
(-0.000211718 0.000128948 -0.00170692)
(1.46742e-07 -0.00026209 -0.00240874)
(-0.000178979 6.47556e-05 -0.0014361)
(-7.84285e-08 3.87635e-05 -0.0019442)
(0.000168615 4.0502e-05 -0.00144321)
(6.65156e-06 -0.000259007 -0.00239507)
(0.000197712 8.95508e-05 -0.00173911)
(-1.61946e-05 0.000247749 -0.00227639)
(-0.000213859 0.000159343 -0.00166256)
(6.57635e-07 -0.000248253 -0.0014478)
(0.000211471 0.00012923 -0.00170683)
(-1.9242e-07 0.000268974 -0.00227693)
(-6.9571e-09 0.000376036 -0.00121771)
(0.000375941 0.00039755 -0.00164028)
(-0.000651824 -0.000657837 -0.00158721)
(0.000651174 -0.000656405 -0.00158539)
(-0.000643816 -0.000706287 -0.00166155)
(0.000690029 0.000522185 -0.00197186)
(-0.000722899 -0.000661654 -0.00195152)
(0.00078045 0.000628044 -0.00206151)
(-0.000807423 -0.000696692 -0.00212022)
(0.0008571 0.000704857 -0.00222778)
(-0.000894176 -0.000759804 -0.00232562)
(0.000950369 0.000787491 -0.00245824)
(-0.000997122 -0.000847627 -0.002582)
(0.00106575 0.000880918 -0.00274488)
(-0.00111718 -0.000961958 -0.00288436)
(0.00120245 0.000983623 -0.00308194)
(-0.00124922 -0.00110359 -0.00322488)
(0.00135155 0.00109209 -0.00345544)
(-0.00136843 -0.00125982 -0.00359546)
(0.00148395 0.00119281 -0.003803)
(-0.00082307 -0.000243888 -0.00344266)
(1.8792e-05 0.000635417 -0.00519583)
(0.000832366 -0.000158764 -0.00350753)
(2.32197e-05 -8.26473e-06 -0.0033528)
(-0.00144644 0.00103276 -0.00375848)
(0.00133268 -0.00115989 -0.00362316)
(7.36296e-06 3.15619e-05 -0.0029491)
(-0.00131178 0.000990175 -0.00343897)
(0.00122194 -0.00104261 -0.00323994)
(4.80401e-06 2.196e-05 -0.00264566)
(-0.0011676 0.000911912 -0.00307488)
(0.00109406 -0.000914176 -0.00289257)
(3.09107e-06 1.66506e-05 -0.00235958)
(-0.00103559 0.000825205 -0.00274255)
(0.000975861 -0.000804205 -0.00258622)
(2.00637e-06 1.27645e-05 -0.0021098)
(-0.000923548 0.000739838 -0.00245789)
(0.000874516 -0.000719127 -0.00232791)
(1.70833e-06 8.39649e-06 -0.0019025)
(-0.000831655 0.000659057 -0.00222769)
(0.000790094 -0.000658255 -0.00212161)
(2.21988e-06 2.87921e-06 -0.00173924)
(-0.000754073 0.000577157 -0.00206165)
(0.000711517 -0.000624768 -0.00194597)
(2.34843e-06 1.99616e-05 -0.00160865)
(-0.000663459 0.000457694 -0.00199016)
(4.51878e-07 -4.21889e-05 -0.00161692)
(0.000663435 0.000457331 -0.00198803)
(-0.000711647 -0.000625646 -0.00194805)
(-3.0686e-06 1.99908e-05 -0.0016087)
(-0.000688818 0.00052486 -0.00197381)
(0.000642996 -0.000702297 -0.00166122)
(-1.22978e-06 0.000280314 -0.00191519)
(-0.000379105 0.000461463 -0.0015869)
(-2.46312e-05 0.000344378 -0.00123235)
(0.000385554 0.000322669 -0.00171519)
(-0.000675058 -0.000619337 -0.00150608)
(0.000663337 0.000414347 -0.00199606)
(-0.000714933 -0.000601013 -0.00195456)
(0.000742215 0.000550931 -0.00205779)
(-0.000782929 -0.000630724 -0.0021314)
(0.00081848 0.000634254 -0.00222715)
(-0.000860293 -0.000688603 -0.00233336)
(0.000910209 0.000713442 -0.00246137)
(-0.000956478 -0.00077086 -0.00258867)
(0.00102433 0.000797913 -0.00275074)
(-0.00106964 -0.000880629 -0.00289108)
(0.00116308 0.000889054 -0.0030949)
(-0.00118983 -0.0010117 -0.00322247)
(0.00131948 0.000982041 -0.0034839)
(-0.00128372 -0.00111967 -0.00356369)
(0.0014577 0.00104348 -0.00381783)
(-0.000812233 -0.000151012 -0.00346341)
(-0.000185217 0.00046698 -0.00512816)
(0.000348122 -0.000456816 -0.00366755)
(4.16155e-05 1.40746e-05 -0.00323929)
(-0.00135505 0.00143558 -0.00407128)
(0.00115825 -0.00163789 -0.00390247)
(1.33955e-05 4.87783e-05 -0.00285885)
(-0.00119592 0.00141425 -0.00371087)
(0.00109504 -0.00143097 -0.00347747)
(-4.55879e-07 3.03513e-05 -0.00256407)
(-0.0010338 0.00128247 -0.00330623)
(0.000974708 -0.00123034 -0.00309547)
(-3.72739e-06 1.9409e-05 -0.00228315)
(-0.000910946 0.00114315 -0.00294091)
(0.000864498 -0.00107889 -0.00276475)
(-3.80733e-06 1.35303e-05 -0.0020402)
(-0.000813776 0.00102358 -0.00263399)
(0.000776557 -0.000966171 -0.00249097)
(-5.72633e-06 8.29534e-06 -0.00184039)
(-0.000735059 0.000924825 -0.00238626)
(0.000710013 -0.000882809 -0.00227454)
(-1.02527e-05 4.0488e-06 -0.00168466)
(-0.000668681 0.000837758 -0.00220821)
(0.000653718 -0.000832119 -0.00210688)
(-2.02513e-05 2.37999e-05 -0.00156046)
(-0.000589003 0.000703713 -0.00210649)
(0.000530262 -0.000796949 -0.00177989)
(1.0895e-05 0.000278494 -0.00187195)
(-0.000190594 0.00064458 -0.00165525)
(0.000323731 0.000572044 -0.0017448)
(0.00053297 -0.000287223 -0.00152609)
(1.38471e-05 0.000553243 -0.00180915)
(6.54728e-05 -0.000130721 -0.0012227)
(-9.71793e-05 0.000101244 -0.00139578)
(0.000275224 0.000659272 -0.0015981)
(-0.000848485 -0.000571149 -0.00146911)
(0.000655721 0.000541927 -0.00204144)
(-0.000840448 -0.000522784 -0.00203438)
(-0.000566005 0.00083794 -0.00196101)
(-0.000700543 -0.000738069 -0.00194893)
(2.34671e-05 -5.95826e-06 -0.00160405)
(0.00045132 -0.000806421 -0.00197368)
(0.000499606 0.000688203 -0.00200313)
(-0.000705977 -0.000691758 -0.001529)
(0.000271219 1.99601e-05 -0.00192255)
(-0.000632731 0.000727536 -0.00169951)
(-4.7948e-05 3.22349e-05 -0.00162878)
(3.27783e-05 1.31321e-05 -0.0015995)
(-0.000254091 -0.000204309 -0.00232398)
(2.16558e-05 1.99603e-05 -0.00186709)
(-1.02883e-05 -1.63769e-05 -0.00177044)
(-0.000268864 1.07471e-05 -0.00238788)
(2.51458e-05 -4.06503e-06 -0.0017358)
(-4.49247e-05 -1.49562e-06 -0.0016201)
(-0.000642837 0.000665807 -0.00164206)
(-0.000697222 -0.000667064 -0.001596)
(0.000512539 0.000679622 -0.00199011)
(-0.000679005 -0.000723294 -0.00194607)
(4.46024e-06 2.5619e-07 -0.00167232)
(0.000640543 0.000770716 -0.0020631)
(-0.000723571 -0.000804302 -0.00212166)
(0.000730611 0.000850632 -0.00222881)
(-0.000792866 -0.000890251 -0.00232796)
(-4.44866e-06 1.08787e-06 -0.00197018)
(0.000821186 0.00094584 -0.00245987)
(-0.00088702 -0.00099218 -0.00258474)
(0.000919438 0.00106261 -0.00274676)
(-0.00100805 -0.0011101 -0.00288729)
(2.48781e-05 1.71815e-06 -0.00244936)
(0.00102394 0.00120017 -0.00308322)
(-0.00115057 -0.00123691 -0.00322739)
(0.00112568 0.00134727 -0.00345269)
(-0.0012886 -0.00134765 -0.00360188)
(0.00026636 -2.1613e-06 -0.00304636)
(5.49021e-05 2.13839e-06 -0.00305989)
(2.73749e-05 3.45694e-06 -0.002749)
(2.97259e-05 1.05452e-05 -0.00275028)
(7.19935e-06 5.73897e-06 -0.00246204)
(2.70997e-05 4.71285e-06 -0.00245482)
(0.00105957 0.00121155 -0.0030952)
(-0.0011808 -0.00123562 -0.00322883)
(2.6956e-05 6.19499e-06 -0.00264265)
(-0.000957855 0.00146385 -0.00325902)
(0.000842503 -0.00153289 -0.00342159)
(0.00117143 0.00137182 -0.00347436)
(-0.00129346 -0.00133446 -0.00358374)
(4.40127e-05 1.33686e-05 -0.00294111)
(-0.00113641 0.00162422 -0.00365746)
(0.00084258 -0.0016323 -0.00371425)
(0.00168733 0.00104384 -0.0041594)
(-0.000175341 -0.000753642 -0.00334717)
(5.30557e-05 -0.00128712 -0.00514046)
(-0.00158815 -9.30747e-05 -0.0031989)
(-0.00147065 -1.09712e-05 -0.00304812)
(0.00298024 -0.000463823 -0.00302018)
(-0.000193088 -0.0001219 -0.00394844)
(4.0141e-05 2.78133e-05 -0.00288705)
(6.95606e-05 0.000769513 -0.00259266)
(-0.00081823 0.000979303 -0.00369969)
(0.000175671 7.16869e-05 -0.00239998)
(0.000571472 -0.00147472 -0.0033737)
(-0.000592497 0.00106763 -0.00327425)
(4.48325e-05 5.50493e-06 -0.00213052)
(0.00054831 -0.00110697 -0.0030554)
(-0.0004944 0.000965108 -0.00289324)
(5.04404e-06 -7.03584e-06 -0.00189276)
(0.000475785 -0.00092662 -0.00274189)
(-0.000450836 0.000871124 -0.00258451)
(-2.29253e-06 -4.08526e-06 -0.00169239)
(0.000406941 -0.000801208 -0.00244863)
(-0.000393684 0.000780713 -0.00231156)
(-1.13616e-05 -8.92588e-06 -0.00152823)
(0.000385332 -0.000725313 -0.00222447)
(-0.000346442 0.000739251 -0.00210969)
(-2.36858e-05 -1.48994e-05 -0.00140365)
(0.000376516 -0.000638035 -0.00204448)
(-0.000254595 0.00070368 -0.00195454)
(-3.64956e-05 -4.49719e-05 -0.00131685)
(0.000424886 -0.000539697 -0.00191608)
(0.00015988 0.000170404 -0.00145354)
(0.000117618 0.000258474 -0.00140085)
(-2.97085e-05 -0.000327422 -0.00176309)
(-1.53093e-05 1.47947e-07 -0.00155455)
(0.000173532 0.000541501 -0.00175382)
(-7.56514e-05 -0.000481175 -0.0018806)
(0.000802076 0.00056148 -0.0020988)
(-0.000887869 -0.000570295 -0.00219914)
(0.000908364 0.000604834 -0.00227957)
(-0.000970392 -0.000627692 -0.00240075)
(-0.000628028 0.00102086 -0.00232848)
(-0.000815372 -0.000894996 -0.00233405)
(8.29677e-06 -2.5182e-06 -0.00189835)
(0.000595011 -0.000977189 -0.00223264)
(0.000750299 0.000851709 -0.00223134)
(-0.000744103 -0.000812236 -0.00212935)
(3.64524e-06 -5.0731e-06 -0.00173645)
(-0.000575933 0.000923985 -0.002122)
(-3.98147e-07 7.81224e-07 -0.0017974)
(-1.77506e-06 -4.36375e-06 -0.00170321)
(4.52918e-06 -2.72524e-06 -0.00158493)
(-2.81414e-06 -4.87674e-05 -0.00140632)
(6.16308e-06 -3.29745e-06 -0.00164523)
(4.43384e-05 6.18827e-05 -0.00159018)
(3.94745e-05 7.05403e-05 -0.00152484)
(6.51309e-05 2.78397e-05 -0.00178124)
(-4.0922e-05 1.56819e-05 -0.00177305)
(3.0637e-06 4.28954e-05 -0.00167632)
(0.000299206 2.93201e-05 -0.00166309)
(0.000470278 -3.78226e-05 -0.00128305)
(0.000392809 0.000612902 -0.00209536)
(0.000133525 0.000196332 -0.00116242)
(0.000603476 4.20276e-05 -0.00157151)
(0.000238204 0.000147525 -0.00168445)
(0.00012137 2.80179e-05 -0.00168176)
(4.60439e-05 3.27455e-06 -0.00179536)
(7.8358e-06 2.54099e-06 -0.00192026)
(-3.98831e-05 6.29702e-06 -0.00189502)
(-4.61049e-05 6.62508e-06 -0.00207732)
(-1.40584e-05 -3.63616e-06 -0.00211586)
(2.51091e-05 -7.57744e-06 -0.00195654)
(-0.00010728 -0.000550775 -0.00203978)
(1.24999e-06 -4.61164e-06 -0.00183273)
(0.000137441 0.00058105 -0.00211158)
(-0.000125731 -0.000615102 -0.00223763)
(0.00101604 0.000666318 -0.00252743)
(-0.00108299 -0.000699009 -0.00265901)
(0.00114125 0.000751012 -0.002828)
(-0.00123631 -0.000783714 -0.00296773)
(-0.000810328 0.00128837 -0.00289901)
(-0.00103826 -0.00111263 -0.00289332)
(1.7961e-05 1.60535e-06 -0.00235569)
(0.000727656 -0.00120958 -0.00274699)
(0.000948049 0.00106718 -0.00275318)
(-0.000912939 -0.000995771 -0.00259047)
(1.29474e-05 -6.54495e-07 -0.00210537)
(-0.000704688 0.00114068 -0.00258866)
(1.86564e-06 3.76335e-06 -0.0021962)
(1.30838e-06 -1.1382e-06 -0.0020841)
(-1.86852e-06 -3.23716e-06 -0.00187213)
(-3.32472e-06 -2.65685e-06 -0.00166121)
(-8.33715e-06 -3.27326e-05 -0.00194306)
(2.38184e-06 -7.71558e-06 -0.00191794)
(1.42536e-06 -5.357e-06 -0.00183544)
(-4.29888e-06 -2.14986e-05 -0.00176659)
(8.76682e-06 1.25175e-05 -0.00170356)
(1.19334e-05 8.92177e-06 -0.00163494)
(0.000145914 0.000542733 -0.00192177)
(-2.69926e-07 -1.21729e-06 -0.00167863)
(-4.09139e-06 -2.30282e-05 -0.00151157)
(-4.18837e-06 9.74787e-06 -0.00183568)
(1.59502e-06 -5.24804e-05 -0.00178316)
(1.97903e-06 -3.95997e-06 -0.00168401)
(-1.69839e-05 0.00032611 -0.0016553)
(3.90316e-05 0.000620084 -0.0015674)
(-0.000450462 0.00113763 -0.00151641)
(-3.34332e-06 0.000114257 -0.00153121)
(4.6616e-06 -1.62437e-05 -0.00133766)
(-2.57562e-08 -8.31325e-07 -0.00170745)
(-6.10923e-06 -2.55071e-05 -0.00168689)
(0.000723319 -0.000657554 -0.00195054)
(3.73903e-07 -1.03362e-06 -0.00166937)
(-0.000779741 0.000632641 -0.00206299)
(0.0007544 0.000576063 -0.00205997)
(-0.000789586 -0.000658369 -0.00212314)
(-2.46113e-06 2.9287e-06 -0.00173958)
(0.000809154 -0.000694291 -0.00211984)
(9.05358e-07 -1.60263e-06 -0.00179101)
(-0.000856365 0.000709089 -0.00222865)
(0.000832974 0.000658175 -0.00222704)
(-0.00087302 -0.000718464 -0.00232831)
(-8.57508e-07 8.50642e-06 -0.00190312)
(0.000897274 -0.000760086 -0.00232672)
(1.67988e-06 -4.2048e-06 -0.00196619)
(-0.000949016 0.00078952 -0.00245843)
(0.000926484 0.000740195 -0.00245919)
(-0.000972753 -0.00080313 -0.00258468)
(5.77928e-07 1.29683e-05 -0.00211089)
(0.00100231 -0.000851441 -0.00258531)
(2.58472e-06 3.66533e-06 -0.00218654)
(-0.00106362 0.000878609 -0.00274388)
(0.001041 0.000828443 -0.00274707)
(-0.00108844 -0.000913631 -0.00288704)
(2.3096e-06 1.70872e-05 -0.0023613)
(0.00112558 -0.000971477 -0.0028916)
(2.93906e-06 3.42883e-05 -0.00244515)
(-0.00119917 0.000969749 -0.0030765)
(0.00117619 0.000922599 -0.00308592)
(-0.0012128 -0.00104656 -0.00322527)
(5.15751e-06 2.2774e-05 -0.00264767)
(0.00125991 -0.00111828 -0.00323971)
(-3.57465e-07 0.000115682 -0.00273431)
(-0.00134502 0.00104737 -0.00343694)
(0.00132182 0.00101878 -0.00346057)
(-0.0013216 -0.00118112 -0.00359394)
(8.20753e-06 3.2833e-05 -0.00294873)
(0.00137122 -0.0012603 -0.00362139)
(-1.15103e-05 0.00031232 -0.00303437)
(-0.0014711 0.00109345 -0.00375781)
(0.00145036 0.00109335 -0.00379351)
(-0.000825584 -0.000190621 -0.00348132)
(-1.38768e-06 -7.44544e-06 -0.00334683)
(0.000819249 -0.00022426 -0.00348232)
(-5.33626e-05 0.00313339 -0.00295368)
(-0.000117618 -0.00145805 -0.00313124)
(-0.000109489 -0.00149673 -0.00301379)
(-0.000135039 0.00232595 -0.00279508)
(-0.00152164 0.000608868 -0.00392553)
(0.000352618 0.000235801 -0.0027045)
(0.000280979 -0.00201546 -0.00358395)
(-0.000124324 -0.000438898 -0.00285049)
(-0.000253405 -0.000261193 -0.00273018)
(-0.000108403 0.000965516 -0.00346375)
(-0.0015067 -0.00100964 -0.00351655)
(0.000327242 -1.84028e-05 -0.00303956)
(-0.000469113 2.98401e-05 -0.0032241)
(-0.000713009 -0.000149509 -0.00323655)
(-0.000207524 -0.000175339 -0.00308554)
(-0.000211383 -2.69633e-05 -0.00296363)
(-0.000247026 4.71602e-05 -0.00290461)
(-0.000125237 2.72456e-05 -0.00258809)
(-6.29081e-05 -6.64228e-07 -0.00264816)
(2.48035e-05 -2.41046e-05 -0.00243192)
(-2.78732e-05 -3.24643e-06 -0.00235921)
(-6.94781e-05 1.29161e-05 -0.00231055)
(-6.98149e-05 3.70574e-06 -0.00229388)
(-4.8401e-05 1.54363e-06 -0.00206555)
(-5.06528e-05 -4.24228e-07 -0.00188701)
(-6.33356e-05 -3.96015e-06 -0.00176698)
(-2.71845e-07 -8.24263e-06 -0.00166695)
(0.000351922 -2.89521e-05 -0.00164024)
(0.000407874 -1.53232e-05 -0.00123951)
(0.000400499 0.000398959 -0.00169752)
(0.000461342 -0.000399076 -0.00150232)
(0.000574659 4.68784e-06 -0.00157459)
(0.000547283 2.60547e-06 -0.00158237)
(0.000425031 -0.000405445 -0.0016005)
(0.000427863 0.000399478 -0.00165373)
(0.000280365 -9.47341e-07 -0.00192004)
(-0.00024904 1.65177e-06 -0.00144447)
(8.02279e-05 -1.78557e-06 -0.00177922)
(-2.91366e-05 -3.02276e-05 -0.00175177)
(-2.03942e-05 -1.91534e-05 -0.00176985)
(7.28212e-05 7.24615e-05 -0.00180102)
(-0.000217085 7.56301e-06 -0.00141161)
(-5.80253e-07 8.33844e-05 -0.0017735)
(-3.24235e-07 -2.95291e-05 -0.00177399)
(-6.8024e-07 -3.62382e-05 -0.00176642)
(8.80464e-08 -5.63553e-08 -0.00192187)
(-0.000137288 0.000133917 -0.00130348)
(-0.000156575 -0.000155862 -0.00131234)
(-0.000155228 0.000156622 -0.00131005)
(-0.000138914 -0.000133283 -0.00130751)
(0.000137821 -0.000134978 -0.00130335)
(-0.000116614 -0.00011516 -0.00129834)
(4.42778e-06 4.40165e-06 -0.00194743)
(0.000156048 0.000155359 -0.00130798)
(-0.000134258 0.000139574 -0.00130616)
(-0.000134751 -0.000139193 -0.00130661)
(4.40435e-06 -4.11078e-06 -0.00194761)
(0.000155425 -0.000156398 -0.00131013)
(2.56968e-08 4.22538e-08 -0.00193333)
(1.00691e-07 1.19041e-07 -0.00196501)
(1.46407e-07 9.55871e-06 -0.00196006)
(1.45997e-07 2.57123e-05 -0.00173607)
(-4.3214e-06 2.284e-05 -0.00173261)
(5.38436e-06 -5.69103e-05 -0.00161143)
(-2.72569e-06 -2.04083e-06 -0.00166849)
(-1.45174e-06 -4.87505e-06 -0.00179422)
(1.10936e-07 -4.90437e-06 -0.00197326)
(1.70702e-06 -1.66376e-06 -0.00219597)
(4.09547e-06 9.13626e-06 -0.0024561)
(1.07888e-05 4.01831e-06 -0.00233177)
(5.25483e-06 6.91955e-05 -0.00207392)
(-8.53163e-06 -9.4729e-05 -0.00242034)
(2.34481e-05 -2.99677e-05 -0.00238751)
(-1.24377e-05 1.82618e-05 -0.00228257)
(0.000150263 0.000761069 -0.00264224)
(-0.000213121 -0.000750011 -0.00279699)
(0.00130114 0.000856123 -0.00320057)
(-0.0014174 -0.000893292 -0.00327937)
(0.00150333 0.000970603 -0.00366883)
(-2.51221e-05 -3.06875e-05 -0.00290078)
(-0.000436331 -0.000877716 -0.00305192)
(-7.19785e-05 2.16199e-06 -0.00251766)
(0.000120523 0.000906456 -0.003001)
(-6.46637e-06 -1.08064e-05 -0.00257221)
(-3.1504e-06 -5.76093e-05 -0.00274164)
(1.37254e-05 1.05478e-05 -0.00279388)
(-0.00012354 7.51967e-06 -0.00256472)
(-0.000229633 1.43888e-05 -0.00287172)
(-0.000444523 1.67877e-05 -0.00321431)
(-0.00101911 -1.3366e-05 -0.00366856)
(-0.00104533 -0.000174783 -0.00363688)
(-0.00250181 0.000599139 -0.00361457)
(-0.00110653 -0.000276307 -0.00326712)
(-0.000957623 -0.00108382 -0.00307806)
(-2.62657e-05 -0.000150425 -0.0031675)
(-0.000374912 -0.000160878 -0.00339086)
(0.000316067 -0.00230674 -0.00276423)
(-0.00210086 -0.000643742 -0.00308767)
(-0.00126751 8.27538e-05 -0.00431168)
(-0.000603613 -0.000950318 -0.00389819)
(0.000936038 0.000694939 -0.00394487)
(7.49643e-05 3.31198e-05 -0.00406107)
(4.45249e-05 3.52834e-05 -0.00264065)
(-0.000969561 0.000840692 -0.00332697)
(0.0010234 0.000704375 -0.0034997)
(6.29017e-06 9.47773e-05 -0.00416838)
(-0.000123892 -8.01285e-05 -0.00272694)
(-0.00106179 0.000930206 -0.00345408)
(0.00102781 0.000836368 -0.00351688)
(1.93002e-06 0.000101443 -0.0041884)
(-0.000137428 -9.60038e-05 -0.00273827)
(-0.00103631 0.000845143 -0.00341086)
(0.00102472 0.000952866 -0.00355999)
(8.69847e-06 9.4616e-05 -0.00417639)
(-0.00022302 -0.000218211 -0.0027967)
(-0.000988885 0.000702753 -0.00337604)
(0.000731067 0.00096952 -0.00378126)
(-0.000602729 -0.000340707 -0.00520307)
(0.000507949 0.000530176 -0.00400632)
(0.000386266 -0.000461593 -0.00391405)
(0.00111793 0.00049319 -0.00494156)
(-0.000525398 -0.00194162 -0.00481794)
(-0.000298321 -0.00105187 -0.00387525)
(0.000165535 0.000179894 -0.00288409)
(0.000654675 -0.000479774 -0.00410535)
(-0.00207219 0.000984706 -0.00374606)
(-0.000108712 -6.06888e-05 -0.00342305)
(-0.00120897 -0.00160627 -0.00354346)
(0.00110567 0.000881595 -0.00364001)
(0.00103938 -1.72315e-05 -0.00280342)
(0.000974108 -0.00104419 -0.00376655)
(0.00122683 -0.00103549 -0.00427105)
(0.000569891 -0.00149683 -0.0029754)
(0.000112097 0.000572446 -0.00377417)
(0.000460597 -0.000804965 -0.00297338)
(0.000685435 -0.000526647 -0.00308378)
(0.00110814 0.000868746 -0.00406411)
(-0.000456415 -0.00167925 -0.00367652)
(0.000102461 -0.000214161 -0.0028829)
(0.000744096 0.00113198 -0.00366709)
(-0.000571949 -0.00129673 -0.00338128)
(3.67419e-06 -5.94692e-05 -0.0026415)
(0.00058158 0.0010777 -0.00324845)
(-0.000527015 -0.00105643 -0.00304931)
(-4.45428e-06 -2.117e-05 -0.00236082)
(0.000501955 0.000966335 -0.00288594)
(-0.000459671 -0.000907833 -0.00272939)
(-1.78905e-06 -1.55189e-05 -0.00211206)
(0.000445045 0.000859037 -0.00257499)
(-0.00040831 -0.000805842 -0.00244943)
(-1.36066e-06 -1.21498e-05 -0.00189633)
(0.00039851 0.000772556 -0.00231877)
(-0.000373512 -0.000728805 -0.00221869)
(-4.20577e-06 -1.87098e-06 -0.00172765)
(0.000350806 0.000708663 -0.00211442)
(-0.000365812 -0.00066853 -0.00204574)
(-2.77078e-05 3.19818e-05 -0.0015749)
(0.000277567 0.000681281 -0.00196729)
(-0.00040387 -0.000567452 -0.0019062)
(-0.00014911 0.000154848 -0.00146366)
(-2.95298e-06 0.000544744 -0.00180435)
(-0.000533591 -0.000299706 -0.00151818)
(-0.000329955 0.000569379 -0.00174228)
(0.000192985 0.000643987 -0.00165309)
(-0.000530514 -0.000805022 -0.00177922)
(0.00059724 0.000701496 -0.00210737)
(-0.000649628 -0.000840099 -0.00210593)
(1.89617e-05 2.45538e-05 -0.00156047)
(-0.000664747 0.000413019 -0.00199974)
(0.000674094 -0.000619689 -0.00150293)
(-9.64366e-06 0.000278142 -0.00187259)
(-0.000385089 0.000321077 -0.00171433)
(2.46515e-05 0.000347254 -0.00123248)
(0.000379721 0.000461389 -0.00158482)
(-0.000375562 0.000396755 -0.00164135)
(1.44294e-06 0.000280106 -0.00191558)
(2.33786e-06 0.000540978 -0.00157739)
(7.10628e-07 0.000323649 -0.00165119)
(6.21629e-07 -1.09383e-05 -0.00168156)
(1.0269e-06 -6.6737e-05 -0.00177924)
(1.14693e-06 -5.56926e-05 -0.00189942)
(1.72005e-06 -4.60837e-05 -0.0019035)
(2.60834e-06 -4.894e-05 -0.00208522)
(4.49509e-06 -7.25237e-05 -0.00231693)