/*--------------------------------*- C++ -*----------------------------------*\
| =========                 |                                                 |
| \\      /  F ield         | OpenFOAM: The Open Source CFD Toolbox           |
|  \\    /   O peration     | Version:  2306                                  |
|   \\  /    A nd           | Website:  www.openfoam.com                      |
|    \\/     M anipulation  |                                                 |
\*---------------------------------------------------------------------------*/
FoamFile
{
    version     2.0;
    format      ascii;
    arch        "LSB;label=32;scalar=64";
    class       volVectorField;
    location    "0.2";
    object      flux;
}
// * * * * * * * * * * * * * * * * * * * * * * * * * * * * * * * * * * * * * //

dimensions      [0 1 -1 1 0 0 0];

internalField   nonuniform List<vector> 
5322
(
(-1.6677e-06 4.0476e-06 -5.2411e-06)
(1.92158e-07 7.23445e-07 -3.34976e-06)
(1.13411e-07 2.23147e-07 -1.32179e-06)
(-5.61233e-09 2.25582e-07 -1.38032e-06)
(-2.23518e-09 7.43233e-08 -3.2577e-07)
(-2.77391e-10 1.51655e-08 -5.47907e-08)
(5.10762e-12 2.09298e-09 -6.83993e-09)
(6.9347e-12 2.13664e-10 -6.62047e-10)
(1.25991e-12 1.74499e-11 -5.23328e-11)
(1.47814e-13 1.22628e-12 -3.66123e-12)
(1.80934e-14 7.35166e-14 -2.79498e-13)
(1.00425e-14 -3.75644e-15 -5.36324e-14)
(5.80649e-15 -6.41479e-15 -1.14241e-14)
(-4.08988e-15 -1.60791e-15 -2.96158e-14)
(4.03916e-15 5.2336e-15 -2.80897e-14)
(4.98594e-14 4.8558e-14 -9.65327e-14)
(-1.73067e-14 3.26219e-14 -7.55622e-14)
(2.86926e-14 3.22142e-14 -8.36598e-14)
(1.57515e-14 3.15957e-14 -1.96281e-13)
(4.1813e-13 -4.12265e-13 -8.72832e-13)
(2.82928e-13 7.70367e-13 -3.8502e-12)
(6.72048e-12 -6.78512e-12 -1.64307e-11)
(3.29495e-12 1.39401e-11 -6.93488e-11)
(9.12594e-11 -1.00145e-10 -2.60475e-10)
(-4.61983e-13 2.21087e-10 -9.9444e-10)
(9.90778e-10 -1.18618e-09 -3.23857e-09)
(-2.48261e-10 2.52558e-09 -1.09933e-08)
(8.42802e-09 -1.10909e-08 -3.09339e-08)
(-5.55854e-09 2.31412e-08 -9.07502e-08)
(5.37192e-08 -7.58386e-08 -2.15576e-07)
(-3.99952e-08 1.45168e-07 -5.36518e-07)
(2.575e-07 -3.72686e-07 -1.07356e-06)
(-1.56318e-07 6.61109e-07 -2.19343e-06)
(9.05315e-07 -1.10319e-06 -3.5131e-06)
(3.58416e-07 1.47279e-06 -5.4033e-06)
(2.29406e-06 -1.23327e-06 -5.87589e-06)
(1.63446e-06 2.65092e-06 -7.71151e-06)
(-6.92685e-07 2.98475e-06 -6.97246e-06)
(1.69228e-06 1.56537e-06 -7.13464e-06)
(-1.40155e-07 1.9178e-06 -5.84588e-06)
(-1.66918e-06 2.2049e-06 -6.5576e-06)
(1.62482e-06 1.88068e-06 -6.76197e-06)
(-9.5782e-08 2.19853e-06 -5.70389e-06)
(-1.71979e-06 2.06682e-06 -6.74191e-06)
(1.75765e-06 1.9699e-06 -6.68142e-06)
(-2.87991e-08 2.24285e-06 -5.8245e-06)
(-1.80282e-06 2.008e-06 -6.85768e-06)
(1.70963e-06 2.14643e-06 -6.54048e-06)
(5.03577e-09 2.29732e-06 -5.81435e-06)
(-1.90952e-06 1.9398e-06 -6.9081e-06)
(-1.94456e-06 2.49103e-06 -8.38352e-06)
(-2.73266e-06 8.81242e-07 -4.81808e-06)
(-1.02361e-06 1.15924e-06 -7.25796e-06)
(1.4641e-06 -2.99521e-06 -5.35749e-06)
(-7.42142e-08 -1.13782e-07 -3.9615e-06)
(-2.24515e-06 -1.65346e-06 -4.97341e-06)
(-5.59365e-08 1.04563e-06 -7.04642e-06)
(2.14882e-06 -2.11968e-06 -4.82287e-06)
(-7.74441e-09 -4.67133e-08 -3.82746e-06)
(-2.09572e-06 -1.81247e-06 -4.88311e-06)
(6.09144e-09 1.06314e-06 -7.06393e-06)
(2.06689e-06 -2.05716e-06 -4.86573e-06)
(-5.11802e-09 -3.8066e-08 -3.80702e-06)
(-2.07998e-06 -1.80539e-06 -4.77042e-06)
(1.19338e-09 1.07147e-06 -7.08138e-06)
(2.02813e-06 -2.14181e-06 -5.07208e-06)
(2.82872e-08 -8.30995e-08 -3.82471e-06)
(-2.09551e-06 -1.79105e-06 -4.58687e-06)
(1.48427e-07 1.10625e-06 -7.07252e-06)
(1.72095e-06 -2.53472e-06 -5.54094e-06)
(1.73428e-07 1.33671e-08 -3.26685e-06)
(-1.11944e-06 1.23889e-06 -3.94313e-06)
(1.26677e-06 6.63289e-07 -3.73334e-06)
(-1.29646e-06 9.58782e-07 -3.66702e-06)
(1.23467e-06 6.91264e-07 -3.67455e-06)
(-1.25645e-06 8.95984e-07 -3.65702e-06)
(1.27098e-06 7.37033e-07 -3.6654e-06)
(-1.26255e-06 8.95873e-07 -3.66814e-06)
(1.47854e-06 7.74711e-07 -3.79696e-06)
(-1.14253e-06 1.14065e-06 -3.74186e-06)
(4.34726e-07 -1.77605e-08 -3.97377e-06)
(-1.24673e-06 7.65228e-07 -3.83695e-06)
(-9.59392e-07 1.00981e-06 -4.00582e-06)
(1.04517e-06 1.36073e-06 -4.27046e-06)
(5.5649e-08 -4.48794e-08 -2.19842e-06)
(-1.74036e-08 -2.48331e-07 -3.47541e-06)
(1.02921e-06 2.3585e-07 -6.77108e-06)
(-3.14651e-06 3.98765e-07 -5.3917e-06)
(-5.07524e-07 1.33652e-06 -5.06402e-06)
(2.72167e-06 2.40505e-07 -3.87922e-06)
(-1.30481e-07 3.48016e-07 -4.45527e-06)
(-9.36668e-09 3.44004e-08 -1.31572e-06)
(-2.45073e-08 3.60619e-09 -1.36244e-06)
(6.43063e-08 -1.4564e-09 -1.33044e-06)
(7.38994e-07 8.68027e-07 -2.26709e-06)
(6.08058e-08 -6.87377e-07 -3.30221e-06)
(1.63815e-07 2.25601e-08 -2.52243e-06)
(1.96555e-07 6.75558e-07 -3.31677e-06)
(1.04247e-06 2.16812e-08 -6.81247e-06)
(-2.73853e-06 -1.91763e-07 -5.17677e-06)
(-2.7441e-06 2.77266e-07 -5.32179e-06)
(4.29893e-06 2.12964e-08 -3.88904e-06)
(1.88757e-07 7.52075e-07 -3.35914e-06)
(5.8063e-07 -8.51981e-07 -2.26478e-06)
(9.72324e-07 7.52835e-07 -2.49748e-06)
(1.90185e-07 4.96112e-08 -2.48364e-06)
(3.92458e-08 -3.08122e-08 -2.56497e-06)
(5.79635e-09 2.52574e-09 -1.3984e-06)
(-1.25102e-09 2.85256e-09 -3.33417e-07)
(-9.86945e-10 1.18951e-09 -5.84837e-08)
(-2.68238e-10 2.73668e-10 -7.88564e-09)
(-4.47206e-11 4.28364e-11 -8.51087e-10)
(-5.33785e-12 4.99781e-12 -7.62622e-11)
(-5.00551e-13 4.6923e-13 -5.93324e-12)
(-5.0882e-14 4.84902e-14 -4.99586e-13)
(-1.19366e-14 -3.60841e-15 -1.04007e-13)
(-3.64166e-14 2.85922e-14 -1.02885e-13)
(-1.83222e-14 4.04859e-15 -7.69238e-14)
(-6.2572e-15 8.50058e-16 -2.3468e-13)
(-2.34204e-14 1.51906e-14 -4.73934e-14)
(-1.19822e-14 1.54385e-14 -2.71168e-14)
(-5.15376e-16 1.02827e-14 -7.60702e-15)
(-5.24806e-15 4.50904e-16 -1.03649e-14)
(6.62864e-15 -2.1746e-15 -1.00748e-14)
(-5.85185e-15 4.00197e-15 -6.61594e-15)
(-8.4848e-15 -1.23438e-14 1.74404e-14)
(-1.03123e-14 -5.59234e-16 -9.32753e-16)
(-1.24044e-14 6.00877e-15 9.81968e-15)
(-4.03809e-15 5.99386e-15 4.96557e-15)
(9.71799e-16 5.74105e-15 -2.02875e-14)
(-6.08825e-16 -3.46595e-15 -2.08701e-14)
(-2.43677e-15 -7.40939e-15 -2.51569e-14)
(-3.46801e-15 3.72533e-16 -1.89563e-14)
(-1.37625e-16 -6.64079e-15 -2.25285e-14)
(-1.45239e-16 -5.10409e-15 -2.19472e-15)
(-8.85384e-15 -1.09608e-14 1.9755e-15)
(-8.78809e-15 1.82156e-15 9.71818e-15)
(-1.24548e-14 1.41653e-14 1.5035e-14)
(1.15624e-16 -3.00086e-15 -1.4247e-14)
(2.77779e-15 2.93831e-15 3.38652e-16)
(5.0253e-16 1.65282e-15 -1.03722e-14)
(-8.35931e-15 -1.55884e-14 -2.198e-14)
(-1.95284e-14 -1.48609e-14 -3.10072e-14)
(-7.32913e-15 -1.26489e-14 -6.254e-14)
(-2.9653e-14 -2.58781e-14 -9.93274e-14)
(-6.10208e-15 2.45855e-15 -2.17359e-13)
(-1.13473e-14 -8.3842e-15 -6.23311e-14)
(-1.76042e-14 -4.87472e-15 -7.13339e-14)
(-1.62752e-14 8.71389e-15 -1.09242e-13)
(-3.66465e-14 -3.67765e-14 -1.31137e-13)
(-2.60214e-15 -1.63585e-14 -3.27825e-13)
(-1.43829e-14 -2.84405e-15 -8.09533e-14)
(-2.34687e-14 -2.51666e-15 -7.68712e-14)
(-3.07114e-14 1.88992e-14 -1.22645e-13)
(-2.35157e-14 -1.16381e-14 -1.09328e-13)
(-1.62262e-15 -1.80244e-15 -3.1469e-13)
(-2.08611e-14 9.22933e-15 -6.53931e-14)
(-1.24842e-14 9.88584e-15 -6.91398e-14)
(-2.20056e-14 8.79959e-15 -2.33359e-14)
(-4.73561e-15 4.68083e-15 -4.0528e-14)
(-5.71865e-14 5.67983e-14 -9.20157e-14)
(-4.34837e-14 -1.73726e-14 -7.42242e-14)
(6.9412e-14 1.23346e-13 -3.64185e-13)
(-5.92675e-13 -3.01195e-13 -1.33841e-12)
(-1.17605e-13 1.39655e-13 -2.85084e-13)
(-4.29581e-14 1.50886e-14 -1.78333e-13)
(-4.03069e-14 2.79705e-14 -7.83416e-14)
(1.02891e-14 1.17136e-14 -4.23603e-14)
(-1.08149e-14 -1.76228e-15 -1.22146e-14)
(1.58188e-15 1.24953e-15 -7.29618e-15)
(-4.38565e-16 4.65712e-15 -1.72784e-14)
(7.44605e-15 9.09672e-15 -2.69492e-14)
(-5.89868e-14 -3.11291e-14 -1.00358e-13)
(8.54717e-15 3.31779e-15 -5.10142e-14)
(-6.30891e-14 4.41507e-14 -1.03389e-13)
(1.78889e-14 -1.37671e-13 -5.09866e-13)
(5.6544e-14 1.64779e-13 -4.8819e-13)
(-7.2574e-13 -5.38975e-13 -1.73941e-12)
(-5.01207e-14 3.21723e-14 -7.127e-13)
(-7.36616e-13 6.65411e-13 -1.86945e-12)
(5.38572e-13 -2.19483e-12 -7.43421e-12)
(9.84996e-13 2.49317e-12 -7.27259e-12)
(-1.01142e-11 -8.52284e-12 -2.59634e-11)
(-7.04775e-13 3.61385e-13 -1.07342e-11)
(-9.61742e-12 9.65928e-12 -2.72187e-11)
(1.07206e-11 -3.20489e-11 -1.03336e-10)
(1.64774e-11 3.51185e-11 -1.02024e-10)
(-1.2652e-10 -1.18046e-10 -3.475e-10)
(-4.74231e-12 3.29396e-12 -1.47871e-10)
(-1.15587e-10 1.26809e-10 -3.57724e-10)
(1.75382e-10 -4.05493e-10 -1.25357e-09)
(2.4396e-10 4.33023e-10 -1.24481e-09)
(-1.35126e-09 -1.36822e-09 -3.91445e-09)
(5.96412e-12 2.50732e-11 -1.74105e-09)
(-1.19258e-09 1.41463e-09 -3.98212e-09)
(2.23267e-09 -4.2276e-09 -1.2525e-08)
(2.93732e-09 4.43853e-09 -1.24812e-08)
(-1.181e-08 -1.26405e-08 -3.51859e-08)
(6.12745e-10 1.53166e-10 -1.66292e-08)
(-1.01298e-08 1.2722e-08 -3.55246e-08)
(2.10705e-08 -3.45044e-08 -9.77993e-08)
(2.69268e-08 3.58408e-08 -9.76996e-08)
(-8.04332e-08 -8.81948e-08 -2.39243e-07)
(7.88739e-09 6.68596e-10 -1.22274e-07)
(-6.73324e-08 8.68244e-08 -2.40221e-07)
(1.39112e-07 -2.072e-07 -5.628e-07)
(1.76049e-07 2.13457e-07 -5.63376e-07)
(-3.96869e-07 -4.30827e-07 -1.15827e-06)
(5.3582e-08 1.96352e-09 -6.50993e-07)
(-3.23157e-07 4.16067e-07 -1.15929e-06)
(5.71572e-07 -8.50303e-07 -2.25716e-06)
(7.0893e-07 8.51374e-07 -2.25118e-06)
(8.43101e-08 -6.76761e-07 -3.31925e-06)
(9.99741e-07 -3.91895e-09 -6.79614e-06)
(-2.70378e-06 -2.20506e-07 -5.16913e-06)
(-2.76256e-06 1.28165e-07 -5.16314e-06)
(4.26999e-06 -4.10829e-08 -3.88356e-06)
(-2.82213e-07 -1.85737e-09 -4.84918e-06)
(-2.86328e-07 9.0715e-09 -4.85467e-06)
(-2.60095e-08 6.98008e-09 -1.36284e-06)
(7.03339e-08 3.16461e-09 -1.33733e-06)
(7.49707e-07 8.79687e-07 -2.28277e-06)
(1.2418e-07 -6.59905e-07 -3.33025e-06)
(1.81334e-07 8.75254e-09 -2.54381e-06)
(6.50049e-08 8.72179e-07 -3.45505e-06)
(9.92143e-07 -1.74889e-07 -6.87822e-06)
(-2.74781e-06 -1.40548e-07 -5.23305e-06)
(-2.70422e-06 1.99867e-07 -5.13873e-06)
(4.2534e-06 -5.8164e-08 -3.9094e-06)
(1.69553e-07 6.84932e-07 -3.30848e-06)
(5.72861e-07 -8.57903e-07 -2.25817e-06)
(1.6115e-07 1.05487e-08 -2.51692e-06)
(4.72913e-08 3.96336e-09 -2.45788e-06)
(6.10428e-09 6.88557e-09 -1.39641e-06)
(-1.18096e-09 -8.44411e-10 -3.35117e-07)
(-9.94967e-10 -8.64657e-10 -5.89153e-08)
(-2.78936e-10 -2.46398e-10 -7.93096e-09)
(-4.69808e-11 -4.18766e-11 -8.52201e-10)
(-5.59334e-12 -5.05286e-12 -7.59601e-11)
(-5.1847e-13 -4.8215e-13 -5.88596e-12)
(-5.44809e-14 -5.11149e-14 -4.97063e-13)
(-9.85222e-15 -4.52754e-15 -8.10528e-14)
(2.17963e-15 -1.57943e-14 -9.98606e-14)
(-3.00496e-14 -3.11075e-14 -1.2085e-13)
(1.89165e-14 -2.96525e-14 -1.17923e-13)
(-7.21369e-15 -1.80745e-14 -9.95485e-14)
(5.27677e-15 1.31728e-15 -3.15994e-13)
(-2.33043e-15 -1.93951e-14 -7.70818e-14)
(1.21433e-14 -3.01699e-14 -5.91561e-14)
(2.63473e-15 -2.22943e-14 -3.5741e-14)
(-3.242e-15 -2.42732e-15 -2.70699e-14)
(-2.49442e-15 -4.85599e-15 -9.75642e-14)
(-5.34422e-15 -1.4035e-14 -8.09632e-14)
(-1.10254e-14 7.03619e-15 -3.19787e-13)
(-1.20719e-14 -2.20778e-14 -6.63487e-14)
(1.65948e-16 -6.53807e-15 -8.2375e-14)
(-3.4651e-15 -1.25012e-14 4.09333e-15)
(6.41067e-15 -4.54412e-15 2.62703e-14)
(1.45826e-15 -7.79936e-15 -2.18221e-16)
(-6.78853e-15 -2.48686e-14 -3.13047e-14)
(-8.79109e-15 -1.05927e-14 -4.01392e-15)
(-6.68985e-15 3.06226e-15 9.93166e-16)
(-1.3893e-14 1.07142e-14 -2.91889e-15)
(-2.68889e-15 -3.27622e-15 -2.60478e-14)
(-5.40168e-14 -7.20087e-14 -1.13526e-13)
(4.41934e-14 -6.16409e-14 -1.08969e-13)
(-2.72185e-14 -4.55284e-14 -9.96712e-14)
(1.67796e-13 6.10688e-14 -5.09309e-13)
(-5.67445e-13 -7.2932e-13 -1.83205e-12)
(2.59525e-12 1.0359e-12 -7.59503e-12)
(-8.60265e-12 -9.8048e-12 -2.69285e-11)
(3.62366e-11 1.68739e-11 -1.05466e-10)
(-1.18007e-10 -1.21345e-10 -3.5614e-10)
(4.40703e-10 2.42578e-10 -1.27256e-09)
(-1.35758e-09 -1.2863e-09 -3.96641e-09)
(4.45449e-09 2.85179e-09 -1.26334e-08)
(-1.24781e-08 -1.11929e-08 -3.53457e-08)
(3.55986e-08 2.57699e-08 -9.82277e-08)
(-8.6857e-08 -7.62553e-08 -2.39104e-07)
(2.1096e-07 1.67871e-07 -5.64638e-07)
(-4.24766e-07 -3.78764e-07 -1.15532e-06)
(8.57333e-07 7.08632e-07 -2.27292e-06)
(-6.84917e-07 7.99138e-08 -3.30019e-06)
(1.6031e-08 1.05555e-06 -6.81826e-06)
(6.7493e-07 1.59534e-07 -3.33461e-06)
(1.78655e-08 1.62944e-07 -2.52167e-06)
(-8.39045e-07 6.13045e-07 -2.25051e-06)
(4.11865e-07 -3.46124e-07 -1.16227e-06)
(2.14289e-09 5.42426e-08 -6.51225e-07)
(-2.04374e-07 1.51254e-07 -5.62837e-07)
(8.60513e-08 -7.24766e-08 -2.41037e-07)
(7.36154e-10 8.23908e-09 -1.22583e-07)
(-3.41259e-08 2.34411e-08 -9.82279e-08)
(1.26882e-08 -1.08887e-08 -3.58031e-08)
(1.74394e-10 7.09702e-10 -1.67595e-08)
(-4.20488e-09 2.57601e-09 -1.26717e-08)
(1.42691e-09 -1.27752e-09 -4.04965e-09)
(2.95904e-11 2.21401e-11 -1.77009e-09)
(-4.0723e-10 2.14235e-10 -1.28188e-09)
(1.29499e-10 -1.23397e-10 -3.68095e-10)
(3.83886e-12 -2.93789e-12 -1.5192e-10)
(-3.26175e-11 1.426e-11 -1.0697e-10)
(9.94335e-12 -1.02245e-11 -2.82946e-11)
(3.93237e-13 -5.51768e-13 -1.11343e-11)
(-2.27587e-12 8.12238e-13 -7.78202e-12)
(6.8897e-13 -7.83132e-13 -1.95369e-12)
(3.30057e-14 -5.13509e-14 -7.35873e-13)
(-1.36184e-13 2.91397e-14 -5.2297e-13)
(-1.11959e-14 -6.17177e-14 -1.8339e-13)
(1.41302e-13 2.87143e-14 -5.31238e-13)
(-6.946e-13 -7.81618e-13 -1.94339e-12)
(-4.88397e-14 -4.01231e-14 -7.36423e-13)
(-1.67888e-13 5.64201e-14 -5.00499e-13)
(4.12621e-14 -6.34992e-14 -1.10408e-13)
(-1.15401e-14 -9.95674e-15 -4.13588e-14)
(-4.1569e-15 -2.94133e-15 -2.49885e-14)
(-3.29089e-15 4.13921e-15 -2.95414e-15)
(9.06659e-15 -1.36072e-15 -3.18966e-14)
(-4.06061e-14 -4.68631e-14 -8.70341e-14)
(8.27079e-14 1.623e-14 -4.29658e-13)
(-6.78787e-13 -6.44351e-13 -1.67045e-12)
(1.47935e-12 5.43127e-13 -6.562e-12)
(-1.00943e-11 -8.90659e-12 -2.56711e-11)
(2.4801e-11 1.19065e-11 -9.65528e-11)
(-1.32333e-10 -1.10957e-10 -3.49843e-10)
(3.51768e-10 2.01338e-10 -1.22394e-09)
(-1.45164e-09 -1.17992e-09 -3.98265e-09)
(3.99774e-09 2.57765e-09 -1.2614e-08)
(-1.27521e-08 -1.03119e-08 -3.59504e-08)
(3.4636e-08 2.45332e-08 -1.00643e-07)
(-8.5483e-08 -7.03002e-08 -2.43697e-07)
(2.14968e-07 1.6433e-07 -5.8666e-07)
(-4.02887e-07 -3.35291e-07 -1.16106e-06)
(8.75915e-07 6.5503e-07 -2.3331e-06)
(-6.43424e-07 1.64969e-07 -3.33466e-06)
(-2.3954e-07 8.62469e-07 -6.85046e-06)
(2.50302e-07 -7.59057e-08 -3.6435e-06)
(3.4133e-08 1.88351e-07 -2.51995e-06)
(-8.0662e-07 9.48429e-07 -2.62002e-06)
(3.86311e-07 -4.80816e-07 -1.31817e-06)
(-1.62299e-09 6.4857e-08 -6.50342e-07)
(-1.89333e-07 2.52985e-07 -6.45983e-07)
(7.93378e-08 -9.32161e-08 -2.63246e-07)
(-2.86566e-09 1.00116e-08 -1.20608e-07)
(-3.03555e-08 3.98246e-08 -1.07999e-07)
(1.05412e-08 -1.26053e-08 -3.69653e-08)
(-8.31326e-10 9.64203e-10 -1.59634e-08)
(-3.72024e-09 4.41237e-09 -1.31152e-08)
(1.02e-09 -1.32165e-09 -3.87989e-09)
(-1.41906e-10 5.40234e-11 -1.60582e-09)
(-3.61211e-10 3.70547e-10 -1.21965e-09)
(7.67769e-11 -1.12943e-10 -3.18339e-10)
(-1.71644e-11 2.27054e-13 -1.29112e-10)
(-2.86986e-11 2.45873e-11 -9.0784e-11)
(4.78893e-12 -8.24644e-12 -2.146e-11)
(-1.59559e-12 -2.8048e-13 -8.75111e-12)
(-1.95719e-12 1.37238e-12 -5.75271e-12)
(2.64549e-13 -5.54067e-13 -1.27519e-12)
(-1.22825e-13 -1.0245e-14 -5.36322e-13)
(-1.2365e-13 7.03552e-14 -3.47736e-13)
(9.64184e-15 -3.05897e-14 -6.73323e-14)
(-3.77821e-15 -1.28209e-15 -2.36936e-14)
(6.6055e-16 1.08843e-14 -2.26661e-14)
(-5.40737e-15 1.38113e-15 1.61983e-15)
(-1.43454e-14 1.00409e-14 -1.76444e-15)
(-2.48601e-14 2.69431e-14 -3.87616e-14)
(-1.26576e-14 -1.00839e-14 -3.73849e-15)
(-1.30734e-14 6.64367e-15 -1.68605e-15)
(-4.76004e-15 -3.65083e-15 -2.12387e-14)
(-3.45298e-14 -2.17539e-14 -3.83258e-14)
(7.44953e-15 1.73475e-14 -2.27992e-13)
(-6.04168e-13 -3.37749e-13 -1.05826e-12)
(-4.61562e-13 3.2465e-13 -1.19165e-12)
(-7.72298e-13 -6.96646e-13 -1.57681e-12)
(-5.10802e-14 -1.00816e-13 -5.34881e-13)
(1.53441e-14 -1.524e-13 -3.48715e-13)
(4.39888e-15 7.37306e-14 -3.98819e-13)
(-5.7457e-14 -4.68552e-14 -8.02549e-14)
(-8.95103e-15 -6.79697e-16 -3.37713e-14)
(-2.7243e-14 1.64865e-14 -6.1272e-14)
(-4.58092e-14 -2.00586e-14 -8.79996e-14)
(-5.72473e-14 -3.96358e-14 -1.92229e-13)
(-8.43755e-16 -4.69277e-15 -4.83974e-14)
(-7.36008e-15 -4.62369e-15 1.47684e-14)
(-1.43536e-15 1.71801e-15 -8.39026e-15)
(2.3746e-15 -7.69182e-15 -7.66108e-14)
(-9.61322e-14 -3.08102e-14 -2.97774e-13)
(-4.85629e-14 -3.13559e-14 -1.51676e-13)
(-4.69047e-14 2.22771e-14 -9.50906e-14)
(-6.33619e-14 -4.67202e-14 -1.08783e-13)
(3.26519e-14 1.3383e-13 -5.01128e-13)
(-8.19045e-13 -6.85383e-13 -1.86099e-12)
(-7.84138e-13 -3.4997e-14 -2.56793e-12)
(8.05261e-13 2.10865e-12 -7.34481e-12)
(-1.09781e-11 -9.97401e-12 -2.7027e-11)
(1.43688e-11 3.07105e-11 -1.01941e-10)
(-1.34376e-10 -1.30864e-10 -3.56384e-10)
(-1.16711e-10 -5.13656e-12 -4.7981e-10)
(2.24137e-10 3.93812e-10 -1.24143e-09)
(-1.4088e-09 -1.44941e-09 -3.98222e-09)
(2.80603e-09 4.19459e-09 -1.24782e-08)
(-1.21159e-08 -1.29053e-08 -3.56084e-08)
(-6.20079e-09 -1.02627e-10 -4.56345e-08)
(2.6345e-08 3.48207e-08 -9.7875e-08)
(-8.10656e-08 -8.74847e-08 -2.40666e-07)
(1.72729e-07 2.09556e-07 -5.63581e-07)
(-3.89854e-07 -4.19486e-07 -1.15904e-06)
(6.39812e-08 -3.45381e-09 -1.32881e-06)
(-2.65671e-08 -3.559e-10 -1.35503e-06)
(-1.76642e-08 2.34557e-10 -3.21074e-07)
(-1.67408e-08 7.33141e-10 -3.23091e-07)
(-6.0591e-09 -3.88104e-10 -5.54079e-08)
(-6.46728e-09 -3.77479e-10 -4.56618e-08)
(2.70464e-08 3.45663e-08 -9.84491e-08)
(-8.46212e-08 -8.95818e-08 -2.43597e-07)
(8.40229e-09 -1.08283e-09 -1.23332e-07)
(-6.66265e-08 1.02755e-07 -2.46433e-07)
(1.36906e-07 -2.52396e-07 -5.81396e-07)
(1.8733e-07 2.1775e-07 -5.76297e-07)
(-3.92907e-07 -4.19522e-07 -1.16215e-06)
(6.2612e-08 2.23201e-09 -6.62587e-07)
(-3.43136e-07 5.19083e-07 -1.21189e-06)
(5.29203e-07 -9.85272e-07 -2.30119e-06)
(1.11891e-06 6.69472e-07 -2.75382e-06)
(2.04955e-07 -6.5147e-07 -3.47013e-06)
(2.93729e-07 -2.04298e-06 -7.48677e-06)
(-2.99387e-06 -1.81685e-07 -5.55375e-06)
(-2.79463e-06 1.58803e-07 -5.11752e-06)
(4.25392e-06 -6.87446e-07 -4.18556e-06)
(-3.31099e-07 -2.03321e-07 -5.00001e-06)
(-1.63423e-09 -7.18554e-09 -1.36266e-06)
(1.98946e-08 4.66468e-07 -1.29602e-06)
(-4.12076e-07 4.39008e-07 -1.43319e-06)
(4.37957e-08 2.13532e-08 -6.00429e-07)
(5.26807e-08 -2.56089e-07 -6.69921e-07)
(-6.95203e-08 9.55425e-08 -2.61843e-07)
(-2.21486e-09 -4.36434e-09 -1.00555e-07)
(7.12592e-09 -2.92469e-08 -1.03101e-07)
(-9.44692e-09 1.26065e-08 -3.40133e-08)
(-1.27274e-09 -1.22915e-09 -1.23068e-08)
(3.7544e-10 -2.77482e-09 -1.15969e-08)
(-1.03861e-09 1.25256e-09 -3.32691e-09)
(-2.12825e-10 -1.7333e-10 -1.14301e-09)
(-1.86043e-11 -2.03453e-10 -9.77534e-10)
(-8.96666e-11 9.69671e-11 -2.46913e-10)
(-2.4154e-11 -1.86372e-11 -8.25253e-11)
(-3.29584e-12 -1.25198e-11 -6.30348e-11)
(-6.24434e-12 6.22412e-12 -1.44924e-11)
(-2.07141e-12 -1.54306e-12 -4.91753e-12)
(-3.11599e-13 -6.10973e-13 -3.26998e-12)
(-3.7487e-13 3.61163e-13 -7.27409e-13)
(-1.62318e-13 -1.03835e-13 -2.58488e-13)
(-2.13759e-14 -2.09923e-14 -1.47421e-13)
(-1.35045e-14 1.46306e-14 -4.64157e-14)
(3.43533e-15 2.86736e-15 -2.50659e-14)
(-1.60626e-14 -3.86512e-14 -1.34993e-13)
(-6.42956e-14 -8.18161e-14 -2.76602e-13)
(4.17905e-14 2.70038e-14 -4.74622e-13)
(-4.09062e-13 -6.59165e-13 -2.94254e-12)
(2.66305e-13 5.30179e-13 -4.11704e-12)
(-9.23567e-12 -5.47532e-12 -1.82315e-11)
(9.6611e-12 1.20843e-11 -7.08112e-11)
(-1.28576e-10 -7.94883e-11 -2.83218e-10)
(-8.87773e-11 9.59957e-11 -2.87272e-10)
(-1.34395e-10 -1.3396e-10 -3.29554e-10)
(-7.23754e-12 -1.31974e-11 -1.26777e-10)
(7.20166e-12 -3.57379e-11 -8.49222e-11)
(9.50015e-12 2.26524e-11 -8.95182e-11)
(-1.06164e-11 -1.01167e-11 -2.38895e-11)
(-8.18789e-13 -1.28545e-12 -8.5963e-12)
(-6.64298e-12 5.86094e-12 -1.93547e-11)
(-9.71184e-12 -3.11743e-12 -2.57193e-11)
(-1.08945e-11 -7.1635e-12 -4.92263e-11)
(-8.457e-13 -5.95119e-13 -3.31875e-12)
(-4.02234e-13 -4.93311e-13 -1.33088e-12)
(-5.21122e-13 -3.89578e-13 -2.99923e-12)
(-1.97691e-13 -4.60642e-14 -1.08088e-12)
(-1.11472e-13 -2.28668e-14 -7.65101e-13)
(-3.23886e-13 -9.54864e-14 -1.11074e-12)
(-8.53378e-13 -3.00871e-13 -2.07437e-12)
(-5.57493e-14 -2.86083e-14 -1.38821e-13)
(-3.05121e-15 2.39077e-15 -1.58715e-14)
(-3.72353e-15 4.72595e-15 -4.8821e-15)
(2.05847e-15 2.69055e-15 -6.45214e-15)
(-1.22153e-15 -1.16137e-14 1.26214e-15)
(2.61275e-15 -1.43021e-15 -2.48248e-14)
(-2.57748e-14 -6.0529e-15 -5.99438e-14)
(1.47337e-14 -6.79145e-14 -4.14829e-13)
(2.40152e-13 -8.79048e-13 -7.84279e-12)
(-7.38188e-12 -1.23709e-12 -2.21908e-11)
(-1.43831e-11 -2.59133e-12 -3.47279e-11)
(-2.13145e-10 -1.12385e-11 -5.28365e-10)
(-1.20297e-10 -1.34871e-11 -3.84033e-10)
(7.51809e-12 -1.18954e-11 -1.38351e-10)
(-7.28423e-12 -1.18072e-11 -5.75844e-11)
(-8.07766e-12 -1.34449e-11 -9.52678e-11)
(1.97433e-11 2.67701e-11 -1.98681e-10)
(-9.3244e-11 -1.96682e-10 -8.97337e-10)
(2.12858e-10 2.0887e-10 -1.03459e-09)
(-1.50608e-09 -9.62042e-10 -3.61271e-09)
(3.20278e-09 2.68224e-09 -1.18995e-08)
(-1.4259e-08 -9.21808e-09 -3.56364e-08)
(-9.29053e-09 1.351e-08 -3.45096e-08)
(-1.26615e-08 -1.33497e-08 -3.55121e-08)
(4.96558e-10 -5.16805e-10 -1.61848e-08)
(1.95271e-09 -4.96958e-09 -1.21481e-08)
(2.6184e-09 3.86091e-09 -1.21312e-08)
(-1.44761e-09 -1.49649e-09 -3.8436e-09)
(-1.93569e-11 -1.0218e-10 -1.60072e-09)
(-1.00796e-09 1.29566e-09 -3.56186e-09)
(-1.09892e-09 -1.01255e-10 -4.78941e-09)
(-8.14164e-10 -4.93722e-10 -6.5835e-09)
(-1.10888e-10 -6.85344e-11 -6.29652e-10)
(-5.71919e-11 -4.79162e-11 -3.54748e-10)
(-8.98777e-11 -1.22966e-10 -6.76382e-10)
(-3.70568e-11 -5.2385e-11 -3.7164e-10)
(-3.65123e-11 -2.36069e-11 -2.96673e-10)
(-7.66976e-12 -7.66057e-12 -4.85904e-11)
(-3.27667e-12 -2.66727e-12 -2.17238e-11)
(-2.51836e-12 -1.17253e-12 -1.63399e-11)
(9.67907e-13 1.05006e-12 -1.06557e-11)
(-7.49162e-13 -1.17901e-12 -5.39196e-12)
(-5.34377e-12 -5.72532e-12 -2.33877e-11)
(-7.538e-13 1.15523e-12 -1.23287e-11)
(-1.79454e-13 -1.13877e-12 -3.48926e-12)
(-1.45792e-14 -6.3763e-14 -2.64561e-13)
(-1.75238e-15 1.16853e-14 -5.33563e-14)
(-4.47629e-15 9.0753e-15 -6.47398e-14)
(-8.53963e-15 2.1154e-14 -2.81022e-14)
(-3.4633e-14 -2.02417e-15 -1.97602e-13)
(-3.50931e-14 -2.95062e-14 -6.88116e-14)
(-7.62398e-14 5.78633e-14 -7.85179e-13)
(-4.68301e-14 3.05044e-16 -9.78737e-13)
(5.3061e-13 -7.00694e-13 -1.77899e-12)
(-1.81522e-13 -7.1055e-13 -2.41375e-12)
(-2.59384e-12 1.03017e-12 -7.47836e-12)
(2.20145e-12 7.65689e-13 -7.70486e-12)
(-1.00649e-11 -1.02355e-11 -2.8253e-11)
(-4.99995e-13 -5.73871e-13 -1.10287e-11)
(8.32683e-12 -9.61821e-12 -2.64879e-11)
(-1.88053e-12 -9.82271e-12 -3.59364e-11)
(-3.63789e-11 1.68472e-11 -1.04788e-10)
(3.20235e-11 1.38456e-11 -1.0645e-10)
(-1.30335e-10 -1.23498e-10 -3.68008e-10)
(-4.51611e-12 -3.07547e-12 -1.51349e-10)
(1.16527e-10 -1.20615e-10 -3.54251e-10)
(-1.31038e-11 -1.12033e-10 -4.79239e-10)
(-4.42373e-10 2.42612e-10 -1.27422e-09)
(4.05406e-10 2.12306e-10 -1.28124e-09)
(-1.42768e-09 -1.27978e-09 -4.05312e-09)
(-2.8372e-11 2.14228e-11 -1.7733e-09)
(1.36717e-09 -1.29621e-09 -3.98636e-09)
(-4.02492e-11 -9.87424e-10 -5.31336e-09)
(-4.46432e-09 2.85221e-09 -1.27192e-08)
(4.23773e-09 2.59676e-09 -1.27169e-08)
(-1.26352e-08 -1.09361e-08 -3.58364e-08)
(-9.23729e-11 7.1545e-10 -1.68565e-08)
(1.2751e-08 -1.14214e-08 -3.58041e-08)
(2.42491e-10 -5.92609e-09 -4.63653e-08)
(-3.56328e-08 2.56173e-08 -9.90461e-08)
(3.46656e-08 2.40553e-08 -9.89256e-08)
(-8.55383e-08 -7.32618e-08 -2.40718e-07)
(1.49048e-10 8.38806e-09 -1.23422e-07)
(8.9107e-08 -7.81873e-08 -2.43146e-07)
(2.93514e-09 -1.47669e-08 -3.00654e-07)
(-2.10605e-07 1.62683e-07 -5.66666e-07)
(2.07345e-07 1.57967e-07 -5.67864e-07)
(-4.10115e-07 -3.55354e-07 -1.15518e-06)
(2.36298e-09 5.51134e-08 -6.53678e-07)
(4.29635e-07 -3.80891e-07 -1.17178e-06)
(3.6486e-09 9.8825e-08 -1.34278e-06)
(-8.50165e-07 6.51741e-07 -2.25339e-06)
(8.39156e-07 6.51137e-07 -2.26836e-06)
(-6.73675e-07 1.25882e-07 -3.31949e-06)
(-4.5853e-10 1.62565e-07 -2.5176e-06)
(6.83585e-07 9.82228e-08 -3.3353e-06)
(-5.5169e-08 4.28339e-06 -3.94504e-06)
(-2.11014e-07 -2.7263e-06 -5.23286e-06)
(-1.78241e-09 -2.86669e-06 -5.0818e-06)
(-2.98612e-07 3.35166e-06 -4.03572e-06)
(-2.10776e-06 8.87089e-07 -4.83816e-06)
(2.91087e-07 2.44418e-07 -2.45331e-06)
(-4.94134e-08 -1.4956e-06 -2.80961e-06)
(-1.21464e-07 -4.62943e-07 -1.56595e-06)
(-2.23024e-07 -2.89223e-07 -1.45671e-06)
(1.14318e-08 2.98379e-07 -1.36664e-06)
(-4.87089e-07 -3.51763e-07 -1.23074e-06)
(1.58539e-07 2.58024e-09 -1.42113e-06)
(-6.72708e-07 7.3576e-08 -1.73279e-06)
(-6.44534e-07 -1.95997e-07 -1.7346e-06)
(2.51579e-08 -1.48077e-07 -9.58567e-07)
(-1.06005e-07 -2.20705e-08 -3.80337e-07)
(-1.61623e-07 2.31153e-08 -4.07594e-07)
(-2.38032e-08 2.41657e-09 -6.11634e-08)
(-1.37968e-08 -1.59465e-09 -5.24709e-08)
(2.14579e-09 -1.72492e-09 -2.15691e-08)
(-1.46368e-09 -1.62782e-10 -5.17527e-09)
(-2.55448e-09 9.10855e-11 -6.51253e-09)
(-2.19907e-09 -1.96413e-10 -6.85277e-09)
(-1.92927e-10 -3.33745e-11 -6.07723e-10)
(-1.44798e-11 -3.64984e-12 -4.51924e-11)
(-1.0194e-12 -3.19237e-13 -3.12393e-12)
(-7.06484e-14 -3.42571e-14 -2.34646e-13)
(7.69898e-15 -1.22786e-14 -3.37997e-14)
(-3.9221e-15 -8.77482e-15 -4.79151e-15)
(1.77439e-15 -2.65177e-15 -1.68029e-14)
(2.47386e-15 -2.60238e-15 -2.32297e-14)
(1.63917e-15 -1.05554e-14 -4.8297e-14)
(9.50024e-15 -5.97978e-15 -7.73104e-14)
(-2.52773e-15 -1.02779e-14 -2.55103e-14)
(-1.11515e-17 3.83012e-15 -2.14178e-14)
(-2.56053e-16 2.98083e-15 -3.84415e-14)
(-6.85214e-15 -2.33816e-15 -3.33153e-14)
(-2.91097e-15 -2.75945e-15 -5.20618e-14)
(-6.13528e-15 2.80354e-15 -3.19118e-14)
(-1.89965e-15 -1.10482e-14 -4.17855e-15)
(-2.99984e-15 -1.04328e-15 -3.40409e-14)
(-1.86695e-14 -2.08264e-15 -2.36106e-14)
(-4.70527e-16 -3.33178e-15 -5.40017e-14)
(3.02785e-16 -4.93709e-15 -1.77655e-14)
(1.97468e-16 -2.24365e-16 -3.08815e-14)
(-9.8015e-16 -3.08076e-15 -1.16452e-13)
(-8.39755e-15 -4.11037e-15 -1.33962e-13)
(-1.8827e-14 -2.50188e-14 -1.48401e-13)
(-1.09333e-14 1.19239e-14 -1.34411e-13)
(4.50472e-16 4.83404e-15 -1.19699e-13)
(-5.52448e-15 9.49867e-15 -1.25623e-13)
(1.89794e-14 1.80284e-14 -1.10825e-13)
(8.85186e-15 5.86718e-15 -4.58557e-13)
(6.73292e-15 8.25915e-15 -1.42916e-13)
(5.52999e-15 -2.8388e-15 -1.23153e-13)
(-4.06137e-15 -9.848e-15 -1.34335e-13)
(9.31605e-15 -1.58228e-14 -4.70121e-13)
(1.2352e-14 -1.98608e-14 -1.51147e-13)
(5.65408e-16 -4.88624e-15 -1.34726e-13)
(-4.63645e-15 -1.50287e-15 -6.57683e-13)
(-3.79292e-15 -6.11407e-14 -5.75365e-13)
(-2.86916e-15 -1.08921e-13 -3.49424e-13)
(-2.93649e-14 -8.8343e-14 -3.01573e-13)
(-2.2885e-14 -3.48294e-14 -1.67023e-13)
(-3.15513e-13 -1.17653e-12 -4.56862e-12)
(-3.41221e-12 -1.42215e-11 -6.25922e-11)
(-2.8065e-11 -1.40217e-10 -7.39043e-10)
(-1.54589e-10 -1.04792e-09 -7.20581e-09)
(-4.33102e-10 -5.32937e-09 -5.55407e-08)
(-3.72103e-09 -2.42712e-09 -5.34603e-08)
(-2.49215e-09 1.25815e-09 -4.0025e-08)
(-5.67234e-09 -1.58281e-08 -6.53093e-08)
(-1.5607e-09 -7.26861e-09 -4.63953e-08)
(-2.9835e-09 -3.78478e-09 -4.06924e-08)
(3.03135e-09 6.17132e-09 -3.03055e-08)
(-7.4018e-09 -2.33034e-08 -9.51322e-08)
(3.43352e-08 2.50083e-08 -1.03608e-07)
(-1.03142e-07 -6.83871e-08 -2.56445e-07)
(2.55e-07 1.6193e-07 -6.52211e-07)
(1.73384e-08 -1.58608e-08 -7.47514e-07)
(-8.08631e-08 -1.77604e-07 -6.06807e-07)
(-2.53624e-08 -3.40965e-08 -2.96894e-07)
(1.98703e-08 5.60329e-08 -2.40608e-07)
(1.65221e-09 -5.43213e-09 -1.25851e-07)
(1.76425e-08 -1.80913e-08 -1.74506e-07)
(1.92796e-08 9.84214e-10 -1.65313e-07)
(-1.99317e-08 -3.15975e-10 -6.00791e-08)
(-1.32128e-07 4.26506e-09 -3.81474e-07)
(-5.92109e-07 1.71074e-08 -1.642e-06)
(-1.94211e-06 -7.76377e-09 -4.5474e-06)
(-2.02963e-06 -2.12441e-07 -4.70032e-06)
(-3.75393e-06 8.91614e-07 -4.99294e-06)
(-9.88551e-07 -4.46917e-07 -3.0604e-06)
(-7.73854e-07 -9.26237e-07 -2.41089e-06)
(5.28816e-08 -1.97012e-07 -2.91659e-06)
(-2.03891e-07 -4.84335e-07 -4.0639e-06)
(4.23858e-07 -3.84466e-06 -4.26581e-06)
(-4.10573e-06 -1.1467e-06 -5.50553e-06)
(-2.58288e-06 1.70674e-07 -9.36019e-06)
(-1.34563e-06 -1.80811e-06 -8.3691e-06)
(1.69226e-06 1.29012e-06 -6.84963e-06)
(1.67188e-07 1.09421e-07 -7.18886e-06)
(9.89262e-08 8.30811e-08 -4.05669e-06)
(-1.53577e-06 1.51017e-06 -5.51582e-06)
(1.67703e-06 1.27295e-06 -5.71658e-06)
(3.97819e-08 1.42848e-07 -7.15766e-06)
(-1.88093e-07 -1.09699e-07 -4.06693e-06)
(-1.65906e-06 1.6024e-06 -5.57102e-06)
(1.63443e-06 1.45212e-06 -5.68493e-06)
(1.23869e-09 1.36997e-07 -7.18249e-06)
(-2.36091e-07 -1.49083e-07 -4.09356e-06)
(-1.65801e-06 1.47815e-06 -5.51505e-06)
(1.59692e-06 1.63387e-06 -5.76557e-06)
(-2.24479e-08 1.34399e-07 -7.22078e-06)
(-3.8965e-07 -3.49057e-07 -4.28077e-06)
(-1.62841e-06 1.27122e-06 -5.56616e-06)
(1.13514e-06 1.63341e-06 -6.31187e-06)
(-1.23741e-06 -6.00978e-07 -9.16592e-06)
(1.18917e-06 1.24174e-06 -8.59039e-06)
(9.04843e-07 -9.84517e-07 -8.42597e-06)
(2.41217e-06 1.14029e-06 -1.09273e-05)
(-1.16359e-06 -4.25201e-06 -1.09984e-05)
(-6.29456e-07 -2.24764e-06 -8.23724e-06)
(2.95262e-07 2.80038e-07 -5.5377e-06)
(1.15966e-06 -1.02392e-06 -7.25898e-06)
(-2.97702e-06 1.47647e-06 -5.36283e-06)
(-1.14892e-07 -7.36998e-08 -3.96074e-06)
(-1.66642e-06 -2.25928e-06 -4.96601e-06)
(2.15731e-06 1.71689e-06 -6.55533e-06)
(2.29548e-06 7.68977e-09 -5.81936e-06)
(1.93706e-06 -1.91089e-06 -6.89999e-06)
(2.48996e-06 -1.9466e-06 -8.38892e-06)
(8.7911e-07 -2.73837e-06 -4.8178e-06)
(-1.21611e-08 4.40893e-07 -3.97607e-06)
(7.65656e-07 -1.24944e-06 -3.83877e-06)
(1.00973e-06 -9.54476e-07 -4.00841e-06)
(1.3517e-06 1.03751e-06 -4.27125e-06)
(-1.25265e-07 -1.04789e-06 -2.47851e-06)
(8.40674e-08 -2.70257e-07 -1.367e-06)
(3.30421e-07 4.26551e-07 -1.23611e-06)
(-4.97783e-08 -1.94913e-07 -5.91417e-07)
(8.69094e-09 -4.64387e-08 -2.93087e-07)
(6.11638e-08 8.56267e-08 -2.35118e-07)
(-6.32411e-09 -2.60089e-08 -9.53865e-08)
(1.77142e-09 -6.54738e-09 -4.30243e-08)
(8.81946e-09 1.17171e-08 -3.21055e-08)
(-3.49127e-10 -2.67959e-09 -1.11922e-08)
(2.98831e-10 -7.13759e-10 -4.63961e-09)
(9.95864e-10 1.20438e-09 -3.27158e-09)
(5.35835e-12 -2.16924e-10 -9.88033e-10)
(3.59779e-11 -5.67353e-11 -3.77923e-10)
(8.92709e-11 9.77653e-11 -2.56647e-10)
(2.95884e-12 -1.40732e-11 -6.78747e-11)
(3.19467e-12 -3.19621e-12 -2.423e-11)
(6.53446e-12 6.551e-12 -1.60552e-11)