/*--------------------------------*- C++ -*----------------------------------*\
| =========                 |                                                 |
| \\      /  F ield         | OpenFOAM: The Open Source CFD Toolbox           |
|  \\    /   O peration     | Version:  2306                                  |
|   \\  /    A nd           | Website:  www.openfoam.com                      |
|    \\/     M anipulation  |                                                 |
\*---------------------------------------------------------------------------*/
FoamFile
{
    version     2.0;
    format      ascii;
    arch        "LSB;label=32;scalar=64";
    class       volScalarField;
    location    "0.2";
    object      gradTx;
}
// * * * * * * * * * * * * * * * * * * * * * * * * * * * * * * * * * * * * * //

dimensions      [0 -1 0 1 0 0 0];

internalField   nonuniform List<scalar> 
5322
(
-0.239213
0.00936525
0.0105358
0.000310085
-0.00059656
-0.000579436
-0.000397238
-0.000266571
-0.000232068
-0.000254942
-0.000463821
0.00463543
0.00706261
-0.0971351
-0.00244946
0.170622
-0.133951
-0.00170247
-0.103256
0.0699908
-0.0949513
0.0888379
-0.0940044
0.103491
-0.105545
0.11227
-0.112748
0.130201
-0.129171
0.143857
-0.136585
0.172443
-0.128636
0.217633
0.0103175
0.295301
0.208816
-0.0829722
0.231612
-0.01353
-0.219728
0.220632
-0.0133679
-0.234682
0.233327
-0.00802298
-0.249432
0.218711
-0.00536919
-0.261651
-0.25898
-0.373958
-0.120375
0.243597
-0.0158333
-0.400176
-0.0118515
0.381353
-0.0046108
-0.381222
-0.00166351
0.371423
-0.00205627
-0.374416
0.000114787
0.366115
0.00504415
-0.370787
0.0177032
0.304753
0.014841
-0.308736
0.350202
-0.361738
0.348156
-0.354636
0.355114
-0.354849
0.404041
-0.293494
0.141161
-0.200736
-0.132585
0.21859
0.0204925
-0.110967
0.151531
-0.413304
-0.143301
0.473384
-0.0209254
0.00677359
0.0122536
0.0635831
0.310137
-0.0676311
-0.00306362
-0.0298452
0.156088
-0.365761
-0.365543
0.783974
-0.0296027
0.239542
0.390445
0.00103933
0.00315558
0.00320666
0.00176567
0.000738097
0.000216517
-0.000103219
-0.00055911
-0.00123975
0.00182197
-0.000661711
-0.0561696
-0.0552627
0.00600823
0.0351142
0.00191779
0.0533571
-0.0638359
-0.00478233
-0.0148689
0.0989981
0.0813527
0.022488
0.0636758
0.0410155
0.0311381
0.0683724
0.0343561
0.0368714
0.0695567
0.0300488
0.0581462
0.0790491
0.0895734
0.00386219
-0.0657418
0.00354911
0.0439637
-0.053374
-0.0574074
0.00835475
0.023532
0.0128626
-0.0449181
-0.0493906
0.00941906
0.0145151
0.0175529
-0.0487528
-0.0462034
0.00949894
0.00946329
0.0279043
-0.053276
0.0695841
-0.150907
-0.201936
0.17769
-0.211913
-0.00914028
-0.142473
0.00142573
0.137443
-0.0328495
0.161628
0.0800752
0.11948
-0.180854
0.0701695
-0.15587
0.105679
0.137708
-0.17208
0.00517017
-0.146286
0.133174
0.165721
-0.182518
0.000782139
-0.152973
0.152236
0.185985
-0.199578
0.00209643
-0.166566
0.170957
0.207663
-0.222886
0.00309892
-0.186127
0.190442
0.232186
-0.25298
0.00393857
-0.211789
0.210146
0.259011
-0.289767
0.00504166
-0.242376
0.228335
0.28657
-0.329157
0.00701263
-0.271938
0.239386
0.298576
-0.0606586
0.149225
-0.36262
-0.369795
0.788215
-0.030176
-0.0326398
0.0138979
0.0688162
0.308384
-0.0521631
7.1866e-05
-0.0595991
0.14258
-0.369122
-0.363537
0.783558
-0.0365731
0.239526
-0.00337617
0.00518236
0.00384016
0.00228398
0.00105804
0.00038155
-2.14629e-05
-0.000510285
-0.00112495
0.00181699
-0.00061225
0.0445567
-0.0494906
0.0493436
-0.0447381
0.000101991
0.0447607
-0.0422356
-0.0002145
-0.0529294
3.66854e-05
-0.0447447
-1.96071e-05
0.0421538
0.00166289
0.049428
-0.00404866
-0.0534648
0.000164409
0.0528679
-4.81049e-05
-1.73928e-06
0.0939852
-0.162956
0.162794
-0.160954
0.172507
-0.180725
0.195113
-0.201856
0.214275
-0.223544
0.237592
-0.24928
0.266437
-0.279295
0.300612
-0.312304
0.337888
-0.342108
0.370988
-0.205767
0.004698
0.208091
0.00580492
-0.361609
0.333169
0.00184074
-0.327946
0.305486
0.001201
-0.2919
0.273514
0.000772766
-0.258898
0.243965
0.000501592
-0.230887
0.218629
0.000427082
-0.207914
0.197523
0.00055497
-0.188518
0.177879
0.000587108
-0.165865
0.00011297
0.165859
-0.177912
-0.00076715
-0.172205
0.160749
-0.000307445
-0.0947764
-0.00615781
0.0963885
-0.168764
0.165834
-0.178733
0.185554
-0.195732
0.20462
-0.215073
0.227552
-0.239119
0.256083
-0.267411
0.290771
-0.297457
0.32987
-0.320929
0.364426
-0.203058
-0.0463043
0.0870305
0.0104039
-0.338762
0.289562
0.00334889
-0.298981
0.273761
-0.00011397
-0.258449
0.243677
-0.000931847
-0.227736
0.216125
-0.000951833
-0.203444
0.194139
-0.00143158
-0.183765
0.177503
-0.00256318
-0.16717
0.163429
-0.00506283
-0.147251
0.132566
0.00272375
-0.0476485
0.0809327
0.133243
0.00346179
0.0163682
-0.0242948
0.0688059
-0.212121
0.16393
-0.210112
-0.141501
-0.175136
0.00586676
0.11283
0.124901
-0.176494
0.0678047
-0.158183
-0.011987
0.00819457
-0.0635228
0.00541394
-0.00257208
-0.0672159
0.00628645
-0.0112312
-0.160709
-0.174305
0.128135
-0.169751
0.00111506
0.160136
-0.180893
0.182653
-0.198216
-0.00111217
0.205297
-0.221755
0.229859
-0.252013
0.00621953
0.255986
-0.287643
0.28142
-0.322149
0.0665901
0.0137255
0.00684373
0.00743148
0.00179984
0.00677493
0.264892
-0.295199
0.006739
-0.239464
0.210626
0.292858
-0.323364
0.0110032
-0.284102
0.210645
0.421833
-0.0438353
0.0132639
-0.397037
-0.367662
0.745061
-0.0482721
0.0100352
0.0173902
-0.204558
0.0439178
0.142868
-0.148124
0.0112081
0.137078
-0.1236
0.00126101
0.118946
-0.112709
-0.000573131
0.101735
-0.098421
-0.00284039
0.096333
-0.0866104
-0.00592146
0.094129
-0.0636488
-0.0091239
0.106222
0.03997
0.0294045
-0.00742714
-0.00382733
0.043383
-0.0189128
0.200519
-0.221967
0.227091
-0.242598
-0.157007
-0.203843
0.00207419
0.148753
0.187575
-0.186026
0.000911309
-0.143983
-9.95368e-05
-0.000443765
0.00113229
-0.000703536
0.00154077
0.0110846
0.00986863
0.0162827
-0.0102305
0.000765924
0.0748016
0.117569
0.0982022
0.0333813
0.150869
0.0595509
0.0303426
0.011511
0.00195895
-0.00997078
-0.0115262
-0.0035146
0.00627726
-0.0268201
0.000312498
0.0343602
-0.0314329
0.254009
-0.270746
0.285312
-0.309077
-0.202582
-0.259565
0.00449025
0.181914
0.237012
-0.228235
0.00323685
-0.176172
0.000466411
0.000327096
-0.000467129
-0.000831179
-0.00208429
0.000595461
0.00035634
-0.00107472
0.0021917
0.00298335
0.0364786
-6.74814e-05
-0.00102285
-0.00104709
0.000398754
0.000494759
-0.00424597
0.00975789
-0.112615
-0.00083583
0.0011654
-6.43904e-06
-0.00152731
0.18083
9.34758e-05
-0.194935
0.1886
-0.197397
-0.000615283
0.202288
0.00022634
-0.214091
0.208244
-0.218255
-0.000214377
0.224318
0.000419969
-0.237254
0.231621
-0.243188
0.000144482
0.250576
0.000646181
-0.265905
0.26025
-0.272111
0.000577401
0.281396
0.000734765
-0.299793
0.294047
-0.303199
0.00128938
0.314977
-8.93663e-05
-0.336256
0.330454
-0.330401
0.00205188
0.342805
-0.00287757
-0.367775
0.362591
-0.206396
-0.000346919
0.204812
-0.0133407
-0.0294044
-0.0273722
-0.0337597
-0.380409
0.0881545
0.0702447
-0.0310811
-0.0633512
-0.0271008
-0.376674
0.0818105
-0.117278
-0.178252
-0.051881
-0.0528459
-0.0617566
-0.0313093
-0.015727
0.00620088
-0.0069683
-0.0173695
-0.0174537
-0.0121002
-0.0126632
-0.0158339
-6.79612e-05
0.0879806
0.101969
0.100125
0.115336
0.143665
0.136821
0.106258
0.106966
0.0700911
-0.06226
0.020057
-0.00728414
-0.00509856
0.0182053
-0.0542712
-0.000145063
-8.10587e-05
-0.00017006
2.20116e-05
-0.0343221
-0.0391438
-0.0388071
-0.0347285
0.0344552
-0.0291534
0.00110694
0.039012
-0.0335646
-0.0336878
0.00110109
0.0388564
6.4242e-06
2.51728e-05
3.66018e-05
3.64992e-05
-0.00108035
0.00134609
-0.000681423
-0.000362935
2.77339e-05
0.000426754
0.00102387
0.00269719
0.00131371
-0.00213291
0.00586202
-0.00310943
0.0375656
-0.0532803
0.325285
-0.35435
0.375833
-0.00628052
-0.109083
-0.0179946
0.0301308
-0.00161659
-0.0007876
0.00343135
-0.030885
-0.0574082
-0.111131
-0.254778
-0.261332
-0.625451
-0.276633
-0.239406
-0.00656643
-0.0937281
0.0790167
-0.525214
-0.316877
-0.150903
0.234009
0.0187411
0.0111312
-0.24239
0.255849
0.00157254
-0.030973
-0.265448
0.256952
0.000482505
-0.0343571
-0.259078
0.256179
0.00217462
-0.055755
-0.247221
0.182767
-0.150682
0.126987
0.0965665
0.279482
-0.13135
-0.0745802
0.0413838
0.163669
-0.518049
-0.0271779
-0.302242
0.276417
0.259845
0.243527
0.306707
0.142473
0.0280242
0.115149
0.171359
0.277034
-0.114104
0.0256151
0.186024
-0.142987
0.000918547
0.145395
-0.131754
-0.00111357
0.125489
-0.114918
-0.000447263
0.111261
-0.102077
-0.000340166
0.0996274
-0.093378
-0.00105144
0.0877014
-0.0914529
-0.00692695
0.0693916
-0.100967
-0.0372774
-0.000738246
-0.133398
-0.0824887
0.0482463
-0.132628
0.14931
-0.162407
0.00474044
-0.166187
0.168523
-0.00241091
-0.0962721
0.00616288
0.0949303
-0.0938906
0.000360734
0.000584465
0.000177657
0.000155407
0.000256725
0.000286732
0.000430014
0.000652086
0.00112377
-0.00226725
0.00180402
-0.000916932
0.0363016
-0.0378461
-1.7377e-05
0.000687994
0.00560137
0.00481672
0.164233
0.211337
-0.00117464
-0.166071
0.171124
0.00316743
-0.185725
0.190122
0.00403073
-0.212068
0.209256
0.00518089
-0.244862
0.226694
0.00702805
-0.27886
-0.00486546
-0.00130158
-0.0501436
-0.0499021
-0.10374
-0.0525349
-0.029179
-0.0171857
-0.0124376
-0.013496
-0.016549
-0.00128461
0.0858722
0.0985983
0.0958479
0.137037
0.082331
-0.00116018
-0.0143022
-0.012318
-0.0121695
-0.0167108
-0.0278517
-0.0505185
-0.0982866
-0.228005
-0.240806
-0.421972
-0.328571
-0.10643
-0.106626
0.213551
0.0239423
-0.0264532
-0.0210993
0.103194
0.00392221
-0.0830045
-0.0793933
0.0818492
-8.53069e-05
-0.0914205
-0.0874472
0.0718992
-0.000161164
-0.113581
-0.108334
0.0353693
-0.149721
0.0991198
0.0961644
0.100549
0.0877272
-0.129728
0.00957237
0.0473068
-0.148895
0.0350581
-0.141512
0.164648
-0.370864
-0.0180194
-0.356933
0.255514
0.267753
0.263309
0.258309
0.258677
0.256897
-0.386295
-0.0214052
-0.34846
0.237436
0.254459
0.238469
0.251212
-0.0179015
-0.37164
-0.369262
0.165063
0.264111
0.23836
0.231426
0.288456
0.281076
0.222126
0.0657911
0.140605
0.0582269
-0.0315459
0.0630354
0.0115159
-0.0460891
0.0421998
0.00329273
-0.0424904
0.0370864
0.00169629
-0.0385941
0.0326478
0.00098292
-0.0335468
0.0303435
0.000668805
-0.0308381
0.0266668
-0.00111967
-0.0293023
0.0234078
-0.00568763
-0.0358197
0.0128252
-0.0269804
-0.0658552
-0.0312936
-0.0967565
-0.116634
-0.118805
-0.0799699
-0.0586637
-0.0903233
-0.00380584
0.066158
-0.0499216
0.00487357
0.0548131
-0.0546493
0.0023133
0.0571192
-0.0585897
-0.00194784
-0.0039592
-0.101974
-0.00033011
-0.166836
0.000210445
-0.16826
0.000938033
0.180304
-0.182989
0.000152027
-0.187374
0.00262185
0.197237
-0.178917
0.000873977
0.186949
0.00144807
-0.195931
0.00112016
0.206271
0.00129801
-0.217573
0.00138744
0.229816
0.000240945
-0.24337
0.0016214
0.257168
4.14115e-05
-0.272537
0.00209703
0.28782
-0.00345866
-0.301056
0.00426398
0.317417
-0.00494666
-0.00838095
-0.396101
-0.286572
0.00892111
0.349501
-0.00347878
-0.352636
-0.244722
0.00752727
0.325536
-0.00182997
-0.313818
-0.215738
0.00421229
0.293696
-0.00148214
-0.279757
-0.191296
0.00240048
0.264284
-0.00053217
-0.249591
-0.170763
0.000872695
0.238723
-0.000335039
-0.224057
-0.153427
-0.00121283
0.219647
0.000861388
-0.198481
-0.138029
-0.00174815
0.208372
0.0042912
-0.16328
-0.11556
0.0107673
0.2111
0.0252208
-0.0178642
0.0484067
-0.0827063
-0.133888
-0.000491835
-0.0378677
0.00120166
0.115128
-0.00948218
0.00163963
-0.0968607
0.000458742
0.167257
-0.163465
-0.000959264
-0.167493
0.00495589
-0.164594
0.000263164
0.170698
0.0042378
0.00141523
0.000458008
0.00194581
0.175106
0.00126116
-0.00145734
-0.0424423
-0.000118184
0.045941
-4.15486e-05
0.00015637
0.000210967
-0.00729458
-0.00843661
-0.00604734
-0.0659125
0.00604868
-0.0111654
0.000223565
0.000381194
0.00109515
0.162985
0.134526
-2.8553e-05
0.00111839
-0.00417518
-0.00540794
0.113052
0.0055436
-0.147109
0.136223
0.000862969
-0.152779
0.153328
0.0021242
-6.40881e-05
-0.000833968
0.000124076
-0.00116758
-0.000582263
0.000286063
-0.000690976
-0.00118384
-0.00085435
0.000312485
-0.00115779
-0.000371633
6.13686e-05
-0.145596
0.132743
0.210817
-0.224147
0.232889
-0.244462
-0.00151315
-0.183796
-0.00117548
0.17918
-0.00282169
-0.168451
-0.0049189
0.172213
0.00815814
0.0114131
-0.121528
-0.0014017
0.133778
-0.14142
-0.000168658
-0.243536
-0.000646269
0.253923
-0.222851
4.91989e-05
-0.237411
0.000146096
0.250339
-0.2473
4.22193e-06
-0.259743
3.8723e-05
0.27459
-0.282456
-0.000346694
-0.284773
1.63736e-05
0.30018
-0.317084
-0.00192132
0.331299
-0.344193
-0.00551942
-0.00893576
-0.00181366
-0.000603822
0.000117245
0.000303891
0.000401424
0.000706212
0.00120384
-0.00181614
0.000546001
-0.0445819
0.0496119
-0.0490184
-0.0457281
0.000456587
0.000295407
-0.000996105
0.0026741
0.0433595
0.000388947
-0.00051255
-0.00402553
0.00525269
-0.0046196
-0.0645392
0.00574497
-0.0140578
0.0998426
0.00620912
-0.00462939
-0.00381598
0.00249409
7.94793e-06
0.0332787
0.0337347
-0.00101496
0.0287206
0.0445625
-0.000767723
-0.000965625
-0.000982735
-0.000743214
0.00320419
-0.0516028
0.135263
0.00767497
-0.202177
-0.0013702
0.209543
-0.183982
-0.000843818
-0.19597
-3.77996e-05
-0.200732
-6.31419e-05
-0.210331
0.000517355
0.220851
-0.226525
-3.89558e-05
-0.228174
0.0010946
0.240731
-0.254496
0.000621188
0.268954
-0.000120062
0.000128721
0.000296721
0.000572125
0.000834346
0.00110882
7.76451e-05
-2.2365e-05
-0.00108072
-0.00103219
-0.00372618
-0.00482133
-0.00101892
-0.00105322
5.54661e-05
6.02365e-05
0.000175415
0.000125405
0.000226545
0.000236067
0.000285049
0.000325194
0.000384994
0.000374793
0.0018031
0.00228083
-0.00272255
0.0058965
-0.0061817
0.0559042
-0.312295
-0.0818266
0.000973433
-0.0291626
0.139825
-0.141127
-0.445065
-0.166432
-0.00166616
0.0412338
0.00143974
-0.330395
-0.142404
-0.0950752
0.202982
0.0234975
-0.0227784
-0.0391213
0.111802
0.00380842
-0.0772889
-0.0957398
0.0959003
0.000187367
-0.0851339
-0.100664
0.0891204
0.000671648
-0.109353
-0.114131
0.0229841
-0.00641657
0.00108362
0.00126498
0.329278
-0.297972
0.00309488
0.29206
-0.00993866
0.00693511
-0.369085
0.00404566
-0.228825
0.246474
0.000109756
-0.248106
-0.433242
0.354153
-0.0243166
0.0397192
0.141544
-0.000174675
0.317214
0.234221
0.263384
-0.335067
0.00718495
-0.28355
0.00374506
-0.313841
0.00996551
-0.300705
0.00363687
-0.302254
0.0107487
-0.322658
0.245314
0.240096
-0.0164993
-0.446689
-0.359038
0.162471
-0.113955
0.149837
0.0851686
0.100787
-0.139914
0.0391825
0.0299964
-0.153337
0.0591854
0.108059
-0.131432
0.21303
-0.113979
0.0181265
-0.119449
0.0198766
-0.129607
-0.1015
0.0188756
-0.00831464
-0.0016387
-0.00101422
-3.57731e-05
0.000471955
0.000484174
0.000468186
0.000706466
0.00118196
-0.00184037
0.000587559
-0.0290612
0.0344222
0.000259253
0.00692145
0.00496413
0.00400598
-0.0496987
-0.00356562
0.0535157
-0.0439249
-0.0239599
0.0542194
-0.0585856
-0.0802167
-0.0904946
0.064104
0.065991
-0.00395627
-0.0055509
-0.0180675
0.00211824
0.0676836
-0.0121967
-0.0157725
-0.00916414
0.048878
0.0489228
-0.0158555
-0.0120727
0.0625893
-0.0339838
-0.0723206
-0.0341662
0.0666712
-0.00607238
-0.00649916
-0.0084494
-0.00191449
0.0013408
0.114992
-0.00967672
0.00448887
-0.000215256
1.64554e-05
4.02331e-05
-9.06307e-05
-0.000333319
-0.000806652
-0.00167029
1.28484e-05
-0.000965314
0.000835334
-0.0103632
-0.00349838
0.00788409
-0.0166804
-0.00700539
-0.00708568
-0.203499
0.19555
-0.00568301
-0.00452343
0.0109731
-0.00646044
-0.00444082
0.0342316
0.0672105
0.0349872
0.222536
-0.108723
0.0186953
0.135318
0.162315
-0.0566525
0.0111765
-0.00215563
0.010462
-0.00251906
0.00101334
-0.0175178
-0.00245451
0.000478484
0.000175159
-0.000177176
-0.000497356
-0.000230567
-0.000832012
0.00066338
0.00121899
0.000380699
-0.000923007
0.0015099
0.00250106
0.00306546
0.00351809
0.00497457
0.00630177
0.00193685
0.00337646
0.00196794
0.000845517
0.000250488
0.000477955
0.000411076
0.000892586
0.00137647
-0.18571
0.16867
-0.176337
0.184423
-0.193279
0.0015655
-0.204208
0.195376
0.00244296
0.00124715
0.00080441
0.000299411
0.178435
0.00111466
-0.00157557
0.0535436
-0.00109981
0.00106451
0.00484842
-0.00808622
0.0571988
0.0449123
-0.0197405
0.00786207
-0.000162336
-6.98559e-05
0.0291987
-0.00100164
-5.82438e-05
0.0205695
-0.062346
0.0180411
0.000225672
0.00722696
0.00528364
0.000564415
-0.0054876
0.00225174
0.00487108
-0.0197813
-0.018165
0.0573988
-0.0240249
-0.0438691
-0.00816009
0.0540492
-0.00349171
0.00488265
0.003806
-0.00258393
-0.000101113
0.00112664
0.00380764
-0.000728439
-0.00140883
0.000108976
0.000325788
0.000753243
0.000591943
0.000254807
0.000419017
0.00012845
0.214956
-0.226515
0.203677
-0.215164
0.227589
-0.241838
0.00209915
-0.253873
0.239263
0.00155274
0.000287134
0.000883668
0.000908025
0.00138828
0.000720731
0.00045309
6.3428e-05
0.000395087
0.000352186
0.000586857
0.000335591
0.000641207
0.00169257
0.00754838
0.00617699
0.0250434
0.00170986
0.000784967
0.000298545
-0.00020205
-0.00107724
-0.0004537
-0.000457805
0.000124371
-5.03142e-05
-3.68201e-05
0.00022417
0.000257289
0.000224892
-1.83208e-05
-0.000510788
-0.0010642
-0.00113387
-0.000484544
4.17921e-05
0.000108473
0.000183202
0.000281263
0.000373124
0.000605165
0.000505488
0.000534122
0.00108903
0.000925669
0.00056767
0.00150993
0.00327971
0.0012375
0.00160729
0.0464117
-0.00889318
0.00456433
0.00119718
0.00437107
0.100927
-0.00441611
-0.0146542
0.0761811
0.0243025
-0.330046
-0.11746
-0.231917
0.216678
-0.15055
-0.161363
0.194723
-0.247114
-0.0133892
-0.0183229
-0.217397
0.192728
-0.00249892
-0.0102565
-0.000846187
0.00381327
0.00528645
0.0809015
0.0264933
-0.149123
-0.132409
0.238063
0.0227396
-0.0563148
-0.0168146
0.0961644
0.0028399
-0.110806
-0.0719579
0.0727061
-0.000259065
-0.115659
-0.0795033
0.0634604
-0.000833836
0.101028
0.0975747
0.00577135
0.128111
-0.124836
0.000720061
-0.10681
-0.000686484
-0.00221806
-0.000360967
3.04925e-05
0.000203088
0.000199992
0.0001589
0.00011634
5.13026e-05
-0.000413254
-0.00115076
0.00118934
-0.152247
0.152591
0.00214761
-0.165885
0.171353
0.258201
-0.272035
0.288495
-0.307665
-0.00117319
-0.229208
0.00232492
0.216964
-0.00137313
-0.20339
0.000565527
0.195281
-0.00312711
-0.00182453
-0.151696
-0.00123374
0.159727
-0.173586
0.000515572
-0.299367
2.42405e-05
0.317398
-0.276925
0.000122387
-0.295064
0.000416172
-0.308618
-0.000510831
-0.321724
-0.000998779
0.336017
-0.348766
-3.47373e-05
0.352308
-0.000932698
-0.346704
0.345702
-0.00104657
-0.339901
0.343565
-0.350085
-0.000171353
0.000341133
0.00165892
0.0013168
0.000652852
0.000240608
-4.55509e-05
-0.000439045
-0.00115869
-0.000885412
-0.00134754
-0.00129373
-0.000883833
-0.000193122
-0.185221
0.191094
0.00424641
-0.210444
0.211456
0.323269
-0.352488
0.360407
-0.401354
0.00877333
-0.327087
0.0307069
0.271947
0.000297615
-0.266714
0.00850686
0.243926
-0.00545813
0.000388528
-0.187652
0.0019468
0.208192
-0.222339
0.00156947
-0.371882
0.00186532
0.395896
-0.338963
-0.00124121
0.349591
0.00287148
-0.396435
0.231813
-0.000643731
-0.254086
0.224044
-0.253783
0.0109154
-0.0365769
-0.01828
-0.0312028
-0.053921
0.285457
-0.422614
0.0909386
-0.0795891
-0.0353083
-0.0183995
-0.0115137
-0.00862625
-0.00750387
-0.00416346
0.0264418
0.286347
0.14267
-0.0740844
0.0499457
0.0251557
0.163856
-0.142304
0.153175
-0.00912713
-0.100031
0.00479808
0.18241
-0.172688
-0.000492824
-0.174392
-1.696e-05
-0.180637
-0.000101782
-0.190873
0.000864473
0.199855
-0.204556
7.79175e-05
-0.206041
0.00144103
0.216794
0.000833401
0.000516879
0.217108
0.00109921
0.197981
-0.000162335
-0.00111561
-0.00221052
-0.00756879
0.00115139
0.100039
0.0069056
0.00846367
0.0345828
0.060777
-0.0864962
-0.00089698
-0.130627
0.000539332
-0.223482
-0.00115302
0.230312
-0.202276
-0.000251617
-0.214826
4.82301e-05
-0.222057
1.05107e-05
-0.232932
0.000271376
0.245786
-0.252378
-0.00015936
0.267001
-7.53554e-05
0.000199742
0.239821
-1.50132e-05
0.000148926
-0.000217283
-0.000915887
0.193177
-0.00195239
0.172387
0.0103589
0.00417641
0.132348
0.00443362
0.00373082
-0.00200648
0.139438
-0.000631103
-1.06179e-05
-0.137
-0.00152492
-0.15579
0.000120619
-0.268644
-0.000335962
0.282855
-0.247848
0.000167823
-0.264485
0.000262597
-0.276482
-0.000151463
-0.290071
-0.000351094
0.306073
-0.315922
-0.000563292
0.329293
-0.00068362
-0.000217768
0.000102371
0.00020237
0.000359154
0.000396579
0.000682787
0.00105663
0.000610556
0.000610185
0.000398448
0.000495285
0.000711469
0.00166373
0.00250497
0.0002531
0.000498777
0.000403971
0.000310778
0.000350796
0.000334459
0.00121664
-0.000602753
-0.149312
-0.00264083
-0.146235
0.168444
-0.00155004
-0.166938
-0.170778
0.171683
0.160533
-0.00153605
-0.159363
-0.182063
0.18234
-0.158159
-0.00279533
-0.14145
0.154075
0.162055
0.159703
0.156164
-0.00246763
-0.15569
-0.144601
-0.000590924
0.163502
-0.00128852
-0.178979
-0.163254
-0.00177266
0.176882
0.00130296
-0.201901
-0.18326
-0.188245
-0.192697
0.00119825
0.182599
0.186434
-0.00174333
0.173383
0.00115892
-0.178793
-0.205503
0.198383
-0.00184789
-0.149708
-0.224709
-0.00159513
0.148367
-0.000863967
-0.13482
-0.199262
-0.00233578
0.146113
0.172242
-0.121268
0.00985922
-0.117855
-0.00550568
-0.119492
0.00972897
-0.11752
-0.00548596
-0.119922
0.0102003
-0.11972
0.170153
0.147862
-0.00590879
0.00494383
0.00150128
-0.0876862
-0.103916
-0.0985302
-0.109272
-0.104042
-0.104873
-0.107577
-0.0893372
-0.137879
-0.108256
-0.0989196
-0.103629
-0.0699394
-0.0300389
-0.037335
0.062459
-0.0698989
0.165523
0.167364
0.166084
0.166749
0.172844
0.162224
-0.0676741
0.0545417
-0.0299102
-0.0699982
-0.0375266
0.0677344
-0.0064229
-0.000640907
-0.00063374
0.00071804
0.00165296
3.01868e-05
-0.00268047
0.205466
0.00323589
-0.211867
-0.217022
-0.200729
-0.231455
0.00301296
0.191044
0.219085
-0.0027083
-0.166591
-0.251075
0.000681393
0.160225
0.239709
8.5401e-05
0.0290401
-0.031626
0.000649953
0.0318529
-0.0354035
0.00116835
0.0359133
-0.0392858
0.00287558
0.0446952
-0.0398857
0.0112282
0.0709656
0.0208059
0.0225642
-0.00096128
0.00950061
-0.00442048
0.00645452
-0.00426357
0.0053329
-0.00382705
0.00368052
-0.000545918
-0.0296667
0.220097
0.000928343
0.0256071
-0.0355478
-0.00499389
-0.00698121
-0.00624903
-0.0241413
0.0151031
0.00440272
-0.163961
0.0101866
-0.113298
-0.00599333
0.00515843
0.00247505
-0.0704899
-0.118752
-0.115788
-0.0968599
-0.0307636
-0.0660077
-0.0264868
-0.0520481
-0.149702
0.0252504
0.211102
0.161233
0.173907
-0.0675114
-0.144198
-0.0872946
0.00187357
0.0196863
0.0148505
0.013363
0.0119677
0.0123341
0.00218958
-0.186294
-0.282429
0.265486
0.177104
-0.00424705
-0.00257949
8.45158e-05
0.000578755
0.015622
0.0120069
0.0107605
-0.00541025
-0.00342833
0.243227
0.00466412
-0.225346
-0.2612
-0.207886
-0.320828
0.00329017
0.198393
0.296705
0.00052131
0.00167383
0.00120198
0.000805242
0.00133546
0.00233987
-0.28655
0.256649
-0.272004
-0.00254977
0.00315818
0.00201033
-0.000163452
0.000548947
4.13738e-05
0.268098
0.000571687
0.000219592
0.299945
0.00294761
9.83024e-05
0.00326682
0.00395214
-0.000917054
8.07206e-05
0.000498547
0.000166763
0.000334992
-0.000139474
0.000235201
0.000358823
0.000944958
0.000335432
0.000420756
0.000351276
-0.000117593
-6.84541e-05
-6.25592e-05
-0.000280444
0.000126367
0.00317966
0.00524665
0.00384801
0.00310672
0.00319849
0.00357091
0.000649669
0.000594192
-0.00574884
-0.000934025
0.155824
0.00182709
0.00435047
0.00426276
0.00402581
0.00401768
0.00507679
0.00124129
0.00157397
0.00396155
0.0056183
-0.240362
0.23062
0.00859829
-0.266574
-0.00216744
-0.00354626
-0.0492564
-0.0641082
-0.289157
-0.297906
-0.486043
0.122277
0.0437383
0.241217
-0.0860735
0.131281
-0.0146732
-0.149109
0.134581
-0.0032582
0.0994192
-0.00339233
0.126595
-0.139477
-0.0115906
-0.00362783
-0.00444842
0.00186513
-0.0159776
0.105255
-0.00498489
0.00476171
0.00365464
0.00213861
0.0017409
0.000880888
0.000779748
0.00149909
0.00107311
0.00521464
0.00597455
0.0202774
0.0038469
0.000923233
-0.000366665
0.183071
-0.195409
0.00107727
-0.33482
0.000719957
0.35705
-0.308687
-0.000212385
-0.326568
0.000410038
0.322874
-0.000168271
7.42222e-05
0.000283852
0.000501995
0.00113378
0.00590161
0.00159076
0.000724761
0.000383639
0.000163451
0.000124103
0.000131789
0.000122322
9.76387e-05
0.19276
7.60953e-05
0.202718
5.07488e-05
0.181539
0.170159
0.000674316
0.166502
0.0995344
0.00262517
0.00055718
-7.2952e-05
0.00013581
-0.000250127
0.212385
0.00160799
-0.00287066
0.143629
-0.0014351
0.00143458
-0.00309659
0.164394
-0.00120723
-0.00160627
-0.168625
-0.000204089
0.181403
-0.00336546
-0.000746511
0.00231478
0.00178529
0.000151831
0.235181
0.000203261
0.234903
0.000284571
0.000658101
0.262479
0.000322218
0.280066
0.000249923
0.00164665
0.293691
-0.00512938
0.204589
-0.00292299
-0.00041391
-0.21332
0.0055398
0.225658
-0.0123464
0.00168032
-0.00701775
-0.0318253
-0.0779784
0.00141018
-0.0117212
-0.00505443
0.00348142
0.00330801
0.32636
-9.87518e-05
-0.000846234
-0.0011196
-0.000610564
-0.00457871
-0.000228842
0.000625944
0.000510472
0.312702
0.29199
-0.000233293
-4.10388e-05
-0.000694726
-0.00148106
-0.00177619
-0.00766785
-0.00274337
-0.00271973
-0.00137645
-0.000508924
0.297678
-0.000818672
-6.69133e-05
0.000276723
0.00250119
0.00133767
-0.000998142
-0.00711408
-0.00174751
0.00324441
0.00393705
0.00549712
-0.001505
0.00299058
0.00372945
-0.00671292
0.0309233
0.0666577
-0.0470177
0.32389
0.0108104
-0.00482588
-0.0155566
-0.00182696
0.00699897
0.00993787
0.011619
0.0152102
0.0192055
0.020316
0.00237818
0.00617234
0.00610218
-0.137898
-0.0699605
-0.144364
-0.0709791
0.00198137
0.014163
-8.07476e-05
-0.000818646
0.150916
0.179561
0.000767944
0.00121375
0.000607694
0.00112436
0.000664216
0.00127866
-0.00132343
-0.00836044
0.064057
0.150598
0.00664605
0.000393351
0.000429331
0.000319064
0.000324259
0.000362752
0.00023685
0.000247548
-1.83036e-05
0.00167026
0.00246817
0.00253168
0.00335346
-0.000631124
-0.00440224
-0.24495
0.00535752
-0.238502
0.242994
0.00886565
-0.267991
-0.277074
0.249714
0.233772
0.00713787
-0.252422
-0.295493
0.26735
-0.00448144
0.223438
0.330852
0.00252997
8.9332e-05
-0.00685321
0.0138214
0.015814
0.0184757
0.0726698
0.10113
0.176003
0.414395
0.0374951
0.215529
0.319266
-0.020458
-0.009918
0.00402753
0.00941431
-0.00643642
-0.00489866
0.212164
0.22756
0.222409
0.215889
0.00537446
-0.255668
-0.232721
-0.00456947
0.237773
0.00905957
-0.28738
-0.264138
-0.00624392
0.255709
0.272573
0.24243
-0.00577096
-0.00216692
-0.00270003
-0.000497309
0.000277565
0.00144413
0.000308502
0.000279795
-0.000605557
-0.00025352
-0.00291304
0.0283667
-0.00316102
-0.00196374
-0.00459573
-0.00381617
-0.00236971
-0.0040325
-0.00178549
0.0787511
-0.00210255
0.00160713
0.000288908
4.95313e-05
0.0040971
0.00357606
-0.0320874
0.173235
-0.0817155
-0.303485
-0.370956
0.0295276
-0.172864
0.0724254
0.0231393
-0.106847
-0.116614
-0.0122399
-0.0182667
0.120218
0.110732
-0.0107506
-0.108236
-0.00208207
0.108026
-0.000458155
0.00127385
-7.04629e-05
0.00117294
0.00342358
0.00356486
0.00235179
0.000629202
0.000491211
-0.00103171
-0.000908216
-5.76193e-05
-0.000849498
-0.00025713
-0.000167653
0.00324065
0.00414359
0.00410981
-0.00240317
0.0052158
0.00671474
-0.00819999
0.325666
-0.0203342
0.0175489
-0.361926
0.00594587
0.00418913
0.036202
0.00428426
0.00817742
0.0254612
-0.00193919
-0.000539354
-0.00219724
0.00699826
0.0695414
-0.0045534
-0.00279842
-0.00155408
0.00162221
-0.183132
0.211299
-0.0069961
0.00078184
-0.00917561
-0.0220387
-0.0247838
-0.00460602
-0.00223193
0.0843197
-0.0023916
-0.00273384
-0.00515339
-0.000914128
-0.00308869
0.0746197
-0.00491685
-0.00254542
0.00706067
0.00554901
-0.000594925
-0.00107322
-0.000714985
-0.00193669
0.00167024
0.0058232
0.00629783
0.00559015
-0.00826904
0.0208884
0.0211787
0.0236497
0.0273822
0.339485
0.0396255
0.000694868
0.00436047
0.00983758
0.0111743
0.0114433
0.0127467
-0.00264744
0.195027
0.163339
-0.00186585
0.00081136
0.000141431
-0.00280611
0.18011
0.215043
0.00322923
-0.227179
-0.20609
0.194789
-0.00271554
0.201077
-0.00384276
0.0120923
0.0162634
-0.00214667
-0.0021842
0.000503021
-0.00382421
0.010119
0.00712234
-0.0018036
-0.00980689
0.24903
0.265885
0.25554
-0.0102767
-0.0066508
-0.00494518
-0.00348305
-0.00537996
0.237936
0.200352
-0.00361803
0.00140631
0.00110505
-0.000656158
-0.00461854
0.222352
0.260008
-0.00704686
-0.00457755
-0.00470287
-0.00429825
-0.00418429
-0.0071392
-0.0252826
-0.15019
-0.0535935
-0.00842964
0.00253831
0.0051424
-0.00427635
0.00635508
0.00703699
0.00877903
-0.0102781
-0.0183715
0.00531763
-0.020668
-0.0150056
-0.00585561
0.0228086
0.215927
0.311459
-0.0202229
0.0141919
0.206372
0.313149
0.013515
0.196646
0.325802
0.155388
0.00199909
-0.00600105
0.282754
-0.0062019
0.0249628
0.115869
0.018529
0.0421882
0.0447305
0.043224
0.0575409
0.035999
-0.00163776
-0.0054111
0.0433328
-0.021154
-0.00997766
-0.00786306
0.0465235
0.0040906
0.0327824
0.0289228
0.205916
0.173782
0.192673
0.184013
0.18855
0.0401011
0.00641801
-0.000598048
-0.00634191
-0.0793588
-0.260258
-0.264189
-0.00339579
0.00437328
0.162072
0.000133084
0.261791
0.00276424
0.000958669
0.00032816
9.76699e-05
-0.0149665
-0.00401447
0.149529
0.224627
0.212225
-0.000108344
-0.0103921
-0.323631
0.00078199
0.00144971
-5.69635e-05
-0.0182511
0.208693
0.00576522
0.00345756
0.00160171
-0.00045827
0.039202
-0.000186779
0.204612
-0.232101
-0.0300219
-0.430385
1.974e-05
-0.00915083
0.0449975
0.000306871
-0.437982
0.180223
0.000172221
0.0969336
0.0135433
0.0821842
0.0900568
0.0221515
0.023923
-0.00086121
-0.000291452
-0.000728849
0.199134
0.00634914
-0.00768335
-0.0112823
-0.00427605
0.000880245
0.000108627
-2.26297e-05
5.43539e-05
8.65242e-05
-0.000110277
-0.000926215
-0.00132244
-0.0123344
-0.00672137
0.234677
0.0194554
-0.377876
0.414123
0.0257973
0.285355
0.00473862
-0.249948
0.261517
0.0298629
-0.213184
0.223193
0.0089165
-0.199481
0.196268
0.00656272
-0.179839
0.175231
0.00520552
-0.161934
0.157083
0.00271926
-0.147626
0.140597
-0.00110242
-0.138153
0.123815
-0.0132883
-0.135878
0.0875076
-0.0620989
-0.165772
-0.050058
-0.154235
0.00963721
0.100905
-0.101669
0.00580447
0.105524
-0.104395
0.00217723
0.106017
-0.108969
-0.00122226
0.105697
-0.108444
-0.00894054
0.102052
0.107043
0.165309
0.0414948
-0.119818
0.00155147
0.176773
-0.000313715
-0.180056
-0.000747825
0.172784
-0.00102291
-0.174373
1.61709e-05
0.173431
0.000211116
-0.170738
0.00061468
0.175811
-0.00507754