/*--------------------------------*- C++ -*----------------------------------*\
| =========                 |                                                 |
| \\      /  F ield         | OpenFOAM: The Open Source CFD Toolbox           |
|  \\    /   O peration     | Version:  2306                                  |
|   \\  /    A nd           | Website:  www.openfoam.com                      |
|    \\/     M anipulation  |                                                 |
\*---------------------------------------------------------------------------*/
FoamFile
{
    version     2.0;
    format      ascii;
    arch        "LSB;label=32;scalar=64";
    class       volScalarField;
    location    "0.2";
    object      gradTz;
}
// * * * * * * * * * * * * * * * * * * * * * * * * * * * * * * * * * * * * * //

dimensions      [0 -1 0 1 0 0 0];

internalField   nonuniform List<scalar> 
5322
(
-0.0447958
-0.0286304
-0.0112974
-0.0117976
-0.00278436
-0.000468296
-5.84609e-05
-5.65853e-06
-4.47289e-07
-3.12926e-08
-2.38887e-09
-4.58397e-10
-9.76417e-11
-2.53126e-10
-2.40082e-10
-8.25066e-10
-6.4583e-10
-7.15041e-10
-1.67762e-09
-7.4601e-09
-3.29077e-08
-1.40434e-07
-5.92725e-07
-2.22628e-06
-8.49949e-06
-2.768e-05
-9.39597e-05
-0.000264393
-0.000775643
-0.00184253
-0.00458562
-0.00917576
-0.0187473
-0.0300265
-0.046182
-0.0502212
-0.0659103
-0.0595937
-0.0609798
-0.0499648
-0.0560479
-0.0577946
-0.0487512
-0.0576231
-0.0571061
-0.0497821
-0.0586127
-0.0559016
-0.0496953
-0.0590436
-0.071654
-0.0411802
-0.0620338
-0.0457905
-0.0338589
-0.0425078
-0.0602258
-0.0412211
-0.0327133
-0.041736
-0.0603755
-0.0415874
-0.0325386
-0.0407729
-0.0605246
-0.0433511
-0.0326898
-0.039204
-0.0604489
-0.0473585
-0.0279218
-0.033702
-0.0319089
-0.031342
-0.0314064
-0.0312566
-0.0313282
-0.0313516
-0.0324526
-0.0319817
-0.0339639
-0.0327944
-0.0342378
-0.0364997
-0.0187899
-0.0297044
-0.0578725
-0.0460829
-0.0432822
-0.0331557
-0.0380792
-0.0112455
-0.0116448
-0.0113713
-0.0193769
-0.028224
-0.0215592
-0.0283485
-0.0582262
-0.0442459
-0.0454854
-0.0332396
-0.0287106
-0.0193571
-0.021346
-0.0212277
-0.0219228
-0.0119522
-0.00284972
-0.00049986
-6.73986e-05
-7.27425e-06
-6.51813e-07
-5.07114e-08
-4.26997e-09
-8.8895e-10
-8.79355e-10
-6.57468e-10
-2.00581e-09
-4.05072e-10
-2.31768e-10
-6.50173e-11
-8.85885e-11
-8.61094e-11
-5.65465e-11
1.49064e-10
-7.97225e-12
8.39289e-11
4.24408e-11
-1.73397e-10
-1.78377e-10
-2.15017e-10
-1.6202e-10
-1.92551e-10
-1.87583e-11
1.68846e-11
8.30614e-11
1.28504e-10
-1.21769e-10
2.89446e-12
-8.86511e-11
-1.87863e-10
-2.65018e-10
-5.3453e-10
-8.48952e-10
-1.85777e-09
-5.32745e-10
-6.09692e-10
-9.33692e-10
-1.12083e-09
-2.80192e-09
-6.91908e-10
-6.57019e-10
-1.04825e-09
-9.34424e-10
-2.68966e-09
-5.58916e-10
-5.90938e-10
-1.99452e-10
-3.46393e-10
-7.86459e-10
-6.34395e-10
-3.11269e-09
-1.14394e-08
-2.43662e-09
-1.52421e-09
-6.69587e-10
-3.62054e-10
-1.04398e-10
-6.23605e-11
-1.47679e-10
-2.30335e-10
-8.57757e-10
-4.36019e-10
-8.83671e-10
-4.35783e-09
-4.17256e-09
-1.48668e-08
-6.09145e-09
-1.59782e-08
-6.35402e-08
-6.21589e-08
-2.21909e-07
-9.17451e-08
-2.32638e-07
-8.83215e-07
-8.72001e-07
-2.97009e-06
-1.26385e-06
-3.05747e-06
-1.07142e-05
-1.06394e-05
-3.34569e-05
-1.48807e-05
-3.40353e-05
-0.000107052
-0.000106677
-0.000300734
-0.00014213
-0.000303629
-0.000835891
-0.000835039
-0.00204481
-0.00104508
-0.00205317
-0.00481026
-0.00481518
-0.00989972
-0.00556404
-0.00990843
-0.019292
-0.0192409
-0.0283697
-0.0580867
-0.0441806
-0.0441294
-0.0331928
-0.041446
-0.0414929
-0.0116482
-0.0114302
-0.0195108
-0.0284637
-0.0217419
-0.0295304
-0.0587882
-0.0447269
-0.0439208
-0.0334137
-0.0282776
-0.0193006
-0.0215121
-0.0210075
-0.0119351
-0.00286425
-0.00050355
-6.7786e-05
-7.28377e-06
-6.49231e-07
-5.03073e-08
-4.2484e-09
-6.92759e-10
-8.5351e-10
-1.03291e-09
-1.00789e-09
-8.50842e-10
-2.70081e-09
-6.58819e-10
-5.05608e-10
-3.05478e-10
-2.31367e-10
-8.33882e-10
-6.91993e-10
-2.73322e-09
-5.67083e-10
-7.0406e-10
3.49857e-11
2.24532e-10
-1.86513e-12
-2.67561e-10
-3.4307e-11
8.4886e-12
-2.49478e-11
-2.22631e-10
-9.70304e-10
-9.31362e-10
-8.51891e-10
-4.35307e-09
-1.56586e-08
-6.49148e-08
-2.30158e-07
-9.01417e-07
-3.04394e-06
-1.08765e-05
-3.39009e-05
-0.000107978
-0.0003021
-0.000839553
-0.00204363
-0.00482597
-0.00987455
-0.0194267
-0.0282068
-0.0582757
-0.028501
-0.0215527
-0.0192351
-0.00993389
-0.00556603
-0.00481057
-0.00206014
-0.00104772
-0.000839554
-0.000306009
-0.000143243
-0.000108305
-3.46124e-05
-1.5129e-05
-1.09563e-05
-3.14611e-06
-1.29847e-06
-9.14274e-07
-2.41834e-07
-9.51651e-08
-6.6513e-08
-1.66982e-08
-6.28951e-09
-4.46983e-09
-1.56744e-09
-4.54049e-09
-1.66101e-08
-6.29421e-09
-4.27777e-09
-9.43659e-10
-3.53494e-10
-2.13577e-10
-2.5249e-11
-2.72621e-10
-7.43881e-10
-3.67229e-09
-1.42774e-08
-5.60854e-08
-2.19412e-07
-8.25238e-07
-2.99011e-06
-1.0461e-05
-3.40397e-05
-0.000107812
-0.000307268
-0.000860192
-0.00208288
-0.00501419
-0.00992357
-0.019941
-0.0285013
-0.0585509
-0.031141
-0.021538
-0.0223933
-0.0112664
-0.00555847
-0.00552122
-0.00224996
-0.00103084
-0.000923068
-0.000315942
-0.00013644
-0.000112096
-3.31615e-05
-1.3725e-05
-1.04243e-05
-2.72084e-06
-1.10352e-06
-7.75931e-07
-1.83419e-07
-7.47958e-08
-4.91685e-08
-1.08991e-08
-4.58395e-09
-2.9721e-09
-5.7549e-10
-2.02509e-10
-1.93727e-10
1.38447e-11
-1.50807e-11
-3.31296e-10
-3.19529e-11
-1.44107e-11
-1.81528e-10
-3.27571e-10
-1.94865e-09
-9.04496e-09
-1.01851e-08
-1.3477e-08
-4.57163e-09
-2.98047e-09
-3.40871e-09
-6.85939e-10
-2.88643e-10
-5.23692e-10
-7.52133e-10
-1.64299e-09
-4.13653e-10
1.26226e-10
-7.17116e-11
-6.54793e-10
-2.54507e-09
-1.29637e-09
-8.1274e-10
-9.29772e-10
-4.28315e-09
-1.59059e-08
-2.19481e-08
-6.27762e-08
-2.31e-07
-8.71287e-07
-3.04602e-06
-4.10094e-06
-1.06105e-05
-3.40361e-05
-0.000106651
-0.000304345
-0.000390038
-0.000836538
-0.00205697
-0.00481693
-0.00990632
-0.0113573
-0.0115815
-0.00274422
-0.00276146
-0.000473572
-0.000390272
-0.000841445
-0.00208203
-0.00105412
-0.00210626
-0.00496919
-0.00492562
-0.00993287
-0.00566314
-0.010358
-0.0196683
-0.0235369
-0.0296593
-0.0639895
-0.047468
-0.0437394
-0.035774
-0.0427351
-0.0116467
-0.0110771
-0.0122495
-0.00513187
-0.00572582
-0.00223798
-0.000859446
-0.000881203
-0.000290712
-0.000105186
-9.91191e-05
-2.84352e-05
-9.76928e-06
-8.35499e-06
-2.11037e-06
-7.05345e-07
-5.38759e-07
-1.23867e-07
-4.20302e-08
-2.79485e-08
-6.21717e-09
-2.2093e-09
-1.26001e-09
-3.96716e-10
-2.14239e-10
-1.15379e-09
-2.36412e-09
-4.0566e-09
-2.515e-08
-3.51884e-08
-1.55825e-07
-6.05224e-07
-2.42067e-06
-2.45532e-06
-2.8167e-06
-1.08357e-06
-7.25831e-07
-7.65113e-07
-2.04184e-07
-7.34726e-08
-1.65424e-07
-2.19823e-07
-4.20737e-07
-2.83654e-08
-1.1375e-08
-2.56345e-08
-9.23826e-09
-6.53932e-09
-9.49347e-09
-1.77296e-08
-1.1865e-09
-1.35654e-10
-4.17273e-11
-5.51465e-11
1.07875e-11
-2.12178e-10
-5.1234e-10
-3.54554e-09
-6.70324e-08
-1.89665e-07
-2.9682e-07
-4.51594e-06
-3.28234e-06
-1.18249e-06
-4.92174e-07
-8.14255e-07
-1.69813e-06
-7.66955e-06
-8.84266e-06
-3.08779e-05
-0.000101705
-0.000304584
-0.000294954
-0.000303522
-0.000138332
-0.00010383
-0.000103686
-3.28513e-05
-1.36813e-05
-3.04432e-05
-4.09351e-05
-5.62692e-05
-5.38164e-06
-3.03203e-06
-5.78104e-06
-3.17641e-06
-2.53567e-06
-4.15303e-07
-1.85673e-07
-1.39657e-07
-9.10743e-08
-4.60851e-08
-1.99895e-07
-1.05373e-07
-2.98227e-08
-2.26121e-09
-4.56037e-10
-5.53332e-10
-2.4019e-10
-1.6889e-09
-5.88133e-10
-6.71093e-09
-8.36527e-09
-1.5205e-08
-2.06304e-08
-6.39176e-08
-6.58535e-08
-2.41479e-07
-9.42623e-08
-2.26392e-07
-3.07148e-07
-8.95628e-07
-9.09825e-07
-3.14537e-06
-1.29358e-06
-3.02779e-06
-4.09606e-06
-1.08908e-05
-1.09508e-05
-3.4642e-05
-1.51564e-05
-3.40715e-05
-4.54133e-05
-0.000108711
-0.000108692
-0.000306294
-0.000144073
-0.000306018
-0.000396284
-0.000846547
-0.000845518
-0.00205742
-0.00105488
-0.00207817
-0.0025697
-0.0048433
-0.00485354
-0.00987335
-0.00558699
-0.0100153
-0.0114767
-0.0192598
-0.0193877
-0.0283717
-0.021518
-0.0285069
-0.0337183
-0.0447253
-0.0434342
-0.0344934
-0.0413518
-0.0209685
-0.0240138
-0.0133842
-0.0124505
-0.0116807
-0.0105192
-0.0121464
-0.0148101
-0.0148256
-0.00819288
-0.00325075
-0.00348371
-0.000522764
-0.000448469
-0.000184351
-4.42331e-05
-5.56626e-05
-5.85707e-05
-5.19422e-06
-3.8626e-07
-2.67003e-08
-2.00552e-09
-2.88886e-10
-4.09531e-11
-1.43615e-10
-1.98544e-10
-4.12795e-10
-6.60773e-10
-2.18037e-10
-1.83058e-10
-3.2856e-10
-2.84747e-10
-4.44972e-10
-2.7275e-10
-3.57141e-11
-2.90948e-10
-2.018e-10
-4.61553e-10
-1.51842e-10
-2.63945e-10
-9.95313e-10
-1.14498e-09
-1.26838e-09
-1.14882e-09
-1.02307e-09
-1.0737e-09
-9.47218e-10
-3.91929e-09
-1.2215e-09
-1.05259e-09
-1.14816e-09
-4.01813e-09
-1.29186e-09
-1.1515e-09
-5.62123e-09
-4.91765e-09
-2.98653e-09
-2.57755e-09
-1.42755e-09
-3.9048e-08
-5.34976e-07
-6.31661e-06
-6.15881e-05
-0.000474707
-0.000456925
-0.000342094
-0.000558199
-0.000396541
-0.000347799
-0.000259022
-0.000813096
-0.000885537
-0.00219183
-0.00557445
-0.00638901
-0.00518638
-0.00253755
-0.00205648
-0.00107565
-0.00149151
-0.00141293
-0.000513497
-0.00326046
-0.0140342
-0.0388666
-0.0401737
-0.0426747
-0.0261573
-0.0206059
-0.0249281
-0.0347342
-0.0364599
-0.0470558
-0.0800017
-0.0715308
-0.0585438
-0.0614433
-0.0346726
-0.0471437
-0.0488596
-0.0611766
-0.0347601
-0.0476156
-0.0485892
-0.0613888
-0.0349877
-0.0471372
-0.0492784
-0.0617161
-0.0365878
-0.0475741
-0.0539476
-0.0783412
-0.0734222
-0.0720169
-0.0933956
-0.0940033
-0.0704038
-0.0473308
-0.0620425
-0.0458362
-0.0338524
-0.0424445
-0.0560285
-0.0497381
-0.0589743
-0.0717001
-0.0411778
-0.0339835
-0.03281
-0.0342599
-0.0365064
-0.0211838
-0.0116838
-0.010565
-0.00505484
-0.00250502
-0.00200956
-0.00081527
-0.000367729
-0.000274406
-9.56597e-05
-3.96548e-05
-2.79622e-05
-8.44473e-06
-3.23011e-06
-2.19357e-06
-5.80125e-07
-2.07094e-07
-1.37224e-07
-3.22557e-08
-1.07098e-08
-7.33385e-09
-1.58546e-09
-3.51871e-10
-3.64391e-10
-1.18544e-11
3.89438e-11
-9.55941e-11
-5.95479e-10
-3.12542e-09
-1.18105e-08
-4.83469e-09
-3.78757e-09
-7.61023e-10
-2.02267e-10
-2.35342e-10
-4.03027e-11
-2.07891e-10
-2.34693e-10
-4.49159e-10
-6.58371e-10
-4.56785e-10
-2.65176e-09
-3.39498e-08
-4.67201e-07
-4.349e-07
-5.72335e-06
-6.25785e-05
-6.46345e-05
-4.01669e-05
-3.38842e-05
-2.43385e-05
-9.1776e-05
-0.000129717
-1.17373e-05
-1.68478e-05
-1.73309e-05
-9.64883e-06
-9.84242e-06
-3.85321e-06
-2.90056e-06
-1.05399e-05
-1.47948e-05
-3.31601e-05
-0.000106794
-0.000142389
-0.000302074
-0.000839545
-0.00104985
-0.00206348
-0.00482279
-0.00557196
-0.00993458
-0.0071874
-0.00758122
-0.0253189
-0.0248547
-0.0139829
-0.00321138
-0.000512127
-6.02323e-05
-5.56759e-06
-4.33159e-07
-3.10117e-08
-2.44437e-09
-4.59329e-10
-8.61747e-11
-2.30687e-10
-6.15541e-10
-3.17561e-10
-2.20643e-09
-2.8698e-08
-4.18359e-07
-5.50332e-06
-6.00323e-05
-0.000511903
-0.0032208
-0.0140154
-0.0396051
-0.0390029
-0.0457943
-0.102301
-0.070991
-0.0679557
-0.0485831
-0.0613283
-0.0349909
-0.0350758
-0.0370808
-0.0613067
-0.0349836
-0.0355164
-0.0362246
-0.0615637
-0.0351536
-0.0356928
-0.0362079
-0.06196
-0.0370336
-0.0377304
-0.0433712
-0.0810213
-0.0739159
-0.0719615
-0.0723508
-0.0716031
-0.0493128
-0.0418495
-0.043802
-0.0808447
-0.0430061
-0.0496912
-0.0603354
-0.0416207
-0.0325137
-0.0406153
-0.0580312
-0.0487187
-0.0572881
-0.057399
-0.0499212
-0.0584236
-0.0413446
-0.0327194
-0.0415916
-0.0313928
-0.0311826
-0.0314369
-0.0311622
-0.0326726
-0.0394344
-0.0427575
-0.0604884
-0.0562176
-0.0503806
-0.060203
-0.0534178
-0.0505165
-0.0746666
-0.0376327
-0.0411454
-0.0289969
-0.0276792
-0.0168385
-0.00973254
-0.00851626
-0.0041795
-0.00213653
-0.00168927
-0.000714949
-0.000310849
-0.000237534
-8.65936e-05
-3.39916e-05
-2.39925e-05
-7.87013e-06
-2.62753e-06
-1.83234e-06
-5.42544e-07
-1.64749e-07
-1.07235e-07
-3.00037e-08
-7.80837e-09
-5.12789e-09
-1.501e-09
-4.43242e-10
-2.41894e-10
-9.89607e-11
-9.10097e-11
-2.47701e-10
-1.18686e-11
-2.68054e-11
1.19333e-11
-8.09758e-11
-1.59966e-10
-1.57532e-10
-1.8517e-10
5.44067e-11
-2.12629e-10
-2.48238e-10
-1.2788e-10
-2.27299e-10
-2.26431e-10
-1.43085e-10
-1.08272e-10
-2.69619e-10
-4.56152e-10
-9.91721e-10
-1.6213e-09
-4.64505e-09
-6.44913e-09
-1.7066e-08
-1.58874e-08
-2.17156e-08
-5.93311e-08
-7.9301e-08
-2.28342e-07
-1.97224e-07
-2.16972e-07
-8.15384e-07
-7.5154e-07
-2.80922e-06
-3.11544e-06
-1.04732e-05
-9.77809e-06
-3.2693e-05
-3.57561e-05
-0.000107696
-0.000100115
-0.000297229
-0.000313817
-0.000847082
-0.000765564
-0.00202802
-0.00202539
-0.00489994
-0.00424924
-0.00997201
-0.00922416
-0.0196946
-0.0162402
-0.0191457
-0.0185286
-0.0181323
-0.010782
-0.00965891
-0.00516264
-0.00464543
-0.00455249
-0.002356
-0.0019723
-0.000937587
-0.000790136
-0.000792733
-0.000361377
-0.000286142
-0.000122388
-9.74554e-05
-0.000101073
-4.0585e-05
-3.07763e-05
-1.17798e-05
-9.02458e-06
-9.86632e-06
-3.49323e-06
-2.55281e-06
-8.81369e-07
-6.59245e-07
-7.74265e-07
-2.43034e-07
-1.72265e-07
-5.27313e-08
-3.9983e-08
-5.18046e-08
-1.48158e-08
-1.0204e-08
-2.78516e-09
-2.35817e-09
-3.30823e-09
-9.9344e-10
-4.75181e-10
-7.49736e-11
-1.00567e-10
-2.11994e-10
4.99683e-11
-2.59424e-11
-4.51893e-10
-6.3077e-10
-1.92454e-09
-2.88968e-10
-6.07517e-10
-7.75779e-10
-3.00268e-10
-4.81019e-10
-1.02268e-09
-9.2378e-10
-1.53567e-09
-3.93396e-09
-4.94844e-09
-1.21171e-08
-1.27367e-08
-5.33771e-08
-4.69277e-08
-1.12563e-07
-7.34417e-09
-8.70014e-09
-4.48219e-09
-2.70672e-09
-7.71834e-10
-5.92529e-10
-2.87433e-09
-7.07552e-10
-3.39557e-10
-5.30164e-10
-5.50056e-10
-4.39224e-10
-3.44243e-10
-2.19932e-10
-7.75016e-10
-2.9828e-09
-1.54976e-09
-4.23512e-08
-3.82902e-08
-1.9273e-08
-5.22244e-08
-4.75233e-08
-1.31739e-08
-8.80317e-08
-5.76561e-09
-7.84947e-09
-4.18484e-09
-6.00919e-09
-1.45616e-08
-6.07497e-08
-9.02497e-08
-2.15091e-07
-8.55108e-07
-1.24681e-06
-2.13263e-06
-5.2422e-07
-2.85087e-07
-6.22119e-06
-6.10912e-05
-4.37607e-05
-6.21595e-05
-6.48823e-06
-5.62541e-07
-3.14951e-07
-5.32209e-07
-3.90296e-08
-2.0292e-08
-1.41651e-08
-5.62269e-08
-5.07993e-08
-1.88848e-07
-7.85305e-07
-2.7334e-06
-7.28501e-07
-5.74909e-07
-2.07772e-07
-1.3569e-07
-4.51169e-08
-3.18122e-08
-1.21423e-08
-7.12214e-09
-1.04959e-08
-7.77821e-09
-2.93001e-08
-5.13819e-08
-1.04896e-07
-1.6861e-07
-2.3976e-07
-7.66796e-07
-1.13037e-06
-2.55774e-06
-2.93517e-06
-4.02089e-06
-1.07625e-05
-1.49659e-05
-3.32635e-05
-3.42181e-05
-4.50426e-05
-0.00010572
-0.000139768
-0.000294758
-0.000293226
-0.000375107
-0.000800057
-0.00096189
-0.00194384
-0.00455659
-0.00516348
-0.00937458
-0.0179274
-0.0190561
-0.0220174
-0.0119878
-0.00284247
-0.000498115
-6.7325e-05
-7.29864e-06
-6.57089e-07
-5.13004e-08
-4.33209e-09
-8.02316e-10
-9.77688e-10
-1.07629e-09
-1.00396e-09
-6.56722e-10
-8.66715e-10
-3.0371e-09
-2.5992e-09
-7.79929e-10
-5.78221e-10
-3.54129e-10
-5.34412e-10
-3.4047e-10
9.45753e-12
-1.46928e-10
-6.77769e-10
-2.57621e-09
-1.40088e-09
-3.60433e-09
-4.65686e-09
-9.85982e-09
-1.23786e-08
-4.89061e-09
-9.80058e-10
-1.13484e-09
-1.00225e-09
-3.96999e-09
-9.03184e-10
-8.25171e-10
-2.69445e-09
-1.2581e-08
-3.96263e-08
-2.94632e-08
-1.73977e-09
-4.03741e-10
-2.20428e-09
-8.59468e-10
-3.17725e-09
-4.84948e-09
-1.10621e-08
-1.43885e-08
-2.09086e-08
-6.50358e-08
-9.57268e-08
-2.45537e-07
-3.36244e-07
-9.25958e-07
-1.31364e-06
-3.17336e-06
-3.07843e-06
-4.15115e-06
-1.04701e-05
-1.36759e-05
-3.35319e-05
-0.000104007
-0.000131142
-0.000293044
-0.000462464
-6.07547e-05
-6.34001e-06
-5.45893e-07
-4.03461e-08
-1.26942e-08
-4.93712e-09
-1.01363e-09
-1.61223e-08
-5.54235e-08
-1.23278e-08
-9.66155e-09
-1.24451e-08
-1.60501e-08
-5.577e-08
-4.32762e-08
-2.32089e-08
-5.73532e-07
-3.30671e-07
-6.57517e-06
-4.24847e-06
-5.88384e-06
-6.24155e-05
-0.000523388
-0.0005361
-0.00336907
-0.00351175
-0.00280172
-0.0143889
-0.0359933
-0.0360042
-0.0569832
-0.0483122
-0.104634
-0.0697315
-0.0692465
-0.0551413
-0.0789059
-0.0769253
-0.0774262
-0.0765161
-0.104192
-0.0691082
-0.0678984
-0.0488891
-0.0610864
-0.0348019
-0.0358514
-0.0378355
-0.0610459
-0.0348117
-0.0364027
-0.0370586
-0.061317
-0.0350064
-0.0364864
-0.0371189
-0.0617033
-0.0369613
-0.0382703
-0.0455795
-0.0219251
-0.0116446
-0.0113661
-0.00991305
-0.0105433
-0.00540026
-0.00522515
-0.00463274
-0.0055928
-0.00494497
-0.00242475
-0.00459991
-0.00962535
-0.0111635
-0.018109
-0.0203475
-0.00987888
-0.00967262
-0.0107482
-0.0184695
-0.0212793
-0.0319804
-0.0324908
-0.031331
-0.0179512
-0.010696
-0.0176098
-0.0193168
-0.0176394
-0.0105847
-0.0175602
-0.0193415
-0.0177003
-0.0106574
-0.0177136
-0.0318524
-0.0313699
-0.0330753
-0.0367556
-0.044985
-0.0615635
-0.0496182
-0.0734011
-0.0738549
-0.0708955
-0.0497241
-0.0430828
-0.0434194
-0.080605
-0.0442357
-0.0501317
-0.0799075
-0.0756047
-0.0720387
-0.0498083
-0.0438073
-0.0465882
-0.0384846
-0.0377943
-0.0449156
-0.0211896
-0.0119094
-0.011953
-0.00284999
-0.000500046
-6.74664e-05
-7.28892e-06
-6.53858e-07
-5.09052e-08
-4.29851e-09
-8.9487e-10
-9.74396e-10
-1.09252e-09
-7.83421e-10
-2.92691e-10
-2.17834e-10
-3.31939e-12
-9.8564e-11
-1.62468e-10
-4.85677e-10
-2.71978e-10
-5.08075e-10
-1.79504e-10
1.17592e-10
1.07022e-10
4.81178e-11
-3.6108e-10
-1.60468e-10
5.77231e-11
-1.88362e-10
-3.69176e-10
-1.12549e-10
-7.66424e-10
-5.97497e-10
-6.74828e-10
-2.78751e-09
-1.09516e-09
-1.07791e-09
-6.2372e-10
-6.30997e-10
-3.66585e-10
-2.14869e-10
-1.96591e-10
-2.19794e-10
-8.4141e-10
-2.9813e-09
-2.6361e-09
-1.74694e-09
-6.40801e-10
-1.85569e-09
-3.0227e-10
-5.65669e-10
-3.99084e-10
-2.3036e-09
-3.12216e-08
-4.4575e-07
-5.7407e-06
-6.1543e-05
-0.000518422
-0.00323848
-0.00325582
-0.0141032
-0.0143836
-0.0393732
-0.0465011
-0.0439169
-0.0441081
-0.0582982
-0.0498222
-0.0687404
-0.0709405
-0.102035
-0.0456034
-0.0441508
-0.0441546
-0.0468102
-0.0454892
-0.0460215
-0.0578741
-0.0287823
-0.0297063
-0.033167
-0.0432776
-0.0608168
-0.033525
-0.0132021
-0.014048
-0.039628
-0.0392343
-0.0248769
-0.0257999
-0.00785418
-0.00146729
-0.000193194
-1.93897e-05
-1.55642e-06
-1.6286e-06
-1.19297e-07
-1.21234e-07
-8.58622e-09
-7.25096e-09
-2.81238e-08
-4.34623e-07
-5.77535e-06
-6.20411e-05
-0.000516164
-0.00316409
-0.00724052
-0.00712533
-0.00724362
-0.00137585
-0.000186171
-1.93003e-05
-1.92422e-05
-1.63913e-06
-1.58479e-06
-1.11074e-07
-5.82859e-08
-5.23646e-08
-1.93185e-07
-8.0163e-07
-2.77265e-06
-1.12263e-06
-8.41282e-07
-2.24121e-07
-7.77425e-08
-1.49702e-07
-3.97341e-08
-2.13038e-08
-1.48029e-08
-2.63006e-09
-6.15623e-10
-1.23408e-10
-1.42425e-09
-1.25436e-08
-9.939e-09
-2.00743e-09
-7.94504e-10
-8.94973e-10
-5.97518e-10
-4.4518e-10
-4.14272e-10
-7.11525e-10
-9.42729e-10
-3.96631e-09
-7.14587e-10
-5.19585e-10
-3.08098e-10
-3.44529e-10
-7.66469e-10
-4.40912e-10
-9.80692e-11
-2.80889e-10
-5.72128e-11
-3.07913e-10
-2.00774e-10
-5.46698e-10
-3.93276e-10
-9.11427e-10
-5.24281e-10
-3.15989e-10
-2.04041e-09
-5.13535e-10
-1.94211e-10
-1.01044e-08
-1.26097e-08
-4.95866e-09
-1.04695e-09
-1.61555e-08
-1.25443e-08
-3.947e-08
-2.97585e-08
-1.25507e-08
-4.33906e-07
-2.12526e-07
-5.39907e-07
-3.13213e-07
-6.31783e-06
-4.11456e-06
-3.00607e-06
-1.04565e-05
-1.04347e-05
-3.27852e-05
-0.000109378
-0.000304419
-0.000133575
-0.000105979
-3.37536e-05
-1.36681e-05
-2.09212e-05
-5.42074e-06
-3.08295e-06
-5.53439e-05
-3.60671e-05
-6.11508e-05
-4.50364e-05
-6.26019e-05
-4.58645e-05
-0.000475118
-0.000393672
-0.00274594
-0.00276179
-0.002741
-0.00235405
-0.00265826
-0.00127736
-0.000186387
-2.09788e-05
-1.9068e-06
-1.46205e-07
-1.75314e-07
-2.07896e-07
-6.98445e-07
-2.15664e-06
-2.42674e-06
-7.62892e-06
-2.2445e-05
-2.40577e-05
-7.59822e-06
-6.94266e-07
-1.72883e-07
-1.73995e-07
-2.08319e-07
-6.17107e-08
-7.49401e-07
-7.99064e-06
-7.11155e-05
-6.9363e-05
-0.000190217
-0.000195221
-0.000506825
-0.00126083
-0.00125183
-0.00285878
-0.00623741
-0.00643481
-0.0116448
-0.0414318
-0.0356967
-0.0446411
-0.0219947
-0.0210086
-0.038922
-0.0362331
-0.0435188
-0.0634075
-0.0771715
-0.0763676
-0.103341
-0.0685811
-0.0498671
-0.0468729
-0.0729214
-0.0739777
-0.045484
-0.0504314
-0.0645947
-0.0739549
-0.0702538
-0.068663
-0.102751
-0.0766959
-0.0774295
-0.0770596
-0.0772444
-0.0774614
-0.0764307
-0.0731446
-0.0671013
-0.0493028
-0.0617066
-0.0365795
-0.0350455
-0.0371488
-0.0617212
-0.0369166
-0.0355585
-0.0362345
-0.0620077
-0.0369696
-0.03576
-0.0361813
-0.0623418
-0.0380655
-0.0436031
-0.0810336
-0.0762491
-0.071248
-0.0499995
-0.0430707
-0.0449622
-0.0211997
-0.0119092
-0.00284793
-0.000503986
-6.90635e-05
-7.61975e-06
-7.00193e-07
-5.61131e-08
-1.76613e-07
-1.48668e-07
-7.57688e-08
-2.16808e-07
-8.19184e-07
-1.10215e-06
-2.93781e-06
-1.02835e-05
-1.03015e-05
-3.25362e-05
-0.000108618
-0.000303502
-0.000101483
-9.54518e-05
-3.5796e-05
-2.78918e-05
-9.69575e-06
-8.40636e-06
-3.0412e-06
-2.18168e-06
-3.22538e-06
-2.64115e-06
-7.79317e-06
-1.17341e-05
-2.41014e-05
-3.07493e-05
-4.06918e-05
-0.000101539
-0.000134403
-0.000281911
-0.000292659
-0.000373709
-0.000798192
-0.0010025
-0.00194265
-0.00235839
-0.00449661
-0.00530492
-0.00931165
-0.00937058
-0.0106809
-0.017772
-0.0193685
-0.0176474
-0.0176229
-0.0106026
-0.00932015
-0.00934821
-0.0176257
-0.0193065
-0.0210929
-0.0114312
-0.00269374
-0.00046353
-6.06057e-05
-6.28034e-06
-5.3755e-07
-4.30713e-07
-5.39631e-06
-6.25895e-06
-4.0057e-06
-6.08527e-05
-4.43668e-05
-3.33093e-05
-0.000105073
-0.00013298
-0.000300251
-0.000832321
-0.000879862
-0.00212252
-0.00522153
-0.0105522
-0.00463235
-0.00505824
-0.00216864
-0.00200936
-0.00080295
-0.000814833
-0.000324149
-0.000274149
-0.000367733
-0.000323378
-0.000743262
-0.000978813
-0.00180925
-0.00202486
-0.00242508
-0.00460015
-0.0053503
-0.00961448
-0.00938117
-0.0106915
-0.0179288
-0.0195264
-0.0181077
-0.0203313
-0.0111615
-0.00987621
-0.00966272
-0.0184562
-0.0212629
-0.0224415
-0.0125501
-0.0107392
-0.0116802
-0.0105672
-0.0212031
-0.0100821
-0.0131805
-0.00315165
-0.000511969
-6.1139e-05
-5.63931e-06
-4.19113e-07
-2.67553e-08
-1.80056e-09
-2.39906e-10
3.08468e-11
-1.00804e-10
-9.58931e-11
-1.52973e-10
-1.92719e-10
-4.45504e-10
-1.63874e-11
4.55237e-11
-1.33297e-10
-2.0465e-10
-6.24063e-10
-8.11893e-10
-1.40917e-09
-4.32726e-09
-6.38439e-09
-1.69892e-08
-2.36459e-08
-6.76192e-08
-9.68971e-08
-2.46774e-07
-2.34605e-07
-3.19095e-07
-8.5312e-07
-1.1394e-06
-3.03858e-06
-1.59233e-06
-1.64912e-06
-9.13773e-07
-1.23519e-07
-6.60197e-08
-3.42794e-08
-3.00596e-08
-2.25676e-09
-3.79347e-10
-5.04424e-10
-2.0819e-10
-1.6794e-10
-2.84833e-10
-5.96811e-10
-3.58372e-10
-1.43037e-09
-2.64249e-09
-9.96325e-09
-1.46211e-08
-5.11897e-08
-7.82563e-08
-1.78234e-07
-2.18373e-07
-3.06641e-07
-8.99836e-07
-1.29856e-06
-3.16481e-06
-4.26526e-06
-1.09384e-05
-1.50719e-05
-3.42163e-05
-3.36877e-05
-4.45393e-05
-0.00010549
-0.00016993
-1.87307e-05
-1.0869e-05
-5.74709e-06
-5.4015e-06
-4.24585e-07
-9.92559e-08
-5.61758e-08
-6.54487e-09
-3.63201e-09
-1.40754e-09
-4.27701e-09
-4.94163e-09
-1.16016e-08
-2.07685e-08
-7.77348e-08
-3.89312e-08
-2.17979e-07
-1.60259e-07
-5.32155e-07
-8.62169e-07
-2.51982e-06
-3.46572e-06
-9.83225e-06
-1.37833e-05
-3.03639e-05
-3.2963e-05
-4.37775e-05
-0.000105103
-0.000139441
-0.000295298
-0.000375767
-0.000798451
-0.00100251
-0.00193894
-0.00194275
-0.00236812
-0.00450273
-0.00268667
-0.00124294
-0.000188022
-0.000194469
-6.90136e-05
-7.60825e-06
-6.98581e-07
-5.59973e-08
-2.08668e-07
-1.76204e-07
-2.15985e-06
-1.92813e-06
-5.35941e-07
-6.2681e-06
-6.05521e-05
-0.000183774
-0.000189568
-2.24062e-05
-2.40331e-05
-2.42978e-06
-2.15275e-06
-1.75964e-07
-9.42452e-08
-6.56043e-08
-2.29715e-08
-6.58342e-08
-2.41307e-07
-3.27612e-07
-9.04242e-07
-9.00866e-07
-2.40856e-07
-2.26078e-07
-3.01577e-07
-8.85921e-07
-8.00827e-07
-2.15837e-07
-5.55699e-08
-2.04582e-08
-6.37597e-08
-1.53373e-08
-1.65898e-08
-1.66216e-08
-1.54786e-08
-2.07806e-08
-5.64139e-08
-6.42194e-08
-9.46928e-08
-2.28298e-07
-3.05118e-07
-8.11832e-07
-8.91029e-07
-1.2892e-06
-3.01068e-06
-4.00888e-06
-1.00718e-05
-1.06826e-05
-1.07547e-05
-1.07256e-05
-4.18817e-06
-3.12539e-06
-3.12216e-06
-1.28328e-06
-2.98828e-06
-3.97624e-06
-1.06524e-05
-9.99239e-06
-2.91141e-06
-1.12573e-06
-7.62079e-07
-6.46377e-07
-2.38012e-07
-1.77551e-07
-7.79871e-08
-5.09279e-08
-3.91131e-08
-1.453e-08
-1.10092e-08
-1.42513e-08
-3.60133e-09
-1.3969e-09
-4.28986e-09
-6.23677e-09
-4.47397e-09
-1.54872e-09
-4.5233e-09
-6.38185e-09
-4.29076e-09
-1.40136e-09
-3.65735e-09
-1.44167e-08
-1.13258e-08
-4.93106e-09
-6.44606e-09
-2.20599e-09
-4.4385e-10
1.81168e-11
-2.43112e-10
-2.87757e-10
-3.25798e-10
-2.4181e-10
-1.29697e-10
-4.74913e-10
-7.21985e-10
-2.59011e-10
-9.96462e-11
-4.93999e-12
-1.49945e-10
-7.51573e-11
-2.17466e-10
-3.36407e-10
-4.15315e-10
-8.74002e-10
-9.2823e-10
-9.22965e-10
-8.9329e-10
-7.92091e-10
-6.44516e-10
-3.19426e-10
-2.61643e-10
-7.7533e-11
-2.59947e-10
-1.72098e-10
-8.29234e-10
-2.66618e-09
-3.98736e-08
-4.33602e-08
-5.72357e-07
-6.52946e-06
-2.22829e-05
-1.48648e-05
-3.39619e-05
-4.45829e-05
-0.000104649
-0.000104549
-0.000104524
-0.00010139
-4.35168e-05
-3.31223e-05
-3.28167e-05
-1.37544e-05
-9.79032e-06
-8.96677e-06
-3.44621e-06
-2.55029e-06
-2.51696e-06
-8.63601e-07
-5.32802e-07
-1.79755e-06
-2.62754e-06
-7.7958e-06
-2.40636e-05
-3.3701e-05
-8.81038e-05
-0.000243321
-0.000323057
-0.000744221
-0.00181097
-0.00225176
-0.00452898
-0.0066557
-0.00274714
-0.00126872
-0.00040604
-0.000169838
-4.32427e-05
-1.6748e-05
-3.44914e-06
-1.26261e-06
-2.15593e-07
-1.59521e-07
-1.04635e-07
-1.68714e-07
-5.16561e-08
-2.93801e-08
-5.01429e-09
-7.67448e-09
-1.14752e-08
-7.67542e-08
-4.21815e-09
-1.49549e-09
-2.75273e-09
-2.28782e-09
-8.56656e-10
-3.17609e-09
-4.85854e-09
-6.40183e-09
-1.38803e-09
-1.60754e-10
6.07162e-11
-1.99555e-10
-1.4081e-10
-1.14047e-11
-1.73916e-10
-3.01045e-10
-6.9767e-10
-3.10427e-10
-1.17455e-11
-4.38452e-10
-6.15654e-10
-7.50576e-10
-2.60797e-10
-5.16747e-10
-3.87056e-10
-2.16849e-09
-2.88216e-08
-2.0189e-08
-3.26759e-07
-4.66512e-06
-5.33669e-05
-4.05548e-05
-0.000101302
-9.84165e-05
-3.07248e-05
-3.03247e-05
-1.72433e-05
-1.40336e-06
-9.68926e-08
-1.18955e-07
-4.10123e-07
-5.27471e-06
-5.58826e-05
-0.000166899
-0.000134352
-0.000292172
-0.000372875
-0.000796235
-0.000793969
-0.000801044
-0.000817669
-0.00036649
-0.000281943
-0.000290321
-0.000124127
-0.000101828
-0.000185009
-0.00018395
-0.00135058
-0.00136662
-0.000834839
-0.000882469
-0.00212307
-0.00217058
-0.00262986
-0.000441385
-0.00032524
-0.000469792
-0.000389545
-0.000302002
-0.00273924
-0.00252035
-0.00204786
-0.000998801
-0.00125307
-0.000463472
-0.00269448
-0.00633536
-0.00623594
-0.00125712
-0.00124968
-0.000194791
-0.000187992
-0.000503907
-0.000511205
-0.000506501
-6.92222e-05
-2.22919e-05
-2.22849e-05
-2.14001e-06
-2.42693e-06
-2.15876e-06
-1.91943e-06
-2.08653e-05
-1.35253e-05
-1.87787e-05
-1.53274e-06
-1.56508e-06
-1.53932e-06
-1.32621e-06
-1.11411e-07
-1.13518e-07
-7.92538e-09
-6.78525e-09
-5.27933e-10
-1.05566e-07
-1.86181e-05
-1.87282e-05
-0.00018168
-0.000182738
-0.000181017
-0.00136137
-0.00134569
-0.00136487
-0.000183551
-0.00204464
-0.00483701
-0.00540472
-0.00990914
-0.00725296
-0.00712871
-0.0247817
-0.0247459
-0.033535
-0.0609241
-0.094047
-0.0933645
-0.047327
-0.0539538
-0.0783341
-0.0734311
-0.0493197
-0.0715625
-0.0725591
-0.0497791
-0.0434022
-0.0811817
-0.0745147
-0.0718395
-0.0989164
-0.0827816
-0.0828266
-0.0772289
-0.0635985
-0.0364199
-0.0437545
-0.0211038
-0.0118807
-0.00285867
-0.00126054
-0.000189708
-0.000189142
-0.000473845
-0.000468999
-0.000387116
-0.00273893
-0.00251728
-0.00262876
-0.000440884
-5.52066e-05
-9.83769e-05
-0.000290365
-0.000366973
-0.000801716
-0.000997015
-0.00195172
-0.00195448
-0.00237551
-0.00449419
-0.00530033
-0.0044856
-0.00268393
-0.000465785
-0.000188072
-0.000183542
-0.00125255
-0.00099809
-0.00125664
-0.00124958
-0.000194738
-2.4017e-05
-2.2316e-05
-6.56959e-06
-5.7777e-07
-4.38361e-08
-6.70428e-08
-1.22794e-07
-2.2938e-07
-8.71338e-09
-1.56076e-08
-4.53469e-09
-7.51709e-10
-9.22661e-10
-3.54107e-10
-1.52826e-10
-6.44567e-10
-2.71501e-09
-1.63347e-06
-1.42701e-06
-8.07919e-07
-3.34205e-07
-1.27573e-06
-1.80323e-06
-3.47817e-06
-4.73706e-06
-1.68504e-05
-8.96538e-06
-4.34178e-05
-3.38073e-05
-8.80228e-05
-0.000123938
-0.000243305
-0.000170258
-0.00040631
-0.000464555
-5.38353e-05
-1.73982e-05
-1.00479e-05
-1.86109e-05
-1.08387e-05
-5.66926e-05
-0.000167398
-0.000101655
-0.000169719
-0.000291827
-0.000461298
-0.00120405
-0.000794368
-0.00126887
-0.000816996
-0.00274388
-0.00225094
-0.00452377
-0.00558601
-0.00494009
-0.00665032
-0.00290482
-0.0124144
-0.0323916
-0.0344064
-0.0428207
-0.0501118
-0.042735
-0.020717
-0.00613913
-0.00455861
-0.0027649
-0.0116776
-0.0308898
-0.0496188
-0.0430061
-0.0199745
-0.00585295
-0.00117298
-0.00194099
-0.000795823
-0.000463204
-5.83717e-05
-0.00273778
-0.0115633
-0.0307173
-0.0495176
-0.0431455
-0.0200359
-0.00585024
-0.00117082
-0.00079858
-0.00120702
-0.000173112
-1.87199e-05
-5.68194e-06
-4.35352e-07
-2.82931e-08
-1.08928e-08
-2.14558e-07
-5.90713e-05
-0.000469623
-0.00274881
-0.00607501
-0.0206589
-0.0312604
-0.0511905
-0.0434594
-0.0399006
-0.0444165
-0.0418516
-0.0310092
-0.011703
-0.0115027
-0.00271288
-0.000453225
-5.57844e-05
-5.30051e-06
-4.13354e-07
-2.89931e-08
-3.25541e-08
-2.53831e-09
-8.43653e-09
-8.47174e-09
-7.06376e-10
-4.13489e-10
-5.6451e-10
-2.25396e-10
-1.40548e-09
-2.04102e-08
-9.8231e-08
-7.9179e-08
-1.81191e-07
-2.1875e-07
-5.40116e-07
-1.7664e-07
-2.09173e-07
-1.62005e-08
-1.77848e-07
-1.51568e-07
-3.03135e-08
-1.79865e-09
-4.81292e-10
-3.33151e-09
-2.59723e-09
-4.40279e-07
-1.94391e-06
-2.15785e-06
-2.43149e-06
-2.16949e-06
-2.23615e-05
-2.40125e-05
-2.22958e-05
-6.29301e-06
-6.05471e-05
-6.17402e-05
-0.000465328
-0.00124426
-0.00100207
-0.000794491
-0.000374016
-0.000793739
-0.0019411
-0.00235331
-0.00447536
-0.00448582
-0.00194
-0.00194356
-0.00237482
-0.0044896
-0.00456165
-0.00195411
-0.000997705
-0.00195345
-0.0020254
-0.000980428
-0.000803988
-0.00120493
-0.000462712
-0.00290145
-0.0124119
-0.0125655
-0.0224527
-0.0344118
-0.0428482
-0.032392
-0.0501776
-0.0427642
-0.0207617
-0.00615427
-0.00275374
-0.000457694
-0.00117304
-0.000169008
-0.000291638
-0.000294354
-0.000294326
-0.000291323
-0.000371903
-0.000787972
-0.000795132
-0.00100091
-0.00193583