/*--------------------------------*- C++ -*----------------------------------*\
| =========                 |                                                 |
| \\      /  F ield         | OpenFOAM: The Open Source CFD Toolbox           |
|  \\    /   O peration     | Version:  2306                                  |
|   \\  /    A nd           | Website:  www.openfoam.com                      |
|    \\/     M anipulation  |                                                 |
\*---------------------------------------------------------------------------*/
FoamFile
{
    version     2.0;
    format      ascii;
    arch        "LSB;label=32;scalar=64";
    class       volScalarField;
    location    "0.2";
    object      gradTy;
}
// * * * * * * * * * * * * * * * * * * * * * * * * * * * * * * * * * * * * * //

dimensions      [0 -1 0 1 0 0 0];

internalField   nonuniform List<scalar> 
5322
(
0.613955
0.0655207
0.00763918
-0.00900577
0.00200189
0.00865699
0.0106012
0.0113915
0.0135009
0.0159405
0.0022084
-0.0809684
-0.0888891
-0.0798734
-0.0696343
0.15163
0.202471
-0.00060038
0.142022
-0.173361
0.169037
-0.17974
0.182421
-0.197675
0.2053
-0.214748
0.224099
-0.244728
0.255456
-0.269965
0.283827
-0.302982
0.326302
-0.297378
0.294244
-0.156633
0.311292
0.384886
0.193459
0.213446
0.284248
0.238104
0.250783
0.265503
0.253192
0.255637
0.25723
0.274888
0.259918
0.243729
0.30674
0.142656
0.163425
-0.521163
-0.0268294
-0.300467
0.161671
-0.392707
-0.0205044
-0.341277
0.164105
-0.386065
-0.0182708
-0.338761
0.164801
-0.399987
-0.0242353
-0.32813
0.166762
-0.443063
0.0145066
0.367587
0.204402
0.286033
0.213222
0.270486
0.22539
0.269493
0.229049
0.31894
0.0265312
0.115064
0.171154
0.278702
-0.0209375
-0.108804
0.0349687
0.0675671
0.134653
0.0176402
0.035789
0.00656116
0.000975493
0.00103522
0.375057
-0.207279
0.0064952
0.209274
0.00604528
-0.00787321
0.0328756
0.00614886
0.222572
-0.365218
0.327288
0.00589214
-0.00671338
-0.00102977
2.22671e-05
0.000553083
0.000554784
0.000516663
0.000744643
0.00120687
-0.00176311
0.000532342
0.0575083
-0.0234412
-0.00825333
-0.0441417
0.0543788
-0.0299149
-0.0585009
-0.0801852
-0.0905609
-0.0036557
0.0664798
-0.0501034
0.0047161
0.054763
-0.0545255
0.00230458
0.0569198
-0.058366
-0.0018479
0.0531462
-0.0637579
-0.00506929
-0.0148768
0.097654
0.0808219
-0.0532935
0.0352795
0.0274108
-0.0563904
0.00623472
-0.0551053
0.0431958
0.0444829
-0.0490702
-0.000734019
-0.0456713
0.0458756
0.049642
-0.0445098
-0.000144856
-0.0424453
0.0540065
-0.00341334
-0.00252832
0.17064
-0.133614
0.15032
-0.163604
0.00572855
-0.102294
-0.00175978
-4.80756e-05
-0.0185557
0.0485247
-0.0970561
0.0966053
-0.163561
0.00039891
0.167125
-0.16802
0.174933
-0.18307
0.000789777
0.180413
-0.19074
0.197835
-0.204662
0.000795167
0.200208
-0.210454
0.217319
-0.22671
0.000598001
0.221615
-0.233724
0.240971
-0.252788
0.000625457
0.247271
-0.262064
0.270194
-0.283239
0.000880392
0.277143
-0.295453
0.304753
-0.316701
0.00120461
0.309349
-0.331923
0.342192
-0.346651
0.00160452
0.336877
-0.366066
0.369165
-0.207544
-0.00114924
-0.0185737
0.00853651
-0.00655613
-0.00034674
0.00222088
0.00317907
0.000121346
0.375681
-0.206661
0.00141424
0.247165
-0.0354988
-0.0126679
0.0106977
-0.0129522
0.208342
-0.369973
0.00222574
0.00165644
0.00462735
0.00278064
0.00134582
0.000533334
4.26164e-05
-0.000524697
-0.00124863
0.00176259
-0.00067486
-0.0462541
-0.0492973
-0.0493298
-0.0463507
0.00967199
0.016159
0.0100953
-0.062086
0.032237
-0.0655226
0.0161889
0.00969087
0.0101255
-0.0647517
0.0223877
0.0619371
0.0398357
-0.0620632
0.0323074
0.0672435
0.094009
0.0993874
-0.164459
-0.164101
-0.176572
0.130546
-0.165414
0.157011
-0.174173
0.176214
-0.189951
0.196873
-0.211907
0.22023
-0.240489
0.245906
-0.275898
0.273022
-0.314954
0.298202
-0.0609719
0.158854
-0.039691
-0.00206618
0.258189
-0.289973
0.00789048
0.247544
-0.260653
0.00549001
0.227978
-0.228544
0.00416265
0.206301
-0.201051
0.00319112
0.18496
-0.179782
0.00209912
0.164764
-0.164564
0.000719802
0.144289
-0.156192
0.00499041
0.114423
-0.0105472
0.114333
-0.156412
0.0049977
0.131215
-0.175574
0.0700784
0.115366
0.0860945
0.0806674
-0.154834
0.103587
-0.150253
0.137733
-0.157681
0.158564
-0.172151
0.178361
-0.192715
0.199478
-0.220157
0.222264
-0.252926
0.24551
-0.279916
0.260869
-0.037753
0.116745
-0.114204
0.00351866
0.358896
-0.409472
0.0121946
0.353562
-0.357743
0.00758782
0.320617
-0.307585
0.00485226
0.285787
-0.269722
0.00338258
0.255894
-0.241543
0.00207384
0.231206
-0.220702
0.0010122
0.20944
-0.20803
0.00594997
0.175928
-0.199237
0.0696234
0.161145
0.143011
-0.0718057
0.138311
-0.0326802
0.025311
0.164818
-0.142787
0.135482
-0.130696
0.209485
-0.184517
-0.00148956
-0.201605
0.172051
-0.17294
0.00499003
0.181884
0.00805872
0.00328303
-0.0510773
0.00499007
-0.00409421
0.00268678
-0.00101626
-0.000373905
0.166452
-0.166766
0.169906
-0.180824
6.40476e-05
0.192679
-0.201076
0.212658
-0.222563
0.000271968
0.23646
-0.248045
0.265652
-0.277526
0.000429538
0.300042
-0.309227
0.336817
-0.336912
-0.000540325
0.000534598
0.000864235
0.00263631
0.00143474
0.00117821
0.302888
-0.308904
0.00154875
0.365962
-0.383223
0.342954
-0.333614
0.00334214
0.406055
-0.408076
0.260961
-0.18841
-0.32178
-0.0232687
-0.00274281
-0.115956
-0.0304749
0.00695332
0.192378
0.244826
0.0179217
-0.368681
0.266906
0.00137623
-0.276744
0.241277
-0.00175896
-0.231655
0.217781
-0.00102131
-0.200302
0.195178
-0.00223147
-0.181328
0.184813
-0.00372484
-0.159509
0.17592
-0.011243
-0.134924
0.042601
0.0646185
-0.0818555
3.69868e-05
0.135375
-0.120294
0.14037
-0.142574
0.151208
-0.156923
0.255215
-0.223749
-0.000629549
-0.244297
0.212927
-0.203059
-0.00126828
0.230996
0.000195306
-0.00109094
-0.000681309
-0.0121918
-0.000824363
0.0154707
0.0176351
0.00695992
0.00392047
0.0107239
0.00733003
-0.00945566
0.153225
0.0490829
0.0105069
0.0368811
0.00700449
0.000818636
0.000635249
0.00157425
0.00165627
-0.00090904
-0.00189436
-0.137694
-0.00115291
0.145263
-0.153776
0.166579
-0.174752
0.187753
-0.195929
0.322092
-0.278157
0.000401338
-0.302395
0.266794
-0.248943
-0.000163624
0.285169
0.000940837
-0.00028455
-0.000809289
-0.000664213
-0.00818315
-0.00192889
-0.00133925
-0.00537465
0.00312939
0.00223044
0.135683
-0.000304322
-0.00575704
0.00243697
-0.0131201
-0.000989993
0.0815274
0.155021
0.284407
0.0285641
-0.00406093
-0.000207831
-0.00637677
-0.164388
-0.000258406
0.15816
0.144016
-0.164592
0.000732176
-0.173573
-0.000400657
0.177272
0.164544
-0.179616
0.00212661
-0.190022
-0.0010512
0.19738
0.185049
-0.200783
0.00324207
-0.21286
0.000916332
0.219652
0.207111
-0.228408
0.00427179
-0.242869
0.00857207
0.242437
0.23065
-0.26164
0.0056935
-0.279569
0.0289204
0.261842
0.254695
-0.295281
0.00820825
-0.315075
0.0780801
0.273363
0.273336
-0.0476553
-0.00186136
-0.0560649
0.783348
-0.364511
-0.374182
0.581488
0.152217
0.0589502
-0.503866
-0.109724
-0.0652984
0.241379
-0.252411
-0.00460071
0.00746004
-0.0373773
-0.0438347
-0.00674083
0.01179
0.00681139
-0.000166057
-0.00602616
-0.000811607
0.00322903
0.000926434
0.000385908
-0.000106057
-0.000990037
-0.00206066
-0.00723802
-0.0038308
0.0997396
-0.0997691
0.00117196
0.000651367
-0.101361
0.0998695
-0.000236835
0.000412943
-0.000446393
-0.0075569
-0.00478834
0.0181154
0.00189075
0.0208461
-0.00738229
-0.00905956
-1.40888e-05
0.0334793
-0.0389656
0.0391554
-0.0333207
-0.0337445
-0.0287901
0.00110041
0.0388397
0.0348935
-0.0347983
-0.00102769
-0.0390995
1.05635e-05
2.97603e-05
0.00238968
0.00642808
0.00571
-0.0142276
-0.000510208
-0.00121876
-0.00122609
-0.000415941
0.00228407
0.00100458
0.0172989
-0.0236823
-0.00749193
0.00456544
0.190267
-0.187503
0.214031
-0.223323
0.242651
-0.00767187
-0.219429
0.000540498
0.226614
-0.00270161
-0.0144023
0.00263695
0.00187992
0.0035972
0.00419692
-0.00334149
-0.0436956
0.149785
-0.0690769
-0.270956
-0.0376063
-0.0402195
-0.576684
-0.160936
0.0206884
-0.237579
0.173735
0.00827994
0.00882086
0.210173
0.176094
0.0236943
-0.0200321
0.232551
0.209092
0.0253606
-0.024001
0.211286
0.238216
0.023654
-0.0545529
0.175688
0.24238
-0.0851768
0.132544
-0.115398
0.123297
-0.485404
-0.262968
0.0449735
-0.119944
0.246177
-0.0151722
-0.401566
0.220399
-0.00430786
-0.261048
-0.258873
-0.374207
0.143112
-0.201241
-0.131662
0.217187
-0.419812
-0.0535402
0.282996
-0.324183
-0.0148673
0.269425
-0.264107
-0.00529251
0.241584
-0.226958
-0.00387973
0.214759
-0.20146
-0.00303746
0.193139
-0.182201
-0.000467744
0.177166
-0.167132
0.00799544
0.17032
-0.141863
0.038712
0.136186
-0.0749266
0.142345
0.160997
-0.201256
0.175374
-0.210025
0.00613845
0.103255
-0.154922
0.0695356
0.0802693
0.0868134
0.115347
0.0991888
0.0700265
0.135245
0.0809121
-0.00273458
-0.0166842
-0.0139232
-0.0115209
-0.012235
-0.0181309
-0.012813
-0.00414513
-0.000131975
0.162341
-0.168947
-0.00185651
-0.00135625
-0.00291735
0.000310437
-0.270057
0.236948
0.00034209
0.225625
-0.238465
0.000438106
0.252158
-0.267167
0.000930365
0.283193
-0.300822
0.0016533
0.31693
-0.336812
0.00214382
0.344934
0.00242962
0.0050174
0.000483868
-0.000145749
-0.00106649
7.4101e-05
0.000408299
0.000374525
0.000278041
0.000159814
9.62057e-05
0.00010485
0.000942386
0.00268841
-0.0971501
0.00147898
0.00487298
-0.000285235
3.70975e-05
6.24844e-05
-6.58106e-05
-0.000332002
-0.000871041
-0.00183451
-0.00254768
0.00990835
-0.00284767
-0.00752775
-0.010054
0.198507
-0.212121
0.260013
0.00034467
-0.0356413
0.0297776
0.0954763
0.000471533
-0.0852693
0.0800917
0.0819343
0.000226161
-0.0910285
0.0852696
0.0733975
-3.08213e-05
-0.114569
0.108863
0.102212
-0.00206198
0.134542
-0.141583
0.138063
-0.14853
-0.0138148
-0.0784961
0.112756
-0.00963627
-0.107864
-0.00239909
-0.000748401
0.380584
-0.00126851
-0.382888
0.230084
-0.00810247
-0.237956
0.238462
-0.00525071
-0.249941
0.385592
-0.00369147
-0.385622
0.36008
-0.358576
0.35641
-0.365103
0.00120176
-0.381802
0.377147
-0.000594182
-0.238277
-0.0088933
0.24036
-0.204741
0.0016037
0.362067
0.130098
0.367204
0.135164
-0.175763
0.263523
0.0285621
-0.214633
0.224079
0.00887326
-0.201196
0.195818
0.00514884
-0.179907
0.174822
0.00367828
-0.162253
0.155226
0.002391
-0.146521
0.140979
-0.00099999
-0.136826
0.123282
-0.0121839
-0.135549
0.0875097
-0.0619105
-0.165688
-0.049742
-0.153941
0.100726
0.00942887
0.0050214
0.0641331
0.0151713
-0.0987814
-0.0813105
-0.0224682
-0.0629663
-0.0406721
-0.0317223
-0.0697496
-0.0346801
-0.0368607
-0.0692738
-0.101544
-0.10538
-0.0699043
0.174774
0.00986443
-0.104792
-0.00504192
0.146718
0.172652
-0.000924159
-0.13169
-0.000955832
0.152184
0.225213
0.00166325
-0.233734
0.00112188
0.245084
-3.51848e-05
-0.259131
0.0019284
0.271057
-0.00038076
-0.289853
0.000791515
0.302023
-0.000532794
-0.325559
0.00145453
0.336587
-0.00172073
-0.366215
-0.00154336
0.369288
-0.00651119
-0.411594
-0.0130065
0.00476992
-0.25148
0.409331
0.00248763
0.249871
0.00247545
-0.229753
0.376312
-0.000361645
0.220568
0.00230076
-0.207046
0.338538
-0.000324268
0.196554
0.00186103
-0.184824
0.30314
-0.000130486
0.17521
0.0019849
-0.166412
0.272222
1.58387e-06
0.157985
0.00143486
-0.151024
0.24676
0.000122958
0.143199
0.00123981
-0.140822
0.226207
-0.000675085
0.132215
0.000705089
-0.136134
0.204061
-0.00782455
0.143769
-0.0250733
0.0330259
-0.161769
-0.142463
0.0743341
-0.137865
-0.0396641
-0.0263854
-0.285829
-0.155871
-0.136793
-0.0965069
-0.0700925
0.156586
0.181082
0.0133565
-0.0992771
-0.00605226
0.212672
0.0060271
-0.21143
0.00320073
-0.00129422
0.00135432
0.00655669
-0.137612
-0.00586522
0.0650213
-0.00943176
-0.00945893
-0.0174822
0.0624838
-0.0206113
0.00850014
0.00746543
0.00020204
0.00056542
0.000515372
0.00032966
0.000281383
0.000130531
-0.000980786
-0.000673671
0.193052
-0.223697
0.000936479
-0.00100499
-0.00205515
-0.000103039
-0.174059
-0.000137823
0.181783
-0.195869
-0.000104061
0.203272
-0.215114
0.000118963
5.68242e-05
-0.00039311
-6.40478e-05
0.000112791
0.000625654
0.000708305
0.000517752
0.000326526
0.000201662
0.000142098
0.000624261
0.000842362
0.000276127
0.180203
-0.187341
0.170056
-0.177744
0.186015
-0.194844
0.00151129
-0.0951895
0.000862965
0.0895785
0.00344049
-0.093199
0.000254006
0.0709631
-0.00695343
-0.00520714
0.0263156
0.000727262
-0.0308746
0.222256
-0.001712
-0.146153
-0.00184924
0.156378
0.20389
0.00105022
-0.169452
-0.00267736
0.181032
0.219021
0.00316485
-0.191199
-0.00348148
0.200395
0.245163
0.00496127
-0.216669
-0.0044363
0.219381
-0.244759
-0.00537714
0.230311
-0.278539
0.00576197
-0.0086171
-0.00197503
-0.000578223
0.000178536
0.000367129
0.000451228
0.000775153
0.00134998
-0.00175607
0.000604745
0.0463269
0.0488519
0.0494278
-0.0144916
0.0662311
-0.00634569
-0.00662889
0.0680467
-0.0127719
0.0623433
-0.0200705
0.00246295
-0.0055083
0.00533299
-0.00133139
0.00130214
-0.000916216
-0.167476
0.00469507
0.00485244
0.00109703
8.71866e-05
-5.13405e-06
-0.034749
0.034501
0.00110827
-0.0292448
0.0450778
-0.00934046
0.0037803
-0.000768209
-0.00149253
-0.00847239
0.0646451
-0.164978
0.0100012
-0.110908
-0.00593203
0.143462
0.17633
-0.00309718
-0.134072
-0.000622561
0.182021
-0.00149316
-0.150461
-0.0017936
0.16489
0.199619
0.00150137
-0.170749
-0.00273213
0.181244
-0.192208
-0.00359013
0.200486
0.00296506
0.00242108
0.0018242
0.00120717
0.000282246
0.00386835
-0.0024785
-7.42539e-05
0.00113248
6.56985e-05
-0.000975363
-0.00462522
-0.00380687
-0.00107424
-0.00107007
0.000208004
0.00191984
-0.000788885
0.00101012
-0.00103905
-0.000434856
-0.0130662
-0.0177457
-0.0296301
-0.0323426
-0.0608623
-0.0516407
-0.0304095
-0.113597
-0.346844
0.0261276
-0.543494
-0.402086
-0.295581
-0.196879
-0.175718
0.0680976
-0.15672
-0.0125485
0.0381272
0.0026962
-0.00438216
0.189695
-0.222531
0.264771
0.00245426
-0.0318074
0.0494414
0.111087
0.00440593
-0.0764379
0.103935
0.10398
0.00472701
-0.0818475
0.10729
0.0974818
0.00353349
-0.109526
0.121592
-0.00567734
0.0039451
0.0131499
0.0641738
-0.274192
-0.396535
0.00925832
0.356401
0.00925288
0.00587193
0.228442
0.00183908
-0.374531
0.399388
-0.000300579
-0.39871
0.234745
-0.255931
0.226433
-0.031158
-0.255696
0.0115754
-0.29451
0.407211
-0.35664
0.352919
-0.00100237
-0.353637
0.000607719
0.350426
-0.00104122
-0.351881
0.000219989
0.353487
-0.00110784
-0.354868
0.362774
-0.416785
0.0259982
-0.303982
0.417486
0.0204977
0.0110392
-0.123134
0.13259
-0.136976
0.000231178
-0.108535
0.099818
0.00713066
-0.124015
0.0889272
-0.102738
0.00643253
0.191162
-0.110966
0.0671387
0.0156669
-0.127546
0.100561
-0.00207514
-0.00204522
-7.22829e-05
0.00381306
0.00217054
0.000985495
0.000358712
-2.02191e-05
-0.000524577
-0.00122288
0.00177325
-0.000589835
0.0289343
0.0333524
6.43287e-05
-0.0078683
-0.0048654
0.062423
0.0224565
-0.0532508
0.0273313
0.0353216
-0.055798
0.00174185
-0.0641762
-0.00498019
-0.01513
-0.0520498
0.0812246
0.098888
0.00516121
0.0182106
-0.00441769
0.0024966
0.043613
-0.0468706
-0.000554084
-0.0493056
0.0491957
0.046897
-0.0435644
-0.000281202
-0.0591269
-2.34975e-05
0.059118
1.94949e-05
4.79397e-05
-0.00112283
0.00332228
0.00189018
0.0252747
0.284147
0.15486
0.0800173
-0.0027529
-0.0155547
-0.0134714
-0.0130756
-0.0172819
-0.0280156
-0.0500547
-0.0526881
-0.102556
-0.112756
-0.239902
-0.39911
-0.357842
-0.360377
0.151601
-0.228116
-0.0986721
-0.106809
-0.320686
-0.407714
-0.364591
-0.364476
-0.366617
-0.362795
-0.4128
0.153678
-0.0337561
-0.109374
0.474874
-0.142325
-0.297883
-0.284615
-0.0786015
-0.0967316
-0.222263
-0.231925
-0.047418
-0.0766753
-0.00950748
0.00227023
0.00550362
0.00522186
0.00423118
0.00289569
0.000308221
-5.11987e-05
-0.00677004
-0.00164532
-0.00504188
-0.00828453
-0.00920454
-0.0118883
-0.0185443
-0.035025
-0.00138816
-0.00259867
-0.00411758
0.00131387
0.00393418
0.00410931
0.00398062
0.00264208
0.00343745
0.00125108
0.137358
0.207825
-0.221665
0.2296
-0.241505
0.00218701
0.158012
-0.157984
0.00117729
-0.00115149
-0.000131787
0.0013473
-0.150532
0.00603406
-0.0651931
0.0400622
-0.0128563
-0.00379055
-0.0046122
0.00615888
-0.056488
0.0443176
-0.000326578
-0.000153407
-0.000156408
3.97935e-05
0.0288324
-0.000984387
0.000133812
0.000129706
-5.81808e-05
-0.0181895
0.000102277
0.00754178
0.00467945
0.00617896
-0.00510781
0.00431368
-6.56411e-05
0.000453052
-0.0181383
0.0563901
0.055822
-0.0351707
-0.0060971
-0.0278495
0.0535775
0.00471192
0.0010871
4.47723e-05
1.30397e-05
-0.00106972
-0.000962139
-0.000974119
-0.000580853
-0.00419409
-0.000994958
-0.000556221
-0.000930362
0.000846633
-0.00112634
-0.000483696
-0.17224
0.177616
0.25468
-0.268603
0.284713
-0.303679
0.0044275
0.198355
-0.192264
0.00325741
0.000206858
-0.000730495
0.000995277
-0.000190722
0.00263965
-0.000618512
0.000502263
-0.0004229
0.000912875
0.00201756
0.00736275
0.00783404
0.0086661
0.00385682
0.0661927
0.00144125
0.00194841
0.000946918
0.000358849
-0.000196688
-0.00109423
-0.00114118
-0.0004623
-0.000500551
-7.05097e-05
6.84944e-06
5.06393e-05
0.000483656
0.000325575
0.000304145
0.000180425
-0.000379989
0.000693036
0.000643447
5.76027e-05
0.0001437
0.000248593
0.000394327
0.000477794
0.00104444
0.000681598
0.00121472
0.00209504
0.00121544
0.00260806
0.00427366
0.00343642
0.0164897
-0.0296142
-0.0387869
-0.00703573
0.00462516
0.00627765
0.00501142
-0.0944387
-0.00184358
-0.00103494
-0.00138963
-0.00948987
-0.00348952
0.208182
-0.00279337
-0.26835
-0.00201908
-0.0119036
-0.249009
-0.011134
-0.0144035
-0.160687
-0.0760336
-0.127691
-0.312198
0.0312851
0.0789259
0.00508764
-0.00421797
-0.00358793
-0.00659913
0.00154052
-0.186525
0.256961
0.0017681
-0.0569978
0.0256068
0.0882329
0.000538334
-0.110134
0.0701553
0.0710209
-0.000340731
-0.113768
0.0749997
0.0627561
-0.00105124
-0.104468
0.0244804
-0.147294
0.0682349
0.106898
-0.140693
0.0420541
0.0193518
-0.00844527
-0.00164619
-0.000421267
0.000326719
0.000431548
0.000446203
0.000728496
0.00111806
0.00123546
0.00127158
0.00241255
0.197352
-0.206103
0.00152515
0.217129
-0.228636
0.205429
-0.216926
0.229493
-0.243855
0.00154652
-0.117286
0.000738353
0.113691
0.00135035
-0.104121
0.000975144
0.10188
-0.000284407
0.000569473
0.0329808
-0.000199438
-0.0366632
0.268022
0.00209444
-0.181784
-0.00343371
0.193472
0.250174
0.00471335
-0.213891
-0.00438266
0.266781
0.00888571
-0.243544
-0.00641202
0.229963
0.292272
0.00822585
-0.333589
0.00249327
-0.277327
-0.330138
0.0101426
0.284003
0.236076
-0.27251
0.00334285
-0.00831325
0.0051871
0.00399452
0.00330969
0.00252541
0.00166653
0.000686286
0.000263692
0.00084739
0.000462271
0.000142535
0.000507459
9.27042e-05
0.241639
-0.256246
0.00205459
0.270702
-0.289263
0.258659
-0.274322
0.294051
-0.300398
-0.01039
-0.146122
-0.00284839
0.148131
-0.000127985
-0.134547
-0.000250104
0.128082
-0.00119094
0.0028502
0.0460993
0.00240806
-0.0414376
0.333644
0.00412377
-0.223794
-0.00638499
0.240619
0.290307
0.00787638
-0.342599
0.00388489
-0.243868
-0.436578
0.000375285
0.35672
-0.0260504
0.143019
-0.000605156
0.100998
0.0721918
0.039654
0.0253441
0.188626
-0.116922
-0.00883237
0.0106969
0.00470986
0.00348026
0.00312933
0.00263248
0.00166499
-0.000822563
0.00131347
0.115859
-0.0827775
-0.134128
-0.0308019
0.0254332
-0.0664928
0.213015
-0.0972627
-0.118672
-0.115056
-0.0675715
0.160053
0.177216
0.00948995
-0.111731
-0.00539916
0.170825
-0.00260905
-0.131561
-0.000547865
0.152753
0.183232
-0.000516581
-0.151496
-0.00192071
0.164598
-0.00314803
-0.00221858
-0.186224
0.000375314
-0.165806
0.0192463
0.0195822
0.00254773
-0.0858847
-0.143332
-0.0993364
-0.0708197
-0.149482
-0.0522884
-0.0267079
0.0154895
0.00426351
0.210634
-0.00251172
-0.13171
-0.000860102
0.145006
0.187174
-0.00167748
-0.151023
-0.00178247
0.198351
0.00116342
-0.169775
-0.00272253
0.181298
0.220611
0.00309504
-0.233402
-0.0049251
-0.0037969
-0.208127
0.0118945
0.0120014
0.0154852
0.000122059
-0.162708
0.00539306
-0.124582
0.00263534
-0.0244284
-0.0366847
-0.00728751
0.0147843
-0.00653066
-0.200764
0.00348602
-0.000716547
0.0299599
-8.9218e-05
0.24205
0.000577051
-0.162577
-0.00271732
0.172761
0.225321
0.00295339
-0.19029
-0.00336515
0.242853
0.00531136
-0.215614
-0.00457405
0.218853
0.270929
0.00794545
-0.295844
0.003419
-0.000774291
-0.000183428
0.000311659
0.000299335
0.000211257
0.0001331
7.43228e-05
-0.000469874
-0.00114553
-8.91223e-05
-0.000248084
-0.000401295
2.31208e-05
0.00035511
0.000661513
0.000955184
0.000436055
0.000258844
-2.09812e-05
-3.22867e-05
-0.000426975
-0.000185138
0.195094
2.57233e-05
-0.194926
0.203519
6.81092e-05
-0.214619
0.214862
-0.203168
0.205309
-0.00015193
-0.21759
0.214306
-0.203935
0.194843
-0.000750533
-0.1985
0.183747
-0.183003
0.18324
-0.183748
0.000790935
-0.194879
0.198881
0.000471313
-0.205285
0.000288373
-0.214356
0.218121
0.000333897
-0.2275
8.29038e-05
-0.237322
0.241054
-0.237548
0.2379
0.000124601
0.225193
-0.224736
2.06296e-06
0.227596
0.000158822
-0.240427
0.23734
-0.224692
-0.000624237
-0.245403
0.151051
-2.06342e-05
0.232248
-0.00117486
-0.225113
0.140689
0.000684423
0.211179
-0.185489
0.173815
-0.000643806
-0.176759
-0.000175949
0.172512
3.58346e-05
-0.172411
0.00040817
0.176934
0.000688254
-0.173794
0.185984
-0.211664
0.00157482
0.00223833
0.00197282
0.00726345
0.00489758
-0.100999
0.104208
-0.102662
0.102653
-2.41679e-05
-0.000293722
-0.000281415
-0.104194
0.100958
-0.00493654
-0.00284036
0.0537815
-0.0600854
0.000206237
-0.000400129
0.169157
-0.171242
0.171371
-0.169198
0.174937
-0.183907
-0.00490006
-0.00181628
-0.0537626
0.00284165
0.0600617
-0.00248419
0.00118259
0.00110708
6.77294e-05
0.000115457
0.000171094
0.000211215
0.00019123
-0.250262
0.000117963
-0.264761
0.265202
-0.26779
0.264955
0.00028657
0.253741
-0.249896
-0.000252402
-0.270743
0.166187
0.000263025
0.256127
-0.157491
-0.00129714
-0.138218
0.145425
-0.00149563
-0.153132
0.161673
-0.00132864
-0.170313
0.183547
0.000568462
-0.189574
0.210529
-0.000208755
-0.215432
-0.0121978
-0.00264058
-0.00502554
-0.000504238
-0.00328622
-0.00102767
-0.00303993
-0.00128153
-0.00284348
-0.000501211
0.000335556
0.135351
-0.143
-0.00114574
-0.12262
0.133696
0.011714
0.00457102
-0.00199603
0.00407921
-0.0873388
-0.00075307
0.136151
0.00774173
-0.203475
-0.00137224
-0.00203434
0.0107242
0.00709734
-0.00943207
-0.100581
0.153658
0.0498459
0.164734
0.0610082
0.0347282
0.00808472
0.024819
-0.143752
0.183701
-0.174627
0.00490129
0.000794424
-0.00793561
-0.00209027
-0.00100431
0.00390152
0.00175095
0.00158103
0.00196766
0.000686267
-0.301717
0.185172
-0.175456
0.285356
0.00023089
-0.000202421
-0.000900115
-0.000141461
-7.82192e-05
0.000283906
0.000440473
0.00079197
0.000169702
-0.279178
0.000285821
-0.298637
0.296507
-0.337373
0.207034
0.00127154
0.320294
-0.197432
1.27179e-05
-0.00113184
0.00560319
0.00396937
0.0018545
0.00423215
0.219763
0.319236
-0.347918
0.0310387
0.00421799
0.00116858
0.00879934
0.00146828
0.00592605
-0.218219
0.00660506
0.0210264
-0.248524
0.00624201
0.00143299
0.00085071
0.0016364
0.00287511
0.00406143
0.00194957
0.00100487
0.000554315
0.000442159
0.000374073
0.000535941
0.000709547
0.000495
0.000408145
0.000495802
0.000476266
0.000394581
0.000359889
0.000520503
0.000327182
0.00153159
0.000742573
0.000835653
0.000605616
0.000204558
-0.000227514
-3.70375e-05
0.000992779
0.00176317
0.000269461
-0.00964248
0.00128935
0.00055001
0.000609711
0.000848791
0.00110785
0.00106607
0.00195821
0.00111379
0.00209168
0.00111792
0.302632
-0.326706
0.00282116
0.331672
0.00584475
0.00116735
0.00305156
0.0168721
-0.0578529
0.162978
-0.132532
0.279491
0.0407083
0.182374
-0.151883
0.126464
-0.130396
0.0872986
0.0992491
-0.142016
0.0323591
-0.150456
0.0922275
0.09561
0.183931
-0.00904616
-0.00295192
-0.0232121
-0.00133328
-0.100322
-0.00175138
-0.000562575
0.000579776
0.000792096
0.00141602
0.000829541
0.000614197
0.000756131
0.00059992
5.20775e-05
0.000576033
0.000184701
0.003104
0.00199245
0.00137375
-0.284862
0.299432
0.00325115
-0.202982
-0.00451253
0.217932
0.274856
0.00741815
-0.240341
-0.00602654
-0.29357
0.00405611
0.00336552
-7.22804e-05
0.000296993
0.000106695
0.00284169
0.000604368
0.000309521
0.000442952
0.000383294
7.71633e-05
0.00171286
0.000813776
-0.000484573
-0.15997
0.000584696
0.152712
0.00649924
0.147761
-0.127873
-0.136499
0.161598
-0.107197
-0.100806
-0.0845255
0.00304933
-0.00212499
-0.00255237
-0.18731
0.0133077
-0.00394949
-0.0328334
0.00523055
0.0119677
-0.00429485
-0.253228
0.00639048
0.00113071
0.0371949
0.00040675
-0.0406693
-0.00444576
0.00939353
0.0137218
0.0123435
-0.00421016
-0.211381
-0.00376732
-0.205699
0.0108181
-0.00539881
-0.23795
-0.00488139
0.200927
0.00944628
-0.00696598
-0.268345
-0.000986686
-0.323586
0.022428
0.0111757
0.072567
0.00673336
-0.372253
0.0208265
0.0155256
0.0180594
0.0368327
0.17523
0.413228
0.215648
0.317339
-0.0212261
-0.0102399
-0.303147
0.00400869
-0.00604797
0.0211125
0.213187
0.308474
-0.0211959
-0.0100573
-0.0064915
0.221417
-0.260555
0.00760743
0.0102672
-0.000707703
-0.0133949
0.0123455
0.196524
0.310877
-0.0220563
-0.0103141
-0.00665253
-0.262603
-0.00792394
-0.00602374
-0.00492345
0.00816189
0.00774635
0.00432182
-0.009204
-0.000257331
0.00849899
0.00818355
0.00608412
-0.0101796
-0.0134211
0.0108872
0.179365
0.347847
-0.0629518
0.0624076
0.0277407
0.0293244
0.00615465
-0.00196606
-0.000874844
-0.000357007
-0.000131724
-7.21899e-06
0.000229335
0.000979023
-2.19882e-05
-4.69024e-05
-0.000408254
0.000684578
0.000387689
0.000430166
-0.000733408
-0.0076432
-0.0110163
-0.0039879
0.00117094
0.0014185
-0.233004
0.204601
0.000627161
0.000642492
0.000655183
0.00116212
0.00128988
0.00131941
0.00070028
-0.00327909
0.0517273
-0.177981
0.00949242
0.00120952
0.000483733
0.000360579
0.000374495
0.00036585
4.20039e-05
0.000320174
0.000266272
0.000317093
0.000162331
0.000224142
0.000232278
0.000754936
0.000735227
0.295834
-3.65067e-05
-0.295444
0.312568
-0.000443504
-0.327241
0.327105
-0.312134
0.31711
-3.2884e-05
-0.330304
0.329536
-0.311067
0.000971646
0.360304
-0.224414
0.00219205
0.000433323
0.00185892
0.00256326
0.00199683
-0.00675823
-0.0179386
-0.036243
-0.0776719
0.00268597
-0.0319231
-0.0114446
-0.0034508
0.00416067
0.00368881
8.45928e-05
0.000435543
0.000853175
0.000474345
0.283957
-0.279745
0.280334
-0.283642
-0.000194209
-0.29565
0.299194
1.2146e-05
-0.317079
-0.000618732
-0.32839
0.330586
-0.000221234
-0.35001
0.344576
-0.396725
-0.00084681
-0.00217083
-0.000845624
0.000290009
0.000528414
0.00188805
0.00439313
0.015274
0.0689203
-0.0278919
0.790503
-0.019853
-0.00391708
-0.0146781
-0.145894
0.0308257
0.0840389
0.00697018
-0.00135042
-0.0787045
-0.00157133
0.00218424
0.00505676
0.000376598
0.00046657
0.00676854
0.00376843
-0.2492
0.211311
-0.00911587
-0.00596753
-0.00102158
0.0428646
-0.0104166
0.0353481
0.0571187
0.0962297
0.188513
0.044426
-0.11447
0.0456508
-0.150121
0.0360515
0.0185867
-0.109436
0.00686122
-0.00204588
0.000234601
-0.000444316
0.000106366
0.0019059
-0.00101778
-0.00239439
-0.000565013
-0.00272477
-0.000773387
8.43167e-05
-6.55767e-05
0.000194726
-0.000105199
-7.50165e-05
-0.000691255
7.14962e-05
0.00105346
0.00216474
0.0073312
0.091496
0.387292
0.0214795
-0.0622519
0.248381
0.00190494
-0.0470465
-0.0199375
-0.0306272
0.784992
-0.0160175
-0.00415648
0.00570619
0.00181083
0.00440336
-0.0714492
-0.00181665
-0.00185179
-0.0154165
-0.147035
-0.129969
-0.0808186
-0.302119
0.0313976
0.0744774
0.00358799
-0.00421731
-0.00445469
-0.00248711
-0.0875233
-0.00445488
0.0423499
-0.026402
0.045238
-0.00275327
-0.0800811
-0.00482302
-0.00242149
-5.57725e-05
0.00552362
0.0226621
0.00458156
0.00533872
0.0214729
0.0208625
0.00200085
-0.00153943
-0.000386252
0.000851666
0.00250371
-0.00123608
-0.000636643
0.0148541
0.286567
0.0174757
0.00430813
-0.000273599
-0.0012535
-0.00127773
-0.00120949
-0.00159945
0.000504049
0.22548
-0.256907
0.000884798
0.0011493
0.000195343
0.000579373
-0.285769
0.250737
-7.3097e-06
-0.264614
0.268442
-0.253518
0.000250301
0.250806
0.000186933
0.000134841
5.63767e-05
7.44887e-05
0.000275949
0.000476198
0.000247059
0.00012568
-7.24963e-05
-0.000669308
0.0013135
0.348339
-0.343498
0.343259
-0.000112648
5.06953e-05
0.00013199
0.000166412
-0.000102717
0.280185
-0.319784
0.000343801
0.00106384
0.00115373
-0.000627431
-0.000113235
-0.357997
0.312645
-0.000506835
0.00375599
0.00293989
0.00361869
0.00248786
0.00189073
-0.00446692
-0.008451
-0.0353998
-0.00507661
0.000481107
0.00161784
0.00015584
0.0017507
0.00225155
0.0032304
-0.00118746
-0.00104077
0.000225438
-0.000258937
-0.00157505
-0.000633097
-0.000897916
1.16663e-05
-0.00168826
0.00112111
-0.0017902
-0.00640788
-0.000562921
-0.00220098
-0.0137346
0.0103976
0.0286451
0.000804273
0.000992379
-0.341249
0.00230719
0.0140023
0.0820722
-0.00188745
-0.0025144
-0.0176341
-0.172045
-0.106012
0.0243585
-0.00307748
-0.00243586
-0.00200369
-0.021946
-0.00344259
0.162068
0.0468314
-0.00832615
0.033624
0.242955
0.0204864
-0.00370938
-0.00632728
-0.00737854
-0.0109176
-0.259726
-0.230096
0.00158584
0.0227633
0.00952536
0.0400241
-0.0751626
0.000407991
0.00350293
-0.0112555
0.00256472
-0.231315
0.010365
0.00659148
0.00487723
0.00338697
0.000775831
-0.000417273
-0.226586
0.164461
-0.182654
0.0155374
0.182852
0.239722
0.00502937
-0.00134983
-0.00100344
-0.0333966
-0.132073
-0.00940711
-0.00284829
-0.00150786
-0.000988396
-0.0373815
0.000234503
-0.262374
0.00676872
-0.247464
-0.00181548
0.0239741
0.000585563
-0.0444776
0.0208886
-0.00816788
0.145979
0.000394054
-0.118555
0.0245002
0.0867516
0.00696147
0.000174263
0.00157602
0.000440094
0.00405226
0.1354
-0.341445
0.00157739
-0.0706363
0.00214974
0.014512
0.0195737
0.0154939
0.0116533
0.00963105
0.00630348
-0.00278503
-0.0165153
0.0120374
0.193388
0.242933
0.237232
0.162396
-0.374296
-0.354128
-0.0161767
0.340839
-0.00819322
-0.397532
0.0662211
0.012655
-0.0459058
0.0447081
0.00434043
-0.0421487
0.0385339
0.00290634
-0.0362267
0.0348259
0.00232367
-0.0321217
0.0307145
0.00105123
-0.0297047
0.0267693
-0.00115256
-0.0293219
0.0224095
-0.00609401
-0.0356175
0.0125379
-0.0272497
-0.0656951
-0.0313622
-0.0974146
-0.119427
-0.117038
-0.0995547
-0.105822
-0.110208
-0.105434
-0.113697
-0.108264
-0.107571
-0.111921
-0.107188
-0.114443
-0.113465
-0.105997
-0.140983
-0.0665233
-0.0636623
0.245704
0.0158762
0.138542
-0.068078
0.179353
0.0116383
0.159231
-0.0699863
0.16985
0.00972381
0.164192
-0.0701919
0.167912
0.0100311
0.172774
-0.0679125
0.162747
0.0106389
0.21147
0.0252432
-0.0178027
-0.134297