/*--------------------------------*- C++ -*----------------------------------*\
| =========                 |                                                 |
| \\      /  F ield         | OpenFOAM: The Open Source CFD Toolbox           |
|  \\    /   O peration     | Version:  2306                                  |
|   \\  /    A nd           | Website:  www.openfoam.com                      |
|    \\/     M anipulation  |                                                 |
\*---------------------------------------------------------------------------*/
FoamFile
{
    version     2.0;
    format      ascii;
    arch        "LSB;label=32;scalar=64";
    class       volScalarField;
    location    "0.2";
    object      gradTy;
}
// * * * * * * * * * * * * * * * * * * * * * * * * * * * * * * * * * * * * * //

dimensions      [0 -1 0 1 0 0 0];

internalField   nonuniform List<scalar> 
5322
(
0.0345948
0.00618329
0.00190724
0.00192806
0.000635242
0.00012962
1.78887e-05
1.82619e-06
1.49145e-07
1.0481e-08
6.28347e-10
-3.21063e-11
-5.48273e-11
-1.37428e-11
4.47317e-11
4.15026e-10
2.7882e-10
2.75335e-10
2.70048e-10
-3.52363e-09
6.58433e-09
-5.79924e-08
1.19146e-07
-8.5594e-07
1.88963e-06
-1.01383e-05
2.15862e-05
-9.47941e-05
0.000197788
-0.000648193
0.00124076
-0.00318535
0.00565051
-0.00942895
0.0125879
-0.0105408
0.0226575
0.0255107
0.0133793
0.0163914
0.0188453
0.0160742
0.0187908
0.0176651
0.0168367
0.0191697
0.0171624
0.0183455
0.0196352
0.0165795
0.0212909
0.00753199
0.00990806
-0.0256001
-0.000972492
-0.0141322
0.00893704
-0.018117
-0.000399259
-0.0154912
0.00908671
-0.0175826
-0.00032535
-0.0154307
0.00915783
-0.0183061
-0.000710252
-0.0153081
0.00945515
-0.0216643
0.000114249
0.0105888
0.00566914
0.00819472
0.00590824
0.00765798
0.00629943
0.00765703
0.00662147
0.00974917
-0.000151799
0.00654041
0.00863086
0.0116302
-0.000383584
-0.00212248
0.00201581
0.00340825
0.0114233
0.0020556
0.0029745
0.000294021
3.08221e-05
-1.24478e-05
0.00741904
-0.00587501
0.000192821
0.005774
0.00018531
-0.001639
0.00236979
0.000182021
0.00642799
-0.00728189
0.00643448
0.000424028
-0.000263352
2.15875e-05
2.43809e-05
1.01667e-05
2.33905e-06
3.66123e-07
4.27163e-08
4.01051e-09
4.14446e-10
-3.08411e-11
2.44377e-10
3.46033e-11
7.26545e-12
1.29834e-10
1.31953e-10
8.78866e-11
3.85388e-12
-1.85863e-11
3.42049e-11
-1.05503e-10
-4.77978e-12
5.1357e-11
5.12296e-11
4.90688e-11
-2.96235e-11
-6.33281e-11
3.18404e-12
-5.67589e-11
-4.36247e-11
-9.36823e-11
1.55689e-11
1.21071e-10
-2.56484e-11
2.51138e-11
1.41267e-11
-1.33234e-10
-1.27016e-10
-1.08111e-10
-2.2118e-10
2.10133e-11
-7.16598e-11
-4.16643e-11
7.44777e-11
-3.14329e-10
-1.39816e-10
-2.43081e-11
-2.15099e-11
1.61531e-10
-9.9471e-11
-1.54055e-11
7.88832e-11
8.44944e-11
7.52102e-11
4.00071e-11
4.85456e-10
-1.48484e-10
1.05424e-09
-2.57432e-09
1.19363e-09
1.28963e-10
2.39064e-10
1.00117e-10
-1.50622e-11
1.06797e-11
3.98044e-11
7.77497e-11
-2.6606e-10
2.83572e-11
3.77356e-10
-1.17668e-09
1.40836e-09
-4.60663e-09
2.74977e-10
5.68727e-09
-1.87592e-08
2.13092e-08
-7.28448e-08
3.08876e-09
8.2558e-08
-2.73922e-07
3.00159e-07
-1.00894e-06
2.81535e-08
1.08383e-06
-3.46575e-06
3.70105e-06
-1.16942e-05
2.14301e-07
1.20908e-05
-3.61333e-05
3.79361e-05
-0.000108038
1.30911e-06
0.000108735
-0.000294909
0.000306332
-0.000753802
5.71449e-06
0.000742089
-0.00177094
0.00182442
-0.00368228
1.67822e-05
0.00355612
-0.00726754
0.0072767
-0.00578429
-3.34953e-05
-0.00188466
0.00109543
-0.000351136
-1.58749e-05
7.75342e-05
5.96588e-05
2.7048e-05
0.00751869
-0.00564021
7.48081e-05
0.00745452
-0.00149478
-0.00120126
0.00170826
-0.000497128
0.00585412
-0.0073325
9.01602e-05
3.38749e-05
5.8851e-05
-7.21718e-06
-7.39023e-06
-2.10597e-06
-3.5792e-07
-4.31869e-08
-4.12094e-09
-4.3688e-10
-3.86969e-11
-1.34994e-10
-2.65876e-10
-2.5344e-10
-1.54483e-10
1.12588e-11
-1.6577e-10
-2.57863e-10
-1.90549e-10
-2.07463e-11
-4.15042e-11
-1.19957e-10
6.01384e-11
-1.88699e-10
-5.58809e-11
-1.06848e-10
-3.88386e-11
-6.66612e-11
-2.12552e-10
-9.0536e-11
2.61732e-11
9.15739e-11
-2.80019e-11
-6.15459e-10
-5.26845e-10
-3.89131e-10
5.21955e-10
-6.2335e-09
8.85387e-09
-8.38017e-08
1.44222e-07
-1.03714e-06
2.07332e-06
-1.0994e-05
2.43742e-05
-9.56659e-05
0.000220256
-0.000651755
0.0014348
-0.0032373
0.00605668
0.000683024
0.00902181
0.00136353
0.00139268
0.0052397
-0.00295832
0.000463612
0.00129277
-0.000619458
7.04195e-05
0.000200351
-9.30657e-05
6.06583e-06
2.20172e-05
-1.09189e-05
1.89232e-07
1.83107e-06
-1.05467e-06
-2.51102e-08
1.21881e-07
-8.73892e-08
-4.71597e-09
6.9422e-09
-6.69344e-09
-4.38896e-10
2.49058e-10
-5.27502e-10
2.45421e-10
-6.68049e-09
-3.42933e-10
4.82223e-10
-5.42728e-10
-8.51004e-11
-2.51396e-11
3.53779e-11
-1.16301e-11
-4.00539e-10
1.38718e-10
-5.50727e-09
4.64211e-09
-7.61247e-08
1.01765e-07
-9.48352e-07
1.72084e-06
-1.00848e-05
2.20312e-05
-8.81355e-05
0.000209685
-0.000600857
0.00140453
-0.00286574
0.00559854
0.00140999
0.00737153
-0.000648767
0.00160984
0.00810623
-0.00410954
0.000554333
0.00216226
-0.000796719
8.55689e-05
0.000340381
-0.000107737
8.24105e-06
3.77126e-05
-1.12962e-05
4.61739e-07
3.16707e-06
-9.65327e-07
1.94063e-09
2.10147e-07
-7.04824e-08
-2.39726e-09
1.17297e-08
-4.73562e-09
-8.75639e-11
6.01327e-10
-2.6145e-10
-1.0958e-11
9.30285e-11
1.18045e-11
8.58201e-11
2.30283e-10
-8.61875e-11
5.67835e-11
-3.12037e-11
-1.85931e-10
1.4827e-10
-2.88674e-09
2.77478e-09
-5.95424e-09
-8.61673e-10
-1.30257e-09
6.30176e-10
-4.00472e-10
-5.80938e-12
1.4091e-10
-1.71441e-10
-3.38768e-10
-4.01092e-11
-3.95188e-11
1.46839e-11
-6.57421e-11
-2.63335e-10
-2.67999e-10
1.90403e-10
-3.99318e-10
1.14385e-09
-5.85798e-09
-2.9912e-10
1.80226e-08
-8.52479e-08
2.62483e-07
-1.11849e-06
-4.39022e-08
3.36592e-06
-1.23881e-05
3.58512e-05
-0.000110302
-8.77156e-07
0.000297613
-0.000747732
0.00179108
-0.00358535
-2.95197e-05
-3.04188e-06
2.00476e-06
6.26617e-06
-3.31713e-06
-3.22631e-06
0.000295439
-0.000765657
-9.255e-06
0.00087825
-0.00215723
0.00186111
-0.00358566
1.9077e-05
0.00443661
-0.00842113
0.00572199
-0.00556812
-0.0174614
-0.00155287
0.00135729
-0.0058756
-0.00173779
-6.14148e-05
0.00398691
0.00375221
0.000182506
-0.00218879
0.000816602
-3.73021e-05
-0.000249974
0.000107748
-1.05056e-05
-2.37164e-05
1.07056e-05
-1.48145e-06
-1.73892e-06
8.28778e-07
-1.59292e-07
-1.07007e-07
5.31976e-08
-1.31885e-08
-5.22199e-09
3.08686e-09
-8.87475e-10
-1.79421e-10
1.25048e-10
2.45073e-11
-3.30352e-10
-6.99283e-10
2.30802e-10
-5.63389e-09
4.53144e-09
-4.67976e-08
1.03284e-07
-6.79387e-07
8.20476e-07
-1.14496e-06
-1.12798e-07
-3.05452e-07
1.9361e-07
-8.64679e-08
-1.09868e-08
5.00935e-08
-2.66447e-08
-6.12265e-08
-5.08649e-09
-4.21634e-09
-3.32973e-09
-3.93711e-10
-1.95443e-10
-8.16123e-10
-2.57154e-09
-2.44515e-10
2.04339e-11
4.03927e-11
2.29962e-11
-9.92621e-11
-1.22241e-11
-5.17342e-11
-5.80466e-10
-7.51323e-09
-1.05734e-08
-2.21481e-08
-9.60556e-08
-1.15274e-07
-1.0167e-07
-1.00916e-07
-1.14914e-07
2.28804e-07
-1.68104e-06
1.78521e-06
-8.22259e-06
2.29251e-05
-7.8787e-05
0.00011547
-0.0001141
-4.41713e-06
-4.2475e-05
3.29992e-05
-1.27905e-05
-8.73335e-07
1.1074e-05
-8.6543e-07
-4.21985e-06
-5.85764e-07
-4.0954e-07
-1.05099e-06
-4.47735e-07
-2.01768e-07
-6.5475e-08
-2.27972e-08
-1.00216e-08
8.97487e-09
-1.0077e-08
-4.89344e-08
9.87374e-09
-9.7331e-09
-5.44983e-10
9.98745e-11
7.75667e-11
1.80804e-10
-1.73006e-11
-2.5219e-10
4.94558e-10
2.60722e-12
-5.98884e-09
-6.07308e-09
8.80483e-09
6.54435e-09
-8.74829e-08
-4.90488e-09
-8.22069e-08
-8.39548e-08
1.43993e-07
1.18338e-07
-1.05554e-06
-2.62861e-08
-1.0309e-06
-9.57547e-07
2.07361e-06
1.81458e-06
-1.09383e-05
1.83101e-07
-1.10788e-05
-8.43953e-06
2.43779e-05
2.21946e-05
-9.34707e-05
6.11496e-06
-9.76191e-05
-5.06503e-05
0.000218951
0.000205601
-0.000626169
7.16929e-05
-0.000668268
-0.000126213
0.00139046
0.00135015
-0.00303722
0.000471055
-0.00325548
0.000844658
0.00557044
0.00556528
0.00107591
0.00138944
0.000839511
0.0366102
-0.0233017
-0.0245016
0.0286467
0.00758196
0.00208905
-0.0127829
-0.00395677
-0.00247199
0.00255025
-0.00300652
2.20533e-05
0.000628855
-0.00167519
-0.00126562
-0.000188637
0.000197567
2.06545e-05
-1.36295e-05
-1.47429e-05
-1.3913e-06
7.78508e-07
-1.67874e-06
-2.85252e-07
-3.11952e-08
-2.72852e-09
-2.92796e-10
-1.04945e-10
-7.49985e-11
-2.26647e-11
-2.22426e-11
-9.02169e-11
-5.11093e-11
-8.78454e-11
3.27361e-11
2.54772e-11
-1.99842e-11
-2.35851e-11
2.39619e-11
-9.44295e-11
-8.91694e-12
-1.78003e-11
-2.84767e-11
-4.21973e-11
-1.91765e-12
-2.63313e-11
-3.51314e-11
-2.13836e-10
1.01913e-10
4.13166e-11
8.11853e-11
1.54089e-10
5.01468e-11
7.0591e-11
-2.42632e-11
-8.4171e-11
-1.35237e-10
-1.6975e-10
-4.17628e-11
-1.2845e-11
-5.2257e-10
-9.3095e-10
-7.55069e-10
-2.97687e-10
-1.00558e-08
-1.21552e-07
-1.19844e-06
-8.95659e-06
-4.55502e-05
-2.07446e-05
1.07534e-05
-0.000135283
-6.21248e-05
-3.23485e-05
5.27463e-05
-0.000199175
0.000213746
-0.000584505
0.00138401
-0.000135563
-0.00151798
-0.000291423
0.000478913
-4.64285e-05
-0.000154627
8.41208e-06
-2.70064e-06
3.64535e-05
0.000146217
-6.6357e-05
-0.00181573
0.00762063
-0.0038198
-0.00791656
-0.00168386
-0.00413962
-0.0328604
-0.00980088
0.00145875
-0.015454
0.0110266
0.000935224
0.000710095
0.0129074
0.0108799
0.00122092
-0.000937596
0.0136957
0.0124113
0.00117091
-0.00127421
0.0126337
0.0139647
0.00114871
-0.0029834
0.0108651
0.0139608
-0.00513657
0.0106132
-0.00841467
0.00974605
-0.036342
-0.0192106
0.00239349
-0.00875143
0.0126194
-0.000629913
-0.0193101
0.0146743
6.57245e-05
-0.0163324
-0.0166376
-0.0234049
0.00376832
-0.0106789
-0.00815792
0.00886758
-0.00895635
-0.00230989
0.00364573
-0.00166593
-0.000396912
0.000731852
-0.000222299
-5.59605e-05
0.000100146
-2.29025e-05
-6.1005e-06
1.02938e-05
-1.85405e-06
-4.84917e-07
8.35601e-07
-1.20284e-07
-2.7318e-08
5.59915e-08
-6.55283e-09
-8.54721e-10
3.30435e-09
-3.76883e-10
6.00534e-11
2.48332e-10
1.45321e-10
1.76966e-11
4.19751e-11
-2.94111e-10
6.33096e-10
-4.98725e-09
-1.66605e-10
2.21391e-10
-3.66463e-10
-5.15606e-11
-1.80237e-11
4.53232e-11
5.7431e-11
-9.49603e-12
8.0481e-11
6.42506e-11
3.98572e-11
-7.68736e-10
-1.05208e-08
-1.43123e-07
-1.43796e-07
-1.90171e-06
-2.11421e-05
-1.33781e-05
-6.24964e-06
-3.23173e-06
4.23058e-06
-2.01423e-05
-8.61067e-06
-1.10052e-06
-1.26261e-06
-9.39349e-07
-3.96172e-06
2.80265e-06
-2.39506e-07
9.35752e-07
-3.77904e-06
-3.25805e-07
1.12013e-05
-3.84912e-05
-1.21111e-06
0.000106896
-0.000306834
5.39456e-07
0.000758022
-0.00180204
1.71825e-05
0.00366286
3.16691e-05
0.000169209
0.000104157
-1.26029e-05
-5.54736e-05
-6.54956e-06
-1.09259e-06
-2.80111e-07
-4.10776e-08
-3.57268e-09
-2.08503e-10
-2.32649e-11
-4.01368e-11
4.48472e-11
-7.02918e-11
4.69801e-11
1.26186e-10
1.60637e-10
1.12032e-09
7.99133e-09
2.8706e-08
-2.21001e-07
-4.54143e-06
-3.65502e-05
-0.00012448
0.000397094
-0.000211852
-0.000513113
-0.000759896
0.0133872
-0.0144763
0.0140802
-1.81146e-05
-0.00205998
0.00165352
0.00464691
-2.46978e-05
-0.00425751
0.00388344
0.0039394
-2.88475e-05
-0.00450827
0.00413668
0.00356765
-1.31241e-05
-0.00586853
0.00555829
0.00527143
-0.000141205
0.0101728
-0.0106127
0.0107014
-0.010803
-0.000853192
-0.00387479
0.00587177
-0.000472593
-0.00544404
-7.31086e-05
7.45106e-05
0.0180751
-2.10868e-05
-0.0181548
0.0144725
-0.000526043
-0.0149165
0.0153162
-0.000123997
-0.0155039
0.0185342
-5.0808e-05
-0.0181599
0.0110038
-0.0108718
0.0107907
-0.0111647
5.11473e-05
-0.0182676
0.0178092
-2.99328e-05
-0.0153131
-0.000848416
0.0149743
-0.0135033
-0.000299442
0.0238146
0.00893282
0.0185374
0.00703665
-0.00421718
0.00532377
0.00121381
-0.00175847
0.00119675
0.00022354
-0.000339533
0.000183252
3.50714e-05
-4.47239e-05
2.18072e-05
3.39823e-06
-3.90826e-06
1.74805e-06
2.66667e-07
-2.68011e-07
1.24216e-07
1.16146e-08
-1.16982e-08
6.55713e-09
3.7361e-10
-3.95943e-10
3.65291e-10
-4.14765e-11
-7.04935e-11
-8.101e-11
-3.8132e-11
1.27313e-10
-6.61217e-11
-1.32373e-10
3.95723e-11
2.51911e-11
-4.64425e-11
-1.25016e-11
1.78701e-11
2.29717e-12
2.06243e-11
5.10191e-11
6.394e-11
2.81053e-11
5.29976e-11
2.1676e-11
-8.59878e-11
-2.9522e-11
2.67636e-11
5.53357e-10
4.10236e-10
-2.94695e-10
3.42421e-10
6.44612e-09
6.45235e-09
6.28407e-09
-4.83624e-09
1.8331e-09
7.59485e-08
7.63492e-08
4.49043e-08
-2.27427e-07
1.5445e-07
1.01458e-06
3.93636e-07
-3.24393e-06
1.48276e-06
1.12948e-05
2.34621e-06
-3.64423e-05
1.02925e-05
0.000100833
7.57332e-06
-0.000307838
5.46077e-05
0.000687096
-9.69969e-06
-0.00188341
0.000173494
0.00337732
-0.000214865
-0.00800512
8.43191e-05
0.00082386
-0.00468711
0.00769858
3.20869e-05
0.00265382
0.000266541
-0.00113191
0.00192344
2.38285e-06
0.000527351
6.16725e-05
-0.000185417
0.000331898
3.87642e-06
7.67006e-05
1.00159e-05
-2.13866e-05
4.2133e-05
1.24043e-06
8.38958e-06
1.25764e-06
-1.81003e-06
4.1282e-06
2.16117e-07
7.24743e-07
1.24352e-07
-1.15221e-07
3.29149e-07
2.64132e-08
5.11434e-08
1.06144e-08
-5.5537e-09
2.25154e-08
2.48647e-09
3.17895e-09
7.57974e-10
-2.42474e-10
1.43378e-09
2.62248e-10
2.03154e-10
1.23553e-11
1.13203e-12
-4.95129e-11
6.77615e-11
-2.89925e-12
-1.94826e-10
6.79958e-11
1.18362e-10
-1.38219e-10
-2.04285e-10
-1.33852e-10
-3.02938e-11
3.78737e-12
5.90116e-10
5.02403e-10
4.32245e-10
-1.77729e-10
1.76197e-10
5.15892e-09
3.98519e-09
-1.32078e-08
1.32991e-08
-1.03186e-08
-5.45358e-10
-6.71973e-11
-6.36882e-10
7.85621e-10
4.42975e-11
2.13938e-10
-9.11603e-11
1.64038e-10
1.75976e-10
4.92536e-11
2.25047e-11
2.09547e-11
-7.569e-11
-4.19551e-11
-2.66726e-11
-1.87337e-11
-7.39099e-11
-1.65764e-10
-2.64527e-09
-2.2594e-09
1.16848e-08
-2.07497e-08
-2.5163e-09
-1.1925e-08
-1.01974e-09
-4.6446e-10
-1.46025e-09
-3.38758e-10
4.2976e-09
-2.17445e-08
-4.62259e-09
6.64233e-08
-3.06541e-07
-4.62918e-08
-5.63153e-08
-2.79594e-08
-2.59662e-08
-2.30823e-07
-1.27982e-06
-1.44521e-06
-5.77493e-08
-1.69489e-08
-2.1225e-09
-4.11847e-09
2.45144e-08
2.30126e-09
1.25012e-09
5.70704e-09
-1.35268e-08
1.64798e-08
-4.52708e-08
2.38507e-07
-6.9846e-07
1.73858e-07
2.04198e-08
3.99608e-08
5.40975e-08
1.5622e-08
2.2128e-09
3.18214e-09
3.37172e-09
1.76741e-09
1.23485e-09
3.77945e-09
5.09579e-09
-9.88333e-09
8.17236e-08
8.07743e-08
-7.90054e-08
3.57353e-08
7.40244e-07
1.15351e-06
9.60986e-07
-1.65346e-06
-1.6917e-07
9.37041e-06
1.16505e-05
8.19407e-06
-1.96747e-05
-6.15742e-06
7.78767e-05
9.32326e-05
5.26721e-05
-0.000181766
-6.9401e-05
0.000475595
-0.00116769
-0.000405686
0.00212144
-0.00519944
-0.00129399
-0.000336519
9.29704e-07
1.9558e-05
9.16314e-06
2.18101e-06
3.47753e-07
4.12135e-08
3.91027e-09
4.40942e-10
5.5809e-11
1.99064e-10
2.41245e-10
1.66838e-10
2.03304e-10
7.57329e-11
9.02139e-10
7.95156e-10
8.42764e-11
2.32518e-10
2.3582e-10
3.64571e-11
7.73171e-11
1.03843e-11
2.12559e-11
5.33873e-11
2.14968e-10
1.24185e-10
-7.14747e-10
9.2216e-10
1.23624e-09
4.9227e-10
-3.91566e-11
-4.81493e-11
-1.04818e-10
-2.35938e-11
4.58237e-11
1.14652e-10
1.15123e-10
-1.36036e-11
1.43328e-09
1.05415e-08
6.88117e-09
4.03182e-10
8.28737e-12
-1.17252e-10
3.81703e-10
-1.7481e-10
4.05083e-10
4.08627e-09
6.82153e-09
6.40031e-09
-6.43974e-09
5.04701e-09
9.66482e-08
8.69669e-08
-1.06792e-07
1.91753e-08
9.79363e-07
1.08495e-06
9.45795e-07
-1.66109e-06
-4.77674e-07
9.3114e-06
-2.02402e-05
-7.51014e-06
7.60161e-05
4.93949e-05
8.8533e-06
1.17195e-06
1.20406e-07
1.00802e-08
1.40105e-09
4.8676e-10
6.48513e-11
6.27597e-10
-1.22905e-10
-5.8786e-10
-1.19599e-09
-1.44581e-09
-7.13342e-10
-4.68474e-09
-1.14307e-08
-6.53522e-09
-1.35617e-07
-8.55058e-08
-1.32099e-06
-9.54411e-07
-1.80083e-06
-1.94482e-05
-0.000168535
-0.000188648
-0.00124804
-0.00106891
-0.00054984
-0.00541018
-0.0196326
-0.000185816
-0.0332491
-0.0257953
-0.0218928
-0.0144989
-0.0122367
0.00436712
-0.0101599
0.000709842
0.00350881
0.00115377
0.000766363
0.0140307
-0.0147859
0.0146257
0.000313385
-0.00166627
0.00272257
0.00549864
0.000205649
-0.00378735
0.00501026
0.00496793
0.00015475
-0.00408455
0.00516626
0.00467568
0.000155945
-0.00561068
0.00620026
-0.00013551
0.000333406
-0.000211579
0.000564618
-0.00275034
-0.00384492
0.000488421
0.00201492
-1.99792e-05
-0.000111126
0.00118927
2.54631e-05
-0.00194559
0.00402273
0.00010489
-0.00760131
0.00465561
-0.00282825
0.00205687
-0.00142134
-0.00600577
-0.000154958
-0.00981099
0.0127178
-0.0108743
0.00657376
3.21613e-05
-0.00646749
3.64947e-05
0.00641906
-1.67595e-05
-0.00644805
-1.87319e-05
0.00647306
-4.21011e-05
-0.00653645
0.0111313
-0.0127136
0.00135417
-0.0148529
0.0204172
0.00121799
0.00074904
-0.0100316
0.00963693
-0.01056
3.44424e-05
-0.00559668
0.00499946
0.000229521
-0.00668474
0.00463614
-0.00652569
0.000945911
0.0148892
-0.00718404
0.003488
0.000343786
-0.0067024
0.00507749
-0.000187152
-7.32236e-05
-9.16668e-06
4.95581e-05
-1.01309e-05
-8.01333e-06
-2.16811e-06
-3.60449e-07
-4.30534e-08
-4.09004e-09
-4.59211e-10
-6.85662e-11
-1.50941e-10
-7.35761e-11
-3.21831e-11
-1.04414e-11
-7.09653e-11
-1.94795e-11
-2.68793e-11
-1.69746e-10
-1.5319e-10
-1.41952e-10
-6.45704e-11
-8.33445e-11
3.00027e-11
1.48784e-11
-2.10737e-11
-2.3764e-11
-2.0572e-11
7.67148e-11
-4.14608e-11
-1.25409e-12
-2.10702e-12
-3.1467e-11
-1.29845e-10
3.88193e-11
-1.22584e-10
-2.3938e-10
2.35661e-10
-3.7686e-11
3.33817e-11
1.99159e-11
-3.39381e-11
-4.90721e-11
4.2537e-11
-2.86761e-12
-1.22193e-11
-2.5708e-10
-3.72008e-10
-2.91159e-10
-1.31856e-10
1.99901e-10
9.22577e-11
2.40638e-10
-6.60168e-10
-1.04019e-08
-1.49021e-07
-1.90138e-06
-2.03801e-05
-0.000173656
-0.00110337
-0.00108172
-0.00488712
-0.00533113
-0.0160318
-0.0246144
-0.0229303
-0.0229676
0.00866786
-0.00931426
-0.0083609
-0.00902479
-0.023985
-0.0248941
-0.0233403
-0.0233054
-0.0224779
-0.0233141
-0.0268611
0.00887267
0.0014716
-0.000130048
0.0233166
-0.00430786
-0.0202461
-0.0169084
-0.0040391
-0.00484512
-0.0155535
-0.0156692
0.000703728
-5.71536e-05
0.000947575
0.000205231
2.70653e-05
2.52603e-06
1.78601e-07
8.17155e-08
2.62188e-09
2.75756e-09
-2.92263e-11
5.40305e-10
-4.19619e-09
-7.35856e-08
-1.08281e-06
-1.28798e-05
-0.000118845
-0.000826478
0.000909896
0.000732333
0.00073334
0.000145065
1.7911e-05
1.47154e-06
1.46708e-06
8.27951e-08
1.77516e-07
1.0207e-08
5.21759e-09
1.27263e-08
-7.42976e-08
2.18473e-07
-9.92464e-07
2.9221e-09
1.07853e-07
-7.74643e-08
-2.13068e-09
-1.4975e-08
-1.00892e-08
-6.13519e-09
-5.70553e-09
-8.20849e-10
-1.02968e-10
-1.08775e-11
-3.94486e-10
-1.44942e-09
-1.20647e-09
-2.01626e-12
-2.74647e-10
3.67335e-11
-2.87405e-11
-5.04931e-11
-9.2039e-11
-3.81176e-11
-1.67168e-10
-1.24117e-10
-8.03456e-12
-1.28177e-11
6.71023e-12
1.15623e-11
3.39002e-12
3.71914e-11
7.67671e-11
9.53966e-11
5.65354e-11
-1.09025e-13
-2.30802e-11
-2.18485e-11
3.2662e-11
2.9197e-10
7.3864e-11
1.88968e-10
6.01295e-11
1.45653e-10
1.53983e-10
1.17799e-09
4.64758e-10
-5.08697e-12
1.30994e-11
-7.05619e-10
-5.46519e-10
-2.59265e-09
-5.21524e-09
-3.90558e-09
-6.22875e-08
-4.5212e-08
-1.21647e-07
-8.37126e-08
-1.19683e-06
-9.45188e-07
-9.53161e-07
1.73019e-06
3.15982e-06
-1.12813e-05
3.64178e-05
-0.000104201
7.58942e-06
2.13526e-05
-9.99626e-06
4.33122e-07
-1.07558e-06
-6.0322e-07
-3.92655e-07
-4.43398e-06
-2.1639e-06
-8.96652e-06
-8.2782e-06
-9.77305e-06
-8.27501e-06
-4.98512e-05
-4.98283e-05
-0.000144923
-0.000124093
-5.57955e-05
0.000358698
4.57834e-05
-4.61284e-06
-4.55736e-06
-1.043e-06
-1.46353e-07
-1.50102e-08
-1.77169e-08
-7.37725e-09
-4.9197e-08
-1.71712e-07
-6.61801e-08
-4.0952e-07
-1.23114e-06
-4.41224e-07
-2.79117e-09
-9.69482e-10
-6.20812e-09
5.35267e-09
6.91657e-09
-8.51732e-11
-5.41567e-10
1.95825e-10
4.89887e-08
-2.45596e-06
-5.55942e-06
-1.91848e-06
-9.08854e-06
-7.76099e-06
-3.94048e-06
-1.17908e-05
6.02812e-05
5.58087e-05
-0.000161253
-0.00236301
-0.00186626
-8.68357e-05
0.00035352
0.000406743
3.9005e-05
-0.00463818
-0.00012623
-1.91015e-05
0.000170029
-0.000320173
0.000123999
0.0145539
-9.20094e-05
-0.0143875
-1.78141e-05
-0.000165593
-0.0134396
-0.000400061
-0.000370039
-0.0104108
-0.00686755
-0.0102376
-0.0233513
0.00315839
0.00595539
0.000429195
-0.000350505
-0.000327772
-0.000550315
-0.000209944
-0.0132014
0.0137162
-0.000198298
-0.00335375
0.00122024
0.00418708
-0.000116161
-0.00564928
0.00331468
0.00337413
-9.73276e-05
-0.00578773
0.00359806
0.00299295
-0.000134913
-0.00533742
0.00120755
-0.0101319
0.00586806
0.008854
-0.00887374
0.00205559
0.000515798
-0.000328443
1.29369e-05
2.42388e-05
1.08544e-05
2.55497e-06
4.05675e-07
4.79466e-08
4.53371e-09
1.75578e-08
1.56416e-08
1.1764e-08
8.40788e-08
-2.20558e-07
1.2571e-07
1.10372e-06
-3.03159e-06
2.98355e-06
-8.85015e-06
3.077e-05
-8.74404e-05
9.9614e-06
-3.51381e-06
3.48528e-06
8.4576e-06
1.5371e-06
-1.27234e-08
4.21831e-07
7.48862e-07
2.86815e-07
3.03225e-07
7.14731e-07
2.35135e-07
-2.66765e-06
1.24323e-05
8.40427e-06
-1.74057e-05
-5.21793e-06
7.04163e-05
9.89874e-05
5.40919e-05
-0.000174291
-6.33889e-05
0.000592442
0.00023939
-0.00112733
-0.000409318
0.00211623
0.00274646
0.000605202
-0.00606967
-0.00131726
-0.00503787
-0.00596479
0.000645573
0.00266623
0.00218632
-0.00493227
-0.00128439
-0.000334963
0.000526215
0.000204768
5.3487e-05
9.62291e-06
1.26344e-06
1.2773e-07
8.49993e-08
8.41178e-07
2.0669e-07
7.8864e-08
1.28654e-06
3.41844e-07
1.21924e-05
-3.34534e-05
7.34958e-06
0.000108286
-0.000283101
0.000250642
-0.000639748
0.00153694
-0.00321571
1.72937e-05
-0.000443318
8.75585e-05
0.000529214
4.1105e-05
-5.76554e-05
2.14196e-05
7.57145e-05
1.42415e-05
2.2772e-05
5.06628e-05
-1.20429e-05
-0.000185933
0.00076165
0.000215784
-0.00106952
-0.00042368
0.00225998
0.00277036
0.000621538
-0.00636045
-0.00135965
-0.00460839
-0.00864719
0.000358269
0.00360486
-0.000692652
0.00326201
-0.0006242
0.00155535
0.0027217
0.00114394
0.000714244
0.00286285
-0.00112181
0.000141003
0.00120044
0.000272981
4.62839e-05
6.33989e-06
6.85587e-07
5.91929e-08
4.23878e-09
2.61009e-10
-4.71207e-12
-3.68009e-11
-2.62022e-11
1.32039e-11
1.03529e-11
2.7139e-11
4.57195e-10
8.12542e-11
1.14179e-11
2.14647e-11
4.43465e-11
2.73122e-10
6.03317e-10
4.66685e-10
-3.1346e-10
3.9828e-10
7.27466e-09
6.59546e-09
-5.61978e-09
4.45099e-09
8.36011e-08
8.86103e-08
8.55014e-08
-1.0251e-07
-8.03151e-09
9.17537e-07
-1.77135e-07
-8.47954e-08
-1.6191e-07
-2.84162e-09
-9.89931e-09
1.09368e-08
1.00317e-08
6.83089e-10
-1.25035e-10
-1.14004e-11
-7.34447e-12
-1.69525e-10
-4.85814e-11
1.00739e-10
-4.56817e-12
9.0915e-11
4.92163e-10
5.49238e-09
5.59742e-09
-4.09747e-09
5.33695e-09
5.74072e-08
9.36294e-08
8.58162e-08
-1.1067e-07
2.77542e-08
1.15464e-06
9.52472e-07
-1.64649e-06
-2.50093e-07
9.71404e-06
1.12062e-05
8.17855e-06
-2.57116e-05
-1.5906e-05
-1.42732e-06
-2.27695e-06
1.70736e-06
1.66541e-06
1.36882e-07
1.54741e-09
-4.76478e-09
3.10869e-10
-7.73678e-11
5.03152e-10
-2.16451e-10
-3.81267e-10
3.70698e-09
8.75811e-09
-3.85283e-09
-3.68654e-09
7.20385e-08
2.24801e-08
5.99179e-08
4.60868e-08
1.10353e-06
9.439e-07
-1.33676e-06
-8.28007e-08
8.04697e-06
1.19426e-05
8.39661e-06
-1.95951e-05
-5.65257e-06
9.48246e-05
5.26675e-05
-0.000175583
-6.5326e-05
0.00047929
0.000595335
0.000237358
-0.00138769
0.000192266
1.28913e-05
5.73511e-06
2.27647e-06
8.81797e-09
-3.77236e-09
-8.24128e-10
-8.73273e-11
-7.35378e-09
-1.77031e-08
-1.71651e-07
-1.47417e-07
-2.76726e-08
-2.32327e-07
-1.36103e-06
-5.02994e-06
-5.64257e-06
-1.23498e-06
-4.47493e-07
-6.62918e-08
-5.5488e-08
-6.06389e-09
-4.34351e-09
1.94718e-08
-5.41976e-11
-1.9743e-08
8.79317e-08
-1.16537e-09
-2.83385e-07
2.79113e-07
-8.86406e-08
7.12344e-08
-2.47066e-08
-3.19692e-07
2.08901e-07
-9.0608e-08
1.30174e-08
-2.13362e-09
-2.29477e-08
4.57707e-09
-6.09474e-09
6.02972e-09
-4.76459e-09
1.91919e-09
-1.34595e-08
2.27899e-08
3.69715e-09
-7.29452e-08
2.28277e-08
-2.15158e-07
3.18976e-07
3.67122e-08
-9.99924e-07
2.03714e-07
-2.9472e-06
3.84101e-06
-3.51477e-06
3.47428e-06
-1.20028e-08
1.13852e-06
-1.14717e-06
-4.27733e-08
9.81065e-07
-2.24912e-07
-3.85246e-06
2.88972e-06
-1.18137e-06
-1.14324e-07
-3.24172e-07
1.11115e-07
-2.68369e-08
5.46511e-08
-1.1008e-08
-2.22666e-08
5.36187e-09
-2.48512e-09
3.10527e-09
-6.22974e-09
7.08224e-10
-2.32984e-10
-1.51633e-09
-3.04727e-10
1.23756e-09
6.35901e-11
-1.28107e-09
2.68118e-10
1.41941e-09
7.64933e-11
-7.6706e-10
6.20804e-09
-3.25774e-09
8.27675e-10
1.04675e-09
2.1205e-10
4.18063e-11
-1.23647e-11
-9.56888e-12
7.32024e-11
-3.19829e-11
2.3136e-11
-6.23692e-12
2.77532e-11
-6.05614e-11
-8.18141e-11
-5.06766e-11
-8.10129e-11
-8.46122e-11
-2.74345e-12
-1.05001e-10
-3.21898e-11
-3.2177e-11
2.32458e-10
-3.90458e-10
3.94998e-10
-3.35704e-10
4.68885e-10
-1.30601e-10
1.31178e-10
1.1466e-10
7.60026e-11
-4.13034e-11
1.182e-11
6.36206e-14
2.20153e-10
2.42251e-09
-9.73627e-11
-9.28683e-10
-7.13544e-09
-3.75335e-07
-3.13096e-07
-1.244e-05
-8.45268e-08
-3.56299e-05
3.54069e-05
-3.7959e-05
3.21784e-05
-1.39953e-06
1.13234e-05
-1.28676e-05
-9.10885e-07
-4.08664e-06
1.78188e-06
-2.20943e-07
8.55715e-07
-7.15421e-07
-1.25028e-07
-1.18781e-07
2.4919e-07
-2.46247e-07
-1.77385e-06
3.95371e-06
-3.38622e-06
-2.10347e-05
4.60528e-05
-3.23891e-05
-0.000186958
0.000382796
-0.000223241
-0.00125105
-0.000622911
-0.000134107
-0.00010817
-1.65336e-05
-1.41391e-05
-1.78059e-06
-1.45174e-06
-1.58229e-07
-1.20328e-07
-1.2258e-08
-1.26244e-08
1.11128e-08
-5.05444e-08
-1.06216e-08
-6.62657e-09
3.79497e-10
-4.35487e-10
-9.44411e-10
-8.95693e-09
-6.9217e-10
-4.91791e-10
-8.45695e-10
2.44103e-10
-2.58408e-10
-1.39018e-09
-8.08871e-10
-1.05424e-09
-2.35491e-10
-5.39349e-11
5.23345e-11
-3.37007e-11
3.21249e-11
-7.66651e-11
-3.6811e-13
-7.34888e-11
-8.87015e-11
-3.22206e-11
-5.56181e-11
-2.15614e-10
1.69808e-10
-4.42361e-10
-2.36978e-11
-9.24288e-11
-1.39329e-10
-2.65906e-10
-2.68191e-09
-2.50284e-09
-2.17513e-08
-1.12265e-07
2.69958e-07
-1.15991e-06
-4.2027e-05
2.15869e-05
-8.3932e-06
1.09801e-05
-9.24239e-07
-1.22148e-07
-1.21601e-08
-5.15011e-09
-3.00428e-08
-2.67781e-07
-1.62777e-06
-4.31736e-06
-4.98551e-06
-0.000111474
-4.54678e-06
-0.000291009
0.000272035
-0.000334367
0.000191458
-1.57399e-06
0.000109098
-7.79e-05
-9.45789e-06
-1.06504e-05
2.52901e-05
1.76097e-05
0.000141547
0.000187185
0.000196319
0.00031906
-0.000745993
0.000145041
-6.16836e-05
-2.23848e-05
-5.50941e-07
-4.65484e-05
-5.06811e-05
-8.59601e-05
-0.000138258
-0.000155483
-0.000576669
7.68908e-05
-8.67952e-06
-4.40113e-06
-7.52331e-09
4.23e-05
5.92084e-05
-8.45435e-06
-4.3525e-06
-1.99566e-06
-1.62162e-06
2.27925e-07
4.81911e-07
6.33902e-07
4.9712e-08
-3.65744e-07
3.63847e-07
4.97923e-08
6.45152e-08
1.70089e-07
1.55432e-07
1.1642e-06
1.08868e-06
1.62841e-07
2.94448e-08
2.98428e-08
-5.68672e-08
-1.22035e-07
-5.45036e-09
3.44705e-09
3.42376e-10
4.98154e-10
7.11792e-11
4.04238e-09
-4.20981e-07
2.21312e-07
1.36153e-06
-1.57209e-06
-4.03965e-06
2.55287e-06
5.30713e-06
5.78205e-06
7.79522e-07
0.00073444
-0.00174181
0.000121477
0.00353501
8.11234e-05
4.01522e-06
1.75751e-05
0.000854202
-0.0011237
0.0104172
-0.0100059
0.0206438
0.00250882
0.00971345
-0.0106336
0.010164
-0.00850656
0.00724478
0.00829255
-0.00895066
0.00159564
-0.0102261
0.00775611
0.00793796
0.0139135
-0.0011771
-0.000812283
-0.00192425
-0.000349786
-0.00501165
-0.000252956
-3.87782e-05
-3.12151e-06
2.54317e-06
-1.16897e-06
-1.38687e-06
1.93465e-06
2.23637e-07
5.41874e-06
2.64745e-07
1.33987e-05
-6.68518e-06
0.000118372
3.30939e-05
6.26278e-06
-2.7576e-05
0.000111665
5.34112e-05
-0.000164305
-6.38233e-05
0.000472775
0.000622923
0.000241046
-0.00111164
-0.000402158
-0.00136752
0.000206131
5.34577e-05
6.02366e-06
5.93539e-06
1.62421e-05
3.71681e-05
6.33582e-06
7.39914e-06
2.40491e-06
4.67287e-07
1.23831e-06
1.29532e-06
1.34105e-07
1.13752e-08
-8.36583e-09
-1.66754e-09
7.68252e-08
6.57101e-11
5.76774e-09
-4.07366e-10
-7.65314e-11
4.82825e-10
-8.42336e-11
2.44933e-11
-1.33434e-10
6.28085e-10
-7.2162e-08
-3.61773e-08
-1.03955e-07
1.37445e-07
-9.22044e-08
-1.87958e-07
1.04293e-06
1.84454e-06
-1.55032e-06
-2.01452e-06
1.14335e-05
3.01941e-06
6.58289e-06
-2.27883e-07
-2.70226e-05
-1.75306e-05
9.26599e-05
0.000152892
1.95265e-05
-1.09766e-06
-1.78335e-06
-1.33149e-06
-2.12022e-06
1.65395e-05
-1.5321e-05
-2.31022e-05
-1.55491e-05
7.69581e-05
0.000122424
-0.000132313
-0.000218184
-0.000127008
-0.000270014
0.000562465
0.000154012
0.000408393
-6.89395e-05
-0.00185917
-0.000401211
0.000826019
0.00275169
0.00527296
0.00926924
0.021916
0.0118365
0.017422
-0.00235866
-0.000716081
-0.00144325
0.000610285
0.00185633
0.00455509
0.011387
0.0168023
-0.00213758
-0.000607221
-0.000120275
0.000484425
-0.00021619
0.000118174
1.64771e-05
0.000567444
0.00169932
0.00428029
0.0103568
0.0170333
-0.00217408
-0.000605097
-0.000120101
-0.000221309
-0.000159213
-2.29501e-05
-2.36121e-06
1.03603e-06
7.22252e-08
3.97506e-09
8.97467e-10
2.7616e-08
1.14946e-05
9.27515e-05
0.000510354
-0.000743021
-0.00223071
0.00433486
0.00947585
0.019108
-0.00258175
0.0060186
0.0024523
0.000817583
-0.000111771
-6.80273e-05
-1.0177e-06
4.86645e-06
1.482e-06
2.46597e-07
2.83371e-08
2.54786e-09
-8.50685e-11
-1.81212e-11
-4.50486e-10
3.91459e-10
2.14143e-11
3.81942e-11
1.1681e-10
7.20226e-11
3.02687e-10
2.52279e-09
1.19952e-08
1.07281e-08
-5.6631e-08
9.12087e-08
2.59423e-08
5.40171e-09
6.83992e-09
6.14428e-10
1.71542e-08
1.45192e-08
5.17132e-09
3.75866e-10
1.43975e-11
-7.00546e-10
9.96905e-10
6.16044e-08
1.40812e-07
4.98603e-08
6.31785e-08
1.64501e-07
1.18794e-06
4.51682e-07
3.50199e-07
2.17734e-07
1.32024e-06
-3.09517e-08
-5.83605e-08
-2.97286e-06
-2.39942e-06
0.000279783
-4.16492e-07
-0.000280286
0.000712736
-2.52163e-06
-0.00162348
0.00162205
-0.000714616
0.000714023
1.01826e-06
-0.00165129
0.00164657
-0.000732745
-1.51507e-05
0.000797594
-0.000551944
-4.81903e-05
-4.76209e-05
-4.01728e-06
1.09808e-05
9.26613e-05
0.000234404
-0.000930135
-0.00236535
-0.00367471
-0.000386361
-0.000756275
-0.000434031
3.99047e-05
0.000196253
7.04515e-05
3.04731e-06
-5.10623e-06
-1.96583e-06
-1.7484e-06
0.000103703
-0.000107882
0.000107489
-0.000103942
4.45355e-06
-0.000269358
0.000290373
3.21526e-06
-0.000712727
1.05824e-06
-0.00161889
0.00164955
-2.23224e-06
-0.00348518
0.00348018
-0.00389295
4.0294e-05
-1.92782e-05
-5.74621e-06
5.70334e-07
1.6386e-06
5.51147e-06
5.23749e-05
-0.000218929
0.000603463
-0.0023723
0.0366647
-0.00100451
-7.70621e-05
-0.000543781
-0.00955404
0.00299229
0.00615532
0.000489628
-8.48459e-05
-0.00390113
-0.000155468
2.3929e-05
1.21732e-06
8.92831e-06
9.20719e-06