/*--------------------------------*- C++ -*----------------------------------*\
| =========                 |                                                 |
| \\      /  F ield         | OpenFOAM: The Open Source CFD Toolbox           |
|  \\    /   O peration     | Version:  2306                                  |
|   \\  /    A nd           | Website:  www.openfoam.com                      |
|    \\/     M anipulation  |                                                 |
\*---------------------------------------------------------------------------*/
FoamFile
{
    version     2.0;
    format      ascii;
    arch        "LSB;label=32;scalar=64";
    class       volScalarField;
    location    "0.2";
    object      gradTz;
}
// * * * * * * * * * * * * * * * * * * * * * * * * * * * * * * * * * * * * * //

dimensions      [0 -1 0 1 0 0 0];

internalField   nonuniform List<scalar> 
5322
(
-0.820305
-0.794942
-0.750278
-0.812477
-0.724552
-0.646256
-0.577568
-0.519859
-0.474597
-0.444238
-0.419377
-0.413449
-0.309088
-0.427238
-0.468079
-0.376361
-0.444378
-0.335196
-0.476601
-0.491423
-0.511916
-0.527416
-0.553351
-0.580754
-0.614045
-0.640956
-0.681198
-0.720074
-0.766327
-0.80242
-0.852842
-0.897613
-0.944719
-0.971651
-0.970212
-0.824057
-0.955534
-0.958235
-0.988277
-0.710188
-0.917477
-0.946976
-0.69686
-0.947878
-0.93846
-0.708845
-0.961381
-0.908148
-0.700501
-0.943236
-1.06724
-0.744039
-1.02625
-0.935765
-0.856165
-0.887684
-1.07624
-0.872287
-0.861567
-0.887052
-1.08842
-0.884023
-0.861658
-0.865273
-1.08807
-0.914717
-0.858139
-0.822415
-1.06488
-0.97385
-0.712674
-1.08262
-1.0307
-1.01571
-1.02597
-1.02101
-1.02039
-1.01729
-1.03197
-0.980941
-0.942911
-0.742918
-0.770268
-1.01568
-0.674991
-0.911097
-1.27658
-0.804356
-0.815351
-0.719907
-0.899939
-0.724947
-0.764366
-0.760507
-0.948518
-0.861378
-0.838426
-0.873318
-1.29859
-0.781783
-0.789728
-0.730866
-0.8801
-0.937778
-1.02191
-0.814612
-0.860367
-0.817941
-0.732024
-0.655303
-0.586129
-0.526752
-0.478727
-0.445729
-0.488853
-0.477069
-0.334888
-0.362253
-0.486701
-0.398855
-0.352569
-0.427541
-0.421548
-0.593173
-0.442266
-0.580837
-0.41756
-0.435997
-0.570902
-0.415883
-0.426813
-0.576114
-0.422345
-0.418892
-0.578735
-0.428267
-0.421447
-0.594251
-0.442705
-0.581017
-0.418683
-0.353804
-0.398957
-0.357222
-0.335535
-0.486821
-0.362316
-0.359845
-0.331168
-0.3334
-0.486232
-0.360342
-0.358961
-0.331419
-0.3341
-0.486071
-0.360994
-0.35702
-0.353628
-0.468068
-0.375852
-0.445017
-0.526711
-0.526564
-0.329527
-0.476811
-0.335282
-0.450858
-0.306506
-0.413889
-0.427805
-0.397538
-0.415241
-0.478857
-0.396558
-0.496853
-0.493284
-0.487777
-0.402259
-0.487
-0.514672
-0.515612
-0.530012
-0.434791
-0.530677
-0.556397
-0.557008
-0.581429
-0.475551
-0.582035
-0.614015
-0.614489
-0.645505
-0.5273
-0.646433
-0.685125
-0.685989
-0.721106
-0.589637
-0.722696
-0.768274
-0.769945
-0.806438
-0.661033
-0.808864
-0.859895
-0.862736
-0.899789
-0.736815
-0.903488
-0.941736
-0.944535
-0.87153
-1.29899
-0.781826
-0.779217
-0.733289
-1.01903
-1.01643
-0.764421
-0.761017
-0.946018
-0.868355
-0.829342
-0.880918
-1.29591
-0.786416
-0.778747
-0.734834
-0.868175
-0.942801
-0.837981
-0.84341
-0.816478
-0.732042
-0.655776
-0.586523
-0.526995
-0.478849
-0.445761
-0.488873
-0.477228
-0.33351
-0.332547
-0.332292
-0.333464
-0.486015
-0.358929
-0.360882
-0.361851
-0.426731
-0.602184
-0.359025
-0.486051
-0.360803
-0.598768
-0.434779
-0.569097
-0.415639
-0.36195
-0.426708
-0.569232
-0.304427
-0.41007
-0.396802
-0.396347
-0.415387
-0.492965
-0.48788
-0.515377
-0.530054
-0.556946
-0.581405
-0.614561
-0.645499
-0.686221
-0.72109
-0.770486
-0.80622
-0.863861
-0.898864
-0.95075
-0.860665
-1.29896
-0.876881
-0.838199
-0.93962
-0.90579
-0.737276
-0.859742
-0.809985
-0.661416
-0.768719
-0.723142
-0.589896
-0.685638
-0.646554
-0.527449
-0.614473
-0.581977
-0.475624
-0.556923
-0.530403
-0.43481
-0.515413
-0.486493
-0.402162
-0.49754
-0.404231
-0.497009
-0.487014
-0.402174
-0.493453
-0.415306
-0.478799
-0.396724
-0.308087
-0.428798
-0.376519
-0.499015
-0.488639
-0.514448
-0.53285
-0.556787
-0.583341
-0.615342
-0.647169
-0.687685
-0.722769
-0.773724
-0.805618
-0.870974
-0.890923
-0.954459
-0.865853
-1.28204
-0.916888
-0.809823
-1.01782
-0.975617
-0.714712
-0.927717
-0.869367
-0.641018
-0.826559
-0.773868
-0.570787
-0.735227
-0.691187
-0.510051
-0.658496
-0.622744
-0.460097
-0.596564
-0.568634
-0.421164
-0.552052
-0.52672
-0.390115
-0.526622
-0.444974
-0.467988
-0.413813
-0.436201
-0.381522
-0.452287
-0.305676
-0.348946
-0.399524
-0.367279
-0.51036
-0.508594
-0.490254
-0.487231
-0.401013
-0.49342
-0.500782
-0.38225
-0.480638
-0.424878
-0.407196
-0.399875
-0.580996
-0.466773
-0.44261
-0.59697
-0.43395
-0.405025
-0.410515
-0.398999
-0.497528
-0.486516
-0.418079
-0.515774
-0.530415
-0.557203
-0.58199
-0.492546
-0.614968
-0.646184
-0.686691
-0.721822
-0.612339
-0.770806
-0.806849
-0.863173
-0.900469
-0.76159
-0.764973
-0.687251
-0.68757
-0.61551
-0.613705
-0.7738
-0.807207
-0.660662
-0.814754
-0.855398
-0.86859
-0.895934
-0.735279
-0.914365
-0.928563
-1.03985
-0.836792
-1.28512
-0.799724
-0.762029
-0.755045
-0.98711
-0.721762
-0.648165
-0.924923
-0.599994
-0.843426
-0.818564
-0.53263
-0.763851
-0.723309
-0.47319
-0.685472
-0.646127
-0.423098
-0.612158
-0.577889
-0.382056
-0.556118
-0.527423
-0.350912
-0.511121
-0.488635
-0.329213
-0.479019
-0.363386
-0.350213
-0.440774
-0.388637
-0.438454
-0.470149
-0.5247
-0.549784
-0.569893
-0.600188
-0.582121
-0.583513
-0.474588
-0.558159
-0.557836
-0.532337
-0.434112
-0.530501
-0.449349
-0.425802
-0.396233
-0.351581
-0.411307
-0.397544
-0.381209
-0.44531
-0.443262
-0.41908
-0.415773
-0.320763
-0.52384
-0.290604
-0.392876
-0.421113
-0.420439
-0.448839
-0.480065
-0.473756
-0.519331
-0.528965
-0.489134
-0.509944
-0.458182
-0.527895
-0.559408
-0.631857
-0.664754
-0.706999
-0.741932
-0.724753
-0.723331
-0.588921
-0.686748
-0.688294
-0.647616
-0.526343
-0.647164
-0.549049
-0.521026
-0.468033
-0.415303
-0.485766
-0.479485
-0.458859
-0.441647
-0.425889
-0.408736
-0.480442
-0.419657
-0.377893
-0.45892
-0.445789
-0.421002
-0.413826
-0.39185
-0.379103
-0.382802
-0.334415
-0.426862
-0.421722
-0.487635
-0.417343
-0.515748
-0.514993
-0.530785
-0.434896
-0.529961
-0.447753
-0.557162
-0.556759
-0.582078
-0.475781
-0.581681
-0.491547
-0.614608
-0.614797
-0.64617
-0.527723
-0.646326
-0.546636
-0.68597
-0.686769
-0.72176
-0.590325
-0.7229
-0.611288
-0.769124
-0.771479
-0.806317
-0.661916
-0.809928
-0.683578
-0.859235
-0.865143
-0.898486
-0.737183
-0.905348
-0.758593
-0.939452
-0.948377
-0.870329
-0.836708
-0.870581
-0.73842
-0.782809
-0.753446
-0.69877
-0.981383
-0.676125
-0.895988
-0.712623
-0.682544
-0.865937
-0.879138
-0.75989
-0.806024
-0.809137
-0.771385
-0.740908
-0.726152
-0.647022
-0.662041
-0.607981
-0.589802
-0.577637
-0.573471
-0.516388
-0.471751
-0.441745
-0.416738
-0.410061
-0.309879
-0.424379
-0.375579
-0.393648
-0.395594
-0.400126
-0.413433
-0.480011
-0.361117
-0.444804
-0.437941
-0.442464
-0.450255
-0.352902
-0.443374
-0.443496
-0.441604
-0.480468
-0.32587
-0.328086
-0.327513
-0.326878
-0.325839
-0.324585
-0.486857
-0.326994
-0.326541
-0.326651
-0.486903
-0.327534
-0.483333
-0.491253
-0.490016
-0.434017
-0.433152
-0.402859
-0.417124
-0.448554
-0.493315
-0.548994
-0.614026
-0.582943
-0.518481
-0.605085
-0.596879
-0.570643
-0.660559
-0.699248
-0.800143
-0.819843
-0.917208
-0.725194
-0.762981
-0.629415
-0.75025
-0.643053
-0.685409
-0.698469
-0.641179
-0.71793
-0.803578
-0.917139
-0.909221
-0.903643
-0.816779
-0.769515
-0.791875
-0.847715
-0.691057
-0.771917
-1.07792
-0.974548
-0.986217
-1.01527
-0.660163
-0.831742
-0.874924
-1.0421
-0.681736
-0.86352
-0.87922
-1.0471
-0.684567
-0.852714
-0.889998
-1.0441
-0.699175
-0.844009
-0.945315
-1.30077
-1.00158
-0.978512
-1.23539
-1.20448
-0.968813
-0.721023
-1.02634
-0.936516
-0.855763
-0.885865
-0.910003
-0.700855
-0.941636
-1.06776
-0.743849
-0.943543
-0.743344
-0.770944
-1.01603
-0.919131
-0.720725
-0.916773
-0.845319
-0.660374
-0.812112
-0.762327
-0.590205
-0.721486
-0.682348
-0.528015
-0.643748
-0.612356
-0.474083
-0.579693
-0.554673
-0.431912
-0.528604
-0.511435
-0.393725
-0.491822
-0.47655
-0.365915
-0.451087
-0.379545
-0.43557
-0.413272
-0.444806
-0.526844
-0.526483
-0.390117
-0.499935
-0.375733
-0.468147
-0.428582
-0.308119
-0.396204
-0.410338
-0.478895
-0.394348
-0.412798
-0.420391
-0.44481
-0.474856
-0.475874
-0.521305
-0.579232
-0.540823
-0.523829
-0.502588
-0.591819
-0.628444
-0.569319
-0.508009
-0.542484
-0.551693
-0.615413
-0.616014
-0.493526
-0.581899
-0.614227
-0.527805
-0.646437
-0.685467
-0.590318
-0.722818
-0.768613
-0.661672
-0.808958
-0.859597
-0.736803
-0.90196
-0.778409
-0.787204
-0.857096
-0.860665
-0.80755
-0.718668
-0.641513
-0.573854
-0.516917
-0.47232
-0.442313
-0.418088
-0.411451
-0.308039
-0.410319
-0.394115
-0.413027
-0.419684
-0.444404
-0.474514
-0.519575
-0.576965
-0.644998
-0.722472
-0.810053
-0.932231
-0.926411
-0.715419
-1.31889
-0.982126
-0.94228
-0.880167
-1.04692
-0.685606
-0.687376
-0.749384
-1.08626
-0.713864
-0.724719
-0.738802
-1.09237
-0.717123
-0.727934
-0.733162
-1.08904
-0.734526
-0.747245
-0.816813
-1.37904
-1.01449
-0.990085
-0.994652
-0.985898
-0.812419
-0.771144
-0.820032
-1.37394
-0.811067
-0.82648
-1.0877
-0.885374
-0.861129
-0.864142
-0.952553
-0.696389
-0.942683
-0.943305
-0.710388
-0.957746
-0.874647
-0.861086
-0.883902
-1.02191
-1.01848
-1.02748
-1.01374
-0.861809
-0.833345
-0.907246
-1.08954
-0.924158
-0.717035
-0.982607
-0.863052
-0.716322
-1.17944
-0.643507
-0.864505
-0.740836
-0.886849
-0.852637
-0.692696
-0.824801
-0.776448
-0.638748
-0.734237
-0.700854
-0.559219
-0.660254
-0.621526
-0.511968
-0.585813
-0.562279
-0.448118
-0.532045
-0.505529
-0.417425
-0.480447
-0.470444
-0.376695
-0.443167
-0.436449
-0.351066
-0.399727
-0.289473
-0.521898
-0.375808
-0.320997
-0.593806
-0.421634
-0.442279
-0.580116
-0.418125
-0.435156
-0.57017
-0.415267
-0.427343
-0.575955
-0.423344
-0.417695
-0.578289
-0.310737
-0.399624
-0.480175
-0.397725
-0.404399
-0.496366
-0.402132
-0.486946
-0.487128
-0.417264
-0.514497
-0.421031
-0.532084
-0.568358
-0.377981
-0.596437
-0.381534
-0.621902
-0.414992
-0.657029
-0.422055
-0.690576
-0.461663
-0.732553
-0.471382
-0.771902
-0.516638
-0.819578
-0.528061
-0.865623
-0.578949
-0.916769
-0.591163
-0.969519
-0.646936
-1.01096
-0.655768
-0.772185
-0.963982
-0.941621
-0.771035
-0.928304
-0.706166
-0.880699
-0.854848
-0.688459
-0.831566
-0.632361
-0.786528
-0.765626
-0.614378
-0.742022
-0.564809
-0.703221
-0.684438
-0.548832
-0.664563
-0.505741
-0.630051
-0.614446
-0.493561
-0.598385
-0.457039
-0.571433
-0.557686
-0.449604
-0.54804
-0.419017
-0.526723
-0.516622
-0.419592
-0.505446
-0.388543
-0.512865
-0.493184
-0.407178
-0.365644
-0.348536
-0.305969
-0.413822
-0.436068
-0.379536
-0.45112
-0.364815
-0.381581
-0.380117
-0.392665
-0.394548
-0.40914
-0.478987
-0.396659
-0.414332
-0.402798
-0.498956
-0.390234
-0.526268
-0.351691
-0.551868
-0.350601
-0.459322
-0.427596
-0.422602
-0.493716
-0.433122
-0.598202
-0.360823
-0.485986
-0.359095
-0.361336
-0.444229
-0.441
-0.437536
-0.441328
-0.443807
-0.601997
-0.433763
-0.404355
-0.417726
-0.418242
-0.419156
-0.51641
-0.516976
-0.419437
-0.456027
-0.42557
-0.423063
-0.493272
-0.402411
-0.487865
-0.514907
-0.434993
-0.530405
-0.556684
-0.475883
-0.515832
-0.449685
-0.449685
-0.494534
-0.55032
-0.548749
-0.550121
-0.494412
-0.449468
-0.448759
-0.448528
-0.417158
-0.417348
-0.487739
-0.514913
-0.551766
-0.568413
-0.596209
-0.621914
-0.381734
-0.555144
-0.377804
-0.528623
-0.350792
-0.512004
-0.351665
-0.491867
-0.393161
-0.377539
-0.469286
-0.419186
-0.481846
-0.547509
-0.449659
-0.557474
-0.473814
-0.58176
-0.582735
-0.493492
-0.613188
-0.52649
-0.645675
-0.645947
-0.547708
-0.683219
-0.587559
-0.722025
-0.722175
-0.611821
-0.765955
-0.636078
-0.809123
-0.856014
-0.709842
-0.905872
-0.934153
-0.778068
-0.863858
-0.819785
-0.732535
-0.655353
-0.586106
-0.526744
-0.478727
-0.445748
-0.488832
-0.476926
-0.333712
-0.331104
-0.33294
-0.360156
-0.601533
-0.433801
-0.434014
-0.5963
-0.359939
-0.360797
-0.445099
-0.442451
-0.4669
-0.442163
-0.598597
-0.433063
-0.402792
-0.499508
-0.390436
-0.432677
-0.424786
-0.490085
-0.480349
-0.32659
-0.325526
-0.486895
-0.324341
-0.330846
-0.486123
-0.424994
-0.418162
-0.396272
-0.399775
-0.580178
-0.513844
-0.40741
-0.492528
-0.4009
-0.490807
-0.486182
-0.419086
-0.514633
-0.434691
-0.529806
-0.448758
-0.556064
-0.47507
-0.581677
-0.581198
-0.491615
-0.613912
-0.508884
-0.646472
-0.684396
-0.568189
-0.722512
-0.613582
-0.548591
-0.493137
-0.44851
-0.417133
-0.424714
-0.490029
-0.480231
-0.415953
-0.447249
-0.42508
-0.432682
-0.424662
-0.415949
-0.447147
-0.41753
-0.418015
-0.449264
-0.448592
-0.494205
-0.492398
-0.519837
-0.577277
-0.645523
-0.64781
-0.725655
-0.674614
-0.659314
-0.743146
-0.82173
-0.687116
-0.968928
-0.726681
-1.35134
-0.963854
-0.943722
-0.916369
-1.09338
-0.982491
-1.02269
-0.977549
-1.34241
-0.950727
-0.940834
-0.878998
-1.04238
-0.683874
-0.697018
-0.756955
-1.0803
-0.710829
-0.73626
-0.748995
-1.08627
-0.714067
-0.737332
-0.745508
-1.0829
-0.732948
-0.752048
-1.06177
-0.860498
-0.764504
-0.760775
-0.904855
-0.964746
-0.71365
-0.926172
-0.59537
-0.712937
-0.895173
-0.68712
-0.848565
-0.91433
-0.767535
-0.925183
-1.0007
-0.904864
-0.842664
-0.690493
-0.815599
-0.774227
-0.980741
-1.03296
-1.01562
-0.938483
-0.768236
-0.929842
-0.801275
-0.934441
-0.767691
-0.929877
-0.801972
-0.935416
-0.769911
-0.930576
-1.03388
-1.01068
-0.862461
-0.782299
-0.934426
-1.09248
-0.809613
-0.997874
-1.01415
-0.974592
-0.825918
-0.810964
-0.81625
-1.36621
-0.818361
-0.905033
-1.31491
-1.02061
-0.979501
-0.809471
-0.808007
-1.06177
-0.745551
-0.744015
-1.05546
-0.846934
-0.821369
-0.818068
-0.732163
-0.655434
-0.586227
-0.526823
-0.47877
-0.445756
-0.488869
-0.477085
-0.324339
-0.325769
-0.440898
-0.437531
-0.442252
-0.568901
-0.434876
-0.353587
-0.357116
-0.398766
-0.362304
-0.352727
-0.421598
-0.59414
-0.442401
-0.580129
-0.418007
-0.579905
-0.466942
-0.450608
-0.442557
-0.596492
-0.35999
-0.360242
-0.48619
-0.332145
-0.331937
-0.36032
-0.359913
-0.360528
-0.423909
-0.583507
-0.424157
-0.6013
-0.433571
-0.433914
-0.39982
-0.335505
-0.382463
-0.378927
-0.392911
-0.413798
-0.420774
-0.445831
-0.476107
-0.521398
-0.579069
-0.64743
-0.725208
-0.723389
-0.812655
-0.812769
-0.924137
-0.720689
-0.775794
-0.78
-1.29961
-0.904023
-0.951546
-0.981366
-1.31533
-0.712903
-0.778625
-0.780857
-0.72571
-0.789722
-0.803767
-1.27675
-0.882483
-0.911097
-0.720306
-0.815422
-0.918613
-0.809885
-0.748844
-0.812808
-0.933768
-0.931262
-0.856519
-0.857656
-0.79529
-0.703535
-0.622112
-0.554575
-0.500216
-0.492557
-0.451198
-0.45112
-0.421821
-0.427259
-0.411669
-0.442517
-0.485942
-0.540368
-0.604256
-0.675138
-0.787483
-0.775579
-0.776887
-0.690489
-0.612826
-0.546603
-0.546223
-0.492353
-0.499576
-0.458605
-0.515298
-0.551868
-0.568365
-0.596377
-0.62192
-0.459612
-0.557089
-0.531977
-0.420912
-0.478422
-0.417108
-0.417361
-0.487516
-0.433223
-0.598369
-0.415622
-0.402914
-0.424649
-0.432692
-0.486696
-0.334962
-0.331459
-0.445534
-0.440701
-0.444082
-0.440733
-0.324067
-0.486947
-0.440892
-0.443948
-0.361634
-0.450619
-0.441059
-0.437193
-0.442048
-0.44335
-0.466937
-0.442404
-0.443514
-0.445636
-0.45088
-0.334483
-0.362405
-0.398668
-0.486609
-0.357272
-0.35336
-0.432683
-0.425142
-0.490112
-0.480115
-0.41596
-0.425158
-0.41826
-0.39631
-0.351798
-0.425818
-0.377993
-0.44848
-0.447819
-0.493139
-0.491507
-0.582788
-0.614728
-0.65778
-0.689931
-0.734157
-0.770831
-0.569391
-0.685779
-0.647055
-0.509242
-0.579166
-0.467853
-0.415053
-0.520382
-0.461717
-0.548664
-0.546458
-0.549928
-0.547498
-0.614995
-0.612358
-0.687174
-0.685909
-0.651219
-0.582655
-0.68702
-0.724553
-0.647488
-0.579656
-0.523215
-0.478494
-0.471079
-0.46248
-0.480583
-0.515288
-0.50588
-0.529015
-0.570891
-0.56049
-0.5291
-0.48067
-0.471581
-0.471142
-0.462429
-0.448409
-0.482058
-0.530764
-0.590637
-0.588733
-0.637431
-0.625554
-0.658117
-0.712802
-0.699
-0.734622
-0.792316
-0.805539
-0.762619
-1.013
-0.692573
-1.06459
-0.859008
-0.842794
-1.03093
-0.732672
-1.05431
-1.02418
-1.02513
-0.974
-1.33271
-0.951547
-0.907412
-0.85219
-1.04539
-1.05604
-0.805345
-0.908782
-1.02963
-1.05528
-0.971638
-0.950966
-1.32496
-0.978222
-1.02816
-1.03264
-1.03527
-1.02872
-0.974203
-1.04576
-0.928023
-0.890085
-1.04419
-0.699622
-0.683785
-0.745629
-1.08318
-0.732371
-0.720649
-0.733275
-1.08956
-0.733251
-0.723911
-0.727548
-1.08586
-0.748783
-0.817734
-1.36987
-1.04259
-0.976755
-0.828672
-0.809879
-1.05553
-0.846352
-0.821197
-0.734864
-0.657904
-0.588529
-0.528904
-0.480541
-0.447182
-0.471416
-0.478379
-0.421225
-0.532018
-0.556756
-0.459921
-0.582685
-0.61437
-0.657543
-0.689853
-0.733855
-0.7707
-0.471894
-0.682778
-0.461415
-0.643954
-0.42238
-0.612824
-0.414821
-0.579852
-0.473635
-0.453937
-0.559729
-0.506085
-0.588332
-0.663722
-0.548694
-0.683891
-0.585948
-0.72324
-0.722691
-0.61368
-0.763116
-0.657344
-0.808533
-0.6864
-0.852468
-0.732404
-0.905766
-0.906898
-0.767336
-0.93534
-0.801653
-0.931795
-0.93348
-0.768102
-0.905476
-0.906172
-0.93077
-0.801048
-0.845346
-0.76775
-0.687283
-0.614714
-0.549726
-0.494192
-0.449512
-0.425733
-0.467724
-0.493163
-0.491454
-0.54865
-0.546339
-0.646816
-0.685371
-0.569667
-0.723156
-0.768628
-0.823914
-0.862978
-0.925587
-0.964937
-0.595303
-0.845842
-0.579434
-0.812369
-0.529646
-0.762769
-0.516602
-0.721766
-0.589698
-0.564633
-0.696816
-0.634946
-0.740984
-0.824045
-0.687176
-0.848623
-0.730008
-0.913732
-0.902176
-0.768323
-0.937724
-0.796229
-0.925623
-1.00029
-0.767696
-0.904648
-0.84192
-0.815007
-0.7737
-0.827525
-0.813855
-0.689753
-0.720149
-0.91693
-0.919635
-0.645696
-0.746867
-0.673152
-0.602482
-0.538815
-0.484576
-0.441295
-0.410564
-0.381608
-0.379438
-0.436164
-0.379599
-0.289453
-0.348708
-0.399695
-0.365262
-0.52234
-0.320374
-0.374618
-0.480844
-0.424591
-0.381395
-0.405123
-0.492788
-0.402291
-0.485746
-0.417961
-0.514381
-0.43456
-0.530511
-0.529538
-0.447843
-0.556479
-0.459614
-0.582532
-0.500059
-0.492918
-0.556931
-0.452029
-0.51587
-0.442114
-0.441668
-0.416183
-0.410257
-0.394773
-0.424557
-0.415617
-0.393469
-0.420775
-0.351701
-0.43555
-0.38879
-0.504785
-0.419678
-0.516251
-0.433737
-0.530747
-0.531459
-0.449712
-0.556288
-0.475238
-0.581537
-0.492602
-0.613238
-0.526296
-0.645841
-0.64569
-0.546724
-0.683382
-0.608715
-0.545636
-0.613615
-0.51727
-0.516747
-0.472078
-0.455647
-0.516974
-0.425819
-0.501517
-0.418933
-0.420852
-0.443791
-0.445486
-0.443409
-0.448972
-0.527601
-0.480568
-0.41366
-0.507075
-0.457157
-0.598427
-0.493472
-0.614197
-0.524761
-0.646182
-0.646885
-0.548641
-0.682876
-0.587771
-0.722104
-0.612776
-0.763985
-0.657283
-0.808658
-0.809311
-0.685571
-0.852409
-0.686461
-0.712344
-0.636849
-0.625372
-0.58871
-0.529059
-0.48067
-0.447302
-0.462447
-0.471033
-0.515193
-0.523
-0.44966
-0.49439
-0.549965
-0.646628
-0.637229
-0.570734
-0.560397
-0.505821
-0.515757
-0.471586
-0.43488
-0.515635
-0.417897
-0.515182
-0.530296
-0.448849
-0.556613
-0.556944
-0.530029
-0.530166
-0.449786
-0.55662
-0.55782
-0.531556
-0.516791
-0.419066
-0.515055
-0.487606
-0.486113
-0.486533
-0.487146
-0.418983
-0.516214
-0.515355
-0.434854
-0.529852
-0.449709
-0.557399
-0.556804
-0.475433
-0.581356
-0.493559
-0.614467
-0.613642
-0.613578
-0.613912
-0.49272
-0.581848
-0.581651
-0.475458
-0.581602
-0.493629
-0.613466
-0.61495
-0.582813
-0.474159
-0.557574
-0.571833
-0.449595
-0.530848
-0.434029
-0.516331
-0.52792
-0.419563
-0.4908
-0.486384
-0.501083
-0.40503
-0.493221
-0.402528
-0.497475
-0.404468
-0.496819
-0.402491
-0.49378
-0.404957
-0.500395
-0.486728
-0.49023
-0.401052
-0.42623
-0.414794
-0.409954
-0.311783
-0.423013
-0.402232
-0.412004
-0.412715
-0.310161
-0.40892
-0.396381
-0.401555
-0.42356
-0.311758
-0.58062
-0.428123
-0.417186
-0.360649
-0.480242
-0.410295
-0.397838
-0.398528
-0.409547
-0.382498
-0.423725
-0.480755
-0.352476
-0.428016
-0.580411
-0.417431
-0.596346
-0.433908
-0.418245
-0.417822
-0.449566
-0.494471
-0.571243
-0.526733
-0.645966
-0.547807
-0.683368
-0.683894
-0.683101
-0.685426
-0.548773
-0.646056
-0.646942
-0.525184
-0.614313
-0.631156
-0.493436
-0.581954
-0.598559
-0.457518
-0.507487
-0.530455
-0.454562
-0.560208
-0.588966
-0.506083
-0.624366
-0.659482
-0.565386
-0.697515
-0.741729
-0.631505
-0.768624
-0.75634
-0.735685
-0.676767
-0.65806
-0.604205
-0.58805
-0.541096
-0.528558
-0.488923
-0.480933
-0.414027
-0.482494
-0.547504
-0.419493
-0.469426
-0.444243
-0.378141
-0.445707
-0.449151
-0.420895
-0.43574
-0.389085
-0.513956
-0.40722
-0.492627
-0.40115
-0.426298
-0.418366
-0.415713
-0.320693
-0.375315
-0.522149
-0.289523
-0.400087
-0.35179
-0.420663
-0.393508
-0.34888
-0.365387
-0.424357
-0.38204
-0.480822
-0.394795
-0.40988
-0.414881
-0.440231
-0.442794
-0.473569
-0.518823
-0.576428
-0.54867
-0.684037
-0.704371
-0.663944
-0.646447
-0.550208
-0.497106
-0.456371
-0.453934
-0.470724
-0.515282
-0.572118
-0.614247
-0.58645
-0.722685
-0.613821
-0.763204
-0.767517
-0.763822
-0.791555
-0.613796
-0.723601
-0.740935
-0.566143
-0.471945
-0.619801
-0.612031
-0.689047
-0.698282
-0.769001
-0.824342
-0.863063
-0.579851
-0.650821
-0.582006
-0.51695
-0.613642
-0.611175
-0.723592
-0.686025
-0.684137
-0.810175
-0.638809
-0.723516
-0.614982
-0.687537
-0.805469
-0.792785
-0.712697
-0.699036
-0.625456
-0.63761
-0.658103
-0.660105
-0.658175
-0.588808
-0.571478
-0.570821
-0.5153
-0.505795
-0.515539
-0.522917
-0.579041
-0.509549
-0.554355
-0.500389
-0.493532
-0.494587
-0.497323
-0.452894
-0.452182
-0.422585
-0.427708
-0.392523
-0.459357
-0.548871
-0.547456
-0.613274
-0.615132
-0.618788
-0.692435
-0.690247
-0.699173
-0.620672
-0.809399
-0.861135
-0.713906
-0.903552
-0.788387
-0.776721
-0.859252
-0.862836
-0.809139
-0.919937
-1.2052
-1.2348
-0.720932
-0.945033
-1.30102
-1.00132
-0.812639
-0.985675
-0.996547
-0.827696
-0.816312
-1.38116
-1.02076
-0.988305
-1.27162
-1.09211
-1.09335
-1.03243
-1.02397
-0.735841
-1.05648
-0.844249
-0.819643
-0.734663
-0.713431
-0.63805
-0.637272
-0.615142
-0.61358
-0.610955
-0.68592
-0.683856
-0.650586
-0.581788
-0.520205
-0.703929
-0.740653
-0.613802
-0.763698
-0.655628
-0.812389
-0.807921
-0.687175
-0.850537
-0.73207
-0.852991
-0.68728
-0.614696
-0.637313
-0.64645
-0.723306
-0.63908
-0.712696
-0.698964
-0.625395
-0.560352
-0.570983
-0.494166
-0.449314
-0.417618
-0.516047
-0.452645
-0.530126
-0.423155
-0.487737
-0.498002
-0.396282
-0.410678
-0.413289
-0.307332
-0.410963
-0.417573
-0.493737
-0.496264
-0.55783
-0.474118
-0.488672
-0.529903
-0.528127
-0.519388
-0.540779
-0.630779
-0.587545
-0.505441
-0.62376
-0.565598
-0.658771
-0.603816
-0.657481
-0.645606
-0.577051
-0.549233
-0.614859
-0.546618
-0.613888
-0.573776
-0.613124
-0.685244
-0.609844
-0.722066
-0.641722
-0.686282
-0.767207
-0.676351
-0.791058
-0.735081
-0.6307
-0.767909
-0.712361
-0.894679
-0.755984
-0.723787
-0.810547
-0.875513
-0.861839
-0.833486
-0.887307
-0.856544
-0.8396
-0.765993
-0.857779
-0.719214
-0.805881
-0.871855
-0.905316
-0.872928
-0.834724
-0.758653
-0.681404
-0.809072
-0.764585
-0.642613
-0.574419
-0.72048
-0.807753
-0.874675
-0.910561
-0.873319
-0.834495
-0.757826
-0.680249
-0.764055
-0.690641
-0.617298
-0.55319
-0.484332
-0.441155
-0.410375
-0.391882
-0.43594
-0.538719
-0.60237
-0.674109
-0.770895
-0.844147
-0.878759
-0.924828
-0.868093
-0.690386
-0.771726
-0.852639
-0.871895
-0.808251
-0.803615
-0.71749
-0.639901
-0.571891
-0.514952
-0.47039
-0.439979
-0.439478
-0.414918
-0.424145
-0.424128
-0.396297
-0.480224
-0.394556
-0.4158
-0.418141
-0.442472
-0.456447
-0.433968
-0.53046
-0.531783
-0.449651
-0.471562
-0.462414
-0.415969
-0.471029
-0.478403
-0.39634
-0.399804
-0.580167
-0.52691
-0.329194
-0.425833
-0.522965
-0.515725
-0.505763
-0.515126
-0.570528
-0.560312
-0.571203
-0.494377
-0.549965
-0.550079
-0.615062
-0.71301
-0.657654
-0.764874
-0.612833
-0.763809
-0.809694
-0.686389
-0.851524
-0.853531
-0.808084
-0.809799
-0.687248
-0.850284
-0.858232
-0.807746
-0.656199
-0.812853
-0.824349
-0.635582
-0.529727
-0.687531
-0.64491
-0.722993
-0.809531
-0.814265
-0.827623
-0.861762
-0.833595
-0.874458
-0.887488
-0.856337
-0.840497
-0.767255
-0.717085
-0.639858
-0.683441
-0.611718
-0.722601
-0.721999
-0.722689
-0.722065
-0.614121
-0.765737
-0.764262
-0.657725
-0.80877
-0.688132
-0.854532
-0.852842
-0.732724
-0.905214
-0.909017
-0.906829
-0.731439
-0.806212
-0.79404
-0.735054
-0.736711
-0.776545
-0.8196
-0.764951
-0.761811
-1.01833
-0.734904
-0.686206
-1.05458
-1.02294
-1.04275
-0.974536
-1.02986
-1.03574
-1.02035
-0.723517
-1.04383
-0.822059
-1.03628
-1.04127
-1.0364
-1.03749
-1.01852
-0.843551
-1.02784
-1.32554
-0.727269
-0.982178
-1.09359
-1.0283
-1.09313
-1.02124
-0.978746
-1.28771
-1.04708
-0.751933
-0.819259
-1.37475
-0.811855
-1.05395
-0.748882
-1.04322
-0.823626
-0.821952
-0.777046
-0.792757
-0.79292
-0.805265
-0.793148
-0.712697
-0.793235
-0.777678
-0.699092
-0.713149
-0.637594
-0.646445
-0.615087
-0.68811
-0.687605
-0.793417
-0.767906
-0.725137
-0.64608
-1.02271
-0.675123
-0.862327
-0.936705
-0.814031
-0.858086
-0.899881
-1.0184
-0.731653
-0.683456
-1.05669
-0.844253
-0.823679
-1.03742
-0.72048
-1.04604
-1.02125
-1.02353
-1.04492
-0.929737
-1.02745
-1.32471
-0.982048
-1.02859
-1.0326
-1.03398
-1.03721
-1.02117
-0.727943
-1.04603
-1.04213
-1.03458
-1.04093
-1.02224
-0.725145
-1.04829
-0.825274
-1.0432
-1.04419
-0.933108
-0.768037
-0.768105
-0.932294
-0.927944
-0.729297
-0.769863
-0.768287
-0.845508
-0.927574
-0.931341
-0.934091
-0.859204
-1.05585
-0.827098
-0.753555
-0.722577
-0.644657
-0.576086
-0.518469
-0.473198
-0.497215
-0.582924
-0.581681
-0.474122
-0.467946
-0.579065
-0.525076
-0.645972
-0.64723
-0.548811
-0.684661
-0.683487
-0.645742
-0.5267
-0.646259
-0.5483
-0.514553
-0.470057
-0.495221
-0.495253
-0.453967
-0.548295
-0.571294
-0.6391
-0.716479
-0.760679
-0.90721
-0.904206
-0.907367
-0.760532
-0.683255
-0.611644
-0.588014
-0.613842
-0.723624
-0.722507
-0.586256
-0.58228
-0.520417
-0.723434
-0.65608
-0.809725
-0.81083
-0.686261
-0.675264
-0.603527
-0.540787
-0.488754
-0.448919
-0.420617
-0.393324
-0.420607
-0.445674
-0.481084
-0.528435
-0.5502
-0.588166
-0.65771
-0.736306
-0.765057
-0.840053
-0.799019
-0.836612
-0.802539
-0.803272
-0.869193
-0.904234
-0.872415
-0.836298
-0.868758
-0.903073
-0.875467
-0.868352
-0.915934
-0.872142
-0.912845
-0.651771
-0.732319
-0.901541
-0.730548
-0.817144
-0.879777
-1.05377
-1.04281
-1.04697
-1.09339
-1.02098
-1.09277
-1.09332
-1.09193
-1.04347
-1.03231
-1.08943
-1.28633
-1.06429
-1.09464
-1.17423
-1.14902
-1.29304
-1.29394
-1.27397
-1.29001
-1.28813
-0.90211
-0.904116
-0.777112
-1.06177
-0.771755
-0.902027
-0.969071
-0.588043
-0.796659
-1.07597
-0.549733
-0.683763
-0.666659
-0.581812
-0.534728
-0.466151
-0.659848
-0.527566
-0.571496
-0.581369
-0.557059
-0.472497
-1.28804
-0.861198
-0.553513
-0.422395
-0.506533
-0.306509
-0.504743
-0.329545
-0.350769
-0.381722
-0.431743
-0.36577
-0.447804
-0.849126
-0.904826
-0.898277
-0.727237
-0.685485
-0.486156
-0.331413
-0.443496
-0.726419
-0.487885
-0.547558
-0.398296
-0.720286
-0.769252
-0.308405
-0.685309
-0.686547
-0.493374
-0.462371
-0.393998
-0.769132
-0.614285
0.41553
0.417798
0.442275
0.439653
0.470428
0.515197
0.572287
0.64035
0.717898
0.803921
0.868156
0.91184
0.704892
0.973835
1.09081
0.836385
0.931802
0.861673
1.05444
0.77203
0.964762
0.851019
0.694358
0.824507
0.77733
0.633873
0.738035
0.697714
0.567268
0.659151
0.623922
0.50474
0.589941
0.559195
0.454322
0.529969
0.507589
0.412599
0.481539
0.469758
0.378032
0.442815
0.436197
0.351562
0.39935
0.289315
0.52176
0.321023
0.37563
0.423117
0.312541
0.401939
0.413703
0.311375
0.410639
0.409871
0.313693
0.415205
0.397933
0.310996
0.410746
0.492567
0.343469
0.4588
0.435451
0.404046
0.403588
0.475313
0.400013
0.405019
0.402035
0.479306
0.402812
0.404403
0.394943
0.479834
0.410343
0.404844
0.381052
0.480582
0.423419
0.407029
0.364942
0.348088
0.305595
0.379196
0.450627
0.476414
0.49113
0.511286
0.528081
0.554602
0.579093
0.612041
0.643567
0.68322
0.719215
0.764765
0.80526
0.853962
0.897541
0.944218
0.97196
0.970081
0.823945
0.953312
0.956949
0.985865
0.915438
0.705349
1.28427
0.981893
1.04081
0.979141
1.01817
1.1491
1.17299
1.09071
1.03797
1.04197
1.03857
1.09061
1.28447
1.04072
0.811107
0.807117
0.904073
0.818721
0.811153
0.995409
1.29496
1.01802
1.31432
0.978981
1.14908
0.953102
0.956972
0.974181
1.08154
1.01115
0.778102
1.03032
0.823401
1.06305
0.986406
0.70475
0.914525
0.913377
1.01604
0.935725
0.907287
0.853295
0.809774
0.764755
0.722895
0.683205
0.647222
0.611809
0.584078
0.552917
0.533998
0.508938
0.491717
0.415736
0.595007
0.42259
0.418403
0.486408
0.512017
0.436226
0.531847
0.55465
0.476857
0.583338
0.612389
0.52771
0.647864
0.682529
0.588741
0.724287
0.763581
0.658288
0.810431
0.852897
0.73321
0.906678
0.933102
0.801977
1.02448
0.870793
1.0866
0.942892
0.693837
0.948933
0.874779
1.08869
0.919938
0.703659
0.977527
0.836205
1.03286
0.932972
0.908091
0.858606
0.808132
0.772397
0.718514
0.691775
0.644879
0.612107
0.583648
0.553385
0.534455
0.505998
0.495667
0.418746
0.596914
0.434379
0.414429
0.469119
0.556079
0.42152
0.568355
0.593579
0.45979
0.621218
0.654896
0.508771
0.698366
0.665996
0.587843
0.738591
0.756775
0.65727
0.817423
0.85207
0.732011
0.909702
0.940722
0.798832
1.01163
0.933954
1.09074
0.863153
0.717391
1.18042
0.786095
1.05295
0.968013
0.772748
0.892927
0.864696
0.77271
0.644428
0.826054
0.690938
0.971596
0.975795
0.656399
1.01243
0.935243
0.777452
1.08118
1.03111
0.823139
1.06287
0.975425
0.711567
0.858919
1.31507
0.978798
1.14901
1.01815
1.29502
0.995718
0.811527
0.904301
0.818696
0.75372
1.06196
0.807197
0.816179
0.748205
0.745045
1.05622
0.811136
0.810572
0.744241
0.7484
1.05615
0.816728
0.806777
0.75237
0.818966
1.06169
0.904075
0.810919
1.01582
0.995338
1.29549
1.01824
1.14902
0.978006
1.04109
1.28192
0.985428
1.01101
1.27035
1.01025
0.986211
1.28152
1.04067
0.811441
1.05861
1.17228
1.09072
1.37066
0.933241
0.857882
0.914742
0.87326
1.02561
0.933983
0.933762
0.936728
0.801978
1.02608
1.01553
0.915585
1.0872
0.87199
0.861192
0.934486
1.3824
1.09434
1.09076
1.37024
0.933217
0.857775
0.821827
0.975609
1.08124
1.0117
0.656112