/*--------------------------------*- C++ -*----------------------------------*\
| =========                 |                                                 |
| \\      /  F ield         | OpenFOAM: The Open Source CFD Toolbox           |
|  \\    /   O peration     | Version:  2306                                  |
|   \\  /    A nd           | Website:  www.openfoam.com                      |
|    \\/     M anipulation  |                                                 |
\*---------------------------------------------------------------------------*/
FoamFile
{
    version     2.0;
    format      ascii;
    arch        "LSB;label=32;scalar=64";
    class       volScalarField;
    location    "0.2";
    object      gradTx;
}
// * * * * * * * * * * * * * * * * * * * * * * * * * * * * * * * * * * * * * //

dimensions      [0 -1 0 1 0 0 0];

internalField   nonuniform List<scalar> 
5322
(
-0.0142538
0.00164238
0.000969329
-4.79686e-05
-1.91041e-05
-2.37086e-06
4.36549e-08
5.9271e-08
1.07685e-08
1.26337e-09
1.54645e-10
8.5833e-11
4.96281e-11
-3.49562e-11
3.45227e-11
4.26149e-10
-1.4792e-10
2.45236e-10
1.34628e-10
3.57376e-09
2.41819e-09
5.744e-08
2.81619e-08
7.79995e-07
-3.94857e-09
8.46819e-06
-2.12189e-06
7.20344e-05
-4.75089e-05
0.000459139
-0.000341839
0.00220085
-0.00133605
0.00773774
0.00306339
0.0196074
0.0139698
-0.00592039
0.014464
-0.0011979
-0.0142665
0.0138874
-0.00081865
-0.0146991
0.0150226
-0.000246146
-0.0154087
0.0146122
4.30407e-05
-0.0163207
-0.0166202
-0.0233561
-0.00874878
0.0125137
-0.000634309
-0.0191893
-0.00047809
0.018366
-6.61915e-05
-0.0179121
5.20636e-05
0.0176657
-4.37437e-05
-0.0177776
1.01998e-05
0.0173344
0.000241771
-0.0179104
0.00126861
0.014709
0.00148229
-0.0095679
0.0108271
-0.0110808
0.0105527
-0.0107389
0.0108631
-0.010791
0.0126371
-0.00976523
0.00371561
-0.0106558
-0.00819993
0.00893308
0.000475633
-0.000148748
0.00879667
-0.0268932
-0.00433781
0.0232621
-0.00111522
-8.00571e-05
-0.000209464
0.000549627
0.00631619
0.000519707
0.00140013
0.00167996
0.00890999
-0.0234063
-0.0234539
0.036743
0.00161331
0.00496265
0.00831046
0.00162551
0.000335434
4.95414e-05
-1.06925e-05
-8.43543e-06
-2.29263e-06
-3.82228e-07
-4.56227e-08
-4.27821e-09
-4.34889e-10
-1.02022e-10
-3.11253e-10
-1.566e-10
-5.34803e-11
-2.00174e-10
-1.02412e-10
-4.40492e-12
-4.48552e-11
5.6655e-11
-5.00158e-11
-7.25197e-11
-8.81396e-11
-1.0602e-10
-3.45136e-11
8.30597e-12
-5.20363e-12
-2.08271e-11
-2.96411e-11
-1.17629e-12
-1.24136e-12
-7.56739e-11
-7.51119e-11
-1.06451e-10
9.88239e-13
2.37418e-11
4.29513e-12
-7.14471e-11
-1.66909e-10
-6.26421e-11
-2.53444e-10
-5.21545e-11
-9.69855e-11
-1.50463e-10
-1.39104e-10
-3.13218e-10
-2.22405e-11
-1.22931e-10
-2.00587e-10
-2.62491e-10
-2.00989e-10
-1.38686e-11
-1.783e-10
-1.06703e-10
-1.88082e-10
-4.04753e-11
-4.88774e-10
-3.71655e-10
5.93265e-10
-5.06559e-09
-1.00517e-09
-3.67163e-10
-3.44503e-10
8.79412e-11
-9.24353e-11
1.35203e-11
-3.74842e-12
6.36415e-11
-5.04161e-10
7.30527e-11
-5.39223e-10
1.52897e-10
4.83282e-10
-6.2029e-09
-4.28382e-10
-6.29587e-09
4.60318e-09
8.41877e-09
-8.64461e-08
-6.02372e-09
-8.22001e-08
9.16291e-08
1.40832e-07
-1.08137e-06
-4.05326e-08
-9.87922e-07
1.49899e-06
2.08513e-06
-1.15493e-05
5.09753e-08
-1.0193e-05
1.90826e-05
2.51053e-05
-0.000100941
5.23714e-06
-8.65796e-05
0.00018009
0.000230144
-0.000687464
6.74136e-05
-0.000575491
0.00118899
0.00150469
-0.00339204
0.000457966
-0.00276202
0.00488523
0.00605923
0.000720599
0.00854479
-0.0231092
-0.0236117
0.0364957
-0.00241207
-0.00244725
-0.000222303
0.000601145
0.00640776
0.00106136
0.00154986
0.000555597
0.00847986
-0.0234855
-0.023113
0.0363539
0.00144917
0.00489624
0.00137735
0.000404199
5.21733e-05
-1.00937e-05
-8.50399e-06
-2.38407e-06
-4.01545e-07
-4.78063e-08
-4.43137e-09
-4.65649e-10
-8.4207e-11
1.86293e-11
-2.56834e-10
1.61679e-10
-6.16554e-11
4.51006e-11
-1.99182e-11
1.03789e-10
2.25191e-11
-2.77094e-11
-2.13198e-11
-4.56771e-11
-9.42344e-11
-1.03179e-10
1.41836e-12
-2.96163e-11
5.4792e-11
1.24638e-11
-5.80216e-11
-7.51376e-11
-5.71782e-11
-1.18743e-10
-2.2982e-11
-4.61682e-10
3.77722e-10
-2.32637e-10
1.43416e-09
-4.84996e-09
2.21816e-08
-7.35269e-08
3.09714e-07
-1.00861e-06
3.76669e-06
-1.16032e-05
3.80725e-05
-0.000106651
0.000304262
-0.000742368
0.00180308
-0.00363048
0.00732763
-0.00585399
0.000137017
0.00576863
0.000152696
-0.00717132
0.00352021
1.83153e-05
-0.00174679
0.000735481
6.29191e-06
-0.000291675
0.000108446
1.49055e-06
-3.59391e-05
1.21959e-05
2.5291e-07
-3.4806e-06
1.10683e-06
3.28108e-08
-2.78782e-07
8.49859e-08
3.361e-09
-1.94519e-08
5.88863e-09
2.821e-10
-1.16397e-09
-9.56917e-11
1.20771e-09
-5.93675e-09
-4.17433e-10
-1.43494e-09
3.52667e-10
-9.86333e-11
-3.5529e-11
-2.81273e-11
7.74922e-11
-3.47061e-10
7.06905e-10
-5.80159e-09
1.2644e-08
-8.62758e-08
2.11975e-07
-1.13105e-06
3.00656e-06
-1.24072e-05
3.41687e-05
-0.000108992
0.000296034
-0.000730624
0.00183733
-0.00344348
0.00748645
-0.00549935
-0.00204735
0.00213934
0.000291735
-0.00689419
0.00330181
-1.38717e-05
-0.00161823
0.000678101
-2.44929e-05
-0.000259449
9.0096e-05
-7.10535e-06
-3.1797e-05
8.71797e-06
-1.21287e-06
-3.08727e-06
6.56213e-07
-1.46704e-07
-2.45287e-07
4.0931e-08
-1.36375e-08
-1.67281e-08
2.2611e-09
-1.04979e-09
-1.05684e-09
8.24089e-11
-3.22924e-11
5.64573e-12
-4.62169e-11
-1.22611e-10
-2.12479e-10
-1.08185e-10
-1.11739e-10
-4.06841e-11
-2.95126e-10
6.36712e-11
-5.16383e-09
-3.94498e-09
-6.60084e-09
-4.36583e-10
1.31146e-10
3.75972e-11
-4.91086e-10
-7.65045e-11
-2.32846e-10
-3.91532e-10
-4.89294e-10
-7.21158e-12
-6.29067e-11
-1.2268e-11
2.02957e-11
-8.21642e-10
-4.15068e-10
-4.00895e-10
-5.41555e-10
2.79076e-10
-7.00038e-09
-6.70204e-09
6.88257e-09
-9.38302e-08
1.2281e-07
-1.14852e-06
-9.9753e-07
1.9157e-06
-1.2041e-05
2.39832e-05
-0.000103555
-5.29982e-05
0.000225171
-0.000692868
0.00147631
-0.00333208
0.000546848
-0.000227069
-0.000150976
-0.000143084
-5.17872e-05
-5.52759e-05
0.000231165
-0.000723259
7.18145e-05
-0.000569457
0.00117014
0.00160111
-0.00335818
0.000535145
-0.00293278
0.0045231
0.00956331
0.00175175
0.0025105
-0.0255887
-0.0238857
0.0363583
-0.00282991
-1.39678e-05
0.000170039
-0.00352202
0.000374323
0.000450263
-0.00059419
-1.89304e-05
6.09053e-05
-8.07429e-05
-1.08781e-05
3.20889e-06
-8.87702e-06
-1.81902e-06
-1.59011e-07
-7.66381e-07
-2.06444e-07
-2.81696e-08
-5.33704e-08
-1.77043e-08
-2.66324e-09
-3.20402e-09
-1.38733e-09
-1.827e-10
-1.15423e-10
2.93618e-11
-1.37287e-10
-5.49535e-10
3.57184e-10
-3.49626e-09
2.27611e-09
-7.89373e-08
8.25735e-08
-1.09894e-06
-7.58781e-07
-1.14868e-06
-6.18594e-08
6.15526e-08
8.11979e-08
-9.07384e-08
-6.9982e-09
-5.67776e-08
-8.30072e-08
-9.31156e-08
-7.2282e-09
-3.43789e-09
-4.45404e-09
-1.68966e-09
-9.52752e-10
-2.76826e-09
-7.29383e-09
-4.7649e-10
-2.60787e-11
-3.1825e-11
1.75938e-11
-1.04404e-11
2.23312e-11
-2.20297e-10
1.25929e-10
2.05258e-09
-6.3093e-08
-1.22933e-07
-1.82175e-06
-1.02818e-06
6.42572e-08
-6.22584e-08
-6.90398e-08
1.68746e-07
-7.96958e-07
1.8193e-06
-1.28724e-05
2.73742e-05
-0.000121872
-7.94062e-05
-0.000108218
4.24408e-06
1.66898e-05
2.23795e-05
-1.23727e-05
-1.65444e-07
-8.61505e-06
-9.39245e-06
-6.95867e-06
-9.47758e-07
-4.88819e-07
-7.68186e-07
-3.16725e-07
-3.12071e-07
-6.55535e-08
-2.80057e-08
-2.15245e-08
8.27271e-09
-6.4031e-09
-4.56732e-08
-6.44274e-09
-1.53379e-09
-1.24609e-10
-1.49776e-11
-3.82589e-11
-7.29883e-11
-2.96009e-10
-2.99941e-10
-6.51622e-10
-4.00257e-10
4.53513e-09
-1.55147e-09
-2.21696e-08
1.88158e-08
-8.60248e-08
-4.27346e-09
7.11695e-08
-1.60729e-08
-3.10931e-07
2.73705e-07
-1.11398e-06
-3.85992e-08
9.95957e-07
-1.11998e-07
-3.78096e-06
3.46501e-06
-1.22024e-05
-2.42496e-07
1.16852e-05
-3.4401e-07
-3.81566e-05
3.62199e-05
-0.000107993
-7.89512e-07
0.000108983
2.07257e-06
-0.000304554
0.000296287
-0.000731096
1.27391e-06
0.000761599
2.50867e-05
-0.00180004
0.00177218
-0.00350526
2.01964e-05
0.00367209
3.11846e-05
-0.00726637
0.00717228
-0.00575791
-3.91906e-06
0.00584261
-0.00047153
-0.00180354
-1.52343e-05
-0.00255224
-0.018015
0.00248792
-0.000422337
-0.00103816
-0.00190619
9.7708e-05
-0.00416315
0.00135503
-0.00574964
-0.00550884
0.000215025
-0.000906023
-0.0013814
-0.000203446
-0.000117922
1.83401e-05
-1.25101e-05
-2.18332e-05
-1.87955e-05
-1.64895e-06
-1.23759e-07
-8.71279e-09
-6.03832e-10
6.58032e-11
-3.35222e-11
1.51658e-11
2.11441e-11
1.401e-11
8.11986e-11
-2.16045e-11
-9.53122e-14
-2.18849e-12
-5.85653e-11
-2.48801e-11
-5.24383e-11
-1.62363e-11
-2.56396e-11
-1.59568e-10
-4.0216e-12
2.5879e-12
1.68776e-12
-8.37735e-12
-7.1774e-11
-1.60914e-10
-9.34469e-11
3.85019e-12
-4.72177e-11
1.62217e-10
7.56569e-11
5.75463e-11
4.72649e-11
-3.47126e-11
7.96244e-11
1.05572e-10
4.83255e-12
-3.96278e-11
-3.24182e-11
-2.45227e-11
-2.50982e-10
-1.95598e-10
-2.69669e-09
-2.91642e-08
-2.39872e-07
-1.32127e-06
-3.70173e-06
-3.18037e-05
-2.13005e-05
-4.84816e-05
-1.33393e-05
-2.55e-05
2.5909e-05
-6.32633e-05
0.000293464
-0.000881557
0.00217949
0.000148191
-0.000691137
-0.000216773
0.000169831
1.41214e-05
0.000150791
0.000164783
-0.000170356
-0.0011293
-0.00506076
-0.0165992
-0.0173473
-0.0320849
-0.00844916
-0.00661413
0.000451979
-0.00174266
0.00362271
-0.0350917
-0.0220759
-0.0115011
0.0144638
0.00142895
0.000845523
-0.0131262
0.0143336
0.000340016
-0.00160763
-0.01418
0.0139694
1.05871e-05
-0.00201787
-0.014171
0.0136489
-0.000191863
-0.00333034
-0.013918
0.00970203
-0.0105761
0.0101638
0.0077337
0.0206169
-0.00994524
-0.00537996
0.00252361
0.00991163
-0.0254446
-0.000981981
-0.0142429
0.0184386
0.0196195
0.0165561
0.0212817
0.00751376
-0.000103941
0.00654407
0.00863015
0.011553
-0.00107064
0.000718525
0.00282411
-0.000425456
7.42815e-05
0.000522767
-5.40523e-05
1.51403e-05
7.538e-05
-2.98399e-06
2.55411e-06
8.51166e-06
4.57979e-08
3.07504e-07
7.62999e-07
2.52892e-08
2.73049e-08
5.58501e-08
2.50445e-09
1.93291e-09
3.45621e-09
1.90009e-10
1.07199e-10
2.4747e-10
3.94676e-11
8.22791e-13
3.53362e-11
-8.24157e-11
1.0821e-09
-2.53522e-09
9.95747e-10
-8.02683e-10
3.16324e-10
1.35083e-11
-4.61966e-11
4.37056e-11
7.66675e-11
-7.07269e-11
4.63736e-11
4.92163e-12
-5.87958e-11
-6.15905e-12
-1.43914e-10
-1.34727e-09
-1.31198e-08
-6.09905e-08
2.82414e-07
-6.8967e-06
-2.91017e-06
-3.40959e-06
2.44295e-06
-7.71279e-06
-1.26369e-06
-4.75307e-07
1.32142e-06
8.64483e-07
1.15248e-06
1.55744e-06
-1.01869e-06
-9.34396e-07
1.49447e-06
-4.67684e-08
-9.89923e-06
1.90445e-05
4.70703e-06
-8.60798e-05
0.000180449
6.62026e-05
-0.000583855
0.00118836
0.000454455
-0.00285622
0.000722654
0.000935967
0.000767103
0.000691351
-0.00485619
-0.00106021
-0.000164055
-1.87359e-05
-1.70299e-06
-1.3295e-07
-9.71181e-09
-6.92443e-10
2.02956e-10
-5.98493e-11
-4.39982e-11
2.32061e-11
-2.03849e-11
-5.73062e-10
-9.53807e-09
-1.4048e-07
-1.83489e-06
-2.00178e-05
-0.000172466
-0.00110323
-0.00486722
-0.0158125
-0.0160376
-0.0258464
-0.0245012
-0.00899473
-0.00876237
0.0126252
0.00112956
-0.00133235
-0.00100572
0.00497057
0.000152596
-0.00410633
-0.00388883
0.00395127
-3.0637e-05
-0.00452314
-0.00430695
0.00340312
-9.74898e-05
-0.00579494
-0.00553526
0.00171377
-0.0101681
0.00819624
0.007965
0.00833859
0.00726778
-0.00849283
0.00025171
0.00227734
-0.0101549
0.00163861
-0.00894607
0.00910798
-0.0168681
-0.000255129
-0.0162323
0.0171019
0.0199116
0.0175342
0.0171357
0.0193685
0.0171357
-0.0178145
-0.000415581
-0.0158424
0.00666331
0.00717808
0.00666705
0.00713206
-0.000319993
-0.0171512
-0.0168134
0.00914923
0.0175026
0.018053
0.0156099
0.0195734
0.0211811
0.015384
0.00378289
0.00687825
0.0031374
-0.00196102
0.00115957
0.000520404
-0.00081523
0.000206346
0.000103477
-0.000174968
4.12578e-05
2.20026e-05
-2.47531e-05
6.18961e-06
2.90403e-06
-2.49891e-06
7.3858e-07
3.19898e-07
-1.73444e-07
6.3024e-08
2.27956e-08
-9.55718e-09
4.0912e-09
1.20796e-09
-4.01458e-10
1.62329e-10
1.14236e-11
-6.33884e-12
1.98929e-11
7.42444e-11
-2.58315e-11
1.46311e-11
7.75683e-11
1.38425e-10
4.02762e-11
-3.90153e-11
-1.44026e-11
4.74995e-12
1.01096e-11
2.95146e-11
7.44772e-12
3.07029e-11
4.58844e-11
-1.31118e-11
-4.3608e-11
-4.73941e-11
-9.96209e-11
-1.959e-11
-3.69613e-10
-3.96653e-11
-1.25258e-09
3.05918e-10
6.01324e-09
-4.90419e-09
1.36771e-09
-1.42667e-08
1.28581e-08
8.8767e-08
-4.65923e-08
4.391e-08
2.54e-07
1.91279e-07
-7.07272e-07
4.64301e-07
3.11514e-06
1.70125e-06
-8.76166e-06
3.77521e-06
3.10795e-05
1.06587e-05
-8.43204e-05
2.30512e-05
0.000242197
4.64202e-05
-0.000601068
0.000104146
0.00141396
0.000107469
-0.0030076
0.00037207
0.00582377
0.000205375
-0.000563191
-0.00731705
-0.00532046
0.000539836
0.00337707
-0.000132968
-0.00165362
-0.0011461
0.000229163
0.000719531
-1.53974e-05
-0.000251568
-0.000173272
5.38439e-05
0.000108345
-4.67465e-08
-2.65304e-05
-1.84196e-05
8.54841e-06
1.23644e-05
3.3254e-07
-1.95769e-06
-1.42061e-06
9.77712e-07
1.11495e-06
5.648e-08
-1.0164e-07
-8.33825e-08
8.43987e-08
8.34924e-08
6.06775e-09
-3.39395e-09
-4.1318e-09
5.97033e-09
5.62579e-09
4.70883e-10
-1.10434e-10
-2.46651e-10
4.01306e-10
3.4154e-10
3.03443e-11
1.06805e-10
3.24039e-11
9.28773e-12
-9.6576e-12
1.73135e-10
3.29754e-11
3.02887e-10
8.44175e-11
5.22394e-11
5.53636e-11
-7.71098e-11
2.90248e-11
4.44847e-10
-2.76829e-10
1.59151e-10
-8.39857e-10
1.04047e-09
-2.73361e-09
3.48371e-09
1.76942e-08
1.72355e-08
5.4446e-09
5.71113e-10
3.8887e-10
1.55575e-09
2.51598e-10
8.85656e-11
1.20799e-10
6.91958e-11
1.63161e-14
1.52721e-11
3.49777e-11
5.14389e-11
-1.12601e-10
-7.42938e-11
1.23503e-11
5.27629e-11
-9.08292e-10
-3.49365e-10
-1.17171e-08
-1.08865e-08
-6.41797e-09
3.32981e-09
3.01006e-09
-5.58992e-09
-3.82792e-09
-4.15531e-10
-2.24834e-10
2.80885e-10
-5.00281e-10
-5.65081e-09
5.2596e-09
-6.74476e-09
-7.56435e-08
9.38775e-08
-5.11154e-08
-1.89182e-07
-1.35503e-07
-8.80497e-08
-1.36278e-06
-1.02514e-05
-9.07017e-06
-1.02091e-05
-1.37812e-06
-1.407e-07
-8.88503e-08
-1.2582e-07
-1.04212e-08
-6.34631e-09
-5.49137e-09
4.05654e-09
1.19508e-08
-7.46545e-08
2.10968e-07
-1.00349e-06
-1.57986e-07
-1.20929e-07
-4.38712e-08
5.43993e-08
-1.32316e-08
-6.53459e-09
-3.9734e-09
3.19466e-09
-1.04226e-09
-4.8616e-10
-6.84985e-09
-1.12473e-08
1.03524e-08
-5.03227e-08
-2.89259e-08
-3.27436e-07
-1.20312e-07
8.3901e-07
-1.1876e-06
-2.43645e-07
-3.87325e-06
-3.44535e-07
1.11625e-05
-1.2423e-05
-2.77981e-07
-3.55402e-05
1.0502e-06
0.00010519
-0.000104899
4.94555e-07
-0.000267811
3.17686e-05
0.00069941
-0.00159148
8.26098e-05
0.00335195
-0.00641965
7.82151e-05
-0.000350871
7.05771e-06
2.12942e-05
9.79542e-06
2.3351e-06
3.72587e-07
4.39707e-08
4.14704e-09
4.36795e-10
5.90549e-11
-5.49881e-11
1.99571e-10
-1.53634e-10
3.96743e-11
1.12631e-11
-1.68552e-11
-2.63778e-10
-8.81868e-11
-1.08131e-10
1.53681e-12
5.20963e-12
-6.54457e-11
-4.49095e-11
-5.55319e-11
-7.46217e-11
-7.89588e-10
-3.93422e-10
1.19096e-10
-2.08169e-10
-1.273e-09
-1.51061e-09
-5.3818e-10
-9.96046e-11
-4.8186e-11
-1.09786e-10
-7.73401e-11
-1.42452e-10
1.92388e-11
-3.98617e-11
-5.51772e-10
-2.7262e-09
-5.42797e-09
-4.38374e-10
-6.2253e-11
1.4679e-10
-2.71212e-10
-1.46199e-09
-9.74808e-10
2.96153e-09
-6.26975e-09
-2.29271e-09
-2.33736e-08
-4.74805e-09
-8.97685e-08
-3.7902e-09
-2.88166e-07
3.12201e-08
1.12238e-06
-1.03646e-06
9.94865e-08
-3.06409e-06
1.15328e-06
1.23562e-05
-3.27953e-05
7.21246e-06
0.000106228
5.0067e-06
1.31333e-06
2.17127e-07
2.5953e-08
2.43686e-09
4.92361e-10
-2.0363e-11
-1.56427e-11
-7.04976e-10
-4.95699e-09
-1.5191e-09
-1.33742e-09
-6.24465e-10
-7.41186e-10
-1.52066e-10
-1.38422e-10
-1.10133e-10
-9.61149e-10
-1.14627e-09
-2.72255e-09
-5.56631e-09
-7.08432e-09
2.37966e-08
7.05086e-07
7.82955e-06
6.09288e-05
-0.000300751
-6.62042e-05
-0.00128609
0.00163443
-0.0173986
-0.0054776
0.000914986
-0.00106931
0.0109114
-0.00952274
-0.0246172
-0.0111763
0.000791707
0.00372904
0.00127176
-0.0248148
-0.0112778
-0.00801514
0.0121976
0.00119909
-0.00103252
-0.00187008
0.00556483
0.000213145
-0.00380673
-0.00465202
0.00467634
-2.49131e-05
-0.00425754
-0.00500294
0.00420659
-0.000119684
-0.00563698
-0.0059415
0.000577903
-0.00026661
2.81389e-05
-1.15632e-05
0.00350264
-0.00318856
0.000121598
0.00152741
2.54392e-05
-6.25087e-05
-0.00184196
0.000221175
-0.00109445
0.00232014
0.000363014
-0.0046962
-0.00858629
0.00357853
-0.000671548
0.00114666
0.00322399
-0.000616003
0.00969252
0.00677538
0.00747874
-0.00622629
0.000623032
-0.0051328
-0.00127567
-0.00567173
0.000660501
-0.00542574
-0.00127673
-0.00547132
0.000656749
-0.00590955
0.00689208
0.00682869
-0.000596733
-0.0217521
-0.0171803
0.00916807
-0.00737743
0.0120497
0.0070987
0.00837077
-0.00883654
0.00191566
0.0014328
-0.0103938
0.00311805
0.00558659
-0.00838439
0.0160361
-0.00906899
0.00126035
-0.00646338
0.000552113
-0.00682098
-0.00519812
0.000488488
-0.000333178
1.34768e-05
2.04847e-05
2.44323e-05
1.03728e-05
2.41308e-06
3.80035e-07
4.44316e-08
4.16715e-09
4.4285e-10
4.9466e-11
1.08184e-10
1.05711e-11
-9.12094e-13
-8.87135e-12
-3.0038e-11
5.85497e-11
-1.85493e-11
5.85625e-11
-1.48143e-11
1.90824e-10
1.73681e-10
1.98273e-10
1.5244e-10
3.85079e-11
1.24183e-10
9.06284e-11
2.48146e-11
7.1168e-11
4.72745e-11
3.13713e-11
5.63164e-11
7.37033e-11
1.87966e-10
1.82098e-10
8.99345e-12
2.80952e-10
2.88256e-10
1.86968e-10
1.88829e-10
1.96476e-10
2.42148e-11
-7.03493e-11
5.7926e-12
1.05129e-11
9.48773e-10
8.52401e-10
4.98263e-10
3.14251e-10
3.50399e-10
1.15026e-10
3.47477e-11
6.27397e-11
1.03417e-10
1.2556e-09
1.04778e-08
5.39317e-08
-3.94603e-08
-3.63325e-06
-3.32161e-05
2.1511e-06
-2.72081e-05
0.000151641
-0.000309986
0.000280415
0.0016325
-0.00165483
-0.000235646
-0.000271145
-0.0137849
0.0131624
-0.000458601
-0.000318957
0.00122913
-0.00155014
-0.000688493
0.00241044
0.00336782
0.00199901
0.0064217
-0.00215527
0.00208846
0.0114169
0.0103587
-0.00110409
0.00118763
-0.000115878
0.000411394
-0.000158678
5.74022e-05
-0.000544003
8.77013e-05
1.74634e-05
2.80508e-07
-2.67905e-07
-5.30255e-08
-4.22699e-08
-4.88468e-09
3.67832e-09
3.23027e-10
5.66927e-10
4.65325e-09
6.48645e-08
7.39381e-07
6.68536e-06
4.75209e-05
0.000273509
8.04222e-05
1.28842e-05
6.66578e-05
8.33673e-06
-4.61191e-07
-2.51961e-07
2.60922e-07
3.4107e-08
4.66997e-08
5.59263e-09
-1.37744e-08
1.73085e-08
-4.45427e-08
2.47906e-07
-6.85396e-07
1.36022e-07
-2.2221e-07
8.65001e-08
1.27538e-08
1.62182e-08
2.45397e-09
1.35528e-09
5.91774e-09
2.34049e-10
3.45559e-11
5.04961e-11
9.06205e-11
5.30726e-10
1.275e-09
4.68017e-11
2.16491e-10
1.4719e-10
4.09186e-11
2.40845e-11
7.97033e-12
-6.73722e-12
-1.79655e-10
-8.83681e-11
-2.90869e-11
-5.74639e-11
-1.2523e-10
-4.84372e-11
2.47875e-11
6.64441e-12
-1.12067e-11
4.62547e-11
7.05486e-11
2.1694e-11
1.43939e-11
2.72533e-11
8.33472e-12
2.63768e-10
8.2534e-11
1.48209e-10
-4.96727e-12
4.02073e-11
5.29364e-11
1.26955e-09
1.49103e-09
5.22367e-10
7.18726e-11
6.42836e-10
1.5018e-09
1.07519e-08
7.07349e-09
3.38613e-09
8.86098e-08
4.38084e-08
2.6297e-08
1.36586e-08
2.22455e-07
1.01829e-07
1.12472e-06
-3.03015e-06
3.0605e-06
-8.69917e-06
3.11332e-05
-8.61815e-05
7.74976e-06
-3.32742e-05
1.22884e-05
1.16931e-06
1.20607e-06
8.78122e-07
4.62225e-07
6.51353e-06
3.78215e-06
1.37596e-06
4.94442e-07
4.50001e-08
2.96185e-08
6.14254e-07
6.88842e-07
2.59291e-06
1.1048e-06
-5.55516e-05
-5.1421e-05
-0.00010895
-7.72159e-06
-5.8453e-06
-1.29259e-06
-1.75965e-07
-1.74001e-08
-6.60354e-09
-7.99221e-09
-1.00309e-09
-5.92426e-08
-7.25655e-08
-2.17852e-09
-3.82566e-07
-4.86735e-07
-4.40542e-07
-5.26696e-08
-1.91525e-08
-1.86491e-08
-7.86992e-09
-1.39855e-10
-1.03281e-09
-3.60057e-09
2.85651e-08
5.26108e-08
-1.50934e-06
-2.13149e-06
6.17408e-07
-2.07853e-06
-4.57073e-06
2.41897e-06
7.98262e-06
5.5438e-05
3.08721e-05
7.97577e-05
0.0026214
-0.000139301
0.000369059
2.85298e-05
4.09263e-05
0.00491908
-6.54007e-05
-0.000492542
0.00578506
0.00277111
-0.0245656
-0.00956707
-0.00945857
0.0128376
-0.00978678
-0.0105236
0.0119703
-0.0102318
-0.000271693
-0.000470072
-0.0140971
0.0136253
0.000348312
-0.000183225
0.000308323
0.000391221
0.000427715
0.00599976
0.00278419
-0.00977812
-0.0104372
0.0139826
0.00114029
-0.00300875
-0.000709636
0.00466207
0.000158607
-0.00563278
-0.00351289
0.00356224
-8.67498e-06
-0.00591108
-0.00393324
0.00302579
-0.000133324
0.00510063
0.00490156
8.31764e-05
0.0092393
-0.00972515
6.51924e-05
-0.00549059
-0.000126552
-6.3565e-05
-8.10986e-06
5.84548e-07
1.75831e-07
-1.52469e-08
-8.86812e-09
-1.42323e-09
-1.46946e-10
-6.52801e-09
-1.58151e-08
-3.20683e-09
-7.47636e-08
9.11801e-08
-8.99865e-09
-9.21732e-07
1.54782e-06
3.10738e-06
-1.14471e-05
3.62913e-05
-0.000105914
-1.07737e-05
-2.31915e-05
-2.07431e-06
1.02311e-05
-1.51626e-06
-1.87586e-06
-3.79069e-07
8.2207e-07
-5.03007e-07
-2.63479e-07
-1.78624e-06
-1.34169e-06
3.8162e-06
-8.35395e-06
-1.30838e-06
-4.1986e-05
-5.20647e-06
0.000107771
-0.000110907
-4.9832e-06
-0.000288599
-2.84936e-06
-0.000706704
-4.76169e-06
-0.00160264
-4.70684e-06
0.00334082
-0.00347476
-3.23952e-05
0.0064814
-3.44011e-05
-0.00637251
0.00633553
-2.09354e-05
-0.00338262
0.00342754
-0.006394
3.12554e-05
2.78496e-05
5.26266e-05
-2.70088e-07
-4.70232e-06
-1.45609e-06
-2.49467e-07
-2.97313e-08
-6.53443e-08
-6.34926e-07
-1.24101e-06
-9.84864e-07
-9.28875e-06
-8.66408e-06
-9.66927e-06
1.97822e-05
6.94443e-06
-8.31293e-05
0.000185956
0.000320812
-0.000758222
0.00203531
-0.00389894
-2.2923e-05
-0.00168193
0.000143741
0.000736499
-4.82902e-05
-0.00022485
-3.10299e-07
0.000100281
-5.69533e-05
-3.32936e-05
-0.000185486
-5.12917e-05
0.000375608
-0.000547751
2.2772e-05
-0.00193129
-1.22043e-05
0.00398877
-0.00343296
3.33725e-05
0.00651759
8.13219e-05
-0.00754375
0.00460235
0.000101393
-0.00280795
0.0020304
-0.00595171
-0.000161811
-0.00234632
-0.000937905
-0.00142864
-0.00232355
0.00367762
-0.00901588
0.00175379
-0.00403895
-0.000822552
-0.000117589
-1.2649e-05
-1.04984e-06
-6.97032e-08
-3.79293e-09
-1.96906e-10
1.47508e-11
-5.40236e-11
-3.98736e-11
5.9647e-11
-1.23648e-10
6.09122e-11
-2.17058e-10
-3.57393e-11
-2.9691e-11
-7.20932e-11
-2.25071e-11
1.62159e-10
-4.80566e-10
-1.95856e-10
-1.52982e-09
-4.19571e-10
-6.22874e-09
-2.80444e-10
-2.01054e-08
3.49319e-09
8.72477e-08
-7.61873e-08
1.34333e-08
-2.28278e-07
1.36506e-07
1.14843e-06
4.7768e-08
3.55081e-08
3.18371e-07
4.16612e-09
2.28606e-08
-2.12337e-10
-2.84591e-09
-2.66766e-10
-1.03987e-10
-1.03008e-10
-3.07398e-12
-6.93194e-11
-7.79036e-11
-6.90653e-11
1.36248e-11
-4.72037e-10
-8.62416e-10
-3.17904e-09
-2.62558e-09
-2.2568e-08
-1.16148e-08
5.31571e-08
-9.16028e-08
-2.68816e-08
-3.24136e-07
-4.73241e-08
-1.15465e-06
-3.97925e-08
-3.5438e-06
2.17159e-07
1.21309e-05
-1.1704e-05
4.63525e-07
3.74543e-05
1.01324e-06
2.32655e-07
3.81231e-06
-3.35636e-08
-2.81361e-07
-3.18204e-08
-1.27231e-08
1.28869e-08
-1.12418e-09
7.27829e-10
-2.86862e-10
-7.18012e-10
2.71864e-10
-1.02293e-09
-2.69043e-09
-9.61138e-09
5.04771e-09
-1.38488e-08
-1.38296e-08
-1.20472e-07
-1.35007e-07
-7.13594e-07
-2.41136e-07
-4.10475e-06
-9.55671e-07
1.08166e-05
-1.2863e-05
-1.51023e-06
-3.78545e-05
-1.56321e-06
-0.000107045
-1.25296e-06
-0.000277396
2.5104e-06
0.000697787
-0.000713056
-8.25243e-06
0.00164536
7.44276e-06
4.82727e-06
1.77081e-06
2.37126e-06
2.64659e-06
4.22227e-07
4.99375e-08
4.73155e-09
7.16489e-09
5.68121e-09
5.36061e-08
1.61508e-07
1.30572e-07
1.29063e-06
9.79426e-06
6.0942e-06
2.04356e-06
3.91348e-07
4.85247e-07
6.71603e-08
1.75664e-07
1.81144e-08
5.81582e-09
-6.72254e-09
6.65002e-09
-6.42144e-09
9.05372e-08
8.89701e-08
-1.17909e-07
-1.21346e-07
9.2065e-08
8.02044e-08
8.73189e-08
-1.13333e-07
-9.34596e-08
9.16583e-08
-4.11567e-09
6.41174e-09
-6.52058e-09
5.87788e-09
6.91787e-09
6.9316e-09
6.06596e-09
6.44332e-09
-3.99142e-09
-6.83729e-09
5.76154e-09
8.19759e-08
8.78368e-08
-9.36025e-08
-1.19187e-07
3.45527e-08
9.8958e-07
9.79433e-07
-1.66293e-06
-1.79445e-06
-1.81476e-06
-1.85918e-06
9.77199e-07
1.07356e-06
1.0953e-06
3.62326e-08
9.6825e-07
9.81667e-07
-1.71881e-06
-1.66189e-06
1.1282e-06
4.30739e-08
-7.72959e-08
-9.98355e-08
8.29447e-08
5.95673e-08
5.87838e-09
-3.76622e-09
-3.41901e-09
5.80552e-09
4.22042e-09
6.69329e-09
-1.38782e-10
5.04535e-10
-3.38997e-10
4.84124e-10
-4.32474e-10
3.88158e-10
-3.06936e-10
4.53756e-10
-3.22681e-10
4.29764e-10
-4.87398e-11
6.63164e-09
4.34724e-09
3.4161e-10
3.64427e-10
5.59419e-10
-1.43904e-10
1.00923e-10
2.28688e-11
-1.70054e-11
-4.09191e-13
-3.42285e-12
5.62387e-11
-8.38446e-11
-6.04807e-11
1.45926e-11
-2.33937e-11
-3.08193e-11
-8.21258e-12
4.89929e-11
-2.55155e-11
1.66795e-10
2.61938e-11
4.52006e-10
5.4396e-10
5.28124e-10
5.0114e-10
5.82222e-10
2.74935e-10
4.08723e-11
2.1638e-10
7.32249e-11
1.89389e-11
6.26475e-11
2.10208e-11
8.34322e-10
1.08312e-08
1.16364e-08
1.37352e-07
1.32779e-06
1.27588e-06
-9.80524e-08
1.10016e-05
8.42583e-06
-2.17716e-05
-2.23282e-05
-2.05722e-05
-2.20167e-05
8.59238e-06
9.89355e-06
1.16588e-05
-1.75323e-08
-1.33678e-06
-1.94856e-06
9.70941e-07
7.68163e-07
1.10563e-06
5.8177e-08
6.24717e-08
-1.75021e-07
3.09831e-07
7.35109e-07
-2.53079e-06
3.08053e-06
6.65166e-06
-2.59843e-05
2.31774e-05
5.01196e-05
-0.000180323
0.0001556
0.000399664
-0.000403484
0.000567751
-0.000125502
9.34612e-05
-1.69606e-05
1.14831e-05
-1.44854e-06
1.04233e-06
-8.05223e-08
7.16325e-08
2.30365e-08
-8.98902e-09
8.227e-08
6.06893e-09
4.00768e-09
-3.5645e-10
1.38784e-09
3.79684e-09
-2.9667e-09
-1.82228e-10
9.56372e-11
3.73646e-10
-1.05514e-10
3.32631e-10
-1.42913e-10
3.70623e-10
3.26785e-10
4.43865e-10
-1.6046e-10
4.88592e-11
-8.01914e-12
-3.06108e-11
2.38709e-11
-5.45651e-13
-3.40527e-12
4.84769e-11
-1.1615e-10
9.18666e-11
3.56034e-10
3.19113e-10
5.94859e-10
8.72887e-11
-5.33309e-11
-5.95978e-11
5.67407e-10
9.54762e-09
8.4337e-09
1.34845e-07
1.82499e-06
1.94579e-05
8.65625e-06
-1.76534e-05
-2.69926e-05
1.24158e-05
8.3354e-06
-1.01045e-06
-2.55428e-08
2.36611e-09
-7.0417e-10
1.31446e-07
1.61926e-06
1.62593e-05
-1.48812e-05
-4.83794e-06
9.64644e-05
5.52922e-05
-0.00018361
-0.000210714
-0.000167827
-0.000266346
5.49645e-05
7.2747e-05
0.000111169
5.62349e-07
1.10226e-05
1.49598e-06
1.58958e-06
6.7305e-06
7.65029e-06
-0.000280777
0.000250767
-0.000632351
9.17433e-05
0.000119586
3.40878e-05
2.28539e-05
5.66917e-06
8.64252e-07
0.000108063
1.31964e-05
-5.81084e-06
0.000728478
3.81287e-05
1.63347e-05
5.40886e-05
0.0002054
-9.92975e-06
5.50769e-06
6.53052e-06
7.58581e-06
2.48235e-06
6.16629e-06
1.11516e-05
4.11784e-07
-9.75198e-06
-2.64073e-06
-1.37266e-06
-1.31412e-06
-1.81918e-07
-7.16892e-08
-6.0378e-08
-1.55613e-07
-1.136e-06
3.27607e-07
2.28853e-06
1.58092e-07
6.05452e-08
4.48885e-08
3.96091e-09
-5.30332e-10
7.86989e-10
-9.44725e-11
3.99453e-10
3.39977e-11
8.43195e-09
1.17571e-06
1.2922e-06
1.67382e-05
1.64658e-05
1.61e-05
0.0001411
0.000139209
0.000184958
2.45046e-05
-0.000558217
0.0012281
0.000484473
-0.0026703
0.00090711
0.000728876
0.000733815
0.00050879
-0.0171084
-0.0202576
-0.0363439
0.00970951
0.00234743
0.0139334
-0.0051539
0.0105867
-0.000862907
-0.0107707
0.0104975
-9.03925e-05
0.00516243
-0.000227315
0.0095644
-0.0103979
-0.000768701
-0.000231969
-4.71518e-05
0.000283477
-0.00057599
0.0051183
-9.46966e-05
0.000393002
5.00831e-05
-1.31476e-05
-9.34207e-06
-6.24153e-06
-6.01839e-06
-5.19388e-05
-4.79889e-05
-5.32636e-05
-0.000141141
-0.000165732
-6.35611e-05
-2.33988e-05
-4.66215e-06
2.12254e-05
-7.73874e-05
-2.3513e-06
-0.000332669
-1.58058e-05
0.000789548
-0.000726966
1.84114e-07
-0.00163327
5.3637e-06
0.00160219
-8.92591e-07
-3.09103e-07
-1.74526e-06
-5.31053e-06
-9.27981e-06
7.45241e-05
-9.33278e-06
-4.79121e-06
-2.15955e-06
-4.84274e-07
-4.07304e-07
-1.95566e-08
-2.22337e-09
-2.2628e-10
1.951e-08
-5.4505e-09
7.03481e-08
-4.85163e-10
4.58641e-09
1.1925e-09
-6.1261e-11
2.58161e-10
9.64784e-11
1.01897e-10
-4.92065e-12
-5.77276e-11
-5.48146e-08
-1.27085e-07
2.06764e-07
-2.35742e-08
-1.28593e-07
2.37466e-07
-1.79271e-07
-1.28973e-07
-1.51718e-06
1.744e-06
-1.96877e-06
-3.53653e-06
-2.10075e-05
-1.01687e-05
4.48651e-05
-1.44254e-05
-1.77278e-05
1.01663e-05
1.4327e-07
-9.49767e-07
2.86372e-06
-4.03529e-07
3.45346e-06
-1.70349e-06
-4.36792e-06
3.18864e-05
-1.78844e-06
0.000102196
-5.4237e-06
-3.85222e-06
0.000269508
-0.000108189
0.000188749
-0.000138657
-0.00022694
-0.001237
-0.000117232
0.00117444
-0.000615985
8.87334e-05
0.000226272
-0.00073578
-0.00367859
-0.000418768
-0.000415737
-3.37933e-06
0.000197013
7.10882e-05
0.00163117
1.7223e-06
5.35922e-05
0.000152528
8.52925e-05
-0.000115741
3.99354e-05
1.36448e-05
-2.24801e-06
0.000703704
0.000276547
-1.35488e-06
-2.58889e-07
-6.58966e-06
-3.63937e-05
-8.63168e-05
-0.000443378
-0.000224626
-0.000116339
-1.60856e-05
1.32825e-06
0.000287911
3.76541e-06
1.53755e-06
3.22844e-07
7.56893e-07
6.55568e-08
4.65776e-09
1.90976e-09
2.6267e-08
6.83501e-06
4.73278e-05
0.000246773
9.4958e-06
0.00026845
2.9168e-06
-0.000519353
0.0015883
0.004577
-0.00314973
0.0161533
0.00435082
0.00216683
0.00164693
0.000559626
0.00011638
1.59993e-05
1.61131e-06
1.31067e-07
9.39325e-09
1.04175e-08
6.72369e-10
1.35522e-10
7.21698e-11
-1.09126e-10
2.27663e-11
-8.85889e-11
-6.38638e-11
5.02831e-10
8.5412e-09
2.22541e-09
5.72487e-09
6.12456e-08
9.11366e-08
1.30563e-07
1.80718e-08
7.08155e-09
6.25611e-10
5.53755e-09
1.62223e-08
7.14815e-09
5.03221e-10
7.33006e-11
1.16046e-09
1.31666e-09
8.89326e-08
1.5964e-07
1.74244e-07
6.59147e-08
5.11465e-08
3.60866e-07
4.7132e-07
1.2576e-06
1.28083e-06
9.65099e-06
9.90746e-06
5.43136e-05
1.39845e-05
-6.21336e-05
-0.00020026
5.40841e-05
-0.000194304
0.000535899
0.000244909
-0.00123712
-0.00128479
0.000554052
0.000513924
0.000245071
-0.00116831
-0.00140483
0.000606351
-6.25923e-05
0.000486899
0.000756638
-8.79947e-06
4.52586e-05
-0.00013103
0.000153149
0.000829634
0.00276364
0.00274315
0.0015453
0.00931196
0.0219757
0.00530154
0.0118483
0.0175273
-0.00234701
-0.000714226
0.000606718
0.000121277
-0.000119828
-1.52285e-05
8.15245e-05
8.91156e-05
8.6757e-05
8.26662e-05
5.46715e-05
-0.000204104
-0.000190479
-6.2934e-05
0.000520725
0.000246078
-0.00133641
-0.00122336
-0.000402917
0.00237929
0.00256014
0.00223026
-0.000412023
-1.93082e-05
-3.71475e-05
2.47047e-05
1.4844e-06
4.12332e-06
-4.0217e-06
-3.95468e-06
-1.69885e-05
-1.07536e-05
-0.000175003
0.00162917
-0.000148843
-3.43879e-05
-0.000103882
-0.000313815
-0.000211749
-0.000318117
-8.04053e-05
0.00385504
-0.000153718
2.22607e-05
9.26988e-06
7.69536e-06
-3.82785e-06