/*--------------------------------*- C++ -*----------------------------------*\
| =========                 |                                                 |
| \\      /  F ield         | OpenFOAM: The Open Source CFD Toolbox           |
|  \\    /   O peration     | Version:  2306                                  |
|   \\  /    A nd           | Website:  www.openfoam.com                      |
|    \\/     M anipulation  |                                                 |
\*---------------------------------------------------------------------------*/
FoamFile
{
    version     2.0;
    format      ascii;
    arch        "LSB;label=32;scalar=64";
    class       volScalarField;
    location    "2.2";
    object      gradTz;
}
// * * * * * * * * * * * * * * * * * * * * * * * * * * * * * * * * * * * * * //

dimensions      [0 -1 0 1 0 0 0];

internalField   nonuniform List<scalar> 
5712
(
7223.49
23736.3
5731.47
24341.3
4306.72
25186.4
6804.75
38860.3
8363.46
53439.7
8297.22
38902.8
7999.56
32275.3
8313.8
28830.8
5030.83
3104.4
13447
7969.62
4933.26
2657.95
14735.4
7313.52
5490.83
3968.45
17611.8
12363.2
4152.09
2977.18
17324.3
12559.2
9735.15
4117.52
8399.32
3738.14
3856.21
9069.8
33727.5
9146.63
12072.1
4091.79
43482.5
11815.2
11319.5
3924.43
24063.7
7470.8
12346.4
4312.27
20901.3
6648.95
5831.95
2891.51
8661.28
3368.02
6309.06
3412.53
8449.87
3234.92
8026.05
4570.23
7282.01
3156.31
10799.2
3875.27
3717.6
1296.14
12214.5
8450.04
7566.72
5524.24
13704.2
11271.8
7493.02
6484.73
7150.5
4816.78
10053.6
6702.96
4993.34
3667.02
2544.55
2086.3
4836.81
4178.59
2512
2421.88
4779.57
3126.26
2455.17
1572.24
6375.29
3461
4767.09
5766.94
8703.95
6191.02
6887.5
9851.78
4226.5
1998.81
2815.83
3306.93
2103.13
871.641
1218.81
1226.8
7644.61
13719.5
5192.96
15327
8976.85
13441
6393.98
16064.7
10218.4
12184.9
8250.68
15708
12176.9
14590
9102.25
8750.08
9590.19
14568.9
13395.4
13097.9
13398.9
19371.4
11840.5
9062.83
7805.44
8736.88
13740
15860.6
14135.8
18404.9
17655.8
14522.8
13436.9
18189.7
17298.1
12575.1
12242
17078.1
16682.8
10623.3
8316.33
9823.52
8526.42
10689.2
9508.74
11456.6
10952
15750.9
16071.4
9934.02
8576.75
9427.72
9002.4
9684.01
10200.1
10878.7
12151.5
14197.3
16348
8193.11
6429.71
5634.47
7181.39
11121.3
13567.3
7719.66
12223.4
4757.18
6268.61
7075.35
5827.29
1358.2
4770.4
711.301
1717.48
3947.7
8226.06
1463.82
2856.16
635.639
4033.29
362.235
1415.14
4666.05
4742.09
5302.14
3284.22
7376.75
5890.88
8675.63
5966.75
1079.92
2596.96
2629.23
1489.06
1471.65
1911.35
2084.48
1573.47
11232
6811.45
2138.33
12723.5
7288
2383.39
10771.6
6740.22
2269.93
12533.2
7299.04
2381.7
9911.85
6187.5
2030.73
12241.1
7340.64
2450.16
5414.27
2916.95
784.387
6891.63
4529.79
1573.99
8189.67
5646.14
1945.69
9450.34
6105.76
2024.75
12132.4
7548.92
2639.43
6442.47
3606.87
1139.33
6465.6
4645.65
1749.84
7649.49
5647.47
2070.32
9563.35
6703.16
2393.26
12268
7636.11
2705.33
298.961
2009.65
2841.04
4102.97
2171.98
2496.99
5459.16
5182.05
602.294
1036.02
643.111
1079.24
488.425
1418.09
871.415
1860.13
3228.56
1579.02
4082.05
2359.05
2176.58
3799.44
3403.94
948.5
6061.35
1491.04
-1892.77
740.376
1797.5
1348.89
1253.12
1166.83
9857.95
4554.54
2695.64
1685.48
10012.8
4736.83
3390.47
2131.86
9886.29
5101.12
4924.17
3483.84
3529.85
2559.59
1760.29
1691.58
12607.2
11215.4
5942.29
6171.57
13504.4
12680.6
6666.63
6726.67
5313.23
5475.05
10885.4
9113.82
3555.07
3720.84
2000.7
2268.81
4115.47
4091.26
2272.17
2431.1
3120.91
3364.76
1764.82
2161.46
4766.69
3377.27
4769.68
3435.73
7413.05
4454.97
7091.9
4750.68
2884.56
2449.7
3024.62
2225.93
1628.05
1544.94
1929.31
1309.87
11720.9
8256.96
5979.33
6139.65
11671.8
8447.43
6014.57
6110.57
12104.8
8760.78
6100.79
5936.76
13830.7
14852
12684.8
8565.53
4959.22
14072.4
13115.8
12284.3
10255.2
6769.43
13196.9
11997.9
9663.13
7522.96
4802.88
7100.07
6381.96
6689.51
7721.03
7301.49
6256.06
6748.31
7613.43
7580.88
6185.31
6803.78
7496.96
10619.9
7488.88
9990.97
6970.91
7955.82
6469.79
7535.96
6513.18
6307.55
7418.52
8820.06
7651.77
7865.76
6888.55
6792.48
6200.23
6090.57
6109.31
4979.46
7062.43
7032.08
4757.29
4677.23
2785.41
9125.31
7031.76
6352.56
5099.72
3859.56
2326.36
5599.68
4161.59
4737.22
2236.57
1741.89
1003.3
4987.88
3602.49
1749.92
1448.79
4129.44
1852.99
1631.95
862.614
3269.59
3044.11
2939
4343.31
4551.42
4354.44
3753.64
5573.85
3296.38
2166.26
2120.79
2939.79
1009.1
495.242
245.048
563.981
4434.29
1848.38
544.92
5136.72
1326.21
352.579
4477.06
1992.76
611.38
5120.79
1378.21
384.329
4160.31
1964.55
507.195
5023.63
1400.42
327.593
4607.43
2318.97
509.317
4225.56
2026.52
471.764
4211.83
2011
541.192
4240.2
1981.76
416.386
5000.96
1373.35
204.476
5858.42
2928.47
774.37
5346.72
2648.54
719.681
4930.34
2430.14
704.747
4745.46
2020.37
493.617
5416.11
1281.99
312.364
1789.42
644.174
127.707
-200.02
745.174
283.407
77.2611
-39.7272
1897.67
707.376
182.857
-122.493
947.57
394.674
190.154
88.642
2040.66
788.435
277.695
-2.56834
1625.74
761.735
298.051
68.0036
1242.7
704.542
253.745
-10.9442
1170.41
771.493
452.918
270.14
1695.29
755.276
231.942
-179.191
1453.51
638.978
280.464
-179.932
2001.67
778.363
251.539
-129.012
1812.99
708.663
282.765
-295.763
1363.66
705.353
283.5
-57.3822
1118.88
566.625
304.041
2.67076
1012.01
624.351
373.231
230.27
774.231
480.914
322.836
190.962
2279.65
776.198
125.31
-397.37
2260.41
715.058
180.515
-542.135
2278.83
788.566
146.651
-378.165
2191.2
696.347
188.894
-525.478
2237.6
793.067
225.211
-267.396
2046.86
660.176
233.881
-428.85
1963.99
734.96
312.778
-31.7733
2246.03
740.757
330.784
-500.856
1757.85
658.927
314.52
-117.824
1793.99
504.444
162.647
-366.538
714.845
183.447
44.4458
-76.0691
1853.7
539.42
182.164
-348.94
745.101
198.696
57.3245
-61.6769
1888.07
579.174
226.336
-305.338
759.095
216.226
74.3634
-44.0161
1703.56
547.341
261.265
-239.703
737.542
223.879
102.439
-12.4934
1561.5
545.996
285.125
-137.805
660.871
236.909
140.269
30.4793
1091.97
442.852
217.15
-41.5246
623.843
310.968
189.906
100.807
1259.72
448.631
220.305
-99.9076
628.645
269.994
165.582
66.1919
881.807
429.737
239.067
37.903
561.105
327.996
209.24
134.676
625.197
391.017
267.736
166.703
469.87
327.001
230.24
174.419
-18.0412
7.60672
7.76177
5.43648
4.13665
-2.71136
5.14867
4.38074
3.00433
2.28628
9.21253
21.9603
15.861
10.4305
7.80907
26.7698
21.4572
13.7403
8.78282
6.52748
39.0854
39.5033
26.1737
16.9582
12.6687
109.403
72.8533
44.6389
28.2886
20.9811
131.528
86.0211
52.6659
33.4501
24.884
191.469
113.973
67.7568
42.6411
31.6702
69.0867
57.808
37.0147
23.7718
17.653
74.0434
54.5489
34.1506
21.8788
16.2561
47.5199
46.3279
30.2245
19.5834
14.6142
87.7936
56.6313
34.2381
21.7721
16.1257
90.252
69.0453
43.6697
27.9925
20.8416
99.4424
65.304
39.9918
25.4625
18.9252
152.18
91.8241
54.7261
34.4687
25.5901
127.189
75.8177
45.115
28.4141
21.0613
-33.2324
3.86288
5.75378
4.17519
3.20286
-18.1449
1.21585
2.25639
1.66958
1.29782
-15.3408
12.8747
10.7618
7.25692
5.48909
-11.7552
4.40837
4.00007
2.72464
2.08255
7.23167
23.3632
16.4699
10.8162
8.16195
12.4103
15.015
9.64637
6.12412
4.59789
57.3258
45.7597
28.7018
18.4696
13.8503
38.2786
28.9153
17.7245
11.3107
8.48267
106.36
60.0782
35.1587
22.1048
16.3696
1637.75
3743.71
1653.32
3705.04
1805.59
3674.77
2150.93
3822.84
2245.47
3944.74
905.372
1400.18
1483.31
2361.08
483.447
686.779
173.835
230.491
8539.61
2038.48
466.887
104.216
25.8716
2326.51
626.256
166.499
37.8412
8.21879
8446.16
1999.69
457.543
101.27
25.3256
2367.64
698.274
172.022
39.9732
9.92116
8077.67
1898.96
432.825
95.6693
23.9515
2298.12
675.303
165.925
38.3643
9.55622
7413.9
1727.27
392.46
86.6655
21.7022
2234.02
642.774
155.884
35.7229
8.85019
6223.98
1442.46
327.89
72.4995
18.1765
2113.22
591.561
141.89
32.3107
7.98061
2957.61
716.718
165.691
36.8983
9.26436
1031.66
293.406
69.8096
15.6198
3.84855
4398.98
1051.04
241.115
53.4356
13.396
1518.03
426.171
102.265
23.2729
5.78664
1738
424.542
98.5998
22.064
5.55009
577.387
170.828
40.3962
9.03402
2.24688
600.731
145.866
33.9554
7.62428
1.919
231.656
62.119
13.5895
3.81636
0.739513
115.604
498.249
4559.09
-842.848
752.067
805.985
2351.28
3010.4
1896.49
3556.09
2986.24
4605.16
3598.66
4466.13
1870.22
2518.92
1995.4
2366.84
1037.74
1079
2307.34
1685.21
533.697
-429.865
-726.053
-870.266
-243.497
12975.7
3176.42
4281.31
2792.66
-124.772
6.13356
3000.55
-1347.12
-733.852
-1025.04
-530.481
7122.57
3772.15
1337.44
1088.98
3679.11
2055.88
668.404
1405.54
-1433.47
-812.71
734.584
590.895
8709.56
4311.56
5355.59
2872.36
4093
4502.98
1568.66
-842.736
965.417
1633.95
1337.75
1153.06
1037.44
793.736
1334.37
1074.64
841.056
592.968
255.318
468.879
389.78
296.299
188.767
65.7814
-383.892
-320.265
-238.937
-146.781
-49.4242
-648.719
-541.757
-404.934
-249.26
-84.004
-778.671
-651.482
-487.947
-300.903
-101.514
-211.826
-169.25
-118.601
-67.7837
-21.5452
9389.14
8122.23
6918.35
6324.03
5849.7
2809.58
2456.26
2278.07
1890.98
994.857
3271.77
2600.69
2178.71
1698.35
883.301
2142.48
1718.62
1484.19
1139.09
476.61
17.0055
49.6373
151.647
160.422
79.1272
93.3108
164.166
196.166
167.71
70.516
2541.91
2117.71
1663.3
1154.98
473.287
-814.622
-396.976
-156.438
-28.7845
6.01434
-583.879
-415.323
-251.327
-119.968
-31.2001
-721.706
-447.45
-231.155
-90.9647
-19.1482
-480.773
-399.896
-292.452
-174.274
-56.8005
5271.26
4757.96
4105.66
3781.74
3515.97
2898.99
2283.75
1886.79
1426.82
693.49
1230.03
1103.44
927.694
661.212
260.322
957.68
817.257
654.647
447.643
169.79
3065.31
2469.03
1877.36
1245.45
479
1819.07
1541.1
1208.41
800.777
289.879
582.519
487.665
379.71
251.059
91.5252
1238.92
1035.75
793.015
509.349
179.147
-1243.43
-1003.41
-724.773
-433.776
-143.577
-715.209
-583.778
-423.343
-252.313
-82.9374
656.113
564.494
451.927
305.727
112.95
530.332
458.457
367.987
248.327
90.8253
5623.12
4100.09
3520.38
3229.99
2818.42
3290.83
2556.89
1972.39
1403.81
631.215
3938.46
3220.45
2598.02
2012.32
979.476
2293.88
1867.43
1451.85
1016.65
441.873
3481.9
2845.26
2170.36
1423.42
526.47
3408.11
2519.86
2033.69
1517.49
640.292
1369.84
1137.73
870.242
561.885
199.528
-748.106
-617.82
-454.392
-274.681
-91.2508
850.552
725.175
579.331
393.747
146.524
-27641
-45272.8
-22917.1
-36646.2
-24561.4
-51483.1
-29399.5
-65375.6
-17503.4
-11965.4
-19700.1
-12262.1
-16142.8
-10364.4
-19997
-10513.5
-22860.3
-17219.1
-33302.1
-23984.9
-19635.5
-15644.8
-27833.6
-20906.2
-15740.8
-16079.6
-12919.9
-12415.2
-15210.6
-14328.9
-38409.8
-10593.2
-14616.7
-5453.55
-46978.7
-13019.4
-13066.5
-4853.03
-28567.3
-8993.9
-14967.2
-5728.93
-25395.8
-7893.34
-11803
-4747.74
-15038.6
-5448.28
-11202.2
-4925.34
-13071.7
-4730.44
-11611.6
-5632.89
-10442.5
-4144.23
-13389.3
-4726.49
-4696.48
-1648.67
-10001
-6642.24
-8632.29
-5260.32
-8818.97
-7089.13
-7571.5
-5397.16
-8781.09
-4995.82
-10281.8
-6410.71
-5912.49
-3526.01
-3178.94
-1951.24
-5099.06
-3513.55
-2646.93
-1882.64
-6009.82
-3265.88
-3316.93
-1661.71
-7741.64
-3930.72
-5006.78
-5826.14
-9823.92
-6601.34
-7050.95
-9834.62
-5248.81
-2353.99
-2996.48
-3364
-2832.25
-1139.84
-1349.81
-1274.77
-11600.7
-14113.5
-6538.24
-15965.5
-12062.8
-13468.6
-7509.68
-16325.2
-12192.9
-12266.4
-8950.39
-15537.8
-8338.71
-6725.47
-9135.5
-10124.6
-10101
-9204.13
-10635.6
-12341.3
-13270.3
-18846.2
-6326.23
-6528.93
-7107.1
-8599.88
-13440.9
-13400.5
-9347.83
-17003.6
-13080
-12422.5
-9201.4
-16753.3
-13027.6
-10996.7
-8596.68
-15637.1
-12897.5
-7547.95
-6008.92
-7789.51
-6224.83
-8698.72
-7024.49
-9508.61
-8058.15
-14249.6
-12966.4
-7090.78
-6113.72
-7128.92
-6176.05
-7842.31
-7314.87
-9421.19
-9326.37
-13154.6
-13529.2
-6511.81
-5200.45
-4790.55
-6283.37
-8147.83
-11268.3
-6161.61
-10409.3
-4396.03
-5807.25
-6282.21
-5138.69
-837.755
-4138.89
-245.212
-1220.46
-2960.99
-7152.25
-655.158
-1997.38
-414.662
-3701.74
-143.55
-1143.87
-4522.01
-4504.34
-5209.3
-3135.02
-7004.28
-5447.01
-8431.38
-5545
-996.164
-2433.54
-2562.82
-1391.78
-1380.17
-1770.58
-2017.78
-1483.53
-5670.84
-1950.66
-7673.67
-2618.38
-5797.16
-2035.8
-7855.8
-2820.4
-5752.01
-2004.6
-8320.56
-3210.15
-3532.04
-990.864
-4401.81
-1690.75
-4968.49
-1930.39
-5980.38
-2266.01
-8784.18
-3500.55
-4499.96
-1363.03
-4043.94
-2006.27
-4879.84
-2331.26
-6586.99
-2886.02
-9106.51
-3444.82
-6089.74
-5711.38
-4584.4
-4508.19
-10212.6
-7808.39
-8294.92
-6874.44
-4125.43
-3587.48
-1687.19
-1215.08
-3886.64
-3764.78
-1551.97
-1622.79
-2935.92
-4594.2
-3497.17
-4965.28
-3746.09
-2454.75
-3189.72
-491.103
-6735.51
-1754.61
2596.86
441.15
-906.199
-268.86
248.515
687.966
-2442.96
-1731.28
-908.374
-544.857
-2596.78
-1834.58
-1360.96
-631.586
-2899.7
-2203.78
-1802.86
-874.367
-1170.45
-78.8747
656.4
1086.31
-5053.98
-5447.05
-3895.91
-3654.96
-6814.38
-6832.44
-5651.08
-4749.65
-2548.43
-2861.93
-3829.33
-4419.58
-2348.12
-2044.56
-973.633
-896.68
-3622.07
-2844.94
-1824.43
-1434.49
-1314.19
-1484.34
-210.268
-565.41
-1686.49
-1201.44
-2451.59
-1791.54
-2656.21
-2180.86
-3793.01
-2943.22
-596.709
-360.61
-1189.85
-698.025
407.854
535.519
-295.782
162.498
-3565.39
-4495.14
-3041.94
-4519.33
-3525.9
-4486.06
-3112.25
-4511.1
-3716.22
-4152.7
-3285.61
-4285.85
-2830.96
-4721.12
-2421.16
-2137.9
-2341.55
-7092.18
-5023.55
-4614.6
-4801.25
-4955.45
-5691.43
-4779.82
-4050.16
-3782.94
-2994.2
-5345.27
-5369.6
-6990.63
-10810.1
-5064.03
-4830.94
-6708.31
-10302.2
-4657.63
-4461.31
-6191.2
-9496.92
-6912.52
-5302.11
-6227.97
-4729.04
-5439.11
-4320.13
-5551.56
-5098.78
-5740.68
-8776.31
-5600.15
-5280.03
-4740.74
-4752.09
-4258.33
-4497.17
-4389.55
-5230.42
-4029.22
-7684.34
-3879.46
-2762.92
-2657.81
-961.657
-5595.43
-4901.14
-4337.59
-3195.47
-2050.71
-728.084
-3141.81
-2503.6
-3207.52
-972.065
-444.046
115.657
-3606.7
-2358.13
-637.678
-368.432
-2640.88
-704.983
-286.608
183.02
-1872.22
-1938.25
-2052.38
-3874.95
-2910.93
-3295.04
-2937.04
-5406.43
-2003.85
-1266.9
-1126.04
-2355.28
252.908
394.494
814.587
136.613
-3842.41
-1118.23
-7258.32
-723.472
-3592.45
-1206.02
-7057.75
-751.04
-2756
-728.981
-6415.15
-582.1
-2913.84
-652.272
-2674.84
-620.104
-2895.64
-878.54
-3018.78
-560.879
-6032.91
-760.654
-4055.81
-793.12
-3721.91
-595.585
-3764.99
-735.64
-4161.73
-611.812
-6336.84
-759.838
-756.335
-154.415
169.747
424.503
-254.148
-38.6169
65.4411
133.219
-745.017
-120.367
185.024
397.839
-172.34
33.9575
65.8147
75.3219
-761.987
-80.7804
182.85
346.792
-6.63304
238.212
371.817
407.981
544.525
471.885
543.834
559.557
998.788
707.665
543.371
395.434
-329.5
122.112
384.724
644.498
-265.699
174.756
302.098
643.216
-822.056
-65.4683
244.997
528.897
-626.96
59.8672
268.03
788.525
134.976
308.905
411.986
545.952
62.5391
275.151
305.659
462.162
583.157
483.63
401.612
316.403
409.073
378.322
308.864
290.483
-1201.98
-265.695
201.306
693.011
-1499
-314.37
65.695
862.923
-1152.81
-229.443
219.089
706.039
-1441.54
-290.325
66.9975
853.632
-1071.87
-174.258
172.484
607.732
-1308.98
-244.632
33.516
773.868
-710.806
-32.2889
155.122
433.864
-1354.24
-207.491
31.9182
960.233
-661.26
23.7781
181.146
607.26
-1393.22
-240.734
1.05028
605.469
-606.613
-92.0905
23.9418
153.112
-1301.34
-206.055
19.1797
607.876
-577.18
-80.6643
27.0524
150.612
-1115.26
-138.42
26.3323
589.547
-491.329
-52.2817
39.9959
157.145
-914.609
-82.3508
9.19909
527.457
-401.803
-23.4088
39.3094
150.051
-667.673
8.55645
57.2278
451.229
-206.318
42.548
52.9304
145.722
-295.644
132.372
211.463
423.112
101.405
203.056
178.718
208.236
-549.266
36.0145
129.587
433.301
-17.1521
130.022
115.224
177.155
11.9717
235.811
258.197
382.376
219.729
261.042
223.104
221.109
318.165
322.787
265.043
273.476
339.905
303.249
234.239
202.998
94.3805
26.9323
10.8083
5.87808
4.19534
39.8338
12.8553
5.51202
3.05892
2.18507
109.856
38.895
18.4394
10.7746
7.86756
62.8871
28.0062
14.8039
8.98153
6.6287
134.885
54.2594
27.713
16.5584
12.154
159.245
80.9943
45.3622
27.9669
20.7367
176.749
93.5484
52.9826
32.6948
24.1873
197.133
114.749
67.3815
42.1244
31.2528
161.345
71.4559
38.2621
23.2378
17.2059
136.674
62.9711
34.2086
20.8058
15.4022
145.635
58.7145
30.4582
18.23
13.4088
119.687
58.417
32.6065
19.9409
14.7984
173.251
82.0256
44.8442
27.3779
20.2395
139.479
71.1716
39.9544
24.5706
18.2229
164.288
93.3551
54.4951
34.0065
25.2188
136.826
77.1997
44.9282
27.9964
20.7694
102.806
23.9402
8.72342
4.5767
3.22997
47.7771
9.64809
3.30793
1.68391
1.16535
110.425
30.8878
13.2731
7.50395
5.40466
50.5483
12.1837
4.98854
2.77961
1.97646
113.486
37.1879
17.7581
10.3817
7.51768
56.6911
20.2326
10.4186
6.32582
4.61396
125.429
51.7441
27.4432
16.4813
12.0388
74.2245
31.0131
16.8016
10.1809
7.43405
105.203
57.4716
33.1597
20.5236
15.2262
-1799.96
-3395.47
-1848.43
-3399.42
-2008.5
-3421.19
-2201.57
-3508.37
-2128.36
-3523.39
-837.348
-1303.07
-1390.45
-2166.23
-417.401
-616.791
-106.566
-167.439
-8678.55
-2054.49
-467.787
-103.94
-25.7004
-2335.64
-630.015
-166.991
-37.789
-8.16865
-8528.92
-2006.53
-457.056
-100.801
-25.1266
-2381.33
-702.717
-172.402
-39.8929
-9.86272
-8065.77
-1891.33
-430.219
-94.9122
-23.7141
-2304.6
-676.897
-165.749
-38.1953
-9.4842
-7318.78
-1707.36
-388.106
-85.6825
-21.4403
-2213.88
-638.836
-154.809
-35.4214
-8.75944
-6107.01
-1419.67
-323.226
-71.5163
-17.9326
-2062.27
-582.341
-140.01
-31.8966
-7.87507
-2916.13
-706.628
-163.39
-36.3951
-9.14006
-994.337
-284.624
-67.9175
-15.2221
-3.75398
-4323.53
-1034.27
-237.516
-52.6736
-13.2109
-1468.14
-416.241
-100.256
-22.8535
-5.68626
-1714.66
-418.752
-97.2203
-21.7522
-5.47097
-548.844
-163.416
-38.6755
-8.65774
-2.15461
-584.946
-142.036
-33.0246
-7.40828
-1.86295
-206.954
-55.5302
-11.9878
-3.45226
-0.648599
149.639
-1093.61
-5435.29
853.862
-6441.41
-2830.56
-6235.71
-2870.17
-11373.9
-6064.84
-12751.9
-6756.95
-129.652
-507.543
-796.314
-938.369
-840.699
-331.356
-212.53
-789.673
-1199.06
-1326.41
-1070.44
-360.34
-109.799
-117.131
-405.984
-408.443
-580.095
-574.051
-558.232
-529.904
-497.074
-479.338
-381.861
-348.039
850.59
2184.48
3541.59
2514.19
2309.32
1109.19
794.422
2267.67
3672.89
4259.52
3556.15
1618.18
-116.884
-98.7655
-74.81
-46.6007
-15.8201
-458.219
-387.9
-294.39
-183.678
-62.4108
-718.877
-608.499
-461.779
-288.11
-97.8977
-846.837
-716.536
-543.558
-339.034
-115.183
-758.599
-641.704
-486.572
-303.332
-103.016
-300.991
-256.016
-194.526
-121.074
-41.0064
-191.485
-161.689
-122.393
-76.2082
-25.8663
-712.48
-602.697
-457.101
-285.067
-96.8415
-1081.53
-914.594
-693.493
-432.452
-146.912
-1195.52
-1010.21
-765.517
-477.197
-162.094
-964.026
-813.904
-616.327
-384.049
-130.441
-325.687
-275.836
-209.202
-130.326
-44.2238
-99.057
-83.7799
-63.5188
-39.5955
-13.4464
-105.739
-89.4973
-67.9056
-42.3566
-14.3893
-366.669
-310.546
-235.791
-147.163
-50.0102
-368.954
-312.539
-237.347
-148.155
-50.3514
-523.872
-443.639
-336.81
-210.196
-71.4275
-518.381
-438.944
-333.213
-207.936
-70.6581
-504.114
-426.878
-324.034
-202.179
-68.6913
-478.253
-404.7
-307.009
-191.478
-65.0447
-448.81
-379.861
-288.075
-179.539
-60.948
-432.057
-365.016
-276.418
-172.144
-58.4265
-345.162
-292.099
-221.036
-137.255
-46.4478
-313.457
-264.407
-199.751
-124.069
-42.0305
755.07
629.766
474.408
296.443
101.287
1931.05
1606.23
1209.91
758.277
260.366
3094.52
2557.03
1928.81
1221.35
426.604
2181.83
1798.93
1361.17
866.728
304.012
2036.05
1683.83
1268.32
793.9
258.512
1008.64
851.896
650.944
408.726
130.026
706.254
589.471
443.721
276.705
94.3471
2011.04
1675.83
1261.46
788.004
269.389
3237.12
2686.29
2021.51
1267.75
436.095
3729.11
3081.36
2318.94
1460.71
505.92
3112.99
2572.09
1937.38
1221.59
421.629
1431.84
1195.58
908.557
575.72
198.497
277.797
654.425
940.191
1077.12
971.156
466.658
418.937
991.267
1387.78
1488.8
1192.38
441.975
226.109
215.151
518.902
504.229
684.361
662.345
646.286
599.104
578.221
493.942
519.535
393.5
-695.063
-1948.91
-3134.04
-1969.17
-1645.48
-383.79
-726.386
-2158.16
-3430.41
-3823.24
-2928.7
-870.364
251.256
213.18
162.174
101.379
34.4829
591.55
501.512
381.209
238.152
80.9804
849.607
720.048
547.146
341.737
116.189
973.148
824.564
626.433
391.2
132.997
877.726
743.965
565.322
353.055
120.025
424.77
362.49
276.687
173.031
58.795
378.806
321.29
244.341
152.712
51.939
895.59
758.854
576.535
360.061
122.416
1253.16
1061.22
805.848
503.108
171.026
1343.53
1136.99
862.93
538.597
183.077
1075.46
909.654
690.145
430.704
146.409
400.339
340.019
258.706
161.622
54.9372
204.527
173.55
132.036
82.5418
28.0757
194.611
165.128
125.62
78.5259
26.7086
469.131
397.821
302.456
188.977
64.2602
455.876
386.583
293.911
183.637
62.4442
618.585
524.428
398.614
249.009
84.6636
598.63
507.444
385.655
240.89
81.9
584.248
495.388
376.571
235.238
79.9773
541.322
458.72
348.514
217.637
73.9832
523.102
443.839
337.507
210.833
71.6675
446.204
377.999
287.075
179.203
60.9028
471.392
400.995
305.324
190.692
64.7685
355.807
301.63
229.102
142.947
48.5529
-613.109
-507.938
-380.667
-237.35
-81.1133
-1716.38
-1422.37
-1068.82
-669.631
-230.203
-2720.28
-2233.43
-1678.18
-1062.91
-372.654
-1666.75
-1339.79
-993.933
-627.09
-219.922
-1401.98
-1114.46
-808.613
-489.661
-149.305
-313.874
-226.011
-143.722
-71.6827
-9.04364
-644.468
-536.816
-403.506
-251.51
-85.7724
-1911.99
-1591.8
-1197.64
-748.252
-255.925
-3015.57
-2495.95
-1874.94
-1175.38
-404.598
-3325.54
-2729.65
-2043.86
-1284.74
-445.211
-2527.46
-2057.14
-1530.55
-958.542
-329.94
-731.324
-576.881
-417.52
-256.822
-87.0223
-1419.42
-894.258
-230.017
687.977
988.911
1256.98
593.331
-10786.5
-1675.6
-3114.59
-1490.28
272.405
-3945.99
857.113
2485.47
1184.42
-5847.3
-2649.82
-428.38
-527.566
-3320.22
-1238.9
-234.605
-993.593
2163.03
1362.35
-488.601
-140.55
-7683.01
-3557.72
-4224.01
-2033.44
-3482.87
-3287.67
-1048.55
1381.2
-354.734
-683.404
-445.92
-387.169
-490.162
-569.254
-548.882
-348.214
-235.848
-177.283
-98.6767
-189.515
-147.865
-108.467
-69.5127
-24.9077
622.385
527.888
401.093
250.312
85.0531
891.793
753.546
570.496
355.058
120.437
1133.56
958.033
725.633
451.869
153.339
538.468
456.78
345.414
213.621
71.9111
-7686.56
-6824.94
-6102.08
-6139.2
-6388.18
-1064.2
-706.073
-827.768
-968.741
-689.683
-2171.82
-1588.23
-1370.13
-1199.57
-742.795
-949.27
-619.284
-570.163
-514.257
-231.977
252.668
207.288
138.046
64.7964
12.4846
-3281.28
-2677.69
-2054.03
-1394.23
-560.812
775.966
649.789
479.752
287.061
92.665
2160.02
1763.67
1303.26
802.594
271.852
1063.04
891.097
667.949
411.514
138.23
-4055.77
-3743.77
-3372.91
-3431.4
-3612.56
-1805.99
-1283.05
-1084.26
-919.166
-534.311
-328.5
-270.154
-247.509
-216.641
-107.499
-420.961
-334.857
-268.899
-198.831
-84.6748
-2759.95
-2224.19
-1703.95
-1148.75
-452.635
-1037.13
-837.566
-644.547
-434.888
-162.92
-177.149
-130.443
-97.8505
-70.0577
-29.2111
-855.469
-699.742
-529.732
-341.456
-121.628
1930.65
1613.65
1210.36
748.573
252.909
1227.85
1034.75
779.199
481.411
162.157
-406.131
-327.47
-254.311
-174.5
-67.2649
-102.567
-75.7859
-62.4634
-50.673
-22.5708
-4656.32
-3227.24
-2819.79
-2799.37
-2741.03
-2571.34
-1907.3
-1446.58
-1057.62
-509.421
-2795.61
-2186.4
-1750.55
-1456.07
-765.901
-1493.65
-1145.24
-869.653
-636.557
-311.544
-2913.2
-2345.2
-1778.39
-1174.6
-442.183
-2260.92
-1473.66
-1202.42
-990.884
-464.23
-888.17
-717.698
-542.462
-353.53
-128.314
1246.7
1052.92
795.042
492.606
166.326
-270.774
-206.926
-166.108
-126.919
-54.5601
1.68077
43.9972
100.801
131.387
94.9788
-12.6366
-19541.4
-17248.9
-16453.5
-18753.4
-14316.9
-11331.4
-12903.1
-9794.23
-16924
-14824.5
-15592.5
-14656.5
-13681.4
-11650.5
-14378.2
-16074
-14365.1
-13215.2
-14905.7
-12073
-10223.8
-10799.1
-8659.97
-15172.5
-13470.1
-13977.5
-12724.6
-12102.1
-11305.7
-11661.6
-12615.4
-11560.1
-10458.9
-11443.9
-10030.1
-8610.65
-9021.01
-7751.07
-12695.4
-11519.6
-11816.6
-10768.1
-10277.5
-9506.13
-9770.46
-8802.05
-8280.2
-7379.58
-7826.21
-7427.72
-6660.5
-6703.06
-6137.66
-9134.72
-9222.7
-8617.64
-8685.38
-7682.69
-6942.57
-7706.05
-5625.52
-5376.21
-4750.43
-4957.23
-4974.63
-4504
-4426.39
-4093.21
-6046.76
-6039.05
-5776.91
-5644.31
-5257.85
-4749.24
-5133.64
-2024.55
-1952.35
-1719.12
-1780.29
-1838.13
-1718.43
-1622.8
-1514.17
-2294.07
-2287.38
-2145.64
-2042.94
-1976.31
-1813.75
-1939.83
-7446.35
-7343.57
-11100.4
-11965.8
-7013.77
-6232.65
-9740.78
-7923.02
-5871.77
-4418.41
-5830.26
-4379.83
-5860.14
-5601.36
-4445.69
-7425.54
-7049.73
-9876.82
-10771.9
-6550.63
-5937.11
-8592.74
-7408.17
-5855.87
-3919.87
-5754.9
-4133.85
-5264.63
-5059.06
-4504.55
-6790.9
-6479.09
-8376.12
-8980.69
-6096.74
-5681.66
-7500.24
-6646.72
-4869.24
-4287.27
-4858.26
-4512.17
-4547.98
-4547.47
-4665.62
-5498.82
-5300.78
-6281.81
-6595.36
-5041.46
-4722.74
-5821.44
-5321.04
-4697.96
-3889.28
-4621.63
-4138.19
-4331.97
-4294.47
-4206.85
-3806.53
-3691.99
-4157.33
-4313.82
-3435.61
-3185.62
-3920.82
-3605.32
-3313.86
-3010.04
-3239.63
-3156.22
-3036.49
-2976.6
-3000.78
-1419.31
-1377.93
-1520.26
-1569.96
-1276
-1174.12
-1442.22
-1329.84
-1084.66
-1105.16
-1158.86
-1199.82
-1126.14
-1091.58
-1096.71
7190.78
23246.1
5699.9
24339.2
4290.39
25188.2
6800.53
38868.5
8358.54
53451.4
8280.69
38899.3
7965.48
32258
8290.32
28205.8
5023.65
3102.71
13447.8
7969.74
4931.74
2657.76
14738.7
7314.69
5456.48
3941.67
17258.9
12131.5
4131.4
2968.55
17338.7
12576.7
9741.21
4110.85
8399.78
3735.79
3851.47
9077.57
33736.7
9147.91
12074.1
4091.83
43492.8
11817.4
11321.8
3925.1
24076.3
7473.09
12350
4312.84
20917.8
6651.92
5775.22
2863.83
8508.74
3310.75
6309.77
3413.04
8464.07
3240.29
8025.12
4570.4
7286.62
3158.52
10808.1
3878.64
3719.76
1296.97
12213.5
8449.35
7566.56
5524.04
13702.6
11270.5
7493.16
6484.57
7150.63
4816.75
10052.9
6702.68
4993.72
3667.04
2544.2
2086.12
4837.46
4178.73
2512.06
2421.88
4780.37
3126.34
2454.94
1572.05
6376.13
3461.54
4767.26
5767.23
8703.81
6191.33
6887.58
9852.18
4227.84
1999.38
2816
3307.13
2103.27
871.741
1218.71
1226.81
7598.97
13714.5
5160.76
15318
8978.83
13436.8
6397.2
16061.6
10218.6
12183.8
8251.46
15707.3
12175.9
14587.9
9101.81
8750.51
9590.94
14567
13394.2
13097.1
13398.5
19371.4
11838.9
9061.95
7805.05
8736.9
13740.4
15884.1
14174.4
18410.8
17637.4
14515.7
13431.6
18181.6
17293
12572.4
12238.5
17076.7
16681
10621.9
8315.3
9822.45
8525.36
10688.1
9507.4
11455.1
10950.2
15750.1
16070.3
9932.89
8575.73
9426.9
9001.41
9683.33
10199.1
10878.2
12150.6
14197.3
16347.5
8192.62
6429.46
5634.27
7181.34
11120.3
13566.5
7719.26
12223
4757.13
6268.7
7075.11
5827.2
1358.08
4770.39
711.216
1717.45
3947.58
8225.88
1463.82
2856.13
635.549
4033.35
362.127
1415.11
4666.14
4742.21
5302.35
3284.31
7376.76
5890.91
8675.89
5966.81
1079.91
2597.02
2629.33
1489.09
1471.64
1911.38
2084.53
1573.49
11259.4
6825.49
2146.78
12730.2
7297.68
2386.71
10767.9
6739.17
2269.84
12530
7297.4
2381.51
9909.33
6186.25
2030.42
12239.3
7339.34
2449.82
5413.5
2916.45
784.219
6890.69
4529.14
1573.78
8188.4
5645.29
1945.41
9448.64
6104.7
2024.43
12131.2
7547.93
2639.09
6441.66
3606.33
1139.13
6464.67
4644.95
1749.57
7648.45
5646.65
2070
9562.3
6702.27
2392.92
12267.1
7635.24
2704.97
304.396
2011.74
2855.39
4107.45
2174.37
2498.09
5467.16
5184.64
585.364
1023.41
623.906
1062.33
492.745
1417.7
875.831
1859.3
3240.79
1584.27
4086.7
2360.36
2180.3
3807.43
3408.67
952.431
6064.21
1493.07
-1880.75
748.773
1803.25
1354.1
1262.89
1174.63
9870.56
4550.88
2684.75
1677.65
10003.9
4736.68
3388.33
2131.71
9881.35
5100.14
4925.6
3483.53
3533.9
2560.14
1765.25
1693.39
12603.6
11213.4
5943.29
6171.66
13501.8
12678.8
6667.19
6726.67
5314.28
5475.07
10881.8
9112.09
3557.26
3721.44
2002.48
2269.41
4116.8
4091.65
2273.03
2431.42
3123.38
3365.36
1767.13
2162.16
4767.11
3377.29
4769.59
3435.65
7410.67
4454.28
7090.66
4750.1
2886.37
2450.28
3025.07
2226.18
1630.19
1545.98
1929.95
1310.33
11751.1
8262.1
5981.68
6140.11
11663.5
8446.73
6013.25
6110.42
12097
8757.34
6099.06
5935.54
13825.8
14848.4
12679.7
8561.99
4958.14
14069.6
13111.9
12280
10251.6
6768.01
13194.5
11995.2
9660.67
7521.17
4802.12
7099.19
6385.16
6685.45
7714.99
7299.47
6255.77
6745.85
7612.32
7578.71
6183.85
6802.89
7496.29
10618
7487.71
9988.5
6969.49
7953.4
6468.3
7533.82
6511.73
6306.48
7417.59
8818.49
7650.56
7863.82
6887.15
6790.61
6198.86
6089.08
6108.13
4978.64
7061.5
7030.48
4756.29
4676.72
2784.95
9123.89
7030.81
6352.06
5099.24
3859.12
2325.98
5598.34
4160.7
4737.21
2236.44
1742.16
1003.41
4987.83
3602.34
1750.06
1448.84
4129.43
1852.9
1632.27
862.748
3269.27
3043.73
2938.78
4342.91
4550.47
4353.69
3753.14
5573.2
3296.38
2166.16
2120.83
2939.64
1009.41
495.386
245.342
564.102
4438.59
1853.01
547.294
5141.76
1334.07
354.559
4475.75
1992.94
611.399
5118.61
1376.79
384.365
4159.31
1964.23
507.173
5022.84
1399.82
327.468
4606.67
2318.54
509.177
4224.74
2026.1
471.635
4210.95
2010.59
541.076
4239.28
1981.34
416.262
5000.28
1373
204.371
5857.58
2927.98
774.204
5345.81
2648.07
719.529
4929.45
2429.69
704.608
4744.64
2019.97
493.486
5415.45
1281.76
312.297
1782.31
640.106
125.299
-200.92
737.799
279.674
75.5043
-40.468
1897.97
707.443
182.822
-122.68
947.693
394.709
190.082
88.4987
2040.57
788.406
277.656
-2.68596
1625.63
761.711
298.027
67.8976
1242.81
704.604
253.794
-10.9426
1171
771.757
453.053
270.191
1695.31
755.307
231.966
-179.205
1453.55
639.027
280.502
-179.894
2001.51
778.331
251.536
-129.051
1812.87
708.648
282.773
-295.741
1363.88
705.469
283.572
-57.3514
1119.05
566.734
304.11
2.71788
1012.46
624.57
373.351
230.327
774.511
481.078
322.937
191.025
2278.8
775.219
123.792
-398.504
2262.83
715.639
179.937
-543.822
2278.37
788.351
146.611
-378.253
2190.73
696.175
188.967
-525.353
2237.22
792.943
225.203
-267.392
2046.41
660.033
233.898
-428.753
1963.68
734.85
312.739
-31.8231
2245.63
740.646
330.777
-500.788
1757.65
658.873
314.496
-117.874
1799.35
506.421
163.04
-368.889
718.298
184.575
44.6077
-76.9679
1851.2
538.632
182.007
-348.544
744.048
198.397
57.2379
-61.5028
1887.51
578.966
226.343
-305.204
758.8
216.124
74.3544
-43.9341
1703.2
547.216
261.249
-239.636
737.364
223.813
102.424
-12.4652
1561.27
545.922
285.104
-137.774
660.761
236.866
140.25
30.4823
1091.97
442.886
217.178
-41.4913
623.863
310.989
189.918
100.816
1259.62
448.616
220.308
-99.8806
628.595
269.977
165.572
66.1901
881.916
429.821
239.124
37.9517
561.203
328.064
209.283
134.706
625.395
391.148
267.82
166.765
470.033
327.112
230.311
174.47
-19.1464
6.9028
7.3322
5.1531
3.91553
-3.44768
4.66468
4.07047
2.7902
2.11457