/*--------------------------------*- C++ -*----------------------------------*\
| =========                 |                                                 |
| \\      /  F ield         | OpenFOAM: The Open Source CFD Toolbox           |
|  \\    /   O peration     | Version:  2306                                  |
|   \\  /    A nd           | Website:  www.openfoam.com                      |
|    \\/     M anipulation  |                                                 |
\*---------------------------------------------------------------------------*/
FoamFile
{
    version     2.0;
    format      ascii;
    arch        "LSB;label=32;scalar=64";
    class       volScalarField;
    location    "1.5";
    object      gradTy;
}
// * * * * * * * * * * * * * * * * * * * * * * * * * * * * * * * * * * * * * //

dimensions      [0 -1 0 1 0 0 0];

internalField   nonuniform List<scalar> 
5712
(
12237.9
7059.4
19788.5
13006
21627.8
16040.1
33837.1
42125.7
44549.1
54701.3
28863.5
25132.8
18321.6
14563.1
9216.19
6240.17
20379.4
20678.3
17630
20620.3
27527.2
24387.5
31939.4
25657.7
8586.79
6129.32
4843.67
3610.38
10223.7
8300.85
6242.98
5077.04
18897.4
19474.6
19164.6
15939.6
14742.5
11668.8
11687.9
13318.2
18808.4
18767.9
39707.3
41107.5
27950.8
28860.9
16181
13644.5
17492.7
12446.8
8136.22
8394.02
6780.43
9793.62
3556.19
4372.66
9272.64
13060.7
5550.61
6568.27
10192.4
17629.6
7098.51
11819.4
2691.21
6996.81
2241.79
5207.57
18146
22483
18879.6
22482.8
22136.1
22294
22699.6
22106.3
16169.8
21997
16484.9
21664.6
18666.9
22384.1
18700.6
22364
22981.4
21883.8
22953.5
21707.8
14988.1
22122.8
14497
22222.6
18586.1
22108
23463.7
33161
19704.2
25693.2
23272.2
36224.2
17614.3
19386
23541.2
31781.1
17431.5
18109.5
23793.4
31501.4
5856.64
7756.1
15017.7
26596.2
7195.56
8260.96
19185.8
29993.5
8852.63
8969.8
24109.1
33071.9
25094.3
26547.8
21607.3
21224.8
31560.6
26619.4
25440
21997.3
19326.9
36332.1
24311.8
24267.2
21939.2
22296.9
41140.1
2219.41
2679.73
4820.79
11312.6
3129.79
3584.78
6566.77
12503.2
4606.6
3914.59
8822.06
14102.9
26112
25379.8
23789.9
22991.3
20797.6
18652.6
15921.1
13901.2
11490.5
16314.3
23896
22738.6
24355.1
23645.4
21469.9
19878.1
18070.4
16072
12190.3
16318.6
24293.1
27254.1
24277.4
28008.7
23249.4
23921.3
22758
24194.3
22365.6
22707.7
22166.6
22014.2
24111.2
28159.7
24027.5
28164.1
22128.2
24546.1
21971.7
24519.6
22453.9
22656.6
22465.5
22657.1
19024.3
18070.1
12334.2
13805.4
18914.7
17623.3
12168.1
13945.9
19273.1
17997.4
12592.8
13821.1
19352
17811.8
12981.5
13814
1760.79
1146.86
773.755
994.666
651.509
602.299
2466.45
1396.48
1026.14
1937.27
1510.83
1268.14
2791.11
2194.95
2148.34
3382.17
2679.84
2363.14
23666.9
20766.7
18827.6
21993.1
19852
18253.6
15911.4
14368.1
13510.5
11019
9222.24
8442.1
5179.62
3664.35
3035.24
21541
19345.4
17623.9
22390.3
19779.1
17869.4
16796
13926.7
12328.1
11093.9
8525.13
7467.27
5491.48
3631.1
2842.59
27728.9
26980.9
30335.2
27072.6
31246.4
27077.3
37909.3
28650.7
21346.3
21501.4
21128.7
19494.7
23968.3
22409.8
23613.2
20062.5
23382.5
23098.6
21499.6
22869.3
28387.4
25646.8
28612.4
29111.8
31224.7
32364.1
23762.8
24712.5
21263.6
20670.7
25758.8
26472.5
16555.5
8974.97
15542.2
9926.65
16819
9057.23
15522.9
9869.73
16600.5
9099.96
15497.1
10284
15108.4
10757.8
15310.3
10666.7
21428.7
18171.5
21421.9
18217.3
23761.5
21340.6
24129.3
21211.5
20901.3
15117.3
21685.6
14859.8
21977.3
18174
22295
17983.1
24841.8
21089.6
24904
20841.8
20771.3
15195.6
20745
15109.6
13649
9136.45
11928.8
7774.03
12658.5
8184.99
11425.7
7269.15
14023
9705.43
12143.1
8011.44
14059.1
10044.8
12118
8069.39
2608.21
1370.23
4831.19
2687.76
2777.45
1668.05
5141.3
3185.56
3403.82
2495.61
5679.95
4114.51
13039.3
20328.7
9400.39
9024.55
6538.21
19810.4
13692.9
8003.38
8052.26
5399.84
20737
16216.9
12832.5
9981.05
6384.36
739.788
543.29
1614.54
1216.71
1024.42
693.99
2197.44
1751.35
1749.18
1308.29
3109.76
2525.22
19944.2
18980.9
13386.4
12566.8
8637.98
8481.81
7267.25
6470.94
4615.9
3757.31
18809
16828.7
14449
12419.1
11168.2
9657.9
8487.07
7426
5614.8
5360.2
14914.2
11796
15064.7
11586.4
18100.1
14804
18136.7
14699.9
12498
9873.84
12085.7
9850.42
15107.5
11450.6
15026
11443.5
18109.1
15036.5
17953.9
15011.5
12748.8
9753.93
12731.2
9883.9
9703.57
7969.62
6586.46
6675.68
9324.54
7756.82
6287.05
6302.72
10125.7
8141.76
6757.73
7056.39
10359.7
8140.83
7015.94
7156.92
1511.09
1312.46
1078.68
6440.85
3432.24
2790.56
1477.85
1437.47
1266.32
7047.06
4090.21
3445.12
2052.72
2265.99
2301.12
7887.99
5170.88
4568.03
17404.7
15821
14759.1
11701.7
11014.1
10609.4
8390.63
8043.4
7911.73
7042.56
6633.48
6380.19
9090.62
6440.69
5758.96
14932
13320.9
12283.6
10900.9
9797.99
9186.9
8881.75
7966.09
7472.72
8345.95
7198.44
6556.43
11124.4
7287.87
6454.62
4964.34
3045.83
2019.46
1483.78
5565.88
3297.17
2126.38
1522.38
4992.71
3046.18
2025.1
1493.42
5686.18
3366.06
2174.62
1549.29
4988.23
3021.97
2045.42
1505.25
5805.07
3412.45
2240.17
1575.66
6238.63
3605.75
2268.5
1605.18
6417.61
3739.99
2327.96
1652.67
5311.5
3215.25
2134.24
1534.6
4409.48
2851.87
1971.56
1470.1
4687.04
2926.87
2003.73
1446.6
4079.09
2695.86
1896.94
1417.05
5731.7
3433.36
2222.44
1589.51
4608.74
2965.93
2018.22
1510.49
5968.06
3581.97
2288.18
1635.66
4698.14
3048.03
2060.56
1540.7
3789.38
2633.5
1852.42
1412.31
2548.69
2146.39
1649.52
1327.97
3805.49
2624.91
1852.6
1410.82
2657.34
2176.53
1660.23
1335.53
3903.3
2629.75
1871.36
1425
2978.86
2271.75
1698.95
1367.22
3874.41
2577.55
1847.92
1456.48
3259.6
2341.12
1751.76
1368.51
3639.57
2514.56
1813.3
1397.12
1340.67
1756.67
1331.43
405.46
39.3263
1543.74
1207.08
419.521
1562.9
1831.1
1362.42
427.184
303.146
1625.59
1233.32
428.466
1984.52
1963.85
1406.7
426.066
758.18
1765.11
1270.6
433.317
2508.97
2124.62
1477.75
461.994
1257.48
1922.99
1326.54
451.931
2872.52
2275.62
1566.74
534.059
1428.89
2047.79
1379.22
468.382
3078.61
2447.57
1605.42
511.476
1222.8
2192.51
1479.09
497.907
2997.02
2371.76
1576.8
510.985
1166.67
2125.81
1428.18
480.513
3112.59
2501.01
1622.62
479.326
1190.1
2248.57
1510.6
500.846
3177.26
2555.45
1662.47
488.462
1290.54
2306.12
1548.84
512.426
1192.94
836.551
535.473
294.647
93.6664
1181.6
835.087
535.948
295.08
93.8103
1208.23
844.063
538.904
296.156
94.095
1201.93
844.688
540.506
297.129
94.3972
1239.19
854.686
543.323
298.053
94.6315
1228.2
855.929
545.812
299.523
95.0856
1244.64
868.49
552.729
302.832
96.055
1273.59
886.264
562.449
307.504
97.4292
1270.17
867.341
549.602
300.952
95.4715
1353.23
882.435
553.78
302.437
95.8668
1276.23
863.997
546.603
299.366
94.9948
1351.27
876.922
550.458
300.823
95.3907
1281.23
878.352
555.787
303.93
96.3463
1378.16
893.096
559.383
305.111
96.652
1311.19
895.652
564.922
308.278
97.6219
1409.89
908.532
567.277
308.853
97.7497
1223.99
840.632
535.4
294.296
93.5391
1283.99
845.338
535.506
294.095
93.4629
1238.56
846.589
537.98
295.406
93.8519
1295.73
849.866
537.488
294.951
93.7041
1268.68
856.55
542.022
297.135
94.3397
1321.65
858.125
541.002
296.48
94.1373
1315.82
867.793
546.078
298.82
94.8124
1352.67
866.98
544.974
298.246
94.6407
1360.02
873.557
548.353
299.804
95.0907
11216.4
17368.3
11668.7
17583.3
12307.2
17818.1
12658.3
17866.9
11978.6
16970.7
10878.4
12294.3
10964.1
13023.8
10899.4
12119.6
11072
12236.6
9996.56
1716.35
367.971
82.8253
14.7088
11138
3176.98
773.549
176.074
31.2538
10044.1
1694.88
360.975
80.9788
14.3461
11169.6
3148.68
764.226
173.202
30.4902
10039.1
1672.68
353.597
79.04
13.9797
11137.7
3110.42
751.584
169.828
29.8655
9827.61
1603.83
336.338
75.0534
13.2731
10885.3
3014.97
726.506
164.003
28.8258
9198
1463.39
306.453
68.6444
12.1738
10193.7
2830.33
684.668
155.087
27.3105
8005.18
1324.62
286.646
65.3169
11.6816
8201.73
2394.07
595.308
137.239
24.4205
8369.52
1362.82
291.41
65.9673
11.7563
8794.2
2562.1
631.219
144.294
25.5298
7850.77
1311.42
285.063
65.1116
11.6572
7980.26
2314.15
575.871
133.192
23.7716
7800.64
1297.55
281.768
64.3772
11.5156
7962.16
2291.21
568.537
131.785
23.4826
34793.1
49635
48435.5
33701.4
19690.4
20754.7
29062.3
30440.3
22867.6
25709.2
36493.2
49993.5
46206.3
61402.3
30109.8
34405.1
23555.4
25222.6
12760.2
14013.7
4825.35
3113.97
677.688
495.103
561.392
482.496
611.817
4609.32
4431.25
2620.32
3629.77
3400.35
1425.95
2032.08
1793.28
1146.42
1334.05
1070.14
4183.95
2142.44
1275.1
1117.97
1477.37
1265.02
959.828
887.957
809.663
699.905
997.799
892.962
4432.84
2600.95
3008.62
1834.8
1466.98
2145.38
976.401
728.709
1085.51
9658.74
9456.05
9348.16
10152.1
16088.4
6788.41
7567.23
8036.52
8783.08
10038.8
1769.69
2499.73
3036.94
3392.96
3574.13
1305.3
1869.45
2296.61
2582
2725.37
1478.42
2112.83
2588.48
2902.32
3058.19
1274.06
1828.55
2249.45
2530.04
2670.23
1605.96
2284.44
2788.8
3121.36
3287.54
9547.88
9574.72
9178.6
9433.54
14256.6
9160.82
9026.53
8499.85
8465.73
9483.33
5936
6862.05
7219.34
7544.23
8027.49
7722.89
7906.05
7507.44
7290.71
7376.76
7235.26
7483.41
7100
6789.41
6712.56
3515.4
4564.27
5172.87
5532.21
5728.24
4768.73
5773.68
6216.68
6468.01
6658.81
4269.53
5265.97
5717.29
5924.99
6027.98
2894.76
3886.34
4514.08
4888
5072.58
3306.86
4321.55
4908.18
5233.43
5389.63
2721.02
3687.7
4311.28
4681.09
4857.93
8832.72
9154.45
9032.31
9524.65
14564
5020.57
6108.34
6692.38
7177.98
7711.2
3192.64
4240.83
4900.47
5315.24
5546.56
2832.68
3830.36
4494.32
4924.46
5161.01
3636.25
4727.74
5403.48
5867.55
6184.84
3174.68
4241.1
4945.88
5425.63
5715.59
2460.4
3386.8
4038.2
4474.69
4712.51
2291.78
3181.14
3808.31
4216.69
4427.13
2102.54
2940.8
3533.52
3908.75
4092.24
1828.99
2583.33
3132.21
3487.59
3663.33
2553.46
3497.02
4132.22
4528.36
4727.44
2303.1
3191.93
3812.29
4209.64
4410.96
9093.56
9177.5
9126.65
9847.94
15413
5856.13
6813.5
7392.48
8084.94
9048.29
6884.24
7858.91
8210.33
8871.27
10574.4
4408.16
5574.05
6311.53
6919.45
7447.34
3627.15
4754.99
5489.5
6024
6391.82
5034.83
6157.03
6801.01
7374.3
8002.98
2501.78
3439.46
4092.7
4524.72
4757.16
1898.86
2672.18
3233.12
3599.23
3783.29
2758.43
3747.39
4417.54
4859.32
5103.92
19358.8
12893.6
19911.9
14270
25699.2
37020.2
26917.4
36886.7
20424.8
21520.8
17571
20855.3
23046.7
21797.3
29573
24058.4
15030.7
14208.3
7364.1
6348.28
16349.8
15081.2
8441.86
6944.99
20271
21849.4
20675.2
18776.8
21198.1
13948.3
11552.1
13310.6
18824
18773.4
39326.8
41058.3
27294.4
28694.7
16893.7
13804
18332.2
12605.9
8909.14
8585.44
15098.7
16813.1
6304.77
6916.23
16561.7
19037
7841.52
8706.82
15708.2
22173.5
9104.46
14151.9
3162.2
7805.05
2337.66
5366.18
18913.5
21551.7
18863.9
21950.3
20427.8
20647
21600.8
21199.4
17380.3
21960.6
19743.5
21658.3
18549.4
22102
18647.5
22272.7
22427.2
21426.8
22792.9
21567.3
15376.3
22080.1
14568.9
22201.3
19627.5
23451.5
23787.1
33508.9
21425.7
27884.8
23907.7
36889.9
18098.6
20045.6
23678.7
31945.6
17559
18295
23825.1
31547.1
20741.7
22373.5
26225.7
39089.3
20796.4
21228.6
28031.4
39543.9
20381.6
19974.5
30090.2
39103.2
19103.4
19756.8
20691.5
22331.2
34126.3
18944
17890.2
22033.4
20334
39138.3
19765.6
20853.4
20961.2
23104.1
42166.6
12085.3
10969
11426
14968
13241.5
12040.3
11823.3
15350
14601.3
12549.7
12341.2
15640.2
18246.9
17351.6
17314.6
16672.7
20322
18794.2
16942.9
15135
12897.8
16278.6
19320.6
18897.6
20711.4
20671.8
20132.9
18811.2
18512.8
16363.1
12674.6
15694.7
22595.7
25341.6
23447.9
27000.2
21121.5
21910
21758.1
23217.4
21959.8
22151.6
21444.5
21116.8
23714.1
27682.5
23908.2
28023.9
21668.5
24080.2
21836.6
24384.8
22237.6
22377.8
22397.3
22575.1
18976.2
17878.7
12420
13740.1
18945.9
17424.7
12420.3
13862.1
19223.7
17883.9
12616.6
13780.1
19331.7
17774.9
12984.8
13798.7
9980.18
10139.5
4347.51
3982.98
11132.3
10743.2
4868.73
4640.78
10825.7
10075.6
5526.39
5311.62
16893.5
16230.6
16716.2
16662.6
16901.9
16247
12884.6
11414.6
6539.23
5343.66
18941.9
17984.3
20560.7
19564.8
16568.8
15180.9
12065.9
10224.5
5994.73
4426.42
22689
21434.5
28083.5
24346.8
25469.3
22546.9
35209.5
26324.8
20669.8
16914
22652.8
17840.9
20522.9
17197.5
22748
18087.9
21240.1
18672.1
19109.8
17633.2
21487.6
22954.3
27266.1
28708
30134.5
32055.9
22447.3
24257.5
20185.5
20364.3
24223.6
25957.9
13717.1
10124.8
14220
10368.1
14003.6
10043.6
14429.5
10230.4
13900.1
9898.91
14380.3
10441.5
14452.5
10767.8
15092.7
10662.1
17536.9
16891.6
19502.3
17428.6
20250
19302.8
22288.4
20089.9
19063.3
14811.5
17988.6
14568.2
21032.8
17756.3
22015.9
17856.9
23961.3
20529.9
24651.9
20674
19858.3
15003.3
20476.9
15049.7
13227
9520.6
12110.1
8138.84
12577.5
9206.1
11995.5
8048.35
13701.6
9839.25
12193
8179.65
13947.4
10074.9
12129.6
8123.37
13096.9
13069.4
9491
8743.93
13227.3
13184
9349.55
8673.63
13164.9
12677.3
9124.63
8581.83
15378.8
18295.1
16081.2
11915.7
8852.64
16927.5
15709.3
17398.8
11878.8
8546.38
18688.3
16387.9
14407.8
12034.6
7960.94
13340.1
14056.2
8582.38
9042.03
13236.3
13737.3
8518.83
8938.11
12397.9
12547.7
8189.57
8184.33
16625.9
15554.3
14857.5
14061.2
15249.3
15359
11812.2
12250.5
7976.63
7694.94
16835.9
15210.5
14971.5
13397.6
13312.7
12404.9
11209
10876.2
7397.17
7604.99
14682.9
12239.2
14790.2
11726.7
16850.1
14070.2
17413.9
14304.2
12658.6
10410.4
12711.8
11108.9
14928.9
11501.7
14969.8
11455.5
17748.1
14837.8
17846.6
14954.2
12763.8
9975.72
12722.9
9938.06
10175
8713.34
7060.18
7368.2
10426.1
9342.41
7232.03
7708.14
10308.3
8462.93
6975.81
7417.4
10410.1
8232.12
7088.3
7268.53
16229.4
16098.9
21277.4
18091.7
15669.9
15619.9
20427.4
17312.8
13822.3
14249.6
18785.1
16098.4
14869.7
14219.3
13431.7
13079.4
15237.7
15450.9
13689.5
13487.1
17241
14681.2
13958.1
13111.8
12448.9
12097.5
12379.1
12509.1
12894
12463.5
16691.5
13363
6364.65
3951
2539.12
1803.83
6590.44
4067.71
2602.8
1821.66
6261.9
3886.45
2500.22
1784.58
6539.1
4031.13
2586.93
1810.03
6075.75
3761.28
2464.43
1761.92
6466.8
3947.6
2585.95
1797.13
6620.26
3940.82
2498.48
1758.35
6544.47
3856.22
2405.8
1705.85
5876.38
3640.63
2417.33
1726.91
4797.99
3159.49
2175.56
1615.43
5587.91
3535.41
2375.54
1684.74
4717.87
3169.19
2172.09
1593.96
6040.31
3686.42
2399.08
1712.19
4817.56
3139.7
2144.92
1607.85
6063.35
3666.46
2348.59
1678.37
4763.84
3104.6
2103.62
1574.07
5899.88
3732.61
2430.56
1757.41
5147.85
3413.05
2285.91
1697.24
5763.51
3665.62
2395.52
1732.91
5055.17
3374.72
2264.93
1688.05
5573.89
3557.52
2360.71
1717.62
4988.13
3324.43
2241.95
1683.84
5162.67
3357.96
2269.42
1713.7
4829.04
3240.69
2215.32
1628.34
4591.17
3156.58
2156.96
1598.61
4068.34
3088.63
1928.49
550.997
2429.2
2883.68
1817.7
590.974
4095.76
3086.28
1931.43
570.047
2557.68
2884.85
1815.94
593.461
4148.68
3066.63
1910.74
546.739
2736.56
2870.98
1792.86
580.62
4101.37
3019.69
1919.91
573.84
2738.58
2828.97
1776.85
581.381
3854.18
2927.33
1924.71
640.905
2285.88
2731.63
1746.24
578.216
3384.31
2723.76
1813.18
584.772
1406.71
2488.27
1672.13
562.485
3552.67
2810.7
1862.82
602.182
1577.08
2593.41
1703.54
566.952
3265.6
2652.76
1747.55
524.747
1264.04
2409.16
1622.95
539.759
3221.87
2603.8
1703.61
503.727
1307.52
2356.25
1585.06
525.163
1411.58
960.241
600.573
325.451
102.679
1381.52
952.39
598.442
324.774
102.508
1410.47
956.835
598.206
324.218
102.306
1378.07
947.062
595.006
323.03
101.986
1423.45
954.19
595.412
322.683
101.838
1376.89
940.758
590.884
320.941
101.361
1346.53
927.291
584.118
317.779
100.438
1311
908.405
574.335
313.177
99.0939
1406.08
944.011
589.897
320.041
101.06
1481.59
950.626
589.177
319.155
100.759
1448.88
955.137
593.954
321.72
101.534
1516.81
958.95
592.694
320.723
101.209
1370.85
930.879
583.612
317.149
100.22
1461.26
939.235
583.525
316.549
100.002
1342.18
913.827
574.605
312.889
98.9746
1438.41
924.582
575.719
312.862
98.9248
1471.89
971.866
603.132
326.158
102.846
1571.07
982.427
604.935
326.611
102.95
1474.9
969.836
601.498
325.283
102.58
1572.07
980.579
603.644
325.937
102.746
1488.04
967.246
598.889
323.881
102.154
1577.48
977.007
601.148
324.668
102.365
1520.85
966.588
596.551
322.544
101.744
1585.64
971.519
597.997
323.129
101.908
1555.45
964.552
594.886
321.689
101.486
12864.2
17020.9
12915.2
17010.9
13024
16971.1
12757.4
16712.4
11855
15819.8
10853.8
12182.1
10942.7
12762.1
10882
12068.1
11065.9
12222
10030
1680.58
356.187
79.7947
14.143
10800.1
3078.46
747.005
169.569
30.0516
9974.39
1650.75
348.546
77.9351
13.7898
10738.5
3036.36
736.094
166.599
29.3036
9818.44
1616.56
340.316
75.9969
13.4396
10587.3
2980.78
721.711
163.175
28.7016
9498.47
1543.18
323.524
72.2545
12.787
10278.7
2880.43
697.109
157.688
27.7437
8904.38
1414.53
296.348
66.4407
11.791
9676.55
2715.14
659.458
149.682
26.388
7924.5
1308.47
282.619
64.3306
11.5
8096.49
2356.14
584.945
134.742
23.969
8218.73
1333.87
284.707
64.4156
11.4794
8570.59
2491.25
613.664
140.325
24.8375
7810.73
1303.23
282.934
64.5699
11.5551
7932.59
2296.23
570.67
131.877
23.5263
7788.54
1295.04
281.103
64.2053
11.4828
7948.3
2286.01
566.985
131.381
23.4059
34366.1
49402.7
47550.7
32391.2
25145
30178.7
24263.2
30046.2
28367.3
45478.6
30146.2
46622.2
106.854
120.042
149.247
197.386
269.529
372.32
117.652
131.515
162.074
211.929
285.013
386.388
98.8075
94.8765
112.56
109.852
143.155
143.39
194.094
200.406
269.639
284.191
371.758
387.786
514.623
706.956
970.356
1335.71
1766.45
2077.78
521.793
696.318
913.801
1166.44
1413.3
1574.35
285.633
418.003
523.97
597.717
635.499
320.68
468.8
587.025
669.086
711.055
398.237
581.101
726.304
826.647
877.819
525.796
765.163
953.851
1083.46
1149.32
716.193
1038.19
1289.48
1460.77
1547.46
985.604
1420.51
1755.17
1981.22
2095.25
314.358
459.705
575.824
656.495
697.777
351.122
512.821
641.554
730.724
776.269
432.107
629.7
786.074
893.86
948.75
563.887
819.141
1019.49
1156.72
1226.35
756.213
1093.77
1355.88
1534.08
1624.22
1021.13
1468.13
1810.45
2041.32
2157.92
264.209
386.853
485.177
553.693
588.825
253.738
371.616
466.187
532.13
565.957
300.803
440.002
551.286
628.636
668.23
293.612
429.589
538.367
614.02
652.758
382.155
558.028
697.938
794.764
844.183
382.834
559.136
699.459
796.605
846.197
517.315
753.464
939.997
1068.31
1133.55
534.176
778.088
970.764
1103.28
1170.64
716.993
1040.44
1293.4
1466.01
1553.35
755.665
1096.44
1362.76
1544.28
1636.03
985.205
1422.14
1759.24
1986.97
2101.64
1027.89
1484.04
1835.73
2072.86
2191.98
1354.11
1934.22
2371.85
2664.73
2812.71
1842.3
2595.43
3148.61
3517.42
3707.18
2489.45
3432.35
4100.79
4552.55
4799.39
3341.44
4455.97
5212.25
5753.99
6097.81
4271.74
5453.7
6223.07
6845.42
7345.12
4916.3
6102.53
6857.73
7534.12
8161.67
1371.21
1955.14
2394.45
2688.65
2837.76
1815.35
2559.09
3106.44
3471.98
3660
2356.41
3271.54
3927.69
4368.95
4604.3
2965.78
4039.72
4788.43
5303.95
5598.23
3539.57
4726.34
5533.9
6112.04
6472.96
3905.73
5151.76
5989.34
6608.08
7018.27
108.405
124.886
157.951
210.913
289.216
399.748
119.305
136.637
171.143
225.68
304.258
411.656
100.335
96.4356
117.368
114.802
151.948
152.589
208.119
215.464
290.597
306.783
402.577
422.422
550.09
747.534
1010.27
1365.95
1782.26
2082.14
552.519
730.089
946.419
1192.74
1429.63
1579.75
289.81
424.19
531.822
606.765
645.173
333.729
488.141
611.592
697.417
741.36
421.716
615.973
770.693
877.923
932.721
562.361
819.66
1023.46
1164.1
1235.8
769.591
1118.22
1392.27
1580.37
1676.02
1060.39
1533.5
1901.46
2152.5
2280
318.812
466.314
584.226
666.19
708.153
364.937
533.335
667.664
760.881
808.556
456.598
666.152
832.573
947.664
1006.41
601.105
874.733
1090.66
1239.3
1315
808.476
1172.25
1456.88
1651.77
1750.85
1090.09
1572.46
1945.7
2199.85
2329.04
268.318
392.93
492.878
562.558
598.298
257.931
377.813
474.036
541.16
575.604
313.746
459.163
575.593
656.638
698.166
306.932
449.296
563.355
642.792
683.509
405.854
593.186
742.638
846.35
899.387
407.625
595.904
746.191
850.522
903.887
555.203
809.882
1012
1151.65
1222.89
574.863
838.699
1048.15
1192.88
1266.7
773.84
1125.64
1402.83
1593.33
1690.21
817.036
1188.65
1481.48
1682.67
1784.96
1069.25
1549.16
1923.72
2179.56
2309.38
1122.45
1627.22
2021.49
2290.7
2427.17
1451.65
2083.54
2567.57
2896.07
3063.56
1955.56
2772.53
3385.19
3801.1
4017.3
2604.04
3618.27
4356.76
4866.45
5147.11
3433.7
4615.95
5443.03
6046.91
6429.81
4326.14
5557.41
6380.25
7052.54
7587.25
4933.4
6137.78
6912.93
7608.71
8250.74
1455.67
2084.33
2563.68
2888.61
3054.57
1909.19
2704.93
3300.26
3703.56
3912.68
2448.61
3418.18
4126.47
4610.05
4869.7
3042.06
4164.99
4962.55
5519.19
5838.02
3588.56
4809.72
5652.62
6261.58
6641.76
3922.38
5180.81
6031.34
6661.61
7079.24
4809.64
3112.93
728.308
536.31
623.104
530.096
669.059
4365.87
4143.98
2619.73
3341.64
1517.14
2077.62
1243.61
1398.86
1151.91
4074.21
2182.95
1364.7
1198.63
1550.4
1330.25
1012.91
957.42
903.216
780.621
1090.26
974.075
4387.69
2606.08
2989.12
1863.42
1516
2177.67
1039.84
795.285
1157.32
9657.44
9502.66
9437.09
10295.8
16348.3
6800.35
7608.26
8109.27
8890.26
10178.3
1911.21
2721.5
3333.62
3748.9
3963.24
1418.64
2042.98
2524.06
2850.77
3016.74
1648.48
2373.99
2931.88
3309.23
3500.03
1404.76
2028.16
2510.52
2838.08
3003.91
1764.95
2531.3
3116.39
3511.94
3712.94
9481.89
10285.3
10590.9
11493.1
17377.5
9199.35
10190.6
10680.2
11505.9
13185.7
6157.9
7591
8505.62
9319.58
10126.8
7876.54
9281.49
9910.78
10591.8
11228.4
3840.94
5206.2
6153.62
6800.53
7165.26
5079.56
6575.18
7550.57
8258.32
8720.36
3206.55
4452.63
5346.65
5943.67
6257.4
3580.84
4922.4
5866.32
6495.66
6830.74
2988.18
4183.17
5050.64
5626.85
5923.53
8802.89
9550.88
9883.19
10804.4
16611.8
5232.55
6620.55
7542.72
8333.87
9076.48
3481.19
4767.69
5679.14
6307.39
6664.47
3078.2
4255.61
5105
5691.08
6019.19
3882.93
5197.09
6113.56
6787.2
7234.57
3376.87
4598.22
5466.16
6086.28
6461.21
2614.54
3640.42
4390.93
4909.79
5195.79
2492.16
3508.16
4259.91
4770.13
5038.78
2368.76
3367.88
4115.62
4616
4870.36
2054.4
2936
3603.38
4052.31
4280.25
2830.33
3968.07
4800.24
5359.22
5651.71
2538.66
3579.27
4349.6
4869.42
5140.52
9094.6
9330.04
9417.13
10304.9
16229.7
5903.7
6941.1
7608.81
8392.36
9434.47
6946.82
8146.89
8750.82
9666.82
11634.3
4514.2
5788.8
6647.97
7370.09
7977.95
3785.58
5046.07
5924.24
6586.54
7035.6
5192.69
6531.74
7426.05
8233.31
9029.24
2687.22
3746.92
4522.35
5055.82
5347.3
2086.8
2970.49
3636.18
4085.82
4316.72
2973.62
4114.27
4939.75
5512.1
5833.48
7648.01
7272.49
6602.83
5612.72
4163.48
1650.57
19624.6
19948.7
22469.2
23240.6
19124.2
20189
21394.3
20620.6
16225.5
20443.1
16860.4
20968.1
19319.7
17369.4
27396.4
18791.4
18966.9
21122.1
21634.5
18010.6
19062.2
20377.2
19831.9
16118.1
24688.3
16658.3
24460.4
19477.8
21220
29379
17822.4
17862.9
19381.8
19632.1
17134.9
18618.6
18993.3
18976
18431.9
21682.4
19194.3
21635.9
21111.2
23367.7
26285.3
16874.6
16935.7
17741.4
17821.9
16551.7
18274.4
17534.1
17806.8
17137.3
18808.9
17865.5
18269
19135.3
20799.7
22487.9
15899.2
15995.7
16582.2
16573.3
16112.7
17978.3
16528
16987.9
16102.5
15340.7
16854.5
14663.9
17427.5
17270.6
18342.8
15438.9
15582.1
15795.2
15751
15619.5
17130.7
15865.5
16243.5
15270.3
13041.4
15811.6
12723.2
16083.6
14975.2
16445.4
22082.2
21174.5
23304.5
24551
20321.1
20209.1
21609.2
20533.8
19323.2
14225.7
19243.1
14285.3
17046.3
15385.5
18483.4
20718.4
20057.3
21424.6
22250.5
19519.2
19583.3
20286.6
19382.3
17745.9
13635.9
17699.3
13720.3
15469.7
13745.3
16935.4
18890.3
18491.4
19136.6
19547.6
18164.9
18243.1
18551.8
17988.7
16630.6
13154.9
16395.3
12895.3
14648.4
12416.1
16368
17068.4
16833.5
17286.2
17480.4
16607.6
16621.7
17061.8
16607.5
15369.6
13204.2
15237.7
12905.8
13766.3
12243.5
16265.1
16011.3
15850.1
16183
16283.7
15511.4
15522.7
16109.4
15804.7
14853.9
13880.7
14763.4
13729.2
13590.2
12521.2
16446.5
15248.8
15102.3
15507.2
15575.2
14839.8
15049.5
15416.2
15268
14564.6
14297.6
14536.1
14221.2
13505
12877.6
16887.8
12041.3
6834.47
19780.5
13013.3
21650.1
16026.5
33866.3
42139.9
44602
54727.4
28915.6
25133.1
18330
14590.9
8942.18
5956.17
20382.5
20680.7
17628.4
20621.3
27540.8
24393.4
31948
25662.1
8410.91
6005.33
4680.48
3501.07
10194.4
8290.51
6241.05
5091.35
18892.2
19469.5
19162.9
15939.9
14737.9
11671.9
11688.8
13319.7
18810
18769.6
39714.6
41112.5
27954.2
28863.3
16181.9
13646.1
17494.3
12448.2
8137.4
8395.18
6658.93
9641.96
3461.22
4266.41
9274.68
13074.1
5565.98
6586.41
10193.7
17636.4
7105.13
11827.9
2692.68
7000.1
2242.3
5208.83
18147.1
22484.1
18881
22483.9
22138.9
22295.5
22702
22107.5
16171.8
21998.3
16485
21665.6
18668.1
22385.1
18701.7
22364.9
22983.2
21884.7
22954.7
21708.4
14989.5
22124.1
14498.1
22223.9
18588.2
22112
23465.6
33163.8
19705.8
25697.5
23274
36227.4
17616.2
19389
23543
31783.6
17433.4
18111.9
23795.2
31503.8
5766.23
7667.8
14825.8
26389
7201.52
8264.92
19202.9
30014.5
8855.34
8972.06
24116.8
33080
25094.2
26548.5
21606.9
21226.1
31565.1
26619.8
25439.8
21996.2
19327.6
36336.9
24312.7
24267.7
21939.8
22298.6
41143.9
2176.5
2647.21
4724.87
11208.7
3134.52
3589.63
6579.96
12514.5
4608.79
3915.81
8826.32
14105.5
26112.1
25379.7
23789.6
22991.1
20796.8
18652.3
15921.9
13902
11492.7
16315.8
23896.4
22738.6
24355.3
23645.5
21470.3
19878.5
18071.6
16073
12191.7
16319.6
24293.7
27254.3
24278
28008.9
23249.9
23921.3
22758.4
24194.4
22366.4
22708.3
22167.3
22014.8
24111.7
28159.9
24027.9
28164.2
22128.5
24546.1
21971.9
24519.5
22454.7
22657.1
22466.3
22657.6
19025.4
18070.9
12335
13806.2
18915.8
17624.2
12169.1
13946.8
19274.1
17998.1
12593.6
13821.8
19352.9
17812.5
12982.3
13814.6
1737.8
1129.45
759.842
990.819
646.27
596.023
2474.45
1400.58
1027.73
1944.42
1515.16
1270.4
2791.63
2195.68
2149.16
3383.15
2681.26
2364.55
23667
20767
18828.1
21993.3
19852.6
18254.3
15911.8
14368.9
13511.4
11019.7
9223.11
8443.08
5180.29
3665.13
3035.98
21541
19345.6
17624.4
22390.5
19779.6
17870.1
16796.5
13927.4
12328.9
11094.5
8525.78
7467.98
5491.98
3631.57
2843.01
27733.4
26982.2
30338.4
27073.9
31261.1
27083.1
37922.2
28655.8
21164.8
21446.3
20913.6
19427.4
23936.2
22380.4
23577.5
20034
23376.9
23093.8
21499.4
22867.4
28369.9
25631.2
28613.3
29112.2
31228.5
32366.2
23760.9
24711.5
21262.7
20669.7
25751.1
26468.8
16559.4
8979.76
15539.3
9933.34
16799.6
9052.14
15506.5
9865.79
16587.8
9095.16
15486.2
10279
15102.1
10754.1
15307.1
10664.4
21426.9
18171.1
21420.8
18216.9
23763.5
21341.5
24131.2
21212.1
20895.7
15116
21678.4
14858.2
21976.7
18173.6
22294.4
17982.7
24843.2
21089.9
24904.7
20841.9
20768
15194.5
20743
15108.7
13645.7
9133.89
11927
7772.69
12655
8182.46
11423.6
7267.68
14020.6
9703.27
12141.7
8010.3
14057.3
10043.1
12116.8
8068.44
2595.47
1354.62
4816.53
2669.58
2777.83
1669.04
5141.13
3186.36
3402.88
2495.41
5678.32
4113.86
13040
20330
9399.95
9022.91
6536.65
19811.3
13693.2
8003.23
8051.04
5398.81
20737.8
16216.8
12831.3
9979.4
6383.08
723.826
525.106
1595.46
1205.01
1025.65
693.804
2197.73
1750.85
1749.39
1308.81
3109.62
2525.52
19944.4
18980.8
13386.1
12566.4
8637.56
8481.25
7266.51
6470.57
4615.32
3757.14
18809.3
16828.7
14448.8
12418.8
11167.4
9657.38
8486.11
7425.47
5613.96
5359.65
14913.9
11795.6
15064.4
11586
18100.5
14804
18136.9
14699.8
12497.2
9873.23
12084.8
9849.78
15107.2
11450.3
15025.6
11443.2
18109.1
15036.4
17953.8
15011.3
12748.1
9753.38
12730.6
9883.36
9702.61
7968.96
6585.63
6674.96
9323.46
7756.14
6286.14
6301.99
10124.9
8141.14
6757
7055.7
10358.9
8140.26
7015.28
7156.3
1484
1290.15
1060.92
6402.36
3399.21
2759.28
1475.63
1436.48
1266.34
7044.19
4090.09
3445.31
2053.22
2266.35
2301.4
7887.9
5171.23
4568.46
17404.6
15821
14759.1
11701.3
11013.7
10609.1
8390.01
8042.88
7911.33
7042.27
6633.22
6379.95
9090.11
6440.65
5759.03
14931.9
13320.8
12283.6
10900.6
9797.73
9186.7
8881.33
7965.79
7472.5
8345.48
7198.17
6556.24
11123.5
7287.56
6454.49
4964.04
3045.31
2018.99
1483.12
5564.04
3295.17
2125.28
1521.44
4991.48
3045.68
2024.81
1493.28
5685.39
3365.74
2174.42
1549.17
4986.88
3021.46
2045.14
1505.1
5803.69
3411.96
2239.92
1575.51
6237.25
3605.24
2268.25
1605.04
6416.54
3739.54
2327.73
1652.53
5310.39
3214.75
2133.97
1534.45
4408.74
2851.45
1971.31
1469.94
4685.98
2926.38
2003.46
1446.44
4078.32
2695.43
1896.68
1416.89
5730.65
3432.87
2222.19
1589.36
4608.06
2965.54
2017.98
1510.34
5967.19
3581.54
2287.95
1635.51
4697.56
3047.68
2060.35
1540.56
3787.72
2633.38
1852.45
1411.85
2545.63
2145.57
1649.57
1327.36
3804.66
2624.47
1852.32
1410.68
2656.74
2176.22
1660.02
1335.45
3902.4
2629.3
1871.09
1424.86
2978.23
2271.39
1698.72
1367.1
3873.58
2577.11
1847.65
1456.31
3258.93
2340.74
1751.52
1368.37
3638.86
2514.15
1813.04
1396.95
1339.13
1755.93
1331.74
405.545
38.9699
1542.21
1206.61
419.337
1562.39
1830.93
1362.23
427.124
302.589
1625.56
1233.26
428.453
1984.11
1963.58
1406.51
425.997
757.921
1764.9
1270.47
433.272
2508.5
2124.29
1477.54
461.928
1257.23
1922.7
1326.36
451.873
2872
2275.26
1566.52
533.988
1428.63
2047.47
1379.02
468.32
3078.15
2447.22
1605.21
511.417
1222.61
2192.2
1478.89
497.844
2996.52
2371.39
1576.58
510.924
1166.47
2125.48
1427.98
480.45
3112.19
2500.69
1622.43
479.274
1189.95
2248.28
1510.42
500.788
3176.9
2555.16
1662.29
488.416
1290.4
2305.86
1548.67
512.374
1191.97
836.105
535.289
294.571
93.6455
1180.51
834.537
535.705
294.976
93.7814
1208.21
844.016
538.874
296.142
94.0911
1201.87
844.64
540.477
297.115
94.3934
1239.12
854.633
543.291
298.037
94.6271
1228.13
855.875
545.78
299.507
95.0811
1244.55
868.432
552.695
302.814
96.0499
1273.49
886.205
562.415
307.487
97.4239
1270.08
867.283
549.568
300.935
95.4665
1353.11
882.371
553.744
302.419
95.8614
1276.13
863.941
546.57
299.349
94.9901
1351.15
876.86
550.423
300.805
95.3856
1281.12
878.291
555.752
303.912
96.3409
1378.04
893.03
559.346
305.093
96.6464
1311.09
895.59
564.887
308.26
97.6164
1409.77
908.467
567.241
308.835
97.7441
1223.01
840.253
535.253
294.236
93.5228
1283.07
845.021
535.383
294.045
93.4492
1238.56
846.543
537.951
295.392
93.8481
1295.75
849.816
537.459
294.937
93.7005
1268.62
856.499
541.99
297.119
94.3353
1321.6
858.075
540.972
296.466
94.133
1315.73
867.736
546.045
298.804
94.8076
1352.57
866.925
544.942
298.23
94.6359
1359.91
873.497
548.319
299.787
95.0857
11161.6
17306.8
11671.5
17585.5
12309
17819.2
12659.5
17867.7
11979.4
16971.4
10879
12295
10964.8
13024.5
10900.1
12120.2
11072.6
12237.3
9986.55
1705.33
365.083
82.1554
14.5896
11122.5
3170.62
771.66
175.613
31.1686
10041.1
1695.6
361.112
81.0002
14.3487
11167.7
3147.95
763.964
173.126
30.4754
10038.4
1672.76
353.608
79.0377
13.9787
11137.3
3110.17
751.487
169.796
29.8587
9827.67
1603.85
336.336
75.0505
13.2722
10885.4
3014.92
726.474
163.99
28.8226
9198.3
1463.43
306.457
68.644
12.1735
10194
2830.37
684.666