/*--------------------------------*- C++ -*----------------------------------*\
| =========                 |                                                 |
| \\      /  F ield         | OpenFOAM: The Open Source CFD Toolbox           |
|  \\    /   O peration     | Version:  2306                                  |
|   \\  /    A nd           | Website:  www.openfoam.com                      |
|    \\/     M anipulation  |                                                 |
\*---------------------------------------------------------------------------*/
FoamFile
{
    version     2.0;
    format      ascii;
    arch        "LSB;label=32;scalar=64";
    class       volScalarField;
    location    "0.9";
    object      gradTz;
}
// * * * * * * * * * * * * * * * * * * * * * * * * * * * * * * * * * * * * * //

dimensions      [0 -1 0 1 0 0 0];

internalField   nonuniform List<scalar> 
5712
(
8666.11
28367.4
6932.56
29049.8
5132.53
29807.8
7947.64
45171.2
9739.76
61892.9
9762.44
45546.6
9509.44
38065
9894.81
34160.7
5972.4
3816.43
16036.2
9641.46
5758.79
3125.71
17181.1
8512.04
6719.1
5068.62
21452.5
15597.2
5087.49
3861.83
21071.9
15786.6
11986
5134.57
10455.2
4748.72
4974.96
11404.3
39903.9
10644
14328.5
4560.36
50588.3
13473.9
13080.9
4156.35
28989.4
8884.87
14889.6
5016.76
25639.7
8068.08
8718.56
4323.39
11530.1
4600.38
9463.49
5086.11
11181.6
4411.68
11619.8
6700.7
9625.7
4312.96
13655.5
5010.75
4622.99
1644.28
15570.4
11070.6
9328.27
6914.15
16211.8
13367
8687.34
7449.01
9302.17
6538.15
13767.1
9629.3
5910.32
4355.99
2695.78
2207.11
5370.94
4588.85
2427.84
2377.02
5965.87
4017.9
2804.03
1795.46
8646.16
4813.43
6748.23
7965.3
12321.5
8856.17
10174.9
13937.2
5500.15
2683.23
3833.44
4450.87
2545.22
1100.17
1507.51
1583.2
12284.1
21802.1
8184.12
24173.3
14124.1
21188.3
9939.71
25026.5
15678
18921.3
12523.4
23969.3
15991.7
17456.9
13454.5
13352.1
14316.4
17552.5
17893.4
19094.4
20428.6
28871.9
14324.9
12308.4
11592.2
13227.8
19928.8
25533.7
23057.4
29421.3
28700.4
23370.6
21858.9
28860.9
27934.3
20110.4
19840.4
26799.7
26696.2
13050.2
10555.8
13719
12456.4
15794.3
14939.1
17739.2
17713.6
24155.9
25450.9
12056.7
10967.6
12749.7
13315.1
14026.6
16017.4
16227.8
19314.2
21034.3
25505.6
10331.4
8142.95
6821.75
8395.8
12813.4
14984.9
8622.75
13245.8
6224.35
7832.62
9616.33
8023.18
1740.59
5409.16
617.496
1747.24
4231.56
8644.95
1286.12
2772.69
1123.33
4880.3
350.635
1552.58
6374.77
6371.55
7355.89
4804.43
10356.4
8490.91
12250.9
8823.35
1759.85
3432.16
3645.23
2212.32
1783
2275.77
2536.17
1912.17
18683.5
11489.8
3697.66
20992.4
12232.3
4035.52
17948.2
11365.5
3907.39
20539.3
12215.2
4031.55
16455.4
10453.8
3474.53
19863
12178.7
4088.41
7477.48
4470.66
1355.17
10437.1
6997.72
2400.88
13092
8999.43
3103.51
15577.3
10236.7
3426.35
19526.5
12388.9
4307.41
8511.15
5219.64
1805.8
10353.5
7558.24
2888.03
12848.6
9466.33
3528.74
15930.1
11247.6
4076.05
19815.9
12654
4543.62
258.549
2045.23
2819.06
4143.91
2442.52
2734.49
6041.78
5671.29
585.769
932.818
624.554
969.576
424.946
1289.57
793.547
1698.65
2952.66
1471.57
3870.76
2286.22
1977.75
3367.97
3299.61
307.956
6592.78
1129.41
-2649.31
-192.498
1335.91
604.953
622.263
206.048
8872.27
3647.23
2385.02
1343.69
9026.13
3760.97
3012.95
1686.7
8948.09
4004.52
4232.02
2640.37
2840.6
1814.97
839.375
840.124
13066.4
11396.4
5966.86
6085.54
14973.7
13851.6
7233.73
7163.54
4902.05
4955.48
10550.2
8546.35
3291.21
3473.51
1461.44
1858.22
4213.18
4160.56
1942.23
2190.5
2578.96
2869.25
1068.64
1632.6
4029.53
2428.98
3904.39
2343.92
6560.93
3285.42
6003.44
3336.06
2149.33
1621.58
2331.36
1413.99
843.522
803.886
1325.75
719.379
10146.6
6218.89
4551.62
4110.47
10167.8
6527.36
4554
4102.87
10778.7
7141.37
4621.53
4062.44
14359.6
16556.9
12243.7
7553.91
3624.58
15673.2
13425.4
11522.5
8707.67
4668.45
14591.1
12293.1
9131.12
6401.65
3334.4
4512.19
3468.68
3784.22
3738.23
4908.68
3625.41
3929.85
3810.83
5579.01
4049.66
4151.73
3970.21
11780.6
8447.07
10037.7
6885.34
7193.96
5526.39
6015.96
4730.62
3985.59
4109.43
9833.94
8591.73
7998.24
6839.42
6203.86
5374.99
4806.96
4407.05
3073.35
3886.75
7109.2
4855.8
4612.55
2907.59
9975.78
7685.16
6752.22
5550.23
3431.52
2096.1
5092.22
3665.24
4407.5
2120.22
1354.49
740.869
4999.36
3675.76
1464.84
1232.87
3525.05
1544.72
1170.13
567.138
2445.96
2084.67
1723.55
2353.76
3503.55
3028.16
2218.84
2978.86
2492.4
1458.33
1256.56
1607.89
576.396
234.044
-106.924
159.749
2247.44
948.762
278.882
2362.25
649.954
175.121
2424.92
1086.32
333.198
2445.19
706.607
199.386
2578.12
1228.4
335.934
2553.24
771.501
193.27
5495.25
3048.56
830.337
4256.81
2209.12
607.439
3527.5
1770.54
514.343
2951.95
1412.05
350.86
2673.44
805.63
152.985
6545.5
3548.39
1085.24
5121.72
2635.92
783.313
4045.98
2038.28
612.72
3256.06
1465.5
396.239
2918.62
780
201.266
1268.87
414.934
103.673
-24.6385
527.344
178.368
51.7078
1.03522
1325.45
442.517
124.707
-3.09762
648.28
230.629
100.776
41.4267
1393.39
474.755
166.385
36.5462
1034.09
396.112
114.863
18.2163
682.123
304.414
46.4669
-29.2195
502.099
268.407
103.911
42.2399
1065.04
399.15
95.5865
-47.7848
868.361
317.937
119.016
-33.9777
1320.37
453.362
144.386
-5.81934
1145.59
389.652
145.548
-53.1198
769.803
320.799
90.4282
-19.3226
607.22
245.11
105.587
4.07617
462.867
226.749
96.9218
43.1025
346.362
167.562
87.648
38.2053
1574.83
503.437
124.196
-60.6464
1477.98
458.247
166.035
-77.6517
1563.91
503.145
128.221
-58.8602
1433.7
443.486
166.053
-76.9481
1520.86
493.403
161.367
-25.8483
1346.15
415.687
182.368
-52.7466
1313.64
439.651
186.106
40.2116
1469.67
454.877
234.446
-56.9641
1134.1
376.955
172.295
-0.200375
1098.5
315.355
136.377
-40.1164
420.953
113.083
38.0822
-1.4292
1153.34
335.542
143.218
-37.0882
446.816
122.105
43.8445
2.97231
1202.98
356.72
160.368
-27.6448
469.347
131.988
49.9656
7.5729
1098.41
331.811
172.16
-14.8295
466.703
134.807
61.7809
15.4024
1005.05
318.329
169.009
2.81957
426.088
136.909
74.7172
24.4622
641.514
217.57
88.5482
-0.568789
368.484
146.322
68.0197
28.6282
782.099
246.817
115.824
-2.00173
397.243
143.333
73.2581
27.7643
471.34
180.164
74.4262
8.72006
291.187
130.095
58.7318
28.5475
275.783
131.417
67.8702
30.4826
196.494
105.021
54.2637
31.2625
-0.853549
1.20607
0.771165
0.372719
0.203673
0.610271
0.775944
0.428831
0.201473
0.10929
4.06402
3.11741
1.55384
0.707271
0.380096
6.04289
2.96191
1.3415
0.594512
0.317119
8.51353
5.18896
2.45692
1.10382
0.592144
18.9488
9.36933
4.17824
1.84468
0.985345
19.7862
10.2142
4.6459
2.07887
1.12107
27.7212
12.939
5.74103
2.5626
1.38719
10.7573
7.01559
3.33012
1.5026
0.81013
11.5167
6.5747
3.03911
1.36256
0.733744
8.81286
5.86108
2.76345
1.23817
0.664043
15.2073
7.33652
3.18432
1.38893
0.737872
12.7389
7.90484
3.76456
1.712
0.929414
14.8708
7.58182
3.45451
1.55148
0.839181
21.8339
10.3021
4.59375
2.05659
1.11542
18.3082
8.47442
3.77161
1.69018
0.917604
-3.72364
0.664494
0.571957
0.2867
0.157864
-2.31213
0.208341
0.218212
0.110471
0.0608386
-0.494476
1.90929
1.06784
0.495504
0.267122
-1.12377
0.670192
0.39995
0.186412
0.100408
3.11735
3.18166
1.5697
0.708531
0.379707
3.54527
2.20749
0.986827
0.430112
0.227224
11.8168
6.15863
2.71464
1.18516
0.628443
8.28735
4.04629
1.72595
0.742877
0.391243
20.0564
8.2484
3.41554
1.46057
0.768667
2675.06
6083.09
2797.59
6075.05
3162.3
6080.01
3716.06
6279.38
3773.35
6345.5
1595.53
2271.09
2530.08
3801.42
863.187
1135.69
261.21
344.007
13652.9
3306.21
770.897
175.99
45.1347
3759.54
1023.67
275.763
63.965
14.4041
13379.7
3218.68
750.717
170.167
44.0048
3835.29
1138.93
284.711
67.4912
17.2608
12573.6
3011.71
701.437
159.111
41.2743
3721.06
1097.78
273.596
64.54
16.5723
11269.4
2684.27
625.111
142.054
36.9611
3582.46
1034.91
254.89
59.6602
15.2571
9204.96
2188.55
511.483
116.732
30.5087
3325.78
937.209
228.83
53.3293
13.6261
4174.2
1041.96
248.911
57.5245
15.1517
1603.48
459.224
111.516
25.5963
6.53595
6339.05
1557.67
368.438
84.5324
22.1674
2368.78
669.355
163.66
38.153
9.82345
2416.95
608.614
146.273
34.023
8.99647
895.175
266.039
64.3742
14.7725
3.80425
822.208
206.326
49.7623
11.6231
3.07732
336.114
92.6755
21.0444
5.92795
1.21434
-781.914
-105.22
4920.09
-1369.21
803.759
861.104
2499.47
3219.35
2037.93
3857.06
3355.37
5185.39
4158.37
5152.34
2125.5
2852.94
2214.35
2630.1
1147.59
1193.27
2161.53
1419.31
691.169
-19.2722
-231.805
-268.68
157.744
14366
4641.48
5174.92
3853.1
570.784
636.576
3437.09
-362.493
54.7037
-157.543
-148.718
7776.52
4328.06
2084.51
1457.91
3669.79
2260.5
838.197
1465.49
-595.905
-125.416
1066.13
931.96
8859.71
4051.21
5612.96
2844.4
3779.93
5025.38
1702.6
-158.09
1329.23
1392
1024.87
796.466
636.1
419.029
1052.79
789.523
571.768
373.167
150.036
596.745
481.77
351.289
214.041
72.2229
-17.4291
-14.5964
-10.7358
-6.41324
-2.11712
-205.731
-170.199
-125.788
-76.6319
-25.6623
-238.777
-197.879
-146.538
-89.4389
-29.9841
138.897
115.273
86.8608
54.5451
18.7524
9694.78
7505.54
5597.64
4266.5
3188.32
3609.65
2727.81
2121.71
1476.18
664.757
3819.71
2838.38
2092.67
1394.18
609.087
2786.42
1986.11
1460.07
957.343
360.142
478.308
337.369
283.5
197.612
77.3316
583.092
501.922
391.402
254.317
90.7769
2768.31
2137.98
1529.75
957.292
355.261
-115.523
36.9867
87.2995
81.8824
34.5275
68.6024
79.1909
78.8385
61.1264
24.3087
-43.9664
34.406
70.651
65.4034
27.0917
-142.445
-121.774
-89.4302
-52.7392
-16.9112
5345.38
4306.48
3276.36
2541.14
1908.35
3228.3
2404.07
1778.81
1174.4
490.83
1783.03
1446.3
1077.54
681.894
243.445
1231.73
985.083
723.034
450.738
158.198
2973.86
2292.84
1637.87
1010.55
362.081
1928.55
1550.94
1139.22
706.883
243.928
711.616
569.774
416.601
257.229
88.6751
1258.01
1012.3
738.614
452.162
153.683
-508.049
-401.042
-282.756
-165.707
-54.1355
-111.016
-89.6233
-62.7991
-35.5129
-11.0933
910.914
732.378
536.976
332.211
114.646
802.055
648.981
477.567
295.234
101.258
5444.87
3658.61
2781.75
2156.59
1542.99
2962.28
2171.25
1547.07
1001.16
407.382
3939.04
2990.52
2179.64
1480.1
633.48
2188.1
1680.27
1211.86
776.439
304.783
3114.3
2435.32
1756.86
1086.1
382.085
3723.71
2665.27
1940.19
1266.82
478.105
1450.29
1159.62
843.17
516.284
176.119
-141.67
-116.994
-84.9284
-50.195
-16.3205
1128.15
904.175
663.658
412.542
143.199
-35349.2
-56744.5
-29466.3
-45819.3
-30956.1
-62917
-36895.7
-80021.4
-22667.3
-15799.2
-24913.2
-15912.2
-20654.4
-13513.5
-24981.6
-13604.4
-29867.3
-23018.7
-42680.6
-31345.1
-25749.8
-21004.9
-35511
-27172.1
-20305.7
-21203.5
-16859.5
-16618.4
-20280.1
-18614.1
-47127.2
-13053.7
-18465.3
-7079.39
-56784.8
-15936.3
-16467.4
-6440
-35639
-11239.9
-18925.6
-7380.7
-32096.7
-9917.16
-16020
-6528.41
-19937.2
-7294.37
-15290
-6815.32
-17285.4
-6337.83
-15783.2
-7831.2
-13826
-5582.12
-17291.3
-6184.51
-6051
-2149.6
-13246.1
-9344.01
-11413.6
-7324.93
-11426.5
-9458.87
-9892.92
-7229.62
-11775.8
-7164.61
-13949.7
-9337.98
-7884.8
-4977.76
-4326.03
-2853.22
-6815.53
-4851.88
-3715.77
-2777.31
-8063.51
-4710.52
-4464.76
-2465.91
-10528.9
-5422.77
-7218.93
-8093.56
-13532.1
-9210.12
-10274.3
-13794.6
-7088.19
-3218.02
-4347.82
-4636.31
-3796.71
-1545.71
-2002.91
-1772.34
-16253.5
-20269.6
-9315.24
-23225
-16897.6
-19329.6
-10718
-23707.9
-17041.9
-17487.2
-12763.2
-22454.5
-11330.7
-9044.17
-12787.9
-14349.1
-14399.2
-12148.4
-14481.2
-17271.6
-19068.1
-27078.4
-8683.95
-9402.43
-10468.2
-12630.7
-19122
-19538.3
-13723.8
-24986.2
-19405.7
-18117.4
-13486.8
-24621.2
-19356.2
-16008.7
-12693.2
-22992.2
-19220.1
-9887.55
-7903.91
-10878
-8892.71
-12419.5
-10376.4
-13993.8
-12188.2
-20884.7
-19360.9
-9109.86
-8103.25
-9877.04
-9247.3
-11302.3
-11301.3
-13732
-14289.3
-18932.1
-20151.4
-8604.15
-6856.49
-6332.59
-7768.98
-9979.95
-12848.1
-7554.13
-11884.8
-6094.66
-7522.43
-8689.89
-7124.46
-1752.77
-5200.67
-785.001
-1743.78
-3922.95
-8110.21
-1238.99
-2540.01
-1286.1
-4847.39
-615.286
-1649.38
-6352.38
-6164.85
-7296.87
-4590.19
-9808.16
-7730.35
-11807.2
-8002.6
-1915.26
-3441.75
-3708.81
-2187.89
-2014.43
-2382.73
-2656.3
-1970.22
-8408.19
-2891.17
-11430.1
-3883.6
-8601.65
-3030.94
-11706.3
-4182.17
-8561.35
-2989.94
-12336.2
-4700.38
-4819.65
-1457.64
-6269.23
-2347.17
-7375.34
-2814.14
-9052.1
-3376.42
-13083.9
-5142.86
-5846.53
-1916.79
-6259.83
-2877.2
-7788.84
-3474
-10276.7
-4325.68
-13789.2
-5182.05
-7899.42
-7318.85
-6339.94
-6076.44
-13174
-10140.6
-10941.4
-9064.05
-5044.3
-3973.98
-2118.97
-1428.83
-4893.87
-4313.52
-2108.48
-1997
-4136.51
-5693.03
-4662.33
-6074.63
-4516.52
-3444.62
-4631.34
-1535.99
-8838.26
-2938.77
1696.23
-731.433
-1969.06
-1312.32
-752.223
-492.473
-2460.59
-1412.36
-972.725
-486.119
-2725.51
-1541.22
-1542.37
-660.404
-3179.46
-1882.14
-2437.24
-1148.21
-2027.46
-691.098
-371.919
221.495
-6288.87
-6533.2
-5109.95
-4614.09
-8712.77
-8627.98
-7385.44
-6183.84
-3346.11
-3367.82
-4520.82
-4844.34
-3404.29
-2870.62
-1809.99
-1571.67
-4984.01
-3948.24
-2775.97
-2237.78
-2121.99
-2039.5
-948.125
-1102.94
-2105.25
-1188.23
-2519.98
-1454.51
-2823.97
-1718.28
-3603.5
-2173
-1184.58
-661.828
-1473.5
-718.697
-245.059
22.2203
-694.368
-120.914
-3256.68
-3641.26
-2205.86
-2833.71
-3318.61
-3782.93
-2263.78
-2836.99
-3670.36
-3746.24
-2421.37
-2739.88
-4021.76
-6437.15
-3164.85
-2303.82
-1686.26
-9220.7
-6371.27
-5202.36
-4393.86
-3216.88
-7443.2
-5868.31
-4463.77
-3508.51
-2064.56
-3815.72
-3416.55
-3862.97
-5609.05
-3814.72
-3251.32
-3764.92
-5414.62
-3841.34
-3366.78
-3561.23
-5108.23
-8532.54
-6521.13
-7097.91
-5293.46
-5494.11
-4185.26
-4631.22
-3879.7
-3399.67
-4751.14
-6891.04
-6392.76
-5352.57
-5098
-4159.58
-4043.99
-3448.92
-3649.4
-2273.73
-4011.93
-4435.59
-3201.61
-3229.16
-1632
-6796.43
-5795.93
-5329.22
-4146.49
-2245.71
-1027.21
-3135.4
-2358.55
-3659.24
-1443.04
-908.972
-289.514
-4384.91
-3012.1
-1188.49
-835.356
-2779.18
-938.505
-642.937
-130.113
-1581.77
-1366.17
-1225.2
-2039.1
-2266.22
-2184.13
-1631.47
-2725.48
-1854.17
-997.682
-800.376
-1326.62
-52.1726
141.342
538.306
124.592
-2344.83
-702.616
-3660.5
-329.56
-2310.27
-791.962
-3609.1
-352.611
-2051.56
-590.373
-3319.05
-249.937
-3739.51
-989.725
-3072.57
-828.416
-2748.27
-866.696
-2276.31
-505.941
-3141.34
-371.944
-4703.03
-1135.41
-3748.63
-756.544
-3126.48
-667.547
-2752.49
-446.72
-3294.06
-421.05
-596.446
-183.052
-9.80281
73.6349
-224.046
-67.9691
-8.56798
18.5125
-617.89
-181.878
-15.056
59.9584
-222.469
-56.4492
-30.3392
-10.6184
-665.096
-183.31
-37.7032
30.1441
-275.15
-37.1005
60.2765
72.2982
49.792
83.7053
154.034
132.088
318.729
196.51
135.957
77.4803
-438.147
-92.8901
63.1124
137.249
-351.094
-46.4674
24.3974
120.469
-695.367
-177.971
-10.6435
83.1265
-557.829
-107.474
-1.54581
148.937
-166.715
4.74796
78.906
108.984
-147.502
14.7085
37.2147
79.2894
132.677
113.538
85.9981
54.116
84.7139
86.4882
56.2619
46.0105
-851.483
-251.28
-16.9479
126.993
-963.075
-256.404
-89.5267
147.782
-834.52
-238.629
-12.4266
130.569
-935.219
-244.524
-88.4805
147.758
-803.24
-217.751
-43.5291
95.9104
-870.403
-221.849
-106.39
123.978
-590.232
-142.274
-52.7704
38.8833
-927.454
-222.504
-136.042
148.456
-548.59
-108.947
-37.7248
97.4718
-829.189
-183.326
-86.7403
91.7369
-347.465
-67.6413
-14.9812
18.6157
-794.675
-172.714
-81.7736
92.8759
-337.566
-64.5435
-15.843
16.7285
-717.934
-149.378
-85.325
87.475
-301.591
-54.5601
-12.9396
17.3436
-620.131
-124.853
-96.8457
73.1509
-262.118
-44.2497
-18.6752
13.9001
-504.229
-90.3466
-77.1098
58.8169
-169.731
-19.8062
-19.9691
11.6411
-298.291
-28.3133
14.4065
70.8181
-45.9434
28.1918
22.392
28.5382
-426.868
-68.1462
-26.5136
65.7887
-87.5853
8.55517
1.38357
19.9904
-129.03
21.2304
38.9143
65.6454
12.1213
49.9412
39.738
33.6724
61.6134
74.7774
49.4673
45.1661
91.6049
75.8552
46.7268
32.4166
13.9884
3.13578
0.87412
0.316826
0.161066
5.55886
1.43626
0.437874
0.166333
0.0861536
14.9804
4.12119
1.39467
0.56697
0.302084
7.61044
2.75516
1.07762
0.466048
0.25373
18.1422
5.64734
2.10227
0.893683
0.483276
20.631
8.00981
3.35184
1.4908
0.817933
24.4995
9.75914
4.1197
1.82785
0.997431
27.2311
12.2393
5.39765
2.42161
1.32101
23.235
7.57173
2.95844
1.28125
0.695464
19.5236
6.66439
2.66314
1.16268
0.632637
20.4492
6.16767
2.34261
1.00822
0.547556
16.0735
5.78305
2.43247
1.09019
0.600865
25.1309
8.89452
3.57134
1.55385
0.841527
19.3152
7.54622
3.15362
1.39234
0.757987
22.7083
10.0334
4.39525
1.96667
1.07156
18.6962
8.29454
3.63053
1.62307
0.884002
16.2959
2.94392
0.730428
0.250118
0.124414
7.80994
1.22431
0.285747
0.0958445
0.0474149
16.5807
3.46213
1.02938
0.397512
0.208322
7.88741
1.39966
0.390131
0.147753
0.0770679
16.2007
3.97927
1.35986
0.562534
0.302058
7.54189
1.95948
0.73153
0.3172
0.173755
16.496
5.13104
2.0374
0.897947
0.492936
9.30224
2.92927
1.20756
0.541918
0.299929
12.2178
5.24614
2.34609
1.07721
0.599813
-2490.42
-4900.68
-2624.01
-4955.16
-2962.19
-5066
-3346
-5274.78
-3294.79
-5337.03
-1484.89
-2100.43
-2261.51
-3351.74
-845.701
-1095.1
-292.627
-363.045
-13106.1
-3185.63
-746.346
-171.29
-44.2005
-3562.65
-984.531
-266.767
-62.2058
-14.1064
-12835.7
-3101.1
-727.031
-165.713
-43.118
-3637.15
-1094.4
-275.292
-65.6126
-16.8818
-12051.8
-2902.96
-680.007
-155.139
-40.4903
-3524.55
-1053.52
-264.358
-62.7356
-16.2105
-10815.1
-2593.39
-607.589
-138.848
-36.3358
-3380.5
-991.297
-246.13
-57.9982
-14.9302
-8890.97
-2126.72
-499.606
-114.565
-30.0896
-3130.26
-897.742
-221.211
-51.9228
-13.3548
-4126.52
-1029.82
-246.225
-56.9973
-15.0472
-1533.87
-443.009
-108.211
-24.9807
-6.41841
-6200.11
-1527.08
-362.238
-83.3727
-21.9427
-2237.84
-642.408
-158.445
-37.1967
-9.64088
-2405.93
-604.806
-145.292
-33.8154
-8.95398
-869.793
-258.705
-62.6824
-14.4372
-3.73828
-822.778
-205.317
-49.3934
-11.534
-3.05826
-333.782
-90.4423
-20.3235
-5.76404
-1.18054
-1021.08
-2317.12
-7536.67
-321.19
-8209.49
-3637.34
-8015.24
-3816.69
-14595.7
-7802.28
-16235.6
-8542.81
-52.7231
-166.941
-261.078
-310.529
-258.313
22.6583
-91.6344
-287.772
-447.24
-521.37
-433.012
-82.6562
-40.518
-39.5889
-123.375
-120.868
-175.32
-177.229
-159.684
-170.446
-119.454
-159.763
-20.6311
-93.1535
752.437
1736.54
2875.23
2043.99
1805.83
743.711
605.224
1618.68
2708.34
3220.77
2683.48
1109.83
-47.242
-39.6128
-29.7577
-18.4092
-6.22519
-149.69
-125.63
-94.47
-58.4937
-19.79
-233.97
-196.237
-147.472
-91.2677
-30.8706
-278.113
-233.09
-175.037
-108.264
-36.6078
-231.679
-194.471
-146.225
-90.5148
-30.6158
16.6744
10.6824
5.86088
2.75539
0.805438
-81.9714
-68.5965
-51.4269
-31.7646
-10.7323
-257.547
-215.665
-161.811
-100.016
-33.8071
-399.787
-334.312
-250.501
-154.687
-52.2616
-465.177
-388.159
-290.26
-178.978
-60.4252
-385.657
-321.172
-239.739
-147.646
-49.8197
-75.1403
-63.9682
-48.6662
-30.3421
-10.2924
-36.3556
-30.5361
-22.9792
-14.2356
-4.81751
-35.5499
-29.8883
-22.5145
-13.9592
-4.7261
-110.756
-93.0869
-70.1008
-43.4546
-14.7108
-108.543
-91.2648
-68.7575
-42.636
-14.4363
-157.332
-132.177
-99.4943
-61.6534
-20.8676
-158.999
-133.529
-100.474
-62.2412
-21.063
-143.447
-120.651
-90.9134
-56.3759
-19.0874
-152.772
-128.15
-96.3073
-59.5994
-20.1575
-107.821
-91.1444
-68.9677
-42.876
-14.5312
-142.974
-119.687
-89.7428
-55.4279
-18.7252
-20.8948
-19.6611
-16.1206
-10.4826
-3.61122
-83.7582
-70.4249
-52.9562
-32.7355
-11.0559
656.241
534.44
391.492
238.413
80.153
1502.44
1215.3
886.858
540.064
182.072
2446.63
1954.13
1417.72
865.452
294.639
1721.22
1367.07
992.483
608.374
207.813
1549.72
1233.52
891.07
539.13
174.284
660.775
536.603
393.262
239.092
75.3347
528.171
430.376
315.367
192.059
64.5555
1405.28
1139.99
833.24
507.374
170.797
2329.68
1875.09
1364.44
830.658
280.469
2744.23
2191.94
1589.07
967.999
328.066
2282.97
1819.35
1316.98
801.732
270.811
951.58
764.203
557.412
341.261
115.329
67.7591
184.275
282.804
338.735
295.368
30.9646
115.2
314.329
478.181
555.006
464.931
110.704
51.2941
48.3112
135.976
131.84
190.841
191.715
177.945
186.504
146.659
162.917
85.8277
117.999
-675.749
-1621.78
-2686.04
-1820.4
-1583.29
-529.296
-575.568
-1574.76
-2622.28
-3083.03
-2503.13
-905.088
60.9017
51.2653
38.6724
24.0077
8.13442
165.444
139.077
104.764
64.9617
21.9964
253.73
213.117
160.405
99.3991
33.6454
303.781
255.03
191.856
118.844
40.2189
265.4
223.293
168.318
104.411
35.3585
31.9482
30.6941
25.7085
17.0242
5.93061
103.397
86.8921
65.4386
40.5716
13.7371
281.713
236.323
177.649
109.98
37.2082
427.982
358.454
269.042
166.368
56.2518
495.876
414.495
310.525
191.764
64.7968
414.813
346.207
259.02
159.819
53.9836
100.634
85.7271
65.3189
40.8021
13.8597
46.1399
38.8769
29.3557
18.2378
6.1819
43.4674
36.6356
27.6711
17.1948
5.82899
122.202
102.849
77.568
48.1433
16.3096
118.508
99.7634
75.2576
46.7172
15.8279
171.436
144.213
108.706
67.4402
22.8413
172.168
144.771
109.082
67.6509
22.9085
160.038
134.806
101.743
63.1777
21.407
167.384
140.639
105.881
65.6218
22.2131
132.571
112.292
85.1737
53.0668
18.009
146.209
122.825
92.4384
57.2675
19.3799
79.9483
69.8502
54.3683
34.4267
11.7627
106.501
89.9975
68.0617
42.2869
14.3256
-587.135
-476.075
-347.318
-210.929
-70.8336
-1399.31
-1128.45
-821.331
-499.437
-168.342
-2275.09
-1808
-1306.22
-795.781
-271.049
-1508.98
-1177.66
-841.278
-510.054
-173.38
-1331.6
-1033.88
-727.73
-430.194
-135.009
-447.209
-338.044
-228.474
-127.877
-35.0558
-501.581
-408.057
-298.585
-181.677
-61.0474
-1366.12
-1107.32
-808.846
-492.387
-165.76
-2251.69
-1808.71
-1313.82
-799.015
-269.727
-2616.21
-2079.92
-1501.21
-911.719
-308.629
-2111.78
-1666.4
-1194.56
-721.85
-242.811
-755.17
-586.818
-413.984
-246.881
-82.0872
-1866.46
-1166.63
-516.396
160.507
392.388
491.151
76.3284
-12144.2
-2669.55
-3850.38
-1788.31
-149.525
-3692.34
337.034
1665.35
647.675
-6705.14
-3327.55
-1145.14
-960.679
-3328.43
-1661.08
-577.467
-1160.69
1178.58
539.472
-739.695
-541.591
-8331.19
-3744.36
-4884.52
-2407.83
-3397.92
-4099.3
-1353.32
522.334
-857.393
-1038.15
-676.358
-489.479
-414.924
-328.566
-786.188
-532.981
-352.394
-220.349
-92.108
-438.681
-347.69
-249.358
-150.395
-50.6023
146.011
124.51
94.9646
59.3722
20.1905
351.352
294.111
220.329
135.878
45.8448
439.518
367.744
275.457
169.913
57.3424
74.4849
67.3064
53.1062
33.4426
11.2613
-8088.87
-6358.28
-4866.45
-3987.75
-3381.5
-1771.18
-1131.53
-915.502
-744.185
-419.487
-2685.71
-1890.15
-1388.19
-971.627
-479.82
-1159.19
-729.456
-551.931
-397.094
-156.834
-110.759
-79.871
-58.6858
-41.6004
-17.7384
-2957.46
-2281.91
-1629.41
-1019.04
-378.856
311.84
263.4
194.095
115.284
36.8488
1410.88
1117.33
799.549
479.238
159.774
575.642
475.412
350.26
212.654
70.862
-4371.97
-3528.68
-2724.13
-2253.13
-1904.2
-2313.17
-1617.41
-1179.34
-805.127
-372.209
-922.309
-710.094
-515.444
-330.904
-124.964
-780.177
-600.999
-430.887
-268.763
-96.808
-2689.71
-2071.38
-1483.58
-922.673
-335.519
-1374.36
-1071.21
-768.599
-472.968
-163.964
-472.932
-364.49
-258.507
-157.592
-54.7002
-982.614
-779.173
-561.971
-342.301
-116.502
1035.7
848.932
623.736
379.237
126.904
485.299
406.953
304.109
186.406
62.4479
-612.034
-476.75
-341.804
-210.179
-73.2766
-447.442
-347.178
-247.695
-151.614
-52.5098
-4948.98
-3215.71
-2429.72
-1940.09
-1496.72
-2666.72
-1902.91
-1329.59
-858.206
-357.123
-3216.38
-2353.09
-1670.97
-1152.86
-510.333
-1774.75
-1311.5
-918.816
-587.495
-240.243
-2766.3
-2137.43
-1529.31
-944.207
-334.278
-2883.66
-1934.56
-1381.6
-920.669
-363.063
-1134.72
-892.286
-640.371
-390.067
-133.413
470.969
396.214
297.226
182.879
61.4503
-696.848
-534.577
-380.451
-234.934
-82.8431
-10.6211
-16.2849
-22.3623
-52.2286
-131.667
-270.173
-25542
-22650.8
-21199.7
-24082.7
-18901.1
-15085.9
-16736.6
-12803.9
-22701.6
-20315.6
-20977.2
-20069.4
-18526.4
-15928
-19595.8
-21341.8
-19180
-17301.4
-19421.8
-16242.8
-13796.9
-14240.1
-11469
-20662.4
-18809.9
-19112
-17787.5
-16674.6
-15520.4
-16332
-17074
-15721.2
-13883.5
-15140.8
-13733.6
-11882.9
-12019
-10310
-17557.8
-16476.3
-16393.4
-15453.5
-14362
-13265.9
-14053.9
-12215.6
-11532.6
-9957.28
-10546.7
-10404.3
-9378.37
-9043.83
-8207.68
-13020.5
-13305.3
-12318.2
-12595.8
-11071.4
-10069.6
-11274.6
-7936.98
-7605.07
-6470.8
-6751.11
-7043.4
-6404.07
-6020.61
-5531.66
-8720.92
-8823.4
-8341.03
-8322.6
-7642.89
-6945.71
-7600.23
-2879.55
-2781.53
-2351.8
-2436.07
-2614.15
-2436.68
-2215.7
-2056.82
-3281.43
-3334.53
-3096.62
-3025.68
-2872.86
-2640.98
-2857.16
-9362.68
-9191.5
-14229.2
-15333.7
-8742.1
-7748.52
-12484.9
-10159.6
-6838.9
-4716.52
-6824.98
-4788.99
-6823.03
-6612.52
-4988.15
-9272.44
-8797.6
-12749.5
-13874.9
-8161.37
-7356.26
-11110.8
-9512.74
-6774.37
-3964.86
-6681.44
-4258.39
-6113.34
-5945.51
-4756.25
-8368.92
-7961.22
-10829.9
-11608.1
-7450.57
-6875.84
-9681.99
-8507.97
-5506.31
-3945.31
-5491.95
-4271.26
-5096.45
-5146.22
-4582.43
-6619.19
-6348.38
-8113.21
-8533.66
-5996.82
-5559.02
-7481.61
-6770.07
-4953.36
-3303.14
-4878.33
-3605.05
-4541.78
-4550.36
-3844.86
-4480.74
-4323.35
-5349.69
-5565.1
-4021.62
-3688.68
-5018.52
-4572.73
-3354.94
-2384.82
-3296.06
-2589.3
-3080.34
-3057.44
-2632.76
-1650.55
-1595.62
-1951.77
-2020.32
-1481.29
-1352.92
-1844.09
-1689.53
-1110.82
-860.145
-1167.68
-962.554
-1128.72
-1110.9
-949.171
8627.76
27788.5
6895.49
29048.6
5113.5
29810.5
7942.58
45180.4
9733.83
61905.6
9743
45542.3
9469.47
38044.9
9868.67
33433.1
5963.98
3814.46
16037.3
9641.66
5756.89
3125.44
17184.7
8513.3
6677.3
5034.34
21026.4
15308.1
5062.99
3851.45
21090.6
15809.2
11993.8
5126.83
10456
4746
4969.56
11414.4
39914.9
10645.4
14331
4560.28
50599.9
13476.2
13083.4
4156.9
29004.9
8887.66
14894
5017.41
25660.4
8071.8
8642.37
4285.6
11334.8
4526.02
9464.43
5087.1
11199.9
4418.68
11618.8
6701.07
9631.79
4315.89
13667
5015.12
4625.74
1645.37
15569.2
11069.8
9328.09
6913.93
16209.9
13365.5
8687.45
7448.78
9302.44
6538.17
13766.3
9629.06
5910.74
4355.99
2695.24
2206.83
5371.57
4588.95
2427.74
2376.93
5966.88
4018.01
2803.71
1795.2
8647.34
4814.18
6748.52
7965.72
12321.4
8856.65
10175.1
13937.8
5501.89
2683.99
3833.69
4451.13
2545.41
1100.31
1507.38
1583.22
12223.8
21805
8139.66
24172.3
14126.9
21183.2
9944.81
25022.7
15678.3
18920.1
12524.7
23968.7
15990.6
17454.5
13454.1
13352.8
14317.6
17550.4
17892
19093.5
20428.2
28872.1
14323
12307.4
11591.8
13228
19929.4
25577.3
23120.7
29442.2
28681.2
23360.8
21852.1
28849.7
27927.7
20106.9
19835.6
26798.2
26694.3
13048.6
10554.6
13717.7
12455.2
15793
14937.4
17737.3
17711.2
24155.2
25449.9
12055.4
10966.5
12748.7
13314
14025.8
16016.2
16227.2
19313.2
21034.5
25505.2
10330.8
8142.67
6821.52
8395.75
12812.3
14983.9
8622.25
13245.3
6224.32
7832.75
9616.08
8023.1
1740.44
5409.14
617.365
1747.19
4231.38
8644.69
1286.07
2772.62
1123.24
4880.38
350.493
1552.54
6374.92
6371.73
7356.2
4804.58
10356.5
8491.01
12251.3
8823.5
1759.87
3432.25
3645.38
2212.39
1782.99
2275.8
2536.23
1912.2
18728.4
11514.9
3713.1
21009.2
12250.3
4041.58
17943.2
11364.6
3907.49
20535.2
12213.2
4031.51
16452.1
10452.3
3474.22
19860.7
12177.1
4088.03
7476.59
4470.09
1354.99
10436
6996.95
2400.63
13090.4
8998.4
3103.18
15575.1
10235.4
3425.97
19525.2
12387.7
4307.01
8510.22
5219.03
1805.58
10352.5
7557.41
2887.72
12847.3
9465.34
3528.37
15928.9
11246.6
4075.63
19815
12653
4543.21
264.402
2047.46
2834.71
4148.73
2445.03
2735.64
6050.48
5674.06
569.175
921.888
605.797
954.834
429.241
1288.8
798.018
1697.49
2965.79
1477.04
3875.7
2287.55
1981.33
3376.37
3304.69
312.111
6595.83
1131.45
-2636.26
-183.461
1342.1
610.516
632.775
214.418
8886.44
3647.47
2376.96
1339.32
9016.65
3760.31
3010.48
1686.26
8942.55
4003.2
4233.4
2639.85
2844.89
1815.45
844.655
841.935
13062.4
11394.1
5967.86
6085.55
14970.8
13849.6
7234.27
7163.47
4903.1
4955.42
10546.2
8544.38
3293.5
3474.1
1463.27
1858.8
4214.55
4160.91
1943.03
2190.75
2581.56
2869.83
1071.06
1633.3
4029.87
2428.88
3904.23
2343.77
6558.27
3284.56
6002.03
3335.37
2151.2
1622.1
2331.79
1414.21
845.764
804.908
1326.39
719.819
10174.5
6220.08
4555.46
4110.55
10159
6526.32
4552.32
4102.3
10770.3
7137.69
4619.52
4061.04
14354.1
16552.9
12238
7550.05
3623.3
15670
13421
11517.8
8703.77
4666.87
14588.4
12290
9128.38
6399.65
3333.52
4506.71
3464.22
3781.58
3734.1
4907.32
3625.52
3927.89
3809.95
5576.95
4048.57
4150.66
3969.5
11778.5
8445.76
10035
6883.82
7191.37
5524.88
6013.72
4729.26
3984.42
4108.48
9832.18
8590.39
7996.1
6837.91
6201.83
5373.55
4805.35
4405.83
3072.47
3885.82
7107.42
4854.7
4611.95
2907.07
9974.17
7684.09
6751.62
5549.67
3431.02
2095.68
5090.73
3664.29
4407.43
2120.05
1354.74
740.966
4999.24
3675.55
1464.95
1232.89
3524.99
1544.6
1170.43
567.263
2445.59
2084.27
1723.3
2353.36
3502.51
3027.38
2218.29
2978.2
2492.36
1458.2
1256.56
1607.73
576.71
234.184
-106.634
159.865
2245.28
948.704
279.365
2363.05
652.671
175.751
2424.54
1086.57
333.267
2444.15
705.988
199.402
2577.55
1228.25
335.927
2552.7
771.2
193.207
5494.44
3048.1
830.194
4255.98
2208.71
607.319
3526.69
1770.18
514.245
2951.22
1411.76
350.784
2672.85
805.406
152.925
6544.58
3547.88
1085.07
5120.77
2635.46
783.17
4045.09
2037.87
612.601
3255.29
1465.17
396.143
2917.99
779.819
201.218
1264.85
413.039
102.854
-24.8711
522.771
176.488
51.0843
0.845753
1325.55
442.533
124.698
-3.13761
648.253
230.607
100.719
41.3705
1393.2
474.701
166.359
36.5125
1033.84
396.013
114.808
18.1654
682.118
304.383
46.4529
-29.2316
502.571
268.557
103.965
42.2563
1064.98
399.131
95.5853
-47.7849
868.347
317.945
119.023
-33.9624
1320.13
453.297
144.366
-5.83414
1145.41
389.603
145.53
-53.1168
769.943
320.851
90.4562
-19.307
607.341
245.174
105.619
4.09598
463.237
226.894
96.9839
43.1271
346.598
167.677
87.7044
38.2341
1574.74
503.169
123.671
-61.0182
1479.63
458.788
166.025
-78.0627
1563.47
502.972
128.178
-58.8927
1433.36
443.359
166.051
-76.954
1520.43
493.265
161.326
-25.8644
1345.74
415.559
182.332
-52.7528
1313.26
439.516
186.042
40.1694
1469.25
454.754
234.394
-56.9703
1133.84
376.873
172.248
-0.23608
1101.97
316.625
136.914
-40.5
422.997
113.751
38.2766
-1.53028
1151.79
335.034
143.047
-37.0771
446.178
121.9
43.7551
2.9778
1202.48
356.521
160.303
-27.6589
469.111
131.893
49.9227
7.56002
1098.05
331.681
172.106
-14.8405
466.531
134.74
61.7465
15.3839
1004.79
318.238
168.963
2.80878
425.964
136.859
74.6862
24.4424
641.483
217.577
88.5537
-0.559969
368.479
146.324
68.0162
28.6239
781.959
246.782
115.807
-2.00264
397.171
143.302
73.236
27.7485
471.416
180.215
74.4541
8.74036
291.26
130.138
58.7521
28.5584
275.947
131.509
67.9188
30.5127
196.63
105.101
54.3055