/*--------------------------------*- C++ -*----------------------------------*\
| =========                 |                                                 |
| \\      /  F ield         | OpenFOAM: The Open Source CFD Toolbox           |
|  \\    /   O peration     | Version:  2306                                  |
|   \\  /    A nd           | Website:  www.openfoam.com                      |
|    \\/     M anipulation  |                                                 |
\*---------------------------------------------------------------------------*/
FoamFile
{
    version     2.0;
    format      ascii;
    arch        "LSB;label=32;scalar=64";
    class       volScalarField;
    location    "0.9";
    object      gradTx;
}
// * * * * * * * * * * * * * * * * * * * * * * * * * * * * * * * * * * * * * //

dimensions      [0 -1 0 1 0 0 0];

internalField   nonuniform List<scalar> 
5712
(
-7825.18
-10008.5
-18354.2
-26998.1
-27648.5
-47576.1
-21038.2
-53332.9
-16978
-37252.9
-25387.9
-38725.6
-22631.2
-29932.7
-10003.3
-11508.1
-17952.5
-20626.9
-22844.4
-22699.7
-17800
-21792
-26044.7
-23296.2
-6518.36
-5056.16
-8079.03
-5574.44
-15216.5
-12478.4
-25724.4
-18990.8
-19841
-20761
-22456.3
-21977.7
-8349.85
-6304.59
-46263.4
-61970.9
-30103.4
-36911.7
-61320.1
-79766
-31857.7
-36511.4
-34749.6
-49090.7
-30613.1
-40426
-18152.9
-29023.8
-3638.87
-1242.74
-3801.68
-1385.94
-10941.2
-4471.26
-14804.3
-5522.35
-10848.2
-4123.45
-11141.3
-3612.13
-18775.2
-6035.55
-24196.9
-8246.93
-27997.2
-14204.4
-25705.7
-15220.2
-25682.7
-16642.9
-22695.5
-16744.4
-20766.5
-12456.7
-20876.2
-10944.8
-26607.9
-16750.6
-26723.7
-16848.8
-24054.4
-17588.2
-24367.8
-17587.1
-22401.1
-14179.1
-23210.4
-14487.3
-21480.2
-9574.15
-10262.7
-12847.3
-21512.4
-10540
-9135.96
-13260.9
-22735.4
-9458.9
-11487.6
-12805.1
-23892.1
-9668.32
-12421.5
-13304
-4694.04
-5158.93
-1616.69
-3349.57
-13534.7
-14353.2
-5448
-10154.5
-17333.9
-18966.9
-8967.83
-15479.8
-12193.6
-51.1605
-14952.8
-19618.7
-11315.4
355.439
-6652.39
-13930.5
-23119.2
-17977.5
-11483.7
-14451.6
-13351.7
-12159.6
-19401.3
-4310.16
-3395.36
-2524.24
-2460.91
-11939.2
-9546.89
-7622.28
-7127.85
-14628.5
-11504.3
-9951.26
-8730.59
-5343.28
-7064.69
-11542.8
-12218
-15473.1
-13886.9
-17675.5
-14839
-13289.9
-11161.4
-9526.48
-9226.97
-12841.5
-8968.75
-12177.4
-7771.35
-11022.5
-6690.44
-13757.4
-8579.46
-10810.8
-3697.37
-9620.37
-9563.36
-13086.1
-16054.1
-14526.5
-20328.7
-7967.31
-8002.04
-9830.51
-1621.42
-8696.15
-15809.8
-8295.71
-17156.4
-14441.3
-25281.5
-14689
-27064
-6948.49
-14094.4
-6426.13
-15227.1
-9809.49
-6655.22
-14091.9
-5044.94
-9588.88
-378.456
-12045.7
502.266
-9598.48
-10500.8
-14832.9
-6561.15
-8106.54
-12554.7
-13298.5
-8712.69
-2498.21
-2068.43
-1647.78
-1833.36
-1583.65
-1297.54
-7189.6
-5236.95
-4060.91
-4911.84
-3471.07
-2698.07
-8184.65
-6298.31
-5470.06
-5810.64
-4116.91
-3609.96
-5671.55
-4329.17
-3969.14
-10140.4
-6535.01
-4998.81
-10347.6
-6502.11
-4672.97
-10726.6
-7357.91
-5883.2
-7796.29
-4443.6
-3101.86
-14447.9
-10945.3
-8450.92
-10012.6
-7294.11
-5218.38
-9701.12
-6511.22
-4368.6
-8818.11
-5510.38
-3507.98
-10149.1
-5113.75
-2396.48
-11369.3
-15132.9
-9221.02
-11640.8
-12857.6
-18496.8
-11698
-16555.2
-9.367
-695.67
499.75
-164.579
-3069.03
-3298.26
-1415.44
-816.084
-1019.52
-2675.13
-9937.9
-14174.8
-6630.09
-3973.51
-10977.2
-10914.6
-17450.1
-19240.5
458.31
4296.29
-8122.18
-7572.97
-7490.11
-5728.07
-1030.45
-535.027
-766.104
-370.43
-2056.48
-190.923
101.969
633.505
-9290.48
-2189.47
-6564.03
-1693.95
-9302.74
-2752.37
-11135.9
-3374.11
-9809.49
-12303.2
-8953.83
-11927.6
-16079.2
-16312.9
-15225.9
-15332.2
-5883.84
-9034.82
-6845.09
-9018.8
-9410.67
-11445.4
-10266.3
-11468.9
-15825.9
-14995.9
-16506
-14969.4
-5876.19
-8694.46
-6289.95
-8758.01
296.605
-849.084
-6447.8
-3296.8
727.2
-500.193
-5974.45
-2889
-103.593
-1090.32
-6547.09
-3590.64
-438.406
-1271.71
-6491.62
-3652.22
618.144
700.228
-143.647
33.3567
2632.05
2566.91
235.945
456.124
560.248
1728.79
-1244.87
-561.862
9793.27
10044.5
5088.09
3875.81
615.501
10862.4
10321.7
3792.81
5510.82
997.14
-11106.3
-8337.1
-6768.18
-5718.61
-2816.1
624.834
503.911
84.6833
48.2536
2026.11
1719.17
286.932
172.123
2069.36
2188.53
-219.818
-275.434
4894.9
1730.71
7264.42
3930.52
2955.32
1894.26
3319.84
2528.95
70.5944
-452.008
-4085.75
-2501.28
-1345.36
584.603
-981.85
502.043
-1167.7
-70.1302
-991.629
-1001.74
-5107.1
-4406.23
-9545.11
-5627.21
-8325.04
-7867.8
-12515.5
-9802.34
-6896.95
-3853.74
-3419.66
-3156.21
-11219
-4887.84
-12266
-5447.06
-13930.2
-10038.8
-14812.9
-10810.7
-8390.41
-3140.16
-9333.77
-3614.79
-4684.85
-3286.81
-2702.46
-3801.81
-2889.28
-2945.99
-2246.04
-3499.64
-5443.33
-3175.5
-3054.52
-4371.03
-6692.82
-3426.06
-4081.75
-4469.21
417.784
383.996
406.399
42.3217
135.424
142.02
1525.15
1416.43
1329.05
181.277
391.308
369.928
2050.76
1968.02
1862.39
-195.271
392.867
486.813
674.588
552.537
271.474
2302.14
2202.39
1929.59
1749.27
1816.8
1702
2196.59
2075.94
1895.46
-589.65
170.501
220.796
-3566.5
-2000.21
-1102.95
239.348
930.033
1263.24
324.566
1090.59
1381.16
150.12
901.682
1085.23
-1130.59
213.379
359.496
11.7843
11.7417
10.7563
15.854
167.484
72.6242
48.215
34.8767
-9.74862
16.1763
57.8464
71.4289
254.99
120.725
123.651
99.0267
-173.73
-23.0029
85.0856
135.696
38.6509
66.4915
84.4648
78.9435
-42.0327
29.2386
23.6573
20.7241
-186.372
-35.9768
30.6287
48.2682
-673.601
-169.356
-25.7409
44.9739
-961.873
-239.75
-75.1034
97.5086
-452.966
-92.5077
25.5803
103.662
-783.312
-185.427
-79.111
76.6959
-718.771
-189.373
-3.18646
78.2068
-1077
-278.989
-80.7013
120.22
-777.119
-220.865
1.79919
102.829
-1148.86
-308.87
-90.9633
124.073
7.18561
6.80547
10.8514
21.7491
33.8937
16.186
3.97032
19.0601
56.0425
30.5851
43.2897
64.4638
134.251
57.8911
18.9287
53.5847
-261.443
-59.0857
26.8547
100.603
-93.1335
-0.877446
10.2384
91.3238
-29.9265
42.5176
66.4724
110.57
21.5011
42.6616
5.38396
90.8575
-658.072
-145.857
-58.6752
120.931
61.0581
25.2714
11.4149
17.0788
105.58
38.6568
15.4362
9.56435
131.211
59.2611
19.466
40.7958
274.766
103.058
37.0296
23.6463
96.4314
62.6575
21.7171
64.4446
362.52
144.729
54.4595
35.947
-17.4311
51.4018
24.0882
89.9118
314.589
154.48
61.1312
43.1589
-303.027
-10.5776
-22.7468
73.8047
140.999
127.58
47.302
39.7775
-745.247
-112.804
-49.5748
77.7376
-222.554
9.46116
12.7243
27.3468
-553.97
-53.3859
-39.4692
71.4457
-95.637
62.1143
30.6802
34.8825
-904.437
-171.294
-64.7414
84.2502
-322.251
-33.9451
0.469275
23.1868
-1010.26
-219.157
-80.6877
80.2933
-398.402
-70.8356
-12.3025
18.2531
7.03601
2.46375
0.920614
0.373014
0.191107
9.42912
3.61649
1.43667
0.600736
0.312492
16.8026
5.63225
2.08688
0.845551
0.433774
20.2589
7.79296
3.11416
1.30923
0.683735
22.1128
6.98105
2.55184
1.03255
0.530246
26.1681
10.0812
4.03995
1.70466
0.892786
12.6785
4.90922
1.97485
0.838679
0.441905
9.38218
2.97617
1.08446
0.442089
0.229456
20.5311
6.8097
2.54594
1.04341
0.539933
9.75858
2.8393
1.00467
0.403115
0.206997
22.7188
7.92487
3.07676
1.28232
0.667757
9.58064
2.88269
1.04568
0.423391
0.217803
15.6573
4.47241
1.55319
0.617808
0.31641
9.20272
2.47453
0.852777
0.340348
0.174954
14.3551
3.15733
0.897183
0.319383
0.155376
7.93392
1.52853
0.401131
0.137331
0.0657306
6.01869
1.95096
0.706438
0.281744
0.143119
4.65747
1.59204
0.593759
0.239368
0.121925
15.0399
4.82111
1.76802
0.712828
0.364323
12.2062
4.12247
1.55151
0.631011
0.323153
20.5375
5.9201
2.09739
0.836889
0.426587
16.4162
5.53909
2.1135
0.869081
0.448156
18.4991
6.32027
2.45792
1.02433
0.532825
11.2581
4.10176
1.61738
0.675296
0.350841
9.31721
3.37091
1.34393
0.566222
0.296155
-107.122
-327.863
-84.6797
-750.958
281.929
-839.513
1126.72
-403.427
1889.56
845.929
-346.185
-1040.84
1311.27
1175.22
-1133.18
-2028.05
-1631.12
-2448.47
-916.131
-220.004
-50.929
-11.5853
-3.02069
-224.555
-127.948
-17.5446
-5.0733
-2.40411
-2810.6
-670.847
-155.844
-35.2857
-9.21701
-510.01
-158.202
-41.987
-9.34254
-2.73444
-4676.59
-1118.51
-260.784
-59.3112
-15.4796
-853.654
-279.221
-72.6746
-17.9436
-4.80466
-6175.05
-1482.14
-347.54
-79.433
-20.8018
-1004.84
-355.38
-95.1414
-23.6645
-6.306
-7566.06
-1835.83
-434.298
-99.9887
-26.3663
-1136.77
-440.355
-120.653
-30.2722
-8.14758
-8662.6
-2169.69
-522.219
-121.785
-32.4352
-2011.36
-646.516
-166.496
-40.0046
-10.5994
-8180.66
-2042.22
-488.69
-113.267
-29.9955
-1451.87
-530.121
-142.341
-35.0934
-9.3365
-8854.3
-2220.09
-535.806
-125.322
-33.4874
-2347.41
-721.244
-182.17
-43.0488
-11.3577
-9193.93
-2285.54
-552.543
-129.27
-34.5551
-2467.7
-757.332
-192.493
-42.3661
-11.7797
-688.313
-8137.62
-7434.74
-2652.82
1769.76
2994.31
8284.04
12207
1614.42
8830.23
-2434.38
2222.25
2410.55
5185.13
10160.7
14563.9
15396.4
19471.3
6291.93
8185.47
-19934.1
-13981.3
-3145.77
-2052.39
-1427.26
-1914.8
-2079.91
-11697.5
-9825.74
-8758.89
-8432.65
-6244.96
-4585.59
-6512.73
-3712.55
-3139.48
-3593.78
-2456.32
-19182.4
-9026.12
-2572.81
-4591.01
-7034.09
-4613.04
-4670.01
-3316.42
-1762.15
-2434.08
-2900.03
-3191.71
-19453.1
-12209.5
-11376.7
-7888.23
-7320.07
-8170.93
-2759.38
-3357.26
-4969.83
-13261.2
-10556.5
-7935.32
-6320.58
-4598.01
-8761.01
-5744.57
-4076.43
-2756.45
-1240.1
-2715.36
-2189.92
-1592.82
-967.352
-325.827
-1802.2
-1477.63
-1087.7
-663.716
-223.129
-1247.22
-1016.08
-742.599
-450.278
-150.78
-1688.04
-1388.94
-1024.55
-625.342
-210.037
-1813
-1474.08
-1076.59
-653.286
-219.057
-7082.31
-4990.01
-3496.34
-2763.32
-2504.09
-5045.84
-3406.52
-2166.02
-1577.8
-994.055
-5388.32
-3221.36
-2106.54
-1323.38
-569.632
-4188.09
-2653.26
-1624.89
-1044.77
-543.446
-2843.23
-1694.87
-984.856
-602.047
-263.933
-3538.7
-2563.13
-1707.83
-984.872
-329.794
-4390.85
-2817.77
-1795.64
-1030.34
-364.009
-2402.32
-1444.05
-857.813
-456.406
-149.52
-2529.43
-1899.03
-1296.28
-753.685
-249.546
-2804.09
-2038.4
-1349.73
-765.63
-249.869
-2003.37
-1519.58
-1043.34
-606.534
-199.642
-12011.5
-8496.97
-6173.51
-4715.66
-3763.55
-6415.82
-4469.29
-3075.14
-1923.64
-787.802
-2087.8
-1583.85
-1095.54
-646.552
-217.709
-3782.3
-2920.49
-2057.51
-1234.55
-421.623
-5585.44
-4211.6
-2946.09
-1793.19
-644.496
-3813.64
-2962.04
-2103.63
-1273.36
-437.899
-3927.86
-3097.2
-2221.28
-1346.93
-459.133
-2816.59
-2234.1
-1602.96
-966.347
-325.489
-1489.16
-1170.32
-828.363
-491.555
-163.179
-2102.68
-1692.56
-1224.68
-738.262
-246.865
-2411.54
-1868.31
-1310.29
-775.989
-258.924
-2700.56
-2131.89
-1521.45
-912.699
-306.451
-12717.8
-9712.16
-7274.75
-5577.11
-4067.19
-8151.64
-5573.87
-3954.1
-2622.35
-1182.94
-7999.47
-5984.58
-4182.99
-2761.82
-1203.68
-5980.69
-4335.69
-3056.74
-1923.65
-730.9
-5903.68
-4523.68
-3207.11
-1969.03
-704.732
-6146.94
-4432.81
-3108.31
-1947.47
-730.166
-2298.6
-1792.26
-1272.02
-765.87
-260.423
-2897.98
-2333.29
-1691.35
-1022.69
-342.974
-4164.23
-3266.39
-2329.82
-1406.17
-477.488
-6781.37
-13946.8
-14236.1
-39616
-13758.2
-52017.3
-7616.64
-18601.4
-13778.3
-10552.7
-23332.3
-19291.9
-13424
-12294.9
-25714.9
-19981.6
-5043.65
-3796.72
-9922.65
-6933.67
-11269.1
-8537.11
-30718.5
-23010.2
-18355.1
-13676.3
-19036.3
-11256.3
-1310.4
-4635.96
-48593.3
-62982.8
-29180.9
-36808.7
-63197.5
-80597.3
-30779.4
-36265.6
-36651.2
-50087.1
-29811.9
-40468.3
-20319.7
-30101.3
-2493.57
-670.473
-4431.78
-1522.9
-8477.95
-3870.31
-17301.3
-6307.99
-3688.86
-2149.21
-9176.68
-2923.58
-18944.6
-6006.43
-24502.9
-8334.06
-18774.3
-10020.8
-22152.2
-13129.1
-16490.8
-12012.9
-19078.1
-14551.4
-18275.1
-10782.7
-14306.3
-7697.52
-25277.3
-15829.2
-26403.2
-16600.8
-22622.9
-16633.8
-23986
-17330.2
-21546.2
-13429.3
-23025.5
-14283.9
-20457.5
-9297.66
-9175.73
-12485.1
-18239.8
-9595.32
-7060.23
-12513.7
-22579.3
-9433.23
-11001.9
-12649.8
-23922.6
-9686.3
-12293
-13264.2
-1430.88
-1346.69
-379.545
-1750.01
-5825.17
-6187.47
-3814.08
-7888.42
-3581.66
-4444.11
-6133.28
-11738.2
-12658.8
-9273.61
-10730
-13973.8
-9848.28
-7062.63
-8120.43
-8387.25
-16349
-15733
-13118.4
-11728.2
-8820.37
-8037.37
-17444.7
-1479.83
-1098.22
-870.579
-981.732
-5489.84
-4273.58
-4840.09
-4276.71
-1134.17
247.384
-5815.14
-4592.77
-9797.64
-10404.8
-9307.1
-8634.82
-7947.2
-5772.66
-10690.7
-8399.34
-10709.8
-8368.24
-11880.5
-11423.6
-10626.7
-7489.17
-8296.77
-4967.49
-7774.32
-4392.06
-12436.8
-7228.3
-9608.26
-4201.56
-8756.75
-9434.65
-13201
-16987.4
-14044.6
-20226.5
-7085.12
-7849.3
-8352.45
-1999.74
-8254.78
-15624.1
-8161.58
-17081.4
-14082.1
-25210
-14566
-26993.9
-6520.88
-13945.4
-6300.49
-15171.1
-9264.5
-6653.35
-13991.9
-5205.77
-8616.05
-1018.66
-11980.6
-578.972
-9343.2
-10439
-14787.3
-6585.77
-8024.31
-12527.4
-13281.3
-8713.53
-1041.43
-956.119
-784.11
-898.276
-3237.2
-2390.91
-3084.99
-2821.84
871.229
220.246
-3587.49
-3871.66
-10124.5
-9214.87
-7819.04
-6349.99
-4624.12
-3677.93
-6647.27
-5351.39
-7064.94
-5058.75
-17455.3
-14396.9
-8207.88
-6296.24
-6826.43
-4542.59
-6090.88
-3360.48
-7013.82
-2545.96
-5679.01
-9307
-4833.85
-9694.56
-9122.7
-11118.3
-10385.3
-14114.9
-893.826
-556.023
-530.385
-385.724
-3450.01
-2191.84
-2581.88
-1089.53
-842.302
-1336.39
-8137.37
-8600.51
-4118.1
-3526.9
-9879.9
-10562
-16155
-18835.2
698.351
4334.88
-7223.6
-7262.84
-6961.16
-5574.85
-881.9
-746.891
-908.214
-708.941
-1369.44
-702.682
-165.629
-46.5158
-7368.51
-2881.09
-6224.63
-2331.04
-8891.62
-3074.87
-10950.8
-3486.13
-5294.79
-10151.2
-7163.18
-10710
-9162.06
-12365.5
-12428.4
-13450.5
-4929.12
-8487.35
-4305.7
-8372.05
-8543.34
-10876.2
-9994.82
-11308.3
-14584.8
-14167.4
-16141.7
-14742.8
-5400.81
-8410.21
-6131.99
-8674.79
202.331
-1200.96
-6490.62
-3588.43
234.706
-1207.92
-6372.62
-3400.49
-146.239
-1316.71
-6533.52
-3749.77
-447.455
-1357.19
-6481.6
-3703.63
-875.589
-923.776
-758.219
-761.205
-1652.49
-1630.35
-901.471
-897.587
-7362.37
-6509.43
-2780.77
-2617.98
-3067.01
-4427.41
-3406.06
436.564
-826.358
-543.051
-901.481
-3430.06
2708.27
-78.2726
-14680.2
-11692.1
-9626.88
-7496.52
-3806.69
-891.3
-750.007
-808.819
-915.186
-1570.7
-1200.81
-1129.43
-1443.07
-6453.82
-5984.31
-2787.56
-3364.87
-4508.63
-6219.13
-2556.22
-4447.02
-4145.81
-4407.18
-503.009
-916.2
-1474.05
-2265.34
-9471.45
-7387
-6965.4
-4823.71
-5476.06
-3718.12
-4199.08
-2819.14
-2334.34
-2393.92
-7376.92
-7032.92
-10179.9
-6430.63
-10012.2
-10322.2
-12701.7
-10453
-7750.83
-4600.98
-5515.3
-5299.89
-11330.6
-5304.94
-12266.5
-5526.81
-13793.1
-10352.5
-14740.9
-10849
-8681.25
-3549.97
-9394.84
-3707.4
-5487.78
-3898.47
-3359.07
-4405.33
-4545.06
-4521.28
-3310.68
-4618.16
-5799.79
-3537.37
-3391.95
-4722.08
-6789.56
-3526.95
-4182.79
-4562.27
-556.614
-489.093
-654.013
-521.071
-1064.68
-1272.38
-925.876
-769.915
-5588.85
-4871.91
-2169.1
-1020.59
-7184.79
-6544.34
-5330.85
-4581
-4132.9
-3485.94
-1295
-1371.07
-2150.38
-1058.93
-7952.44
-6459.7
-4277.21
-3368.01
-3085.01
-2148.86
-1979.8
-1117.29
-2188.78
-95.6221
-114.351
-45.4992
-15.5915
4.14698
-64.8118
-36.881
-0.692993
12.969
-320.26
-123.825
2.30918
49.8172
-205.678
-103.765
26.9375
55.9251
-567.314
-199.332
19.6581
116.781
-476.693
-194.864
-41.4287
15.6234
-348.878
-134.006
-57.9966
-17.7703
-313.096
-106.965
-5.06381
30.9802
-928.96
-297.737
-92.1681
8.98897
-1117.66
-309.724
-107.981
90.7213
-856.326
-269.269
-54.3761
65.379
-1000.22
-272.805
-118.137
72.6105
-894.045
-283.308
-48.9662
58.2203
-1175.86
-326.906
-105.253
112.559
-846.32
-259.386
-17.1424
94.3872
-1183.74
-326.558
-100.156
121.225
-113.844
-40.8475
-7.79345
15.8996
-96.715
-30.0945
-15.7708
13.4107
-288.545
-103.497
-7.11152
47.3069
-236.738
-75.1937
-36.5072
36.7589
-628.405
-201.041
-24.5127
88.6261
-557.814
-167.015
-58.37
74.1724
-657.878
-204.76
-30.7042
76.5568
-499.188
-145.61
-66.9323
82.0541
-992.393
-265.51
-107.277
125.663
-69.3628
-21.0463
-5.84783
10.88
-29.3407
-11.3644
-2.93419
1.112
-211.34
-62.3696
-29.5136
22.1782
-97.198
-34.5931
-15.0506
-0.137152
-385.02
-108.18
-47.7623
38.5525
-200.526
-63.23
-23.1875
0.894241
-591.614
-157.95
-59.6398
61.7194
-357.214
-97.2315
-31.6876
1.93746
-791.942
-198.432
-106.317
39.9264
-481.654
-119.475
-49.0748
-5.12555
-1064.5
-264.126
-121.026
47.5324
-494.279
-122.881
-46.9085
-2.4768
-1011.17
-249.895
-128.671
34.319
-535.626
-130.404
-50.129
-4.92534
-1082.33
-261.517
-108.929
65.8695
-463.2
-109.332
-34.6326
6.08591
-1065.39
-248.295
-95.2465
74.1903
-439.036
-93.7937
-23.2849
12.8841
0.871075
-0.543167
-0.422754
-0.225829
-0.132545
-1.682
-1.52355
-0.824349
-0.40335
-0.229926
2.53474
-1.3015
-1.00445
-0.53222
-0.311114
-4.24455
-3.58621
-1.90561
-0.924437
-0.524478
4.71449
-1.54349
-1.24793
-0.661158
-0.385742
-6.50414
-4.94159
-2.57137
-1.23678
-0.698806
-3.88357
-2.65734
-1.36018
-0.648509
-0.364161
1.01969
-0.872417
-0.619029
-0.319638
-0.184105
1.04559
-2.14613
-1.39721
-0.711016
-0.409244
2.48078
-0.555902
-0.495608
-0.265229
-0.154757
-2.31549
-3.34867
-1.83793
-0.895606
-0.508672
1.71299
-0.718045
-0.532452
-0.276933
-0.160568
4.55236
-0.706378
-0.741617
-0.406628
-0.238798
2.9468
-0.425404
-0.427882
-0.230946
-0.134723
9.37419
0.813687
-0.146087
-0.147682
-0.0982151
5.8751
0.553708
-0.0329352
-0.0570178
-0.0398152
1.58984
-0.273427
-0.286832
-0.159934
-0.0951728
0.302809
-0.386666
-0.262454
-0.137161
-0.0803711
2.80671
-1.06054
-0.822608
-0.434744
-0.254354
0.0786448
-1.2661
-0.765376
-0.386588
-0.223669
6.81809
-0.912012
-0.933878
-0.509504
-0.300182
-0.969543
-2.06158
-1.14454
-0.562524
-0.321876
-2.17277
-2.76447
-1.45863
-0.703279
-0.398515
-3.10978
-1.96897
-0.965871
-0.458509
-0.259135
-2.7054
-1.74904
-0.850659
-0.400987
-0.225303
58.1571
-170.576
256.556
-405.753
571.927
-504.365
1129.07
-293.897
1554.73
535.757
-479.758
-1205.34
923.007
606.12
-1168.82
-2068.33
-1635.31
-2452.67
-867.745
-211.553
-49.4001
-11.3127
-2.96816
-200.852
-122.12
-17.1151
-4.99563
-2.35891
-2676.39
-646.893
-151.458
-34.5092
-9.06786
-466.958
-153.496
-41.4953
-9.33831
-2.73682
-4481.82
-1082.91
-254.205
-58.1412
-15.2565
-822.458
-276.23
-72.4759
-17.9411
-4.81141
-5975.83
-1444.12
-340.36
-78.1411
-20.5555
-1030.12
-360.198
-96.0178
-23.8055
-6.33631
-7420.87
-1804.49
-428.027
-98.8284
-26.144
-1233.89
-453.985
-122.629
-30.5517
-8.19705
-8646.94
-2162.28
-520.233
-121.363
-32.3497
-2056.93
-654.768
-167.849
-40.2158
-10.6354
-8125.62
-2024.49
-484.619
-112.466
-29.8395
-1557.44
-545.519
-144.621
-35.4262
-9.39443
-8855.58
-2218.3
-535.126
-125.16
-33.4528
-2360.29
-723.962
-182.642
-43.1267
-11.3715
-9196.2
-2285.4
-552.407
-129.232
-34.547
-2469.19
-757.715
-192.562
-42.3781
-11.7819
-531.005
-7941.02
-6856.78
-2193.56
-1642.82
-801.258
-3808.58
-2469.89
-7186.3
-6602.25
-3495.69
-2531.54
-120.722
-203.615
-383.728
-685.161
-1137.45
-1753.96
-92.592
-219.15
-492.095
-935.286
-1556.45
-2322.35
-87.691
-39.6216
-164.278
-107.714
-330.074
-260.936
-607.342
-541.392
-970.763
-892.791
-1446.31
-1234.16
-2441.62
-3090.16
-3758.24
-6318.33
-7684.84
-8828.45
-3125.86
-3786.93
-4113.06
-4081.58
-3797.05
-3540.61
-108.342
-91.026
-68.5252
-42.4671
-14.3748
-182.454
-153.008
-114.968
-71.143
-24.0619
-343.209
-287.181
-215.307
-133.006
-44.9446
-611.301
-510.036
-381.319
-235.068
-79.3475
-1011.27
-840.372
-625.939
-384.841
-129.738
-1551.08
-1281.47
-949.582
-581.864
-195.889
-83.0218
-69.6771
-52.3958
-32.443
-10.9765
-196.148
-164.268
-123.261
-76.1952
-25.7563
-439.603
-367.329
-275.03
-169.734
-57.3269
-833.341
-694.248
-518.329
-319.226
-107.707
-1381.79
-1146.5
-852.814
-523.891
-176.556
-2051.54
-1693.12
-1253.58
-767.831
-258.473
-78.7534
-66.2224
-49.8957
-30.9428
-10.4778
-35.5957
-29.9445
-22.5717
-14.0026
-4.74238
-147.346
-123.709
-93.0601
-57.6376
-19.5035
-96.6752
-81.2297
-61.1537
-37.8996
-12.8287
-295.577
-247.677
-185.949
-114.992
-38.8788
-233.843
-196.125
-147.378
-91.2015
-30.8461
-542.604
-453.42
-339.485
-209.499
-70.753
-484.005
-404.755
-303.257
-187.23
-63.2465
-864.367
-719.469
-536.647
-330.241
-111.373
-795.542
-662.691
-494.589
-304.45
-102.682
-1280.5
-1059.03
-785.271
-481.256
-161.995
-1093.77
-905.37
-671.588
-411.531
-138.479
-2141.63
-1754.54
-1291.31
-788.298
-265.171
-2675.2
-2164.55
-1578.97
-960.7
-323.68
-3183.42
-2528.14
-1823.7
-1108.81
-377.034
-5152.42
-3982.22
-2840.99
-1743.85
-614.013
-5889.07
-4390.54
-3108.31
-1958.69
-748.956
-6472.99
-4716.18
-3325.72
-2138.43
-867.157
-2742.85
-2248.03
-1655.21
-1010.76
-340.019
-3292.19
-2674.16
-1956.19
-1191.39
-401.028
-3527.75
-2831.29
-2055.54
-1250.17
-422.426
-3425.25
-2701.72
-1944.16
-1184.97
-405.493
-3063.22
-2350.73
-1674.64
-1032.03
-366.177
-2747.5
-2054.44
-1451.26
-906.412
-334.672
-123.829
-214.211
-405.725
-725.421
-1206.08
-1856.28
-96.5867
-232.979
-520.878
-985.781
-1632.65
-2418.94
-90.3147
-41.4978
-173.666
-115.112
-351.058
-279.898
-649.37
-584.24
-1051.21
-996.813
-1575.94
-1428.59
-2569.7
-3233.55
-3910.74
-6426.13
-7726.57
-8836.65
-3226
-3868.82
-4162.1
-4091.96
-3782.28
-3530.77
-111.169
-93.4429
-70.3783
-43.6329
-14.7728
-192.103
-161.263
-121.303
-75.1307
-25.4237
-363.264
-304.363
-228.512
-141.329
-47.7886
-648.077
-541.616
-405.644
-250.428
-84.6018
-1074.11
-894.495
-667.751
-411.305
-138.802
-1645.29
-1363.11
-1013.03
-622.213
-209.747
-86.6572
-72.7848
-54.7786
-33.9421
-11.4883
-208.744
-175.047
-131.536
-81.4055
-27.5358
-465.863
-389.846
-292.349
-180.658
-61.0611
-879.521
-733.96
-548.962
-338.593
-114.337
-1451.73
-1206.91
-899.616
-553.582
-186.739
-2140.77
-1770.73
-1314.14
-806.466
-271.767
-81.1388
-68.2593
-51.4556
-31.9233
-10.8123
-37.3001
-31.3984
-23.6838
-14.701
-4.98054
-155.887
-131.006
-98.6529
-61.1549
-20.7039
-103.399
-86.9691
-65.5476
-40.6605
-13.7705
-314.685
-264.025
-198.494
-122.889
-41.5757
-251.096
-210.871
-158.682
-98.3118
-33.2731
-580.947
-486.295
-364.767
-225.443
-76.203
-523.095
-438.271
-329.032
-203.486
-68.8029
-937.824
-782.515
-585.178
-360.87
-121.847
-890.252
-743.697
-556.729
-343.563
-116.038
-1399.41
-1161.63
-864.651
-531.553
-179.234
-1270.92
-1056.99
-787.965
-484.812
-163.508
-2260.73
-1858.86
-1373.22
-840.829
-283.305
-2810.73
-2285.28
-1675.26
-1023.22
-345.447
-3331.5
-2663.38
-1933.96
-1181.74
-402.804
-5270.82
-4100.83
-2945.27
-1817.36
-641.622
-5950.23
-4459.92
-3175.06
-2010
-770.486
-6491.22
-4739.21
-3349.44
-2157.76
-875.789
-2836.4
-2330.42
-1720.26
-1052.66
-354.519
-3370.42
-2744.69
-2013.09
-1228.68
-414.069
-3577.31
-2878.35
-2095.24
-1277.11
-432.076
-3440.72
-2720.36
-1962.63
-1198.98
-410.943
-3055.49
-2348.71
-1676.68
-1035.64
-368.24
-2740.96
-2050.67
-1449.81
-906.496
-335.093
-19883.8
-13992.3
-3354.71
-2252.25
-1737.31
-2241.99
-2368.3
-12431.5
-13134.5
-10257.7
-11665.6
-6019.38
-9347.02
-4389.98
-4661.41
-3230.66
-19734.5
-9889.79
-3211
-5300.79
-7666.57
-4983.68
-5078.08
-3721.41
-2163.09
-2917.91
-3698.32
-3732.02
-19327.6
-12286.2
-11827.4
-8126.07
-7638.55
-8553.83
-3217.83
-3775.04
-5430.73
-13256.7
-10584.9
-7985.84
-6388.86
-4659.07
-8798.42
-5788.99
-4121
-2793.17
-1255.68
-2913.44
-2366.83
-1734.16
-1059.22
-357.83
-1986.72
-1637.94
-1212.55
-743.242
-250.472
-1531.68
-1261.43
-932.329
-570.461
-191.973
-1987.15
-1645.95
-1222.62
-750.471
-252.856
-2080.46
-1707.47
-1258.97
-769.69
-259.115
-8448.44
-6462.81
-4807.68
-3771.37
-3144.8
-9100.39
-7246.9
-5379.31
-3884.37
-2052.5
-7113.39
-4829.39
-3412.69
-2186.33
-868.26
-8140.95
-6263.02
-4562.01
-3073.62
-1352.74
-4939.79
-3824.97
-2714.23
-1635.36
-555.247
-7105.96
-5139.82
-3590.67
-2172.47
-759.96
-3707.8
-2933.61
-2105.77
-1270.95
-428.032
-3920
-3089.86
-2212.07
-1333.63
-449.248
-2758.33
-2201.74
-1588.59
-959.724
-322.291
-13001.9
-9611.5
-7213.97
-5539.34
-4266.46
-7373.74
-5395.51
-3852.69
-2452.2
-987.004
-2700.66
-2132.51
-1532.18
-928.895
-315.826
-4469.23
-3542.03
-2557.55
-1561.08
-536.156
-6243.94
-4839.4
-3471.42
-2147.69
-773.743
-4181.72
-3303.07
-2383.81
-1459.55
-504.147
-4320.23
-3451.74
-2507.24
-1534.35
-524.988
-3201.54
-2578.01
-1877.28
-1144.29
-387.422
-1872.33
-1513.73
-1102.48
-669.148
-224.829
-2551.43
-2084.04
-1530.57
-933.577
-314.137
-3163.47
-2531.61
-1832.35
-1110.96
-374.703
-3211.89
-2586.28
-1881.9
-1145.42
-387.189
-12755.6
-9844.08
-7461.14
-5784.17
-4261.27
-8291.86
-5729.23
-4102.42
-2738.33
-1232.68
-8623.13
-6621.78
-4759.61
-3187.63
-1384.27
-6258.68
-4620.29
-3308.7
-2103.19
-798.421
-6244.05
-4856.87
-3493.07
-2166.53
-778.242
-6582.1
-4859.93
-3479.48
-2207.59
-829.216
-2734.08
-2180.68
-1581.31
-966.357
-330.293
-3288.76
-2677.28
-1962.34
-1196.79
-403.141
-4611.88
-3674.05
-2660.25
-1623.29
-553.839
-316.075
-927.617
-1537.13
-2167.53
-2805.69
-3429.29
-3116.43
-8286.94
-7657.61
-2965.56
-10372.7
-8837.32
-10049.5
-11053.5
-2878.31
-1842.61
-6717.79
-3672.9
-12250.8
-9099.11
521.687
-2494.09
-6802.17
-6164.72
-2343.16
-8656.31
-7003.81
-8236.79
-9114.14
-2377.41
-1023.12
-5817.19
-1735.33
-9793.12
-5396.61
2327.58
-1766.8
-5002.71
-4476.88
-1647.32
-6598.85
-3843.95
-6389.91
-6823.97
-1751.43
-945.869
-4012.85
-1872.56
-7450.98
-1687.11
2494.4
-1234.92
-3693.47
-3321.58
-1180.79
-4774.6
-1997.63
-5011.75
-5632.54
-1268.2
-1018.17
-2854.99
-1954.86
-6254.1
30.5345
1882.2
-945.875
-2986.59
-2701.7
-937.999
-3589.99
-1512.52
-4266.35
-5261.93
-956.826
-1143.85
-1934.51
-1922.26
-5294.49
224.19
361.275
-799.944
-2537.81
-2379.27
-812.264
-3192.55
-1858.21
-3791.06
-4918.29
-699.387
-900.696
-1476.16
-1853.04
-5238.16
-903.935
-569.805
-1407.98
-3414.43
-5380.13
-2099.02
-5467.33
-9626.79
-7748.38
-11071.6
-919.027
-554.218
-3664.99
-1936.08
-882.027
-8724.96
-4137.69
-1290.97
-3134.42
-4637
-1790.77
-4959.77
-8515.84
-6842.66
-9170.63
-926.76
-445.712
-3744.54
-1728.39
-46.1145
-8333.18
-2798.61
-1097.88
-2672.19
-3650.34
-1383.7
-4370.15
-7231.61
-5600.75
-7670
-786.208
-506.936
-3046.54
-1746.03
-287.188
-6292.49
-2517.27
-898.337
-2299.26
-2857.32
-1059.15
-3884.07
-6169.77
-4736.59
-6591.49
-677.87
-497.342
-2658.05
-1743.02
-203.567
-5508.51
-2406.21
-771.407
-1982.47
-2407.4
-877.053
-3343.06
-5378.58
-4122.9
-6023.26
-600.184
-548.936
-2275.13
-1860.61
-395.307
-5047.94
-2433.21
-689.685
-1698.34
-2149.79
-774.785
-2982.55
-5223.07
-3687.35
-5686.08
-604.516
-645.084
-1952.9
-1762.13
-675.439
-5140.5
-2758.28
7115.9
8990.16
18396.6
27089.2
27683.9
47558.4
21048.1
53336
16993
37259.3
25439.9
38728.1
22651.6
30031.7
8596.42
9809.15
17967.1
20630.2
22838.5
22696.8
17802
21789.7
26041.7
23292.9
6012.28
4703.38
7351.12
5087.7
15218.8
12447.7
25785.2
19021.4
19812.9
20765.6
22446.5
21978.2
8347.49
6278.63
46269.8
61979.1
30104.2
36914.1
61327.8
79775.2
31857.6
36512.6
34754.5
49098
30612.5
40429.4
18160
29030.4
3430.24
1192.01
3491.99
1287.37
10907.2
4453.81
14812.8
5524.44
10841.2
4119.35
11125.7
3605.95
18776.3
6035.56
24200.4
8248.11
27996.6
14203.3
25703.8
15218.8
25679.7
16640.4
22692.6
16742.1
20763.5
12455.2
20875.1
10943.5
26607.3
16749.5
26723.7
16847.8
24052.8
17586.5
24366.9
17585.6
22400.5
14178.2
23210.9
14486.6
21475.6
9572.61
10261.2
12847.1
21508.8
10538.5
9134.17
13260.5
22735.1
9458.92
11486.9
12805.2
23893.6
9668.96
12421.2
13304.4
4414.24
4795.83
1554.17
3147.97
13470.4
14300.1
5416.31
10107.3
17323.2
18955.4
8962.71
15470.8
12193.5
52.0386
14951.6
19614.4
11313.4
-354.47
6652.53
13929.5
23114.1
17974.2
11482.1
14450.4
13350.1
12157
19400.3
3918.12
3050.92
2261.52
2239.08
11984
9586.31
7705.7
7181.39
14619.2
11501.2
9947.31
8729.41
5343.39
7064.53
11542.4
12217.5
15471.5
13885.7
17670.9
14836.7
13288.3
11161.2
9525.69
9226.54
12840.7
8968.36
12176.2
7770.74
11020.6
6689.64
13757.1
8579.57
10810
3697.18
9619.34
9562.99
13084.8
16053.2
14524.9
20327.6
7966.52
8001.89
9829.69
1621.28
8695.21
15809.4
8294.8
17156.1
14439.9
25280.4
14687.7
27063
6947.85
14094.4
6425.53
15227.1
9809.14
6655.27
14092.3
5045.18
9588.16
378.402
12045.9
-502.009
9598.37
10501
14833.5
6561.41
8106.4
12555
13299
8713.03
2197.14
1841.38
1494.95
1662.54
1450.98
1204.96
7237.77
5256.88
4064.09
4958.73
3491.88
2702.03
8185.75
6300.19
5471.4
5811.66
4119.66
3612.44
5671.51
4329.3
3969.32
10140.2
6535.2
4999.1
10347.3
6502.41
4673.43
10726.5
7358.94
5884.31
7796.67
4444.82
3103.2
14447.5
10945.4
8451.21
10012.4
7294.14
5218.59
9700.89
6511.33
4368.9
8817.95
5510.62
3508.41
10149.2
5114.06
2396.93
11341.5
15115.3
9190.4
11625.4
12844.6
18486.9
11682.2
16546.4
55.0404
605.54
-411.724
119.936
3067.08
3371.41
1413.98
894.471
992.294
2647.97
9920.26
14153.1
6612.27
3959.56
10969.3
10911.1
17445.5
19238.4
-464.641
-4298.3
8112
7568.2
7484.22
5725.81
903.312
486.681
658.595
328.082
2109.66
201.763
-44.0062
-618.596
9279
2188.11
6556.74
1693.91
9295.46
2750.66
11132.1
3372.89
9798.79
12297.7
8945.38
11923.2
16071.8
16308.5
15220.1
15328.6
5876.2
9030.67
6835.78
9013.89
9405.48
11442.2
10263.4
11466.8
15822.2
14993.3
16503.8
14967.4
5871.4
8691.47
6287.38
8755.96
-300.631
848.54
6444.84
3295.69
-731.733
499.575
5971.25
2887.91
100.494
1089.54
6544.75
3589.6
436.739
1271.15
6489.98
3651.4
-587.219
-659.808
130.654
-36.4287
-2608.29
-2544.22
-231.563
-447.634
-558.907
-1727.23
1244.69
561.981
-9793.14
-10043.6
-5088.33
-3875.93
-615.427
-10861.1
-10320.3
-3792.68
-5509.44
-996.789
11104.1
8333.74
6764.87
5715.99
2815.11
-596.115
-477.57
-93.2679
-57.4755
-2005.13
-1703.59
-272.128
-159.808
-2067.77
-2186.65
219.977
275.431
-4894.64
-1730.73
-7264.06
-3930.44
-2955.59
-1894.32
-3319.22
-2528.24
-70.6165
451.862
4084.67
2500.85
1343.87
-585.037
980.551
-502.367
1166.87
69.9603
991.202
1001.42
5104.73
4405.07
9542.59
5625.89
8323.11
7866.74
12513.4
9801.07
6894.67
3852.59
3417.59
3155.18
11217
4886.67
12264.4
5446.07
13928.3
10037.6
14811.4
10809.7
8388.49
3139.17
9332.22
3613.96
4683.19
3285.85
2701.52
3800.91
2887.76
2945.1
2245.19
3498.78
5441.9
3174.6
3053.63
4370.1
6691.58
3425.29
4080.93
4468.39
-397.715
-358.531
-378.356
-51.7066
-133.414
-137.723
-1511.36
-1409.25
-1324.41
-169.396
-385.275
-366.063
-2049.04
-1966.68
-1861.48
194.858
-392.605
-486.624
-674.569
-552.456
-271.399
-2302.12
-2202.27
-1929.48
-1749.15
-1816.58
-1701.81
-2195.89
-2075.27
-1894.92
589.36
-170.467
-220.712
3566.18
2000.2
1103.06
-239.553
-929.973
-1263.1
-324.685
-1090.45
-1380.97
-150.118
-901.472
-1085
1130.26
-213.388
-359.448
-8.96664
-9.92201
-9.35424
-14.1178
-155.959
-67.302
-44.7971
-32.2469
10.3384
-15.9449