/*--------------------------------*- C++ -*----------------------------------*\
| =========                 |                                                 |
| \\      /  F ield         | OpenFOAM: The Open Source CFD Toolbox           |
|  \\    /   O peration     | Version:  2306                                  |
|   \\  /    A nd           | Website:  www.openfoam.com                      |
|    \\/     M anipulation  |                                                 |
\*---------------------------------------------------------------------------*/
FoamFile
{
    version     2.0;
    format      ascii;
    arch        "LSB;label=32;scalar=64";
    class       volVectorField;
    location    "1.5";
    object      flux;
}
// * * * * * * * * * * * * * * * * * * * * * * * * * * * * * * * * * * * * * //

dimensions      [0 1 -1 1 0 0 0];

internalField   nonuniform List<vector> 
5322
(
(-2.08744e-06 5.30509e-06 -7.04595e-06)
(1.30011e-07 6.64204e-07 -6.2909e-06)
(1.34214e-07 1.98317e-07 -5.06172e-06)
(-2.11542e-09 1.10985e-07 -5.46757e-06)
(-9.25849e-09 1.70826e-07 -3.89883e-06)
(-7.45658e-09 1.69856e-07 -2.63533e-06)
(-4.82061e-09 1.34233e-07 -1.68543e-06)
(-2.99797e-09 9.52648e-08 -1.02088e-06)
(-1.91085e-09 6.37622e-08 -5.89519e-07)
(-1.0351e-09 3.88702e-08 -3.34315e-07)
(-3.74581e-10 1.29204e-08 -2.02504e-07)
(1.99001e-09 -3.26973e-08 -1.61004e-07)
(2.63097e-09 -3.04e-08 -1.08914e-07)
(-3.51131e-08 -2.83355e-08 -1.57351e-07)
(-7.03972e-11 -2.63899e-08 -1.77307e-07)
(7.02025e-08 6.24924e-08 -1.57105e-07)
(-5.42182e-08 8.14278e-08 -1.82605e-07)
(1.83833e-09 -1.27352e-09 -1.51082e-07)
(-4.70898e-08 6.88739e-08 -2.40684e-07)
(5.25789e-08 -1.13052e-07 -3.08775e-07)
(-6.92005e-08 1.35187e-07 -4.28378e-07)
(1.07567e-07 -1.97074e-07 -5.59149e-07)
(-1.13029e-07 2.42949e-07 -7.70549e-07)
(1.96683e-07 -3.49145e-07 -9.99254e-07)
(-2.05352e-07 4.32059e-07 -1.33904e-06)
(3.21768e-07 -5.75438e-07 -1.67615e-06)
(-3.24472e-07 6.94497e-07 -2.18003e-06)
(5.20455e-07 -9.29942e-07 -2.68528e-06)
(-5.25971e-07 1.09988e-06 -3.38342e-06)
(7.67221e-07 -1.37623e-06 -4.02262e-06)
(-7.29312e-07 1.59992e-06 -4.91531e-06)
(1.15245e-06 -1.95912e-06 -5.73491e-06)
(-8.47551e-07 2.28929e-06 -6.74903e-06)
(1.7336e-06 -2.31654e-06 -7.50365e-06)
(1.78533e-07 2.41275e-06 -8.11528e-06)
(2.65236e-06 -1.41095e-06 -7.25358e-06)
(1.88304e-06 2.84978e-06 -8.64426e-06)
(-7.4578e-07 3.45001e-06 -8.47249e-06)
(2.05811e-06 1.74951e-06 -8.72728e-06)
(-1.236e-07 1.97989e-06 -6.45303e-06)
(-1.95428e-06 2.55011e-06 -8.08211e-06)
(1.95795e-06 2.14489e-06 -8.34351e-06)
(-1.18461e-07 2.31328e-06 -6.32436e-06)
(-2.08127e-06 2.38416e-06 -8.34488e-06)
(2.07194e-06 2.27424e-06 -8.26041e-06)
(-7.02787e-08 2.35858e-06 -6.43836e-06)
(-2.21139e-06 2.3107e-06 -8.46845e-06)
(1.95268e-06 2.47023e-06 -8.00865e-06)
(-4.47544e-08 2.40166e-06 -6.37628e-06)
(-2.32253e-06 2.19695e-06 -8.35068e-06)
(-2.30988e-06 2.77726e-06 -9.58795e-06)
(-3.30909e-06 1.21814e-06 -6.4102e-06)
(-1.10958e-06 1.44304e-06 -9.01726e-06)
(2.06525e-06 -4.38447e-06 -7.86302e-06)
(-1.36752e-07 -2.06712e-07 -6.91896e-06)
(-3.36366e-06 -2.51289e-06 -7.43285e-06)
(-1.04932e-07 1.40027e-06 -9.31355e-06)
(3.19333e-06 -3.26762e-06 -7.28314e-06)
(-3.83135e-08 -1.4787e-07 -6.9161e-06)
(-3.19229e-06 -2.83845e-06 -7.40701e-06)
(-1.36226e-08 1.42083e-06 -9.40661e-06)
(3.10998e-06 -3.21016e-06 -7.38054e-06)
(-1.57869e-08 -1.31258e-07 -6.91325e-06)
(-3.13544e-06 -2.81788e-06 -7.22654e-06)
(4.22911e-09 1.42746e-06 -9.40901e-06)
(3.06989e-06 -3.33176e-06 -7.64932e-06)
(4.72309e-08 -1.8369e-07 -6.8929e-06)
(-3.10575e-06 -2.73645e-06 -6.87726e-06)
(1.70437e-07 1.45006e-06 -9.243e-06)
(2.56608e-06 -3.73046e-06 -8.17976e-06)
(1.59364e-07 1.06984e-07 -5.74919e-06)
(-2.38841e-06 2.81656e-06 -8.37161e-06)
(2.71429e-06 1.56101e-06 -7.96562e-06)
(-2.79425e-06 2.1913e-06 -7.84552e-06)
(2.68854e-06 1.62734e-06 -7.91763e-06)
(-2.73922e-06 2.07034e-06 -7.8797e-06)
(2.74112e-06 1.721e-06 -7.87408e-06)
(-2.74398e-06 2.06508e-06 -7.8561e-06)
(3.12724e-06 1.75836e-06 -7.989e-06)
(-2.30196e-06 2.47511e-06 -7.64373e-06)
(1.07169e-06 1.71634e-07 -7.47694e-06)
(-1.71888e-06 9.99202e-07 -6.12957e-06)
(-1.17147e-06 1.45096e-06 -6.35871e-06)
(1.78413e-06 2.2822e-06 -8.05499e-06)
(1.4096e-07 -1.38108e-07 -5.12251e-06)
(-7.36981e-07 -7.92631e-07 -7.09785e-06)
(1.3265e-06 3.10241e-07 -1.05726e-05)
(-3.68804e-06 5.84188e-07 -6.98422e-06)
(-1.11892e-06 1.28914e-06 -6.96195e-06)
(3.98273e-06 1.93918e-07 -5.9814e-06)
(-1.82594e-07 3.47622e-07 -7.34453e-06)
(3.30325e-08 6.05604e-08 -4.92769e-06)
(5.61711e-08 8.00009e-09 -5.18811e-06)
(4.10734e-07 7.36163e-09 -5.18433e-06)
(2.24029e-06 2.68748e-06 -6.80303e-06)
(-4.23694e-07 -1.57958e-06 -6.71527e-06)
(5.6271e-08 5.21616e-08 -6.27511e-06)
(-1.33729e-07 1.59694e-06 -6.80204e-06)
(1.36431e-06 5.04743e-08 -1.07459e-05)
(-3.25421e-06 -9.50509e-08 -6.77448e-06)
(-3.24555e-06 3.09677e-07 -6.86192e-06)
(6.54523e-06 5.37159e-08 -6.06208e-06)
(-1.36994e-07 1.71188e-06 -6.85711e-06)
(1.73488e-06 -2.61263e-06 -6.7322e-06)
(2.8346e-06 2.34554e-06 -7.3576e-06)
(8.79725e-08 6.16007e-08 -6.10887e-06)
(3.44916e-08 -5.49204e-08 -6.40548e-06)
(2.35993e-08 -6.36116e-09 -5.52556e-06)
(1.09191e-08 1.76546e-09 -3.94746e-06)
(3.11625e-09 5.14567e-09 -2.67443e-06)
(-5.88171e-11 4.56485e-09 -1.70999e-06)
(-9.93633e-10 3.2839e-09 -1.03268e-06)
(-1.12749e-09 2.24149e-09 -5.91915e-07)
(-9.50351e-10 1.41942e-09 -3.31756e-07)
(1.21435e-10 1.45449e-10 -2.26006e-07)
(-4.17731e-10 4.85795e-10 -1.82248e-07)
(-2.23058e-08 2.29173e-08 -1.3361e-07)
(-2.104e-08 -8.0849e-09 -1.4099e-07)
(3.12961e-09 -3.90808e-09 -2.12218e-07)
(1.26734e-08 -1.60937e-08 -1.53026e-07)
(2.46695e-10 2.05394e-08 -1.30106e-07)
(1.81611e-08 -9.28713e-09 -1.50669e-07)
(-2.19355e-08 -1.93316e-08 -1.48517e-07)
(-1.79226e-09 -2.7414e-08 -2.04738e-07)
(-6.03195e-09 -3.04999e-08 -1.54753e-07)
(3.42241e-08 -1.12153e-09 -2.00878e-07)
(2.75256e-08 2.31722e-08 -1.47171e-07)
(6.88596e-09 -1.70088e-08 -1.53729e-07)
(2.17808e-08 1.7406e-09 -1.97984e-07)
(1.3343e-08 1.8917e-08 -1.47287e-07)
(9.84168e-09 -1.87108e-08 -1.51111e-07)
(2.34332e-08 8.31635e-10 -2.00124e-07)
(1.09606e-08 1.95978e-08 -1.49679e-07)
(1.18477e-08 -2.01439e-08 -1.48447e-07)
(2.38249e-08 -7.10289e-10 -2.00861e-07)
(9.38195e-09 1.81625e-08 -1.51342e-07)
(1.92906e-08 -2.19565e-08 -1.48938e-07)
(2.7121e-08 -1.86806e-09 -2.05874e-07)
(3.03066e-08 -6.02336e-09 -1.5547e-07)
(1.21745e-09 3.38865e-08 -2.01717e-07)
(-2.29627e-08 2.74596e-08 -1.48032e-07)
(7.54405e-10 -1.99727e-08 -1.30819e-07)
(1.61569e-08 1.28232e-08 -1.53454e-07)
(-2.04269e-08 9.92243e-09 -1.39305e-07)
(-2.27692e-08 -2.23314e-08 -1.34035e-07)
(4.05759e-09 3.29142e-09 -2.12684e-07)
(8.20586e-09 -2.09946e-08 -1.41315e-07)
(3.94445e-09 1.6196e-08 -1.40733e-07)
(-1.77411e-08 1.72289e-08 -1.32757e-07)
(-1.96517e-08 -1.91918e-08 -1.33967e-07)
(4.66931e-09 -2.6997e-10 -2.14619e-07)
(4.5995e-09 -1.71644e-08 -1.41004e-07)
(5.908e-09 1.74352e-08 -1.40522e-07)
(-1.9477e-08 1.96109e-08 -1.33234e-07)
(-1.81179e-08 -1.70093e-08 -1.33642e-07)
(4.73524e-09 2.596e-12 -2.14336e-07)
(2.52936e-09 -1.56673e-08 -1.40822e-07)
(1.01095e-08 2.07487e-08 -1.39019e-07)
(-1.99835e-08 -6.39007e-10 -1.30434e-07)
(2.64295e-08 -1.0522e-10 -1.77647e-07)
(-6.22683e-08 7.03354e-08 -1.57169e-07)
(-8.13353e-08 -5.41853e-08 -1.83232e-07)
(9.12333e-08 7.53779e-08 -2.67616e-07)
(-1.31349e-07 -1.04413e-07 -3.3557e-07)
(-7.44824e-09 5.37911e-09 -1.83605e-07)
(-6.92726e-08 -4.67121e-08 -2.41518e-07)
(1.71221e-09 1.78412e-09 -1.51484e-07)
(5.92414e-08 5.00866e-09 -1.85944e-07)
(-1.33969e-08 -5.25854e-09 -1.14949e-07)
(5.81305e-08 1.77102e-08 -1.52116e-07)
(2.84715e-08 -3.51479e-08 -1.57858e-07)
(4.29367e-08 3.52914e-08 -1.4748e-07)
(-7.48519e-08 -6.70761e-08 -1.73341e-07)
(2.68397e-08 3.19486e-10 -1.83334e-07)
(-6.47801e-08 6.89402e-08 -1.66215e-07)
(5.4361e-08 -8.52421e-08 -2.55023e-07)
(7.05978e-08 8.88418e-08 -2.5267e-07)
(-1.09904e-07 -1.17616e-07 -3.15971e-07)
(1.00634e-08 7.46329e-10 -2.29146e-07)
(-9.34952e-08 1.1649e-07 -3.16023e-07)
(1.11111e-07 -1.59117e-07 -4.33803e-07)
(1.38286e-07 1.65326e-07 -4.33898e-07)
(-1.95423e-07 -2.19709e-07 -5.7261e-07)
(1.20709e-08 1.24208e-09 -4.12312e-07)
(-1.63987e-07 2.15996e-07 -5.73957e-07)
(2.09141e-07 -2.90066e-07 -7.74334e-07)
(2.55953e-07 3.00543e-07 -7.74599e-07)
(-3.45275e-07 -3.92996e-07 -1.01341e-06)
(2.0992e-08 1.90223e-09 -7.38474e-07)
(-2.8855e-07 3.86171e-07 -1.01531e-06)
(3.68201e-07 -5.04565e-07 -1.33645e-06)
(4.48102e-07 5.22207e-07 -1.33703e-06)
(-5.85805e-07 -6.65428e-07 -1.7065e-06)
(3.38806e-08 3.08585e-09 -1.2627e-06)
(-4.8972e-07 6.53929e-07 -1.71009e-06)
(6.04879e-07 -8.32156e-07 -2.18943e-06)
(7.38426e-07 8.60813e-07 -2.19165e-06)
(-9.49152e-07 -1.064e-06 -2.71692e-06)
(5.13021e-08 5.12958e-09 -2.04311e-06)
(-7.94931e-07 1.04462e-06 -2.72414e-06)
(9.27936e-07 -1.29977e-06 -3.39456e-06)
(1.14402e-06 1.34366e-06 -3.40093e-06)
(-1.46394e-06 -1.6022e-06 -4.08689e-06)
(7.50669e-08 7.79429e-09 -3.12315e-06)
(-1.22381e-06 1.56767e-06 -4.09976e-06)
(1.32731e-06 -1.9134e-06 -4.96781e-06)
(1.66403e-06 1.97468e-06 -4.9825e-06)
(-2.11782e-06 -2.23552e-06 -5.80729e-06)
(1.09255e-07 1.14237e-08 -4.49097e-06)
(-1.74669e-06 2.17321e-06 -5.83025e-06)
(1.73176e-06 -2.62077e-06 -6.7572e-06)
(2.15607e-06 2.64213e-06 -6.77259e-06)
(-3.72504e-07 -1.5851e-06 -6.79095e-06)
(1.30565e-06 -1.18344e-08 -1.0745e-05)
(-3.22077e-06 -1.87643e-07 -6.77172e-06)
(-3.28504e-06 9.47113e-08 -6.75147e-06)
(6.57257e-06 -5.57626e-08 -6.08065e-06)
(-2.90258e-07 -2.67445e-09 -8.27298e-06)
(-3.09056e-07 1.41525e-08 -8.25462e-06)
(6.62902e-08 2.34056e-08 -5.18855e-06)
(4.4671e-07 2.01508e-09 -5.1919e-06)
(2.23136e-06 2.69032e-06 -6.79118e-06)
(-3.07586e-07 -1.57844e-06 -6.77127e-06)
(7.89869e-08 6.87249e-09 -6.22306e-06)
(-3.73773e-07 1.89946e-06 -6.88948e-06)
(1.2536e-06 -2.98135e-07 -1.074e-05)
(-3.27441e-06 -1.35198e-07 -6.81718e-06)
(-3.23066e-06 1.17944e-07 -6.74306e-06)
(6.53225e-06 -1.09845e-07 -6.09624e-06)
(-1.84489e-07 1.58635e-06 -6.76227e-06)
(1.73369e-06 -2.65012e-06 -6.76379e-06)
(5.34233e-08 1.66729e-08 -6.27014e-06)
(5.46155e-08 1.15553e-08 -6.25719e-06)
(2.79478e-08 3.30141e-08 -5.5153e-06)
(1.43308e-08 1.70996e-08 -3.94975e-06)
(5.06506e-09 6.49288e-09 -2.67896e-06)
(8.23031e-10 1.54737e-09 -1.7132e-06)
(-6.49208e-10 -2.86532e-10 -1.03451e-06)
(-1.01769e-09 -8.51289e-10 -5.92841e-07)
(-8.86268e-10 -8.36293e-10 -3.322e-07)
(1.08038e-10 1.48664e-10 -2.26298e-07)
(-4.13138e-10 -3.94651e-10 -1.82563e-07)
(1.71968e-08 -1.81784e-08 -1.33618e-07)
(-1.93563e-08 -1.95802e-08 -1.33647e-07)
(1.94737e-08 -1.96582e-08 -1.33561e-07)
(-1.70847e-08 -1.81435e-08 -1.33426e-07)
(1.48994e-10 4.8773e-09 -2.14329e-07)
(1.70129e-08 5.39062e-09 -1.40489e-07)
(-1.56051e-08 2.81992e-09 -1.40832e-07)
(6.05514e-11 -2.33415e-08 -1.34588e-07)
(-1.8179e-08 1.02903e-08 -1.51245e-07)
(5.10651e-11 -2.29042e-08 -2.28223e-07)
(-1.68387e-08 5.33988e-09 -1.40501e-07)
(5.45312e-11 4.88861e-09 -2.14486e-07)
(1.57559e-08 2.89242e-09 -1.41026e-07)
(6.29939e-10 -2.26207e-08 -2.26679e-07)
(1.68706e-08 6.9135e-09 -1.53773e-07)
(-1.46656e-09 2.1234e-08 -1.97923e-07)
(-1.84636e-08 1.29875e-08 -1.47503e-07)
(-3.27539e-12 -2.33516e-08 -1.34722e-07)
(1.82184e-08 1.03353e-08 -1.51324e-07)
(1.01868e-11 2.30781e-08 -1.98023e-07)
(3.64819e-11 3.23762e-08 -1.0795e-07)
(3.44072e-08 3.56211e-08 -1.52357e-07)
(-6.70388e-08 -6.82172e-08 -1.66335e-07)
(6.71773e-08 -6.81582e-08 -1.6616e-07)
(-6.59969e-08 -7.30267e-08 -1.7348e-07)
(8.77238e-08 6.71133e-08 -2.52786e-07)
(-1.16124e-07 -1.05549e-07 -3.16169e-07)
(1.63243e-07 1.31291e-07 -4.34226e-07)
(-2.16772e-07 -1.86396e-07 -5.72848e-07)
(2.96584e-07 2.42884e-07 -7.75294e-07)
(-3.87644e-07 -3.28488e-07 -1.01361e-06)
(5.15224e-07 4.25348e-07 -1.33828e-06)
(-6.5636e-07 -5.56734e-07 -1.70675e-06)
(8.49338e-07 7.01156e-07 -2.19385e-06)
(-1.04931e-06 -9.01948e-07 -2.71707e-06)
(1.32612e-06 1.08717e-06 -3.40512e-06)
(-1.5799e-06 -1.39342e-06 -4.08581e-06)
(1.95075e-06 1.5866e-06 -4.99089e-06)
(-2.20592e-06 -2.02599e-06 -5.80104e-06)
(2.65915e-06 2.15475e-06 -6.82093e-06)
(-1.56799e-06 -3.73136e-07 -6.71047e-06)
(4.04609e-08 1.38725e-06 -1.07515e-05)
(1.5901e-06 -2.10686e-07 -6.83268e-06)
(4.6657e-08 6.26791e-08 -6.27436e-06)
(-2.58861e-06 1.866e-06 -6.74267e-06)
(2.1505e-06 -1.86412e-06 -5.84697e-06)
(1.30652e-08 1.14612e-07 -4.49464e-06)
(-1.89052e-06 1.4383e-06 -4.96812e-06)
(1.54885e-06 -1.31707e-06 -4.10701e-06)
(7.75712e-09 7.75217e-08 -3.12577e-06)
(-1.28445e-06 1.00685e-06 -3.39765e-06)
(1.03134e-06 -8.58434e-07 -2.72691e-06)
(4.61273e-09 5.24435e-08 -2.04464e-06)
(-8.22447e-07 6.55688e-07 -2.19193e-06)
(6.45399e-07 -5.29384e-07 -1.71112e-06)
(2.64097e-09 3.43982e-08 -1.26351e-06)
(-4.98713e-07 3.98784e-07 -1.33804e-06)
(3.81102e-07 -3.11718e-07 -1.01568e-06)
(1.54083e-09 2.12151e-08 -7.38899e-07)
(-2.86739e-07 2.26673e-07 -7.75448e-07)
(2.13203e-07 -1.76585e-07 -5.73952e-07)
(9.75711e-10 1.21798e-08 -4.12525e-07)
(-1.57339e-07 1.20574e-07 -4.34637e-07)
(1.1493e-07 -9.99238e-08 -3.15848e-07)
(6.13829e-10 1.00925e-08 -2.29202e-07)
(-8.4152e-08 5.89192e-08 -2.55467e-07)
(1.66278e-10 -5.95487e-09 -1.85917e-07)
(8.4504e-08 5.89459e-08 -2.55396e-07)
(-1.14408e-07 -9.98497e-08 -3.16019e-07)
(-3.54452e-10 1.01032e-08 -2.29307e-07)
(-8.7289e-08 6.73812e-08 -2.53012e-07)
(6.61714e-08 -7.27541e-08 -1.73629e-07)
(-1.69489e-10 2.69099e-08 -1.83594e-07)
(-3.46285e-08 4.15395e-08 -1.47462e-07)
(-2.26927e-09 2.95552e-08 -1.09075e-07)
(3.50437e-08 2.87825e-08 -1.58649e-07)
(-6.94978e-08 -6.38692e-08 -1.57695e-07)
(8.39397e-08 5.33934e-08 -2.55546e-07)
(-1.14497e-07 -9.4723e-08 -3.15523e-07)
(1.5518e-07 1.15572e-07 -4.33713e-07)
(-2.09772e-07 -1.66957e-07 -5.74512e-07)
(2.83604e-07 2.19822e-07 -7.76449e-07)
(-3.72957e-07 -2.95577e-07 -1.01624e-06)
(4.9475e-07 3.88021e-07 -1.34338e-06)
(-6.29766e-07 -5.038e-07 -1.71148e-06)
(8.19454e-07 6.39925e-07 -2.2053e-06)
(-1.00443e-06 -8.2282e-07 -2.72547e-06)
(1.28921e-06 9.91635e-07 -3.43201e-06)
(-1.50443e-06 -1.27493e-06 -4.08789e-06)
(1.91485e-06 1.44262e-06 -5.05222e-06)
(-2.07093e-06 -1.79882e-06 -5.75718e-06)
(2.61878e-06 1.89869e-06 -6.86582e-06)
(-1.54986e-06 -1.9927e-07 -6.75736e-06)
(-3.89635e-07 1.04244e-06 -1.06387e-05)
(6.47932e-07 -7.79167e-07 -7.19264e-06)
(7.09572e-08 1.03033e-07 -6.09148e-06)
(-2.43958e-06 2.62934e-06 -7.38422e-06)
(1.89095e-06 -2.62397e-06 -6.33915e-06)
(1.37367e-08 1.42834e-07 -4.37402e-06)
(-1.72866e-06 2.09075e-06 -5.41026e-06)
(1.40039e-06 -1.79267e-06 -4.41706e-06)
(-7.55276e-09 8.87715e-08 -3.03742e-06)
(-1.13709e-06 1.44324e-06 -3.67662e-06)
(9.2365e-07 -1.13955e-06 -2.91407e-06)
(-1.00023e-08 5.57339e-08 -1.9817e-06)
(-7.2213e-07 9.27609e-07 -2.36215e-06)
(5.73141e-07 -6.97095e-07 -1.82248e-06)
(-7.84945e-09 3.55403e-08 -1.2229e-06)
(-4.38055e-07 5.64836e-07 -1.43971e-06)
(3.38267e-07 -4.08826e-07 -1.07972e-06)
(-6.2207e-09 2.16248e-08 -7.14456e-07)
(-2.51934e-07 3.25696e-07 -8.31926e-07)
(1.90827e-07 -2.29789e-07 -6.08423e-07)
(-4.90686e-09 1.2606e-08 -3.98447e-07)
(-1.38066e-07 1.78126e-07 -4.63764e-07)
(1.04562e-07 -1.28868e-07 -3.35755e-07)
(-4.2249e-09 1.0592e-08 -2.20709e-07)
(-7.3751e-08 9.04364e-08 -2.6768e-07)
(5.39412e-08 -8.03243e-08 -1.83507e-07)
(2.62091e-10 2.65507e-08 -1.7808e-07)
(-1.73906e-08 5.814e-08 -1.52513e-07)
(2.84708e-08 5.04016e-08 -1.54946e-07)
(4.74018e-08 -2.51033e-08 -1.40795e-07)
(-3.37227e-09 5.94291e-08 -1.86328e-07)
(4.52052e-09 -1.33418e-08 -1.14875e-07)
(-8.88657e-09 6.97494e-09 -1.31484e-07)
(2.77986e-08 6.57789e-08 -1.6411e-07)
(-8.63782e-08 -5.8084e-08 -1.54095e-07)
(8.22155e-08 6.70043e-08 -2.59243e-07)
(-1.32738e-07 -8.34087e-08 -3.25986e-07)
(-8.94202e-08 1.3374e-07 -3.15716e-07)
(-1.1192e-07 -1.18828e-07 -3.15743e-07)
(1.05032e-08 -1.30394e-09 -2.27514e-07)
(5.73436e-08 -1.02004e-07 -2.51962e-07)
(6.40786e-08 8.72784e-08 -2.56744e-07)
(-7.34098e-08 -7.14482e-08 -1.60366e-07)
(2.56607e-08 1.50219e-09 -1.83148e-07)
(-6.46007e-08 7.38648e-08 -1.76427e-07)
(-6.8268e-09 2.791e-09 -1.85628e-07)
(1.52358e-09 -1.18942e-10 -1.80933e-07)
(-2.33119e-08 -1.87668e-08 -2.17666e-07)
(1.77638e-09 1.65933e-09 -1.63764e-07)
(-1.03645e-09 -1.47817e-09 -1.55905e-07)
(-2.36519e-08 9.83325e-10 -2.26141e-07)
(-1.21887e-09 -6.58869e-10 -1.97325e-07)
(-6.60725e-09 -3.5716e-10 -1.86046e-07)
(-6.67905e-08 6.85596e-08 -1.71966e-07)
(-7.25116e-08 -6.87178e-08 -1.67353e-07)
(6.58867e-08 8.65166e-08 -2.55554e-07)
(-1.08852e-07 -1.16459e-07 -3.16009e-07)
(-6.54461e-09 2.59566e-10 -3.07492e-07)
(1.33824e-07 1.61489e-07 -4.34917e-07)
(-1.94217e-07 -2.16114e-07 -5.74045e-07)
(2.5145e-07 2.94612e-07 -7.75793e-07)
(-3.43633e-07 -3.86153e-07 -1.01565e-06)
(-2.41057e-08 1.46198e-09 -9.58905e-07)
(4.43089e-07 5.1314e-07 -1.33919e-06)
(-5.83759e-07 -6.53229e-07 -1.70997e-06)
(7.31439e-07 8.47661e-07 -2.19558e-06)
(-9.46571e-07 -1.04245e-06 -2.72171e-06)
(-1.36796e-08 3.67705e-09 -2.50189e-06)
(1.13176e-06 1.32502e-06 -3.40707e-06)
(-1.45413e-06 -1.56383e-06 -4.09097e-06)
(1.63548e-06 1.94527e-06 -4.98684e-06)
(-2.07318e-06 -2.17297e-06 -5.8128e-06)
(4.29901e-07 -3.99028e-09 -5.19239e-06)
(6.54413e-08 3.86937e-09 -5.18866e-06)
(9.4253e-09 6.21072e-09 -3.71675e-06)
(1.38202e-08 1.77739e-08 -3.72191e-06)
(-1.87038e-08 8.61365e-09 -2.5208e-06)
(-1.08369e-08 9.26723e-09 -2.51059e-06)
(1.17488e-06 1.33984e-06 -3.427e-06)
(-1.49307e-06 -1.56389e-06 -4.09694e-06)
(8.52306e-08 6.87405e-09 -3.12909e-06)
(-1.21107e-06 1.86022e-06 -4.14262e-06)
(1.23628e-06 -2.22381e-06 -4.9663e-06)
(1.7097e-06 1.98574e-06 -5.02892e-06)
(-2.08125e-06 -2.15288e-06 -5.78646e-06)
(1.36793e-07 1.96838e-08 -4.49404e-06)
(-1.83063e-06 2.63073e-06 -5.92405e-06)
(1.53595e-06 -2.94101e-06 -6.69323e-06)
(3.08797e-06 1.89299e-06 -7.57458e-06)
(-2.36389e-07 -1.45638e-06 -6.61071e-06)
(1.72414e-07 -2.7698e-06 -1.08423e-05)
(-3.53317e-06 -2.17601e-07 -6.99269e-06)
(-3.28695e-06 6.89229e-09 -6.62198e-06)
(6.25778e-06 -9.92567e-07 -6.30821e-06)
(-4.29921e-07 -2.69292e-07 -8.09497e-06)
(5.71525e-08 3.59522e-08 -4.93349e-06)
(1.05103e-07 1.38836e-06 -4.50007e-06)
(-1.43188e-06 1.68302e-06 -6.13684e-06)
(2.72899e-07 1.05554e-07 -3.73024e-06)
(7.83588e-07 -2.16413e-06 -5.01054e-06)
(-8.15318e-07 1.40574e-06 -4.19055e-06)
(5.07669e-08 -6.66838e-09 -2.53763e-06)
(5.69961e-07 -1.21593e-06 -3.42461e-06)
(-5.0573e-07 9.33036e-07 -2.72579e-06)
(2.30508e-10 -1.92991e-08 -1.64403e-06)
(3.50693e-07 -7.26718e-07 -2.21093e-06)
(-3.2321e-07 5.87309e-07 -1.70057e-06)
(-5.43134e-09 -1.27845e-08 -1.01344e-06)
(1.97343e-07 -4.22825e-07 -1.3419e-06)
(-1.89399e-07 3.46505e-07 -9.97547e-07)
(-7.80579e-09 -1.06964e-08 -5.9082e-07)
(1.17513e-07 -2.41992e-07 -7.75355e-07)
(-1.04713e-07 2.01916e-07 -5.58954e-07)
(-8.15048e-09 -8.02689e-09 -3.28985e-07)
(6.82179e-08 -1.26731e-07 -4.26993e-07)
(-4.86302e-08 1.14334e-07 -3.06331e-07)
(-7.22274e-09 -8.63409e-09 -1.82906e-07)
(4.89252e-08 -6.53304e-08 -2.41476e-07)
(1.6226e-08 1.40626e-08 -1.62749e-07)
(1.11089e-08 2.462e-08 -1.55984e-07)
(-1.41739e-09 -4.34229e-08 -2.21678e-07)
(-6.96791e-10 -3.94379e-09 -2.16761e-07)
(2.92995e-08 8.08869e-08 -2.75623e-07)
(-1.22042e-08 -1.03211e-07 -3.91085e-07)
(1.65663e-07 1.15404e-07 -4.39038e-07)
(-2.35753e-07 -1.53221e-07 -5.9062e-07)
(3.12197e-07 2.07807e-07 -7.91762e-07)
(-4.18236e-07 -2.73319e-07 -1.0447e-06)
(-2.69959e-07 4.42181e-07 -1.01362e-06)
(-3.53029e-07 -3.89037e-07 -1.01805e-06)
(2.14378e-08 -2.2654e-09 -7.37171e-07)
(2.05455e-07 -3.38368e-07 -7.77611e-07)
(2.583e-07 2.94408e-07 -7.76902e-07)
(-1.99216e-07 -2.18479e-07 -5.75351e-07)
(1.23642e-08 -2.01584e-09 -4.11142e-07)
(-1.52835e-07 2.47115e-07 -5.71328e-07)
(-1.05751e-08 1.31892e-09 -5.48085e-07)
(-5.29003e-09 -5.78062e-09 -5.27521e-07)
(-2.00699e-09 -3.05152e-09 -2.93958e-07)
(-4.29893e-09 -6.6557e-09 -2.55313e-07)
(-7.56545e-09 -2.26291e-08 -3.09113e-07)
(6.37236e-09 -2.01886e-09 -2.86404e-07)
(3.38707e-09 3.29281e-09 -2.73092e-07)
(-4.91593e-09 -1.98785e-10 -3.25136e-07)
(-3.61543e-08 5.97997e-09 -3.32185e-07)
(-1.15949e-08 5.56613e-09 -2.01909e-07)
(2.95713e-08 2.45682e-09 -1.61277e-07)
(4.04106e-08 -3.48056e-09 -1.12919e-07)
(3.4808e-08 5.48862e-08 -1.91455e-07)
(1.25325e-08 1.74057e-08 -1.08723e-07)
(6.15843e-08 2.81949e-09 -1.61774e-07)
(2.11624e-08 1.41763e-08 -1.94926e-07)
(2.49039e-08 -2.5319e-09 -2.46187e-07)
(2.57702e-08 -1.08279e-08 -4.32922e-07)
(-2.70552e-08 -7.90695e-09 -5.86071e-07)
(-6.30554e-08 8.16537e-09 -5.87649e-07)
(-1.02094e-07 1.33586e-08 -1.02336e-06)
(-5.21747e-08 -1.3669e-08 -1.0318e-06)
(3.44084e-08 -2.12384e-08 -7.71483e-07)
(-3.22069e-08 -1.94483e-07 -7.08574e-07)
(5.74328e-09 -1.19276e-08 -7.09964e-07)
(6.83697e-08 2.41214e-07 -9.14714e-07)
(-6.07915e-08 -3.42305e-07 -1.22246e-06)
(5.49865e-07 3.60539e-07 -1.37768e-06)
(-7.1098e-07 -4.62237e-07 -1.75926e-06)
(9.11771e-07 5.99159e-07 -2.26789e-06)
(-1.1617e-06 -7.3975e-07 -2.80427e-06)
(-7.59248e-07 1.21418e-06 -2.73566e-06)
(-9.75169e-07 -1.04651e-06 -2.7295e-06)
(5.45109e-08 1.13662e-10 -2.04436e-06)
(5.81988e-07 -9.65562e-07 -2.20182e-06)
(7.55794e-07 8.51675e-07 -2.20396e-06)
(-6.00678e-07 -6.56949e-07 -1.71439e-06)
(3.50653e-08 -1.93026e-09 -1.26195e-06)
(-4.61386e-07 7.52072e-07 -1.71182e-06)
(-2.06885e-08 6.10157e-09 -1.59895e-06)
(-7.82737e-09 -9.64624e-09 -1.52811e-06)
(-7.83467e-09 -8.27782e-09 -9.21183e-07)
(-1.03489e-08 4.91367e-09 -8.09107e-07)
(-2.53537e-08 -7.7223e-08 -9.61947e-07)
(-9.81814e-10 -3.82626e-08 -9.33837e-07)
(-7.22173e-09 -2.70613e-08 -8.90307e-07)
(-1.57642e-08 -4.57899e-08 -5.50474e-07)
(2.24481e-11 -1.91436e-08 -5.17908e-07)
(-2.55756e-09 -1.38123e-08 -4.94673e-07)
(4.38523e-08 1.37881e-07 -5.10932e-07)
(3.05028e-09 -6.74408e-09 -3.94337e-07)
(-7.15001e-09 -3.24017e-09 -4.60831e-07)
(-7.25858e-10 2.13145e-08 -4.43818e-07)
(1.47496e-09 -3.67978e-08 -3.36016e-07)
(5.49084e-10 -1.21208e-08 -2.03861e-07)
(-1.79049e-09 3.31404e-08 -1.61803e-07)
(3.6201e-09 6.12041e-08 -1.6073e-07)
(-4.21895e-08 1.10001e-07 -1.48581e-07)
(-3.6267e-09 4.18955e-09 -1.85276e-07)
(-1.96675e-09 -6.57314e-10 -1.51054e-07)
(-5.91687e-10 1.02786e-08 -2.51047e-07)
(-5.98222e-10 5.10238e-09 -2.50517e-07)
(1.16761e-07 -1.05092e-07 -3.16324e-07)
(6.8213e-10 -6.82999e-09 -3.06406e-07)
(-1.62448e-07 1.32076e-07 -4.34443e-07)
(1.58193e-07 1.20534e-07 -4.3467e-07)
(-2.11965e-07 -1.76207e-07 -5.74031e-07)
(-2.48253e-10 1.22207e-08 -4.12797e-07)
(2.18421e-07 -1.86156e-07 -5.73458e-07)
(1.60271e-09 -1.33055e-08 -5.47976e-07)
(-2.95129e-07 2.44073e-07 -7.75601e-07)
(2.88758e-07 2.26838e-07 -7.7601e-07)
(-3.78501e-07 -3.10792e-07 -1.01535e-06)
(2.81069e-10 2.13405e-08 -7.39583e-07)
(3.91267e-07 -3.29444e-07 -1.0157e-06)
(2.97736e-09 -2.19026e-08 -9.57718e-07)
(-5.12506e-07 4.26136e-07 -1.33878e-06)
(5.03106e-07 3.99966e-07 -1.34023e-06)
(-6.40277e-07 -5.27826e-07 -1.70946e-06)
(1.44385e-09 3.46942e-08 -1.26507e-06)
(6.63735e-07 -5.6081e-07 -1.71212e-06)
(5.34142e-09 -2.51187e-08 -1.59169e-06)
(-8.44731e-07 6.99138e-07 -2.19427e-06)
(8.31201e-07 6.60077e-07 -2.19803e-06)
(-1.02197e-06 -8.57063e-07 -2.72109e-06)
(3.85013e-09 5.31767e-08 -2.04768e-06)
(1.06323e-06 -9.13445e-07 -2.72937e-06)
(8.3338e-09 5.16533e-11 -2.50203e-06)
(-1.319e-06 1.07229e-06 -3.40187e-06)
(1.29984e-06 1.02159e-06 -3.41338e-06)
(-1.53326e-06 -1.32183e-06 -4.08821e-06)
(8.57155e-09 7.91638e-08 -3.13038e-06)
(1.60085e-06 -1.41522e-06 -4.11247e-06)
(6.19571e-09 1.20804e-07 -3.71576e-06)
(-1.93839e-06 1.52332e-06 -4.9687e-06)
(1.91056e-06 1.48329e-06 -5.0028e-06)
(-2.13076e-06 -1.89954e-06 -5.8002e-06)
(1.4212e-08 1.17336e-07 -4.49632e-06)
(2.21628e-06 -2.02887e-06 -5.85019e-06)
(-1.64665e-08 5.17817e-07 -5.18129e-06)
(-2.6343e-06 1.97696e-06 -6.74297e-06)
(2.59733e-06 1.97667e-06 -6.8056e-06)
(-1.57653e-06 -2.73355e-07 -6.78419e-06)
(-3.82213e-09 6.39347e-08 -6.26349e-06)
(1.56319e-06 -3.35566e-07 -6.78793e-06)
(-1.11678e-07 6.53987e-06 -6.13136e-06)
(-2.68213e-07 -3.23537e-06 -6.79223e-06)
(-2.0484e-07 -3.34586e-06 -6.5522e-06)
(-3.2541e-07 4.89183e-06 -5.88452e-06)
(-3.18685e-06 1.29238e-06 -8.00878e-06)
(6.5581e-07 4.49897e-07 -5.22037e-06)
(4.12834e-07 -3.74715e-06 -6.70605e-06)
(-2.43295e-07 -8.90608e-07 -5.02097e-06)
(-4.87358e-07 -5.42679e-07 -4.80244e-06)
(-1.51579e-07 1.57118e-06 -5.76499e-06)
(-2.45102e-06 -1.65117e-06 -5.73969e-06)
(5.67617e-07 -3.18394e-08 -5.23214e-06)
(-1.04802e-06 7.91552e-08 -5.61902e-06)
(-1.38835e-06 -3.23606e-07 -5.67576e-06)
(-2.46404e-07 -3.60901e-07 -4.86665e-06)
(-4.16663e-07 -7.63868e-08 -4.09874e-06)
(-5.52075e-07 9.61518e-08 -4.01996e-06)
(-2.90123e-07 5.06126e-08 -2.68408e-06)
(-1.56067e-07 -2.40585e-08 -2.7322e-06)
(7.40173e-08 -5.90008e-08 -2.14428e-06)
(-8.54968e-08 -1.99465e-08 -1.72377e-06)
(-1.66655e-07 2.47019e-08 -1.7008e-06)
(-1.54216e-07 6.70546e-09 -1.68793e-06)
(-9.40298e-08 3.18998e-09 -1.01884e-06)
(-6.00132e-08 1.31143e-09 -5.87814e-07)
(-3.70112e-08 -1.13929e-11 -3.33759e-07)
(-1.15995e-08 -8.53681e-10 -2.02188e-07)
(3.54272e-08 -3.17764e-09 -1.60616e-07)
(3.51066e-08 -1.48058e-09 -1.09567e-07)
(3.57421e-08 3.63305e-08 -1.57078e-07)
(4.10704e-08 -3.63728e-08 -1.38759e-07)
(5.63895e-08 2.1058e-10 -1.61669e-07)
(5.39233e-08 2.51429e-10 -1.63097e-07)
(3.80786e-08 -3.71014e-08 -1.48669e-07)
(3.83713e-08 3.65159e-08 -1.53566e-07)
(2.67983e-08 -1.06143e-10 -1.83982e-07)
(-2.35383e-08 1.24147e-10 -1.34417e-07)
(7.27575e-09 -1.41998e-10 -1.64766e-07)
(-2.66162e-09 -2.74269e-09 -1.55638e-07)
(-1.8409e-09 -1.75474e-09 -1.56006e-07)
(6.61128e-09 6.60121e-09 -1.65401e-07)
(-2.05023e-08 2.64238e-10 -1.30548e-07)
(-4.415e-11 7.58267e-09 -1.64225e-07)
(-6.14422e-12 -2.68239e-09 -1.56465e-07)
(-3.0901e-11 -3.31337e-09 -1.57125e-07)
(6.72724e-11 -1.93513e-10 -1.84274e-07)
(-1.30987e-08 1.26907e-08 -1.31514e-07)
(-1.51996e-08 -1.51225e-08 -1.32851e-07)
(-1.51492e-08 1.53877e-08 -1.32656e-07)
(-1.31746e-08 -1.24293e-08 -1.31705e-07)
(1.32343e-08 -1.26664e-08 -1.31348e-07)
(-1.05706e-08 -1.04445e-08 -1.30226e-07)
(5.88942e-10 5.83815e-10 -2.17909e-07)
(1.53894e-08 1.53263e-08 -1.32476e-07)
(-1.25844e-08 1.33977e-08 -1.31616e-07)
(-1.25599e-08 -1.31907e-08 -1.31639e-07)
(6.05992e-10 -3.77492e-10 -2.1805e-07)
(1.5262e-08 -1.52446e-08 -1.32662e-07)
(6.09012e-11 6.90548e-11 -1.85991e-07)
(1.35806e-10 1.52725e-10 -2.29704e-07)
(1.47735e-10 2.67568e-10 -2.2784e-07)
(1.31374e-10 -1.14405e-09 -1.97709e-07)
(-7.91299e-10 -1.26298e-09 -1.96806e-07)
(3.37902e-10 -7.42815e-09 -1.84819e-07)
(-3.12528e-10 -5.90659e-09 -3.10009e-07)
(-1.9807e-10 -1.15388e-08 -5.55697e-07)
(4.96296e-10 -1.77424e-08 -9.698e-07)
(2.32972e-09 -2.1894e-08 -1.60681e-06)
(6.31601e-09 -1.52212e-08 -2.51524e-06)
(1.42253e-09 -6.2843e-09 -2.39586e-06)
(-9.35704e-09 8.7557e-08 -2.12813e-06)
(-4.85011e-08 -2.23314e-07 -2.51892e-06)
(1.97609e-08 -9.86869e-08 -2.45444e-06)
(-2.79513e-08 -3.04088e-08 -2.34187e-06)
(1.58187e-07 7.0198e-07 -2.49657e-06)
(-2.20831e-07 -8.52435e-07 -3.12728e-06)
(1.44697e-06 9.47631e-07 -3.55966e-06)
(-1.80208e-06 -1.13973e-06 -4.18452e-06)
(2.20833e-06 1.41107e-06 -5.363e-06)
(-1.58613e-08 -6.72014e-08 -4.5178e-06)
(-6.26736e-07 -1.32864e-06 -4.52516e-06)
(-1.23546e-07 -6.63517e-08 -3.46463e-06)
(1.74842e-07 1.14244e-06 -3.85139e-06)
(8.57732e-09 -3.47568e-08 -3.06892e-06)
(6.60498e-08 -1.25185e-07 -3.31872e-06)
(9.88206e-08 2.01753e-08 -3.36482e-06)
(-2.69492e-07 1.39596e-08 -2.65346e-06)
(-4.97784e-07 2.80721e-08 -3.94988e-06)
(-9.76863e-07 3.3366e-08 -5.56e-06)
(-2.27949e-06 -3.08138e-08 -7.49098e-06)
(-2.34868e-06 -3.67147e-07 -7.48026e-06)
(-5.30135e-06 1.26427e-06 -7.54012e-06)
(-2.11093e-06 -6.09931e-07 -6.29424e-06)
(-1.79445e-06 -2.07651e-06 -5.75879e-06)
(-2.66985e-08 -3.29345e-07 -6.12433e-06)
(-6.89974e-07 -4.12247e-07 -6.879e-06)
(6.56885e-07 -5.00269e-06 -5.89943e-06)
(-4.70953e-06 -1.4206e-06 -6.78682e-06)
(-2.87807e-06 1.85137e-07 -9.90862e-06)
(-1.40352e-06 -2.12481e-06 -8.93723e-06)
(2.05101e-06 1.53123e-06 -8.61703e-06)
(1.64226e-07 7.7628e-08 -8.92222e-06)
(8.60513e-08 6.67368e-08 -5.6443e-06)
(-2.09114e-06 1.84938e-06 -7.21195e-06)
(2.20149e-06 1.54747e-06 -7.55745e-06)
(1.51788e-08 1.96185e-07 -9.10588e-06)
(-2.7416e-07 -1.78819e-07 -5.79717e-06)
(-2.28001e-06 2.0305e-06 -7.44952e-06)
(2.20798e-06 1.82716e-06 -7.58664e-06)
(4.49372e-09 2.07365e-07 -9.14912e-06)
(-3.02934e-07 -2.1321e-07 -5.82256e-06)
(-2.22663e-06 1.84852e-06 -7.35719e-06)
(2.20143e-06 2.07832e-06 -7.68504e-06)
(1.74631e-08 1.93711e-07 -9.1345e-06)
(-4.8541e-07 -4.7637e-07 -5.9692e-06)
(-2.12604e-06 1.54309e-06 -7.30249e-06)
(1.57163e-06 2.10337e-06 -8.20418e-06)
(-1.36279e-06 -7.53833e-07 -1.14106e-05)
(1.19246e-06 1.23081e-06 -9.18011e-06)
(9.10209e-07 -1.06763e-06 -8.9829e-06)
(2.56742e-06 1.14271e-06 -1.14056e-05)
(-1.20772e-06 -4.47481e-06 -1.12069e-05)
(-6.68685e-07 -2.41545e-06 -8.86425e-06)
(3.76945e-07 3.81777e-07 -6.44614e-06)
(1.44531e-06 -1.10658e-06 -9.01843e-06)
(-4.35779e-06 2.08643e-06 -7.86958e-06)
(-2.08802e-07 -1.31813e-07 -6.91595e-06)
(-2.52795e-06 -3.3765e-06 -7.41805e-06)
(2.48386e-06 1.96654e-06 -8.02542e-06)
(2.40079e-06 -3.64335e-08 -6.38001e-06)
(2.19504e-06 -2.31839e-06 -8.33739e-06)
(2.77695e-06 -2.30957e-06 -9.59301e-06)
(1.21652e-06 -3.31205e-06 -6.40881e-06)
(1.83461e-07 1.08667e-06 -7.48182e-06)
(1.00001e-06 -1.72295e-06 -6.13305e-06)
(1.45259e-06 -1.16363e-06 -6.36411e-06)
(2.26872e-06 1.77264e-06 -8.05754e-06)
(-7.48414e-07 -3.03891e-06 -6.71676e-06)
(1.96165e-07 -4.69991e-07 -4.96428e-06)
(1.27856e-06 1.8895e-06 -5.96004e-06)
(-7.7573e-07 -1.86646e-06 -4.93972e-06)
(1.44017e-08 -1.6446e-07 -3.58972e-06)
(7.89488e-07 1.3972e-06 -4.10931e-06)
(-5.40843e-07 -1.1488e-06 -3.38869e-06)
(1.6103e-09 -8.65344e-08 -2.40947e-06)
(5.08981e-07 9.26897e-07 -2.70262e-06)
(-3.34319e-07 -7.07793e-07 -2.1909e-06)
(3.04794e-09 -5.95756e-08 -1.53362e-06)
(3.19633e-07 5.7771e-07 -1.68824e-06)
(-1.97917e-07 -4.24829e-07 -1.3388e-06)
(2.52276e-09 -3.98909e-08 -9.21483e-07)
(1.91037e-07 3.42749e-07 -9.99845e-07)
(-1.13217e-07 -2.43692e-07 -7.74203e-07)
(8.64683e-10 -2.28653e-08 -5.26265e-07)
(1.06293e-07 1.94888e-07 -5.62221e-07)
(-6.64946e-08 -1.34149e-07 -4.29647e-07)
(-3.03998e-09 -7.44417e-09 -2.85417e-07)
(5.22707e-08 1.11619e-07 -3.10336e-07)