/*--------------------------------*- C++ -*----------------------------------*\
| =========                 |                                                 |
| \\      /  F ield         | OpenFOAM: The Open Source CFD Toolbox           |
|  \\    /   O peration     | Version:  2306                                  |
|   \\  /    A nd           | Website:  www.openfoam.com                      |
|    \\/     M anipulation  |                                                 |
\*---------------------------------------------------------------------------*/
FoamFile
{
    version     2.0;
    format      ascii;
    arch        "LSB;label=32;scalar=64";
    class       volVectorField;
    location    "1.5";
    object      flux;
}
// * * * * * * * * * * * * * * * * * * * * * * * * * * * * * * * * * * * * * //

dimensions      [0 1 -1 1 0 0 0];

internalField   nonuniform List<vector> 
5322
(
(-0.00100624 0.00259952 -0.00348695)
(2.29286e-05 0.000244329 -0.003559)
(2.79538e-05 -1.75431e-05 -0.00367296)
(3.17221e-06 -0.00010888 -0.00398161)
(-5.42476e-07 -6.02116e-05 -0.00394888)
(-7.03596e-07 -2.12076e-05 -0.00393605)
(-5.63274e-12 -5.22289e-07 -0.0039314)
(5.11829e-07 1.94278e-05 -0.00393356)
(3.09089e-07 5.66227e-05 -0.00394407)
(-8.32966e-07 0.000103198 -0.00397575)
(-4.02765e-06 9.86722e-07 -0.00393007)
(4.38648e-05 -0.000768049 -0.00394112)
(6.75833e-05 -0.00085364 -0.00296595)
(-0.000930872 -0.00076627 -0.00408911)
(-2.4668e-05 -0.000665205 -0.00447133)
(0.00162005 0.0014396 -0.00356931)
(-0.00127303 0.0019256 -0.00421918)
(-2.00995e-05 -3.00839e-06 -0.0031587)
(-0.000971294 0.00132971 -0.00444736)
(0.000626126 -0.0015765 -0.00448812)
(-0.000851291 0.00149942 -0.00451671)
(0.000740472 -0.00152338 -0.00449671)
(-0.000783219 0.00149446 -0.00449926)
(0.000787545 -0.00152968 -0.00452343)
(-0.000797748 0.00152449 -0.00452364)
(0.000766381 -0.00149574 -0.00449923)
(-0.000768057 0.00149443 -0.00450139)
(0.000796864 -0.00152589 -0.00452301)
(-0.000785016 0.0015218 -0.00452535)
(0.000785327 -0.00150349 -0.00450366)
(-0.000745228 0.00151303 -0.00450359)
(0.000846734 -0.00151339 -0.00451292)
(-0.000636109 0.00156295 -0.00448274)
(0.00096963 -0.001343 -0.00441203)
(1.38745e-05 0.00128848 -0.00419568)
(0.00121708 -0.000644249 -0.00344501)
(0.000858064 0.00126574 -0.00391873)
(-0.000342188 0.00158879 -0.00399359)
(0.000961796 0.000793583 -0.00412233)
(-5.5231e-05 0.000859264 -0.00290327)
(-0.000912159 0.00117258 -0.00383354)
(0.000917285 0.000979344 -0.00395628)
(-5.55274e-05 0.00101377 -0.00285122)
(-0.000975925 0.00109451 -0.00396212)
(0.000969882 0.0010435 -0.00392339)
(-3.33613e-05 0.00103325 -0.00289858)
(-0.0010373 0.00106013 -0.00401701)
(0.000905874 0.00113258 -0.00379181)
(-2.28856e-05 0.00104942 -0.00285997)
(-0.00108717 0.00100212 -0.00392752)
(-0.00107255 0.00125718 -0.00439884)
(-0.00155763 0.000608642 -0.00315625)
(-0.000486571 0.000681371 -0.0042955)
(0.00104448 -0.00224569 -0.00403526)
(-6.65831e-05 -0.000122533 -0.00378318)
(-0.00172473 -0.00129943 -0.00383647)
(-4.89913e-05 0.000683049 -0.00455127)
(0.00164834 -0.00170412 -0.003777)
(-1.97615e-05 -9.69895e-05 -0.00382271)
(-0.0016471 -0.00148107 -0.00384053)
(-7.09269e-06 0.000693559 -0.00460676)
(0.00160528 -0.00167587 -0.00382791)
(-9.26799e-06 -8.6597e-05 -0.00382428)
(-0.00161784 -0.00147007 -0.00374582)
(-5.81463e-07 0.000696352 -0.00460352)
(0.00158068 -0.00173424 -0.00395659)
(2.00681e-05 -0.000111539 -0.00380604)
(-0.00160219 -0.00142172 -0.00355756)
(6.89926e-05 0.000702835 -0.00449422)
(0.00131205 -0.00190787 -0.00420043)
(5.21121e-05 6.71558e-05 -0.00315255)
(-0.00140036 0.00167616 -0.00491244)
(0.00158669 0.000933626 -0.00467857)
(-0.0016422 0.00130431 -0.00461206)
(0.00158088 0.000974284 -0.00466104)
(-0.00160987 0.00123396 -0.00463836)
(0.00161303 0.00102966 -0.00463597)
(-0.00160965 0.00122852 -0.00461964)
(0.00183243 0.00104314 -0.00467988)
(-0.00132024 0.00144317 -0.00443111)
(0.000646895 0.000131402 -0.00421532)
(-0.000854775 0.000485366 -0.0032405)
(-0.000552756 0.000733549 -0.00335891)
(0.000959604 0.00122098 -0.00454002)
(9.97107e-05 -0.000103915 -0.00309601)
(-0.000543773 -0.000510072 -0.00411641)
(0.00063569 0.000145155 -0.00555604)
(-0.00171164 0.000285462 -0.00339425)
(-0.00064581 0.000528825 -0.00347956)
(0.00203983 6.06698e-05 -0.00312673)
(-8.76926e-05 0.000138408 -0.00395385)
(3.81729e-05 2.55598e-05 -0.0035345)
(7.04126e-05 4.02542e-06 -0.00372923)
(0.000318117 4.73526e-06 -0.00369975)
(0.00146252 0.00177639 -0.00449196)
(-0.000339986 -0.000948519 -0.00389058)
(-4.14749e-05 2.85731e-05 -0.00387677)
(-0.000167584 0.000956307 -0.00394642)
(0.000655445 2.59627e-05 -0.00565458)
(-0.00151776 -2.49924e-05 -0.00330344)
(-0.00151936 0.000130507 -0.00333117)
(0.00339465 2.55546e-05 -0.00317781)
(-0.000164757 0.00101256 -0.0039763)
(0.00112807 -0.00173192 -0.00443912)
(0.00183615 0.00154982 -0.00482906)
(-2.27801e-05 2.08932e-05 -0.00376233)
(1.11012e-05 -2.9645e-05 -0.0039914)
(1.51679e-05 -5.53191e-06 -0.00399985)
(9.19836e-06 -9.17735e-07 -0.00398518)
(4.51029e-06 1.65075e-06 -0.00398921)
(1.7949e-06 1.87833e-06 -0.00398937)
(-4.72622e-07 2.30697e-06 -0.00398695)
(-4.70004e-06 5.27305e-06 -0.0039816)
(-1.15444e-05 1.05873e-05 -0.00399476)
(1.81763e-05 -1.79816e-05 -0.00459926)
(-6.12415e-06 4.70904e-06 -0.00455451)
(-0.000534875 0.000547515 -0.00318728)
(-0.000527753 -0.00022522 -0.00345381)
(5.58754e-05 -7.73861e-05 -0.0046004)
(0.000336386 -0.000422595 -0.00380655)
(1.91093e-05 0.00051973 -0.00337409)
(0.000513183 -0.000289277 -0.00410388)
(-0.00061382 -0.000563681 -0.00404636)
(-4.59874e-05 -0.000771055 -0.00570064)
(-0.000141369 -0.000871312 -0.0042465)
(0.000951586 -3.51035e-05 -0.00558204)
(0.000782772 0.000638636 -0.00400788)
(0.000217686 -0.000481923 -0.00418499)
(0.000612025 4.51532e-05 -0.00548618)
(0.000395641 0.000526325 -0.00399092)
(0.000300861 -0.000524239 -0.00409591)
(0.000657092 2.20832e-05 -0.0055357)
(0.00033177 0.00054714 -0.00405275)
(0.000355932 -0.000561012 -0.00401963)
(0.000668533 -1.77221e-05 -0.00556101)
(0.000290451 0.000510988 -0.00411007)
(0.000560124 -0.000612966 -0.00404457)
(0.000759956 -4.88057e-05 -0.00570964)
(0.000861493 -0.000141466 -0.00424962)
(3.70113e-05 0.000938442 -0.00558242)
(-0.000631468 0.000777461 -0.00401784)
(3.48211e-05 -0.000509517 -0.00338559)
(0.000420667 0.000337838 -0.00380693)
(-0.000509615 0.000262615 -0.00340547)
(-0.000546742 -0.000537109 -0.0031932)
(7.81677e-05 5.78919e-05 -0.00460094)
(0.000225936 -0.00052627 -0.00345396)
(0.000124326 0.000412818 -0.00342969)
(-0.000427896 0.000424242 -0.0031508)
(-0.000470288 -0.000467785 -0.00317156)
(8.80043e-05 -7.07159e-06 -0.00459183)
(0.000140105 -0.000436524 -0.00343437)
(0.000168852 0.000438128 -0.0034211)
(-0.000464077 0.000472911 -0.00315259)
(-0.000440321 -0.00042485 -0.00317918)
(8.87348e-05 -1.43179e-06 -0.00459064)
(9.21128e-05 -0.000406098 -0.00344127)
(0.000267337 0.00051552 -0.00340386)
(-0.00050935 -3.36298e-05 -0.00338441)
(0.000664603 -2.54407e-05 -0.00447064)
(-0.00143264 0.00162002 -0.00356406)
(-0.00192033 -0.0012697 -0.00422471)
(0.0016551 0.00140398 -0.00491282)
(-0.00193823 -0.00149098 -0.00480208)
(-8.11555e-05 5.0375e-05 -0.00304642)
(-0.00133358 -0.000962128 -0.00444821)
(1.07404e-05 -2.06069e-05 -0.003159)
(0.00130007 -8.8001e-06 -0.00427889)
(-0.000312231 -0.000180085 -0.00292972)
(0.00154948 0.000464801 -0.00396211)
(0.000768102 -0.000930021 -0.00409407)
(0.00114537 0.000925301 -0.00380302)
(-0.0017165 -0.00155328 -0.00393814)
(0.000669803 3.54191e-06 -0.00457088)
(-0.00147901 0.0015865 -0.00375981)
(0.00098397 -0.00156737 -0.00463051)
(0.00128285 0.00163183 -0.00459813)
(-0.00156909 -0.00166775 -0.00444093)
(3.51812e-05 6.93166e-06 -0.00371143)
(-0.00133403 0.001643 -0.00443322)
(0.0011742 -0.00168339 -0.00453791)
(0.0014616 0.00174599 -0.00454727)
(-0.00155338 -0.00174081 -0.00450623)
(-9.62996e-06 6.47106e-06 -0.00377)
(-0.00130194 0.00170214 -0.00451139)
(0.00123922 -0.00171395 -0.0045259)
(0.00151394 0.00176918 -0.00453165)
(-0.00155179 -0.00176207 -0.00451701)
(-3.02562e-06 3.96079e-06 -0.00378428)
(-0.00129489 0.001721 -0.00452113)
(0.00126153 -0.00172556 -0.00452705)
(0.00153206 0.00177759 -0.00453098)
(-0.0015611 -0.00177031 -0.0045184)
(3.04328e-07 3.32961e-06 -0.00379086)
(-0.00130324 0.0017296 -0.00452416)
(0.00125989 -0.00173546 -0.00453081)
(0.00153563 0.00178731 -0.00453681)
(-0.00158433 -0.001774 -0.00451464)
(1.84521e-06 4.33047e-06 -0.00379643)
(-0.00132599 0.00173359 -0.00452382)
(0.0012399 -0.00174689 -0.00453697)
(0.00152808 0.00179989 -0.00454718)
(-0.00161975 -0.00177045 -0.00450708)
(4.19059e-06 5.71111e-06 -0.00380052)
(-0.00135487 0.00172765 -0.00452018)
(0.00120065 -0.00175266 -0.00453712)
(0.00150749 0.0018054 -0.00455258)
(-0.00164806 -0.00173475 -0.00450239)
(9.81979e-06 7.35696e-06 -0.00378998)
(-0.0013624 0.00168503 -0.00452103)
(0.00112807 -0.00173519 -0.00445909)
(0.00140826 0.00174967 -0.0044738)
(-0.00030738 -0.000948389 -0.00393755)
(0.000626182 -4.25586e-06 -0.00565775)
(-0.00150656 -6.99442e-05 -0.0033047)
(-0.00153636 2.91236e-05 -0.003293)
(0.00341553 -2.81957e-05 -0.00318878)
(-0.000117397 -1.73425e-06 -0.00449125)
(-0.000128631 1.11175e-05 -0.00447893)
(7.87813e-05 1.47408e-05 -0.00372954)
(0.000343362 6.89598e-08 -0.00370076)
(0.00145307 0.00178027 -0.00447815)
(-0.00026838 -0.000944048 -0.00392148)
(-2.66185e-05 7.99208e-06 -0.00382927)
(-0.000299201 0.00112544 -0.00397141)
(0.000596479 -0.000152907 -0.00563771)
(-0.00153503 -4.49819e-05 -0.00332234)
(-0.0015098 3.71584e-05 -0.00329238)
(0.00339597 -5.54066e-05 -0.00319464)
(-0.000198614 0.000953494 -0.00392322)
(0.00112837 -0.00175309 -0.00446448)
(-4.27433e-05 1.01795e-05 -0.00387531)
(1.86912e-05 7.81331e-06 -0.00392065)
(1.81937e-05 2.19497e-05 -0.00399292)
(1.17083e-05 1.4205e-05 -0.00398447)
(6.09797e-06 7.58922e-06 -0.00399094)
(2.65134e-06 3.418e-06 -0.00399095)
(-3.62698e-09 2.42393e-07 -0.00398792)
(-4.34293e-06 -4.67058e-06 -0.003982)
(-1.04887e-05 -1.17819e-05 -0.00399461)
(1.81384e-05 1.75324e-05 -0.00459906)
(-5.61108e-06 -6.30416e-06 -0.00455563)
(0.000425046 -0.000440756 -0.00317323)
(-0.000471785 -0.000469456 -0.00316341)
(0.000470128 -0.000469668 -0.00316095)
(-0.000427035 -0.000441777 -0.00317304)
(8.53006e-07 9.02566e-05 -0.00459008)
(0.000427493 0.000155551 -0.00342084)
(-0.000404032 9.8075e-05 -0.00344007)
(-2.27495e-06 -0.000593511 -0.0034611)
(-0.000508891 0.000311323 -0.00409488)
(2.8172e-07 -0.00062941 -0.00575242)
(-0.000427595 0.000155913 -0.00342181)
(-3.271e-07 9.0434e-05 -0.00459025)
(0.000402984 9.8259e-05 -0.00343901)
(1.58494e-05 -0.000622035 -0.00572017)
(0.000475272 0.000216613 -0.0041725)
(-3.88107e-05 0.00059515 -0.00546774)
(-0.000513856 0.000384214 -0.00398809)
(1.6824e-06 -0.000593284 -0.00346193)
(0.000508174 0.000311959 -0.00409449)
(-5.2706e-07 0.000646068 -0.00546895)
(-9.01388e-08 0.00090208 -0.00291976)
(0.000900139 0.000952834 -0.00392257)
(-0.00154724 -0.00156073 -0.00376212)
(0.00154537 -0.00155718 -0.00375776)
(-0.0015285 -0.00167592 -0.00393933)
(0.00160908 0.00121584 -0.00459475)
(-0.00164632 -0.00150843 -0.0044417)
(0.00172179 0.00138441 -0.00454453)
(-0.00171673 -0.00148242 -0.00450633)
(0.00174426 0.00143399 -0.00453035)
(-0.00173718 -0.00147698 -0.00451654)
(0.00175253 0.001452 -0.00453064)
(-0.00174544 -0.00148426 -0.00451808)
(0.00176229 0.00145604 -0.00453741)
(-0.00174902 -0.0015062 -0.00451429)
(0.00177521 0.00145018 -0.00454943)
(-0.00174569 -0.00154236 -0.0045057)
(0.00178243 0.00143564 -0.00455768)
(-0.00171195 -0.00157708 -0.00449774)
(0.00175691 0.0014059 -0.00450183)
(-0.000941491 -0.000309479 -0.00388702)
(1.98056e-05 0.000667405 -0.00565528)
(0.000950326 -0.000212114 -0.00396156)
(2.56131e-05 -3.66468e-05 -0.00387535)
(-0.00171395 0.00121717 -0.00444869)
(0.00166617 -0.00145232 -0.00453183)
(8.63739e-06 1.41916e-05 -0.00379193)
(-0.0017314 0.00130181 -0.00453565)
(0.00170589 -0.00145675 -0.00452574)
(5.8598e-06 6.50994e-06 -0.00380225)
(-0.0017255 0.00134497 -0.00453889)
(0.00171082 -0.00143067 -0.00452602)
(3.87924e-06 3.02258e-06 -0.00379767)
(-0.00171408 0.00136455 -0.00453354)
(0.00170647 -0.00140751 -0.00452453)
(2.69088e-06 7.36414e-07 -0.00379156)
(-0.00170424 0.00136459 -0.00452988)
(0.0016978 -0.00139739 -0.00452031)
(2.80576e-06 -3.19569e-06 -0.00378455)
(-0.00169297 0.00134099 -0.00452976)
(0.00167928 -0.00140035 -0.00450878)
(4.5116e-06 -1.03487e-05 -0.00376993)
(-0.00166363 0.00127208 -0.0045442)
(0.00161988 -0.00142418 -0.00442846)
(5.13215e-06 3.33477e-05 -0.00371041)
(-0.00154723 0.00106537 -0.00463681)
(9.09521e-07 -9.83944e-05 -0.00380344)
(0.0015467 0.00106444 -0.00463161)
(-0.0016209 -0.00142649 -0.00443345)
(-7.27981e-06 3.34097e-05 -0.00371044)
(-0.00160669 0.0012222 -0.00459945)
(0.00152618 -0.00166627 -0.00393837)
(-2.86601e-06 0.000668753 -0.00456984)
(-0.000907815 0.00110577 -0.00379475)
(-5.89841e-05 0.000826434 -0.00295535)
(0.000923422 0.000773567 -0.00410286)
(-0.00160234 -0.00146999 -0.00357003)
(0.00154718 0.000964368 -0.00465158)
(-0.00162936 -0.00137218 -0.00445071)
(0.00163689 0.00121363 -0.00453587)
(-0.00166636 -0.00134473 -0.00453261)
(0.00166465 0.00128879 -0.00452771)
(-0.00167256 -0.00134112 -0.00453333)
(0.00167713 0.00131317 -0.00453395)
(-0.00167508 -0.0013521 -0.00453051)
(0.00169194 0.0013158 -0.0045433)
(-0.00167524 -0.00138078 -0.00452439)
(0.0017142 0.00130636 -0.00456278)
(-0.00166305 -0.0014152 -0.00450049)
(0.0017363 0.0012846 -0.00458729)
(-0.00160533 -0.00140227 -0.00445535)
(0.00172391 0.00122513 -0.00451317)
(-0.000927783 -0.000202035 -0.00390823)
(-0.000199175 0.000482982 -0.00557284)
(0.000403512 -0.000552731 -0.00412592)
(5.0918e-05 -1.02736e-05 -0.00373399)
(-0.00160005 0.0016794 -0.0047902)
(0.00143985 -0.00205455 -0.00486552)
(2.01902e-05 3.55381e-05 -0.00366929)
(-0.00157602 0.00184458 -0.00487396)
(0.00152312 -0.00200709 -0.00485387)
(2.90748e-06 1.79078e-05 -0.00368143)
(-0.00152769 0.00187825 -0.00486881)
(0.00152127 -0.00193529 -0.00484633)
(-1.8591e-06 6.97557e-06 -0.00367303)
(-0.00150874 0.00187866 -0.00485416)
(0.00151021 -0.00189852 -0.00484219)
(-2.63183e-06 1.7304e-06 -0.00366601)
(-0.00150323 0.0018779 -0.00484979)
(0.00150699 -0.00188732 -0.00484394)
(-7.66626e-06 -3.62919e-06 -0.0036616)
(-0.00149858 0.0018744 -0.00485093)
(0.00150913 -0.00188673 -0.00484222)
(-1.94389e-05 -7.74826e-06 -0.00365319)
(-0.00147784 0.0018429 -0.00486958)
(0.00148909 -0.00190297 -0.00480374)
(-4.48905e-05 4.24629e-05 -0.00360179)
(-0.00137554 0.0016386 -0.00491208)
(0.00125945 -0.00189458 -0.00422387)
(2.71621e-05 0.000664792 -0.00446911)
(-0.00045642 0.00154453 -0.00396069)
(0.000776827 0.00137253 -0.00418441)
(0.00127741 -0.000689139 -0.00365075)
(4.07288e-05 0.0013086 -0.00429283)
(0.000158984 -0.000310621 -0.00292141)
(-0.000233517 0.000246604 -0.0033343)
(0.000653576 0.00156796 -0.00379269)
(-0.00201602 -0.00135702 -0.00348168)
(0.00152974 0.00126612 -0.00476009)
(-0.00191834 -0.00119208 -0.00463593)
(-0.00129176 0.00190941 -0.00446616)
(-0.00159717 -0.00168112 -0.00443604)
(4.15119e-05 -1.33035e-05 -0.0037013)
(0.00105171 -0.00188137 -0.00460054)
(0.00116322 0.00160474 -0.00466737)
(-0.00167465 -0.00164161 -0.00362384)
(0.000647636 4.82447e-05 -0.00458933)
(-0.00150292 0.00172837 -0.004031)
(-0.000111696 7.71714e-05 -0.00383379)
(8.05338e-05 3.34873e-05 -0.00376848)
(-0.000608355 -0.000489118 -0.00555434)
(5.20526e-05 4.79638e-05 -0.00448182)
(-2.45597e-05 -3.92727e-05 -0.00424911)
(-0.000645429 2.56659e-05 -0.00570272)
(6.58331e-05 -9.37166e-06 -0.00408814)
(-0.000104233 -3.35318e-06 -0.00381118)
(-0.00152487 0.00158016 -0.00389225)
(-0.00165381 -0.00158325 -0.00378275)
(0.00119324 0.00158443 -0.00463652)
(-0.00154739 -0.00164719 -0.00442838)
(1.98693e-05 2.65314e-07 -0.00375023)
(0.00141188 0.00169948 -0.00454743)
(-0.00153916 -0.00171052 -0.00450874)
(0.00148655 0.00173028 -0.00453217)
(-0.00154077 -0.00173001 -0.00452046)
(1.08862e-05 1.19725e-06 -0.00372987)
(0.00151442 0.00174347 -0.00453358)
(-0.00155266 -0.00173722 -0.00452215)
(0.00151996 0.00175634 -0.00454041)
(-0.00157775 -0.00173843 -0.00451806)
(5.89708e-05 1.41198e-06 -0.00372241)
(0.0015097 0.00177101 -0.00455113)
(-0.00160747 -0.00172898 -0.00450852)
(0.00147988 0.00177642 -0.00455418)
(-0.0016128 -0.00168593 -0.00450538)
(0.000333142 -2.73432e-06 -0.00370476)
(7.78746e-05 2.29943e-06 -0.00373354)
(4.9934e-05 3.8015e-06 -0.00373737)
(5.25421e-05 1.27066e-05 -0.00373773)
(2.52612e-05 7.14078e-06 -0.00374317)
(6.19586e-05 4.62679e-06 -0.00372929)
(0.00156047 0.00178697 -0.00456577)
(-0.00164949 -0.00172643 -0.00450888)
(1.2866e-05 9.13963e-06 -0.00379493)
(-0.0013379 0.0020417 -0.00454774)
(0.00110249 -0.00201721 -0.0045034)
(0.00153702 0.00180704 -0.00457854)
(-0.00161873 -0.00166888 -0.00448158)
(2.9084e-05 1.75336e-05 -0.00377719)
(-0.00142123 0.00202714 -0.00456671)
(0.000988233 -0.00192699 -0.00438572)
(0.00197507 0.00122812 -0.00488316)
(-0.000232401 -0.000854585 -0.00374975)
(3.73496e-05 -0.00136539 -0.0055269)
(-0.00164739 -9.27853e-05 -0.00335885)
(-0.00152025 -2.09959e-05 -0.00321382)
(0.00321421 -0.000493543 -0.00326788)
(-0.000199514 -0.000126807 -0.00432369)
(5.34748e-05 3.82273e-05 -0.0035091)
(9.00029e-05 0.000908029 -0.00312377)
(-0.000980521 0.00118509 -0.00456449)
(0.000224369 9.45115e-05 -0.00305695)
(0.000770744 -0.00193036 -0.00439417)
(-0.000797671 0.00146642 -0.00455611)
(6.55908e-05 1.45785e-05 -0.00305184)
(0.000827088 -0.00163665 -0.00448622)
(-0.000750194 0.00149573 -0.0045288)
(1.04385e-05 -3.25595e-06 -0.00304371)
(0.000804984 -0.00153957 -0.00452018)
(-0.000769655 0.00151473 -0.00452903)
(-1.37786e-06 6.7291e-07 -0.0030412)
(0.000769666 -0.00148679 -0.00450554)
(-0.000746902 0.00150917 -0.00449956)
(-1.9885e-05 -1.06433e-05 -0.00304249)
(0.000800988 -0.00148537 -0.00452203)
(-0.000722311 0.0015677 -0.00449818)
(-4.89747e-05 -2.68386e-05 -0.00304733)
(0.000844599 -0.00141634 -0.00451163)
(-0.000568265 0.00160063 -0.00446436)
(-8.19565e-05 -0.000100644 -0.00304456)
(0.000998407 -0.00126348 -0.004471)
(0.000379119 0.000410103 -0.00342612)
(0.000280381 0.000616603 -0.00330329)
(-7.37206e-05 -0.00076042 -0.00411529)
(-3.83758e-05 6.4041e-06 -0.00359304)
(0.000393086 0.00124221 -0.00400438)
(-0.000172834 -0.00105735 -0.00415286)
(0.00177061 0.00124096 -0.00463046)
(-0.00189188 -0.00121333 -0.00467906)
(0.00184895 0.00123214 -0.00463725)
(-0.00188817 -0.00121928 -0.00466491)
(-0.00122243 0.0019839 -0.00452378)
(-0.00158513 -0.00173894 -0.00453298)
(-3.65268e-06 -4.09019e-06 -0.00377663)
(0.00120982 -0.0019885 -0.00453986)
(0.00152648 0.00173286 -0.00453712)
(-0.00158371 -0.00172761 -0.00452634)
(-8.68744e-06 -1.03683e-05 -0.00376484)
(-0.00122712 0.00196578 -0.0045128)
(1.03445e-05 -7.84694e-08 -0.00374273)
(9.20049e-07 -4.41784e-06 -0.00354118)
(1.33817e-05 -2.88658e-06 -0.00355292)
(-1.27878e-06 -0.000113947 -0.00315873)
(2.63034e-05 2.57468e-05 -0.00368304)
(0.000101576 0.000159037 -0.00357511)
(9.39988e-05 0.000172773 -0.00342965)
(0.000170713 7.0367e-05 -0.00399822)
(-4.9991e-05 3.01412e-05 -0.00396919)
(2.6945e-05 9.95202e-05 -0.00392785)
(0.000711011 7.04913e-05 -0.00396416)
(0.00112978 -9.07303e-05 -0.00307834)
(0.000942271 0.00146907 -0.00501618)
(0.000318501 0.000470967 -0.0027782)
(0.00143261 0.000102426 -0.00372948)
(0.000570248 0.000351588 -0.00395969)
(0.000267411 7.50567e-05 -0.00386985)
(7.97845e-05 2.25469e-05 -0.00388639)
(5.09848e-05 1.57308e-05 -0.0039989)
(-2.32108e-05 5.27805e-06 -0.00393865)
(-1.48759e-05 2.9853e-06 -0.00392733)
(1.46109e-05 4.134e-06 -0.00400551)
(2.40343e-05 4.00646e-06 -0.00388675)
(-0.000224857 -0.00111568 -0.00414982)
(-3.43219e-06 1.19917e-06 -0.00364808)
(0.000259256 0.00113878 -0.00410677)
(-0.000239361 -0.00112585 -0.00412108)
(0.00187273 0.00122927 -0.00465694)
(-0.00189725 -0.00122286 -0.00465255)
(0.00188444 0.00124168 -0.00467042)
(-0.00193493 -0.00122548 -0.00464066)
(-0.00126916 0.00201495 -0.00453515)
(-0.00162513 -0.00174161 -0.0045267)
(4.56759e-06 3.27389e-06 -0.00378987)
(0.00120072 -0.00199932 -0.00453745)
(0.00156632 0.0017638 -0.00454923)
(-0.0015984 -0.00174288 -0.00453216)
(6.36583e-07 -2.02596e-07 -0.00378306)
(-0.00123514 0.00199613 -0.00452987)
(1.79446e-05 3.92088e-06 -0.00373507)
(7.96591e-06 4.01573e-06 -0.0035424)
(2.02056e-06 -4.64565e-07 -0.00354071)
(1.38481e-06 -1.14972e-05 -0.00314539)
(3.44296e-06 -5.65142e-06 -0.00367204)
(6.15973e-06 1.72546e-05 -0.00363196)
(9.75372e-06 1.25092e-05 -0.0034771)
(7.84308e-06 2.18617e-06 -0.00367084)
(2.10023e-05 5.37414e-05 -0.00354993)
(3.19728e-05 3.85425e-05 -0.00340842)
(0.000304868 0.00116334 -0.004095)
(-5.29822e-06 5.65489e-06 -0.00364371)
(-1.98388e-06 -5.35212e-05 -0.00314824)
(-9.77506e-06 -4.56964e-06 -0.00397156)
(1.69984e-06 -7.79376e-05 -0.00398944)
(4.07741e-06 9.99337e-06 -0.00394463)
(-4.0233e-05 0.000772886 -0.00394369)
(9.34268e-05 0.0014759 -0.00372117)
(-0.00107691 0.00271299 -0.00361224)
(-2.67976e-06 0.00028433 -0.00358681)
(1.48148e-05 -4.12292e-05 -0.00315099)
(7.2018e-07 -1.91463e-05 -0.00392731)
(-1.45737e-05 -7.35824e-05 -0.00387613)
(0.00164658 -0.00149888 -0.0044392)
(-2.65079e-07 6.53627e-06 -0.00374456)
(-0.00172106 0.00139482 -0.00454811)
(0.00166345 0.00126948 -0.0045401)
(-0.00167942 -0.00140107 -0.00451247)
(-5.90299e-06 -1.02668e-05 -0.00377057)
(0.00171924 -0.00147696 -0.00450502)
(3.92377e-08 1.09091e-05 -0.0037275)
(-0.00174401 0.00144295 -0.00453239)
(0.0016942 0.00133878 -0.00452777)
(-0.00169661 -0.00139669 -0.00452163)
(-2.44977e-06 -3.04632e-06 -0.00378556)
(0.00174137 -0.00147692 -0.0045176)
(1.01739e-06 9.44688e-06 -0.00372208)
(-0.00175166 0.00145607 -0.004531)
(0.00170754 0.00136453 -0.00453123)
(-0.00170318 -0.00140625 -0.0045224)
(1.28521e-07 9.82219e-07 -0.00379305)
(0.00175192 -0.00148996 -0.004522)
(1.92001e-06 2.52005e-05 -0.00371887)
(-0.0017607 0.00145242 -0.00453531)
(0.00172029 0.00136881 -0.00453957)
(-0.00170441 -0.00143034 -0.00451783)
(2.59226e-06 3.52272e-06 -0.0037997)
(0.00175892 -0.00151977 -0.00452287)
(1.60266e-06 7.09103e-05 -0.00371401)
(-0.0017723 0.00142957 -0.0045403)
(0.00173514 0.00135928 -0.00455345)
(-0.00169511 -0.00146244 -0.00450548)
(6.21191e-06 7.35981e-06 -0.00380421)
(0.00175724 -0.00156146 -0.00452304)
(-3.34412e-06 0.000172707 -0.00370596)
(-0.00177524 0.00137622 -0.00453163)
(0.00174218 0.00133798 -0.00456268)
(-0.00165323 -0.00147849 -0.00449527)
(9.85262e-06 1.5509e-05 -0.00379065)
(0.00171312 -0.0015769 -0.00452745)
(-1.50877e-05 0.000385382 -0.00368682)
(-0.00174248 0.00128821 -0.00444735)
(0.00171785 0.00128812 -0.00449006)
(-0.00094288 -0.000247915 -0.00393116)
(-1.14008e-06 -3.56145e-05 -0.0038684)
(0.000936273 -0.000287097 -0.0039318)
(-5.74408e-05 0.00339184 -0.00320845)
(-0.000119534 -0.00151539 -0.00330509)
(-0.000125547 -0.00154733 -0.00317614)
(-0.000131156 0.00250594 -0.00300899)
(-0.00164292 0.000651518 -0.00431115)
(0.00040982 0.000270511 -0.00307089)
(0.000364588 -0.00233872 -0.00414485)
(-0.000139844 -0.000482181 -0.00340777)
(-0.000288233 -0.000282205 -0.00326532)
(-0.000143637 0.00120142 -0.0042662)
(-0.00187532 -0.0012542 -0.00437405)
(0.00039511 -2.18795e-05 -0.00367758)
(-0.00048014 2.62225e-05 -0.00387867)
(-0.000804384 -0.000157164 -0.00387853)
(-0.00029454 -0.000189019 -0.00390837)
(-0.000230821 -1.94383e-05 -0.00398752)
(-0.000241717 5.01699e-05 -0.00391036)
(-0.000103025 2.90733e-05 -0.0039177)
(-4.60896e-05 1.17832e-05 -0.0040119)
(7.68353e-06 -1.54273e-05 -0.00389993)
(-2.01802e-06 6.92048e-06 -0.00400953)
(-3.7441e-05 1.11435e-05 -0.0039226)
(-4.67027e-05 3.29177e-06 -0.0038944)
(-2.74296e-05 3.80865e-07 -0.00390364)
(-5.29975e-05 -2.97847e-06 -0.00391873)
(-0.00010497 -1.02707e-05 -0.00395179)
(1.84889e-05 -1.97408e-05 -0.00390385)
(0.000834991 -6.84701e-05 -0.00390711)
(0.000979067 -3.66858e-05 -0.00297277)
(0.000960146 0.000955347 -0.00406034)
(0.00110625 -0.000955745 -0.00359381)
(0.0013681 1.15002e-05 -0.0037376)
(0.00130251 6.16479e-06 -0.00375508)
(0.00101875 -0.000970768 -0.00382733)
(0.00102546 0.000956502 -0.00395475)
(0.000669058 -2.26149e-06 -0.0045815)
(-0.000594981 3.97634e-06 -0.00345393)
(0.000192062 -4.32421e-06 -0.00425575)
(-6.98121e-05 -7.24517e-05 -0.00420224)
(-4.88934e-05 -4.59125e-05 -0.00424753)
(0.000174325 0.000173449 -0.00431024)
(-0.000518728 1.8804e-05 -0.00337675)
(-1.41299e-06 0.000199601 -0.00424209)
(-8.15958e-07 -7.07919e-05 -0.00425731)
(-1.67655e-06 -8.68053e-05 -0.00423709)
(1.31499e-07 9.90318e-08 -0.00458584)
(-0.000327685 0.000319721 -0.00309892)
(-0.000373322 -0.000371641 -0.0031193)
(-0.000369979 0.000373132 -0.00311379)
(-0.000331696 -0.000318528 -0.00310884)
(0.000328824 -0.000322454 -0.00309885)
(-0.000279137 -0.000275655 -0.00308788)
(1.03584e-05 1.02825e-05 -0.00459285)
(0.000371683 0.000370018 -0.00310881)
(-0.000320739 0.000332992 -0.00310554)
(-0.000322045 -0.000332391 -0.00310663)
(1.02776e-05 -9.90397e-06 -0.0045931)
(0.000370319 -0.000372818 -0.00311399)
(-2.113e-08 -1.53456e-08 -0.00461227)
(6.06946e-08 5.86926e-08 -0.00461778)
(1.64508e-07 2.36902e-05 -0.00460819)
(1.82619e-07 6.71836e-05 -0.00408828)
(-9.78247e-06 6.01348e-05 -0.00408094)
(1.3132e-05 -0.00013331 -0.00379133)
(-6.70129e-06 2.60158e-06 -0.00373935)
(-3.68191e-06 6.70058e-07 -0.00373003)
(-4.51391e-07 3.91465e-06 -0.00373236)
(2.0523e-06 1.12489e-05 -0.00373406)
(5.09737e-06 2.73416e-05 -0.0037339)
(2.16223e-05 1.17817e-05 -0.00354142)
(1.59832e-05 9.59466e-05 -0.00314768)
(8.66416e-06 -7.55554e-05 -0.00366185)
(3.78025e-05 -8.48468e-06 -0.00362153)
(-1.06517e-05 5.44259e-05 -0.00346314)
(0.000226428 0.00119836 -0.00413184)
(-0.000323056 -0.00109363 -0.00411107)
(0.00191414 0.00126259 -0.00471336)
(-0.00197568 -0.00124418 -0.00456901)
(0.00196664 0.00127627 -0.00481328)
(-4.08771e-05 -3.06642e-05 -0.00369194)
(-0.000577707 -0.00113155 -0.00397824)
(-8.64081e-05 3.28338e-05 -0.00339318)
(0.000159154 0.00126783 -0.00417124)
(-1.70993e-05 -4.65984e-06 -0.00368307)
(-3.80954e-05 -5.5487e-05 -0.00390979)
(-1.99797e-05 1.14346e-05 -0.0039906)
(-0.000110475 7.88815e-06 -0.0038853)
(-0.00023108 1.57052e-05 -0.00387616)
(-0.000460753 1.85941e-05 -0.00388223)
(-0.00105293 -1.3373e-05 -0.00402724)
(-0.00107649 -0.000187965 -0.00397443)
(-0.00268218 0.000644228 -0.00391424)
(-0.00126581 -0.000287407 -0.0037164)
(-0.00110679 -0.00123559 -0.00355985)
(-3.76379e-05 -0.000156631 -0.00359335)
(-0.000436377 -0.000148902 -0.00373716)
(0.000343043 -0.00243483 -0.0029492)
(-0.00216781 -0.000671214 -0.00322988)
(-0.00129539 8.56039e-05 -0.00437006)
(-0.000605921 -0.000982232 -0.00395772)
(0.000981974 0.000726204 -0.0041447)
(7.91133e-05 3.33916e-05 -0.00424919)
(5.12853e-05 4.1141e-05 -0.0028142)
(-0.00102682 0.000879065 -0.00351294)
(0.00108673 0.000737422 -0.00370517)
(6.39575e-06 0.000103365 -0.00437835)
(-0.00012853 -8.24322e-05 -0.00291656)
(-0.00112811 0.000977827 -0.00365959)
(0.00109197 0.000878772 -0.00372566)
(1.9076e-06 0.00011144 -0.00439947)
(-0.00014332 -9.93451e-05 -0.00292829)
(-0.00110093 0.000887288 -0.0036136)
(0.00108835 0.00100217 -0.00376944)
(9.37471e-06 0.000103868 -0.00438313)
(-0.000234929 -0.000229046 -0.00298354)
(-0.00105045 0.000735976 -0.00357022)
(0.000775995 0.00102336 -0.00399027)
(-0.000618286 -0.000354572 -0.00545116)
(0.000506459 0.000533587 -0.00406917)
(0.000383931 -0.000465204 -0.00397068)
(0.00113345 0.000497226 -0.00499236)
(-0.000532574 -0.00196334 -0.00483934)
(-0.000308218 -0.00106636 -0.0039411)
(0.000168434 0.000192795 -0.00298204)
(0.000682367 -0.000484574 -0.0042957)
(-0.00223234 0.00105566 -0.00403833)
(-0.000124302 -6.36475e-05 -0.00378128)
(-0.00130707 -0.0017305 -0.00382848)
(0.00113892 0.000913089 -0.00379939)
(0.00104919 -1.82361e-05 -0.00286126)
(0.0010013 -0.00108437 -0.0039206)
(0.00125705 -0.00107195 -0.00440081)
(0.000607869 -0.00155844 -0.00315533)
(0.000138057 0.000655699 -0.00421811)
(0.000485681 -0.000857027 -0.00324232)
(0.000734455 -0.000548804 -0.00336189)
(0.00121361 0.000953416 -0.00454158)
(-0.000565262 -0.00197757 -0.00430833)
(0.000116594 -0.00022191 -0.00348758)
(0.00090024 0.00139086 -0.0045701)
(-0.000774923 -0.00171203 -0.0044365)
(8.73306e-07 -4.39568e-05 -0.0035803)
(0.000787611 0.00148985 -0.00454099)
(-0.00079842 -0.00156749 -0.00449069)
(-1.00249e-05 3.35977e-06 -0.00358944)
(0.000764008 0.00150141 -0.00452543)
(-0.000780471 -0.00151074 -0.00450478)
(-5.87098e-06 7.70515e-06 -0.00359492)
(0.000759151 0.00149438 -0.00451568)
(-0.000772114 -0.0014954 -0.00450877)
(-5.14767e-06 8.44744e-06 -0.00359178)
(0.000756629 0.0014932 -0.00451326)
(-0.000776957 -0.00149164 -0.00450838)
(-1.08708e-05 2.29771e-05 -0.00359816)
(0.000731006 0.0015009 -0.00450486)
(-0.000820135 -0.00148196 -0.00451042)
(-6.4686e-05 9.18174e-05 -0.00353773)
(0.000620619 0.00154807 -0.0044899)
(-0.000949654 -0.00132777 -0.00444537)
(-0.000353688 0.000373591 -0.00344882)
(-1.53211e-05 0.0012879 -0.0042807)
(-0.00127919 -0.000719147 -0.00363209)
(-0.000792019 0.00136647 -0.00417918)
(0.000462089 0.00154334 -0.003956)
(-0.00126033 -0.00191382 -0.00422244)
(0.0013944 0.00163325 -0.00491364)
(-0.00147997 -0.00192092 -0.0048009)
(4.15471e-05 4.41839e-05 -0.00360179)
(-0.00155087 0.000961255 -0.00466034)
(0.00159981 -0.00147069 -0.00356265)
(-2.43105e-05 0.00066406 -0.00447107)
(-0.00092248 0.000769846 -0.00410118)
(5.89079e-05 0.000833412 -0.00295596)
(0.000909181 0.00110567 -0.00378994)
(-0.000899399 0.00095093 -0.00392523)
(3.18435e-06 0.00066827 -0.0045709)
(5.30946e-06 0.00128749 -0.00374335)
(1.55956e-06 0.000766718 -0.00393216)
(1.2531e-06 -6.40586e-06 -0.00393734)
(1.93362e-06 -0.000111726 -0.00397861)
(1.79268e-06 -6.26495e-05 -0.00394363)
(6.03172e-07 -3.93053e-05 -0.00395379)
(1.32428e-06 -2.37805e-05 -0.00394082)
(3.49783e-06 -4.63009e-05 -0.00393294)
(5.06828e-06 -2.44611e-05 -0.00367102)
(1.53355e-05 6.85046e-06 -0.00356293)
(2.23516e-06 2.46608e-05 -0.00341955)
(0.00024577 0.0011441 -0.00414468)
(-0.000258439 -0.00110891 -0.00414805)
(-7.4356e-06 2.1104e-08 -0.00366126)
(-1.83191e-06 1.93198e-06 -0.00365074)
(1.05444e-05 4.14141e-07 -0.00389175)
(1.18563e-06 1.14997e-07 -0.00395752)
(0.00120993 -0.00199151 -0.00453507)