/*--------------------------------*- C++ -*----------------------------------*\
| =========                 |                                                 |
| \\      /  F ield         | OpenFOAM: The Open Source CFD Toolbox           |
|  \\    /   O peration     | Version:  2306                                  |
|   \\  /    A nd           | Website:  www.openfoam.com                      |
|    \\/     M anipulation  |                                                 |
\*---------------------------------------------------------------------------*/
FoamFile
{
    version     2.0;
    format      ascii;
    arch        "LSB;label=32;scalar=64";
    class       volScalarField;
    location    "1.5";
    object      gradTz;
}
// * * * * * * * * * * * * * * * * * * * * * * * * * * * * * * * * * * * * * //

dimensions      [0 -1 0 1 0 0 0];

internalField   nonuniform List<scalar> 
5322
(
-0.871736
-0.889751
-0.918241
-0.995404
-0.987219
-0.984014
-0.98285
-0.98339
-0.986018
-0.993938
-0.982517
-0.98528
-0.741488
-1.02228
-1.11783
-0.892327
-1.0548
-0.789675
-1.11184
-1.12203
-1.12918
-1.12418
-1.12482
-1.13086
-1.13091
-1.12481
-1.12535
-1.13075
-1.13134
-1.12591
-1.1259
-1.12823
-1.12069
-1.10301
-1.04892
-0.861252
-0.979682
-0.998398
-1.03058
-0.725817
-0.958385
-0.989071
-0.712804
-0.990531
-0.980848
-0.724644
-1.00425
-0.947953
-0.714993
-0.981881
-1.09971
-0.789063
-1.07388
-1.00881
-0.945794
-0.959118
-1.13782
-0.944251
-0.955679
-0.960132
-1.15169
-0.956977
-0.956071
-0.936455
-1.15088
-0.989147
-0.951511
-0.88939
-1.12355
-1.05011
-0.788137
-1.22811
-1.16964
-1.15301
-1.16526
-1.15959
-1.15899
-1.15491
-1.16997
-1.10778
-1.05383
-0.810124
-0.839727
-1.135
-0.774003
-1.0291
-1.38901
-0.848561
-0.86989
-0.781681
-0.988464
-0.883624
-0.932308
-0.924939
-1.12299
-0.972645
-0.969194
-0.986604
-1.41365
-0.82586
-0.832792
-0.794452
-0.994075
-1.10978
-1.20726
-0.940581
-0.997849
-0.999962
-0.996295
-0.997304
-0.997342
-0.996738
-0.995401
-0.998689
-1.14982
-1.13863
-0.79682
-0.863452
-1.1501
-0.951638
-0.843523
-1.02597
-1.01159
-1.42516
-1.06162
-1.39551
-1.00197
-1.04625
-1.37155
-0.997731
-1.02398
-1.38392
-1.01319
-1.00491
-1.39025
-1.02752
-1.01114
-1.42741
-1.0624
-1.39561
-1.00446
-0.846398
-0.951732
-0.851367
-0.798299
-1.15023
-0.86349
-0.857421
-0.787701
-0.792891
-1.14796
-0.858593
-0.855275
-0.788148
-0.794794
-1.14766
-0.860317
-0.850964
-0.846101
-1.11766
-0.891016
-1.05618
-1.2282
-1.20052
-0.761604
-1.11205
-0.789749
-1.06972
-0.732431
-0.990528
-1.02352
-0.950755
-0.984535
-1.14272
-0.939952
-1.15763
-1.14953
-1.11023
-0.927859
-1.10831
-1.13448
-1.13682
-1.12656
-0.9425
-1.12785
-1.13148
-1.13291
-1.12925
-0.946071
-1.13028
-1.13176
-1.13275
-1.1296
-0.947714
-1.13104
-1.1327
-1.1342
-1.12866
-0.949109
-1.13096
-1.13424
-1.13679
-1.12677
-0.950129
-1.13005
-1.13428
-1.13814
-1.1256
-0.947496
-1.13026
-1.11477
-1.11845
-0.984389
-1.41444
-0.826176
-0.82325
-0.797194
-1.12281
-1.11973
-0.932384
-0.92519
-1.11954
-0.980369
-0.957319
-0.992853
-1.40943
-0.830585
-0.823095
-0.79866
-0.980806
-1.11612
-0.968828
-0.980162
-0.998231
-0.996118
-0.997736
-0.997738
-0.996979
-0.995499
-0.998653
-1.14976
-1.13891
-0.793308
-0.790852
-0.790237
-0.793259
-1.14752
-0.855211
-0.860018
-0.865275
-1.02372
-1.43811
-0.855451
-1.14756
-0.859753
-1.43004
-1.04312
-1.36694
-0.997022
-0.865484
-1.02362
-1.36724
-0.729939
-0.980642
-0.94053
-0.939439
-0.984832
-1.14869
-1.11042
-1.13613
-1.12658
-1.13259
-1.12913
-1.13266
-1.12952
-1.13435
-1.12857
-1.13736
-1.12643
-1.13942
-1.12443
-1.12546
-0.971756
-1.41382
-0.99039
-0.968837
-1.11217
-1.13296
-0.947984
-1.13391
-1.13143
-0.950563
-1.13472
-1.1315
-0.949417
-1.13339
-1.13113
-0.947889
-1.13247
-1.13008
-0.946138
-1.13244
-1.12719
-0.942483
-1.13605
-1.10712
-0.927603
-1.1592
-0.95086
-1.1579
-1.10836
-0.92761
-1.14986
-0.984591
-1.14246
-0.948688
-0.738838
-1.02572
-0.892509
-1.16289
-1.11268
-1.13397
-1.13315
-1.13193
-1.13333
-1.13349
-1.13263
-1.13583
-1.1311
-1.1407
-1.12512
-1.14682
-1.11384
-1.12829
-0.977058
-1.39321
-1.03148
-0.933499
-1.19755
-1.21638
-0.917322
-1.21849
-1.21347
-0.920357
-1.2172
-1.21158
-0.918258
-1.21354
-1.21055
-0.916502
-1.21245
-1.21099
-0.915401
-1.21273
-1.21056
-0.913298
-1.21739
-1.20094
-0.900447
-1.22802
-1.05597
-1.11728
-0.990172
-1.0461
-0.912687
-1.07321
-0.730352
-0.833574
-0.948174
-0.870419
-1.19002
-1.15898
-1.11654
-1.10901
-0.925324
-1.15013
-1.16684
-0.905959
-1.14733
-1.00775
-0.958449
-0.942121
-1.38859
-1.12045
-1.06228
-1.42568
-1.02204
-0.952796
-0.973062
-0.945689
-1.15913
-1.10709
-0.937557
-1.13686
-1.12718
-1.13304
-1.13011
-0.932468
-1.13339
-1.13054
-1.1351
-1.12952
-0.930602
-1.13778
-1.12713
-1.13854
-1.12634
-0.92619
-0.933385
-0.934343
-0.934433
-0.935793
-0.932321
-1.14144
-1.12722
-0.948732
-1.13693
-1.12585
-1.14463
-1.1204
-0.944299
-1.14168
-1.09643
-1.22079
-0.937436
-1.38172
-0.839712
-0.803456
-0.816971
-1.08092
-0.877274
-0.780942
-1.14112
-0.764237
-1.09854
-1.13903
-0.76296
-1.12156
-1.1322
-0.760929
-1.13004
-1.13226
-0.760299
-1.12638
-1.12489
-0.760623
-1.13051
-1.12455
-0.761832
-1.12791
-1.11609
-0.761141
-1.11775
-0.856531
-0.825821
-1.02882
-0.898261
-1.0011
-1.03822
-1.15761
-1.16977
-1.15931
-1.16623
-1.13095
-1.13324
-0.944157
-1.13497
-1.13428
-1.13158
-0.94121
-1.1282
-0.935682
-0.885295
-0.888229
-0.789682
-0.920759
-0.893779
-0.857412
-0.999556
-0.992296
-0.981963
-0.991039
-0.769585
-1.25405
-0.69455
-0.932369
-0.989923
-0.967462
-0.971597
-0.999725
-0.984663
-0.981833
-1.00138
-0.971687
-1.03745
-0.912021
-1.02669
-1.03027
-1.16423
-1.16314
-1.1676
-1.16017
-1.13379
-1.13167
-0.947469
-1.13436
-1.13731
-1.13304
-0.945764
-1.13247
-0.933768
-0.885601
-0.885178
-0.786346
-0.918009
-0.907991
-0.869275
-0.917711
-0.887481
-0.852104
-1.02375
-0.910927
-0.78706
-0.99289
-0.99736
-0.986157
-0.985923
-0.930293
-0.903059
-0.896703
-0.787749
-0.981828
-0.969033
-1.1098
-0.93614
-1.13703
-1.13503
-1.12812
-0.942643
-1.12626
-0.931876
-1.1331
-1.13194
-1.13041
-0.94639
-1.1294
-0.93052
-1.13275
-1.13281
-1.1306
-0.948262
-1.1305
-0.929717
-1.13383
-1.13489
-1.12946
-0.949925
-1.13072
-0.928503
-1.13508
-1.13836
-1.12637
-0.951051
-1.13076
-0.92649
-1.13291
-1.14067
-1.12382
-0.947664
-1.13186
-0.921704
-1.11184
-1.12251
-0.982789
-0.9671
-0.982949
-0.802113
-0.826271
-0.794035
-0.752246
-1.07779
-0.767722
-1.03621
-0.851942
-0.81633
-1.06655
-1.09351
-0.919395
-0.969667
-0.969633
-0.977092
-0.99688
-0.97759
-0.979425
-1.00298
-0.974983
-1.00238
-0.980651
-0.973599
-0.975909
-0.979682
-0.987946
-0.975962
-0.976777
-0.743194
-1.01508
-0.898453
-0.934399
-0.93877
-0.956833
-0.988688
-1.14538
-0.863482
-1.06394
-1.05056
-1.06188
-1.07756
-0.844187
-1.06052
-1.06433
-1.05927
-1.14646
-0.77473
-0.779826
-0.778448
-0.77721
-0.774713
-0.771971
-1.14821
-0.777202
-0.776385
-0.776657
-1.14828
-0.778498
-1.15307
-1.15445
-1.15205
-1.02207
-1.02024
-0.947832
-0.934838
-0.932508
-0.933089
-0.933514
-0.933474
-0.885354
-0.786921
-0.915461
-0.905381
-0.865784
-1.03296
-1.02777
-1.17834
-1.14225
-1.20332
-0.922986
-0.99456
-0.848295
-1.04281
-0.920767
-0.977448
-0.99765
-0.971325
-0.96904
-0.970558
-1.00681
-0.993608
-0.97856
-0.9291
-0.889961
-0.898338
-0.934289
-0.7373
-0.807471
-1.09252
-0.98943
-1.03617
-1.0623
-0.703549
-0.878235
-0.926292
-1.09459
-0.729139
-0.914896
-0.931415
-1.09987
-0.732073
-0.903399
-0.942359
-1.09578
-0.745884
-0.892556
-0.997567
-1.36279
-1.01729
-0.992669
-1.24809
-1.20984
-0.985275
-0.74551
-1.07392
-1.00958
-0.945319
-0.957121
-0.949846
-0.715316
-0.980151
-1.1002
-0.788831
-1.05453
-0.810579
-0.840472
-1.1354
-1.07708
-0.871896
-1.14252
-1.10913
-0.895076
-1.13525
-1.12267
-0.897359
-1.13136
-1.1262
-0.89873
-1.12892
-1.12719
-0.897944
-1.12831
-1.1271
-0.89954
-1.12621
-1.1276
-0.884432
-1.12248
-1.11134
-0.862204
-1.07017
-0.908023
-1.0448
-0.988999
-1.05561
-1.22841
-1.20022
-0.900448
-1.16509
-0.890663
-1.11777
-1.0253
-0.738989
-0.947484
-0.981306
-1.14272
-0.935839
-0.983041
-0.984335
-0.994653
-0.985907
-0.988446
-0.985205
-0.983235
-0.917756
-0.890733
-0.854887
-1.03617
-1.03701
-0.915315
-0.912686
-0.972937
-0.989379
-1.13377
-1.13509
-0.934263
-1.12979
-1.13211
-0.948459
-1.13073
-1.13314
-0.950007
-1.13071
-1.13457
-0.950853
-1.12967
-1.13378
-0.9474
-1.12806
-0.993071
-1.00212
-0.982017
-0.987743
-0.97595
-0.970896
-0.972367
-0.974482
-0.976943
-0.980769
-0.98914
-0.979042
-0.979953
-0.738719
-0.981309
-0.935392
-0.984167
-0.983171
-0.994295
-0.985729
-0.982285
-0.980139
-0.978148
-0.976564
-0.979484
-1.02337
-1.01757
-0.743008
-1.32608
-0.999753
-0.959572
-0.932655
-1.09986
-0.733329
-0.735115
-0.804658
-1.14672
-0.767209
-0.778775
-0.793849
-1.15326
-0.770712
-0.782264
-0.786982
-1.14844
-0.787074
-0.80058
-0.869312
-1.44889
-1.03097
-1.00657
-1.01136
-1.00226
-0.849345
-0.818445
-0.872499
-1.44353
-0.863223
-0.864922
-1.15094
-0.958565
-0.955545
-0.935574
-0.995168
-0.712313
-0.98517
-0.985916
-0.726155
-1.00041
-0.946773
-0.955095
-0.956781
-1.16067
-1.15678
-1.16709
-1.15123
-0.956072
-0.901939
-0.981798
-1.15271
-0.965884
-0.732962
-1.02568
-0.899978
-0.731717
-1.22567
-0.676416
-0.93439
-0.818961
-1.00614
-1.01223
-0.845536
-1.03581
-1.02596
-0.869351
-1.0292
-1.03556
-0.851695
-1.03586
-1.02772
-0.872235
-1.02704
-1.03639
-0.849432
-1.03519
-1.02842
-0.870084
-1.02334
-1.0383
-0.84687
-1.01142
-1.01844
-0.827797
-0.94873
-0.692012
-1.24977
-0.899261
-0.77043
-1.42698
-1.01193
-1.06182
-1.39396
-1.00345
-1.04437
-1.36997
-0.996387
-1.0254
-1.38376
-1.01575
-1.00219
-1.38942
-0.745372
-0.95576
-1.14593
-0.942754
-0.951361
-1.15657
-0.927655
-1.10827
-1.10882
-0.936115
-1.13438
-0.913225
-1.13173
-1.21018
-0.787315
-1.21285
-0.759694
-1.20996
-0.786273
-1.21074
-0.759283
-1.21088
-0.78628
-1.21104
-0.759478
-1.21121
-0.786702
-1.21084
-0.760181
-1.21369
-0.787959
-1.21144
-0.761419
-1.21804
-0.789995
-1.20107
-0.76
-0.895445
-1.14717
-1.12038
-0.94245
-1.16548
-0.909534
-1.16505
-1.13081
-0.937374
-1.16492
-0.910264
-1.1632
-1.13206
-0.935727
-1.1632
-0.909869
-1.16369
-1.13226
-0.934851
-1.16413
-0.909703
-1.16206
-1.13283
-0.935165
-1.16318
-0.909837
-1.16283
-1.13436
-0.936374
-1.16607
-0.909414
-1.16216
-1.13926
-0.941883
-1.15174
-0.897856
-1.19601
-1.14976
-0.958545
-0.866681
-0.832792
-0.731257
-0.990502
-1.04617
-0.908192
-1.07053
-0.859855
-0.893904
-0.905662
-0.932428
-0.93649
-0.978616
-1.14318
-0.940289
-0.982466
-0.94787
-1.16302
-0.900892
-1.20001
-0.789839
-1.21711
-0.761087
-0.993675
-0.983488
-0.971077
-1.15065
-1.02037
-1.42898
-0.859999
-1.14757
-0.855702
-0.864181
-1.06273
-1.05792
-1.04969
-1.05862
-1.06513
-1.43765
-1.02142
-0.951182
-0.935978
-0.937283
-0.940023
-1.13831
-1.13987
-0.941523
-0.985935
-0.978078
-0.971938
-1.14929
-0.928086
-1.11013
-1.13507
-0.942818
-1.12708
-1.1321
-0.9466
-1.02515
-0.934833
-0.935797
-0.935401
-0.935801
-0.933373
-0.935639
-0.935242
-0.934348
-0.933833
-0.932615
-0.935018
-0.936229
-1.11066
-1.1352
-1.21668
-1.21012
-1.21214
-1.20976
-0.759986
-1.12822
-0.786778
-1.12645
-0.761315
-1.12903
-0.789616
-1.12273
-0.883261
-0.848481
-1.03538
-0.90951
-1.02603
-1.16467
-0.936296
-1.13374
-0.942902
-1.13071
-1.1321
-0.934673
-1.13079
-0.946648
-1.13048
-1.13096
-0.932826
-1.1307
-0.946616
-1.13178
-1.13184
-0.931855
-1.13258
-0.915585
-1.1338
-1.13236
-0.914562
-1.1379
-1.11176
-0.903032
-1.00179
-1.00202
-0.997028
-0.997488
-0.997421
-0.996825
-0.995482
-0.998796
-1.14983
-1.13836
-0.793908
-0.787454
-0.791845
-0.858255
-1.43671
-1.02163
-1.02231
-1.42426
-0.857768
-0.862832
-1.06476
-1.06206
-1.12099
-1.06132
-1.42979
-1.02012
-0.947769
-1.16419
-0.901248
-0.997757
-0.978677
-1.15221
-1.14618
-0.776459
-0.7739
-1.14827
-0.771332
-0.786999
-1.14784
-0.979182
-0.937231
-0.888366
-0.941978
-1.38685
-1.19806
-0.95893
-1.14807
-0.925126
-1.1178
-1.10665
-0.939897
-1.13453
-0.942296
-1.12598
-0.933964
-1.13097
-0.94533
-1.13
-1.12906
-0.931268
-1.13187
-0.915167
-1.13246
-1.13227
-0.915393
-1.1328
-0.933833
-0.93354
-0.933213
-0.932709
-0.935059
-0.978604
-1.15216
-1.14598
-0.957118
-1.00174
-0.979268
-0.997663
-0.978352
-0.957064
-1.00151
-0.935551
-0.937398
-0.933904
-0.933434
-0.934805
-0.932099
-0.982277
-0.980063
-0.978157
-0.981008
-0.978717
-0.907232
-0.888393
-0.892198
-0.899678
-0.733826
-1.01887
-0.7503
-1.35927
-0.981179
-0.958361
-0.960042
-1.11275
-0.986016
-1.03279
-0.981082
-1.3496
-0.966902
-0.957954
-0.931122
-1.09519
-0.731627
-0.745009
-0.812222
-1.14038
-0.763953
-0.790586
-0.804209
-1.14669
-0.767396
-0.791774
-0.79971
-1.1419
-0.785341
-0.80533
-1.16224
-0.997982
-0.932428
-0.925213
-1.13229
-1.20736
-0.9174
-1.21995
-0.76289
-0.914116
-1.18114
-0.934089
-1.12153
-1.14722
-0.935537
-1.09956
-1.18548
-1.13255
-1.05028
-0.83649
-0.957476
-0.889497
-1.10753
-1.17102
-1.15296
-1.11745
-0.939422
-1.10776
-0.931277
-1.11346
-0.939198
-1.10796
-0.932018
-1.11446
-0.94179
-1.10835
-1.1738
-1.14712
-0.955972
-0.847855
-1.00889
-1.15377
-0.845132
-1.0128
-1.03042
-0.990926
-0.864146
-0.863026
-0.868287
-1.43483
-0.869398
-0.958018
-1.37579
-1.03416
-0.994186
-0.844571
-0.85812
-1.15945
-0.796912
-0.796399
-1.1561
-0.983848
-1.00458
-1.0001
-0.996456
-0.997466
-0.997469
-0.996834
-0.995457
-0.998726
-1.14983
-1.13865
-0.771311
-0.77448
-1.05378
-1.04966
-1.06149
-1.36667
-1.04351
-0.845958
-0.851174
-0.951392
-0.863551
-0.84388
-1.01168
-1.42743
-1.06189
-1.38668
-1.00299
-1.39321
-1.12105
-1.07852
-1.06232
-1.42469
-0.857867
-0.85842
-1.14796
-0.789931
-0.789428
-0.858592
-0.857766
-0.862219
-1.01715
-1.40197
-1.01772
-1.43611
-1.02101
-1.02204
-0.942051
-0.790212
-0.895679
-0.902595
-0.932792
-0.985876
-0.985541
-0.997242
-0.988769
-0.985473
-0.983479
-0.981642
-0.980145
-0.976951
-0.981868
-0.980736
-1.01386
-0.747569
-0.819479
-0.824125
-1.41443
-0.958275
-0.968724
-0.998964
-1.32249
-0.740441
-0.822432
-0.82493
-0.752863
-0.83276
-0.847968
-1.38917
-0.996702
-1.02908
-0.78211
-0.869969
-0.948844
-0.89278
-0.9057
-0.982816
-1.02514
-1.02274
-0.982417
-0.980814
-1.01076
-1.00438
-0.997801
-0.994618
-0.993468
-0.97764
-0.975078
-0.974799
-0.969184
-0.982431
-0.921039
-0.919126
-0.918455
-0.917853
-0.916432
-0.912578
-1.00561
-0.989879
-0.990489
-0.986978
-0.983125
-0.980126
-0.979583
-0.977201
-0.992049
-0.991767
-1.1359
-1.21674
-1.20988
-1.21231
-1.20963
-0.914568
-1.13274
-1.13121
-0.912754
-1.03632
-0.934863
-0.936147
-1.11004
-1.02047
-1.42919
-0.997054
-0.947972
-0.978362
-0.997759
-1.15005
-0.796984
-0.78845
-1.06578
-1.0572
-1.06511
-1.05335
-0.770598
-1.14834
-1.05378
-1.06195
-0.864791
-1.07858
-1.05421
-1.04894
-1.06117
-1.06418
-1.12123
-1.06205
-1.06458
-1.06607
-1.0793
-0.795902
-0.863855
-0.951306
-1.14999
-0.85166
-0.845554
-0.997862
-0.979523
-1.15233
-1.14569
-0.957124
-0.979519
-0.937418
-0.888396
-0.789818
-0.885407
-0.787062
-0.932452
-0.932019
-0.932935
-0.930588
-1.13228
-1.13282
-1.21152
-1.20912
-1.21269
-1.20832
-0.916631
-1.1335
-1.13266
-0.915402
-1.04049
-0.885142
-0.786052
-0.885156
-0.785798
-0.933232
-0.929761
-0.935248
-0.931312
-0.935209
-0.930469
-0.934144
-0.932059
-0.883131
-0.787233
-0.929223
-1.04131
-1.04164
-1.04098
-1.03997
-1.03636
-1.0199
-1.00078
-0.999048
-1.02406
-1.00521
-1.00086
-1.02529
-1.00667
-1.00104
-0.999239
-1.02097
-1.02011
-1.00074
-1.00402
-1.00204
-1.00423
-1.00504
-1.00165
-1.02578
-1.00697
-1.00154
-1.02513
-1.0059
-0.999948
-1.02054
-1.03631
-0.930013
-1.11568
-0.740098
-1.16817
-0.995859
-0.979317
-1.14468
-0.786758
-1.15856
-1.06758
-1.03617
-0.977287
-1.34008
-0.969186
-0.962298
-0.903282
-1.07012
-1.08025
-0.850809
-0.962781
-1.07141
-1.07941
-0.988986
-0.968289
-1.33225
-0.981522
-1.03915
-1.04532
-1.04794
-1.03967
-0.977378
-1.07
-0.944628
-0.942499
-1.09595
-0.746435
-0.730712
-0.799829
-1.14218
-0.784735
-0.773637
-0.787063
-1.14892
-0.785687
-0.777128
-0.780164
-1.14385
-0.80137
-0.869551
-1.43813
-1.05852
-0.992726
-0.86675
-0.861766
-1.15603
-0.983037
-1.00435
-1.0004
-1.00142
-1.00152
-1.00083
-0.999091
-1.00167
-1.02077
-1.03627
-0.913522
-1.13143
-1.13223
-0.915278
-1.13222
-1.13234
-1.21125
-1.20911
-1.21234
-1.20821
-0.759737
-1.12702
-0.785376
-1.12944
-0.759524
-1.12819
-0.785715
-1.12881
-0.897194
-0.860224
-1.03136
-0.909948
-1.03109
-1.1623
-0.934335
-1.13109
-0.943854
-1.13367
-1.13262
-0.934606
-1.12901
-0.946371
-1.13275
-0.93496
-1.12844
-0.944018
-1.138
-1.13898
-0.938247
-1.11393
-0.931445
-1.10989
-1.11226
-0.939596
-1.13748
-1.13832
-1.10879
-0.930991
-0.98223
-0.937816
-0.935241
-0.935494
-0.935387
-0.935112
-0.934677
-0.885296
-0.884967
-0.933053
-0.930624
-0.933285
-0.929694
-1.13236
-1.13299
-0.917167
-1.13234
-1.13461
-1.21533
-1.20743
-1.21925
-1.20761
-0.762825
-1.10983
-0.785891
-1.1357
-0.760765
-1.12339
-0.785494
-1.13193
-0.896657
-0.859055
-1.02777
-0.912334
-1.03569
-1.1526
-0.934211
-1.12162
-0.940309
-1.14656
-1.13298
-0.939548
-1.11659
-0.924254
-1.1001
-1.18507
-0.935768
-1.13229
-1.04939
-0.956793
-0.88891
-0.956765
-0.988703
-0.83562
-0.871214
-1.14276
-1.07766
-0.783267
-0.903254
-0.909941
-0.913867
-0.915391
-0.916087
-0.916824
-0.918785
-0.893836
-0.903923
-1.04627
-0.908208
-0.691863
-0.833085
-0.948467
-0.865625
-1.25067
-0.768813
-0.896297
-1.14798
-1.00717
-0.904005
-0.953095
-1.14823
-0.927907
-1.10539
-0.937345
-1.13391
-0.942115
-1.12766
-1.12565
-0.932332
-1.13184
-0.914838
-1.13224
-0.993553
-0.978804
-1.13301
-0.976908
-1.13751
-0.98861
-0.987591
-0.974622
-0.977322
-0.937094
-1.01566
-0.990689
-0.933705
-0.988867
-0.829097
-1.01605
-0.898214
-1.14999
-0.941882
-1.13825
-0.940502
-1.12882
-1.1298
-0.935985
-1.13151
-0.94559
-1.12956
-0.932998
-1.13082
-0.94635
-1.13094
-1.1306
-0.931172
-1.1311
-0.980212
-0.979908
-1.1317
-0.97826
-0.977242
-0.980334
-0.98481
-1.13968
-0.978423
-1.16866
-0.981437
-0.967888
-1.01252
-0.999292
-0.992184
-0.971228
-1.16383
-1.00033
-0.861969
-1.03126
-0.909948
-1.16302
-0.934801
-1.13218
-0.943556
-1.13189
-1.1327
-0.934341
-1.13018
-0.946936
-1.13174
-0.933404
-1.13025
-0.946265
-1.13309
-1.1337
-0.933588
-1.12839
-0.934112
-1.02508
-1.02538
-1.00683
-1.00181
-1.00111
-0.99934
-1.00192
-1.00077
-1.01985
-1.02395
-1.03976
-0.934948
-0.935446
-0.935754
-1.04085
-1.02559
-1.02513
-1.00659
-1.00516
-1.0252
-1.0211
-0.942667
-1.13661
-0.93713
-1.1357
-1.12695
-0.934088
-1.13219
-1.13274
-1.12642
-1.12664
-0.936104
-1.13223
-1.1345
-1.12998
-1.13923
-0.93983
-1.1355
-1.10955
-1.10619
-1.10713
-1.10864
-0.939757
-1.13817
-1.1362
-0.942664
-1.12614
-0.936066
-1.13389
-1.13264
-0.945997
-1.12927
-0.93489
-1.13323
-1.13171
-1.13161
-1.13209
-0.933181
-1.13008
-1.12975
-0.945989
-1.12956
-0.934895
-1.13136
-1.13385
-1.13222
-0.943539
-1.13393
-1.16326
-0.936101
-1.12895
-0.941095
-1.13841
-1.16441
-0.941573
-1.11773
-1.1071
-1.16761
-0.952873
-1.14925
-0.928429
-1.15905
-0.951505
-1.1576
-0.928388
-1.1506
-0.952797
-1.16619
-1.10799
-1.11668
-0.925592
-0.979564
-0.97154
-0.976753
-0.747987
-1.01208
-0.962068
-0.98544
-0.987109
-0.743989
-0.974022
-0.940715
-0.960387
-1.01326
-0.747845
-1.3951
-1.02736
-1.00099
-0.862468
-1.14609
-0.972599
-0.942981
-0.944625
-0.970912
-0.906714
-1.00525
-1.14791
-0.84338
-1.02723
-1.39468
-1.00163
-1.42446
-1.02211
-0.937475
-0.936253
-0.934683
-0.935612
-1.02627
-0.947054
-1.13099
-0.932982
-1.13116
-1.1319
-1.13063
-1.1341
-0.93453
-1.131
-1.13277
-0.944265
-1.13237
-1.16363
-0.934668
-1.13098
-1.16322
-0.910568
-1.03199
-1.03168
-0.861341
-1.03215
-1.03208
-0.861796
-1.03168
-1.03357
-0.860142
-1.02874
-1.03665
-0.856755
-1.01041
-0.970194
-0.998287
-0.971603
-1.00082
-0.971697
-1.00093
-0.971377
-1.0009
-0.971098
-1.00101
-0.862659
-1.02728
-1.16461
-0.910075
-1.03557
-1.01345
-0.849767
-0.999722
-0.971547
-0.967939
-1.01643
-0.898825
-1.19825
-0.958461
-1.1483
-0.925687
-0.979517
-0.980114
-0.990926
-0.769559
-0.897956
-1.25018
-0.692003
-0.949335
-0.829273
-0.988555
-0.933784
-0.833463
-0.865909
-1.00658
-0.905532
-1.14793
-0.937162
-0.976468
-0.97162
-0.984382
-0.99079
-0.983984
-0.981344
-0.980502
-0.934232
-1.13132
-1.16492
-1.16265
-1.13223
-0.987904
-0.987078
-0.986348
-0.980645
-0.977502
-0.974447
-0.973373
-0.988559
-0.944611
-1.13258
-0.934793
-1.12923
-1.13505
-1.12886
-1.16922
-0.934179
-1.13411
-1.16075
-0.911471
-0.759741
-0.995341
-0.982265
-0.985721
-0.999649
-1.13502
-1.21583
-1.20749
-0.786411
-0.884468
-0.885104
-0.785946
-0.933257
-0.928963
-1.13291
-0.932582
-0.928186
-1.13237
-0.918211
-1.04064
-0.935869
-0.935569
-1.0371
-1.02116
-1.02509
-1.006
-1.00689
-1.02655
-1.00172
-1.00479
-1.00166
-1.00181
-1.02637
-1.02534
-1.02421
-1.00513
-1.0248
-1.03966
-1.04033
-0.916051
-0.994843
-0.993929
-0.979772
-0.981681
-0.987416
-0.978614
-0.977294
-0.971073
-0.983657
-0.931986
-0.99366
-0.984323
-0.982035
-0.9845
-0.987071
-0.992554
-0.990198
-0.987671
-1.00105
-0.996926
-1.13138
-1.13564
-0.917775
-1.13071
-1.00679
-0.99152
-0.986386
-0.991347
-0.89183
-0.950191
-1.21058
-1.24749
-0.745424
-0.997257
-1.36307
-1.017
-0.849582
-1.00208
-1.01317
-0.866135
-0.86862
-1.45092
-1.03703
-1.00476
-1.2778
-1.10239
-1.10382
-1.04456
-1.06687
-0.790181
-1.16053
-0.980843
-1.00261
-1.00004
-1.0261
-1.02682
-1.02572
-0.935516
-0.933235
-0.928755
-0.932498
-0.927903
-0.88419
-0.884833
-0.884922
-1.16434
-1.16034
-0.934247
-1.12868
-0.943509
-1.13763
-1.13167
-0.935714
-1.12596
-0.943682
-1.12939
-0.935421
-0.935592
-1.0261
-1.04063
-1.04038
-0.918677
-1.02515
-1.00591
-1.00681
-1.00653
-1.02583
-0.935063
-0.934198
-0.935849
-1.13759
-0.977929
-1.12667
-0.972039
-1.10993
-1.16034
-0.940461
-0.973552
-0.988485
-0.737121
-0.978847
-0.977842
-0.980222
-0.985446
-1.13459
-0.985164
-0.970671
-1.03073
-1.00017
-0.982463
-0.970878
-1.16308
-1.00015
-0.860769
-1.03076
-0.91067
-1.03255
-0.971141
-1.00001
-0.98193
-0.981619
-0.986197
-1.13376
-0.981551
-1.13211
-0.976223
-0.986805
-1.13388
-0.981935
-1.13163
-0.976903
-0.987297
-1.13466
-0.971075
-1.16861
-0.997538
-0.85571
-1.0095
-0.913409
-1.18059
-0.969802
-0.983593
-0.989008
-0.976151
-0.951425
-0.893134
-0.938179
-0.920904
-0.978395
-0.987342
-1.13496
-0.979689
-0.987287
-0.976334
-0.960938
-0.939753
-0.97495
-0.979916
-0.981362
-1.13341
-1.13131
-0.978608
-0.977454
-0.982065
-0.990329
-0.980209
-0.967369
-0.939818
-0.974475
-0.978874
-0.979794
-1.13043
-0.994203
-0.993887
-0.993638
-0.916067
-0.916726
-0.918511
-0.880665
-0.908286
-0.916425
-0.916673
-0.917644
-0.994618
-0.984327
-0.98378
-0.980362
-0.933016
-0.726619
-0.813111
-0.918998
-0.976335
-0.990286
-0.985383
-0.978076
-0.974552
-0.97324
-0.974006
-0.976983
-0.98398
-0.982609
-0.97163
-0.97427
-0.9743
-0.94057
-1.14609
-0.936739
-0.991319
-0.979828
-0.990391
-0.986765
-0.941127
-1.12841
-1.13058
-0.935036
-1.0211
-1.00075
-0.957187
-1.01999
-1.03643
-0.888643
-0.942169
-1.38697
-1.22886
-0.760989
-0.885644
-1.03989
-1.0252
-1.00512
-1.02404
-1.02506
-1.00652
-1.02626
-0.93554
-0.935879
-0.936032
-0.936149
-1.02604
-0.946812
-1.13171
-0.93351
-1.13024
-1.13441
-0.935011
-1.1275
-1.13013
-1.13216
-1.13431
-0.935795
-1.12572
-1.13551
-1.1314
-0.944289
-1.13817
-1.153
-0.913188
-0.760826
-0.989031
-0.980805
-0.982434
-0.987662
-0.989138
-0.956819
-0.951299
-0.893172
-0.974837
-0.938217
-0.92057
-0.979345
-0.988889
-0.976744
-0.97403
-0.984307
-0.984939
-1.13232
-1.13159
-1.13262
-1.1317
-0.935453
-1.13281
-1.13085
-0.946952
-1.13306
-0.937294
-1.13108
-1.12921
-0.944545
-1.13711
-1.14191
-1.13919
-0.942599
-1.03849
-1.02327
-1.00067
-1.00312
-1.00137
-1.00252
-0.933246
-0.926277
-1.12184
-0.798756
-0.733716
-1.15875
-1.06614
-1.06709
-0.977676
-1.04076
-1.04839
-1.06565
-0.777442
-1.14891
-0.957816
-1.151
-1.15701
-1.15118
-1.15057
-1.12097
-0.892132
-1.04563
-1.33286
-0.754384
-0.985532
-1.11732
-1.03902
-1.10289
-1.02655
-0.992946
-1.29395
-1.087
-0.805177
-0.871613
-1.44433
-0.864062
-1.15473
-0.80223
-1.15718
-0.95933
-1.00596
-1.00198
-1.02119
-1.02141
-1.03687
-1.02218
-1.0256
-1.02218
-1.00271
-1.00611
-1.02625
-1.02658
-1.04087
-0.93615
-0.936423
-0.935893
-1.02254
-0.938007
-0.883834
-0.783724
-1.20819
-0.774148
-0.990764
-1.10851
-0.939895
-0.984898
-0.988383
-1.12076
-0.795266
-0.730283
-1.16069
-0.980776
-0.95939
-1.1505
-0.773419
-1.15092
-1.0661
-1.06633
-1.06902
-0.946289
-1.04527
-1.33203
-0.985378
-1.03929
-1.04474
-1.04607
-1.04988
-1.06601
-0.782228
-1.15089
-1.08322
-1.04663
-1.08146
-1.06666
-0.778417
-1.15294
-0.960921
-1.15721
-1.15657
-1.02761
-0.937904
-0.938469
-1.02788
-1.02322
-0.890237
-0.940286
-0.938768
-0.982467
-1.02285
-1.02705
-1.02907
-0.94481
-1.1979
-0.964266
-0.97173
-0.984367
-0.981556
-0.98044
-0.98102
-0.983545
-0.987559
-1.13254
-1.13076
-0.943634
-0.885564
-1.04055
-0.944264
-1.13179
-1.13339
-0.934742
-1.13315
-1.13129
-1.13066
-0.947052
-1.13144
-0.984643
-0.973075
-0.976021
-0.983109
-0.983264
-0.980801
-0.984529
-0.972139
-0.973311
-0.976734
-0.982566
-1.13952
-1.13595
-1.13998
-0.982784
-0.984326
-0.984984
-0.947356
-0.988467
-1.13422
-1.13295
-0.944524
-0.886105
-0.885563
-1.04093
-0.944464
-1.13474
-1.136
-0.988356
-0.971774
-0.971519
-0.971299
-0.971141
-0.971454
-0.967637
-0.933557
-0.988697
-1.00004
-1.00172
-1.00106
-0.988203
-1.00171
-1.00166
-1.0026
-0.98806
-0.98104
-0.927882
-0.977543
-0.984119
-0.984013
-0.973167
-0.959577
-0.939162
-0.976824
-0.973568
-0.959494
-0.94252
-0.97283
-0.971722
-0.938172
-0.967487
-0.886755
-0.944017
-1.13216
-0.940972
-0.999441
-0.979447
-1.1546
-1.08402
-1.08688
-1.11707
-1.02624
-1.10252
-1.10382
-1.10233
-1.08433
-1.04397
-1.0994
-1.29261
-1.10242
-1.10488
-1.18411
-1.15457
-1.2992
-1.3004
-1.2802
-1.29644
-1.29436
-0.954461
-0.958244
-1.00205
-1.16226
-0.819131
-0.954399
-0.985571
-0.947351
-0.924723
-1.13749
-0.935458
-1.13173
-0.907163
-0.885891
-0.910732
-0.88328
-0.894406
-0.89805
-1.16271
-1.12925
-1.13305
-0.981186
-1.29446
-1.13564
-0.993101
-0.759457
-0.910665
-0.732399
-1.14985
-0.761568
-0.761154
-0.759856
-0.899297
-0.861918
-0.932118
-0.899784
-0.959146
-0.951012
-0.754511
-0.929713
-1.14792
-0.788407
-1.06086
-0.751335
-1.1111
-0.931537
-0.952684
-0.879033
-0.850493
-0.739755
-0.929674
-0.930836
-0.934184
-0.786298
-0.935005
-1.13385
-0.932493
0.989219
0.977603
0.988568
0.981867
0.975846
0.973469
0.973155
0.974717
0.97833
0.985637
0.972656
0.967734
0.720679
1.01636
1.15192
0.905134
1.00598
0.955028
1.19606
0.895052
1.1479
1.00994
0.847256
1.03498
1.02646
0.862166
1.03375
1.02996
0.863128
1.03298
1.0304
0.858882
1.03298
1.02938
0.860128
1.02985
1.03136
0.858975
1.02443
1.03543
0.848735
1.00922
1.01639
0.827765
0.946448
0.690619
1.24761
0.769376
0.89751
1.01082
0.748702
0.959911
0.988006
0.745816
0.980586
0.978736
0.751371
0.991524
0.950369
0.744931
0.981322
1.1786
0.817334
1.09538
1.03225
0.950901
0.955634
1.13269
0.946759
0.951563
0.951445
1.14205
0.953323
0.949966
0.934661
1.14344
0.971333
0.951131
0.901922
1.1458
1.00303
0.956799
0.863739
0.830502
0.729278
0.906029
1.06779
1.10982
1.1198
1.1263
1.1242
1.12604
1.12627
1.12573
1.12793
1.12738
1.12822
1.12797
1.12898
1.1267
1.12763
1.11972
1.10308
1.04864
0.86108
0.977357
0.997023
1.02799
0.956118
0.720866
1.29046
0.997776
1.05662
0.993811
1.03168
1.1546
1.18273
1.10051
1.04939
1.05362
1.04996
1.1004
1.29067
1.05656
0.846186
0.857039
0.956917
0.869535
0.846649
1.01036
1.3011
1.0316
1.37511
0.993686
1.1546
0.977173
0.997086
1.05041
1.22685
1.20115
0.902993
1.16906
0.890387
1.12158
1.02858
0.720251
0.955186
0.987529
1.1533
1.11416
1.13936
1.12928
1.13424
1.13121
1.133
1.13072
1.13364
1.1287
1.13558
1.12579
1.13656
1.12342
1.12107
0.969328
1.40612
0.98515
0.965971
1.10892
1.13018
0.946019
1.13195
1.12939
0.949155
1.13414
1.12993
0.948901
1.1348
1.12978
0.948365
1.13529
1.12962
0.947498
1.13535
1.12888
0.944871
1.13888
1.11133
0.931688
1.16332
0.942238
1.14922
0.984716
0.709658
0.991318
0.946709
1.1517
0.961211
0.719413
1.02025
0.904871
1.17249
1.11103
1.14057
1.13623
1.13216
1.14242
1.12659
1.14509
1.1305
1.12945
1.13572
1.12648
1.13819
1.1164
1.1302
0.976178
1.41075
1.01371
0.957569
1.07019
1.22764
0.914519
1.21117
1.20827
0.915668
1.20998
1.20871
0.915554
1.22578
1.10238
0.946452
1.15718
1.11813
0.945767
1.14491
1.12667
0.943138
1.14251
1.11903
0.927556
1.14807
1.00827
1.15189
0.900147
0.732701
1.22657
0.851737
1.19429
1.15148
0.895593
1.01241
0.934227
0.81403
0.677247
0.863246
0.72717
1.05005
1.10703
0.760332
1.20237
1.11266
0.902121
1.2262
1.16985
0.889975
1.12137
1.05167
0.786718
0.944341
1.37583
0.993475
1.1545
1.03174
1.30115
1.01068
0.847013
0.957155
0.869528
0.805235
1.15937
0.856998
0.86778
0.800531
0.797715
1.1563
0.862634
0.862097
0.796918
0.800698
1.15622
0.868304
0.856607
0.803862
0.869851
1.1591
0.956922
0.846398
1.03189
1.01031
1.30162
1.0318
1.15452
0.9927
1.05693
1.28809
1.00121
1.02702
1.27639
1.02631
1.00196
1.28769
1.05654
0.846507
1.09615
1.18201
1.10047
1.43857
1.02745
0.951027
0.988843
0.944587
1.16438
1.11197
1.11181
1.11507
0.931549
1.16485
1.1526
0.989742
1.14977
0.943276
0.955253
1.0296
1.45156
1.10422
1.10053
1.43817
1.02745
0.950962
0.88865
1.05194
1.22647
1.20171
0.760262
1.10398
0.787218
1.0483
0.727513
0.995937
1.12146
1.03214
0.950811
0.988706
0.987636
1.14968
0.95175
1.03113
0.996243
0.976275
0.867082
0.892074
0.843211
0.813247
0.978782
0.917966
0.970808
0.978379
0.992573
0.999412
0.856636
1.00562
1.03529
1.16187
1.17284
1.15112
1.1891
0.905965
1.04995
1.02774
0.909342
0.761409
1.1258
1.13766
0.758156
1.20969
1.13455
0.914177
1.20941
1.13249
1.13381
0.913634
1.2121
0.787593
0.887262
0.890055
0.942656
0.789913
1.12781
0.89227
1.11523
0.921954
0.922557
0.893459
0.85892
1.00445
0.973175
0.964253
0.979372
0.977457
0.96966
0.935946
0.941958
0.97702
0.955635
1.15339
1.16459
1.11108
0.932085
1.11353
0.94252
1.13947
1.13974
1.13081
0.945417
1.12734
0.937901
1.13772
1.13353
1.13371
0.94827
1.12635
0.935543
1.13879
1.132
1.13322
0.949255
1.12743
0.932378
1.1363
1.13334
1.12986
0.949165
1.12913
0.928199
1.13374
1.13541
1.12587
0.948786
1.12839
0.926123
1.1311
1.13662
1.12316
0.945737
1.13008
0.923483
1.10777
1.11879
0.978992
0.966129
0.983894
0.79908
0.831796
0.80227
0.832703
0.904988
1.40995
0.962224
0.883057
1.15396
0.883378
1.08615
0.764842
1.10126
1.13248
0.757227
1.12656
1.135
0.76539
1.08006
1.28652
0.9847
1.12773
0.901789
0.905574