/*--------------------------------*- C++ -*----------------------------------*\
| =========                 |                                                 |
| \\      /  F ield         | OpenFOAM: The Open Source CFD Toolbox           |
|  \\    /   O peration     | Version:  2306                                  |
|   \\  /    A nd           | Website:  www.openfoam.com                      |
|    \\/     M anipulation  |                                                 |
\*---------------------------------------------------------------------------*/
FoamFile
{
    version     2.0;
    format      ascii;
    arch        "LSB;label=32;scalar=64";
    class       volScalarField;
    location    "1.5";
    object      gradTz;
}
// * * * * * * * * * * * * * * * * * * * * * * * * * * * * * * * * * * * * * //

dimensions      [0 -1 0 1 0 0 0];

internalField   nonuniform List<scalar> 
5322
(
-0.0602218
-0.0537684
-0.0432626
-0.0467314
-0.0333234
-0.0225241
-0.0144054
-0.00872543
-0.00503862
-0.00285739
-0.00173081
-0.0013761
-0.000930886
-0.00134488
-0.00151545
-0.00134278
-0.00156073
-0.0012913
-0.00205713
-0.0026391
-0.00366135
-0.00477905
-0.00658589
-0.00854064
-0.0114448
-0.0143261
-0.0186327
-0.0229511
-0.0289181
-0.0343814
-0.0420112
-0.0490163
-0.057684
-0.0641338
-0.0693613
-0.0619964
-0.0738826
-0.0724144
-0.0745921
-0.0551541
-0.0690778
-0.071312
-0.0540543
-0.0713238
-0.0706018
-0.0550287
-0.0723799
-0.06845
-0.0544981
-0.0713733
-0.0819483
-0.0547881
-0.0770706
-0.0672053
-0.0591364
-0.0635286
-0.079603
-0.0622491
-0.0591119
-0.0633078
-0.0803984
-0.0630816
-0.0590876
-0.0617653
-0.0804189
-0.0653788
-0.0589137
-0.05878
-0.079
-0.0699125
-0.0491384
-0.0715522
-0.0680822
-0.0670558
-0.0676721
-0.0673479
-0.0672998
-0.0671461
-0.0682821
-0.065331
-0.0639055
-0.0523895
-0.0543479
-0.068846
-0.0437822
-0.0606654
-0.0903645
-0.0596942
-0.0595038
-0.0511231
-0.0627737
-0.042117
-0.0443428
-0.0443105
-0.0581455
-0.0573955
-0.0536334
-0.0581371
-0.0918453
-0.0579016
-0.0586489
-0.0518127
-0.0586078
-0.0575402
-0.0628855
-0.0522125
-0.0547477
-0.047227
-0.033739
-0.0228584
-0.0146153
-0.00882635
-0.0050591
-0.00283552
-0.00193168
-0.00155767
-0.00114196
-0.00120504
-0.00181383
-0.00130791
-0.00111202
-0.00128777
-0.00126938
-0.0017499
-0.00132267
-0.0017169
-0.00125787
-0.00131392
-0.00169217
-0.00125887
-0.00129155
-0.00171046
-0.00127931
-0.00126878
-0.00171676
-0.00129352
-0.00127297
-0.0017596
-0.0013288
-0.00172408
-0.00126523
-0.00111811
-0.00131157
-0.00119064
-0.0011456
-0.00181781
-0.00120782
-0.00120284
-0.00113467
-0.00114502
-0.00183435
-0.00120516
-0.00120104
-0.00113875
-0.00114224
-0.00183193
-0.0012036
-0.0011882
-0.00111482
-0.00151835
-0.00134332
-0.00156608
-0.00228732
-0.00286812
-0.00156927
-0.00206426
-0.00129474
-0.00158926
-0.000982466
-0.00130014
-0.00134922
-0.00126052
-0.00148154
-0.00156696
-0.00142064
-0.00217969
-0.00215957
-0.0027006
-0.00195851
-0.00270105
-0.00370772
-0.00370853
-0.0048941
-0.00352403
-0.00490561
-0.00661824
-0.0066205
-0.00866165
-0.00631175
-0.00867787
-0.0114226
-0.0114276
-0.0145855
-0.0107923
-0.0146161
-0.0187131
-0.018732
-0.0232215
-0.0174625
-0.0232832
-0.0290133
-0.0290678
-0.0349307
-0.0266936
-0.0350406
-0.0424599
-0.0425855
-0.0496349
-0.0383844
-0.0498312
-0.0577539
-0.0578854
-0.0580423
-0.0918373
-0.057878
-0.0577049
-0.0519714
-0.0707092
-0.0705523
-0.0443466
-0.0443752
-0.0580442
-0.0578741
-0.0531885
-0.0588845
-0.0917948
-0.0582665
-0.057633
-0.0521046
-0.0577972
-0.0578102
-0.053591
-0.0534803
-0.0471393
-0.0337585
-0.0228971
-0.0146428
-0.00884193
-0.00506702
-0.00283932
-0.00193417
-0.00156037
-0.00114204
-0.00114228
-0.00114154
-0.00114039
-0.00183187
-0.00120076
-0.00120369
-0.00115033
-0.00129269
-0.00195062
-0.00120086
-0.00183322
-0.00120535
-0.00193742
-0.0013143
-0.00169165
-0.00126071
-0.00115147
-0.00129337
-0.00169251
-0.000922649
-0.0013022
-0.00142167
-0.00142017
-0.00148274
-0.00216057
-0.0027023
-0.00371133
-0.00489614
-0.00662644
-0.00866336
-0.0114383
-0.0145876
-0.0187508
-0.0232229
-0.0291036
-0.0349214
-0.0426572
-0.0495815
-0.0582985
-0.0573545
-0.0918928
-0.058399
-0.053627
-0.0576297
-0.0499741
-0.0384157
-0.0424625
-0.0351027
-0.026716
-0.0290397
-0.023307
-0.0174756
-0.0187345
-0.014625
-0.0107993
-0.0114363
-0.008681
-0.00631538
-0.00662776
-0.00490557
-0.00352585
-0.00371485
-0.00269956
-0.00195899
-0.00218348
-0.00158903
-0.00218287
-0.00270101
-0.00195989
-0.00216249
-0.00148401
-0.00156918
-0.00126036
-0.000932268
-0.00135598
-0.00134782
-0.00218415
-0.00269678
-0.00370695
-0.00491036
-0.00663632
-0.00868583
-0.0114819
-0.014628
-0.0188487
-0.0232946
-0.0293334
-0.0349392
-0.0431814
-0.0492067
-0.0586822
-0.0577552
-0.0909291
-0.0614756
-0.0520639
-0.063113
-0.0541808
-0.0373848
-0.0462415
-0.0377527
-0.0259609
-0.0314241
-0.0249066
-0.0169376
-0.0201893
-0.0155768
-0.0104522
-0.0123052
-0.00922836
-0.00610646
-0.00711048
-0.00520019
-0.00340553
-0.0039638
-0.0028697
-0.0018864
-0.00228786
-0.00156844
-0.00152205
-0.00130353
-0.00132432
-0.00120337
-0.00159255
-0.000981838
-0.0011238
-0.00140265
-0.00131705
-0.00221575
-0.0027862
-0.00269843
-0.00269866
-0.00194456
-0.00215352
-0.00219439
-0.00137065
-0.00156537
-0.00150792
-0.00158657
-0.00154644
-0.00186039
-0.00139969
-0.00133252
-0.00193283
-0.00168654
-0.00159014
-0.0014698
-0.00143037
-0.00218422
-0.00270093
-0.00262814
-0.00371724
-0.00490637
-0.00663071
-0.00868074
-0.00819577
-0.011446
-0.0146151
-0.0187656
-0.0232625
-0.0213837
-0.0291203
-0.0349656
-0.0426226
-0.049682
-0.0443794
-0.0443475
-0.0317671
-0.0318112
-0.0215453
-0.021458
-0.0292906
-0.0350165
-0.0267444
-0.035407
-0.042447
-0.0429822
-0.0494569
-0.0384106
-0.0506329
-0.0572071
-0.06474
-0.0565018
-0.0926693
-0.0597666
-0.0565981
-0.0539163
-0.0691878
-0.0421666
-0.0384621
-0.0524516
-0.0318824
-0.0428251
-0.0358167
-0.0216891
-0.0292701
-0.0232974
-0.0140516
-0.0188968
-0.0145348
-0.0086619
-0.0114692
-0.00852604
-0.00504974
-0.00662697
-0.00477738
-0.00281184
-0.00364952
-0.00261821
-0.0015633
-0.0020639
-0.00139101
-0.0013332
-0.00189469
-0.00185266
-0.00235575
-0.00334261
-0.00375246
-0.00504804
-0.00676719
-0.00892903
-0.00866341
-0.00870127
-0.00630061
-0.00664625
-0.00664019
-0.00491753
-0.00351403
-0.00488314
-0.00468449
-0.00450872
-0.00251246
-0.00218216
-0.00264199
-0.0024479
-0.00233412
-0.00277894
-0.00283919
-0.00172572
-0.00137844
-0.000965119
-0.00163637
-0.000929255
-0.00138269
-0.00166604
-0.00210416
-0.00370019
-0.00500916
-0.00502264
-0.00874663
-0.0088188
-0.00659387
-0.00605619
-0.00606806
-0.00781807
-0.0104484
-0.011775
-0.0150364
-0.0193837
-0.0239681
-0.0233817
-0.023329
-0.0174732
-0.018819
-0.0188373
-0.0146529
-0.0107859
-0.0146309
-0.0136662
-0.0130608
-0.00787336
-0.00691545
-0.00822177
-0.00798151
-0.00760946
-0.00470491
-0.00442657
-0.00422798
-0.00436694
-0.0033704
-0.00393872
-0.00379332
-0.00287193
-0.0017424
-0.00138293
-0.00137376
-0.00126992
-0.00158355
-0.00129106
-0.0021457
-0.00214117
-0.00270363
-0.00261885
-0.00371319
-0.00371513
-0.00490625
-0.00352818
-0.00490135
-0.00468356
-0.00662906
-0.00663257
-0.0086782
-0.00632122
-0.00868124
-0.00818563
-0.0114425
-0.011455
-0.0146108
-0.0108125
-0.0146335
-0.0136042
-0.0187544
-0.0187866
-0.0232572
-0.0175016
-0.023328
-0.0213849
-0.0290758
-0.0291742
-0.034942
-0.0267554
-0.0351493
-0.0317586
-0.0424675
-0.042759
-0.0495744
-0.0384301
-0.0500016
-0.0442845
-0.0576322
-0.0581675
-0.0579846
-0.0535341
-0.0580165
-0.0524048
-0.0580532
-0.0560017
-0.050295
-0.0684511
-0.0446185
-0.0573166
-0.0429143
-0.0410465
-0.0492734
-0.0490572
-0.0447192
-0.0480258
-0.0485108
-0.0415953
-0.035032
-0.0343586
-0.0229409
-0.0233521
-0.0183272
-0.0147331
-0.0145367
-0.0144268
-0.00870802
-0.00502405
-0.00285264
-0.0017281
-0.00137279
-0.000936472
-0.00134255
-0.00118597
-0.00138179
-0.00139399
-0.00127067
-0.00131253
-0.00157249
-0.00114886
-0.00140825
-0.00133024
-0.00133338
-0.00141368
-0.00111579
-0.00140363
-0.0013373
-0.00134295
-0.00157499
-0.00112405
-0.00113548
-0.00113381
-0.00112568
-0.00112263
-0.00111305
-0.00186247
-0.00113227
-0.00112492
-0.00112512
-0.00186368
-0.00113386
-0.00158967
-0.00196328
-0.00194735
-0.00168982
-0.0016821
-0.00157965
-0.00264965
-0.00474955
-0.00828889
-0.0137334
-0.0214978
-0.0204774
-0.0181891
-0.0215292
-0.0209781
-0.020016
-0.0213382
-0.0267289
-0.0304244
-0.0357651
-0.0458376
-0.0386137
-0.0386766
-0.0296122
-0.0329179
-0.0262301
-0.0283651
-0.0287592
-0.0226791
-0.0337596
-0.0475214
-0.0640255
-0.0639338
-0.0644455
-0.0537969
-0.0492204
-0.0523447
-0.0587949
-0.0504224
-0.058007
-0.084689
-0.0763866
-0.0736498
-0.0762583
-0.0482419
-0.0616406
-0.0645936
-0.077828
-0.0495484
-0.0636711
-0.0648431
-0.0781976
-0.0497654
-0.062882
-0.0656841
-0.0780726
-0.0510188
-0.0624145
-0.0701212
-0.0975266
-0.0784625
-0.0767769
-0.0974839
-0.0957858
-0.0757628
-0.0550952
-0.0770806
-0.0672613
-0.0591107
-0.0634021
-0.0685933
-0.05453
-0.0712597
-0.0819916
-0.0547761
-0.0639472
-0.0524192
-0.0543941
-0.0688679
-0.0574082
-0.0424297
-0.0509405
-0.0422198
-0.0306814
-0.0351223
-0.0289631
-0.0205938
-0.0230993
-0.0187256
-0.0131079
-0.0144294
-0.0114427
-0.00787592
-0.00854569
-0.00661712
-0.00449799
-0.00480531
-0.0036722
-0.00243946
-0.00265245
-0.00206528
-0.00140576
-0.00159097
-0.00119518
-0.00131877
-0.00129914
-0.00156629
-0.00229004
-0.00286992
-0.00188536
-0.00218599
-0.00134407
-0.00151985
-0.00135284
-0.000930887
-0.00125761
-0.00130233
-0.0015684
-0.00138922
-0.0013878
-0.00174799
-0.00287725
-0.00506433
-0.00506557
-0.00879607
-0.0145857
-0.0136666
-0.0130592
-0.0124945
-0.013355
-0.0172793
-0.016932
-0.0104195
-0.0112788
-0.0114543
-0.0114782
-0.0114771
-0.00821671
-0.00868452
-0.0114321
-0.0108117
-0.014633
-0.0187333
-0.0174961
-0.0233168
-0.0290411
-0.0267352
-0.0350864
-0.0424552
-0.0383917
-0.0497751
-0.0413198
-0.0419842
-0.0557443
-0.0558125
-0.0477011
-0.0337227
-0.0226526
-0.0144217
-0.00871358
-0.005032
-0.00285835
-0.00173583
-0.00138056
-0.000932086
-0.0013014
-0.00138637
-0.00137709
-0.00173397
-0.00286029
-0.00504424
-0.00874775
-0.0144835
-0.0227465
-0.0338624
-0.0478036
-0.065082
-0.0646128
-0.0543281
-0.10474
-0.0767047
-0.0735531
-0.0648881
-0.0781664
-0.0498263
-0.0499622
-0.0541397
-0.0805262
-0.051502
-0.0522918
-0.053315
-0.0809704
-0.0517384
-0.0525225
-0.0529897
-0.0808596
-0.0532394
-0.0541722
-0.0598141
-0.102962
-0.0794091
-0.0774595
-0.0778008
-0.0771349
-0.0610934
-0.0567055
-0.0600779
-0.102584
-0.0593915
-0.0620571
-0.0803457
-0.0631632
-0.0590447
-0.0616503
-0.071702
-0.0540185
-0.0709271
-0.0709643
-0.0551555
-0.0721126
-0.0624188
-0.0590831
-0.0630783
-0.067403
-0.0671757
-0.0677582
-0.0668818
-0.0591144
-0.0594851
-0.064768
-0.0804982
-0.0695263
-0.0556703
-0.0740558
-0.065143
-0.0556676
-0.0894674
-0.0480052
-0.0618251
-0.0511031
-0.0586023
-0.0519871
-0.0400537
-0.0451246
-0.038176
-0.0293609
-0.0315402
-0.0263936
-0.0193901
-0.0211024
-0.0169563
-0.0126435
-0.0131391
-0.0104523
-0.00740144
-0.00785141
-0.00599601
-0.00431489
-0.00437122
-0.00335317
-0.0023121
-0.00238747
-0.00188023
-0.00133611
-0.00140093
-0.000921792
-0.00162198
-0.00118115
-0.000960666
-0.00174892
-0.00126731
-0.00132014
-0.00171127
-0.00125702
-0.00130889
-0.00168658
-0.00125453
-0.00129032
-0.00170586
-0.00127917
-0.0012621
-0.00171053
-0.000936676
-0.00126649
-0.00156967
-0.00142377
-0.00158664
-0.00217494
-0.00195509
-0.00269731
-0.00269424
-0.00261201
-0.00369537
-0.00339467
-0.00489224
-0.00518453
-0.0039317
-0.00708761
-0.00503179
-0.0091818
-0.00688141
-0.0122228
-0.00859287
-0.0154806
-0.0114315
-0.0199948
-0.0139021
-0.0246583
-0.0179438
-0.030871
-0.0212202
-0.0371571
-0.0266344
-0.0450694
-0.0306723
-0.052997
-0.037397
-0.0615621
-0.0417403
-0.0491058
-0.058523
-0.0571832
-0.0444788
-0.0508129
-0.036653
-0.0431969
-0.0419329
-0.0316323
-0.0357722
-0.0254305
-0.0295518
-0.0287823
-0.0213147
-0.023773
-0.0166784
-0.0191372
-0.0186465
-0.0135746
-0.0149525
-0.0103126
-0.0116794
-0.0114122
-0.00817573
-0.00887362
-0.00604067
-0.00676341
-0.00662082
-0.00467578
-0.00502432
-0.00336335
-0.00375968
-0.00370655
-0.00261148
-0.00276692
-0.00185396
-0.00222146
-0.00214667
-0.00158232
-0.00130735
-0.00111784
-0.000978553
-0.00129725
-0.00131666
-0.00119194
-0.00158568
-0.00139627
-0.00157589
-0.00126884
-0.00137184
-0.00138607
-0.00129511
-0.0015644
-0.00141865
-0.00147616
-0.00157453
-0.00217647
-0.00188145
-0.00286148
-0.00218201
-0.00395419
-0.00280706
-0.00379338
-0.00214762
-0.00214312
-0.00215835
-0.00167709
-0.00192924
-0.00120099
-0.001829
-0.00119917
-0.00114612
-0.00140301
-0.00133912
-0.00132684
-0.00134187
-0.00133704
-0.00195015
-0.00168962
-0.00158864
-0.00265805
-0.00265788
-0.00263366
-0.00371944
-0.00371796
-0.00261425
-0.00378502
-0.00215473
-0.00215097
-0.00216438
-0.00196211
-0.00270835
-0.00370919
-0.0035295
-0.00490773
-0.00662328
-0.00632184
-0.00691521
-0.00476179
-0.00470525
-0.00830859
-0.0137644
-0.0136513
-0.0137478
-0.0083018
-0.00475953
-0.00469559
-0.00474218
-0.00264622
-0.00261561
-0.00268957
-0.00370281
-0.00396058
-0.00519271
-0.00709589
-0.00919442
-0.00504037
-0.00661774
-0.00393672
-0.00480063
-0.00281482
-0.00367223
-0.00218669
-0.00264953
-0.00243396
-0.00232512
-0.00335574
-0.00337328
-0.00439429
-0.00502914
-0.00468418
-0.00662678
-0.00627571
-0.00863377
-0.00866991
-0.00819197
-0.0113809
-0.0107542
-0.0145562
-0.014562
-0.0135546
-0.0185909
-0.0173456
-0.0231398
-0.0231545
-0.0212291
-0.0287969
-0.025581
-0.0347896
-0.0419949
-0.036819
-0.0495409
-0.0567097
-0.0494086
-0.0549785
-0.0473492
-0.0337568
-0.0228501
-0.014606
-0.00882
-0.00505516
-0.00283329
-0.00192989
-0.00155569
-0.00113996
-0.00113647
-0.0011423
-0.0012023
-0.00194511
-0.00168692
-0.00168367
-0.00192664
-0.00120044
-0.00114544
-0.00140671
-0.00132863
-0.00139552
-0.00132939
-0.00193367
-0.0016794
-0.00157687
-0.00218209
-0.0018855
-0.00211859
-0.0021011
-0.00194768
-0.00157458
-0.00112619
-0.00112305
-0.00186351
-0.00111355
-0.00113211
-0.00183084
-0.00210104
-0.00265284
-0.00250975
-0.00154352
-0.00185325
-0.00223156
-0.00158715
-0.00214812
-0.0019414
-0.0026994
-0.0026906
-0.00263073
-0.00370311
-0.00352129
-0.00489503
-0.00468862
-0.00660478
-0.00629473
-0.00865287
-0.00864427
-0.00815504
-0.0114018
-0.0103844
-0.0145498
-0.018644
-0.0167727
-0.0231428
-0.0214065
-0.0136788
-0.00826122
-0.00473592
-0.00264264
-0.00209802
-0.0019454
-0.0015724
-0.00208559
-0.00285467
-0.00210472
-0.00212196
-0.00210178
-0.00208687
-0.00285405
-0.00265681
-0.00262867
-0.00475824
-0.00469594
-0.00830015
-0.00819735
-0.00877184
-0.0145217
-0.0228148
-0.0229442
-0.0341889
-0.0320432
-0.0310654
-0.0444825
-0.0576223
-0.0500605
-0.0722579
-0.0556446
-0.107263
-0.0752781
-0.0739487
-0.0687048
-0.0854112
-0.0782153
-0.0807401
-0.0778183
-0.106624
-0.074346
-0.0734548
-0.0648396
-0.0778185
-0.0496833
-0.0507098
-0.0547497
-0.0800915
-0.051281
-0.0531881
-0.0541145
-0.0805305
-0.0515198
-0.0532639
-0.0539384
-0.0804115
-0.0531284
-0.0545643
-0.074448
-0.0547569
-0.044354
-0.0443296
-0.0498768
-0.0531605
-0.0371987
-0.0458615
-0.0312336
-0.0373646
-0.0441638
-0.0316894
-0.0417084
-0.0501201
-0.0445228
-0.0563085
-0.0612684
-0.0498479
-0.0468158
-0.0405195
-0.0507741
-0.0500571
-0.0653194
-0.068351
-0.0670423
-0.0569221
-0.044286
-0.0563407
-0.0507575
-0.0565966
-0.0442128
-0.0563287
-0.0508081
-0.0566702
-0.044352
-0.0564123
-0.0682359
-0.0667408
-0.0592416
-0.0557214
-0.0669483
-0.080932
-0.0610154
-0.0782489
-0.0794025
-0.0762377
-0.0620345
-0.0593948
-0.0598152
-0.102066
-0.0600958
-0.0668153
-0.0987771
-0.0802085
-0.076805
-0.061049
-0.0593642
-0.0747365
-0.0542458
-0.0540113
-0.0739274
-0.0537413
-0.0473835
-0.0472349
-0.0337464
-0.0228644
-0.0146191
-0.00882864
-0.00506029
-0.00283614
-0.00193204
-0.00155799
-0.00111374
-0.00112385
-0.00141191
-0.00132707
-0.00133066
-0.00168852
-0.00131189
-0.0011152
-0.00118881
-0.00130804
-0.00120547
-0.00111264
-0.00126964
-0.00175328
-0.00132354
-0.00185364
-0.00126014
-0.00171549
-0.00139622
-0.00141209
-0.00132883
-0.0019275
-0.0012008
-0.00120303
-0.0018315
-0.00113994
-0.00113934
-0.00120348
-0.00119889
-0.00114389
-0.00127939
-0.0017264
-0.00128077
-0.00194489
-0.00168731
-0.00168372
-0.00154421
-0.00129666
-0.00158593
-0.00126966
-0.0013773
-0.00138208
-0.00174245
-0.00287569
-0.00506966
-0.008789
-0.0145484
-0.0228447
-0.0339991
-0.0339712
-0.048026
-0.0481539
-0.0645798
-0.0548238
-0.0574646
-0.0577563
-0.0919485
-0.06661
-0.0743066
-0.0766477
-0.10446
-0.0541319
-0.0576801
-0.0578288
-0.0551969
-0.058651
-0.0596471
-0.0903785
-0.0587728
-0.060667
-0.0511507
-0.0595072
-0.0702976
-0.0561696
-0.0441904
-0.0479652
-0.0651807
-0.0649673
-0.0556002
-0.0559648
-0.0425631
-0.0290104
-0.0187246
-0.0115168
-0.00674248
-0.00665428
-0.00375606
-0.00375714
-0.00214276
-0.00215298
-0.00265455
-0.00472052
-0.00821181
-0.0135993
-0.0213392
-0.0316777
-0.0417201
-0.0411326
-0.041296
-0.0283699
-0.0184208
-0.011351
-0.011334
-0.0066506
-0.0067328
-0.00379897
-0.00370901
-0.00396514
-0.00519555
-0.00710303
-0.00919876
-0.00609105
-0.00662856
-0.00490199
-0.00340087
-0.00391257
-0.00264691
-0.0026185
-0.00269101
-0.00168047
-0.00193354
-0.00125948
-0.00157909
-0.00210047
-0.00211925
-0.00181426
-0.00114239
-0.00113427
-0.0014083
-0.00133823
-0.00135255
-0.00141221
-0.00111446
-0.0018649
-0.00141178
-0.00140424
-0.00114915
-0.00141178
-0.00141158
-0.00132423
-0.00132651
-0.00133282
-0.001393
-0.00132656
-0.00133255
-0.00140777
-0.00141051
-0.00113956
-0.00120451
-0.00130489
-0.00181099
-0.001187
-0.00111195
-0.002116
-0.00210131
-0.00194606
-0.00157226
-0.00208578
-0.00210248
-0.00265391
-0.00251103
-0.00218972
-0.00450254
-0.00394164
-0.0047434
-0.00468152
-0.0082752
-0.0081754
-0.00867172
-0.0114438
-0.0122659
-0.0155004
-0.0200979
-0.0247043
-0.0168528
-0.0187436
-0.0146076
-0.0104135
-0.0119147
-0.00785212
-0.00689803
-0.0130033
-0.0114652
-0.0137063
-0.0135771
-0.013746
-0.0136141
-0.0215108
-0.0213945
-0.03177
-0.0317436
-0.0302923
-0.0272786
-0.0320717
-0.0293301
-0.0192693
-0.0119486
-0.00700778
-0.0039187
-0.00386996
-0.00381434
-0.00508586
-0.00690834
-0.00679031
-0.00887111
-0.0117669
-0.0115535
-0.00887181
-0.00508641
-0.0038743
-0.00386752
-0.00381149
-0.00286983
-0.00510286
-0.00889661
-0.0147242
-0.0146866
-0.0189527
-0.018586
-0.022959
-0.028804
-0.028205
-0.0338483
-0.0411879
-0.0419821
-0.0442582
-0.0703412
-0.0504059
-0.0743539
-0.0547045
-0.0534532
-0.0706394
-0.0529298
-0.073463
-0.0773516
-0.0808366
-0.0775613
-0.105829
-0.0742586
-0.066815
-0.0627985
-0.0810102
-0.0819163
-0.0596403
-0.0670186
-0.0779592
-0.0818651
-0.075895
-0.0742457
-0.105216
-0.0778974
-0.081085
-0.0812676
-0.0814787
-0.0811338
-0.0775886
-0.0810909
-0.0724844
-0.065686
-0.0780738
-0.0510439
-0.0497576
-0.0539492
-0.0804332
-0.0530846
-0.0520756
-0.0530026
-0.0809047
-0.0531486
-0.0523146
-0.052665
-0.0807532
-0.0543728
-0.0599582
-0.102397
-0.0817161
-0.0764485
-0.0622707
-0.0593248
-0.0739482
-0.0537178
-0.0473762
-0.0338473
-0.0229351
-0.0146678
-0.00885991
-0.00507985
-0.00285126
-0.00386686
-0.00391116
-0.00340121
-0.00489853
-0.00661979
-0.00609209
-0.00866523
-0.0114311
-0.012255
-0.0154941
-0.0200823
-0.0246958
-0.0139534
-0.0187324
-0.0114537
-0.0144275
-0.00861766
-0.0114461
-0.00689047
-0.00854185
-0.00786536
-0.00750988
-0.010423
-0.0103394
-0.0132172
-0.0149558
-0.0135892
-0.0186511
-0.0173087
-0.023184
-0.0231772
-0.0212989
-0.0286483
-0.0264272
-0.0347789
-0.0315111
-0.0417568
-0.0379593
-0.0495146
-0.0496149
-0.0442416
-0.0567099
-0.050808
-0.0564775
-0.0565467
-0.0442474
-0.0495115
-0.0495549
-0.0564032
-0.0507459
-0.053619
-0.0444076
-0.0316972
-0.0214518
-0.013713
-0.00828404
-0.0047508
-0.00449999
-0.00784767
-0.00827314
-0.00816921
-0.0137027
-0.0135677
-0.0145962
-0.0187255
-0.0168565
-0.02326
-0.0290372
-0.0311724
-0.0372465
-0.0458281
-0.0531726
-0.0312292
-0.0422464
-0.0268793
-0.0351287
-0.0214095
-0.0289765
-0.018022
-0.0231014
-0.0205732
-0.0196404
-0.0263744
-0.0256579
-0.0320597
-0.0355912
-0.0316902
-0.0417116
-0.0378888
-0.0500823
-0.0493636
-0.0442904
-0.0568749
-0.050551
-0.0563334
-0.0612387
-0.04453
-0.0498359
-0.0467725
-0.0507371
-0.0500226
-0.0529737
-0.0475296
-0.0404748
-0.0423958
-0.0509475
-0.0574425
-0.0378137
-0.0440796
-0.0315816
-0.0212689
-0.0135514
-0.00818033
-0.00470037
-0.00264216
-0.00157928
-0.00126938
-0.00131949
-0.00119477
-0.000924107
-0.00112126
-0.00140543
-0.00130953
-0.00162709
-0.000960802
-0.00117988
-0.00156226
-0.0015044
-0.00136556
-0.00158848
-0.00215975
-0.00195848
-0.00269415
-0.0026247
-0.0037018
-0.00351725
-0.00489658
-0.00488441
-0.0046714
-0.00660792
-0.00607951
-0.00864739
-0.00671728
-0.00663697
-0.00660823
-0.00375795
-0.00370533
-0.00285744
-0.0028545
-0.00172594
-0.00137153
-0.00138468
-0.00133992
-0.00137711
-0.00138576
-0.0016694
-0.00134296
-0.0018829
-0.00186061
-0.00277008
-0.00261786
-0.00371028
-0.00350549
-0.00487831
-0.00490331
-0.00469792
-0.00660723
-0.00630002
-0.00865694
-0.00817578
-0.0113817
-0.0107474
-0.014552
-0.0145509
-0.0135307
-0.0185901
-0.018074
-0.0112538
-0.011383
-0.00868803
-0.00868101
-0.00502379
-0.00378634
-0.00371776
-0.00215955
-0.00219447
-0.00172815
-0.00211618
-0.0023992
-0.00279288
-0.00284822
-0.00371439
-0.00377446
-0.0050216
-0.00428615
-0.00602646
-0.00604914
-0.00888667
-0.0081849
-0.0114198
-0.0107181
-0.0145446
-0.0145821
-0.0135831
-0.0185813
-0.017354
-0.023152
-0.0212544
-0.0286828
-0.026425
-0.0347722
-0.034823
-0.0314932
-0.0417513
-0.0316584
-0.0287361
-0.0188978
-0.0185684
-0.0146726
-0.00886282
-0.00508152
-0.00285239
-0.00381191
-0.00386722
-0.00690267
-0.00699291
-0.00475303
-0.00828827
-0.0137201
-0.0192015
-0.0189365
-0.0117563
-0.0115459
-0.00678576
-0.00690352
-0.00386886
-0.00352322
-0.00371169
-0.00262518
-0.00370602
-0.00490052
-0.00469048
-0.00660739
-0.0066149
-0.00489747
-0.00489935
-0.00469895
-0.00660883
-0.00662557
-0.0049043
-0.00371701
-0.00263056
-0.00370454
-0.0027046
-0.00269649
-0.00269911
-0.00269866
-0.00262695
-0.00370671
-0.00370501
-0.00352127
-0.00489115
-0.00469367
-0.00661166
-0.00660871
-0.00630061
-0.00864911
-0.00818736
-0.0113968
-0.0113831
-0.0113806
-0.0113917
-0.00817789
-0.00866265
-0.00865875
-0.0063034
-0.00866033
-0.00819467
-0.0113826
-0.0114183
-0.00867145
-0.00628136
-0.00662795
-0.0067826
-0.00468466
-0.0048812
-0.00350847
-0.00371065
-0.00377906
-0.00261776
-0.00270034
-0.00269149
-0.00219274
-0.00158772
-0.00216079
-0.00195983
-0.00218149
-0.00158692
-0.00217702
-0.00195853
-0.0021621
-0.0015854
-0.0021856
-0.00269039
-0.00269097
-0.00193903
-0.00215632
-0.0017159
-0.00136729
-0.000938174
-0.0013326
-0.00127307
-0.00130424
-0.0013071
-0.000935508
-0.00136964
-0.00139454
-0.00127197
-0.0013366
-0.000939397
-0.00171732
-0.00128946
-0.00126017
-0.00114495
-0.00156936
-0.00146685
-0.00142454
-0.00142682
-0.0014625
-0.00136729
-0.0014982
-0.00155903
-0.00110988
-0.00128683
-0.00171413
-0.00125981
-0.00192479
-0.00168179
-0.00265114
-0.00265556
-0.00475359
-0.00828805
-0.0117536
-0.0107596
-0.014562
-0.013556
-0.0185832
-0.0186032
-0.0185825
-0.0186646
-0.0135868
-0.0145699
-0.0145841
-0.0107282
-0.0114219
-0.0117223
-0.00818594
-0.00863978
-0.00889005
-0.00605686
-0.0060344
-0.00784605
-0.00752225
-0.0104352
-0.0132356
-0.0125223
-0.0170778
-0.0211478
-0.0196688
-0.0264035
-0.0320955
-0.029249
-0.0382329
-0.0397057
-0.0340933
-0.0275163
-0.0229456
-0.0180372
-0.0145997
-0.0111964
-0.00879083
-0.00658807
-0.00502721
-0.00429144
-0.00440317
-0.00503019
-0.00337813
-0.00335926
-0.0024037
-0.00233008
-0.00279548
-0.00371704
-0.002117
-0.00188506
-0.00186332
-0.00223319
-0.00158661
-0.00214833
-0.00194283
-0.00216159
-0.00172524
-0.0013771
-0.000962033
-0.00118202
-0.00162715
-0.000924706
-0.00140721
-0.00134378
-0.00166951
-0.00138587
-0.00112217
-0.00131008
-0.00150384
-0.00136757
-0.00156203
-0.00138418
-0.00136903
-0.00171902
-0.0028443
-0.00284411
-0.00502298
-0.0087095
-0.0143957
-0.0135905
-0.0186549
-0.0192081
-0.014962
-0.0145548
-0.0113598
-0.00669573
-0.00379222
-0.00378258
-0.00500873
-0.00865564
-0.0142746
-0.0182733
-0.0173252
-0.0231778
-0.021304
-0.028645
-0.0288445
-0.028756
-0.0298414
-0.0213401
-0.0232007
-0.0237895
-0.0167528
-0.0139587
-0.0185725
-0.0183695
-0.0282492
-0.0285811
-0.029058
-0.031196
-0.0372522
-0.0269008
-0.0301162
-0.0203588
-0.0180381
-0.0214557
-0.0213347
-0.0232809
-0.0317161
-0.0317055
-0.0350613
-0.0257897
-0.0292215
-0.021462
-0.031709
-0.0418967
-0.0412093
-0.0287896
-0.0282015
-0.0185762
-0.0189238
-0.022942
-0.0230103
-0.0229595
-0.0146874
-0.0117778
-0.0117561
-0.00690287
-0.00678498
-0.0068999
-0.00699018
-0.0119099
-0.010416
-0.0114763
-0.00673473
-0.00665806
-0.00667924
-0.00670958
-0.00377216
-0.00376016
-0.00214328
-0.00215092
-0.0013739
-0.0037981
-0.0113898
-0.0113484
-0.0183928
-0.0184733
-0.0186131
-0.0284159
-0.0282821
-0.0286097
-0.0185884
-0.0350213
-0.0425436
-0.0372098
-0.0498014
-0.0417665
-0.0411782
-0.055695
-0.0558431
-0.0561315
-0.0704025
-0.0958408
-0.0974393
-0.0550884
-0.0701036
-0.0975444
-0.0784471
-0.0611093
-0.0771107
-0.0779647
-0.0621548
-0.0597962
-0.103142
-0.0799373
-0.0773186
-0.10107
-0.0862748
-0.0863552
-0.0813081
-0.0773869
-0.0531585
-0.073657
-0.0535618
-0.0472735
-0.0338482
-0.0288256
-0.0189689
-0.0189351
-0.0215113
-0.02145
-0.0213197
-0.031708
-0.031686
-0.0301035
-0.0203485
-0.0129961
-0.0191902
-0.0237793
-0.0213381
-0.0287518
-0.0263866
-0.0349893
-0.0347722
-0.0315723
-0.0416564
-0.0379349
-0.0417621
-0.0316807
-0.0214411
-0.0189144
-0.0191937
-0.0292109
-0.0257965
-0.0287862
-0.028198
-0.0185737
-0.0115444
-0.0117475
-0.0082826
-0.00475038
-0.00265343
-0.00371358
-0.00377111
-0.00489645
-0.00215265
-0.00270398
-0.00218301
-0.00139487
-0.00146785
-0.00130917
-0.000927993
-0.00137758
-0.00173294
-0.0066546
-0.00668413
-0.00662453
-0.00502851
-0.00658299
-0.00783388
-0.0087812
-0.00871824
-0.0111878
-0.0117104
-0.0145844
-0.0125046
-0.017058
-0.016733
-0.0211202
-0.0180233
-0.0229221
-0.0225728
-0.0144101
-0.0113391
-0.0114149
-0.0112788
-0.0113903
-0.0143169
-0.0182389
-0.0186576
-0.0181123
-0.0231551
-0.0223767
-0.0277339
-0.028831
-0.0274967
-0.0298162
-0.0340618
-0.0292104
-0.0381964
-0.0373327
-0.0441339
-0.0396833
-0.033494
-0.0469889
-0.0595861
-0.0595946
-0.0604216
-0.0656295
-0.061774
-0.0529884
-0.0397821
-0.0420621
-0.0330959
-0.0463529
-0.0589091
-0.0665762
-0.0628283
-0.052462
-0.0392214
-0.0274527
-0.034811
-0.0286942
-0.0223837
-0.0143248
-0.0331014
-0.0463916
-0.0590276
-0.0668716
-0.0628931
-0.0524686
-0.0391769
-0.0273999
-0.0286803
-0.0278638
-0.0183431
-0.0114074
-0.00815482
-0.00469065
-0.0026362
-0.00241842
-0.00452771
-0.0134813
-0.0210614
-0.031102
-0.0399521
-0.0532132
-0.059406
-0.0681455
-0.062641
-0.0514033
-0.0573708
-0.0612566
-0.0589135
-0.0464746
-0.0461395
-0.0329541
-0.0222816
-0.0142547
-0.00864178
-0.00499917
-0.00283837
-0.00284167
-0.00172113
-0.00215793
-0.00215618
-0.00139323
-0.00156829
-0.00138037
-0.00137325
-0.00171892
-0.00283349
-0.00378529
-0.00350275
-0.00486805
-0.00490193
-0.00474881
-0.00386684
-0.00380961
-0.00208471
-0.00386174
-0.00390696
-0.00250614
-0.00154075
-0.00184982
-0.00228358
-0.00156373
-0.00449494
-0.0069838
-0.00690031
-0.00678166
-0.00689186
-0.011735
-0.0115394
-0.011749
-0.00828208
-0.0137121
-0.0137171
-0.0214528
-0.0287629
-0.0264387
-0.0287033
-0.0212533
-0.0286586
-0.0348228
-0.0315037
-0.0416851
-0.0417833
-0.0347563
-0.0348483
-0.0315753
-0.0416362
-0.0420855
-0.0347656
-0.026411
-0.0350144
-0.0356044
-0.0256866
-0.0214157
-0.0277865
-0.0225505
-0.0334613
-0.0469381
-0.0475583
-0.0529841
-0.0595918
-0.0604362
-0.0595268
-0.0656582
-0.06177
-0.0530529
-0.0398526
-0.0329987
-0.0223111
-0.0275315
-0.0181664
-0.0231782
-0.0231472
-0.0231698
-0.0231485
-0.0213001
-0.0287506
-0.0286781
-0.0264381
-0.0347906
-0.0315914
-0.0418657
-0.0417499
-0.0379653
-0.0495013
-0.0497041
-0.0495843
-0.0379209
-0.0418959
-0.0412285
-0.0338552
-0.0339156
-0.0402734
-0.0472739
-0.0443558
-0.044408
-0.0706806
-0.052105
-0.0498949
-0.0734942
-0.0772737
-0.0808409
-0.0776192
-0.0812286
-0.0815167
-0.0768453
-0.0522122
-0.0725436
-0.0518904
-0.070968
-0.0712623
-0.0709728
-0.0712324
-0.070806
-0.0623769
-0.0803434
-0.105258
-0.0553254
-0.0782065
-0.0849679
-0.0811239
-0.0864116
-0.081117
-0.0767902
-0.102349
-0.0795484
-0.0545617
-0.0600301
-0.102649
-0.0594472
-0.0737922
-0.0543039
-0.0715999
-0.0520198
-0.047357
-0.0403021
-0.0412037
-0.0412121
-0.0418847
-0.0411785
-0.0287504
-0.0411917
-0.0403404
-0.0282008
-0.0287669
-0.0189194
-0.0191748
-0.0214564
-0.0317283
-0.0316925
-0.0411906
-0.0444156
-0.0421288
-0.037836
-0.0629348
-0.0437904
-0.0558093
-0.0574717
-0.0521757
-0.0556337
-0.0627706
-0.0708034
-0.051872
-0.0497436
-0.0736786
-0.0535681
-0.0520229
-0.0712277
-0.0520695
-0.072742
-0.0769627
-0.0773612
-0.0810402
-0.0726277
-0.0803078
-0.105192
-0.0781988
-0.0811471
-0.0813187
-0.0814343
-0.0816336
-0.076958
-0.0525304
-0.0727415
-0.079029
-0.0814872
-0.0789922
-0.0770879
-0.0524097
-0.072944
-0.0521557
-0.071593
-0.071839
-0.0648072
-0.0444473
-0.0444073
-0.0646314
-0.0643165
-0.0422448
-0.0445381
-0.04441
-0.0536239
-0.0642857
-0.0645425
-0.064837
-0.0598242
-0.0697646
-0.0521608
-0.0391109
-0.0332386
-0.0224637
-0.0143577
-0.00868771
-0.00500761
-0.00668683
-0.00866702
-0.00862222
-0.0062736
-0.00784168
-0.0118989
-0.0107153
-0.0145235
-0.014582
-0.013579
-0.0186261
-0.0185892
-0.0145527
-0.0107558
-0.0145698
-0.0113078
-0.00864136
-0.00500365
-0.00667504
-0.00667194
-0.00378028
-0.011313
-0.0142433
-0.022254
-0.032904
-0.039321
-0.0496176
-0.049437
-0.0496018
-0.0392783
-0.027503
-0.0181541
-0.0173576
-0.0182269
-0.0231939
-0.0231295
-0.0173041
-0.020327
-0.0129834
-0.0291852
-0.0263788
-0.0348058
-0.0348734
-0.0276495
-0.0272802
-0.0179596
-0.0111654
-0.00657049
-0.00370304
-0.00210756
-0.0013806
-0.00166317
-0.00278505
-0.00501536
-0.0087708
-0.0113437
-0.0145699
-0.0228403
-0.0338421
-0.0395636
-0.0528095
-0.050687
-0.0525417
-0.0460724
-0.0462078
-0.0587469
-0.0665183
-0.0627951
-0.052556
-0.0586278
-0.0663132
-0.063007
-0.0586294
-0.0674068