/*--------------------------------*- C++ -*----------------------------------*\
| =========                 |                                                 |
| \\      /  F ield         | OpenFOAM: The Open Source CFD Toolbox           |
|  \\    /   O peration     | Version:  2306                                  |
|   \\  /    A nd           | Website:  www.openfoam.com                      |
|    \\/     M anipulation  |                                                 |
\*---------------------------------------------------------------------------*/
FoamFile
{
    version     2.0;
    format      ascii;
    arch        "LSB;label=32;scalar=64";
    class       volScalarField;
    location    "1.5";
    object      gradTx;
}
// * * * * * * * * * * * * * * * * * * * * * * * * * * * * * * * * * * * * * //

dimensions      [0 -1 0 1 0 0 0];

internalField   nonuniform List<scalar> 
5322
(
-0.0178413
0.0011112
0.00114713
-1.80805e-05
-7.91324e-05
-6.37315e-05
-4.12018e-05
-2.56237e-05
-1.63321e-05
-8.84698e-06
-3.20155e-06
1.70086e-05
2.24869e-05
-0.000300112
-6.01685e-07
0.000600021
-0.000463403
1.57122e-05
-0.000402477
0.000449392
-0.000591458
0.000919376
-0.000966061
0.00168105
-0.00175514
0.00275015
-0.00277326
0.00444833
-0.00449548
0.00655744
-0.00623344
0.00984999
-0.00724402
0.0148171
0.00152592
0.0226697
0.0160944
-0.00637419
0.0175907
-0.00105641
-0.0167033
0.0167346
-0.00101249
-0.0177886
0.0177089
-0.000600673
-0.0189008
0.0166896
-0.000382516
-0.0198507
-0.0197426
-0.0282828
-0.00948356
0.0176517
-0.00116882
-0.0287492
-0.000896858
0.0272935
-0.000327466
-0.0272846
-0.000116433
0.026581
-0.000134931
-0.0267986
3.61462e-05
0.0262383
0.000403683
-0.0265449
0.00145673
0.0219323
0.00136209
-0.0204138
0.023199
-0.0238825
0.022979
-0.0234121
0.0234284
-0.0234528
0.0267285
-0.0196749
0.00915975
-0.0146913
-0.0100126
0.015249
0.00120479
-0.00629898
0.0113376
-0.0315217
-0.00956339
0.0340404
-0.00156063
0.000282329
0.000480095
0.00351054
0.0191477
-0.00362132
0.000480949
-0.00114298
0.0116607
-0.0278137
-0.0277397
0.0559421
-0.00117088
0.0148281
0.0242273
0.000751901
0.0002948
0.000201703
9.33256e-05
2.66347e-05
-5.0271e-07
-8.49259e-06
-9.63668e-06
-8.12266e-06
1.03791e-06
-3.57035e-06
-0.000190648
-0.000179829
2.67488e-05
0.000108319
2.1085e-06
0.000155223
-0.000187483
-1.53184e-05
-5.15551e-05
0.000292514
0.000235262
5.88544e-05
0.00018616
0.000114043
8.4117e-05
0.000200284
9.36805e-05
0.000101263
0.000203631
8.01876e-05
0.000164877
0.000231803
0.000259031
1.04055e-05
-0.000196262
6.4479e-06
0.000138093
-0.000174589
-0.000194609
3.46802e-05
7.01355e-05
3.37133e-05
-0.000151633
-0.000167963
3.99086e-05
3.93119e-05
5.04957e-05
-0.00016647
-0.000154853
4.04721e-05
2.16184e-05
8.64062e-05
-0.000170799
0.000225893
-0.000532208
-0.000695173
0.000779772
-0.00112264
-6.36601e-05
-0.000592074
1.46342e-05
0.000506337
-0.000114503
0.000496841
0.000243346
0.000366981
-0.00063976
0.0002294
-0.000553676
0.000464624
0.0006034
-0.000939353
8.60117e-05
-0.000799104
0.000949665
0.00118193
-0.00167028
0.00010317
-0.0014016
0.00178753
0.00218764
-0.00295107
0.000179419
-0.00246624
0.00314702
0.00382993
-0.00500688
0.000289578
-0.00418564
0.00516991
0.00631133
-0.00811241
0.00043848
-0.00679429
0.00793107
0.00977797
-0.0125123
0.000641598
-0.0104599
0.0113445
0.0142225
-0.018101
0.000933801
-0.014929
0.0148014
0.018428
-0.00318379
0.0111594
-0.027528
-0.0280773
0.0561758
-0.00248083
-0.00264151
0.000566583
0.00381803
0.0190715
-0.00262894
0.000675101
-0.00319464
0.0107145
-0.0279864
-0.0276125
0.0558312
-0.00157683
0.0148179
0.000456609
0.000466799
0.00023887
0.000122485
4.32911e-05
7.03446e-06
-5.54879e-06
-8.69818e-06
-7.57494e-06
9.23402e-07
-3.5311e-06
0.000146981
-0.000165438
0.000166442
-0.000146023
1.27345e-06
0.00014541
-0.000133377
5.17534e-07
-0.000155376
4.36454e-07
-0.00014392
4.66078e-07
0.000134666
5.3841e-06
0.000144193
-1.25347e-05
-0.000157808
-2.79948e-08
0.000155713
8.70665e-08
3.11811e-07
0.000294079
-0.000572981
0.000574165
-0.000564076
0.000749776
-0.000992515
0.00139524
-0.00185275
0.00253491
-0.0033132
0.00440363
-0.00560991
0.0072593
-0.00896845
0.0113343
-0.0135034
0.0166731
-0.018854
0.0227278
-0.0134016
0.00034582
0.0135906
0.000398778
-0.0221249
0.0183803
0.000111668
-0.0161583
0.013238
6.63002e-05
-0.0109782
0.0088149
3.9425e-05
-0.00702946
0.00551623
2.25724e-05
-0.00426251
0.00325728
1.31695e-05
-0.00245076
0.00182224
8.33941e-06
-0.00134478
0.000982304
5.2464e-06
-0.000719247
1.42118e-06
0.000722257
-0.000977844
-3.02951e-06
-0.00074606
0.000565568
-1.44863e-06
-0.00029597
-1.93955e-05
0.000299519
-0.000593998
0.000717433
-0.000978605
0.00132633
-0.00179292
0.00242397
-0.00318766
0.00422863
-0.00538261
0.00700388
-0.00858488
0.0110189
-0.0128584
0.0163662
-0.0177003
0.0223827
-0.0132467
-0.00333021
0.00553788
0.000606472
-0.0208511
0.0161619
0.000117408
-0.0147749
0.0119691
-6.45535e-05
-0.0097187
0.00789445
-8.54894e-05
-0.00617205
0.00489864
-6.70893e-05
-0.00374406
0.00289117
-5.31684e-05
-0.00215328
0.001631
-4.19389e-05
-0.00118005
0.000893696
-3.61103e-05
-0.00063035
0.000461036
2.2401e-06
-0.000148637
0.00024334
0.000405143
-2.88228e-05
3.8637e-05
-7.59536e-05
0.000237595
-0.000738275
0.000702697
-0.00113452
-0.000764275
-0.00095658
8.97708e-05
0.000490117
0.00054768
-0.000627434
0.000219322
-0.000552143
-5.83487e-05
1.30221e-05
-0.000199247
1.51827e-05
-8.85853e-06
-0.000202153
-1.04177e-05
-5.64722e-05
-0.000570859
-0.000619758
0.000563135
-0.000930356
-5.59368e-05
0.00114379
-0.00165997
0.00214915
-0.00293703
-0.000206031
0.00378709
-0.0049894
0.00625161
-0.00809035
-0.00011692
0.00967315
-0.0124285
0.0139785
-0.0177195
0.00367437
0.000559328
8.05582e-05
0.000118121
-0.000159862
-9.26226e-05
0.0100417
-0.0127613
0.000728466
-0.010351
0.0105665
0.0146129
-0.0177885
0.00116917
-0.0156464
0.0131278
0.0263929
-0.00202042
0.00147362
-0.030198
-0.0280936
0.0534853
-0.00367454
0.000488483
0.000898316
-0.0122383
0.00233247
0.00669733
-0.00696853
0.000433905
0.00487146
-0.00432248
1.97015e-06
0.00299737
-0.00276248
-4.64217e-05
0.00168669
-0.0016188
-6.67162e-05
0.00100438
-0.000894985
-6.96622e-05
0.000583059
-0.000415643
-6.17328e-05
0.000418164
0.000138684
9.49481e-05
-1.21144e-05
-5.95548e-06
0.000250423
-0.00010431
0.00141592
-0.00201498
0.00266835
-0.00357467
-0.00230734
-0.00301734
0.000183229
0.00175603
0.00220769
-0.0017027
0.000105677
-0.00130628
-9.03851e-05
-4.52139e-05
-1.71538e-05
-3.6743e-05
-6.4662e-05
5.44646e-05
2.89493e-05
-4.20165e-05
-0.000309011
-9.91019e-05
0.000252746
0.00034539
0.000297505
0.000107115
0.000526362
0.000180875
0.000212854
0.000220258
-0.000231241
-0.000538935
-0.000872602
-0.000445938
0.000294089
-0.000275273
4.90878e-05
0.000584356
-0.000519585
0.0046997
-0.00607676
0.00779292
-0.00992908
-0.0064893
-0.00833478
0.000465905
0.00497426
0.00645978
-0.005134
0.000299703
-0.00394347
-0.000176825
-6.69006e-05
-6.6963e-05
-8.84524e-05
-0.000216699
-8.39157e-06
-6.17242e-05
-0.000134737
1.91864e-07
-2.18594e-05
0.000374806
2.60708e-05
-6.11112e-05
-6.20391e-06
1.26065e-05
4.69302e-06
-1.53034e-05
3.0941e-05
-0.000360594
-3.09975e-05
-1.68098e-05
-5.05716e-06
-5.11301e-06
0.000997961
5.83017e-06
-0.00138844
0.00135208
-0.00181167
-2.12182e-06
0.00186684
1.36984e-05
-0.00252247
0.00246802
-0.00323505
2.4023e-06
0.00334416
2.54475e-05
-0.00438039
0.00430006
-0.00547245
1.23406e-05
0.00567295
4.56532e-05
-0.00721993
0.00710428
-0.00873475
3.29071e-05
0.00908747
7.12291e-05
-0.0112735
0.0111097
-0.0131048
7.32611e-05
0.0136825
5.29547e-05
-0.0165674
0.0163296
-0.0182116
0.00012147
0.0189426
-0.00014074
-0.0225154
0.0221994
-0.0134747
-3.26678e-05
0.0133606
-0.000954511
-0.00229242
-0.00175077
-0.00278128
-0.027238
0.00560522
0.0035285
-0.00207945
-0.00416546
-0.00129555
-0.0209488
0.00485143
-0.00895739
-0.0118662
-0.00210601
-0.00356122
-0.00471859
-0.00247968
-0.00133391
0.000632626
-0.000730742
-0.0014244
-0.00131809
-0.000803674
-0.000512933
-0.000316335
-9.91411e-05
0.000302796
0.000300056
0.000305488
0.000351029
0.000481962
0.000460883
0.000325458
0.00032796
0.000229045
-0.000201182
6.21859e-05
-2.27489e-05
-1.57342e-05
5.65066e-05
-0.000175233
-3.7735e-07
-5.25147e-08
-2.64111e-07
5.74978e-07
-0.000111955
-0.000129911
-0.000129481
-0.000112604
0.000113114
-9.03473e-05
5.03369e-06
0.000131533
-0.000107559
-0.00010735
5.17942e-06
0.000130444
5.20523e-07
1.16074e-06
1.26269e-06
1.12285e-06
-6.76324e-06
2.88805e-06
-2.67118e-06
-1.69291e-06
4.24184e-06
1.99121e-05
5.3983e-05
1.21584e-05
-7.99747e-05
-0.000414539
0.000168897
-0.0002389
0.00135203
-0.00188744
0.0123673
-0.0154024
0.0188746
-0.000135566
-0.00535672
-0.00105595
0.00149438
7.33105e-05
0.000564528
0.000844621
-0.00230335
-0.00425457
-0.00834926
-0.0194828
-0.0200742
-0.0453107
-0.0180421
-0.0153372
-0.000228192
-0.00589722
0.0056144
-0.0402524
-0.0245989
-0.0119959
0.01753
0.00140364
0.000735481
-0.017873
0.0188161
0.000129734
-0.00234325
-0.0194872
0.0188717
3.84078e-05
-0.00258918
-0.019031
0.0188156
0.000149258
-0.0041488
-0.0181712
0.0134327
-0.0116478
0.010192
0.00777956
0.0219437
-0.0103224
-0.00571525
0.00322175
0.0123531
-0.0372461
-0.00178463
-0.0216064
0.0212296
0.0205196
0.018761
0.0237346
0.0103976
0.00156804
0.00854709
0.0124153
0.0193908
-0.0063967
0.00167662
0.0109278
-0.00663017
0.000123091
0.00674776
-0.00462259
1.37632e-05
0.00435027
-0.00285743
2.60508e-05
0.00273191
-0.0016916
2.15621e-05
0.0016328
-0.000967667
7.39045e-06
0.000908491
-0.00056833
-2.59827e-05
0.000446758
-0.000393824
-0.000128512
4.0661e-05
-0.000403884
-0.000246835
0.000150717
-0.000459604
0.000640818
-0.000886072
3.67571e-05
-0.000716275
0.000594228
-3.91807e-07
-0.000298051
1.99894e-05
0.000296802
-0.000293049
2.5424e-06
3.13615e-06
1.31992e-06
1.82618e-06
4.2e-06
8.0978e-06
2.45066e-05
4.34142e-05
7.85743e-05
-0.000307904
4.89793e-06
-0.000127684
0.000924136
-0.000941086
9.92729e-05
8.37107e-05
0.000431255
0.000451703
0.00304412
0.00390406
-0.000204659
-0.00246028
0.00315374
0.0002907
-0.00417987
0.00516757
0.000442034
-0.00681143
0.0079071
0.000650051
-0.0105818
0.0112745
0.000936703
-0.0153261
0.000536965
0.000855815
-0.0023936
-0.00239457
-0.00789539
-0.00398716
-0.00222537
-0.00130492
-0.00080593
-0.000519966
-0.000321603
-0.000104516
0.000296703
0.000290212
0.000292686
0.000460892
0.000284692
-0.000105267
-0.000321343
-0.000535066
-0.000840198
-0.00134348
-0.00224405
-0.00397991
-0.00764473
-0.0177217
-0.018518
-0.0317366
-0.025897
-0.00869434
-0.00864688
0.0159298
0.00167374
-0.00198875
-0.00158656
0.00741492
0.000246971
-0.00604672
-0.00577443
0.00591157
-1.01895e-05
-0.00662295
-0.00632663
0.00521808
7.39798e-06
-0.0082252
-0.00783932
0.00262523
-0.0115176
0.00803866
0.00780703
0.00815219
0.00714045
-0.00980802
0.000759319
0.00347684
-0.0114571
0.00260987
-0.0106481
0.0121886
-0.0263412
-0.00107727
-0.0253604
0.0196399
0.021074
0.0202157
0.0198218
0.0203922
0.019725
-0.0274657
-0.00131345
-0.0247693
0.0155072
0.0166441
0.0155745
0.0164371
-0.00108204
-0.0264303
-0.0262508
0.0122232
0.0202589
0.0188394
0.0178082
0.0222317
0.0221864
0.0171923
0.00489596
0.0101161
0.00429091
-0.00239403
0.0037433
0.000887123
-0.0027529
0.00193759
0.000303571
-0.0020136
0.00128239
0.000198668
-0.00137673
0.000798791
0.000115111
-0.000863237
0.000502232
8.87777e-05
-0.000527737
0.000272301
3.37783e-05
-0.000312408
0.000137887
-1.12443e-06
-0.000210748
3.55688e-05
-8.5009e-05
-0.000226918
-9.99126e-05
-0.000291287
-0.000353202
-0.00034727
-0.000233338
-0.000165387
-0.000259538
-1.00974e-05
0.00019668
-0.000144561
1.52524e-05
0.000161419
-0.000160023
7.00899e-06
0.000167547
-0.000172525
-6.48915e-06
-1.31646e-05
-0.000318511
-1.46933e-06
-0.00058714
1.21806e-06
-0.000729205
6.53117e-06
0.000992902
-0.00100453
-1.12238e-06
-0.00133121
4.65448e-05
0.00180862
-0.00163586
6.29112e-05
0.00219006
5.54175e-05
-0.00289949
9.82346e-05
0.00378963
7.66776e-05
-0.00489017
0.000146234
0.00620595
6.9749e-05
-0.00779803
0.000198914
0.00959983
7.78707e-05
-0.011733
0.000273931
0.0140486
-7.72598e-05
-0.0164857
0.000467293
0.0192371
-0.00013315
-0.000664484
-0.0240346
-0.0174183
0.000784417
0.0190589
-0.000319871
-0.0172561
-0.0119814
0.000635225
0.0139435
-0.000192917
-0.011746
-0.00808174
0.000397594
0.00935867
-0.000136213
-0.00756732
-0.00518297
0.000257022
0.00590763
-7.64335e-05
-0.00458686
-0.00314707
0.000158336
0.00351162
-4.8251e-05
-0.00262156
-0.00180487
8.19292e-05
0.00199461
-1.93175e-05
-0.00139812
-0.000982955
4.04684e-05
0.00112634
8.27644e-06
-0.000697609
-0.000500402
5.45283e-05
0.000733711
7.85828e-05
-4.26999e-05
0.000150688
-0.000247044
-0.000404704
4.11975e-05
-0.000130322
3.5026e-05
0.000367604
-2.9184e-05
6.35235e-06
-0.000301906
2.75475e-06
0.000588404
-0.000572389
-1.99983e-08
-0.000720538
3.74584e-05
-0.00089635
3.52779e-05
0.00120542
5.94715e-05
1.38267e-05
9.148e-06
9.7162e-06
0.000758702
8.98373e-06
-4.30188e-06
-0.000133635
-1.49021e-08
0.000148563
1.0627e-06
8.45379e-07
8.68213e-07
-2.27297e-05
-2.65214e-05
-1.92259e-05
-0.000197578
-1.18683e-05
-5.543e-05
-5.01544e-05
-4.88373e-05
-5.6072e-05
0.00116227
0.000960467
-4.85316e-05
0.000149635
5.7105e-05
4.72742e-05
0.000495957
8.70339e-05
-0.000804815
0.000971228
0.000103025
-0.00140103
0.00180189
0.00017909
1.14189e-05
-0.00010055
-0.000118078
-0.00015901
-0.000202109
-0.000252584
-0.00021175
-0.000164016
-0.000103193
-0.00011725
-0.000100122
-5.0789e-05
-5.90254e-05
-0.00078531
0.000949478
0.00153034
-0.0019951
0.002797
-0.00353267
-8.38281e-05
-0.00209901
1.34407e-05
0.00168113
-6.21346e-05
-0.00115396
-1.5138e-05
0.000962086
-6.37912e-05
-1.24541e-05
-0.000892001
-6.76112e-05
0.00116232
-0.00130066
4.96999e-06
-0.00288138
-2.35332e-05
0.0037458
-0.00330973
8.34263e-06
-0.00437764
7.50474e-06
0.00563366
-0.00555738
3.02881e-06
-0.00703111
8.27397e-06
0.00879004
-0.00903897
-3.02908e-05
-0.0106707
9.52154e-05
0.0129021
-0.0155237
7.47457e-06
0.018126
-0.0208562
-0.000221898
-0.000621924
-0.000101727
-1.79547e-05
2.37485e-05
2.88042e-05
2.3712e-05
1.76152e-05
1.17564e-05
9.39078e-07
4.18567e-06
-0.00014595
0.000167505
-0.000164359
-0.000146785
1.38054e-06
1.88869e-06
-6.06978e-06
8.15611e-06
0.000138089
7.66898e-07
-1.53693e-06
-1.25112e-05
1.47163e-05
-1.46898e-05
-0.000192561
-1.13243e-05
-6.40464e-05
0.000438953
9.09073e-05
-1.53599e-05
-8.95835e-06
2.38042e-06
-1.79531e-06
0.000107445
0.000109681
-3.50537e-06
9.03089e-05
0.00014737
-2.8099e-06
-3.68813e-06
-4.06133e-06
-2.75787e-05
-2.07449e-06
-0.000162012
0.000570864
2.19065e-05
-0.000874633
-1.13705e-05
0.00114151
-0.00101305
-2.63184e-06
-0.00139693
1.67132e-06
-0.00184445
6.01027e-07
-0.00247712
1.16624e-05
0.00327769
-0.00335466
-7.50332e-06
-0.00420721
8.33463e-05
0.00541416
-0.00689715
9.76575e-05
0.00860983
1.70069e-06
1.18555e-05
1.24212e-05
1.03737e-05
6.97262e-06
7.34425e-06
1.34519e-06
4.09042e-07
-4.8626e-06
-6.87518e-06
-8.61607e-06
-1.6738e-05
-4.00529e-06
-4.65978e-06
2.69647e-06
2.6751e-06
3.44963e-06
5.81676e-06
7.14508e-06
1.1835e-05
1.33478e-05
1.44512e-05
2.39928e-05
3.27349e-05
0.000138119
0.000200213
-0.000612184
0.000188016
-0.00101479
0.00362427
-0.0230882
-0.00634937
0.000206175
-0.00210402
0.0109908
-0.0108987
-0.0328843
-0.0128763
-4.0386e-06
0.00331773
0.000308791
-0.0260812
-0.0114813
-0.00775935
0.0151531
0.00165354
-0.0017214
-0.00287898
0.0080498
0.000249683
-0.00564281
-0.00693905
0.00692269
9.84167e-06
-0.00618707
-0.00727605
0.00644785
5.93858e-05
-0.00794072
-0.00826045
0.00154598
-0.000448034
7.67618e-05
7.95023e-05
0.0181628
-0.0164594
0.000283334
0.01439
-0.000417949
0.000238154
-0.0181857
0.000470203
-0.0112352
0.0134121
0.000243538
-0.0151278
-0.0265487
0.0194486
-0.00158445
0.00262648
0.00876408
-0.000211297
0.0210423
0.0153732
0.0172526
-0.0203447
0.000775882
-0.017181
-0.000382759
-0.0190028
0.000939646
-0.0182101
-0.000390389
-0.0183079
0.000977116
-0.019559
0.0160395
0.0157259
-0.00104988
-0.0320441
-0.0257355
0.0120785
-0.00858979
0.0120317
0.00693966
0.00817325
-0.0105267
0.00290803
0.00225023
-0.0117849
0.00439526
0.00797503
-0.00993733
0.0168654
-0.00902031
0.00146726
-0.00874303
0.0013501
-0.00941677
-0.00736306
0.00125776
-0.000613398
-9.69605e-05
-4.91437e-05
1.46046e-05
4.17351e-05
3.715e-05
2.70147e-05
1.86656e-05
1.20465e-05
9.28562e-07
4.36872e-06
-9.06248e-05
0.000113771
1.35501e-06
2.20635e-05
1.56477e-05
1.28187e-05
-0.00014426
-5.9219e-06
0.000176002
-0.000136831
-7.06197e-05
0.000175254
-0.000165365
-0.000234422
-0.000260508
0.000201015
0.000196888
-1.03082e-05
-1.52836e-05
-5.55837e-05
7.77821e-06
0.00020364
-3.04264e-05
-4.26325e-05
-3.75801e-05
0.000167406
0.000168024
-4.3387e-05
-2.95631e-05
0.000202583
-9.15441e-05
-0.000211264
-9.22601e-05
0.000200359
1.33457e-05
1.09976e-05
-1.26125e-05
1.50367e-05
3.60256e-05
0.000369011
-2.97516e-05
1.74053e-05
-1.52972e-06
-5.55385e-06
-1.06204e-05
-1.7544e-05
-3.09134e-05
-5.99124e-05
-0.000116793
1.97058e-05
-5.02831e-05
0.000112707
-0.000732932
-0.000199571
0.000822813
-0.00142758
-0.000497149
-0.000520491
-0.0156541
0.0150398
-0.000447487
-0.00034248
0.0009975
-0.000695479
-0.000359047
0.00274749
0.00496959
0.00265442
0.0146379
-0.00677318
0.00173189
0.01106
0.0123897
-0.00350776
0.00129102
-0.000145901
0.000772798
-0.000184201
5.58627e-05
-0.0012177
-6.72625e-05
6.05666e-05
2.11806e-05
3.44605e-06
-2.12127e-06
8.07255e-06
-4.2887e-07
6.40891e-06
6.7573e-06
8.87726e-06
7.12529e-05
0.000141902
0.000231063
0.000343319
0.000482521
0.000713447
0.000376693
0.000111981
0.000216503
0.000122951
5.39934e-05
2.30535e-05
1.67968e-05
8.68814e-06
1.83138e-05
1.43038e-05
-0.00132176
0.0011947
-0.00161476
0.00216655
-0.0028638
6.48827e-05
-0.00240631
0.00179617
4.59605e-05
1.0074e-05
7.37898e-06
6.4626e-07
0.000980417
8.62569e-06
-4.49435e-06
0.000158305
-2.38535e-07
7.49639e-06
1.91315e-05
-3.24671e-05
0.000194902
0.000152571
-6.06744e-05
2.51973e-05
-2.42612e-07
-2.12201e-07
9.26709e-05
-3.33562e-06
-1.7167e-07
6.37564e-05
-0.000200923
5.59234e-05
1.22568e-06
2.29446e-05
1.65307e-05
1.81832e-06
-1.51253e-05
8.18162e-06
1.61379e-05
-6.07851e-05
-5.58399e-05
0.000195673
-7.11968e-05
-0.000136243
-3.29524e-05
0.000176985
-5.69059e-06
1.90563e-05
1.11605e-05
-8.46891e-07
2.41708e-06
8.0838e-06
1.12717e-05
4.96666e-05
1.80491e-05
3.46566e-05
4.93912e-05
6.21429e-05
1.1903e-05
-2.70464e-07
1.73146e-05
-8.03283e-07
0.00319609
-0.00418334
0.00375401
-0.00484462
0.00617191
-0.0077722
0.000151145
-0.00689645
0.00540059
9.75921e-05
1.04574e-05
8.46288e-05
9.68913e-05
0.000130024
0.000132921
2.52159e-05
-1.88642e-06
2.20291e-05
2.24587e-05
3.59034e-05
3.01859e-05
4.32114e-05
0.000101923
0.000279095
0.000148801
0.000960755
0.000122518
5.09104e-05
1.86488e-05
3.37067e-06
-3.89352e-06
-1.08328e-06
-1.71042e-06
5.787e-06
3.31067e-06
1.95394e-06
1.14231e-05
1.27114e-05
9.44641e-06
-6.52992e-06
-8.97807e-06
1.03902e-06
1.80219e-07
-2.24561e-06
2.39294e-06
5.00195e-06
9.4082e-06
1.62128e-05
2.08613e-05
3.13973e-05
2.51324e-05
3.27714e-05
6.27631e-05
5.38851e-05
3.79715e-05
9.36222e-05
0.000246861
8.45132e-05
8.72159e-05
0.00343151
-0.000588014
0.000382869
7.26178e-05
0.00025124
0.00727764
-0.000283173
-0.00105634
0.00594939
0.00206787
-0.0260004
-0.00952506
-0.0162215
0.0161829
-0.0115565
-0.0124037
0.0146296
-0.0173415
-0.000939696
-0.00130074
-0.0166275
0.0148963
-0.00012409
-0.000730035
-2.95066e-05
0.000286555
0.000388639
0.00629468
0.00220944
-0.0114638
-0.0106379
0.0177524
0.00159677
-0.00418808
-0.00128637
0.00693044
0.000175878
-0.00808635
-0.00525616
0.0052777
-1.78017e-05
-0.00840672
-0.00577459
0.00463291
-4.03307e-05
0.00737413
0.00716008
0.000413333
0.010089
-0.00987117
8.18172e-05
-0.00780298
-6.04526e-05
-0.000136742
-2.01535e-05
7.41771e-06
1.53326e-05
1.23188e-05
7.90735e-06
4.55096e-06
2.23432e-06
-1.08554e-06
-4.70893e-06
0.00010731
-0.0013796
0.00180127
0.000182223
-0.00243568
0.00317117
0.00485282
-0.00599464
0.00796386
-0.00970651
-0.000155665
-0.00610861
0.000119203
0.00498334
-0.000120678
-0.00366402
4.92223e-05
0.00295727
-0.000345737
-0.000241762
-0.00287112
-0.000154706
0.00347169
-0.00391879
3.18865e-05
-0.00813781
-2.22249e-05
0.0101471
-0.00887103
2.53458e-05
-0.0110301
2.69416e-05
-0.0132555
-2.35619e-05
-0.0157236
-4.9544e-05
0.0183555
-0.0190661
-1.53151e-05
0.0213373
-4.94793e-05
-0.0209884
0.0209132
-6.46086e-05
-0.018572
0.0187798
-0.0211838
-1.24084e-05
2.14336e-05
0.000114021
8.02769e-05
3.4599e-05
1.09778e-05
1.13024e-06
-2.87588e-06
-5.21712e-05
-7.58317e-05
-0.00015738
-0.000198542
-0.000204956
-0.00025303
-0.00413735
0.0052104
0.000447324
-0.00671415
0.00800701
0.0123488
-0.0150196
0.0180397
-0.0218636
0.000342141
-0.0160977
0.00156816
0.0120488
-0.000125869
-0.00991594
0.000390655
0.00799343
-0.000751841
-0.000390561
-0.00719725
-0.000121896
0.00881607
-0.00962429
0.000122197
-0.0182494
7.35008e-05
0.0216703
-0.0185431
-5.181e-05
0.0211716
0.000144566
-0.0241218
0.0141555
2.1229e-07
-0.0140545
0.0121912
-0.0160296
0.000436721
-0.00294239
-0.00146033
-0.00243448
-0.00404602
0.0162874
-0.0261491
0.00556285
-0.00625388
-0.00297278
-0.00165898
-0.00102698
-0.000654894
-0.000406093
-0.000213683
2.52001e-05
0.000944258
0.000428098
-0.000220975
0.000150607
5.85461e-05
0.000557938
-0.000495463
0.000467097
-2.90523e-05
-0.000311411
1.17715e-05
0.000631294
-0.000609507
-4.04574e-06
-0.00075633
5.60888e-07
-0.000994552
-6.85787e-08
-0.00136079
9.6196e-06
0.001838
-0.0018767
-3.93867e-06
-0.00242425
6.10482e-05
0.00321423
1.53785e-05
6.51169e-06
0.00255945
8.31428e-06
0.00141127
-1.52014e-06
-2.39877e-06
-8.51108e-06
-2.87571e-05
1.27614e-06
0.000310462
1.87322e-05
1.56204e-05
0.000110738
0.000195692
-0.000395672
-3.7762e-05
-0.000714619
5.25368e-06
-0.00159752
-1.81561e-05
0.0021009
-0.00186053
2.3561e-06
-0.00253124
3.48174e-06
-0.00329175
2.36545e-06
-0.00429343
1.24197e-05
0.00552932
-0.0056698
-1.49708e-05
0.00723231
-4.39243e-06
3.81627e-06
0.00442555
-1.27396e-07
1.61164e-05
6.44326e-06
-3.05659e-06
0.00137603
-1.07542e-05
0.000745685
4.60155e-05
-3.67029e-05
0.000682048
-2.00586e-05
4.89688e-05
-0.000114452
0.000979312
-7.75171e-05
-0.000137534
-0.00166048
-0.000109111
-0.00231783
1.33033e-05
-0.00497535
-2.74062e-05
0.00633918
-0.00557971
1.6913e-05
-0.00715841
1.52899e-05
-0.00884419
-2.65188e-06
-0.0108512
-9.4592e-06
0.013149
-0.0135797
-5.0625e-05
0.0160876
-3.16606e-05
-2.93442e-06
1.27331e-05
1.7064e-05
3.1248e-05
2.4514e-05
1.76946e-05
1.0899e-05
9.0216e-06
9.20215e-06
1.40082e-05
9.8797e-06
0.000105038
0.000178131
0.000270085
8.95767e-06
3.16544e-05
2.19546e-05
1.88109e-05
1.29634e-05
1.38561e-08
4.48577e-06
-9.64991e-05
-0.00106405
5.04891e-05
-0.00104039
0.00154822
0.000110738
-0.00195454
-0.00200235
0.00157702
0.00147431
0.000108035
-0.00186704
-0.00213561
0.00167087
-0.00112576
4.8287e-05
-0.00100611
0.000844947
0.000889266
0.000876928
0.000854737
5.03494e-05
-0.00110538
-0.00102902
-9.65774e-05
0.00149882
0.000110552
-0.00209521
-0.00191372
-0.000166968
0.00261543
0.000212985
-0.0037033
-0.00336253
-0.00344967
-0.00353522
0.000216492
0.00270594
0.00276134
-0.00016611
0.00256772
0.000211045
-0.00327878
-0.00377537
0.00293556
-0.000171744
-0.00176238
-0.00263616
7.71205e-05
0.00134838
-0.000100962
-0.000961233
-0.00140847
3.61442e-05
0.000791053
0.000941987
-0.00053093
5.24566e-05
-0.00051538
-8.43389e-05
-0.000524141
5.22836e-05
-0.00051467
-8.42824e-05
-0.000524577
5.37797e-05
-0.000522746
0.000929826
0.000798318
-8.80843e-05
-5.25054e-05
0.000106861
-0.000299836
-0.000304605
-0.000299046
-0.000333561
-0.000317238
-0.000319979
-0.00031632
-0.000306047
-0.000462837
-0.000330635
-0.000300749
-0.00030419
-0.000204136
-7.96912e-05
-0.000101915
0.000202306
-0.000227135
0.000588209
0.00059545
0.000591297
0.000591383
0.000613944
0.000564643
-0.000217661
0.000175999
-7.90177e-05
-0.000204011
-0.000102489
0.000203543
1.12946e-05
5.00004e-05
5.08326e-05
0.000107339
0.000181622
-6.82602e-06
-0.000266611
0.00461098
0.000354272
-0.00570953
-0.0058535
-0.00541233
-0.00625481
0.000342467
0.0042875
0.00491586
-0.000273204
-0.00307191
-0.00462422
0.000153953
0.00235399
0.00353145
-3.95633e-05
0.000302533
-0.000540608
8.33746e-05
0.000530128
-0.000901144
0.000130197
0.00089192
-0.00140009
0.000237085
0.00157189
-0.00190471
0.00070757
0.0033987
0.000481647
0.0019538
-0.000573246
0.00105104
-0.000549337
0.000698717
-0.000391697
0.000468036
-0.00025658
0.00028735
4.31218e-05
-0.00031514
0.00200261
-1.71669e-05
0.000154559
-0.000210151
2.83983e-06
0.000101206
-0.000176427
-0.000182388
4.58932e-05
9.5851e-06
-0.000703009
5.20443e-05
-0.000491314
-8.83123e-05
-5.1493e-05
0.00011567
-0.000237577
-0.000347731
-0.000351188
-0.000292247
-9.84297e-05
-0.000228271
-8.3372e-05
-0.000149086
-0.000521516
7.93141e-05
0.000735513
0.000562732
0.000618167
-0.000217442
-0.000482344
-0.000298884
0.000108748
0.000340861
0.000340183
0.000569283
0.00086249
0.00124993
0.000251802
-0.00505109
-0.00765752
0.00594392
0.00395245
-0.000421044
-0.000258289
-0.000136515
-0.000119852
0.000537348
0.000780792
0.00109398
-0.000623258
-0.000405436
0.0077685
0.000503424
-0.0084075
-0.00977274
-0.00780022
-0.0120542
0.000365983
0.00631543
0.009479
-6.82293e-05
0.000118927
5.44239e-05
3.48594e-05
6.65562e-05
0.000119337
-0.0107809
0.00964266
-0.0117752
7.05804e-05
0.000283346
0.000189471
0.000145776
3.3648e-05
-4.59473e-06
0.00862524
3.76001e-05
1.00046e-06
0.0129809
0.000229078
-4.88339e-06
0.000374504
0.000475364
-7.61049e-05
1.18693e-05
3.51186e-05
1.59699e-05
2.37706e-05
-2.12387e-05
2.8147e-05
2.33395e-05
3.8055e-05
4.27349e-06
2.99155e-05
2.64354e-05
9.73959e-06
6.853e-07
1.7322e-06
7.01276e-07
1.08711e-05
0.000293347
0.000499842
0.000312998
0.000250059
0.000252261
0.000279859
0.000132154
0.000131918
4.63868e-05
8.4423e-05
0.0005246
0.000175753
0.00040934
0.000404618
0.00057264
0.000578809
0.000659101
0.000671622
0.000674536
0.000901655
0.000720132
-0.0103317
0.0114874
0.00100086
-0.0145999
0.000831411
0.000602246
-0.00234177
-0.0032162
-0.0215607
-0.0229252
-0.0382888
0.00969522
0.00317493
0.0178976
-0.00650324
0.010435
-0.00115112
-0.0117364
0.0106518
-0.000242368
0.00727205
-0.000263224
0.0100145
-0.0110029
-0.000892248
-0.000276067
-0.000330831
0.000137918
-0.00115881
0.00757384
-0.000324197
0.000438487
0.000236751
0.000117777
0.000141535
6.62669e-05
5.96074e-05
-0.000179476
-0.000182671
-0.000134353
4.8864e-05
0.000595246
7.52136e-05
-6.62825e-05
-9.15263e-05
0.00495993
-0.0062838
7.02341e-05
-0.0125731
8.11049e-06
0.015354
-0.0132737
1.91173e-05
-0.0159452
2.87473e-05
0.0157775
-3.59097e-06
8.70058e-06
1.61402e-05
3.40491e-05
8.52192e-05
0.000669686
0.000130279
4.25437e-05
1.87445e-05
6.47534e-06
6.67556e-06
6.33381e-06
3.92366e-06
2.09829e-06
0.00137728
3.29538e-06
0.00186538
1.26213e-06
0.00100047
0.000738857
1.91979e-06
0.000584726
0.00031028
8.12811e-06
1.00094e-06
-6.63047e-07
6.35389e-06
3.75061e-06
0.0025006
6.64342e-05
-0.00019139
0.00204028
-0.000130827
0.00010174
-0.000287901
0.0030258
-0.000180565
-0.00034037
-0.00467917
-0.00017683
0.00566672
-0.000407684
-0.000230505
0.000239388
0.000158407
1.477e-05
0.00433654
1.15173e-05
0.00433646
2.83811e-05
4.10193e-05
0.00711238
2.1166e-05
0.00897316
4.0177e-05
0.000105613
0.0110036
-0.000614461
0.00767675
-0.000416321
-0.0005336
-0.0107611
9.13381e-05
0.0110938
-0.00117316
0.000281549
-0.000207792
-0.0020983
-0.00556533
-6.45981e-05
-0.000870313
-0.000367092
0.00022652
0.000226385
0.0159756
3.61129e-05
-1.37851e-05
-5.87653e-05
-7.43558e-05
-0.000331602
-1.34081e-05
4.62545e-05
3.65598e-05
0.0134492
0.0109289
-9.73761e-06
-1.16589e-06
-3.69807e-05
-9.59392e-05
-0.000130414
-0.000575915
-0.000193489
-0.000177069
-8.12151e-05
-2.71457e-05
0.0111353
-2.74449e-05
5.29862e-06
1.26419e-05
0.000231858
0.000141153
7.11246e-05
-2.66701e-05
-5.13054e-06
0.000346188
0.000485861
0.000691082
-6.31928e-05
0.000290443
0.000247831
-0.000474919
0.00230998
0.00526167
-0.00357389
0.023342
0.00210972
0.00128696
0.000460815
0.0011755
0.00130989
0.00106873
0.000773179
0.000532559
0.000337228
0.000342773
0.000110683
-4.25577e-05
-4.29487e-05
-0.000462656
-0.000227215
-0.000482041
-0.000238579
0.000113173
0.000335521
-0.000138012
-0.000101214
0.00136798
0.00164424
0.000104976
4.15413e-06
8.55586e-06
7.92299e-06
8.63322e-06
9.7013e-06
1.84033e-05
-1.23045e-05
0.000200292
0.000644369
5.09463e-05
4.95231e-05
7.45062e-06
-8.69081e-07
1.16555e-05
1.12892e-05
1.41623e-05
1.57161e-05
-9.10656e-06
0.000176783
0.000266352
0.000275082
0.000381142
-6.22441e-05
-0.000573266
-0.00914116
0.000533763
-0.00889492
0.0103954
0.00080212
-0.0130731
-0.0135209
0.010689
0.0100072
0.000718318
-0.0123182
-0.0144684
0.011459
-0.000581482
0.00956431
0.0142388
-4.05022e-06
8.86074e-05
-0.000876651
0.00173006
0.00225692
0.0027135
0.00525782
0.00596255
0.0129063
0.0302281
0.00386966
0.0158383
0.0234842
-0.00209413
-0.00123964
0.00147149
0.0014084
-0.000795276
-0.000565054
0.00677397
0.00726422
0.00709927
0.00688557
0.000524787
-0.00954864
-0.00868383
-0.000581789
0.0101722
0.000801844
-0.0140384
-0.0128875
-0.000823314
0.0138868
0.0148062
0.0131467
-0.000802248
-0.000147581
-0.000211629
-1.55991e-05
2.14013e-05
9.29404e-05
2.1522e-05
2.15035e-05
-2.97463e-05
-1.16328e-05
-0.000212178
0.00214693
-0.00024282
-0.000146944
-0.000329726
-0.000297672
-0.00018589
-0.000315092
-0.000143349
0.00571425
-0.000176276
0.000102006
2.54927e-05
9.6132e-06
0.000228408
0.000198748
-0.00260166
0.0130143
-0.00682726
-0.0239695
-0.0278974
0.0024282
-0.0133226
0.00566595
0.00183979
-0.00826344
-0.00920696
-0.000905137
-0.00133056
0.00869857
0.00806845
-0.000816967
-0.0079287
-0.00017222
0.00785433
-2.28676e-05
8.02501e-05
-2.06973e-06
7.67213e-05
0.000279442
0.000290499
0.000185081
4.48712e-05
3.18691e-05
-5.43445e-05
-5.08284e-05
3.54667e-06
-7.35865e-05
-2.6767e-05
-8.85465e-06
0.000369449
0.000480709
0.000484084
-0.000193841
0.000591037
0.000527863
-0.000266606
0.0199492
-0.00113943
0.00130548
-0.0221264
0.000529691
0.000280055
0.00300014
0.000360505
0.00060326
0.00193435
-0.000158383
-2.62614e-05
-0.000137189
0.000573971
0.00506873
-0.000340456
-0.000231019
-0.000143715
9.55385e-05
-0.0141347
0.0161775
-0.000618788
-1.19579e-05
-0.000767715