/*--------------------------------*- C++ -*----------------------------------*\
| =========                 |                                                 |
| \\      /  F ield         | OpenFOAM: The Open Source CFD Toolbox           |
|  \\    /   O peration     | Version:  2306                                  |
|   \\  /    A nd           | Website:  www.openfoam.com                      |
|    \\/     M anipulation  |                                                 |
\*---------------------------------------------------------------------------*/
FoamFile
{
    version     2.0;
    format      ascii;
    arch        "LSB;label=32;scalar=64";
    class       volScalarField;
    location    "1.5";
    object      gradTy;
}
// * * * * * * * * * * * * * * * * * * * * * * * * * * * * * * * * * * * * * //

dimensions      [0 -1 0 1 0 0 0];

internalField   nonuniform List<scalar> 
5322
(
0.0453427
0.00567695
0.00169502
0.000948589
0.00146005
0.00145176
0.00114729
0.000814229
0.000544976
0.000332224
0.00011043
-0.000279464
-0.000259829
-0.000242183
-0.000225554
0.000534123
0.000695964
-1.08848e-05
0.000588666
-0.000966258
0.00115544
-0.00168439
0.00207649
-0.00298415
0.00369281
-0.00491827
0.00593587
-0.00794822
0.00940069
-0.0117626
0.0136745
-0.0167446
0.0195666
-0.0197995
0.0206218
-0.0120594
0.0243571
0.0294873
0.0149531
0.0169222
0.0217958
0.0183324
0.0197716
0.0203774
0.019438
0.0201588
0.0197496
0.021113
0.020527
0.0187773
0.0237373
0.0104115
0.0123337
-0.0374741
-0.00176677
-0.0214777
0.0119681
-0.0279284
-0.00126384
-0.0242602
0.0121438
-0.0274373
-0.00112186
-0.0240845
0.0122005
-0.0284766
-0.00157
-0.0233884
0.0123937
-0.0318842
0.000914392
0.0240732
0.013342
0.0187291
0.0139089
0.0176952
0.0147094
0.0176503
0.0150287
0.0211548
0.00146696
0.00854019
0.0124014
0.0195059
-0.00118041
-0.00677462
0.00265164
0.00499306
0.0110183
0.00165742
0.00297113
0.00051761
6.83768e-05
6.29199e-05
0.0229699
-0.0135007
0.000445826
0.0136491
0.000431405
-0.000812401
0.00264681
0.00045911
0.0146315
-0.0223302
0.0200473
0.000526502
-0.000469406
-5.43689e-05
1.50894e-05
4.39801e-05
3.90159e-05
2.80675e-05
1.91581e-05
1.21318e-05
1.24315e-06
4.15209e-06
0.000195874
-6.91018e-05
-3.34024e-05
-0.000137553
0.00017555
-7.93772e-05
-0.000165227
-0.000234308
-0.000260683
-9.58569e-06
0.000198053
-0.000145374
1.48769e-05
0.000161683
-0.000159921
7.108e-06
0.000167502
-0.00017217
-6.07084e-06
0.000155235
-0.000187663
-1.59664e-05
-5.14817e-05
0.000289628
0.000234697
-0.000170707
0.0001096
8.48071e-05
-0.000190867
2.81318e-05
-0.000179441
0.000138428
0.000147255
-0.000164033
-2.30743e-06
-0.000146704
0.000149019
0.000167614
-0.000145379
2.21881e-08
-0.000133908
0.000177339
-5.4616e-06
-8.99312e-07
0.000601157
-0.000463122
0.000644256
-0.000892416
4.59753e-05
-0.000399249
1.52489e-05
4.28091e-05
-4.49448e-05
0.000151369
-0.000300409
0.000301636
-0.0005733
2.73065e-06
0.000589233
-0.000728565
0.000759332
-0.00100527
6.37888e-06
0.000995639
-0.00135997
0.00141304
-0.00187785
1.06161e-05
0.00184612
-0.0024792
0.00256874
-0.00335894
1.62583e-05
0.00330061
-0.00431252
0.00446331
-0.00568742
2.63748e-05
0.00558914
-0.00711245
0.00735738
-0.00909406
4.38425e-05
0.0089284
-0.0111091
0.0114843
-0.013694
6.66179e-05
0.0133989
-0.0163538
0.0168776
-0.019107
9.76386e-05
0.0185744
-0.0223998
0.0225823
-0.0135479
-0.000101149
-0.00160379
0.000809498
-0.000476603
-2.28585e-05
0.000120962
0.000200048
1.72229e-05
0.0229942
-0.013491
5.87392e-05
0.0162347
-0.00254817
-0.00115554
0.00100807
-0.000938845
0.0135585
-0.0226506
0.000142504
9.8763e-05
0.000282172
0.00014615
5.54947e-05
1.32253e-05
-2.44899e-06
-7.27597e-06
-7.1478e-06
1.27063e-06
-3.37308e-06
-0.000155371
-0.000167352
-0.000168018
-0.000155073
4.16863e-05
4.60737e-05
2.41019e-05
-0.0001995
8.79513e-05
-0.000195762
4.564e-05
4.1783e-05
2.47215e-05
-0.000193339
5.90897e-05
0.000181487
0.000111004
-0.000199586
8.8336e-05
0.000197249
0.00027672
0.000304454
-0.000583053
-0.000582549
-0.00062416
0.000573618
-0.00090213
0.00112214
-0.00159312
0.00207593
-0.00280759
0.00363545
-0.00475841
0.00599278
-0.00770896
0.00929203
-0.0119095
0.0135607
-0.0173161
0.0184167
-0.0031892
0.0118568
-0.00180073
0.000535719
0.0159488
-0.0159326
0.000979587
0.0122932
-0.011257
0.000662579
0.00860558
-0.00733704
0.000448235
0.00560417
-0.00452465
0.000294001
0.00340841
-0.00266426
0.000181325
0.00193738
-0.00150928
0.000104101
0.00103055
-0.00085405
8.62608e-05
0.000503583
-5.08963e-05
0.000503811
-0.000853417
8.6352e-05
0.000575908
-0.00062183
0.000229999
0.000355039
0.000252609
0.000246004
-0.000545891
0.000456354
-0.000809598
0.000987795
-0.00142698
0.00187882
-0.0025263
0.00331642
-0.00430598
0.00546945
-0.00703265
0.00847551
-0.0108968
0.0123301
-0.0153745
0.0162281
-0.00170316
0.00890971
-0.00665955
0.000880625
0.022473
-0.0224271
0.00122081
0.0178696
-0.015322
0.000758731
0.0123354
-0.00973976
0.000476358
0.00792828
-0.00595808
0.000303763
0.00482766
-0.00349424
0.000184828
0.00278373
-0.00196401
0.000107744
0.00152244
-0.00110144
9.05303e-05
0.000772961
-0.000686533
0.000226929
0.000496923
0.000430783
-0.000214558
0.000507941
-0.000114033
5.96149e-05
0.000562213
-0.000496445
0.000572686
-0.000712894
0.00114308
-0.00101563
-1.11448e-05
-0.000871832
0.00074597
-0.000610668
1.28393e-05
0.000631323
2.38547e-05
-1.0166e-06
-0.0001604
1.41823e-05
-1.26339e-05
8.40449e-06
-5.63136e-06
-3.05265e-06
0.000585979
-0.000587332
0.000739458
-0.000995379
2.21852e-06
0.00138025
-0.00184713
0.00251805
-0.00330045
1.24955e-05
0.00438581
-0.00558315
0.00724497
-0.00890983
3.14278e-05
0.011325
-0.0133661
0.0166262
-0.0185724
-3.41049e-05
3.30715e-05
5.30831e-05
0.000151913
7.3621e-05
7.92071e-05
0.0114517
-0.0133666
5.87526e-05
0.0158993
-0.0190069
0.0169721
-0.0184007
0.000168237
0.0224849
-0.0251368
0.0161794
-0.0124477
-0.0236735
-0.00185983
5.89085e-05
-0.00848348
-0.00230164
0.000307284
0.0118663
0.0143847
0.000902172
-0.0184968
0.0120149
-5.69947e-05
-0.0103926
0.00797467
-0.000164949
-0.00621127
0.00501973
-0.00010927
-0.00361389
0.00296158
-9.14225e-05
-0.00206831
0.00172578
-6.86059e-05
-0.00108317
0.000977215
-7.37957e-05
-0.00055838
0.000120193
0.000210427
-0.000371136
-3.37076e-05
0.000691341
-0.000882147
0.000986362
-0.00130958
0.00177613
-0.00233606
0.00377933
-0.00332511
-1.93624e-05
-0.00289203
0.00251631
-0.00186734
-1.72294e-05
0.00211209
1.12728e-05
-4.9407e-05
-2.60814e-05
-5.68864e-05
-0.000193411
-1.72552e-05
2.81436e-05
-1.69902e-06
5.11108e-05
4.75738e-05
2.09985e-05
-2.97483e-05
0.000469113
0.000148767
2.40982e-05
0.000121165
-2.16402e-05
-9.2546e-05
-6.75808e-05
6.97895e-05
0.000114176
-0.000116829
-0.000181524
-0.00166225
-0.000101945
0.00206166
-0.00292569
0.00308153
-0.00395074
0.00512101
-0.00632265
0.0103776
-0.00894454
9.7147e-07
-0.00825267
0.00727927
-0.00561495
-1.64979e-05
0.00642796
5.21502e-05
-8.24465e-05
-7.07506e-05
4.19972e-05
-0.000660025
-0.000327031
-0.000231293
-0.000391367
-0.00016362
-0.000118054
0.00117847
-5.76417e-05
-2.76938e-05
0.000182176
-0.000314511
-0.000103596
0.000283251
0.000523112
0.000940176
3.58081e-05
-5.61807e-06
8.78512e-05
4.361e-05
-0.000898219
-5.8376e-05
0.00112886
0.00103021
-0.00150604
0.00010445
-0.00159108
-0.000113722
0.00208609
0.00193878
-0.00265634
0.000182398
-0.00281576
-0.000187201
0.00364219
0.00341851
-0.00451133
0.000296531
-0.00479325
-0.00021469
0.00597554
0.00564169
-0.00732532
0.000454501
-0.00780723
4.41482e-07
0.00916491
0.00873151
-0.0112977
0.000676613
-0.0120959
0.00103251
0.0130198
0.0126777
-0.0162354
0.00100287
-0.0173408
0.00442579
0.0168971
0.0168947
-0.00233637
0.000546451
-0.00286809
0.0558963
-0.0276527
-0.0285971
0.0418105
0.0110459
0.00384527
-0.0320269
-0.00761203
-0.00463828
0.0134289
-0.0141125
-0.000272132
0.00067654
-0.00276587
-0.00308462
-0.000652879
0.00082181
0.000432586
-0.000205629
-0.000504281
-0.000170483
0.000211127
5.73117e-05
2.72648e-05
1.12088e-05
-9.73755e-08
-7.29642e-06
-2.71594e-05
-1.26546e-05
0.000310517
-0.000310879
1.79982e-06
2.14897e-06
-0.000317106
0.000312102
-9.07209e-07
1.06108e-06
-1.21366e-06
-2.34418e-05
-1.49978e-05
5.64206e-05
2.25844e-06
6.48092e-05
-2.29264e-05
-2.83194e-05
-1.65396e-06
0.000108468
-0.000129252
0.000131519
-0.000106234
-0.00010826
-8.92691e-05
4.98988e-06
0.000130994
0.00011451
-0.000112741
-3.22643e-06
-0.000130296
5.90212e-07
1.30535e-06
2.28691e-06
-9.77816e-06
-1.07947e-05
-6.34884e-05
-5.04837e-05
-9.86223e-05
-0.000151645
-0.000187128
-0.000130096
-5.3712e-05
0.00074835
-0.00190866
-0.000843478
-0.000259904
0.00599983
-0.00728577
0.00809941
-0.00974128
0.0120604
-0.000574371
-0.0113559
-0.000567108
0.00976442
-0.000297066
-0.00106996
0.000172439
0.000119313
0.000239932
0.000285179
-0.000263366
-0.00313801
0.0108057
-0.00521308
-0.017748
-0.00281492
-0.00352348
-0.042758
-0.0121419
0.00158237
-0.0181607
0.0130875
0.000663487
0.0005704
0.0158066
0.0132262
0.0016768
-0.00152837
0.0173547
0.0156168
0.00177235
-0.00182231
0.0157993
0.0177634
0.00165565
-0.00407154
0.0131888
0.0179775
-0.00644302
0.0105197
-0.00912506
0.00976676
-0.0382463
-0.0206449
0.00326305
-0.00945792
0.0178327
-0.00112661
-0.028859
0.016808
-0.000311398
-0.0198153
-0.0197399
-0.0283081
0.00928777
-0.014726
-0.00994555
0.0151508
-0.0259736
-0.00401701
0.0161496
-0.0159527
-0.00140564
0.0119419
-0.00981879
-0.000739611
0.00792219
-0.00604951
-0.000509193
0.00493769
-0.00363101
-0.000340948
0.00292948
-0.00208284
-0.00019543
0.00166571
-0.00114657
-6.36254e-05
0.000954007
-0.000590178
0.000104425
0.000502818
-0.00022336
0.000427674
0.000495435
-0.000692616
0.00077117
-0.00111258
9.15026e-05
0.000454754
-0.000546524
0.000226346
0.000244432
0.000254354
0.000354647
0.000303717
0.000229723
0.000455743
0.000281887
-0.000110948
-0.000326673
-0.000532045
-0.000530769
-0.000849669
-0.00139691
-0.00108393
-0.000528808
-0.000313235
0.00356185
-0.00470346
-0.000221046
-0.000153507
-0.000288164
2.5831e-05
-0.0050117
0.00439163
1.94939e-05
0.00336274
-0.00440313
2.13529e-05
0.00570626
-0.00725347
4.73686e-05
0.0091402
-0.0113087
9.21324e-05
0.0137566
-0.0165855
0.000128063
0.0190369
0.000153086
0.000360653
8.3152e-06
-2.90362e-05
-7.15245e-05
1.12583e-05
2.72142e-05
1.9678e-05
1.09649e-05
4.74007e-06
1.54344e-06
6.54553e-07
2.70715e-06
8.49333e-06
-0.000303168
6.04518e-06
1.80912e-05
-2.1562e-06
-6.14752e-06
-1.12375e-05
-1.83227e-05
-3.29683e-05
-6.58334e-05
-0.000130207
-0.000175392
0.000731084
-0.000220556
-0.000575135
-0.000789661
0.0152635
-0.0163474
0.0190731
1.74353e-05
-0.00268453
0.00223256
0.00688429
2.17115e-05
-0.00620112
0.00579531
0.00591028
3.55357e-06
-0.00660022
0.00615435
0.00531839
-1.07438e-05
-0.00833391
0.00789988
0.00746426
-0.000165693
0.0106349
-0.0111865
0.0109115
-0.0117081
-0.00109605
-0.00579859
0.00820489
-0.000740228
-0.00791603
-0.000188017
-5.75065e-05
0.0272229
-8.64767e-05
-0.0273999
0.0174392
-0.000626486
-0.0180408
0.0180895
-0.000402307
-0.0189525
0.027587
-0.000268914
-0.0276061
0.023752
-0.023676
0.0235121
-0.024102
0.000117534
-0.0272988
0.0270012
-2.60666e-05
-0.0180911
-0.000700112
0.018235
-0.015581
8.35338e-05
0.0277313
0.0100627
0.026596
0.00988666
-0.0112079
0.0162408
0.00222195
-0.0114913
0.0111613
0.00088543
-0.0084275
0.00745315
0.000582555
-0.00560664
0.0048542
0.000383181
-0.00350453
0.00292341
0.000256502
-0.00208397
0.00171309
0.000124848
-0.00118253
0.000901169
7.94518e-06
-0.000695913
0.000398912
-0.000199221
-0.000562746
-0.000149513
-0.000468401
0.000312917
2.99331e-05
1.60278e-05
0.000188056
5.24818e-05
-0.000291178
-0.000234599
-5.85973e-05
-0.000183627
-0.000112662
-8.55391e-05
-0.000203866
-9.42253e-05
-0.000100792
-0.000202155
-0.000297837
-0.000321892
-0.000227709
0.000621209
5.07026e-05
-0.000459947
-8.40027e-05
0.000801391
0.000942939
5.45237e-05
-0.000940058
-0.000103334
0.00137818
0.00200341
-6.71466e-06
-0.0028009
8.01908e-05
0.00353928
-3.72001e-05
-0.00485622
0.000135078
0.00596296
-6.67191e-05
-0.00796665
0.000150765
0.00949638
-0.000100816
-0.0123433
0.000216464
0.0142555
-0.000187201
-0.018108
0.000102064
0.0199525
-0.000483011
-0.0251915
-0.000634487
0.000629821
-0.0152259
0.0248612
0.000139711
0.013752
0.000399537
-0.0112263
0.0184372
-4.40297e-05
0.00951962
0.00032013
-0.00774092
0.0127024
-3.46652e-05
0.00631434
0.000235884
-0.00499356
0.00823984
-1.76014e-05
0.00395489
0.000174666
-0.00305532
0.00504174
-9.4267e-06
0.00234982
0.000110262
-0.00176377
0.00291964
-4.2538e-06
0.00131632
6.717e-05
-0.000985611
0.00161631
-5.47564e-06
0.000722335
3.73819e-05
-0.000572564
0.000881994
-2.20545e-05
0.000499494
-5.79617e-05
0.000115004
-0.000496238
-0.000426613
0.000221249
-0.000506642
-0.000107454
-2.44738e-05
-0.000940565
-0.000523526
-0.000458997
-0.000293913
-0.000228527
0.000555658
0.000640132
6.15751e-05
-0.000435473
-8.90708e-05
0.00112578
2.30532e-05
-0.00153139
6.58622e-05
-0.000170076
-8.1784e-05
-4.17265e-05
-0.000601954
1.17522e-05
0.000193909
-2.09273e-05
-3.95321e-05
-4.94505e-05
0.000201336
-6.34924e-05
2.70775e-05
2.3684e-05
9.12623e-07
1.89962e-06
1.71007e-06
2.44525e-06
2.00747e-06
3.37617e-06
-2.86781e-06
-2.11442e-07
0.00137874
-0.00159842
8.5074e-06
-1.52147e-06
-1.05928e-05
1.34985e-06
-0.000755129
8.28566e-07
0.00100427
-0.00139614
3.16844e-06
0.00187625
-0.00253548
8.72254e-06
6.99732e-06
1.69511e-07
7.49986e-06
8.69589e-06
2.89434e-05
4.11343e-05
2.62018e-05
1.42452e-05
7.15929e-06
5.6705e-06
1.26756e-05
7.71043e-06
3.40541e-07
0.00098916
-0.00133216
0.00120282
-0.00162721
0.00218287
-0.00288649
5.60112e-05
-0.00098734
6.20514e-05
0.000924951
5.25246e-05
-0.000579745
3.4779e-05
0.000454609
-2.6553e-05
1.25525e-06
0.000159166
-2.04299e-05
-0.000326609
0.00202171
7.34896e-05
-0.00172117
-0.00017264
0.00229504
0.00301716
0.000204804
-0.00310933
-0.000268605
0.00405824
0.00491536
0.00034182
-0.00515801
-0.00040748
0.00638769
0.00782096
0.000487473
-0.00813264
-0.000582965
0.00935175
-0.0120106
-0.00077661
0.0124793
-0.0169526
-0.000264257
-0.000608893
-0.000119426
-2.1857e-05
2.29592e-05
2.86563e-05
2.34031e-05
1.74339e-05
1.18607e-05
8.20886e-07
4.09448e-06
0.00015605
0.000167469
0.000168994
-3.86148e-05
0.000198389
1.17398e-05
1.01613e-05
0.000204621
-3.2513e-05
0.000201467
-6.17889e-05
8.72057e-06
-1.52125e-05
1.67236e-05
-3.84051e-06
9.36478e-06
3.68768e-07
-0.000721418
3.62737e-05
1.9111e-05
7.79512e-06
1.7327e-06
6.04892e-07
-0.000113055
0.000114021
5.05355e-06
-9.11539e-05
0.000152862
-3.87012e-05
1.0885e-05
4.88939e-05
1.72834e-05
-1.2933e-05
0.000202518
-0.000707236
5.05846e-05
-0.000481407
-8.86147e-05
0.000775584
0.000964494
4.46565e-05
-0.000954583
-9.77763e-05
0.00167177
0.00010651
-0.00176301
-0.000170235
0.00243736
0.00295006
0.000203313
-0.00315093
-0.000277326
0.00403725
-0.00521526
-0.000414816
0.00636356
0.000346906
0.000255129
0.000171825
0.000104207
5.21327e-05
1.09681e-05
-5.48459e-07
2.38134e-06
8.13333e-06
3.13926e-06
-2.93069e-06
-1.46751e-05
-8.36172e-06
-4.31116e-06
-6.40312e-06
-4.90294e-05
-4.77222e-05
-0.000101024
-0.000104781
-0.000159747
-0.000186553
-0.000827267
-0.00133418
-0.00226367
-0.00244719
-0.0045519
-0.00391165
-0.0022343
-0.00851482
-0.0255595
0.00149486
-0.0408566
-0.0305268
-0.0232271
-0.0155084
-0.0136345
0.0051305
-0.0120229
-0.000647042
0.00308723
0.000356214
-0.000147389
0.0147607
-0.017114
0.0194199
0.000175811
-0.00241098
0.00364019
0.00799078
0.00028333
-0.00558833
0.00748038
0.00746326
0.000294714
-0.00597207
0.00770465
0.00701534
0.000215563
-0.00800281
0.00878409
-0.000395442
0.000338646
0.000527186
0.00355401
-0.0150219
-0.0215953
0.00103594
0.017845
0.000366988
0.000114568
0.011234
0.000139762
-0.0183775
0.0218645
2.2873e-05
-0.0242621
0.0143355
-0.0141549
0.0123235
-0.00242614
-0.0161502
0.000480402
-0.019745
0.0269357
-0.0235775
0.0213711
-3.90203e-05
-0.0213986
3.08121e-05
0.0211927
-6.47687e-05
-0.0212926
1.14191e-05
0.0213855
-7.90842e-05
-0.0214665
0.0239937
-0.0274788
0.00194277
-0.0218026
0.0300934
0.0015948
0.000902162
-0.00981848
0.0104466
-0.0108236
3.70465e-05
-0.00794321
0.00730887
0.000522019
-0.00908775
0.00657778
-0.00775392
0.000676221
0.0152052
-0.00837433
0.00494836
0.00103633
-0.00927082
0.00732653
-0.000163869
-0.000137904
-9.32966e-06
0.000232487
0.000110879
3.57381e-05
3.98363e-06
-6.1872e-06
-8.50405e-06
-7.43601e-06
1.10479e-06
-3.17505e-06
9.12259e-05
0.000108627
2.84298e-07
-2.43947e-05
-1.51701e-05
0.000182703
5.91156e-05
-0.000170331
8.48303e-05
0.000109314
-0.000181245
1.65828e-06
-0.000188377
-1.5755e-05
-5.22576e-05
-0.000163239
0.000235393
0.000292685
1.46101e-05
5.66007e-05
-1.36046e-05
7.84704e-06
0.000139136
-0.000150311
-1.47427e-06
-0.000165291
0.00016627
0.000151652
-0.000137606
7.53675e-08
-0.000173025
1.58167e-07
0.000173516
3.39009e-07
1.0061e-06
-6.27048e-06
-1.19219e-06
1.67257e-05
1.96178e-05
0.000939307
0.000522365
0.000278017
-0.000112382
-0.000330893
-0.000548959
-0.000857321
-0.00136032
-0.00225332
-0.00396165
-0.00402263
-0.0078472
-0.00855105
-0.0184498
-0.0300577
-0.0272238
-0.0273565
0.0113353
-0.0159565
-0.00806704
-0.00871618
-0.0252925
-0.0306436
-0.0276937
-0.0277142
-0.0275639
-0.0275339
-0.0314844
0.0114854
-0.00145169
-0.0061995
0.0341411
-0.00949517
-0.0229213
-0.0212397
-0.00620563
-0.00755491
-0.0173136
-0.0178936
-0.00225545
-0.0041273
0.000490181
0.000870744
0.000731555
0.000505284
0.000321511
0.000247866
0.000129886
0.000126623
4.17495e-05
8.14052e-05
-0.000221582
-0.000417443
-0.000668893
-0.00104253
-0.00167229
-0.00296906
0.000870221
0.000647263
0.000572405
0.000672176
0.000573914
0.00040282
0.000398182
0.000243552
0.000307795
0.000171392
0.000984335
0.00151165
-0.00197286
0.00276191
-0.00348933
0.000184579
0.00186806
-0.00143299
0.000108549
-4.12586e-06
-4.84218e-05
-4.88333e-05
-0.000812929
-9.65275e-06
-0.00019443
0.000111755
-5.81215e-05
-8.38326e-06
-1.48435e-05
2.78037e-05
-0.000191489
0.000146871
-8.76384e-07
-2.22247e-07
-1.95208e-07
2.32215e-07
9.16686e-05
-3.08382e-06
9.51626e-07
8.16038e-07
1.08836e-06
-5.60135e-05
7.98564e-07
2.38013e-05
1.49761e-05
1.97734e-05
-1.41727e-05
1.3588e-05
-2.22558e-08
1.723e-06
-5.59128e-05
0.000192017
0.000182167
-0.000107797
-2.65233e-05
-8.55045e-05
0.0001717
1.72928e-05
6.71898e-06
1.21719e-06
5.16048e-07
-4.4788e-06
-3.3656e-06
-3.44363e-06
-2.58369e-05
-1.00475e-05
-4.94404e-05
2.09101e-05
-9.65583e-05
-0.000101599
-0.000152109
-0.000179234
-0.00253072
0.00329056
0.00479253
-0.00591732
0.00786663
-0.00957763
0.000455779
0.00541187
-0.00429662
0.000297472
1.33011e-05
-7.18791e-05
5.81177e-05
-8.54117e-05
0.00012951
-0.000196364
-0.000227121
-0.00020276
-0.000228396
-0.00015889
-6.03378e-05
0.000127476
0.00018771
8.4427e-05
0.00334708
0.000131253
0.000131145
5.65601e-05
2.12347e-05
4.8305e-06
-2.78108e-06
9.22605e-07
-1.00911e-06
-7.9813e-06
1.16166e-05
3.5172e-06
-4.33626e-06
3.11835e-05
1.2694e-05
1.36456e-05
6.99516e-06
1.0112e-06
1.02002e-05
9.32415e-06
2.73385e-06
5.77452e-06
1.10198e-05
1.94289e-05
8.90545e-06
7.04913e-05
3.13666e-05
4.80294e-05
0.000153826
6.55577e-05
0.000138393
0.000322936
0.000251455
0.000729134
-0.00243929
-0.00285437
-0.000462131
0.000381944
0.000527949
0.000286405
-0.00686033
-0.000163378
-9.02949e-05
-9.63435e-05
-0.000718174
-0.000239782
0.0160513
-0.000222803
-0.0197126
-0.000156557
-0.000837689
-0.0183418
-0.000847495
-0.00102154
-0.0123186
-0.00632242
-0.0102973
-0.0246219
0.002591
0.00616334
0.000372622
-0.000339704
-0.000293581
-0.000529644
8.19673e-05
-0.0144033
0.0188675
0.000115448
-0.00423802
0.00193447
0.00638129
4.46134e-05
-0.00799917
0.00510065
0.00515112
-1.17658e-05
-0.00824256
0.00544242
0.00457612
-6.3352e-05
-0.00759098
0.00185558
-0.0113652
0.00560144
0.00864804
-0.0105976
0.00310266
0.00128206
-0.000626741
-0.000103182
-1.52435e-05
3.00616e-05
3.26298e-05
2.51493e-05
1.79429e-05
1.09664e-05
4.51642e-06
1.04486e-05
4.54643e-05
0.00181319
-0.00242664
6.41759e-05
0.00322715
-0.00421987
0.00378328
-0.00488404
0.00621963
-0.00783769
0.000110043
-0.00292005
0.000130843
0.00278588
7.79712e-05
-0.00172742
9.62811e-05
0.00166504
2.08363e-05
8.08248e-05
0.000550153
-6.82295e-05
-0.000930549
0.0059999
0.000244179
-0.00493024
-0.000407594
0.00615436
0.00799036
0.000496542
-0.00798468
-0.000576712
0.0114212
0.000786676
-0.0118972
-0.000842049
0.0124666
0.0158842
0.000804529
-0.0202251
-0.000478069
-0.0168224
-0.0199937
0.000930464
0.0154304
0.0128089
-0.0165212
-0.000416515
-0.000618562
0.000585034
0.000474118
0.000374145
0.000269454
0.000177427
0.000104179
4.85903e-05
8.39132e-05
1.88683e-05
-2.21151e-07
2.75371e-05
-8.8905e-07
0.00545269
-0.0069581
0.000149153
0.00870686
-0.0108809
0.00971365
-0.0118776
0.0144839
-0.0165964
-0.000448335
-0.0067849
5.24957e-05
0.00686742
7.33356e-05
-0.00472643
0.000139274
0.00443318
7.52684e-06
0.000233508
0.00162332
-1.53158e-05
-0.00197357
0.0143577
0.000465016
-0.0109909
-0.000837651
0.0130875
0.0157986
0.000804032
-0.0208022
-0.000385844
-0.0148717
-0.0267521
0.000250655
0.0195882
-0.00168182
0.00885546
-0.000242486
0.00595553
0.00521997
0.00262061
0.00165831
0.0110757
-0.00656897
-0.000306826
0.0012699
0.000704944
0.000483925
0.000347119
0.000234955
0.000144643
7.24774e-05
3.58993e-05
0.000370924
-0.000247715
-0.000406258
-9.86297e-05
7.93687e-05
-0.000230196
0.00074196
-0.000293489
-0.000347377
-0.000348987
-0.000217875
0.00055804
0.000629875
4.99964e-05
-0.000489509
-8.47526e-05
0.00093724
4.76232e-05
-0.000936778
-9.85233e-05
0.00139892
0.0016775
0.000110073
-0.00178463
-0.000175357
0.00241363
-0.0002992
-0.000232809
-0.00218482
-0.000122002
-0.00118043
0.000339738
0.000341611
0.000111645
-0.000294983
-0.000479863
-0.00030225
-0.00023903
-0.000521244
-0.000150549
-8.43408e-05
4.72427e-05
7.92063e-06
0.00114086
3.36686e-05
-0.000939617
-0.000101635
0.00131618
0.0017153
0.00010372
-0.00177054
-0.000168092
0.00293777
0.000208435
-0.00311413
-0.000272503
0.00406231
0.00494392
0.000324574
-0.00630159
-0.000562217
-0.00038038
-0.00382256
0.000780907
0.000785158
0.000538809
-0.000136445
-0.00115822
-5.05986e-05
-0.000545514
0.000116066
-0.00018411
-0.000216412
9.76061e-05
0.000339582
-0.000178987
-0.00141849
0.000282427
4.04486e-05
0.000312755
-4.43117e-05
0.00356521
0.000148527
-0.00299883
-0.000274653
0.00385219
0.00505592
0.0003345
-0.00513381
-0.000400056
0.00775307
0.000518362
-0.00805081
-0.000589059
0.00935268
0.0115967
0.000725529
-0.0144469
0.000431505
-7.07201e-05
-2.41139e-05
1.95336e-05
1.47405e-05
9.03673e-06
4.96308e-06
2.51423e-06
-1.5111e-06
5.72683e-07
1.05617e-05
1.81649e-06
-1.76862e-06
3.10248e-06
1.46139e-05
3.94372e-05
6.49676e-05
2.85814e-05
9.38421e-06
2.13615e-06
2.69169e-06
-6.91105e-07
1.04005e-06
0.00139513
1.8527e-06
-0.00138885
0.00187482
3.52131e-06
-0.00252579
0.00253675
-0.00186613
0.00189143
4.76291e-06
-0.00256178
0.00252494
-0.00187476
0.00138905
-1.08691e-06
-0.00141351
0.00101406
-0.00100701
0.00101145
-0.00100987
4.44824e-06
-0.00138336
0.00141962
5.81014e-06
-0.00188405
1.8114e-06
-0.00251616
0.00257367
8.10852e-06
-0.00336885
-2.20357e-07
-0.00436479
0.00445031
-0.00437534
0.0043932
6.13138e-06
0.00334568
-0.0033306
3.44372e-06
0.00338105
1.19741e-05
-0.00443051
0.00437868
-0.00333577
-2.18158e-05
-0.00290196
0.00177162
8.66852e-06
0.0021209
-1.73156e-05
-0.00160806
0.000989594
7.51251e-06
0.00115183
-0.00102055
0.000752565
-4.07585e-06
-0.000765693
1.257e-07
0.000749943
9.5368e-07
-0.000746838
3.48989e-06
0.000768112
5.73727e-06
-0.000749262
0.00102478
-0.00114947
1.37391e-05
1.39689e-05
8.44599e-06
2.76056e-05
1.63103e-05
-0.000312713
0.000325261
-0.00031973
0.000320394
2.36218e-07
-5.18615e-07
-8.26031e-07
-0.00032492
0.000313501
-1.58798e-05
-8.96434e-06
0.000156587
-0.00017664
2.84439e-07
-1.47597e-06
0.000594816
-0.000602347
0.000604164
-0.000592919
0.000617356
-0.0006348
-1.1687e-05
-1.45174e-06
-0.000155932
9.38955e-06
0.000176839
-7.29398e-06
7.96018e-06
7.38621e-06
2.17882e-06
4.1952e-06
7.27517e-06
8.96533e-06
8.91536e-06
-0.00562297
7.89091e-06
-0.00716233
0.00718776
-0.00724447
0.00718223
2.19727e-05
0.00571387
-0.00562432
-2.38513e-05
-0.00501206
0.00306198
1.88017e-05
0.00378173
-0.00234192
-0.000103235
-0.00167546
0.00206879
-0.000233382
-0.00289831
0.00351791
-0.000329622
-0.0047256
0.00573818
-0.000378819
-0.00726996
0.0089194
-0.000517682
-0.0108666
-0.0011716
-0.000395075
-0.000613904
-0.000214417
-0.000407717
-0.000170205
-0.000288083
-0.000123888
-0.000191892
-7.35201e-05
-0.000132283
0.00117845
-0.00131433
-6.35142e-05
-0.000900469
0.000690309
-9.3703e-06
-1.75399e-05
-0.000114751
-3.71878e-05
-0.000399406
-3.58895e-05
0.000575381
2.27959e-05
-0.00087956
-1.07295e-05
-1.06521e-05
4.8255e-05
1.98543e-05
-2.97562e-05
-0.00031293
0.000469055
0.000150718
0.000561549
0.000196797
0.000111908
1.46984e-05
5.83109e-05
-0.000500268
0.000636397
-0.000615875
1.23023e-05
4.39045e-07
-2.89829e-05
-7.17111e-06
-8.15088e-08
5.1914e-05
7.10491e-05
0.00010891
0.000169491
4.03289e-05
-0.00819903
0.00502068
-0.00395901
0.00639976
1.73449e-05
5.20407e-06
-2.26677e-06
2.4057e-06
1.0195e-05
2.1547e-05
3.64531e-05
4.58802e-05
-1.57865e-05
-0.00894179
3.31187e-05
-0.0111601
0.0111115
-0.0126661
0.00777289
8.21102e-05
0.0102449
-0.00634644
-0.000164656
-0.000153644
0.000720063
0.000569986
0.000684065
0.000912541
0.0083236
0.0122026
-0.0148198
0.00158719
9.32194e-05
-5.58898e-05
0.000404099
-0.000166861
-9.79987e-05
-0.00696456
7.84621e-05
0.000642893
-0.0106854
0.000686499
9.72109e-05
4.1817e-05
9.4018e-05
0.000210013
0.000309294
0.000143989
5.35128e-05
2.45289e-05
2.08934e-05
2.0351e-05
2.91606e-05
3.92999e-05
2.48682e-05
1.89863e-05
2.48383e-05
1.57675e-05
1.3693e-05
4.48472e-07
1.07404e-05
1.20456e-05
9.69307e-05
2.81169e-05
1.78688e-05
1.19915e-05
1.24231e-05
8.77553e-06
4.78018e-06
9.26977e-06
9.39673e-06
8.19729e-06
-2.97983e-05
1.36337e-05
2.7888e-05
2.06638e-05
3.69866e-05
5.94515e-05
6.60502e-05
0.000115746
5.66187e-05
0.000109314
5.22621e-05
0.0130943
-0.0160982
0.000266957
0.0182914
0.000353301
6.83592e-05
0.000203568
0.00126508
-0.00358751
0.0124401
-0.0104128
0.0219476
0.0031693
0.0134043
-0.0117393
0.010156
-0.00986125
0.00710444
0.00805661
-0.0106925
0.00240771
-0.0115842
0.00750761
0.00775948
0.0145487
-0.000777508
-0.000311767
-0.00182448
-0.000134537
-0.00726512
-0.000153982
-3.22032e-05
3.31331e-05
4.70407e-05
7.97802e-05
4.19547e-05
3.59241e-05
4.26972e-05
3.60154e-05
-4.52074e-06
3.73085e-05
-2.09043e-06
0.000279433
0.000188094
0.000129406
-0.00772191
0.00956503
0.000357489
-0.00761831
-0.000585734
0.00932323
0.0117802
0.000720613
-0.0117356
-0.000816717
-0.0143297
0.000476674
0.000378318
-1.93156e-05
1.09368e-05
-4.56284e-06
0.000223356
3.91575e-05
2.00357e-05
2.66084e-05
2.04062e-05
-5.6908e-06
0.000180932
0.000107032
5.06846e-05
-0.00114036
-0.000119531
0.0014
-4.1119e-05
0.000808495
-0.000560927
-0.000458742
0.000573395
-0.000327775
-0.000296185
-0.000291574
0.000113345
-0.000231279
-0.00025826
-0.00219718
0.000568488
-0.000258547
-0.000559123
0.000461833
0.000862215
-0.000392908
-0.00466247
0.000690546
0.000127327
0.000925638
-7.65487e-05
-0.00144584
-0.000550608
0.00103842
0.00172483
0.00124934
-0.000420711
-0.0038833
-0.000380265
-0.00377524
0.00110121
-0.000623383
-0.00643028
-0.000562846
0.00640926
0.00141657
-0.000881974
-0.0100402
-0.000574652
-0.0121563
0.00193687
0.00070209
0.00347701
0.000221364
-0.0183406
0.000483774
0.00224104
0.00268706
0.00382282
0.0128484
0.03014
0.0158411
0.0233394
-0.00214375
-0.00125725
-0.0148435
0.00147887
0.00103417
0.00272988
0.0155761
0.022657
-0.00206707
-0.00114912
-0.000795498
0.00947093
-0.00972614
0.00133948
0.00108222
0.00123759
0.000598185
0.00215357
0.0143194
0.0228567
-0.00212661
-0.00115843
-0.00079796
-0.00980684
-0.000977914
-0.000697685
-0.000480654
0.000640479
0.000407238
0.000214837
5.77539e-05
0.000189971
0.000924792
0.00122132
0.0014078
-0.00129908
-0.00169757
0.00208463
0.0130594
0.0255537
-0.00439669
0.00528196
0.00233432
0.00195497
0.000201038
-0.000142864
-7.30724e-05
-3.62331e-05
-1.81221e-05
-8.97921e-06
-3.22629e-06
3.22248e-06
1.62634e-06
7.30563e-07
-3.22308e-07
4.32452e-06
2.38334e-06
2.43191e-06
7.17847e-07
-2.11097e-05
-4.7954e-05
-5.01255e-05
8.38575e-06
2.30896e-05
-0.00211923
0.00188381
9.43247e-06
7.58119e-06
8.8135e-06
7.98784e-06
4.57784e-06
9.15795e-06
2.88154e-05
2.46902e-06
0.000162128
-0.000779167
6.56646e-05
5.56584e-05
7.34033e-06
9.91665e-06
1.22449e-05
-8.60006e-08
-7.42212e-06
1.70164e-05
1.25951e-05
1.06493e-05
9.45797e-06
1.11562e-05
1.32089e-05
4.13632e-05
3.87948e-05
0.0110722
3.13923e-06
-0.0110461
0.0134279
-1.95794e-05
-0.0159854
0.015981
-0.0134065
0.0136414
2.86713e-05
-0.0161245
0.016132
-0.0133755
2.01168e-05
0.0154988
-0.00971117
-0.000104928
-0.000119733
0.000114605
0.000256318
0.000305084
-0.000186033
-0.00143472
-0.00292836
-0.00554332
2.19407e-05
-0.00210722
-0.000856096
-0.000259021
0.000265288
0.000245475
4.91258e-05
5.1308e-05
5.02908e-05
2.61367e-05
0.00910155
-0.00894784
0.0089768
-0.00907524
-1.74149e-05
-0.0110545
0.0111899
-4.58334e-07
-0.0136277
-4.72584e-05
-0.0160462
0.0161407
-1.79119e-05
-0.0191336
0.0188446
-0.0216432
-4.23489e-06
-0.000151492
-5.37401e-05
1.65406e-05
3.07591e-05
0.00011362
0.000275036
0.000644318
0.00383144
-0.00233578
0.0563695
-0.0015124
-0.000254426
-0.0010687
-0.0112128
0.00252585
0.0065253
0.000504458
-0.000121611
-0.00574139
-0.00014856
0.000131889
0.000283641
2.41577e-05
3.12988e-05
0.000554352
0.000323122
-0.0183214
0.0161793
-0.000780711
-0.000472459
-0.000155233
0.00322224
-0.000867645
0.0026418
0.00432315
0.00775368
0.0149063
0.00325386
-0.00829485
0.00335771
-0.0115524
0.00267356
0.00122414
-0.00793156
0.000566825
-0.000133858
1.03859e-05
-2.76376e-05
1.08217e-05
0.000115908
-8.26108e-05
-0.000196106
-6.05305e-05
-0.000214998
-4.8584e-05
7.05577e-06
-2.62373e-06
1.19338e-05
-8.12329e-06
-1.80991e-06
-4.04897e-05
4.62276e-06
6.35509e-05
0.000139641
0.000312063
0.00559776
0.0240313
0.0012651
-0.0031031
0.0153645
0.000800982
-0.00220943
-0.00149911
-0.00251071
0.0560185
-0.00124381
-0.00027382
0.000490762
0.000107056
0.000245392
-0.00523504
-0.000165124
-0.00015834
-0.0011297
-0.0113154
-0.0104662
-0.00675821
-0.0238706
0.00256232
0.00581253
0.000256836
-0.000333267
-0.000355701