/*--------------------------------*- C++ -*----------------------------------*\
| =========                 |                                                 |
| \\      /  F ield         | OpenFOAM: The Open Source CFD Toolbox           |
|  \\    /   O peration     | Version:  2306                                  |
|   \\  /    A nd           | Website:  www.openfoam.com                      |
|    \\/     M anipulation  |                                                 |
\*---------------------------------------------------------------------------*/
FoamFile
{
    version     2.0;
    format      ascii;
    arch        "LSB;label=32;scalar=64";
    class       volScalarField;
    location    "1.5";
    object      gradTx;
}
// * * * * * * * * * * * * * * * * * * * * * * * * * * * * * * * * * * * * * //

dimensions      [0 -1 0 1 0 0 0];

internalField   nonuniform List<scalar> 
5322
(
-0.251561
0.00573215
0.00698845
0.000793053
-0.000135619
-0.000175899
-1.40819e-09
0.000127957
7.72721e-05
-0.000208241
-0.00100691
0.0109662
0.0168958
-0.232718
-0.006167
0.405013
-0.318257
-0.00502488
-0.242824
0.156531
-0.212823
0.185118
-0.195805
0.196886
-0.199437
0.191595
-0.192014
0.199216
-0.196254
0.196332
-0.186307
0.211684
-0.159027
0.242407
0.00346861
0.30427
0.214516
-0.085547
0.240449
-0.0138078
-0.22804
0.229321
-0.0138819
-0.243981
0.24247
-0.00834032
-0.259324
0.226469
-0.00572139
-0.271792
-0.268139
-0.389408
-0.121643
0.26112
-0.0166458
-0.431181
-0.0122478
0.412085
-0.00494037
-0.411776
-0.00177317
0.401319
-0.002317
-0.40446
-0.000145366
0.395169
0.00501702
-0.400546
0.0172481
0.328013
0.013028
-0.350091
0.396671
-0.410549
0.395219
-0.402469
0.403259
-0.402412
0.458108
-0.33006
0.161724
-0.213694
-0.138189
0.239901
0.0249277
-0.135943
0.158922
-0.427909
-0.161453
0.509959
-0.0219232
0.00954322
0.0176031
0.0795292
0.365629
-0.0849965
-0.0103687
-0.0418961
0.163861
-0.37944
-0.379841
0.848664
-0.0411893
0.282017
0.459037
-0.00569502
0.00277531
0.00379196
0.00229959
0.00112757
0.000448726
-0.000118155
-0.00117501
-0.00288609
0.00454408
-0.00153104
-0.133719
-0.131938
0.0139689
0.0840964
0.00477733
0.128296
-0.153455
-0.0114969
-0.0353423
0.237897
0.195693
0.0544214
0.153006
0.0989102
0.0752153
0.164273
0.0829425
0.0889831
0.167133
0.0726128
0.140031
0.189989
0.215373
0.00925283
-0.157867
0.00870527
0.105167
-0.127404
-0.136686
0.0195419
0.0564841
0.0310814
-0.106974
-0.117572
0.0220011
0.0350263
0.042213
-0.116019
-0.11008
0.0221837
0.0230282
0.0668343
-0.127337
0.166151
-0.35816
-0.480082
0.413775
-0.484556
-0.0202889
-0.333396
0.0026851
0.325016
-0.0780578
0.387371
0.192025
0.286342
-0.429125
0.167451
-0.369752
0.245993
0.320711
-0.392272
0.00879531
-0.333506
0.29355
0.3654
-0.388345
-0.00240749
-0.325485
0.309804
0.378485
-0.387948
-0.000756406
-0.323723
0.315382
0.383015
-0.390275
7.60821e-05
-0.325809
0.314973
0.383908
-0.396082
0.000461304
-0.331498
0.309975
0.382019
-0.404937
0.00104765
-0.338717
0.300163
0.376873
-0.412015
0.00245495
-0.340601
0.282017
0.352066
-0.0768451
0.156546
-0.376641
-0.38409
0.853883
-0.0293493
-0.0321579
0.0196953
0.0858404
0.363268
-0.0670949
-0.00665464
-0.0748003
0.14912
-0.383757
-0.377451
0.848992
-0.0496534
0.282093
-0.0106858
0.0046728
0.00454842
0.00292707
0.00152449
0.000662835
-9.06745e-07
-0.00108573
-0.00262217
0.00453461
-0.00140277
0.106262
-0.117946
0.117532
-0.106759
0.000213251
0.106873
-0.101008
-0.000568736
-0.127223
7.04301e-05
-0.106899
-8.17751e-05
0.100746
0.00396234
0.118818
-0.00970267
-0.128464
0.0004206
0.127043
-0.000131765
-2.25347e-05
0.225035
-0.386809
0.386343
-0.382124
0.402269
-0.411579
0.430449
-0.429184
0.436065
-0.434296
0.438133
-0.43636
0.440574
-0.437256
0.443804
-0.436422
0.445608
-0.427987
0.439228
-0.235373
0.0049514
0.237582
0.00640327
-0.428487
0.416543
0.00215935
-0.432851
0.426474
0.00146495
-0.431374
0.427706
0.00096981
-0.428519
0.426617
0.000672719
-0.426059
0.424451
0.00070144
-0.423244
0.41982
0.0011279
-0.415908
0.404971
0.00128304
-0.386808
0.00022738
0.386674
-0.405224
-0.00181995
-0.401673
0.381544
-0.000716502
-0.226954
-0.014746
0.230855
-0.400586
0.386795
-0.40734
0.409222
-0.416589
0.416161
-0.41814
0.419283
-0.418769
0.422984
-0.41881
0.428551
-0.415762
0.434076
-0.401332
0.430978
-0.231946
-0.0497937
0.100878
0.0127295
-0.400012
0.359962
0.00504754
-0.394006
0.380779
0.000726869
-0.381921
0.380317
-0.000464776
-0.377184
0.377553
-0.000657957
-0.375807
0.376746
-0.00191656
-0.374645
0.377281
-0.00485972
-0.369459
0.372273
-0.0112226
-0.343884
0.314862
0.00679053
-0.114105
0.194207
0.319354
0.0101822
0.0397459
-0.0583794
0.163394
-0.504004
0.382436
-0.479585
-0.32294
-0.399292
0.010378
0.262927
0.290806
-0.418663
0.161909
-0.375729
-0.0279241
0.0201334
-0.152089
0.0130132
-0.00613993
-0.161357
0.0164583
-0.0260584
-0.381218
-0.413452
0.29831
-0.386848
0.00496731
0.35297
-0.38479
0.371637
-0.385192
0.00272154
0.378606
-0.388165
0.37999
-0.394438
0.0147427
0.377425
-0.401868
0.369969
-0.403199
0.0832856
0.0194687
0.0124835
0.0131355
0.0063153
0.0154896
0.390118
-0.412372
0.0032165
-0.334475
0.275623
0.384256
-0.404683
0.007271
-0.355308
0.247058
0.493768
-0.0581004
0.00933741
-0.411848
-0.380062
0.803553
-0.0498785
0.0133687
0.0225007
-0.24513
0.0560922
0.192686
-0.199418
0.0163977
0.206772
-0.187548
0.00260962
0.201246
-0.192414
-0.000344466
0.192417
-0.186726
-0.00497125
0.200247
-0.180578
-0.0122437
0.21115
-0.142066
-0.0204891
0.249602
0.0947797
0.0700953
-0.0184302
-0.00959396
0.0982716
-0.0432084
0.442653
-0.47297
0.462238
-0.472042
-0.305608
-0.396284
-0.00091317
0.302455
0.38162
-0.395928
-0.00217186
-0.30678
0.00258613
0.000230012
0.00334541
-0.000319695
0.00657586
0.0253939
0.0234997
0.0426782
-0.0124977
0.00673625
0.177753
0.282445
0.235568
0.0796253
0.358154
0.142562
0.0668528
0.0199461
0.0127462
-0.0058027
-0.00371898
0.00365272
0.00600858
-0.0562143
-0.000858047
0.0648139
-0.0598402
0.468183
-0.474312
0.47111
-0.483734
-0.317289
-0.406282
0.0011419
0.300181
0.391581
-0.3996
0.000159146
-0.308785
0.00448614
0.00199148
0.000505139
0.000346204
0.000860741
0.00153993
0.00243843
0.00196077
0.00525059
0.0079932
0.076217
-0.00132456
-0.000495969
-0.00244376
0.00042496
0.00101935
-0.0100582
0.0233567
-0.269229
-0.000669941
0.00370371
0.000180045
-0.00364343
0.411644
-6.62697e-05
-0.430265
0.415862
-0.419854
-0.00147575
0.42981
9.80942e-06
-0.436002
0.423551
-0.424152
-0.000612442
0.435342
0.000254347
-0.437916
0.426886
-0.425795
3.21301e-05
0.437979
0.000480002
-0.440174
0.430073
-0.426102
0.000648065
0.439729
0.000400666
-0.443074
0.433786
-0.423777
0.00155298
0.439311
-0.000836031
-0.44381
0.435545
-0.413308
0.00246316
0.428279
-0.00377193
-0.43562
0.429462
-0.23572
-0.000285021
0.234068
-0.0143602
-0.0298836
-0.0313869
-0.0327889
-0.41073
0.102455
0.0911469
-0.0349609
-0.0720582
-0.0359093
-0.468829
0.0987775
-0.120035
-0.201096
-0.0736351
-0.0577053
-0.0604293
-0.0257562
-0.0115224
0.00192088
-0.000504506
-0.00936024
-0.0116757
-0.00685739
-0.0132494
-0.0262426
0.00462223
0.208748
0.244767
0.240037
0.276564
0.342025
0.325627
0.254688
0.256365
0.167264
-0.148745
0.0480156
-0.017453
-0.0122233
0.0435813
-0.129682
-0.000353246
-0.000203989
-0.000419137
3.28748e-05
-0.0819213
-0.0933304
-0.0924948
-0.082924
0.082206
-0.0697843
0.0025896
0.0929207
-0.0801848
-0.0805113
0.0025694
0.0925797
-5.28251e-06
1.51736e-05
4.11271e-05
4.56549e-05
-0.00244562
0.00328301
-0.00167532
-0.000920478
-0.000112848
0.000513074
0.00127434
0.00540557
0.00399581
0.00216604
0.00945064
-0.00266292
0.056607
-0.0807639
0.478536
-0.49392
0.49166
-0.0102193
-0.144427
-0.021602
0.0397886
-0.00427483
-0.00952384
-0.00499492
-0.0276188
-0.0577701
-0.115188
-0.263232
-0.269122
-0.670544
-0.316453
-0.276699
-0.00940948
-0.109094
0.0857608
-0.541953
-0.323848
-0.15148
0.245494
0.0197783
0.0128213
-0.256706
0.271681
0.00159894
-0.0321326
-0.282028
0.272994
0.000476899
-0.0358299
-0.275234
0.272088
0.00234368
-0.0587322
-0.262611
0.193999
-0.154572
0.126615
0.0959827
0.283363
-0.133143
-0.0770546
0.0421085
0.170592
-0.558085
-0.0310755
-0.326767
0.28473
0.262297
0.250325
0.314263
0.151967
0.0345141
0.12142
0.183614
0.303402
-0.141315
0.0291486
0.22506
-0.193731
0.000218327
0.196903
-0.199605
-0.00250622
0.191002
-0.195118
-0.00146774
0.189788
-0.193028
-0.00128692
0.189157
-0.194239
-0.00271769
0.182751
-0.205034
-0.0161715
0.155155
-0.237413
-0.088422
-0.00383026
-0.319799
-0.198005
0.115522
-0.315082
0.3486
-0.369993
0.0103868
-0.387717
0.399953
-0.00607762
-0.23062
0.014727
0.227295
-0.22485
0.000796087
0.00132737
0.000389889
0.000313274
0.000483404
0.000448169
0.000150793
0.00033107
0.000874457
0.00126707
0.00383387
0.000558791
0.0614426
-0.0646098
-0.0018589
-0.000457977
0.00263611
0.000296408
0.302483
0.389619
0.00252755
-0.322708
0.315633
0.000203307
-0.325036
0.31434
0.000593842
-0.331814
0.308521
0.00120797
-0.342016
0.29786
0.00244905
-0.349098
-0.015356
-0.0122574
-0.0661384
-0.0657236
-0.106411
-0.0516259
-0.0252779
-0.0113293
-0.00756877
-0.0150289
-0.0278053
0.00178745
0.203646
0.23663
0.229774
0.326195
0.195238
0.00216868
-0.0221556
-0.0116171
-0.00602017
-0.00947615
-0.0221978
-0.047754
-0.0990084
-0.232778
-0.247786
-0.441133
-0.332091
-0.104602
-0.105376
0.224587
0.0263332
-0.0275441
-0.0218975
0.111207
0.00460421
-0.088588
-0.0847835
0.0878614
-5.46749e-05
-0.0979826
-0.0937786
0.076879
-0.000400817
-0.121813
-0.116227
0.0371897
-0.154091
0.0980158
0.095021
0.0994571
0.0864895
-0.135255
0.00948266
0.0501179
-0.15322
0.0367855
-0.147996
0.173921
-0.4026
-0.0216374
-0.387408
0.263056
0.270937
0.271298
0.266238
0.261446
0.264679
-0.41911
-0.0253635
-0.378094
0.271049
0.290246
0.272224
0.286496
-0.0213871
-0.403153
-0.400617
0.174329
0.2723
0.240446
0.238072
0.296406
0.283837
0.227562
0.0692577
0.151366
0.0616651
-0.0327731
0.0759566
0.0116238
-0.0554012
0.0575969
0.00250119
-0.0571833
0.0567283
0.000348143
-0.0583055
0.0560062
-0.000164077
-0.0565657
0.0577415
-0.000769134
-0.0580595
0.0559322
-0.00384321
-0.0608072
0.053058
-0.0141775
-0.080949
0.0310151
-0.0644057
-0.156403
-0.074653
-0.232197
-0.279772
-0.285536
-0.192289
-0.141343
-0.217313
-0.00915708
0.158905
-0.120061
0.0116675
0.131727
-0.131373
0.00554595
0.13729
-0.140808
-0.00465825
-0.00946356
-0.244182
-0.000778916
-0.395998
0.000464594
-0.39241
0.0021015
0.410571
-0.416744
0.000491937
-0.413492
0.0048345
0.419666
-0.380496
6.64927e-05
0.381075
0.00198517
-0.380627
7.25663e-05
0.381099
0.00130222
-0.380854
0.000104723
0.380954
-0.000692021
-0.381174
0.000187908
0.380987
-0.00103735
-0.381429
0.000541921
0.381352
-0.00570733
-0.37775
0.00275736
0.377924
-0.00767781
-0.00841636
-0.471347
-0.340687
0.00780825
0.439241
-0.00286612
-0.466645
-0.32373
0.00644538
0.456396
-0.000927644
-0.464286
-0.319009
0.00241949
0.460777
-0.000685391
-0.463203
-0.316494
0.000165471
0.463364
0.00066025
-0.460658
-0.314881
-0.00196338
0.464541
0.00078515
-0.456294
-0.312095
-0.00549913
0.467898
0.0030378
-0.438214
-0.304294
-0.0058256
0.475494
0.0106583
-0.381003
-0.269339
0.0249973
0.501595
0.0605828
-0.0433931
0.115938
-0.198562
-0.321049
-0.00325719
-0.0898436
0.00139496
0.275261
-0.0227318
0.00385791
-0.23197
0.00103583
0.396993
-0.38811
-0.00243227
-0.390823
0.0108923
-0.375044
-0.000733288
0.377175
0.00845612
0.00306808
0.00077653
0.00450202
0.408417
0.00280331
-0.00349204
-0.101518
-0.00028311
0.109725
-0.000151678
0.000359992
0.000494981
-0.0174781
-0.020202
-0.0144803
-0.158259
0.0159241
-0.0259406
0.00243461
0.0027813
0.00491778
0.359295
0.296518
0.00170541
-0.00324563
-0.0134802
-0.016125
0.263232
0.00969076
-0.335298
0.300321
-0.00220699
-0.324998
0.312022
-0.000684528
-0.000704101
0.00113887
0.00413915
0.00128621
0.00274062
0.00567969
0.00270352
0.00137928
0.00117279
0.00457919
0.000358741
0.00100105
0.00245937
-0.332368
0.292475
0.463793
-0.478964
0.472157
-0.47756
-0.00116187
-0.376249
-0.00360625
0.37962
-0.00469821
-0.373486
-0.011986
0.391433
0.023381
0.0293036
-0.266982
-0.00091107
0.286688
-0.30077
-0.000689271
-0.495555
-0.000942475
0.493768
-0.43298
-0.000189713
-0.438294
0.000125481
0.438204
-0.433112
-5.53775e-05
-0.43028
-5.76523e-05
0.430331
-0.442685
-0.000231676
-0.421399
-0.00133909
0.420491
-0.419681
-0.00376551
0.415923
-0.409941
-0.00775763
-0.00984171
-0.00227544
-0.000985429
-0.000136266
0.000147656
0.000439573
0.00128796
0.00266206
-0.00461199
0.00120832
-0.106369
0.118156
-0.116797
-0.109275
0.00109376
0.000656304
-0.00227178
0.00640074
0.103632
0.000943161
-0.00123353
-0.00964713
0.0126333
-0.0110653
-0.155007
0.0151469
-0.0328562
0.232399
0.0112432
-0.0111253
-0.00939205
0.00618174
9.09867e-05
0.079471
0.0805226
-0.00242739
0.0686885
0.106253
-0.00183462
-0.00231363
-0.00238399
-0.00081907
0.00822354
-0.123537
0.31606
0.0184177
-0.471639
-0.00301366
0.477532
-0.419021
-0.0020933
-0.432486
-0.000212233
-0.426844
-0.000175895
-0.428211
0.000937063
0.429043
-0.440146
0.000182042
-0.421114
0.000622935
0.421607
-0.42144
-0.000405056
0.421552
-0.000274488
8.71028e-05
0.000454998
0.00115665
0.00189027
0.00251165
0.00013587
-7.52742e-05
-0.00255293
-0.00243361
-0.00918578
-0.0115627
-0.00242408
-0.00249126
4.02136e-05
5.26811e-05
0.000307797
0.000129261
0.00033004
0.000261648
0.000336607
0.000404121
0.000381345
0.000260465
0.0015663
0.00190847
0.0024782
0.00907458
-0.000529079
0.0641565
-0.330193
-0.0835509
-0.000108923
-0.0312101
0.141844
-0.144749
-0.470729
-0.170414
-0.00273548
0.0411933
-0.000206497
-0.333567
-0.141365
-0.0934862
0.21341
0.0257564
-0.0235789
-0.0413555
0.120364
0.00438182
-0.0823454
-0.102514
0.103007
0.00023009
-0.0910468
-0.10805
0.0955201
0.000561662
-0.117066
-0.122461
0.0257445
-0.00707289
0.00114237
0.00145425
0.411719
-0.372301
0.00250481
0.385365
-0.0140141
0.0103271
-0.486928
0.00178901
-0.30232
0.310052
-0.0026137
-0.29447
-0.512846
0.443553
-0.0278518
0.0449316
0.16673
0.00174839
0.358827
0.266613
0.300157
-0.39862
0.00469077
-0.337691
0.0106206
-0.373899
0.00804863
-0.358239
0.0105084
-0.360015
0.00908781
-0.384196
0.279853
0.273627
-0.0192591
-0.481929
-0.387498
0.171134
-0.119042
0.14937
0.0839
0.0996952
-0.146326
0.0412362
0.0312893
-0.157913
0.0623293
0.114302
-0.136941
0.214615
-0.114978
0.0179059
-0.127167
0.0221488
-0.138705
-0.108698
0.0212753
-0.0087984
-0.00201359
-0.0013808
-0.000301075
0.000317078
0.000386575
0.000521301
0.00126423
0.00260243
-0.00466853
0.00130902
-0.0695343
0.0820981
0.000597928
0.0165636
0.0118856
0.00957605
-0.119501
-0.00876694
0.127701
-0.105127
-0.0575529
0.129535
-0.141125
-0.192836
-0.217649
0.153478
0.158478
-0.00949674
-0.013358
-0.0432746
0.00503057
0.162466
-0.0295461
-0.0380604
-0.0214636
0.116298
0.116381
-0.0382359
-0.0292753
0.14951
-0.0820913
-0.17381
-0.0825223
0.160055
-0.0160447
-0.0170214
-0.0207986
-0.00552355
0.00171471
0.274862
-0.0232045
0.0105701
-0.000452235
0.000345818
0.000566241
0.000347482
-5.28002e-05
-0.000711169
-0.00177698
-0.00024274
-0.00125932
0.000337465
-0.0112297
-0.00418605
0.00613809
-0.0157862
-0.00758404
-0.00749153
-0.209437
0.20127
-0.00575679
-0.00471386
0.00981432
-0.00484214
-0.00447949
0.0340712
0.0709721
0.0363072
0.253033
-0.127378
0.016323
0.132981
0.167878
-0.0665942
0.00667287
-0.00242353
0.0110255
-0.00269126
0.00127949
-0.0192032
-0.00380428
0.000143034
4.70499e-06
-0.000513398
-0.00119674
-0.000823105
-0.00207902
0.00147199
0.00280786
0.000604589
-0.0052899
-0.00111263
-0.000235762
-0.000203937
-0.000369571
0.00057014
0.00754353
0.00234451
0.00387446
0.00222049
0.000846548
2.41798e-05
0.000759053
0.00080217
0.00169258
0.00297225
-0.409734
0.372582
-0.374923
0.375779
-0.375384
0.00192219
-0.415636
0.415588
0.00443168
0.00292802
0.00181003
0.000799844
0.406502
0.00245413
-0.00378208
0.12864
-0.00277532
0.00240202
0.0115356
-0.0189651
0.136144
0.106912
-0.0472818
0.0188044
-0.000400626
-0.000169614
0.0697955
-0.0024017
-0.000141658
0.0492467
-0.148977
0.043198
0.000518051
0.0172991
0.0126564
0.00134707
-0.0132172
0.00535466
0.0116371
-0.0473811
-0.0435119
0.136611
-0.0576894
-0.105021
-0.0191318
0.129002
-0.00859526
0.0116198
0.00928491
-0.00646979
-0.000352266
0.00254051
0.00928509
-0.00367167
-0.00406634
-0.00108466
-0.000635651
-0.000185616
0.00117073
0.000742667
0.000631199
0.000419349
0.417615
-0.417902
0.376063
-0.376464
0.376821
-0.378403
0.00182327
-0.420126
0.418682
0.00135878
0.000556777
3.25005e-05
-0.000368185
0.000540937
-0.00106885
0.000547689
0.000236375
0.000439755
0.000338014
0.000646873
0.000219265
0.000681672
0.0020119
0.0112447
0.0101849
0.036578
0.0017404
0.000744102
0.000142519
-0.0007562
-0.00271437
-0.00113297
-0.00113746
0.000127471
-0.000261745
-0.000205792
0.000244039
0.000272115
0.000262817
1.70519e-05
-0.00109676
-0.00291219
-0.00304752
-0.00118617
1.5957e-05
0.000111065
0.000196603
0.000302863
0.000414593
0.000733965
0.000630977
0.000587695
0.0013042
0.00111055
0.000608018
0.00176842
0.00339358
0.00138978
0.00205353
0.0491031
-0.0100177
0.0044241
0.00143522
0.00536828
0.108537
-0.00504867
-0.0156721
0.0776726
0.0233113
-0.333712
-0.116095
-0.254021
0.227697
-0.15501
-0.165976
0.203825
-0.270099
-0.0145363
-0.0197722
-0.224572
0.197765
-0.00314707
-0.0110308
-0.0011364
0.00404509
0.00566345
0.0826867
0.025811
-0.153387
-0.131824
0.250397
0.0249478
-0.059222
-0.0171846
0.103417
0.0033796
-0.11815
-0.0765947
0.0777809
-0.000279037
-0.123699
-0.0850117
0.0675807
-0.00112211
0.107725
0.103622
0.00620003
0.129552
-0.125945
0.000485636
-0.113784
-0.000634023
-0.00262024
-0.000445395
-3.68897e-05
0.000178784
0.000197956
0.000172693
0.00013891
4.11036e-05
-0.00104662
-0.00285199
-0.00149347
-0.324508
0.310216
-0.000666342
-0.323004
0.315697
0.474064
-0.478927
0.474771
-0.484465
0.000278299
-0.381452
0.00259167
0.377542
-0.00036414
-0.377481
-0.000200632
0.377564
0.00202511
0.00228046
-0.277954
0.000788397
0.282067
-0.303729
0.000453918
-0.495316
0.000441718
0.49765
-0.433934
-0.000150072
-0.436985
0.000463021
-0.432404
-0.00069025
-0.426122
-0.00131635
0.42217
-0.438008
0.000106868
0.419704
-0.0011827
-0.413114
0.412113
-0.00121925
-0.42697
0.431543
-0.41721
-0.000149476
0.000428607
0.00187099
0.00157357
0.000813943
0.000273801
-0.000216788
-0.00108018
-0.00118325
-0.000165556
0.000842346
0.00209532
0.00214802
0.00464468
-0.324858
0.315621
0.000966956
-0.330046
0.31151
0.474677
-0.495374
0.472131
-0.504771
0.0127593
-0.431816
0.0398527
0.376027
0.00243953
-0.39574
0.0114232
0.379089
0.000689481
0.00706539
-0.274946
0.00569736
0.293224
-0.310577
0.00155139
-0.491602
0.00273631
0.496953
-0.425528
-0.00168776
0.41655
0.00379646
-0.471023
0.274999
-0.00110681
-0.317267
0.281853
-0.295316
0.0154207
-0.0361046
-0.0180088
-0.0312902
-0.0558528
0.350788
-0.497659
0.107826
-0.079556
-0.0309177
-0.0117849
-0.00435955
-0.00256771
-0.00415825
-0.00110231
0.0662144
0.682927
0.342403
-0.177773
0.119861
0.0612934
0.389759
-0.338055
0.367236
-0.0218693
-0.239577
0.0116239
0.433427
-0.409808
-0.00109407
-0.406736
-0.000102911
-0.411344
-0.000256239
-0.421119
0.00182618
0.424919
-0.434943
0.000417738
-0.419473
0.0017171
0.421379
0.00161551
0.0010971
0.442045
0.0024623
0.436903
-0.000343317
-0.00278934
-0.00526012
-0.0178833
0.00285026
0.239608
0.0166618
0.020838
0.0825876
0.145132
-0.200688
-0.00056593
-0.297732
0.00103235
-0.49303
-0.00227571
0.490094
-0.430174
-0.000801115
-0.437458
-4.15098e-05
-0.431493
-3.95027e-05
-0.429971
0.000360781
0.43033
-0.441968
-1.00651e-05
0.442241
-6.94765e-05
0.000402305
0.442644
-2.92427e-05
-0.000165994
-0.000858645
-0.00228481
0.426153
-0.00453004
0.402038
0.0240345
0.0123101
0.303299
0.0120316
0.00715943
-0.00053465
0.30817
0.0011801
0.00484087
-0.277248
-0.000362599
-0.302598
-0.000152632
-0.495429
-0.000190184
0.495675
-0.433942
-1.47481e-05
-0.438198
0.000279248
-0.433404
-0.000273877
-0.429476
-0.000577588
0.428806
-0.442499
-0.000450528
0.436213
-0.000945088
-0.000407715
2.79557e-06
0.00014375
0.00023133
0.000427602
0.00125288
0.00234875
0.00127004
0.00125018
0.000623359
0.00109861
-0.00156463
-0.00060376
0.000151608
0.000441522
0.000521919
0.00047368
0.000336933
0.000548758
0.00104159
0.00310585
0.00262791
-0.329142
-0.00855674
-0.322425
0.358187
-0.00735995
-0.339879
-0.347607
0.365118
0.341377
-0.00722439
-0.324442
-0.370547
0.387974
-0.348681
-0.00884583
-0.311908
0.351062
0.36925
0.363862
0.355889
-0.0081163
-0.343341
-0.318836
0.00265881
0.347782
-0.00671362
-0.364396
-0.332326
0.00118742
0.343806
-0.00245527
-0.37277
-0.338325
-0.347632
-0.35575
-0.00279505
0.35478
0.362289
0.00123634
0.336895
-0.0027299
-0.330129
-0.379278
0.385642
0.00114117
-0.304494
-0.457421
-0.00625881
0.315994
0.0021329
-0.297179
-0.439763
-0.00711796
0.333354
0.392619
-0.282358
0.0227486
-0.27448
-0.00970134
-0.278201
0.0224239
-0.273647
-0.00965386
-0.279286
0.0235531
-0.278816
0.387884
0.337435
-0.0105452
0.0152189
-0.00137869
-0.208166
-0.249536
-0.236295
-0.261971
-0.249442
-0.251424
-0.258283
-0.212079
-0.328221
-0.259524
-0.237201
-0.248813
-0.168098
-0.0726223
-0.0901438
0.149191
-0.166863
0.392608
0.396959
0.393902
0.395573
0.41001
0.385388
-0.16166
0.130322
-0.0723268
-0.168253
-0.0905924
0.162607
-0.0168441
-0.00347047
-0.00347336
-0.00161932
-0.000720728
0.000389993
0.000377048
0.359856
-1.86668e-05
-0.351174
-0.359606
-0.332649
-0.383317
-0.00025384
0.334557
0.383779
0.000462749
-0.307151
-0.463173
-0.00227989
0.311839
0.466356
0.00153765
0.0606882
-0.0595612
-0.000671093
0.0605304
-0.059903
-6.90094e-05
0.0613285
-0.0593839
0.00218604
0.0679376
-0.0535216
0.0128184
0.095048
0.0338216
0.0189226
0.00623486
0.00294488
0.000456271
-4.64283e-05
-0.000488777
-1.3062e-05
-0.00126344
-0.000896705
-0.0027708
-0.061605
0.468747
0.00312429
0.0578662
-0.0802934
-0.0126175
-0.0218343
-0.00856918
-0.0525418
0.0363105
0.0108804
-0.382479
0.0236436
-0.264037
-0.0107499
0.0157105
0.000685312
-0.167514
-0.285347
-0.277703
-0.232402
-0.0733765
-0.156721
-0.0632359
-0.125027
-0.355405
0.0606569
0.501523
0.382958
0.412514
-0.161249
-0.343361
-0.207211
-0.000521748
0.0348682
0.0227695
0.0130524
0.00498616
0.00166337
-0.000172629
-0.308157
-0.467303
0.465322
0.310618
0.000321691
0.00189118
0.00572987
0.00629246
0.0196376
0.00721593
0.00133457
-0.000285406
8.12361e-05
0.381331
0.00165032
-0.333787
-0.386504
-0.30722
-0.473995
0.00103574
0.311335
0.465145
0.0023963
0.0015282
0.00163443
0.00113016
0.00174276
0.0030212
-0.423423
0.379337
-0.379833
-0.00588603
0.00247966
0.00119056
-0.0026372
0.000611734
0.000175021
0.419547
0.000607718
0.000404653
0.418998
0.00266601
0.000251836
0.000825808
0.00151568
-0.000903694
-1.62049e-05
0.000487216
8.81723e-05
0.000310326
0.000143529
3.8015e-05
0.000374549
0.00137721
0.000610386
0.000135979
5.99341e-05
-0.000778816
-0.000247482
-0.000260086
-0.000855311
-6.57419e-05
0.000202558
0.000197929
-0.000427801
-0.000333651
-0.000188305
-0.000154507
-0.00370474
-0.00382511
-0.0169377
-0.00646872
0.370957
-0.00241459
0.000238792
0.000151931
-0.00169432
-0.00181795
-0.0010006
-0.00696581
-0.00635074
-0.00479152
-0.000930016
-0.336489
0.3028
0.00465714
-0.334284
-0.0137195
-0.0136282
-0.0651002
-0.0830659
-0.304168
-0.306471
-0.491556
0.12321
0.0468764
0.25458
-0.0896239
0.132024
-0.0148177
-0.150815
0.135731
-0.00339387
0.105866
-0.00345296
0.127662
-0.140889
-0.011898
-0.00374576
-0.00462009
0.00203185
-0.0170287
0.113364
-0.00566299
0.00420239
0.00423819
0.00271642
0.00154133
0.000668302
0.000572076
0.00601626
0.00517755
0.0129364
0.0111805
0.0319702
0.00661903
0.00299305
0.00101027
0.303252
-0.305843
0.00113145
-0.495004
0.00136902
0.500077
-0.432305
-0.000631922
-0.432704
0.000461045
0.427691
-0.000280087
1.55521e-05
0.000313792
0.000441876
0.0011133
0.00235988
0.00140139
0.000871499
0.00048353
0.000188084
9.45566e-05
0.00014317
0.000166552
0.000155543
0.425155
7.65893e-06
0.430837
3.20416e-05
0.413256
0.396759
0.00160695
0.395216
0.238359
0.00628245
0.00136615
-0.000159532
8.12874e-05
-0.000831839
0.43234
0.00151865
-0.00103902
0.281366
0.000172676
0.000548058
-0.000309817
0.303591
0.00106165
0.00348674
-0.276917
0.00275962
0.286456
0.000154004
0.00214494
0.000987407
0.000658619
-7.41309e-05
0.434048
0.000160678
0.433445
2.16071e-06
0.000649889
0.434683
0.000297575
0.438777
-0.000130899
0.0018352
0.434628
-0.00156448
0.302648
-0.000377042
0.00603228
-0.278259
0.00954408
0.29818
-0.00967847
-0.000305079
-0.010663
-0.0360358
-0.0843994
0.00314021
-0.0122743
-0.0053144
0.00406379
0.00367931
0.432022
-0.00063867
-0.00137757
-0.00135192
-0.000287231
-0.00485743
-0.000237531
0.000667221
0.000513579
0.43791
0.432231
-0.000330275
-6.71848e-05
-0.000876576
-0.00168188
-0.00186301
-0.00799516
-0.00299325
-0.0031095
-0.00165408
-0.000636166
0.440738
-0.00126005
-0.00022357
0.000387182
-0.000284439
-0.0015347
-0.00549379
-0.0166076
-0.00398613
0.000104005
0.000413317
0.00182374
-0.00211049
0.00244495
0.00420843
-0.00733357
0.0324388
0.0671908
-0.0488501
0.348359
-0.00162316
-0.0231821
-0.0340391
-0.0188795
-0.00648793
1.24306e-05
0.00649566
0.018782
0.0338032
0.0363653
0.000670324
0.0178478
0.0176887
-0.328287
-0.167006
-0.343795
-0.168716
-0.000456212
0.0212277
0.0053819
0.00224984
0.321536
0.382083
-0.00143562
0.00310736
0.00127553
0.00253837
0.00139052
0.00300873
-0.00387225
-0.0205945
0.153377
0.351689
0.0147028
-0.000490418
0.000997324
0.00102557
0.000518239
0.000600664
0.000256278
0.000258939
0.000326659
-0.000567091
0.000131215
0.000101045
0.000886787
-0.000410841
-0.000694199
-0.362784
0.0025868
-0.353341
0.340785
0.00687789
-0.355165
-0.367122
0.350163
0.327773
0.00459924
-0.334463
-0.390964
0.374721
-0.00072024
0.313308
0.462982
0.00515841
-0.00107116
-0.00129059
0.00106694
0.00179042
0.00454044
0.0772353
0.122137
0.187035
0.442208
0.0287482
0.228825
0.338787
-0.015647
-0.00430759
-0.0112061
-0.0030088
-0.0016063
-0.000247119
0.332599
0.356788
0.348689
0.338577
0.00277165
-0.378579
-0.344672
-0.000909312
0.333491
0.00726658
-0.380627
-0.349994
-0.00224557
0.322001
0.343184
0.305481
-0.00157984
-0.00242584
-0.00270229
-0.000817813
0.000260366
0.00166482
0.000323312
0.0002671
-0.000813566
-0.00034541
-0.00311918
0.0294736
-0.00323128
-0.00203199
-0.00491976
-0.00389542
-0.00241164
-0.00410963
-0.00175621
0.0842939
-0.00200052
0.00187959
0.00025686
-8.21335e-06
0.00510493
0.00447015
-0.0315778
0.181362
-0.078849
-0.306264
-0.387829
0.029069
-0.177522
0.0737447
0.0233422
-0.109386
-0.117631
-0.0128396
-0.0194162
0.129038
0.11826
-0.0111011
-0.115036
-0.00198806
0.115544
-0.000584571
0.00150561
-0.000113662
0.00134818
0.00330053
0.00343382
0.00236387
0.000690844
0.000550174
-0.0013315
-0.00115009
-0.00018415
-0.000688649
-1.324e-05
-0.000152451
0.000842439
0.00182141
0.00170057
-0.0023515
0.00308369
0.0065763
-0.0123159
0.385529
-0.025297
0.0184273
-0.42907
0.00530272
0.00468707
0.0350622
0.00405743
0.00860726
0.0263092
-0.00193443
-0.000738058
-0.00259782
0.00680055
0.0741516
-0.00480074
-0.00276329
-0.00141108
0.00190209
-0.188115
0.218137
-0.00650376
0.00141056
-0.00892818
-0.022421
-0.0253655
-0.00471387
-0.00223372
0.090447
-0.00230281
-0.00281279
-0.00530726
-0.000880259
-0.00310342
0.079708
-0.00520056
-0.0029859
0.00680838
0.00519699
-0.00118904
-0.00133079
-0.00086627
-0.00219908
0.00203423
0.00553463
0.00440563
0.00355788
-0.00874454
0.017336
0.0174139
0.0201144
0.0268109
0.385579
0.0525057
0.00816154
-0.0129807
-0.00460907
-0.000209784
0.00396146
0.0117274
0.00176504
0.379137
0.318031
0.00114028
-7.76222e-05
0.000350328
0.000342066
0.316077
0.376732
0.000134296
-0.376409
-0.341475
0.341246
0.000331425
0.352114
0.000342955
0.00762866
0.0211777
0.00212027
0.00205271
0.00613453
0.000373669
0.000546346
-0.00608182
-0.0186221
-0.00526212
0.313592
0.33477
0.321888
-0.00592673
-0.00195393
-0.000334501
-0.000108378
-0.000318245
0.373128
0.314697
-0.000151954
0.000366405
0.000108706
-0.000733168
-0.000853363
0.31224
0.364633
-0.00181535
0.00103163
5.17202e-05
-0.000458017
-0.00189037
-0.0104309
-0.0551591
-0.356622
-0.128665
-0.0251489
-0.00340288
-0.000473509
0.000257215
-0.000265651
-0.000595949
0.000824701
-0.00525432
-0.0136051
0.0127015
-0.0166542
-0.0332036
-0.0223176
0.0126083
0.229988
0.330838
-0.0161079
0.00281133
0.22003
0.332632
0.00195112
0.209483
0.345932
0.165003
0.00103884
-0.00195371
0.355683
-0.00215731
0.0201925
0.121436
0.0209496
0.0447937
0.047462
0.0450907
0.0597125
0.0376664
-0.000996738
-0.0049208
0.045894
-0.0215933
-0.0100335
-0.00778458
0.0490413
0.00476398
0.0338879
0.0296948
0.207431
0.17509
0.19441
0.185615
0.19016
0.0411269
0.00667479
-0.000794331
-0.00697161
-0.0839137
-0.283682
-0.267923
7.74921e-06
0.011403
0.171161
0.000112824
0.433522
0.00326293
0.000577157
0.000184054
-0.00064831
-0.0110256
0.00179259
0.304714
0.436261
0.431914
-0.000219252
-0.0107666
-0.427164
0.00119566
0.00151718
0.00140551
-0.0442984
0.476124
0.0126568
0.00673887
0.00225195
0.00583992
0.0946119
0.00332204
0.21473
-0.254227
-0.0315933
-0.449297
-0.000209375
-0.0214286
0.107151
0.000717867
-0.455653
0.410661
0.00557345
0.232149
0.0153609
0.0889348
0.216193
0.0346973
0.0369562
0.00175964
0.00151281
-0.00173326
0.292801
0.0132546
-0.018494
-0.0262037
-0.00840098
0.00213888
0.000453149
0.000190403
0.000342988
0.000403851
0.00012508
-0.000970943
-0.00151505
-0.0135837
-0.0068798
0.243793
0.0197263
-0.408609
0.445215
0.0269932
0.321692
0.00206035
-0.297847
0.308309
0.0302504
-0.270327
0.292762
0.00586555
-0.281787
0.287879
0.00366741
-0.284209
0.287635
0.00262641
-0.285811
0.287447
-0.000600633
-0.289027
0.284209
-0.00718643
-0.295789
0.271675
-0.0334597
-0.311058
0.202805
-0.148028
-0.393789
-0.119951
-0.369272
0.0230553
0.241321
-0.24318
0.013851
0.252289
-0.249628
0.00518528
0.25342
-0.260551
-0.00293705
0.252633
-0.259429
-0.0214483
0.243936
0.256103
0.3948
0.0999001
-0.284969
0.00372647
0.41892
-0.000768758
-0.426879
-0.00189744
0.409305
-0.00250092
-0.413317
-7.10514e-05
0.410905
0.0004273
-0.404747
0.0012986
0.416568
-0.0123064
-0.4378
-0.0190182
0.341546
-0.0606557
0.078493
0.178053
-0.325951
0.332001
-0.394725
0.371759
-0.383907
0.377781
-0.378248
0.379573
-0.375429
0.380979
-0.373805
0.379661
-0.375956
0.381155
-0.373882
0.391314
-0.332444
0.321557
-0.158554
0.31349
0.394206
0.1962
0.290824
0.212003