/*--------------------------------*- C++ -*----------------------------------*\
| =========                 |                                                 |
| \\      /  F ield         | OpenFOAM: The Open Source CFD Toolbox           |
|  \\    /   O peration     | Version:  2306                                  |
|   \\  /    A nd           | Website:  www.openfoam.com                      |
|    \\/     M anipulation  |                                                 |
\*---------------------------------------------------------------------------*/
FoamFile
{
    version     2.0;
    format      ascii;
    arch        "LSB;label=32;scalar=64";
    class       volScalarField;
    location    "1.5";
    object      gradTy;
}
// * * * * * * * * * * * * * * * * * * * * * * * * * * * * * * * * * * * * * //

dimensions      [0 -1 0 1 0 0 0];

internalField   nonuniform List<scalar> 
5322
(
0.649881
0.0610822
-0.00438576
-0.0272199
-0.0150529
-0.00530189
-0.000130572
0.00485696
0.0141557
0.0257996
0.000246681
-0.192012
-0.21341
-0.191567
-0.166301
0.3599
0.4814
-0.000752097
0.332428
-0.394126
0.374855
-0.380844
0.373614
-0.382419
0.381121
-0.373935
0.373606
-0.381471
0.38045
-0.375871
0.378257
-0.378347
0.390738
-0.33575
0.322121
-0.161062
0.316435
0.397197
0.198396
0.214816
0.293145
0.244836
0.253442
0.273626
0.260875
0.258312
0.265033
0.283145
0.262355
0.25053
0.314295
0.15216
0.170343
-0.561423
-0.0306332
-0.324856
0.170762
-0.426029
-0.0242474
-0.370268
0.17339
-0.418967
-0.0216493
-0.367518
0.174088
-0.43356
-0.0278848
-0.355431
0.175709
-0.476968
0.016789
0.41904
0.233406
0.326077
0.243571
0.308489
0.257416
0.30713
0.260784
0.360793
0.0328505
0.121341
0.183387
0.305246
-0.0259788
-0.127518
0.0362887
0.0713655
0.132206
0.0151675
0.0346021
0.00638994
0.00100636
0.00118381
0.444099
-0.23713
0.00714327
0.239077
0.00649068
-0.00624809
0.0326267
0.00638864
0.253139
-0.432981
0.387455
0.00522329
-0.00741126
-0.00138298
-0.000229434
0.000412687
0.000469583
0.000576742
0.00131826
0.00264683
-0.00449541
0.00117726
0.136879
-0.056305
-0.0193465
-0.105649
0.129932
-0.0723192
-0.14092
-0.192764
-0.217828
-0.00877588
0.159659
-0.120481
0.0112883
0.131581
-0.13106
0.0055208
0.136785
-0.140253
-0.00443053
0.127747
-0.153241
-0.0122014
-0.0353664
0.23461
0.194365
-0.127379
0.0844595
0.0656537
-0.134277
0.014473
-0.131567
0.103205
0.106061
-0.116946
-0.0017679
-0.109131
0.109532
0.118228
-0.106213
-0.000357948
-0.101525
0.12888
-0.00840744
-0.00636017
0.405006
-0.317425
0.350994
-0.372744
0.0125938
-0.240532
-0.00515172
-0.00220002
-0.0450212
0.1162
-0.232505
0.231325
-0.38832
0.000885477
0.396625
-0.391844
0.407956
-0.416938
0.00173292
0.410749
-0.420848
0.436496
-0.435202
0.00161776
0.425534
-0.428488
0.442296
-0.440517
0.000990197
0.43025
-0.43139
0.444397
-0.442577
0.000832401
0.432401
-0.433865
0.446828
-0.443499
0.00108262
0.433399
-0.436724
0.449972
-0.442612
0.00142778
0.431912
-0.438165
0.451349
-0.433687
0.00183924
0.421258
-0.433798
0.437418
-0.237097
-0.00106396
-0.0174861
0.00728089
-0.00704893
-0.000433561
0.00277939
0.00368519
1.724e-05
0.445066
-0.236012
0.00199802
0.281361
-0.0382268
-0.0112455
0.00928959
-0.0138517
0.238374
-0.438274
0.00254486
0.00195333
0.00548744
0.00355124
0.00189731
0.000854499
6.05982e-05
-0.00116764
-0.00294546
0.00438311
-0.00157604
-0.110189
-0.117364
-0.117417
-0.110444
0.0225641
0.0388877
0.0245188
-0.148378
0.0778309
-0.157352
0.0389784
0.0226085
0.0245647
-0.155509
0.0541532
0.148788
0.0960536
-0.148321
0.0779899
0.161517
0.22552
0.238208
-0.390182
-0.389296
-0.41898
0.303961
-0.377107
0.346102
-0.370605
0.358498
-0.369246
0.362999
-0.371066
0.364009
-0.376551
0.362544
-0.385591
0.358909
-0.394271
0.351475
-0.0773698
0.166851
-0.0530285
-0.0091617
0.304292
-0.363081
0.0035479
0.325452
-0.364189
0.00162748
0.336242
-0.357667
0.000755645
0.341138
-0.351878
0.000184103
0.341148
-0.349347
-0.000798922
0.335247
-0.350087
-0.00258718
0.318021
-0.356045
0.00833693
0.266343
-0.0245986
0.266109
-0.356622
0.00835241
0.305551
-0.416568
0.167188
0.276442
0.206608
0.193392
-0.367498
0.241092
-0.343046
0.303408
-0.336183
0.322197
-0.33528
0.328293
-0.338024
0.328949
-0.345195
0.326589
-0.353801
0.321149
-0.350568
0.306282
-0.0505086
0.120746
-0.138183
-0.00256841
0.419851
-0.513638
0.00888453
0.461145
-0.501771
0.00447694
0.469563
-0.483821
0.00174389
0.469665
-0.474629
0.0004326
0.469474
-0.471831
-0.000907298
0.4686
-0.471682
-0.00193706
0.460724
-0.475743
0.0106157
0.409649
-0.473645
0.166198
0.386132
0.343133
-0.172285
0.32715
-0.0776553
0.0616511
0.391991
-0.339255
0.31653
-0.298019
0.477354
-0.420281
-0.00332588
-0.470344
0.401185
-0.410403
0.0120612
0.432092
0.0192929
0.00837183
-0.12228
0.0119909
-0.00981817
0.00641648
-0.00234291
-0.000838296
0.39504
-0.395812
0.396107
-0.411798
6.63285e-05
0.42487
-0.427631
0.43257
-0.432502
0.000299312
0.435867
-0.434304
0.439085
-0.434607
0.000352995
0.442753
-0.432245
0.444105
-0.421483
-0.00068358
0.000574856
0.000950376
0.00317664
0.00178519
0.0011567
0.446741
-0.431607
0.00228491
0.510424
-0.504303
0.45176
-0.41722
0.0043834
0.506784
-0.481747
0.30703
-0.213646
-0.341347
-0.0231963
-0.00524897
-0.123386
-0.0317018
0.00955682
0.227007
0.296272
0.0236279
-0.482591
0.366606
0.00364463
-0.409162
0.373933
-0.000813986
-0.384892
0.378681
0.000168227
-0.371697
0.377292
-0.00266081
-0.371342
0.391926
-0.00670965
-0.354085
0.400157
-0.025161
-0.31587
0.102526
0.154151
-0.190105
0.00160103
0.310552
-0.264338
0.310239
-0.303331
0.308036
-0.30482
0.495974
-0.434736
-0.00102255
-0.497126
0.433214
-0.431901
-0.00259207
0.491446
-1.96173e-05
-0.00110446
-0.000721646
-0.0284868
0.00643671
0.0397594
0.0431932
0.0175917
0.00753531
0.0248801
0.0176228
-0.0226826
0.367267
0.117742
0.0256064
0.087897
0.0187642
0.00563673
0.0039327
0.00131951
0.000746325
0.0010335
0.00100161
-0.278919
0.000299793
0.284695
-0.281462
0.307316
-0.305714
0.310419
-0.306369
0.503738
-0.435403
0.000818472
-0.49983
0.440949
-0.435719
-5.0649e-05
0.499032
0.000980219
0.00100393
-0.000116141
-0.0028743
-0.00141286
0.00431364
0.00312731
0.000546543
0.0134353
0.00963561
0.290834
0.00141372
-0.0133803
-0.00114241
-0.0194844
0.00249834
0.193222
0.368975
0.678247
0.0710826
-0.0103073
-0.00478658
-0.0183956
-0.37472
0.00163407
0.348705
0.31737
-0.350268
-0.0025667
-0.369241
0.00272727
0.360737
0.334695
-0.349173
-0.00076158
-0.369229
0.00236172
0.364016
0.341132
-0.351564
0.000245555
-0.37249
0.00630012
0.363105
0.342203
-0.357585
0.000880679
-0.379943
0.0177276
0.357394
0.339819
-0.36561
0.00183995
-0.390364
0.0431766
0.344055
0.334496
-0.369622
0.00387724
-0.394225
0.0963456
0.322052
0.322031
-0.0619787
-0.00890364
-0.0717742
0.847961
-0.378847
-0.386832
0.626485
0.16288
0.0676277
-0.58468
-0.120545
-0.0705513
0.300356
-0.313551
-0.00546987
0.00655563
-0.0392909
-0.0472547
-0.00485956
0.0125425
0.00726833
0.0029458
-0.00385683
0.00173012
0.00278589
0.000822942
9.52162e-05
-0.000744618
-0.00256767
-0.00493519
-0.0171175
-0.00917145
0.238837
-0.238936
0.00287504
0.0015412
-0.242692
0.239125
-0.000565371
0.000994086
-0.00108105
-0.0181129
-0.0114781
0.0433623
0.00470101
0.0499001
-0.017698
-0.0217013
2.47579e-05
0.0799303
-0.0929102
0.0932831
-0.079632
-0.0806134
-0.0689137
0.00257062
0.0925045
0.0832479
-0.0830978
-0.00247599
-0.0932044
-3.83639e-06
1.46731e-05
0.00592254
0.0167959
0.0150337
-0.0333274
0.000650395
0.000167514
0.000978662
0.00281223
0.00683541
0.00294542
0.0239867
-0.0188888
-0.00212117
0.0136065
0.299589
-0.273406
0.315649
-0.311046
0.319066
-0.00766606
-0.282887
0.00820846
0.316957
-0.00116496
-0.0138718
0.00285865
0.00197204
0.00392631
0.00464852
-0.00334325
-0.0469914
0.161057
-0.0718518
-0.308897
-0.0391576
-0.0372256
-0.608707
-0.167804
0.021401
-0.245558
0.181551
0.00834789
0.0102853
0.219766
0.184356
0.0258412
-0.020608
0.244457
0.219693
0.02786
-0.0248363
0.221822
0.250543
0.0259671
-0.0572614
0.183994
0.25584
-0.0886429
0.133397
-0.116301
0.124306
-0.490835
-0.266589
0.0481989
-0.121144
0.263915
-0.0159119
-0.432625
0.228272
-0.00455902
-0.271092
-0.267987
-0.389611
0.163925
-0.214257
-0.137201
0.238354
-0.494393
-0.0554776
0.347716
-0.428006
-0.0109892
0.372461
-0.391873
0.000839943
0.375352
-0.377685
0.00192629
0.373596
-0.37385
0.00211186
0.373299
-0.372909
0.00574429
0.375225
-0.37049
0.0229543
0.387017
-0.331944
0.0933979
0.321975
-0.179787
0.341617
0.385835
-0.478455
0.408313
-0.48023
0.011046
0.240314
-0.367673
0.166015
0.192462
0.208353
0.276417
0.237732
0.167067
0.321872
0.191679
-0.00160147
-0.0279316
-0.0156624
-0.00982633
-0.00594513
-0.0115752
-0.00611528
0.00171262
0.0061652
0.286025
-0.277228
5.276e-06
0.000482995
0.000103535
2.87492e-05
-0.497878
0.436832
0.000200523
0.437874
-0.440168
0.000462324
0.440764
-0.442317
0.00110913
0.442588
-0.444699
0.00197692
0.442137
-0.44471
0.00251759
0.431156
0.00276899
0.0053354
0.000830559
3.96095e-06
-0.00125838
-6.13786e-05
0.000373769
0.000409763
0.000359707
0.000234793
0.000180372
0.000231749
0.00226509
0.00642871
-0.23264
0.00346301
0.0115166
-0.000605324
0.000409562
0.000619109
0.000396227
-4.29732e-05
-0.000787033
-0.00195901
-0.00285553
0.010428
-0.0029561
-0.00782446
-0.010232
0.204326
-0.218066
0.27644
0.00040015
-0.0372062
0.0310846
0.1026
0.000582805
-0.0911723
0.085821
0.0879964
0.000328884
-0.0975321
0.091555
0.0785778
2.11938e-05
-0.122504
0.11653
0.108909
-0.00207012
0.135714
-0.1429
0.139338
-0.150113
-0.0138609
-0.0829217
0.12048
-0.00990485
-0.114559
-0.00243216
-0.000764217
0.411297
-0.00143011
-0.413708
0.239227
-0.00832107
-0.247394
0.247843
-0.0053868
-0.259773
0.416705
-0.00391986
-0.416519
0.40888
-0.406954
0.404655
-0.414439
0.000944002
-0.412799
0.407308
-0.000828433
-0.247526
-0.00905317
0.24971
-0.212381
0.00195876
0.373687
0.133329
0.39361
0.143893
-0.203382
0.310838
0.0286424
-0.272151
0.294011
0.00590827
-0.284628
0.287745
0.00134547
-0.284304
0.287014
0.000206472
-0.287006
0.284747
-0.0013613
-0.286931
0.285132
-0.0068733
-0.293437
0.27096
-0.0310667
-0.310742
0.203101
-0.147807
-0.394165
-0.119362
-0.369111
0.241248
0.0225882
0.0120621
0.154172
0.0360729
-0.237386
-0.195615
-0.0543961
-0.151323
-0.0981146
-0.0766396
-0.167607
-0.0837446
-0.0889804
-0.166485
-0.243789
-0.252628
-0.166853
0.41457
0.0228637
-0.243956
-0.00856158
0.334477
0.393535
-0.00443633
-0.290213
0.00191702
0.324379
0.481247
0.00457505
-0.474033
0.000333282
0.478792
0.00112258
-0.476079
0.00128971
0.477367
0.000629691
-0.477618
-0.00100843
0.476065
0.000511654
-0.47936
-0.000175588
0.47415
-0.0009986
-0.482351
-0.00416685
0.466296
-0.00686041
-0.487493
-0.0171079
0.00213294
-0.299671
0.486823
0.00305873
0.312769
-3.81662e-05
-0.304389
0.497792
-0.00016117
0.308436
3.05971e-05
-0.306675
0.500603
-0.000129559
0.307696
-0.000287722
-0.306398
0.50151
9.94736e-05
0.306538
0.000436229
-0.307484
0.501968
0.000330322
0.306845
0.000100029
-0.30791
0.502064
0.000551071
0.304553
0.000512798
-0.311352
0.499033
-0.0013633
0.30138
8.41728e-05
-0.318183
0.476045
-0.0187998
0.341571
-0.0610893
0.0785031
-0.38776
-0.341948
0.178414
-0.326051
-0.0956611
-0.0660881
-0.681772
-0.371117
-0.325654
-0.231393
-0.167299
0.371473
0.429678
0.0311935
-0.231129
-0.0109336
0.486307
0.0144392
-0.465252
0.00549456
0.00352203
0.0074197
0.0187726
-0.320533
-0.0154866
0.156163
-0.0229815
-0.0221304
-0.0420906
0.149297
-0.0493672
0.0203361
0.0178684
0.000468903
0.00134569
0.00122837
0.000717545
0.000611908
0.000185635
-0.00242441
-0.00176464
0.425778
-0.493575
0.00188072
-0.00256475
-0.00480112
-0.000356245
-0.40596
-0.000417273
0.413735
-0.432299
-0.000430136
0.43186
-0.438069
-2.74742e-05
-0.000132609
-0.00106594
-0.000515325
-4.53986e-05
0.000747151
0.000673941
0.0005929
0.000383056
0.000250351
0.000153368
0.00120012
0.00187688
0.000740342
0.410557
-0.413402
0.375698
-0.377959
0.379075
-0.378472
0.00210647
-0.198007
6.23377e-05
0.186756
0.00673261
-0.208947
-0.000742886
0.158755
-0.0162126
-0.0130748
0.0594464
0.00272927
-0.0641698
0.473358
-0.00643386
-0.297253
0.00114099
0.304412
0.396335
-0.0028344
-0.312835
0.000403292
0.317118
0.383581
6.41364e-05
-0.316797
-3.65211e-05
0.314312
0.38446
0.00250438
-0.32021
-0.000626963
0.308141
-0.323491
-0.00113157
0.290321
-0.33092
0.0130593
-0.00940979
-0.00240936
-0.000919026
-3.22649e-05
0.000255756
0.000533377
0.00143759
0.00300614
-0.00446495
0.00136241
0.110338
0.116221
0.117614
-0.0350038
0.15903
-0.0166787
-0.0173198
0.163351
-0.0309085
0.148942
-0.0480697
0.00586944
-0.0132533
0.0127712
-0.003194
0.00288689
-0.00234441
-0.39075
0.0102847
0.0115371
0.00245897
0.000140345
-4.31761e-05
-0.082957
0.0822785
0.00258954
-0.0699804
0.107319
-0.0218629
0.00922271
-0.00375385
-0.00425944
-0.020849
0.154782
-0.384869
0.0232489
-0.25845
-0.0105913
0.327355
0.401929
-0.00945261
-0.295602
0.00260862
0.3871
-0.00709234
-0.306274
0.00120482
0.320543
0.388026
-0.00175064
-0.314777
0.000435506
0.318088
-0.317909
-0.000146608
0.314944
0.000602045
0.000219285
-0.000119791
-0.000382786
-0.00128654
0.0094336
-0.00622605
-0.0002821
0.00254316
3.70525e-05
-0.00237035
-0.0111436
-0.00939271
-0.00256217
-0.0025465
0.00236128
0.0066437
0.00127256
0.00586024
0.00161259
0.00378889
-0.00847918
-0.0119817
-0.0256227
-0.0283925
-0.0607693
-0.0510123
-0.0308224
-0.118237
-0.367863
0.0318045
-0.568414
-0.417674
-0.299485
-0.199064
-0.179671
0.0711645
-0.161486
-0.0158127
0.0378615
0.00146802
-0.00623578
0.193766
-0.229024
0.28162
0.00267312
-0.0329877
0.0523854
0.119635
0.00507227
-0.0813953
0.111838
0.1121
0.0055269
-0.0872938
0.115641
0.104894
0.0041839
-0.11673
0.13059
-0.00622644
0.00371511
0.0187067
0.0801155
-0.343814
-0.498782
0.00546528
0.466787
0.0133625
0.00988489
0.301786
0.00182471
-0.495159
0.501252
-0.000750283
-0.473746
0.278442
-0.31961
0.284819
-0.0313064
-0.297563
0.0161456
-0.331202
0.461678
-0.404426
0.420482
-0.00142824
-0.421495
0.000774708
0.417755
-0.00125099
-0.419426
0.000245317
0.421303
-0.00122754
-0.423069
0.411257
-0.473434
0.0272315
-0.328007
0.448896
0.0208602
0.0108022
-0.123507
0.134028
-0.138293
2.76582e-05
-0.115534
0.106127
0.00754438
-0.131944
0.0939071
-0.107187
0.00483396
0.191961
-0.115823
0.0710658
0.0177134
-0.136472
0.107321
-0.00212675
-0.00233213
-7.15148e-05
0.00453363
0.00282304
0.00146405
0.000650483
3.87513e-06
-0.00113264
-0.00287261
0.00441691
-0.00136854
0.0691842
0.0796029
0.00014724
-0.0188602
-0.0116574
0.149973
0.054345
-0.127282
0.0654578
0.0845772
-0.133241
0.00434723
-0.154277
-0.011983
-0.0359708
-0.124611
0.195369
0.237626
0.0124085
0.0435957
-0.0105952
0.00595737
0.104226
-0.112003
-0.00135529
-0.117488
0.117156
0.111998
-0.104182
-0.000718003
-0.142143
-6.9544e-05
0.142096
3.14609e-05
7.18367e-05
-0.00258467
0.00848732
0.0037556
0.0635123
0.677625
0.3686
0.18964
-0.00153601
-0.0249049
-0.0139715
-0.00769788
-0.0104073
-0.0224015
-0.0470929
-0.0514917
-0.104764
-0.116058
-0.24687
-0.416853
-0.371114
-0.374349
0.15904
-0.249874
-0.0969179
-0.105077
-0.323962
-0.426424
-0.378571
-0.378144
-0.383376
-0.376965
-0.42738
0.161281
-0.0458659
-0.134095
0.511593
-0.160384
-0.306468
-0.299221
-0.0782716
-0.0971175
-0.226562
-0.238093
-0.0626718
-0.0965099
-0.0235811
-0.00770359
-0.00134726
3.61015e-05
0.000246591
-0.00075802
-0.00444417
-0.00520933
-0.0192986
-0.00811899
-0.00297383
-0.00568243
-0.00355321
-0.00487606
-0.0118791
-0.0304192
-0.0127128
-0.0123755
-0.0143648
-0.00683244
-0.00190272
-0.00014218
-0.000330474
-0.00123446
-0.00123782
-0.00366242
0.302582
0.45709
-0.473653
0.465349
-0.471791
-0.000636888
0.321156
-0.336687
-0.00156142
-0.00287374
0.00151233
0.00525675
-0.343584
0.0158064
-0.156569
0.0966064
-0.0300816
-0.00935118
-0.011104
0.0142966
-0.134495
0.105652
-0.000792344
-0.000380822
-0.000389556
8.79542e-05
0.0689103
-0.00236815
0.000296207
0.000292031
-0.000200093
-0.0435658
0.000222669
0.0180557
0.011199
0.0147872
-0.0122925
0.0103292
-0.000166887
0.00107136
-0.0434461
0.134219
0.133254
-0.0842721
-0.0142
-0.0667374
0.128049
0.0112432
0.00248031
5.46494e-05
6.51842e-06
-0.00254526
-0.00232044
-0.00238842
-0.000477747
-0.0104006
-0.00087178
-0.00237423
0.000799766
0.00534829
0.001222
0.00347214
-0.335335
0.327154
0.467452
-0.472914
0.4684
-0.478235
0.001192
0.327539
-0.337181
0.000283338
5.12846e-05
9.2089e-05
0.000541447
0.00126636
0.00304513
0.00255115
0.00564369
0.00310935
0.00658129
0.0067469
0.0161991
0.0137805
0.0146171
0.00648441
0.0863058
0.00118288
0.00206827
0.000977467
0.000222659
-0.000772829
-0.00277796
-0.00308746
-0.00118041
-0.0011065
-0.000718664
-0.000159852
0.000111849
0.000247263
0.000395864
0.000348393
0.000207238
-0.00104104
0.00139983
0.00132433
3.27263e-05
0.000156393
0.000284474
0.000456108
0.000811462
0.000927994
0.000865357
0.00174732
0.00205071
0.00148729
0.00332677
0.00435981
0.00359588
0.0226764
-0.0287921
-0.0410733
-0.00798672
0.00449744
0.00598792
0.00612281
-0.101038
-0.00170295
-0.000976632
-0.00150108
-0.00983612
-0.00382928
0.21396
-0.00279553
-0.285055
-0.00206711
-0.012917
-0.263972
-0.0114676
-0.0155897
-0.165645
-0.0736653
-0.12678
-0.315406
0.030596
0.0804266
0.00542639
-0.00423762
-0.00356702
-0.00662389
0.00186013
-0.191564
0.272957
0.00192907
-0.0600788
0.0265185
0.0945786
0.000446346
-0.117887
0.0748805
0.0759575
-0.000554744
-0.121981
0.0801945
0.0668637
-0.00130439
-0.111782
0.0253377
-0.151264
0.0668302
0.105939
-0.147024
0.0444199
0.021875
-0.00891408
-0.0019892
-0.000708769
0.000161179
0.00032872
0.000496963
0.00133301
0.00248427
0.00313358
0.00295585
0.00435457
0.41981
-0.419589
0.00181787
0.421841
-0.421922
0.379345
-0.379589
0.380021
-0.381585
0.00137645
-0.199093
-0.00101122
0.194044
0.00138009
-0.19687
-0.000219665
0.193548
-0.00114483
-0.000785405
0.0626286
0.00121036
-0.0620944
0.469774
-0.000244755
-0.300677
8.2449e-05
0.303683
0.392213
0.00184608
-0.316749
-0.000628456
0.374069
0.00710817
-0.322551
-0.00235869
0.289796
0.367923
0.00631125
-0.397156
0.00932827
-0.330084
-0.393298
0.00847355
0.357547
0.297388
-0.324439
0.010227
-0.00876935
0.00307989
0.00159121
0.000892334
0.000178936
-0.000608265
-0.00162156
-0.000785049
-6.31964e-05
0.000661207
0.000406141
0.000586299
0.000245049
0.422838
-0.424154
0.00173097
0.423626
-0.42751
0.38236
-0.383075
0.388033
-0.375323
-0.0145345
-0.197879
-0.00625089
0.200707
-0.00131757
-0.203767
-0.00273306
0.195058
-0.00256942
0.00219812
0.0700371
0.00506168
-0.0556703
0.466899
0.00199597
-0.295642
-0.00235975
0.302758
0.36519
0.00565713
-0.407605
0.0108752
-0.289411
-0.516825
-0.0022045
0.446776
-0.0299982
0.168475
0.001292
0.12198
0.0767617
0.0448786
0.0288542
0.228273
-0.144652
-0.0130537
0.00600974
0.000145554
-0.00049574
-0.000172294
-6.49204e-05
-0.000859579
-0.00511356
0.00163375
0.27696
-0.198706
-0.321568
-0.0734581
0.0610984
-0.157875
0.506086
-0.233372
-0.285151
-0.275949
-0.161372
0.380198
0.420374
0.0219462
-0.260178
-0.00942384
0.389229
-0.00836524
-0.29003
0.00281234
0.325012
0.389806
-0.00483602
-0.30808
0.000997349
0.320555
0.0016918
0.00194094
-0.37912
0.00584972
-0.365649
0.0338031
0.0345828
0.00107335
-0.20378
-0.341267
-0.238182
-0.168263
-0.354851
-0.125561
-0.0637499
0.037221
0.0105868
0.480565
-0.00745942
-0.29031
0.00214979
0.308892
0.398248
-0.00743511
-0.307424
0.00117724
0.385434
-0.00267923
-0.313435
0.000382022
0.317631
0.386487
0.000269723
-0.386699
-0.000370139
0.000361812
-0.38423
0.00692856
0.00708312
0.0192526
0.00581173
-0.358731
0.0162644
-0.290084
0.00108259
-0.0532005
-0.082883
-0.0224629
0.0226361
-0.00917961
-0.443122
-0.00120328
-0.00309098
0.0625773
0.00124109
0.47092
-0.0023975
-0.299739
0.000449347
0.303066
0.394689
-0.000240215
-0.315292
8.3809e-05
0.380748
0.00272479
-0.319277
-0.000835843
0.307053
0.379925
0.00607934
-0.39189
0.00102473
-0.000605895
6.62066e-05
0.000297106
0.000337351
0.000243535
0.000152601
7.98374e-05
-0.00118357
-0.00308692
-0.000734895
-0.000813709
-0.00102969
-0.000119563
0.00043199
0.000667011
0.000833819
0.000195727
0.000316252
-0.000189804
-0.000228909
-0.0011008
-0.000557703
0.43024
-1.77739e-05
-0.430083
0.432573
3.71215e-05
-0.437
0.437211
-0.432047
0.436249
-0.0006444
-0.443146
0.436179
-0.433734
0.429774
-0.00192571
-0.438118
0.418214
-0.41675
0.417143
-0.418403
0.0018791
-0.43009
0.438805
0.000995291
-0.436464
0.000739132
-0.436581
0.444013
0.000594211
-0.442059
0.000266694
-0.438267
0.444837
-0.438584
0.438906
0.000109898
0.437346
-0.436733
-0.000161864
0.44192
-4.14558e-05
-0.44394
0.437951
-0.436595
-0.000944056
-0.499395
0.307734
-0.000453895
0.494122
-0.00236175
-0.496662
0.310869
0.00130468
0.4812
-0.422481
0.405324
-0.00147692
-0.412289
-0.00048356
0.402197
4.38639e-05
-0.402094
0.000903136
0.412609
0.00150164
-0.405428
0.423528
-0.482515
0.00341831
0.00510598
0.00465657
0.0171569
0.0116981
-0.241941
0.249528
-0.245862
0.245809
-7.35464e-05
-0.000726238
-0.000688915
-0.249505
0.241777
-0.0118308
-0.00681631
0.129296
-0.144408
0.000510556
-0.000940554
0.401477
-0.406454
0.406689
-0.401679
0.415138
-0.437065
-0.0118962
-0.00455598
-0.129296
0.00679362
0.144342
-0.00595772
0.00265095
0.00255152
7.48417e-05
0.000131695
0.000192033
0.000217374
0.000175556
-0.438343
6.99003e-05
-0.438705
0.439104
-0.443758
0.438696
0.000122788
0.444045
-0.437573
-9.27775e-05
-0.499352
0.306812
2.99124e-05
0.497946
-0.30594
1.10188e-05
-0.279709
0.2848
0.00282429
-0.28059
0.285417
0.00387325
-0.279706
0.289759
0.00724681
-0.27779
0.296445
0.00622468
-0.281043
-0.00943727
-0.000111446
-0.00137714
0.0023838
0.000314946
0.00124166
-0.000176723
0.000346532
-0.000958569
0.00135649
0.00549598
0.289963
-0.304159
-0.00042032
-0.269361
0.306318
0.0299254
0.0122744
-0.000493948
0.0120853
-0.20265
-0.00028771
0.318096
0.0185492
-0.474688
-0.00304537
-0.00474247
0.0248495
0.0170867
-0.0226173
-0.240905
0.368382
0.119611
0.391798
0.145625
0.0828732
0.019911
0.0604858
-0.341499
0.43645
-0.414429
0.0118518
0.00197577
-0.0188045
-0.00501847
-0.00260972
0.0074605
0.00170619
0.000692823
0.000821175
0.000647538
-0.499264
0.306638
-0.307046
0.499936
3.33787e-05
-0.000766873
-0.0022765
-0.000502698
-0.000655031
-1.02499e-05
0.000157366
0.000827407
0.000617976
-0.437511
3.47013e-05
-0.442365
0.438711
-0.498839
0.306174
0.00132721
0.502066
-0.30906
0.00300234
0.000322133
-0.000958379
-0.00176585
-0.00592963
-0.00440967
0.323697
0.468619
-0.489018
0.04022
0.00708433
0.0033193
0.0117826
0.00572525
0.0138171
-0.342222
0.0119968
0.0327938
-0.347903
0.00278302
0.00151431
0.00107922
0.00198205
0.0030259
0.00412251
0.00189897
0.00123856
0.000713781
0.000534842
0.000415112
0.000610904
0.000808724
0.000570149
0.000445258
0.000582053
0.000730608
0.000608464
0.00106476
0.00110675
0.000580105
0.00129331
0.00107693
0.00153664
0.00114203
6.56346e-05
-0.000926213
-0.000324528
0.00216213
0.00405479
0.000338462
-0.0231146
0.00275683
0.000563277
0.000934806
0.00114497
0.00126979
0.00105902
0.00225518
0.00139542
0.00263721
0.00145897
0.422764
-0.431266
0.0021561
0.414729
0.00693192
0.00135681
0.00337624
0.017604
-0.0679575
0.168566
-0.13437
0.283345
0.0414092
0.193575
-0.155821
0.126044
-0.135938
0.0860687
0.0980894
-0.148467
0.0339651
-0.154751
0.0909464
0.0944919
0.18543
-0.00862527
-0.00233821
-0.023603
-0.00113889
-0.107607
-0.00167265
-0.000754593
0.000656921
0.000886474
0.00167841
0.000991385
0.000653215
0.000851935
0.000644823
0.000160681
0.000587472
0.000344867
0.00240253
0.00114797
0.000491365
-0.471392
0.469429
0.00107431
-0.299946
-0.000744321
0.30566
0.385239
0.00510463
-0.318366
-0.00193163
-0.388972
0.00166909
0.000929464
0.000222568
0.000467959
0.000234117
0.00250616
0.000600759
0.000277435
0.000453797
0.000434162
0.000441536
-0.000593798
-0.00140286
-0.00311211
-0.352668
0.00628273
0.324836
0.0186083
0.336761
-0.297736
-0.324905
0.383349
-0.256963
-0.241955
-0.200466
0.00226683
0.00212844
0.00194161
-0.381262
0.0129416
-0.00150546
-0.0618982
-8.3798e-05
0.00498822
-0.000541696
-0.467208
-1.71614e-05
-8.48127e-05
0.0634712
0.00228228
-0.0615332
0.000421214
0.00292916
0.000934872
0.0016908
0.000383979
-0.390168
0.000432786
-0.379777
0.00130785
-0.000271727
-0.394115
-0.000263353
0.315077
-0.00308162
-0.00145132
-0.397115
0.00620204
-0.478126
0.0188727
0.012791
0.0971752
0.0101367
-0.491153
0.0338409
0.00142211
0.00405113
0.0280214
0.186236
0.441006
0.22901
0.336774
-0.0165309
-0.00471619
-0.401123
-0.0113478
-0.0226499
0.0106951
0.22722
0.327664
-0.0172364
-0.00561129
-0.00172483
0.310547
-0.385905
-0.00569477
0.000461663
-0.0174895
-0.0315297
0.000709177
0.209829
0.329999
-0.0181805
-0.00598178
-0.00200891
-0.388868
-0.00198771
-0.000291226
0.000107618
0.00184104
0.00469761
0.00143587
-0.0257732
-0.00734213
-0.000271216
-0.00259797
-0.00632771
-0.00404042
-0.00690637
-0.00120877
0.191604
0.369481
-0.0690549
0.0596181
0.0265938
0.0330385
0.00920031
-0.00211874
-0.000804542
-0.000182068
0.000102172
0.000294598
0.000773627
0.00241156
-0.000127485
-0.000156646
-0.00105488
0.00156835
0.000880117
0.000972885
-0.00188825
-0.0184253
-0.0256108
-0.00775024
0.00271213
0.00274038
-0.496022
0.435016
0.00130958
0.00136589
0.00136759
0.00262124
0.00325604
0.00309765
0.000652134
-0.00843904
0.123847
-0.414531
0.0210851
0.00118105
0.00109476
0.000616995
0.00059764
0.00108507
0.000393372
0.00036354
0.000330986
0.000528204
0.000182359
0.000241681
0.000235443
0.000903974
0.000897507
0.437871
-0.000164204
-0.43756
0.437849
-0.000652919
-0.433571
0.433275
-0.437374
0.443991
-0.00044322
-0.437734
0.436161
-0.435681
0.00167451
0.50452
-0.313526
0.00594163
0.00261205
0.00210322
0.0012121
-1.91374e-05
-0.0104523
-0.0176726
-0.0356664
-0.0840869
0.00454087
-0.0361541
-0.0119552
-0.00355789
0.00485733
0.00414037
-0.000488856
4.33426e-05
0.000967488
0.000501455
0.444763
-0.438567
0.439231
-0.44461
-0.000150009
-0.437862
0.442965
-1.30504e-05
-0.444192
-0.00064244
-0.435049
0.437997
-0.000252307
-0.439626
0.432626
-0.498776
-0.00160395
-0.00240622
-0.00102619
0.000309313
0.000586795
0.00221924
0.00514231
0.021365
0.085856
-0.0267369
0.856025
-0.0204721
-0.00448447
-0.0156387
-0.150111
0.0304072
0.0859811
0.00748381
-0.00123787
-0.08395
-0.00136777
0.00257313
0.00623279
0.000396552
0.000481093
0.00656041
0.00348366
-0.264702
0.218129
-0.008715
-0.00610697
-0.00042382
0.0447208
-0.0101843
0.0369994
0.0593005
0.0956312
0.190103
0.0471559
-0.122772
0.0483385
-0.154476
0.0379009
0.0210662
-0.117328
0.00661106
-0.00239285
0.000273001
-0.000587872
4.84381e-06
0.00221201
-0.00104368
-0.00233286
-0.000331169
-0.00273205
-0.000959267
1.17818e-05
-0.000146756
0.0001789
-6.46047e-05
-0.000157302
-0.000880142
4.07292e-05
0.00123008
0.00248522
0.0102173
0.108441
0.455308
0.0260803
-0.0808821
0.292504
-0.00466531
-0.0624726
-0.0207943
-0.029901
0.849686
-0.0162413
-0.00472123
0.00533663
0.00215803
0.00544666
-0.0759585
-0.00163718
-0.00176563
-0.0163575
-0.151144
-0.129183
-0.0779372
-0.30481
0.0310678
0.0759298
0.00389198
-0.00428306
-0.00449695
-0.00239532
-0.0937773
-0.00464382
0.0449715
-0.0269982
0.047866
-0.00270467
-0.085547
-0.00505761
-0.00280147
-7.94357e-05
0.00521051
0.0190915
0.00250357
0.00331536
0.0177477
0.0173168
0.000832378
-0.00177687
-0.000445707
0.00105185
0.00299784
-0.00136466
-0.00111078
0.0134952
0.323156
0.0140929
-0.000329651
0.00188874
0.00045606
0.000143354
-0.000150614
-0.00150194
0.00116908
0.437948
-0.499803
0.00126859
0.000529481
0.00043094
0.00044344
-0.501088
0.438835
9.48434e-05
-0.438521
0.444567
-0.444013
0.000348379
0.438997
0.000317497
0.000126242
8.78805e-06
-8.06e-05
0.00055088
0.00104911
0.000198735
8.10048e-05
-0.000216683
-0.000958159
0.00152171
0.437471
-0.431523
0.431274
-6.24014e-05
0.000112145
0.000204897
0.000178754
-1.90852e-05
0.438898
-0.501791
-6.2439e-05
-0.000184575
0.000152896
-0.000690724
-0.000727397
-0.502015
0.437782
-0.000540572
-0.000382712
-0.00101946
0.0010185
7.13527e-05
0.00012476
-0.0130474
-0.0208014
-0.0844987
-0.013486
-0.0013987
5.00074e-05
0.0004153
2.62378e-05
0.000109282
0.00123346
-0.00136643
-0.00156428
-0.000357864
-0.000234545
-0.00190522
-0.00119678
-0.00112752
0.000320066
-0.00173953
0.00132417
-0.00195029
-0.00677583
-0.000586065
-0.00239929
-0.0150107
0.010725
0.0298914
-0.000612896
0.001198
-0.428419
0.00326396
0.0132424
0.0867304
-0.00176577
-0.00251552
-0.0186848
-0.176618
-0.108471
0.0246593
-0.00314053
-0.00247889
-0.00196063
-0.02238
-0.0028625
0.163084
0.0493283
-0.00835641
0.0347168
0.245833
0.0214339
-0.00360083
-0.00642848
-0.00759746
-0.0114128
-0.283089
-0.252032
0.0018668
0.0255376
0.00945578
0.041048
-0.0776495
0.000482662
0.00452462
-0.011568
0.000173478
-0.383306
0.00537267
0.00111739
-0.000259432
-0.001647
7.75201e-05
-0.001367
-0.461301
0.31965
-0.371811
0.0193856
0.184404
0.314761
-0.000190145
-0.00034328
0.00110699
-0.0793716
-0.301045
-0.0209201
-0.0047734
-0.00116931
-0.00254947
-0.0886617
0.000673164
-0.278708
0.0070964
-0.270604
-0.00209405
0.0368785
0.00136223
-0.106112
0.0500049
-0.0100434
0.333241
0.00039096
-0.284163
0.0213632
0.0890811
0.0166491
1.69197e-05
0.00148998
0.000321616
0.00504691
0.322237
-0.503577
0.00165789
-0.16766
-6.00201e-05
0.021993
0.0346004
0.0193723
0.00658462
-0.000469095
-0.0075036
-0.0201606
-0.0352232
0.000282774
0.206148
0.24524
0.243961
0.170974
-0.406088
-0.382172
-0.0188875
0.386989
-0.00823837
-0.473003
0.0796965
0.0130403
-0.055145
0.060819
0.00381937
-0.0566925
0.0588362
0.00238984
-0.054465
0.0594489
0.00191318
-0.0540429
0.0583785
0.000111642
-0.0557395
0.0560403
-0.00403861
-0.0608248
0.0507983
-0.015043
-0.0803799
0.0302983
-0.0649413
-0.155796
-0.0747066
-0.233434
-0.286631
-0.28033
-0.238398
-0.253742
-0.263817
-0.252404
-0.272609
-0.259153
-0.257475
-0.268376
-0.256583
-0.273911
-0.272081
-0.253714
-0.33747
-0.158088
-0.152122
0.583268
0.0370662
0.328412
-0.162261
0.424847
0.0268634
0.377044
-0.166804
0.402242
0.0223421
0.388795
-0.167317
0.397725
0.0231055
0.409218
-0.161993
0.386047
0.0246526
0.501722
0.0605432
-0.0431879
-0.321533
-0.00304512
-0.243369
0.156628
-0.211722
0.185801
-0.199851
0.193854
-0.194615
0.196898
-0.193646
0.197119
-0.192134
0.200122
-0.185972
0.210569
-0.157256
0.242627
0.00435857
0.302813
0.213385
-0.0847468
0.238761
-0.222664
-0.0108745
-0.00522436
-0.122083
0.12889
-0.114755
0.212177
0.0287388
0.0344856