/*--------------------------------*- C++ -*----------------------------------*\
| =========                 |                                                 |
| \\      /  F ield         | OpenFOAM: The Open Source CFD Toolbox           |
|  \\    /   O peration     | Version:  2306                                  |
|   \\  /    A nd           | Website:  www.openfoam.com                      |
|    \\/     M anipulation  |                                                 |
\*---------------------------------------------------------------------------*/
FoamFile
{
    version     2.0;
    format      ascii;
    arch        "LSB;label=32;scalar=64";
    class       volVectorField;
    location    "1.7";
    object      flux;
}
// * * * * * * * * * * * * * * * * * * * * * * * * * * * * * * * * * * * * * //

dimensions      [0 1 -1 1 0 0 0];

internalField   nonuniform List<vector> 
2658
(
(1.00028e-06 9.79833e-07 -8.62956e-06)
(1.46422e-06 5.68396e-07 -8.30592e-06)
(4.73893e-07 1.76666e-07 -5.99638e-06)
(-3.16988e-08 -1.86842e-08 -5.43995e-06)
(-1.99493e-06 -1.96184e-06 -6.81097e-06)
(-1.68549e-06 2.40647e-06 -6.97148e-06)
(1.72041e-06 -2.00745e-06 -6.18464e-06)
(1.6994e-06 1.69132e-06 -5.9708e-06)
(-2.9778e-08 -2.36398e-08 -5.43535e-06)
(2.38903e-06 -1.70655e-06 -6.95087e-06)
(-1.63736e-06 5.24274e-07 -7.03674e-06)
(-1.2017e-06 -3.99959e-06 -5.65682e-06)
(8.11026e-07 2.45143e-06 -7.62563e-06)
(9.6069e-07 2.49245e-06 -7.15203e-06)
(7.33319e-07 2.02144e-06 -7.37165e-06)
(-6.24351e-08 2.07442e-06 -7.57784e-06)
(-3.29589e-08 2.27077e-06 -7.31072e-06)
(-1.35246e-08 2.04249e-06 -7.56064e-06)
(-8.05279e-07 2.06902e-06 -7.36275e-06)
(-1.04531e-06 2.46139e-06 -7.0575e-06)
(-9.97916e-07 2.37365e-06 -7.49908e-06)
(-2.31905e-06 2.07303e-06 -6.755e-06)
(-2.76543e-06 6.87202e-07 -7.71293e-06)
(2.06935e-06 -4.60536e-07 -5.85063e-06)
(-8.71081e-07 7.58128e-07 -9.18195e-06)
(-1.09632e-06 2.26855e-06 -7.48651e-06)
(-2.35921e-06 -4.92518e-07 -6.7066e-06)
(-3.35255e-07 1.3707e-07 -7.87295e-06)
(-1.72747e-06 1.85046e-06 -8.05718e-06)
(-1.863e-06 -9.36993e-11 -6.65385e-06)
(-1.72745e-06 -1.85048e-06 -8.05711e-06)
(-2.35926e-06 4.92528e-07 -6.70661e-06)
(-1.09638e-06 -2.26868e-06 -7.48644e-06)
(-2.76559e-06 -6.87188e-07 -7.71284e-06)
(-8.7103e-07 -7.58101e-07 -9.18195e-06)
(2.06933e-06 4.60594e-07 -5.85055e-06)
(-1.09502e-06 -1.2417e-07 -7.45941e-06)
(5.21623e-07 1.94816e-07 -1.05548e-05)
(-2.31866e-06 -2.07367e-06 -6.75491e-06)
(-9.98197e-07 -2.3738e-06 -7.49927e-06)
(-1.04529e-06 -2.46157e-06 -7.05759e-06)
(-8.05233e-07 -2.0691e-06 -7.36276e-06)
(-1.36787e-08 -2.04234e-06 -7.56057e-06)
(7.14219e-08 1.01686e-06 -1.08761e-05)
(-1.35787e-06 -1.4251e-07 -6.81615e-06)
(1.26843e-06 -6.34444e-08 -6.74048e-06)
(-1.63733e-06 -5.24305e-07 -7.03678e-06)
(-6.30193e-08 1.05865e-06 -1.08678e-05)
(-6.26672e-08 -2.0748e-06 -7.57794e-06)
(7.3334e-07 -2.02147e-06 -7.37171e-06)
(9.6074e-07 -2.49227e-06 -7.15196e-06)
(8.11005e-07 -2.45144e-06 -7.6257e-06)
(2.19843e-06 -2.1786e-06 -6.82804e-06)
(-4.64809e-07 4.49292e-07 -1.09441e-05)
(2.46453e-06 -8.12904e-07 -7.63239e-06)
(2.02929e-06 -7.58492e-07 -7.38189e-06)
(-1.07591e-06 5.34778e-08 -1.08684e-05)
(8.49728e-08 -1.28764e-06 -6.7717e-06)
(-3.78944e-06 -1.36311e-11 -5.90078e-06)
(2.04894e-06 -1.70796e-08 -7.56849e-06)
(-1.07585e-06 -5.34473e-08 -1.08686e-05)
(2.02934e-06 7.58458e-07 -7.38198e-06)
(2.46452e-06 8.12955e-07 -7.63246e-06)
(-4.64735e-07 -4.49352e-07 -1.09441e-05)
(4.98799e-07 5.05837e-07 -6.98232e-06)
(-4.008e-06 -1.1653e-06 -5.66813e-06)
(4.90927e-07 -1.62444e-06 -7.01831e-06)
(-4.71896e-08 -7.52359e-08 -6.2682e-06)
(-1.26339e-06 -2.6656e-06 -6.8945e-06)
(-1.26353e-06 2.66561e-06 -6.89435e-06)
(-4.69248e-08 2.48142e-11 -5.52027e-06)
(1.23587e-06 2.21337e-06 -6.06436e-06)
(-9.02816e-08 -2.59142e-08 -4.64324e-06)
(-1.31101e-06 1.78502e-06 -5.272e-06)
(3.4333e-08 -2.79939e-09 -3.99846e-06)
(-1.38215e-06 -1.35413e-06 -5.21581e-06)
(1.7681e-06 -1.34095e-06 -5.257e-06)
(-9.44201e-09 4.30112e-08 -3.99299e-06)
(-1.48551e-06 1.26691e-06 -4.49292e-06)
(1.65725e-06 8.30822e-07 -4.40405e-06)
(-2.03337e-06 -8.98581e-07 -5.25716e-06)
(-4.19974e-08 -7.40984e-08 -4.64119e-06)
(2.22061e-06 1.17978e-06 -6.03329e-06)
(-2.01674e-06 1.77556e-06 -6.20444e-06)
(-5.03886e-08 -3.62768e-08 -5.12191e-06)
(-2.91726e-08 -1.95956e-08 -3.74728e-06)
(-3.03046e-09 2.83638e-09 -2.62929e-06)
(6.70205e-09 1.04431e-08 -1.75763e-06)
(8.40395e-09 1.11941e-08 -1.11996e-06)
(7.2684e-09 9.81741e-09 -6.84466e-07)
(5.09802e-09 7.22875e-09 -4.11813e-07)
(-9.17544e-09 -1.67226e-08 -3.45724e-07)
(8.20794e-09 8.64532e-09 -2.82924e-07)
(-5.83312e-08 4.46531e-08 -2.35994e-07)
(3.86728e-08 -1.88966e-08 -2.49514e-07)
(-7.36765e-09 -4.87897e-08 -2.74577e-07)
(-4.79079e-08 -7.57196e-09 -2.44776e-07)
(2.24702e-10 -4.8641e-08 -3.6812e-07)
(4.81085e-08 -8.27058e-09 -2.44918e-07)
(-3.93794e-08 -1.79524e-08 -2.4821e-07)
(2.11555e-08 -5.31847e-08 -3.70038e-07)
(5.43725e-08 -1.38494e-08 -2.51345e-07)
(4.89967e-08 -4.85864e-08 -2.75866e-07)
(3.82631e-08 -2.47116e-08 -3.01883e-07)
(3.98893e-08 -2.08359e-08 -2.5566e-07)
(-8.27588e-08 4.83898e-08 -2.82225e-07)
(-1.54206e-08 -1.72412e-08 -2.03287e-07)
(-1.10209e-08 -9.53256e-10 -3.55573e-07)
(-4.54615e-09 6.70835e-09 -2.19884e-07)
(2.23642e-08 -5.00948e-08 -3.2678e-07)
(4.79974e-08 1.66448e-08 -3.02557e-07)
(1.88847e-08 -2.25195e-08 -2.47677e-07)
(3.79641e-08 -7.64207e-13 -3.38666e-07)
(1.88818e-08 2.25198e-08 -2.47668e-07)
(4.79978e-08 -1.66482e-08 -3.02559e-07)
(2.2363e-08 5.00938e-08 -3.26782e-07)
(3.98927e-08 2.0837e-08 -2.55668e-07)
(-8.27584e-08 -4.83919e-08 -2.82226e-07)
(4.90014e-08 4.85846e-08 -2.75867e-07)
(3.82684e-08 2.47107e-08 -3.01886e-07)
(5.43714e-08 1.38432e-08 -2.51338e-07)
(2.11504e-08 5.3184e-08 -3.70019e-07)
(-3.93819e-08 1.79516e-08 -2.48208e-07)
(4.81094e-08 8.2698e-09 -2.44916e-07)
(-7.77139e-08 -3.82273e-08 -2.46107e-07)
(7.77367e-08 -3.69729e-08 -2.47281e-07)
(-5.83305e-08 -4.46559e-08 -2.35986e-07)
(-7.36741e-09 4.87944e-08 -2.74587e-07)
(-4.79082e-08 7.57531e-09 -2.44776e-07)
(3.86703e-08 1.89001e-08 -2.49521e-07)
(-2.16337e-08 5.22364e-08 -3.69305e-07)
(-5.3165e-08 1.29511e-08 -2.48776e-07)
(-3.58862e-08 2.48484e-08 -2.98011e-07)
(-3.25996e-08 2.30104e-08 -2.47041e-07)
(-2.11442e-08 4.68047e-08 -3.23551e-07)
(2.22734e-09 -2.1501e-08 -2.31971e-07)
(-1.01201e-08 1.89436e-09 -2.25782e-07)
(-6.1177e-08 2.77799e-09 -2.72162e-07)
(4.78687e-08 -5.01682e-08 -2.33222e-07)
(4.78439e-08 5.01803e-08 -2.3323e-07)
(-1.01169e-08 -1.89854e-09 -2.25774e-07)
(2.2157e-09 2.15034e-08 -2.31971e-07)
(2.16602e-08 -1.25685e-08 -2.54681e-07)
(-2.31774e-08 -1.30525e-08 -2.68404e-07)
(-2.66331e-08 -1.19673e-10 -3.36937e-07)
(-2.31233e-08 1.30105e-08 -2.68279e-07)
(1.22952e-08 2.36638e-11 -3.1525e-07)
(1.55592e-08 2.78024e-11 -3.08567e-07)
(-4.68114e-08 -2.61057e-08 -2.16667e-07)
(-4.87046e-08 2.57289e-08 -2.17742e-07)
(-4.05869e-08 5.96856e-11 -2.05102e-07)
(-5.14387e-08 2.0812e-09 -2.92155e-07)
(-5.04214e-08 1.39637e-08 -2.90019e-07)
(-5.21198e-08 -1.57863e-08 -1.82879e-07)
(-4.10613e-08 6.24844e-08 -2.48547e-07)
(-7.22887e-08 1.43269e-08 -2.35847e-07)
(-6.53155e-08 5.87016e-08 -2.14055e-07)
(-2.77328e-08 6.9659e-08 -2.3462e-07)
(-3.20623e-08 7.39913e-08 -2.19667e-07)
(-2.34659e-08 5.8233e-08 -2.302e-07)
(3.69896e-10 5.86404e-08 -2.37253e-07)
(-7.85986e-12 6.77953e-08 -2.24692e-07)
(-6.72799e-10 5.86493e-08 -2.37396e-07)
(2.23216e-08 5.91543e-08 -2.30035e-07)
(3.1757e-08 7.55775e-08 -2.18371e-07)
(2.80422e-08 7.03031e-08 -2.33311e-07)
(6.62301e-08 6.12557e-08 -2.13348e-07)
(8.3524e-08 1.96007e-08 -2.44892e-07)
(-1.93838e-08 -3.26972e-09 -3.72924e-07)
(5.96462e-08 1.5248e-08 -3.32441e-07)
(-1.57373e-07 -1.01803e-07 -4.68471e-07)
(1.97151e-07 1.45e-07 -6.23324e-07)
(-2.50948e-07 -1.74439e-07 -8.09967e-07)
(3.29429e-07 2.36145e-07 -1.04288e-06)
(-4.13005e-07 -2.97124e-07 -1.34242e-06)
(5.34734e-07 3.77957e-07 -1.69852e-06)
(-6.58114e-07 -4.82916e-07 -2.13517e-06)
(8.30881e-07 5.80152e-07 -2.64372e-06)
(-1.00248e-06 -7.46097e-07 -3.23759e-06)
(1.23448e-06 8.47636e-07 -3.91968e-06)
(-1.45534e-06 -1.09999e-06 -4.67429e-06)
(1.7631e-06 1.17817e-06 -5.52566e-06)
(-2.01404e-06 -1.56138e-06 -6.43258e-06)
(2.48163e-06 1.56063e-06 -7.21937e-06)
(-2.47951e-06 1.52925e-06 -6.98711e-06)
(2.63411e-06 1.28242e-06 -6.85717e-06)
(-2.72241e-06 1.21843e-06 -6.9244e-06)
(2.38897e-06 1.70663e-06 -6.95077e-06)
(-1.99503e-06 1.96179e-06 -6.8109e-06)
(-3.1707e-08 1.8663e-08 -5.43987e-06)
(-1.68538e-06 -2.40652e-06 -6.97156e-06)
(4.90838e-07 1.62445e-06 -7.01821e-06)
(-4.00793e-06 1.1652e-06 -5.66813e-06)
(4.98809e-07 -5.05854e-07 -6.98233e-06)
(-1.20172e-06 3.99953e-06 -5.65683e-06)
(4.82193e-07 -4.93499e-07 -9.20548e-06)
(-5.03959e-08 3.62451e-08 -5.1219e-06)
(-2.91747e-08 1.95755e-08 -3.74726e-06)
(-3.04888e-09 -2.84398e-09 -2.62928e-06)
(6.686e-09 -1.04607e-08 -1.75762e-06)
(8.41114e-09 -1.12094e-08 -1.11995e-06)
(7.27438e-09 -9.8153e-09 -6.84454e-07)
(5.09973e-09 -7.22806e-09 -4.11806e-07)
(-9.17625e-09 1.67231e-08 -3.45726e-07)
(8.20928e-09 -8.64141e-09 -2.82925e-07)
(6.21734e-10 2.74063e-10 -1.94769e-07)
(-2.11811e-08 -2.06319e-08 -2.11672e-07)
(-1.85358e-09 8.14679e-09 -3.46072e-07)
(2.92237e-08 -2.64686e-08 -2.17465e-07)
(2.92227e-08 2.64677e-08 -2.17466e-07)
(-2.11829e-08 2.06342e-08 -2.11675e-07)
(6.24169e-10 -2.7614e-10 -1.94768e-07)
(-1.84655e-09 -8.1497e-09 -3.46074e-07)
(9.18257e-09 -7.73744e-09 -2.01505e-07)
(7.77379e-08 3.69764e-08 -2.47277e-07)
(-7.77186e-08 3.82262e-08 -2.46107e-07)
(5.45638e-09 -4.93401e-08 -2.73976e-07)
(5.98085e-08 4.34967e-08 -2.37598e-07)
(-5.40493e-09 1.02665e-08 -2.83406e-07)
(1.52544e-09 -9.5484e-10 -1.96048e-07)
(-8.67678e-09 -7.01914e-09 -2.00993e-07)
(1.8275e-11 6.60902e-09 -2.89361e-07)
(7.3678e-10 -5.11275e-09 -3.46042e-07)
(7.99576e-09 -4.90765e-09 -3.45223e-07)
(5.6987e-09 -2.17537e-13 -3.54475e-07)
(7.99561e-09 4.90606e-09 -3.4522e-07)
(-5.41416e-09 -1.02767e-08 -2.83405e-07)
(-1.54176e-08 1.724e-08 -2.03284e-07)
(-3.8308e-08 -3.36667e-08 -2.20108e-07)
(-1.10179e-08 9.56636e-10 -3.55574e-07)
(8.43927e-09 -3.7053e-08 -2.33418e-07)
(8.44031e-09 3.70579e-08 -2.33418e-07)
(-3.83099e-08 3.36687e-08 -2.20107e-07)
(-1.51645e-09 4.45833e-13 -2.98082e-07)
(2.40797e-08 -2.34242e-08 -2.14311e-07)
(-2.87305e-08 -2.57583e-08 -2.16191e-07)
(-2.87348e-08 2.57615e-08 -2.16189e-07)
(5.15528e-10 -7.80745e-09 -3.45602e-07)
(2.40841e-08 2.34268e-08 -2.1431e-07)
(-4.8561e-10 -3.52236e-09 -2.75963e-07)
(-5.01676e-09 -9.8523e-15 -2.57624e-07)
(-6.61726e-09 -1.8014e-08 -2.52747e-07)
(-6.15456e-09 -8.11845e-09 -2.34188e-07)
(2.76058e-08 2.3736e-08 -2.66551e-07)
(-6.25883e-09 -6.14413e-09 -2.53878e-07)
(-1.91051e-09 2.2701e-12 -2.64586e-07)
(-4.57293e-08 1.6278e-12 -3.71891e-07)
(4.40531e-09 -6.73215e-13 -3.19777e-07)
(-1.97747e-08 -3.76107e-08 -2.34178e-07)
(3.12308e-08 2.59769e-08 -3.24322e-07)
(3.15388e-08 7.04277e-08 -2.34889e-07)
(6.91198e-08 -1.74627e-08 -2.02301e-07)
(4.90031e-08 5.58668e-08 -2.47916e-07)
(-1.34805e-07 -7.75359e-08 -2.73523e-07)
(9.56996e-08 1.00453e-07 -4.24135e-07)
(-1.69717e-07 -1.1683e-07 -4.97133e-07)
(-1.69708e-07 1.16824e-07 -4.97132e-07)
(-4.08784e-09 1.60631e-08 -3.67129e-07)
(-1.86856e-07 1.48506e-07 -6.57553e-07)
(4.20513e-09 1.04038e-08 -4.701e-07)
(2.26824e-07 -2.00467e-07 -8.47199e-07)
(-3.01303e-07 2.51705e-07 -1.09982e-06)
(3.39856e-09 6.25222e-09 -7.81444e-07)
(3.77716e-07 -3.27811e-07 -1.39924e-06)
(-4.8665e-07 4.1382e-07 -1.78251e-06)
(4.01206e-10 4.51116e-10 -1.25642e-06)
(6.02722e-07 -5.17868e-07 -2.22563e-06)
(-7.5525e-07 6.48744e-07 -2.76422e-06)
(-6.16731e-09 -1.1102e-08 -1.92966e-06)
(9.17228e-07 -7.8102e-07 -3.37775e-06)
(-1.1143e-06 9.68164e-07 -4.08408e-06)
(-1.93542e-08 -3.96778e-08 -2.82387e-06)
(1.33814e-06 -1.12037e-06 -4.88291e-06)
(-1.55356e-06 1.37952e-06 -5.74699e-06)
(-3.82284e-08 -1.15107e-07 -3.93488e-06)
(1.92265e-06 -1.52764e-06 -6.68515e-06)
(-2.00059e-06 1.87729e-06 -7.81501e-06)
(-1.10806e-07 -3.30061e-07 -5.40931e-06)
(3.10737e-06 -2.10681e-06 -8.36294e-06)
(5.08097e-07 -9.86519e-07 -5.79222e-06)
(3.65845e-06 -2.21138e-06 -7.43731e-06)
(3.65843e-06 2.21141e-06 -7.43728e-06)
(-3.35196e-07 -1.36999e-07 -7.87283e-06)
(8.21072e-07 -6.1705e-07 -7.9248e-06)
(-2.94384e-07 1.15476e-06 -7.09078e-06)
(1.17241e-06 1.02971e-06 -6.57148e-06)
(6.12411e-08 -1.1197e-11 -9.46841e-06)
(-7.4138e-07 -7.28131e-07 -6.28264e-06)
(-7.4138e-07 7.28137e-07 -6.28269e-06)
(8.09108e-07 7.61738e-07 -6.33263e-06)
(-3.99029e-08 -6.94298e-12 -9.48096e-06)
(-9.52888e-07 -9.17315e-07 -6.41478e-06)
(-9.52875e-07 9.17314e-07 -6.4148e-06)
(2.55003e-07 3.72253e-07 -6.09436e-06)
(-3.07888e-07 -5.23626e-12 -9.35474e-06)
(-1.35412e-06 -2.40087e-06 -7.76724e-06)
(-1.35413e-06 2.40084e-06 -7.76721e-06)
(4.62183e-07 -1.51134e-06 -8.98533e-06)
(1.92887e-06 1.50136e-11 -1.27365e-05)
(4.62196e-07 1.5113e-06 -8.98536e-06)
(7.37333e-07 -1.17993e-06 -9.13061e-06)
(2.10819e-06 7.4897e-07 -1.25902e-05)
(8.90903e-07 1.72594e-06 -9.10081e-06)
(1.21044e-06 1.20663e-06 -1.05795e-05)
(1.55444e-06 1.55056e-06 -9.15004e-06)
(-2.34259e-06 -2.32334e-06 -8.94026e-06)
(-1.36235e-06 1.63991e-06 -7.39475e-06)
(1.32542e-06 2.14969e-07 -8.62514e-06)
(8.781e-07 1.38692e-07 -1.00783e-05)
(-3.78231e-09 1.98173e-08 -9.3814e-06)
(2.55013e-07 -3.72265e-07 -6.09436e-06)
(-1.53541e-07 -1.35796e-07 -5.82118e-06)
(-3.97663e-07 -3.88912e-07 -9.23597e-06)
(1.63137e-06 -1.3304e-06 -7.42628e-06)
(-1.19856e-06 7.33597e-07 -9.13387e-06)
(7.43355e-07 2.08001e-06 -1.25905e-05)
(1.72646e-06 8.88311e-07 -9.10666e-06)
(9.87006e-07 9.88581e-07 -1.0101e-05)
(-5.25401e-07 -5.12508e-07 -9.21008e-06)
(-7.05613e-07 1.128e-11 -9.30726e-06)
(-5.25374e-07 5.12536e-07 -9.21003e-06)
(-3.97683e-07 3.88913e-07 -9.23597e-06)
(-1.36232e-06 -1.63992e-06 -7.39473e-06)
(-2.34255e-06 2.32329e-06 -8.94029e-06)
(8.9092e-07 -1.7261e-06 -9.10057e-06)
(2.10827e-06 -7.49077e-07 -1.25903e-05)
(7.37385e-07 1.17989e-06 -9.13053e-06)
(1.32543e-06 -2.15013e-07 -8.62525e-06)
(8.78116e-07 -1.38702e-07 -1.00784e-05)
(9.87136e-07 -9.88483e-07 -1.0101e-05)
(1.72633e-06 -8.88377e-07 -9.10704e-06)
(7.43235e-07 -2.07997e-06 -1.25904e-05)
(-1.19858e-06 -7.33635e-07 -9.13399e-06)
(1.63132e-06 1.33038e-06 -7.42626e-06)
(2.00777e-07 -1.33417e-06 -8.61711e-06)
(1.48881e-06 -5.0566e-07 -9.04477e-06)
(-3.74423e-08 -1.92463e-06 -1.27459e-05)
(-1.55334e-06 -4.47047e-07 -8.99732e-06)
(2.38927e-06 1.25307e-06 -7.79196e-06)
(-3.74526e-08 3.00525e-07 -9.36802e-06)
(-4.24812e-07 -2.87389e-07 -6.091e-06)
(-2.45907e-06 1.36165e-06 -7.77511e-06)
(-4.35189e-08 -2.76333e-07 -8.80718e-06)
(-2.87792e-07 -3.36832e-07 -8.91091e-06)
(1.78125e-08 -2.76622e-09 -5.42877e-06)
(1.4544e-08 -2.06525e-08 -3.98656e-06)
(7.08563e-09 -3.20042e-08 -2.80301e-06)
(3.99147e-09 -3.05454e-08 -1.87627e-06)
(2.30986e-09 -2.46689e-08 -1.19683e-06)
(9.81862e-10 -1.84484e-08 -7.31872e-07)
(1.24065e-10 -1.28589e-08 -4.40397e-07)
(-4.17334e-09 -1.36775e-08 -4.31279e-07)
(1.59871e-07 -9.54598e-08 -4.57182e-07)
(-1.73138e-07 -8.11727e-08 -4.51868e-07)
(1.74022e-07 -7.29742e-08 -4.53035e-07)
(-1.57574e-07 -1.12089e-07 -4.5581e-07)
(1.90238e-07 1.64447e-07 -5.92907e-07)
(-2.59942e-07 -1.97112e-07 -7.74458e-07)
(3.25041e-07 2.70594e-07 -9.90703e-07)
(-4.28063e-07 -3.36487e-07 -1.28404e-06)
(5.32919e-07 4.33483e-07 -1.6153e-06)
(-6.78826e-07 -5.48953e-07 -2.04433e-06)
(8.34124e-07 6.64669e-07 -2.51654e-06)
(-1.02885e-06 -8.53783e-07 -3.10473e-06)
(1.24506e-06 9.69135e-07 -3.73283e-06)
(-1.4854e-06 -1.26692e-06 -4.49293e-06)
(1.768e-06 1.34104e-06 -5.25689e-06)
(-2.01668e-06 -1.7756e-06 -6.2045e-06)
(-2.97549e-08 2.35751e-08 -5.43526e-06)
(1.69941e-06 -1.69126e-06 -5.97081e-06)
(1.72018e-06 2.0076e-06 -6.18456e-06)
(1.2361e-06 -2.21342e-06 -6.0645e-06)
(-9.51754e-07 1.99414e-06 -5.24927e-06)
(3.49392e-08 -8.15717e-12 -4.07979e-06)
(-9.51568e-07 -1.99412e-06 -5.24932e-06)
(8.82666e-07 1.64447e-06 -4.42159e-06)
(1.22076e-06 -1.47944e-06 -4.48355e-06)
(1.21089e-06 1.20078e-06 -4.35566e-06)
(-9.71066e-07 -9.50856e-07 -3.66528e-06)
(-9.43069e-07 1.25704e-06 -3.74173e-06)
(4.03566e-08 1.13895e-08 -2.79389e-06)
(8.21728e-07 8.12803e-07 -3.0225e-06)
(8.06979e-09 4.6839e-08 -2.78934e-06)
(1.24519e-06 -9.69043e-07 -3.73292e-06)
(-2.21247e-08 -5.45398e-08 -3.34666e-06)
(-1.42887e-06 -6.42285e-07 -3.72166e-06)
(1.39089e-06 -7.3434e-07 -3.70624e-06)
(-3.45474e-09 4.75864e-08 -2.84726e-06)
(-1.14967e-06 6.40508e-07 -3.07274e-06)
(1.06225e-06 6.99794e-07 -3.07011e-06)
(-1.30653e-06 -8.21107e-07 -3.72583e-06)
(-2.53843e-09 -5.98709e-08 -3.34851e-06)
(-1.65811e-06 9.47491e-07 -4.43686e-06)
(-6.85721e-09 3.7567e-08 -4.0657e-06)
(1.97098e-06 -1.00804e-06 -5.21643e-06)
(-2.23603e-06 1.31171e-06 -6.09937e-06)
(-1.23536e-08 -4.39875e-08 -5.50626e-06)
(-2.72241e-06 -1.21841e-06 -6.92439e-06)
(-9.02118e-08 -2.63393e-08 -6.27423e-06)
(1.26842e-06 6.34503e-08 -6.74052e-06)
(-6.30237e-08 -1.05867e-06 -1.08678e-05)
(2.0082e-07 1.33413e-06 -8.61714e-06)
(-2.45909e-06 -1.36169e-06 -7.77504e-06)
(-4.24791e-07 2.87362e-07 -6.09097e-06)
(7.39548e-08 9.54334e-08 -8.9277e-06)
(-3.50464e-08 -1.60916e-08 -6.62847e-06)
(-2.64681e-08 -1.11494e-11 -5.70927e-06)
(-2.26292e-08 1.34098e-08 -5.35799e-06)
(-1.36917e-08 -7.06988e-09 -3.94508e-06)
(-6.81412e-09 -2.10575e-08 -2.77349e-06)
(-3.12353e-09 -2.25676e-08 -1.85593e-06)
(-1.36083e-09 -1.91045e-08 -1.18329e-06)
(-5.82064e-10 -1.46426e-08 -7.234e-07)
(-1.90385e-10 -1.01315e-08 -4.35441e-07)
(7.38242e-10 5.11232e-09 -3.46042e-07)
(2.05272e-11 -6.60917e-09 -2.89358e-07)
(-8.6708e-09 7.01746e-09 -2.00993e-07)
(5.13515e-10 7.80278e-09 -3.45599e-07)
(1.52453e-09 9.56552e-10 -1.96044e-07)
(5.98077e-08 -4.35001e-08 -2.37598e-07)
(5.45257e-09 4.9341e-08 -2.73977e-07)
(-2.33905e-09 -3.11919e-08 -3.97684e-07)
(-7.78818e-08 2.79317e-08 -3.18047e-07)
(6.96919e-08 1.68792e-08 -3.16758e-07)
(-7.02666e-08 1.43279e-08 -3.15279e-07)
(7.48129e-08 3.38452e-08 -3.20669e-07)
(-3.25258e-08 2.44145e-08 -2.97856e-07)
(1.34348e-07 -7.04884e-09 -2.23305e-07)
(-4.0986e-08 -8.49159e-08 -3.39542e-07)
(1.0665e-07 1.54368e-07 -4.57365e-07)
(1.05266e-08 -9.52017e-10 -4.29985e-07)
(-1.56694e-07 -1.93523e-07 -6.04872e-07)
(-1.57078e-07 1.55367e-07 -5.68039e-07)
(1.29248e-07 -1.18018e-07 -4.43709e-07)
(5.35851e-09 -1.34852e-08 -4.24346e-07)
(5.05706e-10 -4.14167e-09 -4.56722e-07)
(-1.32011e-08 3.58225e-08 -3.22384e-07)
(2.91967e-10 3.62258e-08 -3.23876e-07)
(1.49106e-08 3.59936e-08 -3.21967e-07)
(3.04702e-08 2.28604e-08 -3.0952e-07)
(4.01612e-08 2.64828e-08 -3.08865e-07)
(-4.85866e-09 -1.60871e-09 -4.65138e-07)
(2.68217e-09 8.74458e-09 -4.63291e-07)
(1.83964e-08 1.4346e-08 -3.59922e-07)
(-6.67329e-10 -3.97754e-09 -4.58167e-07)
(-8.55844e-09 -2.64273e-08 -7.66764e-07)
(-9.39479e-09 -5.39729e-09 -7.78827e-07)
(-1.39333e-08 -9.60479e-09 -7.70963e-07)
(-2.40199e-08 -1.85047e-08 -1.25994e-06)
(-2.21614e-08 -1.98827e-08 -1.28587e-06)
(8.07996e-09 8.05848e-09 -1.01004e-06)
(8.35167e-09 8.947e-09 -6.02044e-07)
(4.17583e-09 1.1712e-08 -5.84204e-07)
(-1.99076e-07 1.42525e-07 -5.87336e-07)
(2.14381e-07 1.25403e-07 -5.90154e-07)
(-2.88467e-07 -1.44762e-07 -7.67351e-07)
(2.89903e-07 -1.26216e-07 -7.67047e-07)
(-2.54257e-09 1.28952e-08 -5.52905e-07)
(-2.18249e-07 1.13434e-07 -5.87625e-07)
(-2.77486e-10 -1.51164e-08 -4.35046e-07)
(2.35876e-11 -1.53958e-09 -4.58952e-07)
(2.47481e-10 -2.49643e-08 -7.66787e-07)
(5.86805e-10 -5.23741e-08 -1.26981e-06)
(-1.48816e-08 -5.28105e-08 -1.26839e-06)
(-2.31503e-08 -8.95627e-08 -2.0043e-06)
(-4.11016e-08 -4.0043e-08 -2.0307e-06)
(-3.86014e-08 -3.09436e-08 -1.97652e-06)
(-5.88656e-08 -4.8157e-08 -2.95781e-06)
(-7.12475e-08 -7.36437e-08 -3.05494e-06)
(2.09198e-09 8.3632e-10 -2.50898e-06)
(6.93986e-09 6.09212e-09 -1.63018e-06)
(7.94474e-09 1.4823e-08 -1.58587e-06)
(-5.60266e-07 3.64444e-07 -1.60775e-06)
(5.98428e-07 3.31332e-07 -1.60536e-06)
(-7.57755e-07 -4.11172e-07 -2.02546e-06)
(7.61356e-07 -3.55527e-07 -2.01837e-06)
(-7.76433e-09 2.96992e-08 -1.487e-06)
(-6.11679e-07 2.89349e-07 -1.60529e-06)
(4.793e-07 -2.16631e-07 -1.26974e-06)
(-4.76206e-09 2.04176e-08 -9.23232e-07)
(-3.73366e-07 1.82963e-07 -9.83342e-07)
(-5.37494e-10 -2.11583e-08 -7.2956e-07)
(3.65891e-07 2.07409e-07 -9.8516e-07)
(-4.76853e-07 -2.50513e-07 -1.27264e-06)
(1.42566e-09 2.15673e-08 -9.25326e-07)
(-3.41523e-07 2.29235e-07 -9.8449e-07)
(2.67931e-07 -1.65035e-07 -7.7276e-07)
(1.30663e-09 1.37551e-08 -5.5411e-07)
(4.22544e-10 2.46324e-09 -6.19261e-07)
(-7.29433e-09 -7.335e-09 -5.93708e-07)
(-1.86832e-07 -1.48483e-07 -6.57551e-07)
(6.10218e-09 1.73941e-09 -3.58728e-07)
(1.32727e-07 1.22309e-07 -5.17876e-07)
(5.60448e-09 -1.58274e-08 -2.93292e-07)
(-1.40042e-07 -9.34776e-08 -3.85092e-07)
(-6.87662e-08 -1.96102e-08 -2.16955e-07)
(2.83262e-08 -8.74905e-09 -2.95678e-07)
(-7.74811e-09 -2.70208e-09 -3.53494e-07)
(-1.41515e-10 3.67521e-09 -3.64994e-07)
(-9.70922e-10 1.13449e-08 -3.43607e-07)
(2.71055e-09 1.72728e-08 -3.54118e-07)
(-3.63217e-09 1.66338e-08 -3.53854e-07)
(2.26667e-09 -3.20444e-08 -3.9634e-07)
(-1.76528e-08 1.47666e-08 -3.68714e-07)
(-2.43435e-08 2.28197e-08 -3.08799e-07)
(-1.38309e-08 1.3854e-08 -3.14443e-07)
(1.23838e-08 -3.37857e-10 -4.66598e-07)
(-7.25959e-09 5.31298e-09 -4.54221e-07)
(-1.02907e-08 9.79272e-09 -6.10671e-07)
(-5.5745e-09 1.09905e-08 -5.83266e-07)
(9.58147e-09 -2.65865e-08 -7.63212e-07)
(1.77599e-08 -5.35236e-08 -1.26333e-06)
(2.86337e-08 -9.16649e-08 -1.9993e-06)
(8.81989e-10 -9.10758e-08 -2.00938e-06)
(9.5386e-10 -1.51524e-07 -3.0241e-06)
(-3.49214e-08 -1.4522e-07 -3.01276e-06)
(-5.58895e-08 -2.4112e-07 -4.31465e-06)
(-1.25581e-07 -1.42862e-07 -4.38528e-06)
(-8.68847e-08 -7.3202e-08 -4.21929e-06)
(-1.60541e-07 -1.44491e-07 -5.72333e-06)
(-2.82003e-07 -3.34951e-07 -6.05194e-06)
(-5.27383e-08 -4.51219e-08 -5.13927e-06)
(-1.17889e-08 -1.26389e-08 -3.67944e-06)
(8.64302e-09 9.17621e-09 -3.60087e-06)
(-1.3065e-06 8.21116e-07 -3.72574e-06)
(1.39081e-06 7.34426e-07 -3.70616e-06)
(-1.65815e-06 -9.4745e-07 -4.43686e-06)
(1.65728e-06 -8.30688e-07 -4.40401e-06)
(-2.21815e-08 5.45463e-08 -3.34668e-06)
(-1.42878e-06 6.42313e-07 -3.72162e-06)
(1.15327e-06 -5.5592e-07 -3.05762e-06)
(-1.26902e-08 4.08222e-08 -2.28626e-06)
(-9.56732e-07 4.40706e-07 -2.50395e-06)
(-1.74769e-09 -3.95936e-08 -1.89647e-06)
(9.34097e-07 5.05993e-07 -2.49979e-06)
(-1.14968e-06 -6.40465e-07 -3.07272e-06)
(3.64805e-13 4.40796e-08 -2.28903e-06)
(-8.76501e-07 5.58959e-07 -2.50743e-06)
(7.02395e-07 -4.51478e-07 -2.02827e-06)
(1.10804e-09 3.16076e-08 -1.48974e-06)
(5.45982e-10 5.50474e-09 -1.65093e-06)
(6.77496e-10 3.82068e-09 -1.02941e-06)
(-1.01089e-08 -1.1379e-08 -9.84202e-07)
(-3.01291e-07 -2.51675e-07 -1.0998e-06)
(3.32199e-09 1.21576e-09 -6.04067e-07)
(2.26828e-07 2.00467e-07 -8.47178e-07)
(4.21582e-09 -1.04056e-08 -4.70098e-07)
(1.66126e-08 -4.12854e-09 -4.7888e-07)
(-2.64883e-07 -1.99914e-07 -8.27497e-07)
(3.182e-07 2.71862e-07 -1.0682e-06)
(-4.30197e-07 -3.33442e-07 -1.36174e-06)
(-4.30194e-07 3.33453e-07 -1.36172e-06)
(-1.06552e-09 8.00155e-09 -9.90443e-07)
(5.2416e-07 -4.38318e-07 -1.72527e-06)
(6.91508e-09 6.27659e-09 -1.27776e-06)
(-6.79552e-07 5.33433e-07 -2.15947e-06)
(-1.07196e-09 4.06514e-09 -1.55418e-06)
(8.18907e-07 -6.76748e-07 -2.67305e-06)
(7.13398e-11 8.39463e-09 -1.96008e-06)
(-1.02255e-06 8.12323e-07 -3.26936e-06)
(-2.2918e-10 -7.45895e-09 -2.32718e-06)
(1.21829e-06 -9.93419e-07 -3.94715e-06)
(-2.16927e-08 8.26542e-09 -2.8621e-06)
(-1.44519e-06 1.17642e-06 -4.71756e-06)
(8.53332e-09 -4.56405e-08 -3.32084e-06)
(1.7405e-06 -1.37943e-06 -5.53862e-06)
(-1.01016e-07 -4.17435e-09 -3.97321e-06)
(-1.87127e-06 1.62108e-06 -6.50539e-06)
(5.83566e-08 -1.86679e-07 -4.51173e-06)
(2.46062e-06 -1.76309e-06 -7.26257e-06)
(-4.16401e-07 -1.46742e-07 -5.29055e-06)
(-1.97368e-06 2.02937e-06 -8.7107e-06)
(-2.65937e-07 -3.86755e-11 -7.06257e-06)
(-1.97363e-06 -2.02937e-06 -8.7107e-06)
(5.08089e-07 9.86358e-07 -5.79223e-06)
(3.10741e-06 2.10693e-06 -8.3628e-06)
(-1.10777e-07 3.29922e-07 -5.40928e-06)
(-2.00048e-06 -1.87721e-06 -7.81502e-06)
(-8.21161e-08 -2.06265e-08 -4.50869e-06)
(1.92256e-06 1.52759e-06 -6.68505e-06)
(-3.82139e-08 1.15025e-07 -3.93484e-06)
(-1.55355e-06 -1.37945e-06 -5.74695e-06)
(-4.13494e-08 -5.82596e-09 -3.3395e-06)
(1.3382e-06 1.12051e-06 -4.88285e-06)
(-1.93197e-08 3.95975e-08 -2.82388e-06)
(-1.11413e-06 -9.68056e-07 -4.0841e-06)
(-1.8384e-08 -2.60803e-09 -2.34117e-06)
(9.17274e-07 7.81115e-07 -3.37772e-06)
(-6.13404e-09 1.10084e-08 -1.92962e-06)
(-7.55215e-07 -6.48715e-07 -2.76423e-06)
(-7.08165e-09 -7.18276e-10 -1.56182e-06)
(6.0272e-07 5.17901e-07 -2.22556e-06)
(4.33524e-10 -4.89767e-10 -1.2564e-06)
(-4.8663e-07 -4.1379e-07 -1.78252e-06)
(-7.78206e-10 4.78203e-10 -9.92607e-07)
(3.77719e-07 3.27832e-07 -1.39919e-06)
(3.42435e-09 -6.24547e-09 -7.81432e-07)
(1.10949e-08 -4.62104e-09 -7.95372e-07)
(-1.83294e-08 -1.81992e-08 -1.01546e-06)
(-1.5002e-08 -1.14178e-08 -6.21637e-07)
(-1.11622e-08 -4.28633e-09 -3.89422e-07)
(3.89475e-08 1.89146e-08 -2.91824e-07)
(2.70954e-09 -1.01051e-11 -2.75084e-07)
(-2.15471e-08 -7.46439e-13 -3.24066e-07)
(-3.45584e-08 -2.41257e-11 -4.84375e-07)
(-4.70393e-08 2.44123e-12 -7.79474e-07)
(-6.44629e-08 2.27342e-11 -1.25676e-06)
(-8.72368e-08 4.44579e-11 -1.95985e-06)
(-1.06349e-07 9.32765e-11 -2.92134e-06)
(-9.15233e-08 3.37116e-10 -4.14831e-06)
(9.63142e-09 1.078e-10 -5.59294e-06)
(1.52195e-07 -3.44337e-11 -6.94074e-06)
(-1.65452e-07 -1.15803e-10 -7.98891e-06)
(-1.31765e-06 6.2246e-07 -7.86336e-06)
(-1.31766e-06 -6.22551e-07 -7.86336e-06)
(-1.3581e-06 -8.66645e-07 -7.29002e-06)
(-1.12441e-06 -8.39227e-07 -8.51887e-06)
(-3.93476e-07 -2.3555e-07 -6.77542e-06)
(-1.49429e-07 -4.55364e-07 -5.93364e-06)
(-6.11748e-07 -1.41176e-06 -8.25176e-06)
(9.81862e-07 4.10676e-06 -5.77472e-06)
(1.57064e-06 -3.52924e-07 -6.86958e-06)
(3.06696e-08 4.1032e-08 -6.27656e-06)
(8.85538e-09 -1.20702e-08 -6.43523e-06)
(9.03693e-08 -3.03105e-08 -6.25132e-06)
(-4.16345e-07 1.46748e-07 -5.29053e-06)
(2.46047e-06 1.76319e-06 -7.26247e-06)
(5.84156e-08 1.86571e-07 -4.51167e-06)
(-1.87127e-06 -1.62102e-06 -6.50539e-06)
(-1.76108e-07 -1.40012e-11 -5.29365e-06)
(-6.52589e-08 -1.40061e-11 -5.45236e-06)
(-6.25153e-08 -1.59318e-11 -3.9998e-06)
(8.62327e-09 4.56188e-08 -3.32077e-06)
(-1.44518e-06 -1.17641e-06 -4.71759e-06)
(1.74045e-06 1.37945e-06 -5.53849e-06)
(-1.01015e-07 4.16853e-09 -3.97327e-06)
(-4.48319e-09 -2.37932e-08 -4.87331e-06)
(-1.85963e-08 -2.45213e-08 -3.51514e-06)
(-2.17308e-08 -8.29186e-09 -2.86209e-06)
(1.21813e-06 9.93439e-07 -3.94706e-06)
(-1.80659e-10 7.43337e-09 -2.32716e-06)
(-1.02248e-06 -8.12337e-07 -3.26942e-06)
(-3.11528e-08 1.27647e-11 -2.71655e-06)
(-5.2361e-08 -1.50459e-12 -2.81097e-06)
(-4.02817e-08 -5.65397e-12 -1.88266e-06)
(-2.82789e-08 -7.73737e-12 -1.20291e-06)
(-1.03911e-09 -8.03761e-09 -9.9043e-07)
(5.24151e-07 4.38328e-07 -1.72521e-06)
(-6.7955e-07 -5.33427e-07 -2.15952e-06)
(8.18876e-07 6.76791e-07 -2.67298e-06)
(7.48687e-11 -8.37515e-09 -1.96003e-06)
(-1.80961e-08 -2.11787e-08 -2.41208e-06)
(-1.41168e-08 -1.62301e-08 -1.57643e-06)
(1.72688e-09 -7.20986e-12 -1.26466e-06)
(1.10865e-09 -4.04551e-12 -7.74318e-07)
(3.01534e-10 8.40481e-13 -4.69029e-07)
(-9.50797e-09 -8.07869e-13 -4.48904e-07)
(-4.08564e-09 -1.60694e-08 -3.67131e-07)
(1.83267e-07 1.64892e-07 -6.50291e-07)
(1.03886e-08 -1.83552e-12 -4.36037e-07)
(1.83281e-07 -1.64897e-07 -6.50293e-07)
(1.65994e-08 4.13328e-09 -4.78878e-07)
(-2.64869e-07 1.99922e-07 -8.27493e-07)
(-1.69608e-09 1.06602e-08 -6.06784e-07)
(3.18235e-07 -2.7187e-07 -1.06824e-06)
(1.11085e-08 4.61668e-09 -7.95378e-07)
(-1.01095e-08 1.13715e-08 -9.84208e-07)
(-1.77229e-08 2.24468e-12 -7.38483e-07)
(-1.69064e-09 -1.06829e-08 -6.06767e-07)
(3.17799e-09 5.26516e-12 -7.11793e-07)
(-7.29181e-09 7.33244e-09 -5.93707e-07)
(-7.74607e-09 2.70166e-09 -3.53496e-07)
(-1.40048e-07 9.34814e-08 -3.85092e-07)
(5.60489e-09 1.58167e-08 -2.93296e-07)
(1.32725e-07 -1.22308e-07 -5.17889e-07)
(2.83223e-08 8.75048e-09 -2.95687e-07)
(9.56952e-08 -1.00452e-07 -4.24136e-07)
(-1.97743e-08 3.7615e-08 -2.34174e-07)
(-1.34809e-07 7.75361e-08 -2.73521e-07)
(1.21273e-08 3.33635e-12 -2.9883e-07)
(4.90043e-08 -5.58641e-08 -2.4792e-07)
(6.91211e-08 1.74682e-08 -2.02301e-07)
(3.15338e-08 -7.04316e-08 -2.34886e-07)
(8.35264e-08 -1.96021e-08 -2.44891e-07)
(3.12331e-08 -2.59751e-08 -3.2433e-07)
(1.13892e-08 -2.65639e-09 -2.52847e-07)
(-2.58013e-08 -1.55988e-08 -2.36938e-07)
(1.47064e-08 -8.31138e-09 -2.78516e-07)
(-6.25967e-09 6.14328e-09 -2.53875e-07)
(-6.61451e-09 1.80121e-08 -2.5274e-07)
(2.7605e-08 -2.374e-08 -2.66553e-07)
(-6.15792e-09 8.12078e-09 -2.34166e-07)
(4.19708e-09 -2.45997e-08 -2.73654e-07)
(1.56412e-10 1.80325e-08 -2.55563e-07)
(1.91925e-10 -5.06639e-13 -2.62348e-07)
(1.54982e-10 -1.8033e-08 -2.55561e-07)
(2.06415e-11 -9.02539e-09 -2.34449e-07)
(2.23499e-10 4.86392e-08 -3.68114e-07)
(4.19837e-09 2.45998e-08 -2.73659e-07)
(-4.83075e-10 3.52509e-09 -2.75966e-07)
(1.47069e-08 8.31405e-09 -2.78518e-07)
(-4.55041e-09 -6.70791e-09 -2.19883e-07)
(-2.58033e-08 1.56009e-08 -2.36937e-07)
(1.13896e-08 2.65548e-09 -2.52845e-07)
(6.00793e-11 3.61637e-09 -2.76289e-07)
(8.13986e-09 -1.7263e-08 -2.51594e-07)
(6.95404e-09 -7.49624e-09 -2.3363e-07)
(-4.51934e-09 2.45566e-08 -2.74372e-07)
(-2.71891e-08 2.29587e-08 -2.66546e-07)
(8.11232e-09 -5.16572e-09 -2.5344e-07)
(-1.46451e-08 6.06948e-09 -2.72103e-07)
(2.72976e-08 3.4185e-08 -2.09424e-07)
(8.32343e-08 -4.76702e-08 -2.8e-07)
(-4.96786e-08 4.68181e-08 -2.79608e-07)
(1.61687e-08 -5.39843e-09 -3.80168e-07)
(7.36989e-09 2.97942e-13 -2.56329e-07)
(4.19826e-09 3.14295e-12 -2.9589e-07)
(4.15999e-09 1.91815e-12 -3.47826e-07)
(3.59011e-10 -5.48711e-13 -3.51828e-07)
(-2.01173e-10 6.49135e-13 -3.0153e-07)
(-2.80528e-10 -1.73339e-12 -4.68457e-07)
(-7.47649e-10 -5.90306e-13 -7.73398e-07)
(-1.57504e-09 2.5901e-12 -1.26371e-06)
(-3.46989e-09 -3.95864e-12 -1.98045e-06)
(2.22707e-09 -3.10447e-12 -1.98154e-06)
(3.30428e-09 1.32349e-11 -2.95924e-06)
(7.74037e-09 1.14934e-11 -4.20696e-06)
(2.04798e-08 -8.35966e-12 -5.7198e-06)
(-1.4393e-07 -1.38551e-11 -8.58306e-06)
(-3.99148e-07 8.86975e-13 -7.91079e-06)
(1.59494e-06 -5.21878e-11 -1.19489e-05)
(-2.94379e-07 -1.15482e-06 -7.09075e-06)