/*--------------------------------*- C++ -*----------------------------------*\
| =========                 |                                                 |
| \\      /  F ield         | OpenFOAM: The Open Source CFD Toolbox           |
|  \\    /   O peration     | Version:  2306                                  |
|   \\  /    A nd           | Website:  www.openfoam.com                      |
|    \\/     M anipulation  |                                                 |
\*---------------------------------------------------------------------------*/
FoamFile
{
    version     2.0;
    format      ascii;
    arch        "LSB;label=32;scalar=64";
    class       volScalarField;
    location    "1.7";
    object      gradTy;
}
// * * * * * * * * * * * * * * * * * * * * * * * * * * * * * * * * * * * * * //

dimensions      [0 -1 0 1 0 0 0];

internalField   nonuniform List<scalar> 
2658
(
0.00837464
0.00485808
0.00150997
-0.000159694
-0.0167679
0.0205681
-0.0171577
0.0144557
-0.000202049
-0.0145859
0.00448098
-0.0341845
0.0209524
0.021303
0.0172773
0.0177301
0.0194083
0.0174572
0.0176839
0.0210376
0.0202876
0.0177182
0.00587352
-0.00393621
0.00647972
0.0193893
-0.00420956
0.00117154
0.0158159
-8.00849e-07
-0.0158161
0.00420964
-0.0193904
-0.0058734
-0.0064795
0.0039367
-0.00106128
0.0016651
-0.0177236
-0.0202889
-0.0210391
-0.0176846
-0.0174559
0.00869108
-0.00121803
-0.00054226
-0.00448124
0.00904831
-0.0177333
-0.0172775
-0.0213014
-0.0209525
-0.0186205
0.00384011
-0.0069479
-0.00648284
0.000457076
-0.0110054
-1.16505e-07
-0.000145979
-0.000456814
0.00648255
0.00694833
-0.00384062
0.0043234
-0.0099598
-0.0138841
-0.000643042
-0.0227829
0.022783
2.12087e-07
0.0189177
-0.000221489
0.0152565
-2.39264e-05
-0.0115737
-0.0114611
0.000367617
0.0108283
0.00710104
-0.00768018
-0.00063332
0.0100836
0.0151757
-0.000310058
-0.000167484
2.42426e-05
8.92576e-05
9.56763e-05
8.39095e-05
6.17842e-05
-0.000142928
7.38916e-05
0.00038165
-0.000161509
-0.000417006
-6.47176e-05
-0.000415735
-7.06887e-05
-0.000153439
-0.00045457
-0.000118371
-0.000415268
-0.000211211
-0.000178085
0.000413588
-0.000147361
-8.14749e-06
5.73363e-05
-0.000428161
0.000142263
-0.000192475
-6.53169e-09
0.000192477
-0.000142292
0.000428152
0.000178094
-0.000413606
0.000415253
0.000211203
0.000118318
0.000454564
0.000153432
7.06821e-05
-0.000326729
-0.000316008
-0.000381675
0.000417046
6.47462e-05
0.000161539
0.000446465
0.000110693
0.00021238
0.00019667
0.00040004
-0.000183769
1.61911e-05
2.37435e-05
-0.000428788
0.000428892
-1.62269e-05
0.000183789
-0.000107423
-0.00011156
-1.02284e-06
0.000111201
2.02254e-07
2.37627e-07
-0.000223126
0.000219905
5.10133e-07
1.7788e-05
0.000119348
-0.000134926
0.000534054
0.000122452
0.000501723
0.000595376
0.000632404
0.000497718
0.0005012
0.000579447
0.000501276
0.000505593
0.000645962
0.000600881
0.000523553
0.000167527
-2.79463e-05
0.000130325
-0.000870113
0.00123931
-0.00149093
0.00201834
-0.00253952
0.0032304
-0.00412748
0.00495857
-0.0063769
0.00724475
-0.00940161
0.0100698
-0.0133451
0.0133387
0.0130705
0.0109608
0.0104139
0.0145866
0.0167674
0.000159513
-0.0205686
0.0138842
0.00995898
-0.00432354
0.034184
-0.00421794
0.000309787
0.000167312
-2.43075e-05
-8.94081e-05
-9.58071e-05
-8.38915e-05
-6.17783e-05
0.000142932
-7.38582e-05
2.34241e-06
-0.000176341
6.96307e-05
-0.000226227
0.00022622
0.000176361
-2.36017e-06
-6.96556e-05
-6.6132e-05
0.000316037
0.00032672
-0.00042171
0.000371767
8.77476e-05
-8.16103e-06
-5.99927e-05
5.64873e-05
-4.36987e-05
-4.19457e-05
-1.85929e-09
4.19322e-05
-8.78352e-05
0.00014735
-0.000287749
8.17638e-06
-0.000316692
0.000316735
0.000287767
3.81054e-09
-0.000200207
-0.000220156
0.000220184
-6.67303e-05
0.000200229
-3.01057e-05
-8.42077e-11
-0.000153966
-6.93885e-05
0.000202872
-5.25139e-05
1.94026e-08
1.39129e-08
-5.75398e-09
-0.000321459
0.000222024
0.000601946
-0.000149254
0.000477494
-0.0006627
0.000858577
-0.000998547
0.000998494
0.000137291
0.00126928
8.89211e-05
-0.0017134
0.00215133
5.34378e-05
-0.0028018
0.00353692
3.85569e-06
-0.00442622
0.00554482
-9.48892e-05
-0.00667538
0.0082749
-0.000339127
-0.0095758
0.0117908
-0.000983818
-0.0130567
0.0160452
-0.00282103
-0.0180069
-0.00843178
-0.0189007
0.0189009
-0.00117093
-0.00527393
0.00986973
0.00880091
-9.57009e-08
-0.00622335
0.00622339
0.00651058
-5.93417e-08
-0.0078403
0.00784029
0.00318165
-4.47543e-08
-0.0205203
0.02052
-0.0129174
1.28321e-07
0.0129171
-0.0100848
0.00640146
0.0147517
0.0103131
0.0132526
-0.0198576
0.0140163
0.00183734
0.0011854
0.000169378
-0.00318176
-0.00116065
-0.00332403
-0.0113709
0.00627006
0.0177778
0.0075924
0.00844941
-0.00438041
9.64099e-08
0.00438065
0.00332404
-0.0140164
0.0198572
-0.014753
-0.00640237
0.0100845
-0.00183772
-0.00118549
-0.00844857
-0.00759297
-0.0177775
-0.00627038
0.0113708
-0.0114031
-0.00432188
-0.0164498
-0.00382092
0.01071
0.00256859
-0.00245632
0.011638
-0.00236182
-0.0028789
-2.36429e-05
-0.000176517
-0.00027354
-0.000261072
-0.000210846
-0.000157679
-0.000109905
-0.000116902
-0.000815896
-0.000693784
-0.000623711
-0.000958029
0.00140553
-0.00168472
0.00231277
-0.00287596
0.00370498
-0.0046919
0.00568093
-0.00729729
0.00828321
-0.0108284
0.0114618
-0.0151761
0.000201496
-0.0144552
0.0171589
-0.0189181
0.0170439
-6.97194e-08
-0.0170437
0.0140553
-0.0126448
0.0102631
-0.00812698
0.010744
9.73464e-05
0.00694704
0.000400333
-0.00828242
-0.000466152
-0.00548962
-0.00627641
0.000406721
0.00547442
0.00598115
-0.00701801
-0.000511717
0.00809821
0.000321086
-0.00861576
0.0112112
-0.000375962
-0.0104138
-0.000225122
0.00054231
-0.00904849
0.0114028
-0.0116384
0.00245609
0.00081567
-0.000137535
-9.52939e-08
0.000114614
-6.04264e-05
-0.000179978
-0.000192886
-0.000163287
-0.00012515
-8.65938e-05
4.3695e-05
-5.64886e-05
5.99783e-05
6.66904e-05
8.17566e-06
-0.000371795
0.000421718
-0.000266597
0.000238733
0.000144267
0.000122461
0.000289275
0.000208671
-6.02465e-05
-0.000725777
0.00131938
-8.13689e-06
-0.00165405
0.00132792
-0.0010087
-0.000115258
-3.53989e-05
0.000306175
0.000309622
0.000307638
0.000195388
0.000226349
-1.37497e-05
7.474e-05
0.000122615
-3.39961e-05
-0.000225874
-4.61307e-05
-8.20922e-05
-0.00015816
-0.000169937
6.88759e-05
7.64701e-05
0.000100102
0.00121816
0.00107182
-0.00123728
-0.00107877
0.000110216
0.000969524
-0.0001292
-1.31588e-05
-0.00021337
-0.000447642
-0.000451372
-0.000765493
-0.000342247
-0.000264475
-0.000411598
-0.000629433
7.14803e-06
5.20694e-05
0.000126692
0.00311491
0.00283189
-0.00351429
-0.00303869
0.00025384
0.00247307
-0.00185155
0.00017451
0.00156378
-0.00018084
0.00177273
-0.00214114
0.000184336
0.00195927
-0.00141055
0.000117565
2.10533e-05
-6.26923e-05
-0.00126909
1.48668e-05
0.00104538
-0.000135277
-0.000798953
-0.000167608
-7.47782e-05
-2.30947e-05
3.1412e-05
9.69646e-05
0.00014763
0.000142169
-0.000273884
0.00012621
0.00019504
0.000118411
-2.88766e-06
4.54101e-05
8.36985e-05
9.39362e-05
-0.000227235
-0.000457467
-0.000783461
-0.000778426
-0.00129508
-0.0012412
-0.00206085
-0.00122104
-0.000625658
-0.00123497
-0.00286283
-0.000385657
-0.000108025
7.84291e-05
0.00701808
0.00627715
-0.00809786
-0.0070999
0.000466207
0.00548985
-0.00475146
0.000348908
0.00376672
-0.000338407
0.00432473
-0.00547406
0.000376749
0.00477743
-0.00385879
0.000270151
4.7049e-05
3.26554e-05
-9.72563e-05
-0.00215107
1.03911e-05
0.00171339
-8.89371e-05
-3.52867e-05
-0.00170866
0.00232361
-0.00284993
0.00285002
6.83893e-05
-0.00374631
5.36461e-05
0.00455925
3.47447e-05
-0.00578417
7.1749e-05
0.00694293
-6.37517e-05
-0.00849076
7.06446e-05
0.0100549
-0.00039009
-0.01179
-3.56782e-05
0.0138554
-0.00159555
-0.0150692
-0.0012542
0.017345
-3.3056e-07
-0.0173451
0.00843041
0.0180079
0.00281984
-0.0160446
-0.000176295
0.0130563
0.00098312
-0.0117902
-4.97945e-05
0.00957699
0.00033844
-0.00827398
-2.22908e-05
0.0066762
9.40889e-05
-0.00554457
-6.13911e-06
0.00442651
-4.18604e-06
-0.00353667
4.0872e-06
0.00280198
-5.33801e-05
-3.94961e-05
-0.000155549
-9.75881e-05
-3.66353e-05
0.000161664
-8.63687e-08
-6.37982e-09
-2.06202e-07
2.08652e-08
1.94309e-07
3.79982e-07
7.97235e-07
2.88133e-06
9.21372e-07
-2.94305e-07
-9.89769e-07
0.00532017
-0.00532095
-0.00740723
-0.00717288
-0.00201325
-0.003892
-0.0120663
0.0351005
-0.00301644
0.000350701
-0.000103164
-0.000259064
0.00125425
0.01507
0.00159462
-0.0138549
-1.19669e-07
-1.19711e-07
-1.36169e-07
0.000389905
-0.0100548
0.0117902
3.56284e-05
-0.00020336
-0.000209584
-7.08706e-05
0.00849093
6.3533e-05
-0.00694305
1.091e-07
-1.28598e-08
-4.83245e-08
-6.61314e-08
-6.86975e-05
0.0037464
-0.0045592
0.00578454
-7.15825e-05
-0.000181014
-0.000138719
-6.16227e-08
-3.4577e-08
7.18359e-09
-6.90486e-09
-0.000137345
0.00140933
-1.56882e-08
-0.00140937
3.53272e-05
0.00170874
9.11128e-05
-0.00232368
3.94588e-05
9.71924e-05
1.91853e-08
-9.13068e-05
4.50014e-08
6.26705e-05
2.30911e-05
0.000798986
0.000135185
-0.00104537
7.47905e-05
-0.000858565
0.000321496
0.000662702
2.85158e-08
-0.000477471
0.000149301
-0.000601979
-0.000167539
-0.00022201
-2.27042e-05
-0.000133324
-7.10375e-05
5.25067e-05
0.000153949
-0.000202906
6.94084e-05
-0.000210254
0.000154124
-4.33024e-09
-0.000154128
-7.71401e-05
0.00041572
0.000210254
3.0129e-05
7.10602e-05
-5.73326e-05
0.000133341
2.26964e-05
3.09092e-05
-0.000147547
-6.40705e-05
0.000209885
0.000196228
-4.41514e-05
5.18759e-05
0.000292179
-0.000407437
0.000400154
-4.61404e-05
2.54651e-09
2.68629e-08
1.63945e-08
-4.68983e-09
5.54816e-09
-1.48153e-08
-5.04535e-09
2.21376e-08
-3.38345e-08
-2.65339e-08
1.13119e-07
9.82339e-08
-7.14501e-08
-1.18419e-07
7.58098e-09
-4.4605e-07
-0.00987022
0.00527419
-0.00451818
0.00750723
-0.00750743
0.00451793
-0.0149475
0.00155603
-0.00599356
0.0137311
0.00347588
-0.000314541
0.0128477
-0.0113622
-0.00674897
-0.0175953
-0.00571874
-0.00860737
-0.0124676
-0.00715259
0.000715164
0.00624171
0.00192337
-1.66305e-06
2.72223e-07
-0.00192256
0.0149471
0.0059934
-0.00155642
0.00463192
-0.0034761
-0.0128482
0.000314201
0.00148604
-0.00256877
-0.0107102
0.00382007
0.0164488
0.00432178
0.00748782
-0.00610391
-0.0062432
9.08292e-07
-0.00225942
-0.00463205
0.000375862
-0.000436471
-0.00726867
0.00610381
0.00124177
-0.00748785
-0.000163318
-0.000169568
0.00116042
-0.000815674
0.000137388
0.000225057
-0.00183138
-0.00421523
-0.00220307
-4.28739e-05
0.00989314
0.00861727
-0.0112114
-0.0100826
0.000633514
0.00768022
-0.000321175
-0.000120136
-0.00219484
-0.00129488
3.56542e-05
9.98643e-05
0.000109547
0.000103629
0.000114719
-0.00237974
-0.00022104
6.86074e-05
0.00220349
-5.94797e-05
-0.00280867
0.00363335
-8.9983e-05
-0.00459635
0.00355525
-0.00277206
-0.000226923
-0.00449042
-0.000111212
-0.00719445
0.00549803
-0.000314028
-0.00694662
-9.75387e-05
-0.0107438
0.00812645
-0.000400574
-0.0102628
2.45409e-05
-0.0152573
0.0115728
-0.000368494
-0.00081784
-0.00411942
-0.0123894
-0.0123678
-0.0194137
-0.00178861
0.0321602
-0.00294798
-0.00310508
-0.00150989
-0.000685302
-0.00041107
-0.000256258
-0.000154735
-7.85164e-05
-5.70219e-05
5.69473e-05
2.14183e-05
0.00312932
1.18659e-07
-0.00312953
0.00403679
6.2419e-08
-0.0051269
0.00512684
-0.00403676
-2.92791e-08
-2.70145e-08
9.91379e-09
3.30461e-05
9.09771e-05
-1.14611e-05
0.000641018
2.26245e-07
-0.000641145
0.0014064
1.09355e-07
-0.00182934
0.00182916
-0.00140625
2.48572e-05
0.000171172
-0.00020608
0.000206103
-0.000111665
-5.40361e-05
-0.000171235
0.000725854
6.03723e-05
-0.000208788
0.00100901
8.21579e-06
-0.00132815
0.00165409
-0.00131926
1.13725e-05
-3.3037e-05
-3.14159e-05
0.000109874
-1.47968e-05
0.000870149
0.000116989
-0.00121811
-0.000117518
0.00123733
0.00018083
-0.00156367
-0.000174528
0.00185228
0.00287584
0.000227066
-0.00355544
0.00459591
9.01733e-05
0.00277261
-0.00220372
0.00280867
5.94843e-05
0.00164858
0.000162995
-0.00231248
0.00168473
0.00107911
-0.000969636
-0.000110176
-0.00140533
0.00011517
0.000957994
0.000623845
0.000129138
-0.00107175
0.000693819
0.00081599
-0.000238737
-9.6926e-05
-0.000144191
0.00116164
-0.000122481
-9.09783e-05
-0.000289194
0.00120925
-0.000497726
-0.000501277
0.000273927
-0.000142145
-0.000147642
-0.000122556
-0.000226366
-0.000161655
3.6597e-05
9.77307e-05
1.37958e-05
8.23054e-05
0.000155445
0.000229516
0.000158476
0.000264878
0.00031392
-0.000314415
-0.000229539
-5.36195e-05
-0.000370011
0.000369241
0.000411884
0.000626085
0.000327726
-0.000328753
-0.000382628
0.000383328
0.00123723
0.00740862
0.00717477
0.0020168
-0.0133383
-0.0004062
-0.0130701
-0.000350783
0.0012179
-0.0321604
0.00236165
0.0028786
2.32085e-05
0.000176196
0.000273104
0.000260856
0.000210692
0.000157623
-1.03257e-05
0.0014911
0.000164204
-0.0019592
-0.000184452
0.00214114
0.000251767
-0.00247292
-0.000253334
0.00303967
0.00469209
0.000313742
-0.00549853
0.00719426
0.0001113
0.0044909
-0.00577633
-3.83258e-05
0.00642681
-1.50993e-08
-0.00802188
0.00802174
-0.00642683
3.82559e-05
0.00577679
8.27247e-05
1.07021e-07
1.84368e-07
5.26743e-08
3.64336e-07
-2.49823e-05
-0.000118807
-0.000534698
0.000136283
8.0256e-05
-0.000400172
-0.000196812
-0.000212436
-0.000400246
-0.000110675
-0.00044644
-0.000632206
-0.000595299
4.59151e-05
-0.000501917
-0.000122525
-0.000194975
-0.000306061
-0.000309626
-0.000307633
-0.000645946
-0.000505612
0.00026658
-0.000501287
-0.000579711
0.00122802
-0.000130336
0.000167621
2.789e-05
-0.000600907
-0.000523661
-0.000195209
3.41191e-05
-7.49734e-05
-7.62906e-05
-0.00123918
-9.99979e-05
0.00141086
0.000225915
4.80077e-05
-6.84052e-05
-0.00201816
0.00253992
0.000221232
-0.00311468
-0.000270051
0.00385941
0.0035143
0.000338339
-0.00376702
-0.000348957
0.00475253
0.00729693
-0.00568025
-9.96676e-05
-0.000125453
-0.00477676
-0.000376249
-0.00432412
0.000192763
0.000163133
0.000125056
8.65737e-05
-2.10602e-05
-3.26537e-05
-4.7036e-05
0.000138664
0.000180879
-6.66124e-05
6.64318e-05
9.46284e-05
0.000511461
-0.00888722
-0.000217386
0.000135553
0.000695595
-0.0127139
0.000405816
0.000197413
0.000127498
9.23501e-05
6.65316e-05
4.60202e-05
2.86257e-05
7.93369e-06
0.002195
-0.00242889
0.00242905
-0.00219476
-8.03591e-06
-2.85925e-05
-4.60389e-05
-2.1525e-05
-0.00363311
-5.70285e-05
-3.53533e-05
3.14951e-06
7.86944e-05
0.000154875
-8.26944e-05
-3.92014e-05
-6.83618e-05
-0.000103572
-0.000114554
0.00238004
0.000451781
0.000173368
-5.114e-05
-0.00323002
0.00412802
0.000286191
-0.00495821
0.00637766
0.000325577
-0.00724389
0.00940185
0.000217088
-0.00989366
-0.000696149
0.0127144
0.0133457
0.000176253
-0.010069
5.01349e-05
0.000386339
0.000109918
-5.80473e-06
0.000346612
0.000766077
0.0012421
0.000636954
0.00206093
0.00123286
0.00389268
0.00285796
0.0120661
-0.0351002
0.00106078
-0.00166347
0.0124668
0.00571811
0.0175955
0.00674898
0.0113619
-0.00869091
0.00301695
0.00178823
-0.0109604
-0.000114905
6.01964e-05
0.000179779
-1.17582e-07
-1.29333e-07
-0.000135676
0.000203244
0.000209374
-9.46306e-05
-0.000127728
-3.0501e-08
-4.01431e-08
-9.23797e-05
-6.66351e-05
-6.16793e-05
-0.00876195
0.00975523
-1.44812e-08
-0.0119799
0.0119797
-0.00975538
6.17341e-05
0.00876264
0.000110642
-3.89549e-05
-0.000342946
3.94901e-05
-0.000171635
-0.00025801
-0.000654008
0.000139262
0.0126451
-0.0140549
0.000106315
-1.03184e-07
-5.34698e-08
-4.55587e-08
-9.39212e-08
-0.00651096
0.00118452
0.000102988
0.000258715
-0.000375706
-0.00880184
0.00225952
0.000435954
0.00726824
0.00715186
-0.0137305
0.00860669
-0.000715421
-0.00124256
-2.95843e-07
0.00421773
0.0110053
-0.000128683
8.39527e-07
0.000186951
0.0002215
0.000128925
-0.00485837
-0.00837533
-0.00832498
5.87062e-08
0.000145894
8.68964e-07
0.000642851
7.65615e-07
1.79433e-07
1.29476e-08
-0.000110698
0.000256688
0.000411234
-0.000139358
-0.000106687
0.000258166
3.91676e-05
0.000784005
0.000457676
0.000227529
3.54235e-05
1.32551e-05
0.000213498
0.000447823
-0.000126351
-0.0028316
0.000778619
0.0012954
-7.78636e-05
0.00888841
4.39926e-05
0.000120556
-3.49596e-05
0.00129575
0.00219662
0.00220404
0.00421677
0.0123678
0.00183127
0.00411936
0.0123888
0.00294713
0.000817891
-0.000187501
0.00068477
0.00134368
0.00310557
0.000656201
-0.000109498
-0.0037042
-9.38945e-05
-8.36785e-05
-0.000126319
-4.5286e-05
5.72452e-05
0.000172956
0.000343131
-0.000197483
-0.0013416
2.25713e-05
6.24737e-06
-3.9707e-06
-0.00177253
3.5318e-05
-0.00164822
-0.000163038
6.40671e-05
0.000147558
-3.0908e-05
-5.18844e-05
-5.46124e-08
4.41603e-05
-0.000196241
-0.000209883
7.71583e-05
0.000407448
-0.000292196
-2.39026e-05
-0.000119555
0.000111427
5.40628e-05
0.000107723
-7.99584e-05
0.000125896
-0.00597951
-0.000325787
0.000376029
-0.00148631
-0.00118478
0.000163439
6.61172e-05
-1.12257e-08
-3.52262e-05
1.48673e-08
8.41565e-08
1.38084e-07
-0.000286305
-0.000406423
-0.000164163
-0.000251757
-0.00122797
-0.00116158
-0.00120916
-0.0132522
-0.0103132
0.00180719
-2.1221e-07
-0.00180737
0.018621
0.00832402
-0.000195187
-0.000118378
2.95408e-06
8.09006e-06
0.00100861
-0.00131933
0.00165401
-0.00132803
0.000115254
0.000957876
-0.000289326
0.00120909
-0.000595395
-0.000632503
-0.000497793
-0.000501256
-0.000579497
-0.000501313
-0.00050564
-0.000645973
-0.000600942
-0.000523679
-0.000167616
0.000167593
-0.000222052
-0.000601981
0.000149215
-2.26727e-05
-0.000477491
2.05148e-08
0.000477472
-0.000149256
0.000601988
0.000167605
0.000222045
-0.000167606
0.000130363
-2.78441e-05
0.000523859
0.000600983
0.000645973
0.000505655
0.000501349
-0.000266527
0.000144273
0.000122497
0.000289251
-0.000273841
0.000501352
0.000497787
0.000632386
0.000595397
0.000502018
-4.58351e-05
0.000122648
5.40638e-05
0.000171302
0.000641216
-2.14421e-07
0.000206081
-0.000171196
-5.4096e-05
-0.000122506
4.60241e-05
-0.000208756
6.02192e-05
0.000725722
1.14368e-05
0.00140623
-0.00140633
-1.49664e-07
-0.0018292
-7.93933e-06
-0.00219475
5.94463e-05
0.00164823
0.00168452
0.000163063
-0.00231264
-0.00156386
0.00107883
-0.000110303
-0.000969615
-0.00140553
6.17861e-05
8.39213e-05
9.57408e-05
8.92473e-05
2.45236e-05
-0.000167155
-0.00030962
0.00421809
-0.00332375
-0.0113708
0.0062705
0.0114033
0.00432208
0.0164491
0.00382055
0.00674936
0.0175962
0.00571871
0.0124671
0.00860699
0.00599298
-0.0137313
0.00463181
-0.000375976
-0.00155624
0.0149474
-0.00451732
0.00750746
4.73639e-08
-0.00750795
0.00451759
-0.0149468
-0.00599292
0.0137313
-0.0124666
-0.00860674
-0.00571849
-0.0175958
-0.00674877
-0.00382035
0.0107105
0.0116379
0.0113707
-0.0114029
-0.00432177
-0.00627062
-0.0177781
-0.00759335
-0.0103133
-0.0147531
-0.00640194
0.0100846
-0.0129175
-0.0018376
0.0205203
-0.0205202
0.0129176
-0.0100848
0.00640127
0.014752
0.0103134
0.013253
0.00759305
0.0177773
0.0213024
0.0209525
-0.00384059
0.0186209
0.00694832
0.00832395
0.00648255
-0.000145476
1.23094e-06
0.000145902
-1.61966e-07
0.0110057
-0.0110055
0.000456827
-0.00648276
-0.00832416
-0.00694881
-0.0186211
-0.020953
-0.0213017
-0.0172773
-0.0177299
-0.019408
-0.0174569
-0.0176839
-0.0210386
-0.0202873
-0.0177201
-0.00587195
0.00166466
-0.00106096
0.0133386
-0.0133466
0.0100688
-0.00940172
0.00724472
-0.00637742
0.00495822
-0.00412797
0.00323041
-0.00253962
0.00201832
-0.00149107
0.00123919
-0.000870138
-0.000815895
-0.000693756
-0.000623747
-0.000957932
-0.00100885
-8.21447e-06
0.00131934
-0.000725791
-6.02921e-05
0.000208836
-0.00120911
0.000142962
-6.17671e-05
-8.38857e-05
-9.5664e-05
-8.92278e-05
-2.42195e-05
0.000167206
0.000309545
-0.00421807
0.00332365
0.00116049
0.00318165
-0.000815798
0.00784031
-0.00784021
-0.00318157
-0.00116046
0.000815871
0.0024563
-0.0116383
-0.0107101
0.0113621
-0.012848
-0.003476
0.000314456
0.00148616
-0.00256853
0.00236192
0.00287887
3.81864e-08
-0.00287869
0.00347595
-0.00463175
0.00880115
0.000375517
0.00986968
-0.00987002
-0.00880147
-1.11121e-07
0.00622349
0.0065106
-0.00651082
0.00118455
-0.00622339
0.000435997
3.47222e-07
0.00624172
0.000715167
-0.00715177
0.00192331
-3.58428e-07
-5.08124e-07
1.44192e-08
0.00843107
-0.00647983
-0.0193894
0.00420921
-0.0158168
0.0189002
-0.0173446
0.0150691
-0.0150696
-0.0015951
-0.013056
-0.000983087
0.0117899
-0.00957679
-0.000337998
0.00827394
-0.00667623
-9.37023e-05
0.00554426
-0.0044266
4.4672e-06
0.00353661
-0.00280201
5.3513e-05
0.00215108
-0.00171341
8.89856e-05
0.00126916
-0.00104547
0.000135196
0.000798903
0.000321424
0.000662587
-0.000662648
2.26469e-05
0.000133313
-0.000316675
-0.000287716
1.57796e-08
0.00020021
-0.000200206
-0.000220141
1.29447e-08
0.000226212
-0.000226214
-0.000176343
-1.4056e-08
0.000428765
-0.000428858
1.62422e-05
-1.76055e-07
-0.000111213
0.000111582
-8.02579e-05
0.0004002
0.000196834
0.000212493
0.000110778
0.000446538
0.000161571
-0.000381635
-7.388e-05
0.000292221
-0.000407429
0.000400323
0.000196238
0.000209929
6.48235e-05
0.000415817
7.07553e-05
-0.000326682
-5.64842e-05
6.61365e-05
-0.000316012
0.000417084
4.37278e-05
4.19761e-05
-0.000109871
-0.000157658
-0.000210796
-0.000260928
-0.000273266
-0.000176325
-2.3321e-05
0.000406433
0.0130691
0.0109615
0.0104133
0.0145871
-0.0151762
0.0114623
-0.0108287
0.00828342
-0.00729736
0.00568083
-0.00469252
0.00370466
-0.00287604
0.00231262
-0.00168477
0.00140546
-0.000115195
0.00132811
-0.0016541
0.00182937
-0.00242896
-3.93057e-08
0.0024288
-0.00312955
0.00280861
-0.00220376
0.00277233
-0.00363315
9.00322e-05
-0.00355562
0.00022719
0.00287562
-0.000174497
0.00185183
0.00214076
0.000251877
-0.00283182
-0.00311494
0.00237961
-0.000184477
-0.00177269
0.000180871
0.00123709
-0.00107186
0.000129216
0.000623682
-9.10619e-05
-0.000122509
0.000273796
-0.000417111
-0.000161552
-0.000446537
-0.000110736
-0.000212442
-0.000196742
-0.000400086
7.99424e-05
-0.000107747
-1.61924e-05
0.000183772
-2.37929e-05
-0.000292214
-2.41039e-06
7.38759e-05
0.000407426
0.000381646
0.000315996
-6.61667e-05
-6.96905e-05
0.00017636
-7.95319e-09
-1.32214e-08
-1.22275e-08
2.76249e-08
4.96468e-08
5.5464e-08
9.79995e-08
4.08578e-08
2.82048e-08
1.11133e-09
2.47391e-07
0.00438028
-0.000163442
-0.00748759
0.0012424
-0.0164484
-0.00726812
0.0128475
-0.000314478
-0.00148611
-0.00118473
-0.000103136
0.000350762
-0.00121827
-0.000541973
-0.00448139
-0.0043236
0.00995899
0.0138843
-0.0205685
0.000159459
0.0171586
-0.0144548
0.0167674
0.00020151
-0.00411867
-0.01239
-0.012367
-0.0120647
-0.00717588
-0.00740763
-0.00123723
-0.00285994
-0.00201642
-0.00389326
-0.00205987
-0.00123226
-0.000626114
-0.00041225
-0.000635829
-0.000109609
-0.000386504
-4.33164e-05
-0.0127138
-0.0112116
0.00861666
0.00767947
0.000633653
-0.0100824
0.000374771
0.000114735
-0.00236182
0.00256873
-0.00245634
-0.000169537
0.00610397
-0.000436429
-0.00225971
0.00155638
-0.00527416
-0.00117138
-0.00532023
1.32195e-07
3.02938e-07
9.46132e-07
3.27391e-07
-2.36612e-07
-3.05128e-07
-2.48764e-07
-4.84181e-07
-2.17359e-07
4.01745e-09
4.19898e-08
-0.000161682
0.000161673
0.000226338
-1.39204e-05
-8.2278e-05
-0.000158487
-0.000264975
-0.000346352
5.91755e-06
-0.00124112
-0.000765583
-0.000451552
-0.000172774
5.12809e-05
0.000126717
-0.00385932
-0.00351467
0.00283162
0.00247275
0.000253557
-0.00303915
0.00376632
0.000348888
-0.0047518
0.0054893
0.000466165
-0.00709978
-0.000321594
-0.00809856
0.00627709
0.00051161
-0.00888724
0.00989263
0.00069566
0.000135573
-6.02487e-05
-0.000179869
-0.000406897
-0.00547452
0.00432438
0.000376315
-0.00598012
0.00701821
-0.000326015
7.8579e-05
-0.00220277
-0.00421567
-0.00178776
-0.00301629
0.00869133
-0.0113618
0.0350999
-0.00183161
0.00904851
-0.00294728
-0.00837484
-0.00485845
-0.00151033
-0.00310533
-0.000817146
-0.000119829
-0.002195
-0.00129453
-0.00129441
-0.0007778
-0.000447471
-0.000213292
-0.000225752
-4.76866e-05
6.84079e-05
0.000114731
-0.00237983
-0.00214115
0.00177271
0.00156363
0.000174441
-0.00185186
-0.0002519
-0.000163226
-0.00019273
-0.000338705
4.7076e-05
0.000270023
0.00311452
-0.000221282
-0.000138657
0.00442631
-6.58255e-06
-0.00554498
9.43316e-05
0.00667591
-2.2367e-05
-0.0082747
0.000338975
0.00957618
-4.99894e-05
-0.0117904
0.00098333
0.0130559
-0.000176654
-0.016045
0.00282068
0.0180068
0.00393652
0.00125395
-0.000258962
0.000258966
-0.0180074
-0.00282
0.0160446
-0.00125421
0.0173447
-0.00843086
-0.0189005
-8.72211e-08
0.015816
-0.0042092
0.0193905
0.0058723
0.00647976
0.00117128
0.00527451
0.00225951
-0.00192354
-0.00624213
0.0071524
-0.000715308
0.00726829
-0.00610368
-3.56943e-07
7.55719e-08
-7.83857e-09
-4.04849e-08
2.68762e-08
6.20544e-08
0.00159575
-0.0138546
0.0117894
-0.0100549
0.00849108
-0.00849159
-6.36879e-05
0.0069432
7.18934e-05
-0.00578409
3.49895e-05
0.00455912
5.38766e-05
-0.00374634
6.85982e-05
0.00285001
3.95042e-05
-0.00232359
9.12375e-05
0.0017087
3.52735e-05
-0.00140944
0.000137318
0.000998459
7.4714e-05
-0.00085866
-1.26831e-08
0.000858594
-0.000321402
-0.000798954
-0.000135213
0.00104538
1.48191e-05
-0.00126922
-8.89404e-05
0.00171341
1.03203e-05
-0.00215128
-5.34334e-05
0.00280183
3.94673e-06
-0.003537
-4.17564e-06
-5.38931e-05
0.00374622
1.68297e-08
-0.00285022
0.00232362
-0.00170877
0.00140941
-5.85288e-08
-0.000998509
-7.47702e-05
-2.30738e-05
-6.2688e-05
-3.53484e-05
-9.75545e-05
-0.000155579
-0.000229893
-0.000314673
-0.000369909
-0.000328159
-0.000382318
0.000382437
0.00532011
0.0074079
0.00123686
0.000327071
0.0138545
-3.57286e-05
-0.0117899
-0.000390141
0.0100542
7.11699e-05
0.000209544
2.00202e-07
0.000390813
5.30574e-08
-5.54293e-08
6.41675e-05
-0.00694339
0.00578397
-0.00455936
-3.49583e-05
-3.98069e-08
-7.90083e-08
-2.4308e-08
-6.86201e-05
-2.34213e-08
-9.115e-05
-4.02539e-08
7.89138e-09
-0.000137224
-1.51683e-08
1.40679e-08
0.000316679
-0.000133323
0.000142275
-0.000192498
0.000192472
-0.000142274
0.000428168
-5.73113e-05
0.000178113
-0.000413542
-8.78211e-05
8.19806e-06
-0.000371778
0.000421813
0.000153499
0.000454597
0.000118414
0.000211309
0.00041531
0.000202913
-6.93706e-05
-0.000153961
-5.25123e-05
4.21516e-08
-2.9885e-08
5.24631e-05
-0.000428209
-0.000178109
5.72672e-05
-0.0001474
8.77587e-05
0.000371757
-8.20615e-06
-6.00106e-05
5.64911e-05
0.000326702
-7.07347e-05
-0.000415759
-6.48176e-05
-0.000209924
0.000154126
0.000153961
-1.23976e-08
7.10636e-05
0.000147361
8.1894e-06
3.01274e-05
0.000210286
-0.000154118
-7.71409e-05
-5.29747e-09
-3.01245e-05
-7.10746e-05
0.000287746
-8.26859e-06
2.30518e-05
-1.74072e-08
1.57354e-08
1.97317e-08
7.94777e-08
-6.53501e-08
9.80122e-08
-0.000203113
3.60623e-05
0.000203323
2.3654e-05
0.000176274
-0.0133389
-0.000405874
0.012714
-0.000695917
-0.00861766
0.00032081
0.00709974
-0.000465925
-0.00549034
-0.00828324
0.00039986
0.00694643
-0.00876211
9.72654e-05
-0.00812753
0.0102622
-0.0126448
-2.39982e-05
-0.0115745
0.000368197
0.0108278
-0.0114614
-0.00768149
0.0100826
-0.000633079
0.0151756
-0.000200733
0.0144551
-0.0171577
-0.000159279
-0.0167683
-0.0145866
-0.0104142
-0.000375196
0.0112105
-0.010961
-0.0130703
0.00301643
-0.000350838
0.00121804
-0.0321605
0.000542428
-0.000224937
0.00448099
-0.034184
0.00432383
-0.0138842
-0.00995954
0.00485793
5.14478e-07
0.000128675
0.000642911
0.0227826
-1.22261e-08
0.0189174
-0.0189171
0.000221303
-0.0152576
2.43791e-05
0.0126456
-0.0102621
0.0115729
-0.000368229
0.0081264
-9.74882e-05
0.00876264
-0.00694617
-0.000400308
0.00549797
-0.00011155
0.00577675
-0.00449031
-0.000314236
-0.000783419
-0.000457319
-0.000227277
-3.53303e-05
-1.32e-05
-3.4104e-05
7.49756e-05
7.63549e-05
0.00010004
-0.0014107
-0.00123742
0.00107179
0.00096951
0.000110164
-0.00107897
-0.000180974
-0.00012511
-8.65771e-05
-0.000129126
3.14209e-05
9.70006e-05
0.000238805
-0.00122786
0.000307743
0.000195344
0.000122531
0.000147674
0.000309716
0.000579795
-0.00116151
0.000142221
9.40137e-05
0.000103662
0.000109729
0.000100051
3.55341e-05
-0.000258218
-0.00134355
-0.000684465
-0.000411176
-0.000656432
-3.9411e-05
0.000110674
0.000138889
-0.0107444
0.0119799
3.77178e-08
0.00975531
-0.00975507
6.17994e-05
0.00802169
-3.46491e-08
0.00642715
-0.00642709
3.83051e-05
-0.00459614
-9.02641e-05
0.00363327
-0.00277236
0.00355512
-0.000227091
3.89372e-05
-0.000343314
-0.000256615
-0.000154864
-0.000173003
6.86468e-05
5.69863e-05
-0.00280878
-5.95571e-05
0.00219483
-0.00164845
0.00220356
-0.000162975
8.3764e-05
-5.72264e-05
-7.85876e-05
-2.97341e-06
4.53245e-05
0.000126395
0.00030619
0.000195133
0.000118911
0.000534748
-0.000136257
0.000223117
-4.65177e-07
-0.00021989
0.0001349
-0.000534132
-0.000111438
-0.000119315
-3.31594e-07
-5.92344e-08
3.53056e-05
7.94427e-06
2.86051e-05
2.10797e-05
0.00011747
0.00121812
-0.00011693
3.26475e-05
0.000184529
0.00195915
-0.000164234
-9.71718e-05
-3.9498e-05
9.71228e-05
0.000138664
0.000181025
0.000273513
0.000176597
5.0004e-05
-0.0100699
0.000217053
0.00888674
-0.000511877
-0.0062773
0.000407064
0.00475162
-0.000348777
-0.00376734
-0.00568018
0.000314537
0.00449053
-0.0057765
0.000111465
-0.00549856
0.00719417
-6.18723e-05
-0.00802153
-0.000110517
-1.68585e-07
-3.77542e-10
-6.65329e-07
0.000187468
-0.000186769
-0.000128325
-0.000642817
0.0205682
-0.0227827
-0.00013741
0.000103115
-0.000135472
-0.0001145
6.06753e-05
-2.34563e-08
9.4677e-05
-0.000209323
-7.09574e-05
-0.000180861
-7.17453e-05
6.65434e-05
6.86713e-08
1.4016e-08
-3.54597e-10
-2.45896e-08
-2.06667e-08
2.45692e-09
4.66203e-09
-4.19767e-05
0.000109896
0.000157654
0.000210839
0.000260953
6.19443e-06
-0.00495852
0.000286411
0.00385893
-0.000270129
0.00351387
0.000338502
0.00303901
-0.000253591
-0.00247321
-0.00370458
0.00469172
-0.000109856
-0.00012694
-5.21264e-05
0.00026451
0.000411593
0.000625204
0.000370012
0.000314661
0.000230037
0.000155711
0.000158298
8.21824e-05
9.76152e-05
3.65217e-05
1.3756e-05
-0.00022642
-0.000195556
-0.000122666
0.000870081
0.000116955
0.000815837
-9.70367e-05
-0.000144286
0.00116152
-4.37235e-05
8.66031e-05
0.000125134
0.00016327
0.000192865
0.000180045
-9.45675e-05
-6.65671e-05
-0.000376539
-0.00477706
-0.00432447
0.00547387
0.00597978
0.00637696
0.000325859
-0.0072447
2.21872e-05
0.00940141
0.00010783
0.000385689
0.0133446
0.00201426
0.00106103
-0.0351009
0.0202885
0.0177231
-0.00166551
0.00717404
0.0120649
0.0210393
0.0176845
-0.00869123
0.0174559
0.0194133
0.0177333
-0.00904842
0.0172776
0.0123886
0.0123684
0.00178805
0.00389172
0.00286385
0.00206002
0.00122081
0.00124083
0.000628583
-7.33684e-06
-0.000126394
-7.884e-05
-0.00701883
0.00809675
4.2917e-05
-0.00989399
0.0042154
0.00220218
0.00129402
0.000777518
0.000765052
0.000342327