/*--------------------------------*- C++ -*----------------------------------*\
| =========                 |                                                 |
| \\      /  F ield         | OpenFOAM: The Open Source CFD Toolbox           |
|  \\    /   O peration     | Version:  2306                                  |
|   \\  /    A nd           | Website:  www.openfoam.com                      |
|    \\/     M anipulation  |                                                 |
\*---------------------------------------------------------------------------*/
FoamFile
{
    version     2.0;
    format      ascii;
    arch        "LSB;label=32;scalar=64";
    class       volScalarField;
    location    "1.7";
    object      gradTx;
}
// * * * * * * * * * * * * * * * * * * * * * * * * * * * * * * * * * * * * * //

dimensions      [0 -1 0 1 0 0 0];

internalField   nonuniform List<scalar> 
2658
(
0.00854937
0.0125147
0.00405037
-0.00027093
-0.0170507
-0.0144059
0.0147043
0.0145248
-0.000254512
0.0204191
-0.0139945
-0.0102709
0.00693185
0.00821103
0.00626768
-0.000533633
-0.0002817
-0.000115595
-0.00688273
-0.00893425
-0.0085292
-0.0198209
-0.0236362
0.0176868
-0.00744513
-0.00937025
-0.0201642
-0.00286543
-0.0147647
-0.0159231
-0.0147645
-0.0201646
-0.0093708
-0.0236375
-0.0074447
0.0176866
-0.00935914
0.00445832
-0.0198176
-0.0085316
-0.00893406
-0.00688233
-0.000116912
0.000610444
-0.0116057
0.0108413
-0.0139943
-0.000538627
-0.000535617
0.00626786
0.00821145
0.00693167
0.01879
-0.00397273
0.0210644
0.0173444
-0.00919578
0.000726264
-0.0323883
0.0175123
-0.00919526
0.0173448
0.0210643
-0.00397209
0.00426324
-0.0342564
0.00419596
-0.00040333
-0.0107982
-0.0107994
-0.000401067
0.010563
-0.000771638
-0.0112052
0.000293445
-0.0118133
0.015112
-8.0701e-05
-0.0126966
0.0141645
-0.0173793
-0.000358952
0.0189796
-0.0172371
-0.000430672
-0.000249338
-2.59014e-05
5.72825e-05
7.18286e-05
6.21231e-05
4.35728e-05
-7.84226e-05
7.01533e-05
-0.000498557
0.000330537
-6.29714e-05
-0.000409469
1.92053e-06
0.000411184
-0.000336576
0.000180816
0.000464722
0.000418775
0.000327035
0.000340934
-0.00070734
-0.0001318
-9.41961e-05
-3.88559e-05
0.000191147
0.000410234
0.000161408
0.00032448
0.000161383
0.000410237
0.000191137
0.000340963
-0.000707337
0.000418815
0.00032708
0.000464713
0.000180773
-0.000336597
0.000411192
-0.000664221
0.000664416
-0.000498551
-6.29694e-05
-0.000409472
0.000330516
-0.000184903
-0.000454402
-0.00030672
-0.000278629
-0.00018072
1.90371e-05
-8.6497e-05
-0.000522881
0.000409134
0.000408922
-8.64696e-05
1.89376e-05
0.00018513
-0.000198097
-0.000227634
-0.000197635
0.000105087
0.000132984
-0.000400097
-0.000416279
-0.000346897
-0.000439647
-0.000430952
-0.000445468
-0.000350952
-0.000617852
-0.000558252
-0.000237033
-0.000274037
-0.000200563
3.16151e-06
-6.71783e-08
-5.75042e-06
0.000190783
0.000271428
0.000239677
0.00056607
0.00071388
-0.000165674
0.000509797
-0.00134507
0.00168505
-0.00214485
0.00281563
-0.00352996
0.00457038
-0.0056249
0.00710155
-0.00856821
0.0105511
-0.0124388
0.0150692
-0.017214
0.0212106
-0.0211924
0.0225138
-0.0232684
0.0204185
-0.0170515
-0.000271
-0.014405
0.0041952
-0.0342558
0.00426332
-0.0102711
0.00412131
-0.000430734
-0.000249356
-2.60588e-05
5.71453e-05
7.18901e-05
6.21742e-05
4.35875e-05
-7.84295e-05
7.01648e-05
5.31397e-06
-0.000181035
-1.58426e-05
0.000249775
0.000249767
-0.00018105
5.33478e-06
-1.57825e-05
7.84835e-05
0.000664426
-0.000664261
4.66357e-05
0.000511183
-4.6196e-05
1.30379e-05
-7.41605e-05
1.56197e-07
6.29727e-06
6.83398e-05
4.87069e-05
6.83386e-05
-4.62749e-05
-0.000131774
-0.000327419
-9.41698e-05
7.21305e-05
7.21394e-05
-0.000327435
-1.29611e-05
0.00020581
-0.00024556
-0.000245596
4.40622e-06
0.000205847
-4.15051e-06
-4.28783e-05
-5.65578e-05
-5.2603e-05
0.000235947
-5.34943e-05
-1.63291e-05
-0.000390849
3.76522e-05
-0.000169015
0.00026693
0.000269562
0.000590767
0.00041883
-0.00115218
0.000817945
-0.00145057
-0.00145049
-3.49388e-05
-0.00159706
3.59413e-05
0.00193867
-0.00257524
2.90475e-05
0.00322834
-0.0041594
3.42911e-06
0.00515147
-0.00645513
-5.27121e-05
0.00783956
-0.00952393
-0.00016542
0.0114371
-0.0132783
-0.000326738
0.0164329
-0.0170991
-0.000947062
0.0265587
0.00434271
0.0312688
0.0312687
-0.00286492
0.00701771
-0.00251611
0.0100206
0.000523428
-0.00633658
-0.00633658
0.00691545
-0.00034105
-0.00814435
-0.00814423
0.00217951
-0.00263152
-0.0115737
-0.0115737
0.00395028
0.0164861
0.00395039
0.00630199
0.0180188
0.00761455
0.0103457
0.0132858
-0.0200221
-0.0116441
0.0113284
0.00750513
-3.23274e-05
0.0021796
-0.00131231
-0.00339883
0.0139434
-0.0102441
0.00635346
0.0147561
0.00843595
-0.00449061
-0.00603088
-0.00449038
-0.003399
-0.0116438
-0.0200218
0.0076147
0.0180194
0.00630244
0.0113285
0.00750527
0.00843706
0.0147549
0.00635244
-0.0102443
0.0139429
0.00171604
0.0127249
-0.00032002
-0.0132764
0.0204211
-0.000320108
-0.00363087
-0.0210177
-0.000371957
-0.00245976
0.000152243
0.000124307
6.0561e-05
3.41151e-05
1.97424e-05
8.39199e-06
1.06039e-06
-3.56695e-05
0.00136642
-0.00147981
0.00148737
-0.00134679
0.00162597
-0.00222173
0.00277813
-0.00365866
0.00455486
-0.00580193
0.00712926
-0.00879356
0.0106415
-0.0126957
0.0151111
-0.0172366
-0.000254316
0.0145249
0.0147024
0.0105649
-0.00813465
0.000298626
-0.00813306
0.00754416
0.0104338
0.0103494
-0.00829971
-0.00806042
0.000344928
0.00702331
6.89725e-05
0.0106427
-0.0001891
-0.0122125
0.0118879
-2.95277e-05
-0.00982626
0.00907902
-0.011167
-2.1696e-05
-0.0141718
-5.86086e-05
0.016846
-0.0191113
-0.000105587
-0.0232685
-0.000771041
0.0108412
-0.000538664
0.00171641
-0.0210179
-0.0036307
0.000632092
-0.000299542
-0.000226223
-0.000193412
-0.000117023
-5.82403e-05
-2.66968e-05
-1.1631e-05
-4.97491e-06
-1.62723e-06
6.30976e-06
1.75446e-07
-7.41094e-05
4.38902e-06
1.30302e-05
0.000511177
4.66032e-05
-1.99919e-05
-0.000665657
0.000595657
-0.000600569
0.000639426
-0.000277999
0.00114827
-0.000350307
0.000911541
8.99711e-05
-0.00133926
-0.00134255
0.00110468
4.57993e-05
4.32228e-06
-0.00011283
2.49545e-06
0.000127441
0.000260429
0.000343258
-4.1527e-05
2.29246e-05
0.000157234
-5.70367e-06
-7.3149e-05
-8.02973e-05
-0.000119088
-0.000205298
-0.000189414
6.90595e-05
7.13818e-05
3.56908e-05
-0.00170151
0.00183232
-0.00246553
0.0024778
-2.17313e-05
-0.00186538
-2.37168e-06
2.01604e-07
2.11522e-06
5.01543e-06
-0.000127193
-0.000197866
-0.000351296
-0.000329926
-0.000503125
-0.000608953
1.78802e-05
5.9315e-05
6.79037e-05
-0.0047886
0.00511477
-0.00647654
0.00650731
-6.63618e-05
-0.00522803
0.00409658
-4.07014e-05
-0.00319117
-4.59397e-06
0.00312727
-0.00407567
1.21851e-05
-0.002919
0.00229001
1.11678e-05
3.61149e-06
-6.23447e-05
-0.00159686
5.21553e-05
0.00113442
4.79015e-05
-0.00119694
-0.000587746
0.000242104
-6.62232e-05
-1.20953e-06
-8.29848e-06
2.31671e-05
-3.10442e-05
1.93733e-05
-0.000150878
-0.000208064
-0.000118213
0.000105844
-6.20478e-05
-8.79546e-05
-4.76453e-05
8.18929e-05
0.000151794
0.000244732
7.53837e-06
8.15265e-06
-0.000298473
-0.000477688
-0.00107334
-0.000742604
-0.00137215
-0.00241028
-0.000450755
-0.00010076
7.38719e-05
-0.0111667
0.0118873
-0.0141722
0.0141648
-0.000189585
-0.0122118
0.00985701
-0.000108463
-0.00817719
-1.49375e-05
0.00798373
-0.00982635
3.118e-09
-0.00749146
0.00600338
9.47045e-06
4.66651e-06
5.79057e-06
-8.64004e-05
-0.00257514
2.83931e-05
0.0019387
3.60326e-05
0.000141988
-0.00226396
0.00271966
-0.0036769
-0.00367687
-9.107e-06
0.00448
5.91033e-05
-0.00580813
-9.16201e-06
0.0069992
6.09742e-07
-0.00873975
-1.9588e-06
0.0104128
-0.000185408
-0.0123521
7.29344e-05
0.0148761
-0.000863386
-0.0159938
0.000498774
0.0210309
-0.00355898
-0.016869
-0.00227296
-0.0168687
0.00434264
0.026559
-0.000946816
-0.0170982
-0.000701847
0.0164321
-0.000326615
-0.0132782
-0.000353414
0.0114376
-0.000165126
-0.00952246
-0.000157129
0.00783995
-5.24277e-05
-0.00645483
-6.05269e-05
0.00515146
3.70534e-06
-0.00415923
-6.65133e-06
0.00322836
2.92679e-05
9.48286e-05
-0.000156662
-0.000128222
-9.54036e-05
0.000332884
2.31585e-05
-0.000184163
-0.000295371
-0.000402045
-0.000550965
-0.000745614
-0.000908967
-0.000782251
8.23198e-05
0.00130081
-0.00141412
-0.011262
-0.0112621
-0.0116077
-0.0096103
-0.00336304
-0.00127717
-0.00522861
0.00839198
0.0134242
0.000262133
7.5687e-05
0.000772387
-0.0035585
0.0210297
0.000499279
-0.0159937
-0.0015052
-0.000557768
-0.000534319
7.37032e-05
-0.012352
0.0148757
-0.00086338
-3.83178e-05
-0.000158942
-0.000185734
0.0104114
-1.5441e-06
-0.00873912
-0.000266263
-0.00044753
-0.000344288
-0.0002417
-8.8813e-06
0.00447993
-0.00580812
0.00699894
6.39903e-07
-0.000154667
-0.000120656
1.47597e-05
9.47562e-06
2.57721e-06
-8.12647e-05
-3.492e-05
0.00156639
8.87911e-05
0.00156651
0.000141876
-0.00226384
-1.44964e-05
0.00271995
9.49444e-05
-8.6406e-05
-0.000151477
-1.44499e-05
2.71623e-05
-6.23231e-05
-6.62058e-05
-0.00119699
4.79051e-05
0.0011344
0.000242071
0.000817907
-0.000169011
-0.00115221
0.000103652
0.00041884
0.000590779
0.00026952
0.000713901
0.00026695
9.73434e-05
-0.000220524
0.000125696
-5.35014e-05
-5.65343e-05
0.00023594
-5.26318e-05
3.58725e-05
1.33686e-06
1.64039e-06
1.32463e-06
1.76423e-07
1.91025e-06
3.58835e-05
-4.12885e-06
0.0001257
-3.88924e-05
-0.000220541
9.73468e-05
5.13499e-07
6.95714e-05
5.94362e-05
-3.86268e-05
-0.000232386
6.9336e-05
-0.000125172
0.000233313
0.000711404
-0.000424603
0.000138194
6.29905e-05
3.58826e-05
3.55555e-05
3.06847e-06
-1.71943e-06
-2.39767e-06
-6.39016e-06
-1.34619e-05
-2.96572e-05
1.90348e-05
2.82417e-05
6.6157e-05
0.000175041
-0.00123017
-0.00341152
0.0136319
-0.00251606
0.00701782
-0.0151499
-0.00703634
-0.00703566
-0.0151509
-0.0077074
-7.54687e-06
-0.0135984
0.0227058
0.00156654
-0.000921324
-0.0163697
-0.00151237
0.00967393
-0.00726706
-0.0158063
-0.0130765
-0.013406
-0.00917712
0.000906079
0.00196359
0.000907621
0.000274788
-0.0128867
0.000908047
-0.00770661
-0.0135987
-6.89765e-06
0.00438246
0.00156705
-0.0163699
-0.000921051
0.00205803
-0.00032001
0.0204214
-0.0132769
-0.000319543
0.0127258
0.00100299
-0.000565401
0.00196422
0.00158478
-0.00424709
0.00438276
0.00305652
0.000192405
-0.00149297
-0.000564809
-0.000182001
0.00100243
-0.00189974
-3.24177e-05
-0.00131219
0.000632099
-0.000299617
-0.0007713
-0.000326674
-6.03354e-05
-4.18322e-06
4.8989e-05
-0.0158114
0.0168459
-0.0191122
0.0189802
-0.00035978
-0.0173788
-5.84186e-05
-0.00029169
0.000632188
0.000384901
-0.000195452
-0.000142001
-0.000102414
-7.23194e-05
5.18744e-05
0.00378569
-6.8364e-05
-7.96048e-05
-0.00223647
0.000124918
-0.00223439
0.00277398
0.000189005
-0.00359051
-0.00362194
0.00282529
9.45196e-05
0.00455256
0.000271794
-0.0055149
-0.00561147
0.000101835
0.00702391
0.000344026
-0.00805929
-0.00830025
6.92621e-05
0.0103499
0.000293165
-0.0112043
-0.0118148
-7.99352e-05
0.000739989
0.00141512
0.00460735
-0.000243081
-0.000273698
-9.96812e-05
-0.00044287
0.00289885
0.00309712
0.00404945
0.00215353
0.00127796
0.000784675
0.000475762
0.000265392
3.59413e-05
-9.44845e-05
-0.000192726
-0.00161047
0.000154282
-0.00160981
0.00200421
0.000230257
-0.00260781
-0.00260858
0.00200494
0.000124699
8.84578e-05
5.35162e-05
-2.38854e-05
5.4933e-07
-0.000110615
-0.000123922
0.00106903
-0.000123535
0.00072117
0.000108303
-0.000934855
-0.000935625
0.000722017
-8.11222e-05
0.000326089
-6.31555e-05
-6.36104e-05
0.00045932
-5.22819e-05
0.0003264
-0.000350745
0.00114863
-0.000277827
0.00110464
8.99399e-05
-0.00134225
-0.00134001
0.000912598
-0.000110562
-2.38801e-05
-1.21995e-06
1.0539e-06
5.21249e-05
-0.0013451
-3.56222e-05
-0.00170163
1.12511e-05
-0.00246571
-4.54129e-06
-0.00319112
-4.06721e-05
0.00409693
-0.00365911
9.45078e-05
-0.00362167
-0.00359138
0.000188678
0.00282528
-0.00223622
-0.00223497
0.000124639
0.00170318
7.7136e-05
0.00277858
-0.00222215
0.00247799
-0.0018654
-2.1721e-05
0.00162638
4.58097e-05
-0.00134713
0.0014875
-2.38956e-06
0.00183243
-0.0014799
0.00136643
-0.00066569
-8.26826e-06
0.000595685
8.48444e-06
-0.000600619
5.76249e-07
0.000639666
0.000391781
-0.000200545
3.19604e-06
1.93503e-05
-3.09675e-05
2.31689e-05
0.000157186
0.000343269
0.000332959
-9.54375e-05
-0.000128251
-4.14824e-05
-0.000119162
-0.000157202
-0.000212004
-0.000205376
-0.000329771
-0.000285731
-0.000284294
-0.000211304
5.88861e-05
-0.000297615
-0.000300615
-0.000502501
-0.000742981
-6.19745e-05
-5.78054e-05
0.000334633
0.000334235
-0.00137384
-0.0116086
-0.00961882
-0.00336683
0.0212104
8.96159e-05
-0.0211919
0.000262259
-0.0116055
-0.00044283
-0.0003719
-0.00245973
0.000152374
0.000124279
6.0685e-05
3.40698e-05
1.97468e-05
8.3963e-06
2.83882e-05
-0.00214493
-5.70925e-05
-0.00291905
1.21434e-05
-0.00407587
-7.66256e-06
-0.00522831
-6.62881e-05
0.00650758
-0.00580253
0.000101593
-0.00561113
-0.00551609
0.000271786
0.00455219
0.00451489
-0.000282324
0.00326121
0.000320013
-0.00400848
-0.00400937
0.00326207
-0.000282203
0.00451399
-0.00011521
0.00048666
0.000272555
0.000127511
0.000213708
-8.108e-05
-0.000118326
-0.000350588
-0.00044782
-0.000331856
-0.000180687
-0.000278726
-0.000306844
-0.00042448
-0.000454459
-0.000184903
-0.000273986
-0.000237038
0.000138372
-0.000558361
-0.000618077
-0.000208087
-0.000112884
2.49227e-06
0.000127379
0.000271417
0.000190767
-2.00424e-05
-5.709e-06
-1.37194e-07
-0.000322893
0.000509824
-0.000587759
-0.000165729
0.000239768
0.000565943
0.000260257
-5.59806e-06
2.28209e-05
7.12792e-05
0.00168509
3.57235e-05
0.00229006
-7.32334e-05
-7.9878e-05
6.87479e-05
0.00281555
-0.00353042
-6.82206e-05
-0.00478916
9.57256e-06
0.00600331
-0.00647669
-1.49305e-05
-0.00817759
-0.000108616
0.00985709
-0.00879393
0.00712999
-0.000141588
7.94039e-05
-0.00749185
-1.74925e-07
0.00798415
-2.67248e-05
-1.16648e-05
-4.97586e-06
-1.59213e-06
3.64166e-06
5.91469e-06
4.61426e-06
-0.000120541
-0.000154419
-1.42656e-06
-1.35187e-06
-9.82775e-06
-2.16371e-05
0.0130435
1.08111e-05
5.90181e-07
-4.61365e-05
0.017498
8.95343e-05
-0.000338845
-0.000212191
-0.000140625
-9.4163e-05
-6.15959e-05
-3.69314e-05
-0.000127292
0.0016347
0.00119199
0.00119133
0.00163557
-0.00012726
-3.69253e-05
-6.16916e-05
-0.000192617
0.00277493
-9.43149e-05
-6.94999e-05
0.000105999
0.000265629
0.00047587
-0.000115066
-6.02222e-05
-7.93371e-05
-7.22337e-05
5.21191e-05
0.00378578
-0.000127543
-0.000188611
5.88533e-05
0.00457049
-0.00562514
-7.8986e-05
0.0071017
-0.00856848
-7.14478e-05
0.0105515
-0.0124394
1.17623e-05
-0.0158116
-4.59653e-05
0.0174967
-0.0172151
-0.000701516
0.0150689
-0.000354007
-0.000450343
-0.000101316
1.73958e-05
-0.000350031
-0.000198381
-0.000299835
-0.000605361
-0.000478722
-0.00106656
-0.0012768
-0.00241529
-0.00523131
0.00839143
-0.0093588
0.00445653
-0.0134063
-0.0158061
-0.00726702
0.00967412
-0.00151275
0.000610098
0.0134237
-9.88545e-05
0.0225138
-0.000193462
-0.000117026
-5.83837e-05
-6.31711e-05
-0.000125846
3.4127e-07
-3.81114e-05
-0.000158857
-9.9847e-06
-0.000212154
0.000115242
0.000146614
-0.000140632
-9.40838e-05
-0.000396774
0.00701879
0.00507826
0.000387774
-0.00584872
-0.00584966
0.00507935
-0.000396841
0.00701796
-0.000120284
3.99098e-06
0.0003053
-6.09227e-05
0.000145675
0.000202926
0.000609259
-7.39418e-05
0.010432
0.00754558
-0.00054734
-3.44215e-05
-0.000235533
0.00238151
-0.000130286
0.00691552
-0.00019028
7.57261e-05
0.000772608
0.00305548
0.0100211
-0.00424761
0.000191996
-0.0014928
-0.00917658
0.0227053
-0.0130761
0.00090639
-0.000182252
-0.000895967
0.00412135
0.000725845
0.00170214
0.00420749
5.27007e-05
-0.000771811
0.00170145
0.0125138
0.00855214
0.0216208
0.0120221
0.0175129
0.0193998
-0.000403437
0.00223807
0.00132595
0.000807589
-0.000120087
0.000784257
0.0012781
-7.34187e-05
-0.000547516
0.000203848
4.04176e-06
0.000244659
0.000151858
8.20748e-05
4.40886e-06
1.54059e-07
1.97607e-06
4.72335e-06
6.81361e-05
0.00511513
7.03729e-06
7.65579e-06
7.45213e-05
0.0130425
4.92818e-05
-0.000290686
-0.000194961
0.000384554
0.0006321
-4.98725e-06
-6.12149e-05
-0.000242447
-0.000327297
0.00141515
0.00460678
0.00289849
0.000739816
5.36486e-05
0.00215207
0.00130526
0.00309784
0.000609943
-0.00010236
0.00455548
-4.76021e-05
-8.77674e-05
-0.00015061
-6.1826e-05
3.60815e-05
0.0001464
0.00030904
-0.000338694
0.00129923
-0.00015767
-6.06782e-05
-6.66584e-06
0.00312735
-6.95484e-05
0.00170324
7.70949e-05
5.94329e-05
6.95587e-05
5.14149e-07
-0.00012519
8.67005e-05
6.93218e-05
-0.000232409
-3.86312e-05
2.19035e-07
0.000711327
0.000233484
-0.000522951
-0.000425594
0.000458329
-5.25042e-05
0.000184952
-0.000331397
7.89342e-05
0.00907889
-7.09742e-05
-0.000105445
0.00205811
-0.000189973
-0.00190026
7.84738e-05
0.000438018
-8.76811e-06
-0.000126876
-4.59454e-05
-0.00063914
-7.90935e-05
-2.93496e-05
-5.69972e-05
-7.79479e-06
-0.000322905
8.48334e-06
0.000392006
0.0132865
0.010346
0.000170395
-0.00129089
0.000169845
0.0187903
0.0216218
-0.000207839
-0.000118209
0.000105995
8.99727e-05
0.00110463
0.000911648
-0.00133937
-0.00134242
4.58132e-05
-0.00134681
0.00063942
0.000391954
-0.000237127
-0.000274086
-0.000200558
3.15156e-06
-6.06096e-08
-5.73859e-06
0.000190854
0.000271411
0.000239698
0.000566221
0.000713892
-0.000587727
0.000266951
0.000269591
0.000590805
9.74226e-05
0.000418849
0.000438026
0.000418857
0.000590795
0.000269601
0.000713945
0.000266949
-0.000587712
0.000509791
-0.000165692
0.000566124
0.000239747
0.000271476
0.000190809
-5.75561e-06
-1.99998e-05
0.000595703
-0.000600563
0.000639563
1.93307e-05
3.23855e-06
-0.000200603
-0.00027413
-0.000237059
-0.000558492
0.000138238
-0.000618052
-5.22879e-05
0.000326383
-0.000123586
0.00106901
-6.32087e-05
0.000326082
-5.25313e-05
-0.000617819
0.000138162
-0.000278012
0.00114829
-0.000350321
-0.000110607
0.000721896
0.000721178
0.000108225
-0.000935504
-0.000127299
0.00163488
0.000124737
0.00170323
-0.00222191
7.72133e-05
0.00277812
-0.00319099
0.00247783
-2.17287e-05
-0.00186528
0.00162596
4.35775e-05
6.21484e-05
7.19414e-05
5.74166e-05
-2.57919e-05
-0.000248985
-0.000430279
0.00412152
-0.00339892
0.0139432
-0.0102439
0.00171622
0.0127253
-0.000319908
-0.0132767
0.00967394
-0.00726691
-0.0158057
-0.0134058
-0.013076
-0.0135986
0.0227054
0.00438243
0.00305628
-7.64123e-06
-0.0077077
-0.0151506
-0.00703637
-0.0128869
-0.00703594
-0.0151514
-0.00770751
-0.0135991
0.0227053
-0.0134057
-0.0130763
-0.0158062
-0.00726696
0.0096739
-0.0132769
0.0204211
-0.0210176
0.013943
0.0017166
0.0127257
-0.0102439
0.00635188
0.0147544
0.0103454
0.00761403
0.0180183
0.00630241
0.00394992
0.0113279
-0.0115742
-0.0115739
0.00394993
0.00630192
0.0180181
0.00761398
0.010345
0.0132849
0.0147558
0.00635293
0.00821113
0.0069312
-0.00397313
0.0187896
0.0210639
0.0216198
0.0173445
0.0175122
0.0193995
0.0175126
-0.0323887
0.000725536
0.000726034
-0.00919673
0.0173443
0.0216198
0.021064
0.0187904
0.00693082
0.00821105
0.00626822
-0.000533452
-0.000281432
-0.000115633
-0.0068827
-0.00893427
-0.00852977
-0.019819
-0.0236358
0.00445711
-0.00935889
0.0212101
-0.0172144
0.0150689
-0.0124394
0.0105508
-0.00856839
0.00710127
-0.00562526
0.00457053
-0.00353009
0.0028156
-0.00214496
0.00168509
-0.00134512
0.00136639
-0.00147977
0.00148743
-0.00134699
0.00110455
8.98509e-05
0.00091246
-0.000350735
0.00114861
-0.000277877
0.000391788
-7.84402e-05
4.35904e-05
6.22403e-05
7.18887e-05
5.71544e-05
-2.6066e-05
-0.000249325
-0.000430584
0.00412131
-0.00339885
-0.00131238
0.00217944
0.000631925
-0.0081442
-0.00814427
0.00217945
-0.00131228
0.000632053
-0.00363077
-0.0210179
0.0204212
-0.00151257
-0.0163699
0.00156648
-0.000921379
0.00205814
-0.000319855
-0.000371939
-0.00245985
-0.00123029
-0.0024598
0.0015662
0.00438234
0.0100205
0.00305641
-0.00251631
-0.00251616
0.0100206
0.000523052
-0.00633668
0.00691537
0.00691529
-0.000190206
-0.00633665
0.000191963
0.00158477
0.00196345
0.000906461
-0.00917696
0.000906878
0.00027413
0.0136322
-0.00341184
0.0043424
-0.0074452
-0.00937086
-0.0201657
-0.0147649
0.0312692
-0.0168689
0.0210296
0.0210305
0.000498938
0.0164325
-0.000326499
-0.0132783
0.0114373
-0.000165002
-0.00952269
0.00783972
-5.24327e-05
-0.00645472
0.00515156
3.65241e-06
-0.00415953
0.00322846
2.91849e-05
-0.00257518
0.00193873
3.59233e-05
-0.00159696
0.00113446
4.7918e-05
-0.00119685
-0.000168957
-0.00115211
-0.00115211
9.74039e-05
-0.000220455
7.2149e-05
-0.0003274
-1.2976e-05
0.000205842
0.000205811
-0.000245542
-1.71018e-06
0.000249776
0.000249767
-0.000181054
3.58783e-05
0.000409103
0.000408906
-8.64905e-05
0.000105078
-0.000197623
-0.00019812
-0.000331838
-0.000180698
-0.000278779
-0.0003069
-0.000454493
-0.000184943
0.000330531
-0.000498612
7.01407e-05
0.000233467
0.000711314
-0.000424627
-0.000232436
-3.86445e-05
-0.000409476
1.94055e-06
0.000411184
-0.00066419
1.7893e-07
7.84797e-05
0.000664408
-6.30027e-05
6.30467e-06
6.83606e-05
1.07394e-06
8.37408e-06
1.97115e-05
3.41146e-05
6.0638e-05
0.000124433
0.000152374
8.96097e-05
-0.0211924
0.0225138
-0.0232684
0.0204184
-0.017236
0.015111
-0.0126951
0.010641
-0.00879316
0.00712894
-0.00580205
0.00455488
-0.00365887
0.00277837
-0.00222204
0.00162629
4.57304e-05
-0.00134222
-0.00133985
-0.000935041
0.00119138
0.000154359
0.0011918
-0.00161019
-0.00223461
-0.00223632
0.00282528
0.00277429
0.000188591
-0.00362178
9.47284e-05
-0.00365902
-4.0584e-05
0.00409669
-0.00407566
-7.65458e-06
0.00511481
-0.00478856
0.00378566
1.22474e-05
0.00312716
-4.49585e-06
-0.00246553
0.00183231
-2.38873e-06
0.00148741
5.60527e-07
-0.000600566
1.94228e-05
-6.29847e-05
0.000330537
-0.000184967
-0.000454462
-0.000306852
-0.000278657
-0.000180731
-0.000331357
0.000184923
-8.65112e-05
1.90606e-05
-0.000522853
0.000233312
5.2941e-06
7.01514e-05
0.000711365
-0.000498538
0.0006644
7.84927e-05
-1.58111e-05
-0.000181038
3.55693e-05
5.35327e-05
8.8484e-05
0.000124672
0.000146624
0.000115243
-3.41872e-05
-0.000235397
0.0023815
-0.00263179
-0.00603098
-0.00449052
-0.00190022
0.00100273
-0.000182443
-0.00031943
-0.00149279
-0.0163697
-0.000921263
0.00205801
-0.00018996
7.56207e-05
0.000262181
-0.0116059
0.0108414
-0.0139943
0.00426313
-0.0342565
0.00419499
-0.0144053
-0.000270416
0.014703
0.0145247
-0.0170516
-0.000254226
0.00141494
0.00460737
-0.000242842
-0.00523022
-0.00961209
-0.0116076
-0.00137156
-0.00242
-0.0033662
-0.00127668
-0.000478546
-0.00106374
-0.00074422
-0.000504168
-0.00060484
-0.000101051
-0.00045069
4.93104e-05
0.017497
-0.0191114
0.0168455
-0.0173787
-0.000359607
0.0189799
-0.000105797
-0.000193371
-0.00037205
-0.000320076
-0.00363083
-3.25385e-05
-0.000564988
0.000192328
-0.00424705
-7.56331e-06
0.00701777
-0.002865
-0.0112622
-0.00141342
0.00130163
8.21805e-05
-0.000783348
-0.000908979
-0.000746178
-0.000551036
-0.000402249
-0.000295321
-0.000184156
2.32719e-05
0.00033292
0.000332936
0.000343252
-4.1477e-05
-0.000119323
-0.000205783
-0.000330722
-0.000349325
1.75999e-05
-0.000299339
-0.00019853
-0.000127597
-0.00018794
5.90928e-05
6.81532e-05
0.00600316
-0.00647668
0.0051147
-0.00522793
-6.63242e-05
0.00650751
-0.00817699
-0.0001084
0.00985692
-0.0122122
-0.000189012
0.0141635
-5.78972e-05
-0.0141716
0.0118875
-2.20003e-05
0.013043
-0.015812
-4.61784e-05
5.73798e-07
-0.000116877
-5.83429e-05
-2.95041e-05
-0.00982612
0.00798356
1.07295e-07
0.00907849
-0.0111666
-7.12786e-05
7.48388e-05
-4.75748e-06
-6.12481e-05
-9.92653e-05
0.0134238
0.000610361
-0.00151261
0.00839091
-0.00032678
-0.000538194
0.00289788
0.00855004
0.0125133
0.00404865
0.0031047
0.000740354
-0.000291699
0.000632384
0.000384948
7.7001e-06
7.30702e-06
4.7208e-06
2.05901e-06
-7.32892e-05
-7.88741e-05
6.89442e-05
5.21288e-05
0.00378568
-0.00407575
0.00312726
-0.00319111
-4.07397e-05
0.0040968
-7.82086e-06
-1.16542e-05
-2.66956e-05
-1.49394e-05
4.64938e-06
9.59686e-06
-0.00478892
-6.84003e-05
-0.000120545
0.00515139
-6.04822e-05
-0.00645543
-5.27797e-05
0.00783974
-0.000156601
-0.00952307
-0.000165397
0.0114367
-0.000353012
-0.013278
-0.000327635
0.0164323
-0.000701848
-0.017098
-0.000946965
0.0265585
0.017686
-0.0035594
0.000772527
0.000772444
0.026559
-0.000946854
-0.017098
-0.00355928
-0.0168682
0.00434274
0.0312688
-0.00227244
-0.0147645
-0.0201645
-0.00937043
-0.0236368
-0.00744508
-0.0028648
0.0070178
-0.00424721
0.000907229
0.00196399
-0.00917686
0.000906653
-0.00149294
-0.000565401
-0.000896019
-0.000341116
-0.00013036
-0.000226206
0.000175007
-0.000558024
0.000498941
-0.0159931
0.0148768
-0.0123522
0.0104118
0.0104115
-1.45999e-06
-0.00873964
8.70878e-07
0.00699879
-8.9141e-06
-0.00580813
5.92267e-05
0.00447994
-9.0031e-06
-0.00367722
9.49445e-05
0.00271989
-1.44969e-05
-0.00226388
0.000141969
0.00156644
-3.49097e-05
-0.00145052
0.000242164
0.000818003
0.000103657
0.000817946
-0.000168974
-0.00119692
4.78961e-05
0.00113445
5.21673e-05
-0.00159696
3.59542e-05
0.00193868
2.84838e-05
-0.00257525
2.91132e-05
0.0032283
-6.59014e-06
-0.00415956
3.45331e-06
5.9115e-05
0.00447987
-4.57354e-05
-0.00367696
0.00271977
-0.0022638
0.00156644
8.87195e-05
-0.00145051
0.000242065
-6.61944e-05
-6.23111e-05
0.000141972
-0.000128464
-0.000157288
-0.000212233
-0.000285947
-0.000299794
-5.93657e-05
0.000334794
0.000335169
-0.011262
-0.0116074
-0.00137144
-6.03099e-05
-0.0159923
-0.000864032
0.0148767
7.33981e-05
-0.0123521
-0.000185584
-0.00015886
-0.000534488
7.30571e-05
-0.000638743
-0.000447442
-1.65143e-06
-0.00873944
0.00699903
-0.00580834
-9.1039e-06
-0.000343993
-0.00012615
-0.000241561
-9.10047e-06
-0.000151447
-1.45369e-05
2.73735e-05
-8.12526e-05
-3.49038e-05
3.76824e-05
-0.000390738
7.21638e-05
-0.00022043
0.000410296
0.0001615
0.000161474
0.00041031
0.000191203
-3.88393e-05
0.000340962
-0.000707318
-4.62583e-05
1.306e-05
0.000511171
4.66009e-05
-0.00033657
0.000180828
0.000464766
0.000327125
0.000418816
0.000235961
-5.2609e-05
-5.65618e-05
-5.34615e-05
-1.63088e-05
0.000324491
-5.34825e-05
0.000191205
0.000341011
-3.88508e-05
-0.000131767
-4.61901e-05
0.000511194
1.30451e-05
-7.41294e-05
1.50487e-07
-0.000664209
0.000411202
1.90092e-06
-0.000409477
-3.86362e-05
1.33137e-06
-5.65103e-05
-4.288e-05
0.000125697
-0.000131791
-9.41668e-05
-4.12431e-06
3.58689e-05
1.35069e-06
2.21587e-07
1.64095e-06
-4.13702e-06
0.000125715
-0.000327417
-9.40728e-05
-6.62159e-05
2.5854e-06
9.48222e-06
1.47609e-05
1.90049e-05
2.83223e-05
6.60726e-05
-3.83287e-05
-0.000862992
-3.83267e-05
0.000152181
-0.000701471
0.0212105
8.93609e-05
0.0174977
-4.59096e-05
0.016846
-5.8275e-05
0.0141648
-0.000189261
-0.0122119
0.0106417
6.95357e-05
0.00702321
0.00701828
0.000344202
-0.00830028
0.0103483
0.0104327
0.000292782
-0.0118144
-7.94974e-05
-0.0126968
0.0151111
-0.0173789
0.0189796
-0.000359042
-0.0172371
-0.000253707
0.0145237
0.0147036
-0.000270956
-0.0170511
0.0204193
-0.0232685
-0.00010555
-0.0191115
0.0225139
-0.0211923
0.0134242
0.000262239
-0.0116058
-0.000442814
0.0108416
-0.000771227
-0.0139947
-0.0102705
0.00426308
0.00419582
-0.0342573
0.012514
0.0120213
0.00170128
-0.000403517
-0.0108001
-0.000400488
0.0105628
0.0105643
-0.000770545
-0.0112033
0.000292938
0.0104315
0.0103497
-0.0118143
-8.03581e-05
-0.00830031
0.000344564
0.00701789
0.00702376
6.92456e-05
-0.00561143
0.000271737
0.00451384
0.00455249
0.000101742
0.000244913
0.000152093
8.20878e-05
4.38954e-06
9.83162e-08
-5.63463e-06
2.21456e-05
7.13529e-05
3.57254e-05
0.00229
-0.00246556
0.00183249
-0.00186543
-2.16388e-05
0.00247796
-4.58641e-06
-4.99678e-06
-1.59308e-06
-2.45039e-06
-1.22007e-06
-8.29112e-06
-0.000665667
-0.000322871
0.00012739
0.000260403
0.000157068
2.32294e-05
2.50752e-06
-1.56815e-07
8.48927e-06
-3.10271e-05
-4.75977e-05
-7.22434e-05
-0.000102454
-0.000141999
-0.000195506
0.000204626
0.00130216
0.00215131
0.00127751
0.000614215
4.53507e-06
-0.000120204
-7.36767e-05
-0.00805901
-0.00584995
0.000387434
0.00507788
0.00507897
-0.00039687
-0.00400964
0.000320447
0.00326111
0.00326178
-0.000282298
-0.00359069
0.000188881
0.00277435
0.00282553
-0.0036219
9.47222e-05
-5.9829e-05
0.000311564
0.000783804
0.000475625
0.000146476
-7.96251e-05
-9.44255e-05
-0.0022347
0.000124698
0.00163518
0.00170332
-0.00223615
7.71093e-05
-8.78659e-05
3.58167e-05
0.000265536
0.00010602
-6.24145e-05
-0.000150751
-0.000112949
-0.000208349
-0.00011828
-0.000350602
-0.000447789
-0.000400092
-0.000346801
-0.000416269
-0.000445417
-0.000350954
0.000458307
-0.000430881
0.000213711
0.000127528
-6.94384e-05
-0.000127314
-3.68874e-05
3.63029e-06
1.1202e-05
-0.00170166
-3.56545e-05
5.89321e-06
1.22619e-05
-0.00291904
-5.69963e-05
-8.64164e-05
9.50027e-05
-8.63724e-05
-0.000120565
-0.000154499
6.05615e-05
0.000124385
-0.000353564
0.0150692
1.089e-05
0.0130436
-2.174e-05
0.0118875
-2.97324e-05
0.00985754
-0.000108736
-0.0081771
0.00712948
0.000101978
0.00455212
0.00451427
0.000271491
-0.0056109
-0.00551622
-0.000397065
-0.00400864
-0.000120456
0.0013249
0.00223618
0.00420623
5.22675e-05
5.23409e-05
0.00170104
-0.000403394
-0.014407
-0.0107984
-0.000299542
7.56419e-05
4.39227e-07
-0.000193427
-0.000117052
-0.000125855
-9.94045e-06
-0.000158742
-0.000185715
-0.000154508
9.99175e-07
-1.35405e-06
-6.31259e-05
-2.96646e-05
-1.33847e-05
-6.38831e-06
-2.39864e-06
3.07451e-06
4.87057e-05
6.83821e-05
1.06728e-06
8.42678e-06
1.96996e-05
3.40266e-05
-6.00364e-05
0.00710092
-7.89573e-05
0.00600352
9.67601e-06
-0.00647673
-1.4963e-05
0.00650744
-6.63545e-05
-0.00522794
0.00455499
-0.00580241
-0.000102713
6.78371e-05
5.93582e-05
-0.00033079
-0.000504136
-0.000742993
-0.000297649
-0.00028462
-0.000211268
-0.000156529
-0.000206028
-0.000119418
-0.000127921
-9.53699e-05
-4.1348e-05
0.000343299
0.000260706
0.000157261
-0.00134505
-3.56279e-05
0.00136637
-8.25651e-06
0.000595684
8.47872e-06
6.31126e-06
-1.60501e-06
-4.99824e-06
-1.1659e-05
-2.68118e-05
-5.82374e-05
-9.8322e-06
-1.415e-06
-1.01517e-07
-0.00749115
0.00798354
-0.00982645
0.00907929
-0.00856859
-7.14679e-05
0.0105507
-0.000156784
-0.0124395
-0.000100076
-0.000449879
-0.0172147
-0.00336515
-0.00935929
0.00839159
-0.00853164
-0.0198174
0.00445736
-0.00960995
-0.00522956
-0.00893377
-0.00688226
0.000610464
-0.000116626
-0.000273556
-0.000535353
-0.000538631
0.00626797
0.00460678
-0.000242217
-9.88765e-05
-0.00127783
-0.00241851
-0.000477898
-0.00106708
-0.000298719
-0.000606549
1.82401e-05
7.90286e-05
7.40997e-05
-0.0111664
-0.014172
4.90544e-05
-0.0158116
-6.08198e-05
-3.94048e-06
8.00559e-06
7.6124e-06
-0.000197964
-0.000350514