/*--------------------------------*- C++ -*----------------------------------*\
| =========                 |                                                 |
| \\      /  F ield         | OpenFOAM: The Open Source CFD Toolbox           |
|  \\    /   O peration     | Version:  2306                                  |
|   \\  /    A nd           | Website:  www.openfoam.com                      |
|    \\/     M anipulation  |                                                 |
\*---------------------------------------------------------------------------*/
FoamFile
{
    version     2.0;
    format      ascii;
    arch        "LSB;label=32;scalar=64";
    class       volScalarField;
    location    "1.7";
    object      gradTz;
}
// * * * * * * * * * * * * * * * * * * * * * * * * * * * * * * * * * * * * * //

dimensions      [0 -1 0 1 0 0 0];

internalField   nonuniform List<scalar> 
2658
(
-0.0737569
-0.0709908
-0.0512511
-0.0464953
-0.0582134
-0.0595853
-0.0528601
-0.0510325
-0.046456
-0.0594091
-0.0601431
-0.0483489
-0.0651764
-0.0611285
-0.0630056
-0.0647678
-0.0624848
-0.0646209
-0.0629295
-0.0603205
-0.0640947
-0.057735
-0.0659224
-0.0500054
-0.0784782
-0.0639872
-0.0573214
-0.0672901
-0.0688648
-0.0568705
-0.0688642
-0.0573214
-0.0639867
-0.0659217
-0.0784782
-0.0500047
-0.0637557
-0.0902122
-0.0577343
-0.0640963
-0.0603213
-0.0629296
-0.0646202
-0.0929583
-0.0582577
-0.0576109
-0.0601434
-0.0928872
-0.0647687
-0.063006
-0.0611279
-0.0651769
-0.0583593
-0.0935392
-0.0652341
-0.0630931
-0.0928926
-0.0578777
-0.050434
-0.0646879
-0.0928936
-0.0630939
-0.0652347
-0.0935394
-0.0596779
-0.0484455
-0.0599855
-0.0535743
-0.0589274
-0.0589261
-0.0471818
-0.0518321
-0.0396858
-0.0450599
-0.0341749
-0.0445795
-0.0449316
-0.0341281
-0.038401
-0.0376415
-0.044933
-0.0396682
-0.0515666
-0.0530294
-0.043777
-0.032028
-0.0224725
-0.0150225
-0.00957233
-0.00585014
-0.00351977
-0.0029549
-0.00241815
-0.00201704
-0.0021326
-0.00234681
-0.00209211
-0.00314633
-0.00209331
-0.00212145
-0.00316272
-0.00214825
-0.00235783
-0.0025802
-0.00218513
-0.00241218
-0.0017375
-0.00303908
-0.00187935
-0.00279299
-0.00258596
-0.0021169
-0.00289458
-0.00211682
-0.00258597
-0.00279301
-0.00218519
-0.00241219
-0.00235784
-0.00258022
-0.00214818
-0.00316256
-0.00212143
-0.0020933
-0.00210348
-0.00211351
-0.00201698
-0.0023469
-0.00209211
-0.00213266
-0.00315646
-0.00212629
-0.0025471
-0.00211146
-0.0027654
-0.00198266
-0.00192976
-0.00232617
-0.00199335
-0.00199342
-0.00192969
-0.00198266
-0.00217676
-0.00229405
-0.0028798
-0.00229298
-0.00269444
-0.00263732
-0.00185185
-0.00186104
-0.00175301
-0.00249705
-0.00247879
-0.00156306
-0.00212433
-0.00201578
-0.00182953
-0.0020053
-0.0018775
-0.00196752
-0.0020278
-0.00192045
-0.00202902
-0.00196611
-0.00186642
-0.00199411
-0.00182349
-0.0020931
-0.00318738
-0.00284138
-0.00400403
-0.00532755
-0.00692279
-0.00891348
-0.0114737
-0.0145173
-0.0182494
-0.0225959
-0.0276717
-0.0335016
-0.0399512
-0.0472279
-0.0549794
-0.061704
-0.0597188
-0.0586083
-0.0591829
-0.0594083
-0.0582128
-0.0464946
-0.059586
-0.0599847
-0.0484456
-0.059678
-0.048349
-0.0786793
-0.0437769
-0.0320279
-0.0224725
-0.0150224
-0.00957225
-0.00585003
-0.00351971
-0.00295492
-0.00241816
-0.00166469
-0.00180917
-0.00295788
-0.00185867
-0.00185868
-0.00180919
-0.00166468
-0.0029579
-0.00172226
-0.00211348
-0.00210348
-0.00234168
-0.00203075
-0.00242228
-0.00167562
-0.00171789
-0.00247317
-0.00295763
-0.00295063
-0.0030297
-0.0029506
-0.00242227
-0.00173747
-0.00188127
-0.00303909
-0.00199503
-0.00199503
-0.00188126
-0.00254771
-0.00183172
-0.00184779
-0.00184777
-0.00295387
-0.00183171
-0.00235866
-0.00220191
-0.00216023
-0.00200161
-0.00227821
-0.0021699
-0.00226142
-0.00317856
-0.00273314
-0.00200152
-0.00277199
-0.0020076
-0.00172907
-0.00211894
-0.0023378
-0.00362508
-0.004249
-0.00424899
-0.00313785
-0.00562011
-0.00401795
-0.00724102
-0.00940017
-0.00667901
-0.0119593
-0.0152351
-0.0107386
-0.0190224
-0.0236258
-0.0164928
-0.0288696
-0.0349067
-0.0241356
-0.0417343
-0.0491196
-0.0336314
-0.0571381
-0.066795
-0.0462335
-0.0714781
-0.0495062
-0.0635667
-0.0635665
-0.0672891
-0.0677334
-0.060605
-0.0561665
-0.0809266
-0.0536978
-0.0536982
-0.054125
-0.0810339
-0.0548272
-0.0548274
-0.0520886
-0.0799551
-0.0663866
-0.0663864
-0.0767977
-0.108859
-0.076798
-0.0780394
-0.107608
-0.0777847
-0.0904231
-0.0782055
-0.0764124
-0.063203
-0.0737192
-0.0861397
-0.0801829
-0.0520886
-0.0497536
-0.0789399
-0.0634725
-0.0780673
-0.107612
-0.0778347
-0.0863334
-0.0787186
-0.0795492
-0.0787182
-0.0789399
-0.0632028
-0.0764127
-0.0777826
-0.107609
-0.0780387
-0.0737201
-0.0861398
-0.0863334
-0.0778379
-0.10761
-0.0780683
-0.0634723
-0.0736505
-0.0773058
-0.10894
-0.0769002
-0.066598
-0.0800685
-0.0520598
-0.0664539
-0.075275
-0.0761616
-0.0463998
-0.0340731
-0.0239573
-0.0160365
-0.0102293
-0.00625532
-0.00376408
-0.00368615
-0.00390754
-0.00386212
-0.00387209
-0.00389581
-0.00506758
-0.00661929
-0.00846755
-0.0109747
-0.013806
-0.0174729
-0.0215089
-0.0265362
-0.0319045
-0.0384011
-0.0449307
-0.0530299
-0.0464552
-0.0510326
-0.0528595
-0.0518333
-0.0448656
-0.03487
-0.044866
-0.0377914
-0.038321
-0.0372279
-0.0313272
-0.0319806
-0.0238794
-0.0258334
-0.0238405
-0.0319053
-0.0286039
-0.0318091
-0.0316773
-0.0243356
-0.0262627
-0.0262403
-0.0318447
-0.0286198
-0.0379219
-0.0347496
-0.0445848
-0.0521314
-0.0470621
-0.0591828
-0.0536259
-0.0576113
-0.0928874
-0.0736508
-0.0664533
-0.0520596
-0.0763051
-0.0566536
-0.0487972
-0.0457948
-0.0337186
-0.023705
-0.0158626
-0.0101136
-0.00618291
-0.00372171
-0.00295763
-0.00247315
-0.00171789
-0.00295384
-0.00167559
-0.00203075
-0.00234168
-0.00339901
-0.00271835
-0.00270733
-0.00269469
-0.00274076
-0.00254578
-0.00190859
-0.00290207
-0.0039091
-0.00367508
-0.00516984
-0.00485504
-0.00379238
-0.00362689
-0.00390361
-0.00275541
-0.00276817
-0.00275186
-0.00264547
-0.00263987
-0.00397554
-0.00395975
-0.00307625
-0.00391596
-0.00655353
-0.00665664
-0.00658943
-0.0107687
-0.0109903
-0.00863283
-0.00514568
-0.0049932
-0.00501997
-0.00504405
-0.00655856
-0.00655596
-0.00472568
-0.00502244
-0.00371834
-0.00392267
-0.00655373
-0.0108531
-0.010841
-0.0171308
-0.0173564
-0.0168934
-0.0252805
-0.0261106
-0.0214443
-0.0139332
-0.0135544
-0.0137414
-0.013721
-0.0173116
-0.017251
-0.0127094
-0.0137204
-0.0108524
-0.00789087
-0.00840464
-0.00623556
-0.00842017
-0.0108773
-0.00790877
-0.00841445
-0.00660479
-0.00473598
-0.00529283
-0.00507443
-0.0056201
-0.00306605
-0.00442629
-0.00250677
-0.00329139
-0.00185431
-0.00252717
-0.00302132
-0.00311961
-0.00293681
-0.00302665
-0.0030244
-0.00338752
-0.0031514
-0.00263931
-0.00268755
-0.00398802
-0.00388223
-0.00521941
-0.00498518
-0.00652318
-0.0107977
-0.017088
-0.0171742
-0.025847
-0.0257501
-0.0368774
-0.037481
-0.0360623
-0.0489174
-0.051726
-0.0439254
-0.0314482
-0.0307766
-0.0318439
-0.0316766
-0.0379219
-0.0376411
-0.0286041
-0.0318087
-0.0261335
-0.0195407
-0.0214012
-0.0162092
-0.0213657
-0.0262626
-0.0195643
-0.021431
-0.0173356
-0.0127328
-0.0141105
-0.00879834
-0.00841199
-0.00940004
-0.00516297
-0.00724083
-0.00401793
-0.00409299
-0.00707262
-0.00912993
-0.0116388
-0.0116386
-0.00846533
-0.0147459
-0.010921
-0.018457
-0.0132835
-0.0228466
-0.0167528
-0.0279432
-0.0198904
-0.0337363
-0.0244624
-0.040321
-0.0283833
-0.0473387
-0.0339591
-0.0556016
-0.0385618
-0.0620732
-0.0452184
-0.0744504
-0.0603638
-0.0744505
-0.0495062
-0.0714769
-0.0462331
-0.066795
-0.0385358
-0.0571372
-0.0336311
-0.0491193
-0.0285427
-0.0417338
-0.0241357
-0.0349068
-0.02001
-0.0288694
-0.0164925
-0.0236259
-0.0133489
-0.0190219
-0.0107384
-0.0152352
-0.00848382
-0.0119589
-0.00667891
-0.00679805
-0.00867914
-0.00531314
-0.00332839
-0.00249422
-0.00235115
-0.0027698
-0.00413996
-0.00666217
-0.0107415
-0.0167508
-0.0249688
-0.0354557
-0.0478029
-0.0593225
-0.0682813
-0.0672082
-0.0672082
-0.0623079
-0.0728109
-0.0579095
-0.0507149
-0.0705279
-0.0493565
-0.0587143
-0.0536458
-0.055002
-0.0534301
-0.0452182
-0.0620724
-0.0385613
-0.0556016
-0.0452448
-0.0466014
-0.0341863
-0.0283827
-0.0403213
-0.0473375
-0.0339596
-0.0416522
-0.030044
-0.0244623
-0.0337355
-0.0198902
-0.0279438
-0.0232184
-0.0240254
-0.0160911
-0.0102813
-0.00846522
-0.0147454
-0.0184575
-0.022846
-0.0167524
-0.0206161
-0.0134738
-0.0108091
-0.0066181
-0.0040088
-0.00383679
-0.00313787
-0.00555804
-0.00372682
-0.00555806
-0.00409298
-0.00707259
-0.00518618
-0.00913029
-0.0067981
-0.00841203
-0.00631182
-0.00518604
-0.0060837
-0.00507442
-0.00302133
-0.00329138
-0.00250681
-0.0044264
-0.00252724
-0.00362509
-0.00200149
-0.00233779
-0.00255411
-0.00211898
-0.00172907
-0.00200758
-0.00209309
-0.00277205
-0.00216108
-0.00202511
-0.00238048
-0.00216987
-0.00216017
-0.00227823
-0.00200142
-0.00233892
-0.0021843
-0.00224229
-0.00218428
-0.00200384
-0.00314627
-0.00233896
-0.00235869
-0.00238049
-0.00187934
-0.00202511
-0.00216107
-0.00236145
-0.00215038
-0.00199684
-0.00234506
-0.00227817
-0.00216616
-0.00232567
-0.00178995
-0.00239316
-0.00238981
-0.0032493
-0.00219085
-0.00252897
-0.00297288
-0.00300708
-0.00257718
-0.00400391
-0.00661024
-0.010801
-0.0169269
-0.0169362
-0.0252927
-0.0359569
-0.0488872
-0.0733595
-0.0676136
-0.102127
-0.0606047
-0.0677347
-0.0931616
-0.0776737
-0.0776718
-0.093162
-0.0988534
-0.0600686
-0.0793724
-0.0778592
-0.0794156
-0.0505967
-0.0645624
-0.0729556
-0.0786468
-0.108024
-0.0788434
-0.0914503
-0.0759502
-0.0851379
-0.0780045
-0.0802411
-0.0805143
-0.086246
-0.103256
-0.0805168
-0.0988536
-0.0793738
-0.0600678
-0.0531636
-0.0794152
-0.0645617
-0.0505964
-0.0513895
-0.0800686
-0.0665992
-0.076899
-0.108938
-0.0773067
-0.085986
-0.0798865
-0.0802411
-0.0811013
-0.0813296
-0.0531632
-0.0792024
-0.079118
-0.0854057
-0.0798881
-0.0777704
-0.0859859
-0.0769028
-0.0801831
-0.0497537
-0.076305
-0.0566536
-0.0536258
-0.0570366
-0.0508902
-0.0370459
-0.0431908
-0.044996
-0.0445839
-0.0521322
-0.0515659
-0.0396683
-0.0449327
-0.0347488
-0.0433214
-0.0369851
-0.0257435
-0.0308303
-0.0209268
-0.013545
-0.00836336
-0.00837531
-0.0109185
-0.0101971
-0.0087652
-0.0081725
-0.00612692
-0.00853767
-0.010959
-0.0100768
-0.0138572
-0.0133874
-0.01074
-0.0100459
-0.0170558
-0.0158898
-0.0215598
-0.0209645
-0.0158579
-0.0258332
-0.0238791
-0.0319808
-0.031327
-0.0238405
-0.0372277
-0.0341747
-0.0450604
-0.0445792
-0.0341283
-0.0453407
-0.0510114
-0.0709595
-0.0705834
-0.0624863
-0.0568656
-0.0506782
-0.060482
-0.0514775
-0.051251
-0.0372341
-0.0259418
-0.0172396
-0.0109245
-0.00664068
-0.00652026
-0.00842055
-0.00789927
-0.00845886
-0.00630368
-0.00845926
-0.0108872
-0.0103365
-0.0137587
-0.0137582
-0.0108875
-0.0100761
-0.00617074
-0.00374213
-0.00319421
-0.00292591
-0.00296858
-0.00281672
-0.00233146
-0.00281697
-0.00400415
-0.00381085
-0.00509525
-0.00509481
-0.00400447
-0.00319567
-0.003755
-0.00233844
-0.00233828
-0.00198162
-0.00218711
-0.00375511
-0.00290216
-0.00190845
-0.0025458
-0.00379233
-0.00367523
-0.00485539
-0.00516961
-0.00390939
-0.00296862
-0.00319422
-0.00311962
-0.00376411
-0.00306606
-0.00400403
-0.00368614
-0.00502002
-0.00473596
-0.00655856
-0.00623575
-0.00840484
-0.00789105
-0.0108525
-0.0109748
-0.0100463
-0.013388
-0.0138572
-0.0100773
-0.01074
-0.00817298
-0.00853749
-0.00612719
-0.00650246
-0.00609232
-0.00846778
-0.0066193
-0.00655597
-0.00502252
-0.00472581
-0.00506774
-0.00362704
-0.00389584
-0.00387209
-0.00371835
-0.00504412
-0.00386215
-0.00390756
-0.00271835
-0.00293679
-0.0027073
-0.0018337
-0.00269475
-0.00292587
-0.0027407
-0.00171029
-0.00196752
-0.0020278
-0.00338754
-0.00302447
-0.00302667
-0.00307634
-0.00263991
-0.00249426
-0.00332844
-0.00531319
-0.00397547
-0.0065898
-0.00867927
-0.0138307
-0.0107692
-0.0168942
-0.021116
-0.0211157
-0.0138304
-0.0109208
-0.0307216
-0.0307219
-0.0252812
-0.0360625
-0.0424934
-0.0424922
-0.0548922
-0.0548929
-0.0489172
-0.0623085
-0.0728186
-0.0579094
-0.0617061
-0.0467586
-0.0597186
-0.0536459
-0.0582577
-0.0506781
-0.0752752
-0.0761617
-0.0464
-0.0340733
-0.0239574
-0.0160367
-0.0102294
-0.00625536
-0.00516303
-0.00692284
-0.00619133
-0.00841453
-0.00790901
-0.0108773
-0.0102771
-0.0137207
-0.0127094
-0.0172513
-0.0174729
-0.0158583
-0.0209649
-0.0215595
-0.0158901
-0.0170557
-0.017453
-0.012717
-0.0172944
-0.0162729
-0.0214268
-0.0214267
-0.0172946
-0.0127171
-0.0174525
-0.013582
-0.0109979
-0.00671445
-0.00409201
-0.00274804
-0.00319598
-0.00268708
-0.00212294
-0.00156447
-0.00253009
-0.00276511
-0.00211178
-0.00254726
-0.00238971
-0.00212633
-0.00315641
-0.00187737
-0.00200524
-0.00324913
-0.00182949
-0.00201575
-0.002639
-0.00275535
-0.00276806
-0.0027518
-0.0018664
-0.00196613
-0.00339899
-0.00202902
-0.00192055
-0.00175451
-0.00284139
-0.00185433
-0.00318738
-0.00199413
-0.0018234
-0.00264525
-0.00391599
-0.00395979
-0.00514588
-0.00532765
-0.00499337
-0.00660492
-0.00655375
-0.00665722
-0.008633
-0.0089138
-0.0114738
-0.0101971
-0.0137417
-0.0127328
-0.0173359
-0.0173118
-0.0162096
-0.0214016
-0.0195403
-0.026134
-0.0265362
-0.0215094
-0.020927
-0.02092
-0.0214314
-0.0195646
-0.0213662
-0.0158627
-0.0101137
-0.00618298
-0.00372174
-0.00529285
-0.00879837
-0.0141106
-0.0134738
-0.0206161
-0.0216053
-0.0216052
-0.0314887
-0.0286191
-0.0377751
-0.0344404
-0.0435726
-0.0396643
-0.0517808
-0.0467581
-0.0448483
-0.0324021
-0.0222133
-0.0144959
-0.00903211
-0.0054295
-0.0047424
-0.0066056
-0.00660521
-0.00660487
-0.00660611
-0.00474234
-0.00542953
-0.00903215
-0.00789937
-0.0109594
-0.00842092
-0.00507909
-0.00398808
-0.00664078
-0.0109249
-0.0135822
-0.0141866
-0.00876547
-0.00836372
-0.00837559
-0.0109186
-0.0108411
-0.0109909
-0.0139337
-0.0145178
-0.0182495
-0.0160723
-0.0225965
-0.0276716
-0.0241186
-0.0335028
-0.0399515
-0.0344414
-0.0449968
-0.0396643
-0.0517813
-0.0549796
-0.0385362
-0.0472287
-0.0285429
-0.0439264
-0.0314486
-0.0214447
-0.0173577
-0.0171314
-0.0257512
-0.0261132
-0.0368791
-0.0374843
-0.0507168
-0.051724
-0.0705309
-0.0493566
-0.0637554
-0.0902133
-0.0759502
-0.0788427
-0.108023
-0.0786473
-0.0729558
-0.092959
-0.0587154
-0.0568661
-0.0586094
-0.0457948
-0.0337188
-0.0237051
-0.0252786
-0.0359221
-0.0435727
-0.0416522
-0.030044
-0.0314888
-0.0324022
-0.0236083
-0.0157973
-0.0222134
-0.014496
-0.0195524
-0.0265001
-0.0262099
-0.02442
-0.031813
-0.0318128
-0.02621
-0.0195523
-0.0264997
-0.0209591
-0.0219104
-0.0170841
-0.0141865
-0.0107895
-0.0322766
-0.0257804
-0.0308688
-0.0383205
-0.0377917
-0.0286235
-0.0335874
-0.0456318
-0.0751402
-0.072252
-0.0541251
-0.0755922
-0.0550021
-0.0534302
-0.079203
-0.0561669
-0.0813292
-0.0791181
-0.0854052
-0.0851371
-0.0778611
-0.0914505
-0.0780054
-0.0777713
-0.0815093
-0.0786794
-0.0578774
-0.0570177
-0.051189
-0.0433553
-0.0396857
-0.0570173
-0.0709907
-0.0737586
-0.0610636
-0.0707063
-0.0646881
-0.0625456
-0.0535741
-0.037314
-0.0260469
-0.0173294
-0.0209592
-0.0172399
-0.0259414
-0.0308689
-0.0286237
-0.0322769
-0.0219107
-0.0170884
-0.0107981
-0.00652339
-0.00390369
-0.0039226
-0.00655383
-0.0108533
-0.0135551
-0.0137214
-0.0171746
-0.0258475
-0.0307775
-0.0377752
-0.0431914
-0.0433208
-0.0308313
-0.0257437
-0.0369856
-0.0370473
-0.0508918
-0.0705854
-0.057036
-0.0510131
-0.0709598
-0.0604827
-0.0453408
-0.0433559
-0.0372344
-0.0371346
-0.0514781
-0.0257824
-0.0135453
-0.0138063
-0.00498542
-0.00521961
-0.00315137
-0.00388259
-0.00652074
-0.0107902
-0.0170869
-0.0448483
-0.0371305
-0.0200102
-0.013349
-0.0084841
-0.00842032
-0.00507898
-0.00650246
-0.00609213
-0.00199684
-0.0021504
-0.00236145
-0.0023257
-0.00220723
-0.00216626
-0.00227823
-0.00234508
-0.00200375
-0.00239315
-0.00178978
-0.00232617
-0.00248228
-0.00198154
-0.00218716
-0.00217749
-0.00252902
-0.0209192
-0.02624
-0.0241186
-0.047061
-0.0513895
-0.0755921
-0.0768992
-0.00172224
-0.00167834
-0.0132837
-0.0155099
-0.00989542
-0.0331538
-0.0160718
-0.0243352
-0.00619118
-0.010277
-0.00175456
-0.0018337
-0.00171017
-0.0782053
-0.0904231
-0.0768507
-0.0775381
-0.0768494
-0.0583598
-0.0610645
0.00263919
0.00268749
0.00398795
0.00367511
0.00379233
0.00390905
0.00516989
0.00485498
0.00362684
0.00389584
0.00274074
0.00171019
0.00200538
0.0018776
0.00196759
0.00202786
0.00192059
0.00202908
0.0019662
0.00186653
0.00199423
0.00182368
0.00209315
0.0018543
0.00277203
0.00200764
0.00172909
0.00216105
0.00211894
0.00167843
0.00211892
0.00172907
0.00200761
0.00209315
0.00277204
0.00185431
0.00284138
0.00318734
0.00182361
0.00199422
0.00186653
0.00196621
0.00202907
0.00339902
0.00270726
0.00269467
0.00274066
0.00338746
0.00202787
0.00196758
0.00187756
0.00200536
0.00182973
0.00324915
0.00201582
0.00218712
0.00375507
0.00281697
0.00233141
0.00233842
0.00375495
0.00218715
0.00201574
0.00324929
0.00254573
0.00190851
0.00290203
0.00296864
0.00400452
0.00400413
0.00381083
0.00509475
0.00474236
0.00660558
0.00612698
0.00650243
0.00661927
0.00609206
0.00846735
0.0084045
0.00655586
0.00472567
0.00502241
0.00506747
0.0035197
0.00585
0.00957217
0.0150223
0.0224723
0.0320278
0.0437767
0.0786793
0.0789397
0.0634724
0.0780688
0.0736504
0.0773062
0.108939
0.0768994
0.0786467
0.108025
0.0788423
0.0759502
0.0914502
0.0793722
0.0778594
0.0531632
0.0792023
0.0600683
0.0988534
0.0931613
0.0776737
0.103257
0.0776712
0.0931617
0.0988528
0.0793729
0.0778594
0.0759502
0.0914504
0.0788423
0.108023
0.0786466
0.0768996
0.066598
0.0664538
0.0634721
0.0736504
0.0773062
0.078069
0.10761
0.0778375
0.0904236
0.0777823
0.107609
0.0780392
0.0767973
0.0737201
0.0663864
0.0663866
0.0767976
0.0780395
0.107608
0.0777847
0.090423
0.0782052
0.0778351
0.10761
0.0611276
0.0651758
0.0935391
0.058359
0.0652345
0.0610637
0.0630934
0.064688
0.0625452
0.064688
0.050434
0.0578776
0.0578778
0.0928926
0.0630931
0.0610629
0.0652345
0.0583606
0.0651767
0.0611271
0.0630056
0.0647674
0.0624839
0.0646205
0.062929
0.0603203
0.0640941
0.057736
0.0659209
0.0902124
0.0637554
0.061705
0.054979
0.0472287
0.0399506
0.0335028
0.0276715
0.0225966
0.0182493
0.0145176
0.0114737
0.00891372
0.00692281
0.00532763
0.00400398
0.00390756
0.00386208
0.00387208
0.00389575
0.00379227
0.00367515
0.00390936
0.00290209
0.0019085
0.00254574
0.00171029
0.00295491
0.00351974
0.00585009
0.00957227
0.0150224
0.0224724
0.0320277
0.0437768
0.0786792
0.0789397
0.0497537
0.0520883
0.0763049
0.0548273
0.054827
0.0520884
0.0497536
0.0763049
0.0520595
0.0664531
0.0665983
0.0729556
0.0645614
0.0794151
0.0505965
0.0513894
0.0800684
0.075275
0.0761615
0.0733593
0.0761614
0.0794151
0.053163
0.0561661
0.0792023
0.0606046
0.0606045
0.056166
0.0809265
0.0536982
0.0541249
0.0541246
0.075592
0.0536977
0.0791177
0.0811017
0.0802405
0.078004
0.0851378
0.0805146
0.0862463
0.102126
0.0676133
0.0495056
0.0784779
0.0639863
0.0573206
0.0688644
0.0635658
0.0744497
0.0620724
0.062072
0.0385616
0.057137
0.0336303
0.0491191
0.0417338
0.0241356
0.0349065
0.0288694
0.0164926
0.0236257
0.0190221
0.0107384
0.015235
0.0119591
0.0066789
0.0094
0.00724087
0.00401784
0.00562002
0.0044263
0.00250675
0.00329134
0.00200152
0.00233771
0.00233772
0.00216102
0.00202514
0.00199503
0.00188126
0.00254768
0.00183169
0.00183169
0.00184777
0.00257714
0.00185865
0.00185865
0.00180916
0.00252893
0.00199332
0.00199338
0.0019297
0.00269448
0.002293
0.00229406
0.00253005
0.00276521
0.00211191
0.00254753
0.00212654
0.00315665
0.00213274
0.00201706
0.00241816
0.0017898
0.00239317
0.00238982
0.00227826
0.00234514
0.00209227
0.00314666
0.00209347
0.00210349
0.00247313
0.00172224
0.00211346
0.00234675
0.00295765
0.00295062
0.00376409
0.0062553
0.0102293
0.0160366
0.0239573
0.0340731
0.0463996
0.0467584
0.0597186
0.0586087
0.0591827
0.0594081
0.0530297
0.0449304
0.0384009
0.0319045
0.026536
0.0215091
0.0174728
0.0138061
0.0109746
0.00846765
0.00661922
0.00506769
0.00362696
0.00485518
0.00516953
0.00509524
0.00660482
0.00630355
0.00660528
0.0084587
0.0085376
0.00817249
0.0107399
0.010959
0.0100768
0.0133875
0.0100458
0.0109746
0.00789091
0.0108523
0.0108772
0.0102768
0.0137208
0.0137411
0.0109185
0.00790867
0.00841999
0.00623561
0.00655849
0.00504399
0.00371823
0.00387207
0.00292585
0.00269463
0.00338747
0.00234686
0.0021327
0.00315661
0.0021264
0.00254729
0.00211154
0.00276543
0.00252894
0.00217756
0.00192974
0.00198262
0.00232613
0.00178994
0.00166469
0.00241818
0.00239315
0.002017
0.0021135
0.00172226
0.00295788
0.00180915
0.00297287
0.00374211
0.00617068
0.0100761
0.0157972
0.0236083
0.0335873
0.0456316
0.0751401
0.0799549
0.0795489
0.0787181
0.0769007
0.0859852
0.0777725
0.108938
0.0854046
0.0645626
0.0505965
0.051389
0.0755919
0.0550019
0.0536456
0.0582578
0.0576107
0.0601432
0.0596781
0.0484459
0.0599849
0.0595856
0.046495
0.0528594
0.0510326
0.0582126
0.0464554
0.0510114
0.0709598
0.0705844
0.070531
0.0728188
0.0623082
0.0489172
0.051727
0.0579094
0.0507171
0.0368772
0.037482
0.0360637
0.025281
0.0261119
0.0314492
0.0439248
0.0431905
0.0517811
0.0521311
0.044584
0.0449324
0.0396681
0.0515659
0.0470616
0.0457946
0.0752749
0.0800681
0.0520596
0.0801829
0.0798882
0.0791177
0.0813297
0.0600678
0.0677324
0.0672894
0.0672068
0.0682805
0.0593224
0.0478026
0.0354553
0.0249689
0.016751
0.0107417
0.00666213
0.00413994
0.00276973
0.0023511
0.00249419
0.00249418
0.00263989
0.00397552
0.00658961
0.010769
0.0168939
0.0173569
0.021445
0.025751
0.0171312
0.0108411
0.0109904
0.0139337
0.0135547
0.0173358
0.0173116
0.0137212
0.0137204
0.0127093
0.0172511
0.0214013
0.0195404
0.0261337
0.0318084
0.0286041
0.0376413
0.0347486
0.0379219
0.0316767
0.0286199
0.0377754
0.0449954
0.0396642
0.0435724
0.0337185
0.0237049
0.0243353
0.0262626
0.0213659
0.0195643
0.0262404
0.0318439
0.0241188
0.0307771
0.0370464
0.0508905
0.0568652
0.0587147
0.0929584
0.0729556
0.0493565
0.057036
0.0928867
0.0604823
0.0737572
0.0709909
0.0512517
0.051484
0.0453393
0.0433203
0.0369849
0.0257434
0.0258471
0.0171743
0.0108531
0.00655367
0.00655364
0.00665667
0.008633
0.00837532
0.0109185
0.0108772
0.00842015
0.00840462
0.00789094
0.0108524
0.010277
0.0101136
0.0158626
0.0162094
0.0141105
0.0127326
0.0137414
0.0101971
0.0134738
0.0190224
0.0133491
0.0236258
0.0164929
0.0288701
0.02001
0.0349067
0.0241362
0.0417348
0.0285428
0.049119
0.0336311
0.0571377
0.0385361
0.0667944
0.0462331
0.0714767
0.0500046
0.0452183
0.05343
0.0534299
0.0714766
0.046233
0.0667944
0.0452182
0.0744504
0.0495055
0.0635659
0.0603635
0.0688648
0.0573207
0.0639865
0.0659214
0.078478
0.0672891
0.0677342
0.0813295
0.0805155
0.0802419
0.0851372
0.0780021
0.0854045
0.0798864
0.0815093
0.0810337
0.0722518
0.048797
0.0488869
0.0466013
0.0385617
0.0556008
0.0473384
0.0403207
0.0337366
0.0337356
0.0198907
0.0279437
0.0167524
0.0228462
0.0132836
0.0184572
0.0109209
0.0147457
0.00846518
0.0116388
0.00679814
0.00912998
0.00518613
0.00707258
0.00409284
0.00555795
0.00313791
0.00424898
0.00252714
0.00362505
0.00255409
0.00362506
0.00200149
0.00329132
0.00250675
0.00442639
0.0030661
0.00562007
0.00401793
0.00724096
0.00516303
0.00940009
0.00667889
0.0119592
0.00848393
0.0152353
0.0107386
0.010921
0.0147457
0.00989552
0.0116387
0.00913021
0.00707246
0.00555806
0.00372685
0.00424901
0.00252719
0.00302131
0.0050744
0.00409293
0.00531311
0.00867932
0.0138309
0.0211163
0.0307223
0.0424929
0.0548922
0.0548919
0.0672079
0.0623084
0.0489163
0.0424923
0.0556016
0.0339591
0.0473374
0.0283824
0.0403214
0.0244623
0.0300438
0.0341862
0.0283827
0.0331537
0.0240253
0.0198906
0.0279432
0.0228468
0.0184571
0.0132836
0.0160911
0.0155102
0.0102813
0.00846525
0.00631182
0.00518615
0.00608355
0.00383678
0.00313785
0.00273313
0.00317855
0.00199502
0.00202513
0.00258615
0.00211708
0.00211698
0.00258613
0.00279311
0.00187937
0.0021852
0.0024122
0.00242226
0.00167559
0.00203073
0.00234174
0.00212159
0.00316284
0.0021484
0.00258046
0.00235786
0.00227827
0.0020015
0.00216023
0.00216992
0.00226146
0.00289495
0.00216997
0.00279322
0.00218533
0.00187936
0.00173751
0.00242226
0.00203075
0.00167562
0.0017179
0.00247315
0.0021035
0.00209341
0.00314653
0.00209229
0.00234513
0.00218427
0.00216017
0.00220189
0.00238048
0.00173747
0.00303907
0.00235866
0.00233899
0.00218426
0.00200392
0.00224226
0.00235866
0.00238048
0.00188126
0.0030391
0.00302131
0.00400879
0.00661806
0.0108091
0.0169361
0.0252926
0.0359568
0.041652
0.0339597
0.041652
0.0463997
0.0385363
0.0617046
0.046758
0.0517808
0.0396642
0.0445834
0.0347486
0.0376409
0.0286035
0.0318084
0.0319042
0.0238403
0.0258329
0.0264997
0.023879
0.0313265
0.0372274
0.0383204
0.0341742
0.0445786
0.0341275
0.0384008
0.0449306
0.0449319
0.051566
0.0396686
0.0530291
0.046456
0.0510321
0.0528593
0.0464945
0.0582127
0.0594084
0.0591821
0.0470614
0.0521314
0.0586084
0.0597181
0.0587148
0.0536457
0.0582577
0.0506779
0.057611
0.0536257
0.0601429
0.0483488
0.059678
0.0599853
0.0484451
0.0709908
0.0707059
0.0570176
0.0535742
0.0589262
0.0471821
0.0518323
0.0518326
0.039685
0.0450597
0.0341739
0.0383205
0.0372276
0.0445783
0.034128
0.0313268
0.0238793
0.0265
0.025833
0.0238408
0.0209648
0.0158902
0.0174529
0.0170555
0.0158581
0.0170881
0.0107979
0.00652322
0.00390355
0.0039226
0.0039159
0.00395978
0.00514594
0.00499327
0.0066049
0.0065585
0.00504412
0.0050224
0.00472562
0.00655598
0.00623562
0.00618289
0.00372172
0.00371823
0.0031196
0.00293679
0.00271829
0.00175456
0.00275178
0.00264526
0.00307624
0.00302656
0.00276805
0.00192069
0.0018337
0.00302439
0.00498519
0.0083635
0.0135451
0.0209268
0.0308306
0.0322772
0.0371343
0.0372343
0.0259403
0.0257801
0.0219106
0.0209587
0.0308685
0.0319803
0.0318124
0.0244201
0.0262097
0.0262098
0.0195521
0.0214267
0.0162725
0.0172943
0.0172942
0.0127169
0.013857
0.010077
0.0109594
0.0107399
0.0133879
0.010046
0.0141865
0.0170858
0.0172396
0.0109246
0.0107877
0.00876534
0.00842066
0.00853735
0.00612707
0.006606
0.00650237
0.00817277
0.00609219
0.00521942
0.00652053
0.00664078
0.00398795
0.00388216
0.00315129
0.00275531
0.00263908
0.00268711
0.002123
0.00156448
0.00185183
0.00175296
0.00186106
0.00156317
0.00212434
0.00198154
0.00247886
0.002748
0.00409203
0.00507911
0.00474227
0.00542948
0.00529283
0.00473599
0.00501993
0.0036861
0.00879832
0.00790885
0.00841438
0.00619113
0.00841199
0.00679808
0.00841197
0.0134737
0.0206161
0.0239571
0.034073
0.0285426
0.0472275
0.0344405
0.0377748
0.0286194
0.031676
0.024335
0.0261334
0.0195401
0.0214009
0.0215087
0.0158578
0.0170555
0.0174526
0.0158897
0.0209644
0.0215594
0.0195521
0.0214265
0.0209589
0.0260465
0.0373137
0.0511887
0.0433543
0.0433555
0.0570164
0.0535741
0.059585
0.0589266
0.0566535
0.0550019
0.0435724
0.0457947
0.0337185
0.035922
0.0314887
0.030044
0.0244622
0.0206161
0.0167526
0.0216052
0.0252785
0.0169269
0.0108009
0.00661018
0.00400389
0.00300708
0.0030297
0.00295062
0.00376407
0.00625528
0.0102293
0.0160365
0.0133489
0.0225958
0.0160719
0.0173355
0.0127325
0.0173115
0.0162092
0.017251
0.0127093
0.0137202
0.0138057
0.0174727
0.0135446
0.0135542
0.0139329
0.0168939
0.0252808
0.0360628
0.0307214
0.0211158
0.0138306
0.00867914
0.010769
0.00658953
0.00531316
0.00332836
0.00397535
0.00263982
0.00264547
0.00307613
0.004004
0.0036861
0.00390749
0.00293674
0.00270726
0.00183367
0.00295764
0.00372169
0.00618287
0.0101135
0.0158626
0.0237049
0.0314886
0.0216051
0.0195642
0.0214306
0.0213654
0.0262624
0.02624
0.0276714
0.024118
0.0335018
0.0200099
0.039951
0.0314476
0.0439241
0.0549788
0.0579104
0.0637554
0.0493564
0.064096
0.057734
0.0902123
0.0728125
0.0705274
0.0603198
0.0629294
0.0929583
0.0646202
0.0624863
0.0647686
0.0928868
0.0630059
0.0709591
0.0705831
0.0568664
0.0507149
0.0517261
0.0368766
0.0374829
0.0257496
0.0261112
0.0214439
0.0209188
0.0307765
0.0318435
0.0379218
0.04319
0.0449956
0.0508894
0.0370455
0.0258463
0.0171739
0.0171305
0.0173565
0.0108405
0.0101968
0.0114736
0.00891355
0.00619105
0.00660484
0.00473592
0.00501992
0.00532756
0.00306605
0.00692275
0.00516296
0.0051458
0.00863265
0.0109904
0.00837508
0.00841422
0.00655351
0.00665682
0.00391596
0.0039595
0.00275188
0.00175454
0.00284131
0.00318736
0.00235798
0.00214836
0.0031629
0.00212162
0.00234179
0.00339902
0.00271831
0.00302654
0.00386212
0.0049931
0.00498502
0.00836304
0.0108528
0.00655354
0.00392255
0.00276814
0.00302426
0.00390353
0.00652303
0.0107976
0.0170877
0.025743
0.0369848
0.051011
0.0570368
0.0604827
0.0512506
0.0372333
0.0308688
0.0377913
0.0377912
0.0348697
0.0448647
0.0450592
0.0396855
0.0448481
0.0448481
0.0566535
0.0536258
0.032402
0.0286229
0.0324019
0.0286228
0.0319803
0.0318125
0.0222131
0.0222133
0.0144958
0.0144958
0.0141104
0.00879832
0.0052928
0.00507438
0.0031196
0.00295385
0.00184777
0.00319421
0.00542947
0.00903207
0.00903208
0.00789927
0.0108872
0.0103362
0.0108875
0.00789928
0.00842065
0.0109977
0.0135818
0.0137585
0.0137582
0.0138572
0.0127169
0.0135819
0.017329
0.0172394
0.025941
0.0219103
0.0322761
0.0308298
0.0433201
0.0453392
0.0514829
0.0371336
0.0209261
0.0265358
0.0257819
0.0170867
0.014186
0.0109244
0.00664062
0.00671443
0.00507897
0.00521928
0.00876525
0.0107889
0.00652037
0.00315134
0.0038821
0.0031957
0.00281668
0.00319592
0.0029686
0.00319419
0.00292583
0.00295787
0.00166468
0.00236141
0.00215038
0.00199673
0.00219082
0.00236142
0.00232566
0.00215035
0.00199655
0.00227825
0.00216609
0.00220721
0.00216633
0.00232569
0.00198267
0.00217679
0.00198164
0.00233824
0.00263728
0.00248237
0.00249702
0.00232617
0.00287962
0.00238997
0.0027554
0.00845917
0.00295491
0.044865
0.0737571
0.002339
0.00227825
0.00241223
0.00258051
0.00200157
0.00200383
0.00848383
0.0145173
0.018249
0.0500045
0.00332838
0.092893
0.0737192
0.0632025
0.0764126
0.0863326
0.0787183
0.0801829
0.0861392
0.077538
0.0861389
0.0768509
0.0863323
0.0764126
0.0632028
0.0782049
0.0935389
0.108858
0.0768493
0.0859854
0.0777736
0.0769012
0.0215594
0.0209194
0.0214309
0.0160722
0.00295383
0.00171789
0.0232182
0.0452459
0.0568718
0.0344401
0.0506781
0.0483489
0.00182956
)
;

boundaryField
{
    face
    {
        type            calculated;
        value           nonuniform List<scalar> 
154
(
-0.08
-0.08
-0.08
-0.08
-0.08
-0.08
-0.08
-0.08
-0.08
-0.08
-0.08
-0.08
-0.08
-0.08
-0.08
-0.08
-0.08
-0.08
-0.08
-0.08
-0.08
-0.08
-0.08
-0.08
-0.08
-0.08
-0.08
-0.08
-0.08
-0.08
-0.08
-0.08
-0.08
-0.08
-0.08
-0.08
-0.08
-0.08
-0.08
-0.08
-0.08
-0.08
-0.08
-0.08
-0.08
-0.08
-0.08
-0.08
-0.08
-0.08
-0.08
-0.08
-0.08
-0.08
-0.08