/*--------------------------------*- C++ -*----------------------------------*\
| =========                 |                                                 |
| \\      /  F ield         | OpenFOAM: The Open Source CFD Toolbox           |
|  \\    /   O peration     | Version:  2306                                  |
|   \\  /    A nd           | Website:  www.openfoam.com                      |
|    \\/     M anipulation  |                                                 |
\*---------------------------------------------------------------------------*/
FoamFile
{
    version     2.0;
    format      ascii;
    arch        "LSB;label=32;scalar=64";
    class       volVectorField;
    location    "1.1";
    object      flux;
}
// * * * * * * * * * * * * * * * * * * * * * * * * * * * * * * * * * * * * * //

dimensions      [0 1 -1 1 0 0 0];

internalField   nonuniform List<vector> 
5712
(
(-0.298706 0.512992 0.329608)
(-0.381905 0.296031 1.08009)
(-0.70337 0.826554 0.263062)
(-1.03212 0.544985 1.10654)
(-1.0557 0.904903 0.195647)
(-1.81823 0.672581 1.13833)
(-0.805776 1.40852 0.304843)
(-2.04638 1.76387 1.73489)
(-0.65241 1.85769 0.373888)
(-1.43232 2.29158 2.3799)
(-0.975721 1.20707 0.373535)
(-1.48686 1.05397 1.74526)
(-0.871688 0.765691 0.362689)
(-1.14954 0.61088 1.45523)
(-0.384645 0.386281 0.377236)
(-0.441572 0.261879 1.30408)
(-0.679186 0.84516 0.228019)
(-0.780141 0.849534 0.144618)
(-0.868028 0.73487 0.611203)
(-0.861795 0.855212 0.366636)
(-0.67864 1.14051 0.220985)
(-0.833814 1.00121 0.120001)
(-0.99516 1.33292 0.659366)
(-0.890792 1.06111 0.327413)
(-0.24697 0.357366 0.254117)
(-0.189822 0.252689 0.18955)
(-0.30634 0.20252 0.812271)
(-0.209737 0.151702 0.584977)
(-0.575271 0.422565 0.192398)
(-0.468382 0.342408 0.143887)
(-0.975134 0.260105 0.798208)
(-0.715677 0.213472 0.592629)
(-0.752909 0.798789 0.452747)
(-0.786741 0.815548 0.193373)
(-0.846815 0.802071 0.394303)
(-0.82377 0.654677 0.178245)
(-0.310147 0.608018 0.185723)
(-0.236125 0.488844 0.428309)
(-1.76409 0.487281 1.52373)
(-2.36226 0.557988 0.408586)
(-1.14456 0.782997 0.54715)
(-1.40389 0.784202 0.177815)
(-2.34987 1.66731 1.94207)
(-3.05408 1.73 0.520514)
(-1.21829 1.16307 0.503564)
(-1.39567 1.20496 0.164635)
(-1.31917 0.687487 1.10088)
(-1.86309 0.579943 0.338776)
(-1.15802 0.735268 0.565836)
(-1.53084 0.521535 0.192951)
(-0.684168 0.342207 0.968422)
(-1.09611 0.355478 0.30569)
(-0.135622 0.291871 0.314656)
(-0.0461423 0.438319 0.156039)
(-0.14194 0.153554 0.426757)
(-0.0515743 0.193589 0.169241)
(-0.408211 0.397907 0.341389)
(-0.166221 0.580534 0.18372)
(-0.554142 0.239786 0.414433)
(-0.205869 0.288906 0.162363)
(-0.40276 0.432829 0.422612)
(-0.153295 0.777859 0.242938)
(-0.417155 0.303378 0.357157)
(-0.134717 0.516697 0.158735)
(-0.705159 0.114164 0.511562)
(-0.225834 0.304442 0.186609)
(-0.908653 0.0953095 0.174071)
(-0.308588 0.226189 0.0615943)
(-1.07248 0.741162 0.585238)
(-0.540704 0.922009 0.414607)
(-0.982859 0.779439 0.35374)
(-0.582027 0.926978 0.262263)
(-0.99095 0.899705 0.621826)
(-0.642246 0.90304 0.513603)
(-0.87348 0.930887 0.335245)
(-0.648582 0.900522 0.289192)
(-0.786845 0.673922 0.347566)
(-0.470153 0.921962 0.242711)
(-0.790536 0.679849 0.508076)
(-0.410769 0.904517 0.352595)
(-1.01577 0.774485 0.22681)
(-0.642338 0.925955 0.167773)
(-1.01922 0.778147 0.107193)
(-0.64655 0.926922 0.0881564)
(-0.924284 0.947531 0.210046)
(-0.682421 0.894624 0.180647)
(-0.935815 0.949121 0.0993776)
(-0.683159 0.889115 0.0969894)
(-0.848661 0.627312 0.225435)
(-0.537158 0.929328 0.151456)
(-0.878964 0.60843 0.108919)
(-0.549056 0.934941 0.0702917)
(-0.810716 0.795445 0.319457)
(-0.358014 0.96362 0.176548)
(-0.382485 1.0041 0.247216)
(-0.474902 1.44512 0.291913)
(-0.813013 0.844191 0.450931)
(-0.393663 1.12863 0.322806)
(-0.339073 0.996518 0.369251)
(-0.48873 1.58935 0.50846)
(-0.857726 0.753724 0.205359)
(-0.354188 0.841299 0.0992823)
(-0.429385 1.00709 0.141989)
(-0.474095 1.38031 0.164104)
(-0.900668 0.746589 0.0971514)
(-0.362043 0.784829 0.0415024)
(-0.464954 1.01842 0.0576765)
(-0.492988 1.36707 0.0592484)
(-0.175265 0.266828 0.437197)
(-0.192474 0.358243 0.778162)
(-0.0599661 0.688396 0.292392)
(-0.122652 1.23928 0.8637)
(-0.507402 0.323985 0.504958)
(-0.538051 0.375926 0.757787)
(-0.202004 0.870796 0.356134)
(-0.372378 1.38326 0.896457)
(-0.65027 0.392375 0.563724)
(-0.714936 0.398836 0.679256)
(-0.330174 1.08195 0.450957)
(-0.568241 1.502 0.862255)
(-0.489555 1.0321 0.597343)
(-0.0135494 1.06965 0.668108)
(-0.581292 0.909108 0.488851)
(-0.748675 0.912302 0.481458)
(-0.424159 1.40114 0.517489)
(0.00149133 1.06669 0.671928)
(-0.276438 1.03646 0.666932)
(-0.537508 0.922223 0.696654)
(-0.88314 0.824148 0.736895)
(-0.665855 1.62714 1.04355)
(-0.442444 0.97688 0.547616)
(-0.55036 0.99002 0.457271)
(-0.499809 0.912611 0.421706)
(-0.447963 0.954575 0.47801)
(-0.710973 1.82213 0.723972)
(-0.163072 0.0985453 0.909934)
(-0.130282 0.119706 0.82103)
(-0.0948146 0.217654 1.04958)
(-0.0930318 0.52872 1.02239)
(-0.453888 0.137727 0.833328)
(-0.368874 0.159872 0.779164)
(-0.285143 0.291231 1.03126)
(-0.268327 0.574397 0.9966)
(-0.559218 0.199152 0.718626)
(-0.449537 0.169769 0.708396)
(-0.372051 0.384876 0.959978)
(-0.328966 0.634151 0.954498)
(-0.220662 1.03259 0.498079)
(-0.289113 0.979865 0.400891)
(-0.469581 0.954236 0.507094)
(-0.494973 0.898177 0.457131)
(-0.602825 0.856864 0.575251)
(-0.54435 0.745511 0.53843)
(-0.684791 0.665342 0.63845)
(-0.582042 0.570102 0.633266)
(-0.49923 0.49426 0.869371)
(-0.420597 0.720583 0.91222)
(-0.377273 0.951617 0.461639)
(-0.375362 0.88636 0.415871)
(-0.50447 0.984947 0.474924)
(-0.365838 0.937742 0.487545)
(-0.471457 0.884925 0.513442)
(-0.312924 0.804956 0.57783)
(-0.420102 0.761586 0.588859)
(-0.264525 0.669788 0.693511)
(-0.514194 0.520984 0.76252)
(-0.325664 0.711927 0.917666)
(-0.425483 0.991475 0.391018)
(-0.160272 1.10605 0.308758)
(-0.374355 0.993672 0.26134)
(-0.38327 1.14123 0.325041)
(-0.519149 0.935897 0.496931)
(-0.65089 0.95437 0.589094)
(-0.574721 0.91956 0.337689)
(-0.817013 0.971196 0.523876)
(-0.304983 0.928551 0.233469)
(-0.317065 0.939708 0.297675)
(-0.38241 0.919482 0.356827)
(-0.0783411 0.909196 0.297788)
(-0.337008 0.988208 0.0665822)
(-0.627118 1.14928 0.211591)
(-0.321113 0.986314 0.0271022)
(-0.678625 1.15127 0.0711399)
(-0.570736 0.896068 0.168222)
(-1.01357 0.988402 0.345038)
(-0.580841 0.891158 0.0549486)
(-1.08271 0.989019 0.113781)
(-0.263662 0.932314 0.0403483)
(-0.551754 0.937604 0.187469)
(-0.242658 0.933927 0.015397)
(-0.594264 0.938611 0.061971)
(-0.369571 0.801688 0.236007)
(-0.259162 0.760214 0.237684)
(-0.52652 0.523695 0.27033)
(-0.19323 0.591601 0.17557)
(-0.366478 0.798263 0.38047)
(-0.0280897 0.743057 0.311266)
(-0.451877 0.517681 0.448195)
(0.00789959 0.602456 0.321025)
(-0.359973 0.811308 0.0633068)
(-0.404794 0.756126 0.12906)
(-0.553777 0.534278 0.134399)
(-0.248103 0.590175 0.0811191)
(-0.301945 0.814818 0.0687442)
(-0.482748 0.74826 0.0880206)
(-0.494351 0.550788 0.0970209)
(-0.329227 0.589217 0.0735434)
(-0.0981911 0.0753823 0.663936)
(-0.083044 0.04639 0.407924)
(-0.0687335 0.0298805 0.130788)
(-0.0715481 0.041056 0.746835)
(-0.0630942 0.0248676 0.434536)
(-0.0532159 0.0226022 0.143275)
(-0.284972 0.106575 0.637895)
(-0.21591 0.0557352 0.403743)
(-0.174021 0.0389799 0.138405)
(-0.191037 0.0784837 0.731917)
(-0.140713 0.0582499 0.434355)
(-0.11359 0.0466698 0.143213)
(-0.331776 0.116246 0.585894)
(-0.265616 0.0837768 0.371667)
(-0.236052 0.0785967 0.123374)
(-0.22699 0.135488 0.709588)
(-0.168381 0.101909 0.434104)
(-0.15166 0.0870301 0.145763)
(-0.23925 0.880026 0.279217)
(-0.192446 0.736493 0.163597)
(-0.180723 0.644873 0.0484795)
(-0.417965 0.828649 0.380894)
(-0.284939 0.715537 0.25474)
(-0.22584 0.63665 0.0877058)
(-0.415685 0.606678 0.471158)
(-0.275556 0.523292 0.324668)
(-0.206811 0.476594 0.112079)
(-0.431837 0.432228 0.55593)
(-0.310607 0.341514 0.364859)
(-0.256092 0.301256 0.122059)
(-0.299525 0.208843 0.699025)
(-0.178559 0.138243 0.442805)
(-0.12942 0.110123 0.154365)
(-0.598566 0.80889 0.320952)
(-0.474553 0.691262 0.193329)
(-0.38204 0.605655 0.0657086)
(-0.404634 0.855429 0.373549)
(-0.307844 0.718346 0.272222)
(-0.232046 0.623934 0.10383)
(-0.381706 0.653536 0.458018)
(-0.268232 0.511638 0.338103)
(-0.190951 0.43417 0.125784)
(-0.338926 0.439426 0.567552)
(-0.221227 0.316467 0.400878)
(-0.149798 0.265364 0.145062)
(-0.378591 0.220429 0.709132)
(-0.196253 0.136032 0.451518)
(-0.0971843 0.102002 0.161962)
(-0.443299 1.13499 0.0109833)
(-0.593456 1.09547 0.0819413)
(-0.356638 1.2498 0.114035)
(-0.45337 1.1062 0.166415)
(-0.493684 1.29062 0.0948869)
(-0.71547 1.10775 0.107212)
(-0.446386 1.57767 0.235861)
(-0.637612 1.18022 0.222285)
(-0.000422086 0.862265 0.0237884)
(-0.0280297 0.856436 0.0387902)
(0.0205191 0.856111 0.0253738)
(-0.00551917 0.780497 0.0403439)
(-0.121331 0.970191 0.0180073)
(-0.132553 0.895224 0.05361)
(-0.053876 0.959973 0.0329904)
(-0.0301795 0.805904 0.0704579)
(-0.0352715 0.949682 0.122668)
(-0.102317 0.931992 0.0606175)
(-0.391266 0.872452 0.158509)
(-0.56268 0.921495 0.0928901)
(-0.266589 1.13481 0.0820802)
(-0.155693 1.03288 0.141285)
(-0.426058 1.17511 0.134181)
(-0.423251 1.19934 0.0208388)
(-0.671098 1.29339 0.258629)
(-0.739668 1.34508 0.0504382)
(0.0214416 0.968392 -0.0970875)
(0.172193 1.01088 0.0044599)
(-0.318196 0.867261 0.0595124)
(-0.297638 0.845079 0.033991)
(-0.298486 1.04108 0.0333231)
(-0.228966 1.07251 0.020668)
(-0.0409819 0.652986 0.368581)
(-0.0213286 0.350623 0.156145)
(-0.0293493 0.615709 0.0996002)
(-0.0135495 0.388041 0.0576663)
(-0.0802599 0.664915 0.374689)
(-0.00639472 0.35372 0.161412)
(0.00871155 0.616239 0.125925)
(0.0294388 0.385653 0.0728013)
(-0.371939 0.657866 0.370658)
(-0.0892408 0.355046 0.172421)
(-0.259241 0.617378 0.178871)
(-0.0662386 0.402165 0.115874)
(-0.371564 0.603687 0.123478)
(-0.110849 0.420848 0.082193)
(-0.446887 0.612646 0.0454928)
(-0.138069 0.416569 0.0440013)
(-0.379668 0.86029 0.519915)
(-0.488849 0.719964 0.456849)
(-0.347566 0.866196 0.239921)
(-0.474422 0.725663 0.246494)
(-0.620598 0.961922 0.584741)
(-0.638795 0.85651 0.544176)
(-0.588494 0.984171 0.284534)
(-0.601207 0.855913 0.283985)
(-0.231073 0.838073 0.201953)
(-0.366193 0.593633 0.205592)
(-0.268645 0.863574 0.427806)
(-0.365265 0.580405 0.350396)
(-0.366433 0.893127 0.135956)
(-0.455442 0.72619 0.143314)
(-0.401398 0.908161 0.0657653)
(-0.45749 0.719137 0.0801965)
(-0.611869 1.01859 0.168853)
(-0.588353 0.853867 0.167442)
(-0.638901 1.02371 0.0827793)
(-0.588289 0.844953 0.0917372)
(-0.231603 0.836528 0.110347)
(-0.352734 0.598281 0.121541)
(-0.249484 0.836928 0.0515488)
(-0.356546 0.59497 0.0722657)
(0.0133363 0.538742 0.170333)
(-0.0374048 0.355425 0.107636)
(-0.269008 0.461849 0.166632)
(-0.145706 0.300692 0.105392)
(0.032438 0.496014 0.272906)
(-0.0225018 0.317343 0.143689)
(-0.24931 0.440185 0.253254)
(-0.127871 0.28067 0.14824)
(-0.00381 0.555518 0.0950419)
(-0.0476951 0.377882 0.0743475)
(-0.27368 0.471129 0.101732)
(-0.158941 0.310008 0.0653303)
(-0.0189718 0.557548 0.0432376)
(-0.0563038 0.39058 0.0406902)
(-0.272507 0.470021 0.0604881)
(-0.162621 0.311931 0.0353598)
(0.0267541 0.101653 0.425206)
(0.0303652 0.0528071 0.269643)
(-0.00561449 0.188214 0.197181)
(0.00133722 0.106603 0.183934)
(0.112205 0.107743 0.425054)
(0.110696 0.0635398 0.281075)
(0.010741 0.199753 0.197553)
(0.019208 0.124905 0.183398)
(0.0260232 0.131223 0.447622)
(0.0758917 0.0941613 0.303165)
(-0.0531331 0.219967 0.200432)
(-0.0254296 0.159256 0.180577)
(0.401173 0.505734 0.571181)
(0.399253 0.802256 0.645894)
(0.212912 0.361812 0.497221)
(0.164353 0.345877 0.314512)
(0.0253041 0.251706 0.158781)
(0.433034 0.775681 0.612543)
(0.421871 0.52628 0.536432)
(0.160557 0.302061 0.471225)
(0.235819 0.303646 0.365783)
(0.041304 0.207078 0.207196)
(-0.436164 0.82067 0.571271)
(-0.331074 0.632307 0.491527)
(-0.275416 0.49374 0.373353)
(-0.240053 0.379835 0.269342)
(-0.125278 0.245616 0.14821)
(0.0281178 0.0279821 0.204772)
(0.0236397 0.0191112 0.164671)
(0.00342917 0.065594 0.177527)
(0.00141141 0.0492079 0.183923)
(0.0902521 0.0377663 0.219395)
(0.0799864 0.0239642 0.168874)
(0.0114248 0.0863531 0.182873)
(0.00565172 0.0674705 0.185603)
(0.0918979 0.0636406 0.243297)
(0.10064 0.0442435 0.18219)
(-0.0118431 0.119473 0.190669)
(-0.0164514 0.0949294 0.190131)
(0.200319 0.77078 0.461584)
(0.0766307 0.713635 0.330443)
(0.30411 0.506203 0.403446)
(0.172511 0.459221 0.278335)
(0.129042 0.31942 0.296878)
(0.0876227 0.300694 0.231669)
(0.146155 0.266634 0.256595)
(0.116115 0.225092 0.206977)
(0.000244032 0.175033 0.181157)
(-0.0249847 0.138853 0.194215)
(-0.160112 0.733293 0.384935)
(-0.0992612 0.638633 0.336573)
(-0.0493096 0.55248 0.320522)
(0.0292379 0.458087 0.276243)
(-0.0377694 0.419247 0.255441)
(0.024631 0.346396 0.224527)
(-0.0504229 0.314611 0.205498)
(-0.00367147 0.260783 0.193033)
(-0.048895 0.213218 0.140487)
(-0.0519298 0.193275 0.183983)
(-0.205334 0.577495 0.28541)
(-0.181086 0.439211 0.194876)
(-0.38732 0.587383 0.186937)
(-0.230364 0.436378 0.116526)
(-0.331386 0.714333 0.39242)
(-0.320461 0.569912 0.303393)
(-0.500105 0.720854 0.268139)
(-0.397117 0.572768 0.219965)
(-0.286613 0.477357 0.14288)
(-0.162297 0.360531 0.0867688)
(-0.141062 0.458685 0.210024)
(-0.133798 0.355649 0.152335)
(-0.45619 0.591556 0.182065)
(-0.19928 0.434042 0.0874258)
(-0.500097 0.588868 0.0597466)
(-0.222733 0.434233 0.0334108)
(-0.557249 0.722391 0.202228)
(-0.406018 0.589544 0.148462)
(-0.593531 0.717189 0.0632363)
(-0.436917 0.589604 0.0530043)
(-0.349173 0.488693 0.149239)
(-0.131451 0.358318 0.0656975)
(-0.389775 0.488047 0.0529008)
(-0.152054 0.362963 0.026454)
(-0.202599 0.364614 0.106568)
(-0.147335 0.2843 0.0927177)
(-0.127798 0.250018 0.0805703)
(-0.183862 0.239832 0.112421)
(-0.125817 0.348423 0.150754)
(-0.13311 0.273924 0.133668)
(-0.106934 0.238378 0.102917)
(-0.169693 0.224652 0.142356)
(-0.235552 0.381318 0.109115)
(-0.143043 0.291595 0.0656662)
(-0.144778 0.256805 0.059131)
(-0.211502 0.253417 0.0770665)
(-0.289885 0.389732 0.0278802)
(-0.154791 0.291547 0.0120239)
(-0.190413 0.266429 -0.000963157)
(-0.217068 0.256856 0.0100314)
(0.0208982 0.04478 0.109137)
(0.0202183 0.0377299 0.0459602)
(0.0218574 0.0303363 0.0135764)
(0.00190618 0.190308 0.118167)
(0.00715924 0.0983159 0.0318768)
(0.00766758 0.078152 0.00857675)
(0.0759349 0.0439951 0.115432)
(0.0738263 0.0416552 0.0516715)
(0.0709322 0.0358888 0.015896)
(0.00866009 0.210332 0.120891)
(0.0205525 0.118124 0.0341565)
(0.0198104 0.097235 0.00964208)
(0.0998202 0.0625406 0.117891)
(0.100829 0.0668238 0.0561009)
(0.0984118 0.0661923 0.015082)
(-0.0104141 0.239122 0.123815)
(0.0204772 0.151044 0.0364605)
(0.0260269 0.130148 0.00894308)
(0.0334589 0.62624 0.212522)
(0.0275307 0.542474 0.115495)
(0.0157625 0.489926 0.0301239)
(0.109298 0.40638 0.171397)
(0.106846 0.363167 0.0873219)
(0.0958558 0.338808 0.0231146)
(0.0857409 0.281071 0.148657)
(0.0913319 0.255491 0.0736404)
(0.08709 0.243736 0.0209732)
(0.107162 0.22629 0.130635)
(0.105599 0.20283 0.0621411)
(0.0988076 0.189385 0.0147326)
(-0.029609 0.28017 0.127691)
(0.00926084 0.190309 0.0373939)
(0.0118031 0.165452 0.00655597)
(-0.143483 0.542984 0.257211)
(-0.0818562 0.458384 0.137039)
(-0.0454789 0.406184 0.040624)
(0.0180871 0.380999 0.20911)
(0.0499575 0.322442 0.106706)
(0.0661139 0.290655 0.0310161)
(0.0207191 0.297974 0.171796)
(0.0578449 0.251417 0.0861357)
(0.0728658 0.22731 0.0256543)
(0.0102308 0.268271 0.144951)
(0.0479072 0.219019 0.0643136)
(0.0578047 0.192589 0.0169194)
(-0.0556481 0.347021 0.139293)
(0.0119591 0.216396 0.0359436)
(0.0194928 0.185126 0.00913506)
(0.000815291 0.187997 0.0563485)
(0.000784969 0.107964 0.0190579)
(0.000763539 0.0646524 0.00460796)
(0.00109901 0.0401751 -0.00219548)
(0.00801259 0.210502 0.0234756)
(0.00376753 0.116812 0.00825521)
(0.00268374 0.068075 0.00240367)
(0.00212929 0.0413743 -0.000208754)
(0.000248777 0.189121 0.0591598)
(0.00134739 0.10808 0.0205066)
(0.00347272 0.0648671 0.00576895)
(0.0045587 0.0403927 -0.000886827)
(0.0126312 0.214949 0.029256)
(0.00654186 0.119319 0.0109416)
(0.00684589 0.0698689 0.00501119)
(0.00599567 0.0424147 0.0021513)
(-0.00688659 0.189201 0.0626268)
(-0.000280812 0.107456 0.0222517)
(0.0050848 0.0661146 0.0079746)
(0.00848279 0.0413335 0.00139297)
(0.00348789 0.219569 0.0478971)
(0.00439298 0.121066 0.0195356)
(0.00523953 0.0726694 0.00616618)
(0.00516177 0.0440345 0.00103614)
(-0.000494169 0.235663 0.0335007)
(0.00229073 0.127657 0.0160785)
(0.00187352 0.0727476 0.00328359)
(0.00165175 0.0437378 -0.00134785)
(-0.00756166 0.241688 0.0272916)
(-0.0011455 0.131995 0.0154465)
(0.00201734 0.0740688 0.00681999)
(0.00316254 0.0445164 0.00314078)
(-0.0292538 0.201096 0.0492902)
(-0.00698071 0.114365 0.0195186)
(-0.000218918 0.069329 0.00496891)
(0.00363214 0.0425108 -0.00305783)
(-0.0433364 0.168928 0.0408217)
(-0.0106049 0.102257 0.0158617)
(-0.00274275 0.0643896 0.00623592)
(0.00708531 0.0404852 -0.00248979)
(-0.0195673 0.178124 0.0599211)
(-0.00347254 0.104418 0.0214535)
(0.00227338 0.0654517 0.00695813)
(0.00685916 0.0406444 -0.00105753)
(-0.0352668 0.156868 0.0527413)
(-0.00811535 0.0968555 0.0188018)
(-0.00304777 0.0620713 0.0072424)
(0.00584626 0.0392319 -0.00393023)
(-0.0313676 0.216411 0.0371022)
(-0.00800565 0.121771 0.016539)
(0.000834054 0.0717199 0.00514897)
(0.00547153 0.0435345 -0.00120631)
(-0.0486694 0.17613 0.0296017)
(-0.0124674 0.106131 0.0128475)
(-0.00296814 0.0657585 0.00591018)
(0.00855256 0.0413653 0.00010119)
(-0.0344414 0.2247 0.0243135)
(-0.00973916 0.126659 0.0127638)
(0.000971256 0.0735353 0.00604669)
(0.00692387 0.0446333 0.00297001)
(-0.0522023 0.179251 0.0182933)
(-0.0139838 0.108836 0.00956511)
(-0.00349907 0.0670758 0.00538242)
(0.00888307 0.0422628 0.00256232)
(0.000472334 0.144177 0.0703276)
(0.000474858 0.0935408 0.0230577)
(0.000726714 0.0595883 0.00533502)
(0.00146145 0.0383377 -0.00479011)
(0.00157316 0.0998111 0.0669181)
(0.000852289 0.0768654 0.0210338)
(0.000327452 0.0534601 0.0073751)
(0.00130043 0.0359415 -0.00628246)
(0.0028624 0.144939 0.0700074)
(0.00182613 0.0933713 0.0231618)
(0.00261707 0.0597052 0.00563295)
(0.00417934 0.038372 -0.00461266)
(0.00617263 0.103924 0.0649051)
(0.00295765 0.0780137 0.0203927)
(0.00127109 0.0538579 0.00743714)
(0.00359908 0.0361657 -0.00616225)
(-0.0113267 0.14891 0.0683078)
(-0.00215579 0.0937897 0.0228881)
(0.00213343 0.0606608 0.00744081)
(0.00676936 0.0390263 -0.00264046)
(-0.00397404 0.115803 0.0608647)
(0.000425937 0.0815052 0.0191767)
(0.00115582 0.0552604 0.00838468)
(0.00623374 0.037013 -0.00462809)
(-0.000883415 0.1484 0.0594434)
(0.00268043 0.0923234 0.0206821)
(0.00410509 0.0602629 0.00900386)
(0.0071534 0.0400077 0.00138599)
(0.00113128 0.126351 0.0666002)
(0.00242592 0.0841664 0.021151)
(0.000841965 0.0572666 0.0110126)
(0.00624196 0.037417 -0.00522343)
(-0.0296661 0.140809 0.0518531)
(-0.00626918 0.0905056 0.0179725)
(-0.00200828 0.0594519 0.00850828)
(0.00849107 0.0386892 -0.00075846)
(0.00284911 0.0592072 0.050638)
(0.00125887 0.0638713 0.0145748)
(0.000655197 0.0435878 0.00618108)
(0.00109518 0.0132268 -0.00374565)
(0.00494748 0.0184427 0.0196144)
(0.00187491 0.0569647 0.0052475)
(0.000815281 0.0398828 0.00168921)
(0.000572666 0.0133137 -0.00050953)
(0.00611352 0.0668581 0.052999)
(0.00298014 0.0664621 0.0155529)
(0.00121471 0.0446802 0.00656186)
(0.0026846 0.013922 -0.00352695)
(0.0128142 0.0269337 0.0207381)
(0.00499891 0.0597611 0.00567951)
(0.00197558 0.0407954 0.00199228)
(0.00143245 0.0136113 -0.000249266)
(0.00451573 0.0816399 0.0550188)
(0.00324977 0.0711376 0.0166148)
(0.00149679 0.0461657 0.00751298)
(0.00431322 0.0139217 -0.00289808)
(0.0167565 0.0419646 0.0216437)
(0.00703343 0.0645955 0.00616653)
(0.0029345 0.0420691 0.00233482)
(0.00220744 0.01379 3.5031e-05)
(-0.000748759 0.100443 0.0500919)
(0.00283271 0.0769199 0.015531)
(0.00178388 0.0487366 0.00821839)
(0.00602207 0.0150998 -0.0020033)
(0.0143141 0.0591679 0.0214123)
(0.00756031 0.0702035 0.00633243)
(0.00336106 0.04403 0.00297983)
(0.00270683 0.0144125 0.000531836)
(-0.0138874 0.114311 0.0459465)
(-5.76693e-06 0.0825041 0.0150962)
(-0.000435281 0.0519728 0.00825026)
(0.00526036 0.0173369 -0.000716072)
(0.00614773 0.0667546 0.0195197)
(0.00636308 0.0748657 0.00653212)
(0.00274702 0.0459003 0.00373298)
(0.00258842 0.0149716 0.00114188)
(-0.0339784 0.123626 0.0302551)
(-0.00453604 0.0890259 0.0108965)
(-0.00151954 0.0533696 0.00469321)
(0.00577721 0.0167483 -0.000328482)
(-0.0101998 0.063616 0.0174976)
(0.000926525 0.0807107 0.0074829)
(0.00110839 0.0494506 0.00376971)
(0.00202341 0.015982 0.00168644)
(-0.0253331 0.119949 0.0361322)
(-0.00181166 0.0861949 0.0119037)
(-0.00108476 0.0523974 0.00577415)
(0.00533407 0.0167002 -0.000706896)
(-0.00461362 0.0606103 0.0184024)
(0.00336337 0.0780619 0.00704195)
(0.00198692 0.0476498 0.00382787)
(0.00240174 0.0154 0.00146658)
(-0.0414476 0.125393 0.0230587)
(-0.00740839 0.0909433 0.00954905)
(-0.00230964 0.0537157 0.00430129)
(0.00627683 0.0157769 0.000496409)
(-0.0147655 0.0635062 0.0145015)
(-0.00118994 0.0828193 0.00706821)
(0.00044663 0.0504478 0.00353417)
(0.00180655 0.016074 0.00186816)
(-0.0466665 0.127928 0.0146161)
(-0.00991982 0.0927703 0.00760498)
(-0.00322776 0.0548677 0.00426654)
(0.00609094 0.0160275 0.00211825)
(-0.0184758 0.0671463 0.0106814)
(-0.00313517 0.0847704 0.00620272)
(-0.000308938 0.0516151 0.00351214)
(0.00149932 0.0164091 0.00220427)
(0.000477507 0.0272072 -0.00015889)
(0.000177534 0.0170534 7.5303e-05)
(7.25537e-05 0.00985817 6.07148e-05)
(3.27826e-05 0.00499963 3.33257e-05)
(1.87401e-05 0.00151729 2.03268e-05)
(0.000629173 0.0270408 -2.05974e-06)
(0.000262814 0.0170368 5.12067e-05)
(0.000114875 0.0098696 3.3946e-05)
(5.3571e-05 0.00500792 1.80223e-05)
(3.10473e-05 0.00151987 1.08988e-05)
(0.00114051 0.0275723 0.000181579)
(0.000408107 0.017229 0.000219743)
(0.000165446 0.0099306 0.000125384)
(7.47476e-05 0.00502859 6.40172e-05)
(4.27696e-05 0.00152505 3.83055e-05)
(0.0013794 0.0275769 0.000369661)
(0.000574782 0.0172598 0.000215805)
(0.000252082 0.00996436 0.000109261)
(0.000118079 0.00504674 5.40585e-05)
(6.8644e-05 0.00153038 3.20612e-05)
(0.00150812 0.0283644 0.000510642)
(0.000507789 0.0174722 0.000382372)
(0.000202806 0.0100222 0.000201989)
(9.13827e-05 0.00506454 0.000101175)
(5.22879e-05 0.00153466 6.02578e-05)
(0.0018093 0.0282942 0.00129994)
(0.000749493 0.0175118 0.000707441)
(0.000329106 0.0100721 0.000346742)
(0.000154585 0.00509136 0.000170087)
(9.00422e-05 0.00154255 0.000100772)
(0.000906804 0.0285787 0.00143902)
(0.00037304 0.0177823 0.000797309)
(0.000163838 0.0102095 0.000395122)
(7.72998e-05 0.00515199 0.000195453)
(4.52122e-05 0.00155945 0.000116449)
(0.000667929 0.0291973 0.00207119)
(0.000225559 0.0181492 0.00103567)
(8.96242e-05 0.0103956 0.000498956)
(4.06382e-05 0.00523513 0.000245474)
(2.34497e-05 0.00158281 0.000146414)
(0.00144221 0.0291381 0.000750406)
(0.000503992 0.0177573 0.000539741)
(0.000205673 0.0101499 0.000280739)
(9.38822e-05 0.00511855 0.0001405)
(5.4081e-05 0.0015495 8.39407e-05)
(0.000691963 0.0308771 0.000817238)
(0.000210235 0.0180782 0.000509883)
(8.09028e-05 0.0102354 0.000258045)
(3.61321e-05 0.00514678 0.000128448)
(2.06421e-05 0.00155661 7.66649e-05)
(0.00155317 0.0292636 0.000560624)
(0.000581526 0.0176783 0.000439279)
(0.000247615 0.0100898 0.000229233)
(0.000114923 0.0050894 0.000114345)
(6.65797e-05 0.00154117 6.80656e-05)
(0.000666125 0.0308277 0.00104859)
(0.000210586 0.0179573 0.000554751)
(8.33199e-05 0.0101691 0.000265486)
(3.75426e-05 0.00511707 0.00012934)
(2.15025e-05 0.00154828 7.64233e-05)
(0.00111381 0.0293568 0.000934948)
(0.000333712 0.0179919 0.000623866)
(0.000126029 0.0102718 0.000322977)
(5.58466e-05 0.00517281 0.000162108)
(3.18686e-05 0.00156469 9.7129e-05)
(0.000654962 0.0314405 0.00108414)
(0.000185424 0.0183044 0.000598116)
(6.95906e-05 0.010345 0.000296768)
(3.09424e-05 0.00519524 0.000147283)
(1.77044e-05 0.00157018 8.80115e-05)
(0.00101088 0.0300496 0.00163534)
(0.000231563 0.0183508 0.00082847)
(7.08479e-05 0.0104464 0.000400813)
(2.81027e-05 0.00525004 0.000197607)
(1.53225e-05 0.00158633 0.000118009)
(0.000560205 0.0321714 0.0013703)
(0.000111854 0.0186251 0.000682914)
(3.15243e-05 0.0104954 0.000329855)
(1.20321e-05 0.00526144 0.00016275)
(6.46277e-06 0.00158875 9.72819e-05)
(0.000406717 0.0277944 -0.000358816)
(0.000138879 0.0171227 3.56725e-05)
(5.49427e-05 0.00985437 4.44769e-05)
(2.44553e-05 0.00499281 2.54805e-05)
(1.38801e-05 0.00151499 1.56794e-05)
(0.000305015 0.0289761 -0.000205259)
(0.000111634 0.0172092 9.66881e-06)
(4.58896e-05 0.0098549 1.67809e-05)
(2.07292e-05 0.00498886 9.72633e-06)
(1.18201e-05 0.0015136 5.9858e-06)
(0.00100478 0.0281504 -0.000134944)
(0.000343814 0.0172631 0.000128134)
(0.000138431 0.00990956 8.4775e-05)
(6.23515e-05 0.00501435 4.43383e-05)
(3.56086e-05 0.0015207 2.66485e-05)
(0.000793148 0.0292727 -0.000123589)
(0.000289973 0.0173179 4.34549e-05)
(0.000120694 0.00989778 3.13156e-05)
(5.49937e-05 0.00500561 1.64678e-05)
(3.15151e-05 0.00151804 9.88483e-06)
(0.00139345 0.028896 0.000129375)
(0.000424825 0.0174961 0.000227667)
(0.000164575 0.00999496 0.000127132)
(7.32255e-05 0.00504753 6.41833e-05)
(4.16779e-05 0.00152953 3.82233e-05)
(0.00106907 0.0299255 0.000194526)
(0.000392707 0.017516 0.000156374)
(0.000165697 0.00997302 7.85389e-05)
(7.61636e-05 0.00503519 3.82734e-05)
(4.38749e-05 0.00152593 2.25053e-05)
(0.00123385 0.0299853 0.000739482)
(0.000455952 0.0177504 0.000448299)
(0.000194916 0.0100794 0.000219154)
(9.03383e-05 0.00507958 0.000106491)
(5.22263e-05 0.00153802 6.25802e-05)
(0.00072631 0.0307001 0.000516824)
(0.000292238 0.0177263 0.000292622)
(0.000127587 0.0100566 0.000138841)
(5.94545e-05 0.00506883 6.67749e-05)
(3.44448e-05 0.00153498 3.90739e-05)
(0.000623469 0.0309838 0.00134671)
(0.000243735 0.0178798 0.000607251)
(0.000106509 0.0101262 0.000277311)
(4.96987e-05 0.00509806 0.000132201)
(2.87987e-05 0.00154296 7.73358e-05)
(-0.00668143 0.527557 0.0954091)
(-0.014434 0.82254 0.216772)
(-0.0104061 0.544446 0.0992156)
(-0.0337703 0.826998 0.21623)
(0.000171133 0.566736 0.111633)
(-0.0391745 0.828704 0.21627)
(0.0307211 0.574054 0.131771)
(-0.0233208 0.820578 0.224008)
(0.0602593 0.535113 0.134755)
(0.0234669 0.769702 0.227559)
(-0.0171064 0.475358 0.0573255)
(-0.0423527 0.539319 0.0819287)
(0.041406 0.482645 0.0906126)
(0.0367397 0.578087 0.136665)
(-0.0448404 0.474489 0.031465)
(-0.0776129 0.528425 0.04126)
(-0.0628975 0.4815 0.0105177)
(-0.0928536 0.532363 0.0132937)
(-0.0330062 0.473707 0.485472)
(-0.00784623 0.0816507 0.116949)
(-0.00179819 0.0176012 0.0270784)
(-0.000403938 0.00398602 0.00612065)
(-0.000103315 0.000711556 0.00154389)
(-0.00865507 0.528583 0.133386)
(-0.00465899 0.151314 0.0361462)
(-0.000634759 0.0370198 0.00968386)
(-0.000179013 0.00847452 0.00222595)
(-8.34915e-05 0.00151188 0.000492249)
(-0.101258 0.47341 0.476525)
(-0.0239303 0.0802743 0.113984)
(-0.0055032 0.0172052 0.0263891)
(-0.00123017 0.00388572 0.00591972)
(-0.000315133 0.000692242 0.0015051)
(-0.019861 0.527025 0.136025)
(-0.00589763 0.149302 0.040248)
(-0.00152097 0.0364417 0.0100006)
(-0.000330055 0.00831123 0.00234961)
(-9.3671e-05 0.00147117 0.00059189)
(-0.168714 0.468554 0.449179)
(-0.0399443 0.0785634 0.106889)
(-0.00921521 0.0167367 0.0246918)
(-0.00206814 0.00377055 0.00553899)
(-0.000528994 0.00067111 0.00141163)
(-0.0327054 0.520471 0.132012)
(-0.0103021 0.146336 0.0388206)
(-0.00261831 0.0356048 0.00961618)
(-0.000631752 0.0081043 0.00224785)
(-0.000164434 0.00143405 0.000568414)
(-0.22326 0.453021 0.404197)
(-0.0530211 0.0745029 0.0955396)
(-0.012293 0.0157694 0.0220448)
(-0.00277017 0.00355124 0.00494912)
(-0.000710222 0.000632583 0.0012637)
(-0.0381633 0.502897 0.127364)
(-0.013035 0.140467 0.0366617)
(-0.00341399 0.0341279 0.00897022)
(-0.00083085 0.00776951 0.00207962)
(-0.000215277 0.0013752 0.000523498)
(-0.274203 0.418328 0.331562)
(-0.0657922 0.0671137 0.0781322)
(-0.015376 0.014205 0.0180711)
(-0.00348665 0.00321551 0.00406948)
(-0.000898917 0.000574974 0.00104224)
(-0.0426395 0.465541 0.118671)
(-0.0160361 0.130503 0.0332885)
(-0.00430927 0.0318664 0.00806776)
(-0.00105938 0.00728715 0.00186091)
(-0.000277415 0.00129331 0.000467649)
(-0.31513 0.356004 0.151317)
(-0.0779575 0.0594707 0.0373715)
(-0.018505 0.0130325 0.00881815)
(-0.00424202 0.00300751 0.00200656)
(-0.00110186 0.000543247 0.000516545)
(-0.0735234 0.364903 0.057457)
(-0.0232971 0.107891 0.016375)
(-0.00590852 0.0271483 0.00394537)
(-0.00139343 0.00633326 0.000895866)
(-0.000359438 0.00113788 0.000224882)
(-0.297163 0.375585 0.229151)
(-0.0733084 0.0617194 0.0557569)
(-0.0173146 0.0133558 0.0130381)
(-0.0039485 0.00305935 0.00294821)
(-0.00102098 0.000550277 0.000756507)
(-0.0537237 0.395751 0.0847023)
(-0.0192055 0.116706 0.023819)
(-0.00506846 0.0290663 0.00577865)
(-0.00122538 0.00671645 0.00133273)
(-0.000317181 0.0011988 0.00033732)
(-0.322337 0.347374 0.0878295)
(-0.0797959 0.0585899 0.0218691)
(-0.0189817 0.0129006 0.00518837)
(-0.00436103 0.00298551 0.00118747)
(-0.00113557 0.000540079 0.000306628)
(-0.08543 0.35268 0.0322138)
(-0.0259266 0.103575 0.00953002)
(-0.00645425 0.0260927 0.0022884)
(-0.00149765 0.00611094 0.000519775)
(-0.000384841 0.00110191 0.000131656)
(-0.334674 0.344532 0.0300841)
(-0.0821154 0.0578669 0.00745877)
(-0.0195602 0.01273 0.00177548)
(-0.00449322 0.00294748 0.000408029)
(-0.00116987 0.000532853 0.000105483)
(-0.0895986 0.350964 0.0124551)
(-0.027183 0.102277 0.00340793)
(-0.0068148 0.025696 0.000768416)
(-0.00147084 0.00603281 0.000214123)
(-0.000398985 0.00108643 4.33731e-05)
(-0.0244975 1.44383 -0.019524)
(-0.31058 2.08172 0.00397022)
(-0.283702 2.02676 0.193457)
(-0.100943 1.39437 -0.048317)
(0.0699712 0.802833 0.0316966)
(0.118425 0.848329 0.0339624)
(0.328349 1.18739 0.0988665)
(0.4822 1.24877 0.127083)
(0.0684841 0.942408 0.0804491)
(0.351055 1.06506 0.1516)
(-0.0859775 1.51435 0.130388)
(0.0958251 2.08842 0.201306)
(0.0990623 1.92196 0.160042)
(0.20626 2.56717 0.198394)
(0.398935 1.24728 0.0822447)
(0.568992 1.43122 0.110502)
(0.603764 0.970565 0.0863365)
(0.761459 1.04307 0.102505)