/*--------------------------------*- C++ -*----------------------------------*\
| =========                 |                                                 |
| \\      /  F ield         | OpenFOAM: The Open Source CFD Toolbox           |
|  \\    /   O peration     | Version:  2306                                  |
|   \\  /    A nd           | Website:  www.openfoam.com                      |
|    \\/     M anipulation  |                                                 |
\*---------------------------------------------------------------------------*/
FoamFile
{
    version     2.0;
    format      ascii;
    arch        "LSB;label=32;scalar=64";
    class       volScalarField;
    location    "1.1";
    object      gradTy;
}
// * * * * * * * * * * * * * * * * * * * * * * * * * * * * * * * * * * * * * //

dimensions      [0 -1 0 1 0 0 0];

internalField   nonuniform List<scalar> 
5712
(
12824.8
7400.78
20663.8
13624.6
22622.6
16814.5
35213
44096.8
46442.3
57289.5
30176.9
26349.4
19142.3
15272
9657.03
6546.98
21129
21238.4
18371.8
21380.3
28512.8
25030.2
33323
26527.8
8934.15
6317.21
5063.01
3792.56
10564.1
8560.19
6502.63
5336.81
19969.7
20388.7
20051.8
16366.9
15200.4
12221.1
12182
13949.7
19574.9
19605
41682.7
43250.1
29076.8
30124
17187.2
14498.6
18381.7
13038.4
8555.18
8886.94
7296.78
10958
3838.85
4839.72
9947.66
14513.3
5994.65
7222.65
10820.7
19446.5
7584.46
12917.4
2854.09
7611.06
2382.74
5654.73
18529
23050.2
19486
23174.4
22492.6
22576
23272.2
22513
16848
23049.1
16996.2
22612.9
19362.1
23148.9
19453.7
23173.1
23688.3
22365.6
23728
22227.9
15682.8
23233.2
15210.7
23373.5
19886.1
24090.5
25102.5
36128.1
21104.8
28215.8
24913
39733.8
18843.1
21032.5
25177.3
34507.8
18664.7
19620.7
25460.5
34176.8
6670.7
8956.07
17209.9
30981.9
8099.63
9398.16
21769.9
34581.4
9809.38
9970.91
27048.7
37550
25802.5
26741.2
22727.7
22807.5
35028.4
26667.3
25911.5
23055.6
20603.7
40678.5
24422
24750.5
22815.3
23864.4
45553.3
2463.63
2992.66
5441.36
13218
3443.17
3996.81
7280.77
14359.9
4978.79
4244.23
9621.9
15853.8
25814.6
24496.6
23855.9
22454.4
21421.6
18637.8
16633.5
14252.5
12356.5
18014.6
23790.4
22159
24623.7
23443.6
22123.1
20123.9
19039.6
16744.7
13024.6
17798.2
24786.9
27651.3
24841.8
28530.6
23397.4
23859.3
22989
24279.9
23213.8
23492.7
22987
22729.9
24705.2
28732
24657.8
28781.8
22401.7
24710
22278.9
24725.5
23307.8
23440.1
23348.2
23465.3
20042.2
19005.3
13092.4
14790
19956.6
18576.4
12942
15061.4
20282.7
18903.1
13356.9
14754.4
20370.4
18706.5
13769.7
14730.4
1884.56
1159.75
747.013
1026.4
621.689
565.054
2664.37
1393.38
974.497
1962.09
1456.25
1166.74
2906.15
2094.42
1964.92
3387.21
2547.73
2175.75
22000.7
18412.3
16121.8
20716.2
17888.4
15916.2
15166.9
13082.3
11914.9
10805.7
8537.84
7531.4
5221.07
3456.07
2753.07
20222.3
17281.5
15141.4
21385.7
17958.7
15598.3
16338.4
12791
10854.3
10985.7
7911.67
6634.1
5510.73
3400.81
2550.06
28374.7
27386.7
31244.9
27655
32265.6
27693.7
39441.7
29505.5
21556.6
21410.9
21402.8
19512.4
24254.8
22380.6
23999.3
20147.6
23742
23299.8
21811.3
23037.4
28370.3
25821.9
29377.6
29983.6
32334.7
33626.9
24209.8
25271.9
21681.5
21127
26027
26812.9
16324.7
8765.57
15392.7
9701.02
16622.9
8843.01
15406
9641.34
16446.7
8876.15
15434.5
10054.1
15092.2
10521.2
15316.1
10414.2
21507.2
17999.1
21654.9
18141.6
24048
21412.8
24604.3
21397.8
20951.8
14840.8
21589.3
14510.1
22328.2
18154.7
22704
17978.4
25464.9
21346.7
25592.7
21123.8
20913.2
14957
20923.2
14874.2
13468.6
8885.62
11546.2
7517.3
12400.3
7933.57
11004.6
7016.76
13888
9447.06
11778.2
7750.2
13938.7
9764.5
11750.5
7798.28
2541.32
1320.18
4705.34
2665.08
2693.57
1588.49
4993.83
3122.61
3280.58
2354.03
5499.16
3981.41
12643.3
20056.4
9045.29
8646.92
6292.66
19392
13157
7551.52
7591.14
5176.95
20516.8
15807.7
12343.5
9495.88
6140.4
699.553
477.78
1639.85
1230.2
944.157
599.104
2158.83
1686.76
1591.02
1106.09
2986.82
2373.23
19269.5
17840.9
12655.1
11480.5
7985.51
7517.34
6665.84
5627.3
4375.81
3471.33
18332.3
15965.8
13812
11452.2
10481.2
8659.89
7865.28
6519.59
5330.46
4831.87
14437.4
10980.3
14684.6
10909.4
17858.3
14247.8
18021.3
14319.2
11933.9
9013.27
11467.1
8891.23
14788.9
10851
14721.7
10855.8
18059.8
14738.6
17929.7
14740.1
12217.3
8957.96
12201.2
9074.08
9115.34
7107.51
6250.45
5995.8
8710.57
6848.09
5959.46
5616.29
9532.94
7289.87
6420.12
6335.42
9743.31
7288.68
6660.73
6421.4
1119.5
943.246
758.407
4757.69
2457.9
1953.8
1099.88
1041.38
897.219
5258.29
2953.1
2430.88
1563.51
1670.59
1654.81
5978.04
3776.09
3253.7
15656
13561.9
12248.2
10159.5
9079.18
8470.21
7026.79
6387.28
6093.4
5657.26
5070.74
4734.63
7004.26
4757.73
4136.29
13574.6
11459.6
10154.6
9524.98
8061.05
7266.39
7449.35
6285.43
5682.74
6706.77
5475.47
4814.72
8675.54
5409.9
4628.15
4699.91
2699.09
1616.31
1004.38
5262.56
2920.29
1701.87
1034.36
4728.01
2702.01
1621.68
1009.82
5373.72
2982.98
1746.72
1060.37
4730.02
2686.4
1652.86
1033.34
5489.24
3026.64
1816.74
1100.86
5891.58
3191.44
1818.69
1093.45
6042.19
3299.89
1851.72
1112.91
5027.41
2859.13
1733.22
1062.77
4223.21
2556.43
1609.74
1012.13
4453.09
2610.45
1636.29
1016.11
3921.71
2421.39
1551.78
980.798
5410.29
3044.28
1793
1088.36
4403.25
2653.28
1643.96
1034.13
5617.51
3166.47
1838.38
1115.83
4481.28
2720.89
1676.89
1056.57
3604.43
2338.52
1489.71
958.443
2495.28
1921.64
1336.5
898.538
3623.47
2334.28
1492.63
959.3
2598.09
1950.34
1346.45
904.143
3722.75
2344.74
1516.52
975.658
2895.08
2037.63
1381.51
925.326
3710.01
2308.08
1506.57
1000.19
3158.78
2104.16
1431.67
935.426
3520.22
2262.64
1486.3
967.229
1480.18
1596.78
1089.7
330.669
461.066
1424.12
997.07
332.841
1671.45
1661.55
1117
348.051
673.344
1494.03
1019.88
340.283
2041
1778.44
1154.14
348.043
1049.12
1614.89
1051.73
344.75
2511.08
1923
1218.42
377.495
1479.2
1755.09
1100.75
360.313
2857.77
2062.6
1299.32
433.421
1668.87
1871.64
1147.51
374.289
3090.64
2225.65
1334.24
418.709
1590.4
2017.77
1236.26
399.549
2998.73
2154.87
1309.93
417.505
1515.26
1951.55
1191.24
385.001
3134.82
2273.58
1342.89
394.422
1587.65
2070.48
1261.19
401.851
3198.19
2319.26
1371.69
400.687
1678.66
2119.26
1290.38
410.227
680.181
426.335
246.454
124.991
37.9322
676.021
425.921
246.74
125.198
37.9967
689.308
430.726
248.265
125.715
38.1262
689.421
431.496
249.109
126.169
38.2596
709.11
436.805
250.556
126.613
38.3665
707.355
437.794
251.802
127.284
38.5638
714.467
444.558
255.238
128.8
38.9863
729.934
453.731
259.89
130.878
39.5702
728.452
443.933
253.748
127.964
38.7376
771.928
451.955
255.886
128.67
38.9154
731.591
441.958
252.244
127.235
38.5292
770.692
448.933
254.227
127.927
38.707
733.92
449.797
256.795
129.32
39.1172
786.011
457.611
258.625
129.881
39.2545
751.241
458.77
261.16
131.251
39.6583
804.285
465.628
262.385
131.536
39.7186
694.86
428.067
246.359
124.82
37.8747
724.403
430.23
246.373
124.722
37.8401
703.761
431.578
247.739
125.359
38.0175
731.818
432.948
247.445
125.14
37.951
722.401
437.403
249.874
126.188
38.2382
748.138
437.9
249.326
125.88
38.1481
749.631
443.759
251.985
126.99
38.4505
767.504
443.157
251.414
126.721
38.3744
774.595
446.994
253.154
127.451
38.5741
13188.9
20563.5
13611.1
20675
14168.4
20717.6
14351.3
20514.4
13377.8
19242.5
11883.9
13483
12066.1
14452.2
11862.2
13210.6
12037.5
13309.1
11842.7
2041.27
440.031
99.6505
17.7889
13214.6
3782.84
925.495
211.863
37.7969
11835.3
2006.86
430.13
97.1431
17.306
13175.6
3732.54
911.041
207.781
36.7793
11713.8
1964.09
418.419
94.2638
16.7777
13011.8
3658.39
890.119
202.608
35.8512
11325.5
1862.57
394.236
88.7809
15.8146
12572.4
3511.67
853.197
194.238
34.38
10458.2
1677.84
355.125
80.3878
14.3744
11638.5
3262.59
796.661
182.179
32.3327
8900.09
1486.77
325.814
75.1877
13.5812
9122.56
2697.28
678.706
158.331
28.4469
9389.64
1542.99
333.896
76.4837
13.7569
9893.77
2917.64
726.657
167.911
29.9701
8684.35
1464.75
322.514
74.6379
13.502
8816.99
2589.38
652.318
152.774
27.5479
8613.3
1446.67
318.249
73.687
13.3213
8774.09
2556.92
642.401
150.82
27.1608
36095.7
52043
50668.9
34859.4
20070.8
21208.2
29684.7
31219.2
23560.2
26626.5
37858.7
52210.6
48049
64179.3
31182.1
35780.6
24264.1
26076.7
13088.4
14412.2
4677.62
2929.34
490.26
332.576
376.818
316.467
424.809
4328.78
4001.63
2308.27
3112.66
2804.06
1134.04
1686
1419.48
873.765
1027.33
799.489
3971.33
1885.91
1013.13
879.358
1228.29
1035.54
752.813
671.568
580.549
492.085
751.26
666.366
4277.72
2405.83
2810.66
1621.98
1245.74
1916.47
760.44
525.553
857.614
9181.97
8635.64
8175.31
8491.75
12939.2
6255.92
6704.44
6823.99
7173.63
8001.35
1265.46
1753.3
2088.26
2296.13
2397.7
868.84
1225.56
1482.03
1644.95
1723.98
983.848
1385.81
1672.14
1851.49
1937.22
828.829
1173.31
1422.76
1581.41
1658.01
1104.14
1544.87
1853.78
2045.92
2138.1
8796.82
8509.13
7828.32
7709.06
11284.1
8122.3
7714.78
6966.68
6679
7328.76
5128.52
5721.98
5794.18
5854.58
6112.25
6476.57
6394.21
5839.65
5487.22
5449.35
5837.17
5831.07
5335.99
4945.15
4800.25
2750.44
3472.27
3821.8
3990.16
4077.25
3885.22
4554.72
4740.34
4793.15
4857.25
3324.43
3984.23
4196.98
4239.81
4251.45
2175.36
2851.06
3229.24
3425.05
3513.72
2508.94
3196.05
3533.76
3684.83
3747.62
2006.56
2659.66
3037.37
3234.49
3320.31
8222.05
8210.85
7768.17
7850.96
11605.4
4332.19
5088.5
5372.03
5581.32
5890.03
2496.6
3227.54
3625.99
3843.62
3961.07
2193.81
2890.03
3301.06
3539.35
3666.05
2968.49
3741.44
4141.6
4381.48
4554.05
2555.38
3317.58
3756.29
4023.12
4183.56
1901.2
2552.65
2966.98
3221.16
3355.08
1710.56
2322.26
2716.99
2952.99
3069
1491.17
2047.41
2412.6
2626.29
2724.99
1272.78
1766.89
2103.89
2308.09
2404.4
1897.05
2540.04
2931.65
3151.6
3255.49
1696.71
2301.22
2687.54
2914.13
3023.1
8599.62
8344.25
7952.44
8214.9
12381.3
5303.69
5936.78
6184.2
6524.94
7146.71
6307.13
6944.21
6960.59
7234.69
8419.81
3821.16
4669.38
5101.21
5426.55
5743.04
3024.72
3843.84
4296.41
4591.26
4801.6
4408.77
5203.93
5535.75
5808.74
6186.75
1920.1
2575.76
2988.63
3237.79
3366.92
1353.88
1869.08
2217.01
2428.69
2530.37
2145.8
2840.08
3259.38
3508.71
3642.53
20464.7
13689.6
21001.4
15126.7
26922.9
39284.6
28288.7
39215.9
21471.6
22498.8
18535.7
21894.4
23973.5
22509.7
31121.4
25042.1
16067.5
15456.1
7870.92
6894.3
17427.8
16310.8
8995.86
7496.67
21703.7
23299.4
21969.6
19813.1
22726.4
14925.6
12142.5
13986.8
19744.9
19666.1
41577.8
43313.3
28546.2
30011.9
18104.1
14715.2
19468.8
13257.7
9499.2
9129.71
16692.5
18766.1
6949.31
7691.17
18222.8
21187.4
8606.27
9639.91
17135.3
24571.4
9901.93
15590.3
3407.49
8550.75
2498.46
5842.84
19729.8
22385.8
19695.5
22818.8
20995
21127.4
22312.1
21736.7
18398.5
23216.2
20945.6
22906.2
19362.5
22968.1
19436.5
23115.1
23223.9
21983.8
23597.7
22111.9
16228.8
23308.4
15326.8
23391.1
21206.9
25720.3
25637
36702.7
23225.4
30784.6
25842.2
40681.2
19483
21857.4
25441.1
34816.8
18840.7
19858.6
25534.4
34272.9
22995
24749.7
29433.2
44202.2
22936.4
23324.9
31397.8
44621.5
22295.3
21766.8
33578
43906.2
19900.2
20197
21979.6
24226.6
37923.1
19299.2
18499.1
23318.7
21926.4
43711.7
20136.7
21598.8
22129.7
24989.9
46832.8
12815.7
11484.7
12487.6
16683.6
14069.1
12638.6
12895.4
17053.9
15571.2
13195.8
13416.3
17291.2
18411.7
17220.7
17731.5
16804.6
21326.6
19386.1
18019.3
15899.5
13974
17927.6
19550.4
18825.1
21304.7
20985.6
21101.4
19492
19782.2
17355.5
13683.6
17201.4
23330.8
26030.5
24173.8
27706.1
21469.5
22090.1
22109.8
23434.5
22981.2
23114.4
22513.5
22096
24397.5
28357.8
24567.7
28674.8
22006
24314.8
22164.1
24612.7
23189.9
23262.2
23310.8
23414.5
20152.3
18962.3
13283.6
14821.7
20210.8
18577.8
13341.9
15078.4
20326.4
18878
13444.6
14778.5
20381.1
18698.5
13796.2
14738.4
10346.8
10528.7
4595.41
4175.19
11547
11101.2
5143.66
4872.94
11199.1
10314.3
5812.36
5549.4
16470.7
15599.2
16592.2
16355.9
17108.3
16228.8
13296.5
11593
6914.93
5562.02
18477.4
17263
20471.3
19175.4
16845.5
15147.4
12502.5
10366.4
6305.85
4523.02
23111.8
21641.4
29010
24876.7
26316.1
23069.5
36894.3
27229.3
20851.7
16756.3
23063.3
17822.5
20675.8
17060.9
23165.1
18113.2
21587.6
18740.5
19315.2
17624
21325.5
23050.4
28040.5
29590.7
31329.3
33355.6
22930.4
24845.5
20538.8
20804.3
24447.1
26285.5
13348.7
9666.23
13943.2
9939.37
13658
9600.82
14189.7
9822.92
13588.7
9477.71
14211.9
10073.3
14355.3
10439.9
15064
10377.1
17556
16717
19723.4
17349.4
20557
19447.8
22809.8
20328.1
19031
14481.5
17760.8
14143.1
21385.8
17735.1
22427.5
17851.3
24629.8
20818.8
25358
20966.7
19948.2
14733
20635.3
14803.5
12967.1
9153.57
11634.5
7802.32
12194.4
8785.55
11439.2
7674.05
13525.5
9510.08
11773.7
7871.23
13816
9771.39
11744.3
7835.54
12569.6
12293.4
8988.53
8208.31
12707.9
12427.9
8857.21
8146.61
12654
11976
8655.47
8081.84
15152.6
18334.2
15615.7
11374.4
8377.1
16889.7
15432.5
16754.9
11245.7
8048.9
18701
16078.2
13852.6
11361.5
7541.82
12180.9
12350.9
7903.61
8081.98
12139.8
12141.1
7864.13
8013.76
11425.5
11161.9
7608.46
7415.58
16411.9
15053.3
14382.4
13272
14398
14086.4
10931.1
10923.9
7441.48
7015.05
16631.3
14695.2
14448.9
12526.5
12540.1
11235.5
10348.8
9602.5
6935.42
6814.03
14221.7
11402.2
14400.9
11006.3
16724.3
13632.3
17354.4
13961.2
12028.2
9439.56
12007.9
9998.7
14602.4
10865.3
14662
10854.3
17726.5
14550.4
17830.5
14684.4
12195.1
9111.36
12182.3
9107.04
9482.55
7704.06
6638.42
6555.95
9657.35
8208.42
6776.32
6809.03
9656.9
7525.85
6588.82
6610.18
9774.01
7351.55
6713.99
6502.85
13714.8
13480.4
17092.4
14635.8
13350.9
13153.5
16431.8
14014.9
11858
12030.5
15143.6
13021.4
14088
13255.6
12352
11786.5
13581.2
13502.4
11685.1
11287.3
13900.1
11797.8
13115.5
12062.4
11203.8
10625.2
10704.1
10575.1
10696.3
10144.2
13316.4
10589.6
5865.55
3416.83
1998.72
1209.91
6077.65
3518.48
2047.22
1225.31
5782.69
3367.04
1971.22
1196.29
6043.79
3495.58
2045.32
1227.13
5632.82
3270.46
1963.67
1199.89
6003.71
3437.22
2067.62
1243.99
6175.28
3444.59
1981.41
1189.09
6134.01
3386.89
1906.65
1145.92
5478
3187.53
1938.07
1184.87
4539.37
2795.53
1759.35
1104.51
5205.12
3090.74
1911.5
1171.22
4458.9
2794.95
1758.16
1096.58
5646.69
3236.52
1918.89
1165.18
4568.67
2786.85
1735.26
1094.62
5688.84
3230.01
1881.02
1142.34
4532.56
2764.07
1707.63
1077.2
5442.44
3232.43
1924.98
1183.68
4792.55
2970.07
1825.34
1142.49
5329.44
3179.75
1901.8
1169.61
4718.41
2940.37
1809.91
1136.31
5176.28
3095.82
1886.2
1167.19
4671.2
2902.88
1795.64
1132.65
4826.08
2937.48
1825.46
1169.11
4539.72
2838.47
1786.49
1107.69
4343.53
2777.98
1748.63
1102.3
3908.37
2710.35
1553.63
443.61
2621.01
2549.85
1474.89
462.228
3928.5
2709.11
1558.76
458.981
2713.06
2550.66
1474.76
464.545
3972.53
2694.75
1543.75
442.612
2843.71
2539.87
1457.27
455.384
3927.58
2660.04
1557
464.047
2829.44
2507.98
1447.8
457.075
3722.84
2591.55
1570.78
513.666
2462.37
2433.67
1427.29
455.457
3350.17
2442.44
1482.39
468.56
1771.54
2252.23
1378.17
445.145
3480.51
2504.86
1519.47
482.476
1907.39
2329.52
1397.79
447.721
3262.03
2391.3
1430.27
424.356
1662.47
2195.49
1342.25
428.69
3234.95
2356.47
1400.23
410.63
1696.84
2157.85
1316.26
418.919
801.534
489.27
276.888
138.367
41.6729
786.886
485.488
275.918
138.083
41.6053
800.981
487.989
275.954
137.891
41.5323
786.776
483.377
274.52
137.398
41.4058
810.53
487.242
274.847
137.291
41.354
789.482
480.706
272.79
136.562
41.164
770.31
474.195
269.821
135.265
40.8005
750.366
464.859
265.402
133.329
40.2587
802.964
482.645
272.494
136.227
41.052
841.408
486.278
272.33
135.9
40.9397
826.479
488.093
274.309
136.92
41.2386
860.601
490.349
273.882
136.541
41.1164
782.778
476.208
269.709
135.034
40.7198
830.777
480.735
269.814
134.821
40.6396
768.068
467.88
265.645
133.242
40.2174
819.597
473.649
266.291
133.266
40.2041
832.814
495.038
278.078
138.668
41.7396
884.415
500.365
278.926
138.861
41.7813
834.739
494.361
277.453
138.335
41.6401
885.256
499.706
278.434
138.607
41.7056
843.287
493.655
276.436
137.793
41.4793
889.209
498.446
277.454
138.117
41.5621
861.866
493.846
275.527
137.273
41.3234
894.991
496.226
276.163
137.511
41.3872
881.043
493.04
274.835
136.931
41.2236
14669.5
19535.9
14700.8
19492.3
14764.2
19380.9
14377.6
19001.5
13250.2
17873.8
11915.7
13425.1
12100.6
14208.2
11884.3
13203.8
12045.4
13310.5
11631.3
1965.81
421.153
95.3761
17.0512
12524.2
3605.33
883.586
202.646
36.2196
11544.7
1927.29
411.381
92.9977
16.5989
12428.9
3549.59
869.152
198.767
35.2652
11318.7
1879.95
400.16
90.3637
16.1228
12208.6
3471.97
849.202
194.04
34.4321
10882.9
1783.81
378.235
85.4494
15.2609
11788.9
3337.62
816.181
186.633
33.1335
10118.7
1621.58
343.732
77.9902
13.9726
11023.4
3125.75
767.34
176.12
31.3375
8843.74
1473.88
322.391
74.3398
13.4266
9041.42
2664.11
669.356
156.085
28.0476
9248.08
1514.6
327.275
74.9782
13.4949
9664.69
2843.05
708.329
163.874
29.2871
8664.98
1459.53
320.955
74.2213
13.4228
8792.88
2577.1
648.36
151.737
27.3539
8609.02
1445.29
317.804
73.5628
13.2971
8769.33
2553.98
641.353
150.528
27.1041
35705.4
51916.7
50049.3
33624.6
25827.2
31333.7
24860.4
31179
29502
48027.1
31457.3
49311
44.7652
53.5315
73.0262
106.281
158.622
237.71
51.7813
61.3681
82.5498
118.208
172.869
252.74
39.6711
37.2196
48.5222
46.6877
68.3844
68.1796
102.749
106.334
156.415
165.491
233.127
242.169
354.717
523.788
769.186
1125.6
1556.23
1869.18
365.462
518.641
718.473
959.05
1199.27
1356.75
119.262
173.561
216.29
245.538
260.346
142.447
206.892
257.306
291.629
308.941
193.94
280.778
348.065
393.481
416.254
281.513
405.828
500.955
564.456
596.066
418.641
600.053
736.597
826.486
870.858
624.128
887.355
1081.05
1206.38
1267.71
137.831
200.286
249.216
282.578
299.423
163.116
236.478
293.562
332.245
351.696
218.904
316.162
391.015
441.251
466.351
312.496
449.118
552.791
621.539
655.636
455.173
650.055
795.343
890.341
937.097
661.939
937.58
1138.51
1267.8
1331.02
105.763
154.087
192.239
218.434
231.724
99.262
144.698
180.629
205.339
217.888
129.213
187.898
233.968
265.434
281.338
124.369
180.95
225.438
255.864
271.258
181.769
263.523
327.122
370.194
391.838
181.281
262.943
326.555
369.684
391.371
272.436
393.379
486.338
548.611
579.672
282.007
407.339
503.744
568.351
600.578
413.336
593.597
729.944
820.005
864.519
437.385
628.24
772.588
867.864
914.909
613.217
874.212
1067.47
1192.9
1254.27
637.383
909.388
1110.98
1241.7
1305.51
924.031
1298.05
1564.64
1733.64
1815.98
1348.28
1860.97
2210.71
2428.4
2535.97
1944.28
2614.9
3045.47
3312.44
3453.45
2767.25
3582.7
4064.67
4377.12
4576.41
3690.75
4555.32
5018.91
5363.17
5663.01
4334.72
5192.21
5620.61
5983.65
6367.77
950.292
1331.37
1601.31
1772.07
1855.42
1335.63
1844.65
2192.49
2409.28
2516.28
1826.94
2477.4
2902.82
3166.25
3301.27
2400.62
3184.27
3671.87
3977.28
4146.97
2953.04
3830.29
4351.05
4688.25
4898.12
3307.08
4231.48
4765.48
5122.24
5362.39
45.3798
55.5095
76.776
112.534
168.477
252.593
52.4683
63.5494
86.5833
124.675
182.483
266.106
40.2527
37.8001
50.4216
48.6127
72.0967
72.0505
109.211
113.365
167.072
177.279
250.54
262.762
375.278
548.257
793.588
1143.16
1564.01
1870.84
382.491
537.925
737.295
973.959
1208.14
1359.57
120.92
176.022
219.419
249.15
264.212
147.781
214.815
267.392
303.279
321.414
204.068
295.855
367.3
415.74
440.109
298.441
431.117
533.332
602.027
636.395
445.412
640.269
788.363
886.811
935.759
664.764
948.883
1160.85
1299.91
1368.66
139.685
203.044
252.731
286.641
303.775
169.007
245.249
304.753
345.197
365.578
229.817
332.449
411.848
465.409
492.272
330.038
475.402
586.54
660.792
697.824
481.344
689.495
846.264
949.823
1001.18
698.521
993.162
1210.83
1352.79
1422.88
107.33
156.408
195.185
221.83
235.356
100.825
147.011
183.564
208.72
221.502
134.332
195.489
243.616
276.564
293.246
129.554
188.635
235.197
267.117
283.293
191.787
278.413
346.088
392.115
415.315
191.724
278.457
346.306
392.503
415.804
289.914
419.452
519.67
587.247
621.117
301.024
435.708
540.013
610.391
645.676
442.271
637.025
785.798
885.048
934.47
469.433
676.438
834.697
940.302
992.877
660.701
945.96
1160.34
1301.57
1371.45
693.5
994.092
1220.53
1369.83
1443.64
980.691
1385.02
1678.84
1868.75
1962.55
1416.87
1968.8
2355.28
2602.07
2725.96
2015.13
2731.3
3207.01
3511.34
3674.15
2822.83
3682.52
4211.52
4565.33
4790.6
3721.01
4618.13
5117.79
5495.83
5819.31
4343.45
5212.95
5654.89
6031.13
6425.07
997.287
1403.66
1696.44
1884.82
1977.87
1389.57
1929.2
2305.6
2545
2664.68
1880.76
2564.26
3021.81
3311.51
3461.67
2444.87
3258.83
3777.29
4108.93
4294.32
2980.77
3879.51
4422.95
4780.11
5002.51
3316.3
4248.48
4790.85
5155.13
5400.14
4662.06
2926.16
522.952
357.79
420.07
347.408
463.484
4139.62
3840.42
2335.65
3000.02
1228.69
1767.54
966.314
1109.16
878.928
3876.58
1923.8
1093.01
943.837
1288.96
1084.09
788.125
722.167
656.635
553.082
829.226
729.165
4233.63
2404.01
2788.04
1638.21
1279.03
1940.12
805.602
572.991
911.836
9172.72
8661.82
8233.08
8589.05
13117.5
6259.22
6728.15
6870.32
7244.24
8094.37
1356.88
1896.44
2279.4
2524.95
2647.5
938.155
1331.54
1620.67
1808.49
1901.07
1102.14
1565.35
1905.53
2125.61
2233.48
913.438
1301.67
1589.52
1777.12
1869.39
1211.11
1709.86
2071.2
2303.68
2417.94
8787.29
9156.86
9034.5
9402.92
13749.3
8333.56
8867.67
8916.22
9264.37
10386
5374.15
6384.53
6888.58
7310.35
7799.96
6912.69
7842.33
8059.82
8353.84
8700.07
3059.39
4034.21
4637.96
5013.24
5218.78
4237.99
5309.75
5901.56
6286.9
6543.01
2456.95
3333.36
3908.95
4263.56
4442.07
2797.34
3751.13
4358.57
4728.69
4917.24
2250.98
3084.47
3643.15
3987.4
4156.8
8190.27
8529.17
8446.94
8852.04
13160.5
4514.24
5507.97
6048.18
6481.15
6939.42
2743.87
3659.49
4243.81
4613.64
4818.9
2386.84
3217.04
3761.69
4109.36
4299.24
3168.54
4111.89
4689.76
5079.8
5343.81
2705.32
3580.44
4135.57
4500.56
4719.63
2004.23
2722.86
3203.79
3512.87
3678.71
1855.6
2556.61
3037.31
3342.31
3497.29
1703.78
2379.62
2854.88
3154.51
3300.96
1441.18
2025.84
2444.22
2710.95
2841.61
2124.79
2915.15
3449.52
3783.68
3951.83
1876.77
2591.89
3083.99
3394.8
3551.02
8580.43
8440.02
8152.1
8536.23
12955.6
5326.07
6015.73
6326.43
6731.42
7407.89
6341.22
7153.8
7362.34
7824.15
9200.18
3887.78
4812.8
5330.91
5736.35
6108.36
3134.46
4048.29
4602.67
4986.78
5253.27
4528.46
5489.99
6009.18
6452.22
6949.31
2051.8
2792.97
3290.13
3608.18
3776.99
1486.99
2078.35
2497.02
2764.1
2896.49
2306.96
3111.42
3640.78
3980.67
4167.01
5610.11
5401.43
5016.5
4386.02
3344.97
1348.29
20633.7
20922.1
23311.5
24197.1
19934.6
20911.2
22065.9
21115.8
17245.1
22442.7
17829.8
22901.6
20399.2
18272.7
29578.4
19631.9
19759.1
21779.9
22381.5
18625.6
19595.9
20896
20214.2
17069.6
27117.2
17547.7
26709.4
20529.5
22525.6
31707.3
18419.9
18402.6
19767.6
20081.3
17531.5
18984.7
19275.8
19169
19446.1
23554.9
20198.2
23415.3
22200.6
24840.2
28102.8
17202.1
17208.1
17789.4
17917.2
16724.1
18420.7
17492.7
17699.6
17868.6
20190.7
18576.4
19505.6
19860.3
21773.3
23667.3
15974.6
16017.9
16342.1
16373
16083.9
17904.8
16206.2
16601.9
16599.3
16164
17326.3
15335.2
17817.7
17650.3
18911.5
15365.4
15461.1
15339.4
15331.3
15431.7
16848.5
15342.7
15649.8
15580.9
13489.8
16069.6
13061.7
16226.1
14954
16674.3
22413.6
21408.6
23923.5
25308.9
20431.6
20203.3
22033.2
20798.5
19287.6
13835.7
19169.1
13889.4
16894
15160.4
17978.1
20856.6
20120.1
21816.5
22744.1
19486.8
19451.2
20532.3
19492.2
17473.9
13025.2
17394.5
13109.9
15088.2
13291.2
16171.7
18727.6
18275.8
19209
19684
17877.4
17851.2
18529.8
17859.3
16048.4
12285.2
15768.6
12042
13969.8
11714.1
15301.1
16498.4
16225.6
16989.5
17226.5
15937.9
15840
16705.8
16153.8
14396.6
11928.3
14230.5
11674.5
12752.2
11269.7
14753
15094.3
14903.1
15583.1
15717.2
14517.3
14419.6
15467.1
15074.6
13524.4
12231.7
13404.6
12098.8
12275.6
11323.3
14558.3
14071.4
13900.7
14682.9
14779.2
13620.8
13747.1
14554.5
14342.5
13010
12402.6
12958.8
12346.7
11994.4
11513.8
14730.1
12622.1
7166.13
20654.9
13631.8
22645.7
16799.6
35243.3
44111.2
46497.6
57316.3
30231.6
26349.3
19151.5
15301.6
9373.19
6250.15
21131.9
21240.6
18369.7
21381.1
28526.8
25036.2
33331.7
26532.3
8751.61
6186.92
4892.39
3677
10532.7
8549.12
6500.19
5352
19963.9
20383
20049.8
16367.1
15195.4
12224.4
12182.9
13951.3
19576.5
19606.8
41690.1
43255.3
29080.3
30126.5
17188.1
14500.2
18383.3
13039.9
8556.39
8888.17
7165.42
10791.4
3736.31
4723.37
9950.09
14528.2
6011.34
7242.56
10822.3
19454
7591.64
12926.8
2855.67
7614.66
2383.29
5656.11
18530
23051.3
19487.3
23175.5
22495.5
22577.5
23274.6
22514.2
16850.1
23050.3
16996.3
22613.9
19363.4
23149.9
19454.8
23174
23690.1
22366.5
23729.2
22228.4
15684.2
23234.5
15211.9
23374.9
19888.4
24095
25104.5
36131.1
21106.5
28220.5
24915
39737.4
18845.2
21035.7
25179.2
34510.5
18666.7
19623.4
25462.4
34179.5
6571.6
8859.85
16998.8
30755.6
8106.1
9402.31
21788.9
34605.1
9812.37
9973.38
27057.2
37559.1
25802.4
26741.9
22727.2
22808.9
35033.4
26667.7
25911.1
23054.3
20604.4
40683.9
24422.8
24751
22815.8
23866.2
45557.5
2418.4
2959.08
5335.53
13101.2
3448.27
4002.32
7295.82
14373.1
4981.19
4245.5
9626.68
15856.6
25814.6
24496.5
23855.5
22454.2
21420.7
18637.3
16634.4
14253.4
12358.9
18016.2
23790.7
22159
24623.8
23443.6
22123.5
20124.3
19041
16745.7
13026.1
17799.3
24787.4
27651.4
24842.4
28530.8
23397.9
23859.2
22989.4
24279.9
23214.6
23493.3
22987.8
22730.5
24705.7
28732.1
24658.3
28781.9
22402
24710
22279.1
24725.4
23308.6
23440.6
23348.9
23465.8
20043.3
19006.2
13093.3
14790.9
19957.8
18577.3
12943.2
15062.4
20283.7
18903.9
13357.8
14755.1
20371.4
18707.2
13770.5
14731.2
1861.1
1142.55
733.755
1023.33
616.726
559.068
2673.83
1398.08
976.07
1970.16
1460.89
1168.87
2906.61
2095.09
1965.69
3388.1
2549.11
2177.09
22000.6
18412.6
16122.2
20716.4
17889
15917
15167.3
13083.1
11915.8
10806.4
8538.7
7532.36
5221.69
3456.82
2753.78
20222.2
17281.8
15141.8
21385.9
17959.1
15599
16338.8
12791.6
10855
10986.3
7912.3
6634.79
5511.23
3401.26
2550.46
28379.3
27388
31248.1
27656.2
32280.7
27699.5
39455.1
29510.6
21369.9
21353.7
21180.3
19442.3
24221.2
22350.3
23962.2
20118.2
23736.2
23294.7
21811.1
23035.3
28352.1
25805.7
29378.6
29983.8
32338.5
33629
24207.7
25270.8
21680.5
21125.9
26019
26809
16327.8
8770.44
15388.9
9707.75
16603
8837.76
15389.1
9637.19
16433.6
8871.19
15423.1
10049
15085.7
10517.3
15312.8
10411.8
21505.3
17998.6
21653.7
18141.1
24050.1
21413.6
24606.2
21398.4
20946
14839.4
21581.9
14508.4
22327.5
18154.3
22703.4
17977.9
25466.2
21347
25593.3
21123.8
20909.7
14955.9
20921
14873.2
13465.1
8882.94
11544.3
7515.88
12396.6
7930.93
11002.4
7015.2
13885.4
9444.79
11776.7
7748.99
13936.9
9762.78
11749.3
7797.27
2529.46
1305.96
4691.6
2648.46
2693.82
1589.36
4993.54
3123.31
3279.55
2353.76
5497.45
3980.69
12644
20057.6
9044.8
8645.17
6291.01
19392.9
13157.3
7551.33
7589.83
5175.85
20517.5
15807.5
12342.3
9494.13
6139.05
685.855
462.963
1622.84
1219.02
945.208
598.914
2159.08
1686.36
1591.15
1106.48
2986.61
2373.39
19269.7
17840.8
12654.8
11480.1
7985.04
7516.76
6665.02
5626.86
4375.16
3471.08
18332.6
15965.8
13811.8
11451.8
10480.4
8659.32
7864.25
6519
5329.55
4831.27
14437
10979.9
14684.2
10909
17858.7
14247.7
18021.5
14319.1
11933.1
9012.63
11466.2
8890.55
14788.5
10850.7
14721.3
10855.4
18059.8
14738.5
17929.6
14739.9
12216.6
8957.38
12200.5
9073.52
9114.32
7106.81
6249.56
5995.04
8709.43
6847.37
5958.49
5615.53
9532.05
7289.23
6419.35
6334.69
9742.5
7288.09
6660.03
6420.75
1099.17
927.023
745.724
4728.22
2433.75
1931.44
1098.14
1040.63
897.226
5256.14
2953
2431.01
1563.87
1670.83
1654.98
5977.85
3776.28
3253.95
15655.8
13561.8
12248.2
10159.1
9078.86
8469.97
7026.19
6386.82
6093.05
5656.92
5070.46
4734.4
7003.7
4757.61
4136.27
13574.4
11459.5
10154.6
9524.64
8060.8
7266.2
7448.91
6285.13
5682.52
6706.25
5475.17
4814.51
8674.54
5409.56
4627.98
4699.61
2698.49
1615.71
1003.83
5260.94
2918.42
1700.79
1033.63
4726.77
2701.53
1621.43
1009.71
5372.87
2982.64
1746.54
1060.27
4728.63
2685.89
1652.61
1033.21
5487.79
3026.14
1816.49
1100.73
5890.14
3190.91
1818.44
1093.32
6041.06
3299.41
1851.49
1112.78
5026.24
2858.61
1732.96
1062.63
4222.42
2555.99
1609.49
1011.98
4451.99
2609.95
1636.03
1015.97
3920.9
2420.94
1551.53
980.654
5409.18
3043.78
1792.74
1088.22
4402.52
2652.87
1643.72
1033.99
5616.58
3166.02
1838.15
1115.7
4480.65
2720.52
1676.67
1056.43
3602.72
2338.24
1489.52
958.055
2492.21
1920.77
1336.36
898.211
3622.66
2333.87
1492.4
959.193
2597.54
1950.05
1346.28
904.066
3721.84
2344.31
1516.28
975.535
2894.46
2037.28
1381.31
925.216
3709.15
2307.65
1506.32
1000.04
3158.09
2103.78
1431.44
935.295
3519.47
2262.22
1486.05
967.075
1478.32
1595.99
1089.78
330.752
460.098
1422.71
996.594
332.682
1671.03
1661.37
1116.84
347.99
672.917
1493.96
1019.82
340.263
2040.6
1778.17
1153.97
347.984
1048.88
1614.67
1051.6
344.706
2510.59
1922.66
1218.22
377.435
1478.94
1754.8
1100.58
360.258
2857.22
2062.23
1299.1
433.353
1668.58
1871.31
1147.32
374.229
3090.14
2225.28
1334.03
418.648
1590.18
2017.43
1236.06
399.487
2998.19
2154.49
1309.72
417.442
1515.01
1951.2
1191.04
384.939
3134.37
2273.24
1342.69
394.368
1587.47
2070.17
1261
401.792
3197.8
2318.95
1371.51
400.637
1678.49
2118.98
1290.2
410.173
679.611
426.082
246.356
124.954
37.9224
675.372
425.607
246.612
125.148
37.9834
689.278
430.693
248.246
125.706
38.1238
689.377
431.462
249.09
126.16
38.2572
709.051
436.767
250.535
126.604
38.3637
707.29
437.755
251.78
127.274
38.561
714.392
444.514
255.214
128.788
38.983
729.856
453.686
259.865
130.866
39.5667
728.37
443.889
253.724
127.953
38.7344
771.824
451.906
255.86
128.658
38.9119
731.512
441.915
252.222
127.225
38.5262
770.592
448.886
254.202
127.915
38.7037
733.832
449.749
256.769
129.308
39.1137
785.905
457.559
258.599
129.868
39.2509
751.154
458.722
261.135
131.239
39.6547
804.182
465.577
262.359
131.524
39.715
694.293
427.851
246.28
124.791
37.8669
723.886
430.048
246.306
124.697
37.8336
703.743
431.547
247.721
125.351
38.0153
731.81
432.915
247.427
125.132
37.9489
722.345
437.366
249.853
126.179
38.2355
748.083
437.864
249.306
125.871
38.1455
749.55
443.716
251.963
126.979
38.4475
767.423
443.115
251.392
126.71
38.3715
774.499
446.948
253.13
127.44
38.5709
13128.9
20496
13614.4
20677.8
14170.5
20718.9
14352.7
20515.3
13378.8
19243.3
11884.7
13483.7
12066.9
14452.9
11862.9
13211.3
12038.2
13309.8
11833.6
2028.52
436.641
98.8566
17.6466
13199.1
3775.92
923.365
211.334
37.6978
11831.8
2007.73
430.295
97.1689
17.3093
13173.5
3731.7
910.734
207.691
36.7615
11713.1
1964.18
418.433
94.2613
16.7765
13011.3
3658.12
890.007
202.57
35.8431
11325.6
1862.59
394.234
88.7775
15.8135
12572.5
3511.62
853.16
194.222
34.3762
10458.5