/*--------------------------------*- C++ -*----------------------------------*\
| =========                 |                                                 |
| \\      /  F ield         | OpenFOAM: The Open Source CFD Toolbox           |
|  \\    /   O peration     | Version:  2306                                  |
|   \\  /    A nd           | Website:  www.openfoam.com                      |
|    \\/     M anipulation  |                                                 |
\*---------------------------------------------------------------------------*/
FoamFile
{
    version     2.0;
    format      ascii;
    arch        "LSB;label=32;scalar=64";
    class       volScalarField;
    location    "1.1";
    object      gradTx;
}
// * * * * * * * * * * * * * * * * * * * * * * * * * * * * * * * * * * * * * //

dimensions      [0 -1 0 1 0 0 0];

internalField   nonuniform List<scalar> 
5712
(
-7467.64
-9547.63
-17584.3
-25803
-26392.4
-45455.8
-20144.4
-51159.6
-16310.3
-35808
-24393
-37171.5
-21792.2
-28738.5
-9616.14
-11039.3
-16979.7
-19503.5
-21700.7
-21544.9
-16966
-20845.4
-24879
-22269.8
-6174.25
-4745.56
-7658.49
-5243.42
-14381.8
-11709.6
-24378.4
-17891.9
-18822.7
-19668.5
-21170.4
-20594.3
-7753.68
-5903.13
-44102.3
-59056.4
-28613.9
-35097.2
-58746.8
-76352
-30457.2
-34891.9
-32979.3
-46577.2
-28950.5
-38271
-17104.2
-27402.8
-3390.56
-1153.56
-3548.49
-1289.36
-10205.3
-4155.53
-13853.5
-5146.73
-10069
-3832.39
-10428.9
-3367.93
-17629
-5645.84
-22716.3
-7714.7
-26812
-13517.6
-24571.5
-14550.7
-24773.8
-16056.1
-21837
-16214.5
-19671.1
-11753.8
-19763.4
-10269.2
-25394.4
-16058.5
-25480.6
-16163.7
-23107.1
-17060.5
-23395.4
-17079
-21216.5
-13428.9
-21974.1
-13726.4
-20267.9
-8950.34
-9562.14
-11872.5
-20325.3
-9841.56
-8476.83
-12218.2
-21443.2
-8854.7
-10734.6
-11852.4
-22516.7
-9051.06
-11623.9
-12324.7
-4381.62
-4811.86
-1499.15
-3066.3
-12685
-13451.3
-5050.09
-9309.45
-16256.7
-17873.4
-8254.36
-14206
-12238.9
-338.734
-14532.3
-18716.9
-10604
37.2831
-6910.95
-13437.7
-22078.5
-16646.4
-11061.1
-13759
-12495.2
-11199.1
-17774.3
-4076.79
-3257.04
-2370.37
-2325.8
-11347.2
-9221.85
-7128.59
-6708.17
-13980.4
-11238.4
-9301.29
-8224.15
-5516.54
-7227.82
-11739.5
-12374.3
-15070.6
-13608.8
-17119.8
-14551
-12480.7
-10514.9
-9431.83
-9384.05
-12611.8
-9145.96
-11786.4
-7823.1
-10502.6
-6613.12
-12854.8
-8141.61
-10637.1
-4006.81
-9358.88
-9581.76
-12978.7
-16272.2
-14368
-20425.3
-7624.56
-7926.63
-9560.26
-1958.53
-8425.21
-15677.9
-8027.84
-16965.6
-14268.4
-25339.2
-14521
-27067.8
-6591.55
-13793.9
-6066.45
-14856.6
-9239.28
-6479.05
-13163
-4830.76
-9161.96
-702.243
-11296.9
197.49
-8999.33
-10119.9
-13844.4
-6202.58
-7548.63
-12068.7
-12358.8
-8230.67
-2454.78
-2076.1
-1718.34
-1788.7
-1577.35
-1330.4
-7124.31
-5397.74
-4350.53
-4775.92
-3517.82
-2839.75
-8294.4
-6640.4
-5901.29
-5674.75
-4209.52
-3791.49
-5981.25
-4811.15
-4518.09
-10449.1
-7123.46
-5646
-10392.1
-6888.91
-5170.28
-10795.9
-7765.18
-6402.31
-7488.11
-4463.97
-3235.49
-14964.1
-11863.8
-9550.99
-10115.9
-7696.09
-5801.16
-9542.66
-6705.8
-4773.77
-8473.16
-5530.67
-3744.96
-9464.77
-4906.32
-2429.61
-11082.5
-14836.4
-8915.96
-11334.3
-12342.1
-17886.8
-11159.6
-15940.3
-10.5522
-700.742
512.978
-137.979
-3033.27
-3313.82
-1346.9
-754.489
-881.789
-2557.93
-9781.64
-14067
-6664.72
-3892.31
-10651.4
-10581.3
-16777.5
-18491.7
536.039
4304.82
-7954.9
-7440.96
-7462.14
-5724.16
-1024.55
-533.215
-733.734
-338.738
-2006.5
-159.868
217.789
735.971
-9298.48
-2231.02
-6481.03
-1655.97
-9289.09
-2771.23
-11172.2
-3451.72
-9491.7
-12221.2
-8689.15
-11860.6
-15515
-15969.9
-14712.3
-15030.2
-5776.82
-9154.82
-6716.12
-9131.62
-9160.82
-11386.1
-10035
-11437.2
-15296.7
-14708.8
-15972.5
-14707.2
-5790.08
-8818.36
-6237.11
-8913.64
333.409
-935.12
-6725.19
-3642.65
810.951
-562.545
-6232.75
-3196.78
-95.2499
-1192.38
-6842
-3973.52
-474.294
-1407.6
-6812.67
-4065.53
668.854
759.129
-140.362
33.4305
2805.11
2767.41
268.525
480.199
650.58
1897.29
-1328.33
-635.741
10029.3
9981.33
5322.8
4108.83
632.603
10825.8
10546.8
4013.94
5895.47
1032.6
-10904.1
-8276.84
-6885.41
-6001.33
-3131.96
702.946
590.991
85.7293
35.2852
2256.3
1999.66
285.621
141.293
2297.45
2516
-296.077
-411.286
5007.96
1915.77
7602.74
4312.78
3226.06
2190.57
3653.88
2902.87
6.1008
-624.617
-4002.8
-2481.53
-1232.74
730.947
-944.234
615.776
-1260.57
-91.7869
-1222.37
-1298.24
-5133.35
-4527.14
-9683.01
-5759.09
-8284.64
-8011.54
-12502.6
-9927.93
-7165.31
-4057.43
-3526.54
-3344.95
-11404.7
-4981.99
-12502.4
-5568.32
-13931.2
-10150.4
-14838.3
-10922.9
-8729.32
-3286.28
-9744.37
-3801.35
-5064.98
-3683.37
-3194.94
-4596.55
-3145.42
-3327.74
-2673.34
-4242.32
-5888.8
-3576.07
-3619.46
-5287.56
-7247.13
-3869.77
-4760.32
-5426.7
522.454
505.457
546.434
47.6544
178.981
191.69
1898.37
1845.66
1773.3
216.502
513.812
495.261
2495.51
2520.72
2460.29
-260.353
511.93
650.672
836.473
688.268
394.062
2732.44
2671.14
2396.39
2143.52
2283.3
2177.25
2679.04
2639.98
2470.19
-740.225
231.521
295.078
-3587.08
-2046.41
-1136.97
452.178
1248.94
1652.85
517.978
1446.12
1821.64
255.77
1197.68
1445.12
-1391.2
298.978
487.319
20.3823
19.6242
19.0885
27.4753
200.315
94.1882
67.0934
53.2322
6.21941
33.6848
86.818
113.968
315.78
163.546
171.147
149.892
-172.165
-7.02029
127.12
212.07
87.1974
109.824
130.988
129.044
-12.3542
57.2682
46.838
41.2938
-189.041
-28.6375
50.4334
79.0634
-731.344
-174.518
-5.47294
90.8035
-1083.41
-265.123
-68.5688
177.133
-489.184
-86.8134
56.8346
171.479
-881.671
-202.884
-76.1942
146.156
-784.19
-200.141
20.8514
136.788
-1216.74
-311.685
-74.2035
213.814
-861.036
-243.479
24.2814
173.097
-1305.06
-349.594
-87.4766
222.077
11.8083
11.8715
18.1679
36.5362
39.3289
21.3072
8.18631
32.5108
71.5599
45.6533
65.4267
104.483
154.316
73.9413
31.7771
89.977
-283.168
-53.8948
53.3357
169.234
-99.351
10.6484
28.8956
155.843
-22.0854
67.0107
102.627
178.835
28.2819
60.6481
21.0491
156.049
-741.651
-156.73
-50.2069
212.277
71.2278
31.4718
16.3799
27.3794
123.687
46.8727
20.382
14.3167
152.838
74.5034
30.3678
67.1149
320.354
124.973
49.3896
35.8113
112.893
81.2444
37.4198
107.831
418.913
175.836
73.3625
55.1861
-18.719
70.8178
44.5971
150.552
357.854
189.008
84.0266
67.6707
-347.185
-0.144173
-10.882
131.509
153.693
159.077
68.6756
64.7104
-849.46
-113.401
-37.9884
144.43
-254.995
23.1631
27.7097
50.5853
-633.326
-45.2914
-27.1189
133.352
-115.341
84.0844
49.673
60.0434
-1036.19
-185.21
-57.741
156.921
-369.138
-29.7484
11.1657
45.1638
-1166.66
-247.995
-80.694
152.274
-461.895
-78.3792
-7.72344
37.483
11.9377
4.43835
1.81384
0.819566
0.468503
15.7293
6.57034
2.87188
1.33928
0.776183
28.5127
10.2027
4.13616
1.86869
1.06924
34.485
14.3695
6.30206
2.95197
1.7161
37.7029
12.6947
5.07015
2.28457
1.3072
45.2325
18.7373
8.22766
3.86463
2.25105
22.6701
9.32599
4.09596
1.9325
1.1303
16.6982
5.63898
2.2406
1.01595
0.586242
36.0552
12.5998
5.14181
2.34705
1.35203
17.2991
5.25588
2.02257
0.903302
0.516053
38.8293
14.5382
6.19037
2.87308
1.66449
16.6531
5.26466
2.083
0.938566
0.537563
27.8451
8.3428
3.15071
1.39616
0.796715
16.3741
4.6356
1.73977
0.773561
0.442609
25.2719
5.78908
1.7712
0.702568
0.383062
14.0051
2.79635
0.788108
0.300801
0.161569
10.1679
3.47198
1.37357
0.611383
0.347003
7.62537
2.79085
1.14724
0.518231
0.295501
25.1195
8.59534
3.46079
1.55879
0.890214
19.8287
7.24933
3.01735
1.37484
0.787878
34.8362
10.6206
4.11437
1.83064
1.04195
26.7268
9.81768
4.14243
1.90409
1.09687
30.8463
11.3988
4.87291
2.25846
1.30566
18.1577
7.30596
3.18967
1.48636
0.861121
15.5867
6.09338
2.66274
1.24247
0.719967
-167.036
-360.849
-260.153
-844.258
4.27833
-979.363
768.027
-583.021
1506.48
586.673
-427.659
-1058.82
1035.15
918.493
-1121.01
-1940.32
-1572.44
-2321.34
-825.156
-196.156
-44.9548
-10.0984
-2.58287
-216.377
-116.475
-15.869
-4.47533
-2.08729
-2531.46
-598.257
-137.58
-30.7542
-7.87833
-496.526
-147.441
-38.0242
-8.25138
-2.34178
-4217.85
-998.609
-230.38
-51.7035
-13.2248
-817.635
-257.553
-65.4578
-15.7938
-4.11085
-5581.5
-1325.53
-307.324
-69.2542
-17.7556
-954.082
-325.875
-85.3498
-20.7712
-5.38192
-6855.08
-1644.8
-384.399
-87.1662
-22.4729
-1065.99
-400.904
-107.732
-26.4845
-6.93537
-7878.26
-1948.94
-462.626
-106.05
-27.5464
-1838.08
-582.426
-147.713
-34.8358
-8.98595
-7429.07
-1832.71
-432.865
-98.7125
-25.5244
-1343.09
-480.138
-126.712
-30.6344
-7.92953
-8058.43
-1994.9
-474.542
-109.026
-28.3892
-2135.75
-648.165
-161.356
-37.4413
-9.62103
-8366.85
-2052.88
-489.006
-112.331
-29.2467
-2239.96
-679.575
-170.37
-36.771
-9.97462
-612.437
-7764.49
-7092.56
-2523.56
1749.28
2960.62
8208.73
12055
1712.1
8776.37
-2149.44
2395.63
2476.56
5156.51
9973.37
14224.8
15094.1
19036.5
6168.17
8010.08
-20100.5
-14253.9
-3681.9
-2567.08
-1806.56
-2483.42
-2546.92
-11958.2
-10474.9
-9231.42
-9240.13
-7120.45
-5192.71
-7155
-4305.35
-3646.66
-4267.49
-2923.53
-19547.9
-9531.3
-2933.13
-5152.1
-7571.08
-5080.33
-5270
-3812.3
-2127.02
-2965.24
-3383.69
-3702.97
-19665.5
-12535.8
-11745.1
-8270.87
-7874.17
-8588.21
-3144.85
-3967.03
-5553.88
-13648.1
-11132.9
-8646.9
-7202.77
-5509.4
-9038.03
-6004.58
-4367.61
-3058.4
-1428.1
-3203.95
-2609.54
-1917.83
-1174.86
-397.69
-2268.77
-1875.01
-1391.72
-855.002
-288.518
-1588.58
-1304.27
-961.065
-586.688
-197.199
-2201.6
-1824.14
-1355.51
-832.365
-280.518
-2235.11
-1832.51
-1350.2
-825.268
-277.851
-7370.22
-5319.02
-3847.16
-3186.71
-3047.32
-5486.96
-3801.68
-2502.08
-1898.45
-1235.86
-5715.55
-3427.63
-2276.6
-1469.05
-649.874
-4645.04
-3000.69
-1884.64
-1259.17
-682.443
-3276.8
-1985.73
-1180.42
-750.987
-341.475
-4044.88
-2962.09
-1997.88
-1165.25
-393.202
-4848.63
-3120.33
-2005.62
-1164.61
-417.384
-2807.3
-1691.94
-1011.25
-542.04
-179.096
-2962.84
-2247.04
-1550.71
-910.3
-303.168
-3359.83
-2467.86
-1652.37
-946.44
-310.709
-2403.59
-1840.84
-1277.05
-748.984
-247.812
-12444.3
-8995.24
-6734.53
-5376.77
-4524.03
-6857.58
-4838.26
-3388.89
-2167.85
-909.483
-2401.86
-1842
-1289.24
-768.931
-260.659
-4285.43
-3347.35
-2388.2
-1449.44
-498.77
-6075.23
-4640.11
-3296.09
-2038.45
-742.698
-4241.1
-3333.71
-2399.59
-1470.76
-510.178
-4476.51
-3571.99
-2594.64
-1590.94
-546.089
-3265.46
-2617.27
-1898.92
-1155.74
-391.494
-1811.13
-1436.6
-1026.88
-614.376
-204.903
-2579.71
-2094.7
-1529.64
-929.118
-312.01
-2837.16
-2220.3
-1574
-940.802
-315.629
-3159.22
-2519.29
-1817.4
-1100.29
-371.439
-13095.4
-10239.3
-7914.65
-6343.14
-4876.96
-8476.42
-5877.64
-4266.42
-2918.11
-1361.18
-8380.41
-6375.9
-4566.78
-3113.29
-1398.07
-6345.76
-4665.9
-3352.71
-2156.77
-834.617
-6421.54
-4987.73
-3592.81
-2241.55
-812.786
-6538.2
-4779.16
-3414.43
-2186.51
-835.037
-2646.91
-2089.57
-1502.73
-915.166
-313.356
-3449.93
-2803.38
-2052.07
-1250.99
-421.497
-4696.11
-3725.16
-2690.05
-1641.64
-561.417
-6406.41
-13141.3
-13491.3
-37379
-13121.4
-49401.9
-7233.16
-17640.9
-13129.7
-10067.5
-22112.8
-18314.7
-12888.5
-11899.6
-24515.2
-19143.7
-4747.16
-3557.14
-9295.25
-6458.53
-10612.8
-8023.58
-28805.9
-21477.8
-17356.7
-13004.7
-17930.5
-10607.3
-1265.96
-4345.99
-46064.2
-59896.8
-27699.1
-34973.9
-60243
-77005.2
-29413.9
-34648.8
-34595.3
-47421.2
-28135.6
-38271.2
-19019.5
-28343.3
-2318.55
-618.583
-4109.16
-1408.37
-7884.78
-3573.53
-16073.4
-5840.69
-3423.08
-1980.58
-8572.51
-2717.17
-17727.1
-5600.83
-22969.5
-7785.22
-18101.2
-9555.28
-21189.9
-12558.1
-16090.5
-11649.5
-18424
-14123.5
-17288.9
-10156.5
-13578.5
-7194.75
-24113.3
-15176
-25167.5
-15925.3
-21753.2
-16153.2
-23033.7
-16834.4
-20376.4
-12707
-21785.6
-13529.5
-19221.1
-8648.07
-8512.93
-11475.2
-17157.8
-8897.98
-6492.79
-11438.8
-21230.8
-8801.56
-10258.3
-11671.5
-22519.8
-9057.19
-11494.6
-12275.5
-1329.33
-1232.85
-341.288
-1560.74
-5412.44
-5702.13
-3494.92
-7141.31
-3216.12
-4002.62
-5557.88
-10604.1
-12553.6
-9485.98
-10311.8
-13255.1
-9138.58
-7321.19
-8203.56
-7915.52
-15476.3
-14407.4
-12654.1
-11072.3
-8109.57
-7251.37
-15816.1
-1347.52
-1003.7
-778.194
-877.595
-5080.84
-3982.76
-4422.07
-3905.84
-926.044
373.588
-5278.67
-4163.44
-10015.1
-10651.1
-9457.6
-8740.89
-7691.89
-5590.94
-10266.1
-8109.34
-9909.18
-7756
-11871.4
-11667.8
-10450.3
-7649.7
-8000.86
-5008.39
-7341.47
-4310.88
-11504.8
-6791.07
-9566.32
-4545.06
-8642.4
-9523.87
-13262.1
-17308.9
-14058.6
-20402.2
-6851.82
-7808
-8171.76
-2321.02
-8082.48
-15539.7
-7927.17
-16906.3
-14020.6
-25369.1
-14434.9
-27027.7
-6239.12
-13666.3
-5966.73
-14809.2
-8739.85
-6483.84
-13037.3
-4982.02
-8221.17
-1289.95
-11175.5
-796.46
-8776.35
-10065.5
-13786
-6230.26
-7479.85
-12044.5
-12338.9
-8229.95
-964.395
-888.884
-701.703
-806.851
-3024.23
-2225.19
-2833.99
-2588.61
978.392
376.014
-3301.92
-3600.81
-10442.4
-9666.44
-7860.84
-6532.56
-4472.66
-3631.49
-6403.11
-5199.12
-6548.68
-4719.8
-17983
-15186.6
-8226.93
-6560.35
-6632.11
-4630.89
-5768.36
-3353.91
-6481.59
-2498.58
-5662.28
-9314.57
-4862.89
-9609.6
-8892.85
-10929.7
-10080.4
-13714.2
-923.803
-604.254
-607.396
-470.662
-3517.46
-2321.98
-2716.29
-1271.85
-992.57
-1410.42
-8219.84
-8739.54
-4334.43
-3788.46
-9736.59
-10302.6
-15625.9
-18140.3
621.55
4270.54
-7284.09
-7236.05
-7078.65
-5637.11
-940.62
-813.766
-994.032
-789.993
-1456.51
-814.8
-268.576
-154.823
-7651.23
-3142.94
-6472.96
-2571.74
-9108.34
-3280.8
-11088.4
-3645.7
-5303.13
-10218
-7092.02
-10746.6
-9024.39
-12198
-12121.2
-13247.1
-4991.27
-8719.3
-4409.69
-8637.77
-8417.25
-10882.7
-9805.35
-11297.7
-14163.8
-13936.8
-15642.6
-14497.2
-5435.05
-8608.25
-6124.79
-8855.74
85.6918
-1430.45
-6892.24
-4048.01
114.67
-1459.11
-6797.56
-3854.01
-263.323
-1526.72
-6909.4
-4208.08
-538.257
-1538.36
-6828.73
-4143.68
-935.628
-999.114
-832.601
-856.158
-1767.65
-1761.95
-1034.6
-1059.74
-7708.91
-6895.24
-3085.88
-2964.84
-3274.82
-4712.32
-3582.36
293.91
-1061.49
-797.701
-1055.6
-3468.85
2798.29
-224.397
-14466.7
-11739.3
-9944.11
-8016.88
-4322.06
-978.567
-842.249
-929.934
-1084.06
-1711.01
-1317.65
-1345.19
-1746.77
-6975.5
-6612.02
-3216.78
-3980.49
-4721.56
-6445.65
-2762.37
-4686.76
-4357.82
-4688.03
-636.222
-1048.96
-1809.79
-2771.35
-9601.03
-7645.49
-7198.34
-5104.36
-5836.84
-4040.03
-4674.14
-3215.71
-2825.24
-2969.73
-7705.09
-7455.73
-10550.6
-6719.37
-10212.3
-10705.7
-12895
-10721.4
-8259.3
-4958.01
-5934.51
-5788.09
-11657
-5526.63
-12549.2
-5685.99
-13920.5
-10596.8
-14807.7
-11000.2
-9165.6
-3812.68
-9853.28
-3929.84
-6087.71
-4445.82
-4049.24
-5386.3
-5097.69
-5183.04
-3995.28
-5637.65
-6379.93
-4048.92
-4078.07
-5765.87
-7390.56
-4008.92
-4902.89
-5557.47
-639.948
-560.346
-776.154
-605.517
-1161.07
-1400.42
-1100.67
-886.737
-6277.6
-5490.9
-2589.39
-1200.33
-7503.52
-6957.88
-5635.94
-4946.17
-4460.58
-3807.1
-1438.64
-1532.15
-2634.88
-1270.01
-8293.61
-6905.02
-4527.38
-3620.11
-3322.59
-2290.5
-2204.23
-1186.25
-2696.61
-93.9077
-144.35
-60.1053
-20.6723
7.93557
-104.267
-59.6719
-8.20869
15.7611
-398.576
-160.931
2.11587
77.1071
-298.293
-155.513
20.1433
75.0238
-684.572
-251.103
26.9879
178.673
-614.045
-265.934
-65.6609
20.2122
-438.78
-181.336
-81.8906
-24.8841
-369.864
-134.212
-6.74619
48.8359
-1082.91
-357.943
-106.879
31.0153
-1295.4
-363.178
-117.037
167.434
-1013.56
-330.683
-63.4834
107.174
-1165.61
-322.265
-132.296
141.991
-1031.4
-336.735
-50.3911
102.991
-1354.87
-380.092
-111.131
201.826
-960.234
-300.234
-5.62664
158.576
-1354.55
-375.166
-101.464
217.582
-139.764
-52.1875
-9.26267
26.9487
-119.476
-38.9621
-19.7135
23.7977
-357.065
-133.802
-8.9044
76.1507
-296.123
-99.381
-46.963
63.7129
-746.827
-245.983
-22.6832
149.903
-669.695
-207.825
-69.0169
129.649
-802.822
-264.39
-41.0757
122.734
-607.633
-186.762
-82.4037
143.651
-1162.9
-316.435
-119.369
222.508
-86.4012
-28.0526
-7.91405
17.841
-38.8167
-17.0075
-5.2929
1.32868
-261.608
-82.2299
-38.5003
38.5955
-127.608
-51.2285
-23.5309
-0.818251
-470.786
-140.184
-61.0502
68.0246
-259.366
-91.7047
-36.299
0.699532
-719.754
-203.456
-75.9117
106.463
-455.452
-138.134
-48.8806
2.7221
-955.835
-251.005
-132.768
77.7107
-611.574
-168.098
-71.9799
-7.39581
-1278.41
-330.008
-148.256
94.3508
-614.178
-164.933
-65.0036
0.103096
-1222.96
-316.719
-160.921
73.2084
-673.16
-178.916
-71.7513
-5.50528
-1283.61
-317.87
-127.297
126.009
-563.952
-141.009
-45.0946
15.526
-1245.21
-291.616
-103.934
141.892
-520.025
-113.18
-25.6878
28.0338
0.514332
-1.57912
-1.11386
-0.621273
-0.390401
-4.84386
-3.71713
-2.05997
-1.07889
-0.664378
2.02429
-3.68929
-2.60804
-1.44904
-0.908733
-11.0893
-8.47388
-4.66911
-2.434
-1.49485
5.32306
-4.4053
-3.22737
-1.79688
-1.12638
-15.5375
-11.4442
-6.2333
-3.23208
-1.98028
-8.28343
-5.9406
-3.22163
-1.6632
-1.01559
0.966083
-2.15919
-1.50789
-0.829323
-0.51618
-0.0334286
-5.37529
-3.48093
-1.88587
-1.17189
3.81158
-1.56726
-1.26205
-0.710976
-0.446951
-7.37769
-8.02271
-4.5389
-2.37704
-1.46233
2.17332
-1.93828
-1.36169
-0.749573
-0.468223
7.16717
-2.09333
-1.88158
-1.08014
-0.681492
4.70353
-1.21519
-1.07176
-0.608899
-0.38277
15.9369
1.04937
-0.520955
-0.427274
-0.291813
10.1469
0.825277
-0.1651
-0.168963
-0.118933
2.0082
-0.959519
-0.784691
-0.449322
-0.284662
-0.225377
-1.1109
-0.703742
-0.383648
-0.240008
2.64099
-3.11418
-2.17063
-1.1992
-0.750966
-2.08653
-3.39487
-1.99947
-1.06596
-0.661244
9.49381
-3.02017
-2.48597
-1.40842
-0.887072
-4.82303
-5.23824
-2.9272
-1.53494
-0.945789
-7.03629
-6.70588
-3.65905
-1.90222
-1.16911
-7.93331
-4.72919
-2.42114
-1.23949
-0.75789
-6.42716
-4.11735
-2.12311
-1.08928
-0.666936
16.8302
-182.748
130.246
-446.856
357.919
-579.81
826.934
-415.36
1203.62
324.041
-582.15
-1226.68
650.491
384.324
-1175.95
-1989.84
-1583.69
-2329.67
-773.109
-186.489
-43.0542
-9.72235
-2.49882
-185.564
-109.507
-15.2076
-4.34666
-2.02289
-2385.61
-570.506
-132.048
-29.662
-7.63341
-435.176
-139.36
-36.9217
-8.14038
-2.32086
-4001.35
-956.341
-221.861
-50.0095
-12.8454
-762.338
-249.846
-64.37
-15.621
-4.08065
-5349.43
-1278.16
-297.56
-67.2857
-17.3117
-954.76
-325.667
-85.253
-20.7233
-5.37162
-6665.82
-1601.71
-375.028
-85.2198
-22.0263
-1141.2
-409.873
-108.774
-26.5761
-6.94302
-7822.98
-1931.18
-458.045
-104.998
-27.288
-1878.17
-588.917
-148.654
-34.9564
-9.00095
-7326.64
-1802.72
-425.679
-97.1447
-25.1548
-1434.03
-492.162
-128.292
-30.8245
-7.95627
-8033.76
-1986.3
-472.167
-108.455
-28.2437
-2147.09
-650.115
-161.63
-37.4733
-9.62374
-8359.91
-2050.35
-488.274
-112.149
-29.1997
-2241.17
-679.738
-170.377
-36.772
-9.97357
-509.935
-7605.17
-6614.93
-2193.73
-1620.48
-842.185
-3772.47
-2539.59
-6952.67
-6422.56
-3360.51
-2462.8
-188.782
-306.679
-556.763
-957.094
-1525.96
-2252.81
-141.556
-322.654
-701.734
-1287.12
-2059.67
-2951.48
-139.857
-63.9176
-253.229
-169.314
-490.958
-396.142
-868.391
-787.123
-1330.54
-1245.83
-1885.19
-1644.34
-2999.73
-3636.27
-4240.22
-6826.17
-8057.06
-9122.65
-3820.93
-4466.22
-4696.3
-4517.15
-4074.35
-3712.68
-169.938
-143.326
-108.341
-67.3718
-22.849
-275.736
-232.219
-175.28
-108.874
-36.9016
-499.852
-420.237
-316.656
-196.433
-66.5337
-857.56
-719.319
-540.833
-334.961
-113.363
-1363.3
-1139.82
-854.44
-528.104
-178.56
-2003.61
-1667.04
-1244.46
-767.176
-259.147
-127.339
-107.308
-81.0465
-50.3658
-17.0754
-289.839
-243.839
-183.86
-114.114
-38.6615
-629.425
-528.615
-397.928
-246.674
-83.5215
-1152.08
-965.263
-725.023
-448.741
-151.826
-1838.05
-1534.92
-1149.51
-710.088
-240.048
-2622.79
-2180.43
-1626.82
-1002.7
-338.717
-125.959
-106.297
-80.3996
-50.0201
-16.9685
-57.5791
-48.6046
-36.7728
-22.8828
-7.76346
-227.839
-192.044
-145.077
-90.1707
-30.5727
-152.409
-128.535
-97.1534
-60.4102
-20.4868
-441.178
-371.307
-280.076
-173.875
-58.916
-356.176
-299.963
-226.406
-140.623
-47.6604
-778.892
-654.098
-492.325
-305.145
-103.308
-706.329
-593.463
-446.885
-277.06
-93.8109
-1190.1
-996.222
-747.551
-462.309
-156.345
-1114.88
-933.691
-700.832
-433.447
-146.578
-1678.05
-1397.13
-1043.29
-643.085
-217.167
-1464.58
-1219.9
-910.912
-561.24
-189.434
-2648.98
-2188.21
-1624.46
-998.709
-337.275
-3173.57
-2593.15
-1911.18
-1172.76
-397.039
-3626.67
-2914.07
-2128.52
-1308.17
-447.782
-5629.71
-4411.37
-3196.71
-1991.93
-709.297
-6252.73
-4735.41
-3418.58
-2201.12
-858.742
-6772.79
-5016.4
-3616.64
-2387.62
-994.157
-3375.44
-2789.53
-2071.82
-1274.2
-430.347
-3912.69
-3208.25
-2370.22
-1455.41
-492.173
-4063.63
-3296.64
-2420.84
-1486.63
-505.19
-3829.69
-3058.56
-2230.91
-1376.17
-474.594
-3326.03
-2589.76
-1875.81
-1174.83
-422.028
-2915.81
-2214.51
-1594.89
-1016.96
-382.262
-195.211
-327.844
-598.215
-1027.98
-1638.9
-2411.48
-149.986
-350.66
-756.569
-1377.46
-2188.6
-3107.24
-145.485
-68.1583
-272.402
-184.79
-530.619
-431.688
-941.135
-859.042
-1457.92
-1401.68
-2076.83
-1915.39
-3188.22
-3836.52
-4444.74
-6972.48
-8123.71
-9140.9
-3975.05
-4584.62
-4758.35
-4520.53
-4045.22
-3695.97
-175.784
-148.317
-112.164
-69.775
-23.669
-294.99
-248.675
-187.894
-116.808
-39.6098
-537.612
-452.556
-341.47
-212.062
-71.8723
-922.266
-774.836
-583.564
-361.929
-122.585
-1466.67
-1228.79
-923.146
-571.582
-193.451
-2149.58
-1793.44
-1342.67
-829.633
-280.6
-135.003
-113.851
-86.0577
-53.5155
-18.15
-315.321
-265.619
-200.557
-124.617
-42.2471
-679.395
-571.405
-430.795
-267.384
-90.597
-1234.59
-1036.11
-779.596
-483.206
-163.617
-1956.21
-1636.78
-1228.3
-760.014
-257.161
-2766.32
-2304.97
-1723.78
-1064.48
-359.958
-131.072
-110.66
-83.7379
-52.1169
-17.6836
-61.4292
-51.8864
-39.2814
-24.4572
-8.30013
-245.269
-206.926
-156.474
-97.334
-33.0166
-166.47
-140.531
-106.333
-66.176
-22.4533
-477.278
-402.176
-303.752
-188.775
-64.0033
-388.518
-327.606
-247.597
-153.954
-52.2107
-845.245
-710.984
-536.072
-332.735
-112.739
-771.968
-649.775
-490.222
-304.407
-103.162
-1306.49
-1096.21
-824.605
-510.988
-173.002
-1257.09
-1055.66
-794.671
-492.655
-166.823
-1854.02
-1549.16
-1161.12
-717.863
-242.82
-1712.34
-1432.81
-1075.04
-664.958
-224.931
-2824
-2341.36
-1744.68
-1075.81
-363.895
-3362.46
-2761.22
-2045.23
-1259.88
-427.393
-3824.63
-3094.59
-2275.81
-1405.8
-482.353
-5787.17
-4567.38
-3333.46
-2088.59
-745.799
-6340.55
-4830.89
-3508.93
-2270.48
-888.1
-6802
-5050.12
-3650.09
-2414.65
-1006.28
-3518.87
-2915.39
-2170.92
-1337.91
-452.375
-4025.2
-3309.19
-2451.41
-1508.53
-510.749
-4126.25
-3356.16
-2471.25
-1521
-517.559
-3840.02
-3074.08
-2248.16
-1390.24
-480.321
-3306.24
-2578.33
-1871.58
-1175.28
-423.351
-2903.42
-2206.05
-1590.21
-1015.36
-382.272
-20055.6
-14287
-3966.21
-2847.01
-2194.71
-2918.08
-2924.56
-12779.9
-13845.8
-10861.8
-12444.7
-6766.91
-10181.9
-5024.43
-5303.25
-3747.28
-20224.7
-10520.7
-3649.4
-5992.69
-8336.97
-5535.05
-5800.07
-4314.68
-2570.58
-3553.64
-4292.2
-4350.68
-19568.2
-12673.9
-12316.3
-8591
-8274.57
-9064.72
-3714.8
-4497.62
-6119.64
-13656.7
-11181.6
-8721.48
-7300.67
-5597.18
-9099.49
-6070.15
-4430.86
-3109.91
-1449.93
-3473.23
-2850.07
-2110.25
-1300.18
-441.404
-2527.57
-2100.3
-1567.61
-967.295
-327.18
-1946.97
-1615.77
-1203.86
-741.475
-250.444
-2600.66
-2168.86
-1622.65
-1001.9
-338.683
-2586.6
-2140.62
-1592.19
-980.395
-331.371
-8900.61
-6994.7
-5371.44
-4393.8
-3852.73
-9826.17
-8032.1
-6131.03
-4568.3
-2496.3
-7639.95
-5253.07
-3784.91
-2483.13
-1007.42
-8871.67
-6987.61
-5211.76
-3606.64
-1632.49
-5615.53
-4404.21
-3168.25
-1932.09
-661.156
-7833.51
-5731.77
-4063.62
-2495.12
-883.643
-4284.13
-3428.37
-2490.79
-1518.94
-514.753
-4502.85
-3590.44
-2602.3
-1585.67
-537.636
-3227.6
-2603.86
-1899.99
-1158.8
-391.317
-13616.5
-10319.9
-7989.47
-6396.92
-5178.94
-7964.21
-5920.23
-4310.35
-2804.12
-1153.55
-3100.66
-2477.95
-1803.24
-1105.4
-378.449
-5105.89
-4097.26
-2998.02
-1851.39
-640.65
-6873.64
-5405.38
-3941.88
-2478.44
-904.56
-4694.1
-3755.81
-2748.99
-1704.74
-593.929
-4986.27
-4033.5
-2968.22
-1836.8
-632.742
-3745.42
-3048.9
-2245.76
-1382.18
-470.626
-2242.79
-1830.88
-1347.12
-824.578
-278.391
-3129.77
-2579.07
-1911.7
-1174.94
-397.039
-3704.56
-2996.85
-2193.95
-1343.05
-455.553
-3777.38
-3074.07
-2261.96
-1389.71
-472.348
-13183.5
-10436.8
-8174.96
-6629.71
-5149.03
-8682.63
-6093.55
-4468.49
-3075.79
-1429.44
-9146.39
-7158.77
-5280.06
-3647.92
-1629.63
-6708.48
-5032.29
-3676.67
-2388.96
-922.583
-6846.98
-5404.25
-3952.11
-2491.69
-906.672
-7074.2
-5304.69
-3874.1
-2512.06
-960.216
-3190.62
-2577.42
-1893.9
-1170.34
-402.657
-3948.47
-3244.74
-2401.95
-1476.98
-499.847
-5248.21
-4231.25
-3103.47
-1915.28
-658.123
-372.258
-1083.22
-1772.43
-2464.79
-3150.24
-3808.97
-2964.93
-7910.53
-7373.79
-2846.7
-9947.81
-8421.06
-9736.86
-10730.1
-2721.9
-1746.01
-6338.98
-3526.78
-11731.8
-8561.48
437.011
-2382.57
-6524.42
-5975.15
-2262.54
-8353.8
-6734.87
-8040.98
-8949.92
-2248.91
-987.598
-5472.66
-1718.75
-9493.34
-5083.39
2081.97
-1704.28
-4851.28
-4401.78
-1612.18
-6445
-3805.3
-6334.46
-6852.03
-1668.7
-907.804
-3804.51
-1831.47
-7344.86
-1714.05
2239.88
-1212.67
-3641.29
-3340.23
-1181.51
-4757.87
-2096.86
-5075.21
-5806.2
-1223.82
-970.845
-2731.56
-1893.96
-6275.98
-96.5605
1690.01
-947.243
-2997.02
-2777.78
-960.045
-3668.9
-1651.8
-4410.42
-5513.2
-938.998
-1080.86
-1888.84
-1849.53
-5376.71
101.421
294.547
-814.723
-2595.66
-2488.45
-846.567
-3317.22
-1974.69
-3987.24
-5206.03
-699.901
-849.657
-1483.96
-1793.75
-5311.36
-921.767
-528.327
-1404.08
-3411.94
-5258.69
-2045.82
-5491.57
-9667.88
-7620.46
-10929
-948.082
-604.363
-3746.32
-2092.11
-943.883
-8918.08
-4398.98
-1294.54
-3150.77
-4563.95
-1756.8
-5017.98
-8623.46
-6784.91
-9146.38
-961.056
-505.426
-3844.94
-1912.82
-115.978
-8610.69
-3105.47
-1115.21
-2722.52
-3646.89
-1377.14
-4479.86
-7474.42
-5637.26
-7802.12
-829.191
-577.745
-3186.57
-1954.95
-362.372
-6681.49
-2864.66
-933.251
-2389.14
-2922.14
-1079.02
-4065.44
-6543.61
-4869.29
-6861.77
-733.283
-570.762
-2844.56
-1977.86
-254.582
-5993.31
-2791.81
-819.328
-2099.67
-2517.75
-914.267
-3582.85
-5830.89
-4325.3
-6379.49
-665.268
-622.522
-2497.32
-2121.09
-443.024
-5600.52
-2820.33
-745.427
-1834.14
-2286.82
-822.325
-3248.7
-5704.86
-3934.87
-6090.41
-680.398
-731.028
-2181.9
-2015.51
-721.109
-5712.41
-3159.3
6790.62
8576.22
17624.7
25889.6
26426.5
45439.1
20154
51162.7
16324.7
35814.3
24442.9
37174
21810.7
28832.2
8265.13
9410.85
16993.6
19506.8
21695.2
21542.1
16967.9
20843.1
24876.1
22266.6
5694.67
4415.23
6968.38
4786.09
14383.9
11679.8
24435.7
17919.9
18796.2
19673.2
21161.2
20594.9
7751.66
5878.76
44108.5
59064.2
28614.6
35099.5
58754.2
76360.9
30457.1
34893
32984
46584.1
28949.9
38274.2
17110.8
27409
3196.95
1106.53
3260.06
1197.89
10173
4139.34
13860.9
5148.51
10062.5
3828.59
10414.3
3362.18
17630
5645.86
22719.6
7715.8
26811.5
13516.5
24569.7
14549.3
24770.9
16053.7
21834.2
16212.4
19668.3
11752.4
19762.5
10268
25393.8
16057.4
25480.6
16162.8
23105.6
17058.9
23394.5
17077.6
21216
13428.1
21974.6
13725.8
20263.7
8948.92
9560.71
11872.4
20322.1
9840.15
8475.17
12217.9
21443
8854.73
10734
11852.5
22518.1
9051.67
11623.6
12325
4119.95
4473.12
1440.73
2881.73
12625.4
13401.6
5021.16
9266.56
16246.8
17862.7
8249.63
14197.9
12238.9
339.618
14531.2
18712.9
10602.1
-36.3142
6911.15
13436.8
22073.8
16643.4
11059.6
13757.9
12493.7
11196.6
17773.5
3709.86
2930.77
2127.6
2119
11385.6
9255.76
7202.89
6755.67
13971.9
11235.5
9297.71
8223.14
5516.68
7227.69
11739.3
12373.9
15069.3
13607.7
17115.5
14548.9
12479.3
10514.7
9431.11
9383.67
12611
9145.63
11785.3
7822.57
10500.9
6612.39
12854.6
8141.73
10636.3
4006.66
9357.92
9581.44
12977.5
16271.4
14366.5
20424.3
7623.84
7926.52
9559.52
1958.43
8424.33
15677.7
8026.99
16965.4
14267.1
25338.2
14519.8
27066.8
6590.97
13793.9
6065.9
14856.7
9238.98
6479.12
13163.4
4830.99
9161.31
702.225
11297.2
-197.222
8999.24
10120
13845
6202.84
7548.51
12069
12359.3
8231
2165.55
1851.94
1560.59
1625.69
1447.35
1235.96
7166.34
5414.77
4352.74
4817.7
3536.44
2843.49
8295.23
6642.03
5902.5
5675.81
4212.19
3794.01
5981.23
4811.3
4518.28
10449
7123.67
5646.3
10391.8
6889.2
5170.73
10795.7
7766.11
6403.34
7488.53
4465.18
3236.84
14963.8
11863.9
9551.33
10115.7
7696.13
5801.38
9542.46
6705.92
4774.08
8473.01
5530.89
3745.37
9464.86
4906.64
2430.07
11055.2
14819.1
8886.02
11319.2
12329.4
17877.1
11144.2
15931.7
54.9865
609.284
-425.39
94.3175
3031.82
3387.77
1346.28
833.948
855.071
2531.15
9764.35
14045.7
6646.97
3878.59
10643.8
10577.9
16773
18489.7
-542.259
-4306.81
7944.94
7436.31
7456.38
5721.95
896.259
484.639
627.052
297.867
2060.99
170.992
-158.346
-720.428
9287.14
2229.62
6473.96
1655.96
9281.96
2769.55
11168.4
3450.53
9481.21
12215.8
8680.88
11856.2
15507.7
15965.6
14706.7
15026.7
5769.34
9150.77
6706.98
9126.81
9155.75
11383
10032.2
11435.2
15293.2
14706.4
15970.4
14705.4
5785.4
8815.46
6234.62
8911.66
-337.371
934.583
6722.29
3641.55
-815.455
561.899
6229.61
3195.7
92.2047
1191.62
6839.72
3972.5
472.66
1407.05
6811.08
4064.72
-634.79
-715.011
127.61
-36.9761
-2780.62
-2743.36
-264.096
-471.058
-649.18
-1895.71
1328.1
635.782
-10029.2
-9980.42
-5323.05
-4108.95
-632.577
-10824.6
-10545.4
-4013.82
-5894.1
-1032.31
10901.9
8273.56
6882.17
5998.76
3130.96
-670.495
-560.065
-96.4561
-47.8813
-2232.97
-1981.5
-268.695
-126.704
-2295.82
-2513.96
296.151
411.166
-5007.72
-1915.78
-7602.39
-4312.7
-3226.32
-2190.63
-3653.25
-2902.12
-6.17869
624.404
4001.76
2481.12
1231.28
-731.365
942.965
-616.084
1259.75
91.6273
1221.92
1297.89
5131.05
4526.03
9680.57
5757.82
8282.78
8010.53
12500.6
9926.72
7163.09
4056.31
3524.53
3343.94
11402.8
4980.87
12500.8
5567.38
13929.5
10149.3
14836.8
10921.9
8727.46
3285.32
9742.88
3800.55
5063.35
3682.42
3194.01
4595.63
3143.93
3326.86
2672.48
4241.45
5887.4
3575.18
3618.58
5286.61
7245.92
3869.01
4759.5
5425.86
-497.016
-471.53
-508.627
-59.9451
-176.265
-185.937
-1881.4
-1836.52
-1767.18
-201.48
-505.921
-490.016
-2493.48
-2519.05
-2459.15
259.787
-511.614
-650.443
-836.446
-688.175
-393.973
-2732.41
-2671
-2396.26
-2143.37
-2283.04
-2177.02
-2678.24
-2639.16
-2469.52
739.866
-231.481
-294.973
3586.8
2046.43
1137.11
-452.36
-1248.85
-1652.68
-518.072
-1445.95
-1821.41
-255.742
-1197.42
-1444.83
1390.84
-298.987
-487.262
-16.6406
-17.0035
-16.8458
-24.53
-186.495
-87.2761
-62.268
-49.1419
-5.68742
-33.4652
-86.9497
-114.406
-311.91
-162.17
-170.107
-149.216
172.335
7.16679
-126.97
-211.913
-86.5358
-109.527
-130.814