/*--------------------------------*- C++ -*----------------------------------*\
| =========                 |                                                 |
| \\      /  F ield         | OpenFOAM: The Open Source CFD Toolbox           |
|  \\    /   O peration     | Version:  2306                                  |
|   \\  /    A nd           | Website:  www.openfoam.com                      |
|    \\/     M anipulation  |                                                 |
\*---------------------------------------------------------------------------*/
FoamFile
{
    version     2.0;
    format      ascii;
    arch        "LSB;label=32;scalar=64";
    class       volScalarField;
    location    "1.1";
    object      gradTz;
}
// * * * * * * * * * * * * * * * * * * * * * * * * * * * * * * * * * * * * * //

dimensions      [0 -1 0 1 0 0 0];

internalField   nonuniform List<scalar> 
5712
(
8240.19
27002.2
6576.55
27663.5
4891.17
28458.2
7621.07
43372.2
9347.19
59497.6
9338.38
43631.6
9067.23
36380.8
9430.89
32601.9
5700.48
3615.45
15280.1
9165.89
5524.63
3000.02
16484.2
8185.33
6352.94
4738.76
20306.8
14624.4
4809.95
3597.17
19955.2
14815.7
11318.7
4834.34
9857.58
4456.11
4643.06
10707.7
38093.1
10214.6
13678.8
4445.37
48551.8
13012.8
12589.1
4115.88
27521.9
8469.4
14145.9
4823.78
24210.6
7642.25
7866.4
3900.98
10668.9
4231.03
8534.73
4592.99
10360.8
4059.08
10565.3
6073.44
8928.92
3968.38
12789
4665.23
4351.77
1539.86
14631
10365.2
8843.5
6556.59
15545.6
12840.1
8381.11
7229.79
8689.15
6067.77
12701.9
8814.88
5670.25
4194.32
2679.83
2203.91
5251.15
4516.16
2484.44
2424.74
5635.88
3786.41
2722.99
1757.29
7986.44
4413.69
6180.4
7297.82
11273.3
8070.14
9231.28
12711.5
5133.98
2482.06
3549.72
4102.6
2428.78
1037.56
1441.91
1481.21
10929.9
19454
7309.8
21592.5
12623.9
18944.7
8903.34
22411.4
14093.1
16981.4
11273.9
21556.4
14933.6
16702.7
12221.3
12036.4
12937.2
16798.2
16673.3
17416.3
18422.4
26088.6
13690.4
11431.8
10542.7
11950.3
18099.3
22748.4
20525.7
26239.6
25559.8
20833.2
19479.1
25781.4
24915
17965.6
17709.9
23999.5
23862.4
12452
10022.3
12677.3
11428.3
14381.3
13460.7
15961.3
15831.6
21734.3
22805.5
11541
10396.8
11873.1
12188.6
12836.1
14445.8
14721.5
17337.8
19063
22941.7
9775.45
7718.95
6533.5
8126.03
12423.3
14727.3
8442.22
13096.9
5836.73
7441.87
8920.67
7444.69
1664.56
5289.77
677.555
1778.5
4205.55
8625.95
1373.72
2844.52
1008.71
4686.72
384.925
1549.27
5900.18
5942.1
6758.26
4389.25
9511.74
7781.65
11204.9
8025.62
1582.67
3226.5
3359.99
2027.98
1718.6
2200.51
2425.52
1838.59
16598.4
10198.1
3269.69
18670.9
10863.4
3581.87
15947.4
10093.6
3460.13
18297.9
10858.9
3580.31
14647.3
9291.68
3084.34
17739.7
10852.6
3644.09
6980.44
4089.94
1211.99
9522.35
6368.5
2192.65
11778.9
8116.7
2801.98
13898.2
9121.47
3051.47
17475.6
11070.1
3859.12
8023.79
4833.23
1642.72
9338.73
6805.56
2595.75
11450.5
8452.57
3144.61
14188.8
10022
3626.55
17728.3
11287.9
4049.04
274.583
2048.53
2850.87
4160.37
2372.17
2680.3
5896.53
5557.12
594.71
969.754
634.344
1008.6
450.183
1340.25
824.759
1761.45
3066.7
1515.44
3962.71
2322.25
2052
3532.13
3354.52
520.971
6465.73
1260.96
-2427.19
111.498
1487.81
849.775
833.078
516.699
9214.53
3903.61
2490
1441.66
9367.23
4035.3
3148.12
1820.03
9266.46
4310.51
4471.77
2896.85
3086.96
2054.83
1137.32
1100.03
12997.9
11421.2
5998.03
6162.34
14618.5
13604.4
7113.34
7099.62
5048.83
5139.81
10695.2
8759.9
3398.9
3582.84
1644.13
2004.91
4221.32
4186.06
2069.48
2293.43
2758.67
3038.53
1288.72
1806.64
4258.31
2690.91
4165.8
2634.81
6822.64
3592.23
6331.35
3706.01
2376.05
1858.69
2543.29
1633.26
1080.94
1017.25
1512.2
883.994
10630.1
6741.06
4929.53
4598.35
10626.3
7026.87
4938.81
4584.94
11190.6
7579.11
5010.81
4514.44
14279.5
16147.3
12430.5
7862.8
3969.53
15313.6
13410.8
11780.6
9144.57
5179.91
14281.8
12288.2
9333.84
6733.54
3705.25
5119.29
4116.77
4438.18
4598.07
5484.87
4221.85
4571.82
4640.07
6082.42
4554.74
4766.72
4753.28
11539.6
8261.07
10086.2
6958.38
7421.95
5791.72
6414.88
5174.41
4528.92
4855.36
9623.38
8414.33
8013.06
6906.06
6386.04
5613.17
5137.44
4825.84
3512.17
4599.58
7135.25
4871.91
4673.42
2913.16
9810.5
7584.83
6703.49
5499.13
3572
2169.22
5250.6
3808.37
4551.64
2185.65
1493.67
835.27
5055.69
3711.56
1580.91
1325.11
3730.97
1642.44
1322.52
661.35
2664.2
2317.94
2014.26
2810.53
3768.84
3341.69
2572.93
3558.9
2727.87
1641.65
1478.27
1926.66
697.006
300.599
-24.0789
250.785
2728.42
1149
339.409
2954.17
796.919
214.419
2885.81
1291.79
397.399
3022.26
853.914
241.052
2947.27
1402.52
377.05
3095.37
911.512
223.577
5313.04
2887.38
753.098
4284.93
2183.05
577.865
3716.43
1841.01
524.331
3265.89
1553.53
368.315
3192.27
934.847
163.899
6430.27
3425.97
1015.6
5227.74
2667.65
775.402
4294.91
2153.39
641.356
3623.77
1607.84
422.984
3482.31
898.591
228.376
1408.71
476.449
115.199
-54.8869
586.89
206.38
60.0918
-5.21885
1478.99
512.666
144.224
-22.1707
731.401
273.54
125.28
53.7824
1565.67
556.294
199.365
34.8243
1197.43
488.389
154.154
25.9036
837.516
401.963
82.0899
-33.6962
682.29
386.164
170.5
78.5195
1232.25
487.966
124.223
-76.4457
1020.54
396.544
155.898
-62.2448
1498.03
536.338
173.953
-26.4382
1318.53
470.045
181.06
-98.2557
927.554
413.474
128.724
-30.1579
740.042
321.187
147.754
2.52974
607.837
319.095
151.167
74.2503
457.331
239.128
134.561
64.0581
1758.19
576.442
133.376
-119.753
1672.95
525.845
184.378
-157.062
1750.18
579.045
140.824
-115.316
1622.63
509.817
185.929
-154.056
1707.69
572.203
186.02
-66.0116
1521.62
479.419
209.617
-115.702
1486.08
517.051
225.096
34.6499
1665.01
528.776
275.315
-130.586
1296.33
449.313
212.707
-18.9615
1265.95
364.37
154.527
-93.6412
490.361
131.188
42.2303
-12.7382
1324.98
388.822
164.046
-88.1737
518.452
141.988
49.807
-6.23165
1375.47
415.369
187.824
-72.4519
541.093
154.163
58.3704
0.875774
1252.3
388.275
205.46
-50.0825
535.307
158.311
74.4957
13.2959
1148.66
377.405
206.257
-17.9018
487.993
163.303
93.3246
28.547
756.378
272.413
117.33
-8.21205
437.44
187.073
94.2428
42.1609
903.306
297.593
144.354
-17.6724
460.059
176.049
95.6966
36.6644
576.466
238.726
107.532
12.4102
362.538
176.705
88.3543
46.704
365.403
190.125
106.664
52.9562
267.036
155.068
87.8036
55.1068
-3.97225
1.88257
1.51787
0.833143
0.50817
-0.0514934
1.28017
0.848651
0.450558
0.27247
4.53947
5.49359
3.1346
1.60043
0.957638
9.24152
5.39513
2.73152
1.35146
0.801529
12.766
9.55929
5.04973
2.52937
1.50645
32.4985
17.686
8.66855
4.25218
2.51929
35.9754
19.9327
9.87805
4.88632
2.91123
51.7797
25.8918
12.4739
6.13685
3.66036
18.7602
13.4935
7.01849
3.51249
2.09852
20.431
12.7471
6.45113
3.2112
1.91662
14.0156
10.982
5.73082
2.85863
1.70164
26.2147
13.8688
6.63715
3.23351
1.91058
23.3737
15.5966
8.07443
4.05271
2.42823
27.1034
14.9529
7.41921
3.68208
2.20029
40.8836
20.7117
10.0203
4.94017
2.95023
34.2574
17.0728
8.24637
4.06875
2.43205
-8.9704
0.891811
1.11192
0.637012
0.391985
-5.13147
0.24172
0.419522
0.243158
0.149645
-3.37359
3.20335
2.11938
1.10846
0.666212
-3.08974
1.08637
0.782889
0.411696
0.247121
3.23436
5.69168
3.17829
1.60458
0.955582
4.86314
3.90934
1.96347
0.956835
0.562633
18.487
11.2075
5.47884
2.66228
1.5645
12.9206
7.31556
3.47101
1.66937
0.976849
33.6677
15.1813
6.93277
3.30503
1.93339
2385.23
5419.3
2480.39
5405.76
2790.83
5406.75
3294.28
5600.21
3368.86
5688.98
1433.14
2048.22
2265.31
3416.61
786.624
1031.5
262.943
332.344
12136.8
2923.73
676.96
153.016
38.5972
3334.65
903.655
242.096
55.6487
12.3062
11913.1
2849.61
659.728
147.993
37.6276
3400.62
1006.2
250.014
58.7402
14.7973
11229.5
2672.22
617.295
138.475
35.2908
3300.31
970.515
240.405
56.1962
14.2104
10104.9
2388.49
551.12
123.728
31.5925
3184.1
916.543
224.255
51.9906
13.0875
8289.04
1953.3
451.779
101.737
26.0559
2966.76
832.212
201.694
46.5226
11.6912
3782.93
934.288
220.454
50.164
12.9136
1436.42
409.375
98.6343
22.3967
5.62205
5728.79
1393.92
325.952
73.7052
18.9127
2117.56
595.474
144.466
33.3182
8.433
2195.74
546.727
129.709
29.6866
7.6657
805.346
238.25
57.21
12.9944
3.29141
752.103
186.469
44.387
10.2007
2.63707
311.378
85.1982
19.2104
5.35307
1.08433
-488.101
99.2555
4836.42
-1207.92
792.416
849.06
2471.66
3177.07
2011.23
3789.99
3259.69
5032.65
4001.05
4959.85
2056.12
2762.55
2158.41
2562.62
1119.5
1164.08
2244.88
1528.5
690.964
-112.243
-361.806
-424.52
73.6809
14153.7
4306.09
5025.08
3622.58
386.314
491.591
3391.83
-640.543
-149.874
-392.633
-253.664
7697.56
4266.95
1953.05
1412.66
3772.83
2291.32
834.879
1513.37
-831.733
-300.429
1018.66
884.549
8937.39
4209.17
5647.58
2934.53
3978.42
4987.45
1741.36
-331.542
1285.72
1491.77
1134.34
908.218
748.627
511.38
1159.7
890.259
660.359
440.514
180.135
599.812
488.102
359.516
221.258
75.1677
-100.143
-83.3053
-61.8
-37.7016
-12.6378
-321.984
-267.442
-198.636
-121.577
-40.8318
-378.34
-314.823
-234.308
-143.677
-48.3075
66.1084
56.98
45.3991
30.2065
10.806
9734.09
7756.8
5986.44
4789.33
3801.87
3448.11
2693.67
2185.02
1588.93
744.428
3747.71
2831.84
2151.13
1487.78
678.646
2659.24
1946.65
1485.03
1011.4
390.102
359.952
263.931
250.831
188.646
77.6722
474.218
430.544
353.272
239.449
87.954
2768.97
2179.78
1596.05
1024.59
389.499
-310.824
-84.0254
19.0595
50.3094
26.0781
-99.1637
-46.6474
-4.33684
15.8115
10.4334
-225.308
-92.8298
-8.05881
24.946
15.1293
-235.407
-198.079
-145.061
-86.0501
-27.8684
5399.65
4483.64
3527.09
2865.78
2283.33
3214.05
2429.82
1846.24
1259.17
545.585
1696.15
1404.87
1073.61
697.003
254.15
1205.65
978.896
732.689
466.168
166.372
3084.34
2407.92
1748.74
1098.82
400.363
1974.82
1610.35
1202.84
758.662
264.814
714.375
578.635
429.415
269.214
93.8977
1309.4
1065.04
787.157
487.83
167.189
-714.355
-569.31
-405.705
-240.036
-78.9034
-264.309
-214.45
-153.47
-89.8511
-29.0712
879.313
717.517
536.036
337.972
118.31
768.398
630.35
472.036
296.962
103.149
5578.67
3835.03
3010.58
2441.13
1843.38
3122.54
2329.74
1697.22
1126.09
469.658
4021.84
3116.45
2332.82
1638.78
724.198
2286.63
1786.33
1315.04
861.791
346.639
3311.84
2624.52
1923.62
1208.18
430.32
3724.57
2692.87
2009.65
1354.45
523.992
1494.55
1207.78
889.843
552.033
190.078
-294.846
-243.033
-177.559
-106.315
-35.0254
1101.52
895.484
669.644
424.382
149.499
-32943.1
-53215.2
-27415.2
-42997.7
-28984
-59485.8
-34591
-75627.8
-21043.8
-14585.9
-23296.8
-14767.9
-19249.1
-12526.8
-23458.8
-12644.2
-27645.3
-21152.1
-39738.2
-29001.4
-23807.6
-19277.1
-33105.7
-25180.1
-18866.3
-19570
-15613.1
-15272.9
-18651.5
-17253.2
-44474.5
-12302.9
-17272.1
-6567.64
-53861
-15060.5
-15423.3
-5943.54
-33447.2
-10541.2
-17690.6
-6857.31
-29992.8
-9281.52
-14650.2
-5945.76
-18361.8
-6696.96
-13959.6
-6194.68
-15930.2
-5816.74
-14427.7
-7106.53
-12737.9
-5114.07
-16044.8
-5713.86
-5615.41
-1986.53
-12220
-8481.6
-10536.8
-6670.81
-10615.9
-8724.48
-9172.44
-6665.79
-10816.7
-6459.95
-12768.4
-8381.88
-7259.98
-4514.23
-3952.45
-2553.01
-6279.42
-4435.85
-3372.17
-2487.58
-7403.31
-4237.43
-4085.89
-2189.45
-9623.52
-4930.96
-6485.9
-7333.32
-12322
-8346.13
-9204.75
-12469
-6489.21
-2932.63
-3896.1
-4207.56
-3474.22
-1407.69
-1772.9
-1598.5
-14720.7
-18220.5
-8392.44
-20790.9
-15305.6
-17381
-9650.51
-21232.3
-15448.8
-15759.3
-11493.5
-20136.4
-10379.9
-8313.01
-11605.8
-12963.1
-12969.2
-11219.1
-13252
-15668.4
-17150.1
-24320.4
-7942.72
-8478.04
-9367.96
-11293.3
-17220.3
-17486.4
-12261
-22304.9
-17280.7
-16216
-12057.2
-21978.5
-17230.4
-14341.4
-11327.7
-20522.7
-17097.3
-9146.04
-7301.1
-9876.28
-8022.32
-11196.2
-9268.16
-12497.4
-10806.6
-18658.5
-17218
-8489.81
-7481.46
-8997.96
-8244.31
-10171.3
-9980.9
-12303.9
-12635.3
-17007.1
-17946.1
-7955.28
-6352.37
-5861.68
-7344.95
-9449.8
-12454.9
-7159.49
-11530.8
-5554.97
-7004.64
-7917.75
-6497.72
-1452.59
-4894.97
-598.936
-1577.19
-3638.99
-7886.89
-1050.82
-2387.25
-987.691
-4499.14
-444.102
-1480.75
-5757.31
-5641.55
-6606.13
-4115.29
-8892.08
-6993.87
-10689.3
-7196.87
-1599.21
-3119.32
-3323.34
-1923.19
-1793.7
-2178.33
-2437.72
-1803.31
-7492.01
-2576.64
-10168.4
-3459.55
-7664.12
-2697.99
-10413.7
-3726.26
-7624.8
-2661.66
-10993.2
-4204.97
-4401.2
-1301.43
-5659.92
-2134.51
-6578.66
-2522.98
-8026.67
-3007.89
-11647.6
-4597.36
-5427.84
-1737.94
-5527.8
-2594.38
-6816.31
-3097.26
-9041.31
-3848.33
-12223.9
-4602.16
-7318.17
-6803.99
-5794.44
-5583.77
-12244.8
-9407.54
-10120.8
-8382.5
-4730.24
-3824.18
-1975.49
-1350.99
-4551.64
-4115.22
-1926.13
-1875.87
-3763.52
-5326.56
-4294.88
-5710.64
-4244.83
-3140.97
-4177.28
-1200.56
-8188.05
-2559.23
2012.01
-361.505
-1623.07
-982.324
-439.859
-125.038
-2411.04
-1460.47
-939.072
-486.866
-2646.39
-1580.88
-1483.12
-639.518
-3051.93
-1928.57
-2238.51
-1058.43
-1784.51
-524.396
-61.1444
470.17
-5889.9
-6196.04
-4725.36
-4318.52
-8121.27
-8082.44
-6848.22
-5748.76
-3078.51
-3200.25
-4272.44
-4692.8
-3070.72
-2614.79
-1540.84
-1357.23
-4559.28
-3609.06
-2471.37
-1981.53
-1859.87
-1862.87
-707.552
-933.134
-1947.21
-1159.17
-2473.18
-1513.13
-2718.79
-1790.4
-3617.84
-2333.66
-988.558
-560.204
-1375.12
-689.981
-32.0987
179.439
-568.51
-29.3983
-3271.01
-3782.81
-2371.15
-3192.61
-3301.42
-3886.58
-2430.61
-3191.72
-3609.26
-3772.95
-2592.71
-3063.37
-3617.01
-5886.89
-2882.92
-2179.46
-1794.29
-8538.86
-5909.45
-4945.02
-4413.8
-3583.14
-6896.97
-5518.25
-4302.07
-3532.12
-2248.63
-4125.45
-3834.45
-4568.31
-6834.8
-4054.53
-3573.52
-4424.92
-6565.26
-3972.21
-3573.36
-4142.62
-6138.85
-8018.68
-6127.59
-6802.58
-5083.71
-5420.49
-4158.4
-4818.37
-4135.41
-3918.91
-5688.65
-6491.45
-6043.48
-5142.85
-4962.65
-4136.49
-4113.31
-3635.61
-3993.28
-2635.64
-4841.31
-4252.54
-3050.85
-3053.15
-1420.85
-6441.59
-5544.69
-5045.33
-3881.86
-2164.91
-901.747
-3095.15
-2347.51
-3535.99
-1304.46
-764.079
-165.314
-4167.38
-2837.92
-1015.72
-695.889
-2739.73
-854.112
-531.192
-30.6716
-1618
-1457.71
-1392.19
-2438.61
-2377.21
-2398.05
-1899.37
-3310.1
-1881.24
-1038.67
-861.215
-1553.05
57.2068
233.436
639.617
155.075
-2673.18
-790.824
-4499.82
-403.831
-2582
-879.405
-4412.9
-426.7
-2174.22
-603.836
-4033.11
-302.106
-3463.23
-872.579
-2916.86
-748.956
-2738.51
-848.563
-2414.85
-495.427
-3804.97
-442.827
-4500.46
-1018.74
-3714.93
-689.608
-3262.72
-663.705
-3071.97
-465.601
-3998.48
-491.074
-627.604
-180.557
20.1816
134.93
-228.278
-62.9987
3.11326
37.5743
-640.787
-172.397
17.3594
116.843
-206.455
-38.2232
-18.3134
-0.885357
-680.145
-165.176
-5.07508
78.7305
-203.118
20.9642
119.006
129.815
177.425
168.86
236.621
212.139
496.381
311.992
217.203
132.293
-404.753
-49.1925
124.844
230.176
-323.571
-0.789538
72.7289
212.589
-717.775
-157.79
31.2263
158.585
-565.699
-74.248
42.6273
262.189
-86.1925
69.9803
143.404
187
-90.7449
70.1588
84.8953
144.664
251.198
196.209
146.711
97.8289
169.394
150.739
102.819
86.1537
-925.469
-259.23
18.9137
227.247
-1080.19
-273.401
-74.9773
271.762
-900.711
-241.275
25.9257
232.592
-1045.71
-258.718
-73.8812
270.446
-857.612
-212.646
-12.4432
182.951
-965.729
-230.731
-97.3047
234.569
-609.168
-121.4
-25.5823
99.2706
-1018.98
-223.37
-126.882
285.344
-566.201
-82.7267
-7.22125
183.6
-954.21
-198.652
-83.2856
178.218
-405.303
-73.9952
-9.84735
40.46
-905.596
-182.617
-75.5724
179.677
-390.519
-69.0113
-10.2685
38.0758
-802.552
-149.308
-78.3403
171.408
-342.564
-54.8727
-5.50693
39.5133
-680.949
-117.682
-92.9142
147.908
-291.091
-40.3959
-11.6179
34.7983
-534.205
-70.727
-66.1927
122.508
-173.774
-6.67176
-11.3005
31.6321
-292.393
4.80048
48.1
130.992
-6.38812
65.5211
49.7824
57.4233
-449.723
-47.4391
-4.80514
127.313
-65.8065
34.592
19.2788
44.4495
-90.5029
66.7539
78.8672
119.767
65.3718
95.1661
73.5231
64.3428
128.063
128.949
89.1896
83.1475
154.894
125.459
81.5844
60.3619
27.0293
6.48986
2.00042
0.812493
0.457082
11.0106
3.02217
1.01347
0.429276
0.245312
29.7621
8.75558
3.24765
1.45929
0.852623
15.7872
5.98127
2.5345
1.20206
0.715067
36.0202
12.0082
4.88055
2.28221
1.35144
40.992
17.2087
7.80773
3.80048
2.27781
47.1559
20.4616
9.38833
4.57195
2.73459
52.0518
25.251
12.074
5.94847
3.56248
44.4059
15.8264
6.75387
3.21225
1.90747
37.3255
13.8948
6.04967
2.89343
1.72106
39.7849
13.0412
5.41202
2.55734
1.51902
31.4056
12.3852
5.63477
2.74735
1.64945
47.7601
18.3953
8.05816
3.85748
2.29263
37.2398
15.6929
7.12263
3.45012
2.05705
43.4855
20.6523
9.80877
4.8214
2.88504
35.9987
17.0793
8.09523
3.97414
2.37642
30.6863
5.98589
1.6559
0.640319
0.354049
14.5489
2.47362
0.648797
0.247242
0.136347
31.7844
7.24542
2.39261
1.02958
0.593834
14.9162
2.91628
0.912282
0.387422
0.223056
31.5791
8.43961
3.17549
1.45103
0.854708
15.0768
4.31016
1.76193
0.839037
0.50181
33.1062
11.2417
4.87029
2.35635
1.41683
19.0039
6.52318
2.90778
1.4226
0.859319
25.4402
11.7329
5.63138
2.8114
1.70456
-2267.64
-4401.78
-2372.47
-4439.29
-2651.15
-4520.79
-2972.63
-4690.68
-2915.94
-4739.83
-1276.59
-1841.13
-1981.56
-2964.63
-702.49
-935.667
-217.094
-286.73
-11593.2
-2793.21
-647.845
-146.82
-37.1715
-3142.09
-861.246
-231.524
-53.3622
-11.8491
-11363.7
-2721.04
-631.421
-142.074
-36.2627
-3206.84
-958.471
-238.966
-56.3051
-14.2347
-10688.5
-2551.03
-591.273
-133.112
-34.0631
-3106.74
-922.84
-229.535
-53.8472
-13.6706
-9617.54
-2284.12
-529.218
-119.269
-30.5793
-2981.32
-868.979
-213.847
-49.8055
-12.5941
-7934.57
-1878.58
-436.141
-98.5527
-25.3331
-2765.07
-788.142
-192.426
-44.6248
-11.2687
-3706.17
-914.693
-215.86
-49.1624
-12.6757
-1349.53
-387.946
-93.9106
-21.4173
-5.40107
-5552.18
-1352.91
-316.955
-71.8274
-18.4811
-1974.9
-563.8
-137.794
-31.958
-8.13028
-2163.88
-537.895
-127.48
-29.1741
-7.53846
-758.564
-225.132
-54.0509
-12.3014
-3.12722
-736.642
-181.807
-43.1281
-9.89582
-2.55818
-285.367
-76.8263
-16.9765
-4.82638
-0.953474
-645.257
-1923.98
-6879.01
74.8704
-7638.37
-3379.69
-7443.56
-3516.65
-13585.7
-7262.93
-15145
-7989.75
-77.8751
-256.527
-399.057
-471.936
-405.89
-55.171
-130.81
-423.496
-648.408
-738.713
-605.909
-150.805
-62.1337
-62.2614
-195.838
-193.568
-277.259
-277.471
-258.726
-262.25
-211.448
-242.558
-103.097
-157.155
820.421
1931.53
3160.18
2247.14
2007.36
870.82
684.348
1855.34
3064.17
3608.88
3005.92
1281.24
-69.9824
-58.8972
-44.4198
-27.5706
-9.34057
-230.742
-194.422
-146.821
-91.2294
-30.9268
-358.81
-302.203
-228.12
-141.703
-48.0297
-424.126
-356.999
-269.319
-167.214
-56.6622
-365.036
-307.48
-232.079
-144.121
-48.8377
-53.0999
-47.8111
-38.0126
-24.3138
-8.32653
-117.401
-98.6524
-74.2888
-46.0553
-15.5932
-380.382
-319.969
-241.229
-149.702
-50.7155
-581.896
-489.001
-368.331
-228.433
-77.3639
-661.978
-555.388
-417.704
-258.779
-87.5972
-542.208
-454.203
-341.133
-211.148
-71.4457
-136.568
-115.847
-87.9212
-54.7615
-18.5734
-55.8995
-47.1098
-35.58
-22.1087
-7.49471
-56.0521
-47.2776
-35.7376
-22.2222
-7.53609
-176.307
-148.713
-112.423
-69.9134
-23.711
-174.309
-147.073
-111.218
-69.1813
-23.4659
-249.545
-210.423
-159.024
-98.8687
-33.5266
-249.681
-210.481
-159.023
-98.8457
-33.5147
-232.99
-196.575
-148.628
-92.431
-31.3466
-235.797
-198.581
-149.876
-93.0808
-31.545
-190.817
-161.324
-122.151
-76.0101
-25.7787
-217.765
-183.041
-137.856
-85.4612
-28.9325
-94.8396
-81.6812
-62.6812
-39.2423
-13.3219
-141.359
-118.984
-89.6344
-55.5217
-18.7779
719.75
590.674
436.443
267.83
90.4593
1683.4
1374.34
1013.17
622.478
210.985
2713.31
2191.36
1609.34
993.167
340.495
1912.07
1537.62
1130.98
701.177
241.267
1738.19
1401.24
1026.11
627.746
203.924
779.448
641.6
477.074
293.465
93.1984
601.043
493.756
365.045
224.017
75.6347
1622.8
1328.73
980.923
602.352
203.763
2658.09
2161.79
1590.68
977.626
331.958
3103.8
2507.65
1840.26
1132.82
386.374
2582.37
2083.07
1527.56
940.273
319.702
1110.72
904.157
668.792
414.177
140.903
112.829
294.595
442.728
523.164
466.08
132.902
183.45
479.841
709.369
800.209
659.965
193.653
87.985
83.4821
223.981
217.837
308.478
305.76
291.373
290.219
253.053
249.402
192.531
190.663
-718.146
-1778.72
-2903.15
-1923.6
-1653.49
-507.069
-643.812
-1794.69
-2937.45
-3391.37
-2704.12
-927.841
101.714
85.9428
65.0924
40.5439
13.763
265.318
223.912
169.378
105.394
35.7567
398.514
336.105
254.083
158.022
53.5975
470.751
396.865
299.893
186.453
63.2304
419.88
354.438
268.141
166.839
56.5981
123.809
108.227
84.307
53.4214
18.2585
165.217
139.439
105.49
65.6493
22.275
431.606
363.704
274.721
170.752
57.8974
637.392
536.463
404.74
251.349
85.1888
718.056
603.447
454.65
282.074
95.5592
591.572
496.581
373.769
231.754
78.4946
175.595
149.247
113.558
70.9037
24.0859
79.3579
67.0933
50.8464
31.6849
10.7583
75.3052
63.6752
48.2616
30.0767
10.2126
201.86
170.495
129.075
80.3652
27.2742
196.344
165.857
125.579
78.1947
26.5387
277.914
234.632
177.552
110.509
37.4968
275.398
232.438
175.837
109.413
37.1201
262.681
221.936
168.058
104.647
35.5152
261.267
220.371
166.598
103.609
35.1405
228.762
193.849
147.159
91.7785
31.1682
224.477
189.276
143.025
88.9078
30.1454
176.187
151.179
115.934
72.7287
24.7496
172.167
145.643
110.327
68.6657
23.2883
-627.131
-511.977
-376.505
-230.348
-77.7148
-1545.32
-1257.28
-924.26
-567.061
-192.205
-2479.18
-1990.81
-1455.48
-896.605
-307.727
-1606.46
-1265.84
-914.429
-560.434
-191.995
-1397.24
-1093.36
-776.72
-462.493
-144.582
-426.289
-320.111
-214.561
-118.217
-30.1345
-564.516
-462.9
-341.692
-209.493
-70.7132
-1568.39
-1283.01
-946.527
-581.094
-196.597
-2542.84
-2063.3
-1515.26
-930.315
-315.867
-2902.34
-2331.92
-1702.78
-1044.89
-356.038
-2299.01
-1832.5
-1328.75
-811.343
-274.676
-776.831
-606.959
-431.408
-259.318
-86.6254
-1749.85
-1106.89
-466.594
298.091
564.894
709.927
214.65
-11835
-2357.86
-3666.37
-1708.57
-22.8756
-3844.79
503.991
1962.54
825.901
-6508.82
-3165.88
-951.467
-857.837
-3404.33
-1583.74
-504.398
-1154.45
1499.47
787.059
-687.247
-444.778
-8234.13
-3759.18
-4753.19
-2354.16
-3508.48
-3914.3
-1316.13
775.104
-735.871
-942.279
-612.309
-457.706
-427.498
-380.726
-732.531
-490.439
-324.942
-209.574
-93.1652
-395.765
-313.842
-226.109
-137.49
-46.6251
270.085
229.368
174.381
108.825
36.9755
507.236
426.22
320.691
198.53
67.1335
637.29
535.438
402.934
249.544
84.4131
198.433
171.162
130.925
81.3658
27.3904
-8017.01
-6509
-5192.33
-4517.1
-4088.8
-1544.02
-981.216
-859.427
-774.162
-472.209
-2555.22
-1809.71
-1377.17
-1019.87
-538.161
-1099.52
-692.823
-548.661
-419.619
-171.327
-1.49393
6.93276
1.6267
-8.034
-7.74811
-3114.6
-2441.76
-1778.12
-1136.61
-431.226
460.568
386.987
285.495
170.51
54.9681
1678.34
1344
972.887
588.719
197.355
736.608
611.734
453.704
277.08
92.6588
-4307.43
-3602.14
-2897.85
-2545.13
-2302.79
-2190.22
-1534.81
-1154.53
-829.679
-408.325
-761.542
-590.1
-440.683
-296.89
-118.388
-695.095
-538.202
-392.827
-252.353
-93.9347
-2774.26
-2163.22
-1576.7
-1000.86
-371.295
-1315.03
-1033.39
-752.546
-472.183
-166.448
-410.119
-315.154
-225.065
-139.701
-49.6048
-982.257
-785.246
-572.98
-353.586
-121.577
1325.58
1094.75
810.81
496.27
166.703
708.099
594.713
445.766
274.195
92.1029
-569.546
-446.658
-325.021
-204.115
-72.6327
-364.266
-281.793
-203.085
-127.264
-45.2603
-4920.04
-3246.6
-2542.73
-2153.82
-1784.75
-2692.71
-1942.1
-1384.41
-920.911
-397.617
-3134.85
-2330.84
-1701.69
-1230.54
-569.794
-1737.6
-1296.08
-924.47
-609.273
-260.354
-2880.74
-2252.41
-1637.02
-1028.4
-369.618
-2740.18
-1825.03
-1338.86
-935.928
-384.41
-1107.45
-876.892
-636.588
-393.339
-136.202
698.717
588.455
442.541
273.113
91.9817
-593.895
-455.491
-328.714
-208.758
-75.9131
-5.36963
4.77083
17.5629
5.13843
-62.6066
-194.027
-23640.6
-20934.4
-19705.4
-22409.3
-17441.4
-13889.7
-15525.1
-11853.4
-20842.9
-18528
-19242.6
-18308.4
-16961.7
-14545.8
-17902.6
-19656.4
-17636.3
-15999.6
-17986.3
-14903.7
-12651.4
-13141.5
-10573.8
-18883.1
-17056.7
-17446.1
-16125.9
-15189.1
-14155.8
-14800.5
-15630.9
-14373
-12778.3
-13948.8
-12533.2
-10823.3
-11051.8
-9489.14
-15970
-14833.8
-14898.4
-13901.3
-13027.2
-12040.7
-12637.1
-11095.3
-10465.5
-9111.44
-9653.29
-9428.6
-8490.06
-8278.19
-7537.51
-11735.9
-11949.4
-11095.3
-11296.6
-9952.04
-9037.93
-10088.9
-7171.64
-6867.85
-5899.59
-6154.43
-6361.32
-5779.91
-5493.77
-5061.12
-7833.17
-7896.1
-7490.68
-7429.25
-6852.93
-6219.08
-6778.63
-2595.23
-2506.22
-2140.42
-2216.46
-2357.59
-2200.62
-2018.7
-1878.39
-2954.66
-2986.25
-2781.3
-2697.58
-2575.87
-2367.55
-2552
-8733.83
-8585.93
-13234
-14263.7
-8175.54
-7252.19
-11611.6
-9449.76
-6503.15
-4563.91
-6478.86
-4599.47
-6484.81
-6262.75
-4755.25
-8657.49
-8214.83
-11825.4
-12878.1
-7624.55
-6883.85
-10300.6
-8839.58
-6435.4
-3861.92
-6340.63
-4137.02
-5795.84
-5619.06
-4604.68
-7827.99
-7452.24
-10028.1
-10749.9
-6986.71
-6468.34
-8970.21
-7905.04
-5232.78
-3945.19
-5222.84
-4248.31
-4858.29
-4900.21
-4521.64
-6213.95
-5968.55
-7500.47
-7884.56
-5652.02
-5258.14
-6928.6
-6292.21
-4794.29
-3367.98
-4722.29
-3661.35
-4406.22
-4410.48
-3863.73
-4222.54
-4080.97
-4942.64
-5137.09
-3798.29
-3497.59
-4646.19
-4248.17
-3273.95
-2483.07
-3213.65
-2677.46
-3007.89
-2982.71
-2673.11
-1558.66
-1508.99
-1802.72
-1864.34
-1400.58
-1283.15
-1706.34
-1567.73
-1074.44
-898.158
-1138.44
-1002.42
-1104.26
-1085.1
-966.299
8203.43
26449.2
6541.09
27662
4872.92
28460.7
7616.26
43381.2
9341.58
59510.2
9319.8
43627.6
9028.97
36361.5
9405.4
31903.6
5692.43
3613.56
15281.1
9166.07
5522.85
2999.78
16487.7
8186.58
6313.32
4706.71
19902.4
14352.7
4786.58
3587.32
19972.6
14836.8
11326
4826.91
9858.26
4453.5
4637.86
10717.1
38103.6
10216
13681.1
4445.34
48563.1
13015.2
12591.5
4116.48
27536.5
8472.04
14150
4824.42
24230
7645.74
7795.97
3866.17
10486.6
4161.87
8535.62
4593.85
10377.9
4065.59
10564.4
6073.76
8934.57
3971.09
12799.7
4669.29
4354.34
1540.87
14629.8
10364.4
8843.33
6556.38
15543.9
12838.7
8381.23
7229.58
8689.38
6067.77
12701.1
8814.62
5670.67
4194.33
2679.36
2203.67
5251.8
4516.28
2484.4
2424.68
5636.83
3786.51
2722.7
1757.06
7987.51
4414.38
6180.65
7298.2
11273.2
8070.57
9231.45
12712
5135.6
2482.76
3549.95
4102.84
2428.96
1037.69
1441.8
1481.23
10873.9
19454.4
7268.93
21589.2
12626.5
18939.9
8907.89
22407.9
14093.4
16980.3
11275.1
21555.7
14932.5
16700.4
12220.9
12037.1
12938.3
16796.1
16672
17415.4
18422
26088.8
13688.6
11430.8
10542.3
11950.4
18099.9
22785.8
20581.6
26255.9
25540.4
20824.2
19472.7
25771
24908.9
17962.4
17705.5
23998
23860.5
12450.4
10021.1
12676.2
11427.1
14380
13459.2
15959.4
15829.4
21733.5
22804.4
11539.7
10395.6
11872.2
12187.5
12835.3
14444.6
14720.9
17336.8
19063.1
22941.2
9774.91
7718.68
6533.28
8125.98
12422.2
14726.5
8441.76
13096.4
5836.7
7441.99
8920.42
7444.61
1664.41
5289.75
677.441
1778.45
4205.38
8625.72
1373.69
2844.46
1008.62
4686.8
384.795
1549.24
5900.32
5942.26
6758.54
4389.37
9511.79
7781.73
11205.2
8025.74
1582.68
3226.59
3360.12
2028.03
1718.59
2200.55
2425.58
1838.61
16638
10219.8
3283.1
18684.4
10878.8
3587.05
15942.7
10092.6
3460.17
18294
10857
3580.2
14644.2
9290.25
3084.02
17737.5
10851.1
3643.69
6979.58
4089.38
1211.8
9521.26
6367.75
2192.4
11777.4
8115.71
2801.66
13896.2
9120.23
3051.1
17474.3
11069
3858.72
8022.89
4832.63
1642.49
9337.67
6804.75
2595.44
11449.3
8451.62
3144.24
14187.6
10020.9
3626.15
17727.4
11286.9
4048.63
280.351
2050.74
2866.23
4165.13
2374.67
2681.44
5905.08
5559.86
577.911
958.281
615.335
993.145
454.5
1339.56
829.23
1760.35
3079.65
1520.87
3967.6
2323.59
2055.64
3540.46
3359.53
525.09
6468.75
1263.01
-2414.36
120.4
1493.9
855.267
843.432
524.947
9228.81
3902.95
2481.2
1436.41
9357.8
4034.75
3145.69
1819.66
9261.03
4309.27
4473.16
2896.38
3091.2
2055.32
1142.53
1101.85
12993.9
11419
5999.03
6162.38
14615.7
13602.4
7113.9
7099.58
5049.87
5139.76
10691.2
8757.98
3401.17
3583.44
1645.96
2005.51
4222.69
4186.43
2070.31
2293.71
2761.25
3039.12
1291.12
1807.34
4258.67
2690.84
4165.65
2634.67
6820.03
3591.41
6329.96
3705.34
2377.91
1859.22
2543.72
1633.48
1083.16
1018.28
1512.84
884.44
10659.2
6743.17
4933.11
4598.43
10617.6
7025.92
4937.19
4584.45
11182.3
7575.46
5008.84
4513.06
14274.2
16143.4
12425
7859
3968.29
15310.5
13406.6
11776
9140.73
5178.34
14279.1
12285.1
9331.15
6731.58
3704.38
5114.54
4113.58
4435.02
4593.27
5483.35
4221.9
4569.72
4639.11
6080.32
4553.57
4765.67
4752.56
11537.5
8259.79
10083.5
6956.89
7419.39
5790.2
6412.65
5173.02
4527.76
4854.41
9621.66
8413.02
8010.96
6904.58
6384.04
5611.75
5135.85
4824.62
3511.29
4598.64
7133.51
4870.83
4672.84
2912.65
9808.94
7583.79
6702.91
5498.6
3571.51
2168.8
5249.15
3807.43
4551.59
2185.49
1493.92
835.374
5055.59
3711.37
1581.03
1325.15
3730.93
1642.32
1322.83
661.48
2663.84
2317.54
2014.01
2810.11
3767.82
3340.91
2572.38
3558.23
2727.84
1641.53
1478.29
1926.5
697.322
300.741
-23.7876
250.901
2727.37
1149.85
340.281
2955.72
800.697
215.326
2885.23
1292.03
397.457
3020.96
853.122
241.073
2946.59
1402.33
377.041
3094.77
911.146
223.5
5312.24
2886.93
752.954
4284.1
2182.64
577.742
3715.6
1840.64
524.228
3265.11
1553.21
368.228
3191.65
934.593
163.828
6429.37
3425.46
1015.43
5226.8
2667.19
775.256
4294.01
2152.97
641.232
3622.98
1607.49
422.88
3481.66
898.398
228.323
1403.85
474.024
114.054
-55.2181
581.575
204.065
59.2532
-5.48435
1479.14
512.689
144.208
-22.2378
731.405
273.526
125.212
53.7042
1565.5
556.244
199.336
34.7759
1197.2
488.297
154.096
25.8383
837.53
401.941
82.0777
-33.7128
682.791
386.337
170.567
78.5398
1232.21
487.955
124.223
-76.4497
1020.54
396.557
155.907
-62.228
1497.8
536.275
173.932
-26.4588
1318.36
469.997
181.04
-98.2551
927.71
413.537
128.759
-30.1407
740.173
321.258
147.791
2.55328
608.226
319.256
151.241
74.2804
457.578
239.253
134.626
64.0933
1757.87
575.986
132.614
-120.286
1674.77
526.399
184.271
-157.717
1749.73
578.848
140.77
-115.372
1622.24
509.671
185.929
-154.067
1707.26
572.058
185.974
-66.0387
1521.19
479.279
209.58
-115.71
1485.71
516.911
225.026
34.5953
1664.58
528.647
275.26
-130.594
1296.08
449.23
212.655
-19.0093
1269.88
365.809
155.095
-94.3725
492.731
131.955
42.4239
-12.9772
1323.2
388.238
163.855
-88.1238
517.713
141.75
49.7025
-6.20889
1374.95
415.147
187.751
-72.4643
540.834
154.055
58.3207
0.864837
1251.93
388.136
205.401
-50.0936
535.129
158.237
74.457
13.2751
1148.4
377.309
206.207
-17.9145
487.868
163.25
93.2896
28.5228
756.351
272.423
117.337
-8.20263
437.438
187.074
94.2377
42.1537
903.168
297.558
144.336
-17.6742
459.988
176.016
95.6709
36.6439
576.547
238.783
107.564
12.4339
362.614
176.751
88.3764
46.7158
365.575
190.226
106.719
52.9926
267.178
155.155
87.8511