/*--------------------------------*- C++ -*----------------------------------*\
| =========                 |                                                 |
| \\      /  F ield         | OpenFOAM: The Open Source CFD Toolbox           |
|  \\    /   O peration     | Version:  2306                                  |
|   \\  /    A nd           | Website:  www.openfoam.com                      |
|    \\/     M anipulation  |                                                 |
\*---------------------------------------------------------------------------*/
FoamFile
{
    version     2.0;
    format      ascii;
    arch        "LSB;label=32;scalar=64";
    class       volVectorField;
    location    "1";
    object      flux;
}
// * * * * * * * * * * * * * * * * * * * * * * * * * * * * * * * * * * * * * //

dimensions      [0 1 -1 1 0 0 0];

internalField   nonuniform List<vector> 
2658
(
(9.79498e-07 9.58299e-07 -8.14377e-06)
(1.44468e-06 5.61592e-07 -7.75055e-06)
(4.67722e-07 1.72018e-07 -5.0644e-06)
(-9.48669e-09 -9.83887e-09 -4.55591e-06)
(-1.72554e-06 -1.69801e-06 -5.88341e-06)
(-1.45452e-06 2.07101e-06 -6.00882e-06)
(1.39307e-06 -1.62668e-06 -5.01681e-06)
(1.37975e-06 1.37272e-06 -4.85821e-06)
(-1.79798e-08 -3.42614e-09 -4.55212e-06)
(2.05755e-06 -1.47384e-06 -5.99216e-06)
(-1.47325e-06 4.38318e-07 -6.39225e-06)
(-1.12783e-06 -3.78465e-06 -5.33975e-06)
(8.00838e-07 2.38701e-06 -7.37044e-06)
(9.27635e-07 2.42399e-06 -6.97065e-06)
(7.01841e-07 1.97974e-06 -7.10628e-06)
(-4.56039e-08 2.02487e-06 -7.29771e-06)
(-3.05543e-08 2.20534e-06 -7.12451e-06)
(-2.31452e-08 1.99533e-06 -7.28188e-06)
(-7.66949e-07 2.02565e-06 -7.09246e-06)
(-1.00747e-06 2.39402e-06 -6.8762e-06)
(-9.80674e-07 2.31429e-06 -7.24505e-06)
(-2.27603e-06 2.03695e-06 -6.52786e-06)
(-2.67925e-06 6.83269e-07 -7.4212e-06)
(1.97296e-06 -4.24172e-07 -5.48512e-06)
(-8.1559e-07 7.16762e-07 -8.67653e-06)
(-1.07729e-06 2.20221e-06 -7.23986e-06)
(-2.3148e-06 -4.68164e-07 -6.53137e-06)
(-3.15193e-07 1.38568e-07 -7.55805e-06)
(-1.69407e-06 1.79596e-06 -7.79368e-06)
(-1.84892e-06 -9.29599e-11 -6.52266e-06)
(-1.69405e-06 -1.79599e-06 -7.79361e-06)
(-2.31484e-06 4.68173e-07 -6.53137e-06)
(-1.07735e-06 -2.20233e-06 -7.23979e-06)
(-2.6794e-06 -6.83257e-07 -7.4211e-06)
(-8.1554e-07 -7.16739e-07 -8.67652e-06)
(1.97294e-06 4.24226e-07 -5.48503e-06)
(-9.54009e-07 -7.7393e-08 -6.80714e-06)
(4.89805e-07 1.91631e-07 -9.97774e-06)
(-2.27567e-06 -2.03756e-06 -6.52778e-06)
(-9.80945e-07 -2.31443e-06 -7.24523e-06)
(-1.00745e-06 -2.39419e-06 -6.87629e-06)
(-7.66894e-07 -2.02573e-06 -7.09247e-06)
(-2.3288e-08 -1.99518e-06 -7.2818e-06)
(7.15389e-08 9.72082e-07 -1.02113e-05)
(-1.19867e-06 -9.28649e-08 -6.17517e-06)
(1.11918e-06 -2.18203e-08 -6.10861e-06)
(-1.47321e-06 -4.38348e-07 -6.39227e-06)
(-6.11205e-08 1.01278e-06 -1.02078e-05)
(-4.58317e-08 -2.02523e-06 -7.29781e-06)
(7.01855e-07 -1.97976e-06 -7.10632e-06)
(9.27678e-07 -2.42381e-06 -6.97058e-06)
(8.00813e-07 -2.38702e-06 -7.37051e-06)
(2.15956e-06 -2.13864e-06 -6.60565e-06)
(-4.46072e-07 4.32976e-07 -1.03684e-05)
(2.40173e-06 -7.99863e-07 -7.37715e-06)
(1.98754e-06 -7.22442e-07 -7.11435e-06)
(-1.02774e-06 5.40539e-08 -1.02074e-05)
(4.13793e-08 -1.13494e-06 -6.13579e-06)
(-3.55618e-06 -1.76748e-11 -5.54814e-06)
(2.00156e-06 -5.09175e-09 -7.28928e-06)
(-1.02769e-06 -5.40319e-08 -1.02075e-05)
(1.98758e-06 7.22404e-07 -7.11445e-06)
(2.40171e-06 7.99919e-07 -7.37722e-06)
(-4.46002e-07 -4.33029e-07 -1.03684e-05)
(4.18927e-07 4.23648e-07 -6.40906e-06)
(-3.78996e-06 -1.09517e-06 -5.35033e-06)
(4.10378e-07 -1.46418e-06 -6.37624e-06)
(-7.2916e-08 -7.48493e-08 -5.54027e-06)
(-1.09245e-06 -2.29529e-06 -5.93593e-06)
(-1.09257e-06 2.29529e-06 -5.9358e-06)
(-1.93855e-08 1.97202e-11 -4.61228e-06)
(9.96486e-07 1.78693e-06 -4.90968e-06)
(-9.74407e-08 -2.6326e-08 -3.62632e-06)
(-9.88998e-07 1.34473e-06 -3.97998e-06)
(4.26165e-08 3.48764e-09 -2.90875e-06)
(-1.04603e-06 -1.02477e-06 -3.94229e-06)
(1.33157e-06 -1.0113e-06 -3.96823e-06)
(-1.10822e-09 4.9349e-08 -2.9045e-06)
(-1.03707e-06 8.82784e-07 -3.14189e-06)
(1.15105e-06 5.75445e-07 -3.07367e-06)
(-1.53558e-06 -6.79758e-07 -3.96844e-06)
(-3.92536e-08 -8.47501e-08 -3.62429e-06)
(1.79234e-06 9.50455e-07 -4.88375e-06)
(-1.6338e-06 1.43729e-06 -5.03272e-06)
(-3.39344e-08 -2.29899e-08 -4.29236e-06)
(-1.78391e-08 -1.06571e-08 -2.72976e-06)
(7.49906e-10 4.90371e-09 -1.61139e-06)
(5.06587e-09 7.46418e-09 -8.75683e-07)
(4.2126e-09 5.69279e-09 -4.37867e-07)
(2.54881e-09 3.55345e-09 -2.01844e-07)
(1.25561e-09 1.93132e-09 -8.67895e-08)
(-1.0088e-09 -1.81084e-09 -4.76206e-08)
(8.21627e-10 8.56235e-10 -3.29361e-08)
(-7.09717e-09 5.09751e-09 -2.81853e-08)
(4.37627e-09 -1.90238e-09 -2.75811e-08)
(-1.03176e-09 -6.64431e-09 -3.34293e-08)
(-5.41317e-09 -6.19379e-10 -2.70288e-08)
(1.04314e-11 -5.2949e-09 -3.97796e-08)
(5.38118e-09 -7.16611e-10 -2.70163e-08)
(-4.48332e-09 -1.76884e-09 -2.72694e-08)
(2.33513e-09 -5.72893e-09 -3.98637e-08)
(6.05877e-09 -1.35024e-09 -2.76092e-08)
(6.10722e-09 -6.23882e-09 -3.26399e-08)
(4.02393e-09 -2.60287e-09 -3.29969e-08)
(4.22647e-09 -2.31344e-09 -2.80858e-08)
(-9.50573e-09 5.41349e-09 -3.32611e-08)
(-1.5406e-09 -1.89039e-09 -2.46506e-08)
(-1.08529e-09 -4.26615e-10 -4.84259e-08)
(-7.22483e-10 8.61304e-10 -2.58959e-08)
(2.44803e-09 -5.41904e-09 -3.58112e-08)
(5.22533e-09 1.79657e-09 -3.29259e-08)
(1.96299e-09 -2.36829e-09 -2.71328e-08)
(4.0666e-09 -8.42944e-15 -3.64316e-08)
(1.96253e-09 2.36847e-09 -2.71319e-08)
(5.22529e-09 -1.79709e-09 -3.29263e-08)
(2.44815e-09 5.41906e-09 -3.58127e-08)
(4.22735e-09 2.31335e-09 -2.80874e-08)
(-9.50607e-09 -5.4144e-09 -3.32613e-08)
(6.10827e-09 6.23812e-09 -3.26401e-08)
(4.02502e-09 2.60227e-09 -3.29969e-08)
(6.05813e-09 1.34839e-09 -2.76063e-08)
(2.33376e-09 5.72882e-09 -3.98601e-08)
(-4.48384e-09 1.76863e-09 -2.72689e-08)
(5.38121e-09 7.1615e-10 -2.70153e-08)
(-9.35163e-09 -4.31916e-09 -2.95306e-08)
(9.23169e-09 -4.15272e-09 -2.96627e-08)
(-7.09785e-09 -5.09824e-09 -2.81845e-08)
(-1.03228e-09 6.64532e-09 -3.34312e-08)
(-5.41296e-09 6.2025e-10 -2.70288e-08)
(4.37555e-09 1.90293e-09 -2.75821e-08)
(-2.43355e-09 5.6657e-09 -4.01178e-08)
(-6.01099e-09 1.24212e-09 -2.75719e-08)
(-3.84737e-09 2.65213e-09 -3.29835e-08)
(-3.49456e-09 2.6408e-09 -2.74383e-08)
(-2.42571e-09 5.13499e-09 -3.58299e-08)
(1.46705e-10 -2.48972e-09 -2.71255e-08)
(-1.32015e-09 3.95125e-10 -2.68892e-08)
(-8.64179e-09 5.41738e-10 -3.49148e-08)
(5.80523e-09 -6.23876e-09 -2.89065e-08)
(5.80248e-09 6.24077e-09 -2.89074e-08)
(-1.31997e-09 -3.95228e-10 -2.68879e-08)
(1.45172e-10 2.49031e-09 -2.71253e-08)
(2.16889e-09 -1.35767e-09 -2.88774e-08)
(-2.60331e-09 -1.39227e-09 -2.97177e-08)
(-2.97274e-09 -1.29288e-11 -3.7088e-08)
(-2.59743e-09 1.38818e-09 -2.97042e-08)
(1.13141e-09 2.87714e-12 -3.5879e-08)
(1.26705e-09 3.72699e-12 -3.72768e-08)
(-5.35306e-09 -2.86511e-09 -2.48085e-08)
(-5.56666e-09 2.82302e-09 -2.49284e-08)
(-4.59349e-09 7.81144e-12 -2.29739e-08)
(-5.81942e-09 2.39727e-10 -3.35136e-08)
(-5.73833e-09 1.63124e-09 -3.53442e-08)
(-5.89334e-09 -1.88187e-09 -2.07948e-08)
(-4.98263e-09 7.17295e-09 -2.9307e-08)
(-8.50878e-09 1.57982e-09 -2.83326e-08)
(-7.49561e-09 6.79222e-09 -2.58315e-08)
(-3.25142e-09 8.13232e-09 -2.79171e-08)
(-3.92678e-09 8.72182e-09 -2.55668e-08)
(-2.93288e-09 6.69157e-09 -2.75827e-08)
(1.27381e-10 6.74418e-09 -2.83638e-08)
(-2.89248e-11 8.0242e-09 -2.59729e-08)
(-2.62072e-10 6.7712e-09 -2.83695e-08)
(2.66003e-09 6.74098e-09 -2.74091e-08)
(3.8088e-09 8.86217e-09 -2.52296e-08)
(3.16601e-09 8.18877e-09 -2.75577e-08)
(7.40299e-09 7.03745e-09 -2.54372e-08)
(9.80399e-09 2.19055e-09 -2.93281e-08)
(-2.28101e-09 1.33107e-10 -4.80689e-08)
(9.98948e-09 3.1305e-09 -5.01295e-08)
(-2.85434e-08 -1.85831e-08 -8.72367e-08)
(4.44093e-08 3.18839e-08 -1.40637e-07)
(-6.57479e-08 -4.60465e-08 -2.16614e-07)
(1.02823e-07 7.23035e-08 -3.2594e-07)
(-1.46634e-07 -1.06365e-07 -4.84112e-07)
(2.20096e-07 1.53017e-07 -6.99423e-07)
(-3.02754e-07 -2.24067e-07 -9.94457e-07)
(4.33948e-07 2.98725e-07 -1.37978e-06)
(-5.75635e-07 -4.321e-07 -1.87736e-06)
(7.89652e-07 5.3587e-07 -2.50246e-06)
(-1.00665e-06 -7.67215e-07 -3.25813e-06)
(1.33389e-06 8.83547e-07 -4.16725e-06)
(-1.62079e-06 -1.26687e-06 -5.20527e-06)
(2.14306e-06 1.33827e-06 -6.22573e-06)
(-2.13302e-06 1.31939e-06 -6.01613e-06)
(2.26665e-06 1.10862e-06 -5.9006e-06)
(-2.34346e-06 1.05429e-06 -5.96184e-06)
(2.05749e-06 1.4739e-06 -5.99207e-06)
(-1.72562e-06 1.69796e-06 -5.88333e-06)
(-9.49381e-09 9.81871e-09 -4.55584e-06)
(-1.45443e-06 -2.07106e-06 -6.00888e-06)
(4.10298e-07 1.46419e-06 -6.37614e-06)
(-3.78988e-06 1.09508e-06 -5.35033e-06)
(4.18933e-07 -4.23664e-07 -6.40906e-06)
(-1.12785e-06 3.78459e-06 -5.33976e-06)
(4.71823e-07 -4.80091e-07 -8.62647e-06)
(-3.39412e-08 2.29612e-08 -4.29235e-06)
(-1.78399e-08 1.06383e-08 -2.72974e-06)
(7.38693e-10 -4.90875e-09 -1.61138e-06)
(5.05823e-09 -7.47298e-09 -8.75675e-07)
(4.21551e-09 -5.69969e-09 -4.3786e-07)
(2.5508e-09 -3.55268e-09 -2.01839e-07)
(1.25613e-09 -1.93128e-09 -8.67871e-08)
(-1.00894e-09 1.81104e-09 -4.76207e-08)
(8.21502e-10 -8.55873e-10 -3.29364e-08)
(1.86626e-10 -9.31396e-11 -2.39051e-08)
(-2.63423e-09 -2.49218e-09 -2.65055e-08)
(-4.36034e-10 1.31051e-09 -4.78741e-08)
(3.3879e-09 -3.13507e-09 -2.72104e-08)
(3.38778e-09 3.13482e-09 -2.72107e-08)
(-2.63448e-09 2.49269e-09 -2.65061e-08)
(1.87212e-10 9.2673e-11 -2.39052e-08)
(-4.3463e-10 -1.31132e-09 -4.78746e-08)
(8.76523e-10 -8.26762e-10 -2.47966e-08)
(9.23138e-09 4.15288e-09 -2.96623e-08)
(-9.35235e-09 4.31879e-09 -2.9531e-08)
(6.92928e-10 -6.71605e-09 -3.32739e-08)
(7.13262e-09 4.90613e-09 -2.82474e-08)
(-5.38494e-10 1.08204e-09 -3.28471e-08)
(-4.22392e-11 3.49234e-11 -2.39401e-08)
(-9.68498e-10 -7.99215e-10 -2.47537e-08)
(-4.40147e-11 6.77299e-10 -3.37952e-08)
(1.42532e-11 -1.89633e-10 -4.84034e-08)
(8.86919e-10 2.81517e-11 -4.77517e-08)
(8.01379e-10 -1.47627e-14 -5.08124e-08)
(8.86901e-10 -2.86538e-11 -4.77508e-08)
(-5.39919e-10 -1.08377e-09 -3.28468e-08)
(-1.53998e-09 1.89001e-09 -2.46502e-08)
(-4.49744e-09 -4.00182e-09 -2.72059e-08)
(-1.08437e-09 4.27501e-10 -4.84259e-08)
(9.61532e-10 -4.28883e-09 -2.84199e-08)
(9.61997e-10 4.29031e-09 -2.84201e-08)
(-4.49791e-09 4.00253e-09 -2.72058e-08)
(-1.37853e-10 3.68092e-13 -3.51956e-08)
(2.84259e-09 -2.76927e-09 -2.66929e-08)
(-3.50382e-09 -3.10409e-09 -2.70592e-08)
(-3.50499e-09 3.10515e-09 -2.70591e-08)
(5.63656e-11 -1.271e-09 -4.76696e-08)
(2.84375e-09 2.77051e-09 -2.66931e-08)
(-5.22469e-11 -4.4146e-10 -3.15812e-08)
(-5.16591e-10 2.38726e-13 -2.7937e-08)
(-6.88061e-10 -1.89542e-09 -2.74198e-08)
(-6.59699e-10 -8.77921e-10 -2.52578e-08)
(2.97755e-09 2.62557e-09 -2.92681e-08)
(-6.59486e-10 -6.47399e-10 -2.73989e-08)
(-1.40502e-10 3.81986e-13 -2.86881e-08)
(-4.82294e-09 2.94581e-13 -4.37196e-08)
(-1.62041e-10 -1.13368e-13 -4.54718e-08)
(-2.47081e-09 -5.00473e-09 -3.28441e-08)
(4.22836e-09 3.25271e-09 -4.15178e-08)
(3.71478e-09 8.16453e-09 -2.77148e-08)
(7.85549e-09 -2.11233e-09 -2.31852e-08)
(5.56717e-09 6.40956e-09 -2.89376e-08)
(-1.74415e-08 -9.7524e-09 -3.60996e-08)
(1.51423e-08 1.60004e-08 -6.71235e-08)
(-3.2128e-08 -2.17178e-08 -9.50203e-08)
(-3.21262e-08 2.17164e-08 -9.50203e-08)
(-6.08826e-10 3.21075e-09 -7.60492e-08)
(-4.15948e-08 3.29284e-08 -1.48857e-07)
(1.03979e-09 1.94045e-09 -1.15303e-07)
(6.02007e-08 -5.30853e-08 -2.2688e-07)
(-9.32281e-08 7.75862e-08 -3.43948e-07)
(1.00357e-09 1.08501e-09 -2.61646e-07)
(1.34955e-07 -1.16981e-07 -5.04203e-07)
(-1.98836e-07 1.68631e-07 -7.33764e-07)
(-1.05317e-10 -1.36645e-09 -5.48838e-07)
(2.78307e-07 -2.38904e-07 -1.03487e-06)
(-3.91844e-07 3.36046e-07 -1.44158e-06)
(-3.77481e-09 -8.3469e-09 -1.05942e-06)
(5.28126e-07 -4.49349e-07 -1.95462e-06)
(-7.08016e-07 6.14832e-07 -2.60439e-06)
(-1.31235e-08 -2.94334e-08 -1.8809e-06)
(9.27926e-07 -7.76269e-07 -3.39549e-06)
(-1.16642e-06 1.03678e-06 -4.32714e-06)
(-2.86866e-08 -9.29691e-08 -3.06987e-06)
(1.5516e-06 -1.23063e-06 -5.39508e-06)
(-1.71193e-06 1.61314e-06 -6.71454e-06)
(-9.77147e-08 -2.92906e-07 -4.7874e-06)
(2.82434e-06 -1.91789e-06 -7.59327e-06)
(4.69477e-07 -9.20767e-07 -5.35919e-06)
(3.43132e-06 -2.09062e-06 -6.99056e-06)
(3.4313e-06 2.09065e-06 -6.99052e-06)
(-3.15136e-07 -1.38502e-07 -7.55793e-06)
(8.09513e-07 -6.08208e-07 -7.70743e-06)
(-2.7517e-07 1.10233e-06 -6.77044e-06)
(1.12435e-06 9.82553e-07 -6.25389e-06)
(6.5061e-08 -1.55756e-11 -9.11278e-06)
(-6.97121e-07 -6.8821e-07 -5.95851e-06)
(-6.97116e-07 6.88206e-07 -5.95855e-06)
(7.73568e-07 7.24639e-07 -6.00829e-06)
(-3.46563e-08 -1.06724e-11 -9.11872e-06)
(-9.01346e-07 -8.69725e-07 -6.08435e-06)
(-9.01331e-07 8.69718e-07 -6.08437e-06)
(2.43993e-07 3.57091e-07 -5.805e-06)
(-2.99317e-07 -1.00653e-11 -9.03394e-06)
(-1.31144e-06 -2.30193e-06 -7.45344e-06)
(-1.31144e-06 2.30188e-06 -7.4534e-06)
(4.76695e-07 -1.4811e-06 -8.88278e-06)
(1.90853e-06 1.20275e-11 -1.26845e-05)
(4.7671e-07 1.48105e-06 -8.88281e-06)
(7.45804e-07 -1.15826e-06 -9.03102e-06)
(2.08924e-06 7.3466e-07 -1.25418e-05)
(8.94448e-07 1.69318e-06 -9.01275e-06)
(1.20239e-06 1.19653e-06 -1.04873e-05)
(1.48089e-06 1.47521e-06 -8.85204e-06)
(-2.27698e-06 -2.26022e-06 -8.64052e-06)
(-1.32146e-06 1.57039e-06 -7.11446e-06)
(1.23635e-06 2.00698e-07 -8.26851e-06)
(8.60864e-07 1.32605e-07 -9.92761e-06)
(-6.32083e-09 1.33041e-08 -9.12603e-06)
(2.44002e-07 -3.57109e-07 -5.80499e-06)
(-1.45171e-07 -1.30536e-07 -5.55871e-06)
(-3.88935e-07 -3.83446e-07 -8.95e-06)
(1.56738e-06 -1.29391e-06 -7.14836e-06)
(-1.17347e-06 7.40988e-07 -9.03425e-06)
(7.31882e-07 2.05998e-06 -1.25423e-05)
(1.69659e-06 8.88966e-07 -9.01848e-06)
(9.70839e-07 9.69912e-07 -9.98492e-06)
(-5.22976e-07 -5.13494e-07 -9.1491e-06)
(-6.98568e-07 7.80645e-12 -9.2428e-06)
(-5.22946e-07 5.1352e-07 -9.14906e-06)
(-3.88954e-07 3.83446e-07 -8.94999e-06)
(-1.32143e-06 -1.5704e-06 -7.11443e-06)
(-2.27694e-06 2.26017e-06 -8.64056e-06)
(8.94474e-07 -1.69334e-06 -9.0125e-06)
(2.08932e-06 -7.34763e-07 -1.25419e-05)
(7.45859e-07 1.15822e-06 -9.03094e-06)
(1.23635e-06 -2.00757e-07 -8.26861e-06)
(8.60884e-07 -1.32622e-07 -9.92762e-06)
(9.70973e-07 -9.69821e-07 -9.98493e-06)
(1.69646e-06 -8.8903e-07 -9.01886e-06)
(7.31761e-07 -2.05995e-06 -1.25422e-05)
(-1.17349e-06 -7.41027e-07 -9.03437e-06)
(1.56732e-06 1.29389e-06 -7.14834e-06)
(1.89999e-07 -1.24319e-06 -8.2612e-06)
(1.46272e-06 -5.16968e-07 -8.9408e-06)
(-3.45482e-08 -1.90383e-06 -1.26938e-05)
(-1.52039e-06 -4.61214e-07 -8.89339e-06)
(2.29535e-06 1.21632e-06 -7.47953e-06)
(-3.27429e-08 2.94556e-07 -9.04614e-06)
(-4.02086e-07 -2.6954e-07 -5.79801e-06)
(-2.35506e-06 1.31996e-06 -7.46017e-06)
(-3.64084e-08 -2.77704e-07 -8.19182e-06)
(-2.74533e-07 -3.4399e-07 -8.30901e-06)
(1.94759e-08 -2.40989e-08 -4.53646e-06)
(1.49196e-08 -3.03313e-08 -2.89784e-06)
(6.80949e-09 -3.07399e-08 -1.71441e-06)
(3.25673e-09 -2.24165e-08 -9.32924e-07)
(1.53354e-09 -1.37664e-08 -4.66935e-07)
(6.19908e-10 -7.58951e-09 -2.15325e-07)
(1.86588e-10 -3.8608e-09 -9.25618e-08)
(-1.08616e-09 -3.54013e-09 -8.82109e-08)
(2.95843e-08 -1.71591e-08 -8.57096e-08)
(-3.22498e-08 -1.45479e-08 -8.50368e-08)
(3.20479e-08 -1.29769e-08 -8.51056e-08)
(-2.95898e-08 -2.04651e-08 -8.57906e-08)
(4.23764e-08 3.64595e-08 -1.33903e-07)
(-6.96409e-08 -5.19184e-08 -2.08284e-07)
(1.00611e-07 8.32818e-08 -3.09812e-07)
(-1.54462e-07 -1.20199e-07 -4.65161e-07)
(2.17944e-07 1.76366e-07 -6.65588e-07)
(-3.16373e-07 -2.54297e-07 -9.55955e-07)
(4.33341e-07 3.43963e-07 -1.31441e-06)
(-5.97242e-07 -4.93911e-07 -1.80685e-06)
(7.92706e-07 6.15901e-07 -2.38535e-06)
(-1.03699e-06 -8.82787e-07 -3.14189e-06)
(1.3315e-06 1.01136e-06 -3.96814e-06)
(-1.63375e-06 -1.43732e-06 -5.03276e-06)
(-1.79577e-08 3.36592e-09 -4.55203e-06)
(1.37976e-06 -1.37267e-06 -4.85822e-06)
(1.39289e-06 1.62679e-06 -5.01674e-06)
(9.9667e-07 -1.78697e-06 -4.9098e-06)
(-7.19792e-07 1.50563e-06 -3.96313e-06)
(4.54957e-08 -7.3111e-12 -2.96354e-06)
(-7.19653e-07 -1.50562e-06 -3.96317e-06)
(6.11967e-07 1.14351e-06 -3.08759e-06)
(8.50267e-07 -1.03235e-06 -3.13553e-06)
(8.44569e-07 8.37921e-07 -3.05419e-06)
(-6.20082e-07 -6.06642e-07 -2.34352e-06)
(-6.00182e-07 8.01418e-07 -2.39213e-06)
(3.72094e-08 1.14651e-08 -1.70386e-06)
(4.7522e-07 4.70692e-07 -1.76279e-06)
(9.23428e-09 4.19102e-08 -1.70068e-06)
(7.92798e-07 -6.15848e-07 -2.38543e-06)
(-1.95536e-08 -5.57268e-08 -2.2322e-06)
(-9.13009e-07 -4.09359e-07 -2.37946e-06)
(8.85707e-07 -4.67387e-07 -2.36688e-06)
(-2.69369e-09 4.35369e-08 -1.73327e-06)
(-6.65145e-07 3.68327e-07 -1.7852e-06)
(6.13725e-07 4.02483e-07 -1.78302e-06)
(-8.32866e-07 -5.22613e-07 -2.37909e-06)
(-3.72657e-10 -6.01206e-08 -2.23154e-06)
(-1.15376e-06 6.56831e-07 -3.09716e-06)
(-5.53433e-09 4.70713e-08 -2.95151e-06)
(1.48519e-06 -7.61371e-07 -3.93423e-06)
(-1.80569e-06 1.05705e-06 -4.93714e-06)
(-1.02099e-08 -1.76312e-08 -4.59951e-06)
(-2.34347e-06 -1.05428e-06 -5.96183e-06)
(-8.65016e-08 -5.60204e-08 -5.54588e-06)
(1.11918e-06 2.1824e-08 -6.10865e-06)
(-6.11221e-08 -1.0128e-06 -1.02078e-05)
(1.90043e-07 1.24315e-06 -8.26123e-06)
(-2.35509e-06 -1.32001e-06 -7.46011e-06)
(-4.02063e-07 2.69507e-07 -5.79798e-06)
(6.59786e-08 8.38202e-08 -8.31227e-06)
(-3.88019e-08 -2.36234e-08 -5.84991e-06)
(-2.16554e-08 -1.12135e-11 -4.75701e-06)
(-1.86499e-08 -3.16002e-09 -4.47504e-06)
(-1.06121e-08 -1.52581e-08 -2.86765e-06)
(-5.00767e-09 -2.06592e-08 -1.6964e-06)
(-2.25181e-09 -1.64274e-08 -9.22797e-07)
(-1.0161e-09 -1.04801e-08 -4.6162e-07)
(-4.70919e-10 -5.88903e-09 -2.12834e-07)
(-2.19139e-10 -2.95945e-09 -9.16724e-08)
(1.46182e-11 1.89482e-10 -4.84034e-08)
(-4.29049e-11 -6.77399e-10 -3.37944e-08)
(-9.66864e-10 7.98491e-10 -2.47533e-08)
(5.64691e-11 1.27044e-09 -4.76688e-08)
(-4.23804e-11 -3.49707e-11 -2.39394e-08)
(7.13268e-09 -4.90705e-09 -2.82474e-08)
(6.92449e-10 6.71588e-09 -3.32736e-08)
(-2.54687e-10 -3.33192e-09 -5.26755e-08)
(-1.2225e-08 5.238e-09 -4.90581e-08)
(1.12674e-08 3.46433e-09 -4.9073e-08)
(-1.16381e-08 3.10369e-09 -4.89906e-08)
(1.15334e-08 6.02172e-09 -4.94143e-08)
(-5.77741e-09 4.54264e-09 -4.47176e-08)
(1.73407e-08 -1.32758e-09 -2.98511e-08)
(-7.07012e-09 -1.32743e-08 -5.34247e-08)
(1.96027e-08 2.90481e-08 -8.70143e-08)
(2.89223e-09 -5.53738e-10 -8.86362e-08)
(-3.52842e-08 -4.36379e-08 -1.37542e-07)
(-3.51798e-08 3.46339e-08 -1.28102e-07)
(2.33331e-08 -2.15118e-08 -8.34114e-08)
(1.25345e-09 -3.57259e-09 -8.69741e-08)
(1.15622e-09 -4.36851e-09 -9.44261e-08)
(-1.27483e-09 3.49393e-09 -4.51359e-08)
(-1.81547e-11 3.49003e-09 -4.53498e-08)
(1.36197e-09 3.47489e-09 -4.48498e-08)
(3.09336e-09 2.29558e-09 -4.06067e-08)
(4.60416e-09 3.05525e-09 -4.55018e-08)
(-2.48846e-09 -1.39138e-09 -9.87071e-08)
(-1.32103e-09 1.02554e-10 -9.37306e-08)
(3.0963e-09 2.68556e-09 -6.09523e-08)
(-1.17876e-09 -4.3413e-09 -9.45107e-08)
(-4.35056e-09 -1.44796e-08 -2.23631e-07)
(-6.10242e-09 -4.80721e-09 -2.24146e-07)
(-6.81908e-09 -4.87068e-09 -2.28319e-07)
(-1.46004e-08 -1.12592e-08 -4.94474e-07)
(-1.47928e-08 -1.37046e-08 -4.94828e-07)
(3.50535e-09 3.62857e-09 -3.42329e-07)
(2.48982e-09 2.75496e-09 -1.49151e-07)
(1.51695e-09 4.22599e-09 -1.43706e-07)
(-4.47161e-08 3.17656e-08 -1.32703e-07)
(4.78895e-08 2.79319e-08 -1.33378e-07)
(-7.67648e-08 -3.76671e-08 -2.05947e-07)
(7.64875e-08 -3.26544e-08 -2.05607e-07)
(-1.31861e-09 5.51228e-09 -1.35828e-07)
(-4.92943e-08 2.53426e-08 -1.33164e-07)
(-2.09613e-10 -3.96005e-09 -8.92401e-08)
(-6.04218e-11 -3.74158e-09 -9.46957e-08)
(2.94006e-11 -1.39713e-08 -2.23366e-07)
(2.45579e-10 -3.30577e-08 -4.93694e-07)
(-9.21811e-09 -3.32802e-08 -4.93494e-07)
(-1.74465e-08 -6.70344e-08 -9.97461e-07)
(-3.10462e-08 -3.02886e-08 -1.00165e-06)
(-2.85928e-08 -2.27222e-08 -9.87999e-07)
(-5.122e-08 -4.12936e-08 -1.81779e-06)
(-6.02133e-08 -6.16868e-08 -1.86267e-06)
(3.23152e-09 2.58813e-09 -1.39143e-06)
(4.38316e-09 4.12103e-09 -7.20269e-07)
(5.20857e-09 1.04343e-08 -6.98793e-07)
(-2.30048e-07 1.48751e-07 -6.62384e-07)
(2.44733e-07 1.35051e-07 -6.61211e-07)
(-3.51825e-07 -1.89114e-07 -9.45498e-07)
(3.5187e-07 -1.63076e-07 -9.41542e-07)
(-5.40489e-09 2.06591e-08 -6.50465e-07)
(-2.51689e-07 1.18108e-07 -6.62294e-07)
(1.71046e-07 -7.63866e-08 -4.58674e-07)
(-2.77575e-09 1.11531e-08 -3.09517e-07)
(-1.16554e-07 5.65493e-08 -3.08044e-07)
(-3.89482e-10 -8.45004e-09 -2.10402e-07)
(1.13302e-07 6.39814e-08 -3.07968e-07)
(-1.71255e-07 -8.8688e-08 -4.60159e-07)
(5.524e-10 1.18037e-08 -3.09932e-07)
(-1.06321e-07 7.08382e-08 -3.07898e-07)
(7.10067e-08 -4.29512e-08 -2.07191e-07)
(3.79414e-10 5.85798e-09 -1.35978e-07)
(1.01468e-10 1.06401e-09 -1.54566e-07)
(-2.60455e-09 -2.76692e-09 -1.48922e-07)
(-4.15889e-08 -3.29232e-08 -1.48855e-07)
(1.40294e-09 4.69321e-10 -7.35444e-08)
(2.48462e-08 2.26856e-08 -9.73105e-08)
(1.0303e-09 -2.31231e-09 -4.93078e-08)
(-2.07819e-08 -1.37578e-08 -5.89225e-08)
(-8.03974e-09 -2.87009e-09 -2.87874e-08)
(5.46047e-09 -1.52936e-09 -5.05331e-08)
(-1.49696e-09 -8.46624e-10 -6.16553e-08)
(-4.47769e-12 8.91357e-10 -6.35596e-08)
(-8.00627e-11 3.26001e-09 -5.81212e-08)
(7.01582e-10 3.63796e-09 -5.99107e-08)
(-1.11e-09 3.4775e-09 -5.99075e-08)
(1.09178e-10 -3.46163e-09 -5.26084e-08)
(-3.17712e-09 2.65593e-09 -6.2482e-08)
(-2.44247e-09 2.32857e-09 -4.08227e-08)
(-4.69187e-10 1.30137e-09 -4.47322e-08)
(5.87619e-09 -1.16147e-09 -9.77356e-08)
(5.26644e-11 -5.22227e-10 -9.22362e-08)
(-3.06703e-09 2.79129e-09 -1.51436e-07)
(-2.29399e-09 3.90891e-09 -1.43547e-07)
(4.84522e-09 -1.45663e-08 -2.2301e-07)
(1.08782e-08 -3.36858e-08 -4.92484e-07)
(2.13965e-08 -6.83906e-08 -9.97197e-07)
(5.95616e-10 -6.7831e-08 -9.9993e-07)
(9.84926e-10 -1.29608e-07 -1.8579e-06)
(-3.0847e-08 -1.25392e-07 -1.84993e-06)
(-5.47217e-08 -2.2908e-07 -3.15808e-06)
(-1.14969e-07 -1.28046e-07 -3.19231e-06)
(-8.51361e-08 -7.00688e-08 -3.08016e-06)
(-1.63009e-07 -1.43945e-07 -4.79291e-06)
(-2.67939e-07 -3.11353e-07 -5.08379e-06)
(-3.87044e-08 -3.06551e-08 -4.04672e-06)
(-5.0952e-09 -5.40166e-09 -2.47339e-06)
(1.06048e-08 1.56462e-08 -2.4216e-06)
(-8.32841e-07 5.22611e-07 -2.37901e-06)
(8.85654e-07 4.67436e-07 -2.36681e-06)
(-1.15378e-06 -6.56798e-07 -3.09714e-06)
(1.15106e-06 -5.7535e-07 -3.07362e-06)
(-1.95905e-08 5.57288e-08 -2.23221e-06)
(-9.12949e-07 4.09372e-07 -2.37942e-06)
(6.65128e-07 -3.19141e-07 -1.77564e-06)
(-1.02027e-08 3.51481e-08 -1.25698e-06)
(-4.99338e-07 2.28723e-07 -1.30901e-06)
(-1.34469e-09 -2.84942e-08 -9.34518e-07)
(4.85267e-07 2.62274e-07 -1.30503e-06)
(-6.65146e-07 -3.683e-07 -1.78517e-06)
(5.50376e-10 3.76412e-08 -1.25746e-06)
(-4.56501e-07 2.89941e-07 -1.3091e-06)
(3.25321e-07 -2.07605e-07 -9.4632e-07)
(6.86637e-10 2.19559e-08 -6.51118e-07)
(3.15696e-10 3.91507e-09 -7.27564e-07)
(2.02589e-10 2.11783e-09 -3.49044e-07)
(-5.08543e-09 -5.7384e-09 -3.35122e-07)
(-9.32234e-08 -7.75757e-08 -3.43939e-07)
(8.00078e-10 5.72669e-10 -1.74245e-07)
(6.02008e-08 5.30841e-08 -2.26872e-07)
(1.04183e-09 -1.94071e-09 -1.15301e-07)
(4.74516e-09 -1.29675e-09 -1.17929e-07)
(-7.09281e-08 -5.26891e-08 -2.22929e-07)
(9.83127e-08 8.54921e-08 -3.35528e-07)
(-1.5484e-07 -1.18433e-07 -4.92202e-07)
(-1.54841e-07 1.18436e-07 -4.92197e-07)
(-1.5574e-10 3.11798e-09 -3.8113e-07)
(2.12989e-07 -1.81018e-07 -7.11683e-07)
(4.52674e-09 3.98899e-09 -5.5849e-07)
(-3.15815e-07 2.45074e-07 -1.00592e-06)
(-2.58158e-10 2.37789e-09 -7.64671e-07)
(4.22085e-07 -3.53763e-07 -1.39511e-06)
(2.37899e-09 6.73868e-09 -1.07607e-06)
(-5.91723e-07 4.6548e-07 -1.89351e-06)
(1.78685e-10 -3.63624e-09 -1.41271e-06)
(7.69186e-07 -6.34598e-07 -2.51638e-06)
(-1.07173e-08 8.6529e-09 -1.9052e-06)
(-1.00443e-06 8.1139e-07 -3.27968e-06)
(6.81998e-09 -3.14483e-08 -2.40121e-06)
(1.29955e-06 -1.03943e-06 -4.16403e-06)
(-7.22009e-08 8.42354e-10 -3.09622e-06)
(-1.50615e-06 1.29871e-06 -5.23985e-06)
(4.99737e-08 -1.52697e-07 -3.75124e-06)
(2.09714e-06 -1.51186e-06 -6.21256e-06)
(-3.53269e-07 -1.28335e-07 -4.66155e-06)
(-1.77381e-06 1.8194e-06 -7.84237e-06)
(-2.4091e-07 -3.62333e-11 -6.48973e-06)
(-1.77377e-06 -1.81941e-06 -7.84236e-06)
(4.6947e-07 9.20609e-07 -5.35919e-06)
(2.82437e-06 1.91799e-06 -7.59312e-06)
(-9.76907e-08 2.92778e-07 -4.78735e-06)
(-1.71183e-06 -1.61307e-06 -6.71452e-06)
(-6.6644e-08 -1.74495e-08 -3.76104e-06)
(1.55152e-06 1.23058e-06 -5.39498e-06)
(-2.86759e-08 9.2899e-08 -3.06982e-06)
(-1.16641e-06 -1.03673e-06 -4.32711e-06)
(-3.14465e-08 -3.49849e-09 -2.41917e-06)
(9.27961e-07 7.76358e-07 -3.39544e-06)
(-1.30999e-08 2.93752e-08 -1.88089e-06)
(-7.07904e-07 -6.14763e-07 -2.6044e-06)
(-1.28481e-08 -1.0744e-09 -1.42253e-06)
(5.28151e-07 4.49401e-07 -1.95459e-06)
(-3.75655e-09 8.29329e-09 -1.0594e-06)
(-3.91824e-07 -3.36031e-07 -1.44158e-06)
(-4.6125e-09 2.79906e-11 -7.68551e-07)
(2.78303e-07 2.38915e-07 -1.03483e-06)
(-9.14358e-11 1.34879e-09 -5.48825e-07)
(-1.98826e-07 -1.68618e-07 -7.33763e-07)
(-8.55911e-10 4.87765e-10 -3.81606e-07)
(1.34954e-07 1.16986e-07 -5.04184e-07)
(1.01171e-09 -1.08237e-09 -2.61639e-07)
(4.67836e-09 -2.18173e-09 -2.66752e-07)
(-8.97972e-09 -9.35335e-09 -3.5011e-07)
(-5.12114e-09 -4.36948e-09 -1.59167e-07)
(-2.65917e-09 -1.3842e-09 -7.10374e-08)
(4.44711e-09 2.20332e-09 -3.9049e-08)
(1.09124e-10 -1.58426e-12 -3.47293e-08)
(-4.64861e-09 -2.24777e-13 -5.04452e-08)
(-1.07275e-08 -6.90552e-12 -1.05311e-07)
(-2.0683e-08 5.23152e-13 -2.32438e-07)
(-3.81338e-08 8.35733e-12 -4.93733e-07)
(-6.59292e-08 2.27721e-11 -9.78242e-07)
(-9.9761e-08 5.7202e-11 -1.78908e-06)
(-1.12562e-07 2.49257e-10 -3.00839e-06)
(-4.34822e-08 7.04255e-11 -4.62953e-06)
(9.46677e-08 -3.26785e-11 -6.3012e-06)
(-1.72553e-07 -1.13344e-10 -7.60256e-06)
(-1.28337e-06 6.02947e-07 -7.39549e-06)
(-1.28337e-06 -6.03035e-07 -7.39548e-06)
(-1.31773e-06 -8.36324e-07 -6.72669e-06)
(-1.09754e-06 -8.27829e-07 -8.02029e-06)
(-3.56924e-07 -2.06917e-07 -6.04109e-06)
(-1.46467e-07 -4.51265e-07 -5.00003e-06)
(-6.01254e-07 -1.3978e-06 -7.69403e-06)
(9.22557e-07 3.87342e-06 -5.44635e-06)
(1.41019e-06 -2.8154e-07 -6.23265e-06)
(3.31723e-08 6.8115e-08 -5.54357e-06)
(1.36454e-08 -4.24789e-09 -5.66947e-06)
(7.51955e-08 -3.77569e-08 -5.51741e-06)
(-3.53215e-07 1.28334e-07 -4.66152e-06)
(2.09702e-06 1.51194e-06 -6.21246e-06)
(5.0024e-08 1.526e-07 -3.75117e-06)
(-1.50614e-06 -1.29866e-06 -5.23984e-06)
(-1.51593e-07 -1.44368e-11 -4.39442e-06)
(-7.60184e-08 -1.39616e-11 -4.54693e-06)
(-6.51777e-08 -1.48138e-11 -2.90616e-06)
(6.88729e-09 3.14265e-08 -2.40115e-06)
(-1.00441e-06 -8.11382e-07 -3.27969e-06)
(1.2995e-06 1.03943e-06 -4.16391e-06)
(-7.22015e-08 -8.51812e-10 -3.09626e-06)
(-9.95572e-09 -2.97521e-08 -3.80979e-06)
(-1.85718e-08 -2.48424e-08 -2.35207e-06)
(-1.07388e-08 -8.67493e-09 -1.90519e-06)
(7.69077e-07 6.34607e-07 -2.51631e-06)
(2.08874e-10 3.61587e-09 -1.4127e-06)
(-5.91678e-07 -4.65488e-07 -1.89355e-06)
(-2.4088e-08 6.82961e-12 -1.64922e-06)
(-4.69689e-08 -7.78403e-13 -1.71962e-06)
(-2.97901e-08 -3.27856e-12 -9.36807e-07)
(-1.6655e-08 -3.70768e-12 -4.70001e-07)
(-1.45317e-10 -3.13289e-09 -3.81123e-07)
(2.12982e-07 1.81019e-07 -7.11654e-07)
(-3.15813e-07 -2.4507e-07 -1.00594e-06)
(4.22066e-07 3.53783e-07 -1.39507e-06)
(2.38276e-09 -6.73049e-09 -1.07604e-06)
(-1.4665e-08 -1.74531e-08 -1.335e-06)
(-9.21126e-09 -1.06272e-08 -6.97017e-07)
(1.01734e-09 -3.25218e-12 -4.91981e-07)
(5.09578e-10 -1.52404e-12 -2.27167e-07)
(2.30729e-10 9.42468e-15 -9.85886e-08)
(-3.3506e-09 -3.5019e-13 -9.50039e-08)
(-6.07948e-10 -3.21243e-09 -7.60493e-08)
(4.12961e-08 3.77805e-08 -1.48672e-07)
(1.89232e-09 -5.70865e-13 -9.09568e-08)
(4.12995e-08 -3.77821e-08 -1.48673e-07)
(4.74142e-09 1.29728e-09 -1.1793e-07)
(-7.09253e-08 5.26912e-08 -2.22929e-07)
(-2.53701e-10 2.98657e-09 -1.75624e-07)
(9.83252e-08 -8.54964e-08 -3.35544e-07)
(4.68255e-09 2.17952e-09 -2.66756e-07)
(-5.0853e-09 5.73516e-09 -3.35124e-07)
(-8.12709e-09 4.38941e-13 -2.17885e-07)
(-2.51966e-10 -2.99378e-09 -1.75617e-07)
(2.2129e-11 8.54259e-13 -2.06527e-07)
(-2.60396e-09 2.76591e-09 -1.48922e-07)
(-1.49656e-09 8.46391e-10 -6.16559e-08)
(-2.0783e-08 1.37586e-08 -5.89232e-08)
(1.03038e-09 2.31046e-09 -4.93093e-08)
(2.48457e-08 -2.26857e-08 -9.73139e-08)
(5.45979e-09 1.52934e-09 -5.05352e-08)
(1.51418e-08 -1.60003e-08 -6.71239e-08)
(-2.47068e-09 5.00552e-09 -3.28434e-08)
(-1.74418e-08 9.75235e-09 -3.60997e-08)
(2.01075e-09 4.68542e-13 -4.31607e-08)
(5.56758e-09 -6.40922e-09 -2.89384e-08)
(7.85619e-09 2.11363e-09 -2.31854e-08)
(3.71353e-09 -8.16431e-09 -2.7714e-08)
(9.80375e-09 -2.191e-09 -2.93278e-08)
(4.22931e-09 -3.25269e-09 -4.15198e-08)
(1.68004e-09 -2.39976e-10 -3.01987e-08)
(-2.76842e-09 -1.64292e-09 -2.69314e-08)
(1.71037e-09 -9.72599e-10 -3.15418e-08)
(-6.5938e-10 6.47188e-10 -2.73978e-08)
(-6.87675e-10 1.89509e-09 -2.74182e-08)
(2.97751e-09 -2.62647e-09 -2.92688e-08)
(-6.59962e-10 8.78024e-10 -2.52555e-08)
(4.48695e-10 -2.72032e-09 -3.03285e-08)
(-6.92738e-12 1.89976e-09 -2.778e-08)
(-7.68202e-12 1.67571e-13 -2.8482e-08)
(-6.91009e-12 -1.90004e-09 -2.77802e-08)
(-1.78012e-11 -9.7345e-10 -2.53259e-08)
(1.02292e-11 5.29459e-09 -3.97792e-08)
(4.48881e-10 2.72013e-09 -3.0329e-08)
(-5.18925e-11 4.41894e-10 -3.15819e-08)
(1.71051e-09 9.73112e-10 -3.15424e-08)
(-7.23508e-10 -8.61576e-10 -2.58955e-08)
(-2.76905e-09 1.6438e-09 -2.69318e-08)
(1.67965e-09 2.39829e-10 -3.0198e-08)
(-5.03571e-11 4.51764e-10 -3.17138e-08)
(8.31225e-10 -1.81343e-09 -2.74632e-08)
(7.15489e-10 -8.20444e-10 -2.5418e-08)
(-5.25241e-10 2.72359e-09 -3.05182e-08)
(-2.99554e-09 2.56983e-09 -2.95666e-08)
(8.18152e-10 -5.19215e-10 -2.76743e-08)
(-1.72855e-09 7.26556e-10 -3.0847e-08)
(3.1026e-09 4.21328e-09 -2.53229e-08)
(9.51889e-09 -5.31947e-09 -3.31246e-08)
(-6.35908e-09 6.08148e-09 -3.34489e-08)
(1.65543e-09 -1.66153e-10 -4.93568e-08)
(7.5621e-10 1.40325e-13 -2.79361e-08)
(4.37716e-10 6.53058e-13 -3.51231e-08)
(6.23241e-10 2.76088e-13 -5.00081e-08)
(-7.29658e-11 -1.08114e-13 -5.08466e-08)
(-8.45088e-11 3.64491e-13 -3.57759e-08)
(-2.59856e-10 -5.11812e-13 -9.86924e-08)
(-5.56192e-10 -2.97378e-13 -2.27187e-07)
(-1.16221e-09 2.17234e-13 -4.92043e-07)
(-2.50684e-09 -2.82375e-12 -9.82785e-07)
(1.9175e-09 -1.79905e-12 -9.82736e-07)
(3.87508e-09 6.66327e-12 -1.80591e-06)
(9.42761e-09 6.60092e-12 -3.05178e-06)
(2.30983e-08 -9.69204e-12 -4.76494e-06)
(-1.29515e-07 -1.52591e-11 -7.91979e-06)
(-4.13955e-07 -1.80052e-13 -7.33866e-06)
(1.56712e-06 -5.38103e-11 -1.15286e-05)