/*--------------------------------*- C++ -*----------------------------------*\
| =========                 |                                                 |
| \\      /  F ield         | OpenFOAM: The Open Source CFD Toolbox           |
|  \\    /   O peration     | Version:  2306                                  |
|   \\  /    A nd           | Website:  www.openfoam.com                      |
|    \\/     M anipulation  |                                                 |
\*---------------------------------------------------------------------------*/
FoamFile
{
    version     2.0;
    format      ascii;
    arch        "LSB;label=32;scalar=64";
    class       volScalarField;
    location    "1";
    object      gradTy;
}
// * * * * * * * * * * * * * * * * * * * * * * * * * * * * * * * * * * * * * //

dimensions      [0 -1 0 1 0 0 0];

internalField   nonuniform List<scalar> 
2658
(
0.00819059
0.00479993
0.00147024
-8.40929e-05
-0.0145129
0.0177009
-0.0139033
0.0117327
-2.92833e-05
-0.0125969
0.0037463
-0.0323474
0.0204018
0.0207178
0.0169208
0.0173065
0.0188491
0.0170541
0.0173133
0.0204617
0.0197803
0.0174098
0.00583991
-0.0036254
0.00612617
0.0188223
-0.00400141
0.00118434
0.0153501
-7.94529e-07
-0.0153504
0.00400148
-0.0188233
-0.0058398
-0.00612597
0.00362586
-0.000661479
0.00163787
-0.017415
-0.0197815
-0.0204632
-0.017314
-0.0170528
0.0083084
-0.000793717
-0.000186498
-0.00374656
0.00865623
-0.0173097
-0.016921
-0.0207163
-0.0204019
-0.018279
0.00370065
-0.00683643
-0.00617472
0.000461999
-0.00970035
-1.51067e-07
-4.35192e-05
-0.000461812
0.0061744
0.00683691
-0.00370111
0.00362092
-0.00936041
-0.0125144
-0.000639738
-0.0196178
0.0196179
1.68548e-07
0.0152729
-0.000225009
0.0114934
2.98089e-05
-0.00875868
-0.00864363
0.000421786
0.00754516
0.00491833
-0.0058099
-0.000724359
0.00812355
0.0122845
-0.000196495
-9.10863e-05
4.1912e-05
6.37964e-05
4.86563e-05
3.03714e-05
1.6507e-05
-1.54772e-05
7.31825e-06
4.35684e-05
-1.62596e-05
-5.6789e-05
-5.29383e-06
-4.52555e-05
-6.12488e-06
-1.51183e-05
-4.89652e-05
-1.15405e-05
-5.33233e-05
-2.22468e-05
-1.9773e-05
4.62691e-05
-1.61572e-05
-3.64628e-06
7.36157e-06
-4.63166e-05
1.53553e-05
-2.02418e-05
-7.20465e-11
2.02434e-05
-1.53597e-05
4.63168e-05
1.97722e-05
-4.62769e-05
5.33173e-05
2.22417e-05
1.15247e-05
4.89643e-05
1.51165e-05
6.12094e-06
-3.69159e-05
-3.54933e-05
-4.35747e-05
5.67976e-05
5.30128e-06
1.62644e-05
4.84248e-05
1.06164e-05
2.26678e-05
2.25709e-05
4.38888e-05
-2.12796e-05
3.37714e-06
4.63024e-06
-5.33227e-05
5.33399e-05
-3.37801e-06
2.12847e-05
-1.1604e-05
-1.18997e-05
-1.10503e-07
1.18648e-05
2.45909e-08
3.18546e-08
-2.44881e-05
2.41284e-05
6.67645e-08
2.04894e-06
1.39422e-05
-1.60843e-05
6.13073e-05
1.35028e-05
5.80532e-05
6.9507e-05
7.45454e-05
5.71929e-05
5.76426e-05
6.85829e-05
5.78735e-05
5.76152e-05
7.5745e-05
6.99895e-05
6.01491e-05
1.87227e-05
1.13767e-06
2.67564e-05
-0.00015883
0.000272512
-0.00039356
0.000617979
-0.000909105
0.00130784
-0.0019151
0.0025532
-0.00369316
0.00458009
-0.0065574
0.00755168
-0.010828
0.0114382
0.0112769
0.0094754
0.00901102
0.0125974
0.0145125
8.39206e-05
-0.0177014
0.0125144
0.00935963
-0.00362106
0.032347
-0.00410334
0.00019625
9.09257e-05
-4.19551e-05
-6.38716e-05
-4.87153e-05
-3.03648e-05
-1.65067e-05
1.5479e-05
-7.31516e-06
-7.96065e-07
-2.13007e-05
1.1201e-05
-2.67955e-05
2.67933e-05
2.1305e-05
7.92077e-07
-1.12078e-05
-7.06635e-06
3.54947e-05
3.69127e-05
-5.74022e-05
4.19327e-05
9.24824e-06
2.9849e-07
-6.8309e-06
5.78888e-06
-1.6208e-06
2.40613e-07
-1.26177e-10
-2.44904e-07
-9.26301e-06
1.61539e-05
-3.42036e-05
3.65386e-06
-3.66567e-05
3.66693e-05
3.42097e-05
3.14608e-09
-2.3669e-05
-2.65306e-05
2.65398e-05
-1.08633e-05
2.36796e-05
-3.77316e-06
2.04039e-09
-1.62002e-05
-7.5036e-06
2.24408e-05
-5.53332e-06
3.26484e-09
2.51779e-09
-9.68956e-10
-4.27754e-05
2.7801e-05
6.97823e-05
-1.80541e-05
5.47825e-05
-8.33538e-05
0.000136755
-0.000185622
0.00018561
2.74423e-05
0.000281439
1.6585e-05
-0.000453721
0.00066313
9.27359e-06
-0.000999835
0.00144129
-1.16791e-05
-0.00204191
0.00287219
-7.1341e-05
-0.00384059
0.00525498
-0.000251568
-0.00663477
0.00886137
-0.000794607
-0.0105182
0.0137875
-0.00250347
-0.0163923
-0.0078698
-0.0178686
0.0178688
-0.00118378
-0.00519836
0.00942166
0.00839789
-1.33125e-07
-0.00588214
0.0058821
0.00619349
-9.12167e-08
-0.00743354
0.00743349
0.00305206
-8.60281e-08
-0.0196746
0.0196742
-0.012659
1.02799e-07
0.0126585
-0.00989969
0.00627914
0.0144717
0.0102267
0.0126087
-0.0193181
0.0134221
0.00171537
0.00113338
0.00011371
-0.00305221
-0.00111569
-0.00327732
-0.011059
0.00633323
0.0176067
0.007598
0.00828984
-0.00438884
6.67218e-08
0.00438906
0.00327732
-0.0134222
0.0193177
-0.014473
-0.00628003
0.00989931
-0.00171587
-0.00113352
-0.00828906
-0.00759855
-0.0176064
-0.00633357
0.0110589
-0.0106256
-0.00441853
-0.0162721
-0.003942
0.0103959
0.00251757
-0.00230376
0.0112817
-0.00237354
-0.00294008
-0.000205974
-0.000259242
-0.000262734
-0.000191594
-0.000117661
-6.48676e-05
-3.29982e-05
-3.02575e-05
-0.000146659
-0.000124341
-0.000110914
-0.000174915
0.00031162
-0.000443747
0.000711811
-0.00102734
0.0015074
-0.00217348
0.00293985
-0.00422146
0.00526411
-0.00754519
0.00864411
-0.0122848
2.87685e-05
-0.0117323
0.0139042
-0.0152732
0.0128686
-6.24881e-08
-0.0128685
0.00977362
-0.00882347
0.00716172
-0.00518498
0.00684973
9.7992e-05
0.00402301
0.000358207
-0.00526366
-0.000476298
-0.0034988
-0.00399476
0.000372111
0.0031481
0.00344002
-0.00446678
-0.000513852
0.00561394
0.000402318
-0.00650745
0.00903459
-0.000150694
-0.00901094
-0.000478807
0.00018653
-0.00865641
0.0106252
-0.0112821
0.00230348
0.000716412
-0.000201909
-9.58418e-08
-2.70087e-05
-0.000130411
-0.000176574
-0.000140405
-8.95732e-05
-5.03336e-05
-2.52945e-05
1.61951e-06
-5.78974e-06
6.82471e-06
1.08584e-05
-2.98895e-07
-4.19406e-05
5.74007e-05
-2.84779e-05
4.47692e-05
2.96096e-05
2.65273e-05
5.14677e-05
3.8826e-05
-1.13468e-05
-0.000113455
0.000248274
-4.7328e-06
-0.000372974
0.000296016
-0.000183862
-3.0535e-05
-3.73377e-05
2.98627e-05
2.98293e-05
2.96999e-05
1.96204e-05
2.61133e-05
-1.18921e-05
8.76529e-07
2.29535e-05
-3.71051e-05
-0.000123757
-4.10873e-05
-4.16298e-05
-9.62324e-05
-0.000117133
3.10134e-05
2.35466e-05
3.61196e-05
0.0002715
0.000238734
-0.000321941
-0.000279097
4.71135e-05
0.000216603
-3.38466e-05
-3.19793e-05
-0.000119413
-0.000282544
-0.000284446
-0.000572944
-0.000258877
-0.000194207
-0.000352937
-0.000527237
2.21208e-05
3.52225e-05
8.91819e-05
0.00127138
0.00115428
-0.00161636
-0.00139381
0.000176573
0.00100947
-0.000652877
9.53259e-05
0.000483328
-7.22226e-05
0.00054685
-0.000758017
0.000100887
0.000605455
-0.000367104
5.00682e-05
9.09414e-06
-2.36489e-05
-0.000281395
4.01129e-06
0.000193894
-1.97634e-05
-0.000117588
-2.45307e-05
-1.30714e-05
-7.2361e-06
7.61843e-06
2.78633e-05
3.10937e-05
2.97222e-05
-2.95866e-05
2.27003e-05
1.99023e-05
1.11228e-05
-9.92714e-06
-4.46347e-06
2.38572e-05
3.34095e-05
-0.000124498
-0.000287913
-0.000584535
-0.000579752
-0.00110776
-0.00107172
-0.00195795
-0.00109441
-0.000598879
-0.0012303
-0.00266114
-0.000262009
-4.61681e-05
0.000133728
0.00446676
0.00399518
-0.00561366
-0.00491752
0.000476315
0.00349891
-0.0027277
0.000300411
0.0019549
-0.00024354
0.00224166
-0.00314787
0.00032172
0.00247813
-0.0017744
0.000187657
3.34622e-05
1.81011e-05
-4.90462e-05
-0.00066304
4.89461e-06
0.00045371
-1.65873e-05
-1.10833e-05
-0.000450334
0.000730701
-0.00101225
0.00101228
2.66494e-05
-0.00154716
3.40939e-05
0.00209465
2.03238e-05
-0.00302362
5.75956e-05
0.00397846
-3.10789e-05
-0.00542391
7.39564e-05
0.00693496
-0.000268789
-0.00888399
7.19961e-06
0.0111
-0.0013051
-0.0129219
-0.00109688
0.0155504
-3.09686e-07
-0.0155505
0.00786845
0.0163931
0.00250238
-0.0137869
-0.000149141
0.0105178
0.000794009
-0.00886092
-2.99016e-05
0.00663554
0.00025107
-0.00525439
-9.1829e-06
0.00384103
7.08829e-05
-0.00287206
2.39236e-07
0.00204201
1.15282e-05
-0.00144118
4.16893e-06
0.000999882
-9.25105e-06
-1.86472e-05
-7.99431e-05
-3.7346e-05
-1.18308e-05
1.88318e-05
-1.35407e-08
-1.92117e-09
-5.90215e-08
4.47138e-09
7.14301e-08
1.94633e-07
4.88906e-07
2.1304e-06
6.01927e-07
-2.79304e-07
-9.68748e-07
0.00515339
-0.00515415
-0.00714807
-0.00707546
-0.00176852
-0.00385697
-0.011947
0.0331062
-0.00240633
0.00058218
-3.63068e-05
-0.000322708
0.00109688
0.0129226
0.00130427
-0.0110996
-1.23392e-07
-1.1933e-07
-1.26614e-07
0.000268602
-0.00693489
0.00888404
-7.28045e-06
-0.000254292
-0.000212328
-7.41447e-05
0.00542399
3.09049e-05
-0.00397853
5.83727e-08
-6.65302e-09
-2.80219e-08
-3.16896e-08
-2.67769e-05
0.00154717
-0.00209462
0.00302379
-5.75256e-05
-0.000149172
-9.0831e-05
-2.77964e-08
-1.3026e-08
8.05528e-11
-2.99307e-09
-2.74567e-05
0.00032291
-4.87919e-09
-0.000322924
1.10879e-05
0.000450352
2.55262e-05
-0.000730738
1.86284e-05
4.90184e-05
3.75163e-09
-2.55878e-05
7.30136e-09
2.36403e-05
7.23411e-06
0.000117595
1.97475e-05
-0.000193895
1.30713e-05
-0.000136755
4.27822e-05
8.33534e-05
4.00464e-09
-5.47797e-05
1.80652e-05
-6.97805e-05
-1.87265e-05
-2.78007e-05
-2.05108e-06
-1.4042e-05
-8.31281e-06
5.53152e-06
1.61974e-05
-2.24485e-05
7.50448e-06
-2.32506e-05
1.62372e-05
1.43223e-09
-1.62396e-05
-8.32008e-06
4.52529e-05
2.32489e-05
3.77687e-06
8.3172e-06
-7.3639e-06
1.40495e-05
2.04982e-06
3.86123e-06
-1.54994e-05
-7.01234e-06
2.32785e-05
2.19643e-05
-4.43773e-06
6.20988e-06
3.6011e-05
-4.54656e-05
5.19785e-05
-1.42011e-06
1.19936e-09
5.5817e-09
2.35973e-09
-9.24049e-10
3.11531e-09
-4.37446e-09
-2.54169e-09
1.8567e-09
-2.41346e-08
-1.53765e-08
5.69511e-08
5.64181e-08
-8.28379e-08
-1.3042e-07
-1.53891e-09
-4.59917e-07
-0.00942218
0.00519858
-0.00449537
0.00744897
-0.00744923
0.0044951
-0.0147719
0.00153086
-0.00591996
0.0133543
0.00339403
-0.000281733
0.0124398
-0.0106029
-0.00682089
-0.0174496
-0.00580817
-0.0085692
-0.0118406
-0.0069944
0.000767143
0.00620567
0.00192369
-1.67912e-06
2.43278e-07
-0.00192288
0.0147716
0.00591978
-0.00153125
0.00445318
-0.00339427
-0.0124403
0.000281381
0.00140591
-0.00251779
-0.0103961
0.00394112
0.016271
0.00441838
0.00732332
-0.00606358
-0.00620714
8.65035e-07
-0.00214797
-0.00445334
0.000424106
-0.000377002
-0.0071138
0.00606344
0.00129858
-0.00732341
-7.54277e-05
-0.000113927
0.00111541
-0.000716461
0.000201748
0.000478706
-0.00150604
-0.00413015
-0.00206829
9.09892e-05
0.00746538
0.00650852
-0.00903472
-0.00812273
0.000724481
0.0058099
-0.000402419
2.16416e-05
-0.0020667
-0.00111082
9.70538e-05
0.000102571
7.78218e-05
5.24709e-05
5.84055e-05
-0.000842195
-0.000120649
2.85008e-05
0.000682575
-2.37644e-05
-0.00087486
0.00130888
-4.84335e-05
-0.00188706
0.0014543
-0.000991366
-0.000125919
-0.00208214
-7.98895e-05
-0.00374681
0.00285801
-0.000225553
-0.00402273
-9.80873e-05
-0.00684962
0.00518462
-0.000358337
-0.00716151
-2.93625e-05
-0.0114939
0.00875796
-0.000422437
-0.000616518
-0.00405326
-0.0122215
-0.0122192
-0.0188544
-0.00146469
0.03019
-0.00261966
-0.00285695
-0.00147014
-0.000647719
-0.000353407
-0.000190255
-9.56634e-05
-4.14441e-05
-4.29854e-05
3.08128e-05
1.36384e-05
0.000977857
3.43862e-08
-0.000977936
0.00144857
1.10872e-08
-0.00210881
0.00210876
-0.00144856
-1.73575e-08
-1.08635e-08
3.74942e-10
8.39728e-06
2.6332e-05
-4.43695e-07
0.000106397
3.26893e-08
-0.000106417
0.000265408
2.04389e-08
-0.000415583
0.000415539
-0.000265378
7.85468e-06
2.56741e-05
-2.48651e-05
2.48723e-05
-1.19787e-05
-5.42778e-06
-2.56862e-05
0.000113468
1.13664e-05
-3.88424e-05
0.000183921
4.7444e-06
-0.000296071
0.000372986
-0.000248255
4.31395e-07
-8.39677e-06
-7.62036e-06
3.29921e-05
-3.99439e-06
0.000158841
3.02776e-05
-0.000271489
-5.00567e-05
0.000321958
7.2224e-05
-0.000483298
-9.53374e-05
0.000653145
0.00102731
0.000125981
-0.00145439
0.00188688
4.85069e-05
0.000991575
-0.00068266
0.000874867
2.37672e-05
0.000434596
6.57729e-05
-0.000711732
0.000443756
0.000279194
-0.00021663
-4.71047e-05
-0.000311578
3.05227e-05
0.000174912
0.000110939
3.38378e-05
-0.000238722
0.000124349
0.000146681
-4.47729e-05
-2.78556e-05
-2.9597e-05
0.000149568
-2.65294e-05
-2.63319e-05
-5.14552e-05
0.00015253
-5.71938e-05
-5.76503e-05
2.95973e-05
-2.97201e-05
-3.10948e-05
-2.29471e-05
-2.61152e-05
-1.88324e-05
1.18235e-05
3.73774e-05
1.19032e-05
4.16997e-05
7.99041e-05
0.000152631
9.6365e-05
0.000194404
0.000259166
-0.000259462
-0.000152652
-3.40986e-05
-0.000370306
0.000369763
0.000353097
0.000599212
0.00040336
-0.000404221
-0.000462783
0.000463356
0.00123221
0.00714927
0.00707689
0.0017718
-0.0114379
-0.000193269
-0.0112766
-0.000582293
0.000793572
-0.0301903
0.00237334
0.0029398
0.000205575
0.000258974
0.00026245
0.000191482
0.000117595
6.48533e-05
-4.87407e-06
0.000393616
6.46189e-05
-0.00060544
-0.000100928
0.000758029
0.000138536
-0.00100941
-0.000176354
0.00139427
0.00217358
0.000225421
-0.0028583
0.0037467
7.9954e-05
0.0020824
-0.00268779
-2.83237e-05
0.00298026
-1.76383e-08
-0.00418421
0.00418411
-0.00298031
2.82711e-05
0.002688
5.71919e-05
4.27305e-08
5.74089e-08
1.66561e-08
5.67561e-08
-7.87455e-06
-1.11605e-05
-6.13831e-05
1.62318e-05
8.68732e-06
-4.39057e-05
-2.25869e-05
-2.2677e-05
-5.19902e-05
-1.06105e-05
-4.8419e-05
-7.45175e-05
-6.9494e-05
1.39165e-06
-5.80726e-05
-1.35088e-05
-1.98952e-05
-2.98436e-05
-2.98254e-05
-2.96933e-05
-7.57387e-05
-5.76169e-05
2.84746e-05
-5.78742e-05
-6.86157e-05
0.000154592
-2.67622e-05
2.45326e-05
-1.15199e-06
-6.99936e-05
-6.01692e-05
-1.95894e-05
3.71378e-05
-9.23711e-07
-2.34948e-05
-0.000272482
-3.60951e-05
0.000367193
0.000123774
4.16383e-05
-3.08555e-05
-0.000617932
0.000909266
0.00012073
-0.0012713
-0.000187623
0.0017747
0.00161638
0.000243507
-0.00195508
-0.000300447
0.00272835
0.00422128
-0.00293953
-0.000102468
-0.000122671
-0.00247781
-0.00032146
-0.00224137
0.000140338
8.95147e-05
5.03026e-05
2.52894e-05
-9.09826e-06
-1.81057e-05
-3.34647e-05
9.07941e-05
0.00014908
-5.86011e-05
5.84894e-05
9.7413e-05
0.000513643
-0.00616545
-0.000304508
0.000150962
0.000776453
-0.0102614
0.00019288
0.000220343
0.000132198
8.04767e-05
4.63782e-05
2.49605e-05
1.2315e-05
5.56168e-06
0.000587665
-0.000647413
0.000647456
-0.000587607
-5.59362e-06
-1.23099e-05
-2.4973e-05
-1.36764e-05
-0.00130882
-3.08458e-05
-1.51983e-05
9.98837e-06
4.15094e-05
9.57272e-05
-5.7178e-05
-2.58375e-05
-2.84153e-05
-5.24559e-05
-5.83524e-05
0.000842316
0.000284625
0.000118481
-3.48207e-05
-0.0013077
0.00191537
0.000206562
-0.00255306
0.00369364
0.000304657
-0.00457963
0.00655759
0.000304246
-0.00746587
-0.000776922
0.0102619
0.0108284
0.000149095
-0.00755115
3.01154e-05
0.000262449
4.7417e-05
-2.13837e-05
0.000261048
0.000573247
0.00107231
0.000531803
0.00195799
0.00110303
0.00385759
0.00265702
0.0119467
-0.0331059
0.000661082
-0.00163628
0.0118399
0.00580756
0.0174498
0.0068209
0.0106026
-0.00830826
0.00240676
0.00146431
-0.00947505
2.67356e-05
0.000130216
0.000176436
-8.60135e-08
-1.10242e-07
-0.000151084
0.000254162
0.000212167
-9.74478e-05
-0.000132381
-2.92574e-08
-2.93396e-08
-8.05104e-05
-4.64364e-05
-5.38926e-05
-0.0050806
0.00563811
-2.5123e-08
-0.00765115
0.00765099
-0.00563823
5.38952e-05
0.00508099
9.64889e-05
-8.71032e-06
-0.000254723
2.59648e-05
-0.000115397
-0.000154912
-0.000534929
0.000149038
0.00882357
-0.0097734
0.000103926
-8.72984e-08
-5.36593e-08
-6.32337e-08
-1.05736e-07
-0.00619394
0.00106281
3.61138e-05
0.000322353
-0.000423978
-0.00839884
0.00214804
0.000376463
0.00711334
0.00699369
-0.0133538
0.00856854
-0.000767407
-0.00129937
-3.06519e-07
0.00410313
0.00970018
-0.000207767
6.99361e-07
0.000227226
0.000225003
0.000207933
-0.00480024
-0.0081913
-0.00801457
1.5917e-08
4.33111e-05
7.62904e-07
0.000639548
5.68384e-07
1.15079e-07
1.13781e-08
-9.6518e-05
0.000190484
0.00035352
-0.000149125
-0.000104207
0.000155027
8.84355e-06
0.000584827
0.000287999
0.000124599
3.73507e-05
3.20059e-05
0.000119458
0.000282629
-8.90376e-05
-0.00115418
0.000579865
0.001108
-0.000133362
0.00616631
-9.00919e-05
-2.13369e-05
-9.6597e-05
0.00111143
0.00206801
0.00206902
0.00413138
0.0122191
0.00150593
0.0040531
0.012221
0.00261889
0.000616522
-0.000227673
0.000647342
0.00117401
0.00285737
0.000536285
-7.78118e-05
-0.00150709
-3.34019e-05
-2.38517e-05
-2.27148e-05
4.49704e-06
4.30639e-05
0.000115921
0.000254871
-0.000220422
-0.00117238
9.33374e-06
-1.97544e-07
-4.12986e-06
-0.000546797
1.51861e-05
-0.000434493
-6.57774e-05
7.00984e-06
1.54998e-05
-3.86148e-06
-6.20956e-06
-5.30725e-09
4.44021e-06
-2.19643e-05
-2.32791e-05
8.32324e-06
4.54691e-05
-3.6015e-05
-4.65035e-06
-1.39547e-05
1.19496e-05
5.43233e-06
1.16394e-05
-8.65262e-06
0.000122908
-0.00343906
-0.000304802
0.000150686
-0.00140621
-0.00106309
7.55505e-05
7.06187e-06
-1.74249e-09
-2.05851e-05
6.27628e-09
2.67447e-08
7.41119e-08
-0.00020661
-0.000371926
-6.46033e-05
-0.000138525
-0.000154586
-0.000149558
-0.000152515
-0.0126083
-0.0102268
0.00185306
-2.83601e-07
-0.00185323
0.0182795
0.00801366
-1.9924e-05
-1.11198e-05
9.94538e-06
4.71941e-06
0.000183839
-0.000248266
0.000372962
-0.000296037
3.05324e-05
0.000174882
-5.14779e-05
0.000152492
-6.95114e-05
-7.45681e-05
-5.7211e-05
-5.76571e-05
-6.86003e-05
-5.78841e-05
-5.76277e-05
-7.57586e-05
-7.00033e-05
-6.01911e-05
-1.87417e-05
2.45254e-05
-2.78115e-05
-6.97879e-05
1.80445e-05
-2.04609e-06
-5.4782e-05
1.03552e-09
5.47776e-05
-1.80555e-05
6.97842e-05
1.87382e-05
2.78092e-05
-2.45278e-05
2.67656e-05
1.16341e-06
6.02232e-05
7.00103e-05
7.57539e-05
5.76293e-05
5.78904e-05
-2.84586e-05
2.96141e-05
2.65345e-05
5.14645e-05
-2.95779e-05
5.76722e-05
5.72092e-05
7.45554e-05
6.95147e-05
5.81085e-05
-1.37095e-06
1.3534e-05
5.43945e-06
2.56982e-05
0.000106432
-2.74584e-08
2.48614e-05
-2.56806e-05
-5.4405e-06
-1.35201e-05
1.39548e-06
-3.88457e-05
1.13363e-05
0.000113437
4.39016e-07
0.000265373
-0.000265395
-3.10076e-08
-0.000415546
-5.56873e-06
-0.000587595
2.37552e-05
0.000434492
0.000443686
6.57818e-05
-0.000711766
-0.000483347
0.000279114
-4.71354e-05
-0.000216622
-0.000311618
1.65065e-05
3.03763e-05
4.86879e-05
6.37954e-05
4.21134e-05
-9.08063e-05
-0.000196105
0.00410347
-0.00327703
-0.0110589
0.00633361
0.0106256
0.00441861
0.0162712
0.00394156
0.00682123
0.0174504
0.00580808
0.01184
0.00856877
0.00591932
-0.0133546
0.00445305
-0.000424267
-0.00153111
0.0147718
-0.0044945
0.00744923
1.50952e-08
-0.00744977
0.00449473
-0.0147712
-0.00591923
0.0133545
-0.0118395
-0.00856849
-0.00580782
-0.0174499
-0.00682063
-0.00394128
0.0103964
0.0112817
0.0110589
-0.0106252
-0.00441826
-0.00633368
-0.0176068
-0.00759878
-0.0102268
-0.0144731
-0.00627954
0.00989946
-0.0126591
-0.00171568
0.0196746
-0.0196745
0.0126591
-0.0098997
0.00627891
0.014472
0.010227
0.0126089
0.00759861
0.017606
0.0207172
0.0204019
-0.00370107
0.0182795
0.00683696
0.00801353
0.0061744
-4.29278e-05
1.18422e-06
4.33375e-05
-1.39379e-07
0.00970052
-0.00970038
0.000461773
-0.00617461
-0.00801369
-0.00683734
-0.0182796
-0.0204024
-0.0207165
-0.0169208
-0.0173063
-0.0188486
-0.0170538
-0.0173131
-0.0204627
-0.0197798
-0.0174115
-0.00583836
0.00163744
-0.000661187
0.0114382
-0.0108292
0.00755094
-0.00655752
0.00458015
-0.00369351
0.00255308
-0.00191535
0.00130786
-0.000909154
0.000617981
-0.000393604
0.000272486
-0.000158837
-0.000146659
-0.000124335
-0.000110919
-0.000174896
-0.000183885
-4.74466e-06
0.000248272
-0.00011345
-1.13498e-05
3.88551e-05
-0.000152495
1.54859e-05
-1.65013e-05
-3.03616e-05
-4.86472e-05
-6.37807e-05
-4.18895e-05
9.08509e-05
0.000196097
-0.00410341
0.00327697
0.00111556
0.00305204
-0.000716558
0.0074335
-0.0074334
-0.00305198
-0.00111548
0.000716641
0.00230368
-0.011282
-0.010396
0.0106027
-0.01244
-0.00339416
0.000281597
0.00140605
-0.00251755
0.00237362
0.00294004
2.57844e-08
-0.00293985
0.00339412
-0.00445301
0.00839814
0.000423782
0.00942159
-0.00942201
-0.00839851
-1.32302e-07
0.00588224
0.00619353
-0.00619377
0.00106284
-0.00588217
0.000376526
3.23079e-07
0.00620566
0.000767225
-0.00699352
0.0019236
-3.82251e-07
-5.26195e-07
-2.27918e-09
0.00786909
-0.00612623
-0.0188223
0.004001
-0.015351
0.0178681
-0.01555
0.0129218
-0.0129222
-0.00130468
-0.0105176
-0.000793981
0.00886069
-0.00663543
-0.000250793
0.00525435
-0.00384107
-7.06762e-05
0.00287189
-0.00204208
-1.14054e-05
0.00144116
-0.000999896
9.30118e-06
0.000663049
-0.000453718
1.66002e-05
0.000281411
-0.000193913
1.9746e-05
0.000117576
4.27635e-05
8.33307e-05
-8.33428e-05
2.04366e-06
1.40444e-05
-3.66535e-05
-3.41949e-05
6.05122e-09
2.36732e-05
-2.36683e-05
-2.65286e-05
5.25972e-09
2.67943e-05
-2.67933e-05
-2.13005e-05
6.90256e-10
5.33156e-05
-5.33313e-05
3.38312e-06
-1.82615e-08
-1.18654e-05
1.1904e-05
-8.68643e-06
4.39129e-05
2.25927e-05
2.2694e-05
1.06359e-05
4.84444e-05
1.62789e-05
-4.35643e-05
-7.31519e-06
3.60209e-05
-4.54624e-05
5.20096e-05
2.1967e-05
2.32883e-05
5.31987e-06
4.52813e-05
6.14272e-06
-3.69049e-05
-5.78894e-06
7.06837e-06
-3.54906e-05
5.68022e-05
1.62734e-06
-2.34545e-07
-3.2992e-05
-6.48637e-05
-0.000117636
-0.000191519
-0.000262554
-0.000259082
-0.000205669
0.000193482
0.0112757
0.00947602
0.0090105
0.0125979
-0.0122849
0.00864445
-0.00754541
0.00526426
-0.0042215
0.00293982
-0.00217377
0.00150727
-0.00102737
0.00071177
-0.00044376
0.000311605
-3.05254e-05
0.000296057
-0.000372985
0.00041559
-0.000647425
-6.95075e-09
0.000647383
-0.000977925
0.000874834
-0.000682665
0.000991454
-0.00130882
4.84479e-05
-0.00145445
0.000126023
0.00102721
-9.53195e-05
0.000652975
0.000757872
0.000138569
-0.00115425
-0.00127138
0.000842145
-0.000100932
-0.000546835
7.22298e-05
0.000321886
-0.000238742
3.38479e-05
0.000110906
-2.6347e-05
-2.65363e-05
2.95727e-05
-5.68103e-05
-1.62737e-05
-4.84408e-05
-1.06285e-05
-2.26886e-05
-2.25854e-05
-4.39037e-05
8.65158e-06
-1.16452e-05
-3.37845e-06
2.12761e-05
-4.64425e-06
-3.60181e-05
7.79932e-07
7.32001e-06
4.54606e-05
4.35659e-05
3.54862e-05
-7.07552e-06
-1.12173e-05
2.13049e-05
-1.44489e-11
-1.8856e-09
1.7107e-10
1.5464e-08
3.12106e-08
4.15072e-08
7.92101e-08
4.13283e-08
3.40746e-08
-1.70698e-08
2.38298e-07
0.00438871
-7.54624e-05
-0.00732303
0.00129924
-0.0162706
-0.00711316
0.0124397
-0.00028164
-0.00140598
-0.00106302
-3.62518e-05
0.000582283
-0.000793885
-0.000186216
-0.00374669
-0.00362109
0.00935969
0.0125145
-0.0177012
8.39302e-05
0.013904
-0.0117319
0.0145125
2.88187e-05
-0.00405262
-0.0122221
-0.0122183
-0.0119453
-0.00707788
-0.00714833
-0.00123222
-0.00265875
-0.00177142
-0.00385804
-0.00195725
-0.00110259
-0.000599202
-0.000353315
-0.00053111
-4.72291e-05
-0.00026258
9.06287e-05
-0.0102614
-0.00903494
0.0065081
0.00580934
0.000724607
-0.00812258
0.000149688
-2.68887e-05
-0.00237347
0.00251776
-0.00230369
-0.000113875
0.00606362
-0.000376953
-0.00214828
0.00153121
-0.00519861
-0.00118423
-0.00515346
5.46597e-08
2.64154e-07
6.54939e-07
3.40102e-07
-1.15209e-07
-1.43568e-07
-9.90829e-08
-1.41498e-07
-6.15282e-08
-1.67707e-09
2.94209e-09
-1.88379e-05
1.8835e-05
2.61123e-05
-1.19277e-05
-4.16904e-05
-9.6369e-05
-0.000194447
-0.000260909
2.14387e-05
-0.00107166
-0.000572997
-0.000284518
-0.000118238
3.4883e-05
8.92049e-05
-0.00177466
-0.00161654
0.00115418
0.00100934
0.000176454
-0.00139402
0.00195471
0.000300407
-0.0027279
0.00349858
0.000476307
-0.00491744
-0.000402699
-0.00561416
0.00399517
0.000513764
-0.00616548
0.00746504
0.000776518
0.000150994
-0.000130256
-0.000176503
-0.000372207
-0.00314814
0.0022415
0.000321492
-0.00343942
0.00446689
-0.000304922
0.00013385
-0.00206808
-0.00413046
-0.00146383
-0.00240615
0.00830872
-0.0106024
0.0331056
-0.00150623
0.00865644
-0.00261903
-0.00819079
-0.0048003
-0.0014705
-0.00285728
-0.000615971
2.18916e-05
-0.00206676
-0.00111065
-0.00110738
-0.000579438
-0.000282472
-0.000119394
-0.000123718
-4.15391e-05
3.08518e-05
5.84116e-05
-0.000842234
-0.000758029
0.000546852
0.000483283
9.53095e-05
-0.00065299
-0.000138576
-8.95447e-05
-0.000140318
-0.000243675
3.34803e-05
0.000187612
0.00127123
-0.000120745
-9.07942e-05
0.00204196
3.38962e-08
-0.00287229
7.1041e-05
0.00384093
-9.20676e-06
-0.00525487
0.000251458
0.00663506
-3.00244e-05
-0.0088611
0.000794207
0.0105175
-0.000149421
-0.0137872
0.00250319
0.0163921
0.00362572
0.00109663
-0.000322586
0.00032258
-0.0163926
-0.00250258
0.013787
-0.00109686
0.0155501
-0.00786893
-0.0178685
-1.09125e-07
0.0153502
-0.00400104
0.0188234
0.00583873
0.00612618
0.0011841
0.0051989
0.00214804
-0.00192384
-0.00620607
0.00699416
-0.000767347
0.00711335
-0.00606331
-3.55381e-07
6.01915e-08
-7.28223e-09
-2.02682e-08
2.59814e-08
5.15406e-08
0.00130524
-0.0110994
0.00888355
-0.00693499
0.00542415
-0.00542444
-3.10403e-05
0.00397861
5.76797e-05
-0.00302357
2.04498e-05
0.0020946
3.4198e-05
-0.00154718
2.67336e-05
0.00101227
1.8648e-05
-0.000730706
2.55691e-05
0.000450339
1.10783e-05
-0.000322938
2.74489e-05
0.000185603
1.30575e-05
-0.000136773
-5.40463e-09
0.000136759
-4.27618e-05
-0.000117585
-1.97514e-05
0.000193897
3.99998e-06
-0.000281428
-1.65896e-05
0.000453717
4.87244e-06
-0.000663116
-9.27429e-06
0.000999842
4.11758e-06
-0.00144132
1.154e-05
-3.42061e-05
0.00154712
4.60056e-09
-0.00101236
0.000730718
-0.000450362
0.000322932
-1.32861e-08
-0.000185616
-1.30683e-05
-7.23149e-06
-2.36479e-05
-1.10977e-05
-3.73359e-05
-7.99613e-05
-0.000152817
-0.000259579
-0.000370165
-0.000403713
-0.000462531
0.000462616
0.00515332
0.00714857
0.00123195
0.00040286
0.0110993
7.18951e-06
-0.00888391
-0.000268821
0.00693451
7.43151e-05
0.000212284
1.57787e-07
0.000269325
4.4148e-08
-3.02228e-08
3.13349e-05
-0.00397874
0.00302352
-0.00209471
-2.04418e-05
-2.35478e-08
-3.21274e-08
-1.06123e-08
-2.67428e-05
-7.46757e-09
-2.5543e-05
-1.21907e-08
4.99167e-10
-2.74335e-05
-3.24628e-09
2.23287e-09
3.66551e-05
-1.40463e-05
1.53577e-05
-2.02509e-05
2.02456e-05
-1.53579e-05
4.63183e-05
-7.35725e-06
1.97797e-05
-4.62621e-05
-9.26044e-06
-2.93029e-07
-4.19354e-05
5.74266e-05
1.51334e-05
4.89766e-05
1.15518e-05
2.22712e-05
5.3334e-05
2.24524e-05
-7.49829e-06
-1.61998e-05
-5.53217e-06
4.7383e-09
-5.97062e-09
5.52463e-06
-4.63286e-05
-1.97788e-05
7.34855e-06
-1.61667e-05
9.25155e-06
4.19303e-05
2.89693e-07
-6.83379e-06
5.79111e-06
3.69097e-05
-6.1373e-06
-4.52657e-05
-5.31819e-06
-2.32877e-05
1.62376e-05
1.61984e-05
1.03595e-10
8.31721e-06
1.61573e-05
3.65606e-06
3.77631e-06
2.32575e-05
-1.62371e-05
-8.31871e-06
1.00788e-09
-3.77609e-06
-8.31936e-06
3.42019e-05
-3.67262e-06
7.22525e-06
-4.05284e-09
4.91557e-09
9.03582e-09
4.23781e-08
-3.88102e-08
8.20456e-08
-0.000254067
-6.92717e-06
0.000254249
0.000205968
0.000149106
-0.0114384
-0.000192958
0.0102615
-0.00077671
-0.00650881
0.000402156
0.00491741
-0.000476121
-0.0034992
-0.0052641
0.000357916
0.00402263
-0.00508066
9.79329e-05
-0.00518531
0.00716106
-0.00882341
2.97803e-05
-0.00875917
0.000422208
0.00754474
-0.00864374
-0.00581083
0.00812272
-0.000724144
0.0122843
-2.81405e-05
0.0117322
-0.0139031
-8.37359e-05
-0.0145132
-0.0125974
-0.00901132
-0.00015
0.00903403
-0.00947556
-0.0112767
0.00240633
-0.000582322
0.000793716
-0.0301904
0.000186671
-0.000478612
0.00374635
-0.032347
0.00362133
-0.0125145
-0.00936017
0.00479983
4.88071e-07
0.000207744
0.000639597
0.0196176
-3.53624e-09
0.0152726
-0.0152724
0.000224864
-0.0114942
-2.94567e-05
0.00882401
-0.00716096
0.00875798
-0.000422227
0.00518461
-9.80669e-05
0.00508098
-0.00402249
-0.000358174
0.002858
-8.00654e-05
0.00268798
-0.00208211
-0.000225649
-0.0005845
-0.000287848
-0.000124519
-3.73265e-05
-3.19887e-05
-3.71315e-05
9.24479e-07
2.35124e-05
3.61072e-05
-0.000367146
-0.00032198
0.000238728
0.000216599
4.71024e-05
-0.000279153
-7.22611e-05
-5.03204e-05
-2.52912e-05
-3.38316e-05
7.62069e-06
2.78713e-05
4.47855e-05
-0.000154556
2.97213e-05
1.96328e-05
2.29458e-05
3.11034e-05
2.98485e-05
6.86483e-05
-0.000149534
2.97361e-05
3.34321e-05
5.2489e-05
7.79064e-05
0.000102673
9.69748e-05
-0.000155035
-0.00117386
-0.000647053
-0.000353456
-0.000536327
-8.96779e-06
9.65057e-05
0.000148805
-0.00685
0.00765111
2.89791e-08
0.00563816
-0.00563801
5.39577e-05
0.00418409
-1.3424e-08
0.00298043
-0.00298039
2.83183e-05
-0.00188696
-4.85299e-05
0.00130887
-0.000991474
0.00145426
-0.000125986
2.57251e-05
-0.000254901
-0.000190423
-9.57113e-05
-0.000115917
2.85158e-05
3.08322e-05
-0.00087489
-2.37829e-05
0.000587622
-0.000434555
0.000682608
-6.57611e-05
2.38713e-05
-4.30483e-05
-4.14718e-05
-9.9485e-06
-4.48104e-06
2.27313e-05
2.98711e-05
1.99368e-05
1.11811e-05
6.13989e-05
-1.62267e-05
2.44871e-05
-5.78762e-08
-2.41274e-05
1.60784e-05
-6.13265e-05
-1.19516e-05
-1.39386e-05
-5.01283e-08
-1.75642e-08
1.51846e-05
5.56593e-06
1.23134e-05
9.10142e-06
5.00448e-05
0.000271489
-3.0265e-05
1.81018e-05
0.000100954
0.000605417
-6.4625e-05
-4.90154e-05
-1.8645e-05
4.89974e-05
9.08022e-05
0.000149169
0.000262705
0.000259287
3.00386e-05
-0.00755176
0.000304266
0.00616508
-0.000513939
-0.00399528
0.000372321
0.00272779
-0.000300341
-0.00195521
-0.00293945
0.000225802
0.00208221
-0.00268785
8.00284e-05
-0.0028583
0.00374665
-5.39704e-05
-0.00418398
-9.64026e-05
-8.04501e-08
2.68011e-08
-5.20747e-07
0.000227646
-0.000227064
-0.000207429
-0.000639489
0.017701
-0.0196176
-0.00020177
3.6242e-05
-0.000150904
2.71111e-05
0.000130589
-2.01277e-08
9.74688e-05
-0.000212126
-7.41603e-05
-0.000149078
-5.7591e-05
5.85582e-05
4.75934e-08
1.13926e-08
6.02527e-09
-5.82547e-09
-4.46114e-09
4.45945e-10
6.42629e-10
2.32445e-07
3.29951e-05
6.48634e-05
0.000117653
0.000191528
-2.14899e-07
-0.00255317
0.000206663
0.00177445
-0.000187653
0.00161615
0.00024358
0.00139394
-0.000176462
-0.00100952
-0.00150722
0.00217338
-7.79675e-05
-8.92905e-05
-3.52514e-05
0.000194216
0.000352918
0.000598553
0.000370256
0.000259568
0.000152876
8.00029e-05
9.62976e-05
4.16622e-05
3.73491e-05
1.18071e-05
1.18923e-05
-2.61273e-05
-1.96659e-05
-2.29638e-05
0.000158823
3.02683e-05
0.000146649
-2.78761e-05
-2.9616e-05
0.000149539
-1.62646e-06
2.52963e-05
5.03297e-05
8.95676e-05
0.000140392
0.000176619
-9.73818e-05
-5.85678e-05
-0.000321609
-0.00247791
-0.00224151
0.00314774
0.00343918
0.00369319
0.000304834
-0.00458007
9.11419e-06
0.00655724
4.60217e-05
0.00026204
0.0108275
0.00176937
0.000661265
-0.0331065
0.0197811
0.0174144
-0.00163826
0.00707647
0.0119457
0.0204635
0.0173138
-0.0083086
0.0170528
0.0188539
0.0173096
-0.00865636
0.0169211
0.0122207