/*--------------------------------*- C++ -*----------------------------------*\
| =========                 |                                                 |
| \\      /  F ield         | OpenFOAM: The Open Source CFD Toolbox           |
|  \\    /   O peration     | Version:  2306                                  |
|   \\  /    A nd           | Website:  www.openfoam.com                      |
|    \\/     M anipulation  |                                                 |
\*---------------------------------------------------------------------------*/
FoamFile
{
    version     2.0;
    format      ascii;
    arch        "LSB;label=32;scalar=64";
    class       volScalarField;
    location    "1";
    object      gradTx;
}
// * * * * * * * * * * * * * * * * * * * * * * * * * * * * * * * * * * * * * //

dimensions      [0 -1 0 1 0 0 0];

internalField   nonuniform List<scalar> 
2658
(
0.00837177
0.0123477
0.00399762
-8.10828e-05
-0.0147482
-0.0124318
0.0119066
0.0117927
-0.000153674
0.0175859
-0.0125918
-0.00963958
0.00684477
0.0079285
0.00599865
-0.000389777
-0.000261148
-0.000197822
-0.00655512
-0.00861089
-0.00838183
-0.0194532
-0.0228996
0.0168629
-0.00697085
-0.00920759
-0.0197846
-0.00269395
-0.0144793
-0.0158027
-0.0144791
-0.019785
-0.00920812
-0.0229008
-0.00697042
0.0168628
-0.00815393
0.00418636
-0.0194502
-0.00838414
-0.00861067
-0.00655465
-0.000199043
0.000611444
-0.010245
0.00956566
-0.0125916
-0.000522397
-0.000391724
0.00599876
0.00792887
0.00684456
0.0184578
-0.00381258
0.0205276
0.0169875
-0.00878413
0.000353669
-0.0303947
0.0171074
-0.00878365
0.0169879
0.0205275
-0.00381198
0.00358057
-0.0323928
0.0035075
-0.000623214
-0.00933715
-0.00933818
-0.000165688
0.00851697
-0.000832826
-0.00845298
0.000364243
-0.00894039
0.011381
-9.47197e-06
-0.00886384
0.00983804
-0.0131246
-0.000335501
0.0153192
-0.0139641
-0.000290038
-0.000152471
6.40945e-06
4.3298e-05
3.60051e-05
2.17847e-05
1.07317e-05
-8.62225e-06
7.02245e-06
-6.06596e-05
3.7404e-05
-8.8185e-06
-4.62664e-05
8.91571e-08
4.5993e-05
-3.8319e-05
1.99584e-05
5.17844e-05
5.21985e-05
3.43925e-05
3.61237e-05
-8.12455e-05
-1.31675e-05
-9.27594e-06
-6.17507e-06
2.09234e-05
4.46609e-05
1.67777e-05
3.47573e-05
1.67738e-05
4.46606e-05
2.09244e-05
3.61312e-05
-8.12485e-05
5.22075e-05
3.44019e-05
5.17789e-05
1.99467e-05
-3.83234e-05
4.59932e-05
-7.99285e-05
7.89033e-05
-6.06653e-05
-8.82294e-06
-4.62647e-05
3.73978e-05
-2.07995e-05
-5.1376e-05
-3.28835e-05
-2.9868e-05
-2.07325e-05
1.25389e-06
-1.12833e-05
-7.38615e-05
4.96173e-05
4.95939e-05
-1.12818e-05
1.24078e-06
1.85375e-05
-2.22505e-05
-2.5408e-05
-2.22003e-05
9.67018e-06
1.08295e-05
-4.57527e-05
-4.75783e-05
-3.92606e-05
-4.97386e-05
-4.90455e-05
-5.03704e-05
-4.25866e-05
-7.27246e-05
-6.4065e-05
-2.77899e-05
-3.35622e-05
-2.50673e-05
1.08872e-06
-2.4722e-07
-2.23993e-06
2.27353e-05
3.25539e-05
2.70599e-05
6.32734e-05
8.37948e-05
-1.94958e-05
8.53802e-05
-0.00024396
0.000379566
-0.000561948
0.000878828
-0.00125328
0.00188116
-0.00258764
0.00370896
-0.00491996
0.00674916
-0.00860387
0.0114008
-0.0138529
0.0183167
-0.018231
0.0193731
-0.0200296
0.0175854
-0.0147489
-8.11437e-05
-0.012431
0.00350682
-0.0323921
0.00358062
-0.00963974
0.00403267
-0.000290096
-0.000152478
6.31361e-06
4.32328e-05
3.603e-05
2.18017e-05
1.07361e-05
-8.62338e-06
7.02139e-06
1.59509e-06
-2.25148e-05
-3.72679e-06
2.89564e-05
2.89554e-05
-2.2517e-05
1.6001e-06
-3.71478e-06
7.49165e-06
7.89007e-05
-7.99346e-05
5.92246e-06
6.09625e-05
-4.60252e-06
-3.61018e-07
-8.27776e-06
-3.76194e-07
1.21822e-07
7.5805e-06
6.84939e-06
7.58035e-06
-4.61469e-06
-1.31622e-05
-3.84396e-05
-9.26813e-06
8.21823e-06
8.2222e-06
-3.84437e-05
-1.17823e-06
2.42956e-05
-2.99472e-05
-2.99572e-05
4.81757e-07
2.43055e-05
-4.46555e-07
-4.41531e-06
-5.88087e-06
-5.63845e-06
2.54491e-05
-5.63663e-06
-1.20087e-06
-4.12217e-05
-1.38496e-06
-2.1118e-05
3.61399e-05
3.17503e-05
6.7141e-05
4.75826e-05
-0.000149073
0.000129421
-0.000274598
-0.000274583
-5.20364e-06
-0.000355511
8.8871e-06
0.000514536
-0.000796821
8.57752e-06
0.00115346
-0.00169945
-9.00143e-07
0.0023787
-0.0033491
-3.22633e-05
0.0045139
-0.00605142
-0.000112167
0.00793099
-0.0099694
-0.000245185
0.0132616
-0.0146319
-0.000835169
0.0241397
0.00401262
0.0293275
0.0293274
-0.00269347
0.00691892
-0.00235188
0.00960986
0.000556077
-0.0059583
-0.00595826
0.00661169
-0.000296208
-0.00770381
-0.00770369
0.00208541
-0.00255826
-0.0112089
-0.0112089
0.00407431
0.0163122
0.00407445
0.00637439
0.0178567
0.00764486
0.0102769
0.0126572
-0.0194613
-0.0112946
0.0105671
0.00735782
-5.40242e-05
0.00208549
-0.00124078
-0.00332423
0.0133964
-0.0100296
0.0062554
0.0145008
0.00829777
-0.00446988
-0.00597067
-0.00446963
-0.0033244
-0.0112943
-0.0194611
0.00764508
0.0178575
0.00637487
0.0105671
0.00735799
0.00829891
0.0144997
0.00625437
-0.0100298
0.0133959
0.00162393
0.0125019
-0.000295284
-0.0129948
0.0196184
-0.000279854
-0.00343663
-0.0201287
-0.000311183
-0.00234643
0.000166461
0.000127518
5.82008e-05
2.78353e-05
1.31072e-05
5.29835e-06
1.59477e-06
-9.2834e-06
0.000252858
-0.000275639
0.000273914
-0.000252905
0.000362191
-0.000595221
0.000859923
-0.00132019
0.00186277
-0.00270404
0.00370377
-0.00510463
0.00677526
-0.00886318
0.0113803
-0.0139637
-0.000153485
0.0117928
0.0119051
0.00851855
-0.00615207
0.000388852
-0.00615088
0.00523048
0.00726724
0.00721854
-0.00529984
-0.00512976
0.000318029
0.00406171
7.89254e-05
0.00677605
-0.000167125
-0.00780349
0.00757014
-2.3023e-05
-0.005685
0.00524551
-0.00711851
-3.18511e-06
-0.00986118
-4.7302e-05
0.012694
-0.0154332
-8.72638e-05
-0.0200297
-0.00073933
0.00956568
-0.000522411
0.0016243
-0.020129
-0.00343644
0.000563919
-0.00033164
-0.000185089
-0.000159401
-9.07017e-05
-4.28006e-05
-1.92462e-05
-8.6846e-06
-4.02495e-06
-1.87298e-06
1.24942e-07
-3.66709e-07
-8.26379e-06
4.82642e-07
-3.62225e-07
6.0963e-05
5.91837e-06
-2.17681e-06
-0.000104487
9.63023e-05
-9.94707e-05
9.85763e-05
-4.93796e-05
0.000148211
-6.04284e-05
0.000167544
2.47199e-05
-0.000301575
-0.000300682
0.000199428
1.07132e-05
9.88226e-06
-1.0896e-05
-1.55168e-07
1.16408e-05
2.6439e-05
3.93518e-05
-2.12689e-05
-1.12909e-05
2.64641e-05
-1.00749e-05
-3.71843e-05
-5.21574e-05
-5.82827e-05
-0.000124789
-0.000126434
2.99603e-05
2.12805e-05
1.29653e-05
-0.000382189
0.000409312
-0.000656109
0.00065374
-1.12702e-05
-0.000421319
-1.79156e-06
-5.16426e-07
2.51288e-07
2.09896e-06
-7.87873e-05
-0.000149116
-0.000265352
-0.000244383
-0.000437778
-0.000514644
2.76199e-05
3.74629e-05
4.45177e-05
-0.00196622
0.00209174
-0.00300705
0.00300743
-4.61956e-05
-0.00215119
0.00146194
-2.37243e-05
-0.000996184
-3.32891e-06
0.000968397
-0.00146371
4.72137e-06
-0.000908724
0.000606895
3.24285e-06
8.6725e-07
-2.22611e-05
-0.000355461
1.1991e-05
0.000212361
8.80601e-06
-0.000177623
-6.87157e-05
4.66707e-05
-1.27946e-05
-3.82708e-08
-6.84297e-07
5.99642e-06
-9.48718e-06
9.33141e-07
-2.71548e-05
-2.08758e-05
-4.01014e-06
5.02238e-05
4.50123e-07
-2.62139e-05
-1.96067e-05
4.14121e-05
9.29761e-05
0.000182876
5.09073e-06
8.41817e-06
-0.00026365
-0.000467707
-0.000982644
-0.000727659
-0.00139324
-0.00229008
-0.000330807
-4.35487e-05
9.06394e-05
-0.0071183
0.00756969
-0.00986135
0.00983815
-0.00016744
-0.00780298
0.00568485
-8.72024e-05
-0.00426785
-1.14931e-05
0.00414758
-0.00568501
4.70407e-06
-0.00390172
0.00278052
5.8687e-06
2.69825e-06
1.73153e-06
-4.34652e-05
-0.000796781
6.83827e-06
0.000514537
8.90452e-06
4.05569e-05
-0.000606223
0.000840279
-0.00132342
-0.00132342
-1.33111e-06
0.00182042
3.86901e-05
-0.00269928
-2.20648e-06
0.00360756
2.03333e-05
-0.00505746
1.52722e-06
0.00657424
-9.16005e-05
-0.00858486
5.82904e-05
0.0111073
-0.000617102
-0.012873
0.000427126
0.0179243
-0.00301939
-0.0151607
-0.00205906
-0.0151604
0.00401256
0.0241399
-0.000834963
-0.014631
-0.000569607
0.0132609
-0.000245093
-0.0099693
-0.000268774
0.00793129
-0.000111965
-0.00605046
-0.000109813
0.00451411
-3.21073e-05
-0.00334892
-3.94231e-05
0.00237866
-7.81503e-07
-0.00169937
-7.31548e-06
0.00115345
8.64711e-06
3.9986e-05
-7.67497e-05
-4.37704e-05
-2.2728e-05
3.80095e-05
9.32685e-07
-3.97317e-05
-9.16883e-05
-0.000176778
-0.00032593
-0.000563497
-0.000852658
-0.000962069
-0.000371643
0.000809125
-0.00147482
-0.010969
-0.010969
-0.0112627
-0.00938066
-0.00305063
-0.00125186
-0.00513892
0.0078851
0.0120529
0.000283524
0.000116627
0.000642697
-0.00301894
0.0179232
0.000427556
-0.012873
-0.00129566
-0.00064973
-0.000557074
5.88657e-05
-0.00858473
0.0111068
-0.000617107
-8.50917e-05
-0.000158734
-9.17846e-05
0.00657331
1.78525e-06
-0.00505708
-0.000205881
-0.000401444
-0.000254616
-0.00014235
-1.24203e-06
0.00182036
-0.00269925
0.0036074
2.03655e-05
-0.000125342
-7.87287e-05
8.69523e-06
4.35537e-06
1.97205e-06
-2.86376e-05
-5.19613e-06
0.000352958
1.61736e-05
0.000352987
4.05249e-05
-0.000606199
-2.16838e-06
0.000840387
4.00218e-05
-4.34641e-05
-6.94623e-05
-2.15356e-06
1.89136e-07
-2.22561e-05
-1.27911e-05
-0.000177632
8.80669e-06
0.000212356
4.66648e-05
0.000129417
-2.11169e-05
-0.000149075
1.71859e-05
4.75862e-05
6.71469e-05
3.17396e-05
8.37928e-05
3.6148e-05
1.43593e-05
-2.36617e-05
1.46185e-05
-5.63573e-06
-5.87756e-06
2.54488e-05
-5.6407e-06
3.835e-06
-5.92084e-08
-6.56583e-08
-5.90606e-08
-1.52147e-07
8.7429e-08
3.83659e-06
-4.43525e-07
1.46197e-05
-6.18383e-06
-2.36671e-05
1.43559e-05
-4.30402e-07
7.10449e-06
6.11529e-06
-4.48924e-06
-2.56029e-05
6.99275e-06
-1.47739e-05
2.6518e-05
8.13581e-05
-5.43511e-05
1.4149e-05
6.46333e-06
3.74116e-06
5.32684e-06
-6.23639e-07
-7.22298e-07
-2.22099e-06
-4.75378e-06
-9.93346e-06
-2.1426e-05
1.63889e-05
3.31203e-05
8.05779e-05
0.000197421
-0.00110697
-0.00353808
0.0133942
-0.00235187
0.00691904
-0.0150127
-0.00706478
-0.00706412
-0.0150137
-0.00764044
-4.90696e-05
-0.0134114
0.0220231
0.00158393
-0.000849304
-0.0156413
-0.00138837
0.00950887
-0.00712027
-0.015494
-0.0129122
-0.0127702
-0.00898619
0.000983463
0.0020272
0.000980227
0.000357524
-0.0128018
0.000980651
-0.00763968
-0.0134117
-4.84512e-05
0.00428893
0.00158441
-0.0156415
-0.000849038
0.00200791
-0.000279744
0.0196187
-0.0129954
-0.00029484
0.0125027
0.000983052
-0.00052344
0.00202781
0.00163179
-0.00401982
0.00428925
0.00299266
0.000251613
-0.00141485
-0.000522864
-0.000149192
0.000982505
-0.00191588
-5.41001e-05
-0.00124061
0.000563942
-0.000331715
-0.000739573
-0.00037481
-4.17894e-05
2.91044e-06
9.99587e-05
-0.0119105
0.0126939
-0.0154339
0.0153196
-0.000336168
-0.0131242
-4.71756e-05
-0.000309615
0.000612991
0.000337036
-0.000190749
-0.000118238
-6.9336e-05
-3.82683e-05
2.5256e-05
0.00135491
-3.64978e-05
-3.46926e-05
-0.000695007
5.2573e-05
-0.000693101
0.000989478
0.000107372
-0.00146741
-0.00148516
0.00100711
4.79916e-05
0.00210621
0.000198998
-0.00286162
-0.00292185
7.26964e-05
0.00406203
0.000317473
-0.00512903
-0.00530018
7.90914e-05
0.00721877
0.000364028
-0.00845231
-0.00894154
-8.91596e-06
0.000557694
0.00140298
0.00458431
-0.000211876
-0.000253509
-4.59662e-06
-0.00040001
0.00259109
0.00285624
0.0039968
0.00203517
0.00109761
0.000582055
0.000292343
0.000133518
3.47632e-05
-5.133e-05
-0.000105065
-0.000501311
6.36589e-05
-0.000501117
0.000709206
0.000128752
-0.00106821
-0.00106852
0.000709467
7.01613e-05
3.67246e-05
1.58474e-05
-8.37094e-06
-3.31629e-06
-3.13743e-05
-2.67627e-05
0.000146646
-2.66975e-05
0.000131595
2.96397e-05
-0.000212488
-0.000212659
0.000131754
-2.07311e-05
3.94223e-05
-7.5221e-06
-7.58092e-06
5.26822e-05
-6.5128e-06
3.94659e-05
-6.04996e-05
0.000148262
-4.9351e-05
0.000199424
2.47178e-05
-0.000300621
-0.000301744
0.000167746
-3.13648e-05
-8.36994e-06
-4.06697e-08
1.59318e-06
1.19842e-05
-0.000243967
-9.27287e-06
-0.000382218
3.2578e-06
-0.000656165
-3.31455e-06
-0.000996179
-2.37148e-05
0.00146207
-0.00132037
4.7978e-05
-0.00148508
-0.00146778
0.000107248
0.00100712
-0.000694935
-0.000693284
5.24975e-05
0.000446885
2.72008e-05
0.00086007
-0.000595343
0.000653796
-0.000421325
-1.12673e-05
0.000362285
1.07098e-05
-0.000252973
0.000273941
-1.79722e-06
0.000409338
-0.000275655
0.000252861
-0.000104493
-6.78138e-07
9.63083e-05
6.48487e-07
-9.94758e-05
-3.31033e-06
9.86164e-05
5.11303e-05
-2.50601e-05
1.09426e-06
9.33078e-07
-9.47417e-06
5.99627e-06
2.64581e-05
3.93545e-05
3.8024e-05
-2.27357e-05
-4.3793e-05
-2.1263e-05
-5.82967e-05
-7.69328e-05
-0.000138621
-0.000124835
-0.000244287
-0.000234939
-0.000234122
-0.000138308
3.85995e-05
-0.000312887
-0.000314983
-0.000437398
-0.000728066
-0.000194084
-0.0001909
0.000113852
0.000113499
-0.00139468
-0.0112634
-0.00938871
-0.00305401
0.0183167
4.00836e-05
-0.0182305
0.000283623
-0.0102448
-0.000399968
-0.000311119
-0.00234642
0.00016656
0.000127497
5.82768e-05
2.78054e-05
1.31107e-05
5.30225e-06
6.8402e-06
-0.000561969
-2.14181e-05
-0.000908748
4.70005e-06
-0.00146381
-5.94699e-06
-0.00215133
-4.61623e-05
0.00300758
-0.00270433
7.25833e-05
-0.0029217
-0.00286225
0.000198989
0.00210608
0.00208805
-0.000194587
0.00149853
0.000232976
-0.00208407
-0.00208453
0.00149894
-0.000194536
0.00208762
-8.30921e-05
0.00029733
0.000135304
5.28102e-05
3.71062e-05
-2.07223e-05
-4.01821e-06
-4.25503e-05
-5.06449e-05
-3.69424e-05
-2.07333e-05
-2.98785e-05
-3.28982e-05
-5.43339e-05
-5.13768e-05
-2.07936e-05
-3.35453e-05
-2.7789e-05
1.41709e-05
-6.40789e-05
-7.27539e-05
-2.08752e-05
-1.09035e-05
-1.55125e-07
1.16316e-05
3.25592e-05
2.27351e-05
-2.1841e-06
-2.23359e-06
-2.52946e-07
-4.29877e-05
8.53841e-05
-6.87178e-05
-1.95094e-05
2.70712e-05
6.32505e-05
2.64153e-05
-1.00555e-05
-1.13138e-05
2.12552e-05
0.00037958
1.29759e-05
0.000606913
-3.72112e-05
-5.2032e-05
2.98558e-05
0.000878819
-0.00125346
-3.64366e-05
-0.00196647
5.91502e-06
0.00278051
-0.00300716
-1.14925e-05
-0.00426809
-8.72849e-05
0.00568494
-0.00510488
0.00370417
-0.000118
6.96228e-05
-0.00390195
4.60206e-06
0.00414783
-1.92538e-05
-8.70278e-06
-4.02882e-06
-1.86682e-06
8.75257e-07
1.77516e-06
2.67355e-06
-7.86784e-05
-0.000125198
3.16766e-06
3.21349e-06
5.55554e-06
-3.14603e-06
0.00907439
-2.5329e-05
2.81243e-05
-1.10262e-05
0.0141451
4.0007e-05
-0.000335249
-0.000197977
-0.000115769
-6.48301e-05
-3.41477e-05
-1.65674e-05
-5.35268e-05
0.000430892
0.000311163
0.00031099
0.000431131
-5.35188e-05
-1.65672e-05
-3.41817e-05
-0.00010503
0.000989826
-5.12687e-05
-2.86649e-05
5.02565e-05
0.000133598
0.000292385
-8.3012e-05
-3.90711e-05
-3.46026e-05
-3.82437e-05
2.53362e-05
0.00135495
-7.89258e-05
-0.000126114
3.72594e-05
0.00188124
-0.00258777
-5.67566e-05
0.00370909
-0.00492018
-7.03946e-05
0.00674944
-0.00860438
-2.46329e-05
-0.0119107
-1.0883e-05
0.0141441
-0.0138539
-0.000569311
0.0114006
-0.000269208
-0.000330446
-4.39288e-05
2.73538e-05
-0.000264719
-0.000149373
-0.000264518
-0.000512457
-0.000468452
-0.000977652
-0.00125165
-0.00229445
-0.00514141
0.00788455
-0.00815367
0.00418468
-0.0127705
-0.0154938
-0.00712027
0.00950899
-0.00138882
0.000611063
0.0120525
-3.89585e-06
0.0193732
-0.000159439
-9.06967e-05
-4.29029e-05
-4.63789e-05
-9.64378e-05
2.79318e-05
-8.49267e-05
-0.000158684
5.4412e-06
-0.000197951
0.000129622
0.000111118
-0.000115772
-6.47976e-05
-0.000333877
0.00405576
0.00291887
0.000360396
-0.00373005
-0.00373064
0.0029195
-0.000333918
0.00405525
-0.000117254
-1.56901e-05
0.000231006
-3.94034e-05
0.000101677
0.000114112
0.000501891
-0.000125287
0.00726589
0.00523147
-0.000536922
5.6033e-05
-6.89051e-05
0.00240198
-7.6217e-05
0.00661181
-0.000141274
0.000116661
0.000642894
0.00299168
0.0096103
-0.00402034
0.000251215
-0.0014147
-0.00898565
0.0220227
-0.0129118
0.000983732
-0.000149469
-0.000844994
0.00403271
0.000353267
0.00139763
0.00413012
-7.34211e-05
-0.000832975
0.00139702
0.012347
0.00837445
0.0210345
0.011895
0.017108
0.018847
-0.000623296
0.00210189
0.00113147
0.000595754
-0.000117114
0.000581842
0.00109768
-0.000124899
-0.000537019
0.000114779
-1.56598e-05
0.000182822
9.29853e-05
4.14637e-05
9.8959e-06
-5.28245e-07
2.04359e-07
1.97881e-06
4.46259e-05
0.0020919
4.83221e-06
8.11162e-06
9.10736e-05
0.00907371
0.000100208
-0.000308809
-0.000190393
0.000336822
0.00061292
2.32685e-06
-4.25195e-05
-0.000211308
-0.000375339
0.00140298
0.00458383
0.00259073
0.000557558
-7.25982e-05
0.00203409
0.00114301
0.00285687
0.000502348
-6.93103e-05
0.00186304
-1.96004e-05
-2.61697e-05
-2.71097e-05
4.899e-07
3.48047e-05
0.000101942
0.000232747
-0.000335127
0.00113869
-0.000110148
-3.94948e-05
-7.32084e-06
0.000968422
-2.86786e-05
0.000446892
2.71936e-05
6.11769e-06
7.10369e-06
-4.30182e-07
-1.47753e-05
8.52831e-06
6.99467e-06
-2.56021e-05
-4.48854e-06
-1.49953e-07
8.13549e-05
2.65426e-05
-7.3868e-05
-4.84462e-05
5.25682e-05
-6.54271e-06
1.85184e-05
-3.68919e-05
6.93521e-05
0.0052454
-7.01018e-05
-8.71487e-05
0.00200799
-0.000140973
-0.00191637
7.49075e-06
4.7824e-05
-2.00375e-06
-9.04429e-05
-3.33333e-05
-0.000520013
-5.68097e-05
-2.29211e-05
-2.13957e-05
-5.99297e-06
-4.29913e-05
6.46885e-07
5.11545e-05
0.0126579
0.0102772
0.00010211
-0.00133508
0.000101463
0.0184581
0.0210354
-2.08393e-05
-4.00801e-06
5.02561e-05
2.47209e-05
0.000199415
0.000167565
-0.000301598
-0.000300648
1.07123e-05
-0.000252907
9.8574e-05
5.11429e-05
-2.78101e-05
-3.35713e-05
-2.50703e-05
1.09178e-06
-2.47856e-07
-2.23757e-06
2.27535e-05
3.25583e-05
2.70671e-05
6.33106e-05
8.37967e-05
-6.87068e-05
3.61525e-05
3.17647e-05
6.71538e-05
1.43778e-05
4.75904e-05
4.78307e-05
4.75933e-05
6.71519e-05
3.17625e-05
8.38018e-05
3.61495e-05
-6.87077e-05
8.53792e-05
-1.94989e-05
6.32988e-05
2.70724e-05
3.25703e-05
2.27429e-05
-2.24536e-06
-2.17905e-06
9.63097e-05
-9.94609e-05
9.85917e-05
9.27423e-07
1.10776e-06
-2.50793e-05
-3.35717e-05
-2.77955e-05
-6.41126e-05
1.41475e-05
-7.27469e-05
-6.51504e-06
3.94612e-05
-2.67073e-05
0.000146637
-7.53556e-06
3.94168e-05
-6.54857e-06
-7.27127e-05
1.41362e-05
-4.9385e-05
0.000148211
-6.04293e-05
-3.137e-05
0.000131731
0.000131596
2.96229e-05
-0.00021263
-5.35246e-05
0.00043094
5.25207e-05
0.000446887
-0.000595258
2.72275e-05
0.000859917
-0.000996118
0.000653743
-1.12641e-05
-0.000421292
0.000362189
1.07347e-05
2.17986e-05
3.60582e-05
4.33741e-05
6.49075e-06
-0.000152198
-0.000289706
0.00403284
-0.00332433
0.0133962
-0.0100293
0.00162413
0.0125023
-0.000295174
-0.0129952
0.00950887
-0.00712014
-0.0154934
-0.01277
-0.0129117
-0.0134116
0.0220228
0.00428891
0.00299244
-4.91565e-05
-0.00764069
-0.0150133
-0.00706474
-0.012802
-0.00706433
-0.0150141
-0.00764051
-0.0134121
0.0220226
-0.0127699
-0.012912
-0.0154938
-0.00712017
0.00950877
-0.0129954
0.0196184
-0.0201287
0.013396
0.00162449
0.0125026
-0.0100294
0.00625382
0.0144991
0.0102765
0.00764423
0.0178561
0.0063747
0.00407379
0.0105664
-0.0112094
-0.0112092
0.00407382
0.0063742
0.0178559
0.00764414
0.0102761
0.0126561
0.0145003
0.00625479
0.00792852
0.00684404
-0.00381304
0.0184573
0.020527
0.0210332
0.0169876
0.0171073
0.0188465
0.0171077
-0.0303951
0.00035298
0.000353405
-0.00878514
0.0169874
0.0210333
0.0205271
0.0184581
0.0068437
0.00792849
0.00599916
-0.000389578
-0.000260884
-0.000197898
-0.00655511
-0.00861091
-0.00838236
-0.0194514
-0.0228992
0.00418518
-0.00815375
0.0183164
-0.0138533
0.0114006
-0.00860433
0.00674906
-0.00492011
0.00370887
-0.00258784
0.00188125
-0.00125333
0.000878832
-0.000561981
0.000379581
-0.000243969
0.000252853
-0.000275628
0.000273925
-0.000252943
0.000199405
2.46992e-05
0.00016772
-6.04975e-05
0.000148252
-4.9359e-05
5.11249e-05
-8.62538e-06
1.0738e-05
2.18277e-05
3.60292e-05
4.32375e-05
6.30606e-06
-0.000152443
-0.000289976
0.00403263
-0.00332427
-0.00124086
0.0020853
0.000563785
-0.00770362
-0.00770369
0.00208531
-0.00124075
0.000563886
-0.00343648
-0.0201289
0.0196185
-0.00138858
-0.0156414
0.00158387
-0.000849308
0.00200804
-0.000279561
-0.000311143
-0.00234652
-0.00110708
-0.00234649
0.00158356
0.00428879
0.00960976
0.00299253
-0.00235208
-0.00235195
0.00960991
0.000555694
-0.00595838
0.00661163
0.00661157
-0.000141189
-0.00595837
0.000251204
0.00163178
0.00202702
0.000983812
-0.00898597
0.000979543
0.000356917
0.0133944
-0.00353837
0.00401233
-0.00697087
-0.00920815
-0.019786
-0.0144794
0.0293278
-0.0151606
0.0179232
0.0179239
0.000427291
0.0132612
-0.000244994
-0.00996938
0.00793116
-0.000111876
-0.00605062
0.00451399
-3.2106e-05
-0.00334888
0.00237873
-7.97209e-07
-0.0016995
0.00115349
8.62435e-06
-0.000796798
0.000514547
8.88332e-06
-0.00035548
0.000212366
8.81005e-06
-0.000177602
-2.1105e-05
-0.000149053
-0.000149054
1.43758e-05
-2.36467e-05
8.22093e-06
-3.84338e-05
-1.18227e-06
2.43021e-05
2.42954e-05
-2.9944e-05
-7.18326e-07
2.89607e-05
2.89582e-05
-2.25184e-05
3.74003e-06
4.96119e-05
4.95904e-05
-1.12846e-05
9.66694e-06
-2.21959e-05
-2.2254e-05
-3.69351e-05
-2.07336e-05
-2.98921e-05
-3.29166e-05
-5.13851e-05
-2.08022e-05
3.73978e-05
-6.06724e-05
7.01928e-06
2.65384e-05
8.13478e-05
-5.43632e-05
-2.56102e-05
-4.49161e-06
-4.62658e-05
9.43008e-08
4.59926e-05
-7.99207e-05
-3.65819e-07
7.49449e-06
7.88987e-05
-8.82993e-06
1.25084e-07
7.58584e-06
1.59768e-06
5.29438e-06
1.30948e-05
2.78328e-05
5.82574e-05
0.000127629
0.000166556
4.01054e-05
-0.018231
0.0193731
-0.0200296
0.0175853
-0.0139632
0.0113803
-0.00886275
0.00677493
-0.0051044
0.00370362
-0.00270409
0.00186279
-0.00132026
0.000860003
-0.0005953
0.000362265
1.06983e-05
-0.000300607
-0.00030171
-0.00021253
0.000311002
6.36768e-05
0.000311113
-0.000501225
-0.000693166
-0.000694954
0.00100709
0.000989586
0.00010722
-0.00148509
4.80624e-05
-0.00132031
-2.36779e-05
0.00146197
-0.00146369
-5.93617e-06
0.00209175
-0.00196618
0.0013549
4.74708e-06
0.000968355
-3.30102e-06
-0.000656102
0.000409306
-1.79573e-06
0.00027392
-3.31356e-06
-9.94649e-05
9.41815e-07
-8.82126e-06
3.73996e-05
-2.08116e-05
-5.13873e-05
-3.29143e-05
-2.98772e-05
-2.07344e-05
-3.6882e-05
1.85075e-05
-1.12874e-05
1.25776e-06
-7.38523e-05
2.65183e-05
1.58736e-06
7.01763e-06
8.13461e-05
-6.06587e-05
7.88955e-05
7.49664e-06
-3.72064e-06
-2.25183e-05
5.33332e-06
1.58527e-05
3.67386e-05
7.01561e-05
0.000111128
0.000129627
5.62306e-05
-6.88034e-05
0.00240194
-0.00255854
-0.00597078
-0.00446976
-0.00191634
0.000982828
-0.00014965
-0.000294725
-0.00141471
-0.0156413
-0.000849239
0.00200788
-0.00014097
0.000116555
0.000283544
-0.0102452
0.0095658
-0.0125916
0.0035804
-0.0323929
0.00350659
-0.0124313
-8.06901e-05
0.0119055
0.0117927
-0.014749
-0.000153431
0.00140283
0.00458433
-0.000211664
-0.00514039
-0.0093823
-0.0112625
-0.00139281
-0.0022983
-0.00305344
-0.00125146
-0.000468337
-0.000975621
-0.000728861
-0.000438434
-0.000512171
-4.37134e-05
-0.000330812
0.000100252
0.0141443
-0.0154333
0.0126935
-0.0131242
-0.00033602
0.0153194
-8.74453e-05
-0.000159362
-0.000311267
-0.000279813
-0.00343652
-5.42055e-05
-0.000523028
0.000251539
-0.00401979
-4.90989e-05
0.006919
-0.00269349
-0.0109692
-0.00147425
0.000809884
-0.000371724
-0.000962867
-0.000852657
-0.000563799
-0.000325966
-0.000176841
-9.16785e-05
-3.97303e-05
9.48389e-07
3.80159e-05
3.80186e-05
3.9352e-05
-2.12594e-05
-5.83467e-05
-0.000124991
-0.000244783
-0.000264391
2.74722e-05
-0.000264186
-0.000149446
-7.89419e-05
-0.000125866
3.73693e-05
4.46307e-05
0.00278043
-0.00300714
0.00209171
-0.00215116
-4.61777e-05
0.00300753
-0.00426775
-8.71661e-05
0.00568481
-0.00780324
-0.000167049
0.00983731
-4.67886e-05
-0.00986099
0.00756988
-3.38552e-06
0.0090741
-0.0119109
-1.10632e-05
2.81103e-05
-9.05853e-05
-4.28591e-05
-2.30095e-05
-0.00568489
0.00414751
4.75971e-06
0.0052452
-0.00711824
-7.02692e-05
9.12902e-05
2.51018e-06
-4.25445e-05
-4.28101e-06
0.0120525
0.000611278
-0.00138869
0.00788408
-0.000374873
-0.000521957
0.00259018
0.00837243
0.0123464
0.00399618
0.00286247
0.00055806
-0.000309609
0.000613141
0.000337093
8.15132e-06
4.98111e-06
1.9837e-06
2.33599e-07
-3.7229e-05
-5.1756e-05
2.99199e-05
2.53407e-05
0.00135491
-0.00146375
0.00096839
-0.000996171
-2.37354e-05
0.00146202
-6.00583e-06
-8.69121e-06
-1.92417e-05
-1.14899e-05
2.69251e-06
5.92363e-06
-0.00196636
-3.65068e-05
-7.86828e-05
0.00237866
-3.94102e-05
-0.00334927
-3.22999e-05
0.00451404
-0.000109493
-0.00605091
-0.000112144
0.0079308
-0.000268474
-0.00996921
-0.000245892
0.0132611
-0.000569615
-0.014631
-0.000835103
0.0241395
0.0168621
-0.00301974
0.000642821
0.000642746
0.0241399
-0.000835002
-0.0146309
-0.00301962
-0.01516
0.00401264
0.0293275
-0.00205857
-0.0144791
-0.0197849
-0.00920776
-0.0229002
-0.00697079
-0.00269331
0.00691902
-0.00401995
0.00097989
0.00202759
-0.00898587
0.000984036
-0.00141479
-0.00052342
-0.000845022
-0.000296246
-7.62868e-05
-0.000185066
0.000197388
-0.000649925
0.000427272
-0.0128725
0.0111078
-0.008585
0.00657367
0.0065734
1.83005e-06
-0.00505738
2.04796e-05
0.00360734
-2.08284e-06
-0.00269927
3.87472e-05
0.00182039
-1.28931e-06
-0.00132354
4.00253e-05
0.000840361
-2.16797e-06
-0.0006062
4.05542e-05
0.00035297
-5.19431e-06
-0.000274585
4.66822e-05
0.000129432
1.71896e-05
0.000129423
-2.11092e-05
-0.000177616
8.80731e-06
0.000212369
1.19946e-05
-0.000355485
8.889e-06
0.000514539
6.86678e-06
-0.000796822
8.59735e-06
0.00115344
-7.29594e-06
-0.00169953
-8.94034e-07
3.86932e-05
0.00182037
-3.32461e-05
-0.00132345
0.000840327
-0.000606186
0.000352971
1.61583e-05
-0.000274584
4.66653e-05
-1.27879e-05
-2.22513e-05
4.05538e-05
-4.38454e-05
-7.69615e-05
-0.000138735
-0.00023507
-0.000314414
-0.000192009
0.000114003
0.000114319
-0.0109689
-0.0112623
-0.00139269
-0.000192854
-0.0128718
-0.000617606
0.0111076
5.86294e-05
-0.00858483
-9.17037e-05
-0.000158676
-0.000557195
5.83867e-05
-0.00051972
-0.000401399
1.71527e-06
-0.00505732
0.0036075
-0.00269939
-2.17218e-06
-0.000254471
-9.00903e-05
-0.000142296
-1.32813e-06
-6.94478e-05
-2.17695e-06
2.5155e-07
-2.86316e-05
-5.19244e-06
-1.37537e-06
-4.1201e-05
8.2283e-06
-2.36408e-05
4.468e-05
1.68016e-05
1.67982e-05
4.46801e-05
2.09406e-05
-6.17225e-06
3.61323e-05
-8.12402e-05
-4.61114e-06
-3.54376e-07
6.0962e-05
5.91749e-06
-3.83174e-05
1.99626e-05
5.17938e-05
3.44137e-05
5.22069e-05
2.54539e-05
-5.63921e-06
-5.88202e-06
-5.6267e-06
-1.19182e-06
3.47678e-05
-5.62692e-06
2.09455e-05
3.61442e-05
-6.16985e-06
-1.31617e-05
-4.59999e-06
6.09679e-05
-3.55544e-07
-8.27157e-06
-3.74461e-07
-7.99254e-05
4.59962e-05
8.42237e-08
-4.62664e-05
-4.48962e-06
-5.77691e-08
-5.87521e-06
-4.41585e-06
1.46189e-05
-1.31652e-05
-9.26791e-06
-4.42502e-07
3.83453e-06
-5.56935e-08
-1.4794e-07
-6.37972e-08
-4.43956e-07
1.46221e-05
-3.84385e-05
-9.25392e-06
-1.27906e-05
1.97521e-06
4.35803e-06
8.70029e-06
1.63753e-05
3.31699e-05
8.05191e-05
-8.50991e-05
-0.000616794
-8.5097e-05
0.000166407
-0.000569303
0.0183168
3.98788e-05
0.0141448
-1.08265e-05
0.0126939
-4.70554e-05
0.00983817
-0.000167191
-0.00780301
0.00677541
7.92509e-05
0.00406161
0.00405544
0.000317588
-0.00530019
0.00721768
0.0072664
0.000363742
-0.00894117
-8.59598e-06
-0.00886389
0.0113803
-0.0131242
0.0153192
-0.000335562
-0.0139641
-0.000152994
0.0117918
0.011906
-8.11311e-05
-0.0147486
0.017586
-0.0200296
-8.72125e-05
-0.0154333
0.0193732
-0.0182308
0.0120529
0.000283635
-0.0102451
-0.000399947
0.00956601
-0.000739494
-0.012592
-0.00963917
0.00358034
0.00350733
-0.0323937
0.0123471
0.0118943
0.0013968
-0.000623396
-0.00933884
-0.000165209
0.0085168
0.008518
-0.000831962
-0.00845152
0.000363838
0.00726559
0.00721862
-0.00894114
-9.20628e-06
-0.00530023
0.000317825
0.00405522
0.00406196
7.90949e-05
-0.00292184
0.000198976
0.00208755
0.00210621
7.26621e-05
0.000182976
9.3094e-05
4.14706e-05
9.89481e-06
-5.38689e-07
-1.00601e-05
-1.14481e-05
2.12769e-05
1.29759e-05
0.000606898
-0.00065612
0.000409348
-0.000421332
-1.12448e-05
0.000653782
-3.32984e-06
-4.03388e-06
-1.86551e-06
-1.80776e-06
-3.96092e-08
-6.80797e-07
-0.000104486
-4.298e-05
1.16384e-05
2.64515e-05
2.6438e-05
6.00797e-06
-1.53003e-07
-2.54469e-07
6.50998e-07
-9.4825e-06
-1.95971e-05
-3.82463e-05
-6.93473e-05
-0.00011823
-0.000190764
0.000115256
0.00114065
0.00203343
0.00109735
0.000505085
-1.53934e-05
-0.000117194
-0.000125096
-0.00512885
-0.00373082
0.000360171
0.00291865
0.00291928
-0.000333926
-0.00208466
0.000233189
0.00149848
0.0014988
-0.000194569
-0.00146748
0.00010733
0.000989614
0.0010072
-0.00148516
4.80688e-05
-3.88995e-05
0.000234061
0.00058162
0.000292281
0.000102061
-3.47022e-05
-5.13118e-05
-0.000693193
5.25136e-05
0.000431027
0.00044692
-0.000694905
2.71995e-05
-2.61907e-05
3.47326e-05
0.000133562
5.02593e-05
3.76055e-07
-2.71343e-05
-1.09162e-05
-2.09243e-05
-4.01346e-06
-4.25519e-05
-5.06351e-05
-4.57528e-05
-3.92469e-05
-4.75762e-05
-5.03594e-05
-4.25877e-05
5.25663e-05
-4.90371e-05
3.71052e-05
5.2809e-05
-2.86496e-05
-5.35296e-05
-1.65543e-05
8.73976e-07
3.25177e-06
-0.000382222
-9.27888e-06
1.76762e-06
4.74538e-06
-0.000908737
-2.13913e-05
-4.34698e-05
4.00453e-05
-4.34527e-05
-7.86861e-05
-0.000125249
5.82072e-05
0.000127575
-0.00026886
0.0114008
-2.5277e-05
0.00907444
-3.19927e-06
0.00756982
-2.31396e-05
0.00568517
-8.73311e-05
-0.00426777
0.00370387
7.27608e-05
0.00210603
0.00208774
0.000198858
-0.00292154
-0.00286229
-0.000334035
-0.00208414
-0.00011732
0.00113078
0.00210043
0.00412912
-7.37266e-05
-7.3675e-05
0.00139659
-0.000623278
-0.0124327
-0.00933731
-0.000331631
0.000116586
2.80075e-05
-0.0001594
-9.07037e-05
-9.64338e-05
5.48397e-06
-0.000158594
-9.17994e-05
-0.000125251
2.05505e-05
3.21194e-06
-4.63445e-05
-2.14256e-05
-9.90046e-06
-4.74968e-06
-2.21925e-06
-6.21394e-07
6.84955e-06
7.58988e-06
1.59802e-06
5.31303e-06
1.30925e-05
2.77908e-05
-3.91723e-05
0.00370863
-5.67465e-05
0.00278057
5.96735e-06
-0.00300712
-1.14963e-05
0.00300749
-4.61866e-05
-0.00215114
0.00186282
-0.00270425
-6.94593e-05
4.44908e-05
3.74864e-05
-0.000244803
-0.000438439
-0.000727922
-0.000312897
-0.000234295
-0.000138289
-7.67051e-05
-0.00012509
-5.83941e-05
-4.3695e-05
-2.2721e-05
-2.1232e-05
3.93593e-05
2.649e-05
2.64695e-05
-0.000243951
-9.26867e-06
0.000252851
-6.73075e-07
9.63089e-05
6.47306e-07
1.25289e-07
-1.86676e-06
-4.03116e-06
-8.69386e-06
-1.92884e-05
-4.28061e-05
5.55357e-06
3.18009e-06
4.64891e-06
-0.00390154
0.00414747
-0.00568503
0.00524561
-0.00492016
-7.03971e-05
0.0067489
-0.000109593
-0.00860435
-4.30839e-05
-0.000330167
-0.0138535
-0.00305246
-0.00815409
0.00788474
-0.00838415
-0.0194499
0.00418544
-0.00938026
-0.00513974
-0.00861041
-0.00655462
0.000611462