/*--------------------------------*- C++ -*----------------------------------*\
| =========                 |                                                 |
| \\      /  F ield         | OpenFOAM: The Open Source CFD Toolbox           |
|  \\    /   O peration     | Version:  2306                                  |
|   \\  /    A nd           | Website:  www.openfoam.com                      |
|    \\/     M anipulation  |                                                 |
\*---------------------------------------------------------------------------*/
FoamFile
{
    version     2.0;
    format      ascii;
    arch        "LSB;label=32;scalar=64";
    class       volScalarField;
    location    "1";
    object      gradTz;
}
// * * * * * * * * * * * * * * * * * * * * * * * * * * * * * * * * * * * * * //

dimensions      [0 -1 0 1 0 0 0];

internalField   nonuniform List<scalar> 
2658
(
-0.0696048
-0.066244
-0.0432855
-0.0389394
-0.0502855
-0.0513574
-0.0428787
-0.0415232
-0.038907
-0.051215
-0.0546346
-0.0456389
-0.0629952
-0.0595782
-0.0607374
-0.0623736
-0.0608933
-0.0622383
-0.0606193
-0.0587709
-0.0619235
-0.0557937
-0.0634291
-0.0468814
-0.0741584
-0.0618791
-0.0558237
-0.0645987
-0.0666127
-0.0557492
-0.0666121
-0.0558237
-0.0618785
-0.0634282
-0.0741583
-0.0468806
-0.0581807
-0.0852798
-0.055793
-0.0619251
-0.0587717
-0.0606194
-0.0622376
-0.0872764
-0.0527793
-0.0522103
-0.0546348
-0.0872462
-0.0623744
-0.0607378
-0.0595776
-0.0629958
-0.0564585
-0.0886186
-0.0630526
-0.0608064
-0.0872425
-0.0524426
-0.04742
-0.0623015
-0.0872436
-0.0608073
-0.0630532
-0.0886189
-0.0547783
-0.0457293
-0.0544978
-0.0473528
-0.0507345
-0.0507333
-0.0394212
-0.0419631
-0.0309942
-0.0340169
-0.0248611
-0.0336948
-0.0339165
-0.0248248
-0.0268538
-0.0262707
-0.0339183
-0.0309769
-0.0417415
-0.0430147
-0.0366869
-0.0233312
-0.0137725
-0.00748447
-0.00374245
-0.00172516
-0.000741791
-0.000407014
-0.000281505
-0.0002409
-0.000235736
-0.000285721
-0.000231015
-0.000339996
-0.000230908
-0.000233072
-0.000340715
-0.000235976
-0.000278974
-0.000282025
-0.00024005
-0.000284283
-0.000210689
-0.000413897
-0.000221332
-0.000306079
-0.000281418
-0.000231904
-0.000311381
-0.000231896
-0.000281421
-0.000306091
-0.000240063
-0.000284284
-0.000278975
-0.000282025
-0.000235951
-0.000340685
-0.000233067
-0.0002309
-0.000252399
-0.000253527
-0.000240893
-0.000285737
-0.000231015
-0.000235744
-0.000342887
-0.000235657
-0.00028191
-0.000234515
-0.000306239
-0.000231842
-0.000229822
-0.000298417
-0.000247064
-0.000247072
-0.000229811
-0.00023184
-0.000246815
-0.000253997
-0.000316992
-0.000253882
-0.000306658
-0.000318606
-0.000212039
-0.000213063
-0.000196358
-0.000286441
-0.000302087
-0.000177733
-0.000250487
-0.000242159
-0.000220782
-0.000238607
-0.000218519
-0.000235749
-0.000242425
-0.000221991
-0.000242474
-0.000234266
-0.000215638
-0.000235536
-0.000217412
-0.000250667
-0.000410845
-0.000428458
-0.000745613
-0.00120203
-0.0018514
-0.00278581
-0.00413771
-0.00597797
-0.00849963
-0.011793
-0.0160458
-0.0213886
-0.0278473
-0.0356176
-0.0444895
-0.0532114
-0.05142
-0.0504325
-0.0509559
-0.0512142
-0.0502849
-0.0389388
-0.051358
-0.0544969
-0.0457293
-0.0547783
-0.045639
-0.0737305
-0.0366868
-0.0233311
-0.0137725
-0.0074844
-0.0037424
-0.00172512
-0.00074177
-0.000407014
-0.000281508
-0.000204317
-0.000226543
-0.000409181
-0.000232567
-0.00023257
-0.000226548
-0.000204318
-0.000409184
-0.000211937
-0.000253524
-0.000252402
-0.000284392
-0.000241431
-0.000280744
-0.000204616
-0.00021157
-0.000288848
-0.000413704
-0.000408134
-0.000434294
-0.000408126
-0.000280742
-0.000210685
-0.000232529
-0.000413897
-0.000242905
-0.000242906
-0.000232529
-0.000300817
-0.000228144
-0.000231275
-0.000231275
-0.000407432
-0.000228146
-0.000269925
-0.000238777
-0.000234357
-0.000215879
-0.000250155
-0.000234179
-0.000245198
-0.000373672
-0.000388648
-0.000280719
-0.000354853
-0.000236879
-0.000198164
-0.00024733
-0.000308543
-0.000573705
-0.000812139
-0.000812139
-0.000649993
-0.00127228
-0.000985492
-0.00193915
-0.00293973
-0.00223629
-0.00430943
-0.00627148
-0.00469092
-0.00884502
-0.0123212
-0.0090549
-0.0167061
-0.0222598
-0.016076
-0.0290213
-0.0369841
-0.0262382
-0.0461118
-0.0573892
-0.0409179
-0.0648997
-0.045805
-0.0597483
-0.0597481
-0.0645977
-0.0658755
-0.057867
-0.053452
-0.077887
-0.0509274
-0.0509278
-0.0513529
-0.0779378
-0.052003
-0.0520032
-0.0496154
-0.0772131
-0.0637046
-0.0637043
-0.0759212
-0.108414
-0.0759214
-0.0771882
-0.107195
-0.0770321
-0.089635
-0.0756584
-0.0738506
-0.0608073
-0.070671
-0.0848514
-0.0780003
-0.0496153
-0.0475103
-0.0764957
-0.0610971
-0.0772158
-0.107199
-0.077081
-0.0853412
-0.0781974
-0.0789983
-0.0781971
-0.0764957
-0.0608071
-0.0738509
-0.0770299
-0.107196
-0.0771875
-0.0706719
-0.0848515
-0.0853413
-0.0770843
-0.107198
-0.0772168
-0.0610969
-0.0706085
-0.0764171
-0.108494
-0.0760119
-0.0639276
-0.0773174
-0.0495556
-0.0637621
-0.0700156
-0.0710172
-0.0387732
-0.0247678
-0.0146531
-0.00797371
-0.00399089
-0.00184039
-0.000791127
-0.000753939
-0.00073256
-0.000726811
-0.000727398
-0.000733253
-0.00114447
-0.00178021
-0.00264797
-0.00397573
-0.00568879
-0.00817056
-0.0112343
-0.0154432
-0.0203876
-0.0268538
-0.0339157
-0.043015
-0.0389063
-0.0415232
-0.0428781
-0.0419641
-0.0338729
-0.0253294
-0.0338733
-0.0263897
-0.0267994
-0.0261042
-0.0200301
-0.0204455
-0.0145629
-0.0150666
-0.0145358
-0.0203883
-0.0190786
-0.0203373
-0.0202298
-0.0148143
-0.0152581
-0.0152395
-0.0203341
-0.019073
-0.0264714
-0.0252266
-0.0336259
-0.0421978
-0.039312
-0.0509558
-0.0474007
-0.0522107
-0.0872465
-0.0706088
-0.0637616
-0.0495554
-0.071045
-0.0499992
-0.0406582
-0.0382482
-0.0245098
-0.0144991
-0.00788715
-0.00394547
-0.00181909
-0.000783525
-0.000413704
-0.000288841
-0.000211566
-0.000407426
-0.00020461
-0.00024143
-0.00028439
-0.000450218
-0.0004193
-0.000419427
-0.000418723
-0.000422345
-0.000382201
-0.000255138
-0.000456621
-0.000743712
-0.000757574
-0.00117558
-0.00109489
-0.000712918
-0.000743369
-0.000807061
-0.000385777
-0.000387605
-0.000383332
-0.000347065
-0.000388905
-0.00084365
-0.000801116
-0.00052096
-0.000807784
-0.00191137
-0.00191578
-0.00195145
-0.00422628
-0.0042293
-0.00292588
-0.0012748
-0.00122826
-0.00113421
-0.00113998
-0.00176023
-0.00175732
-0.00116092
-0.00113816
-0.000762736
-0.000809365
-0.00190911
-0.0042196
-0.0042179
-0.00852531
-0.00856111
-0.00844444
-0.0155367
-0.0159202
-0.0118926
-0.00615614
-0.00597259
-0.00566141
-0.00565138
-0.00808118
-0.00804737
-0.00555953
-0.00566063
-0.00392029
-0.00264545
-0.00263285
-0.00179831
-0.0026322
-0.00393298
-0.00264899
-0.00263161
-0.00177086
-0.00116221
-0.00132107
-0.00127284
-0.00127227
-0.000628585
-0.000831714
-0.000421434
-0.000503611
-0.000246046
-0.000431907
-0.000526968
-0.000543244
-0.000496762
-0.000512057
-0.00051203
-0.000449644
-0.000534035
-0.000348912
-0.000382326
-0.000835347
-0.000788344
-0.00129432
-0.0012269
-0.00190607
-0.00420926
-0.00852305
-0.00854641
-0.0158795
-0.0158114
-0.0269922
-0.0272847
-0.0263261
-0.040965
-0.0434512
-0.0345874
-0.02114
-0.0206974
-0.0203334
-0.0202291
-0.0264712
-0.0262703
-0.0190787
-0.020337
-0.0151764
-0.0107434
-0.0111882
-0.00798733
-0.0111541
-0.0152579
-0.0107475
-0.0111889
-0.00808821
-0.00556511
-0.0062185
-0.00298328
-0.00286429
-0.00293965
-0.00148928
-0.00193907
-0.000985476
-0.00100794
-0.00190537
-0.00286776
-0.00420686
-0.00420681
-0.00325752
-0.00608276
-0.00477342
-0.00859761
-0.00653565
-0.0119241
-0.00919718
-0.0161839
-0.0120745
-0.0215075
-0.0162837
-0.0280314
-0.0205232
-0.03559
-0.0264635
-0.044785
-0.0320618
-0.0530988
-0.0398423
-0.0670288
-0.0554678
-0.0670287
-0.045805
-0.0648985
-0.0409175
-0.057389
-0.0321456
-0.0461109
-0.0262378
-0.0369838
-0.0206766
-0.0290209
-0.016076
-0.0222598
-0.0121583
-0.0167059
-0.00905468
-0.0123212
-0.00656881
-0.00884469
-0.00469081
-0.00627148
-0.00326159
-0.00430926
-0.00223623
-0.00227993
-0.0029924
-0.0013604
-0.000607157
-0.000333752
-0.000296831
-0.000431156
-0.000900093
-0.00198665
-0.00421994
-0.00836104
-0.0152913
-0.0257128
-0.0395686
-0.0538564
-0.0649791
-0.0632093
-0.0632092
-0.0574931
-0.0685495
-0.0516333
-0.0427353
-0.065761
-0.04655
-0.0532705
-0.0473809
-0.0484571
-0.0471573
-0.0398421
-0.053098
-0.0320613
-0.044785
-0.0375591
-0.0388627
-0.024839
-0.0205227
-0.0280315
-0.035589
-0.0264638
-0.0325623
-0.0201032
-0.0162836
-0.021507
-0.0120743
-0.0161842
-0.0140959
-0.0146976
-0.0080069
-0.0040171
-0.00325746
-0.00608251
-0.00859779
-0.0119237
-0.0091969
-0.0114103
-0.00595741
-0.00420497
-0.0019416
-0.000842638
-0.000812
-0.000649994
-0.0012707
-0.000777409
-0.00127071
-0.00100795
-0.00190538
-0.00150106
-0.0028679
-0.00227996
-0.00286431
-0.00186227
-0.001501
-0.00176519
-0.00127284
-0.000526974
-0.000503617
-0.000421447
-0.000831743
-0.000431924
-0.000573709
-0.000280713
-0.000308544
-0.000368895
-0.000247337
-0.000198165
-0.000236871
-0.000250665
-0.00035487
-0.000258109
-0.000230183
-0.000269588
-0.000234169
-0.000234343
-0.000250161
-0.000215859
-0.000259218
-0.000237436
-0.000243436
-0.000237438
-0.00021646
-0.000339993
-0.000259222
-0.000269931
-0.000269593
-0.000221329
-0.000230186
-0.000258103
-0.000271059
-0.000234728
-0.000217248
-0.000260839
-0.000252706
-0.000236533
-0.00026365
-0.000216435
-0.000283116
-0.000285888
-0.000421853
-0.00023877
-0.000300197
-0.000427419
-0.000434586
-0.000305777
-0.000843524
-0.00194177
-0.00420549
-0.00839987
-0.00839945
-0.0154351
-0.0260836
-0.040726
-0.0676905
-0.0627236
-0.0985347
-0.0578668
-0.0658768
-0.0924478
-0.0768719
-0.07687
-0.0924481
-0.0978506
-0.0579385
-0.0784512
-0.0750821
-0.0768064
-0.048196
-0.0620187
-0.0699356
-0.0777842
-0.107608
-0.0780609
-0.0906109
-0.0734172
-0.0841201
-0.0778066
-0.0796936
-0.0801978
-0.0857196
-0.102911
-0.0802004
-0.0978508
-0.0784527
-0.0579378
-0.0508081
-0.076806
-0.0620181
-0.0481957
-0.0489263
-0.0773175
-0.0639288
-0.0760107
-0.108493
-0.076418
-0.084695
-0.0793327
-0.0796937
-0.0804807
-0.0793068
-0.0508077
-0.073918
-0.0768885
-0.0841164
-0.0793343
-0.077566
-0.084695
-0.0767015
-0.0780005
-0.0475105
-0.071045
-0.0499992
-0.0474005
-0.0507989
-0.0428854
-0.0271369
-0.0340484
-0.0339298
-0.033625
-0.0421983
-0.0417408
-0.0309769
-0.033918
-0.0252259
-0.0341944
-0.0271526
-0.01585
-0.0207588
-0.0116049
-0.00597264
-0.00282238
-0.00282484
-0.00394521
-0.00392127
-0.00297509
-0.00255325
-0.00177283
-0.00267808
-0.00397493
-0.00388535
-0.00571887
-0.00551311
-0.00389514
-0.00386964
-0.00798861
-0.00784393
-0.0112707
-0.0109488
-0.00782446
-0.0150664
-0.0145627
-0.0204456
-0.0200299
-0.0145356
-0.026104
-0.0248609
-0.0340173
-0.0336945
-0.0248248
-0.0358844
-0.0430905
-0.066231
-0.0657232
-0.0608949
-0.0506009
-0.0476488
-0.0541534
-0.0434375
-0.0432852
-0.0273384
-0.0159799
-0.00860783
-0.00426855
-0.00195096
-0.00188155
-0.00285691
-0.00265354
-0.00265874
-0.00182836
-0.00265888
-0.00394485
-0.00398753
-0.00568478
-0.00568458
-0.00394496
-0.00393654
-0.0018202
-0.000793057
-0.000556568
-0.000495509
-0.000511002
-0.000451145
-0.000326218
-0.000451194
-0.000765957
-0.000793015
-0.00116483
-0.00116472
-0.000766018
-0.000557993
-0.000527117
-0.000299056
-0.000299037
-0.000233216
-0.000273321
-0.000527145
-0.00045664
-0.000255121
-0.000382212
-0.000712919
-0.000757616
-0.00109498
-0.00117554
-0.000743784
-0.000511013
-0.000556572
-0.000543249
-0.000791137
-0.000628592
-0.000745622
-0.000753945
-0.00113423
-0.00116221
-0.00176025
-0.00179839
-0.00263294
-0.00264553
-0.00392034
-0.0039758
-0.00386984
-0.0055134
-0.00571889
-0.00388558
-0.00389523
-0.00255344
-0.00267805
-0.00177293
-0.0017495
-0.0017589
-0.00264807
-0.00178023
-0.00175735
-0.00113819
-0.00116096
-0.00114451
-0.000743407
-0.000733265
-0.000727405
-0.000762746
-0.00114
-0.000726822
-0.000732569
-0.000419302
-0.000496757
-0.000419424
-0.000240892
-0.000418733
-0.000495506
-0.000422338
-0.000222267
-0.000235747
-0.000242421
-0.00044964
-0.000512052
-0.000512065
-0.000520982
-0.000388914
-0.00033376
-0.000607169
-0.00136043
-0.000843643
-0.00195162
-0.00299249
-0.00616865
-0.00422658
-0.00844496
-0.0117568
-0.0117566
-0.00616846
-0.0047733
-0.0206202
-0.0206205
-0.0155373
-0.0263265
-0.033184
-0.0331829
-0.048028
-0.0480287
-0.0409652
-0.0574939
-0.068557
-0.0516335
-0.0532134
-0.039068
-0.0514198
-0.047381
-0.0527794
-0.0476487
-0.0700157
-0.0710173
-0.0387734
-0.024768
-0.0146532
-0.00797382
-0.00399095
-0.00184041
-0.00148931
-0.00185144
-0.00178455
-0.00263166
-0.00264909
-0.00393302
-0.00395394
-0.00566081
-0.00555956
-0.00804755
-0.00817064
-0.00782472
-0.010949
-0.0112706
-0.00784412
-0.00798864
-0.00816482
-0.00556837
-0.00808078
-0.0080308
-0.0112097
-0.0112096
-0.00808089
-0.0055684
-0.00816452
-0.00600305
-0.00429435
-0.00197526
-0.000865621
-0.000402371
-0.000558064
-0.000382279
-0.000250319
-0.000177903
-0.000278976
-0.000306207
-0.000234545
-0.000281921
-0.000285873
-0.000235647
-0.000342876
-0.000218497
-0.0002386
-0.000421835
-0.000220772
-0.000242154
-0.000348873
-0.000385773
-0.000387587
-0.000383324
-0.000215637
-0.000234269
-0.000450218
-0.000242471
-0.000222002
-0.000226973
-0.000428465
-0.000246049
-0.000410843
-0.000235534
-0.000217398
-0.000347036
-0.000807805
-0.000801136
-0.00127488
-0.00120206
-0.00122832
-0.00177091
-0.00191148
-0.001916
-0.00292601
-0.00278594
-0.00413781
-0.00392132
-0.00566159
-0.00556516
-0.00808842
-0.00808132
-0.00798763
-0.0111884
-0.0107432
-0.0151768
-0.0154433
-0.0112347
-0.0116051
-0.0115903
-0.0111892
-0.0107478
-0.0111545
-0.0078872
-0.00394553
-0.00181912
-0.000783535
-0.00132108
-0.0029833
-0.00621853
-0.00595744
-0.0114103
-0.0119282
-0.0119281
-0.0210323
-0.0190724
-0.0263644
-0.0249875
-0.034022
-0.0309479
-0.0419309
-0.0390674
-0.0350508
-0.0216567
-0.0122698
-0.00639048
-0.00306339
-0.00135584
-0.00117033
-0.00178263
-0.00178205
-0.00178196
-0.00178279
-0.00117032
-0.00135585
-0.00306342
-0.0026536
-0.00397513
-0.00285707
-0.00126666
-0.000835395
-0.00195103
-0.00426874
-0.00600318
-0.0062822
-0.00297525
-0.00282256
-0.00282499
-0.00394531
-0.00421806
-0.00422963
-0.00615652
-0.00597824
-0.00849979
-0.00791557
-0.0117934
-0.0160459
-0.0146729
-0.0213895
-0.0278477
-0.0249884
-0.0339306
-0.0309481
-0.0419314
-0.0444898
-0.032146
-0.0356183
-0.0206769
-0.0345885
-0.0211406
-0.011893
-0.00856196
-0.0085258
-0.0158124
-0.0159221
-0.0269938
-0.0272875
-0.0427371
-0.0434497
-0.0657639
-0.0465501
-0.0581806
-0.0852811
-0.0734173
-0.0780603
-0.107608
-0.0777846
-0.0699358
-0.0872771
-0.0532716
-0.0506015
-0.0504336
-0.0382483
-0.02451
-0.0144993
-0.0154321
-0.0260635
-0.0340221
-0.0325623
-0.0201033
-0.0210324
-0.0216568
-0.0144501
-0.00786224
-0.0122699
-0.00639052
-0.0107558
-0.0154247
-0.0152356
-0.0148799
-0.0203477
-0.0203475
-0.0152356
-0.0107557
-0.0154244
-0.0116364
-0.0121907
-0.0084541
-0.00628206
-0.00416341
-0.0217937
-0.015783
-0.020797
-0.026799
-0.0263899
-0.0190976
-0.0244271
-0.0381304
-0.0699088
-0.0665859
-0.051353
-0.0702935
-0.0484571
-0.0471575
-0.0739185
-0.0534524
-0.0793064
-0.0768886
-0.0841159
-0.0841193
-0.075084
-0.090611
-0.0778074
-0.0775669
-0.0808935
-0.0737307
-0.0524423
-0.0507798
-0.0431489
-0.0342274
-0.0309941
-0.0507793
-0.0662438
-0.0696065
-0.0595048
-0.0658352
-0.0623017
-0.06095
-0.0473525
-0.0273555
-0.0160242
-0.00864295
-0.0116365
-0.00860804
-0.0159797
-0.0207971
-0.0190978
-0.021794
-0.012191
-0.00852334
-0.0042095
-0.00190619
-0.000807094
-0.000809367
-0.00190918
-0.00421974
-0.00597298
-0.00565156
-0.00854678
-0.01588
-0.0206983
-0.0263646
-0.0340491
-0.0341942
-0.0207596
-0.0158503
-0.0271531
-0.0271382
-0.0428869
-0.0657252
-0.0507984
-0.0430921
-0.0662314
-0.0541542
-0.0358846
-0.0342279
-0.0273387
-0.0271655
-0.0434382
-0.0157844
-0.00597287
-0.00568898
-0.00122699
-0.00129441
-0.000534046
-0.000788444
-0.00188175
-0.00416384
-0.00845569
-0.0350509
-0.0271623
-0.0121586
-0.00656893
-0.00326173
-0.00263227
-0.00126661
-0.00174947
-0.00175882
-0.000217241
-0.000234728
-0.000271061
-0.000263651
-0.000241478
-0.000236527
-0.000252703
-0.000260846
-0.000216459
-0.000283116
-0.000216414
-0.000298416
-0.000302491
-0.000233206
-0.000273326
-0.000246892
-0.000278868
-0.0115897
-0.0152392
-0.0146727
-0.039311
-0.0489263
-0.0702934
-0.0766979
-0.000211931
-0.000188331
-0.00653567
-0.00763482
-0.00381198
-0.023962
-0.00791522
-0.0148139
-0.00178448
-0.00395384
-0.000226982
-0.000240892
-0.000222251
-0.0756582
-0.0896348
-0.0766519
-0.0773384
-0.0766504
-0.0564591
-0.0595057
0.000348879
0.000382312
0.000835333
0.000757575
0.0007129
0.000743705
0.00117558
0.00109486
0.000743349
0.000733248
0.000422335
0.000222253
0.000238626
0.000218543
0.000235765
0.000242437
0.000222022
0.00024249
0.000234287
0.000215669
0.000235563
0.000217466
0.000250678
0.000246044
0.000354864
0.000236888
0.000198171
0.000258098
0.000247329
0.00018835
0.000247326
0.000198164
0.000236884
0.000250679
0.000354867
0.000246046
0.000428455
0.000410828
0.000217454
0.000235556
0.000215667
0.000234289
0.000242485
0.000450219
0.000419408
0.000418715
0.000422324
0.000449624
0.000242438
0.000235759
0.000218539
0.000238627
0.000220831
0.000421833
0.000242164
0.000273323
0.00052713
0.000451188
0.000326203
0.000299046
0.000527099
0.000273318
0.000242151
0.000421849
0.000382187
0.000255121
0.000456608
0.000511016
0.000766025
0.000765954
0.000793005
0.0011647
0.00117031
0.00178261
0.00177284
0.00174945
0.00178018
0.00175878
0.00264789
0.00263278
0.00175728
0.00116091
0.00113814
0.00114444
0.000741763
0.0017251
0.00374236
0.00748434
0.0137723
0.023331
0.0366866
0.0737305
0.0764954
0.0610968
0.0772172
0.0706084
0.0764174
0.108493
0.076011
0.077784
0.107609
0.0780597
0.0734171
0.0906107
0.078451
0.0750822
0.0508076
0.0739179
0.0579382
0.0978504
0.0924474
0.0768719
0.102912
0.0768694
0.0924478
0.0978499
0.0784516
0.0750822
0.0734171
0.0906108
0.0780597
0.107607
0.0777839
0.0760111
0.0639275
0.063762
0.0610966
0.0706084
0.0764173
0.0772174
0.107197
0.0770837
0.0896352
0.0770294
0.107194
0.0771878
0.0759206
0.0706718
0.0637043
0.0637045
0.0759209
0.0771882
0.107193
0.0770319
0.0896347
0.0756579
0.0770812
0.107198
0.0595772
0.0629945
0.0886185
0.0564582
0.063053
0.0595048
0.0608068
0.0623016
0.0609494
0.0623016
0.0474201
0.0524426
0.0524427
0.0872426
0.0608065
0.059504
0.0630529
0.0564597
0.0629955
0.0595768
0.0607374
0.0623731
0.0608923
0.0622379
0.0606188
0.0587706
0.0619229
0.0557945
0.0634275
0.0852801
0.0581805
0.0532124
0.0444894
0.0356184
0.0278471
0.0213895
0.0160458
0.0117934
0.00849967
0.00597816
0.00413775
0.00278591
0.00185142
0.00120206
0.000745609
0.000732565
0.000726802
0.000727395
0.000733241
0.000712897
0.000757591
0.000743776
0.000456618
0.000255122
0.000382192
0.000222262
0.000407013
0.00074178
0.00172514
0.00374241
0.0074844
0.0137724
0.023331
0.0366866
0.0737304
0.0764954
0.0475103
0.049615
0.0710448
0.0520031
0.0520027
0.0496151
0.0475103
0.0710449
0.0495553
0.0637613
0.0639279
0.0699355
0.0620176
0.0768059
0.0481957
0.0489262
0.0773172
0.0700155
0.0710171
0.0676903
0.071017
0.0768058
0.0508074
0.0534516
0.0739178
0.0578666
0.0578666
0.0534515
0.077887
0.0509279
0.0513527
0.0513525
0.0702933
0.0509274
0.0768881
0.0804812
0.079693
0.0778058
0.0841198
0.080198
0.0857198
0.0985337
0.0627232
0.0458044
0.0741579
0.0618781
0.0558229
0.0666123
0.0597474
0.067028
0.053098
0.0530976
0.0320616
0.0461108
0.0262372
0.0369837
0.0290209
0.016076
0.0222596
0.0167059
0.00905473
0.0123212
0.00884486
0.00469082
0.00627144
0.00430936
0.00223624
0.00293966
0.00193909
0.000985454
0.00127225
0.000831715
0.000421432
0.0005036
0.000280715
0.000308525
0.000308525
0.000258095
0.000230185
0.000242903
0.000232526
0.000300808
0.000228139
0.000228137
0.000231268
0.000305763
0.000232563
0.000232561
0.000226538
0.000300182
0.000247054
0.00024706
0.000229806
0.000306653
0.000253879
0.000253998
0.000278961
0.000306222
0.000234573
0.000281976
0.000235692
0.000342937
0.000235772
0.000240901
0.000281504
0.000216415
0.000283119
0.000285904
0.00025271
0.000260851
0.000231049
0.000340084
0.000230943
0.000252397
0.000288834
0.00021193
0.000253517
0.000285704
0.000413708
0.00040813
0.000791129
0.00184038
0.00399091
0.00797379
0.0146531
0.0247679
0.0387731
0.0390678
0.0514198
0.050433
0.0509557
0.0512141
0.0430149
0.0339155
0.0268536
0.0203877
0.0154431
0.0112345
0.00817052
0.00568888
0.0039757
0.00264801
0.00178019
0.00114449
0.000743379
0.00109492
0.00117551
0.00116482
0.00178193
0.00182831
0.00178205
0.00265868
0.00267805
0.00255324
0.00389512
0.00397493
0.00388532
0.00551309
0.00386958
0.00397569
0.00264544
0.00392022
0.00393292
0.00395374
0.00565124
0.00566122
0.00394521
0.00264895
0.00263213
0.00179831
0.0017602
0.00113996
0.00076271
0.000727388
0.000495494
0.000418706
0.000449625
0.00028573
0.000235761
0.000342931
0.000235681
0.000281967
0.000234536
0.00030625
0.000278846
0.000246909
0.00022981
0.000231831
0.000298404
0.000216434
0.000204319
0.000281509
0.000283117
0.000240895
0.000253527
0.000211936
0.000409178
0.000226538
0.000427415
0.00079305
0.00182018
0.00393651
0.00786219
0.01445
0.024427
0.0381302
0.0699087
0.0772129
0.0789979
0.0781969
0.0766992
0.0846941
0.0775681
0.108492
0.0841152
0.0620189
0.0481957
0.0489258
0.0702932
0.048457
0.0473807
0.0527794
0.0522102
0.0546347
0.0547784
0.0457296
0.0544972
0.0513576
0.0389391
0.0428781
0.0415232
0.0502848
0.0389065
0.0430906
0.0662312
0.0657242
0.0657638
0.068557
0.0574935
0.040965
0.0434523
0.0516333
0.0427375
0.0269922
0.0272857
0.0263275
0.0155373
0.0159213
0.021141
0.0345872
0.0340483
0.0419313
0.0421975
0.0336252
0.0339178
0.0309767
0.0417409
0.0393116
0.0382481
0.0700154
0.077317
0.0495554
0.0780003
0.0793344
0.0768882
0.0793069
0.0579378
0.0658746
0.0645979
0.0632079
0.0649783
0.0538562
0.0395684
0.0257125
0.0152915
0.0083612
0.00422004
0.00198664
0.000900088
0.000431138
0.000296816
0.000333741
0.000333741
0.000388909
0.000843652
0.00195155
0.0042265
0.00844488
0.00856155
0.0118932
0.0158121
0.00852562
0.00421799
0.00422942
0.00615648
0.00597273
0.00808834
0.00808117
0.00565146
0.00566067
0.00555948
0.00804741
0.0111882
0.0107432
0.0151765
0.0203368
0.0190787
0.0262705
0.0252258
0.0264713
0.0202293
0.019073
0.0263647
0.0339295
0.0309479
0.0340219
0.0245098
0.0144991
0.0148141
0.0152579
0.0111542
0.0107476
0.0152395
0.0203335
0.014673
0.0206979
0.0271374
0.0428857
0.0506005
0.0532709
0.0872764
0.0699355
0.0465499
0.0507984
0.0872458
0.0541538
0.0696051
0.066244
0.0432859
0.0434432
0.0358832
0.0341936
0.0271525
0.01585
0.0158796
0.00854654
0.00421962
0.0019091
0.00191143
0.00191582
0.002926
0.00282486
0.00394524
0.00393295
0.0026322
0.00263285
0.00264547
0.0039203
0.00395385
0.00394548
0.00788714
0.00798748
0.00621848
0.00556506
0.00566141
0.00392128
0.00595742
0.00884504
0.00656896
0.0123212
0.00905495
0.0167065
0.0121584
0.0222599
0.0160764
0.0290218
0.0206768
0.0369837
0.0262379
0.0461114
0.0321459
0.0573886
0.0409176
0.0648983
0.0468805
0.0398422
0.0471573
0.0471573
0.0648983
0.0409175
0.0573886
0.0398421
0.0670286
0.0458044
0.0597475
0.0554674
0.0666126
0.055823
0.0618783
0.0634279
0.0741581
0.0645977
0.0658764
0.0793067
0.0801989
0.0796945
0.0841192
0.0778041
0.084115
0.0793326
0.0808936
0.0779376
0.0665857
0.0406581
0.0407258
0.0388626
0.0320617
0.0447843
0.0355898
0.0280313
0.0215078
0.0215071
0.0120746
0.0161841
0.00919693
0.0119239
0.00653569
0.00859772
0.00477338
0.00608267
0.00325746
0.00420687
0.00227997
0.00286779
0.00150103
0.00190536
0.00100791
0.00127068
0.00065
0.000812131
0.000431903
0.000573697
0.000368884
0.000573698
0.00028071
0.000503597
0.000421433
0.00083174
0.000628599
0.00127227
0.000985486
0.00193912
0.00148931
0.00293969
0.00223625
0.0043094
0.00326166
0.00627155
0.00469092
0.00477344
0.00608271
0.00381203
0.00420682
0.00286787
0.00190534
0.00127071
0.000777413
0.000812144
0.000431914
0.000526968
0.00127283
0.00100794
0.00136041
0.00299251
0.00616875
0.0117571
0.0206209
0.0331836
0.0480279
0.0480276
0.0632089
0.0574937
0.0409642
0.033183
0.044785
0.0264634
0.035589
0.0205225
0.0280316
0.0162836
0.0201031
0.0248389
0.0205228
0.023962
0.0146976
0.0120746
0.0161839
0.0119242
0.00859768
0.00653572
0.0080069
0.00763498
0.00401711
0.0032575
0.00186227
0.00150104
0.00176514
0.000811998
0.000649993
0.000388647
0.000373661
0.000242901
0.000230183
0.00028147
0.000231946
0.000231932
0.000281461
0.000306112
0.000221334
0.000240068
0.000284286
0.000280739
0.000204608
0.000241426
0.000284408
0.000233099
0.000340756
0.000236006
0.000282086
0.000278979
0.000250167
0.000215855
0.000234351
0.000234177
0.000245206
0.000311467
0.000234184
0.000306138
0.000240091
0.000221333
0.000210692
0.000280741
0.00024143
0.000204615
0.000211569
0.000288839
0.000252401
0.000230926
0.000340046
0.000231054
0.00026085
0.000237426
0.000234342
0.000238769
0.000269588
0.000210685
0.000413892
0.000269921
0.000259229
0.00023743
0.000216479
0.000243425
0.00026992
0.000269587
0.000232526
0.000413896
0.000526968
0.000842635
0.00194159
0.00420495
0.0083994
0.0154351
0.0260835
0.0325622
0.026464
0.0325621
0.0387732
0.0321461
0.053212
0.0390674
0.041931
0.0309479
0.0336246
0.0252257
0.0262701
0.0190782
0.0203367
0.0203874
0.0145355
0.0150662
0.0154244
0.0145626
0.0200295
0.0261037
0.0267988
0.0248605
0.033694
0.0248242
0.0268535
0.0339156
0.0339173
0.0417409
0.030977
0.0430143
0.0389069
0.0415228
0.0428779
0.0389387
0.0502848
0.0512143
0.0509551
0.0393114
0.0421976
0.0504326
0.0514193
0.053271
0.0473808
0.0527793
0.0476485
0.0522104
0.0474005
0.0546344
0.0456388
0.0547784
0.0544976
0.0457289
0.0662439
0.0658349
0.0507796
0.0473526
0.0507334
0.0394214
0.0419632
0.0419635
0.0309935
0.0340168
0.0248603
0.026799
0.0261039
0.0336938
0.0248246
0.0200298
0.0145628
0.0154245
0.0150664
0.0145359
0.0109489
0.00784413
0.0081647
0.00798848
0.00782458
0.00852316
0.00420935
0.00190611
0.000807053
0.00080936
0.000807782
0.000801137
0.00127488
0.00122829
0.0017709
0.00176022
0.00114
0.00113815
0.00116091
0.00175733
0.00179833
0.00181909
0.000783525
0.000762715
0.000543243
0.000496756
0.000419283
0.000226979
0.000383317
0.000347042
0.000520958
0.000512036
0.000387582
0.000222039
0.000240888
0.000512026
0.00122691
0.00282244
0.00597268
0.0116049
0.020759
0.0217941
0.0271653
0.0273385
0.0159789
0.0157832
0.0121909
0.0116361
0.0207967
0.0204452
0.0203473
0.0148799
0.0152355
0.0152355
0.0107556
0.0112096
0.00803055
0.00808073
0.0080807
0.00556831
0.00571877
0.00388543
0.00397507
0.00389515
0.00551333
0.00386969
0.00628213
0.00845517
0.00860785
0.00426859
0.00416283
0.00297517
0.00285695
0.00267799
0.00177288
0.00178274
0.00174946
0.00255335
0.00175884
0.00129434
0.00188166
0.00195102
0.000835361
0.000788339
0.000534016
0.000385756
0.000348882
0.000382278
0.000250332
0.000177903
0.000212033
0.000196347
0.000213068
0.000177757
0.000250491
0.000233202
0.000302095
0.00040236
0.000865618
0.00126666
0.00117029
0.00135583
0.00132107
0.00116221
0.00113421
0.000753932
0.00298328
0.00264903
0.0026316
0.00178448
0.00286429
0.00227995
0.00286428
0.00595738
0.0114103
0.014653
0.0247677
0.0206766
0.0356172
0.0249875
0.0263642
0.0190726
0.0202288
0.0148138
0.0151763
0.010743
0.0111879
0.0112341
0.00782441
0.00798845
0.00816454
0.00784386
0.0109487
0.0112705
0.0107556
0.0112095
0.0116362
0.0160239
0.0273552
0.0431487
0.0342266
0.0342274
0.0507785
0.0473526
0.0513571
0.0507338
0.0499992
0.0484571
0.0340219
0.0382481
0.0245097
0.0260635
0.0210324
0.0201032
0.0162837
0.0114103
0.00919712
0.0119281
0.0154321
0.00839985
0.00420546
0.00194174
0.000843518
0.000434587
0.000434293
0.000408134
0.000791124
0.00184037
0.00399088
0.0079737
0.0065688
0.0117929
0.00791529
0.00808816
0.00556498
0.0080811
0.00798731
0.00804731
0.00555944
0.00566053
0.00568867
0.00817044
0.0059724
0.0059724
0.00615604
0.00844476
0.015537
0.0263265
0.0206202
0.0117567
0.00616858
0.00299243
0.00422646
0.00195152
0.00136041
0.000607144
0.0008436
0.000388892
0.000347068
0.00052093
0.000745606
0.000753926
0.000732548
0.000496744
0.000419411
0.000240886
0.000413707
0.000783516
0.00181907
0.00394544
0.0078871
0.014499
0.0210322
0.0119281
0.0107474
0.0111887
0.0111539
0.0152577
0.0152392
0.0160456
0.0146723
0.0213887
0.0121583
0.0278471
0.0211396
0.0345864
0.0444891
0.0516342
0.0581805
0.0465498
0.0619247
0.0557926
0.08528
0.0685511
0.0657605
0.0587702
0.0606192
0.0872764
0.0622376
0.0608948
0.0623743
0.0872458
0.0607376
0.0662306
0.065723
0.0506015
0.0427353
0.0434515
0.0269915
0.027286
0.015811
0.0159205
0.0118924
0.0115894
0.0206973
0.0203331
0.0264711
0.0340477
0.0339295
0.0428846
0.0271366
0.015879
0.00854619
0.00852508
0.00856115
0.00421769
0.00392116
0.00413769
0.00278583
0.00178444
0.00177087
0.00116219
0.00113419
0.00120203
0.000628583
0.00185139
0.00148928
0.00127483
0.00292583
0.00422933
0.00282472
0.00263152
0.00191134
0.00191582
0.000807784
0.000801071
0.000383333
0.000226978
0.000428443
0.000410842
0.000279012
0.000235995
0.00034077
0.00023311
0.000284416
0.000450222
0.000419286
0.000512027
0.000726805
0.00122822
0.00122684
0.00282223
0.00421942
0.00190903
0.000809326
0.000387594
0.000511994
0.000807029
0.00190601
0.00420918
0.00852284
0.0158496
0.0271523
0.0430901
0.050799
0.0541541
0.0432849
0.0273377
0.0207969
0.0263896
0.0263895
0.025329
0.0338722
0.0340163
0.0309939
0.0350507
0.0350507
0.0499991
0.0474006
0.0216566
0.0190972
0.0216565
0.0190971
0.0204452
0.0203473
0.0122697
0.0122698
0.00639046
0.00639045
0.00621842
0.00298327
0.00132106
0.00127283
0.000543243
0.000407426
0.000231269
0.000556565
0.00135583
0.00306337
0.00306338
0.00265355
0.00394483
0.00398739
0.00394494
0.00265355
0.00285693
0.00429423
0.00600293
0.00568467
0.00568456
0.00571884
0.00556831
0.006003
0.0086427
0.0086077
0.0159793
0.0121906
0.0217933
0.0207583
0.0341933
0.0358831
0.0434423
0.0271647
0.0116044
0.0154429
0.015784
0.00845545
0.00628183
0.00426846
0.00195093
0.00197524
0.00126661
0.00129428
0.0029751
0.00416313
0.00188158
0.000534014
0.000788301
0.000557996
0.000451137
0.000558048
0.000511008
0.000556564
0.000495495
0.000409176
0.000204317
0.000271048
0.00023472
0.000217214
0.00023876
0.000271049
0.000263644
0.000234714
0.000217198
0.000252718
0.000236513
0.00024147
0.00023654
0.000263644