/*--------------------------------*- C++ -*----------------------------------*\
| =========                 |                                                 |
| \\      /  F ield         | OpenFOAM: The Open Source CFD Toolbox           |
|  \\    /   O peration     | Version:  2306                                  |
|   \\  /    A nd           | Website:  www.openfoam.com                      |
|    \\/     M anipulation  |                                                 |
\*---------------------------------------------------------------------------*/
FoamFile
{
    version     2.0;
    format      ascii;
    arch        "LSB;label=32;scalar=64";
    class       volScalarField;
    location    "0.1";
    object      gradTz;
}
// * * * * * * * * * * * * * * * * * * * * * * * * * * * * * * * * * * * * * //

dimensions      [0 -1 0 1 0 0 0];

internalField   nonuniform List<scalar> 
5712
(
24985.3
77271.9
20745.4
74210.3
15552.9
69402
18351.6
87324.3
20733.8
115834
23220.7
96979.9
24892.9
89178.3
26626.7
86129.3
15457.5
8530.37
38670.1
21341.2
13485.6
5889.41
35713.3
15893.9
22039.3
18581.4
66964.7
55344.5
17104.6
14868
60751.6
51685.4
33873
15341.9
26010.1
11488.6
15815.5
34066.8
87111.3
23106.9
32026.7
10902.1
95330.9
25646.1
25709.2
8931.41
73069
22558.5
35602.7
13190.8
73053
22502.9
26924.8
13360.4
42106.3
16961.4
27051.3
14700.3
38345.4
15322.4
28351
17597.4
28641.4
13264
43663.1
17161.8
15197
5898.43
19083.3
10869.6
14544.2
7644.75
13997.8
8711.01
10302
5437.21
18123.5
10510
22375.7
13680.8
10401.5
5590.57
5093.91
3500.61
7335.9
4064.29
3494.79
2654.81
13041.4
7189.23
6692.16
3907.73
20083.5
12944.8
15694.1
25570.8
24591.6
22349.8
21432.8
41682.6
14139.5
7715.68
9588.48
14919.8
7180.54
3521.62
4261.72
5482.54
29580.2
49199.4
21114.2
62407.5
31795.3
44211.5
24948.5
63268.2
31448.5
34757.2
30386.6
58934.1
16032
11979.3
18322
23362
34577.7
8714.07
14167.9
22008.7
33617.1
72100.7
8304.54
10366.6
13786.7
23941.5
54397
48121.8
27270.3
60306.8
32634.2
40597.7
24076.2
58239.9
31748.1
30067.9
19478.2
52038.3
30038.7
4786.42
2100.64
8696.39
4877.69
15196.7
9716.09
24450.8
16469.7
47189.5
28575.8
4498.21
2357.09
7675.32
5126.98
13055.8
9602.08
22976.4
16557
42555.6
26736.6
7292.84
3211.73
4726.81
2781.47
5265.94
2841.09
3381.16
2320.63
7202.79
4388.39
10844.6
5178.83
1980.02
1739.06
649.924
519.721
1740.73
1469.43
518.302
444.721
2775.99
2640.51
887.268
781.23
11529.9
5834.52
19310
6891.33
17882.5
8249.52
30168.8
11588.3
5208.21
3250.11
10393
3560
3168.94
1907.66
4877.89
2208.64
12432.6
4063.75
855.07
14513
4613.41
980.253
11508.8
3848.63
848.79
13963.1
4444.63
925.071
9266.15
2996.7
622.654
13089.9
4112.63
834.718
845.872
290.154
61.6339
2288.68
805.383
170.3
4860.49
1661.1
343.131
8179.65
2678.09
539.712
12715.7
3994.57
795.329
1092.57
373.2
84.4176
2656.7
1040.98
240.958
5040.02
1918.39
423.482
8505.29
3050.33
640.373
12758.1
4176.17
843.365
1659.78
1955.99
5094.46
4452.46
5725.52
3608.21
12217.6
8353.89
525.913
246.02
564.508
263.03
577.054
469.677
833.234
653.019
2566.54
1163.21
2643.19
1291.63
875.034
1806.43
4871.59
1335.8
11307.6
3397.82
-733.442
470.129
1773.07
961.616
819.924
478.581
909.018
166.674
245.276
60.7906
1061.2
191.709
417.935
95.4543
1281.14
233.162
865.255
190.2
849.196
169.777
269.041
49.5598
5001.72
3088.89
3219.91
1824.5
8830.03
5877.03
6023.19
3414.33
1566.8
868.824
2586.63
1391.09
2255.13
1300.48
1057.39
866.488
4232.46
2479.26
2052.91
1643.23
1060.53
616.288
444.632
422.925
589.422
113.121
346.888
70.8956
803.94
137.82
504.717
99.0553
361.021
79.0832
233.631
44.2549
98.2002
22.9713
151.249
21.5314
856.932
253.287
163.048
76.6886
965.171
307.68
175.128
82.7396
1258.73
450.712
207.982
102.467
4496.78
7821.92
2415.69
759.148
125.68
5271.12
2988.68
1573.19
636.268
122.065
5611.31
3016.26
1346.16
491.504
88.841
71.8
17.7739
28.8945
9.94917
100.4
23.8385
35.5079
12.4065
174.129
45.2561
51.5995
18.8116
2778.43
921.464
1552.58
454.429
651.088
203.124
290.348
91.5677
64.775
26.4217
2410.3
1025.79
1285.84
492.444
601.322
223.709
237.917
91.6527
48.4145
24.6193
1387.29
449.284
878.991
293.986
2918.08
1062.65
1889.43
761.373
383.318
126.903
584.396
189.932
701.839
218.5
196.676
61.5135
1250.84
491.736
351.245
142.074
334.165
97.7838
94.5359
27.7645
126.013
49.291
23.0463
14.5089
195.115
68.5743
31.8239
17.6821
124.707
37.912
18.0735
9.84676
34.0428
11.6156
-14.1832
-0.961128
3.70748
0.563707
0.077171
2.65931
0.369332
0.0496566
5.26885
0.795994
0.118048
3.38675
0.468279
0.063224
9.87069
1.47201
0.229171
5.28694
0.703771
0.094025
299.858
89.5192
18.4771
117.104
26.669
5.42751
50.5067
9.65512
1.79684
21.5307
3.36182
0.514613
7.86139
1.04932
0.128333
394.053
104.144
20.7246
159.774
32.4029
5.42002
67.2222
12.1368
1.80478
26.3661
4.39412
0.58859
9.08981
1.316
0.150007
19.0945
1.88734
0.160064
0.0117727
8.19435
0.860153
0.074981
0.00588498
21.1687
2.1214
0.188269
0.0160757
11.396
1.18972
0.131747
0.0147431
24.377
2.39325
0.250248
0.0272593
22.7046
2.24064
0.174449
0.0122688
14.9868
1.49068
0.0549349
-0.00411024
5.75801
0.658899
0.0390944
0.00185905
16.7939
1.81232
0.156974
0.00791847
8.85127
0.954106
0.115363
0.0119563
19.0492
1.99344
0.211967
0.0206772
11.9712
1.25123
0.14977
0.0141693
12.3848
1.35485
0.121162
0.00840637
5.73208
0.635743
0.0804523
0.00951936
5.16341
0.588913
0.0525804
0.0051665
2.12843
0.24842
0.0329549
0.00469957
18.7946
1.86656
0.172535
0.0139345
11.0146
1.20966
0.144059
0.0149489
19.7751
1.95572
0.180134
0.0143789
11.516
1.25105
0.151608
0.0156424
20.9392
2.01987
0.210084
0.0199039
12.7803
1.33262
0.16886
0.0184716
14.9527
1.53494
0.187844
0.0241067
14.3088
1.48749
0.207654
0.0256443
10.812
1.12937
0.144079
0.015338
4.92599
0.585938
0.0842829
0.0102346
1.42448
0.175283
0.0236162
0.00304599
5.84007
0.674364
0.0942696
0.0110568
1.69935
0.2032
0.0270262
0.0034364
7.40261
0.804471
0.109329
0.0125088
2.1669
0.243228
0.0310919
0.00392632
7.87022
0.82742
0.116964
0.0132145
2.56144
0.272561
0.035096
0.00431771
7.82209
0.822131
0.115088
0.0125675
2.44134
0.261103
0.0354528
0.00428174
5.17398
0.544749
0.0674958
0.00763886
1.93505
0.211336
0.0257792
0.00304717
6.60136
0.686733
0.089505
0.0100142
2.18882
0.235278
0.0305609
0.00372745
3.4818
0.363115
0.0443436
0.00554285
1.33045
0.147567
0.017075
0.00211552
1.35609
0.140324
0.01816
0.00248695
0.529756
0.0593612
0.00703677
0.000896424
0.00118158
0.000114992
1.06234e-05
9.52275e-07
9.05755e-08
0.000547062
5.34697e-05
4.98219e-06
4.51047e-07
4.34352e-08
0.00152433
0.000143144
1.3159e-05
1.1984e-06
1.17371e-07
0.000956072
8.53494e-05
7.98354e-06
7.52886e-07
7.6821e-08
0.00176954
0.000157426
1.4682e-05
1.3793e-06
1.39994e-07
0.00138967
0.000155166
1.64028e-05
1.66749e-06
1.79603e-07
0.000854768
0.000119465
1.35445e-05
1.42098e-06
1.55973e-07
0.000453603
6.57232e-05
8.16792e-06
9.27155e-07
1.0868e-07
0.00130791
0.00013954
1.41246e-05
1.3927e-06
1.46581e-07
0.000868198
9.22741e-05
9.77237e-06
1.01215e-06
1.11516e-07
0.00164522
0.00015021
1.41997e-05
1.35463e-06
1.39886e-07
0.00074182
8.7041e-05
9.85815e-06
1.06396e-06
1.20445e-07
0.00110633
0.000121489
1.25659e-05
1.25506e-06
1.3342e-07
0.000675793
7.39461e-05
8.02496e-06
8.50316e-07
9.57925e-08
0.000466952
5.30561e-05
6.09617e-06
6.77811e-07
7.93639e-08
0.000349354
3.9552e-05
4.53175e-06
5.07466e-07
6.0143e-08
0.00118666
0.000107301
9.58339e-06
8.4337e-07
7.91057e-08
0.00054395
4.51009e-05
3.88135e-06
3.36466e-07
3.13614e-08
0.00135239
0.000125743
1.13912e-05
1.0193e-06
9.80619e-08
0.000604444
5.1943e-05
4.58175e-06
4.05856e-07
3.88761e-08
0.00146973
0.000127795
1.14892e-05
1.04794e-06
1.03928e-07
0.000716101
6.33024e-05
5.88328e-06
5.55318e-07
5.685e-08
0.00138713
0.000127489
1.246e-05
1.22793e-06
1.30565e-07
0.000869742
7.88751e-05
7.76416e-06
7.71553e-07
8.2548e-08
0.000705415
8.9858e-05
1.04904e-05
1.15092e-06
1.31513e-07
2134.77
7708.73
2171.19
7535.17
2341.21
7108.28
2241.1
6588.76
1568.89
6038.87
10.1189
2108.75
427.721
3540.98
-23.6596
1134.44
27.3324
480.188
76165.1
57965.5
52669.4
49270.5
46384.3
23474.9
19822.8
18076.1
16642.7
15250
75236.6
57175.7
51984.5
48640.4
45827.7
23560.8
20234.1
18316.7
16889.7
15760.9
71929.1
54641.2
49679.5
46482.6
43787.7
22624.7
19455.8
17636
16281.3
15204
66642
50540.4
45934.6
42961.5
40446
21450.2
18372.3
16577.7
15229.4
14143.9
57675.6
43553.9
39570.3
37008.8
34836.1
19792.6
16878.3
15208.8
13955.3
12938.6
30718.1
23516.8
21324.2
19885.8
18667.8
10094.8
8623.64
7784.65
7149.21
6625.13
43477.1
33153.1
30081.5
28080.6
26397.3
14500.4
12459.1
11283.9
10395.5
9669.44
18611.8
14297.1
12965.7
12091.6
11345.4
5945.88
5104.62
4620.41
4240.51
3942.91
6448.71
4937.96
4482.11
4185.27
3930.8
2101.5
1681.59
1518.71
1379.41
1276.26
511.869
2360.08
11602.5
1757.56
1165.75
1238.19
2492.99
3397.78
2966.67
5336.43
6431.43
9158.95
8970.38
10812.7
4396.08
5575.17
3372.58
4011.59
1868.86
1933.01
210.837
44.5506
0.798923
-0.021347
0.0464837
0.0515166
0.282474
1473.58
308.871
238.582
133.907
23.6071
5.89494
62.158
7.75293
3.45421
3.72538
0.9109
826.003
173.201
21.0849
10.9124
41.6335
11.8001
3.9886
3.4522
0.575756
0.585857
4.83021
2.99934
833.196
132.096
304.723
66.2214
34.4018
185.945
5.42548
0.415629
7.67308
83.281
34.1008
14.1048
4.94365
1.3427
20.7885
9.48607
3.75766
1.27058
0.311558
0.486009
0.252442
0.1109
0.0412678
0.0100529
-0.0102647
-0.00388528
-0.0010758
-0.000169921
-7.24794e-06
0.0306372
0.0170264
0.00792482
0.0031031
0.000777559
0.0329384
0.0178892
0.00817907
0.00315535
0.000784232
0.174962
0.0928385
0.0416563
0.0157748
0.00388222
561.516
231.769
89.8202
29.9223
9.25651
129.939
53.147
20.868
6.90047
1.91953
102.121
44.1405
17.2166
5.66039
1.51139
51.5171
18.571
6.76572
2.22781
0.564706
8.99375
3.0843
1.0783
0.347107
0.0836025
3.39765
1.68791
0.712629
0.255088
0.0614795
30.6264
13.7338
5.29764
1.75333
0.425877
4.15836
1.91879
0.753685
0.255257
0.0606045
1.92372
0.928209
0.383241
0.135535
0.0324194
2.11581
1.0289
0.425647
0.15041
0.0360092
0.494553
0.231809
0.0932479
0.0323597
0.00763026
335.602
143.073
57.8267
19.1369
5.55866
77.7189
34.6256
13.9677
4.67769
1.23024
11.6049
5.62965
2.33796
0.822648
0.19926
6.01607
2.91961
1.21351
0.428071
0.103412
21.5425
10.0698
4.0579
1.38838
0.338781
7.03754
3.59546
1.55183
0.562123
0.133834
2.25318
1.11066
0.467249
0.166426
0.0399365
2.04932
1.0432
0.450133
0.164492
0.0397113
0.338542
0.171303
0.0736448
0.0268527
0.00651055
0.356839
0.185289
0.0813491
0.0302772
0.00738221
2.75616
1.35962
0.57153
0.204372
0.0491836
1.75112
0.88084
0.376716
0.136828
0.0330822
331.135
132.023
53.7522
17.5762
5.18661
61.5441
27.6459
10.9323
3.65401
0.908049
133.631
60.2336
23.8814
7.77025
2.00938
31.8507
14.5841
5.776
1.94516
0.474438
18.5814
8.90978
3.67174
1.28132
0.306807
89.4313
40.1963
16.2487
5.43384
1.33511
3.16746
1.59221
0.67985
0.245905
0.0591245
0.254849
0.133014
0.0586486
0.0219048
0.00534569
4.43632
2.21973
0.944217
0.339486
0.0814705
-68038.2
-114568
-55490.4
-92216.9
-52662.2
-111169
-63998
-141324
-40127
-23977.4
-49526.8
-28342.7
-32742.6
-17063.5
-44283.6
-21029.1
-63718
-53639.8
-97664.4
-79588.9
-53079.5
-47151.6
-80459.1
-68092.9
-44802.5
-41421
-33854.9
-29140
-42311.7
-43887.6
-93972.2
-25058.6
-35658.8
-12628.2
-100502
-27339.2
-28374
-10303.2
-79800.9
-24616.3
-39433.2
-14982.1
-79829.4
-24207.1
-39833
-17027.2
-54507.1
-20788.7
-36605.3
-17451.5
-46796.6
-17906.6
-34445.4
-19390.1
-34096.2
-14853.7
-47470.3
-18335.1
-16471.6
-6332.04
-17066.9
-9933.58
-16854.2
-8341.37
-11722.5
-7209.24
-12016.1
-5990.41
-20744
-11192.3
-22264.9
-13750.7
-11941.5
-6033.5
-6013.86
-3783.64
-8496.17
-4429.04
-4204.92
-2894.7
-14702.4
-7596.98
-7660.42
-4163.27
-22148.3
-13640.2
-16219.8
-25781
-26398.9
-23110.9
-22086.3
-42020.1
-15416.2
-8135.68
-9881.64
-15028.9
-7921.56
-3776.66
-4440.03
-5548.06
-36293.1
-44212.1
-23173.4
-61915.8
-36006.7
-39686.7
-26526.4
-62721.5
-33203.7
-32136.3
-31397.2
-58586
-11791.5
-7518.07
-16971.3
-25303
-35641.3
-8366.9
-13428.7
-21495.8
-33541
-72329.2
-6018.15
-8819.7
-13574.1
-24538.6
-54777.2
-38745.9
-19915.6
-58467.4
-30206.7
-33436.4
-18193.1
-56864.6
-29881.8
-25618.2
-15297.3
-51298.9
-28909.6
-5555.77
-2818.9
-8984.55
-5081.01
-14208.9
-8828.64
-22353.1
-14790.4
-46897.6
-28331.1
-4290.07
-2562.02
-7270.94
-5020.2
-12528.6
-9169.14
-22590.3
-16086.8
-42681.1
-26657.6
-6698.56
-3115.69
-4734.52
-2793.27
-4493.84
-2672.72
-3299.85
-2258.38
-7309.87
-4461.9
-10645.3
-5204.17
-2086.42
-1776.6
-741.851
-551.194
-1811.85
-1474.88
-592.839
-463.261
-2892.89
-2692.97
-976.029
-813.902
-11662.4
-5920.08
-19395.3
-6947.51
-17973.7
-8366.42
-30303.8
-11689.1
-5301.75
-3295.84
-10440.4
-3585.11
-3233.51
-1933.56
-4906.45
-2220.92
-9226.91
-2794.38
-14059
-4249.7
-8930.12
-2764.87
-13932.1
-4330.05
-7702.17
-2283.81
-13598.1
-4250.8
-1193.97
-328.917
-2429.71
-714.89
-4522.46
-1379.04
-7809.02
-2331.34
-13618.8
-4214.72
-1258.22
-358.604
-2696.07
-901.778
-5010.15
-1635.36
-8672.05
-2697.28
-13385.5
-3923.56
-7967.37
-5973.45
-7532.92
-6196.31
-17456.3
-10500.8
-16957.1
-11520.7
-3896.62
-1748.01
-1881.72
-766.401
-3686.62
-1991.45
-1880.99
-1115.98
-3325.41
-3885.85
-3649.18
-3786.29
-2471.31
-2201.34
-5708.28
-1811.63
-12904.5
-4304.1
541.739
-618.601
-2209.73
-1189.64
-814.382
-506.21
-671.248
-140.008
-302.159
-59.1525
-740.22
-156.077
-455.756
-88.3154
-966.046
-192.234
-895.057
-175.072
-815.062
-150.284
-239.822
-30.1185
-3800.46
-2426.55
-3715.44
-1940.35
-7050.68
-4646.21
-7067.61
-3727.59
-1762.62
-891.773
-1928.49
-1117.83
-2626.76
-1407.17
-1306.65
-946.313
-4961.38
-2708.52
-2520.4
-1802.71
-1220.77
-651.229
-552.473
-451.77
-591.75
-106.064
-343.383
-68.3245
-656.243
-117.499
-434.129
-88.8618
-380.253
-74.7639
-240.541
-43.7316
-112.858
-18.827
-158.051
-21.2969
-681.904
-508.447
-153.846
-118.688
-724.235
-556.316
-155.31
-119.053
-862.538
-631.75
-168.727
-123.899
-2359.88
-4481.34
-1286.29
-498.429
-94.1554
-5055.93
-2724.35
-1474.78
-593.564
-120.217
-3792.32
-2066.3
-972.443
-394.911
-76.3533
-300.533
-135.564
-74.1044
-41.667
-338.115
-155.87
-79.0073
-45.2606
-420.594
-209.755
-87.1033
-52.0606
-3493.31
-1615.76
-2102.56
-936.397
-1079.11
-481.639
-422.398
-193.652
-80.1015
-44.5336
-2324.4
-1274.36
-1245.6
-650.761
-584.769
-294.832
-232.17
-115.511
-43.7
-28.1707
-1105.53
-401.882
-828.377
-268.284
-2348.56
-967.561
-1800.48
-711.262
-360.615
-115.682
-477.898
-170.91
-712.852
-215.165
-220.164
-65.0643
-1284.23
-488.947
-399.052
-150.984
-336.064
-95.7093
-103.252
-28.7603
-118.922
-45.7475
-21.761
-13.6398
-168.29
-63.1127
-27.5885
-16.1271
-124.072
-36.9909
-17.7115
-9.56953
-35.836
-11.6431
14.1884
1.03382
-49.979
-13.0645
-17.797
-3.4707
-62.8102
-16.9343
-19.8794
-3.90746
-85.5424
-22.6983
-21.9948
-3.99462
-621.731
-161.817
-353.403
-89.1279
-198.443
-51.9604
-77.0015
-19.2136
-18.1933
-3.3362
-561.217
-130.463
-261.631
-52.95
-114.515
-22.1769
-42.9973
-7.88665
-13.3181
-2.20225
-17.8261
-1.88631
-0.160998
-0.0112875
-7.78584
-0.835512
-0.0738384
-0.00582747
-19.1568
-2.04519
-0.182357
-0.0151814
-10.0163
-1.05305
-0.123921
-0.014802
-21.9118
-2.26186
-0.242283
-0.0269146
-19.7784
-1.89275
-0.132683
-0.00748454
-11.5314
-1.04306
0.00399561
0.0110746
-2.02647
-0.147107
0.0204613
0.00429065
-15.4842
-1.6499
-0.132361
-0.00396698
-8.33873
-0.882237
-0.104658
-0.0103212
-17.4327
-1.87806
-0.200891
-0.0192239
-10.9148
-1.1559
-0.138107
-0.0119985
-11.1078
-1.15951
-0.0934775
-0.00481561
-5.41071
-0.576227
-0.0695254
-0.00772059
-3.83596
-0.373094
-0.0217199
-0.00138671
-1.84577
-0.191282
-0.0216593
-0.00280013
-19.5937
-2.06797
-0.187331
-0.0141163
-15.6518
-1.66102
-0.189725
-0.018237
-19.4967
-2.0569
-0.184554
-0.013448
-15.3564
-1.62346
-0.18909
-0.0179531
-19.2281
-1.99262
-0.209771
-0.0195191
-15.017
-1.56004
-0.194982
-0.0198703
-12.6436
-1.38138
-0.174668
-0.023197
-14.8114
-1.57398
-0.221473
-0.0262058
-9.64632
-1.03079
-0.130976
-0.0122894
-9.60953
-0.994495
-0.129815
-0.0143774
-3.33303
-0.334434
-0.0384296
-0.00459268
-9.97173
-1.01973
-0.132133
-0.0143005
-3.48872
-0.34581
-0.0399853
-0.00478043
-9.99017
-1.00368
-0.13387
-0.014514
-3.48072
-0.336114
-0.0386718
-0.00471888
-8.62623
-0.891677
-0.130478
-0.0141859
-3.03693
-0.302817
-0.0378033
-0.00458576
-7.38571
-0.782907
-0.116618
-0.0126298
-2.29449
-0.236686
-0.0336688
-0.00410901
-4.95695
-0.516764
-0.0637583
-0.0069119
-1.714
-0.179157
-0.0219588
-0.00257107
-6.24626
-0.655031
-0.0875562
-0.00957085
-1.86292
-0.192995
-0.0263266
-0.00326154
-3.34078
-0.338007
-0.0399105
-0.00472982
-1.22029
-0.127817
-0.0141817
-0.00171292
-1.24929
-0.117302
-0.0137268
-0.0016717
-0.466438
-0.0454239
-0.0047249
-0.000550252
-0.00114058
-0.000109113
-9.77682e-06
-8.41108e-07
-7.57875e-08
-0.000524847
-4.95803e-05
-4.43411e-06
-3.82157e-07
-3.46787e-08
-0.0013864
-0.0001236
-1.06757e-05
-9.0726e-07
-8.22002e-08
-0.000827325
-6.57303e-05
-5.56058e-06
-4.78657e-07
-4.43978e-08
-0.00151666
-0.000121934
-1.03489e-05
-8.87449e-07
-8.19458e-08
-0.000811806
-8.50982e-05
-8.33451e-06
-7.80639e-07
-7.68275e-08
-0.000220482
-4.423e-05
-4.84879e-06
-4.56864e-07
-4.31194e-08
0.000283632
2.52432e-05
2.45424e-06
2.565e-07
3.01505e-08
-0.000907831
-8.98117e-05
-8.21275e-06
-7.25922e-07
-6.78006e-08
-0.000565597
-5.09074e-05
-4.704e-06
-4.32979e-07
-4.22829e-08
-0.00133746
-0.000109148
-9.24741e-06
-7.958e-07
-7.42033e-08
-0.00030683
-3.43079e-05
-3.83018e-06
-4.04469e-07
-4.43837e-08
-0.000691159
-6.85744e-05
-6.18338e-06
-5.26338e-07
-4.60298e-08
-0.000368571
-3.11553e-05
-2.66123e-06
-2.25721e-07
-2.01196e-08
2.15009e-05
1.04052e-05
1.58684e-06
2.00244e-07
2.57338e-08
-4.64414e-05
3.52504e-06
9.85343e-07
1.46468e-07
2.01818e-08
-0.00117502
-0.00010456
-9.09487e-06
-7.72112e-07
-6.9122e-08
-0.000552155
-4.45248e-05
-3.71299e-06
-3.10052e-07
-2.76161e-08
-0.00125243
-0.000113347
-9.82332e-06
-8.31906e-07
-7.48771e-08
-0.000576107
-4.75965e-05
-4.00813e-06
-3.36432e-07
-3.01854e-08
-0.00131481
-0.00010621
-8.82178e-06
-7.41792e-07
-6.74642e-08
-0.000590254
-4.71695e-05
-4.00518e-06
-3.48431e-07
-3.30994e-08
-0.0010201
-8.22301e-05
-7.25373e-06
-6.57513e-07
-6.48487e-08
-0.000622018
-4.85395e-05
-4.32566e-06
-3.99593e-07
-4.01134e-08
-0.000147387
-2.68785e-05
-3.54529e-06
-4.08198e-07
-4.78469e-08
-2650.85
-7707.54
-2653.16
-7586.54
-2782.43
-7242.43
-2553.18
-6756.77
-1733.89
-6144.81
-45.6218
-2137.03
-504.238
-3599.22
7.73047
-1146.1
-35.2822
-485.207
-76326.7
-57981
-52671.4
-49270.8
-46384.4
-23492.2
-19826.4
-18077.8
-16643.5
-15250.6
-75382.2
-57189.8
-51986.4
-48641.2
-45828.5
-23583.7
-20239.2
-18318.2
-16890.3
-15761.4
-72040.5
-54651.5
-49680.4
-46483.3
-43789
-22652.4
-19460.7
-17637.2
-16282.4
-15205.3
-66713.5
-50547.1
-45935.1
-42962.3
-40447.5
-21477.1
-18376.2
-16578.3
-15230
-14144.8
-57709.8
-43556.4
-39569.8
-37009
-34836.8
-19812.2
-16880.5
-15208.8
-13955.7
-12939.4
-30722.8
-23517.3
-21324.5
-19886.2
-18668.3
-10099.6
-8624.11
-7784.74
-7149.62
-6625.74
-43489
-33153.7
-30081.1
-28080.7
-26397.8
-14509.8
-12459.9
-11283.6
-10395.6
-9669.95
-18614.3
-14298
-12966.5
-12092.5
-11346.2
-5947.99
-5104.9
-4620.62
-4240.91
-3943.37
-6448.85
-4937.53
-4481.7
-4184.94
-3930.45
-2102.21
-1681.49
-1518.63
-1379.51
-1276.22
-988.208
-3511.59
-13262
-2135.17
-9444.82
-4765.55
-8589.45
-4752.36
-21078.9
-12382.6
-24464.6
-14026.6
-4.84685e-05
-0.000219467
-0.000663773
-0.00151619
-7.2139e-05
0.0350868
-0.000220141
-0.00105653
-0.00347594
-0.00931524
-0.0164229
0.0108509
-1.54127e-05
-6.96535e-06
-7.04489e-05
-3.79493e-05
-0.000158392
-0.000120658
0.000364357
-4.90519e-05
0.00442494
0.00096837
0.0285109
0.00945789
0.343209
1.94608
8.9765
8.31236
-6.02778
-7.55367
0.250679
1.27959
4.20226
7.93473
5.36779
1.42747
-3.38644e-05
-2.03242e-05
-1.02986e-05
-4.37971e-06
-1.16282e-06
-0.000151831
-9.00577e-05
-4.50685e-05
-1.89443e-05
-4.9908e-06
-0.000451716
-0.000262846
-0.000128917
-5.31785e-05
-1.38339e-05
-0.0010056
-0.000568578
-0.00027082
-0.000108715
-2.7774e-05
2.36399e-05
5.37112e-05
4.34522e-05
2.37683e-05
7.06935e-06
0.0227825
0.0125777
0.00584523
0.00229212
0.000576277
-0.00015214
-9.00954e-05
-4.49898e-05
-1.88664e-05
-4.96129e-06
-0.000723104
-0.000423334
-0.00020886
-8.66044e-05
-2.26036e-05
-0.00234571
-0.00135098
-0.0006552
-0.000267342
-6.90222e-05
-0.00618355
-0.00349579
-0.00166338
-0.000666733
-0.000170093
-0.0106843
-0.00591031
-0.00275203
-0.00108115
-0.000272173
0.00710892
0.00395448
0.00184961
0.000729463
0.000184006
-1.0844e-05
-6.56529e-06
-3.35974e-06
-1.44264e-06
-3.85625e-07
-4.94961e-06
-3.03411e-06
-1.57435e-06
-6.85008e-07
-1.84679e-07
-4.9005e-05
-2.92656e-05
-1.47585e-05
-6.25079e-06
-1.6556e-06
-2.67021e-05
-1.61668e-05
-8.27422e-06
-3.55373e-06
-9.5017e-07
-0.000108393
-6.34948e-05
-3.13733e-05
-1.30372e-05
-3.40929e-06
-8.40494e-05
-5.02365e-05
-2.5342e-05
-1.0734e-05
-2.84301e-06
0.000246014
0.00014178
6.8766e-05
2.80382e-05
7.23e-06
-3.72148e-05
-2.41079e-05
-1.30564e-05
-5.86615e-06
-1.61265e-06
0.00292851
0.00165093
0.000783418
0.000313161
7.97313e-05
0.00062703
0.000345072
0.000159728
6.23083e-05
1.55919e-05
0.0184643
0.0101716
0.00471814
0.0018467
0.000463752
0.00612945
0.00337568
0.0015643
0.000611387
0.00015332
0.213956
0.113587
0.0509028
0.0193057
0.00475515
1.16535
0.597437
0.259599
0.0956754
0.0231983
5.10718
2.51942
1.06042
0.379231
0.0908612
4.4516
2.08152
0.858871
0.307302
0.0735688
-1.3295
-0.310174
-0.0444658
0.0290148
-0.00376412
-2.63349
-1.03708
-0.363906
-0.0968259
-0.0296056
0.157332
0.083934
0.037764
0.0143775
0.00354778
0.780919
0.406086
0.178618
0.0666253
0.0162454
2.48527
1.259
0.542007
0.198358
0.0479109
4.55078
2.25184
0.954417
0.34515
0.0830699
3.37663
1.74427
0.757872
0.281383
0.0669673
1.05054
0.572578
0.257218
0.0987915
0.0234268
4.81283e-05
0.00021849
0.000660636
0.00150733
6.02238e-05
-0.0349627
0.000218673
0.00105202
0.00346145
0.00927475
0.0163455
-0.0108361
1.53149e-05
6.95551e-06
7.01784e-05
3.8104e-05
0.000158296
0.000122875
-0.000354728
6.27314e-05
-0.00435356
-0.00109247
-0.0281174
-0.00941064
-0.341763
-1.93616
-8.93109
-8.39119
5.62429
7.15234
-0.249778
-1.27507
-4.19136
-7.94106
-5.45131
-1.53812
3.36373e-05
2.02007e-05
1.02476e-05
4.36452e-06
1.16028e-06
0.000151202
8.97361e-05
4.49495e-05
1.89173e-05
4.98869e-06
0.000449811
0.000261966
0.000128658
5.31607e-05
1.38481e-05
0.00100081
0.000566851
0.000270686
0.000108994
2.79147e-05
-2.63871e-05
-5.12759e-05
-3.99046e-05
-2.13215e-05
-6.24449e-06
-0.0226857
-0.0125153
-0.00581285
-0.00227867
-0.0005728
0.000151161
8.95641e-05
4.477e-05
1.88008e-05
4.95016e-06
0.000720155
0.000421783
0.00020825
8.64402e-05
2.25804e-05
0.00233645
0.00134629
0.000653469
0.00026694
6.89861e-05
0.00615829
0.00348343
0.00165912
0.000665912
0.000170079
0.010638
0.0058891
0.00274569
0.00108052
0.000272419
-0.00709088
-0.00393872
-0.00183928
-0.000724308
-0.000182514
1.078e-05
6.53179e-06
3.34701e-06
1.43955e-06
3.8537e-07
4.94529e-06
3.03421e-06
1.57657e-06
6.8718e-07
1.8562e-07
4.88437e-05
2.91954e-05
1.47426e-05
6.25402e-06
1.65848e-06
2.68275e-05
1.62594e-05
8.33397e-06
3.58564e-06
9.59884e-07
0.000108458
6.36494e-05
3.15291e-05
1.31399e-05
3.44396e-06
8.56744e-05
5.12903e-05
2.5932e-05
1.10121e-05
2.92246e-06
-0.00023907
-0.000137433
-6.64647e-05
-2.70222e-05
-6.95354e-06
4.68427e-05
3.0011e-05
1.61425e-05
7.22349e-06
1.98199e-06
-0.00287886
-0.00162128
-0.00076861
-0.000307025
-7.81419e-05
-0.000709878
-0.000391637
-0.000181601
-7.09556e-05
-1.77808e-05
-0.0181932
-0.0100126
-0.00464098
-0.00181587
-0.000456044
-0.0060954
-0.0033537
-0.00155295
-0.000606783
-0.000152262
-0.213057
-0.113138
-0.0507382
-0.0192656
-0.00475063
-1.15937
-0.594537
-0.258564
-0.0954316
-0.0231732
-5.07872
-2.50464
-1.05453
-0.37751
-0.0905732
-4.46714
-2.07115
-0.844968
-0.298836
-0.0708305
1.10994
0.214974
0.0168961
-0.031942
0.00463181
2.39603
0.923191
0.324444
0.0884195
0.0289633
-0.156742
-0.0836199
-0.0376358
-0.0143391
-0.00354092
-0.777983
-0.404527
-0.17798
-0.0664331
-0.0162111
-2.47764
-1.2546
-0.540011
-0.197666
-0.0477639
-4.55052
-2.24914
-0.951904
-0.34376
-0.0826474
-3.42446
-1.76601
-0.764725
-0.282469
-0.0669153
-1.1179
-0.605586
-0.269082
-0.101539
-0.0236857
-215.433
-45.8628
-0.794303
0.020912
-0.0417273
-0.0425424
-0.280956
-1442.28
-305.683
-231.718
-113.508
-5.26056
-60.785
-2.63119
0.831949
-0.744009
-803.594
-168.668
-20.4821
-10.7247
-41.2372
-11.6274
-3.95437
-3.41591
-0.37764
-0.519221
-4.62859
-2.92658
-828.205
-132.153
-303.585
-66.1303
-34.1428
-183.184
-5.3764
-0.395808
-7.56358
-85.6664
-35.0943
-14.3967
-4.97658
-1.336
-21.5342
-9.83071
-3.8702
-1.29073
-0.311813
-0.483331
-0.251224
-0.110518
-0.0412057
-0.0100562
0.0103229
0.00415321
0.00132445
0.000314593
5.18705e-05
-0.0273184
-0.0150662
-0.00696145
-0.00270942
-0.000676402
-0.0270338
-0.0145805
-0.00661947
-0.00253662
-0.000627571
-0.173085
-0.0912698
-0.0407066
-0.0153405
-0.00376577
-575.315
-244.533
-97.3822
-33.1289
-10.1883
-132.908
-55.4008
-22.2908
-7.54286
-2.08431
-101.889
-45.0272
-17.9665
-6.02847
-1.63279
-48.8
-19.598
-7.78039
-2.62789
-0.649364
-2.99381
-1.48088
-0.626444
-0.22545
-0.0548412
-30.962
-14.4347
-5.77493
-1.96266
-0.481843
-1.45352
-0.704689
-0.293864
-0.104567
-0.0251667
0.447242
0.202572
0.077736
0.0256988
0.00558815
-0.407988
-0.194398
-0.0795629
-0.0278429
-0.00659599
-321.739
-136.874
-55.6405
-18.6496
-5.48204
-75.3828
-33.4918
-13.5573
-4.57793
-1.21939
-11.2635
-5.47112
-2.28292
-0.80963
-0.197906
-5.93135
-2.89182
-1.20984
-0.430008
-0.104595
-21.5674
-10.2118
-4.17566
-1.44881
-0.356665
-6.85736
-3.46522
-1.48195
-0.533711
-0.126709
-2.2319
-1.0994
-0.462547
-0.164904
-0.0396374
-2.02838
-1.03365
-0.447027
-0.16389
-0.0396904
-0.214725
-0.106145
-0.0449137
-0.0161543
-0.0039231
-0.315172
-0.163345
-0.0717009
-0.0267025
-0.00651964
-2.64642
-1.31252
-0.556253
-0.200689
-0.0486733
-1.71156
-0.863791
-0.371272
-0.135618
-0.0329559
-327.991
-130.624
-53.194
-17.4366
-5.16976
-61.5278
-27.6073
-10.9013
-3.6381
-0.903154
-131.333
-58.6046
-23.0289
-7.4413
-1.91034
-31.6368
-14.3983
-5.66718
-1.89882
-0.461989
-18.3947
-8.80018
-3.62228
-1.26443
-0.303315
-87.8666
-39.4361
-15.97
-5.36338
-1.32676
-3.1411
-1.58135
-0.677022
-0.245762
-0.0592879
-0.241968
-0.126003
-0.0554905
-0.0207137
-0.00505653
-4.36353
-2.17954
-0.92677
-0.333626
-0.0802501
-0.0694292
-0.295163
-0.878725
-2.23301
-4.9715
-10.1379
-44097.9
-37149.7
-31076.8
-37423.9
-27708.4
-18654.9
-21250.8
-12814.2
-43672.3
-41225.5
-38235.4
-38513.6
-30659.6
-23308.5
-34526.9
-33180.7
-27988.3
-22221.7
-26821.3
-20915.2
-15021.1
-15613
-9922.11
-35407.5
-34459.5
-30897.3
-30605.4
-24076.6
-19878.5
-25765.9
-22161.7
-18999.1
-14303.2
-16969.2
-14492.2
-10526.9
-10413.4
-6901.03
-25372.9
-26967.9
-22229.7
-23467.1
-17292.8
-14141.2
-18953.6
-11305
-9893.83
-6776.06
-7863.32
-7722.79
-5801.19
-5143.76
-3579.42
-14690.3
-17448.8
-12938.4
-15108.5
-10249.1
-8123.43
-11785.7
-5209.07
-4626.27
-2900.81
-3312.09
-3666.3
-2766.3
-2268.44
-1629.31
-7485.59
-9137.02
-6607.29
-7906.68
-5280.32
-4107.48
-6099.26
-1481.41
-1327.06
-784.868
-886.387
-1068.47
-833.629
-627.982
-469.768
-2261.63
-2929.68
-1990.54
-2442.5
-1614.61
-1263.11
-1901.72
-8975.86
-8060
-17090.3
-19816.6
-6745.57
-4960.81
-12960.7
-8210.79
-4164.39
-1773.06
-3997.4
-1908.39
-3543.56
-3232.8
-2150.86
-7699.1
-6665.39
-13263.8
-15685.4
-5363.77
-4031.86
-9821.81
-6512.99
-3662.08
-1210.55
-3435.38
-1320.99
-2727.85
-2535.96
-1533.31
-5411.89
-4664.61
-8835.2
-10391.4
-3719.81
-2768.2
-6600.77
-4414.48
-2302.7
-768.356
-2158.22
-862.376
-1671.82
-1580.89
-975.615
-2693.67
-2324.18
-4204.88
-4890.06
-1847.03
-1366.46
-3207.58
-2201.28
-1219.94
-381.507
-1125.7
-421.072
-864.269
-788.375
-474.814
-1117.79
-970.654
-1741.46
-2001.9
-764.577
-550.837
-1359.48
-948.192
-501.171
-145.522
-465.407
-171.34
-358.11
-319.392
-198.654
-287.044
-250.816
-454.239
-517.329
-198.51
-144.24
-361.697
-260.428
-123.775
-36.1795
-117.643
-43.7283
-93.8535
-83.3422
-52.3148
24988
76179.4
20669.7
74247.4
15521.2
69430.2
18342.9
87340.5
20722.1
115849
23185.4
96984.4
24817.2
89166.8
26670
84898.8
15443.2
8527.92
38682.3
21345.7
13482.1
5889.27
35720.4
15896.7
22011.6
18549
66039.7
54624.3
17044
14833.5
60828.4
51765.5
33905.9
15325.3
26017.9
11482.9
15800.3
34106.1
87144.9
23111.8
32035.7
10903.5
95348.9
25647.9
25713.5
8931.14
73124.7
22570.3
35619.9
13195.8
73129.7
22517.8
26804.3
13284.6
41587.1
16752.8
27042
14698.8
38406.5
15346.7
28340.1
17595.3
28663
13274.2
43707.5
17179.2
15209
5903.32
19078.4
10867.7
14545.2
7645.15
13994.5
8709.17
10302.6
5437.37
18125.8
10510.7
22369.9
13679.4
10404.5
5591.39
5093.69
3500.38
7337.24
4064.65
3494.02
2654.4
13047.4
7190.53
6693.44
3907.83
20087.5
12947.2
15695
25571.4
24587.7
22349.6
21432.2
41682.9
14147.5
7719.01
9589.88
14920.5
7183.2
3522.84
4262.01
5482.72
29511.4
49322.2
21032.6
62485.6
31791.8
44192.2
24960
63257.2
31440.1
34749
30387.2
58931.3
16026.7
11975.2
18316.5
23359.8
34579.5
8711.02
14163.3
22002.8
33612.2
72100.1
8302.02
10363.9
13784.3
23940.4
54397.6
48340.8
27435.6
60504.6
32744.1
40570.5
24060.2
58208.8
31734.9
30056.9
19467.9
52033.4
30033.3
4784.7
2099.9
8693.5
4876.1
15192.1
9712.96
24444.1
16464.5
47187.1
28573.3
4496.73
2356.32
7673.11
5125.62
13053
9600.2
22973.8
16555.1
42555.5
26736
7291.17
3211.27
4726.42
2781.41
5264.51
2840.39
3380.75
2320.35
7202.54
4388.51
10843.1
5178.53
1980.16
1739.15
649.904
519.745
1740.73
1469.36
518.21
444.69
2776.24
2640.69
887.342
781.296
11529.9
5834.72
19310.3
6891.6
17881.6
8249.54
30169
11588.6
5208.53
3250.31
10393.3
3560.16
3169.11
1907.76
4878.01
2208.7
12516.6
4093.17
863.19
14572.4
4638.98
986.191
11504.2
3848.94
849.143
13961.5
4444.68
925.408
9261.67
2995.75
622.571
13087.6
4112.02
834.675
845.586
290.057
61.6131
2287.93
805.106
170.242
4858.77
1660.5
343.013
8176.75
2677.18
539.56
12714.1
3993.94
795.205
1092.21
373.081
84.391
2655.97
1040.68
240.888
5038.91
1917.92
423.374
8504.07
3049.76
640.241
12757.3
4175.66
843.237
1664.12
1957.39
5107.04
4455.58
5726.94
3608.95
12225.5
8356.24
508.017
239.877
544.646
255.834
579.179
469.581
835.584
652.753
2575.59
1166.54
2646.06
1292.25
876.586
1811.79
4874.33
1336.5
11309.7
3397.52
-724.931
473.597
1776.41
963.164