/*--------------------------------*- C++ -*----------------------------------*\
| =========                 |                                                 |
| \\      /  F ield         | OpenFOAM: The Open Source CFD Toolbox           |
|  \\    /   O peration     | Version:  2306                                  |
|   \\  /    A nd           | Website:  www.openfoam.com                      |
|    \\/     M anipulation  |                                                 |
\*---------------------------------------------------------------------------*/
FoamFile
{
    version     2.0;
    format      ascii;
    arch        "LSB;label=32;scalar=64";
    class       volScalarField;
    location    "0.1";
    object      gradTx;
}
// * * * * * * * * * * * * * * * * * * * * * * * * * * * * * * * * * * * * * //

dimensions      [0 -1 0 1 0 0 0];

internalField   nonuniform List<scalar> 
5712
(
-15175.1
-22475.6
-31993.7
-56773.3
-48894.2
-97487.5
-34093.4
-97350.6
-27315.1
-65782.2
-40656.9
-71289.3
-34513.1
-55468.4
-15977.9
-21824.6
-32230.3
-31261.3
-47497.6
-42015.5
-27014.2
-25224.8
-46855.4
-35165.6
-14406.8
-12447.6
-21128.5
-16664
-32586.3
-28657.2
-65799.1
-54392.5
-42083.8
-37011.9
-48793.2
-40280.8
-17651.8
-17919.1
-95732.8
-124178
-60468.9
-74690.9
-110074
-141133
-53988.9
-63647
-80483.3
-110778
-71483.4
-93728.7
-52344.6
-76085.7
-9584.02
-3302.89
-12287.9
-4686.11
-27953.5
-12515.3
-46197.8
-18406.9
-23574.3
-10166.1
-29539.3
-10278
-54120.5
-18996.2
-70575.8
-26342.2
-32599.3
-16587.7
-36441.9
-19241.6
-22710.8
-13193.2
-25559.8
-14747.3
-38639.1
-22355.8
-34092
-18710
-43354.7
-22061.6
-46183
-22639
-32198.5
-16750.4
-34755.1
-16988.8
-45686.6
-25816.8
-48982.3
-26993.2
-48264.5
-26737.1
-26700
-45751.4
-43492.2
-28130.6
-22839.7
-45175.9
-55207.5
-27518.7
-30222.4
-46566.1
-59796.2
-28613.3
-32548.1
-47964.3
-10944.2
-10650.1
-3814.45
-8140.49
-30773.7
-29303.7
-14026
-25655.6
-32981.5
-32169
-22075.6
-38739.9
-8727.65
334.47
-19614.1
-36475.6
-30104.2
1435.09
-2643.5
-14934.5
-35847.9
-44038.5
-6520.67
-12558.1
-18355.2
-25371.3
-57485.7
-6942.78
-3190.26
-4506.62
-2526.98
-18202.5
-8687.4
-14152.8
-7581
-19693.2
-9849.69
-20291.1
-10480.7
-1565.34
-1228.82
-5536.43
-3665.35
-14329.1
-8213.98
-22675.3
-12335.7
-29471.1
-15083
-4085.26
-1929.98
-8587.41
-3673.27
-14388.6
-6567.41
-21823
-9832.9
-39742.8
-15656.1
-9447.14
-2723.46
-9448.8
-4178.42
-5977.32
-3012.56
-6714.87
-3702.16
-14451.8
-6877.44
-15188.9
-4531.46
-9130.3
-5439.79
-9179.11
-5771.47
-6868.3
-4461.79
-7009.42
-4805.8
-13831.3
-8752.26
-13904.6
-9125.3
-26704.1
-11041.5
-47486.4
-14388.7
-25186.8
-7382.14
-44666.5
-10596.4
-26281.8
-12699.7
-48008.5
-15070
-25211.3
-13412.1
-45917.4
-16963.9
-1253.92
-435.449
-122.248
-1062.05
-382.257
-115.494
-3486.31
-977.781
-193.73
-3087.45
-836.412
-161.349
-3539.86
-881.666
-228.13
-4165.08
-950.86
-226.605
-464.749
-95.8162
-24.4079
-1588.02
-301.088
-55.6451
-3098.76
-630.484
-107.556
-4570.53
-1018.26
-203.755
-5797.23
-1222.03
-209.834
-1215.4
-321.431
-67.2853
-1767.57
-488.017
-89.9255
-3137.89
-805.317
-135.138
-4495.36
-1112.67
-178.867
-6965.62
-1583.93
-226.574
-7821.26
-8127.28
-7525.73
-8400.92
-14871.1
-15425.1
-17225.5
-18680.5
560.018
166.642
1023.54
342.653
-532.283
-227.497
431.412
532.502
-161.08
-982.945
-4560.09
-5052.38
-1129.87
-570.537
-9765.59
-11601
-22775.1
-27395.1
134.753
2456.08
-4531.02
-5024.52
-2685.01
-2145.34
-140.488
-57.281
-90.2236
-52.7775
-519.046
-34.2516
-64.1177
40.7514
-2392.95
-276.753
-2033.1
-277.507
-3081.23
-465.805
-4201.75
-585.822
-5661.7
-4379.34
-6263.68
-4810.1
-11864.3
-8682.19
-13820.3
-9328.82
-2919.58
-2266.23
-2842.02
-2026.75
-7587.16
-5243.96
-8818.69
-5418.63
-16781.3
-10220.3
-18653.4
-10417.5
-3348.45
-2462.18
-3862.3
-2561.27
79.2192
-36.4079
-775.302
-138.47
53.0856
-27.3073
-643.891
-112.728
-33.8385
-71.9795
-867.445
-160.611
-147.607
-92.2563
-902.357
-168.831
33.6057
19.0688
-14.3025
-1.35274
165.287
85.2018
-2.30113
7.97413
-42.098
17.5167
-80.761
-30.3972
1592.31
2911.65
500.028
258.253
23.468
3205.15
1808.9
343.357
297.796
34.3339
-4041.62
-2245.22
-1118.27
-481.351
-91.4412
2.6477
0.701887
-0.258869
0.134758
15.7309
4.71369
1.11185
0.887679
12.4195
9.97298
-8.51785
-1.0384
570.036
46.7035
528.279
137.45
25.5942
4.39971
27.0401
6.27979
-6.76356
-3.98776
-1597.66
-460.971
-723.125
-94.5576
-326.4
-49.3274
-127.661
-23.6114
-18.9053
-4.74605
-1373.85
-462.148
-1991.24
-620.715
-2968.2
-1109.79
-3921.38
-1393.1
-859.508
-265.552
-572.674
-198.86
-2240.02
-619.17
-2390.02
-672.051
-4280.65
-1445.53
-4482.78
-1556.65
-1004.37
-269.412
-1084.99
-294.596
-300.277
-100.751
-39.0661
-24.013
-209.371
-78.0184
-35.5645
-21.373
-339.76
-109.261
-40.6942
-28.1057
-399.669
-118.85
-69.5304
-31.9656
0.025545
0.0236811
0.0155382
-0.0801344
-0.00234546
0.00261432
0.539036
0.231549
0.0915043
-0.21018
0.0161036
0.0168586
2.18687
0.78819
0.22325
-0.974403
0.0232689
0.0274452
-27.708
-1.13876
-0.911803
10.8024
8.34291
2.40859
-0.309084
2.43773
0.853381
0.65114
1.24706
0.421152
-2.16696
-0.120036
0.00958005
-214.16
-46.195
-8.75626
-23.8881
-0.713867
0.468507
-13.1019
-0.438147
0.246831
-5.31171
-0.113169
0.125845
-2.8502
-0.213293
0.00731316
1.16481
0.10222
0.00695767
0.000504758
4.4557
0.475593
0.0543302
0.0063059
1.46333
0.0657343
0.0279247
0.00553629
8.28225
0.748792
0.13253
0.0192618
-5.6418
-0.542221
-0.00268173
0.00901482
0.339714
-0.0131139
0.0299927
0.00635518
-7.43834
-0.586558
-0.0499827
-0.00526482
-12.163
-1.02403
-0.0507837
-0.000643845
-18.54
-1.80543
-0.180287
-0.0176202
-16.401
-1.68842
-0.191972
-0.017952
-12.7073
-1.18778
-0.099747
-0.00260561
-12.8459
-1.29726
-0.164393
-0.0186587
-22.9788
-2.19138
-0.171296
-0.011177
-19.2343
-2.00115
-0.2126
-0.0180972
-25.5614
-2.44787
-0.179981
-0.0103179
-20.7469
-2.18531
-0.232179
-0.021108
0.374988
0.0282146
0.00357051
0.000410196
0.325675
0.0281084
0.00119296
1.34643e-05
1.18411
0.0645679
0.0141792
0.002705
1.1426
0.0906268
0.00521189
0.000277264
-3.9814
-0.465778
-0.0459145
-0.00356666
-2.29245
-0.280886
-0.0346884
-0.0031816
-4.15692
-0.427269
-0.0367713
-0.000353775
-1.30469
-0.170416
-0.0351214
-0.00500818
-9.86772
-1.00954
-0.131018
-0.0128792
0.0752913
0.00854598
0.000479396
0.000107824
0.12348
0.0180683
0.00185733
0.000168432
0.0230711
-0.00363309
-0.00422059
-0.000391547
0.333469
0.0456447
0.00372855
0.000281554
-0.879255
-0.105478
-0.0202082
-0.00226466
0.336179
0.0456672
0.00232102
-1.83534e-05
-2.60799
-0.270087
-0.0428396
-0.00479678
-0.201719
-0.00257386
-0.0042148
-0.000851303
-5.23427
-0.520831
-0.0776633
-0.00832981
-1.04891
-0.0776167
-0.0136973
-0.00179286
-9.32686
-0.939038
-0.120524
-0.0122274
-2.86245
-0.276946
-0.0334305
-0.00378711
-7.74245
-0.762803
-0.103166
-0.0111511
-2.2392
-0.201719
-0.0254257
-0.00289757
-10.5018
-1.07441
-0.13484
-0.0142738
-3.36225
-0.331724
-0.0382671
-0.00452354
-11.2948
-1.16564
-0.145724
-0.0163938
-3.84301
-0.376617
-0.0427445
-0.00513644
0.000190284
2.59183e-05
2.98425e-06
3.22146e-07
3.64695e-08
0.000558146
5.67009e-05
5.75303e-06
5.80044e-07
6.28798e-08
0.000409679
4.57183e-05
5.35332e-06
6.07344e-07
7.20144e-08
0.00097268
9.32196e-05
9.88743e-06
1.04654e-06
1.17959e-07
0.000256329
3.1582e-05
4.55031e-06
5.85242e-07
7.50879e-08
0.00068298
8.45294e-05
1.01565e-05
1.15135e-06
1.35555e-07
-9.99161e-05
8.76691e-06
2.31361e-06
3.39923e-07
4.58396e-08
-0.000248026
-2.28019e-05
-1.51259e-06
-6.05145e-08
2.98214e-09
-0.00049764
-8.65123e-06
1.88513e-06
3.87962e-07
5.84115e-08
-0.000490927
-2.58986e-05
-9.18799e-07
2.90378e-08
1.31036e-08
0.000211962
4.56677e-05
6.61305e-06
8.11584e-07
9.97455e-08
-0.000291439
-7.63764e-06
6.23385e-07
1.57599e-07
2.45281e-08
-0.000785195
-5.29679e-05
-2.95288e-06
-9.97402e-08
6.71423e-09
-0.000521715
-3.53002e-05
-2.0673e-06
-8.81015e-08
8.89859e-10
-0.0009701
-8.10139e-05
-6.20767e-06
-4.34132e-07
-2.84532e-08
-0.00067494
-5.09121e-05
-3.73418e-06
-2.60391e-07
-1.77351e-08
9.60067e-05
1.69703e-05
2.19452e-06
2.49399e-07
2.8889e-08
0.000141988
2.04697e-05
2.44058e-06
2.64098e-07
2.94176e-08
0.000332466
4.55304e-05
5.51229e-06
6.15109e-07
7.10378e-08
0.000429168
5.58676e-05
6.35944e-06
6.74478e-07
7.46359e-08
-5.04552e-05
2.04177e-05
3.87816e-06
5.16914e-07
6.6118e-08
0.000537091
6.94952e-05
7.87276e-06
8.38532e-07
9.36339e-08
0.000359576
5.60183e-05
6.9642e-06
7.88236e-07
9.19682e-08
0.000501598
5.74251e-05
6.19991e-06
6.47016e-07
7.15753e-08
0.000149629
2.82499e-05
3.643e-06
4.18215e-07
4.89604e-08
-129.487
-485.805
-266.369
-1356.97
-455.842
-2230.62
-480.555
-2979.48
-768.769
-3336.23
-2197.49
-5169.12
-1558.31
-3815.35
-2195.98
-5546.06
-2410.41
-5514.68
-5413.63
-4131.97
-3753.41
-3508.51
-3304.14
-1824.71
-1632.74
-1389.08
-1317.45
-1186.52
-16838.3
-12789.6
-11620.1
-10862.2
-10228.4
-5225.34
-4547.07
-4139.2
-3805.46
-3516.32
-28943.2
-21937.2
-19927.7
-18628.4
-17533.6
-9011.35
-7786.42
-7023.82
-6440.01
-5967.34
-40366.8
-30469.3
-27668
-25862.1
-24342.9
-12289.8
-10534.8
-9474.07
-8669.69
-8026.46
-53197
-40019.6
-36357.6
-34025.6
-32092.8
-15888.3
-13622.4
-12291
-11302.5
-10524.1
-68728.1
-52303.3
-47516.1
-44450.9
-41961
-20798
-17747.1
-16046.2
-14796.8
-13758.2
-62080.9
-47018.9
-42700.1
-39949.2
-37720.6
-18196.1
-15524.8
-14043.6
-12974.7
-12113.2
-72017.9
-54977
-49945.2
-46710.4
-44063.7
-22110
-18861.5
-17080.5
-15777.5
-14675.8
-75141.4
-57208.5
-51984.1
-48622.5
-45861.6
-22997.9
-19690
-17843.6
-16324.8
-15173.6
-1539.39
-13711.6
-11367.2
-2624.34
1633.99
3037.59
5586.51
10321.3
374.79
9048.22
-8199.48
-3707.27
-1737.12
2897.59
9584.9
18115
13930.2
21276.4
5796.17
8787.78
-2114.08
-820.928
-4.02929
-0.607248
-0.262548
-0.161086
-0.757354
-1223.48
-448.495
-295.168
-149.844
-33.4805
-20.6013
-62.802
-11.0656
-6.37119
-4.97489
-2.36457
-1808.84
-282.451
-9.52564
-22.5681
-84.8656
-26.3261
-18.942
-6.75909
-1.21682
-1.26898
-5.34544
-5.90465
-1935.95
-598.587
-570.061
-202.278
-87.2909
-212.568
-11.3101
-2.62371
-17.8012
-867.627
-399.826
-161.491
-54.3558
-15.2689
-329.07
-138.627
-54.7875
-17.9562
-4.62885
-2.3831
-1.20905
-0.520064
-0.189588
-0.0457446
-0.37569
-0.197899
-0.0879839
-0.0331044
-0.00811569
-0.163433
-0.0862791
-0.0383734
-0.0144621
-0.00355053
-0.103904
-0.0567561
-0.0260519
-0.0100982
-0.00252021
-0.468264
-0.245709
-0.108698
-0.0407448
-0.00996418
-432.895
-164.87
-61.5831
-20.4783
-6.54515
-113.064
-34.546
-10.1858
-3.23621
-0.843897
-110.609
-41.6045
-15.2497
-4.90347
-1.35099
-39.7563
-12.3118
-3.69456
-1.03926
-0.241573
-8.62057
-2.68711
-0.790652
-0.207734
-0.0430453
-9.96282
-4.25951
-1.5815
-0.513418
-0.118877
-26.0404
-10.188
-3.67492
-1.17684
-0.28171
-4.42788
-1.65905
-0.57237
-0.17665
-0.0398754
-3.35195
-1.52295
-0.593799
-0.200473
-0.0466749
-2.4929
-1.08663
-0.408633
-0.134102
-0.0306345
-1.28203
-0.59471
-0.235649
-0.080701
-0.0187952
-706.903
-286.871
-113.057
-36.8852
-11.2754
-121.168
-51.5809
-20.0158
-6.52938
-1.73613
-5.04613
-2.33981
-0.932031
-0.318369
-0.0755779
-12.1468
-5.74592
-2.3318
-0.806536
-0.193462
-43.0328
-19.8081
-7.87445
-2.65965
-0.650444
-14.3939
-6.90304
-2.83474
-0.989078
-0.237026
-10.6437
-5.20896
-2.17425
-0.768805
-0.183945
-3.90189
-1.93568
-0.816111
-0.292463
-0.0700984
-0.703532
-0.346377
-0.144589
-0.0515601
-0.0122864
-0.759866
-0.38762
-0.167259
-0.0613355
-0.0148432
-2.9719
-1.42324
-0.581478
-0.203264
-0.0482501
-3.36145
-1.6481
-0.68792
-0.244597
-0.0585519
-789.01
-346.261
-139.984
-44.9364
-12.7812
-250.347
-107.376
-42.5257
-13.9413
-3.74387
-251.983
-115.927
-44.7872
-14.3576
-3.62829
-98.6918
-44.3765
-17.7786
-5.95653
-1.48768
-45.9289
-21.721
-8.80403
-3.00844
-0.724945
-102.866
-46.2515
-18.4651
-6.15475
-1.51535
-6.35942
-3.09741
-1.28616
-0.453706
-0.108319
-1.58929
-0.818795
-0.356353
-0.131552
-0.0318943
-10.0727
-4.93029
-2.05647
-0.728847
-0.174267
-13389.1
-28312.6
-27050.8
-80423
-23440.7
-92441.2
-13514
-33014.3
-24149.1
-18557.5
-46411.5
-37938.3
-20434.3
-15647.8
-45254
-32059.7
-10939.5
-9106.67
-22970.6
-18079.4
-24341.4
-19786.7
-70661.4
-58374.8
-39124.4
-24617.7
-44026.1
-24439.2
-4994.24
-14870.1
-97266.4
-124800
-59309.9
-74519.5
-111123
-141570
-53043.6
-63458.8
-81704.2
-111429
-70116.2
-93588.7
-54202.2
-76929.3
-6920.66
-2162.43
-12797.8
-4726.36
-22496.1
-11152.3
-48457.3
-19042
-12406.3
-7278.9
-26494.8
-9290.79
-53841.8
-18827.2
-70720.9
-26373.8
-23059.5
-13024.9
-33186.8
-17730.3
-15053.5
-9900.9
-22914.5
-13443.3
-35900.6
-21025.9
-25900.3
-15715.3
-42282.7
-21511.6
-45952.8
-22511.3
-31303.8
-16282.1
-34547.6
-16880.4
-44829
-25318.5
-48810
-26876.3
-46679.5
-26296.8
-25806.1
-45469.7
-38597.2
-26803.8
-20874.7
-44561
-54795.8
-27399.7
-29881.9
-46452.5
-59746.6
-28598.6
-32469.2
-47937.9
-3458.96
-2998.16
-1371.55
-5534.52
-14440.6
-14159.6
-10894.4
-22356.8
-11453.7
-12307.2
-18056.7
-34495.7
-12925.9
-6320.17
-18374.3
-28299.8
-28080.3
-3429.32
-6809.18
-12374.6
-26557.8
-41791.2
-9064.03
-12869.7
-16038.6
-21849.2
-56275.7
-3327.57
-1630.04
-2809.42
-1777.09
-10374.4
-5184.93
-11646.3
-6355.76
-6836.7
-3313.05
-17031.7
-8797.12
-3770.73
-2084.23
-5977.88
-3282.41
-10329.8
-5283.69
-15791.6
-8454.4
-27641.9
-14165.7
-5298.98
-2395.11
-8325.57
-3354.3
-12325.5
-5345.06
-19181.5
-8354.24
-38854.7
-15075.5
-8582.38
-2483.64
-8891.85
-4010.28
-5679.8
-3008.89
-6310.08
-3594.55
-13883.2
-6681.28
-13980.5
-4104.63
-8903.72
-5368.6
-9125.91
-5754.83
-6677.25
-4396.26
-6962.46
-4787.75
-13620.2
-8686.83
-13857
-9111.69
-26308.3
-10892
-47354.1
-14328.3
-24116.5
-6974.09
-44295.6
-10438.5
-26147
-12653
-47965.4
-15053.3
-25180.4
-13403
-45909.3
-16961.5
-886.988
-577.354
-938.933
-736.112
-2566.58
-1403.18
-3081.03
-1914.57
-1378.07
-959.69
-4118.28
-2252.08
-1023.72
-362.298
-1852.33
-643.704
-2603.65
-995.243
-4225.2
-1821.14
-7160.83
-2896.83
-1447.52
-347.562
-1651.75
-320.11
-2789.96
-514.227
-4104.12
-686.985
-6637.88
-732.254
-4878.16
-5647.66
-5342.24
-8195.6
-10905.3
-10060
-15651.3
-17353.7
-612.036
-196.203
-309.869
-69.4747
-2040.24
-722.746
-1661.57
-233.206
-1078.78
-1275.12
-4565.16
-3642.77
-944.017
-858.877
-9541.91
-11534.5
-22133.6
-27227.5
41.3235
2424.14
-4517.36
-5020.8
-2657.04
-2138.03
-220.609
-83.1766
-233.222
-86.9269
-553.593
-72.1719
-298.032
-0.862111
-1953.72
-295.338
-2149.12
-315.271
-3093.21
-481.941
-4196.76
-591.002
-3555.45
-3495.44
-5711.48
-4430.85
-7396.27
-6573.42
-12344.7
-8498.19
-2748.52
-2128.73
-1910.31
-1739.84
-7370.16
-5097.6
-8758.72
-5382.19
-16240.9
-9914.13
-18516.4
-10344.6
-3290.3
-2407.59
-3844.8
-2547.27
-33.3848
-57.6707
-762.323
-142.176
-38.9289
-48.3969
-632.495
-120.302
-87.4887
-84.3098
-861.616
-162.616
-161.689
-96.2534
-900.688
-169.448
-157.057
-99.3061
-57.3687
-30.9689
-406.083
-248.104
-57.9241
-27.4194
-1372.45
-892.004
-187.587
-125.148
-1622.21
-2605.34
-1142.29
39.539
-15.8809
-599.14
-825.672
-1117.89
185.856
6.36129
-6313.09
-3406.71
-1657.46
-617.351
-119.797
-51.1803
-14.9967
-14.6665
-5.08475
-135.782
-45.3832
-17.8258
-7.74174
-476.052
-192.585
-71.2758
-34.0124
-1512.04
-897.503
-768.374
-453.984
-707.921
-315.254
-60.1782
-33.6723
-29.2372
-19.3089
-2891.95
-1048.13
-1468.81
-447.548
-651.814
-201.304
-221.42
-66.9267
-33.5575
-12.8711
-1444.39
-552.853
-1907.17
-616.47
-2982.79
-1241.76
-3708.44
-1366.87
-839.479
-267.811
-627.489
-242.131
-2183.28
-608.05
-2373.86
-667.92
-4159.31
-1416.35
-4450.8
-1547.22
-985.322
-266.61
-1079.04
-293.306
-301.049
-102.871
-41.5819
-25.2083
-238.041
-93.5904
-42.635
-25.2362
-336.727
-109.099
-41.5742
-28.448
-398.368
-118.604
-69.6579
-32.0134
-3.81937
-1.64814
-2.08563
-1.16725
-17.653
-8.74064
-4.30734
-2.21049
-72.3791
-28.2746
-11.7582
-2.46148
-467.506
-143.695
-255.047
-66.1821
-125.322
-37.7304
-19.5072
-6.02419
-9.02935
-2.02417
-428.343
-79.9102
-146.572
-23.7729
-67.0201
-12.8727
-21.1388
-3.39004
-6.13559
-0.0540956
-0.873107
-0.100911
-0.014463
-0.00157683
1.81247
0.205078
0.0294852
0.00433794
-2.91778
-0.387743
-0.0123783
0.0023894
3.36445
0.219053
0.0887845
0.0163182
-10.3742
-1.06967
-0.0477168
0.00644669
-4.92805
-0.619004
-0.0314475
0.000481002
-9.73231
-0.871162
-0.0833603
-0.00884781
-13.0154
-1.13422
-0.0626303
-0.00179728
-21.4047
-2.16454
-0.226135
-0.0234939
-17.44
-1.84452
-0.215341
-0.0209824
-16.2875
-1.62302
-0.148617
-0.00744563
-14.4961
-1.52026
-0.195907
-0.0226735
-24.7252
-2.41751
-0.196796
-0.0138597
-19.8302
-2.0947
-0.226393
-0.0198819
-26.1639
-2.52806
-0.188764
-0.011217
-20.9415
-2.2165
-0.236786
-0.0217178
-1.00442
-0.11777
-0.01191
-0.00109299
-0.505769
-0.0620418
-0.0111486
-0.00139514
-2.27243
-0.297299
-0.0208887
-0.000388792
-1.01157
-0.144307
-0.025597
-0.00316344
-9.2072
-0.981733
-0.0948279
-0.00807437
-6.79467
-0.711829
-0.0831982
-0.00816203
-9.4654
-0.929138
-0.0867577
-0.00491403
-6.07996
-0.588409
-0.0799846
-0.0090005
-13.3057
-1.37002
-0.172448
-0.0166186
-0.326587
-0.0374982
-0.00538919
-0.000570653
0.00792203
0.00156628
-0.000292728
-0.000108993
-1.27433
-0.146938
-0.0230362
-0.00255345
-0.174935
-0.0183507
-0.00422564
-0.000656211
-3.73119
-0.37348
-0.0510754
-0.00564458
-1.18226
-0.109742
-0.0132809
-0.00166226
-6.30027
-0.613204
-0.0796223
-0.00850637
-2.47895
-0.229035
-0.0252711
-0.00292578
-7.77882
-0.784722
-0.109399
-0.0119698
-2.84226
-0.270207
-0.0329317
-0.00377426
-9.89722
-1.02842
-0.135101
-0.0142545
-3.18069
-0.324784
-0.0398201
-0.0045964
-9.13866
-0.939957
-0.127551
-0.0142792
-3.09109
-0.310084
-0.0377822
-0.00430342
-10.7244
-1.11531
-0.142272
-0.0153859
-3.46219
-0.34977
-0.0410394
-0.00491092
-11.3542
-1.17741
-0.147961
-0.0167475
-3.86396
-0.381016
-0.0434933
-0.00524864
2.03757e-06
5.37292e-06
7.77565e-07
9.27597e-08
1.13384e-08
0.000322365
2.84381e-05
2.58004e-06
2.41526e-07
2.49746e-08
2.22777e-05
6.18762e-07
4.41029e-07
9.59352e-08
1.579e-08
0.00047046
3.22844e-05
3.07468e-06
3.2169e-07
3.67513e-08
-0.000207209
-2.35597e-05
-1.43947e-06
-3.56069e-08
6.99078e-09
-4.04827e-06
5.0965e-06
1.39834e-06
2.23299e-07
3.16362e-08
-0.000434879
-2.84429e-05
-1.75371e-06
-9.23389e-08
-2.93621e-09
-0.000390761
-3.97343e-05
-3.41477e-06
-2.65839e-07
-2.03811e-08
-0.00102083
-6.32945e-05
-3.86036e-06
-2.05004e-07
-6.77658e-09
-0.000709383
-4.82773e-05
-3.21703e-06
-2.0427e-07
-1.23539e-08
-0.000350695
-1.68871e-05
-1.38567e-07
1.04251e-07
2.10421e-08
-0.000527712
-3.13858e-05
-1.81778e-06
-9.09954e-08
-2.48618e-09
-0.00108117
-8.4834e-05
-6.29689e-06
-4.42898e-07
-3.0854e-08
-0.000666834
-5.1394e-05
-3.78645e-06
-2.66654e-07
-1.88988e-08
-0.00108335
-9.39442e-05
-7.60713e-06
-5.80252e-07
-4.45919e-08
-0.000722088
-5.62091e-05
-4.30683e-06
-3.2022e-07
-2.44454e-08
-5.6358e-05
4.5673e-07
4.50143e-07
7.04481e-08
9.3708e-09
2.0213e-05
7.13804e-06
1.02453e-06
1.17999e-07
1.344e-08
-7.68428e-06
6.9793e-06
1.36096e-06
1.84651e-07
2.36896e-08
0.000134362
2.30361e-05
2.82251e-06
3.06058e-07
3.39525e-08
-0.000493835
-2.74821e-05
-1.16495e-06
9.08312e-10
1.00622e-08
0.000141879
2.58874e-05
3.16619e-06
3.46062e-07
3.89805e-08
-9.97224e-05
6.12153e-06
1.59379e-06
2.2533e-07
2.94513e-08
0.00021471
2.53487e-05
2.70623e-06
2.78669e-07
3.03182e-08
-9.81125e-05
1.76868e-06
7.8875e-07
1.17579e-07
1.54858e-08
19.9155
-388.092
64.2448
-1137.69
-86.2646
-1987.96
-181.754
-2774.98
-594.523
-3191.7
-2178.06
-5149.48
-1488.98
-3759.07
-2191.73
-5541.14
-2409.89
-5513.99
-5409.04
-4130.22
-3751.73
-3507.04
-3302.85
-1808.84
-1630.63
-1387.05
-1316.31
-1185.77
-16834.9
-12789.6
-11619.5
-10861.9
-10228.3
-5192.89
-4544.87
-4139.08
-3806.9
-3518.57
-28946.3
-21939.9
-19929.3
-18630.3
-17535.9
-8972.68
-7783.17
-7023.29
-6440.8
-5968.93
-40368.7
-30469.8
-27667.7
-25862.3
-24343.6
-12255.6
-10531.8
-9473.86
-8670.05
-8026.66
-53201.1
-40021.2
-36358.5
-34027.1
-32094.6
-15864.3
-13620.1
-12290.9
-11302.9
-10524.5
-68729.2
-52303.3
-47516.1
-44451.1
-41961.2
-20794.5
-17746.9
-16046.5
-14797
-13757.8
-62082.6
-47019.3
-42700.2
-39949.7
-37721.5
-18185.3
-15524.1
-14044
-12974.8
-12113.5
-72017.7
-54976.6
-49944.8
-46710.2
-44063.4
-22109.1
-18861.2
-17080.2
-15777.3
-14675.7
-75142.8
-57209.2
-51984.7
-48623.2
-45862.2
-22998
-19690.3
-17843.8
-16324.8
-15173.7
-1538.79
-13636.3
-11091.1
-2696.45
-1936.4
-1154.16
-4143.4
-3206.73
-10286.7
-10984.1
-5401.83
-4320.78
-7.4973e-05
-0.000347606
-0.00173429
-0.00848696
-0.0414877
-0.200893
-0.000113303
-0.000749528
-0.00412447
-0.0195051
-0.0817247
-0.305693
-2.6568e-05
-7.62495e-06
-0.000142589
-5.34366e-05
-0.000798961
-0.000357151
-0.00426085
-0.00215949
-0.0206896
-0.00951864
-0.108341
-0.040854
-0.890799
-3.49371
-12.3756
-60.1093
-171.102
-277.406
-1.01095
-2.93888
-7.56664
-18.2129
-41.5024
-62.6446
-5.2668e-05
-3.18252e-05
-1.62501e-05
-6.96219e-06
-1.85796e-06
-0.000240778
-0.000143011
-7.16626e-05
-3.01574e-05
-7.95037e-06
-0.00118347
-0.000690573
-0.000339566
-0.000140369
-3.65615e-05
-0.00568812
-0.00325142
-0.00156495
-0.000634078
-0.000162946
-0.0271961
-0.0151734
-0.00712694
-0.00282272
-0.000714508
-0.128189
-0.0695617
-0.0318035
-0.0122847
-0.00305957
-7.88438e-05
-4.70903e-05
-2.37393e-05
-1.00475e-05
-2.65914e-06
-0.00051395
-0.000301563
-0.000149141
-6.19837e-05
-1.62028e-05
-0.00278757
-0.00160823
-0.000781333
-0.000319329
-8.25341e-05
-0.0129736
-0.0073505
-0.00350518
-0.00140779
-0.00035962
-0.0533927
-0.0296659
-0.0138726
-0.00547132
-0.00138089
-0.195679
-0.106442
-0.0487623
-0.0188703
-0.00470422
-1.88317e-05
-1.15073e-05
-5.94955e-06
-2.5799e-06
-6.94255e-07
-5.43242e-06
-3.34081e-06
-1.73966e-06
-7.59577e-07
-2.05428e-07
-9.95127e-05
-5.96553e-05
-3.02004e-05
-1.2835e-05
-3.40674e-06
-3.75278e-05
-2.2667e-05
-1.15695e-05
-4.95569e-06
-1.32251e-06
-0.000548899
-0.000322899
-0.000160176
-6.67734e-05
-1.74931e-05
-0.000247372
-0.000146877
-7.35681e-05
-3.09489e-05
-8.15851e-06
-0.00287731
-0.00165862
-0.000805251
-0.000328929
-8.49946e-05
-0.00147509
-0.000860898
-0.000423136
-0.000174813
-4.55158e-05
-0.013705
-0.00772726
-0.00366608
-0.00146534
-0.000373126
-0.00641783
-0.00368482
-0.00177885
-0.000722407
-0.000185888
-0.0700751
-0.0384842
-0.0177796
-0.00693176
-0.00173601
-0.0270863
-0.0152267
-0.00718589
-0.00285676
-0.000724505
-0.550653
-0.289914
-0.128877
-0.0484984
-0.011888
-2.08152
-1.06178
-0.459008
-0.168264
-0.0406706
-7.06305
-3.4891
-1.46859
-0.524676
-0.125573
-32.1721
-15.3113
-6.26673
-2.17333
-0.520971
-84.3281
-38.6201
-15.448
-5.21912
-1.27825
-132.546
-60.235
-23.924
-8.02508
-1.97636
-0.632043
-0.335974
-0.150641
-0.0571566
-0.0140742
-1.7871
-0.926418
-0.406197
-0.150988
-0.0367416
-4.44927
-2.24399
-0.961319
-0.349712
-0.0842076
-10.2676
-5.02515
-2.10152
-0.746939
-0.178517
-22.0165
-10.3877
-4.23651
-1.46891
-0.351802
-32.3114
-15.0466
-6.07839
-2.08779
-0.500729
-7.47553e-05
-0.000346174
-0.00172678
-0.00844749
-0.0412782
-0.199798
-0.000112897
-0.000746413
-0.00410705
-0.0194222
-0.0813661
-0.304327
-2.64858e-05
-7.60779e-06
-0.000141947
-5.34191e-05
-0.000795026
-0.000359203
-0.00423431
-0.00218833
-0.0205532
-0.00995944
-0.107466
-0.0423558
-0.885693
-3.47249
-12.2959
-59.6857
-170.087
-276.891
-1.00635
-2.92534
-7.53099
-18.123
-41.3194
-62.5529
-5.2522e-05
-3.17451e-05
-1.62165e-05
-6.95188e-06
-1.85602e-06
-0.000239836
-0.000142509
-7.14619e-05
-3.01015e-05
-7.94198e-06
-0.00117867
-0.000688132
-0.000338667
-0.000140161
-3.65432e-05
-0.00566385
-0.00323984
-0.00156117
-0.000633493
-0.000163
-0.0270734
-0.0151192
-0.00711221
-0.00282232
-0.00071557
-0.127578
-0.0693134
-0.0317507
-0.0122941
-0.00306826
-7.85733e-05
-4.69437e-05
-2.36787e-05
-1.00295e-05
-2.65611e-06
-0.000511908
-0.000300484
-0.000148713
-6.18659e-05
-1.61855e-05
-0.00277637
-0.00160248
-0.000779163
-0.000318792
-8.24728e-05
-0.0129214
-0.00732459
-0.00349597
-0.00140583
-0.000359505
-0.0531716
-0.0295593
-0.0138366
-0.00546471
-0.00138089
-0.194855
-0.106056
-0.0486394
-0.0188518
-0.00470602
-1.87765e-05
-1.14772e-05
-5.93695e-06
-2.5759e-06
-6.93362e-07
-5.42138e-06
-3.33537e-06
-1.73803e-06
-7.59377e-07
-2.05354e-07
-9.90957e-05
-5.94379e-05
-3.01165e-05
-1.28135e-05
-3.40416e-06
-3.75324e-05
-2.26871e-05
-1.15929e-05
-4.97243e-06
-1.32839e-06
-0.000546457
-0.000321718
-0.000159782
-6.67085e-05
-1.74972e-05
-0.000248966
-0.000147995
-7.42524e-05
-3.12984e-05
-8.26345e-06
-0.00286171
-0.00165171
-0.000803354
-0.000328868
-8.51284e-05
-0.00149646
-0.000875014
-0.000431207
-0.000178682
-4.66297e-05
-0.0136344
-0.00770311
-0.00366477
-0.00146954
-0.000375191
-0.00672677
-0.00387348
-0.00187732
-0.000765708
-0.000197654
-0.0696353
-0.0383471
-0.0177821
-0.00696227
-0.00174947
-0.0281874
-0.0159288
-0.00756623
-0.00302852
-0.000771931
-0.547914
-0.288878
-0.128708
-0.0485753
-0.0119364
-2.0705
-1.05778
-0.458447
-0.168617
-0.0408748
-7.02263
-3.47455
-1.46649
-0.525859
-0.126278
-31.9615
-15.2332
-6.25254
-2.17711
-0.523889
-83.758
-38.3599
-15.3643
-5.20483
-1.27841
-132.245
-60.0895
-23.8735
-8.0144
-1.9754
-0.629322
-0.334735
-0.150265
-0.05711
-0.0140841
-1.77927
-0.922954
-0.405194
-0.150892
-0.0367804
-4.42923
-2.23537
-0.958955
-0.349562
-0.0843332
-10.218
-5.00399
-2.09573
-0.746547
-0.178817
-21.9096
-10.3373
-4.21941
-1.46544
-0.351621
-32.2564
-15.0195
-6.06866
-2.08551
-0.500456
-2108.31
-819.066
-3.99942
-0.603051
-0.282448
-0.169321
-0.749241
-1218.43
-567.125
-305.553
-186.281
-20.9149
-71.3525
-7.51568
-8.70824
-3.34745
-1775.42
-279.952
-9.71557
-22.5102
-84.3224
-26.1473
-18.7842
-6.73241
-1.43045
-1.34323
-5.62703
-5.94028
-1915.26
-593.763
-562
-200.03
-86.441
-210.109
-11.2367
-2.61779
-17.6976
-864.217
-398.284
-160.973
-54.2661
-15.2766
-328.06
-138.181
-54.6449
-17.932
-4.6285
-2.37098
-1.20731
-0.521996
-0.19144
-0.0464176
-0.373921
-0.197638
-0.0882808
-0.0333956
-0.00822222
-0.177301
-0.0946189
-0.0426193
-0.0162687
-0.00403018
-0.109678
-0.0602659
-0.0278687
-0.0108875
-0.00273303
-0.46561
-0.246039
-0.109795
-0.041534
-0.0102259
-470.221
-190.951
-75.0212
-25.5668
-7.88096
-213.423
-86.8
-34.1568
-11.3992
-2.82268
-126.179
-52.15
-20.5212
-6.8229
-1.81369
-68.0071
-26.8006
-10.393
-3.2983
-0.729782
-10.7453
-4.93787
-1.96948
-0.672166
-0.157603
-32.7975
-14.1785
-5.56757
-1.86251
-0.437988
-4.16132
-2.00154
-0.825428
-0.291146
-0.0691355
-4.7943
-2.29509
-0.942567
-0.331208
-0.0784228
-1.92062
-0.945327
-0.396611
-0.14218
-0.0339389
-702.647
-290.523
-116.818
-38.9184
-11.9755
-122.787
-53.5906
-21.3276
-7.11927
-1.90039
-5.2798
-2.52425
-1.03802
-0.364164
-0.0875417
-12.2712
-5.89963
-2.43906
-0.858935
-0.208333
-43.381
-20.3208
-8.23863
-2.83522
-0.700463
-14.4034
-6.9755
-2.89841
-1.02354
-0.247366
-10.5868
-5.20523
-2.18687
-0.779154
-0.187567
-3.91179
-1.95787
-0.834493
-0.302447
-0.0730875
-0.845335
-0.427302
-0.183466
-0.0671002
-0.0162386
-0.811396
-0.418754
-0.183198
-0.0681126
-0.0166429
-3.19699
-1.57117
-0.65979
-0.236328
-0.0568663
-3.41748
-1.69857
-0.720299
-0.260126
-0.0629195
-778.143
-341.944
-138.732
-44.8524
-12.8592
-247.884
-106.354
-42.2303
-13.9107
-3.75149
-251.336
-116.916
-45.8731
-14.9618
-3.82544
-97.8938
-44.2447
-17.8604
-6.03927
-1.51927
-45.6878
-21.7488
-8.8931
-3.06929
-0.745194
-102.2
-46.3019
-18.6743
-6.29778
-1.56394
-6.35828
-3.12409
-1.3115
-0.468036
-0.112691
-1.59362
-0.826742
-0.362941
-0.135215
-0.033006
-10.0761
-4.97367
-2.09618
-0.751016
-0.18099
-0.106055
-0.450195
-1.31053
-3.26319
-7.04266
-13.559
-5318.65
-13185.8
-10662.2
-4405.31
-15490.3
-13451.6
-12333.1
-11145.5
-5283.09
-3635.29
-12545
-6876.75
-19024.8
-17849.3
-1354.89
-3826.03
-9602.57
-7441
-3060.23
-11335.7
-9536.42
-8668.13
-7684.83
-3924.29
-1786.47
-9800.91
-3085.33
-12751.8
-10885.6
1604.14
-2070.01
-5292.36
-3777.49
-1537.17
-6373.98
-4379.05
-4537.55
-3843.25
-2281.63
-1741.32
-5412.53
-3455.16
-7209.25
-4208.87
948.013
-905.248
-2411.85
-1527.09
-614.321
-2807.45
-1526.97
-1882.66
-1518.92
-1163.35
-1242.12
-2815.42
-2448.16
-3589.78
-1434.85
291.763
-374.855
-1031.59
-573.173
-230.19
-985.761
-387.949
-713.818
-551.156
-540.942
-957.762
-1218.12
-1539.76
-1459.73
-319.493
-223.687
-144.868
-382.064
-195.505
-78.6178
-347.216
-197.243
-237.315
-199.436
-207.037
-548.726
-442.454
-874.236
-814.514
-412.475
-554.043
-1188.89
-2734.71
-5968.21
-2498.59
-3594.83
-4504.09
-7280.61
-7548.93
-454.88
-124.047
-1586.18
-409.177
-931.54
-2864.61
-681.614
-917.068
-2110.86
-4369.98
-1825.13
-2727.39
-3336.1
-5335.48
-5214.18
-345.737
-46.8431
-1260.19
-211.331
-427.27
-2078.51
-119.755
-521.834
-1199.62
-2313.22
-961.936
-1567.07
-1726.94
-2865.3
-2733.21
-184.542
-22.9419
-637.746
-107.558
-260.883
-860.111
18.0307
-214.684
-515.119
-922.514
-382.393
-670.61
-657.061
-1190.41
-1086.2
-71.854
-2.99459
-264.391
-31.6175
-95.8188
-312.392
41.6749
-77.0791
-192.245
-331.441
-137.457
-213.571
-185.686
-437.596
-381.526
-22.2839
-3.91719
-84.1414
-13.9438
-16.0202
-77.7777
18.1491
-22.9839
-54.0165
-104.12
-43.1937
-57.4833
-69.5332
-135.192
-131.838
-6.4604
-3.03266
-20.8934
-6.00333
-7.96036
-39.4776
-8.11845
13815.2
20190.3
32084.2
57035.4
48941.2
97430.4
34105.1
97345.3
27335.4
65783.2
40738.2
71281.5
34606.6
55775.9
13685.6
18527.3
32246.4
31255.9
47475.1
41998.4
27016.1
25218.3
46846.8
35156.7
13302
11578.4
19241.3
15202.3
32610.9
28602.1
66022.2
54541.3
41992.8
37004.2
48751
40262.2
17639.9
17834.4
95744.4
124190
60464.8
74691.4
110082
141142
53986
63646.2
80494.7
110791
71473.2
93730.6
52370.6
76103.7
9062.24
3188.64
11286.9
4354.06
27845.9
12455.8
46242.8
18416.2
23545.5
10150.9
29482.3
10254.3
54121.4
18995
70583.6
26344.8
32587.6
16581.1
36429.1
19235.3
22702.4
13188.2
25552.2
14743
38621.4
22347.6
34078.3
18701.4
43348.1
22057.4
46179.5
22635.8
32193.9
16747.4
34751.9
16986.3
45679.1
25811.7
48979.5
26989.8
48241.4
26728.7
26691.4
45748
43473.5
28122.7
22830.3
45171.8
55200.7
27516.4
30217.5
46564.1
59795.9
28613.3
32545.3
47963.1
10325.2
9940.59
3695.35
7677.31
30597.7
29160.1
13929.6
25512.4
32951
32138.6
22059.9
38713.9
8724.4
-334.451
19607.3
36459.2
30096.2
-1434.53
2642.67
14930.1
35831.8
44027.7
6518.21
12553.3
18347.3
25360.4
57480.4
6305.46
2853.67
4019.33
2287.92
18291
8744.4
14325.7
7652.57
19670.9
9844.42
20278.4
10479.3
1564.81
1228.38
5534.23
3663.78
14323.1
8210.2
22661
12328.9
29463.8
15080.5
4083.71