/*--------------------------------*- C++ -*----------------------------------*\
| =========                 |                                                 |
| \\      /  F ield         | OpenFOAM: The Open Source CFD Toolbox           |
|  \\    /   O peration     | Version:  2306                                  |
|   \\  /    A nd           | Website:  www.openfoam.com                      |
|    \\/     M anipulation  |                                                 |
\*---------------------------------------------------------------------------*/
FoamFile
{
    version     2.0;
    format      ascii;
    arch        "LSB;label=32;scalar=64";
    class       volVectorField;
    location    "1.5";
    object      flux;
}
// * * * * * * * * * * * * * * * * * * * * * * * * * * * * * * * * * * * * * //

dimensions      [0 1 -1 1 0 0 0];

internalField   nonuniform List<vector> 
5712
(
(-0.280487 0.489518 0.308124)
(-0.358533 0.282376 1.01113)
(-0.663734 0.791541 0.245155)
(-0.971181 0.520241 1.03642)
(-0.99167 0.865114 0.183383)
(-1.71031 0.641606 1.06959)
(-0.759862 1.35348 0.287939)
(-1.93401 1.68503 1.64136)
(-0.617641 1.78196 0.353517)
(-1.35689 2.18805 2.25474)
(-0.923787 1.15454 0.351793)
(-1.40623 1.00531 1.64665)
(-0.827514 0.732864 0.340241)
(-1.08753 0.582525 1.3692)
(-0.36441 0.368648 0.353725)
(-0.41732 0.249607 1.22484)
(-0.63041 0.815177 0.214032)
(-0.723112 0.827133 0.133935)
(-0.810918 0.705201 0.572662)
(-0.804341 0.824812 0.341677)
(-0.636203 1.10109 0.208799)
(-0.784349 0.9755 0.113031)
(-0.935961 1.27758 0.623175)
(-0.83863 1.02631 0.309674)
(-0.22969 0.343472 0.235771)
(-0.174319 0.245173 0.173018)
(-0.285333 0.193747 0.754924)
(-0.193359 0.144415 0.536461)
(-0.533454 0.408948 0.178427)
(-0.429953 0.332034 0.130574)
(-0.908008 0.249719 0.74224)
(-0.661322 0.203082 0.544224)
(-0.702304 0.755898 0.419072)
(-0.73179 0.778986 0.178125)
(-0.783784 0.766584 0.363469)
(-0.754475 0.637582 0.163018)
(-0.280415 0.5897 0.168873)
(-0.216695 0.466751 0.393272)
(-1.65536 0.467516 1.43184)
(-2.2158 0.532728 0.386579)
(-1.07081 0.752337 0.513713)
(-1.31402 0.750715 0.171401)
(-2.21772 1.58829 1.83671)
(-2.87909 1.6443 0.496368)
(-1.14753 1.11803 0.477708)
(-1.31403 1.15443 0.161954)
(-1.23147 0.647242 1.02741)
(-1.73895 0.545778 0.317874)
(-1.07694 0.699709 0.527977)
(-1.42562 0.497871 0.182831)
(-0.632939 0.325449 0.897593)
(-1.0172 0.335761 0.284579)
(-0.123301 0.271217 0.270635)
(-0.0417359 0.391745 0.134204)
(-0.129471 0.142247 0.383443)
(-0.0468351 0.174907 0.150593)
(-0.371715 0.370905 0.293258)
(-0.150633 0.522428 0.158196)
(-0.507442 0.222024 0.373218)
(-0.187493 0.262731 0.144559)
(-0.36448 0.407696 0.367852)
(-0.13928 0.705185 0.210474)
(-0.382883 0.28394 0.321767)
(-0.123133 0.472775 0.141225)
(-0.650144 0.107648 0.468741)
(-0.20739 0.279872 0.169554)
(-0.838028 0.0896716 0.160621)
(-0.283483 0.208303 0.0564157)
(-1.01086 0.72584 0.534134)
(-0.505255 0.899322 0.374485)
(-0.925501 0.755183 0.327224)
(-0.548276 0.89931 0.241227)
(-0.941825 0.885444 0.583575)
(-0.609788 0.89176 0.481455)
(-0.828825 0.907983 0.317356)
(-0.619959 0.884252 0.274641)
(-0.733216 0.646792 0.31507)
(-0.436517 0.879881 0.216613)
(-0.735008 0.659395 0.451488)
(-0.377716 0.866585 0.307825)
(-0.955338 0.746675 0.21336)
(-0.607827 0.895362 0.157677)
(-0.957763 0.748025 0.105584)
(-0.612639 0.894559 0.0869658)
(-0.875969 0.919257 0.202459)
(-0.654404 0.875352 0.174827)
(-0.886605 0.91814 0.101426)
(-0.656306 0.868313 0.098378)
(-0.791235 0.599524 0.207814)
(-0.50159 0.884913 0.138217)
(-0.81933 0.579879 0.104197)
(-0.513266 0.888904 0.0674401)
(-0.751884 0.743444 0.285082)
(-0.32833 0.884318 0.15607)
(-0.350238 0.938547 0.217207)
(-0.430216 1.32644 0.258797)
(-0.754764 0.788167 0.395818)
(-0.360014 1.02773 0.282282)
(-0.307986 0.930887 0.319107)
(-0.439437 1.44897 0.446594)
(-0.795636 0.70457 0.186302)
(-0.325771 0.77544 0.0890094)
(-0.395133 0.941647 0.126786)
(-0.431337 1.27124 0.147007)
(-0.834983 0.697261 0.0908525)
(-0.333217 0.724381 0.0381946)
(-0.428829 0.951736 0.0536938)
(-0.449468 1.26006 0.0540742)
(-0.159606 0.234265 0.366107)
(-0.174813 0.310244 0.654258)
(-0.0540737 0.600707 0.246603)
(-0.108094 1.06385 0.728229)
(-0.464909 0.287823 0.426122)
(-0.492299 0.330438 0.638999)
(-0.182103 0.767432 0.301882)
(-0.329124 1.19974 0.759286)
(-0.595738 0.354105 0.48014)
(-0.658956 0.358792 0.575934)
(-0.294185 0.964365 0.385657)
(-0.503314 1.32288 0.735932)
(-0.4918 1.00377 0.538844)
(-0.0303342 1.06191 0.623988)
(-0.56067 0.864291 0.422036)
(-0.704886 0.848991 0.410885)
(-0.390034 1.26242 0.445308)
(-0.0162242 1.06477 0.625723)
(-0.289591 1.0176 0.597644)
(-0.510861 0.879892 0.604447)
(-0.829999 0.773075 0.629016)
(-0.598497 1.45329 0.898524)
(-0.417238 0.972472 0.509256)
(-0.512036 0.970686 0.407282)
(-0.455242 0.877569 0.363462)
(-0.399673 0.891875 0.409187)
(-0.630201 1.6456 0.629826)
(-0.151169 0.0887765 0.761344)
(-0.122939 0.107189 0.683556)
(-0.0870494 0.192832 0.88049)
(-0.085969 0.452504 0.852276)
(-0.423702 0.125191 0.697332)
(-0.351627 0.143391 0.64931)
(-0.260129 0.262671 0.867484)
(-0.246341 0.500127 0.832763)
(-0.525935 0.184264 0.602681)
(-0.435259 0.156583 0.591104)
(-0.339535 0.352882 0.810795)
(-0.30274 0.564118 0.800224)
(-0.229078 1.04448 0.460237)
(-0.295299 1.01519 0.365554)
(-0.478831 0.951595 0.446784)
(-0.500103 0.919652 0.395888)
(-0.581159 0.831905 0.496529)
(-0.527375 0.746106 0.454249)
(-0.657157 0.636842 0.541799)
(-0.566418 0.556048 0.528776)
(-0.459627 0.45962 0.740527)
(-0.387351 0.652574 0.7677)
(-0.370137 0.955841 0.428574)
(-0.380615 0.909542 0.378219)
(-0.491138 0.974204 0.423525)
(-0.373992 0.945817 0.420349)
(-0.452146 0.858795 0.446496)
(-0.316396 0.795123 0.487599)
(-0.396151 0.722815 0.506681)
(-0.262573 0.64288 0.582786)
(-0.471941 0.487613 0.657924)
(-0.304794 0.652743 0.776528)
(-0.417314 0.971725 0.358178)
(-0.178352 1.09016 0.282207)
(-0.361933 0.971095 0.243261)
(-0.383282 1.12035 0.306365)
(-0.511292 0.929974 0.47078)
(-0.656483 0.956853 0.566872)
(-0.563918 0.910319 0.323889)
(-0.813845 0.967774 0.507987)
(-0.290549 0.894624 0.211148)
(-0.314163 0.908308 0.273691)
(-0.371557 0.886664 0.317905)
(-0.0996863 0.880568 0.26388)
(-0.323965 0.964447 0.060994)
(-0.61635 1.12639 0.201965)
(-0.308036 0.9611 0.0290682)
(-0.663721 1.12656 0.0711174)
(-0.559062 0.885129 0.164164)
(-1.00669 0.981844 0.338762)
(-0.569034 0.878869 0.0582416)
(-1.07165 0.980784 0.115535)
(-0.24824 0.898155 0.0331186)
(-0.534699 0.906262 0.174657)
(-0.226921 0.89862 0.0160384)
(-0.572696 0.906285 0.0602495)
(-0.345161 0.760973 0.210054)
(-0.252679 0.722805 0.21271)
(-0.485523 0.493367 0.23923)
(-0.185699 0.552216 0.152269)
(-0.349497 0.756589 0.334978)
(-0.0497785 0.704933 0.271235)
(-0.420203 0.486723 0.393834)
(-0.0132616 0.557836 0.277149)
(-0.333716 0.770926 0.0531297)
(-0.386226 0.719896 0.116395)
(-0.509592 0.503713 0.119145)
(-0.232308 0.552843 0.0701197)
(-0.277673 0.77408 0.0644165)
(-0.45794 0.712473 0.0827964)
(-0.452566 0.51926 0.0905004)
(-0.306637 0.552559 0.0686548)
(-0.0955748 0.0704314 0.548757)
(-0.0828458 0.0458746 0.335406)
(-0.0718001 0.0309502 0.106576)
(-0.0690606 0.0397866 0.619117)
(-0.0623578 0.0260604 0.357939)
(-0.0544547 0.0240919 0.117636)
(-0.280567 0.0986582 0.526892)
(-0.222901 0.0558593 0.331997)
(-0.187653 0.0410455 0.11296)
(-0.183541 0.0774908 0.608224)
(-0.142366 0.0604332 0.358153)
(-0.120034 0.0507255 0.117591)
(-0.336479 0.111644 0.484539)
(-0.281778 0.0877979 0.305377)
(-0.25648 0.0859335 0.100899)
(-0.219661 0.135287 0.591766)
(-0.172323 0.107194 0.359043)
(-0.159801 0.0945257 0.120292)
(-0.253353 0.946678 0.246454)
(-0.216045 0.830667 0.138872)
(-0.207802 0.753104 0.0393954)
(-0.430586 0.879725 0.325381)
(-0.313477 0.79408 0.215961)
(-0.257997 0.730142 0.0746797)
(-0.414995 0.636456 0.394868)
(-0.293472 0.574726 0.272302)
(-0.231002 0.54042 0.0939577)
(-0.433595 0.440761 0.460906)
(-0.329745 0.36889 0.300575)
(-0.280933 0.337684 0.100203)
(-0.282619 0.207185 0.584668)
(-0.178532 0.146574 0.367651)
(-0.135189 0.121409 0.1284)
(-0.618795 0.861639 0.288146)
(-0.517229 0.773815 0.167653)
(-0.43562 0.704957 0.0550893)
(-0.406034 0.895612 0.312742)
(-0.325701 0.791164 0.226526)
(-0.260402 0.714777 0.0859347)
(-0.370127 0.671841 0.377098)
(-0.275738 0.557069 0.278485)
(-0.210275 0.493125 0.102968)
(-0.318565 0.443755 0.468779)
(-0.220254 0.341005 0.33014)
(-0.160679 0.298691 0.118806)
(-0.340397 0.219659 0.592354)
(-0.18355 0.145244 0.373563)
(-0.0978242 0.113704 0.133326)
(-0.427402 1.10916 0.0117545)
(-0.576066 1.07924 0.0815328)
(-0.340425 1.21341 0.114966)
(-0.4368 1.08291 0.166197)
(-0.46704 1.24986 0.091031)
(-0.682398 1.08309 0.103756)
(-0.419297 1.51637 0.227665)
(-0.605726 1.14603 0.215276)
(-0.000680288 0.853853 0.0241006)
(-0.0283481 0.860054 0.0404131)
(0.0208827 0.845148 0.0257211)
(-0.00431037 0.779788 0.0420673)
(-0.119272 0.958732 0.0191073)
(-0.132976 0.89639 0.0557291)
(-0.0504667 0.944528 0.034329)
(-0.0272354 0.802501 0.0731042)
(-0.0293363 0.935299 0.127493)
(-0.0972062 0.923943 0.0624441)
(-0.382282 0.859983 0.162123)
(-0.554886 0.91477 0.0941072)
(-0.266707 1.1355 0.0853095)
(-0.150398 1.02587 0.148511)
(-0.408929 1.14449 0.136428)
(-0.406088 1.16447 0.031565)
(-0.636719 1.24899 0.251299)
(-0.701618 1.29456 0.0568232)
(0.0242671 0.950513 -0.0850429)
(0.170191 0.988499 0.0199311)
(-0.309115 0.850545 0.0671188)
(-0.290552 0.826826 0.0463881)
(-0.293944 1.03035 0.043758)
(-0.226283 1.0589 0.0366027)
(-0.0406922 0.662222 0.383707)
(-0.0213272 0.358999 0.169505)
(-0.0275986 0.621687 0.104362)
(-0.0118166 0.397066 0.0627342)
(-0.0784236 0.672759 0.389797)
(-0.00593265 0.362289 0.175803)
(0.0134243 0.620917 0.131868)
(0.0336247 0.394789 0.0795527)
(-0.370553 0.664019 0.384887)
(-0.0919124 0.363998 0.18862)
(-0.253766 0.619885 0.189898)
(-0.0645877 0.411358 0.128962)
(-0.367517 0.604335 0.134953)
(-0.11079 0.430313 0.0942753)
(-0.444301 0.612413 0.0607538)
(-0.140572 0.426667 0.0579643)
(-0.363192 0.857148 0.512631)
(-0.482262 0.726859 0.453793)
(-0.334444 0.856875 0.239704)
(-0.469275 0.728691 0.24786)
(-0.590168 0.950458 0.562177)
(-0.617931 0.853624 0.526088)
(-0.561671 0.965173 0.276136)
(-0.583474 0.848462 0.277451)
(-0.226517 0.836053 0.208281)
(-0.371664 0.604692 0.213457)
(-0.262482 0.867424 0.432545)
(-0.369946 0.594394 0.358643)
(-0.354194 0.879091 0.14048)
(-0.451289 0.72696 0.147461)
(-0.389943 0.891798 0.0747816)
(-0.454883 0.719325 0.087132)
(-0.584727 0.993673 0.1679)
(-0.572068 0.843583 0.166812)
(-0.611638 0.996162 0.0886081)
(-0.573423 0.833674 0.0961178)
(-0.228193 0.830854 0.119051)
(-0.358869 0.607824 0.129391)
(-0.247657 0.829799 0.0629164)
(-0.364442 0.604386 0.0809435)
(0.0118985 0.54596 0.181537)
(-0.044482 0.365458 0.12188)
(-0.283878 0.477153 0.179615)
(-0.166586 0.310961 0.12159)
(0.0332979 0.50634 0.285369)
(-0.0284805 0.3274 0.16072)
(-0.263016 0.457026 0.269254)
(-0.146616 0.290766 0.168892)
(-0.00638474 0.560921 0.106634)
(-0.0552221 0.388217 0.0872244)
(-0.289695 0.485724 0.112482)
(-0.181864 0.320458 0.0776535)
(-0.0236446 0.562363 0.0559038)
(-0.0654372 0.401791 0.0525538)
(-0.290126 0.48472 0.0702078)
(-0.187478 0.322776 0.0446726)
(0.0283867 0.104329 0.448638)
(0.0324149 0.0548091 0.298896)
(-0.00580094 0.193248 0.217885)
(0.000783419 0.107511 0.212826)
(0.118089 0.111098 0.447286)
(0.11824 0.0667218 0.3086)
(0.011048 0.205652 0.218715)
(0.0187117 0.127422 0.211945)
(0.0280477 0.136153 0.467076)
(0.0816676 0.0998243 0.326326)
(-0.0592663 0.227198 0.221853)
(-0.0318068 0.16458 0.207194)
(0.408997 0.521573 0.562551)
(0.391518 0.81315 0.619385)
(0.221584 0.376015 0.503359)
(0.172199 0.360982 0.329148)
(0.023476 0.261528 0.178025)
(0.427 0.792417 0.58733)
(0.429698 0.547714 0.530706)
(0.169884 0.320135 0.481514)
(0.251506 0.32209 0.387783)
(0.03994 0.215994 0.237053)
(-0.422108 0.829481 0.549524)
(-0.325698 0.648675 0.486497)
(-0.280742 0.513299 0.380806)
(-0.255227 0.399242 0.285556)
(-0.144702 0.255374 0.169325)
(0.0315388 0.0295915 0.241436)
(0.0279809 0.0217316 0.205612)
(0.00288683 0.0645817 0.218534)
(-0.000103309 0.0486684 0.239877)
(0.100203 0.0409768 0.253345)
(0.0939778 0.0277596 0.205829)
(0.00936731 0.0878978 0.222709)
(0.0016598 0.0700539 0.239082)
(0.101559 0.0699671 0.271666)
(0.116987 0.0523317 0.212118)
(-0.0184387 0.12439 0.228211)
(-0.0270725 0.101009 0.239827)
(0.204121 0.797766 0.443005)
(0.0863215 0.759235 0.31463)
(0.318823 0.535456 0.401647)
(0.192028 0.502671 0.278262)
(0.141109 0.345519 0.307054)
(0.102643 0.339272 0.24433)
(0.160465 0.29069 0.277973)
(0.134327 0.258838 0.231918)
(-0.00670129 0.184636 0.213991)
(-0.0384047 0.150292 0.240916)
(-0.154854 0.752361 0.368709)
(-0.097132 0.673149 0.321076)
(-0.0437777 0.577959 0.317564)
(0.0367464 0.496763 0.275671)
(-0.03726 0.446727 0.263197)
(0.0296042 0.386316 0.235471)
(-0.0580413 0.339483 0.223426)
(-0.00740694 0.29704 0.216726)
(-0.0654748 0.224592 0.167298)
(-0.0729289 0.214408 0.228708)
(-0.206684 0.596568 0.28359)
(-0.186415 0.471841 0.192403)
(-0.393077 0.602586 0.187699)
(-0.235571 0.463455 0.114107)
(-0.327899 0.724004 0.37896)
(-0.32506 0.592159 0.292654)
(-0.496806 0.725468 0.26193)
(-0.399602 0.587994 0.212678)
(-0.300965 0.499921 0.149003)
(-0.173538 0.394954 0.0894731)
(-0.148113 0.483429 0.216881)
(-0.144596 0.394017 0.158629)
(-0.463668 0.604299 0.187313)
(-0.20319 0.458024 0.0891216)
(-0.509623 0.601038 0.0662062)
(-0.227747 0.457742 0.0377966)
(-0.554056 0.724363 0.202319)
(-0.40801 0.601458 0.147377)
(-0.591016 0.718157 0.0681725)
(-0.438274 0.60046 0.0567533)
(-0.366491 0.50995 0.158573)
(-0.140355 0.390157 0.0701284)
(-0.410399 0.50925 0.0604242)
(-0.162969 0.395356 0.0312309)
(-0.22565 0.388143 0.118406)
(-0.172066 0.318785 0.10606)
(-0.159798 0.263458 0.0980493)
(-0.234679 0.267027 0.140696)
(-0.142628 0.372981 0.165441)
(-0.157036 0.310273 0.151943)
(-0.135177 0.251482 0.124635)
(-0.217249 0.252109 0.178908)
(-0.261819 0.405029 0.121253)
(-0.168611 0.32567 0.0759041)
(-0.181076 0.270309 0.0719606)
(-0.269877 0.282256 0.0963336)
(-0.321074 0.414388 0.0346477)
(-0.183054 0.325633 0.0160097)
(-0.23239 0.280637 0.00444854)
(-0.278131 0.286277 0.0159911)
(0.0267581 0.0604438 0.139805)
(0.0274176 0.0524986 0.0585369)
(0.0303245 0.0431471 0.0173229)
(0.00182025 0.257634 0.157033)
(0.00969721 0.13729 0.0413033)
(0.0106516 0.111622 0.0110574)
(0.0970694 0.0591138 0.144226)
(0.0993297 0.0574987 0.064325)
(0.0977649 0.0506527 0.019795)
(0.00977593 0.281883 0.158403)
(0.0277291 0.163608 0.0434941)
(0.02734 0.137805 0.0122299)
(0.124605 0.0821086 0.13993)
(0.133357 0.0906397 0.0662579)
(0.134276 0.0920448 0.0173864)
(-0.0158363 0.315519 0.158476)
(0.0273187 0.206835 0.0451577)
(0.0358582 0.182721 0.010768)
(0.0426732 0.696189 0.197747)
(0.0357001 0.632841 0.103433)
(0.0236104 0.590364 0.0248888)
(0.133189 0.468067 0.169597)
(0.133463 0.440564 0.0836051)
(0.122636 0.424375 0.0207205)
(0.107726 0.335625 0.15753)
(0.118386 0.321736 0.0763052)
(0.114968 0.316469 0.0210529)
(0.133852 0.281702 0.148406)
(0.138513 0.265339 0.0698117)
(0.132923 0.255207 0.0154395)
(-0.040478 0.363625 0.160381)
(0.0125701 0.257628 0.0452316)
(0.0161931 0.230358 0.00714438)
(-0.141413 0.597281 0.245542)
(-0.0812862 0.532836 0.126612)
(-0.0445829 0.491345 0.0354851)
(0.030952 0.436037 0.211243)
(0.0694549 0.39192 0.105942)
(0.0897581 0.367476 0.0296812)
(0.0318513 0.35527 0.183768)
(0.0793025 0.318643 0.0911425)
(0.0995651 0.298909 0.0267256)
(0.0156108 0.333838 0.165771)
(0.0656541 0.287938 0.0718462)
(0.0796593 0.262257 0.0181293)
(-0.073134 0.444978 0.17454)
(0.0169287 0.291515 0.0429442)
(0.0272939 0.258185 0.0106664)
(0.00116469 0.198574 0.0640153)
(0.00126404 0.121833 0.022468)
(0.00140486 0.0807784 0.00497637)
(0.00205811 0.0593512 -0.00479504)
(0.00971306 0.222635 0.0267149)
(0.00507633 0.131887 0.00982866)
(0.00396276 0.0850553 0.00279939)
(0.00352997 0.0608951 -0.000807236)
(0.000797041 0.199709 0.0676302)
(0.00241565 0.121847 0.0244705)
(0.00549022 0.0810042 0.0066727)
(0.00786855 0.0597367 -0.00264024)
(0.0157647 0.227447 0.0337899)
(0.00918631 0.134643 0.0134384)
(0.00999962 0.0869847 0.00642319)
(0.00982208 0.0619714 0.0028977)
(-0.00732788 0.199529 0.0722473)
(0.000698942 0.120879 0.0269698)
(0.00795988 0.0818167 0.00972693)
(0.0142958 0.0602101 0.000872273)
(0.00584056 0.232203 0.0570293)
(0.00713831 0.136498 0.0251686)
(0.00863648 0.0896069 0.00891831)
(0.0091956 0.0630264 0.00173248)
(0.00102211 0.249545 0.0423954)
(0.0041201 0.14423 0.0223223)
(0.00374054 0.09074 0.00630424)
(0.00347802 0.0642073 -0.0012096)
(-0.00782916 0.256704 0.0380349)
(-0.000608755 0.1496 0.0233344)
(0.00346667 0.0931183 0.0120711)
(0.00560548 0.0661067 0.0064405)
(-0.0330966 0.21246 0.058858)
(-0.00720461 0.12861 0.0249618)
(0.00168592 0.0853694 0.00698567)
(0.00761705 0.061384 -0.00509606)
(-0.0509811 0.176379 0.049665)
(-0.0120928 0.114075 0.0207721)
(-0.00161236 0.0788625 0.00869917)
(0.0137076 0.0588038 -0.00468927)
(-0.0223137 0.187482 0.0700245)
(-0.0031142 0.117075 0.0263444)
(0.00472736 0.0801493 0.00861107)
(0.0122688 0.0578639 -0.00288026)
(-0.0415822 0.163164 0.0626583)
(-0.00915795 0.107834 0.0236306)
(-0.00216385 0.0758775 0.00936317)
(0.0117373 0.0566821 -0.00756116)
(-0.0355514 0.229268 0.0463308)
(-0.00854772 0.137334 0.0224863)
(0.00285525 0.0888977 0.00803465)
(0.010265 0.0635806 -0.00183707)
(-0.0573511 0.18435 0.0374895)
(-0.0143785 0.118637 0.0178097)
(-0.00179265 0.0807287 0.00893366)
(0.0162719 0.0604197 5.91461e-05)
(-0.039649 0.238722 0.0330487)
(-0.0110236 0.143279 0.0189727)
(0.00278033 0.0915274 0.0102289)
(0.0125296 0.0654262 0.00570605)
(-0.0618252 0.187926 0.0250666)
(-0.0163828 0.121921 0.0144482)
(-0.00250741 0.0824224 0.00895817)
(0.016982 0.0616281 0.00480712)
(0.000581204 0.151575 0.0805877)
(0.00076608 0.10534 0.0270765)
(0.00126968 0.0740968 0.00536067)
(0.00264961 0.0564924 -0.00977909)
(0.00171731 0.101947 0.0781791)
(0.00112814 0.0858555 0.0247771)
(0.000677568 0.0659809 0.00771658)
(0.00239474 0.0531188 -0.0131137)
(0.00332674 0.15222 0.0804418)
(0.00268583 0.104996 0.0273837)
(0.0041711 0.0741039 0.00592217)
(0.00732259 0.0564326 -0.00935157)
(0.00687413 0.106294 0.0758128)
(0.00382761 0.0870613 0.0240844)
(0.00227584 0.0664092 0.00790768)
(0.00653573 0.0534212 -0.012765)
(-0.0131667 0.156132 0.0788032)
(-0.00185452 0.10519 0.0273429)
(0.00414784 0.0748542 0.00847364)
(0.0122634 0.0570001 -0.0061908)
(-0.00500139 0.119154 0.0709735)
(0.00103357 0.0908699 0.0227587)
(0.00271421 0.067958 0.00932703)
(0.0114725 0.0546887 -0.0101404)
(-0.00124002 0.154977 0.0690532)
(0.00405806 0.103102 0.0251161)
(0.00667851 0.0739166 0.0110297)
(0.0125116 0.0582592 0.000403866)
(0.000838755 0.130384 0.0778399)
(0.00339546 0.093645 0.0253656)
(0.0022046 0.0700704 0.0126974)
(0.0115462 0.0547406 -0.0117173)
(-0.0352313 0.145583 0.0610569)
(-0.0069479 0.100582 0.0222166)
(-0.00079995 0.0725318 0.0107573)
(0.0159747 0.0558847 -0.00249272)
(0.00328788 0.0536266 0.0605855)
(0.00159153 0.070267 0.0173197)
(0.000997242 0.0532573 0.00669247)
(0.00189513 0.0162184 -0.00851604)
(0.00587579 0.00157305 0.0238042)
(0.00231991 0.0617496 0.0062677)
(0.00112586 0.0482832 0.00179236)
(0.000922071 0.0167808 -0.00159453)
(0.00695899 0.0625158 0.0630636)
(0.00379484 0.073244 0.0185323)
(0.00203452 0.0544966 0.0072622)
(0.00477785 0.0170874 -0.00808655)
(0.0151106 0.0121258 0.0250076)
(0.00618392 0.0650235 0.00679666)
(0.0027788 0.0493328 0.00220666)
(0.0023429 0.0171386 -0.0011829)
(0.00486233 0.0793809 0.064939)
(0.00423629 0.0785541 0.0198985)
(0.0027186 0.0562679 0.00864165)
(0.00779678 0.0170426 -0.00695089)
(0.0194563 0.0303272 0.0258239)
(0.00871173 0.0706044 0.00740923)
(0.00417293 0.0508241 0.00271605)
(0.00366352 0.0173327 -0.000705066)
(-0.00160457 0.100359 0.0588796)
(0.00385991 0.0849849 0.0187279)
(0.0033869 0.0591098 0.00972743)
(0.0108742 0.0184798 -0.00527137)
(0.0160529 0.0502991 0.0253433)
(0.00942306 0.0769195 0.00765785)
(0.00489212 0.0530614 0.00362548)
(0.00459382 0.0180772 0.000146447)
(-0.0172503 0.114901 0.0540964)
(0.000528607 0.0910249 0.0185092)
(0.00084849 0.0626695 0.0101514)
(0.0100533 0.0213624 -0.00274977)
(0.00606527 0.0571555 0.0229741)
(0.0080837 0.0819117 0.00804302)
(0.00427913 0.0551687 0.00477263)
(0.00457389 0.0187353 0.00125844)
(-0.040767 0.123144 0.0369973)
(-0.00450475 0.0979027 0.0143372)
(-4.75167e-05 0.064217 0.00664774)
(0.0114215 0.020459 -0.000951393)
(-0.0125399 0.0489119 0.0214015)
(0.00178053 0.0877005 0.0100269)
(0.0023425 0.0591635 0.0056152)
(0.00400505 0.0199163 0.00274758)
(-0.030807 0.119881 0.0431567)
(-0.00134964 0.0948703 0.0149464)
(0.00039519 0.0630719 0.00741753)
(0.0105947 0.0204394 -0.00214509)
(-0.00643197 0.046667 0.0218756)
(0.00461494 0.0850325 0.00898258)
(0.00343282 0.0571273 0.00524921)
(0.00447733 0.0192205 0.00204459)
(-0.0497479 0.124504 0.0293491)
(-0.00815205 0.10004 0.0134019)
(-0.00114474 0.064905 0.00678087)
(0.0124152 0.019173 0.000902281)
(-0.0178082 0.047604 0.0187105)
(-0.000864572 0.0899426 0.0101445)
(0.00137847 0.060424 0.00579687)
(0.00370147 0.0200338 0.00342142)
(-0.0563666 0.12709 0.0201328)
(-0.011607 0.102218 0.0116495)
(-0.00258002 0.0664988 0.00729034)
(0.0121929 0.0195385 0.00411549)
(-0.0224388 0.0516214 0.0150325)
(-0.00355266 0.0922449 0.00966974)
(0.000159469 0.0619534 0.00616807)
(0.00316556 0.0204971 0.00430581)
(0.000897443 0.0477178 -0.000423056)
(0.000367209 0.033462 0.000155057)
(0.000171174 0.0214189 0.000148681)
(9.00428e-05 0.0117859 9.37223e-05)
(5.90935e-05 0.00374666 6.4828e-05)
(0.00117638 0.047264 -5.77882e-05)
(0.000552718 0.0334035 0.000106648)
(0.000275548 0.0214379 8.30434e-05)
(0.000148919 0.0118032 5.07103e-05)
(9.86922e-05 0.00375241 3.48133e-05)
(0.00214195 0.0483293 0.000237454)
(0.00084836 0.0337625 0.000469483)
(0.000392479 0.0215562 0.000307719)
(0.000206372 0.0118462 0.000180551)
(0.000135513 0.0037638 0.000122698)
(0.00262979 0.0480771 0.000659421)
(0.00122465 0.0337875 0.000465373)
(0.000610524 0.0216202 0.000268591)
(0.000330728 0.0118852 0.000152813)
(0.000219538 0.00377589 0.000103015)
(0.00284033 0.0495676 0.000920609)
(0.00105947 0.0341874 0.00083652)
(0.000482903 0.0217329 0.00050035)
(0.000253189 0.0119221 0.000287273)
(0.000166205 0.00378526 0.000194149)
(0.00349873 0.0491281 0.00256631)
(0.00160858 0.0342371 0.0015619)
(0.000801472 0.0218325 0.000862501)
(0.000434817 0.0119809 0.000485019)
(0.000288917 0.00380342 0.000326121)
(0.00180663 0.0497857 0.00299851)
(0.000815526 0.0347396 0.00181432)
(0.000404743 0.0221092 0.00100447)
(0.00021989 0.0121133 0.000566729)
(0.000146355 0.0038422 0.000381868)
(0.0013079 0.0509434 0.00437788)
(0.000485914 0.0354505 0.00239978)
(0.000219017 0.022498 0.00129047)
(0.000114897 0.0123002 0.000722732)
(7.56755e-05 0.00389717 0.000486483)
(0.00279578 0.0508069 0.00154837)
(0.00106775 0.0346936 0.00121676)
(0.000495177 0.0219841 0.0007067)
(0.000262103 0.0120381 0.00040349)
(0.000172758 0.00381886 0.000272767)
(0.00134365 0.0541292 0.00167904)
(0.000443059 0.0352974 0.00114827)
(0.000193813 0.0221512 0.000649331)
(0.000100608 0.0120975 0.000368758)
(6.58914e-05 0.00383467 0.000248991)
(0.00295837 0.051049 0.00107428)
(0.00123264 0.0345599 0.000969755)
(0.000597988 0.0218641 0.000569618)
(0.000321529 0.0119746 0.000325275)
(0.000212941 0.00379979 0.000219586)
(0.00127576 0.0540509 0.00205592)
(0.000441088 0.0350769 0.00121057)
(0.000198968 0.0220183 0.00065397)
(0.000104274 0.0120329 0.000365785)
(6.8491e-05 0.00381563 0.000245488)
(0.00216473 0.0512491 0.00200332)
(0.00070486 0.0351341 0.00143959)
(0.000302235 0.0222315 0.000827436)
(0.000155627 0.0121572 0.000472106)
(0.000101771 0.00385385 0.000319293)
(0.0012728 0.0551266 0.00226294)
(0.000393201 0.0357239 0.00136972)
(0.000167751 0.0223753 0.000757915)
(8.66077e-05 0.0122045 0.000428286)
(5.67264e-05 0.00386608 0.000289037)
(0.00192291 0.0524476 0.00347046)
(0.000470791 0.0358261 0.00192829)
(0.000162455 0.0225969 0.00104014)
(7.55473e-05 0.0123311 0.000583231)
(4.77047e-05 0.00390487 0.000392812)
(0.00106526 0.0563957 0.00290429)
(0.000225573 0.0363413 0.00159146)
(7.14979e-05 0.0226911 0.000857068)
(3.20634e-05 0.0123541 0.000480749)
(2.0005e-05 0.00390999 0.000323952)
(0.000757737 0.0489597 -0.000803135)
(0.000283199 0.0336253 7.12427e-05)
(0.000128059 0.021416 0.000108949)
(6.65826e-05 0.0117718 7.15587e-05)
(4.35018e-05 0.00374156 4.9902e-05)
(0.000553671 0.0513597 -0.00044381)
(0.000225338 0.0338135 1.87217e-05)
(0.000106484 0.0214202 4.10373e-05)
(5.62436e-05 0.0117638 2.72741e-05)
(3.69168e-05 0.00373851 1.90339e-05)
(0.00185641 0.0495426 -0.000369925)
(0.000705021 0.0338636 0.000269348)
(0.000325493 0.0215192 0.000206899)
(0.000171111 0.0118162 0.000124495)
(0.000112331 0.00375408 8.5031e-05)
(0.00143268 0.0518294 -0.000286875)
(0.000589573 0.0339947 9.04258e-05)
(0.000282746 0.0214995 7.61464e-05)
(0.000150504 0.011798 4.61378e-05)
(9.91577e-05 0.00374816 3.15094e-05)
(0.0026007 0.0507473 0.000162451)
(0.000873486 0.034262 0.000490576)
(0.000387515 0.0216809 0.000312434)
(0.000201315 0.0118854 0.00018119)
(0.000131765 0.00377359 0.000122605)
(0.00194132 0.0528661 0.000314853)
(0.000807898 0.034325 0.000329683)
(0.000392384 0.0216401 0.000190246)
(0.000210202 0.0118592 0.000107181)
(0.000138936 0.00376549 7.18949e-05)
(0.00230314 0.0526328 0.00135382)
(0.000958168 0.0347117 0.00096486)
(0.00046878 0.0218431 0.000536735)
(0.000252224 0.0119528 0.000300534)
(0.000166936 0.00379249 0.000201201)
(0.0013166 0.0541067 0.000927289)
(0.00060767 0.0346792 0.000620468)
(0.000304972 0.021799 0.000336564)
(0.000165192 0.0119298 0.000187049)
(0.000109596 0.00378563 0.000124883)
(0.00117766 0.0544009 0.00255926)
(0.000517702 0.0349423 0.00130024)
(0.000258292 0.0219341 0.000675328)
(0.000139682 0.0119922 0.00037161)
(9.25894e-05 0.00380363 0.000247859)
(-0.0102618 0.448654 0.0793952)
(-0.0165039 0.694731 0.180741)
(-0.0208685 0.46675 0.0815082)
(-0.0396353 0.703331 0.179688)
(-0.0164427 0.492289 0.09058)
(-0.0480746 0.712726 0.179123)
(0.00915497 0.506334 0.10744)
(-0.0348906 0.714678 0.18601)
(0.0369548 0.479144 0.110979)
(0.00705454 0.678829 0.190408)
(-0.0230672 0.435134 0.046565)
(-0.0453178 0.491774 0.0684428)
(0.0241025 0.438565 0.0742791)
(0.0202426 0.520953 0.114349)
(-0.0449685 0.435977 0.0256271)
(-0.0743319 0.484783 0.0343736)
(-0.0600179 0.44288 0.00936302)
(-0.0870091 0.489465 0.0117154)
(-0.0284619 0.399862 0.407385)
(-0.00668359 0.0686541 0.0976529)
(-0.00151703 0.0147189 0.0224748)
(-0.000337429 0.00331301 0.00504371)
(-8.52808e-05 0.000588353 0.00126022)
(-0.00846246 0.445522 0.111495)
(-0.00414101 0.127079 0.0300968)
(-0.000572685 0.0309419 0.00802806)
(-0.000156112 0.00704294 0.00183341)
(-7.03782e-05 0.00125015 0.000401168)
(-0.0873604 0.401765 0.401242)
(-0.0204063 0.067795 0.0954464)
(-0.00464754 0.014439 0.0219541)
(-0.0010286 0.00323915 0.0048873)
(-0.000260327 0.000573843 0.00123045)
(-0.0198301 0.446784 0.113599)
(-0.00556571 0.125947 0.0335375)
(-0.00138626 0.030569 0.00829267)
(-0.000294827 0.00692808 0.00193602)
(-8.11462e-05 0.00121961 0.00048344)
(-0.146118 0.401562 0.380685)
(-0.0341935 0.0669072 0.089998)
(-0.00780938 0.0141439 0.020637)
(-0.00173444 0.0031616 0.00459063)
(-0.000438088 0.000559188 0.00115766)
(-0.0319621 0.445509 0.110265)
(-0.00955968 0.124417 0.032388)
(-0.00236273 0.0300634 0.00798493)
(-0.000556619 0.00679311 0.00185468)
(-0.00014168 0.00119462 0.000464825)
(-0.194597 0.393105 0.34562)
(-0.0456673 0.0641532 0.0810578)
(-0.0104751 0.0134535 0.018545)
(-0.0023343 0.00300214 0.00412442)
(-0.000590504 0.000530926 0.00104103)
(-0.0371181 0.435412 0.106761)
(-0.0120334 0.120599 0.0306955)
(-0.00306905 0.0290602 0.00747178)
(-0.000730437 0.00656012 0.00172055)
(-0.000185308 0.00115303 0.000429052)
(-0.240863 0.36792 0.286464)
(-0.0570855 0.0585357 0.0668939)
(-0.0131889 0.0122581 0.0153232)
(-0.00295491 0.00274578 0.00341462)
(-0.000750923 0.000486951 0.000863473)
(-0.0410425 0.407749 0.100166)
(-0.0146743 0.113213 0.0280389)
(-0.00384932 0.0273867 0.00675479)
(-0.000927127 0.00620346 0.00154643)
(-0.000237887 0.00109242 0.000384688)
(-0.280663 0.320207 0.133122)
(-0.0685453 0.0529847 0.0325299)
(-0.0160632 0.0114659 0.00758763)
(-0.00363199 0.00261268 0.00170512)
(-0.000927979 0.000467263 0.000432426)
(-0.0669042 0.328069 0.0487552)
(-0.0208242 0.095763 0.0138637)
(-0.00520209 0.0238123 0.00331725)
(-0.00120761 0.00548955 0.000747047)
(-0.000305801 0.00097682 0.000185536)
(-0.263157 0.334781 0.199969)
(-0.0640829 0.0545129 0.0481701)
(-0.0149507 0.0116564 0.0111439)
(-0.00336546 0.00263869 0.00249083)
(-0.000856816 0.000470253 0.000630301)
(-0.0504198 0.351768 0.0717311)
(-0.0174068 0.102484 0.0201303)
(-0.00450329 0.0252488 0.00485287)
(-0.00106902 0.00577176 0.00111052)
(-0.000271337 0.00102119 0.000278146)
(-0.288117 0.314031 0.0777324)
(-0.0704282 0.0524567 0.0191444)
(-0.0165342 0.0114025 0.00448753)
(-0.00374482 0.00260446 0.00101375)
(-0.000958506 0.000466288 0.000257706)
(-0.0767837 0.319211 0.0274105)
(-0.0230044 0.092566 0.00809691)
(-0.0056512 0.0230348 0.00192933)
(-0.00129212 0.00532769 0.000434656)
(-0.000326159 0.000950864 0.000108994)
(-0.299537 0.312026 0.0268358)
(-0.0725732 0.051902 0.00657495)
(-0.0170587 0.0112707 0.00154597)
(-0.0038618 0.00257509 0.00035068)
(-0.000987947 0.000460623 8.92632e-05)
(-0.080088 0.318486 0.0109443)
(-0.0240279 0.0916484 0.002966)
(-0.00595021 0.0227415 0.000661322)
(-0.00126441 0.00527141 0.000183979)
(-0.000337401 0.000939305 3.67862e-05)
(-0.0215255 1.39173 -0.00468367)
(-0.292096 1.9854 0.0141316)
(-0.266628 1.93742 0.188787)
(-0.0947082 1.34806 -0.0397122)
(0.068305 0.787617 0.0309871)
(0.115818 0.830187 0.033206)
(0.321797 1.16249 0.0968454)
(0.470983 1.21761 0.124194)
(0.0715996 0.914706 0.0785843)
(0.345321 1.02837 0.147421)
(-0.073094 1.45973 0.125071)
(0.1022 1.99974 0.192882)
(0.10086 1.84825 0.151805)
(0.203 2.45609 0.188294)
(0.386921 1.20439 0.0785379)
(0.548996 1.3762 0.105647)
(0.584911 0.942216 0.0831779)
(0.735472 1.0089 0.0987023)
(0.238984 0.510409 0.0432027)
(0.30978 0.560547 0.0449221)
(-0.802285 0.193014 0.0924549)