/*--------------------------------*- C++ -*----------------------------------*\
| =========                 |                                                 |
| \\      /  F ield         | OpenFOAM: The Open Source CFD Toolbox           |
|  \\    /   O peration     | Version:  2306                                  |
|   \\  /    A nd           | Website:  www.openfoam.com                      |
|    \\/     M anipulation  |                                                 |
\*---------------------------------------------------------------------------*/
FoamFile
{
    version     2.0;
    format      ascii;
    arch        "LSB;label=32;scalar=64";
    class       volScalarField;
    location    "1.5";
    object      gradTz;
}
// * * * * * * * * * * * * * * * * * * * * * * * * * * * * * * * * * * * * * //

dimensions      [0 -1 0 1 0 0 0];

internalField   nonuniform List<scalar> 
5712
(
7703.11
25278.4
6128.87
25910.6
4584.58
26739.7
7198.47
41033.9
8837.93
56368.4
8794.81
41166.3
8506.04
34230.1
8843.14
30620.9
5350.79
3348.38
14316.5
8541.93
5219.98
2825.77
15579.4
7741.85
5894.27
4325.45
18873.1
13411.5
4460.68
3264.35
18556
13605.6
10476.8
4453.13
9086.71
4075.46
4221.83
9831.79
35796
9664.48
12842.8
4285.02
45917.6
12409.2
11942.7
4048.86
25685.4
7946.86
13199.4
4570.78
22439.8
7114.47
6765.87
3355.09
9586.07
3764.82
7331.44
3954.89
9330.45
3613.96
9196.3
5261.85
8044.19
3530.63
11718.5
4238.84
4015.51
1410.39
13353.3
9362.13
8180.61
6030.68
14589.4
12036.4
7933.91
6866.02
7876.75
5415.32
11287.2
7695.61
5334.01
3941.93
2639.61
2174.14
5061.48
4370.68
2535.66
2459.45
5195.36
3455.44
2604.94
1686
7127.05
3901.75
5430.16
6469.93
9895.46
7057.06
7977.68
11164.8
4657.54
2225.24
3169.64
3675.18
2271.31
954.864
1342.34
1351.86
9152.68
16356.4
6165.09
18205.7
10653
15975
7547.04
18982.1
12003.5
14398.4
9641.43
18398.3
13471.1
15599.7
10550.9
10272.1
11132.7
15643.1
14941.1
15111.2
15725.4
22463.1
12731.4
10182
9086.56
10229.7
15745.7
19033.6
17088.9
22012.2
21306.9
17433.3
16232.8
21687.1
20819.1
15067
14777.6
20269.9
20005.6
11505.9
9138.86
11169.6
9897.2
12413.2
11356.2
13545
13219.4
18513.2
19192.5
10714.4
9455.48
10588.1
10508.7
11162.4
12190
12667
14569.7
16448.1
19413.2
8954.44
7055.17
6081.52
7659.12
11769.5
14171.8
8097.22
12699.7
5278.7
6842.28
7947.62
6597
1524.85
5049.12
726.704
1777.94
4104.09
8469.05
1456.04
2888.37
827.965
4366.42
400.961
1506.24
5251.36
5317.76
5980.76
3806.71
8374.45
6780.88
9845.85
6928.73
1328.24
2909.89
2978.63
1752.99
1610.41
2069.91
2262.51
1716.37
13718.9
8385.16
2664.39
15477.9
8948.48
2940.89
13172.3
8299.94
2824
15205.6
8953.84
2939.77
12113.5
7634.43
2522.47
14794.2
8976.07
3007.29
6161.35
3471.79
984.886
8134.51
5399.03
1866.99
9871.69
6807.55
2348.94
11522.7
7514.37
2505.07
14616.7
9191.27
3210.01
7203.66
4191.32
1377.23
7818.55
5663.14
2148.37
9427.46
6962.12
2574.19
11719.5
8253.5
2970.15
14808.8
9339.08
3333.14
293.861
2038.32
2874.14
4154.92
2275.77
2593.89
5691.63
5381.89
602.515
1010.33
643.028
1051.68
477.683
1393.23
858.225
1827.6
3187.33
1561.1
4053.07
2352.68
2132.74
3712.77
3410.69
789.125
6282.47
1420.58
-2126.07
498.278
1677.97
1159.7
1093.95
915.067
9592.66
4237.63
2609.06
1568.35
9744.92
4395.08
3296.7
1988.82
9622.18
4715.49
4747.46
3224.06
3373.83
2356.88
1518.85
1449.11
12815.8
11344.8
5992.59
6196.49
14054.4
13152.2
6903.4
6936.28
5207.02
5336.42
10813.6
8966.07
3511.99
3686.54
1869.54
2178.3
4197.51
4170.31
2215.2
2402.94
2976.28
3234.77
1572.91
2023.59
4538.42
3047
4490.39
3039.74
7134.23
4018
6731.36
4222.29
2665.86
2180.61
2812.05
1941.34
1397.6
1313.85
1755.2
1116.82
11215.9
7472.4
5447.14
5320.65
11182.2
7714.99
5467.89
5298.62
11676.9
8158.16
5546.31
5179.86
14063.8
15484.6
12584
8228.7
4450.62
14683.3
13267.6
12037.9
9694.58
5926.32
13738.1
12162.4
9520.16
7138.91
4233.13
6035.91
5140.3
5463.36
5996.93
6333.63
5145.72
5567.71
5977.05
6791.64
5302.96
5705.29
5995.67
11075.1
7865.75
10041.2
6956.55
7676.36
6108.25
6949.34
5797.95
5349.78
6022.9
9217.73
8026.9
7939.1
6891.79
6579.92
5886.78
5585.64
5418.15
4182.44
5717.69
7089.75
4810.07
4692.48
2852.67
9473.99
7316.35
6548.24
5316.94
3725.08
2236.83
5422.02
3965.72
4682.82
2228.04
1655.16
944.916
5057.97
3684.43
1704.31
1418.83
3964.32
1753.21
1510.61
780.774
2960.14
2651.49
2451.23
3517.39
4136.02
3798.58
3115.89
4472.7
3031.33
1897.6
1799.01
2408.34
866.191
400.243
111.214
399.778
3495.13
1463.42
433.073
3925.83
1032.58
276.435
3605.65
1608.12
494.874
3960.08
1087.35
305.747
3498.25
1656.45
434.66
3961.89
1128.94
269.201
4943.68
2585.82
622.219
4239.91
2090.13
518.012
3938.24
1907.63
526.322
3710.14
1745.29
385.988
4009.53
1130.79
178.61
6138.55
3165.29
887.127
5281.08
2648.55
742.031
4594.2
2278.56
668.14
4144.27
1796.16
453.232
4363.5
1073.61
266.66
1600.38
561.7
124.409
-119.876
667.872
245.716
69.9849
-20.1809
1690.75
611.764
166.818
-66.006
844.747
335.961
160.58
72.4425
1806.18
674.245
243.173
21.8068
1425.73
629.216
222.958
43.312
1059.89
558.057
157.606
-30.2399
950.873
583.36
301.776
161.013
1471.45
624.045
174.642
-127.401
1241.62
519.302
217.479
-117.232
1750.61
658.611
215.277
-72.0066
1566.46
590.765
234.079
-189.029
1158.27
562.157
200.866
-45.9267
937.239
445.243
223.342
1.47865
826.217
474.317
255.721
142.651
626.664
361.204
223.954
120.178
2014.69
676.913
134.017
-244.477
1954.48
619.428
192.914
-327.842
2011.05
684.593
148.054
-233.789
1895.32
602.111
197.692
-319.125
1970.08
683.572
211.841
-154.77
1774.34
568.968
233.176
-253.511
1726.33
627.902
275.744
10.0966
1946
634.141
317.435
-292.934
1526.42
555.416
268.933
-62.318
1514.64
432.993
167.312
-212.901
595.105
156.693
44.809
-39.8632
1576.59
463.307
181.555
-202.164
625.19
169.917
55.1666
-29.5726
1623.47
497.463
216.041
-173.772
645.598
185.231
67.9013
-17.6267
1471.99
468.197
243.186
-131.784
633.582
191.446
90.6369
3.66117
1352.41
462.73
253.784
-68.7442
574.354
201.075
119.316
31.4609
924.932
358.429
166.194
-23.7848
535.037
250.672
140.38
68.6896
1078.92
373.66
185.438
-53.6273
546.889
224.564
131.23
51.1149
733.727
335.047
169.522
22.557
467.762
253.612
144.922
85.5355
503.321
291.237
182.258
102.887
375.812
241.743
154.202
107.645
-10.5764
3.87644
3.71703
2.34306
1.6207
-1.44471
2.66621
2.07609
1.26776
0.870332
5.93634
11.7371
7.69297
4.51376
3.06745
16.4855
11.6343
6.71477
3.82034
2.57537
23.0152
20.913
12.5088
7.18182
4.85373
64.1577
39.0475
21.5625
12.1255
8.15302
74.9627
45.3581
25.1118
14.1682
9.54671
109.447
59.9945
32.2617
18.0683
12.1621
38.7092
30.4191
17.6675
10.0873
6.81916
41.9761
28.7068
16.2333
9.21895
6.22477
26.8569
24.2439
14.2404
8.13187
5.48966
51.3979
30.2643
16.3493
9.14461
6.13719
50.083
35.9897
20.6859
11.8026
7.98234
56.5735
34.243
18.9479
10.7072
7.22593
86.7615
48.2074
26.0035
14.5808
9.8203
72.6072
39.7866
21.4267
12.0187
8.0988
-20.0784
1.78107
2.72372
1.78897
1.24755
-11.0953
0.468043
1.02593
0.681853
0.475847
-9.24812
6.73371
5.17248
3.11237
2.12578
-7.17189
2.26065
1.90366
1.15344
0.787736
4.06128
12.2644
7.81085
4.52975
3.06513
7.87131
8.24208
4.75615
2.67953
1.79737
33.8455
24.1215
13.4184
7.51336
5.03003
23.1822
15.5117
8.4141
4.67623
3.12206
63.9814
32.506
16.8832
9.29026
6.19647
1984.88
4518.51
2037.71
4492.19
2264.5
4478.07
2685.99
4650.25
2774.47
4760.2
1164.12
1711.07
1856.98
2858.72
640.677
859.34
234.076
292.885
10184.6
2441.32
561.869
126.093
31.5056
2787.36
752.421
200.702
45.8352
10.0292
10031.1
2386.16
548.853
122.183
30.7612
2839.98
838.438
207.317
48.4006
12.086
9517.13
2249.95
515.925
114.766
28.9415
2756.64
809.7
199.623
46.367
11.6206
8640.51
2026.44
463.624
103.11
26.0257
2669.02
767.387
186.795
43.0137
10.7263
7161.59
1672.35
383.08
85.3654
21.5868
2504.14
700.973
168.87
38.6608
9.6172
3328.06
813.247
189.691
42.6281
10.8107
1218.88
346.594
82.9311
18.6762
4.6384
4999.23
1204.25
278.598
62.2708
15.7575
1793.28
503.257
121.322
27.7631
6.95366
1943.31
478.611
112.188
25.3437
6.44265
685.264
202.423
48.2332
10.8664
2.72485
670.895
164.374
38.6491
8.76699
2.23158
273.608
74.1501
16.533
4.59949
0.919655
-117.092
353.29
4719.68
-992.805
774.678
830.151
2421.14
3104.85
1964.61
3685.53
3126.79
4822.05
3795.12
4707.35
1963.45
2641.18
2079.45
2467.56
1080.07
1123.05
2311.37
1640.58
624.365
-278.014
-560.03
-665.899
-88.7641
13597
3719.61
4661.28
3194.48
108.928
236.827
3209.18
-1032.14
-466.142
-739.193
-406.207
7436.66
4039.16
1647.24
1259.81
3766.17
2202.7
764.147
1483.36
-1165.64
-576.318
881.389
743.711
8881.23
4312.49
5542.92
2943.05
4094.62
4773.37
1681.19
-606.464
1135.61
1593.8
1261.22
1048.86
901.992
649.233
1276.77
1006.99
768.679
527.206
220.814
545.028
447.788
334.422
208.934
71.7651
-248.205
-206.92
-154.184
-94.5816
-31.8181
-499.699
-416.569
-310.734
-190.933
-64.2773
-595.034
-496.957
-371.458
-228.664
-77.0634
-76.1926
-58.7979
-38.519
-19.9539
-5.76735
9588.37
7958.41
6448.9
5520.14
4747.12
3117.61
2565.97
2221.51
1725.99
857.364
3516.7
2719.86
2163.49
1585.49
772.352
2391.51
1824.13
1475.58
1065.64
427.444
173.705
145.173
193.235
169.314
76.2647
274.509
290.634
270.053
200.6
78.1062
2667.15
2157.31
1633.49
1089.21
429.591
-591.297
-261.054
-82.7678
2.30666
13.0911
-361.94
-247.063
-139.374
-59.1275
-12.8106
-497.664
-288.216
-132.041
-40.387
-4.52218
-370.731
-309.499
-226.591
-135.007
-43.9876
5358.41
4640.59
3824.39
3312.3
2857.02
3073.27
2369.42
1873.46
1342.88
615.488
1466.1
1257.21
1002.59
679.415
256.823
1089.95
904.978
698.458
459.317
168.622
3109.04
2465.09
1830.62
1180.73
441.465
1923.19
1597.69
1221.72
789.116
280.285
659.601
542.447
411.406
264.185
93.9892
1295.44
1068
802.96
506.231
175.64
-1007.77
-809.914
-582.48
-347.377
-114.753
-507.144
-413.433
-299.01
-177.597
-58.2068
772.202
644.764
496.551
323.107
115.915
654.931
549.126
423.43
274.554
97.5458
5644.94
3998
3281.22
2830.71
2300.06
3250.71
2477.86
1858.02
1276.03
551.84
4014.67
3196.03
2482.61
1830.44
848.118
2324.56
1854.75
1402.99
949.57
396.53
3448.41
2776.68
2076.66
1332.5
483.275
3589.83
2623.6
2031.64
1437.49
578.981
1455.35
1191.8
893.867
565.074
197.384
-538.599
-444.618
-326.537
-197.005
-65.3399
985.18
817.994
629.98
412.077
148.852
-29978.6
-48824.3
-24892.3
-39489.3
-26520.8
-55124.1
-31709
-70037.6
-19048.8
-13094.2
-21295.8
-13353.7
-17500.7
-11292.7
-21542.9
-11439.1
-24948.4
-18917.7
-36142.2
-26176.1
-21451.3
-17209.6
-30164.9
-22777.5
-17112.4
-17592
-14091.9
-13642.7
-16695.2
-15607.9
-41159
-11363.7
-15792
-5934.73
-50135.2
-13944.9
-14109.2
-5320.66
-30753.2
-9683.73
-16172.8
-6218.56
-27438.8
-8510.68
-13025
-5259.42
-16480.5
-5987.75
-12382.5
-5465.83
-14313.1
-5199.43
-12817.4
-6258.67
-11436.7
-4561.08
-14554.1
-5156.59
-5097.21
-1794.74
-10952.7
-7413.67
-9450.82
-5852.71
-9588.16
-7778.67
-8257.93
-5932.35
-9653.52
-5607.26
-11343
-7233.32
-6486.7
-3935.72
-3498.15
-2190.06
-5599.5
-3897.38
-2943.74
-2124.67
-6603.43
-3666.07
-3635.48
-1867.24
-8544.9
-4355.57
-5624.4
-6463.64
-10886.5
-7340.65
-7951.16
-10948
-5776.3
-2598.88
-3366.75
-3719.29
-3098.19
-1249.78
-1512.97
-1405.17
-12922.5
-15838.7
-7319.64
-17985.9
-13436.1
-15112
-8411.07
-18380.5
-13571.9
-13736
-10021
-17466.1
-9205.01
-7392.95
-10179.1
-11321.7
-11308.9
-10052.9
-11742.4
-13744.7
-14898.7
-21145
-7001.41
-7341.77
-8048.84
-9724.48
-15032.5
-15109.1
-10563.5
-19217.7
-14830.7
-14008.5
-10393.4
-18935.5
-14778.4
-12395.2
-9733.98
-17677.1
-14645.8
-8218.42
-6544.8
-8662.57
-6969.73
-9744.01
-7955.16
-10754.2
-9196.7
-16091.9
-14735.7
-7685.07
-6684.41
-7914.32
-7028.94
-8816.61
-8414.24
-10626.7
-10695.7
-14772.8
-15369.8
-7128.91
-5694.44
-5247.64
-6752.04
-8717.55
-11819.2
-6598.68
-10933.2
-4884.94
-6326.81
-6974.72
-5715.17
-1079.05
-4466.01
-373.195
-1359.33
-3245.08
-7495.62
-806.591
-2160
-634.09
-4041.29
-246.841
-1272.09
-5041.82
-4987.97
-5798.32
-3544.19
-7802.49
-6099.87
-9386.82
-6239.25
-1232.01
-2717.38
-2875.29
-1605.67
-1538.8
-1932.37
-2185.64
-1608.38
-6429.1
-2211.34
-8712.5
-2969.01
-6574.08
-2311.11
-8920.73
-3197.99
-6530.56
-2277.67
-9434.59
-3626.12
-3885.59
-1114.46
-4921.94
-1875
-5634.69
-2176.32
-6828.13
-2574.48
-9976.35
-3958.62
-4887.16
-1515.45
-4651.07
-2250.1
-5673.25
-2648.74
-7598.8
-3285.77
-10400.1
-3925.43
-6592.99
-6153.72
-5092.66
-4952.14
-11083.3
-8482.13
-9083.09
-7516.29
-4353.05
-3651.6
-1799.65
-1258.44
-4136.26
-3876.36
-1698.26
-1719.18
-3273.62
-4871.46
-3817.76
-5251.14
-3914.15
-2732.95
-3596.39
-772.506
-7360.5
-2082.14
2396.24
122.391
-1183.34
-552.89
-25.3799
362.18
-2377.91
-1557.48
-903.961
-498.835
-2568.23
-1665.02
-1401.98
-615.557
-2909.61
-2019.42
-1967.36
-929.211
-1432.73
-270.762
362.807
824.928
-5380.66
-5739.31
-4227.04
-3915.92
-7361.07
-7354.57
-6154.18
-5165.44
-2737.15
-2971.01
-3968.26
-4489.12
-2636.18
-2269.29
-1194.91
-1075.93
-4010.84
-3158.4
-2084.21
-1651.76
-1518.4
-1621.52
-397.157
-705.375
-1751.13
-1132.87
-2412.16
-1608.84
-2613.62
-1928.51
-3649.15
-2587.04
-731.632
-419.195
-1239.11
-656.176
245.824
397.552
-395.7
96.9439
-3351.92
-4063.99
-2654.93
-3786.12
-3340.74
-4110.08
-2716.89
-3779.41
-3584.23
-3883.07
-2882.59
-3602.07
-3123.22
-5194.99
-2556.55
-2070.92
-2001.35
-7682.32
-5346.7
-4666.36
-4513.65
-4185.71
-6186.48
-5060.83
-4101.37
-3593.01
-2557.04
-4659.1
-4528.44
-5693.82
-8731.52
-4482.82
-4127.17
-5481.08
-8345.96
-4236.87
-3946.07
-5080.06
-7734.32
-7365.31
-5629.25
-6433.57
-4833.64
-5360.78
-4172.07
-5127.34
-4556.23
-4750.29
-7146.06
-5964
-5582.53
-4872.48
-4792.96
-4133.27
-4243.78
-3946.68
-4542.73
-3243.41
-6157.59
-4004.17
-2845.46
-2803.33
-1127.52
-5947.97
-5168.75
-4635.74
-3483.32
-2057.24
-746.915
-3058.62
-2359.84
-3337.39
-1097.28
-565.631
8.40467
-3843.22
-2561.61
-783.714
-497.401
-2661.81
-736.363
-375.782
106.603
-1692.19
-1629.3
-1669.23
-3081.52
-2578.11
-2766.51
-2347.78
-4257.9
-1912.26
-1110.91
-960.148
-1909.46
195.844
349.194
763.447
178.182
-3208.83
-938.205
-5809.24
-540.47
-3036.15
-1025.73
-5667.01
-564.242
-2410.38
-645.537
-5155.06
-413.019
-3123.96
-734.797
-2739.58
-659.802
-2766.87
-842.491
-2664.34
-504.105
-4849.85
-575.811
-4227.72
-876.917
-3677.72
-616.508
-3475.94
-677.599
-3571.1
-515.475
-5098.68
-609.251
-675.756
-165.236
88.1122
264.937
-234.262
-49.8105
30.9135
79.7894
-674.946
-144.038
92.5438
241.214
-179.705
-0.995382
16.4731
29.0241
-700.501
-120.435
76.5875
193.486
-85.5615
131.423
237.896
253.692
380.116
322.121
388.01
372.318
771.128
512.78
372.814
249.506
-346.928
38.4214
248.201
419.456
-275.044
88.7039
177.387
406.186
-748.177
-109.019
127.177
322.669
-573.605
-4.70939
143.559
499.331
43.7037
191.285
270.835
349.161
2.58514
173.936
186.027
285.67
435.596
342.031
266.561
193.944
303.034
265.6
198.039
175.565
-1042.15
-259.279
101.32
437.275
-1265.96
-290.027
-20.1744
535.746
-1004.52
-232.117
113.349
446.175
-1220.42
-270.757
-19.0108
531.132
-941.8
-190.166
67.4278
371.515
-1115.34
-234.122
-49.402
473.701
-637.93
-73.8594
50.072
242.376
-1161.24
-211.486
-70.146
583.529
-591.597
-26.6269
73.0007
371.356
-1153
-216.439
-53.7857
366.918
-497.262
-81.8
4.61922
89.7135
-1082.25
-190.986
-40.9233
368.938
-474.865
-73.5218
5.61283
86.9747
-937.483
-140.537
-40.1174
355.719
-407.984
-52.2768
14.1712
90.5684
-777.474
-96.9295
-57.651
314.277
-337.482
-30.6392
9.44021
84.3108
-580.931
-28.3757
-19.5979
266.073
-180.956
19.0652
14.9042
80.2516
-278.831
69.7837
122.293
261.096
57.8318
134.79
108.777
123.458
-482.905
-3.83536
52.4166
262.549
-31.5851
83.2111
61.6348
101.938
-25.8271
152.027
161.965
236.701
152.265
178.249
143.065
133.279
234.158
226.427
170.523
166.983
256.189
214.591
152.463
122.975
56.3219
14.834
5.25651
2.49355
1.59806
23.477
7.03212
2.69368
1.32283
0.857455
64.0149
20.7725
8.76825
4.52491
2.98169
35.4986
14.5977
6.93718
3.73978
2.49685
78.0675
28.813
13.2475
7.07052
4.70792
90.3394
42.0864
21.3456
11.7701
7.90835
101.485
49.1232
25.2319
13.9495
9.37386
112.221
60.0726
32.0229
17.9029
12.0597
94.0379
37.7871
18.2242
9.87986
6.59956
79.4787
33.3164
16.3662
8.91547
5.9638
85.0734
31.3282
14.7158
7.92683
5.29155
68.731
30.5907
15.5746
8.59714
5.78174
100.877
43.5183
21.4812
11.7208
7.84292
80.1869
37.5093
19.0874
10.5123
7.04998
93.678
48.9907
25.9547
14.485
9.75247
77.8918
40.5311
21.4169
11.9386
8.03376
62.3677
13.4043
4.29515
1.95597
1.23781
29.2525
5.49142
1.67658
0.754455
0.476482
65.9729
16.827
6.40081
3.18815
2.08049
30.5175
6.71027
2.43289
1.19857
0.780895
66.9172
20.0456
8.60333
4.50397
2.9859
32.7394
10.5531
4.86553
2.62747
1.75905
72.5934
27.5966
13.4179
7.35005
4.94382
42.4676
16.3154
8.10803
4.47403
3.01733
58.669
29.7053
15.7454
8.83522
5.97639
-1999.73
-3818.53
-2070.39
-3835.44
-2277.81
-3880.49
-2522.47
-4000.62
-2455.02
-4029.31
-1013.88
-1523.08
-1633.35
-2496.91
-525.342
-741.48
-136.36
-203.931
-9885.48
-2357.86
-541.049
-121.2
-30.2524
-2668.71
-724.78
-193.247
-44.062
-9.62817
-9703.51
-2300.08
-528.013
-117.411
-29.5437
-2722.21
-807.646
-199.489
-46.506
-11.6012
-9153.95
-2162.6
-495.784
-110.283
-27.816
-2635.77
-777.811
-191.707
-44.5016
-11.1485
-8274.62
-1944.86
-445.589
-99.1944
-25.0586
-2530.83
-733.303
-178.838
-41.216
-10.2832
-6869.23
-1609.01
-369.263
-82.391
-20.8583
-2352.81
-666.869
-161.346
-37.0218
-9.22204
-3247.37
-792.775
-184.812
-41.5258
-10.533
-1140.03
-326.757
-78.4162
-17.6953
-4.40152
-4837.55
-1166.02
-269.939
-60.3769
-15.2914
-1677.28
-476.759
-115.51
-26.5121
-6.65388
-1902.52
-467.949
-109.53
-24.7207
-6.28067
-632.775
-188.013
-44.7342
-10.0751
-2.52679
-646.034
-157.866
-36.9784
-8.36333
-2.12375
-234.344
-62.8217
-13.6283
-3.91233
-0.743111
-163.224
-1428.38
-6050.72
561.265
-6937.41
-3061.15
-6734.87
-3140.25
-12328.9
-6586.62
-13791.2
-7298.68
-110.271
-395.035
-615.593
-725.288
-640.744
-198.827
-180.954
-626.832
-951.649
-1062.51
-861.895
-262.899
-91.3831
-94.7366
-310.929
-310.505
-441.23
-437.957
-419.94
-407.277
-364.118
-371.232
-249.379
-259.856
856.069
2104.49
3418.68
2431.73
2208.25
1021.82
757.663
2110.03
3442.85
4017.8
3352.45
1488.67
-99.3089
-83.8055
-63.3895
-39.4402
-13.3801
-356.204
-301.067
-228.107
-142.125
-48.2547
-554.972
-468.963
-355.246
-221.311
-75.135
-653.61
-552.058
-417.996
-260.308
-88.3577
-577.532
-487.843
-369.337
-229.949
-78.036
-182.101
-156.211
-119.547
-74.7506
-25.3697
-162.817
-137.253
-103.71
-64.4778
-21.8656
-564.67
-476.729
-360.813
-224.633
-76.2375
-856.826
-722.974
-546.913
-340.386
-115.507
-955.669
-805.477
-608.724
-378.611
-128.443
-774.426
-651.985
-492.247
-305.979
-103.778
-237.725
-201.41
-152.774
-95.1636
-32.2861
-82.3742
-69.5917
-52.6979
-32.8172
-11.1387
-85.4491
-72.2438
-54.749
-34.116
-11.5835
-280.533
-237.276
-179.901
-112.15
-38.0878
-280.203
-237.051
-179.772
-112.089
-38.0708
-398.036
-336.599
-255.16
-159.043
-54.0095
-395.027
-333.997
-253.144
-157.764
-53.5713
-378.9
-320.467
-242.948
-151.426
-51.4198
-367.122
-310.161
-234.885
-146.288
-49.6559
-328.717
-278.111
-210.804
-131.32
-44.5695
-334.173
-281.833
-213.03
-132.465
-44.9224
-226.247
-192.171
-145.863
-90.7509
-30.7399
-233.939
-197.193
-148.841
-92.3725
-31.2794
755.749
625.494
466.79
289.09
98.2046
1848.59
1524.61
1136.95
705.825
240.82
2963.92
2423.67
1805.35
1128.98
390.639
2092.29
1705.85
1273.83
800.727
278.165
1931.58
1579.47
1174.65
727.71
237.168
922.71
770.878
582.26
362.586
115.735
669.946
555.187
414.487
256.549
87.0665
1860.13
1538.2
1147.86
711.449
242.016
3013.6
2478.7
1846.45
1147.14
392.143
3490.54
2855.69
2124.61
1323.89
455.093
2911.01
2379.92
1771.02
1104.22
378.401
1306.12
1078.95
810.378
508.267
174.19
196.311
483.502
707.847
821.749
740.348
311.718
304.672
752.124
1076.09
1177.12
953.967
328.672
157.357
149.769
377.834
367.629
507.649
495.884
481.102
457.384
428.871
383.998
370.526
303.256
-720.108
-1900.3
-3068.38
-1970.12
-1664.89
-438.614
-701.022
-2022.31
-3250.59
-3673.8
-2860.12
-903.304
177.375
150.297
114.177
71.2936
24.235
436.514
369.516
280.427
174.96
59.4475
638.809
540.511
410.01
255.718
86.8718
741.406
627.129
475.572
296.542
100.729
668.385
565.734
429.241
267.731
90.9514
285.102
244.542
187.493
117.607
40.0188
275.127
232.974
176.874
110.392
37.5172
678.49
573.825
435.1
271.289
92.149
970.031
819.707
621.053
387.019
131.424
1060.13
894.946
677.463
421.933
143.246
858.509
724.178
547.856
341.1
115.794
297.751
252.906
192.403
120.169
40.8358
142.213
120.537
91.5932
57.203
19.447
135.357
114.727
87.1777
54.4446
18.509
341.25
289.006
219.425
136.945
46.5385
332.047
281.224
213.524
133.264
45.2881
458.375
388.074
294.544
183.778
62.4453
447.677
378.94
287.551
179.386
60.9474
434.545
368.023
279.401
174.356
59.2468
412.768
349.234
264.887
165.186
56.1118
387.893
328.961
250.004
156.09
53.0458
346.46
293.029
222.159
138.482
47.028
336.905
287.202
219.076
136.991
46.5584
274.069
232.157
176.169
109.829
37.2879
-632.05
-519.787
-385.805
-238.208
-80.86
-1663.15
-1366.46
-1016.11
-630.15
-215.112
-2643.41
-2147.71
-1592.52
-994.867
-345.04
-1657.01
-1318.98
-965.417
-600.055
-207.87
-1412.55
-1113.78
-799.168
-479.59
-148.223
-363.444
-266.903
-173.956
-91.4527
-18.4813
-618.676
-511.645
-381.348
-235.847
-80.0348
-1781.04
-1471.34
-1097.25
-680.018
-231.391
-2838.28
-2328.41
-1730.99
-1074.51
-367.403
-3172.5
-2578.72
-1908.17
-1185.55
-407.387
-2451.37
-1975.63
-1451.66
-897.787
-306.457
-757.249
-593.923
-425.346
-258.207
-86.776
-1559.85
-986.786
-343.555
515.331
808.365
1022.58
429.066
-11279.1
-1952.02
-3358.62
-1585.63
152.238
-3938.05
716.819
2293.22
1043.41
-6155.39
-2879.64
-649.934
-673.276
-3387.12
-1398.21
-357.528
-1076.57
1898.89
1123.91
-579.126
-274.762
-7961.85
-3669.46
-4472.15
-2187.86
-3525.5
-3570.9
-1180.27
1126.79
-522.581
-788.103
-507.433
-403.7
-443.319
-462.48
-626.723
-406.215
-268.964
-184.775
-92.1359
-288.108
-226.764
-163.946
-101.257
-34.9596
466.35
395.623
300.608
187.59
63.7406
727.793
613.708
463.584
287.968
97.5692
920.609
776.384
586.675
364.618
123.59
391.05
333.062
252.642
156.531
52.7287
-7827.33
-6650.95
-5624.05
-5290.36
-5176.45
-1249.27
-794.843
-803.513
-840.114
-563.379
-2333.56
-1670.22
-1348.13
-1088.27
-628.112
-1010.28
-641.707
-546.973
-456.88
-196.077
150.105
127.715
85.5458
38.3893
5.88093
-3234.22
-2588.21
-1934.88
-1274.63
-497.89
650.736
545.616
403.148
241.592
78.1997
1980.17
1604.06
1175.19
718.335
242.227
934.086
780.111
582.365
357.628
119.964
-4161.67
-3660.3
-3120.95
-2966.61
-2917.82
-1970.56
-1383.22
-1097.16
-856.436
-461.584
-509.17
-399.607
-320.233
-240.963
-107.116
-540.3
-421.141
-318.614
-217.376
-86.2639
-2787.6
-2208.95
-1649.66
-1078.65
-412.336
-1163.77
-924.396
-689.272
-446.977
-162.175
-282.534
-213.102
-153.775
-99.8161
-37.5842
-920.738
-743.568
-551.638
-347.305
-121.411
1688.56
1404.75
1048.49
645.841
217.723
1012.14
851.885
640.522
395.234
133.045
-479.67
-379.804
-283.738
-185.254
-68.446
-217.14
-164.801
-121.872
-81.9135
-31.4314
-4783.15
-3225.44
-2664.97
-2452.44
-2227.61
-2638.48
-1926.87
-1413.65
-984.406
-449.431
-2946.56
-2241.54
-1708.47
-1326.08
-655.91
-1608.44
-1212.83
-889.025
-615.82
-282.348
-2922.1
-2318.03
-1720.16
-1107.47
-407.166
-2471.01
-1620.23
-1245.28
-943.068
-413.71
-995.347
-794.543
-586.759
-371.2
-131.333
1016.44
857.527
646.623
400.175
135.032
-411.584
-313.295
-233.329
-158.589
-61.9122
0.603421
31.1061
69.4385
81.2456
30.7297
-88.3658
-21322
-18843.6
-17863.9
-20346.3
-15661.6
-12424.9
-14029.9
-10670.1
-18610.7
-16405.7
-17159.6
-16214.7
-15083.3
-12881.3
-15882.4
-17614.7
-15766.8
-14407
-16230.7
-13279.3
-11254.2
-11793.8
-9466.89
-16757
-14989.3
-15455.1
-14163.8
-13411.5
-12513.9
-12987.6
-13896.6
-12751.8
-11437.1
-12504.3
-11085.7
-9539.44
-9872.65
-8477.12
-14082.5
-12911.1
-13119.5
-12081.8
-11436
-10572.6
-10970.4
-9761.26
-9192.55
-8095.47
-8583.17
-8260.34
-7419.63
-7352.13
-6714.38
-10222.5
-10363.4
-9652.28
-9775.53
-8627.79
-7812.67
-8697.68
-6265.34
-5992.83
-5218.36
-5445.31
-5547.11
-5029.9
-4860.36
-4487
-6789.66
-6813.05
-6488.91
-6386.04
-5919.27
-5357.14
-5815.65
-2259.4
-2180.16
-1889.24
-1956.53
-2051.75
-1916.89
-1782.61
-1661.44
-2569.02
-2578.73
-2409.41
-2314.59
-2224.63
-2042.78
-2193.72
-7969.94
-7846.18
-12007.4
-12947.5
-7478.65
-6635.13
-10529.5
-8559.45
-6102.76
-4414.61
-6064.77
-4404.22
-6078.56
-5836.69
-4505.06
-7917.44
-7511.05
-10694.3
-11660.3
-6971.49
-6303.69
-9303.37
-8000.3
-6048.08
-3803.94
-5948.46
-4048.55
-5431.05
-5239.03
-4467.63
-7189.19
-6849.26
-9056.14
-9712.38
-6432.12
-5974.43
-8101.32
-7158.28
-4949.83
-4034.02
-4940.77
-4298.96
-4608.75
-4631.6
-4512.61
-5751.6
-5533.76
-6768.32
-7111.87
-5252.54
-4904.23
-6261.52
-5705.54
-4659.76
-3550.7
-4587.25
-3824.65
-4289.57
-4277.2
-3963.68
-3938.35
-3813.15
-4462.2
-4634.24
-3548.09
-3279.8
-4201.82
-3853.63
-3229.47
-2690.41
-3163.57
-2863.81
-2963.4
-2925.49
-2785.33
-1459.79
-1415.34
-1628.05
-1682.48
-1311.83
-1204.86
-1542.97
-1420.53
-1052.94
-979.418
-1123.88
-1081.67
-1092.49
-1067.56
-1011.88
7668.45
24758.4
6095.45
25908.7
4567.34
26741.9
7193.99
41042.5
8832.7
56380.6
8777.31
41162.6
8469.96
34211.9
8818.61
29960.6
5343.2
3346.6
14317.5
8542.09
5218.35
2825.56
15582.8
7743.07
5857.44
4296.23
18496.1
13161.2
4438.73
3255.15
18571.8
13624.7
10483.4
4446.09
9087.28
4072.98
4216.87
9840.33
35805.8
9665.82
12845
4285.05
45928.4
12411.5
11945.1
4049.52
25698.9
7949.32
13203.3
4571.38
22457.7
7117.69
6702.83
3324.12
9419.82
3702.08
7332.23
3955.57
9345.96
3619.85
9195.36
5262.09
8049.27
3533.07
11728.3
4242.54
4017.86
1411.31
13352.3
9361.42
8180.44
6030.48
14587.7
12035.1
7934.05
6865.84
7876.93
5415.3
11286.4
7695.34
5334.41
3941.95
2639.21
2173.94
5062.14
4370.82
2535.69
2459.43
5196.23
3455.53
2604.69
1685.8
7128
3902.35
5430.37
6470.27
9895.35
7057.42
7977.8
11165.3
4659.01
2225.87
3169.84
3675.39
2271.48
954.977
1342.24
1351.87
9102.23
16353.9
6128.88
18199.4
10655.3
15970.4
7550.86
18978.8
12003.7
14397.2
9642.36
18397.6
13470.1
15597.5
10550.4
10272.6
11133.6
15641
14939.9
15110.3
15725
22463.2
12729.7
10181.1
9086.16
10229.7
15746.1
19063.4
17135.3
22022.8
21287.9
17425.3
16226.9
21677.9
20813.5
15064.1
14773.6
20268.4
20003.6
11504.5
9137.77
11168.5
9896.06
12412
11354.8
13543.3
13217.3
18512.4
19191.4
10713.2
9454.41
10587.3
10507.7
11161.7
12188.9
12666.5
14568.7
16448.2
19412.7
8953.92
7054.9
6081.31
7659.07
11768.5
14171
8096.79
12699.2
5278.66
6842.38
7947.38
6596.91
1524.72
5049.11
726.608
1777.9
4103.95
8468.85
1456.03
2888.33
827.874
4366.48
400.843
1506.2
5251.47
5317.89
5981.01
3806.81
8374.47
6780.93
9846.15
6928.81
1328.25
2909.95
2978.74
1753.03
1610.4
2069.94
2262.56
1716.39
13751.9
8402.63
2675.1
15487.6
8960.69
2945.02
13168.1
8298.87
2823.96
15202
8952
2939.58
12110.6
7633.06
2522.15
14792.1
8974.62
3006.9
6160.53
3471.26
984.707
8133.49
5398.33
1866.76
9870.29
6806.62
2348.64
11520.8
7513.2
2504.72
14615.4
9190.17
3209.62
7202.8
4190.74
1377.02
7817.55
5662.38
2148.07
9426.32
6961.22
2573.85
11718.3
8252.52
2969.77
14807.9
9338.13
3332.75
299.484
2040.48
2889.05
4159.56
2278.24
2595.02
5699.95
5384.57
585.551
998.202
623.805
1035.39
482.007
1392.67
862.672
1826.62
3199.97
1566.46
4057.85
2354.01
2136.43
3720.97
3415.59
793.173
6285.43
1422.64
-2113.6
506.965
1683.92
1165.08
1104.05
923.121
9606.56
4235.55
2599.23
1561.85
9735.67
4394.71
3294.38
1988.55
9616.96
4714.36
4748.87
3223.66
3377.99
2357.4
1523.95
1450.93
12812
11342.7
5993.6
6196.55
14051.7
13150.3
6903.97
6936.26
5208.07
5336.41
10809.8
8964.24
3514.24
3687.14
1871.36
2178.9
4198.87
4170.7
2216.06
2403.25
2978.82
3235.37
1575.27
2024.29
4538.8
3046.97
4490.26
3039.63
7131.72
4017.24
6730.03
4221.66
2667.7
2181.16
2812.5
1941.58
1399.79
1314.88
1755.84
1117.27
11246.1
7475.96
5450.18
5320.81
11173.5
7714.16
5466.38
5298.28
11668.8
8154.58
5544.43
5178.53
14058.6
15480.9
12578.6
8225
4449.44
14680.3
13263.5
12033.4
9690.83
5924.8
13735.6
12159.5
9517.58
7137.01
4232.31
6032.76
5139.75
5459.61
5991.36
6331.88
5145.62
5565.42
5976.01
6789.49
5301.64
5704.29
5994.96
11073.2
7864.52
10038.6
6955.09
7673.85
6106.74
6947.13
5796.52
5348.65
6021.95
9216.08
8025.64
7937.07
6890.34
6577.98
5885.38
5584.09
5416.94
4181.59
5716.74
7088.08
4809.02
4691.93
2852.18
9472.5
7315.36
6547.71
5316.43
3724.62
2236.43
5420.61
3964.8
4682.79
2227.9
1655.42
945.026
5057.9
3684.26
1704.45
1418.88
3964.3
1753.11
1510.92
780.907
2959.79
2651.09
2451
3516.98
4135.02
3797.81
3115.35
4472.03
3031.31
1897.49
1799.03
2408.18
866.509
400.387
111.507
399.896
3496.34
1465.95
434.624
3928.82
1038.18
277.821
3604.74
1608.34
494.911
3958.38
1086.28
305.777
3497.43
1656.2
434.645
3961.2
1128.47
269.102
4942.89
2585.37
622.076
4239.09
2089.71
517.885
3937.39
1907.24
526.212
3709.3
1744.93
385.883
4008.88
1130.49
178.522
6137.68
3164.79
886.957
5280.15
2648.08
741.882
4593.3
2278.13
668.008
4143.46
1795.78
453.114
4362.84
1073.4
266.6
1594.33
558.451
122.686
-120.414
661.524
242.741
68.7755
-20.5951
1690.97
611.803
166.791
-66.1269
844.807
335.967
160.504
72.3292
1806.05
674.205
243.14
21.7318
1425.55
629.144
222.903
43.2267
1059.93
558.058
157.605
-30.2593
951.419
583.573
301.869
161.043
1471.43
624.051
174.649
-127.41
1241.64
519.327
217.495
-117.212
1750.41
658.556
215.257
-72.0383
1566.3
590.724
234.061
-189.031
1158.45
562.242
200.914
-45.905
937.387
445.33
223.39
1.50915
826.636
474.507
255.815
142.693
626.928
361.348
224.035
120.225
2014.03
676.139
132.839
-245.312
1956.55
619.969
192.59
-328.977
2010.56
684.362
147.98
-233.893
1894.88
601.935
197.693
-319.143
1969.65
683.415
211.787
-154.817
1773.88
568.809
233.136
-253.521
1725.97
627.758
275.667
10.0215
1945.57
634.005
317.378
-292.947
1526.19
555.335
268.879
-62.3832
1519.23
434.657
167.828
-214.373
597.959
157.597
44.9694
-40.4094
1574.48
462.619
181.354
-202.014
624.3
169.636
55.0508
-29.5039
1622.91
497.214
215.964
-173.775
645.31
185.107
67.8473
-17.6261
1471.61
468.046
243.123
-131.794
633.396
191.366
90.5948
3.64076
1352.15
462.632
253.732
-68.7587
574.23
201.02
119.277
31.4328
924.915
358.446
166.204
-23.7731
535.042
250.678
140.376
68.6806
1078.79
373.628
185.421
-53.6294
546.823
224.532
131.202
51.0898
733.821
335.114
169.562
22.5873
467.846
253.665
144.949
85.5503
503.505
291.352
182.327
102.935
375.964
241.842
154.259
107.684
-11.1976
3.53178
3.53921
2.24688
1.55767
-1.83287