/*--------------------------------*- C++ -*----------------------------------*\
| =========                 |                                                 |
| \\      /  F ield         | OpenFOAM: The Open Source CFD Toolbox           |
|  \\    /   O peration     | Version:  2306                                  |
|   \\  /    A nd           | Website:  www.openfoam.com                      |
|    \\/     M anipulation  |                                                 |
\*---------------------------------------------------------------------------*/
FoamFile
{
    version     2.0;
    format      ascii;
    arch        "LSB;label=32;scalar=64";
    class       volScalarField;
    location    "1.5";
    object      gradTx;
}
// * * * * * * * * * * * * * * * * * * * * * * * * * * * * * * * * * * * * * //

dimensions      [0 -1 0 1 0 0 0];

internalField   nonuniform List<scalar> 
5712
(
-7012.17
-8963.33
-16593.4
-24279.5
-24791.7
-42757.7
-18996.5
-48350.3
-15441
-33922.2
-23094.7
-35155.8
-20687.9
-27188.2
-9110.25
-10433
-15760.2
-18077.8
-20273
-20108.5
-15905.1
-19608.7
-23399
-20965.8
-5742.24
-4357.96
-7133.33
-4833.99
-13336.3
-10748.8
-22700.2
-16533.1
-17557.6
-18294.8
-19594.6
-18861.9
-7010.39
-5417.38
-41384
-55395.1
-26770.2
-32850.5
-55442.9
-71977.3
-28688.2
-32850.9
-30786.7
-43473.9
-26923.5
-35640.5
-15823.5
-25429.9
-3082.51
-1043.4
-3236.77
-1170.88
-9292.88
-3765.82
-12686.1
-4687.32
-9112
-3482.01
-9572.08
-3078.33
-16253.6
-5184.75
-20950.7
-7087.07
-25271.6
-12631.4
-23137.5
-13706.9
-23545.6
-15244.7
-20720.6
-15499
-18330.4
-10912.9
-18375.2
-9442.91
-23883.4
-15195.7
-23944.1
-15316
-21899.2
-16360.1
-22165.1
-16407.7
-19780.9
-12539.7
-20483.2
-12831.7
-18797.1
-8208.26
-8755.96
-10755.4
-18869.1
-9000.35
-7699.66
-10985.9
-19890.9
-8144.28
-9878.32
-10783.4
-20874.6
-8330.42
-10720.7
-11236.7
-3990.14
-4370.32
-1351.84
-2702.34
-11622.7
-12307.5
-4552.56
-8228.09
-14893.5
-16473.9
-7354.64
-12582.8
-12295
-758.356
-14016.7
-17622.2
-9750.86
-405.605
-7239.79
-12771.5
-20750
-14962.4
-10430.9
-12800.9
-11381
-9991.83
-15755
-3779.23
-3073.48
-2176.23
-2149.22
-10592.6
-8790.67
-6503.22
-6158.52
-13148.4
-10881.5
-8488.37
-7568.49
-5726.94
-7382.46
-11970.8
-12502.6
-14529
-13184.4
-16428.9
-14160.4
-11490.7
-9683.77
-9253.44
-9515.38
-12278.4
-9349.81
-11303.7
-7909.9
-9903.78
-6564.32
-11798.5
-7619.85
-10432.9
-4458.8
-9048.32
-9582.05
-12782.3
-16412.1
-14098
-20346.1
-7263.73
-7854.07
-9288.91
-2492.16
-8099.12
-15408.8
-7700.9
-16593
-13976.6
-25167.1
-14225.9
-26791.4
-6206
-13367.5
-5673.03
-14317.4
-8629.02
-6316.97
-12138.1
-4642.46
-8737.43
-1244.46
-10505.1
-331.54
-8342.9
-9655.65
-12739.8
-5807.71
-6941.82
-11448.5
-11314.1
-7665.93
-2389.37
-2071.14
-1795
-1726.52
-1558.94
-1361.37
-7014.18
-5572.52
-4691.33
-4588.51
-3559.15
-3000.85
-8411.96
-7044.45
-6412.01
-5491.53
-4308.07
-3995.03
-6333.82
-5401.13
-5195.04
-10764.7
-7836.92
-6449.94
-10374.9
-7336.79
-5775.04
-10839.9
-8243.61
-7023.32
-7065.47
-4463.29
-3379.73
-15469.9
-12930.7
-10890.5
-10150.8
-8142.53
-6510.04
-9253.17
-6893.46
-5256.88
-7964.13
-5506.34
-4016.96
-8509.92
-4588.75
-2445.6
-10685
-14401.6
-8510.63
-10920
-11676
-17060
-10482.4
-15143.2
-17.0072
-708.701
522.067
-107.759
-2981.8
-3324.4
-1261.67
-680.885
-733.408
-2430.15
-9557.05
-13872.2
-6667.68
-3759.94
-10223.2
-10152.2
-15918
-17540.4
606.678
4254.78
-7727.87
-7263.79
-7348.6
-5657.06
-1017.3
-533.181
-689.964
-295.416
-1960.59
-148.316
335.607
840.618
-9263.83
-2297.81
-6344.15
-1614.69
-9187.92
-2769.74
-11107.5
-3514.29
-9079.81
-12056.6
-8361.09
-11731.9
-14754.2
-15448.3
-14041.8
-14586.9
-5662.93
-9291.59
-6562.05
-9248.64
-8854.86
-11282.2
-9748.57
-11372.1
-14618.2
-14301.7
-15290.9
-14335.6
-5704.83
-8971.72
-6191.42
-9111.06
297.463
-1112.05
-7096.95
-4164.66
832.446
-712.011
-6575.41
-3665.4
-159.618
-1380.55
-7242.38
-4546.61
-591.114
-1635.93
-7253.14
-4686.94
709.668
810.373
-145.023
19.5855
2952.22
2956.01
276.2
467.793
701.194
2041.69
-1481.66
-795.17
10224.9
9787.95
5539.59
4304.98
586.901
10675
10742.5
4247.1
6287.66
998.501
-10552.7
-8142.44
-7018.54
-6380.66
-3617.56
788.47
699.523
72.1708
-2.58273
2505.08
2349.45
234.183
41.4949
2538.98
2924.68
-460.968
-676.813
5103.03
2158.04
7970.57
4800.69
3527.72
2566.09
4011.62
3358.17
-167.532
-960.118
-3871.36
-2428.3
-1094.44
918.661
-931.501
740.104
-1451.03
-185.174
-1636.87
-1823.22
-5167.11
-4660.36
-9826.94
-5889.27
-8197.49
-8126.51
-12420.2
-9990.04
-7524.11
-4338.44
-3702.83
-3614.9
-11591.7
-5079.74
-12740.6
-5693.67
-13851.4
-10200.2
-14775.4
-10956.9
-9162.27
-3508.87
-10260
-4074.23
-5641.25
-4301.64
-3994.96
-5866.98
-3565.71
-3925.9
-3379.41
-5431.22
-6545.46
-4215.28
-4526.9
-6746.92
-8026.86
-4576.35
-5809.74
-6953.29
668.953
685.44
758.112
45.5062
242.43
266.29
2426.73
2483.24
2444.12
244.398
693.227
683.499
3115.12
3333.92
3356.9
-395.907
682.968
896.454
1066.83
892.503
590.26
3329.72
3336.59
3065.89
2693.16
2959.65
2874.2
3346.3
3462.83
3323.08
-1011.95
314.252
404.826
-3535.32
-2032.15
-1114.57
773.801
1736.37
2243.95
796.282
1982.56
2489.13
390.27
1641.35
1991.48
-1828.35
423.217
682.347
29.1172
31.601
35.1215
51.4528
242.827
126.908
99.0691
88.2492
19.926
60.3913
137.256
196.714
394.117
229.658
249.99
245.552
-183.197
17.4736
198.997
357.396
146.014
178.458
215.912
229.89
25.5527
103.002
93.5135
86.9506
-195.729
-15.2189
86.6668
140.137
-827.414
-180.115
42.1479
190.426
-1274.53
-302.319
-40.3089
342.691
-557.842
-77.8551
118.184
306.72
-1039.55
-228.949
-54.0962
293.433
-888.786
-213.693
71.3812
256.625
-1433.78
-359.462
-44.8162
406.797
-991.225
-275.589
69.5083
313.24
-1545.63
-409.569
-62.6853
424.55
14.5301
19.152
31.7419
66.2403
42.9326
28.2034
16.9392
59.8686
83.1684
67.1457
104.277
183.065
171.853
95.6903
56.8959
163.393
-329.168
-46.3629
103.696
306.585
-125.035
25.8392
67.8553
286.811
-31.0005
101.452
166.963
312.79
20.9689
84.8865
55.1151
288.654
-880.782
-173.697
-19.9988
399.368
82.1971
39.7883
24.931
47.3782
146.895
57.9978
28.1465
23.0518
173.975
94.871
50.8631
119.446
377.765
154.598
69.4701
58.5724
121.558
105.907
67.965
194.919
486.408
217.793
104.323
91.5881
-40.1143
96.4978
84.6726
271.856
401.324
235.577
122.303
114.846
-431.256
13.2152
21.2123
251.332
151.632
202.092
106.978
114.347
-1019.18
-112.619
-1.18792
285.537
-313.498
44.5132
58.5626
100.126
-770.174
-33.741
9.87974
264.868
-160.799
115.374
85.8205
111.933
-1243.7
-203.801
-28.6184
310.38
-445.204
-21.6143
34.4617
92.5367
-1409.16
-290.176
-64.5005
304.823
-560.97
-88.8166
3.98672
79.1389
22.4361
9.18022
4.27935
2.25107
1.47734
29.4094
13.8179
6.88869
3.72297
2.46731
53.5489
21.209
9.81198
5.1593
3.38782
65.7447
30.6162
15.2631
8.26821
5.48846
71.0083
26.4868
12.0726
6.32972
4.15512
87.4684
40.2145
20.0368
10.8704
7.22293
45.1657
20.3882
10.1186
5.49725
3.65887
32.6974
12.1478
5.47541
2.87243
1.89189
69.8944
26.6937
12.3794
6.55258
4.31895
33.5913
11.0765
4.84532
2.51521
1.64728
73.9593
30.8159
14.9497
8.03823
5.32352
31.8941
11.0272
4.9742
2.60685
1.71228
54.1183
17.6215
7.55587
3.89068
2.54427
31.8199
9.83003
4.19378
2.16519
1.41816
48.0728
11.7698
4.06137
1.88868
1.19262
26.6314
5.63934
1.78745
0.801586
0.500124
18.9434
7.07997
3.20147
1.66456
1.08754
13.8418
5.63345
2.6621
1.40609
0.922919
46.4101
17.6255
8.13731
4.27779
2.80827
35.817
14.7393
7.06864
3.7626
2.47894
65.0174
21.8372
9.68788
5.03286
3.29411
48.533
20.1974
9.80959
5.25504
3.4734
57.5784
23.9542
11.7195
6.30559
4.17339
32.9149
15.1917
7.6243
4.12979
2.7399
29.4416
12.9425
6.45731
3.49205
2.31473
-256.544
-412.598
-521.713
-990.882
-411.069
-1201.86
228.874
-872.265
923.869
176.364
-576.68
-1132.94
602.562
506.065
-1124.21
-1858.3
-1500.45
-2175.23
-711.548
-167.09
-37.9257
-8.43571
-2.13202
-211.561
-103.525
-14.3171
-3.90281
-1.75945
-2184.01
-510.158
-116.189
-25.7149
-6.50817
-495.754
-139.143
-34.6564
-7.37066
-2.02866
-3652.95
-854.838
-195.234
-43.3609
-10.9522
-799.051
-238.992
-59.0683
-13.9155
-3.54201
-4864.94
-1141.68
-261.877
-58.3574
-14.7626
-927.952
-300.835
-76.7262
-18.2609
-4.63271
-6021.58
-1427.14
-329.723
-73.8728
-18.7731
-1026.06
-366.857
-96.233
-23.1782
-5.94718
-7016.58
-1713.63
-401.581
-90.7997
-23.1995
-1672.6
-520.604
-130.052
-30.1901
-7.64503
-6578.91
-1602.07
-373.766
-84.1365
-21.4204
-1260.5
-435.169
-112.582
-26.7256
-6.78342
-7202.92
-1760.7
-413.356
-93.6206
-23.9626
-1919.59
-575.11
-141.28
-32.3031
-8.15398
-7488.42
-1814.33
-426.467
-96.545
-24.6987
-2002.2
-600.696
-148.755
-31.6103
-8.43502
-538.138
-7302.41
-6665.69
-2367.71
1707.62
2895.45
8044.94
11774.6
1789.99
8633.02
-1827.35
2555
2521.51
5074.99
9673.02
13724.9
14622.8
18386.8
5974.61
7744.5
-20057.1
-14389.9
-4328.71
-3244.4
-2312.77
-3258.75
-3145.68
-12159.4
-11214.7
-9709.29
-10180.6
-8185.79
-5915.19
-7875.93
-5031.39
-4264.76
-5110.91
-3507.25
-19778.8
-10031
-3362.8
-5801.07
-8122.09
-5587.04
-5974.46
-4400.67
-2590.73
-3645.57
-3975.56
-4319.52
-19682.5
-12764.1
-12054.9
-8626.53
-8434.83
-8984.94
-3624.04
-4713.11
-6206.99
-13989.2
-11790.8
-9568.28
-8450.69
-6898.38
-9250.51
-6248.87
-4705.98
-3462.41
-1704.04
-3798.43
-3125.58
-2322.28
-1435.9
-488.754
-2885.33
-2402.84
-1797.8
-1111.73
-376.531
-2045.94
-1692.26
-1256.74
-772.137
-260.474
-2904.05
-2421.77
-1811.92
-1118.88
-378.263
-2779.02
-2297.28
-1707.41
-1051.15
-355.356
-7667.06
-5713.88
-4317.64
-3808.33
-3900.29
-6016.68
-4309
-2965.16
-2368.64
-1605.42
-6042.27
-3625.91
-2460.39
-1651.94
-762.53
-5183.5
-3428.26
-2223.18
-1559.85
-888.819
-3804.15
-2346.76
-1433.03
-957.724
-455.012
-4651.55
-3445.26
-2354.79
-1391.6
-474.284
-5354.25
-3444.05
-2233.65
-1317.47
-482.487
-3299.08
-1983.75
-1189.46
-641.763
-214.436
-3494.23
-2677.27
-1868.77
-1108.48
-371.703
-4058.73
-3011.01
-2038.14
-1179.02
-389.585
-2906.16
-2246.97
-1574.96
-932.123
-310.131
-12858.7
-9565.7
-7463.17
-6324.73
-5701.74
-7313.55
-5236.22
-3753.92
-2477.4
-1077.68
-2779.66
-2156.27
-1528.75
-922.872
-315.509
-4875.12
-3856.29
-2790.86
-1716.97
-596.731
-6594.29
-5112.6
-3701.19
-2337.27
-868.472
-4714.44
-3756.16
-2746.45
-1709.39
-599.89
-5129.62
-4146.82
-3055.51
-1897.93
-657.161
-3803.37
-3082.34
-2263.49
-1392.36
-474.817
-2222.5
-1779.18
-1284.31
-774.822
-259.674
-3193.87
-2615.86
-1927.74
-1179.89
-397.957
-3361.65
-2658.12
-1905.77
-1150.55
-388.43
-3716.98
-2995.53
-2185.88
-1336.76
-454.114
-13423.5
-10833.9
-8738.33
-7428.25
-6121.27
-8760.42
-6181.65
-4630.77
-3307.28
-1618.04
-8760.49
-6811.67
-5042.28
-3591.02
-1682.11
-6710.77
-5019.74
-3697.49
-2450.76
-974.313
-6966.05
-5497.61
-4038.25
-2572.47
-950.211
-6934.98
-5151.63
-3771.22
-2488.12
-976.63
-3084.76
-2468.52
-1801.52
-1111.58
-383.871
-4130.11
-3387.97
-2505.24
-1540.45
-521.658
-5300.35
-4256.87
-3117.44
-1927.55
-665.198
-5941.66
-12137.3
-12567.7
-34590.9
-12319.2
-46069.1
-6750.08
-16417.4
-12328.3
-9486.02
-20601
-17122.4
-12213.2
-11395.9
-23000.2
-18093.5
-4385
-3268.85
-8527.22
-5885.74
-9815.73
-7406.09
-26464.9
-19625.3
-16131.4
-12176
-16609.8
-9849.59
-1228.42
-4007.67
-42906
-56029.2
-25876.6
-32706.1
-56473.1
-72411.7
-27697.1
-32614
-32069.9
-44138.8
-26109.6
-35595.7
-17453.5
-26213.3
-2112.92
-559.612
-3725.45
-1273.32
-7185.75
-3227.6
-14609.4
-5288.55
-3140.51
-1796.74
-7869.89
-2481.92
-16285.1
-5127.37
-21148.8
-7141.1
-17232.6
-8986.13
-19986.3
-11854.5
-15535.7
-11157.4
-17578.8
-13549.4
-16103.4
-9430.38
-12702.6
-6622.95
-22671.9
-14366.9
-23642.8
-15090.3
-20648.7
-15514.1
-21830.5
-16178.3
-18969.9
-11859.8
-20293.9
-12644.6
-17746
-7894.83
-7774.5
-10352.2
-15862.9
-8091.16
-5866.97
-10234.3
-19624.7
-8068.06
-9423.78
-10589.5
-20849.4
-8325.41
-10593.7
-11181.3
-1213.05
-1104.65
-300.685
-1348.32
-4933.43
-5140.86
-3127.85
-6283.81
-2829.31
-3525.71
-4906.56
-9312.71
-12360.7
-9676.63
-9801.12
-12386.5
-8318.1
-7564.08
-8242.79
-7344
-14391.2
-12868.6
-12030.6
-10268.4
-7296.42
-6377.65
-13970.3
-1198.45
-896.358
-678.696
-763.374
-4604.41
-3636.95
-3944.89
-3480.06
-734.503
469.522
-4681.07
-3683.47
-10173.4
-10808.1
-9554.05
-8774.21
-7369.06
-5353.09
-9727.44
-7720.96
-8985.78
-7037.36
-11758.9
-11808.9
-10181.3
-7758.61
-7641.88
-5025.23
-6852.73
-4208.71
-10448.3
-6277.9
-9469.86
-4904.77
-8484.07
-9544.96
-13221.7
-17464.8
-13967
-20358.6
-6594.98
-7710.56
-7951.13
-2685.72
-7863.4
-15294
-7637.63
-16543.8
-13847.9
-25272.9
-14179.7
-26773.9
-5931.5
-13234.5
-5601.55
-14272.3
-8161.71
-6271
-11971.9
-4733.14
-7782.43
-1614.85
-10284
-1069.7
-8148.13
-9585.59
-12662.5
-5820.87
-6886.55
-11421.8
-11290.9
-7660.02
-873.943
-809.317
-611.556
-705.148
-2768.56
-2029.45
-2544.36
-2318.8
1052.46
514.194
-2974.24
-3277.57
-10659.2
-10023.9
-7816.63
-6650.2
-4266.13
-3542.05
-6071.69
-4976.45
-5928.31
-4304.74
-18311.4
-15822.1
-8137.78
-6755.68
-6333.27
-4659.72
-5348.76
-3301.26
-5832.98
-2414.02
-5641.57
-9291.33
-4909.26
-9485.49
-8596.98
-10666.1
-9698.96
-13197.7
-964.815
-670.691
-708.777
-583.407
-3598.39
-2488.24
-2887.01
-1514.59
-1218.79
-1541.34
-8310.4
-8887.26
-4575.65
-4093.89
-9543.38
-9969.18
-14951.9
-17258.7
489.753
4123.72
-7352.75
-7196
-7146.12
-5654.41
-1017.46
-902.68
-1102.37
-895.037
-1597.4
-995.543
-443.127
-337.487
-7968.33
-3494.66
-6764.89
-2905.51
-9300.47
-3529.56
-11153.7
-3819.06
-5338.92
-10254.5
-7025.16
-10753.8
-8841.97
-11925.1
-11726.7
-12936.8
-5104.62
-9000.03
-4572.3
-8950.62
-8274.96
-10862.5
-9573.86
-11258.7
-13627.9
-13601.6
-15005.9
-14145.8
-5509.33
-8856.08
-6139.13
-9085.17
-163.604
-1807.03
-7423.14
-4723.42
-138.96
-1864.56
-7349.6
-4516.71
-499.018
-1864.69
-7413.95
-4883.45
-729.452
-1829.53
-7302.83
-4801.73
-1013.82
-1097.67
-930.64
-983.767
-1935.09
-1952.61
-1236.29
-1306.39
-8115.74
-7365.36
-3518.4
-3467
-3544.51
-5040.9
-3826.88
29.4124
-1436.09
-1110.17
-1256.78
-3525.15
2810.08
-506.804
-14113.9
-11741.1
-10317.4
-8687.09
-5071.02
-1091.67
-963.839
-1092.94
-1319.79
-1913.71
-1486.07
-1670.51
-2200.84
-7605.34
-7378.93
-3821.69
-4853.35
-4938.77
-6638.16
-3005.55
-4936.46
-4623.14
-5020.52
-869.3
-1264.22
-2343.89
-3550.4
-9681.92
-7865.62
-7453.36
-5405.84
-6293.56
-4438.04
-5331.13
-3777.8
-3584.3
-3867.18
-8082.61
-7922.15
-10964
-7029.17
-10379.6
-11045.4
-13038.6
-10926.2
-8908.21
-5426.35
-6483.17
-6410.84
-12008.1
-5772.59
-12841.8
-5856.38
-13980.9
-10786.7
-14791.2
-11076.5
-9775.98
-4178.61
-10427.8
-4247.86
-6944.08
-5262.1
-5120.11
-6916.42
-5887.52
-6130.8
-5044.92
-7195.13
-7210.15
-4834.21
-5154.56
-7405.35
-8230.88
-4766.93
-6010.55
-7138.52
-754.686
-655.91
-947.925
-717.562
-1290.09
-1556.53
-1360.85
-1045.74
-7124.57
-6240.63
-3197.83
-1451.38
-7772.4
-7321.62
-5942.15
-5308.36
-4837.23
-4156.3
-1639.41
-1731.56
-3378.93
-1576.03
-8559.94
-7278.07
-4758.89
-3821.17
-3587.25
-2387.2
-2505.19
-1228.63
-3484.92
-91.4801
-191.471
-84.5727
-29.3174
15.2407
-167.181
-99.9226
-26.3283
16.8106
-521.034
-222.513
-2.12647
126.344
-445.316
-245.716
-5.19863
100.43
-866.444
-335.508
33.3634
290.674
-829.921
-386.957
-115.251
22.1164
-579.279
-261.946
-124.834
-38.888
-458.071
-179.285
-11.9503
81.5984
-1319.51
-452.842
-123.254
80.7199
-1567.03
-444.49
-115.527
327.707
-1255.35
-428.983
-76.2228
186.319
-1418.45
-397.919
-138.42
290.779
-1242.16
-420.397
-47.4416
193.24
-1628.68
-460.483
-103.587
385.953
-1135.08
-362.635
18.7913
285.473
-1616.4
-447.828
-85.2482
416.666
-180.05
-70.7831
-11.552
48.6589
-154.556
-53.5668
-25.03
44.9465
-463.264
-183.78
-13.7684
130.598
-387.383
-139.598
-62.54
117.794
-929.983
-317.35
-16.732
271.332
-841.817
-273.413
-80.9549
242.31
-1025.42
-362.947
-62.1324
209.341
-774.009
-254.282
-102.746
269.441
-1424.04
-394.915
-123.213
422.064
-112.206
-39.694
-11.7018
31.0612
-52.4903
-26.6796
-10.3725
0.998279
-337.94
-115.096
-52.5573
71.1443
-171.97
-79.7099
-40.0232
-3.71583
-601.485
-192.808
-81.2576
127.234
-346.777
-140.348
-62.1622
-2.06766
-915.398
-278.212
-101.455
195.24
-603.442
-207.865
-82.8523
1.50483
-1206.7
-336.785
-169.172
156.811
-809.328
-251.22
-114.695
-13.9692
-1609.11
-437.772
-184.239
193.643
-800.642
-236.649
-97.4955
5.50418
-1549.05
-426.615
-205.665
157.174
-885.029
-261.763
-111.641
-7.71216
-1595.03
-408.138
-146.327
252.834
-721.221
-194.207
-63.0474
35.7523
-1523.09
-358.495
-104.363
285.277
-645.965
-144.163
-27.7416
60.7746
-1.65896
-4.80862
-3.32878
-2.0146
-1.39315
-13.8538
-10.0705
-5.92969
-3.43991
-2.34952
-2.39337
-11.1039
-7.7238
-4.6673
-3.22445
-30.446
-22.5585
-13.298
-7.70161
-5.25439
2.47272
-13.3229
-9.51679
-5.7655
-3.98369
-40.7257
-30.0713
-17.6301
-10.1815
-6.93837
-20.3416
-15.2755
-8.98521
-5.1852
-3.52992
-0.779601
-6.1287
-4.33056
-2.61634
-1.80374
-5.9497
-15.1331
-10.0741
-6.00222
-4.12728
5.22679
-4.81319
-3.71201
-2.27394
-1.57569
-22.8263
-21.5373
-12.9496
-7.52389
-5.13809
1.62165
-5.68465
-3.98051
-2.39519
-1.65154
10.4645
-6.74044
-5.57504
-3.46306
-2.40613
7.15752
-3.83252
-3.14503
-1.94138
-1.34628
28.2471
0.668163
-1.93221
-1.47091
-1.06939
18.4355
1.02173
-0.705406
-0.595443
-0.440184
1.78813
-3.18847
-2.39475
-1.47143
-1.02182
-2.30535
-3.32143
-2.11683
-1.25526
-0.863885
-0.651555
-9.46246
-6.46121
-3.87837
-2.67402
-9.29819
-9.70552
-5.8941
-3.44512
-2.35893
11.6576
-9.79842
-7.44499
-4.55254
-3.1519
-16.5882
-14.4357
-8.48043
-4.90914
-3.34946
-21.2293
-17.8861
-10.4175
-6.01292
-4.1013
-20.8879
-12.4911
-6.89736
-3.92974
-2.66928
-16.2521
-10.6534
-5.96584
-3.41485
-2.32435
-31.0805
-196.882
-16.3547
-494.662
108.328
-668.102
471.112
-560.086
784.966
68.3203
-703.993
-1259.25
323.341
113.866
-1178.82
-1900.28
-1514.08
-2183.93
-667.14
-159.028
-36.2955
-8.09629
-2.05031
-169.8
-95.9211
-13.341
-3.72596
-1.69577
-2060.36
-486.955
-111.42
-24.7208
-6.26771
-403.786
-125.52
-32.5835
-7.07955
-1.97366
-3465.81
-818.57
-187.697
-41.7809
-10.5708
-702.457
-223.739
-56.6248
-13.504
-3.46335
-4655.91
-1099.08
-252.829
-56.4405
-14.2982
-882.012
-291.961
-75.0581
-17.9337
-4.56506
-5838.51
-1385.58
-320.448
-71.8574
-18.2782
-1054.14
-367.155
-95.7042
-22.9885
-5.8966
-6942.3
-1691.92
-396.08
-89.5144
-22.8691
-1697.53
-523.666
-130.306
-30.1784
-7.63173
-6462.65
-1569.8
-365.979
-82.3803
-20.9812
-1315.33
-440.305
-112.887
-26.683
-6.76199
-7162.63
-1748.62
-410.188
-92.8611
-23.7632
-1926.45
-575.826
-141.286
-32.2806
-8.14449
-7475.47
-1810.44
-425.427
-96.2916
-24.6316
-2002.77
-600.623
-148.705
-31.6009
-8.4312
-506.978
-7191.4
-6316.69
-2204.97
-1594.96
-899.827
-3733.39
-2639.16
-6658.36
-6200.21
-3190.84
-2378.78
-299.155
-467.803
-818.465
-1354.77
-2073.02
-2924.79
-218.986
-480.457
-1013.89
-1795.82
-2760.56
-3789.7
-225.595
-103.853
-394.629
-268.257
-739.298
-608.099
-1257.96
-1158.76
-1847.19
-1760.43
-2485.15
-2217.02
-3714.9
-4300.19
-4792.76
-7346.65
-8389.69
-9342.05
-4702.27
-5283.49
-5361.44
-4985.45
-4350.29
-3863.1
-269.938
-228.348
-173.163
-107.968
-36.6717
-421.75
-356.404
-269.995
-168.21
-57.1092
-737.118
-622.151
-470.761
-293.036
-99.4454
-1218.35
-1026.63
-775.637
-482.298
-163.591
-1860.18
-1563.71
-1178.91
-732.068
-248.171
-2615.18
-2190.23
-1646.34
-1020.66
-345.862
-197.503
-166.974
-126.547
-78.8668
-26.7811
-432.88
-365.535
-276.713
-172.303
-58.4831
-912.528
-769.649
-581.989
-362.113
-122.863
-1613.83
-1358.86
-1026
-637.742
-216.288
-2475.18
-2079.06
-1566.58
-972.571
-329.7
-3386.6
-2834.93
-2130.49
-1320.94
-447.697
-203.624
-172.315
-130.719
-81.5261
-27.6947
-93.749
-79.3443
-60.1981
-37.5472
-12.7554
-355.944
-300.957
-228.109
-142.169
-48.2776
-242.028
-204.705
-155.204
-96.7536
-32.8593
-666.233
-562.721
-426.074
-265.343
-90.0678
-548.195
-463.209
-350.858
-218.56
-74.1971
-1132.09
-954.681
-721.752
-448.977
-152.314
-1043.08
-879.855
-665.311
-413.903
-140.417
-1658.82
-1395.5
-1052.67
-653.816
-221.643
-1581.25
-1330.43
-1003.55
-623.189
-211.222
-2223.12
-1862.36
-1399.73
-867.383
-293.782
-1983.64
-1661.6
-1248.17
-772.824
-261.569
-3302.33
-2750.13
-2059.03
-1274.76
-432.201
-3784.4
-3123.8
-2327.09
-1440.93
-490.428
-4142.46
-3371.41
-2497.16
-1553.97
-536.287
-6137.12
-4886.81
-3608.95
-2292.23
-829.024
-6608.44
-5102.55
-3777.76
-2503.92
-1005.2
-7040.51
-5325.07
-3954.34
-2706.55
-1169.41
-4181.78
-3484.3
-2610.18
-1616.7
-548.213
-4665.35
-3862.68
-2883.17
-1785.71
-606.908
-4682.83
-3843.07
-2857.46
-1773.85
-606.847
-4274.56
-3461.87
-2564.77
-1605.11
-559.126
-3599.72
-2851.29
-2107.72
-1347.79
-492.525
-3077.4
-2382.67
-1759.37
-1153.37
-444.529
-312.735
-510.746
-897.041
-1478.61
-2254.76
-3161.5
-237.413
-538.841
-1119.98
-1957.01
-2973.94
-4030.35
-238.074
-113.952
-434.847
-302.107
-815.311
-676.476
-1383.43
-1279.53
-2045.14
-1990.23
-2758.87
-2584.42
-3977.17
-4559.9
-5043.43
-7516.44
-8469.96
-9366.58
-4923.72
-5435.92
-5419.84
-4958.26
-4286.56
-3831.55
-282.278
-238.879
-181.223
-113.031
-38.399
-460.798
-389.753
-295.542
-184.271
-62.5899
-808.665
-683.358
-517.729
-322.607
-109.545
-1331.36
-1123.58
-850.241
-529.379
-179.691
-2026.56
-1706.97
-1289.61
-802.151
-272.182
-2833.13
-2379.18
-1793.34
-1114.27
-378.037
-214.243
-181.256
-137.475
-85.7306
-29.1219
-485.965
-410.868
-311.436
-194.132
-65.9316
-1009.15
-852.314
-645.434
-402.063
-136.507
-1760.97
-1485.11
-1123.19
-699.095
-237.272
-2670.64
-2247.49
-1696.81
-1055.08
-357.981
-3608.29
-3027.27
-2280.26
-1416.38
-480.52
-214.956
-181.978
-138.108
-86.1648
-29.2763
-102.913
-87.1515
-66.1626
-41.2886
-14.0305
-392.49
-332.144
-251.98
-157.166
-53.3928
-272.77
-230.921
-175.255
-109.343
-37.1519
-735.404
-621.852
-471.413
-293.871
-99.8068
-610.403
-516.372
-391.61
-244.194
-82.9471
-1246.56
-1052.84
-797.259
-496.612
-168.6
-1153.37
-974.531
-738.227
-459.946
-156.167
-1839.9
-1551.29
-1172.92
-729.884
-247.691
-1791.43
-1511.21
-1143.07
-711.444
-241.442
-2474.97
-2080.54
-1569.31
-975.266
-330.843
-2320.74
-1952.65
-1473.64
-915.875
-310.637
-3546.26
-2964.07
-2227.42
-1383.02
-469.635
-4030.26
-3343.6
-2503.35
-1556.04
-530.66
-4386.72
-3596.02
-2682.13
-1677.63
-580.335
-6322.6
-5073.41
-3775.29
-2411.82
-874.875
-6715.3
-5219.96
-3890.7
-2592.5
-1043.65
-7078.49
-5368.56
-3997.8
-2742.29
-1185.83
-4387.92
-3665.32
-2752.86
-1708.56
-579.998
-4810.71
-3993.73
-2989.16
-1855.42
-631.364
-4744.27
-3903.83
-2910.76
-1811.22
-620.532
-4259.16
-3457.52
-2568.73
-1612.12
-562.849
-3550.1
-2815.9
-2086.63
-1338.85
-491.165
-3052.18
-2363.79
-1747.29
-1147.65
-443.383
-20007.9
-14443.1
-4691.52
-3619.21
-2775.82
-3813.69
-3616.23
-13004.5
-14438.3
-11381.4
-13111
-7536.51
-10961.6
-5701.88
-5977.24
-4312.75
-20517
-11089.8
-4117.03
-6738.12
-8993.09
-6107.56
-6621.56
-4987.32
-3039.62
-4322.04
-4950.66
-5051.34
-19590.6
-12956.5
-12718.1
-9017.76
-8895.44
-9530.52
-4294.87
-5349.98
-6856.65
-14006.6
-11860.4
-9671.39
-8587.51
-7023.98
-9336.98
-6337.71
-4791.1
-3532.36
-1734.08
-4143.62
-3435.69
-2571.98
-1599.44
-546.009
-3233
-2706.79
-2036.21
-1264.53
-429.256
-2477.32
-2071.18
-1555.23
-964.041
-326.796
-3416.41
-2867.39
-2159.69
-1340.85
-454.658
-3219.84
-2686.71
-2015.74
-1250.11
-424.25
-9339.23
-7596.61
-6082.19
-5257.53
-4923.58
-10552.7
-8912.54
-7045.49
-5462.22
-3118.06
-8129.75
-5668.09
-4189.28
-2840.93
-1192.04
-9588.23
-7773.29
-5971.68
-4273.99
-2004.88
-6329.58
-5034.32
-3678.02
-2275.13
-786.371
-8540.33
-6324.76
-4563.79
-2855.41
-1028.82
-4911.17
-3978.68
-2929.36
-1807.51
-617.151
-5127.65
-4140.25
-3042.23
-1876.54
-641.306
-3749.13
-3059.03
-2259.44
-1392.59
-473.282
-14190.5
-11106.5
-8961.54
-7586.94
-6562.75
-8537.82
-6463.79
-4824.5
-3233.56
-1374.85
-3536.17
-2863.2
-2113.58
-1312.47
-453.302
-5806.39
-4723.62
-3508.79
-2197.01
-767.753
-7517.68
-6012.86
-4474.01
-2872.15
-1067.9
-5240.86
-4254.61
-3165.67
-1994
-702.763
-5756.48
-4719.4
-3523.48
-2208.56
-767.278
-4370.43
-3599.07
-2684.16
-1669.93
-572.441
-2673.77
-2204.72
-1639.55
-1012.65
-343.699
-3834.12
-3187.62
-2384.97
-1477.25
-501.431
-4313.35
-3529.67
-2616.11
-1618.73
-552.729
-4426.23
-3642.79
-2712.86
-1684.15
-576.117
-13554.7
-11101.2
-9086.92
-7818.68
-6503.34
-9033.17
-6462.87
-4894.65
-3516.02
-1710.48
-9659.81
-7746.16
-5909.36
-4256.31
-1978.93
-7154.51
-5470.49
-4100.61
-2744.09
-1087.11
-7463.13
-5992.17
-4472.2
-2879.63
-1067.19
-7558.51
-5772.13
-4323.75
-2886.97
-1132.55
-3731.35
-3055.62
-2278.01
-1425.59
-494.472
-4733.87
-3928.09
-2937.96
-1822.33
-619.866
-5943.39
-4855.5
-3613.93
-2260.34
-783.765
-438.119
-1260.72
-2031.47
-2779.73
-3502.73
-4185.47
-2778.1
-7442.17
-7012.67
-2696.98
-9417.51
-7922.4
-9330.45
-10303.6
-2531.79
-1630.25
-5885.33
-3351.49
-11077.3
-7940.07
314.635
-2244.56
-6175.48
-5728.91
-2159.74
-7969.48
-6410.06
-7775.86
-8710.36
-2093.63
-945.587
-5064.2
-1702.3
-9093.96
-4737.89
1767.68
-1625.35
-4653.39
-4292.88
-1564.35
-6236.25
-3758.06
-6234.21
-6840.06
-1568.15
-863.869
-3558.48
-1786.75
-7171.52
-1768.46
1914.25
-1180.66
-3558.07
-3338.66
-1175.18
-4706.48
-2206.13
-5107.88
-5948.47
-1167.86
-914.263
-2584.28
-1822.45
-6240.88
-265.924
1441.6
-941.828
-2983.18
-2839.31
-977.385
-3724.72
-1798.37
-4529.09
-5729.54
-913.253
-1004.77
-1830.44
-1762.19
-5408.07
-55.7002
201.867
-823.842
-2633.53
-2584.85
-876.962
-3420.45
-2085.38
-4160.42
-5455.98
-695.79
-788.725
-1484.39
-1718.96
-5328.48
-947.167
-493.127
-1399.15
-3410.53
-5100.91
-1977.68
-5513.72
-9673.52
-7443.07
-10704.5
-986.845
-671.094
-3841.4
-2286.91
-1059.91
-9127.25
-4690.4
-1297.95
-3170.22
-4463.68
-1711.67
-5079.12
-8709.68
-6689.32
-9065.1
-1005.93
-583.114
-3963.67
-2140.48
-238.968
-8914.27
-3458.49
-1134.26
-2779.96
-3628.35
-1364.45
-4598.53
-7719.15
-5651.3
-7902.76
-884.664
-668.495
-3355.79
-2214.07
-476.111
-7119.68
-3268.86
-971.699
-2488.08
-2980
-1096.32
-4259.21
-6936.35
-4987.55
-7111.05
-803.084
-667.769
-3070.06
-2276.11
-321.994
-6540.61
-3252.88
-871.54
-2225.76
-2624.2
-950.403
-3837.7
-6313.06
-4517.24
-6717.77
-745.678
-720.625
-2763.43
-2453.88
-490.264
-6228.14
-3296.62
-805.385
-1977.31
-2420.3
-869.168
-3528.23
-6216.74
-4173.12
-6475.73
-772.165
-841.714
-2451.66
-2336.34
-756.254
-6363.17
-3658.58
6376.26
8051.4
16631.4
24360.5
24824.1
42742.2
19005.5
48353.4
15454.7
33928.3
23141.9
35158.3
20704.1
27275.2
7831.9
8895.4
15773.5
18080.9
20267.8
20105.9
15906.8
19606.5
23396.2
20962.7
5295.96
4055.67
6490.48
4413.07
13338.2
10720.3
22753.1
16557.8
17533
18299.5
19586.2
18862.7
7008.79
5394.97
41389.9
55402.4
26770.9
32852.7
55450
71985.6
28688
32851.9
30791.1
43480.2
26923.1
35643.4
15829.6
25435.6
2907.59
1000.94
2974.61
1088.17
9262.72
3751.18
12691.9
4688.66
9106.23
3478.58
9558.7
3073.1
16254.5
5184.77
20953.7
7088.08
25271.2
12630.3
23135.9
13705.6
23542.9
15242.4
20718
15496.9
18327.8
10911.7
18374.4
9441.8
23882.9
15194.7
23944.1
15315.1
21897.8
16358.6
22164.3
16406.4
19780.4
12539
20483.7
12831.1
18793.2
8206.97
8754.66
10755.3
18866.2
8999.09
7698.16
10985.6
19890.8
8144.32
9877.75
10783.6
20875.9
8330.98
10720.5
11237
3751.1
4062.57
1298.48
2539.7
11569.1
12262.2
4527.15
8190.67
14884.4
16464.3
7350.4
12575.7
12295.1
759.239
14015.8
17618.6
9749.23
406.565
7240.04
12770.8
20745.8
14959.8
10429.5
12799.9
11379.7
9989.61
15754.2
3444.7
2771.46
1959.25
1962.36
10622.6
8817.14
6565.4
6197.84
13140.7
10878.6
8485.28
7567.71
5727.11
7382.37
11970.6
12502.2
14527.8
13183.4
16425.2
14158.5
11489.4
9683.61
9252.77
9515.06
12277.8
9349.55
11302.6
7909.45
9902.28
6563.69
11798.3
7619.99
10432.2
4458.7
9047.44
9581.78
12781.2
16411.4
14096.6
20345.2
7263.08
7853.99
9288.28
2492.11
8098.31
15408.5
7700.12
16592.8
13975.3
25166.3
14224.7
26790.5
6205.47
13367.5
5672.53
14317.5
8628.75
6317.06
12138.5
4642.69
8736.88
1244.48
10505.3
331.817
8342.83
9655.84
12740.3
5807.96
6941.72
11448.8
11314.6
7666.24
2116.94
1852.43
1632.22
1574.32
1433.35
1265.37
7047.8
5585.56
4692.25
4623.3
3574.75
3004.31
8412.45
7045.71
6413.04
5492.63
4310.64
3997.57
6333.83
5401.3
5195.26
10764.5
7837.13
6450.24
10374.6
7337.08
5775.47
10839.7
8244.42
7024.27
7065.94
4464.48
3381.07
15469.6
12930.9
10890.9
10150.7
8142.59
6510.28
9253
6893.59
5257.19
7963.99
5506.55
4017.36
8510.03
4589.06
2446.07
10658.6
14384.9
8481.69
10905.4
11663.6
17050.6
10467.5
15134.9
59.2582
615.915
-435.908
65.451
2980.89
3398.54
1262.02
760.86
707.488
2404.01
9540.28
13851.4
6650.11
3746.59
10215.8
10148.9
15913.6
17538.5
-612.725
-4256.72
7718.22
7259.3
7343.02
5654.94
888.248
484.333
585.159
256.767
2016.03
159.592
-275.002
-824.372
9252.71
2296.36
6337.39
1614.74
9181.03
2768.12
11103.9
3513.15
9069.64
12051.3
8353.1
11727.7
14747.2
15444.2
14036.3
14583.6
5655.67
9287.69
6553.16
9243.99
8849.97
11279.3
9745.89
11370.1
14614.8
14299.4
15288.9
14333.8
5700.3
8968.93
6189.02
9109.17
-301.324
1111.53
7094.15
4163.59
-836.893
711.331
6572.36
3664.33
156.657
1379.82
7240.18
4545.62
589.531
1635.41
7251.62
4686.17
-673.059
-763.315
132.051
-24.8363
-2927.26
-2930.5
-271.872
-457.875
-699.772
-2040.12
1481.34
795.077
-10224.8
-9787.1
-5539.87
-4305.12
-586.947
-10673.8
-10741.2
-4247.01
-6286.36
-998.313
10550.6
8139.27
7015.41
6378.17
3616.55
-752.644
-663.532
-87.1386
-16.33
-2478.55
-2327.54
-214.173
-23.5473
-2537.36
-2922.45
460.901
676.496
-5102.8
-2158.05
-7970.25
-4800.62
-3528
-2566.15
-4011.03
-3357.38
167.368
959.8
3870.36
2427.92
1093.03
-919.06
930.266
-740.398
1450.23
185.02
1636.39
1822.82
5164.89
4659.31
9824.61
5888.06
8195.72
8125.58
12418.2
9988.92
7521.97
4337.37
3700.88
3613.94
11589.8
5078.68
12739.1
5692.78
13849.8
10199.2
14774
10955.9
9160.49
3507.95
10258.6
4073.47
5639.66
4300.71
3994.03
5866.05
3564.24
3925.04
3378.55
5430.33
6544.11
4214.41
4526.03
6745.98
8025.69
4575.62
5808.94
6952.45
-636.631
-639.147
-705.625
-63.0935
-238.915
-258.455
-2404.86
-2471.11
-2435.73
-224.396
-682.428
-676.099
-3112.67
-3331.78
-3355.4
395.082
-682.572
-896.165
-1066.79
-892.396
-590.154
-3329.67
-3336.41
-3065.72
-2692.98
-2959.33
-2873.9
-3345.37
-3461.8
-3322.21
1011.48
-314.208
-404.691
3535.07
2032.21
1114.74
-773.956
-1736.24
-2243.74
-796.347
-1982.34
-2488.84
-390.21
-1641.02
-1991.12
1827.94
-423.23
-682.279
-24.4147
-27.8019
-31.344
-46.0649
-226.125
-117.621
-91.8398
-81.34
-19.491
-60.2144
-137.504
-197.566
-389.872
-228.092
-248.776
-244.725
183.306
-17.348
-198.84
-357.195
-145.355