/*--------------------------------*- C++ -*----------------------------------*\
| =========                 |                                                 |
| \\      /  F ield         | OpenFOAM: The Open Source CFD Toolbox           |
|  \\    /   O peration     | Version:  2306                                  |
|   \\  /    A nd           | Website:  www.openfoam.com                      |
|    \\/     M anipulation  |                                                 |
\*---------------------------------------------------------------------------*/
FoamFile
{
    version     2.0;
    format      ascii;
    arch        "LSB;label=32;scalar=64";
    class       volVectorField;
    location    "2.4";
    object      flux;
}
// * * * * * * * * * * * * * * * * * * * * * * * * * * * * * * * * * * * * * //

dimensions      [0 1 -1 1 0 0 0];

internalField   nonuniform List<vector> 
5712
(
(-0.261291 0.462938 0.285674)
(-0.33395 0.266933 0.938916)
(-0.621253 0.75095 0.22657)
(-0.906567 0.492014 0.962944)
(-0.924585 0.819045 0.170338)
(-1.59633 0.606162 0.996765)
(-0.711601 1.28644 0.269387)
(-1.81293 1.5933 1.53907)
(-0.579931 1.69069 0.331178)
(-1.27411 2.06775 2.11676)
(-0.867016 1.09311 0.328422)
(-1.3185 0.949478 1.54028)
(-0.778476 0.694498 0.316505)
(-1.01993 0.550179 1.27747)
(-0.342178 0.348504 0.32892)
(-0.391018 0.235695 1.14088)
(-0.581535 0.778339 0.199007)
(-0.665948 0.797228 0.122541)
(-0.752809 0.669931 0.531929)
(-0.746594 0.787587 0.3149)
(-0.593298 1.05137 0.195278)
(-0.733835 0.940025 0.105153)
(-0.874724 1.21185 0.583451)
(-0.785469 0.981954 0.289519)
(-0.211995 0.327295 0.216934)
(-0.158775 0.236219 0.156416)
(-0.263798 0.18375 0.696012)
(-0.176922 0.13647 0.487675)
(-0.491027 0.392117 0.164008)
(-0.391497 0.319593 0.117227)
(-0.839408 0.23753 0.684718)
(-0.606673 0.191715 0.495524)
(-0.650924 0.70975 0.384469)
(-0.675905 0.738088 0.162476)
(-0.721331 0.726282 0.331419)
(-0.685777 0.615261 0.147322)
(-0.251239 0.567581 0.151876)
(-0.197721 0.442119 0.3578)
(-1.54289 0.443943 1.33496)
(-2.06577 0.503772 0.362202)
(-0.996502 0.715696 0.477562)
(-1.22365 0.711758 0.162101)
(-2.07758 1.49897 1.72224)
(-2.69552 1.54915 0.468237)
(-1.0749 1.06374 0.448319)
(-1.23049 1.09509 0.155763)
(-1.14251 0.605017 0.951662)
(-1.61435 0.510198 0.295558)
(-0.996459 0.660116 0.48809)
(-1.32138 0.470953 0.170591)
(-0.582003 0.307025 0.82588)
(-0.939399 0.314884 0.262837)
(-0.11112 0.250155 0.227494)
(-0.0374083 0.345719 0.112791)
(-0.117146 0.130766 0.340559)
(-0.0421796 0.156406 0.132216)
(-0.335659 0.343243 0.246033)
(-0.135308 0.464944 0.13314)
(-0.461236 0.204034 0.332384)
(-0.169442 0.236837 0.127006)
(-0.32725 0.381354 0.313763)
(-0.125697 0.633181 0.178515)
(-0.349559 0.263831 0.286402)
(-0.111986 0.429321 0.123884)
(-0.596533 0.100758 0.425994)
(-0.189644 0.255728 0.152674)
(-0.769963 0.0838232 0.146722)
(-0.259555 0.191046 0.0510925)
(-0.946655 0.704008 0.481379)
(-0.469093 0.868977 0.332279)
(-0.866613 0.7247 0.298619)
(-0.513851 0.864284 0.217652)
(-0.889809 0.861885 0.542482)
(-0.575401 0.871145 0.445985)
(-0.782444 0.87598 0.296714)
(-0.589469 0.858821 0.256803)
(-0.679701 0.615575 0.281334)
(-0.403541 0.833218 0.18884)
(-0.679148 0.634285 0.394432)
(-0.345192 0.823668 0.261954)
(-0.893978 0.713001 0.197326)
(-0.572594 0.857706 0.144725)
(-0.895879 0.712266 0.100863)
(-0.578173 0.855328 0.0825943)
(-0.826191 0.882138 0.191749)
(-0.624532 0.847083 0.165664)
(-0.836155 0.878534 0.099964)
(-0.62765 0.838601 0.0962938)
(-0.734351 0.568199 0.188372)
(-0.466764 0.836334 0.122818)
(-0.7607 0.548207 0.0970106)
(-0.478485 0.83909 0.0619324)
(-0.693463 0.690166 0.250232)
(-0.299518 0.806102 0.135664)
(-0.31959 0.871695 0.186497)
(-0.388123 1.21052 0.226261)
(-0.696366 0.730482 0.340723)
(-0.327121 0.927788 0.242248)
(-0.278122 0.863429 0.268745)
(-0.392279 1.31085 0.385895)
(-0.734595 0.654659 0.166229)
(-0.298438 0.711011 0.0784905)
(-0.36281 0.875522 0.110311)
(-0.391655 1.16578 0.129922)
(-0.771139 0.647813 0.0828947)
(-0.305808 0.666003 0.0342788)
(-0.394951 0.885106 0.0478076)
(-0.409583 1.15789 0.0482096)
(-0.144018 0.202237 0.296532)
(-0.157139 0.263063 0.532566)
(-0.0482518 0.514559 0.201737)
(-0.0937248 0.891664 0.59536)
(-0.422433 0.252128 0.34877)
(-0.446296 0.285531 0.522054)
(-0.162463 0.665667 0.248653)
(-0.286446 1.01924 0.624609)
(-0.540952 0.316061 0.397752)
(-0.602044 0.318864 0.473772)
(-0.258795 0.848263 0.321438)
(-0.4393 1.1461 0.611709)
(-0.49033 0.968095 0.479003)
(-0.0461355 1.04368 0.577231)
(-0.537925 0.815387 0.355187)
(-0.660155 0.783865 0.340634)
(-0.356495 1.12491 0.374067)
(-0.0326546 1.05231 0.576054)
(-0.299661 0.990865 0.526198)
(-0.481795 0.833193 0.511486)
(-0.774582 0.719813 0.521628)
(-0.531751 1.28096 0.755735)
(-0.38991 0.958145 0.468035)
(-0.471719 0.94325 0.355588)
(-0.410238 0.837295 0.304323)
(-0.35221 0.826962 0.340268)
(-0.55151 1.47126 0.537158)
(-0.138991 0.0789482 0.614932)
(-0.11507 0.0945168 0.547318)
(-0.0792174 0.167828 0.714024)
(-0.0786814 0.376765 0.68382)
(-0.392539 0.112496 0.563042)
(-0.332703 0.126611 0.520326)
(-0.235019 0.233667 0.706078)
(-0.223813 0.425869 0.670294)
(-0.491065 0.168927 0.4877)
(-0.41849 0.142808 0.474125)
(-0.307078 0.320007 0.663469)
(-0.275928 0.493407 0.646878)
(-0.235056 1.04564 0.41954)
(-0.298323 1.03991 0.327709)
(-0.483816 0.940674 0.384675)
(-0.500452 0.931878 0.332696)
(-0.556485 0.801584 0.416933)
(-0.506781 0.740329 0.369037)
(-0.627102 0.605201 0.445413)
(-0.547442 0.538159 0.424177)
(-0.420211 0.42338 0.612993)
(-0.353477 0.583101 0.623639)
(-0.36035 0.950207 0.392511)
(-0.38196 0.923247 0.337742)
(-0.474862 0.954808 0.369906)
(-0.378825 0.944541 0.350884)
(-0.431454 0.826729 0.3782)
(-0.3179 0.77868 0.395792)
(-0.372337 0.680707 0.424079)
(-0.259856 0.612098 0.471189)
(-0.431048 0.452411 0.553954)
(-0.283891 0.591771 0.635022)
(-0.407682 0.943307 0.322881)
(-0.19526 1.06397 0.253206)
(-0.349164 0.939765 0.222429)
(-0.380805 1.0888 0.284046)
(-0.50032 0.91446 0.440658)
(-0.655372 0.949665 0.538663)
(-0.550118 0.89163 0.306216)
(-0.802468 0.954537 0.485601)
(-0.277162 0.854498 0.186923)
(-0.310173 0.870061 0.246993)
(-0.360607 0.847798 0.277526)
(-0.120969 0.845363 0.228252)
(-0.31085 0.931965 0.0531496)
(-0.600899 1.09285 0.18882)
(-0.294715 0.927261 0.0280911)
(-0.643415 1.09133 0.0680509)
(-0.544472 0.864946 0.156697)
(-0.990023 0.965327 0.327153)
(-0.553886 0.85734 0.0582956)
(-1.04975 0.962556 0.113718)
(-0.234128 0.857777 0.0241282)
(-0.514869 0.868125 0.159049)
(-0.212414 0.857294 0.0140242)
(-0.547889 0.867386 0.0558062)
(-0.322743 0.71684 0.182912)
(-0.246425 0.681802 0.185997)
(-0.447442 0.461353 0.207799)
(-0.179281 0.511787 0.128082)
(-0.333766 0.711516 0.288822)
(-0.0721728 0.663288 0.230074)
(-0.391036 0.453954 0.339715)
(-0.0355956 0.511992 0.23269)
(-0.309561 0.727185 0.0415678)
(-0.367124 0.680204 0.101798)
(-0.468519 0.471644 0.102902)
(-0.217552 0.514738 0.0578454)
(-0.255628 0.730178 0.0577997)
(-0.432142 0.673465 0.0752669)
(-0.414183 0.486412 0.0820914)
(-0.284836 0.515448 0.0618876)
(-0.092242 0.0651152 0.434057)
(-0.0817752 0.0448987 0.26284)
(-0.0738662 0.0315991 0.0823244)
(-0.0661191 0.0382514 0.49206)
(-0.0610017 0.0269214 0.281364)
(-0.0549817 0.0252202 0.0919289)
(-0.273905 0.0902434 0.416171)
(-0.227195 0.0553758 0.260075)
(-0.198413 0.0425232 0.0874155)
(-0.174915 0.0758962 0.484941)
(-0.142465 0.0618789 0.281836)
(-0.124731 0.0539792 0.0918569)
(-0.337988 0.106239 0.383)
(-0.294202 0.0906887 0.238659)
(-0.272963 0.0919235 0.0782266)
(-0.210972 0.133957 0.473971)
(-0.174302 0.111102 0.28361)
(-0.165649 0.100551 0.0945964)
(-0.264208 1.00343 0.21216)
(-0.236244 0.916197 0.113432)
(-0.231344 0.853518 0.030212)
(-0.438454 0.92052 0.268121)
(-0.337807 0.862167 0.17593)
(-0.286403 0.813392 0.0611876)
(-0.410336 0.658944 0.317311)
(-0.307563 0.618131 0.218754)
(-0.251684 0.59592 0.0753669)
(-0.431368 0.4448 0.365326)
(-0.344549 0.391165 0.235619)
(-0.301438 0.36873 0.0780557)
(-0.264229 0.203817 0.470022)
(-0.176674 0.152977 0.29188)
(-0.139073 0.130767 0.102076)
(-0.631013 0.905256 0.253143)
(-0.551634 0.847961 0.140821)
(-0.481392 0.796472 0.0441779)
(-0.403156 0.925491 0.250421)
(-0.33938 0.853335 0.179661)
(-0.284882 0.795097 0.0675819)
(-0.355333 0.682927 0.295134)
(-0.279944 0.594797 0.217876)
(-0.226427 0.544302 0.0797403)
(-0.296145 0.443875 0.369325)
(-0.216971 0.360879 0.258629)
(-0.169215 0.327173 0.0921991)
(-0.300933 0.217089 0.475091)
(-0.169496 0.152529 0.294987)
(-0.097266 0.123554 0.104361)
(-0.411244 1.06916 0.0118995)
(-0.558014 1.04915 0.0800984)
(-0.324625 1.16235 0.113035)
(-0.420397 1.04568 0.163517)
(-0.440703 1.19609 0.0860496)
(-0.648508 1.04633 0.0991402)
(-0.393134 1.44132 0.216458)
(-0.573605 1.09971 0.205728)
(-0.00199372 0.830489 0.0240409)
(-0.0295284 0.846177 0.0415483)
(0.0198557 0.81926 0.0256726)
(-0.00417653 0.761967 0.0432877)
(-0.118488 0.931846 0.019505)
(-0.134527 0.880486 0.0567368)
(-0.0489774 0.913553 0.0348286)
(-0.0264473 0.782216 0.0744482)
(-0.0277402 0.903881 0.128962)
(-0.0964219 0.899376 0.0631357)
(-0.374068 0.834255 0.163188)
(-0.547045 0.894935 0.0943119)
(-0.265701 1.11595 0.0871773)
(-0.144854 0.99899 0.152042)
(-0.391892 1.09983 0.135765)
(-0.388893 1.11577 0.0384737)
(-0.601928 1.19241 0.240635)
(-0.662843 1.23223 0.0596644)
(0.0238776 0.91595 -0.0744323)
(0.163084 0.949875 0.0304834)
(-0.300815 0.821215 0.0723795)
(-0.283661 0.796808 0.0546112)
(-0.284078 0.999369 0.0506331)
(-0.219203 1.02431 0.0475718)
(-0.0411892 0.653703 0.395723)
(-0.0220452 0.348322 0.18451)
(-0.0263761 0.609507 0.108302)
(-0.0104467 0.386201 0.0682538)
(-0.0801523 0.663122 0.401973)
(-0.00920528 0.351407 0.191982)
(0.0138297 0.60726 0.136009)
(0.0339877 0.383507 0.0861947)
(-0.368622 0.654859 0.39703)
(-0.0973048 0.35343 0.206874)
(-0.248362 0.606179 0.197706)
(-0.0656378 0.399992 0.140853)
(-0.358222 0.588896 0.14151)
(-0.109826 0.418679 0.103187)
(-0.433601 0.595629 0.0712583)
(-0.140582 0.415207 0.0686539)
(-0.35039 0.841905 0.502989)
(-0.475184 0.722878 0.447769)
(-0.324413 0.834966 0.237238)
(-0.463953 0.720524 0.246586)
(-0.560273 0.92797 0.536631)
(-0.594908 0.840524 0.504129)
(-0.535168 0.935042 0.264965)
(-0.564013 0.830769 0.267554)
(-0.226262 0.818784 0.213155)
(-0.378844 0.603135 0.219879)
(-0.260845 0.856459 0.435985)
(-0.376036 0.596395 0.365618)
(-0.344268 0.852006 0.142203)
(-0.447315 0.716276 0.148821)
(-0.379833 0.862036 0.08048)
(-0.452351 0.707883 0.0909892)
(-0.557645 0.957542 0.163798)
(-0.554374 0.823023 0.162881)
(-0.584048 0.957441 0.0908607)
(-0.557114 0.812081 0.0970682)
(-0.228444 0.809409 0.125531)
(-0.367055 0.604271 0.135255)
(-0.248614 0.806368 0.0714675)
(-0.374293 0.600368 0.0870295)
(0.00143187 0.537219 0.192156)
(-0.0588222 0.354709 0.13741)
(-0.302535 0.477455 0.192711)
(-0.195589 0.299859 0.140345)
(0.0243062 0.50176 0.298606)
(-0.0421195 0.317412 0.181607)
(-0.280319 0.45958 0.286323)
(-0.173235 0.279709 0.19411)
(-0.0166557 0.549686 0.116597)
(-0.0687748 0.377265 0.0996167)
(-0.309649 0.484694 0.122268)
(-0.212925 0.309135 0.0909846)
(-0.0349557 0.550017 0.0662746)
(-0.0797188 0.391281 0.0630134)
(-0.311838 0.483269 0.0780328)
(-0.22094 0.311302 0.0535182)
(0.0271591 0.101134 0.472283)
(0.0314579 0.0518416 0.336628)
(-0.00718261 0.181782 0.243338)
(-0.00138178 0.0917586 0.252406)
(0.11562 0.108339 0.470328)
(0.117543 0.0646749 0.34383)
(0.00729229 0.194079 0.244876)
(0.0133259 0.112335 0.251209)
(0.0216933 0.134408 0.487284)
(0.0779872 0.0996918 0.355314)
(-0.0710886 0.216044 0.248396)
(-0.0455603 0.15145 0.243816)
(0.409827 0.526985 0.551878)
(0.379896 0.813334 0.590124)
(0.222314 0.379261 0.5082)
(0.169107 0.36321 0.345194)
(0.014384 0.252009 0.202427)
(0.417196 0.798711 0.559238)
(0.432272 0.558894 0.524076)
(0.1731 0.327956 0.493654)
(0.255168 0.329155 0.414796)
(0.0296304 0.20594 0.277825)
(-0.406037 0.827934 0.52445)
(-0.321105 0.654712 0.478951)
(-0.289255 0.521984 0.387689)
(-0.275215 0.405544 0.30389)
(-0.173005 0.244231 0.196726)
(0.032617 0.0268293 0.292995)
(0.0307926 0.0204848 0.265999)
(0.00064834 0.0473454 0.278065)
(-0.00396368 0.0325125 0.32377)
(0.103132 0.0398449 0.300181)
(0.10334 0.0275816 0.259817)
(0.00168201 0.072417 0.279984)
(-0.00909984 0.0565196 0.318658)
(0.103527 0.0717584 0.309842)
(0.128298 0.0573829 0.255025)
(-0.0322433 0.111397 0.281455)
(-0.0470664 0.0899194 0.312756)
(0.205463 0.814943 0.422175)
(0.0949812 0.796925 0.297548)
(0.328581 0.556198 0.3998)
(0.208419 0.540728 0.279581)
(0.146473 0.363064 0.320883)
(0.112698 0.373288 0.262156)
(0.164813 0.305386 0.30642)
(0.145077 0.287608 0.266685)
(-0.0236632 0.175039 0.260431)
(-0.0640373 0.143632 0.308658)
(-0.149688 0.762262 0.350492)
(-0.094676 0.700646 0.304043)
(-0.0414332 0.594879 0.314587)
(0.0417866 0.530283 0.276135)
(-0.0425339 0.465566 0.273783)
(0.029829 0.421953 0.251004)
(-0.0742297 0.353471 0.248008)
(-0.0196945 0.327335 0.250413)
(-0.0941124 0.215837 0.206049)
(-0.108468 0.220394 0.294049)
(-0.210539 0.607214 0.281204)
(-0.193432 0.500109 0.190444)
(-0.399781 0.609481 0.187064)
(-0.242147 0.486258 0.111275)
(-0.323828 0.725001 0.362875)
(-0.32763 0.608568 0.279647)
(-0.49176 0.721551 0.252781)
(-0.399417 0.597482 0.202649)
(-0.319786 0.513732 0.155499)
(-0.190518 0.425623 0.094178)
(-0.161118 0.499363 0.225671)
(-0.161061 0.428712 0.168538)
(-0.47099 0.608703 0.189626)
(-0.209205 0.477577 0.089558)
(-0.518106 0.604679 0.0699332)
(-0.234552 0.476525 0.0403192)
(-0.548423 0.717812 0.198817)
(-0.40764 0.607353 0.143459)
(-0.585312 0.710502 0.0699713)
(-0.43667 0.605076 0.0578903)
(-0.387085 0.52237 0.166124)
(-0.155983 0.418081 0.0749775)
(-0.433502 0.521354 0.0658043)
(-0.180503 0.423627 0.0349222)
(-0.259164 0.400317 0.133324)
(-0.209552 0.347355 0.125262)
(-0.208151 0.257247 0.121556)
(-0.309205 0.280789 0.180679)
(-0.169826 0.386364 0.185669)
(-0.193046 0.340896 0.179189)
(-0.178792 0.244915 0.15558)
(-0.286814 0.266746 0.232414)
(-0.298145 0.417221 0.133665)
(-0.208052 0.353899 0.0888335)
(-0.234759 0.263835 0.087228)
(-0.354625 0.297999 0.121858)
(-0.360458 0.42743 0.0412764)
(-0.226171 0.354019 0.0205161)
(-0.29082 0.27467 0.01075)
(-0.366441 0.30245 0.0238587)
(0.0322555 0.0793485 0.185505)
(0.0350688 0.0703264 0.0772822)
(0.0397147 0.0584403 0.0227518)
(0.000386642 0.349035 0.216017)
(0.0122072 0.186201 0.0556263)
(0.013863 0.152336 0.0147667)
(0.117953 0.0765792 0.186608)
(0.127102 0.0762768 0.08306)
(0.127747 0.0680103 0.0254581)
(0.00777201 0.376387 0.214913)
(0.0350536 0.219341 0.0576931)
(0.0355403 0.186271 0.016055)
(0.148552 0.104495 0.172192)
(0.168444 0.118312 0.0813182)
(0.173978 0.121843 0.0209623)
(-0.0274568 0.412618 0.210138)
(0.0338163 0.273366 0.0584355)
(0.046523 0.244267 0.0136412)
(0.0521665 0.761026 0.182577)
(0.0449927 0.720348 0.0913827)
(0.0329739 0.689014 0.019775)
(0.156277 0.528525 0.169561)
(0.161056 0.519691 0.0810835)
(0.150974 0.512878 0.0187196)
(0.128123 0.391387 0.171168)
(0.146693 0.392293 0.0816791)
(0.145048 0.394622 0.0219235)
(0.1585 0.342153 0.174312)
(0.173155 0.33502 0.0814643)
(0.170049 0.328667 0.0170273)
(-0.0601804 0.466525 0.208594)
(0.0146045 0.336523 0.0571001)
(0.0206227 0.305403 0.00847724)
(-0.137273 0.64737 0.23293)
(-0.0775635 0.605442 0.115954)
(-0.0402655 0.575769 0.0303934)
(0.043182 0.490467 0.214898)
(0.0908775 0.463983 0.106382)
(0.116385 0.448147 0.0288071)
(0.0406108 0.415247 0.200278)
(0.102437 0.391693 0.0987282)
(0.129498 0.377193 0.0286037)
(0.0167016 0.407273 0.195009)
(0.0844005 0.365985 0.0828634)
(0.104057 0.340914 0.0201687)
(-0.101589 0.565986 0.22563)
(0.021145 0.379383 0.0530925)
(0.0359267 0.342603 0.012897)
(0.00102813 0.188629 0.0729817)
(0.00166072 0.119257 0.0263642)
(0.00225055 0.0882438 0.00515271)
(0.00343902 0.0798103 -0.00849993)
(0.0109604 0.214311 0.0303574)
(0.00637661 0.130713 0.0115977)
(0.0054214 0.0935493 0.00313665)
(0.00538804 0.0817067 -0.0017154)
(5.93598e-05 0.189367 0.0774231)
(0.00325679 0.118911 0.028973)
(0.00778182 0.0883755 0.00742829)
(0.0123188 0.0804357 -0.00525486)
(0.0177919 0.219083 0.0385849)
(0.0117786 0.133447 0.0161703)
(0.0134006 0.0952935 0.00775921)
(0.0147722 0.0824643 0.00362656)
(-0.00979527 0.188245 0.0833247)
(0.00126822 0.117088 0.0323309)
(0.0110796 0.0879781 0.0113073)
(0.0218759 0.0796013 -0.000279855)
(0.00635655 0.223365 0.0662555)
(0.0096749 0.13493 0.031287)
(0.0128027 0.0968594 0.0124361)
(0.0148568 0.081796 0.00293001)
(0.001453 0.241376 0.0506703)
(0.00586562 0.143604 0.0290252)
(0.00629908 0.0997679 0.0108638)
(0.00629314 0.0859101 -0.000200598)
(-0.00890222 0.248954 0.0479106)
(-0.00019625 0.149551 0.031926)
(0.00517973 0.103391 0.0191042)
(0.00893631 0.0895542 0.0115783)
(-0.0397478 0.201277 0.0693136)
(-0.00809644 0.125022 0.03106)
(0.00453687 0.0913654 0.00970977)
(0.0136147 0.0803459 -0.0074071)
(-0.0622914 0.159276 0.0595885)
(-0.0144525 0.10678 0.0263241)
(0.000608001 0.0825408 0.0116263)
(0.0232185 0.0772403 -0.00754183)
(-0.0279263 0.174146 0.0819067)
(-0.00339281 0.111776 0.0319642)
(0.00790861 0.0844349 0.0103016)
(0.0197491 0.074226 -0.00550703)
(-0.0513262 0.144892 0.0743094)
(-0.0109984 0.0998671 0.0291345)
(-0.000164056 0.0789116 0.0116133)
(0.0203705 0.0739127 -0.0124599)
(-0.0422256 0.219371 0.0557933)
(-0.00969402 0.134988 0.0290893)
(0.00555981 0.0963585 0.0119165)
(0.0170284 0.0844208 -0.00229458)
(-0.069778 0.167794 0.0459038)
(-0.0171992 0.111826 0.0234111)
(0.000535272 0.0848882 0.0126738)
(0.0272653 0.0799026 0.000153819)
(-0.0471029 0.229528 0.0414895)
(-0.0129094 0.141707 0.0258519)
(0.00503387 0.0998271 0.015686)
(0.0202027 0.0871973 0.00981837)
(-0.0751617 0.171391 0.0317965)
(-0.0197135 0.115394 0.019943)
(-0.000371738 0.0867612 0.0135356)
(0.0285199 0.0812703 0.0081232)
(0.000203638 0.138043 0.0932434)
(0.000960032 0.100197 0.031797)
(0.00194758 0.0793534 0.0049892)
(0.00430247 0.0754435 -0.0168538)
(0.00140845 0.0815038 0.0928805)
(0.00131692 0.0770459 0.0293491)
(0.00120111 0.068437 0.00708185)
(0.00394724 0.0708102 -0.0230696)
(0.00254742 0.138066 0.0932139)
(0.00330047 0.0994256 0.0323127)
(0.00597775 0.0790837 0.00588629)
(0.011593 0.0751957 -0.0160254)
(0.00645636 0.0856607 0.0900266)
(0.00448345 0.0781561 0.0285836)
(0.00369273 0.0688439 0.00743598)
(0.0106688 0.071205 -0.0223471)
(-0.01739 0.141163 0.0915404)
(-0.00208047 0.0989754 0.0325154)
(0.00662477 0.0791322 0.00907446)
(0.019844 0.0753299 -0.0114196)
(-0.00827847 0.0990161 0.0840524)
(0.0011624 0.0820577 0.027102)
(0.00494679 0.070366 0.00925987)
(0.0188552 0.0730182 -0.0182997)
(-0.00408396 0.138159 0.0803024)
(0.00494202 0.0956132 0.0301335)
(0.0097392 0.0770908 0.0126822)
(0.0198025 0.076626 -0.00158755)
(-0.00149 0.110315 0.0922105)
(0.00395483 0.084628 0.0304187)
(0.00427123 0.0721628 0.0131658)
(0.0190282 0.0723186 -0.0214037)
(-0.0443841 0.125526 0.072025)
(-0.00843047 0.0917699 0.0270551)
(0.00148103 0.0747289 0.012808)
(0.0265557 0.072706 -0.00505921)
(0.00341323 0.0222035 0.0740534)
(0.00186648 0.0579842 0.0207407)
(0.00141353 0.0529735 0.00641068)
(0.00297922 0.0158683 -0.0156712)
(0.00669426 -0.0467642 0.0295872)
(0.00274295 0.0471514 0.00754897)
(0.00147533 0.0464149 0.00177772)
(0.00138444 0.0171128 -0.00328293)
(0.00687255 0.0323638 0.0763875)
(0.00442897 0.0612997 0.0221582)
(0.00316028 0.0542422 0.00722445)
(0.00769557 0.016798 -0.0149204)
(0.0170315 -0.0336439 0.0307851)
(0.00728794 0.0508912 0.00816802)
(0.0037376 0.0475427 0.00230472)
(0.0035697 0.0174969 -0.00268331)
(0.00360193 0.0513285 0.0776072)
(0.0049058 0.0671445 0.0237645)
(0.00441917 0.0562848 0.00903407)
(0.012681 0.0167549 -0.0130817)
(0.0213444 -0.0115969 0.0312686)
(0.0102337 0.0571642 0.00887515)
(0.00564329 0.0492613 0.00301158)
(0.00563642 0.017727 -0.00193962)
(-0.00481926 0.0742825 0.0699462)
(0.0044347 0.073988 0.0224571)
(0.00557546 0.0590233 0.0104507)
(0.0176223 0.0182548 -0.01031)
(0.0163099 0.0114042 0.0303134)
(0.0110395 0.0640081 0.00918309)
(0.00672943 0.0516302 0.0041527)
(0.00718356 0.0185242 -0.000616388)
(-0.0236674 0.0888444 0.0640418)
(0.000492772 0.0800893 0.0224051)
(0.00313085 0.0623792 0.0114979)
(0.0169962 0.0214893 -0.00597949)
(0.00395518 0.0162105 0.0270745)
(0.00950666 0.0689895 0.00970894)
(0.00628262 0.0538082 0.00570713)
(0.00739756 0.0192159 0.00119903)
(-0.0515911 0.0948254 0.0448653)
(-0.00513885 0.0865369 0.0182534)
(0.002667 0.0640031 0.00901212)
(0.0196936 0.0203193 -0.00174538)
(-0.0168885 0.000147763 0.0255172)
(0.00239601 0.0737733 0.0127936)
(0.00408309 0.0577426 0.00790777)
(0.00694941 0.020409 0.00425373)
(-0.0401817 0.0924897 0.0517477)
(-0.0015575 0.0836794 0.0184475)
(0.00312796 0.0627803 0.00899326)
(0.0183702 0.0203469 -0.00428878)
(-0.010493 -0.000893375 0.0257007)
(0.00556572 0.0715376 0.0110726)
(0.00538098 0.0557802 0.00681885)
(0.0074995 0.0197038 0.00274335)
(-0.062127 0.0952207 0.0362339)
(-0.00959349 0.0885607 0.0177673)
(0.00116424 0.0651667 0.0100192)
(0.0213635 0.0188535 0.00165223)
(-0.022719 -0.00304369 0.022994)
(-0.000759655 0.0757329 0.0135542)
(0.00269298 0.0591508 0.00878941)
(0.00650583 0.0205508 0.00572995)
(-0.0700549 0.0974298 0.0257016)
(-0.0140625 0.0907576 0.0162282)
(-0.000956146 0.0670887 0.0112549)
(0.0210945 0.0193216 0.00710949)
(-0.0281607 0.00118275 0.0193056)
(-0.00423778 0.0780223 0.0135762)
(0.000847076 0.0608524 0.00969932)
(0.00562546 0.0210971 0.00743417)
(0.00153027 0.0769741 -0.000760904)
(0.000690372 0.0602646 0.000337409)
(0.000364726 0.0423648 0.000345445)
(0.000219899 0.0250034 0.000245747)
(0.000162088 0.00825455 0.00018964)
(0.00202001 0.0760818 -0.000112597)
(0.00106246 0.0601399 0.000226648)
(0.000600188 0.0423954 0.00019478)
(0.000371555 0.0250358 0.000135822)
(0.0002759 0.00826579 0.000104836)
(0.00365352 0.0779094 0.000405447)
(0.00160786 0.0607314 0.000961511)
(0.000847409 0.0425969 0.000703723)
(0.000513713 0.025113 0.000470885)
(0.000381607 0.00828673 0.000357743)
(0.00458259 0.0772035 0.00115031)
(0.00238346 0.0607376 0.000936298)
(0.00134814 0.042707 0.00060896)
(0.000839003 0.0251862 0.000396369)
(0.000625259 0.0083105 0.000299008)
(0.00484467 0.0796591 0.00169016)
(0.00201423 0.0613999 0.0017249)
(0.00104837 0.0428993 0.00115947)
(0.000634968 0.0252519 0.000764534)
(0.000472988 0.0083273 0.000579522)
(0.00617335 0.0785807 0.00471166)
(0.00316421 0.0614561 0.00317608)
(0.00179413 0.0430758 0.00197654)
(0.00112292 0.0253645 0.00127534)
(0.000839908 0.00836394 0.000959995)
(0.00324649 0.0798265 0.00567921)
(0.00162352 0.0622846 0.00375525)
(0.000916513 0.043565 0.0023342)
(0.000574708 0.0256151 0.00150916)
(0.000430162 0.0084407 0.00113921)
(0.00229346 0.0817149 0.00825724)
(0.000948708 0.0634857 0.00497759)
(0.000490549 0.0442668 0.0030061)
(0.000299027 0.0259743 0.00192636)
(0.000221661 0.00855073 0.00145195)
(0.00488455 0.0814708 0.00299803)
(0.00206436 0.0622078 0.00252506)
(0.00109455 0.0433365 0.00163988)
(0.000670775 0.0254691 0.00107163)
(0.000498095 0.00839321 0.000807454)
(0.00232865 0.0870331 0.00320262)
(0.000844042 0.0632089 0.00238062)
(0.000421714 0.0436233 0.00151228)
(0.000252984 0.0255773 0.000985868)
(0.000186474 0.00842313 0.000743202)
(0.00514504 0.0818515 0.00205778)
(0.00240278 0.0620007 0.00202076)
(0.00133259 0.0431248 0.00133744)
(0.000829069 0.0253479 0.000881754)
(0.000619352 0.00835461 0.00066758)
(0.0021975 0.0869082 0.00377505)
(0.0008397 0.0628493 0.00246457)
(0.000432429 0.043389 0.00151376)
(0.00026148 0.0254546 0.000979988)
(0.000192534 0.00838487 0.000736591)
(0.00375359 0.0822434 0.00391526)
(0.00134692 0.0629386 0.0030184)
(0.000662081 0.0437758 0.00193634)
(0.000395998 0.0256956 0.00126294)
(0.000292297 0.00846294 0.000954002)
(0.00220501 0.088613 0.00429368)
(0.000753727 0.0639179 0.00285103)
(0.000369216 0.0440232 0.00177226)
(0.000221372 0.0257818 0.00114839)
(0.000163527 0.00848616 0.000866)
(0.00324582 0.0840755 0.00656467)
(0.000859707 0.0641028 0.00401077)
(0.000340291 0.0444359 0.00242794)
(0.000185982 0.0260307 0.00155697)
(0.0001324 0.00856561 0.00117299)
(0.00179174 0.0905596 0.00548461)
(0.000405671 0.0649553 0.0033113)
(0.000146388 0.0445949 0.00200132)
(7.68003e-05 0.0260715 0.00128325)
(5.36764e-05 0.00857526 0.000965206)
(0.00127423 0.0791509 -0.00140648)
(0.000520475 0.0605678 0.000174761)
(0.00026498 0.042363 0.000256414)
(0.000156523 0.0249775 0.00018875)
(0.00011439 0.0082447 0.000146818)
(0.000919506 0.0832959 -0.000768578)
(0.000412735 0.0609047 5.57622e-05)
(0.000219691 0.0423721 0.000100594)
(0.000131561 0.0249624 7.55086e-05)
(9.64781e-05 0.00823877 5.95087e-05)
(0.00311202 0.080025 -0.00064143)
(0.00130804 0.0609357 0.000566231)
(0.000683032 0.0425356 0.000477957)
(0.000409316 0.0250569 0.000327789)
(0.00030185 0.00826765 0.000251567)
(0.00237473 0.0839863 -0.000495346)
(0.00108867 0.061181 0.000194475)
(0.000589641 0.0425037 0.000177793)
(0.000356449 0.0250234 0.000123184)
(0.000262426 0.0082565 9.55344e-05)
(0.00436522 0.0817974 0.000323685)
(0.00161263 0.061553 0.00102146)
(0.000807644 0.042808 0.000729987)
(0.000477141 0.0251815 0.000487902)
(0.000350867 0.00830373 0.000373553)
(0.0032285 0.0855073 0.000535562)
(0.00150308 0.061684 0.000655023)
(0.000822937 0.0427384 0.000427691)
(0.000499263 0.0251329 0.000276746)
(0.000370107 0.00828829 0.00021096)
(0.00394301 0.0847343 0.0024619)
(0.00184818 0.0622675 0.00199124)
(0.00103069 0.0430845 0.001269)
(0.000638514 0.0253039 0.000831525)
(0.000477512 0.00833883 0.000632694)
(0.00220069 0.0873295 0.00163947)
(0.00114639 0.0622262 0.0012571)
(0.000648851 0.0430073 0.000783563)
(0.00039859 0.0252599 0.000509396)
(0.000298362 0.00832481 0.000387703)
(0.00204933 0.0875372 0.00455401)
(0.00101703 0.0626362 0.00261064)
(0.000580104 0.0432416 0.00155391)
(0.000363225 0.0253769 0.000995307)
(0.000271736 0.0083603 0.000748174)
(-0.0137249 0.370989 0.0633928)
(-0.0184574 0.568628 0.145003)
(-0.0310625 0.390151 0.0637891)
(-0.0452419 0.581107 0.143381)
(-0.0328134 0.4187 0.0694229)
(-0.0567359 0.597784 0.142069)
(-0.0124295 0.439184 0.0827588)
(-0.0464513 0.609396 0.147834)
(0.013199 0.42371 0.0865621)
(-0.00973421 0.588447 0.15277)
(-0.0296279 0.396108 0.0345805)
(-0.0489198 0.445619 0.054057)
(0.00610548 0.395308 0.0570146)
(0.00307006 0.464797 0.0913628)
(-0.0454211 0.399082 0.0182905)
(-0.0715458 0.443017 0.0263444)
(-0.057115 0.406396 0.0064572)
(-0.0814204 0.449007 0.00873244)
(-0.0240697 0.327616 0.331477)
(-0.00557616 0.0560022 0.0790696)
(-0.00125382 0.0119384 0.0180948)
(-0.000276463 0.0026713 0.00403532)
(-6.92122e-05 0.000472116 0.0010007)
(-0.00831499 0.364055 0.0902312)
(-0.00365813 0.103486 0.024277)
(-0.000520798 0.0250783 0.0064508)
(-0.000136768 0.00567722 0.0014649)
(-5.88108e-05 0.00100306 0.00031777)
(-0.0739462 0.331659 0.3281)
(-0.0170555 0.0556548 0.0776171)
(-0.00384813 0.011775 0.0177432)
(-0.000844312 0.00262419 0.00392336)
(-0.000211646 0.000462487 0.000980052)
(-0.019936 0.368045 0.0918065)
(-0.00531077 0.103226 0.0270718)
(-0.00127995 0.0249124 0.00666504)
(-0.000268334 0.00561182 0.00154754)
(-7.17202e-05 0.000982881 0.000383702)
(-0.124393 0.33603 0.314239)
(-0.0287519 0.0555909 0.0738024)
(-0.00650382 0.0116568 0.0168042)
(-0.0014315 0.00258578 0.00371032)
(-0.000358026 0.00045467 0.000927786)
(-0.0315146 0.371923 0.08911)
(-0.00895947 0.103131 0.0261879)
(-0.00215672 0.024745 0.00643078)
(-0.000496975 0.00555184 0.00148575)
(-0.000124222 0.000970753 0.000369707)
(-0.167249 0.334613 0.288982)
(-0.0387725 0.0541532 0.0672501)
(-0.00880523 0.0112493 0.0152623)
(-0.00194364 0.00248827 0.0033663)
(-0.000486624 0.000437148 0.000841864)
(-0.0365686 0.36922 0.0866867)
(-0.0112405 0.101381 0.0249457)
(-0.00279399 0.024228 0.006046)
(-0.00065147 0.00542513 0.00138439)
(-0.00016258 0.000947439 0.0003426)
(-0.209455 0.319063 0.243154)
(-0.0490376 0.0503337 0.0562817)
(-0.0112123 0.0104312 0.0127771)
(-0.00248706 0.00231377 0.00282151)
(-0.000625188 0.000407338 0.000706405)
(-0.0401927 0.351322 0.0821189)
(-0.0136002 0.0966176 0.0229888)
(-0.00348287 0.0231593 0.00550996)
(-0.000823222 0.00519955 0.00125358)
(-0.000207895 0.000909274 0.000309258)
(-0.249341 0.286624 0.116)
(-0.0601853 0.0470179 0.0280729)
(-0.0139509 0.0100605 0.00648064)
(-0.00312019 0.00226754 0.00144111)
(-0.000787674 0.000402198 0.000361263)
(-0.0614162 0.293246 0.0401003)
(-0.0187737 0.0845461 0.0114055)
(-0.00462874 0.0207952 0.00271097)
(-0.00106099 0.00474455 0.000605885)
(-0.00026511 0.000837438 0.000149074)
(-0.231685 0.295827 0.172235)
(-0.0557131 0.0477451 0.0410965)
(-0.0128573 0.0100951 0.00941486)
(-0.00286384 0.00226109 0.00208364)
(-0.000720751 0.000399764 0.000521582)
(-0.048074 0.309434 0.0590183)
(-0.0159665 0.0890416 0.0165706)
(-0.00405245 0.0217093 0.00397318)
(-0.000946817 0.0049142 0.00090335)
(-0.00023683 0.000862855 0.000224334)
(-0.257558 0.283289 0.0682352)
(-0.0622764 0.0469242 0.0166466)
(-0.0144641 0.0100883 0.0038605)
(-0.00324005 0.00227942 0.00086258)
(-0.00081915 0.000404706 0.000216619)
(-0.0693656 0.288168 0.0224074)
(-0.0205438 0.0826183 0.00663231)
(-0.004993 0.0203415 0.0015661)
(-0.00112892 0.00465587 0.000349747)
(-0.000281398 0.00082409 8.68518e-05)
(-0.268646 0.282553 0.023572)
(-0.0644196 0.0466171 0.00571572)
(-0.0149839 0.0100157 0.00132831)
(-0.00335509 0.00226413 0.000297747)
(-0.000847752 0.000401667 7.47997e-05)
(-0.0718563 0.288892 0.00896772)
(-0.0213605 0.0822477 0.0023998)
(-0.00523919 0.0202006 0.00052272)
(-0.00110063 0.00463486 0.000147182)
(-0.000290338 0.00081908 2.8293e-05)
(-0.020391 1.32522 0.00549612)
(-0.274011 1.87541 0.0203601)
(-0.250087 1.83335 0.180892)
(-0.0898028 1.28677 -0.0330247)
(0.0648825 0.75999 0.0298856)
(0.110791 0.79926 0.0320285)
(0.309053 1.12061 0.0934137)
(0.451765 1.16937 0.119579)
(0.0693085 0.875536 0.0752043)
(0.331602 0.980112 0.141118)
(-0.0637311 1.39061 0.118337)
(0.103421 1.8942 0.182539)
(0.0993714 1.75678 0.142517)
(0.195746 2.32448 0.176893)
(0.368804 1.14813 0.0740973)
(0.521846 1.30734 0.0998264)
(0.558218 0.902102 0.079152)
(0.700408 0.96287 0.0938807)
(0.22787 0.490064 0.041175)
(0.295083 0.536991 0.0428116)
(-0.790732 0.197512 0.0919702)
(-0.572835 0.131597 0.0674083)
(-0.193812 0.0369065 0.0207933)