/*--------------------------------*- C++ -*----------------------------------*\
| =========                 |                                                 |
| \\      /  F ield         | OpenFOAM: The Open Source CFD Toolbox           |
|  \\    /   O peration     | Version:  2306                                  |
|   \\  /    A nd           | Website:  www.openfoam.com                      |
|    \\/     M anipulation  |                                                 |
\*---------------------------------------------------------------------------*/
FoamFile
{
    version     2.0;
    format      ascii;
    arch        "LSB;label=32;scalar=64";
    class       volScalarField;
    location    "2.4";
    object      gradTy;
}
// * * * * * * * * * * * * * * * * * * * * * * * * * * * * * * * * * * * * * //

dimensions      [0 -1 0 1 0 0 0];

internalField   nonuniform List<scalar> 
5712
(
11573.5
6673.33
18773.8
12300.4
20476.1
15154.1
32161.1
39832.5
42267.4
51693.7
27327.6
23736.9
17362.4
13754.5
8712.6
5892.38
19458.5
19930.7
16748.3
19689.7
26284.2
23500.6
30296.2
24548.9
8182.37
5905.48
4593.74
3411.75
9802.93
7989.82
5938.24
4792.87
17743.8
18452.2
18157
15381.5
14189.5
11053
11098.6
12594.3
17892.4
17793.9
37474.3
38728.7
26593.6
27377.3
15125.4
12754.9
16502.9
11773.8
7675.63
7872.11
6253.87
8642.97
3269.14
3910.14
8581.07
11623.6
5100.85
5920.92
9533.86
15829.5
6595.78
10733
2518.94
6393.2
2095.58
4776.14
17600.2
21724.4
18117.5
21607.1
21547.1
21778.6
21899.5
21470.5
15389.4
20830.4
15857.1
20591.7
17825
21442.7
17806.7
21383.2
22053.5
21177.1
21963.3
20965
14205
20908.4
13705.2
20977.2
17254.1
20152.5
21792.4
30263
18262
23194.7
21585.7
32771.3
16366.5
17775.3
21888
29144.5
16195.3
16650.1
22127.7
28947.3
5055.92
6576.58
12864
22291.6
6303.2
7138.26
16641.7
25480.9
7901.53
7971.59
21206.6
28652.4
24202.4
26092
20384.7
19596.6
28122.6
26307.6
24771.6
20829.8
17995.3
32024
23953.6
23581.2
20932.4
20674.1
36781.4
1973.7
2362.92
4195.71
9419.12
2812.41
3165.28
5841.66
10646.7
4223.19
3570.21
8000.18
12335.2
26141
25997.8
23516.9
23296.9
20039.6
18508.2
15130
13454
10584.5
14577.5
23755.2
23081.2
23870.2
23613.5
20668.2
19467
17017.7
15302.5
11310.3
14794.3
23582.7
26599.2
23494.1
27220.1
22861.5
23741.6
22290.8
23863.4
21362.4
21751.5
21194.9
21134.1
23299.1
27321.4
23181.5
27283.3
21623.6
24133.2
21433.5
24063.9
21444.4
21703.1
21432.4
21684.7
17921
17045.1
11533.8
12794.7
17787.9
16582.2
11348.9
12799.8
18179.6
17005.1
11791.1
12868.4
18254.4
16836.6
12160.3
12886.2
1627.88
1122.47
789.978
956.286
673.035
630.504
2256.08
1384.39
1063.08
1897.4
1546.97
1349.48
2655.99
2267.22
2298.09
3348.92
2777.55
2513.78
25085.9
22904.9
21338
23013
21554.2
20334.8
16473.6
15453.3
14898
11120
9779.12
9218.26
5095.43
3824.42
3269.18
22631.4
21199
19911.8
23137.3
21333.4
19877.4
17073.2
14869.9
13607.6
11096.9
9021.97
8179.32
5427.23
3813.21
3088.86
26729
26228.7
29058.8
26142.1
29902.3
26158.3
36033.1
27492.9
20762.2
21154.4
20481.5
19049.2
23296.1
22012.1
22838.8
19555.4
22597
22484.4
20856.4
22373.4
27898.7
24974.8
27495.7
27894.4
29810.3
30805.7
22898.8
23746.9
20530.4
19920.2
24984.2
25607.7
16342.6
8708.06
15237.7
9655.02
16578.1
8785.16
15181.5
9587.68
16371.5
8835.75
15154.5
9999.8
14722.4
10467
14890.7
10380.2
21047.6
18072
20874.1
18013.1
23199.2
21013.1
23376
20769.2
20469.6
15078.4
21411.5
14909.9
21300.2
17906.9
21550.9
17697.1
23938.6
20575.6
23936
20302
20235.2
15106.8
20159.2
15009.2
13430.5
8867.71
11936.4
7496.46
12544
7935.3
11489.5
6992.74
13742.1
9431.62
12117.3
7728.36
13750.4
9782.03
12081.7
7782.55
2528.35
1296.04
4544.56
2293.96
2708.46
1616.87
4851.99
2808.37
3360.21
2492.3
5401.1
3786.25
13174.6
20333.3
9481.52
9080.24
6300.24
19967.8
13972.4
8198.91
8228.86
5148.49
20698.3
16367.8
13049.6
10138.6
6105.78
670.732
512.119
1183.64
812.812
996.123
689.539
1810.42
1412.99
1793.96
1434.57
2784.93
2247.99
20373.6
19923.1
13904.9
13518.2
9076.59
9332.19
7634.65
7190.2
4375.97
3590.8
19056.5
17516.1
14872
13257.1
11639.2
10548.8
8836.78
8183.38
5395.92
5509.86
15180.3
12502.7
15237
12156.4
18125
15214.2
18038.8
14937.1
12843.3
10640.6
12484.1
10717.8
15217.6
11939.4
15117
11913.1
17945.3
15183.8
17762.5
15126.9
13059.3
10452
13033.9
10590.7
10007.9
8683.88
6431.16
7019.71
9659.11
8522.41
6122.88
6668.65
10430.5
8847.48
6595.86
7449.98
10685.7
8850.47
6866.75
7561.24
1983.71
1758.16
1461.01
8725.87
4655.02
3808.4
1914.48
1906.92
1700.26
9409.68
5483.52
4656.78
2612.39
2957.81
3046.08
10315.4
6834.15
6106.67
19025.7
18008.7
17225.3
13213.1
12992.3
12821.9
9784.67
9807.33
9865.55
8553.83
8375.51
8216.67
11663.1
8413.06
7635.07
16184.3
15136.1
14394.2
12261.7
11599.6
11203.7
10381.2
9792.33
9429.82
10181.8
9149.63
8522.86
14149.7
9484.57
8565.07
4715.73
2981.41
2206.1
1995.26
5357.78
3267.81
2338.73
2042.67
4734.18
2972.78
2209.39
2010.89
5477.07
3336.18
2382.34
2061.61
4706.12
2927.19
2199.45
1990.03
5584.14
3373.26
2421.49
2044.9
6034.41
3590.1
2494.2
2147.75
6223.84
3738.78
2584.77
2238.85
5031.93
3125.56
2284.13
2008.65
3981.9
2669.51
2063.52
1931.01
4353.66
2794.39
2110.87
1855.65
3622.3
2496.68
1972.79
1847.82
5484.26
3374.7
2408.96
2110.52
4194.86
2795.64
2122.21
1997.56
5738.19
3542.67
2495.68
2179.93
4284.77
2884.86
2169.03
2031.76
3451.06
2504.92
1983.83
1886.09
2037.59
1926.15
1710.92
1770.26
3451.64
2485.64
1977.09
1879.89
2141.52
1953.9
1721.1
1780.12
3529.08
2474.38
1978.31
1883.25
2475.4
2051.44
1759.15
1825.46
3453.96
2390.33
1927.27
1915.65
2757.88
2115.7
1804.07
1807.97
3138.15
2294.25
1868.22
1817.65
555.088
1449.6
1324.34
396.706
-1169.11
1178.79
1160.37
427.821
809.094
1532.49
1356.06
419.951
-841.096
1272.28
1188.57
437.422
1283.21
1678.61
1407.12
418.873
-289.923
1429.11
1231.53
443.175
1857.06
1849.7
1475.58
456.371
285.106
1600.2
1290.75
463.106
2221.11
2002.23
1559.48
537.233
405.262
1724.74
1345.2
480.399
2370.63
2163.42
1600.08
507.984
3.69408
1844.33
1443.57
510.224
2312.24
2091.98
1569.51
508.673
-22.3344
1788.44
1394.51
492.596
2380.52
2214.02
1629.17
471.337
-76.0921
1893.32
1478.77
513.769
2435.75
2268.94
1677.22
483.041
29.5688
1950.56
1521.31
527.427
1924.35
1506.62
1059.12
625.086
206.364
1902.05
1503.5
1059.88
625.895
206.645
1947.73
1518.29
1064.92
627.825
207.168
1930.09
1518.44
1067.68
629.654
207.762
1991.48
1535
1072.48
631.297
208.182
1964.52
1536.4
1076.9
634.113
209.098
1995.66
1557.12
1089.13
640.379
211.018
2042.87
1587.14
1106.67
649.359
213.768
2036.77
1555.19
1083.41
636.728
209.83
2175.83
1580.22
1090.58
639.433
210.578
2046.29
1550.02
1078.12
633.699
208.865
2172.71
1571.23
1084.72
636.365
209.622
2056.08
1573.46
1094.39
642.389
211.574
2215.33
1597.95
1100.58
644.545
212.154
2101.89
1602.57
1110.9
650.767
214.14
2263.99
1623.88
1114.87
651.787
214.382
1978.77
1514.2
1059.07
624.437
206.118
2082.4
1522.62
1059.3
624.061
205.969
2000.62
1523.39
1063.39
626.422
206.691
2099.66
1529.53
1062.59
625.584
206.412
2044.94
1538.83
1070.2
629.538
207.593
2137.68
1542.1
1068.46
628.322
207.207
2118.36
1556.69
1077.11
632.597
208.471
2183.24
1555.66
1075.18
631.498
208.12
2188.43
1565.91
1081.04
634.422
209.007
9274.72
14215.7
9753.77
14527.7
10467.5
14944.6
10979.6
15234.9
10592.7
14711.2
9902.7
11140.5
9882.69
11619.9
9977.04
11075.4
10159.9
11225.2
8190.4
1400.05
298.46
66.7826
11.8029
9101.38
2587.16
626.957
141.93
25.0765
8291.48
1391.37
294.374
65.6048
11.5622
9201.13
2580.65
622.81
140.296
24.572
8400.75
1389.77
291.421
64.6445
11.3668
9298.08
2578.27
618.624
138.796
24.2688
8365.33
1353.83
281.232
62.2069
10.9287
9230.51
2534.53
605.699
135.628
23.686
7976.56
1258.34
260.779
57.8442
10.1835
8783.05
2415.44
578.983
129.989
22.7319
7165.6
1175.45
251.512
56.6886
10.055
7331.16
2113.65
519.88
118.614
20.9359
7395.67
1193.63
252.377
56.5272
9.9941
7735.84
2226.04
542.731
122.855
21.5714
7082.23
1173.1
252.209
56.9855
10.1177
7204.19
2065.46
508.538
116.397
20.6023
7063.81
1165.43
250.392
56.6033
10.0417
7222.29
2056.19
505.016
115.872
20.477
33130.6
46885.2
45833.8
32169.1
18999.7
19981.5
28015.3
29234.3
21888.4
24502.8
34765.3
47355
43919.5
58111.9
28703.3
32683.6
22552.6
24071.7
12251.6
13424.8
4937.79
3289.91
922.661
721.828
808.967
713.861
859.538
4862.81
4841.29
2941.59
4145.83
4001.64
1755.78
2402.46
2198.28
1464.67
1682.16
1388.82
4375.07
2416.36
1577.86
1401.19
1760.66
1533.29
1214.3
1155.48
1094.06
966.209
1293.59
1171.42
4560.2
2799.09
3202.71
2068.25
1719.96
2389.72
1240.07
988.711
1358.3
10081.2
10264
10576.6
12006.2
19987.6
7320.37
8474.33
9363.71
10615.7
12444.5
2430.63
3482.51
4291.48
4848.51
5138.44
1915.27
2771.83
3441.27
3901.51
4137.13
2143.49
3094.33
3830.38
4330.91
4584.75
1895.7
2746.15
3410.55
3865.49
4097.03
2272.44
3270.73
4040.88
4566.21
4834.63
10264.2
10656.5
10625.5
11394.2
18005.8
10188.4
10394.6
10178.8
10515.3
12067.7
6787.27
8106.11
8826.71
9509.01
10308.3
9001.41
9523.71
9361.99
9360.38
9635.95
8679.73
9258.07
9061.71
8895.59
8930.66
4389.96
5835.46
6773.07
7384.35
7727.68
5731.26
7137.91
7911.56
8431.79
8799.35
5310.04
6711.82
7471.26
7903.61
8134.58
3741.87
5122.08
6068.05
6675.98
6989.1
4222.8
5636.32
6540.52
7096.55
7379.41
3568.97
4923.16
5860.92
6457.73
6756.43
9417.82
10119.3
10394
11431.9
18287.9
5769.62
7248.57
8207.91
9056.35
9896.42
4004.53
5439.97
6430.36
7102.78
7486.29
3596.41
4967.21
5953.3
6634.06
7016.77
4403.93
5880.46
6902.75
7658.9
8170.11
3904.48
5343.03
6383.29
7138.97
7600.37
3151.13
4425.02
5381.77
6057.1
6432.8
3013.69
4255.84
5184.13
5819.69
6156.06
2865.06
4063.5
4952.72
5542.22
5839.53
2544.31
3639.29
4469.81
5028.86
5312.55
3346.19
4664.73
5612.23
6239.65
6565.68
3052.08
4301.07
5224.37
5846.93
6171.62
9549.71
10017
10377
11691.1
19199.8
6434.87
7766.61
8748.13
9890.01
11311.4
7470.63
8830.82
9593.75
10758.2
13172.3
5061.79
6602.87
7716.32
8685.75
9493.6
4322.86
5823.14
6909.39
7752.42
8328.3
5716.27
7222.79
8252.97
9216.52
10184.3
3215.65
4508.25
5470.4
6141.87
6511.48
2598.8
3709.44
4552.9
5126.5
5422.21
3496.45
4851.57
5841.57
6534.44
6926.06
18165.7
12055.1
18721.3
13360.3
24286.7
34627.8
25370.2
34448
19258.4
20393
16515.5
19689.5
21908.5
20856.3
27846
22864.3
13982.1
13034.5
6850.23
5831.4
15245.6
13901.8
7872.07
6411.31
18841.1
20376.7
19335.9
17661.5
19681.7
12967.7
10887.9
12552.6
17782.3
17755.6
36904.3
38600.3
25842.5
27170.4
15690.2
12873.5
17151.1
11885.6
8307.22
8023.55
13669.8
15101.2
5722.08
6231.11
15055.2
17142
7142.63
7873.76
14382.3
20043.4
8355.15
12853.5
2923.85
7120.36
2176.15
4917.76
17962.1
20551.3
17899.8
20918.9
19636.2
19932.8
20673.5
20433.4
16307.8
20642.3
18494.9
20350.4
17605.4
21072.9
17722.5
21263.2
21419.5
20645.3
21776
20800.1
14462.9
20780.4
13741.3
20928.2
18117.4
21384.7
22008.7
30598.8
19727.1
25291.4
22068
33498.9
16753.7
18362
21962.1
29285.1
16293.2
16811.6
22138.4
28982.7
18737.5
20249.9
23449.5
34733.3
18870.2
19323.4
25109.1
35204.2
18623.2
18309.6
27043.7
34964.6
18172.3
19088.9
19369
20550.1
30785.6
18357.3
17115.7
20686.8
18804.6
35159.4
19151.5
19931.6
19723.4
21314.8
38062.2
11311.2
10369.9
10441.8
13463.8
12378.7
11365
10824.2
13846.2
13617.7
11837
11331
14168.4
17827.2
17190.9
16694.7
16281.8
19213.7
18014.7
15842.2
14291.9
11876.6
14795.8
18837.4
18673.7
19910.6
20084.6
19057.1
17969.1
17247
15336.3
11705.1
14322.4
21664.3
24409.2
22516.4
26038
20527.8
21464.3
21160.9
22734.5
20820.8
21056.9
20275.8
20021.8
22818.3
26744.9
23034.9
27110.9
21092.8
23583.7
21275.7
23902.9
21149.1
21344.4
21338.5
21576.7
17771.6
16763.3
11559.8
12704.7
17676.6
16265.1
11517.8
12728.8
18069.1
16836.2
11778.6
12803.2
18214.1
16781.6
12150.7
12861.2
9509.13
9652.2
4080.98
3762.89
10607.6
10268.8
4573.01
4379.83
10341.9
9702.99
5210.46
5034
16984.8
16507
16526.1
16618.7
16439.2
15963.2
12336.9
11063.1
6141.13
5079.95
19035
18300.2
20275.4
19520.3
16058.9
14921
11515.5
9919.38
5652.72
4265.98
21902.8
20860.8
26801.7
23457.7
24337.8
21731.2
33261.2
25140.1
20041.5
16559
21800.9
17349.2
19929.8
16844.9
21896
17575.3
20446.1
18161.9
18537.2
17280.2
21086.4
22307.9
26139.8
27480.6
28658.5
30469.7
21545
23266.9
19490.7
19622.8
23459.3
25093.9
13511.4
9934.08
13927.7
10159.8
13794
9843.49
14110.3
10006.2
13733.2
9696.74
14071.2
10199
14098.7
10505.8
14688.8
10386.1
17186.8
16741.9
18946.3
17190.6
19658
18875.6
21486.4
19576.4
18664
14772
17777.1
14615.6
20341.1
17468.9
21265.3
17564.1
23013.9
19972.7
23667.2
20119.5
19341.2
14914.3
19899
14949.2
13025.3
9285.15
12142.8
7874.01
12494.2
9007.04
12095.8
7795.41
13425.7
9585.94
12181.9
7904.08
13638.5
9818.66
12098
7839.81
13055.5
13320.8
9320.98
8574.77
13205.9
13438
9173.6
8502.14
13178.5
12909.2
8939.44
8402.58
15270.1
17954.5
16107.8
11995.8
8687.97
16675.1
15663.9
17568
12076.2
8390.89
18381.5
16365.5
14580.4
12242.4
7725.71
14044
15403.9
8569.47
9352.5
13885.4
14965.6
8486.12
9211.94
12942.4
13584.5
8098.95
8304.71
16541
15752.7
15028.2
14565.1
15683.4
16264.1
12275.8
13227.7
7847.77
7730.28
16751.5
15446.7
15184.1
13999.1
13736.3
13293.5
11637.9
11812.1
7216.84
7864.76
14859.2
12861
14921.1
12272.4
16710.8
14287.1
17227.6
14455.2
13005.9
11206.5
13098.7
12000
15018.9
11988.8
15055.1
11926.4
17538.3
14946.9
17640.9
15059.3
13076.2
10698.1
13025.2
10652.9
10510.2
9487.94
6920.86
7760.9
10804.7
10198.6
7092.69
8158.6
10630.8
9207.02
6823.02
7848.06
10742.8
8955.89
6944.25
7686.88
18589.7
18567.2
25824.3
21651.5
17793.3
17912.9
24745.1
20682
15591.6
16309.9
22688.7
19216.9
15342.5
14874.8
14242.1
14109.9
16601.2
17134.1
15520.7
15561.3
20809.4
17608.2
14534.7
13898.7
13478.4
13374.4
13887.4
14306.8
15036.9
14748.1
20394
16217.8
6211.79
3985.22
2820.62
2433.08
6469.39
4129.97
2907.93
2453.28
6088.73
3905.13
2769.99
2409.6
6405.51
4082.41
2873.18
2417.37
5862.78
3746.53
2686.87
2335.45
6304.47
3973.65
2830.77
2343.03
6455.41
3967.65
2773.57
2361.65
6364.77
3869.99
2678.92
2313.26
5636.86
3597.55
2619.04
2272.67
4384.21
3003.76
2297.24
2128.87
5303.58
3464.81
2542.9
2174.92
4279.88
3012.24
2281.96
2081.33
5818.8
3656.49
2620.04
2280.58
4411.94
2983.86
2269.68
2133.22
5841.78
3637.07
2568.43
2239.59
4353.11
2946.11
2219.56
2078.41
5671.2
3709.82
2655.62
2352.63
4760.53
3302.15
2438.54
2266.11
5507.66
3626.32
2605.77
2314.44
4647.65
3255.31
2412.77
2254.44
5277.3
3490.89
2540.6
2275.94
4564.81
3194.95
2380.44
2252.51
4793.41
3242.75
2407.35
2257.99
4380.86
3093.19
2327.1
2151.04
4113.56
2992.33
2250.57
2077.1
3402.83
2885.87
1997.92
554.311
1284.61
2616.63
1844.92
623.402
3445.7
2885.21
1996.85
573.884
1466.61
2621.8
1841.79
625.58
3521.32
2866.03
1973.87
545.483
1719.06
2611.21
1817.34
610.601
3487.46
2812.89
1974.63
574.967
1758.39
2565.29
1795.9
609.751
3209.86
2702.22
1962.82
654.825
1212.35
2450.12
1757.15
605.366
2667.51
2457.9
1848.1
600.248
135.517
2156.31
1663.18
586.606
2861.8
2562.25
1903.01
616.818
326.497
2282.66
1704.63
592.122
2526.95
2374.94
1780.6
530.702
-35.0046
2062.63
1607.99
560.878
2477.52
2320.15
1727.36
503.235
35.0503
2003.44
1563.19
542.997
2269.32
1717
1178
684.8
224.46
2217.08
1703.21
1174.09
683.479
224.113
2268.17
1710.3
1173.28
682.243
223.66
2208.28
1692.91
1167.34
679.905
223.008
2284.17
1704.58
1167.71
679.079
222.661
2199.33
1681.1
1159.37
675.681
221.71
2157.36
1657.59
1146.62
669.405
219.83
2102.34
1625.04
1128.47
660.389
217.122
2252.57
1686.11
1157.16
673.78
221.063
2381.78
1696.88
1155.42
671.903
220.416
2320.74
1705.45
1164.72
677.072
222.003
2438.38
1711.32
1162.01
674.992
221.317
2198.73
1663.36
1145.39
668.069
219.365
2348.77
1677.07
1144.86
666.78
218.898
2151.32
1633.72
1128.66
659.74
216.87
2309.85
1651.45
1130.37
659.595
216.761
2370.24
1737.08
1182.64
686.173
224.801
2536.56
1755.16
1185.88
687.042
225.011
2375.06
1732.92
1179.33
684.328
224.215
2538.08
1751.45
1183.25
685.617
224.564
2394.02
1727.25
1174.07
681.4
223.289
2545.55
1744.24
1178.24
682.958
223.73
2446.38
1725.06
1169.37
678.618
222.397
2556.75
1733.7
1172.06
679.756
222.719
2502.15
1721.12
1166.14
676.886
221.859
11348.3
14930.5
11412
14943.9
11550
14954.4
11372
14784.2
10643.7
14071.9
9894.58
11071.3
9914.94
11498
9961.87
11032.7
10153.1
11210.5
8720.16
1450.13
304.53
67.6088
11.8989
9389.01
2653.45
638.454
143.692
25.2897
8687.06
1426.93
298.52
66.1465
11.6213
9351.95
2621.67
630.212
141.416
24.7002
8582.75
1402.55
292.542
64.7347
11.3667
9251.55
2582.49
620
138.973
24.2731
8349.41
1346.43
279.652
61.8829
10.8731
9026.03
2507.74
601.753
134.939
23.5734
7885.14
1243.62
258.09
57.323
10.0989
8549.05
2378.09
572.628
128.837
22.5514
7128.95
1168.32
249.854
56.311
9.98897
7279.53
2097.22
515.789
117.702
20.7798
7341.61
1182.77
250.009
56.0214
9.90888
7640.86
2199.44
536.897
121.664
21.3774
7060.07
1168.97
251.234
56.7565
10.0767
7175.65
2056.47
506.191
115.85
20.5056
7056.31
1164.05
250.068
56.5264
10.0278
7212.84
2053.34
504.261
115.692
20.4447
32676.8
46578.8
44769.8
30806.2
24094.5
28669.8
23300
28561.4
26954.3
42692.1
28563.7
43706.1
244.371
261.529
299.773
361.67
451.631
574.817
258.865
276.474
315.566
378.249
467.529
586.954
233.433
228.039
251.663
248.107
292.422
293.147
358.907
367.943
454.423
474.287
578.885
601.831
737.293
945.603
1217.23
1579.01
1997.02
2297.79
740.032
929.191
1155.99
1411.36
1656.22
1815.16
654.316
959.996
1206.41
1379.03
1467.91
700.022
1026.54
1289.42
1473.38
1568.02
801.923
1174.89
1474.47
1683.71
1791.23
966.579
1414.04
1772.13
2021.57
2149.56
1205.15
1758.94
2199.76
2505.75
2662.54
1530
2224.76
2773.52
3153.02
3347.47
692.958
1016.35
1276.84
1459.22
1553.07
739.805
1084.4
1361.57
1555.38
1655.04
843.808
1235.48
1549.65
1768.88
1881.49
1010.26
1476.61
1849.15
2108.41
2241.42
1246.52
1817.15
2270.45
2584.96
2746.23
1560.75
2266.41
2822.79
3207.84
3405.58
625.083
917.267
1152.94
1318.11
1403.17
610.648
896.143
1126.49
1287.96
1371.12
673.702
988.166
1241.51
1418.88
1510.15
664.197
974.289
1224.18
1399.16
1489.2
782.394
1146.61
1439.37
1643.95
1749.1
784.341
1149.52
1443.1
1648.26
1753.7
959.418
1404.07
1760.19
2008.34
2135.66
983.535
1439.3
1804.26
2058.48
2188.87
1212.97
1771.14
2215.71
2524.24
2682.22
1265.83
1847.88
2311.08
2632.2
2796.45
1541.64
2243.21
2797.59
3180.43
3376.11
1602.66
2331.57
2906.74
3303.05
3505.16
1954.04
2823.93
3503.56
3972.63
4214.27
2487.74
3559.13
4384.43
4957.24
5258.64
3161.6
4447.57
5420.96
6113.41
6499.71
4011.83
5488.31
6585.83
7420.21
7952.46
4917.97
6473.02
7615.68
8589.95
9350.76
5541.69
7107.43
8257.1
9328.05
10273.6
1959.8
2829.54
3508.8
3978.71
4221.66
2445.74
3501.67
4316.92
4883.82
5182.12
3015.61
4266.58
5219.99
5893.44
6261.07
3637.45
5066.36
6141.6
6925.21
7380.97
4211.28
5766.61
6925.88
7807.52
8362.84
4575.58
6198.54
7404.17
8350.48
8978.69
247.253
270.282
314.908
383.977
482.131
614.613
261.818
285.432
330.925
400.549
497.247
624.104
236.344
231.056
260.575
257.391
307.97
309.477
382.16
392.715
486.628
508.372
622.508
649.221
785.825
998.743
1267.83
1616.97
2017.17
2303.49
783.276
975.107
1199.26
1445.85
1677.62
1822.28
662.05
971.417
1220.88
1395.7
1485.71
723.595
1061.46
1333.73
1524.45
1622.63
842.729
1235.46
1551.49
1772.62
1886.4
1026.85
1503.81
1886.73
2154.25
2291.8
1287.87
1882.88
2358.91
2690.89
2861.54
1638.56
2388.9
2986.19
3402.17
3616.33
700.899
1028.11
1291.78
1476.44
1571.48
763.956
1120.24
1407.14
1607.98
1711.32
885.268
1297.14
1628.22
1859.73
1978.81
1070.59
1566.64
1964.31
2241.96
2384.73
1327.19
1938.21
2426.15
2766.32
2941.31
1662.11
2419.72
3021.53
3440.77
3657.01
632.901
928.811
1167.55
1334.92
1421.12
618.75
908.101
1141.62
1305.36
1389.69
697.684
1023.65
1286.48
1470.65
1565.48
689.169
1011.21
1270.96
1452.99
1546.72
824.286
1208.72
1518.27
1734.95
1846.45
828.332
1214.72
1525.91
1743.75
1855.83
1022.22
1497.54
1879.41
2146.28
2283.49
1050.46
1538.95
1931.43
2205.69
2346.67
1300.34
1902.09
2383.93
2719.98
2892.65
1358.45
1987.11
2490.44
2841.36
3021.57
1660.76
2423.6
3031.63
3454.89
3672.45
1732.37
2528.73
3163.49
3605.03
3831.71
2087.68
3028.92
3772.8
4291.41
4560.3
2636.37
3792.28
4696.92
5332.97
5670.02
3307.24
4684.83
5749.08
6517.27
6948.04
4127.67
5689.64
6877.37
7791.61
8374.34
4986.67
6603.54
7813.81
8851.76
9657.5
5563.5
7151.95
8326.79
9422.4
10386.5
2078.66
3011.39
3747.13
4260.46
4527.25
2573.34
3700.09
4580.87
5199.5
5526.77
3137.91
4461.17
5484.09
6214.2
6614.43
3737.33
5230.24
6369.54
7207.32
7695.5
4275.23
5875.08
7080.29
8002.15
8582.69
4597.35
6236.3
7458.7
8420
9057.88
4919.28
3288.94
986.129
776.43
883.182
774.625
929.566
4533.67
4380.64
2881.35
3632.03
1818.97
2378.53
1545.94
1705.94
1453.98
4228.24
2437.85
1657.76
1483.24
1828.25
1602.61
1277.74
1233.75
1191.85
1056.94
1384.37
1258.43
4506.07
2805.31
3172.33
2100.86
1774.13
2414.59
1312.18
1066.18
1435.34
10079.6
10319.4
10683.3
12180.6
20308.3
7335.27
8524.52
9453.02
10748
12617.8
2608.86
3763.76
4670.33
5305.47
5639.41
2065.81
3003.25
3745.85
4262.63
4529.32
2349.66
3414.86
4256.77
4840.61
5140.81
2063.33
3004.05
3750.28
4268.56
4534.94
2468.23
3577.8
4452.24
5060.2
5374.72
10056
11310.4
12100.7
13655.3
21576.6
9930.44
11405
12399.9
13802.9
16193.1
6903.45
8787.27
10167.5
11450.7
12656.2
8734.61
10640.5
11742.4
12881.3
13871.7
4667.95
6467.1
7809.81
8778.13
9335.2
5913.48
7865.64
9275.17
10362
11073.3
4029.83
5695.83
6961.09
7846.91
8324.19
4419.09
6193.28
7524.46
8459.8
8970.93
3809.03
5418.4
6648.08
7501.67
7952.56
9333.05
10513.5
11316.5
12872.9
20679.4
5954.9
7773.18
9134.11
10357.1
11458.5
4283.42
5989.47
7282.15
8219.47
8761.85
3855.51
5435.21
6646.32
7521.57
8020.24
4650.48
6382.14
7693.36
8708.51
9383.09
4125.74
5746.99
6986.36
7917.33
8486.24
3336.83
4734.07
5816.04
6596.96
7034.93
3242.9
4637.68
5720.71
6485.44
6896.55
3150.08
4535.91
5614.53
6361.85
6750.16
2801.19
4049.35
5027.64
5706.35
6057.82
3629.65
5171.19
6356.82
7187.52
7632.25
3310.43
4738.42
5845.61
6622.3
7036.12
9546.39
10190.7
10716.6
12234.7
20195.1
6491.81
7920.13
9010.73
10266.3
11787.2
7523.63
9141.94
10204.4
11680
14421.1
5184.93
6856.81
8119.71
9231.73
10140.5
4502.07
6160.77
7423.18
8425.95
9104.53
5870.11
7625.7
8954.74
10205.5
11381.9
3429.5
4869.73
5983.82
6783.9
7229.17
2819.85
4065.8
5041.16
5722.01
6078.56
3733.14
5267.5
6447.69
7304.27
7793.45
9884.01
9308.5
8304.86
6905.8
5010.04
1959.22
18500.6
18847.8
21409.5
22076.7
18160.9
19277.9
20491.3
19876.1
15165.1
18620.3
15823.3
19181.9
18161.6
16383.3
25306.2
17808
18018.5
20231.7
20662.8
17212.1
18311.1
19614.3
19194.2
15109.7
22481.8
15684
22385.9
18341.6
19885.5
27152.3
17039.2
17124
18739.7
18932.1
16518.1
18007.3
18446.3
18511.5
17338.4
19927
18096.6
19949.9
19925.6
21888.3
24483.4
16321.1
16424.6
17406.5
17444.3
16126.6
17849.8
17280.2
17614.1
16280.5
17459.9
17013.2
17035.6
18258
19735.3
21216.7
15564.7
15701.2
16510.2
16465.9
15862.4
17740.6
16527.9
17044.9
15444.4
14456.1
16204.3
13901.6
16831.1
16700.9
17587.6
15239
15417.2
15921.3
15845.5
15510.8
17074.2
16050.3
16488.7
14771.6
12468.5
15343.6
12235.7
15696.7
14737.2
15970.5
21371.4
20563.6
22385.6
23497.2
19849
19854.8
20883.2
19968.9
18921.9
14073.1
18892.4
14156.9
16795.5
15263
18370.5
20202.5
19622.3
20722.3
21448.2
19199.9
19366.5
19731.2
18966.9
17595.9
13667.8
17592.9
13769.1
15449.6
13789.2
17062.6
18679.4
18342.1
18738.8
19084.8
18108.2
18288.7
18252.8
17801
16777
13473.2
16588.9
13217
14900.9
12662.7
16838.9
17266.7
17080.1
17243
17391.6
16933.1
17055.8
17085.5
16733.3
15931.7
13999.1
15837.4
13681.8
14393.6
12802.1
17272.1
16566.8
16447.3
16435
16499
16164.9
16281.5
16412
16198.1
15804.4
15167.7
15745.7
15023
14564.2
13380.7
17955
16067.6
15956.2
15979.5
16016
15721.6
16016.8
15931.7
15852.2
15765.1
15904.6
15766
15822.8
14710.7
13955.3
18725.7
11384.7
6459.85
18766.6
12307.5
20497.3
15141.7
32188.9
39846.2
42317.5
51718.6
27376.7
23737.5
17370
13780.2
8450.98
5623.38
19461.6
19933.1
16747
19690.7
26297.2
23506.3
30304.5
24553.2
8014.5
5788.39
4439.08
3309.14
9775.77
7980.23
5936.77
4806.24
17739.1
18447.6
18155.6
15381.9
14185.4
11056
11099.5
12595.7
17894
17795.6
37481.2
38733.4
26596.9
27379.6
15126.3
12756.4
16504.4
11775.2
7676.76
7873.2
6142.34
8506.11
3181.83
3813.87
8582.76
11635.6
5114.91
5937.3
9535.01
15835.6
6601.84
10740.7
2520.29
6396.17
2096.05
4777.28
17601.3
21725.5
18118.9
21608.2
21549.9
21780.1
21901.9
21471.7
15391.2
20831.6
15857.3
20592.6
17826.3
21443.6
17807.7
21384
22055.2
21178
21964.5
20965.6
14206.3
20909.5
13706.3
20978.4
17256.1
20156.2
21794.1
30265.5
18263.5
23198.5
21587.4
32774.2
16368.2
17778
21889.7
29146.7
16197
16652.3
22129.3
28949.5
4974.14
6496.19
12691.2
22103.4
6308.65
7142.04
16656.9
25499.3
7903.98
7973.65
21213.4
28659.5
24202.4
26092.7
20384.3
19597.8
28126.6
26308.1
24771.5
20828.9
17996
32028.2
23954.5
23581.8
20932.9
20675.6
36784.8
1933.23
2331.64
4109.77
9328.1
2816.76
3169.5
5853
10656.3
4225.17
3571.37
8003.9
12337.4
26141.2
25997.8
23516.7
23296.9
20039
18507.9
15130.8
13454.7
10586.4
14578.9
23755.5
23081.3
23870.5
23613.7
20668.6
19467.4
17018.8
15303.3
11311.5
14795.2
23583.2
26599.4
23494.7
27220.3
22862
23741.7
22291.2
23863.5
21363.2
21752.1
21195.7
21134.6
23299.7
27321.6
23182
27283.5
21624
24133.2
21433.7
24063.9
21445.2
21703.6
21433.1
21685.1
17922
17045.8
11534.6
12795.4
17788.9
16583
11349.8
12800.6
18180.5
17005.8
11791.8
12869.1
18255.3
16837.3
12161
12886.8
1605.55
1105
775.53
951.704
667.525
623.95
2262.67
1387.93
1064.69
1903.62
1550.95
1351.83
2656.56
2267.97
2298.92
3349.95
2778.96
2515.17
25085.9
22905.2
21338.3
23013.2
21554.7
20335.5
16473.9
15454
14898.8
11120.6
9779.95
9219.18
5096.09
3825.19
3269.91
22631.5
21199.3
19912.2
23137.5
21333.9
19878.1
17073.6
14870.5
13608.3
11097.5
9022.59
8180
5427.71
3813.67
3089.26
26733.5
26230
29061.9
26143.4
29916.3
26163.8
36045.4
27497.7
20587.5
21101.8
20276
18985.5
23265.9
21984.2
22805
19528.2
22591.8
22480
20856.3
22371.7
27882
24959.9
27496.7
27894.7
29813.9
30807.7
22897
23746
20529.5
19919.3
24977
25604.3
16347
8713.24
15235.9
9662.13
16559.4
8780.34
15165.8
9584.02
16359.4
8831.2
15144.1
9995.15
14716.5
10463.4
14887.7
10378
21045.9
18071.6
20873.1
18012.8
23201.2
21014
23377.9
20769.8
20464.4
15077.1
21404.7
14908.4
21299.7
17906.6
21550.4
17696.7
23939.9
20575.9
23936.6
20302.1
20232.1
15105.8
20157.3
15008.4
13427.4
8865.32
11934.7
7495.23
12540.7
7932.93
11487.6
6991.37
13739.9
9429.6
12116
7727.32
13748.8
9780.53
12080.6
7781.68
2515.58
1279.93
4530.09
2275.32
2708.95
1617.96
4851.92
2809.25
3359.36
2492.17
5399.6
3785.68
13175.3
20334.6
9481.16
9078.75
6298.8
19968.7
13972.7
8198.83
8227.79
5147.56
20699.1
16367.8
13048.6
10137.1
6104.6
652.984
490.85
1163.97
803.268
997.511
689.336
1810.68
1412.33
1794.25
1435.23
2784.88
2248.46
20373.9
19923.1
13904.8
13517.8
9076.25
9331.69
7634.02
7189.94
4375.47
3590.74
19056.9
17516.2
14871.9
13256.8
11638.5
10548.4
8835.92
8182.93
5395.17
5509.39
15180.1
12502.4
15236.8
12156.1
18125.4
15214.2
18039
14937
12842.6
10640
12483.3
10717.2
15217.3
11939.1
15116.7
11912.8
17945.4
15183.7
17762.5
15126.7
13058.6
10451.5
13033.3
10590.2
10007
8683.27
6430.4
7019.05
9658.12
8521.8
6122.05
6667.99
10429.7
8846.91
6595.2
7449.34
10685.1
8849.95
6866.16
7560.67
1948.62
1728.76
1437.43
8677.19
4611.87
3766.98
1911.59
1905.6
1700.27
9405.7
5483.33
4657.02
2613.08
2958.32
3046.5
10315.5
6834.7
6107.32
19025.5
18008.6
17225.3
13212.7
12991.9
12821.6
9784.06
9806.77
9865.1
8553.63
8375.29
8216.46
11662.7
8413.14
7635.28
16184.1
15136
14394.2
12261.4
11599.3
11203.5
10380.8
9792.06
9429.62
10181.4
9149.41
8522.72
14148.7
9484.33
8565.03
4715.99
2981.32
2206.11
1994.64
5356.33
3266.09
2337.91
2041.62
4733.01
2972.28
2209.04
2010.67
5476.41
3335.92
2382.12
2061.42
4704.84
2926.69
2199.14
1989.82
5582.86
3372.81
2421.21
2044.69
6033.14
3589.63
2493.94
2147.57
6222.86
3738.37
2584.55
2238.69
5030.9
3125.09
2283.86
2008.46
3981.22
2669.12
2063.28
1930.82
4352.67
2793.93
2110.59
1855.46
3621.6
2496.28
1972.54
1847.64
5483.3
3374.25
2408.71
2110.34
4194.25
2795.28
2121.98
1997.39
5737.39
3542.29
2495.45
2179.77
4284.24
2884.54
2168.83
2031.59
3450.11
2505.27
1984.39
1885.67
2035.24
1925.65
1711.36
1769.23
3450.83
2485.2
1976.75
1879.69
2140.86
1953.6
1720.85
1780.03
3528.22
2473.95
1978.01
1883.06
2474.78
2051.1
1758.91
1825.31
3453.19
2389.92
1927
1915.45
2757.24
2115.34
1803.83
1807.79
3137.49
2293.86
1867.97
1817.45
554.772
1449.16
1325.04
396.766
-1167.72
1177.35
1160.03
427.652
808.495
1532.37
1355.87
419.938
-841.8
1272.35
1188.58
437.452
1282.79
1678.37
1406.95
418.827
-290.201
1428.94
1231.44
443.151
1856.62
1849.39
1475.39
456.317
284.88
1599.95
1290.6
463.058
2220.64
2001.9
1559.27
537.168
405.05
1724.45
1345.03
480.341
2370.23
2163.1
1599.88
507.928
3.55358
1844.05
1443.38
510.164
2311.79
2091.65
1569.3
508.616
-22.4947
1788.14
1394.32
492.536
2380.16
2213.73
1628.98
471.289
-76.2039
1893.06
1478.6
513.715
2435.44
2268.68
1677.05
483
29.4714
1950.33
1521.16
527.378
1922.86
1505.91
1058.81
624.951
206.324
1900.38
1502.62
1059.47
625.704
206.588
1947.67
1518.21
1064.88
627.804
207.163
1929.98
1518.36
1067.63
629.638
207.761
1991.37
1534.92
1072.44
631.277
208.178
1964.4
1536.32
1076.85
634.095
209.096
1995.53
1557.03
1089.08
640.356
211.012
2042.74
1587.06
1106.62
649.335
213.762
2036.63
1555.11
1083.36
636.705
209.825
2175.66
1580.13
1090.53
639.409
210.571
2046.15
1549.93
1078.07
633.677
208.86
2172.54
1571.14
1084.67
636.342
209.615
2055.94
1573.38
1094.34
642.365
211.567
2215.16
1597.85
1100.53
644.52
212.147
2101.75
1602.48
1110.85
650.743
214.133
2263.83
1623.79
1114.82
651.762
214.374
1977.24
1513.59
1058.83
624.331
206.086
2080.93
1522.11
1059.1
623.978
205.949
2000.6
1523.32
1063.34
626.404
206.688
2099.66
1529.44
1062.54
625.57
206.414
2044.84
1538.75
1070.16
629.519
207.589
2137.59
1542.02
1068.41
628.305
207.205
2118.22
1556.6
1077.06
632.575
208.466
2183.09
1555.57
1075.13
631.477
208.116
2188.26
1565.82
1080.99
634.4
209.001
9225.33
14160.3
9756.11
14529.4
10469
14945.4
10980.6
15235.5
10593.5
14711.7
9903.29
11141.1
9883.33
11620.5
9977.61
11076
10160.5
11225.8
8179.5
1390.69
296.051
66.2293
11.7051
9085.92
2581.34
625.295
141.533
25.0041
8289
1391.96
294.486
65.6225
11.5644
9199.5
2580.04
622.597
140.235
24.5602
8400.19
1389.83
291.43
64.6428
11.3659
9297.66
2578.06
618.545
138.77
24.2634
8365.38
1353.84
281.23
62.2046
10.928
9230.56
2534.49
605.673
135.618
23.6835
7976.83