/*--------------------------------*- C++ -*----------------------------------*\
| =========                 |                                                 |
| \\      /  F ield         | OpenFOAM: The Open Source CFD Toolbox           |
|  \\    /   O peration     | Version:  2306                                  |
|   \\  /    A nd           | Website:  www.openfoam.com                      |
|    \\/     M anipulation  |                                                 |
\*---------------------------------------------------------------------------*/
FoamFile
{
    version     2.0;
    format      ascii;
    arch        "LSB;label=32;scalar=64";
    class       volScalarField;
    location    "0.6";
    object      gradTx;
}
// * * * * * * * * * * * * * * * * * * * * * * * * * * * * * * * * * * * * * //

dimensions      [0 -1 0 1 0 0 0];

internalField   nonuniform List<scalar> 
5712
(
-8728.73
-11182.4
-20267.9
-30014.8
-30812
-52936.3
-23245.1
-58675.2
-18601.6
-40761.9
-27806.9
-42544.7
-24644.1
-32863.2
-10943.4
-12665.3
-20458.5
-23458.9
-25814.8
-25717.6
-19879.1
-24044.4
-28972
-25865.7
-7407.56
-5864.39
-9176.47
-6450.88
-17379
-14472.5
-29244.2
-21901.7
-22515.4
-23572.4
-25912.8
-25554.8
-9896.13
-7405.65
-51797.1
-69372
-34011
-41639
-67673
-88139.6
-35393.2
-40599.1
-39407
-55670.1
-35098.8
-46183.8
-20982.9
-33374.1
-4291.78
-1479.44
-4476.24
-1645.08
-12878.9
-5310.69
-17351.1
-6536.02
-12939.7
-4940.54
-13123.5
-4311.51
-21959
-7147.16
-28312.2
-9757.77
-30880.2
-15915.5
-28605.4
-16973.7
-27714.5
-17901.6
-24766.7
-17953.7
-23738.6
-14475.4
-23800.7
-12808.5
-29781.3
-18595
-30001.9
-18694.5
-26419.4
-18835.9
-26825.9
-18801.7
-25652.8
-16358.1
-26613.1
-16718.7
-24823.8
-11359.7
-12412.1
-15851.7
-24737.9
-12502.9
-11080.6
-16310.2
-26338.5
-11212.4
-13830.1
-15830.7
-27734.6
-11464.4
-14906.5
-16437.7
-5501.15
-6026.36
-1919.79
-4035.11
-15745.4
-16631.8
-6479.61
-12221.9
-20065.3
-21685.5
-10779.4
-18634
-12153.2
462.047
-16148.8
-22156
-13344.4
997.234
-6074.49
-15036.2
-25760.4
-21345.9
-12195.1
-15903.1
-15411.7
-14639.5
-23698.3
-4899.75
-3720.81
-2920.58
-2781.46
-13443.9
-10330.4
-8875.33
-8110.68
-16262.7
-12170.2
-11652.2
-9956.2
-4927.03
-6522.61
-11084.4
-11656.1
-16425.8
-14361.2
-19227.4
-15565.4
-15517
-12752.1
-9586.69
-8660.87
-13315.9
-8542.85
-13275.3
-7818.84
-12640.2
-7164.61
-16453.8
-9854.82
-11374.1
-3247.09
-10402.6
-9474
-13183
-15122.6
-14713.4
-19442.5
-9168.7
-8321.9
-10866.4
-1300.57
-9485.7
-15770.9
-9074.2
-17157.3
-14648.5
-24297.8
-14864
-26090
-8152.61
-14677.4
-7631.03
-15885.8
-11751
-7380.93
-17119.1
-5960.78
-11217.2
-206.799
-14670.4
571.342
-11561.8
-11539.6
-17972.6
-7715.37
-9962.4
-13752
-16299
-10112.3
-2584.34
-2011.79
-1452.53
-1936.34
-1572.18
-1191.98
-7312.02
-4813.6
-3344.33
-5224.81
-3333.64
-2331.37
-7945.71
-5474.57
-4408.66
-6158.97
-3880.96
-3128.43
-4844.67
-3194.6
-2700.3
-9197.76
-5112.63
-3504.28
-10036.2
-5508.32
-3487.49
-10507.7
-6359.9
-4620.94
-8468.99
-4340.44
-2727
-12796
-8594.66
-5863.13
-9460.35
-6177.76
-3822.75
-9784.58
-5882.01
-3369.54
-9398.58
-5308.32
-2889.92
-11459.7
-5403.71
-2233.82
-11941.8
-15644.2
-9870.9
-12281.5
-14079.4
-19823.4
-13022
-18012.6
-0.841066
-667.123
473.311
-213.051
-3099.41
-3193.06
-1533.77
-922.2
-1349.62
-2946.3
-10185
-14204.9
-6400.9
-4041.59
-11703.5
-11705.1
-19089.4
-21093.8
237.25
4149.74
-8439.57
-7849.15
-7360.4
-5590.01
-1024.47
-529.114
-816.616
-423.449
-2156.22
-282.22
-181.462
383.014
-9095.87
-2074.31
-6622.14
-1740.72
-9114.83
-2624.04
-10797.9
-3104.8
-10492.8
-12283
-9574.28
-11929
-17306
-16877
-16424.5
-15888.8
-6130.81
-8642.77
-7097.07
-8611.39
-10019.8
-11478.5
-10838.2
-11453
-17110.4
-15575.4
-17819.3
-15504.9
-6092.7
-8330.1
-6437.84
-8336.11
92.1475
-732.224
-5764.18
-2596.57
414.292
-443.893
-5325.22
-2268.62
-236.43
-927.313
-5841.49
-2815.74
-475.168
-1037.34
-5748.96
-2830.53
470.263
534.738
-156.996
16.6229
2122.92
2012.05
123.619
345.414
278.407
1256.03
-1094.06
-468.196
8939.8
9855.27
4365.25
3163.44
480.364
10628.6
9514.09
3188.71
4461.49
807.881
-11263.2
-8251.91
-6359.55
-5010.39
-2182.87
435.252
318.021
63.449
50.1819
1456.45
1114.39
226.66
165.873
1494.65
1469.9
-135.351
-95.6354
4462.31
1317.69
6280.51
3055.32
2264.29
1261.87
2462.96
1696.8
96.1567
-212.909
-4193.71
-2456.35
-1586.02
269.642
-1093.11
237.198
-1036.26
-90.5946
-632.579
-534.674
-4996.7
-4012.25
-9059.11
-5152.19
-8298.97
-7306.62
-12317.7
-9181.73
-6211.01
-3336.28
-3189.67
-2703.8
-10566.1
-4542.36
-11464.3
-5020.16
-13648.5
-9451.04
-14439.9
-10175.1
-7497.43
-2789.49
-8258.34
-3165.97
-3887.27
-2494.63
-1817.93
-2359.27
-2404.06
-2197.7
-1497.8
-2160.1
-4485.95
-2404.07
-2031.36
-2704.47
-5462.23
-2575.58
-2798.23
-2741.85
222.426
175.655
173.346
24.6244
60.4563
59.4765
828.614
672.451
583.044
98.8841
179.322
159.72
1191.85
988.171
844.171
-106.109
183.637
211.368
361.017
307.557
81.9346
1455.04
1306.35
1056.91
999.381
969.198
853.882
1265.42
1065.27
896.911
-343.159
65.2942
95.1083
-3283.33
-1716.9
-889.788
-95.8876
400.694
598.225
6.71301
491.099
634.901
-28.8555
402.174
482.25
-671.451
73.6381
149.779
-6.58617
-0.598551
0.874724
3.20925
100.178
35.7329
20.1935
11.6886
-44.9
-10.4684
17.7823
20.4106
133.89
50.6212
52.1755
33.8889
-181.726
-44.6002
25.9732
41.2901
-52.5342
1.73799
23.7455
21.2167
-92.2402
-10.0853
-1.47368
1.20637
-175.78
-41.6722
5.65664
12.6394
-557.208
-146.883
-38.0035
0.833722
-724.938
-182.877
-62.5974
14.0987
-387.141
-93.7794
-9.00948
25.7104
-593.802
-145.063
-61.9654
6.85313
-585.925
-156.912
-24.6243
14.6437
-804.553
-208.146
-66.6781
20.4103
-611.711
-169.944
-20.165
23.3154
-846.688
-224.453
-71.9092
20.1713
-4.89361
-1.55864
1.67547
5.04781
18.6309
6.44424
-0.549834
4.152
15.982
4.59296
12.7804
17.3205
81.287
26.8026
3.28921
12.556
-225.679
-62.3358
-3.89379
23.0251
-94.9934
-20.3225
-8.51333
19.8161
-64.203
-0.208732
17.3977
29.8524
-9.41169
9.28271
-9.29694
19.0469
-501.515
-119.041
-51.344
22.2216
36.5045
12.836
4.10109
4.6932
65.6527
21.7839
7.07662
3.21373
76.5094
28.8117
5.07773
10.2642
172.439
57.9954
16.6914
7.72947
46.8129
26.0722
2.50157
15.1133
230.481
80.8196
23.8758
11.2882
-36.015
14.1465
-0.231727
20.851
201.497
84.1074
25.303
12.6823
-234.307
-28.1118
-26.8039
12.4202
88.0469
65.2273
16.7609
10.3754
-547.728
-100.866
-46.0965
9.7097
-166.699
-10.6139
-3.05907
3.62449
-413.156
-61.8478
-39.1831
8.5667
-75.6006
22.4449
6.609
7.2092
-650.128
-134.306
-53.766
10.2087
-232.407
-35.0967
-8.67014
1.65809
-710.69
-158.016
-60.2868
7.91114
-276.882
-52.9141
-13.4884
-0.0336546
1.72962
0.547512
0.171561
0.0553567
0.0220115
2.57063
0.817577
0.264405
0.0872548
0.035199
4.12252
1.22866
0.382496
0.123683
0.0493275
5.18771
1.68733
0.555612
0.18545
0.0753982
5.27541
1.48941
0.460602
0.149284
0.0597363
6.33357
2.12795
0.70805
0.237966
0.0972524
2.69832
0.965621
0.328489
0.112112
0.0463934
1.91169
0.555034
0.175637
0.058503
0.0240292
4.38684
1.39134
0.445351
0.146868
0.0594519
1.92425
0.55879
0.173434
0.0565362
0.022787
5.54739
1.70814
0.550428
0.1823
0.0738935
2.0811
0.601863
0.186864
0.0607476
0.0243826
3.04444
0.851409
0.261661
0.0852197
0.0344143
1.78066
0.464668
0.14164
0.0463129
0.0187996
2.75265
0.577907
0.151008
0.0455559
0.0177397
1.47529
0.274608
0.0670462
0.0196393
0.00755834
1.47079
0.443054
0.135248
0.0428726
0.0168405
1.28804
0.388157
0.118306
0.0373056
0.0145725
3.871
1.10577
0.336173
0.107093
0.0422762
3.48447
1.0057
0.305313
0.0967666
0.0380087
4.8989
1.30336
0.389953
0.124054
0.0490633
4.6791
1.32627
0.406401
0.130401
0.0517345
4.8873
1.42815
0.452241
0.148431
0.0598155
3.36093
0.981834
0.30718
0.0998955
0.0399797
2.44145
0.753436
0.244225
0.0810729
0.0328986
-31.4195
-301.844
143.197
-675.904
643.058
-734.36
1595.25
-273.522
2375.55
1088.08
-335.862
-1227.78
1618.51
1398.96
-1228.79
-2369.48
-1778.37
-2826.92
-1155.24
-288.582
-71.3208
-18.5991
-6.42019
-275.025
-165.59
-25.5005
-8.29923
-4.21946
-3549.89
-881.563
-218.738
-56.8803
-19.7042
-631.15
-214.946
-62.8198
-16.7527
-6.42553
-5921.85
-1475.49
-368.045
-96.318
-33.4402
-1086.3
-382.906
-108.971
-31.2593
-11.1412
-7856.95
-1968.5
-495.152
-130.684
-45.724
-1328.81
-497.06
-144.475
-41.6685
-14.8422
-9701.22
-2462.06
-626.738
-167.349
-59.2674
-1565.63
-625.827
-184.917
-53.7379
-19.3671
-11284.2
-2970.55
-773.758
-210.781
-76.0096
-2707.46
-910.132
-253.573
-71.0188
-25.3967
-10584.6
-2768.49
-714.762
-192.823
-68.8913
-1997.7
-753.636
-218.214
-62.456
-22.3686
-11589.3
-3061.44
-801.401
-219.5
-79.5822
-3125.32
-1007.31
-275.437
-75.9961
-27.1
-12063.7
-3164.54
-830.715
-227.878
-82.7526
-3277.47
-1054.97
-289.762
-75.3394
-28.0054
-921.828
-9091.85
-8291.6
-2966.6
1795.59
3043.47
8326.69
12406.7
1305.56
8848.13
-3228.64
1662.71
2153.15
5156.44
10493.1
15273.9
15948
20340.4
6519.77
8531.75
-18688.7
-12656.6
-1933.52
-1052.1
-706.943
-881.206
-1128.02
-10682.4
-8110.99
-7319.08
-6397.73
-4210.93
-3141.53
-4833.91
-2376.43
-1992.73
-2145.07
-1450.46
-17580.8
-7468.65
-1724.34
-3203.23
-5464.43
-3356.08
-3217.12
-2151.58
-1000.7
-1344.32
-1816.32
-2021.9
-18113.6
-10848.7
-10020.7
-6617.58
-5688.8
-6821.46
-1887.62
-2007.16
-3469.98
-11833.8
-8895.85
-6200.53
-4440.57
-2858.65
-7669.81
-4855.72
-3255.66
-2038.45
-847.471
-1626.11
-1270.24
-893.127
-527.271
-174.795
-903.352
-720.291
-514.746
-306.494
-101.637
-604.508
-479.241
-340.171
-201.292
-66.4833
-761.452
-610.903
-438.568
-261.679
-86.7706
-961.101
-759.49
-538.067
-318.319
-105.224
-6179.8
-4109.81
-2679.14
-1899.02
-1505.44
-3948.28
-2497.06
-1460.3
-960.605
-554.403
-4386.96
-2570.28
-1612.74
-954.71
-389.341
-3057
-1835.64
-1053.82
-616.966
-289.208
-1849.06
-1049.98
-573.787
-316.934
-126.165
-2352.45
-1645.07
-1055.04
-588.017
-192.815
-3184.23
-2002.17
-1237.17
-686.274
-234.999
-1493.82
-879.646
-508.276
-263.086
-84.2394
-1562.18
-1134.77
-747.566
-421.526
-137.105
-1625
-1141.2
-728.242
-400.094
-128.154
-1152.19
-846.349
-561.427
-316.918
-102.565
-10554.2
-7083.01
-4804.24
-3313.46
-2328.71
-5117.09
-3432.75
-2254.62
-1337.16
-521.225
-1359.72
-996.75
-664.463
-379.73
-125.471
-2562.28
-1909.87
-1295.18
-751.476
-251.5
-4204.62
-3054.24
-2047.33
-1195.44
-416.671
-2693.92
-2018.83
-1378.52
-805.499
-270.926
-2626.49
-1998.07
-1378.95
-808.849
-270.392
-1778.97
-1365.39
-945.744
-553.32
-183.205
-824.914
-628.626
-430.515
-248.476
-81.2053
-1134.17
-886.502
-621.631
-365.039
-120.285
-1470.59
-1102.85
-746.989
-429.477
-140.915
-1666.04
-1273.26
-877.761
-511.338
-168.858
-11314.4
-8170.43
-5692.45
-3932.86
-2527.57
-6989.34
-4602.38
-3091.88
-1912.77
-803.656
-6780.65
-4859.42
-3203.46
-1963.52
-801.237
-4851.23
-3383.01
-2272.24
-1356.28
-495.366
-4441.36
-3273.86
-2221.34
-1307.57
-454.156
-4961.01
-3444.44
-2302.21
-1368.42
-493.357
-1525.66
-1146.91
-782.659
-455.498
-151.838
-1691.17
-1321.18
-927.24
-545.646
-180.202
-2827.54
-2143.24
-1472.78
-860.359
-286.49
-7711.87
-15887.5
-16112.9
-45048.6
-15336.3
-58169
-8544.25
-20842.4
-15483.7
-11942.3
-26412.3
-21892.2
-14803.6
-13353.5
-28668.5
-22135.9
-5800.05
-4423.28
-11477.8
-8139.34
-12975
-9901.16
-35483
-26898.2
-20933.3
-15441.9
-22058.9
-13137.9
-1561.95
-5468.97
-54868.9
-70723.9
-33047.5
-41569.5
-70286.3
-89310.8
-34225.4
-40342.5
-41897.3
-56977.6
-34298.2
-46304.7
-23706.1
-34746
-2969.43
-820.782
-5270.32
-1825.77
-10075.4
-4674.44
-20491.4
-7540.56
-4599.94
-2689.19
-10899.5
-3534.55
-22277.9
-7150.76
-28732.3
-9881.23
-20489.3
-11267.6
-24642.4
-14657.2
-17433.6
-12815.9
-20703.2
-15534.8
-20974.1
-12624.8
-16329.8
-9201.52
-28321.5
-17574.5
-29658
-18420.1
-24813.9
-17768.6
-26398
-18513.2
-24745
-15534.6
-26428.9
-16496
-23819.2
-11138.6
-11237.6
-15579.5
-21172
-11559.9
-8822.18
-15688
-26283.5
-11242.8
-13314.9
-15729.8
-27816.9
-11506.4
-14775.3
-16416.2
-1724.3
-1672.84
-501.76
-2270.58
-6978.81
-7514.15
-4689.38
-9881.37
-4754.85
-5802.37
-7734.6
-14820.7
-13021.8
-8842.92
-11981.6
-15978.1
-11861.4
-6455.28
-7971.23
-9618.22
-18529.2
-19267
-14071.4
-13346.1
-10790
-10312.4
-21992.3
-1853.43
-1359.9
-1154.36
-1285.11
-6599.13
-5032.11
-5999.67
-5280.46
-1942
-323.146
-7383.08
-5824.03
-9169.22
-9535.46
-8940.02
-8250.5
-8708.31
-6266.14
-11841.8
-9104.23
-12968.5
-10011.9
-11738
-10513.5
-11060.7
-7018.36
-9226.9
-4957.95
-9177.5
-4766.56
-15203.7
-8491.56
-9811.55
-3437.65
-9195.81
-9102.64
-12874.2
-15658.2
-13833
-19090.2
-8008.75
-7987.4
-9080.29
-1419.24
-8828.19
-15447.4
-8870.01
-17041.9
-14043.6
-23968.4
-14662
-25946.2
-7552.4
-14439.6
-7449.55
-15803.1
-11056.1
-7255.84
-17025
-6044.85
-10040.8
-639.793
-14608.9
-375.087
-11217
-11422.1
-17932
-7702.81
-9847.99
-13709.7
-16283
-10110.4
-1242.57
-1129.23
-1024.37
-1153.95
-3779.47
-2824.38
-3761.81
-3438.92
374.665
-356.398
-4378.19
-4558.96
-8975.23
-7702.08
-7506.37
-5684.57
-4967.83
-3733.11
-7175.49
-5633.87
-8341.56
-5862.8
-15397.8
-11745.7
-7840.47
-5356.86
-7093.24
-4133.72
-6765.27
-3267.81
-8249.26
-2595.42
-5801.35
-9285.53
-4915.3
-9941.98
-9748.53
-11602.3
-11244.4
-15149.6
-855.231
-476.918
-410.582
-245.477
-3338.71
-1947.5
-2371.41
-787.105
-688.295
-1314.56
-7986.29
-8270.57
-3625.22
-2992.93
-10273.2
-11219.1
-17513.4
-20585.6
744.054
4312.25
-7142.12
-7355.6
-6566.99
-5319.4
-769.071
-612.958
-749.113
-556.504
-1255.17
-532.766
-75.3625
74.6966
-6691.75
-2348.15
-5695.74
-1886.55
-8291.24
-2619.61
-10433.7
-3077.1
-5393.26
-9852.29
-7434.32
-10510.1
-9556.13
-12591.3
-13220.6
-13802.7
-4880.43
-7882.82
-4154.75
-7668.26
-8926.18
-10777.9
-10489.6
-11249.6
-15655.4
-14624.4
-17387
-15241.1
-5404.81
-7904.78
-6199.12
-8204.51
254.105
-838.583
-5573.53
-2685.68
293.186
-806.299
-5394.58
-2511.18
-66.9329
-970.786
-5678.4
-2843.1
-391.109
-1046.85
-5690.83
-2835.99
-752.329
-763.447
-603.669
-566.097
-1450.02
-1381.8
-671.048
-612.347
-6523.16
-5601.82
-2176.67
-1948.54
-2740.91
-3907.05
-3092.77
556.82
-459.59
-119.985
-691.993
-3339.14
2304.4
83.7088
-14890.2
-11359.9
-8761.42
-6283.56
-2791.48
-701.797
-552.16
-560.4
-581.122
-1292.67
-959.427
-737.787
-883.64
-5231.42
-4533.32
-1943.32
-2164.76
-4032.63
-5537.35
-2154.73
-3815.82
-3668.03
-3707.1
-333.253
-690.088
-910.953
-1367.17
-9023.52
-6584.72
-6359.24
-4088.13
-4654.74
-2967.6
-3225.39
-2020.39
-1468.14
-1385.48
-6576.03
-5917.18
-9200.53
-5608.16
-9411.31
-9125.48
-12046.2
-9488.3
-6576.73
-3763.52
-4603.07
-4176.79
-10393.4
-4696.23
-11374.1
-5025.24
-13243.7
-9477.46
-14282.6
-10132.5
-7506.22
-2968.68
-8229.56
-3191.17
-4267.82
-2819.43
-2126.95
-2643.16
-3449.32
-3193.77
-2084.29
-2767.09
-4594.26
-2562.25
-2164.33
-2845.86
-5475.44
-2609.58
-2830.77
-2774.68
-385.122
-337.492
-412.182
-342.079
-842.045
-959.216
-594.694
-522.483
-4006.71
-3423.38
-1360.51
-656.289
-6162.45
-5261.61
-4455.43
-3548.45
-3293.71
-2636.26
-985.136
-988.849
-1278.04
-649.781
-6787.02
-5047.07
-3512.37
-2562.31
-2440.69
-1654.74
-1465.67
-860.122
-1278.2
-85.3101
-68.0359
-24.6373
-8.35489
-0.0661623
-12.2608
-9.56086
3.69357
5.8905
-196.652
-69.4808
-1.24074
14.6406
-76.53
-38.5564
20.909
22.9947
-373.557
-119.504
3.77598
36.6537
-269.095
-97.4689
-16.2898
4.95511
-210.681
-68.7127
-26.5335
-8.55309
-219.154
-65.5302
-4.75166
8.46736
-655.915
-195.153
-59.9248
-9.15873
-786.594
-210.152
-74.0902
11.5674
-583.481
-169.249
-37.0708
15.1467
-695.199
-182.439
-76.5582
4.64652
-646.527
-190.146
-38.9548
9.33754
-838.946
-225.599
-74.8387
17.9736
-633.878
-182.97
-25.8567
21.1746
-857.922
-230.621
-74.8685
19.2872
-71.7058
-23.7088
-5.33355
3.31282
-59.0851
-16.8942
-8.73348
2.20662
-177.77
-58.5331
-6.19486
12.2873
-139.865
-40.2895
-19.5161
6.90634
-423.931
-126.805
-22.67
19.3401
-365.42
-101.82
-36.1538
13.8011
-416.426
-116.14
-18.9879
19.8799
-316.177
-83.5063
-38.3574
15.4623
-681.583
-174.658
-70.2991
22.5198
-41.1434
-11.0347
-3.1721
2.54649
-14.4178
-4.22603
-0.799219
0.29463
-127.408
-33.5618
-15.5235
3.78286
-48.8764
-13.3463
-5.53396
-0.437966
-239.718
-60.5408
-26.1867
6.18632
-105.938
-26.1412
-8.71891
-0.513185
-372.408
-89.4981
-33.6312
11.4946
-196.524
-42.7942
-12.5466
-0.773395
-506.045
-116.665
-58.8085
1.67483
-267.495
-54.1224
-20.7814
-3.60394
-688.257
-159.432
-69.4968
1.21791
-294.084
-63.6257
-22.6092
-4.37142
-642.609
-146.49
-70.8999
-2.57079
-307.376
-63.5798
-22.5929
-4.37261
-719.018
-166.187
-67.3233
5.27175
-289.685
-61.9341
-19.1153
-2.58628
-729.998
-167.647
-64.5419
6.33517
-291.382
-60.3419
-16.5277
-1.29445
0.383126
0.000551124
-0.028946
-0.0160222
-0.00839347
0.149119
-0.113501
-0.0710555
-0.0317078
-0.0154969
1.03187
-0.0253715
-0.0764696
-0.0397895
-0.0203935
-0.0544722
-0.34654
-0.181792
-0.0772724
-0.0369471
1.54379
-0.0437376
-0.101005
-0.0509342
-0.0257525
-0.63851
-0.545473
-0.25899
-0.106761
-0.0503394
-0.765391
-0.356923
-0.152504
-0.0603669
-0.0278027
0.206091
-0.105986
-0.0669919
-0.0290623
-0.0138105
0.165972
-0.21046
-0.132807
-0.0590357
-0.0286407
0.348757
-0.0467532
-0.0459975
-0.0217547
-0.0107399
0.0565091
-0.329434
-0.174862
-0.0742571
-0.0355056
0.334807
-0.0514745
-0.0466837
-0.0219488
-0.0108726
0.686716
-0.06069
-0.0710294
-0.0340501
-0.0168317
0.461301
-0.0435443
-0.0432178
-0.0199598
-0.00970578
1.72191
0.172136
0.00154943
-0.00837821
-0.00554285
1.04921
0.106012
0.00491572
-0.00279167
-0.00213097
0.479593
0.0305277
-0.0150685
-0.0102866
-0.00569407
0.244897
0.00786472
-0.0138301
-0.00851692
-0.00467701
1.11764
0.0151165
-0.0545682
-0.0304177
-0.0159794
0.606713
-0.02145
-0.0494916
-0.0262229
-0.0137267
1.86382
0.0500847
-0.0640119
-0.036516
-0.0191597
0.6199
-0.105089
-0.0877366
-0.0413469
-0.0207308
0.232418
-0.241824
-0.131777
-0.0563746
-0.0271182
0.0245084
-0.155803
-0.0826872
-0.0355545
-0.0172407
-0.266712
-0.184536
-0.0816657
-0.033159
-0.0156267
137.22
-160.88
502.01
-362.264
988.304
-412.269
1715.44
-127.467
2218.98
879.09
-346.74
-1306.03
1406.08
954.459
-1196.97
-2364.5
-1762.8
-2817.9
-1133.01
-286.973
-71.4296
-18.6943
-6.45744
-258.98
-162.644
-25.2875
-8.29385
-4.23198
-3495.24
-878.199
-219.29
-57.2085
-19.8265
-602.984
-212.488
-62.6535
-16.7657
-6.43726
-5854.39
-1472.58
-369.282
-96.8982
-33.6459
-1071.04
-383.035
-109.29
-31.3588
-11.1696
-7811.99
-1969.73
-497.317
-131.477
-45.9847
-1359.75
-503.629
-145.695
-41.8856
-14.8863
-9718.19
-2472.04
-630.294
-168.377
-59.5764
-1655.25
-639.489
-187.03
-54.0743
-19.4301
-11368.3
-2989.57
-778.126
-211.78
-76.2676
-2743.33
-917.747
-254.931
-71.2529
-25.4384
-10666.4
-2786.67
-719.279
-193.933
-69.1974
-2088.53
-767.674
-220.37
-62.7899
-22.4266
-11649.7
-3075.34
-804.502
-220.187
-79.7534
-3134.68
-1010.18
-276.016
-76.1077
-27.1223
-12086.1
-3169.67
-831.856
-228.129
-82.8153
-3278.68
-1055.62
-289.916
-75.3638
-28.0123
-668.236
-8826.02
-7521.57
-2277.74
-1727.28
-770.537
-3970.75
-2445.01
-7809.1
-7144.68
-3842.14
-2744.43
-31.9692
-60.2951
-127.1
-254.028
-474.615
-829.098
-26.237
-69.5471
-172.487
-364.526
-678.383
-1131.72
-21.7149
-9.37959
-45.104
-27.681
-101.183
-74.9546
-209.709
-177.299
-379.865
-330.195
-654.774
-523.176
-1308.92
-1872.8
-2566.91
-4848.7
-6418.69
-7669.4
-1693.19
-2261.29
-2688.02
-2917.22
-2969.38
-2948.1
-28.313
-23.3892
-17.2871
-10.5486
-3.5392
-53.2638
-43.8634
-32.3149
-19.6674
-6.58924
-111.944
-91.8553
-67.4235
-40.9163
-13.6869
-222.891
-182.073
-133.049
-80.4641
-26.8671
-414.295
-336.408
-244.418
-147.187
-49.0407
-718.393
-578.537
-417.157
-249.882
-83.0575
-23.2
-19.1286
-14.1101
-8.59633
-2.88163
-61.3154
-50.3744
-37.0226
-22.4899
-7.52708
-151.601
-124.09
-90.864
-55.0392
-18.393
-319.116
-259.994
-189.515
-114.403
-38.1642
-590.816
-478.518
-346.856
-208.536
-69.429
-979.077
-787.141
-566.748
-339.18
-112.697
-19.2577
-15.9352
-11.7982
-7.20935
-2.4207
-8.32442
-6.89463
-5.10965
-3.12471
-1.04963
-39.9128
-32.9377
-24.3179
-14.8256
-4.97172
-24.5245
-20.2688
-14.9876
-9.14857
-3.06998
-89.2981
-73.4521
-54.0478
-32.8621
-11.004
-66.2402
-54.5759
-40.2256
-24.4901
-8.20627
-184.41
-151.029
-110.642
-67.0406
-22.4069
-156.106
-128.036
-93.9306
-56.9739
-19.0523
-332.388
-270.632
-197.121
-118.913
-39.6531
-289.373
-236.005
-172.154
-103.953
-34.6787
-568.483
-458.731
-331.289
-198.613
-66.0299
-455.185
-368.068
-266.221
-159.716
-53.1024
-1122.02
-893.381
-637.924
-379.802
-125.983
-1579.51
-1237.74
-872.869
-516.369
-171.26
-2111.11
-1617.75
-1123.39
-661.177
-220.605
-3826.97
-2844.14
-1942.76
-1145.48
-392.526
-4749.29
-3395.3
-2286.79
-1367.52
-500.225
-5434.85
-3795.98
-2536.53
-1533.79
-586.897
-1452.23
-1156.9
-826.482
-492.212
-163.269
-1917.38
-1510.07
-1069.03
-633.568
-210.017
-2242.9
-1740.38
-1219.02
-719.368
-238.915
-2374.45
-1804.69
-1247.85
-734.642
-246.186
-2316.12
-1706.56
-1161.89
-686.319
-236.458
-2213.47
-1588.17
-1067.94
-634.121
-224.873
-32.3047
-61.5685
-130.223
-260.915
-488.687
-853.317
-26.661
-71.1911
-176.479
-372.64
-692.171
-1150.74
-21.981
-9.55634
-46.2127
-28.5632
-104.282
-78.0201
-217.618
-186.534
-399.255
-360.778
-691.751
-591.451
-1342.76
-1914.86
-2614.24
-4866.74
-6400.46
-7654.29
-1714.05
-2279.15
-2699.36
-2917.49
-2960.23
-2942.54
-28.6214
-23.6559
-17.4939
-10.6799
-3.58422
-54.4346
-44.8764
-33.1008
-20.1663
-6.76037
-114.817
-94.3433
-69.3548
-42.1427
-14.1077
-229.239
-187.578
-137.328
-83.1841
-27.8007
-427.298
-347.713
-253.223
-152.791
-50.965
-740.978
-598.36
-432.723
-259.847
-86.4908
-23.5899
-19.4661
-14.372
-8.76267
-2.9387
-62.8296
-51.687
-38.0428
-23.1385
-7.74972
-155.288
-127.296
-93.3626
-56.6309
-18.94
-326.644
-266.572
-194.666
-117.695
-39.2974
-603.714
-489.888
-355.829
-214.304
-71.4205
-997.153
-803.339
-579.716
-347.602
-115.621
-19.5015
-16.1452
-11.9605
-7.31204
-2.45586
-8.48577
-7.03307
-5.21617
-3.19191
-1.0726
-40.9279
-33.8115
-24.9925
-15.2522
-5.11773
-25.3287
-20.9575
-15.5164
-9.48161
-3.18372
-92.1331
-75.89
-55.9274
-34.0494
-11.4101
-69.0296
-56.9592
-42.0511
-25.6374
-8.59762
-191.647
-157.251
-115.438
-70.0687
-23.4425
-164.514
-135.223
-99.4373
-60.4348
-20.233
-350.084
-285.795
-208.761
-126.239
-42.1539
-316.969
-259.338
-189.831
-114.963
-38.4168
-602.418
-487.98
-353.86
-212.869
-70.9057
-516.695
-419.966
-305.442
-184.094
-61.3673
-1154.18
-922.132
-660.862
-394.652
-131.131
-1620.69
-1275.57
-903.704
-536.63
-178.348
-2159.99
-1664.55
-1162.71
-687.553
-229.969
-3857.85
-2882.15
-1979.78
-1172.74
-402.903
-4750.2
-3408.6
-2305.47
-1383.95
-507.405
-5429.34
-3797
-2541.19
-1538.91
-589.403
-1472.66
-1175.76
-841.947
-502.426
-166.847
-1935.95
-1528.11
-1084.43
-644.01
-213.727
-2256.47
-1754.89
-1232.21
-728.663
-242.294
-2378.95
-1812.15
-1256.07
-741.053
-248.667
-2312.09
-1706.44
-1164.06
-688.877
-237.669
-2210.28
-1586.82
-1067.84
-634.563
-225.176
-18614.2
-12621.7
-2003.05
-1117.39
-850.608
-1010.86
-1243.09
-11099.8
-10838.8
-8339.78
-9186.58
-4076.35
-6909.85
-2816.21
-3035.98
-1992.41
-17746.5
-7953.92
-2115.95
-3575.89
-5767.86
-3525.42
-3373.86
-2336.62
-1250.62
-1584.95
-2292.46
-2298.34
-17898.4
-10794.6
-10167.3
-6672.35
-5809.89
-6968.9
-2095.51
-2187.24
-3683.22
-11795.8
-8882.11
-6206.09
-4458.59
-2877.59
-7660.17
-4859.57
-3265.64
-2048.99
-852.341
-1693.82
-1332.01
-943.119
-559.938
-186.189
-963.752
-772.761
-555.502
-332.357
-110.506
-734.014
-588.516
-422.725
-252.587
-83.8751
-878.402
-709.716
-513.349
-308.212
-102.558
-1067.27
-851.323
-609.022
-363.128
-120.544
-7106.12
-5090.44
-3513.49
-2496.01
-1841.91
-7073.03
-5276.07
-3653.4
-2439.29
-1188.02
-5551.19
-3629.19
-2442.13
-1480.36
-564.261
-6062.69
-4389.07
-3010.75
-1896.34
-778.672
-3234.84
-2410.52
-1642.75
-955.777
-317.707
-5066.92
-3534.88
-2369.22
-1378.48
-468.495
-2310.26
-1765.13
-1221.04
-714.211
-236.193
-2479.25
-1886.68
-1301.17
-759.848
-251.225
-1655.31
-1278.07
-890.205
-522.072
-172.361
-11082.2
-7711.68
-5385.15
-3749.54
-2565.47
-5677.19
-3974.02
-2698.83
-1629.69
-627.528
-1725.49
-1313.66
-908.201
-532.829
-177.737
-2920.92
-2229.97
-1547.73
-913.196
-307.458
-4535.11
-3374.28
-2313.88
-1372.56
-480.143
-2866.29
-2180.12
-1510.59
-892.356
-301.523
-2781.22
-2140.28
-1494.39
-884.434
-296.874
-1954.71
-1521.38
-1068.74
-632.113
-210.4
-1055.34
-826.949
-582.656
-344.008
-113.799
-1353.19
-1073.15
-763.902
-454.033
-150.581
-1906.79
-1475.16
-1030.25
-606.212
-201.018
-1924.12
-1498.3
-1052.41
-621.92
-206.771
-11234.7
-8168.21
-5739.66
-4002.04
-2596.42
-6996.05
-4638.67
-3138.39
-1953.17
-821.307
-7074.36
-5178.54
-3496.9
-2175.77
-887.739
-4948.02
-3498.5
-2380.53
-1434.45
-524.708
-4586.11
-3423.68
-2352.53
-1398.03
-487.475
-5157.4
-3649.42
-2483.06
-1494.01
-540.565
-1723.66
-1322.79
-921.292
-544.291
-182.521
-1858.8
-1467.44
-1041.08
-617.929
-205.001
-3036.64
-2333.78
-1626.03
-959.913
-321.185
-186.579
-559.862
-961.336
-1411.33
-1896.63
-2394.16
-3512.46
-9269.38
-8390.3
-3272.09
-11516.7
-10016.2
-10865.7
-11869.2
-3291.6
-2114.41
-7746.13
-4130.9
-13612.3
-10681.1
561.718
-2790.69
-7535.82
-6661.84
-2555.13
-9484.33
-7808.75
-8758.32
-9535.83
-2721.69
-1144.9
-6757.38
-1880.41
-10583.2
-6424.99
2750.94
-1938.67
-5410.22
-4679.75
-1743.77
-7031.28
-4084.9
-6537.56
-6755.9
-1978.33
-1074.59
-4605.4
-2073.24
-7728.67
-1872.06
2933.26
-1298.02
-3826.29
-3267.47
-1180.19
-4825.04
-1859.91
-4821.36
-5141.38
-1391.34
-1154.96
-3214.06
-2170.25
-6141.07
134.706
2195.09
-941.548
-2935.45
-2482.37
-876.567
-3367.75
-1219.74
-3837.49
-4512.14
-1005.57
-1308
-2081.17
-2141.68
-4982.56
373.299
416.318
-755.279
-2349.85
-2060.6
-714.269
-2827.59
-1573.89
-3208.86
-4043.89
-699.689
-1035.39
-1472.98
-2019.12
-4912.81
-954.539
-755.514
-1437.32
-3474.62
-5717.18
-2245.5
-5460.83
-9462.52
-8100.04
-11363.1
-872.578
-461.929
-3496.62
-1623.26
-879.101
-8232.93
-3520.73
-1297.8
-3138.47
-4847.06
-1886.97
-4860.53
-8198.74
-7008.34
-9188.42
-863.107
-329.641
-3517.96
-1344.41
-22.879
-7626.52
-2102.48
-1065.27
-2577.99
-3674.73
-1407.36
-4122.54
-6585.84
-5511.27
-7285.39
-699.405
-361.019
-2727.92
-1297.93
-208.591
-5347.87
-1728.43
-815.735
-2084.95
-2690.68
-1009.74
-3425.95
-5187.74
-4368.35
-5820.82
-557.907
-344.856
-2223.88
-1235.36
-130.09
-4321.4
-1537.9
-651.163
-1683.66
-2108.46
-777.876
-2721.11
-4194.36
-3552.28
-4997.78
-454.28
-392.6
-1753.07
-1291.37
-281.721
-3692.64
-1568.74
-545.894
-1342.62
-1770.14
-644.862
-2280.43
-3944.92
-2985.97
-4512.79
-430.111
-455.315
-1408.51
-1201.24
-533.274
-3720.51
-1858.69
7937.91
10044.7
20315
30117.4
30850.5
52915.8
23256.1
58678.1
18618
40768.4
27863.9
42547
24669.7
32976.1
9399.98
10791.6
20474.4
23462.4
25808.2
25714.2
19881.6
24042.1
28968.8
25862.1
6833.05
5453.21
8350.11
5886.47
17381.8
14439.1
29314.1
21938.9
22483
23576.8
25901.4
25554.9
9892.86
7375.46
51804.2
69381
34011.7
41641.6
67681.2
88149.4
35393.1
40600.4
39412.5
55678.2
35098
46187.5
20991.2
33381.7
4043.9
1418.78
4110.38
1527.68
12840
5289.94
17362.2
6538.75
12931.2
4935.62
13105.1
4304.18
21960.3
7147.15
28316.3
9759.12
30879.4
15914.2
28603.1
16971.9
27711.3
17898.9
24763.5
17951.2
23734.9
14473.5
23799.3
12806.9
29780.4
18593.7
30001.8
18693.3
26417.6
18834
26824.8
18800
25652
16357
26613.6
16717.9
24818.3
11357.8
12410.2
15851.5
24733.5
12501
11078.4
16309.6
26338.1
11212.4
13829.2
15830.8
27736.2
11465.1
14906.1
16438
5174
5602.38
1846.29
3792.43
15669.4
16569.8
6441.15
12164.3
20052.8
21672
10773.3
18623.1
12152.9
-461.211
16147.2
22150.7
13341.9
-996.286
6074.47
15035
25754.3
21341.9
12193.4
15901.7
15409.8
14636.3
23697.1
4447.05
3335.78
2610.13
2526.18
13501.8
10381
8978.5
8176.36
16251.9
12167
11647.4
9954.76
4927.05
6522.35
11083.8
11655.4
16423.8
14359.7
19221.9
15562.7
15515.1
12751.7
9585.76
8660.3
13314.9
8542.29
13273.7
7818.01
12638
7163.6
16453.4
9854.9
11373.1
3246.76
10401.4
9473.49
13181.5
15121.5
14711.6
19441.2
9167.7
8321.64
10865.4
1300.29
9484.59
15770.5
9073.13
17156.9
14646.8
24296.4
14862.4
26088.7
8151.83
14677.3
7630.3
15885.7
11750.5
7380.9
17119.5
5960.99
11216.3
206.628
14670.6
-571.135
11561.6
11539.7
17973.1
7715.62
9962.18
13752.3
16299.5
10112.7
2260.78
1783.9
1314.6
1749.67
1436.54
1105.91
7371.79
4838.81
3349.43
5281.37
3358.34
2335.72
7947.37
5477.01
4410.28
6159.99
3883.87
3130.86
4844.55
3194.67
2700.42
9197.44
5112.77
3504.53
10035.7
5508.61
3487.93
10507.6
6361.1
4622.17
8469.34
4341.7
2728.33
12795.4
8594.56
5863.28
9460.01
6177.71
3822.89
9784.27
5882.08
3369.81
9398.4
5308.58
2890.36
11459.8
5404.02
2234.26
11912.8
15625.9
9838.92
12265.4
14066
19813.1
13005.5
18003.4
49.591
582.696
-384.25
168.305
3095.92
3262.35
1530.03
996.103
1321.44
2918.51
10166.7
14182.5
6383.15
4027.24
11695.3
11701.4
19084.5
21091.6
-243.793
-4151.79
8428.98
7844.15
7354.28
5587.63
903.189
482.482
710.662
379.58
2204.7
292.006
234.334
-369.866
9084.12
2072.99
6614.31
1740.53
9107.24
2622.23
10793.8
3103.51
10481.7
12277.2
9565.45
11924.2
17298.3
16872.3
16418.4
15885
6122.86
8638.42
7087.43
8606.26
10014.4
11475.1
10835.1
11450.7
17106.5
15572.6
17816.9
15502.7
6087.69
8326.93
6435.12
8333.91
-96.3329
731.624
5761.08
2595.42
-418.912
443.28
5321.9
2267.51
233.206
926.484
5839.04
2814.66
473.429
1036.74
5747.22
2829.68
-448.168
-504.802
143.308
-19.7988
-2101.7
-1993.03
-119.597
-338.537
-277.342
-1254.68
1093.95
468.416
-8939.62
-9854.26
-4365.52
-3163.64
-480.258
-10627.3
-9512.61
-3188.59
-4460.18
-807.464
11260.8
8248.38
6356.09
5007.65
2181.88
-416.13
-301.863
-69.0304
-54.4965
-1440.68
-1103.99
-216.205
-157.982
-1493.27
-1468.44
135.615
95.7947
-4462.03
-1317.71
-6280.13
-3055.25
-2264.6
-1261.98
-2462.44
-1696.25
-96.1281
212.847
4192.54
2455.85
1584.45
-270.12
1091.73
-237.575
1035.36
90.3751
632.171
534.396
4994.2
4011.01
9056.43
5150.78
8296.88
7305.43
12315.3
9180.33
6208.61
3335.07
3187.5
2702.71
10563.9
4541.1
11462.5
5019.08
13646.5
9449.72
14438.1
10173.9
7495.41
2788.45
8256.69
3165.1
3885.55
2493.66
1817.02
2358.44
2402.48
2196.81
1496.97
2159.31
4484.48
2403.17
2030.51
2703.63
5460.95
2574.82
2797.44
2741.11
-212.515
-164.581
-161.537
-29.4765
-59.7353
-57.6692
-820.639
-668.718
-580.915
-92.493
-176.433
-158.094
-1190.74
-987.415
-843.703
105.93
-183.485
-211.261
-361.016
-307.504
-81.8913
-1455.06
-1306.28
-1056.85
-999.334
-969.076
-853.777
-1264.95
-1064.88
-896.632
342.977
-65.278
-95.0658
3282.95