/*--------------------------------*- C++ -*----------------------------------*\
| =========                 |                                                 |
| \\      /  F ield         | OpenFOAM: The Open Source CFD Toolbox           |
|  \\    /   O peration     | Version:  2306                                  |
|   \\  /    A nd           | Website:  www.openfoam.com                      |
|    \\/     M anipulation  |                                                 |
\*---------------------------------------------------------------------------*/
FoamFile
{
    version     2.0;
    format      ascii;
    arch        "LSB;label=32;scalar=64";
    class       volScalarField;
    location    "0.7";
    object      gradTx;
}
// * * * * * * * * * * * * * * * * * * * * * * * * * * * * * * * * * * * * * //

dimensions      [0 -1 0 1 0 0 0];

internalField   nonuniform List<scalar> 
5712
(
-8354.15
-10694.1
-19480.3
-28765.1
-29502.9
-50714.9
-22340.5
-56487.9
-17939.9
-39331.9
-26820.2
-40980
-23827.8
-31663.2
-10560.1
-12190.2
-19411.8
-22285.7
-24570.6
-24450.3
-19023.8
-23135.9
-27763.9
-24807
-7035.38
-5524.94
-8715.4
-6080.33
-16472.9
-13636.1
-27764.3
-20670.9
-21389.7
-22397.9
-24443.7
-24056.1
-9247.16
-6933.82
-49493.4
-66304.9
-32368.8
-39659.3
-65069.2
-84720.6
-33931.8
-38910.4
-37446.2
-52908.9
-33191.5
-43747.2
-19778.5
-31529.3
-4016.26
-1379.12
-4190.21
-1534.85
-12060.7
-4954.6
-16269.1
-6103.85
-12049.4
-4586.19
-12269.1
-4006.41
-20589
-6663.68
-26542.9
-9102.62
-29704.2
-15208
-27398.1
-16234.2
-26918.5
-17416.8
-23926.6
-17474
-22470.2
-13592.7
-22567.1
-12004.9
-28448.7
-17812.7
-28621.3
-17908.4
-25446.2
-18333.6
-25809.4
-18310.3
-24259.9
-15402.4
-25154.9
-15737.2
-23387
-10580.5
-11449.2
-14502.5
-23358.9
-11651.5
-10220.2
-14964.7
-24785.1
-10444.2
-12776.8
-14459.5
-26078.2
-10677.6
-13789.4
-15015.4
-5162.94
-5668.06
-1792.77
-3755.67
-14816.4
-15686.2
-6046.25
-11374.9
-18929.8
-20565.3
-10024.7
-17334.2
-12158.4
284.902
-15629.6
-21056.9
-12459.1
758.151
-6302.35
-14602.7
-24663
-19944.8
-11958.4
-15350.8
-14572.9
-13597.6
-21875.6
-4655.24
-3590.49
-2754.76
-2652.65
-12818.5
-10012.8
-8354.42
-7718.2
-15585.4
-11894.6
-10935.2
-9458.54
-5096.38
-6767.98
-11267.4
-11916
-16041.9
-14204.2
-18556.8
-15263.2
-14558.6
-12100.9
-9591.66
-8921.91
-13136.7
-8713.45
-12799.5
-7766.19
-11913.1
-6917.08
-15256.9
-9295.19
-11117.8
-3374.45
-10055.7
-9519.05
-13171.7
-15569.2
-14671.6
-19916.2
-8609.33
-8167.51
-10373.1
-1338.3
-9138.18
-15854.2
-8730.81
-17242.9
-14601.4
-24849.7
-14832.9
-26659.5
-7597.36
-14470.1
-7075.51
-15664.9
-10854
-7030.74
-15737.4
-5513.48
-10441.1
-160.638
-13445
671.473
-10665
-11097.6
-16552
-7192.8
-9109.44
-13264.2
-14938.7
-9500.54
-2552.82
-2041.64
-1535.56
-1895.48
-1581.84
-1239.48
-7268.03
-4989.49
-3634.61
-5100.59
-3393.2
-2483.34
-8035.06
-5803.66
-4837.19
-6013.11
-3977.58
-3329.87
-5190.73
-3642.67
-3195.8
-9611.85
-5682.29
-4089.09
-10197.5
-5916.93
-3958.44
-10602.9
-6761.64
-5127.45
-8209.29
-4391.38
-2887.3
-13530.6
-9556.88
-6881.32
-9736.93
-6651.18
-4378.06
-9804.92
-6163.08
-3772.47
-9210.31
-5417.27
-3145.57
-10993.7
-5326.42
-2314.62
-11733.3
-15475.4
-9625.94
-12042.3
-13589.6
-19312.6
-12483.1
-17428.3
-6.63285
-682.829
481.239
-197.843
-3099.51
-3249.95
-1497.49
-890.161
-1221.79
-2843.62
-10111.7
-14236.5
-6520.39
-4038.69
-11422.4
-11389.3
-18423.8
-20335.8
329.249
4227.16
-8329.74
-7747.01
-7444.87
-5669.12
-1031.7
-534.302
-802.244
-406.92
-2123.86
-246.281
-71.0381
480.921
-9207.79
-2126.89
-6626.53
-1733.17
-9227.77
-2690.52
-10973.8
-3226.56
-10234.8
-12330.6
-9330.28
-11958.5
-16833.9
-16694.6
-15947.6
-15693.9
-6038.28
-8822.53
-7010.86
-8802.33
-9775.73
-11486.8
-10607.1
-11478
-16590.1
-15361.3
-17283.8
-15305.8
-6008.53
-8492.68
-6378.52
-8518.49
186.666
-770.342
-6047.21
-2862.66
551.508
-457.054
-5595.73
-2504.1
-170.441
-984.438
-6130.25
-3109.61
-445.247
-1120.82
-6048.24
-3139.14
531.97
603.262
-151.866
24.8994
2337.65
2242.12
171.087
395.202
396.591
1451.51
-1151.2
-497.257
9331.29
9990.81
4679.24
3468.71
544.947
10779
9884.83
3441.8
4898.08
895.399
-11255.9
-8326.82
-6549.08
-5304.85
-2422.77
510.215
387.874
73.9254
52.7815
1683.74
1343.07
257.637
177.474
1725.61
1744.63
-157.692
-149.244
4664.44
1478.95
6705.71
3400.48
2546.22
1501
2810.88
2016.34
100.879
-287.114
-4166.5
-2490.42
-1495.71
389.622
-1048.71
339.825
-1079.85
-75.4419
-752.183
-690.172
-5052.15
-4190.15
-9285.38
-5371.94
-8331.91
-7570.27
-12439.3
-9487.38
-6499.75
-3553.24
-3282.88
-2889.61
-10868.8
-4704.64
-11831.2
-5217.87
-13813.2
-9745.62
-14646.8
-10496.9
-7875.76
-2936.09
-8711.31
-3352.3
-4197.15
-2794.26
-2134.07
-2874.72
-2585.21
-2477.89
-1762.03
-2637.05
-4860.55
-2691.65
-2397.82
-3300.12
-5947.36
-2891.64
-3266.67
-3356.38
291.383
245.846
250.467
31.7421
85.6726
86.7193
1075.12
925.196
831.528
129.766
251
229.575
1501.85
1325.76
1186.28
-134.339
254.859
303.016
475.099
393.845
142.236
1764.95
1628.87
1366.62
1267.76
1265.39
1146.99
1601
1415.47
1236.46
-427.996
100.138
136.968
-3435.45
-1855.96
-992.604
10.5591
576.654
823.219
109.789
691.887
885.719
28.8728
569.203
683.263
-834.057
118.806
218.668
-0.055244
3.25592
3.53808
6.48028
124.919
48.2472
29.0593
18.4008
-32.5482
-2.37194
29.8075
34.5945
177.51
73.7379
74.902
52.8781
-179.762
-38.9082
43.8495
68.0476
-21.6466
21.6259
41.4288
36.9114
-76.3801
1.47306
4.85687
5.70789
-181.445
-41.2494
12.7006
22.3081
-602.929
-157.986
-37.4568
11.0022
-814.114
-205.714
-70.6138
34.8852
-412.712
-95.7284
-0.337658
46.727
-665.028
-161.615
-71.265
23.6076
-637.693
-171.429
-20.5783
30.9871
-906.771
-236.06
-75.4314
45.6929
-674.492
-190.382
-15.5011
44.4286
-959.273
-256.973
-82.3577
46.3491
-0.347463
1.10335
4.247
9.48537
24.7126
9.84808
0.576933
8.05909
31.3467
13.1712
21.921
30.252
102.302
37.8349
7.63919
23.4583
-239.425
-62.9052
4.12674
43.6296
-93.4338
-14.2705
-4.21126
38.5537
-50.1672
13.9377
31.9712
52.06
3.6201
20.7108
-6.17469
37.7604
-559.993
-130.53
-57.2656
47.4925
46.0648
17.3419
6.39343
8.13353
80.9008
28.0134
9.89714
5.10128
98.023
39.7949
9.31345
18.5436
211.771
74.6362
23.4863
12.4082
66.9375
39.0957
7.84232
28.2902
281.94
104.396
34.0007
18.4434
-27.022
27.1409
6.32295
39.2962
246.923
109.941
36.9551
21.3528
-258.206
-22.7414
-27.8895
27.9578
111.225
87.7804
26.2407
18.4619
-621.229
-107.59
-50.8151
26.3173
-186.904
-4.61859
0.809526
9.44282
-464.434
-60.5917
-42.5027
23.8655
-80.8983
36.0833
13.5138
14.4397
-744.859
-149.996
-61.0174
28.2429
-265.92
-36.0106
-6.98287
6.71856
-821.344
-181.724
-70.3943
25.2968
-321.739
-60.1679
-14.1628
4.10668
3.12068
1.02085
0.340871
0.119689
0.0525107
4.39577
1.50335
0.525853
0.18991
0.0846666
7.44637
2.3107
0.765535
0.269051
0.118295
9.12224
3.1626
1.11989
0.40794
0.182988
9.66924
2.83246
0.92859
0.326465
0.14385
11.4391
4.03472
1.43819
0.526725
0.237269
5.18704
1.89104
0.682781
0.252876
0.115022
3.78532
1.12541
0.372201
0.133124
0.0597713
8.4912
2.69718
0.909603
0.324754
0.144548
3.90103
1.10813
0.357559
0.125452
0.0554603
10.0172
3.21594
1.10939
0.400594
0.17911
4.00576
1.15736
0.378478
0.133288
0.0588751
6.21809
1.71865
0.546462
0.190721
0.0842543
3.64757
0.944117
0.297592
0.104235
0.0462624
5.7035
1.20736
0.320574
0.101608
0.0427957
3.11545
0.581523
0.14342
0.0438908
0.0182093
2.6687
0.819887
0.265921
0.0917652
0.0398208
2.20321
0.69394
0.22801
0.0788951
0.0341962
6.84455
2.03269
0.661655
0.230169
0.100476
5.86995
1.79432
0.590688
0.205848
0.0897438
9.00401
2.44738
0.776628
0.26849
0.117122
7.88006
2.38222
0.793332
0.279847
0.123104
8.50808
2.62949
0.899521
0.323311
0.144054
5.53274
1.75901
0.601795
0.215487
0.0956224
4.25866
1.39153
0.487866
0.177404
0.0795729
-49.1357
-302.22
87.6616
-677.815
554.886
-732.798
1480.13
-268.407
2260.97
1062.98
-306.321
-1108.75
1560.95
1383.48
-1179.06
-2207.07
-1718.7
-2660.34
-1053.44
-257.896
-61.3266
-14.6482
-4.22494
-248.343
-148.144
-21.3245
-6.48034
-3.14559
-3234.13
-786.952
-187.838
-44.6916
-12.9257
-564.141
-185.314
-51.6291
-12.3744
-4.02969
-5384.62
-1313.77
-315.007
-75.3661
-21.8185
-962.45
-329.751
-89.6377
-23.5177
-7.04106
-7119.19
-1745.03
-421.417
-101.516
-29.5697
-1156.67
-424.393
-118.197
-31.196
-9.31105
-8744.89
-2169.42
-529.463
-128.778
-37.8985
-1339.51
-531.109
-150.762
-40.0849
-12.0872
-10069.5
-2585.64
-644.141
-159.352
-47.6349
-2368.62
-779.506
-207.939
-53.0325
-15.7828
-9485.32
-2423.61
-599.26
-147.042
-43.593
-1719.06
-640.781
-178.115
-46.5641
-13.9085
-10312.5
-2654.19
-663.866
-164.956
-49.5552
-2755.28
-867.28
-226.894
-56.9306
-16.8725
-10721.3
-2738.18
-686.494
-170.754
-51.3624
-2895.73
-910.086
-239.333
-56.1913
-17.4665
-820.097
-8696.54
-7940.07
-2841.18
1787.81
3027.13
8329.81
12349.7
1438.77
8853.72
-2890.36
1910.75
2272.98
5182.81
10375.7
15000.3
15751.4
20014.4
6437.92
8402.38
-19342.2
-13307.2
-2397.72
-1408.11
-960.321
-1235.95
-1475.02
-11158.4
-8824.38
-7946.19
-7223.68
-5005.12
-3710.79
-5522.29
-2889.46
-2433.45
-2688.34
-1827.68
-18352
-8147.54
-2056.85
-3758.67
-6133.9
-3875
-3794.11
-2606.32
-1282
-1743.28
-2230.96
-2473.34
-18800.4
-11495.9
-10646.9
-7185.43
-6385.31
-7419.33
-2226.07
-2519.33
-4077.58
-12496.6
-9613.84
-6905.98
-5162.1
-3492.71
-8181.37
-5257.49
-3606.49
-2327.57
-997.475
-2040.21
-1616.82
-1154.41
-690.373
-230.526
-1221.54
-986.624
-714.848
-430.554
-143.699
-829.385
-665.835
-479.073
-286.741
-95.32
-1077.95
-875.064
-636.263
-383.73
-128.02
-1269.87
-1016.66
-730.438
-437.247
-145.502
-6579.05
-4479.84
-3005.4
-2224.98
-1863.4
-4394.37
-2855.48
-1727.66
-1185.06
-709.825
-4821.97
-2854.57
-1823.21
-1105.3
-460.046
-3512.02
-2157.85
-1272.63
-774.042
-378.668
-2233.93
-1295.6
-726.591
-418.448
-173.433
-2816.46
-2000.86
-1305.34
-738.637
-244.415
-3678.94
-2337.89
-1465.56
-825.174
-286.101
-1840.82
-1095.5
-641.497
-336.336
-108.755
-1931.31
-1423.94
-953.244
-545.001
-178.685
-2063.77
-1472.1
-955.245
-532.475
-171.999
-1469.23
-1095.03
-737.858
-422.139
-137.674
-11212.1
-7689.18
-5360.76
-3851.26
-2849.82
-5673.35
-3869.34
-2591.9
-1571.18
-624.138
-1642.82
-1222.88
-828.775
-480.481
-160.079
-3046.13
-2306.31
-1590.68
-936.706
-316.233
-4785.62
-3533.47
-2412.6
-1433.79
-505.945
-3151.15
-2398.97
-1666.6
-988.945
-335.768
-3138.34
-2425.5
-1702.63
-1013.5
-341.7
-2180.89
-1698.7
-1195.38
-708.869
-236.513
-1068.73
-825.891
-574.186
-335.645
-110.484
-1486.64
-1177.69
-837.801
-497.973
-165.209
-1828.08
-1391.17
-957.212
-557.773
-184.399
-2062.37
-1599.3
-1119.88
-661.102
-219.952
-11966
-8839.42
-6339.25
-4566.36
-3088.48
-7520.89
-5032.57
-3456.81
-2198.63
-949.393
-7321.72
-5342.36
-3606.93
-2277.95
-953.862
-5344.59
-3789.51
-2597.46
-1584.44
-587.752
-5056.27
-3790.29
-2620.83
-1570.58
-552.185
-5475.23
-3864.12
-2635.21
-1600.64
-585.982
-1822.93
-1392.38
-966.666
-571.071
-192.027
-2145.97
-1699.52
-1210.44
-721.203
-239.861
-3363.94
-2588.81
-1808.6
-1071.89
-359.975
-7331.78
-15106.5
-15339.8
-42852.8
-14690.4
-55715.7
-8169.5
-19952.9
-14766.3
-11336.8
-25142
-20794.2
-14227.7
-12902.4
-27463.2
-21238.2
-5487.28
-4161.48
-10844.4
-7643.49
-12263.5
-9326.64
-33537.1
-25298.3
-19859.4
-14699
-20769.8
-12316.1
-1430.03
-5106.4
-52301.6
-67537.1
-31428.4
-39580.2
-67427.3
-85774.7
-32802
-38659.3
-39725.6
-54105.3
-32400.8
-43842.6
-22294
-32793
-2767.51
-755.383
-4921.92
-1698.99
-9400.32
-4334.18
-19165.5
-7024.97
-4178.49
-2444.9
-10152.6
-3265.74
-20856.7
-6656.71
-26922
-9213.05
-19772.5
-10738
-23600.5
-14007.8
-17050.1
-12502.1
-20033.9
-15142.9
-19820.5
-11814.3
-15457.8
-8536.56
-27043.7
-16833.4
-28288.2
-17645.4
-23908.4
-17311.1
-25399.5
-18034.7
-23378.7
-14610.9
-24972.6
-15523.2
-22388.4
-10342.5
-10312.6
-14200
-19924.9
-10712.9
-8033.35
-14294.7
-24699.7
-10456.3
-12276.6
-14341.8
-26143.8
-10711.6
-13660.8
-14988.4
-1596.67
-1532.06
-446.801
-2050.35
-6483.68
-6951.74
-4317.71
-9047.86
-4226.85
-5200.7
-7051.62
-13520.5
-12838.7
-8983.53
-11422.1
-15111.6
-10990.5
-6682.16
-8007.77
-9104.05
-17634.3
-17785.7
-13716.6
-12688.3
-9950.08
-9325.92
-20047.5
-1693.38
-1249.05
-1028.85
-1154.18
-6130.46
-4717.55
-5505.86
-4859.04
-1558.08
-43.6532
-6700.68
-5294.14
-9425.54
-9920.19
-9070.93
-8415.76
-8366.48
-6052.56
-11346
-8814.01
-11995
-9320.24
-11814.6
-10922.2
-10874.2
-7208.83
-8802.66
-4933.12
-8535.92
-4572.12
-13984.5
-7939.05
-9696.86
-3715.6
-8977.7
-9247.37
-13025.4
-16274.3
-13939.8
-19664
-7557.3
-7914.37
-8718.03
-1598.14
-8559.62
-15583.9
-8551.65
-17142.2
-14086
-24616.5
-14659.2
-26542.5
-7061.5
-14269.5
-6914.25
-15592.5
-10222.9
-6966.97
-15651.2
-5640.73
-9363.15
-721.676
-13405.2
-377.784
-10356.2
-11005.6
-16514.2
-7198.02
-9007.26
-13228.2
-14923.3
-9500.47
-1159.6
-1058.39
-921.019
-1046.02
-3557.73
-2645.63
-3478.75
-3183.87
617.332
-90.2769
-4043.15
-4279.5
-9490.87
-8367.49
-7662.9
-5983.12
-4831.87
-3718.93
-6972.9
-5535.19
-7826.85
-5546.21
-16341.9
-12914
-8041.15
-5778.12
-7022.71
-4327.93
-6515.83
-3322.12
-7768.06
-2586.2
-5735.7
-9291.49
-4852.73
-9832.12
-9480.51
-11397.8
-10872.1
-14716.6
-864.549
-502.222
-446.071
-289.827
-3373.22
-2032.77
-2433.66
-883.341
-712.799
-1296.75
-8037.24
-8400.41
-3814.56
-3186.11
-10104
-10947.8
-16947.4
-19863.5
749.611
4349.76
-7162.27
-7313.19
-6739.22
-5437.06
-809.413
-662.357
-803.948
-610.149
-1286.66
-586.774
-86.2449
47.1782
-6959.91
-2546.84
-5893.75
-2043.68
-8540.58
-2794.66
-10668.4
-3244.5
-5332.58
-9996.18
-7308.11
-10610.1
-9382.46
-12529.8
-12889.5
-13683.1
-4885.04
-8135.78
-4200.04
-7963.11
-8758.72
-10832.7
-10284.6
-11289.8
-15211.7
-14456
-16875.8
-15056
-5390.82
-8115.91
-6166.49
-8403.56
265.974
-958.033
-5936.89
-3020.21
302.684
-938.99
-5782.04
-2839.78
-69.6765
-1087.94
-6017.92
-3180.87
-391.338
-1155.06
-6006.41
-3159.76
-798.201
-824.311
-661.668
-638.857
-1519.79
-1471.58
-750.394
-711.416
-6859.22
-5961.38
-2400.23
-2192.98
-2835.75
-4073.77
-3199.04
542.676
-577.449
-246.866
-742.682
-3376.91
2491.45
43.9852
-14858.6
-11532.9
-9128.53
-6766.25
-3167.07
-774.254
-627.378
-652.715
-703.282
-1395.96
-1051.21
-876.135
-1082.37
-5712.56
-5100.22
-2252.46
-2601.4
-4207.66
-5826.02
-2292.86
-4072.87
-3853.43
-3990.63
-379.385
-768.205
-1102.11
-1681.02
-9220.38
-6929.12
-6607.21
-4388.3
-4975.78
-3262.65
-3589.84
-2317.16
-1770.31
-1735.53
-6895.39
-6376.23
-9606.68
-5957.87
-9665.53
-9643.05
-12336.9
-9925.09
-7040.95
-4097.78
-4952.87
-4617.83
-10796.6
-4952.92
-11772.4
-5249
-13504.6
-9875.92
-14519.6
-10482.7
-7982.75
-3196.93
-8713.16
-3400.66
-4726.17
-3220.09
-2560.48
-3265.32
-3854.29
-3687.02
-2515.43
-3421.87
-5053.67
-2919.72
-2598.05
-3509.61
-5988.54
-2947.93
-3321.37
-3408.41
-449.263
-394.969
-500.806
-409.586
-930.542
-1085.04
-714.49
-616.355
-4622.57
-3991.14
-1653.6
-791.608
-6606.98
-5812.88
-4824.99
-3979.86
-3635.88
-2984.67
-1104.69
-1140.19
-1585.45
-798.839
-7302.89
-5656.14
-3840.38
-2908.47
-2708.64
-1871.84
-1668.43
-975.006
-1598.85
-92.0837
-82.9562
-31.1529
-10.6561
0.977765
-27.082
-16.9148
3.34535
8.44969
-237.1
-86.7465
0.293706
24.7224
-114.637
-56.9571
25.2587
33.8046
-438.995
-145.74
9.25963
59.8293
-334.775
-126.962
-22.7438
8.57018
-254.956
-88.5988
-35.989
-11.4256
-251.023
-79.089
-4.65794
14.826
-752.491
-230.954
-72.2037
-5.89659
-906.772
-246.455
-88.5021
31.0265
-678.49
-203.232
-43.5267
28.8749
-805.207
-215.037
-93.3253
20.5883
-735.024
-223.12
-43.8135
21.8432
-962.119
-262.991
-88.405
41.7699
-711.568
-211.074
-24.8931
40.6682
-978.123
-266.689
-87.1283
44.9105
-85.7718
-29.2673
-6.21845
6.6422
-71.7369
-21.1281
-11.1768
5.05406
-214.534
-72.9306
-6.37183
21.975
-172.074
-51.2441
-25.2016
14.6479
-494.985
-152.203
-24.2911
37.6673
-431.893
-123.681
-44.3962
29.3164
-497.966
-144.539
-22.4072
35.6491
-378.498
-103.599
-48.4515
32.5291
-792.899
-207.02
-85.3469
48.6795
-50.5928
-14.1525
-3.99227
4.81958
-19.1704
-6.24228
-1.28157
0.585566
-155.69
-42.6306
-20.1301
8.55684
-64.3959
-19.3967
-8.10899
-0.250882
-289.213
-75.8037
-33.4495
14.4821
-136.686
-36.8746
-12.5973
0.0196773
-447.569
-111.582
-42.3883
24.609
-249.571
-58.8286
-17.7287
0.100404
-605.383
-143.633
-75.3802
10.7752
-338.742
-73.5468
-28.9679
-4.02894
-820.051
-194.517
-87.8962
12.0394
-361.831
-81.9794
-30.0547
-4.24431
-770.624
-180.532
-91.0255
5.64271
-383.981
-83.8736
-30.7432
-4.71276
-848.436
-199.322
-83.1407
19.7719
-349.743
-77.2554
-24.1902
-0.798205
-851.869
-197.103
-77.4948
22.5441
-344.316
-72.1001
-19.3394
1.81679
0.623472
-0.0705938
-0.0919356
-0.0486529
-0.0264159
-0.101257
-0.358771
-0.20046
-0.0915166
-0.0472817
1.69151
-0.1988
-0.227788
-0.117387
-0.0630373
-0.698565
-0.931191
-0.48447
-0.215858
-0.110197
2.68814
-0.243879
-0.289556
-0.147704
-0.0788145
-1.64114
-1.35796
-0.670256
-0.293268
-0.148439
-1.37386
-0.799771
-0.373166
-0.159547
-0.0796142
0.516515
-0.230811
-0.163731
-0.0771882
-0.0397987
0.624959
-0.526143
-0.349437
-0.164662
-0.0855619
0.963806
-0.111979
-0.120846
-0.0608056
-0.0321757
-0.156299
-0.864312
-0.465158
-0.208096
-0.106364
0.787493
-0.148451
-0.127825
-0.0626731
-0.0330294
1.78248
-0.130229
-0.182003
-0.093903
-0.0499808
1.15777
-0.0885726
-0.108055
-0.054208
-0.0285112
3.74117
0.378078
-0.00860161
-0.0276345
-0.0183612
2.30426
0.236768
0.0065152
-0.00987767
-0.00724528
0.851233
0.00424125
-0.0563721
-0.0330006
-0.0184768
0.346567
-0.0458346
-0.0526889
-0.0280678
-0.0154461
1.80693
-0.124461
-0.177607
-0.0933018
-0.0505692
0.725659
-0.211745
-0.165901
-0.0822383
-0.0440691
3.40759
-0.0439712
-0.201778
-0.110119
-0.0600486
0.570252
-0.429425
-0.265345
-0.123951
-0.0648445
-0.0136859
-0.688348
-0.362018
-0.161065
-0.0823576
-0.49166
-0.48115
-0.235533
-0.103649
-0.0530323
-0.69992
-0.475131
-0.217518
-0.0932597
-0.0470002
111.097
-159.896
419.812
-365.7
848.742
-426.254
1518.89
-161.894
2000.6
784.144
-371.991
-1229.88
1256.78
861.712
-1174.21
-2221.57
-1710.43
-2656.41
-1019.27
-253.303
-60.7644
-14.6038
-4.23157
-230.922
-144.157
-21.0922
-6.45932
-3.13721
-3143.34
-774.659
-186.376
-44.6013
-12.9548
-534.949
-182.973
-51.5343
-12.4204
-4.04546
-5260.53
-1296.94
-313.106
-75.2922
-21.8785
-947.912
-330.09
-90.0445
-23.6339
-7.07311
-7008.21
-1730.09
-419.94
-101.552
-29.6639
-1194.05
-432.034
-119.632
-31.4512
-9.36451
-8696.3
-2163.16
-529.347
-129.043
-38.0398
-1441.57
-546.623
-153.185
-40.4698
-12.1603
-10118.4
-2595.44
-646.382
-159.905
-47.7963
-2411.75
-788.176
-209.466
-53.2929
-15.8304
-9515.91
-2428.51
-600.738
-147.521
-43.7611
-1823.3
-656.884
-180.621
-46.9564
-13.9791
-10353
-2662.9
-665.766
-165.39
-49.6716
-2767.11
-870.389
-227.502
-57.0446
-16.8952
-10737.1
-2741.61
-687.238
-170.92
-51.4061
-2897.22
-910.687
-239.47
-56.2139
-17.4723
-598.095
-8454.41
-7237.07
-2227.88
-1687.47
-769.71
-3891.1
-2427.09
-7545.61
-6903.49
-3698.34
-2649.06
-56.8949
-102.237
-205.331
-390.928
-694.269
-1149.87
-45.3293
-114.382
-271.641
-548.446
-973.339
-1549.31
-39.8344
-17.5673
-79.0905
-49.9928
-169.098
-128.901
-332.878
-288.093
-571.331
-509.148
-925.16
-760.658
-1720.53
-2335.93
-3042.32
-5472.61
-6987.28
-8211.73
-2217.41
-2842.31
-3251.39
-3395.47
-3324.67
-3214.94
-50.716
-42.2456
-31.5089
-19.3754
-6.52943
-90.942
-75.5586
-56.2062
-34.4893
-11.6094
-182.188
-150.913
-111.919
-68.5121
-23.0322
-345.745
-285.301
-210.787
-128.665
-43.1895
-611.277
-501.815
-368.931
-224.388
-75.1865
-1005.8
-819.71
-598.68
-362.485
-121.218
-40.355
-33.5633
-24.9935
-15.3495
-5.16913
-101.581
-84.2353
-62.5393
-38.3174
-12.8874
-240.614
-198.913
-147.23
-89.9966
-30.2316
-484.146
-398.653
-293.942
-179.164
-60.0976
-855.33
-700.664
-514.136
-312.299
-104.583
-1353.34
-1101.34
-803.397
-486.087
-162.51
-35.5461
-29.6479
-22.1424
-13.6303
-4.59605
-15.6851
-13.0916
-9.78457
-6.02665
-2.03279
-70.4506
-58.6319
-43.6896
-26.845
-9.04286
-44.5743
-37.1405
-27.7089
-17.0421
-5.74368
-150.291
-124.741
-92.6952
-56.8321
-19.1213
-114.691
-95.3206
-70.9275
-43.5313
-14.6542
-294.949
-243.91
-180.581
-110.397
-37.0863
-255.523
-211.55
-156.795
-95.9319
-32.2396
-504.063
-414.739
-305.54
-186.094
-62.3952
-449.74
-370.518
-273.262
-166.547
-55.8561
-810.581
-661.674
-483.835
-293.114
-98.0263
-667.542
-545.756
-399.489
-242.101
-80.9584
-1490.42
-1202.36
-870.642
-524.435
-175.102
-1993.38
-1584.8
-1134.92
-680.062
-227.177
-2534.86
-1973.39
-1393.71
-832.202
-279.988
-4381.09
-3311.68
-2304.93
-1382.59
-479.117
-5248.31
-3819.42
-2626.7
-1605
-597.459
-5904.29
-4197.45
-2867.52
-1777.48
-695.779
-1921.72
-1551
-1123.57
-676.981
-226.036
-2437.3
-1946.58
-1398.77
-839.409
-280.212
-2746.43
-2163.45
-1539.93
-921.156
-308.301
-2801.04
-2163.89
-1522.71
-910.197
-307.779
-2631.25
-1972.98
-1369.59
-823.683
-287.227
-2448.06
-1787.42
-1226.94
-743.864
-268.071
-57.7935
-105.487
-212.735
-405.989
-722.745
-1196.13
-46.4674
-118.585
-281.215
-566.794
-1003.16
-1589.37
-40.5607
-18.0579
-81.9135
-52.195
-176.245
-135.61
-349.305
-306.008
-607.528
-561.166
-989.633
-868.776
-1782.61
-2410.32
-3125.06
-5521.95
-6989.99
-8204.63
-2260.98
-2879.9
-3276.1
-3401.46
-3316.01
-3208.94
-51.5365
-42.9498
-32.051
-19.7175
-6.64641
-93.9115
-78.1091
-58.171
-35.7299
-12.0337
-188.961
-156.738
-116.411
-71.3515
-24.0039
-359.547
-297.197
-219.98
-134.484
-45.1823
-637.439
-524.424
-386.447
-235.495
-78.9945
-1048.59
-856.963
-627.739
-381.007
-127.587
-41.3945
-34.4558
-25.6808
-15.7834
-5.3175
-105.424
-87.5394
-65.087
-39.9273
-13.4382
-249.387
-206.474
-153.074
-93.6962
-31.4988
-501.014
-413.243
-305.259
-186.347
-62.5616
-882.889
-724.645
-532.842
-324.225
-108.683
-1390.72
-1134.21
-829.294
-502.721
-168.253
-36.2082
-30.2149
-22.578
-13.9048
-4.68982
-16.1316
-13.4733
-10.0772
-6.2107
-2.09561
-73.0246
-60.8372
-45.3841
-27.9128
-9.40769
-46.5782
-38.8532
-29.0216
-17.8677
-6.02543
-156.81
-130.329
-96.9901
-59.5391
-20.0463
-120.796
-100.537
-74.9247
-46.0446
-15.5118
-309.951
-256.784
-190.488
-116.647
-39.2227
-271.851
-225.53
-167.527
-102.689
-34.5472
-537.093
-443.053
-327.299
-199.804
-67.0788
-496.887
-410.61
-303.824
-185.684
-62.372
-869.699
-712.619
-523.175
-317.99
-106.542
-765.466
-628.94
-462.823
-281.713
-94.4363
-1548.62
-1253.72
-911.209
-550.535
-184.124
-2064.61
-1648.98
-1186.51
-713.694
-238.902
-2617.05
-2049.77
-1456.63
-874.004
-294.772
-4442.34
-3377.49
-2364.97
-1425.54
-495.293
-5270.1
-3852
-2661.73
-1633.12
-609.38
-5906.88
-4205.92
-2878.55
-1787.29
-700.271
-1963.11
-1588.07
-1153.27
-696.29
-232.749
-2474.26
-1980.8
-1426.95
-858.107
-286.791
-2772.69
-2189.38
-1562.34
-936.545
-313.835
-2811.3
-2176.85
-1535.66
-919.942
-311.512
-2628.13
-1974.04
-1373.07
-827.408
-288.986
-2444.65
-1786.02
-1226.94
-744.524
-268.521
-19277.5
-13287.8
-2512.89
-1515.83
-1163.18
-1431.32
-1648.91
-11708.9
-11837.6
-9170.93
-10259.8
-4857.39
-7933.52
-3436.58
-3681.97
-2473.36
-18672.8
-8784.91
-2549.52
-4260.11
-6560.47
-4118.44
-4037.8
-2870.84
-1594.84
-2073.37
-2836.34
-2848.82
-18619.6
-11486.7
-10907.7
-7305.05
-6578.46
-7654.82
-2524.65
-2782.89
-4381.64
-12471
-9614.73
-6926.63
-5196.37
-3524.86
-8187.5
-5274.94
-3627.98
-2346.7
-1005.83
-2150.5
-1716.1
-1234.06
-742.204
-248.579
-1320.99
-1072.93
-781.91
-473.16
-158.323
-1013.68
-822.873
-598.962
-361.889
-120.926
-1255.25
-1026.04
-751.493
-455.943
-152.62
-1430.56
-1156.11
-838.671
-505.905
-169.042
-7679.83
-5650.76
-4019.43
-2971.89
-2305.3
-7916.74
-6066.59
-4322.37
-2980.61
-1500.73
-6213.03
-4129.41
-2836.04
-1758.16
-680.516
-6931.04
-5146.8
-3619.55
-2344.24
-990.384
-3911.88
-2964.64
-2056.64
-1215.1
-407.611
-5910.47
-4190.23
-2859.37
-1691.68
-581.758
-2855.79
-2216.03
-1558.39
-924.364
-308.163
-3046.04
-2354.39
-1650.88
-977.814
-325.959
-2079.99
-1629.99
-1153.41
-685.527
-228.06
-11918.3
-8500.34
-6110.1
-4424.86
-3175.95
-6389.35
-4558.5
-3161.7
-1950.99
-764.075
-2107.61
-1630.69
-1146.76
-682.631
-229.603
-3528.63
-2738.65
-1934.22
-1158.39
-393.357
-5237.46
-3966.06
-2772.67
-1674.3
-592.682
-3394.91
-2625.18
-1851.63
-1110.99
-378.909
-3374.93
-2640.45
-1876.14
-1126.97
-381.47
-2431.69
-1921.56
-1371.77
-822.404
-275.827
-1361.27
-1081.81
-773.761
-462.625
-154.127
-1789.46
-1438.36
-1038.64
-624.748
-208.59
-2388.75
-1876.16
-1331.45
-794.061
-265.312
-2414.54
-1908.59
-1362.04
-815.673
-273.21
-11928.8
-8883.85
-6433.63
-4680.83
-3197.14
-7573.19
-5109.39
-3537.66
-2264.17
-977.549
-7737.3
-5777.11
-4001.72
-2565.17
-1072.59
-5505.17
-3964.19
-2755.59
-1697.4
-630.067
-5271.81
-4005.83
-2806.89
-1698.57
-599.454
-5759.85
-4150.3
-2884.7
-1774.05
-651.4
-2106.28
-1644.03
-1165.63
-699.068
-236.402
-2391.55
-1914.4
-1378.45
-828.387
-276.745
-3659.78
-2857.56
-2025.06
-1213.04
-409.325
-236.262
-702.281
-1187.35
-1712.69
-2264.1
-2817.92
-3346.53
-8857.3
-8083.93
-3144.2
-11029.3
-9505.31
-10521.4
-11529.9
-3117.82
-1996.74
-7309.14
-3923.03
-13037.5
-9986.73
581.146
-2665.3
-7225.78
-6451.66
-2465.69
-9127.57
-7451.03
-8534.62
-9355.87
-2576.14
-1087.77
-6357.7
-1798.04
-10244.8
-5955.59
2618.94
-1864.63
-5235.11
-4590.92
-1701.79
-6840.17
-3953.65
-6469.92
-6774.78
-1881.24
-1014.72
-4348.74
-1969.61
-7603.65
-1742.56
2796.66
-1269.79
-3768.09
-3287.06
-1178.99
-4796.73
-1888.64
-4898.18
-5341.51
-1338.06
-1095.17
-3056.84
-2068.44
-6188.19
138.455
2103.19
-942.328
-2957.25
-2572.76
-901.381
-3456.59
-1322.17
-4017.34
-4828.06
-984.126
-1239.88
-2013.79
-2044.28
-5120.78
346.724
416.853
-773.721
-2430.45
-2194.09
-754.929
-2979.54
-1682.58
-3454.5
-4415.82
-698.511
-979.443
-1469.33
-1947.53
-5064.5
-913.955
-664.837
-1421.58
-3439.91
-5571.64
-2182.58
-5452.31
-9537.27
-7947.51
-11251.4
-887.018
-493.933
-3558.65
-1736.56
-855.772
-8433.5
-3761.85
-1291.89
-3128.15
-4754.33
-1844.96
-4890.88
-8332.8
-6933.15
-9183.89
-885.345
-371.02
-3605.92
-1485.99
-7.11481
-7913.6
-2368.87
-1076.24
-2609.71
-3659.5
-1395.58
-4216.19
-6849.87
-5542.86
-7444.1
-731.236
-414.755
-2851.77
-1465.94
-221.211
-5722.12
-2030.35
-847.893
-2168.69
-2756.27
-1028.78
-3609.47
-5587.87
-4519.23
-6141.86
-603.375
-401.621
-2394.13
-1427.29
-149.14
-4792.81
-1869.75
-699.284
-1803.98
-2230.57
-818.11
-2973.01
-4676.34
-3789.45
-5428.05
-510.341
-451.729
-1957.91
-1508.08
-324.541
-4231.11
-1899.21
-604.069
-1487.14
-1927.06
-698.307
-2566.4
-4468.05
-3278.48
-5006.82
-497.703
-528.133
-1622.47
-1415.8
-593.284
-4288.43
-2204.47
7597.13
9606.1
19525.5
28862.9
29540.1
50695.6
22351.1
56490.9
17955.8
39338.3
26875.1
40982.4
23851.1
31770.2
9072.57
10388.4
19427.2
22289.2
24564.3
24447.1
19026.1
23133.6
27760.7
24803.6
6489.51
5138.29
7930.38
5548.73
16475.5
13603.8
27830.5
20705.3
21359.1
22402.5
24433
24056.4
9244.27
6905.42
49500.2
66313.5
32369.6
39661.8
65077.2
84730.1
33931.7
38911.6
37451.5
52916.6
33190.8
43750.8
19786.3
31536.5
3784.9
1322.68
3848.1
1425.42
12023.9
4935.25
16279.1
6106.34
12041.5
4581.62
12251.9
3999.57
20590.2
6663.68
26546.7
9103.91
29703.5
15206.7
27396
16232.5
26915.3
17414.2
23923.5
17471.5
22466.7
13591
22565.9
12003.4
28448
17811.5
28621.2
17907.3
25444.5
18331.7
25808.3
18308.7
24259.2
15401.4
25155.4
15736.4
23381.9
10578.8
11447.4
14502.2
23354.9
11649.7
10218.2
14964.2
24784.8
10444.2
12776
14459.6
26079.8
10678.3
13789
15015.7
4855.71
5269.22
1723.94
3529.7
14745.2
15627.9
6010.57
11321.6
18918.1
20552.6
10019
17324.1
12158.1
-284.044
15628.2
21052
12456.8
-757.191
6302.41
14601.6
24657.3
19941.1
11956.8
15349.5
14571.1
13594.6
21874.5
4227.21
3221.29
2463.63
2410.39
12871.4
10059.2
8449.98
7779.43
15575.2
11891.4
10930.7
9457.18
5096.44
6767.76
11266.9
11915.4
16040.1
14202.8
18551.6
15260.6
14556.8
12100.5
9590.79
8921.4
13135.7
8712.96
12798.1
7765.45
11911
6916.15
15256.5
9295.29
11116.9
3374.19
10054.6
9518.6
13170.3
15568.2
14669.9
19914.9
8608.42
8167.29
10372.1
1338.08
9137.15
15853.8
8729.81
17242.5
14599.8
24848.4
14831.5
26658.3
7596.65
14470.1
7074.85
15664.9
10853.6
7030.75
15737.8
5513.7
10440.2
160.52
13445.2
-671.241
10664.8
11097.8
16552.6
7193.06
9109.26
13264.4
14939.3
9500.89
2237.21
1812.95
1391.08
1714.64
1446.72
1150.38
7323.73
5012.91
3639.03
5153.75
3416.6
2487.56
8036.5
5805.9
4838.71
6014.12
3980.43
3332.33
5190.65
3642.77
3195.95
9611.58
5682.45
4089.36
10197.1
5917.22
3958.89
10602.7
6762.78
5128.64
8209.65
4392.63
2888.64
13530.1
9556.85
6881.53
9736.63
6651.16
4378.23
9804.64
6163.17
3772.76
9210.14
5417.52
3146.01
10993.8
5326.72
2315.06
11704.8
15457.4
9594.48
12026.5
13576.4
19302.5
12467
17419.3
53.9877
595.561
-392.769
152.608
3096.71
3321.11
1494.72
966.176
1193.96
2816.05
10093.7
14214.4
6502.59
4024.49
11414.3
11385.7
18419.1
20333.7
-335.712
-4229.2
8319.31
7742.11
7438.84
5666.78
907.448
486.711
694.968
363.253
2174.48
256.549
126.203
-467.021
9196.15
2125.57
6618.93
1733.05
9220.3
2688.75
10969.9
3225.3
10223.8
12324.9
9321.6
11953.9
16826.3
16690
15941.6
15690.2
6030.46
8818.25
7001.35
8797.28
9770.37
11483.5
10604.1
11475.7
16586.3
15358.6
17281.4
15303.7
6003.61
8489.58
6375.87
8516.35
-190.782
769.773
6044.17
2861.53
-556.087
456.45
5592.46
2503
167.271
983.636
6127.84
3108.55
443.538
1120.23
6046.54
3138.3
-506.26
-569.003
138.397
-27.9245
-2315.29
-2221.57
-166.885
-387.668
-395.39
-1450.05
1151.08
497.453
-9331.12
-9989.82
-4679.49
-3468.87
-544.84
-10777.7
-9883.38
-3441.67
-4896.72
-894.994
11253.5
8323.35
6545.68
5302.15
2421.78
-487.268
-367.869
-80.4631
-58.6582
-1665.94
-1330.74
-245.537
-167.958
-1724.13
-1743
157.929
149.357
-4664.17
-1478.96
-6705.33
-3400.41
-2546.51
-1501.09
-2810.31
-2015.72
-100.858
287.029
4165.37
2489.95
1494.17
-390.082
1047.37
-340.179
1078.98
75.2459
751.773
689.88
5049.7
4188.94
9282.76
5370.56
8329.89
7569.13
12437
9486.02
6497.39
3552.05
3280.76
2888.54
10866.7
4703.42
11829.5
5216.83
13811.3
9744.35
14645.2
10495.7
7873.77
2935.07
8709.7
3351.44
4195.45
2793.29
2133.14
2873.85
2583.65
2477
1761.2
2636.23
4859.1
2690.75
2396.95
3299.23
5946.09
2890.87
3265.86
3355.6
-277.913
-229.968
-233.295
-38.1039
-84.5213
-84.0822
-1065.07
-920.267
-828.556
-121.467
-247.048
-227.216
-1500.5
-1324.8
-1185.65
134.084
-254.667
-302.879
-475.091
-393.78
-142.181
-1764.96
-1628.78
-1366.54
-1267.68
-1265.23
-1146.85
-1600.45
-1414.98
-1236.09
427.779
-100.114
-136.911
3435.09
1855.91
992.674
-10.7957
-576.634