/*--------------------------------*- C++ -*----------------------------------*\
| =========                 |                                                 |
| \\      /  F ield         | OpenFOAM: The Open Source CFD Toolbox           |
|  \\    /   O peration     | Version:  2306                                  |
|   \\  /    A nd           | Website:  www.openfoam.com                      |
|    \\/     M anipulation  |                                                 |
\*---------------------------------------------------------------------------*/
FoamFile
{
    version     2.0;
    format      ascii;
    arch        "LSB;label=32;scalar=64";
    class       volScalarField;
    location    "0.7";
    object      gradTy;
}
// * * * * * * * * * * * * * * * * * * * * * * * * * * * * * * * * * * * * * //

dimensions      [0 -1 0 1 0 0 0];

internalField   nonuniform List<scalar> 
5712
(
13905.2
8025.16
22223.5
14735.1
24367.6
18189.7
37472.6
47531.3
49611.3
61825.4
32455.3
28506.9
20574.4
16539.1
10452.5
7102.22
22352.3
22031.6
19612.9
22559.8
30033.6
25847.2
35638.8
27790.1
9586.54
6725.43
5471.38
4158.21
11165
9090.56
6961.65
5840.86
22022.1
22099.3
21609.6
17036.2
16085.2
13254
12981
14998.8
20773.3
20934.7
45169.3
47042.3
30840.1
32142
19155.6
16151.2
19953
14005.9
9324.77
9809.79
8355.98
13242.5
4414.71
5775.84
11326.8
17396.3
6897
8558.54
12090.4
23094
8558.08
15187.6
3169.7
8910.02
2653.86
6620.59
18985.3
23704.9
20349.8
24056.5
22721.9
22592
23907.7
22742.4
18003.6
24861.9
17847.2
24209
20387.2
24163.4
20572.4
24254.3
24575.2
22719.4
24728.8
22632.8
16865.6
25170.2
16423.2
25385.3
22486.2
28243.5
28387.4
42533.5
23859.1
33333.5
28132.4
47046.1
21331.1
24559.5
28506.6
40539.8
21177.2
22892.3
28880.7
40176.8
8225.49
11192.1
21372
39094.9
9843.29
11536.1
26721.8
43132.9
11674.4
11878.2
32751.1
46020.5
26784.8
26542.6
24714.5
25850
41831.1
26201.5
26458.8
24909.3
23041.1
49017.3
24100.8
25240.7
24259.4
26859.8
54401.8
2909.83
3536.58
6512.13
16493.9
4017.36
4695.85
8532.56
17560.7
5662.8
4795.43
11039.3
18883
24707.8
22365.1
23643.8
21120.7
22401.2
18410.9
17905.3
14769.1
13879.5
20959.2
23045.6
20592.3
24659.6
22587.2
23070.1
20264.2
20740
17809
14500.7
20395.3
25154.1
27651.8
25287.3
28683.7
23062.8
23062.6
22772.2
23690.7
24416.1
24482.6
24185.9
23649.8
25172.3
28950.7
25170.6
29063.7
22244.1
24222.3
22161.4
24289.9
24485.5
24404.4
24563.2
24461.4
21812.3
20577.5
14465.9
16692.1
21785
20183.1
14327.6
17139.1
22020.4
20416.3
14752.3
16596.8
22107.7
20188.5
15208.1
16549.3
2084.49
1158.63
679.003
1079.9
561.138
485.345
2976.32
1356.12
855.182
2001.58
1338.14
959.223
3064.62
1869.92
1585.87
3386.78
2272.15
1787.18
18568.8
13929.3
11141.7
18007.5
13998.5
11428.3
13587
10502.3
8788.45
10257.6
7131.03
5718.38
5256.43
3021.27
2178.63
17425.3
13299.7
10538.3
19099.4
14287.4
11210.4
15205.4
10467.1
7964.24
10642.3
6651.2
4982.3
5515.16
2932.2
1963.69
29050.7
27549.1
32435.8
28180.2
33728.8
28339.8
41911.6
30626.8
21390.8
20578.9
21368.5
18921.3
24198.6
21668.4
24144.3
19688.5
23799.7
23061.8
21860.1
22786.2
27535.6
25401
30251.3
31056.5
33947.5
35522.6
24440.8
25713.6
21955
21503.9
25775.1
26665.7
15276.3
7854.29
14498.7
8724.87
15646.4
7913.56
14572.5
8648.99
15603.5
7927.08
14753.5
9047.5
14503.1
9479.52
14754.4
9333.92
21122.8
17194.5
21551.1
17479.5
24066
21030.2
24977.2
21201.7
20438.3
13827.3
20805.4
13407.3
22424.6
17569.2
22885.1
17401.9
26108.7
21260.6
26343.9
21065
20553.6
13981.3
20611
13887.1
12590.1
7846.95
10340.9
6470.79
11433.4
6936.92
9777.05
6007.3
13061.4
8368.18
10572
6672.48
13118.8
8630.43
10521.7
6686.89
2259.31
1114.58
4070.72
2251.75
2375.56
1324.49
4297.84
2615.5
2873.5
1959.74
4717.82
3321.63
11551.7
19074.2
8070.96
7586.1
5364.61
18158.6
11808.9
6462.6
6446.08
4329.18
19609.6
14630.2
11068
8226.68
5183.34
544.417
312.101
1349.4
959.26
720.652
386.884
1738.92
1274.91
1222.53
729.019
2391.78
1786.4
17593.1
15450.5
11009
9358.05
6587.74
5727.86
5363.54
4088.12
3526.92
2624.22
17017.6
14077.4
12301.1
9525.79
8952.1
6781.39
6462.11
4830.26
4352.47
3603.89
13171.7
9305.92
13554.8
9436.82
16945.9
12904.3
17290.1
13236.3
10533.8
7304.78
10007.8
7058.32
13738.8
9480.02
13679.2
9484.67
17413.6
13752.2
17308.7
13775.8
10845.2
7328.27
10816.8
7404.1
7685.55
5418.05
5138.89
4477.72
7272.89
5125.86
4885.98
4138.14
8064.67
5587.39
5281.79
4728.29
8221.37
5580.03
5476.63
4779.34
570.845
440.731
329.763
2501.08
1152.03
844.572
560.66
495.59
397.537
2813.61
1406.53
1069.72
850.359
832.97
762.977
3294.64
1844.53
1464.32
12387.7
9583.73
7937.59
7469.74
5910.07
5052.22
4774.34
3820.8
3344.62
3509.56
2772.02
2372.41
3998.82
2392.21
1902.83
10991.3
8189.78
6537.66
7116.78
5244.06
4250.34
5102.45
3719.76
3030.76
4183.89
2968.41
2351.13
5108.32
2759.85
2119.78
3785.44
1844.25
903.694
424.629
4269.2
2014.84
959.891
441.976
3802.83
1845.02
906.012
425.939
4352.09
2059.46
990.802
458.574
3799.42
1831.17
932.931
446.063
4444.6
2086.85
1044.05
491.582
4772.46
2200.11
1028.18
468.977
4858.58
2260.03
1032.33
467.618
4017.96
1951.24
986.362
465.349
3346.94
1722.92
905.133
435.116
3542.62
1769.87
930.468
452.431
3107.93
1629.12
872.017
424.493
4323.55
2079.53
1014.15
468.667
3481.84
1786.11
921.665
440.66
4469.26
2154.69
1033.33
477.357
3529.11
1824.96
937.859
450.893
2843.12
1566.97
824.84
403.517
1950.52
1257.74
729.465
372.212
2855.68
1563.7
827.312
404.944
2032.4
1279.33
736.199
375.054
2937.98
1572.31
845.839
416.146
2270.03
1344.73
759.948
384.348
2925.06
1545.31
842.074
427.219
2484.01
1395.62
794.239
395.249
2781.93
1513.69
832.043
417.234
1217.39
1028.33
585.162
169.279
575.87
911.46
532.212
163.196
1354.05
1073.93
603.251
178.496
710.86
959.201
547.333
167.555
1628.07
1157.95
627.253
179.824
962.634
1043.73
568.659
170.962
1989.23
1264.31
670.74
196.179
1272.3
1145.06
601.447
180.17
2276.46
1369.49
725.397
224.802
1452.16
1234.11
632.958
188.627
2500.31
1491.6
748.957
219.741
1499.67
1350.65
690.511
203.545
2414.63
1440.73
734.396
218.532
1418.23
1299.89
662.156
195.411
2541.39
1522.25
748.89
207.916
1519.72
1386.57
703.272
204.672
2588.76
1547.46
761.099
210.29
1582.25
1413.8
716.686
208.134
209.294
105.091
49.1588
20.7694
5.63521
210.211
105.362
49.2855
20.82
5.64808
212.224
106.491
49.6375
20.9276
5.67256
215.551
107.129
49.8916
21.0254
5.69725
219.564
108.321
50.2114
21.1163
5.71733
223.106
108.961
50.5379
21.2504
5.75187
223.423
110.783
51.3322
21.5452
5.82514
227.17
112.983
52.3011
21.9161
5.91896
226.6
110.445
50.9887
21.3899
5.78404
235.489
112.286
51.4731
21.5336
5.81676
226.908
109.705
50.6175
21.2453
5.74755
234.835
111.416
51.0853
21.3889
5.78077
227.647
111.984
51.6775
21.649
5.84882
239.575
113.745
52.0762
21.7599
5.87352
232.956
114.165
52.5797
21.9908
5.93516
245.101
115.703
52.8448
22.0491
5.94668
210.669
105.048
49.0593
20.7236
5.62324
214.975
105.203
49.0069
20.6955
5.61581
213.668
106.18
49.4342
20.8447
5.65149
217.68
106.116
49.3063
20.7916
5.63811
220.128
108.024
49.9975
21.0258
5.69398
223.628
107.785
49.8226
20.9572
5.67684
228.051
109.853
50.529
21.1959
5.734
230.497
109.533
50.3766
21.1397
5.72013
234.86
110.789
50.8222
21.2936
5.75732
16729.1
26159.9
17115.8
26103.6
17564.7
25838.4
17496.6
25237.1
16088.8
23405.4
14087.6
16066.4
14363
17350
14042.8
15692.5
14261.8
15796.3
15224.4
2649.33
580.843
134.628
24.6122
16961.8
4914.51
1222.02
286.092
52.2664
15139.7
2595.87
566.757
131.184
23.9567
16818.1
4832.92
1200.76
280.452
50.9014
14854.5
2525.52
549.69
127.247
23.26
16460.6
4710.63
1169.79
273.322
49.6772
14219.1
2379.24
516.487
119.929
21.9961
15750.3
4495.37
1118.34
262.123
47.7644
13024.9
2132.28
464.759
108.909
20.1117
14472.3
4158.86
1043.03
246.324
45.1179
11000.7
1884.74
428.16
102.964
19.3019
11239.2
3429.22
892.083
216.38
40.3421
11635.8
1956.45
437.58
104.145
19.3991
12236.6
3710.87
952.263
228.013
42.1187
10727.4
1858.27
424.982
102.698
19.3093
10846.4
3294.56
860.273
210.039
39.3839
10649.3
1838.15
420.452
101.764
19.1372
10793.1
3258.49
849.878
208.293
39.0541
38020
56170.7
54475.6
36514.2
20347.1
21619.3
30246.7
32092.9
24490.3
28008.7
39990.2
55975.4
51026.6
68945.9
32801
38001
25211.6
27318.7
13463.3
14915.6
4274.09
2532.35
252.508
145.657
159.854
129.086
197.348
3751.22
3200.82
1766.42
2217.64
1803.79
698.773
1132.28
844.699
488.335
580.873
424.312
3511.7
1448.14
628.676
537.747
844.222
690.018
460.51
377.815
283.475
231.954
412.564
361.756
3883.73
2020.38
2411.42
1252.84
892.768
1514.27
457.297
266.025
530.965
8091.32
7036.14
6091.38
5745.84
8125.93
5201.16
5150.22
4783.47
4598.93
4849.7
631.7
828.773
930.049
971.843
985.634
370.346
498.369
572.406
607.88
621.046
406.857
548.059
629.432
667.73
681.436
329.716
446.822
516.403
550.669
563.602
498.727
664.383
755.334
795.713
809.451
7348.23
6614.73
5588.03
5010.46
6902.43
6265.68
5518.98
4552.3
3996.23
4184.17
3774.61
3907.06
3628.71
3378.02
3361.84
4404.74
4020.14
3356.06
2905.1
2748.44
3578.39
3306.63
2776.4
2372.49
2189.54
1632.67
1926.49
1966.23
1920.41
1887.97
2509.37
2734.82
2620.93
2459.33
2386.21
1906.86
2135.66
2084.22
1964.11
1888.99
1174.85
1448.25
1531.84
1529.81
1515.22
1369.97
1638.42
1687.46
1651.79
1618.28
1031.14
1290.01
1380.58
1388.17
1377.64
7004.1
6499.48
5639.27
5193.23
7193.19
3195.35
3481.65
3376.03
3242.11
3268.88
1493.09
1806.67
1885.7
1874.17
1861.46
1293.24
1596.28
1697
1709.76
1709.33
1960.53
2299.94
2351.46
2319.66
2317.6
1639.68
1989.45
2089.19
2095.14
2098.54
1122.21
1414.81
1534.61
1569.87
1580.69
930.897
1191.81
1306.95
1343.19
1351.78
707.069
921.747
1025.19
1061.08
1068.99
583.07
769.864
867.259
906.767
918.56
1007.55
1271.43
1374.06
1394.95
1393.99
891.35
1140.88
1249.85
1282.27
1288.48
7521.01
6758.25
5899.23
5542.22
7773.97
4276.52
4423.05
4212.06
4082.89
4248.15
5209.33
5334.14
4898.38
4661.55
5143.1
2836.06
3219.18
3235.9
3191.97
3233.43
2085.33
2470.19
2551.78
2542.98
2555.23
3348.46
3669.41
3585
3472.84
3528.07
1114.54
1404.58
1521.45
1553.44
1561.68
664.485
869.075
971.408
1011.12
1022.87
1280.84
1588.85
1697.57
1717.76
1721.53
22265.5
15049.8
22746.4
16585.9
28762.1
43204.2
30422.5
43264.1
23084.4
23886.6
20110.6
23495.5
25214.6
23288.7
33644.2
26409.7
17891.1
17851.3
8769.38
7943.99
19300.9
18627.2
9970.71
8540.62
24396.7
25898.1
24229.6
21465.7
25508.7
16711.1
13083.1
15106.9
21179.9
21083.1
45520.4
47294
30483.2
32110.5
20449
16471.7
21481.5
14328.7
10570
10144.1
19927.8
22835.2
8257.91
9306.58
21578.1
25686.6
10163.8
11601.4
19954.8
29609.3
11486.4
18625.1
3878.77
10139.3
2806.71
6873.72
20849
23414.9
20889
23950
21477
21385.5
23109.1
22120.7
20125.4
25367.4
22971.9
24990.5
20558.2
24124.8
20606.5
24242.9
24222.3
22425.9
24636.9
22545.1
17673.4
25441.8
16611.3
25467.3
24366.4
30575.7
29359.5
43736.2
26788.2
36942.9
29678.6
48930.2
22279
25766.7
29027.2
41213.6
21448.2
23247.9
29039.5
40395
27568.7
29510.7
36144.7
55000
27238.8
27456
38460.5
55352.8
26062.2
25204.4
40921.1
54063.6
20923.4
20388.1
24115.2
27918.6
45962.2
19331.3
19117.1
25337.8
24914.1
53394.3
20167.3
22416.4
23994.2
28642.3
56894.3
13918.7
12076.9
14449.9
20087.7
15361.6
13381.1
14873
20417.3
17148.5
14032.2
15395.5
20529.1
18030.5
16212.4
17902.4
16309
22713.2
19800.9
19796
16922.2
15945.4
21150.5
19264.4
17876.7
21731.9
20713.4
22457.6
20151.7
21989.2
18910.3
15529.1
20132.4
24016.7
26402.5
24827.2
28079.7
21381.5
21574.2
22022.9
22969
24444.9
24366.1
24085.1
23397.1
24974.2
28689.3
25115.8
28991.5
21911.7
23884.4
22065.9
24193.5
24510.7
24367.8
24568.9
24451.7
22201.2
20794.9
14857
16949
22438.8
20549.3
15017.2
17461.3
22222.6
20539.8
14958.4
16755.8
22170.9
20228.6
15277.7
16603.4
10603.4
10818.2
4927.31
4384.71
11861.8
11280.5
5521.06
5147.91
11434.2
10244.8
6192.98
5803.53
14840.2
13536.3
15478.5
14799.9
16659.9
15244.8
13536.7
11323.4
7466.28
5766.53
16657.6
14900.6
19225.1
17236
16590.1
14175.3
12869.2
10075.2
6735.28
4483.33
23269.6
21367.9
30141.2
25231.9
27314.4
23423.5
39539.8
28349.8
20517.3
15785.8
23159.6
17105.1
20288.9
16142.5
23278.4
17492.2
21546.8
18189.1
19114.2
17018.4
20220.3
22434.5
28879.8
30665.4
33038.8
35299
23170.8
25316.4
20659
21141.1
24067.4
26095.8
11994.9
8173.11
12751.7
8507.14
12353.9
8136.23
13065.1
8429.19
12416.5
8061.14
13292.1
8749.72
13588.9
9193.85
14429.1
9224.44
17009.6
15812.5
19539.3
16615.4
20516.1
19093.4
23188.1
20151.6
18317
13312
16689.2
12810.1
21445.2
17108.1
22599
17260.7
25307.1
20746.2
26124.6
20912.6
19459.3
13667.3
20275.4
13786.5
11881.9
7841.34
10206.1
6556.76
10901.8
7377.72
9873.09
6353.68
12587.6
8268.69
10440.4
6679.21
12963.6
8584.23
10474.5
6685.17
10946.6
10285.1
7404.82
6544.13
11118.1
10467.2
7293.24
6502.81
11118.3
10142.8
7142.22
6500.78
14177.6
17780.2
14144.4
9826.24
6866.33
16213.6
14362
14911.6
9561.85
6494.47
18085.3
14927.1
12293.4
9594.75
6131.4
9595.79
8957.79
6013.63
5771.02
9660.67
8912.08
6018.68
5762.08
9177.68
8305.56
5904.23
5433.54
15378.6
13484.2
12968.1
11325.7
12268.1
11276
8858.9
8185.41
5827.92
5198.08
15631
13154.1
12954.5
10504.3
10659.5
8794.84
8329.21
7033.4
5480.77
4947.05
12868.9
9547.35
13187.9
9390.71
15897.9
12346.4
16646.9
12864.2
10452
7483.31
10287.5
7770.18
13503.7
9402.77
13602.7
9453.22
17087.4
13542.2
17210.6
13711.2
10729
7345.1
10771
7396.83
7816.19
5711.54
5321.38
4759.47
7842.33
5975.64
5378.36
4855.84
8061.8
5664.27
5337.14
4838.12
8211.16
5593.13
5489.02
4806.11
9174.3
8775.88
10353.1
8872.31
9083.38
8667.82
9977.58
8493.22
8189.23
7980.79
9236.51
7861.52
11998.1
10839.1
9925.23
9004.38
10203.9
9662.11
8003.24
7351.82
8481.67
7005.7
11027.3
9621.09
8640.75
7712.04
7576.22
7059.15
6905.65
6205.21
7975.89
6083.17
4447.73
2216.16
1074.81
498.122
4649.18
2301.33
1107.51
508.647
4394.81
2187.21
1061.54
491.99
4643.88
2298.03
1116.65
516.483
4298.36
2128.65
1071.7
505.836
4652.58
2273.52
1148.96
541.717
4855.85
2307.16
1092.6
500.493
4879.33
2295.1
1053.58
478.269
4223.64
2101.96
1071.18
506.906
3496
1831.84
966.81
466.168
3961.82
2010.8
1051.85
508.258
3401.98
1812.59
962.295
465.698
4408.97
2161.23
1063.86
493.855
3549.25
1843.28
957.585
460.073
4490.65
2180.42
1049.68
485.858
3548.12
1842.74
949.636
457.403
4069.08
2070.19
1031.67
487.636
3543.53
1875.92
972.84
466.682
3990.52
2037.35
1021.2
483.216
3498.54
1859.26
965.169
464.2
3892.39
1986.94
1019.95
487.21
3486.6
1842.28
960.886
462.485
3634.01
1885.48
990.592
489.605
3403.25
1807.3
964.361
460.36
3287.15
1784.69
953.231
467.789
2913.25
1697
820.316
222.998
2098.79
1591.23
777.545
223.595
2929.58
1699.07
825.842
230.987
2148.47
1593.77
779.147
225.124
2972.07
1696.23
820.107
224.322
2226.08
1591.77
771.685
221.456
2947.87
1683.4
833.53
235.658
2210.72
1579.27
770.554
223.322
2827.09
1653.6
850.59
259.447
1988.53
1543.57
763.909
223.527
2632.52
1591.54
808.116
238.109
1608.19
1461.48
749.177
220.98
2693.09
1615.03
823.945
244.383
1674.49
1494.09
753.373
220.99
2598.04
1573.05
781.956
218.326
1558.81
1441.02
734.795
214.367
2603.51
1562.87
771.584
213.651
1590.64
1429.76
726.405
211.179
242.898
119.749
55.1126
22.9995
6.19733
240.624
119.131
54.9672
22.9627
6.18947
242.733
119.73
55.0278
22.9507
6.18308
241.968
119.031
54.8129
22.8855
6.16787
247.033
119.904
54.9168
22.884
6.16383
245.294
118.738
54.5816
22.7814
6.13968
238.164
117.447
54.1169
22.6057
6.09449
232.49
115.46
53.3467
22.3164
6.02086
246.387
119.211
54.5859
22.7493
6.12833
253.414
119.98
54.611
22.7184
6.11697
252.492
120.251
54.8768
22.8446
6.15165
258.436
120.802
54.8599
22.8063
6.1391
240.351
117.879
54.1328
22.5834
6.08618
250.889
118.853
54.1917
22.5647
6.07808
237.27
116.176
53.4262
22.3149
6.0177
248.918
117.456
53.5781
22.3296
6.01816
249.489
120.816
55.3021
23.0397
6.20517
260.649
121.865
55.4424
23.0657
6.21
250.139
120.868
55.2582
23.0088
6.19573
261.036
121.882
55.4096
23.0432
6.20308
253.301
121.068
55.1723
22.953
6.17936
262.738
121.94
55.3269
22.9946
6.18894
258.342
121.371
55.0891
22.897
6.16293
265.106
121.796
55.1838
22.9275
6.17044
263.21
121.307
55.0052
22.8578
6.15216
18508.2
24912.1
18499.2
24793.1
18467.3
24520.8
17829.3
23878.1
16250
22269.3
14297.6
16220.8
14642.5
17382.6
14172.5
15814.1
14304.9
15838.3
15162.4
2607.63
572.327
133.349
24.4872
16307.1
4792.14
1201.41
283.174
51.9817
15014.2
2551.49
558.318
129.953
23.8393
16143.1
4709.44
1180.33
277.617
50.6345
14648.5
2478.99
541.694
126.141
23.1605
15782.3
4589.78
1150.46
270.732
49.4441
13983.9
2338.84
510.208
119.134
21.9362
15137.9
4390.71
1102.33
260.102
47.6033
12891.3
2111.26
461.724
108.605
20.1089
14050.1
4089.78
1032.95
245.2
45.0637
11075.1
1893.68
429.697
103.31
19.3692
11303.4
3440.82
894.548
217.02
40.4775
11672.8
1957.79
437.764
104.296
19.4474
12198.5
3696.18
950.057
227.976
42.1849
10787
1866.33
426.436
103.003
19.3638
10910.3
3309.27
863.387
210.719
39.507
10671.3
1841.17
421.003
101.878
19.1571
10817.4
3264.42
851.143
208.563
39.1013
37674.9
56215.4
54276
35357
26460.3
32869.5
25336.6
32682.7
31055.4
52293.5
33346.9
53828.2
7.69076
10.6444
17.5674
30.6748
54.1864
95.293
10.0634
13.6801
22.0397
37.4951
64.0953
108.107
6.09235
5.3529
8.80613
8.10628
15.3089
14.8679
27.9505
28.5341
50.6477
53.0188
88.103
88.9058
166.232
284.758
479.16
790.336
1189.12
1483.99
178.381
285.313
438.87
638.281
847.531
987.101
20.1632
28.5482
34.534
38.2248
39.9441
27.8324
39.2284
47.2252
52.0622
54.2796
45.7636
64.0969
76.6523
84.0389
87.3461
79.5535
110.594
131.232
142.966
148.065
139.733
192.436
226.165
244.5
252.157
243.853
331.63
384.925
412.133
422.875
26.3238
37.1281
44.7318
49.3467
51.4685
35.6747
50.058
59.9833
65.8756
68.5349
57.2292
79.7283
94.824
103.503
107.313
96.8751
133.841
157.828
171.092
176.72
164.608
225.18
262.908
282.788
290.87
275.565
372.414
429.672
458.009
468.905
16.0015
22.7259
27.5816
30.6135
32.0404
14.0739
20.0235
24.3475
27.0665
28.3535
23.0689
32.6181
39.4
43.5569
45.4833
21.2561
30.1039
36.4259
40.3265
42.1438
39.9614
56.1632
67.4066
74.1193
77.1614
38.8464
54.6814
65.7341
72.3745
75.399
72.6528
101.384
120.771
131.976
136.912
74.2322
103.73
123.732
135.352
140.491
130.949
181.107
213.745
231.817
239.479
137.192
189.982
224.473
243.639
251.781
226.22
309.311
360.84
387.759
398.581
228.678
313.499
366.571
394.512
405.787
420.772
562.34
641.945
678.962
692.441
709.898
926.515
1035.29
1079.18
1093.66
1169.26
1477.64
1606.97
1647.65
1660.88
1870.45
2261.33
2377.45
2395.4
2411.08
2708.65
3104.13
3148.12
3125.4
3163.55
3304.7
3667.87
3642.99
3588.3
3649.86
450.409
599.57
681.926
719.395
732.797
711.887
930.156
1040.22
1084.84
1099.49
1078.97
1378.33
1511.86
1557.7
1571.86
1541.84
1918.9
2061.15
2098.95
2112.29
2010.81
2438.67
2569.68
2592.44
2607.98
2316.5
2766.13
2882.8
2894.19
2913.19
7.75149
10.8557
18.0275
31.5848
55.904
98.3679
10.1381
13.932
22.5564
38.4328
65.6674
110.519
6.14507
5.40296
8.99744
8.29535
15.7567
15.3416
28.9225
29.6614
52.672
55.4867
92.3254
94.8496
170.971
290.373
483.813
790.728
1185.51
1481.71
181.612
288.844
441.72
639.393
847.081
986.642
20.3282
28.7962
34.8532
38.5967
40.344
28.407
40.0927
48.3387
53.3601
55.6759
47.0166
65.9855
79.0895
86.8833
90.408
82.0373
114.35
136.094
148.651
154.191
144.44
199.595
235.476
255.426
263.951
252.334
344.649
401.988
432.259
444.657
26.5274
37.4359
45.13
49.8124
51.9704
36.3625
51.0992
61.3327
67.4558
70.2389
58.6438
81.8779
97.6198
106.785
110.857
99.4529
137.783
162.982
177.165
183.291
168.96
231.9
271.77
293.293
302.27
282.321
383.012
443.834
474.95
487.374
16.1444
22.9398
27.8558
30.932
32.3824
14.2094
20.2258
24.6063
27.3666
28.6754
23.5876
33.3945
40.3957
44.7135
46.7253
21.7677
30.8679
37.4031
41.4594
43.3591
41.1764
57.9837
69.743
76.8345
80.0777
40.1289
56.5967
68.1844
75.2151
78.4459
75.2925
105.345
125.86
137.895
143.272
77.2845
108.29
129.566
142.114
147.744
136.461
189.411
224.449
244.292
252.896
143.896
200.042
237.395
258.658
267.913
237.728
326.656
383.192
413.794
426.57
244.707
337.272
396.749
429.272
442.943
434.067
583.221
669.825
712.263
728.715
726.352
953.81
1073.27
1125.76
1145.08
1184.73
1506.81
1650.91
1704.12
1724.68
1876.91
2281.85
2415.06
2448.49
2473.88
2705.38
3111.52
3169.53
3160.32
3207.74
3301.54
3668.68
3649.25
3599.98
3665.45
459.652
614.491
702.322
744.165
760.008
722.452
948.161
1065.82
1116.71
1134.94
1088.46
1396.36
1539.27
1593.19
1612.07
1547.41
1932.61
2084.61
2131.18
2149.86
2012.15
2445.88
2584.45
2614.28
2634.31
2316.36
2768.12
2887.65
2901.79
2922.56
4256.13
2524.96
262.317
152.808
177.755
139.884
211.256
3596.18
3151.04
1792.14
2290.56
770.174
1220.82
553.132
660.479
482.148
3410.47
1459.07
675.976
568.337
871.394
707.285
470.327
397.955
325.474
261.017
456.554
391.287
3833.22
2005.7
2371.17
1247.87
898.639
1511.12
473.373
284.87
553.114
8064.46
7026.55
6099.31
5772.94
8185.25
5189.66
5147.02
4790.93
4617.41
4877.45
659.496
872.901
989.289
1042.74
1062.92
390.013
528.383
611.469
653.678
670.447
454.677
617.921
716.813
767.249
787.184
358.787
489.81
570.781
613.113
630.232
536.822
722.114
829.895
882.567
902.795
7300.86
7010.61
6311.16
5975.56
8214.17
6536.63
6398.77
5870.64
5602.73
5979.6
3946.99
4327
4274.63
4188.52
4267.48
5032.92
5259.67
4952.16
4757.16
4733.21
1844.48
2272.04
2427.06
2463.81
2474.73
2805.48
3259.99
3341.4
3318.45
3317.36
1358.12
1733.61
1902.69
1961.07
1977.99
1606.94
2023.02
2194.22
2243.87
2255.41
1194.86
1545.8
1714.63
1778.21
1797.16
6903.18
6619.36
5969.85
5687.44
7932.48
3275.68
3689.01
3711.44
3678.93
3768.62
1633.22
2037.23
2197.68
2246.47
2266.29
1384.04
1746.94
1903.25
1958.28
1981.01
2053.77
2475.18
2607.04
2638.06
2672.13
1696.59
2094.28
2242.46
2287.38
2313.17
1152.87
1469.02
1612.79
1667.59
1689.59
988.602
1284.35
1431.58
1492.27
1514.16
819.948
1087.82
1233.75
1299.17
1322.32
661.047
884.42
1011.1
1070.97
1093.25
1131.03
1463.28
1624.68
1688
1709.36
974.363
1270.56
1420.63
1483.32
1505.64
7452.22
6748.55
5946.74
5649.85
7985.68
4256.5
4426.28
4244.35
4143.95
4332.07
5169.12
5387.77
5053.86
4908.17
5475.93
2838.42
3252.25
3306.39
3296.69
3361.06
2113.71
2536.97
2661.28
2689.03
2723.57
3377.71
3781.56
3788.66
3753.92
3860.07
1162.63
1485.6
1634.33
1691.42
1713.68
716.843
949.857
1077.09
1135.2
1156.73
1347.62
1701.88
1854.89
1909.58
1932.54
2687.64
2683.55
2655.36
2498.94
2039.32
854.222
22166.8
22360.4
24360.3
25481.3
21002
21723.9
22755.6
21425.4
18952.4
26360.1
19392.6
26625.2
22165
19616.3
33608.9
20785.1
20793.2
22442
23230.4
19265.2
19997.7
21262.9
20285.9
18596.5
31842.6
18903.1
30995.5
22180.6
24626.7
35942.2
19015.8
18862.6
19856.5
20306.3
17674.2
18986.7
19142.8
18832.7
20978.4
26990.9
21669.4
26617.1
23804.8
27189.1
31154.9
17175.4
17050.6
17167.9
17398.6
16342.7
17897.6
16680.4
16731.8
18732.2
22511.3
19356.3
21494.5
20626
23017.6
25289.6
15381.3
15297.1
15120.1
15238.4
15240.2
16872.3
14810.1
15054.2
16914.2
17265.7
17544.9
16098.6
17827.2
17641.1
19226.4
14435.5
14414.4
13672.3
13743.8
14234.5
15364.8
13532.5
13677.9
15471.9
13778.4
15809.4
13099.9
15690.1
14100
16241.8
22375.7
21190.3
24466.2
26120.4
19995.2
19521.6
22196.5
20640
18554.9
12451.2
18367.7
12507.6
15974.2
14195.8
16239.4
20452.5
19578.7
21910.8
23035.6
18782.6
18539.5
20342.8
19036.3
16335.4
11220.3
16198.1
11316.3
13778.6
11883
13974.9
17760.7
17217.9
18672
19270
16702.5
16467.1
17811.8
16935.7
14340.1
10055.3
13981.2
9856.37
12119.6
9831.63
12613.2
14788
14458.2
15731.3
16047.6
14073.9
13766.2
15338.8
14612.2
12031.8
9073.57
11806.9
8916.53
10365.7
8933.94
11393.7
12769.4
12540.4
13743
13935.8
12081.2
11787.6
13552.7
13007.8
10575.5
8854.54
10407.2
8774.72
9420.88
8660.81
10688.1
11286.9
11091.5
12417.4
12561.4
10791.4
10772.9
12225.3
11907.9
9694.78
8679.73
9612.68
8669.48
8840.06
8605.5
10461.9
13693.7
7773.74
22212.4
14741.9
24392
18171.9
37504.5
47545.6
49670.3
61852.9
32514.7
28505.7
20585.1
16572.5
10153
6783.02
22354.6
22033.5
19609.7
22560.2
30048.1
25853.1
35647.5
27794.5
9392.6
6583.06
5287.47
4030.57
11129.6
9078.08
6958.08
5857.81
22014.9
22092.3
21606.9
17035.9
16079.3
13257.4
12981.6
15000.4
20774.7
20936.5
45177
47047.7
30843.6
32144.5
19156.4
16153
19954.6
14007.5
9325.99
9811.11
8204.7
13045.5
4296.76
5638.62
11330
17414.1
6916.37
8582.11
12092.4
23103
8566.37
15198.7
3171.5
8914.27
2654.48
6622.21
18986
23705.8
20351
24057.5
22724.7
22593.4
23910
22743.5
18005.7
24863.2
17847.1
24210
20388.3
24164.3
20573.4
24255.2
24576.9
22720.2
24729.9
22633.2
16867.1
25171.6
16424.4
25386.7
22488.7
28248.8
28389.7
42537
23861
33339.1
28134.7
47050.2
21333.4
24563.3
28508.7
40542.9
21179.5
22895.4
28882.8
40179.8
8108.97
11080.2
21122.3
38830.6
9850.77
11540.6
26744.5
43161.7
11677.9
11881.1
32761.3
46031.4
26784.3
26543.1
24713.7
25851.5
41837
26201.6
26458.1
24907.6
23041.8
49023.7
24101.4
25240.9
24259.8
26861.9
54406.9
2860.1
3501.22
6388.46
16355.3
4023.13
4702.49
8550.93
17577
5665.57
4796.8
11045.1
18886.3
24707.6
22364.7
23643.1
21120.2
22399.9
18410.2
17906.2
14770
13882.3
20961.2
23045.6
20592
24659.6
22587
23070.4
20264.5
20741.5
17810.1
14502.4
20396.6
25154.5
27651.8
25287.7
28683.7
23063.1
23062.4
22772.5
23690.5
24416.9
24483.1
24186.6
23650.3
25172.7
28950.7
25171
29063.7
22244.3
24222.1
22161.5
24289.7
24486.2
24404.9
24563.9
24461.8
21813.5
20578.3
14466.9
16693
21786.3
20184.1
14328.9
17140.2
22021.4
20417.1
14753.2
16597.6
22108.8
20189.3
15209
16550.1
2060.65
1142.33
667.337
1078.33
556.86
480.086
2988.12
1361.73
856.672
2011.12
1343.24
961.058
3064.96
1870.46
1586.49
3387.53
2273.43
1788.34
18568.5
13929.4
11142
18007.4
13998.9
11428.9
13587.3
10503.1
8789.31
10258.2
7131.83
5719.28
5257.01
3021.96
2179.26
17425.1
13299.8
10538.6
19099.4
14287.7
11210.9
15205.7
10467.6
7964.87
10642.9
6651.75
4982.91
5515.65
2932.62
1964.04
29055.2
27550.2
32438.9
28181.2
33744.4
28345.7
41925.3
30632
21197.2
20517.9
21135.5
18846.7
24162.8
21636.7
24105
19657.8
23793.3
23056.1
21859.7
22783.9
27516.4
25384
30252.1
31056.6
33951.3
35524.7
24438.4
25712.2
21953.7
21502.6
25766.5
26661.5
15277.6
7859.59
14493.1
8731.94
15626
7908.06
14555
8644.51
15589.9
7921.9
14741.7
9042.13
14496.3
9475.39
14750.8
9331.33
21120.6
17193.8
21549.7
17478.9
24067.9
21030.9
24979
21202.1
20432.1
13825.7
20797.4
13405.4
22423.7
17568.6
22884.3
17401.2
26109.9
21260.7
26344.3
21064.9
20549.8
13980
20608.6
13886
12586.3
7844.11
10338.8
6469.27
11429.5
6934.13
9774.72
6005.64
13058.6
8365.77
10570.3
6671.17
13116.8
8628.58
10520.3
6685.79
2249.82
1103.57
4059.65
2238.82
2375.51
1325.08
4297.27
2615.94
2872.32
1959.33
4715.94
3320.79
11552.2
19075.3
8070.39
7584.21
5362.85
18159.3
11809.1
6462.38
6444.65
4327.97
19610.2
14630
11066.6
8224.79
5181.89
534.895
302.866
1337.1
950.908
721.379
386.689
1739.05
1274.62
1222.54
729.224
2391.44
1786.35
17593.2
15450.3
11008.6
9357.57
6587.25
5727.29
5362.63
4087.61
3526.17
2623.85
17017.7
14077.3
12300.8
9525.4
8951.23
6780.78
6460.99
4829.62
4351.48
3603.22
13171.2
9305.46
13554.4
9436.38
16946.1
12904.2
17290.2
13236.1
10532.9
7304.11
10006.8
7057.61
13738.3
9479.6
13678.7
9484.21
17413.5
13752
17308.5
13775.5
10844.4
7327.67
10816
7403.52
7684.45
5417.35
5137.94
4476.94
7271.67
5125.12
4884.94
4137.35
8063.72
5586.74
5280.95
4727.55
8220.5
5579.44
5475.88
4778.68
560.141
432.971
324.054
2484.94
1140.38
834.492
559.599
495.165
397.529
2812.39
1406.46
1069.78
850.517
833.055
763.026
3294.36
1844.53
1464.37
12387.4
9583.63
7937.6
7469.34
5909.8
5052.05
4773.82
3820.45
3344.38
3509.19
2771.76
2372.21
3998.25
2392.02
1902.73
10991.1
8189.65
6537.65
7116.42
5243.82
4250.18
5102
3719.48
3030.57
4183.37
2968.12
2350.94
5107.39
2759.52
2119.59
3785.65
1843.88
903.246
424.346
4268.54
2013.59
959.169
441.618
3801.61
1844.61
905.834
425.873
4351.17
2059.14
990.66
458.513
3798
1830.7
932.726
445.976
4443.09
2086.37
1043.84
491.491
4770.94
2199.58
1027.97
468.886
4857.39
2259.56
1032.13
467.529
4016.74
1950.73
986.133
465.249
3346.1
1722.49
904.913
435.011
3541.48
1769.39
930.245
452.33
3107.07
1628.68
871.798
424.389
4322.39
2079.03
1013.92
468.565
3481.07
1785.7
921.454
440.557
4468.29
2154.25
1033.12
477.261
3528.44
1824.59
937.664
450.795
2841.94
1566.78
824.639
403.323
1948.07
1257.08
729.284
372.141
2854.93
1563.36
827.152
404.879
2031.95
1279.09
736.083
375
2937.07
1571.92
845.653
416.065
2269.43
1344.41
759.791
384.274
2924.18
1544.9
841.867
427.118
2483.31
1395.27
794.053
395.16
2781.15
1513.29
831.832
417.127
1215.75
1027.74
585.116
169.331
574.725
910.457
531.87
163.103
1353.74
1073.77
603.138
178.453
710.6
959.122
547.276
167.537
1627.69
1157.7
627.123
179.784
962.423
1043.52
568.552
170.93
1988.73
1263.99
670.58
196.133
1272.03
1144.79
601.306
180.128
2275.87
1369.12
725.21
224.746
1451.84
1233.79
632.794
188.578
2499.77
1491.24
748.769
219.687
1499.39
1350.32
690.332
203.492
2414.05
1440.36
734.207
218.478
1417.93
1299.55
661.98
195.359
2540.91
1521.91
748.713
207.868
1519.48
1386.26
703.102
204.622
2588.32
1547.15
760.937
210.246
1582.03
1413.53
716.531
208.088
209.123
105.019
49.1335
20.7611
5.63324
210.005
105.269
49.2523
20.8088
5.64542
212.204
106.477
49.6308
20.9249
5.67185
215.527
107.115
49.8846
21.0225
5.69651
219.529
108.303
50.2034
21.1131
5.71648
223.07
108.943
50.5296
21.247
5.75098
223.381
110.762
51.3228
21.5414
5.82412
227.127
112.962
52.2916
21.9122
5.91791
226.553
110.424
50.9794
21.3862
5.78305
235.432
112.262
51.463
21.5295
5.81569
226.862
109.685
50.6087
21.2417
5.74661
234.779
111.394
51.0757
21.3851
5.77974
227.598
111.962
51.6676
21.645
5.84775
239.517
113.721
52.0657
21.7557
5.87241
232.908
114.143
52.5698
21.9867
5.93407
245.045
115.679
52.8345
22.0449
5.94557
210.505
104.986
49.0384
20.7168
5.62165
214.837
105.15
48.9891
20.6897
5.61446
213.649
106.168
49.4281
20.8422
5.65084
217.664
106.104
49.3007
20.7893
5.63751
220.093
108.007
49.9899
21.0227
5.69316
223.593
107.769
49.8153
20.9543
5.67606
228.004
109.833
50.5203
21.1924
5.73306
230.45
109.513
50.3681
21.1363
5.71923
234.806
110.768
50.8129
21.2899
5.75634
16659.3
26082.1
17119.9
26107.5
17567.2
25840.1
17498.2
25238.3
16089.9
23406.4
14088.4
16067.3
14363.9
17350.9
14043.6
15693.3
14262.6
15797.1
15216.5
2633.17
576.414
133.559
24.4152
16946.1
4906.22
1219.31
285.386
52.1294
15135.4
2597.03
566.98
131.22
23.9614
16815.6
4831.9
1200.37
280.333
50.8772
14853.6
2525.66
549.712
127.244
23.2583
16460
4710.31
1169.65
273.272
49.666
14219.2
2379.27
516.485
119.925