/*--------------------------------*- C++ -*----------------------------------*\
| =========                 |                                                 |
| \\      /  F ield         | OpenFOAM: The Open Source CFD Toolbox           |
|  \\    /   O peration     | Version:  2306                                  |
|   \\  /    A nd           | Website:  www.openfoam.com                      |
|    \\/     M anipulation  |                                                 |
\*---------------------------------------------------------------------------*/
FoamFile
{
    version     2.0;
    format      ascii;
    arch        "LSB;label=32;scalar=64";
    class       volScalarField;
    location    "0.7";
    object      T;
}
// * * * * * * * * * * * * * * * * * * * * * * * * * * * * * * * * * * * * * //

dimensions      [0 0 0 1 0 0 0];

internalField   nonuniform List<scalar> 
5712
(
529.532
550.222
516.519
541.48
498.307
529.743
468.245
504.743
468.315
497.124
495.403
523.974
512.158
537.144
523.324
545.709
486.747
461.125
511.987
475.183
454.896
428.881
479.442
440.718
538.921
547.593
555.644
560.532
525.785
536.49
547.661
554.65
526.644
506.612
497.988
484.495
520.331
539.33
536.17
535.703
488.037
493.062
508.333
506.922
452.648
456.439
544.248
546.998
512.062
519.763
555.497
559.102
553.16
564.807
564.437
569.669
543.907
560.992
559.912
567.806
525.664
552.81
542.25
561.208
553.898
565.899
558.346
567.528
442.159
427.221
452.18
431.022
408.02
395.271
417.529
398.759
484.08
463.357
473.881
458.824
458.998
432.745
460.514
432.331
423.807
400.384
425.04
399.938
490.945
465.467
492.699
465.342
513.544
549.71
497.166
537.773
503.464
543.566
491.478
532.557
520.293
553.105
499.901
540.44
522.348
554.309
500.178
541.555
541.563
519.152
558.507
542.194
527.845
505.787
552.728
534.548
508.118
488.466
542.92
524.054
421.474
383.14
456.922
488.235
531.131
376.211
413.598
447.528
475.99
515.14
382.999
417.669
450.879
482.871
522.344
479.409
444.541
486.276
452.833
472.91
440.455
484.847
451.486
463.61
433.712
483.099
450.633
363.648
347.722
400.563
381.045
431.644
408.361
457.493
430.608
484.747
454.785
369.229
352.105
404.098
387.237
436.555
417.073
466.195
443.01
493.226
467.405
411.304
402.685
411.192
404.483
376.031
354.883
377.11
356.346
444.231
440.533
444.269
437.498
409.146
404.668
408.949
404.975
376.617
357.276
376.468
357.46
441.9
440.83
441.829
441.382
476.621
472.52
504.25
499.136
475.248
467.527
502.099
493.022
475.753
473.638
504.931
501.343
474.316
473.01
503.656
500.39
407.444
379.281
364.795
411.281
380.993
365.981
405.85
377.277
362.241
410.651
379.501
363.747
400.177
371.726
356.622
410.191
377.026
360.185
330.129
316.571
309.446
357.811
337.39
326.211
380.444
354.301
339.866
397.45
367.312
351.143
412.612
375.975
356.952
333.189
317.041
308.485
365.383
342.099
328.752
389.181
359.174
341.812
407.536
371.134
350.756
419.827
378.137
355.676
380.711
370.601
386.884
376.628
415.39
397.075
427.96
405.843
355.633
333.127
356.77
334.765
357.002
335.814
358.709
337.43
357.93
354.234
356.929
351.678
339.087
342.111
380.718
382.99
411.992
414.635
360.725
364.311
360.372
362.261
344.51
346.689
312.48
296.4
316.927
298.844
314.743
296.823
318.983
299.482
318.408
297.463
324.305
300.94
327.242
302.98
327.971
303.796
351.814
341.693
359.359
344.993
377.517
365.834
385.882
369.325
338.866
325.257
332.241
322.352
363.353
346.578
364.523
346.625
390.742
370.966
391.912
370.741
342.247
326.726
343.345
326.93
319.867
298.758
310.1
294.838
314.371
296.09
307.724
293.404
322.895
300.606
311.345
295.644
324.083
301.631
311.623
295.92
298.427
290.232
291.537
286.835
300.256
292.208
291.83
287.413
303.839
296.644
292.64
288.977
332.119
353.341
317.039
306.143
292.689
347.682
327.337
311.116
301.381
290.328
353.089
331.877
315.754
303.787
291.544
284.701
280.677
283.069
279.875
286.545
282.086
283.894
280.622
290.399
285.129
285.57
282.075
336.265
323.11
317.551
306.743
304.336
296.301
295.672
289.346
287.593
283.835
340.395
324.906
321.224
308.524
307.738
298.148
297.906
290.541
288.903
284.679
325.708
309.424
328.848
311.779
346.374
326.191
349.426
328.214
313.379
300.746
310.762
298.722
331.185
313.105
331.465
313.396
351.223
329.177
351.329
329.408
315.512
302.017
315.802
302.272
300.787
291.779
290.198
284.998
299.469
290.433
289.641
284.493
301.807
292.665
290.505
285.224
302.743
293.06
291.034
285.701
277.23
275.574
274.919
275.695
274.45
274.028
278.396
276.394
275.584
276.254
274.854
274.34
280.744
278.131
277.021
277.206
275.423
274.753
310.026
300.751
296.115
297.089
290.81
287.829
289.204
284.655
282.628
283.602
280.036
278.476
278.052
275.802
274.95
310.232
299.263
294.049
297.444
289.675
286.177
289.734
284.043
281.58
283.783
279.696
278.043
277.926
275.637
274.79
284.733
278.512
275.554
274.162
285.653
278.803
275.628
274.168
284.759
278.526
275.569
274.173
285.91
278.9
275.687
274.203
284.696
278.517
275.631
274.226
286.061
278.968
275.785
274.267
286.736
279.22
275.788
274.235
287.129
279.405
275.829
274.243
285.385
278.792
275.743
274.268
284.218
278.487
275.673
274.3
284.386
278.449
275.67
274.286
283.688
278.284
275.615
274.302
286.113
279.063
275.791
274.26
284.594
278.642
275.719
274.314
286.561
279.252
275.85
274.288
284.836
278.754
275.771
274.347
283.24
278.057
275.457
274.173
281.58
277.548
275.331
274.19
283.238
278.059
275.472
274.188
281.71
277.592
275.347
274.202
283.305
278.084
275.514
274.225
282.086
277.714
275.394
274.228
283.186
278.067
275.54
274.265
282.387
277.819
275.45
274.263
283.046
278.06
275.558
274.306
280.347
277.186
275.152
274.214
279.688
277.012
275.08
274.198
280.602
277.268
275.185
274.231
279.957
277.1
275.111
274.212
281.08
277.423
275.235
274.253
280.437
277.258
275.16
274.234
281.681
277.623
275.32
274.292
281.013
277.455
275.23
274.265
282.275
277.848
275.422
274.333
281.535
277.659
275.307
274.3
283.028
278.196
275.535
274.375
282.272
278.023
275.462
274.37
282.709
278.043
275.481
274.353
281.948
277.859
275.389
274.336
283.245
278.312
275.563
274.389
282.515
278.156
275.513
274.396
283.418
278.402
275.603
274.411
282.7
278.255
275.558
274.42
273.529
273.244
273.108
273.048
273.025
273.53
273.245
273.109
273.048
273.025
273.535
273.247
273.109
273.048
273.025
273.538
273.248
273.11
273.048
273.025
273.543
273.249
273.11
273.048
273.026
273.547
273.251
273.111
273.049
273.026
273.555
273.255
273.112
273.049
273.026
273.566
273.259
273.114
273.05
273.026
273.553
273.253
273.111
273.049
273.026
273.561
273.255
273.112
273.049
273.026
273.549
273.251
273.111
273.049
273.026
273.557
273.253
273.111
273.049
273.026
273.561
273.256
273.113
273.049
273.026
273.568
273.258
273.113
273.05
273.026
273.571
273.26
273.114
273.05
273.026
273.577
273.261
273.115
273.05
273.026
273.528
273.244
273.108
273.048
273.025
273.529
273.244
273.108
273.048
273.025
273.533
273.246
273.109
273.048
273.025
273.533
273.245
273.108
273.048
273.025
273.542
273.248
273.11
273.048
273.025
273.54
273.247
273.109
273.048
273.025
273.55
273.251
273.11
273.049
273.026
273.548
273.25
273.11
273.048
273.026
273.554
273.252
273.111
273.049
273.026
497.471
492.076
497.942
492.722
499.392
494.491
502.595
497.824
508.553
503.725
518.44
518.69
515.374
513.946
519.758
520.689
520.129
520.962
557.44
569.573
572.195
572.808
572.945
544.203
565.859
571.321
572.607
572.892
557.758
569.656
572.215
572.812
572.946
544.695
566
571.35
572.616
572.894
558.173
569.756
572.238
572.818
572.947
545.416
566.18
571.391
572.625
572.895
559.031
569.951
572.282
572.827
572.949
546.648
566.473
571.455
572.638
572.899
560.471
570.253
572.346
572.841
572.953
548.586
566.904
571.546
572.657
572.903
561.883
570.461
572.38
572.846
572.953
552.831
567.782
571.721
572.69
572.91
561.478
570.409
572.374
572.846
572.954
551.193
567.433
571.653
572.678
572.908
562.032
570.478
572.381
572.845
572.953
553.633
567.97
571.758
572.697
572.911
562.149
570.505
572.386
572.846
572.953
553.817
568.03
571.768
572.698
572.911
395.278
437.246
435.192
391.379
373.86
375.495
377.561
380.701
390.323
394.894
424.65
435.912
434.252
446.345
406.537
412.044
392.611
396.572
384.948
387.332
331.943
314.94
280.027
277.296
277.72
276.869
278.68
325.8
316.326
303.608
303.842
298.138
288.398
294.331
289.659
284.777
286.111
283.55
325.26
300.742
287.639
286.084
291.562
289.248
284.754
282.943
280.743
279.532
283.488
282.503
328.86
308.905
315.408
299.08
293.094
302.434
284.648
280.34
286.072
315.847
303.761
294.612
286.402
278.198
306.077
298.07
290.626
283.72
276.829
279.143
278.006
276.657
275.216
273.741
276.787
276.113
275.291
274.395
273.468
277.16
276.419
275.516
274.531
273.513
276.417
275.815
275.077
274.266
273.425
277.989
277.085
275.996
274.819
273.609
311.613
300.204
291.733
284.414
277.516
304.217
294.487
287.458
281.527
275.981
297.426
291.401
285.705
280.515
275.57
295.499
288.512
283.292
278.909
274.972
291.449
285.706
281.36
277.736
274.549
285.953
283.151
280.173
277.252
274.412
290.368
286.236
282.163
278.373
274.785
286.703
283.516
280.296
277.264
274.403
283.067
281.008
278.723
276.412
274.133
284.078
281.71
279.162
276.648
274.207
282.065
280.244
278.195
276.103
274.03
311.988
300.896
292.435
284.908
277.693
295.674
290.432
285.229
280.304
275.503
285.439
282.845
280.019
277.188
274.396
284.202
281.935
279.413
276.844
274.284
288.607
285.259
281.708
278.204
274.749
286.833
283.984
280.865
277.716
274.579
283.143
281.157
278.898
276.554
274.188
281.62
279.961
278.045
276.04
274.015
279.751
278.48
276.986
275.405
273.802
278.72
277.667
276.411
275.065
273.69
282.044
280.259
278.23
276.137
274.045
281.237
279.648
277.814
275.898
273.967
314.236
302.724
293.892
285.936
278.103
301.833
295.065
288.564
282.429
276.316
306.621
297.981
290.526
283.62
276.793
294.696
289.946
285.038
280.238
275.462
289.969
286.391
282.559
278.736
274.93
297.134
291.632
286.126
280.877
275.708
283.048
281.076
278.834
276.512
274.174
279.409
278.214
276.802
275.3
273.769
284.213
281.964
279.447
276.871
274.294
480.008
531.889
471.617
525.545
444.069
502.911
451.881
509.092
457.099
439.742
499.486
463.824
428.413
410.726
467.773
430.712
500.542
518.84
542.346
550.767
492.386
509.995
537.31
546.484
514.99
479.618
486.89
462.94
497.067
529.736
532.073
534.645
482.859
491.647
504.054
505.696
447.855
455.034
540.167
546.021
507.219
518.507
552.443
558.428
537.986
559.914
558.975
567.86
529.169
556.233
555.026
566.104
511.27
548.204
534.98
558.786
551.196
564.953
557.775
567.316
431.752
422.263
445.129
427.727
400.16
391.875
411.764
396.248
477.029
460.168
463.012
453.892
455.324
430.912
459.442
431.757
420.671
398.907
424.11
399.468
487.331
463.713
491.649
464.795
508.345
547.934
494.856
536.885
495.477
540.855
487.924
531.244
517.619
552.159
498.625
539.936
521.567
554.022
499.778
541.394
517.867
493.708
551.155
534.242
506.427
483.626
545.973
527.543
490.179
470.628
537.24
518.525
418.078
387.814
448.014
479.265
528.012
383.312
411.541
438.208
465.883
511.84
385.517
414.815
445.538
478.348
520.759
459.751
436.063
481.002
457.806
455.295
432.627
480.706
456.788
448.657
426.816
480.416
456.093
373.416
360.581
400.642
384.945
425.187
406.679
450.58
429.319
484.045
460.223
374.485
359.742
403.813
390.717
433.567
418.896
463.613
445.442
492.978
471.538
409.477
402.744
409.613
403.79
376.517
357.8
376.471
356.99
442.357
439.365
441.617
436.558
408.159
404.017
408.616
404.733
376.026
357.207
376.248
357.381
440.795
439.991
441.467
441.09
475.132
471.517
503.447
498.59
473.143
466.872
501.167
493.049
474.851
472.899
504.404
500.87
474.001
472.744
503.472
500.218
421.339
414.872
438.404
429.693
418.029
410.551
436.956
426.657
411.728
403.572
435.109
422.323
349.697
342.266
372.216
363.278
392.371
382.082
412.707
401.439
435.958
418.678
346.002
337.227
377.734
366.251
402.217
387.523
422.922
404.439
438.742
416.219
368.695
361.673
380.875
371.268
396.755
383.66
419.49
398.171
349.498
330.429
354.329
333.41
349.398
332.635
355.032
335.744
354.103
347.235
353.429
346.305
335.694
339.997
377.598
381.965
407.935
413.364
358.126
363.333
358.093
361.445
342.873
346.029
316.357
300.575
318.293
301.538
318.012
300.639
319.77
301.644
321.068
300.798
324.427
302.584
326.885
303.783
327.781
304.033
350.78
342.818
357.219
344.915
373.055
364.842
381.91
368.059
338.371
326.035
333.839
324.695
361.827
346.295
364.021
346.511
388.373
370.079
391.183
370.445
341.549
326.928
343.077
326.968
320.933
300.281
311.265
295.954
317.892
298.891
310.354
295.421
323.073
301.33
311.815
296.194
324.08
301.837
311.75
296.085
312.837
308.606
298.555
295.785
314.246
310.117
298.462
295.83
316.595
313.126
298.429
296.235
343.647
363.295
328.362
314.461
297.152
360.633
342.635
327.235
313.21
296.026
359.884
339.724
322.769
309.167
294.773
304.146
299.751
292.711
288.722
305.903
301.434
293.035
289.135
308.931
304.332
293.63
289.782
352.129
341.532
335.385
326.914
321.356
315.259
308.477
303.553
293.5
289.705
349.991
336.137
331.453
319.945
316.391
307.489
304.245
297.156
292.397
288.15
329.464
314.474
330.001
313.691
349.221
331.139
349.882
329.855
314.818
302.548
314.42
302.986
331.445
313.716
331.5
313.525
351.102
329.589
351.245
329.468
316.002
302.666
315.917
302.425
302.151
293.194
291.206
285.922
302.464
293.515
291.554
286.316
302.376
293.23
290.986
285.64
302.899
293.21
291.172
285.814
296.604
295.439
282.733
282.153
298.469
296.996
283.163
282.477
300.929
298.422
283.649
282.154
332.536
326.325
319.745
314.968
309.955
306.425
298.963
295.501
283.2
280.811
324.26
318.051
310.497
305.96
300.142
296.848
290.823
288.226
280.694
278.807
287.016
279.544
275.985
274.338
287.462
279.686
276.013
274.329
286.861
279.484
275.966
274.333
287.428
279.659
276.022
274.343
286.528
279.364
275.991
274.371
287.259
279.58
276.065
274.387
287.448
279.606
275.968
274.313
287.368
279.539
275.892
274.271
286.364
279.292
275.977
274.374
284.948
278.871
275.864
274.394
285.89
279.162
275.989
274.423
284.865
278.867
275.884
274.426
286.662
279.36
275.935
274.328
284.992
278.862
275.833
274.374
286.738
279.351
275.899
274.311
284.962
278.826
275.809
274.368
286.241
279.302
275.956
274.375
285.226
279.004
275.902
274.423
286.066
279.242
275.946
274.378
285.14
278.976
275.89
274.423
285.793
279.149
275.947
274.397
285.051
278.943
275.882
274.426
285.256
278.985
275.925
274.423
284.866
278.885
275.882
274.439
284.727
278.84
275.898
274.454
284.32
278.774
275.757
274.489
283.75
278.656
275.717
274.5
284.325
278.769
275.762
274.494
283.76
278.652
275.717
274.501
284.309
278.755
275.751
274.49
283.747
278.639
275.707
274.498
284.23
278.724
275.761
274.496
283.674
278.611
275.703
274.498
284.053
278.673
275.778
274.506
283.483
278.564
275.695
274.497
283.713
278.565
275.718
274.476
283.029
278.436
275.661
274.479
283.849
278.617
275.747
274.491
283.219
278.5
275.68
274.491
283.608
278.517
275.669
274.45
282.903
278.381
275.626
274.46
283.53
278.467
275.637
274.431
282.816
278.325
275.594
274.441
273.598
273.273
273.119
273.052
273.027
273.596
273.272
273.119
273.052
273.027
273.598
273.272
273.119
273.052
273.027
273.595
273.271
273.119
273.052
273.027
273.598
273.271
273.119
273.052
273.027
273.593
273.27
273.118
273.052
273.027
273.587
273.268
273.117
273.051
273.027
273.578
273.264
273.116
273.051
273.027
273.595
273.27
273.118
273.052
273.027
273.598
273.27
273.118
273.051
273.027
273.599
273.271
273.118
273.052
273.027
273.601
273.271
273.118
273.052
273.027
273.589
273.268
273.117
273.051
273.027
273.592
273.268
273.117
273.051
273.027
273.581
273.264
273.116
273.051
273.027
273.586
273.265
273.116
273.051
273.027
273.603
273.273
273.119
273.052
273.027
273.607
273.274
273.12
273.052
273.027
273.603
273.273
273.119
273.052
273.027
273.607
273.274
273.119
273.052
273.027
273.603
273.273
273.119
273.052
273.027
273.607
273.273
273.119
273.052
273.027
273.604
273.272
273.119
273.052
273.027
273.606
273.273
273.119
273.052
273.027
273.604
273.272
273.119
273.052
273.027
497.838
494.961
498.603
495.694
500.423
497.466
503.746
500.501
509.203
505.562
518.082
518.405
515.201
514.129
519.469
520.398
520.023
520.85
557.68
569.621
572.202
572.808
572.945
544.892
565.975
571.337
572.608
572.892
558.012
569.704
572.222
572.813
572.946
545.39
566.113
571.365
572.617
572.893
558.439
569.801
572.244
572.818
572.947
546.095
566.288
571.405
572.626
572.895
559.26
569.986
572.286
572.827
572.949
547.235
566.561
571.466
572.639
572.898
560.59
570.269
572.348
572.841
572.953
548.973
566.959
571.552
572.657
572.903
561.832
570.452
572.378
572.845
572.953
552.763
567.767
571.717
572.689
572.91
561.47
570.407
572.373
572.845
572.954
551.274
567.445
571.653
572.678
572.907
561.985
570.47
572.379
572.845
572.953
553.549
567.951
571.754
572.696
572.911
562.132
570.501
572.385
572.846
572.953
553.783
568.023
571.766
572.698
572.911
393.921
435.69
430.378
387.456
374.974
383.565
372.679
383.272
405.481
428.076
409.844
429.848
273.258
273.352
273.572
273.98
274.691
275.884
273.334
273.448
273.708
274.18
274.968
276.223
273.206
273.182
273.294
273.272
273.503
273.49
273.901
273.923
274.597
274.677
275.7
275.741
277.827
280.836
285.302
291.554
298.253
302.749
278.133
280.871
284.526
288.876
293.024
295.633
273.231
273.193
273.145
273.09
273.03
273.315
273.263
273.197
273.122
273.041
273.51
273.426
273.318
273.196
273.066
273.873
273.726
273.541
273.332
273.112
274.501
274.245
273.924
273.566
273.19
275.55
275.105
274.555
273.95
273.319
273.298
273.25
273.187
273.115
273.039
273.4
273.334
273.249
273.154
273.052
273.631
273.525
273.392
273.241
273.081
274.048
273.87
273.647
273.397
273.133
274.743
274.442
274.068
273.653
273.219
275.845
275.342
274.727
274.053
273.353
273.184
273.155
273.116
273.072
273.024
273.163
273.137
273.103
273.064
273.021
273.263
273.22
273.165
273.102
273.034
273.243
273.204
273.153
273.094
273.032
273.449
273.375
273.281
273.173
273.058
273.438
273.366
273.274
273.169
273.057
273.804
273.67
273.499
273.307
273.104
273.824
273.686
273.512
273.315
273.106
274.42
274.179
273.876
273.538
273.181
274.491
274.239
273.921
273.565
273.19
275.392
274.978
274.464
273.895
273.301
275.43
275.011
274.49
273.911
273.306
277.245
276.482
275.558
274.556
273.521
279.84
278.564
277.06
275.458
273.823
283.625
281.555
279.192
276.734
274.249
288.788
285.548
282.004
278.415
274.818
294.091
289.533
284.779
280.088
275.402
297.555
292.092
286.551
281.163
275.786
277.509
276.692
275.71
274.647
273.552
279.872
278.592
277.081
275.472
273.827
282.99
281.069
278.855
276.534
274.182
286.642
283.932
280.886
277.748
274.589
290.058
286.568
282.742
278.859
274.965
292.179
288.19
283.88
279.542
275.198
273.26
273.361
273.59
274.016
274.76
276.011
273.337
273.458
273.729
274.218
275.034
276.328
273.208
273.183
273.301
273.279
273.52
273.509
273.939
273.967
274.677
274.773
275.867
275.966
278.034
281.117
285.625
291.826
298.403
302.791
278.284
281.06
284.727
289.047
293.131
295.668
273.233
273.195
273.146
273.09
273.031
273.323
273.27
273.202
273.125
273.042
273.527
273.44
273.329
273.203
273.068
273.906
273.754
273.563
273.346
273.117
274.564
274.299
273.966
273.592
273.199
275.666
275.204
274.632
273.998
273.336
273.301
273.252
273.189
273.117
273.039
273.409
273.342
273.256
273.158
273.053
273.65
273.542
273.404
273.249
273.084
274.083
273.9
273.67
273.411
273.139
274.804
274.494
274.108
273.679
273.228
275.941
275.426
274.792
274.095
273.368
273.186
273.156
273.117
273.073
273.025
273.165
273.138
273.104
273.064
273.022
273.27
273.226
273.17
273.105
273.035
273.25
273.209
273.157
273.097
273.033
273.465
273.389
273.291
273.18
273.061
273.455
273.38
273.285
273.176
273.059
273.838
273.699
273.522
273.321
273.108
273.863
273.72
273.538
273.331
273.112
274.492
274.241
273.924
273.568
273.191
274.579
274.313
273.978
273.601
273.203
275.543
275.107
274.563
273.958
273.322
275.634
275.185
274.622
273.994
273.335
277.436
276.646
275.686
274.637
273.549
280.101
278.793
277.239
275.573
273.862
283.931
281.828
279.411
276.876
274.298
289.058
285.8
282.213
278.554
274.867
294.253
289.694
284.919
280.185
275.438
297.605
292.145
286.599
281.198
275.799
277.649
276.814
275.805
274.707
273.573
280.049
278.748
277.204
275.551
273.854
283.181
281.241
278.992
276.623
274.213
286.809
284.085
281.012
277.832
274.618
290.166
286.671
282.828
278.917
274.985
292.215
288.226
283.91
279.563
275.205
331.962
314.984
280.466
277.587
278.371
277.274
279.234
330.064
324.739
308.091
314.666
291.764
299.506
287.506
289.806
286.01
327.15
303.104
289.923
287.597
293.412
290.365
285.328
283.862
282.295
280.603
285.338
283.764
329.086
309.116
316.393
299.578
293.884
303.865
285.478
281.123
287.226
315.934
303.876
294.729
286.494
278.237
306.146
298.152
290.705
283.779
276.853
279.548
278.356
276.929
275.388
273.801
277.052
276.34
275.467
274.506
273.506
277.749
276.918
275.895
274.768
273.594
276.784
276.128
275.315
274.415
273.475
278.494
277.518
276.328
275.028
273.68
316.464
304.708
295.4
286.841
278.405
312.818
302.061
293.384
285.295
277.25
301.819
295.354
288.838
282.53
276.272
306.069
297.415
290.106
283.181
276.428
289.068
285.845
282.252
278.564
274.86
295.233
290.479
285.453
280.455
275.497
285.571
283.156
280.37
277.447
274.486
287.494
284.655
281.425
278.072
274.694
284.323
282.185
279.685
277.041
274.351
314.26
303.164
294.37
286.235
278.209
297.997
292.547
286.93
281.413
275.893
287.557
284.686
281.446
278.093
274.706
285.608
283.161
280.367
277.451
274.492
290.362
286.815
282.937
278.994
275.022
287.89
284.922
281.607
278.195
274.745
283.682
281.635
279.275
276.796
274.272
282.47
280.698
278.616
276.403
274.14
281.156
279.673
277.893
275.972
273.995
279.69
278.49
277.036
275.456
273.823
283.74
281.716
279.35
276.842
274.286
282.395
280.646
278.583
276.384
274.133
314.652
303.197
294.341
286.273
278.244
302.096
295.344
288.817
282.611
276.385
307.753
299.112
291.507
284.299
277.046
295.21
290.439
285.454
280.52
275.564
290.739
287.094
283.128
279.11
275.061
298.576
292.976
287.232
281.61
275.97
283.821
281.754
279.365
276.851
274.29
280.126
278.83
277.277
275.599
273.871
285.29
282.907
280.184
277.342
274.456
275.018
279.045
283.069
287.011
290.566
293.556
453.451
446.043
419.525
426.479
434.38
423.757
408.318
396.408
476.607
495.676
468.457
485.061
456.62
446.222
470.126
439.503
433.61
408.299
413.747
423.96
414.893
399.256
389.392
461.757
473.973
454.739
464.927
443.77
434.445
452.3
419.787
415.668
392.425
396.182
408.542
401.591
385.875
378.087
439.202
449.582
433.794
442.821
425.701
418.284
433.143
398.693
395.887
375.403
378.007
390.596
384.906
370.631
364.483
416.838
427.469
412.743
422.166
406.478
399.619
414.073
383.029
380.947
362.811
364.802
376.699
372.07
359.031
353.866
399.565
411.269
396.286
407.172
391.61
385.851
400.487
372.257
370.547
354.14
355.809
367.064
363.44
350.888
346.436
388.181
402.273
385.353
398.336
381.802
377.043
391.783
366.282
363.138
389.897
394.72
358.847
353.662
382.201
373.09
344.076
325.018
343.356
326.741
339.982
339.6
329.447
360.659
357.802
381.885
385.96
353.898
349.239
375.279
367.154
338.721
320.818
338.141
322.587
334.998
335.04
324.98
351.771
349.391
369.902
372.984
346.131
342.1
364.765
358.191
332.839
316.108
332.213
317.584
329.54
329.527
319.627
341.021
339.145
356.319
358.592
336.335
332.534
352.403
346.762
325.169
311.003
324.676
312.123
322.426
322.215
313.874
332.684
331.136
346.098
347.907
328.794
325.443
342.9
338.123
319.044
307.529
318.645
308.254
316.942
316.62
309.737
326.858
325.52
339.036
340.581
323.65
320.942
336.255
332.146
315.224
305.341
314.911
305.934
313.497
313.313
307.337
530.3
550.875
516.556
541.423
498.321
529.718
468.232
504.72
468.301
497.097
495.426
523.955
512.223
537.116
524.213
546.519
486.742
461.114
511.968
475.169
454.878
428.864
479.421
440.701
539.523
548.021
556.122
560.853
525.78
536.468
547.587
554.591
526.615
506.601
497.97
484.484
520.315
539.298
536.161
535.697
488.026
493.052
508.321
506.913
452.634
456.426
544.238
546.993
512.051
519.755
555.488
559.099
553.463
564.926
564.645
569.746
543.878
560.979
559.873
567.791
525.646
552.801
542.227
561.199
553.889
565.895
558.342
567.527
442.148
427.211
452.168
431.012
408.007
395.26
417.515
398.748
484.068
463.348
473.87
458.816
458.987
432.736
460.504
432.322
423.794
400.374
425.028
399.928
490.935
465.459
492.69
465.334
513.533
549.705
497.16
537.77
503.453
543.561
491.471
532.554
520.285
553.102
499.895
540.437
522.341
554.306
500.173
541.552
541.96
519.598
558.674
542.423
527.812
505.751
552.711
534.522
508.099
488.447
542.91
524.042
421.464
383.13
456.912
488.223
531.125
376.202
413.589
447.518
475.978
515.133
382.99
417.66
450.87
482.862
522.339
479.824
444.836
486.569
453.046
472.882
440.446
484.834
451.483
463.594
433.703
483.09
450.629
363.641
347.717
400.556
381.039
431.635
408.354
457.482
430.6
484.741
454.782
369.221
352.099
404.09
387.23
436.547
417.067
466.187
443.005
493.221
467.402
411.296
402.678
411.184
404.476
376.023
354.877
377.102
356.34
444.224
440.527
444.262
437.492
409.139
404.661
408.941
404.969
376.609
357.27
376.46
357.454
441.893
440.824
441.823
441.376
476.616
472.515
504.247
499.132
475.242
467.522
502.095
493.019
475.748
473.634
504.928
501.339
474.311
473.006
503.652
500.387
407.659
379.432
364.921
411.453
381.12
366.082
405.853
377.284
362.247
410.654
379.511
363.757
400.175
371.729
356.626
410.191
377.03
360.191
330.126
316.569
309.445
357.807
337.389
326.211
380.44
354.3
339.867
397.447
367.313
351.146
412.61
375.977
356.955
333.185
317.039
308.484
365.378
342.097
328.751
389.177
359.172
341.813
407.532
371.133
350.757
419.825
378.137
355.679
380.657
370.569
386.831
376.597
415.353
397.051
427.923
405.819
355.524
333.137
356.623
334.751
356.917
335.76
358.627
337.383
357.882
354.184
356.895
351.643
339.044
342.071
380.695
382.972
411.973
414.619
360.693
364.291
360.347
362.243
344.481
346.671
312.502
296.398
316.94
298.837
314.721
296.816
318.965
299.477
318.383
297.454
324.28
300.931
327.221
302.972
327.957
303.788
351.794
341.68
359.339
344.981
377.501
365.821
385.866
369.313
338.846
325.246
332.221
322.34
363.336
346.567
364.509
346.615
390.727
370.955
391.899
370.731
342.23
326.716
343.332
326.921
319.851
298.751
310.091
294.833
314.356
296.083
307.715
293.399
322.881
300.599
311.337
295.638
324.072
301.625
311.616
295.915
298.393
290.186
291.528
286.82
300.251
292.207
291.825
287.41
303.829
296.638
292.634
288.973
332.107
353.33
317.027
306.133
292.684
347.673
327.327
311.107
301.374
290.323
353.078
331.865
315.743
303.778
291.539
284.664
280.645
283.06
279.868
286.545
282.088
283.892
280.62
290.396
285.128
285.567
282.073
336.258
323.105
317.544
306.738
304.329
296.297
295.667
289.344
287.59
283.832
340.387
324.901
321.216
308.519
307.73
298.144
297.9
290.538
288.899
284.676
325.7
309.419
328.839
311.774
346.365
326.185
349.417
328.209
313.372
300.741
310.755
298.717
331.177
313.1
331.458
313.392
351.216
329.172
351.322
329.402
315.505
302.013
315.796
302.268
300.781
291.776
290.194
284.996
299.463
290.429
289.637
284.49
301.802
292.661
290.502
285.222
302.739
293.057
291.03
285.699
277.206
275.552
274.898
275.695
274.446
274.023
278.398
276.396
275.586
276.253
274.854
274.34
280.744
278.131
277.021
277.205
275.423
274.753
310.023
300.749
296.114
297.086
290.808
287.828
289.202
284.654
282.628
283.601
280.035
278.476
278.051
275.802
274.949
310.228
299.261
294.048
297.441
289.674
286.176
289.731
284.042
281.579
283.781
279.696
278.042
277.925
275.637
274.79
284.731
278.51
275.553
274.161
285.645
278.8
275.627
274.167
284.757
278.525
275.569
274.173
285.908
278.899
275.686
274.202
284.694
278.516
275.631
274.226
286.058
278.967
275.784
274.267
286.733
279.219
275.788
274.235
287.126
279.403
275.828
274.243
285.382
278.791
275.742
274.267
284.215
278.485
275.673
274.299
284.383
278.448
275.669
274.285
283.685
278.283
275.615
274.302
286.109
279.062
275.79
274.26
284.592
278.641
275.719
274.314
286.559
279.251
275.849
274.287
284.833
278.753
275.77
274.347
283.239
278.057
275.456
274.172
281.576
277.547
275.33
274.189
283.236
278.058
275.472
274.188
281.708
277.591
275.346
274.202
283.302
278.083
275.514
274.224
282.084
277.713
275.394
274.227
283.184
278.066
275.54
274.265
282.385
277.818
275.45
274.263
283.043
278.058
275.557
274.306
280.343
277.185
275.152
274.213
279.682
277.01
275.08
274.198
280.6
277.267
275.185
274.23
279.956
277.099
275.111
274.212
281.079
277.422
275.234
274.253
280.435
277.258
275.16
274.234
281.679
277.622
275.319
274.292
281.011
277.454
275.23
274.265
282.272
277.846
275.421
274.333
281.533
277.657
275.306
274.299
283.025
278.195
275.534
274.375
282.269
278.022
275.462
274.37
282.707
278.042
275.48
274.353
281.945
277.858
275.388
274.336
283.242
278.31
275.562
274.388
282.513
278.154
275.513
274.396
283.416
278.4
275.602
274.411
282.698
278.254
275.558
274.42
273.528
273.244
273.108
273.048
273.025
273.53
273.245
273.109
273.048
273.025
273.535
273.247
273.109
273.048
273.025
273.538
273.248
273.11
273.048
273.025
273.543
273.249
273.11
273.048
273.026
273.546
273.251
273.111
273.049
273.026
273.555
273.254
273.112
273.049
273.026
273.566
273.259
273.114
273.05
273.026
273.553
273.253
273.111
273.049
273.026
273.561
273.255
273.112
273.049
273.026
273.549
273.251
273.111
273.049
273.026
273.557
273.253
273.111
273.049
273.026
273.56
273.256
273.113
273.049
273.026
273.568
273.258
273.113
273.05
273.026
273.571
273.26
273.114
273.05
273.026
273.577
273.261
273.114
273.05
273.026
273.528
273.244
273.108
273.048
273.025
273.529
273.244
273.108
273.048
273.025
273.533
273.246
273.109
273.048
273.025
273.533
273.245
273.108
273.048
273.025
273.542
273.248
273.11
273.048
273.025
273.54
273.247
273.109
273.048
273.025
273.55
273.251
273.11
273.049
273.026
273.548
273.25
273.11
273.048
273.026
273.554
273.252
273.111
273.049
273.026
497.536
492.161
497.96
492.735
499.396
494.494
502.594
497.824
508.551
503.723
518.438
518.688
515.371
513.943
519.755
520.686
520.127
520.959
557.537
569.599
572.201
572.809
572.945
544.254
565.876
571.326
572.608
572.892
557.752
569.655
572.215
572.812
572.946
544.702
566.002
571.351
572.616
572.894
558.173
569.756
572.238
572.818
572.947
545.418
566.181
571.392
572.625