/*--------------------------------*- C++ -*----------------------------------*\
| =========                 |                                                 |
| \\      /  F ield         | OpenFOAM: The Open Source CFD Toolbox           |
|  \\    /   O peration     | Version:  2306                                  |
|   \\  /    A nd           | Website:  www.openfoam.com                      |
|    \\/     M anipulation  |                                                 |
\*---------------------------------------------------------------------------*/
FoamFile
{
    version     2.0;
    format      ascii;
    arch        "LSB;label=32;scalar=64";
    class       volVectorField;
    location    "2.2";
    object      flux;
}
// * * * * * * * * * * * * * * * * * * * * * * * * * * * * * * * * * * * * * //

dimensions      [0 1 -1 1 0 0 0];

internalField   nonuniform List<vector> 
2658
(
(1.00866e-06 9.88106e-07 -8.82468e-06)
(1.47199e-06 5.70917e-07 -8.53018e-06)
(4.7431e-07 1.77785e-07 -6.38844e-06)
(-4.13204e-08 -2.27514e-08 -5.81137e-06)
(-2.10579e-06 -2.07085e-06 -7.19583e-06)
(-1.78063e-06 2.54547e-06 -7.37121e-06)
(1.86e-06 -2.17006e-06 -6.68374e-06)
(1.83574e-06 1.82678e-06 -6.44557e-06)
(-3.46744e-08 -3.29051e-08 -5.80648e-06)
(2.52707e-06 -1.80296e-06 -7.34936e-06)
(-1.7034e-06 5.59146e-07 -7.2986e-06)
(-1.23106e-06 -4.08555e-06 -5.78404e-06)
(8.1551e-07 2.47698e-06 -7.72751e-06)
(9.74254e-07 2.5197e-06 -7.22455e-06)
(7.46396e-07 2.03816e-06 -7.47781e-06)
(-6.86381e-08 2.09413e-06 -7.68968e-06)
(-3.34986e-08 2.29697e-06 -7.38517e-06)
(-9.13144e-09 2.06155e-06 -7.67221e-06)
(-8.20043e-07 2.08641e-06 -7.47073e-06)
(-1.06009e-06 2.48852e-06 -7.13005e-06)
(-1.00448e-06 2.39771e-06 -7.60077e-06)
(-2.336e-06 2.08773e-06 -6.84601e-06)
(-2.79974e-06 6.88966e-07 -7.82972e-06)
(2.10807e-06 -4.75215e-07 -5.99782e-06)
(-8.93292e-07 7.74763e-07 -9.38504e-06)
(-1.10389e-06 2.2952e-06 -7.58532e-06)
(-2.37696e-06 -5.02221e-07 -6.77668e-06)
(-3.4326e-07 1.36531e-07 -7.99894e-06)
(-1.74081e-06 1.87226e-06 -8.16259e-06)
(-1.86862e-06 -9.44924e-11 -6.70628e-06)
(-1.74079e-06 -1.87229e-06 -8.16251e-06)
(-2.37701e-06 5.02231e-07 -6.77668e-06)
(-1.10396e-06 -2.29533e-06 -7.58525e-06)
(-2.79991e-06 -6.8895e-07 -7.82964e-06)
(-8.93241e-07 -7.74734e-07 -9.38504e-06)
(2.10805e-06 4.75274e-07 -5.99774e-06)
(-1.15225e-06 -1.43418e-07 -7.72459e-06)
(5.34512e-07 1.95664e-07 -1.07868e-05)
(-2.3356e-06 -2.08837e-06 -6.84592e-06)
(-1.00477e-06 -2.39786e-06 -7.60096e-06)
(-1.06007e-06 -2.48871e-06 -7.13015e-06)
(-8.19999e-07 -2.08649e-06 -7.47075e-06)
(-9.28991e-09 -2.06139e-06 -7.67214e-06)
(7.17256e-08 1.0344e-06 -1.11435e-05)
(-1.42216e-06 -1.62844e-07 -7.07697e-06)
(1.33003e-06 -8.08327e-08 -6.99797e-06)
(-1.70337e-06 -5.59176e-07 -7.29863e-06)
(-6.33329e-08 1.07672e-06 -1.11331e-05)
(-6.88729e-08 -2.09451e-06 -7.68979e-06)
(7.46418e-07 -2.03819e-06 -7.47787e-06)
(9.74305e-07 -2.51952e-06 -7.22447e-06)
(8.15489e-07 -2.47699e-06 -7.72758e-06)
(2.21428e-06 -2.19446e-06 -6.91707e-06)
(-4.71768e-07 4.55683e-07 -1.1175e-05)
(2.48992e-06 -8.18015e-07 -7.73441e-06)
(2.04613e-06 -7.72769e-07 -7.48875e-06)
(-1.09458e-06 5.32243e-08 -1.1134e-05)
(1.03292e-07 -1.34994e-06 -7.03048e-06)
(-3.88227e-06 -1.27331e-11 -6.04233e-06)
(2.06804e-06 -2.194e-08 -7.68004e-06)
(-1.09451e-06 -5.31897e-08 -1.11341e-05)
(2.04617e-06 7.72737e-07 -7.48883e-06)
(2.48991e-06 8.18065e-07 -7.73448e-06)
(-4.71693e-07 -4.55745e-07 -1.1175e-05)
(5.31868e-07 5.39344e-07 -7.21488e-06)
(-4.09459e-06 -1.1935e-06 -5.79561e-06)
(5.24228e-07 -1.68962e-06 -7.27942e-06)
(-3.53621e-08 -7.52791e-08 -6.56681e-06)
(-1.33365e-06 -2.81905e-06 -7.2927e-06)
(-1.3338e-06 2.81906e-06 -7.29254e-06)
(-5.89736e-08 2.69196e-11 -5.9021e-06)
(1.33805e-06 2.39549e-06 -6.55813e-06)
(-8.52178e-08 -2.54957e-08 -5.08535e-06)
(-1.45319e-06 1.97987e-06 -5.84488e-06)
(2.89555e-08 -6.48969e-09 -4.49089e-06)
(-1.53042e-06 -1.49981e-06 -5.78029e-06)
(1.96188e-06 -1.48701e-06 -5.82884e-06)
(-1.37324e-08 3.8066e-08 -4.48494e-06)
(-1.69254e-06 1.44376e-06 -5.11789e-06)
(1.89189e-06 9.48629e-07 -5.02031e-06)
(-2.25329e-06 -9.95216e-07 -5.82864e-06)
(-4.24744e-08 -6.80532e-08 -5.08342e-06)
(2.40411e-06 1.27755e-06 -6.52529e-06)
(-2.17972e-06 1.91934e-06 -6.70501e-06)
(-5.71624e-08 -4.21798e-08 -5.4722e-06)
(-3.45586e-08 -2.42942e-08 -4.20902e-06)
(-5.59637e-09 7.98475e-10 -3.13951e-06)
(6.69963e-09 1.09233e-08 -2.2593e-06)
(1.02063e-08 1.3608e-08 -1.57259e-06)
(1.02233e-08 1.37286e-08 -1.06923e-06)
(8.25695e-09 1.1318e-08 -7.31718e-07)
(-2.01959e-08 -3.67133e-08 -7.10051e-07)
(1.82167e-08 1.92783e-08 -6.08592e-07)
(-1.24076e-07 9.64788e-08 -5.04221e-07)
(8.37521e-08 -4.22437e-08 -5.44096e-07)
(-1.50932e-08 -1.00502e-07 -5.83661e-07)
(-1.03865e-07 -1.77369e-08 -5.33897e-07)
(5.42746e-10 -1.06469e-07 -8.07192e-07)
(1.04507e-07 -1.91763e-08 -5.3429e-07)
(-8.51695e-08 -4.03299e-08 -5.41904e-07)
(4.60944e-08 -1.16673e-07 -8.11711e-07)
(1.18263e-07 -3.11904e-08 -5.48687e-07)
(1.03531e-07 -1.0181e-07 -5.908e-07)
(8.43983e-08 -5.45281e-08 -6.59749e-07)
(8.78693e-08 -4.54244e-08 -5.57988e-07)
(-1.78478e-07 1.04996e-07 -6.04812e-07)
(-3.43746e-08 -3.7712e-08 -4.32336e-07)
(-2.45837e-08 -7.45638e-10 -7.31538e-07)
(-8.76763e-09 1.39125e-08 -4.71329e-07)
(4.89023e-08 -1.09787e-07 -7.13586e-07)
(1.05003e-07 3.64215e-08 -6.61754e-07)
(4.18378e-08 -4.96933e-08 -5.40783e-07)
(8.3365e-08 -1.9993e-12 -7.42807e-07)
(4.1832e-08 4.96932e-08 -5.40763e-07)
(1.05004e-07 -3.64285e-08 -6.61756e-07)
(4.88984e-08 1.09784e-07 -7.13586e-07)
(8.78743e-08 4.54274e-08 -5.58002e-07)
(-1.78476e-07 -1.04998e-07 -6.04814e-07)
(1.03538e-07 1.01808e-07 -5.90804e-07)
(8.44076e-08 5.45284e-08 -6.59756e-07)
(1.18263e-07 3.1182e-08 -5.48681e-07)
(4.6087e-08 1.16671e-07 -8.11675e-07)
(-8.51739e-08 4.03286e-08 -5.419e-07)
(1.04509e-07 1.91764e-08 -5.3429e-07)
(-1.65672e-07 -8.27543e-08 -5.25007e-07)
(1.66165e-07 -8.01405e-08 -5.27549e-07)
(-1.24071e-07 -9.64833e-08 -5.04203e-07)
(-1.50901e-08 1.0051e-07 -5.8368e-07)
(-1.03867e-07 1.77421e-08 -5.33897e-07)
(8.37484e-08 4.22505e-08 -5.44111e-07)
(-4.69642e-08 1.14433e-07 -8.08775e-07)
(-1.15308e-07 2.92483e-08 -5.42151e-07)
(-7.88763e-08 5.46619e-08 -6.49697e-07)
(-7.17421e-08 4.974e-08 -5.38144e-07)
(-4.57311e-08 1.02287e-07 -7.05291e-07)
(5.13799e-09 -4.62513e-08 -4.98606e-07)
(-2.12897e-08 3.24708e-09 -4.82888e-07)
(-1.24725e-07 5.03757e-09 -5.70336e-07)
(1.01652e-07 -1.05875e-07 -4.93176e-07)
(1.01598e-07 1.05899e-07 -4.93193e-07)
(-2.12822e-08 -3.25753e-09 -4.82872e-07)
(5.11318e-09 4.62546e-08 -4.98607e-07)
(4.82048e-08 -2.75894e-08 -5.51758e-07)
(-5.04029e-08 -2.8726e-08 -5.85107e-07)
(-5.79647e-08 -2.62364e-10 -7.35643e-07)
(-5.02845e-08 2.86317e-08 -5.84832e-07)
(2.77728e-08 5.0511e-11 -6.82295e-07)
(3.58464e-08 5.72893e-11 -6.57707e-07)
(-1.01301e-07 -5.70534e-08 -4.6839e-07)
(-1.05409e-07 5.62335e-08 -4.70731e-07)
(-8.80132e-08 1.24393e-10 -4.45884e-07)
(-1.11545e-07 4.49291e-09 -6.31354e-07)
(-1.09201e-07 3.00497e-08 -6.16916e-07)
(-1.13081e-07 -3.37491e-08 -3.96058e-07)
(-8.75047e-08 1.3503e-07 -5.33317e-07)
(-1.55298e-07 3.13199e-08 -5.03487e-07)
(-1.41207e-07 1.26608e-07 -4.56467e-07)
(-5.96757e-08 1.49892e-07 -5.02057e-07)
(-6.80884e-08 1.58762e-07 -4.72894e-07)
(-4.96063e-08 1.25882e-07 -4.9164e-07)
(3.46743e-10 1.26726e-07 -5.06913e-07)
(8.98641e-11 1.45301e-07 -4.84515e-07)
(-6.28238e-10 1.26649e-07 -5.07253e-07)
(4.76726e-08 1.28091e-07 -4.91791e-07)
(6.77438e-08 1.62336e-07 -4.70791e-07)
(6.08196e-08 1.51357e-07 -4.99973e-07)
(1.43985e-07 1.32322e-07 -4.56087e-07)
(1.7937e-07 4.27185e-08 -5.22795e-07)
(-4.1356e-08 -9.18626e-09 -7.80239e-07)
(1.14455e-07 2.68567e-08 -6.63117e-07)
(-2.94149e-07 -1.89416e-07 -8.6896e-07)
(3.40217e-07 2.5275e-07 -1.07656e-06)
(-4.08591e-07 -2.82609e-07 -1.31045e-06)
(5.01887e-07 3.62591e-07 -1.58988e-06)
(-5.99208e-07 -4.29133e-07 -1.9389e-06)
(7.35125e-07 5.22843e-07 -2.33637e-06)
(-8.6863e-07 -6.34869e-07 -2.80853e-06)
(1.04873e-06 7.35968e-07 -3.33916e-06)
(-1.22305e-06 -9.07074e-07 -3.9393e-06)
(1.45075e-06 1.00014e-06 -4.61052e-06)
(-1.66322e-06 -1.2532e-06 -5.33044e-06)
(1.95311e-06 1.30897e-06 -6.12862e-06)
(-2.18198e-06 -1.68667e-06 -6.95776e-06)
(2.62213e-06 1.65276e-06 -7.63244e-06)
(-2.62294e-06 1.61594e-06 -7.39074e-06)
(2.78712e-06 1.35431e-06 -7.25516e-06)
(-2.87897e-06 1.2861e-06 -7.32428e-06)
(2.527e-06 1.80304e-06 -7.34927e-06)
(-2.1059e-06 2.07079e-06 -7.19576e-06)
(-4.13293e-08 2.27301e-08 -5.81128e-06)
(-1.78052e-06 -2.54553e-06 -7.37129e-06)
(5.24137e-07 1.68963e-06 -7.27932e-06)
(-4.09451e-06 1.1934e-06 -5.79562e-06)
(5.31879e-07 -5.3936e-07 -7.21489e-06)
(-1.23108e-06 4.0855e-06 -5.78406e-06)
(4.86675e-07 -4.98748e-07 -9.43889e-06)
(-5.71702e-08 4.21468e-08 -5.47219e-06)
(-3.45613e-08 2.42738e-08 -4.209e-06)
(-5.61827e-09 -8.07358e-10 -3.1395e-06)
(6.67891e-09 -1.09459e-08 -2.25929e-06)
(1.02164e-08 -1.36282e-08 -1.57258e-06)
(1.02323e-08 -1.37255e-08 -1.06921e-06)
(8.25946e-09 -1.13167e-08 -7.31708e-07)
(-2.01976e-08 3.67134e-08 -7.10057e-07)
(1.82209e-08 -1.92699e-08 -6.08594e-07)
(6.78041e-10 1.26811e-09 -4.13073e-07)
(-4.48125e-08 -4.38767e-08 -4.4635e-07)
(-3.0995e-09 1.59762e-08 -7.0905e-07)
(6.26904e-08 -5.64967e-08 -4.58497e-07)
(6.26885e-08 5.64956e-08 -4.58498e-07)
(-4.48164e-08 4.38809e-08 -4.46354e-07)
(6.81415e-10 -1.27224e-09 -4.1307e-07)
(-3.08681e-09 -1.59805e-08 -7.09052e-07)
(2.05262e-08 -1.6979e-08 -4.26904e-07)
(1.66169e-07 8.01486e-08 -5.2754e-07)
(-1.65681e-07 8.27526e-08 -5.25008e-07)
(1.14271e-08 -1.01639e-07 -5.82632e-07)
(1.27688e-07 9.41694e-08 -5.07982e-07)
(-1.20789e-08 2.25548e-08 -6.10013e-07)
(4.23725e-09 -2.77667e-09 -4.1612e-07)
(-1.8933e-08 -1.52585e-08 -4.2573e-07)
(2.05578e-10 1.46151e-08 -6.21721e-07)
(1.76767e-09 -1.294e-08 -7.07092e-07)
(1.7327e-08 -1.34566e-08 -7.07698e-07)
(1.14692e-08 -6.46299e-13 -7.18392e-07)
(1.73266e-08 1.34543e-08 -7.07693e-07)
(-1.2097e-08 -2.25747e-08 -6.1001e-07)
(-3.43693e-08 3.77104e-08 -4.32329e-07)
(-8.213e-08 -7.18728e-08 -4.65547e-07)
(-2.45794e-08 7.508e-10 -7.3154e-07)
(1.81681e-08 -7.95739e-08 -4.9567e-07)
(1.81688e-08 7.95809e-08 -4.9567e-07)
(-8.21327e-08 7.18754e-08 -4.65544e-07)
(-3.50038e-09 -5.64856e-14 -6.38334e-07)
(5.13805e-08 -4.9978e-08 -4.52283e-07)
(-6.10468e-08 -5.48031e-08 -4.55781e-07)
(-6.10535e-08 5.48075e-08 -4.55774e-07)
(1.04466e-09 -1.52541e-08 -7.08466e-07)
(5.13874e-08 4.99798e-08 -4.52279e-07)
(-1.10404e-09 -7.43851e-09 -5.95878e-07)
(-1.11477e-08 -1.00727e-12 -5.63844e-07)
(-1.46493e-08 -3.96864e-08 -5.53201e-07)
(-1.35194e-08 -1.77596e-08 -5.13509e-07)
(6.05301e-08 5.17519e-08 -5.81775e-07)
(-1.37632e-08 -1.35025e-08 -5.5641e-07)
(-4.49527e-09 4.40874e-12 -5.79093e-07)
(-1.00627e-07 3.11678e-12 -7.97222e-07)
(1.26478e-08 -1.44573e-12 -6.50025e-07)
(-4.14117e-08 -7.76438e-08 -4.77447e-07)
(6.44848e-08 5.49304e-08 -6.79498e-07)
(6.77247e-08 1.5174e-07 -5.03503e-07)
(1.49601e-07 -3.70834e-08 -4.368e-07)
(1.06102e-07 1.20601e-07 -5.32664e-07)
(-2.81255e-07 -1.63078e-07 -5.68053e-07)
(1.87825e-07 1.96657e-07 -8.32327e-07)
(-3.12221e-07 -2.16331e-07 -9.1329e-07)
(-3.12204e-07 2.1632e-07 -9.13287e-07)
(-7.81188e-09 2.84593e-08 -6.54182e-07)
(-3.23528e-07 2.57141e-07 -1.13355e-06)
(6.94314e-09 1.83094e-08 -7.85562e-07)
(3.6769e-07 -3.25365e-07 -1.36981e-06)
(-4.59958e-07 3.84477e-07 -1.67543e-06)
(5.27145e-09 1.02603e-08 -1.15968e-06)
(5.47052e-07 -4.75026e-07 -2.02137e-06)
(-6.70076e-07 5.70079e-07 -2.45133e-06)
(9.18095e-10 1.70006e-09 -1.69051e-06)
(7.94894e-07 -6.83182e-07 -2.9291e-06)
(-9.54691e-07 8.20331e-07 -3.4915e-06)
(-7.20677e-09 -1.25006e-08 -2.39293e-06)
(1.11848e-06 -9.52548e-07 -4.1127e-06)
(-1.31176e-06 1.13986e-06 -4.80524e-06)
(-2.20797e-08 -4.44603e-08 -3.27158e-06)
(1.5285e-06 -1.27994e-06 -5.57296e-06)
(-1.72489e-06 1.5312e-06 -6.37741e-06)
(-4.2177e-08 -1.24551e-07 -4.31145e-06)
(2.08146e-06 -1.65459e-06 -7.23797e-06)
(-2.12032e-06 1.98691e-06 -8.27297e-06)
(-1.1601e-07 -3.4496e-07 -5.66473e-06)
(3.22236e-06 -2.18335e-06 -8.67642e-06)
(5.2361e-07 -1.01291e-06 -5.96731e-06)
(3.74978e-06 -2.25981e-06 -7.61733e-06)
(3.74977e-06 2.25984e-06 -7.6173e-06)
(-3.432e-07 -1.36457e-07 -7.99883e-06)
(8.2591e-07 -6.20589e-07 -8.01157e-06)
(-3.01705e-07 1.1755e-06 -7.219e-06)
(1.192e-06 1.04864e-06 -6.69883e-06)
(6.01647e-08 -1.02238e-11 -9.61049e-06)
(-7.58387e-07 -7.43774e-07 -6.41223e-06)
(-7.58388e-07 7.43782e-07 -6.41229e-06)
(8.23924e-07 7.76716e-07 -6.46269e-06)
(-4.13883e-08 -5.94015e-12 -9.62556e-06)
(-9.72679e-07 -9.3597e-07 -6.54679e-06)
(-9.72666e-07 9.35971e-07 -6.54681e-06)
(2.6002e-07 3.78489e-07 -6.21028e-06)
(-3.10762e-07 -3.94494e-12 -9.48256e-06)
(-1.37063e-06 -2.44011e-06 -7.89227e-06)
(-1.37064e-06 2.44008e-06 -7.89225e-06)
(4.5677e-07 -1.52325e-06 -9.02634e-06)
(1.93707e-06 1.57534e-11 -1.27572e-05)
(4.56782e-07 1.52321e-06 -9.02637e-06)
(7.34271e-07 -1.18855e-06 -9.17043e-06)
(2.11587e-06 7.54546e-07 -1.26094e-05)
(8.89918e-07 1.73885e-06 -9.13601e-06)
(1.21393e-06 1.21051e-06 -1.06163e-05)
(1.58432e-06 1.5807e-06 -9.26919e-06)
(-2.36822e-06 -2.34833e-06 -9.05957e-06)
(-1.3781e-06 1.66732e-06 -7.50625e-06)
(1.36169e-06 2.20662e-07 -8.76781e-06)
(8.85337e-07 1.41067e-07 -1.01385e-05)
(-2.16351e-09 2.24054e-08 -9.48309e-06)
(2.6003e-07 -3.78499e-07 -6.21028e-06)
(-1.56335e-07 -1.37755e-07 -5.92624e-06)
(-4.00601e-07 -3.91081e-07 -9.34985e-06)
(1.65754e-06 -1.34504e-06 -7.53741e-06)
(-1.20809e-06 7.30726e-07 -9.1736e-06)
(7.48274e-07 2.08784e-06 -1.26097e-05)
(1.73875e-06 8.87832e-07 -9.14183e-06)
(9.93816e-07 9.95916e-07 -1.01473e-05)
(-5.25833e-07 -5.12146e-07 -9.23433e-06)
(-7.07857e-07 1.25303e-11 -9.33289e-06)
(-5.25807e-07 5.12176e-07 -9.23428e-06)
(-4.00622e-07 3.91083e-07 -9.34985e-06)
(-1.37806e-06 -1.66733e-06 -7.50623e-06)
(-2.36819e-06 2.34828e-06 -9.0596e-06)
(8.89933e-07 -1.73901e-06 -9.13576e-06)
(2.11594e-06 -7.54651e-07 -1.26095e-05)
(7.34322e-07 1.18852e-06 -9.17035e-06)
(1.3617e-06 -2.20701e-07 -8.76792e-06)
(8.85352e-07 -1.41076e-07 -1.01385e-05)
(9.93943e-07 -9.95813e-07 -1.01473e-05)
(1.73861e-06 -8.87899e-07 -9.1422e-06)
(7.48152e-07 -2.0878e-06 -1.26096e-05)
(-1.2081e-06 -7.30762e-07 -9.17371e-06)
(1.65748e-06 1.34503e-06 -7.53739e-06)
(2.05599e-07 -1.37078e-06 -8.75945e-06)
(1.49971e-06 -5.01093e-07 -9.08624e-06)
(-3.81484e-08 -1.93292e-06 -1.27667e-05)
(-1.56593e-06 -4.41637e-07 -9.03879e-06)
(2.42742e-06 1.26773e-06 -7.91703e-06)
(-3.87544e-08 3.02855e-07 -9.49638e-06)
(-4.33101e-07 -2.94185e-07 -6.2079e-06)
(-2.49988e-06 1.37805e-06 -7.90061e-06)
(-4.59035e-08 -2.75623e-07 -9.05579e-06)
(-2.9272e-07 -3.3373e-07 -9.15416e-06)
(1.72693e-08 7.08989e-09 -5.80616e-06)
(1.4306e-08 -1.45268e-08 -4.4812e-06)
(6.97962e-09 -3.00687e-08 -3.34912e-06)
(4.03332e-09 -3.20675e-08 -2.41314e-06)
(2.34522e-09 -2.8631e-08 -1.68127e-06)
(6.83092e-10 -2.39811e-08 -1.14364e-06)
(-4.72664e-10 -1.88199e-08 -7.82651e-07)
(-6.68162e-09 -2.14694e-08 -7.72467e-07)
(2.96803e-07 -1.78628e-07 -8.46095e-07)
(-3.20979e-07 -1.52121e-07 -8.35327e-07)
(3.23648e-07 -1.37055e-07 -8.38062e-07)
(-2.915e-07 -2.08916e-07 -8.42942e-07)
(3.29767e-07 2.85765e-07 -1.02438e-06)
(-4.20321e-07 -3.19926e-07 -1.25124e-06)
(4.96826e-07 4.14697e-07 -1.51077e-06)
(-6.18091e-07 -4.86631e-07 -1.85234e-06)
(7.34326e-07 5.98597e-07 -2.22198e-06)
(-8.92523e-07 -7.2228e-07 -2.68589e-06)
(1.05475e-06 8.41717e-07 -3.17809e-06)
(-1.25101e-06 -1.03846e-06 -3.77327e-06)
(1.46554e-06 1.14146e-06 -4.38956e-06)
(-1.69242e-06 -1.44377e-06 -5.11791e-06)
(1.96177e-06 1.48711e-06 -5.82873e-06)
(-2.17966e-06 -1.91938e-06 -6.70507e-06)
(-3.46521e-08 3.28395e-08 -5.80639e-06)
(1.83575e-06 -1.82672e-06 -6.44559e-06)
(1.85976e-06 2.17022e-06 -6.68367e-06)
(1.3383e-06 -2.39555e-06 -6.55828e-06)
(-1.05398e-06 2.21029e-06 -5.81951e-06)
(2.81557e-08 -8.7914e-12 -4.58449e-06)
(-1.05378e-06 -2.21027e-06 -5.81957e-06)
(1.00766e-06 1.87619e-06 -5.0391e-06)
(1.39171e-06 -1.68631e-06 -5.10727e-06)
(1.37997e-06 1.36789e-06 -4.95686e-06)
(-1.1417e-06 -1.11855e-06 -4.30934e-06)
(-1.1099e-06 1.47861e-06 -4.39912e-06)
(3.92158e-08 1.00725e-08 -3.33907e-06)
(9.99968e-07 9.88447e-07 -3.67052e-06)
(6.44409e-09 4.61848e-08 -3.33393e-06)
(1.46569e-06 -1.14135e-06 -4.38966e-06)
(-2.25966e-08 -5.17834e-08 -3.87531e-06)
(-1.6795e-06 -7.55639e-07 -4.37541e-06)
(1.63714e-06 -8.64424e-07 -4.35917e-06)
(-3.64919e-09 4.61277e-08 -3.4049e-06)
(-1.39924e-06 7.80443e-07 -3.73646e-06)
(1.29378e-06 8.52773e-07 -3.73385e-06)
(-1.53696e-06 -9.66489e-07 -4.38234e-06)
(-3.51733e-09 -5.73836e-08 -3.87864e-06)
(-1.89114e-06 1.08152e-06 -5.05717e-06)
(-7.16016e-09 3.09646e-08 -4.56979e-06)
(2.1866e-06 -1.11721e-06 -5.78564e-06)
(-2.41942e-06 1.42014e-06 -6.59648e-06)
(-1.28427e-08 -5.58976e-08 -5.88783e-06)
(-2.87898e-06 -1.28608e-06 -7.32426e-06)
(-9.10954e-08 -1.3478e-08 -6.57309e-06)
(1.33003e-06 8.08399e-08 -6.99801e-06)
(-6.33375e-08 -1.07674e-06 -1.11331e-05)
(2.05641e-07 1.37075e-06 -8.75948e-06)
(-2.4999e-06 -1.37809e-06 -7.90055e-06)
(-4.33081e-07 2.94159e-07 -6.20787e-06)
(7.78473e-08 1.00202e-07 -9.17575e-06)
(-3.27472e-08 -1.28165e-08 -6.94902e-06)
(-2.79919e-08 -1.11157e-11 -6.11181e-06)
(-2.38434e-08 2.10184e-08 -5.7312e-06)
(-1.47326e-08 -2.06121e-09 -4.43432e-06)
(-7.45719e-09 -1.93292e-08 -3.31362e-06)
(-3.41458e-09 -2.37354e-08 -2.38689e-06)
(-1.40917e-09 -2.23969e-08 -1.66227e-06)
(-4.87805e-10 -1.93563e-08 -1.13042e-06)
(5.56379e-11 -1.51731e-08 -7.734e-07)
(1.77001e-09 1.29392e-08 -7.07091e-07)
(2.06997e-10 -1.46154e-08 -6.21717e-07)
(-1.89243e-08 1.52571e-08 -4.25732e-07)
(1.03872e-09 1.52439e-08 -7.0846e-07)
(4.23529e-09 2.78109e-09 -4.16112e-07)
(1.27685e-07 -9.41744e-08 -5.07984e-07)
(1.14188e-08 1.01642e-07 -5.82633e-07)
(-5.12577e-09 -6.80867e-08 -8.25518e-07)
(-1.53076e-07 5.12832e-08 -6.29707e-07)
(1.35412e-07 2.96853e-08 -6.2626e-07)
(-1.35638e-07 2.45664e-08 -6.22918e-07)
(1.47763e-07 6.34507e-08 -6.35317e-07)
(-6.1256e-08 4.51066e-08 -5.95755e-07)
(2.80672e-07 -1.28031e-08 -4.62447e-07)
(-7.79931e-08 -1.67037e-07 -6.68118e-07)
(1.98297e-07 2.85364e-07 -8.42641e-07)
(1.59417e-08 -2.72546e-10 -7.686e-07)
(-2.70777e-07 -3.34007e-07 -1.04247e-06)
(-2.72258e-07 2.6978e-07 -9.82556e-07)
(2.4185e-07 -2.20086e-07 -8.21006e-07)
(8.68891e-09 -2.09727e-08 -7.60056e-07)
(-2.92601e-09 4.67434e-09 -8.18232e-07)
(-2.97745e-08 8.02575e-08 -6.59395e-07)
(7.66845e-10 8.14574e-08 -6.62089e-07)
(3.37579e-08 8.08615e-08 -6.59163e-07)
(6.75214e-08 5.08209e-08 -6.44431e-07)
(8.68741e-08 5.73584e-08 -6.21667e-07)
(-3.50048e-09 1.12832e-09 -8.25327e-07)
(1.08208e-08 2.1315e-08 -8.33882e-07)
(3.56876e-08 2.69291e-08 -6.92116e-07)
(2.30037e-09 5.07566e-09 -8.20919e-07)
(-9.55309e-09 -2.65576e-08 -1.20307e-06)
(-7.83477e-09 -1.5533e-09 -1.22537e-06)
(-1.56709e-08 -1.01795e-08 -1.20374e-06)
(-2.6254e-08 -1.99957e-08 -1.76806e-06)
(-2.29044e-08 -1.97635e-08 -1.81316e-06)
(1.08426e-08 1.0986e-08 -1.49595e-06)
(1.3025e-08 1.40022e-08 -1.00582e-06)
(5.49961e-09 1.66138e-08 -9.78308e-07)
(-3.44225e-07 2.47168e-07 -1.0142e-06)
(3.71087e-07 2.17422e-07 -1.01886e-06)
(-4.67335e-07 -2.3579e-07 -1.24032e-06)
(4.70857e-07 -2.05896e-07 -1.24047e-06)
(-2.60715e-09 1.56846e-08 -9.23714e-07)
(-3.76659e-07 1.96533e-07 -1.01377e-06)
(-1.61091e-10 -2.35809e-08 -7.78576e-07)
(1.09717e-10 9.24999e-09 -8.22341e-07)
(3.17326e-10 -2.42789e-08 -1.20367e-06)
(6.75258e-10 -5.57626e-08 -1.78664e-06)
(-1.63085e-08 -5.64472e-08 -1.78423e-06)
(-2.42095e-08 -9.37309e-08 -2.57743e-06)
(-4.29695e-08 -4.17261e-08 -2.61676e-06)
(-4.04864e-08 -3.24759e-08 -2.53916e-06)
(-5.94934e-08 -4.89942e-08 -3.52985e-06)
(-7.35666e-08 -7.6453e-08 -3.6518e-06)
(1.12102e-09 -2.24642e-10 -3.10377e-06)
(8.01623e-09 7.10481e-09 -2.18816e-06)
(8.65906e-09 1.62575e-08 -2.13014e-06)
(-7.71041e-07 5.02668e-07 -2.21143e-06)
(8.24565e-07 4.5717e-07 -2.20834e-06)
(-9.97268e-07 -5.42098e-07 -2.66248e-06)
(1.00353e-06 -4.69054e-07 -2.65386e-06)
(-8.37424e-09 3.18759e-08 -2.00004e-06)
(-8.41258e-07 3.99085e-07 -2.20708e-06)
(6.94236e-07 -3.14393e-07 -1.83331e-06)
(-5.30611e-09 2.35169e-08 -1.36979e-06)
(-5.69213e-07 2.79947e-07 -1.49842e-06)
(-5.33829e-10 -2.73957e-08 -1.14635e-06)
(5.59074e-07 3.17494e-07 -1.50208e-06)
(-6.89373e-07 -3.63204e-07 -1.83683e-06)
(1.84731e-09 2.48135e-08 -1.37312e-06)
(-5.21126e-07 3.50777e-07 -1.50088e-06)
(4.34413e-07 -2.68725e-07 -1.24928e-06)
(1.83119e-09 1.68048e-08 -9.2581e-07)
(4.19029e-10 2.99482e-09 -1.02985e-06)
(-1.02167e-08 -9.57361e-09 -9.86235e-07)
(-3.23488e-07 -2.57103e-07 -1.13355e-06)
(1.05009e-08 3.08691e-09 -6.41704e-07)
(2.45411e-07 2.27137e-07 -9.57224e-07)
(1.0444e-08 -3.12437e-08 -5.63562e-07)
(-2.80258e-07 -1.87342e-07 -7.64098e-07)
(-1.47452e-07 -3.92427e-08 -4.49831e-07)
(5.1675e-08 -1.64074e-08 -5.64929e-07)
(-1.4256e-08 -3.53573e-09 -6.71919e-07)
(-5.72443e-10 6.04269e-09 -6.93812e-07)
(-2.35049e-09 1.66119e-08 -6.58782e-07)
(4.13325e-09 3.07466e-08 -6.80988e-07)
(-5.1833e-09 2.97093e-08 -6.80544e-07)
(5.46249e-09 -6.98128e-08 -8.22462e-07)
(-3.36064e-08 2.80335e-08 -7.09414e-07)
(-5.41511e-08 5.05096e-08 -6.4207e-07)
(-3.50863e-08 3.13298e-08 -6.40207e-07)
(1.09371e-08 3.18891e-09 -8.31967e-07)
(-1.80175e-08 1.48216e-08 -8.17327e-07)
(-1.62407e-08 1.57068e-08 -1.02061e-06)
(-7.0462e-09 1.57526e-08 -9.76815e-07)
(1.04189e-08 -2.68034e-08 -1.19729e-06)
(1.93737e-08 -5.73489e-08 -1.77638e-06)
(3.00208e-08 -9.61962e-08 -2.56933e-06)
(9.38108e-10 -9.55133e-08 -2.58387e-06)
(9.29173e-10 -1.55158e-07 -3.60773e-06)
(-3.50899e-08 -1.4797e-07 -3.5951e-06)
(-5.50108e-08 -2.41627e-07 -4.83842e-06)
(-1.2809e-07 -1.47408e-07 -4.92479e-06)
(-8.54153e-08 -7.28825e-08 -4.73709e-06)
(-1.5825e-07 -1.43931e-07 -6.1174e-06)
(-2.86553e-07 -3.43902e-07 -6.45872e-06)
(-5.88587e-08 -5.15718e-08 -5.61508e-06)
(-1.51621e-08 -1.61829e-08 -4.25212e-06)
(7.20172e-09 5.32831e-09 -4.15998e-06)
(-1.53693e-06 9.66504e-07 -4.38224e-06)
(1.63705e-06 8.6453e-07 -4.35909e-06)
(-1.89119e-06 -1.08147e-06 -5.05718e-06)
(1.89193e-06 -9.48477e-07 -5.02026e-06)
(-2.26624e-08 5.17924e-08 -3.87535e-06)
(-1.6794e-06 7.55675e-07 -4.37537e-06)
(1.40531e-06 -6.77689e-07 -3.71875e-06)
(-1.32231e-08 4.09533e-08 -2.83386e-06)
(-1.20787e-06 5.57491e-07 -3.16103e-06)
(-1.85728e-09 -4.17629e-08 -2.44413e-06)
(1.18119e-06 6.40363e-07 -3.15728e-06)
(-1.39925e-06 -7.80393e-07 -3.73645e-06)
(-3.60362e-10 4.44152e-08 -2.83803e-06)
(-1.10733e-06 7.07211e-07 -3.16685e-06)
(9.25255e-07 -5.95331e-07 -2.66659e-06)
(1.21702e-09 3.39434e-08 -2.00414e-06)
(5.62215e-10 5.8851e-09 -2.21659e-06)
(8.28108e-10 4.39611e-09 -1.52273e-06)
(-1.21862e-08 -1.34911e-08 -1.45446e-06)
(-4.59942e-07 -3.84432e-07 -1.67542e-06)
(5.75287e-09 1.84656e-09 -9.48675e-07)
(3.67699e-07 3.25367e-07 -1.36978e-06)
(6.96176e-09 -1.83129e-08 -7.85561e-07)
(2.62293e-08 -5.93358e-09 -7.99081e-07)
(-4.27242e-07 -3.24568e-07 -1.33501e-06)
(4.8679e-07 4.13128e-07 -1.62541e-06)
(-6.2051e-07 -4.83579e-07 -1.9651e-06)
(-6.20502e-07 4.83594e-07 -1.96506e-06)
(-1.51307e-09 1.06708e-08 -1.39576e-06)
(7.24027e-07 -6.01889e-07 -2.3717e-06)
(8.05709e-09 6.85384e-09 -1.71893e-06)
(-8.93253e-07 7.04379e-07 -2.84037e-06)
(-1.30319e-09 4.40434e-09 -2.00381e-06)
(1.03843e-06 -8.53894e-07 -3.37629e-06)
(-1.33366e-09 8.54181e-09 -2.43079e-06)
(-1.24388e-06 9.91887e-07 -3.97977e-06)
(-1.90595e-10 -9.90156e-09 -2.78559e-06)
(1.43818e-06 -1.16791e-06 -4.64535e-06)
(-2.69905e-08 7.54827e-09 -3.31671e-06)
(-1.64877e-06 1.34608e-06 -5.38503e-06)
(9.49489e-09 -5.23793e-08 -3.73791e-06)
(1.93691e-06 -1.53011e-06 -6.15006e-06)
(-1.13625e-07 -6.62355e-09 -4.35539e-06)
(-2.02731e-06 1.75947e-06 -7.04855e-06)
(6.1967e-08 -2.01043e-07 -4.83272e-06)
(2.6122e-06 -1.86753e-06 -7.70073e-06)
(-4.42454e-07 -1.54323e-07 -5.54938e-06)
(-2.0551e-06 2.11513e-06 -9.0654e-06)
(-2.76075e-07 -3.97343e-11 -7.29468e-06)
(-2.05506e-06 -2.11513e-06 -9.06541e-06)
(5.23601e-07 1.01275e-06 -5.96732e-06)
(3.2224e-06 2.18348e-06 -8.67628e-06)
(-1.15979e-07 3.44817e-07 -5.6647e-06)
(-2.1202e-06 -1.98683e-06 -8.27299e-06)
(-8.82782e-08 -2.19911e-08 -4.82365e-06)
(2.08137e-06 1.65454e-06 -7.23787e-06)
(-4.21603e-08 1.24465e-07 -4.31141e-06)
(-1.72487e-06 -1.53112e-06 -6.37738e-06)
(-4.52475e-08 -6.77652e-09 -3.7564e-06)
(1.52857e-06 1.2801e-06 -5.5729e-06)
(-2.20399e-08 4.43705e-08 -3.27159e-06)
(-1.31156e-06 -1.13973e-06 -4.80526e-06)
(-2.04137e-08 -3.16439e-09 -2.80142e-06)
(1.11854e-06 9.52667e-07 -4.11268e-06)
(-7.16534e-09 1.23865e-08 -2.39289e-06)
(-9.54649e-07 -8.20295e-07 -3.49152e-06)
(-7.70447e-09 -8.96158e-10 -2.01358e-06)
(7.94895e-07 6.8323e-07 -2.92901e-06)
(9.61739e-10 -1.75099e-09 -1.69049e-06)
(-6.70052e-07 -5.7004e-07 -2.45135e-06)
(-4.47746e-11 6.80236e-10 -1.39933e-06)
(5.47059e-07 4.75059e-07 -2.02131e-06)
(5.31023e-09 -1.02508e-08 -1.15966e-06)
(1.52252e-08 -5.58359e-09 -1.17967e-06)
(-2.21418e-08 -2.13642e-08 -1.49617e-06)
(-2.10627e-08 -1.48032e-08 -1.0267e-06)
(-1.82635e-08 -5.53319e-09 -7.29863e-07)
(8.41917e-08 4.08413e-08 -6.04207e-07)
(6.76162e-09 -1.97524e-11 -5.7886e-07)
(-3.70999e-08 -1.06348e-12 -6.40506e-07)
(-5.06132e-08 -3.78777e-11 -8.50895e-07)
(-5.9478e-08 3.31207e-12 -1.21312e-06)
(-7.30735e-08 3.2207e-11 -1.7624e-06)
(-9.10875e-08 5.65327e-11 -2.51859e-06)
(-1.02901e-07 1.11624e-10 -3.49018e-06)
(-7.74264e-08 3.77067e-10 -4.66779e-06)
(3.43979e-08 1.24854e-10 -6.00257e-06)
(1.76249e-07 -3.52007e-11 -7.20178e-06)
(-1.62543e-07 -1.17007e-10 -8.1443e-06)
(-1.33133e-06 6.30303e-07 -8.05228e-06)
(-1.33134e-06 -6.30394e-07 -8.05227e-06)
(-1.37411e-06 -8.78776e-07 -7.51911e-06)
(-1.13473e-06 -8.43811e-07 -8.71952e-06)
(-4.08285e-07 -2.47526e-07 -7.07751e-06)
(-1.49776e-07 -4.54739e-07 -6.32708e-06)
(-6.15502e-07 -1.41722e-06 -8.47725e-06)
(1.00606e-06 4.20002e-06 -5.90662e-06)
(1.6365e-06 -3.82491e-07 -7.12916e-06)
(2.99991e-08 2.91174e-08 -6.57757e-06)
(7.32456e-09 -1.54588e-08 -6.75096e-06)
(9.69878e-08 -2.7041e-08 -6.5543e-06)
(-4.42396e-07 1.54332e-07 -5.54936e-06)
(2.61205e-06 1.86764e-06 -7.70063e-06)
(6.20295e-08 2.00931e-07 -4.83266e-06)
(-2.0273e-06 -1.7594e-06 -7.04855e-06)
(-1.86044e-07 -1.37145e-11 -5.67361e-06)
(-5.951e-08 -1.39419e-11 -5.83586e-06)
(-5.90011e-08 -1.61217e-11 -4.49714e-06)
(9.59483e-09 5.23586e-08 -3.73784e-06)
(-1.64876e-06 -1.34607e-06 -5.38507e-06)
(1.93686e-06 1.53014e-06 -6.14992e-06)
(-1.13624e-07 6.61994e-09 -4.35546e-06)
(-1.30126e-09 -2.04436e-08 -5.33808e-06)
(-1.74042e-08 -2.30523e-08 -4.06866e-06)
(-2.70368e-08 -7.5761e-09 -3.3167e-06)
(1.43799e-06 1.16793e-06 -4.64524e-06)
(-1.33065e-10 9.87448e-09 -2.78557e-06)
(-1.24379e-06 -9.91904e-07 -3.97985e-06)
(-3.33576e-08 1.59124e-11 -3.25174e-06)
(-5.17466e-08 -1.90775e-12 -3.35873e-06)
(-4.22887e-08 -6.89084e-12 -2.42099e-06)
(-3.18413e-08 -1.00078e-11 -1.68913e-06)
(-1.47622e-09 -1.07203e-08 -1.39574e-06)
(7.24019e-07 6.01906e-07 -2.37162e-06)
(-8.93254e-07 -7.04373e-07 -2.84044e-06)
(1.0384e-06 8.53951e-07 -3.3762e-06)
(-1.33067e-09 -8.51562e-09 -2.43073e-06)
(-1.84116e-08 -2.14137e-08 -2.98573e-06)
(-1.54798e-08 -1.76942e-08 -2.11501e-06)
(1.87513e-09 -9.60864e-12 -1.77758e-06)
(1.12443e-09 -5.77152e-12 -1.21043e-06)
(-2.727e-10 1.79075e-12 -8.32736e-07)
(-1.25498e-08 -1.20748e-12 -7.95762e-07)
(-7.80884e-09 -2.84702e-08 -6.54187e-07)
(3.16402e-07 2.82892e-07 -1.11753e-06)
(1.95161e-08 -3.01139e-12 -7.7519e-07)
(3.16426e-07 -2.82899e-07 -1.11753e-06)
(2.62082e-08 5.94249e-09 -7.99078e-07)
(-4.27218e-07 3.24582e-07 -1.335e-06)
(-2.84865e-09 1.63515e-08 -9.51658e-07)
(4.86839e-07 -4.13138e-07 -1.62547e-06)
(1.52458e-08 5.57814e-09 -1.17967e-06)
(-1.21876e-08 1.34809e-08 -1.45446e-06)
(-2.14913e-08 3.66111e-12 -1.1529e-06)
(-2.84045e-09 -1.6386e-08 -9.51635e-07)
(7.13228e-09 8.98024e-12 -1.11553e-06)
(-1.02122e-08 9.56972e-09 -9.86232e-07)
(-1.42522e-08 3.53498e-09 -6.71921e-07)
(-2.8027e-07 1.87348e-07 -7.64095e-07)
(1.04452e-08 3.12236e-08 -5.63568e-07)
(2.45408e-07 -2.27134e-07 -9.57245e-07)
(5.16668e-08 1.64106e-08 -5.64942e-07)
(1.87815e-07 -1.96654e-07 -8.32329e-07)
(-4.14113e-08 7.76515e-08 -4.7744e-07)
(-2.81264e-07 1.63079e-07 -5.6805e-07)
(2.35237e-08 6.68763e-12 -6.03752e-07)
(1.06104e-07 -1.20595e-07 -5.32672e-07)
(1.49602e-07 3.70919e-08 -4.368e-07)
(6.77172e-08 -1.51752e-07 -5.035e-07)
(1.79378e-07 -4.27204e-08 -5.22793e-07)
(6.44871e-08 -5.49264e-08 -6.79509e-07)
(2.29018e-08 -6.16361e-09 -5.39884e-07)
(-5.65015e-08 -3.44575e-08 -5.12473e-07)
(3.16054e-08 -1.78675e-08 -6.02925e-07)
(-1.37658e-08 1.35011e-08 -5.56405e-07)
(-1.46437e-08 3.96828e-08 -5.5319e-07)
(6.05282e-08 -5.17587e-08 -5.8178e-07)
(-1.35272e-08 1.77654e-08 -5.13459e-07)
(9.20597e-09 -5.36594e-08 -5.95962e-07)
(4.30812e-10 3.97296e-08 -5.59213e-07)
(5.2138e-10 -2.03012e-12 -5.74162e-07)
(4.26977e-10 -3.97298e-08 -5.59207e-07)
(1.22921e-10 -1.97586e-08 -5.14012e-07)
(5.40667e-10 1.06466e-07 -8.07176e-07)
(9.20857e-09 5.36605e-08 -5.95974e-07)
(-1.09885e-09 7.44384e-09 -5.95884e-07)
(3.16061e-08 1.78724e-08 -6.02927e-07)
(-8.77423e-09 -1.39102e-08 -4.7133e-07)
(-5.65045e-08 3.44593e-08 -5.12469e-07)
(2.29042e-08 6.16199e-09 -5.39882e-07)
(3.6713e-10 7.64117e-09 -5.96284e-07)
(1.80451e-08 -3.80719e-08 -5.50107e-07)
(1.53914e-08 -1.63665e-08 -5.11412e-07)
(-9.75372e-09 5.35319e-08 -5.97121e-07)
(-5.93739e-08 4.99268e-08 -5.80655e-07)
(1.80225e-08 -1.14898e-08 -5.54303e-07)
(-3.14412e-08 1.29717e-08 -5.89347e-07)
(5.89473e-08 7.24156e-08 -4.45949e-07)
(1.79734e-07 -1.03564e-07 -5.99763e-07)
(-1.0432e-07 9.78552e-08 -5.97509e-07)
(3.55681e-08 -1.35601e-08 -7.94425e-07)
(1.63105e-08 2.11976e-13 -5.60608e-07)
(9.18273e-09 5.66141e-12 -6.33125e-07)
(8.13391e-09 3.8043e-12 -7.04843e-07)
(1.1019e-09 -1.07317e-12 -7.11436e-07)
(-2.15982e-10 3.01179e-13 -6.45065e-07)
(-7.70588e-11 -2.69932e-12 -8.31232e-07)
(-7.17008e-10 -6.33351e-13 -1.20862e-06)
(-1.66143e-09 4.71694e-12 -1.77584e-06)
(-3.80119e-09 -4.33392e-12 -2.54817e-06)
(2.17758e-09 -3.76378e-12 -2.55003e-06)
(2.90017e-09 1.67929e-11 -3.53782e-06)
(6.99272e-09 1.38879e-11 -4.73174e-06)
(1.95414e-08 -7.73114e-12 -6.12366e-06)
(-1.49395e-07 -1.34637e-11 -8.85166e-06)
(-3.92768e-07 1.17007e-12 -8.14273e-06)
(1.60607e-06 -5.19856e-11 -1.21171e-05)
(-3.01698e-07 -1.17556e-06 -7.21896e-06)