/*--------------------------------*- C++ -*----------------------------------*\
| =========                 |                                                 |
| \\      /  F ield         | OpenFOAM: The Open Source CFD Toolbox           |
|  \\    /   O peration     | Version:  2306                                  |
|   \\  /    A nd           | Website:  www.openfoam.com                      |
|    \\/     M anipulation  |                                                 |
\*---------------------------------------------------------------------------*/
FoamFile
{
    version     2.0;
    format      ascii;
    arch        "LSB;label=32;scalar=64";
    class       volScalarField;
    location    "2.2";
    object      gradTz;
}
// * * * * * * * * * * * * * * * * * * * * * * * * * * * * * * * * * * * * * //

dimensions      [0 -1 0 1 0 0 0];

internalField   nonuniform List<scalar> 
2658
(
-0.0754247
-0.0729076
-0.0546021
-0.0496698
-0.0615029
-0.0630018
-0.057126
-0.0550904
-0.049628
-0.062815
-0.0623812
-0.0494362
-0.0660471
-0.0617483
-0.0639129
-0.0657238
-0.0631211
-0.0655745
-0.0638524
-0.0609406
-0.0649639
-0.0585129
-0.0669207
-0.0512635
-0.080214
-0.0648318
-0.0579203
-0.068367
-0.0697657
-0.0573186
-0.0697651
-0.0579204
-0.0648312
-0.06692
-0.080214
-0.0512627
-0.0660222
-0.092195
-0.0585121
-0.0649655
-0.0609414
-0.0638525
-0.0655738
-0.0952436
-0.0604869
-0.0598117
-0.0623815
-0.0951546
-0.0657247
-0.0639134
-0.0617476
-0.0660477
-0.0591202
-0.095513
-0.0661061
-0.0640064
-0.0951621
-0.0600896
-0.0516439
-0.0656414
-0.0951631
-0.0640071
-0.0661066
-0.0955132
-0.0616656
-0.0495352
-0.0622173
-0.0561266
-0.0623307
-0.0623294
-0.0504453
-0.0560524
-0.0434646
-0.0499563
-0.0383837
-0.0494041
-0.0498191
-0.0383328
-0.0437426
-0.0429086
-0.0498175
-0.043448
-0.0557717
-0.0573077
-0.046771
-0.0359745
-0.0268334
-0.0193103
-0.0134409
-0.00913872
-0.006254
-0.00606881
-0.00520164
-0.00430958
-0.0046504
-0.00498855
-0.00456322
-0.00689908
-0.00456659
-0.00463166
-0.0069377
-0.00468963
-0.00504957
-0.00563888
-0.00476912
-0.00516934
-0.00369518
-0.00625246
-0.00402845
-0.00609903
-0.00565601
-0.00462207
-0.00634878
-0.0046219
-0.00565603
-0.00609902
-0.00476924
-0.00516935
-0.0050496
-0.00563894
-0.00468958
-0.00693739
-0.00463163
-0.00456658
-0.00448724
-0.00450897
-0.00430943
-0.00498872
-0.00456322
-0.00465052
-0.0069126
-0.00463377
-0.00555296
-0.00459952
-0.00602813
-0.00426159
-0.00412725
-0.00487467
-0.00421518
-0.00421532
-0.00412711
-0.0042616
-0.00471588
-0.00500091
-0.00628754
-0.00499856
-0.00583158
-0.00562142
-0.00400333
-0.00402334
-0.00381097
-0.00539618
-0.00527278
-0.00338511
-0.00455827
-0.00430331
-0.00390143
-0.00429109
-0.00404183
-0.00420205
-0.00433259
-0.00414115
-0.0043355
-0.00420334
-0.00402386
-0.00427327
-0.00389818
-0.00446833
-0.00666871
-0.00566767
-0.00742701
-0.0092014
-0.0112004
-0.0135887
-0.0165718
-0.019969
-0.0240045
-0.0285398
-0.0336692
-0.0394062
-0.0455593
-0.0523814
-0.059468
-0.0652345
-0.0631687
-0.0620099
-0.0626007
-0.0628143
-0.0615022
-0.0496691
-0.0630025
-0.0622164
-0.0495352
-0.0616657
-0.0494364
-0.0806743
-0.0467709
-0.0359744
-0.0268333
-0.0193102
-0.0134408
-0.00913858
-0.00625391
-0.00606886
-0.00520166
-0.00353054
-0.00381495
-0.00606025
-0.00391878
-0.00391878
-0.00381499
-0.00353051
-0.00606028
-0.00364875
-0.00450889
-0.00448724
-0.00497976
-0.00434173
-0.00521378
-0.00355658
-0.00363872
-0.00531385
-0.00604352
-0.0060487
-0.0061401
-0.00604866
-0.00521376
-0.00369512
-0.00397903
-0.00625248
-0.0042365
-0.00423649
-0.00397901
-0.00545584
-0.00386566
-0.00389557
-0.00389551
-0.00605526
-0.00386563
-0.00509297
-0.00481918
-0.00472822
-0.00438897
-0.00497244
-0.00475564
-0.00494951
-0.00681386
-0.00555577
-0.00408074
-0.00580767
-0.00430344
-0.00373334
-0.00455268
-0.00485516
-0.00711391
-0.0078059
-0.00780587
-0.0055913
-0.00968848
-0.0067142
-0.0117077
-0.0143199
-0.00991177
-0.0172767
-0.0209515
-0.0144488
-0.025035
-0.0298419
-0.0204524
-0.0351513
-0.0410704
-0.0279622
-0.0476321
-0.0545077
-0.03685
-0.061863
-0.0707092
-0.0484165
-0.0741575
-0.0510026
-0.0651054
-0.0651052
-0.068366
-0.068475
-0.0617008
-0.057255
-0.0821409
-0.0548054
-0.0548059
-0.0552367
-0.0822698
-0.0559554
-0.0559556
-0.0530793
-0.0810475
-0.0674553
-0.0674551
-0.0771482
-0.109036
-0.0771484
-0.0783798
-0.107773
-0.0780855
-0.0907378
-0.0792238
-0.0774322
-0.064156
-0.0749385
-0.086654
-0.081052
-0.0530793
-0.0506516
-0.0799133
-0.0644223
-0.0784068
-0.107776
-0.0781353
-0.0867294
-0.0789259
-0.0797683
-0.0789255
-0.0799132
-0.0641559
-0.0774325
-0.0780834
-0.107774
-0.0783791
-0.0749395
-0.0866541
-0.0867292
-0.0781385
-0.107774
-0.0784078
-0.0644221
-0.0748671
-0.0776602
-0.109117
-0.0772547
-0.067667
-0.0811656
-0.053059
-0.0675266
-0.0773999
-0.0782407
-0.0496253
-0.0383008
-0.0286249
-0.0206251
-0.0143698
-0.00977471
-0.00668932
-0.00660228
-0.00723158
-0.00713955
-0.00716292
-0.00720463
-0.00875542
-0.0106944
-0.0129125
-0.0158319
-0.0189913
-0.0229563
-0.0271631
-0.0322502
-0.0375176
-0.0437428
-0.0498182
-0.0573083
-0.0496272
-0.0550905
-0.0571253
-0.0560537
-0.0497394
-0.0391837
-0.0497399
-0.0430693
-0.0436519
-0.0423663
-0.036832
-0.0375993
-0.0285391
-0.031372
-0.0284952
-0.0375185
-0.0331223
-0.0373967
-0.0372579
-0.0291017
-0.0319355
-0.0319133
-0.0374559
-0.0331507
-0.0432237
-0.039058
-0.0494499
-0.0563801
-0.0503233
-0.0626005
-0.0561802
-0.059812
-0.0951548
-0.0748673
-0.067526
-0.0530588
-0.0784253
-0.0593933
-0.0522377
-0.0489846
-0.0379002
-0.0283215
-0.0204008
-0.0142074
-0.00966171
-0.00661026
-0.00604351
-0.00531382
-0.00363873
-0.00605521
-0.00355651
-0.00434174
-0.00497977
-0.00705571
-0.00538211
-0.00535265
-0.00532408
-0.00543006
-0.00509193
-0.00395254
-0.00571041
-0.00720206
-0.00656923
-0.00890999
-0.00839791
-0.00701715
-0.00649621
-0.00699344
-0.00563586
-0.00565888
-0.00563387
-0.00550796
-0.00531339
-0.00705408
-0.00712719
-0.00591552
-0.0070164
-0.0102826
-0.0104733
-0.0102884
-0.0151116
-0.0154971
-0.0127859
-0.00859674
-0.00836161
-0.00866841
-0.00870824
-0.010601
-0.0106023
-0.00789499
-0.0086647
-0.00665449
-0.00702856
-0.0102878
-0.0152704
-0.0152498
-0.0220293
-0.0223655
-0.0217022
-0.0301696
-0.031212
-0.026528
-0.0187023
-0.0182063
-0.0189012
-0.0188747
-0.0227562
-0.0226826
-0.0170944
-0.018864
-0.0156693
-0.0117076
-0.012807
-0.0097979
-0.0128383
-0.0156994
-0.0117361
-0.0128281
-0.0106776
-0.00791291
-0.00880216
-0.00842936
-0.00968848
-0.00548465
-0.0081814
-0.00481677
-0.00653075
-0.00384471
-0.00482845
-0.0057429
-0.00593002
-0.00563061
-0.00582041
-0.00581662
-0.00702959
-0.00606337
-0.00548778
-0.00547186
-0.00711083
-0.0069857
-0.00872319
-0.00834884
-0.0102332
-0.0151827
-0.0219601
-0.0220843
-0.0308353
-0.0307273
-0.041354
-0.0420922
-0.040488
-0.0522855
-0.0552028
-0.0479921
-0.0363429
-0.0355554
-0.037455
-0.0372572
-0.0432238
-0.0429082
-0.0331226
-0.0373964
-0.0317842
-0.0242211
-0.0270174
-0.02089
-0.0269853
-0.0319355
-0.0242567
-0.0270671
-0.0227914
-0.0171294
-0.0189452
-0.0130148
-0.0124313
-0.0143198
-0.00810833
-0.0117075
-0.0067142
-0.00682976
-0.0114103
-0.0138924
-0.0167957
-0.0167954
-0.0119296
-0.020271
-0.0146917
-0.0242767
-0.0171266
-0.0288572
-0.020776
-0.0340151
-0.0238085
-0.0397038
-0.0283479
-0.0460259
-0.031948
-0.0525646
-0.0372255
-0.060244
-0.0413053
-0.0658182
-0.0474306
-0.0774821
-0.0623477
-0.0774821
-0.0510027
-0.0741563
-0.0484162
-0.0707093
-0.0412277
-0.0618621
-0.0368496
-0.0545075
-0.032106
-0.0476316
-0.0279623
-0.0410706
-0.0239438
-0.0351511
-0.020452
-0.029842
-0.0172101
-0.0250343
-0.0144486
-0.0209517
-0.0119601
-0.0172762
-0.00991166
-0.0100826
-0.0127878
-0.00877522
-0.00623815
-0.00516416
-0.00494752
-0.00547441
-0.0072726
-0.0103686
-0.0150633
-0.0215264
-0.0298306
-0.0398957
-0.051304
-0.0615537
-0.0696094
-0.0688229
-0.0688229
-0.0642659
-0.0745258
-0.0604915
-0.0540776
-0.0724551
-0.0504839
-0.060933
-0.0562186
-0.0577005
-0.0560196
-0.0474305
-0.0658173
-0.0413048
-0.060244
-0.0484924
-0.0498791
-0.0384371
-0.0319473
-0.0460262
-0.0525634
-0.0372261
-0.0456246
-0.0347749
-0.0283478
-0.0397029
-0.0238083
-0.0340158
-0.0277926
-0.0287071
-0.0206922
-0.014437
-0.0119294
-0.0202703
-0.0242773
-0.0288564
-0.0207754
-0.025519
-0.018077
-0.015193
-0.0103455
-0.0071174
-0.00680139
-0.00559134
-0.00955152
-0.00662556
-0.00955153
-0.00682973
-0.0114102
-0.00813382
-0.0138929
-0.0100827
-0.0124313
-0.00985386
-0.00813363
-0.00953444
-0.00842934
-0.00574292
-0.00653073
-0.00481682
-0.00818158
-0.00482857
-0.00711392
-0.00408068
-0.00485512
-0.00516027
-0.00455276
-0.00373333
-0.00430342
-0.00446832
-0.00580777
-0.00461439
-0.00438011
-0.0051532
-0.0047556
-0.00472812
-0.00497248
-0.00438854
-0.00509369
-0.0047796
-0.00490736
-0.00477955
-0.00439327
-0.00689894
-0.00509379
-0.00509303
-0.00515322
-0.00402846
-0.00438008
-0.00461438
-0.00509644
-0.00470177
-0.00437104
-0.00510359
-0.00496286
-0.00473763
-0.00503715
-0.00381153
-0.00512618
-0.00510692
-0.00678996
-0.00479152
-0.00541132
-0.0060243
-0.00608065
-0.00551338
-0.00710455
-0.0103301
-0.0151782
-0.0217792
-0.0217951
-0.0302378
-0.0404422
-0.0523389
-0.0756552
-0.069596
-0.103565
-0.0617005
-0.0684763
-0.0934458
-0.0779933
-0.0779913
-0.0934462
-0.0992536
-0.0609203
-0.0797387
-0.0789705
-0.0804569
-0.0515552
-0.0655763
-0.0741642
-0.078991
-0.10819
-0.0791554
-0.0917849
-0.0769638
-0.085542
-0.0780832
-0.0804592
-0.0806405
-0.0864559
-0.103394
-0.080643
-0.0992537
-0.0797401
-0.0609196
-0.0541074
-0.0804565
-0.0655756
-0.0515548
-0.0523767
-0.0811658
-0.0676682
-0.0772535
-0.109116
-0.0776612
-0.0865001
-0.0801069
-0.0804592
-0.0813485
-0.0821358
-0.054107
-0.0813353
-0.0800063
-0.085919
-0.0801085
-0.0778518
-0.0864999
-0.0769831
-0.0810522
-0.0506517
-0.0784252
-0.0593933
-0.0561801
-0.0595968
-0.0542608
-0.0415291
-0.0471644
-0.0499077
-0.0494489
-0.0563811
-0.055771
-0.0434482
-0.0498172
-0.0390572
-0.0472847
-0.0414308
-0.030692
-0.0356019
-0.0258829
-0.0181902
-0.0124042
-0.0124227
-0.0157611
-0.0143766
-0.0129806
-0.012472
-0.00961959
-0.0130055
-0.0158032
-0.0141977
-0.0190515
-0.0184233
-0.0154867
-0.0141587
-0.0223947
-0.0204677
-0.0272186
-0.0264792
-0.0204299
-0.0313718
-0.0285388
-0.0375995
-0.0368318
-0.0284951
-0.0423661
-0.0383835
-0.0499568
-0.0494038
-0.038333
-0.0494459
-0.0543441
-0.0728692
-0.0725468
-0.0631226
-0.0594389
-0.0518953
-0.0630782
-0.0548464
-0.0546021
-0.0417074
-0.0309231
-0.0221469
-0.0153489
-0.0103968
-0.0102564
-0.0124655
-0.0117127
-0.012875
-0.00988651
-0.0128756
-0.0157043
-0.0145594
-0.0189077
-0.0189071
-0.0157048
-0.0141491
-0.00963523
-0.00663144
-0.00607248
-0.00560938
-0.00566083
-0.00551024
-0.00475997
-0.00551071
-0.00736091
-0.0067867
-0.0087632
-0.00876245
-0.00736151
-0.00608009
-0.00766308
-0.00490504
-0.00490467
-0.00425259
-0.00461822
-0.00766326
-0.00571058
-0.00395225
-0.00509193
-0.00701702
-0.00656946
-0.00839847
-0.00890954
-0.00720253
-0.00566088
-0.00607249
-0.00593003
-0.00668937
-0.00548465
-0.00742699
-0.00660225
-0.00866847
-0.00791287
-0.010601
-0.00979817
-0.0128072
-0.0117079
-0.0156693
-0.015832
-0.0141593
-0.0184241
-0.0190514
-0.0141983
-0.0154867
-0.0124726
-0.0130052
-0.00961997
-0.0105045
-0.00957265
-0.0129129
-0.0106943
-0.0106022
-0.00866481
-0.00789518
-0.00875566
-0.00649645
-0.00720465
-0.0071629
-0.00665447
-0.00870832
-0.00713959
-0.00723161
-0.00538211
-0.00563057
-0.00535259
-0.00381527
-0.00532418
-0.00560931
-0.00542992
-0.00357114
-0.00420207
-0.00433259
-0.00702965
-0.00581674
-0.00582044
-0.00591567
-0.00531344
-0.00516424
-0.00623821
-0.00877528
-0.00705394
-0.0102889
-0.0127879
-0.0185196
-0.0151123
-0.0217031
-0.0261034
-0.0261032
-0.0185193
-0.0146914
-0.0355381
-0.0355383
-0.0301704
-0.0404882
-0.0465762
-0.0465749
-0.0577412
-0.0577419
-0.0522852
-0.0642665
-0.0745336
-0.0604913
-0.0652366
-0.0499957
-0.0631684
-0.0562186
-0.0604869
-0.0518952
-0.0774001
-0.0782407
-0.0496255
-0.038301
-0.028625
-0.0206253
-0.0143699
-0.00977475
-0.0081084
-0.0112004
-0.00972893
-0.0128281
-0.0117364
-0.0156993
-0.014488
-0.0188643
-0.0170943
-0.0226828
-0.0229563
-0.0204303
-0.0264795
-0.0272182
-0.020468
-0.0223946
-0.0229276
-0.0170992
-0.0227275
-0.020962
-0.0270432
-0.0270431
-0.0227278
-0.0170994
-0.0229269
-0.0182254
-0.0154521
-0.010503
-0.00726577
-0.0055439
-0.0060806
-0.00547082
-0.00455531
-0.0033881
-0.00552123
-0.00602752
-0.00460024
-0.00555334
-0.00510671
-0.00463393
-0.00691254
-0.0040416
-0.00429099
-0.00678958
-0.00390135
-0.00430325
-0.00548714
-0.0056357
-0.00565866
-0.00563375
-0.00402381
-0.00420339
-0.00705567
-0.0043355
-0.00414137
-0.00366615
-0.00566769
-0.00384474
-0.00666872
-0.00427333
-0.003898
-0.0055075
-0.00701641
-0.00712721
-0.00859701
-0.00920153
-0.00836183
-0.0106778
-0.0102829
-0.010474
-0.0127861
-0.0135891
-0.0165719
-0.0143765
-0.0189015
-0.0171294
-0.0227917
-0.0227563
-0.0208905
-0.0270177
-0.0242205
-0.0317848
-0.0322501
-0.0271638
-0.025883
-0.0258825
-0.0270676
-0.0242569
-0.0269859
-0.0204008
-0.0142076
-0.0096618
-0.0066103
-0.00880218
-0.0130148
-0.0189452
-0.0180771
-0.0255191
-0.0267578
-0.0267578
-0.0364609
-0.03315
-0.0430616
-0.0387194
-0.047741
-0.0434575
-0.0559972
-0.0499952
-0.0491204
-0.0375084
-0.0275057
-0.0194607
-0.0133605
-0.00902975
-0.00791123
-0.0106596
-0.0106588
-0.0106583
-0.0106604
-0.00791111
-0.00902978
-0.0133606
-0.0117129
-0.0158038
-0.012466
-0.00846407
-0.00711081
-0.0103969
-0.0153494
-0.0182257
-0.0190309
-0.0129809
-0.0124047
-0.012423
-0.0157613
-0.0152499
-0.0154977
-0.0187028
-0.0199695
-0.0240046
-0.0207171
-0.0285404
-0.033669
-0.0288489
-0.0394075
-0.0455596
-0.0387204
-0.0499086
-0.0434575
-0.0559977
-0.0594682
-0.0412281
-0.0523821
-0.0321062
-0.0479931
-0.0363433
-0.0265283
-0.022367
-0.0220299
-0.0307285
-0.0312148
-0.0413558
-0.0420958
-0.0540795
-0.0552005
-0.0724582
-0.0504839
-0.0660219
-0.092196
-0.0769638
-0.0791547
-0.108189
-0.0789915
-0.0741644
-0.0952442
-0.060934
-0.0594394
-0.062011
-0.0489847
-0.0379004
-0.0283217
-0.0302168
-0.040399
-0.0477411
-0.0456246
-0.0347749
-0.036461
-0.0375085
-0.0281996
-0.020311
-0.0275057
-0.0194607
-0.024231
-0.0322056
-0.0318659
-0.0291926
-0.037396
-0.0373958
-0.031866
-0.0242309
-0.032205
-0.0259122
-0.0270753
-0.0219939
-0.0190308
-0.0152053
-0.0372416
-0.0307753
-0.035638
-0.0436513
-0.0430696
-0.0331409
-0.0377454
-0.0488011
-0.0772524
-0.0745453
-0.0552368
-0.0777301
-0.0577006
-0.0560198
-0.0813358
-0.0572553
-0.0821353
-0.0800064
-0.0859185
-0.0855413
-0.0789724
-0.091785
-0.078084
-0.0778528
-0.0817544
-0.0806743
-0.0600892
-0.0595771
-0.054572
-0.0473172
-0.0434644
-0.0595767
-0.0729075
-0.0754264
-0.061687
-0.0726727
-0.0656416
-0.0631834
-0.0561264
-0.0418161
-0.0310586
-0.0222675
-0.0259124
-0.0221473
-0.0309226
-0.035638
-0.0331411
-0.0372418
-0.0270756
-0.0219604
-0.0151832
-0.0102335
-0.00699352
-0.00702839
-0.0102879
-0.0152705
-0.018207
-0.0188751
-0.0220848
-0.0308358
-0.0355562
-0.0430616
-0.0471649
-0.0472841
-0.0356029
-0.0306923
-0.0414312
-0.0415305
-0.0542626
-0.0725489
-0.0595961
-0.0543459
-0.0728695
-0.0630789
-0.049446
-0.0473178
-0.0417077
-0.0416308
-0.0548471
-0.0307775
-0.0181905
-0.0189918
-0.00834918
-0.00872343
-0.00606326
-0.00698626
-0.0102571
-0.0152062
-0.0219974
-0.0491204
-0.0416264
-0.023944
-0.0172102
-0.0119605
-0.0128385
-0.00846394
-0.0105046
-0.0095724
-0.00437108
-0.00470184
-0.00509645
-0.00503722
-0.00482486
-0.00473795
-0.00496304
-0.00510363
-0.00439304
-0.00512614
-0.00381118
-0.00487466
-0.00528031
-0.00425241
-0.00461834
-0.00471749
-0.00551885
-0.0258817
-0.0319131
-0.028849
-0.0503222
-0.0523767
-0.07773
-0.0769795
-0.00364871
-0.0036431
-0.0171267
-0.0199951
-0.013941
-0.0373247
-0.0207165
-0.0291014
-0.00972874
-0.0144878
-0.00366624
-0.00381527
-0.00357089
-0.0792237
-0.0907378
-0.0769307
-0.0776187
-0.0769295
-0.0591207
-0.0616878
0.0054876
0.00547176
0.00711069
0.00656928
0.00701709
0.00720197
0.00891007
0.00839783
0.00649614
0.00720469
0.00543002
0.00357091
0.00429123
0.00404196
0.00420216
0.00433268
0.00414136
0.00433556
0.00420346
0.004024
0.00427345
0.00389843
0.00446842
0.00384468
0.00580773
0.0043035
0.00373336
0.00461433
0.00455269
0.00364324
0.00455264
0.00373331
0.00430345
0.00446842
0.00580776
0.0038447
0.00566768
0.00666866
0.00389829
0.00427346
0.00402401
0.00420349
0.00433557
0.00705574
0.00535253
0.00532406
0.00542987
0.00702951
0.0043327
0.00420213
0.00404189
0.00429116
0.00390171
0.00678962
0.00430339
0.00461825
0.00766319
0.00551071
0.00475991
0.00490503
0.00766301
0.00461835
0.00430323
0.00678993
0.00509184
0.00395238
0.00571037
0.00566092
0.00736158
0.00736087
0.00678666
0.00876236
0.00791116
0.0106596
0.00961971
0.0105046
0.0106944
0.00957231
0.0129123
0.0128068
0.0106021
0.00789499
0.00866466
0.00875525
0.0062539
0.00913854
0.0134407
0.0193101
0.0268332
0.0359743
0.0467706
0.0806743
0.0799131
0.0644222
0.0784084
0.0748669
0.0776607
0.109116
0.0772539
0.078991
0.108191
0.0791543
0.0769638
0.0917847
0.0797386
0.0789707
0.054107
0.0813351
0.06092
0.0992535
0.0934455
0.0779932
0.103395
0.0779907
0.0934458
0.0992529
0.0797392
0.0789707
0.0769639
0.0917849
0.0791543
0.108188
0.0789908
0.0772541
0.067667
0.0675265
0.0644219
0.074867
0.0776607
0.0784085
0.107774
0.0781381
0.0907383
0.0780831
0.107773
0.0783796
0.0771478
0.0749395
0.0674552
0.0674553
0.0771481
0.0783799
0.107772
0.0780855
0.0907376
0.0792236
0.0781357
0.107775
0.0617475
0.0660465
0.0955129
0.0591199
0.0661064
0.0616871
0.0640066
0.0656414
0.063183
0.0656414
0.0516439
0.0600894
0.0600896
0.0951621
0.0640064
0.0616863
0.0661065
0.0591215
0.0660475
0.061747
0.063913
0.0657233
0.0631203
0.0655741
0.0638519
0.0609405
0.0649634
0.0585139
0.0669192
0.0921951
0.0660218
0.0652355
0.0594676
0.0523822
0.0455587
0.0394075
0.0336688
0.0285405
0.0240043
0.0199693
0.0165718
0.013589
0.0112004
0.00920151
0.0074269
0.00723163
0.00713948
0.0071629
0.00720452
0.00701695
0.00656934
0.0072025
0.00571048
0.00395234
0.00509187
0.00357114
0.00606883
0.00625396
0.00913865
0.0134408
0.0193102
0.0268333
0.0359742
0.0467707
0.0806742
0.0799131
0.0506517
0.0530791
0.078425
0.0559556
0.0559552
0.0530791
0.0506516
0.0784251
0.0530587
0.0675259
0.0676674
0.0741642
0.0655752
0.0804565
0.0515549
0.0523767
0.0811656
0.0773999
0.0782406
0.075655
0.0782405
0.0804564
0.0541068
0.0572545
0.0813351
0.0617004
0.0617004
0.0572544
0.0821408
0.0548059
0.0552365
0.0552363
0.0777299
0.0548054
0.0800061
0.081349
0.0804586
0.0780827
0.085542
0.0806408
0.0864562
0.103564
0.0695957
0.0510021
0.0802137
0.0648308
0.0579195
0.0697653
0.0651045
0.0774813
0.0658173
0.0658169
0.0413051
0.0618619
0.0368488
0.0545073
0.0476317
0.0279622
0.0410702
0.035151
0.0204521
0.0298418
0.0250346
0.0144486
0.0209514
0.0172765
0.00991164
0.0143197
0.0117075
0.00671405
0.00968837
0.00818142
0.00481675
0.00653068
0.00408074
0.00485501
0.00485503
0.00461427
0.00438016
0.00423651
0.00397904
0.0054558
0.0038656
0.00386562
0.00389555
0.00551332
0.00391874
0.00391873
0.00381497
0.00541127
0.00421514
0.00421527
0.00412715
0.00583168
0.00499863
0.00500092
0.00552119
0.00602767
0.00460045
0.00555379
0.00463423
0.00691283
0.00465058
0.00430962
0.00520165
0.00381121
0.00512618
0.00510685
0.00496306
0.00510374
0.00456348
0.00689951
0.00456681
0.00448727
0.00531379
0.00364871
0.00450887
0.00498845
0.00604354
0.00604868
0.00668934
0.00977466
0.0143699
0.0206253
0.0286248
0.0383008
0.0496251
0.0499954
0.0631684
0.0620103
0.0626003
0.062814
0.0573081
0.0498178
0.0437426
0.0375176
0.0322499
0.0271635
0.0229561
0.0189915
0.0158318
0.0129127
0.0106942
0.00875559
0.00649633
0.00839816
0.00890943
0.00876318
0.0106582
0.00988633
0.0106589
0.0128748
0.0130054
0.012472
0.0154867
0.0158032
0.0141977
0.0184234
0.0141586
0.0158319
0.0117077
0.0156691
0.0156993
0.0144876
0.0188743
0.0189007
0.0157612
0.011736
0.0128381
0.00979802
0.010601
0.00870814
0.00665431
0.00716291
0.00560928
0.00532399
0.00702953
0.00498863
0.00465054
0.00691277
0.00463393
0.00555319
0.00459962
0.00602816
0.00551875
0.00471758
0.00412724
0.00426154
0.00487461
0.00381152
0.00353054
0.00520168
0.00512614
0.00430949
0.00450893
0.00364874
0.00606026
0.00381493
0.00602429
0.00663141
0.00963515
0.0141491
0.0203109
0.0281996
0.0377454
0.0488008
0.0772524
0.0810474
0.079768
0.0789253
0.0769811
0.0864993
0.0778539
0.109115
0.085918
0.0655765
0.0515549
0.0523763
0.0777298
0.0577004
0.0562183
0.0604869
0.0598114
0.0623813
0.0616658
0.0495355
0.0622166
0.0630021
0.0496695
0.0571252
0.0550905
0.061502
0.0496275
0.0543441
0.0728694
0.0725478
0.0724584
0.0745339
0.0642662
0.0522853
0.0552036
0.0604913
0.0540797
0.0413538
0.0420933
0.0404893
0.0301701
0.0312134
0.0363439
0.0479913
0.047164
0.0559976
0.0563798
0.0494491
0.0498169
0.0434479
0.055771
0.0503228
0.0489844
0.0773998
0.0811653
0.0530588
0.0810521
0.0801086
0.080006
0.0821359
0.0609196
0.068474
0.0683663
0.0688215
0.0696087
0.0615535
0.0513038
0.0398953
0.0298308
0.0215265
0.0150635
0.0103685
0.00727258
0.00547431
0.00494746
0.00516414
0.00516412
0.0053134
0.00705405
0.0102886
0.0151119
0.0217027
0.0223661
0.0265287
0.0307283
0.0220296
0.0152499
0.0154971
0.0187027
0.0182065
0.0227916
0.0227561
0.0188749
0.018864
0.0170942
0.0226826
0.0270174
0.0242206
0.0317844
0.037396
0.0331226
0.0429084
0.039057
0.0432237
0.0372573
0.0331509
0.0430619
0.049907
0.0434574
0.0477408
0.0379
0.0283213
0.0291014
0.0319354
0.0269855
0.0242567
0.0319135
0.037455
0.0288492
0.0355559
0.0415297
0.0542612
0.0594384
0.0609333
0.0952436
0.0741641
0.0504838
0.0595962
0.0951541
0.0630786
0.075425
0.0729077
0.0546028
0.0548533
0.0494444
0.0472835
0.0414306
0.030692
0.0308354
0.0220845
0.0152704
0.0102877
0.0102827
0.0104732
0.0127861
0.0124226
0.0157611
0.0156992
0.0128383
0.0128069
0.0117077
0.0156693
0.0144878
0.0142074
0.0204007
0.0208903
0.0189451
0.0171292
0.0189011
0.0143765
0.018077
0.025035
0.0172103
0.0298418
0.0204524
0.0351519
0.0239437
0.0410704
0.0279628
0.0476327
0.032106
0.0545071
0.0368496
0.0618625
0.041228
0.0707086
0.0484162
0.074156
0.0512627
0.0474306
0.0560195
0.0560195
0.074156
0.0484161
0.0707086
0.0474304
0.0774821
0.051002
0.0651045
0.0623474
0.0697657
0.0579196
0.064831
0.0669196
0.0802138
0.068366
0.0684758
0.0821357
0.0806417
0.08046
0.0855415
0.0780808
0.0859178
0.0801068
0.0817545
0.0822696
0.0745451
0.0522376
0.0523387
0.049879
0.0413051
0.0602432
0.0525644
0.0460256
0.0397041
0.039703
0.0238088
0.0340156
0.0207754
0.0288566
0.0171267
0.0242769
0.0146916
0.0202706
0.0119293
0.0167957
0.0100828
0.0138925
0.00813377
0.0114103
0.00682952
0.00955136
0.00559141
0.00780588
0.00482841
0.00711386
0.00516027
0.00711388
0.00408069
0.00653065
0.00481673
0.00818157
0.00548471
0.00968841
0.00671418
0.0117077
0.0081084
0.0143198
0.00991161
0.0172766
0.0119602
0.0209517
0.0144488
0.0146917
0.0202707
0.0139412
0.0167954
0.0138928
0.0114101
0.00955155
0.00662562
0.0078059
0.00482849
0.00574289
0.00842931
0.00682965
0.00877514
0.012788
0.0185197
0.0261038
0.0355387
0.0465756
0.0577412
0.0577408
0.0688226
0.0642664
0.0522843
0.046575
0.0602441
0.0372256
0.0525633
0.031947
0.0460263
0.0283478
0.0347747
0.0384369
0.0319473
0.0373246
0.028707
0.0238087
0.034015
0.0288573
0.0242767
0.0171267
0.0206922
0.0199954
0.014437
0.0119294
0.00985386
0.00813378
0.00953421
0.00680138
0.0055913
0.00555576
0.0068139
0.0042365
0.00438015
0.00565625
0.00462234
0.00462215
0.00565626
0.00609919
0.0040285
0.00476922
0.00516938
0.00521376
0.00355651
0.00434169
0.00497982
0.00463187
0.00693777
0.00468988
0.00563927
0.00504962
0.00497252
0.00438876
0.00472823
0.00475568
0.00494956
0.00634934
0.00475577
0.00609933
0.00476947
0.00402849
0.00369521
0.00521376
0.00434172
0.00355657
0.00363875
0.00531381
0.0044873
0.00456672
0.00689935
0.00456351
0.00510371
0.00477956
0.0047281
0.00481913
0.0051532
0.00369513
0.00625244
0.005093
0.00509381
0.00477952
0.00439337
0.0049073
0.00509299
0.00515319
0.00397902
0.00625249
0.00574288
0.00711739
0.0103455
0.0151929
0.021795
0.0302377
0.0404421
0.0456244
0.0372263
0.0456243
0.0496252
0.0412282
0.0652351
0.0499951
0.0559973
0.0434574
0.0494484
0.039057
0.042908
0.0331219
0.037396
0.0375173
0.028495
0.0313714
0.0322051
0.0285386
0.0368313
0.0423658
0.0436512
0.038383
0.0494032
0.0383322
0.0437425
0.0498181
0.0498164
0.0557711
0.0434485
0.0573074
0.0496281
0.05509
0.0571252
0.0496691
0.0615021
0.0628143
0.0625998
0.0503226
0.0563802
0.06201
0.0631679
0.0609334
0.0562184
0.0604868
0.051895
0.0598118
0.0561801
0.062381
0.0494362
0.0616657
0.062217
0.0495347
0.0729075
0.0726724
0.0595771
0.0561264
0.0623295
0.0504457
0.0560527
0.056053
0.0434636
0.0499562
0.0383827
0.0436514
0.042366
0.0494028
0.0383327
0.0368316
0.028539
0.0322054
0.0313715
0.0284955
0.0264794
0.0204682
0.0229274
0.0223942
0.02043
0.0219602
0.0151829
0.0102332
0.00699332
0.00702843
0.00701628
0.0071272
0.00859712
0.0083617
0.0106778
0.0106009
0.00870834
0.00866462
0.00789488
0.0106023
0.00979799
0.00966168
0.00661026
0.0066543
0.00593
0.00563059
0.00538202
0.00366625
0.00563371
0.00550749
0.0059155
0.00582026
0.00565866
0.00414156
0.00381528
0.00581663
0.00834884
0.0124044
0.0181902
0.0258828
0.0356022
0.0372422
0.0416305
0.0417077
0.0309214
0.0307748
0.0270755
0.0259117
0.0356376
0.0375989
0.0373955
0.0291928
0.0318657
0.0318658
0.0242307
0.0270431
0.0209615
0.0227274
0.0227274
0.017099
0.0190511
0.0141979
0.0158037
0.0154866
0.018424
0.0141589
0.0190309
0.0219958
0.0221469
0.015349
0.0152026
0.0129808
0.0124657
0.013005
0.00961981
0.0106603
0.0105044
0.0124724
0.00957248
0.00872316
0.0102568
0.0103969
0.00711062
0.00698556
0.00606317
0.00563566
0.0054873
0.0054709
0.0045554
0.00338813
0.0040033
0.00381091
0.00402337
0.00338529
0.00455826
0.00425243
0.0052729
0.00554382
0.00726582
0.00846413
0.007911
0.00902971
0.00880214
0.00791291
0.00866833
0.00660218
0.0130147
0.0117362
0.0128279
0.00972865
0.0124313
0.0100827
0.0124312
0.0180769
0.0255191
0.0286247
0.0383006
0.0321059
0.0523809
0.0387194
0.0430613
0.0331503
0.0372566
0.0291011
0.0317841
0.0242203
0.027017
0.0271629
0.0204298
0.0223943
0.022927
0.0204676
0.026479
0.0272181
0.0242307
0.0270429
0.025912
0.0310581
0.0418158
0.0545718
0.0473162
0.0473174
0.0595758
0.0561264
0.0630014
0.06233
0.0593933
0.0577005
0.0477409
0.0489845
0.0379
0.0403989
0.0364609
0.0347749
0.0283477
0.025519
0.0207757
0.0267577
0.0302167
0.0217792
0.0151781
0.01033
0.00710452
0.00608065
0.0061401
0.00604869
0.00668932
0.00977465
0.0143698
0.0206251
0.01721
0.0285396
0.0207167
0.0227913
0.0171291
0.0227561
0.02089
0.0226825
0.0170942
0.0188637
0.018991
0.0229561
0.0181897
0.018206
0.0187019
0.0217028
0.03017
0.0404886
0.0355379
0.0261033
0.0185194
0.0127878
0.015112
0.0102885
0.00877525
0.00623812
0.00705379
0.00531332
0.00550795
0.00591534
0.00742697
0.0066022
0.00723151
0.00563051
0.00535254
0.00381522
0.00604353
0.00661022
0.00966165
0.0142073
0.0204007
0.0283214
0.0364608
0.0267577
0.0242565
0.0270666
0.026985
0.0319352
0.0319131
0.0336688
0.0288483
0.0394064
0.0239437
0.0455591
0.0363422
0.0479907
0.0594675
0.0604924
0.0660219
0.0504837
0.0649652
0.0585119
0.0921951
0.0745274
0.0724547
0.06094
0.0638523
0.0952435
0.0655738
0.0631226
0.0657245
0.0951542
0.0639133
0.0728688
0.0725465
0.0594397
0.0540775
0.0552028
0.0413533
0.0420945
0.0307268
0.0312127
0.0265275
0.0258812
0.0355554
0.0374545
0.0432237
0.0471636
0.0499073
0.0542601
0.0415288
0.0308346
0.022084
0.0220289
0.0223658
0.0152493
0.0143762
0.0165717
0.0135888
0.00972855
0.0106777
0.00791282
0.00866835
0.00920142
0.00548465
0.0112004
0.00810832
0.00859695
0.0127857
0.0154973
0.0124224
0.0128277
0.0102826
0.0104736
0.00701642
0.00712673
0.00563393
0.00366619
0.00566756
0.00666865
0.0050498
0.00468983
0.00693786
0.0046319
0.00497992
0.00705572
0.00538206
0.00582024
0.00713958
0.00836149
0.00834863
0.0124038
0.01527
0.0102876
0.00702841
0.00565884
0.00581641
0.00699334
0.010233
0.0151826
0.0219597
0.0306916
0.0414304
0.0543437
0.059597
0.063079
0.0546017
0.0417066
0.035638
0.0430692
0.0430691
0.0391834
0.0497385
0.0499556
0.0434642
0.0491202
0.0491201
0.0593933
0.0561801
0.0375082
0.0331403
0.0375082
0.0331401
0.0375989
0.0373955
0.0275054
0.0275056
0.0194606
0.0194606
0.018945
0.0130147
0.0088021
0.00842928
0.00593001
0.00605523
0.00389553
0.00607247
0.0090297
0.0133605
0.0133605
0.0117127
0.0157044
0.014559
0.0157048
0.0117127
0.0124657
0.0154518
0.0182251
0.0189075
0.0189071
0.0190514
0.0170991
0.0182254
0.0222671
0.0221467
0.0309222
0.0270752
0.037241
0.0356014
0.0472834
0.0494443
0.0548521
0.0416298
0.0258821
0.0322498
0.030777
0.0219971
0.0190302
0.0153487
0.0103967
0.010503
0.00846394
0.008723
0.0129807
0.0152044
0.0102566
0.00606329
0.00698553
0.00608013
0.00551017
0.0060805
0.00566086
0.00607244
0.00560923
0.00606024
0.00353052
0.00509639
0.0047018
0.00437086
0.00479149
0.00509641
0.00503713
0.00470176
0.00437045
0.00496301
0.00473754
0.00482482
0.00473806
0.00503722
0.00426162
0.00471594
0.00425262
0.00490461
0.00562135
0.00528046
0.00539614
0.00487467
0.00628728
0.00510716
0.00563585
0.0128755
0.00606884
0.0497388
0.0754248
0.00509384
0.00497248
0.00516945
0.00563938
0.00438885
0.00439323
0.0119601
0.019969
0.024004
0.0512625
0.00623812
0.0951625
0.0749386
0.0641556
0.0774324
0.0867286
0.0789255
0.081052
0.0866536
0.0776186
0.0866533
0.0769311
0.0867283
0.0774324
0.0641559
0.0792233
0.0955127
0.109035
0.0769294
0.0864995
0.0778551
0.0769816
0.027218
0.0258819
0.027067
0.020717
0.0060552
0.00363873
0.0277924
0.0484935
0.0573198
0.038719
0.0518951
0.0494363
0.00390145
)
;

boundaryField
{
    face
    {
        type            calculated;
        value           nonuniform List<scalar> 
154
(
-0.08
-0.08
-0.08
-0.08
-0.08
-0.08
-0.08
-0.08
-0.08
-0.08
-0.08
-0.08
-0.08
-0.08
-0.08
-0.08
-0.08
-0.08
-0.08
-0.08
-0.08
-0.08
-0.08
-0.08
-0.08
-0.08
-0.08
-0.08
-0.08
-0.08
-0.08
-0.08
-0.08
-0.08
-0.08
-0.08
-0.08
-0.08
-0.08
-0.08
-0.08
-0.08
-0.08
-0.08
-0.08
-0.08
-0.08
-0.08
-0.08
-0.08
-0.08
-0.08
-0.08
-0.08
-0.08
-0.08
-0.08
-0.08
-0.08
-0.08
-0.08
-0.08
-0.08
-0.08
-0.08
-0.08
-0.08
-0.08
-0.08
-0.08
-0.08
-0.08
-0.08
-0.08
-0.08
-0.08
-0.08
0.08
0.08
0.08
0.08
0.08
0.08
0.08
0.08
0.08
0.08
0.08
0.08