/*--------------------------------*- C++ -*----------------------------------*\
| =========                 |                                                 |
| \\      /  F ield         | OpenFOAM: The Open Source CFD Toolbox           |
|  \\    /   O peration     | Version:  2306                                  |
|   \\  /    A nd           | Website:  www.openfoam.com                      |
|    \\/     M anipulation  |                                                 |
\*---------------------------------------------------------------------------*/
FoamFile
{
    version     2.0;
    format      ascii;
    arch        "LSB;label=32;scalar=64";
    class       volScalarField;
    location    "2.2";
    object      gradTx;
}
// * * * * * * * * * * * * * * * * * * * * * * * * * * * * * * * * * * * * * //

dimensions      [0 -1 0 1 0 0 0];

internalField   nonuniform List<scalar> 
2658
(
0.00862103
0.0125811
0.00405393
-0.000353165
-0.0179982
-0.0152191
0.0158974
0.0156901
-0.000296363
0.0215989
-0.014559
-0.0105219
0.00697017
0.00832695
0.00637946
-0.00058665
-0.000286313
-7.80465e-05
-0.00700891
-0.00906057
-0.00858532
-0.0199658
-0.0239294
0.0180177
-0.00763497
-0.00943499
-0.0203159
-0.00293385
-0.0148787
-0.0159711
-0.0148786
-0.0203163
-0.00943555
-0.0239309
-0.00763454
0.0180175
-0.00984828
0.00456848
-0.0199624
-0.00858775
-0.0090604
-0.00700854
-7.94009e-05
0.00061304
-0.0121552
0.0113678
-0.0145587
-0.000541307
-0.000588658
0.00637964
0.00832739
0.00696999
0.0189254
-0.0040322
0.0212814
0.0174883
-0.00935535
0.000882836
-0.0331818
0.0176756
-0.00935481
0.0174886
0.0212813
-0.00403156
0.00454588
-0.0349965
0.00448059
-0.000302241
-0.0113987
-0.0114
-0.000504048
0.0114364
-0.000728357
-0.0124204
0.000247483
-0.0130805
0.0167682
-0.000117371
-0.0144662
0.01617
-0.0192589
-0.000363029
0.0205479
-0.0186301
-0.000488568
-0.000295373
-4.78322e-05
5.72618e-05
8.72331e-05
8.73788e-05
7.05722e-05
-0.000172614
0.000155698
-0.00106048
0.00071583
-0.000129001
-0.000887737
4.63886e-06
0.000893219
-0.000727944
0.000393969
0.0010108
0.000884877
0.000721353
0.00075102
-0.00152545
-0.0002938
-0.000210117
-7.4937e-05
0.000417969
0.000897458
0.000357588
0.000712521
0.000357539
0.000897467
0.000417935
0.000751063
-0.00152543
0.000884942
0.000721433
0.0010108
0.000393906
-0.000727982
0.000893238
-0.001416
0.00142021
-0.00106044
-0.000128976
-0.000887749
0.000715799
-0.000401404
-0.000985541
-0.000674157
-0.000613181
-0.000390864
4.39144e-05
-0.000181963
-0.00106603
0.000868822
0.000868363
-0.000181899
4.37024e-05
0.000412007
-0.000430794
-0.000495425
-0.000429782
0.000237374
0.00030638
-0.000865819
-0.000900933
-0.00075225
-0.000953372
-0.000933342
-0.000966506
-0.000747904
-0.00132734
-0.0012069
-0.000510049
-0.000581952
-0.000423985
2.96361e-06
7.68069e-07
-5.36955e-06
0.000407458
0.000579007
0.000519826
0.00123064
0.00153308
-0.00035347
0.000978249
-0.00251409
0.00290784
-0.00349223
0.00428963
-0.00512144
0.00628312
-0.00742419
0.00896352
-0.0104534
0.0123996
-0.0142155
0.0166932
-0.0186494
0.0224113
-0.0224182
0.0238215
-0.0246066
0.0215983
-0.0179991
-0.000353242
-0.0152182
0.0044798
-0.0349958
0.00454598
-0.010522
0.00415961
-0.000488635
-0.000295396
-4.80194e-05
5.70847e-05
8.73199e-05
8.74559e-05
7.05936e-05
-0.000172629
0.000155735
5.79522e-06
-0.000383012
-2.64915e-05
0.000535815
0.000535799
-0.000383046
5.82406e-06
-2.6383e-05
0.000175438
0.00142024
-0.00141607
9.76671e-05
0.00109135
-0.000103238
3.62158e-05
-0.00016182
1.75708e-06
1.51083e-05
0.000148094
9.80278e-05
0.000148091
-0.000103393
-0.000293755
-0.000701965
-0.000210081
0.000155283
0.000155289
-0.000701989
-2.99177e-05
0.00043915
-0.000521768
-0.000521825
8.92872e-06
0.000439209
-9.43625e-06
-9.52799e-05
-0.000125208
-0.000115551
0.000517351
-0.000117634
-3.84211e-05
-0.000860059
0.000108101
-0.000353946
0.000551152
0.000578843
0.00127864
0.000906856
-0.00240389
0.00160534
-0.00266855
-0.00266841
-6.67682e-05
-0.00276519
5.93431e-05
0.00314265
-0.00393126
4.50551e-05
0.00467566
-0.00572714
7.84696e-06
0.00679397
-0.00815975
-6.15963e-05
0.00955968
-0.0112116
-0.000188716
0.0130641
-0.0147426
-0.000360487
0.0177903
-0.0181224
-0.000991541
0.0275415
0.0044753
0.0320494
0.0320493
-0.00293333
0.00705906
-0.00257867
0.0101881
0.000514229
-0.00648194
-0.00648195
0.00704209
-0.000353746
-0.0083135
-0.00831339
0.00222239
-0.00265609
-0.0117148
-0.0117149
0.00390402
0.0165561
0.00390412
0.00627582
0.0180844
0.00760614
0.0103755
0.0135412
-0.0202412
-0.0117786
0.0116384
0.00756699
-1.84915e-05
0.00222248
-0.0013362
-0.00342394
0.014167
-0.0103255
0.0063955
0.0148611
0.00849416
-0.0044943
-0.00605006
-0.00449408
-0.00342412
-0.0117783
-0.0202409
0.00760626
0.0180849
0.00627626
0.0116384
0.00756711
0.00849524
0.0148599
0.00639446
-0.0103257
0.0141665
0.00175725
0.012818
-0.000326054
-0.013384
0.0207472
-0.000331234
-0.00370172
-0.0213665
-0.000392338
-0.00250188
0.000147601
0.000122274
5.96549e-05
3.44728e-05
2.00446e-05
5.8384e-06
-4.03986e-06
-5.71079e-05
0.00253678
-0.00274341
0.00276622
-0.00249146
0.00281852
-0.00359249
0.00424638
-0.00528283
0.00627629
-0.0076284
0.00901495
-0.0106924
0.0125259
-0.0144651
0.0167672
-0.0186296
-0.000296171
0.0156902
0.0158954
0.0114385
-0.00900841
0.000240647
-0.00900664
0.00861249
0.0118949
0.0117946
-0.00975815
-0.00948633
0.000335178
0.00854674
5.50777e-05
0.0125273
-0.000193133
-0.0143547
0.0139926
-3.11896e-05
-0.0119593
0.0110579
-0.0131364
-3.00626e-05
-0.0161636
-6.1198e-05
0.0186888
-0.0206788
-0.000109767
-0.0246067
-0.000778593
0.0113677
-0.000541346
0.00175762
-0.0213667
-0.00370155
0.000665361
-0.000279891
-0.000239247
-0.00020379
-0.00012592
-6.37367e-05
-2.91845e-05
-1.20442e-05
-4.16928e-06
4.75537e-07
1.51283e-05
1.76921e-06
-0.000161746
8.87799e-06
3.6199e-05
0.00109133
9.75966e-05
-4.381e-05
-0.00130834
0.00115737
-0.0011593
0.00126293
-0.000523556
0.00239891
-0.000666607
0.00169485
0.000136254
-0.00231433
-0.00232699
0.00206709
7.42642e-05
-2.50086e-05
-0.000254483
6.55423e-06
0.000288529
0.000577106
0.000742514
-2.99186e-05
9.24853e-05
0.000305022
1.96613e-05
-8.16503e-05
-6.69639e-05
-0.000133939
-0.000224393
-0.000195764
9.2672e-05
0.000111325
4.70052e-05
-0.00294209
0.00317169
-0.00399431
0.00402442
-2.22833e-05
-0.00321931
-1.37685e-06
9.37751e-07
2.71218e-06
5.77143e-06
-0.000139389
-0.000206919
-0.000367261
-0.000346037
-0.00050849
-0.000628774
9.58138e-06
6.85148e-05
7.40091e-05
-0.0065901
0.00704756
-0.00852366
0.00857715
-7.15747e-05
-0.00719024
0.00593364
-4.53514e-05
-0.00486507
-4.56264e-06
0.00477841
-0.00589208
1.5789e-05
-0.00445407
0.00371293
1.56512e-05
3.58145e-06
-8.73224e-05
-0.00276486
8.97516e-05
0.00209753
8.92646e-05
-0.00239537
-0.00126028
0.000441667
-0.000121846
-4.89267e-06
-2.00896e-05
3.53269e-05
-4.43017e-05
4.66879e-05
-0.000287234
-0.00046283
-0.000299883
9.34798e-05
-0.000153996
-0.000138809
-6.02239e-05
8.90506e-05
0.000165588
0.000256588
8.01802e-06
7.94165e-06
-0.000299914
-0.000470178
-0.00109479
-0.000730045
-0.00135257
-0.00244917
-0.000503066
-0.00012959
6.15532e-05
-0.0131361
0.0139919
-0.016164
0.0161703
-0.000193696
-0.0143539
0.0120112
-0.000113018
-0.0103237
-1.58742e-05
0.0100957
-0.0119594
-3.08002e-06
-0.00946435
0.00790817
1.04019e-05
4.80525e-06
7.07784e-06
-0.000104156
-0.00393113
4.91698e-05
0.00314273
5.95022e-05
0.000224182
-0.00365164
0.0041606
-0.0053035
-0.00530343
-1.29322e-05
0.00618827
6.8864e-05
-0.00763464
-1.11384e-05
0.00887549
-1.13988e-05
-0.0106314
-1.62902e-06
0.0122921
-0.000230688
-0.014092
8.11529e-05
0.0165548
-0.000971151
-0.0173274
0.000529632
0.0223265
-0.00378166
-0.017565
-0.00235962
-0.0175646
0.00447523
0.0275419
-0.000991277
-0.0181214
-0.000754515
0.0177895
-0.000360345
-0.0147425
-0.000386731
0.0130647
-0.000188375
-0.0112099
-0.000174476
0.00956017
-6.12422e-05
-0.00815939
-6.58502e-05
0.00679398
8.21999e-06
-0.00572694
-3.82689e-07
0.00467572
4.53866e-05
0.00013013
-0.000189246
-0.000180023
-0.000156098
0.000719587
5.77916e-05
-0.000317093
-0.000432591
-0.000508359
-0.00062456
-0.000778526
-0.000879492
-0.000661764
0.000293999
0.0015064
-0.00138925
-0.0113789
-0.0113789
-0.0117445
-0.00969854
-0.00348962
-0.00128013
-0.0052607
0.00859878
0.0139872
0.000256403
6.26031e-05
0.000828956
-0.00378116
0.0223252
0.000530166
-0.0173273
-0.00159012
-0.000508632
-0.000504283
8.20071e-05
-0.014092
0.0165544
-0.000971141
-1.11219e-05
-0.000148754
-0.000231084
0.0122905
-1.13731e-06
-0.0106307
-0.000285108
-0.000442278
-0.000361442
-0.000272148
-1.26173e-05
0.0061882
-0.00763465
0.00887518
-1.13733e-05
-0.000157364
-0.000132306
1.60267e-05
9.61047e-06
-2.33077e-06
-0.000107263
-6.67422e-05
0.00270429
0.000166804
0.0027045
0.000224002
-0.00365144
-2.43474e-05
0.00416102
0.000130306
-0.000104167
-0.000183687
-2.42773e-05
6.09597e-05
-8.72835e-05
-0.000121813
-0.00239547
8.92752e-05
0.0020975
0.000441597
0.00160526
-0.000353942
-0.00240397
0.000201057
0.000906868
0.00127865
0.000578779
0.00153314
0.000551172
0.000195742
-0.000482919
0.000270131
-0.000117656
-0.00012516
0.000517335
-0.000115617
7.86835e-05
3.68215e-06
4.45624e-06
3.64938e-06
1.05061e-06
4.62108e-06
7.87057e-05
-9.39191e-06
0.000270138
-7.49934e-05
-0.000482944
0.000195762
3.13787e-06
0.000154232
0.00013155
-8.33651e-05
-0.000507469
0.000154039
-0.000268729
0.000503823
0.00153619
-0.000891626
0.000304001
0.000139406
7.84848e-05
6.95206e-05
9.41795e-06
-1.846e-06
-6.58622e-07
-6.12828e-06
-1.42002e-05
-3.24888e-05
1.86118e-05
2.47878e-05
5.97669e-05
0.000167021
-0.00127688
-0.00335699
0.0137271
-0.00257862
0.00705918
-0.0152037
-0.00702426
-0.00702358
-0.0152047
-0.00773295
1.21233e-05
-0.0136697
0.0229813
0.00156337
-0.000943831
-0.0166552
-0.00155786
0.00974403
-0.00732219
-0.0159277
-0.0131392
-0.0136584
-0.00924986
0.000879389
0.00194254
0.000881207
0.000244003
-0.0129199
0.000881634
-0.00773214
-0.01367
1.27863e-05
0.00442234
0.00156388
-0.0166554
-0.000943554
0.00208309
-0.000331138
0.0207475
-0.0133845
-0.000325558
0.0128189
0.00101538
-0.000576911
0.00194318
0.00157038
-0.00433434
0.00442264
0.00308365
0.000173945
-0.00151947
-0.000576316
-0.000190226
0.00101481
-0.00188924
-1.85877e-05
-0.00133609
0.000665363
-0.000279967
-0.000778862
-0.000301526
-6.52756e-05
-6.07494e-06
2.55798e-05
-0.0175377
0.0186888
-0.0206797
0.0205486
-0.000363923
-0.0192583
-6.09781e-05
-0.000276538
0.000629149
0.000390016
-0.00018869
-0.000144327
-0.000111494
-8.52967e-05
6.24008e-05
0.00547814
-8.15755e-05
-0.000108444
-0.00341785
0.000155703
-0.00341481
0.0040139
0.000213654
-0.00495006
-0.00498954
0.00409084
0.00011349
0.00599504
0.000284806
-0.00697613
-0.00709162
0.000106958
0.00854747
0.000334103
-0.009485
-0.0097588
5.54261e-05
0.0117951
0.000247172
-0.0124194
-0.0130822
-0.000116512
0.000822111
0.00141672
0.00461832
-0.000252357
-0.00027817
-0.000136467
-0.000456753
0.00302835
0.00319153
0.00405298
0.00216599
0.00130791
0.000827534
0.000520325
0.000294611
5.93492e-06
-0.000113631
-0.000222396
-0.00245787
0.000195291
-0.00245685
0.00290628
0.000262839
-0.00359224
-0.00359332
0.00290735
0.000143256
0.000113669
7.88655e-05
-3.00107e-05
1.32963e-05
-0.000163968
-0.000214215
0.00219229
-0.000213475
0.00134345
0.000164883
-0.00160966
-0.00161099
0.00134502
-0.000132574
0.000690439
-0.00013729
-0.000138243
0.000990778
-0.000112447
0.000691067
-0.000667456
0.00239963
-0.000523222
0.002067
0.000136186
-0.00232647
-0.00231561
0.00169679
-0.00016387
-3.00013e-05
-4.90885e-06
-4.04832e-06
8.97037e-05
-0.00251414
-5.70217e-05
-0.00294229
1.58e-05
-0.00399458
-4.47801e-06
-0.00486498
-4.53079e-05
0.00593414
-0.00528345
0.000113486
-0.00498915
-0.00495126
0.000213194
0.0040908
-0.00341744
-0.00341569
0.000155256
0.00276967
0.000106763
0.00424705
-0.00359316
0.00402471
-0.00321934
-2.2267e-05
0.00281924
7.42961e-05
-0.00249209
0.00276646
-1.40669e-06
0.00317188
-0.00274357
0.00253678
-0.00130841
-2.00342e-05
0.00115742
1.90896e-05
-0.00115941
1.33409e-05
0.0012634
0.000815559
-0.000423969
3.02914e-06
4.66267e-05
-4.41553e-05
3.53327e-05
0.000304923
0.000742532
0.00071972
-0.000156158
-0.000180039
-2.98315e-05
-0.000134071
-0.000190053
-0.000231237
-0.000224482
-0.000345855
-0.00028965
-0.000287884
-0.000230299
6.85687e-05
-0.000272815
-0.000276237
-0.000507739
-0.000730393
6.20833e-06
1.08143e-05
0.000429927
0.000429512
-0.00135437
-0.0117454
-0.00970726
-0.00349357
0.0224111
0.000114413
-0.0224176
0.000256535
-0.0121549
-0.000456709
-0.000392282
-0.00250184
0.000147743
0.000122242
5.98028e-05
3.44217e-05
2.00502e-05
5.84275e-06
4.91584e-05
-0.00349234
-7.88466e-05
-0.00445413
1.57353e-05
-0.00589234
-7.96814e-06
-0.0071906
-7.14775e-05
0.00857748
-0.00762917
0.000106646
-0.00709116
-0.00697763
0.000284801
0.00599452
0.00594451
-0.000304256
0.00430127
0.000335783
-0.00506695
-0.00506807
0.00430241
-0.000304089
0.00594334
-0.000124318
0.000533304
0.000305619
0.000138575
0.000403103
-0.000132502
-0.000300151
-0.000747094
-0.000971566
-0.000722804
-0.000390773
-0.00061339
-0.000674423
-0.00089137
-0.000985691
-0.000401433
-0.000581894
-0.000510069
0.00030438
-0.00120713
-0.00132781
-0.000462897
-0.000254594
6.5451e-06
0.000288404
0.000578953
0.000407417
-4.39112e-05
-5.28625e-06
6.05098e-07
-0.000669056
0.000978305
-0.0012603
-0.000353556
0.000520018
0.00123041
0.000576753
1.98599e-05
9.23053e-05
0.000111157
0.00290788
4.70532e-05
0.003713
-8.17775e-05
-6.63145e-05
9.22116e-05
0.0042895
-0.00512209
-8.1375e-05
-0.00659085
1.05378e-05
0.00790805
-0.00852383
-1.58642e-05
-0.0103242
-0.00011321
0.0120113
-0.0106928
0.00901585
-0.000143824
7.78111e-05
-0.00946483
-3.29916e-06
0.0100962
-2.92268e-05
-1.20858e-05
-4.1635e-06
5.41211e-07
3.63211e-06
7.26099e-06
4.73876e-06
-0.000132151
-0.000157063
-4.22449e-06
-4.13579e-06
-1.64357e-05
-2.99927e-05
0.0148833
3.28554e-05
-9.3656e-06
-5.97447e-05
0.0189343
0.000114336
-0.000332841
-0.000210277
-0.000144189
-0.000101774
-7.06626e-05
-4.36143e-05
-0.000157413
0.0026523
0.00193932
0.00193824
0.00265369
-0.000157362
-4.36017e-05
-7.08027e-05
-0.000222234
0.00401526
-0.000113385
-9.12913e-05
9.37588e-05
0.000294965
0.000520482
-0.000124141
-6.97696e-05
-0.000108046
-8.51641e-05
6.27678e-05
0.00547826
-0.000139877
-0.000194648
6.78965e-05
0.00628325
-0.00742446
-8.35642e-05
0.00896368
-0.0104537
-6.46939e-05
0.0123999
-0.0142163
3.39191e-05
-0.0175379
-5.9563e-05
0.0189329
-0.0186506
-0.000754173
0.0166929
-0.000387401
-0.000502636
-0.000130231
8.9794e-06
-0.00036564
-0.000207581
-0.00030152
-0.000624479
-0.000471348
-0.0010872
-0.0012797
-0.00245445
-0.00526348
0.00859823
-0.00984792
0.00456665
-0.0136587
-0.0159275
-0.00732213
0.00974423
-0.00155822
0.000612702
0.0139867
-0.000135591
0.0238216
-0.000203844
-0.000125927
-6.38987e-05
-6.91879e-05
-0.000135904
-9.64e-06
-1.08992e-05
-0.000148653
-1.66124e-05
-0.000210236
9.53541e-05
0.00015031
-0.000144199
-0.000101666
-0.000402135
0.00854202
0.00618949
0.000373615
-0.00687811
-0.00687922
0.00619081
-0.000402213
0.00854102
-0.000112947
1.74337e-05
0.000319473
-7.06845e-05
0.000144437
0.000247736
0.000639954
-4.22929e-05
0.0118928
0.00861412
-0.000529588
-8.2181e-05
-0.00030636
0.00237604
-0.000147634
0.00704215
-0.000205438
6.26441e-05
0.000829184
0.00308259
0.0101885
-0.00433486
0.000173533
-0.0015193
-0.00924934
0.0229808
-0.0131388
0.000879711
-0.000190463
-0.000910803
0.00415966
0.00088241
0.00183154
0.00422065
0.000113466
-0.000728541
0.00183082
0.0125802
0.00862386
0.0218563
0.0120718
0.0176762
0.0196214
-0.000302355
0.00225694
0.00136073
0.000853397
-0.000112727
0.000827003
0.00130807
-4.1709e-05
-0.000529805
0.000248777
1.74965e-05
0.000256512
0.000165703
8.93419e-05
-2.48386e-05
8.58329e-07
2.50545e-06
5.3682e-06
7.43159e-05
0.00704803
7.38023e-06
7.34708e-06
6.23039e-05
0.0148821
2.5889e-05
-0.000275449
-0.000188137
0.000389604
0.000629055
-6.98047e-06
-6.62176e-05
-0.000251694
-0.000302181
0.00141677
0.00461772
0.00302799
0.000821922
0.000114464
0.00216435
0.00136317
0.00319229
0.000640743
-0.000111424
0.00627713
-6.01414e-05
-0.000138491
-0.000286715
-0.000153579
6.15295e-06
0.000145479
0.000324388
-0.000332678
0.00135635
-0.000175124
-6.60505e-05
-4.04476e-07
0.00477852
-9.13668e-05
0.00276978
0.00010669
0.000131531
0.000154201
3.13869e-06
-0.00026877
0.000193766
0.000153993
-0.000507535
-8.33805e-05
1.15411e-06
0.001536
0.000504173
-0.00106619
-0.00092169
0.000988636
-0.000112906
0.000411616
-0.000721801
7.72383e-05
0.0110578
-6.41312e-05
-0.000109618
0.00208316
-0.000205129
-0.00188976
0.000175417
0.000957321
-1.06389e-05
-0.000134287
-4.06419e-05
-0.000685201
-8.37039e-05
-3.09701e-05
-7.86951e-05
-8.15875e-06
-0.00066907
1.90939e-05
0.00081605
0.0135418
0.0103758
0.000200488
-0.00127038
0.000199974
0.0189257
0.0218573
-0.000462397
-0.000299887
9.3741e-05
0.000136253
0.002067
0.00169504
-0.00231451
-0.00232678
7.4297e-05
-0.00249151
0.00126293
0.000815965
-0.000510209
-0.000582041
-0.000423959
2.91995e-06
7.8826e-07
-5.3483e-06
0.000407563
0.000578938
0.000519847
0.00123087
0.0015331
-0.00126027
0.00055115
0.000578848
0.00127868
0.000195862
0.000906867
0.000957309
0.000906876
0.00127866
0.000578883
0.00153322
0.000551155
-0.00126022
0.000978241
-0.000353505
0.00123066
0.000519956
0.000579057
0.000407492
-5.35595e-06
-4.38218e-05
0.00115746
-0.00115933
0.00126323
4.66019e-05
3.07899e-06
-0.000424032
-0.000582155
-0.000510092
-0.00120732
0.000304126
-0.00132777
-0.000112454
0.000691039
-0.000213563
0.00219226
-0.000137377
0.000690434
-0.000112955
-0.00132731
0.000303974
-0.000523564
0.00239895
-0.00066664
-0.000163961
0.00134479
0.00134347
0.000164748
-0.00161079
-0.000157431
0.0026526
0.000155418
0.00276976
-0.0035928
0.000106878
0.00424638
-0.00486483
0.00402446
-2.22893e-05
-0.00321916
0.00281852
7.05735e-05
8.74089e-05
8.73838e-05
5.74291e-05
-4.77054e-05
-0.000294978
-0.000488143
0.00415985
-0.00342402
0.0141669
-0.0103252
0.00175744
0.0128184
-0.000325925
-0.0133843
0.00974404
-0.00732204
-0.0159272
-0.0136582
-0.0131387
-0.0136699
0.0229809
0.00442231
0.00308342
1.20326e-05
-0.00773325
-0.0152044
-0.00702431
-0.0129201
-0.00702387
-0.0152052
-0.00773306
-0.0136704
0.0229807
-0.0136581
-0.0131391
-0.0159277
-0.00732208
0.00974403
-0.0133845
0.0207472
-0.0213664
0.0141666
0.00175782
0.0128188
-0.0103253
0.00639392
0.0148594
0.0103753
0.00760566
0.018084
0.00627628
0.00390372
0.011638
-0.0117153
-0.011715
0.00390372
0.0062758
0.0180837
0.00760562
0.0103749
0.0135403
0.0148608
0.00639501
0.00832709
0.00696956
-0.0040326
0.018925
0.0212809
0.0218553
0.0174884
0.0176756
0.0196211
0.017676
-0.0331821
0.000882091
0.000882622
-0.00935629
0.0174881
0.0218553
0.021281
0.0189258
0.00696915
0.008327
0.00638
-0.000586466
-0.000286036
-7.80574e-05
-0.00700885
-0.00906059
-0.00858589
-0.0199639
-0.0239291
0.00456727
-0.009848
0.0224108
-0.0186498
0.0166928
-0.0142162
0.0123992
-0.0104536
0.00896313
-0.00742461
0.00628331
-0.0051216
0.00428957
-0.00349239
0.00290788
-0.00251418
0.00253672
-0.00274334
0.00276633
-0.00249184
0.00206684
0.000136025
0.00169653
-0.000667439
0.00239961
-0.000523318
0.000815606
-0.00017264
7.05978e-05
8.7549e-05
8.73193e-05
5.70951e-05
-4.80243e-05
-0.000295362
-0.000488463
0.00415963
-0.00342396
-0.00133625
0.00222234
0.000665198
-0.00831335
-0.00831342
0.00222236
-0.00133616
0.000665333
-0.00370161
-0.0213667
0.0207473
-0.00155805
-0.0166554
0.00156331
-0.000943888
0.0020832
-0.000330978
-0.000392316
-0.00250197
-0.00127699
-0.00250191
0.00156304
0.00442224
0.010188
0.00308356
-0.00257887
-0.00257872
0.0101881
0.000513859
-0.00648202
0.00704202
0.00704195
-0.00020535
-0.006482
0.000173504
0.00157038
0.00194242
0.000879792
-0.00924972
0.000880449
0.000243332
0.0137273
-0.00335731
0.00447499
-0.00763504
-0.00943561
-0.0203175
-0.0148789
0.0320498
-0.0175649
0.0223251
0.0223261
0.000529795
0.0177899
-0.000360227
-0.0147427
0.0130644
-0.000188238
-0.0112102
0.00955987
-6.12537e-05
-0.00815923
0.00679409
8.14138e-06
-0.00572732
0.00467585
4.52579e-05
-0.00393118
0.00314277
5.93119e-05
-0.00276504
0.00209762
8.92941e-05
-0.00239523
-0.000353856
-0.0024038
-0.00240379
0.00019582
-0.000482811
0.000155318
-0.00070194
-2.99431e-05
0.000439206
0.000439152
-0.000521742
-1.8399e-06
0.000535806
0.000535795
-0.000383052
7.84787e-05
0.00086877
0.000868344
-0.000181939
0.000237368
-0.000429771
-0.000430836
-0.000722789
-0.000390801
-0.000613468
-0.000674482
-0.000985737
-0.000401494
0.000715843
-0.00106057
0.000155679
0.000504146
0.001536
-0.000891624
-0.000507565
-8.34009e-05
-0.000887754
4.66851e-06
0.000893215
-0.00141595
1.77214e-06
0.00017542
0.00142021
-0.000129031
1.51143e-05
0.000148123
-4.01541e-06
5.80942e-06
2.00034e-05
3.44764e-05
5.97431e-05
0.000122409
0.000147754
0.000114405
-0.0224182
0.0238216
-0.0246065
0.0215982
-0.0186289
0.0167671
-0.0144644
0.0125253
-0.0106919
0.00901453
-0.00762856
0.00627629
-0.00528312
0.00424674
-0.003593
0.00281909
7.41438e-05
-0.00232644
-0.00231535
-0.00160998
0.00193834
0.000195418
0.00193901
-0.00245744
-0.00341515
-0.00341761
0.00409083
0.00401437
0.000213068
-0.00498933
0.000113795
-0.00528335
-4.51848e-05
0.00593381
-0.0058921
-7.96536e-06
0.00704763
-0.00659007
0.00547811
1.58774e-05
0.00477825
-4.41113e-06
-0.00399432
0.00317167
-1.4089e-06
0.0027663
1.33138e-05
-0.00115932
4.6781e-05
-0.000129024
0.000715847
-0.000401519
-0.000985648
-0.000674368
-0.000613214
-0.000390886
-0.000721741
0.000411585
-0.000181985
4.39557e-05
-0.00106599
0.000503819
5.77789e-06
0.000155714
0.00153613
-0.00106043
0.0014202
0.00017544
-2.64299e-05
-0.000383008
6.95363e-05
7.889e-05
0.000113703
0.000143214
0.000150321
9.53566e-05
-8.19246e-05
-0.000306202
0.00237605
-0.00265634
-0.00605015
-0.00449422
-0.00188972
0.00101513
-0.000190648
-0.000325438
-0.00151926
-0.0166552
-0.000943757
0.00208309
-0.000205096
6.25509e-05
0.000256473
-0.0121553
0.0113679
-0.0145588
0.0045458
-0.0349965
0.0044796
-0.0152185
-0.000352599
0.015896
0.01569
-0.0179992
-0.00029606
0.00141653
0.00461834
-0.000252096
-0.00526235
-0.00970038
-0.0117445
-0.00135192
-0.00245951
-0.0034929
-0.0012796
-0.000471136
-0.00108401
-0.000731844
-0.000509723
-0.000623833
-0.000129941
-0.000502965
2.59194e-05
0.0189332
-0.0206788
0.0186883
-0.0192583
-0.000363732
0.0205483
-0.000109981
-0.000203738
-0.000392422
-0.000331195
-0.00370168
-1.87018e-05
-0.000576486
0.00017388
-0.00433428
1.21209e-05
0.00705913
-0.00293341
-0.0113791
-0.00138849
0.00150725
0.000293835
-0.000662996
-0.000879515
-0.000779237
-0.000624653
-0.000508672
-0.000432501
-0.00031708
5.80244e-05
0.000719651
0.000719682
0.000742493
-2.98268e-05
-0.000134316
-0.000225059
-0.000347056
-0.000364712
9.2329e-06
-0.000300941
-0.00020777
-0.00013996
-0.000193688
6.8216e-05
7.43446e-05
0.00790786
-0.00852383
0.00704746
-0.0071901
-7.15266e-05
0.0085774
-0.0103234
-0.000112941
0.0120111
-0.0143543
-0.000193033
0.0161689
-6.03898e-05
-0.0161633
0.0139922
-3.04118e-05
0.0148828
-0.0175383
-5.97802e-05
-9.37559e-06
-0.000125755
-6.38588e-05
-3.11546e-05
-0.0119591
0.0100954
-2.94756e-06
0.0110573
-0.013136
-6.45038e-05
6.26733e-05
-6.72416e-06
-6.62445e-05
-0.000135998
0.0139867
0.000613
-0.00155806
0.00859769
-0.000301638
-0.000540867
0.00302735
0.00862171
0.0125796
0.0040521
0.00319968
0.000822475
-0.000276545
0.000629372
0.000390058
7.39642e-06
7.7163e-06
5.35934e-06
2.62491e-06
-8.18625e-05
-6.47065e-05
9.25064e-05
6.2782e-05
0.00547813
-0.00589218
0.00477838
-0.00486497
-4.54106e-05
0.00593397
-8.19179e-06
-1.20791e-05
-2.91849e-05
-1.58789e-05
4.78328e-06
1.05756e-05
-0.00659053
-8.16279e-05
-0.000132152
0.00679386
-6.57811e-05
-0.00816011
-6.16765e-05
0.00955987
-0.000173842
-0.0112106
-0.000188688
0.0130637
-0.000386281
-0.0147423
-0.00036146
0.0177897
-0.000754507
-0.0181212
-0.000991426
0.0275413
0.0180169
-0.00378209
0.000829109
0.000829022
0.0275418
-0.000991312
-0.0181212
-0.00378198
-0.0175641
0.00447533
0.0320495
-0.00235907
-0.0148786
-0.0203162
-0.00943517
-0.0239302
-0.00763492
-0.00293322
0.00705916
-0.00433446
0.000880795
0.00194295
-0.00924963
0.000879965
-0.00151944
-0.000576904
-0.00091085
-0.000353808
-0.000147697
-0.000239223
0.000166994
-0.000508908
0.00052981
-0.0173266
0.0165555
-0.0140922
0.012291
0.0122906
-1.03321e-06
-0.0106313
-1.10767e-05
0.00887498
-1.08202e-05
-0.00763464
6.90287e-05
0.00618818
-1.27865e-05
-0.00530395
0.000130305
0.00416094
-2.43474e-05
-0.00365152
0.000224149
0.00270438
-6.67222e-05
-0.00266848
0.000441778
0.00160545
0.000201053
0.00160534
-0.000353882
-0.00239535
8.92497e-05
0.00209759
8.9775e-05
-0.00276502
5.93677e-05
0.00314267
4.93129e-05
-0.00393128
4.51579e-05
0.00467561
-2.86962e-07
-0.00572736
7.8873e-06
6.88859e-05
0.00618809
-4.03533e-05
-0.00530356
0.00416075
-0.00365136
0.00270438
0.000166676
-0.00266845
0.000441585
-0.000121797
-8.72671e-05
0.000224157
-0.000180391
-0.000190178
-0.00023153
-0.000289906
-0.000275298
9.05107e-06
0.000430097
0.000430491
-0.0113788
-0.0117442
-0.0013518
8.072e-06
-0.0173258
-0.000971858
0.0165554
8.16715e-05
-0.0140921
-0.000230901
-0.00014866
-0.000504472
8.12882e-05
-0.000684752
-0.000442167
-1.26021e-06
-0.010631
0.00887526
-0.00763489
-1.10667e-05
-0.00036106
-0.000133343
-0.000271949
-1.29216e-05
-0.000183647
-2.44149e-05
6.12911e-05
-0.00010725
-6.67137e-05
0.000108134
-0.00085986
0.000155329
-0.00048277
0.000897529
0.000357721
0.000357667
0.000897567
0.000418033
-7.49082e-05
0.000751055
-0.00152542
-0.000103367
3.62417e-05
0.00109132
9.75943e-05
-0.000727934
0.000393978
0.00101087
0.000721495
0.000884945
0.000517368
-0.000115562
-0.000125213
-0.000117593
-3.84104e-05
0.000712498
-0.000117649
0.000418015
0.00075113
-7.49489e-05
-0.00029374
-0.000103236
0.00109135
3.62065e-05
-0.000161763
1.73548e-06
-0.00141598
0.000893248
4.61059e-06
-0.000887752
-8.33883e-05
3.6611e-06
-0.000125107
-9.52829e-05
0.000270131
-0.000293787
-0.000210075
-9.38487e-06
7.86752e-05
3.70335e-06
1.15049e-06
4.44961e-06
-9.41223e-06
0.000270166
-0.000701968
-0.000209886
-0.000121842
-2.3209e-06
9.62003e-06
1.60243e-05
1.85744e-05
2.48861e-05
5.96752e-05
-1.11299e-05
-0.000970715
-1.11284e-05
0.000147542
-0.000754108
0.0224113
0.000114148
0.0189339
-5.94993e-05
0.0186889
-6.08221e-05
0.0161703
-0.000193336
-0.014354
0.0125262
5.57636e-05
0.00854664
0.00854142
0.000334311
-0.00975883
0.0117934
0.0118937
0.00024675
-0.0130817
-0.000116012
-0.0144663
0.0167673
-0.0192585
0.020548
-0.000363122
-0.0186301
-0.000295502
0.0156889
0.0158966
-0.00035318
-0.0179986
0.0215991
-0.0246066
-0.00010973
-0.0206791
0.0238217
-0.0224181
0.0139871
0.000256514
-0.0121553
-0.000456687
0.0113681
-0.00077878
-0.0145591
-0.0105214
0.00454575
0.00448047
-0.0349974
0.0125804
0.0120709
0.00183066
-0.000302423
-0.0114008
-0.000503425
0.0114362
0.0114378
-0.00072716
-0.0124183
0.000246935
0.0118923
0.0117949
-0.0130816
-0.00011699
-0.00975885
0.000334731
0.00854093
0.0085473
5.54019e-05
-0.00709156
0.000284726
0.00594313
0.00599492
0.00010683
0.000256814
0.000166009
8.93545e-05
-2.48839e-05
7.54933e-07
1.97857e-05
9.10842e-05
0.00011127
4.7059e-05
0.00371291
-0.00399434
0.00317198
-0.00321941
-2.21333e-05
0.00402466
-4.54616e-06
-4.19765e-06
5.35765e-07
-1.52049e-06
-4.91498e-06
-2.0082e-05
-0.00130837
-0.000669031
0.000288402
0.000576976
0.000304698
3.54439e-05
6.57644e-06
5.58534e-07
1.90899e-05
-4.42746e-05
-6.0139e-05
-8.51783e-05
-0.000111554
-0.000144329
-0.000188759
0.000249704
0.00135974
0.00216355
0.00130735
0.000645761
1.81139e-05
-0.000112858
-4.19929e-05
-0.00948468
-0.00687957
0.000373219
0.00618904
0.00619036
-0.000402255
-0.00506842
0.00033634
0.00430114
0.00430202
-0.000304226
-0.00495032
0.000213474
0.00401443
0.00409118
-0.00498947
0.000113776
-6.92372e-05
0.00032758
0.000826416
0.000520145
0.000145467
-0.00010847
-0.000113541
-0.00341529
0.000155348
0.00265308
0.00276988
-0.00341736
0.000106712
-0.000138666
5.72898e-06
0.000294835
9.37957e-05
-0.00015466
-0.000286984
-0.000254708
-0.000463373
-0.000300049
-0.000747122
-0.000971527
-0.000865805
-0.000752057
-0.000900918
-0.000966421
-0.000747904
0.000988588
-0.000933188
0.00040311
0.000138618
-9.1189e-05
-0.000157456
-4.35443e-05
3.60924e-06
1.57095e-05
-0.00294235
-5.70814e-05
7.22996e-06
1.59082e-05
-0.00445412
-7.86964e-05
-0.000104178
0.000130391
-0.000104116
-0.000132183
-0.000157155
5.96532e-05
0.000122364
-0.000386915
0.0166932
3.29479e-05
0.0148834
-3.01181e-05
0.0139922
-3.14362e-05
0.0120118
-0.000113368
-0.0103236
0.00901524
0.000107149
0.00599445
0.00594372
0.00028441
-0.0070909
-0.00697781
-0.000402494
-0.00506716
-0.000113181
0.0013595
0.00225484
0.00421927
0.000112976
0.000113061
0.00183041
-0.000302299
-0.0152203
-0.0113989
-0.000279884
6.25673e-05
-9.52438e-06
-0.000203803
-0.000125957
-0.000135914
-1.65641e-05
-0.000148524
-0.000231045
-0.000157169
-1.0915e-05
-4.13497e-06
-6.91348e-05
-3.24994e-05
-1.4094e-05
-6.13026e-06
-6.64791e-07
9.42434e-06
9.80224e-05
0.000148163
-4.0314e-06
5.88649e-06
1.99853e-05
3.43612e-05
-6.52294e-05
0.00896274
-8.35219e-05
0.00790837
1.06714e-05
-0.00852392
-1.5913e-05
0.00857731
-7.15685e-05
-0.00719014
0.00627647
-0.00762904
-0.000111902
7.39181e-05
6.85702e-05
-0.00034716
-0.000509671
-0.000730493
-0.00027286
-0.000288293
-0.000230253
-0.000189048
-0.000225403
-0.000134426
-0.000179522
-0.000156038
-2.95981e-05
0.000742587
0.000577613
0.000305072
-0.00251407
-5.70474e-05
0.00253667
-2.00233e-05
0.00115741
1.9079e-05
1.51304e-05
5.11099e-07
-4.20541e-06
-1.20846e-05
-2.93431e-05
-6.37251e-05
-1.64373e-05
-4.21206e-06
-3.21299e-06
-0.00946398
0.0100954
-0.0119596
0.0110583
-0.0104539
-6.47228e-05
0.0123991
-0.000174074
-0.0142164
-0.000128803
-0.000502086
-0.0186502
-0.00349184
-0.00984843
0.00859838
-0.0085878
-0.0199622
0.00456751
-0.0096982
-0.00526169
-0.00906009
-0.00700845
0.000613064
-7.90959e-05
-0.000278015
-0.000588391
-0.000541308
0.00637976
0.00461774
-0.000251466
-0.000135619
-0.00128081
-0.00245791
-0.000470421
-0.00108782
-0.000300201
-0.000625927
1.00235e-05
7.7341e-05
6.1816e-05
-0.0131358
-0.0161638
2.56326e-05
-0.0175379
-6.57901e-05
-5.80971e-06
7.76423e-06
8.1148e-06
-0.000207052
-0.000366274
-0.000139416
-8.17839e-05
-0.00512149
0.00428952
-7.87432e-05
0.00371282