/*--------------------------------*- C++ -*----------------------------------*\
| =========                 |                                                 |
| \\      /  F ield         | OpenFOAM: The Open Source CFD Toolbox           |
|  \\    /   O peration     | Version:  2306                                  |
|   \\  /    A nd           | Website:  www.openfoam.com                      |
|    \\/     M anipulation  |                                                 |
\*---------------------------------------------------------------------------*/
FoamFile
{
    version     2.0;
    format      ascii;
    arch        "LSB;label=32;scalar=64";
    class       volScalarField;
    location    "2.2";
    object      gradTy;
}
// * * * * * * * * * * * * * * * * * * * * * * * * * * * * * * * * * * * * * //

dimensions      [0 -1 0 1 0 0 0];

internalField   nonuniform List<scalar> 
2658
(
0.00844535
0.00487964
0.00151953
-0.000194456
-0.0176996
0.0217562
-0.0185475
0.0156135
-0.00028124
-0.0154099
0.00477902
-0.0349192
0.0211708
0.0215359
0.0174202
0.0178986
0.0196322
0.0176201
0.0178325
0.0212694
0.0204933
0.0178438
0.0058886
-0.00406166
0.0066219
0.0196171
-0.00429248
0.00116693
0.0160022
-8.07628e-07
-0.0160025
0.00429258
-0.0196182
-0.00588846
-0.00662166
0.00406217
-0.00122579
0.00167234
-0.0178493
-0.0204945
-0.021271
-0.0178332
-0.0176187
0.00884106
-0.00139183
-0.000690878
-0.00477928
0.00920275
-0.0179018
-0.0174204
-0.0215344
-0.0211708
-0.018756
0.00389472
-0.00699158
-0.00660486
0.000454908
-0.0115379
-1.0883e-07
-0.000187521
-0.000454613
0.00660459
0.006992
-0.00389525
0.00460978
-0.0102008
-0.0144412
-0.000643411
-0.0240944
0.0240946
2.30082e-07
0.0204743
-0.000217912
0.0169219
-5.54674e-05
-0.0128189
-0.0127095
0.00032535
0.0123398
0.00810794
-0.00850612
-0.000581651
0.0109192
0.0164046
-0.000360511
-0.000207643
6.82457e-06
9.33619e-05
0.000116308
0.000117338
9.67347e-05
-0.000313788
0.000164772
0.000824605
-0.000361057
-0.000858996
-0.000151598
-0.000909992
-0.0001639
-0.0003447
-0.000997202
-0.000266584
-0.000870168
-0.000466052
-0.000388242
0.000897401
-0.000322325
-6.37297e-06
0.000118911
-0.000938352
0.000311295
-0.000424729
-1.7088e-08
0.000424729
-0.000311354
0.000938326
0.000388268
-0.000897418
0.000870153
0.000466055
0.000266513
0.00099719
0.000344689
0.000163901
-0.000707302
-0.000684962
-0.000824644
0.000859064
0.000151642
0.000361115
0.000978056
0.000249986
0.000467196
0.000425129
0.000874252
-0.00039531
2.77528e-05
4.30561e-05
-0.000904917
0.000905119
-2.78422e-05
0.000395339
-0.000235807
-0.000245521
-2.24243e-06
0.000244715
4.31718e-07
4.89652e-07
-0.000487636
0.000480628
1.06319e-06
3.8401e-05
0.000256835
-0.000288454
0.0011541
0.000267691
0.00108212
0.00128113
0.00135694
0.00107591
0.00108313
0.00124189
0.00108247
0.00109479
0.00138749
0.00129365
0.00113096
0.000365115
-7.8515e-05
0.000229544
-0.00161894
0.00216026
-0.00241546
0.00309907
-0.0036678
0.00446874
-0.00542623
0.00629032
-0.00775277
0.00854819
-0.0107111
0.0111878
-0.014416
0.0141262
0.0138115
0.0115753
0.0109923
0.0154106
0.0176991
0.000194275
-0.0217567
0.0144413
0.0102
-0.00460991
0.0349188
-0.0042628
0.000360229
0.000207468
-6.9005e-06
-9.35549e-05
-0.00011648
-0.000117312
-9.67236e-05
0.000313789
-0.0001647
1.08386e-05
-0.000375015
0.000136549
-0.000482878
0.000482869
0.00037505
-1.08738e-05
-0.000136586
-0.00014512
0.000685031
0.000707287
-0.000868706
0.000804867
0.000192776
-2.37323e-05
-0.000130415
0.000124915
-0.000110598
-0.000115014
-5.52392e-09
0.000114994
-0.000192946
0.000322311
-0.000614297
6.41709e-06
-0.000680119
0.000680178
0.000614319
-4.82783e-10
-0.000427163
-0.000468402
0.00046844
-0.000130377
0.000427178
-6.3577e-05
-8.60912e-09
-0.0003392
-0.000151792
0.000442324
-0.000115406
3.76815e-08
2.66392e-08
-1.23567e-08
-0.000663622
0.000469491
0.00129693
-0.000316952
0.00103078
-0.00139383
0.00168083
-0.00184898
0.00184889
0.000243242
0.00219779
0.000156491
-0.0027809
0.00328613
8.7695e-05
-0.00406005
0.00487247
1.45304e-05
-0.00583916
0.00701138
-0.000106842
-0.00814143
0.00974235
-0.000380003
-0.0109396
0.0130872
-0.00106454
-0.0141418
0.0169822
-0.00294838
-0.0186611
-0.00865735
-0.0193146
0.0193149
-0.0011663
-0.00530418
0.010047
0.00896276
-8.73826e-08
-0.00635704
0.00635711
0.0066386
-5.07705e-08
-0.00799974
0.00799975
0.00323495
-3.37175e-08
-0.0208556
0.0208554
-0.0130192
1.34644e-07
0.0130189
-0.0101585
0.00644911
0.014862
0.0103462
0.0135103
-0.0200712
0.0142506
0.001886
0.0012057
0.000191499
-0.00323503
-0.00117739
-0.00334257
-0.0114961
0.00624552
0.0178448
0.0075883
0.0085121
-0.00437732
1.07096e-07
0.00437757
0.00334259
-0.0142507
0.0200708
-0.0148633
-0.00645001
0.0101583
-0.00188634
-0.00120578
-0.00851122
-0.00758888
-0.0178445
-0.00624583
0.011496
-0.0117161
-0.00428285
-0.0165207
-0.00377467
0.0108353
0.0025885
-0.0025144
0.0117782
-0.00235576
-0.00285239
6.05974e-05
-0.00012416
-0.000256998
-0.000274081
-0.00024471
-0.000204967
-0.000160854
-0.000183499
-0.00152674
-0.00130018
-0.00117141
-0.0017856
0.00244244
-0.00273441
0.00354442
-0.00415924
0.00511622
-0.00617334
0.00719416
-0.00887575
0.00975605
-0.0123399
0.0127103
-0.0164049
0.000280679
-0.015613
0.0185489
-0.0204748
0.0188914
-7.51401e-08
-0.0188912
0.0160358
-0.0144129
0.0116913
-0.00956024
0.0126377
8.609e-05
0.00844826
0.000394742
-0.00975509
-0.000442594
-0.00645845
-0.00738824
0.000394253
0.00667045
0.00728866
-0.00826059
-0.000490458
0.00924375
0.000264654
-0.00954881
0.012138
-0.000477757
-0.0109921
-0.000115196
0.000690939
-0.00920293
0.0117158
-0.0117785
0.00251418
0.000856423
-0.000109542
-9.50063e-08
0.000179645
-1.76172e-05
-0.000165207
-0.000202867
-0.000191427
-0.000165439
-0.000129684
0.000110591
-0.000124918
0.000130403
0.00013029
2.377e-05
-0.000804909
0.000868731
-0.000581938
0.000438318
0.00025372
0.00020997
0.000542314
0.000385526
-0.000109428
-0.00142767
0.00243901
-2.32945e-06
-0.00285476
0.00230581
-0.00188108
-0.000179254
3.99516e-05
0.000685961
0.000696217
0.000691124
0.000434367
0.000490243
9.64376e-06
0.00018218
0.000230163
4.33817e-05
-0.000226988
-1.32761e-05
-8.70039e-05
-0.000170903
-0.000168919
9.38975e-05
0.000119677
0.000141998
0.00211254
0.00185831
-0.0020153
-0.00175979
0.000134056
0.00167977
-0.000201546
7.90598e-05
-0.000207512
-0.000476604
-0.000482455
-0.000801119
-0.000356633
-0.000277572
-0.000418754
-0.000653444
-1.92002e-06
6.07249e-05
0.000138953
0.00429631
0.00390744
-0.00463331
-0.00400901
0.000272443
0.00341098
-0.00268712
0.000200999
0.00239271
-0.000234151
0.00271362
-0.00310431
0.000212081
0.00299809
-0.00229679
0.00014363
2.55968e-05
-8.18257e-05
-0.00219746
2.63839e-05
0.00194134
-0.00026704
-0.00160121
-0.000335408
-0.000140235
-3.022e-05
5.16469e-05
0.000141982
0.000262792
0.000253926
-0.000596691
0.000239603
0.000431706
0.000267776
2.72557e-05
0.000126681
0.000134246
0.000134638
-0.000229089
-0.000490161
-0.00082219
-0.000816353
-0.00132614
-0.0012647
-0.00206519
-0.00125989
-0.000622927
-0.00123018
-0.00293933
-0.000440785
-0.000138315
4.55411e-05
0.00826072
0.00738914
-0.00924337
-0.00810664
0.00044267
0.00645876
-0.00579221
0.000350028
0.00476488
-0.000356948
0.00547319
-0.00667003
0.000379617
0.00604454
-0.0050883
0.000290114
5.03e-05
3.75736e-05
-0.000115309
-0.00328574
1.57826e-05
0.00278092
-0.000156521
-5.07144e-05
-0.00277408
0.00353101
-0.00413315
0.00413328
9.12036e-05
-0.00514435
5.85798e-05
0.00602034
3.76439e-05
-0.00729824
7.3007e-05
0.00847766
-8.46287e-05
-0.00998211
6.45152e-05
0.011505
-0.000447686
-0.0130779
-5.66115e-05
0.0150382
-0.00171832
-0.0159618
-0.001319
0.018078
-3.3961e-07
-0.018078
0.00865597
0.0186622
0.00294715
-0.0169815
-0.000187958
0.0141414
0.00106381
-0.0130865
-5.79189e-05
0.010941
0.000379235
-0.00974127
-2.70461e-05
0.00814245
0.000105868
-0.00701107
-7.65947e-06
0.00583957
-1.49657e-05
-0.00487213
5.81398e-06
0.00406033
-8.76137e-05
-4.7723e-05
-0.0001826
-0.000126523
-4.72922e-05
0.000349071
-1.68824e-07
-9.08958e-09
-3.23741e-07
2.83083e-08
2.75273e-07
4.83185e-07
9.54048e-07
3.2228e-06
1.06713e-06
-3.0086e-07
-1.00006e-06
0.00538721
-0.00538799
-0.0075109
-0.00721206
-0.00211561
-0.00388666
-0.012113
0.0358976
-0.00326916
0.000248867
-0.000132126
-0.00023112
0.00131908
0.0159628
0.00171736
-0.0150376
-1.17218e-07
-1.19161e-07
-1.37793e-07
0.000447509
-0.0115048
0.0130781
5.65807e-05
-0.000174732
-0.000197028
-6.4753e-05
0.00998233
8.43973e-05
-0.00847781
1.36004e-07
-1.63056e-08
-5.8896e-08
-8.55372e-08
-9.16265e-05
0.00514449
-0.00602028
0.00729872
-7.27831e-05
-0.000183023
-0.000151233
-8.21251e-08
-4.93292e-08
1.53056e-08
-1.03203e-08
-0.000243335
0.00241788
-2.57384e-08
-0.00241794
5.07905e-05
0.0027742
0.000139756
-0.00353109
4.76764e-05
0.000115222
3.12916e-08
-0.000140052
7.67542e-08
8.17925e-05
3.02135e-05
0.00160127
0.000266869
-0.00194131
0.000140261
-0.0016808
0.000663688
0.00139383
5.71592e-08
-0.00103073
0.000317025
-0.00129703
-0.000365132
-0.000469457
-5.26804e-05
-0.000294509
-0.000152714
0.000115394
0.000339169
-0.000442382
0.000151841
-0.000458627
0.000339569
-1.73514e-08
-0.000339571
-0.000168877
0.000909964
0.000458637
6.36225e-05
0.000152756
-0.00011889
0.000294524
5.26666e-05
6.53092e-05
-0.000325401
-0.000139885
0.000457538
0.000426724
-9.82036e-05
0.00011087
0.000618937
-0.00088516
0.000836369
-0.000115899
1.81176e-09
4.83881e-08
3.25154e-08
-9.17236e-09
2.57418e-09
-2.30711e-08
-5.41326e-09
4.03157e-08
-3.70421e-08
-3.21691e-08
1.43529e-07
1.187e-07
-6.60781e-08
-1.15075e-07
1.00006e-08
-4.44321e-07
-0.0100475
0.00530445
-0.00452683
0.00753044
-0.00753063
0.00452659
-0.0150183
0.00156659
-0.00602448
0.0138808
0.00350773
-0.000325228
0.0130079
-0.011669
-0.0067208
-0.0176546
-0.00568571
-0.00862399
-0.0127209
-0.00721653
0.000693194
0.00625534
0.00192269
-1.65939e-06
2.81345e-07
-0.00192188
0.015018
0.00602433
-0.00156697
0.0047046
-0.00350795
-0.0130084
0.000324892
0.00151993
-0.00258867
-0.0108354
0.00377384
0.0165197
0.00428276
0.00755317
-0.00611957
-0.00625683
9.21875e-07
-0.00230402
-0.00470471
0.000354879
-0.000460378
-0.0073311
0.00611947
0.00121879
-0.00755318
-0.000197218
-0.000191679
0.00117718
-0.000856407
0.000109401
0.000115145
-0.0019667
-0.00423067
-0.00222079
-0.000105895
0.0109668
0.00955054
-0.0121382
-0.0109181
0.00058188
0.00850618
-0.000264731
-0.000185232
-0.00220961
-0.00132474
1.42288e-06
9.13871e-05
0.000120109
0.000130187
0.000143138
-0.0034505
-0.0002564
9.59328e-05
0.00337143
-7.66741e-05
-0.00428387
0.00524941
-0.000104601
-0.00632482
0.00490229
-0.00400899
-0.00026131
-0.00590786
-0.000116155
-0.00908844
0.00695347
-0.000332743
-0.00844777
-8.63302e-05
-0.0126375
0.00955964
-0.000395037
-0.0116911
5.61582e-05
-0.0169228
0.0128179
-0.000326322
-0.00090467
-0.00412638
-0.012454
-0.0124253
-0.0196377
-0.00192456
0.0329487
-0.00308198
-0.00319897
-0.00151946
-0.000687829
-0.00041923
-0.000269317
-0.000168066
-8.27856e-05
-3.40734e-05
6.56027e-05
2.1822e-05
0.00476867
1.84846e-07
-0.00476897
0.00583709
9.99372e-08
-0.00705197
0.00705192
-0.00583703
-3.42944e-08
-3.65283e-08
2.11455e-08
5.25506e-05
0.000132409
-2.75791e-05
0.00123761
4.5632e-07
-0.00123786
0.00259449
1.94648e-07
-0.00315021
0.00314992
-0.00259421
3.38168e-05
0.00034274
-0.000438863
0.000438888
-0.000245554
-0.000121247
-0.00034286
0.00142782
0.000109676
-0.000385766
0.00188165
2.47476e-06
-0.0023062
0.00285484
-0.00243877
2.74077e-05
-5.25314e-05
-5.1652e-05
0.000160799
-2.62635e-05
0.001619
0.00018365
-0.00211245
-0.00014355
0.00201535
0.000234126
-0.00239252
-0.000201017
0.00268817
0.00415905
0.00026151
-0.00490252
0.00632421
0.000104871
0.00400976
-0.00337177
0.00428387
7.66766e-05
0.00267634
0.000210644
-0.00354396
0.00273441
0.00176035
-0.00167996
-0.000133986
-0.00244209
0.00017908
0.00178553
0.00117166
0.000201422
-0.00185819
0.00130024
0.0015269
-0.000438313
-0.000141912
-0.000253573
0.00242753
-0.000210013
-0.000132412
-0.000542154
0.00254364
-0.00107593
-0.0010833
0.000596762
-0.000253872
-0.000262817
-0.000230033
-0.000490282
-0.000349046
4.72198e-05
0.000126768
-9.56583e-06
8.73255e-05
0.000182451
0.000248608
0.000171339
0.000278096
0.000318293
-0.000318886
-0.000248627
-5.85281e-05
-0.000351594
0.000350721
0.000419108
0.000623399
0.000284583
-0.000285677
-0.000346127
0.000346882
0.0012326
0.00751238
0.00721414
0.00211927
-0.0141257
-0.000501366
-0.0138111
-0.000248937
0.00139171
-0.0329488
0.00235559
0.00285207
-6.10445e-05
0.00012382
0.000256489
0.000273811
0.000244505
0.000204877
-1.56813e-05
0.00241573
0.000214903
-0.00299797
-0.000212247
0.0031043
0.000290319
-0.00341077
-0.00027176
0.00401029
0.00617357
0.000332371
-0.00695408
0.0090882
0.000116255
0.00590846
-0.00759974
-3.98583e-05
0.00846168
-1.3798e-08
-0.0101303
0.0101301
-0.00846168
3.9783e-05
0.00760035
8.87773e-05
1.48228e-07
2.79285e-07
7.2853e-08
7.16528e-07
-3.40666e-05
-0.00026867
-0.00115548
0.000291427
0.000175685
-0.000874532
-0.000425438
-0.000467308
-0.000836563
-0.000249965
-0.000978017
-0.00135653
-0.00128099
0.000115422
-0.00108256
-0.000267861
-0.000431564
-0.000685742
-0.000696243
-0.000691139
-0.00138747
-0.00109484
0.000581907
-0.0010825
-0.00124244
0.00258254
-0.000229549
0.00033543
7.84297e-05
-0.0012937
-0.00113116
-0.000434026
-4.31839e-05
-0.000182598
-0.000119395
-0.00216002
-0.000141821
0.00229728
0.000227046
1.62119e-05
-9.31955e-05
-0.00309878
0.00366835
0.000256665
-0.00429597
-0.000289968
0.0050891
0.00463332
0.000356864
-0.00476525
-0.000350082
0.0057935
0.00887529
-0.00719327
-9.1138e-05
-0.00011816
-0.00604368
-0.000378986
-0.00547241
0.000202716
0.000191211
0.000165298
0.00012965
-2.56031e-05
-3.75623e-05
-5.02736e-05
0.000151173
0.000182869
-6.6538e-05
6.63235e-05
8.99301e-05
0.000490185
-0.0101438
-0.000161444
0.000126494
0.000647182
-0.0137601
0.000500992
0.000184143
0.000120262
9.21626e-05
7.13303e-05
5.30364e-05
3.42014e-05
4.18895e-06
0.00354993
-0.003932
0.00393227
-0.00354953
-4.3466e-06
-3.41383e-05
-5.30535e-05
-2.19728e-05
-0.00524904
-6.57165e-05
-4.25281e-05
-2.68088e-05
8.30402e-05
0.000168252
-8.87393e-05
-4.6326e-05
-9.55706e-05
-0.000130094
-0.000142892
0.00345092
0.00048301
0.000173725
-5.9466e-05
-0.00446819
0.00542692
0.000301392
-0.00628983
0.00775366
0.000310896
-0.00854711
0.0107113
0.00016114
-0.0109674
-0.000647769
0.0137607
0.0144166
0.000187919
-0.0111868
5.83193e-05
0.000441579
0.000140519
3.58902e-06
0.000362245
0.000801865
0.00126577
0.000662452
0.00206529
0.00127316
0.00388736
0.00293415
0.0121128
-0.0358972
0.00122526
-0.0016707
0.0127201
0.00568507
0.0176547
0.00672082
0.0116687
-0.00884087
0.00326969
0.00192419
-0.0115748
-0.000179943
1.73739e-05
0.000164981
-1.31507e-07
-1.37097e-07
-0.000126617
0.000174626
0.000196799
-8.99131e-05
-0.000120513
-3.06781e-08
-4.4121e-08
-9.21874e-05
-7.14557e-05
-6.19611e-05
-0.01066
0.0118775
-9.63086e-09
-0.0140851
0.0140849
-0.0118776
6.20446e-05
0.0106608
0.000109864
-5.52988e-05
-0.000362076
4.67156e-05
-0.000175429
-0.00030647
-0.000687443
0.000128326
0.0144132
-0.0160354
0.000104484
-1.10791e-07
-5.32546e-08
-3.95835e-08
-8.98746e-08
-0.00663896
0.00123479
0.000131956
0.000230775
-0.000354709
-0.00896369
0.00230414
0.000459866
0.00733067
0.0072158
-0.0138803
0.0086233
-0.000693444
-0.00121957
-2.93016e-07
0.0042626
0.0115379
-9.51515e-05
8.99013e-07
0.000165616
0.000217934
9.54245e-05
-0.00487991
-0.00844605
-0.00844808
7.45539e-08
0.000187477
9.03041e-07
0.000643224
8.54371e-07
2.10432e-07
1.14714e-08
-0.000109936
0.000269857
0.000419419
-0.000128424
-0.000104901
0.000306646
5.55524e-05
0.000822875
0.000490458
0.000229525
-3.99303e-05
-7.89074e-05
0.000207703
0.000476847
-0.000138489
-0.00390702
0.000816593
0.0013265
-4.48792e-05
0.0101452
0.000107111
0.000185707
-6.11609e-07
0.00132575
0.0022116
0.00222188
0.00423234
0.0124253
0.0019666
0.00412638
0.0124534
0.00308111
0.000904746
-0.000166208
0.000687227
0.00140158
0.00319949
0.000690052
-0.00012003
-0.00511513
-0.000134562
-0.000134212
-0.000239827
-0.000126484
3.43985e-05
0.000177275
0.000362266
-0.000184208
-0.0013993
2.73934e-05
7.80937e-06
-5.64256e-06
-0.0027133
4.24739e-05
-0.00267579
-0.000210723
0.000139886
0.000325427
-6.53053e-05
-0.000110894
-1.22321e-07
9.82161e-05
-0.00042676
-0.00045753
0.000168912
0.000885172
-0.00061897
-4.33935e-05
-0.000257336
0.000245044
0.000121295
0.000236448
-0.000175042
0.000118715
-0.00728667
-0.000311131
0.000477863
-0.00152019
-0.00123503
0.000197342
0.000145099
-2.1785e-08
-3.82405e-05
2.00568e-08
1.24152e-07
1.69644e-07
-0.000301541
-0.000393895
-0.000214842
-0.00029031
-0.00258243
-0.00242741
-0.00254348
-0.0135099
-0.0103464
0.00178968
-1.88905e-07
-0.00178984
0.0187565
0.00844709
-0.000431996
-0.0002677
-2.71474e-05
2.25667e-06
0.00188093
-0.0024389
0.00285471
-0.00230599
0.000179257
0.00178534
-0.000542398
0.0025434
-0.00128115
-0.00135709
-0.00107603
-0.0010832
-0.00124193
-0.00108252
-0.00109485
-0.00138745
-0.00129374
-0.00113109
-0.000365262
0.000335396
-0.000469515
-0.00129699
0.000316895
-5.26182e-05
-0.00103077
5.16884e-08
0.00103074
-0.000316951
0.00129703
0.00036525
0.000469507
-0.000335417
0.000229596
-7.83684e-05
0.00113143
0.00129382
0.00138747
0.00109488
0.00108258
-0.000581844
0.000253707
0.000210024
0.000542259
-0.000596626
0.00108339
0.00107601
0.00135683
0.00128114
0.00108265
-0.000115309
0.000268069
0.000121261
0.000342979
0.00123798
-4.48251e-07
0.000438878
-0.000342775
-0.000121343
-0.000267751
0.000115705
-0.000385664
0.000109406
0.0014276
2.75427e-05
0.00259416
-0.00259435
-2.65885e-07
-0.00314998
-4.19057e-06
-0.00354955
7.66198e-05
0.00267581
0.0027341
0.000210766
-0.00354423
-0.00239283
0.0017599
-0.000134197
-0.00167993
-0.00244245
9.67461e-05
0.000117353
0.000116386
9.33401e-05
7.13601e-06
-0.0002073
-0.000360064
0.00426296
-0.00334229
-0.0114959
0.00624597
0.0117162
0.00428307
0.01652
0.00377432
0.0067212
0.0176554
0.00568571
0.0127204
0.00862361
0.00602391
-0.013881
0.00470449
-0.00035498
-0.00156679
0.0150182
-0.00452599
0.00753065
5.59225e-08
-0.00753114
0.00452625
-0.0150177
-0.00602387
0.013881
-0.0127199
-0.00862339
-0.00568551
-0.017655
-0.00672062
-0.00377417
0.0108357
0.011778
0.0114959
-0.0117159
-0.00428279
-0.00624612
-0.0178451
-0.00758931
-0.0103465
-0.0148635
-0.00644962
0.0101583
-0.0130193
-0.00188624
0.0208557
-0.0208555
0.0130194
-0.0101585
0.00644893
0.0148623
0.0103466
0.0135107
0.00758896
0.0178443
0.0215354
0.0211709
-0.00389523
0.0187564
0.00699197
0.00844705
0.00660458
-0.000187059
1.24182e-06
0.000187477
-1.76178e-07
0.0115382
-0.0115381
0.000454649
-0.00660479
-0.00844728
-0.0069925
-0.0187566
-0.0211714
-0.0215346
-0.0174202
-0.0178984
-0.0196319
-0.0176198
-0.0178325
-0.0212704
-0.0204929
-0.0178457
-0.00588701
0.00167191
-0.00122546
0.014126
-0.0144176
0.0111866
-0.0107112
0.00854809
-0.00775339
0.00628984
-0.00542685
0.00446873
-0.00366792
0.00309903
-0.00241568
0.00216004
-0.00161899
-0.00152675
-0.00130014
-0.00117149
-0.00178543
-0.00188137
-2.47683e-06
0.0024389
-0.00142773
-0.000109544
0.000385829
-0.00254344
0.000313831
-9.67151e-05
-0.000117307
-0.000116297
-9.33274e-05
-6.80735e-06
0.000207345
0.000359947
-0.00426296
0.00334217
0.00117722
0.00323494
-0.000856546
0.00799977
-0.00799968
-0.00323487
-0.00117721
0.000856605
0.00251438
-0.0117784
-0.0108353
0.0116689
-0.0130082
-0.00350785
0.000325152
0.00152004
-0.00258844
0.00235585
0.00285236
3.56848e-08
-0.00285218
0.00350779
-0.00470444
0.00896299
0.000354518
0.010047
-0.0100473
-0.00896332
-1.15275e-07
0.00635718
0.00663861
-0.00663885
0.00123481
-0.00635709
0.000459894
3.4756e-07
0.00625535
0.000693163
-0.00721574
0.00192264
-3.55777e-07
-5.063e-07
1.62292e-08
0.00865664
-0.00662203
-0.0196172
0.00429214
-0.0160032
0.0193141
-0.0180775
0.0159618
-0.0159623
-0.00171787
-0.0141411
-0.00106378
0.0130862
-0.0109408
-0.000378718
0.00974122
-0.00814248
-0.000105387
0.00701067
-0.00583967
1.53423e-05
0.00487204
-0.00406036
8.78038e-05
0.00328576
-0.00278094
0.000156605
0.0021976
-0.0019415
0.000266911
0.00160114
0.000663587
0.00139363
-0.00139374
5.25608e-05
0.00029447
-0.000680091
-0.000614248
1.7761e-08
0.000427156
-0.000427164
-0.000468377
1.3215e-08
0.000482851
-0.00048286
-0.000375027
-3.9731e-08
0.000904893
-0.000905074
2.78599e-05
-3.87933e-07
-0.000244748
0.000245561
-0.000175696
0.000874563
0.000425464
0.000467375
0.000250119
0.000978153
0.000361124
-0.000824586
-0.00016476
0.000619003
-0.000885155
0.000836672
0.000426734
0.000457606
0.000151753
0.000910082
0.000163988
-0.000707232
-0.000124913
0.00014512
-0.000684989
0.000859135
0.000110635
0.000115057
-0.000160799
-0.000204935
-0.000244652
-0.000273905
-0.000256682
-0.000123957
6.09295e-05
0.000501613
0.0138099
0.011576
0.0109916
0.0154111
-0.016405
0.0127108
-0.0123403
0.00975629
-0.00887584
0.00719401
-0.00617415
0.00511577
-0.00415936
0.00354417
-0.00273449
0.00244231
-0.000179136
0.00230613
-0.00285485
0.00315027
-0.00393213
-6.70614e-08
0.00393186
-0.00476903
0.00428379
-0.00337185
0.00400938
-0.00524913
0.000104669
-0.00490279
0.000261684
0.00415875
-0.000200985
0.00268754
0.00310377
0.000290479
-0.00390735
-0.00429637
0.00345031
-0.000212293
-0.00271358
0.000234202
0.00201499
-0.00185838
0.000201587
0.00117137
-0.000132558
-0.00021005
0.00059653
-0.000859171
-0.0003611
-0.000978168
-0.00025004
-0.00046726
-0.000425252
-0.000874302
0.000175007
-0.000236488
-2.77502e-05
0.000395334
-4.31254e-05
-0.000618991
-1.09449e-05
0.000164729
0.000885151
0.000824609
0.000684963
-0.000145164
-0.000136631
0.000375054
-2.04516e-08
-2.58803e-08
-2.5957e-08
3.1164e-08
5.49503e-08
5.79359e-08
1.01859e-07
3.53021e-08
1.95571e-08
-2.06884e-09
2.42862e-07
0.00437719
-0.000197375
-0.00755297
0.00121942
-0.0165194
-0.00733057
0.0130077
-0.000325177
-0.00152001
-0.00123501
-0.00013211
0.000248916
-0.00139209
-0.000690589
-0.00477944
-0.00460999
0.0102
0.0144414
-0.0217566
0.000194195
0.0185485
-0.0156125
0.0176991
0.000280675
-0.00412559
-0.0124547
-0.0124244
-0.0121114
-0.00721529
-0.00751137
-0.00123258
-0.00293624
-0.00211888
-0.00388799
-0.00206407
-0.00127249
-0.000623448
-0.000419551
-0.000661114
-0.000140151
-0.000441757
-0.000106372
-0.0137601
-0.0121384
0.00954983
0.00850534
0.000582024
-0.0109179
0.000476499
0.000179768
-0.00235577
0.00258862
-0.00251445
-0.000191662
0.00611962
-0.000460345
-0.00230431
0.00156693
-0.00530441
-0.00116676
-0.00538727
1.6267e-07
3.16525e-07
1.07422e-06
3.1438e-07
-3.02301e-07
-4.01975e-07
-3.51329e-07
-7.63452e-07
-3.42327e-07
1.71995e-08
9.96701e-08
-0.000349089
0.00034908
0.000490211
9.33362e-06
-8.72869e-05
-0.000171354
-0.000278226
-0.00036192
-3.44425e-06
-0.00126462
-0.000801232
-0.000482707
-0.000172905
5.96552e-05
0.000138976
-0.005089
-0.0046338
0.00390705
0.00341054
0.000272056
-0.00400961
0.00476437
0.000349997
-0.00579263
0.0064581
0.000442606
-0.0081065
-0.000265215
-0.00924417
0.00738905
0.000490343
-0.0101439
0.0109663
0.000647248
0.000126507
-1.7433e-05
-0.000165083
-0.000394467
-0.00667059
0.00547274
0.000379068
-0.00728742
0.00826084
-0.00031142
4.57007e-05
-0.00222046
-0.00423116
-0.00192372
-0.00326902
0.00884129
-0.0116687
0.0358969
-0.00196695
0.00920295
-0.00308127
-0.00844555
-0.00488
-0.00151994
-0.00319917
-0.000903914
-0.0001849
-0.00220981
-0.00132431
-0.00132533
-0.000815552
-0.000476373
-0.000207383
-0.000226806
-1.57195e-05
9.32074e-05
0.000143156
-0.00345063
-0.00310431
0.00271359
0.00239246
0.000200885
-0.00268757
-0.000290516
-0.000191352
-0.000202679
-0.000357343
5.03255e-05
0.000289929
0.00429577
-0.000256738
-0.000151164
0.00583928
-8.24317e-06
-0.00701156
0.000106145
0.00814206
-2.7153e-05
-0.00974209
0.000379831
0.01094
-5.81477e-05
-0.0130867
0.00106402
0.0141409
-0.00018835
-0.0169819
0.002948
0.0186611
0.00406197
0.00131874
-0.00023103
0.000231026
-0.0186616
-0.00294729
0.0169815
-0.00131902
0.0180777
-0.00865641
-0.0193144
-8.21004e-08
0.0160023
-0.00429213
0.0196183
0.00588734
0.00662195
0.00116666
0.00530476
0.00230411
-0.00192287
-0.00625578
0.00721636
-0.000693316
0.00733073
-0.00611935
-3.66672e-07
7.2605e-08
-1.51084e-08
-5.56783e-08
2.13073e-08
6.15883e-08
0.00171855
-0.0150374
0.0130772
-0.011505
0.00998247
-0.0099831
-8.45595e-05
0.00847798
7.31783e-05
-0.00729815
3.79487e-05
0.00602015
5.88845e-05
-0.0051444
9.14917e-05
0.00413326
4.77375e-05
-0.00353097
0.00013994
0.00277415
5.06974e-05
-0.00241805
0.000243298
0.00184883
0.000140127
-0.00168097
-1.13028e-08
0.00168085
-0.000663535
-0.00160123
-0.000266935
0.00194134
2.62979e-05
-0.00219768
-0.000156528
0.00278093
1.5672e-05
-0.00328605
-8.76878e-05
0.00406009
5.61167e-06
-0.00487258
-1.49638e-05
-5.89093e-05
0.00514421
2.11475e-08
-0.00413356
0.00353101
-0.00277426
0.00241801
-1.01307e-07
-0.00184891
-0.000140228
-3.01861e-05
-8.18182e-05
-5.08196e-05
-0.00012647
-0.000182632
-0.000249096
-0.000319229
-0.00035152
-0.000285049
-0.000345794
0.000345922
0.00538714
0.00751164
0.00123217
0.000283855
0.0150372
-5.66869e-05
-0.0130779
-0.000447755
0.0115042
6.51125e-05
0.000196988
2.14775e-07
0.000448493
5.3602e-08
-7.12861e-08
8.51239e-05
-0.00847821
0.00729798
-0.00602047
-3.79084e-05
-5.19124e-08
-1.12008e-07
-3.61074e-08
-9.15256e-05
-3.71408e-08
-0.000139806
-6.37381e-08
1.6875e-08
-0.000243119
-2.66322e-08
2.8511e-08
0.0006801
-0.000294484
0.000311319
-0.000424746
0.000424703
-0.000311313
0.000938361
-0.000118866
0.000388285
-0.000897314
-0.000192923
2.38011e-05
-0.000804894
0.000868856
0.000344781
0.000997212
0.000266636
0.000466193
0.000870224
0.000442378
-0.00015177
-0.00033919
-0.000115408
9.23259e-08
-5.18651e-08
0.000115312
-0.000938421
-0.000388277
0.000118788
-0.000322386
0.000192796
0.000804858
-2.38067e-05
-0.000130443
0.000124923
0.000707261
-0.000163961
-0.000910001
-0.000151747
-0.000457595
0.000339576
0.000339196
-3.25572e-08
0.000152763
0.000322321
6.43804e-06
6.36194e-05
0.000458675
-0.000339556
-0.000168887
-1.8006e-08
-6.36121e-05
-0.000152782
0.000614301
-6.57433e-06
3.01527e-05
-3.03379e-08
2.20754e-08
2.26929e-08
9.52417e-08
-8.25764e-08
9.96589e-08
-0.000174479
5.7047e-05
0.000174691
-6.05895e-05
0.000187938
-0.0141263
-0.000501044
0.0137603
-0.00064754
-0.00955098
0.000264317
0.00810646
-0.000442353
-0.00645934
-0.00975612
0.000394168
0.00844754
-0.0106602
8.59916e-05
-0.00956091
0.0116903
-0.014413
-5.55656e-05
-0.0128197
0.000325989
0.0123392
-0.0127098
-0.0085076
0.0109181
-0.000581412
0.0164044
-0.000279867
0.0156128
-0.0185475
-0.000194031
-0.0177
-0.0154106
-0.0109927
-0.000476975
0.0121372
-0.0115755
-0.0138113
0.00326914
-0.000249013
0.00139183
-0.032949
0.00069104
-0.000115029
0.00477901
-0.0349188
0.00461021
-0.0144413
-0.0102006
0.00487945
5.20442e-07
9.51474e-05
0.000643281
0.0240941
-2.08726e-08
0.020474
-0.0204737
0.000217709
-0.0169231
5.59619e-05
0.0144139
-0.0116902
0.0128179
-0.000326037
0.00955956
-8.62709e-05
0.0106608
-0.00844722
-0.000394723
0.00695336
-0.000116589
0.0076003
-0.0059077
-0.00033302
-0.00082215
-0.000489966
-0.000229138
4.00842e-05
7.89901e-05
4.32014e-05
0.000182599
0.000119496
0.000141884
-0.00229703
-0.00201552
0.00185825
0.00167975
0.000133962
-0.00176013
-0.000234359
-0.000165382
-0.000129661
-0.000201418
5.16567e-05
0.000142033
0.000438429
-0.0025823
0.000691297
0.000434179
0.000229965
0.000262859
0.00069637
0.00124251
-0.00242734
0.000253996
0.000134757
0.000130227
0.000120349
9.16191e-05
1.28252e-06
-0.000306722
-0.00140146
-0.000686922
-0.000419372
-0.000690397
-5.58628e-05
0.000109901
0.000127883
-0.0126383
0.0140851
3.87083e-08
0.0118775
-0.0118773
6.21089e-05
0.0101301
-5.14144e-08
0.0084621
-0.00846205
3.98262e-05
-0.00632455
-0.000105013
0.00524928
-0.00400942
0.00490209
-0.00026155
4.59662e-05
-0.000362557
-0.000269788
-0.000168252
-0.000177372
9.59862e-05
6.56526e-05
-0.00428406
-7.6802e-05
0.00354966
-0.00267614
0.00337153
-0.00021062
0.000134359
-3.43885e-05
-8.28843e-05
2.71107e-05
0.000126525
0.000239951
0.000685951
0.000431787
0.000268847
0.00115553
-0.000291383
0.000487616
-9.85518e-07
-0.000480594
0.000288417
-0.00115421
-0.000245066
-0.000256764
-6.61714e-07
-8.68526e-08
4.24517e-05
4.19978e-06
3.41568e-05
2.56355e-05
0.000143468
0.00211246
-0.000183551
3.75529e-05
0.000212361
0.00299789
-0.000214954
-0.000115189
-4.77317e-05
0.000115113
0.00015116
0.000183038
0.000256968
0.000124249
5.81591e-05
-0.0111879
0.000161068
0.0101433
-0.000490661
-0.00738933
0.000394654
0.00579242
-0.00034987
-0.00476568
-0.00719322
0.000333396
0.00590798
-0.00759998
0.000116465
-0.00695412
0.00908809
-6.22224e-05
-0.0101299
-0.000109726
-2.20316e-07
-1.87828e-08
-7.30552e-07
0.000166172
-0.000165431
-9.47927e-05
-0.000643204
0.0217563
-0.0240943
-0.000109431
0.000132074
-0.000126409
-0.000179537
1.78908e-05
-2.92539e-08
8.99697e-05
-0.000196746
-6.48785e-05
-0.000182844
-7.30038e-05
6.64522e-05
7.43856e-08
1.02592e-08
-1.13911e-08
-4.26631e-08
-3.65511e-08
4.65803e-09
9.63842e-09
-0.00011505
0.000160848
0.000204924
0.000244705
0.000273932
7.73185e-06
-0.00629027
0.000301676
0.0050885
-0.000290079
0.00463277
0.000357073
0.00400943
-0.000272114
-0.00341119
-0.00511567
0.0061731
-0.000120516
-0.000139286
-6.07963e-05
0.000277626
0.000418756
0.000622413
0.000351623
0.000319214
0.000249291
0.00018283
0.000171084
8.7136e-05
0.000126577
4.70933e-05
-9.62451e-06
-0.000490363
-0.000434598
-0.000230248
0.0016189
0.000183603
0.00152664
-0.000142106
-0.000253734
0.00242736
-0.000110629
0.000129708
0.000165413
0.000191399
0.000202838
0.000165278
-8.9859e-05
-6.64924e-05
-0.000379359
-0.0060441
-0.00547288
0.0066698
0.00728703
0.00775286
0.000311224
-0.00854812
2.69229e-05
0.0107109
0.000138099
0.000440815
0.0144154
0.00211667
0.00122553
-0.035898
0.0204941
0.0178488
-0.00167278
0.00721327
0.0121115
0.0212712
0.0178331
-0.00884121
0.0176188
0.0196373
0.0179018
-0.00920287
0.0174205
0.0124532
0.0124259
0.001924
0.00388634
0.00294042
0.00206425
0.00125962
0.00126425
0.000652431
1.69011e-06
-0.00011934
-4.60118e-05
-0.0082616
0.00924212
0.000105932
-0.0109678
0.00423084
0.00221978
0.00132486
0.000815195
0.000800568
0.000356725
0.000482162
0.000256645
0.00366742
-0.00309908
0.000214918
0.00229693
-0.000143681
-0.00211259
-0.00216015
-2.6277e-05
0.00241532
-1.57202e-05
-0.000119661
-9.40452e-05