/*--------------------------------*- C++ -*----------------------------------*\
| =========                 |                                                 |
| \\      /  F ield         | OpenFOAM: The Open Source CFD Toolbox           |
|  \\    /   O peration     | Version:  2306                                  |
|   \\  /    A nd           | Website:  www.openfoam.com                      |
|    \\/     M anipulation  |                                                 |
\*---------------------------------------------------------------------------*/
FoamFile
{
    version     2.0;
    format      ascii;
    arch        "LSB;label=32;scalar=64";
    class       volVectorField;
    location    "0.9";
    object      flux;
}
// * * * * * * * * * * * * * * * * * * * * * * * * * * * * * * * * * * * * * //

dimensions      [0 1 -1 1 0 0 0];

internalField   nonuniform List<vector> 
5712
(
(-0.313007 0.530792 0.346644)
(-0.400339 0.306355 1.1347)
(-0.734169 0.852611 0.277302)
(-1.07992 0.563501 1.16199)
(-1.10594 0.934272 0.205301)
(-1.90305 0.695616 1.19231)
(-0.841527 1.4476 0.317906)
(-2.13332 1.82182 1.80685)
(-0.679122 1.91203 0.38959)
(-1.49012 2.36789 2.47572)
(-1.01552 1.24558 0.390498)
(-1.54902 1.09012 1.82186)
(-0.905248 0.789834 0.380378)
(-1.19731 0.632041 1.5226)
(-0.40013 0.399501 0.395792)
(-0.460322 0.271102 1.36643)
(-0.718101 0.866411 0.238896)
(-0.825075 0.864278 0.152657)
(-0.913775 0.756234 0.641449)
(-0.90799 0.876286 0.385658)
(-0.711998 1.16759 0.230352)
(-0.871679 1.01722 0.125028)
(-1.04179 1.37273 0.687243)
(-0.931847 1.08434 0.340482)
(-0.260734 0.367987 0.268764)
(-0.202246 0.258879 0.202745)
(-0.323161 0.209211 0.858102)
(-0.222978 0.157502 0.623888)
(-0.60866 0.432598 0.203499)
(-0.499137 0.350679 0.154473)
(-1.02897 0.267803 0.842875)
(-0.75963 0.221599 0.631464)
(-0.793641 0.832133 0.479441)
(-0.830439 0.843542 0.205383)
(-0.898251 0.828379 0.41821)
(-0.879108 0.666514 0.189949)
(-0.333994 0.622193 0.198999)
(-0.252184 0.505782 0.456172)
(-1.85053 0.501283 1.59616)
(-2.47884 0.576208 0.42576)
(-1.20414 0.804392 0.573142)
(-1.47647 0.807824 0.182414)
(-2.4528 1.72601 2.02353)
(-3.19064 1.79394 0.538957)
(-1.27431 1.19444 0.523236)
(-1.46046 1.24061 0.166254)
(-1.38998 0.719217 1.15957)
(-1.96363 0.606782 0.355395)
(-1.22452 0.761775 0.595584)
(-1.61704 0.538516 0.20067)
(-0.726118 0.354961 1.02559)
(-1.16095 0.370698 0.322723)
(-0.145555 0.308578 0.348742)
(-0.0497095 0.475227 0.172936)
(-0.152067 0.162671 0.461205)
(-0.0554376 0.208553 0.184015)
(-0.437649 0.419694 0.378539)
(-0.17885 0.626836 0.203444)
(-0.592173 0.254094 0.447263)
(-0.220894 0.310072 0.176467)
(-0.433929 0.452965 0.464791)
(-0.164938 0.836096 0.268028)
(-0.445653 0.318903 0.385028)
(-0.144485 0.552453 0.172519)
(-0.751009 0.119274 0.546222)
(-0.241422 0.324708 0.20043)
(-0.967876 0.0997311 0.18492)
(-0.329877 0.241158 0.0657713)
(-1.11989 0.750432 0.622817)
(-0.568178 0.935671 0.442823)
(-1.02823 0.795565 0.373131)
(-0.60881 0.9445 0.276566)
(-1.02731 0.906458 0.648472)
(-0.665715 0.906871 0.534679)
(-0.907819 0.944367 0.347494)
(-0.669775 0.90808 0.297961)
(-0.830662 0.693728 0.372087)
(-0.49827 0.952955 0.261526)
(-0.835046 0.694506 0.550683)
(-0.437793 0.93205 0.385172)
(-1.06432 0.793354 0.236413)
(-0.670026 0.945749 0.174239)
(-1.06895 0.798708 0.107831)
(-0.67395 0.947976 0.0882843)
(-0.962175 0.965192 0.214837)
(-0.703529 0.904392 0.183554)
(-0.974713 0.968784 0.0971135)
(-0.703484 0.899896 0.095081)
(-0.896045 0.647646 0.238635)
(-0.567162 0.962314 0.160716)
(-0.928417 0.629348 0.112161)
(-0.57949 0.969231 0.0718183)
(-0.859208 0.83696 0.345846)
(-0.382966 1.02862 0.192537)
(-0.410509 1.05651 0.269929)
(-0.513892 1.54397 0.318612)
(-0.860494 0.888477 0.492859)
(-0.421601 1.2099 0.354247)
(-0.365439 1.04835 0.406997)
(-0.530434 1.70399 0.557487)
(-0.909415 0.793288 0.220006)
(-0.378356 0.896015 0.107329)
(-0.459503 1.05992 0.153338)
(-0.512202 1.47249 0.178035)
(-0.955686 0.786522 0.101809)
(-0.386733 0.835473 0.0440069)
(-0.496862 1.07259 0.0603002)
(-0.532161 1.45839 0.0633281)
(-0.187762 0.292297 0.491363)
(-0.206357 0.395343 0.872084)
(-0.0646676 0.756789 0.327365)
(-0.133983 1.37442 0.96693)
(-0.541388 0.352394 0.564965)
(-0.57413 0.411217 0.847531)
(-0.21792 0.951757 0.397589)
(-0.40618 1.5251 1.00106)
(-0.693356 0.422576 0.627121)
(-0.758674 0.43007 0.756852)
(-0.358713 1.17456 0.500937)
(-0.619191 1.64136 0.958773)
(-0.487742 1.05056 0.639668)
(-0.00204642 1.07015 0.698277)
(-0.598113 0.942505 0.538182)
(-0.78475 0.961739 0.534086)
(-0.452615 1.51094 0.572657)
(0.0142176 1.06269 0.702101)
(-0.266096 1.04757 0.715735)
(-0.557219 0.953508 0.763776)
(-0.924768 0.863815 0.817142)
(-0.719099 1.76326 1.15488)
(-0.459346 0.975167 0.572995)
(-0.578063 1.00092 0.492336)
(-0.534067 0.937698 0.463688)
(-0.486386 1.00338 0.529112)
(-0.776052 1.96342 0.797151)
(-0.172406 0.106018 1.02135)
(-0.135815 0.129053 0.922296)
(-0.100969 0.236172 1.17685)
(-0.0984364 0.585504 1.14802)
(-0.47757 0.147315 0.934823)
(-0.381876 0.172034 0.874358)
(-0.304891 0.312656 1.15444)
(-0.285114 0.629737 1.11737)
(-0.585138 0.210528 0.804418)
(-0.460171 0.179395 0.793616)
(-0.39805 0.408947 1.07199)
(-0.349224 0.686333 1.06785)
(-0.213731 1.01795 0.522007)
(-0.282588 0.947599 0.422232)
(-0.46171 0.952772 0.548759)
(-0.488718 0.877911 0.498258)
(-0.618922 0.874122 0.631772)
(-0.555476 0.74274 0.597564)
(-0.707021 0.686593 0.70957)
(-0.593561 0.579436 0.708542)
(-0.531596 0.520169 0.966236)
(-0.446458 0.771185 1.01804)
(-0.381059 0.943038 0.482267)
(-0.369079 0.863602 0.438705)
(-0.513659 0.988688 0.509988)
(-0.35875 0.926671 0.532605)
(-0.487098 0.902388 0.561064)
(-0.310854 0.809325 0.640695)
(-0.4409 0.790394 0.649111)
(-0.267618 0.688684 0.772568)
(-0.550295 0.546013 0.841372)
(-0.343178 0.756193 1.02022)
(-0.432431 1.00152 0.413255)
(-0.147895 1.11135 0.325718)
(-0.384815 1.0055 0.27287)
(-0.382535 1.14976 0.335832)
(-0.523442 0.934705 0.512538)
(-0.642164 0.946032 0.599394)
(-0.581061 0.920676 0.34491)
(-0.813146 0.966898 0.529832)
(-0.318692 0.95125 0.248974)
(-0.320082 0.959598 0.313305)
(-0.39322 0.941678 0.384653)
(-0.0648566 0.927397 0.320927)
(-0.347846 1.00071 0.0696236)
(-0.63239 1.15919 0.216366)
(-0.331828 0.999768 0.0246998)
(-0.686255 1.16243 0.0698898)
(-0.577653 0.898365 0.169263)
(-1.01126 0.986183 0.345798)
(-0.587562 0.894299 0.0514447)
(-1.08256 0.987876 0.110907)
(-0.277939 0.954938 0.0449334)
(-0.563776 0.957309 0.195212)
(-0.257045 0.95734 0.0140254)
(-0.609083 0.959003 0.0621033)
(-0.39238 0.831916 0.254991)
(-0.266209 0.787504 0.254862)
(-0.563675 0.546759 0.294236)
(-0.201798 0.622521 0.192177)
(-0.383555 0.829301 0.414257)
(-0.0151382 0.770873 0.339637)
(-0.481827 0.541055 0.490034)
(0.0200906 0.63683 0.352934)
(-0.383939 0.841188 0.0703941)
(-0.420033 0.782521 0.137286)
(-0.593317 0.557651 0.145809)
(-0.262446 0.619852 0.0884929)
(-0.324262 0.844879 0.0713202)
(-0.502188 0.774274 0.0910307)
(-0.531941 0.574931 0.101447)
(-0.348508 0.618498 0.0764868)
(-0.0999284 0.0789195 0.74734)
(-0.0827372 0.0465289 0.459594)
(-0.0659113 0.0288522 0.147906)
(-0.0733346 0.0419557 0.839697)
(-0.0633462 0.0238587 0.489293)
(-0.0519018 0.021318 0.161421)
(-0.287584 0.112182 0.717929)
(-0.209478 0.0553097 0.45462)
(-0.162436 0.0371184 0.156295)
(-0.196474 0.0791149 0.821572)
(-0.138843 0.0563286 0.488608)
(-0.107923 0.0432728 0.161262)
(-0.327386 0.11926 0.658216)
(-0.251932 0.0802183 0.41815)
(-0.218802 0.0724346 0.138981)
(-0.232426 0.135412 0.794518)
(-0.164676 0.0973977 0.487148)
(-0.144398 0.0807133 0.163536)
(-0.226862 0.824778 0.299099)
(-0.173167 0.661803 0.178826)
(-0.158766 0.560572 0.0542068)
(-0.405615 0.78529 0.417485)
(-0.2614 0.651543 0.279909)
(-0.199952 0.561799 0.0960354)
(-0.413905 0.581214 0.52368)
(-0.260084 0.480949 0.359977)
(-0.186919 0.424797 0.12414)
(-0.429064 0.423877 0.62309)
(-0.294317 0.318597 0.409469)
(-0.235328 0.271377 0.137054)
(-0.311851 0.209567 0.781061)
(-0.177744 0.131162 0.495555)
(-0.124075 0.10073 0.172297)
(-0.577915 0.764396 0.340446)
(-0.437812 0.625271 0.208786)
(-0.338037 0.527944 0.0722321)
(-0.400505 0.819839 0.414142)
(-0.291765 0.658379 0.30233)
(-0.208735 0.550894 0.115521)
(-0.388045 0.636292 0.513942)
(-0.260449 0.473811 0.378653)
(-0.174744 0.386291 0.14115)
(-0.352724 0.434454 0.637205)
(-0.220415 0.295924 0.449905)
(-0.140319 0.238091 0.163042)
(-0.405963 0.22055 0.792636)
(-0.20455 0.128331 0.506159)
(-0.095859 0.0923553 0.181745)
(-0.454773 1.14936 0.010342)
(-0.605317 1.1019 0.081809)
(-0.368841 1.27248 0.112762)
(-0.465632 1.11838 0.165756)
(-0.514304 1.31747 0.0977007)
(-0.73987 1.12167 0.109379)
(-0.467918 1.62075 0.241671)
(-0.66221 1.20178 0.226851)
(-0.00037468 0.862751 0.0234307)
(-0.0278268 0.846441 0.0373127)
(0.01999 0.858684 0.0249822)
(-0.00658317 0.774229 0.0387831)
(-0.122761 0.972732 0.0169979)
(-0.13193 0.887225 0.0515828)
(-0.0566175 0.965726 0.0317419)
(-0.0326434 0.801808 0.067946)
(-0.0407807 0.954181 0.118106)
(-0.107005 0.931637 0.0588629)
(-0.397516 0.87651 0.15483)
(-0.566992 0.920831 0.0914488)
(-0.265203 1.12571 0.0791101)
(-0.15894 1.03023 0.134719)
(-0.439086 1.19299 0.131984)
(-0.436585 1.22053 0.0123183)
(-0.698004 1.32297 0.263711)
(-0.76962 1.3794 0.0451763)
(0.0183324 0.975702 -0.105972)
(0.171852 1.0217 -0.00769991)
(-0.324887 0.874877 0.0534365)
(-0.302919 0.854201 0.0241981)
(-0.299604 1.04123 0.0248905)
(-0.229123 1.07456 0.00824191)
(-0.041218 0.638973 0.354891)
(-0.0214011 0.337959 0.145889)
(-0.0306442 0.604208 0.095401)
(-0.0148172 0.374498 0.0537477)
(-0.0822591 0.652073 0.361045)
(-0.0076369 0.340794 0.150439)
(0.00407876 0.605732 0.120518)
(0.0253402 0.371877 0.0674679)
(-0.371619 0.647003 0.357924)
(-0.0875786 0.341805 0.160181)
(-0.262561 0.609188 0.169281)
(-0.067758 0.388229 0.105615)
(-0.37211 0.59698 0.113624)
(-0.110095 0.406437 0.0725988)
(-0.445436 0.606434 0.033575)
(-0.134964 0.401508 0.0336049)
(-0.39238 0.857279 0.522658)
(-0.492128 0.709742 0.455855)
(-0.358153 0.867865 0.238675)
(-0.477106 0.718076 0.243421)
(-0.64317 0.965646 0.598948)
(-0.652517 0.853685 0.554065)
(-0.609036 0.993745 0.289349)
(-0.613287 0.856397 0.286542)
(-0.235354 0.833202 0.196082)
(-0.361393 0.579812 0.198219)
(-0.273804 0.854224 0.422009)
(-0.360752 0.564793 0.341854)
(-0.376427 0.89823 0.131648)
(-0.457815 0.720065 0.13894)
(-0.410653 0.914812 0.0584577)
(-0.458757 0.713269 0.0743289)
(-0.633035 1.03269 0.168527)
(-0.599834 0.856345 0.166422)
(-0.660241 1.0397 0.0776892)
(-0.598774 0.848019 0.08762)
(-0.235048 0.834285 0.103158)
(-0.347778 0.585288 0.11477)
(-0.251598 0.83556 0.0427456)
(-0.35032 0.581867 0.0653041)
(0.0118642 0.52714 0.161181)
(-0.0339633 0.340882 0.0971591)
(-0.257912 0.444496 0.156176)
(-0.131872 0.285945 0.0937567)
(0.029088 0.482599 0.262437)
(-0.0200077 0.303241 0.131417)
(-0.238978 0.42215 0.240138)
(-0.11556 0.266349 0.133442)
(-0.00414373 0.544957 0.0859732)
(-0.0436127 0.362807 0.0648632)
(-0.261884 0.453951 0.0932545)
(-0.143626 0.29486 0.0565596)
(-0.0175362 0.547185 0.0337409)
(-0.0508682 0.374627 0.0321554)
(-0.259665 0.452532 0.05303)
(-0.146089 0.296264 0.0287752)
(0.0247257 0.0977108 0.405866)
(0.0280091 0.0498553 0.248756)
(-0.00574586 0.179406 0.182065)
(0.00133427 0.101236 0.164419)
(0.105282 0.10322 0.406711)
(0.102676 0.0596267 0.261095)
(0.0094378 0.190014 0.18216)
(0.018245 0.118053 0.164115)
(0.0224099 0.125304 0.431146)
(0.0691515 0.0881595 0.285655)
(-0.0497947 0.208922 0.184861)
(-0.0224745 0.149977 0.162498)
(0.391731 0.489775 0.574385)
(0.40178 0.78915 0.662276)
(0.203523 0.347323 0.489746)
(0.155033 0.330063 0.302156)
(0.02462 0.238363 0.144983)
(0.434494 0.758273 0.626927)
(0.412869 0.506061 0.537015)
(0.151712 0.28521 0.4609)
(0.220433 0.285992 0.348307)
(0.0398856 0.194808 0.186738)
(-0.444254 0.808986 0.583645)
(-0.333484 0.615419 0.491725)
(-0.270727 0.474676 0.365245)
(-0.228745 0.360598 0.256066)
(-0.112644 0.231909 0.133376)
(0.0249934 0.0256693 0.180488)
(0.0201564 0.0163855 0.138747)
(0.00338733 0.0620506 0.151369)
(0.00193014 0.04572 0.149529)
(0.0810446 0.0342744 0.196347)
(0.0687667 0.0203978 0.145016)
(0.0114773 0.0806784 0.157194)
(0.00688491 0.0615702 0.152433)
(0.0827743 0.0577294 0.22316)
(0.0875411 0.0377437 0.161986)
(-0.00879273 0.110964 0.166069)
(-0.0110173 0.086141 0.158809)
(0.195796 0.745732 0.471225)
(0.0692284 0.675603 0.337883)
(0.290577 0.480599 0.40151)
(0.157221 0.424469 0.275413)
(0.118213 0.297061 0.287758)
(0.0757703 0.270648 0.221056)
(0.132794 0.245717 0.240638)
(0.101158 0.198918 0.189225)
(0.00282378 0.16249 0.159424)
(-0.0180803 0.125761 0.164377)
(-0.16343 0.714362 0.393358)
(-0.100051 0.609127 0.343669)
(-0.0538143 0.529467 0.31993)
(0.0233841 0.42683 0.273577)
(-0.039274 0.395239 0.248154)
(0.0200817 0.315108 0.214999)
(-0.0467082 0.29239 0.192278)
(-0.00280521 0.232297 0.176282)
(-0.0396651 0.198817 0.122934)
(-0.0400697 0.173543 0.15547)
(-0.204284 0.558985 0.284368)
(-0.176249 0.412446 0.194232)
(-0.381804 0.571489 0.184502)
(-0.225088 0.413419 0.116304)
(-0.333002 0.70242 0.399031)
(-0.314712 0.549796 0.307406)
(-0.500622 0.712406 0.270089)
(-0.392094 0.557541 0.222009)
(-0.275878 0.456259 0.137261)
(-0.15415 0.332776 0.083844)
(-0.136786 0.436274 0.203689)
(-0.126248 0.325377 0.14661)
(-0.44876 0.577251 0.1763)
(-0.195514 0.413081 0.0848089)
(-0.490642 0.574802 0.0541795)
(-0.217882 0.413392 0.0296347)
(-0.557206 0.715659 0.199974)
(-0.401551 0.576364 0.14703)
(-0.592518 0.711021 0.0585934)
(-0.43243 0.576972 0.0493146)
(-0.335617 0.468297 0.141002)
(-0.125606 0.332161 0.0617886)
(-0.373351 0.467514 0.0468052)
(-0.144591 0.336199 0.0226855)
(-0.187394 0.342589 0.0978385)
(-0.131472 0.256437 0.083387)
(-0.108098 0.233692 0.0689419)
(-0.152072 0.215428 0.0941505)
(-0.115571 0.325983 0.140142)
(-0.117839 0.245126 0.121127)
(-0.0898414 0.222532 0.0887534)
(-0.139985 0.200584 0.119155)
(-0.217733 0.358851 0.099696)
(-0.12702 0.263736 0.0583331)
(-0.122181 0.240164 0.0502622)
(-0.174841 0.227621 0.0643156)
(-0.267713 0.366413 0.0230558)
(-0.137042 0.263609 0.00936175)
(-0.16327 0.249084 -0.00427696)
(-0.178768 0.230493 0.00638996)
(0.0167113 0.0345156 0.0898975)
(0.0153598 0.0281884 0.0379505)
(0.0162559 0.0221139 0.0111553)
(0.00169287 0.147866 0.0944899)
(0.00541695 0.0734563 0.0259982)
(0.00568078 0.0568223 0.00700485)
(0.0610062 0.0339442 0.0969967)
(0.0566573 0.0313336 0.0434527)
(0.053162 0.0263415 0.0133279)
(0.0072511 0.164614 0.0978077)
(0.0156523 0.0888102 0.0282643)
(0.0147971 0.0711659 0.00797546)
(0.0820304 0.0493809 0.103125)
(0.078721 0.0511134 0.0491359)
(0.0744955 0.0492776 0.0134373)
(-0.00781085 0.189369 0.10213)
(0.0157147 0.114645 0.03086)
(0.0194725 0.0960435 0.00773078)
(0.0269835 0.57169 0.21981)
(0.0221015 0.47423 0.121942)
(0.010859 0.415044 0.0332135)
(0.0920855 0.36026 0.170272)
(0.0880958 0.307247 0.0883648)
(0.0771836 0.277743 0.0242976)
(0.0699709 0.241568 0.1411)
(0.0726719 0.209178 0.0708214)
(0.0680799 0.19351 0.0205737)
(0.0878634 0.187678 0.118078)
(0.0830378 0.160475 0.0564819)
(0.0758184 0.1453 0.0140344)
(-0.023586 0.224929 0.106938)
(0.00682004 0.14598 0.0322252)
(0.00883182 0.12306 0.00611941)
(-0.14266 0.500266 0.26182)
(-0.0800084 0.402303 0.141936)
(-0.0441181 0.343114 0.0434095)
(0.00957394 0.339839 0.204869)
(0.0372013 0.272594 0.105437)
(0.0505295 0.23642 0.0313325)
(0.0129826 0.25677 0.161839)
(0.0436235 0.204893 0.0815313)
(0.0552463 0.178476 0.0245088)
(0.0060048 0.222898 0.130242)
(0.0360673 0.172677 0.0586201)
(0.0434091 0.146347 0.0158495)
(-0.0452236 0.281856 0.116745)
(0.00853517 0.166841 0.0312)
(0.0143798 0.137474 0.00805065)
(0.000471373 0.174335 0.050755)
(0.000469666 0.0940095 0.0165974)
(0.000430252 0.0519385 0.00414691)
(0.000634158 0.0286552 -0.000985539)
(0.00669937 0.195582 0.0210938)
(0.00290497 0.101993 0.00713471)
(0.0019286 0.0548182 0.00206831)
(0.00139507 0.0296218 4.14088e-05)
(-0.000389945 0.175323 0.053018)
(0.000647052 0.0941177 0.0177007)
(0.00231386 0.0521095 0.00498829)
(0.00285715 0.0287853 -0.000123905)
(0.0101996 0.199604 0.0259312)
(0.00482899 0.10422 0.00922514)
(0.00494605 0.0564034 0.00403104)
(0.00396107 0.0305256 0.00165707)
(-0.00694919 0.175387 0.0557358)
(-0.000920116 0.09358 0.0189902)
(0.00340343 0.0533855 0.00665541)
(0.00542784 0.0297629 0.00146185)
(0.00154604 0.20391 0.0413636)
(0.00265966 0.105731 0.0158445)
(0.00337859 0.0590189 0.00459454)
(0.00315774 0.0321435 0.000728651)
(-0.00168131 0.218822 0.0272849)
(0.00116955 0.111429 0.0121766)
(0.000946294 0.0586447 0.00185868)
(0.000828962 0.0313663 -0.00116878)
(-0.00745486 0.22377 0.0200839)
(-0.00143907 0.114909 0.0107363)
(0.00122515 0.0593583 0.00415643)
(0.00193073 0.0316473 0.0016896)
(-0.026944 0.186111 0.0426018)
(-0.00677423 0.099657 0.015966)
(-0.00102964 0.0561812 0.00382346)
(0.00179896 0.030801 -0.00191139)
(-0.0384749 0.156368 0.0347344)
(-0.00958999 0.0889581 0.0127175)
(-0.00300414 0.0520854 0.00476062)
(0.00390034 0.0291526 -0.00135911)
(-0.0181186 0.164746 0.0528147)
(-0.00370031 0.0908733 0.0181345)
(0.00102321 0.0531019 0.00577545)
(0.00414648 0.0296979 -0.000232774)
(-0.0313325 0.145298 0.0458237)
(-0.00741707 0.0842475 0.0155861)
(-0.00316444 0.0502252 0.00582193)
(0.00306784 0.0283432 -0.00212479)
(-0.0287508 0.200161 0.0307921)
(-0.0075749 0.106069 0.0128319)
(-0.000127458 0.0579225 0.00361713)
(0.00312827 0.0313027 -0.000772903)
(-0.0430801 0.16285 0.0242888)
(-0.0111596 0.092257 0.00980441)
(-0.00322805 0.0531172 0.00422349)
(0.0048088 0.0296691 0.000163047)
(-0.0310847 0.207415 0.0185147)
(-0.00883462 0.11012 0.00906997)
(7.19675e-05 0.0592185 0.00387687)
(0.00411318 0.0320006 0.0017241)
(-0.0459546 0.165473 0.0138545)
(-0.0123548 0.0944582 0.00670248)
(-0.00363853 0.0541279 0.00350592)
(0.00496292 0.0303361 0.00152821)
(0.000287424 0.132991 0.0629933)
(0.000272219 0.0810251 0.0201375)
(0.000434055 0.0478017 0.00496782)
(0.000869963 0.0273383 -0.00242586)
(0.00135575 0.092317 0.059119)
(0.000647439 0.066239 0.0183299)
(0.000158813 0.0427976 0.00664141)
(0.000762403 0.025505 -0.00310607)
(0.0022417 0.133695 0.0625562)
(0.0012234 0.0809016 0.0201258)
(0.00173159 0.0479337 0.00512886)
(0.00257855 0.0273979 -0.00235441)
(0.00537003 0.096125 0.0573482)
(0.00231564 0.0672881 0.0177394)
(0.000757147 0.0431487 0.00664214)
(0.00214339 0.0256779 -0.00307792)
(-0.0104577 0.137473 0.0608343)
(-0.00236343 0.0813421 0.0197361)
(0.00107419 0.0488583 0.00645468)
(0.0040241 0.0279967 -0.00103393)
(-0.00372534 0.107084 0.0538459)
(-3.50978e-05 0.070447 0.0166275)
(0.000409536 0.0443777 0.00729473)
(0.00365295 0.026287 -0.00210987)
(-0.00119706 0.137096 0.0525457)
(0.0017007 0.0801207 0.0175861)
(0.0026589 0.0486437 0.00744425)
(0.00442279 0.0287387 0.00160846)
(0.000860045 0.116893 0.0587868)
(0.00170646 0.072895 0.0181951)
(0.000215358 0.0461572 0.00937782)
(0.0036343 0.0267693 -0.00227856)
(-0.0263229 0.13045 0.0453638)
(-0.00583429 0.0786173 0.0150782)
(-0.00234701 0.0480771 0.00689181)
(0.00483722 0.0279294 -8.01499e-06)
(0.00244232 0.0567472 0.0439401)
(0.00101086 0.0549483 0.0126142)
(0.000456596 0.0348228 0.00545506)
(0.000683152 0.0104227 -0.00160466)
(0.00422321 0.0229691 0.0168381)
(0.00154627 0.0490573 0.00452333)
(0.000617447 0.0318792 0.00152329)
(0.000382574 0.0103024 -5.71679e-05)
(0.00524843 0.0634684 0.0461336)
(0.00237045 0.0572235 0.0134217)
(0.00077864 0.0357681 0.00572873)
(0.00163183 0.0109739 -0.00148353)
(0.0109907 0.0300703 0.0178727)
(0.00412232 0.0514815 0.00488418)
(0.00148118 0.0326675 0.00175378)
(0.000945852 0.0105478 0.000118892)
(0.00385726 0.0766505 0.048119)
(0.0025063 0.0613657 0.0142688)
(0.000868682 0.0370315 0.00641473)
(0.00257778 0.0110036 -0.00110579)
(0.0145008 0.0429097 0.0187739)
(0.00578914 0.0557157 0.00527954)
(0.00217838 0.0337679 0.00199863)
(0.00143788 0.0107122 0.000302916)
(-0.000697244 0.0936835 0.0439365)
(0.00205607 0.0665487 0.0132724)
(0.000963529 0.0392819 0.0068864)
(0.00359647 0.0119553 -0.00059318)
(0.0125835 0.0580646 0.0186681)
(0.00617921 0.0607033 0.0053923)
(0.00244525 0.0354691 0.00247124)
(0.00172636 0.0112276 0.000616095)
(-0.0121211 0.106719 0.0402021)
(-0.000423104 0.0716214 0.0127332)
(-0.000909872 0.0421157 0.00676035)
(0.00295219 0.0136984 0.000112783)
(0.00563995 0.0657188 0.0170435)
(0.00510321 0.064967 0.00547635)
(0.00189208 0.0370999 0.00298869)
(0.0015911 0.0116953 0.000978489)
(-0.0298099 0.116211 0.0256606)
(-0.00451217 0.0775647 0.00870281)
(-0.00198299 0.0433387 0.00354193)
(0.0031095 0.0133033 -2.27515e-05)
(-0.00890215 0.0652929 0.0147393)
(0.000378446 0.0704681 0.0058529)
(0.000508972 0.040158 0.00272079)
(0.00109387 0.012535 0.00114513)
(-0.0221588 0.112503 0.031284)
(-0.00213544 0.0750258 0.00987268)
(-0.00157877 0.0425289 0.00463296)
(0.00285783 0.0132495 -8.0069e-05)
(-0.00382548 0.0620122 0.0158897)
(0.00248457 0.0680137 0.00573331)
(0.00122721 0.0386228 0.00293032)
(0.0013953 0.0120618 0.00111057)
(-0.0361775 0.11803 0.0188536)
(-0.00685176 0.0792089 0.00720655)
(-0.00258966 0.0434967 0.00297705)
(0.00337001 0.0125614 0.000348802)
(-0.01289 0.0657358 0.0116475)
(-0.00135781 0.07233 0.00520381)
(1.8771e-05 0.0409379 0.00234927)
(0.000927473 0.0126056 0.0011419)
(-0.0404104 0.120343 0.0110313)
(-0.00876629 0.0806854 0.00525666)
(-0.00322751 0.0443315 0.00271481)
(0.00321173 0.012735 0.0012193)
(-0.0159361 0.0689423 0.00785977)
(-0.00283342 0.0739166 0.00420085)
(-0.0004921 0.0418141 0.00217055)
(0.000730123 0.0128465 0.0012505)
(0.000281441 0.0170057 -3.4142e-05)
(9.855e-05 0.0097397 4.82428e-05)
(3.68246e-05 0.00517192 3.08466e-05)
(1.49206e-05 0.00244225 1.49088e-05)
(7.64428e-06 0.000710328 8.14693e-06)
(0.000377165 0.0169636 2.44108e-05)
(0.000144659 0.00974066 3.10378e-05)
(5.74668e-05 0.00517998 1.71532e-05)
(2.40294e-05 0.00244685 8.0589e-06)
(1.24997e-05 0.000711665 4.37161e-06)
(0.000672103 0.0172397 0.000162561)
(0.00022529 0.00985132 0.000124696)
(8.34752e-05 0.00521449 6.21536e-05)
(3.3822e-05 0.002458 2.82909e-05)
(1.7351e-05 0.000714346 1.52038e-05)
(0.000810354 0.0173371 0.000241716)
(0.000311718 0.00988181 0.000118476)
(0.000124566 0.00523489 5.36601e-05)
(5.23693e-05 0.00246768 2.37805e-05)
(2.73494e-05 0.000717043 1.26848e-05)
(0.00088451 0.0177768 0.000340541)
(0.000279242 0.0100026 0.000207558)
(0.000102073 0.00526731 9.82768e-05)
(4.13019e-05 0.00247727 4.41526e-05)
(2.12098e-05 0.000719261 2.36858e-05)
(0.00104672 0.0178489 0.000757952)
(0.000403248 0.0100361 0.000374773)
(0.000161598 0.00529579 0.00016713)
(6.81863e-05 0.00249118 7.37873e-05)
(3.57114e-05 0.000723162 3.94138e-05)
(0.000507138 0.0179715 0.000791448)
(0.000196369 0.0101964 0.000408567)
(7.89939e-05 0.00537211 0.000185836)
(3.35472e-05 0.00252258 8.31547e-05)
(1.76762e-05 0.000731531 4.48428e-05)
(0.000375287 0.0183282 0.00110885)
(0.000119047 0.0104045 0.000517562)
(4.33783e-05 0.00547148 0.000229641)
(1.76836e-05 0.00256428 0.000102504)
(9.17825e-06 0.000742769 5.54875e-05)
(0.000821245 0.0182954 0.000430293)
(0.000272388 0.0101786 0.000280623)
(0.000101838 0.00533976 0.000133205)
(4.17364e-05 0.00250572 6.01039e-05)
(2.15973e-05 0.000726721 3.24052e-05)
(0.000390343 0.019264 0.000460669)
(0.000113572 0.0103621 0.000262988)
(4.0187e-05 0.00538784 0.000121565)
(1.61246e-05 0.00252079 5.45024e-05)
(8.2799e-06 0.000730356 2.93498e-05)
(0.000908753 0.0183587 0.000352514)
(0.000316995 0.0101263 0.000234443)
(0.00012307 0.00530586 0.000110538)
(5.12927e-05 0.00249059 4.9527e-05)
(2.67103e-05 0.000722596 2.65617e-05)
(0.000383226 0.0192267 0.000608292)
(0.000115308 0.0102891 0.000293461)
(4.18271e-05 0.00535098 0.000127373)
(1.69356e-05 0.00250547 5.5557e-05)
(8.7121e-06 0.000726261 2.95149e-05)
(0.000626292 0.0184123 0.000509555)
(0.000178896 0.0103161 0.000316194)
(6.21278e-05 0.00540682 0.000150583)
(2.47123e-05 0.00253361 6.848e-05)
(1.26564e-05 0.000734186 3.71766e-05)
(0.000368109 0.0196097 0.000594832)
(9.89813e-05 0.010494 0.000303273)
(3.41111e-05 0.00544752 0.00013818)
(1.36139e-05 0.00254547 6.20593e-05)
(6.99817e-06 0.000736969 3.35672e-05)
(0.000574204 0.018845 0.000873357)
(0.000126293 0.0105206 0.000412084)
(3.58873e-05 0.00549986 0.00018375)
(1.27753e-05 0.00257224 8.22636e-05)
(6.21503e-06 0.000744576 4.46169e-05)
(0.000317357 0.0200644 0.00073233)
(6.11412e-05 0.010677 0.000338977)
(1.60453e-05 0.0055273 0.000150864)
(5.49324e-06 0.00257842 6.76071e-05)
(2.62922e-06 0.000745839 3.67042e-05)
(0.000240748 0.0172862 -0.000148945)
(7.80383e-05 0.00976672 2.65798e-05)
(2.82575e-05 0.00516771 2.28783e-05)
(1.12697e-05 0.00243835 1.1468e-05)
(5.72474e-06 0.000709125 6.31455e-06)
(0.000186299 0.0178925 -9.24854e-05)
(6.36814e-05 0.00980641 8.33365e-06)
(2.37504e-05 0.00516652 8.7285e-06)
(9.57474e-06 0.00243605 4.41884e-06)
(4.87699e-06 0.000708391 2.43354e-06)
(0.000601596 0.0175189 -1.9779e-05)
(0.000192844 0.00985654 7.63717e-05)
(7.07209e-05 0.00520056 4.27137e-05)
(2.85131e-05 0.00245022 1.98202e-05)
(1.45729e-05 0.00071212 1.06849e-05)
(0.000488248 0.0180924 -4.49509e-05)
(0.000164899 0.00987705 2.68077e-05)
(6.20605e-05 0.0051923 1.5998e-05)
(2.52404e-05 0.00244534 7.45649e-06)
(1.29261e-05 0.00071073 4.01631e-06)
(0.000821499 0.0180113 0.000124694)
(0.000236804 0.0100044 0.000127266)
(8.38956e-05 0.00525076 6.27881e-05)
(3.34756e-05 0.00246828 2.83412e-05)
(1.70635e-05 0.000716699 1.51883e-05)
(0.000656648 0.0185316 0.000141811)
(0.000221564 0.0100058 8.82996e-05)
(8.45402e-05 0.00523717 3.94731e-05)
(3.47633e-05 0.0024616 1.72045e-05)
(1.79262e-05 0.000714853 9.08895e-06)
(0.000739963 0.0186866 0.000472673)
(0.000252811 0.0101605 0.000246345)
(9.83169e-05 0.00529965 0.000108586)
(4.09734e-05 0.00248557 4.74063e-05)
(2.1313e-05 0.00072107 2.51377e-05)
(0.000450323 0.0190478 0.000331494)
(0.00016407 0.0101417 0.000161851)
(6.46952e-05 0.00528634 6.90382e-05)
(2.70119e-05 0.00247987 2.97151e-05)
(1.40336e-05 0.000719543 1.56497e-05)
(0.000372688 0.0192921 0.000802255)
(0.000134836 0.0102402 0.000329936)
(5.37572e-05 0.00532676 0.000136621)
(2.26489e-05 0.00249559 5.84227e-05)
(1.18462e-05 0.000723642 3.07467e-05)
(-0.00428487 0.587508 0.107002)
(-0.0131145 0.918599 0.243324)
(-0.00338719 0.603608 0.111904)
(-0.0300383 0.920018 0.243002)
(0.0112772 0.623698 0.126492)
(-0.0335805 0.916122 0.243201)
(0.0450687 0.62628 0.148643)
(-0.0161371 0.900717 0.251175)
(0.0755824 0.579159 0.150934)
(0.0338372 0.839319 0.25382)
(-0.0138474 0.509133 0.0638211)
(-0.0416336 0.57906 0.0908435)
(0.0524509 0.518657 0.101203)
(0.0470087 0.624125 0.152057)
(-0.0453273 0.507458 0.0345275)
(-0.0811221 0.565867 0.0454275)
(-0.0652446 0.514944 0.0104484)
(-0.0979389 0.569649 0.0137603)
(-0.0366453 0.530345 0.546118)
(-0.00880014 0.0917187 0.132248)
(-0.00203716 0.0198774 0.0308359)
(-0.000463414 0.00453124 0.00703961)
(-0.000120828 0.00081382 0.00180539)
(-0.00898219 0.591863 0.150382)
(-0.0051179 0.170071 0.0409469)
(-0.000701782 0.0418158 0.0110305)
(-0.000202932 0.00963265 0.0025586)
(-9.61645e-05 0.0017288 0.000576166)
(-0.112424 0.528539 0.535188)
(-0.0268339 0.0899819 0.128747)
(-0.00623377 0.0194015 0.0300287)
(-0.00141143 0.00441297 0.00680667)
(-0.00036868 0.000791243 0.00176019)
(-0.0204004 0.588322 0.153412)
(-0.00632808 0.167454 0.0455571)
(-0.00167948 0.0411011 0.0113884)
(-0.000373701 0.00943765 0.00269965)
(-0.000109378 0.00168129 0.000690433)
(-0.187064 0.520493 0.502944)
(-0.0447402 0.0877195 0.120468)
(-0.0104314 0.0188209 0.0280575)
(-0.00237245 0.00427443 0.00636446)
(-0.000619182 0.000766215 0.00165097)
(-0.0341462 0.578081 0.148842)
(-0.0111688 0.163525 0.043911)
(-0.00290698 0.0400514 0.0109438)
(-0.000717745 0.00918649 0.0025816)
(-0.000192186 0.00163702 0.000662892)
(-0.247002 0.500139 0.450775)
(-0.0592854 0.0827776 0.107371)
(-0.0139016 0.0176711 0.0250044)
(-0.00317732 0.00401676 0.00568217)
(-0.000832072 0.000721262 0.00147845)
(-0.0401935 0.555327 0.143298)
(-0.0142152 0.156286 0.0413963)
(-0.00380566 0.0382692 0.0101956)
(-0.00094658 0.00878873 0.00238641)
(-0.00025224 0.00156785 0.000610284)
(-0.302642 0.45903 0.368198)
(-0.0734332 0.0741837 0.0875421)
(-0.0173719 0.015859 0.0204593)
(-0.00399955 0.00362873 0.00466928)
(-0.00105465 0.000654789 0.00122035)
(-0.0454706 0.511336 0.133031)
(-0.0176142 0.144594 0.0374884)
(-0.00482613 0.0356237 0.0091532)
(-0.00121089 0.00822682 0.00213317)
(-0.000325903 0.00147285 0.000545042)
(-0.346504 0.387205 0.166968)
(-0.0867876 0.0652658 0.0416784)
(-0.0208888 0.0144799 0.00995644)
(-0.00487142 0.00338583 0.00230098)
(-0.00129741 0.000618327 0.00060607)
(-0.0804543 0.396638 0.0641394)
(-0.0258607 0.118622 0.018369)
(-0.00665985 0.0301908 0.00446063)
(-0.00160018 0.00713032 0.00102385)
(-0.000423976 0.00129487 0.000261438)
(-0.327226 0.409909 0.253562)
(-0.081689 0.0679181 0.0623069)
(-0.0195476 0.0148647 0.0147375)
(-0.00453068 0.00344651 0.0033813)
(-0.00119982 0.000626236 0.000886696)
(-0.0580749 0.432114 0.0947511)
(-0.0212049 0.12875 0.0267742)
(-0.00569363 0.0323951 0.00654639)
(-0.00140374 0.00756912 0.00152612)
(-0.00037346 0.00136419 0.000392938)
(-0.354172 0.37719 0.0966778)
(-0.0888036 0.0642191 0.0243446)
(-0.0214322 0.0143242 0.00585093)
(-0.0050129 0.00336131 0.00136092)
(-0.00133949 0.000615114 0.000359859)
(-0.0938963 0.382431 0.035807)
(-0.0288497 0.113665 0.0106416)
(-0.00728682 0.0289867 0.00257497)
(-0.00172195 0.00687918 0.000590899)
(-0.000454307 0.00125475 0.00015217)
(-0.367757 0.374029 0.0328883)
(-0.0914215 0.063426 0.00825304)
(-0.0221017 0.0141394 0.00199049)
(-0.00517081 0.00332088 0.000464923)
(-0.0013822 0.000607518 0.000123093)
(-0.0987078 0.380313 0.0134446)
(-0.0302933 0.112212 0.00370702)
(-0.0076997 0.0285527 0.000841778)
(-0.00169464 0.00679607 0.000237118)
(-0.000471188 0.00123856 4.85735e-05)
(-0.0275325 1.47872 -0.0312766)
(-0.325505 2.15217 -0.0042088)
(-0.29739 2.09172 0.196804)
(-0.106113 1.42473 -0.0547682)
(0.0707903 0.809896 0.0321503)
(0.119772 0.857608 0.0344442)
(0.331362 1.20017 0.0999789)
(0.48828 1.26655 0.128774)
(0.0645769 0.959871 0.0815172)
(0.353209 1.08974 0.154282)
(-0.0973752 1.55197 0.134215)
(0.08889 2.15257 0.207416)
(0.0964221 1.97372 0.166335)
(0.207405 2.64799 0.206094)
(0.406429 1.2762 0.08502)