/*--------------------------------*- C++ -*----------------------------------*\
| =========                 |                                                 |
| \\      /  F ield         | OpenFOAM: The Open Source CFD Toolbox           |
|  \\    /   O peration     | Version:  2306                                  |
|   \\  /    A nd           | Website:  www.openfoam.com                      |
|    \\/     M anipulation  |                                                 |
\*---------------------------------------------------------------------------*/
FoamFile
{
    version     2.0;
    format      ascii;
    arch        "LSB;label=32;scalar=64";
    class       volScalarField;
    location    "0.9";
    object      gradTy;
}
// * * * * * * * * * * * * * * * * * * * * * * * * * * * * * * * * * * * * * //

dimensions      [0 -1 0 1 0 0 0];

internalField   nonuniform List<scalar> 
5712
(
13269.8
7658.88
21315.3
14087.5
23356.8
17390.4
36190
45545.5
47800.7
59197.3
31139.6
27252.9
19745.9
15801
9987.53
6777.56
21660.3
21607
18905.8
21907.1
29189.8
25430.5
34318.3
27108.5
9199.67
6471.98
5230.27
3937.55
10815
8766.97
6695.07
5539.98
20803.3
21088.6
20709.5
16662.9
15554.8
12644.6
12532.1
14405.2
20109.8
20195.6
43150.2
44848.5
29861
31015.2
17980.4
15169.6
19044.4
13462.9
8874.04
9267.45
7714.46
11880.7
4066.78
5213.84
10492.4
15670.9
6352.35
7751.8
11324.1
20902.4
7972.57
13811.3
2981.84
8117.7
2493.28
6028.95
18760.8
23391.8
19889.1
23612.5
22661.4
22671.8
23609.2
22702
17343.2
23823.9
17362.6
23301.3
19833.8
23643.7
19967.7
23699.4
24129.8
22609.8
24219.6
22497.4
16191.1
24057.8
15733.7
24230.8
20924
25715.5
26412.8
38599.2
22211.9
30247.6
26208.8
42599.9
19832.2
22400.4
26497.9
36812.3
19663.1
20886.8
26814.7
36459.8
7307.42
9883.57
18919.7
34360.5
8809.85
10280.4
23793.9
38127.4
10564.4
10751.8
29364.1
41033.9
26263.9
26753.8
23562.6
24043.5
37773.5
26567.4
26189.4
23837.7
21595.4
44081.4
24379.2
25023
23442.5
25084.5
49085.5
2650.45
3226.31
5904.3
14637.6
3682.88
4300.84
7816.39
15743.4
5263.19
4484.86
10223.7
17158.3
25448.7
23690
23819.3
21947.8
21853
18568.5
17164.8
14485.9
13004.2
19279.6
23576
21590
24717.2
23166.8
22559.7
20233.1
19759.9
17217.1
13650.3
18904.8
25037.9
27783.8
25137.6
28743.9
23367.6
23650.8
23016.9
24172.4
23781.3
23989.9
23542
23184.9
25017.8
28979.7
24994.2
29060.8
22459.1
24654.6
22357.5
24696.9
23873.4
23932.7
23933.5
23975.1
20797.9
19687.6
13669
15563
20732.5
19271.8
13526.4
15920.7
21029.7
19563
13941.3
15496.3
21122
19356.8
14373.3
15462.4
1972.99
1163.22
721.306
1048.89
596.468
532.95
2804.55
1382.74
927.961
1977.87
1408.21
1081.82
2981.5
2005.46
1810.87
3385.3
2434.94
2017.83
20619.4
16545.1
14014.3
19632.3
16288.6
14045
14530.3
12023.7
10619.9
10596.9
7964.92
6784.43
5239.18
3279.06
2518.26
19109.9
15631.8
13198.6
20496
16459.5
13772.4
15907.3
11845.3
9657.26
10861.3
7398.1
5952.27
5513.74
3208.27
2308.88
28734.1
27547.6
31812.1
27959.4
32936.8
28041.8
40518.7
30044.4
21568.8
21161
21467.1
19355.7
24318.3
22180.6
24143.1
20045.2
23854.5
23290.9
21912.8
23020.8
28142.6
25755.7
29824.7
30513.4
33074.3
34485.1
24392.6
25542.4
21871.9
21355
26030.9
26863.9
15974.3
8448.97
15105.2
9362.46
16301.8
8519.85
15143.3
9296.93
16175.1
8545.14
15229.7
9705.72
14924.5
10160.9
15160.8
10037.7
21432
17743.5
21696.6
17951.9
24141.1
21342.1
24843.6
21409.9
20830
14495.3
21355.6
14119.8
22455.8
18001.6
22870.3
17831.7
25817.3
21408.6
25992.5
21200.5
20857.1
14632.2
20889
14546.7
13178.5
8522.06
11112.4
7148.61
12065
7581.03
10553.7
6658.73
13623.9
9070.19
11348.8
7371.49
13679.6
9365.68
11313.3
7406.59
2442.77
1246.38
4485.15
2530.91
2580.49
1490.67
4750.34
2951.32
3132.6
2203.99
5223.05
3749.43
12244.4
19728.7
8683.07
8251.57
5959.08
18956.8
12651.5
7130.26
7149.81
4870.19
20224.7
15385.5
11866.9
9014.96
5797.72
641.731
409.636
1551.26
1143
856.86
509.945
2016.96
1539.26
1443.23
943.592
2774.11
2153.53
18643.3
16890.1
12015
10611.7
7426.52
6766.19
6142.92
4972.95
4062.25
3144.03
17859
15228.2
13236.7
10670.7
9880.97
7877.7
7309.75
5807.42
4970.42
4338.57
13974.6
10311.1
14287.2
10335.5
17560.5
13744.9
17810.2
13938.5
11406.5
8319.4
10906.9
8134.44
14431.3
10327
14370
10334.8
17891.5
14409.1
17775.5
14424.3
11707.4
8304.03
11687.8
8404.97
8564.73
6410.93
5842.3
5385.71
8149.58
6128.16
5563.29
5014.59
8971.28
6593.39
6004.11
5690.51
9160.32
6590.23
6227.1
5762.32
862.889
704.709
552.847
3696.64
1836.41
1420.56
848.606
783.341
658.537
4115.34
2220.25
1779.15
1234.52
1277.83
1231.94
4734.23
2866.11
2401.09
14292.2
11855.7
10376.1
9006.5
7681.17
6943.58
6039.21
5229.45
4837.75
4691.96
4011.88
3632.51
5623.22
3649.49
3076.5
12506.6
10057.6
8577.85
8495.97
6814.86
5910.5
6419.26
5122.33
4461.91
5572.46
4316.93
3658.67
7046.4
4171.02
3436.84
4358.37
2350.24
1298.46
716.38
4889.54
2549.82
1370.46
740.544
4383.07
2352.94
1302.74
719.632
4990.09
2605.5
1410.09
763.14
4384.68
2339.5
1334.64
744.073
5097.75
2643.27
1475.47
803.587
5470.54
2785.72
1466.12
784.159
5594.24
2872.72
1483.96
791.181
4652.77
2491.43
1404.53
770.025
3909.19
2223.95
1302.14
728.814
4118.64
2271.83
1327.55
742.447
3632.46
2106.19
1255.63
708.58
5004.03
2651.72
1448.06
782.567
4071.26
2306.43
1327.93
741.728
5185.37
2753
1480.46
800.015
4136.82
2361.45
1353.2
758.403
3324.77
2025.63
1195.04
683.459
2307.92
1655.98
1069.94
637.626
3342.37
2022.54
1198.34
684.947
2403.12
1682.2
1078.72
641.948
3436.83
2033.55
1221.46
699.918
2677.09
1761.17
1109.44
657.175
3427.39
2003.02
1216.09
718.467
2922.32
1822.37
1153.93
669.232
3261.24
1965.43
1201.93
698.236
1418.68
1373.71
870.571
260.567
574.228
1226.43
796.98
257.559
1586.71
1430.59
894.203
274.348
751.758
1287.04
816.686
263.695
1916.26
1534.14
925.787
275.09
1072.74
1392.89
844.197
267.805
2342.09
1663.72
982.047
298.883
1451.62
1517.58
886.728
280.691
2667.98
1790.53
1052.89
342.459
1642.97
1624.18
927.499
292.382
2905.28
1939.12
1083.47
332.583
1632.32
1761.7
1003.95
313.376
2812.57
1875.65
1063.22
331.239
1550.3
1700.34
965.57
301.545
2950.75
1980.22
1087.42
314.035
1643.4
1808.25
1023.45
315.14
3008.58
2017.14
1108.29
318.375
1723.56
1847.91
1045.35
321.163
425.142
243.492
129.298
61.0562
17.7582
424.09
243.516
129.499
61.1713
17.7916
430.994
246.283
130.362
61.45
17.8587
433.427
247.045
130.872
61.6921
17.9261
444.42
250.066
131.683
61.9316
17.9815
446.223
250.901
132.395
62.2795
18.079
449.287
254.909
134.303
63.0646
18.2883
458.204
260.112
136.787
64.107
18.5692
457.385
254.465
133.494
62.643
18.168
481.6
259.054
134.696
63.0198
18.2589
458.968
253.156
132.647
62.2648
18.0649
480.668
257.228
133.774
62.6367
18.1565
460.307
257.902
135.171
63.3402
18.3547
490.242
262.35
136.188
63.6367
18.4242
471.126
263.016
137.496
64.3059
18.6144
501.611
266.925
138.182
64.4606
18.646
432.156
244.168
129.193
60.9588
17.7281
447.313
245.16
129.163
60.9012
17.7098
437.973
246.414
130.014
61.2555
17.803
452.311
246.926
129.807
61.1335
17.7682
450.283
250.11
131.269
61.707
17.9175
463.291
250.146
130.929
61.5399
17.8713
467.164
254.012
132.491
62.1393
18.0267
476.194
253.543
132.158
61.9968
17.9886
482.303
256.004
133.169
62.3897
18.091
14687.7
22965
15090.2
23000.5
15592.4
22903
15657
22517.9
14479
20983
12728.3
14476.5
12966.4
15603.1
12686.4
14146.7
12873.6
14241.2
13258.6
2292.97
496.935
113.281
20.3455
14796.6
4251.76
1045.4
240.816
43.22
13213.5
2249.55
485.037
110.324
19.7811
14708.1
4186.34
1027.53
235.941
42.0322
13012.3
2192.99
470.523
106.861
19.1554
14452
4088.13
1001.28
229.662
40.9254
12503.5
2069.44
441.776
100.419
18.0315
13883.2
3907.15
956.731
219.718
39.1962
11475.8
1854.59
396.475
90.7182
16.3697
12783.4
3614.84
890.593
205.67
36.8212
9680.12
1631.64
361.996
84.6457
15.4582
9915.96
2965.55
754.771
178.258
32.3718
10247.7
1697.95
371.618
86.1627
15.6559
10802.9
3218.76
809.877
189.228
34.1048
9429.74
1605.48
358.104
84.0328
15.3778
9560.77
2841.63
724.667
171.979
31.3687
9350.74
1585.65
353.485
83.022
15.1879
9507.82
2805.31
713.819
169.902
30.964
36967.9
53804.3
52292.9
35618.3
20247.4
21440.2
30004.4
31663.8
23996.8
27243.5
38799.3
53814.3
49343.1
66199.9
31904.9
36744.2
24709.5
26639.1
13277.3
14654.1
4535.01
2775.89
376.089
239.424
268.971
222.127
313.46
4099.66
3668.8
2077.56
2727.69
2366.65
936.298
1441.11
1160.1
694.753
821.902
623.689
3793.59
1699.13
837.849
722.423
1057.31
880.533
618.444
533.872
437.945
365.74
592.49
522.654
4135.06
2251.89
2652.5
1466.32
1091.48
1747.48
620.477
400.832
707.895
8768.94
7987.06
7295.18
7297.57
10790.7
5833.42
6054.54
5943.85
6038.55
6594.04
959.669
1303.77
1520.81
1643.46
1699.58
619.499
859.638
1021.51
1117.36
1161.39
695.95
965.177
1145.22
1250.19
1297.51
576.667
804.167
959.505
1052.08
1094.51
806.53
1109.08
1306.35
1419.43
1470.32
8206.41
7709.77
6854.73
6508.49
9300.8
7337.78
6761.76
5891.91
5461.8
5888.86
4543.39
4919.77
4817.37
4720.27
4842.58
5570.54
5331.91
4703.77
4287.04
4183.35
4834.14
4684.6
4148.69
3731.93
3557.96
2238.12
2753.72
2947.44
3004.72
3029.25
3269.79
3725.88
3758.56
3698.04
3690.03
2678.15
3127.46
3202.03
3154.7
3117.41
1707.28
2187.02
2416.38
2509.24
2543.35
1980.47
2463.53
2653.95
2706.01
2716.76
1546.39
2006.35
2238.34
2336.29
2370.78
7734.6
7496.72
6850.43
6677.31
9618.83
3839.89
4377.52
4472.01
4511.82
4683.05
2035.35
2566.01
2805.68
2906.57
2957.27
1777.02
2284.25
2541.53
2665.7
2727.63
2515.25
3083.31
3312.73
3416.89
3502.34
2140.93
2708.25
2981.7
3118.89
3201.04
1540.62
2020.27
2289.89
2434.56
2506.5
1342.92
1784.15
2039.53
2174.02
2234.94
1112.84
1499.66
1731.68
1852.87
1903.66
936.249
1276.74
1491.3
1609.68
1661.42
1477.41
1935.36
2181.62
2299
2348.19
1314.54
1745.41
1992.46
2119.48
2175.18
8184.48
7696.11
7081.13
7049.11
10322.3
4882.05
5293.62
5324
5439.82
5845.22
5860.41
6265.38
6065.4
6094.28
6950.24
3399.18
4034.26
4268.67
4415.5
4599.5
2609.57
3226.63
3500.69
3646.83
3760.12
3955.63
4532.39
4664.63
4750.15
4972.51
1545.66
2025.57
2292.35
2432.29
2500.18
1020.96
1382.31
1605.87
1728.85
1783.65
1746.41
2255.63
2521.78
2655.89
2723.9
21261.5
14278.8
21778.6
15759
27762.3
40970.3
29248.2
40955.8
22203.1
23153.7
19230.5
22620.6
24570.5
22925.4
32231.5
25689.1
16850.9
16451
8255.12
7329.46
18235.7
17279
9413.29
7931.39
22822
24402.5
22940.6
20553.3
23903.3
15678.2
12561.3
14475.5
20391.3
20297.5
43257.3
44998.6
29417.5
30941.9
19063
15432.3
20326.9
13728.7
9950.97
9550.73
18008.1
20404.7
7480.57
8340.39
19587.7
22993.1
9236.16
10423.1
18290.7
26585.2
10548
16797
3602.01
9177.08
2625.09
6244.13
20266.9
22908.4
20254.9
23377.5
21293.3
21345
22734.3
22004.8
19149.5
24146.7
21831.5
23820.2
19916.1
23532
19975.3
23664.1
23722.8
22273.5
24108.8
22396.1
16855.8
24223.6
15882.8
24278.2
22485.5
27632.3
27136.8
39429.3
24678.7
33228.3
27403.2
43911.1
20605.7
23384.6
26874.1
37273.7
19880.5
21174.3
26926
36607.6
24857.9
26700.7
32136.2
48542.8
24693.7
25027.3
34236.3
48930.7
23845.1
23198
36519.7
47976.3
20409.2
20383.8
22923.8
25746.8
41128.6
19418.3
18845.9
24234.8
23176.3
47581.3
20261.5
22040.1
22965.7
26495.6
50804.7
13325.9
11800.1
13322.8
18092.7
14657.7
13018.5
13737.1
18448.2
16277.9
13615.8
14257.8
18635.3
18367.9
16924.7
17905.7
16720.6
21996.6
19681.6
18806.8
16402.4
14812.9
19265.5
19552.5
18564
21601.2
21017.8
21749.5
19875.9
20738
18063.7
14467.8
18418
23740
26349.7
24573.7
28033
21561.9
22024
22206.1
23395.7
23673.6
23738.4
23247.8
22737.2
24765.9
28666
24922.2
28972.9
22098
24293.4
22253.3
24594.2
23824.8
23824.4
23917.3
23945
21035.3
19764.3
13949.4
15690.8
21168.3
19438.9
14053.8
16059.1
21146.6
19607.2
14082.4
15580.1
21157
19371.5
14419.3
15491.1
10531.6
10730.5
4759.8
4291.16
11762.1
11265.5
5327.6
5017.95
11381.6
10377.6
5999.67
5690.68
15924.2
14876.9
16271.4
15866.2
17063.8
15978.6
13491.2
11585.1
7173.81
5684.54
17869.2
16435.3
20127.6
18560.9
16870.5
14893.5
12735.2
10340.3
6512.71
4544.19
23269.8
21626
29568.9
25119.8
26823.3
23316.2
38074
27786.4
20803.2
16435.9
23194.9
17610.1
20606.4
16762.6
23304.1
17941
21667.6
18605
19315.2
17455.7
20971.3
22901.3
28481.3
30124.4
32122.7
34238.5
23125.7
25132.4
20666.8
21016.1
24399.2
26319.9
12860
9106.66
13525.3
9406.05
13191
9054.37
13801.9
9307.06
13171.3
8952.21
13904
9590.1
14111
9991.81
14877
9969.33
17415.4
16428
19737.5
17135.1
20638.9
19402.2
23064.1
20358.2
18825.2
14072.8
17402.4
13661.3
21502.6
17567.7
22591.4
17699.6
25004.8
20892.1
25767.1
21047.2
19838.4
14371.2
20581.1
14463.5
12592
8674.87
11107
7350.41
11726.6
8263.33
10849.1
7188.17
13215.7
9063.91
11290.2
7444.06
13543.7
9349.83
11289.5
7427.12
11962.4
11513
8389.49
7574.95
12114.1
11668
8266.96
7521.86
12080.3
11268.2
8086.9
7483.59
14825.8
18202
15080.2
10791.5
7808.91
16703
15067.1
16067.2
10600.8
7460.91
18547
15683.5
13271.5
10682
7015.91
11137.3
10935.3
7167.67
7152.27
11143.9
10801.2
7147.74
7110.65
10528.7
9984.19
6952.87
6630.66
16079.4
14495.1
13868.6
12525.3
13575
12961
10109.7
9795.9
6824.92
6301.01
16312.1
14141.5
13901.3
11735.9
11810.3
10240.5
9547.02
8534.41
6384.79
6060.84
13732
10668.5
13972.9
10374.3
16476.9
13171.3
17161.7
13582.3
11427.5
8639.14
11343.6
9080.69
14226.1
10301.7
14303.6
10320
17565.8
14214.8
17678.2
14365.5
11645.2
8396.19
11657.5
8419.52
8830.89
6874.91
6143.31
5824.45
8940.21
7274.38
6246.43
6006.64
9039.82
6757
6123.86
5890.86
9172.86
6629.94
6262.36
5818.62
11765.3
11456
14090.4
12092.8
11530.3
11231.6
13559.4
11580.9
10301.2
10298.2
12518.1
10746.9
13309.3
12336.8
11392.3
10669.2
12194.7
11907.4
10114.3
9592.28
11491.6
9677.65
12319.8
11111.2
10159.2
9419.97
9380.26
9071.38
9043.64
8414.76
10924.3
8578.62
5308.83
2912.65
1580.5
853.963
5515.78
3006.73
1621.21
867.378
5240.03
2872.82
1560.13
844.058
5495.47
2993.53
1626.07
873.832
5115.22
2794.6
1564.2
855.996
5478.77
2951.9
1656.7
899.104
5666.28
2972.02
1581.26
846.392
5654.7
2935.9
1522.57
812.509
4997.31
2739.1
1551.95
850.491
4153.7
2404.07
1409.98
789.494
4729.06
2644.39
1530.03
846.873
4067.06
2394.21
1407.57
786.372
5174.33
2793.45
1537.24
832.519
4194.2
2405.23
1392.67
780.747
5234.75
2799.2
1510.37
817.115
4174.04
2393.04
1374.8
771.639
4906.83
2746.39
1523.15
836.625
4315.7
2516.34
1445.09
805.672
4809.8
2703.12
1506.6
827.841
4254.84
2492.74
1433.42
801.378
4682.09
2635.16
1499.65
830.039
4223.54
2464.87
1424.39
798.608
4373.87
2503.71
1455.39
833.173
4113.61
2414.3
1423.08
787.219
3952.59
2371.81
1398.75
790.761
3550.85
2294.92
1229.44
346.251
2484.9
2160.57
1168.64
354.611
3568.49
2295.18
1235.24
358.386
2556.06
2162.07
1169.52
356.651
3610.74
2286.05
1224.69
346.748
2660.16
2155.15
1156.72
350.149
3573.53
2261.5
1239.09
363.706
2642.44
2132.13
1151.61
352.149
3405.13
2211.18
1256.12
401.244
2339.25
2075.62
1138.06
351.552
3111.73
2103.2
1188.58
366.761
1787.67
1940.69
1106.28
345.222
3210.7
2147.06
1215.6
377.222
1893.11
1996.9
1117.93
346.41
3048.19
2067.59
1148.25
334.091
1705.56
1901.26
1080.71
333.503
3036.04
2044.42
1127.96
324.969
1738.37
1876.18
1063.43
327.048
498.001
278.695
145.162
67.5995
19.5158
490.481
276.754
144.685
67.4692
19.4863
497.709
278.235
144.773
67.3999
19.4579
491.512
275.922
144.075
67.1743
19.4023
504.822
278.148
144.305
67.1438
19.383
495.161
274.733
143.282
66.8035
19.298
482.293
271.297
141.846
66.2114
19.1376
470.226
266.245
139.632
65.2984
18.8913
501.487
275.917
143.206
66.6685
19.2522
522.261
278.01
143.201
66.5383
19.2064
515.383
278.803
144.1
66.989
19.3351
533.568
280.183
143.961
66.8342
19.2852
489.023
272.468
141.841
66.1186
19.1044
516.267
275.059
141.958
66.0363
19.0717
480.97
268.022
139.808
65.2728
18.8758
510.474
271.317
140.192
65.2996
18.8727
515.375
281.76
145.759
67.7395
19.5452
544.233
284.645
146.189
67.8298
19.5634
516.676
281.58
145.512
67.6039
19.505
544.901
284.436
145.996
67.7271
19.5331
522.532
281.528
145.097
67.3773
19.4388
547.83
284.051
145.594
67.5241
19.4746
533.822
281.907
144.725
67.1582
19.3741
552.011
283.147
145.031
67.2656
19.402
545.213
281.593
144.422
67.0129
19.333
16211.7
21694.5
16225.7
21620.5
16248.7
21444.3
15757.6
20957.8
14439.7
19629
12831.6
14500.8
13092.7
15451.1
12753.4
14193
12896.5
14259.9
13028.7
2217.58
479.48
109.652
19.7656
14025.6
4070.76
1006.21
232.93
41.9718
12915.7
2171.63
467.904
106.838
19.2301
13901.2
4003.45
988.846
228.303
40.8458
12629.8
2113.27
454.234
103.649
18.6556
13621.4
3907.38
964.358
222.544
39.8344
12095.7
1998.04
428.069
97.7832
17.6261
13106.5
3744.64
924.47
213.61
38.2706
11189.3
1807.66
387.469
88.9677
16.0986
12203.3
3493.94
866.444
201.078
36.1254
9672.64
1626.79
360.396
84.243
15.3881
9888.28
2948.36
749.636
177.062
32.172
10165.9
1679.38
367.271
85.2296
15.5048
10633.4
3162.59
796.655
186.518
33.681
9441.71
1605.45
357.714
83.8985
15.3517
9571.7
2839.81
723.428
171.609
31.2997
9357.16
1586.04
353.436
82.993
15.1816
9515.03
2805.93
713.691
169.834
30.9494
36601.8
53758.4
51872.9
34429.4
26184
32065
25152
31895.7
30237.1
49883.7
32331.8
51275.9
22.0073
27.8531
41.0541
64.4381
103.094
164.868
26.6651
33.3266
48.2347
74.2017
115.796
179.589
18.7159
17.1544
24.4219
23.1455
37.4861
37.0879
61.061
63.0296
99.8466
105.482
158.383
163.115
261.943
410.582
637.163
979.2
1401.75
1710.63
274.144
408.605
590.917
817.104
1047.3
1199.06
58.3499
84.2271
104.056
117.272
123.832
73.7186
106.098
130.677
146.91
154.914
108.364
155.266
190.36
213.219
224.377
169.505
241.509
294.418
328.292
344.627
269.968
381.848
462.156
512.463
536.368
429.016
600.75
720.148
792.87
826.849
70.599
101.669
125.302
140.943
148.667
88.0535
126.374
155.207
174.093
183.351
127.04
181.384
221.604
247.54
260.113
194.663
276.161
335.258
372.65
390.545
302.291
425.479
512.592
566.483
591.91
465.862
649.181
774.772
850.416
885.597
49.6768
71.8369
88.9145
100.361
106.064
45.5585
65.9447
81.7032
92.2962
97.5857
64.7117
93.3135
115.156
129.665
136.848
61.363
88.5639
109.395
123.27
130.151
99.0748
142.259
174.789
196.11
206.561
98.0728
140.939
173.311
194.578
205.019
160.863
229.753
280.756
313.628
329.547
166.121
237.424
290.313
324.448
340.992
261.932
371.531
450.864
500.904
524.772
276.821
392.859
476.938
529.977
555.259
413.165
580.753
698.522
770.793
804.645
425.943
599.588
721.993
797.168
832.328
675.338
932.146
1102.77
1203.02
1249.17
1044.36
1412.39
1641.85
1771.34
1831.26
1588.93
2087.57
2371.33
2526.02
2603.19
2371.45
2990.19
3297.13
3466.08
3575.6
3270.98
3921.26
4185.96
4353.3
4527.14
3902.42
4535.22
4749.34
4911.78
5141.53
705.263
970.226
1144.52
1246.3
1293.13
1039.91
1407.4
1636.97
1766.68
1826.57
1483.36
1967.09
2250.28
2405.76
2480.33
2017.19
2611.52
2933.43
3107.96
3200.68
2541.37
3212.02
3547.48
3732.24
3847.44
2879.09
3586.39
3922.65
4112.56
4245.47
22.2651
28.7058
42.7553
67.4637
108.208
173.135
26.965
34.3005
50.1088
77.3578
120.728
186.758
18.9511
17.3844
25.2187
23.9428
39.1479
38.8214
64.2003
66.5058
105.504
111.93
168.536
175.822
273.952
425.132
651.397
988.021
1403.76
1710.31
283.565
419.384
601.252
824.754
1051.29
1200.17
59.0462
85.2631
105.377
118.8
125.469
76.0228
109.531
135.058
151.981
160.35
112.968
162.139
199.152
223.414
235.316
177.711
253.805
310.204
346.646
364.348
283.89
402.825
489.227
544.067
570.4
451.642
635.119
764.833
845.326
883.503
71.4103
102.88
126.85
142.737
150.592
90.6903
130.314
160.251
179.947
189.634
132.123
189.001
231.383
258.911
272.332
203.247
289.081
351.916
392.083
411.464
315.764
445.89
539.071
597.519
625.403
485.575
679.337
814.241
896.985
936.032
50.3112
72.7788
90.113
101.744
107.545
46.1783
66.8641
82.8718
93.6443
99.0281
66.8619
96.5094
119.226
134.37
141.886
63.5131
91.7564
113.457
127.96
135.172
103.565
148.948
183.325
205.991
217.153
102.754
147.905
182.193
204.851
216.026
169.363
242.455
297.021
332.502
349.805
175.528
251.47
308.284
345.289
363.353
277.308
394.638
480.61
535.561
562.052
294.353
419.228
510.912
569.588
597.884
440.849
622.557
752.57
833.968
872.716
460.474
651.468
788.755
874.942
915.988
708.56
983.393
1170.31
1283.1
1336.12
1085.52
1477.84
1730.3
1878.08
1948.27
1631.26
2159.03
2472.23
2651.44
2742.93
2402.02
3049.6
3388.26
3585.34
3712.54
3284.26
3955.95
4245.47
4436.25
4626.43
3905.15
4545.87
4769.4
4941.08
5177.65
731.452
1010.91
1198.5
1310.63
1363.17
1070.44
1456.05
1702.89
1846.43
1914.1
1513.63
2017.4
2320.67
2492.79
2576.99
2041.1
2654.1
2995.79
3187.4
3290.41
2555.3
3239.28
3589.52
3787.52
3911.08
2883.43
3595.56
3937.32
4132.27
4268.44
4518.53
2770.72
397.132
255.115
299.76
242.739
339.769
3932.64
3571.01
2110.24
2713.31
1024.08
1532.9
777.154
906.655
695.448
3699.23
1727.15
904.736
771.955
1103.92
914.768
641.165
570.057
498.938
411.818
655.98
570.296
4088.61
2243.95
2622.77
1472.41
1111.86
1759.91
651.761
434.479
747.414
8751.69
7996.4
7329.08
7360.88
10911.2
5829.6
6065.11
5971.04
6083.36
6654.7
1018.66
1396.35
1644.46
1791.37
1860.93
662.625
925.51
1107.53
1218.63
1270.93
779.498
1090.4
1306
1437.2
1498.55
632.76
888.598
1068.31
1178.94
1231.04
879.049
1220.25
1451.86
1590.95
1655.93
8195.71
8261.48
7859.26
7886.4
11247.8
7606.98
7826.81
7591.51
7636.88
8402.68
4770.04
5489.04
5724.62
5897.24
6186.87
6133.63
6735.44
6691.29
6741.41
6904.84
2511.77
3227.83
3612.13
3818.2
3925.71
3613.96
4397.53
4740.93
4923.21
5051.01
1950.06
2586.62
2961.84
3167.29
3263.59
2255.39
2953.76
3347.21
3556.51
3655.31
1759.27
2360.37
2726.11
2928.51
3021.02
7678.03
7731.31
7376.22
7450.28
10797.8
3981.03
4706.1
4997.35
5202.9
5482.19
2238.04
2910.7
3287.55
3497.09
3609.14
1924.29
2530.91
2884.65
3085.83
3191.5
2669.2
3367
3728.25
3940.8
4091.02
2247.9
2897.21
3254.24
3460.72
3583.71
1607.84
2132.88
2447.69
2629.43
2722.79
1446.43
1950.56
2265.5
2446.97
2534.1
1280.75
1756.24
2066.17
2246.07
2328.83
1062.15
1467.24
1737.75
1897.88
1972.12
1659.81
2228.85
2578.36
2775.66
2868.9
1449.99
1961.21
2282.91
2467.89
2555.58
8143.33
7743.22
7209.16
7268.59
10722.3
4884.03
5335.74
5412.34
5574.7
6018.94
5862.34
6404.75
6353.92
6523.94
7520.33
3434.88
4124.2
4420.77
4624.94
4848.27
2680.75
3365.28
3712.25
3921.67
4074.36
4036.01
4740.38
5014.59
5225.66
5534.1
1637.28
2177.09
2502.34
2689.46
2784.24
1114.98
1529.05
1800.62
1960.51
2035.51
1863.92
2452.91
2797.35
2994.64
3098.82
4240.39
4134.82
3928.11
3528.94
2761.48
1129.85
21333.8
21587
23833.8
24813.9
20456.1
21340.7
22445.5
21345.7
17993.9
24061.9
18525.4
24451
21177.7
18896.6
31281.4
20183.5
20265.3
22147.6
22823.6
18977.7
19862.5
21147.1
20349.6
17752.3
29079.2
18166.7
28503.7
21272.8
23472.4
33512.7
18755
18685.2
19906.5
20273.9
17689.8
19098.9
19327.5
19143
20152.1
25019.1
20885.7
24791.5
22948.6
25908.2
29453
17296.9
17252.3
17644
17812.2
16681.3
18334.9
17271.8
17420.2
18319.7
21221.1
18999.9
20406.4
20284.6
22405.3
24457.1
15848.6
15842.7
15955.2
16020.4
15862.4
17622.2
15749.8
16087.8
16840.4
16710.1
17535.2
15747.5
17947
17774.7
19177.8
15109.4
15160.3
14772.6
14795.9
15071.9
16386.1
14718.6
14962.6
15657.7
13711.7
16091.3
13185.2
16139.8
14735.5
16644.1
22491.8
21412
24244
25739.7
20343.6
20020.4
22198.9
20836.5
19071.9
13333.7
18926
13388
16599.1
14833.8
17350.1
20782.9
19989.4
21953.2
22961.5
19287.9
19171.8
20553.7
19406.6
17082.7
12344
16980.1
12433.4
14622.1
12774
15343.7
18419.1
17929.1
19087.1
19612.3
17481
17371
18334.4
17580.3
15414.3
11416.1
15101.4
11191
13270.9
10994.3
14255.3
15874.8
15576.9
16570.3
16840
15247
15061.6
16242.2
15616.5
13474.4
10776.9
13283.4
10563.9
11813.5
10352.5
13402.2
14206.9
13997.7
14922.2
15081
13579.3
13397.9
14775.3
14317.2
12343.3
10838.2
12202.6
10726.8
11126
10258.7
12967.1
12985.5
12801.8
13844.2
13961.1
12512.1
12576.1
13688.7
13430.5
11666.2
10848.8
11600.9
10812.6
10709.1
10338.7
12956.8
13063.1
7417.12
21305.5
14094.6
23380.5
17374.4
36221.1
45559.9
47857.5
59224.4
31196.2
27252.4
19755.7
15832.2
9696.84
6471.3
21663
21609.1
18903.3
21907.8
29204
25436.5
34327.1
27113
9012.29
6336.79
5054.1
3817.1
10781.9
8755.33
6692.2
5555.87
20796.9
21082.3
20707.2
16662.8
15549.5
12647.9
12532.8
14406.8
20111.3
20197.4
43157.8
44853.8
29864.6
31017.7
17981.3
15171.3
19046
13464.4
8875.26
9268.72
7575.17
11702
3958.14
5089.27
10495.1
15686.9
6370.1
7773.16
11325.8
20910.5
7980.19
13821.3
2983.51
8121.56
2493.85
6030.43
18761.7
23392.8
19890.4
23613.6
22664.3
22673.2
23611.6
22703.1
17345.3
23825.2
17362.6
23302.3
19835.1
23644.7
19968.8
23700.3
24131.6
22610.6
24220.7
22497.9
16192.6
24059.2
15734.9
24232.1
20926.4
25720.3
26415
38602.4
22213.8
30252.7
26210.9
42603.7
19834.4
22403.8
26499.9
36815.2
19665.2
20889.6
26816.7
36462.6
7201.37
9781.07
18693.2
34119
8816.73
10284.7
23814.4
38153.2
10567.6
10754.4
29373.3
41043.7
26263.7
26754.4
23562
24044.9
37778.9
26567.7
26188.9
23836.3
21596.1
44087.2
24379.9
25023.3
23442.9
25086.5
49090.1
2603.41
3191.98
5790.95
14511.3
3688.26
4306.85
7832.85
15757.9
5265.75
4486.18
10228.9
17161.4
25448.6
23689.7
23818.8
21947.4
21852
18567.9
17165.8
14486.7
13006.8
19281.4
23576.1
21589.9
24717.3
23166.8
22560.1
20233.5
19761.2
17218.2
13651.9
18906
25038.3
27783.8
25138.1
28744
23368
23650.7
23017.3
24172.4
23782.1
23990.5
23542.7
23185.5
25018.2
28979.9
24994.6
29060.9
22459.4
24654.5
22357.6
24696.7
23874.2
23933.2
23934.3
23975.6
20799
19688.5
13669.9
15563.9
20733.8
19272.8
13527.6
15921.8
21030.7
19563.8
13942.1
15497.1
21123
19357.6
14374.1
15463.2
1949.29
1146.31
708.641
1046.44
591.756
527.224
2815.06
1387.87
929.5
1986.6
1413.08
1083.82
2981.91
2006.07
1811.56
3386.13
2436.27
2019.08
20619.3
16545.3
14014.7
19632.3
16289.1
14045.7
14530.6
12024.5
10620.8
10597.5
7965.76
6785.37
5239.78
3279.79
2518.93
19109.8
15631.9
13199
20496.1
16459.9
13773
15907.7
11845.8
9657.96
10862
7398.7
5952.92
5514.24
3208.71
2309.26
28738.7
27548.7
31815.3
27960.6
32952.1
28047.7
40532.2
30049.6
21378.8
21102.2
21239.8
19283.6
24283.7
22149.7
24105.1
20015.2
23848.5
23285.6
21912.5
23018.6
28124
25739.1
29825.6
30513.6
33078.2
34487.3
24390.3
25541.2
21870.8
21353.9
26022.6
26859.9
15976.8
8454.01
15100.7
9369.32
16281.7
8514.49
15126.2
9292.64
16161.7
8540.07
15218.1
9700.48
14917.9
10156.9
15157.4
10035.2
21429.9
17743
21695.3
17951.4
24143.1
21342.9
24845.5
21410.4
20824.1
14493.8
21347.9
14118
22455
18001.1
22869.6
17831.1
25818.6
21408.9
25993
21200.4
20853.5
14631
20886.8
14545.6
13174.9
8519.3
11110.4
7147.14
12061.2
7578.32
10551.5
6657.12
13621.3
9067.85
11347.2
7370.24
13677.7
9363.9
11312
7405.54
2431.82
1233.45
4472.41
2515.75
2580.62
1491.42
4749.94
2951.91
3131.5
2203.65
5221.26
3748.66
12245
19729.9
8682.54
8249.75
5957.38
18957.6
12651.8
7130.04
7148.44
4869.03
20225.3
15385.3
11865.6
9013.15
5796.33
629.81
397.293
1536.17
1132.85
857.773
509.75
2017.17
1538.9
1443.31
943.898
2773.84
2153.59
18643.5
16889.9
12014.7
10611.3
7426.03
6765.61
6142.05
4972.48
4061.55
3143.72
17859.2
15228.1
13236.4
10670.4
9880.14
7877.11
7308.67
5806.81
4969.47
4337.93
13974.2
10310.7
14286.8
10335.1
17560.8
13744.8
17810.3
13938.4
11405.6
8318.74
10905.9
8133.74
14430.9
10326.6
14369.6
10334.4
17891.5
14408.9
17775.4
14424.1
11706.7
8303.44
11687.1
8404.39
8563.67
6410.22
5841.38
5384.93
8148.4
6127.43
5562.29
5013.81
8970.35
6592.74
6003.31
5689.77
9159.48
6589.63
6226.37
5761.66
847.034
692.48
543.481
3673.29
1818.14
1404.03
847.18
782.739
658.536
4113.63
2220.17
1779.25
1234.78
1278
1232.05
4733.99
2866.21
2401.24
14292
11855.7
10376.1
9006.07
7680.87
6943.37
6038.64
5229.03
4837.45
4691.6
4011.6
3632.29
5622.64
3649.33
3076.43
12506.4
10057.5
8577.86
8495.62
6814.6
5910.33
6418.81
5122.03
4461.69
5571.94
4316.63
3658.46
7045.42
4170.68
3436.65
4358.23
2349.7
1297.89
715.944
4888.27
2548.17
1369.5
739.983
4381.83
2352.49
1302.52
719.541
4989.2
2605.17
1409.92
763.059
4383.28
2339
1334.4
743.962
5096.27
2642.77
1475.24
803.473
5469.06
2785.18
1465.88
784.044
5593.08
2872.25
1483.74
791.07
4651.58
2490.91
1404.28
769.902
3908.38
2223.51
1301.89
728.684
4117.52
2271.33
1327.3
742.324
3631.62
2105.74
1255.39
708.451
5002.89
2651.21
1447.81
782.441
4070.51
2306.01
1327.7
741.6
5184.41
2752.54
1480.23
799.895
4136.17
2361.07
1352.98
758.281
3323.22
2025.34
1194.81
683.153
2305.05
1655.16
1069.75
637.44
3341.59
2022.16
1198.14
684.86
2402.62
1681.93
1078.57
641.88
3435.91
2033.13
1221.24
699.814
2676.47
1760.84
1109.26
657.082
3426.52
2002.59
1215.86
718.339
2921.62
1822
1153.72
669.119
3260.48
1965.01
1201.69
698.101
1416.83
1372.97
870.567
260.639
573.087
1225.17
796.546
257.428
1586.34
1430.41
894.063
274.294
751.411
1286.96
816.623
263.675
1915.87
1533.88
925.634
275.04
1072.52
1392.68
844.075
267.766
2341.59
1663.39
981.866
298.829
1451.35
1517.3
886.57
280.641
2667.41
1790.16
1052.69
342.395
1642.67
1623.85
927.317
292.327
2904.76
1938.74
1083.26
332.523
1632.07
1761.36
1003.75
313.315
2812
1875.26
1063.01
331.178
1550.03
1700
965.376
301.486
2950.28
1979.87
1087.22
313.982
1643.18
1807.93
1023.26
315.083
3008.16
2016.82
1108.11
318.326
1723.36
1847.63
1045.18
321.11
424.786
243.337
129.241
61.0356
17.753
423.675
243.322
129.424
61.1435
17.7846
430.968
246.26
130.349
61.4443
17.8571
433.392
247.021
130.859
61.6862
17.9244
444.372
250.038
131.668
61.9249
17.9797
446.171
250.872
132.379
62.2725
18.0771
449.226
254.876
134.286
63.0568
18.2861
458.141
260.077
136.769
64.099
18.5669
457.318
254.431
133.477
62.6353
18.1659
481.517
259.016
134.678
63.0116
18.2566
458.903
253.124
132.63
62.2575
18.0629
480.587
257.191
133.757
62.6288
18.1543
460.236
257.865
135.152
63.332
18.3523
490.156
262.311
136.169
63.6282
18.4218
471.056
262.979
137.478
64.2976
18.612
501.528
266.886
138.164
64.4521
18.6436
431.805
244.036
129.146
60.9423
17.724
447.003
245.048
129.124
60.8872
17.7063
437.952
246.392
130.002
61.2502
17.8015
452.297
246.905
129.796
61.1285
17.7669
450.236
250.083
131.255
61.7005
17.9157
463.244
250.119
130.915
61.5337
17.8696
467.097
253.979
132.475
62.132
18.0247
476.128
253.511
132.143
61.9897
17.9866
482.225
255.969
133.152
62.3821
18.0889
14623.6
22893
15093.8
23003.7
15594.7
22904.5
15658.5
22518.9
14480
20983.8
12729.1
14477.3
12967.3
15604
12687.2
14147.4
12874.3
14242
13250.2
2278.85
493.138
112.383
20.1834
14781
4244.35
1043.05
240.224
43.1079
13209.7
2250.54
485.225
110.354
19.7848
14705.8
4185.43
1027.18
235.84
42.012
13011.5
2193.1
470.54
106.858
19.154
14451.5
4087.84
1001.16
229.62
40.9162
12503.6
2069.47
441.775
100.415
18.0303
13883.3
3907.09
956.691
219.701
39.1919
11476.1
1854.64
396.48
90.7176
16.3693