/*--------------------------------*- C++ -*----------------------------------*\
| =========                 |                                                 |
| \\      /  F ield         | OpenFOAM: The Open Source CFD Toolbox           |
|  \\    /   O peration     | Version:  2306                                  |
|   \\  /    A nd           | Website:  www.openfoam.com                      |
|    \\/     M anipulation  |                                                 |
\*---------------------------------------------------------------------------*/
FoamFile
{
    version     2.0;
    format      ascii;
    arch        "LSB;label=32;scalar=64";
    class       volVectorField;
    location    "2.9";
    object      flux;
}
// * * * * * * * * * * * * * * * * * * * * * * * * * * * * * * * * * * * * * //

dimensions      [0 1 -1 1 0 0 0];

internalField   nonuniform List<vector> 
5712
(
(-0.256308 0.455299 0.279858)
(-0.32754 0.262504 0.92012)
(-0.609967 0.739014 0.22181)
(-0.889561 0.483878 0.943847)
(-0.907406 0.805599 0.166856)
(-1.56655 0.595953 0.97759)
(-0.699258 1.26581 0.264246)
(-1.78048 1.56633 1.51105)
(-0.569836 1.66291 0.325029)
(-1.25146 2.03248 2.07851)
(-0.851568 1.07494 0.322146)
(-1.29464 0.933293 1.51154)
(-0.764815 0.683125 0.310269)
(-1.00144 0.540829 1.25304)
(-0.336074 0.342688 0.322413)
(-0.383874 0.231705 1.11869)
(-0.569983 0.766867 0.194999)
(-0.652742 0.787194 0.119714)
(-0.738394 0.659356 0.521325)
(-0.732651 0.776176 0.308107)
(-0.583159 1.03559 0.191512)
(-0.722217 0.92799 0.103107)
(-0.859264 1.19214 0.572597)
(-0.772654 0.967897 0.284133)
(-0.207584 0.322387 0.212191)
(-0.155046 0.233258 0.152429)
(-0.258376 0.180818 0.681122)
(-0.172928 0.134226 0.475848)
(-0.480646 0.386696 0.160352)
(-0.38232 0.315526 0.114045)
(-0.822207 0.233868 0.670204)
(-0.593313 0.18853 0.483717)
(-0.638195 0.697382 0.375866)
(-0.66231 0.726544 0.158619)
(-0.70645 0.714839 0.323563)
(-0.669985 0.607789 0.143565)
(-0.244568 0.560482 0.147827)
(-0.193232 0.435146 0.349199)
(-1.51411 0.436899 1.30967)
(-2.02761 0.495487 0.355543)
(-0.978152 0.704803 0.468097)
(-1.20125 0.700533 0.159118)
(-2.04067 1.47358 1.69124)
(-2.64761 1.52269 0.460106)
(-1.05676 1.04743 0.440229)
(-1.20953 1.07776 0.153299)
(-1.12028 0.594032 0.932473)
(-1.58339 0.501003 0.289724)
(-0.976859 0.649185 0.477945)
(-1.29589 0.463404 0.167134)
(-0.56959 0.301953 0.808152)
(-0.920393 0.309388 0.25736)
(-0.108281 0.244848 0.218)
(-0.0364105 0.335136 0.108077)
(-0.114243 0.127903 0.330615)
(-0.0410941 0.15208 0.128022)
(-0.327235 0.336226 0.235664)
(-0.131747 0.451632 0.127622)
(-0.450244 0.199583 0.32291)
(-0.165199 0.230744 0.123005)
(-0.318829 0.374415 0.301799)
(-0.122566 0.616342 0.171457)
(-0.341739 0.258676 0.278174)
(-0.109383 0.418983 0.119928)
(-0.583748 0.0989343 0.415749)
(-0.18545 0.249958 0.148703)
(-0.753796 0.0822997 0.143284)
(-0.253924 0.186949 0.0497976)
(-0.931076 0.696455 0.46952)
(-0.460823 0.859426 0.322982)
(-0.852191 0.715318 0.291752)
(-0.50575 0.853778 0.212129)
(-0.877491 0.853034 0.533127)
(-0.567661 0.863222 0.438061)
(-0.771329 0.865262 0.291562)
(-0.582362 0.84992 0.252471)
(-0.666816 0.606665 0.273462)
(-0.39586 0.820698 0.182498)
(-0.66589 0.626495 0.381771)
(-0.337797 0.811937 0.251928)
(-0.878879 0.703053 0.193102)
(-0.564119 0.846711 0.141346)
(-0.88069 0.701952 0.0990815)
(-0.569864 0.844079 0.0809579)
(-0.814045 0.870343 0.188636)
(-0.617384 0.837648 0.163043)
(-0.823797 0.866291 0.0988147)
(-0.620751 0.828944 0.0950785)
(-0.720566 0.559518 0.183532)
(-0.45851 0.823463 0.119024)
(-0.746519 0.539608 0.094822)
(-0.470241 0.826039 0.0601869)
(-0.67934 0.676844 0.242261)
(-0.292725 0.787497 0.131054)
(-0.312527 0.855155 0.179576)
(-0.378466 1.18311 0.218909)
(-0.682262 0.716134 0.328487)
(-0.319413 0.904361 0.233355)
(-0.271335 0.846768 0.257697)
(-0.38155 1.27856 0.372369)
(-0.719835 0.642204 0.161422)
(-0.291966 0.695592 0.0760311)
(-0.355297 0.859192 0.106407)
(-0.382529 1.14076 0.125965)
(-0.75579 0.635581 0.0807159)
(-0.299342 0.65208 0.0332577)
(-0.387065 0.868763 0.0461356)
(-0.400434 1.13375 0.0467219)
(-0.140372 0.195044 0.2815)
(-0.153039 0.25261 0.506151)
(-0.0469128 0.495339 0.191985)
(-0.090504 0.853772 0.566452)
(-0.412399 0.244024 0.332008)
(-0.435507 0.275467 0.496667)
(-0.157945 0.642773 0.237054)
(-0.276858 0.979242 0.595253)
(-0.528094 0.307262 0.379877)
(-0.588591 0.309699 0.451595)
(-0.250797 0.821856 0.307392)
(-0.424923 1.10645 0.584541)
(-0.488268 0.957489 0.465897)
(-0.0487196 1.036 0.566938)
(-0.53156 0.802675 0.340805)
(-0.648964 0.767971 0.325398)
(-0.348573 1.09327 0.358434)
(-0.0353661 1.04597 0.565345)
(-0.300488 0.982071 0.510634)
(-0.474317 0.820964 0.491324)
(-0.760844 0.706596 0.49832)
(-0.516525 1.2418 0.724384)
(-0.383971 0.951486 0.459084)
(-0.462502 0.934266 0.344448)
(-0.400069 0.826177 0.291563)
(-0.341627 0.81098 0.325274)
(-0.533876 1.43111 0.516678)
(-0.136078 0.0766884 0.583222)
(-0.113122 0.0916378 0.517894)
(-0.0773798 0.162207 0.67791)
(-0.0769596 0.360158 0.647392)
(-0.384977 0.109547 0.533988)
(-0.327853 0.122803 0.492485)
(-0.229189 0.227023 0.671028)
(-0.21855 0.409422 0.635134)
(-0.482478 0.165259 0.462853)
(-0.413854 0.139561 0.448907)
(-0.299557 0.312302 0.631431)
(-0.269659 0.477484 0.613655)
(-0.235445 1.04243 0.411048)
(-0.298223 1.04217 0.32004)
(-0.483267 0.935443 0.371418)
(-0.499193 0.931744 0.319355)
(-0.549781 0.792866 0.399701)
(-0.501183 0.736991 0.350817)
(-0.619084 0.596798 0.424538)
(-0.542008 0.53288 0.401683)
(-0.410944 0.414655 0.585165)
(-0.345562 0.567173 0.592387)
(-0.357739 0.945751 0.384787)
(-0.38145 0.923421 0.32942)
(-0.470315 0.947688 0.358275)
(-0.378806 0.941528 0.336166)
(-0.426018 0.817466 0.36332)
(-0.317299 0.772962 0.376118)
(-0.366404 0.66989 0.406023)
(-0.258537 0.603902 0.4471)
(-0.42146 0.443782 0.531102)
(-0.278805 0.577522 0.604261)
(-0.404775 0.934287 0.314932)
(-0.198207 1.05546 0.24667)
(-0.34601 0.930156 0.217499)
(-0.379413 1.07911 0.278605)
(-0.497298 0.908006 0.433816)
(-0.653914 0.945482 0.532021)
(-0.546636 0.884605 0.301925)
(-0.798654 0.949071 0.479945)
(-0.273876 0.843436 0.181326)
(-0.30854 0.859507 0.240692)
(-0.357415 0.837017 0.268509)
(-0.124962 0.835513 0.22032)
(-0.307812 0.922168 0.0511847)
(-0.59626 1.08276 0.185356)
(-0.291676 0.917245 0.0273316)
(-0.637655 1.08094 0.0667936)
(-0.540904 0.857721 0.154604)
(-0.9847 0.959146 0.323814)
(-0.550178 0.849895 0.0576654)
(-1.04318 0.956062 0.112614)
(-0.230886 0.846683 0.0219869)
(-0.509416 0.857634 0.155144)
(-0.20915 0.84607 0.0131292)
(-0.541323 0.856807 0.0543358)
(-0.317372 0.70547 0.17671)
(-0.244481 0.671248 0.179866)
(-0.438457 0.453317 0.200671)
(-0.177498 0.501924 0.122668)
(-0.329631 0.699966 0.278523)
(-0.0765382 0.65266 0.220959)
(-0.383982 0.445784 0.327625)
(-0.0400679 0.501023 0.222887)
(-0.303921 0.715896 0.0388673)
(-0.362218 0.669959 0.0982962)
(-0.458915 0.463592 0.0991006)
(-0.21398 0.505379 0.0549915)
(-0.2506 0.718908 0.0559067)
(-0.425676 0.663444 0.0731694)
(-0.405337 0.4782 0.0798316)
(-0.279627 0.506355 0.0600438)
(-0.0912975 0.0638398 0.409378)
(-0.0813294 0.0445773 0.247272)
(-0.0740882 0.0316498 0.0771382)
(-0.0653253 0.0378248 0.464669)
(-0.0605512 0.0270236 0.264914)
(-0.0549352 0.0253844 0.0864161)
(-0.271769 0.0882685 0.392369)
(-0.227461 0.0551316 0.244652)
(-0.200093 0.0427198 0.0819525)
(-0.172643 0.0753524 0.458348)
(-0.142081 0.0620069 0.265441)
(-0.12534 0.0545034 0.0863391)
(-0.337373 0.104838 0.361203)
(-0.295988 0.0910515 0.22438)
(-0.275658 0.0929316 0.0733824)
(-0.208599 0.133309 0.448538)
(-0.174222 0.111609 0.267396)
(-0.166386 0.101529 0.0890817)
(-0.265847 1.0132 0.205402)
(-0.239856 0.932764 0.108478)
(-0.235678 0.873605 0.0284406)
(-0.439099 0.926742 0.256121)
(-0.342154 0.874574 0.167577)
(-0.291747 0.829264 0.0583768)
(-0.408373 0.661859 0.300789)
(-0.309775 0.625699 0.207362)
(-0.255414 0.606181 0.0714171)
(-0.429775 0.444423 0.344836)
(-0.346736 0.39481 0.221732)
(-0.304925 0.374307 0.0733288)
(-0.259749 0.20257 0.445241)
(-0.175818 0.153906 0.275571)
(-0.139481 0.132378 0.0964136)
(-0.63219 0.912321 0.246109)
(-0.557453 0.862125 0.135525)
(-0.489675 0.814669 0.0420431)
(-0.401637 0.929335 0.237392)
(-0.341506 0.864417 0.169868)
(-0.289384 0.810279 0.0637538)
(-0.351393 0.683366 0.277739)
(-0.280162 0.601197 0.205005)
(-0.229262 0.553741 0.0748159)
(-0.290743 0.442638 0.348007)
(-0.215745 0.36407 0.243316)
(-0.17056 0.332302 0.0865125)
(-0.292016 0.21594 0.449747)
(-0.166161 0.15363 0.278076)
(-0.0968901 0.125284 0.0981402)
(-0.407901 1.05449 0.0116953)
(-0.554497 1.03714 0.0795246)
(-0.321364 1.14478 0.111549)
(-0.41714 1.03185 0.162257)
(-0.434996 1.17844 0.0844332)
(-0.641154 1.03329 0.0977809)
(-0.387418 1.41818 0.212715)
(-0.566365 1.08432 0.202847)
(-0.00283185 0.819453 0.0238917)
(-0.0302774 0.836507 0.0416614)
(0.0189849 0.807606 0.0255187)
(-0.00465688 0.751416 0.0434176)
(-0.119152 0.919883 0.0193161)
(-0.135711 0.870527 0.0565665)
(-0.0495912 0.900513 0.0346401)
(-0.0273169 0.771173 0.0743124)
(-0.0293422 0.890049 0.128124)
(-0.098459 0.887405 0.0629317)
(-0.37305 0.823327 0.162762)
(-0.54624 0.885641 0.0941563)
(-0.265473 1.10404 0.0871759)
(-0.143686 0.985355 0.151551)
(-0.388226 1.08417 0.13478)
(-0.385046 1.09929 0.0389217)
(-0.59372 1.17452 0.237152)
(-0.653444 1.21313 0.0593184)
(0.0224373 0.901559 -0.0724274)
(0.159427 0.934798 0.0312379)
(-0.299555 0.809697 0.0729585)
(-0.282423 0.785531 0.0551674)
(-0.279825 0.984621 0.0508995)
(-0.215958 1.00852 0.0483179)
(-0.0417481 0.645007 0.397755)
(-0.0225855 0.338104 0.188914)
(-0.0263837 0.599739 0.109021)
(-0.0103392 0.375656 0.0698055)
(-0.0823286 0.654264 0.40417)
(-0.0116602 0.340972 0.196734)
(0.0120334 0.597054 0.136408)
(0.0323931 0.372657 0.0877821)
(-0.368611 0.646999 0.399672)
(-0.099931 0.343028 0.212242)
(-0.247541 0.596852 0.198509)
(-0.0672327 0.389111 0.143219)
(-0.354297 0.579241 0.141205)
(-0.109438 0.40763 0.103922)
(-0.428255 0.585562 0.0719044)
(-0.139781 0.404145 0.0696539)
(-0.349945 0.833969 0.50113)
(-0.474459 0.717864 0.446612)
(-0.323995 0.825235 0.236494)
(-0.463615 0.714518 0.246196)
(-0.554642 0.918787 0.530922)
(-0.589949 0.833863 0.49915)
(-0.52976 0.924006 0.262045)
(-0.559787 0.823117 0.265016)
(-0.228496 0.809118 0.214321)
(-0.382019 0.597939 0.221553)
(-0.263084 0.848469 0.437335)
(-0.378893 0.592142 0.36782)
(-0.343359 0.840917 0.14203)
(-0.447307 0.709699 0.148699)
(-0.378428 0.850268 0.0809389)
(-0.452613 0.70117 0.091137)
(-0.551737 0.945087 0.162209)
(-0.550504 0.814779 0.16145)
(-0.57777 0.944461 0.0905133)
(-0.553513 0.803682 0.0965149)
(-0.230401 0.798591 0.126573)
(-0.37053 0.598549 0.136335)
(-0.250336 0.794964 0.0726665)
(-0.378104 0.59452 0.0877521)
(-0.00500897 0.528997 0.194861)
(-0.0653457 0.343808 0.141704)
(-0.308987 0.471577 0.196314)
(-0.205895 0.288528 0.145896)
(0.0177708 0.494776 0.302717)
(-0.0486537 0.306834 0.188323)
(-0.286373 0.454351 0.291442)
(-0.18288 0.268332 0.202086)
(-0.022407 0.540731 0.118551)
(-0.0745657 0.366257 0.102329)
(-0.316442 0.478394 0.12448)
(-0.223699 0.297724 0.0945372)
(-0.0404615 0.540716 0.0679527)
(-0.0852743 0.380351 0.0647993)
(-0.3191 0.476776 0.0792823)
(-0.232448 0.299754 0.055343)
(0.0255997 0.0979824 0.478498)
(0.0298785 0.049021 0.349316)
(-0.00805774 0.172208 0.251508)
(-0.00259775 0.0809793 0.266227)
(0.111392 0.105168 0.476729)
(0.113693 0.0619343 0.355713)
(0.00461483 0.184048 0.253321)
(0.0099398 0.101279 0.264992)
(0.016353 0.131224 0.493168)
(0.0727542 0.0971369 0.365142)
(-0.076402 0.205711 0.257007)
(-0.0519953 0.140472 0.256742)
(0.407481 0.52383 0.550098)
(0.376505 0.80929 0.583927)
(0.219084 0.375271 0.510026)
(0.163599 0.35829 0.350284)
(0.00912261 0.241629 0.210505)
(0.414234 0.79616 0.553764)
(0.431203 0.557146 0.524049)
(0.171032 0.325099 0.498764)
(0.250591 0.325825 0.424153)
(0.0233202 0.19546 0.292178)
(-0.402832 0.82379 0.519067)
(-0.321586 0.65202 0.477724)
(-0.293502 0.519489 0.390229)
(-0.282476 0.40146 0.309794)
(-0.183493 0.23279 0.205963)
(0.0317444 0.024225 0.311337)
(0.0306251 0.0183319 0.288094)
(-0.000617876 0.036296 0.299563)
(-0.00587192 0.0218404 0.35455)
(0.100484 0.0375993 0.316702)
(0.103017 0.025585 0.279554)
(-0.00256222 0.0613824 0.300552)
(-0.014531 0.0461602 0.347729)
(0.100308 0.0700681 0.323307)
(0.128184 0.0569241 0.270762)
(-0.0385553 0.100526 0.300452)
(-0.0556562 0.0796006 0.339194)
(0.204983 0.81513 0.41843)
(0.0962505 0.802346 0.294958)
(0.328843 0.557291 0.400997)
(0.210364 0.546727 0.281968)
(0.144427 0.363056 0.326768)
(0.112161 0.378404 0.269486)
(0.161079 0.304425 0.316706)
(0.143588 0.291303 0.279437)
(-0.031977 0.164391 0.277069)
(-0.075231 0.133854 0.333069)
(-0.149202 0.761111 0.347176)
(-0.0945966 0.704195 0.301388)
(-0.0428659 0.59523 0.315343)
(0.0413141 0.53547 0.278214)
(-0.0467234 0.46608 0.278516)
(0.0272971 0.427682 0.257628)
(-0.0819324 0.351791 0.257189)
(-0.0265596 0.330961 0.263026)
(-0.10591 0.205074 0.220242)
(-0.12285 0.214728 0.317789)
(-0.213178 0.606362 0.281717)
(-0.196719 0.504548 0.191628)
(-0.402677 0.607976 0.18734)
(-0.245471 0.489656 0.11168)
(-0.323454 0.722112 0.35969)
(-0.328538 0.610146 0.277474)
(-0.490957 0.71778 0.25071)
(-0.39979 0.597693 0.200741)
(-0.326712 0.513404 0.157923)
(-0.197772 0.430737 0.0970489)
(-0.167184 0.499331 0.229475)
(-0.167972 0.434587 0.17339)
(-0.473685 0.606774 0.189781)
(-0.212662 0.480331 0.0899884)
(-0.520874 0.602622 0.070152)
(-0.238193 0.479127 0.0405455)
(-0.547314 0.713603 0.197539)
(-0.408096 0.606798 0.142465)
(-0.584065 0.706112 0.069708)
(-0.436818 0.604272 0.0576361)
(-0.394017 0.521852 0.167746)
(-0.163327 0.422689 0.0769096)
(-0.440811 0.52078 0.0665072)
(-0.188313 0.428378 0.0356163)
(-0.271711 0.398331 0.138533)
(-0.224055 0.350856 0.132701)
(-0.226203 0.247519 0.12961)
(-0.336182 0.277828 0.194821)
(-0.180827 0.384572 0.193252)
(-0.206804 0.344765 0.189844)
(-0.195348 0.234961 0.166748)
(-0.311898 0.26407 0.251875)
(-0.311206 0.415334 0.137009)
(-0.223461 0.357545 0.0932923)
(-0.254444 0.25405 0.0918163)
(-0.385007 0.295796 0.130338)
(-0.37352 0.425833 0.0429483)
(-0.242862 0.357923 0.0219554)
(-0.311216 0.265059 0.012553)
(-0.398009 0.300423 0.0264666)
(0.0331444 0.0846173 0.202299)
(0.0367393 0.0752421 0.0842145)
(0.0419402 0.0625494 0.0247099)
(-0.00057006 0.378986 0.237836)
(0.0126629 0.200529 0.0609885)
(0.0145778 0.163623 0.0161416)
(0.121909 0.0811132 0.202131)
(0.133535 0.0813137 0.0900069)
(0.134992 0.0725659 0.0275254)
(0.00580567 0.406412 0.235741)
(0.0365012 0.235125 0.0630426)
(0.0374099 0.199344 0.017465)
(0.152868 0.110263 0.184213)
(0.176458 0.125542 0.0870643)
(0.183422 0.129448 0.0224149)
(-0.0328899 0.442078 0.229105)
(0.0348231 0.291464 0.06351)
(0.0489093 0.260345 0.0147887)
(0.0540897 0.77341 0.180446)
(0.0472044 0.738509 0.0896209)
(0.0352979 0.709981 0.0189676)
(0.160424 0.540854 0.171511)
(0.167003 0.537077 0.0818156)
(0.157358 0.532693 0.0186963)
(0.131201 0.403447 0.177178)
(0.152742 0.408579 0.0846622)
(0.151938 0.41286 0.0226685)
(0.162238 0.356747 0.184203)
(0.180602 0.35218 0.0861849)
(0.178579 0.346617 0.017929)
(-0.0686222 0.496566 0.226218)
(0.0142162 0.357414 0.0616503)
(0.0213979 0.324608 0.00918109)
(-0.136605 0.656887 0.231297)
(-0.0763712 0.620689 0.114538)
(-0.038666 0.593941 0.0296463)
(0.044671 0.50182 0.217654)
(0.0955248 0.480195 0.107841)
(0.1227 0.466575 0.0291006)
(0.0406138 0.428872 0.206861)
(0.107345 0.409103 0.102149)
(0.136591 0.395886 0.0295773)
(0.0143747 0.425864 0.205754)
(0.0882002 0.385647 0.0872343)
(0.10977 0.360376 0.0211352)
(-0.112902 0.601493 0.244018)
(0.0214161 0.402507 0.0568515)
(0.0378858 0.364059 0.0137385)
(0.000743015 0.177381 0.0756548)
(0.00163793 0.110616 0.0275035)
(0.00239408 0.0841058 0.00538589)
(0.00369833 0.0809749 -0.00900971)
(0.0109888 0.203506 0.0313753)
(0.00655175 0.122453 0.0120779)
(0.00563773 0.0896244 0.00325355)
(0.00571172 0.0829248 -0.00184011)
(-0.000774634 0.177875 0.0802769)
(0.00315545 0.110112 0.0302351)
(0.00801083 0.0841983 0.00774192)
(0.0130281 0.0816563 -0.00559158)
(0.0176297 0.208137 0.0397734)
(0.0120742 0.125108 0.0168216)
(0.0137821 0.0912553 0.00796595)
(0.015558 0.0835355 0.00372984)
(-0.0113767 0.176274 0.0864955)
(0.000962894 0.107941 0.0337751)
(0.0112896 0.0833846 0.0116926)
(0.0229716 0.0803967 -0.000431491)
(0.00546757 0.212109 0.0682465)
(0.00978361 0.126366 0.0325808)
(0.0134509 0.0923966 0.0133354)
(0.0159182 0.0822962 0.0034084)
(0.000928021 0.230136 0.0519888)
(0.00596055 0.135199 0.030236)
(0.00679936 0.0958273 0.0121548)
(0.00690982 0.0872491 0.00044406)
(-0.009583 0.237641 0.0493121)
(-0.000310659 0.141152 0.0334197)
(0.0053696 0.0997154 0.0206405)
(0.0094888 0.0913216 0.0128375)
(-0.0426375 0.18905 0.0719603)
(-0.0088761 0.11574 0.0324834)
(0.0050007 0.0866172 0.0105746)
(0.0147844 0.0809795 -0.00739981)
(-0.0665558 0.144867 0.0621719)
(-0.01558 0.0962539 0.0275803)
(0.00103294 0.0772026 0.0123276)
(0.024857 0.0778335 -0.0077291)
(-0.0305927 0.161266 0.0853698)
(-0.00401026 0.102056 0.0334656)
(0.00832549 0.0793006 0.0108068)
(0.0210124 0.0742556 -0.00577461)
(-0.0551244 0.130109 0.0776477)
(-0.0119527 0.0892314 0.0304996)
(0.000307024 0.0734891 0.0121618)
(0.0219071 0.0742678 -0.0129869)
(-0.0449675 0.207459 0.0578074)
(-0.0104795 0.125979 0.0304551)
(0.00586594 0.0919486 0.0129385)
(0.0181814 0.0855141 -0.00202234)
(-0.0743242 0.153521 0.0478277)
(-0.018449 0.101368 0.024576)
(0.000964289 0.0796375 0.0134876)
(0.0291326 0.0807205 0.000412536)
(-0.0498717 0.217701 0.0429375)
(-0.0137947 0.13281 0.0271374)
(0.00516586 0.0955842 0.0168558)
(0.0214113 0.0884811 0.0107957)
(-0.0798845 0.157042 0.0330273)
(-0.0210687 0.10494 0.0209841)
(8.02153e-06 0.081506 0.0144702)
(0.0304703 0.0820774 0.00890759)
(-0.000126305 0.125731 0.0972636)
(0.000904598 0.0908163 0.0332736)
(0.00203633 0.0747012 0.00518603)
(0.00457984 0.0762687 -0.0178891)
(0.00111796 0.0668606 0.0977967)
(0.00128095 0.0665491 0.0308571)
(0.00131062 0.0630997 0.00694546)
(0.00421831 0.0713911 -0.0246748)
(0.0017531 0.125406 0.0972171)
(0.00318991 0.0898681 0.0338051)
(0.00617487 0.0743434 0.00613859)
(0.0122831 0.0759777 -0.0169686)
(0.00582004 0.0707979 0.0947677)
(0.00443547 0.0675892 0.0300476)
(0.00397565 0.0634962 0.00731482)
(0.0113855 0.0718032 -0.0238726)
(-0.0194977 0.128016 0.0954684)
(-0.00256588 0.0891447 0.0340173)
(0.00687168 0.0741299 0.00929606)
(0.0210662 0.0759422 -0.0121977)
(-0.010093 0.0840768 0.0883806)
(0.000811839 0.0714472 0.0284783)
(0.00534277 0.0649702 0.00909634)
(0.0201176 0.0737142 -0.0196288)
(-0.00592336 0.124097 0.0835786)
(0.00468261 0.0852904 0.0314536)
(0.0101114 0.071736 0.012943)
(0.0209945 0.0771186 -0.00194054)
(-0.00298311 0.0951567 0.0968868)
(0.00374332 0.0738806 0.03194)
(0.00470295 0.0665901 0.0129737)
(0.0202937 0.0728296 -0.0229967)
(-0.0481204 0.110139 0.0752573)
(-0.00930572 0.0809533 0.0282825)
(0.00196311 0.0691292 0.0131389)
(0.0283109 0.0729279 -0.00532298)
(0.00328485 0.0036509 0.0786706)
(0.00187342 0.0464084 0.0218785)
(0.00147749 0.0475267 0.0062726)
(0.00315685 0.0141428 -0.0168714)
(0.00681176 -0.0715406 0.031596)
(0.00280482 0.0347909 0.00797463)
(0.00153098 0.040665 0.00182263)
(0.00146785 0.0154654 -0.00356341)
(0.00639928 0.0141089 0.0808538)
(0.00441569 0.0497883 0.0233063)
(0.00338843 0.0487601 0.00713413)
(0.00820856 0.0150215 -0.0160529)
(0.0172586 -0.0576423 0.0327537)
(0.00744108 0.0386367 0.00860252)
(0.00392079 0.0417915 0.00235978)
(0.00380708 0.0158394 -0.00293612)
(0.00255398 0.0335604 0.0816997)
(0.00480264 0.0557297 0.0249013)
(0.00475615 0.0508571 0.00896716)
(0.0135381 0.0150169 -0.0140973)
(0.0213628 -0.0344557 0.033056)
(0.0104119 0.0450567 0.00930354)
(0.00591093 0.0435756 0.00309848)
(0.00601248 0.0160954 -0.00214016)
(-0.0066477 0.0569038 0.0734675)
(0.00420939 0.0626016 0.0235052)
(0.00597052 0.0534414 0.010349)
(0.0187621 0.0164299 -0.0111565)
(0.0156698 -0.0106539 0.0318968)
(0.0111632 0.0519704 0.0095995)
(0.00705221 0.0459283 0.00423474)
(0.00767189 0.0168742 -0.000741423)
(-0.0265277 0.071261 0.0670725)
(5.27627e-05 0.0685981 0.0234067)
(0.00370452 0.0565667 0.0115361)
(0.018266 0.0195363 -0.00649827)
(0.0025519 -0.00682563 0.028279)
(0.00953826 0.0568465 0.0100999)
(0.00668732 0.0480749 0.00581373)
(0.00796248 0.0175488 0.00119915)
(-0.0559068 0.0764335 0.0470393)
(-0.0058387 0.0747281 0.0191356)
(0.00330912 0.058261 0.00955168)
(0.0212228 0.0184117 -0.00168547)
(-0.0188092 -0.0255719 0.0264556)
(0.0022572 0.0611313 0.0133136)
(0.00442088 0.0518429 0.00838062)
(0.0075407 0.0186965 0.0046365)
(-0.0440971 0.0744175 0.0543387)
(-0.00214326 0.0720118 0.0193203)
(0.00382397 0.0570269 0.00925994)
(0.019848 0.0184335 -0.00453859)
(-0.0124354 -0.0262751 0.0266808)
(0.00547663 0.0591151 0.0114882)
(0.00576224 0.0499954 0.00709173)
(0.008109 0.018026 0.00292631)
(-0.0667946 0.0764899 0.0378772)
(-0.0104503 0.0766458 0.0186576)
(0.0016856 0.0595837 0.0107562)
(0.0229709 0.0170313 0.00200702)
(-0.024696 -0.0293406 0.0238469)
(-0.000968698 0.0629247 0.0141797)
(0.00291678 0.0532616 0.00944087)
(0.00704264 0.01886 0.0062964)
(-0.0749402 0.0785439 0.0267487)
(-0.0151048 0.0787741 0.0170886)
(-0.000599992 0.0615392 0.0120823)
(0.0226696 0.0175234 0.00783277)
(-0.0302433 -0.0250125 0.0200324)
(-0.00457897 0.0651318 0.0142864)
(0.000925999 0.0549473 0.0104406)
(0.00607154 0.0194115 0.00815176)
(0.00166762 0.081967 -0.000772566)
(0.000775662 0.0659812 0.000401978)
(0.000424025 0.0474311 0.000407229)
(0.00026479 0.0284413 0.000296387)
(0.000200435 0.00946747 0.000233786)
(0.00221574 0.0810065 -9.98098e-05)
(0.00119937 0.0658476 0.000265037)
(0.000698606 0.0474653 0.000229274)
(0.000446803 0.0284772 0.000164005)
(0.000340288 0.00948 0.000129457)
(0.00397711 0.0829573 0.000509588)
(0.00180662 0.0664792 0.00110724)
(0.00098539 0.0476836 0.000823793)
(0.000618637 0.0285622 0.000566276)
(0.000471693 0.00950329 0.000440198)
(0.00503274 0.0821692 0.00129319)
(0.00269085 0.0664864 0.0010684)
(0.00156817 0.0478049 0.000711089)
(0.0010075 0.0286434 0.000476305)
(0.000769614 0.00952979 0.00036781)
(0.00526581 0.0847639 0.00193521)
(0.00226187 0.0671921 0.00197089)
(0.0012186 0.0480127 0.0013525)
(0.000764295 0.0287156 0.000916753)
(0.000584207 0.00954843 0.000710955)
(0.00678594 0.083573 0.00527139)
(0.00357175 0.0672573 0.00361158)
(0.00208557 0.0482074 0.00230242)
(0.00134679 0.0288405 0.0015287)
(0.00103215 0.00958927 0.00117773)
(0.00357736 0.0849729 0.00637058)
(0.00183485 0.0681554 0.00427738)
(0.00106643 0.0487428 0.00272278)
(0.000689812 0.0291176 0.00181112)
(0.000528938 0.00967465 0.00139903)
(0.00250176 0.0870201 0.00921796)
(0.00106507 0.0694608 0.00566928)
(0.000568796 0.0495131 0.00351214)
(0.000358211 0.0295157 0.00231747)
(0.000272136 0.0097973 0.00178807)
(0.00533494 0.086679 0.00341636)
(0.00231976 0.0680607 0.0028818)
(0.00126996 0.04849 0.00191153)
(0.000804071 0.0289555 0.00128374)
(0.000612145 0.00962171 0.000989523)
(0.0025337 0.0926166 0.00361654)
(0.000946141 0.0691329 0.00271122)
(0.000489176 0.0488013 0.00176084)
(0.000303614 0.0290749 0.00117978)
(0.0002296 0.009655 0.000909771)
(0.00563143 0.0870418 0.00235212)
(0.00270744 0.0678331 0.00230252)
(0.00154828 0.0482575 0.00155631)
(0.000994496 0.0288214 0.00105441)
(0.000761376 0.00957874 0.000816559)
(0.00239195 0.0924513 0.00420917)
(0.000942124 0.0687417 0.00279255)
(0.000501578 0.0485447 0.00175788)
(0.000313561 0.0289392 0.00117057)
(0.000236805 0.00961246 0.000900328)
(0.00407926 0.0875475 0.00444302)
(0.00150784 0.0688555 0.00344762)
(0.00076729 0.0489714 0.00226014)
(0.000474955 0.0292062 0.0015153)
(0.000359633 0.00969938 0.00117094)
(0.0023942 0.0943192 0.00481721)
(0.000843513 0.0699027 0.00324713)
(0.000427582 0.0492396 0.00206627)
(0.000265111 0.0293011 0.00137688)
(0.000200794 0.00972517 0.00106219)
(0.00348862 0.0895043 0.0073337)
(0.000948541 0.0701189 0.0045689)
(0.000390044 0.0496957 0.00283629)
(0.000221493 0.0295775 0.00187244)
(0.000162009 0.00981381 0.00144388)
(0.00192177 0.0963929 0.00612306)
(0.000445827 0.0710274 0.00377131)
(0.000167268 0.0498668 0.0023373)
(9.13001e-05 0.0296221 0.0015426)
(6.5607e-05 0.00982452 0.0011875)
(0.00138382 0.0842773 -0.00146816)
(0.000583953 0.066304 0.000218328)
(0.000308331 0.0474277 0.000303185)
(0.000189017 0.0284123 0.000227717)
(0.000142043 0.00945647 0.000181007)
(0.00100115 0.0886908 -0.000807049)
(0.00046424 0.066663 7.20121e-05)
(0.000255946 0.0474369 0.000119211)
(0.000158956 0.0283956 9.1344e-05)
(0.000119842 0.00944989 7.35892e-05)
(0.00338245 0.0851957 -0.000628962)
(0.00147031 0.066696 0.000660177)
(0.000795336 0.0476154 0.000561054)
(0.000494011 0.0285 0.00039488)
(0.000374195 0.00948204 0.000310102)
(0.00258804 0.0894156 -0.000507294)
(0.0012267 0.0669571 0.000228686)
(0.000687499 0.0475798 0.000209236)
(0.00043055 0.0284629 0.000148845)
(0.000325594 0.00946966 0.000118163)
(0.00473163 0.0870455 0.000425918)
(0.00180946 0.0673536 0.00117221)
(0.000939983 0.047912 0.000853034)
(0.000576011 0.0286378 0.000586141)
(0.000435149 0.00952226 0.000459203)
(0.00352644 0.091011 0.00061775)
(0.00169788 0.0674927 0.000748092)
(0.00096124 0.0478355 0.000500382)
(0.000603979 0.0285841 0.000333861)
(0.000459787 0.00950514 0.000260761)
(0.00431502 0.0901403 0.00276022)
(0.00208641 0.0681163 0.00225952)
(0.00120054 0.0482128 0.00147544)
(0.000768584 0.028773 0.0009951)
(0.000589337 0.00956133 0.000774762)
(0.0024168 0.0929182 0.00182694)
(0.00129898 0.068072 0.00142405)
(0.000758934 0.0481289 0.000911024)
(0.000482491 0.0287247 0.000610139)
(0.000370689 0.00954585 0.000475357)
(0.00225152 0.0931047 0.00503032)
(0.00114924 0.0685118 0.0029509)
(0.000675206 0.0483842 0.00180459)
(0.000436377 0.0288537 0.0011907)
(0.000334552 0.00958524 0.000916362)
(-0.0143939 0.354012 0.0599548)
(-0.0188036 0.541171 0.13729)
(-0.033061 0.373333 0.0599946)
(-0.0462584 0.554405 0.135554)
(-0.0360787 0.402407 0.0649009)
(-0.0583517 0.572519 0.134087)
(-0.0168347 0.424146 0.0774649)
(-0.0487001 0.586078 0.1396)
(0.00826016 0.411112 0.0812936)
(-0.0131674 0.568247 0.144621)
(-0.030946 0.386958 0.0319189)
(-0.04956 0.43487 0.0508737)
(0.00235625 0.385277 0.0532601)
(-0.000481807 0.451935 0.0863558)
(-0.0454377 0.390403 0.0165553)
(-0.0708182 0.433225 0.0244827)
(-0.0563764 0.39785 0.00558336)
(-0.0800747 0.43955 0.00788329)
(-0.0231005 0.311873 0.314991)
(-0.00533352 0.0532518 0.075044)
(-0.00119647 0.0113358 0.017149)
(-0.000263259 0.00253268 0.00381841)
(-6.57566e-05 0.000447075 0.000945155)
(-0.00826059 0.346331 0.0856204)
(-0.00354876 0.09836 0.0230174)
(-0.000508738 0.0238073 0.00611024)
(-0.000132464 0.00538208 0.0013856)
(-5.62964e-05 0.000949802 0.000299927)
(-0.0709867 0.316342 0.312189)
(-0.0163213 0.0530098 0.0737497)
(-0.00367401 0.0111966 0.016833)
(-0.000804418 0.00249116 0.00371586)
(-0.000201184 0.000438469 0.000926436)
(-0.0198994 0.350866 0.0870835)
(-0.00524341 0.0982785 0.025672)
(-0.00125473 0.0236842 0.00631356)
(-0.000262263 0.00532698 0.00146394)
(-6.96376e-05 0.000931804 0.000362338)
(-0.119589 0.321636 0.299736)
(-0.0275577 0.0531143 0.0702797)
(-0.00621915 0.0111149 0.015974)
(-0.0013659 0.00246087 0.00352051)
(-0.000340827 0.000432078 0.000878514)
(-0.0313337 0.355786 0.0845244)
(-0.0088121 0.0984768 0.0248447)
(-0.00210906 0.0235864 0.0060949)
(-0.000483626 0.00528253 0.00140629)
(-0.000120409 0.000922352 0.000349317)
(-0.161179 0.321668 0.276559)
(-0.0372552 0.0519507 0.0642351)
(-0.00844057 0.0107666 0.014549)
(-0.001859 0.0023764 0.00320251)
(-0.000464328 0.000416824 0.00079913)
(-0.0363584 0.354606 0.082327)
(-0.0110496 0.0971566 0.0236975)
(-0.00273119 0.0231707 0.00573727)
(-0.000633977 0.00517809 0.00131187)
(-0.000157664 0.000902882 0.00032404)
(-0.20245 0.308142 0.233595)
(-0.0472616 0.0485125 0.0539534)
(-0.0107802 0.0100288 0.0122221)
(-0.00238578 0.00221938 0.00269312)
(-0.000598269 0.000390047 0.000672686)
(-0.0399216 0.338761 0.078183)
(-0.0133493 0.0929455 0.0218882)
(-0.00340074 0.0222299 0.00523948)
(-0.000800521 0.00498031 0.0011902)
(-0.000201487 0.000869493 0.000293025)
(-0.242304 0.278963 0.112169)
(-0.058335 0.0456751 0.0270861)
(-0.0134899 0.00974897 0.00623799)
(-0.00301002 0.00219209 0.00138383)
(-0.000757928 0.000388113 0.000346002)
(-0.0601607 0.285302 0.0381872)
(-0.0183171 0.0820264 0.0108628)
(-0.00450361 0.0201263 0.00257752)
(-0.0010296 0.00458136 0.000574928)
(-0.000256568 0.000807187 0.000141114)
(-0.224632 0.287015 0.166073)
(-0.0538619 0.0462301 0.0395374)
(-0.0123998 0.00974973 0.0090369)
(-0.00275547 0.00217847 0.0019954)
(-0.000691741 0.000384463 0.000498258)
(-0.0474866 0.299884 0.056233)
(-0.0156385 0.086043 0.0157912)
(-0.00395282 0.0209272 0.00378118)
(-0.000920409 0.00472644 0.000858322)
(-0.000229534 0.000828435 0.000212703)
(-0.250701 0.276262 0.0660882)
(-0.060477 0.0456789 0.0160891)
(-0.0140142 0.00979768 0.00372217)
(-0.00313205 0.00220866 0.000829607)
(-0.000789835 0.000391452 0.000207767)
(-0.0677038 0.281055 0.0212698)
(-0.0200019 0.0803797 0.00630042)
(-0.00485052 0.0197449 0.00148398)
(-0.0010942 0.00450923 0.000330589)
(-0.000272055 0.000796723 8.18689e-05)
(-0.261754 0.275847 0.022798)
(-0.0626323 0.045434 0.0055155)
(-0.0145367 0.00974001 0.00127819)
(-0.00324768 0.00219699 0.000285681)
(-0.000818566 0.000389094 7.1537e-05)
(-0.0700288 0.282137 0.00845663)
(-0.0207773 0.080144 0.00225485)
(-0.00508614 0.0196419 0.000487163)
(-0.00106602 0.00449716 0.000137877)
(-0.000280562 0.000793391 2.60967e-05)
(-0.0208792 1.30412 0.00635566)
(-0.269833 1.8439 0.0206046)
(-0.246396 1.80283 0.177902)
(-0.0892681 1.26664 -0.0320872)
(0.0633228 0.748788 0.029481)
(0.108617 0.787128 0.0315956)
(0.303547 1.10435 0.0920745)
(0.444073 1.15153 0.117846)
(0.0663447 0.86181 0.0737894)
(0.325102 0.964156 0.138813)
(-0.0630155 1.36858 0.116161)
(0.101733 1.86241 0.179343)
(0.0976876 1.72811 0.139864)
(0.192481 2.28504 0.173644)
(0.361961 1.12953 0.0727395)
(0.512485 1.28548 0.0980551)
(0.548743 0.888077 0.0778582)
(0.688446 0.947336 0.0923376)
(0.223883 0.482512 0.0405218)
(0.289971 0.528509 0.0421312)
(-0.786866 0.198137 0.0912216)
(-0.57128 0.133082 0.0671988)
(-0.197291 0.0396323 0.0199608)