/*--------------------------------*- C++ -*----------------------------------*\
| =========                 |                                                 |
| \\      /  F ield         | OpenFOAM: The Open Source CFD Toolbox           |
|  \\    /   O peration     | Version:  2306                                  |
|   \\  /    A nd           | Website:  www.openfoam.com                      |
|    \\/     M anipulation  |                                                 |
\*---------------------------------------------------------------------------*/
FoamFile
{
    version     2.0;
    format      ascii;
    arch        "LSB;label=32;scalar=64";
    class       volScalarField;
    location    "2.9";
    object      gradTy;
}
// * * * * * * * * * * * * * * * * * * * * * * * * * * * * * * * * * * * * * //

dimensions      [0 -1 0 1 0 0 0];

internalField   nonuniform List<scalar> 
5712
(
11382.5
6562.59
18475.4
12097
20140
14898.8
31645.4
39158.2
41572.9
50811.9
26873.6
23332.3
17078.1
13520.7
8567.19
5792.62
19171.7
19679.9
16483.9
19404.4
25889.7
23199.8
29803.4
24197.4
8059.68
5831.45
4520.45
3355.64
9667.4
7888.16
5846.69
4713.25
17434.6
18163.6
17871
15194.7
14012.1
10878.7
10922.5
12387.2
17620.1
17513.3
36839.5
38067.3
26185.7
26944
14850.8
12525.1
16229.6
11585.1
7548.81
7734.69
6121.19
8378.41
3197.58
3801.99
8405.66
11290.8
4989.57
5768.61
9360.37
15408.6
6466.9
10474.6
2473.36
6248.95
2057.49
4673.72
17411.4
21485.6
17883
21344.4
21325.8
21580.6
21631.5
21248
15166.6
20517.5
15662.4
20298.4
17576.3
21167.8
17548.8
21102
21758.6
20941.2
21657.3
20723.6
13988
20586.6
13490.2
20651
16921.1
19687.4
21378.9
29577.7
17903.4
22609
21169.2
31963.9
16055.1
17389.8
21479.8
28518.9
15889.5
16302
21719.1
28343.9
4876.1
6315.26
12383.5
21344.3
6100.59
6886.69
16069.3
24481
7681.55
7742.48
20546.4
27661.3
23937.2
25900
20066.9
19199.3
27331.6
26149.3
24551.8
20524.1
17664.9
31044.9
23787.1
23356.7
20654.4
20274.5
35777.6
1917.21
2290.95
4055.17
9003.94
2738.68
3070.08
5675.57
10235.5
4131.48
3489.03
7807.55
11937.1
26060.9
26054.4
23386.1
23293.6
19821.6
18424.8
14919.9
13322
10366.4
14179.3
23643.8
23085.5
23692.2
23538.2
20436.7
19324.1
16747.2
15097.5
11094.5
14438.1
23357.2
26386.6
23253.9
26977.8
22700.2
23637
22115.1
23726.8
21085.9
21487.7
20925.4
20887.8
23054.2
27068.9
22931.1
27023.6
21443
23978.7
21247.4
23901.6
21167.1
21440.8
21151.7
21420.2
17636.7
16781.2
11332.9
12548.1
17499.1
16316.5
11144.6
12525.6
17897.4
16749
11589.8
12634.5
17972.7
16586.1
11955
12658.9
1596
1114.43
791.246
945.619
675.59
634.609
2206.71
1378.29
1068
1883.81
1550.17
1362.58
2620.94
2276.29
2323.29
3332.72
2790.22
2538.22
25330
23319.1
21840.1
23168.5
21864.3
20731.6
16546.5
15642.5
15154.5
11110.6
9870.25
9357.67
5064.25
3847.64
3309.44
22808
21553.1
20366.7
23233.4
21610.4
20257
17084.1
15029.9
13843.5
11066
9101.74
8307.55
5398.5
3840.74
3132.09
26362.3
25928.6
28619.4
25796.2
29461
25832.2
35454.6
27108.1
20486.3
20912.7
20190.1
18785.4
22997.1
21763.2
22512.8
19279.3
22251.2
22185.1
20583.2
22141
27600.9
24633.9
27104.2
27482.3
29362.9
30328.3
22539
23369.9
20242.4
19638.3
24615.5
25213.1
16125.2
8452.59
14993.5
9391.4
16356.6
8524.29
14926.3
9316.42
16175
8575.69
14921.3
9727.78
14481
10190.8
14639
10103.6
20849.2
17946.6
20630.9
17863
22969.7
20846.6
23100.1
20577.9
20227.9
14948.5
21211.7
14803.6
21022.9
17742.5
21256.7
17529.2
23627.2
20369.5
23611.5
20092.1
19964.8
14963.7
19874.1
14863
13224.9
8595.19
11789.4
7213.21
12369.4
7670.86
11358.8
6708.3
13518.3
9156.42
11959.9
7443.1
13517.9
9508.76
11919.4
7493.86
2449.56
1225.52
4305.2
2024.48
2629.19
1548.36
4601.21
2531.97
3280.6
2428.42
5142.76
3511.8
13095.8
20232.3
9381.78
8957.24
6040.74
19904
13928.6
8127.48
8145.63
4886.5
20594.7
16300.5
12987.2
10036.5
5819.76
605.626
458.297
907.401
546.01
939.983
639.625
1534.56
1154
1751.7
1423.1
2513.15
1990.01
20378.3
20058.7
13932.3
13668.2
9076.41
9460.1
7610.63
7282.59
4109.77
3346.34
19027.8
17604.9
14880.7
13386.8
11652
10692.1
8794.77
8274.02
5126.85
5368.2
15159
12613.7
15199.4
12241.4
18052.8
15253.7
17944.5
14942.3
12835.1
10768.4
12483.3
10864.7
15169.3
12008.3
15065.5
11978.2
17840.1
15169.9
17652.8
15106.8
13046.3
10567.2
13019.5
10709.4
9958.28
8771.41
6187.99
6945.7
9614.31
8619.13
5874.03
6601.74
10383.3
8938.62
6351.24
7394.89
10645.8
8948.07
6626.47
7510.57
2115.43
1881.05
1563.73
9474.64
5013.22
4090.58
2027.83
2032.84
1814.15
10160.3
5878.12
4983.61
2756.58
3138.54
3236.19
11051.9
7286.61
6508.61
19335.2
18462.7
17749.5
13521.3
13426.9
13317.3
10086.2
10214.5
10321.5
8918.66
8804.51
8665.42
12414.2
8935.34
8115.21
16422.2
15517.2
14848.5
12545.5
12004.9
11664.4
10721.8
10227.6
9897.15
10646.6
9641.19
9009.41
15037.3
10062.7
9101.49
4434.52
2765.41
2102.65
2024.37
5087.65
3061.33
2240.61
2073.12
4446.88
2752.79
2104.96
2041.41
5203.43
3127.71
2281.38
2088.39
4406.84
2698.53
2084.61
2009.92
5302.73
3159.15
2309.91
2057.4
5753.39
3379.97
2395.68
2181.23
5941.02
3528.79
2492.88
2283.04
4726.26
2893.51
2165.43
2024.49
3621.67
2406.35
1930.06
1945.84
4031.64
2551.41
1982.52
1856.39
3252.72
2230.79
1837.23
1856.7
5186.48
3149.48
2298.72
2137.85
3838.03
2534.2
1990.94
2018.01
5442.52
3320.25
2389.61
2212.03
3926.06
2623.5
2037.65
2051.93
3143.29
2270.41
1867.53
1906.72
1671.52
1663.73
1577.49
1784.78
3135.14
2246.7
1858.58
1899.44
1769.95
1689.73
1587.41
1795.08
3200.4
2228.62
1853.25
1898.55
2101.92
1786.18
1624.25
1842.85
3102.41
2132.26
1793.4
1927.96
2378.92
1847.01
1664.75
1820.74
2753.49
2023.83
1728.23
1823.2
91.2726
1160.21
1188.17
353.569
-1788.52
869.773
1016.63
386.635
352.722
1244.71
1219
375.536
-1441.06
965.918
1044.79
395.985
839.01
1393.24
1271.43
375.421
-861.393
1126.42
1089.39
402.385
1422.59
1565.04
1336.04
410.747
-266.348
1299.26
1148.21
421.856
1781.52
1714.95
1414.17
488.407
-170.641
1421.16
1201.87
438.72
1910.84
1868.2
1456.52
460.292
-639.298
1528.28
1296.07
467.413
1860.44
1800.29
1425.67
460.836
-656.877
1477.88
1249.89
450.65
1912.25
1916.14
1489.59
425.782
-733.515
1573.12
1331.54
471.499
1963.6
1969.35
1538.48
438.086
-625.313
1628.29
1373.68
485.288
2049.17
1649.53
1185.78
711.033
236.687
2025.16
1646.19
1186.63
711.93
237
2073.93
1661.98
1192.09
714.056
237.582
2054.23
1662.16
1195.12
716.086
238.245
2119.1
1679.8
1200.32
717.89
238.711
2089.32
1681.43
1205.19
721.013
239.732
2124.32
1703.88
1218.57
727.94
241.866
2175.5
1736.52
1237.83
737.892
244.932
2166.98
1701.52
1212.25
723.888
240.543
2315.42
1728.32
1220.03
726.872
241.375
2176.05
1695.83
1206.44
720.536
239.469
2311.28
1718.54
1213.62
723.48
240.311
2188.69
1721.39
1224.29
730.155
242.484
2357.98
1747.57
1230.99
732.528
243.129
2237.61
1752.97
1242.39
739.437
245.345
2409.82
1775.69
1246.67
740.553
245.613
2106.93
1657.6
1185.69
710.307
236.412
2217.27
1666.57
1185.92
709.889
236.247
2129.89
1667.4
1190.38
712.5
237.051
2235.39
1673.93
1189.5
711.573
236.742
2176.14
1683.84
1197.8
715.945
238.056
2275.28
1687.32
1195.89
714.602
237.628
2253.51
1702.91
1205.32
719.324
239.033
2322.95
1701.8
1203.22
718.119
238.646
2327.62
1712.79
1209.6
721.342
239.631
8850.3
13529.3
9333.32
13860.1
10060.2
14313
10603.6
14651.9
10277.8
14206.2
9673.95
10871.8
9631.92
11298.4
9760.08
10830.6
9946.25
10988.7
7796.83
1331.29
283.396
63.3169
11.1769
8658.27
2459
595.182
134.552
23.7451
7908.56
1325.24
279.914
62.2789
10.9617
8771.64
2456.96
592.105
133.174
23.2951
8040.91
1327.86
277.874
61.5217
10.8019
8894.65
2461.92
589.66
132.063
23.0588
8041.7
1298.77
269.166
59.41
10.4206
8865.15
2428.91
579.268
129.452
22.572
7703.54
1212.81
250.721
55.4844
9.75118
8469.02
2323.64
555.749
124.508
21.7373
6974.09
1141.88
243.724
54.8021
9.70283
7132.56
2050.66
503.157
114.534
20.1797
7175.36
1155.75
243.743
54.4616
9.61157
7497.09
2151.07
523.18
118.161
20.7109
6906.55
1141.97
244.942
55.2164
9.78629
7026.36
2009.49
493.623
112.731
19.9181
6896.16
1135.85
243.5
54.9247
9.72735
7053.43
2003.6
491.049
112.429
19.8348
32602.9
46097.4
45070.6
31665.9
18719.7
19678.2
27608.9
28788.2
21545.3
24103.9
34214.5
46560.2
43202.7
57126
28238.1
32137.1
22201.9
23683.4
12062.8
13212.7
4953.42
3327.06
990.808
787.714
878.525
780.759
928.723
4909.06
4923.98
3013.22
4257.3
4133.52
1836.63
2488.55
2293.52
1544.8
1767.61
1469.55
4409.69
2480.25
1653.72
1473.93
1830.89
1601.76
1282.17
1226.6
1169.32
1038.53
1369.88
1244.8
4580.51
2843.95
3243.63
2125.26
1783.69
2447.01
1309.72
1059.51
1429.03
10160.6
10440.8
10869.1
12490.9
21163
7439.13
8689.38
9695.33
11099.9
13114.8
2614.85
3757.47
4644.05
5259.25
5580.97
2092.67
3034.73
3775.48
4287.53
4550.61
2330.61
3371.21
4181.83
4736.28
5018.58
2075.6
3012.2
3747.94
4254.29
4512.89
2458.92
3547.61
4393.68
4974.66
5272.82
10407.5
10894.2
10969.4
11904.4
19143.8
10406.6
10705.9
10586.6
11047.8
12787
6982.48
8403.58
9228.02
10021.3
10924.9
9286.16
9901.72
9815.12
9886.77
10227.4
9004.29
9673.12
9537.45
9421.46
9494.42
4606.74
6156.3
7184.66
7868.69
8256.13
5959.25
7470.6
8337.21
8938.17
9361.42
5558.56
7065.5
7910.33
8408.37
8678.07
3956.84
5439.73
6472.87
7147.1
7497.54
4450
5967.87
6959.01
7580.78
7900.73
3785.27
5241.92
6265.48
6926.15
7259.85
9536.65
10335.2
10721.9
11932.2
19418.8
5948.14
7529.29
8594.16
9552.43
10491.7
4209.8
5747.72
6829.36
7575.88
8004.7
3793.94
5264.73
6340.1
7092.73
7518.66
4596.41
6174.85
7293.51
8135.2
8706.01
4092.28
5630.55
6764.25
7599.97
8112.97
3336.21
4705.43
5747.98
6492.17
6908.54
3206.46
4544.98
5557.35
6257.78
6630.77
3067.6
4363.66
5334.81
5984.62
6314.4
2739.08
3928.2
4837.68
5454.64
5769.34
3551.86
4970.7
6004.16
6697.01
7059.75
3250.38
4597.06
5604.42
6290.92
6651.3
9639.68
10204.5
10678.5
12175.5
20349
6570.52
7999.78
9093.73
10371.1
11940.9
7601.42
9060.81
9939.53
11259.1
13912.4
5223.93
6864.32
8082.92
9159.63
10055.4
4499.98
6099.77
7284.31
8217.82
8857.52
5879.68
7486.8
8625.35
9706.76
10783.9
3405.19
4794.51
5843.02
6583.24
6993.17
2789.95
3994.16
4917.21
5550.17
5878.22
3689.09
5142.94
6221.92
6986.96
7422.07
17851.2
11837.5
18404.3
13122.5
23888.9
34000.6
24942.3
33815.1
18943.4
20081.5
16232
19370.8
21573
20567
27369.4
22513.5
13722.9
12764.6
6722.24
5711.28
14969.8
13625.1
7728.41
6284.42
18490.6
20012.4
18996.4
17371.6
19315
12726.5
10704.1
12341.7
17493.4
17469.4
36254.8
37931.4
25427.7
26733.5
15395.3
12638.3
16849.2
11689.9
8156.26
7879.92
13357.6
14736.6
5593.3
6083.51
14721.5
16735.5
6986.15
7692.17
14080.7
19580.8
8182.08
12565.6
2866.64
6965.51
2135.56
4813.5
17700.3
20274.1
17633
20633
19387.2
19703.4
20390.5
20190.7
16034.1
20309.5
18181.8
20022.6
17341.9
20785.5
17460.3
20978
21115.2
20398
21466.7
20554.8
14225.1
20448.5
13520.9
20598.9
17763.1
20921.1
21590.6
29944.3
19335.6
24723.4
21642.2
32754.7
16431.8
17975.1
21551.8
28674.1
15984.5
16462.9
21729.4
28383.8
18304.6
19790.6
22867.3
33836.5
18448.6
18904.1
24493.5
34307.1
18229.7
17934.9
26396.4
34100.2
17919.1
18872.7
19043.6
20143.6
30069.6
18161.9
16893.8
20351.7
18449.9
34318.9
18945.5
19672.5
19412.2
20903.4
37181.5
11120
10214.9
10224
13148
12167.5
11192.8
10601.9
13528.6
13381.4
11657.8
11104.2
13854.4
17669.6
17092.6
16505.4
16140.5
18930.4
17797.5
15575.9
14080.1
11645.4
14477.2
18665.7
18561.4
19679
19897.9
18780.9
17743.2
16946.6
15089
11483.1
14023.7
21404.5
24150.6
22253.8
25769.5
20332
21309.4
20963.4
22570.1
20526.6
20775.8
19978.9
19744.4
22561
26478.2
22780.5
26846.7
20900.2
23414.4
21085.7
23736.1
20861.6
21072.6
21054.5
21309
17477.8
16492.8
11354.7
12465.6
17373.1
15990.1
11306.8
12475
17781.2
16576
11575
12571.8
17930.6
16529.9
11944.8
12634.5
9381.84
9523.31
4015.92
3707.42
10466.6
10139.7
4500.79
4314.82
10210.5
9594.75
5131.99
4963.46
16942.8
16507.3
16426.4
16550.1
16287.4
15848.1
12186.9
10954.3
6045.07
5012.08
18989.6
18305.1
20147.6
19442.2
15902.3
14815.3
11368.8
9823.77
5568.15
4219.14
21601.1
20611.8
26376.4
23130
23979.7
21450.4
32702.9
24768.1
19747.3
16304.3
21451.3
17060.6
19646.1
16599.1
21547.7
17288.5
20105.7
17895.7
18280.4
17082.2
20805.8
21968.5
25753.3
27069
28210.9
29990.9
21184.9
22888.5
19210
19342.6
23091.3
24699.4
13265.8
9654.05
13661.5
9878.22
13554.1
9562.86
13840
9721.06
13530.9
9421.75
13831.9
9916.41
13855.6
10223.5
14437.2
10107.5
17000.1
16605
18705.4
17032.1
19435
18693.9
21209.9
19373.7
18424.7
14635.7
17584
14500.1
20063.3
17299.2
20970.5
17394.4
22699.3
19759.4
23341.2
19907
19071.7
14767.3
19614.3
14801.6
12814.9
9004.51
11990.3
7582.32
12312.9
8731.4
11957.2
7499.52
13198.4
9305.93
12021
7613.73
13404.6
9543.76
11934.5
7549.49
12853.3
13206.9
9039.37
8283.69
13018.8
13333.2
8891.46
8212.02
13015.6
12810.4
8658.75
8115.81
15143
17791.2
15974.4
11857.4
8415.24
16536.9
15558.8
17460.7
11976.5
8117.39
18228.9
16260.4
14496.7
12129.2
7426.46
14065.1
15615.1
8322.34
9198.14
13896.7
15145.3
8234.87
9047.64
12935.1
13724.7
7837.23
8101.96
16444.5
15727.6
14982.5
14608.8
15659.4
16373.8
12246.7
13347.2
7575.86
7504.47
16655.8
15434.1
15143.1
14064.2
13723.7
13413.9
11588.2
11913.8
6934.34
7725.4
14812.6
12939.8
14869.5
12341.7
16604.6
14279.4
17114.5
14437.5
12988.5
11325.8
13082.2
12131.4
14963.3
12050.6
15001.3
11989.4
17423.2
14922
17528.1
15036
13058.1
10809.5
13009.1
10770.6
10454.3
9571.08
6669.09
7680.93
10751
10291
6832.12
8086.46
10579.9
9296
6573.17
7790.29
10701.7
9053.08
6702.41
7635.51
19115.9
19120.9
27049
22549.3
18249.5
18417.8
25898.5
21520.4
15962.6
16763
23717.7
19980.4
15385.7
14964.9
14367
14291.6
16847.3
17468.4
15906.6
16020.8
21740
18318.6
14610.1
14028.3
13663.6
13626.7
14193.9
14694.3
15525
15275.9
21381.7
16912.5
5919.5
3768.16
2723.52
2480.46
6189.9
3922.62
2816.53
2500.93
5791.02
3684.21
2670.9
2456.74
6123.84
3873.24
2777.36
2458.49
5553.67
3516.62
2574.84
2368.3
6016.2
3758.66
2722.8
2366.63
6170.05
3756.75
2679.08
2404.82
6080.41
3659.66
2588.2
2360.79
5324.56
3363.49
2503.14
2299.55
4016.12
2737.02
2163.48
2151.39
4972.1
3219.44
2416.81
2187.5
3899.24
2742.47
2144.8
2097.63
5516.98
3429.78
2511.86
2315.26
4050.33
2719.88
2138.68
2159.63
5544.67
3414.12
2463.18
2274.35
3992.78
2683.85
2088.35
2100.64
5350.4
3473.88
2544.35
2391.83
4383.63
3038
2308.7
2300.07
5178.67
3385.9
2491.31
2351.01
4264.86
2989.15
2282.37
2288.11
4936.31
3243.29
2417.84
2306.07
4178.53
2927.1
2248.11
2286.77
4429.56
2981.88
2274.09
2282.41
3988.21
2821.41
2187.58
2175.36
3715.14
2718.05
2108.24
2089.45
2931.35
2593.85
1863.14
508.974
653.63
2304.03
1701.89
582.456
2980.12
2594.29
1860.6
527.029
853.715
2311.13
1698.48
584.288
3064.63
2576.63
1838.16
498.884
1131.16
2302.94
1675.17
569.649
3037.21
2523.3
1835.01
526.625
1184.3
2257.42
1652.71
568.055
2753.29
2409.23
1816.59
604.436
609.272
2138.82
1612.65
563.285
2196.86
2157.92
1706.95
554.569
-525.219
1834.46
1514.91
544.123
2395.63
2264.97
1760.86
569.712
-331.078
1964.85
1558.73
550.013
2051.96
2073.84
1642.89
486.981
-703.347
1738.74
1460.46
519.052
2003.05
2019.45
1589.26
458.949
-623.532
1679.95
1415.48
501.03
2418.72
1877.9
1316.42
777.323
256.894
2362.44
1862.98
1312.15
775.859
256.507
2417.44
1870.44
1311.17
774.471
255.999
2352.17
1851.58
1304.66
771.875
255.27
2433.03
1863.92
1304.98
770.938
254.88
2340.8
1838.54
1295.84
767.167
253.817
2297.62
1813.01
1281.78
760.175
251.71
2239.23
1777.69
1261.79
750.14
248.679
2398.3
1843.7
1293.32
765.031
253.089
2536.6
1855.04
1291.3
762.924
252.362
2470.46
1864.6
1301.62
768.693
254.142
2596.78
1870.69
1298.57
766.368
253.374
2341.6
1819.04
1280.35
758.671
251.188
2501.25
1833.54
1279.67
757.217
250.661
2290.61
1786.82
1261.92
749.402
248.396
2459.06
1805.64
1263.71
749.228
248.273
2526.56
1899.52
1321.47
778.838
257.274
2704.52
1918.94
1324.99
779.8
257.51
2531.49
1894.84
1317.78
776.782
256.62
2705.98
1914.8
1322.07
778.214
257.01
2550.85
1888.4
1311.95
773.52
255.584
2713.41
1906.75
1316.52
775.256
256.08
2605.95
1885.72
1306.71
770.419
254.587
2724.57
1895.1
1309.69
771.696
254.95
2664.89
1881.35
1303.13
768.489
253.984
11042
14513.5
11107.3
14530.6
11248.9
14549.1
11085.9
14393.9
10388.6
13713.8
9680.79
10826.9
9691.67
11228.6
9752.32
10798.6
9941.5
10976.8
8462.01
1405.23
294.596
65.2932
11.4762
9111.34
2570.8
617.585
138.772
24.3923
8432.57
1383.18
288.869
63.8991
11.2116
9078.29
2540.77
609.793
136.614
23.83
8336.77
1360.43
283.259
62.5726
10.9724
8986.31
2504.3
600.259
134.329
23.4308
8118.02
1307.24
271.029
59.8696
10.5051
8774.87
2433.85
583.065
130.531
22.7728
7676.13
1208.95
250.44
55.5241
9.7684
8319.76
2310.34
555.385
124.747
21.8059
6957.07
1138.49
243.006
54.6624
9.68209
7103.99
2042.66
501.457
114.225
20.1365
7156.97
1151.38
242.92
54.3321
9.59629
7446.79
2139.54
521.365
117.94
20.6939
6894.21
1139.78
244.472
55.1189
9.7708
7008.62
2004.63
492.498
112.503
19.8827
6891.62
1135.07
243.334
54.8895
9.7216
7047.09
2001.96
490.663
112.347
19.8216
32148.5
45785.3
43996.7
30305.1
23725.7
28189.9
22953.2
28087.2
26527.4
41933.4
28096.7
42919.4
295.692
313.544
353.337
417.548
510.438
636.842
310.785
329.052
369.593
434.405
526.298
648.495
284.264
278.621
303.281
299.584
345.788
346.604
414.906
424.421
513.742
534.535
641.807
665.994
802.216
1012.22
1283.43
1641.61
2053.78
2350.03
804.02
994.719
1221.64
1475.51
1717.92
1874.99
791.807
1161.99
1460.68
1670.11
1777.98
839.396
1231.35
1547.29
1768.63
1882.57
945.484
1385.95
1740.35
1988.27
2115.79
1116.42
1634.53
2050.18
2340.34
2489.44
1362.99
1991.59
2493.66
2843.24
3022.73
1696.76
2471.24
3085.92
3512.8
3732.13
832.076
1220.78
1534.24
1753.92
1867.04
880.711
1291.52
1622.42
1854.11
1973.34
988.648
1448.51
1818.12
2076.52
2209.4
1160.91
1698.42
2129.06
2429.51
2583.92
1404.35
2050.01
2564.93
2923.45
3107.7
1726.34
2511.49
3133.91
3566.66
3789.57
761.261
1117.32
1404.73
1606.31
1710.16
746.161
1095.21
1377.03
1574.72
1676.57
812.006
1191.38
1497.33
1711.74
1822.14
802.124
1176.94
1479.28
1691.19
1800.3
925.415
1356.85
1704.16
1947.2
2072.23
927.613
1360.12
1708.33
1952.01
2077.35
1109.57
1624.96
2038.66
2327.51
2475.91
1134.98
1662.1
2085.12
2380.38
2532.03
1372.16
2005.66
2511.84
2864.13
3044.85
1427.51
2086.09
2611.84
2977.38
3164.73
1710.72
2492.9
3113.68
3544.07
3764.65
1775.04
2586.01
3228.68
3673.25
3900.58
2129.09
3083.98
3835.09
4356.56
4626.19
2668.26
3829.69
4732.99
5365.07
5699.27
3342.57
4722.93
5782.17
6544.04
6971.44
4185.65
5759.58
6952.38
7871.75
8460.72
5079.28
6733.02
7979.5
9057.06
9898.48
5693.14
7357.9
8616.72
9803.83
10848.4
2132.49
3086.5
3836.99
4359.42
4630.57
2623.42
3768.26
4660.73
5286.41
5617.22
3194.9
4538.89
5576.28
6316.71
6723.16
3814.36
5339.5
6505.87
7366.62
7870.1
4383.35
6036.96
7293.65
8262.76
8876.08
4743.8
6466.08
7773.02
8813.64
9507.13
298.747
322.817
369.279
440.863
542.023
677.654
313.902
338.498
385.71
457.656
557.056
686.654
287.367
281.844
312.756
309.469
362.205
363.856
439.228
450.301
547.044
569.655
686.383
714.148
851.527
1065.79
1334.03
1679.27
2073.58
2355.56
848.123
1041.26
1265.26
1510.12
1739.32
1882.09
800.014
1174.12
1476.06
1687.81
1796.9
864.368
1268.34
1594.24
1822.75
1940.45
988.47
1449.76
1821.52
2081.99
2216.12
1179.43
1728.41
2170.06
2479.19
2638.32
1448.68
2120.06
2658.74
3035.38
3229.31
1808.16
2639.87
3304.64
3769.26
4009.01
840.466
1233.21
1550.03
1772.13
1886.52
906.179
1329.32
1670.49
1909.6
2032.73
1032.16
1513.23
1900.62
2171.94
2311.63
1223.82
1792.35
2249.25
2568.95
2733.57
1487.88
2175.43
2726.35
3111.57
3310.11
1830.51
2669.22
3338.56
3806.73
4048.81
769.598
1129.63
1420.32
1624.25
1729.32
754.821
1108
1393.21
1593.32
1696.43
837.501
1229.1
1545.15
1766.8
1880.99
828.716
1216.26
1529.11
1748.53
1861.57
969.651
1422.44
1787.51
2043.35
2175.09
974.091
1429.02
1795.86
2052.95
2185.33
1175.27
1722.78
2163.48
2471.97
2630.75
1204.91
1766.27
2218.12
2534.39
2697.15
1462.54
2141.22
2686.11
3067.03
3263.05
1523
2229.75
2797.07
3193.56
3397.5
1832.54
2677.62
3353.68
3825.83
4069.03
1906.99
2786.93
3490.82
3982.01
4234.73
2265.03
3292.88
4109.95
4682.44
4980.18
2818.35
4065.79
5050.25
5747.27
6118.16
3488.67
4961.96
6113.96
6953.5
7426.6
4301.24
5961.76
7246.59
8247.78
8888.59
5147.49
6863.84
8179.29
9322.08
10209.6
5714.71
7402.47
8686.97
9899.35
10963
2253.83
3272.41
4080.99
4648.2
4943.97
2752.93
3970.06
4929.71
5608.59
5969.25
3318.43
4736.01
5844.5
6643.09
7083.09
3914.87
5505.05
6736.88
7653.19
8189.97
4447.54
6146.36
7449.97
8460.31
9099.55
4765.61
6504.13
7828.19
8884.18
9587.61
4933.89
3325.59
1054.35
842.918
952.497
841.89
998.631
4557.92
4420.29
2935.07
3687.65
1888.66
2443.89
1617.83
1777.47
1526.54
4251.94
2493.44
1726.97
1552.27
1893.13
1668.42
1344.96
1303.34
1264
1127.88
1455.98
1329.25
4523.24
2848.93
3208.33
2156.35
1835.93
2466.87
1380.42
1136.08
1503.55
10157.3
10495.1
10975.8
12666.9
21489.3
7453.16
8739.13
9784.97
11233.7
13290.6
2793.75
4040.86
5027.1
5722.43
6089.43
2245.11
3269.63
4085.37
4655.57
4950.69
2536.69
3693.01
4611.64
5251.64
5581.72
2244.57
3272.95
4092.4
4663.86
4958.38
2654.92
3856.29
4808.78
5474.53
5820.15
10157
11516.1
12431.2
14174
22756.7
10067.8
11657.3
12783.8
14350.2
16958.7
7061.86
9053.09
10552.9
11965.8
13289.6
8908.39
10933.4
12157.1
13420.7
14511.7
4860.77
6765.66
8208.43
9261.12
9870.26
6098.23
8159.71
9678.98
10866.6
11647
4226.8
5996.34
7355.66
8316.62
8837.34
4615.91
6495.57
7924.29
8939.11
9497.08
4007.22
5719.23
7040.76
7966.28
8457.88
9431.05
10713.6
11638.1
13379.5
21840.9
6116.07
8038.82
9513.38
10856.4
12064.7
4474.35
6284.02
7674.1
8693.21
9286.21
4045.17
5725.95
7030.55
7982.84
8528.27
4831.59
6666.53
8079.66
9187.26
9926.38
4308.06
6030.26
7366.73
8382.17
9005.76
3520.91
5014.82
6185.01
7037.42
7517.79
3432.65
4924.98
6094.94
6927.81
7377.71
3345.94
4830.17
5994.26
6806.33
7230.14
2993.3
4336.79
5396.87
6136.7
6521.33
3825.18
5467.85
6743.98
7645.86
8131.22
3503.38
5030.07
6224.68
7069.35
7521.56
9630.64
10374.5
11017.6
12723.3
21360.6
6625.19
8152.09
9357.2
10750.9
12422.9
7644.65
9364.35
10548
12186
15174.9
5344.2
7116.62
8487.43
9710.13
10709.5
4675.36
6434.86
7798.8
8895.92
9641.14
6023.16
7881.07
9324.07
10699.9
11991.4
3616.34
5154.53
6357.8
7229.86
7717.61
3009.43
4350.2
5407.64
6150.58
6541.24
3920.55
5554.82
6827.5
7760.42
8295.95
10429.4
9800.03
8709.17
7207.35
5203.93
2029.1
18198.2
18548.8
21094.3
21737.6
17890.7
19013.1
20212.2
19632.9
14897.8
18216.9
15556.3
18781.4
17864.7
16127.1
24821.6
17534.7
17751.4
19956
20368.4
16976.5
18080.7
19368.4
18977.9
14853.4
21997.9
15430.8
21924.3
18051.7
19560.3
26640.9
16807.2
16900.8
18521.9
18700.7
16321
17808.3
18251.2
18337.2
17059.1
19533.2
17814.5
19568.5
19625
21537.4
24060.6
16140.1
16252
17261
17288.6
15973.2
17694.5
17153.8
17504.2
16052.4
17149.5
16784.4
16747.5
18023.9
19470.8
20903.5
15433.3
15577.7
16426.9
16374.1
15749.7
17628
16461
16992.7
15259.8
14239.4
16019.6
13708.5
16656.2
16536.2
17380.5
15140.2
15325.2
15885.2
15802
15431.3
17001.7
16027.7
16480.3
14621.6
12314.3
15198
12097.4
15565.8
14638.6
15819.7
21085.5
20303
22077.4
23156.5
19628.4
19664.9
20623.1
19751
18688.8
13858.7
18675.8
13955.6
16608
15128.1
18144.2
19966.7
19408.1
20466.5
21167.7
19021.6
19215.5
19513
18785.4
17430.1
13488.8
17441.4
13600.8
15319.4
13674.2
16890.5
18522.7
18203
18556.8
18886
17999.6
18205
18097.4
17675
16682.2
13375.6
16506.3
13127.5
14831.1
12583.5
16766.5
17214.9
17042.9
17148.4
17284.6
16921.5
17069.5
17010.4
16684.8
15949.5
14043
15864.7
13730.3
14429.7
12815
17362.5
16609.4
16502.8
16414.6
16468.4
16237.6
16378
16407.1
16216.3
15930.4
15373.2
15878.8
15238.9
14701.5
13494.5
18210.1
16178.4
16077.9
16015.3
16042.9
15853.4
16169.4
15980.1
15918.7
15962.4
16213.7
15971.1
16135.6
14917.5
14141.3
19081.3
11196.4
6352.53
18468.4
12104
20160.7
14886.7
31672.7
39171.7
41622
50836.3
26921.7
23332.9
17085.5
13545.9
8309.52
5528.07
19174.7
19682.2
16482.6
19405.4
25902.5
23205.3
29811.5
24201.7
7894.27
5716.29
4368.27
3254.84
9640.8
7878.76
5845.32
4726.38
17430
18159.1
17869.5
15195.1
14008
10881.6
10923.4
12388.6
17621.6
17514.9
36846.3
38071.9
26189
26946.3
14851.7
12526.5
16231.1
11586.4
7549.93
7735.75
6012.11
8245.01
3112.16
3708.06
8407.28
11302.4
5003.3
5784.58
9361.48
15414.4
6472.83
10482
2474.68
6251.84
2057.95
4674.83
17412.4
21486.7
17884.3
21345.5
21328.6
21582
21633.9
21249.2
15168.4
20518.6
15662.5
20299.4
17577.5
21168.7
17549.8
21102.8
21760.3
20942.1
21658.4
20724.2
13989.2
20587.7
13491.3
20652.1
16923
19691
21380.6
29580.1
17904.8
22612.7
21170.8
31966.7
16056.8
17392.4
21481.4
28521.1
15891.2
16304.1
21720.6
28346
4796.37
6236.77
12215.2
21160.6
6105.91
6890.4
16084.1
24498.7
7683.94
7744.49
20553
27668.1
23937.3
25900.8
20066.5
19200.4
27335.5
26149.8
24551.7
20523.2
17665.5
31049
23788
23357.2
20655
20276
35780.9
1877.39
2260.03
3971.58
8915.91
2742.93
3074.12
5686.49
10244.7
4133.41
3490.18
7811.14
11939.3
26061
26054.4
23385.9
23293.5
19821
18424.5
14920.7
13322.8
10368.2
14180.6
23644.1
23085.6
23692.5
23538.4
20437.1
19324.5
16748.3
15098.4
11095.7
14438.9
23357.7
26386.8
23254.5
26978
22700.7
23637.1
22115.6
23726.9
21086.7
21488.2
20926.1
20888.4
23054.7
27069.2
22931.6
27023.8
21443.4
23978.7
21247.6
23901.5
21167.8
21441.3
21152.4
21420.6
17637.7
16781.9
11333.7
12548.8
17500.1
16317.3
11145.5
12526.3
17898.3
16749.6
11590.5
12635.1
17973.5
16586.7
11955.7
12659.5
1573.87
1097.03
776.772
940.927
670.08
628.061
2212.95
1381.67
1069.59
1889.81
1554.07
1364.95
2621.53
2277.06
2324.14
3333.77
2791.64
2539.64
25330.1
23319.4
21840.5
23168.8
21864.9
20732.3
16546.8
15643.2
15155.4
11111.2
9871.08
9358.6
5064.92
3848.42
3310.18
22808.1
21553.4
20367.1
23233.6
21610.9
20257.7
17084.6
15030.5
13844.3
11066.6
9102.38
8308.24
5398.98
3841.21
3132.51
26366.7
25929.9
28622.5
25797.5
29474.8
25837.6
35466.8
27112.9
20313.9
20860.7
19987.7
18722.8
22967.4
21735.7
22479.6
19252.5
22246.1
22180.9
20583.1
22139.4
27584.6
24619.3
27105.1
27482.6
29366.5
30330.3
22537.2
23369.1
20241.6
19637.4
24608.4
25209.7
16129.8
8458.09
14992
9398.8
16338.3
8519.53
14910.9
9312.83
16163.1
8571.22
14911
9723.21
14475.2
10187.3
14636.1
10101.5
20847.6
17946.3
20629.9
17862.7
22971.6
20847.5
23102
20578.5
20222.8
14947.3
21205.1
14802.1
21022.4
17742.2
21256.2
17528.9
23628.5
20369.8
23612.1
20092.2
19961.7
14962.8
19872.3
14862.2
13221.9
8592.84
11787.8
7212
12366.1
7668.53
11356.9
6706.97
13516
9154.45
11958.5
7442.08
13516.3
9507.29
11918.3
7493.01
2437.15
1209.69
4291.24
2006.23
2629.67
1549.44
4601.13
2532.81
3279.77
2428.31
5141.28
3511.22
13096.4
20233.5
9381.44
8955.79
6039.32
19904.9
13929
8127.42
8144.59
4885.58
20595.5
16300.5
12986.2
10035
5818.6
587.705
436.521
888.285
538.153
941.389
639.4
1534.75
1153.25
1752
1423.8
2513.1
1990.52
20378.6
20058.7
13932.1
13667.8
9076.1
9459.62
7610.03
7282.35
4109.28
3346.3
19028.1
17604.9
14880.6
13386.5
11651.4
10691.6
8793.94
8273.59
5126.11
5367.76
15158.8
12613.4
15199.2
12241.1
18053.2
15253.7
17944.7
14942.3
12834.4
10767.9
12482.5
10864.1
15169.1
12008
15065.2
11977.8
17840.2
15169.9
17652.8
15106.7
13045.7
10566.7
13018.9
10709
9957.42
8770.81
6187.25
6945.06
9613.35
8618.53
5873.23
6601.1
10382.6
8938.07
6350.6
7394.27
10645.2
8947.56
6625.9
7510.01
2078.15
1849.8
1538.68
9423.38
4967.53
4046.64
2024.71
2031.42
1814.16
10155.9
5877.9
4983.87
2757.33
3139.1
3236.65
11052
7287.22
6509.33
19335.1
18462.7
17749.5
13520.9
13426.5
13317
10085.6
10213.9
10321
8918.5
8804.31
8665.23
12413.8
8935.46
8115.46
16422.1
15517.2
14848.5
12545.2
12004.6
11664.2
10721.5
10227.3
9896.96
10646.2
9641
9009.29
15036.4
10062.5
9101.48
4435.14
2765.51
2102.82
2023.81
5086.5
3059.78
2239.92
2072.1
4445.73
2752.31
2104.62
2041.19
5202.81
3127.47
2281.19
2088.21
4405.59
2698.04
2084.31
2009.71
5301.49
3158.72
2309.65
2057.21
5752.16
3379.52
2395.44
2181.05
5940.06
3528.4
2492.67
2282.88
4725.26
2893.06
2165.17
2024.3
3621.01
2405.97
1929.83
1945.66
4030.68
2550.96
1982.24
1856.21
3252.03
2230.4
1836.98
1856.52
5185.53
3149.04
2298.47
2137.67
3837.43
2533.86
1990.72
2017.84
5441.75
3319.88
2389.39
2211.87
3925.55
2623.19
2037.45
2051.77
3142.77
2270.96
1868.25
1906.35
1669.63
1663.4
1578.05
1783.67
3134.33
2246.27
1858.25
1899.24
1769.27
1689.44
1587.15
1794.99
3199.54
2228.19
1852.96
1898.37
2101.3
1785.85
1624.02
1842.72
3101.65
2131.86
1793.14
1927.77
2378.29
1846.66
1664.52
1820.57
2752.84
2023.46
1727.99
1823
91.642
1159.93
1188.97
353.612
-1786.25
868.437
1016.34
386.478
352.075
1244.61
1218.82
375.529
-1441.84
966.024
1044.82
396.021
838.567
1393.01
1271.26
375.374
-861.699
1126.27
1089.3
402.363
1422.15
1564.74
1335.84
410.693
-266.581
1299.02
1148.06
421.81
1781.06
1714.62
1413.96
488.344
-170.852
1420.88
1201.7
438.665
1910.44
1867.89
1456.33
460.238
-639.434
1528.01
1295.89
467.356
1860
1799.97
1425.47
460.781
-657.033
1477.59
1249.7
450.592
1911.9
1915.87
1489.41
425.736
-733.623
1572.87
1331.38
471.446
1963.3
1969.1
1538.32
438.047
-625.407
1628.07
1373.54
485.241
2047.59
1648.77
1185.44
710.882
236.642
2023.41
1645.25
1186.18
711.72
236.937
2073.87
1661.9
1192.04
714.031
237.575
2054.13
1662.07
1195.07
716.067
238.243
2118.99
1679.72
1200.27
717.865
238.704
2089.2
1681.34
1205.13
720.991
239.728
2124.19
1703.8
1218.52
727.914
241.86
2175.38
1736.43
1237.77
737.865
244.925
2166.83
1701.43
1212.19
723.862
240.536
2315.25
1728.23
1219.97
726.843
241.367
2175.91
1695.74
1206.38
720.509
239.462
2311.11
1718.45
1213.56
723.452
240.304
2188.54
1721.3
1224.23
730.127
242.477
2357.81
1747.47
1230.93
732.499
243.121
2237.47
1752.88
1242.34
739.409
245.337
2409.66
1775.59
1246.61
740.524
245.605
2105.32
1656.95
1185.43
710.189
236.376
2215.71
1666.04
1185.7
709.798
236.225
2129.87
1667.32
1190.33
712.478
237.047
2235.4
1673.84
1189.44
711.558
236.744
2176.04
1683.76
1197.75
715.922
238.051
2275.18
1687.23
1195.83
714.582
237.626
2253.37
1702.82
1205.27
719.298
239.027
2322.81
1701.71
1203.17
718.094
238.641
2327.45
1712.7
1209.55
721.315
239.624
8802.19
13475.4
9335.54
13861.7
10061.6
14313.7
10604.6
14652.5
10278.5
14206.7
9674.52
10872.3
9632.54
11299
9760.63
10831.2
9946.81
10989.3
7785.78
1322.3
281.091
62.7892
11.0838
8642.84
2453.31
593.571
134.169
23.6753
7906.18
1325.8
280.02
62.2956
10.9638
8770.05
2456.37
591.9
133.116
23.2838
8040.36
1327.91
277.881
61.5199
10.8011
8894.23
2461.72
589.583
132.039
23.0536
8041.74
1298.78
269.164
59.4077
10.4199
8865.18
2428.87
579.242
129.442
22.5697
7703.8