/*--------------------------------*- C++ -*----------------------------------*\
| =========                 |                                                 |
| \\      /  F ield         | OpenFOAM: The Open Source CFD Toolbox           |
|  \\    /   O peration     | Version:  2306                                  |
|   \\  /    A nd           | Website:  www.openfoam.com                      |
|    \\/     M anipulation  |                                                 |
\*---------------------------------------------------------------------------*/
FoamFile
{
    version     2.0;
    format      ascii;
    arch        "LSB;label=32;scalar=64";
    class       volScalarField;
    location    "2.9";
    object      gradTx;
}
// * * * * * * * * * * * * * * * * * * * * * * * * * * * * * * * * * * * * * //

dimensions      [0 -1 0 1 0 0 0];

internalField   nonuniform List<scalar> 
5712
(
-6407.7
-8188.51
-15249.2
-22239
-22685.2
-39163.7
-17481.4
-44512.1
-14245.9
-31286.4
-21289.2
-32366
-19120.4
-25036
-8401.84
-9596.85
-14249.6
-16318.6
-18459.8
-18316.3
-14579
-18055.4
-21481.6
-19316.3
-5189.6
-3876.15
-6459.39
-4323.19
-12016.1
-9558
-20555.2
-14832.8
-15954.9
-16557.7
-17661.3
-16749.6
-6114.21
-4830.8
-37852.8
-50690.4
-24453.8
-30031.2
-51016.7
-66190.3
-26418.9
-30238.3
-28006.9
-39584.9
-24421.5
-32397.3
-14239.7
-23009.8
-2707.03
-910.262
-2856.09
-1027.35
-8180.86
-3293.67
-11256.1
-4129.98
-7970.74
-3064.15
-8543.47
-2734.58
-14593.7
-4636.26
-18844.9
-6348.09
-23276.9
-11520.6
-21304.8
-12643.8
-21937.3
-14191.5
-19283.2
-14559.1
-16670.4
-9896.5
-16647.2
-8444.93
-21972
-14103
-22017.3
-14246.6
-20351.1
-15434.6
-20594.9
-15518.8
-18014.2
-11462.8
-18663
-11756
-16983.5
-7318.13
-7813.18
-9461.65
-17056.6
-7985.32
-6783.37
-9538.74
-17995.9
-7299.15
-8882.42
-9563.22
-18894.8
-7483.56
-9676.64
-10010.9
-3509.31
-3825.97
-1172.82
-2262.6
-10310
-10887.7
-3948.63
-6921.44
-13202.3
-14714.8
-6269.91
-10623.1
-12206.7
-1217.99
-13289
-16224.1
-8714.33
-884.153
-7512.19
-11857.9
-19021.1
-12913.1
-9599.27
-11562.6
-10001.7
-8540.67
-13346.9
-3401.95
-2828.06
-1934.5
-1923.99
-9624.44
-8196.33
-5729.72
-5463.75
-12061.9
-10346.4
-7488.92
-6741.46
-5886.12
-7455.56
-12081.7
-12479.8
-13744.5
-12529.6
-15477.1
-13550.2
-10273.6
-8639.05
-8943.47
-9536.25
-11757.9
-9470.15
-10650.5
-7932.48
-9160.11
-6463.44
-10536.5
-6970.12
-10119.4
-4955.17
-8650.24
-9485.32
-12432.5
-16347.9
-13665.9
-19966.3
-6846.9
-7713.5
-8935.37
-3124.06
-7695.31
-14906.5
-7291.91
-15941.4
-13522.6
-24617.5
-13754.5
-26079.5
-5772.16
-12735.4
-5228.76
-13533.1
-7934.29
-6112.02
-10961.4
-4437.45
-8240.78
-1913.46
-9599.54
-1001.7
-7598.04
-9055.44
-11472.9
-5349.5
-6265
-10641.9
-10133.4
-6990.68
-2282.44
-2033.23
-1852.21
-1633.13
-1513.78
-1373.38
-6794.22
-5686.53
-5002.32
-4316.07
-3552.02
-3133.49
-8434.32
-7399.71
-6891.44
-5214.98
-4355.54
-4159.66
-6646.18
-5996.41
-5891.94
-10977.5
-8553.84
-7293.67
-10209.3
-7744.38
-6385.35
-10744.4
-8668.39
-7623.12
-6493.73
-4395.45
-3487.03
-15804.7
-13936.3
-12241.9
-10040.9
-8537.65
-7234.6
-8784.83
-7004.05
-5731.56
-7268.57
-5393.63
-4264
-7300.41
-4154.03
-2422.25
-10197.5
-13862.4
-8034.11
-10428.5
-10874.9
-16028.9
-9685.45
-14159.1
-70.7963
-756.934
474.622
-116.422
-2978.8
-3392.78
-1239.78
-682.922
-733.556
-2461.48
-9326.26
-13656
-6636.82
-3592.16
-9705.64
-9626.15
-14843
-16336.1
560.931
3985.68
-7488.87
-7060.58
-6995.62
-5398.96
-1043.7
-564.638
-659.591
-258.479
-2058.21
-291.504
300.836
809.827
-9215.28
-2498.28
-6188.52
-1680.82
-8857.42
-2735.95
-10706.4
-3494.52
-8748.63
-11861.5
-8099.88
-11590.4
-13866
-14748.7
-13244
-13994.7
-5712.39
-9550.48
-6577.09
-9472.32
-8583.97
-11182.7
-9460.71
-11315.3
-13793.4
-13762.6
-14444.2
-13837.8
-5760.03
-9263.26
-6258.41
-9452.61
-125.224
-1633.64
-7724.69
-5147.37
444.271
-1216.34
-7159.34
-4572
-560.176
-1864.14
-7911.05
-5592.47
-1011.54
-2131.86
-7977.49
-5811.19
639.992
746.964
-201.443
-64.9436
2784.79
2842.33
115.371
248.495
408.826
1818.85
-1910.05
-1299.88
10187
9412.61
5477.09
4089.98
228.065
10355.9
10780.1
4275.8
6264.77
583.006
-10070.8
-8039.65
-7337.56
-7061.91
-4587.33
793.61
765.626
-15.4469
-146.798
2512.09
2575.43
-64.0555
-363.275
2507.71
3204.61
-963.884
-1391.4
5124.57
2406.26
8221.06
5259.11
3610.69
2804.03
4026.98
3589.71
-799.425
-1880.77
-3730.06
-2364.91
-1071.65
1032.85
-1168.08
682.427
-2048.31
-663.99
-2647.75
-3071.25
-5329.44
-4917.98
-10066.9
-6136.78
-8086.34
-8213.45
-12273.9
-9994.74
-8167.8
-4944.29
-4179.59
-4199.3
-11842.1
-5316.55
-13021.9
-5954.83
-13682.9
-10202.4
-14601.6
-10920.5
-9850.43
-4083.17
-11020.3
-4707.81
-6792.77
-5601.38
-5655.07
-8404.54
-4520.68
-5170.11
-4883.7
-7797.45
-7780.16
-5586.53
-6361.11
-9625.17
-9338
-6071.56
-7780.39
-9950.23
828.609
918.482
1048.5
-14.2515
316.573
364.445
3047.72
3338.38
3374.79
145.142
912.53
935.246
3821.71
4411.44
4585.54
-822.247
870.579
1222.73
1352.24
1180.11
882.447
4010.61
4175.07
3933.95
3280.03
3818.56
3798.44
4055.94
4515.04
4464.47
-1715.56
355.405
534.947
-3415.13
-1909.28
-966.651
1116.77
2388.12
3067.5
1015.35
2683.62
3414.76
359.366
2205.01
2744.24
-2822.56
535.402
947.145
18.5754
40.9481
59.852
92.4581
274.721
163.794
140.943
142.793
-19.3658
78.8863
200.271
325.703
440.743
301.855
344.552
388.949
-284.417
24.0723
282.241
574.291
136.689
244.59
336.273
397.955
23.2005
149.014
169.984
172.745
-239.575
-7.76648
134.24
237.22
-1065.94
-221.902
125.018
369.61
-1663.9
-389.5
25.8234
621.426
-764.818
-100.256
208.137
525.311
-1378.11
-298.816
7.6756
547.677
-1124.19
-261.988
146.649
454.536
-1858.1
-461.225
24.1072
728.315
-1246.79
-344.869
129.146
535.283
-1997.11
-526.717
0.200538
761.758
-3.15762
22.615
50.9082
114.496
27.9489
32.0237
32.7655
105.458
43.8274
79.7478
154.372
307.079
145.501
110.887
99.3911
284.637
-487.442
-64.1471
171.792
526.655
-252.325
20.296
133.569
502.94
-148.084
117.065
252.785
524.863
-74.5776
93.5831
117.574
507.342
-1203.01
-232.643
49.0777
707.772
82.1212
46.8354
36.9372
78.9213
170.294
70.1204
38.2746
36.6962
159.982
110.392
84.7109
205.214
431.465
186.027
98.0197
95.1771
63.8496
120.066
118.904
338.453
534.071
260.297
147.773
150.312
-166.193
105.235
149.263
469.052
391.746
279.079
176.305
191.797
-663.192
1.31907
92.613
456.649
63.7975
238.457
167.183
199.062
-1397.67
-145.968
82.7281
530.569
-470.23
56.43
110.522
188.518
-1102.43
-53.5814
95.5993
496.201
-310.885
136.916
144.056
202.725
-1669.87
-261.257
42.1399
574.272
-617.4
-24.2175
72.9196
176.066
-1873.51
-377.62
-14.9998
566.741
-756.082
-114.474
23.15
151.789
41.6905
19.3915
10.6006
6.61974
5.01087
55.3936
29.9841
17.4651
11.1701
8.50719
99.4278
45.1655
24.6347
15.4659
11.7923
125.818
67.2712
39.2043
25.1874
19.2403
131.645
56.5466
30.465
19.1074
14.6052
169.649
89.2937
52.1391
33.6699
25.8039
89.434
45.8713
26.6607
17.2453
13.2234
62.5439
26.6267
14.2199
8.95528
6.80339
133.374
57.9941
31.7489
20.1018
15.3036
63.3426
23.6535
12.2294
7.59036
5.74001
140.786
67.6861
38.7069
24.8624
19.0344
59.7988
23.5531
12.5394
7.83902
5.92011
101.981
37.6959
19.1822
11.8739
8.99083
59.8551
21.0878
10.6896
6.62779
5.01985
87.2156
23.7135
9.75111
5.53733
4.05022
48.0444
11.1457
4.1817
2.2825
1.64017
34.5955
14.5988
7.70828
4.72544
3.55106
25.0287
11.606
6.39864
3.97389
2.99606
84.5612
36.7577
19.8834
12.3503
9.35487
64.7009
30.6674
17.1875
10.7638
8.13986
118.291
45.2365
23.4996
14.4003
10.8787
88.1609
42.4469
24.031
15.0995
11.4947
107.876
52.1602
30.0136
19.2146
14.7334
60.4199
32.4744
18.9733
12.0623
9.26721
56.2881
28.7311
16.8802
10.9094
8.3638
-359.847
-470.091
-826.524
-1156.46
-901.968
-1458.79
-420.867
-1217.5
206.504
-329.185
-773.649
-1239
58.9063
-12.0452
-1135.94
-1770.46
-1409.41
-2001.87
-577.513
-133.338
-29.9119
-6.58147
-1.64392
-206.515
-88.7189
-12.7184
-3.31161
-1.40741
-1774.67
-408.033
-91.8503
-20.1104
-5.0296
-497.486
-131.085
-31.3683
-6.55657
-1.74094
-2989.74
-688.944
-155.479
-34.1475
-8.52067
-783.342
-220.303
-52.7265
-12.0907
-3.01022
-4029.47
-931.381
-211.014
-46.4751
-11.6082
-908.96
-276.241
-68.2797
-15.8494
-3.94159
-5061.25
-1181.54
-269.506
-59.6444
-14.9567
-998.041
-333.732
-85.0184
-20.013
-5.03717
-6057.6
-1458.38
-337.247
-75.2504
-18.9482
-1504.02
-457.926
-112.59
-25.7399
-6.41421
-5615.8
-1346.55
-309.994
-68.8868
-17.2935
-1187.17
-390.961
-98.8204
-23.0102
-5.73836
-6267.52
-1511.93
-350.355
-78.3012
-19.7459
-1692.6
-500.048
-121.263
-27.3549
-6.80138
-6543.85
-1565.81
-363.417
-81.1919
-20.4641
-1750.72
-519.432
-127.154
-26.6505
-7.01405
-521.979
-6745.82
-6159.89
-2231.7
1583.07
2715.43
7588.68
11101.8
1658.62
8127.56
-1575.39
2543.32
2442.19
4812.03
9049.01
12812.1
13718.6
17211.2
5597.07
7249.27
-19671.6
-14282
-4932.28
-3923.35
-2829.42
-4059.51
-3736.66
-12198.5
-11871.4
-10071.9
-11062.9
-9242.87
-6596.17
-8519.36
-5738.8
-4858.05
-5939.83
-4078.72
-19720.1
-10393.6
-3766.72
-6392.46
-8558.25
-6014.14
-6621.82
-4947.04
-3049.63
-4319.85
-4544.11
-4902.1
-19371.8
-12789.8
-12197.2
-8855.24
-8860.47
-9251.36
-4092.28
-5422.53
-6777.65
-14249
-12591.6
-10897
-10465.7
-9405.17
-9356.17
-6499.01
-5187.45
-4133.33
-2210.25
-4365.55
-3632.09
-2732.56
-1709.17
-586.258
-3509.08
-2943.27
-2219.32
-1381.61
-469.808
-2516.15
-2095.06
-1567.18
-968.887
-328.05
-3633.87
-3047.51
-2294.02
-1423.91
-482.828
-3321.92
-2768.11
-2075.59
-1287.75
-437.391
-7951.59
-6225.15
-5047.23
-4893.79
-5524.55
-6567.29
-4929.71
-3624.43
-3114.79
-2233.78
-6308.59
-3807.68
-2700.09
-1951.3
-974.183
-5716.16
-3904.8
-2656.45
-1995.08
-1207.79
-4324.2
-2720.18
-1721.06
-1227.59
-615.388
-5235.33
-3926.41
-2729.81
-1645.19
-570.651
-5801.19
-3724.85
-2455.95
-1493.9
-570.162
-3763.96
-2236.67
-1339.74
-729.008
-248.618
-4011.56
-3105.62
-2196.15
-1320.48
-447.463
-4748.58
-3551.83
-2429.35
-1420.99
-473.679
-3402.47
-2653.65
-1879.56
-1123.9
-376.662
-13214.1
-10276.4
-8561.51
-7943.3
-7920.32
-7702.21
-5634.43
-4198.15
-2924.4
-1358.06
-3143.53
-2469.86
-1779.58
-1092.97
-379.095
-5433.34
-4363.01
-3217.6
-2019.6
-714.126
-7050.09
-5579.33
-4155.88
-2715.05
-1044.83
-5139.06
-4164.88
-3111.96
-1982.38
-709.72
-5752.62
-4721.65
-3542.61
-2240.82
-786.993
-4316.47
-3541.92
-2639.26
-1646.62
-567.253
-2633.88
-2126.91
-1550.63
-944.1
-318.296
-3809.41
-3146.14
-2340.2
-1444.27
-489.659
-3874.25
-3096.74
-2249.19
-1375.39
-468.733
-4255.67
-3469.32
-2566.08
-1589.96
-545.246
-13671.3
-11564
-9943.99
-9218.75
-8422.39
-8956.09
-6496.37
-5125.24
-3927.24
-2075.99
-9093.22
-7308.73
-5700.66
-4351.13
-2187.3
-7012.4
-5375.54
-4116.08
-2865.32
-1197.45
-7431.7
-5991.49
-4528.44
-2981.37
-1137.55
-7266.8
-5524.12
-4202.24
-2913.1
-1203.53
-3525.1
-2864.4
-2128.6
-1337.32
-468.314
-4788.58
-3967.49
-2967.18
-1843.42
-628.414
-5852.95
-4771.91
-3559.9
-2243.25
-785.733
-5389.95
-10953.8
-11454.7
-31279.6
-11322.3
-41953.3
-6161.93
-14920.4
-11337.6
-8774
-18764.5
-15672.3
-11350.1
-10727.6
-21100
-16764.2
-3962.3
-2939.06
-7647.35
-5245.25
-8884.95
-6689.97
-23770.4
-17535.9
-14657.4
-11156.1
-15058.3
-8969.22
-1166.9
-3613.47
-39038.7
-51167.7
-23637.4
-29886.9
-51691.3
-66458.3
-25519.2
-30020.6
-29049.4
-40118.3
-23684.7
-32339.5
-15655.4
-23676.6
-1884.9
-496.069
-3303.7
-1126.19
-6411.63
-2854.61
-12988.7
-4684.59
-2830.8
-1599.6
-7071.21
-2219.45
-14625.7
-4589.15
-19019
-6397.3
-16081.7
-8320.59
-18473.1
-11002.7
-14735.9
-10543.6
-16475.7
-12811
-14689.4
-8600.15
-11645.2
-5997.54
-20876
-13361
-21743
-14043.3
-19234.8
-14674.8
-20296.9
-15311.7
-17283.1
-10861.1
-18489.7
-11589.6
-16033
-7055.73
-6967.55
-9153.63
-14358.2
-7206.93
-5207.91
-8976.68
-17740.2
-7234.79
-8488.13
-9411.53
-18864.1
-7479.13
-9565.35
-9966.4
-1085.7
-972.532
-260.602
-1141.24
-4408.1
-4546.89
-2743.42
-5417.37
-2451.48
-3057.08
-4247.12
-8015.02
-11890.5
-9614.26
-9122.51
-11329.7
-7417.41
-7585.4
-8067.18
-6690.73
-13104.3
-11263.9
-11308.4
-9392.33
-6465.58
-5511.1
-12094.7
-1047.28
-787.147
-581.283
-651.569
-4095.06
-3260.28
-3450.85
-3040.95
-575.433
520.524
-4072.54
-3197.45
-10089.5
-10725.5
-9404.6
-8609.18
-6920.66
-5032.25
-9022.37
-7199.32
-7987.21
-6259.52
-11442.3
-11687.7
-9733.23
-7674.26
-7158.57
-4911.63
-6272.1
-4009.99
-9299.65
-5683.78
-9176.2
-5087.45
-8174.98
-9347.35
-12933.9
-17242.4
-13639.8
-19923.1
-6223.44
-7431.27
-7566.88
-2909.82
-7525.32
-14748.6
-7252.45
-15883.3
-13466.6
-24703.1
-13733
-26057.2
-5538.64
-12542.6
-5173.67
-13474.8
-7466.5
-5920.68
-10765
-4391.59
-7211.18
-1827.2
-9268.82
-1252.96
-7411.5
-8929.57
-11384.3
-5317.46
-6216.13
-10601.8
-10110
-6975.42
-778.254
-724.177
-523.338
-605.021
-2488.81
-1818.91
-2241.53
-2038.8
1073.92
605.525
-2629.11
-2926.94
-10630
-10109.1
-7618.97
-6608.38
-4000.07
-3388.06
-5646.06
-4670.66
-5261.73
-3850.21
-18191.7
-15991.2
-7881.49
-6764.15
-5929.03
-4565.41
-4863.76
-3169.98
-5145.23
-2275.93
-5574.7
-9158.07
-4885.01
-9242.12
-8183.67
-10261.1
-9155.08
-12494.2
-1001.3
-742.955
-789.069
-679.774
-3639.63
-2636.98
-2989.25
-1726.06
-1478.29
-1757.03
-8328.89
-8966.36
-4689.79
-4231.5
-9222.5
-9522.71
-14053.1
-16118.4
287.091
3777.2
-7347.18
-7102.05
-6921.48
-5459.52
-1094.21
-1000.41
-1177.79
-976.84
-1829.18
-1300.17
-705.113
-618.619
-8164.08
-3918.93
-6929.64
-3288.71
-9186.45
-3703.93
-10850.6
-3892.76
-5464.43
-10273.9
-7017.85
-10753.2
-8602.77
-11546
-11230
-12512
-5355.81
-9386.88
-4875.95
-9343.24
-8156.2
-10845.2
-9336.25
-11227.2
-12953.2
-13146.4
-14205.6
-13671.4
-5702.83
-9230.64
-6257.44
-9454.53
-772.881
-2510.63
-8180.26
-5841.19
-755.48
-2596.26
-8095.52
-5591.22
-1047.09
-2483.56
-8168.62
-6019.79
-1213.21
-2381.96
-8055.5
-5959.01
-1102.19
-1219.34
-1045.04
-1146.78
-2186.98
-2257.86
-1557.01
-1715.22
-8492.9
-7876.69
-4153.05
-4244.68
-3843.57
-5257.3
-4186.68
-524.456
-2079.3
-1373.55
-1461.47
-3668.86
2475.37
-1158.65
-13651.7
-11756.5
-10807.7
-9576.87
-6269.79
-1232.4
-1123.76
-1305.14
-1656.65
-2253.82
-1784.41
-2214.8
-2953.85
-8260.74
-8211.71
-4703.38
-6145.27
-5065.89
-6720.61
-3243.55
-5175.59
-4983.97
-5440.49
-1375.82
-1729.69
-3315.11
-4905.25
-9651.2
-7960.27
-7732.77
-5712.21
-6904.34
-4969.43
-6312.69
-4692.42
-4913.24
-5466.37
-8490.79
-8419.58
-11391.7
-7413.29
-10423
-11225.5
-13037.4
-11006.1
-9767.61
-6189.37
-7246.21
-7277.58
-12370.2
-6113.46
-13160
-6150.22
-13901.7
-10859.7
-14646.9
-11063
-10593.9
-4867.32
-11231.2
-4918.19
-8323.96
-6740.79
-7027.05
-9697.1
-7143.1
-7669.21
-6853.79
-9879.21
-8585.89
-6334.21
-7145.16
-10453.2
-9590.71
-6307.97
-8034.77
-10188.5
-922.872
-791.169
-1201.6
-866.714
-1506.55
-1763.76
-1803.36
-1284.17
-8070.87
-7064.31
-4155.04
-1837.74
-7898.7
-7507.75
-6229.42
-5602.93
-5281.35
-4511.77
-2014.71
-2029.9
-4680.62
-2077.67
-8657.07
-7421.14
-4971.44
-3897.29
-3951.79
-2412.98
-3031.51
-1256.86
-4904.38
-136.771
-257.94
-119.943
-41.3501
25.8893
-242.599
-154.408
-61.8595
8.4254
-696.745
-312.137
-22.9073
191.649
-629.573
-369.794
-73.5423
111.787
-1138.51
-461.534
15.064
440.249
-1121.98
-559.133
-202.125
8.22235
-767.349
-376.513
-185.896
-61.066
-587.573
-246.749
-28.882
126.574
-1700.4
-603.754
-134.618
170.795
-2036.23
-583.556
-85.7701
596.119
-1635.18
-581.323
-96.8146
300.953
-1850.26
-525.332
-112.924
547.867
-1586.37
-555.576
-44.0174
336.815
-2109.87
-601.188
-65.4885
690.414
-1436.9
-469.927
46.4226
482.72
-2089.4
-580.318
-34.6568
747.311
-239.651
-98.2971
-15.723
81.7675
-206.812
-75.0811
-28.7988
79.2087
-617.886
-256.987
-29.1548
208.843
-519.397
-197.88
-77.8027
203.811
-1222.53
-428.736
-13.8647
459.169
-1112.03
-374.106
-86.7661
424.117
-1353.98
-508.577
-104.672
333.461
-1025.88
-355.029
-117.269
474.198
-1866.03
-524.916
-98.3747
749.895
-148.28
-56.07
-17.6169
50.424
-65.8915
-39.0938
-19.1099
-0.943879
-447.648
-162.218
-67.9468
122.26
-219.976
-117.114
-64.8255
-11.0392
-796.562
-270.06
-103.101
221.709
-453.98
-205.897
-102.466
-10.8702
-1213.76
-389.512
-132.862
333.873
-803.414
-304.447
-136.689
-5.67545
-1604.13
-468.658
-197.153
290.299
-1090.92
-369.201
-176.466
-27.5367
-2153.52
-608.835
-210.544
363.871
-1089.7
-343.868
-144.056
15.1248
-2071.95
-597.301
-241.157
304.676
-1202.08
-382.886
-169.836
-12.4985
-2129.94
-557.691
-149.218
468.539
-979.509
-276.792
-89.566
70.3779
-2024.88
-478.001
-80.5393
530.446
-870.024
-196.976
-30.4866
117.217
-9.19051
-13.7235
-10.1047
-7.03529
-5.52267
-35.3423
-26.4024
-17.3891
-11.7547
-9.16774
-18.7201
-31.308
-23.0849
-15.9884
-12.4688
-76.3576
-58.4237
-38.5313
-25.9574
-20.1985
-13.3513
-37.7154
-28.3151
-19.63
-15.2734
-99.4589
-76.8332
-50.4058
-33.7731
-26.2022
-48.1515
-38.5158
-25.3872
-16.9897
-13.1806
-8.0604
-16.7563
-12.5819
-8.70064
-6.83864
-25.5606
-40.8458
-29.3727
-20.1173
-15.7158
3.82035
-13.9084
-11.0593
-7.7424
-6.08804
-61.3514
-55.7434
-37.1657
-24.9769
-19.3846
-3.48001
-15.8653
-11.8067
-8.17041
-6.42372
10.2051
-19.9956
-16.6116
-11.7093
-9.21235
8.02672
-11.2473
-9.30927
-6.5379
-5.14333
45.2299
-2.77958
-6.75433
-5.38848
-4.43633
30.6624
0.104065
-2.70583
-2.2837
-1.91648
-1.67033
-9.6811
-7.50783
-5.30864
-4.18806
-8.43197
-9.40222
-6.55546
-4.53257
-3.55807
-14.2943
-27.1116
-19.7683
-13.7359
-10.7543
-28.6342
-26.6273
-17.9397
-12.2711
-9.60311
5.51694
-29.5094
-23.0803
-16.2726
-12.7727
-46.5385
-38.7278
-25.5434
-17.3885
-13.5283
-55.8249
-46.1642
-30.0883
-20.2005
-15.6353
-50.4774
-32.3322
-20.3761
-13.6967
-10.5693
-38.275
-26.6777
-16.8505
-11.1953
-8.66629
-67.9978
-202.206
-131.58
-517.69
-91.7704
-717.754
176.612
-657.252
432.24
-135.132
-772.724
-1243.99
58.7554
-101.745
-1138.58
-1768.04
-1410.58
-2000.62
-563.766
-132.815
-29.9844
-6.61449
-1.65387
-152.453
-82.4321
-11.5228
-3.14857
-1.39894
-1742.69
-407.121
-92.1424
-20.2165
-5.06068
-367.411
-111.158
-28.3353
-6.0883
-1.66534
-2940.62
-686.516
-155.7
-34.2702
-8.55996
-634.926
-196.963
-49.0665
-11.5279
-2.91379
-3970.87
-926.487
-210.774
-46.5187
-11.6328
-799.152
-257.297
-65.0885
-15.3239
-3.84572
-5012.8
-1175.63
-268.831
-59.5864
-14.958
-954.902
-323.226
-82.9065
-19.6247
-4.96086
-6038.81
-1454.17
-336.41
-75.0998
-18.9196
-1503.3
-456.773
-112.208
-25.6479
-6.39163
-5588.79
-1341.15
-309.066
-68.7435
-17.2719
-1182.76
-386.842
-97.7155
-22.7748
-5.68748
-6255.53
-1509.14
-349.763
-78.1879
-19.7225
-1691.96
-499.66
-121.134
-27.3244
-6.79382
-6539.77
-1564.86
-363.209
-81.151
-20.4556
-1750.51
-519.344
-127.126
-26.6452
-7.01261
-548.1
-6676.74
-5922.06
-2200.18
-1553.84
-938.487
-3664.11
-2688.34
-6267.54
-5859.95
-2974.81
-2249.95
-425.341
-648.043
-1105.37
-1781.71
-2645.83
-3606.56
-305.844
-653.383
-1351.72
-2336.9
-3487.66
-4631.07
-324.343
-149.588
-554.287
-380.226
-1015.22
-845.781
-1682.4
-1567.59
-2396.65
-2314.29
-3102.32
-2816.97
-4413.04
-4920.06
-5280.72
-7743.29
-8579.13
-9397.12
-5551.46
-6033.12
-5936.7
-5359.74
-4543.05
-3941.22
-384.419
-325.848
-247.635
-154.678
-52.5901
-585.371
-495.867
-376.615
-235.137
-79.9279
-997.833
-844.665
-641.126
-400.118
-135.984
-1606.9
-1358.91
-1030.62
-642.895
-218.458
-2382.78
-2012.1
-1524.34
-950.4
-322.93
-3239.99
-2729.57
-2064.81
-1286.99
-437.463
-276.309
-234.12
-177.859
-111.062
-37.7535
-589.941
-499.509
-379.225
-236.699
-80.4472
-1219.74
-1032.09
-783.139
-488.664
-166.068
-2106.74
-1780.93
-1350.37
-842.325
-286.241
-3139.55
-2650.23
-2007.59
-1251.91
-425.475
-4159.37
-3503.86
-2651.17
-1653.25
-562.203
-293.221
-248.597
-188.961
-118.047
-40.142
-135.237
-114.657
-87.1513
-54.4439
-18.5137
-500.834
-424.377
-322.397
-201.322
-68.4417
-343.595
-291.178
-221.228
-138.153
-46.9676
-916.79
-776.344
-589.44
-367.923
-125.052
-763.891
-646.969
-491.267
-306.659
-104.229
-1517.9
-1284.09
-974.079
-607.649
-206.474
-1414.39
-1196.52
-907.579
-566.085
-192.328
-2159.14
-1823.68
-1381.57
-861.164
-292.528
-2084.76
-1760.44
-1333.08
-830.508
-282.007
-2787.13
-2347.44
-1774.54
-1105.02
-375.323
-2529.95
-2129.27
-1607.63
-999.651
-339.172
-3947.61
-3313.55
-2502.31
-1560.79
-531.559
-4366.78
-3643.51
-2747.17
-1719.77
-589.536
-4617.05
-3814.03
-2874.93
-1820.06
-636.254
-6568.86
-5340.77
-4051.13
-2649.78
-984.25
-6887.67
-5464.92
-4203.7
-2917.62
-1228.65
-7225.7
-5636.76
-4382.86
-3175.82
-1454.62
-4968.61
-4173.4
-3154.01
-1968.46
-670.542
-5370.39
-4492.31
-3391.77
-2122.37
-726.026
-5238.04
-4355.35
-3287.57
-2070.05
-715.15
-4654.79
-3834.3
-2899.57
-1852.69
-655.956
-3820.92
-3094.9
-2354.99
-1554.87
-585.016
-3197.57
-2543.43
-1949.82
-1335.05
-536.093
-447.81
-716.523
-1222.89
-1952.64
-2877.38
-3885.82
-337.64
-750.041
-1515.28
-2565.57
-3766.73
-4921.96
-346.089
-168.486
-620.793
-438.994
-1130.59
-950.885
-1853.89
-1728.6
-2642.62
-2588.87
-3416.48
-3228.65
-4700.45
-5184.39
-5521.64
-7886.74
-8641.1
-9416.17
-5795.84
-6175.66
-5957.05
-5281.7
-4436.43
-3892.94
-404.84
-343.277
-260.976
-163.061
-55.4495
-647.656
-549.076
-417.386
-260.776
-88.678
-1104.89
-936.311
-711.499
-444.45
-151.128
-1763.06
-1493.06
-1134.02
-708.229
-240.816
-2595.25
-2195.58
-1666.52
-1040.65
-353.892
-3498.21
-2954.6
-2240.84
-1399.57
-476.259
-305.203
-258.77
-196.719
-122.909
-41.7941
-677.826
-574.56
-436.71
-272.837
-92.7783
-1368.71
-1159.59
-881.024
-550.319
-187.129
-2315.63
-1960.35
-1488.65
-929.691
-316.138
-3395.63
-2871.39
-2179
-1360.72
-462.809
-4428.27
-3738.17
-2834.44
-1770.47
-602.601
-312.962
-265.428
-201.832
-126.127
-42.8969
-152.385
-129.264
-98.3099
-61.4437
-20.8996
-561.279
-475.966
-361.889
-226.136
-76.9072
-396.971
-336.695
-256.041
-160.012
-54.4215
-1021.82
-866.181
-658.37
-411.317
-139.871
-859.558
-728.775
-554.015
-346.151
-117.714
-1674.56
-1418.66
-1077.78
-673.17
-228.894
-1561.68
-1323.25
-1005.41
-627.983
-213.525
-2384.8
-2018.52
-1532.52
-956.952
-325.386
-2336.9
-1978.39
-1502.15
-937.901
-318.867
-3077.71
-2600.77
-1972.74
-1231.78
-418.993
-2910.05
-2459.94
-1865.8
-1164.48
-395.904
-4217.04
-3552.08
-2691.84
-1683.57
-574.199
-4620.78
-3874.42
-2935.39
-1844.29
-633.387
-4858.04
-4041.68
-3067.12
-1951.09
-683.51
-6738.43
-5521.75
-4220.26
-2775.88
-1033.93
-6985.59
-5581.52
-4322.47
-3015.12
-1272.73
-7262.22
-5681.84
-4430.35
-3216.58
-1474.08
-5197.79
-4376.41
-3315.47
-2073.15
-706.919
-5509.36
-4620.67
-3498.01
-2193.51
-751.247
-5267.57
-4391.69
-3324.58
-2098.58
-726.158
-4595.58
-3795.02
-2878.95
-1845.68
-655.323
-3734.13
-3029.46
-2312.48
-1533.73
-580.019
-3157.87
-2512.8
-1929.33
-1324.58
-533.581
-19607.3
-14335.9
-5303.73
-4329.16
-3288.13
-4642.69
-4219.04
-12930.2
-14611.5
-11584.1
-13369.3
-8039.55
-11382
-6177.04
-6437.97
-4724.72
-20365.1
-11364.5
-4445.55
-7276.03
-9399.14
-6509.52
-7270.11
-5515.06
-3406.28
-4964.35
-5441.11
-5594.81
-19248
-12981.8
-12831.9
-9240.33
-9291.74
-9767.77
-4754.27
-6053.67
-7396.93
-14264.8
-12670.3
-11018.8
-10633
-9564.77
-9451.64
-6599.63
-5286.23
-4216.79
-2247.26
-4724.67
-3960.45
-3001.47
-1887.64
-649.222
-3888.73
-3278.55
-2485
-1553.27
-529.309
-2950.53
-2483.79
-1879.02
-1172.21
-398.862
-4177.76
-3526.23
-2672.13
-1667.55
-567.122
-3780.27
-3179.57
-2406.45
-1503.8
-512.699
-9648.32
-8214.78
-6978.12
-6534.3
-6738.34
-11063.2
-9732.19
-8050.37
-6581.59
-3997.41
-8415.3
-5974.81
-4591.91
-3284.58
-1466.83
-10076.8
-8464.4
-6754.46
-5049.93
-2482.39
-6835.92
-5522.19
-4111.02
-2591.74
-909.499
-8984.28
-6743.78
-4983.39
-3205.79
-1187.89
-5376.22
-4414.13
-3301.11
-2067.53
-713.456
-5582.5
-4570.43
-3413.55
-2138.99
-739.305
-4146.02
-3423.9
-2564.08
-1600.68
-548.661
-14575.8
-11925.2
-10221.7
-9393.26
-8964.16
-8916.34
-6910.93
-5350.76
-3761.53
-1695.74
-3861.85
-3172.77
-2382.97
-1505.45
-527.059
-6345.99
-5243.92
-3969.17
-2533.42
-899.633
-7982.77
-6522.25
-4989.49
-3305.27
-1268.63
-5659.85
-4675.67
-3554.59
-2289.73
-822.421
-6394.47
-5321.34
-4043.14
-2578.6
-907.975
-4880.42
-4070.11
-3080.01
-1942.88
-672.544
-3020.51
-2516.34
-1892.97
-1181.35
-403.625
-4434.41
-3719.13
-2809.74
-1755.29
-598.972
-4786.41
-3965.33
-2980.96
-1869.3
-644.31
-4948.72
-4122.23
-3112.74
-1957.77
-675.891
-13811.5
-11866.8
-10352
-9691.78
-8904.24
-9248.96
-6807.83
-5425.52
-4171.72
-2188.24
-10022.3
-8311.69
-6660.19
-5108.91
-2536.6
-7471.1
-5857.43
-4559.38
-3196.14
-1327.76
-7922.62
-6500.79
-4990.85
-3317.58
-1268.23
-7893.63
-6173.43
-4799.61
-3356.3
-1380.87
-4178.41
-3472.24
-2633.08
-1675.52
-588.652
-5398.8
-4525.21
-3423.08
-2144.99
-734.368
-6487.25
-5382.15
-4080.67
-2599.8
-914.383
-505.278
-1429.07
-2254.45
-3022.14
-3745.82
-4419.27
-2551.14
-6862.31
-6546.92
-2507.42
-8743.68
-7334.15
-8785.03
-9747.75
-2307.14
-1490.75
-5358.63
-3117.92
-10237.8
-7235.53
199.538
-2074.26
-5733.07
-5397.68
-2025.6
-7459.93
-6006.39
-7393.37
-8347.46
-1911.68
-886.614
-4602.95
-1647.56
-8520.93
-4350.12
1457.26
-1522.66
-4381.84
-4118.91
-1493.92
-5924.31
-3650.55
-6034.65
-6710.68
-1447.31
-806.609
-3274.95
-1708.91
-6842.29
-1783.36
1591.68
-1129.5
-3413.67
-3280.46
-1150.2
-4567.5
-2260.87
-5049.46
-5962.85
-1095.29
-845.896
-2409.3
-1723.35
-6055.18
-409.916
1195.71
-918.909
-2911.91
-2845.24
-976.839
-3698.2
-1889.6
-4554.24
-5805.72
-872.508
-918.775
-1747.07
-1653.22
-5303.6
-192.292
113.8
-815.588
-2612.6
-2624.01
-889.038
-3438.55
-2138.41
-4234.72
-5559.45
-678.704
-721.324
-1456.88
-1622.25
-5218.59
-954.786
-462.05
-1383.93
-3395.02
-4879.85
-1883.93
-5503.59
-9587.92
-7174.38
-10356.7
-1028.13
-745.861
-3916.35
-2471.46
-1285.23
-9297.43
-4870.1
-1293.89
-3181.32
-4310.59
-1645.61
-5114.85
-8711.36
-6510.74
-8870.82
-1058.58
-669.938
-4082.11
-2361.7
-463.544
-9162.54
-3718.01
-1149.29
-2835.12
-3568.65
-1336.23
-4699.36
-7872.18
-5594.8
-7884.14
-953.094
-772.735
-3541.65
-2488.01
-660.664
-7495.32
-3598.05
-1007.35
-2584.79
-3000.53
-1100.43
-4429.58
-7235.69
-5035.73
-7232.57
-888.146
-795.133
-3324.91
-2630.29
-433.58
-7029.36
-3689.89
-920.014
-2345.32
-2691.05
-973.135
-4058.55
-6708.21
-4634.22
-6922.26
-840.86
-857.625
-3056.9
-2864.53
-552.887
-6814.03
-3810.95
-859.73
-2104.97
-2510.22
-901.489
-3764.32
-6646.89
-4328.62
-6719.07
-874.732
-984.961
-2736.96
-2727.3
-795.127
-6998.34
-4228.26
5826.44
7355.51
15283.9
22312.4
22715
39149.7
17489.7
44515
14258.4
31292
21332.6
32368.3
19134
25114.4
7224.34
8183.82
14261.7
16321.4
18455.1
18313.9
14580.4
18053.4
21478.9
19313.5
4786.04
3608.5
5877.3
3947.62
12017.6
9531.13
20602.3
14853.6
15932.8
16562.3
17653.7
16750.5
6113.05
4810.8
37858
50696.9
24454.4
30033.1
51023.1
66197.8
26418.7
30239.2
28010.8
39590.5
24421
32399.9
14245.1
23014.9
2554.74
873.293
2625.95
955.243
8153.39
3280.91
11260.1
4130.8
7965.76
3061.17
8531.58
2729.98
14594.5
4636.27
18847.6
6348.98
23276.6
11519.6
21303.3
12642.6
21934.7
14189.4
19280.8
14557.2
16668.1
9895.36
16646.6
8443.95
21971.5
14102.1
22017.2
14245.9
20349.8
15433.2
20594.1
15517.6
18013.7
11462.1
18663.4
11755.5
16980.1
7317
7812.03
9461.53
17054.1
7984.23
6782.06
9538.45
17995.7
7299.18
8881.91
9563.34
18895.9
7484.04
9676.42
10011.1
3298.1
3556.43
1125.65
2126.47
10263.6
10847.8
3927.44
6890.59
13194.4
14706.4
6266.26
10617.2
12206.8
1218.84
13288.2
16221
8712.95
885.068
7512.48
11857.3
19017.5
12911
9597.98
11561.6
10000.5
8538.72
13346.2
3107.78
2557.27
1749.07
1762.05
9644.59
8214.05
5777.44
5493.29
12055.3
10343.7
7486.38
6740.94
5886.3
7455.5
12081.6
12479.6
13743.5
12528.8
15473.9
13548.5
10272.6
8638.96
8942.88
9535.98
11757.3
9469.96
10649.6
7932.12
9158.82
6462.91
10536.3
6970.24
10118.8
4955.11
8649.46
9485.1
12431.4
16347.3
13664.6
19965.6
6846.33
7713.46
8934.84
3124.04
7694.58
14906.3
7291.21
15941.2
13521.5
24616.7
13753.5
26078.8
5771.69
12735.5
5228.31
13533.2
7934.06
6112.1
10961.8
4437.66
8240.31
1913.5
9599.76
1001.96
7597.97
9055.62
11473.3
5349.72
6264.9
10642.1
10133.8
6990.95
2032.91
1824.18
1686.53
1495.4
1395.31
1277.44
6817.87
5694.95
5001.88
4342.44
3563.99
3136.64
8434.35
7400.48
6892.18
5216.08
4357.9
4162.09
6646.2
5996.57
5892.15
10977.4
8554.04
7293.94
10209.1
7744.63
6385.73
10744.1
8669
7623.91
6494.23
4396.58
3488.3
15804.6
13936.5
12242.2
10040.8
8537.72
7234.83
8784.68
7004.17
5731.84
7268.44
5393.81
4264.35
7300.52
4154.34
2422.7
10172.8
13846.8
8007.09
10414.9
10863.3
16020.1
9671.53
14151.3
105.783
660.722
-396.06
73.0213
2978.41
3464.73
1241.19
761.032
709.235
2436.7
9310.56
13636.5
6619.9
3579.63
9698.72
9623.1
14838.9
16334.3
-566.606
-3987.5
7479.84
7056.39
6990.4
5396.98
913.306
513.773
557.131
221.777
2112.58
302.363
-240.964
-792.897
9204.65
2496.77
6182.31
1680.96
8850.98
2734.44
10703
3493.47
8739.11
11856.6
8092.41
11586.5
13859.5
14744.9
13238.9
13991.6
5705.59
9546.85
6568.72
9467.97
8579.41
11180
9458.22
11313.5
13790.2
13760.4
14442.3
13836.2
5755.8
9260.68
6256.19
9450.88
121.596
1633.16
7722.08
5146.37
-448.545
1215.64
7156.47
4570.97
557.401
1863.46
7909.02
5591.56
1010.06
2131.39
7976.1
5810.5
-608.019
-705.896
184.978
52.2843
-2760.98
-2816.12
-111.736
-237.738
-407.555
-1817.53
1909.56
1299.52
-10187
-9411.83
-5477.41
-4090.2
-228.24
-10354.8
-10778.9
-4275.76
-6263.67
-583.006
10068.9
8036.69
7334.62
7059.56
4586.33
-762.517
-730.971
-11.3942
111.817
-2480.95
-2547.55
89.3158
386.789
-2506.32
-3202.25
963.516
1390.67
-5124.37
-2406.28
-8220.8
-5259.06
-3611
-2804.13
-4026.53
-3588.97
799.091
1880.25
3729.13
2364.57
1070.31
-1033.23
1166.9
-682.721
2047.51
663.817
2647.21
3070.76
5327.37
4917.01
10064.8
6135.67
8084.7
8212.6
12272.1
9993.72
8165.81
4943.29
4177.75
4198.39
11840.4
5315.58
13020.5
5954.04
13681.4
10201.5
14600.4
10919.6
9848.79
4082.32
11019
4707.13
6791.28
5600.5
5654.18
8403.66
4519.28
5169.28
4882.85
7796.57
7778.9
5585.72
6360.29
9624.28
9336.94
6070.89
7779.65
9949.45
-793.352
-857.718
-976.442
-16.6739
-313.734
-354.483
-3017.13
-3321.32
-3362.94
-115.932
-896.875
-924.488
-3818.69
-4408.62
-4583.54
820.856
-870.067
-1222.35
-1352.2
-1179.99
-882.326
-4010.55
-4174.86
-3933.73
-3279.84
-3818.17
-3798.08
-4054.88
-4513.73
-4463.32
1714.85
-355.374
-534.77
3414.92
1909.36
966.842
-1116.91
-2387.95
-3067.24
-1015.39
-2683.35
-3414.42
-359.29
-2204.6
-2743.78
2822.07
-535.435
-947.068
-14.67
-36.2426
-53.9192
-83.091
-256.272
-151.896
-130.416
-131.368
19.8098
-78.6574
-200.478
-327.159
-435.87
-299.996
-343.266
-388.108
284.393
-24.0672
-282.185
-574.127
-136.072
-244.386
-336.214
-397.89