/*--------------------------------*- C++ -*----------------------------------*\
| =========                 |                                                 |
| \\      /  F ield         | OpenFOAM: The Open Source CFD Toolbox           |
|  \\    /   O peration     | Version:  2306                                  |
|   \\  /    A nd           | Website:  www.openfoam.com                      |
|    \\/     M anipulation  |                                                 |
\*---------------------------------------------------------------------------*/
FoamFile
{
    version     2.0;
    format      ascii;
    arch        "LSB;label=32;scalar=64";
    class       volVectorField;
    location    "0.5";
    object      flux;
}
// * * * * * * * * * * * * * * * * * * * * * * * * * * * * * * * * * * * * * //

dimensions      [0 1 -1 1 0 0 0];

internalField   nonuniform List<vector> 
5322
(
(-0.000991105 0.00255545 -0.00342383)
(2.738e-05 0.000249786 -0.00344263)
(3.23178e-05 -2.76615e-06 -0.00346672)
(2.57989e-06 -8.64995e-05 -0.00375699)
(-1.10046e-06 -3.92311e-05 -0.00362619)
(-1.18939e-06 -4.00363e-06 -0.00352085)
(-4.81369e-07 1.27364e-05 -0.00343285)
(2.7821e-08 2.75337e-05 -0.00336296)
(-7.50788e-08 5.58732e-05 -0.00331413)
(-8.94243e-07 9.10882e-05 -0.00329831)
(-3.35864e-06 3.40872e-06 -0.00323581)
(3.60556e-05 -0.000631199 -0.00323605)
(5.54457e-05 -0.000700152 -0.00243279)
(-0.000763682 -0.000628543 -0.0033554)
(-2.00755e-05 -0.00054601 -0.00367018)
(0.00133105 0.00118281 -0.00293315)
(-0.00104576 0.0015817 -0.00346655)
(-1.59737e-05 -2.76336e-06 -0.00259838)
(-0.000799256 0.00109503 -0.00366429)
(0.000519466 -0.00130439 -0.00371087)
(-0.000706037 0.0012458 -0.00375609)
(0.000621874 -0.00127564 -0.00376152)
(-0.000657829 0.00125898 -0.00379546)
(0.000672581 -0.00130223 -0.00384613)
(-0.000682166 0.00130808 -0.00388749)
(0.000668813 -0.0012999 -0.0039039)
(-0.00067054 0.00131054 -0.00395513)
(0.000712042 -0.00135778 -0.00401808)
(-0.000702542 0.00136817 -0.00407674)
(0.000720878 -0.00137337 -0.00410619)
(-0.000684138 0.00139704 -0.00416821)
(0.000798556 -0.00142085 -0.00422973)
(-0.000598794 0.00148385 -0.00426672)
(0.000939215 -0.0012959 -0.0042508)
(2.22735e-05 0.00125427 -0.00409908)
(0.00120606 -0.000638807 -0.00339936)
(0.000851062 0.00125944 -0.0038891)
(-0.000339042 0.00157368 -0.0039443)
(0.000950938 0.000787528 -0.0040704)
(-5.48988e-05 0.000857583 -0.00288409)
(-0.000901972 0.00116166 -0.00378333)
(0.000906606 0.000971084 -0.00390461)
(-5.49049e-05 0.00101051 -0.00283165)
(-0.000964518 0.00108454 -0.00390977)
(0.000958651 0.00103407 -0.00387136)
(-3.29755e-05 0.00102997 -0.00287918)
(-0.00102516 0.00105056 -0.00396439)
(0.000896352 0.00112244 -0.00374296)
(-2.24561e-05 0.00104643 -0.00284219)
(-0.00107472 0.000993773 -0.0038801)
(-0.00106131 0.00124791 -0.004359)
(-0.00153867 0.000596972 -0.00310099)
(-0.000485014 0.000672878 -0.00423705)
(0.00102297 -0.00219628 -0.00394559)
(-6.55868e-05 -0.000117862 -0.00367316)
(-0.00168667 -0.00126949 -0.00374879)
(-4.85064e-05 0.000671893 -0.00447569)
(0.00161061 -0.00166321 -0.00368866)
(-1.9364e-05 -9.23882e-05 -0.00370719)
(-0.0016096 -0.00144548 -0.00375082)
(-6.96362e-06 0.000682168 -0.0045291)
(0.00156857 -0.00163547 -0.00373835)
(-8.95502e-06 -8.24427e-05 -0.00370838)
(-0.00158097 -0.00143477 -0.00365844)
(-2.72771e-07 0.000684957 -0.00452643)
(0.001545 -0.00169302 -0.00386522)
(2.00955e-05 -0.000107056 -0.00369143)
(-0.00156567 -0.00138822 -0.00347535)
(6.95392e-05 0.000691852 -0.00442221)
(0.00128349 -0.00186626 -0.00410683)
(5.43295e-05 6.43436e-05 -0.00305992)
(-0.00134961 0.001613 -0.00473385)
(0.00152963 0.000898022 -0.00450799)
(-0.00158228 0.00125516 -0.0044435)
(0.00152309 0.00093703 -0.00449003)
(-0.00155116 0.00118731 -0.00446824)
(0.00155392 0.000990349 -0.0044658)
(-0.00155127 0.00118232 -0.00445069)
(0.00176605 0.00100418 -0.00451046)
(-0.00127535 0.00139179 -0.0042754)
(0.000621652 0.000123642 -0.00407916)
(-0.000838868 0.000477663 -0.003158)
(-0.000545874 0.00071853 -0.00327365)
(0.00093344 0.0011884 -0.00439355)
(9.42565e-05 -9.77267e-05 -0.00297446)
(-0.000513113 -0.000487098 -0.00397154)
(0.000626613 0.000143534 -0.00541803)
(-0.00169371 0.000280799 -0.00333999)
(-0.000623534 0.000531819 -0.00341262)
(0.00199494 6.37039e-05 -0.0030509)
(-8.64725e-05 0.00013987 -0.00384519)
(3.47626e-05 2.57784e-05 -0.00333965)
(6.38314e-05 3.99188e-06 -0.00352301)
(0.000298528 4.55773e-06 -0.00349785)
(0.00139438 0.00169163 -0.00427774)
(-0.000318672 -0.000911873 -0.00375398)
(-3.2513e-05 2.77794e-05 -0.00371623)
(-0.000152797 0.000919719 -0.00380734)
(0.000645898 2.54153e-05 -0.00551335)
(-0.00150097 -2.69936e-05 -0.00324933)
(-0.0015018 0.000130817 -0.0032783)
(0.00331525 2.52612e-05 -0.00309975)
(-0.000150536 0.000975033 -0.00383638)
(0.00107591 -0.00164872 -0.00422793)
(0.00175193 0.00147595 -0.00460148)
(-1.45166e-05 2.17152e-05 -0.00360767)
(1.15583e-05 -2.87838e-05 -0.0038226)
(1.44403e-05 -5.09489e-06 -0.00377633)
(8.53404e-06 -6.04141e-07 -0.00366052)
(4.02257e-06 1.8297e-06 -0.0035688)
(1.50125e-06 1.99015e-06 -0.00348352)
(-4.60424e-07 2.23942e-06 -0.00340841)
(-3.9462e-06 4.57219e-06 -0.00334519)
(-9.51847e-06 8.81752e-06 -0.00331328)
(1.48188e-05 -1.46091e-05 -0.00378438)
(-5.04696e-06 3.91124e-06 -0.00373878)
(-0.000439244 0.000449643 -0.00261771)
(-0.000433175 -0.000184678 -0.00283581)
(4.60708e-05 -6.371e-05 -0.00378246)
(0.000275971 -0.000346745 -0.00312496)
(1.55859e-05 0.000426591 -0.00276871)
(0.000420791 -0.000236969 -0.00336592)
(-0.000503316 -0.000462022 -0.00331873)
(-3.77041e-05 -0.000632228 -0.00467458)
(-0.000116122 -0.000714339 -0.00348268)
(0.000780321 -2.87786e-05 -0.00457739)
(0.000641762 0.000523734 -0.0032872)
(0.000178283 -0.000395142 -0.00343244)
(0.000501873 3.70487e-05 -0.00449876)
(0.000324226 0.00043158 -0.00327338)
(0.000246489 -0.000429853 -0.00335947)
(0.000538837 1.81238e-05 -0.00453942)
(0.000271843 0.000448648 -0.00332413)
(0.000291642 -0.000460022 -0.00329694)
(0.000548208 -1.45284e-05 -0.00456017)
(0.000237947 0.000418989 -0.00337108)
(0.000459132 -0.000502611 -0.00331735)
(0.000623154 -4.00038e-05 -0.00468216)
(0.00070633 -0.000116194 -0.00348539)
(3.03527e-05 0.000769577 -0.00457792)
(-0.000517868 0.000637436 -0.00329548)
(2.84662e-05 -0.000418181 -0.00277819)
(0.000345175 0.000277198 -0.00312535)
(-0.000418325 0.000215446 -0.00279617)
(-0.000448986 -0.000441071 -0.00262261)
(6.43694e-05 4.77355e-05 -0.00378299)
(0.000185282 -0.00043199 -0.00283601)
(0.000101843 0.000338839 -0.00281618)
(-0.00035138 0.000348322 -0.0025879)
(-0.000386217 -0.000384088 -0.00260501)
(7.24816e-05 -5.78847e-06 -0.00377596)
(0.000114787 -0.00035827 -0.00282002)
(0.000138418 0.000359639 -0.00280914)
(-0.000381135 0.000388346 -0.00258944)
(-0.000361558 -0.000348767 -0.00261114)
(7.30915e-05 -1.1669e-06 -0.00377495)
(7.53682e-05 -0.000333267 -0.0028256)
(0.000219321 0.00042319 -0.00279481)
(-0.000418046 -2.74751e-05 -0.00277716)
(0.000545521 -2.0717e-05 -0.00366967)
(-0.00117711 0.00133105 -0.00292888)
(-0.00157739 -0.00104305 -0.00347115)
(0.00136404 0.00115659 -0.00404802)
(-0.00160218 -0.0012332 -0.00397138)
(-6.74317e-05 4.19306e-05 -0.0025138)
(-0.00109826 -0.000791722 -0.00366513)
(9.12871e-06 -1.64097e-05 -0.00259867)
(0.00106874 -6.1519e-06 -0.0035158)
(-0.000256484 -0.000147426 -0.00240453)
(0.0012711 0.000381342 -0.00325106)
(0.000630049 -0.000763001 -0.00335951)
(0.000939601 0.000759163 -0.00312086)
(-0.00141039 -0.00127617 -0.00323623)
(0.00054987 2.93962e-06 -0.00375235)
(-0.0012153 0.00130353 -0.00308983)
(0.000810992 -0.00129145 -0.00381592)
(0.00105724 0.00134455 -0.00378911)
(-0.00129769 -0.0013795 -0.00367373)
(3.07251e-05 5.76548e-06 -0.00306354)
(-0.00110327 0.0013591 -0.00366744)
(0.000976576 -0.00139984 -0.00377416)
(0.00121554 0.00145189 -0.00378179)
(-0.00129981 -0.0014568 -0.00377133)
(-5.6827e-06 5.45949e-06 -0.00314446)
(-0.00108942 0.00142456 -0.00377572)
(0.00104516 -0.00144543 -0.00381766)
(0.00127687 0.00149211 -0.00382239)
(-0.00131987 -0.00149882 -0.00384254)
(5.04213e-07 3.48306e-06 -0.00320489)
(-0.00110141 0.00146414 -0.00384614)
(0.00108377 -0.00148227 -0.00388982)
(0.00131625 0.00152723 -0.00389314)
(-0.00135516 -0.00153679 -0.00392279)
(4.03695e-06 3.08266e-06 -0.00327352)
(-0.00113139 0.00150184 -0.00392793)
(0.00110673 -0.00152415 -0.00398033)
(0.00134903 0.00157008 -0.00398556)
(-0.00140839 -0.00157695 -0.00401356)
(6.1298e-06 4.09102e-06 -0.0033544)
(-0.00117882 0.00154149 -0.00402188)
(0.0011172 -0.00157326 -0.00408717)
(0.0013769 0.00162142 -0.00409631)
(-0.00147825 -0.00161573 -0.00411349)
(9.10297e-06 5.44623e-06 -0.00344526)
(-0.0012365 0.00157707 -0.00412556)
(0.00111242 -0.00162215 -0.00420008)
(0.00139657 0.00167133 -0.00421429)
(-0.00154631 -0.00162786 -0.00422508)
(1.54156e-05 7.07499e-06 -0.00353123)
(-0.00127809 0.00158141 -0.00424254)
(0.00107572 -0.00165202 -0.00424663)
(0.00134258 0.00166586 -0.00426026)
(-0.000287517 -0.000912113 -0.003799)
(0.000617191 -4.36698e-06 -0.00551603)
(-0.00148936 -7.1285e-05 -0.00325026)
(-0.00151882 3.06604e-05 -0.00323895)
(0.00333491 -2.75929e-05 -0.00311033)
(-0.000118424 -1.62987e-06 -0.00436385)
(-0.000129235 1.0425e-05 -0.00435212)
(7.16521e-05 1.41124e-05 -0.00352328)
(0.000322449 1.88129e-07 -0.00349916)
(0.00138568 0.00169506 -0.00426509)
(-0.000250059 -0.000908026 -0.00378396)
(-1.83672e-05 7.26536e-06 -0.00367215)
(-0.000280542 0.00108345 -0.00383399)
(0.000588446 -0.000149567 -0.00549836)
(-0.00151706 -4.67405e-05 -0.00326811)
(-0.00149273 3.88787e-05 -0.00323794)
(0.00331563 -5.43077e-05 -0.00311629)
(-0.000182558 0.000916618 -0.00378494)
(0.00107611 -0.00166924 -0.00425167)
(-3.37755e-05 9.78195e-06 -0.00371466)
(1.93073e-05 7.44369e-06 -0.00375275)
(1.73159e-05 2.0888e-05 -0.00376974)
(1.0913e-05 1.32539e-05 -0.00366005)
(5.52015e-06 6.9075e-06 -0.00357058)
(2.30172e-06 3.02034e-06 -0.0034851)
(-3.10457e-08 2.19475e-07 -0.00340938)
(-3.63556e-06 -3.87826e-06 -0.00334561)
(-8.64487e-06 -9.69008e-06 -0.00331322)
(1.47887e-05 1.43004e-05 -0.00378425)
(-4.61908e-06 -5.1885e-06 -0.00373976)
(0.000348968 -0.000361923 -0.0026063)
(-0.000387377 -0.000385531 -0.00259831)
(0.000386056 -0.000385718 -0.0025963)
(-0.000350558 -0.000362747 -0.00260611)
(7.16306e-07 7.43515e-05 -0.00377449)
(0.0003509 0.000127507 -0.00280891)
(-0.000331565 8.02757e-05 -0.00282461)
(-1.83549e-06 -0.000487149 -0.00284032)
(-0.000417274 0.000255073 -0.00335866)
(2.38981e-07 -0.000516185 -0.00472169)
(-0.000350943 0.000127787 -0.00280969)
(-2.47213e-07 7.45016e-05 -0.00377466)
(0.00033075 8.04434e-05 -0.0028238)
(1.3022e-05 -0.000510133 -0.00469518)
(0.000389714 0.000177419 -0.00342232)
(-3.18324e-05 0.000488058 -0.00448379)
(-0.000421356 0.000314857 -0.00327112)
(1.37592e-06 -0.00048696 -0.00284103)
(0.000416706 0.000255604 -0.00335837)
(-4.28432e-07 0.000529826 -0.00448474)
(-6.12713e-08 0.000739984 -0.00239509)
(0.000738533 0.000781656 -0.00321901)
(-0.00127123 -0.00128242 -0.00309173)
(0.00126975 -0.00127953 -0.00308815)
(-0.0012558 -0.00137704 -0.00323723)
(0.00132583 0.00100207 -0.00378639)
(-0.00136178 -0.0012475 -0.00367439)
(0.0014318 0.0011514 -0.00377961)
(-0.00143668 -0.00124043 -0.00377145)
(0.00147112 0.0012095 -0.00382141)
(-0.0014777 -0.00125624 -0.00384218)
(0.00150572 0.00124754 -0.00389298)
(-0.00151526 -0.00128844 -0.00392257)
(0.00154814 0.0012792 -0.00398626)
(-0.00155481 -0.00133892 -0.0040133)
(0.00159924 0.00130683 -0.00409853)
(-0.00159318 -0.00140759 -0.00411227)
(0.00165012 0.00133014 -0.00421921)
(-0.00160648 -0.00147968 -0.00422073)
(0.00167312 0.00134049 -0.00428732)
(-0.000905155 -0.000289353 -0.00375065)
(1.9495e-05 0.000657592 -0.00551428)
(0.000914119 -0.000195743 -0.00382221)
(2.48752e-05 -2.79376e-05 -0.00371496)
(-0.00163184 0.00116056 -0.00423682)
(0.00156378 -0.00136255 -0.00425286)
(8.24808e-06 1.95269e-05 -0.00353315)
(-0.00160254 0.00120611 -0.00419888)
(0.00155725 -0.00132955 -0.00413078)
(5.54047e-06 1.1263e-05 -0.00344693)
(-0.00155407 0.00121191 -0.00408905)
(0.00152126 -0.00127192 -0.00402395)
(3.64388e-06 7.22236e-06 -0.00335557)
(-0.00150545 0.00119871 -0.00398286)
(0.00148175 -0.00122195 -0.00392834)
(2.487e-06 4.45104e-06 -0.00327418)
(-0.00146402 0.00117236 -0.00389235)
(0.00144441 -0.00118862 -0.0038455)
(2.47262e-06 3.90734e-07 -0.00320517)
(-0.00142778 0.00113103 -0.00382098)
(0.00140543 -0.0011718 -0.00377358)
(3.80727e-06 -6.25733e-06 -0.00314443)
(-0.00138343 0.001058 -0.00377943)
(0.00133999 -0.00117785 -0.00366352)
(4.27185e-06 2.92385e-05 -0.00306272)
(-0.00127485 0.00087809 -0.00382112)
(7.8045e-07 -8.1037e-05 -0.00312952)
(0.00127449 0.000877334 -0.00381688)
(-0.00134071 -0.00117971 -0.0036676)
(-5.97481e-06 2.92895e-05 -0.00306275)
(-0.0013238 0.00100728 -0.00379024)
(0.00125395 -0.00136914 -0.00323647)
(-2.35984e-06 0.000549001 -0.00375153)
(-0.000744809 0.000907138 -0.00311413)
(-4.83788e-05 0.000677877 -0.00242421)
(0.000757617 0.000634559 -0.00336682)
(-0.0013165 -0.00120779 -0.00293383)
(0.00127479 0.000794852 -0.00383316)
(-0.00134759 -0.00113455 -0.00368156)
(0.00136128 0.00100948 -0.00377247)
(-0.00139427 -0.00112482 -0.00379308)
(0.00140412 0.00108727 -0.00381938)
(-0.00142254 -0.00114027 -0.00385618)
(0.00144115 0.00112864 -0.00389623)
(-0.00145405 -0.00117332 -0.00393322)
(0.00148666 0.00115656 -0.00399213)
(-0.00148911 -0.00122706 -0.00402236)
(0.00154485 0.00117813 -0.00411175)
(-0.0015177 -0.00129127 -0.00410792)
(0.00160829 0.00119168 -0.00424845)
(-0.0015066 -0.00131552 -0.0041816)
(0.00164218 0.00116936 -0.00429972)
(-0.000892337 -0.000186384 -0.00377172)
(-0.000194904 0.000478067 -0.00543637)
(0.000386499 -0.000523297 -0.00398524)
(4.80493e-05 -2.80298e-06 -0.00358215)
(-0.00152485 0.00160456 -0.00456952)
(0.00135339 -0.00192663 -0.00456985)
(1.80915e-05 3.9603e-05 -0.00342045)
(-0.00145931 0.00171244 -0.0045168)
(0.00139162 -0.00183012 -0.00443108)
(1.86046e-06 2.17357e-05 -0.00333816)
(-0.00137594 0.00169519 -0.00438869)
(0.00135326 -0.00171861 -0.00430816)
(-2.44626e-06 1.0809e-05 -0.00324575)
(-0.00132494 0.00165251 -0.00426588)
(0.00131159 -0.0016464 -0.00420318)
(-3.00226e-06 5.37838e-06 -0.00316585)
(-0.00129109 0.00161504 -0.004168)
(0.00128216 -0.00160378 -0.00411969)
(-7.07155e-06 6.51058e-08 -0.00310095)
(-0.00126349 0.00158204 -0.00409208)
(0.00126302 -0.00157752 -0.0040514)
(-1.66074e-05 -4.09011e-06 -0.00304683)
(-0.00122856 0.00153326 -0.00404972)
(0.00123169 -0.001573 -0.00397274)
(-3.7297e-05 3.67264e-05 -0.00297272)
(-0.00113313 0.00135046 -0.00404741)
(0.00103467 -0.00155625 -0.00347051)
(2.21499e-05 0.000545687 -0.00366849)
(-0.000374461 0.00126708 -0.00324998)
(0.000637147 0.00112575 -0.00343227)
(0.00104793 -0.000565292 -0.00299574)
(3.24523e-05 0.00107572 -0.00352722)
(0.000130149 -0.000255172 -0.00239775)
(-0.000191491 0.00020181 -0.00273674)
(0.000536948 0.00128785 -0.00311621)
(-0.00165615 -0.00111478 -0.00286133)
(0.00126037 0.00104293 -0.00392222)
(-0.0015862 -0.000985842 -0.0038343)
(-0.00106812 0.00157926 -0.00369423)
(-0.00132088 -0.00139052 -0.00366966)
(3.59694e-05 -1.10382e-05 -0.00305499)
(0.00086667 -0.00155008 -0.00379096)
(0.000958697 0.00132227 -0.00384626)
(-0.00137608 -0.00134883 -0.00297814)
(0.000531613 3.95252e-05 -0.00376731)
(-0.00123469 0.00141987 -0.00331235)
(-9.20389e-05 6.33124e-05 -0.00315417)
(6.5803e-05 2.7197e-05 -0.00309995)
(-0.00049916 -0.000401317 -0.00455854)
(4.26731e-05 3.93339e-05 -0.0036757)
(-2.01738e-05 -3.22108e-05 -0.00348493)
(-0.000529356 2.10729e-05 -0.0046809)
(5.32675e-05 -7.73189e-06 -0.00336309)
(-8.59402e-05 -2.77048e-06 -0.00313585)
(-0.00125301 0.00129834 -0.00319867)
(-0.00135895 -0.00130084 -0.00310871)
(0.000983452 0.00130558 -0.00382092)
(-0.0012798 -0.0013625 -0.00366349)
(1.51189e-05 2.67296e-07 -0.00311003)
(0.00117426 0.00141337 -0.00378211)
(-0.00128797 -0.00143142 -0.00377356)
(0.00125381 0.00145945 -0.00382299)
(-0.00131057 -0.00147153 -0.00384562)
(6.14846e-06 1.16925e-06 -0.00318834)
(0.00130112 0.00149805 -0.00389552)
(-0.00134792 -0.00150805 -0.00392623)
(0.00133532 0.00154304 -0.00398891)
(-0.00140265 -0.0015453 -0.00401681)
(4.84763e-05 1.51234e-06 -0.00333118)
(0.00136045 0.00159562 -0.0041001)
(-0.00146713 -0.00157783 -0.00411499)
(0.00137111 0.00164464 -0.00421593)
(-0.00151327 -0.00158208 -0.00422799)
(0.000312634 -2.55754e-06 -0.00350264)
(7.08124e-05 2.2496e-06 -0.00352674)
(4.29947e-05 3.69786e-06 -0.00343381)
(4.55246e-05 1.20367e-05 -0.00343445)
(1.96962e-05 6.70537e-06 -0.00334945)
(5.12283e-05 4.6469e-06 -0.00333763)
(0.00140656 0.00161015 -0.00411391)
(-0.00150553 -0.00157568 -0.00411569)
(1.71987e-05 8.22231e-06 -0.00344093)
(-0.00122116 0.00186418 -0.00415188)
(0.00102266 -0.0018685 -0.0041712)
(0.00142475 0.00167338 -0.00423945)
(-0.00151888 -0.00156622 -0.00420593)
(3.36656e-05 1.62434e-05 -0.00352048)
(-0.00133379 0.00190342 -0.00428755)
(0.000943524 -0.00183654 -0.00417961)
(0.00188674 0.00117155 -0.00466099)
(-0.0002149 -0.00082361 -0.00362619)
(4.21662e-05 -0.00134137 -0.00540831)
(-0.00162921 -9.28709e-05 -0.00330976)
(-0.00150504 -1.79339e-05 -0.00316298)
(0.0031424 -0.000484426 -0.00319186)
(-0.000197553 -0.000125309 -0.00420853)
(4.93683e-05 3.5023e-05 -0.00331813)
(8.37127e-05 0.000865514 -0.00296073)
(-0.00093073 0.00112194 -0.004299)
(0.000209398 8.74917e-05 -0.00285524)
(0.000709517 -0.00179042 -0.00408081)
(-0.000734693 0.00134396 -0.00416237)
(5.91877e-05 1.17777e-05 -0.0027688)
(0.0007414 -0.00147389 -0.00404659)
(-0.000671609 0.00133266 -0.00402607)
(8.75621e-06 -4.43185e-06 -0.00268989)
(0.000703736 -0.00135109 -0.0039734)
(-0.000671623 0.00131678 -0.0039309)
(-1.67234e-06 -8.02049e-07 -0.00262625)
(0.000658032 -0.00127583 -0.00387264)
(-0.00063821 0.00128497 -0.00382607)
(-1.72608e-05 -1.0122e-05 -0.00257633)
(0.000672993 -0.00125134 -0.00381463)
(-0.000606564 0.00131256 -0.00376255)
(-4.11756e-05 -2.31701e-05 -0.00254103)
(0.000700393 -0.00117657 -0.0037516)
(-0.000471618 0.00132424 -0.00369098)
(-6.79546e-05 -8.34961e-05 -0.00251214)
(0.000821674 -0.00104046 -0.00368362)
(0.000311554 0.000336131 -0.00281813)
(0.000230191 0.000506175 -0.00271691)
(-6.01401e-05 -0.000626995 -0.00339036)
(-3.1261e-05 4.46653e-06 -0.00296484)
(0.000325444 0.00102628 -0.00331089)
(-0.000142887 -0.000879862 -0.00345286)
(0.00147225 0.00103164 -0.00385055)
(-0.00158265 -0.00101527 -0.00391527)
(0.00155936 0.001039 -0.00391134)
(-0.00160567 -0.00103719 -0.003968)
(-0.00103947 0.00168748 -0.00384807)
(-0.0013482 -0.00147918 -0.00385615)
(4.78484e-08 -3.60444e-06 -0.00319841)
(0.00102053 -0.00167712 -0.00382948)
(0.0012875 0.00146156 -0.00382719)
(-0.00132512 -0.00144568 -0.0037881)
(-4.86597e-06 -8.72977e-06 -0.00314005)
(-0.00102656 0.00164494 -0.00377647)
(7.03376e-06 1.95149e-07 -0.00314368)
(8.8888e-08 -4.40146e-06 -0.00297519)
(1.0653e-05 -2.84017e-06 -0.00294657)
(-1.75529e-06 -9.38643e-05 -0.00261881)
(2.00858e-05 1.67424e-05 -0.0030552)
(8.39468e-05 0.000129063 -0.00296355)
(7.71966e-05 0.000141249 -0.00284277)
(0.000138154 5.72498e-05 -0.00331517)
(-4.72378e-05 2.56944e-05 -0.00329256)
(1.95833e-05 8.20581e-05 -0.00323392)
(0.000584141 5.77765e-05 -0.00325484)
(0.000926516 -7.44204e-05 -0.0025249)
(0.000772865 0.00120513 -0.00411575)
(0.000261477 0.000386331 -0.00228013)
(0.00117704 8.3795e-05 -0.0030643)
(0.000467872 0.000288669 -0.00325844)
(0.000222425 6.05416e-05 -0.00319557)
(6.94195e-05 1.65919e-05 -0.0032423)
(3.76685e-05 1.16595e-05 -0.0033588)
(-2.8403e-05 5.60519e-06 -0.00330934)
(-2.45528e-05 4.1126e-06 -0.00335799)
(5.7527e-06 1.72539e-06 -0.00342397)
(2.43967e-05 4.17009e-07 -0.00329253)
(-0.000188645 -0.000941755 -0.00350014)
(-1.98901e-06 -5.99706e-07 -0.00308922)
(0.00022176 0.000967101 -0.00349264)
(-0.000204389 -0.000968709 -0.00354155)
(0.00160913 0.00105604 -0.00400169)
(-0.0016468 -0.00106174 -0.00403936)
(0.00165592 0.0010908 -0.00410391)
(-0.00172021 -0.00108971 -0.00412646)
(-0.00112813 0.00179161 -0.00403224)
(-0.00144475 -0.00154829 -0.00402465)
(8.69543e-06 2.75073e-06 -0.00334897)
(0.00105527 -0.00175651 -0.00398693)
(0.00137622 0.00154959 -0.00399698)
(-0.00138757 -0.00151308 -0.00393492)
(4.4402e-06 -3.46339e-07 -0.00326693)
(-0.00107198 0.00173299 -0.00393277)
(1.29854e-05 3.86498e-06 -0.00326182)
(5.90572e-06 2.4211e-06 -0.00309392)
(8.16804e-07 -1.32284e-06 -0.00302721)
(-7.60848e-08 -8.77021e-06 -0.00268863)
(-2.05066e-07 -1.40324e-05 -0.00313994)
(4.98949e-06 9.54726e-06 -0.00310447)
(7.18519e-06 6.98964e-06 -0.00297188)
(4.08876e-06 -5.15694e-06 -0.00308445)
(1.72371e-05 4.10176e-05 -0.00298134)
(2.58047e-05 2.93965e-05 -0.00286228)
(0.00025592 0.00097219 -0.00342567)
(-3.74655e-06 3.53432e-06 -0.00303841)
(-2.63798e-06 -4.41184e-05 -0.00264424)
(-8.05266e-06 -1.28215e-07 -0.00331366)
(1.67137e-06 -7.01321e-05 -0.00330969)
(3.42784e-06 5.69425e-06 -0.00324789)
(-3.3063e-05 0.000635234 -0.0032383)
(7.66348e-05 0.0012121 -0.00305728)
(-0.000883771 0.00222721 -0.00296612)
(-2.89729e-06 0.000231828 -0.00295326)
(1.16774e-05 -3.35702e-05 -0.00259208)
(4.77044e-07 -1.34803e-05 -0.00324324)
(-1.19623e-05 -5.87269e-05 -0.00320149)
(0.0013621 -0.00123964 -0.00367236)
(-6.03532e-08 4.20352e-06 -0.00310519)
(-0.00143106 0.00116002 -0.00378254)
(0.00138342 0.00105587 -0.00377608)
(-0.00140536 -0.00117233 -0.0037766)
(-4.83284e-06 -6.18277e-06 -0.00314498)
(0.00143896 -0.00123591 -0.00377043)
(3.12824e-07 7.04804e-06 -0.00313119)
(-0.0014707 0.001217 -0.00382309)
(0.00142905 0.00112923 -0.0038194)
(-0.00144311 -0.00118793 -0.00384653)
(-1.95505e-06 5.30506e-07 -0.00320606)
(0.00148156 -0.00125628 -0.00384326)
(1.22251e-06 5.23155e-06 -0.00318172)
(-0.0015047 0.00125098 -0.00389329)
(0.00146722 0.00117243 -0.00389369)
(-0.00147851 -0.00122074 -0.00392639)
(2.67844e-07 4.68675e-06 -0.00327555)
(0.00152135 -0.00129356 -0.0039263)
(2.1214e-06 1.85614e-05 -0.00324763)
(-0.00154637 0.00127599 -0.00398449)
(0.00151143 0.00120266 -0.00398842)
(-0.00151508 -0.00127152 -0.00401658)
(2.50378e-06 7.70549e-06 -0.0033575)
(0.00156425 -0.00135125 -0.00402146)
(2.00702e-06 5.96412e-05 -0.00332407)
(-0.0015962 0.00128829 -0.00409053)
(0.0015634 0.0012251 -0.00410253)
(-0.00154696 -0.0013347 -0.00411224)
(5.88348e-06 1.21037e-05 -0.0034489)
(0.00160447 -0.00142533 -0.00412884)
(-2.43598e-06 0.000155183 -0.00340755)
(-0.00164314 0.00127524 -0.00419547)
(0.00161309 0.00123996 -0.00422424)
(-0.00155143 -0.0013872 -0.00421855)
(9.34011e-06 2.0831e-05 -0.00353215)
(0.00160814 -0.0014797 -0.00424927)
(-1.40008e-05 0.00036295 -0.00348653)
(-0.00165919 0.00122843 -0.00423569)
(0.00163573 0.00122833 -0.00427624)
(-0.000906892 -0.00023034 -0.0037931)
(-1.22567e-06 -2.6972e-05 -0.00370831)
(0.000900344 -0.000267809 -0.00379384)
(-5.61993e-05 0.00331252 -0.00313026)
(-0.000118964 -0.00149778 -0.00325173)
(-0.000120634 -0.0015318 -0.00312631)
(-0.000132355 0.0024507 -0.00294334)
(-0.00160571 0.000638436 -0.0041928)
(0.00039225 0.000259852 -0.00295844)
(0.000338899 -0.00223947 -0.00397268)
(-0.000135101 -0.000468868 -0.00323671)
(-0.000277541 -0.00027576 -0.00310105)
(-0.000132828 0.001129 -0.00401985)
(-0.00176216 -0.00117914 -0.0041108)
(0.000374268 -2.0824e-05 -0.00348172)
(-0.000476771 2.73238e-05 -0.00367773)
(-0.000776311 -0.000154833 -0.00368146)
(-0.000267809 -0.000184844 -0.00365573)
(-0.000224862 -2.17731e-05 -0.00367307)
(-0.000243381 4.92351e-05 -0.00360147)
(-0.000109905 2.85033e-05 -0.00350909)
(-5.12858e-05 7.93188e-06 -0.00359281)
(1.29724e-05 -1.81278e-05 -0.00344862)
(-9.99956e-06 3.76936e-06 -0.003502)
(-4.73573e-05 1.16869e-05 -0.00342684)
(-5.38682e-05 3.41809e-06 -0.00340219)
(-3.39428e-05 7.42866e-07 -0.00333798)
(-5.23274e-05 -2.18325e-06 -0.00329309)
(-9.21774e-05 -8.31745e-06 -0.00327865)
(1.27039e-05 -1.61912e-05 -0.00321442)
(0.000686148 -5.62842e-05 -0.00320836)
(0.000803027 -3.0086e-05 -0.00243847)
(0.000787615 0.000783826 -0.00333196)
(0.000907437 -0.00078413 -0.00294907)
(0.00112354 9.39707e-06 -0.00307089)
(0.00106974 5.07021e-06 -0.00308538)
(0.000835717 -0.000796482 -0.00314087)
(0.000841231 0.000784774 -0.00324541)
(0.000549244 -1.85731e-06 -0.00376111)
(-0.000488375 3.26131e-06 -0.00283447)
(0.000157578 -3.53954e-06 -0.00349232)
(-5.7272e-05 -5.94336e-05 -0.0034468)
(-4.01051e-05 -3.76734e-05 -0.00348367)
(0.000143029 0.000142317 -0.00353673)
(-0.000425768 1.53387e-05 -0.00277096)
(-1.15453e-06 0.000163767 -0.0034811)
(-6.63666e-07 -5.80872e-05 -0.00349168)
(-1.36753e-06 -7.1217e-05 -0.00347542)
(1.26899e-07 6.28219e-08 -0.00376464)
(-0.000268995 0.000262455 -0.00254547)
(-0.000306505 -0.000305123 -0.00256231)
(-0.00030378 0.00030639 -0.00255779)
(-0.000272272 -0.000261426 -0.00255358)
(0.000269945 -0.000264664 -0.00254539)
(-0.00022904 -0.000226184 -0.00253626)
(8.52799e-06 8.46428e-06 -0.00377746)
(0.00030521 0.000303841 -0.0025537)
(-0.000263256 0.000273367 -0.00255088)
(-0.000264316 -0.000272841 -0.00255177)
(8.46401e-06 -8.12282e-06 -0.00377769)
(0.000304076 -0.000306105 -0.00255796)
(1.8914e-10 -2.25339e-10 -0.00378646)
(7.56288e-08 7.71979e-08 -0.00380016)
(1.63441e-07 1.93309e-05 -0.00379199)
(1.76878e-07 5.43733e-05 -0.00336327)
(-8.09504e-06 4.86113e-05 -0.00335712)
(1.07508e-05 -0.000109746 -0.00311945)
(-5.47211e-06 1.15825e-06 -0.00310131)
(-2.9925e-06 -1.04818e-06 -0.00313392)
(-2.78764e-07 1.18781e-06 -0.003191)
(1.94279e-06 7.263e-06 -0.00326105)
(4.78407e-06 2.17327e-05 -0.0033412)
(1.82778e-05 9.38394e-06 -0.00316967)
(1.26654e-05 8.77127e-05 -0.0028177)
(3.34894e-06 -8.14779e-05 -0.0032803)
(3.33746e-05 -1.50995e-05 -0.00324229)
(-1.12071e-05 4.32948e-05 -0.00310034)
(0.000203011 0.00106393 -0.00367396)
(-0.000289278 -0.000988064 -0.00370731)
(0.00172578 0.00113768 -0.00424853)
(-0.00180421 -0.00113643 -0.00417288)
(0.00182436 0.00118239 -0.00446184)
(-3.6054e-05 -3.06868e-05 -0.00344903)
(-0.000534304 -0.00105362 -0.0036938)
(-8.19814e-05 2.34154e-05 -0.0031243)
(0.000147281 0.00115682 -0.00381178)
(-1.38447e-05 -6.56904e-06 -0.0033418)
(-2.73374e-05 -5.61731e-05 -0.00355092)
(-9.61206e-06 1.11515e-05 -0.00362295)
(-0.000114537 7.76981e-06 -0.00347946)
(-0.000230667 1.52939e-05 -0.00356767)
(-0.000455784 1.80321e-05 -0.00367719)
(-0.00104255 -1.33783e-05 -0.00391716)
(-0.00106694 -0.000183927 -0.00387083)
(-0.00262683 0.000630392 -0.00382228)
(-0.00121692 -0.000284009 -0.0035785)
(-0.00106102 -0.00118901 -0.00341197)
(-3.41548e-05 -0.000154737 -0.00346265)
(-0.000417515 -0.000152584 -0.00363088)
(0.000334767 -0.00239553 -0.00289244)
(-0.00214727 -0.000662784 -0.00318624)
(-0.00128684 8.47318e-05 -0.00435215)
(-0.000605224 -0.000972436 -0.00393946)
(0.000967865 0.000716602 -0.00408337)
(7.78283e-05 3.32992e-05 -0.00419147)
(4.91908e-05 3.93265e-05 -0.00276095)
(-0.00100926 0.000867283 -0.00345587)
(0.00106727 0.000727269 -0.0036421)
(6.34917e-06 0.000100719 -0.00431393)
(-0.000127126 -8.17423e-05 -0.00285838)
(-0.00110777 0.000963209 -0.00359653)
(0.00107227 0.000865746 -0.00366158)
(1.90868e-06 0.000108359 -0.0043347)
(-0.00014152 -9.83338e-05 -0.00286999)
(-0.0010811 0.000874348 -0.00355138)
(0.00106881 0.00098703 -0.00370516)
(9.16476e-06 0.000101019 -0.0043197)
(-0.000231274 -0.000225725 -0.0029262)
(-0.00103156 0.000725775 -0.00351063)
(0.000762206 0.00100684 -0.00392613)
(-0.000613515 -0.000350315 -0.00537505)
(0.000506918 0.000532548 -0.00404989)
(0.000384649 -0.000464092 -0.00395331)
(0.00112868 0.000495985 -0.00497678)
(-0.00053038 -0.00195669 -0.00483278)
(-0.00030519 -0.00106191 -0.00392089)
(0.000167536 0.000188837 -0.00295199)
(0.00067386 -0.000483096 -0.00423729)
(-0.0021832 0.00103389 -0.00394865)
(-0.000119514 -6.27365e-05 -0.00367134)
(-0.00127696 -0.00169237 -0.00374102)
(0.00112872 0.000903434 -0.00375049)
(0.00104619 -1.79247e-05 -0.00284352)
(0.00099296 -0.00107203 -0.00387333)
(0.00124777 -0.00106076 -0.004361)
(0.000596211 -0.00153954 -0.00310011)
(0.000130093 0.000630157 -0.00408189)
(0.000477981 -0.000841045 -0.00315979)
(0.000719407 -0.000542 -0.00327654)
(0.00118124 0.000927437 -0.00439506)
(-0.000531823 -0.00188598 -0.00411441)
(0.00011228 -0.0002195 -0.00330198)
(0.000852342 0.00131143 -0.0042929)
(-0.000712563 -0.00158448 -0.00411248)
(1.7578e-06 -4.87203e-05 -0.00329199)
(0.000724366 0.00136328 -0.00414398)
(-0.000714995 -0.00141045 -0.00404782)
(-8.29032e-06 -4.19612e-06 -0.00321187)
(0.000683501 0.00133697 -0.0040215)
(-0.000681802 -0.00132535 -0.0039589)
(-4.59771e-06 5.32601e-07 -0.00313889)
(0.000662571 0.00129898 -0.00391873)
(-0.000660145 -0.00128322 -0.00387513)
(-3.96836e-06 2.07271e-06 -0.00307)
(0.00064643 0.0012714 -0.00383778)
(-0.000652716 -0.00125676 -0.0038034)
(-8.81479e-06 1.5283e-05 -0.00302214)
(0.000613927 0.00125691 -0.00376862)
(-0.000680163 -0.00123137 -0.00375115)
(-5.32882e-05 7.33306e-05 -0.00293298)
(0.000514919 0.00128097 -0.00371259)
(-0.000781473 -0.00109349 -0.00366285)
(-0.000290636 0.000306078 -0.00283696)
(-1.15083e-05 0.00105879 -0.00351734)
(-0.0010494 -0.000589961 -0.00298042)
(-0.000649562 0.00112067 -0.00342785)
(0.000379148 0.00126608 -0.00324606)
(-0.00103535 -0.00157205 -0.00346932)
(0.00114873 0.00134608 -0.00404877)
(-0.00122411 -0.00158788 -0.00397048)
(3.45851e-05 3.81446e-05 -0.00297272)
(-0.00127777 0.000792289 -0.00384036)
(0.00131445 -0.00120837 -0.00292775)
(-1.97778e-05 0.000545085 -0.00367004)
(-0.000756809 0.000631503 -0.00336537)
(4.83261e-05 0.000683563 -0.00242466)
(0.000745938 0.000907055 -0.00311017)
(-0.0007379 0.000780085 -0.00322117)
(2.64565e-06 0.000548594 -0.00375236)
(4.39433e-06 0.00105741 -0.00307574)
(1.30319e-06 0.000630229 -0.00322907)
(1.06233e-06 -7.78677e-06 -0.0032421)
(1.65999e-06 -9.78982e-05 -0.00330099)
(1.59916e-06 -6.05605e-05 -0.00331415)
(9.54021e-07 -4.14482e-05 -0.00332243)
(1.72243e-06 -3.15864e-05 -0.00336977)
(3.80239e-06 -5.44251e-05 -0.00343596)
(6.91638e-07 -3.27432e-05 -0.00320734)
(1.2826e-05 -3.80356e-07 -0.00311158)
(4.14612e-07 1.68887e-05 -0.00298618)
(0.000214834 0.000991916 -0.00359795)
(-0.000225517 -0.000975753 -0.00364555)
(-5.17917e-06 -2.28753e-06 -0.00323578)
(-4.253e-07 -3.47193e-07 -0.00315275)
(1.42236e-05 -3.33287e-06 -0.00336204)
(6.77745e-06 4.59977e-07 -0.00341891)