/*--------------------------------*- C++ -*----------------------------------*\
| =========                 |                                                 |
| \\      /  F ield         | OpenFOAM: The Open Source CFD Toolbox           |
|  \\    /   O peration     | Version:  2306                                  |
|   \\  /    A nd           | Website:  www.openfoam.com                      |
|    \\/     M anipulation  |                                                 |
\*---------------------------------------------------------------------------*/
FoamFile
{
    version     2.0;
    format      ascii;
    arch        "LSB;label=32;scalar=64";
    class       volVectorField;
    location    "0.5";
    object      flux;
}
// * * * * * * * * * * * * * * * * * * * * * * * * * * * * * * * * * * * * * //

dimensions      [0 1 -1 1 0 0 0];

internalField   nonuniform List<vector> 
5322
(
(-1.89923e-06 4.75266e-06 -6.25507e-06)
(1.71979e-07 7.11121e-07 -4.92307e-06)
(1.48041e-07 2.72509e-07 -3.04039e-06)
(-5.07485e-09 2.4267e-07 -3.25883e-06)
(-7.28417e-09 1.82563e-07 -1.55452e-06)
(-3.3659e-09 9.79881e-08 -6.28109e-07)
(-1.01162e-09 4.01552e-08 -2.15669e-07)
(-2.00281e-10 1.34126e-08 -6.33927e-08)
(-1.68432e-11 3.80287e-09 -1.61586e-08)
(8.86134e-12 9.27819e-10 -3.68273e-09)
(7.78097e-12 1.66535e-10 -8.40369e-10)
(1.02064e-11 -7.82713e-11 -3.36697e-10)
(7.06268e-12 -3.15674e-11 -1.40077e-10)
(-4.97318e-11 -3.68931e-11 -2.5676e-10)
(1.24498e-11 -4.52665e-11 -3.244e-10)
(1.90475e-10 1.73524e-10 -4.26848e-10)
(-1.19791e-10 1.93836e-10 -4.54827e-10)
(4.5354e-11 1.49071e-11 -4.79575e-10)
(-1.23119e-10 2.48844e-10 -1.0141e-09)
(5.33672e-10 -8.5259e-10 -2.19779e-09)
(-5.16379e-10 1.44442e-09 -5.26847e-09)
(2.63226e-09 -3.95671e-09 -1.08468e-08)
(-2.213e-09 6.72241e-09 -2.4212e-08)
(1.09109e-08 -1.6684e-08 -4.66337e-08)
(-1.05157e-08 2.79626e-08 -9.57855e-08)
(3.79267e-08 -5.96292e-08 -1.69444e-07)
(-3.56821e-08 9.36388e-08 -3.20494e-07)
(1.1535e-07 -1.87057e-07 -5.29469e-07)
(-1.16448e-07 2.7934e-07 -9.16416e-07)
(2.92936e-07 -4.84437e-07 -1.38778e-06)
(-2.74373e-07 6.7951e-07 -2.19686e-06)
(6.67823e-07 -1.07252e-06 -3.09443e-06)
(-4.74228e-07 1.45236e-06 -4.43673e-06)
(1.36041e-06 -1.75505e-06 -5.62308e-06)
(2.70834e-07 1.99234e-06 -6.91532e-06)
(2.50564e-06 -1.33824e-06 -6.66603e-06)
(1.7862e-06 2.76706e-06 -8.25572e-06)
(-7.12468e-07 3.25397e-06 -7.83667e-06)
(1.91214e-06 1.67118e-06 -8.05606e-06)
(-1.23829e-07 1.95545e-06 -6.20068e-06)
(-1.82714e-06 2.40687e-06 -7.43595e-06)
(1.81934e-06 2.03576e-06 -7.67643e-06)
(-1.09295e-07 2.26754e-06 -6.06664e-06)
(-1.93103e-06 2.2528e-06 -7.66856e-06)
(1.93331e-06 2.14909e-06 -7.59118e-06)
(-5.88877e-08 2.3125e-06 -6.18297e-06)
(-2.04674e-06 2.18469e-06 -7.78802e-06)
(1.83919e-06 2.33619e-06 -7.38188e-06)
(-3.17662e-08 2.35972e-06 -6.14163e-06)
(-2.15473e-06 2.08825e-06 -7.73791e-06)
(-2.15961e-06 2.65638e-06 -9.07404e-06)
(-3.06344e-06 1.0709e-06 -5.71402e-06)
(-1.0812e-06 1.32818e-06 -8.26607e-06)
(1.79882e-06 -3.77113e-06 -6.75201e-06)
(-1.15873e-07 -1.59231e-07 -5.58177e-06)
(-2.88035e-06 -2.13794e-06 -6.34566e-06)
(-9.12768e-08 1.25315e-06 -8.34566e-06)
(2.72981e-06 -2.76206e-06 -6.19289e-06)
(-2.83781e-08 -9.90727e-08 -5.51788e-06)
(-2.71808e-06 -2.39263e-06 -6.29478e-06)
(-8.25829e-09 1.27174e-06 -8.41078e-06)
(2.65353e-06 -2.70707e-06 -6.27179e-06)
(-1.10821e-08 -8.68712e-08 -5.50956e-06)
(-2.67431e-06 -2.37687e-06 -6.14405e-06)
(6.13662e-09 1.27906e-06 -8.42033e-06)
(2.62034e-06 -2.81517e-06 -6.51553e-06)
(4.39493e-08 -1.35222e-07 -5.50498e-06)
(-2.65529e-06 -2.32012e-06 -5.86211e-06)
(1.70577e-07 1.30725e-06 -8.31962e-06)
(2.20356e-06 -3.20837e-06 -7.01671e-06)
(1.76524e-07 6.90584e-08 -4.62534e-06)
(-1.79351e-06 2.07613e-06 -6.28932e-06)
(2.04217e-06 1.14123e-06 -5.97862e-06)
(-2.09294e-06 1.61359e-06 -5.88345e-06)
(2.01084e-06 1.18863e-06 -5.92665e-06)
(-2.04845e-06 1.52062e-06 -5.89829e-06)
(2.05213e-06 1.25893e-06 -5.89594e-06)
(-2.05446e-06 1.51857e-06 -5.88826e-06)
(2.35361e-06 1.29842e-06 -6.01747e-06)
(-1.7661e-06 1.85912e-06 -5.81765e-06)
(7.7454e-07 8.13298e-08 -5.85805e-06)
(-1.51537e-06 8.99391e-07 -5.10837e-06)
(-1.08178e-06 1.25977e-06 -5.30747e-06)
(1.45763e-06 1.87466e-06 -6.30894e-06)
(9.19345e-08 -8.17915e-08 -3.72645e-06)
(-3.85936e-07 -5.29896e-07 -5.40209e-06)
(1.20578e-06 2.84233e-07 -8.87659e-06)
(-3.4571e-06 5.16011e-07 -6.29601e-06)
(-8.44618e-07 1.31883e-06 -6.12592e-06)
(3.42679e-06 2.23061e-07 -5.04539e-06)
(-1.61968e-07 3.5563e-07 -6.03498e-06)
(7.512e-09 5.13396e-08 -2.99192e-06)
(7.49595e-09 5.36157e-09 -3.13765e-06)
(2.24264e-07 3.37079e-09 -3.13834e-06)
(1.49544e-06 1.77096e-06 -4.50912e-06)
(-1.82532e-07 -1.15692e-06 -5.11985e-06)
(1.37462e-07 3.93791e-08 -4.46171e-06)
(3.43078e-08 1.16546e-06 -5.1746e-06)
(1.23607e-06 3.99756e-08 -9.00317e-06)
(-3.03579e-06 -1.28835e-07 -6.08664e-06)
(-3.02497e-06 3.0535e-07 -6.1941e-06)
(5.56033e-06 4.45284e-08 -5.09849e-06)
(2.57402e-08 1.26688e-06 -5.22079e-06)
(1.16396e-06 -1.72194e-06 -4.47253e-06)
(1.91074e-06 1.54476e-06 -4.90798e-06)
(1.63206e-07 6.26404e-08 -4.35818e-06)
(4.02905e-08 -4.59862e-08 -4.52892e-06)
(1.64094e-08 -3.62114e-09 -3.30664e-06)
(4.54599e-09 2.00583e-09 -1.57518e-06)
(-4.36141e-10 3.22517e-09 -6.37589e-07)
(-1.15236e-09 2.01551e-09 -2.19676e-07)
(-6.85244e-10 9.01239e-10 -6.49025e-08)
(-2.73128e-10 3.18655e-10 -1.65946e-08)
(-8.27209e-11 9.08652e-11 -3.75708e-09)
(-2.56828e-11 2.7633e-11 -9.15839e-10)
(-7.43084e-12 8.04611e-12 -3.86986e-10)
(-6.54579e-11 6.76048e-11 -3.34353e-10)
(-4.39533e-11 -5.89503e-13 -3.07307e-10)
(6.82633e-12 -7.86566e-12 -6.89428e-10)
(6.34436e-12 -1.18482e-11 -2.98124e-10)
(-7.58755e-12 4.63866e-11 -2.15443e-10)
(1.57299e-11 1.65655e-12 -1.9346e-10)
(-2.54436e-11 -1.22232e-11 -1.88057e-10)
(-5.18475e-12 -2.69228e-11 -2.19358e-10)
(-1.57387e-11 -2.21912e-11 -1.8003e-10)
(3.7188e-11 1.93411e-12 -2.17872e-10)
(2.44677e-11 2.94758e-11 -1.86684e-10)
(-2.16312e-12 -1.46193e-11 -1.9828e-10)
(2.246e-11 4.53433e-12 -2.31154e-10)
(6.56744e-12 2.31458e-11 -2.00579e-10)
(1.17911e-12 -2.04985e-11 -2.0638e-10)
(2.47581e-11 9.36393e-13 -2.40646e-10)
(2.16439e-12 2.13005e-11 -2.04659e-10)
(4.03938e-12 -2.48349e-11 -2.01428e-10)
(2.41951e-11 -3.80951e-12 -2.32062e-10)
(-1.7691e-12 1.58889e-11 -1.94339e-10)
(1.1961e-11 -2.53283e-11 -1.88987e-10)
(2.66386e-11 -5.11675e-12 -2.21409e-10)
(2.19135e-11 -1.56978e-11 -1.81536e-10)
(-2.04684e-12 3.72014e-11 -2.20194e-10)
(-2.97111e-11 2.49769e-11 -1.89188e-10)
(-8.35061e-12 -4.26361e-11 -2.17945e-10)
(1.15992e-11 7.0426e-12 -3.00244e-10)
(-4.48786e-11 7.97283e-12 -3.06073e-10)
(-6.74938e-11 -6.502e-11 -3.36466e-10)
(7.6824e-12 8.2307e-12 -6.93989e-10)
(1.28237e-13 -4.30723e-11 -3.08536e-10)
(-1.62689e-11 1.74199e-11 -3.08395e-10)
(-4.88742e-11 3.49593e-11 -3.37646e-10)
(-5.93134e-11 -5.11473e-11 -3.50537e-10)
(1.13396e-11 -4.86527e-12 -7.46912e-10)
(-1.12886e-11 -2.89743e-11 -3.17505e-10)
(-7.7622e-12 2.96085e-11 -3.16841e-10)
(-5.88574e-11 5.26325e-11 -3.48976e-10)
(-4.82503e-11 -3.3139e-11 -3.37989e-10)
(1.25286e-11 3.3321e-12 -7.44829e-10)
(-1.83729e-11 -1.61586e-11 -3.07434e-10)
(7.31212e-12 4.43828e-11 -3.0327e-10)
(-4.30514e-11 8.25163e-12 -2.15691e-10)
(4.5284e-11 1.19042e-11 -3.25759e-10)
(-1.72977e-10 1.90291e-10 -4.27275e-10)
(-1.945e-10 -1.21076e-10 -4.58434e-10)
(3.8503e-10 3.40852e-10 -1.20227e-09)
(-9.3914e-10 -7.30658e-10 -2.52341e-09)
(-9.86734e-11 1.07998e-10 -9.81998e-10)
(-2.53366e-10 -1.24175e-10 -1.0267e-09)
(-1.22657e-11 4.37691e-11 -4.83784e-10)
(1.65533e-10 6.26188e-11 -4.48295e-10)
(-3.44621e-11 1.59283e-11 -1.89737e-10)
(8.07541e-11 3.0791e-11 -2.38168e-10)
(3.71208e-11 -5.00732e-11 -2.57982e-10)
(6.09661e-11 5.78624e-11 -2.52824e-10)
(-2.04981e-10 -1.68487e-10 -4.7197e-10)
(4.75665e-11 3.6493e-12 -3.59109e-10)
(-1.85525e-10 1.84195e-10 -4.6319e-10)
(2.20746e-10 -3.87054e-10 -1.22538e-09)
(2.98319e-10 4.15272e-10 -1.20816e-09)
(-8.71073e-10 -8.86348e-10 -2.52606e-09)
(7.91773e-11 1.78345e-11 -1.37856e-09)
(-7.65097e-10 9.18569e-10 -2.55857e-09)
(1.23948e-09 -1.99374e-09 -5.74488e-09)
(1.59586e-09 2.11742e-09 -5.72922e-09)
(-3.98362e-09 -4.34518e-09 -1.1888e-08)
(2.77128e-10 6.53258e-11 -6.66148e-09)
(-3.41614e-09 4.4074e-09 -1.20073e-08)
(5.94656e-09 -9.0233e-09 -2.52493e-08)
(7.45511e-09 9.49662e-09 -2.52225e-08)
(-1.64475e-08 -1.84689e-08 -4.94674e-08)
(1.32738e-09 2.09856e-10 -2.88456e-08)
(-1.39237e-08 1.85239e-08 -4.97826e-08)
(2.43399e-08 -3.54869e-08 -9.75297e-08)
(3.00925e-08 3.709e-08 -9.74853e-08)
(-5.96377e-08 -6.75821e-08 -1.78244e-07)
(5.36069e-09 5.99008e-10 -1.08391e-07)
(-5.01537e-08 6.72239e-08 -1.79047e-07)
(8.43736e-08 -1.20336e-07 -3.25199e-07)
(1.03936e-07 1.2511e-07 -3.25258e-07)
(-1.87824e-07 -2.11472e-07 -5.50486e-07)
(1.79255e-08 1.50264e-09 -3.49733e-07)
(-1.5742e-07 2.08771e-07 -5.52455e-07)
(2.45992e-07 -3.49058e-07 -9.27417e-07)
(3.04304e-07 3.61355e-07 -9.28287e-07)
(-5.07658e-07 -5.60039e-07 -1.44564e-06)
(4.96972e-08 3.1456e-09 -9.60912e-07)
(-4.23162e-07 5.48358e-07 -1.44995e-06)
(5.97061e-07 -8.54547e-07 -2.23772e-06)
(7.47588e-07 8.81185e-07 -2.24219e-06)
(-1.14859e-06 -1.22427e-06 -3.19915e-06)
(1.13592e-07 6.01692e-09 -2.22029e-06)
(-9.4253e-07 1.18783e-06 -3.20923e-06)
(1.15891e-06 -1.72842e-06 -4.48331e-06)
(1.4384e-06 1.73842e-06 -4.48654e-06)
(-1.46184e-07 -1.1611e-06 -5.17089e-06)
(1.18449e-06 -1.13224e-08 -8.99624e-06)
(-2.99922e-06 -2.04047e-07 -6.08089e-06)
(-3.06113e-06 1.10534e-07 -6.06661e-06)
(5.56896e-06 -4.96269e-08 -5.11006e-06)
(-2.91616e-07 -2.82267e-09 -6.73227e-06)
(-3.04557e-07 8.83579e-09 -6.72256e-06)
(1.17554e-08 1.56094e-08 -3.13849e-06)
(2.45224e-07 2.52741e-09 -3.14773e-06)
(1.49626e-06 1.77564e-06 -4.51163e-06)
(-9.55759e-08 -1.1522e-06 -5.16353e-06)
(1.54688e-07 3.80721e-09 -4.44661e-06)
(-1.58975e-07 1.41316e-06 -5.28363e-06)
(1.14807e-06 -2.50109e-07 -9.02398e-06)
(-3.04624e-06 -1.47395e-07 -6.13162e-06)
(-3.00841e-06 1.45876e-07 -6.05205e-06)
(5.53544e-06 -9.16903e-08 -5.12833e-06)
(-3.79897e-09 1.15866e-06 -5.14742e-06)
(1.16096e-06 -1.74779e-06 -4.48653e-06)
(1.34784e-07 1.21863e-08 -4.45639e-06)
(5.89087e-08 6.89818e-09 -4.39734e-06)
(1.85591e-08 2.09788e-08 -3.30071e-06)
(5.88757e-09 6.94067e-09 -1.57842e-06)
(6.89706e-11 5.77557e-10 -6.40349e-07)
(-1.05367e-09 -8.04882e-10 -2.20849e-07)
(-6.84987e-10 -5.8056e-10 -6.52687e-08)
(-2.81232e-10 -2.45185e-10 -1.66857e-08)
(-8.6212e-11 -7.5811e-11 -3.77598e-09)
(-2.70825e-11 -2.40222e-11 -9.20006e-10)
(-8.01228e-12 -6.8741e-12 -3.8891e-10)
(3.31528e-11 -4.74856e-11 -3.39185e-10)
(-5.14395e-11 -5.78712e-11 -3.50613e-10)
(5.21039e-11 -5.82125e-11 -3.50407e-10)
(-3.24269e-11 -4.71391e-11 -3.38045e-10)
(4.649e-12 1.45801e-11 -7.47629e-10)
(2.97283e-11 -7.55642e-12 -3.18655e-10)
(-1.60422e-11 -1.69328e-11 -3.09225e-10)
(2.79612e-12 -5.21361e-11 -2.40598e-10)
(-2.01626e-11 2.63343e-12 -2.09856e-10)
(1.39918e-13 -3.11615e-11 -4.56889e-10)
(-2.90856e-11 -7.85264e-12 -3.18708e-10)
(-3.78002e-12 1.45656e-11 -7.48992e-10)
(1.66138e-11 -1.67317e-11 -3.10266e-10)
(-1.96522e-12 -2.98096e-11 -4.42013e-10)
(1.44319e-11 -1.81773e-12 -2.00562e-10)
(-4.4616e-12 2.21956e-11 -2.345e-10)
(-2.32025e-11 6.972e-12 -2.03924e-10)
(-2.59531e-12 -5.22884e-11 -2.41031e-10)
(2.0216e-11 2.68022e-12 -2.09986e-10)
(1.77123e-14 2.50573e-11 -2.43255e-10)
(4.24223e-14 3.57737e-11 -1.46731e-10)
(5.52138e-11 5.01376e-11 -2.6606e-10)
(-1.80977e-10 -1.95072e-10 -4.6818e-10)
(1.81609e-10 -1.95091e-10 -4.67694e-10)
(-1.65818e-10 -1.99969e-10 -4.76542e-10)
(4.16226e-10 2.88967e-10 -1.22099e-09)
(-8.7598e-10 -8.36193e-10 -2.54319e-09)
(2.11407e-09 1.53345e-09 -5.77574e-09)
(-4.28837e-09 -3.79592e-09 -1.19388e-08)
(9.44303e-09 7.12904e-09 -2.53689e-08)
(-1.82111e-08 -1.56213e-08 -4.95781e-08)
(3.67676e-08 2.86963e-08 -9.78713e-08)
(-6.66208e-08 -5.65698e-08 -1.78414e-07)
(1.23764e-07 9.89376e-08 -3.26136e-07)
(-2.08415e-07 -1.7817e-07 -5.5055e-07)
(3.57076e-07 2.89543e-07 -9.3024e-07)
(-5.51968e-07 -4.82602e-07 -1.44486e-06)
(8.70866e-07 7.13196e-07 -2.24681e-06)
(-1.2078e-06 -1.09822e-06 -3.19477e-06)
(1.75215e-06 1.43796e-06 -4.52203e-06)
(-1.14932e-06 -1.46697e-07 -5.11696e-06)
(3.24344e-08 1.25491e-06 -9.01034e-06)
(1.1626e-06 -2.44678e-08 -5.20076e-06)
(3.44663e-08 1.39999e-07 -4.46171e-06)
(-1.70678e-06 1.24633e-06 -4.4735e-06)
(1.17619e-06 -1.00777e-06 -3.21932e-06)
(6.92252e-09 1.1589e-07 -2.22226e-06)
(-8.43976e-07 6.46514e-07 -2.23814e-06)
(5.42241e-07 -4.56109e-07 -1.45322e-06)
(3.25001e-09 5.06898e-08 -9.61966e-07)
(-3.44855e-07 2.67444e-07 -9.28661e-07)
(2.06418e-07 -1.7016e-07 -5.53514e-07)
(1.49835e-09 1.83914e-08 -3.50244e-07)
(-1.18946e-07 9.19845e-08 -3.25919e-07)
(6.65236e-08 -5.4231e-08 -1.79475e-07)
(6.10399e-10 5.56151e-09 -1.08637e-07)
(-3.51072e-08 2.66452e-08 -9.78638e-08)
(1.83649e-08 -1.50354e-08 -4.99643e-08)
(2.17967e-10 1.40098e-09 -2.89503e-08)
(-8.9407e-09 6.55817e-09 -2.5387e-08)
(4.38121e-09 -3.67478e-09 -1.20718e-08)
(6.83516e-11 3.00347e-10 -6.69819e-09)
(-1.9797e-09 1.38022e-09 -5.7919e-09)
(9.15396e-10 -8.16569e-10 -2.57737e-09)
(1.88849e-11 8.55354e-11 -1.38904e-09)
(-3.84213e-10 2.47209e-10 -1.23819e-09)
(6.91409e-13 -5.40827e-11 -6.66703e-10)
(3.86284e-10 2.46956e-10 -1.23817e-09)
(-9.09778e-10 -8.15179e-10 -2.57925e-09)
(-1.62196e-11 8.56153e-11 -1.3909e-09)
(-4.13876e-10 2.90007e-10 -1.22265e-09)
(1.6667e-10 -1.99455e-10 -4.77111e-10)
(-3.61094e-12 4.94045e-11 -3.64385e-10)
(-5.79426e-11 6.00881e-11 -2.56513e-10)
(-6.83e-12 3.09003e-11 -1.42249e-10)
(5.00338e-11 3.83417e-11 -2.61883e-10)
(-1.90378e-10 -1.77847e-10 -4.32595e-10)
(3.53217e-10 2.13652e-10 -1.19544e-09)
(-9.23228e-10 -7.51863e-10 -2.52605e-09)
(1.86473e-09 1.30047e-09 -5.68386e-09)
(-4.3721e-09 -3.40854e-09 -1.19864e-08)
(8.66434e-09 6.37677e-09 -2.52807e-08)
(-1.81863e-08 -1.40848e-08 -4.99107e-08)
(3.46951e-08 2.62503e-08 -9.83965e-08)
(-6.54108e-08 -5.12086e-08 -1.79807e-07)
(1.19259e-07 9.13142e-08 -3.29713e-07)
(-2.01814e-07 -1.62378e-07 -5.5503e-07)
(3.50258e-07 2.68881e-07 -9.45303e-07)
(-5.27945e-07 -4.41108e-07 -1.45233e-06)
(8.65959e-07 6.63517e-07 -2.2946e-06)
(-1.13565e-06 -9.73056e-07 -3.18055e-06)
(1.74025e-06 1.28544e-06 -4.57805e-06)
(-1.12926e-06 -1.91806e-08 -5.15985e-06)
(-3.29419e-07 9.7367e-07 -8.95737e-06)
(4.55975e-07 -4.39996e-07 -5.54064e-06)
(4.71557e-08 1.68996e-07 -4.37101e-06)
(-1.62161e-06 1.80189e-06 -4.99704e-06)
(1.05819e-06 -1.41442e-06 -3.53766e-06)
(1.74166e-09 1.33067e-07 -2.18056e-06)
(-7.75088e-07 9.75751e-07 -2.48235e-06)
(4.97955e-07 -6.13512e-07 -1.57194e-06)
(-7.32881e-09 5.56734e-08 -9.40758e-07)
(-3.05504e-07 4.01132e-07 -1.01756e-06)
(1.85035e-07 -2.20166e-07 -5.8994e-07)
(-5.07321e-09 1.97608e-08 -3.40618e-07)
(-1.04561e-07 1.37287e-07 -3.53617e-07)
(5.79791e-08 -6.84284e-08 -1.88961e-07)
(-2.30901e-09 6.04004e-09 -1.0503e-07)
(-3.09525e-08 4.01465e-08 -1.05205e-07)
(1.55733e-08 -1.84772e-08 -5.18395e-08)
(-8.74188e-10 1.55362e-09 -2.77532e-08)
(-7.90127e-09 1.0056e-08 -2.68463e-08)
(3.6133e-09 -4.35019e-09 -1.22402e-08)
(-2.80556e-10 3.43936e-10 -6.33726e-09)
(-1.74847e-09 2.16018e-09 -5.95547e-09)
(7.2897e-10 -9.20493e-10 -2.53113e-09)
(-7.93808e-11 9.47263e-11 -1.28111e-09)
(-3.38361e-10 3.84226e-10 -1.20687e-09)
(1.19579e-10 -1.91873e-10 -4.60132e-10)
(-1.23486e-11 4.64982e-11 -3.29493e-10)
(-3.09295e-11 8.16608e-11 -2.40411e-10)
(2.92249e-11 6.05257e-11 -1.91857e-10)
(5.41875e-11 -2.62995e-11 -2.12266e-10)
(-5.84883e-11 1.64331e-10 -4.4429e-10)
(-1.86643e-11 -3.43311e-11 -1.89308e-10)
(-2.01401e-11 -9.76399e-12 -2.19223e-10)
(5.70342e-11 1.31066e-10 -3.75257e-10)
(-2.19552e-10 -1.43622e-10 -3.99539e-10)
(2.96367e-10 2.4959e-10 -1.12507e-09)
(-1.00303e-09 -6.40467e-10 -2.46368e-09)
(-6.77704e-10 9.35444e-10 -2.41351e-09)
(-9.10162e-10 -9.58729e-10 -2.51895e-09)
(7.72877e-11 -4.65029e-11 -1.31908e-09)
(2.20962e-10 -4.66803e-10 -1.1564e-09)
(2.48255e-10 3.65585e-10 -1.19054e-09)
(-2.09279e-10 -1.95954e-10 -4.36594e-10)
(4.0057e-11 -6.16694e-12 -3.36992e-10)
(-1.6348e-10 1.65367e-10 -4.49804e-10)
(-6.63322e-11 -1.46319e-11 -6.03724e-10)
(-4.36417e-11 -3.24054e-11 -6.43237e-10)
(-3.97592e-11 -3.18516e-11 -3.84165e-10)
(-1.73132e-12 -9.45456e-13 -2.00574e-10)
(-6.1101e-12 -3.98972e-12 -2.06379e-10)
(-3.31053e-11 -1.30585e-12 -4.39523e-10)
(-7.61844e-11 -1.70827e-11 -7.36913e-10)
(-6.16343e-11 -1.67325e-11 -6.45426e-10)
(-1.85511e-10 1.71172e-10 -4.70471e-10)
(-2.07917e-10 -1.85289e-10 -4.6709e-10)
(2.72416e-10 3.90575e-10 -1.22633e-09)
(-8.91282e-10 -9.23703e-10 -2.56345e-09)
(-3.11409e-10 -1.61535e-12 -3.07293e-09)
(1.51925e-09 2.01596e-09 -5.75127e-09)
(-4.0481e-09 -4.42413e-09 -1.20296e-08)
(7.24259e-09 9.15113e-09 -2.52743e-08)
(-1.66157e-08 -1.85498e-08 -4.98812e-08)
(-4.63222e-09 6.81938e-11 -5.60982e-08)
(2.95675e-08 3.61053e-08 -9.76909e-08)
(-5.99952e-08 -6.71776e-08 -1.79338e-07)
(1.02703e-07 1.22785e-07 -3.26099e-07)
(-1.88321e-07 -2.08375e-07 -5.52883e-07)
(-2.34563e-08 9.67194e-10 -5.84891e-07)
(3.01154e-07 3.5642e-07 -9.30802e-07)
(-5.05498e-07 -5.47573e-07 -1.44897e-06)
(7.35512e-07 8.68604e-07 -2.24515e-06)
(-1.125e-06 -1.19061e-06 -3.20305e-06)
(2.33281e-07 -4.15511e-09 -3.14291e-06)
(1.16794e-08 1.2726e-09 -3.13343e-06)
(-1.73777e-08 2.45679e-09 -1.49518e-06)
(-1.49158e-08 8.39518e-09 -1.50069e-06)
(-1.89106e-08 2.04381e-09 -6.07047e-07)
(-2.30373e-08 2.8119e-09 -5.88731e-07)
(3.14637e-07 3.61655e-07 -9.40321e-07)
(-5.20693e-07 -5.49923e-07 -1.45585e-06)
(5.39831e-08 9.07664e-10 -9.68193e-07)
(-4.20735e-07 6.5525e-07 -1.47658e-06)
(5.66348e-07 -1.00651e-06 -2.26106e-06)
(7.77171e-07 8.92764e-07 -2.27537e-06)
(-1.12984e-06 -1.18097e-06 -3.19324e-06)
(1.3097e-07 9.34799e-09 -2.23486e-06)
(-9.94647e-07 1.45269e-06 -3.28943e-06)
(1.04196e-06 -1.96005e-06 -4.47907e-06)
(2.1161e-06 1.2796e-06 -5.16441e-06)
(-2.71883e-08 -1.08563e-06 -5.15295e-06)
(2.30567e-07 -2.45941e-06 -9.36376e-06)
(-3.30043e-06 -2.10344e-07 -6.37004e-06)
(-3.0832e-06 5.91349e-08 -5.97433e-06)
(5.37298e-06 -8.68306e-07 -5.36787e-06)
(-3.93545e-07 -2.44243e-07 -6.70071e-06)
(2.478e-08 1.02905e-08 -3.02859e-06)
(5.25708e-08 9.28492e-07 -2.8226e-06)
(-9.03062e-07 1.02852e-06 -3.56039e-06)
(1.41626e-07 5.46287e-08 -1.9139e-06)
(3.12763e-07 -9.99388e-07 -2.38643e-06)
(-3.31864e-07 5.29535e-07 -1.51581e-06)
(1.18095e-08 -1.00359e-08 -7.92157e-07)
(1.32841e-07 -3.23576e-07 -9.63074e-07)
(-1.17766e-07 1.95741e-07 -5.53112e-07)
(-3.77677e-09 -8.66025e-09 -2.81186e-07)
(4.12085e-08 -1.01084e-07 -3.32447e-07)
(-3.8641e-08 6.21522e-08 -1.75341e-07)
(-2.49714e-09 -3.40123e-09 -8.58179e-08)
(9.97438e-09 -2.7705e-08 -9.77122e-08)
(-1.08012e-08 1.68513e-08 -4.72183e-08)
(-1.14143e-09 -1.22069e-09 -2.23081e-08)
(2.42058e-09 -6.76775e-09 -2.45761e-08)
(-2.5865e-09 4.05906e-09 -1.0905e-08)
(-4.10891e-10 -3.62773e-10 -4.98096e-09)
(4.97941e-10 -1.33908e-09 -5.26041e-09)
(-5.08847e-10 8.60002e-10 -2.177e-09)
(-1.26893e-10 -1.07132e-10 -9.72835e-10)
(1.32573e-10 -2.34852e-10 -1.01146e-09)
(2.34317e-11 1.03429e-11 -4.93434e-10)
(1.30536e-11 3.93641e-11 -4.5341e-10)
(-2.87197e-14 -1.97618e-10 -9.32126e-10)
(-1.75158e-11 -8.96878e-11 -1.16273e-09)
(2.31939e-10 4.59725e-10 -1.92293e-09)
(-1.60541e-10 -1.26108e-09 -4.82888e-09)
(1.77342e-09 1.30597e-09 -5.48282e-09)
(-4.68265e-09 -3.12818e-09 -1.19208e-08)
(8.83029e-09 6.17118e-09 -2.50945e-08)
(-1.97171e-08 -1.32537e-08 -5.04703e-08)
(-1.26288e-08 2.02961e-08 -4.89167e-08)
(-1.71101e-08 -1.8965e-08 -4.98759e-08)
(1.34158e-09 -4.8717e-10 -2.85568e-08)
(5.84013e-09 -1.07375e-08 -2.51672e-08)
(7.3063e-09 8.88627e-09 -2.50837e-08)
(-4.14841e-09 -4.54925e-09 -1.19608e-08)
(2.74533e-10 -1.704e-10 -6.51886e-09)
(-3.02946e-09 4.67486e-09 -1.15745e-08)
(-1.18786e-09 -8.90589e-11 -1.3524e-08)
(-7.77583e-10 -5.94913e-10 -1.45866e-08)
(-2.07905e-10 -1.58504e-10 -3.19896e-09)
(-1.72008e-10 -1.43875e-10 -2.42821e-09)
(-2.86198e-10 -5.76818e-10 -3.46e-09)
(-1.77966e-11 -2.10051e-10 -2.63984e-09)
(-5.81336e-11 -1.06795e-10 -2.41217e-09)
(-3.82721e-10 -8.44735e-11 -3.0668e-09)
(-9.33484e-10 4.89512e-11 -3.51578e-09)
(-1.62645e-10 4.29598e-12 -7.89561e-10)
(6.02038e-11 -6.06277e-12 -3.06795e-10)
(3.89437e-11 -8.45077e-12 -1.31345e-10)
(4.06162e-11 6.99424e-11 -2.78888e-10)
(1.85707e-11 2.01951e-11 -1.7357e-10)
(1.36203e-10 -7.41307e-12 -3.85579e-10)
(8.44089e-12 2.15352e-11 -6.46492e-10)
(2.21449e-10 -1.00698e-10 -1.56235e-09)
(7.71198e-10 -5.07162e-10 -7.46516e-09)
(-2.09561e-09 -5.29077e-10 -1.45259e-08)
(-4.0236e-09 2.95294e-10 -1.58259e-08)
(-1.4959e-08 1.43324e-09 -6.36298e-08)
(-8.22866e-09 -1.89587e-09 -6.03759e-08)
(2.88325e-09 -2.10421e-09 -3.24438e-08)
(-1.06256e-09 -5.99241e-09 -2.25113e-08)
(2.74596e-10 -1.28827e-09 -2.70791e-08)
(4.10528e-09 9.82654e-09 -4.32147e-08)
(-4.3458e-09 -2.45896e-08 -8.90719e-08)
(3.67219e-08 2.49696e-08 -9.96305e-08)
(-7.23427e-08 -4.81592e-08 -1.83814e-07)
(1.29086e-07 8.67829e-08 -3.37965e-07)
(-2.3158e-07 -1.50179e-07 -5.72711e-07)
(-1.49861e-07 2.41638e-07 -5.56222e-07)
(-1.94811e-07 -2.10808e-07 -5.55992e-07)
(1.8705e-08 -1.45015e-09 -3.51044e-07)
(8.20012e-08 -1.41754e-07 -3.29125e-07)
(1.06175e-07 1.2292e-07 -3.27909e-07)
(-6.1968e-08 -6.83252e-08 -1.79955e-07)
(5.50735e-09 -1.06841e-09 -1.08191e-07)
(-4.6528e-08 7.5721e-08 -1.78336e-07)
(-1.04792e-08 8.59105e-10 -1.9654e-07)
(-5.17435e-09 -4.37346e-09 -1.98961e-07)
(-2.30296e-09 -1.81365e-09 -5.80376e-08)
(-1.97977e-09 -5.8648e-11 -4.7383e-08)
(-4.20631e-09 -1.06859e-08 -6.23197e-08)
(-7.30497e-10 -5.52858e-09 -5.44848e-08)
(-1.54626e-09 -3.7726e-09 -5.05691e-08)
(-1.21713e-09 -2.7505e-09 -1.56071e-08)
(-2.78469e-10 -1.34702e-09 -1.2761e-08)
(-4.29741e-10 -9.33957e-10 -1.17706e-08)
(1.04249e-09 2.24102e-09 -9.88026e-09)
(2.76951e-11 -3.44337e-10 -6.02445e-09)
(-6.25691e-10 -2.99606e-10 -1.15014e-08)
(-9.44425e-11 8.28925e-10 -7.7957e-09)
(-4.6805e-12 -9.11485e-10 -3.73686e-09)
(-7.56612e-12 -1.62711e-10 -8.5509e-10)
(-1.05443e-11 8.11935e-11 -3.42644e-10)
(-1.79382e-12 1.30379e-10 -4.01626e-10)
(-7.72353e-11 2.17353e-10 -3.0556e-10)
(-5.79258e-11 -5.57293e-11 -7.67045e-10)
(-4.68106e-11 -2.17017e-11 -4.8116e-10)
(-3.8085e-11 1.74484e-10 -1.66696e-09)
(-1.80594e-11 1.09624e-10 -1.72436e-09)
(8.8382e-10 -8.33977e-10 -2.54755e-09)
(-2.76479e-11 -2.98107e-10 -3.05122e-09)
(-2.10274e-09 1.54376e-09 -5.78699e-09)
(1.9956e-09 1.3795e-09 -5.79709e-09)
(-4.34554e-09 -3.66345e-09 -1.20777e-08)
(-4.80796e-11 3.01819e-10 -6.7126e-09)
(4.34456e-09 -3.80195e-09 -1.19812e-08)
(-3.98418e-11 -1.24958e-09 -1.39137e-08)
(-9.39038e-09 7.17344e-09 -2.54373e-08)
(9.04158e-09 6.57352e-09 -2.54384e-08)
(-1.81856e-08 -1.49802e-08 -4.99739e-08)
(-9.58798e-11 1.4125e-09 -2.90354e-08)
(1.85142e-08 -1.57306e-08 -4.98556e-08)
(7.08412e-11 -4.30325e-09 -5.62515e-08)
(-3.65394e-08 2.8798e-08 -9.81829e-08)
(3.5603e-08 2.68042e-08 -9.81799e-08)
(-6.57954e-08 -5.40582e-08 -1.79412e-07)
(-4.14611e-11 5.61802e-09 -1.09017e-07)
(6.79181e-08 -5.72624e-08 -1.79713e-07)
(8.38327e-10 -1.14963e-08 -1.96614e-07)
(-1.22973e-07 9.88592e-08 -3.27182e-07)
(1.20864e-07 9.29636e-08 -3.27374e-07)
(-2.04072e-07 -1.6998e-07 -5.52735e-07)
(6.24493e-10 1.86406e-08 -3.51547e-07)
(2.12865e-07 -1.81341e-07 -5.55424e-07)
(3.49224e-09 -1.89244e-08 -5.87937e-07)
(-3.54977e-07 2.86386e-07 -9.32134e-07)
(3.5057e-07 2.72591e-07 -9.34354e-07)
(-5.36456e-07 -4.5848e-07 -1.4477e-06)
(3.1197e-09 5.16149e-08 -9.65187e-07)
(5.62776e-07 -4.9206e-07 -1.45984e-06)
(6.93174e-09 1.74693e-08 -1.49043e-06)
(-8.65611e-07 6.86991e-07 -2.24252e-06)
(8.54903e-07 6.69192e-07 -2.25574e-06)
(-1.16676e-06 -1.02944e-06 -3.19554e-06)
(7.61341e-09 1.17971e-07 -2.22564e-06)
(1.21706e-06 -1.10133e-06 -3.22886e-06)
(-5.78744e-09 2.96572e-07 -3.14776e-06)
(-1.73635e-06 1.32165e-06 -4.47539e-06)
(1.71118e-06 1.32096e-06 -4.5139e-06)
(-1.15502e-06 -7.40576e-08 -5.16857e-06)
(-3.82937e-09 1.40555e-07 -4.45463e-06)
(1.14691e-06 -1.18008e-07 -5.17565e-06)
(-9.11804e-08 5.5541e-06 -5.1649e-06)
(-2.51608e-07 -3.01377e-06 -6.11788e-06)
(-1.29423e-07 -3.14362e-06 -5.91885e-06)
(-3.25845e-07 4.21179e-06 -5.06919e-06)
(-2.71563e-06 1.12122e-06 -6.57378e-06)
(4.70923e-07 3.4247e-07 -3.91552e-06)
(1.59007e-07 -2.64429e-06 -4.79715e-06)
(-1.85664e-07 -7.0844e-07 -3.23437e-06)
(-3.61949e-07 -4.42196e-07 -3.07604e-06)
(-5.23911e-08 8.67699e-07 -3.36579e-06)
(-1.35768e-06 -9.30832e-07 -3.23433e-06)
(3.58632e-07 -1.60401e-08 -3.22679e-06)
(-9.25045e-07 8.34667e-08 -3.57678e-06)
(-1.04485e-06 -2.78925e-07 -3.62893e-06)
(-5.5434e-08 -2.74694e-07 -2.61741e-06)
(-2.73417e-07 -6.1467e-08 -1.71221e-06)
(-3.98263e-07 6.39091e-08 -1.7037e-06)
(-1.4567e-07 2.13653e-08 -6.65724e-07)
(-8.07449e-08 -1.52638e-08 -6.56602e-07)
(2.96038e-08 -2.27751e-08 -3.95561e-07)
(-2.66978e-08 -6.07736e-09 -2.1489e-07)
(-4.90252e-08 5.84517e-09 -2.21819e-07)
(-4.36736e-08 7.52043e-10 -2.20233e-07)
(-1.3218e-08 -3.95287e-11 -6.37981e-08)
(-3.60294e-09 -9.22568e-11 -1.61314e-08)
(-8.78294e-10 -4.73229e-11 -3.67167e-09)
(-1.59281e-10 -1.90018e-11 -8.39074e-10)
(8.29628e-11 -1.63943e-11 -3.38284e-10)
(3.68802e-11 -6.56016e-12 -1.3991e-10)
(4.58613e-11 5.1753e-11 -2.56042e-10)
(5.15392e-11 -5.76347e-11 -2.21169e-10)
(1.09664e-10 -1.18199e-11 -3.96616e-10)
(1.11631e-10 -4.27247e-12 -4.21849e-10)
(5.23125e-11 -6.20235e-11 -2.55249e-10)
(5.33996e-11 5.75268e-11 -2.64887e-10)
(4.68369e-11 -3.39618e-12 -3.60553e-10)
(-5.42008e-11 -2.11737e-12 -2.38545e-10)
(7.29579e-12 -1.48157e-12 -2.98997e-10)
(-7.28045e-12 -6.91817e-12 -2.3149e-10)
(-4.7466e-12 -5.93344e-12 -2.09177e-10)
(6.58992e-12 7.38883e-12 -2.77779e-10)
(-4.69669e-11 -7.27138e-12 -2.16691e-10)
(-1.5418e-12 8.52794e-12 -2.99197e-10)
(2.07596e-14 -7.67391e-12 -2.16785e-10)
(5.39023e-15 -8.38453e-12 -2.41593e-10)
(2.63999e-13 -7.33582e-12 -4.05763e-10)
(-2.63197e-11 1.83194e-11 -3.49804e-10)
(-3.81857e-11 -3.77043e-11 -3.65226e-10)
(-3.84708e-11 3.92618e-11 -3.64871e-10)
(-2.57748e-11 -1.65067e-11 -3.48626e-10)
(2.65215e-11 -1.73899e-11 -3.48197e-10)
(-5.66546e-12 -5.88565e-12 -3.32516e-10)
(7.14957e-12 6.75622e-12 -8.25727e-10)
(3.95592e-11 3.93293e-11 -3.64537e-10)
(-1.65584e-11 2.64206e-11 -3.48299e-10)
(-1.61049e-11 -2.52003e-11 -3.48315e-10)
(7.4009e-12 -5.3817e-12 -8.274e-10)
(3.88894e-11 -3.82351e-11 -3.64886e-10)
(3.13936e-13 4.30281e-13 -4.23787e-10)
(1.03834e-12 1.45741e-12 -9.93846e-10)
(1.01692e-12 -2.73481e-11 -9.54511e-10)
(7.52658e-13 -7.37278e-11 -7.58726e-10)
(-1.92973e-11 -6.90477e-11 -7.37426e-10)
(-1.32092e-11 -5.80758e-11 -6.47245e-10)
(-5.43439e-11 -3.0527e-10 -3.45684e-09)
(-1.64816e-10 -1.18833e-09 -1.55338e-08)
(-3.44219e-10 -3.78796e-09 -6.11876e-08)
(-2.63826e-10 -9.55899e-09 -2.08147e-07)
(1.29264e-09 -1.69093e-08 -6.06079e-07)
(-6.76353e-09 -7.47725e-09 -5.83013e-07)
(-9.92456e-09 2.53351e-08 -5.04744e-07)
(-3.05009e-08 -1.09864e-07 -6.3851e-07)
(1.14851e-09 -5.28004e-08 -5.85012e-07)
(-1.44738e-08 -2.80431e-08 -5.50413e-07)
(3.98646e-08 1.32059e-07 -5.08402e-07)
(-5.70787e-08 -2.40037e-07 -8.7788e-07)
(3.90587e-07 2.57424e-07 -9.86047e-07)
(-6.35297e-07 -4.08313e-07 -1.50505e-06)
(1.01761e-06 6.4189e-07 -2.47513e-06)
(1.45555e-08 -4.71912e-08 -2.33279e-06)
(-2.85842e-07 -6.44955e-07 -2.15109e-06)
(-7.07841e-08 -8.01113e-08 -1.42246e-06)
(8.085e-08 3.92213e-07 -1.3999e-06)
(1.10357e-08 -2.31338e-08 -9.65705e-07)
(6.28518e-08 -7.46498e-08 -1.1062e-06)
(7.93693e-08 9.78583e-09 -1.10211e-06)
(-1.30083e-07 4.59283e-09 -6.54045e-07)
(-3.47956e-07 1.65732e-08 -1.65048e-06)
(-8.452e-07 2.5671e-08 -3.49034e-06)
(-2.14088e-06 -2.58108e-08 -6.16047e-06)
(-2.21865e-06 -3.07293e-07 -6.22441e-06)
(-4.61494e-06 1.09564e-06 -6.40521e-06)
(-1.56382e-06 -5.51827e-07 -4.73759e-06)
(-1.29045e-06 -1.534e-06 -4.11754e-06)
(1.38184e-08 -2.85375e-07 -4.60985e-06)
(-4.64813e-07 -4.50898e-07 -5.59814e-06)
(5.53965e-07 -4.50238e-06 -5.18524e-06)
(-4.44838e-06 -1.30794e-06 -6.23234e-06)
(-2.75948e-06 1.76253e-07 -9.67617e-06)
(-1.38535e-06 -1.99462e-06 -8.69828e-06)
(1.88536e-06 1.41886e-06 -7.84815e-06)
(1.57617e-07 8.42088e-08 -8.1833e-06)
(7.73385e-08 6.00159e-08 -4.96512e-06)
(-1.8597e-06 1.70223e-06 -6.48509e-06)
(1.96696e-06 1.42523e-06 -6.76309e-06)
(2.06608e-08 1.68638e-07 -8.27943e-06)
(-2.46227e-07 -1.58685e-07 -5.0571e-06)
(-2.018e-06 1.8469e-06 -6.64671e-06)
(1.96004e-06 1.66492e-06 -6.77241e-06)
(3.0824e-09 1.73291e-07 -8.31679e-06)
(-2.78229e-07 -1.93066e-07 -5.08242e-06)
(-1.98032e-06 1.68806e-06 -6.568e-06)
(1.94732e-06 1.88731e-06 -6.86496e-06)
(7.13897e-09 1.62983e-07 -8.32128e-06)
(-4.42388e-07 -4.28319e-07 -5.24322e-06)
(-1.89955e-06 1.42024e-06 -6.5512e-06)
(1.39043e-06 1.89706e-06 -7.38916e-06)
(-1.30518e-06 -6.94446e-07 -1.04434e-05)
(1.19444e-06 1.22497e-06 -8.93022e-06)
(9.13813e-07 -1.04386e-06 -8.75282e-06)
(2.50353e-06 1.13355e-06 -1.12028e-05)
(-1.18338e-06 -4.3836e-06 -1.11195e-05)
(-6.39653e-07 -2.35073e-06 -8.60065e-06)
(3.5461e-07 3.34648e-07 -6.0591e-06)
(1.32979e-06 -1.07977e-06 -8.26718e-06)
(-3.74792e-06 1.81598e-06 -6.75791e-06)
(-1.60603e-07 -1.13014e-07 -5.57962e-06)
(-2.15193e-06 -2.89388e-06 -6.33396e-06)
(2.34873e-06 1.85002e-06 -7.39775e-06)
(2.35848e-06 -2.60043e-08 -6.1459e-06)
(2.08605e-06 -2.15307e-06 -7.72688e-06)
(2.65583e-06 -2.16042e-06 -9.07923e-06)
(1.06912e-06 -3.06763e-06 -5.7131e-06)
(9.02736e-08 7.85254e-07 -5.86154e-06)
(9.00072e-07 -1.5188e-06 -5.11107e-06)
(1.26071e-06 -1.07518e-06 -5.31159e-06)
(1.86327e-06 1.44783e-06 -6.31057e-06)
(-4.12655e-07 -2.04211e-06 -4.60303e-06)
(1.42858e-07 -4.02231e-07 -3.06685e-06)
(7.7897e-07 1.09698e-06 -3.32502e-06)
(-3.02802e-07 -8.27977e-07 -2.27261e-06)
(1.41502e-08 -1.2795e-07 -1.44233e-06)
(3.12184e-07 5.09477e-07 -1.44707e-06)
(-1.22299e-07 -2.98657e-07 -9.32875e-07)
(4.4498e-09 -4.78666e-08 -5.63394e-07)
(1.16016e-07 1.90564e-07 -5.3915e-07)
(-3.79564e-08 -9.69654e-08 -3.24977e-07)
(2.24402e-09 -1.76386e-08 -1.87819e-07)
(3.80052e-08 6.05071e-08 -1.72004e-07)
(-1.00222e-08 -2.76964e-08 -9.65073e-08)
(9.02277e-10 -5.54088e-09 -5.32936e-08)
(1.07748e-08 1.65691e-08 -4.69996e-08)
(-2.27873e-09 -6.82958e-09 -2.44912e-08)
(2.74597e-10 -1.41385e-09 -1.29586e-08)
(2.62018e-09 3.94809e-09 -1.09941e-08)
(-4.8849e-10 -1.45043e-09 -5.33958e-09)
(5.44446e-11 -2.65959e-10 -2.66067e-09)