/*--------------------------------*- C++ -*----------------------------------*\
| =========                 |                                                 |
| \\      /  F ield         | OpenFOAM: The Open Source CFD Toolbox           |
|  \\    /   O peration     | Version:  2306                                  |
|   \\  /    A nd           | Website:  www.openfoam.com                      |
|    \\/     M anipulation  |                                                 |
\*---------------------------------------------------------------------------*/
FoamFile
{
    version     2.0;
    format      ascii;
    arch        "LSB;label=32;scalar=64";
    class       volScalarField;
    location    "0.5";
    object      gradTy;
}
// * * * * * * * * * * * * * * * * * * * * * * * * * * * * * * * * * * * * * //

dimensions      [0 -1 0 1 0 0 0];

internalField   nonuniform List<scalar> 
5322
(
0.040621
0.00607796
0.00232914
0.0020741
0.00156036
0.000837505
0.000343207
0.000114638
3.25032e-05
7.93008e-06
1.42338e-06
-6.68986e-07
-2.69807e-07
-3.15326e-07
-3.86893e-07
1.48311e-06
1.65672e-06
1.27411e-07
2.12687e-06
-7.28709e-06
1.23455e-05
-3.3818e-05
5.74565e-05
-0.000142598
0.000238997
-0.000509652
0.000800332
-0.00159878
0.00238752
-0.00414049
0.00580778
-0.00916683
0.0124133
-0.0150004
0.0170285
-0.0114379
0.0236501
0.0278117
0.0142836
0.0167133
0.0205716
0.0173996
0.0193807
0.0192547
0.0183683
0.019765
0.0186726
0.0199674
0.0201685
0.0178483
0.0227041
0.00915296
0.011352
-0.0322319
-0.00136095
-0.018273
0.0107107
-0.0236073
-0.000846775
-0.0204498
0.0108696
-0.0231373
-0.000742489
-0.0203152
0.0109322
-0.0240612
-0.00115575
-0.01983
0.011173
-0.027422
0.000590243
0.0177447
0.00975407
0.0137914
0.0101592
0.0129967
0.0107601
0.0129792
0.0110976
0.0158899
0.000695127
0.0076871
0.0107673
0.0160228
-0.000699072
-0.00452903
0.00242934
0.00441035
0.011272
0.0019065
0.00303957
0.0004388
4.58254e-05
2.88101e-05
0.0151364
-0.0098882
0.000336573
0.00996116
0.000341672
-0.00110115
0.00260983
0.000380585
0.0108281
-0.0147174
0.0132031
0.000535388
-0.000393044
-3.09499e-05
1.71439e-05
2.75656e-05
1.72265e-05
7.7029e-06
2.72355e-06
7.76625e-07
2.3618e-07
6.87702e-08
5.77819e-07
-5.03849e-09
-6.72278e-08
-1.01266e-07
3.96467e-07
1.41586e-08
-1.04472e-07
-2.30109e-07
-1.89669e-07
1.65308e-08
2.5193e-07
-1.24951e-07
3.87549e-08
1.97828e-07
-1.75201e-07
8.00336e-09
1.82056e-07
-2.12264e-07
-3.25599e-08
1.35802e-07
-2.16481e-07
-4.37329e-08
-1.34169e-07
3.17961e-07
2.13477e-07
-3.64411e-07
6.01932e-08
6.81439e-08
-5.55726e-07
7.03479e-08
-3.68139e-07
1.48888e-07
2.98797e-07
-4.37156e-07
-4.15835e-08
-2.47644e-07
2.53064e-07
4.49851e-07
-2.83239e-07
2.84795e-08
-1.38108e-07
3.79341e-07
7.05268e-08
1.01745e-07
1.62642e-06
-1.03484e-06
2.91327e-06
-6.24494e-06
9.23058e-07
-1.06132e-06
3.74095e-07
5.35204e-07
1.3614e-07
2.63171e-07
-4.27976e-07
4.94551e-07
-1.44006e-06
3.11906e-08
1.57431e-06
-3.30815e-06
3.54933e-06
-7.57562e-06
1.52432e-07
7.85102e-06
-1.70405e-05
1.80976e-05
-3.71383e-05
5.5834e-07
3.76701e-05
-7.71222e-05
8.11677e-05
-0.000157854
1.79364e-06
0.000158324
-0.000303307
0.000317008
-0.000577625
5.11972e-06
0.000574563
-0.00102851
0.00106932
-0.00180745
1.28431e-05
0.00178437
-0.0029834
0.0030885
-0.00478666
2.68855e-05
0.00468682
-0.00730382
0.00753149
-0.0104638
5.14267e-05
0.0101524
-0.0147728
0.0148583
-0.00992393
-9.67723e-05
-0.00174399
0.000944737
-0.000424162
-2.41254e-05
7.55196e-05
0.000133413
2.16018e-05
0.0151764
-0.00984787
3.25402e-05
0.0120783
-0.00213768
-0.00125978
0.0012468
-0.000783678
0.00990305
-0.0149384
0.000104157
5.89588e-05
0.000179306
5.9322e-05
4.93639e-06
-6.87933e-06
-4.96205e-06
-2.0956e-06
-6.47957e-07
-2.05318e-07
-5.8753e-08
-4.0586e-07
-4.94625e-07
-4.97543e-07
-4.02898e-07
1.24617e-07
-6.45848e-08
-1.44725e-07
-4.45607e-07
2.2508e-08
-2.66338e-07
-6.71165e-08
1.24492e-07
-1.43006e-07
-2.54783e-07
-1.55361e-08
1.89706e-07
5.95897e-08
-4.46909e-07
2.29078e-08
2.14165e-07
3.05758e-07
4.28527e-07
-1.66728e-06
-1.66744e-06
-1.70913e-06
2.46981e-06
-7.14695e-06
1.31064e-05
-3.24437e-05
6.0932e-05
-0.000133515
0.000245268
-0.000483502
0.000845621
-0.00152282
0.00247472
-0.0041248
0.00609569
-0.00938647
0.0122902
-0.00125382
0.0107257
-0.000209127
0.00119657
0.0106524
-0.00861344
0.000990512
0.00552576
-0.00389837
0.000433246
0.00228585
-0.00145436
0.000157191
0.000786192
-0.000463513
4.75343e-05
0.000227736
-0.000128508
1.19742e-05
5.60528e-05
-3.14084e-05
2.56707e-06
1.17967e-05
-6.97922e-06
7.31072e-07
2.1129e-06
-4.62245e-07
2.11073e-06
-6.96734e-06
7.31755e-07
2.4787e-06
-1.70475e-06
4.22261e-07
5.13573e-07
2.64105e-07
3.27707e-07
-1.52006e-06
1.82609e-06
-6.42618e-06
1.11152e-05
-2.91329e-05
5.45023e-05
-0.000120383
0.000224361
-0.00043768
0.000780463
-0.00138785
0.00229813
-0.00377015
0.00567109
-0.00831672
0.0109867
-0.000163937
0.00832196
-0.00376065
0.00144441
0.0154007
-0.0120891
0.00113733
0.00833976
-0.00524369
0.000475841
0.00342848
-0.00188176
0.000168896
0.00117339
-0.000584858
5.16243e-05
0.000343132
-0.000157925
1.32788e-05
8.59489e-05
-3.71811e-05
2.93963e-06
1.84631e-05
-7.86746e-06
8.09626e-07
3.28398e-06
-1.63994e-06
3.9742e-07
6.97955e-07
5.17314e-07
-2.24782e-07
1.40454e-06
-2.93428e-07
-8.34529e-08
1.12023e-06
-1.22754e-06
2.13324e-06
-5.47407e-06
7.99525e-06
-8.19426e-06
-3.9746e-07
-3.98977e-06
3.12466e-06
-1.67482e-06
-5.27089e-08
1.41339e-06
-1.25059e-07
-2.76969e-07
-2.72236e-07
-8.08082e-09
-3.41002e-08
-1.11611e-08
-1.46006e-07
-1.43012e-07
1.46301e-06
-1.58367e-06
3.33825e-06
-7.89489e-06
-1.38064e-08
1.72304e-05
-3.78131e-05
7.82148e-05
-0.000158545
5.82853e-07
0.000308592
-0.000574167
0.00104944
-0.00178098
8.26662e-06
0.00304633
-0.00468011
0.00742397
-0.0101762
-3.55138e-05
1.0877e-05
2.09982e-05
7.17537e-05
1.74684e-05
2.40333e-05
0.00309106
-0.0047002
7.75781e-06
0.00560043
-0.00860266
0.00763046
-0.0100938
7.98973e-05
0.0124161
-0.0167526
0.0109368
-0.00927885
-0.0210206
-0.00179781
0.000505426
-0.00742142
-0.00208754
8.79527e-05
0.00793583
0.00879078
0.000466912
-0.00854178
0.00452594
-8.57768e-05
-0.00276561
0.001673
-7.40192e-05
-0.000863967
0.000531216
-2.90704e-05
-0.000236795
0.000144028
-1.04333e-05
-5.7844e-05
3.46928e-05
-3.10063e-06
-1.14451e-05
7.35045e-06
-9.15656e-07
-2.00728e-06
8.84005e-08
3.36445e-07
-1.68905e-06
-7.66562e-07
3.92927e-06
-1.07785e-05
1.11621e-05
-2.67366e-05
5.27451e-05
-0.00011328
0.000173471
-0.000162094
-4.16384e-06
-9.17733e-05
7.5951e-05
-3.88825e-05
-1.45641e-06
3.99561e-05
-7.61187e-07
-5.08473e-06
-1.35473e-06
-1.2297e-06
-4.93007e-06
-1.79531e-06
-9.12777e-07
-7.21996e-07
4.18386e-07
3.67178e-08
-5.18185e-08
-7.22288e-08
5.97798e-07
1.72608e-07
-6.33596e-08
1.84061e-07
-8.60667e-07
-4.33472e-06
-4.52203e-06
2.52388e-06
1.22499e-05
-1.62041e-05
-1.79847e-05
-5.12171e-05
-1.10109e-05
8.39875e-05
-0.000210168
0.000213415
-0.000411617
0.000741734
-0.00128358
0.00206529
-0.00180178
-1.23944e-05
-0.00121158
0.0010506
-0.000583976
-9.1317e-06
0.000647188
7.34278e-06
-3.738e-05
-1.55013e-05
-5.01265e-07
-9.13328e-05
-4.72528e-05
-3.22445e-05
-2.35086e-05
-1.1513e-05
-7.98254e-06
1.9154e-05
-2.94305e-06
-2.56073e-06
7.08483e-06
-7.79047e-06
-1.39069e-06
6.93962e-07
1.11435e-06
1.85771e-06
-4.76319e-07
-1.85485e-07
1.49132e-06
9.36959e-07
-7.12801e-06
-2.54792e-06
1.31945e-05
1.17906e-05
-3.13116e-05
2.57965e-06
-3.24953e-05
-1.06802e-05
6.13114e-05
5.6184e-05
-0.000128035
1.20726e-05
-0.00013445
-3.67799e-05
0.000246137
0.000229096
-0.000462036
4.80173e-05
-0.000489422
-9.82589e-05
0.00084495
0.000794561
-0.00145282
0.000159321
-0.00154993
-0.000161747
0.00244774
0.00232983
-0.00391864
0.000441153
-0.00420564
0.00014931
0.00587172
0.00571959
-0.00879862
0.0010083
-0.00941307
0.0025348
0.0112961
0.0112903
-0.000632971
0.00120132
-0.00100862
0.047471
-0.0257587
-0.0268685
0.0359982
0.0095831
0.0029271
-0.0226008
-0.00605504
-0.00377945
0.00741623
-0.00795583
-0.000137094
0.000713391
-0.00238398
-0.00234782
-0.000525359
0.000546231
0.000182609
-0.00013046
-0.000194659
-5.19432e-05
4.99587e-05
6.42772e-06
-3.37852e-07
-7.88519e-07
-4.04469e-07
-1.62409e-07
-1.40122e-07
-5.60698e-08
4.42334e-07
-4.92604e-07
-1.01025e-07
-3.65168e-08
-5.30115e-07
4.91682e-07
-2.90272e-08
-1.80972e-08
-1.2663e-08
-5.91297e-08
-5.07131e-08
6.31524e-08
-6.21485e-08
7.28884e-08
-6.5589e-08
-7.16627e-08
-6.26993e-08
1.56576e-07
-3.22259e-07
3.35571e-07
-1.41083e-07
-1.48632e-07
-5.03047e-08
5.77455e-08
3.36148e-07
2.25817e-07
-2.15387e-07
-4.59974e-08
-3.26796e-07
3.67761e-09
1.24565e-08
-2.33745e-07
-6.30152e-07
-5.90151e-07
-4.96375e-07
-2.60915e-06
-1.01567e-05
-3.23757e-05
-8.17008e-05
-0.000144524
-6.39081e-05
0.000216539
-0.000939012
-0.000451285
-0.000239684
0.00112871
-0.0020516
0.0022002
-0.00348985
0.00548624
-0.000403344
-0.00551243
-0.000684712
0.00335224
-0.000197724
-0.000638032
8.36396e-05
3.92549e-05
0.000141651
0.00021941
-0.000220605
-0.00262643
0.00936447
-0.00471647
-0.0131111
-0.0024391
-0.00385383
-0.0384819
-0.011179
0.00150644
-0.017048
0.012127
0.000719734
0.000512956
0.0145489
0.0121815
0.00144135
-0.00135629
0.0157854
0.0142301
0.00148112
-0.00165013
0.0144279
0.0161308
0.00139302
-0.00366085
0.0121388
0.0162142
-0.00593544
0.0104699
-0.00892192
0.00968843
-0.0374667
-0.0200917
0.00286024
-0.0092288
0.0155212
-0.000965935
-0.024734
0.0158122
-0.000222259
-0.0184023
-0.0184651
-0.0262191
0.00671158
-0.0129812
-0.00918956
0.0123746
-0.017454
-0.00343787
0.00937588
-0.00707673
-0.00109359
0.0043545
-0.00255263
-0.000409116
0.00162875
-0.000828764
-0.000150758
0.000517155
-0.000236722
-4.73579e-05
0.000141617
-5.83724e-05
-1.20842e-05
3.37443e-05
-1.23969e-05
-2.27315e-06
7.28614e-06
-2.16182e-06
3.00356e-08
1.41882e-06
-2.33819e-07
5.14939e-07
6.95371e-07
-1.65451e-06
3.29189e-06
-7.95082e-06
8.18129e-07
1.82858e-06
-1.52372e-06
3.9697e-07
3.25303e-07
2.65985e-07
5.12498e-07
4.27418e-07
4.21968e-07
9.69485e-07
7.12195e-07
-1.43552e-06
-7.77363e-06
-3.16295e-05
-3.2701e-05
-0.000120896
-0.000399201
-0.000306574
-0.000157582
-0.00010315
0.000332069
-0.000696552
-9.35965e-05
-3.48169e-05
-6.09803e-05
-1.43526e-06
-0.000358801
0.000304773
-1.19222e-06
0.000158329
-0.000313848
2.89528e-07
0.000581886
-0.00105652
7.73715e-06
0.00182552
-0.00304452
3.27109e-05
0.00482709
-0.00740356
6.70579e-05
0.0104289
9.00431e-05
0.000283406
1.1179e-05
-4.12639e-05
-6.79786e-05
-1.36584e-06
5.87216e-06
2.23319e-06
4.73546e-07
3.07033e-08
-2.06405e-08
-9.05147e-09
-4.91306e-09
1.02188e-08
-4.82811e-07
4.60799e-08
8.68548e-08
6.23461e-08
7.60591e-08
-9.53087e-08
-1.47016e-06
-8.09722e-06
-3.13249e-05
-9.11705e-05
-0.000149
0.000620812
-0.000219278
-0.000549649
-0.000779184
0.014465
-0.0155572
0.0169053
-3.12661e-06
-0.00245496
0.00200764
0.00592537
-6.1873e-06
-0.00540655
0.0049951
0.0050741
-1.95716e-05
-0.00573511
0.00530156
0.00458923
-2.02242e-05
-0.00728573
0.00688828
0.0065451
-0.000161161
0.0104601
-0.010978
0.0107754
-0.0114184
-0.00104585
-0.00509306
0.0071844
-0.000669493
-0.00694314
-0.000163429
-3.01006e-05
0.0232129
-6.12874e-05
-0.0233612
0.0161966
-0.000590389
-0.0167438
0.0168646
-0.000338531
-0.0175648
0.0235658
-0.000205598
-0.0235208
0.0177735
-0.0177115
0.0175751
-0.0180444
0.000124665
-0.0232808
0.0230226
-7.81687e-06
-0.0168699
-0.00071181
0.0169265
-0.0146035
-7.56179e-06
0.026123
0.00960973
0.023096
0.00868997
-0.00786081
0.0107882
0.00192923
-0.00589839
0.00502902
0.000687674
-0.00272073
0.00200872
0.000300002
-0.00102074
0.000712058
0.00010574
-0.000314258
0.000204546
3.41176e-05
-8.46466e-05
5.31379e-05
7.80489e-06
-1.89395e-05
1.08786e-05
1.2624e-06
-4.00174e-06
1.82415e-06
-3.07785e-07
-1.11858e-06
-1.70804e-07
-5.90002e-07
4.92212e-07
7.18976e-08
4.36583e-08
2.1506e-07
1.35241e-07
-3.14758e-07
-2.09053e-07
1.85559e-08
-1.88975e-07
-5.60389e-08
-1.2994e-08
-2.16796e-07
-2.04561e-08
-3.53195e-08
-2.05329e-07
-3.11851e-07
-4.42784e-07
-3.99804e-07
1.78339e-06
4.85994e-07
-1.87493e-06
-6.77016e-07
6.54907e-06
7.4606e-06
2.56926e-06
-1.04022e-05
-2.75188e-06
2.80178e-05
3.77161e-05
1.91122e-06
-8.5267e-05
9.95574e-06
0.000158587
2.13648e-06
-0.000338871
3.19179e-05
0.000577424
-4.94833e-06
-0.00115117
7.54972e-05
0.0017999
-3.54746e-05
-0.00331422
0.000168299
0.00475586
-0.000130884
-0.0080654
0.000220532
0.0104787
-0.000398471
-0.0165544
-0.000223392
0.000828255
-0.00984176
0.0161458
8.39728e-05
0.00751553
0.000444214
-0.0049156
0.00812376
-2.73847e-05
0.00332298
0.000233223
-0.00203986
0.00338735
-9.50715e-06
0.0012625
0.000101097
-0.000705636
0.00119301
5.15386e-07
0.000408009
3.7875e-05
-0.000207247
0.000357437
1.67783e-06
0.000113008
1.14917e-05
-5.15911e-05
9.19983e-05
1.01915e-06
2.67344e-05
3.07519e-06
-1.10488e-05
2.05435e-05
3.99915e-07
5.53836e-06
7.68494e-07
-2.11883e-06
4.01728e-06
1.27741e-07
1.23236e-06
8.74821e-08
2.9426e-07
-6.87683e-07
-5.07074e-07
2.31802e-07
-1.40915e-06
-4.08752e-08
5.36928e-07
-1.83955e-06
-1.09703e-06
-9.55824e-07
-4.00417e-07
-4.06795e-07
1.5918e-06
1.75131e-06
5.04535e-07
-1.71105e-06
-7.74616e-07
8.01726e-06
9.34563e-07
-1.83726e-05
3.00597e-06
-6.70801e-06
-1.42182e-06
-8.90016e-07
-2.55723e-06
6.04083e-07
2.56813e-07
1.5726e-07
-1.07868e-07
6.6059e-08
4.54949e-07
-6.74327e-08
7.23477e-08
6.30437e-08
2.51579e-09
2.75912e-09
8.41686e-10
8.73922e-09
-1.03868e-10
3.41288e-08
-4.18995e-07
-3.98413e-07
1.63796e-05
-2.04266e-05
-3.8256e-07
-9.7936e-07
-4.12086e-07
-1.27142e-07
-3.56824e-06
-1.11726e-07
7.54284e-06
-1.80173e-05
-3.34034e-07
3.70781e-05
-8.05455e-05
-6.24346e-07
-8.48032e-07
-1.20946e-06
-9.40541e-07
-2.25348e-06
-1.99856e-07
2.74581e-06
4.11529e-06
1.06769e-06
2.14618e-07
4.48829e-08
1.72133e-06
5.00487e-07
2.59524e-07
7.89614e-06
-1.59377e-05
1.50673e-05
-3.07523e-05
6.78081e-05
-0.000131942
8.84816e-06
-2.02103e-05
5.14274e-06
2.25493e-05
3.03169e-06
-4.35171e-06
1.37042e-06
4.58222e-06
4.27209e-07
8.05878e-07
2.02065e-06
-3.08859e-07
-8.15433e-06
4.00378e-05
9.49228e-06
-4.88661e-05
-1.1134e-05
0.000106241
0.000145313
3.90325e-05
-0.000205039
-4.28897e-05
0.000409967
0.000500094
0.000114828
-0.000709971
-0.000144112
0.00124527
0.00152528
0.000270006
-0.00212667
-0.000388261
0.00315574
-0.00525908
-0.000818452
0.00656909
-0.0110284
-0.000964086
-0.00050202
-7.3264e-05
-3.03309e-07
2.04348e-05
1.47857e-05
6.98037e-06
2.54191e-06
7.36445e-07
2.24393e-07
6.40364e-08
4.11752e-07
5.02964e-07
5.07987e-07
9.40997e-08
2.7602e-07
6.56536e-07
6.36418e-07
2.86496e-07
1.39538e-07
4.61058e-07
-6.27516e-08
5.06958e-08
1.36838e-08
4.08996e-08
1.74006e-08
1.67971e-07
1.11524e-07
-3.03136e-06
6.46022e-07
4.40415e-07
1.95355e-07
1.33017e-08
3.66223e-09
-2.18325e-07
2.29363e-07
5.8546e-08
-5.32748e-08
4.14667e-07
-9.73734e-08
4.00497e-07
2.78785e-06
1.70496e-06
3.57487e-07
3.42629e-07
-2.58231e-06
5.27964e-07
-1.87103e-06
-6.78087e-07
5.84373e-06
7.83637e-06
2.56216e-06
-1.07853e-05
-2.23548e-06
3.47547e-05
1.08794e-05
-5.00538e-05
-1.10615e-05
0.000116883
0.000139738
3.79268e-05
-0.000208888
-4.72179e-05
0.000405379
-0.000725385
-0.000149822
0.00123309
0.000209407
9.30329e-05
3.41576e-05
1.04344e-05
2.66125e-06
3.85589e-07
2.57403e-07
7.03535e-08
2.30896e-07
5.5242e-08
-1.45504e-07
-3.58173e-07
-3.46709e-07
-1.79296e-07
-7.07515e-07
-2.75659e-06
-2.47463e-06
-1.08336e-05
-1.05756e-05
-3.47545e-05
-3.71568e-05
-0.000114948
-0.000375766
-0.0010988
-0.0011934
-0.00321527
-0.00279041
-0.00153596
-0.00744313
-0.0228944
0.000750018
-0.0375527
-0.0284674
-0.0226766
-0.0151394
-0.0130662
0.00476171
-0.011304
-0.000136306
0.0031954
0.000607873
0.000170488
0.0143305
-0.0161832
0.0172751
0.000188756
-0.00217232
0.00324402
0.00689445
0.000220364
-0.00487852
0.00642778
0.00638856
0.000208676
-0.00521692
0.0066119
0.00601714
0.000155743
-0.00702026
0.00763468
-0.00030294
0.000362403
8.12499e-05
0.00194791
-0.00808068
-0.0115164
0.00100932
0.00816007
9.71096e-05
-0.000100723
0.00499264
9.55717e-05
-0.00812563
0.0118068
7.52413e-05
-0.0158068
0.00942446
-0.00781017
0.00652636
-0.00213749
-0.0111997
6.99027e-05
-0.0151541
0.0202623
-0.0176666
0.0138261
3.37874e-06
-0.0137973
2.18801e-05
0.0136619
-4.16778e-05
-0.0137329
2.68543e-06
0.0137918
-6.16656e-05
-0.0138467
0.0180105
-0.0205334
0.00174079
-0.0186899
0.0259287
0.00150318
0.000896362
-0.0098168
0.0101945
-0.0106701
5.22936e-05
-0.00697524
0.00639889
0.000438877
-0.00803447
0.00584161
-0.00718186
0.000852554
0.0150857
-0.00777796
0.00437983
0.000758515
-0.00812155
0.00639789
-0.000166524
-0.00010813
-1.39297e-05
0.000150845
4.33295e-05
-1.59063e-06
-8.77859e-06
-5.37448e-06
-2.15689e-06
-6.51589e-07
-2.05164e-07
-5.83037e-08
6.11506e-08
1.59103e-07
-1.29852e-08
-6.04574e-08
-5.00244e-08
1.91629e-07
-1.46773e-08
-3.61896e-07
7.00482e-08
6.1021e-08
-3.68416e-07
-6.28287e-08
-2.15785e-07
-4.31224e-08
-1.34588e-07
-2.7636e-07
2.15297e-07
3.23211e-07
-6.89292e-09
6.38282e-08
-3.49441e-08
-1.03944e-08
1.5033e-07
-2.50435e-07
-3.41692e-08
-4.41312e-07
4.48502e-07
2.56878e-07
-1.42901e-07
2.12074e-08
-1.86816e-07
6.43421e-10
1.88555e-07
1.22428e-09
6.42475e-09
-1.45738e-07
-2.76182e-07
-1.06278e-07
-5.72433e-07
1.86787e-06
1.11541e-06
6.82674e-07
-1.44683e-06
-8.01025e-06
-3.30892e-05
-0.000120241
-0.000388155
-0.0011156
-0.00287309
-0.00285727
-0.00690709
-0.00748446
-0.0174657
-0.0277008
-0.0254101
-0.0254755
0.0102785
-0.0130605
-0.00823858
-0.00889317
-0.0247885
-0.0281565
-0.0258256
-0.0258489
-0.0253463
-0.0256744
-0.0295136
0.0104211
1.71561e-06
-0.00323735
0.0293672
-0.0071668
-0.0217691
-0.019339
-0.00562309
-0.00676471
-0.0166447
-0.0170052
-0.000627175
-0.0019668
0.00120164
0.000741717
0.000310388
0.000104341
2.96976e-05
2.1653e-05
4.84765e-06
4.7853e-06
9.26358e-07
1.4611e-06
-5.32469e-06
-2.41152e-05
-9.0594e-05
-0.000294307
-0.000843598
-0.00222164
0.00132492
0.00106699
0.00103843
0.000573294
0.00023997
7.952e-05
7.86234e-05
2.13913e-05
2.87886e-05
6.87531e-06
1.1087e-05
1.83363e-05
-3.72683e-05
8.4854e-05
-0.0001569
1.30961e-05
5.39526e-05
-2.92488e-05
2.93795e-06
-1.23514e-06
-2.57832e-06
-2.45595e-06
-6.46082e-06
-5.8315e-07
-2.55816e-07
6.1695e-08
-4.76519e-07
-3.46198e-07
-3.56379e-07
7.09801e-08
-5.56808e-07
3.00009e-07
-1.17099e-08
4.6428e-10
8.53931e-10
-1.30791e-08
6.43936e-08
-4.6637e-08
1.85194e-08
1.38842e-08
2.34954e-08
-5.67506e-08
1.75344e-08
6.11974e-08
5.24905e-08
6.54145e-08
8.93605e-09
3.60017e-08
4.16924e-10
1.47138e-08
-6.04555e-08
5.61774e-07
3.74729e-07
-5.30693e-08
-6.16652e-08
-6.43151e-08
3.67515e-07
3.88131e-07
1.81839e-07
1.0037e-08
2.77518e-09
-1.80727e-07
-1.46511e-07
-4.22398e-07
-1.35187e-06
-8.06125e-07
-5.11683e-06
-1.53206e-06
-1.00878e-05
-1.03648e-05
-3.24376e-05
-3.619e-05
-0.000120348
0.000220796
0.000337616
-0.00057614
0.00115053
-0.00183103
0.000161914
0.000763654
-0.000435155
5.02276e-05
-5.33029e-06
-1.58076e-05
-6.23656e-07
-3.89208e-05
1.37966e-05
-8.33245e-05
-9.91027e-05
-8.83267e-05
-0.000101169
-0.000160889
-0.000179535
-0.00012992
-8.88873e-05
-4.12175e-05
0.00153706
0.000107652
5.85538e-05
6.20625e-06
-3.95869e-06
-2.96509e-06
-1.20214e-06
-1.26317e-06
-5.35625e-07
-2.35013e-06
-3.05368e-06
-1.29938e-06
-5.75829e-06
-3.61701e-06
-1.73519e-06
1.22365e-06
2.85788e-07
-4.15736e-07
7.04617e-07
7.90912e-07
5.37028e-08
2.52107e-07
1.01195e-06
3.31141e-06
-8.88305e-06
9.32241e-06
2.19326e-06
1.26559e-06
7.18646e-05
2.00316e-05
5.66514e-05
0.000242145
0.000186472
0.000207839
-0.00245564
-0.00248795
-0.000314305
0.000393711
0.000531781
0.000162282
-0.00595448
-0.000170577
-8.65777e-05
-3.55558e-05
-0.000613106
-0.000141808
0.0153399
-0.000199905
-0.0174686
-0.000129836
-0.000627626
-0.0162954
-0.000728544
-0.000803771
-0.0115754
-0.0065902
-0.0103366
-0.0241304
0.00276172
0.00602007
0.000357781
-0.000351226
-0.000311103
-0.000541048
-6.54067e-06
-0.0138101
0.0166955
3.50759e-05
-0.00384423
0.00170747
0.00548208
1.01538e-05
-0.00698687
0.00439303
0.00443286
-1.97664e-05
-0.00717513
0.00469909
0.00396011
-5.98551e-05
-0.0066215
0.00166546
-0.0108301
0.00575872
0.00875828
-0.00979814
0.00272294
0.000950703
-0.000541712
-6.82685e-05
9.42324e-07
2.35289e-05
1.67532e-05
7.85671e-06
2.8414e-06
8.13923e-07
1.49365e-06
1.55331e-06
2.36584e-06
3.74959e-05
-7.3564e-05
7.86964e-06
0.000156478
-0.000292883
0.000265149
-0.00048837
0.000894096
-0.00154592
5.50711e-05
-0.000334138
4.73676e-05
0.000329489
2.39885e-05
-8.84456e-05
1.70519e-05
9.31181e-05
7.27601e-06
1.43931e-05
3.86606e-05
-1.12365e-05
-0.000119655
0.000603672
9.37683e-05
-0.000683524
-0.000144325
0.00119136
0.00157128
0.000279171
-0.00206833
-0.000382697
0.00388469
0.000589687
-0.00516563
-0.000862821
0.00656124
0.00841234
0.000805667
-0.0130674
-0.00111393
-0.0108751
-0.0128957
0.000892411
0.00816518
0.00675423
-0.0106697
-0.0010659
-0.000541537
0.000635258
0.000411975
0.000224208
9.92686e-05
3.62757e-05
1.10117e-05
6.52931e-06
2.04645e-05
4.7969e-06
1.34269e-06
1.06916e-05
1.36095e-06
0.000564303
-0.00100048
6.07276e-05
0.00174585
-0.00291689
0.0025916
-0.00414241
0.00644025
-0.00911107
-0.000138786
-0.00265766
0.000163328
0.00271153
8.5511e-05
-0.00107371
0.00010572
0.00100715
3.46894e-05
0.000121067
0.000414812
-6.20198e-05
-0.000843927
0.00494512
0.000407526
-0.00482028
-0.000864544
0.00693747
0.00839014
0.000821754
-0.0134981
-0.00106384
-0.00970767
-0.0176462
0.000367003
0.0105867
-0.00121858
0.00601226
-0.000449591
0.0036602
0.00425655
0.00193561
0.0012099
0.00674654
-0.00363726
2.50792e-05
0.00148089
0.000654728
0.000280025
0.000109259
3.67109e-05
1.04343e-05
2.49228e-06
5.10522e-07
6.69676e-07
-2.56164e-07
-4.65778e-07
-1.46386e-07
1.70438e-07
-4.84641e-07
1.8903e-06
-3.40868e-07
-3.33457e-07
-4.376e-07
-3.43626e-07
1.40558e-06
1.79711e-06
4.9682e-07
-2.02803e-06
-6.55928e-07
7.67082e-06
2.55654e-06
-1.04676e-05
-2.33975e-06
2.90449e-05
3.40814e-05
1.07579e-05
-5.08485e-05
-1.23783e-05
0.000114151
-2.77942e-05
-2.03501e-05
-6.36116e-05
-4.57248e-06
-1.36669e-05
7.82297e-06
7.83784e-06
1.44035e-06
-6.93561e-07
-9.38933e-07
-3.88642e-07
-4.90626e-07
-1.16379e-06
5.04494e-08
-7.54244e-08
1.4191e-07
1.13482e-07
8.62715e-06
2.34237e-06
-1.04237e-05
-2.35452e-06
2.58889e-05
3.56047e-05
1.09126e-05
-5.06065e-05
-1.06809e-05
0.000141235
3.89362e-05
-0.000204607
-4.40398e-05
0.00041178
0.000498614
0.000110544
-0.000875504
-0.000219613
-7.38931e-05
-0.000255267
0.000107962
0.000108952
3.12848e-05
-4.85553e-06
-1.27113e-05
-9.09134e-07
-2.13096e-06
1.49391e-06
-1.75322e-06
-1.79635e-06
3.83015e-06
8.37784e-06
-6.00766e-06
-1.53018e-05
1.89343e-05
3.89729e-06
1.00218e-05
-2.56715e-06
0.000166873
3.28408e-05
-0.000197942
-4.43367e-05
0.000382832
0.0005161
0.000114795
-0.000707899
-0.000141243
0.00151829
0.000281894
-0.00208441
-0.000388621
0.00316512
0.00394033
0.000558916
-0.00627841
0.000384899
-3.11102e-05
4.0026e-06
9.51063e-06
2.42149e-06
7.77835e-07
1.9794e-07
4.37014e-08
-5.49855e-07
-1.27234e-06
-3.13493e-06
-3.21438e-06
-1.29503e-06
-2.85261e-06
-3.1226e-06
7.11e-07
7.63726e-06
-4.04266e-06
-2.19815e-06
-1.39562e-06
-1.12511e-06
-4.53844e-07
-3.62968e-07
1.73671e-05
2.3818e-08
-1.72595e-05
3.81724e-05
1.10698e-07
-7.79184e-05
7.83709e-05
-3.7987e-05
3.72169e-05
-9.96217e-07
-8.08478e-05
7.5682e-05
-3.88569e-05
1.64509e-05
-3.87875e-07
-1.81275e-05
7.60787e-06
-7.94164e-06
7.98133e-06
-7.54687e-06
4.41838e-07
-1.62829e-05
1.8201e-05
5.06551e-07
-3.69586e-05
1.23683e-06
-7.50446e-05
8.11868e-05
1.49064e-06
-0.000157026
2.77448e-06
-0.000298293
0.000314474
-0.000304828
0.000306423
4.11998e-07
0.000159713
-0.000158956
-9.07494e-07
0.000158017
-1.80341e-06
-0.000313142
0.000300565
-0.000161623
-4.37791e-06
-9.16274e-05
5.22564e-05
-7.92355e-07
3.99314e-05
-1.4574e-06
-2.04939e-05
1.12156e-05
-3.4808e-07
8.05653e-06
-8.20315e-06
3.15308e-06
-1.39313e-07
-3.59312e-06
-1.10323e-07
3.38463e-06
5.42611e-09
-3.36184e-06
1.42711e-07
3.60532e-06
1.5111e-07
-3.11533e-06
8.22731e-06
-7.96804e-06
4.20766e-07
4.44146e-07
1.68224e-07
1.35965e-07
5.95116e-08
-4.42319e-07
5.37354e-07
-5.03649e-07
5.06038e-07
8.16307e-10
-9.15708e-10
-3.80493e-08
-5.35905e-07
4.46527e-07
-5.71284e-08
-3.41625e-08
1.37103e-07
-2.13851e-07
-1.88549e-08
-2.76553e-08
1.4888e-06
-1.61337e-06
1.62066e-06
-1.47627e-06
1.68534e-06
-1.40891e-06
5.67832e-08
6.50687e-08
-1.34578e-07
3.62861e-08
2.15123e-07
1.32147e-08
1.58713e-07
4.87611e-07
3.19891e-08
1.4653e-07
5.60979e-07
-1.66972e-06
-1.29669e-06
-0.000573234
1.08218e-06
-0.00102333
0.00102782
-0.00104297
0.00102099
-7.07187e-07
0.000576271
-0.000579945
-1.05202e-05
-0.000355947
0.000209357
-7.0793e-07
0.000171986
-0.000112948
-1.10163e-05
-5.19667e-05
8.42133e-05
-3.22867e-05
-0.000205542
0.000320582
-0.000101313
-0.000693656
0.00105354
-0.000253799
-0.00199064
0.00294862
-0.000577461
-0.00501508
-0.0010863
-0.000362358
-0.000432997
-0.000132744
-0.000170633
-5.12755e-05
-6.05787e-05
-1.69019e-05
-1.82882e-05
-4.48434e-06
-8.12673e-06
1.91795e-05
-2.67894e-05
-2.96715e-06
-1.10396e-05
4.02322e-06
-1.28442e-06
-8.97677e-07
-4.70743e-06
-9.65596e-07
-1.85106e-06
-7.45829e-07
2.15864e-06
-1.17177e-07
-4.01654e-06
-3.86889e-07
-3.99843e-07
5.47603e-08
-5.32332e-08
-7.15311e-08
-4.94802e-07
5.96741e-07
1.76543e-07
1.12849e-06
3.01839e-07
1.54194e-07
-8.77878e-08
-8.0582e-08
-1.24194e-06
1.42608e-06
-1.68223e-06
-5.2904e-08
-1.00294e-07
-1.36605e-07
-1.53984e-07
-3.84486e-07
4.70881e-07
2.5433e-06
1.12597e-05
4.12076e-05
4.25543e-06
-0.0011891
0.000715404
-0.000409335
0.000635601
-2.9842e-06
-2.23158e-06
-1.00052e-06
-3.62389e-07
-8.10943e-07
-8.85595e-07
2.48135e-06
4.44859e-06
-1.80338e-05
-0.00177962
8.50881e-06
-0.00295668
0.00293981
-0.00338657
0.00207011
2.86332e-05
0.0020027
-0.00127351
-8.47494e-05
-7.41888e-05
0.000300125
0.000236845
0.000568278
0.000720675
0.00222324
0.00333679
-0.00500899
0.000725224
-4.31161e-05
-6.78931e-05
0.000113382
-0.000156091
-0.000183743
-0.00136756
-0.000142382
-1.6316e-05
-0.00367416
0.000440446
4.11374e-05
6.81174e-06
4.44655e-05
0.000156619
0.000234654
6.71515e-05
1.58017e-05
5.44059e-07
7.89321e-07
5.41534e-06
7.93644e-06
1.09959e-05
4.26206e-06
-2.78102e-07
6.01373e-06
2.25576e-06
2.45017e-06
4.05844e-06
4.44794e-06
9.82477e-06
2.33216e-05
6.463e-06
2.37332e-06
1.43575e-06
-4.47893e-07
-1.90393e-06
-3.27965e-07
5.00384e-07
1.70225e-07
2.95523e-07
5.60198e-09
8.24479e-07
1.13017e-06
4.03295e-06
1.04451e-05
1.12947e-05
1.12238e-05
4.64953e-05
2.14966e-05
4.9744e-05
1.73898e-05
0.00458803
-0.00718841
0.000235027
0.0100164
0.000221427
3.12178e-05
0.000131245
0.0011253
-0.0023812
0.0116374
-0.0101934
0.0214115
0.00299216
0.0118702
-0.0112342
0.0101871
-0.00919717
0.00721803
0.00818649
-0.00988645
0.00212722
-0.0110048
0.00764976
0.00787423
0.0143144
-0.000884273
-0.000455276
-0.00182392
-0.000201858
-0.00631532
-0.000191218
-3.48482e-05
9.01046e-06
1.77231e-05
2.72296e-05
6.02852e-06
1.26363e-05
1.17499e-05
1.81164e-05
-2.69928e-06
2.09886e-05
-1.18428e-05
0.000223278
0.000116731
5.3371e-05
-0.00107543
0.00187534
0.000220255
-0.00198994
-0.000387837
0.0031633
0.00402434
0.000568191
-0.00509349
-0.000847808
-0.0062212
0.000412886
0.000225505
5.4435e-06
1.44859e-05
3.26493e-06
0.000136973
1.73822e-05
9.88567e-06
1.12696e-05
6.13311e-06
7.68888e-06
3.6823e-05
1.122e-05
2.843e-06
-1.299e-05
-4.44617e-06
2.86833e-05
-8.57239e-07
6.47362e-06
-2.33349e-06
-9.53244e-07
1.59011e-06
-4.56851e-07
-3.24968e-07
-7.1023e-07
1.446e-06
-2.00687e-05
-2.19483e-05
-6.19841e-05
3.48715e-05
-2.31096e-05
-3.3677e-05
6.90993e-05
0.000123936
-7.93964e-05
-0.000308246
0.000212565
4.31034e-05
0.000129213
-3.37815e-05
-0.000355245
-0.000226225
0.000566189
0.000961778
0.000376332
-8.0542e-05
-0.000255122
-7.35412e-05
-0.000250076
0.000326073
-0.000242565
-0.000888217
-0.000219828
0.00124927
0.00080337
-0.00060766
-0.00261481
-0.000487421
-0.00319601
0.00145193
0.000425428
0.00152282
-1.02577e-05
-0.00811993
-0.000307921
0.00202401
0.00334747
0.00470311
0.011332
0.0265035
0.014078
0.0207615
-0.00247454
-0.00128131
-0.00648972
0.00151864
0.002042
0.00379813
0.0137337
0.0201132
-0.00232016
-0.00113005
-0.000542569
0.00321002
-0.00252341
0.000774946
0.000320845
0.00139543
0.00175823
0.00336711
0.0125747
0.0203255
-0.00236678
-0.00112938
-0.000540617
-0.0025497
-0.000673903
-0.000280135
-9.73446e-05
8.6774e-05
2.33984e-05
5.14351e-06
2.20594e-06
1.19021e-05
0.000267829
0.000679058
0.00136352
-0.00132958
-0.00220187
0.00335332
0.0114635
0.0227167
-0.00359707
0.00563076
0.002449
0.0014698
-3.00082e-05
-0.000112324
-4.32927e-05
-9.49258e-06
8.3959e-07
1.96188e-06
1.09416e-06
4.48597e-07
2.56011e-08
5.9069e-09
-1.27746e-07
1.67503e-07
4.58851e-08
3.21935e-08
1.08009e-07
5.24882e-08
-3.84761e-08
-4.00616e-07
1.1812e-06
1.61504e-06
-3.96045e-05
3.90007e-05
1.59062e-06
6.26067e-07
7.61986e-07
2.25118e-07
1.44253e-06
1.38285e-06
1.41336e-06
2.89303e-07
2.7439e-07
-3.27946e-06
8.51112e-07
5.39605e-06
3.82358e-06
1.84827e-06
2.31464e-06
3.87625e-06
7.15037e-06
5.59586e-06
4.26917e-06
4.04455e-06
7.41718e-06
1.69708e-06
3.34744e-06
1.27147e-05
1.15354e-05
0.00292667
8.17924e-07
-0.00291847
0.00462253
-8.57713e-06
-0.00699457
0.00699222
-0.00461844
0.00469963
2.72741e-05
-0.00705604
0.00708926
-0.00463066
-1.27403e-05
0.00533984
-0.00341292
-0.00014589
-0.000123195
4.76577e-05
0.000123362
0.00027169
0.000116841
-0.00131557
-0.00282109
-0.0047152
-0.000196622
-0.00153095
-0.000737254
-0.000190372
0.000211361
0.000171067
4.33403e-05
1.635e-05
1.84754e-05
2.83205e-06
0.00179063
-0.00176689
0.00177226
-0.00178192
-1.26846e-06
-0.00291145
0.00296435
1.49365e-06
-0.00468874
-2.56462e-05
-0.00702126
0.007062
-1.28591e-05
-0.0102943
0.0101622
-0.0115989
3.83083e-05
-0.000104818
-3.4559e-05
5.05416e-06
1.06829e-05
5.94157e-05
0.000181077
0.000140013
0.00210575
-0.00239768
0.0477929
-0.00135434
-0.000174088
-0.000894088
-0.0105734
0.00265522
0.00631623
0.000461503
-0.000129701
-0.00500215
-0.000169788
7.8275e-05
0.000148658
1.18927e-05
1.60487e-05
0.000541783
0.000316601
-0.0163651
0.0152137
-0.000899191
-0.000519969
-0.00030734
0.00290303
-0.000962041
0.00234876
0.0039358
0.0077906
0.0146624
0.00281365
-0.00725166
0.00293645
-0.0109746
0.00233685
0.000889965
-0.00691156
0.000567332
-0.000107706
-4.3158e-06
-2.19229e-05
1.53715e-06
6.05283e-05
-7.00527e-05