/*--------------------------------*- C++ -*----------------------------------*\
| =========                 |                                                 |
| \\      /  F ield         | OpenFOAM: The Open Source CFD Toolbox           |
|  \\    /   O peration     | Version:  2306                                  |
|   \\  /    A nd           | Website:  www.openfoam.com                      |
|    \\/     M anipulation  |                                                 |
\*---------------------------------------------------------------------------*/
FoamFile
{
    version     2.0;
    format      ascii;
    arch        "LSB;label=32;scalar=64";
    class       volScalarField;
    location    "0.5";
    object      gradTz;
}
// * * * * * * * * * * * * * * * * * * * * * * * * * * * * * * * * * * * * * //

dimensions      [0 -1 0 1 0 0 0];

internalField   nonuniform List<scalar> 
5322
(
-0.0534622
-0.0420775
-0.0259862
-0.0278532
-0.0132865
-0.00536845
-0.00184332
-0.000541818
-0.000138107
-3.14763e-05
-7.18264e-06
-2.87775e-06
-1.19724e-06
-2.19453e-06
-2.77265e-06
-3.64828e-06
-3.88741e-06
-4.09893e-06
-8.66751e-06
-1.87846e-05
-4.50297e-05
-9.27078e-05
-0.00020694
-0.000398579
-0.000818679
-0.00144824
-0.00273926
-0.00452537
-0.00783262
-0.0118614
-0.0187766
-0.0264482
-0.0379208
-0.0480605
-0.0591053
-0.0569746
-0.0705617
-0.0669801
-0.0688552
-0.0529972
-0.0635551
-0.0656105
-0.0518516
-0.0655433
-0.0648818
-0.0528459
-0.0665643
-0.063093
-0.0524926
-0.066136
-0.0775559
-0.0488377
-0.0706502
-0.0577095
-0.0477074
-0.0542364
-0.0713305
-0.0529307
-0.0471614
-0.0538015
-0.071887
-0.0536051
-0.0470903
-0.0525132
-0.0719687
-0.0556883
-0.0470511
-0.0501035
-0.0711079
-0.0599719
-0.0395329
-0.0537549
-0.0510994
-0.0502859
-0.0506552
-0.0504127
-0.0503926
-0.050327
-0.0514314
-0.0497235
-0.0500688
-0.0436613
-0.045363
-0.0539226
-0.03185
-0.0461717
-0.0758683
-0.053812
-0.0523583
-0.043123
-0.0515811
-0.025572
-0.0268175
-0.0268234
-0.0385395
-0.0437594
-0.0381343
-0.0442273
-0.0769502
-0.0520226
-0.052941
-0.0435769
-0.0446221
-0.0382268
-0.0419486
-0.0372494
-0.0387087
-0.0282619
-0.0134631
-0.00544948
-0.00187757
-0.000554722
-0.000141835
-3.21118e-05
-7.82769e-06
-3.30757e-06
-2.85772e-06
-2.62656e-06
-5.89255e-06
-2.54807e-06
-1.84139e-06
-1.65351e-06
-1.60732e-06
-1.87485e-06
-1.53872e-06
-1.86216e-06
-1.59559e-06
-1.6947e-06
-1.97567e-06
-1.71435e-06
-1.76393e-06
-2.05681e-06
-1.74922e-06
-1.72161e-06
-1.98344e-06
-1.66102e-06
-1.61527e-06
-1.89238e-06
-1.55159e-06
-1.882e-06
-1.61699e-06
-1.86277e-06
-2.56619e-06
-2.616e-06
-2.87577e-06
-5.93153e-06
-2.63706e-06
-2.63585e-06
-2.88587e-06
-2.99605e-06
-6.38386e-06
-2.71372e-06
-2.70805e-06
-2.9827e-06
-2.8888e-06
-6.36606e-06
-2.62764e-06
-2.59206e-06
-1.84351e-06
-2.78427e-06
-3.65193e-06
-3.91824e-06
-1.02758e-05
-2.15676e-05
-8.39314e-06
-8.77525e-06
-4.1349e-06
-3.83158e-06
-1.62168e-06
-2.03562e-06
-2.20498e-06
-2.16089e-06
-4.03393e-06
-3.06931e-06
-3.95889e-06
-1.04734e-05
-1.03262e-05
-2.15902e-05
-1.17826e-05
-2.18681e-05
-4.91015e-05
-4.89677e-05
-0.000101607
-5.69357e-05
-0.000102626
-0.000215806
-0.000215577
-0.000422798
-0.000246544
-0.000425493
-0.000833587
-0.000833208
-0.00152345
-0.000926422
-0.00153032
-0.00277948
-0.00277999
-0.004705
-0.00298917
-0.00472183
-0.00792664
-0.00793407
-0.0123559
-0.00821293
-0.0123928
-0.0191259
-0.019164
-0.0273432
-0.0189768
-0.0274293
-0.0383189
-0.0383465
-0.0441957
-0.0768909
-0.0519734
-0.0518514
-0.0436757
-0.0575408
-0.0574578
-0.0268247
-0.0269037
-0.038561
-0.0441328
-0.0380053
-0.0451592
-0.0771281
-0.052407
-0.0517269
-0.0438318
-0.0439951
-0.0383464
-0.0380888
-0.0375841
-0.0282112
-0.0134907
-0.00547307
-0.0018876
-0.000557852
-0.000142613
-3.22733e-05
-7.8633e-06
-3.32402e-06
-2.89902e-06
-2.99669e-06
-2.99493e-06
-2.88927e-06
-6.38999e-06
-2.72355e-06
-2.64295e-06
-2.05639e-06
-1.79364e-06
-3.90503e-06
-2.724e-06
-6.40164e-06
-2.65184e-06
-3.77789e-06
-1.71421e-06
-2.00427e-06
-1.74294e-06
-2.06009e-06
-1.79475e-06
-2.0791e-06
-1.25411e-06
-2.27402e-06
-4.00154e-06
-3.99738e-06
-4.07301e-06
-1.04358e-05
-2.17367e-05
-4.93653e-05
-0.000102041
-0.000216828
-0.000423744
-0.000836507
-0.0015249
-0.00278749
-0.00470555
-0.00795077
-0.0123492
-0.0192035
-0.0273058
-0.0386498
-0.0437347
-0.0770114
-0.0444509
-0.0381343
-0.0382351
-0.0275156
-0.0189937
-0.0191294
-0.0124207
-0.00822193
-0.00793727
-0.00473089
-0.00299354
-0.00278563
-0.00153397
-0.00092852
-0.000836443
-0.000427045
-0.000247439
-0.000216983
-0.000103178
-5.72495e-05
-4.95034e-05
-2.20288e-05
-1.18722e-05
-1.05828e-05
-5.69832e-06
-1.05827e-05
-2.20449e-05
-1.1888e-05
-1.045e-05
-4.07788e-06
-3.1144e-06
-2.19242e-06
-1.2158e-06
-2.23832e-06
-3.69739e-06
-1.02175e-05
-2.15902e-05
-4.858e-05
-0.000102448
-0.000216074
-0.000426587
-0.000840996
-0.00153681
-0.00281806
-0.00474385
-0.00807951
-0.0124131
-0.019612
-0.0271842
-0.0391286
-0.0441013
-0.0765587
-0.0473559
-0.037359
-0.0427098
-0.0302364
-0.0186373
-0.0212166
-0.0134354
-0.00804067
-0.00869712
-0.00504222
-0.00291127
-0.00302237
-0.00161506
-0.000897692
-0.000899187
-0.000443072
-0.000237207
-0.000229456
-0.000104617
-5.41646e-05
-5.09015e-05
-2.16336e-05
-1.09496e-05
-1.03151e-05
-3.93275e-06
-2.81618e-06
-2.0548e-06
-1.6398e-06
-1.81424e-06
-3.79735e-06
-1.61802e-06
-1.8737e-06
-3.20732e-06
-3.41486e-06
-9.61597e-06
-2.10571e-05
-2.06283e-05
-2.15295e-05
-1.12742e-05
-9.88379e-06
-1.01756e-05
-3.73157e-06
-2.88027e-06
-3.84447e-06
-5.16003e-06
-5.49775e-06
-3.28346e-06
-1.71431e-06
-1.76392e-06
-3.7566e-06
-6.29841e-06
-5.51646e-06
-4.02112e-06
-3.99223e-06
-1.04815e-05
-2.19098e-05
-2.62644e-05
-4.91562e-05
-0.000102817
-0.000216019
-0.000426335
-0.000479472
-0.000834965
-0.0015328
-0.00278717
-0.00472549
-0.00499907
-0.00795557
-0.0123843
-0.0191893
-0.0273765
-0.0268625
-0.0267815
-0.0127793
-0.0128264
-0.00518844
-0.00503189
-0.00803693
-0.0124432
-0.00827515
-0.0126203
-0.0193253
-0.0194476
-0.0272927
-0.0191013
-0.0281148
-0.0382827
-0.0441403
-0.0440423
-0.0800321
-0.0544448
-0.0510627
-0.0458792
-0.057271
-0.0258854
-0.0241248
-0.0304307
-0.0163581
-0.0203968
-0.0129556
-0.00677057
-0.0082314
-0.00472746
-0.0024033
-0.00284143
-0.00149864
-0.000733486
-0.000835147
-0.000403575
-0.000190668
-0.000210052
-9.32055e-05
-4.25723e-05
-4.49607e-05
-1.86068e-05
-8.31483e-06
-8.64499e-06
-4.21739e-06
-3.8753e-06
-7.96689e-06
-9.93788e-06
-1.64353e-05
-4.12725e-05
-4.68617e-05
-0.000101887
-0.000214483
-0.00043137
-0.000418091
-0.00042629
-0.000244075
-0.000215104
-0.000214391
-0.000102229
-5.57168e-05
-9.89275e-05
-0.00011559
-0.000124671
-2.73415e-05
-2.07539e-05
-2.95726e-05
-2.25628e-05
-2.06169e-05
-2.6212e-05
-3.00494e-05
-6.74838e-06
-2.62218e-06
-1.12261e-06
-2.38366e-06
-1.4835e-06
-3.29555e-06
-5.52558e-06
-1.33534e-05
-6.38048e-05
-0.000124153
-0.000135264
-0.000543844
-0.000516033
-0.000277298
-0.000192404
-0.000231445
-0.000369357
-0.000761299
-0.000851543
-0.00157106
-0.00288859
-0.00489497
-0.00475404
-0.00475207
-0.00300037
-0.00281303
-0.00280264
-0.00153808
-0.000924712
-0.00152424
-0.00167983
-0.00170052
-0.000496048
-0.000404983
-0.000532647
-0.000465682
-0.000432215
-0.000133394
-0.000109068
-0.000100604
-8.44467e-05
-5.1491e-05
-9.83027e-05
-6.66299e-05
-3.1939e-05
-7.30847e-06
-2.92858e-06
-3.4327e-06
-2.61162e-06
-6.55594e-06
-4.11248e-06
-1.42475e-05
-1.47381e-05
-2.1774e-05
-2.60788e-05
-4.94614e-05
-4.95478e-05
-0.000103228
-5.73726e-05
-0.000102403
-0.000118921
-0.000217413
-0.000217422
-0.000427127
-0.000248166
-0.000426116
-0.000480782
-0.00083917
-0.000839145
-0.00153343
-0.000931769
-0.00153601
-0.00168046
-0.00279643
-0.00279806
-0.00472424
-0.00300467
-0.00474722
-0.0050251
-0.00796696
-0.00798593
-0.0123735
-0.00824946
-0.0124773
-0.0127387
-0.0191668
-0.0192799
-0.0273123
-0.0190226
-0.0275971
-0.026904
-0.0382512
-0.0385804
-0.0441758
-0.0380737
-0.0442363
-0.0441445
-0.0522896
-0.0505885
-0.0433264
-0.0561861
-0.0334659
-0.0410013
-0.0276442
-0.0262909
-0.0287675
-0.0276439
-0.0275794
-0.0305707
-0.0310165
-0.022371
-0.0146343
-0.0145615
-0.00568995
-0.00561198
-0.00338086
-0.00183667
-0.00189589
-0.00188233
-0.000545283
-0.000137876
-3.13818e-05
-7.17157e-06
-2.89132e-06
-1.19581e-06
-2.18839e-06
-1.89033e-06
-3.38988e-06
-3.60555e-06
-2.18161e-06
-2.26399e-06
-3.08165e-06
-2.03885e-06
-2.55553e-06
-1.97855e-06
-1.78784e-06
-2.37418e-06
-1.85206e-06
-2.55724e-06
-1.85287e-06
-2.0649e-06
-3.46806e-06
-2.98978e-06
-3.12159e-06
-3.11856e-06
-2.97971e-06
-2.97604e-06
-2.84201e-06
-7.05749e-06
-3.1157e-06
-2.97692e-06
-2.97705e-06
-7.0718e-06
-3.11868e-06
-3.62211e-06
-8.49441e-06
-8.15821e-06
-6.48484e-06
-6.30278e-06
-5.53201e-06
-2.95457e-05
-0.000132767
-0.000522971
-0.00177903
-0.00518016
-0.00498301
-0.00431405
-0.00545735
-0.0050001
-0.00470438
-0.00434531
-0.00750325
-0.00842775
-0.0128637
-0.0211549
-0.0199384
-0.0183854
-0.0121577
-0.011965
-0.00825389
-0.00945467
-0.00941976
-0.00559013
-0.0141066
-0.0298319
-0.0526536
-0.0532001
-0.0547454
-0.0404922
-0.0351927
-0.0394004
-0.0478474
-0.0443183
-0.0532679
-0.0827023
-0.0743442
-0.0670782
-0.0699427
-0.0424369
-0.0554281
-0.0578042
-0.0707644
-0.0432231
-0.0568095
-0.0578838
-0.0710837
-0.0434395
-0.0561368
-0.0586749
-0.0711221
-0.0448138
-0.0559931
-0.0631552
-0.0892602
-0.0763267
-0.0748104
-0.0957508
-0.0950382
-0.0735099
-0.0517872
-0.0706597
-0.0577599
-0.0476891
-0.0541364
-0.0632286
-0.052529
-0.0660417
-0.0776002
-0.0488299
-0.0500986
-0.0436844
-0.0453982
-0.0539365
-0.0393422
-0.0262124
-0.0284189
-0.019424
-0.0123276
-0.0123681
-0.00797329
-0.00481533
-0.00460812
-0.00277758
-0.00160529
-0.00147012
-0.000824849
-0.000455501
-0.000401706
-0.000209327
-0.000110757
-9.39666e-05
-4.56375e-05
-2.27407e-05
-1.90882e-05
-8.81122e-06
-4.33043e-06
-3.84203e-06
-1.80777e-06
-1.63231e-06
-2.0464e-06
-3.93606e-06
-1.03466e-05
-2.16576e-05
-1.09334e-05
-1.02212e-05
-3.68795e-06
-2.80932e-06
-2.23095e-06
-1.21309e-06
-2.18574e-06
-2.27368e-06
-3.11081e-06
-3.64031e-06
-3.08644e-06
-7.53936e-06
-3.24619e-05
-0.00014118
-0.000140551
-0.000555755
-0.0019156
-0.00183771
-0.00162084
-0.00152029
-0.00137854
-0.002597
-0.00292163
-0.000891135
-0.00104344
-0.00104767
-0.000838718
-0.000835148
-0.00048002
-0.000424813
-0.000835899
-0.000929826
-0.00153278
-0.00278856
-0.00300067
-0.00473885
-0.00794852
-0.00823784
-0.0124401
-0.019139
-0.0189906
-0.0274346
-0.0214496
-0.0220274
-0.0410304
-0.04085
-0.0298772
-0.0140241
-0.0055618
-0.00187901
-0.00054667
-0.000139018
-3.18569e-05
-7.36547e-06
-3.01015e-06
-1.24025e-06
-2.24309e-06
-3.5757e-06
-2.87715e-06
-7.18567e-06
-3.15038e-05
-0.000138678
-0.000547688
-0.00188407
-0.00557515
-0.0140622
-0.0299079
-0.0535408
-0.053048
-0.0506502
-0.103731
-0.0742987
-0.0711956
-0.057897
-0.0710347
-0.0434719
-0.043589
-0.046812
-0.0723969
-0.0444259
-0.0451058
-0.0459952
-0.0727778
-0.0446364
-0.0453139
-0.0458167
-0.0728735
-0.0462811
-0.0471089
-0.0527971
-0.0936111
-0.0771355
-0.075185
-0.0755171
-0.0748605
-0.0561029
-0.0503623
-0.053091
-0.0932875
-0.0524092
-0.0568483
-0.0718384
-0.0536586
-0.0470496
-0.0523721
-0.0659318
-0.0518174
-0.0651714
-0.0652126
-0.0529771
-0.0663293
-0.0530769
-0.0471454
-0.0536047
-0.0504731
-0.0502803
-0.050706
-0.0500978
-0.047144
-0.0505979
-0.0550721
-0.0719974
-0.0638889
-0.0534713
-0.0682145
-0.0601554
-0.0535316
-0.0831988
-0.0435722
-0.0526928
-0.0411107
-0.0440212
-0.0340984
-0.0238486
-0.0244388
-0.0170253
-0.0114595
-0.01093
-0.00713982
-0.00442395
-0.00417484
-0.00249135
-0.00150788
-0.00133096
-0.000748668
-0.000414343
-0.000365554
-0.000188796
-0.000101926
-8.41905e-05
-4.13849e-05
-2.04639e-05
-1.67108e-05
-7.95797e-06
-3.89751e-06
-3.21198e-06
-1.46542e-06
-2.34131e-06
-1.86452e-06
-1.10665e-06
-1.86654e-06
-1.59308e-06
-1.5271e-06
-1.84705e-06
-1.58949e-06
-1.68669e-06
-1.97062e-06
-1.71145e-06
-1.76448e-06
-2.05495e-06
-1.75058e-06
-1.71503e-06
-1.9778e-06
-1.19824e-06
-2.17868e-06
-3.07991e-06
-3.9824e-06
-5.63306e-06
-1.04582e-05
-1.17574e-05
-2.18376e-05
-2.15271e-05
-2.57664e-05
-4.79595e-05
-5.34597e-05
-0.000101074
-0.000103289
-9.71664e-05
-0.000226063
-0.000188004
-0.000435232
-0.000397178
-0.000880093
-0.000715371
-0.00157912
-0.00139128
-0.00294027
-0.00233092
-0.0048894
-0.00414599
-0.00834637
-0.00642088
-0.012864
-0.0104682
-0.0200731
-0.014996
-0.0286506
-0.0223148
-0.0402767
-0.029374
-0.0345345
-0.0381024
-0.0372569
-0.0264141
-0.0275538
-0.0179745
-0.0191659
-0.0186245
-0.0123747
-0.0124469
-0.00773542
-0.00795054
-0.0077694
-0.00489515
-0.00474423
-0.00281758
-0.0027932
-0.00274103
-0.00163885
-0.00153616
-0.000866284
-0.000831017
-0.00082289
-0.000467111
-0.000423435
-0.000228001
-0.000211851
-0.000212045
-0.000114288
-0.000100588
-5.10827e-05
-4.65966e-05
-4.76362e-05
-2.45856e-05
-2.08264e-05
-9.95351e-06
-9.59452e-06
-9.78556e-06
-5.1198e-06
-3.3745e-06
-1.8544e-06
-1.60373e-06
-2.02321e-06
-1.61703e-06
-1.7886e-06
-3.78631e-06
-4.24987e-06
-6.49896e-06
-2.59822e-06
-3.39917e-06
-3.58615e-06
-2.23524e-06
-3.06802e-06
-3.95927e-06
-4.02261e-06
-5.45956e-06
-1.00925e-05
-1.08283e-05
-2.14299e-05
-2.0655e-05
-5.03319e-05
-4.22272e-05
-6.60633e-05
-1.41764e-05
-1.46268e-05
-1.03255e-05
-6.23634e-06
-3.73328e-06
-2.61899e-06
-6.35095e-06
-2.70285e-06
-2.03174e-06
-2.54137e-06
-2.04946e-06
-1.96559e-06
-2.05649e-06
-1.82828e-06
-3.88023e-06
-6.45521e-06
-5.6297e-06
-2.98962e-05
-2.95385e-05
-2.60019e-05
-4.82768e-05
-4.818e-05
-2.47585e-05
-6.58655e-05
-1.42171e-05
-1.46754e-05
-1.03879e-05
-1.18212e-05
-2.16843e-05
-4.91022e-05
-5.70968e-05
-0.000102038
-0.00021621
-0.000247323
-0.000291184
-0.00013276
-0.000118599
-0.000523297
-0.00178121
-0.00168057
-0.00177689
-0.000523502
-0.000133385
-0.000119043
-0.000131802
-2.93307e-05
-2.58267e-05
-2.13655e-05
-4.81736e-05
-5.06021e-05
-0.00010389
-0.000227212
-0.000437827
-0.000189114
-0.000208967
-9.77567e-05
-9.37224e-05
-4.25914e-05
-4.55141e-05
-2.08084e-05
-1.90103e-05
-2.26592e-05
-2.07955e-05
-4.17989e-05
-5.1597e-05
-8.52587e-05
-0.000101281
-0.000115156
-0.000213272
-0.000241456
-0.000413133
-0.000421922
-0.000475003
-0.000825885
-0.000917733
-0.00150885
-0.00151323
-0.00164891
-0.0027339
-0.002943
-0.00463244
-0.004636
-0.00488963
-0.00777475
-0.00778267
-0.0121062
-0.0186522
-0.0180253
-0.0268242
-0.0369262
-0.0346571
-0.0388775
-0.028346
-0.0134593
-0.00543885
-0.00187249
-0.000553075
-0.000141407
-3.20215e-05
-7.80779e-06
-3.29856e-06
-2.87922e-06
-2.97387e-06
-2.98625e-06
-2.70654e-06
-3.87023e-06
-6.43991e-06
-6.27452e-06
-3.73903e-06
-2.625e-06
-2.03227e-06
-2.54993e-06
-1.75622e-06
-1.70033e-06
-1.76385e-06
-3.74395e-06
-6.25293e-06
-5.46669e-06
-1.01349e-05
-1.08781e-05
-1.37103e-05
-1.43085e-05
-8.14518e-06
-3.45948e-06
-2.98559e-06
-2.98157e-06
-7.06701e-06
-2.84934e-06
-2.87043e-06
-6.36127e-06
-1.42978e-05
-2.93738e-05
-2.71886e-05
-5.47061e-06
-3.25718e-06
-9.71946e-06
-5.1819e-06
-9.86513e-06
-1.1239e-05
-2.06077e-05
-2.14564e-05
-2.59582e-05
-4.89489e-05
-5.68062e-05
-0.000102339
-0.000118553
-0.000214628
-0.000244881
-0.000422086
-0.000419983
-0.000473159
-0.000824042
-0.000879966
-0.00150757
-0.0027426
-0.0028389
-0.00463229
-0.00510931
-0.001755
-0.0005164
-0.000131224
-2.92271e-05
-1.42655e-05
-8.12431e-06
-3.45144e-06
-1.51189e-05
-3.28742e-05
-1.43571e-05
-1.37934e-05
-1.4374e-05
-1.51547e-05
-3.29136e-05
-3.00047e-05
-2.64986e-05
-0.000133725
-0.000119769
-0.000524259
-0.000481372
-0.00055373
-0.00189962
-0.00561621
-0.00568472
-0.014356
-0.0138024
-0.0128727
-0.0286618
-0.0477928
-0.0439084
-0.0656325
-0.0524872
-0.106164
-0.0729286
-0.0719574
-0.0628585
-0.0827181
-0.077698
-0.0793538
-0.0772977
-0.105616
-0.072137
-0.0711161
-0.0579505
-0.0707155
-0.0433138
-0.0443263
-0.0474553
-0.0720217
-0.0442259
-0.045982
-0.0467905
-0.0724049
-0.0444469
-0.0460568
-0.046728
-0.0724878
-0.0461866
-0.0475311
-0.0615678
-0.0387146
-0.0268242
-0.0268331
-0.0274301
-0.0292105
-0.0184038
-0.0207379
-0.0156117
-0.0186848
-0.0198437
-0.0125029
-0.0186114
-0.0272679
-0.0267251
-0.036843
-0.0405201
-0.0273802
-0.0261142
-0.0248092
-0.0345972
-0.0362458
-0.049716
-0.0514845
-0.0502607
-0.0370181
-0.0262727
-0.0365564
-0.0354537
-0.0366944
-0.0261723
-0.0365275
-0.0354956
-0.0367618
-0.0262728
-0.0366408
-0.0511426
-0.0500843
-0.0473637
-0.0472534
-0.0572576
-0.0726867
-0.0562033
-0.0762096
-0.0771384
-0.0740032
-0.0568528
-0.0524374
-0.0528416
-0.0928915
-0.0532948
-0.0597067
-0.0906504
-0.078322
-0.0748027
-0.0562974
-0.0526917
-0.0621999
-0.0474533
-0.047059
-0.0610204
-0.0378111
-0.0282983
-0.0282657
-0.0134654
-0.00545081
-0.00187819
-0.000555001
-0.000141936
-3.21433e-05
-7.83804e-06
-3.31288e-06
-2.85373e-06
-2.98934e-06
-2.81725e-06
-1.96904e-06
-1.78189e-06
-2.0029e-06
-1.70944e-06
-1.85348e-06
-2.60704e-06
-2.55323e-06
-2.62414e-06
-1.84101e-06
-1.60358e-06
-1.8765e-06
-1.5392e-06
-3.26435e-06
-1.60862e-06
-1.86934e-06
-1.70447e-06
-2.36597e-06
-1.7492e-06
-3.73515e-06
-2.62155e-06
-2.70042e-06
-6.35631e-06
-2.97961e-06
-2.9782e-06
-2.70144e-06
-2.61036e-06
-2.01838e-06
-1.73075e-06
-2.04728e-06
-1.73381e-06
-3.85785e-06
-6.4309e-06
-6.26862e-06
-5.48273e-06
-4.15972e-06
-6.63178e-06
-2.6354e-06
-3.45834e-06
-2.93441e-06
-7.33333e-06
-3.20358e-05
-0.000140447
-0.000552902
-0.00189769
-0.0056066
-0.0141239
-0.0141509
-0.0301038
-0.0303377
-0.0531984
-0.0512384
-0.0516385
-0.0518793
-0.0770675
-0.0593817
-0.0719642
-0.0742462
-0.103456
-0.0504589
-0.0518518
-0.0519464
-0.0515766
-0.0529459
-0.0537604
-0.0758803
-0.0447488
-0.0461745
-0.0431438
-0.0523578
-0.0662304
-0.0457842
-0.0277279
-0.0300035
-0.0536085
-0.0533567
-0.040765
-0.0414238
-0.022482
-0.00954508
-0.00342784
-0.00106127
-0.000284431
-0.000281665
-6.70845e-05
-6.71012e-05
-1.47663e-05
-1.43734e-05
-2.98882e-05
-0.000133537
-0.000527688
-0.00180461
-0.0053021
-0.0132744
-0.0215954
-0.0213152
-0.0214948
-0.00923549
-0.00335086
-0.00104305
-0.00103873
-0.000281104
-0.000282857
-6.68009e-05
-4.8479e-05
-5.08675e-05
-0.000104172
-0.000228055
-0.000438615
-0.00023532
-0.000214795
-0.000101984
-5.3913e-05
-6.78668e-05
-2.94325e-05
-2.60476e-05
-2.15238e-05
-6.28505e-06
-3.76411e-06
-1.74121e-06
-5.53135e-06
-1.4346e-05
-1.37339e-05
-5.90408e-06
-2.8627e-06
-2.87826e-06
-2.54917e-06
-2.0451e-06
-2.14667e-06
-2.82015e-06
-2.86315e-06
-7.08371e-06
-2.81487e-06
-2.54466e-06
-2.03668e-06
-2.36079e-06
-2.81248e-06
-1.95715e-06
-1.75853e-06
-1.82326e-06
-1.68922e-06
-1.74069e-06
-1.80613e-06
-2.54494e-06
-2.35276e-06
-2.84769e-06
-2.61551e-06
-2.53148e-06
-5.86856e-06
-2.58715e-06
-1.83427e-06
-1.3657e-05
-1.42707e-05
-8.12293e-06
-3.4489e-06
-1.51275e-05
-1.4296e-05
-2.93619e-05
-2.72398e-05
-2.09187e-05
-0.000123793
-9.81177e-05
-0.000132112
-0.00011854
-0.000519944
-0.000478183
-0.000424011
-0.000833004
-0.000889132
-0.00159202
-0.00297909
-0.00494381
-0.00287443
-0.00278238
-0.0015264
-0.00088817
-0.00106559
-0.000490847
-0.000400836
-0.00167694
-0.00140658
-0.00176813
-0.00166864
-0.00177812
-0.00167718
-0.00516984
-0.0050073
-0.012783
-0.0128065
-0.0123816
-0.0111485
-0.0129919
-0.00919799
-0.00340768
-0.00107527
-0.000291267
-6.8273e-05
-6.92077e-05
-7.01864e-05
-0.000144014
-0.000291314
-0.000291078
-0.000560601
-0.00106558
-0.00105476
-0.000560348
-0.000143891
-6.9131e-05
-6.88979e-05
-7.00034e-05
-3.36099e-05
-0.000145445
-0.000563455
-0.00189508
-0.00189119
-0.00335333
-0.00329509
-0.00547505
-0.00900445
-0.00880108
-0.0134937
-0.0204424
-0.0209418
-0.0267878
-0.0573208
-0.04409
-0.0610943
-0.0387388
-0.0375766
-0.0562979
-0.0457625
-0.0601163
-0.0714815
-0.0793141
-0.0770803
-0.104798
-0.0718601
-0.0595073
-0.0559861
-0.0776267
-0.0785967
-0.0535723
-0.0598425
-0.0723166
-0.0785579
-0.0735234
-0.0718899
-0.104195
-0.0774139
-0.079568
-0.079522
-0.0797296
-0.0796171
-0.0771223
-0.0777688
-0.0702168
-0.0586802
-0.0711163
-0.0448229
-0.0434741
-0.0467464
-0.0725083
-0.0461427
-0.045015
-0.0458369
-0.0729215
-0.0462027
-0.0452379
-0.0456397
-0.0729622
-0.0473865
-0.0530092
-0.0932651
-0.079494
-0.0742694
-0.0571075
-0.0523918
-0.0610572
-0.0378094
-0.0282965
-0.0134788
-0.00545818
-0.00188353
-0.00055808
-0.000143344
-3.27677e-05
-6.87581e-05
-6.77785e-05
-5.37373e-05
-0.000101452
-0.000213881
-0.000234862
-0.000422538
-0.000830721
-0.000886904
-0.00159048
-0.0029742
-0.0049411
-0.00235692
-0.00277721
-0.00140417
-0.00146908
-0.000721888
-0.000824299
-0.000399786
-0.000400967
-0.00045476
-0.000422967
-0.000751193
-0.000873654
-0.00134652
-0.00154432
-0.00164824
-0.00275246
-0.0029364
-0.0046366
-0.00465125
-0.00490784
-0.00772192
-0.00804253
-0.0121037
-0.0123122
-0.0184903
-0.0185581
-0.0267764
-0.0268699
-0.0262507
-0.0368354
-0.0355178
-0.0366594
-0.0366689
-0.0262043
-0.0267863
-0.0268226
-0.0366003
-0.0354471
-0.0376973
-0.026696
-0.0126873
-0.00512534
-0.00176155
-0.00051844
-0.000131779
-0.000123604
-0.000490301
-0.000519201
-0.000476416
-0.0017667
-0.00166492
-0.00152299
-0.00277759
-0.00287366
-0.00470572
-0.00793496
-0.00851983
-0.0130688
-0.020723
-0.0292209
-0.0156098
-0.0194381
-0.0107626
-0.0123693
-0.00656695
-0.00797594
-0.00421194
-0.00460645
-0.00481086
-0.00452179
-0.00722675
-0.00789482
-0.0112925
-0.0125053
-0.0125036
-0.0186132
-0.0185841
-0.0272453
-0.0267574
-0.0262742
-0.0369866
-0.0354581
-0.0368552
-0.0404965
-0.0267276
-0.0273739
-0.0260884
-0.0345728
-0.0362209
-0.0379743
-0.0289458
-0.0247822
-0.0261935
-0.0284222
-0.03937
-0.0231314
-0.0276661
-0.0132324
-0.0052802
-0.00179505
-0.000524035
-0.000132309
-2.95329e-05
-6.54133e-06
-2.61312e-06
-1.62789e-06
-1.80526e-06
-1.48323e-06
-1.87791e-06
-3.26478e-06
-3.41236e-06
-2.36755e-06
-1.11521e-06
-1.87923e-06
-2.87473e-06
-3.83828e-06
-3.72414e-06
-5.52012e-06
-1.03752e-05
-1.17923e-05
-2.18585e-05
-2.62309e-05
-4.89714e-05
-5.67105e-05
-0.000102199
-0.000101168
-0.000117394
-0.000212733
-0.000233457
-0.000419845
-0.000279436
-0.000277463
-0.000214485
-6.651e-05
-4.8869e-05
-3.1925e-05
-3.15118e-05
-7.20753e-06
-2.9035e-06
-3.41932e-06
-2.18522e-06
-2.64433e-06
-3.34342e-06
-5.61651e-06
-3.96798e-06
-8.0594e-06
-1.0076e-05
-2.10042e-05
-2.48318e-05
-4.79833e-05
-5.53585e-05
-9.83531e-05
-0.000101588
-0.000117974
-0.000214768
-0.000245204
-0.00042287
-0.000475415
-0.000825358
-0.000916755
-0.00151036
-0.00150799
-0.00164593
-0.00273362
-0.0031927
-0.00101483
-0.000825145
-0.000539953
-0.000537975
-0.000137521
-6.59735e-05
-4.81141e-05
-1.43429e-05
-1.01731e-05
-6.83201e-06
-1.36022e-05
-1.69646e-05
-2.66147e-05
-3.0343e-05
-6.42955e-05
-4.70961e-05
-0.000124445
-0.000102067
-0.000190906
-0.00022935
-0.000426118
-0.000469875
-0.000826938
-0.000910209
-0.00149683
-0.00151459
-0.00165215
-0.00273487
-0.00294568
-0.00463964
-0.00489035
-0.00772636
-0.0080402
-0.0120921
-0.0121228
-0.012325
-0.0184903
-0.0126664
-0.00894243
-0.0033246
-0.00328531
-0.00188387
-0.000558121
-0.000143331
-3.2763e-05
-7.00324e-05
-6.90388e-05
-0.000290508
-0.000289056
-0.000131769
-0.000518534
-0.00176211
-0.00337419
-0.00334516
-0.00106258
-0.00105246
-0.000290404
-0.000289312
-6.87434e-05
-5.6698e-05
-4.88521e-05
-2.61042e-05
-4.87541e-05
-0.000102104
-0.000118196
-0.000213844
-0.00021417
-0.000102103
-0.000101364
-0.000117748
-0.000214243
-0.000212473
-0.000101438
-4.80335e-05
-2.58702e-05
-4.877e-05
-2.15864e-05
-2.17847e-05
-2.17926e-05
-2.14962e-05
-2.57661e-05
-4.77427e-05
-4.86882e-05
-5.66e-05
-0.000101023
-0.000117347
-0.000211434
-0.000213886
-0.000244618
-0.000419395
-0.000473216
-0.000819337
-0.000823544
-0.000822928
-0.000823978
-0.000474496
-0.000422228
-0.000422248
-0.00024497
-0.000420548
-0.000474561
-0.000824629
-0.000822925
-0.000421585
-0.000241592
-0.000213121
-0.000213693
-0.000115099
-9.84144e-05
-5.53633e-05
-4.7917e-05
-4.71871e-05
-2.48045e-05
-2.06111e-05
-2.14061e-05
-1.01429e-05
-5.48914e-06
-1.03234e-05
-1.17574e-05
-1.04318e-05
-5.59442e-06
-1.04036e-05
-1.17348e-05
-1.03096e-05
-5.4651e-06
-1.00701e-05
-2.1328e-05
-2.04254e-05
-1.11641e-05
-1.4177e-05
-7.07596e-06
-2.85576e-06
-1.18678e-06
-2.15468e-06
-2.1676e-06
-2.23359e-06
-2.24006e-06
-1.22901e-06
-2.96861e-06
-3.59222e-06
-2.16978e-06
-2.17011e-06
-1.19207e-06
-1.97347e-06
-1.64851e-06
-1.69819e-06
-2.02254e-06
-3.05722e-06
-4.00359e-06
-3.96345e-06
-3.96691e-06
-3.98336e-06
-3.69936e-06
-3.79513e-06
-2.84517e-06
-1.82798e-06
-1.63801e-06
-1.96249e-06
-1.69481e-06
-3.72108e-06
-6.24534e-06
-2.92593e-05
-2.97394e-05
-0.000132542
-0.000519629
-0.00105822
-0.000917486
-0.0015119
-0.00164705
-0.00272755
-0.00273117
-0.00273226
-0.0027411
-0.00165146
-0.00151012
-0.00151407
-0.000910866
-0.000826543
-0.000838677
-0.00046975
-0.000413479
-0.000426334
-0.000229844
-0.00019131
-0.000367809
-0.000423573
-0.000752381
-0.00134849
-0.00150248
-0.00252772
-0.00422205
-0.00452762
-0.00723526
-0.0113054
-0.0116098
-0.0174735
-0.0202533
-0.0136374
-0.0088064
-0.00536079
-0.00324398
-0.00178921
-0.00102035
-0.000509544
-0.000275203
-0.000124537
-0.000102128
-8.54452e-05
-0.000101318
-5.17318e-05
-4.18935e-05
-1.70159e-05
-2.08404e-05
-2.66216e-05
-6.42827e-05
-1.35895e-05
-8.08028e-06
-1.01051e-05
-9.734e-06
-5.17304e-06
-9.84629e-06
-1.12341e-05
-1.42958e-05
-6.79085e-06
-2.63294e-06
-1.1156e-06
-1.87671e-06
-2.369e-06
-1.48444e-06
-3.2651e-06
-3.96728e-06
-5.61099e-06
-3.33524e-06
-1.87919e-06
-3.41151e-06
-3.83233e-06
-3.71359e-06
-2.86414e-06
-3.3969e-06
-2.87009e-06
-7.11795e-06
-3.12223e-05
-3.0211e-05
-0.000134766
-0.000535195
-0.00183831
-0.00164803
-0.00275201
-0.0028204
-0.00154487
-0.00149808
-0.00102267
-0.000277554
-6.58901e-05
-6.67876e-05
-0.000136592
-0.000535101
-0.00182183
-0.00323923
-0.00293894
-0.00465056
-0.00490747
-0.00771655
-0.00778214
-0.00779482
-0.00809791
-0.00492932
-0.0046405
-0.00477766
-0.00284809
-0.00235904
-0.00335849
-0.00332868
-0.00915167
-0.00924221
-0.00794245
-0.00852918
-0.0130697
-0.0107708
-0.0121646
-0.00489946
-0.00421703
-0.00515113
-0.00498484
-0.00471274
-0.0127625
-0.012645
-0.0123817
-0.00792269
-0.00911041
-0.00512715
-0.0126911
-0.020807
-0.0204473
-0.00899097
-0.0087947
-0.00328956
-0.00333063
-0.00545935
-0.00547688
-0.00547482
-0.00189086
-0.00106576
-0.00106192
-0.000290149
-0.00029032
-0.000289293
-0.000288778
-0.00106488
-0.000887397
-0.00104633
-0.000281676
-0.000279736
-0.000280908
-0.000280305
-6.68386e-05
-6.655e-05
-1.45859e-05
-1.42191e-05
-3.41058e-06
-6.6327e-05
-0.00104182
-0.00103626
-0.003326
-0.00334937
-0.00339007
-0.00922375
-0.00915233
-0.00924742
-0.00335694
-0.0123664
-0.0191855
-0.0184105
-0.0273924
-0.0216212
-0.0213291
-0.0407369
-0.0407513
-0.04577
-0.0663366
-0.0950896
-0.0957124
-0.0517823
-0.0631479
-0.0892694
-0.0763218
-0.0561158
-0.0748283
-0.0757
-0.0569444
-0.0528056
-0.0937927
-0.077696
-0.0750498
-0.100197
-0.0848433
-0.0849028
-0.079632
-0.0715817
-0.0459693
-0.0603312
-0.0376764
-0.028227
-0.0134934
-0.00900993
-0.00335513
-0.00334424
-0.00516807
-0.00514892
-0.00497812
-0.0127594
-0.0126355
-0.0121598
-0.0048966
-0.00167557
-0.00281721
-0.00477578
-0.00492928
-0.00779527
-0.00804808
-0.0122157
-0.0121282
-0.0123628
-0.0184489
-0.0185425
-0.0184762
-0.0126616
-0.0051167
-0.00332938
-0.00337256
-0.00910735
-0.00792392
-0.00898977
-0.00879384
-0.00328911
-0.00105226
-0.00105792
-0.000519766
-0.000132657
-2.97796e-05
-4.90309e-05
-6.68686e-05
-0.000101434
-1.47555e-05
-2.16293e-05
-1.04829e-05
-3.62587e-06
-4.02103e-06
-2.26083e-06
-1.23827e-06
-3.02178e-06
-7.38774e-06
-0.000278341
-0.000277559
-0.000212623
-0.000135171
-0.000275146
-0.000367039
-0.000509077
-0.000536378
-0.00102
-0.000837514
-0.0017875
-0.00150104
-0.00252424
-0.0028438
-0.00421556
-0.00324214
-0.0053551
-0.00541247
-0.0018414
-0.00102186
-0.000823098
-0.00101719
-0.00082484
-0.00182981
-0.0032347
-0.00274079
-0.00320021
-0.00463765
-0.00533369
-0.00871774
-0.00777947
-0.00880078
-0.00808972
-0.0136235
-0.0115968
-0.0174571
-0.0186676
-0.0198283
-0.0202401
-0.0135296
-0.0284182
-0.0470436
-0.0481784
-0.052638
-0.0588825
-0.0533801
-0.0370159
-0.0198092
-0.0186751
-0.0132054
-0.0276201
-0.0459552
-0.0592186
-0.0541127
-0.036363
-0.0193356
-0.00856391
-0.0121201
-0.00772259
-0.00532315
-0.00183073
-0.0131602
-0.0275606
-0.0459481
-0.0593552
-0.0542168
-0.0363975
-0.0193141
-0.00854436
-0.00772583
-0.00872708
-0.00324965
-0.0010292
-0.000518306
-0.000131376
-2.93435e-05
-2.23187e-05
-0.000110705
-0.00176106
-0.00510491
-0.0125616
-0.0198016
-0.0370934
-0.0463904
-0.0607964
-0.0541847
-0.0465095
-0.051814
-0.0526401
-0.0459716
-0.027672
-0.0273971
-0.01309
-0.00528886
-0.00181453
-0.000532954
-0.000135944
-3.10469e-05
-3.15287e-05
-7.2641e-06
-1.47013e-05
-1.4664e-05
-3.58243e-06
-3.05102e-06
-3.3659e-06
-2.59883e-06
-6.70101e-06
-2.98605e-05
-6.54575e-05
-5.50628e-05
-9.76927e-05
-0.000101103
-0.000131351
-6.86247e-05
-6.98816e-05
-1.5097e-05
-6.8623e-05
-6.7506e-05
-2.70374e-05
-5.43608e-06
-3.23816e-06
-1.02228e-05
-8.30974e-06
-0.000122979
-0.000287635
-0.000288856
-0.000289806
-0.000288749
-0.00105605
-0.00105056
-0.00105681
-0.000517085
-0.00175798
-0.00176149
-0.00511807
-0.00895208
-0.00804463
-0.00772241
-0.00488655
-0.00770922
-0.0121116
-0.0123026
-0.0184377
-0.0184809
-0.0120933
-0.0121352
-0.0123625
-0.0184345
-0.0186847
-0.012126
-0.00805518
-0.0122253
-0.0125087
-0.00790463
-0.00656978
-0.00873328
-0.00540565
-0.0135169
-0.0283951
-0.0289685
-0.0379854
-0.0481781
-0.0526584
-0.0470119
-0.0589278
-0.0533903
-0.03707
-0.0198477
-0.0131639
-0.00531436
-0.00858343
-0.00320648
-0.00464281
-0.00463675
-0.00463938
-0.0046315
-0.0048974
-0.0077381
-0.00771795
-0.00804069
-0.0121038
-0.0123449
-0.0185457
-0.0184705
-0.018552
-0.0267857
-0.0269001
-0.0268323
-0.018549
-0.0207589
-0.0204039
-0.0134811
-0.0134902
-0.0199039
-0.0282284
-0.0267926
-0.0268905
-0.0575394
-0.0438087
-0.0435539
-0.0601547
-0.0714301
-0.0775109
-0.0771584
-0.0797146
-0.0797682
-0.0707131
-0.0450462
-0.0591036
-0.0361824
-0.0564984
-0.056665
-0.0564991
-0.0569669
-0.0578113
-0.0559524
-0.0779054
-0.104231
-0.0517111
-0.0777085
-0.0816925
-0.0796405
-0.0850601
-0.0802942
-0.0748173
-0.101464
-0.0741369
-0.0475348
-0.0530639
-0.0933463
-0.0524552
-0.0608701
-0.047236
-0.0572167
-0.0363121
-0.0282116
-0.0199189
-0.0204444