/*--------------------------------*- C++ -*----------------------------------*\
| =========                 |                                                 |
| \\      /  F ield         | OpenFOAM: The Open Source CFD Toolbox           |
|  \\    /   O peration     | Version:  2306                                  |
|   \\  /    A nd           | Website:  www.openfoam.com                      |
|    \\/     M anipulation  |                                                 |
\*---------------------------------------------------------------------------*/
FoamFile
{
    version     2.0;
    format      ascii;
    arch        "LSB;label=32;scalar=64";
    class       volScalarField;
    location    "0.5";
    object      gradTx;
}
// * * * * * * * * * * * * * * * * * * * * * * * * * * * * * * * * * * * * * //

dimensions      [0 -1 0 1 0 0 0];

internalField   nonuniform List<scalar> 
5322
(
-0.247776
0.00684501
0.00807944
0.000644971
-0.000275116
-0.000297346
-0.000120342
6.95525e-06
-1.87697e-05
-0.000223561
-0.00083966
0.00901391
0.0138614
-0.19092
-0.00501888
0.332763
-0.26144
-0.00399342
-0.199814
0.129867
-0.176509
0.155469
-0.164457
0.168145
-0.170542
0.167203
-0.167635
0.178011
-0.175636
0.18022
-0.171034
0.199639
-0.149698
0.234804
0.00556839
0.301516
0.212766
-0.0847606
0.237735
-0.0137247
-0.225493
0.226652
-0.0137262
-0.241129
0.239663
-0.00824389
-0.256289
0.224088
-0.00561402
-0.268681
-0.265328
-0.384667
-0.121254
0.255743
-0.0163967
-0.421668
-0.0121266
0.402652
-0.00484099
-0.402401
-0.0017409
0.392142
-0.00223876
-0.395242
-6.81927e-05
0.386251
0.00502386
-0.391417
0.0173848
0.320874
0.0135824
-0.337401
0.382408
-0.39557
0.380773
-0.38779
0.38848
-0.387817
0.441513
-0.318837
0.155413
-0.209717
-0.136468
0.23336
0.0235641
-0.128278
0.156653
-0.423428
-0.155883
0.498735
-0.0216181
0.00869064
0.0159579
0.0746319
0.348595
-0.0796679
-0.00812825
-0.0381992
0.161475
-0.375241
-0.375451
0.828812
-0.0376341
0.268978
0.437983
-0.00362916
0.00288956
0.00361007
0.00213351
0.00100564
0.000375313
-0.000115106
-0.000986549
-0.00237962
0.00370469
-0.00126174
-0.109811
-0.108294
0.0115177
0.0689928
0.00389647
0.105198
-0.125829
-0.00942602
-0.0290305
0.19508
0.16044
0.0445706
0.125468
0.0810564
0.0616222
0.134709
0.0679607
0.0729105
0.137052
0.0594868
0.114783
0.155789
0.176583
0.00758818
-0.129467
0.00711656
0.0862937
-0.104581
-0.112247
0.0160924
0.0463204
0.0254607
-0.0878449
-0.0965543
0.0181204
0.0286969
0.0346045
-0.0952839
-0.0903894
0.0182729
0.018842
0.0548303
-0.104512
0.13638
-0.294277
-0.394348
0.34101
-0.400544
-0.0168579
-0.274564
0.00228218
0.267185
-0.064121
0.317776
0.157512
0.2349
-0.352599
0.137467
-0.303825
0.202748
0.264309
-0.324422
0.00768128
-0.275817
0.244144
0.303886
-0.324953
-0.00142067
-0.272355
0.26129
0.319217
-0.329969
0.000126053
-0.275352
0.270943
0.329061
-0.338789
0.00100924
-0.282847
0.276682
0.337258
-0.352097
0.00153245
-0.294705
0.279301
0.344224
-0.369561
0.00227574
-0.309126
0.278105
0.349143
-0.386578
0.00385391
-0.319522
0.26893
0.335646
-0.0718794
0.154298
-0.372339
-0.379705
0.833728
-0.029606
-0.0323088
0.017913
0.0806121
0.346419
-0.0625148
-0.0045918
-0.0701355
0.147112
-0.379264
-0.373181
0.828909
-0.0456396
0.269027
-0.00844387
0.00482681
0.00432897
0.00272826
0.00138004
0.00057543
-7.76142e-06
-0.00090889
-0.00216122
0.00369718
-0.00115477
0.0872421
-0.0968442
0.0965141
-0.0876394
0.000179077
0.087725
-0.0828911
-0.000458873
-0.104318
5.97452e-05
-0.0877358
-6.18033e-05
0.0826876
0.0032555
0.0974286
-0.00795809
-0.105339
0.00034398
0.104176
-0.000107108
-1.53178e-05
0.184633
-0.317807
0.317437
-0.31395
0.331457
-0.340445
0.357951
-0.359171
0.367779
-0.369426
0.376431
-0.378815
0.387034
-0.388702
0.399809
-0.398296
0.412531
-0.401621
0.418281
-0.226289
0.00487376
0.22853
0.0062188
-0.407959
0.390946
0.00206202
-0.400636
0.389312
0.00138512
-0.388518
0.380314
0.00091097
-0.376363
0.370438
0.00062175
-0.366005
0.361102
0.000618155
-0.356945
0.351358
0.000951818
-0.345858
0.334997
0.00106796
-0.318712
0.000195112
0.318623
-0.335178
-0.0014937
-0.33095
0.313488
-0.00058996
-0.186202
-0.0120947
0.189404
-0.329126
0.318697
-0.336897
0.34032
-0.348567
0.35103
-0.355636
0.360288
-0.363512
0.371664
-0.372277
0.386213
-0.379425
0.402073
-0.376651
0.410546
-0.223084
-0.048726
0.0966248
0.0120123
-0.381214
0.338346
0.00452289
-0.364829
0.347904
0.000465114
-0.343986
0.338315
-0.000611564
-0.331235
0.327898
-0.000750565
-0.322773
0.320541
-0.00176789
-0.315873
0.315755
-0.00415184
-0.30714
0.307921
-0.00932424
-0.283282
0.258667
0.00553748
-0.0936153
0.159287
0.261984
0.00811309
0.0325371
-0.0478727
0.134237
-0.414038
0.315092
-0.396549
-0.26703
-0.330219
0.00899236
0.216668
0.239674
-0.344019
0.132903
-0.308673
-0.0230097
0.0164507
-0.12479
0.0106683
-0.00504346
-0.132339
0.0133169
-0.021485
-0.313252
-0.339737
0.245863
-0.319951
0.00377973
0.293566
-0.321993
0.313451
-0.327642
0.00153712
0.325281
-0.33698
0.333829
-0.350662
0.0121191
0.340112
-0.366783
0.342777
-0.378317
0.0781585
0.0177031
0.0107487
0.0113811
0.00492405
0.0128071
0.351639
-0.376383
0.00429967
-0.305291
0.255664
0.356188
-0.379719
0.0084164
-0.333447
0.235881
0.471686
-0.0537249
0.0105415
-0.407303
-0.376259
0.785599
-0.0493883
0.0123421
0.0209282
-0.232683
0.0523495
0.177379
-0.183673
0.0147969
0.18535
-0.167902
0.00218905
0.175934
-0.167906
-0.000418084
0.164508
-0.159552
-0.00431521
0.168248
-0.151641
-0.0102939
0.175098
-0.117904
-0.0169886
0.205419
0.0778886
0.0575477
-0.015035
-0.00781524
0.0813609
-0.0357218
0.368062
-0.395662
0.389839
-0.401418
-0.259868
-0.337051
1.19621e-05
0.255132
0.321876
-0.33128
-0.00121649
-0.25664
0.00175844
2.2222e-05
0.00266326
-0.000438823
0.00502145
0.0209867
0.0192992
0.0345384
-0.0118094
0.00489582
0.146035
0.231629
0.193216
0.0653692
0.294259
0.116968
0.0556062
0.0173549
0.00941712
-0.00710075
-0.0061382
0.00143817
0.00609917
-0.0471612
-0.000497252
0.0554401
-0.0510973
0.402283
-0.411699
0.413979
-0.430053
-0.282032
-0.361188
0.00217386
0.263818
0.344054
-0.346892
0.00111005
-0.267995
0.00324636
0.00147643
0.000204201
-1.90212e-05
-5.12664e-05
0.00124737
0.0017963
0.00102219
0.00430928
0.00645118
0.06398
-0.000936637
-0.000659495
-0.00201317
0.000417843
0.000856961
-0.00826576
0.0191587
-0.220943
-0.000724323
0.00291936
0.000119261
-0.00299056
0.340525
-1.50883e-05
-0.357765
0.345855
-0.35134
-0.00120821
0.35974
7.82059e-05
-0.367676
0.357262
-0.360777
-0.000488763
0.370391
0.000305628
-0.376174
0.366806
-0.369628
6.69611e-05
0.380337
0.000530351
-0.386592
0.377858
-0.37877
0.000625945
0.391061
0.000501755
-0.399051
0.390849
-0.386741
0.00147087
0.401118
-0.000608994
-0.410785
0.403272
-0.387857
0.00233503
0.402035
-0.00350021
-0.414797
0.408933
-0.226723
-0.000306418
0.225086
-0.0140498
-0.0297411
-0.0301585
-0.0330887
-0.401427
0.0980625
0.0847248
-0.0337752
-0.0693853
-0.033207
-0.440541
0.093567
-0.119193
-0.194078
-0.0669523
-0.0562154
-0.0608454
-0.0274763
-0.0128214
0.0032431
-0.00249989
-0.0118393
-0.0134671
-0.00848571
-0.0130819
-0.0230443
0.00317598
0.171537
0.200757
0.196904
0.226859
0.280886
0.267435
0.208929
0.210308
0.137311
-0.122094
0.0393944
-0.014318
-0.0100263
0.0357572
-0.106442
-0.000288633
-0.000165916
-0.000341882
3.17248e-05
-0.0672488
-0.0766262
-0.0759449
-0.068068
0.0674861
-0.0572601
0.002132
0.0763025
-0.065814
-0.0660789
0.002116
0.0760189
4.7285e-08
1.89072e-05
4.08602e-05
4.42194e-05
-0.00202376
0.00268771
-0.00136803
-0.000748126
-6.96911e-05
0.000485697
0.00119602
0.00456944
0.00316635
0.000837234
0.00834365
-0.00280176
0.0507528
-0.0723194
0.431445
-0.451053
0.456089
-0.0090135
-0.133576
-0.0204953
0.0368202
-0.00346117
-0.00683436
-0.00240301
-0.0286343
-0.0576666
-0.113946
-0.260637
-0.266734
-0.656706
-0.30423
-0.265255
-0.00853869
-0.104379
0.0836918
-0.536817
-0.32171
-0.151306
0.241966
0.0194571
0.0122977
-0.252315
0.266817
0.00158729
-0.0317815
-0.276943
0.268068
0.000477169
-0.0353801
-0.270276
0.267204
0.00229119
-0.0578185
-0.25789
0.190551
-0.153379
0.12673
0.0961622
0.28217
-0.132595
-0.0762976
0.041884
0.168465
-0.545801
-0.0298784
-0.319241
0.282179
0.261546
0.24824
0.311944
0.149053
0.0325232
0.119495
0.179852
0.295309
-0.132956
0.02807
0.213086
-0.178141
0.00043945
0.181092
-0.178749
-0.00207258
0.170875
-0.17045
-0.00114943
0.165643
-0.165036
-0.00099209
0.161607
-0.163179
-0.0022037
0.153482
-0.170041
-0.0133221
0.12873
-0.195368
-0.0726591
-0.00287708
-0.26235
-0.162391
0.0947871
-0.258837
0.287182
-0.306028
0.00864627
-0.319443
0.328614
-0.00494445
-0.189202
0.0120815
0.186485
-0.184475
0.000661414
0.00109858
0.000325798
0.000265583
0.000414996
0.000399789
0.000238505
0.000430608
0.000950599
0.000172909
0.00320649
0.000103653
0.0537086
-0.0563792
-0.00129479
-0.000106325
0.00355589
0.00169436
0.259945
0.334763
0.00138415
-0.274496
0.271169
0.00111899
-0.282187
0.276146
0.00165327
-0.295009
0.278021
0.00243022
-0.312174
0.276006
0.00385501
-0.327535
-0.0121345
-0.00889247
-0.0612297
-0.060868
-0.105594
-0.0519125
-0.0264882
-0.0131445
-0.00908189
-0.01457
-0.0243462
0.000840615
0.167357
0.194089
0.188488
0.267895
0.160455
0.00114473
-0.0197458
-0.011847
-0.00792811
-0.0117158
-0.0239474
-0.048611
-0.0987905
-0.231312
-0.245645
-0.435255
-0.331015
-0.105166
-0.105762
0.221197
0.0255965
-0.027213
-0.0216561
0.108744
0.00439168
-0.0868782
-0.0831328
0.0860142
-6.5112e-05
-0.0959697
-0.0918364
0.0753515
-0.000325964
-0.119285
-0.113803
0.036633
-0.152748
0.0983572
0.0953757
0.0997945
0.0868718
-0.133558
0.00951034
0.0492557
-0.151892
0.0362575
-0.146002
0.171077
-0.392859
-0.0205254
-0.378055
0.260743
0.269963
0.268848
0.263806
0.260599
0.262293
-0.409039
-0.0241472
-0.368999
0.260733
0.279263
0.261865
0.275668
-0.0203161
-0.393483
-0.390993
0.171487
0.269787
0.239807
0.236035
0.293967
0.282991
0.225894
0.0681936
0.148064
0.0606112
-0.0323974
0.0719904
0.0115904
-0.0525433
0.0528688
0.0027451
-0.0526702
0.0506925
0.000764464
-0.0522464
0.0488224
0.000190536
-0.0494853
0.0493087
-0.000324937
-0.0496816
0.0469183
-0.00300485
-0.051107
0.0439213
-0.0115615
-0.0670469
0.0254065
-0.0528704
-0.128497
-0.0612814
-0.190444
-0.229482
-0.234151
-0.157669
-0.115851
-0.178162
-0.00750704
0.130312
-0.0984391
0.00957334
0.108013
-0.107719
0.00455095
0.112571
-0.115458
-0.00381867
-0.00776271
-0.200339
-0.000643623
-0.325363
0.000384029
-0.32333
0.00174196
0.339615
-0.344717
0.000385713
-0.343835
0.00415296
0.351161
-0.318414
0.000317056
0.321305
0.00182134
-0.323777
0.00039851
0.327308
0.001306
-0.330628
0.000504258
0.334486
-0.00039802
-0.338814
0.000633896
0.342947
-0.00069861
-0.347978
0.00102374
0.352634
-0.00501297
-0.354204
0.0032211
0.359352
-0.00684021
-0.00840578
-0.448251
-0.324077
0.00815197
0.411694
-0.00305399
-0.431634
-0.299469
0.00678114
0.416205
-0.00120368
-0.41805
-0.287279
0.00297495
0.409426
-0.000929263
-0.406794
-0.277999
0.000857617
0.402132
0.000293464
-0.395712
-0.270537
-0.00108693
0.395034
0.000438722
-0.38479
-0.263243
-0.00417722
0.391439
0.00236449
-0.364362
-0.253075
-0.00457047
0.393184
0.00869318
-0.3139
-0.221944
0.0206084
0.412056
0.0496841
-0.0355123
0.0951191
-0.162845
-0.263338
-0.00239676
-0.0738272
0.00134328
0.2259
-0.0186408
0.00317132
-0.190317
0.000856622
0.326178
-0.318869
-0.00198069
-0.321993
0.0090626
-0.310197
-0.000424505
0.313566
0.00715634
0.00255948
0.000682436
0.00371237
0.336509
0.00232739
-0.0028662
-0.0833072
-0.000230709
0.0900635
-0.000117149
0.000297055
0.000407381
-0.0143382
-0.016575
-0.011884
-0.129793
0.0128733
-0.0213827
0.00174782
0.00203685
0.00374104
0.298821
0.246616
0.00117226
-0.00189175
-0.0106043
-0.0128118
0.216946
0.00841623
-0.277309
0.249768
-0.00125695
-0.271958
0.263162
0.000184606
-0.00050752
0.000527966
0.00290012
0.000527157
0.0017146
0.00401646
0.00165503
0.000585887
0.000544056
0.00326195
-0.000112613
0.000572794
0.0017196
-0.274817
0.243267
0.385861
-0.400481
0.39849
-0.405812
-0.00127376
-0.316992
-0.00285777
0.317887
-0.00412325
-0.310322
-0.00981087
0.323881
0.0186816
0.0237841
-0.222176
-0.00106583
0.239589
-0.251692
-0.000527827
-0.417961
-0.000852984
0.419942
-0.368305
-0.00011753
-0.376487
0.000130285
0.380417
-0.375961
-3.70249e-05
-0.377844
-2.70905e-05
0.382462
-0.393433
-0.000264111
-0.379415
-0.000918538
0.383539
-0.388173
-0.00319693
0.389945
-0.38976
-0.00707138
-0.00956397
-0.0021339
-0.000867942
-5.75163e-05
0.000196706
0.000428633
0.0011094
0.00221351
-0.00374916
0.00100339
-0.087323
0.0970262
-0.095903
-0.0896888
0.000897291
0.000544491
-0.00187743
0.00525646
0.0850531
0.000769734
-0.00101116
-0.00791261
0.0103579
-0.00908112
-0.127121
0.012242
-0.0270567
0.191544
0.0096937
-0.00912365
-0.00767575
0.00504448
6.89947e-05
0.065234
0.0661018
-0.001993
0.0563691
0.0872371
-0.00150787
-0.00189746
-0.00195177
-0.000797719
0.00667212
-0.101362
0.260335
0.0151054
-0.388589
-0.00250489
0.394955
-0.346595
-0.00170662
-0.359624
-0.000158902
-0.357207
-0.000141408
-0.361128
0.000807811
0.364963
-0.374395
0.000115012
-0.361746
0.000771401
0.365975
-0.370105
-8.51591e-05
0.374652
-0.000225262
0.00010142
0.000407061
0.000976468
0.00156426
0.00207849
0.000117997
-5.87261e-05
-0.00209882
-0.00200296
-0.00750487
-0.00948506
-0.00198936
-0.00204756
4.56739e-05
5.60736e-05
0.000268034
0.000128887
0.000299039
0.000254531
0.000321889
0.000381129
0.000383644
0.000296245
0.00163751
0.00202076
0.000874266
0.00809301
-0.00226865
0.0616214
-0.324701
-0.0830223
0.000222602
-0.0305815
0.141221
-0.143637
-0.462856
-0.169196
-0.00241046
0.0412028
0.000293649
-0.3326
-0.141688
-0.0939759
0.210206
0.0250598
-0.0233384
-0.0406722
0.117731
0.00420256
-0.0807988
-0.100437
0.100823
0.000215711
-0.0892341
-0.105783
0.0935557
0.000596644
-0.114698
-0.119903
0.0248982
-0.00687154
0.00112442
0.00139679
0.386411
-0.349482
0.0026878
0.356716
-0.0127583
0.00928794
-0.45074
0.00248557
-0.279752
0.290534
-0.00177529
-0.280239
-0.488412
0.416111
-0.0267646
0.0433321
0.159003
0.00115833
0.346057
0.256672
0.288872
-0.379111
0.00545839
-0.321072
0.00851084
-0.355463
0.00863925
-0.340578
0.00839949
-0.342285
0.00959997
-0.365306
0.269254
0.263337
-0.0184115
-0.471119
-0.378765
0.168476
-0.117483
0.149513
0.0842897
0.100032
-0.144355
0.0406082
0.0308929
-0.156509
0.0613644
0.112385
-0.135252
0.214129
-0.114676
0.017972
-0.124801
0.0214508
-0.135913
-0.106488
0.0205401
-0.00864989
-0.00189891
-0.0012685
-0.000219464
0.000365469
0.000417716
0.000506021
0.00109326
0.00216555
-0.00379576
0.00108711
-0.0570591
0.0674042
0.000493592
0.0135908
0.00975104
0.00785461
-0.0979808
-0.00716194
0.104832
-0.0862574
-0.0471965
0.106327
-0.115673
-0.158116
-0.178443
0.125928
0.129968
-0.00778927
-0.0109494
-0.0355033
0.00413668
0.133251
-0.0241951
-0.0311844
-0.0176727
0.0955148
0.0955875
-0.0313329
-0.0239689
0.122726
-0.0672521
-0.142516
-0.0676086
0.131271
-0.0129611
-0.0137692
-0.0169875
-0.00440616
0.00160655
0.225579
-0.0190252
0.00869424
-0.000377725
0.000244628
0.000404389
0.000214103
-0.000136639
-0.000738146
-0.0017428
-0.000164422
-0.00117018
0.000488006
-0.0109666
-0.00397801
0.0066707
-0.0160651
-0.00740853
-0.00736875
-0.207617
0.199513
-0.00573733
-0.00465901
0.0101696
-0.00534167
-0.00446973
0.0341206
0.0698166
0.0359013
0.243674
-0.121653
0.0170501
0.133696
0.166171
-0.0635437
0.00805863
-0.00234154
0.0108517
-0.00264075
0.00119529
-0.0186882
-0.00339154
0.000243682
5.47878e-05
-0.000411016
-0.000981059
-0.000639382
-0.00169311
0.00122365
0.00231864
0.000541505
-0.00393966
-0.0002992
0.000614149
0.000810151
0.000833864
0.00192966
0.00716284
0.0022195
0.00371983
0.00214191
0.000846002
9.43227e-05
0.000674471
0.000682973
0.00144812
0.00248206
-0.340721
0.309764
-0.313761
0.316863
-0.319331
0.00181456
-0.350537
0.347766
0.00381985
0.00241056
0.00150009
0.000645784
0.336225
0.00204129
-0.00310426
0.105485
-0.00225934
0.00199027
0.00947487
-0.0156135
0.111809
0.0877989
-0.0387899
0.0154312
-0.000326863
-0.000138907
0.0572846
-0.00197095
-0.000115927
0.0404039
-0.122279
0.0354426
0.000427977
0.014194
0.0103833
0.00110562
-0.0108322
0.00440438
0.00955535
-0.038871
-0.0356972
0.112193
-0.0473068
-0.0861674
-0.0157498
0.105894
-0.00702277
0.0095452
0.00759915
-0.00527083
-0.000275599
0.00210544
0.00759865
-0.00276006
-0.00324609
-0.000715246
-0.000338067
0.000105963
0.00099298
0.000593053
0.000567261
0.000331585
0.355239
-0.35901
0.323023
-0.326848
0.330939
-0.336424
0.00191216
-0.369004
0.363498
0.00142212
0.000475114
0.000297403
2.8747e-05
0.000805766
-0.00051304
0.000520381
0.00018575
0.000426657
0.000343534
0.000628659
0.000255668
0.000668872
0.00191207
0.0101058
0.00894887
0.0330327
0.00172946
0.000755358
0.00018983
-0.000585529
-0.00220987
-0.000922553
-0.000928047
0.000127023
-0.00019612
-0.000153865
0.000238262
0.000267562
0.000250791
5.18595e-06
-0.000917412
-0.00234395
-0.00245951
-0.000970269
2.42938e-05
0.000110397
0.000192374
0.000295935
0.000401969
0.000693934
0.000591779
0.000571049
0.00123719
0.0010529
0.000594955
0.00168754
0.0033566
0.00134071
0.00191384
0.0482738
-0.00967583
0.00446433
0.00135981
0.00505953
0.106199
-0.00485785
-0.0153632
0.0772114
0.0236101
-0.33259
-0.116517
-0.247241
0.224313
-0.153646
-0.164565
0.201029
-0.263049
-0.0141878
-0.0193307
-0.222375
0.196216
-0.00295195
-0.0107968
-0.00105059
0.00397072
0.00554475
0.0821357
0.0260166
-0.152082
-0.132006
0.24661
0.0242683
-0.058332
-0.0170743
0.101188
0.00321087
-0.115899
-0.0751758
0.0762221
-0.000274544
-0.121233
-0.0833231
0.0663172
-0.00103321
0.105669
0.101765
0.00606674
0.129107
-0.125608
0.000555774
-0.111647
-0.00065113
-0.00249767
-0.000420754
-1.71127e-05
0.000185652
0.000198136
0.000168115
0.000131826
4.42553e-05
-0.000851407
-0.00232863
-0.00066261
-0.271454
0.261684
0.000204081
-0.274643
0.271283
0.407646
-0.415289
0.417497
-0.430123
-0.000172643
-0.334638
0.00250557
0.328154
-0.000678393
-0.323912
3.39311e-05
0.321463
0.000435054
0.00101019
-0.23911
0.000160419
0.244433
-0.263702
0.000469328
-0.435072
0.000308841
0.44224
-0.385679
-6.96996e-05
-0.393382
0.000446737
-0.394382
-0.000635441
-0.394063
-0.00121856
0.39572
-0.410609
6.38648e-05
0.399016
-0.00110679
-0.392729
0.391725
-0.0011672
-0.40024
0.40453
-0.396608
-0.000158065
0.000399584
0.00180352
0.00149195
0.000761666
0.000261291
-0.000165604
-0.000883385
-0.00117785
-0.000390511
0.00016348
0.00104776
0.00121014
0.00315153
-0.28191
0.277331
0.00197625
-0.293287
0.280766
0.428155
-0.451486
0.437824
-0.473023
0.0115321
-0.399655
0.0370387
0.344062
0.00177737
-0.356093
0.0105216
0.337549
-0.00120311
0.00500752
-0.24813
0.00453938
0.267101
-0.283479
0.00155275
-0.454844
0.0024647
0.465924
-0.398955
-0.00155332
0.395993
0.00351026
-0.448131
0.261743
-0.000966733
-0.297874
0.264105
-0.282572
0.014037
-0.0362503
-0.0180933
-0.031265
-0.0552617
0.330732
-0.474627
0.102639
-0.0795691
-0.0322708
-0.0138253
-0.00657067
-0.00444303
-0.00520135
-0.00205804
0.0539351
0.560679
0.280834
-0.145795
0.0983143
0.0501509
0.320117
-0.277718
0.301242
-0.0179424
-0.196559
0.00952034
0.356053
-0.336714
-0.000907785
-0.335126
-7.63229e-05
-0.340256
-0.000209678
-0.350191
0.00152941
0.355603
-0.36399
0.000312271
-0.353758
0.00163347
0.358409
0.0013757
0.000918216
0.372788
0.00204163
0.363298
-0.00028813
-0.00227293
-0.00431892
-0.0147029
0.0023272
0.196583
0.0136533
0.0170187
0.0677789
0.119106
-0.165503
-0.000674178
-0.246242
0.000881085
-0.40999
-0.00192981
0.410085
-0.359985
-0.000631723
-0.368913
-1.47882e-05
-0.367031
-2.42332e-05
-0.369344
0.000333734
0.373568
-0.383652
-5.38254e-05
0.388361
-6.99047e-05
0.000340692
0.380238
-2.51952e-05
-7.04128e-05
-0.000661373
-0.00186288
0.354383
-0.00373514
0.331262
0.0198194
0.00979614
0.250617
0.00968567
0.00610418
-0.000994024
0.256189
0.000618238
0.00333831
-0.234071
-0.000726972
-0.257414
-7.0386e-05
-0.425653
-0.000238731
0.43021
-0.376706
3.89454e-05
-0.384789
0.000272493
-0.385173
-0.000236177
-0.386641
-0.000506775
0.391107
-0.403617
-0.000482935
0.403382
-0.00086356
-0.000348891
3.40489e-05
0.000161844
0.000271254
0.000418814
0.00107827
0.00195196
0.00106744
0.00105337
0.000554953
0.000913546
-0.000859735
9.81488e-05
0.000879413
0.000385174
0.000515835
0.000453349
0.000329278
0.000488226
0.000824233
0.00252495
0.00162899
-0.273745
-0.00673305
-0.268148
0.29975
-0.00556745
-0.286633
-0.293164
0.305544
0.28568
-0.00546974
-0.273617
-0.312514
0.324641
-0.289989
-0.00698221
-0.259397
0.290364
0.305405
0.300953
0.294347
-0.00637649
-0.285535
-0.265161
0.00165401
0.291027
-0.00503979
-0.307308
-0.280271
0.000271722
0.292428
-0.00129398
-0.320194
-0.290613
-0.29859
-0.30558
-0.00156155
0.301784
0.308162
0.000314579
0.286567
-0.00152866
-0.283565
-0.325808
0.328006
0.000216436
-0.256838
-0.38577
-0.00482164
0.264366
0.00120503
-0.247164
-0.365674
-0.00564631
0.275657
0.324712
-0.23271
0.0187731
-0.226207
-0.008411
-0.229286
0.0185103
-0.225528
-0.00837135
-0.230171
0.019433
-0.229784
0.320792
0.27902
-0.00912013
0.0120432
-0.000489832
-0.171042
-0.204653
-0.193826
-0.214898
-0.204614
-0.206242
-0.211824
-0.174259
-0.269552
-0.212891
-0.194573
-0.204054
-0.137834
-0.0594888
-0.0738596
0.122463
-0.13697
0.322613
0.32619
0.323683
0.325043
0.336905
0.3166
-0.132683
0.106974
-0.0592431
-0.137961
-0.0742241
0.133366
-0.0136238
-0.00259307
-0.00259323
-0.000895055
1.38839e-05
0.000279499
-0.000567641
0.312369
0.000986969
-0.30834
-0.315765
-0.292088
-0.336622
0.000755817
0.290415
0.333124
-0.000516028
-0.263903
-0.39791
-0.00136528
0.265172
0.396595
0.00108938
0.0509417
-0.0509624
-0.000262503
0.051705
-0.0523662
0.000314303
0.0535133
-0.0532049
0.00240084
0.0607969
-0.0493315
0.0123319
0.0876554
0.0298215
0.0200434
0.00401811
0.00496599
-0.00105022
0.0019614
-0.0016581
0.0016406
-0.00206157
0.000519449
-0.00208641
-0.05177
0.392165
0.00244473
0.0479271
-0.0665082
-0.0102666
-0.0172526
-0.00786302
-0.0437973
0.0297709
0.00887975
-0.315132
0.0194938
-0.21758
-0.00928812
0.0124499
0.00124023
-0.137624
-0.233998
-0.227784
-0.190613
-0.0602533
-0.12876
-0.0519039
-0.10253
-0.292002
0.0497407
0.412007
0.314614
0.338968
-0.132347
-0.281973
-0.170254
0.000218708
0.0301989
0.020339
0.0131623
0.00715113
0.00496105
0.000558129
-0.270688
-0.410455
0.403858
0.26955
-0.00109046
0.000506957
0.00398208
0.00452439
0.018414
0.00870476
0.00424709
-0.00186602
-0.000999881
0.338885
0.0025808
-0.300468
-0.348001
-0.276699
-0.42693
0.00173277
0.27662
0.413376
0.00182119
0.00158023
0.00150521
0.00103222
0.00161889
0.00281495
-0.381364
0.341644
-0.34671
-0.00485652
0.00269124
0.00144679
-0.00187113
0.000594087
0.000136371
0.373
0.000597613
0.000349483
0.382433
0.00275619
0.000205845
0.00157925
0.00226538
-0.000907511
1.3425e-05
0.00049122
0.000112049
0.000318109
5.65972e-05
9.88186e-05
0.000369195
0.00124308
0.0005246
0.000223076
0.000148441
-0.00057613
-0.000192912
-0.000200004
-0.000679645
-8.87392e-06
0.00112111
0.00175894
0.000897162
0.000732545
0.000861749
0.00100065
-0.00235471
-0.00245589
-0.0134796
-0.00475666
0.304647
-0.0011003
0.0015101
0.00142276
6.9057e-05
-1.90046e-05
0.000873247
-0.00444176
-0.00391312
-0.00209817
0.00108942
-0.306965
0.280634
0.00586608
-0.313499
-0.0101711
-0.0105318
-0.0602377
-0.077247
-0.299562
-0.303845
-0.489868
0.122924
0.045912
0.250479
-0.0885349
0.131795
-0.0147744
-0.150292
0.135377
-0.00335401
0.103886
-0.00343586
0.127331
-0.140458
-0.0118055
-0.00371147
-0.00456891
0.00197827
-0.0167089
0.110871
-0.00545807
0.00437163
0.00405719
0.0025377
0.00160203
0.000732992
0.00063446
0.00462413
0.003911
0.0105585
0.00957768
0.0283754
0.00576385
0.00235227
0.000582466
0.266294
-0.271905
0.00110993
-0.445792
0.00116441
0.456138
-0.394339
-0.000506598
-0.400115
0.000443272
0.395502
-0.000246376
3.31936e-05
0.000303022
0.000457379
0.00111643
0.00344775
0.00145813
0.000825216
0.000451773
0.000179696
0.000102445
0.000139347
0.000152633
0.000137343
0.353563
2.8519e-05
0.36058
3.85317e-05
0.341857
0.32692
0.00131964
0.324718
0.19556
0.00515725
0.00111463
-0.000134027
9.74701e-05
-0.000653866
0.364616
0.00154743
-0.00161109
0.238966
-0.000328888
0.000820655
-0.00117573
0.260758
0.000356291
0.00191297
-0.243626
0.00184191
0.254162
-0.0009375
0.00124838
0.00139178
0.00100292
-7.20732e-06
0.372856
0.000172526
0.372354
8.65628e-05
0.000648492
0.38173
0.000303434
0.389991
-1.70742e-05
0.00177283
0.391318
-0.00266808
0.272513
-0.00116557
0.0040491
-0.258323
0.00831138
0.275906
-0.0105027
0.000300979
-0.00954587
-0.0347439
-0.0824282
0.00260988
-0.0121044
-0.00523522
0.00388308
0.0035616
0.399571
-0.000476208
-0.00121722
-0.00128235
-0.000387584
-0.00477365
-0.000236859
0.000652453
0.000510659
0.399447
0.389138
-0.000300651
-5.93531e-05
-0.000821171
-0.00162132
-0.00183827
-0.00789721
-0.00291916
-0.00299096
-0.00156836
-0.000595661
0.396783
-0.00112048
-0.000171478
0.000355818
0.000579571
-0.000645462
-0.00410432
-0.0136848
-0.00329807
0.00107808
0.00150464
0.0029583
-0.0019224
0.00261167
0.0040595
-0.0071459
0.0319712
0.0670231
-0.0482897
0.340853
0.00219529
-0.0175427
-0.0283617
-0.0136351
-0.00233226
0.00307857
0.00808702
0.0176954
0.029314
0.0314302
0.00120187
0.0142409
0.0141094
-0.269605
-0.137084
-0.282326
-0.138605
0.000295461
0.0190601
0.00369037
0.00129906
0.268986
0.319709
-0.000752688
0.00252564
0.00107005
0.00210271
0.00116614
0.00247632
-0.00308565
-0.0168187
0.125844
0.289716
0.0122236
-0.000217163
0.000823028
0.000808512
0.000458705
0.000527398
0.000250734
0.000255634
0.000220819
0.000125948
0.000854617
0.000852349
0.00164736
-0.00047882
-0.00183608
-0.326578
0.00344224
-0.318055
0.310748
0.00749098
-0.328395
-0.33947
0.319309
0.298899
0.00538227
-0.309271
-0.361645
0.341743
-0.00187701
0.285704
0.422401
0.00435316
-0.000707137
-0.00300225
0.00499938
0.00610605
0.00882259
0.0758307
0.115688
0.183651
0.433675
0.0314348
0.224748
0.332797
-0.0171235
-0.00603098
-0.00652022
0.000820056
-0.00309297
-0.00168159
0.295581
0.317069
0.309876
0.300867
0.00357576
-0.340811
-0.310274
-0.00203607
0.30409
0.00782032
-0.351991
-0.32363
-0.00347488
0.301649
0.321508
0.286125
-0.00286698
-0.00234569
-0.00270215
-0.000719734
0.000264731
0.00159582
0.000317625
0.000270008
-0.000750514
-0.000318574
-0.00305789
0.0291322
-0.00321243
-0.00201336
-0.00482224
-0.00387206
-0.00240023
-0.00408723
-0.00176733
0.0825918
-0.00203453
0.00179393
0.000265426
8.31402e-06
0.004793
0.00419324
-0.0317367
0.178866
-0.0797302
-0.30541
-0.382646
0.0292079
-0.176095
0.0733379
0.0232792
-0.108608
-0.117319
-0.0126551
-0.0190651
0.126328
0.115948
-0.0109946
-0.112953
-0.00201902
0.113234
-0.000547189
0.00143244
-0.000101636
0.00129292
0.00333683
0.00347302
0.0023575
0.000670024
0.000530307
-0.00123959
-0.00107652
-0.000145581
-0.000738222
-8.79706e-05
-0.000155229
0.00158338
0.00253687
0.00244169
-0.00236807
0.00373863
0.00662038
-0.0110496
0.367154
-0.0237742
0.0181575
-0.40846
0.0055001
0.00453248
0.0354121
0.0041267
0.00847431
0.0260494
-0.00193617
-0.000677603
-0.00247542
0.00686148
0.0727386
-0.0047248
-0.00277408
-0.00145569
0.00181458
-0.186587
0.216037
-0.00665564
0.00121588
-0.00900471
-0.0223027
-0.0251858
-0.00468187
-0.00223528
0.0885646
-0.00233273
-0.00279064
-0.00526156
-0.000892404
-0.00309932
0.0781473
-0.0051138
-0.00285136
0.0068862
0.00530494
-0.00100765
-0.0012516
-0.000820968
-0.00212007
0.00192055
0.00562433
0.00498728
0.004182
-0.00859847
0.0184274
0.018571
0.0212003
0.0269855
0.371433
0.0485528
0.00586658
-0.00764616
-0.000156539
0.00330713
0.00628068
0.0120564
0.000398864
0.322469
0.270417
0.000209897
0.000198799
0.000287384
-0.000629614
0.274255
0.327001
0.0010912
-0.330523
-0.299848
0.296199
-0.000609535
0.305658
-0.000950761
0.00901653
0.0196773
0.000799613
0.00074127
0.00439167
-0.000923839
0.00350348
-0.00201353
-0.0134502
-0.0066581
0.29377
0.313622
0.301519
-0.00726325
-0.00339995
-0.00175667
-0.0011487
-0.00187934
0.331577
0.279551
-0.00121921
0.000690501
0.000419398
-0.000707847
-0.00201083
0.284629
0.332498
-0.0034257
-0.000696288
-0.00141603
-0.00164644
-0.00260399
-0.00942384
-0.0459562
-0.292997
-0.105518
-0.0199906
-0.00156509
0.00126396
-0.00114406
0.00177932
0.00175707
0.00327229
-0.00679795
-0.0150679
0.0104351
-0.0178858
-0.0276137
-0.0172608
0.0157405
0.225675
0.324892
-0.0173704
0.00630576
0.215841
0.326654
0.00550178
0.205544
0.339756
0.162055
0.00133701
-0.00319814
0.333296
-0.00339985
0.0216587
0.11973
0.0202086
0.0439963
0.0466249
0.0445169
0.0590446
0.0371547
-0.00119135
-0.00506827
0.0451093
-0.0214588
-0.0100181
-0.00781145
0.0482678
0.00455796
0.0335474
0.0294566
0.206966
0.17469
0.193881
0.185127
0.189667
0.0408091
0.00659615
-0.000734746
-0.00678
-0.0825179
-0.276496
-0.26678
-0.00104194
0.00924567
0.168373
0.000118736
0.380718
0.00311209
0.000697747
0.000230808
-0.000417314
-0.0122382
-1.0145e-06
0.256931
0.37112
0.364273
-0.000185592
-0.0106515
-0.395369
0.00107151
0.00150191
0.000955793
-0.0362536
0.393717
0.0105369
0.00572843
0.00205466
0.00389014
0.0775022
0.00223829
0.211623
-0.247441
-0.0311152
-0.443493
-0.000139169
-0.0176429
0.087994
0.000591019
-0.450235
0.339652
0.00390759
0.190461
0.014803
0.0868622
0.177322
0.0308414
0.0329506
0.000950551
0.000953504
-0.00142358
0.264021
0.0111285
-0.0151597
-0.0216077
-0.00713054
0.00175206
0.000347528
0.000126831
0.000257609
0.000310289
5.60608e-05
-0.000955831
-0.00145696
-0.0132036
-0.00683449
0.240999
0.0196406
-0.399202
0.435693
0.0266247
0.310565
0.00287861
-0.283179
0.293981
0.0301329
-0.252824
0.271452
0.0068046
-0.25656
0.259801
0.00456128
-0.252198
0.253158
0.00342437
-0.24779
0.247431
0.000424841
-0.2456
0.240095
-0.00531303
-0.247347
0.226229
-0.0272586
-0.257202
0.167354
-0.1216
-0.32365
-0.0984514
-0.303115
0.0189314
0.198129
-0.199654
0.0113745
0.207144
-0.204956
0.00426011
0.208081
-0.213926
-0.00240809
0.207439
-0.212988
-0.0176012
0.200287
0.210254
0.324217
0.0819295
-0.234183
0.0030493
0.344445
-0.000628872
-0.350969
-0.00154218
0.336566
-0.0020464
-0.339831
-4.3425e-05
0.337872
0.00036042
-0.332779
0.00108869
0.342524
-0.0100825
-0.359889
-0.0155993
0.28079
-0.0496574
0.0645251
0.146126
-0.268156
0.273586
-0.326827
0.309078
-0.321676
0.318473
-0.322228
0.325877
-0.326451
0.334324
-0.332824
0.341486
-0.343545
0.352083
-0.351128
0.3716