/*--------------------------------*- C++ -*----------------------------------*\
| =========                 |                                                 |
| \\      /  F ield         | OpenFOAM: The Open Source CFD Toolbox           |
|  \\    /   O peration     | Version:  2306                                  |
|   \\  /    A nd           | Website:  www.openfoam.com                      |
|    \\/     M anipulation  |                                                 |
\*---------------------------------------------------------------------------*/
FoamFile
{
    version     2.0;
    format      ascii;
    arch        "LSB;label=32;scalar=64";
    class       volScalarField;
    location    "0.5";
    object      gradTx;
}
// * * * * * * * * * * * * * * * * * * * * * * * * * * * * * * * * * * * * * //

dimensions      [0 -1 0 1 0 0 0];

internalField   nonuniform List<scalar> 
5322
(
-0.0162327
0.00146991
0.00126531
-4.33748e-05
-6.22579e-05
-2.87683e-05
-8.64637e-06
-1.7118e-06
-1.43959e-07
7.5738e-08
6.6504e-08
8.7234e-08
6.03648e-08
-4.25058e-07
1.06408e-07
1.62799e-06
-1.02385e-06
3.87641e-07
-1.0523e-06
4.5613e-06
-4.4135e-06
2.24979e-05
-1.89146e-05
9.32555e-05
-8.9878e-05
0.00032416
-0.000304975
0.000985896
-0.000995282
0.00250372
-0.00234507
0.00570789
-0.00405323
0.0116274
0.00231482
0.0214158
0.0152667
-0.00608947
0.0163431
-0.00105837
-0.0156166
0.0155499
-0.000934142
-0.0165046
0.016524
-0.000503314
-0.0174935
0.0157196
-0.000271506
-0.0184165
-0.0184582
-0.0261832
-0.00924101
0.0153745
-0.000990366
-0.0246184
-0.000780143
0.0233317
-0.000242548
-0.0232315
-7.05836e-05
0.0226797
-9.47187e-05
-0.0228573
5.24497e-05
0.022396
0.000375635
-0.0226948
0.00145792
0.0188339
0.00150875
-0.0153291
0.0174544
-0.0178884
0.0171866
-0.0175081
0.0175396
-0.0175595
0.0201163
-0.0150949
0.00662
-0.0129519
-0.00924598
0.0124584
0.000785765
-0.00329859
0.0103058
-0.0295479
-0.00721895
0.0292888
-0.00138434
6.42051e-05
6.4068e-05
0.00191678
0.0127816
-0.0015601
0.00117489
0.000293229
0.0105647
-0.0259469
-0.0258545
0.0475242
0.000220002
0.00994838
0.0163311
0.00139492
0.000344364
0.000140251
3.88546e-05
-3.7277e-06
-9.84921e-06
-5.85679e-06
-2.33442e-06
-7.07016e-07
-2.19511e-07
-6.35115e-08
-5.59469e-07
-3.75669e-07
5.83447e-08
5.42253e-08
-6.48508e-08
1.34443e-07
-2.17467e-07
-4.43141e-08
-1.34519e-07
3.17846e-07
2.09126e-07
-1.84882e-08
1.91966e-07
5.61319e-08
1.00779e-08
2.11608e-07
1.8499e-08
3.45246e-08
2.06796e-07
-1.51205e-08
1.02231e-07
2.2768e-07
1.87295e-07
-1.74944e-08
-2.53941e-07
-7.13727e-08
9.91384e-08
-3.83578e-07
-5.7687e-07
6.56615e-08
1.09604e-09
-1.3905e-07
-4.17728e-07
-5.06952e-07
9.69199e-08
-9.64838e-08
-6.63436e-08
-5.03054e-07
-4.12396e-07
1.07082e-07
-1.57033e-07
6.24967e-08
-3.67961e-07
3.87043e-07
-1.47844e-06
-1.66239e-06
3.29086e-06
-8.02684e-06
-8.43363e-07
-2.16552e-06
-1.04835e-07
1.41482e-06
-2.94548e-07
6.90206e-07
3.17272e-07
5.21077e-07
-1.75198e-06
4.06551e-07
-1.58568e-06
1.88672e-06
2.54973e-06
-7.44507e-06
6.76729e-07
-6.53929e-06
1.05938e-05
1.36399e-05
-3.40481e-05
2.36861e-06
-2.91978e-05
5.08253e-05
6.37189e-05
-0.000140577
1.13452e-05
-0.000119006
0.000208034
0.000257201
-0.000509724
4.58179e-05
-0.000428664
0.000721142
0.000888345
-0.00160533
0.00015321
-0.00134547
0.00210249
0.00260089
-0.00433895
0.000424763
-0.00361677
0.00510309
0.00638964
-0.00981702
0.000970869
-0.00805581
0.00990523
0.012294
-0.00124944
0.0101238
-0.0256344
-0.0261635
0.047598
-0.00249244
-0.00260305
0.000100473
0.00209593
0.0127885
-0.000816888
0.00132212
-0.00135876
0.0098126
-0.0260362
-0.0257129
0.0473115
-3.24698e-05
0.00992271
0.001152
0.000503493
0.000158625
5.03211e-05
5.89492e-07
-9.00569e-06
-5.85459e-06
-2.40369e-06
-7.36855e-07
-2.31475e-07
-6.8481e-08
2.83357e-07
-4.39654e-07
4.45332e-07
-2.77153e-07
3.97351e-08
2.54088e-07
-1.37112e-07
2.38985e-08
-1.7233e-07
1.19588e-09
-2.48595e-07
-3.23078e-08
1.41998e-07
-1.67968e-08
1.23349e-07
-3.81333e-08
-1.98312e-07
-2.21821e-08
1.72786e-07
1.51387e-10
3.62583e-10
4.71913e-07
-1.54681e-06
1.55222e-06
-1.41725e-06
3.55749e-06
-7.48701e-06
1.8069e-05
-3.66527e-05
8.07096e-05
-0.00015565
0.000314253
-0.000569409
0.00105781
-0.00178133
0.00305193
-0.00471768
0.0074433
-0.010323
0.0149756
-0.00982324
0.000277217
0.00993678
0.000294584
-0.0145878
0.0100529
5.91669e-05
-0.00721347
0.00463454
2.77779e-05
-0.00294748
0.00176426
1.28064e-05
-0.00101663
0.000568578
5.21708e-06
-0.000300061
0.000156965
1.86297e-06
-7.64162e-05
3.74462e-05
5.84201e-07
-1.69206e-05
7.8239e-06
1.61409e-07
-3.28388e-06
5.90948e-09
3.30157e-06
-7.77588e-06
-1.38629e-07
-3.5374e-06
1.42453e-06
-3.08627e-08
-4.95236e-07
-5.83761e-08
4.27639e-07
-1.62716e-06
3.01895e-06
-7.89084e-06
1.59379e-05
-3.73684e-05
7.40542e-05
-0.000155439
0.00029654
-0.000559067
0.0010193
-0.00172491
0.00299366
-0.00451235
0.00740136
-0.00970642
0.0148739
-0.0096518
-0.00281555
0.00389722
0.00040304
-0.0138599
0.00904438
1.4886e-05
-0.00662469
0.00425602
-6.26394e-05
-0.00261114
0.0015815
-4.33608e-05
-0.000893687
0.000495548
-1.97351e-05
-0.000264552
0.000133105
-7.47169e-06
-6.75322e-05
3.08829e-05
-2.39791e-06
-1.49442e-05
6.23051e-06
-6.78469e-07
-2.89197e-06
1.02204e-06
-1.05543e-07
-2.64354e-07
2.49786e-07
4.63141e-07
-4.999e-07
-1.59524e-07
-1.72138e-07
4.87472e-07
-1.87651e-06
2.53305e-06
-8.57287e-06
-5.79234e-06
-7.77916e-06
6.60578e-07
1.88856e-06
2.12184e-06
-1.78871e-06
3.42367e-07
-1.39726e-06
-5.66942e-07
-3.73006e-07
-3.39822e-07
-1.47976e-08
-5.22231e-08
-2.82951e-07
-6.51148e-07
-5.26789e-07
-1.58557e-06
-1.77707e-06
2.32835e-06
-7.61779e-06
-2.66162e-06
1.2985e-05
-3.45992e-05
6.19025e-05
-0.000142015
-3.95917e-05
0.000252714
-0.00051278
0.0008778
-0.00160958
-0.000200481
0.00257397
-0.00432049
0.00628643
-0.00961535
0.00199386
9.98241e-05
-0.000148527
-0.000127485
-0.000161629
-0.0001969
0.0026892
-0.00445036
0.000461394
-0.00359603
0.00484058
0.00664249
-0.00965672
0.0011194
-0.00850125
0.00890564
0.0180863
-0.000232378
0.00197066
-0.0282088
-0.0263521
0.0459229
-0.00336363
0.000211795
0.000449323
-0.00771848
0.00121048
0.00267319
-0.00283644
0.000100936
0.0011354
-0.00100655
-3.22801e-05
0.000352209
-0.000330265
-2.13431e-05
8.52511e-05
-9.23181e-05
-9.75583e-06
2.06888e-05
-2.21068e-05
-3.51189e-06
4.25591e-06
-4.34912e-06
-1.08455e-06
1.1331e-06
2.00271e-07
1.11569e-07
-2.45467e-10
-1.49707e-07
1.98239e-06
-1.37214e-06
1.51574e-05
-4.00226e-05
7.54725e-05
-0.000168522
-0.000107939
-0.00014624
1.14665e-05
4.99157e-05
6.2447e-05
-3.54565e-05
2.34644e-06
-2.58928e-05
-1.01526e-05
-6.64601e-06
-1.77697e-06
-1.47016e-06
-2.44614e-06
-1.52108e-07
-4.96868e-07
-3.27112e-06
-7.9785e-06
-1.39013e-06
5.14562e-07
3.32852e-07
3.47147e-07
1.58724e-07
1.16413e-06
7.21444e-08
1.89273e-06
6.59144e-06
-1.79112e-05
-3.43897e-05
-0.000127855
-7.03304e-05
2.46432e-05
-9.08175e-06
2.34697e-06
3.50878e-05
-3.71436e-05
0.000313863
-0.000618314
0.0011033
-0.00197932
-0.00128087
-0.00166506
0.000159872
0.000700865
0.000907475
-0.000529641
4.70713e-05
-0.000397675
-8.95659e-05
-4.42252e-05
-1.96835e-05
-1.69211e-05
-3.59514e-05
-6.24357e-06
-1.32159e-05
-1.04028e-05
-2.38007e-06
-3.673e-06
8.91016e-06
2.3671e-07
-5.34779e-06
-8.072e-07
-4.00043e-08
-6.46677e-08
-9.01221e-08
-1.53318e-08
-6.60131e-07
-4.95092e-07
-4.00091e-07
-3.25512e-07
-1.54354e-07
7.55402e-06
-2.36307e-07
-1.79721e-05
1.70564e-05
-3.71414e-05
-4.10937e-07
3.7133e-05
-3.40528e-07
-8.02596e-05
7.72784e-05
-0.000155432
-8.19485e-07
0.000158241
6.0548e-07
-0.000312302
0.000304299
-0.000562354
-3.54368e-07
0.000580497
7.16519e-06
-0.00105105
0.00103303
-0.0017442
5.33755e-06
0.00181936
2.98482e-05
-0.00303399
0.00299632
-0.0045851
2.66641e-05
0.00481005
5.92457e-05
-0.00739839
0.00730686
-0.00997235
6.50719e-05
0.0104023
-4.94653e-05
-0.0148406
0.0146254
-0.00987196
-3.27297e-05
0.00980269
-0.00077932
-0.0021505
-0.00110618
-0.002785
-0.0232105
0.00402499
0.00135904
-0.00158687
-0.00309358
-0.000447787
-0.0116041
0.00306523
-0.00790636
-0.00893032
-0.000473795
-0.0023369
-0.00340396
-0.00124504
-0.000690127
0.000253024
-0.000228187
-0.000419019
-0.000373279
-0.000112975
-3.07943e-05
-7.50679e-06
-1.36138e-06
7.09084e-07
3.15215e-07
3.91977e-07
4.40506e-07
9.37301e-07
9.54111e-07
4.47116e-07
4.56407e-07
4.00315e-07
-4.63255e-07
6.23572e-08
-6.22261e-08
-4.05693e-08
5.63241e-08
-4.01427e-07
-1.31778e-08
1.77433e-10
4.60703e-11
2.2564e-09
-2.24955e-07
-3.26373e-07
-3.28811e-07
-2.20298e-07
2.2668e-07
-4.84228e-08
6.11074e-08
3.38112e-07
-1.41525e-07
-1.37649e-07
6.32555e-08
3.32388e-07
2.68322e-09
8.87473e-09
8.69162e-09
6.43297e-09
-1.64935e-07
-1.12899e-07
-4.64478e-07
-1.40868e-06
-2.94204e-06
-2.25492e-06
1.10482e-05
-5.78079e-05
-8.48253e-05
-0.000260692
9.81634e-06
-0.000123708
0.000340723
-0.000487852
0.00333835
-0.00542989
0.00869755
0.000124406
-0.00244309
-0.000604992
0.000691026
9.4322e-05
0.000537195
0.00067837
-0.00111182
-0.00297398
-0.00722394
-0.0182981
-0.0189628
-0.039444
-0.013366
-0.0110295
0.000118106
-0.00397276
0.00473474
-0.0380203
-0.0235853
-0.0118406
0.0161142
0.00134716
0.000661013
-0.0158949
0.0168116
0.000176588
-0.00210451
-0.0172479
0.0167525
2.63453e-05
-0.00237802
-0.0169258
0.0166438
6.10168e-05
-0.0037811
-0.0162355
0.011884
-0.0111554
0.0102089
0.00781037
0.0213977
-0.0101144
-0.00546712
0.00303085
0.0113658
-0.0320335
-0.00137267
-0.0183926
0.0200746
0.0201579
0.0178295
0.0226994
0.00913779
0.000771569
0.00769293
0.0107753
0.0159253
-0.00352697
0.00122101
0.00665787
-0.00258805
0.000120942
0.00266824
-0.00104529
3.80324e-05
0.000991592
-0.000324414
1.91796e-05
0.000324831
-8.566e-05
7.71177e-06
9.20923e-05
-1.94763e-05
2.34698e-06
2.23947e-05
-4.17513e-06
4.65338e-07
4.5793e-06
-1.0264e-06
-1.72877e-07
5.42497e-07
-4.56943e-07
-2.51679e-07
2.67998e-07
-1.01823e-06
2.93983e-06
-6.17093e-06
6.83346e-07
-3.01115e-06
1.62985e-06
1.09976e-07
-4.24136e-07
5.97985e-08
4.96944e-07
-4.7007e-07
3.39253e-08
4.53245e-08
4.19523e-09
1.02411e-08
6.13675e-08
3.18345e-07
4.4707e-07
3.50107e-06
1.7002e-05
-0.00010378
-1.70265e-05
-4.54709e-05
0.000119325
-0.000133036
3.83692e-05
1.20477e-05
8.43152e-05
8.59024e-05
0.000202471
0.000258814
-3.99569e-05
-0.000118021
0.000209446
4.52784e-05
-0.000427471
0.00072342
0.00015301
-0.00135109
0.00210236
0.000427714
-0.0036695
0.00508205
0.000972591
-0.00829202
0.00102272
0.00132673
-0.000668619
-0.00069908
-0.00690732
-0.00281733
-0.00107803
-0.000367964
-0.000112215
-3.08359e-05
-7.58899e-06
-1.39171e-06
7.19468e-07
3.16042e-07
3.98316e-07
9.57675e-07
6.78942e-07
-1.39701e-06
-7.81175e-06
-3.24629e-05
-0.000118647
-0.000384916
-0.00111115
-0.00287693
-0.00681644
-0.0169869
-0.0175186
-0.0291887
-0.0253569
-0.00887388
-0.00874261
0.0144952
0.00140671
-0.00176994
-0.00139219
0.00636367
0.000184173
-0.00526549
-0.00500822
0.00508342
-2.37687e-05
-0.00575153
-0.00548223
0.00448615
-4.68616e-06
-0.00716503
-0.00682791
0.00230515
-0.0109369
0.00814741
0.00791814
0.008264
0.00725116
-0.00915648
0.000654401
0.00302747
-0.0108902
0.00228365
-0.00985139
0.0109084
-0.0222
-0.000678206
-0.0213768
0.018593
0.0206092
0.0191078
0.0187172
0.0199844
0.0186478
-0.023211
-0.000876857
-0.0208857
0.0113555
0.0122146
0.011401
0.0120769
-0.000702852
-0.0223358
-0.0221418
0.0109477
0.0191231
0.0185281
0.0168906
0.02113
0.0217818
0.0164385
0.00442419
0.00869676
0.0038094
-0.00222294
0.00237096
0.0007674
-0.00175641
0.000792919
0.000238661
-0.000845676
0.000320642
0.000114597
-0.000337415
0.000110365
3.97177e-05
-0.000112486
3.57305e-05
1.54495e-05
-3.17162e-05
8.88404e-06
3.63857e-06
-7.80228e-06
1.8085e-06
7.90818e-07
-1.72113e-06
1.05437e-07
-7.49232e-08
-4.65656e-07
-1.45077e-07
-3.3383e-07
-4.38228e-07
-3.32086e-07
-2.27626e-07
-1.01189e-07
-1.86827e-07
1.62601e-08
2.51128e-07
-1.22513e-07
4.00034e-08
1.98649e-07
-1.75666e-07
7.89641e-09
1.82138e-07
-2.14082e-07
-3.37528e-08
-5.70481e-08
-5.3407e-07
-3.15999e-08
-1.58636e-06
-3.51269e-09
-3.31284e-06
1.57095e-07
7.82757e-06
-7.55382e-06
2.72367e-07
-1.58448e-05
2.45199e-06
3.73847e-05
-3.06857e-05
5.33389e-06
6.79903e-05
9.28632e-06
-0.000131632
1.75084e-05
0.000264699
2.50913e-05
-0.000485121
4.96466e-05
0.000885756
5.01156e-05
-0.00152259
0.000117295
0.00252852
9.00034e-05
-0.00403396
0.000244976
0.00613153
6.56805e-05
-0.00888707
0.000509145
0.0124257
0.000102628
-0.000639427
-0.0155577
-0.0113074
0.000729512
0.0101701
-0.000279532
-0.00752007
-0.00522264
0.00048227
0.00475399
-0.000116803
-0.00305603
-0.00210211
0.000231481
0.00182329
-4.34282e-05
-0.00104581
-0.000716478
9.67364e-05
0.000592078
-1.108e-05
-0.000300773
-0.000207061
3.4212e-05
0.00016391
-2.39394e-06
-7.32266e-05
-5.101e-05
9.96202e-06
3.93973e-05
-1.62639e-07
-1.48657e-05
-1.08243e-05
2.4813e-06
8.49686e-06
1.48835e-07
-2.50097e-06
-1.92167e-06
5.57848e-07
1.86178e-06
1.72426e-07
1.44163e-07
2.63613e-07
-2.52721e-07
-4.59057e-07
5.33883e-07
-1.76941e-07
5.15248e-07
6.63792e-07
1.38249e-08
4.92014e-08
-4.82104e-07
3.25041e-08
1.57365e-06
-1.43462e-06
1.17922e-07
-3.01056e-06
6.74102e-07
-6.22011e-06
1.4243e-06
1.51129e-05
3.28997e-06
9.2386e-07
3.30955e-07
1.82929e-07
3.55584e-06
1.71693e-07
1.7809e-08
-1.36e-07
3.00333e-08
2.53337e-07
2.41136e-08
1.43389e-08
2.04071e-09
-5.99062e-08
-7.17722e-08
-6.55566e-08
-2.75323e-07
-6.66602e-07
-5.07496e-07
-2.88392e-06
-2.84668e-06
-2.70616e-06
1.271e-05
1.06076e-05
-2.53757e-06
5.02939e-06
9.2262e-07
8.84094e-07
2.04138e-06
6.54458e-07
-6.46461e-06
1.09392e-05
2.27006e-06
-2.88543e-05
5.15669e-05
1.10462e-05
-3.53478e-06
-1.11011e-05
-1.14452e-05
-3.54378e-05
-8.96013e-05
-0.000108896
-9.15366e-05
-3.60474e-05
-1.12732e-05
-1.1284e-05
-1.04526e-05
-2.68487e-06
-2.63273e-06
-6.23165e-06
1.0528e-05
1.84071e-05
-3.77208e-05
8.54433e-05
-0.000159008
-1.01417e-05
-5.87725e-05
-1.60971e-06
3.38505e-05
-2.95731e-06
-1.24538e-05
-8.26142e-07
7.27821e-06
-2.30849e-06
-1.34675e-06
-1.0954e-05
-3.17543e-06
1.87843e-05
-2.65716e-05
-1.05714e-06
-9.12624e-05
-4.68597e-06
0.000169947
-0.000160763
-2.37227e-06
-0.000310327
-1.69018e-06
0.000567676
-0.000567272
-3.70726e-07
-0.00100689
5.52588e-06
0.00173487
-0.00177654
-1.02046e-05
-0.00282613
9.20263e-05
0.004461
-0.00682171
0.000101011
0.00978241
-0.013499
-1.75657e-05
-0.000511392
-5.82632e-05
4.3539e-06
2.26714e-05
1.59418e-05
7.5092e-06
2.73313e-06
7.93418e-07
2.4187e-07
7.12969e-08
-2.81198e-07
4.48577e-07
-4.40104e-07
-2.5116e-07
-1.87216e-10
4.48518e-09
-1.55826e-07
-1.35257e-08
1.45284e-07
-2.0289e-08
-1.43538e-08
-3.50009e-08
-8.66594e-09
-5.2978e-08
-2.55089e-07
-6.09941e-07
-5.17017e-07
1.72745e-06
7.75722e-07
-3.84918e-07
-3.82725e-07
-2.52148e-07
-6.95936e-08
1.43413e-07
1.52869e-07
-5.39931e-08
5.45043e-08
2.91786e-07
-4.69063e-08
-1.64992e-07
-4.68394e-07
-1.42743e-06
-2.92733e-07
-2.76446e-07
2.13054e-06
-1.32282e-07
-4.01949e-06
-4.14924e-07
7.94451e-06
-8.19091e-06
-4.47144e-07
-1.8047e-05
-4.06516e-07
-3.77143e-05
-1.29376e-07
-7.68504e-05
1.56791e-06
0.000156372
-0.000156896
9.92493e-07
-0.000290202
2.2176e-05
0.000557117
-0.000983426
5.04838e-05
0.00171013
9.06022e-06
8.53446e-06
4.42933e-06
1.69977e-06
5.09447e-07
1.95142e-07
8.17313e-09
2.2257e-09
-2.00899e-07
-7.76269e-07
-3.97719e-07
-4.43308e-07
-1.70364e-07
-2.02699e-07
4.56578e-08
4.23255e-08
4.50078e-08
2.39414e-07
2.64766e-07
1.10569e-06
1.21691e-06
1.36134e-06
4.74098e-06
1.20593e-05
6.09361e-05
0.0001494
-0.00063627
-6.29672e-06
-0.00137325
0.00265148
-0.0206605
-0.00604027
0.000433963
-0.00174359
0.0108416
-0.0103586
-0.0293729
-0.0122405
0.000241289
0.00341357
0.000630679
-0.0255913
-0.011497
-0.00790914
0.0138359
0.00141568
-0.001509
-0.00250138
0.00695858
0.000207283
-0.00491521
-0.00599895
0.00596452
-8.62031e-06
-0.00539584
-0.00631108
0.00553131
2.06837e-05
-0.00694577
-0.00721807
0.0011491
-0.000382021
4.92433e-05
3.81884e-05
0.00994327
-0.0090353
0.000242185
0.00639909
-0.000119924
1.87711e-06
-0.00805078
0.000416204
-0.00492754
0.00711313
0.000368548
-0.00987764
-0.017515
0.010511
-0.00116447
0.0019396
0.00594744
-0.000428683
0.015804
0.0113534
0.0126861
-0.0132029
0.000814042
-0.0110915
-0.00103996
-0.0122559
0.000913719
-0.0117435
-0.00104267
-0.0118133
0.000927858
-0.0126443
0.0117628
0.0115663
-0.000786299
-0.0274716
-0.0220039
0.0108796
-0.00797896
0.0120661
0.00706361
0.00828933
-0.00973244
0.00255874
0.00199185
-0.011178
0.00391347
0.00705578
-0.00922809
0.0165893
-0.00894719
0.00144647
-0.00773434
0.00103112
-0.00825222
-0.00642369
0.000930888
-0.000534087
-6.26351e-05
-2.72379e-05
1.79706e-05
2.79445e-05
1.75935e-05
7.93715e-06
2.82569e-06
8.1173e-07
2.44899e-07
7.24169e-08
-5.15953e-08
2.32943e-07
2.00727e-08
6.21174e-08
4.08945e-08
3.89553e-08
-1.22882e-07
7.30785e-08
3.88214e-07
-9.56229e-08
9.03913e-10
4.01148e-07
-1.00783e-07
-2.29257e-07
-1.86716e-07
3.43585e-07
2.55515e-07
1.92793e-08
1.53127e-08
-5.38376e-08
5.16908e-08
2.87173e-07
1.48862e-07
9.48612e-08
-8.30117e-08
5.10524e-07
5.13566e-07
9.11709e-08
1.51679e-07
4.68547e-07
-1.09466e-08
-2.21362e-07
-1.20728e-08
2.84866e-07
6.84425e-07
6.56889e-07
3.75823e-07
3.92547e-07
5.35357e-07
6.81358e-07
1.72793e-08
9.71099e-08
8.15166e-08
1.43727e-07
1.287e-07
-8.27383e-07
-6.40265e-06
-2.72057e-05
-8.16898e-05
1.29697e-05
-3.72231e-05
0.000143885
-0.00058147
-4.78456e-05
0.00111423
-0.00153806
-0.00040277
-0.000440345
-0.0148594
0.0142491
-0.000449603
-0.000329176
0.00111649
-0.000990279
-0.000426286
0.00268921
0.0043828
0.00242586
0.0108336
-0.00454276
0.00196342
0.0112938
0.0115848
-0.00232821
0.00148083
-0.000128029
0.000652193
-0.000172589
3.68185e-05
-0.000954214
3.73283e-05
4.30387e-05
4.20326e-06
-2.3453e-06
-1.72346e-06
-3.05721e-07
-3.36959e-07
5.10928e-07
1.70189e-07
3.47359e-07
2.56185e-06
1.06306e-05
3.70821e-05
0.000109873
0.000280227
0.000655211
0.000229462
5.57485e-05
0.0001407
5.62724e-05
1.30397e-05
1.69493e-06
4.13004e-06
1.48337e-06
2.86119e-06
1.00197e-06
-1.58227e-05
1.51319e-05
-3.03967e-05
6.78392e-05
-0.000130528
8.26705e-06
-7.29542e-05
3.74173e-05
2.49979e-06
1.62692e-06
5.36387e-07
3.165e-07
7.90935e-06
1.75442e-07
1.93888e-08
1.99255e-07
1.23358e-07
2.05133e-07
4.6287e-07
-5.60439e-08
5.79103e-07
4.23381e-07
-5.77765e-08
7.15445e-08
3.42761e-10
-1.63684e-08
6.01752e-08
-5.38647e-08
-1.56133e-08
6.70481e-08
-4.56437e-07
5.98542e-08
1.971e-08
6.3083e-08
4.14346e-08
2.41549e-09
1.45907e-08
5.1907e-08
6.4703e-08
-5.81644e-08
-5.45728e-08
5.80407e-07
-3.9679e-09
-9.35839e-08
-6.03917e-08
3.83257e-07
7.23946e-08
4.54392e-07
4.21789e-07
2.68288e-07
7.48723e-08
2.3937e-07
4.25924e-07
2.86148e-06
1.78385e-06
1.44474e-06
6.7823e-06
5.41771e-06
1.82781e-06
8.42147e-07
5.01681e-06
1.7806e-06
0.000155685
-0.000290302
0.000264398
-0.000483403
0.000889766
-0.001531
6.24903e-05
-0.000991356
0.000560348
2.42311e-05
1.01474e-05
2.11153e-05
1.78142e-05
5.46568e-05
4.93321e-05
1.09817e-05
2.21284e-06
4.02797e-06
4.34843e-06
1.09632e-05
1.10289e-05
1.85508e-05
4.84799e-05
4.98952e-05
-4.50926e-05
0.000199785
5.51387e-05
2.67751e-06
-5.92379e-06
-3.79622e-06
-1.4817e-06
-5.13122e-07
-6.18788e-07
2.45097e-07
-1.17864e-06
-1.558e-06
1.08603e-06
-1.27343e-06
-2.41316e-06
-6.37595e-06
-2.5754e-06
-1.42854e-06
-1.39126e-06
-6.22818e-07
4.12301e-08
2.08546e-07
8.81266e-07
2.96383e-06
3.82911e-06
3.34574e-06
7.08466e-07
9.89884e-06
2.08539e-05
1.69571e-05
1.57313e-05
4.98784e-05
0.000188999
6.35287e-05
6.16273e-05
0.00308484
-0.000406643
0.000405278
4.55862e-05
0.000148213
0.00627769
-0.00018371
-0.000863963
0.0058208
0.00229038
-0.0254428
-0.00961635
-0.0132723
0.0147445
-0.010874
-0.011686
0.0134622
-0.0142577
-0.000715344
-0.00102226
-0.0156024
0.0142887
2.27807e-05
-0.00055858
6.41796e-05
0.000294577
0.000371829
0.00611702
0.00238291
-0.0108127
-0.0106238
0.0161299
0.00135722
-0.00373602
-0.00112372
0.00596581
0.00013833
-0.0070741
-0.00456931
0.00456768
-1.76708e-05
-0.00734261
-0.0050186
0.00401025
-4.08033e-05
0.00644216
0.00627925
0.000320577
0.00982582
-0.009756
9.6796e-05
-0.00684277
-7.8916e-05
-9.74242e-05
-1.48605e-05
3.90868e-06
4.99129e-06
2.22858e-06
6.79552e-07
1.62324e-07
3.13851e-08
-5.16229e-07
-1.33296e-06
2.7782e-06
-2.81351e-05
5.14858e-05
1.25794e-05
-0.000115766
0.000211437
0.0003406
-0.000584352
0.00116227
-0.00185751
-7.48032e-05
-0.00083698
1.29621e-05
0.000520642
-3.05491e-05
-0.000238803
-9.40155e-07
0.000142276
-4.81207e-05
-3.31653e-05
-0.000203751
-3.64531e-05
0.000315279
-0.000405729
2.10756e-06
-0.00118149
-1.98157e-05
0.00198223
-0.00176617
6.17984e-06
-0.00292399
9.05306e-06
-0.00456566
-1.08978e-05
-0.00688662
-2.2055e-05
0.00986712
-0.0102592
-2.39905e-05
0.0137826
-2.97677e-05
-0.0135479
0.0134879
-4.17561e-05
-0.00998583
0.0101096
-0.0136543
5.80528e-07
2.12539e-05
9.32092e-05
4.14101e-05
5.30384e-06
-3.92196e-06
-3.24125e-06
-1.4434e-06
-5.37436e-06
-1.65416e-05
-3.34794e-05
-3.82825e-05
-8.5798e-05
-0.000104922
-0.000418839
0.000732756
0.000158713
-0.00131778
0.00213614
0.0033732
-0.00508061
0.00824757
-0.0116641
8.64656e-05
-0.00714262
0.000716666
0.00439106
-0.000124991
-0.00257831
0.000110297
0.00164077
-0.000415095
-0.000259037
-0.00197058
-0.000155161
0.00291133
-0.0033839
8.6768e-05
-0.00806772
1.95215e-05
0.0117043
-0.01
8.7544e-08
0.0137033
8.4704e-05
-0.0157073
0.00930871
6.28644e-05
-0.00775417
0.00645488
-0.0111121
4.41125e-05
-0.00281712
-0.0013338
-0.00214738
-0.00346142
0.00945542
-0.0175722
0.00365996
-0.00564122
-0.00221547
-0.000836428
-0.000290658
-8.91219e-05
-2.35894e-05
-5.16965e-06
-5.37064e-07
1.85175e-06
5.11108e-07
-2.35128e-07
1.72874e-07
-8.99047e-08
1.11777e-06
-1.2342e-06
5.90623e-07
-7.34054e-08
-4.96705e-07
-5.82571e-08
1.40571e-06
-1.67793e-06
-1.51354e-07
-3.58484e-06
-1.23231e-07
-7.89597e-06
-4.17487e-08
-1.70396e-05
5.48079e-07
3.74024e-05
-3.69927e-05
6.43426e-07
-7.3116e-05
7.89819e-06
0.000155402
2.51644e-06
1.18957e-06
8.07005e-05
5.06184e-07
1.80861e-05
-5.93962e-08
-4.54603e-07
-1.73142e-07
-1.47577e-07
-1.05451e-07
4.40985e-07
-6.14618e-08
-9.20561e-08
1.43775e-07
3.00359e-07
-1.83997e-06
-7.89754e-07
-5.52094e-06
-4.19402e-07
-2.04533e-05
-1.54909e-06
3.94189e-05
-3.87129e-05
-1.19955e-06
-8.02722e-05
-1.04474e-06
-0.000157509
-2.41256e-07
-0.000300268
3.58751e-06
0.000563424
-0.000571566
-6.12515e-07
0.00104069
1.26601e-06
2.10976e-06
0.000312571
-4.33587e-07
-1.58187e-06
-1.04928e-06
-1.07498e-06
1.62692e-05
-4.2252e-07
3.11524e-06
3.35235e-08
-9.8116e-07
3.94406e-06
-9.76246e-07
3.8917e-07
-4.76418e-06
1.10475e-05
-4.74158e-06
-8.32305e-06
-5.15378e-05
-1.16687e-05
-0.000111951
-1.52103e-06
-0.000354076
-1.13062e-05
0.000628709
-0.000576009
-1.90929e-06
-0.00103217
1.37289e-07
-0.00174697
-1.61766e-06
-0.00287084
1.27197e-06
0.00452717
-0.00467395
-3.36866e-05
0.00704529
-8.71685e-06
4.05342e-06
8.01266e-06
9.82407e-06
1.72914e-05
8.16186e-06
2.96574e-06
8.5475e-07
8.1882e-07
7.32885e-07
2.31731e-06
4.63174e-06
1.12485e-05
3.68754e-05
0.000100465
1.47518e-05
1.24572e-05
6.06736e-06
6.26702e-06
2.5236e-06
4.25439e-06
1.57025e-06
-2.08945e-06
-1.19241e-05
2.67301e-06
-1.16152e-05
3.22432e-05
1.13112e-05
-5.54451e-05
-5.69619e-05
3.28512e-05
3.028e-05
1.12564e-05
-5.32175e-05
-5.99153e-05
3.4718e-05
-1.2251e-05
2.6619e-06
-1.13116e-05
6.78508e-06
7.29747e-06
7.19622e-06
6.84191e-06
2.67275e-06
-1.19472e-05
-1.15894e-05
-2.09503e-06
3.06927e-05
1.12826e-05
-5.84945e-05
-5.46264e-05
-1.02857e-05
0.000124443
4.01042e-05
-0.000241581
-0.000221617
-0.000226474
-0.000232547
4.04573e-05
0.000130195
0.000132917
-1.02159e-05
0.000122479
4.01525e-05
-0.000215895
-0.000247177
0.000141482
-1.07563e-05
-4.98653e-05
-7.42152e-05
9.83118e-06
2.66491e-05
-2.22986e-06
-1.06027e-05
-1.51403e-05
2.43218e-06
5.99683e-06
7.66271e-06
-2.04905e-06
5.22002e-07
-2.11353e-06
-6.15487e-07
-2.13552e-06
5.17778e-07
-2.08801e-06
-6.15692e-07
-2.15451e-06
5.25528e-07
-2.00022e-06
7.54397e-06
6.01125e-06
-6.43678e-07
-8.84404e-07
1.39632e-06
-6.90718e-07
-3.18077e-07
-3.77374e-07
-4.54372e-07
-4.3025e-07
-4.35107e-07
-3.45733e-07
-7.2133e-07
-9.46244e-07
-4.50186e-07
-3.81637e-07
-3.18966e-07
-2.05895e-07
1.60891e-08
-3.12396e-08
4.69198e-07
-3.88793e-07
1.63731e-06
1.71406e-06
1.70225e-06
1.64012e-06
1.74798e-06
1.42088e-06
-3.35832e-07
4.00409e-07
1.75018e-08
-2.04868e-07
-3.234e-08
2.85824e-07
6.54633e-07
2.84837e-06
2.92957e-06
1.15048e-05
3.76069e-05
8.04718e-06
-4.17753e-05
0.000469355
0.000119185
-0.000785301
-0.000806249
-0.000745745
-0.000862297
0.000117814
0.00043413
0.000502004
-4.33504e-05
-0.000202342
-0.000305244
3.39422e-05
0.000109392
0.000165613
-1.87573e-06
9.84747e-06
-3.2571e-05
1.46527e-05
3.76102e-05
-0.000115971
4.37746e-05
0.000124943
-0.000344957
0.000122807
0.000401703
-0.000817979
0.000429012
0.00148689
-0.000312127
0.0014659
-0.000486356
0.000572793
-0.000225056
0.000214833
-7.86101e-05
6.98766e-05
-2.27562e-05
1.91649e-05
3.99721e-06
-7.84752e-06
3.97694e-05
-9.68324e-08
2.01149e-06
-1.7367e-06
8.25678e-07
3.89902e-06
-5.86317e-06
-1.71327e-06
1.48437e-07
1.63998e-07
-2.55393e-06
5.48447e-07
-1.89064e-06
-6.44167e-07
-8.86277e-07
1.48911e-06
-4.82666e-07
-3.33668e-07
-4.37129e-07
-3.3747e-07
-1.43781e-07
-4.75028e-07
-7.20588e-08
5.9432e-08
-1.15381e-06
1.79339e-07
1.88087e-06
1.42683e-06
1.76403e-06
-3.36576e-07
-9.32116e-07
-6.90446e-07
1.4161e-06
7.7648e-06
8.37226e-06
3.48745e-05
0.000123948
0.000376643
9.67242e-05
-0.000699523
-0.00106548
0.000598684
0.000393867
-7.99595e-05
-2.16732e-05
-4.76491e-06
-4.3695e-06
3.10248e-05
0.000108048
0.000323645
-0.000241593
-0.000142345
0.00152786
0.000285088
-0.0021769
-0.00254287
-0.00203661
-0.00316788
0.000226395
0.00122477
0.0018595
-2.94952e-05
6.04867e-05
1.9386e-05
1.09496e-05
2.63896e-05
5.3737e-05
-0.00288967
0.00257557
-0.00410402
0.000173749
0.000225291
0.000118597
0.00011002
1.8205e-05
-1.38134e-06
0.00173131
2.11013e-05
-9.77067e-06
0.00454899
0.000139998
3.38311e-06
0.000225857
0.000413759
-6.8129e-05
3.31941e-06
1.70353e-05
9.97452e-06
1.14117e-05
5.80269e-06
2.42539e-05
7.1249e-06
-1.50606e-06
-1.0269e-05
-4.71732e-06
-4.85507e-06
-3.47707e-06
-1.61494e-06
-1.30109e-06
-3.50023e-06
-6.01019e-06
4.88505e-05
0.000101285
2.85844e-05
2.12228e-05
2.11356e-05
2.30459e-05
4.63699e-06
4.7226e-06
9.1076e-07
1.43441e-06
1.0997e-06
6.79897e-06
7.86819e-05
7.82956e-05
0.000236124
0.000238926
0.000266265
0.00057187
0.000565356
0.000716909
0.000298852
-0.00355071
0.00519297
0.000994784
-0.00784811
0.00130959
0.00104999
-0.000649604
-0.00118862
-0.019606
-0.0217761
-0.0374928
0.00963337
0.00279051
0.0161576
-0.00597622
0.0104119
-0.00107967
-0.0114188
0.0105423
-0.000199385
0.00639278
-0.0002505
0.00985157
-0.0107773
-0.000842783
-0.000257568
-0.000259903
0.000157021
-0.000962467
0.00652263
-0.000220521
0.000482358
0.00016587
5.04961e-05
6.87444e-05
7.43248e-06
6.06526e-06
-0.000168353
-0.000161306
-0.000197886
-0.000152646
-4.37293e-05
-4.91447e-05
-7.13325e-05
-4.06144e-05
0.000706127
-0.00126182
2.39464e-05
-0.00336305
-1.63238e-05
0.00528932
-0.00459443
2.42171e-05
-0.00697788
2.00481e-05
0.00690636
-3.79991e-07
2.7903e-06
3.17711e-09
-6.41322e-07
3.83911e-05
0.000433732
6.37883e-05
1.32518e-05
-6.68678e-07
-2.75291e-06
-2.08337e-06
3.65944e-07
7.16027e-08
8.99867e-09
1.71593e-05
-3.92659e-07
3.66364e-05
-1.33204e-07
7.48665e-06
3.33599e-06
-3.83321e-08
1.45686e-06
4.89525e-07
9.65138e-09
-9.72672e-09
-1.51487e-08
-8.95846e-07
-2.44817e-06
7.4857e-05
2.24104e-06
-1.8396e-05
8.26063e-05
-1.79414e-05
1.02585e-05
-6.07569e-05
0.000206446
-5.3961e-05
-0.000103381
-0.000686824
-8.9279e-05
0.00103808
-0.000170184
-0.000139919
0.000116456
3.84054e-05
-3.45953e-06
0.000297456
-1.08935e-06
0.000302532
6.85011e-07
3.55775e-06
0.00101076
2.03916e-06
0.00176469
1.25724e-05
4.59954e-05
0.00291141
-0.000430636
0.00204331
-0.000375364
-0.000587571
-0.00496442
-0.000114039
0.0049306
-0.00107814
0.000258018
0.000100639
-0.00151603
-0.00472959
-0.000259016
-0.000736254
-0.000268515
0.000194086
0.00016541
0.00702254
3.69472e-05
3.60474e-05
9.25926e-06
-5.88396e-05
-0.000263118
4.83891e-06
3.5264e-05
1.51238e-05
0.00463336
0.00288983
-4.54889e-06
-1.21873e-06
-1.91142e-05
-6.6809e-05
-0.000111253
-0.000522227
-0.000177852
-0.000136029
-4.64546e-05
-8.90301e-06
0.00295009
9.27481e-07
8.1973e-06
5.3621e-06
3.69538e-05
1.05102e-05
2.5145e-06
4.61963e-07
1.8059e-06
0.000109499
0.000275399
0.000606108
-1.07594e-05
0.000322413
0.000169444
-0.000433134
0.00206447
0.00509157
-0.00335765
0.0201472
0.00339644
0.00238249
0.0016606
0.00136366
0.000765066
0.000318219
0.000107082
3.07441e-05
7.67568e-06
7.76207e-06
1.42853e-06
-8.38821e-07
-8.41203e-07
-9.45065e-07
-3.88905e-07
-9.26618e-07
-4.79761e-07
1.46154e-06
8.25348e-06
-4.76665e-06
-2.24727e-06
2.68705e-05
3.40719e-05
1.11688e-05
1.54752e-06
7.944e-07
2.35155e-07
6.79312e-07
1.58471e-06
1.76981e-06
3.72383e-07
3.38846e-07
2.92158e-06
9.93073e-07
6.71118e-06
4.38933e-06
4.1556e-06
2.40568e-06
2.03484e-06
4.85527e-06
5.7923e-06
7.65076e-06
3.65042e-05
9.90982e-05
0.000102036
0.000228472
-2.76023e-05
-0.000379052
-0.00236712
0.000291523
-0.00230061
0.00352729
0.000606131
-0.00566624
-0.00586576
0.00363315
0.00339733
0.000574603
-0.00534409
-0.00632436
0.00391453
-0.000384497
0.00324843
0.00490486
-5.39437e-05
9.53146e-05
-0.000605186
0.000964072
0.002033
0.00336625
0.00428927
0.00365864
0.0113836
0.0265803
0.00474198
0.0140821
0.0208906
-0.00244258
-0.00127329
0.00150991
0.00079828
-0.000543239
-0.00021996
0.00132301
0.00142232
0.00138836
0.00134244
0.000287697
-0.00247314
-0.00224837
-0.00038184
0.00344994
0.000602472
-0.00610075
-0.00558828
-0.000847562
0.00733516
0.00783373
0.00692609
-0.000839534
-0.000102323
-0.000166598
2.45096e-06
9.00662e-06
5.26012e-05
5.81957e-06
6.94286e-06
-2.37894e-05
-1.17872e-05
-0.000195626
0.00195532
-0.000219414
-0.000121448
-0.000261106
-0.000301155
-0.000194643
-0.000318812
-0.000136078
0.0049441
-0.000180063
6.63503e-05
1.67362e-05
7.4366e-06
0.000120851
0.000110331
-0.00257452
0.0119925
-0.00715181
-0.0235328
-0.0256615
0.00257338
-0.012616
0.00555529
0.00187686
-0.00783208
-0.00897988
-0.00075659
-0.0011109
0.00757933
0.00708751
-0.000727635
-0.00693491
-0.000161915
0.00686184
-9.84722e-06
5.34302e-05
-7.02894e-06
4.56614e-05
0.00022574
0.000232075
0.000149577