/*--------------------------------*- C++ -*----------------------------------*\
| =========                 |                                                 |
| \\      /  F ield         | OpenFOAM: The Open Source CFD Toolbox           |
|  \\    /   O peration     | Version:  2306                                  |
|   \\  /    A nd           | Website:  www.openfoam.com                      |
|    \\/     M anipulation  |                                                 |
\*---------------------------------------------------------------------------*/
FoamFile
{
    version     2.0;
    format      ascii;
    arch        "LSB;label=32;scalar=64";
    class       volScalarField;
    location    "0.5";
    object      gradTz;
}
// * * * * * * * * * * * * * * * * * * * * * * * * * * * * * * * * * * * * * //

dimensions      [0 -1 0 1 0 0 0];

internalField   nonuniform List<scalar> 
5322
(
-0.855957
-0.860656
-0.866681
-0.939248
-0.906546
-0.880214
-0.858212
-0.84074
-0.828532
-0.824577
-0.808952
-0.809014
-0.608197
-0.838849
-0.917545
-0.733286
-0.866638
-0.649594
-0.916072
-0.927718
-0.939022
-0.940381
-0.948864
-0.961532
-0.971873
-0.975976
-0.988782
-1.00452
-1.01918
-1.02655
-1.04205
-1.05743
-1.06668
-1.0627
-1.02477
-0.849841
-0.972275
-0.986075
-1.0176
-0.721022
-0.945833
-0.976152
-0.707911
-0.977443
-0.967839
-0.719796
-0.991098
-0.935739
-0.710547
-0.970024
-1.08975
-0.775246
-1.05926
-0.986399
-0.918289
-0.937198
-1.11892
-0.922166
-0.926796
-0.937705
-1.13227
-0.934588
-0.927096
-0.914611
-1.13161
-0.966306
-0.922857
-0.868839
-1.10555
-1.02671
-0.76498
-1.18346
-1.127
-1.11088
-1.12251
-1.11706
-1.11645
-1.11267
-1.12761
-1.06885
-1.01979
-0.789501
-0.818412
-1.09839
-0.743615
-0.992885
-1.35451
-0.834996
-0.853154
-0.762724
-0.961296
-0.834913
-0.880752
-0.874462
-1.06944
-0.938496
-0.929057
-0.951835
-1.37834
-0.812333
-0.819576
-0.774938
-0.959095
-1.05698
-1.15037
-0.901918
-0.955651
-0.944084
-0.915129
-0.8922
-0.870881
-0.852102
-0.836297
-0.828321
-0.946094
-0.934695
-0.654427
-0.708952
-0.945616
-0.781239
-0.692178
-0.841479
-0.829682
-1.16865
-0.870671
-1.14435
-0.821799
-0.85811
-1.12469
-0.818346
-0.839868
-1.13485
-0.831032
-0.824236
-1.14004
-0.84277
-0.829338
-1.17054
-0.871348
-1.14448
-0.823871
-0.694548
-0.781337
-0.699042
-0.655652
-0.945748
-0.709003
-0.704044
-0.646975
-0.651253
-0.943991
-0.705005
-0.702285
-0.647361
-0.652785
-0.943738
-0.7064
-0.698702
-0.694289
-0.917417
-0.73222
-0.867787
-1.01201
-0.992846
-0.62845
-0.916281
-0.649669
-0.87895
-0.601132
-0.812764
-0.839879
-0.780214
-0.809058
-0.938088
-0.772457
-0.953979
-0.947277
-0.918432
-0.765884
-0.916859
-0.94354
-0.945447
-0.942833
-0.786114
-0.94393
-0.954415
-0.955597
-0.960634
-0.801224
-0.961536
-0.972456
-0.973284
-0.980698
-0.818379
-0.981984
-0.995083
-0.996389
-1.00339
-0.838599
-1.00547
-1.02179
-1.02408
-1.02837
-0.861315
-1.03139
-1.05002
-1.05357
-1.05627
-0.882807
-1.06064
-1.06166
-1.06506
-0.94975
-1.37901
-0.812566
-0.809738
-0.777582
-1.09096
-1.08803
-0.88082
-0.874791
-1.06627
-0.94599
-0.918038
-0.958496
-1.37459
-0.817029
-0.809485
-0.779072
-0.946236
-1.06292
-0.928666
-0.938187
-0.942435
-0.915011
-0.892644
-0.871276
-0.852344
-0.836403
-0.828306
-0.946064
-0.93494
-0.651576
-0.649578
-0.649075
-0.651527
-0.943621
-0.702228
-0.706153
-0.710081
-0.839665
-1.18042
-0.702423
-0.943664
-0.705949
-1.1738
-0.855579
-1.12095
-0.817781
-0.710258
-0.839592
-1.12119
-0.598773
-0.804754
-0.772933
-0.772038
-0.809307
-0.946599
-0.918598
-0.944902
-0.942863
-0.955353
-0.960545
-0.973246
-0.980642
-0.996565
-1.00332
-1.02463
-1.02807
-1.0548
-1.05518
-1.07183
-0.937662
-1.37857
-0.955552
-0.928741
-1.05921
-1.06321
-0.883287
-1.04972
-1.0327
-0.861733
-1.02226
-1.00599
-0.838893
-0.995714
-0.982084
-0.818546
-0.973087
-0.961375
-0.801293
-0.955245
-0.943395
-0.786108
-0.944857
-0.915881
-0.76568
-0.955281
-0.78238
-0.954221
-0.916901
-0.765687
-0.94756
-0.809118
-0.937882
-0.778533
-0.606054
-0.841704
-0.733459
-0.958291
-0.920389
-0.943118
-0.948269
-0.954846
-0.964045
-0.974058
-0.983306
-0.998033
-1.00559
-1.02794
-1.02698
-1.06211
-1.0454
-1.07493
-0.942929
-1.35909
-0.99631
-0.895539
-1.14238
-1.14246
-0.855112
-1.1292
-1.10777
-0.83454
-1.09717
-1.07704
-0.811438
-1.06647
-1.0508
-0.791461
-1.042
-1.02992
-0.775237
-1.02302
-1.01285
-0.761709
-1.01243
-0.993184
-0.743179
-1.01185
-0.867628
-0.917123
-0.812495
-0.858068
-0.748935
-0.881804
-0.599438
-0.684186
-0.779053
-0.715333
-0.980555
-0.958574
-0.923558
-0.917416
-0.763748
-0.947739
-0.961566
-0.744534
-0.941826
-0.828087
-0.788543
-0.774986
-1.13963
-0.918925
-0.871232
-1.17022
-0.840772
-0.783963
-0.799668
-0.777177
-0.95523
-0.915872
-0.777506
-0.945526
-0.94339
-0.955748
-0.961404
-0.797085
-0.973881
-0.981558
-0.997228
-1.0042
-0.832796
-1.02502
-1.02875
-1.05398
-1.057
-0.875661
-0.881684
-0.858453
-0.858613
-0.837363
-0.834406
-1.02848
-1.02892
-0.860232
-1.03797
-1.0428
-1.05986
-1.05148
-0.880119
-1.07189
-1.0449
-1.16525
-0.906548
-1.35208
-0.82744
-0.790744
-0.797965
-1.05213
-0.829533
-0.740183
-1.07475
-0.713809
-1.0202
-1.04059
-0.6922
-1.01165
-1.00652
-0.672471
-0.993349
-0.982726
-0.656562
-0.96816
-0.956518
-0.644082
-0.953657
-0.940637
-0.635257
-0.937901
-0.922745
-0.628034
-0.920904
-0.704532
-0.679227
-0.847591
-0.74121
-0.827723
-0.863215
-0.962639
-0.978818
-0.977834
-0.991999
-0.962017
-0.964038
-0.799602
-0.957371
-0.956798
-0.947026
-0.785012
-0.944118
-0.78592
-0.743799
-0.736644
-0.654703
-0.7638
-0.740889
-0.710692
-0.828793
-0.82314
-0.80848
-0.813709
-0.631225
-1.02894
-0.570033
-0.766074
-0.81461
-0.798892
-0.810574
-0.839699
-0.827334
-0.839498
-0.855993
-0.823132
-0.875034
-0.772305
-0.873159
-0.885387
-1.00042
-1.00984
-1.02598
-1.03161
-1.00806
-1.00616
-0.837243
-0.996733
-0.999246
-0.98373
-0.816733
-0.983193
-0.815455
-0.773481
-0.756802
-0.672157
-0.784986
-0.776116
-0.74297
-0.771112
-0.745336
-0.715571
-0.856417
-0.759602
-0.66106
-0.828415
-0.827423
-0.811972
-0.809575
-0.764319
-0.741529
-0.738315
-0.64802
-0.81081
-0.800373
-0.91809
-0.776298
-0.945634
-0.944019
-0.944151
-0.786245
-0.942609
-0.782797
-0.955772
-0.95485
-0.961634
-0.801516
-0.960814
-0.795429
-0.973322
-0.973422
-0.981596
-0.818888
-0.981574
-0.811908
-0.996123
-0.997106
-1.00414
-0.839376
-1.00537
-0.831019
-1.02263
-1.02563
-1.02806
-0.862225
-1.03221
-0.851887
-1.04887
-1.05606
-1.05464
-0.883036
-1.06232
-0.871632
-1.05892
-1.06906
-0.948274
-0.927079
-0.94846
-0.782566
-0.812932
-0.781578
-0.735834
-1.0482
-0.739609
-0.993171
-0.809177
-0.775263
-1.00496
-1.0277
-0.870431
-0.919432
-0.920366
-0.913932
-0.918267
-0.900368
-0.877272
-0.898202
-0.862156
-0.8755
-0.85671
-0.850547
-0.834494
-0.823272
-0.819663
-0.803606
-0.80209
-0.609619
-0.832989
-0.737269
-0.767721
-0.771345
-0.785218
-0.811352
-0.940277
-0.708618
-0.873079
-0.861699
-0.870917
-0.884184
-0.692741
-0.870274
-0.87292
-0.868855
-0.94116
-0.636369
-0.640577
-0.639448
-0.638394
-0.636348
-0.634064
-0.944364
-0.638426
-0.63772
-0.637942
-0.944423
-0.639489
-0.946614
-0.950039
-0.947997
-0.840818
-0.83928
-0.779863
-0.775329
-0.78348
-0.797751
-0.815261
-0.835301
-0.792416
-0.704425
-0.820076
-0.810573
-0.775084
-0.918491
-0.926827
-1.06213
-1.04322
-1.11546
-0.862258
-0.923451
-0.781075
-0.952945
-0.835449
-0.887729
-0.905737
-0.869866
-0.891917
-0.919297
-0.979289
-0.967709
-0.955569
-0.894624
-0.852993
-0.865664
-0.90772
-0.723111
-0.796561
-1.08804
-0.984864
-1.02084
-1.04787
-0.690237
-0.863968
-0.910526
-1.07848
-0.714594
-0.899131
-0.915396
-1.08368
-0.717496
-0.887845
-0.926289
-1.07993
-0.731551
-0.877659
-0.981533
-1.34376
-1.01247
-0.988326
-1.24419
-1.2082
-0.980222
-0.737997
-1.05932
-0.987161
-0.917836
-0.935254
-0.937622
-0.71088
-0.968333
-1.09025
-0.775028
-1.02047
-0.789947
-0.819135
-1.09877
-1.0286
-0.825494
-1.07322
-1.02812
-0.822998
-1.03599
-1.01195
-0.802967
-1.00537
-0.989726
-0.784722
-0.979683
-0.968782
-0.767499
-0.959445
-0.950851
-0.755536
-0.942156
-0.937789
-0.733245
-0.928147
-0.915713
-0.70924
-0.879335
-0.745106
-0.856963
-0.811516
-0.867329
-1.01219
-0.99262
-0.74318
-0.960091
-0.731937
-0.917509
-0.841342
-0.606164
-0.777541
-0.805291
-0.93809
-0.768935
-0.807267
-0.810525
-0.825248
-0.828537
-0.830606
-0.842442
-0.858991
-0.801835
-0.777896
-0.746544
-0.899489
-0.911387
-0.808946
-0.788188
-0.840509
-0.854729
-0.974274
-0.975377
-0.798629
-0.96115
-0.972764
-0.81905
-0.981766
-0.99549
-0.839431
-1.00533
-1.02212
-0.862012
-1.03115
-1.04958
-0.882736
-1.05864
-0.927159
-0.936132
-0.943674
-0.948738
-0.924253
-0.89343
-0.87069
-0.851277
-0.835373
-0.8242
-0.820664
-0.806152
-0.804714
-0.605956
-0.805292
-0.768553
-0.808116
-0.809498
-0.824874
-0.828306
-0.839888
-0.85615
-0.875765
-0.898526
-0.927472
-0.995399
-0.989593
-0.734543
-1.32387
-0.994345
-0.954267
-0.916546
-1.08361
-0.718686
-0.720466
-0.787694
-1.12817
-0.750839
-0.762188
-0.776956
-1.13458
-0.754267
-0.765592
-0.770467
-1.13021
-0.770949
-0.784212
-0.853201
-1.42745
-1.02592
-1.00151
-1.00624
-0.997242
-0.838016
-0.803931
-0.856399
-1.42218
-0.847218
-0.853125
-1.13153
-0.936101
-0.926567
-0.913651
-0.98209
-0.707427
-0.972131
-0.97284
-0.721317
-0.987317
-0.924638
-0.926243
-0.934414
-1.11808
-1.11434
-1.12424
-1.10903
-0.927143
-0.880891
-0.958918
-1.13333
-0.953081
-0.728076
-1.01247
-0.888649
-0.726995
-1.21149
-0.666318
-0.912946
-0.794988
-0.969532
-0.963246
-0.798622
-0.971031
-0.949346
-0.798531
-0.9386
-0.932719
-0.761814
-0.920407
-0.902827
-0.761441
-0.891318
-0.890509
-0.725928
-0.88032
-0.867422
-0.73069
-0.856137
-0.863364
-0.702008
-0.836321
-0.839077
-0.680868
-0.779503
-0.567917
-1.02537
-0.737895
-0.631878
-1.17013
-0.829941
-0.870816
-1.14304
-0.822992
-0.85655
-1.12337
-0.817224
-0.841016
-1.13469
-0.833108
-0.821981
-1.13932
-0.611388
-0.78432
-0.940713
-0.774755
-0.782775
-0.953101
-0.765703
-0.916818
-0.917256
-0.776257
-0.943419
-0.761617
-0.947047
-1.01251
-0.661263
-1.02306
-0.643278
-1.02896
-0.672011
-1.04037
-0.655538
-1.05084
-0.686448
-1.06392
-0.670911
-1.07618
-0.703707
-1.09062
-0.688872
-1.10677
-0.723769
-1.12095
-0.709147
-1.14174
-0.746082
-1.14272
-0.728012
-0.857618
-1.09094
-1.06551
-0.889832
-1.09267
-0.847096
-1.07773
-1.04607
-0.860929
-1.06253
-0.824889
-1.04746
-1.01947
-0.836973
-1.03374
-0.803789
-1.0221
-0.994571
-0.816138
-1.01047
-0.785425
-0.99836
-0.973332
-0.799263
-0.989333
-0.770442
-0.980744
-0.956804
-0.786478
-0.975722
-0.758358
-0.966406
-0.947446
-0.780966
-0.952594
-0.740901
-0.985467
-0.947408
-0.788606
-0.712243
-0.683508
-0.600151
-0.812728
-0.858081
-0.745207
-0.879593
-0.707282
-0.736002
-0.743648
-0.766049
-0.769445
-0.803065
-0.938446
-0.772723
-0.807349
-0.779866
-0.958354
-0.743521
-0.992404
-0.654845
-1.01217
-0.634645
-0.829082
-0.812184
-0.802059
-0.948181
-0.839364
-1.17288
-0.706126
-0.943652
-0.702621
-0.70917
-0.872061
-0.867732
-0.860976
-0.868321
-0.873573
-1.18005
-0.840292
-0.78264
-0.776304
-0.777365
-0.779543
-0.946731
-0.947977
-0.780667
-0.822711
-0.807817
-0.802796
-0.947103
-0.766089
-0.918387
-0.944019
-0.786397
-0.943319
-0.954935
-0.801693
-0.868359
-0.785437
-0.786105
-0.799726
-0.817252
-0.81509
-0.81708
-0.79958
-0.785035
-0.784461
-0.783546
-0.775463
-0.77636
-0.918712
-0.944109
-1.01184
-1.01248
-1.0225
-1.02882
-0.643542
-0.951774
-0.660837
-0.942325
-0.634862
-0.938951
-0.654683
-0.92834
-0.732262
-0.703382
-0.860984
-0.758476
-0.858425
-0.974592
-0.786441
-0.956316
-0.798495
-0.961744
-0.963005
-0.798903
-0.971529
-0.817391
-0.98136
-0.981777
-0.814391
-0.993113
-0.836234
-1.00583
-1.00592
-0.833504
-1.01993
-0.829717
-1.03407
-1.0475
-0.851706
-1.06667
-1.05724
-0.864679
-0.959456
-0.946078
-0.915794
-0.892343
-0.870929
-0.852161
-0.836353
-0.8284
-0.946096
-0.934464
-0.652052
-0.646783
-0.650387
-0.704715
-1.17926
-0.840446
-0.840985
-1.16903
-0.704311
-0.70807
-0.873733
-0.871033
-0.919333
-0.870432
-1.17356
-0.839169
-0.779794
-0.959335
-0.74383
-0.823614
-0.807985
-0.948129
-0.94093
-0.637787
-0.635689
-0.944415
-0.633547
-0.646389
-0.943876
-0.808398
-0.777304
-0.736749
-0.774855
-1.13818
-0.987183
-0.788942
-0.946031
-0.763575
-0.924602
-0.915459
-0.779436
-0.943563
-0.785943
-0.942372
-0.784552
-0.953967
-0.800564
-0.961232
-0.960433
-0.795968
-0.972499
-0.790178
-0.982979
-0.994558
-0.808655
-1.00669
-0.835413
-0.815156
-0.797782
-0.783606
-0.775484
-0.807911
-0.948079
-0.940758
-0.79035
-0.830897
-0.808484
-0.823552
-0.807722
-0.790312
-0.830708
-0.775948
-0.777377
-0.784665
-0.784134
-0.799213
-0.796784
-0.839964
-0.856194
-0.875934
-0.87861
-0.900995
-0.835789
-0.81804
-0.846441
-0.875754
-0.719492
-1.00354
-0.743052
-1.35684
-0.975863
-0.953869
-0.946641
-1.10681
-0.984942
-1.02969
-0.980005
-1.3474
-0.96194
-0.9527
-0.915124
-1.07899
-0.716974
-0.730282
-0.795261
-1.12194
-0.747652
-0.773916
-0.787264
-1.12815
-0.751032
-0.775068
-0.783077
-1.12379
-0.769263
-0.788979
-1.13141
-0.955784
-0.880878
-0.874734
-1.06247
-1.13288
-0.854841
-1.12974
-0.711458
-0.85235
-1.09332
-0.858242
-1.03771
-1.07572
-0.883966
-1.04603
-1.12877
-1.06265
-0.986547
-0.791677
-0.913934
-0.854124
-1.06862
-1.12865
-1.11081
-1.06251
-0.886871
-1.05314
-0.891374
-1.05851
-0.886548
-1.05329
-0.892102
-1.0595
-0.889027
-1.05378
-1.13086
-1.10524
-0.927277
-0.827741
-0.986042
-1.13496
-0.834234
-1.00822
-1.02542
-0.985915
-0.852415
-0.84705
-0.852318
-1.41377
-0.853737
-0.941761
-1.35712
-1.03001
-0.989681
-0.833802
-0.842744
-1.12947
-0.781151
-0.780324
-1.12522
-0.941824
-0.948337
-0.94422
-0.915284
-0.892353
-0.870999
-0.852191
-0.836349
-0.828356
-0.94611
-0.934711
-0.633532
-0.636165
-0.864848
-0.86095
-0.870576
-1.12071
-0.855873
-0.694172
-0.698874
-0.781039
-0.709038
-0.692471
-0.829756
-1.17051
-0.870895
-1.13805
-0.822639
-1.14244
-0.919379
-0.88495
-0.871248
-1.16939
-0.704394
-0.704854
-0.943978
-0.648818
-0.648405
-0.704996
-0.704297
-0.707562
-0.83425
-1.1496
-0.834718
-1.17877
-0.839943
-0.840761
-0.774919
-0.650059
-0.737502
-0.741159
-0.766373
-0.809534
-0.811476
-0.827353
-0.830901
-0.842656
-0.85911
-0.878934
-0.901849
-0.899076
-0.929923
-0.929173
-0.986323
-0.73932
-0.806074
-0.810582
-1.37919
-0.941628
-0.963453
-0.993562
-1.32029
-0.731988
-0.808989
-0.8114
-0.744528
-0.819548
-0.834405
-1.35467
-0.961648
-0.992869
-0.763144
-0.853229
-0.939567
-0.86734
-0.85755
-0.930628
-0.997096
-0.994663
-0.943774
-0.943011
-0.944601
-0.911954
-0.882305
-0.859242
-0.841622
-0.82831
-0.813712
-0.813495
-0.800507
-0.811349
-0.764105
-0.772359
-0.785349
-0.801763
-0.820495
-0.839656
-0.938635
-0.92408
-0.924903
-0.895892
-0.869287
-0.846757
-0.846265
-0.827944
-0.840443
-0.827541
-0.944716
-1.01192
-1.0123
-1.02267
-1.02873
-0.774511
-0.955502
-0.946655
-0.761254
-0.86447
-0.775342
-0.77631
-0.918219
-0.839463
-1.17308
-0.817797
-0.779976
-0.807725
-0.823622
-0.945584
-0.654564
-0.647582
-0.874576
-0.867139
-0.873657
-0.864502
-0.632956
-0.94448
-0.864845
-0.871441
-0.709684
-0.884999
-0.865198
-0.860349
-0.870289
-0.87277
-0.919506
-0.871004
-0.873102
-0.874807
-0.885576
-0.653668
-0.709276
-0.780952
-0.94551
-0.699262
-0.693827
-0.82369
-0.808681
-0.948221
-0.940519
-0.790357
-0.808682
-0.777465
-0.736784
-0.654864
-0.743881
-0.661092
-0.783419
-0.782916
-0.79759
-0.795464
-0.963151
-0.973409
-1.04114
-1.04942
-1.06555
-1.07385
-0.809883
-0.995836
-0.983293
-0.790451
-0.898568
-0.756723
-0.671877
-0.772976
-0.686132
-0.814965
-0.811885
-0.81675
-0.813279
-0.836801
-0.83271
-0.858292
-0.856458
-0.811903
-0.724404
-0.854838
-0.943993
-0.920466
-0.899058
-0.880892
-0.864525
-0.850848
-0.834973
-0.839393
-0.867437
-0.851493
-0.855655
-0.885502
-0.869409
-0.855806
-0.839552
-0.851745
-0.851015
-0.834926
-0.832834
-0.841918
-0.858523
-0.877595
-0.874665
-0.906389
-0.88971
-0.895996
-0.929176
-0.911616
-0.918458
-0.950464
-0.965451
-0.878624
-1.08417
-0.725514
-1.13639
-0.953854
-0.937413
-1.10977
-0.77016
-1.12657
-1.05427
-1.03278
-0.976282
-1.33782
-0.963773
-0.945455
-0.887603
-1.06253
-1.07283
-0.836858
-0.946211
-1.05859
-1.07201
-0.983664
-0.962974
-1.33001
-0.980515
-1.03578
-1.04143
-1.04406
-1.03631
-0.976408
-1.06257
-0.939534
-0.926415
-1.08007
-0.73207
-0.716313
-0.783196
-1.12407
-0.768666
-0.757378
-0.770557
-1.13071
-0.769596
-0.760798
-0.764019
-1.12606
-0.785232
-0.85365
-1.41719
-1.05363
-0.987827
-0.855066
-0.845844
-1.12519
-0.941084
-0.948121
-0.918847
-0.895853
-0.87451
-0.855598
-0.83941
-0.830834
-0.851556
-0.864426
-0.761882
-0.946818
-0.955048
-0.775098
-0.963072
-0.972961
-1.04088
-1.04939
-1.06522
-1.07373
-0.671248
-0.990424
-0.685746
-0.980106
-0.655805
-0.969619
-0.671573
-0.959839
-0.766845
-0.735192
-0.886243
-0.785701
-0.894896
-1.00894
-0.815738
-0.993592
-0.833826
-1.00751
-1.00662
-0.835981
-1.01659
-0.857578
-1.03316
-0.858621
-1.04369
-0.879043
-1.0667
-1.06773
-0.885782
-1.05911
-0.891608
-1.05522
-1.05738
-0.88695
-1.06625
-1.06705
-1.05414
-0.891107
-0.940215
-0.885608
-0.859085
-0.836911
-0.816784
-0.799422
-0.785276
-0.743778
-0.756562
-0.797679
-0.795472
-0.814997
-0.811801
-0.983016
-0.995356
-0.810338
-1.00657
-1.02216
-1.09506
-1.10162
-1.12908
-1.13311
-0.711392
-1.02877
-0.722485
-1.03638
-0.689764
-1.01259
-0.702859
-1.00586
-0.802324
-0.768576
-0.926082
-0.827117
-0.945162
-1.05168
-0.858342
-1.03779
-0.875738
-1.07508
-1.06212
-0.886985
-1.06168
-0.884959
-1.04654
-1.12835
-0.884176
-1.0624
-0.985701
-0.913276
-0.853551
-0.917098
-0.935032
-0.790846
-0.824844
-1.07343
-1.02916
-0.741038
-0.855247
-0.837218
-0.818172
-0.79958
-0.78329
-0.770389
-0.762204
-0.735959
-0.742237
-0.858184
-0.745244
-0.567819
-0.683775
-0.779308
-0.711396
-1.02614
-0.630569
-0.735478
-0.942317
-0.827591
-0.742913
-0.784201
-0.946226
-0.765928
-0.914456
-0.777323
-0.943057
-0.785777
-0.943749
-0.942056
-0.78314
-0.954689
-0.774699
-0.963043
-0.841632
-0.829227
-0.955638
-0.815234
-0.946006
-0.820237
-0.819394
-0.802508
-0.802523
-0.76993
-0.833436
-0.813421
-0.767183
-0.813771
-0.681948
-0.837147
-0.741224
-0.951178
-0.78099
-0.946632
-0.784405
-0.944624
-0.945521
-0.786244
-0.954402
-0.800796
-0.960879
-0.79747
-0.971568
-0.817125
-0.981729
-0.981446
-0.812943
-0.993435
-0.866004
-0.846309
-0.972292
-0.836394
-0.835527
-0.823823
-0.821816
-0.947845
-0.808132
-0.963048
-0.808069
-0.799312
-0.837274
-0.828663
-0.823107
-0.810359
-0.96783
-0.840275
-0.723913
-0.869865
-0.770555
-0.989236
-0.798984
-0.972799
-0.814718
-0.982491
-0.983272
-0.815727
-0.992649
-0.836521
-1.00583
-0.834871
-1.01771
-0.857485
-1.03343
-1.03406
-0.857417
-1.04364
-0.858051
-0.928998
-0.905938
-0.889559
-0.87477
-0.855837
-0.839622
-0.831043
-0.83495
-0.850803
-0.867334
-0.88068
-0.78551
-0.799713
-0.817112
-0.919658
-0.906196
-0.885339
-0.869325
-0.851442
-0.868374
-0.851839
-0.786257
-0.94531
-0.777156
-0.944545
-0.94319
-0.784666
-0.954974
-0.955462
-0.94274
-0.942935
-0.786349
-0.955004
-0.956948
-0.945675
-0.947478
-0.779383
-0.944361
-0.917911
-0.915125
-0.915902
-0.917139
-0.779307
-0.946572
-0.944944
-0.786248
-0.942497
-0.786299
-0.956396
-0.955344
-0.801138
-0.960627
-0.799073
-0.97361
-0.972309
-0.972216
-0.972655
-0.797633
-0.961341
-0.961051
-0.801139
-0.960898
-0.799098
-0.972013
-0.974188
-0.963113
-0.799042
-0.956475
-0.981161
-0.786286
-0.94474
-0.784906
-0.946772
-0.968334
-0.780742
-0.924553
-0.915835
-0.962192
-0.784019
-0.947067
-0.766365
-0.955156
-0.782899
-0.95395
-0.766325
-0.948173
-0.783944
-0.960997
-0.916557
-0.923649
-0.763944
-0.809048
-0.799948
-0.80204
-0.613518
-0.830492
-0.78949
-0.808665
-0.810039
-0.61025
-0.799834
-0.772931
-0.788114
-0.831473
-0.613404
-1.14398
-0.842613
-0.821005
-0.707772
-0.940835
-0.799274
-0.774946
-0.776297
-0.79788
-0.745132
-0.825999
-0.942251
-0.692045
-0.842489
-1.1436
-0.821513
-1.16918
-0.840811
-0.777499
-0.776524
-0.785297
-0.799854
-0.886285
-0.817748
-0.981803
-0.81453
-0.993475
-0.99415
-0.99303
-0.996145
-0.815898
-0.981836
-0.983338
-0.815339
-0.97297
-0.999789
-0.79888
-0.961986
-0.98942
-0.771095
-0.870499
-0.877398
-0.736155
-0.88694
-0.895782
-0.752403
-0.906444
-0.918582
-0.76956
-0.926973
-0.946062
-0.787579
-0.936171
-0.904533
-0.917639
-0.881025
-0.895482
-0.85872
-0.873955
-0.839003
-0.855538
-0.82266
-0.840857
-0.724505
-0.859489
-0.974548
-0.758963
-0.861162
-0.838053
-0.704456
-0.82903
-0.810636
-0.799363
-0.837472
-0.74174
-0.987357
-0.78856
-0.946223
-0.764042
-0.809039
-0.806981
-0.813611
-0.631182
-0.736839
-1.02574
-0.567928
-0.780026
-0.682105
-0.813525
-0.767245
-0.68408
-0.711631
-0.827117
-0.744171
-0.942279
-0.769984
-0.801817
-0.80003
-0.816732
-0.821954
-0.826807
-0.839004
-0.856236
-0.81566
-0.993793
-1.02331
-1.00925
-0.982809
-0.853251
-0.836242
-0.823103
-0.818408
-0.821447
-0.833141
-0.849974
-0.873486
-0.834504
-1.0066
-0.836154
-1.01676
-1.02212
-1.0167
-1.05317
-0.835722
-1.00793
-1.03171
-0.805309
-0.671268
-0.879892
-0.868447
-0.894579
-0.907066
-1.02256
-1.09555
-1.10169
-0.722974
-0.812709
-0.791956
-0.70328
-0.835033
-0.831304
-1.0071
-0.856857
-0.853235
-1.03341
-0.832376
-0.943211
-0.837254
-0.859391
-0.965978
-0.951037
-0.929116
-0.911692
-0.889629
-0.906984
-0.896119
-0.898864
-0.896096
-0.874796
-0.88643
-0.88551
-0.867542
-0.851411
-0.868029
-0.880581
-0.898418
-0.790995
-0.85933
-0.841994
-0.830086
-0.831732
-0.836543
-0.816681
-0.815548
-0.802049
-0.812334
-0.765698
-0.829082
-0.850361
-0.848341
-0.870377
-0.872729
-0.877649
-0.89872
-0.896298
-0.908307
-0.881257
-1.03248
-1.05134
-0.855179
-1.06097
-0.939733
-0.925567
-0.947365
-0.951904
-0.866453
-0.940909
-1.20893
-1.2436
-0.73791
-0.981232
-1.34403
-1.01219
-0.838246
-0.997051
-1.00807
-0.85434
-0.852567
-1.42951
-1.03204
-0.999712
-1.2759
-1.09924
-1.10061
-1.04084
-1.05371
-0.773505
-1.1286
-0.938917
-0.946441
-0.918532
-0.930038
-0.9073
-0.9063
-0.837058
-0.834998
-0.831091
-0.856766
-0.852951
-0.812444
-0.791701
-0.772759
-1.02277
-1.03134
-0.83577
-1.01654
-0.855068
-1.03773
-1.03222
-0.859382
-1.04138
-0.878707
-1.04451
-0.859209
-0.836974
-0.906579
-0.919449
-0.942971
-0.832782
-0.929158
-0.91161
-0.889555
-0.869269
-0.885904
-0.79938
-0.784884
-0.77618
-0.94612
-0.816131
-0.942948
-0.802896
-0.918211
-0.95621
-0.772725
-0.800054
-0.811167
-0.604629
-0.803795
-0.805164
-0.830461
-0.834853
-0.957011
-0.827792
-0.822288
-0.876574
-0.854898
-0.839953
-0.838559
-0.999293
-0.873257
-0.751494
-0.905616
-0.804586
-0.91766
-0.858214
-0.894745
-0.87857
-0.857199
-0.851768
-0.974095
-0.847748
-0.972661
-0.852457
-0.871926
-0.995933
-0.867545
-1.00574
-0.873895
-0.894819
-1.02175
-0.880529
-1.0526
-0.916933
-0.786607
-0.93532
-0.851684
-1.09279
-0.904152
-0.903799
-0.934225
-0.945266
-0.923933
-0.87483
-0.922569
-0.901154
-0.935794
-0.919376
-1.04984
-0.899688
-0.931596
-0.944269
-0.943869
-0.919246
-0.931908
-0.911975
-0.889208
-1.03378
-1.01862
-0.87535
-0.853507
-0.901723
-0.934279
-0.94782
-0.949935
-0.919411
-0.931509
-0.911
-0.887767
-1.01786
-0.900943
-0.878113
-0.858137
-0.7832
-0.770279
-0.761957
-0.730072
-0.76283
-0.800265
-0.82008
-0.842848
-0.925925
-0.941303
-0.95155
-0.963322
-0.913094
-0.715502
-0.800413
-0.898637
-0.944286
-0.934406
-0.929582
-0.898042
-0.871707
-0.849812
-0.832735
-0.820985
-0.816376
-0.815274
-0.800048
-0.804745
-0.80476
-0.772806
-0.94083
-0.769619
-0.813905
-0.806712
-0.821579
-0.823415
-0.784909
-0.944254
-0.946159
-0.785568
-0.851832
-0.834927
-0.790403
-0.850897
-0.864547
-0.736963
-0.774997
-1.13826
-1.01252
-0.627923
-0.74405
-0.880755
-0.868361
-0.851394
-0.867371
-0.88523
-0.869249
-0.886267
-0.799775
-0.817198
-0.81734
-0.837473
-0.929871
-0.857979
-1.019
-0.834962
-1.01765
-1.03467
-0.858653
-1.04275
-1.04519
-1.03261
-1.03463
-0.859461
-1.04114
-1.05036
-1.03199
-0.855784
-1.03824
-1.05206
-0.827905
-0.689832
-0.896404
-0.877578
-0.902754
-0.93298
-0.93546
-0.917167
-0.923824
-0.874891
-0.944032
-0.922651
-0.900859
-0.936727
-0.920837
-0.896995
-0.871333
-0.891875
-0.870202
-1.00639
-1.0057
-1.00662
-1.00579
-0.836704
-1.02002
-1.01821
-0.858097
-1.03345
-0.860771
-1.04616
-1.04434
-0.879507
-1.06592
-1.07041
-1.06785
-0.877766
-0.967169
-0.952884
-0.919088
-0.921299
-0.93234
-0.946366
-0.881581
-0.875789
-1.09007
-0.779161
-0.719137
-1.12678
-1.05289
-1.05963
-0.976715
-1.03742
-1.04451
-1.05175
-0.760894
-1.11666
-0.916148
-1.11579
-1.12149
-1.11595
-1.11586
-1.08953
-0.877224
-1.04017
-1.33061
-0.746063
-0.984505
-1.11004
-1.03573
-1.0999
-1.02492
-0.988589
-1.29204
-1.07475
-0.788837
-0.855547
-1.42298
-0.848042
-1.1238
-0.785858
-1.1222
-0.917678
-0.949471
-0.93291
-0.951046
-0.951251
-0.965756
-0.951856
-0.929469
-0.951883
-0.933614
-0.911785
-0.93006
-0.906996
-0.919617
-0.837481
-0.860159
-0.859636
-0.952187
-0.885788
-0.835117
-0.741473
-1.15126
-0.743758
-0.951344
-1.05577
-0.901265
-0.945977
-0.961223
-1.08935
-0.775743
-0.715914
-1.12878
-0.938872
-0.917736
-1.11579
-0.757174
-1.11873
-1.05234
-1.0532
-1.06162
-0.941209
-1.0398
-1.32978
-0.984363
-1.03601
-1.04102
-1.04236
-1.046
-1.05225
-0.765569
-1.11871
-1.07061
-1.04294
-1.06902
-1.05303
-0.76207
-1.12082
-0.919287
-1.12222
-1.12208
-0.998612
-0.885758
-0.886169
-0.998544
-0.993978
-0.840833
-0.887969
-0.886432
-0.940429
-0.993613
-0.997676
-0.999921
-0.918539
-1.15431
-0.922168
-0.904742
-0.903965
-0.87802
-0.856086
-0.83867
-0.826388
-0.836609
-0.963373
-0.961752
-0.799096
-0.757043
-0.898581
-0.815305
-0.982354
-0.983857
-0.816057
-0.995247
-0.993606
-0.981503
-0.817737
-0.982208
-0.850407
-0.831968
-0.820218
-0.832917
-0.833034
-0.818526
-0.850327
-0.848867
-0.870601
-0.896801
-0.914434
-1.0682
-1.0648
-1.06856
-0.914541
-0.89183
-0.87021
-0.836887
-0.873297
-1.00802
-1.00679
-0.834384
-0.792734
-0.773268
-0.943392
-0.855869
-1.0349
-1.03612
-0.895547
-0.880681
-0.858387
-0.838853
-0.822637
-0.8105
-0.799069
-0.76703
-0.813603
-0.829239
-0.841395
-0.85561
-0.853455
-0.874529
-0.895957
-0.920819
-0.919587
-0.937767
-0.888331
-0.934285
-0.928375
-0.928527
-0.941256
-0.942593
-0.918677
-0.933689
-0.9414
-0.942177
-0.921942
-0.940766
-0.954603
-0.917911
-0.950722
-0.814585
-0.879017
-1.06136
-0.876364
-0.943484
-0.948863
-1.12366
-1.07137
-1.07463
-1.1098
-1.02463
-1.09953
-1.1006
-1.09914
-1.07179
-1.04039
-1.09634
-1.29069
-1.09072
-1.10174
-1.18108
-1.15287
-1.29731
-1.29842
-1.27829
-1.29446
-1.29245
-0.938397
-0.941634
-0.932983
-1.13142
-0.804594
-0.938329
-0.980509
-0.836893
-0.885416
-1.11861
-0.816836
-0.993991
-0.833302
-0.792442
-0.795096
-0.754907
-0.82237
-0.784111
-0.980679
-0.960613
-0.955712
-0.824543
-1.29249
-1.05136
-0.857865
-0.655764
-0.786336
-0.601109
-0.951071
-0.628433
-0.634744
-0.643448
-0.755315
-0.708991
-0.782979
-0.884238
-0.942478
-0.934829
-0.74614
-0.854706
-0.943942
-0.647538
-0.870542
-0.74369
-0.919064
-0.813452
-0.781783
-0.830306
-0.825565
-0.606788
-0.854624
-0.855809
-0.798526
-0.686679
-0.76825
-1.02179
-0.834703
0.812764
0.805454
0.820638
0.815189
0.82056
0.832757
0.850154
0.872192
0.898526
0.92998
0.940658
0.950622
0.715849
1.00335
1.13321
0.884086
0.983271
0.926447
1.15269
0.857384
1.09182
0.961274
0.800433
0.970515
0.95014
0.792216
0.943122
0.928111
0.772413
0.918337
0.905704
0.750219
0.897008
0.885034
0.735523
0.876335
0.870453
0.721826
0.857605
0.861563
0.704038
0.835088
0.837986
0.681322
0.778185
0.567182
1.02433
0.631471
0.736994
0.830061
0.614546
0.788296
0.811367
0.61219
0.805289
0.80377
0.616751
0.814267
0.780455
0.611453
0.805807
0.967568
0.671581
0.899576
0.848714
0.782729
0.785855
0.930508
0.778612
0.783488
0.78248
0.938218
0.784018
0.782193
0.768675
0.939338
0.798805
0.783135
0.741731
0.941199
0.82477
0.78773
0.710336
0.682119
0.598955
0.743965
0.877979
0.915053
0.926526
0.937264
0.941018
0.950491
0.958225
0.968031
0.979282
0.991124
1.00279
1.01662
1.02977
1.04314
1.05716
1.06598
1.06294
1.02459
0.849714
0.969996
0.984756
1.0151
0.943665
0.716115
1.28856
0.992914
1.05178
0.98932
1.02755
1.15292
1.17975
1.09751
1.0459
1.05006
1.04648
1.09741
1.28877
1.05172
0.835448
0.841756
0.940739
0.853978
0.835781
1.00578
1.29922
1.02744
1.3565
0.98918
1.1529
0.969803
0.984807
1.02707
1.18236
1.14297
0.864749
1.12658
0.869878
1.10366
1.01567
0.715507
0.942736
0.964825
1.11127
1.05951
1.06827
1.04472
1.0348
1.01887
1.00723
0.993434
0.984357
0.970016
0.966208
0.949801
0.951398
0.934538
0.92757
0.799095
1.15668
0.812162
0.797605
0.917528
0.940165
0.789339
0.947543
0.952831
0.804088
0.964985
0.971048
0.819618
0.985365
0.992572
0.838059
1.00924
1.0174
0.858849
1.03577
1.04432
0.880029
1.06775
1.05674
0.891966
1.12081
0.920362
1.13005
0.971909
0.704813
0.97834
0.924685
1.1324
0.948575
0.71459
1.00717
0.883848
1.12973
1.0565
1.06936
1.05117
1.03285
1.02898
1.00145
1.00602
0.981462
0.970623
0.966179
0.950424
0.952659
0.928768
0.935105
0.804769
1.16048
0.83556
0.790563
0.885383
1.02121
0.762997
1.01362
1.01943
0.775643
1.02917
1.03869
0.790694
1.06391
0.968505
0.836455
1.02881
1.00735
0.857337
1.04454
1.04254
0.878462
1.0712
1.06442
0.888139
1.10629
0.985516
1.13317
0.888823
0.728016
1.21245
0.831641
1.15101
1.09529
0.857978
0.975828
0.912938
0.801381
0.6672
0.851857
0.716075
1.02603
1.06685
0.728508
1.1442
1.05832
0.863945
1.18179
1.12737
0.869511
1.10346
1.02833
0.763708
0.918186
1.35723
0.988984
1.15282
1.02758
1.29927
1.0061
0.83615
0.940974
0.853966
0.789462
1.12954
0.841752
0.851983
0.784511
0.781588
1.12565
0.846867
0.846323
0.78079
0.784686
1.12558
0.852514
0.841352
0.788097
0.854272
1.12927
0.940744
0.835537
1.02697
1.00573
1.29975
1.02765
1.15284
0.988203
1.05209
1.2862
0.996381
1.02212
1.27455
1.0214
0.997137
1.2858
1.05169
0.835773
1.08466
1.17903
1.09749
1.41778
0.998606
0.922506
0.966154
0.922745
1.12189
1.05746
1.05728
1.06045
0.89187
1.12235
1.11063
0.967036
1.13061
0.921447
0.92645
1.00047
1.43038
1.1012
1.09754
1.41738
0.998596
0.922428
0.868192
1.02857
1.182
1.14352
0.728372
1.06379
0.764156
1.02424
0.716404
0.983659
1.10354
1.01919
0.938449
0.97589
0.974823
1.13052
0.939393
1.01819
0.983974
0.968923
0.851445
0.863046
0.81865
0.789591
0.948421
0.897753
0.954119
0.946414
0.936875
0.943816
0.809386
0.957276
0.970976
1.08961
1.0854
1.05054
1.07172
0.82177
0.958447
0.951599
0.847242
0.709411
1.04259
1.03822
0.687617
1.09029
1.02218
0.828809
1.10344
1.03329