/*--------------------------------*- C++ -*----------------------------------*\
| =========                 |                                                 |
| \\      /  F ield         | OpenFOAM: The Open Source CFD Toolbox           |
|  \\    /   O peration     | Version:  2306                                  |
|   \\  /    A nd           | Website:  www.openfoam.com                      |
|    \\/     M anipulation  |                                                 |
\*---------------------------------------------------------------------------*/
FoamFile
{
    version     2.0;
    format      ascii;
    arch        "LSB;label=32;scalar=64";
    class       volScalarField;
    location    "0.5";
    object      gradTy;
}
// * * * * * * * * * * * * * * * * * * * * * * * * * * * * * * * * * * * * * //

dimensions      [0 -1 0 1 0 0 0];

internalField   nonuniform List<scalar> 
5322
(
0.638862
0.0624465
-0.000691537
-0.0216249
-0.00980778
-0.00100091
0.00318411
0.00688342
0.0139683
0.022772
0.000852181
-0.1578
-0.175038
-0.157136
-0.136502
0.295703
0.395424
-0.000690839
0.273756
-0.326099
0.311449
-0.318909
0.314745
-0.325558
0.32702
-0.324975
0.327634
-0.339444
0.342042
-0.343343
0.34926
-0.355212
0.370961
-0.323974
0.313567
-0.159702
0.314859
0.39342
0.196882
0.214396
0.290414
0.242771
0.252627
0.271134
0.258517
0.257492
0.26264
0.280611
0.261608
0.248443
0.311977
0.149243
0.168219
-0.549069
-0.0294655
-0.317372
0.167973
-0.415802
-0.0230971
-0.361371
0.170542
-0.408867
-0.0206107
-0.358693
0.171239
-0.423256
-0.0267641
-0.347054
0.172963
-0.466566
0.0160859
0.403249
0.224506
0.313789
0.234258
0.296828
0.247587
0.295581
0.251045
0.347948
0.0309104
0.119416
0.179632
0.297099
-0.0244317
-0.121774
0.0358836
0.0701997
0.132955
0.015926
0.0349675
0.00644459
0.000997969
0.00113943
0.422907
-0.227968
0.00694485
0.22993
0.00635383
-0.0067484
0.0327041
0.00631531
0.243758
-0.41218
0.368988
0.0054288
-0.00719596
-0.00127372
-0.000151035
0.000457425
0.000497537
0.000559855
0.00114305
0.00220438
-0.00365227
0.00097781
0.112411
-0.0461695
-0.0159275
-0.0866862
0.106648
-0.0592423
-0.115506
-0.158057
-0.178585
-0.00719466
0.130933
-0.0987855
0.00926217
0.107895
-0.107463
0.00453096
0.112162
-0.115006
-0.0036321
0.104747
-0.125653
-0.010001
-0.0290484
0.192394
0.159359
-0.104545
0.0692994
0.0538616
-0.110268
0.0119339
-0.107997
0.0847097
0.0870806
-0.0960219
-0.00144712
-0.0895674
0.0899096
0.0970866
-0.0871917
-0.000291726
-0.0833168
0.105797
-0.00686878
-0.00517924
0.332763
-0.260761
0.289147
-0.3083
0.0104827
-0.19793
-0.00410242
-0.00153797
-0.0368565
0.0953356
-0.19075
0.189791
-0.319042
0.000734904
0.325882
-0.322862
0.336137
-0.344876
0.00144137
0.339775
-0.349959
0.362973
-0.3642
0.00136487
0.356139
-0.361356
0.373028
-0.374706
0.000870764
0.366035
-0.370569
0.381807
-0.384198
0.000770664
0.37546
-0.381039
0.39252
-0.394237
0.00102275
0.385374
-0.393314
0.405355
-0.403934
0.00136156
0.394268
-0.405538
0.417832
-0.406964
0.00176875
0.395353
-0.413006
0.416466
-0.228028
-0.00109174
-0.0178213
0.00766509
-0.00689821
-0.000407468
0.00260626
0.00352811
4.70324e-05
0.423765
-0.227007
0.00181634
0.270863
-0.0373918
-0.0116851
0.00971968
-0.0135769
0.229154
-0.41731
0.00244549
0.00186092
0.00522199
0.00331348
0.00172688
0.000755085
5.48689e-05
-0.000969564
-0.00242252
0.00357509
-0.00129712
-0.0904807
-0.0963827
-0.0964295
-0.0906867
0.0185879
0.0318767
0.0200689
-0.121787
0.0637683
-0.129046
0.0319468
0.0186254
0.0201108
-0.127533
0.0443548
0.122014
0.0787144
-0.12174
0.063901
0.132456
0.184996
0.195414
-0.320605
-0.319883
-0.344261
0.250516
-0.311876
0.28785
-0.310108
0.302375
-0.31406
0.311884
-0.322111
0.319801
-0.334731
0.326707
-0.351898
0.332535
-0.369921
0.335123
-0.0723383
0.164398
-0.0489356
-0.0069844
0.290141
-0.340637
0.00488174
0.301528
-0.332387
0.00281574
0.302977
-0.317981
0.00180559
0.299679
-0.305487
0.00111276
0.29309
-0.297156
9.76834e-05
0.282757
-0.29295
-0.00156433
0.264501
-0.294462
0.00730963
0.219523
-0.0202593
0.219334
-0.294928
0.00732237
0.251821
-0.342286
0.13725
0.226784
0.169469
0.15864
-0.301948
0.198713
-0.283639
0.252371
-0.281206
0.271817
-0.285069
0.282161
-0.293329
0.28914
-0.306764
0.294533
-0.322818
0.297921
-0.32888
0.292341
-0.0465961
0.119517
-0.130824
-0.000700745
0.401141
-0.481658
0.00990076
0.428109
-0.457531
0.00543391
0.423798
-0.429651
0.00270226
0.413128
-0.4116
0.00134459
0.403759
-0.400946
1.62764e-05
0.395511
-0.394381
-0.00102253
0.383315
-0.39325
0.00918159
0.337616
-0.389063
0.136422
0.31677
0.281437
-0.141323
0.26893
-0.063793
0.0504525
0.321963
-0.278694
0.260732
-0.24646
0.394814
-0.34763
-0.00275955
-0.38752
0.330567
-0.337207
0.0098813
0.354966
0.0158281
0.00679926
-0.100329
0.00983348
-0.0080527
0.00526821
-0.00193297
-0.00069262
0.324584
-0.32521
0.326395
-0.340626
6.68241e-05
0.353342
-0.357855
0.364863
-0.367883
0.000292312
0.374513
-0.377013
0.38576
-0.386324
0.000378084
0.398904
-0.394458
0.411159
-0.395519
-0.000639384
0.000562399
0.000924465
0.00300917
0.00167634
0.00116172
0.402538
-0.39392
0.00205558
0.466046
-0.467126
0.418344
-0.391555
0.00406085
0.475856
-0.459136
0.292886
-0.205903
-0.335344
-0.0232177
-0.00448347
-0.121107
-0.0313274
0.00875574
0.216378
0.280485
0.0218729
-0.447606
0.335991
0.00294443
-0.368471
0.333165
-0.00110796
-0.337773
0.329195
-0.000200512
-0.318956
0.321242
-0.00253049
-0.312836
0.328139
-0.00579253
-0.294144
0.331059
-0.020874
-0.260114
0.0840328
0.126544
-0.156749
0.00111663
0.25657
-0.219966
0.257911
-0.253818
0.25975
-0.259298
0.421869
-0.369794
-0.00090111
-0.41928
0.365391
-0.36142
-0.00218244
0.411234
4.87871e-05
-0.00110036
-0.000710041
-0.0234661
0.00418561
0.0322657
0.0353122
0.0143124
0.00642361
0.0205145
0.0144441
-0.0186051
0.301283
0.0965828
0.0209488
0.0721672
0.0151354
0.00414797
0.00291488
0.0014013
0.00102815
0.000431347
0.000104252
-0.235439
-0.000149926
0.241775
-0.242177
0.264011
-0.265434
0.272699
-0.272428
0.447902
-0.387073
0.000687684
-0.439126
0.387399
-0.37827
-8.65846e-05
0.433248
0.000966246
0.000605275
-0.000330709
-0.00219255
-0.00350811
0.00238681
0.00174741
-0.00128923
0.0102544
0.00734913
0.243047
0.00088358
-0.0110296
-3.20538e-05
-0.017533
0.00142356
0.158809
0.303025
0.556802
0.0579569
-0.00839255
-0.00337006
-0.0146817
-0.309909
0.00105088
0.290005
0.263968
-0.293083
-0.00154569
-0.308979
0.00176201
0.30425
0.282308
-0.296984
0.000132626
-0.31407
0.00130789
0.312744
0.293107
-0.305186
0.00117169
-0.323391
0.00464036
0.318997
0.300666
-0.317881
0.00192637
-0.337811
0.0149103
0.322073
0.306276
-0.333675
0.00302591
-0.356332
0.0387957
0.318809
0.309991
-0.3468
0.00520775
-0.369925
0.0907374
0.307107
0.307083
-0.057585
-0.00674301
-0.0669523
0.828131
-0.374445
-0.382949
0.612674
0.159609
0.0649629
-0.559868
-0.117217
-0.0689401
0.282249
-0.294784
-0.005206
0.00683096
-0.0387081
-0.046211
-0.00544329
0.0123088
0.00712582
0.00198297
-0.00453195
0.00094234
0.00292172
0.000854524
0.000185717
-0.000545813
-0.00207936
-0.0040478
-0.014071
-0.00752151
0.195956
-0.196032
0.00234927
0.00126755
-0.19912
0.196193
-0.000464328
0.000815327
-0.000884884
-0.0148584
-0.00941834
0.0355793
0.00383469
0.0409416
-0.0145218
-0.0178042
1.57055e-05
0.0656137
-0.0762808
0.0765975
-0.0653565
-0.0661659
-0.0565459
0.00211607
0.0759603
0.0683417
-0.0682102
-0.00203071
-0.0765263
-5.63348e-08
1.92995e-05
0.00483274
0.0135933
0.0121528
-0.0274366
0.000289564
-0.000262044
0.000296952
0.00181575
0.00543318
0.00234598
0.0219282
-0.0203695
-0.00377486
0.0108237
0.265984
-0.247016
0.284421
-0.284106
0.295596
-0.00767169
-0.263404
0.00585385
0.289205
-0.00164226
-0.0140433
0.00278788
0.00194245
0.00382347
0.00450802
-0.00334458
-0.0459818
0.157598
-0.0710023
-0.297252
-0.0386842
-0.038146
-0.598883
-0.165696
0.0211829
-0.243109
0.179151
0.0083248
0.00983163
0.216821
0.181817
0.0251798
-0.0204356
0.240802
0.216436
0.0270899
-0.0245834
0.218587
0.246757
0.0252547
-0.0564312
0.181444
0.25171
-0.0875787
0.133137
-0.116023
0.123996
-0.489173
-0.265477
0.0472093
-0.120774
0.258473
-0.0156841
-0.423093
0.225858
-0.00448118
-0.268008
-0.26519
-0.384884
0.157539
-0.210261
-0.1355
0.231859
-0.471495
-0.0548751
0.327856
-0.396121
-0.0121801
0.34082
-0.352612
-0.00104903
0.334242
-0.331337
0.00013315
0.324745
-0.320805
0.000518177
0.31785
-0.314189
0.00382075
0.314227
-0.307843
0.0183326
0.320242
-0.273373
0.0765194
0.264697
-0.14749
0.280168
0.31652
-0.393012
0.336519
-0.39697
0.00953615
0.198072
-0.302093
0.136271
0.157876
0.170891
0.226764
0.195021
0.137148
0.264353
0.157557
-0.00194669
-0.0244745
-0.0151401
-0.010362
-0.00789659
-0.0136063
-0.00818581
-9.50889e-05
0.00422218
0.247979
-0.243938
-0.000571884
-8.67981e-05
-0.000833217
0.000114994
-0.42778
0.375329
0.0002448
0.372546
-0.378105
0.00045549
0.382752
-0.388463
0.0010545
0.393595
-0.400492
0.00187757
0.403677
-0.411578
0.00240228
0.404682
0.00266417
0.00523519
0.000721327
-4.29858e-05
-0.00119928
-1.86832e-05
0.000385999
0.000400616
0.000336086
0.000213067
0.000155609
0.000192806
0.00185661
0.00527785
-0.190869
0.0028502
0.00946793
-0.000505476
0.000295137
0.000448101
0.000255435
-0.000129436
-0.000809958
-0.00191832
-0.00275995
0.0102685
-0.00292345
-0.00773436
-0.0101785
0.20254
-0.216243
0.271396
0.000382006
-0.0367273
0.0306838
0.100411
0.000548089
-0.0893619
0.0840635
0.0861347
0.000296739
-0.0955366
0.0896259
0.0769877
4.55131e-06
-0.120069
0.114175
0.106853
-0.00206851
0.135352
-0.142497
0.138948
-0.149625
-0.0138465
-0.0815634
0.118109
-0.00982215
-0.112505
-0.00242223
-0.000759013
0.40187
-0.00138123
-0.404251
0.236417
-0.00825586
-0.244497
0.244964
-0.00534475
-0.256753
0.407157
-0.0038501
-0.407037
0.393901
-0.392106
0.389846
-0.399298
0.00102201
-0.403289
0.39805
-0.000758954
-0.244691
-0.00900701
0.246838
-0.21004
0.00184846
0.37012
0.132336
0.385506
0.141212
-0.194907
0.296317
0.0286201
-0.254492
0.272542
0.00682342
-0.258997
0.259505
0.00251976
-0.252212
0.252523
0.00127973
-0.24863
0.244898
-0.000201443
-0.24371
0.240751
-0.00506039
-0.2452
0.225467
-0.0252449
-0.256754
0.167482
-0.121324
-0.323724
-0.0978977
-0.302766
0.197921
0.018532
0.00989011
0.12641
0.0296326
-0.194658
-0.160371
-0.04455
-0.124087
-0.0804005
-0.0627871
-0.137439
-0.068616
-0.0729078
-0.136518
-0.199949
-0.207234
-0.136972
0.340658
0.0188586
-0.201066
-0.00747958
0.27662
0.325473
-0.00335466
-0.241379
0.0010269
0.271345
0.40239
0.0036772
-0.400048
0.000578532
0.406855
0.000767564
-0.409327
0.00148972
0.413908
0.000323393
-0.419885
-0.000450967
0.422571
0.000196799
-0.432102
0.000328869
0.431897
-0.0012148
-0.446689
-0.00335907
0.436516
-0.00675121
-0.464197
-0.015849
0.00294183
-0.284879
0.46304
0.00288517
0.293463
0.000737633
-0.281467
0.460494
-0.000218576
0.281452
0.000734199
-0.276057
0.450813
-0.000184641
0.27354
0.000379198
-0.269012
0.440521
3.23871e-05
0.266147
0.000917918
-0.264074
0.43128
0.000230576
0.261028
0.000515237
-0.259605
0.423458
0.000418235
0.254857
0.00074041
-0.258818
0.414983
-0.00115257
0.249254
0.000280047
-0.262075
0.392218
-0.0154164
0.280604
-0.0499752
0.0644875
-0.318089
-0.280455
0.146319
-0.268039
-0.0783858
-0.0538343
-0.559708
-0.30477
-0.267443
-0.18981
-0.137337
0.305237
0.353053
0.0256921
-0.190493
-0.00943235
0.401988
0.0118479
-0.38706
0.00478979
0.00203032
0.00554377
0.0150003
-0.264157
-0.0125174
0.128068
-0.0187982
-0.0182242
-0.0344986
0.122541
-0.0405001
0.0166871
0.014661
0.000386699
0.00110539
0.00100929
0.000598117
0.00050926
0.000169279
-0.001978
-0.0014247
0.354087
-0.410432
0.00159114
-0.00208222
-0.00395434
-0.000276687
-0.334485
-0.000330156
0.342266
-0.359462
-0.000328787
0.361461
-0.369421
1.87771e-05
-7.3484e-05
-0.000857629
-0.000374109
3.56886e-06
0.000709275
0.000684004
0.000570807
0.000366758
0.000236354
0.000151229
0.0010238
0.0015584
0.000597636
0.339575
-0.343762
0.312346
-0.316295
0.319634
-0.32195
0.00192595
-0.166345
0.000311702
0.15683
0.00571814
-0.173287
-0.000433334
0.131705
-0.0133612
-0.0106512
0.0492379
0.00211138
-0.0539175
0.39602
-0.00497798
-0.250732
0.000215948
0.258847
0.337102
-0.00163426
-0.268718
-0.000547989
0.27526
0.332966
0.00102255
-0.278179
-0.00109796
0.279299
0.341645
0.003264
-0.288394
-0.00179712
0.280879
-0.299313
-0.00243453
0.271899
-0.314842
0.01082
-0.00916562
-0.00227528
-0.000813105
3.41476e-05
0.00029161
0.000509333
0.0012345
0.00249644
-0.00362942
0.00112865
0.0906072
0.0954531
0.0965952
-0.028674
0.130425
-0.0134869
-0.0140164
0.133973
-0.0253105
0.122252
-0.039435
0.00482373
-0.0108629
0.0104774
-0.00262143
0.00239785
-0.00190478
-0.321937
0.00856101
0.00947773
0.0020389
0.000124177
-3.12222e-05
-0.0680972
0.0675518
0.00213274
-0.0574246
0.0881348
-0.0180005
0.00754762
-0.00282754
-0.00340533
-0.01703
0.126999
-0.317096
0.019165
-0.212977
-0.00915814
0.270689
0.332412
-0.0074946
-0.245841
0.00160966
0.323939
-0.00536464
-0.258301
0.000277378
0.272634
0.330035
-0.000745401
-0.27046
-0.000541789
0.275998
-0.279258
-0.0012064
0.279765
0.00133293
0.000901413
0.000482931
0.00011087
-0.000798212
0.00772019
-0.00506971
-0.000217868
0.00210873
4.62307e-05
-0.00193879
-0.0091352
-0.00767321
-0.00210306
-0.00209258
0.00169269
0.0051886
0.000633716
0.00436376
0.000792507
0.00248497
-0.0099058
-0.0137687
-0.0268659
-0.0296185
-0.0608055
-0.0512062
-0.0306898
-0.116806
-0.361409
0.0300624
-0.560766
-0.412892
-0.298292
-0.198397
-0.17846
0.0702238
-0.160026
-0.0148144
0.0379406
0.00184231
-0.0056686
0.192514
-0.227033
0.276445
0.00260375
-0.0326292
0.0514802
0.117008
0.00486514
-0.0798782
0.109411
0.109605
0.00527872
-0.0856252
0.113076
0.102617
0.0039825
-0.11452
0.127826
-0.00605849
0.0037843
0.0169987
0.0752214
-0.322441
-0.467394
0.00662954
0.432891
0.012098
0.00864653
0.279259
0.00182434
-0.458122
0.469976
-0.000614583
-0.450717
0.265027
-0.300065
0.266894
-0.0312611
-0.284715
0.0147404
-0.319941
0.444961
-0.38976
0.399741
-0.00129961
-0.400667
0.000722648
0.397087
-0.00118682
-0.398692
0.000237133
0.400487
-0.00118951
-0.402134
0.396377
-0.456049
0.0268521
-0.320639
0.439257
0.0207468
0.0108743
-0.123395
0.133584
-0.137893
8.86071e-05
-0.113388
0.104189
0.00741536
-0.129512
0.0923788
-0.105823
0.00532192
0.191716
-0.114333
0.0698618
0.0170855
-0.133733
0.105246
-0.00211138
-0.00224421
-7.21683e-05
0.00431096
0.002621
0.00131512
0.000559011
-4.75662e-06
-0.00094613
-0.00236501
0.00360103
-0.00112719
0.0567777
0.0653485
0.000121521
-0.0154718
-0.00956634
0.122983
0.0445132
-0.104468
0.0537027
0.0693903
-0.109368
0.00354542
-0.126499
-0.00982443
-0.0295481
-0.102245
0.160176
0.194845
0.0101722
0.0357695
-0.00869087
0.00489004
0.0855431
-0.0919232
-0.00110882
-0.0964697
0.096207
0.0919288
-0.0854961
-0.000581981
-0.116548
-5.45398e-05
0.116515
2.84798e-05
6.47968e-05
-0.00213421
0.00689027
0.00316604
0.0517043
0.556303
0.302718
0.155865
-0.0019035
-0.0220338
-0.0138316
-0.00936842
-0.0125362
-0.0241387
-0.0480102
-0.0518668
-0.10409
-0.115047
-0.24473
-0.411408
-0.367043
-0.370058
0.156756
-0.2432
-0.0974571
-0.105607
-0.322954
-0.420676
-0.374279
-0.373944
-0.378224
-0.37261
-0.422905
0.158948
-0.0421492
-0.126508
0.500328
-0.154842
-0.303835
-0.294738
-0.0783657
-0.0970021
-0.225233
-0.236199
-0.0579896
-0.0904198
-0.0192565
-0.00463421
0.000765779
0.00163982
0.00148214
0.000374106
-0.00297177
-0.00361246
-0.0154254
-0.00611616
-0.00362399
-0.00649566
-0.00530431
-0.0070434
-0.0139348
-0.0318353
-0.00923239
-0.00937221
-0.0112173
-0.00432638
-0.00010315
0.00117215
0.00100202
-3.40342e-05
0.000210183
-0.00214056
0.251683
0.380302
-0.396042
0.392765
-0.400908
0.00023656
0.270926
-0.281648
-0.000713725
-0.0023442
0.00100088
0.00405171
-0.284097
0.0127868
-0.128402
0.079168
-0.0247625
-0.00764022
-0.0091049
0.0117893
-0.110449
0.0867437
-0.000648369
-0.000310506
-0.000317573
7.33303e-05
0.0565589
-0.00194057
0.000246222
0.00024177
-0.000157639
-0.0357424
0.00018534
0.0148137
0.00919318
0.0121374
-0.0100764
0.00847369
-0.000135344
0.000880389
-0.0356434
0.110227
0.109383
-0.0691328
-0.011702
-0.0547445
0.105095
0.00923001
0.00205069
5.13661e-05
8.77968e-06
-0.00209036
-0.00190107
-0.0019522
-0.000511992
-0.00848992
-0.000912184
-0.00181409
0.000262708
0.00395931
0.000494453
0.00225045
-0.285135
0.281142
0.401985
-0.410071
0.411921
-0.424584
0.00218765
0.287816
-0.292608
0.00120072
9.68755e-05
-0.00016479
0.000678939
0.000813498
0.00291564
0.00157094
0.00405754
0.00201888
0.00483374
0.00528995
0.0134799
0.0119521
0.0127867
0.00567491
0.0801269
0.00125838
0.00202982
0.000966876
0.000264251
-0.00059484
-0.00225844
-0.00248876
-0.000958911
-0.000920566
-0.000519058
-0.000108348
9.23675e-05
0.000319858
0.000374171
0.000335489
0.000199689
-0.000836232
0.00118262
0.00111528
4.0557e-05
0.000152761
0.000273654
0.00043715
0.000707928
0.000963266
0.000808537
0.00158263
0.00206372
0.00140332
0.00310511
0.00433264
0.00354516
0.020775
-0.0290465
-0.0403726
-0.00769719
0.00453444
0.00607525
0.00577987
-0.0990138
-0.00174734
-0.000995684
-0.00146884
-0.00973177
-0.00372708
0.212184
-0.002797
-0.279929
-0.00205409
-0.0126079
-0.259382
-0.0113674
-0.0152283
-0.164127
-0.074392
-0.127062
-0.314424
0.0308042
0.0799634
0.00532036
-0.00423168
-0.00357413
-0.00661736
0.00176189
-0.190018
0.268048
0.00188034
-0.0591333
0.0262405
0.0926313
0.000475761
-0.115507
0.0734333
0.0744437
-0.000487775
-0.11946
0.0786022
0.0656044
-0.00122638
-0.109536
0.0250759
-0.150045
0.0672618
0.106235
-0.145079
0.0436969
0.0211027
-0.0087692
-0.00188334
-0.00061988
0.000213074
0.000361602
0.000482596
0.00114826
0.00206481
0.00255059
0.00243797
0.00375667
0.351297
-0.353857
0.00173021
0.358833
-0.362447
0.325834
-0.329553
0.333741
-0.339248
0.00143601
-0.173931
-0.000467868
0.169337
0.00137529
-0.168326
0.000152446
0.165341
-0.000877676
-0.000368083
0.0535039
0.0007771
-0.0542713
0.40772
0.000478856
-0.264121
-0.00100035
0.269807
0.348558
0.00273201
-0.285145
-0.00178369
0.341115
0.00765723
-0.298289
-0.00360358
0.271427
0.344698
0.00690113
-0.377643
0.00723192
-0.313889
-0.373909
0.00898801
0.33497
0.278565
-0.308499
0.00811565
-0.00862828
0.00372871
0.00233191
0.00163924
0.000905268
9.64439e-05
-0.000906199
-0.000460749
0.000219915
0.000601674
0.000326716
0.000564244
0.000200752
0.367107
-0.372522
0.00183475
0.376626
-0.385028
0.344355
-0.349667
0.359177
-0.352319
-0.0132573
-0.181979
-0.00520101
0.184566
-0.000945326
-0.182491
-0.00196416
0.17448
-0.0021419
0.00239945
0.0626817
0.00424893
-0.0512973
0.425972
0.00265319
-0.273579
-0.00359535
0.283682
0.342203
0.00634085
-0.387649
0.00873077
-0.275432
-0.492193
-0.00140966
0.419132
-0.0287866
0.160661
0.000709279
0.11554
0.0753615
0.043275
0.0277768
0.216104
-0.13614
-0.0117558
0.00745119
0.00155413
0.000734661
0.000851486
0.000772757
-7.62598e-05
-0.00378663
0.00154174
0.227302
-0.162967
-0.263773
-0.0603055
0.0501032
-0.129709
0.415751
-0.191409
-0.233839
-0.226345
-0.132445
0.312343
0.345425
0.0181038
-0.214426
-0.00818508
0.32193
-0.00659212
-0.241213
0.00177316
0.271959
0.326185
-0.00350314
-0.25987
9.45476e-05
0.272552
0.000193304
0.000653585
-0.319729
0.00415466
-0.304085
0.0293273
0.0299709
0.00152978
-0.167449
-0.280256
-0.195376
-0.13824
-0.291553
-0.102979
-0.052336
0.0305188
0.00863573
0.397388
-0.00593594
-0.241452
0.00121794
0.258416
0.33324
-0.00565915
-0.25927
0.000261937
0.327852
-0.00149178
-0.269232
-0.000576475
0.275698
0.335466
0.00114378
-0.339564
-0.0017749
-0.000923312
-0.330045
0.00847165
0.00861157
0.0181059
0.00405002
-0.298344
0.0129053
-0.239076
0.0015649
-0.0443411
-0.0686519
-0.0177803
0.0202275
-0.00837085
-0.368461
0.000248433
-0.00236176
0.0525317
0.000830925
0.400475
-0.00147918
-0.257536
-0.000527982
0.262986
0.342596
0.000747345
-0.276857
-0.000979182
0.338365
0.00352389
-0.287424
-0.00198587
0.279962
0.346446
0.00665581
-0.362396
0.00176359
-0.000656748
-9.52401e-06
0.000302197
0.000325566
0.000233616
0.000146672
7.7995e-05
-0.000963754
-0.00249027
-0.000536654
-0.000640831
-0.000836367
-7.69872e-05
0.000406132
0.000662439
0.000869937
0.000268827
0.000298095
-0.000138069
-0.000168675
-0.000892689
-0.000442729
0.357802
-3.4953e-06
-0.357639
0.36203
4.6769e-05
-0.368531
0.368752
-0.361557
0.365124
-0.000492472
-0.3737
0.367865
-0.36296
0.357401
-0.00156247
-0.3643
0.345969
-0.344725
0.345071
-0.3461
0.00154244
-0.357632
0.364892
0.000834469
-0.365266
0.000599962
-0.36816
0.374463
0.000514625
-0.376018
0.000211369
-0.376435
0.382137
-0.376727
0.377059
0.000114683
0.372047
-0.371482
-0.000111686
0.375951
1.87443e-05
-0.381323
0.376222
-0.371375
-0.000847508
-0.421194
0.259489
-0.000321485
0.413468
-0.00199636
-0.413008
0.258441
0.00111129
0.397997
-0.349455
0.333975
-0.00121921
-0.339696
-0.000387306
0.331409
4.12215e-05
-0.331306
0.000749306
0.339971
0.00124961
-0.334041
0.350331
-0.399059
0.00284824
0.00422134
0.00382749
0.0141054
0.00959946
-0.198494
0.204727
-0.201717
0.201681
-5.629e-05
-0.000591746
-0.000562292
-0.204707
0.198364
-0.00970674
-0.00559295
0.106014
-0.118409
0.00041741
-0.000770635
0.329869
-0.333952
0.334155
-0.330021
0.341098
-0.359032
-0.00974145
-0.00371317
-0.10601
0.00557381
0.118358
-0.00488853
0.00219797
0.00210581
7.28477e-05
0.000126772
0.000185645
0.000214631
0.000179604
-0.380493
8.48348e-05
-0.385221
0.385634
-0.389656
0.385271
0.000170388
0.385509
-0.379851
-0.000145813
-0.429015
0.263538
9.88761e-05
0.423511
-0.260251
-0.000397898
-0.236149
0.241897
0.00148629
-0.241377
0.247351
0.00226597
-0.246076
0.257109
0.00518849
-0.250691
0.270052
0.00424507
-0.260901
-0.0102918
-0.000896391
-0.00250766
0.00148668
-0.000802593
0.000534734
-0.00106742
-0.000162702
-0.00154751
0.000778197
0.00389729
0.242341
-0.254525
-0.000649245
-0.224159
0.253122
0.0243037
0.00989242
-0.000964008
0.00961135
-0.167118
-0.000435315
0.262018
0.0152132
-0.391102
-0.00252891
-0.003908
0.0204935
0.0140013
-0.0185527
-0.197646
0.302187
0.0981013
0.321798
0.119529
0.068022
0.0162591
0.0494951
-0.280551
0.35854
-0.340511
0.0097085
0.00161101
-0.0154541
-0.00411499
-0.00211365
0.00636451
0.00172092
0.000965241
0.00117077
0.000654717
-0.43853
0.269284
-0.266576
0.433929
9.0977e-05
-0.000594213
-0.00185226
-0.000390459
-0.000477027
7.90204e-05
0.000241822
0.0008122
0.000475484
-0.38885
0.000108398
-0.398206
0.395013
-0.449234
0.275706
0.00130417
0.446189
-0.274756
0.00207573
-0.000129609
0.00106531
2.31767e-06
-0.00353493
-0.00174964
0.291761
0.422719
-0.445679
0.037397
0.0062005
0.00265362
0.0108603
0.00441226
0.0113879
-0.30411
0.0103376
0.0291773
-0.317379
0.0038461
0.00148654
0.00100641
0.00187359
0.00297751
0.00410284
0.00191345
0.001166
0.00066405
0.000505117
0.000402353
0.000587777
0.000778604
0.000547561
0.000434215
0.00055704
0.000653494
0.000543444
0.00084862
0.000927535
0.000504108
0.00137027
0.000976876
0.00132271
0.000978246
0.000109937
-0.000709777
-0.00023415
0.00180266
0.00334854
0.000321836
-0.0189558
0.00230606
0.000560183
0.000836886
0.00105648
0.0012205
0.00105919
0.00216395
0.00131137
0.00247317
0.00135785
0.385867
-0.399155
0.0023629
0.389232
0.00660035
0.00130018
0.00327652
0.0173801
-0.0648567
0.166851
-0.133808
0.282163
0.0411933
0.190138
-0.154612
0.126173
-0.134236
0.0864478
0.0984464
-0.146484
0.0334742
-0.153431
0.0913409
0.0948375
0.184972
-0.00875175
-0.00252446
-0.0234815
-0.0011978
-0.10537
-0.00169598
-0.000695164
0.00063297
0.000857566
0.00159748
0.000941651
0.000642883
0.000823456
0.000633333
0.000130222
0.000585859
0.000298131
0.00262192
0.00141196
0.000766857
-0.414035
0.417181
0.00174767
-0.270153
-0.00190261
0.278713
0.351336
0.00581912
-0.294406
-0.00318929
-0.359674
0.00240455
0.00168164
0.000132772
0.000417577
0.000197027
0.00261324
0.000603346
0.000287797
0.000451245
0.000419373
0.00033024
0.000120499
-0.000715599
-0.00229663
-0.293306
0.0045187
0.271825
0.0148669
0.278523
-0.245385
-0.266832
0.315
-0.210791
-0.198449
-0.164735
0.00251518
0.000811987
0.000550336
-0.321546
0.01307
-0.00226641
-0.0529529
0.00155743
0.00715254
-0.00170418
-0.401367
0.00196159
0.000290227
0.0553905
0.00170757
-0.0551198
-0.00108198
0.00492024
0.0048778
0.00498296
-0.00103592
-0.335156
-0.000864991
-0.326215
0.00424682
-0.00185263
-0.346096
-0.00168718
0.279991
0.000779847
-0.00314827
-0.357547
0.00398842
-0.430638
0.0199695
0.0122967
0.0896201
0.00909435
-0.454639
0.029843
0.0057626
0.00835619
0.0307272
0.182859
0.432482
0.22491
0.330811
-0.0179717
-0.0064127
-0.371034
-0.00662392
-0.0175497
0.013894
0.222915
0.321776
-0.0184511
-0.00697671
-0.00319149
0.28317
-0.347389
-0.00159614
0.00349058
-0.0123286
-0.0259593
0.00428217
0.205747
0.324131
-0.0193699
-0.00731292
-0.0034382
-0.350072
-0.00381562
-0.00205969
-0.00144774
0.0037989
0.00564914
0.00233769
-0.0206621
-0.00515526
0.00243728
0.000724186
-0.00251008
-0.00592745
-0.0089065
0.0025053
0.18785
0.362843
-0.0671829
0.0604726
0.0269431
0.0318977
0.00826683
-0.0020705
-0.000823095
-0.000232442
3.27759e-05
0.000202713
0.000605315
0.0019684
-9.43434e-05
-0.00012214
-0.000853758
0.00129451
0.000727173
0.000804507
-0.00153293
-0.0150967
-0.0211105
-0.00659252
0.00223615
0.00233173
-0.415018
0.364052
0.00109955
0.0011429
0.00114852
0.00217144
0.00265175
0.0025498
0.000667938
-0.0068467
0.101615
-0.341627
0.017516
0.00119127
0.000907314
0.000538472
0.000529512
0.000864305
0.000286123
0.000350826
0.000311915
0.000464339
0.000178204
0.000236263
0.000234472
0.000856863
0.000845893
0.394228
-0.000124672
-0.393892
0.399368
-0.000588247
-0.400918
0.400671
-0.398905
0.405014
-0.000320155
-0.404747
0.403415
-0.397408
0.00145386
0.460216
-0.286161
0.00478262
0.00193883
0.00202379
0.00162325
0.00059631
-0.0093202
-0.017759
-0.0358451
-0.0821159
0.00397369
-0.0348552
-0.0117963
-0.003524
0.00464221
0.00399833
-0.000315855
0.000160585
0.000930576
0.000491601
0.395333
-0.389751
0.390393
-0.395131
-0.000160235
-0.394161
0.398793
-3.55638e-06
-0.405144
-0.000632212
-0.402292
0.405016
-0.000241571
-0.412111
0.405597
-0.467443
-0.00136828
-0.00233195
-0.000970109
0.00030314
0.000568619
0.00211688
0.00491112
0.0194934
0.080656
-0.0270936
0.835918
-0.0202837
-0.00431223
-0.0153465
-0.148821
0.0305323
0.0853821
0.00732427
-0.00127336
-0.082342
-0.0014313
0.00245262
0.00587014
0.000389998
0.000476181
0.00662531
0.00357173
-0.259944
0.216037
-0.00883767
-0.00606455
-0.000607369
0.0441514
-0.010255
0.0364934
0.0586307
0.0958151
0.189616
0.0463196
-0.120221
0.0475143
-0.153138
0.0373366
0.0203077
-0.114903
0.00668889
-0.00228597
0.000260815
-0.000543559
3.695e-05
0.00211723
-0.00103423
-0.0023514
-0.000402424
-0.00272917
-0.000902
3.45097e-05
-0.000120692
0.000184895
-7.44415e-05
-0.000129604
-0.00082007
5.01236e-05
0.00117464
0.00238523
0.00932971
0.103242
0.434431
0.0246679
-0.0751608
0.278961
-0.00264896
-0.0577367
-0.0205317
-0.0301251
0.829836
-0.0161749
-0.0045497
0.00544856
0.00205035
0.00512503
-0.0745771
-0.00169334
-0.0017929
-0.0160707
-0.149886
-0.129425
-0.0788221
-0.303983
0.0311652
0.0754822
0.00379761
-0.00426329
-0.00448394
-0.00242227
-0.0918571
-0.00458459
0.0441691
-0.0268138
0.047061
-0.00271891
-0.08387
-0.00498487
-0.00268464
-7.27114e-05
0.00530721
0.0201891
0.00314377
0.00393834
0.0188936
0.0184072
0.00119314
-0.00170297
-0.00042782
0.000989357
0.00284547
-0.00132583
-0.000965647
0.0139121
0.311927
0.0151309
0.00109879
0.00122821
-6.54504e-05
-0.000291363
-0.000476505
-0.00153405
0.000964795
0.372553
-0.425038
0.00115135
0.000723159
0.000360247
0.00048825
-0.434855
0.380982
6.60337e-05
-0.385044
0.390416
-0.385418
0.00031953
0.381113
0.000278589
0.00012915
2.38241e-05
-3.29772e-05
0.000466666
0.000872255
0.000212698
9.50023e-05
-0.000172232
-0.000869465
0.00145637
0.410105
-0.404499
0.404253
-7.65943e-05
9.51774e-05
0.000184305
0.000176728
-4.06565e-05
0.39012
-0.445842
6.68106e-05
0.000203805
0.000464954
-0.000668555
-0.000534144
-0.457772
0.399349
-0.000525756
0.000896747
0.000206565
0.00182638
0.000821586
0.000673846
-0.0103981
-0.0169813
-0.0693563
-0.0108928
-0.00081813
0.000536961
0.000338037
0.000562733
0.00077473
0.00185251
-0.00130844
-0.00140303
-0.000178071
-0.000242302
-0.00180421
-0.00102563
-0.00105738
0.000226021
-0.00172399
0.001261
-0.00190206
-0.0066641
-0.000581184
-0.00233957
-0.014622
0.0106225
0.0295067
-0.000173637
0.00113372
-0.40166
0.00296627
0.0134769
0.085298
-0.00180417
-0.00251581
-0.0183627
-0.175217
-0.107718
0.0245672
-0.00312115
-0.00246673
-0.00197472
-0.0222467
-0.0030394
0.162773
0.0485615
-0.00834875
0.0343801
0.24495
0.0211411
-0.00363801
-0.00639904
-0.00752887
-0.0112589
-0.275922
-0.245302
0.0017797
0.0246877
0.00947872
0.0407334
-0.0768873
0.000458279
0.00420966
-0.0114704
0.000913351
-0.336572
0.00691026
0.00280517
0.00132628
-9.22e-05
0.000296077
-0.00107168
-0.389034
0.271884
-0.313572
0.0182144
0.183929
0.291718
0.00142341
-0.000657169
0.000450603
-0.0651962
-0.248981
-0.0173749
-0.00418263
-0.00127642
-0.00206955
-0.0728585
0.000538764
-0.273696
0.00699556
-0.263505
-0.00201004
0.032913
0.00112292
-0.0871142
0.0410273
-0.00946852
0.275537
0.000393418
-0.233108
0.0223288
0.0883652
0.0136616
6.63762e-05
0.00151411
0.000358177
0.0047395
0.264653
-0.453764
0.00162976
-0.137836
0.000620937
0.0197043
0.0299902
0.0181936
0.00815534
0.00264357
-0.00325926
-0.0148291
-0.0294896
0.0038836
0.202243
0.244537
0.241903
0.168347
-0.396355
-0.373586
-0.0180573
0.372858
-0.00822438
-0.449892
0.0755701
0.0129221
-0.0523164
0.0558819
0.00397979
-0.0522364
0.0526103
0.00254974
-0.0488726
0.0518921
0.00204058
-0.0473162
0.0498819
0.000400594
-0.0477452
0.0470443
-0.00315253
-0.0511464
0.0420705
-0.0122915
-0.0666181
0.0248383
-0.0533479
-0.128088
-0.061368
-0.191594
-0.235219
-0.230106
-0.195693
-0.208248
-0.216572
-0.2072
-0.223734
-0.212744
-0.211369
-0.220258
-0.210634
-0.224861
-0.223291
-0.208271
-0.277035
-0.129911
-0.124912
0.479459
0.0305475
0.270018
-0.133293
0.349346
0.0221751
0.310057
-0.137025
0.330771
0.0184563
0.31972
-0.137444
0.327048
0.0190807
0.336502
-0.133055
0.317372
0.020343
0.412462
0.0496918
-0.0353662
-0.26392
-0.00221963
-0.200395
0.13004
-0.175702
0.156135
-0.167996
0.165704
-0.166457
0.171873
-0.169194
0.176272
-0.171971
0.183713
-0.1708
0.198664
-0.148042
0.235044
0.00642321
0.300085
0.211651
-0.0839655
0.236078
-0.220178
-0.0108129