/*--------------------------------*- C++ -*----------------------------------*\
| =========                 |                                                 |
| \\      /  F ield         | OpenFOAM: The Open Source CFD Toolbox           |
|  \\    /   O peration     | Version:  2306                                  |
|   \\  /    A nd           | Website:  www.openfoam.com                      |
|    \\/     M anipulation  |                                                 |
\*---------------------------------------------------------------------------*/
FoamFile
{
    version     2.0;
    format      ascii;
    arch        "LSB;label=32;scalar=64";
    class       volVectorField;
    location    "2.5";
    object      flux;
}
// * * * * * * * * * * * * * * * * * * * * * * * * * * * * * * * * * * * * * //

dimensions      [0 1 -1 1 0 0 0];

internalField   nonuniform List<vector> 
5322
(
(-2.14732e-06 5.47946e-06 -7.29545e-06)
(1.13918e-07 6.45197e-07 -6.73991e-06)
(1.22472e-07 1.54587e-07 -5.80438e-06)
(-4.04228e-10 4.24692e-08 -6.27752e-06)
(-8.39472e-09 1.27632e-07 -4.93396e-06)
(-7.49052e-09 1.58239e-07 -3.7673e-06)
(-5.41961e-09 1.46788e-07 -2.79359e-06)
(-3.94052e-09 1.23486e-07 -2.02056e-06)
(-3.05501e-09 1.01294e-07 -1.4437e-06)
(-2.08218e-09 7.77265e-08 -1.05375e-06)
(-1.30174e-09 2.39051e-08 -8.19655e-07)
(8.55354e-09 -1.47442e-07 -7.43693e-07)
(1.24433e-08 -1.52543e-07 -5.36289e-07)
(-1.70159e-07 -1.38946e-07 -7.53173e-07)
(-2.98168e-09 -1.24109e-07 -8.33681e-07)
(3.13116e-07 2.78419e-07 -6.94769e-07)
(-2.44615e-07 3.6858e-07 -8.15675e-07)
(9.22097e-10 -3.1622e-09 -6.37865e-07)
(-1.97747e-07 2.78511e-07 -9.4967e-07)
(1.66258e-07 -3.85786e-07 -1.07489e-06)
(-2.2304e-07 4.13898e-07 -1.27932e-06)
(2.67447e-07 -5.14115e-07 -1.4813e-06)
(-2.82919e-07 5.77454e-07 -1.79055e-06)
(3.96233e-07 -7.27228e-07 -2.10402e-06)
(-4.10156e-07 8.31217e-07 -2.53183e-06)
(5.39083e-07 -9.92924e-07 -2.92087e-06)
(-5.4324e-07 1.12335e-06 -3.47267e-06)
(7.52088e-07 -1.37378e-06 -3.99703e-06)
(-7.54199e-07 1.53751e-06 -4.67424e-06)
(9.76161e-07 -1.78546e-06 -5.25464e-06)
(-9.27609e-07 1.98588e-06 -6.03947e-06)
(1.32827e-06 -2.29019e-06 -6.73687e-06)
(-9.8316e-07 2.58293e-06 -7.5542e-06)
(1.85294e-06 -2.49936e-06 -8.12438e-06)
(1.46781e-07 2.54706e-06 -8.49595e-06)
(2.6968e-06 -1.43293e-06 -7.43579e-06)
(1.91162e-06 2.87513e-06 -8.76328e-06)
(-7.57783e-07 3.51053e-06 -8.66936e-06)
(2.10183e-06 1.77382e-06 -8.93463e-06)
(-1.24682e-07 1.98703e-06 -6.53021e-06)
(-1.99477e-06 2.59399e-06 -8.28241e-06)
(2.00046e-06 2.1782e-06 -8.54968e-06)
(-1.21158e-07 2.32682e-06 -6.4031e-06)
(-2.12713e-06 2.42428e-06 -8.55389e-06)
(2.11614e-06 2.31228e-06 -8.46785e-06)
(-7.24111e-08 2.3722e-06 -6.5164e-06)
(-2.26056e-06 2.34925e-06 -8.67862e-06)
(1.98983e-06 2.51107e-06 -8.2034e-06)
(-4.71906e-08 2.41407e-06 -6.44797e-06)
(-2.37296e-06 2.23043e-06 -8.54022e-06)
(-2.35535e-06 2.81448e-06 -9.74714e-06)
(-3.38493e-06 1.2644e-06 -6.62908e-06)
(-1.1167e-06 1.47754e-06 -9.25042e-06)
(2.14997e-06 -4.57909e-06 -8.21596e-06)
(-1.41635e-07 -2.23723e-07 -7.3489e-06)
(-3.51461e-06 -2.63105e-06 -7.77788e-06)
(-1.07573e-07 1.44516e-06 -9.61448e-06)
(3.34138e-06 -3.42835e-06 -7.63012e-06)
(-4.04187e-08 -1.64809e-07 -7.36659e-06)
(-3.34075e-06 -2.97882e-06 -7.7598e-06)
(-1.45248e-08 1.46656e-06 -9.71582e-06)
(3.25442e-06 -3.36915e-06 -7.73252e-06)
(-1.71908e-08 -1.4655e-07 -7.36519e-06)
(-3.28103e-06 -2.95705e-06 -7.57009e-06)
(3.0257e-09 1.47311e-06 -9.71599e-06)
(3.21076e-06 -3.49432e-06 -8.00871e-06)
(4.73481e-08 -2.00332e-07 -7.33995e-06)
(-3.24946e-06 -2.86844e-06 -7.2003e-06)
(1.68791e-07 1.49402e-06 -9.52985e-06)
(2.67924e-06 -3.89491e-06 -8.5484e-06)
(1.51768e-07 1.18386e-07 -6.11094e-06)
(-2.5842e-06 3.06022e-06 -9.05878e-06)
(2.93441e-06 1.69865e-06 -8.62134e-06)
(-3.02515e-06 2.38113e-06 -8.4933e-06)
(2.91109e-06 1.77129e-06 -8.57467e-06)
(-2.96577e-06 2.25063e-06 -8.53349e-06)
(2.96841e-06 1.87282e-06 -8.52763e-06)
(-2.96959e-06 2.2439e-06 -8.50558e-06)
(3.38261e-06 1.90908e-06 -8.64027e-06)
(-2.47623e-06 2.67501e-06 -8.24418e-06)
(1.16923e-06 2.01533e-07 -8.00481e-06)
(-1.78224e-06 1.03006e-06 -6.45427e-06)
(-1.19908e-06 1.51069e-06 -6.69377e-06)
(1.88743e-06 2.41098e-06 -8.62343e-06)
(1.59983e-07 -1.59867e-07 -5.58767e-06)
(-8.54335e-07 -8.80472e-07 -7.65599e-06)
(1.36312e-06 3.1722e-07 -1.1114e-05)
(-3.75959e-06 6.03574e-07 -7.19954e-06)
(-1.20645e-06 1.27813e-06 -7.22621e-06)
(4.15935e-06 1.82942e-07 -6.27944e-06)
(-1.88088e-07 3.43144e-07 -7.76753e-06)
(4.39749e-08 6.17036e-08 -5.63297e-06)
(7.71597e-08 8.65384e-09 -5.93462e-06)
(4.80121e-07 8.42253e-09 -5.92125e-06)
(2.4959e-06 3.00454e-06 -7.60093e-06)
(-5.04993e-07 -1.71994e-06 -7.24078e-06)
(2.42726e-08 5.57718e-08 -6.88516e-06)
(-1.90371e-07 1.73839e-06 -7.33745e-06)
(1.40288e-06 5.3084e-08 -1.13004e-05)
(-3.32143e-06 -8.62428e-08 -6.98925e-06)
(-3.31506e-06 3.09242e-07 -7.07136e-06)
(6.85753e-06 5.54807e-08 -6.36868e-06)
(-1.91494e-07 1.8571e-06 -7.39581e-06)
(1.9306e-06 -2.92246e-06 -7.5186e-06)
(3.15122e-06 2.6222e-06 -8.20726e-06)
(5.8523e-08 5.95538e-08 -6.69725e-06)
(3.24996e-08 -5.78803e-08 -7.04285e-06)
(2.59522e-08 -7.36434e-09 -6.33409e-06)
(1.29166e-08 1.56984e-09 -4.99145e-06)
(4.39319e-09 5.62966e-09 -3.8224e-06)
(6.01922e-10 5.25726e-09 -2.83506e-06)
(-8.91837e-10 4.10655e-09 -2.0457e-06)
(-1.79796e-09 3.47835e-09 -1.45276e-06)
(-2.58324e-09 3.22368e-09 -1.05164e-06)
(2.49964e-09 -2.00395e-09 -9.38236e-07)
(-1.38199e-09 1.34758e-09 -8.51621e-07)
(-1.01551e-07 1.04103e-07 -6.07479e-07)
(-9.85313e-08 -4.05228e-08 -6.51324e-07)
(1.22586e-08 -1.61411e-08 -9.1332e-07)
(6.16464e-08 -7.77469e-08 -7.1362e-07)
(2.66105e-09 9.65885e-08 -6.21935e-07)
(9.15265e-08 -4.98099e-08 -7.41955e-07)
(-1.09787e-07 -9.93433e-08 -7.31526e-07)
(-8.46725e-09 -1.37722e-07 -1.02212e-06)
(-2.71371e-08 -1.54794e-07 -7.65741e-07)
(1.70704e-07 -6.07346e-09 -1.00162e-06)
(1.39227e-07 1.14893e-07 -7.24695e-07)
(3.72847e-08 -8.58635e-08 -7.5676e-07)
(1.0933e-07 8.27805e-09 -9.85189e-07)
(6.92814e-08 9.43226e-08 -7.22848e-07)
(5.21217e-08 -9.37384e-08 -7.41737e-07)
(1.17464e-07 4.03191e-09 -9.94616e-07)
(5.76804e-08 9.79671e-08 -7.3423e-07)
(6.20374e-08 -1.00501e-07 -7.28238e-07)
(1.19494e-07 -3.26779e-09 -9.98976e-07)
(5.01255e-08 9.12855e-08 -7.43921e-07)
(9.88767e-08 -1.09734e-07 -7.32124e-07)
(1.35935e-07 -8.92372e-09 -1.02529e-06)
(1.53344e-07 -2.71284e-08 -7.67455e-07)
(6.47188e-09 1.68602e-07 -1.00327e-06)
(-1.13694e-07 1.3851e-07 -7.27424e-07)
(5.38217e-09 -9.44049e-08 -6.24523e-07)
(7.76504e-08 6.20843e-08 -7.14431e-07)
(-9.53254e-08 4.81321e-08 -6.42698e-07)
(-1.03738e-07 -1.01853e-07 -6.08912e-07)
(1.65102e-08 1.27772e-08 -9.14166e-07)
(4.08353e-08 -9.82842e-08 -6.51928e-07)
(2.15511e-08 7.68014e-08 -6.48176e-07)
(-8.10856e-08 7.98685e-08 -6.01788e-07)
(-8.93555e-08 -8.8283e-08 -6.06301e-07)
(1.87575e-08 -1.23392e-09 -9.1651e-07)
(2.45002e-08 -8.11339e-08 -6.49108e-07)
(3.01729e-08 8.18223e-08 -6.46717e-07)
(-8.8333e-08 8.9636e-08 -6.02807e-07)
(-8.3199e-08 -7.95398e-08 -6.06646e-07)
(1.89552e-08 -2.21648e-10 -9.15877e-07)
(1.5271e-08 -7.50546e-08 -6.49649e-07)
(4.90224e-08 9.66027e-08 -6.42017e-07)
(-9.44045e-08 -5.02733e-09 -6.23689e-07)
(1.24114e-07 -3.1271e-09 -8.34217e-07)
(-2.77207e-07 3.13357e-07 -6.94263e-07)
(-3.67792e-07 -2.44153e-07 -8.17413e-07)
(3.56726e-07 2.98383e-07 -1.05161e-06)
(-4.60681e-07 -3.60786e-07 -1.15871e-06)
(-2.24861e-08 1.49238e-08 -6.84305e-07)
(-2.79641e-07 -1.95968e-07 -9.51163e-07)
(4.83419e-09 7.76856e-10 -6.38583e-07)
(2.56999e-07 8.31872e-09 -8.28851e-07)
(-6.0106e-08 -3.02151e-08 -5.44065e-07)
(2.82574e-07 8.51966e-08 -7.29196e-07)
(1.39406e-07 -1.70123e-07 -7.54664e-07)
(2.08774e-07 1.69747e-07 -7.02512e-07)
(-3.32706e-07 -2.9999e-07 -7.66507e-07)
(1.25472e-07 9.57511e-10 -8.55991e-07)
(-2.87097e-07 3.0704e-07 -7.33064e-07)
(2.12467e-07 -3.35299e-07 -9.95801e-07)
(2.76288e-07 3.49039e-07 -9.87749e-07)
(-3.78943e-07 -4.04608e-07 -1.08093e-06)
(2.28517e-08 2.00336e-09 -8.42721e-07)
(-3.2206e-07 3.99294e-07 -1.07988e-06)
(3.33231e-07 -4.76114e-07 -1.28974e-06)
(4.14366e-07 4.93899e-07 -1.291e-06)
(-5.15401e-07 -5.78993e-07 -1.5023e-06)
(1.87794e-08 2.61165e-09 -1.15493e-06)
(-4.32045e-07 5.67384e-07 -1.50481e-06)
(4.90412e-07 -6.7771e-07 -1.79884e-06)
(5.99313e-07 7.00723e-07 -1.79999e-06)
(-7.25769e-07 -8.25314e-07 -2.12042e-06)
(2.90752e-08 3.03978e-09 -1.63086e-06)
(-6.0604e-07 8.08683e-07 -2.1234e-06)
(7.0152e-07 -9.58832e-07 -2.52794e-06)
(8.5272e-07 9.90478e-07 -2.52938e-06)
(-1.01944e-06 -1.15683e-06 -2.95847e-06)
(4.05929e-08 4.23157e-09 -2.2895e-06)
(-8.51822e-07 1.13436e-06 -2.96373e-06)
(9.68068e-07 -1.3306e-06 -3.48876e-06)
(1.18094e-06 1.37452e-06 -3.49274e-06)
(-1.41007e-06 -1.57911e-06 -4.02466e-06)
(5.35408e-08 6.52558e-09 -3.14238e-06)
(-1.18089e-06 1.54821e-06 -4.0346e-06)
(1.28276e-06 -1.7987e-06 -4.68686e-06)
(1.58126e-06 1.85801e-06 -4.69644e-06)
(-1.90688e-06 -2.08479e-06 -5.31196e-06)
(7.02673e-08 9.37399e-09 -4.18807e-06)
(-1.59476e-06 2.03875e-06 -5.32852e-06)
(1.62514e-06 -2.35076e-06 -6.09649e-06)
(2.03848e-06 2.42546e-06 -6.11566e-06)
(-2.48117e-06 -2.61551e-06 -6.79081e-06)
(9.5796e-08 1.30484e-08 -5.38516e-06)
(-2.04817e-06 2.54272e-06 -6.81833e-06)
(1.92804e-06 -2.93055e-06 -7.54815e-06)
(2.4024e-06 2.95532e-06 -7.5678e-06)
(-4.48365e-07 -1.72443e-06 -7.32402e-06)
(1.34202e-06 -1.13814e-08 -1.13013e-05)
(-3.28952e-06 -1.8209e-07 -6.98769e-06)
(-3.35477e-06 8.91057e-08 -6.96572e-06)
(6.88984e-06 -5.78301e-08 -6.38892e-06)
(-2.8782e-07 -2.74705e-09 -8.7691e-06)
(-3.08293e-07 1.67217e-08 -8.74837e-06)
(8.93089e-08 2.5969e-08 -5.93503e-06)
(5.21147e-07 1.81487e-09 -5.92783e-06)
(2.48404e-06 3.00824e-06 -7.5846e-06)
(-3.77905e-07 -1.71737e-06 -7.30048e-06)
(4.94873e-08 9.1739e-09 -6.82051e-06)
(-4.45502e-07 2.061e-06 -7.41859e-06)
(1.28582e-06 -3.1176e-07 -1.12869e-05)
(-3.34591e-06 -1.28889e-07 -7.03209e-06)
(-3.2989e-06 1.10844e-07 -6.95894e-06)
(6.84815e-06 -1.14411e-07 -6.40404e-06)
(-2.45818e-07 1.72828e-06 -7.2943e-06)
(1.92978e-06 -2.96279e-06 -7.55602e-06)
(2.1394e-08 1.8405e-08 -6.88046e-06)
(5.2317e-08 1.32145e-08 -6.89002e-06)
(3.09601e-08 3.70161e-08 -6.32243e-06)
(1.69379e-08 2.0494e-08 -4.99298e-06)
(6.79356e-09 8.74272e-09 -3.82702e-06)
(1.77e-09 2.7916e-09 -2.8386e-06)
(-3.81227e-10 1.22496e-10 -2.04784e-06)
(-1.59083e-09 -1.41598e-09 -1.45392e-06)
(-2.34367e-09 -2.4436e-09 -1.05221e-06)
(2.4766e-09 2.46345e-09 -9.38686e-07)
(-1.31149e-09 -1.36347e-09 -8.52315e-07)
(7.99105e-08 -8.33663e-08 -6.05915e-07)
(-8.90462e-08 -8.91434e-08 -6.04786e-07)
(8.90598e-08 -8.93046e-08 -6.04351e-07)
(-7.99455e-08 -8.34252e-08 -6.05565e-07)
(2.93848e-10 1.93797e-08 -9.15791e-07)
(7.98194e-08 2.76948e-08 -6.46604e-07)
(-7.47197e-08 1.64819e-08 -6.49535e-07)
(-1.76173e-10 -1.1009e-07 -6.39957e-07)
(-9.10255e-08 5.41298e-08 -7.41856e-07)
(1.2399e-10 -1.13328e-07 -1.07202e-06)
(-7.95233e-08 2.76485e-08 -6.46735e-07)
(1.26803e-10 1.94186e-08 -9.16064e-07)
(7.48638e-08 1.66306e-08 -6.49744e-07)
(3.0152e-09 -1.11987e-07 -1.06563e-06)
(8.48644e-08 3.72163e-08 -7.55436e-07)
(-7.05007e-09 1.06415e-07 -9.82998e-07)
(-9.20725e-08 6.73309e-08 -7.2291e-07)
(2.09059e-10 -1.10082e-07 -6.40287e-07)
(9.10141e-08 5.42835e-08 -7.41953e-07)
(-4.2214e-11 1.15559e-07 -9.83177e-07)
(5.48973e-11 1.61658e-07 -5.29234e-07)
(1.65311e-07 1.73482e-07 -7.2499e-07)
(-2.99071e-07 -3.02702e-07 -7.33503e-07)
(2.99099e-07 -3.02187e-07 -7.32692e-07)
(-2.95206e-07 -3.24746e-07 -7.66887e-07)
(3.44342e-07 2.62206e-07 -9.87517e-07)
(-3.99478e-07 -3.64127e-07 -1.08134e-06)
(4.8731e-07 3.92964e-07 -1.2911e-06)
(-5.71208e-07 -4.91746e-07 -1.50266e-06)
(6.91126e-07 5.68279e-07 -1.80069e-06)
(-8.14031e-07 -6.9067e-07 -2.12061e-06)
(9.7684e-07 8.08962e-07 -2.53076e-06)
(-1.14105e-06 -9.69092e-07 -2.95874e-06)
(1.35574e-06 1.12082e-06 -3.49519e-06)
(-1.55736e-06 -1.34025e-06 -4.02483e-06)
(1.83322e-06 1.50209e-06 -4.70115e-06)
(-2.05594e-06 -1.81535e-06 -5.31065e-06)
(2.39553e-06 1.94303e-06 -6.12499e-06)
(-2.58114e-06 -2.37384e-06 -6.78375e-06)
(2.97244e-06 2.40036e-06 -7.62006e-06)
(-1.70742e-06 -4.49817e-07 -7.2353e-06)
(4.20077e-08 1.42704e-06 -1.13052e-05)
(1.72983e-06 -2.73183e-07 -7.36918e-06)
(4.9829e-08 3.19109e-08 -6.88393e-06)
(-2.89484e-06 2.07845e-06 -7.53171e-06)
(2.51544e-06 -2.18493e-06 -6.83696e-06)
(1.48221e-08 1.02314e-07 -5.38917e-06)
(-2.32278e-06 1.76148e-06 -6.09635e-06)
(2.01373e-06 -1.71562e-06 -5.33706e-06)
(9.234e-09 7.3415e-08 -4.19116e-06)
(-1.77746e-06 1.39176e-06 -4.69054e-06)
(1.52816e-06 -1.27475e-06 -4.03798e-06)
(5.73054e-09 5.50585e-08 -3.14433e-06)
(-1.31495e-06 1.04902e-06 -3.49218e-06)
(1.1193e-06 -9.20467e-07 -2.96493e-06)
(3.463e-09 4.12675e-08 -2.2906e-06)
(-9.47558e-07 7.59319e-07 -2.53045e-06)
(7.97862e-07 -6.54431e-07 -2.12366e-06)
(2.27951e-09 2.93032e-08 -1.63146e-06)
(-6.69784e-07 5.3104e-07 -1.80098e-06)
(5.59854e-07 -4.65031e-07 -1.50435e-06)
(1.88083e-09 1.88069e-08 -1.15522e-06)
(-4.70692e-07 3.61206e-07 -1.29185e-06)
(3.93763e-07 -3.44042e-07 -1.07893e-06)
(1.52818e-09 2.26552e-08 -8.42666e-07)
(-3.31006e-07 2.30087e-07 -9.97286e-07)
(3.92905e-10 -2.18259e-08 -7.74957e-07)
(3.31527e-07 2.30007e-07 -9.96507e-07)
(-3.93041e-07 -3.44203e-07 -1.07981e-06)
(-1.3738e-09 2.26746e-08 -8.428e-07)
(-3.43293e-07 2.63415e-07 -9.88398e-07)
(2.95233e-07 -3.23126e-07 -7.67008e-07)
(-6.01852e-10 1.25472e-07 -8.56314e-07)
(-1.66534e-07 2.01711e-07 -7.01517e-07)
(-1.08008e-08 1.47914e-07 -5.35395e-07)
(1.69188e-07 1.40596e-07 -7.57103e-07)
(-3.09771e-07 -2.84376e-07 -6.95848e-07)
(3.30806e-07 2.08456e-07 -9.99307e-07)
(-3.93903e-07 -3.2875e-07 -1.08095e-06)
(4.63932e-07 3.45505e-07 -1.28928e-06)
(-5.52376e-07 -4.42452e-07 -1.50816e-06)
(6.60973e-07 5.13062e-07 -1.80179e-06)
(-7.82234e-07 -6.23174e-07 -2.12607e-06)
(9.37163e-07 7.35706e-07 -2.53722e-06)
(-1.09394e-06 -8.78604e-07 -2.96593e-06)
(1.30576e-06 1.01942e-06 -3.50817e-06)
(-1.49043e-06 -1.22434e-06 -4.03526e-06)
(1.77791e-06 1.36445e-06 -4.73005e-06)
(-1.95772e-06 -1.66227e-06 -5.30994e-06)
(2.34543e-06 1.75797e-06 -6.18891e-06)
(-2.42239e-06 -2.10861e-06 -6.7285e-06)
(2.9237e-06 2.10844e-06 -7.66112e-06)
(-1.6869e-06 -2.59189e-07 -7.28293e-06)
(-4.0713e-07 1.0627e-06 -1.11744e-05)
(7.12733e-07 -8.91981e-07 -7.73521e-06)
(8.08118e-08 7.68302e-08 -6.66928e-06)
(-2.72147e-06 2.9116e-06 -8.20956e-06)
(2.20054e-06 -3.07932e-06 -7.3911e-06)
(1.98042e-08 1.35106e-07 -5.23547e-06)
(-2.12139e-06 2.54062e-06 -6.61205e-06)
(1.81356e-06 -2.34306e-06 -5.73442e-06)
(-6.01248e-09 8.77134e-08 -4.06762e-06)
(-1.57373e-06 1.97771e-06 -5.06112e-06)
(1.36559e-06 -1.70203e-06 -4.31748e-06)
(-1.06499e-08 5.9443e-08 -3.04497e-06)
(-1.15539e-06 1.46951e-06 -3.75484e-06)
(9.93319e-07 -1.22196e-06 -3.16294e-06)
(-9.43694e-09 4.26501e-08 -2.21584e-06)
(-8.33187e-07 1.0633e-06 -2.71757e-06)
(7.08941e-07 -8.67872e-07 -2.26437e-06)
(-9.23785e-09 2.9576e-08 -1.57765e-06)
(-5.89701e-07 7.5374e-07 -1.93066e-06)
(5.02767e-07 -6.14425e-07 -1.60374e-06)
(-9.81787e-09 1.96253e-08 -1.11735e-06)
(-4.1488e-07 5.28172e-07 -1.38124e-06)
(3.60746e-07 -4.52049e-07 -1.15895e-06)
(-1.2433e-08 2.45096e-08 -8.14941e-07)
(-2.92084e-07 3.53304e-07 -1.05145e-06)
(2.42538e-07 -3.62984e-07 -8.17763e-07)
(3.62412e-09 1.24351e-07 -8.34812e-07)
(-8.36477e-08 2.8203e-07 -7.29757e-07)
(1.40473e-07 2.48225e-07 -7.59295e-07)
(2.32082e-07 -1.24289e-07 -6.73251e-07)
(-1.64261e-09 2.58273e-07 -8.31064e-07)
(2.64869e-08 -5.98189e-08 -5.42976e-07)
(-4.27059e-08 4.06613e-08 -6.20417e-07)
(1.25529e-07 2.99389e-07 -7.33451e-07)
(-3.87831e-07 -2.60994e-07 -6.79481e-07)
(3.2614e-07 2.6778e-07 -1.019e-06)
(-4.60441e-07 -2.8763e-07 -1.12176e-06)
(-3.10176e-07 4.61877e-07 -1.08373e-06)
(-3.85519e-07 -4.07659e-07 -1.07969e-06)
(2.4383e-08 -3.57134e-09 -8.38768e-07)
(2.25671e-07 -4.01645e-07 -9.86918e-07)
(2.50865e-07 3.43537e-07 -1.0034e-06)
(-3.2518e-07 -3.17843e-07 -7.06945e-07)
(1.20808e-07 8.30909e-09 -8.57857e-07)
(-2.89575e-07 3.32485e-07 -7.82897e-07)
(-2.48253e-08 1.41097e-08 -7.78242e-07)
(1.22692e-08 3.7648e-09 -7.61232e-07)
(-1.11801e-07 -8.99397e-08 -1.03041e-06)
(9.21107e-09 8.52239e-09 -8.0879e-07)
(-4.62455e-09 -7.13288e-09 -7.67817e-07)
(-1.16535e-07 4.773e-09 -1.0627e-06)
(5.55174e-09 -2.12747e-09 -8.27544e-07)
(-2.36689e-08 -8.76347e-10 -7.76208e-07)
(-2.96086e-07 3.05791e-07 -7.58772e-07)
(-3.21185e-07 -3.06256e-07 -7.37765e-07)
(2.57485e-07 3.39566e-07 -9.97435e-07)
(-3.7432e-07 -3.99755e-07 -1.07926e-06)
(-7.68439e-09 4.63382e-10 -9.82459e-07)
(4.00828e-07 4.82021e-07 -1.29274e-06)
(-5.11317e-07 -5.68746e-07 -1.50453e-06)
(5.88814e-07 6.86655e-07 -1.80181e-06)
(-7.21429e-07 -8.10195e-07 -2.12364e-06)
(-2.75149e-08 2.09367e-09 -1.90883e-06)
(8.43186e-07 9.72898e-07 -2.53252e-06)
(-1.01501e-06 -1.1351e-06 -2.96298e-06)
(1.1695e-06 1.35268e-06 -3.49777e-06)
(-1.40546e-06 -1.54702e-06 -4.03025e-06)
(5.36516e-09 4.19273e-09 -3.5771e-06)
(1.56362e-06 1.83094e-06 -4.70345e-06)
(-1.89355e-06 -2.0351e-06 -5.31605e-06)
(2.00276e-06 2.38847e-06 -6.11999e-06)
(-2.42864e-06 -2.54215e-06 -6.79666e-06)
(5.02732e-07 -4.19467e-09 -5.93014e-06)
(8.812e-08 4.51364e-09 -5.93701e-06)
(2.67684e-08 7.20041e-09 -4.69317e-06)
(3.17012e-08 2.06012e-08 -4.69766e-06)
(-1.02597e-08 1.06883e-08 -3.59647e-06)
(9.13993e-09 1.05763e-08 -3.58735e-06)
(1.62078e-06 1.84981e-06 -4.72656e-06)
(-1.9437e-06 -2.03415e-06 -5.32117e-06)
(8.26702e-08 9.51015e-09 -4.19123e-06)
(-1.57683e-06 2.41558e-06 -5.37624e-06)
(1.50737e-06 -2.72432e-06 -6.08123e-06)
(2.0893e-06 2.43516e-06 -6.16557e-06)
(-2.43799e-06 -2.51811e-06 -6.76433e-06)
(1.27123e-07 2.39365e-08 -5.38221e-06)
(-2.14348e-06 3.07196e-06 -6.91568e-06)
(1.70434e-06 -3.27951e-06 -7.46201e-06)
(3.42046e-06 2.10496e-06 -8.4066e-06)
(-3.04397e-07 -1.57654e-06 -7.08814e-06)
(1.5357e-07 -2.86575e-06 -1.13103e-05)
(-3.60573e-06 -2.1791e-07 -7.1876e-06)
(-3.34847e-06 -6.37351e-09 -6.82402e-06)
(6.53967e-06 -1.02956e-06 -6.60718e-06)
(-4.39106e-07 -2.75821e-07 -8.54398e-06)
(7.05121e-08 4.66357e-08 -5.6257e-06)
(1.26452e-07 1.54729e-06 -5.09866e-06)
(-1.61742e-06 1.91592e-06 -7.09031e-06)
(3.24199e-07 1.27821e-07 -4.43444e-06)
(9.84659e-07 -2.63798e-06 -6.07337e-06)
(-1.02289e-06 1.79734e-06 -5.4219e-06)
(6.94372e-08 -1.30798e-09 -3.3905e-06)
(8.09377e-07 -1.68395e-06 -4.69743e-06)
(-7.23201e-07 1.36719e-06 -4.03688e-06)
(3.48271e-09 -2.05744e-08 -2.52577e-06)
(5.80371e-07 -1.16861e-06 -3.50828e-06)
(-5.41055e-07 1.01005e-06 -2.95363e-06)
(-6.05455e-09 -1.45363e-08 -1.8376e-06)
(3.94592e-07 -8.11948e-07 -2.53001e-06)
(-3.79308e-07 7.1966e-07 -2.09616e-06)
(-1.30862e-08 -1.58577e-08 -1.30761e-06)
(2.91825e-07 -5.74314e-07 -1.79977e-06)
(-2.604e-07 5.27374e-07 -1.4803e-06)
(-1.85674e-08 -1.57873e-08 -9.2719e-07)
(2.20446e-07 -3.89199e-07 -1.27573e-06)
(-1.52399e-07 3.90731e-07 -1.06733e-06)
(-2.18589e-08 -2.68571e-08 -6.82688e-07)
(2.04154e-07 -2.64354e-07 -9.53549e-07)
(7.31557e-08 7.23059e-08 -6.89724e-07)
(5.2365e-08 1.15401e-07 -6.63437e-07)
(-1.08177e-08 -1.66566e-07 -8.7645e-07)
(-5.44125e-09 -6.05477e-09 -8.07176e-07)
(9.7978e-08 2.90014e-07 -9.59119e-07)
(-4.1538e-08 -3.04634e-07 -1.17074e-06)
(4.99097e-07 3.48085e-07 -1.31052e-06)
(-6.24042e-07 -4.02936e-07 -1.55352e-06)
(7.31346e-07 4.86204e-07 -1.84081e-06)
(-8.80237e-07 -5.72047e-07 -2.18667e-06)
(-5.69076e-07 9.28861e-07 -2.12155e-06)
(-7.41288e-07 -8.15042e-07 -2.12859e-06)
(2.95307e-08 -3.31567e-09 -1.62765e-06)
(4.80396e-07 -7.88122e-07 -1.80515e-06)
(6.04824e-07 6.8704e-07 -1.80413e-06)
(-5.24967e-07 -5.7427e-07 -1.50873e-06)
(1.93214e-08 -4.10376e-09 -1.15239e-06)
(-4.04818e-07 6.5245e-07 -1.5012e-06)
(-1.28377e-08 2.32495e-09 -1.35651e-06)
(-6.65644e-09 -8.51582e-09 -1.29281e-06)
(-8.87818e-10 -4.96416e-09 -9.33211e-07)
(-7.00158e-09 -2.45091e-08 -8.21238e-07)
(-9.1671e-09 -3.50761e-08 -9.74094e-07)
(2.36053e-08 1.60381e-08 -9.25254e-07)
(1.74841e-08 2.67967e-08 -8.85444e-07)
(1.31806e-08 8.30366e-09 -1.04284e-06)
(-6.64068e-08 1.41409e-08 -1.04938e-06)
(-1.81973e-08 2.18181e-08 -8.18486e-07)
(1.3522e-07 1.26416e-08 -7.47013e-07)
(2.02292e-07 -1.6628e-08 -5.56551e-07)
(1.70852e-07 2.67539e-07 -9.21152e-07)
(5.92467e-08 8.54137e-08 -5.15384e-07)
(2.763e-07 1.67852e-08 -7.21756e-07)
(1.03894e-07 6.60732e-08 -8.09808e-07)
(7.5689e-08 4.38292e-09 -8.90592e-07)
(5.13176e-08 -1.39204e-08 -1.19945e-06)
(-3.1714e-08 -9.3305e-09 -1.44926e-06)
(-9.50635e-08 1.31147e-08 -1.43974e-06)
(-1.30776e-07 1.76852e-08 -2.02165e-06)
(-6.26191e-08 -1.65331e-08 -2.05093e-06)
(5.07787e-08 -2.80692e-08 -1.68662e-06)
(-7.97009e-08 -4.49548e-07 -1.64697e-06)
(7.6129e-09 -1.57624e-08 -1.56924e-06)
(1.34481e-07 5.17298e-07 -1.91888e-06)
(-1.20635e-07 -6.42084e-07 -2.30762e-06)
(1.0447e-06 6.84239e-07 -2.60366e-06)
(-1.23738e-06 -8.01271e-07 -3.04786e-06)
(1.45483e-06 9.55774e-07 -3.60734e-06)
(-1.72405e-06 -1.09498e-06 -4.14757e-06)
(-1.1285e-06 1.79925e-06 -4.04871e-06)
(-1.44757e-06 -1.55174e-06 -4.04007e-06)
(5.76233e-08 1.178e-09 -3.14148e-06)
(9.28439e-07 -1.53986e-06 -3.5029e-06)
(1.20724e-06 1.35873e-06 -3.50856e-06)
(-1.04432e-06 -1.14019e-06 -2.96981e-06)
(4.20356e-08 -1.99702e-09 -2.28666e-06)
(-8.04211e-07 1.30637e-06 -2.96658e-06)
(-1.74333e-08 7.79149e-09 -2.65619e-06)
(-6.09617e-09 -9.27764e-09 -2.52621e-06)
(-8.66938e-09 -1.00143e-08 -1.8205e-06)
(-1.24282e-08 4.83648e-09 -1.6094e-06)
(-3.09541e-08 -9.84537e-08 -1.89396e-06)
(2.42342e-10 -4.51761e-08 -1.85766e-06)
(-7.05591e-09 -3.1971e-08 -1.77537e-06)
(-2.1535e-08 -6.68827e-08 -1.3439e-06)
(3.48641e-09 -2.03448e-08 -1.28319e-06)
(1.18468e-09 -1.47522e-08 -1.22939e-06)
(1.09119e-07 3.73817e-07 -1.35103e-06)
(4.48147e-09 -9.57559e-09 -1.10974e-06)
(-1.03288e-08 -1.17264e-08 -1.14027e-06)
(-2.11901e-09 3.30929e-08 -1.22831e-06)
(2.88216e-09 -7.10778e-08 -1.05785e-06)
(1.60991e-09 -2.1155e-08 -8.23602e-07)
(-7.77329e-09 1.48797e-07 -7.45395e-07)
(1.7375e-08 2.8025e-07 -7.18586e-07)
(-1.99694e-07 5.10351e-07 -6.83613e-07)
(-6.83848e-09 3.97729e-08 -7.48695e-07)
(-1.74455e-09 -5.42801e-09 -6.36796e-07)
(-7.41864e-10 1.61778e-08 -9.05781e-07)
(-2.65561e-09 7.49949e-10 -8.98763e-07)
(4.00496e-07 -3.62123e-07 -1.08116e-06)
(1.37072e-09 -9.85e-09 -9.79805e-07)
(-4.85946e-07 3.95556e-07 -1.29176e-06)
(4.71936e-07 3.60759e-07 -1.29128e-06)
(-5.58089e-07 -4.6457e-07 -1.50495e-06)
(-1.02463e-09 1.88721e-08 -1.15562e-06)
(5.73853e-07 -4.90504e-07 -1.50312e-06)
(2.65262e-09 -1.6944e-08 -1.35384e-06)
(-6.89057e-07 5.71305e-07 -1.80118e-06)
(6.72643e-07 5.30851e-07 -1.8013e-06)
(-7.9435e-07 -6.53102e-07 -2.1234e-06)
(1.18504e-10 2.94826e-08 -1.63237e-06)
(8.19226e-07 -6.91758e-07 -2.12313e-06)
(4.17392e-09 -2.50132e-08 -1.90544e-06)
(-9.73348e-07 8.10649e-07 -2.53108e-06)
(9.53375e-07 7.60656e-07 -2.5332e-06)
(-1.1128e-06 -9.18397e-07 -2.96245e-06)
(1.80727e-09 4.1648e-08 -2.29251e-06)
(1.1506e-06 -9.74846e-07 -2.96524e-06)
(6.42379e-09 -2.07243e-08 -2.64424e-06)
(-1.35034e-06 1.11762e-06 -3.49467e-06)
(1.32575e-06 1.05471e-06 -3.50005e-06)
(-1.51683e-06 -1.27321e-06 -4.02962e-06)
(4.71266e-09 5.59308e-08 -3.14777e-06)
(1.57398e-06 -1.35555e-06 -4.03917e-06)
(8.57733e-09 2.25049e-08 -3.57416e-06)
(-1.82531e-06 1.48115e-06 -4.69465e-06)
(1.79523e-06 1.41033e-06 -4.71009e-06)
(-1.99551e-06 -1.72184e-06 -5.31257e-06)
(1.00865e-08 7.52051e-08 -4.19587e-06)
(2.07902e-06 -1.84185e-06 -5.34063e-06)
(4.1116e-09 1.72576e-07 -4.68415e-06)
(-2.38165e-06 1.86452e-06 -6.09506e-06)
(2.34464e-06 1.81476e-06 -6.13711e-06)
(-2.49302e-06 -2.22566e-06 -6.78192e-06)
(1.62224e-08 1.0517e-07 -5.38992e-06)
(2.59044e-06 -2.37617e-06 -6.83747e-06)
(-2.03897e-08 5.98506e-07 -5.91276e-06)
(-2.9453e-06 2.20145e-06 -7.53133e-06)
(2.90403e-06 2.20121e-06 -7.60206e-06)
(-1.71514e-06 -3.40413e-07 -7.31559e-06)
(-3.59786e-09 3.34322e-08 -6.87182e-06)
(1.70117e-06 -4.09036e-07 -7.31875e-06)
(-1.17025e-07 6.85209e-06 -6.43856e-06)
(-2.71276e-07 -3.30513e-06 -7.00363e-06)
(-2.25569e-07 -3.40797e-06 -6.75e-06)
(-3.22305e-07 5.10879e-06 -6.14308e-06)
(-3.33457e-06 1.34499e-06 -8.47093e-06)
(7.20924e-07 4.8876e-07 -5.65229e-06)
(5.05818e-07 -4.12218e-06 -7.35608e-06)
(-2.62002e-07 -9.45331e-07 -5.65271e-06)
(-5.2868e-07 -5.70746e-07 -5.41077e-06)
(-1.89918e-07 1.83171e-06 -6.65075e-06)
(-2.85743e-06 -1.9197e-06 -6.67798e-06)
(6.42863e-07 -3.63637e-08 -5.95001e-06)
(-1.07226e-06 7.61064e-08 -6.3529e-06)
(-1.49872e-06 -3.34676e-07 -6.40204e-06)
(-3.32355e-07 -3.825e-07 -5.74307e-06)
(-4.5264e-07 -7.40121e-08 -5.12569e-06)
(-5.7453e-07 1.03267e-07 -5.02255e-06)
(-3.11215e-07 5.7946e-08 -3.8066e-06)
(-1.64534e-07 -1.96771e-08 -3.88736e-06)
(7.79117e-08 -6.46139e-08 -3.26544e-06)
(-9.35374e-08 -2.02475e-08 -2.85782e-06)
(-1.90538e-07 2.98674e-08 -2.80688e-06)
(-1.79444e-07 8.39527e-09 -2.78633e-06)
(-1.232e-07 4.427e-09 -2.01176e-06)
(-9.51799e-08 1.85393e-09 -1.43711e-06)
(-7.47618e-08 -9.84568e-10 -1.04967e-06)
(-1.92221e-08 -3.62865e-09 -8.15995e-07)
(1.60052e-07 -1.35218e-08 -7.39132e-07)
(1.75421e-07 -6.81618e-09 -5.38295e-07)
(1.74575e-07 1.75192e-07 -7.49457e-07)
(2.00941e-07 -1.75203e-07 -6.62872e-07)
(2.59247e-07 1.83724e-09 -7.22304e-07)
(2.47204e-07 1.2262e-09 -7.26769e-07)
(1.85493e-07 -1.78227e-07 -7.07468e-07)
(1.86786e-07 1.75588e-07 -7.30901e-07)
(1.25315e-07 -4.07724e-10 -8.58395e-07)
(-1.10613e-07 7.08972e-10 -6.38845e-07)
(3.52193e-08 -7.25388e-10 -7.85307e-07)
(-1.27487e-08 -1.32013e-08 -7.61862e-07)
(-8.88679e-09 -8.37026e-09 -7.67812e-07)
(3.19828e-08 3.18559e-08 -7.92725e-07)
(-9.63979e-08 2.6578e-09 -6.23048e-07)
(-2.15802e-10 3.66301e-08 -7.82748e-07)
(-1.0452e-10 -1.28863e-08 -7.69664e-07)
(-2.47701e-10 -1.5872e-08 -7.68447e-07)
(1.34997e-10 -2.62408e-10 -8.58806e-07)
(-6.12864e-08 5.97213e-08 -5.93597e-07)
(-7.02677e-08 -6.99348e-08 -5.98292e-07)
(-6.97948e-08 7.05894e-08 -5.9731e-07)
(-6.18823e-08 -5.91086e-08 -5.95088e-07)
(6.16576e-08 -5.99851e-08 -5.93299e-07)
(-5.12856e-08 -5.0648e-08 -5.90086e-07)
(2.17234e-09 2.1676e-09 -9.22449e-07)
(7.04184e-08 7.01203e-08 -5.96416e-07)
(-5.96592e-08 6.24479e-08 -5.94565e-07)
(-5.97628e-08 -6.19952e-08 -5.94729e-07)
(2.1915e-09 -1.74399e-09 -9.2272e-07)
(7.00285e-08 -7.02866e-08 -5.97344e-07)
(1.06446e-10 1.26425e-10 -8.64882e-07)
(2.39065e-10 2.7768e-10 -9.46836e-07)
(2.70058e-10 3.40716e-09 -9.4245e-07)
(2.46029e-10 5.81578e-09 -8.2816e-07)
(-2.41567e-09 4.76536e-09 -8.25736e-07)
(2.24874e-09 -2.8493e-08 -7.71615e-07)
(-1.03931e-09 -8.68419e-09 -9.83269e-07)
(-4.58669e-10 -1.57322e-08 -1.36214e-06)
(8.40516e-10 -2.07241e-08 -1.91807e-06)
(3.20585e-09 -2.06924e-08 -2.65938e-06)
(7.725e-09 -6.22779e-09 -3.58819e-06)
(8.20931e-09 -2.37121e-09 -3.41217e-06)
(-3.9826e-09 1.14666e-07 -3.03563e-06)
(-4.40618e-08 -2.38742e-07 -3.56451e-06)
(3.10264e-08 -9.80104e-08 -3.49797e-06)
(-3.02257e-08 -1.24416e-08 -3.34191e-06)
(2.22712e-07 1.05086e-06 -3.69257e-06)
(-3.13002e-07 -1.16344e-06 -4.29394e-06)
(1.99352e-06 1.30754e-06 -4.8995e-06)
(-2.34012e-06 -1.47695e-06 -5.42118e-06)
(2.69104e-06 1.72695e-06 -6.54655e-06)
(-3.10234e-08 -7.03343e-08 -5.36532e-06)
(-7.70361e-07 -1.59831e-06 -5.48889e-06)
(-1.41377e-07 -4.48994e-08 -4.34375e-06)
(2.13783e-07 1.48961e-06 -4.97691e-06)
(1.91317e-09 -3.37075e-08 -4.09644e-06)
(4.69449e-08 -1.33575e-07 -4.39568e-06)
(8.32322e-08 2.25249e-08 -4.46833e-06)
(-2.93946e-07 1.61443e-08 -3.76755e-06)
(-5.23545e-07 3.07777e-08 -4.94893e-06)
(-1.00582e-06 3.58528e-08 -6.30666e-06)
(-2.32147e-06 -3.10932e-08 -7.91993e-06)
(-2.38765e-06 -3.8397e-07 -7.88465e-06)
(-5.51943e-06 1.31858e-06 -7.9017e-06)
(-2.29631e-06 -6.25072e-07 -6.81833e-06)
(-1.96693e-06 -2.25572e-06 -6.31746e-06)
(-4.01834e-08 -3.39314e-07 -6.62613e-06)
(-7.63317e-07 -3.98442e-07 -7.29311e-06)
(6.89509e-07 -5.15896e-06 -6.12417e-06)
(-4.79116e-06 -1.45463e-06 -6.96021e-06)
(-2.9132e-06 1.88471e-07 -9.98033e-06)
(-1.40749e-06 -2.16409e-06 -9.01054e-06)
(2.10565e-06 1.5685e-06 -8.85952e-06)
(1.68333e-07 7.73769e-08 -9.15206e-06)
(9.25624e-08 7.24293e-08 -5.8558e-06)
(-2.16167e-06 1.89595e-06 -7.43869e-06)
(2.2775e-06 1.58714e-06 -7.80705e-06)
(1.48198e-08 2.06137e-07 -9.3624e-06)
(-2.80749e-07 -1.82658e-07 -6.02793e-06)
(-2.36097e-06 2.08825e-06 -7.69982e-06)
(2.28586e-06 1.87848e-06 -7.84082e-06)
(4.57518e-09 2.19083e-07 -9.4071e-06)
(-3.104e-07 -2.18021e-07 -6.05372e-06)
(-2.30482e-06 1.89946e-06 -7.60392e-06)
(2.2793e-06 2.13818e-06 -7.94033e-06)
(1.88753e-08 2.04495e-07 -9.38712e-06)
(-4.99742e-07 -4.90145e-07 -6.19642e-06)
(-2.19988e-06 1.58297e-06 -7.53852e-06)
(1.62683e-06 2.16865e-06 -8.45891e-06)
(-1.38158e-06 -7.71178e-07 -1.17131e-05)
(1.19107e-06 1.23449e-06 -9.25735e-06)
(9.07871e-07 -1.07291e-06 -9.05287e-06)
(2.58668e-06 1.14695e-06 -1.14681e-05)
(-1.21622e-06 -4.5022e-06 -1.12336e-05)
(-6.79979e-07 -2.43398e-06 -8.9452e-06)
(3.81424e-07 3.97144e-07 -6.56612e-06)
(1.47983e-06 -1.11326e-06 -9.25147e-06)
(-4.55147e-06 2.17238e-06 -8.22274e-06)
(-2.26262e-07 -1.36125e-07 -7.34561e-06)
(-2.64668e-06 -3.52742e-06 -7.76219e-06)
(2.52498e-06 2.00455e-06 -8.22044e-06)
(2.41328e-06 -3.81717e-08 -6.45154e-06)
(2.22854e-06 -2.36818e-06 -8.52625e-06)
(2.81418e-06 -2.35474e-06 -9.75212e-06)
(1.26275e-06 -3.38759e-06 -6.62753e-06)
(2.14212e-07 1.18554e-06 -8.01013e-06)
(1.03086e-06 -1.78655e-06 -6.45797e-06)
(1.51244e-06 -1.19091e-06 -6.69955e-06)
(2.39668e-06 1.87531e-06 -8.62628e-06)
(-8.70129e-07 -3.3824e-06 -7.44441e-06)
(2.13347e-07 -4.8444e-07 -5.64435e-06)
(1.45583e-06 2.17821e-06 -6.94809e-06)
(-9.7958e-07 -2.29496e-06 -6.03204e-06)
(1.2902e-08 -1.60993e-07 -4.52508e-06)
(9.96541e-07 1.79888e-06 -5.34535e-06)
(-7.72644e-07 -1.59842e-06 -4.66689e-06)
(-1.70665e-09 -8.28044e-08 -3.44582e-06)
(7.3078e-07 1.36327e-06 -4.01438e-06)
(-5.56862e-07 -1.14148e-06 -3.4845e-06)
(1.64724e-09 -6.35146e-08 -2.5506e-06)
(5.34821e-07 9.9496e-07 -2.93786e-06)
(-3.95959e-07 -8.16432e-07 -2.52806e-06)
(1.86448e-09 -4.89406e-08 -1.83541e-06)
(3.83272e-07 7.12238e-07 -2.10259e-06)
(-2.82175e-07 -5.7793e-07 -1.79679e-06)
(-7.20307e-10 -3.03435e-08 -1.30315e-06)
(2.64081e-07 5.07506e-07 -1.48686e-06)
(-2.146e-07 -4.09874e-07 -1.28033e-06)
(-1.34498e-08 -1.39494e-09 -9.19253e-07)
(1.65009e-07 3.79811e-07 -1.07767e-06)
(-1.93409e-07 -2.78583e-07 -9.51071e-07)