/*--------------------------------*- C++ -*----------------------------------*\
| =========                 |                                                 |
| \\      /  F ield         | OpenFOAM: The Open Source CFD Toolbox           |
|  \\    /   O peration     | Version:  2306                                  |
|   \\  /    A nd           | Website:  www.openfoam.com                      |
|    \\/     M anipulation  |                                                 |
\*---------------------------------------------------------------------------*/
FoamFile
{
    version     2.0;
    format      ascii;
    arch        "LSB;label=32;scalar=64";
    class       volScalarField;
    location    "2.5";
    object      gradTy;
}
// * * * * * * * * * * * * * * * * * * * * * * * * * * * * * * * * * * * * * //

dimensions      [0 -1 0 1 0 0 0];

internalField   nonuniform List<scalar> 
5322
(
0.046833
0.00551451
0.00132125
0.000362985
0.00109087
0.00135247
0.0012546
0.00105543
0.000865762
0.000664329
0.000204317
-0.00126019
-0.00130379
-0.00118757
-0.00106076
0.00237965
0.00315026
-2.70274e-05
0.00238044
-0.00329731
0.00353759
-0.00439414
0.0049355
-0.00621563
0.00710442
-0.00848653
0.00960131
-0.0117417
0.0131411
-0.0152604
0.0169734
-0.0195743
0.0220763
-0.0213621
0.0217698
-0.0122472
0.0245738
0.0300046
0.0151609
0.0169831
0.0221708
0.0186171
0.0198874
0.0207203
0.0197631
0.0202752
0.0200791
0.0214622
0.0206331
0.0190635
0.0240554
0.0108069
0.0126286
-0.0391375
-0.00191217
-0.0224876
0.0123518
-0.0293021
-0.00140862
-0.02546
0.0125347
-0.0287961
-0.00125256
-0.0252739
0.0125907
-0.0298659
-0.00171224
-0.0245166
0.0127694
-0.0332898
0.00101184
0.0261557
0.0145183
0.0203515
0.0151392
0.0192362
0.016007
0.0191787
0.0163169
0.0228633
0.0017225
0.00880392
0.0129119
0.0206067
-0.00136639
-0.0075254
0.00271128
0.00515875
0.0109242
0.00156361
0.00293286
0.000527381
7.39644e-05
7.19875e-05
0.0256798
-0.0147004
0.000476682
0.0148581
0.000453709
-0.000737118
0.00264309
0.000474194
0.0158727
-0.0249783
0.022412
0.000509007
-0.000494704
-6.29431e-05
1.34174e-05
4.81168e-05
4.49338e-05
3.50987e-05
2.97295e-05
2.75528e-05
-1.71278e-05
1.15178e-05
0.00088977
-0.000346349
-0.000137958
-0.000664503
0.000825543
-0.000425726
-0.000849088
-0.00117711
-0.00132302
-5.19099e-05
0.000981994
-0.000733876
7.07526e-05
0.000806176
-0.000801183
3.44607e-05
0.000837326
-0.000858984
-2.79298e-05
0.000780218
-0.000937897
-7.62711e-05
-0.000231867
0.00144104
0.00118385
-0.00080688
0.000530635
0.000411385
-0.000870543
0.000109207
-0.000840036
0.000656422
0.000682637
-0.000754556
-1.05463e-05
-0.000693452
0.000699336
0.000766119
-0.000679827
-1.89443e-06
-0.000641493
0.000825664
-4.29686e-05
-2.67274e-05
0.00267826
-0.00208678
0.00255028
-0.00308365
0.000127553
-0.00167494
6.63979e-06
7.11002e-05
-0.000258248
0.000728176
-0.00145404
0.00145083
-0.00256402
8.18386e-06
0.00262427
-0.0028658
0.00298324
-0.00345819
1.71227e-05
0.00341277
-0.00406935
0.00422136
-0.00494866
2.23218e-05
0.00484943
-0.00579239
0.00598909
-0.00705396
2.5981e-05
0.00691182
-0.00819514
0.00846562
-0.0098874
3.61673e-05
0.00969534
-0.0113726
0.011748
-0.0134967
5.57742e-05
0.0132325
-0.0153735
0.0158804
-0.0178187
8.01195e-05
0.0174252
-0.0200919
0.0207304
-0.0223548
0.000111525
0.0217326
-0.0250474
0.0252591
-0.0147387
-9.72769e-05
-0.00155633
0.000761587
-0.000494275
-2.3479e-05
0.00014292
0.000221957
1.55117e-05
0.0257114
-0.0146784
7.84094e-05
0.0176154
-0.00266462
-0.00110162
0.000947382
-0.000977871
0.0147716
-0.025323
0.000157307
0.000112944
0.000316377
0.000175163
7.47241e-05
2.38598e-05
1.04697e-06
-1.21024e-05
-2.08855e-05
2.10551e-05
-1.16536e-05
-0.000712532
-0.00076191
-0.000763287
-0.000713036
0.000165639
0.000236708
0.000140871
-0.000940944
0.000462648
-0.000968619
0.000236312
0.000165971
0.000142142
-0.000957157
0.000318088
0.000909531
0.000575478
-0.000940873
0.000463961
0.000987688
0.00138169
0.00148275
-0.00258719
-0.00258279
-0.00277561
0.00224108
-0.0031122
0.00335867
-0.00420296
0.00485709
-0.00590316
0.00691421
-0.00828284
0.00957962
-0.0114551
0.0128384
-0.0155158
0.0166071
-0.0202893
0.0205159
-0.00384459
0.0121969
-0.0023349
0.000272743
0.0177645
-0.0186746
0.000874478
0.0150554
-0.0146634
0.000627479
0.0118954
-0.0108953
0.000470586
0.00896597
-0.00786724
0.000352714
0.00648991
-0.00559343
0.000250455
0.0045388
-0.00397463
0.000160743
0.00308723
-0.00294053
0.000193635
0.00196655
-0.000186546
0.00196587
-0.0029419
0.0001938
0.00225141
-0.00276176
0.00107241
0.00172402
0.00126422
0.00120168
-0.00243056
0.00178167
-0.00280983
0.00295304
-0.00378164
0.00438515
-0.00532627
0.00628809
-0.00750943
0.008713
-0.0104644
0.0116619
-0.0142075
0.0150254
-0.0180223
0.0180208
-0.00221529
0.00908288
-0.00762377
0.000656668
0.0248855
-0.026319
0.00115475
0.0217147
-0.0200262
0.000749687
0.0169035
-0.0145472
0.00050806
0.0125599
-0.0104441
0.000364531
0.00908802
-0.00741771
0.000252786
0.00644222
-0.00525149
0.000167738
0.00451429
-0.00386367
0.000209484
0.00301969
-0.00310243
0.00106283
0.00241051
0.00212158
-0.0010623
0.00220746
-0.000511272
0.000347532
0.00255888
-0.00223071
0.00228872
-0.00245838
0.00394766
-0.00348426
-3.05243e-05
-0.00343286
0.00293621
-0.00271661
7.10179e-05
0.00284175
0.000120596
3.21777e-05
-0.000768715
7.2841e-05
-6.09648e-05
4.07949e-05
-1.81835e-05
-7.49014e-06
0.0026136
-0.00261757
0.00290227
-0.00341671
3.96053e-06
0.00411984
-0.00486108
0.00586885
-0.00692474
1.78946e-05
0.00831537
-0.00970169
0.0115613
-0.0132224
3.58353e-05
0.0156491
-0.017394
0.0204142
-0.0217278
-3.58519e-05
3.85781e-05
6.1542e-05
0.000176079
9.13528e-05
9.03955e-05
0.0158103
-0.0173859
8.12833e-05
0.020646
-0.0232848
0.0208133
-0.0215223
0.000204586
0.0262561
-0.02803
0.0179911
-0.0134747
-0.0244936
-0.00186247
-5.44745e-05
-0.00879965
-0.00235744
0.000398596
0.0132247
0.0163753
0.00109249
-0.0225468
0.0153618
-1.11793e-05
-0.0143927
0.0116854
-0.000175849
-0.00998813
0.00863288
-0.000124242
-0.00693973
0.00615094
-0.000135536
-0.00490867
0.00450747
-0.000134934
-0.00332649
0.00333958
-0.000229548
-0.00225944
0.000617999
0.000986333
-0.00142364
-5.17502e-05
0.00247875
-0.00260371
0.00297509
-0.0034439
0.00415559
-0.00488929
0.00793898
-0.00696617
-2.83391e-05
-0.00673608
0.00587214
-0.00490829
-3.50749e-05
0.0055765
1.98714e-05
-7.27848e-05
-4.24287e-05
-0.00020948
-0.000299795
0.000137078
0.000229031
7.09714e-05
0.000120862
0.00018648
0.000108048
-0.00014212
0.00228666
0.000730032
0.000143463
0.000564728
3.74609e-05
-0.000118978
-7.97479e-05
0.000112091
0.000151155
-0.000141309
-0.000239908
-0.00384229
-0.000134721
0.00442135
-0.0054879
0.0058482
-0.00684847
0.00816901
-0.00935883
0.0153782
-0.0132627
1.00683e-05
-0.0131612
0.0116131
-0.00974519
-1.70686e-05
0.0111655
6.65939e-05
-7.92961e-05
-8.55922e-05
4.13374e-05
-0.000841484
-0.00038612
-0.000273257
-0.000571647
-0.000173887
-0.000126087
0.00319502
-8.18426e-05
-0.000100226
0.000282846
-0.000607503
-0.000180812
0.00127177
0.0023953
0.00436197
0.00033994
-4.63932e-05
0.000138272
6.40982e-06
-0.00309507
-8.4188e-05
0.00338082
0.00308341
-0.00397068
0.0001613
-0.00419234
-0.000144821
0.00488295
0.00453719
-0.00558207
0.000251988
-0.00591246
-0.000213788
0.00692863
0.00650133
-0.00784954
0.000355966
-0.00833201
-0.000177131
0.00955232
0.00901459
-0.0108822
0.000478041
-0.0115859
0.00019235
0.0126594
0.0120541
-0.0147166
0.000642778
-0.0157423
0.00147501
0.0159361
0.0155108
-0.0190228
0.00089889
-0.0203091
0.00511543
0.0188158
0.0188137
-0.00290952
0.000285746
-0.00349603
0.0585648
-0.028249
-0.029128
0.0436649
0.0114956
0.00417744
-0.0352323
-0.00807975
-0.00487817
0.0156556
-0.0164077
-0.000310801
0.000650482
-0.00286048
-0.00326923
-0.000632582
0.000882622
0.000495265
-0.00016818
-0.000552256
-0.000173056
0.000255277
7.17544e-05
3.78376e-05
1.58455e-05
-8.41511e-06
-3.10141e-05
-0.000115571
-5.82579e-05
0.00149737
-0.00149746
1.57029e-05
1.04804e-05
-0.0015233
0.00150075
-3.48482e-06
6.05959e-06
-6.1999e-06
-0.000112832
-7.15407e-05
0.000272273
2.27162e-05
0.000313078
-0.00011014
-0.000135658
-2.2428e-06
0.000510439
-0.000597733
0.000603328
-0.000505202
-0.000512693
-0.000432889
1.85265e-05
0.000599319
0.000533743
-0.000529874
-1.49059e-05
-0.00060074
1.08056e-06
2.37333e-06
2.9121e-05
4.97075e-05
4.07296e-05
-0.00024353
-7.42238e-05
-0.000134463
-0.000177129
-0.000176858
-5.3229e-05
-2.02668e-05
0.000980053
-0.00204053
-0.000837695
-0.000106339
0.00898174
-0.00994393
0.0111756
-0.0126235
0.0147602
-0.000601148
-0.0136608
-0.000383756
0.0127317
-0.000288098
-0.00114166
0.00019252
0.000137985
0.000263058
0.000306434
-0.000265754
-0.00328179
0.0112699
-0.0053425
-0.0192797
-0.00290012
-0.00340549
-0.0440937
-0.0124327
0.00161086
-0.0184965
0.0134059
0.000661341
0.000619053
0.0162047
0.0135653
0.00176186
-0.00156118
0.0178483
0.0160554
0.0018725
-0.00186343
0.0162347
0.018275
0.00174782
-0.00418928
0.0135297
0.0185354
-0.00659126
0.0105512
-0.00917021
0.00980301
-0.0384803
-0.0208033
0.0033944
-0.00951502
0.0185673
-0.00116346
-0.0301489
0.0171329
-0.000326254
-0.0202408
-0.020126
-0.0289538
0.0101328
-0.0152697
-0.0101787
0.0160283
-0.0289094
-0.00414051
0.0186172
-0.0196151
-0.00137601
0.0153751
-0.0136617
-0.00070773
0.0116518
-0.00975625
-0.00054286
0.00850393
-0.00697805
-0.000418296
0.00608751
-0.00493957
-0.000259346
0.00433766
-0.00350319
-1.19226e-05
0.00324625
-0.00238105
0.000553481
0.00217832
-0.00110763
0.00210999
0.0024067
-0.00313262
0.00301167
-0.0039024
0.000213062
0.00177602
-0.00243255
0.00106111
0.00119521
0.00127419
0.00172322
0.00147957
0.00107146
0.00208858
0.0012632
-0.000210335
-0.000663641
-0.000853829
-0.000822468
-0.00110486
-0.00161836
-0.00123518
-0.000565045
-0.000292598
0.00626791
-0.00744216
-0.000226529
-0.000175261
-0.000336367
3.34334e-05
-0.00949499
0.0083298
2.87085e-05
0.00704225
-0.00836166
2.98938e-05
0.00989461
-0.0115946
6.05394e-05
0.0135353
-0.0156505
0.000109947
0.0178728
-0.0203819
0.000146624
0.0222637
0.000171272
0.000379463
1.90851e-05
-2.14745e-05
-7.50092e-05
1.18378e-05
3.20477e-05
2.56453e-05
1.61683e-05
7.9124e-06
3.16118e-06
2.02941e-06
1.37405e-05
4.05501e-05
-0.00145915
2.40785e-05
7.73085e-05
-7.5585e-06
-1.05599e-05
-1.58086e-05
-2.25128e-05
-3.69786e-05
-7.10147e-05
-0.000137902
-0.000185636
0.000757337
-0.000222098
-0.000584495
-0.000794229
0.015509
-0.0165923
0.0197564
2.27184e-05
-0.00275091
0.00229522
0.00718362
2.92602e-05
-0.00644602
0.00603971
0.00616705
1.0293e-05
-0.00686914
0.00641953
0.00553958
-6.82091e-06
-0.00866177
0.00822013
0.00774822
-0.000165104
0.010687
-0.0112425
0.0109641
-0.0117793
-0.00110097
-0.00599308
0.00852808
-0.000753113
-0.0082006
-0.000189778
-5.87283e-05
0.0284944
-9.1992e-05
-0.0286735
0.0178236
-0.000634883
-0.0184358
0.0184803
-0.000410436
-0.0193675
0.0288714
-0.000280101
-0.0288859
0.0257246
-0.0256314
0.0254647
-0.0260941
0.000110534
-0.0285768
0.0282529
-3.37238e-05
-0.0184749
-0.00070328
0.0186309
-0.0158957
0.000102759
0.0282221
0.0102
0.0276945
0.0102546
-0.0123197
0.0181112
0.00226288
-0.0136237
0.0136562
0.000856052
-0.0111293
0.0102683
0.000580142
-0.00844069
0.00769215
0.000423223
-0.00621345
0.00551142
0.000316859
-0.00446726
0.0039494
0.000150165
-0.00321567
0.00266536
-0.000116764
-0.00248874
0.00152594
-0.000941028
-0.00256857
-0.00073762
-0.00229241
0.00151025
0.000142165
7.58885e-05
0.000942209
0.000236495
-0.00145456
-0.00118841
-0.000318075
-0.000923242
-0.000586462
-0.000453557
-0.0010234
-0.000497043
-0.000529296
-0.00101603
-0.00149139
-0.00157082
-0.001067
0.00275233
0.000179389
-0.00179963
-0.000190857
0.00276102
0.00325075
6.5572e-05
-0.00281858
-0.000161309
0.0036522
0.00536005
4.90138e-06
-0.00649926
0.000107441
0.00752257
-4.69709e-05
-0.00917291
0.000165219
0.0104759
-7.22626e-05
-0.012677
0.00014425
0.0142327
-9.35509e-05
-0.0170287
0.000197008
0.0187285
-0.000176567
-0.0222216
2.73944e-05
0.023556
-0.000499705
-0.028173
-0.000787862
0.000539848
-0.017106
0.0278951
0.000162427
0.0161015
0.000337973
-0.013845
0.0227142
-4.02977e-05
0.0123982
0.000295406
-0.0107409
0.0176003
-3.49995e-05
0.00936878
0.000239642
-0.00800199
0.0131692
-1.97763e-05
0.00686327
0.000207061
-0.00582093
0.00956447
-1.25219e-05
0.00492226
0.000148719
-0.00414004
0.00680497
-6.94888e-06
0.00346177
0.000106097
-0.00298035
0.00482817
-1.81951e-05
0.00248943
6.53019e-05
-0.0022956
0.00347466
-0.000115337
0.0022457
-0.000342216
0.000516404
-0.00241555
-0.00210921
0.00109835
-0.00220128
-0.000567761
-0.000299527
-0.00437671
-0.00240463
-0.0021094
-0.00143696
-0.00107019
0.00246426
0.00284665
0.000231628
-0.00170511
-0.000208522
0.00395065
9.27963e-05
-0.00455107
0.000125393
-0.000253394
-0.000117327
-1.87326e-06
-0.0023583
-4.0804e-05
0.000960734
-0.000129029
-0.000160032
-0.000255432
0.00094789
-0.000308598
0.000128098
0.00011232
3.50024e-06
8.71097e-06
7.90527e-06
7.27224e-06
6.08211e-06
6.37448e-06
-1.23517e-05
-5.15313e-06
0.00412434
-0.00477296
2.5499e-05
-1.01472e-05
-3.52857e-05
2.04305e-06
-0.00296752
8.55184e-07
0.00344302
-0.00417484
4.621e-06
0.00492947
-0.00591858
1.33692e-05
1.06972e-05
-1.8309e-06
1.16401e-05
1.34726e-05
3.9752e-05
5.27221e-05
3.42975e-05
2.0536e-05
1.16565e-05
9.05974e-06
2.10597e-05
1.79949e-05
1.36488e-06
0.00339878
-0.00399427
0.00361169
-0.00429605
0.00510742
-0.00606569
8.14183e-05
-0.00245908
8.77372e-05
0.00230179
0.000106841
-0.0018696
5.23055e-05
0.00143907
-0.00011591
-5.45353e-05
0.000516169
-2.26999e-05
-0.000801708
0.00534779
6.57507e-05
-0.00403014
-0.000236841
0.00484256
0.00633802
0.000233131
-0.00593296
-0.000318931
0.00707062
0.00855835
0.000371232
-0.00827937
-0.000421685
0.00951766
0.011648
0.000498565
-0.0112713
-0.000543037
0.0122532
-0.0147887
-0.000669844
0.0147174
-0.0190042
9.02697e-06
-0.000640092
-0.000132841
-2.84861e-05
2.305e-05
3.2131e-05
2.93409e-05
2.81538e-05
2.88441e-05
-1.76479e-05
1.21831e-05
0.000714407
0.000757656
0.000765837
-0.000207981
0.000979968
-4.58338e-05
-5.11853e-05
0.0010083
-0.000181278
0.000946741
-0.00030047
3.82541e-05
-7.96747e-05
7.99244e-05
-1.99137e-05
2.71172e-05
-9.57386e-06
-0.00285063
0.000102891
7.62606e-05
2.22785e-05
3.642e-06
9.55357e-07
-0.000529864
0.000528987
1.86838e-05
-0.000440515
0.000696716
-0.000157532
5.19044e-05
5.75861e-05
4.06023e-06
-0.000107362
0.000972064
-0.00280571
0.000179776
-0.0018956
-0.000207257
0.00268956
0.00332022
2.74829e-05
-0.00286468
-0.00015133
0.00440035
0.000111946
-0.00413887
-0.000233405
0.00512419
0.00620394
0.000238472
-0.00599731
-0.000327413
0.00705297
-0.00834934
-0.000429908
0.00949868
0.000342285
0.000276792
0.000208154
0.000141401
7.40916e-05
5.3023e-05
-2.73002e-05
2.57848e-06
2.3004e-05
5.26429e-06
-1.34981e-05
-6.72538e-05
-4.84409e-05
-1.65533e-05
-1.74987e-05
-6.38706e-05
-4.50386e-05
-0.000131594
-0.000115881
-0.000182621
-0.000204013
-0.00109339
-0.00155432
-0.0024538
-0.00265802
-0.00477152
-0.00408129
-0.00235778
-0.00876644
-0.0264183
0.00173014
-0.0418933
-0.0311743
-0.0233937
-0.0156071
-0.0138032
0.00525502
-0.012229
-0.000790458
0.00307062
0.000298281
-0.000229829
0.0149215
-0.0173877
0.0201138
0.000183321
-0.00246624
0.00376627
0.00834431
0.000310402
-0.00579777
0.00781084
0.00780164
0.00032745
-0.00620027
0.00805165
0.00732596
0.000241598
-0.00830325
0.00915569
-0.000418843
0.000329968
0.00071685
0.00414954
-0.0176293
-0.0254066
0.000950358
0.0217767
0.000497355
0.000235445
0.0138149
0.000145592
-0.022624
0.0256603
4.78789e-06
-0.0271996
0.0160455
-0.0165368
0.0145059
-0.00246738
-0.0178204
0.00064608
-0.0212384
0.0291376
-0.0255121
0.024008
-5.41451e-05
-0.024047
3.78206e-05
0.0238223
-7.12251e-05
-0.0239273
1.46447e-05
0.0240356
-8.23189e-05
-0.0241258
0.0259577
-0.0297669
0.00199868
-0.0227939
0.0313993
0.00161438
0.000896228
-0.0098296
0.0105126
-0.0108758
3.0459e-05
-0.00823674
0.00757979
0.000542357
-0.00941722
0.00679314
-0.00793731
0.000613509
0.0152406
-0.00857139
0.00511794
0.00112224
-0.00963783
0.0076123
-0.000163912
-0.000146968
-7.02479e-06
0.000260249
0.000134136
5.09211e-05
1.22478e-05
-3.76152e-06
-1.35156e-05
-2.09563e-05
2.09137e-05
-1.04777e-05
0.000437587
0.000509414
1.35351e-06
-0.000117473
-7.25542e-05
0.000916361
0.000318879
-0.000805841
0.000410647
0.000530604
-0.000849917
2.02363e-05
-0.000943236
-7.50572e-05
-0.000235676
-0.000783028
0.00118901
0.00145833
7.5237e-05
0.000273519
-6.57562e-05
3.80018e-05
0.000661766
-0.000711283
-7.38946e-06
-0.000758932
0.000759516
0.000713832
-0.000658671
-2.8446e-06
-0.000868174
5.56215e-08
0.000868964
7.76664e-07
2.14383e-06
-2.02756e-05
3.22819e-05
4.95368e-05
0.00028077
0.00435838
0.00239264
0.0012483
-0.000212666
-0.000657796
-0.000869833
-0.00112607
-0.00157017
-0.00241076
-0.00408112
-0.00419078
-0.0080254
-0.00877246
-0.0187464
-0.0307965
-0.0277807
-0.0279403
0.0116521
-0.0168622
-0.00800133
-0.00865081
-0.0254377
-0.0314228
-0.0282768
-0.0282873
-0.0282608
-0.0281224
-0.0320946
0.0118082
-0.00193711
-0.00719123
0.0356584
-0.0102393
-0.0232803
-0.0218425
-0.00627336
-0.00766978
-0.0175037
-0.0181584
-0.00284247
-0.00489537
6.48486e-05
0.000702882
0.000736112
0.000592692
0.000439166
0.000335452
0.000187312
0.000178671
-5.15549e-07
0.000113458
-0.000386402
-0.000640699
-0.000866726
-0.00118123
-0.00174184
-0.00299534
0.000545363
0.000361296
0.000268878
0.000532297
0.000570529
0.000473017
0.000466368
0.00032695
0.000412295
0.000254277
0.00294457
0.00448194
-0.00527628
0.00639636
-0.00741365
0.00025431
0.00436592
-0.00379387
0.000170896
-1.41432e-05
-6.70902e-05
-5.26467e-05
-0.00281813
4.58206e-05
-0.000963285
0.000578988
-0.000220999
-4.82865e-05
-6.7349e-05
0.000107951
-0.000872517
0.000680345
-4.4534e-06
-1.86266e-06
-1.85616e-06
1.02328e-06
0.000437257
-1.4239e-05
2.64495e-06
2.42828e-06
1.03853e-06
-0.00027236
2.09022e-06
0.000113295
7.04343e-05
9.3079e-05
-7.39625e-05
6.47246e-05
-6.66034e-07
7.1284e-06
-0.00027165
0.000872477
0.000851699
-0.000526576
-0.000105202
-0.000416877
0.000811338
7.21721e-05
2.05642e-05
2.41703e-06
1.00161e-06
-1.67415e-05
-1.39798e-05
-1.30244e-05
-4.0913e-05
-5.36152e-05
-7.14823e-05
2.73664e-05
-0.000128197
-0.000113629
-0.000176072
-0.000196548
-0.00533342
0.00625093
0.00903484
-0.0103877
0.0124876
-0.0143332
0.000482246
0.00864184
-0.00749364
0.000356525
2.00215e-05
-8.54136e-05
8.4633e-05
-8.01303e-05
0.000172465
-0.000189054
-0.000196421
-0.000191205
-0.000190227
-8.2251e-05
0.000116535
0.000288186
0.000352593
0.000158051
0.00406819
0.000128671
0.000144772
6.89102e-05
3.02156e-05
7.36561e-06
-1.17519e-05
-6.20366e-06
-4.73741e-06
-1.22102e-05
1.80573e-05
6.21456e-06
-4.49351e-07
4.2932e-05
1.96446e-05
1.94955e-05
1.11176e-05
-1.28233e-06
2.01693e-05
1.81115e-05
4.60487e-06
9.1609e-06
1.58836e-05
2.57743e-05
1.90634e-05
8.3009e-05
4.17262e-05
6.57535e-05
0.000164984
7.91113e-05
0.00016483
0.000333682
0.000262966
0.000944308
-0.00241618
-0.00295493
-0.000501871
0.000377891
0.000519405
0.000331008
-0.00713511
-0.000156677
-8.68485e-05
-0.0001029
-0.000735413
-0.000256395
0.0162889
-0.000222858
-0.0204059
-0.000158234
-0.000884844
-0.0189672
-0.000866573
-0.00107477
-0.0125333
-0.00622982
-0.0102681
-0.0247637
0.00255375
0.00622135
0.000385851
-0.000337555
-0.000289647
-0.000527558
0.000100532
-0.014605
0.0195374
0.000128295
-0.00436464
0.00198479
0.00665191
4.62568e-05
-0.00831869
0.00530698
0.0053641
-1.6008e-05
-0.00858059
0.00566574
0.00475529
-7.00408e-05
-0.00789335
0.00189979
-0.0115312
0.00554612
0.00861088
-0.0108559
0.00320945
0.0013871
-0.000646224
-0.000112469
-1.9407e-05
3.20592e-05
3.67059e-05
3.06558e-05
2.76577e-05
2.46004e-05
1.44669e-05
2.38635e-05
8.71765e-05
0.00476849
-0.00567333
9.32728e-05
0.00676131
-0.00801955
0.00719546
-0.00849162
0.00995365
-0.0116301
0.000123523
-0.00486028
0.000132964
0.00466577
9.64884e-05
-0.00345347
0.000117023
0.00334499
1.61845e-05
9.51295e-05
0.00108797
-7.34812e-05
-0.00152975
0.0104574
0.000259565
-0.00789535
-0.000421179
0.00917808
0.0118923
0.000500291
-0.0110932
-0.000536438
0.0149359
0.000788657
-0.0146779
-0.000741325
0.0146999
0.0187073
0.000762672
-0.0227101
-0.000223395
-0.0188853
-0.0224606
0.000899938
0.0181755
0.0150974
-0.0185516
-0.000158944
-0.000636794
0.000532751
0.000441181
0.000371393
0.000291364
0.00021119
0.000134276
5.91432e-05
9.83977e-05
2.52002e-05
1.07475e-07
3.39034e-05
2.54882e-07
0.00946314
-0.011124
0.000168476
0.0129114
-0.015055
0.013454
-0.015449
0.017802
-0.0193999
-0.000584874
-0.00856218
-3.59311e-05
0.0086724
5.16394e-05
-0.00674782
0.000105041
0.00636947
-2.11289e-05
0.00024871
0.00230687
4.57879e-05
-0.00245761
0.0187306
0.000436447
-0.0135291
-0.000737621
0.0154087
0.0185959
0.000752634
-0.0233419
-0.000122883
-0.0166578
-0.0299013
0.000177506
0.0229648
-0.00183725
0.00984912
-0.000168445
0.00676911
0.00546101
0.00283885
0.00180375
0.0126137
-0.00762963
-0.000452085
0.00112923
0.000619278
0.00046262
0.000376795
0.000292788
0.000204092
9.76701e-05
7.14193e-05
0.001756
-0.00122598
-0.00199412
-0.000466849
0.000381898
-0.0010379
0.00333002
-0.0014443
-0.00174301
-0.00171123
-0.00102777
0.00250344
0.00279065
0.000174416
-0.00191668
-0.000195758
0.00322154
3.729e-05
-0.00281211
-0.000151345
0.00368722
0.00442415
0.000128642
-0.00417901
-0.00023982
0.00509233
-0.00039874
-0.000308947
-0.00512262
-0.000168917
-0.00354077
0.000710605
0.000716639
0.0002095
-0.00133432
-0.00220904
-0.00147892
-0.00109366
-0.00233944
-0.000766121
-0.00040342
0.000230316
5.42405e-05
0.00395146
1.67774e-05
-0.00281678
-0.000158957
0.00348653
0.00451854
0.000105867
-0.00415451
-0.00023094
0.00617029
0.000239087
-0.00594377
-0.000323378
0.00707887
0.00861464
0.000353755
-0.0101094
-0.000582164
-0.000446204
-0.00728869
0.00102675
0.00103245
0.000881666
-0.00019227
-0.0034769
-2.79134e-05
-0.00213765
0.000217183
-0.000541203
-0.000715297
6.62348e-05
0.000661565
-0.000324345
-0.00427318
0.000404209
4.17956e-05
0.000768561
-5.61865e-05
0.00750721
0.000163695
-0.00570893
-0.000325536
0.00672817
0.00880216
0.000360172
-0.00823998
-0.000413074
0.0115427
0.000531414
-0.011184
-0.000550352
0.0122418
0.0151664
0.000720527
-0.0178262
0.00039596
-7.0227e-05
-2.5355e-05
2.34757e-05
1.97778e-05
1.33005e-05
8.1063e-06
4.53113e-06
-5.44348e-06
-6.68338e-06
1.66431e-05
3.3339e-06
-4.18697e-06
6.33971e-06
2.17433e-05
4.86426e-05
7.65212e-05
3.96275e-05
1.53207e-05
4.31465e-06
4.67809e-06
-3.98966e-06
9.48938e-07
0.00416916
3.1133e-06
-0.00415805
0.00492863
5.57455e-06
-0.00590519
0.00592239
-0.00491234
0.00497564
7.2725e-06
-0.00598453
0.00590277
-0.00492978
0.00416025
-7.18131e-06
-0.00422981
0.00347941
-0.00345785
0.00346737
-0.00347298
1.26958e-05
-0.00415266
0.00424323
1.20552e-05
-0.00496539
3.15131e-06
-0.00589268
0.00600694
1.29403e-05
-0.00707783
-1.01004e-06
-0.00831017
0.00845511
-0.00832282
0.00834817
8.99388e-06
0.00701606
-0.00699141
5.84458e-06
0.0070935
1.80952e-05
-0.00842313
0.00832524
-0.00699342
-3.09202e-05
-0.00676452
0.0041497
1.39172e-05
0.00560516
-3.40083e-05
-0.00480365
0.00298427
2.12587e-05
0.0039798
-0.0035026
0.00296511
-1.18376e-05
-0.00301212
-5.591e-07
0.00294591
1.95331e-06
-0.0029398
8.71043e-06
0.00301792
1.50175e-05
-0.00295966
0.00351455
-0.00398158
3.54539e-05
4.24094e-05
3.19627e-05
0.0001166
7.48374e-05
-0.00151342
0.0015649
-0.00154092
0.00154203
1.95015e-07
-3.71483e-06
-3.60447e-06
-0.00156415
0.00151433
-7.44942e-05
-4.24916e-05
0.000788709
-0.000883292
2.7551e-06
-5.98234e-06
0.00265516
-0.00268677
0.00269115
-0.00265236
0.00274769
-0.00286772
-6.8203e-05
-2.06316e-05
-0.000787424
4.32295e-05
0.000883425
-3.69412e-05
2.36411e-05
2.03583e-05
4.02089e-06
6.98131e-06
1.08637e-05
1.4077e-05
1.36215e-05
-0.00978061
1.02298e-05
-0.0114712
0.0115043
-0.0116012
0.0114944
2.75001e-05
0.00993225
-0.00977306
-2.55966e-05
-0.0095087
0.00582395
2.69123e-05
0.00795769
-0.00490537
-0.000138389
-0.00386631
0.00443367
-0.000277973
-0.00545084
0.006216
-0.000330201
-0.00748992
0.00862599
-0.000290645
-0.00998187
0.0117194
-0.000371508
-0.0132218
-0.00112199
-0.000346483
-0.00057948
-0.000182447
-0.000415243
-0.000176446
-0.000338247
-0.00015431
-0.00026486
-0.000101151
-0.000167753
0.00319233
-0.00345619
-9.99524e-05
-0.00265641
0.00246058
0.000109766
2.1951e-05
-0.000181737
-1.69548e-05
-0.00152482
-6.34863e-05
0.00230017
0.000115694
-0.00346467
-2.86476e-05
-3.51511e-05
0.00018762
0.000103828
-0.000141921
-0.00150897
0.00229092
0.000740855
0.0025572
0.000928156
0.000528123
0.000103918
0.000340576
-0.0022468
0.0028683
-0.00274211
6.9207e-05
9.69579e-06
-0.000125451
-3.10378e-05
-8.34723e-06
0.000121863
0.000116078
0.000144851
0.000194499
5.13794e-05
-0.0131037
0.00803259
-0.0068704
0.0111452
2.39532e-05
6.96482e-06
-9.84349e-06
3.36897e-06
1.52388e-05
3.05438e-05
4.39658e-05
5.69826e-05
-8.82701e-06
-0.0132848
3.38993e-05
-0.0154888
0.0154038
-0.0175434
0.010765
9.40467e-05
0.0152341
-0.00941241
-0.000140452
-0.00015338
0.000729231
0.000568149
0.000554584
0.000782821
0.0114888
0.0167727
-0.019419
0.00192108
0.000173267
-1.83574e-05
0.000518733
-0.000100533
5.48357e-05
-0.0103685
0.000222304
0.000995609
-0.0139456
0.000663839
0.000106966
5.29707e-05
0.000108866
0.000219322
0.000318479
0.000154078
6.48903e-05
3.33031e-05
2.79886e-05
2.55716e-05
3.62347e-05
4.82484e-05
3.26159e-05
2.71234e-05
3.22415e-05
2.33458e-05
1.95241e-05
-1.80544e-07
1.48556e-05
1.41837e-05
0.000120218
3.91539e-05
3.0285e-05
2.08984e-05
1.88619e-05
1.05574e-05
7.56207e-06
2.25601e-05
3.16289e-05
1.41383e-05
-0.000145342
3.13354e-05
3.83142e-05
3.00381e-05
4.90494e-05
7.45388e-05
7.9611e-05
0.000134914
7.01725e-05
0.000132129
6.70176e-05
0.0170351
-0.0197772
0.000258751
0.0213984
0.000398057
7.96442e-05
0.000221465
0.00130047
-0.00399262
0.012679
-0.0104873
0.0221108
0.00320679
0.0138747
-0.0119017
0.0101416
-0.010084
0.00705874
0.00801152
-0.0109547
0.00248261
-0.0117636
0.00745759
0.00771717
0.0146154
-0.000754116
-0.000279435
-0.00183499
-0.00012136
-0.00756411
-0.000146825
-3.50995e-05
3.98892e-05
5.53842e-05
9.49033e-05
5.38325e-05
4.36531e-05
5.20008e-05
4.26455e-05
-1.93725e-06
4.28155e-05
4.48164e-06
0.000278996
0.000193233
0.000141336
-0.0123653
0.0142345
0.000355307
-0.0105599
-0.000546814
0.0121964
0.0153968
0.000703739
-0.0144814
-0.000713471
-0.0176844
0.00044487
0.000376309
-1.90973e-05
1.4304e-05
1.73337e-07
0.000235834
4.54826e-05
2.41031e-05
3.21651e-05
2.5776e-05
-8.13434e-06
0.000215696
0.000139365
6.3104e-05
-0.00341966
-0.000163224
0.00368922
-1.56733e-06
0.00278381
-0.00219472
-0.00210616
0.00254377
-0.00159838
-0.00148108
-0.00131511
0.000217492
-0.000306049
-0.000344097
-0.00515432
0.00089167
-0.000360473
-0.00109943
0.000578886
0.00111421
-0.000465232
-0.00888041
0.000753659
0.000137334
0.001532
-5.83937e-05
-0.00204741
-0.000561707
0.00103532
0.00167943
0.00137871
-0.00049396
-0.00740513
-0.00044576
-0.00720193
0.00121562
-0.000644514
-0.010312
-0.00058187
0.00954661
0.00134116
-0.000827599
-0.0139334
-0.000454284
-0.0168397
0.0019469
0.000783799
0.00431942
0.000333913
-0.0225415
0.000894989
0.00198723
0.00226483
0.00349101
0.0133137
0.0312909
0.016397
0.0241482
-0.00198315
-0.00112705
-0.0182925
0.00115476
0.000502584
0.00233452
0.0161583
0.023455
-0.00193459
-0.00104971
-0.000751401
0.0123912
-0.013512
0.00123989
0.00118854
0.000863971
9.58744e-06
0.00170981
0.0148713
0.0236517
-0.00199791
-0.00106321
-0.000757223
-0.0136215
-0.000922864
-0.000720006
-0.000564208
0.000821162
0.000621588
0.00036914
-9.61131e-06
0.000243582
0.0010123
0.00115812
0.00115651
-0.00115555
-0.00147028
0.00162234
0.0135666
0.0264507
-0.00464918
0.00516873
0.00229048
0.0021089
0.00030673
-0.000148537
-7.36191e-05
-3.67015e-05
-2.01092e-05
-1.20267e-05
-4.15595e-06
1.27868e-05
2.24074e-06
7.49675e-07
-3.56675e-06
1.27302e-05
7.29307e-06
7.93858e-06
-7.18312e-06
-0.000111289
-0.000190126
-0.000120296
2.14466e-05
4.48609e-05
-0.00561243
0.00495044
1.7041e-05
1.61379e-05
1.7634e-05
2.31298e-05
1.53292e-05
2.30267e-05
4.65807e-05
-2.97804e-05
0.000778013
-0.00305113
0.000198985
8.21845e-05
1.08652e-05
1.51273e-05
1.76708e-05
-5.31598e-07
-1.02649e-05
2.14503e-05
1.64234e-05
1.42734e-05
1.10095e-05
1.5121e-05
1.667e-05
4.98938e-05
4.75878e-05
0.0153592
2.72517e-06
-0.0153276
0.0175273
-2.42288e-05
-0.019717
0.0197126
-0.0174984
0.017795
1.9963e-05
-0.0198946
0.0198798
-0.0174489
3.846e-05
0.0202172
-0.0126315
-2.68999e-05
-7.99646e-05
0.000130931
0.000262162
0.000267654
-0.000315444
-0.00144292
-0.00292635
-0.00580657
9.74685e-05
-0.00228368
-0.000881004
-0.000267322
0.000290548
0.00026612
3.7883e-05
5.21019e-05
5.91318e-05
3.33346e-05
0.0135219
-0.0133031
0.0133419
-0.0134918
-1.7868e-05
-0.0153389
0.0155271
9.80307e-07
-0.0177822
-4.85057e-05
-0.0197892
0.0199154
-1.71013e-05
-0.0224687
0.0221268
-0.0254391
-2.49085e-05
-0.000159834
-5.79936e-05
2.04284e-05
3.68391e-05
0.000129266
0.000304651
0.000853902
0.00446657
-0.00229939
0.0590781
-0.00154554
-0.000277287
-0.00111177
-0.0113967
0.00249998
0.00660206
0.000525113
-0.000115774
-0.00596181
-0.000139088
0.000149428
0.000330596
2.75903e-05
3.50039e-05
0.000551824
0.000316937
-0.0189552
0.0164684
-0.000757703
-0.000471708
-0.000123231
0.00330671
-0.000851413
0.00271804
0.00442395
0.00773327
0.0149764
0.00337566
-0.00863301
0.00347716
-0.0117335
0.00276103
0.00132826
-0.00825524
0.000562072
-0.00014377
1.49164e-05
-2.87904e-05
1.23115e-05
0.000131782
-8.13231e-05
-0.000195268
-5.75282e-05
-0.000217231
-5.2188e-05
8.85679e-06
-2.20333e-06
1.46667e-05
-9.84242e-06
-2.51139e-06
-4.5189e-05
6.19137e-06
7.23528e-05
0.000152841
0.000412001
0.00626085
0.0267165
0.00143531
-0.00381914
0.0171036
0.000557872
-0.00280236
-0.00153856
-0.00249135
0.0586906
-0.00126288
-0.000296662
0.000478756
0.000122346
0.000286723
-0.00542723
-0.000157072
-0.000154089
-0.00117211
-0.0114948
-0.0104427
-0.00664474
-0.0239907
0.0025399
0.00586844
0.000268116
-0.000334237
-0.000354956
-0.000206881
-0.00660501
-0.000346049
0.00321699
-0.00207676
0.00344805
-0.000225152
-0.00605866
-0.000372334
-0.000171446
-3.99451e-06
0.00045951
0.00203447
0.000483496
0.000539809
0.00194846
0.00188795
0.000226277
-0.000109541
-2.81971e-05
5.50437e-05
0.000169463
-9.15181e-05
-2.261e-05
0.00127162
0.0206102
0.00160033
0.000605224