/*--------------------------------*- C++ -*----------------------------------*\
| =========                 |                                                 |
| \\      /  F ield         | OpenFOAM: The Open Source CFD Toolbox           |
|  \\    /   O peration     | Version:  2306                                  |
|   \\  /    A nd           | Website:  www.openfoam.com                      |
|    \\/     M anipulation  |                                                 |
\*---------------------------------------------------------------------------*/
FoamFile
{
    version     2.0;
    format      ascii;
    arch        "LSB;label=32;scalar=64";
    class       volScalarField;
    location    "2.5";
    object      gradTz;
}
// * * * * * * * * * * * * * * * * * * * * * * * * * * * * * * * * * * * * * //

dimensions      [0 -1 0 1 0 0 0];

internalField   nonuniform List<scalar> 
5322
(
-0.0623543
-0.0576061
-0.0496101
-0.053654
-0.0421706
-0.0321991
-0.0238768
-0.0172697
-0.0123393
-0.00900643
-0.0070056
-0.00635635
-0.00458367
-0.00643737
-0.00712548
-0.0059382
-0.00697158
-0.00545183
-0.00811684
-0.00918712
-0.0109344
-0.0126607
-0.0153038
-0.0179831
-0.0216395
-0.0249647
-0.029681
-0.0341627
-0.0399507
-0.0449115
-0.0516194
-0.0575801
-0.0645658
-0.0694391
-0.0726149
-0.0635537
-0.0748999
-0.0740971
-0.0763644
-0.0558138
-0.0707898
-0.0730742
-0.0547273
-0.0731101
-0.0723748
-0.0556957
-0.0741763
-0.0701146
-0.0551109
-0.0729934
-0.0833089
-0.0566588
-0.0790634
-0.0702219
-0.0628111
-0.0664776
-0.082175
-0.0652147
-0.0629623
-0.0663231
-0.0830412
-0.0660899
-0.0629504
-0.0647016
-0.0830427
-0.0684505
-0.0627346
-0.061541
-0.0814517
-0.0730633
-0.0522303
-0.0774255
-0.0736866
-0.0725923
-0.0732878
-0.0729358
-0.0728857
-0.0726973
-0.0738484
-0.0704631
-0.0684172
-0.0551647
-0.0572117
-0.0737045
-0.0477579
-0.0654358
-0.0949917
-0.0615345
-0.0617625
-0.0536704
-0.0663892
-0.048145
-0.0507233
-0.050609
-0.0649652
-0.061887
-0.0588475
-0.0627133
-0.0965847
-0.0597372
-0.060439
-0.0544331
-0.0632121
-0.0642615
-0.0701475
-0.0572414
-0.0601953
-0.0541375
-0.042662
-0.0326701
-0.0242313
-0.0174846
-0.0124168
-0.00898835
-0.00801911
-0.00727881
-0.00519213
-0.00556687
-0.00780616
-0.00609931
-0.00531568
-0.00634149
-0.00625236
-0.00873604
-0.0065448
-0.00856087
-0.00619398
-0.00646803
-0.00842041
-0.00617819
-0.00633964
-0.00850099
-0.00627547
-0.00622425
-0.00853826
-0.0063583
-0.00625747
-0.00876315
-0.00655944
-0.00857494
-0.0062173
-0.00533781
-0.00610625
-0.00549314
-0.00520437
-0.00781338
-0.00557203
-0.00553996
-0.00514349
-0.00518206
-0.00783342
-0.00554793
-0.00552749
-0.00515219
-0.00518501
-0.00782801
-0.00555256
-0.00548732
-0.00533068
-0.00713006
-0.00593387
-0.00698644
-0.00898815
-0.00990349
-0.00584876
-0.0081296
-0.00545797
-0.0070842
-0.00465013
-0.00623244
-0.00645012
-0.00600438
-0.00655134
-0.00731616
-0.0062655
-0.00851112
-0.0084423
-0.00923875
-0.00720275
-0.00922972
-0.0110234
-0.0110342
-0.0128402
-0.00987122
-0.0128616
-0.0153747
-0.0153846
-0.0181232
-0.013939
-0.0181487
-0.0216063
-0.0216186
-0.0252861
-0.0195684
-0.025331
-0.0298184
-0.0298524
-0.0343988
-0.0268579
-0.0344838
-0.0400587
-0.0401405
-0.0454014
-0.0357955
-0.0455429
-0.0521068
-0.0522706
-0.0580411
-0.046027
-0.0582763
-0.0645141
-0.0646821
-0.0625984
-0.0965925
-0.0597239
-0.059536
-0.0546062
-0.0749495
-0.0747724
-0.0507268
-0.0506652
-0.0648256
-0.0623973
-0.058295
-0.0634068
-0.0964695
-0.0601034
-0.0594781
-0.0547354
-0.0623444
-0.0645814
-0.0588073
-0.0588891
-0.0540379
-0.0426751
-0.0327096
-0.0242615
-0.0175029
-0.0124267
-0.00899329
-0.00802296
-0.00728475
-0.00517876
-0.00516911
-0.00516539
-0.00517577
-0.00782727
-0.00552653
-0.00555159
-0.00546972
-0.00634065
-0.00916259
-0.00552765
-0.00782961
-0.00555337
-0.00910792
-0.00645671
-0.00840169
-0.00617872
-0.00547254
-0.00634148
-0.00840322
-0.00452337
-0.0061965
-0.00626925
-0.00626233
-0.00655459
-0.00844032
-0.00924225
-0.0110351
-0.0128432
-0.0153905
-0.0181249
-0.0216305
-0.0252884
-0.0298734
-0.0344003
-0.0401808
-0.0453902
-0.0523504
-0.0579807
-0.0651287
-0.0618401
-0.0966256
-0.0629844
-0.058837
-0.0643736
-0.0584355
-0.0460613
-0.0521056
-0.0456159
-0.0358219
-0.0400901
-0.0345127
-0.0268746
-0.0298477
-0.0253413
-0.0195778
-0.0216278
-0.0181509
-0.0139441
-0.015393
-0.0128577
-0.00987368
-0.0110415
-0.00922165
-0.00720228
-0.00852381
-0.00662357
-0.00851715
-0.00922918
-0.00720342
-0.00844785
-0.00655562
-0.00731892
-0.00599587
-0.00457602
-0.00647097
-0.00594742
-0.00854108
-0.00923893
-0.0110195
-0.0128903
-0.0153999
-0.0181715
-0.0216857
-0.0253498
-0.0299844
-0.0344894
-0.0404278
-0.0453841
-0.0528967
-0.0575085
-0.0654796
-0.0622473
-0.0955077
-0.0661129
-0.0570024
-0.0701672
-0.0631718
-0.0447476
-0.0565133
-0.0490121
-0.034766
-0.0432575
-0.0369015
-0.0260254
-0.0320927
-0.0270337
-0.0189388
-0.0232271
-0.0193536
-0.0134842
-0.0165013
-0.0137072
-0.00955004
-0.0118054
-0.00990556
-0.00696531
-0.00898674
-0.00698943
-0.00713515
-0.00623724
-0.0064897
-0.00575428
-0.00710311
-0.00464082
-0.00530271
-0.00626881
-0.00580753
-0.00870941
-0.00958769
-0.00926264
-0.00922809
-0.00716896
-0.0084352
-0.00857608
-0.00604227
-0.00733211
-0.00669143
-0.00665164
-0.00650626
-0.00880688
-0.00691273
-0.00656254
-0.00908292
-0.00707302
-0.00663426
-0.00648523
-0.00630568
-0.00852509
-0.00922443
-0.00839709
-0.011049
-0.0128592
-0.0154001
-0.0181507
-0.0163148
-0.0216454
-0.0253246
-0.0298954
-0.0344466
-0.0305735
-0.0402004
-0.0454364
-0.0523076
-0.0580911
-0.050685
-0.0507437
-0.0401125
-0.0401509
-0.0307391
-0.0306611
-0.040398
-0.0454801
-0.0358225
-0.0459507
-0.0519763
-0.0526972
-0.0578148
-0.0460018
-0.0591084
-0.0637779
-0.0718513
-0.0605824
-0.0966688
-0.0614325
-0.058325
-0.0564716
-0.0730255
-0.0480829
-0.0435783
-0.0606009
-0.0379012
-0.0519092
-0.046341
-0.0289786
-0.040149
-0.0345033
-0.0215878
-0.0299853
-0.0252447
-0.015706
-0.021624
-0.0179159
-0.0111762
-0.0153826
-0.0126521
-0.0079247
-0.0109037
-0.00912248
-0.00583494
-0.00814999
-0.00589508
-0.0056704
-0.00749103
-0.00689894
-0.0081976
-0.0100063
-0.0112011
-0.013278
-0.0157334
-0.0186895
-0.0181329
-0.018193
-0.0139115
-0.0154287
-0.0154199
-0.0128951
-0.00984947
-0.0128308
-0.0115941
-0.0110496
-0.00797616
-0.00701912
-0.00832559
-0.00790816
-0.0075679
-0.00891319
-0.0089691
-0.00699561
-0.00638472
-0.00475685
-0.0078731
-0.00440499
-0.00616885
-0.00692143
-0.0076119
-0.0102517
-0.0123868
-0.0123054
-0.017279
-0.0175293
-0.0144156
-0.0140767
-0.0134123
-0.0164007
-0.0197232
-0.0222535
-0.0260501
-0.0308319
-0.0354493
-0.0346043
-0.0345305
-0.0268503
-0.0299393
-0.0299877
-0.0253829
-0.0195441
-0.0253554
-0.0227024
-0.0215916
-0.0155599
-0.0137556
-0.0161877
-0.0158774
-0.0151741
-0.0114863
-0.0109674
-0.0105076
-0.0115473
-0.00948499
-0.00974587
-0.0104984
-0.0090415
-0.00703933
-0.0063709
-0.00614176
-0.00584284
-0.0063991
-0.0054427
-0.00774172
-0.00768174
-0.00924069
-0.0083744
-0.0110407
-0.0110366
-0.0128629
-0.00987706
-0.0128471
-0.0115713
-0.0153947
-0.0153957
-0.0181487
-0.0139519
-0.0181464
-0.0162858
-0.0216332
-0.0216513
-0.0253201
-0.0195941
-0.0253439
-0.0226003
-0.029869
-0.029915
-0.0344412
-0.026904
-0.0345228
-0.0305484
-0.0401252
-0.0402572
-0.0454066
-0.0358622
-0.0456464
-0.0400355
-0.0520946
-0.0524539
-0.0579651
-0.0460677
-0.0584399
-0.0505364
-0.0643703
-0.0649749
-0.0625264
-0.0587335
-0.0625534
-0.0550304
-0.0598601
-0.0576923
-0.0525049
-0.0724011
-0.0483102
-0.0628725
-0.0483138
-0.0462459
-0.056844
-0.0570767
-0.0508548
-0.0542982
-0.0547183
-0.0490861
-0.0438093
-0.0429278
-0.032535
-0.0332253
-0.0279098
-0.0244258
-0.0239904
-0.0238148
-0.0171945
-0.012283
-0.00897152
-0.00697432
-0.00631737
-0.00460081
-0.00640561
-0.00566558
-0.00617354
-0.0062117
-0.00604674
-0.00624701
-0.00733671
-0.00546022
-0.00671203
-0.00651164
-0.00656249
-0.00677543
-0.0053252
-0.00669015
-0.00657832
-0.00656793
-0.00734022
-0.00507348
-0.00511361
-0.00510522
-0.00508622
-0.00507093
-0.00504347
-0.00788418
-0.00509757
-0.00508175
-0.00508315
-0.00788649
-0.0051055
-0.00739215
-0.00809261
-0.00805513
-0.00707829
-0.00705758
-0.006595
-0.00840401
-0.0116422
-0.0163938
-0.0227297
-0.0306683
-0.0291638
-0.0259456
-0.0304659
-0.0298971
-0.0285634
-0.0315604
-0.0367004
-0.0418761
-0.0463349
-0.0559535
-0.0458574
-0.0469136
-0.037126
-0.0425377
-0.0350123
-0.0375699
-0.0381908
-0.0322013
-0.0422985
-0.0539031
-0.0676917
-0.0673901
-0.0675359
-0.0582763
-0.0539954
-0.0566336
-0.0623342
-0.0523433
-0.0594889
-0.0853019
-0.0770131
-0.0757224
-0.0782227
-0.0500496
-0.0635785
-0.0667269
-0.0800205
-0.0515208
-0.0658105
-0.0670156
-0.0804026
-0.0517412
-0.0649908
-0.0678661
-0.0802318
-0.0529609
-0.0644318
-0.0722983
-0.100112
-0.0791227
-0.077375
-0.098018
-0.0960136
-0.0764547
-0.0561207
-0.0790724
-0.0702798
-0.062783
-0.0663435
-0.0702602
-0.0551414
-0.0728739
-0.0833515
-0.0566455
-0.0684626
-0.0551963
-0.0572611
-0.0737289
-0.0636275
-0.0482423
-0.0593854
-0.0515559
-0.0386759
-0.0456868
-0.0398879
-0.0294515
-0.0343109
-0.029782
-0.0218
-0.0251099
-0.0216074
-0.0156873
-0.0179708
-0.0153572
-0.011138
-0.0127082
-0.010943
-0.00785686
-0.00921084
-0.00812881
-0.00594537
-0.00708944
-0.00572151
-0.00647458
-0.00622489
-0.00698481
-0.00899383
-0.0099055
-0.00696474
-0.00855436
-0.00593381
-0.00713338
-0.00646382
-0.00457416
-0.00598628
-0.00619939
-0.00731866
-0.00619131
-0.00636835
-0.0070419
-0.00903949
-0.0123721
-0.0123841
-0.0173601
-0.024063
-0.0224929
-0.0216712
-0.0207721
-0.0231633
-0.0274473
-0.0259882
-0.0188707
-0.0202545
-0.0205939
-0.021682
-0.021693
-0.0163508
-0.0181541
-0.021617
-0.0195949
-0.0253462
-0.0298408
-0.0268993
-0.0345126
-0.0400864
-0.035841
-0.0455772
-0.0520951
-0.0460312
-0.0581956
-0.0491099
-0.0497934
-0.0607141
-0.0608653
-0.054134
-0.0422931
-0.0321896
-0.0238188
-0.0172098
-0.0123008
-0.00898577
-0.0069997
-0.00634329
-0.00457481
-0.00619786
-0.00618456
-0.00635375
-0.00701334
-0.00901128
-0.0123431
-0.0172858
-0.0239319
-0.0323403
-0.0424886
-0.0542718
-0.0688066
-0.0683394
-0.055477
-0.105046
-0.0774452
-0.074279
-0.0670727
-0.0803779
-0.0518107
-0.0519501
-0.0564344
-0.083048
-0.0537156
-0.0545375
-0.0556016
-0.08351
-0.0539613
-0.0547781
-0.0552275
-0.0833376
-0.0554196
-0.0563863
-0.0620018
-0.105874
-0.0801046
-0.0781536
-0.0785042
-0.0778256
-0.0626392
-0.0586785
-0.0622622
-0.105484
-0.0615643
-0.063667
-0.0829869
-0.0661822
-0.0629078
-0.0645959
-0.0734867
-0.0546909
-0.0727058
-0.0727477
-0.0558212
-0.0738995
-0.0653924
-0.0629299
-0.0660845
-0.072997
-0.0727514
-0.073388
-0.0724241
-0.0629716
-0.0623127
-0.0678448
-0.0831372
-0.0712724
-0.0563427
-0.0758612
-0.0666892
-0.0563191
-0.091406
-0.0493823
-0.0647173
-0.0543113
-0.0634182
-0.0582251
-0.0459063
-0.0529639
-0.0469445
-0.0371996
-0.0411527
-0.0364936
-0.0278217
-0.031372
-0.0270387
-0.021091
-0.022861
-0.019783
-0.0147937
-0.0165069
-0.0139523
-0.0107327
-0.011559
-0.0100293
-0.00748967
-0.0082987
-0.00742612
-0.00568482
-0.00626881
-0.0043816
-0.0078301
-0.00565997
-0.00475176
-0.00874127
-0.00624993
-0.0065409
-0.00854447
-0.00619809
-0.00645141
-0.00840379
-0.00616484
-0.00634268
-0.00849151
-0.00628491
-0.00620124
-0.00852314
-0.00460947
-0.00603485
-0.0073337
-0.00628246
-0.00662211
-0.00849928
-0.00719675
-0.00922457
-0.00922329
-0.00836594
-0.0110073
-0.00953708
-0.0128618
-0.013689
-0.00974265
-0.0164791
-0.0111532
-0.0192975
-0.0137203
-0.0231279
-0.0156262
-0.0269411
-0.0190365
-0.0318796
-0.0214308
-0.0366667
-0.0257179
-0.042682
-0.0285259
-0.0484979
-0.0337246
-0.0554251
-0.0368518
-0.062227
-0.0428606
-0.0689857
-0.0459016
-0.0540204
-0.0656655
-0.0641529
-0.0510254
-0.0596267
-0.0440257
-0.0531745
-0.0516158
-0.0400794
-0.0466448
-0.0341685
-0.040902
-0.0398264
-0.0305695
-0.0353031
-0.0256898
-0.0305518
-0.029752
-0.0226223
-0.0259771
-0.0187343
-0.0221354
-0.0216069
-0.0163137
-0.0186097
-0.0133711
-0.0157566
-0.015398
-0.0115914
-0.0132316
-0.00947218
-0.0112387
-0.0110461
-0.00839292
-0.00952828
-0.00690215
-0.00874598
-0.00842364
-0.00664574
-0.00577605
-0.00528898
-0.00463848
-0.00622706
-0.00647564
-0.00571595
-0.00708115
-0.00591908
-0.00637579
-0.00585149
-0.00614732
-0.00618853
-0.00617579
-0.00731325
-0.00626341
-0.00653368
-0.00658702
-0.00852989
-0.00696044
-0.00989134
-0.00702274
-0.0117943
-0.00791802
-0.0105077
-0.00775454
-0.00769566
-0.00844531
-0.00704996
-0.00908908
-0.00554662
-0.00782266
-0.00552576
-0.00545779
-0.00669764
-0.00655562
-0.006502
-0.00656346
-0.00658105
-0.00916022
-0.00707566
-0.00662453
-0.00842324
-0.0084286
-0.00841695
-0.0110604
-0.0110622
-0.00839226
-0.0104563
-0.00774429
-0.00771171
-0.00844967
-0.00720975
-0.00925099
-0.0110265
-0.00988054
-0.0128618
-0.0153822
-0.0139545
-0.0151747
-0.0116724
-0.0116245
-0.0164339
-0.022783
-0.022684
-0.0227656
-0.016426
-0.0116675
-0.0116015
-0.0116345
-0.00840052
-0.0083711
-0.00922001
-0.011021
-0.0118008
-0.0136985
-0.0164839
-0.0193089
-0.0111644
-0.0153641
-0.00974534
-0.012702
-0.00792983
-0.0109493
-0.0070285
-0.0092067
-0.00784244
-0.00751704
-0.0100187
-0.00948652
-0.0116046
-0.0132298
-0.0116012
-0.0154004
-0.0138755
-0.0180998
-0.0181514
-0.0163277
-0.0215524
-0.0195198
-0.0252649
-0.025275
-0.0225816
-0.0296784
-0.0267199
-0.0343566
-0.0343719
-0.0304427
-0.0398435
-0.0343705
-0.0453712
-0.0516878
-0.0442379
-0.0581545
-0.0636298
-0.054386
-0.0604456
-0.0542705
-0.0426888
-0.0326661
-0.0242238
-0.0174791
-0.0124129
-0.00898597
-0.00801632
-0.00727424
-0.00517755
-0.00514541
-0.00517314
-0.00554143
-0.00914733
-0.00707198
-0.00706944
-0.00906614
-0.00553701
-0.00545139
-0.00671235
-0.00655435
-0.00690689
-0.00655295
-0.00910027
-0.00705278
-0.00659043
-0.00854379
-0.00696825
-0.00775938
-0.00764878
-0.0080564
-0.00733842
-0.00508415
-0.00506848
-0.0078861
-0.00504178
-0.0051362
-0.00782696
-0.00765128
-0.00842173
-0.00797429
-0.00650106
-0.00878713
-0.00877126
-0.00665547
-0.00841861
-0.00716391
-0.00927177
-0.00920634
-0.00841353
-0.011017
-0.00986769
-0.0128395
-0.0115949
-0.0153569
-0.0139149
-0.0181189
-0.0181036
-0.0162593
-0.0215875
-0.0188584
-0.0252709
-0.0297479
-0.0258391
-0.0343679
-0.0305907
-0.0226774
-0.016366
-0.011628
-0.00839592
-0.00764383
-0.00805245
-0.00733372
-0.00753161
-0.00903197
-0.00765716
-0.00776374
-0.00764807
-0.00753327
-0.00902988
-0.00841902
-0.0083966
-0.011663
-0.0115992
-0.0164209
-0.0163137
-0.0173152
-0.0239723
-0.0324061
-0.0325551
-0.0427974
-0.0399502
-0.0389111
-0.0501821
-0.0608039
-0.051999
-0.0743357
-0.0566297
-0.107598
-0.076004
-0.0745631
-0.0705281
-0.0862297
-0.0783679
-0.0811664
-0.0779716
-0.10693
-0.0750259
-0.074174
-0.0670046
-0.0800238
-0.0516698
-0.0527063
-0.0570417
-0.0825967
-0.0534863
-0.055444
-0.0564069
-0.083051
-0.0537327
-0.0555231
-0.0561912
-0.0828725
-0.0553028
-0.0567746
-0.0785705
-0.0602054
-0.0507349
-0.0506295
-0.058345
-0.0621974
-0.0445959
-0.0562171
-0.0373429
-0.044688
-0.0542228
-0.0400836
-0.0512921
-0.0587742
-0.0509519
-0.0631105
-0.0684939
-0.0583285
-0.0545794
-0.0461418
-0.056355
-0.0546762
-0.0704498
-0.0739221
-0.0725816
-0.0638924
-0.0508183
-0.0632678
-0.0559288
-0.0635667
-0.0507557
-0.0632611
-0.0559816
-0.0636424
-0.0509097
-0.063335
-0.0738799
-0.0722438
-0.0630704
-0.0584225
-0.0700236
-0.083493
-0.0625036
-0.0788765
-0.0800905
-0.0769243
-0.0636356
-0.0615626
-0.0619853
-0.104927
-0.0622201
-0.0690269
-0.101316
-0.0807817
-0.0774222
-0.0625193
-0.0614503
-0.0787464
-0.0563771
-0.0561877
-0.0780556
-0.0591594
-0.0543383
-0.0541466
-0.0426712
-0.0326782
-0.0242369
-0.0174883
-0.0124189
-0.00898962
-0.00801995
-0.00727959
-0.00504216
-0.00507216
-0.00667898
-0.00650244
-0.00655603
-0.00839497
-0.00645387
-0.00533096
-0.00548925
-0.00609883
-0.00556832
-0.00531846
-0.00625356
-0.00875161
-0.00654781
-0.00878752
-0.00620236
-0.00854984
-0.00690873
-0.00677644
-0.00655608
-0.00906978
-0.00553831
-0.00554371
-0.00782894
-0.00516148
-0.00515845
-0.00554525
-0.00553435
-0.00544641
-0.00629105
-0.00860024
-0.00629585
-0.00914508
-0.00707063
-0.00706877
-0.00650278
-0.00546343
-0.00640034
-0.00584116
-0.00615854
-0.00636953
-0.00703769
-0.00904877
-0.0123946
-0.0173572
-0.0240298
-0.032472
-0.0426557
-0.0425894
-0.0544912
-0.0545758
-0.0682481
-0.0559435
-0.0592833
-0.0595925
-0.0966797
-0.0688684
-0.0750277
-0.0773865
-0.104765
-0.0552788
-0.0595026
-0.059664
-0.0563279
-0.0604402
-0.0614875
-0.0950059
-0.0633873
-0.065437
-0.0536999
-0.0617668
-0.0715616
-0.0595456
-0.0501636
-0.054456
-0.0689149
-0.0687072
-0.0606072
-0.060868
-0.0504021
-0.0384969
-0.0285437
-0.0207006
-0.0147472
-0.014543
-0.0103603
-0.0103619
-0.00768569
-0.00775841
-0.00834996
-0.011521
-0.0161853
-0.0224298
-0.0303057
-0.0397161
-0.0496273
-0.0489068
-0.0490514
-0.0377131
-0.0281029
-0.0204079
-0.0203865
-0.0145374
-0.0147313
-0.0105052
-0.0110342
-0.0118083
-0.0137019
-0.0164947
-0.0193142
-0.0134627
-0.015398
-0.0128712
-0.00954288
-0.0108955
-0.00840091
-0.00837525
-0.0092196
-0.00705606
-0.00909778
-0.00617665
-0.00659513
-0.0076463
-0.00776068
-0.00780696
-0.00519364
-0.00514589
-0.00671949
-0.00655134
-0.00660743
-0.00667778
-0.00504048
-0.00788871
-0.00667866
-0.00669693
-0.00546575
-0.00677588
-0.00668004
-0.00649433
-0.00654695
-0.0065694
-0.00690316
-0.00655062
-0.00657082
-0.00671959
-0.00677642
-0.00518431
-0.00556772
-0.00609261
-0.00780093
-0.0054879
-0.00532332
-0.00775601
-0.00765359
-0.00805446
-0.00733248
-0.00753202
-0.00765541
-0.00842462
-0.00797668
-0.00703444
-0.0110452
-0.009754
-0.0116354
-0.0115716
-0.0163789
-0.0162768
-0.0181513
-0.021641
-0.0231814
-0.0269454
-0.0319985
-0.0366779
-0.025929
-0.0298592
-0.0253327
-0.0188909
-0.0215282
-0.0155386
-0.0137372
-0.021532
-0.0190662
-0.0227015
-0.0225751
-0.0227605
-0.0226282
-0.030702
-0.0305826
-0.040113
-0.0400604
-0.0381376
-0.0342663
-0.0403443
-0.0392628
-0.029543
-0.021566
-0.0153856
-0.0109025
-0.0107485
-0.0105709
-0.0124731
-0.015159
-0.0148894
-0.0175664
-0.0212379
-0.0208497
-0.0175685
-0.012475
-0.0107605
-0.0107468
-0.0105671
-0.00906649
-0.0125137
-0.0176214
-0.0244156
-0.0243445
-0.029069
-0.0285143
-0.0328127
-0.0385885
-0.0378094
-0.0428065
-0.0494155
-0.0503123
-0.0506176
-0.0745364
-0.0523813
-0.0786008
-0.0601266
-0.0588538
-0.0752745
-0.0551735
-0.0777358
-0.0791669
-0.0813023
-0.0777037
-0.106142
-0.0749987
-0.0690995
-0.0649237
-0.0820499
-0.0829349
-0.0615335
-0.0692657
-0.0797063
-0.0828798
-0.0766237
-0.0749723
-0.105526
-0.0780403
-0.0815485
-0.0818012
-0.082012
-0.0815959
-0.0777265
-0.0821108
-0.0731821
-0.0678697
-0.0802353
-0.0529902
-0.0517136
-0.0562013
-0.0828943
-0.0552582
-0.0542789
-0.0552387
-0.0833814
-0.0553245
-0.054526
-0.0548543
-0.0831728
-0.0565569
-0.0621186
-0.105243
-0.082389
-0.07712
-0.0638655
-0.0614862
-0.0780706
-0.0591271
-0.0543285
-0.0428129
-0.0327904
-0.0243252
-0.0175544
-0.0124664
-0.00902699
-0.01075
-0.0108929
-0.009547
-0.0128675
-0.0153828
-0.0134682
-0.0181428
-0.0216218
-0.0231663
-0.0269375
-0.0319785
-0.0366675
-0.0214826
-0.029796
-0.0190499
-0.0251113
-0.0156543
-0.0216181
-0.0137255
-0.0179686
-0.0156687
-0.0149968
-0.019709
-0.0187646
-0.0229773
-0.0259623
-0.0226309
-0.0297425
-0.0266552
-0.034417
-0.0343993
-0.0305393
-0.0396634
-0.0355116
-0.0453495
-0.0399395
-0.0514297
-0.0456229
-0.0581344
-0.0582324
-0.0507634
-0.0636649
-0.0559717
-0.0634125
-0.0635059
-0.0507895
-0.0581243
-0.0581719
-0.0633351
-0.0559145
-0.0590348
-0.0508641
-0.0400658
-0.0306509
-0.0227288
-0.0164057
-0.0116588
-0.0110408
-0.0155316
-0.016377
-0.0162695
-0.0226977
-0.0225642
-0.0253177
-0.0298346
-0.0259375
-0.0344736
-0.0400853
-0.0430098
-0.0484918
-0.056178
-0.0622102
-0.0373378
-0.0515876
-0.0339064
-0.0456971
-0.0287029
-0.0399079
-0.0257762
-0.0343181
-0.0294232
-0.0281378
-0.0363809
-0.0343975
-0.041694
-0.0463225
-0.0400849
-0.0512955
-0.0455094
-0.0587315
-0.0579334
-0.0508233
-0.0638392
-0.0556476
-0.0631392
-0.0684623
-0.0509608
-0.0583143
-0.0545294
-0.0563138
-0.0546385
-0.0580886
-0.0542284
-0.046091
-0.0482033
-0.0593939
-0.0636638
-0.0430919
-0.0500347
-0.039597
-0.0302106
-0.0223574
-0.016131
-0.0114805
-0.00832005
-0.00638105
-0.00584554
-0.00648122
-0.00572114
-0.00438518
-0.00529628
-0.00627565
-0.0057756
-0.00784287
-0.00474572
-0.005646
-0.00732898
-0.00668315
-0.0060257
-0.00663308
-0.00843822
-0.00720368
-0.00920726
-0.00839204
-0.0110135
-0.00986078
-0.0128499
-0.0128238
-0.0115612
-0.0153672
-0.0134512
-0.0181233
-0.0147227
-0.0145331
-0.0153711
-0.010376
-0.011034
-0.00898374
-0.00897522
-0.0069659
-0.00631735
-0.00618972
-0.00640299
-0.0063812
-0.00618019
-0.00692441
-0.00570189
-0.00742061
-0.00691447
-0.00952512
-0.00840225
-0.0110458
-0.00983579
-0.0128311
-0.012869
-0.0116185
-0.0153611
-0.0139231
-0.0181214
-0.0162973
-0.0215556
-0.0195101
-0.0252637
-0.0252607
-0.0225407
-0.0296804
-0.0277329
-0.0203022
-0.0215619
-0.0171921
-0.0171763
-0.0122903
-0.0104567
-0.0110668
-0.00775564
-0.00858468
-0.00699886
-0.00763634
-0.00832221
-0.00893804
-0.00898612
-0.0102762
-0.011268
-0.0124134
-0.0106471
-0.0140078
-0.0133807
-0.0186225
-0.0163202
-0.0216081
-0.019455
-0.0252623
-0.0253087
-0.0226242
-0.029662
-0.026731
-0.0343681
-0.0304848
-0.0397108
-0.0355089
-0.045348
-0.0454009
-0.0399049
-0.0514245
-0.0400179
-0.0385296
-0.029014
-0.0284972
-0.0243332
-0.0175601
-0.0124703
-0.00903011
-0.0105679
-0.010745
-0.0151523
-0.0153686
-0.0116638
-0.0164136
-0.0227401
-0.029472
-0.0290525
-0.0212261
-0.0208417
-0.0148842
-0.0151628
-0.010755
-0.00987298
-0.0110423
-0.00839275
-0.0110292
-0.0128536
-0.0115993
-0.015368
-0.0153816
-0.012846
-0.0128515
-0.0116213
-0.015368
-0.0154066
-0.0128719
-0.0110642
-0.00841348
-0.0110242
-0.00924453
-0.00921519
-0.00922377
-0.0092309
-0.00840768
-0.0110438
-0.0110288
-0.00987031
-0.0128373
-0.0116143
-0.0153851
-0.0153712
-0.0139274
-0.0181121
-0.0163252
-0.0215924
-0.0215636
-0.0215606
-0.0215777
-0.0163023
-0.0181335
-0.0181257
-0.0139306
-0.0181278
-0.0163333
-0.0215592
-0.0216215
-0.0181547
-0.0138872
-0.0154035
-0.0157834
-0.0116013
-0.0128364
-0.00984355
-0.0110476
-0.0112784
-0.00840111
-0.00927341
-0.00921019
-0.00857787
-0.00663125
-0.00844469
-0.0072086
-0.0085215
-0.00662373
-0.00850769
-0.00720633
-0.00845267
-0.00662685
-0.00855975
-0.00921268
-0.00925383
-0.0071624
-0.00775574
-0.00693633
-0.00630767
-0.00462247
-0.00637585
-0.00607172
-0.00621948
-0.00623127
-0.00460163
-0.00630081
-0.00622103
-0.00606325
-0.00638794
-0.00462433
-0.00855813
-0.00635036
-0.00619345
-0.00544938
-0.00733422
-0.0064788
-0.0062852
-0.00629581
-0.00646423
-0.00603981
-0.00666466
-0.00732306
-0.00531131
-0.00634474
-0.00855031
-0.00619512
-0.00906378
-0.00706569
-0.00842086
-0.0084221
-0.0116636
-0.0164153
-0.021234
-0.0195297
-0.0252758
-0.0225857
-0.029675
-0.0297035
-0.029668
-0.0297865
-0.0226307
-0.0252856
-0.025312
-0.0194726
-0.0216126
-0.0221952
-0.0163212
-0.0181098
-0.0186283
-0.0133948
-0.014023
-0.0164756
-0.0150201
-0.0197295
-0.0230066
-0.0208685
-0.0271983
-0.03139
-0.0281778
-0.03642
-0.0417392
-0.0369311
-0.0467703
-0.0474166
-0.0430243
-0.0367435
-0.0328238
-0.0275969
-0.0242789
-0.0201575
-0.0174995
-0.014412
-0.0124254
-0.0106588
-0.0116245
-0.0132312
-0.00949689
-0.0100253
-0.00833408
-0.00753111
-0.00894452
-0.0102822
-0.00763834
-0.00742622
-0.00692192
-0.00877532
-0.00665296
-0.00842028
-0.00716898
-0.00776418
-0.0069888
-0.00638246
-0.00475116
-0.00565667
-0.0078415
-0.00438708
-0.00628267
-0.00570438
-0.00692376
-0.00618105
-0.00529971
-0.00577796
-0.00668016
-0.00603567
-0.00732875
-0.00618944
-0.00630983
-0.0069421
-0.00894538
-0.00897386
-0.0123084
-0.0172383
-0.0238478
-0.0226322
-0.0297492
-0.0306342
-0.0259725
-0.0252775
-0.0204827
-0.0146587
-0.0104737
-0.010433
-0.0122552
-0.0171279
-0.023659
-0.028013
-0.02668
-0.0344001
-0.0305472
-0.0396633
-0.0399165
-0.039762
-0.0412382
-0.0305749
-0.0344393
-0.0352903
-0.025778
-0.0214884
-0.0283737
-0.0280451
-0.0375903
-0.0380577
-0.0401108
-0.0430383
-0.0484988
-0.0339329
-0.0380072
-0.029054
-0.0257971
-0.0306288
-0.0305088
-0.0345002
-0.0400456
-0.0400146
-0.0455902
-0.0345891
-0.0391605
-0.0306654
-0.0400811
-0.0502553
-0.0494433
-0.0385762
-0.0378085
-0.028505
-0.0290514
-0.0328005
-0.032899
-0.0328142
-0.0243465
-0.0212586
-0.0212273
-0.015154
-0.0148829
-0.0151553
-0.0153641
-0.0215211
-0.0188984
-0.0206622
-0.014745
-0.014563
-0.0146018
-0.0146724
-0.0104034
-0.010379
-0.00769488
-0.00776003
-0.00614911
-0.010513
-0.0204861
-0.020422
-0.0280905
-0.0281959
-0.0283849
-0.0377952
-0.0376436
-0.0381001
-0.0284048
-0.0455416
-0.0521975
-0.0446098
-0.0582583
-0.0496829
-0.0489685
-0.060749
-0.0609499
-0.0594991
-0.0716669
-0.0960695
-0.0979725
-0.0561136
-0.0722785
-0.10013
-0.0791049
-0.0626557
-0.0778042
-0.0786627
-0.0637645
-0.0619747
-0.106051
-0.0806221
-0.0780123
-0.101333
-0.0867096
-0.0867975
-0.081819
-0.0791817
-0.0554116
-0.0779222
-0.0589655
-0.0542165
-0.0428072
-0.0386195
-0.0290953
-0.0290518
-0.0307055
-0.0306224
-0.0304918
-0.0400367
-0.0399931
-0.0379917
-0.0290405
-0.0215218
-0.0306091
-0.0352756
-0.0305729
-0.0397554
-0.0354397
-0.0455959
-0.045328
-0.0400018
-0.0513089
-0.045597
-0.0514472
-0.0400549
-0.0306429
-0.029037
-0.0294614
-0.0391469
-0.0346001
-0.0385732
-0.037804
-0.0285014
-0.0208393
-0.0212232
-0.0164043
-0.011656
-0.00841638
-0.0110489
-0.0104015
-0.0128465
-0.00771635
-0.00924447
-0.0085287
-0.00622018
-0.00648391
-0.00623998
-0.00456096
-0.00633369
-0.00699037
-0.0145653
-0.0146329
-0.0154049
-0.0123217
-0.0144022
-0.0164537
-0.0174823
-0.0172556
-0.0201431
-0.0221764
-0.0242549
-0.0208397
-0.0271687
-0.0257497
-0.0313517
-0.0275764
-0.0327917
-0.0322224
-0.0238716
-0.020445
-0.0216158
-0.0203438
-0.0215749
-0.0237271
-0.02796
-0.0297758
-0.0277887
-0.0343696
-0.0319827
-0.0371444
-0.0398979
-0.0367181
-0.0412064
-0.0429859
-0.0368824
-0.0467257
-0.0446504
-0.0541881
-0.0473912
-0.0422699
-0.053766
-0.0636766
-0.0632678
-0.0628884
-0.0677458
-0.0644339
-0.0584629
-0.0477403
-0.05178
-0.0418734
-0.0532199
-0.0631454
-0.0688862
-0.0655886
-0.0579861
-0.047164
-0.0368207
-0.0453857
-0.0397335
-0.032009
-0.0237469
-0.0419106
-0.0532989
-0.0633051
-0.0692304
-0.0656403
-0.0579831
-0.0471112
-0.0367534
-0.0397104
-0.0373464
-0.0281331
-0.0205782
-0.0161029
-0.0114683
-0.00831035
-0.00780665
-0.0112278
-0.0222961
-0.0300504
-0.039292
-0.0479898
-0.0587405
-0.0636637
-0.0704524
-0.0653227
-0.0529202
-0.0591005
-0.063996
-0.0631499
-0.0533687
-0.0530173
-0.0417309
-0.0318691
-0.0236375
-0.0171089
-0.0122396
-0.00893443
-0.00893318
-0.00694525
-0.00773539
-0.00773265
-0.00621806
-0.00733221
-0.00618081
-0.00637679
-0.00697663
-0.00895565
-0.0104659
-0.00983585
-0.0128156
-0.0128726
-0.0116591
-0.0107523
-0.0105649
-0.00753068
-0.0107389
-0.0108887
-0.00797062
-0.00649721
-0.00878143
-0.00898484
-0.00583717
-0.0110371
-0.0153591
-0.0151592
-0.0148794
-0.0151408
-0.0212039
-0.0208346
-0.0212294
-0.0164077
-0.0227338
-0.0227404
-0.0306608
-0.0385655
-0.0355281
-0.0397483
-0.0304861
-0.0396884
-0.0454116
-0.0399346
-0.0513554
-0.0514772
-0.0453222
-0.045432
-0.0400065
-0.0512884
-0.0518092
-0.0453192
-0.0354722
-0.0456268
-0.0463402
-0.0344347
-0.0287098
-0.0372144
-0.0321902
-0.0422272
-0.0537044
-0.0542592
-0.0580985
-0.0632639
-0.0629009
-0.0636078
-0.067769
-0.0644251
-0.0585306
-0.0478229
-0.0417511
-0.0318906
-0.0369294
-0.0278739
-0.034401
-0.0343623
-0.0343966
-0.0343651
-0.0305514
-0.0398036
-0.0397145
-0.0355297
-0.0453642
-0.0400412
-0.0515597
-0.0514358
-0.0456359
-0.0581102
-0.0583517
-0.0582107
-0.0455716
-0.0502761
-0.049492
-0.0428236
-0.042909
-0.0483671
-0.0542157
-0.0507487
-0.0507102
-0.0749106
-0.0547384
-0.0518719
-0.0777635
-0.0790806
-0.081864
-0.0777553
-0.0816892
-0.0820497
-0.0787396
-0.0544508
-0.0768463
-0.0572485
-0.0756421
-0.0759769
-0.0756488
-0.0758416
-0.0749928
-0.0643942
-0.0810916
-0.10557
-0.056455
-0.0783526
-0.0859687
-0.0815765
-0.0868243
-0.0813509
-0.0773906
-0.102615
-0.0812202
-0.0567689
-0.0622084
-0.105549
-0.0616233
-0.0779256
-0.0565173
-0.0762445
-0.0573768
-0.0543376
-0.0484005
-0.0494383
-0.0494481
-0.0502411
-0.0494334
-0.0385483
-0.049445
-0.048444
-0.0378097
-0.0385721
-0.0290479
-0.0294474
-0.0306641
-0.0401101
-0.0400719
-0.0494492
-0.0508742
-0.0481585
-0.0431178
-0.070203
-0.0477672
-0.0609136
-0.064187
-0.0572012
-0.0606756
-0.0663857
-0.0749875
-0.0544941
-0.0516944
-0.0779423
-0.0589699
-0.0573805
-0.0758369
-0.0542695
-0.0770369
-0.078839
-0.0791522
-0.0820534
-0.0733229
-0.0810575
-0.105504
-0.0783437
-0.0815996
-0.0818307
-0.0819443
-0.0821672
-0.0788336
-0.0547826
-0.077036
-0.0807498
-0.0819954
-0.0806895
-0.0789462
-0.0546222
-0.0772305
-0.0575116
-0.0762397
-0.0764215
-0.0686647
-0.0508985
-0.0508745
-0.0685317
-0.0682037
-0.0483545
-0.0510102
-0.0508818
-0.0590429
-0.0681735
-0.0684478
-0.0687135
-0.0633167
-0.0755001
-0.0575665
-0.0469443
-0.0420623
-0.0321185
-0.0238087
-0.0172113
-0.0122856
-0.0146511
-0.0181528
-0.0180877
-0.0138789
-0.0155305
-0.0215127
-0.0194594
-0.0252407
-0.0253169
-0.0226251
-0.0297383
-0.0296827
-0.0252639
-0.0195258
-0.0252893
-0.0204023
-0.0171026
-0.012241
-0.0146107
-0.0146079
-0.0104306
-0.020407
-0.0236164
-0.0318299
-0.0416698
-0.0472873
-0.0582434
-0.0580394
-0.0582379
-0.0472546
-0.036904
-0.0278623
-0.0267399
-0.0279669
-0.0344353
-0.0343591
-0.0266594
-0.0290368
-0.0215164
-0.0391329
-0.0354466
-0.0453991
-0.0454759
-0.0370836
-0.0365357
-0.0275203
-0.020124
-0.0143911
-0.0102617
-0.00762148
-0.00617053
-0.00691316
-0.00892975
-0.0124138
-0.0174782
-0.0204679
-0.0242559
-0.0327352
-0.0428662
-0.0475695
-0.0583642
-0.0558177
-0.0580931
-0.052943
-0.0530515
-0.0629638
-0.0688172
-0.0655526
-0.0580928
-0.0628769
-0.0686562
-0.0657771
-0.0628653
-0.0697245
-0.0655755
-0.0695492
-0.0380064
-0.0456113
-0.0578943
-0.0455444
-0.0540432
-0.0640705
-0.0779082
-0.0807956
-0.0812115
-0.0859559
-0.0813344
-0.0867967
-0.0867931
-0.0866871
-0.0808717
-0.0818385
-0.0865156
-0.102502
-0.0827095
-0.0869153
-0.0933042
-0.0915668
-0.103047
-0.1031
-0.101517
-0.102787
-0.102649
-0.0688371
-0.0688836
-0.048405
-0.0785702
-0.058722
-0.0688292
-0.0764728
-0.0267439