/*--------------------------------*- C++ -*----------------------------------*\
| =========                 |                                                 |
| \\      /  F ield         | OpenFOAM: The Open Source CFD Toolbox           |
|  \\    /   O peration     | Version:  2306                                  |
|   \\  /    A nd           | Website:  www.openfoam.com                      |
|    \\/     M anipulation  |                                                 |
\*---------------------------------------------------------------------------*/
FoamFile
{
    version     2.0;
    format      ascii;
    arch        "LSB;label=32;scalar=64";
    class       volScalarField;
    location    "2.5";
    object      gradTx;
}
// * * * * * * * * * * * * * * * * * * * * * * * * * * * * * * * * * * * * * //

dimensions      [0 -1 0 1 0 0 0];

internalField   nonuniform List<scalar> 
5322
(
-0.0183532
0.000973661
0.00104677
-3.45494e-06
-7.17497e-05
-6.40216e-05
-4.63215e-05
-3.36796e-05
-2.61112e-05
-1.77964e-05
-1.11259e-05
7.31072e-05
0.000106353
-0.00145435
-2.54845e-05
0.0026762
-0.00209073
7.88117e-06
-0.00169015
0.001421
-0.00190633
0.00228587
-0.00241811
0.0033866
-0.0035056
0.00460755
-0.00464308
0.0064281
-0.00644615
0.00834326
-0.00792828
0.0113527
-0.00840308
0.0158371
0.00125454
0.0230496
0.0163386
-0.00647678
0.0179643
-0.00106566
-0.0170494
0.0170979
-0.00103554
-0.0181806
0.0180867
-0.000618899
-0.0193211
0.0170071
-0.000403338
-0.0202817
-0.0201312
-0.028931
-0.00954445
0.0183758
-0.00121056
-0.0300394
-0.00091943
0.0285588
-0.000345459
-0.0285534
-0.000124144
0.0278156
-0.00014693
-0.028043
2.58607e-05
0.0274424
0.000404684
-0.0277732
0.00144266
0.0228995
0.00129717
-0.0220872
0.0250804
-0.025856
0.0248811
-0.0253484
0.025371
-0.0253811
0.0289112
-0.0211644
0.00999345
-0.0152328
-0.0102485
0.0161319
0.00136738
-0.00730201
0.0116506
-0.0321332
-0.0103116
0.03555
-0.00160759
0.000375854
0.000659485
0.00410359
0.0213325
-0.00431618
0.000207458
-0.0016271
0.0119904
-0.0283883
-0.0283339
0.0586113
-0.0016367
0.0165008
0.0269335
0.000500197
0.000277774
0.000221814
0.000110398
3.75486e-05
5.14464e-06
-7.62254e-06
-1.53672e-05
-2.2079e-05
2.13645e-05
-1.18119e-05
-0.000867956
-0.000842148
0.000104774
0.000526892
2.2744e-05
0.000782278
-0.000938351
-7.23697e-05
-0.000231941
0.00145901
0.00118998
0.000318673
0.000934447
0.000592148
0.000445485
0.00100396
0.000492995
0.000530234
0.00102132
0.000428423
0.0008451
0.00116184
0.00131063
5.53152e-05
-0.000971741
4.60015e-05
0.000663678
-0.000814747
-0.000886646
0.000141113
0.00034902
0.000184197
-0.00069304
-0.000763722
0.000160321
0.000209403
0.000257888
-0.000754983
-0.000711103
0.00016201
0.000130521
0.000418995
-0.000806876
0.0010608
-0.00236929
-0.00314352
0.00304894
-0.00393744
-0.000192189
-0.00239009
4.13179e-05
0.00219657
-0.000513726
0.00241516
0.0011915
0.0017844
-0.00284364
0.00107241
-0.00245382
0.00181596
0.00236143
-0.00323883
0.000195314
-0.00275265
0.00284813
0.00354159
-0.00440513
0.000160508
-0.00369269
0.00419155
0.00512234
-0.00620315
0.000248506
-0.00517983
0.0059959
0.0072882
-0.00871317
0.000346948
-0.00728053
0.00827409
0.0100935
-0.0120519
0.000457614
-0.0100931
0.0109638
0.0135151
-0.0162982
0.000600575
-0.0136304
0.0138901
0.0174229
-0.0212066
0.000818769
-0.0175057
0.0164789
0.0205333
-0.00383218
0.0114703
-0.0281155
-0.0286732
0.0588876
-0.00246
-0.00263499
0.000763324
0.00445425
0.0212311
-0.00322996
0.000422969
-0.00380771
0.0109899
-0.0285975
-0.0281957
0.0585312
-0.00210101
0.0164938
0.000182855
0.000447153
0.000264617
0.000144769
5.80646e-05
1.51282e-05
-3.25835e-06
-1.35969e-05
-2.00314e-05
2.11675e-05
-1.12093e-05
0.000682995
-0.000761078
0.000761195
-0.000683295
2.51152e-06
0.000682217
-0.00063863
-1.50575e-06
-0.000777996
1.05974e-06
-0.000679686
1.08378e-06
0.000639862
2.57709e-05
0.000725337
-6.0257e-05
-0.000786945
1.78683e-06
0.000777899
-3.60804e-07
4.69207e-07
0.00141292
-0.00255616
0.0025564
-0.00252313
0.00294309
-0.00341434
0.00416504
-0.00488212
0.00590706
-0.00695753
0.00834906
-0.00975256
0.0115875
-0.0133108
0.0156686
-0.0175721
0.0204746
-0.022061
0.0254054
-0.0145933
0.00035904
0.0147849
0.000425889
-0.0247422
0.0214995
0.000126685
-0.0198529
0.0172114
7.89231e-05
-0.0151919
0.0130612
4.8979e-05
-0.0112389
0.00956667
2.95983e-05
-0.00809878
0.00681934
1.9483e-05
-0.00572465
0.00478508
1.60755e-05
-0.00402301
0.0033655
1.30614e-05
-0.00282911
3.35817e-06
0.00283356
-0.00335932
-1.17419e-05
-0.00293413
0.00252336
-5.14403e-06
-0.00142337
-9.23142e-05
0.00144605
-0.00264762
0.0028274
-0.00336669
0.00396523
-0.00472117
0.00564934
-0.00668576
0.00800994
-0.0093499
0.0111603
-0.0127387
0.0151958
-0.0167326
0.0200464
-0.0207042
0.0249889
-0.0144179
-0.00347975
0.00609174
0.000690699
-0.0232605
0.018808
0.000169266
-0.0181315
0.0155005
-5.13887e-05
-0.0134506
0.0116717
-9.10245e-05
-0.00987515
0.00848991
-8.06576e-05
-0.00712125
0.00605932
-7.8956e-05
-0.00504018
0.00429715
-8.39135e-05
-0.00354598
0.0030833
-0.000106265
-0.00249644
0.00207298
3.09753e-05
-0.000714938
0.00120062
0.00198361
-1.40394e-05
0.000226384
-0.000365008
0.0010729
-0.0033148
0.00278752
-0.00393539
-0.00265107
-0.00329504
0.000208402
0.00192882
0.00214414
-0.00277932
0.00103255
-0.002475
-0.000212182
0.000104865
-0.000955564
7.87271e-05
-3.95261e-05
-0.000996026
4.74508e-05
-0.000202298
-0.00253065
-0.00274517
0.00220073
-0.00319931
-6.56786e-05
0.00342588
-0.00437023
0.0050326
-0.00616606
-0.00023517
0.00720672
-0.0086753
0.00999573
-0.0120125
4.58561e-05
0.0133643
-0.0161842
0.0171176
-0.0207576
0.00429685
0.000753162
0.00022879
0.00027095
-8.76897e-05
7.81191e-05
0.0138528
-0.0166128
0.000706583
-0.0134772
0.0128835
0.0178573
-0.0208375
0.00108652
-0.0183204
0.014567
0.0292347
-0.00260168
0.00131257
-0.0308182
-0.0286194
0.0558946
-0.00375304
0.000602667
0.00108078
-0.0138241
0.00277093
0.00841589
-0.00874262
0.000593481
0.00691775
-0.00618121
2.97668e-05
0.00496043
-0.0046244
-5.17483e-05
0.00337259
-0.00324195
-0.000111848
0.00249423
-0.00222564
-0.000158696
0.00188415
-0.00130256
-0.000186828
0.00174491
0.000625262
0.000447564
-9.24586e-05
-4.65064e-05
0.000837419
-0.000355026
0.00426579
-0.0053337
0.00625082
-0.00752339
-0.0048639
-0.00633579
0.000252399
0.00410595
0.00516944
-0.0044869
0.00016514
-0.00345998
-0.000109724
-5.68926e-05
-7.58819e-06
-5.98426e-05
-7.83513e-05
0.000201754
0.000149437
0.000112654
-0.000567579
-0.000155532
0.00115573
0.00172899
0.00146027
0.000506382
0.00236154
0.000887982
0.000646914
0.000438612
-0.000271059
-0.000812508
-0.00111774
-0.000535206
0.000434006
-0.000681204
6.50675e-05
0.00114941
-0.00103107
0.00892906
-0.0105759
0.0124344
-0.0147354
-0.0096453
-0.0123724
0.000492507
0.00793537
0.0103183
-0.00892581
0.000359279
-0.0068736
-0.000149002
-5.2104e-05
-7.40972e-05
-0.000106224
-0.000264565
2.0713e-06
-6.0307e-05
-0.00018406
2.97984e-05
1.01255e-05
0.000932644
3.83032e-05
-8.82807e-05
-1.81112e-05
2.46339e-05
1.37599e-05
-6.64384e-05
0.000148504
-0.00170679
-5.84485e-05
-1.49107e-05
-6.34072e-06
-2.26976e-05
0.00342305
1.17156e-05
-0.00415339
0.00403364
-0.00476999
-8.75751e-06
0.00490472
2.2672e-05
-0.00588938
0.00574909
-0.00678932
1.01285e-06
0.00700193
3.56745e-05
-0.00831921
0.0081485
-0.00951108
1.54468e-05
0.00983422
5.49042e-05
-0.0115414
0.0113312
-0.0129644
4.02792e-05
0.0134529
7.33105e-05
-0.0156009
0.0153439
-0.0170556
8.62091e-05
0.0177694
3.51419e-05
-0.0203559
0.0200397
-0.0213078
0.000138653
0.0221405
-0.000174271
-0.0251735
0.0248207
-0.0146593
-3.0751e-05
0.0145399
-0.00100021
-0.0023186
-0.00192794
-0.00275474
-0.0285006
0.00616175
0.00432323
-0.00223933
-0.00451863
-0.00162323
-0.0244225
0.00549456
-0.00916465
-0.0128096
-0.00284064
-0.00386872
-0.00491051
-0.00265996
-0.00140627
0.000665912
-0.000799465
-0.00162853
-0.00153371
-0.00105299
-0.000813503
-0.00063899
-0.000164291
0.00136797
0.00149933
0.0014921
0.00171744
0.00221579
0.00211285
0.00158541
0.00159646
0.00107107
-0.000945414
0.000301019
-0.000108963
-7.59555e-05
0.000273357
-0.000823914
-1.84446e-06
-8.93334e-07
-2.1171e-06
1.15382e-06
-0.000523816
-0.000600579
-0.000596536
-0.000528908
0.000526988
-0.000438338
1.8567e-05
0.000601867
-0.000509908
-0.000510793
1.87307e-05
0.000598534
9.09796e-07
2.04329e-06
2.30819e-06
2.10281e-06
-2.06468e-05
1.922e-05
-8.883e-06
-3.92025e-06
7.1839e-06
2.74004e-05
6.60256e-05
7.0165e-05
-3.40393e-05
-0.000376597
0.000265183
-0.000258339
0.00190352
-0.00267523
0.0170386
-0.020001
0.0230003
-0.000265157
-0.00658428
-0.00120835
0.0018272
1.63518e-05
0.000401238
0.000711386
-0.00251236
-0.00447474
-0.00859673
-0.0198416
-0.0204073
-0.0471746
-0.0196266
-0.0168113
-0.000343448
-0.00652407
0.00589324
-0.0409501
-0.0248992
-0.0120298
0.017997
0.00143875
0.000791132
-0.0184758
0.0194658
0.000126665
-0.00239956
-0.0201792
0.0195373
3.91041e-05
-0.00265299
-0.0196993
0.0194812
0.000161328
-0.0042713
-0.0188024
0.0139045
-0.0118083
0.0101801
0.00775958
0.0221083
-0.0103951
-0.00581178
0.00326004
0.0126481
-0.0389015
-0.00193386
-0.0226212
0.0215811
0.0206263
0.0190474
0.0240528
0.0107928
0.00183087
0.00881077
0.0129268
0.0204845
-0.007437
0.00182348
0.012443
-0.00837248
0.000110274
0.00851744
-0.00660379
-1.45868e-05
0.00624598
-0.0047595
1.4079e-05
0.00457112
-0.00338427
1.59357e-05
0.00327583
-0.00241176
-6.15647e-06
0.0022571
-0.00183419
-0.000114955
0.00141033
-0.00165307
-0.000581952
6.06362e-05
-0.00198308
-0.00122177
0.000724303
-0.00207144
0.00253429
-0.00306179
0.000103802
-0.0028296
0.00264568
-2.48297e-05
-0.00144249
9.33161e-05
0.00142623
-0.00141035
7.39122e-06
1.03203e-05
3.89617e-06
4.39162e-06
8.69754e-06
1.35047e-05
3.86244e-05
5.83233e-05
9.37257e-05
-0.000324267
3.93947e-05
-0.000133504
0.00151683
-0.00155773
8.59659e-05
9.72133e-05
0.000524971
0.00053452
0.00578106
0.00742441
-0.000234307
-0.00516648
0.0060046
0.000349292
-0.00726794
0.00826527
0.000462562
-0.0101127
0.0109246
0.000610241
-0.0137803
0.0137983
0.000821227
-0.0179621
0.000224267
0.00053463
-0.00301223
-0.00300492
-0.00809125
-0.0041624
-0.0024138
-0.00151737
-0.00106102
-0.000833198
-0.000654742
-0.000185379
0.00133688
0.00144954
0.00142849
0.00211496
0.00128233
-0.000185277
-0.00063045
-0.000838114
-0.00109426
-0.00154447
-0.00240002
-0.00410619
-0.00777295
-0.0179321
-0.0188169
-0.0325347
-0.0260529
-0.00862604
-0.00860426
0.0163852
0.00176728
-0.0020423
-0.00163116
0.00774688
0.000272262
-0.00628274
-0.00600492
0.0061646
-8.51369e-06
-0.0068957
-0.00659154
0.00543227
1.00059e-06
-0.00856409
-0.00816515
0.00270963
-0.0117001
0.00799702
0.0077634
0.00811072
0.00709394
-0.0100307
0.00076643
0.00360184
-0.0116371
0.00269067
-0.0109118
0.012579
-0.0276531
-0.00121726
-0.0266194
0.0199584
0.0212118
0.0205533
0.020157
0.0205126
0.0200538
-0.0288201
-0.0014669
-0.0259944
0.0168699
0.0180947
0.0169433
0.0178669
-0.00121638
-0.0277307
-0.0275484
0.0126129
0.0206048
0.0189308
0.0180887
0.0225676
0.0223061
0.0174221
0.00504147
0.010563
0.00443713
-0.0024458
0.00423834
0.000906746
-0.00310882
0.00245183
0.000299469
-0.00251399
0.00183666
0.000195491
-0.00194723
0.00133161
0.000123287
-0.00141097
0.000996249
0.000105306
-0.0010357
0.000675693
2.82139e-05
-0.000764261
0.000453164
-6.31964e-05
-0.00069777
0.000184522
-0.000407216
-0.00102623
-0.000473885
-0.00143572
-0.00173386
-0.00174432
-0.0011735
-0.000851048
-0.00131892
-5.43391e-05
0.000976503
-0.000730765
7.2885e-05
0.000806199
-0.000802558
3.43683e-05
0.000839316
-0.000861741
-2.95852e-05
-6.03374e-05
-0.00153165
-5.34676e-06
-0.00261805
4.07425e-06
-0.00286949
1.88649e-05
0.00340786
-0.00345668
-2.25328e-06
-0.00399397
9.08897e-05
0.00476156
-0.00432248
8.87902e-05
0.00512892
7.94765e-05
-0.00609718
0.000121161
0.00721607
9.3858e-05
-0.00851033
0.00015909
0.00994856
6.23109e-05
-0.0115888
0.00019414
0.0133328
5.86485e-05
-0.0153013
0.000248152
0.0173372
-0.000146166
-0.0193469
0.000426383
0.0216055
-0.000230701
-0.000668286
-0.0269796
-0.0195383
0.000769264
0.0224121
-0.000310846
-0.0212744
-0.014769
0.000644629
0.018229
-0.000188948
-0.0162997
-0.0112123
0.000408822
0.0139441
-0.000147889
-0.0121308
-0.00830437
0.000277095
0.0103045
-8.76917e-05
-0.00874533
-0.00599397
0.000178658
0.0073997
-6.45412e-05
-0.0061567
-0.0042287
8.25822e-05
0.00528105
-2.00114e-05
-0.00421944
-0.00294969
3.48904e-05
0.00390579
5.48693e-05
-0.0027735
-0.00197336
0.000193735
0.00329749
0.000378401
-0.000247865
0.000725863
-0.00122422
-0.00198929
6.40071e-05
-0.000590801
6.87837e-05
0.00174324
-0.000142811
2.61369e-05
-0.00145423
8.78428e-06
0.00262426
-0.0025617
-1.07144e-05
-0.00284973
0.000107296
-0.00310057
5.29805e-05
0.0036228
0.000125242
3.28077e-05
1.74097e-05
3.39673e-05
0.00298413
2.60218e-05
-2.19518e-05
-0.000641008
-1.7149e-06
0.000699211
1.16268e-06
2.72707e-06
3.50823e-06
-0.000109052
-0.000126527
-9.08611e-05
-0.000975491
4.27333e-05
-0.000200024
-6.50087e-05
-6.15423e-05
-6.5935e-05
0.0034851
0.00287742
-6.60658e-05
0.000224834
5.06371e-05
2.23843e-05
0.0019402
0.000200793
-0.00277085
0.00291197
0.000161331
-0.00369047
0.00422232
0.000248605
1.81929e-05
-0.000131282
-0.000143497
-0.000183419
-0.000193207
-0.000223589
-0.000204308
-0.000189061
-0.000134746
-0.000140284
-0.000135295
-7.29191e-05
-8.14675e-05
-0.00272418
0.00284343
0.0045422
-0.00533537
0.00648262
-0.00750492
-0.000116901
-0.00498012
9.61765e-06
0.00438243
-0.000115828
-0.0035283
-6.92603e-05
0.00327859
-1.0329e-05
0.00010198
-0.00263205
-0.00010829
0.00315209
-0.00341906
7.40798e-06
-0.00671469
-3.32562e-05
0.00788521
-0.00693754
1.23389e-05
-0.00832027
1.11138e-05
0.00979495
-0.00966611
3.17321e-06
-0.0112582
7.72751e-06
0.0130651
-0.0134374
-3.20117e-05
-0.0147922
7.19064e-05
0.0168349
-0.0191289
-4.66545e-05
0.0212781
-0.0234231
-0.000304033
-0.000657995
-0.000117252
-2.70967e-05
2.15445e-05
3.03679e-05
2.83085e-05
2.70646e-05
2.68164e-05
-1.82522e-05
1.16435e-05
-0.000681582
0.000765633
-0.000754593
-0.00069415
6.76815e-06
6.02715e-06
-1.86371e-05
4.02858e-05
0.000657475
5.32362e-06
-7.3832e-06
-6.00733e-05
7.62973e-05
-6.93649e-05
-0.000953769
4.03493e-05
-0.000242606
0.00171625
0.000213014
-6.82287e-05
-4.93019e-05
3.04213e-05
-2.20074e-06
0.000506809
0.000514989
-1.52258e-05
0.000433936
0.000683655
-1.1713e-05
-1.45168e-05
-1.39857e-05
-4.50748e-05
2.97335e-05
-0.000776576
0.00228387
0.000113596
-0.00344348
-2.95672e-05
0.00394679
-0.0034752
-1.04559e-05
-0.00417774
3.45463e-06
-0.0048543
8.65407e-08
-0.00578929
1.94203e-05
0.00687618
-0.00704788
-1.0722e-05
-0.00800051
9.9142e-05
0.00941113
-0.0110381
9.51933e-05
0.0127951
-1.37916e-06
1.20455e-05
1.54979e-05
1.73419e-05
1.67159e-05
2.16499e-05
2.91244e-06
4.5438e-07
-1.74401e-05
-1.76692e-05
-4.77897e-05
-7.21834e-05
-1.56585e-05
-1.68601e-05
4.36939e-06
4.38902e-06
6.76995e-06
8.65964e-06
1.16144e-05
1.60606e-05
1.84218e-05
2.01432e-05
2.90375e-05
3.4732e-05
0.000149899
0.000200066
-0.000500191
0.000285499
-0.000830213
0.00395452
-0.0238393
-0.00642974
0.000152843
-0.00219769
0.011064
-0.0110557
-0.0339644
-0.0130533
-5.8477e-05
0.00330717
0.000228654
-0.0262221
-0.0114512
-0.00770189
0.0155801
0.00174072
-0.00176536
-0.00298191
0.00840194
0.00027026
-0.00585826
-0.00722528
0.00721977
1.24357e-05
-0.00643357
-0.00758263
0.00672015
5.91157e-05
-0.00825853
-0.0086021
0.00166237
-0.000472642
8.20267e-05
8.89096e-05
0.0212459
-0.0192417
0.000276913
0.0176842
-0.000552363
0.000350739
-0.0223512
0.000437865
-0.0138313
0.0157879
0.000165181
-0.0169456
-0.0296739
0.0228004
-0.0017242
0.00284467
0.00974767
-0.000135804
0.0227408
0.0166888
0.0187453
-0.0228292
0.000714405
-0.0192968
-0.000125745
-0.0213499
0.000900828
-0.0204576
-0.000134026
-0.0205662
0.00094759
-0.0219634
0.0174409
0.0170872
-0.00115182
-0.0334986
-0.0269142
0.0124436
-0.00879589
0.012015
0.00689139
0.00813068
-0.0107882
0.00300069
0.0023131
-0.0119761
0.00453203
0.00824333
-0.0101651
0.0169378
-0.0090574
0.00146218
-0.00906449
0.00144511
-0.00979134
-0.00766196
0.00135738
-0.000634145
-0.000108776
-5.96691e-05
1.08511e-05
4.37452e-05
4.11843e-05
3.26307e-05
2.81892e-05
2.68732e-05
-1.85863e-05
1.23364e-05
-0.000437927
0.000527722
4.51722e-06
0.000104247
7.44816e-05
6.02805e-05
-0.000728113
-4.52899e-05
0.000818465
-0.000661291
-0.000354136
0.000823412
-0.000850228
-0.00117768
-0.00132214
0.000964247
0.000975274
-5.60735e-05
-8.02467e-05
-0.000270498
3.32446e-05
0.00100309
-0.000172263
-0.000227377
-0.00015407
0.000757683
0.000759175
-0.000229466
-0.000169566
0.000950983
-0.000485742
-0.00106108
-0.000488755
0.000987605
-4.07019e-05
-4.87383e-05
-0.000106832
4.57132e-06
7.16249e-05
0.00174429
-0.000145796
7.22483e-05
-6.03223e-06
-1.02043e-05
-1.57636e-05
-2.26896e-05
-3.58986e-05
-6.56814e-05
-0.000124883
1.51896e-05
-5.92807e-05
9.71229e-05
-0.000771865
-0.000233053
0.00074536
-0.00139083
-0.000522487
-0.000539403
-0.0159014
0.0152798
-0.000449718
-0.000349522
0.000951732
-0.000622094
-0.000355055
0.00274678
0.0051334
0.00271354
0.0158753
-0.00752205
0.001642
0.0109705
0.0126276
-0.00390646
0.00115669
-0.000155701
0.000799812
-0.000190359
6.55465e-05
-0.0012914
-0.000113656
5.61794e-05
2.19629e-05
1.81333e-06
-7.05009e-06
7.50956e-06
-8.85528e-06
1.4541e-05
2.1727e-05
1.59508e-05
9.42613e-05
0.000197955
0.000285845
0.000371356
0.000461726
0.000631744
0.000426043
0.000129286
0.000238631
0.000139446
6.3698e-05
2.79269e-05
2.32734e-05
1.3866e-05
3.08163e-05
3.26567e-05
-0.00396161
0.00358415
-0.00426322
0.00506594
-0.00601832
9.40064e-05
-0.00562422
0.00472166
8.77239e-05
2.26695e-05
1.67867e-05
1.72997e-06
0.00336651
2.38732e-05
-2.34581e-05
0.000788529
-1.25939e-05
2.12867e-05
7.60004e-05
-0.000134894
0.000885034
0.000694467
-0.000295437
0.000118663
-2.00547e-06
-7.85017e-07
0.00044257
-1.48124e-05
-6.04784e-07
0.000308647
-0.000945843
0.000270737
3.97777e-06
0.000108727
7.91044e-05
8.55975e-06
-7.93882e-05
3.52516e-05
7.41721e-05
-0.000296015
-0.000271865
0.000888331
-0.000355688
-0.00065973
-0.000136393
0.000825403
-4.41549e-05
7.63425e-05
5.24221e-05
-2.9017e-05
2.27358e-06
2.27027e-05
5.25679e-05
5.87797e-05
5.67036e-06
5.02228e-05
6.03623e-05
8.59939e-05
1.92031e-05
-1.21763e-07
2.22431e-05
-1.42219e-06
0.00669432
-0.00794871
0.00713654
-0.00842379
0.00987391
-0.0115342
0.000170334
-0.0110245
0.00937077
0.000120488
1.12759e-05
9.90419e-05
0.000116132
0.000141458
0.000133992
3.00261e-05
-2.00332e-06
2.75092e-05
2.70741e-05
4.20138e-05
3.18348e-05
4.79421e-05
0.000115688
0.000389467
0.00026359
0.00132371
0.000132061
6.07298e-05
2.6916e-05
6.04487e-06
-1.26211e-05
-5.11742e-06
-5.67479e-06
8.62522e-06
4.66917e-06
3.64547e-06
1.54588e-05
1.79219e-05
1.43954e-05
-3.90592e-06
-1.35217e-05
-4.86035e-06
-6.91608e-06
-6.6638e-06
3.82238e-06
7.51628e-06
1.27645e-05
2.01289e-05
2.60472e-05
3.95941e-05
3.22407e-05
3.83409e-05
7.34417e-05
6.25942e-05
4.22651e-05
0.000104891
0.000254702
9.02895e-05
0.000102399
0.00354281
-0.000637621
0.000375604
8.17205e-05
0.00028868
0.00759166
-0.000311362
-0.00110444
0.00600427
0.00201595
-0.026162
-0.00947802
-0.0171432
0.0166368
-0.0117525
-0.0126072
0.0150029
-0.0183018
-0.000994155
-0.00136872
-0.0169318
0.0151008
-0.000155899
-0.000767819
-4.62588e-05
0.00029257
0.000400921
0.00636257
0.00217101
-0.0116512
-0.0106242
0.0182629
0.00168261
-0.00431631
-0.00131495
0.00723211
0.000194802
-0.00839518
-0.00545727
0.0054924
-1.89588e-05
-0.00874088
-0.0060075
0.00481166
-4.94531e-05
0.00765534
0.00741842
0.000433458
0.0101545
-0.00991632
7.26278e-05
-0.00809815
-5.80267e-05
-0.000152111
-2.324e-05
6.38624e-06
1.69938e-05
1.51255e-05
1.0911e-05
7.16387e-06
3.77024e-06
-4.42592e-06
-1.48267e-05
0.000169569
-0.00365428
0.00421318
0.000251219
-0.00513486
0.00602725
0.00915359
-0.0105219
0.0126468
-0.0145238
-0.000156125
-0.009852
0.00015647
0.00858644
-0.000141452
-0.00704289
6.79534e-05
0.0061499
-0.000424716
-0.000291987
-0.00539981
-0.000174148
0.0061375
-0.00679909
4.02572e-05
-0.013004
-1.76827e-05
0.0150913
-0.0131791
2.344e-05
-0.0153068
3.02717e-05
-0.0173021
-2.96547e-05
-0.0193907
-6.04748e-05
0.0215625
-0.0223901
-1.09117e-05
0.0239693
-5.88308e-05
-0.0235819
0.0235039
-7.21579e-05
-0.0218149
0.0220542
-0.0238067
-1.36466e-05
2.31219e-05
0.000120716
9.00751e-05
4.22167e-05
1.59206e-05
3.02944e-06
-6.07943e-06
-7.68479e-05
-9.19458e-05
-0.00018492
-0.000229635
-0.000201896
-0.000233191
-0.00721759
0.00832251
0.000471186
-0.0099976
0.0110527
0.016978
-0.0196777
0.0220167
-0.0257194
0.000467081
-0.0197922
0.00189832
0.0155153
-8.80876e-05
-0.0137966
0.000500803
0.0117602
-0.000721025
-0.000304019
-0.00988172
-4.57005e-05
0.0115859
-0.0125171
0.000125628
-0.0224659
9.91954e-05
0.0254327
-0.0217696
-7.02787e-05
0.0237817
0.000174965
-0.0270441
0.0158438
-2.05223e-05
-0.0164192
0.0143509
-0.0176877
0.000598192
-0.00294582
-0.00146987
-0.00247423
-0.00417028
0.0187771
-0.0291038
0.00622152
-0.00633316
-0.00300538
-0.00172816
-0.00116019
-0.000843088
-0.000616736
-0.000365419
0.000301479
0.00438794
0.00211371
-0.00109533
0.000741586
0.000344158
0.00254247
-0.00222449
0.00228275
-0.000137721
-0.00150094
6.73595e-05
0.00284707
-0.0027123
-1.02603e-05
-0.00297304
1.73952e-06
-0.00341391
-1.17598e-06
-0.00407261
2.17279e-05
0.00483531
-0.00494676
-6.63766e-06
-0.00567065
8.82381e-05
0.00674268
2.70212e-05
1.31797e-05
0.0059758
2.24347e-05
0.00422093
-4.09619e-06
-1.30426e-05
-3.44397e-05
-0.000121489
1.46431e-05
0.00150024
0.000100101
0.000109239
0.000524838
0.000924092
-0.00151023
-6.77377e-05
-0.00246068
1.64252e-05
-0.00477019
-3.48669e-05
0.0055553
-0.00489092
2.9115e-06
-0.00591079
6.35551e-06
-0.00690913
2.93087e-06
-0.00816438
1.61053e-05
0.00961316
-0.00986531
-1.77524e-05
0.0115764
-5.5785e-06
6.18732e-06
0.00840915
-2.78276e-07
2.23556e-05
8.56906e-06
-1.10992e-05
0.0041229
-3.44113e-05
0.00293956
0.000180355
-1.50702e-05
0.00243384
1.68011e-05
0.000115696
-0.00018126
0.00295558
-0.000107862
-0.000178804
-0.00383205
-0.000148207
-0.00485374
1.87863e-05
-0.00943706
-3.07126e-05
0.0110427
-0.00969456
2.02554e-05
-0.0114613
1.90203e-05
-0.0131492
-5.15182e-06
-0.0150541
-1.5199e-05
0.0171619
-0.0177194
-5.02378e-05
0.0198433
-3.94428e-05
-6.92233e-06
1.27528e-05
1.83956e-05
3.33829e-05
2.86311e-05
2.63396e-05
2.3557e-05
1.70452e-05
1.75171e-05
1.97165e-05
1.29579e-05
0.000135166
0.000211279
0.0002909
1.1028e-05
3.68288e-05
2.71502e-05
2.23713e-05
1.76421e-05
-1.52871e-06
1.38546e-05
-0.000149725
-0.00319231
4.09853e-05
-0.00312415
0.0040736
0.000116316
-0.00458981
-0.00469882
0.00415045
0.00388163
0.000112814
-0.00438235
-0.00501066
0.00440151
-0.00338015
3.58611e-05
-0.00302087
0.00290575
0.00305617
0.00301274
0.00294272
4.25328e-05
-0.00332363
-0.00308887
-0.000149667
0.00394993
0.000119274
-0.00492091
-0.00449077
-0.000229941
0.00549855
0.000245632
-0.007068
-0.00641642
-0.00658656
-0.00674659
0.000247974
0.00568215
0.00579946
-0.000228588
0.00539426
0.000241144
-0.00625794
-0.00720015
0.00616653
-0.000236298
-0.00412758
-0.00618247
7.14824e-05
0.0035694
-0.000158482
-0.00288267
-0.00424246
2.20535e-05
0.00274089
0.0032429
-0.00208099
0.000181953
-0.00202026
-0.000196457
-0.00205135
0.00018051
-0.00201622
-0.000196158
-0.00205594
0.000187545
-0.00205226
0.00320267
0.00277062
-0.00020645
-3.57928e-05
0.000191357
-0.00136033
-0.00152612
-0.00146576
-0.00162859
-0.00154995
-0.00156268
-0.00158141
-0.00138683
-0.00212677
-0.00161375
-0.00147246
-0.00152261
-0.00102599
-0.00042754
-0.000535925
0.000949228
-0.00106608
0.00260709
0.00263659
0.00261713
0.00262444
0.0027212
0.00253581
-0.00102857
0.000827848
-0.000425107
-0.00102633
-0.000538705
0.00100344
-4.74196e-05
6.03536e-05
6.13231e-05
0.000138012
0.000214873
-1.0648e-05
-0.00031758
0.0080284
0.000383678
-0.00916853
-0.00939649
-0.00868919
-0.0100316
0.000368215
0.00746608
0.00855825
-0.000324546
-0.00584909
-0.00880702
0.000170729
0.00496424
0.00743512
-4.86773e-05
0.000743898
-0.00106139
9.91187e-05
0.00104917
-0.00147973
0.000140696
0.00147731
-0.00198058
0.000252153
0.00223491
-0.00236915
0.000789088
0.00422306
0.000893226
0.00196248
-0.000452635
0.00104781
-0.00056025
0.000762442
-0.000463765
0.000587187
-0.000356767
0.000412935
4.73243e-05
-0.000772214
0.00529631
-1.62796e-05
0.000501559
-0.000693936
-4.99398e-05
7.48819e-05
-0.000317868
-0.000535737
0.000224187
5.80532e-05
-0.00278888
0.000183849
-0.00193587
-0.000207681
-3.19366e-05
0.000214911
-0.00108813
-0.00174454
-0.0017222
-0.00143835
-0.000466214
-0.00102996
-0.000399634
-0.000761384
-0.00234227
0.000380018
0.00330046
0.00252282
0.00273864
-0.00102661
-0.00222193
-0.00135487
0.000198019
0.000716664
0.000663118
0.000893316
0.00111443
0.00137896
0.000267917
-0.00809014
-0.0122619
0.010359
0.00690034
-0.000495249
-0.000344831
-0.000193074
-0.000163998
0.000881499
0.00102776
0.00120779
-0.000644941
-0.000419816
0.0115619
0.000504352
-0.0116836
-0.0135633
-0.0108135
-0.0166981
0.000362571
0.00941513
0.0141055
-4.93773e-05
0.000132793
6.97551e-05
4.54749e-05
8.19922e-05
0.000144966
-0.0149166
0.0133525
-0.0153177
-1.57436e-05
0.000282737
0.000194106
0.00011168
3.88682e-05
-3.02861e-06
0.0127882
4.22382e-05
6.90492e-06
0.0168855
0.000242048
-9.01397e-07
0.000370123
0.000440518
-7.46525e-05
1.14814e-05
3.90206e-05
1.67908e-05
2.67891e-05
-2.27466e-05
2.77345e-05
2.68759e-05
5.12355e-05
1.1888e-05
4.07384e-05
3.60463e-05
1.54172e-05
1.80418e-06
2.96606e-06
1.62942e-06
1.61409e-05
0.000351195
0.000588385
0.000424436
0.000341337
0.000345327
0.000383392
0.000194837
0.000193739
1.74359e-05
0.000125736
0.00240595
0.000267298
0.000484026
0.000477804
0.000571699
0.00057666
0.000667034
0.0005301
0.000540627
0.000768091
0.000729738
-0.0134862
0.0140496
0.000907873
-0.0171371
0.000497519
0.000304646
-0.00295223
-0.00394632
-0.0221803
-0.0232834
-0.0385265
0.00972719
0.00330174
0.0184498
-0.00665656
0.0104592
-0.00116206
-0.0118158
0.0106958
-0.000250518
0.00754265
-0.000266755
0.0100598
-0.0110658
-0.00090657
-0.000281921
-0.00034245
0.000140821
-0.00120831
0.0079069
-0.000354174
0.000416616
0.000257548
0.000137282
0.000146756
7.59068e-05
6.80953e-05
-0.000110404
-0.000122261
9.83322e-06
0.000184364
0.000942081
0.000150342
-3.24226e-05
-8.91091e-05
0.00793763
-0.00931811
7.98802e-05
-0.0174132
2.2791e-05
0.02003
-0.0173165
7.72253e-06
-0.0196725
3.03619e-05
0.0194586
-6.65426e-06
8.85032e-06
2.00857e-05
4.04406e-05
9.01747e-05
0.000642633
0.000134617
4.91221e-05
2.42946e-05
1.04749e-05
9.96493e-06
8.95421e-06
6.5837e-06
4.16906e-06
0.00411728
6.92949e-06
0.0049097
3.54319e-06
0.0034353
0.00290413
1.03296e-05
0.00261213
0.00149441
3.93044e-05
7.09119e-06
-1.8878e-06
1.08922e-05
4.54486e-06
0.00584752
0.000108381
-0.000264521
0.00437573
-0.000164114
0.000134777
-0.00033896
0.00575763
-0.000189431
-0.000345299
-0.00741628
-0.00015528
0.00852149
-0.000416979
-0.00020084
0.0002427
0.000180654
1.98487e-05
0.00824665
1.61125e-05
0.00824085
3.31743e-05
4.96608e-05
0.0113837
2.53639e-05
0.0133326
3.84008e-05
0.000118434
0.0152546
-0.000582724
0.0106339
-0.000369203
-0.000388237
-0.0130934
0.000210127
0.0136435
-0.00112771
0.000242209
-0.000337765
-0.0022759
-0.00583005
4.28197e-06
-0.000899048
-0.000384198
0.000244911
0.000241993
0.0196863
2.30487e-05
-3.39704e-05
-7.2382e-05
-6.64137e-05
-0.000346545
-1.61395e-05
4.80375e-05
3.98152e-05
0.0175444
0.0151589
-1.26402e-05
-1.60095e-06
-4.38999e-05
-0.000104981
-0.000135473
-0.000591332
-0.000203374
-0.00019268
-9.23927e-05
-3.24564e-05
0.015449
-4.03338e-05
2.46981e-06
1.55966e-05
0.000287262
0.000195414
9.36863e-05
-0.000117915
-3.08296e-05
0.000377826
0.000474251
0.000630583
-8.41454e-05
0.000271915
0.000267961
-0.000498359
0.00237619
0.00529336
-0.00364754
0.0243547
0.00163618
0.000702668
-0.000141568
0.000791322
0.00120287
0.00116997
0.0010141
0.000870634
0.000706388
0.000726473
0.000206367
-7.37251e-06
-8.71938e-06
-0.00212668
-0.00106677
-0.00222303
-0.00109464
0.000206113
0.000649312
-0.000197128
-0.000158247
0.00362642
0.00433336
0.00013601
1.34417e-05
1.64654e-05
2.24787e-05
1.76274e-05
2.27207e-05
7.2885e-06
-0.000105367
0.000962515
0.00255331
0.000144537
6.16608e-05
9.50217e-06
-2.67051e-06
1.58708e-05
1.64131e-05
1.69491e-05
1.83459e-05
-1.36213e-05
0.000210205
0.000287077
0.000296196
0.000377695
-6.10021e-05
-0.000534803
-0.012702
0.000544467
-0.0123627
0.0135998
0.000798962
-0.0161383
-0.0166891
0.0139794
0.0130882
0.000694673
-0.0152042
-0.0178312
0.0149766
-0.000543358
0.0125086
0.0185747
5.68764e-05
6.76579e-05
-0.000821122
0.00168562
0.00200565
0.00229376
0.0054994
0.00677783
0.0133732
0.0313814
0.00354014
0.0163917
0.024297
-0.00192887
-0.00110644
0.00114979
0.00133378
-0.000750155
-0.000584426
0.0100855
0.0108153
0.010571
0.0102562
0.0005374
-0.0132628
-0.0120674
-0.000545254
0.013307
0.000803445
-0.0173193
-0.0159088
-0.00072434
0.0163607
0.0174422
0.0154987
-0.0006978
-0.000157484
-0.000214733
-2.23397e-05
2.28498e-05
0.000102196
2.36627e-05
2.29346e-05
-3.57301e-05
-1.43414e-05
-0.000219791
0.00219759
-0.000247109
-0.000151339
-0.000345303
-0.000300005
-0.000186695
-0.000317491
-0.000143511
0.00594703
-0.00017345
0.000112347
2.52365e-05
7.83895e-06
0.000266085
0.000231587
-0.00259319
0.013346
-0.00671532
-0.0240939
-0.0285996
0.00239916
-0.0135262
0.00571416
0.00184196
-0.00837926
-0.00925869
-0.000936739
-0.00138479
0.00905941
0.00838047
-0.000835506
-0.00822116
-0.000170919
0.00816515
-2.8176e-05
8.84019e-05
-2.82668e-06
8.35478e-05
0.000280035
0.000291586
0.000187318
4.71484e-05
3.55998e-05
-6.43126e-05
-5.81894e-05
1.98766e-06
-7.47842e-05
-2.97989e-05
-1.25035e-05
0.000365656
0.000449074
0.000451061
-0.000194452
0.000537241
0.000538293
-0.000407915
0.0223018
-0.00132251
0.00134614
-0.0247522
0.000512505
0.000303028
0.00296345
0.000355552
0.000625266
0.00197929
-0.000155878
-3.13422e-05
-0.000151069
0.000570627
0.00526739
-0.000348894
-0.000226835
-0.000134399
0.000110862
-0.0143357
0.016467
-0.000592921
2.02164e-05
-0.000752006
-0.0017406
-0.00194723
-0.000361322
-0.00017715
0.00635621
-0.000195609
-0.000211988
-0.000401932
-7.55047e-05
-0.000246643
0.00564421
-0.000375399
-0.000176155
0.000579181
0.000464942
-1.07198e-05
-7.00894e-05
-4.72124e-05
-0.000137545
0.000112623
0.000476682
0.000608925