/*--------------------------------*- C++ -*----------------------------------*\
| =========                 |                                                 |
| \\      /  F ield         | OpenFOAM: The Open Source CFD Toolbox           |
|  \\    /   O peration     | Version:  2306                                  |
|   \\  /    A nd           | Website:  www.openfoam.com                      |
|    \\/     M anipulation  |                                                 |
\*---------------------------------------------------------------------------*/
FoamFile
{
    version     2.0;
    format      ascii;
    arch        "LSB;label=32;scalar=64";
    class       volScalarField;
    location    "2.5";
    object      gradTx;
}
// * * * * * * * * * * * * * * * * * * * * * * * * * * * * * * * * * * * * * //

dimensions      [0 -1 0 1 0 0 0];

internalField   nonuniform List<scalar> 
5322
(
-0.251645
0.00570609
0.00696843
0.000797212
-0.000128322
-0.000167564
8.24049e-06
0.000135303
8.30999e-05
-0.000204661
-0.00100712
0.0110091
0.0169585
-0.233565
-0.00618755
0.406487
-0.31941
-0.00504022
-0.243698
0.157078
-0.213563
0.185727
-0.196443
0.197478
-0.200024
0.1921
-0.192509
0.199657
-0.196673
0.196668
-0.186618
0.211934
-0.159219
0.242564
0.00342352
0.304335
0.21455
-0.0855722
0.240499
-0.0138142
-0.228098
0.229371
-0.0138874
-0.24404
0.242528
-0.00834126
-0.259383
0.226521
-0.00572149
-0.271855
-0.268196
-0.389503
-0.12165
0.261232
-0.0166506
-0.431375
-0.0122482
0.412278
-0.00494288
-0.411967
-0.00177401
0.401503
-0.00232062
-0.40465
-0.000150545
0.395347
0.00501377
-0.400739
0.0172407
0.328156
0.0130139
-0.350354
0.396962
-0.410858
0.395513
-0.402771
0.403559
-0.402713
0.458448
-0.33029
0.161854
-0.213775
-0.138224
0.240036
0.0249542
-0.136101
0.158968
-0.428001
-0.161567
0.510191
-0.0219301
0.00955753
0.0176335
0.079627
0.365977
-0.0851076
-0.010418
-0.0419742
0.163908
-0.379524
-0.379929
0.84907
-0.0412637
0.282282
0.459469
-0.00573978
0.00277031
0.00379244
0.00229889
0.00112518
0.000445341
-0.000122532
-0.00118233
-0.0028993
0.00455888
-0.00153744
-0.13421
-0.13242
0.0140157
0.0844
0.00479419
0.128765
-0.154019
-0.0115399
-0.0354723
0.238764
0.196408
0.0546208
0.153568
0.0992742
0.0754918
0.164877
0.0832468
0.089309
0.167747
0.0728793
0.140543
0.190684
0.216159
0.00928554
-0.158447
0.00873616
0.105546
-0.12787
-0.137187
0.0196094
0.056688
0.031192
-0.107365
-0.118002
0.0220772
0.0351514
0.0423645
-0.116444
-0.110484
0.0222603
0.0231093
0.0670757
-0.127805
0.166754
-0.359464
-0.481831
0.415256
-0.486274
-0.0203619
-0.334598
0.00268298
0.326193
-0.0783433
0.388782
0.192727
0.287388
-0.430683
0.168061
-0.371096
0.246873
0.321861
-0.393657
0.0088145
-0.334686
0.294557
0.366654
-0.389641
-0.0024314
-0.326572
0.310792
0.379695
-0.389134
-0.000779047
-0.324715
0.316287
0.384117
-0.39133
5.14842e-05
-0.326691
0.315754
0.384862
-0.396984
0.000433791
-0.332255
0.310601
0.382793
-0.405664
0.00101749
-0.339327
0.300613
0.377442
-0.412538
0.00242187
-0.341035
0.282284
0.3524
-0.0769497
0.156589
-0.376729
-0.384181
0.854291
-0.0293474
-0.0321579
0.0197289
0.0859452
0.363611
-0.0671913
-0.00669945
-0.0748967
0.149159
-0.383848
-0.377537
0.849398
-0.0497382
0.282359
-0.0107352
0.00466622
0.00455007
0.00292806
0.00152386
0.000660843
-4.12914e-06
-0.00109221
-0.0026341
0.00454952
-0.00140901
0.106649
-0.118377
0.117961
-0.107148
0.000215149
0.107263
-0.101374
-0.00056945
-0.127688
7.10733e-05
-0.107288
-8.28862e-05
0.101111
0.00397516
0.119252
-0.00973983
-0.128936
0.000421888
0.12751
-0.000131695
-2.13969e-05
0.225855
-0.388215
0.387748
-0.38351
0.403717
-0.413028
0.431932
-0.43061
0.437463
-0.435618
0.439399
-0.437533
0.441675
-0.438247
0.44471
-0.437201
0.446289
-0.428528
0.439657
-0.235563
0.00495134
0.237766
0.00640593
-0.428908
0.417068
0.00216191
-0.433511
0.427238
0.00146841
-0.432251
0.42868
0.000973626
-0.429584
0.427769
0.000676345
-0.427284
0.425748
0.000705395
-0.424596
0.421221
0.00113345
-0.417336
0.406401
0.00128901
-0.388195
0.000228764
0.388063
-0.406654
-0.00182753
-0.403118
0.382928
-0.000719611
-0.227782
-0.0148017
0.231694
-0.402046
0.38818
-0.408782
0.410624
-0.417983
0.417487
-0.419422
0.420482
-0.419906
0.424027
-0.419771
0.429412
-0.416514
0.434727
-0.401843
0.431394
-0.23213
-0.0498167
0.100964
0.0127419
-0.400401
0.360403
0.00505403
-0.394611
0.381448
0.00072595
-0.382707
0.38117
-0.0004686
-0.378132
0.378561
-0.000662337
-0.376898
0.377889
-0.00192463
-0.375851
0.378533
-0.00487822
-0.370736
0.373582
-0.0112651
-0.345125
0.316001
0.00681257
-0.114524
0.19491
0.320515
0.0102201
0.0398851
-0.0585945
0.163986
-0.505841
0.383806
-0.481284
-0.324081
-0.400705
0.0104026
0.26387
0.291846
-0.420186
0.162498
-0.377094
-0.0280226
0.0202039
-0.152645
0.0130595
-0.00616383
-0.161949
0.0165184
-0.0261496
-0.382603
-0.414954
0.299378
-0.388215
0.00499037
0.354181
-0.386075
0.372824
-0.38637
0.00274352
0.379694
-0.389214
0.380933
-0.395337
0.0147943
0.378188
-0.40259
0.370525
-0.403711
0.0833895
0.0195015
0.0125152
0.0131676
0.00633898
0.0155424
0.390903
-0.413115
0.00318954
-0.335074
0.276033
0.384829
-0.405198
0.00724403
-0.355757
0.247287
0.49422
-0.0581917
0.00931171
-0.411942
-0.380141
0.803919
-0.0498903
0.0133866
0.0225301
-0.24539
0.0561628
0.192995
-0.199748
0.0164197
0.207206
-0.187958
0.00260642
0.201759
-0.192921
-0.000353356
0.192983
-0.187286
-0.00499255
0.200897
-0.181173
-0.0122897
0.211884
-0.142563
-0.0205681
0.250501
0.0951209
0.0703497
-0.018499
-0.00963279
0.0986149
-0.0433608
0.444172
-0.474552
0.463712
-0.473489
-0.306543
-0.397498
-0.000936432
0.303421
0.382837
-0.397251
-0.00219514
-0.307805
0.00260176
0.000229734
0.00335512
-0.000321191
0.00660291
0.0254819
0.0235856
0.0428461
-0.0125105
0.00677774
0.17841
0.283482
0.236426
0.0799125
0.359457
0.143085
0.0670844
0.0200001
0.0128164
-0.00577555
-0.00366909
0.00369965
0.00600784
-0.0563987
-0.000868466
0.0650027
-0.0600192
0.469525
-0.475599
0.472273
-0.48484
-0.318013
-0.407211
0.00111553
0.300925
0.39255
-0.400683
0.00013427
-0.309621
0.00450892
0.00199557
0.000505671
0.000348231
0.000872869
0.00154231
0.00245099
0.00197484
0.00526776
0.00802567
0.0764647
-0.00133513
-0.000496953
-0.00245728
0.000421929
0.00101939
-0.0100974
0.0234356
-0.270213
-0.000675286
0.0037141
0.000175739
-0.00365789
0.413094
-6.99358e-05
-0.431747
0.417291
-0.421255
-0.00148219
0.431239
5.32875e-06
-0.437401
0.424905
-0.425448
-0.000616283
0.436667
0.000249395
-0.439182
0.428114
-0.426946
2.97652e-05
0.439155
0.000474403
-0.441275
0.431141
-0.427073
0.000646712
0.440723
0.000393797
-0.443981
0.434665
-0.424539
0.00155274
0.440091
-0.000844988
-0.444491
0.436205
-0.413833
0.00246404
0.428815
-0.00378052
-0.436049
0.429881
-0.235906
-0.000285733
0.234251
-0.0143677
-0.0298878
-0.0314122
-0.0327831
-0.410922
0.102543
0.0912762
-0.034987
-0.0721113
-0.0359659
-0.469415
0.0988831
-0.120053
-0.201234
-0.0737714
-0.0577328
-0.0604208
-0.025721
-0.0114937
0.00189562
-0.000461911
-0.00930982
-0.0116389
-0.0068239
-0.0132524
-0.0263071
0.00465471
0.209516
0.24567
0.240913
0.277573
0.343272
0.326814
0.255619
0.257302
0.167873
-0.149293
0.0481894
-0.0175177
-0.0122689
0.0437389
-0.130159
-0.000354924
-0.000204624
-0.000420601
3.31196e-05
-0.08222
-0.0936714
-0.0928329
-0.0832268
0.0825056
-0.0700376
0.00259982
0.09326
-0.0804759
-0.0808037
0.00257935
0.0929177
-5.22613e-06
1.5103e-05
4.12385e-05
4.60785e-05
-0.00245638
0.00329215
-0.00168398
-0.000926727
-0.00011709
0.000509788
0.00127203
0.00541653
0.00400588
0.00218511
0.0094697
-0.00265895
0.0567247
-0.080938
0.479496
-0.494806
0.492387
-0.010247
-0.144652
-0.0216243
0.0398474
-0.0042955
-0.00957677
-0.00504999
-0.027598
-0.0577718
-0.115214
-0.263284
-0.269172
-0.670829
-0.316704
-0.276935
-0.00942883
-0.109192
0.0858039
-0.542058
-0.323892
-0.151485
0.245565
0.0197828
0.012828
-0.256797
0.271778
0.00159765
-0.0321438
-0.282133
0.273092
0.000475808
-0.0358426
-0.275336
0.272184
0.00234251
-0.058753
-0.262713
0.194067
-0.154598
0.126613
0.0959777
0.283387
-0.133159
-0.0770768
0.042107
0.170633
-0.558342
-0.0311005
-0.326921
0.284782
0.262314
0.250368
0.314311
0.152027
0.0345555
0.12146
0.183691
0.303568
-0.141484
0.0291737
0.225311
-0.194047
0.000217926
0.197233
-0.200028
-0.00251052
0.19142
-0.195619
-0.00147051
0.190286
-0.193597
-0.00128987
0.189724
-0.194871
-0.0027259
0.183352
-0.205746
-0.0162271
0.155697
-0.238269
-0.0887398
-0.00384685
-0.320964
-0.198721
0.115948
-0.316222
0.349858
-0.371293
0.010426
-0.389105
0.40141
-0.00609764
-0.231459
0.0147826
0.228126
-0.225668
0.000800634
0.00133424
0.000391778
0.000314918
0.000485489
0.00044989
0.000145555
0.000324739
0.000867717
0.00128141
0.00384377
0.000569785
0.0615983
-0.064778
-0.0018743
-0.000468992
0.00261862
0.000266658
0.303352
0.390736
0.00254931
-0.323695
0.31654
0.000179526
-0.325914
0.31512
0.000567309
-0.33257
0.309145
0.0011788
-0.342629
0.298307
0.00241612
-0.349542
-0.0154239
-0.012328
-0.0662407
-0.0658251
-0.106427
-0.051619
-0.0252526
-0.0112916
-0.00753738
-0.0150377
-0.0278751
0.001809
0.204393
0.237503
0.230614
0.327384
0.195958
0.00219266
-0.0222036
-0.0116114
-0.00598008
-0.00942926
-0.022161
-0.0477358
-0.0990131
-0.232805
-0.24783
-0.441255
-0.332117
-0.104594
-0.105371
0.224651
0.0263438
-0.0275561
-0.0219081
0.111253
0.00460501
-0.0886268
-0.0848211
0.0878972
-5.50722e-05
-0.0980242
-0.0938194
0.0769117
-0.000400584
-0.121862
-0.116274
0.0372044
-0.154114
0.098013
0.0950186
0.0994531
0.0864834
-0.135291
0.00948051
0.0501366
-0.153246
0.0367988
-0.148032
0.173981
-0.402797
-0.0216592
-0.387596
0.263105
0.270959
0.27135
0.266288
0.261465
0.26473
-0.419317
-0.0253874
-0.378278
0.27126
0.290472
0.272437
0.286719
-0.0214087
-0.403352
-0.400811
0.174388
0.272352
0.240461
0.238117
0.296456
0.283855
0.2276
0.0692842
0.151434
0.0616839
-0.0327818
0.0760385
0.0116223
-0.0554602
0.057695
0.00249559
-0.057275
0.0568529
0.000339899
-0.0584278
0.0561537
-0.000171206
-0.0567085
0.0579139
-0.000778022
-0.0582286
0.0561159
-0.00386057
-0.0610035
0.0532438
-0.0142316
-0.0812315
0.0311292
-0.0646417
-0.156971
-0.0749249
-0.233043
-0.280793
-0.286581
-0.19299
-0.141858
-0.218102
-0.00918706
0.159488
-0.120499
0.0117121
0.13221
-0.131855
0.00556633
0.137793
-0.141324
-0.00467634
-0.0095
-0.245073
-0.000783277
-0.397437
0.000466716
-0.393819
0.00210985
0.41202
-0.418212
0.000497158
-0.414909
0.00485253
0.42107
-0.381759
6.57258e-05
0.382301
0.00199699
-0.381783
7.13846e-05
0.382206
0.00131286
-0.381874
0.000102981
0.381913
-0.000686185
-0.382035
0.000185485
0.381775
-0.00103331
-0.38211
0.000537324
0.381948
-0.00571553
-0.378232
0.00274985
0.378307
-0.00769561
-0.00841648
-0.471822
-0.341028
0.00780269
0.439813
-0.00286066
-0.467361
-0.324229
0.00644106
0.457229
-0.000919052
-0.465228
-0.319661
0.00241103
0.461837
-0.000677273
-0.464351
-0.317282
0.000154276
0.464624
0.000670667
-0.461979
-0.315787
-0.00197871
0.465966
0.000794701
-0.457749
-0.313093
-0.00552378
0.469464
0.00305317
-0.439717
-0.305339
-0.00584972
0.477178
0.0106998
-0.382368
-0.270305
0.0250866
0.503425
0.060808
-0.0435402
0.116364
-0.19928
-0.322213
-0.00326896
-0.0901687
0.00140269
0.276269
-0.0228091
0.00387259
-0.232815
0.00104008
0.398437
-0.38952
-0.0024397
-0.392222
0.0109332
-0.376363
-0.000735663
0.378478
0.00848959
0.00308366
0.000784058
0.00451925
0.409886
0.00281489
-0.00350307
-0.101887
-0.000283733
0.110124
-0.000152196
0.000361567
0.000496643
-0.0175429
-0.0202767
-0.0145346
-0.158839
0.0159824
-0.0260323
0.00244479
0.00279237
0.004941
0.360526
0.297536
0.00171546
-0.00327382
-0.0135383
-0.0161919
0.264175
0.00971311
-0.336482
0.301351
-0.00223004
-0.326083
0.313019
-0.000706459
-0.000712193
0.00114714
0.00416325
0.00129668
0.0027563
0.00571222
0.00271943
0.00139037
0.0011813
0.00460449
0.000363275
0.00100535
0.00247264
-0.333546
0.293476
0.465381
-0.480569
0.473658
-0.47903
-0.00116409
-0.37746
-0.00363062
0.38088
-0.00471358
-0.374777
-0.0120388
0.392812
0.0234759
0.0294132
-0.267901
-0.00091165
0.287647
-0.301777
-0.000698076
-0.497148
-0.000949917
0.495269
-0.434309
-0.000195921
-0.439563
0.000122066
0.439382
-0.434284
-5.56311e-05
-0.431353
-5.62862e-05
0.431313
-0.44369
-0.000225253
-0.422253
-0.00134168
0.421257
-0.420324
-0.00377378
0.41646
-0.410356
-0.00777249
-0.00984749
-0.00227783
-0.000986319
-0.000135507
0.000149286
0.000442278
0.00129382
0.00267346
-0.00462736
0.00121425
-0.106757
0.118588
-0.117224
-0.109674
0.00109775
0.000658609
-0.00228158
0.00642324
0.104008
0.000946117
-0.0012386
-0.00968317
0.0126784
-0.0111067
-0.155575
0.0152019
-0.0329735
0.23323
0.0112709
-0.01117
-0.00943077
0.00620267
9.04596e-05
0.0797598
0.0808151
-0.00243743
0.0689378
0.106641
-0.00184239
-0.00232332
-0.00239558
-0.000823654
0.00825084
-0.123989
0.31719
0.0184808
-0.473336
-0.00302695
0.479212
-0.420503
-0.00210391
-0.433976
-0.000215398
-0.428268
-0.000176889
-0.429581
0.000941253
0.430355
-0.441487
0.000188178
-0.422321
0.000625986
0.422753
-0.422483
-0.000404844
0.422521
-0.000271924
9.04371e-05
0.000459138
0.00116291
0.00189923
0.00252138
0.000136133
-7.58116e-05
-0.00256346
-0.00244508
-0.00922351
-0.0116085
-0.00243396
-0.00250148
4.0101e-05
5.29174e-05
0.000309296
0.000129547
0.000331338
0.000262008
0.000337743
0.000405465
0.000382194
0.000260158
0.00155942
0.00190163
0.00250461
0.00909056
-0.000496264
0.0642077
-0.330306
-0.0835619
-0.000115307
-0.0312228
0.141856
-0.144771
-0.470891
-0.170441
-0.00274349
0.0411908
-0.000218545
-0.333589
-0.14136
-0.093479
0.213472
0.0257664
-0.0235901
-0.0413731
0.120413
0.0043826
-0.082382
-0.102558
0.103049
0.000229199
-0.0910862
-0.108096
0.0955593
0.000561965
-0.117113
-0.122513
0.0257615
-0.00707746
0.00114305
0.00145572
0.412242
-0.372769
0.00250434
0.385959
-0.0140351
0.0103491
-0.487669
0.00177581
-0.302785
0.310453
-0.00263022
-0.294763
-0.513349
0.444122
-0.0278738
0.0449632
0.166891
0.00175969
0.359091
0.266818
0.30039
-0.399019
0.00467566
-0.338032
0.0106652
-0.374276
0.00803715
-0.3586
0.0105533
-0.360378
0.00907868
-0.384582
0.280072
0.273839
-0.0192768
-0.482156
-0.387678
0.171189
-0.119077
0.149367
0.0838924
0.0996906
-0.146362
0.0412523
0.0312987
-0.157941
0.0623492
0.114339
-0.13698
0.214624
-0.114993
0.0179017
-0.127219
0.022162
-0.138762
-0.108742
0.0212923
-0.00880058
-0.00201541
-0.00138264
-0.000301478
0.000318291
0.000388514
0.000524112
0.00127007
0.00261369
-0.0046841
0.00131501
-0.0697866
0.0823973
0.000600522
0.016625
0.0119299
0.00961239
-0.119937
-0.00879866
0.128168
-0.105507
-0.0577614
0.130014
-0.141641
-0.193541
-0.218444
0.154039
0.159059
-0.00953202
-0.0134058
-0.0434312
0.00505178
0.163064
-0.0296513
-0.0381973
-0.0215385
0.116724
0.116807
-0.0383735
-0.0293795
0.150062
-0.0823924
-0.174448
-0.0828253
0.160642
-0.0161025
-0.0170822
-0.020871
-0.00554086
0.00172306
0.275867
-0.0232826
0.0106121
-0.000449688
0.00035179
0.000573852
0.000355584
-4.49783e-05
-0.000705138
-0.00177409
-0.000244648
-0.00126215
0.000331654
-0.0112364
-0.00419095
0.00612661
-0.0157822
-0.00758832
-0.00749464
-0.209475
0.201303
-0.00575947
-0.00471685
0.00980507
-0.004839
-0.00448437
0.0340675
0.0709892
0.0363125
0.253224
-0.127499
0.0163051
0.132964
0.16791
-0.0666595
0.0066458
-0.00242473
0.0110269
-0.00269431
0.00127968
-0.0192155
-0.00381675
0.000134358
-3.86598e-06
-0.000522258
-0.00120656
-0.000828456
-0.0020881
0.00147947
0.00282022
0.000611897
-0.00531227
-0.00112351
-0.000246326
-0.000217068
-0.000386317
0.000548246
0.00755417
0.00234775
0.00387539
0.00221958
0.000844199
2.07379e-05
0.000764242
0.000807475
0.00170404
0.00298792
-0.411138
0.37387
-0.376167
0.376988
-0.376524
0.00192941
-0.416959
0.416978
0.00444851
0.00294188
0.00181902
0.000806786
0.407941
0.00246482
-0.00379453
0.129113
-0.00278252
0.00241186
0.011581
-0.0190313
0.136644
0.107303
-0.0474531
0.018874
-0.000402173
-0.000170663
0.0700487
-0.00241143
-0.000142724
0.049425
-0.149524
0.0433543
0.000520372
0.0173631
0.0127034
0.00135191
-0.0132629
0.00537699
0.011681
-0.0475527
-0.0436694
0.137113
-0.0578977
-0.105401
-0.0191982
0.129474
-0.00862655
0.0116658
0.00932257
-0.00649216
-0.00035254
0.0025505
0.00932258
-0.00368649
-0.00407822
-0.00108815
-0.000637301
-0.000187199
0.00117726
0.000750101
0.000635841
0.000426147
0.418897
-0.419098
0.377153
-0.377472
0.377767
-0.379256
0.00182754
-0.421165
0.419818
0.00136331
0.0005623
3.20984e-05
-0.000370853
0.000541506
-0.0010739
0.000551881
0.000243143
0.000440221
0.00033881
0.000647132
0.000218962
0.000681418
0.0020105
0.0112631
0.0102045
0.0366491
0.00173602
0.00073855
0.00013639
-0.000764044
-0.00272835
-0.00113854
-0.00114324
0.000127305
-0.000264675
-0.000208669
0.000243777
0.000270253
0.000260901
1.36751e-05
-0.00110348
-0.00292724
-0.00306327
-0.00119231
1.55399e-05
0.000110583
0.000195911
0.000302053
0.000414273
0.000732659
0.000629387
0.00058731
0.00130344
0.00110944
0.000607298
0.00176802
0.00339058
0.00138813
0.00205455
0.0491184
-0.010028
0.00442032
0.00143474
0.0053718
0.108582
-0.00505701
-0.0156826
0.0776778
0.0232993
-0.333738
-0.11609
-0.254164
0.227762
-0.155044
-0.166009
0.20388
-0.270246
-0.0145467
-0.0197826
-0.224617
0.197796
-0.003152
-0.0110368
-0.00114015
0.00404321
0.00566221
0.0826933
0.0258011
-0.153419
-0.131822
0.250471
0.0249586
-0.0592432
-0.0171915
0.103459
0.00338059
-0.118198
-0.0766281
0.0778118
-0.000280575
-0.12375
-0.0850484
0.0676077
-0.00112367
0.107765
0.103658
0.00619958
0.129556
-0.125958
0.000481531
-0.113832
-0.000635094
-0.00262367
-0.000447366
-3.8659e-05
0.000177481
0.000196959
0.000171965
0.000138518
4.07823e-05
-0.00105245
-0.00286697
-0.00151475
-0.325596
0.311203
-0.000689305
-0.323996
0.3166
0.475417
-0.480234
0.475939
-0.485584
0.000281846
-0.382411
0.00258051
0.378552
-0.000363137
-0.378577
-0.000216175
0.378712
0.00205793
0.00230287
-0.278755
0.000793995
0.282832
-0.304556
0.000445019
-0.49656
0.000436596
0.498774
-0.434931
-0.000157421
-0.437885
0.000460078
-0.433186
-0.000691918
-0.426779
-0.0013175
0.422712
-0.438569
0.000108411
0.420128
-0.00118544
-0.413532
0.412529
-0.00122115
-0.42752
0.432094
-0.417635
-0.000151044
0.000426906
0.0018693
0.00157067
0.000809733
0.000268894
-0.000222272
-0.00108777
-0.00118829
-0.00016726
0.000850106
0.00211385
0.00216013
0.00467176
-0.325743
0.316399
0.000939313
-0.330805
0.312136
0.475627
-0.49628
0.472834
-0.505427
0.0127803
-0.432479
0.0398992
0.376684
0.0024475
-0.396555
0.0114283
0.37994
0.000726525
0.00710214
-0.275504
0.00571365
0.293756
-0.311142
0.00154379
-0.492366
0.0027361
0.497586
-0.426078
-0.0016933
0.416969
0.00380032
-0.471497
0.275271
-0.0011133
-0.317672
0.282216
-0.295581
0.0154482
-0.0361025
-0.0180103
-0.0312928
-0.0558651
0.351201
-0.498135
0.107928
-0.0795559
-0.030891
-0.0117437
-0.00431531
-0.00252874
-0.00413776
-0.00108329
0.066461
0.685415
0.343653
-0.178421
0.120293
0.0615133
0.391171
-0.339289
0.368571
-0.0219514
-0.240453
0.0116645
0.434998
-0.411299
-0.00109937
-0.408199
-0.000105155
-0.412797
-0.000257602
-0.422567
0.0018336
0.426336
-0.43639
0.000423459
-0.420809
0.0017235
0.422672
0.00162641
0.00110287
0.443463
0.00247254
0.438409
-0.000344406
-0.0028028
-0.00528142
-0.0179498
0.00285753
0.24048
0.0167168
0.0209072
0.0828795
0.145653
-0.201411
-0.000568592
-0.298788
0.00103044
-0.494731
-0.00228735
0.491722
-0.431613
-0.000808255
-0.438862
-4.45584e-05
-0.432813
-3.97124e-05
-0.43121
0.000363227
0.431493
-0.443158
-3.91324e-06
0.443348
-6.64316e-05
0.000406352
0.443924
-2.92133e-05
-0.000172722
-0.000866428
-0.00229804
0.427614
-0.00455026
0.403478
0.0241152
0.0123548
0.304372
0.0120744
0.00717606
-0.000530203
0.309227
0.00118582
0.00486705
-0.278136
-0.000361059
-0.303529
-0.000161887
-0.496865
-0.00019661
0.497005
-0.435121
-2.13148e-05
-0.439297
0.000276356
-0.434395
-0.000274902
-0.430353
-0.000577029
0.429581
-0.443294
-0.000446111
0.43689
-0.000944344
-0.000407847
3.57431e-06
0.000144042
0.000232532
0.000429865
0.00125847
0.00235907
0.00127522
0.00125571
0.000626426
0.00110585
-0.00157592
-0.000614883
0.000140101
0.000446678
0.000523763
0.000475911
0.00033795
0.000550941
0.00104846
0.00312031
0.00265114
-0.330272
-0.00859331
-0.323531
0.359383
-0.00739568
-0.340966
-0.348719
0.366337
0.342516
-0.0072592
-0.325481
-0.371729
0.389271
-0.349876
-0.00888234
-0.31298
0.352302
0.370555
0.365148
0.357147
-0.00815038
-0.344518
-0.319931
0.00268247
0.348942
-0.00674637
-0.365559
-0.333389
0.00120928
0.344857
-0.00247709
-0.373841
-0.3393
-0.348633
-0.356774
-0.00281923
0.355865
0.363397
0.00125794
0.337925
-0.00275329
-0.331081
-0.380367
0.386825
0.00116363
-0.305468
-0.458879
-0.0062867
0.317049
0.00215555
-0.2982
-0.441271
-0.00714634
0.334532
0.394009
-0.283368
0.0228293
-0.275464
-0.00972427
-0.279197
0.0225033
-0.274627
-0.00967647
-0.280288
0.0236353
-0.279814
0.389256
0.338628
-0.0105709
0.0152834
-0.00139949
-0.208933
-0.250456
-0.237158
-0.262929
-0.250353
-0.252343
-0.259233
-0.212859
-0.329418
-0.260473
-0.238068
-0.249727
-0.168713
-0.0728866
-0.0904725
0.149741
-0.167468
0.394034
0.398402
0.395335
0.397011
0.411503
0.38679
-0.162245
0.130804
-0.0725903
-0.168871
-0.0909232
0.163205
-0.0169048
-0.00348455
-0.00348796
-0.00163123
-0.000732861
0.000394798
0.00039933
0.36083
-3.79278e-05
-0.352049
-0.360502
-0.33348
-0.384268
-0.00027278
0.335461
0.384821
0.000487338
-0.308036
-0.464501
-0.00229664
0.312793
0.467787
0.00154816
0.0608867
-0.059735
-0.000679306
0.0607104
-0.0600554
-7.54789e-05
0.0614884
-0.059509
0.00218325
0.068085
-0.0536067
0.0128283
0.0952018
0.0339014
0.018895
0.00627707
0.00290212
0.000483952
-8.82697e-05
-0.000467354
-4.90511e-05
-0.00124928
-0.000928697
-0.00278538
-0.0618041
0.470315
0.0031394
0.0580687
-0.0805735
-0.0126646
-0.02193
-0.00858534
-0.052724
0.0364433
0.0109221
-0.383849
0.0237272
-0.264984
-0.0107761
0.0157768
0.000671837
-0.168134
-0.286394
-0.278716
-0.233249
-0.0736439
-0.157289
-0.063464
-0.125487
-0.3567
0.0608771
0.503351
0.38435
0.414016
-0.161834
-0.344612
-0.207972
-0.000537735
0.0349635
0.0228193
0.0130496
0.00494174
0.00159652
-0.000185857
-0.308925
-0.46846
0.466586
0.311458
0.000351837
0.00192062
0.00576662
0.0063294
0.0196621
0.00718502
0.00127485
-0.000252048
0.000107471
0.382206
0.00163238
-0.334471
-0.387289
-0.307847
-0.474955
0.00102319
0.312045
0.466213
0.00240964
0.00153784
0.00164489
0.00113552
0.00174759
0.00303208
-0.424278
0.380118
-0.380509
-0.00590239
0.00247875
0.00119048
-0.00264665
0.00061548
0.00018094
0.420509
0.000610065
0.000409319
0.419756
0.00266985
0.000255893
0.000812933
0.00150146
-0.00090222
-1.66135e-05
0.00048821
8.79595e-05
0.00031089
0.000147625
3.8337e-05
0.000373581
0.00137605
0.000608048
0.000129467
5.27882e-05
-0.000787467
-0.000250717
-0.000263766
-0.000864223
-7.33706e-05
0.000177398
0.000164067
-0.000456531
-0.000356976
-0.00021098
-0.000179226
-0.00373318
-0.00385421
-0.017008
-0.00650411
0.372307
-0.00244293
0.000211285
0.000124148
-0.00173224
-0.00185633
-0.00104052
-0.00701951
-0.00640244
-0.00484888
-0.000973568
-0.3371
0.303252
0.0046277
-0.334715
-0.0137947
-0.0136936
-0.0652016
-0.0831865
-0.304262
-0.306525
-0.491593
0.123216
0.0468948
0.254664
-0.0896456
0.132032
-0.0148178
-0.150824
0.135739
-0.0033958
0.105906
-0.0034549
0.127664
-0.140899
-0.011902
-0.00374835
-0.0046214
0.00203075
-0.0170387
0.11341
-0.00567119
0.00419542
0.00423886
0.00271686
0.00153638
0.000662339
0.000565287
0.00603985
0.00519686
0.0129819
0.0112081
0.0320415
0.0066305
0.00299869
0.0010116
0.303999
-0.306549
0.00112276
-0.496024
0.0013653
0.50097
-0.433093
-0.000639344
-0.433377
0.000458469
0.428349
-0.00028176
1.42815e-05
0.000310677
0.000434649
0.00110683
0.0023312
0.00139541
0.000869766
0.000481397
0.000185708
9.14302e-05
0.000142731
0.000166447
0.00015573
0.426615
5.61782e-06
0.432269
3.09897e-05
0.414711
0.398182
0.00161229
0.396651
0.239228
0.00630551
0.00137114
-0.000160027
7.88477e-05
-0.000841325
0.433718
0.00151205
-0.00103436
0.282228
0.000175427
0.000534998
-0.000300065
0.304459
0.00106678
0.0035125
-0.277607
0.00277018
0.287112
0.000166785
0.0021542
0.000970027
0.000642685
-8.25248e-05
0.435292
0.000157571
0.434692
-5.06478e-06
0.000642318
0.435759
0.000294186
0.439771
-0.000138979
0.00182908
0.435508
-0.00155029
0.303257
-0.000369076
0.00606821
-0.278676
0.0095645
0.298632
-0.00966739
-0.000325412
-0.0106901
-0.0360621
-0.0844392
0.00315288
-0.0122751
-0.00531446
0.00406567
0.00367626
0.432682
-0.000647126
-0.00138398
-0.00135385
-0.000284115
-0.00485989
-0.000239294
0.000664809
0.00051042
0.438694
0.433112
-0.000331082
-6.73687e-05
-0.00087816
-0.00168417
-0.00186547
-0.00799977
-0.00299838
-0.00311302
-0.00165449
-0.000634333
0.441644
-0.00125552
-0.000216459
0.000395171
-0.000295288
-0.00154752
-0.00551725
-0.0166661
-0.00399849
9.22463e-05
0.000399498
0.00180722
-0.00211017
0.00244084
0.00420857
-0.00734252
0.0324437
0.0671871
-0.0488603
0.348515
-0.0017011
-0.0232977
-0.0341555
-0.0189872
-0.00657316
-5.04062e-05
0.00646327
0.0188042
0.0338948
0.0364654
0.000658419
0.0179214
0.0177616
-0.329483
-0.167612
-0.345048
-0.169341
-0.000474142
0.0212715
0.0054175
0.00227273
0.322609
0.38336
-0.00144584
0.00312212
0.00128065
0.00254828
0.00139623
0.00302312
-0.00388409
-0.0206659
0.15394
0.352957
0.0147606
-0.000491452
0.00100482
0.0010328
0.000520265
0.000603362
0.000257802
0.000259769
0.000331729
-0.000577069
0.000121425
8.86542e-05
0.000873362
-0.000407931
-0.000668932
-0.363525
0.00257046
-0.354063
0.341403
0.00686569
-0.355713
-0.367689
0.350797
0.328366
0.0045842
-0.33498
-0.391563
0.375402
-0.000693046
0.313875
0.463822
0.00517635
-0.00106881
-0.00125387
0.000986167
0.00170144
0.00445228
0.0772568
0.122269
0.187105
0.442385
0.0286932
0.22891
0.33891
-0.0156158
-0.00427089
-0.0113026
-0.00308768
-0.00157453
-0.000216088
0.333358
0.357604
0.349486
0.33935
0.00275638
-0.37935
-0.345378
-0.000883759
0.334094
0.00725602
-0.381212
-0.350536
-0.0022189
0.322419
0.343632
0.305879
-0.00155088
-0.00242541
-0.0027013
-0.000818955
0.000258952
0.00166409
0.000322216
0.000266067
-0.000815939
-0.000347099
-0.00312165
0.0294805
-0.00323377
-0.0020344
-0.00492267
-0.00389718
-0.00241358
-0.00411129
-0.00175831
0.0843279
-0.00200258
0.00187904
0.00025551
-9.68898e-06
0.00510811
0.00447308
-0.031577
0.181412
-0.0788326
-0.306281
-0.387932
0.0290637
-0.177553
0.0737502
0.0233437
-0.1094
-0.117635
-0.0128401
-0.0194242
0.12909
0.118308
-0.011103
-0.115081
-0.00198927
0.115587
-0.000586775
0.00150473
-0.000115307
0.00134694
0.00329596
0.00342978
0.0023594
0.000688492
0.000547331
-0.00133313
-0.00115183
-0.000184704
-0.000685639
-8.93659e-06
-0.000147546
0.000831379
0.0018094
0.0016864
-0.00235046
0.00307042
0.00657631
-0.0123403
0.385907
-0.0253309
0.018432
-0.429493
0.0052982
0.00468793
0.0350531
0.00405475
0.00860755
0.0263145
-0.00193533
-0.000739943
-0.00260058
0.0067996
0.0741827
-0.00480234
-0.00276286
-0.00141152
0.00190044
-0.188151
0.218175
-0.006505
0.00140996
-0.00892896
-0.0224225
-0.0253673
-0.00471535
-0.00223586
0.0904832
-0.00230517
-0.00281477
-0.00530945
-0.000882181
-0.00310358
0.0797408
-0.00520269
-0.00298906
0.00680765
0.00519485
-0.00119432
-0.00133188
-0.000868455
-0.00220228
0.00203508
0.00553422
0.00439473
0.0035456
-0.00874672
0.0173141
0.0173921
0.0200932
0.0268057
0.385871
0.0525875
0.00820829
-0.0130898
-0.00469995
-0.00028151
0.00391416
0.0117209
0.00179432
0.3803
0.319004
0.00116324
-7.77744e-05
0.000356142
0.00036676
0.316933
0.377755
0.000116469
-0.377344
-0.342327
0.342169
0.000354678
0.353067
0.000370792
0.00759977
0.0212079
0.00214835
0.00208065
0.00617095
0.000401467
0.000485433
-0.00616555
-0.0187291
-0.00523195
0.313998
0.335205
0.322307
-0.00589816
-0.00192331
-0.000304174
-8.33423e-05
-0.000285066
0.373985
0.315417
-0.00012499
0.000365954
0.000108699
-0.000729704
-0.000825275
0.312807
0.365297
-0.00178105
0.00106593
8.05158e-05
-0.000434776
-0.00187645
-0.0104522
-0.0553485
-0.35792
-0.129137
-0.025255
-0.00344066
-0.000509029
0.000287372
-0.00030749
-0.000643636
0.000774746
-0.00522139
-0.0135742
0.0127489
-0.0166279
-0.0333189
-0.0224219
0.012544
0.230078
0.33096
-0.0160809
0.002739
0.220118
0.332755
0.00187747
0.209565
0.34606
0.165064
0.00103714
-0.00192722
0.356146
-0.00212999
0.0201617
0.12147
0.0209672
0.0448132
0.0474794
0.0450988
0.0597209
0.0376747
-0.000990211
-0.00491321
0.0459123
-0.0215962
-0.0100367
-0.00778932
0.0490556
0.00476893
0.0338912
0.0296936
0.207441
0.1751
0.194425
0.185628
0.190171
0.041128
0.00667434
-0.000795743
-0.00697695
-0.0839428
-0.283831
-0.267948
3.18026e-05
0.0114482
0.171218
0.000112056
0.434601
0.00326852
0.000578274
0.000186323
-0.000650264
-0.0110046
0.00182409
0.305683
0.437589
0.433294
-0.000219877
-0.010767
-0.427813
0.00120565
0.00152725
0.00141622
-0.0444531
0.47781
0.0127081
0.00676671
0.00226439
0.00587591
0.0949511
0.00334169
0.21479
-0.25437
-0.0316039
-0.449415
-0.000211012
-0.0215031
0.107544
0.000720944
-0.455766
0.412114
0.00560566
0.232996
0.0153726
0.0889748
0.216988
0.0347759
0.0370374
0.00177429
0.00151746
-0.00174052
0.29339
0.0132956
-0.0185532
-0.0262899
-0.00842043
0.00215052
0.000459754
0.000197199
0.000351023
0.000411816
0.000130779
-0.000970088
-0.00151914
-0.0135968
-0.00688681
0.243843
0.0197218
-0.408807
0.445405
0.0269961
0.321918
0.00204052
-0.298149
0.308605
0.0302535
-0.270686
0.293204
0.00584982
-0.2823
0.288459
0.0036544
-0.284857
0.288343
0.0026152
-0.28658
0.288266
-0.000617649
-0.289907
0.285109
-0.00722227
-0.29677
0.272601
-0.0335843
-0.31215
0.203527
-0.148561
-0.395205
-0.120379
-0.3706
0.0231424
0.242196
-0.244057
0.0139023
0.253201
-0.25053
0.00520407
0.254336
-0.261494
-0.00294849
0.253545
-0.260369
-0.0215293
0.244814
0.257027
0.396217
0.100259
-0.286002
0.00373508
0.420425
-0.000773324
-0.428419
-0.00190602
0.410778
-0.00251024
-0.414806
-7.12417e-05
0.412386
0.000429572
-0.406202
0.00130555
0.418071
-0.0123484
-0.439371
-0.0190805
0.342783
-0.0608741
0.0787763
0.178701
-0.327122
0.333186
-0.396103
0.373032
-0.385171
0.378987
-0.379387
0.380665
-0.376427
0.38193
-0.374642
0.380443
-0.376621
0.381753
-0.374351
0.391722
-0.332684
0.321733
-0.158582
0.31352
0.394282
0.196234
0.290879
0.212015