/*--------------------------------*- C++ -*----------------------------------*\
| =========                 |                                                 |
| \\      /  F ield         | OpenFOAM: The Open Source CFD Toolbox           |
|  \\    /   O peration     | Version:  2306                                  |
|   \\  /    A nd           | Website:  www.openfoam.com                      |
|    \\/     M anipulation  |                                                 |
\*---------------------------------------------------------------------------*/
FoamFile
{
    version     2.0;
    format      ascii;
    arch        "LSB;label=32;scalar=64";
    class       volVectorField;
    location    "0.1";
    object      flux;
}
// * * * * * * * * * * * * * * * * * * * * * * * * * * * * * * * * * * * * * //

dimensions      [0 1 -1 1 0 0 0];

internalField   nonuniform List<vector> 
5712
(
(-0.607006 0.763742 0.999414)
(-0.899026 0.425933 3.09088)
(-1.27975 1.08791 0.829817)
(-2.27093 0.778701 2.96841)
(-1.95577 1.1495 0.622117)
(-3.8995 0.951159 2.77608)
(-1.36374 1.55775 0.734063)
(-3.89402 2.51859 3.49297)
(-1.09261 2.1797 0.82935)
(-2.63129 3.33827 4.63336)
(-1.62628 1.51431 0.928828)
(-2.85157 1.5217 3.8792)
(-1.38052 0.951283 0.995715)
(-2.21874 0.888631 3.56713)
(-0.639116 0.533405 1.06507)
(-0.872983 0.376826 3.44517)
(-1.28921 0.906346 0.618301)
(-1.25045 0.72541 0.341215)
(-1.8999 0.860444 1.54681)
(-1.68062 0.842232 0.853648)
(-1.08057 1.07504 0.539425)
(-1.00899 0.700119 0.235576)
(-1.87422 1.64552 1.42853)
(-1.40662 0.918809 0.635756)
(-0.576272 0.603745 0.881573)
(-0.497902 0.654117 0.743258)
(-0.845141 0.343904 2.67859)
(-0.666562 0.386851 2.21378)
(-1.30345 0.586161 0.684185)
(-1.14629 0.727275 0.594721)
(-2.63197 0.366518 2.43006)
(-2.1757 0.455379 2.06742)
(-1.68335 1.42268 1.35492)
(-1.48048 1.24404 0.613678)
(-1.95173 1.11404 1.0404)
(-1.61123 0.684973 0.459543)
(-0.706073 1.00566 0.63262)
(-0.716762 0.822752 1.36267)
(-3.82931 0.536921 3.48445)
(-4.96713 0.682359 0.924277)
(-2.41875 0.79203 1.28107)
(-2.98764 0.830919 0.436086)
(-4.40296 2.46525 3.81324)
(-5.64534 2.58096 1.02584)
(-2.15956 1.2176 1.02837)
(-2.54588 1.34445 0.357256)
(-3.21933 1.37644 2.92276)
(-4.43112 1.10921 0.902338)
(-2.85934 1.07421 1.42411)
(-3.74915 0.586068 0.527632)
(-2.09379 0.53288 2.92212)
(-3.04343 0.590359 0.900117)
(-0.383361 1.08312 1.07699)
(-0.132115 1.72263 0.534417)
(-0.491518 0.552744 1.68425)
(-0.187444 0.778396 0.678457)
(-1.11814 1.28556 1.08205)
(-0.500611 2.10369 0.588011)
(-1.84791 0.76781 1.53382)
(-0.736276 1.07486 0.612897)
(-0.942973 1.15942 1.13404)
(-0.406644 2.55678 0.703896)
(-1.18157 0.809989 1.14566)
(-0.41112 1.7732 0.530562)
(-2.16482 0.245814 1.74652)
(-0.759848 1.02867 0.686471)
(-2.82303 0.182737 0.607878)
(-1.05369 0.737184 0.235937)
(-1.30397 0.511803 0.763331)
(-0.663508 0.54946 0.434784)
(-1.45768 0.594491 0.58177)
(-0.769666 0.594717 0.30579)
(-0.908432 0.447606 0.559912)
(-0.527726 0.342868 0.34844)
(-1.02239 0.561643 0.412081)
(-0.589893 0.365674 0.217488)
(-1.54556 0.796421 0.724938)
(-0.894233 1.09549 0.420398)
(-1.36368 0.787405 0.895027)
(-0.748401 1.00426 0.547233)
(-1.73419 0.598587 0.41606)
(-0.882464 0.61708 0.223623)
(-1.84732 0.599651 0.203756)
(-0.905558 0.620502 0.140024)
(-1.28794 0.641999 0.293436)
(-0.670017 0.377256 0.162571)
(-1.39021 0.664764 0.139791)
(-0.679554 0.375214 0.106192)
(-1.82747 0.697856 0.521658)
(-1.03267 1.13793 0.287569)
(-1.95929 0.647929 0.267686)
(-1.07973 1.14852 0.156309)
(-1.93058 1.78869 0.803339)
(-1.06948 2.95566 0.517794)
(-1.068 2.09382 0.627763)
(-1.83006 4.31899 1.02283)
(-1.73969 1.83083 0.983663)
(-1.12522 3.36353 0.89399)
(-0.913588 2.00298 0.85731)
(-1.80703 4.68606 1.6673)
(-2.2083 1.71255 0.565579)
(-1.10075 2.59851 0.308627)
(-1.2089 2.13157 0.383539)
(-1.86264 4.15203 0.596794)
(-2.39185 1.69249 0.287222)
(-1.14453 2.40562 0.140865)
(-1.30193 2.16416 0.170469)
(-1.91857 4.12597 0.219302)
(-0.437766 0.950181 1.18321)
(-0.426003 1.12868 1.96798)
(-0.152578 2.46282 0.84457)
(-0.32562 3.93656 2.4963)
(-1.23095 1.05386 1.27181)
(-1.17215 1.09687 1.76846)
(-0.56104 2.89614 0.997939)
(-1.02622 4.20717 2.53073)
(-1.31926 1.12772 1.25794)
(-1.28676 1.02576 1.39029)
(-0.883024 3.33274 1.21546)
(-1.54959 4.34302 2.35736)
(-0.349106 0.712239 0.641278)
(0.0133788 0.391658 0.479173)
(-0.784562 1.10703 0.73288)
(-1.45903 1.80603 0.934482)
(-1.20417 3.95811 1.38311)
(0.0574038 0.348006 0.348563)
(-0.10574 0.632117 0.566716)
(-0.597382 1.01947 0.880348)
(-1.43391 1.4423 1.34468)
(-1.76154 4.45827 2.88403)
(-0.260827 0.325 0.332182)
(-0.502326 0.546102 0.414666)
(-0.734207 0.920018 0.551467)
(-1.01485 1.766 0.957661)
(-2.29943 5.2257 2.17588)
(-0.277711 0.143207 1.92487)
(-0.12761 0.0977364 1.09081)
(-0.180265 0.0642545 2.41227)
(-0.101079 0.528409 1.30537)
(-0.728101 0.214541 1.62391)
(-0.347496 0.131697 0.963048)
(-0.56611 0.174192 2.3296)
(-0.30324 0.55925 1.26992)
(-0.787727 0.301358 1.20272)
(-0.393988 0.134232 0.779129)
(-0.811644 0.307712 2.08153)
(-0.419228 0.603692 1.20155)
(-0.0626136 0.237135 0.191457)
(-0.0491528 0.133895 0.0840257)
(-0.221457 0.428458 0.347856)
(-0.146614 0.240231 0.195108)
(-0.573165 0.679681 0.607868)
(-0.328559 0.351682 0.388644)
(-0.907012 0.734968 0.978031)
(-0.493429 0.352397 0.658788)
(-1.17884 0.40941 1.88758)
(-0.60332 0.674218 1.14303)
(-0.16341 0.229907 0.179928)
(-0.0771994 0.132011 0.0942838)
(-0.343496 0.408851 0.307013)
(-0.146931 0.24175 0.205079)
(-0.575543 0.646056 0.52223)
(-0.262696 0.359403 0.384083)
(-0.872919 0.845805 0.919057)
(-0.393316 0.442422 0.662279)
(-1.58971 0.421723 1.70223)
(-0.626246 0.664767 1.06946)
(-0.377886 0.409097 0.291713)
(-0.108939 0.301323 0.128469)
(-0.377952 0.383988 0.189072)
(-0.167137 0.293914 0.111259)
(-0.239093 0.238196 0.210637)
(-0.120502 0.158069 0.113643)
(-0.268595 0.223841 0.135246)
(-0.148086 0.156401 0.0928254)
(-0.578073 0.622 0.288112)
(-0.275097 0.424932 0.175536)
(-0.607556 0.665371 0.433786)
(-0.181258 0.440754 0.207153)
(-0.365212 0.359282 0.0792008)
(-0.217591 0.286901 0.0695624)
(-0.367164 0.353511 0.025997)
(-0.230859 0.284279 0.0207889)
(-0.274732 0.209451 0.069629)
(-0.178472 0.157451 0.0587771)
(-0.280377 0.206191 0.0207321)
(-0.192232 0.156694 0.0177888)
(-0.553251 0.581103 0.11104)
(-0.35009 0.400658 0.10562)
(-0.556184 0.570202 0.0354907)
(-0.365012 0.392275 0.0312492)
(-1.06816 0.800698 0.461195)
(-0.441659 0.518309 0.233381)
(-1.89945 0.398703 0.772399)
(-0.575547 0.597393 0.275653)
(-1.00747 0.852612 0.715301)
(-0.295286 0.534843 0.329981)
(-1.78666 0.400139 1.20675)
(-0.423855 0.601744 0.463533)
(-1.05127 0.76289 0.208329)
(-0.507989 0.489666 0.130004)
(-1.92034 0.407557 0.415722)
(-0.602801 0.595723 0.1424)
(-1.00845 0.740345 0.126757)
(-0.536485 0.472584 0.0763065)
(-1.8367 0.424728 0.195116)
(-0.678558 0.58579 0.0883456)
(-0.0501569 0.0416551 0.497303)
(-0.017418 0.0110164 0.16255)
(-0.00488993 0.00272883 0.0342028)
(-0.0424821 0.020401 0.580519)
(-0.0152903 0.00464128 0.184536)
(-0.00461978 0.00148425 0.0392101)
(-0.139452 0.0627288 0.460353)
(-0.0391112 0.0113507 0.153945)
(-0.00774921 0.00294572 0.0339516)
(-0.123498 0.038049 0.558522)
(-0.0334565 0.011821 0.177785)
(-0.00645398 0.0020635 0.0370028)
(-0.141594 0.0527101 0.370646)
(-0.0352666 0.0115714 0.119868)
(-0.00912519 0.00331859 0.0249061)
(-0.166603 0.0676973 0.523595)
(-0.0380344 0.0171598 0.164505)
(-0.00906419 0.00389406 0.0333887)
(-0.01859 0.0515282 0.0338349)
(-0.00383265 0.0138324 0.0116062)
(-0.000976317 0.00337904 0.00246536)
(-0.0635207 0.0884541 0.0915472)
(-0.0120435 0.0235366 0.0322153)
(-0.0022258 0.00573679 0.00681201)
(-0.12395 0.110367 0.194419)
(-0.0252194 0.0281295 0.0664442)
(-0.00430224 0.00680985 0.0137252)
(-0.182821 0.117564 0.327186)
(-0.0407305 0.0291853 0.107124)
(-0.00815022 0.00676915 0.0215885)
(-0.231889 0.10537 0.508629)
(-0.048881 0.0205345 0.159783)
(-0.00839336 0.00385451 0.0318132)
(-0.0486161 0.0565577 0.0437026)
(-0.0128572 0.0156302 0.014928)
(-0.00269141 0.00360422 0.0033767)
(-0.0707027 0.101286 0.106268)
(-0.0195207 0.0265042 0.0416392)
(-0.00359702 0.00580358 0.00963832)
(-0.125515 0.135824 0.201601)
(-0.0322127 0.0319065 0.0767357)
(-0.00540552 0.00635985 0.0169393)
(-0.179814 0.142088 0.340212)
(-0.044507 0.0311542 0.122013)
(-0.00715469 0.00598399 0.0256149)
(-0.278625 0.110842 0.510324)
(-0.063357 0.0205913 0.167047)
(-0.00906295 0.00321255 0.0337346)
(-0.31285 0.73382 0.0663913)
(-0.325091 0.519788 0.0782394)
(-0.301029 1.05675 0.203779)
(-0.336037 0.671441 0.178098)
(-0.594846 1.11107 0.229021)
(-0.617004 0.673586 0.144328)
(-0.689021 1.82629 0.488705)
(-0.747219 0.924904 0.334156)
(0.0224007 0.348467 0.0210365)
(0.0066657 0.203016 0.00984079)
(0.0409417 0.390453 0.0225803)
(0.0137061 0.21327 0.0105212)
(-0.0212913 0.42676 0.0230822)
(-0.00909986 0.247134 0.0187871)
(0.0172565 0.493896 0.0333293)
(0.0213001 0.261062 0.0261207)
(-0.00644321 0.494751 0.102661)
(-0.0393178 0.384286 0.0465284)
(-0.182403 0.413673 0.105727)
(-0.202095 0.344675 0.0516651)
(-0.045195 0.330492 0.0350014)
(-0.0228215 0.379596 0.0722572)
(-0.390623 0.864367 0.194864)
(-0.464038 0.968888 0.0534318)
(-0.911006 1.22792 0.452302)
(-1.0958 1.37382 0.135913)
(0.00539011 0.586693 -0.0293377)
(0.0982433 0.692638 0.0188052)
(-0.181241 0.497915 0.0709226)
(-0.200981 0.542575 0.0384647)
(-0.107401 0.447615 0.032797)
(-0.0858137 0.51886 0.0191433)
(-0.00561951 0.0946636 0.0363607)
(-0.00229124 0.0267852 0.00666694)
(-0.00360895 0.0982412 0.00981106)
(-0.0021111 0.0314503 0.00243162)
(-0.0207619 0.114808 0.0424479)
(-0.00137006 0.0287377 0.00766835)
(-0.00256471 0.115683 0.0167174)
(0.00163006 0.0329871 0.00381817)
(-0.0957182 0.136781 0.0512455)
(-0.0110701 0.0312142 0.00932647)
(-0.0813241 0.148518 0.0346102)
(-0.0111003 0.0410817 0.00760798)
(-0.123249 0.16972 0.0339679)
(-0.0186322 0.0494287 0.00679109)
(-0.16807 0.198546 0.0107616)
(-0.0234329 0.0516351 0.00198239)
(-0.226468 0.299081 0.200069)
(-0.175174 0.169739 0.123556)
(-0.250547 0.372617 0.128797)
(-0.192404 0.183127 0.0729798)
(-0.474572 0.419459 0.353201)
(-0.347288 0.268751 0.235081)
(-0.552813 0.532407 0.240928)
(-0.373153 0.289277 0.136573)
(-0.116783 0.271361 0.0626721)
(-0.0906492 0.101237 0.034753)
(-0.113681 0.230067 0.103465)
(-0.0810699 0.0926639 0.0556437)
(-0.303486 0.44956 0.0902054)
(-0.209758 0.192372 0.0520191)
(-0.352747 0.487546 0.0422955)
(-0.216745 0.19105 0.0346595)
(-0.671253 0.644782 0.169298)
(-0.408813 0.304551 0.0991704)
(-0.746136 0.678582 0.0821163)
(-0.416701 0.30197 0.0657293)
(-0.133938 0.31576 0.0424211)
(-0.0984873 0.106706 0.0246515)
(-0.154492 0.341975 0.0177853)
(-0.102451 0.106502 0.016917)
(0.00316877 0.0992874 0.0235769)
(-0.00145632 0.0270677 0.00452484)
(-0.0310121 0.0455836 0.0138755)
(-0.00553879 0.0141137 0.00283582)
(0.00212342 0.0762844 0.0321576)
(-0.00109229 0.0200826 0.00551279)
(-0.0257556 0.0407753 0.0201887)
(-0.00450912 0.0120605 0.00396221)
(-0.00135354 0.116943 0.0144409)
(-0.00287918 0.0327719 0.00316333)
(-0.0346978 0.0484082 0.00934525)
(-0.00642443 0.0150961 0.0017702)
(-0.00590427 0.124911 0.00392801)
(-0.00369025 0.0361229 0.000918853)
(-0.0360943 0.048369 0.00604998)
(-0.00675323 0.015013 0.000861257)
(0.00134423 0.00601586 0.0342773)
(0.000762751 0.00152642 0.0101315)
(-0.000572101 0.0076604 0.00652193)
(-5.41095e-05 0.00209584 0.00306754)
(0.00661147 0.00635271 0.0386068)
(0.00340807 0.0018319 0.0123072)
(-9.20454e-05 0.00825793 0.0070051)
(0.000318965 0.00258904 0.00330958)
(-0.00168392 0.00811851 0.0503493)
(0.000700667 0.00318879 0.0180285)
(-0.00323044 0.00969866 0.00831927)
(-0.00121589 0.00390353 0.00409867)
(0.0636923 0.0762011 0.179871)
(0.116466 0.177952 0.312877)
(0.0200011 0.0430358 0.0966277)
(0.0103301 0.029225 0.0303659)
(0.00093872 0.0105786 0.00502719)
(0.128206 0.138279 0.210845)
(0.0723558 0.0601685 0.119547)
(0.0137343 0.0224771 0.0629278)
(0.0119118 0.0178146 0.0254507)
(0.00137335 0.00638283 0.00488258)
(-0.161665 0.185078 0.224452)
(-0.0898089 0.103612 0.120651)
(-0.0447306 0.0570361 0.0538463)
(-0.019254 0.0266718 0.0196602)
(-0.00365765 0.00836409 0.00355364)
(0.000105908 0.000293999 0.002872)
(2.80755e-05 4.33985e-05 0.000710955)
(-1.03548e-05 0.000527416 0.00115578)
(5.39031e-06 0.00016344 0.000397967)
(0.000629237 0.000374964 0.00401602)
(0.000188548 5.46583e-05 0.000953538)
(4.44739e-05 0.000717857 0.00142032)
(3.55072e-05 0.000228353 0.00049626)
(0.000496781 0.00083296 0.00696515)
(0.000398919 0.000149545 0.00181025)
(-0.000340714 0.00125787 0.00206398)
(-4.15359e-05 0.000408829 0.000752462)
(0.0228015 0.0929601 0.111137)
(0.00186814 0.0499366 0.0368586)
(0.0211312 0.0339277 0.0621031)
(0.00549799 0.0153867 0.0181771)
(0.00102377 0.0121968 0.0260435)
(0.000175988 0.00484254 0.00812498)
(0.0010816 0.00742773 0.0116139)
(0.000251192 0.00227191 0.00366271)
(-0.000270542 0.00267879 0.002591)
(-0.00015951 0.0008798 0.00105687)
(-0.0639062 0.105177 0.096412)
(-0.0184388 0.0506782 0.0410318)
(-0.028925 0.0496062 0.0514337)
(-0.0037823 0.0189807 0.0196978)
(-0.013056 0.0241777 0.0240529)
(-0.0019731 0.00785982 0.00894835)
(-0.00510642 0.0108952 0.00951667)
(-0.000944457 0.00326579 0.00366611)
(-0.000756213 0.00400501 0.00193658)
(-0.000189842 0.00140905 0.000984771)
(-0.0549538 0.0657154 0.0554915)
(-0.0184859 0.0204794 0.0179714)
(-0.0796495 0.070616 0.0351596)
(-0.0248286 0.022602 0.0117594)
(-0.118728 0.120481 0.116723)
(-0.0443917 0.0502308 0.0425061)
(-0.156855 0.123459 0.0755772)
(-0.0557242 0.0534199 0.0304549)
(-0.0343803 0.0369163 0.0153327)
(-0.0106221 0.0103139 0.00507611)
(-0.022907 0.032685 0.0233759)
(-0.0079544 0.00885208 0.00759728)
(-0.0896008 0.0729833 0.0280735)
(-0.0247668 0.0232732 0.00873999)
(-0.0956007 0.0721246 0.00786706)
(-0.026882 0.0230885 0.00246054)
(-0.171226 0.123229 0.0500335)
(-0.0578212 0.0562037 0.0196694)
(-0.179311 0.121117 0.0140498)
(-0.0622661 0.0557074 0.00568296)
(-0.0401749 0.0394164 0.0133666)
(-0.0107765 0.010728 0.00391135)
(-0.0433995 0.0391958 0.00378144)
(-0.0117838 0.0107172 0.00111058)
(-0.0120111 0.0162215 0.00504053)
(-0.00403005 0.00407685 0.00197164)
(-0.00156265 0.00550258 0.000921853)
(-0.000960519 0.00168814 0.000580357)
(-0.00837483 0.0140978 0.0078046)
(-0.00312074 0.00345758 0.00274297)
(-0.00142258 0.00488732 0.00127295)
(-0.000854919 0.00143646 0.000707284)
(-0.0135904 0.0177617 0.00498827)
(-0.00437042 0.00430688 0.00151648)
(-0.00162777 0.00585134 0.000722938)
(-0.00112423 0.00177596 0.00039387)
(-0.0159868 0.0181498 0.00136171)
(-0.00475399 0.00438378 0.000464626)
(-0.00278122 0.00636094 -0.00056733)
(-0.00127862 0.00185928 -3.84451e-05)
(1.0218e-06 6.59839e-06 0.000148299)
(9.47243e-07 1.79308e-06 2.25483e-05)
(6.21526e-07 4.49851e-07 3.08684e-06)
(-3.20537e-06 6.81797e-05 0.000106372)
(-9.38183e-08 6.13796e-06 1.47733e-05)
(1.04573e-07 1.22646e-06 1.98626e-06)
(2.15615e-05 -2.44856e-06 0.000210754)
(9.26195e-06 2.70531e-06 3.18398e-05)
(3.66017e-06 7.82289e-07 4.72192e-06)
(-8.40719e-06 8.53771e-05 0.00013547)
(6.44146e-07 8.43193e-06 1.87312e-05)
(6.74345e-07 2.03445e-06 2.52896e-06)
(8.74746e-05 1.99123e-05 0.000394828)
(3.15276e-05 1.1055e-05 5.88804e-05)
(8.93001e-06 3.41485e-06 9.16686e-06)
(-3.89761e-05 0.000129692 0.000211478)
(9.30757e-07 1.61307e-05 2.81508e-05)
(1.09781e-06 4.21043e-06 3.761e-06)
(-0.00110832 0.0185158 0.0119943)
(-4.55505e-05 0.00512578 0.00358077)
(-3.64721e-05 0.00131444 0.000739085)
(0.000432096 0.00535006 0.00468416)
(0.000333716 0.00153002 0.00106676)
(9.63435e-05 0.00041283 0.0002171)
(-1.23634e-05 0.0015294 0.00202027)
(9.75093e-05 0.000432372 0.000386205)
(3.41352e-05 0.000123788 7.18735e-05)
(2.60456e-05 0.000525504 0.000861229)
(4.98824e-05 0.000130488 0.000134473)
(1.68461e-05 3.60232e-05 2.05845e-05)
(-8.66784e-05 0.000238072 0.000314456)
(-4.80143e-06 3.48787e-05 4.19729e-05)
(3.83202e-07 8.6604e-06 5.1333e-06)
(-0.00856641 0.0192059 0.0157621)
(-0.0018478 0.00512105 0.00416577)
(-0.00035025 0.00113685 0.000828985)
(-0.000955524 0.00588801 0.00639095)
(-2.85547e-05 0.00141956 0.00129612)
(1.87403e-05 0.000307246 0.000216801)
(-0.000524077 0.00195648 0.00268889)
(-1.75259e-05 0.000405468 0.000485472)
(9.87323e-06 8.63335e-05 7.21912e-05)
(-0.000212468 0.000729456 0.00105464)
(-4.52676e-06 0.000133975 0.000175765)
(5.03381e-06 2.65144e-05 2.35436e-05)
(-0.000114008 0.000434132 0.000363592)
(-8.53172e-06 5.01824e-05 5.26399e-05)
(2.92526e-07 8.72234e-06 6.00029e-06)
(4.65925e-05 0.00392956 0.000763781)
(4.08881e-06 0.000459942 7.54934e-05)
(2.78307e-07 5.23678e-05 6.40256e-06)
(2.01903e-08 5.41189e-06 4.70907e-07)
(0.000178228 0.00498025 0.000327774)
(1.90237e-05 0.000591885 3.44061e-05)
(2.17321e-06 6.69784e-05 2.99924e-06)
(2.52236e-07 6.61905e-06 2.35399e-07)
(5.85333e-05 0.00415236 0.000846748)
(2.62937e-06 0.00048207 8.48558e-05)
(1.11699e-06 5.45242e-05 7.53076e-06)
(2.21452e-07 5.63004e-06 6.43028e-07)
(0.00033129 0.00538671 0.000455839)
(2.99517e-05 0.000660669 4.75887e-05)
(5.30121e-06 7.69742e-05 5.26988e-06)
(7.70473e-07 7.82192e-06 5.89723e-07)
(-0.000225672 0.00447642 0.00097508)
(-2.16888e-05 0.000490035 9.57298e-05)
(-1.07269e-07 5.87395e-05 1.00099e-05)
(3.60593e-07 6.6694e-06 1.09037e-06)
(1.35886e-05 0.00636117 0.000908183)
(-5.24555e-07 0.000732735 8.96255e-05)
(1.19971e-06 9.11608e-05 6.97797e-06)
(2.54207e-07 1.02958e-05 4.90753e-07)
(-0.000297533 0.00808118 0.000599474)
(-2.34623e-05 0.000906917 5.9627e-05)
(-1.99931e-06 9.83671e-05 2.19739e-06)
(-2.10593e-07 9.3424e-06 -1.6441e-07)
(-0.000486519 0.00864734 0.00023032)
(-4.09613e-05 0.000979121 2.63559e-05)
(-2.03135e-06 0.000100716 1.56378e-06)
(-2.57538e-08 9.19397e-06 7.43621e-08)
(-0.000741601 0.00421654 0.000671755)
(-7.22171e-05 0.000522686 7.24927e-05)
(-7.21149e-06 6.67747e-05 6.27897e-06)
(-7.04809e-07 7.79483e-06 3.16739e-07)
(-0.000656039 0.00222579 0.000354051)
(-6.75368e-05 0.000282571 3.81642e-05)
(-7.67887e-06 3.73371e-05 4.61451e-06)
(-7.18079e-07 4.91172e-06 4.78253e-07)
(-0.00050829 0.00310048 0.000761968)
(-4.7511e-05 0.000384687 7.97376e-05)
(-3.98988e-06 5.1169e-05 8.47869e-06)
(-1.04224e-07 6.75596e-06 8.27088e-07)
(-0.000513835 0.00190128 0.000478849)
(-5.18905e-05 0.000244025 5.00491e-05)
(-6.57574e-06 3.27655e-05 5.9908e-06)
(-7.46346e-07 4.52378e-06 5.66771e-07)
(-0.00091915 0.00515441 0.000495393)
(-8.76551e-05 0.000641269 5.41939e-05)
(-6.85184e-06 7.75755e-05 4.84647e-06)
(-4.47078e-07 8.23669e-06 3.36255e-07)
(-0.000769373 0.00241857 0.000229283)
(-8.00459e-05 0.000309661 2.54297e-05)
(-8.504e-06 3.98425e-05 3.21809e-06)
(-7.23888e-07 5.04916e-06 3.80775e-07)
(-0.00102246 0.00567807 0.000206536)
(-9.79149e-05 0.000711333 2.35565e-05)
(-7.19925e-06 8.38089e-05 2.10321e-06)
(-4.12717e-07 8.75922e-06 2.0666e-07)
(-0.000829878 0.00247046 8.51371e-05)
(-8.74123e-05 0.000323494 9.93682e-06)
(-9.28717e-06 4.1567e-05 1.31819e-06)
(-8.4432e-07 5.31805e-06 1.87983e-07)
(1.49995e-05 0.00179146 0.000751785)
(1.12858e-06 0.000252628 7.46625e-05)
(1.4282e-07 3.26585e-05 6.90139e-06)
(1.64078e-08 3.96029e-06 5.57379e-07)
(1.3027e-05 0.000651618 0.000440586)
(1.12434e-06 0.000108377 4.83862e-05)
(4.77183e-08 1.62788e-05 5.76238e-06)
(5.38573e-10 2.4008e-06 5.97955e-07)
(4.73645e-05 0.00183865 0.000791004)
(2.58272e-06 0.000258302 7.82288e-05)
(5.67169e-07 3.34948e-05 7.20538e-06)
(1.082e-07 4.15121e-06 5.75155e-07)
(4.57042e-05 0.000726495 0.00046064)
(3.62507e-06 0.00011766 5.00422e-05)
(2.08476e-07 1.73725e-05 6.0643e-06)
(1.10905e-08 2.56503e-06 6.25695e-07)
(-0.000159256 0.00205404 0.00083757)
(-1.86311e-05 0.000272132 8.0795e-05)
(-1.83658e-06 3.574e-05 8.40336e-06)
(-1.42666e-07 4.60091e-06 7.96157e-07)
(-9.16982e-05 0.000987161 0.000511213)
(-1.12355e-05 0.000144739 5.33049e-05)
(-1.38754e-06 2.03475e-05 6.75438e-06)
(-1.27264e-07 2.92411e-06 7.38862e-07)
(-0.000166277 0.00181999 0.000598107)
(-1.70908e-05 0.000233208 6.13977e-05)
(-1.47085e-06 3.15155e-05 7.51376e-06)
(-1.4151e-08 4.37567e-06 9.64268e-07)
(-5.21875e-05 0.00120396 0.000572353)
(-6.81666e-06 0.00015943 5.94997e-05)
(-1.40486e-06 2.25041e-05 8.30618e-06)
(-2.00327e-07 3.28367e-06 1.02577e-06)
(-0.000394709 0.00142641 0.000432479)
(-4.03818e-05 0.000192152 4.51749e-05)
(-5.24072e-06 2.65249e-05 5.76316e-06)
(-5.15169e-07 3.92777e-06 6.1352e-07)
(3.01165e-06 0.000214957 0.00019704)
(3.41839e-07 4.5154e-05 2.34375e-05)
(1.91758e-08 6.70894e-06 3.37132e-06)
(4.31298e-09 8.70583e-07 4.09383e-07)
(4.93922e-06 6.94341e-05 5.69794e-05)
(7.22731e-07 2.28062e-05 7.01133e-06)
(7.42934e-08 3.52546e-06 9.44647e-07)
(6.73726e-09 4.42961e-07 1.2184e-07)
(9.22845e-07 0.000261869 0.000233603)
(-1.45324e-07 5.30772e-05 2.69745e-05)
(-1.68824e-07 7.75617e-06 3.77078e-06)
(-1.56619e-08 1.01182e-06 4.42273e-07)
(1.33387e-05 8.78954e-05 6.79741e-05)
(1.82579e-06 2.74229e-05 8.128e-06)
(1.49142e-07 4.12039e-06 1.08105e-06)
(1.12622e-08 5.09214e-07 1.37456e-07)
(-3.51702e-05 0.000395286 0.000296105)
(-4.21911e-06 7.04259e-05 3.21788e-05)
(-8.08326e-07 9.56288e-06 4.37314e-06)
(-9.05865e-08 1.18718e-06 5.00353e-07)
(1.34472e-05 0.000140317 8.6676e-05)
(1.82669e-06 3.73143e-05 9.72914e-06)
(9.28409e-08 5.18658e-06 1.24368e-06)
(-7.34135e-10 6.14817e-07 1.57053e-07)
(-0.00010432 0.000594612 0.000314809)
(-1.08035e-05 9.23106e-05 3.30968e-05)
(-1.71358e-06 1.20871e-05 4.67856e-06)
(-1.91871e-07 1.48021e-06 5.2858e-07)
(-8.06874e-06 0.000230134 0.000102458)
(-1.02955e-07 5.0564e-05 1.09025e-05)
(-1.68592e-07 6.61496e-06 1.40384e-06)
(-3.40521e-08 7.60603e-07 1.72708e-07)
(-0.000209371 0.000749058 0.000312884)
(-2.08332e-05 0.000111516 3.28852e-05)
(-3.10653e-06 1.495e-05 4.60351e-06)
(-3.33192e-07 1.85926e-06 5.02699e-07)
(-4.19562e-05 0.000293356 9.76535e-05)
(-3.10467e-06 6.18569e-05 1.04441e-05)
(-5.47891e-07 7.90839e-06 1.41811e-06)
(-7.17146e-08 8.94485e-07 1.7127e-07)
(-0.000373074 0.000915582 0.000206959)
(-3.75615e-05 0.000136588 2.17899e-05)
(-4.82095e-06 1.7117e-05 2.69983e-06)
(-4.89095e-07 2.01871e-06 3.05554e-07)
(-0.000114498 0.00034389 7.7402e-05)
(-1.10778e-05 7.65506e-05 8.45344e-06)
(-1.33722e-06 9.9885e-06 1.03117e-06)
(-1.51485e-07 1.11842e-06 1.21887e-07)
(-0.000309698 0.000841372 0.000264055)
(-3.05121e-05 0.000125868 2.74693e-05)
(-4.12663e-06 1.61152e-05 3.5802e-06)
(-4.46044e-07 1.92577e-06 4.00568e-07)
(-8.95679e-05 0.000304492 8.75528e-05)
(-8.06877e-06 6.989e-05 9.41114e-06)
(-1.01703e-06 9.03337e-06 1.22244e-06)
(-1.15903e-07 1.01343e-06 1.49098e-07)
(-0.00042007 0.000959295 0.000139272)
(-4.29764e-05 0.00014333 1.45246e-05)
(-5.39359e-06 1.72123e-05 1.77374e-06)
(-5.70952e-07 1.96524e-06 2.21714e-07)
(-0.00013449 0.000359553 5.32182e-05)
(-1.3269e-05 8.15893e-05 5.90267e-06)
(-1.53068e-06 1.05197e-05 6.82999e-07)
(-1.80942e-07 1.17122e-06 8.46209e-08)
(-0.000451791 0.00105396 5.42435e-05)
(-4.66255e-05 0.000150928 5.61297e-06)
(-5.82895e-06 1.78281e-05 7.26398e-07)
(-6.5575e-07 2.03099e-06 9.94781e-08)
(-0.00015372 0.000378535 2.11902e-05)
(-1.50647e-05 8.59124e-05 2.37445e-06)
(-1.70978e-06 1.10148e-05 2.81471e-07)
(-2.05457e-07 1.2235e-06 3.5857e-08)
(7.61135e-09 5.3169e-07 4.72632e-08)
(1.03673e-09 6.7419e-08 4.59969e-09)
(1.1937e-10 8.05786e-09 4.24935e-10)
(1.28858e-11 9.18515e-10 3.8091e-11)
(1.45878e-12 8.9975e-11 3.62302e-12)
(2.23258e-08 6.12982e-07 2.18825e-08)
(2.26803e-09 7.55325e-08 2.13879e-09)
(2.30121e-10 8.851e-09 1.99287e-10)
(2.32018e-11 9.92296e-10 1.80419e-11)
(2.51519e-12 9.60553e-11 1.73741e-12)
(1.63872e-08 5.67874e-07 6.09733e-08)
(1.82873e-09 7.48179e-08 5.72575e-09)
(2.14133e-10 8.91866e-09 5.26361e-10)
(2.42938e-11 1.00904e-09 4.79361e-11)
(2.88058e-12 9.82221e-11 4.69485e-12)
(3.89072e-08 7.18295e-07 3.82429e-08)
(3.72879e-09 8.71371e-08 3.41398e-09)
(3.95497e-10 1.00174e-08 3.19342e-10)
(4.18618e-11 1.10883e-09 3.01154e-11)
(4.71836e-12 1.06499e-10 3.07284e-12)
(1.02531e-08 6.68982e-07 7.07817e-08)
(1.26328e-09 8.34385e-08 6.29704e-09)
(1.82013e-10 9.71284e-09 5.87281e-10)
(2.34097e-11 1.09057e-09 5.51719e-11)
(3.00352e-12 1.05884e-10 5.59977e-12)
(2.73192e-08 9.06593e-07 5.55869e-08)
(3.38117e-09 9.75856e-08 6.20666e-09)
(4.06262e-10 1.09456e-08 6.56113e-10)
(4.60538e-11 1.20533e-09 6.66997e-11)
(5.4222e-12 1.15618e-10 7.18413e-12)
(-3.99664e-09 8.44982e-07 3.41907e-08)
(3.50677e-10 1.03688e-07 4.77861e-09)
(9.25445e-11 1.20073e-08 5.41779e-10)
(1.35969e-11 1.3319e-09 5.68392e-11)
(1.83359e-12 1.2786e-10 6.23894e-12)
(-9.92104e-09 8.67192e-07 1.81441e-08)
(-9.12077e-10 1.08666e-07 2.62893e-09)
(-6.05036e-11 1.27935e-08 3.26717e-10)
(-2.42058e-12 1.43248e-09 3.70862e-11)
(1.19286e-13 1.3816e-10 4.34722e-12)
(-1.99056e-08 7.66588e-07 5.23164e-08)
(-3.46049e-10 9.33662e-08 5.58161e-09)
(7.54052e-11 1.08106e-08 5.64986e-10)
(1.55185e-11 1.21055e-09 5.57081e-11)
(2.33646e-12 1.17312e-10 5.86326e-12)
(-1.96371e-08 5.72772e-07 3.47279e-08)
(-1.03594e-09 8.173e-08 3.69097e-09)
(-3.6752e-11 1.01509e-08 3.90895e-10)
(1.16151e-12 1.18059e-09 4.04859e-11)
(5.24142e-13 1.16778e-10 4.46065e-12)
(8.47849e-09 7.06793e-07 6.58087e-08)
(1.82671e-09 8.43573e-08 6.00838e-09)
(2.64522e-10 9.87951e-09 5.67987e-10)
(3.24634e-11 1.11845e-09 5.41853e-11)
(3.98982e-12 1.09183e-10 5.59542e-12)
(-1.16576e-08 5.44206e-07 2.96728e-08)
(-3.05506e-10 7.78247e-08 3.48164e-09)
(2.49354e-11 9.65259e-09 3.94326e-10)
(6.30395e-12 1.12282e-09 4.25585e-11)
(9.81125e-13 1.11128e-10 4.81781e-12)
(-3.14078e-08 7.76787e-07 4.42533e-08)
(-2.11872e-09 9.7862e-08 4.85958e-09)
(-1.18115e-10 1.15796e-08 5.02636e-10)
(-3.98961e-12 1.30674e-09 5.02026e-11)
(2.68569e-13 1.26918e-10 5.33678e-12)
(-2.08686e-08 5.89896e-07 2.70317e-08)
(-1.41201e-09 8.47008e-08 2.95784e-09)
(-8.26922e-11 1.06399e-08 3.20998e-10)
(-3.52406e-12 1.24542e-09 3.40126e-11)
(3.55943e-14 1.2359e-10 3.8317e-12)
(-3.8804e-08 8.34546e-07 1.86781e-08)
(-3.24056e-09 1.03003e-07 2.12224e-09)
(-2.48307e-10 1.22063e-08 2.43847e-10)
(-1.73653e-11 1.3838e-09 2.71125e-11)
(-1.13813e-12 1.34915e-10 3.17455e-12)
(-2.69976e-08 6.21324e-07 1.39742e-08)
(-2.03648e-09 8.84442e-08 1.58208e-09)
(-1.49367e-10 1.1102e-08 1.8127e-10)
(-1.04156e-11 1.30206e-09 2.02986e-11)
(-7.09402e-13 1.29509e-10 2.40572e-12)
(3.84027e-09 4.35323e-07 4.74663e-08)
(6.78811e-10 5.77119e-08 4.29202e-09)
(8.77807e-11 7.11706e-09 3.83336e-10)
(9.97597e-12 8.32275e-10 3.37348e-11)
(1.15556e-12 8.29721e-11 3.16423e-12)
(5.67951e-09 3.18279e-07 2.1758e-08)
(8.18788e-10 4.94685e-08 1.80404e-09)
(9.76231e-11 6.43575e-09 1.55254e-10)
(1.05639e-11 7.7383e-10 1.34586e-11)
(1.1767e-12 7.83507e-11 1.25446e-12)
(1.32986e-08 4.66467e-07 5.40956e-08)
(1.82122e-09 6.27306e-08 5.02972e-09)
(2.20492e-10 7.73094e-09 4.55647e-10)
(2.46043e-11 8.99945e-10 4.07721e-11)
(2.84151e-12 8.92951e-11 3.92248e-12)
(1.71667e-08 3.42658e-07 2.41777e-08)
(2.2347e-09 5.34613e-08 2.07772e-09)
(2.54377e-10 6.9305e-09 1.8327e-10)
(2.69791e-11 8.29088e-10 1.62342e-11)
(2.98544e-12 8.35494e-11 1.55504e-12)
(-2.01821e-09 5.23555e-07 5.87892e-08)
(8.16709e-10 7.033e-08 5.11178e-09)
(1.55126e-10 8.563e-09 4.59569e-10)
(2.06765e-11 9.88883e-10 4.19177e-11)
(2.64472e-12 9.76142e-11 4.15712e-12)
(2.14836e-08 3.90696e-07 2.8644e-08)
(2.77981e-09 6.09209e-08 2.5321e-09)
(3.1491e-10 7.7881e-09 2.35331e-10)
(3.35413e-11 9.20767e-10 2.22127e-11)
(3.74536e-12 9.20205e-11 2.274e-12)
(1.4383e-08 5.19989e-07 5.5485e-08)
(2.24073e-09 7.29315e-08 5.09957e-09)
(2.78568e-10 9.00441e-09 4.98401e-10)
(3.15294e-11 1.04625e-09 4.91171e-11)
(3.67873e-12 1.03553e-10 5.2226e-12)
(2.00639e-08 4.3052e-07 3.47897e-08)
(2.29701e-09 6.83758e-08 3.15501e-09)
(2.47996e-10 8.62386e-09 3.10566e-10)
(2.58806e-11 1.0103e-09 3.08621e-11)
(2.86301e-12 1.00399e-10 3.30192e-12)
(5.98516e-09 4.92319e-07 2.82166e-08)
(1.13e-09 7.4003e-08 3.59432e-09)
(1.4572e-10 9.25216e-09 4.19617e-10)
(1.67286e-11 1.07933e-09 4.60368e-11)
(1.95841e-12 1.06995e-10 5.2605e-12)
(-0.00517947 1.13582 0.0853907)
(-0.0194322 1.25606 0.308349)
(-0.0106547 1.1608 0.0868474)
(-0.0542789 1.24837 0.301407)
(-0.0182337 1.19309 0.0936485)
(-0.0892248 1.23337 0.284331)
(-0.0192222 1.19696 0.0896438)
(-0.119179 1.21432 0.26355)
(-0.0307508 1.17482 0.0627555)
(-0.133449 1.20528 0.241555)
(-0.0878997 1.19521 0.000404755)
(-0.206765 1.13386 0.0843499)
(-0.0623324 1.16666 0.0171089)
(-0.152614 1.1314 0.141639)
(-0.0878393 1.21503 -0.000946384)
(-0.221842 1.14242 0.0453776)
(-0.0964166 1.25039 0.0010933)
(-0.220587 1.1447 0.0192075)
(-0.216545 1.35141 3.0466)
(-0.165279 0.182552 2.31862)
(-0.150137 0.0492167 2.10678)
(-0.140341 0.0340683 1.97082)
(-0.132166 0.0162468 1.85537)
(-0.0729884 1.06565 0.938995)
(-0.0653097 0.323319 0.792912)
(-0.0555633 0.136162 0.723044)
(-0.0526979 0.0997366 0.665709)
(-0.0474607 0.045857 0.610001)
(-0.673534 1.35444 3.00946)
(-0.511586 0.180959 2.28703)
(-0.464804 0.0486549 2.07938)
(-0.434489 0.0336365 1.94562)
(-0.409136 0.0160185 1.83311)
(-0.209014 1.06282 0.942433)
(-0.181883 0.321656 0.809365)
(-0.165568 0.13536 0.732669)
(-0.152218 0.099801 0.675587)
(-0.140653 0.0462901 0.630437)
(-1.15773 1.35199 2.87717)
(-0.87749 0.180794 2.18565)
(-0.797107 0.0487472 1.98718)
(-0.745135 0.0337524 1.8593)
(-0.701344 0.0160713 1.75151)
(-0.360454 1.0564 0.90499)
(-0.311457 0.321269 0.778231)
(-0.280953 0.135644 0.70544)
(-0.2576 0.100155 0.651253)
(-0.238694 0.0465052 0.608159)
(-1.61467 1.35095 2.66568)
(-1.21877 0.179592 2.02162)
(-1.10672 0.0484326 1.83738)
(-1.03448 0.0335675 1.71846)
(-0.973717 0.0159737 1.61784)
(-0.491594 1.04753 0.858009)
(-0.421393 0.321078 0.734894)
(-0.378963 0.13657 0.663106)
(-0.346788 0.10118 0.609177)
(-0.321058 0.0469723 0.565754)
(-2.12788 1.35523 2.30702)
(-1.60078 0.175882 1.74216)
(-1.4543 0.0470202 1.58281)
(-1.36102 0.0323697 1.48035)
(-1.28371 0.0153337 1.39345)
(-0.635532 1.04524 0.791703)
(-0.544897 0.318511 0.675133)
(-0.49164 0.13501 0.608352)
(-0.4521 0.0997861 0.558212)
(-0.420965 0.0462197 0.517545)
(-2.74913 1.34937 1.22872)
(-2.09213 0.179396 0.940673)
(-1.90064 0.0488039 0.852969)
(-1.77803 0.0322045 0.795431)
(-1.67844 0.014604 0.746711)
(-0.831922 1.03117 0.403792)
(-0.709884 0.313165 0.344946)
(-0.641846 0.133064 0.311386)
(-0.59187 0.0981296 0.285969)
(-0.550327 0.0454221 0.265005)