/*--------------------------------*- C++ -*----------------------------------*\
| =========                 |                                                 |
| \\      /  F ield         | OpenFOAM: The Open Source CFD Toolbox           |
|  \\    /   O peration     | Version:  2306                                  |
|   \\  /    A nd           | Website:  www.openfoam.com                      |
|    \\/     M anipulation  |                                                 |
\*---------------------------------------------------------------------------*/
FoamFile
{
    version     2.0;
    format      ascii;
    arch        "LSB;label=32;scalar=64";
    class       volScalarField;
    location    "0.1";
    object      gradTy;
}
// * * * * * * * * * * * * * * * * * * * * * * * * * * * * * * * * * * * * * //

dimensions      [0 -1 0 1 0 0 0];

internalField   nonuniform List<scalar> 
5712
(
19093.6
10648.3
27197.7
19467.5
28737.5
23779
38943.7
62964.8
54492.5
83456.7
37857.8
38042.5
23782.1
22215.8
13335.1
9420.65
22658.7
18135.3
21511.1
21055.8
26876
17503
41137.9
22970.2
15093.6
16352.9
8597.59
9671.27
14654
18181.9
9162.95
11384.5
35566.9
31101
27850.9
17124.3
25141.5
20568.8
13423
17059
19800.7
20773
61631.4
64524.1
30439.9
33611.3
34411
27730.4
26855.3
14651.7
13322
14759
27078.1
43065.7
13818.6
19459.9
32139
52592.1
19195.3
26871.6
28985.5
63919.4
20249.7
44329.9
6145.35
25716.8
4568.44
18429.6
12795.1
13736.5
14862.3
14867.9
11190.1
8571.71
14041.1
9141.84
19910.5
27387.2
19685.1
25106.6
14964.7
15427
14991.3
15512.6
16050
9431.41
16619.1
9380.36
17446.4
28448.3
16198.2
28713.1
44717.3
73891.6
52345.5
107975
45770.6
84088.2
50074.5
117151
42813.7
64962.7
53289.3
103801
42312.3
60140.6
54104
103149
23754.5
28217
61570.5
98414
26346.4
27421.8
72403.4
105179
28193.1
25643.9
83318.6
108576
17806
9791.46
27675.7
45150.7
98952.7
8700.16
15802.9
25486.7
36057.5
111457
8125
13652.5
23000.4
44150.1
130642
3580.17
2443.41
1606.36
13210.2
5363.53
3292.41
4354.8
13981.3
7533.95
3355.8
7692.79
15092.3
5928.38
3347.38
10711.4
6005.78
16992
8792.04
18374.2
8809.92
10235.3
16855.4
5747.67
3300.27
10221.3
6043.75
16151.4
8985.07
21145.1
11060.6
10543.1
16619.2
10227.4
7533.08
9599.7
7347.84
5954.91
3951.73
5596.03
3910.02
15550
10623.3
16634.3
11018.9
8982.06
7172.52
8837.79
7106.99
5236.28
3936.27
5154.78
3917.36
14527.6
10016.5
14255.1
9806.88
20017.4
12957.7
9967.57
14934.8
21315.3
13371.1
10003.5
15043.6
19072.3
12241.7
10188.9
14893.1
18508.6
11814.6
10618.2
14644.8
1041.38
275.41
68.2208
510.025
116.032
37.1063
1568.22
283.767
73.6431
951.225
295.524
51.5876
1317.75
289.286
82.9646
1692.43
428.996
97.3514
1288.21
345.811
84.4759
2211.35
588.415
143.42
2759.17
703.238
170.246
2939.1
729.633
169.229
2634.26
513.363
96.3628
1413.94
390.755
90.1054
2532.15
662.605
145.09
3395.61
797.661
158.996
3552.19
778.854
149.6
2771.04
514.782
80.3138
18345.5
12994.7
26418.9
16786
27776.7
16839.6
45657.3
23122.6
8711.68
5075.39
9761.32
5331.75
10669
6178.35
12347.4
6526.56
12368.8
9607.15
10341.8
8616.87
8262.3
9489.9
21609.2
24222.2
30697.9
34345.5
14667.3
17315.9
12447.9
13564.4
11190.4
12971.5
2366.59
669.63
2456.03
786.256
2870.2
718.443
2892.07
824.676
3419.52
780.356
3712.95
1027.04
4243
1235.72
4963.66
1290.88
7477.04
4243.48
9315.42
4578.19
10486.5
6718.76
13310.2
7231.92
6784.02
2530.92
5751.68
2316.6
11239
4809.29
12188.6
4776.26
16119.5
7613.78
16964.6
7549.24
7894.01
2667.64
8549.38
2662.55
2482.19
676.693
1139.59
352.844
1907.11
502.066
1019.38
301.513
2923.58
819.298
1210.2
377.403
3122.78
903.072
1209.22
375.325
150.396
38.1606
191.51
52.396
158.818
45.7976
206.448
64.726
202.963
79.7198
242.466
97.5883
1905.03
4448.81
1075.89
730.626
264.464
3456.97
1504.21
561.929
445.365
159.571
4626.96
2590.3
1425.9
666.794
209.102
7.34997
1.08496
13.1854
4.086
9.3741
1.36646
17.9464
5.70883
20.824
3.73862
31.4469
10.2207
2324
1248.41
848.193
384.667
304.921
121.063
185.693
56.7978
66.9698
21.995
2629.42
1266.95
1240.15
474.519
604.443
196.496
272.38
81.6446
100.125
35.2263
1642.89
511.984
1765.4
565.05
3012.04
1255.77
3086.46
1335.5
922.908
257.849
817.126
221.302
1824.58
581.83
1803.11
577.213
3080.72
1405.09
3027.92
1392.69
985.409
268.201
979.895
267.93
405.537
101.921
137.565
42.2034
352.444
86.4395
122.183
35.9116
444.041
107.672
146.284
44.3989
453.745
109.594
159.024
46.482
0.16496
0.044827
0.0112463
1.70449
0.153449
0.0306616
-0.0612141
0.0676327
0.0195572
2.13443
0.210798
0.0508612
0.497807
0.276375
0.0853713
3.24229
0.403267
0.105261
462.895
128.144
32.8609
133.752
38.2506
10.3207
38.2349
10.8093
3.09471
13.1376
3.26219
0.900579
5.95179
0.871966
0.21651
480.148
128.026
28.4212
147.2
35.4891
7.68116
48.912
10.1367
2.15834
18.2364
3.34938
0.66286
10.8533
1.25456
0.218058
98.239
11.4985
1.3092
0.135297
124.506
14.7971
1.67446
0.165476
103.809
12.0518
1.3631
0.140751
134.668
16.5167
1.92435
0.195548
111.91
12.2509
1.46849
0.166735
159.029
18.3184
2.27902
0.257395
202.029
22.6729
2.45918
0.23356
216.183
24.478
2.51791
0.229849
105.414
13.0672
1.66937
0.194871
55.6447
7.06426
0.933428
0.122793
77.512
9.61718
1.27922
0.168899
47.532
6.10061
0.819137
0.113094
128.86
16.0317
1.93939
0.205917
60.4642
7.74154
0.996062
0.126229
141.952
17.7833
2.09522
0.218981
61.7614
8.08735
1.03917
0.132951
44.7866
6.3157
0.816463
0.0990072
16.2905
2.70942
0.406969
0.06002
45.9662
6.45755
0.83737
0.10378
18.1624
2.9415
0.434313
0.0641258
51.351
6.80329
0.893499
0.115023
24.679
3.61848
0.508687
0.0731027
45.4997
5.8302
0.787887
0.109392
30.099
3.98575
0.562603
0.0820917
35.6601
4.80381
0.663123
0.0981943
5.37393
1.12885
0.167723
0.0217646
1.73585
0.570156
0.0881366
0.011074
6.54672
1.32693
0.193904
0.0252956
2.19738
0.685572
0.10301
0.0127303
9.88214
1.76065
0.239072
0.0296796
3.50793
0.932859
0.129665
0.0153704
14.8653
2.30777
0.302177
0.0370051
5.75336
1.2641
0.165374
0.0190151
18.7265
2.78791
0.373751
0.0464816
7.33389
1.54642
0.19771
0.0223621
22.8895
3.4147
0.427925
0.0504677
8.59726
1.91377
0.249712
0.0279605
21.0343
3.1467
0.40288
0.0481442
7.61231
1.74725
0.225834
0.0253356
23.9824
3.58324
0.430307
0.0491311
8.98881
2.03973
0.262993
0.0292805
26.3489
3.7732
0.445702
0.0507748
9.46337
2.14781
0.275371
0.0305876
0.0132922
0.00168548
0.000201446
2.29629e-05
2.24937e-06
0.0153246
0.00188831
0.000221275
2.48074e-05
2.40138e-06
0.0141968
0.00187045
0.000222967
2.52259e-05
2.45555e-06
0.0179574
0.00217843
0.000250435
2.77207e-05
2.66247e-06
0.0167245
0.00208596
0.000242821
2.72642e-05
2.6471e-06
0.0226648
0.00243964
0.000273641
3.01331e-05
2.89046e-06
0.0211246
0.00259219
0.000300183
3.32975e-05
3.1965e-06
0.0216798
0.00271666
0.000319838
3.5812e-05
3.454e-06
0.0191647
0.00233416
0.000270265
3.02638e-05
2.93281e-06
0.0143193
0.00204325
0.000253773
2.95148e-05
2.91944e-06
0.0176698
0.00210893
0.000246988
2.79612e-05
2.72957e-06
0.0136052
0.00194562
0.000241315
2.80706e-05
2.77819e-06
0.0194197
0.00244655
0.00028949
3.26684e-05
3.17295e-06
0.0147474
0.00211752
0.000265997
3.11354e-05
3.08975e-06
0.0208636
0.00257508
0.000305158
3.4595e-05
3.37289e-06
0.0155331
0.00221111
0.000277551
3.25516e-05
3.23773e-06
0.0108831
0.0014428
0.000177927
2.08069e-05
2.0743e-06
0.00795697
0.00123671
0.000160894
1.93457e-05
1.95877e-06
0.0116617
0.00156827
0.000193274
2.24986e-05
2.23238e-06
0.00856645
0.00133653
0.000173262
2.07272e-05
2.08874e-06
0.0130889
0.00175825
0.000214075
2.47221e-05
2.44035e-06
0.00976739
0.00152302
0.000194702
2.30192e-05
2.30051e-06
0.0129997
0.00182329
0.00022511
2.61563e-05
2.58883e-06
0.010763
0.0017094
0.000215596
2.52575e-05
2.50998e-06
0.012308
0.00185008
0.000231304
2.69833e-05
2.67488e-06
28395.5
31401.4
29020
31209.2
29827.3
30834.3
29923.9
30357.9
29370.6
30132
29880.3
28346.6
29166.5
28285
30375.6
28560.4
31259.8
28617.6
33785.4
4563.79
1230.42
851.707
406.171
26641.3
8082.97
3404.06
2493.42
1146.42
33861.1
4523.98
1216.37
840.912
400.464
26570.5
8041.41
3384.01
2495.03
1157.25
33799.7
4519.85
1218.68
843.809
401.783
26409.9
8031.74
3391.1
2503.86
1162.63
33773.9
4489.79
1210.81
839.187
399.343
26188.3
8026.96
3414.25
2529.49
1174.31
33880.7
4397.04
1175.5
809.241
383.342
26131.1
7962.78
3375.26
2494.65
1155.49
33734.3
4484.91
1220.1
805.112
365.1
25779.3
7829.12
3326.6
2453.24
1135.55
33773.4
4425.94
1192.81
802.877
372.093
25885.1
7863.72
3320.67
2443.35
1130.06
33738
4525.27
1235.33
803.998
359.316
25805.8
7824.51
3332.55
2459.49
1140.41
33814.1
4515.19
1232.29
797.017
353.407
25773
7841.41
3342.64
2468.78
1149.58
37514.2
71943.1
68921.8
34059.7
11622.5
14008.3
18572.8
23394.4
20023.3
28616
38718.2
70766.5
53334.1
89685.3
31052.7
43639.3
20325.7
26157.8
9510.26
12122
304.254
103.667
0.217048
0.0304417
0.0159253
0.0102439
0.0553802
228.816
102.004
37.699
27.1361
7.14364
2.64267
8.73991
1.78751
0.75094
0.810295
0.323039
223.267
29.8934
2.64468
2.03757
8.05733
4.06699
1.38561
0.560026
0.120057
0.0808724
0.632622
0.488006
267.261
68.3973
101.249
20.7964
8.40236
33.9135
1.25965
0.192869
1.97542
457.702
228.733
108.446
45.2774
26.451
165.771
93.6733
45.4949
19.3004
8.86812
0.412207
0.316244
0.181746
0.0883886
0.0457807
0.0598581
0.0487611
0.0295141
0.0150584
0.0081643
0.0316033
0.0261518
0.0160515
0.00829886
0.00456235
0.0206106
0.0174483
0.0109231
0.0057492
0.00321102
0.108722
0.0881526
0.0529454
0.0267723
0.014392
344.792
172.03
78.1295
30.9325
18.5794
151.046
68.3427
27.1381
10.1038
4.89007
60.7966
34.4124
16.0291
6.47808
2.88897
39.4273
17.6673
6.71562
2.37844
0.990814
9.76136
4.34198
1.63729
0.558463
0.217393
4.58283
2.96214
1.46933
0.627994
0.292097
14.4154
8.43732
3.90158
1.57508
0.701146
2.98843
1.79004
0.831769
0.336169
0.149344
1.34899
0.930788
0.484416
0.215403
0.103519
1.42619
0.944936
0.473872
0.203968
0.0954338
0.591409
0.421783
0.224635
0.101716
0.0496566
343.337
180.891
85.5187
35.1099
21.049
49.5625
29.8791
14.7058
6.2472
2.88347
4.69775
3.19221
1.66094
0.739572
0.354661
3.66253
2.54731
1.35303
0.613652
0.298765
13.9276
9.04596
4.61167
2.02104
0.955527
7.29939
5.07121
2.70043
1.22728
0.596651
2.54686
1.84667
1.01579
0.475021
0.236916
1.05258
0.7913
0.445328
0.212219
0.107904
0.227926
0.174208
0.099182
0.0477345
0.0245555
0.155308
0.121265
0.0704973
0.0346175
0.018136
1.15905
0.832015
0.450183
0.207163
0.102286
0.906941
0.668582
0.370436
0.174182
0.0876237
406.925
209.394
99.6532
41.4826
24.3338
110.922
64.2643
31.3909
13.4001
6.18104
166.947
98.7152
48.2539
20.5242
10.0532
35.6394
22.9078
11.7422
5.17143
2.43833
14.8567
10.0747
5.30376
2.38745
1.14772
57.2617
35.8708
18.1594
7.86758
3.64859
2.31799
1.68225
0.923997
0.431392
0.215054
0.367694
0.283418
0.162904
0.0791354
0.0409851
3.58977
2.54667
1.37358
0.631088
0.3102
23349.6
18276.8
22755.6
19784.3
27112.9
56719.8
30946.7
57744.9
21058.7
18426.7
21157.9
21231.8
19494.5
13946.5
37879.8
21218.4
22742.8
31019.3
11469.7
14111.9
23454
29973.7
12542.7
14100.3
37051.7
33149.9
29639.7
20538.5
35618.6
23676.6
13200.5
17045.8
19826.9
20791.6
61110.5
64469.1
29876.6
33497.9
35165.8
27885.2
27820.4
14823.8
14265.8
14967.5
43604.6
55802.7
18668.2
23710.9
45652.1
62587
22818.9
30045.9
38400
70806
23152.6
47446.5
6765.62
26677
4680.53
18596.8
14823.3
13865.1
15317.8
14937
10453.9
8236.86
13471
8990.65
21742.2
27672.6
25148.8
25681
15071.8
15455.2
15008.6
15520
15811.9
9373.51
16563.5
9366.7
18016.6
28563.6
16310.8
28741.6
45906.1
75355.5
52774.6
108419
47980.7
86917.1
50984.6
118222
43290.6
65566
53459.6
103976
42425.8
60289
54144.7
103195
57133.2
56221.4
83458.6
120805
53677.4
49195.3
88006.2
120876
46477
40165
92570
117637
13204.5
7951.39
24257.3
45868.1
102636
6998.1
10532.6
22485.6
36218.3
115829
7015.35
12197.7
22346.9
45096.2
132675
12021.5
4776.44
9788.68
16582.7
14161.4
6234.21
10358.4
16634.7
16020.6
7075.9
11381
16760.1
4745.48
2579.08
7600.58
4227.1
15427.5
8063.35
18721.8
9053.73
11886.9
17685.4
5032.88
2907.39
9026.47
5419.65
15459.6
8648.01
21665.1
11378.8
11241.7
16890.8
9965.94
7321.81
9546.61
7291.89
5654.78
3782.12
5483.51
3845.24
15595.8
10627
16603.8
10947.4
8969.17
7158.95
8835.68
7104.54
5197.59
3914.68
5145.85
3912.59
14550.7
10023.3
14261
9808.91
20145.8
13015.5
10085.5
15000.2
21583.4
13499
10311.8
15225.8
19121.4
12263.3
10231.3
14914.5
18520.9
11819.7
10629.1
14649.7
2645.24
2228.07
1822
1106.98
3492.3
2217.11
2213.6
1418.97
3352.26
1671.96
2692.57
1511.7
1258.9
529.492
2077.43
937.555
3436.05
1440.18
4077.24
1657.33
3859.24
1472.83
1397.39
515.996
2576.23
933.164
3729.56
1245.64
4290.51
1354.18
3355.89
731.553
13272.7
9024.3
24806.2
15120.6
19949.5
12334.3
42363.9
21135
10046.8
4975.69
14126.8
6558.44
9385.35
5146.53
14061.1
6972.21
11776.7
7145.45
9087.86
5866.2
6174.77
9178.33
20924.7
24042.4
29925.2
34161.4
14296.3
17194.6
11953.2
13452.5
10983.6
12890.1
2214.45
758.779
2811.79
914.982
2433.77
750.497
3055.26
900.559
2718.89
750.582
3685.33
1043.05
4209.66
1245.18
4944.72
1292.98
5648.54
3695.44
8535.17
4318.22
8363.88
5899.49
12278.2
6870.12
6270.82
2398.22
4384.29
2065.86
10910.1
4702.55
12104.3
4749.47
15711.5
7473.55
16867
7515.32
7678.91
2609.98
8492.1
2647.64
2323.6
665.029
1096.19
346.097
1655.27
498.027
950.179
297.012
2851.31
812.731
1190.01
373.688
3103.41
900.966
1203.85
374.289
1480.81
924.66
493.679
270.416
1586.95
1017.68
469.49
269.035
1672.65
1051.16
455.8
291.293
3314.55
5226.49
2655.35
1058.19
342.629
4174.89
3063.27
2394.03
903.91
273.593
4798.66
2928.13
1668.78
778.023
239.839
457.067
167.966
126.036
48.7889
515.666
199.158
136.165
56.307
536.201
213.315
156.506
67.5248
2777
1390.44
1776.57
810.994
1136.62
505.736
498.552
217.622
149.792
66.7309
2791
1298.05
1604.08
636.829
867.055
321.15
395.503
141.134
134.629
54.0385
1590.99
532.85
1695.66
553.375
2861.33
1224.21
2980.28
1304.97
891.132
255.082
814.632
244.827
1790.65
573.417
1794.11
574.826
3036.2
1390.39
3016.82
1389.04
967.22
264.382
974.788
266.724
396.315
102.414
136.728
43.0898
361.666
99.7949
128.441
41.6751
437.42
106.607
145.071
44.3549
451.726
109.193
158.549
46.4108
60.2742
28.3192
25.1579
12.3118
77.4543
34.5084
27.4644
12.635
83.2983
35.0715
30.3773
12.2929
617.74
246.255
329.263
120.864
203.172
76.9822
83.1806
28.6874
27.9882
8.84053
525.907
178.22
216.965
68.3564
99.6191
31.36
41.8308
12.0739
20.7921
4.79087
125.723
15.5154
1.80777
0.187306
151.842
18.707
2.17145
0.217988
123.638
15.2713
1.77454
0.183388
153.789
19.4994
2.32983
0.240263
122.419
14.4145
1.7838
0.2034
169.629
20.2421
2.58286
0.296569
208.245
23.8541
2.63137
0.253641
218.083
24.8614
2.572
0.23601
108.029
13.8133
1.80743
0.21539
56.0179
7.27132
0.980583
0.13144
82.7468
10.7431
1.46996
0.196694
49.1724
6.5476
0.901502
0.126361
130.281
16.4752
2.02046
0.217437
60.5574
7.83923
1.02009
0.130834
142.384
17.9306
2.12183
0.222727
61.7782
8.1166
1.04659
0.134415
84.9817
10.8081
1.32462
0.152021
48.0099
6.30837
0.818724
0.10649
81.6321
10.4091
1.28346
0.150346
48.1126
6.29676
0.811975
0.106508
80.2703
9.86782
1.25
0.153713
52.7019
6.52817
0.828147
0.108051
58.2154
7.52688
1.00883
0.13623
46.7318
5.96159
0.798202
0.108909
41.5421
5.73485
0.796252
0.116303
23.9514
3.46839
0.408809
0.0455713
10.6874
2.13974
0.263002
0.0285373
25.6205
3.65464
0.431652
0.0490015
11.7405
2.27695
0.277211
0.0299485
29.7365
3.93783
0.450012
0.0497538
13.9754
2.45551
0.288774
0.0307226
27.1967
3.80365
0.462642
0.0530113
13.1438
2.38623
0.28798
0.0312119
23.8691
3.53121
0.470918
0.0578628
10.471
2.16047
0.273426
0.0305033
23.1984
3.52661
0.450901
0.0540299
8.87766
2.00926
0.266377
0.0302149
22.4574
3.43571
0.450003
0.0545359
8.72717
2.00804
0.263124
0.0298174
24.0361
3.62725
0.440704
0.0508217
9.04255
2.07253
0.269718
0.0302714
26.3418
3.78465
0.448712
0.051281
9.46735
2.15556
0.277166
0.0308646
0.01838
0.00234239
0.000281125
3.21104e-05
3.148e-06
0.020399
0.00253828
0.000299657
3.37676e-05
3.27884e-06
0.018404
0.00243683
0.000292628
3.32782e-05
3.24996e-06
0.0222482
0.00272623
0.000316378
3.52707e-05
3.40383e-06
0.0203685
0.00255943
0.00030072
3.39893e-05
3.31467e-06
0.0264332
0.00287757
0.000325645
3.61029e-05
3.47949e-06
0.0232128
0.00286765
0.000334048
3.72405e-05
3.58887e-06
0.0223671
0.00281251
0.000331965
3.7246e-05
3.59791e-06
0.0215934
0.00266759
0.000311619
3.5132e-05
3.42107e-06
0.0156221
0.0022646
0.000283948
3.32598e-05
3.30654e-06
0.0207514
0.00250426
0.000295911
3.37232e-05
3.30734e-06
0.0154178
0.00223137
0.00027939
3.27284e-05
3.25528e-06
0.0208004
0.00264948
0.000315725
3.5826e-05
3.49367e-06
0.0154818
0.00224914
0.000284629
3.35091e-05
3.33919e-06
0.0213127
0.00263973
0.000313659
3.56351e-05
3.47976e-06
0.015769
0.00225348
0.000283627
3.33368e-05
3.32118e-06
0.016104
0.00210705
0.000258398
3.00726e-05
2.98747e-06
0.0129456
0.00189709
0.000241503
2.86666e-05
2.87989e-06
0.0162598
0.00216087
0.000265885
3.09204e-05
3.06628e-06
0.0131072
0.00194147
0.000247703
2.9386e-05
2.94787e-06
0.01692
0.0022542
0.000275356
3.18952e-05
3.15578e-06
0.0135341
0.00203766
0.000258912
3.05602e-05
3.05374e-06
0.0158368
0.00221432
0.000274981
3.21102e-05
3.19011e-06
0.0136541
0.002123
0.000268444
3.15583e-05
3.14546e-06
0.0144977
0.00218091
0.000274821
3.22565e-05
3.21191e-06
31032.9
32649.7
31138.8
32274.8
31318.2
31665.8
30703.8
30886.8
29706.5
30355.8
29930.3
28382.2
29298
28386.9
30393.5
28571.4
31264.1
28620
34319.5
4601.3
1233.17
851.935
406.175
27032.4
8133.36
3409.35
2494.25
1146.53
34308
4555.73
1218.69
841.019
400.43
26903
8084.6
3388.27
2495.29
1157.2
34114
4542.61
1220.27
843.718
401.682
26655.9
8064.29
3394.04
2503.4
1162.25
33950.3
4503.05
1211.72
839.038
399.247
26344.9
8047.93
3415.98
2528.84
1173.93
33959.3
4402.91
1175.84
809.091
383.274
26208.5
7973.83
3375.97
2494.12
1155.34
33745
4485.67
1220.09
805.076
365.099
25791
7830.59
3326.54
2453.1
1135.52
33802.7
4428.12
1192.88
802.766
372.047
25918.9
7868.3
3320.73
2442.8
1129.87
33741.7
4525.55
1235.32
803.992
359.328
25809.3
7824.92
3332.43
2459.48
1140.48
33815.1
4515.2
1232.26
797.002
353.405
25773.9
7841.56
3342.59
2468.76
1149.59
37300.3
71769.9
68049.6
33304.9
18950.4
29958.2
16908.2
29489
27280.5
64734.5
31666.6
67507.7
4.74896e-06
1.85192e-05
8.66577e-05
0.000417515
0.00209127
0.0109077
1.58101e-05
5.80128e-05
0.000249663
0.00106256
0.00441035
0.0177233
1.55157e-06
6.30355e-07
7.25563e-06
3.53392e-06
3.95808e-05
2.20305e-05
0.000212634
0.000131436
0.00112591
0.000708308
0.0057894
0.00289825
0.0579727
0.291567
1.33058
5.50063
17.213
28.3531
0.0682258
0.245575
0.806358
2.31328
5.21926
7.76877
1.00275e-05
9.31489e-06
6.50453e-06
3.8626e-06
2.42691e-06
3.87122e-05
3.52901e-05
2.41073e-05
1.39678e-05
8.56977e-06
0.000179283
0.000160328
0.000107166
6.06322e-05
3.63513e-05
0.000853604
0.000746937
0.000487502
0.000268884
0.000157284
0.00421578
0.00359588
0.00228433
0.001225
0.000697341
0.0216215
0.0178925
0.011024
0.005732
0.00316702
3.31116e-05
3.02901e-05
2.07739e-05
1.2089e-05
7.44811e-06
0.000120266
0.000107945
7.24356e-05
4.11499e-05
2.4766e-05
0.000512405
0.000451457
0.00029674
0.000164845
9.7077e-05
0.00215741
0.00186364
0.00119906
0.000651243
0.000375218
0.00884863
0.00748009
0.00470485
0.00249639
0.00140619
0.0350878
0.0289578
0.0177792
0.00920802
0.00506712
3.29616e-06
3.09734e-06
2.19295e-06
1.32309e-06
8.44279e-07
1.34746e-06
1.28151e-06
9.20781e-07
5.65086e-07
3.66387e-07
1.52453e-05
1.40327e-05
9.69592e-06
5.69147e-06
3.53726e-06
7.47182e-06
6.95852e-06
4.87435e-06
2.90562e-06
1.83282e-06
8.22565e-05
7.41813e-05
5.00688e-05
2.86396e-05
1.73592e-05
4.61062e-05
4.21151e-05
2.88313e-05
1.67462e-05
1.03012e-05
0.000436817
0.000385626
0.00025416
0.00014168
8.37506e-05
0.000272288
0.000243983
0.000163325
9.25221e-05
5.55407e-05
0.00228445
0.00197102
0.00126675
0.0006874
0.00039582
0.0014528
0.00127731
0.000836313
0.000462246
0.000270842
0.011583
0.00973886
0.00608817
0.00320936
0.00179634
0.00589386
0.0050957
0.00327011
0.00176755
0.00101306
0.112636
0.0899513
0.0535739
0.0269512
0.0144238
0.553433
0.424245
0.243727
0.118555
0.0614323
2.45879
1.79883
0.995695
0.468566
0.235267
9.84237
6.80845
3.62434
1.65012
0.803348
29.5539
18.9907
9.67968
4.27332
2.02866
47.9809
30.0584
15.1409
6.62389
3.1215
0.133044
0.106881
0.0639457
0.0322971
0.0173499
0.470691
0.366777
0.213465
0.10507
0.0550741
1.51524
1.14048
0.644672
0.30915
0.15812
4.24982
3.0752
1.6866
0.788435
0.393913
9.36114
6.49636
3.46291
1.5837
0.776335
13.7846
9.39004
4.94867
2.24327
1.09129
4.73542e-06
1.84364e-05
8.62411e-05
0.000415356
0.00207929
0.0108396
1.57663e-05
5.77613e-05
0.000248531
0.00105768
0.00438932
0.0176369
1.54696e-06
6.28889e-07
7.22224e-06
3.52742e-06
3.938e-05
2.20523e-05
0.00021148
0.000132413
0.00111805
0.000719009
0.00573841
0.00303668
0.0575828
0.289582
1.32148
5.46598
17.1414
28.3173
0.0678887
0.244368
0.802541
2.30365
5.20415
7.76149
9.99928e-06
9.28964e-06
6.48866e-06
3.85516e-06
2.42393e-06
3.85411e-05
3.51403e-05
2.40154e-05
1.3927e-05
8.55507e-06
0.000178434
0.000159606
0.000106742
6.04575e-05
3.63009e-05
0.000849281
0.000743393
0.000485528
0.000268151
0.000157141
0.00419231
0.00357744
0.00227467
0.00122184
0.000697124
0.0214911
0.0177949
0.0109764
0.0057189
0.00316869
3.30204e-05
3.02092e-05
2.07235e-05
1.20658e-05
7.43903e-06
0.000119746
0.000107491
7.21581e-05
4.10262e-05
2.47211e-05
0.000510092
0.000449477
0.000295563
0.000164345
9.69149e-05
0.00214754
0.00185538
0.00119431
0.000649335
0.000374695
0.00880665
0.00744579
0.0046857
0.0024891
0.00140451
0.0349174
0.028822
0.0177058
0.00918163
0.00506233
3.28643e-06
3.08859e-06
2.18755e-06
1.32061e-06
8.43436e-07
1.3445e-06
1.27898e-06
9.19354e-07
5.64452e-07
3.66571e-07
1.5177e-05
1.39739e-05
9.6612e-06
5.67729e-06
3.53339e-06
7.45929e-06
6.94958e-06
4.87175e-06
2.90781e-06
1.83709e-06
8.18543e-05
7.38524e-05
4.98887e-05
2.85778e-05
1.73538e-05
4.61623e-05
4.21916e-05
2.89154e-05
1.68249e-05
1.03721e-05
0.00043457
0.000383902
0.000253315
0.000141476
8.3832e-05
0.000274397
0.000246084
0.000164986
9.369e-05
5.64081e-05
0.00226964
0.00196042
0.00126214
0.000686743
0.00039678
0.00147542
0.00129888
0.000852462
0.00047286
0.00027824
0.0114919
0.00968101
0.00606832
0.00321134
0.00180614
0.00617911
0.00535212
0.00344641
0.00187217
0.00107919
0.111905
0.0894274
0.0533333
0.0268948
0.0144422
0.549769
0.421703
0.24261
0.118323
0.0615434
2.44223
1.78758
0.990772
0.467487
0.235662
9.77951
6.76531
3.60445
1.64473
0.80374
29.4197
18.8911
9.62752
4.25453
2.02465
47.913
30.0062
15.1124
6.61295
3.11857
0.132388
0.106371
0.063678
0.0322058
0.0173374
0.468369
0.365009
0.212558
0.104771
0.0550406
1.50797
1.13502
0.641901
0.308235
0.15801
4.23153
3.06149
1.67956
0.786016
0.393519
9.33208
6.47392
3.4508
1.57913
0.775207
13.7704
9.37883
4.94245
2.2408
1.0906
303.715
103.509
0.21484
0.0301083
0.01825
0.0106198
0.0546548
220.157
100.823
36.8929
27.2681
2.64966
8.47803
0.812004
1.14879
0.411768
217.552
29.2784
2.61714
2.00882
7.91336
4.01348
1.37109
0.55352
0.14155
0.0870886
0.636768
0.482453
265.426
68.0217
99.6898
20.6033
8.3056
33.3842
1.24477
0.18967
1.94965
456.711
228.007
108.076
45.1514
26.436
165.478
93.4554
45.3779
19.2574
8.85809
0.408379
0.314003
0.18111
0.0885563
0.0461812
0.0592592
0.0483789
0.0293798
0.0150621
0.00821446
0.0362831
0.0301543
0.0186301
0.00971688
0.00539394
0.0214099
0.0182038
0.0114655
0.00608237
0.00342672
0.10751
0.0875436
0.0528914
0.0269549
0.0146208
338.335
178.763
85.3006
35.3224
21.6313
155.985
80.4528
36.7829
15.2794
7.46419
60.567
35.943
17.6766
7.52092
3.47615
42.9264
22.8
10.3988
4.32205
1.92083
4.67344
3.14391
1.63643
0.734121
0.354843
14.3131
8.88816
4.4112
1.90776
0.89007
1.48362
1.06175
0.575993
0.267175
0.133173
2.08803
1.47777
0.792019
0.363129
0.178985
0.768203
0.569763
0.317115
0.1502
0.0763008
336.053
179.498
86.3082
36.1782
22.0762
48.8142
29.8664
14.9803
6.50424
3.06894
4.68086
3.23284
1.71759
0.783103
0.384323
3.62585
2.54686
1.37098
0.631987
0.313099
13.7416
9.02875
4.67437
2.08678
1.00616
7.21812
5.04046
2.70424
1.24139
0.610695
2.52231
1.83298
1.01213
0.476081
0.239252
1.04269
0.787986
0.446789
0.215018
0.110565
0.270547
0.209758
0.121564
0.0597193
0.03137
0.168025
0.132479
0.0779658
0.0388514
0.0206749
1.17498
0.856871
0.472872
0.222578
0.112431
0.900239
0.669723
0.375621
0.179288
0.0916663
403.68
207.186
98.607
41.1698
24.3555
110.241
63.7855
31.1499
13.3188
6.16807
164.544
97.6318
48.0157
20.6169
10.2433
35.3122
22.7131
11.6677
5.16093
2.44982
14.6977
9.99059
5.28173
2.39323
1.16064
56.4686
35.5569
18.1468
7.9514
3.73942
2.2945
1.67209
0.924083
0.435082
0.219089
0.362532
0.281055
0.162833
0.0799141
0.0418699
3.55192
2.53533
1.37946
0.641017
0.319191
0.34766
0.72314
1.6202
3.12741
4.65647
2.64007
19795.8
18904.1
17627.2
20340.7
15028.8
13262.5
13704.9
10150.6
21651.6
44321.3
20510.2
40847.3
23329.1
15436.3
43677.3
16077.3
15147.1
13695.9
15617.8
11624.7
10248.5
10828
8241.85
19939.1
48523.4
18410.6
42839.7
20759.8
19623.4
41905
11496.5
10616.5
8678.2
9740.46
8185.09
7513.74
7023.4
5624.34
18848.2
30480.3
17992.1
27590
18021.6
18380.4
27146.1
6844.31
6244.84
4505.52
5006.31
4859.03
4470.39
3636.63
2959.35
11022.2
17118.5
10443.5
14642.7
9987
10146.4
13838.7
3446.26
3088.92
2121.95
2349.08
2600.25
2455.58
1714.14
1449.09
5926.16
8081.26
5584.85
6387.88
4873.85
4208.82
5774.26
1653.28
1469.98
878.189
975.34
1223.44
1105.03
725.646
616.927
3001.58
3246.81
2720.6
2513.87
2202.91
1472.05
2291.81
12360.6
10458.7
15741
18828.8
8259.37
6254.79
11480.4
8056.89
7071.38
2746.49
6434.63
2739.69
4584
3648.41
3336.55
9211.6
7871.97
11457.9
13511.8
6335.58
4932.37
8596.64
6122.33
4672.96
1783.12
4269.84
1774.88
2877.14
2138.86
1886.18
5172.42
4484.37
6365.3
7336.2
3673.31
2859.19
4985.11
3661.79
2558.04
938.986
2203.88
856.549
1460.38
861.841
940.661
2216.72
1946.34
2897.09
3278.9
1605.57
1222.87
2365.61
1750.38
1040.25
375.318
890.957
340.564
584.163
336.37
372.124
881.18
782.913
1243.11
1389.24
619.867
449.539
1051.18
781.494
388.002
170.252
326.102
145.529
235.141
165.485
157.221
303.665
271.573
482.082
535.121
220.85
176.355
410.642
323.808
132.214
69.0087
112.299
64.1503
91.0364
87.0085
76.1313
18924.5
10328
27171.2
19471.3
28754.6
23713
38960.9
62951.2
54544
83456
37929.7
38007.3
23813.7
22302.5
13058.2
8996.6
22645.5
18127.1
21484.7
21043.4
26875.1
17498.6
41127.1
22963.6
14887.5
16130.1
8358.06
9444.2
14593.5
18166.2
9144.92
11428.1
35538.2
31079.7
27835.7
17117.6
25134.4
20577.5
13415.6
17057.9
19795.5
20771.8
61630.6
64525.4
30436.4
33609.7
34408.5
27731.6
26854.7
14652.5
13323.4
14760.4
26754.9
42600.9
13534.2
19084.7
32154.8
52645.5
19254.4
26948.5
28997.9
63948.9
20276.9
44368.1
6150.97
25731.3
4569.81
18434.1
12791.7
13734.6
14858.9
14866.7
11187.2
8569.79
14037.6
9140.3
19914
27387.5
19685.3
25106.4
14962.3
15426.3
14990
15512.2
16047.6
9430.39
16617.5
9379.64
17447.1
28448.7
16198.3
28713.6
44722.7
73906.5
52348.7
107980
45775.1
84103.5
50078.1
117159
42817.5
64971.9
53291.5
103804
42315.1
60146.3
54105.6
103152
23511.9
28020.4
61040.1
97930.7
26363.4
27427.9
72460.4
105247
28201.7
25649.3
83345.3
108601
17800.9
9788.52
27670.3
45152.4
98966.4
8697.46
15798
25479.4
36056.9
111471
8122.81
13649.8
22998.9
44153.1
130652
3526.53
2424.72
1455.67
13108.1
5371.83
3301.45
4387.82
14002.9
7538.21
3357.73
7701.9
15096.8
5926.51
3346.29
10708
6003.61
16986.8
8788.98
18374.1
8809.88
10239.2
16857
5746.12
3299.41
10219.3
6042.58
16150.1
8984.29
21146.6
11061.1
10545.4
16619.8
10226.4
7532.38
9599.06
7347.45
5953.72
3951.05
5595.23
3909.58
15550
10623.3
16634
11018.7
8981.7
7172.31
8837.59
7106.87
5235.8
3936
5154.45
3917.18
14527.6
10016.5
14255.2
9806.93
20018.4
12958.1
9968.65
14935.3
21316.5
13371.6
10005.2
15044.3
19072.8
12241.9
10189.6
14893.4
18509.1
11814.8
10618.7
14645
1034.04
273.3
67.4463
511.334
115.966
36.7858
1574.98
285.427
73.8621
956.859
296.989
51.8138
1318.01
289.406
83.015
1693.03
429.341
97.4844
1287.77
345.696
84.4509
2210.55
588.233
143.387
2758.34
703.12
170.241
2939.03
729.648
169.258
2634.42
513.466
96.4069
1413.55
390.646
90.0808
2531.59
662.454
145.059
3395.19
797.554
158.979
3552.17
778.822
149.598
2771.06
514.794
80.3217
18343
12991.3
26415.1
16782.5
27779.2
16837.1
45657
23119.4
8563.32
5018.47
9554.36
5257.3
10634.1
6156.74
12308.5
6504.71
12361.4
9600.38
10339.8
8613.66
8249.93
9478.03
21606.4
24219.6
30695.7
34343.6
14663.7
17313.3
12445.5
13562.2
11184.3
12968.1
2350.68
667.83
2434.94
783.58
2859.85
715.988
2882.74
822.326
3412.38
778.457
3706.45
1025.03
4239.51
1234.4
4961.8
1290.17
7473.79
4242.1
9312.44
4577.02
10483.9
6716.98
13307.4
7230.37
6779.59
2530.06
5746.52
2315.51
11236.8
4808.4
12186.8
4775.47
16117.4
7612.63
16962.7
7548.27
7891.2
2667
8547.39
2661.99
2480.63
676.018
1139.06
352.641
1905.45
501.384
1018.7
301.255
2922.47
818.797
1209.82
377.257
3121.93
902.714
1208.91
375.207
149.56
37.8236
190.418
51.9743
158.401
45.7126
205.926
64.6075
202.515
79.5713
241.931
97.4
1904.62
4447.66
1075.52
730.078
264.12
3456.04
1503.86
561.843
445.055
159.363
4625.67
2589.49
1425.24
666.313
208.889
7.30133
1.0664
13.1217
4.06822
9.3638
1.36151
17.9163
5.69913
20.7912
3.73444
31.394
10.2055
2323.29
1248.02
847.923
384.54
304.844
121.028
185.57
56.7649
66.8909
21.9715
2628.63
1266.57
1239.74
474.358
604.175
196.411
272.198
81.5934
100.031
35.1953
1642.36
511.817
1764.97
564.911
3011.25
1255.47
3085.85
1335.27
922.625
257.766
816.784
221.207
1824.26
581.733
1802.84
577.135
3080.29
1404.94
3027.58
1392.57
985.195
268.142
979.707
267.881
405.378
101.88
137.496
42.1813
352.247
86.3906
122.095
35.8844
443.922
107.643
146.234
44.3831
453.639
109.57
158.98
46.469
0.162534
0.0439078
0.0109558
1.69958
0.152345
0.03023
-0.0629183
0.067371
0.0195352
2.13072
0.210693
0.0508672
0.497728
0.276227
0.0853367
3.23749
0.402907
0.105194
462.742
128.102
32.8505
133.707
38.238
10.3174
38.2211
10.8056
3.09367
13.131
3.26083
0.900244
5.94524
0.871345
0.216392
480
127.987
28.4125
147.151
35.4775
7.67869
48.8922
10.133
2.15759
18.226
3.34778
0.662598
10.8431
1.25367
0.217935
98.0486
11.4618
1.30375
0.134674
124.145
14.7257
1.66464
0.164525
103.531
12.0265
1.3605
0.140515
134.379
16.4894
1.92145
0.195269
111.648
12.2259
1.4658
0.166464
158.727
18.2885
2.27566
0.257044
201.792
22.6471
2.45649
0.233315
216.042
24.4611
2.51616
0.229692
105.296
13.0521
1.66744
0.194645
55.6063
7.0588
0.932643
0.122681
77.3963