/*--------------------------------*- C++ -*----------------------------------*\
| =========                 |                                                 |
| \\      /  F ield         | OpenFOAM: The Open Source CFD Toolbox           |
|  \\    /   O peration     | Version:  2306                                  |
|   \\  /    A nd           | Website:  www.openfoam.com                      |
|    \\/     M anipulation  |                                                 |
\*---------------------------------------------------------------------------*/
FoamFile
{
    version     2.0;
    format      ascii;
    arch        "LSB;label=32;scalar=64";
    class       volVectorField;
    location    "3";
    object      flux;
}
// * * * * * * * * * * * * * * * * * * * * * * * * * * * * * * * * * * * * * //

dimensions      [0 1 -1 1 0 0 0];

internalField   nonuniform List<vector> 
5322
(
(-2.16556e-06 5.53254e-06 -7.37142e-06)
(1.08834e-07 6.39106e-07 -6.87795e-06)
(1.1826e-07 1.39544e-07 -6.0391e-06)
(1.90651e-10 1.92699e-08 -6.53337e-06)
(-7.97496e-09 1.10026e-07 -5.27689e-06)
(-7.29049e-09 1.48791e-07 -4.16868e-06)
(-5.36263e-09 1.44389e-07 -3.223e-06)
(-3.98824e-09 1.26976e-07 -2.45272e-06)
(-3.21038e-09 1.10531e-07 -1.8627e-06)
(-2.33269e-09 9.14067e-08 -1.45567e-06)
(-1.7573e-09 2.59284e-08 -1.20113e-06)
(1.27455e-08 -2.20944e-07 -1.11973e-06)
(1.88538e-08 -2.33248e-07 -8.17241e-07)
(-2.58508e-07 -2.11568e-07 -1.14173e-06)
(-5.20847e-09 -1.87469e-07 -1.25946e-06)
(4.68295e-07 4.16326e-07 -1.03713e-06)
(-3.66492e-07 5.52758e-07 -1.21994e-06)
(-6.41876e-10 -3.73871e-09 -9.42857e-07)
(-2.91735e-07 4.07763e-07 -1.3833e-06)
(2.29649e-07 -5.43179e-07 -1.52118e-06)
(-3.09171e-07 5.66765e-07 -1.74142e-06)
(3.46144e-07 -6.74418e-07 -1.95239e-06)
(-3.66355e-07 7.37778e-07 -2.2744e-06)
(4.82939e-07 -8.9492e-07 -2.5984e-06)
(-4.98278e-07 9.99725e-07 -3.0314e-06)
(6.23288e-07 -1.15784e-06 -3.41677e-06)
(-6.27709e-07 1.28611e-06 -3.96002e-06)
(8.34229e-07 -1.53339e-06 -4.47195e-06)
(-8.34634e-07 1.68988e-06 -5.12171e-06)
(1.04513e-06 -1.92219e-06 -5.66869e-06)
(-9.92989e-07 2.11187e-06 -6.4053e-06)
(1.38357e-06 -2.39512e-06 -7.05585e-06)
(-1.02586e-06 2.67462e-06 -7.8052e-06)
(1.88939e-06 -2.55544e-06 -8.3154e-06)
(1.36937e-07 2.58808e-06 -8.61201e-06)
(2.71022e-06 -1.43956e-06 -7.49105e-06)
(1.9202e-06 2.88281e-06 -8.79929e-06)
(-7.615e-07 3.52887e-06 -8.72906e-06)
(2.11502e-06 1.78119e-06 -8.9975e-06)
(-1.2505e-07 1.98916e-06 -6.55356e-06)
(-2.00709e-06 2.60727e-06 -8.34317e-06)
(2.01334e-06 2.18826e-06 -8.61222e-06)
(-1.21961e-07 2.33089e-06 -6.42691e-06)
(-2.14101e-06 2.43641e-06 -8.61727e-06)
(2.12961e-06 2.32378e-06 -8.53079e-06)
(-7.29916e-08 2.37628e-06 -6.54e-06)
(-2.27539e-06 2.36091e-06 -8.74235e-06)
(2.0012e-06 2.52342e-06 -8.2625e-06)
(-4.78473e-08 2.4178e-06 -6.46965e-06)
(-2.38817e-06 2.24057e-06 -8.59769e-06)
(-2.36908e-06 2.82575e-06 -9.79541e-06)
(-3.40791e-06 1.27848e-06 -6.69568e-06)
(-1.11876e-06 1.48794e-06 -9.32116e-06)
(2.1758e-06 -4.63842e-06 -8.32361e-06)
(-1.43015e-07 -2.29063e-07 -7.48041e-06)
(-3.56052e-06 -2.66705e-06 -7.88312e-06)
(-1.08295e-07 1.45874e-06 -9.70584e-06)
(3.38657e-06 -3.47739e-06 -7.73603e-06)
(-4.10055e-08 -1.701e-07 -7.5045e-06)
(-3.38593e-06 -3.02159e-06 -7.86743e-06)
(-1.47605e-08 1.4804e-06 -9.80969e-06)
(3.29846e-06 -3.41762e-06 -7.83992e-06)
(-1.76085e-08 -1.51324e-07 -7.50354e-06)
(-3.32538e-06 -2.99945e-06 -7.6749e-06)
(2.64473e-09 1.48695e-06 -9.80918e-06)
(3.25365e-06 -3.54383e-06 -8.11833e-06)
(4.73475e-08 -2.05513e-07 -7.47679e-06)
(-3.2933e-06 -2.90868e-06 -7.29888e-06)
(1.68218e-07 1.50735e-06 -9.61692e-06)
(2.71365e-06 -3.94497e-06 -8.6608e-06)
(1.49313e-07 1.21834e-07 -6.22163e-06)
(-2.6444e-06 3.13514e-06 -9.27028e-06)
(3.00207e-06 1.74094e-06 -8.82321e-06)
(-3.09618e-06 2.43948e-06 -8.69275e-06)
(2.97954e-06 1.81553e-06 -8.77698e-06)
(-3.03542e-06 2.30603e-06 -8.7348e-06)
(3.03836e-06 1.91949e-06 -8.7289e-06)
(-3.03892e-06 2.29882e-06 -8.70554e-06)
(3.46119e-06 1.95537e-06 -8.84077e-06)
(-2.52968e-06 2.73627e-06 -8.42882e-06)
(1.1992e-06 2.10734e-07 -8.16679e-06)
(-1.80147e-06 1.03941e-06 -6.55331e-06)
(-1.20743e-06 1.52884e-06 -6.79603e-06)
(1.9189e-06 2.45021e-06 -8.79779e-06)
(1.66066e-07 -1.66803e-07 -5.73115e-06)
(-8.90542e-07 -9.07573e-07 -7.82768e-06)
(1.37417e-06 3.19276e-07 -1.12794e-05)
(-3.78129e-06 6.09364e-07 -7.26499e-06)
(-1.23317e-06 1.27467e-06 -7.30671e-06)
(4.21322e-06 1.79482e-07 -6.37039e-06)
(-1.89689e-07 3.41635e-07 -7.89711e-06)
(4.75855e-08 6.18371e-08 -5.85541e-06)
(8.41111e-08 8.80113e-09 -6.17006e-06)
(5.02176e-07 8.70956e-09 -6.15292e-06)
(2.57536e-06 3.10324e-06 -7.84971e-06)
(-5.30116e-07 -1.76322e-06 -7.40251e-06)
(1.40944e-08 5.68178e-08 -7.07386e-06)
(-2.07853e-07 1.78185e-06 -7.50219e-06)
(1.41451e-06 5.38251e-08 -1.14697e-05)
(-3.34179e-06 -8.36717e-08 -7.05453e-06)
(-3.33621e-06 3.09014e-07 -7.13506e-06)
(6.95279e-06 5.59467e-08 -6.46226e-06)
(-2.08309e-07 1.9017e-06 -7.56156e-06)
(1.99143e-06 -3.01907e-06 -7.76382e-06)
(3.24957e-06 2.70829e-06 -8.47194e-06)
(4.91525e-08 5.87927e-08 -6.87916e-06)
(3.18962e-08 -5.88219e-08 -7.24049e-06)
(2.67064e-08 -7.74032e-09 -6.58915e-06)
(1.35669e-08 1.40977e-09 -5.33697e-06)
(4.82319e-09 5.6663e-09 -4.22921e-06)
(8.33477e-10 5.36454e-09 -3.27094e-06)
(-8.82657e-10 4.3063e-09 -2.48379e-06)
(-2.21266e-09 3.99326e-09 -1.87559e-06)
(-3.65e-09 4.2375e-09 -1.45499e-06)
(4.18929e-09 -3.64637e-09 -1.38282e-06)
(-1.97258e-09 1.81954e-09 -1.28541e-06)
(-1.52601e-07 1.56369e-07 -9.12039e-07)
(-1.48785e-07 -6.18651e-08 -9.80792e-07)
(1.77531e-08 -2.36782e-08 -1.35602e-06)
(9.36141e-08 -1.17932e-07 -1.07641e-06)
(4.41288e-09 1.46021e-07 -9.42576e-07)
(1.40033e-07 -7.70017e-08 -1.13068e-06)
(-1.67819e-07 -1.52517e-07 -1.1148e-06)
(-1.28297e-08 -2.10614e-07 -1.56136e-06)
(-4.06614e-08 -2.37104e-07 -1.16783e-06)
(2.60725e-07 -9.38232e-09 -1.52972e-06)
(2.13174e-07 1.75328e-07 -1.10434e-06)
(5.77292e-08 -1.31408e-07 -1.15317e-06)
(1.67185e-07 1.25574e-08 -1.50423e-06)
(1.06561e-07 1.44093e-07 -1.10096e-06)
(8.04247e-08 -1.43301e-07 -1.12978e-06)
(1.79584e-07 6.12603e-09 -1.51837e-06)
(8.89077e-08 1.49705e-07 -1.11821e-06)
(9.55507e-08 -1.53549e-07 -1.10908e-06)
(1.82697e-07 -4.94459e-09 -1.52512e-06)
(7.7437e-08 1.39595e-07 -1.13329e-06)
(1.51728e-07 -1.67692e-07 -1.1153e-06)
(2.07794e-07 -1.35483e-08 -1.56551e-06)
(2.34749e-07 -4.06589e-08 -1.16992e-06)
(9.96591e-09 2.57399e-07 -1.53152e-06)
(-1.73457e-07 2.11973e-07 -1.10808e-06)
(8.6132e-09 -1.42846e-07 -9.46282e-07)
(1.1767e-07 9.42023e-08 -1.07731e-06)
(-1.43863e-07 7.30821e-08 -9.6758e-07)
(-1.55914e-07 -1.53108e-07 -9.14055e-07)
(2.41367e-08 1.84741e-08 -1.35696e-06)
(6.22582e-08 -1.48398e-07 -9.81446e-07)
(3.32844e-08 1.16118e-07 -9.75458e-07)
(-1.21919e-07 1.2033e-07 -9.02965e-07)
(-1.34247e-07 -1.32896e-07 -9.09498e-07)
(2.73553e-08 -1.89164e-09 -1.35874e-06)
(3.77304e-08 -1.22683e-07 -9.76828e-07)
(4.61649e-08 1.23552e-07 -9.73179e-07)
(-1.32643e-07 1.34766e-07 -9.04201e-07)
(-1.25202e-07 -1.20029e-07 -9.10495e-07)
(2.76268e-08 -3.66961e-10 -1.35797e-06)
(2.39131e-08 -1.13695e-07 -9.77984e-07)
(7.44229e-08 1.45715e-07 -9.66723e-07)
(-1.42832e-07 -8.135e-09 -9.45295e-07)
(1.87423e-07 -5.42645e-09 -1.25997e-06)
(-4.14454e-07 4.68549e-07 -1.03615e-06)
(-5.51477e-07 -3.65719e-07 -1.22225e-06)
(5.18407e-07 4.35105e-07 -1.53071e-06)
(-6.53155e-07 -5.09398e-07 -1.63676e-06)
(-3.0743e-08 2.00571e-08 -9.83962e-07)
(-4.09284e-07 -2.89067e-07 -1.38495e-06)
(6.16206e-09 -8.37575e-10 -9.43641e-07)
(3.82055e-07 8.30762e-09 -1.239e-06)
(-8.99952e-08 -4.71064e-08 -8.22872e-07)
(4.29564e-07 1.29313e-07 -1.10564e-06)
(2.1221e-07 -2.58398e-07 -1.14373e-06)
(3.17412e-07 2.57595e-07 -1.06403e-06)
(-4.97215e-07 -4.48791e-07 -1.14423e-06)
(1.89311e-07 1.31196e-09 -1.29152e-06)
(-4.2886e-07 4.59042e-07 -1.09377e-06)
(3.08646e-07 -4.88146e-07 -1.44767e-06)
(4.01587e-07 5.08123e-07 -1.43636e-06)
(-5.35158e-07 -5.70852e-07 -1.52363e-06)
(2.75761e-08 2.69188e-09 -1.20836e-06)
(-4.54826e-07 5.63044e-07 -1.52182e-06)
(4.53587e-07 -6.48341e-07 -1.75408e-06)
(5.64082e-07 6.72452e-07 -1.75619e-06)
(-6.78373e-07 -7.61751e-07 -1.97511e-06)
(1.91389e-08 3.27231e-09 -1.54553e-06)
(-5.68597e-07 7.46032e-07 -1.97814e-06)
(6.23883e-07 -8.61993e-07 -2.28528e-06)
(7.62292e-07 8.90888e-07 -2.28698e-06)
(-8.95614e-07 -1.01818e-06 -2.6143e-06)
(2.97392e-08 3.45934e-09 -2.04159e-06)
(-7.47745e-07 9.97001e-07 -2.61771e-06)
(8.41166e-07 -1.1495e-06 -3.02761e-06)
(1.02224e-06 1.18685e-06 -3.02947e-06)
(-1.19172e-06 -1.35206e-06 -3.45604e-06)
(4.06703e-08 4.56722e-09 -2.70844e-06)
(-9.95635e-07 1.32501e-06 -3.46189e-06)
(1.1049e-06 -1.51881e-06 -3.97916e-06)
(1.34764e-06 1.56827e-06 -3.98381e-06)
(-1.57641e-06 -1.76513e-06 -4.49717e-06)
(5.22623e-08 6.90955e-09 -3.54797e-06)
(-1.32012e-06 1.72984e-06 -4.50803e-06)
(1.40551e-06 -1.97177e-06 -5.13512e-06)
(1.73252e-06 2.03621e-06 -5.1458e-06)
(-2.05518e-06 -2.24655e-06 -5.72294e-06)
(6.71731e-08 9.80344e-09 -4.55098e-06)
(-1.7189e-06 2.19646e-06 -5.74068e-06)
(1.72177e-06 -2.49309e-06 -6.46391e-06)
(2.15997e-06 2.57198e-06 -6.4845e-06)
(-2.59643e-06 -2.73624e-06 -7.10359e-06)
(9.06615e-08 1.34904e-08 -5.67255e-06)
(-2.14376e-06 2.65998e-06 -7.13251e-06)
(1.98906e-06 -3.02713e-06 -7.79481e-06)
(2.47898e-06 3.05283e-06 -7.81576e-06)
(-4.718e-07 -1.76734e-06 -7.48807e-06)
(1.35298e-06 -1.12465e-08 -1.14712e-05)
(-3.31036e-06 -1.80428e-07 -7.05335e-06)
(-3.37596e-06 8.73389e-08 -7.03087e-06)
(6.98659e-06 -5.84973e-08 -6.483e-06)
(-2.86904e-07 -2.80867e-09 -8.92104e-06)
(-3.07889e-07 1.75212e-08 -8.8996e-06)
(9.68895e-08 2.67313e-08 -6.17047e-06)
(5.44761e-07 1.71159e-09 -6.15917e-06)
(2.5626e-06 3.10728e-06 -7.832e-06)
(-3.9959e-07 -1.76009e-06 -7.46334e-06)
(4.0104e-08 9.93473e-09 -7.00526e-06)
(-4.67603e-07 2.11072e-06 -7.58139e-06)
(1.29556e-06 -3.1586e-07 -1.14539e-05)
(-3.36762e-06 -1.26891e-07 -7.09745e-06)
(-3.31958e-06 1.08716e-07 -7.02457e-06)
(6.9445e-06 -1.15776e-07 -6.49798e-06)
(-2.64765e-07 1.77195e-06 -7.45803e-06)
(1.99073e-06 -3.06024e-06 -7.80309e-06)
(1.12051e-08 1.89101e-08 -7.06924e-06)
(5.15737e-08 1.36939e-08 -7.08638e-06)
(3.19013e-08 3.82482e-08 -6.57708e-06)
(1.77584e-08 2.15537e-08 -5.33825e-06)
(7.34678e-09 9.45998e-09 -4.23382e-06)
(2.07895e-09 3.19498e-09 -3.27454e-06)
(-3.2436e-10 2.18592e-10 -2.48599e-06)
(-1.96903e-09 -1.81532e-09 -1.87678e-06)
(-3.30817e-09 -3.5236e-09 -1.45557e-06)
(4.16121e-09 4.09717e-09 -1.38328e-06)
(-1.85519e-09 -1.96722e-09 -1.28624e-06)
(1.2044e-07 -1.25416e-07 -9.09222e-07)
(-1.34044e-07 -1.33953e-07 -9.07207e-07)
(1.33917e-07 -1.34141e-07 -9.0654e-07)
(-1.20647e-07 -1.25565e-07 -9.08839e-07)
(3.69993e-10 2.82072e-08 -1.35783e-06)
(1.20531e-07 4.24181e-08 -9.73035e-07)
(-1.13171e-07 2.57009e-08 -9.77769e-07)
(-3.7894e-10 -1.66525e-07 -9.69013e-07)
(-1.39141e-07 8.34333e-08 -1.12982e-06)
(1.54735e-10 -1.72894e-07 -1.61961e-06)
(-1.20229e-07 4.24005e-08 -9.73255e-07)
(1.18105e-10 2.82627e-08 -1.35813e-06)
(1.13233e-07 2.5873e-08 -9.77896e-07)
(4.5373e-09 -1.70855e-07 -1.61012e-06)
(1.29794e-07 5.75688e-08 -1.15073e-06)
(-1.07229e-08 1.62683e-07 -1.50038e-06)
(-1.40663e-07 1.03537e-07 -1.10079e-06)
(3.63104e-10 -1.66497e-07 -9.6943e-07)
(1.39068e-07 8.36493e-08 -1.12989e-06)
(-8.93083e-11 1.76643e-07 -1.50066e-06)
(5.01399e-11 2.46976e-07 -8.059e-07)
(2.50791e-07 2.63839e-07 -1.0979e-06)
(-4.47287e-07 -4.5228e-07 -1.09442e-06)
(4.47157e-07 -4.51436e-07 -1.0932e-06)
(-4.41638e-07 -4.85361e-07 -1.14474e-06)
(5.01213e-07 3.80987e-07 -1.43583e-06)
(-5.63601e-07 -5.14296e-07 -1.52413e-06)
(6.63388e-07 5.34802e-07 -1.75606e-06)
(-7.51468e-07 -6.47278e-07 -1.97549e-06)
(8.78597e-07 7.22672e-07 -2.28756e-06)
(-1.00421e-06 -8.5234e-07 -2.61446e-06)
(1.17041e-06 9.69627e-07 -3.03081e-06)
(-1.33358e-06 -1.13291e-06 -3.45629e-06)
(1.54673e-06 1.27886e-06 -3.98628e-06)
(-1.74079e-06 -1.49842e-06 -4.49732e-06)
(2.00891e-06 1.64558e-06 -5.15062e-06)
(-2.21548e-06 -1.95661e-06 -5.72153e-06)
(2.54008e-06 2.05864e-06 -6.49409e-06)
(-2.70034e-06 -2.48419e-06 -7.09624e-06)
(3.06995e-06 2.47668e-06 -7.8692e-06)
(-1.75041e-06 -4.7353e-07 -7.39681e-06)
(4.24237e-08 1.43903e-06 -1.14742e-05)
(1.77275e-06 -2.92477e-07 -7.53424e-06)
(5.07444e-08 2.20942e-08 -7.07246e-06)
(-2.99029e-06 2.14449e-06 -7.77775e-06)
(2.63125e-06 -2.28666e-06 -7.15171e-06)
(1.53167e-08 9.75324e-08 -5.67664e-06)
(-2.46343e-06 1.86632e-06 -6.46357e-06)
(2.16938e-06 -1.849e-06 -5.74961e-06)
(9.648e-09 7.05385e-08 -4.55419e-06)
(-1.94843e-06 1.52491e-06 -5.13895e-06)
(1.70736e-06 -1.42491e-06 -4.51158e-06)
(6.04076e-09 5.39021e-08 -3.55004e-06)
(-1.50087e-06 1.1972e-06 -3.98287e-06)
(1.30737e-06 -1.07576e-06 -3.46311e-06)
(3.70056e-09 4.13932e-08 -2.70962e-06)
(-1.13591e-06 9.10361e-07 -3.03045e-06)
(9.83619e-07 -8.07354e-07 -2.61788e-06)
(2.54744e-09 2.99528e-08 -2.04223e-06)
(-8.51842e-07 6.75463e-07 -2.28785e-06)
(7.36092e-07 -6.11922e-07 -1.97742e-06)
(2.3195e-09 1.91e-08 -1.54582e-06)
(-6.40917e-07 4.91589e-07 -1.75685e-06)
(5.55206e-07 -4.85799e-07 -1.52041e-06)
(2.02751e-09 2.72117e-08 -1.20822e-06)
(-4.81895e-07 3.34218e-07 -1.44977e-06)
(4.90331e-10 -3.14288e-08 -1.14268e-06)
(4.8239e-07 3.34049e-07 -1.4485e-06)
(-5.54543e-07 -4.86169e-07 -1.52177e-06)
(-2.05835e-09 2.72361e-08 -1.20835e-06)
(-4.99902e-07 3.82804e-07 -1.43714e-06)
(4.41466e-07 -4.82826e-07 -1.14477e-06)
(-8.76818e-10 1.89224e-07 -1.29178e-06)
(-2.52721e-07 3.06604e-07 -1.06229e-06)
(-1.63914e-08 2.26063e-07 -8.15415e-07)
(2.56856e-07 2.13933e-07 -1.14706e-06)
(-4.63254e-07 -4.25193e-07 -1.03833e-06)
(4.81691e-07 3.02736e-07 -1.45316e-06)
(-5.56107e-07 -4.65133e-07 -1.52439e-06)
(6.31477e-07 4.69944e-07 -1.7534e-06)
(-7.27048e-07 -5.83292e-07 -1.98346e-06)
(8.40034e-07 6.51923e-07 -2.28841e-06)
(-9.6509e-07 -7.69812e-07 -2.62152e-06)
(1.12246e-06 8.81027e-07 -3.03756e-06)
(-1.27854e-06 -1.0278e-06 -3.46466e-06)
(1.48899e-06 1.16206e-06 -3.99956e-06)
(-1.66606e-06 -1.36943e-06 -4.50858e-06)
(1.94708e-06 1.49311e-06 -5.17995e-06)
(-2.10972e-06 -1.79205e-06 -5.7199e-06)
(2.48531e-06 1.86005e-06 -6.55865e-06)
(-2.53403e-06 -2.2069e-06 -7.03736e-06)
(3.01868e-06 2.17357e-06 -7.90904e-06)
(-1.72902e-06 -2.77687e-07 -7.44465e-06)
(-4.12399e-07 1.06876e-06 -1.1338e-05)
(7.32737e-07 -9.26762e-07 -7.90204e-06)
(8.39652e-08 6.84433e-08 -6.8479e-06)
(-2.80917e-06 2.99917e-06 -8.46649e-06)
(2.2986e-06 -3.22395e-06 -7.72522e-06)
(2.18761e-08 1.3177e-07 -5.51215e-06)
(-2.24902e-06 2.68608e-06 -7.00252e-06)
(1.95161e-06 -2.5278e-06 -6.17616e-06)
(-5.29827e-09 8.58379e-08 -4.41853e-06)
(-1.72514e-06 2.16186e-06 -5.54062e-06)
(1.52472e-06 -1.90578e-06 -4.82471e-06)
(-1.05853e-08 5.86623e-08 -3.43716e-06)
(-1.31907e-06 1.67272e-06 -4.27977e-06)
(1.15983e-06 -1.43151e-06 -3.69613e-06)
(-9.67134e-09 4.28527e-08 -2.62091e-06)
(-9.99232e-07 1.27101e-06 -3.25283e-06)
(8.73969e-07 -1.07407e-06 -2.79373e-06)
(-1.01552e-08 3.01514e-08 -1.975e-06)
(-7.50643e-07 9.55794e-07 -2.45206e-06)
(6.6127e-07 -8.11788e-07 -2.11125e-06)
(-1.19606e-08 2.01526e-08 -1.49573e-06)
(-5.65808e-07 7.17214e-07 -1.87934e-06)
(5.09175e-07 -6.40984e-07 -1.63709e-06)
(-1.69729e-08 2.99298e-08 -1.16957e-06)
(-4.26008e-07 5.13368e-07 -1.53044e-06)
(3.63145e-07 -5.44207e-07 -1.22254e-06)
(6.10095e-09 1.87693e-07 -1.26048e-06)
(-1.26966e-07 4.28575e-07 -1.10612e-06)
(2.14072e-07 3.78243e-07 -1.15591e-06)
(3.53201e-07 -1.89548e-07 -1.02024e-06)
(1.47288e-09 3.84106e-07 -1.24249e-06)
(4.13866e-08 -8.95548e-08 -8.21018e-07)
(-6.48501e-08 6.36817e-08 -9.37815e-07)
(1.88093e-07 4.49328e-07 -1.0969e-06)
(-5.80785e-07 -3.90877e-07 -1.0136e-06)
(4.7533e-07 3.91045e-07 -1.48323e-06)
(-6.51213e-07 -4.06269e-07 -1.58342e-06)
(-4.38656e-07 6.52136e-07 -1.52872e-06)
(-5.44464e-07 -5.75108e-07 -1.52184e-06)
(2.97379e-08 -4.87613e-09 -1.2033e-06)
(3.2835e-07 -5.85e-07 -1.43568e-06)
(3.64541e-07 5.00075e-07 -1.45886e-06)
(-4.85704e-07 -4.75129e-07 -1.05465e-06)
(1.82495e-07 1.2857e-08 -1.29503e-06)
(-4.33468e-07 4.97959e-07 -1.1694e-06)
(-3.57186e-08 2.14682e-08 -1.14871e-06)
(1.97639e-08 6.77959e-09 -1.12493e-06)
(-1.69574e-07 -1.36395e-07 -1.55879e-06)
(1.41325e-08 1.30591e-08 -1.23316e-06)
(-6.95594e-09 -1.08502e-08 -1.17022e-06)
(-1.77645e-07 7.22345e-09 -1.60557e-06)
(1.13227e-08 -3.02919e-09 -1.22221e-06)
(-3.38865e-08 -1.19254e-09 -1.14467e-06)
(-4.42265e-07 4.57211e-07 -1.13218e-06)
(-4.7972e-07 -4.57938e-07 -1.10069e-06)
(3.74087e-07 4.94114e-07 -1.4499e-06)
(-5.28386e-07 -5.63897e-07 -1.52076e-06)
(-6.38286e-09 5.0906e-10 -1.36111e-06)
(5.45512e-07 6.55954e-07 -1.75805e-06)
(-6.72784e-07 -7.48226e-07 -1.97761e-06)
(7.48884e-07 8.7275e-07 -2.28892e-06)
(-8.9004e-07 -9.99461e-07 -2.61787e-06)
(-2.65831e-08 2.23659e-09 -2.31939e-06)
(1.01077e-06 1.16555e-06 -3.03289e-06)
(-1.18631e-06 -1.32662e-06 -3.46089e-06)
(1.33449e-06 1.54304e-06 -3.98916e-06)
(-1.57105e-06 -1.72929e-06 -4.503e-06)
(1.35384e-08 4.24877e-09 -3.95715e-06)
(1.71298e-06 2.00614e-06 -5.15304e-06)
(-2.04066e-06 -2.19312e-06 -5.72701e-06)
(2.1219e-06 2.53249e-06 -6.4888e-06)
(-2.5414e-06 -2.65946e-06 -7.10954e-06)
(5.25859e-07 -4.31525e-09 -6.16206e-06)
(9.5607e-08 4.6579e-09 -6.17305e-06)
(3.31421e-08 7.43559e-09 -5.01628e-06)
(3.8212e-08 2.1428e-08 -5.02052e-06)
(-6.29726e-09 1.12692e-08 -3.97754e-06)
(1.75968e-08 1.08109e-08 -3.96789e-06)
(1.7749e-06 2.02639e-06 -5.17712e-06)
(-2.09458e-06 -2.19181e-06 -5.73183e-06)
(8.02639e-08 1.04e-08 -4.55305e-06)
(-1.69924e-06 2.60149e-06 -5.78987e-06)
(1.59512e-06 -2.88695e-06 -6.44386e-06)
(2.21237e-06 2.5812e-06 -6.53542e-06)
(-2.55114e-06 -2.63414e-06 -7.07529e-06)
(1.23165e-07 2.53127e-08 -5.66754e-06)
(-2.24266e-06 3.21196e-06 -7.23084e-06)
(1.7566e-06 -3.38486e-06 -7.70159e-06)
(3.52368e-06 2.17088e-06 -8.66546e-06)
(-3.25271e-07 -1.61342e-06 -7.23484e-06)
(1.47792e-07 -2.89484e-06 -1.14528e-05)
(-3.62774e-06 -2.17924e-07 -7.24684e-06)
(-3.36703e-06 -1.02788e-08 -6.88541e-06)
(6.62571e-06 -1.04071e-06 -6.69839e-06)
(-4.41751e-07 -2.77741e-07 -8.68144e-06)
(7.48836e-08 5.01089e-08 -5.8439e-06)
(1.33342e-07 1.59675e-06 -5.2864e-06)
(-1.67531e-06 1.98885e-06 -7.39202e-06)
(3.40696e-07 1.35214e-07 -4.65985e-06)
(1.05062e-06 -2.79153e-06 -6.41756e-06)
(-1.09096e-06 1.92729e-06 -5.83418e-06)
(7.58192e-08 9.25661e-10 -3.68052e-06)
(8.93396e-07 -1.84624e-06 -5.13749e-06)
(-7.99898e-07 1.52276e-06 -4.51073e-06)
(4.78347e-09 -2.03915e-08 -2.85081e-06)
(6.68592e-07 -1.33591e-06 -3.99678e-06)
(-6.2555e-07 1.17689e-06 -3.45234e-06)
(-6.11114e-09 -1.43841e-08 -2.17375e-06)
(4.79561e-07 -9.76195e-07 -3.02729e-06)
(-4.61571e-07 8.85049e-07 -2.5877e-06)
(-1.52359e-08 -1.72414e-08 -1.63779e-06)
(3.77187e-07 -7.33601e-07 -2.28585e-06)
(-3.37117e-07 6.92192e-07 -1.95128e-06)
(-2.37e-08 -1.89023e-08 -1.24262e-06)
(3.05818e-07 -5.33448e-07 -1.73704e-06)
(-2.10029e-07 5.50426e-07 -1.51102e-06)
(-3.00854e-08 -3.7026e-08 -9.82037e-07)
(3.00819e-07 -3.87125e-07 -1.38932e-06)
(1.095e-07 1.10999e-07 -1.02033e-06)
(7.90868e-08 1.74168e-07 -9.82091e-07)
(-1.75745e-08 -2.41049e-07 -1.27742e-06)
(-8.92816e-09 -5.95699e-09 -1.16055e-06)
(1.37321e-07 4.1307e-07 -1.35726e-06)
(-5.86699e-08 -4.13184e-07 -1.59509e-06)
(6.80312e-07 4.74888e-07 -1.78404e-06)
(-8.22299e-07 -5.30145e-07 -2.04406e-06)
(9.30351e-07 6.18627e-07 -2.33909e-06)
(-1.08676e-06 -7.05357e-07 -2.69651e-06)
(-7.02817e-07 1.14597e-06 -2.61604e-06)
(-9.14684e-07 -1.0052e-06 -2.62409e-06)
(3.01342e-08 -3.73029e-09 -2.0375e-06)
(6.10714e-07 -1.00184e-06 -2.293e-06)
(7.69204e-07 8.73433e-07 -2.29176e-06)
(-6.91013e-07 -7.55446e-07 -1.98352e-06)
(1.97815e-08 -5.15374e-09 -1.54238e-06)
(-5.33446e-07 8.58759e-07 -1.9745e-06)
(-1.22293e-08 2.479e-09 -1.75412e-06)
(-6.68868e-09 -9.16734e-09 -1.66871e-06)
(3.06991e-10 -5.447e-09 -1.29175e-06)
(-7.50877e-09 -3.5529e-08 -1.13973e-06)
(-7.52632e-09 -3.52666e-08 -1.34608e-06)
(3.37085e-08 3.03575e-08 -1.28546e-06)
(2.65245e-08 4.29941e-08 -1.23096e-06)
(2.83847e-08 1.47224e-08 -1.4462e-06)
(-7.48629e-08 1.76484e-08 -1.45045e-06)
(-1.75039e-08 3.16024e-08 -1.19969e-06)
(2.0316e-07 1.93309e-08 -1.12518e-06)
(3.09142e-07 -2.52323e-08 -8.48156e-07)
(2.60158e-07 4.06873e-07 -1.39757e-06)
(8.95686e-08 1.30052e-07 -7.79714e-07)
(4.13525e-07 2.63432e-08 -1.07916e-06)
(1.58036e-07 9.96051e-08 -1.19295e-06)
(1.03168e-07 1.08331e-08 -1.27255e-06)
(6.10438e-08 -1.26979e-08 -1.60192e-06)
(-2.82894e-08 -8.2908e-09 -1.87393e-06)
(-1.00952e-07 1.41932e-08 -1.85797e-06)
(-1.33806e-07 1.82545e-08 -2.45299e-06)
(-6.18038e-08 -1.63245e-08 -2.49152e-06)
(5.44759e-08 -2.84151e-08 -2.10759e-06)
(-1.03385e-07 -5.69855e-07 -2.0928e-06)
(7.54424e-09 -1.60264e-08 -1.96502e-06)
(1.62958e-07 6.41729e-07 -2.36764e-06)
(-1.4679e-07 -7.66675e-07 -2.76234e-06)
(1.25187e-06 8.20018e-07 -3.11759e-06)
(-1.44667e-06 -9.35968e-07 -3.56001e-06)
(1.65919e-06 1.09027e-06 -4.11245e-06)
(-1.92701e-06 -1.22323e-06 -4.63272e-06)
(-1.26179e-06 2.01031e-06 -4.52303e-06)
(-1.61808e-06 -1.73423e-06 -4.51355e-06)
(5.65863e-08 1.58554e-09 -3.54616e-06)
(1.0587e-06 -1.75646e-06 -3.99367e-06)
(1.37718e-06 1.54985e-06 -4.00074e-06)
(-1.22062e-06 -1.33225e-06 -3.46872e-06)
(4.21399e-08 -1.97146e-09 -2.70467e-06)
(-9.40536e-07 1.52645e-06 -3.46528e-06)
(-1.48542e-08 8.15823e-09 -3.06506e-06)
(-4.9665e-09 -8.6034e-09 -2.91273e-06)
(-8.43617e-09 -1.01033e-08 -2.20931e-06)
(-1.23836e-08 3.82882e-09 -1.95543e-06)
(-3.09274e-08 -1.00257e-07 -2.29679e-06)
(9.35188e-10 -4.39702e-08 -2.25716e-06)
(-6.09553e-09 -3.11007e-08 -2.15812e-06)
(-2.16411e-08 -6.94444e-08 -1.73341e-06)
(5.60477e-09 -1.63093e-08 -1.66006e-06)
(4.18839e-09 -1.18719e-08 -1.59134e-06)
(1.41404e-07 4.95395e-07 -1.78e-06)
(4.32584e-09 -9.55387e-09 -1.48689e-06)
(-1.08631e-08 -1.69441e-08 -1.4746e-06)
(-3.03526e-09 3.45135e-08 -1.63981e-06)
(3.2376e-09 -8.22014e-08 -1.4611e-06)
(2.08447e-09 -2.20707e-08 -1.20651e-06)
(-1.16149e-08 2.22792e-07 -1.12175e-06)
(2.62824e-08 4.21219e-07 -1.07502e-06)
(-3.02124e-07 7.69053e-07 -1.02843e-06)
(-7.59001e-09 6.57372e-08 -1.09685e-06)
(-6.71466e-10 -9.09853e-09 -9.41046e-07)
(-7.08085e-10 1.58648e-08 -1.29354e-06)
(-4.03014e-09 -5.13075e-09 -1.28182e-06)
(5.64674e-07 -5.11344e-07 -1.52369e-06)
(1.47406e-09 -9.81275e-09 -1.35778e-06)
(-6.61903e-07 5.38437e-07 -1.75704e-06)
(6.42174e-07 4.90878e-07 -1.75586e-06)
(-7.343e-07 -6.11514e-07 -1.97838e-06)
(-1.57747e-09 1.91736e-08 -1.54627e-06)
(7.54394e-07 -6.45459e-07 -1.97579e-06)
(2.80567e-09 -1.64815e-08 -1.74992e-06)
(-8.76468e-07 7.2664e-07 -2.28822e-06)
(8.54845e-07 6.75035e-07 -2.28795e-06)
(-9.79977e-07 -8.05943e-07 -2.61774e-06)
(-1.06088e-10 3.01478e-08 -2.04322e-06)
(1.00983e-06 -8.53401e-07 -2.61704e-06)
(4.3556e-09 -2.42018e-08 -2.31505e-06)
(-1.16685e-06 9.71754e-07 -3.03111e-06)
(1.14203e-06 9.11666e-07 -3.0333e-06)
(-1.3006e-06 -1.07358e-06 -3.4604e-06)
(1.81287e-09 4.17954e-08 -2.71164e-06)
(1.3437e-06 -1.13923e-06 -3.46307e-06)
(6.55124e-09 -1.72454e-08 -3.05134e-06)
(-1.54128e-06 1.27527e-06 -3.98543e-06)
(1.51214e-06 1.20326e-06 -3.99127e-06)
(-1.69558e-06 -1.42339e-06 -4.50238e-06)
(4.89892e-09 5.48092e-08 -3.55359e-06)
(1.7581e-06 -1.51499e-06 -4.51221e-06)
(8.42669e-09 3.16921e-08 -3.95305e-06)
(-2.00093e-06 1.62256e-06 -5.143e-06)
(1.96677e-06 1.5447e-06 -5.15969e-06)
(-2.15047e-06 -1.85576e-06 -5.72328e-06)
(1.04966e-08 7.23605e-08 -4.55892e-06)
(2.23904e-06 -1.9846e-06 -5.75247e-06)
(3.27497e-09 1.90313e-07 -5.0035e-06)
(-2.52587e-06 1.9752e-06 -6.46165e-06)
(2.48569e-06 1.92223e-06 -6.50622e-06)
(-2.6081e-06 -2.32911e-06 -7.09409e-06)
(1.6809e-08 1.00418e-07 -5.67709e-06)
(2.70917e-06 -2.4863e-06 -7.15135e-06)
(-2.16552e-08 6.24003e-07 -6.14265e-06)
(-3.04221e-06 2.27122e-06 -7.77714e-06)
(2.99952e-06 2.27097e-06 -7.85037e-06)
(-1.75781e-06 -3.61144e-07 -7.47912e-06)
(-3.54017e-09 2.3694e-08 -7.05998e-06)
(1.74363e-06 -4.31736e-07 -7.48211e-06)
(-1.18619e-07 6.94729e-06 -6.53231e-06)
(-2.72132e-07 -3.32634e-06 -7.06792e-06)
(-2.31743e-07 -3.4268e-06 -6.81011e-06)
(-3.21178e-07 5.175e-06 -6.22191e-06)
(-3.37949e-06 1.3609e-06 -8.61233e-06)
(7.41237e-07 5.00973e-07 -5.78533e-06)
(5.35128e-07 -4.23843e-06 -7.55767e-06)
(-2.67724e-07 -9.61738e-07 -5.85038e-06)
(-5.41374e-07 -5.78995e-07 -5.60091e-06)
(-2.0213e-07 1.9141e-06 -6.93089e-06)
(-2.98608e-06 -2.00483e-06 -6.9758e-06)
(6.66588e-07 -3.7716e-08 -6.17531e-06)
(-1.07838e-06 7.50082e-08 -6.58353e-06)
(-1.5324e-06 -3.37839e-07 -6.62949e-06)
(-3.60827e-07 -3.88511e-07 -6.02427e-06)
(-4.62245e-07 -7.25287e-08 -5.46345e-06)
(-5.7816e-07 1.05033e-07 -5.3531e-06)
(-3.12672e-07 5.9645e-08 -4.20331e-06)
(-1.64118e-07 -1.72066e-08 -4.29512e-06)
(7.66108e-08 -6.47221e-08 -3.67909e-06)
(-9.21971e-08 -1.91101e-08 -3.29631e-06)
(-1.91854e-07 3.07466e-08 -3.23473e-06)
(-1.821e-07 8.68922e-09 -3.21118e-06)
(-1.27476e-07 4.56796e-09 -2.44058e-06)
(-1.03822e-07 1.71382e-09 -1.85344e-06)
(-8.83863e-08 -1.86348e-09 -1.44927e-06)
(-1.92993e-08 -5.47789e-09 -1.19503e-06)
(2.39934e-07 -2.00892e-08 -1.11206e-06)
(2.68022e-07 -1.02964e-08 -8.19948e-07)
(2.65612e-07 2.65907e-07 -1.1354e-06)
(3.05815e-07 -2.65933e-07 -1.00444e-06)
(3.89893e-07 2.92909e-09 -1.08037e-06)
(3.7161e-07 1.8278e-09 -1.08658e-06)
(2.82104e-07 -2.70403e-07 -1.07133e-06)
(2.84039e-07 2.66416e-07 -1.10687e-06)
(1.8908e-07 -6.16236e-10 -1.29497e-06)
(-1.67207e-07 1.08875e-09 -9.67234e-07)
(5.34643e-08 -1.12687e-09 -1.18974e-06)
(-1.93636e-08 -2.00645e-08 -1.16e-06)
(-1.35164e-08 -1.27155e-08 -1.17008e-06)
(4.85444e-08 4.83359e-08 -1.20213e-06)
(-1.45734e-07 4.38459e-09 -9.43984e-07)
(-3.43366e-10 5.55923e-08 -1.18587e-06)
(-1.79426e-10 -1.95883e-08 -1.17286e-06)
(-4.03403e-10 -2.41001e-08 -1.1699e-06)
(1.53551e-10 -2.63049e-10 -1.29567e-06)
(-9.25069e-08 9.01886e-08 -8.89955e-07)
(-1.05863e-07 -1.05367e-07 -8.96652e-07)
(-1.05082e-07 1.06191e-07 -8.9515e-07)
(-9.34734e-08 -8.94346e-08 -8.92367e-07)
(9.29934e-08 -9.06935e-08 -8.89632e-07)
(-7.78333e-08 -7.68627e-08 -8.85299e-07)
(3.16112e-09 3.15339e-09 -1.36522e-06)
(1.05885e-07 1.05432e-07 -8.93783e-07)
(-9.02088e-08 9.41864e-08 -8.91541e-07)
(-9.04267e-08 -9.3651e-08 -8.91805e-07)
(3.17437e-09 -2.66786e-09 -1.36553e-06)
(1.05355e-07 -1.05839e-07 -8.95202e-07)
(1.10737e-10 1.3447e-10 -1.30434e-06)
(2.56122e-10 3.00929e-10 -1.39356e-06)
(2.96968e-10 5.61534e-09 -1.38807e-06)
(2.73518e-10 1.17136e-08 -1.22288e-06)
(-3.37491e-09 1.00078e-08 -1.21968e-06)
(3.50076e-09 -4.14329e-08 -1.1381e-06)
(-1.62274e-09 -8.88533e-09 -1.36071e-06)
(-7.59288e-10 -1.61339e-08 -1.75818e-06)
(8.41415e-10 -2.04219e-08 -2.32804e-06)
(3.40872e-09 -1.89262e-08 -3.06705e-06)
(8.1072e-09 -2.12261e-09 -3.96828e-06)
(1.09215e-08 -6.12448e-10 -3.77209e-06)
(-1.54926e-09 1.23525e-07 -3.35629e-06)
(-4.10004e-08 -2.39418e-07 -3.93437e-06)
(3.51229e-08 -9.51305e-08 -3.86659e-06)
(-3.04692e-08 -4.18575e-09 -3.69495e-06)
(2.45463e-07 1.17724e-06 -4.12451e-06)
(-3.45681e-07 -1.27023e-06 -4.69764e-06)
(2.18231e-06 1.43221e-06 -5.36359e-06)
(-2.52008e-06 -1.58987e-06 -5.83555e-06)
(2.84732e-06 1.82956e-06 -6.93095e-06)
(-3.61237e-08 -7.09364e-08 -5.63666e-06)
(-8.17354e-07 -1.68496e-06 -5.80113e-06)
(-1.46794e-07 -3.65704e-08 -4.63278e-06)
(2.26542e-07 1.60586e-06 -5.35355e-06)
(-8.26971e-10 -3.27004e-08 -4.44595e-06)
(3.85564e-08 -1.34959e-07 -4.7624e-06)
(7.56844e-08 2.30853e-08 -4.84408e-06)
(-2.97238e-07 1.66129e-08 -4.16142e-06)
(-5.28724e-07 3.14639e-08 -5.2786e-06)
(-1.01355e-06 3.65686e-08 -6.54159e-06)
(-2.33413e-06 -3.11455e-08 -8.05128e-06)
(-2.39937e-06 -3.88995e-07 -8.00839e-06)
(-5.5859e-06 1.33516e-06 -8.01203e-06)
(-2.35371e-06 -6.29483e-07 -6.98043e-06)
(-2.02047e-06 -2.31089e-06 -6.49068e-06)
(-4.43455e-08 -3.42058e-07 -6.78071e-06)
(-7.85807e-07 -3.94149e-07 -7.41992e-06)
(6.99452e-07 -5.20644e-06 -6.19256e-06)
(-4.81597e-06 -1.46491e-06 -7.0129e-06)
(-2.92376e-06 1.89501e-07 -1.00021e-05)
(-1.40857e-06 -2.17597e-06 -9.03273e-06)
(2.12241e-06 1.57992e-06 -8.93333e-06)
(1.69681e-07 7.73696e-08 -9.22184e-06)
(9.47319e-08 7.43272e-08 -5.92008e-06)
(-2.18303e-06 1.91013e-06 -7.50758e-06)
(2.30072e-06 1.59926e-06 -7.88298e-06)
(1.4755e-08 2.0922e-07 -9.44028e-06)
(-2.82658e-07 -1.83709e-07 -6.0981e-06)
(-2.38557e-06 2.10584e-06 -7.77591e-06)
(2.30954e-06 1.8941e-06 -7.91808e-06)
(4.56831e-09 2.22697e-07 -9.48542e-06)
(-3.12655e-07 -2.19403e-07 -6.12402e-06)
(-2.32867e-06 1.915e-06 -7.67895e-06)
(2.3029e-06 2.15638e-06 -8.01789e-06)
(1.92156e-08 2.07832e-07 -9.46381e-06)
(-5.04133e-07 -4.94263e-07 -6.26553e-06)
(-2.22248e-06 1.59517e-06 -7.61033e-06)
(1.64354e-06 2.18853e-06 -8.53631e-06)
(-1.38731e-06 -7.76391e-07 -1.1805e-05)
(1.1906e-06 1.23568e-06 -9.28076e-06)
(9.07098e-07 -1.07441e-06 -9.07402e-06)
(2.59249e-06 1.14832e-06 -1.1487e-05)
(-1.21884e-06 -4.51043e-06 -1.12416e-05)
(-6.83519e-07 -2.4395e-06 -8.96971e-06)
(3.8266e-07 4.01856e-07 -6.6025e-06)
(1.49023e-06 -1.11519e-06 -9.32216e-06)
(-4.61052e-06 2.19857e-06 -8.33044e-06)
(-2.31746e-07 -1.37347e-07 -7.47703e-06)
(-2.68287e-06 -3.57333e-06 -7.86716e-06)
(2.53741e-06 2.01615e-06 -8.27962e-06)
(2.41703e-06 -3.86303e-08 -6.47316e-06)
(2.23868e-06 -2.3832e-06 -8.58351e-06)
(2.82545e-06 -2.36838e-06 -9.80036e-06)
(1.27681e-06 -3.4105e-06 -6.69407e-06)
(2.2367e-07 1.2159e-06 -8.17223e-06)
(1.04021e-06 -1.80586e-06 -6.55707e-06)
(1.53062e-06 -1.19917e-06 -6.80192e-06)
(2.43565e-06 1.90658e-06 -8.80072e-06)
(-9.08422e-07 -3.4892e-06 -7.67064e-06)
(2.18583e-07 -4.88243e-07 -5.85783e-06)
(1.51128e-06 2.26916e-06 -7.26171e-06)
(-1.0466e-06 -2.43428e-06 -6.38667e-06)
(1.22387e-08 -1.58211e-07 -4.83358e-06)
(1.06461e-06 1.9326e-06 -5.76e-06)
(-8.54199e-07 -1.75463e-06 -5.10942e-06)
(-3.08062e-09 -7.89239e-08 -3.81233e-06)
(8.0914e-07 1.51986e-06 -4.48889e-06)
(-6.42583e-07 -1.30585e-06 -3.97189e-06)
(8.66676e-10 -6.16031e-08 -2.94422e-06)
(6.18182e-07 1.15966e-06 -3.43542e-06)
(-4.81247e-07 -9.817e-07 -3.02592e-06)
(1.2916e-09 -4.87092e-08 -2.23066e-06)
(4.666e-07 8.75943e-07 -2.59584e-06)
(-3.64992e-07 -7.3798e-07 -2.28164e-06)
(-1.80978e-09 -2.95302e-08 -1.68537e-06)
(3.41755e-07 6.65467e-07 -1.95889e-06)
(-2.97563e-07 -5.60994e-07 -1.7419e-06)
(-1.98037e-08 6.154e-09 -1.276e-06)
(2.27848e-07 5.34422e-07 -1.52427e-06)
(-2.85308e-07 -4.07679e-07 -1.38463e-06)