/*--------------------------------*- C++ -*----------------------------------*\
| =========                 |                                                 |
| \\      /  F ield         | OpenFOAM: The Open Source CFD Toolbox           |
|  \\    /   O peration     | Version:  2306                                  |
|   \\  /    A nd           | Website:  www.openfoam.com                      |
|    \\/     M anipulation  |                                                 |
\*---------------------------------------------------------------------------*/
FoamFile
{
    version     2.0;
    format      ascii;
    arch        "LSB;label=32;scalar=64";
    class       volScalarField;
    location    "3";
    object      gradTy;
}
// * * * * * * * * * * * * * * * * * * * * * * * * * * * * * * * * * * * * * //

dimensions      [0 -1 0 1 0 0 0];

internalField   nonuniform List<scalar> 
5322
(
0.650116
0.0610557
-0.00446243
-0.0273351
-0.0151614
-0.00539104
-0.000199498
0.00481463
0.0141587
0.0258603
0.000230716
-0.19272
-0.214199
-0.192268
-0.166905
0.361212
0.483153
-0.000743939
0.333627
-0.395514
0.376152
-0.38211
0.374818
-0.383582
0.382228
-0.374938
0.374548
-0.382334
0.381239
-0.376541
0.378856
-0.378825
0.391147
-0.335994
0.322298
-0.161097
0.316464
0.397274
0.198429
0.214827
0.293201
0.24488
0.253461
0.273679
0.260924
0.258331
0.265084
0.283197
0.262372
0.250574
0.314344
0.152221
0.170385
-0.561679
-0.0306575
-0.32501
0.17082
-0.426237
-0.0242699
-0.370448
0.173451
-0.419169
-0.0216689
-0.367697
0.174148
-0.433767
-0.0279069
-0.355604
0.175765
-0.477184
0.0168006
0.419366
0.23359
0.326331
0.243763
0.308731
0.257618
0.307369
0.260984
0.361058
0.0328907
0.12138
0.183464
0.305414
-0.0260115
-0.127637
0.0362961
0.0713859
0.132189
0.0151501
0.0345947
0.00639118
0.0010085
0.00118665
0.444534
-0.237318
0.00714791
0.239264
0.00649276
-0.00624088
0.0326238
0.00638949
0.253332
-0.433406
0.387836
0.00522001
-0.00741411
-0.00138313
-0.000228244
0.000415363
0.000472782
0.000580643
0.00132488
0.00265851
-0.00451039
0.00118245
0.137381
-0.0565089
-0.0194141
-0.106031
0.130411
-0.0725835
-0.141436
-0.19347
-0.218624
-0.00880752
0.160245
-0.120921
0.011331
0.132064
-0.13154
0.00554092
0.137286
-0.140767
-0.00444727
0.128214
-0.153804
-0.012247
-0.0354965
0.235467
0.195076
-0.127849
0.0847651
0.065892
-0.13477
0.0145221
-0.132049
0.103579
0.106447
-0.117373
-0.00177486
-0.109528
0.109931
0.11866
-0.1066
-0.000358297
-0.101892
0.129351
-0.00843785
-0.0063811
0.406481
-0.318573
0.352259
-0.374055
0.012645
-0.241398
-0.00516775
-0.0022079
-0.0451791
0.116627
-0.233351
0.232171
-0.389729
0.000888971
0.398066
-0.39325
0.409424
-0.418406
0.00174032
0.412199
-0.422293
0.438
-0.436648
0.00162497
0.426953
-0.429857
0.443714
-0.441857
0.000995278
0.431565
-0.432631
0.445682
-0.443767
0.000836786
0.433569
-0.434944
0.447944
-0.444504
0.0010873
0.434387
-0.43761
0.450893
-0.443401
0.00143268
0.432689
-0.438831
0.452041
-0.434233
0.00184277
0.421791
-0.434222
0.437846
-0.237284
-0.001064
-0.0174799
0.00727142
-0.0070524
-0.000434315
0.00278203
0.00368643
1.45908e-05
0.4455
-0.236198
0.00200013
0.281575
-0.0382438
-0.0112356
0.00928096
-0.0138571
0.238562
-0.438704
0.00254631
0.00195432
0.0054907
0.00355336
0.00189761
0.00085333
5.79854e-05
-0.00117393
-0.00295816
0.00439779
-0.00158244
-0.110592
-0.117793
-0.117847
-0.110849
0.0226423
0.0390276
0.0246053
-0.148925
0.0781161
-0.15793
0.0391189
0.0226872
0.0246523
-0.156078
0.0543518
0.149335
0.0964068
-0.148866
0.0782767
0.162112
0.226354
0.23908
-0.3916
-0.390712
-0.420502
0.305051
-0.378439
0.347291
-0.371842
0.359643
-0.370375
0.364043
-0.372069
0.364913
-0.377409
0.363278
-0.386283
0.35945
-0.394772
0.351809
-0.0774755
0.1669
-0.0531138
-0.0092093
0.304581
-0.363543
0.00351711
0.325942
-0.364843
0.00159844
0.336923
-0.358483
0.000728803
0.341984
-0.35283
0.000159998
0.342128
-0.350416
-0.00082131
0.336317
-0.351257
-0.00261149
0.319112
-0.357303
0.00835483
0.267297
-0.024685
0.267063
-0.357883
0.00837059
0.306647
-0.418081
0.167796
0.277453
0.207372
0.1941
-0.368836
0.241954
-0.344261
0.304448
-0.337309
0.323223
-0.33631
0.329232
-0.338943
0.32976
-0.345988
0.327242
-0.354442
0.321622
-0.351017
0.306566
-0.0505912
0.120769
-0.138334
-0.00260916
0.420234
-0.514297
0.00885972
0.461821
-0.502682
0.00445246
0.470498
-0.484935
0.00171911
0.470819
-0.475921
0.000409431
0.470815
-0.473282
-0.00092977
0.47009
-0.473262
-0.0019587
0.462303
-0.477429
0.0106419
0.411116
-0.47537
0.166801
0.38754
0.344383
-0.172914
0.328336
-0.077941
0.0618707
0.393412
-0.340492
0.317664
-0.299076
0.479034
-0.421767
-0.00334072
-0.472038
0.402622
-0.411898
0.0121017
0.433658
0.019359
0.00840022
-0.122727
0.0120338
-0.0098547
0.00643889
-0.00235285
-0.000842481
0.396474
-0.39725
0.397529
-0.413251
6.69758e-05
0.42633
-0.429056
0.433953
-0.433823
0.000300701
0.437121
-0.435476
0.440177
-0.435596
0.000354212
0.443652
-0.43302
0.444781
-0.422016
-0.000684184
0.000575241
0.000951631
0.00317704
0.00178394
0.00115259
0.447642
-0.432387
0.00228408
0.511328
-0.505073
0.452441
-0.41775
0.0043861
0.507415
-0.482213
0.307318
-0.213806
-0.341471
-0.0231945
-0.00526374
-0.123432
-0.0317105
0.00957086
0.227223
0.296599
0.0236607
-0.483309
0.367239
0.00365485
-0.409996
0.374771
-0.000812613
-0.385858
0.379695
0.000172275
-0.372774
0.378439
-0.00266657
-0.372538
0.39323
-0.00673103
-0.35531
0.401568
-0.0252506
-0.317009
0.102898
0.154709
-0.19079
0.00160779
0.311652
-0.265248
0.311304
-0.304347
0.309017
-0.305755
0.497483
-0.436067
-0.00102893
-0.49872
0.434595
-0.433344
-0.00260371
0.49308
-2.49616e-05
-0.00110782
-0.000724954
-0.0285962
0.00648211
0.039911
0.0433514
0.0176537
0.00755385
0.0249638
0.0176809
-0.0227672
0.3686
0.118166
0.0256931
0.0882094
0.0188326
0.00566278
0.00394855
0.00131344
0.000734705
0.00103902
0.00101457
-0.279812
0.000304832
0.285569
-0.28227
0.308195
-0.306545
0.311184
-0.307074
0.504874
-0.4364
0.000815206
-0.50108
0.442039
-0.4369
-5.52172e-05
0.50037
0.000973963
0.0010068
-0.000116008
-0.00289684
-0.00136929
0.00435316
0.00315284
0.000584471
0.0134997
0.00967952
0.291808
0.00142177
-0.0134353
-0.00116589
-0.0195227
0.00252413
0.193932
0.370319
0.680705
0.0713478
-0.0103546
-0.00481543
-0.0184707
-0.376044
0.00164534
0.349902
0.318459
-0.351438
-0.00259044
-0.370472
0.00274567
0.361891
0.335764
-0.350241
-0.000783252
-0.370357
0.00238142
0.365064
0.342112
-0.352515
0.000222469
-0.373496
0.00633183
0.364007
0.343052
-0.3584
0.00085486
-0.380807
0.017783
0.358117
0.340505
-0.366267
0.00181162
-0.391063
0.0432647
0.344572
0.334997
-0.370092
0.00384679
-0.394724
0.0964594
0.322357
0.322335
-0.0620714
-0.00895091
-0.071874
0.848365
-0.378936
-0.386912
0.626767
0.162947
0.0676806
-0.585189
-0.12061
-0.0705857
0.300727
-0.313941
-0.00547841
0.0065471
-0.0393057
-0.0472809
-0.00485497
0.012541
0.00726354
0.002957
-0.00385122
0.0017387
0.00277582
0.000818851
9.06316e-05
-0.00075083
-0.00257964
-0.00495537
-0.017182
-0.00920517
0.239706
-0.23981
0.00288207
0.00154625
-0.243577
0.239997
-0.000568176
0.000997428
-0.00108536
-0.01818
-0.0115209
0.0435194
0.00471714
0.0500812
-0.0177639
-0.0217815
2.41852e-05
0.0802209
-0.0932495
0.0936239
-0.0799217
-0.0809065
-0.0691643
0.00258038
0.092842
0.0835511
-0.0834005
-0.00248587
-0.0935448
-3.91137e-06
1.46651e-05
0.00594284
0.0168578
0.015089
-0.0334459
0.000654628
0.000173
0.000988551
0.00282786
0.00685946
0.00295194
0.0240174
-0.0188582
-0.00208839
0.0136594
0.300273
-0.273954
0.316281
-0.311608
0.319543
-0.00766972
-0.283292
0.00825462
0.317524
-0.00116145
-0.0138764
0.00285453
0.00196889
0.00392532
0.00464996
-0.00334336
-0.0470123
0.161129
-0.0718701
-0.309138
-0.0391684
-0.0372074
-0.608909
-0.167846
0.0214058
-0.245607
0.1816
0.00834777
0.0102919
0.219826
0.184405
0.0258515
-0.0206167
0.244529
0.219755
0.0278713
-0.0248471
0.221885
0.250617
0.0259788
-0.0572807
0.184046
0.255926
-0.0886629
0.133409
-0.116303
0.124316
-0.490871
-0.266612
0.0482195
-0.121149
0.26403
-0.0159154
-0.432818
0.228328
-0.00455648
-0.271152
-0.268043
-0.389708
0.164058
-0.214339
-0.137236
0.238489
-0.494863
-0.0554835
0.348129
-0.428661
-0.0109628
0.373115
-0.392679
0.000878688
0.376197
-0.378634
0.00196184
0.374596
-0.374935
0.00214353
0.374433
-0.374109
0.0057824
0.376471
-0.37177
0.0230478
0.38838
-0.333139
0.0937399
0.323142
-0.180446
0.342857
0.38724
-0.4802
0.409773
-0.481933
0.0110727
0.241173
-0.369012
0.166616
0.193165
0.209122
0.277428
0.238602
0.167674
0.323046
0.192383
-0.00159153
-0.0280015
-0.0156724
-0.00981432
-0.00590422
-0.0115326
-0.00607288
0.00174756
0.00620046
0.2868
-0.277916
1.01759e-05
0.000489402
0.000115801
2.18264e-05
-0.499317
0.438085
0.000196565
0.439208
-0.441439
0.000461217
0.441948
-0.443422
0.00110912
0.44359
-0.445608
0.00197791
0.442924
-0.445392
0.0025193
0.431697
0.00277028
0.00533387
0.000831681
4.4015e-06
-0.00125919
-6.07749e-05
0.000375442
0.000411795
0.000361754
0.000236475
0.000181723
0.000233064
0.00227366
0.00645183
-0.233489
0.0034769
0.0115616
-0.000603616
0.000415659
0.000626993
0.000404391
-3.50329e-05
-0.000780233
-0.00195476
-0.00285539
0.0104306
-0.00295739
-0.00782704
-0.0102339
0.204361
-0.218103
0.27654
0.000400003
-0.0372177
0.0310947
0.102643
0.000583491
-0.0912099
0.0858582
0.0880334
0.000329208
-0.0975725
0.0915948
0.0786108
2.14216e-05
-0.122553
0.116577
0.108951
-0.00207047
0.135719
-0.142908
0.13935
-0.150117
-0.0138587
-0.0829474
0.12053
-0.00990457
-0.1146
-0.00243141
-0.000761822
0.411489
-0.00143122
-0.413901
0.239279
-0.00832333
-0.24745
0.247904
-0.00538465
-0.259828
0.416904
-0.00392021
-0.41671
0.409187
-0.407257
0.404957
-0.414749
0.000940716
-0.412997
0.407494
-0.000833365
-0.247589
-0.00905812
0.249764
-0.212435
0.00195635
0.373761
0.133347
0.393775
0.143947
-0.203557
0.31114
0.0286456
-0.272513
0.294459
0.00589385
-0.28515
0.288332
0.00132591
-0.284957
0.287726
0.00018864
-0.287786
0.285567
-0.0013817
-0.28781
0.286043
-0.00690768
-0.294419
0.271893
-0.0311824
-0.311841
0.203832
-0.148342
-0.395596
-0.119795
-0.370452
0.242131
0.022674
0.012108
0.154738
0.0362052
-0.238254
-0.196329
-0.0545945
-0.151879
-0.0984734
-0.0769206
-0.168223
-0.0840517
-0.0893073
-0.167098
-0.244689
-0.253551
-0.167461
0.416077
0.0229451
-0.24483
-0.00858001
0.33566
0.394926
-0.00445701
-0.291207
0.00193927
0.325466
0.482861
0.0046027
-0.475541
0.00033199
0.480266
0.00114103
-0.47744
0.00128995
0.478669
0.000649059
-0.478796
-0.00101504
0.477166
0.000531569
-0.480325
-0.000181203
0.475022
-0.000982864
-0.483082
-0.00418003
0.466912
-0.00685842
-0.487971
-0.0171329
0.00211746
-0.299974
0.487316
0.00306503
0.313172
-4.84747e-05
-0.304854
0.498566
-0.000153313
0.308999
2.42631e-05
-0.307294
0.501634
-0.000119985
0.308405
-0.000293047
-0.307154
0.502768
0.000109144
0.307373
0.000433546
-0.308363
0.503422
0.000339395
0.307789
9.72634e-05
-0.308891
0.503676
0.000559343
0.305573
0.000512743
-0.31242
0.500754
-0.00136249
0.302449
8.48453e-05
-0.319322
0.47776
-0.018863
0.342819
-0.0613118
0.0787886
-0.389173
-0.343195
0.179065
-0.327232
-0.0960086
-0.0663366
-0.684253
-0.372469
-0.326843
-0.232239
-0.167907
0.372823
0.43124
0.0313048
-0.231955
-0.0109602
0.48803
0.0145006
-0.466846
0.00551203
0.00355381
0.00745799
0.0188497
-0.321682
-0.0155421
0.156735
-0.0230626
-0.0222068
-0.0422411
0.149846
-0.049546
0.0204112
0.0179347
0.000470781
0.00135074
0.00123292
0.000720303
0.00061431
0.000186431
-0.00243541
-0.0017734
0.427239
-0.495276
0.00188257
-0.00257778
-0.00482167
-0.000358442
-0.407419
-0.000420206
0.415193
-0.433787
-0.000433174
0.433296
-0.439473
-2.93758e-05
-0.000134901
-0.00107231
-0.000520319
-4.91397e-05
0.000744706
0.000670385
0.000594133
0.000384213
0.000251264
0.000154371
0.00120696
0.0018861
0.000746798
0.41201
-0.414819
0.376995
-0.379213
0.380294
-0.379622
0.00211843
-0.198651
6.15844e-05
0.187369
0.00675923
-0.209673
-0.000745052
0.15931
-0.0162699
-0.0131259
0.0596539
0.00274407
-0.0643773
0.474941
-0.00646175
-0.298203
0.00116356
0.305343
0.39755
-0.0028571
-0.313736
0.000426511
0.317975
0.384619
4.59733e-05
-0.317586
-1.01709e-05
0.315032
0.385339
0.00249138
-0.320858
-0.000597123
0.308705
-0.323985
-0.00110066
0.290702
-0.33125
0.013107
-0.00941332
-0.00241021
-0.000918328
-2.99943e-05
0.000258967
0.00053757
0.00144487
0.00301929
-0.00447986
0.00136813
0.110742
0.116647
0.118045
-0.035129
0.159613
-0.0167389
-0.0173815
0.163949
-0.0310184
0.149488
-0.0482436
0.00589219
-0.0133009
0.0128188
-0.00320408
0.00289899
-0.00235036
-0.392149
0.0103229
0.0115825
0.00246891
0.00014088
-4.30836e-05
-0.0832594
0.0825786
0.00259972
-0.0702345
0.107713
-0.0219384
0.00926036
-0.00376829
-0.00427249
-0.0209221
0.155348
-0.386247
0.0233316
-0.259376
-0.0106164
0.328512
0.403351
-0.00949169
-0.296617
0.00263243
0.388393
-0.0071257
-0.307252
0.00122753
0.321525
0.389212
-0.00176881
-0.315679
0.000461383
0.318954
-0.318696
-0.000118675
0.31567
0.000592495
0.000211065
-0.000126931
-0.000388461
-0.00129236
0.00947192
-0.00624734
-0.000282258
0.00255326
3.71718e-05
-0.0023798
-0.0111876
-0.00943073
-0.00257242
-0.00255801
0.00237162
0.0066726
0.00128206
0.00588991
0.00162505
0.0038142
-0.00844934
-0.0119445
-0.0255968
-0.0283663
-0.0607676
-0.0510059
-0.0308228
-0.118262
-0.367994
0.0318406
-0.56857
-0.417772
-0.299511
-0.19908
-0.179696
0.0711843
-0.161516
-0.0158337
0.0378591
0.00146061
-0.00624639
0.193793
-0.229063
0.281723
0.00267366
-0.0329985
0.052404
0.119685
0.00507405
-0.0814304
0.111886
0.112147
0.00552894
-0.0873311
0.115691
0.104938
0.00418662
-0.116776
0.130645
-0.0062301
0.00371185
0.0187389
0.0802153
-0.344256
-0.499431
0.00543698
0.467481
0.0133848
0.00990269
0.302242
0.00181633
-0.495929
0.501889
-0.000756934
-0.474223
0.278716
-0.320018
0.285187
-0.0313084
-0.29783
0.0161721
-0.331435
0.462022
-0.404726
0.420907
-0.00143314
-0.421924
0.000775393
0.418177
-0.0012519
-0.41985
0.000245458
0.421731
-0.00122601
-0.423498
0.411562
-0.473792
0.027237
-0.328164
0.449091
0.0208587
0.0107989
-0.123516
0.134032
-0.138307
2.42513e-05
-0.11558
0.106164
0.00754432
-0.131996
0.093937
-0.107218
0.00481723
0.191968
-0.115855
0.0710921
0.0177263
-0.136528
0.107363
-0.00212744
-0.0023336
-7.16989e-05
0.0045357
0.00282362
0.00146273
0.000647809
1.95626e-07
-0.00113955
-0.00288555
0.00443136
-0.00137452
0.0694352
0.0798922
0.000147312
-0.0189301
-0.0117027
0.150524
0.0545424
-0.127753
0.0656944
0.0848829
-0.133729
0.00436339
-0.154842
-0.0120281
-0.0361044
-0.125068
0.196082
0.238488
0.0124519
0.0437535
-0.0106347
0.00597777
0.104604
-0.112411
-0.00136107
-0.117917
0.117584
0.112406
-0.104559
-0.000719305
-0.142663
-6.95765e-05
0.142616
3.17591e-05
7.20278e-05
-0.0025958
0.00851501
0.00375729
0.0637497
0.680081
0.369942
0.190338
-0.0015259
-0.0249622
-0.0139733
-0.0076626
-0.0103626
-0.0223648
-0.047073
-0.0514836
-0.104777
-0.116078
-0.246911
-0.416964
-0.371197
-0.374435
0.159085
-0.250014
-0.0969088
-0.105068
-0.323983
-0.426539
-0.378658
-0.378224
-0.383471
-0.37705
-0.427471
0.161328
-0.0459423
-0.134252
0.511829
-0.160499
-0.306521
-0.299313
-0.0782643
-0.0971188
-0.226579
-0.23813
-0.0627688
-0.0966351
-0.0236708
-0.00776777
-0.00139199
2.11734e-06
0.000220388
-0.000782332
-0.00447494
-0.00524284
-0.0193772
-0.00816025
-0.00296187
-0.00566654
-0.00351818
-0.00483301
-0.0118377
-0.0303888
-0.0127851
-0.0124383
-0.0144309
-0.00688537
-0.00194108
-0.000170502
-0.000359335
-0.00126037
-0.00126867
-0.00369441
0.303617
0.458655
-0.475241
0.466828
-0.473244
-0.000660257
0.322178
-0.337814
-0.00158329
-0.00288903
0.00151846
0.00527992
-0.344802
0.0158637
-0.157144
0.0969597
-0.0301895
-0.0093895
-0.0111487
0.014345
-0.134989
0.106037
-0.000795578
-0.000382215
-0.000390976
8.78944e-05
0.0691606
-0.00237754
0.00029776
0.000293648
-0.000200534
-0.0437237
0.00022384
0.0181224
0.0112418
0.0148428
-0.0123362
0.0103673
-0.000167435
0.00107553
-0.0436034
0.134711
0.133741
-0.0845766
-0.0142485
-0.0669792
0.12852
0.0112876
0.00249041
5.47482e-05
6.58447e-06
-0.00255553
-0.00233008
-0.00240003
-0.000481797
-0.0104485
-0.00087666
-0.00239555
0.000805817
0.00537502
0.00123083
0.00349447
-0.336365
0.328089
0.468785
-0.474205
0.469551
-0.479341
0.00116406
0.328346
-0.338099
0.000257359
4.35131e-05
8.99583e-05
0.000526358
0.00126719
0.00303371
0.00256403
0.00567317
0.00312668
0.00661568
0.00677212
0.0162536
0.0138146
0.0146509
0.00649652
0.0864249
0.00117462
0.0020643
0.000972715
0.000217435
-0.000779991
-0.00279158
-0.00310258
-0.00118598
-0.00111279
-0.000726014
-0.000162213
0.000109254
0.000241842
0.000394688
0.000348989
0.000207763
-0.00104607
0.0014061
0.00133015
3.26984e-05
0.000156566
0.000284631
0.000456278
0.000810122
0.000923034
0.000864678
0.00174735
0.00204667
0.00148738
0.00332852
0.00435735
0.00359335
0.0227126
-0.0287891
-0.0410894
-0.007994
0.00449434
0.00598325
0.00612794
-0.10108
-0.00170247
-0.000976945
-0.00150253
-0.0098383
-0.00383041
0.213996
-0.00279645
-0.285158
-0.00206803
-0.0129232
-0.264065
-0.0114688
-0.0155991
-0.165678
-0.0736515
-0.126776
-0.315428
0.0305884
0.0804332
0.0054265
-0.00423763
-0.0035675
-0.00662494
0.00186147
-0.191598
0.273055
0.00192971
-0.0600989
0.0265262
0.0946185
0.000447262
-0.117934
0.0749138
0.0759908
-0.000553742
-0.12203
0.08023
0.0668915
-0.00130513
-0.111825
0.025345
-0.151288
0.0668214
0.105935
-0.147059
0.0444392
0.0218939
-0.0089147
-0.00198947
-0.000708315
0.000163131
0.000331406
0.000500518
0.00133964
0.00249546
0.00314871
0.00297014
0.00437064
0.421214
-0.420926
0.00182431
0.423134
-0.423131
0.380444
-0.380606
0.380975
-0.382446
0.0013863
-0.199603
-0.00101618
0.194554
0.00138875
-0.19745
-0.000221685
0.194129
-0.00114778
-0.000795248
0.0628145
0.00122168
-0.0622524
0.471049
-0.000257376
-0.301425
0.000108943
0.304377
0.393112
0.00183043
-0.317397
-0.000601885
0.374747
0.00709822
-0.323047
-0.00233002
0.290174
0.3684
0.00630035
-0.397555
0.00937452
-0.330415
-0.393693
0.00846332
0.358012
0.297775
-0.324765
0.0102737
-0.00876984
0.00306869
0.00157878
0.000880668
0.00016839
-0.000618627
-0.00163212
-0.000787223
-6.39645e-05
0.000666252
0.00041257
0.000590976
0.000251635
0.423985
-0.425203
0.00173482
0.424597
-0.428374
0.383146
-0.383756
0.388632
-0.375793
-0.014554
-0.198201
-0.00626724
0.201044
-0.00131602
-0.2042
-0.00274233
0.195485
-0.00257597
0.00219176
0.0701877
0.00508109
-0.0557587
0.467746
0.00198467
-0.296095
-0.00233151
0.303151
0.365666
0.00564374
-0.408012
0.0109211
-0.289698
-0.51733
-0.00221969
0.44735
-0.0300233
0.168637
0.00130428
0.122113
0.0767872
0.0449105
0.0288768
0.228526
-0.144826
-0.0130784
0.00598228
0.000122874
-0.000513314
-0.000185932
-7.55942e-05
-0.000870455
-0.00513587
0.00164201
0.277974
-0.199427
-0.322737
-0.0737263
0.0613229
-0.158446
0.507929
-0.234223
-0.286198
-0.276956
-0.161957
0.381579
0.421902
0.0220217
-0.26111
-0.00944502
0.390605
-0.00839994
-0.291024
0.00283699
0.326098
0.391106
-0.00486108
-0.309061
0.00102068
0.32154
0.00172384
0.00196901
-0.380332
0.00588546
-0.366905
0.0338943
0.0346766
0.00106102
-0.204527
-0.342511
-0.239053
-0.168883
-0.356143
-0.126024
-0.0639843
0.0373571
0.0106289
0.482266
-0.00748939
-0.291307
0.00217255
0.309923
0.39958
-0.00746989
-0.308407
0.00119931
0.386614
-0.0027014
-0.314337
0.000406128
0.318491
0.387532
0.000254719
-0.387663
-0.000339662
0.000389742
-0.385337
0.00689707
0.00705233
0.0192762
0.00584829
-0.35996
0.0163318
-0.291121
0.00107143
-0.0533842
-0.083173
-0.0225605
0.0226849
-0.00919721
-0.444642
-0.00123405
-0.00310737
0.0627817
0.00125232
0.472365
-0.00241388
-0.300601
0.000473822
0.303886
0.39576
-0.000257786
-0.316078
0.000109298
0.381619
0.00271007
-0.319928
-0.000808635
0.307611
0.380613
0.00606941
-0.392495
0.00101384
-0.000601477
7.17722e-05
0.000298771
0.000337395
0.000243609
0.000152689
7.98921e-05
-0.00118936
-0.00310254
-0.000742898
-0.000822675
-0.00103704
-0.000124821
0.000427299
0.000659833
0.000827881
0.000189372
0.00031465
-0.000192465
-0.000232032
-0.00110646
-0.000561588
0.431719
-1.77593e-05
-0.431561
0.434016
3.719e-05
-0.438398
0.438609
-0.433489
0.437699
-0.000651507
-0.444569
0.437569
-0.435186
0.431247
-0.00193629
-0.439628
0.419687
-0.418222
0.418616
-0.419877
0.00188893
-0.431565
0.440317
0.0010006
-0.437915
0.000746018
-0.437974
0.445438
0.000598372
-0.443405
0.000272957
-0.439524
0.446124
-0.439847
0.44017
0.000110305
0.438683
-0.438069
-0.000164857
0.443265
-4.78096e-05
-0.445225
0.439205
-0.437936
-0.000952582
-0.501001
0.308712
-0.000463674
0.495762
-0.00237427
-0.498376
0.311934
0.00130186
0.482892
-0.423976
0.406776
-0.00148373
-0.413772
-0.000486892
0.40364
4.35971e-05
-0.403537
0.000907348
0.414092
0.00150911
-0.406881
0.425026
-0.484213
0.00343327
0.00512802
0.00467579
0.0172214
0.0117417
-0.242821
0.250439
-0.246758
0.246705
-7.34329e-05
-0.000728138
-0.000692985
-0.250418
0.242658
-0.0118749
-0.00684277
0.129768
-0.144938
0.000511107
-0.000946038
0.402935
-0.407933
0.408169
-0.403138
0.416651
-0.43865
-0.0119371
-0.00457202
-0.129767
0.00681869
0.144872
-0.00597859
0.00266231
0.00256332
7.49882e-05
0.000131859
0.000192258
0.000215068
0.000173264
-0.439529
7.00127e-05
-0.439798
0.440198
-0.444872
0.439781
0.00011563
0.445238
-0.438763
-0.000100365
-0.500801
0.307687
1.96764e-05
0.499458
-0.306882
1.16336e-05
-0.280605
0.285672
0.00284771
-0.281399
0.28619
0.00390229
-0.280403
0.290423
0.00728535
-0.278354
0.296983
0.0062617
-0.281464
-0.00942646
-0.000105122
-0.00136396
0.00239077
0.000327153
0.00124552
-0.000168034
0.000347674
-0.000954383
0.00136087
0.00552471
0.290933
-0.305179
-0.000421044
-0.270289
0.307401
0.0300369
0.0123164
-0.000490275
0.0121293
-0.20338
-0.00028844
0.319233
0.0186112
-0.476398
-0.00306013
-0.00476358
0.024933
0.0171436
-0.022702
-0.241785
0.369717
0.120039
0.393219
0.146153
0.0831664
0.0199763
0.0606974
-0.342747
0.438033
-0.415938
0.0118936
0.00198039
-0.0188757
-0.00503949
-0.00262308
0.00747733
0.00169894
0.00067835
0.000803736
0.000637133
-0.50052
0.307392
-0.307884
0.501275
2.39574e-05
-0.000776972
-0.00229028
-0.000506694
-0.000662768
-1.72954e-05
0.000149476
0.000818876
0.000611897
-0.438519
2.65857e-05
-0.443277
0.439599
-0.499869
0.306789
0.00131661
0.503199
-0.309775
0.00301153
0.00032532
-0.00100162
-0.00180362
-0.00598022
-0.00446502
0.324348
0.469556
-0.489913
0.040269
0.0070961
0.0033247
0.0117885
0.00574562
0.0138645
-0.343009
0.0120259
0.0328667
-0.348534
0.00275509
0.00150846
0.00107534
0.0019801
0.0030226
0.00411951
0.00189425
0.00123805
0.000712617
0.000532687
0.000415151
0.000611101
0.000809512
0.000570827
0.000444107
0.000585172
0.000734529
0.000611591
0.00107264
0.00111453
0.000586338
0.00129737
0.00108576
0.00154674
0.00114858
6.42115e-05
-0.000934481
-0.000326878
0.00217207
0.00407128
0.0003443
-0.0231936
0.00277101
0.00056265
0.000940649
0.00115104
0.00126998
0.00105309
0.00225617
0.00140126
0.00264749
0.00146853
0.423528
-0.431921
0.0021557
0.415257
0.00694287
0.00136067
0.00337826
0.0176091
-0.0680226
0.168599
-0.134385
0.28337
0.0414102
0.193644
-0.155847
0.126042
-0.135971
0.0860626
0.0980841
-0.148501
0.0339786
-0.154774
0.0909405
0.0944884
0.185442
-0.00861836
-0.00233127
-0.0236031
-0.00113689
-0.107651
-0.00167134
-0.000754911
0.000657387
0.000887191
0.0016788
0.000990969
0.000656171
0.000853513
0.000649303
0.000166899
0.000590997
0.000350426
0.00240256
0.00114807
0.000491298
-0.472559
0.470507
0.00106313
-0.300558
-0.000716697
0.306213
0.38594
0.00509199
-0.318858
-0.00190304
-0.389571
0.00165676
0.000917542
0.000228081
0.000473792
0.000238998
0.0025096
0.000603296
0.000278819
0.000455744
0.000436356
0.000447531
-0.000604697
-0.00141316
-0.00312494
-0.353878
0.00631967
0.32592
0.0186838
0.33795
-0.298803
-0.32609
0.384742
-0.257902
-0.242847
-0.201199
0.00226147
0.00215666
0.00197149
-0.382479
0.0129396
-0.00149182
-0.0620794
-0.000119913
0.00494475
-0.000519754
-0.468548
-5.90638e-05
-9.42822e-05
0.0636364
0.00229743
-0.061664
0.000449433
0.00288523
0.00085492
0.00162398
0.000414577
-0.391288
0.000461301
-0.38087
0.00124858
-0.000237412
-0.395093
-0.000232152
0.315797
-0.0031598
-0.00141466
-0.397922
0.00624551
-0.479094
0.0188495
0.0128005
0.097332
0.0101611
-0.491899
0.0339225
0.00133329
0.00396226
0.0279654
0.186303
0.441181
0.229095
0.336897
-0.0165001
-0.00467968
-0.401737
-0.0114445
-0.0227552
0.010629
0.227309
0.327785
-0.0172102
-0.00558165
-0.00169281
0.31111
-0.386693
-0.00577919
0.000398872
-0.0175959
-0.0316452
0.000635551
0.209913
0.33012
-0.0181549
-0.00595332
-0.00197789
-0.389663
-0.00194869
-0.00025352
0.000141034
0.00180178
0.00467919
0.00141895
-0.0258747
-0.00738472
-0.000325623
-0.00266514
-0.0064053
-0.00400038
-0.00686425
-0.00128483
0.191684
0.36962
-0.0690937
0.0595997
0.0265842
0.0330605
0.00922282
-0.00211739
-0.000799011
-0.000174821
0.000109579
0.000301712
0.000781238
0.0024236
-0.000127873
-0.000157053
-0.00106041
0.00157524
0.000884413
0.000977966
-0.00189154
-0.0184859
-0.0256967
-0.00776863
0.00272639
0.00275287
-0.497671
0.436471
0.00131725
0.00137211
0.00137354
0.00263156
0.0032717
0.00311274
0.000655857
-0.00846728
0.1243
-0.416016
0.0211607
0.00118548
0.00110339
0.000620628
0.000600686
0.00109319
0.000399696
0.00036557
0.000333713
0.000533689
0.000187175
0.000241802
0.000235589
0.000902396
0.000895878
0.438765
-0.000164219
-0.438453
0.438641
-0.000653572
-0.434239
0.433943
-0.438165
0.444786
-0.00045047
-0.438415
0.436828
-0.436474
0.00167117
0.50542
-0.314098
0.0059556
0.0026212
0.00209706
0.00119347
-3.96524e-05
-0.010479
-0.0176755
-0.0356641
-0.0841259
0.0045556
-0.0361793
-0.0119536
-0.00355465
0.00486096
0.00413813
-0.000497501
3.46274e-05
0.000965526
0.000498926
0.44577
-0.439569
0.440235
-0.445618
-0.000143643
-0.43875
0.443877
-9.985e-06
-0.444988
-0.000637616
-0.435716
0.438678
-0.000250362
-0.440188
0.433187
-0.499416
-0.00160452
-0.00240406
-0.00102578
0.000309241
0.000586933
0.00222
0.00514462
0.0214006
0.0859619
-0.0267326
0.856435
-0.0204798
-0.00449088
-0.0156479
-0.150142
0.0303993
0.0859892
0.00748472
-0.00123816
-0.083985
-0.00136734
0.00257432
0.00623788
0.000396543
0.000481105
0.00656076
0.00348235
-0.264801
0.218169
-0.0087139
-0.00610987
-0.000421371
0.0447311
-0.0101828
0.0370089
0.0593104
0.0956266
0.190114
0.0471748
-0.122821
0.0483574
-0.154501
0.0379167
0.0210854
-0.117373
0.00661144
-0.0023939
0.000273106
-0.000587584
5.95944e-06
0.00221283
-0.00104098
-0.00233032
-0.000326772
-0.00272952
-0.000959333
1.28264e-05
-0.000144885
0.000181352
-5.83184e-05
-0.000153177
-0.000877687
4.06663e-05
0.00122941
0.00248502
0.0102324
0.108547
0.455737
0.0261088
-0.0809987
0.292781
-0.00470917
-0.0625698
-0.0207999
-0.029898
0.850097
-0.0162458
-0.0047276
0.00533152
0.00215896
0.00545159
-0.0759895
-0.00163685
-0.00176577
-0.0163658
-0.151174
-0.129179
-0.0779215
-0.304826
0.031062
0.0759371
0.00389333
-0.00428336
-0.0044968
-0.00239273
-0.093815
-0.00464298
0.0449917
-0.026999
0.0478852
-0.00270289
-0.0855813
-0.00505778
-0.00280299
-7.9827e-05
0.00520975
0.0190711
0.00249336
0.00330518
0.0177277
0.0172968
0.000827891
-0.00177647
-0.000446171
0.00105227
0.003001
-0.00136568
-0.00111416
0.0134861
0.323387
0.0140721
-0.000353788
0.00190992
0.000476145
0.000161294
-0.000136271
-0.00149522
0.00117913
0.439292
-0.501323
0.00127649
0.000531419
0.000438176
0.000449191
-0.502435
0.440027
0.000101285
-0.439607
0.445681
-0.445207
0.000352335
0.440184
0.00032166
0.000126779
8.8798e-06
-8.35629e-05
0.000555392
0.00105493
0.000196023
8.14099e-05
-0.000217053
-0.000959662
0.00152124
0.43803
-0.432078
0.43183
-5.9774e-05
0.000115832
0.00020887
0.000182429
-1.07358e-05
0.439907
-0.502928
-5.79784e-05
-0.000185554
0.000153434
-0.000685885
-0.000724755
-0.502916
0.438579
-0.000533433
-0.00040045
-0.00103561
0.00100987
6.22464e-05
0.000118502
-0.0130958
-0.0208713
-0.084801
-0.0135341
-0.00140532
4.71655e-05
0.000424006
2.38917e-05
0.000104771
0.00122827
-0.00136277
-0.00156675
-0.000360602
-0.000234135
-0.00190711
-0.00120261
-0.00112791
0.000325126
-0.00173835
0.00132507
-0.00195144
-0.00677829
-0.000588638
-0.00240207
-0.0150228
0.0107233
0.0298955
-0.000616184
0.00119774
-0.428973
0.0032643
0.0132399
0.0867562
-0.00176547
-0.00251517
-0.0186902
-0.176648
-0.108484
0.0246634
-0.00313904
-0.00247961
-0.00196111
-0.0223819
-0.00285778
0.163092
0.0493431
-0.00835877
0.0347201
0.245848
0.0214323
-0.00360536
-0.00643001
-0.00759478
-0.0114111
-0.283239
-0.252173
0.00186704
0.0255567
0.00945629
0.041052
-0.0776685
0.000480504
0.00453034
-0.0115653
0.000162596
-0.38426
0.00534481
0.00108639
-0.000288891
-0.00167639
7.57166e-05
-0.00137054
-0.462772
0.320627
-0.372999
0.0194098
0.184416
0.315232
-0.000225101
-0.000342521
0.00111131
-0.0796634
-0.302114
-0.0209953
-0.00478868
-0.0011715
-0.00255791
-0.0889811
0.000679952
-0.27881
0.00709728
-0.270751
-0.00209476
0.0369593
0.00136803
-0.106499
0.0501862
-0.0100538
0.334422
0.00039225
-0.2852
0.0213456
0.0890951
0.016712
1.71385e-05
0.00148604
0.000315539
0.00504194
0.323411
-0.504607
0.00165043
-0.168277
-7.72273e-05
0.0220385
0.0346934
0.019396
0.00655253
-0.000532552
-0.00759022
-0.0202694
-0.0353405
0.000209525
0.206229
0.245255
0.244006
0.171027
-0.40629
-0.382348
-0.0189065
0.387278
-0.00823848
-0.473479
0.0797822
0.0130419
-0.0552037
0.0609206
0.0038159
-0.0567832
0.0589634
0.00238653
-0.0545776
0.0596024
0.00191034
-0.0541778
0.0585505
0.000105345
-0.0558998
0.0562219
-0.0040571
-0.0610193
0.0509746
-0.0150991
-0.0806573
0.0304087
-0.0651758
-0.156356
-0.0749766
-0.234276
-0.287669
-0.281342
-0.239261
-0.254666
-0.264771
-0.253318
-0.273602
-0.26009
-0.258407
-0.269352
-0.257511
-0.274901
-0.273071
-0.254631
-0.33869
-0.158658
-0.152668
0.585375
0.0371973
0.329595
-0.162843
0.426379
0.0269577
0.378402
-0.167402
0.403692
0.02242
0.390197
-0.167918
0.399157
0.0231861
0.410695
-0.162574
0.387438
0.0247399
0.503536
0.0607667
-0.0433326
-0.32269
-0.00305587
-0.244238
0.157171
-0.21245
0.186407
-0.200494
0.194431
-0.195183
0.197413
-0.194139
0.19755
-0.192541
0.200463
-0.186281
0.210816
-0.157446
0.242782
0.00431257
0.302866
0.213413
-0.0847736
0.238807
-0.222724
-0.0108824
-0.00523123
-0.122099
0.12889
-0.114772
0.212182
0.0287385
0.0344875