/*--------------------------------*- C++ -*----------------------------------*\
| =========                 |                                                 |
| \\      /  F ield         | OpenFOAM: The Open Source CFD Toolbox           |
|  \\    /   O peration     | Version:  2306                                  |
|   \\  /    A nd           | Website:  www.openfoam.com                      |
|    \\/     M anipulation  |                                                 |
\*---------------------------------------------------------------------------*/
FoamFile
{
    version     2.0;
    format      ascii;
    arch        "LSB;label=32;scalar=64";
    class       volScalarField;
    location    "3";
    object      gradTz;
}
// * * * * * * * * * * * * * * * * * * * * * * * * * * * * * * * * * * * * * //

dimensions      [0 -1 0 1 0 0 0];

internalField   nonuniform List<scalar> 
5322
(
-0.0630036
-0.0587859
-0.0516162
-0.0558408
-0.0451016
-0.0356297
-0.027547
-0.0209634
-0.0159205
-0.0124417
-0.010266
-0.00957035
-0.00698497
-0.00975839
-0.0107646
-0.0088644
-0.0104269
-0.00805861
-0.0118231
-0.0130015
-0.0148839
-0.0166871
-0.0194393
-0.0222086
-0.0259094
-0.0292032
-0.0338463
-0.0382218
-0.0437753
-0.0484504
-0.0547461
-0.0603064
-0.0667111
-0.0710718
-0.0736069
-0.0640261
-0.0752076
-0.0746073
-0.0769018
-0.0560133
-0.0713092
-0.0736087
-0.0549309
-0.0736519
-0.0729127
-0.0558974
-0.0747209
-0.0706197
-0.0552961
-0.0734845
-0.0837215
-0.057228
-0.079668
-0.0711419
-0.0639351
-0.0673771
-0.0829559
-0.0661199
-0.064141
-0.067243
-0.0838435
-0.0670078
-0.0641328
-0.0655975
-0.0838392
-0.0693875
-0.0639042
-0.0623836
-0.0821959
-0.074024
-0.0531763
-0.0792332
-0.0754121
-0.074297
-0.0750169
-0.0746564
-0.074606
-0.0744063
-0.0755622
-0.0720412
-0.0698016
-0.0560112
-0.0580857
-0.0751948
-0.0489842
-0.0669032
-0.0964049
-0.0620939
-0.0624505
-0.0544478
-0.0674967
-0.0500463
-0.0527355
-0.0525891
-0.0670915
-0.0632693
-0.0604603
-0.0641213
-0.0980316
-0.0602951
-0.0609834
-0.055233
-0.0646287
-0.0663574
-0.0724097
-0.0587962
-0.0618845
-0.0563175
-0.0456151
-0.0361471
-0.0279568
-0.021229
-0.0160307
-0.0124358
-0.011819
-0.0109864
-0.00779521
-0.00838284
-0.0115899
-0.0092001
-0.00805621
-0.0096639
-0.00952823
-0.013345
-0.00998143
-0.0130745
-0.00943878
-0.00985616
-0.0128567
-0.0094099
-0.00965621
-0.0129775
-0.00955731
-0.0094793
-0.0130352
-0.00968624
-0.00953247
-0.0133804
-0.00999935
-0.0130899
-0.00947075
-0.00808788
-0.00920774
-0.00826991
-0.00781244
-0.0115979
-0.00838843
-0.00833725
-0.00771765
-0.00777348
-0.0116131
-0.00834896
-0.00831777
-0.00772821
-0.00778201
-0.0116065
-0.00835883
-0.00826259
-0.00807944
-0.010769
-0.00885602
-0.0104466
-0.013083
-0.0139894
-0.00840993
-0.0118372
-0.0080653
-0.0105898
-0.00703309
-0.0094499
-0.00977547
-0.00909427
-0.00977972
-0.0110387
-0.00934845
-0.0123732
-0.0122765
-0.0130225
-0.0103279
-0.013007
-0.0149922
-0.0150101
-0.0168812
-0.0132097
-0.0169072
-0.0195323
-0.0195468
-0.0223445
-0.0174495
-0.0223736
-0.025877
-0.0258929
-0.0295388
-0.023149
-0.0295888
-0.0340099
-0.0340497
-0.0384374
-0.0303245
-0.0385302
-0.0438899
-0.0439812
-0.048914
-0.0388973
-0.0490657
-0.0552471
-0.0554231
-0.0607144
-0.0484833
-0.0609616
-0.0666223
-0.0668014
-0.0640006
-0.0980442
-0.060285
-0.0600929
-0.0554102
-0.0762482
-0.0760649
-0.0527391
-0.0526425
-0.0669402
-0.0637892
-0.059874
-0.0647982
-0.0978967
-0.060662
-0.0600391
-0.0555383
-0.0637439
-0.0666931
-0.0604209
-0.0605674
-0.0562144
-0.0456261
-0.0361865
-0.0279875
-0.0212478
-0.0160408
-0.0124407
-0.0118229
-0.0109935
-0.00777113
-0.0077539
-0.0077482
-0.00776786
-0.0116054
-0.00831654
-0.008357
-0.00828216
-0.00965661
-0.0138428
-0.00831842
-0.0116079
-0.00835808
-0.0137617
-0.00983532
-0.0128238
-0.00940849
-0.00828573
-0.00965721
-0.0128261
-0.00688803
-0.00938372
-0.00935405
-0.00934359
-0.00978407
-0.012272
-0.0130268
-0.015009
-0.0168846
-0.0195518
-0.0223458
-0.0259043
-0.0295409
-0.0340708
-0.0384387
-0.0440224
-0.0489019
-0.055505
-0.0606517
-0.0672581
-0.0632206
-0.0980702
-0.0643952
-0.0604483
-0.0664765
-0.0611257
-0.0485183
-0.0552442
-0.0491419
-0.0389247
-0.0439226
-0.0385605
-0.0303422
-0.0340416
-0.0295993
-0.0231591
-0.0259013
-0.022375
-0.0174549
-0.0195543
-0.016901
-0.0132122
-0.0150158
-0.012995
-0.0103266
-0.0123912
-0.00976649
-0.0123803
-0.0130066
-0.0103278
-0.0122833
-0.00978438
-0.0110409
-0.00907937
-0.00696936
-0.00980394
-0.00887463
-0.0124202
-0.013029
-0.0149863
-0.0169526
-0.0195591
-0.0224061
-0.025962
-0.0296124
-0.0341842
-0.0385348
-0.0442731
-0.048888
-0.0560569
-0.0601484
-0.0675986
-0.0636295
-0.0969056
-0.0675388
-0.058529
-0.0723631
-0.0660275
-0.0471124
-0.0598506
-0.0527877
-0.0377652
-0.0473557
-0.0412369
-0.0293774
-0.0365793
-0.0315909
-0.0224009
-0.027802
-0.023878
-0.0168803
-0.0209578
-0.0180448
-0.012784
-0.0160628
-0.0139923
-0.00999632
-0.0130807
-0.010449
-0.0107733
-0.00945402
-0.00987959
-0.00872003
-0.0106195
-0.00701725
-0.00801551
-0.00937521
-0.00866327
-0.0126772
-0.0135335
-0.013066
-0.0130072
-0.0102846
-0.0122707
-0.0124689
-0.0090141
-0.0110686
-0.0099949
-0.00981806
-0.00961482
-0.013323
-0.0105399
-0.0100018
-0.0137228
-0.0104463
-0.00978348
-0.00967678
-0.00940761
-0.0123923
-0.012998
-0.0116334
-0.0150261
-0.0169026
-0.0195634
-0.022375
-0.0198238
-0.0259222
-0.0295803
-0.0340954
-0.0384872
-0.0338218
-0.0440431
-0.0489488
-0.0554598
-0.0607653
-0.0526671
-0.0527611
-0.0428742
-0.0429104
-0.0339961
-0.0339135
-0.0442489
-0.04899
-0.038915
-0.0494861
-0.0550757
-0.0558583
-0.0604726
-0.0484405
-0.0618021
-0.0658255
-0.0740637
-0.0618362
-0.0978875
-0.0619388
-0.0588496
-0.0572512
-0.0742003
-0.0499478
-0.0451829
-0.0631796
-0.0398278
-0.0548509
-0.0498648
-0.0314574
-0.0439102
-0.0385533
-0.0243659
-0.0341605
-0.0295072
-0.018579
-0.0258743
-0.0221171
-0.0139982
-0.0195372
-0.0166776
-0.0106207
-0.0148465
-0.0129147
-0.00839348
-0.0118745
-0.00872079
-0.00839394
-0.0109182
-0.0099192
-0.0116005
-0.0136332
-0.0152482
-0.0174706
-0.0199922
-0.0230471
-0.0223593
-0.0224281
-0.0174146
-0.0195983
-0.0195877
-0.0169532
-0.0131828
-0.0168761
-0.0149924
-0.0142625
-0.0110406
-0.00974127
-0.011505
-0.0109868
-0.010521
-0.0123607
-0.012397
-0.0102538
-0.00961691
-0.00724919
-0.011945
-0.00666422
-0.00922355
-0.0101961
-0.0108765
-0.0136916
-0.0160165
-0.0158801
-0.0209657
-0.021295
-0.0180136
-0.0178871
-0.0167951
-0.0202363
-0.0236097
-0.026646
-0.0304275
-0.0351492
-0.0395959
-0.0386584
-0.0385774
-0.0303091
-0.034134
-0.0341944
-0.0296472
-0.0231168
-0.0296178
-0.0261971
-0.0248952
-0.018883
-0.0167131
-0.0196307
-0.019292
-0.0184454
-0.0148155
-0.0141885
-0.0136012
-0.0152137
-0.0127085
-0.0126034
-0.0140155
-0.012488
-0.0103121
-0.00958763
-0.00918817
-0.00879002
-0.00937475
-0.00804313
-0.0110559
-0.0109557
-0.013023
-0.011605
-0.0150174
-0.0150074
-0.0169092
-0.013216
-0.0168871
-0.0149566
-0.0195574
-0.0195551
-0.0223739
-0.0174634
-0.0223678
-0.0197868
-0.0259069
-0.0259257
-0.0295761
-0.0231764
-0.0295989
-0.0260798
-0.0340635
-0.0341134
-0.0384818
-0.0303726
-0.0385659
-0.0337867
-0.0439573
-0.0440999
-0.0489169
-0.0389651
-0.0491664
-0.0427649
-0.0552278
-0.0556087
-0.0606333
-0.0485222
-0.0611226
-0.0525013
-0.0664713
-0.0670972
-0.0639241
-0.0603417
-0.0639496
-0.0558317
-0.0604096
-0.0582061
-0.0531787
-0.0736097
-0.0494472
-0.0645955
-0.0500033
-0.047871
-0.0592384
-0.0596223
-0.0527804
-0.0562695
-0.0566623
-0.0514895
-0.0466962
-0.045753
-0.0359258
-0.0367104
-0.0314452
-0.0281736
-0.0276473
-0.027446
-0.0208597
-0.0158414
-0.0123869
-0.010214
-0.0095048
-0.0070081
-0.00970427
-0.00858493
-0.00923395
-0.009287
-0.0091567
-0.0094604
-0.0110681
-0.00826696
-0.0101687
-0.00991456
-0.0100007
-0.0102746
-0.00806824
-0.0101357
-0.0100244
-0.00999916
-0.0110741
-0.00760645
-0.00766369
-0.00765085
-0.00762706
-0.00760369
-0.00756666
-0.0116685
-0.00763917
-0.00762001
-0.00762226
-0.0116712
-0.0076513
-0.0111482
-0.0119107
-0.0118638
-0.010452
-0.0104246
-0.00972734
-0.01163
-0.0150271
-0.0198978
-0.0262141
-0.033917
-0.0322401
-0.0286862
-0.0336271
-0.0330478
-0.0315808
-0.0352522
-0.0401508
-0.0458427
-0.0498765
-0.0592389
-0.0481766
-0.0495823
-0.0395964
-0.0457569
-0.0379995
-0.0407042
-0.0414024
-0.0355677
-0.0451163
-0.055911
-0.0688143
-0.0684478
-0.0684789
-0.0596618
-0.0554759
-0.0579548
-0.0634181
-0.0529278
-0.0599393
-0.0854877
-0.0772028
-0.0763532
-0.0788192
-0.050599
-0.0641674
-0.0673759
-0.0806862
-0.0521205
-0.0664608
-0.0676759
-0.081072
-0.052342
-0.065632
-0.068529
-0.0808873
-0.0535516
-0.0650456
-0.07296
-0.100897
-0.0793227
-0.0775557
-0.0981798
-0.0960823
-0.0766642
-0.0564317
-0.0796766
-0.0712004
-0.0639063
-0.0672407
-0.070766
-0.0553262
-0.0733634
-0.0837638
-0.0572143
-0.0698481
-0.0560433
-0.0581361
-0.0752198
-0.065561
-0.0500669
-0.0620659
-0.054587
-0.0413126
-0.0492308
-0.0436702
-0.032584
-0.0383666
-0.0339478
-0.0251642
-0.0293626
-0.0258626
-0.0190654
-0.0221866
-0.0195012
-0.0144048
-0.0167426
-0.0148881
-0.010906
-0.013028
-0.0118344
-0.00879103
-0.0105968
-0.00867203
-0.00985984
-0.00943763
-0.0104433
-0.0130898
-0.0139908
-0.00999601
-0.0124409
-0.008855
-0.0107729
-0.00979523
-0.00696784
-0.00906578
-0.00938871
-0.0110414
-0.00925695
-0.00957697
-0.0103098
-0.0124783
-0.0159535
-0.0159733
-0.0210593
-0.027729
-0.0259092
-0.0250025
-0.023973
-0.0270634
-0.0312796
-0.0293273
-0.0223177
-0.0239163
-0.0243206
-0.0259592
-0.0259758
-0.0198663
-0.0223773
-0.0258884
-0.023178
-0.0296023
-0.034033
-0.0303684
-0.0385562
-0.0439176
-0.038944
-0.0490954
-0.0552332
-0.0484865
-0.060873
-0.0516129
-0.0523013
-0.0622527
-0.0624299
-0.0561583
-0.0451221
-0.0355621
-0.0274542
-0.0208792
-0.0158636
-0.0124055
-0.0102498
-0.00954144
-0.00696766
-0.00938707
-0.00924843
-0.00956439
-0.010276
-0.0124475
-0.0159229
-0.0209748
-0.0275884
-0.0357343
-0.0453371
-0.0563078
-0.0699473
-0.0694805
-0.0558262
-0.105139
-0.0776695
-0.074499
-0.0677368
-0.0810493
-0.0524142
-0.0525544
-0.0571326
-0.083814
-0.0543893
-0.0552207
-0.0562972
-0.0842814
-0.0546379
-0.0554645
-0.055908
-0.0840903
-0.0560832
-0.0570601
-0.0626666
-0.106759
-0.080315
-0.0783636
-0.0787171
-0.0780343
-0.063108
-0.0592777
-0.0629263
-0.106365
-0.0622246
-0.0641552
-0.0837887
-0.0671034
-0.0640904
-0.0654947
-0.074028
-0.0548942
-0.0732452
-0.0732887
-0.0560225
-0.0744413
-0.0662999
-0.0641075
-0.0670016
-0.0747197
-0.0744683
-0.0751214
-0.0741307
-0.0641523
-0.0631756
-0.0687834
-0.0839383
-0.071802
-0.056546
-0.0764085
-0.0671581
-0.0565159
-0.0919937
-0.0498001
-0.0655988
-0.0552921
-0.0649005
-0.0601702
-0.0477465
-0.055459
-0.0497996
-0.0397873
-0.0443816
-0.0399974
-0.0308043
-0.0350876
-0.0308435
-0.0243608
-0.0267304
-0.023695
-0.0179918
-0.020376
-0.0177313
-0.0138931
-0.0152262
-0.013659
-0.0104082
-0.0117387
-0.0108201
-0.00841532
-0.00937708
-0.00663214
-0.0118871
-0.00858125
-0.00724611
-0.0133557
-0.00952662
-0.00997785
-0.0130527
-0.00944735
-0.00983312
-0.0128345
-0.00939184
-0.00966346
-0.0129668
-0.00957457
-0.00944703
-0.0130167
-0.00702347
-0.00914099
-0.0110665
-0.00937459
-0.00976652
-0.0123578
-0.0103211
-0.0130018
-0.0130023
-0.0115965
-0.0149757
-0.012771
-0.0169196
-0.0180263
-0.012602
-0.020937
-0.0139729
-0.0238196
-0.0166787
-0.0276985
-0.0184972
-0.0315034
-0.0219812
-0.0363633
-0.024209
-0.041012
-0.0284693
-0.0467786
-0.031016
-0.0523076
-0.036067
-0.0587967
-0.0388375
-0.0651651
-0.0445803
-0.0713013
-0.0471882
-0.0555406
-0.0678948
-0.0663283
-0.0530859
-0.0624318
-0.0463959
-0.0564251
-0.0547705
-0.0428698
-0.0502958
-0.037148
-0.0448417
-0.0436596
-0.0338445
-0.0394726
-0.0290159
-0.0348618
-0.0339446
-0.026125
-0.0303619
-0.0221725
-0.026522
-0.0258826
-0.0198336
-0.0229575
-0.0167472
-0.0200295
-0.0195664
-0.0149932
-0.0174122
-0.0126915
-0.0153025
-0.0150307
-0.0116423
-0.0134502
-0.00992211
-0.0127338
-0.0122578
-0.00981236
-0.0086193
-0.00799872
-0.00701736
-0.00944411
-0.00986474
-0.00866647
-0.0105888
-0.00875625
-0.00934229
-0.00880675
-0.0092003
-0.00925585
-0.00935591
-0.0110369
-0.00934724
-0.0097551
-0.00971916
-0.012409
-0.00999281
-0.0139753
-0.00974625
-0.0160512
-0.0106123
-0.0140289
-0.0110749
-0.0109768
-0.0122831
-0.010417
-0.0137387
-0.00835163
-0.0116007
-0.00831715
-0.00826632
-0.0101499
-0.00998219
-0.00990182
-0.00999254
-0.0100296
-0.013839
-0.0104474
-0.00976846
-0.0116538
-0.0116633
-0.0116616
-0.0150426
-0.0150485
-0.0116398
-0.013951
-0.0110484
-0.0109962
-0.0122837
-0.010336
-0.0130351
-0.0149968
-0.0132203
-0.0169052
-0.0195415
-0.0174669
-0.0189745
-0.0150659
-0.0150245
-0.0199467
-0.026276
-0.0261776
-0.0262587
-0.0199385
-0.0150595
-0.0149946
-0.0150199
-0.0116271
-0.0116021
-0.0130034
-0.0149921
-0.0160564
-0.0180354
-0.0209391
-0.0238298
-0.0139849
-0.019512
-0.0126027
-0.0167367
-0.0106252
-0.0148989
-0.0097515
-0.0130242
-0.0108872
-0.0104417
-0.0136387
-0.0127066
-0.0152817
-0.0174056
-0.0150027
-0.0195663
-0.0173744
-0.0223263
-0.022383
-0.0198454
-0.0258199
-0.0230973
-0.0295223
-0.0295343
-0.0260763
-0.0338659
-0.0301805
-0.0384128
-0.0384279
-0.0337036
-0.0436779
-0.0373674
-0.0489254
-0.0548461
-0.0466233
-0.0608969
-0.0657902
-0.0559262
-0.0621405
-0.0564535
-0.0456447
-0.0361445
-0.0279502
-0.0212242
-0.0160272
-0.0124338
-0.0118161
-0.0109808
-0.00777159
-0.00771904
-0.00776103
-0.00834108
-0.0138227
-0.0104441
-0.0104433
-0.0137009
-0.00833509
-0.0082557
-0.0101714
-0.00999247
-0.0105351
-0.00998889
-0.0137529
-0.0104192
-0.0097224
-0.012427
-0.010002
-0.0111196
-0.0109471
-0.0118656
-0.0110714
-0.00762271
-0.00759876
-0.0116707
-0.007563
-0.00770791
-0.011606
-0.0109513
-0.0116562
-0.0110394
-0.009609
-0.013297
-0.0127664
-0.00982375
-0.0122475
-0.010279
-0.0130798
-0.0129777
-0.0116581
-0.0149856
-0.0132057
-0.016879
-0.0149888
-0.019513
-0.017423
-0.0223432
-0.0223247
-0.0197641
-0.0258596
-0.0223173
-0.0295358
-0.0339403
-0.0291858
-0.0384281
-0.0338457
-0.0261641
-0.0198714
-0.0150139
-0.0116226
-0.0109418
-0.0118613
-0.0110658
-0.0107606
-0.0124908
-0.0109577
-0.0111238
-0.0109453
-0.0107622
-0.0124879
-0.0116481
-0.0116324
-0.0150534
-0.0149909
-0.0199318
-0.0198213
-0.0210044
-0.0276278
-0.0357973
-0.0359527
-0.0456376
-0.0425596
-0.0414929
-0.051975
-0.0617787
-0.052589
-0.0749675
-0.0569289
-0.107699
-0.0762241
-0.0747493
-0.0710818
-0.0864772
-0.0784138
-0.0812954
-0.0780177
-0.107022
-0.0752319
-0.0743919
-0.0676633
-0.0806934
-0.0522739
-0.0533134
-0.0577394
-0.0833577
-0.0541574
-0.0561304
-0.0571044
-0.0838165
-0.0544063
-0.0562107
-0.0568764
-0.08362
-0.0559646
-0.0574475
-0.079831
-0.0618947
-0.0527471
-0.0526099
-0.0610379
-0.0650708
-0.0469726
-0.0595846
-0.0393024
-0.0470385
-0.0574967
-0.0428547
-0.0544138
-0.0615285
-0.0529739
-0.0652331
-0.0707466
-0.0610251
-0.057044
-0.0479055
-0.0580908
-0.0561022
-0.0720274
-0.0756371
-0.0742871
-0.0660689
-0.052875
-0.065431
-0.0575298
-0.0657434
-0.0528159
-0.065426
-0.0575832
-0.0658196
-0.0529745
-0.0654966
-0.0756175
-0.073938
-0.0642422
-0.059247
-0.0709615
-0.0842704
-0.0629548
-0.0790665
-0.0802984
-0.0771321
-0.0641211
-0.0622214
-0.0626446
-0.105796
-0.0628658
-0.0696985
-0.102087
-0.0809549
-0.0776092
-0.0629651
-0.0620844
-0.0799722
-0.0570257
-0.0568498
-0.0793179
-0.0608403
-0.0565324
-0.0563269
-0.0456248
-0.0361557
-0.0279629
-0.0212332
-0.0160331
-0.0124373
-0.01182
-0.0109873
-0.0075634
-0.00760434
-0.0101052
-0.00990225
-0.00999274
-0.0128159
-0.00983343
-0.00807941
-0.00826528
-0.00919898
-0.00838475
-0.00806026
-0.00952989
-0.0133682
-0.00998553
-0.0132971
-0.00945072
-0.0130564
-0.0105373
-0.0102785
-0.00999514
-0.0137061
-0.00833685
-0.00834407
-0.0116085
-0.00774322
-0.00773856
-0.00834621
-0.00833229
-0.00824871
-0.00958515
-0.0131344
-0.00959188
-0.0138187
-0.010441
-0.0104419
-0.00961113
-0.00807253
-0.00937353
-0.00878716
-0.00921336
-0.00958617
-0.0103088
-0.0124958
-0.0159859
-0.0210582
-0.0276985
-0.0358774
-0.045514
-0.0454338
-0.0565256
-0.056596
-0.0693714
-0.0562838
-0.0598361
-0.0601507
-0.0981239
-0.0695549
-0.0752461
-0.0776103
-0.104856
-0.0556274
-0.0600568
-0.0602217
-0.0566717
-0.0609843
-0.0620469
-0.0964191
-0.064807
-0.0669043
-0.0544778
-0.0624551
-0.0719452
-0.060581
-0.0520457
-0.0564991
-0.0700584
-0.0698523
-0.0621574
-0.0623855
-0.0529183
-0.0417267
-0.0321652
-0.0244461
-0.0184276
-0.0181667
-0.0138175
-0.0138185
-0.0109605
-0.0110758
-0.0115322
-0.014857
-0.0196313
-0.0258495
-0.0334809
-0.0423733
-0.0521691
-0.0514051
-0.0515428
-0.0408952
-0.0316735
-0.0241002
-0.0240773
-0.0181598
-0.0184078
-0.0140201
-0.0150081
-0.0160646
-0.0180383
-0.0209507
-0.0238348
-0.0168564
-0.0195608
-0.0169273
-0.0127754
-0.0145654
-0.0116271
-0.0116062
-0.0130012
-0.0104238
-0.0137486
-0.0094064
-0.00972805
-0.0109436
-0.0111211
-0.0115907
-0.00779733
-0.00772238
-0.0101819
-0.00997562
-0.0100577
-0.0101026
-0.00755954
-0.0116736
-0.0101048
-0.010147
-0.00827653
-0.010278
-0.0101075
-0.00989152
-0.00998206
-0.0100144
-0.0105318
-0.00998846
-0.0100171
-0.0101828
-0.0102806
-0.00778431
-0.00838495
-0.00919204
-0.0115841
-0.0082652
-0.00807006
-0.0111165
-0.0109549
-0.011864
-0.0110637
-0.0107611
-0.0109568
-0.0116598
-0.0110421
-0.00975844
-0.014259
-0.0126127
-0.0150203
-0.0149579
-0.0198829
-0.0197787
-0.0223827
-0.0259161
-0.0277543
-0.0314998
-0.0364856
-0.0410083
-0.0292779
-0.0340534
-0.0295967
-0.02235
-0.0254528
-0.0188625
-0.0166946
-0.0248362
-0.0220078
-0.0261859
-0.0260561
-0.0262521
-0.0261146
-0.0339583
-0.0338299
-0.0428736
-0.0428122
-0.040732
-0.0365683
-0.0430697
-0.0426528
-0.0333373
-0.0254912
-0.0192403
-0.0145723
-0.0143608
-0.0141164
-0.0161006
-0.0189548
-0.0186151
-0.0213263
-0.0251038
-0.024645
-0.021329
-0.0161031
-0.0143767
-0.0143598
-0.0141124
-0.0125341
-0.0161523
-0.0213942
-0.0281703
-0.028086
-0.0328062
-0.0321831
-0.0363043
-0.0419293
-0.0410902
-0.0457714
-0.0520662
-0.0529948
-0.0526233
-0.0758213
-0.0529822
-0.0798997
-0.0618079
-0.0605294
-0.0766956
-0.0558565
-0.0790428
-0.0797177
-0.0814433
-0.0777465
-0.106237
-0.075223
-0.069794
-0.0655699
-0.0823648
-0.0832434
-0.062109
-0.0699489
-0.0802365
-0.0831871
-0.0768444
-0.0751925
-0.10562
-0.0780832
-0.0816888
-0.0819627
-0.0821734
-0.0817357
-0.077768
-0.0824196
-0.0733934
-0.0685333
-0.0808916
-0.0535822
-0.052308
-0.0568864
-0.0836418
-0.0559197
-0.0549491
-0.0559187
-0.0841336
-0.0559867
-0.0551987
-0.0555199
-0.0839077
-0.0572213
-0.0627749
-0.106107
-0.0825923
-0.0773234
-0.0643491
-0.0621431
-0.0793311
-0.0608052
-0.0565218
-0.0457802
-0.0362828
-0.0280669
-0.0213145
-0.016094
-0.0124855
-0.0143655
-0.0145625
-0.012782
-0.0169241
-0.0195434
-0.0168643
-0.0223739
-0.0258948
-0.0277382
-0.0314918
-0.0364645
-0.0409975
-0.0242598
-0.0339649
-0.0219898
-0.0293659
-0.0185257
-0.025877
-0.0166815
-0.0221861
-0.0190439
-0.0182352
-0.0236013
-0.022203
-0.0268609
-0.0303392
-0.0261307
-0.0339295
-0.0301051
-0.0384793
-0.0384574
-0.0338095
-0.0434884
-0.0386096
-0.0488995
-0.0427245
-0.0545825
-0.0480876
-0.0608789
-0.0609758
-0.0528168
-0.0658366
-0.0575703
-0.065578
-0.0656793
-0.0528494
-0.0608664
-0.0609154
-0.0654997
-0.0575147
-0.0607151
-0.052901
-0.0428359
-0.0339112
-0.0262221
-0.0199181
-0.0150519
-0.014254
-0.0188548
-0.0198813
-0.0197715
-0.0261824
-0.0260451
-0.0295807
-0.034027
-0.0292883
-0.0385267
-0.0439172
-0.0471123
-0.0522663
-0.0595438
-0.0650839
-0.0392971
-0.0546204
-0.0362248
-0.0492427
-0.0311861
-0.0436928
-0.0285185
-0.0383761
-0.0325533
-0.0311421
-0.0398493
-0.037375
-0.0449259
-0.0499239
-0.0428564
-0.0544173
-0.0479598
-0.0614845
-0.0606617
-0.0528802
-0.0660139
-0.0572251
-0.0652631
-0.0707145
-0.0529834
-0.0610102
-0.056992
-0.0580484
-0.0560636
-0.0596755
-0.0563342
-0.0478531
-0.0500264
-0.0620751
-0.065598
-0.0447501
-0.0519111
-0.0422467
-0.0333773
-0.0257681
-0.0195681
-0.0148077
-0.0114939
-0.00934761
-0.00879544
-0.00987096
-0.00867204
-0.00663553
-0.00800732
-0.0093836
-0.00861579
-0.0119032
-0.00723509
-0.00855794
-0.0110671
-0.00998452
-0.00899098
-0.00978323
-0.0122688
-0.0103292
-0.0129751
-0.0116278
-0.0149805
-0.0131979
-0.016895
-0.0168619
-0.0149486
-0.0195266
-0.016846
-0.0223549
-0.0184047
-0.0181617
-0.0195339
-0.0138404
-0.0150125
-0.0124022
-0.0123903
-0.0102014
-0.00950641
-0.00925897
-0.00970309
-0.00961229
-0.00923965
-0.0101967
-0.00843718
-0.0108073
-0.00993613
-0.0134416
-0.011652
-0.0150271
-0.0131669
-0.0168792
-0.0169212
-0.0150196
-0.0195187
-0.0174322
-0.0223442
-0.0198089
-0.0258237
-0.0230866
-0.029523
-0.0295188
-0.0260289
-0.0338693
-0.0313039
-0.0239959
-0.0258329
-0.0208672
-0.0208474
-0.0158519
-0.0139488
-0.015054
-0.0110619
-0.0124835
-0.0102561
-0.0109043
-0.0117667
-0.012387
-0.0124153
-0.0137171
-0.015338
-0.0160471
-0.0137781
-0.0177973
-0.0167569
-0.0229693
-0.0198383
-0.0258807
-0.0230208
-0.0295252
-0.029574
-0.0261242
-0.0338473
-0.0301926
-0.0384237
-0.0337517
-0.0435399
-0.0386066
-0.0488999
-0.048953
-0.0426842
-0.0545773
-0.0427849
-0.0418741
-0.0327521
-0.0321665
-0.028076
-0.0213213
-0.0160989
-0.0124896
-0.0141134
-0.0143572
-0.0189478
-0.0192231
-0.015058
-0.0199273
-0.0262349
-0.0332661
-0.0327897
-0.0250919
-0.024637
-0.0186099
-0.0189633
-0.0143718
-0.0132125
-0.015019
-0.0116281
-0.0150025
-0.0168969
-0.014994
-0.0195286
-0.0195444
-0.0168872
-0.0168939
-0.015023
-0.0195283
-0.0195759
-0.0169248
-0.01505
-0.0116579
-0.0149963
-0.0130271
-0.012986
-0.0129978
-0.01301
-0.0116517
-0.0150255
-0.0150034
-0.0132097
-0.0168777
-0.0150158
-0.019552
-0.0195331
-0.0174382
-0.0223342
-0.019844
-0.0258699
-0.0258351
-0.0258318
-0.0258508
-0.0198149
-0.0223586
-0.0223493
-0.0174413
-0.022351
-0.019852
-0.025829
-0.025901
-0.0223868
-0.0173887
-0.0195703
-0.0200581
-0.0150023
-0.0168853
-0.0131769
-0.0150296
-0.0153509
-0.01165
-0.0130815
-0.0129831
-0.0124734
-0.00978076
-0.0122787
-0.0103361
-0.0123887
-0.00976877
-0.0123698
-0.0103335
-0.0122911
-0.00977584
-0.0124501
-0.0129885
-0.0130578
-0.0102788
-0.0110655
-0.0101612
-0.00949449
-0.00704475
-0.00966407
-0.00919822
-0.00942191
-0.00943923
-0.0070112
-0.0094795
-0.00930266
-0.00918446
-0.00968037
-0.00704638
-0.0130702
-0.00967739
-0.00943543
-0.00825261
-0.0110676
-0.00966881
-0.00937828
-0.00939426
-0.00964847
-0.00901378
-0.00995941
-0.0110607
-0.00805116
-0.00967094
-0.0130605
-0.00943896
-0.013699
-0.0104389
-0.0116561
-0.0116538
-0.0150572
-0.0199298
-0.0251046
-0.0231089
-0.0295352
-0.0260812
-0.0338647
-0.0338959
-0.0338553
-0.033986
-0.0261316
-0.0295452
-0.0295777
-0.0230412
-0.0258861
-0.0265873
-0.0198389
-0.0223375
-0.022976
-0.0167735
-0.0178154
-0.0203314
-0.0182628
-0.0236249
-0.026894
-0.0240982
-0.0310157
-0.0350935
-0.0311859
-0.0398916
-0.044974
-0.0394637
-0.0495447
-0.0499008
-0.0459718
-0.0398951
-0.0363181
-0.0311299
-0.0280253
-0.0238158
-0.0212649
-0.0180096
-0.0160618
-0.0137926
-0.0153064
-0.017407
-0.0127192
-0.0136464
-0.0117821
-0.0104605
-0.0123952
-0.0137245
-0.0109067
-0.0108145
-0.00994591
-0.0127715
-0.00981986
-0.01225
-0.0102861
-0.0110743
-0.0102417
-0.00961441
-0.00724311
-0.00857412
-0.0119005
-0.00663804
-0.00939368
-0.00844045
-0.0101953
-0.00924089
-0.00801216
-0.0086192
-0.0099798
-0.00900604
-0.0110669
-0.00925897
-0.00949604
-0.0101676
-0.0123495
-0.0123984
-0.0158822
-0.0209247
-0.027509
-0.0261317
-0.0339372
-0.034947
-0.0303507
-0.0295417
-0.0242061
-0.0183178
-0.0139714
-0.0139117
-0.0158068
-0.0207889
-0.0272943
-0.0316125
-0.0301327
-0.0384582
-0.0338182
-0.0434895
-0.0437601
-0.0435814
-0.0451916
-0.0338417
-0.0385032
-0.0394479
-0.0291081
-0.0242656
-0.031991
-0.0316141
-0.0407728
-0.0412881
-0.0439438
-0.0471422
-0.0522736
-0.0362527
-0.0406186
-0.0321352
-0.0285408
-0.0338788
-0.0337519
-0.0385549
-0.0428017
-0.0427555
-0.0491228
-0.0375875
-0.0425535
-0.0339271
-0.0428523
-0.0529473
-0.052096
-0.0419177
-0.04109
-0.0321741
-0.0327936
-0.036294
-0.0364033
-0.0363063
-0.0280885
-0.0251286
-0.0250937
-0.0189504
-0.0186084
-0.0189541
-0.019218
-0.025445
-0.0223599
-0.0244102
-0.0184281
-0.0181948
-0.0182408
-0.0183315
-0.0138737
-0.0138441
-0.0109757
-0.011081
-0.0092009
-0.0140339
-0.0241947
-0.0241223
-0.0316682
-0.0317817
-0.0319884
-0.0409902
-0.0408336
-0.0413355
-0.0320283
-0.0490715
-0.0553397
-0.0469876
-0.0609477
-0.0522278
-0.0514722
-0.0623141
-0.0625316
-0.0605319
-0.0720507
-0.0961386
-0.098134
-0.0564245
-0.0729395
-0.100916
-0.0793042
-0.0631247
-0.0780138
-0.0788741
-0.0642526
-0.0626367
-0.106934
-0.0808293
-0.0782222
-0.101412
-0.086841
-0.0869313
-0.0819736
-0.0797262
-0.0560975
-0.0792267
-0.0606421
-0.0564071
-0.0457725
-0.0419637
-0.0328364
-0.0327895
-0.033963
-0.0338724
-0.0337345
-0.0427927
-0.0427336
-0.0406023
-0.0321208
-0.0248251
-0.0349196
-0.0394317
-0.0338399
-0.0435741
-0.0385264
-0.0491576
-0.0488731
-0.042787
-0.0544552
-0.0480614
-0.0546043
-0.0428269
-0.0339044
-0.0327774
-0.0332546
-0.0425391
-0.0376002
-0.041915
-0.0410852
-0.0321702
-0.0246344
-0.0250921
-0.0199167
-0.0150476
-0.0116465
-0.0150286
-0.0138703
-0.0168887
-0.0110017
-0.013028
-0.0123999
-0.00930094
-0.00967684
-0.00945232
-0.00694836
-0.00952816
-0.0102366
-0.0181995
-0.0182858
-0.0195743
-0.0158996
-0.017998
-0.0203058
-0.0212447
-0.0209459
-0.0237993
-0.0265661
-0.0279983
-0.0240654
-0.0309827
-0.0290769
-0.0350515
-0.0311073
-0.0362832
-0.0356416
-0.0275368
-0.0241618
-0.0258947
-0.0240438
-0.0258478
-0.0273728
-0.031553
-0.0339744
-0.0313658
-0.0384245
-0.0353882
-0.0403602
-0.04374
-0.039868
-0.0451579
-0.0459313
-0.0394119
-0.0494976
-0.0469991
-0.0574607
-0.0498745
-0.0451739
-0.0559038
-0.0649321
-0.0643914
-0.0636403
-0.0683894
-0.0652449
-0.0601635
-0.0503071
-0.0549471
-0.0447808
-0.0553888
-0.0644469
-0.0695891
-0.0664304
-0.059703
-0.0497274
-0.0400234
-0.048937
-0.0435669
-0.0354219
-0.0273976
-0.0448293
-0.055481
-0.0646194
-0.0699482
-0.0664781
-0.059697
-0.049672
-0.0399514
-0.0435405
-0.0405878
-0.0317526
-0.0243229
-0.0195403
-0.0147953
-0.0114831
-0.0108419
-0.014526
-0.0257134
-0.0332395
-0.0420069
-0.050583
-0.0604577
-0.0649719
-0.0711543
-0.0661405
-0.0533804
-0.0596255
-0.0648316
-0.0644513
-0.0555458
-0.05519
-0.0446387
-0.0352686
-0.0272729
-0.0207683
-0.0157891
-0.0123368
-0.0123314
-0.0101709
-0.0110286
-0.0110257
-0.00929905
-0.0110655
-0.00924851
-0.00960937
-0.0102279
-0.0123781
-0.0139647
-0.0131691
-0.0168622
-0.0169276
-0.0150536
-0.0143691
-0.0141102
-0.0107599
-0.0143515
-0.0145589
-0.0110366
-0.00960552
-0.0132913
-0.0130815
-0.00839594
-0.0142517
-0.0192141
-0.0189596
-0.0186049
-0.0189368
-0.0250701
-0.0246298
-0.0251002
-0.019922
-0.0262294
-0.0262365
-0.0339243
-0.0419131
-0.0386278
-0.0435835
-0.0337537
-0.0435187
-0.0489676
-0.0427204
-0.0545076
-0.054637
-0.0488706
-0.0489859
-0.042792
-0.0544347
-0.0549779
-0.0488634
-0.0385616
-0.04919
-0.0499429
-0.0374149
-0.0311931
-0.0404359
-0.0356056
-0.0451276
-0.0558387
-0.0563655
-0.059685
-0.064387
-0.0636521
-0.0648603
-0.0684109
-0.0652346
-0.0602322
-0.0503934
-0.0446498
-0.0352863
-0.0401421
-0.0314623
-0.0384584
-0.0384175
-0.0384557
-0.0384208
-0.0338257
-0.0436413
-0.0435469
-0.0386301
-0.048915
-0.0428332
-0.0547191
-0.054593
-0.048103
-0.060851
-0.0611048
-0.0609571
-0.0480318
-0.0529752
-0.0521544
-0.0457917
-0.0458857
-0.0509761
-0.0564059
-0.0527649
-0.0526911
-0.076206
-0.0555419
-0.0524729
-0.0790694
-0.0796288
-0.0821739
-0.0777962
-0.0818285
-0.082211
-0.0793144
-0.0551319
-0.0781629
-0.0589125
-0.0770752
-0.0774225
-0.0770824
-0.0772545
-0.0762749
-0.065008
-0.0813181
-0.105664
-0.0567983
-0.0783965
-0.0862714
-0.0817134
-0.0869491
-0.0814207
-0.077572
-0.102695
-0.0817273
-0.057441
-0.0628707
-0.10643
-0.0622845
-0.0791896
-0.057191
-0.0776684
-0.0590403
-0.0565403
-0.0510109
-0.0520914
-0.0521017
-0.0529325
-0.0520932
-0.0418944
-0.0521041
-0.0510559
-0.0410919
-0.0419206
-0.0327904
-0.0332428
-0.0339274
-0.0428844
-0.0428457
-0.0521101
-0.0529116
-0.0500602
-0.044777
-0.072467
-0.0489938
-0.0624944
-0.0662809
-0.0587548
-0.0622369
-0.067493
-0.0762687
-0.0552944
-0.0522872
-0.0792463
-0.0606458
-0.0590441
-0.0772498
-0.0549386
-0.078351
-0.0794083
-0.0796955
-0.0823602
-0.0735335
-0.0812844
-0.105598
-0.0783872
-0.0817365
-0.0819855
-0.0820986
-0.0823286
-0.0794027
-0.055468
-0.07835
-0.0812716
-0.0821491
-0.0812043
-0.07951
-0.0552953
-0.0785419
-0.0591746
-0.0776642
-0.0778261
-0.0698466
-0.0529334
-0.0529147
-0.0697268
-0.0693949
-0.050282
-0.0530516
-0.0529234
-0.0607241
-0.0693648
-0.0696444
-0.0699012
-0.064387
-0.0772653
-0.0592464
-0.0494722
-0.0449848
-0.0355413
-0.0274709
-0.0208966
-0.0158575
-0.0183119
-0.0223865
-0.0223147
-0.0173807
-0.0188563
-0.025438
-0.0230284
-0.029504
-0.0295855
-0.0261272
-0.0339351
-0.0338729
-0.0295224
-0.0231051
-0.0295507
-0.0241144
-0.0207587
-0.0157876
-0.0182559
-0.0182536
-0.0139097
-0.0241185
-0.0272477
-0.0352252
-0.0445739
-0.0498582
-0.0609895
-0.0607783
-0.0609874
-0.0498292
-0.0401182
-0.0314514
-0.0302034
-0.0315678
-0.0385002
-0.0384208
-0.0301128
-0.0321242
-0.024823
-0.0425293
-0.0385385
-0.0489571
-0.0490366
-0.0403089
-0.0397004
-0.0310557
-0.0237827
-0.0179888
-0.013703
-0.0108879
-0.00922894
-0.0101843
-0.0123806
-0.0160523
-0.0212444
-0.0241929
-0.0280065
-0.0362382
-0.0458488
-0.0501532
-0.0600906
-0.0574056
-0.0598185
-0.0551135
-0.0552129
-0.0642592
-0.0695167
-0.0663934
-0.0598135
-0.0641824
-0.0693691
-0.0666218
-0.0641667
-0.0704296
-0.0664075
-0.0702403
-0.0406311
-0.0480769
-0.0606204
-0.0479965
-0.0562322
-0.0653173
-0.0791728
-0.081319
-0.0817184
-0.0862579
-0.0814032
-0.0869213
-0.0869272
-0.0868201
-0.0813906
-0.0819872
-0.086643
-0.102582
-0.0831941
-0.0870461
-0.0934307
-0.0916376
-0.103126
-0.103183
-0.101597
-0.102869
-0.10273
-0.0694993
-0.0695686
-0.0510156
-0.0798308
-0.0593224
-0.0694917
-0.0766829
-0.0302072
-0.0572572
-0.0829382
-0.0262196
-0.033888
-0.0415393
-0.0320635
-0.02546
-0.0187322
-0.0412783
-0.0251397
-0.0200418
-0.0223372
-0.0195461
-0.0158666
-0.102714
-0.0553467
-0.0243821
-0.0185298
-0.022226
-0.00703397
-0.0134417
-0.00841284
-0.0106281
-0.0139881
-0.0143956
-0.00878598
-0.0149528
-0.0653473
-0.0696156
-0.0691734
-0.056788
-0.0428538
-0.0116061
-0.00771912
-0.010137
-0.0568419
-0.0130029
-0.0261124
-0.00910778