/*--------------------------------*- C++ -*----------------------------------*\
| =========                 |                                                 |
| \\      /  F ield         | OpenFOAM: The Open Source CFD Toolbox           |
|  \\    /   O peration     | Version:  2306                                  |
|   \\  /    A nd           | Website:  www.openfoam.com                      |
|    \\/     M anipulation  |                                                 |
\*---------------------------------------------------------------------------*/
FoamFile
{
    version     2.0;
    format      ascii;
    arch        "LSB;label=32;scalar=64";
    class       volScalarField;
    location    "3";
    object      gradTx;
}
// * * * * * * * * * * * * * * * * * * * * * * * * * * * * * * * * * * * * * //

dimensions      [0 -1 0 1 0 0 0];

internalField   nonuniform List<scalar> 
5322
(
-0.0185091
0.000930204
0.00101077
1.6295e-06
-6.81621e-05
-6.23118e-05
-4.58344e-05
-3.40876e-05
-2.74392e-05
-1.99375e-05
-1.50197e-05
0.000108936
0.000161144
-0.00220947
-4.45168e-05
0.00400252
-0.00313241
-5.48612e-06
-0.00249346
0.00196281
-0.00264249
0.00295849
-0.00313124
0.00412769
-0.00425879
0.00532724
-0.00536503
0.00713017
-0.00713362
0.00893273
-0.00848709
0.0118253
-0.00876805
0.0161486
0.0011704
0.0231643
0.016412
-0.00650855
0.0180771
-0.0010688
-0.0171546
0.017208
-0.0010424
-0.0182992
0.0182018
-0.000623859
-0.0194478
0.0171042
-0.000408952
-0.0204117
-0.0202485
-0.0291275
-0.00956203
0.0185965
-0.00122235
-0.0304318
-0.000925594
0.0289451
-0.000350474
-0.0289396
-0.000126158
0.028192
-0.0001505
-0.0284221
2.26045e-05
0.027809
0.00040468
-0.0281479
0.00143776
0.0231936
0.00127618
-0.0226017
0.0256587
-0.0264631
0.0254661
-0.0259438
0.0259689
-0.0259737
0.0295829
-0.0216212
0.0102496
-0.0153972
-0.0103199
0.0164008
0.00141937
-0.00761147
0.0117451
-0.0323187
-0.0105399
0.0360104
-0.00162127
0.000406713
0.000718899
0.0042921
0.0220116
-0.0045309
0.000120465
-0.00177652
0.0120898
-0.0285623
-0.0285146
0.0594255
-0.00178042
0.0170207
0.0277741
0.000420107
0.000272617
0.00022826
0.000115956
4.12239e-05
7.12374e-06
-7.54408e-06
-1.89116e-05
-3.11966e-05
3.58059e-05
-1.68597e-05
-0.00130428
-0.00127167
0.000151736
0.000800121
3.77169e-05
0.00119686
-0.00143435
-0.000109655
-0.000347534
0.00222842
0.001822
0.000493412
0.00142893
0.000910778
0.00068739
0.00153491
0.000759895
0.000816673
0.00156151
0.000661855
0.00129682
0.00177601
0.0020064
8.51787e-05
-0.00148253
7.36171e-05
0.00100572
-0.0012296
-0.0013326
0.000206297
0.000532121
0.000284482
-0.00104204
-0.00114741
0.000233806
0.000322482
0.000394572
-0.0011337
-0.0010701
0.000236127
0.000204386
0.000636093
-0.00122079
0.00160191
-0.00354234
-0.00471348
0.00443082
-0.00558253
-0.000262761
-0.00349816
5.26672e-05
0.00326543
-0.000769189
0.00367149
0.00181376
0.00271292
-0.0042497
0.00161804
-0.00366547
0.002638
0.00343237
-0.004574
0.000235693
-0.0038874
0.00387682
0.00482122
-0.00579806
0.00016358
-0.0048598
0.00533233
0.00651532
-0.00765482
0.000254181
-0.00639098
0.00718945
0.00873708
-0.0101856
0.000347609
-0.0085097
0.00944355
0.0115183
-0.0134736
0.000446687
-0.0112831
0.0120129
0.0148078
-0.0175657
0.000574129
-0.0146915
0.014716
0.0184613
-0.0221917
0.000774884
-0.0183228
0.0170005
0.0211878
-0.00403248
0.011564
-0.0282937
-0.0288543
0.0597144
-0.00245217
-0.00263153
0.000828116
0.00465607
0.0219026
-0.0034153
0.00034277
-0.0039966
0.0110732
-0.0287831
-0.0283725
0.0593547
-0.00226295
0.0170148
9.57701e-05
0.000440801
0.000272661
0.000151781
6.2793e-05
1.77688e-05
-2.77231e-06
-1.68293e-05
-2.8275e-05
3.55659e-05
-1.58564e-05
0.0010294
-0.00114568
0.00114459
-0.00103117
3.16234e-06
0.00103018
-0.000967275
-3.2388e-06
-0.00118924
1.32252e-06
-0.00102759
1.00945e-06
0.000967805
3.87803e-05
0.00110935
-9.16487e-05
-0.00120225
3.10345e-06
0.00118861
-7.63319e-07
4.28546e-07
0.00214351
-0.00382296
0.00382186
-0.00377469
0.00428387
-0.0048171
0.00566998
-0.0064228
0.00750938
-0.00858299
0.0100035
-0.0113981
0.01322
-0.0148786
0.0171702
-0.0189357
0.0217101
-0.0230798
0.0262389
-0.0149607
0.000362596
0.0151517
0.000433713
-0.0255581
0.0224893
0.000130912
-0.0210549
0.0185417
8.24616e-05
-0.0166533
0.0145928
5.16304e-05
-0.012828
0.0111741
3.16287e-05
-0.00970861
0.008407
2.1773e-05
-0.0072807
0.00629138
1.98248e-05
-0.00547792
0.00474535
1.73291e-05
-0.00411876
4.19087e-06
0.00412299
-0.00473968
-1.75928e-05
-0.00427266
0.00377322
-7.49417e-06
-0.00216001
-0.000140098
0.00219535
-0.00395944
0.00411702
-0.00475305
0.00539724
-0.00621408
0.00717978
-0.00824864
0.00959367
-0.0109277
0.0127264
-0.0142398
0.0166417
-0.0180318
0.0212419
-0.0216584
0.0258007
-0.014778
-0.00352478
0.00626271
0.000717651
-0.02401
0.0196461
0.000186975
-0.0192224
0.0166804
-4.52844e-05
-0.0147448
0.0130318
-9.0473e-05
-0.0112741
0.00991308
-8.2661e-05
-0.00854044
0.00746982
-8.67965e-05
-0.00641575
0.00565188
-0.000102228
-0.00483597
0.00435192
-0.000145068
-0.00364109
0.00310381
5.21449e-05
-0.00108518
0.00182967
0.00301881
1.25887e-05
0.000353732
-0.000554275
0.00160763
-0.00496398
0.00406265
-0.00556593
-0.0037492
-0.00465354
0.00025417
0.00280641
0.00311574
-0.00415131
0.00155979
-0.00370485
-0.000305287
0.000168922
-0.00144935
0.000120791
-5.94525e-05
-0.00151833
9.67749e-05
-0.000289629
-0.00378004
-0.00410017
0.00319732
-0.00451612
-5.45543e-05
0.0046625
-0.00575029
0.00640071
-0.00760718
-0.000227206
0.00863906
-0.0101394
0.0114059
-0.0134278
0.000115713
0.0146408
-0.0174415
0.0181359
-0.0217213
0.00449452
0.000817154
0.000283265
0.000326598
-5.38227e-05
0.0001504
0.0151701
-0.0179024
0.000686016
-0.0145234
0.0136335
0.0189091
-0.0218047
0.00105269
-0.019168
0.0150137
0.0301169
-0.00278009
0.00126318
-0.0310063
-0.0287781
0.05663
-0.00377565
0.00064003
0.00113968
-0.0143189
0.00291193
0.00897965
-0.00932442
0.000648028
0.00763586
-0.00683673
4.08844e-05
0.00571446
-0.00534658
-5.22319e-05
0.00409881
-0.00394505
-0.000130221
0.00322382
-0.00288135
-0.000202564
0.00261383
-0.00179512
-0.00025714
0.0025711
0.000935894
0.000675955
-0.000150209
-7.63091e-05
0.00117368
-0.000501452
0.00581463
-0.0070282
0.00795172
-0.00928852
-0.00600698
-0.00781781
0.000257557
0.00521977
0.00657439
-0.0059061
0.000169073
-0.00455937
-0.000104524
-5.71682e-05
2.62386e-06
-6.41775e-05
-6.43276e-05
0.000288107
0.000226705
0.000242604
-0.000639854
-0.000149606
0.00173641
0.00264224
0.00222357
0.000765543
0.00353441
0.00135073
0.000881781
0.000521742
-0.00024179
-0.000862837
-0.00114364
-0.000528238
0.000465606
-0.000883637
6.44807e-05
0.0013928
-0.00125461
0.0106997
-0.0123647
0.0141811
-0.0164701
-0.0107845
-0.0138298
0.000483644
0.00904873
0.0117708
-0.0104327
0.00036017
-0.00803877
-0.000126959
-4.24487e-05
-7.2104e-05
-0.000105842
-0.000264337
7.99306e-06
-5.20985e-05
-0.000184966
4.7904e-05
3.57982e-05
0.00120859
3.6973e-05
-9.2847e-05
-2.59424e-05
2.76718e-05
1.7816e-05
-9.92726e-05
0.000224636
-0.00258225
-6.48718e-05
-5.73903e-06
-6.05201e-06
-3.44457e-05
0.00482627
1.25988e-05
-0.00565729
0.00548867
-0.00627606
-1.34826e-05
0.00644781
2.39801e-05
-0.00749118
0.00730637
-0.00837587
-9.06735e-07
0.00863105
3.72273e-05
-0.00997305
0.00976093
-0.0111163
1.54946e-05
0.0114846
5.59935e-05
-0.0131733
0.0129242
-0.0144921
4.18711e-05
0.0150265
7.2023e-05
-0.017102
0.01681
-0.0183801
8.97147e-05
0.0191371
2.79912e-05
-0.0215886
0.0212452
-0.0222915
0.000143666
0.0231553
-0.000185087
-0.0260018
0.0256369
-0.015024
-3.02578e-05
0.0149028
-0.00101383
-0.00232591
-0.00198071
-0.00274511
-0.0288845
0.00633536
0.00457374
-0.00228824
-0.00462713
-0.00172761
-0.025522
0.00569733
-0.00921691
-0.0130974
-0.00308399
-0.00395082
-0.00494154
-0.00267241
-0.00140272
0.000654793
-0.000788009
-0.00163978
-0.00155641
-0.00108954
-0.000887367
-0.000755439
-0.000164951
0.00205072
0.00229078
0.00227019
0.0026138
0.00333241
0.00317615
0.00241115
0.00242768
0.00161607
-0.00142912
0.00045696
-0.000165501
-0.000115525
0.000414909
-0.00124559
-2.93475e-06
-1.53355e-06
-3.44789e-06
1.3124e-06
-0.000790657
-0.000904813
-0.00089814
-0.000798918
0.000794816
-0.000665242
2.70181e-05
0.000905002
-0.000771016
-0.000772878
2.71314e-05
0.000900473
9.46466e-07
2.18908e-06
2.53819e-06
2.33776e-06
-2.88454e-05
2.9921e-05
-1.38696e-05
-6.48964e-06
7.19158e-06
2.91343e-05
6.92923e-05
9.33463e-05
-1.32415e-05
-0.00035043
0.000300196
-0.00026042
0.00209797
-0.00295454
0.0186522
-0.0215392
0.0243361
-0.000308749
-0.00698593
-0.00125465
0.00193626
-7.06813e-06
0.000329542
0.000646875
-0.0025405
-0.00451901
-0.0086628
-0.0199498
-0.0205075
-0.0477428
-0.0201172
-0.017269
-0.000379021
-0.0067163
0.00597822
-0.0411621
-0.0249894
-0.012039
0.0181402
0.00145027
0.000809674
-0.0186584
0.0196643
0.000126111
-0.00241588
-0.0203895
0.0197397
3.90454e-05
-0.00267227
-0.0199032
0.0196829
0.000164236
-0.00430883
-0.0189956
0.0140473
-0.0118574
0.0101761
0.00775297
0.0221581
-0.0104174
-0.00584204
0.0032706
0.012737
-0.0394061
-0.00198073
-0.0229305
0.0216873
0.0206584
0.019134
0.0241491
0.0109129
0.00191171
0.00889064
0.0130822
0.0208175
-0.00776429
0.00186823
0.0129169
-0.00894526
0.000104604
0.00909927
-0.00730085
-2.63301e-05
0.00691573
-0.00549216
7.40749e-06
0.00528361
-0.00411322
1.10393e-05
0.00398803
-0.00311959
-1.54682e-05
0.00292098
-0.00254327
-0.000169262
0.00194742
-0.00243853
-0.000871698
5.5189e-05
-0.00301953
-0.00186297
0.0010992
-0.00310286
0.00369494
-0.00432277
0.000139969
-0.00412216
0.0039556
-4.35821e-05
-0.00219092
0.000141102
0.00216403
-0.00214026
1.00905e-05
1.46676e-05
5.24471e-06
5.53213e-06
1.05049e-05
1.5229e-05
4.09152e-05
6.03324e-05
9.57307e-05
-0.000313627
5.49195e-05
-0.000128817
0.00174544
-0.0017982
7.53059e-05
9.56032e-05
0.000533961
0.00053496
0.0069257
0.00889835
-0.000226974
-0.00637399
0.00719888
0.000350433
-0.00849414
0.00943206
0.00045207
-0.0113033
0.0119682
0.000584104
-0.0148505
0.0146169
0.000777132
-0.0187978
0.00011466
0.000421158
-0.00320611
-0.00319639
-0.00814089
-0.00419206
-0.00243499
-0.00153906
-0.00110029
-0.000913491
-0.000776747
-0.000195548
0.00200312
0.00221467
0.00217329
0.00317997
0.00192117
-0.000194388
-0.000734701
-0.000907962
-0.00112845
-0.00155815
-0.00240704
-0.00411779
-0.00780045
-0.0179947
-0.0189068
-0.0327774
-0.0260994
-0.00860442
-0.00859027
0.016524
0.00179632
-0.0020577
-0.0016435
0.00784785
0.000280213
-0.00635415
-0.00607442
0.00624106
-8.16336e-06
-0.00697873
-0.00667207
0.00549646
-1.45984e-06
-0.00866757
-0.00826466
0.00273426
-0.0117554
0.00798389
0.00774965
0.00809768
0.00707918
-0.0100994
0.000767165
0.00363884
-0.0116918
0.00271406
-0.0109928
0.0126971
-0.0280531
-0.00126103
-0.0270032
0.0200547
0.0212532
0.0206553
0.0202583
0.0205487
0.0201532
-0.0292333
-0.00151485
-0.0263678
0.0172887
0.0185404
0.0173639
0.0183062
-0.00125845
-0.0281273
-0.0279439
0.0127309
0.0207093
0.0189581
0.0181736
0.0226691
0.0223419
0.0174915
0.00508558
0.010699
0.00448124
-0.00246144
0.00439397
0.000910992
-0.00322073
0.00262284
0.000295088
-0.0026789
0.00203448
0.000189061
-0.0021485
0.00154032
0.000120433
-0.00162141
0.001212
0.000103592
-0.00125395
0.00087706
1.705e-05
-0.00098536
0.00063422
-0.000108132
-0.000975383
0.000284217
-0.000616776
-0.0015381
-0.000716825
-0.00218784
-0.00264038
-0.0026673
-0.00179493
-0.00130685
-0.00202069
-8.38566e-05
0.00149054
-0.00111864
0.000110669
0.00123199
-0.00122715
5.23286e-05
0.00128307
-0.00131689
-4.46756e-05
-9.10555e-05
-0.00232426
-7.86482e-06
-0.00391507
5.65943e-06
-0.00417781
2.5909e-05
0.00480671
-0.00487704
-1.44167e-06
-0.00544068
0.000109371
0.00626599
-0.00568882
9.19704e-05
0.00652857
8.69209e-05
-0.00752258
0.00012234
0.00865573
9.76679e-05
-0.00994747
0.00015668
0.0113627
5.69997e-05
-0.0129569
0.000187034
0.0146285
5.02033e-05
-0.0164972
0.000236051
0.0184079
-0.000169797
-0.020256
0.00041146
0.0223436
-0.000262189
-0.000669117
-0.0278973
-0.0201987
0.000761181
0.0234772
-0.000306134
-0.0225811
-0.0156752
0.000641695
0.019666
-0.000184018
-0.0178775
-0.0122964
0.000403562
0.015601
-0.00014691
-0.0138516
-0.00948035
0.000272469
0.0120532
-8.55016e-05
-0.0104885
-0.00718598
0.000172445
0.00913745
-6.42801e-05
-0.00783612
-0.0053782
6.71002e-05
0.00695809
-1.26758e-05
-0.00575306
-0.00401584
1.90653e-05
0.00552296
8.82316e-05
-0.00404381
-0.0028723
0.000277306
0.00493881
0.000574794
-0.00038694
0.00110202
-0.00186713
-0.00302964
6.04364e-05
-0.000885164
7.80148e-05
0.00263825
-0.000216798
3.87199e-05
-0.00220721
1.22714e-05
0.00392448
-0.00383279
-1.84648e-05
-0.00415247
0.000145187
-0.00437857
5.38128e-05
0.00494014
0.000155921
4.31581e-05
2.05449e-05
4.87999e-05
0.00434524
3.55658e-05
-3.33821e-05
-0.000971229
-2.74684e-06
0.0010564
7.98957e-07
3.88959e-06
5.13835e-06
-0.000165669
-0.000192008
-0.000137772
-0.00148764
9.02191e-05
-0.000286863
-6.08456e-05
-5.62045e-05
-5.49464e-05
0.00474391
0.00391623
-6.41521e-05
0.000228038
1.74583e-05
-2.03066e-05
0.00281948
0.000244083
-0.0039121
0.00396404
0.000165059
-0.00485616
0.00537101
0.000254533
1.74342e-05
-0.000131398
-0.000134987
-0.000179696
-0.000178105
-0.000195666
-0.000189205
-0.000185042
-0.00013484
-0.000130291
-0.000138105
-7.34998e-05
-7.85496e-05
-0.00385373
0.00386875
0.00616887
-0.00704877
0.0082229
-0.00928918
-0.000123281
-0.00636015
1.64971e-07
0.00574806
-0.000135483
-0.00483013
-0.000106937
0.0046148
5.55282e-05
0.000192329
-0.00356938
-0.000116491
0.00417686
-0.00449755
6.15527e-06
-0.00853599
-3.66062e-05
0.00973294
-0.00855666
1.22862e-05
-0.0099758
1.17346e-05
0.0114474
-0.0112992
2.87771e-06
-0.0128547
7.16404e-06
0.0146094
-0.0150263
-3.18436e-05
-0.0162222
6.12784e-05
0.0181544
-0.0203027
-6.56702e-05
0.0222804
-0.0242238
-0.00033032
-0.000669144
-0.000122405
-3.05992e-05
2.00208e-05
3.00261e-05
2.93544e-05
3.1207e-05
3.54399e-05
-3.27241e-05
1.57617e-05
-0.00102823
0.00115111
-0.0011355
-0.00104973
1.03008e-05
8.29022e-06
-2.61737e-05
6.11478e-05
0.000994792
8.37098e-06
-1.13287e-05
-9.13053e-05
0.000117111
-0.000105196
-0.00145527
8.54581e-05
-0.000351816
0.00249303
0.000261405
-0.000103752
-7.848e-05
5.01143e-05
-2.02146e-06
0.00076565
0.000777359
-2.30266e-05
0.000657424
0.00103009
-1.76118e-05
-2.1871e-05
-2.12709e-05
-4.96081e-05
5.4909e-05
-0.00117772
0.00333582
0.000173526
-0.00501514
-3.97587e-05
0.00557362
-0.00490232
-1.66962e-05
-0.00568971
3.26612e-06
-0.00638582
-5.05479e-07
-0.00736362
2.2669e-05
0.00848125
-0.00869526
-1.06994e-05
-0.00959199
0.000100733
0.0110001
-0.0126015
9.04149e-05
0.0143075
-2.65539e-06
1.18848e-05
1.66918e-05
2.09599e-05
2.26779e-05
2.99897e-05
3.47467e-06
2.68417e-07
-2.56667e-05
-2.51445e-05
-7.62723e-05
-0.000109194
-2.34476e-05
-2.48832e-05
4.64333e-06
4.70017e-06
7.96406e-06
9.21725e-06
1.29142e-05
1.69418e-05
1.95858e-05
2.15435e-05
2.98904e-05
3.44262e-05
0.000150994
0.00019807
-0.00045458
0.000318998
-0.000768283
0.00405641
-0.024067
-0.00645328
0.000137506
-0.00222522
0.0110874
-0.0111027
-0.0342915
-0.0131059
-7.39576e-05
0.0033049
0.000205528
-0.026264
-0.0114405
-0.00768349
0.0157106
0.00176792
-0.00177758
-0.00301216
0.00850936
0.000276784
-0.0059233
-0.00731196
0.00730975
1.2984e-05
-0.00650858
-0.00767612
0.00680207
5.8395e-05
-0.00835559
-0.00870674
0.00169747
-0.000480509
8.32031e-05
9.14693e-05
0.0222245
-0.0201247
0.000272843
0.0187548
-0.000597278
0.000388335
-0.0237043
0.000421347
-0.0146748
0.0165424
0.00013738
-0.0175117
-0.0306467
0.0238635
-0.00176751
0.00291093
0.0100545
-0.00011227
0.0232613
0.0170928
0.0192037
-0.0236038
0.000690827
-0.0199566
-4.40732e-05
-0.0220818
0.00088431
-0.0211584
-5.24733e-05
-0.0212703
0.000934082
-0.0227131
0.0178715
0.0175052
-0.00118428
-0.0339422
-0.0272733
0.0125541
-0.00885925
0.0120096
0.0068762
0.00811737
-0.0108683
0.0030279
0.00233114
-0.0120341
0.00457282
0.00832386
-0.0102345
0.0169591
-0.00906925
0.0014601
-0.00916227
0.00147391
-0.0099057
-0.00775301
0.00138765
-0.000640371
-0.000112832
-6.34842e-05
8.86694e-06
4.34398e-05
4.15481e-05
3.39133e-05
3.22257e-05
3.52842e-05
-3.32642e-05
1.67762e-05
-0.000664117
0.000795287
6.46164e-06
0.000157949
0.000112993
9.13083e-05
-0.00111425
-7.30411e-05
0.00123439
-0.0010031
-0.000540627
0.00124465
-0.00130538
-0.00180096
-0.00202512
0.00146256
0.00148804
-8.66755e-05
-0.000123387
-0.000411002
4.96194e-05
0.00152902
-0.000267424
-0.000350267
-0.000225636
0.00113735
0.00113919
-0.000353002
-0.000263758
0.00143724
-0.00074974
-0.00162277
-0.00075418
0.00150566
-8.84291e-05
-9.97822e-05
-0.000172941
-1.04573e-05
8.19132e-05
0.00263828
-0.000221343
0.000106905
-8.0301e-06
-1.03384e-05
-1.52755e-05
-2.23685e-05
-3.59701e-05
-6.65468e-05
-0.00012705
1.29317e-05
-6.25793e-05
9.15932e-05
-0.000783492
-0.000242762
0.00072221
-0.00137978
-0.000530164
-0.000545055
-0.0159767
0.0153523
-0.000450657
-0.000351938
0.000937297
-0.000600733
-0.000354672
0.00274567
0.00518222
0.0027309
0.0162552
-0.00775317
0.00161358
0.0109423
0.0126991
-0.00402956
0.00110957
-0.000158968
0.000807459
-0.000192518
6.84731e-05
-0.00131354
-0.000129106
5.35656e-05
2.11837e-05
-2.39023e-08
-1.08435e-05
5.05308e-06
-1.53879e-05
1.92159e-05
3.08665e-05
1.84321e-05
8.47755e-05
0.000201794
0.000287769
0.000364062
0.000440603
0.000595487
0.000441258
0.000134362
0.000244984
0.000143584
6.54649e-05
2.79026e-05
2.56062e-05
1.63181e-05
3.65084e-05
4.26029e-05
-0.00539536
0.00488557
-0.0056097
0.0064461
-0.00742414
0.00010191
-0.00715287
0.00621146
0.000104738
3.1403e-05
2.2455e-05
3.60856e-06
0.00475044
3.22533e-05
-3.5814e-05
0.00120443
-2.14714e-05
2.92442e-05
0.00011309
-0.000198051
0.00132933
0.00104337
-0.000448942
0.000179665
-3.27578e-06
-1.27951e-06
0.000669768
-2.25125e-05
-1.00737e-06
0.000468573
-0.00143022
0.000411021
5.66252e-06
0.000164809
0.000120106
1.29352e-05
-0.000122066
5.26789e-05
0.000111941
-0.000449836
-0.000413125
0.00133419
-0.000542664
-0.00100111
-0.000200115
0.00124548
-7.13341e-05
0.000113728
8.14154e-05
-4.94981e-05
1.34494e-06
3.11279e-05
8.1559e-05
5.05556e-05
-6.88292e-06
4.98201e-05
5.92686e-05
8.81843e-05
2.28233e-05
1.48501e-06
2.3985e-05
-6.35924e-07
0.00825547
-0.00952801
0.00855686
-0.00984419
0.0112715
-0.0128912
0.000173113
-0.0125823
0.010948
0.000124642
1.23976e-05
9.89335e-05
0.000115563
0.000140475
0.00012694
3.13158e-05
-1.46658e-06
2.86704e-05
2.78002e-05
4.33213e-05
3.14569e-05
4.88668e-05
0.000119586
0.00042763
0.000304221
0.00144714
0.000133764
6.23113e-05
2.7954e-05
4.60982e-06
-2.04243e-05
-8.55182e-06
-9.06233e-06
9.18058e-06
4.08691e-06
3.33021e-06
1.62794e-05
1.89311e-05
1.54672e-05
-3.25919e-06
-1.6676e-05
-1.26641e-05
-1.52377e-05
-1.02239e-05
4.01073e-06
8.01194e-06
1.34337e-05
2.09003e-05
2.71383e-05
4.15941e-05
3.40249e-05
3.95179e-05
7.62693e-05
6.49161e-05
4.31116e-05
0.00010804
0.000256462
9.19165e-05
0.000107278
0.00357658
-0.000652497
0.000373375
8.43954e-05
0.000300391
0.00768728
-0.000319838
-0.00111847
0.0060217
0.00200126
-0.0262103
-0.00946262
-0.0174234
0.0167752
-0.011811
-0.0126678
0.0151169
-0.0185935
-0.00101002
-0.00138859
-0.0170237
0.0151635
-0.000165088
-0.000778765
-5.0921e-05
0.000294711
0.000404962
0.00638388
0.00216035
-0.0117071
-0.0106188
0.0184184
0.00170935
-0.00435448
-0.00132217
0.00732375
0.000200907
-0.00848874
-0.00551757
0.00555716
-1.9351e-05
-0.00884256
-0.00607801
0.00486508
-5.26361e-05
0.0077404
0.0074961
0.00043925
0.0101737
-0.00993025
6.97096e-05
-0.00818739
-5.73831e-05
-0.000157003
-2.43241e-05
5.76955e-06
1.71092e-05
1.5597e-05
1.15305e-05
7.777e-06
4.05481e-06
-7.48025e-06
-2.31809e-05
0.000175566
-0.00481653
0.00535601
0.000256989
-0.00634254
0.00722208
0.0109469
-0.0123299
0.0144044
-0.0162699
-0.000150246
-0.0112708
0.000165383
0.0100091
-0.000142123
-0.0084691
6.93251e-05
0.00756498
-0.000423086
-0.000287807
-0.0064518
-0.000170575
0.00720424
-0.00794335
4.16898e-05
-0.0148404
-1.51498e-05
0.0168777
-0.0147359
2.16975e-05
-0.0167916
3.10089e-05
-0.0186599
-3.17368e-05
-0.020585
-6.409e-05
0.0225824
-0.023447
-9.40766e-06
0.0247902
-6.18456e-05
-0.0243909
0.0243122
-7.44738e-05
-0.0228461
0.0230955
-0.0246247
-1.38449e-05
2.37643e-05
0.000122879
9.2994e-05
4.4284e-05
1.69796e-05
2.75817e-06
-9.12728e-06
-8.27624e-05
-9.28922e-05
-0.000182873
-0.000223802
-0.000189169
-0.000209466
-0.00844339
0.00949361
0.00046213
-0.011184
0.0121053
0.0185751
-0.0212425
0.0233048
-0.0269451
0.000509674
-0.0209933
0.0020044
0.0166693
-7.11361e-05
-0.0151449
0.000535572
0.0131122
-0.000688008
-0.000257378
-0.0108059
-1.38805e-05
0.0125166
-0.0134866
0.000126046
-0.0238378
0.000108072
0.0266291
-0.0227954
-7.60228e-05
0.0245963
0.000185087
-0.0279546
0.0163701
-2.67766e-05
-0.0171697
0.0150368
-0.0182005
0.000650345
-0.00294414
-0.00147036
-0.00248208
-0.00420295
0.0195615
-0.0300224
0.00642686
-0.00634776
-0.00299123
-0.00171335
-0.00115966
-0.000862734
-0.000655124
-0.000392867
0.000506938
0.00661412
0.00322237
-0.00167081
0.00112985
0.000539663
0.00381661
-0.00333088
0.00347327
-0.000208686
-0.00227848
0.000104742
0.00426553
-0.00405469
-1.38775e-05
-0.00432866
1.74025e-06
-0.00481546
-2.02698e-06
-0.00554579
2.79747e-05
0.00635992
-0.00650814
-6.17972e-06
-0.00721328
9.54637e-05
0.00831811
3.25193e-05
1.67706e-05
0.00760015
3.0589e-05
0.00574835
-5.40726e-06
-2.14561e-05
-5.13983e-05
-0.000180197
2.38236e-05
0.00227794
0.000153993
0.000175078
0.00079365
0.00139662
-0.00218292
-7.41684e-05
-0.00347414
2.09746e-05
-0.00649411
-4.28493e-05
0.00731396
-0.0064336
1.08687e-06
-0.0075182
6.64942e-06
-0.00852338
2.78926e-06
-0.0097891
1.71878e-05
0.0112356
-0.0115323
-1.7772e-05
0.0132169
-5.83503e-06
7.43184e-06
0.0100811
-4.4557e-07
2.25149e-05
6.78154e-06
-1.78264e-05
0.0056142
-4.91733e-05
0.00428024
0.000261178
1.81593e-05
0.00346218
5.22352e-05
0.000144268
-0.000192451
0.00403239
-0.000108659
-0.000171316
-0.00485484
-0.000153055
-0.00598516
1.89595e-05
-0.0113084
-3.09576e-05
0.0129124
-0.0113301
2.01014e-05
-0.0130869
1.97392e-05
-0.0147049
-6.27108e-06
-0.0165128
-1.73751e-05
0.0185081
-0.019108
-4.96181e-05
0.0210664
-4.21342e-05
-8.59638e-06
1.22823e-05
1.83493e-05
3.3253e-05
2.95097e-05
3.02128e-05
3.09788e-05
2.11495e-05
2.16245e-05
2.16708e-05
1.56762e-05
0.000133877
0.00021002
0.000285835
1.22369e-05
3.78484e-05
2.838e-05
2.3101e-05
1.92714e-05
4.89451e-07
2.25008e-05
-0.000151772
-0.00434572
1.78644e-05
-0.00425388
0.00535864
9.652e-05
-0.00584121
-0.0059788
0.00546024
0.00510651
9.32599e-05
-0.0055768
-0.00637516
0.0057926
-0.00460203
1.15433e-05
-0.00411352
0.0041011
0.00431328
0.00425159
0.00415435
2.07662e-05
-0.00452658
-0.00420583
-0.000151605
0.00519764
0.000101625
-0.00626262
-0.00571431
-0.000233943
0.00678523
0.000238674
-0.00847884
-0.00769691
-0.00790228
-0.00809308
0.000239838
0.00700984
0.00715511
-0.000232419
0.00665514
0.000233089
-0.00750736
-0.00863562
0.00760906
-0.000240564
-0.00524912
-0.00786622
5.31187e-05
0.00470226
-0.000162378
-0.00392399
-0.00578186
1.66305e-06
0.00387485
0.004579
-0.00302447
0.000258532
-0.002937
-0.000239579
-0.00298088
0.000256107
-0.00293043
-0.000239119
-0.00298875
0.000266788
-0.00298373
0.00452262
0.00391828
-0.000252654
3.27444e-06
0.00020313
-0.00204091
-0.00233284
-0.00223152
-0.00247782
-0.00235848
-0.00237768
-0.00241652
-0.00208026
-0.0031984
-0.00245508
-0.00224124
-0.00232706
-0.00156923
-0.00066094
-0.000826017
0.00143446
-0.00160962
0.00389396
0.00393766
0.00390826
0.00392085
0.00406487
0.00379715
-0.00155485
0.00125161
-0.000657494
-0.00157002
-0.000830247
0.00152979
-9.78536e-05
5.28461e-05
5.37938e-05
0.00013663
0.000213244
-1.01734e-05
-0.000316879
0.00938625
0.000376824
-0.010474
-0.0107332
-0.00992575
-0.0114559
0.000360526
0.00872868
0.010006
-0.000323488
-0.00701181
-0.0105596
0.000163202
0.00613094
0.00917949
-4.55601e-05
0.000962885
-0.00128526
9.76747e-05
0.00127542
-0.00170278
0.000137978
0.0017056
-0.00218557
0.000252289
0.00247044
-0.0025222
0.000812313
0.00449438
0.00103347
0.00194737
-0.000396398
0.00101876
-0.00054205
0.000749797
-0.000464873
0.000593895
-0.000370707
0.00042644
4.02908e-05
-0.000996121
0.00697646
-8.50909e-06
0.00069955
-0.000969413
-8.9541e-05
1.68523e-05
-0.000360717
-0.000722485
0.000341617
9.22583e-05
-0.00406442
0.000262895
-0.00281722
-0.000254559
8.79829e-06
0.000234135
-0.00163532
-0.00266704
-0.00262212
-0.00219125
-0.000705037
-0.001543
-0.000605361
-0.00116586
-0.00350616
0.000576727
0.00494179
0.00377643
0.00409057
-0.0015516
-0.00334281
-0.00203239
0.000212662
0.000862869
0.000770987
0.00096951
0.00114497
0.00136338
0.000261879
-0.00923498
-0.0139972
0.0121146
0.00807296
-0.000493711
-0.000348629
-0.000187259
-0.000154898
0.000978056
0.00106547
0.00119394
-0.000627881
-0.000407983
0.0129321
0.000491579
-0.0128196
-0.014877
-0.0118567
-0.0183061
0.000352278
0.0105352
0.0157767
-3.75681e-05
0.000135105
7.46766e-05
4.88735e-05
8.67203e-05
0.000153034
-0.0163506
0.0146385
-0.0165038
-4.79179e-05
0.000279569
0.000191577
9.40197e-05
4.01216e-05
-2.2358e-06
0.014291
4.32337e-05
8.80796e-06
0.0181936
0.000243324
6.05373e-07
0.00035876
0.000422613
-7.43095e-05
1.08164e-05
3.96107e-05
1.65142e-05
2.72009e-05
-2.18437e-05
2.67977e-05
2.75106e-05
5.55099e-05
1.44237e-05
4.18557e-05
3.68955e-05
1.43406e-05
1.34276e-06
2.47511e-06
-2.47837e-07
1.64442e-05
0.000352161
0.000588049
0.000434648
0.00034996
0.000354565
0.000393817
0.000194997
0.000193455
-2.79079e-05
0.000117472
0.00361716
0.00027486
0.000484288
0.000477747
0.00054732
0.000551528
0.000642967
0.000464963
0.000478287
0.000702155
0.000704129
-0.0145431
0.0148804
0.000871174
-0.0179421
0.000378883
0.000199869
-0.00314381
-0.00417546
-0.0223692
-0.0233922
-0.0385979
0.00973769
0.00334072
0.0186181
-0.00670255
0.0104673
-0.00116482
-0.011839
0.0107096
-0.000252736
0.00762458
-0.000267756
0.0100734
-0.0110845
-0.000910793
-0.000283646
-0.000345483
0.000142121
-0.00122274
0.00800852
-0.000363182
0.00040963
0.000264072
0.000143468
0.000146565
7.67356e-05
6.87342e-05
-7.71385e-05
-9.25016e-05
7.2424e-05
0.00023441
0.00106323
0.000177537
-1.67691e-05
-8.31527e-05
0.00906219
-0.0104139
8.19131e-05
-0.0190917
2.84229e-05
0.0215985
-0.0186729
3.40858e-06
-0.0208867
3.07998e-05
0.0206573
-7.845e-06
8.53612e-06
2.08801e-05
4.13081e-05
9.08202e-05
0.000621054
0.000134327
5.08861e-05
2.56823e-05
1.13171e-05
1.04635e-05
9.50272e-06
7.30764e-06
4.83998e-06
0.00560479
7.56414e-06
0.00645663
4.05592e-06
0.00484421
0.0042271
1.56446e-05
0.00390674
0.00226812
5.96829e-05
1.1382e-05
-2.5118e-06
1.17004e-05
2.58183e-06
0.00743745
0.00011811
-0.000274836
0.00542744
-0.000165594
0.000138856
-0.000339341
0.00690453
-0.000182166
-0.000325684
-0.00844142
-0.00013846
0.00955733
-0.000404223
-0.00018228
0.000237434
0.00018073
1.99847e-05
0.00988691
1.68641e-05
0.00987863
3.29224e-05
5.12513e-05
0.0129962
2.60089e-05
0.0149068
3.62114e-05
0.000121618
0.0167294
-0.000560496
0.0116599
-0.000348283
-0.000330124
-0.0138463
0.000251667
0.0144735
-0.00110642
0.000225214
-0.000379982
-0.00232969
-0.00591087
2.55991e-05
-0.000907125
-0.000388684
0.0002511
0.00024656
0.0208947
1.78518e-05
-4.04533e-05
-7.61134e-05
-6.33716e-05
-0.000350736
-1.67658e-05
4.84647e-05
4.03443e-05
0.0189179
0.0166265
-1.37246e-05
-1.88166e-06
-4.61468e-05
-0.000107711
-0.000136896
-0.000595862
-0.000206505
-0.000197542
-9.58561e-05
-3.40917e-05
0.0169461
-4.48143e-05
1.24802e-06
1.66434e-05
0.000289207
0.000197979
8.36803e-05
-0.000173655
-4.5094e-05
0.000371906
0.000456674
0.000601939
-9.09702e-05
0.000265779
0.000274014
-0.000505839
0.00239588
0.00530182
-0.00367021
0.0246633
0.00148697
0.000503974
-0.000344312
0.00063794
0.00112259
0.00115141
0.00104919
0.000964158
0.000848927
0.000877651
0.00022498
4.11764e-05
3.92847e-05
-0.00319847
-0.00161076
-0.00334519
-0.00164565
0.000221533
0.000751954
-0.000192576
-0.000161746
0.00477901
0.00570337
0.000135226
2.20965e-05
2.05886e-05
3.08994e-05
2.22531e-05
3.17664e-05
-4.55511e-06
-0.000170772
0.00146042
0.00372408
0.00019551
6.11658e-05
1.19048e-05
-6.95421e-07
1.74025e-05
1.83488e-05
1.75391e-05
1.88445e-05
-1.33326e-05
0.000209162
0.000282109
0.000290903
0.000366437
-5.96875e-05
-0.000510346
-0.0139366
0.00053474
-0.0135654
0.0146741
0.000789288
-0.017136
-0.0177202
0.0150826
0.0141209
0.000678472
-0.0161435
-0.0189251
0.0161559
-0.000518758
0.0134957
0.0200273
8.07918e-05
5.83703e-05
-0.000785034
0.00162127
0.00189208
0.00214736
0.00556688
0.00703283
0.0135143
0.0317327
0.00343584
0.0165601
0.0245441
-0.00187439
-0.00105432
0.00101692
0.00126467
-0.000719437
-0.000568879
0.0112812
0.0120978
0.0118246
0.0114736
0.000528817
-0.0145506
-0.0132406
-0.000521368
0.0143581
0.000795622
-0.0183869
-0.0168921
-0.000686331
0.0171468
0.0182797
0.0162462
-0.000657824
-0.00016052
-0.000215254
-2.51136e-05
2.29115e-05
0.0001048
2.39761e-05
2.29749e-05
-3.80396e-05
-1.54513e-05
-0.000222368
0.00221225
-0.000248403
-0.00015264
-0.000349938
-0.000301008
-0.00018722
-0.000318463
-0.000143524
0.00601734
-0.00017256
0.000115439
2.48848e-05
7.10865e-06
0.000277907
0.000241986
-0.0025892
0.0134475
-0.00668047
-0.0241308
-0.0288132
0.00239139
-0.0135871
0.00572955
0.00184333
-0.00841333
-0.00927333
-0.000945577
-0.00140055
0.00916975
0.00847543
-0.000840701
-0.00830902
-0.000170283
0.00825974
-2.98689e-05
9.09189e-05
-3.30737e-06
8.55065e-05
0.000279311
0.00029089
0.000187602
4.77377e-05
3.64433e-05
-6.76678e-05
-6.07915e-05
1.06068e-06
-7.41917e-05
-2.93496e-05
-1.31353e-05
0.00035465
0.000432372
0.000433666
-0.00019427
0.000516845
0.000539602
-0.000454417
0.0230337
-0.001381
0.0013579
-0.0255709
0.000506048
0.000309565
0.00295096
0.000353382
0.000631332
0.00199159
-0.00015555
-3.3418e-05
-0.000155732
0.000568928
0.00532678
-0.000351802
-0.00022602
-0.000132137
0.000114896
-0.0143978
0.0165543
-0.000585868
2.90935e-05
-0.000748037
-0.00174472
-0.00195398
-0.000362732
-0.000177608
0.00643356
-0.000194941
-0.000213558
-0.00040403
-7.49152e-05
-0.000246562
0.00570926
-0.000378872
-0.000181419
0.000576758
0.000461109
-1.78076e-05
-7.30356e-05
-4.91748e-05
-0.000141051
0.000116452
0.00047602
0.000591389
0.00054179
-0.000637241
0.00184852
0.00188264
0.00206876
0.00221713
0.024817
0.00252451
-0.000298948
0.00113924
0.00138411
0.00130375
0.00112488
0.000950266