/*--------------------------------*- C++ -*----------------------------------*\
| =========                 |                                                 |
| \\      /  F ield         | OpenFOAM: The Open Source CFD Toolbox           |
|  \\    /   O peration     | Version:  2306                                  |
|   \\  /    A nd           | Website:  www.openfoam.com                      |
|    \\/     M anipulation  |                                                 |
\*---------------------------------------------------------------------------*/
FoamFile
{
    version     2.0;
    format      ascii;
    arch        "LSB;label=32;scalar=64";
    class       volScalarField;
    location    "3";
    object      gradTy;
}
// * * * * * * * * * * * * * * * * * * * * * * * * * * * * * * * * * * * * * //

dimensions      [0 -1 0 1 0 0 0];

internalField   nonuniform List<scalar> 
5322
(
0.0472867
0.00546244
0.00119268
0.0001647
0.000940392
0.00127172
0.0012341
0.00108526
0.00094471
0.000781254
0.00022161
-0.00188841
-0.00199357
-0.00180827
-0.00160229
0.00355834
0.00472442
-3.19548e-05
0.00348515
-0.00464256
0.00484415
-0.00576425
0.00630579
-0.00764889
0.00854466
-0.00989611
0.0109924
-0.0131059
0.0144434
-0.0164289
0.0180502
-0.0204711
0.02286
-0.0218413
0.0221203
-0.0123039
0.0246394
0.0301613
0.0152238
0.0170014
0.0222843
0.0187031
0.0199221
0.020824
0.0198613
0.0203101
0.0201787
0.0215677
0.0206649
0.0191502
0.0241517
0.0109271
0.0127175
-0.0396446
-0.0019578
-0.0227953
0.0124678
-0.0297212
-0.00145385
-0.0258255
0.012653
-0.0292104
-0.00129336
-0.0256363
0.012709
-0.0302892
-0.00175652
-0.0248605
0.0128833
-0.0337177
0.00104132
0.0267961
0.0148798
0.0208502
0.0155173
0.0197097
0.0164059
0.0196481
0.0167126
0.023387
0.00180115
0.00888382
0.013067
0.020942
-0.00142567
-0.00775704
0.00272885
0.00520824
0.0108946
0.00153403
0.00291996
0.000528522
7.52233e-05
7.44407e-05
0.0265234
-0.0150702
0.000485623
0.0152295
0.000460044
-0.000715142
0.00264115
0.000478177
0.0162538
-0.025804
0.0231477
0.000502502
-0.000502752
-6.61566e-05
1.20493e-05
4.843e-05
4.58507e-05
3.6806e-05
3.41305e-05
3.6218e-05
-3.11655e-05
1.55516e-05
0.00133649
-0.000528761
-0.000202378
-0.00100796
0.00124805
-0.000658134
-0.00130357
-0.00180012
-0.00202653
-8.01908e-05
0.00149853
-0.00112315
0.000107328
0.00123156
-0.0012248
5.23593e-05
0.00127953
-0.00131239
-4.22614e-05
0.00119312
-0.00143326
-0.000115798
-0.000347512
0.00219999
0.00181173
-0.00122091
0.000805148
0.000624633
-0.00130861
0.000157898
-0.00126836
0.000992465
0.00102846
-0.00113587
-1.61679e-05
-0.00104857
0.001056
0.00115184
-0.00102589
-3.13642e-06
-0.000971749
0.00124543
-6.95299e-05
-4.63799e-05
0.00400469
-0.0031258
0.00371885
-0.00435383
0.000171428
-0.00247066
-7.15876e-06
7.10053e-05
-0.000402618
0.00110524
-0.00220853
0.00220166
-0.00383582
1.12134e-05
0.00392344
-0.00417219
0.00434293
-0.00487908
2.30075e-05
0.00481235
-0.00554138
0.00574745
-0.00651069
2.79684e-05
0.00637634
-0.00736746
0.00761443
-0.0087024
2.9567e-05
0.00852138
-0.00982482
0.010144
-0.0115561
3.9036e-05
0.0113249
-0.0129813
0.013404
-0.0150866
5.9056e-05
0.0147849
-0.0168527
0.0174035
-0.0192013
8.37901e-05
0.0187732
-0.0213085
0.0219827
-0.0233867
0.000115303
0.0227348
-0.0258729
0.0260926
-0.0151055
-9.61241e-05
-0.00154212
0.000746487
-0.000499977
-2.40058e-05
0.000149754
0.000228473
1.4629e-05
0.026558
-0.0150435
8.49122e-05
0.0180403
-0.00269966
-0.00108454
0.000929193
-0.000989538
0.0151449
-0.0261559
0.000161624
0.000117042
0.000326908
0.00018422
8.08545e-05
2.73075e-05
1.86831e-06
-1.55156e-05
-3.01162e-05
3.50186e-05
-1.68138e-05
-0.00107193
-0.0011449
-0.0011465
-0.0010732
0.000241087
0.000362548
0.000219666
-0.00142329
0.000713105
-0.00147772
0.000362398
0.000241562
0.000221137
-0.0014603
0.000492041
0.00139045
0.000884935
-0.00142305
0.000714951
0.00150977
0.00211091
0.00225503
-0.00386564
-0.00385843
-0.00414838
0.0032563
-0.00439569
0.00457095
-0.00553229
0.00617668
-0.00728496
0.00828741
-0.00968301
0.0109304
-0.012807
0.0140648
-0.0167231
0.0175952
-0.0212324
0.0211682
-0.00404726
0.0122994
-0.0024998
0.000188839
0.018329
-0.0195441
0.00083361
0.0159515
-0.0158034
0.000602893
0.0130334
-0.0121787
0.000460702
0.0102325
-0.00919457
0.000353788
0.00778086
-0.00690046
0.000256007
0.00577319
-0.0052301
0.000163248
0.00420161
-0.00415213
0.000232579
0.00285656
-0.000268622
0.00285512
-0.00415529
0.000232787
0.00327183
-0.00412672
0.0016173
0.00262054
0.00193216
0.00182849
-0.00363413
0.00258748
-0.0039755
0.00401661
-0.0049854
0.00557199
-0.00657959
0.00753014
-0.00878461
0.00993213
-0.0117045
0.0127616
-0.0153167
0.0158978
-0.0188624
0.0185775
-0.00237339
0.00913468
-0.00792105
0.000584986
0.0256339
-0.0275551
0.00112624
0.022958
-0.0216052
0.000733657
0.0184774
-0.0162887
0.000501387
0.0142967
-0.0122352
0.000366262
0.0108634
-0.00918011
0.000257704
0.00816918
-0.00693836
0.000172244
0.00613003
-0.00547849
0.000255811
0.00438776
-0.00465134
0.00160421
0.00366304
0.00323285
-0.00162007
0.00328296
-0.000765426
0.000544288
0.00384041
-0.00334083
0.00334227
-0.00347238
0.00557382
-0.00491545
-4.16764e-05
-0.005
0.00427414
-0.00406094
0.000109889
0.00425606
0.000183489
5.79452e-05
-0.00116577
0.000111616
-9.2737e-05
6.17388e-05
-2.58905e-05
-1.01926e-05
0.00390779
-0.003914
0.0042232
-0.00481963
4.35094e-06
0.00560644
-0.00639509
0.0074594
-0.0085424
1.91162e-05
0.00996198
-0.0113387
0.0131883
-0.0147803
3.63143e-05
0.0171465
-0.0187446
0.0216452
-0.0227304
-3.68825e-05
3.98111e-05
6.3552e-05
0.000183146
9.63183e-05
9.24006e-05
0.0173196
-0.0187334
8.88891e-05
0.022235
-0.0246748
0.0220615
-0.022514
0.000216348
0.0274527
-0.0289305
0.0185546
-0.0137899
-0.0247422
-0.0018626
-8.78532e-05
-0.00889496
-0.00237386
0.000428281
0.0136474
0.0169987
0.00115568
-0.0238593
0.0164726
7.91164e-06
-0.0157798
0.013015
-0.000174287
-0.011418
0.0100589
-0.000122941
-0.00834355
0.00756452
-0.000147362
-0.00627009
0.00591617
-0.000161558
-0.00455938
0.0047045
-0.000316462
-0.00330876
0.000948712
0.00148862
-0.00206025
-5.09145e-05
0.00353051
-0.00353149
0.00405887
-0.00453116
0.00528741
-0.00602869
0.00979462
-0.00859146
-3.18828e-05
-0.00856274
0.00746524
-0.0064568
-4.4049e-05
0.00733982
2.1188e-05
-7.83534e-05
-4.65556e-05
-0.000303667
-0.000301424
0.000259466
0.000367471
0.000125833
0.000150841
0.000270106
0.000165221
-0.000215661
0.00347754
0.00111155
0.000225155
0.000851325
9.25903e-05
-0.000108529
-7.08616e-05
0.000121309
0.000156021
-0.000139526
-0.000242864
-0.00487055
-0.000136977
0.00548486
-0.00655278
0.0070087
-0.00799973
0.00931858
-0.0104549
0.0171821
-0.0148225
1.35516e-05
-0.0150125
0.0132466
-0.0113867
-1.68501e-05
0.0130466
6.97285e-05
-7.35333e-05
-8.63526e-05
3.27249e-05
-0.000856897
-0.000375814
-0.000265818
-0.000593541
-0.000139396
-0.000101469
0.00423414
-8.1657e-05
-0.000144821
0.000294987
-0.000702576
-0.000188639
0.0019042
0.00360017
0.0065731
0.000561857
-7.77653e-05
0.000135597
-4.38525e-05
-0.00437046
-8.38696e-05
0.00460202
0.00419553
-0.00522661
0.000163877
-0.00551675
-0.000140867
0.0062106
0.00576953
-0.0068884
0.000257673
-0.00729402
-0.000206853
0.00830559
0.00779201
-0.00917588
0.000357226
-0.00973699
-0.000147396
0.0108997
0.0102843
-0.0121657
0.000468455
-0.0129486
0.000270872
0.013868
0.0132026
-0.0158612
0.000618466
-0.0169624
0.0016266
0.016882
0.0164293
-0.0199069
0.000858277
-0.0212504
0.00533336
0.0194121
0.01941
-0.0030867
0.000202513
-0.00369005
0.0593786
-0.0284303
-0.0292888
0.0442308
0.0116317
0.00428182
-0.0362259
-0.00821998
-0.00494867
0.0163598
-0.0171353
-0.000322359
0.000641096
-0.00288751
-0.00332061
-0.000619903
0.000897722
0.000509787
-0.000147065
-0.000553181
-0.000163335
0.000262792
7.42669e-05
3.90424e-05
1.46481e-05
-1.59272e-05
-4.68195e-05
-0.000171703
-8.80031e-05
0.00227271
-0.00227294
2.50349e-05
1.56222e-05
-0.00231114
0.00227706
-5.26697e-06
9.30551e-06
-9.63137e-06
-0.000171492
-0.000108679
0.000413127
3.74751e-05
0.000475148
-0.000167421
-0.000205984
-2.24828e-06
0.000770843
-0.000900577
0.000907613
-0.000764398
-0.000775158
-0.000656946
2.6952e-05
0.000901125
0.000805012
-0.000800436
-2.28022e-05
-0.000904603
1.14932e-06
2.57204e-06
4.79944e-05
0.000100116
8.55369e-05
-0.000354127
-7.5943e-05
-0.000137896
-0.000174546
-0.000161762
-1.8142e-05
-5.2346e-06
0.00105577
-0.00204631
-0.000813081
-3.57757e-05
0.0100619
-0.0108566
0.0122411
-0.0135886
0.0156373
-0.000606294
-0.0144014
-0.000312568
0.0137253
-0.00027949
-0.00115349
0.00019731
0.000141991
0.000268922
0.000312553
-0.000266201
-0.00332475
0.0114116
-0.0053802
-0.0197512
-0.00292357
-0.00336879
-0.0444995
-0.0125206
0.00161966
-0.0185981
0.0135036
0.000661279
0.000635275
0.0163259
0.0136689
0.00178821
-0.00157017
0.0179986
0.0161889
0.0019034
-0.00187524
0.0163675
0.0184306
0.00177634
-0.00422447
0.0136339
0.0187054
-0.00663582
0.0105614
-0.00918297
0.00981473
-0.0385506
-0.0208505
0.00343466
-0.00953151
0.0187912
-0.0011739
-0.0305413
0.0172321
-0.000330173
-0.0203692
-0.0202426
-0.0291495
0.0103923
-0.0154347
-0.0102493
0.0162956
-0.0298223
-0.00417302
0.0193945
-0.0208058
-0.00135223
0.0165179
-0.0149968
-0.000674564
0.0129902
-0.0111611
-0.000526522
0.00991161
-0.0083906
-0.000416318
0.00748669
-0.00630752
-0.000252395
0.00568775
-0.00479482
5.25983e-05
0.00456771
-0.00348443
0.000853962
0.00323739
-0.00168965
0.00321622
0.00365816
-0.00469728
0.00437556
-0.00553285
0.000260883
0.00257933
-0.00363678
0.00160187
0.00181898
0.00194774
0.00261963
0.00225031
0.00161596
0.00313961
0.00189071
-0.000231801
-0.000786562
-0.000936891
-0.00088603
-0.00113877
-0.00163913
-0.00124034
-0.000549001
-0.000262599
0.00734866
-0.00846751
-0.000219907
-0.00017287
-0.000335198
3.38895e-05
-0.011375
0.0099801
3.01855e-05
0.00868102
-0.0100238
3.17587e-05
0.0115558
-0.0132343
6.39024e-05
0.0151197
-0.017157
0.000114821
0.0192503
-0.0216175
0.000151876
0.0232877
0.000176283
0.000384433
2.27596e-05
-1.93385e-05
-7.6599e-05
1.12841e-05
3.27981e-05
2.6957e-05
1.7546e-05
8.84993e-06
3.798e-06
2.78698e-06
2.1034e-05
6.14281e-05
-0.00221434
3.5418e-05
0.000114995
-1.00518e-05
-1.04522e-05
-1.50225e-05
-2.1816e-05
-3.67184e-05
-7.1697e-05
-0.000139935
-0.000189019
0.000764777
-0.000222913
-0.000587687
-0.00079594
0.0155833
-0.016667
0.0199642
2.39947e-05
-0.00277094
0.00231335
0.00727426
3.12532e-05
-0.00652054
0.0061134
0.00624458
1.21236e-05
-0.00695103
0.00649986
0.00560621
-5.7281e-06
-0.0087616
0.00831752
0.00783406
-0.000164921
0.0107026
-0.0112592
0.0109803
-0.0118002
-0.00110202
-0.00605085
0.00862622
-0.000756722
-0.00828622
-0.000190157
-5.88949e-05
0.0288819
-9.36759e-05
-0.0290617
0.0179401
-0.000637386
-0.0185554
0.0185992
-0.000412484
-0.0194928
0.0292633
-0.000283195
-0.0292755
0.0263315
-0.0262327
0.0260652
-0.026707
0.00010809
-0.0289667
0.0286341
-3.61836e-05
-0.0185915
-0.000704563
0.0187505
-0.0159916
0.000108133
0.0283704
0.0102414
0.0280287
0.0103659
-0.0126623
0.0186919
0.00227093
-0.014303
0.0144637
0.000836577
-0.0120393
0.0112391
0.00056307
-0.00946949
0.00875467
0.000417686
-0.0072992
0.00658925
0.000316303
-0.00554003
0.00500168
0.000135177
-0.00426413
0.00361644
-0.000213095
-0.00354204
0.00220659
-0.00142228
-0.00385697
-0.00112421
-0.00348887
0.00229314
0.000215464
0.00011501
0.00144049
0.000354459
-0.00222224
-0.0018201
-0.000492698
-0.00141222
-0.000902451
-0.000700016
-0.00156505
-0.00076647
-0.000815656
-0.00155404
-0.00227953
-0.00238976
-0.00161057
0.00411102
0.000256115
-0.00261484
-0.000230297
0.00389918
0.00459042
5.5931e-05
-0.00383594
-0.000165636
0.00481407
0.00708177
1.79072e-05
-0.0082464
0.000110829
0.00931169
-4.48523e-05
-0.010974
0.000169378
0.0122786
-6.92152e-05
-0.0144466
0.000135433
0.0159503
-8.72661e-05
-0.0186477
0.000185959
0.0202327
-0.000170868
-0.0235566
8.26445e-07
0.0247032
-0.000504302
-0.0291006
-0.000836477
0.000510237
-0.0176925
0.0288406
0.000169605
0.0168478
0.000314422
-0.0146981
0.024106
-3.84808e-05
0.0133633
0.000280428
-0.0117825
0.0192987
-3.40773e-05
0.0104717
0.000231494
-0.00913883
0.015029
-1.92347e-05
0.00801837
0.000208166
-0.00698267
0.0114608
-1.19894e-05
0.00606975
0.000152746
-0.0052715
0.0086505
-6.13316e-06
0.00455392
0.000113022
-0.00406807
0.00657322
-2.384e-05
0.00351528
7.02167e-05
-0.00335443
0.005061
-0.000176469
0.00336348
-0.000537011
0.000773307
-0.003673
-0.00321628
0.00167585
-0.0032734
-0.000875585
-0.000504474
-0.00659888
-0.00361622
-0.00317253
-0.00218689
-0.00161524
0.00368151
0.00425452
0.000335387
-0.00247757
-0.000255746
0.00560172
0.000138992
-0.00618271
0.000147923
-0.000256948
-0.000105812
4.97216e-05
-0.00342857
-8.68928e-05
0.00146597
-0.000202657
-0.000233861
-0.000391594
0.00143332
-0.000468858
0.000194067
0.000170259
5.06234e-06
1.30964e-05
1.19e-05
9.80134e-06
8.22698e-06
7.26368e-06
-1.96788e-05
-1.01361e-05
0.00561435
-0.00649841
3.30714e-05
-1.76918e-05
-5.0882e-05
1.33995e-06
-0.00432048
-1.04625e-07
0.00485364
-0.00568592
3.80726e-06
0.00648011
-0.00752792
1.38487e-05
1.08107e-05
-4.71321e-06
1.10099e-05
1.38953e-05
4.24276e-05
5.49184e-05
3.62427e-05
2.20807e-05
1.28286e-05
9.82738e-06
2.49816e-05
2.4017e-05
3.13629e-06
0.00479651
-0.00544057
0.00492395
-0.00565318
0.00649975
-0.00748281
8.93809e-05
-0.00318052
9.08969e-05
0.00298006
0.000131463
-0.00259214
5.30998e-05
0.0019884
-0.000170366
-9.57501e-05
0.000719667
-1.63529e-05
-0.00103478
0.00704449
4.67011e-05
-0.00512498
-0.000240977
0.00598146
0.00782063
0.000224723
-0.00711695
-0.000317939
0.00826751
0.0100058
0.00036504
-0.00945697
-0.000409969
0.0106482
0.0130303
0.00049035
-0.0123581
-0.000517749
0.013227
-0.0156916
-0.000629092
0.0154288
-0.0196433
9.5925e-05
-0.000649638
-0.000137298
-3.11666e-05
2.2298e-05
3.24775e-05
3.09354e-05
3.295e-05
3.86757e-05
-3.16138e-05
1.67904e-05
0.00107438
0.00113713
0.0011498
-0.000320898
0.00149459
-9.56588e-05
-0.000103195
0.00153707
-0.000280871
0.00143109
-0.000456524
5.73346e-05
-0.000122474
0.000121309
-3.03571e-05
3.69904e-05
-1.69775e-05
-0.00415314
0.000138777
0.000113435
3.05281e-05
4.28209e-06
9.04605e-07
-0.000800016
0.000797174
2.71652e-05
-0.000668099
0.00104694
-0.000230438
8.07317e-05
4.91416e-05
-9.05444e-06
-0.000173602
0.00147458
-0.0040891
0.000257438
-0.00275832
-0.000253596
0.00380298
0.00468806
9.354e-07
-0.0039003
-0.000153419
0.00578907
9.29043e-05
-0.00526673
-0.000237257
0.0063236
0.00765617
0.000234038
-0.00718882
-0.000325986
0.00825363
-0.00952999
-0.000418394
0.0106326
0.00033133
0.000272629
0.000208942
0.000144356
7.39022e-05
8.25466e-05
-4.6924e-05
1.88969e-06
3.15139e-05
5.64444e-06
-2.09466e-05
-0.000102778
-7.75759e-05
-2.47327e-05
-2.52823e-05
-5.98952e-05
-2.77955e-05
-0.000131305
-0.000100929
-0.000177725
-0.000191898
-0.0011362
-0.001578
-0.00247485
-0.00268353
-0.00481354
-0.00411104
-0.00238347
-0.00883601
-0.0266812
0.00180178
-0.0422085
-0.0313713
-0.0234439
-0.0156362
-0.013854
0.00529323
-0.0122908
-0.000833212
0.00306624
0.000281485
-0.000254228
0.0149714
-0.0174704
0.0203256
0.000185829
-0.00248231
0.00380425
0.00845201
0.000318745
-0.00586108
0.00791121
0.00790442
0.000337518
-0.00626944
0.00815732
0.00742013
0.000249722
-0.00839444
0.00926915
-0.000425832
0.000327234
0.000779313
0.00433857
-0.0184566
-0.0266182
0.000915865
0.0230499
0.000541615
0.000277448
0.0146548
0.000146576
-0.0240058
0.026867
-8.12592e-07
-0.028115
0.0165784
-0.0172929
0.0151989
-0.00247579
-0.018337
0.000699366
-0.0216965
0.029815
-0.0261067
0.0248308
-5.90104e-05
-0.0248732
4.0048e-05
0.0246426
-7.33319e-05
-0.0247493
1.55138e-05
0.0248622
-8.33362e-05
-0.0249555
0.0265615
-0.0304709
0.00201523
-0.0230963
0.0317966
0.00161988
0.000894024
-0.00983342
0.010532
-0.0108919
2.83311e-05
-0.00832551
0.00766129
0.000548259
-0.0095173
0.00685773
-0.00799322
0.000594051
0.0152512
-0.00863181
0.00516888
0.00114838
-0.00974983
0.0076988
-0.000164055
-0.000149918
-6.4955e-06
0.000268947
0.000141587
5.5974e-05
1.51268e-05
-3.11111e-06
-1.68134e-05
-2.99496e-05
3.49721e-05
-1.49697e-05
0.000662752
0.000768809
1.90509e-06
-0.000178554
-0.000110269
0.00140109
0.000493431
-0.00121953
0.000623286
0.000805465
-0.00128365
3.38322e-05
-0.00144189
-0.000113891
-0.000353295
-0.00118765
0.00182008
0.00222696
0.000115351
0.000415122
-0.000100042
5.74691e-05
0.00100108
-0.00107573
-1.16123e-05
-0.00114206
0.00114177
0.00107847
-0.000997613
-5.07573e-06
-0.00132756
-1.26754e-07
0.00132829
9.27754e-07
2.50665e-06
-2.87989e-05
5.83778e-05
6.4531e-05
0.000477163
0.00656767
0.00359633
0.00186904
-0.000234132
-0.00077165
-0.000948232
-0.00116649
-0.00158718
-0.00241823
-0.00409047
-0.00421771
-0.00806947
-0.00882996
-0.0188357
-0.0310212
-0.0279495
-0.0281175
0.0117476
-0.0171376
-0.00798046
-0.0086302
-0.025481
-0.0316597
-0.028454
-0.0284608
-0.0284728
-0.0283015
-0.0322797
0.0119055
-0.00208692
-0.0074973
0.0361211
-0.0104665
-0.0233894
-0.0220263
-0.0062843
-0.00769313
-0.01756
-0.0182379
-0.00302674
-0.00513584
-8.31476e-05
0.000624695
0.000708207
0.000591597
0.000451919
0.000342442
0.000184786
0.000173398
-5.38163e-05
9.96307e-05
-0.000420546
-0.000684758
-0.000890092
-0.00118243
-0.00172687
-0.00297895
0.000429566
0.000260232
0.000162231
0.000467817
0.000545182
0.000471773
0.000464447
0.00033214
0.000419421
0.000257355
0.00400545
0.00608541
-0.00697073
0.00811178
-0.0091764
0.000260241
0.00554915
-0.00499984
0.000176728
-2.25212e-05
-6.58576e-05
-3.98427e-05
-0.00398595
9.3163e-05
-0.00146985
0.000890239
-0.000320864
-7.72859e-05
-0.000102751
0.000156071
-0.00131133
0.00102487
-6.94836e-06
-3.05638e-06
-3.0763e-06
1.38372e-06
0.000661602
-2.17917e-05
3.62242e-06
3.38467e-06
5.3495e-07
-0.000413798
2.8245e-06
0.000171833
0.00010672
0.000141009
-0.000113655
9.81991e-05
-1.17549e-06
1.06041e-05
-0.000412693
0.00131053
0.00128561
-0.000800275
-0.000152845
-0.000633546
0.00122757
0.000108287
2.87818e-05
2.74224e-06
1.09804e-06
-2.4874e-05
-2.1292e-05
-2.02443e-05
-4.42165e-05
-8.56442e-05
-7.6216e-05
2.26229e-05
-0.000129368
-0.000100146
-0.000172565
-0.000185407
-0.0065872
0.00748913
0.0108032
-0.0121732
0.0142214
-0.016057
0.000473983
0.00985712
-0.0087658
0.000357812
2.08528e-05
-8.53488e-05
8.90141e-05
-7.31797e-05
0.000183238
-0.000174785
-0.000169088
-0.000174587
-0.000159163
-4.64295e-05
0.00019067
0.000346615
0.000411849
0.000184329
0.00430077
0.00012683
0.000147811
7.14236e-05
3.15643e-05
5.85931e-06
-1.97658e-05
-1.4632e-05
-8.15923e-06
-1.53149e-05
1.72353e-05
6.20883e-06
6.53676e-07
4.45143e-05
2.13786e-05
2.09037e-05
1.21251e-05
-4.17828e-06
2.49671e-05
2.25281e-05
4.94541e-06
9.96098e-06
1.70642e-05
2.73408e-05
2.24821e-05
8.49372e-05
4.45556e-05
7.15127e-05
0.000166783
8.2934e-05
0.000173161
0.000335986
0.00026578
0.00101458
-0.00240786
-0.00298478
-0.000513928
0.000376463
0.000516334
0.000344766
-0.00721854
-0.000154713
-8.58835e-05
-0.000104628
-0.00074028
-0.000261102
0.0163615
-0.000222864
-0.0206168
-0.000158759
-0.000898558
-0.0191569
-0.000871725
-0.00109046
-0.0125976
-0.00620097
-0.0102583
-0.024806
0.00254335
0.00623953
0.000390025
-0.000337207
-0.000288791
-0.00052728
0.000105555
-0.0146673
0.0197406
0.000131478
-0.00440331
0.00199867
0.00673341
4.61505e-05
-0.00841616
0.00536865
0.00542799
-1.77718e-05
-0.00868372
0.00573292
0.00480886
-7.24283e-05
-0.00798535
0.00191228
-0.0115815
0.00552897
0.00859933
-0.0109349
0.00324104
0.00141914
-0.000651997
-0.000115726
-2.13796e-05
3.18725e-05
3.71923e-05
3.20022e-05
3.19688e-05
3.25627e-05
2.33273e-05
3.28494e-05
0.000104052
0.00627352
-0.00721617
0.000100989
0.00833844
-0.00961373
0.00862835
-0.00992355
0.0113634
-0.0129982
0.000125732
-0.00560758
0.00012634
0.00539439
0.000100666
-0.00419678
0.000117142
0.0040737
1.1847e-05
9.32198e-05
0.00132217
-6.91298e-05
-0.00176099
0.01223
0.000253498
-0.00901229
-0.000409086
0.0102708
0.0133017
0.000488777
-0.0121711
-0.000511327
0.0161144
0.000781009
-0.0155827
-0.000702617
0.0154095
0.0196044
0.000745675
-0.0234848
-0.000142218
-0.0195283
-0.0232299
0.000886243
0.0190478
0.0158246
-0.0191846
-7.7005e-05
-0.000642294
0.000512887
0.000423908
0.00036055
0.000286635
0.000210103
0.000132913
5.7679e-05
9.81333e-05
2.72802e-05
1.07165e-06
3.55522e-05
1.06439e-06
0.0110563
-0.0126965
0.000171165
0.0144291
-0.0165027
0.0147506
-0.0166448
0.0188805
-0.0202897
-0.000630401
-0.00914639
-6.87597e-05
0.00926604
4.21628e-05
-0.00745894
8.7362e-05
0.00705383
-3.28683e-05
0.000249018
0.00254958
6.98875e-05
-0.00261723
0.0201957
0.000421308
-0.0143537
-0.000699231
0.016146
0.0194845
0.000732347
-0.0241338
-3.94513e-05
-0.0172139
-0.0308816
0.000151435
0.0240358
-0.0018855
0.0101591
-0.000145267
0.00702368
0.00552844
0.00290518
0.00184812
0.0130949
-0.00796324
-0.000499775
0.00108011
0.000581588
0.00044107
0.000369773
0.000295601
0.000209138
8.90262e-05
8.15325e-05
0.00265668
-0.00186941
-0.00303626
-0.000705936
0.000579984
-0.00155471
0.00498622
-0.0022003
-0.00266482
-0.00260542
-0.00155316
0.0037479
0.0041683
0.000248201
-0.00278576
-0.000237989
0.00454673
1.45359e-05
-0.0038285
-0.000152782
0.00485278
0.00582261
0.000117358
-0.005314
-0.000244211
0.00629099
-0.000404138
-0.000311438
-0.00651789
-0.000161306
-0.00482123
0.000853433
0.000862019
0.000229437
-0.00200076
-0.0033231
-0.00225088
-0.00164332
-0.00350153
-0.00117243
-0.000610868
0.000350753
8.74005e-05
0.00558608
-4.87402e-06
-0.00383403
-0.000162726
0.00459384
0.00594654
8.54617e-05
-0.00528638
-0.000234882
0.00761264
0.000231369
-0.00713018
-0.000322391
0.00827768
0.0100733
0.000348656
-0.0115462
-0.00056711
-0.000444399
-0.00874233
0.00106356
0.00106977
0.000977034
-0.000186109
-0.0047338
1.47019e-05
-0.00310685
0.000237686
-0.000730154
-0.000999563
5.84838e-06
0.000768957
-0.0003693
-0.00582413
0.000416409
3.35356e-05
0.00099448
-5.41302e-05
0.00926871
0.000155784
-0.00684353
-0.000324342
0.00787238
0.0102911
0.000352802
-0.00941194
-0.000401114
0.0129114
0.000523008
-0.0122703
-0.000525604
0.0132105
0.0163634
0.000711136
-0.0189258
0.000378253
-6.91611e-05
-2.44236e-05
2.42803e-05
2.10019e-05
1.436e-05
8.89366e-06
5.02702e-06
-8.88358e-06
-1.5116e-05
1.57626e-05
1.67245e-06
-6.95821e-06
6.54575e-06
2.35383e-05
5.04597e-05
7.82517e-05
4.10608e-05
1.68122e-05
4.20465e-06
4.43379e-06
-7.13277e-06
-3.54691e-07
0.00567473
3.2644e-06
-0.0056625
0.00648116
5.9418e-06
-0.00751172
0.00753024
-0.00646243
0.00654231
6.16262e-06
-0.00761273
0.00750704
-0.00648515
0.00566443
-1.27079e-05
-0.00576136
0.00490549
-0.00487777
0.00488906
-0.00489918
1.8434e-05
-0.00565739
0.00577762
1.53651e-05
-0.00653226
5.00833e-06
-0.00749797
0.00763883
1.49849e-05
-0.00873225
-5.08076e-07
-0.00996643
0.0101356
-0.00997995
0.0100069
9.58784e-06
0.00865256
-0.00862514
5.81881e-06
0.00874781
1.87363e-05
-0.0100999
0.00998045
-0.00862598
-3.41735e-05
-0.00859988
0.00528083
1.36708e-05
0.00737852
-4.21871e-05
-0.00654022
0.00407072
2.68983e-05
0.00561935
-0.00494144
0.00431692
-1.66243e-05
-0.00438616
-1.76981e-06
0.00428723
2.22676e-06
-0.00428038
1.16836e-05
0.00439331
2.012e-05
-0.00431137
0.00495722
-0.00562508
4.7191e-05
5.93369e-05
4.70338e-05
0.000172913
0.000112846
-0.0022986
0.00237486
-0.00233897
0.00234003
1.42449e-08
-6.00022e-06
-5.69399e-06
-0.00237398
0.00229915
-0.000112832
-6.45326e-05
0.00120657
-0.00135005
4.41269e-06
-8.98753e-06
0.00397047
-0.00401803
0.00402342
-0.00396799
0.0041076
-0.00429789
-0.000106401
-3.48288e-05
-0.00120517
6.52689e-05
0.00135002
-5.63231e-05
3.26018e-05
2.84984e-05
4.48847e-06
7.68672e-06
1.17467e-05
1.52134e-05
1.4595e-05
-0.0114333
1.0561e-05
-0.013099
0.0131335
-0.0132474
0.0131218
2.79807e-05
0.0116069
-0.0114222
-2.53844e-05
-0.0113948
0.00698313
2.78706e-05
0.00982126
-0.00604923
-0.000141771
-0.00489816
0.0054983
-0.000271692
-0.00651276
0.00729537
-0.000309193
-0.00852532
0.00967362
-0.000243647
-0.0109156
0.0126601
-0.000313291
-0.0139822
-0.00109942
-0.00032532
-0.000556297
-0.0001634
-0.000401731
-0.00016859
-0.000338102
-0.000155044
-0.000274916
-0.000101117
-0.000157751
0.004229
-0.00454677
-0.000106297
-0.00360216
0.00349935
0.000202404
5.84078e-05
-0.000192853
1.54967e-05
-0.00220409
-6.88466e-05
0.00335906
0.000176153
-0.00504646
-3.88606e-05
-5.05548e-05
0.000271272
0.000159196
-0.000215275
-0.00229081
0.00348526
0.00112838
0.00383817
0.0014024
0.000797996
0.000166787
0.000533572
-0.00336446
0.00429681
-0.00409961
0.000107368
1.6087e-05
-0.000186992
-4.70452e-05
-1.59057e-05
0.000151708
0.000126731
0.000149623
0.000195143
5.35316e-05
-0.0149547
0.00916974
-0.00802715
0.013031
2.46014e-05
5.33553e-06
-1.64555e-05
2.36065e-06
1.4426e-05
3.14755e-05
4.4386e-05
5.93542e-05
-5.58009e-06
-0.0148542
3.29083e-05
-0.0169919
0.0168927
-0.019235
0.0118029
9.6618e-05
0.0170364
-0.0105197
-0.000122943
-0.000147307
0.000703497
0.000543554
0.000493797
0.000718181
0.0125826
0.018349
-0.0209641
0.00202818
0.000201939
-1.53335e-06
0.000554804
-6.88144e-05
0.000119986
-0.0115984
0.000274937
0.00111832
-0.015038
0.000643586
0.000109127
5.61632e-05
0.000113311
0.000221733
0.000320389
0.00015566
6.81455e-05
3.57355e-05
2.98286e-05
2.6835e-05
3.79856e-05
5.04488e-05
3.4503e-05
2.89592e-05
3.41187e-05
2.59167e-05
2.15521e-05
2.09815e-06
1.78088e-05
1.56027e-05
0.000124351
4.28274e-05
3.56459e-05
2.48232e-05
1.97748e-05
8.38061e-06
7.19924e-06
2.98139e-05
4.5039e-05
1.58311e-05
-0.000220569
4.07118e-05
4.05397e-05
3.32735e-05
5.27487e-05
7.82188e-05
8.22252e-05
0.000139926
7.41127e-05
0.000139125
7.15127e-05
0.0183554
-0.0209745
0.000254108
0.0223846
0.000411783
8.27106e-05
0.000226401
0.00131067
-0.00411762
0.0127508
-0.0105101
0.0221602
0.00321722
0.0140173
-0.0119512
0.0101368
-0.0101526
0.00704424
0.00799748
-0.0110351
0.00250447
-0.011818
0.00744204
0.00770388
0.0146352
-0.00074762
-0.000270349
-0.00183882
-0.00011793
-0.00765541
-0.000145079
-3.65371e-05
4.15574e-05
5.74323e-05
9.89732e-05
5.68606e-05
4.53946e-05
5.42385e-05
4.42192e-05
-9.38316e-07
4.40015e-05
6.53143e-06
0.000275853
0.000190777
0.000140378
-0.0141157
0.0159211
0.000345642
-0.0115783
-0.000521943
0.0131598
0.0166093
0.000689952
-0.0153749
-0.000674104
-0.0187764
0.00042792
0.000365561
-1.76955e-05
1.57997e-05
1.82314e-06
0.000236872
4.67392e-05
2.4829e-05
3.33774e-05
2.70969e-05
-7.26628e-06
0.000214722
0.000138863
5.68256e-05
-0.00465522
-0.000154051
0.00485454
4.95699e-05
0.00393019
-0.00318935
-0.00316698
0.00380011
-0.00243141
-0.00226335
-0.00197089
0.00024139
-0.000307889
-0.000347627
-0.00655802
0.000967474
-0.000375258
-0.00133201
0.000585231
0.00114479
-0.000466479
-0.010648
0.000741257
0.000134582
0.00176826
-4.66948e-05
-0.00226
-0.00054359
0.00100668
0.00161477
0.0013633
-0.00049209
-0.00888154
-0.000443729
-0.00863897
0.00120157
-0.000627301
-0.0117762
-0.000566362
0.0106796
0.00127147
-0.000791921
-0.0152829
-0.000398124
-0.0184615
0.00193247
0.000807176
0.00459668
0.000371604
-0.0239063
0.00103517
0.00187282
0.00211763
0.00338598
0.0134543
0.0316415
0.0165662
0.0243942
-0.00193006
-0.00107588
-0.0194146
0.00102087
0.000322258
0.00220977
0.0163357
0.0236978
-0.00189036
-0.00100953
-0.000721133
0.0133702
-0.0148249
0.00116191
0.00117156
0.000713885
-0.000188881
0.00157006
0.0150395
0.0238935
-0.00195479
-0.00102437
-0.000728173
-0.0149443
-0.000885211
-0.000700533
-0.000562888
0.000838119
0.000661929
0.000397844
-8.35704e-05
0.000231041
0.000995459
0.0010984
0.00105027
-0.00109895
-0.00139585
0.00147688
0.0137212
0.026724
-0.00472608
0.005134
0.00227671
0.0021559
0.000341517
-0.000150156
-7.31988e-05
-3.58677e-05
-1.94972e-05
-1.15798e-05
-2.50036e-06
2.00419e-05
2.01579e-06
3.74362e-07
-6.58265e-06
1.78382e-05
1.02058e-05
1.11925e-05
-1.31303e-05
-0.000170925
-0.000276095
-0.000150922
2.99508e-05
5.47294e-05
-0.0073921
0.0065108
2.12125e-05
2.06936e-05
2.21878e-05
3.18852e-05
2.46437e-05
3.25051e-05
5.07217e-05
-5.55587e-05
0.00118013
-0.00443537
0.000272282
8.83025e-05
1.38317e-05
1.72234e-05
1.96639e-05
1.86399e-06
-9.51277e-06
2.25674e-05
1.75192e-05
1.58624e-05
1.14841e-05
1.60537e-05
1.74322e-05
5.22463e-05
5.00688e-05
0.0168465
2.14642e-06
-0.0168139
0.0189022
-2.60035e-05
-0.0209325
0.0209277
-0.0188715
0.0191877
1.63489e-05
-0.0211228
0.0211
-0.0188156
4.5162e-05
0.0217996
-0.0136104
5.30659e-06
-6.24101e-05
0.000135167
0.000257381
0.000250979
-0.000357694
-0.00144314
-0.0029231
-0.00588704
0.000120695
-0.00233725
-0.000888061
-0.000269284
0.000298707
0.000272149
3.30229e-05
5.05016e-05
6.14131e-05
3.4943e-05
0.0151178
-0.0148771
0.0149184
-0.0150874
-1.76129e-05
-0.0168261
0.0170322
1.28333e-06
-0.0191759
-4.8671e-05
-0.0210084
0.0211447
-1.6943e-05
-0.0235292
0.0231704
-0.0266465
-3.22659e-05
-0.000162341
-5.95124e-05
2.13354e-05
3.83168e-05
0.000133783
0.000313796
0.000922657
0.00466784
-0.00228696
0.0599038
-0.00155463
-0.000284323
-0.00112445
-0.0114517
0.002493
0.00662589
0.000531548
-0.000114076
-0.00602844
-0.000136283
0.000154619
0.000345125
2.83926e-05
3.57999e-05
0.000550393
0.000314412
-0.0191493
0.0165557
-0.000751476
-0.00047227
-0.000114355
0.00333156
-0.000847244
0.00274036
0.00445345
0.00772657
0.0149973
0.00341177
-0.0087366
0.0035126
-0.0117885
0.00278645
0.00135989
-0.00835408
0.000560056
-0.000147234
1.60121e-05
-2.9603e-05
1.21597e-05
0.000136206
-8.10651e-05
-0.000194632
-5.56944e-05
-0.000217485
-5.36335e-05
8.9879e-06
-2.35918e-06
1.52404e-05
-9.88588e-06
-2.87325e-06
-4.68043e-05
6.43466e-06
7.4907e-05
0.000156901
0.000444722
0.00646747
0.0275504
0.00148957
-0.00404401
0.017644
0.000480279
-0.00298858
-0.00155008
-0.00248417
0.0595054
-0.00126738
-0.000303659
0.00047467
0.000126946
0.000299588
-0.00548496
-0.000154619
-0.000152782
-0.00118454
-0.0115484
-0.0104344
-0.00660955
-0.0240264
0.00253402
0.00588602
0.000271815
-0.000334626
-0.000354946
-0.000204838
-0.00668364
-0.000347721
0.00325162
-0.00208332
0.00348262
-0.000223771
-0.00612779
-0.00037469
-0.000175441
-3.84017e-06
0.000456519
0.00199166
0.000463634
0.000520932
0.00190393
0.00184575
0.000214876
-0.000111923
-2.84792e-05
5.7758e-05
0.000175509
-9.2783e-05
-2.78498e-05
0.00125565
0.0210667
0.00156289
0.000561009
-0.000121769
-0.000171457
-0.000154054
-0.000128684
-0.000117752
1.28742e-05
0.00866248
-0.00983831
5.07545e-05
0.000108634
6.07856e-06
4.88406e-05