/*--------------------------------*- C++ -*----------------------------------*\
| =========                 |                                                 |
| \\      /  F ield         | OpenFOAM: The Open Source CFD Toolbox           |
|  \\    /   O peration     | Version:  2306                                  |
|   \\  /    A nd           | Website:  www.openfoam.com                      |
|    \\/     M anipulation  |                                                 |
\*---------------------------------------------------------------------------*/
FoamFile
{
    version     2.0;
    format      ascii;
    arch        "LSB;label=32;scalar=64";
    class       volVectorField;
    location    "0.8";
    object      flux;
}
// * * * * * * * * * * * * * * * * * * * * * * * * * * * * * * * * * * * * * //

dimensions      [0 1 -1 1 0 0 0];

internalField   nonuniform List<vector> 
2658
(
(9.68934e-07 9.47083e-07 -7.89999e-06)
(1.43462e-06 5.57943e-07 -7.47374e-06)
(4.61452e-07 1.68684e-07 -4.62368e-06)
(3.18493e-10 -6.10183e-09 -4.13738e-06)
(-1.59484e-06 -1.57031e-06 -5.43709e-06)
(-1.34262e-06 1.90949e-06 -5.54615e-06)
(1.24089e-06 -1.45009e-06 -4.47585e-06)
(1.23113e-06 1.22428e-06 -4.34181e-06)
(-1.25636e-08 5.09568e-09 -4.13402e-06)
(1.89845e-06 -1.36149e-06 -5.53171e-06)
(-1.39155e-06 3.96009e-07 -6.07377e-06)
(-1.09052e-06 -3.67599e-06 -5.18044e-06)
(7.96064e-07 2.3544e-06 -7.24146e-06)
(9.11232e-07 2.38937e-06 -6.8791e-06)
(6.86339e-07 1.95877e-06 -6.97233e-06)
(-3.66577e-08 1.99982e-06 -7.15615e-06)
(-2.89566e-08 2.17239e-06 -7.03053e-06)
(-2.74836e-08 1.97177e-06 -7.14126e-06)
(-7.47041e-07 2.00385e-06 -6.95596e-06)
(-9.88044e-07 2.36023e-06 -6.78478e-06)
(-9.71684e-07 2.28468e-06 -7.11697e-06)
(-2.25409e-06 2.01904e-06 -6.41352e-06)
(-2.6357e-06 6.81471e-07 -7.27421e-06)
(1.92415e-06 -4.06168e-07 -5.30231e-06)
(-7.87803e-07 6.95944e-07 -8.42301e-06)
(-1.06776e-06 2.1688e-06 -7.11563e-06)
(-2.29246e-06 -4.55898e-07 -6.44296e-06)
(-3.05266e-07 1.39324e-07 -7.3993e-06)
(-1.67728e-06 1.76843e-06 -7.66074e-06)
(-1.84182e-06 -9.36952e-11 -6.4564e-06)
(-1.67725e-06 -1.76846e-06 -7.66067e-06)
(-2.2925e-06 4.55904e-07 -6.44296e-06)
(-1.06782e-06 -2.16892e-06 -7.11555e-06)
(-2.63584e-06 -6.81461e-07 -7.27411e-06)
(-7.87752e-07 -6.95924e-07 -8.42299e-06)
(1.92413e-06 4.06219e-07 -5.30221e-06)
(-8.84537e-07 -5.46559e-08 -6.48494e-06)
(4.73803e-07 1.89419e-07 -9.68838e-06)
(-2.25374e-06 -2.01964e-06 -6.41344e-06)
(-9.71951e-07 -2.28482e-06 -7.11714e-06)
(-9.88019e-07 -2.36039e-06 -6.78487e-06)
(-7.46986e-07 -2.00393e-06 -6.95597e-06)
(-2.76265e-08 -1.97162e-06 -7.14118e-06)
(7.18776e-08 9.48898e-07 -9.87825e-06)
(-1.11984e-06 -6.87587e-08 -5.85901e-06)
(1.04644e-06 -1.94836e-09 -5.79722e-06)
(-1.39153e-06 -3.96038e-07 -6.07379e-06)
(-5.97444e-08 9.89095e-07 -9.87689e-06)
(-3.68894e-08 -2.00018e-06 -7.15624e-06)
(6.86341e-07 -1.9588e-06 -6.97237e-06)
(9.11265e-07 -2.3892e-06 -6.87903e-06)
(7.96033e-07 -2.35441e-06 -7.24153e-06)
(2.1402e-06 -2.11846e-06 -6.49357e-06)
(-4.35991e-07 4.24379e-07 -1.0079e-05)
(2.37025e-06 -7.93294e-07 -7.24823e-06)
(1.96661e-06 -7.04144e-07 -6.97918e-06)
(-1.0027e-06 5.42607e-08 -9.87576e-06)
(2.05928e-08 -1.05989e-06 -5.82206e-06)
(-3.4381e-06 -1.7621e-11 -5.37109e-06)
(1.97782e-06 9.24921e-10 -7.14821e-06)
(-1.00264e-06 -5.42362e-08 -9.87588e-06)
(1.96665e-06 7.04114e-07 -6.97928e-06)
(2.37023e-06 7.93356e-07 -7.2483e-06)
(-4.35919e-07 -4.24429e-07 -1.0079e-05)
(3.80101e-07 3.8332e-07 -6.12503e-06)
(-3.67932e-06 -1.05998e-06 -5.19063e-06)
(3.71187e-07 -1.38492e-06 -6.05911e-06)
(-8.3847e-08 -7.44149e-08 -5.18487e-06)
(-1.0094e-06 -2.11683e-06 -5.47541e-06)
(-1.00951e-06 2.11684e-06 -5.47529e-06)
(-7.32076e-09 1.85716e-11 -4.18293e-06)
(8.85356e-07 1.58931e-06 -4.37531e-06)
(-9.82911e-08 -2.61294e-08 -3.16579e-06)
(-8.46321e-07 1.14998e-06 -3.40947e-06)
(4.39145e-08 5.17059e-09 -2.43934e-06)
(-8.96883e-07 -8.78899e-07 -3.37969e-06)
(1.13892e-06 -8.65612e-07 -3.39948e-06)
(1.65328e-09 4.94938e-08 -2.4357e-06)
(-8.4941e-07 7.21463e-07 -2.57722e-06)
(9.39978e-07 4.68446e-07 -2.51846e-06)
(-1.31503e-06 -5.82728e-07 -3.39948e-06)
(-3.72758e-08 -8.75641e-08 -3.16393e-06)
(1.59437e-06 8.43935e-07 -4.35218e-06)
(-1.45582e-06 1.27971e-06 -4.48985e-06)
(-2.62117e-08 -1.70914e-08 -3.902e-06)
(-1.34376e-08 -7.55477e-09 -2.29336e-06)
(1.45466e-09 4.74868e-09 -1.22762e-06)
(3.86611e-09 5.6654e-09 -5.93658e-07)
(2.64832e-09 3.65342e-09 -2.59499e-07)
(1.33001e-09 1.91509e-09 -1.02805e-07)
(5.4542e-10 8.82604e-10 -3.7222e-08)
(-3.12665e-10 -5.3977e-10 -1.63477e-08)
(2.20547e-10 2.29939e-10 -1.01648e-08)
(-2.2578e-09 1.54758e-09 -8.84632e-09)
(1.32227e-09 -5.36936e-10 -8.23142e-09)
(-3.59749e-10 -2.26519e-09 -1.06288e-08)
(-1.63828e-09 -1.50044e-10 -8.06074e-09)
(-8.2165e-13 -1.56329e-09 -1.168e-08)
(1.61397e-09 -1.84092e-10 -8.04822e-09)
(-1.36122e-09 -4.91335e-10 -8.09386e-09)
(6.93e-10 -1.67603e-09 -1.16609e-08)
(1.81491e-09 -3.72239e-10 -8.18852e-09)
(1.97464e-09 -2.05384e-09 -1.01807e-08)
(1.15497e-09 -7.50665e-10 -9.74744e-09)
(1.22288e-09 -6.95622e-10 -8.32347e-09)
(-2.89635e-09 1.6152e-09 -1.03289e-08)
(-4.21427e-10 -5.64056e-10 -7.79744e-09)
(-2.88661e-10 -2.1058e-10 -1.64256e-08)
(-2.56139e-10 2.73205e-10 -8.0404e-09)
(7.27032e-10 -1.59084e-09 -1.05907e-08)
(1.53949e-09 5.21488e-10 -9.68374e-09)
(5.63177e-10 -6.81178e-10 -8.01474e-09)
(1.18303e-09 1.05512e-14 -1.06239e-08)
(5.63006e-10 6.8128e-10 -8.01449e-09)
(1.53946e-09 -5.21686e-10 -9.68392e-09)
(7.27109e-10 1.59087e-09 -1.05914e-08)
(1.22325e-09 6.9553e-10 -8.32413e-09)
(-2.89656e-09 -1.61565e-09 -1.03289e-08)
(1.97508e-09 2.05351e-09 -1.01807e-08)
(1.15543e-09 7.50386e-10 -9.74738e-09)
(1.81459e-09 3.71417e-10 -8.18715e-09)
(6.92408e-10 1.67599e-09 -1.16595e-08)
(-1.36144e-09 4.91247e-10 -8.09361e-09)
(1.61397e-09 1.8387e-10 -8.04779e-09)
(-2.94573e-09 -1.2982e-09 -9.28582e-09)
(2.87515e-09 -1.24188e-09 -9.32538e-09)
(-2.25818e-09 -1.54791e-09 -8.84608e-09)
(-3.6003e-10 2.26559e-09 -1.06295e-08)
(-1.63815e-09 1.5043e-10 -8.06072e-09)
(1.32194e-09 5.37152e-10 -8.23173e-09)
(-7.34675e-10 1.66755e-09 -1.18232e-08)
(-1.82425e-09 3.36258e-10 -8.24438e-09)
(-1.12485e-09 7.72445e-10 -9.85419e-09)
(-1.02732e-09 8.11405e-10 -8.21968e-09)
(-7.46199e-10 1.52619e-09 -1.07084e-08)
(8.75322e-12 -7.61369e-10 -8.41026e-09)
(-4.51092e-10 1.5879e-10 -8.43283e-09)
(-3.01209e-09 2.20146e-10 -1.14751e-08)
(1.8261e-09 -1.99913e-09 -9.28002e-09)
(1.82531e-09 1.9999e-09 -9.2803e-09)
(-4.51115e-10 -1.58706e-10 -8.43234e-09)
(8.20111e-12 7.61593e-10 -8.41018e-09)
(5.90632e-10 -4.00168e-10 -8.7666e-09)
(-7.89742e-10 -4.05665e-10 -8.88082e-09)
(-8.94989e-10 -3.78626e-12 -1.10418e-08)
(-7.88017e-10 4.0458e-10 -8.87691e-09)
(2.7879e-10 9.30664e-13 -1.09186e-08)
(2.6111e-10 1.24574e-12 -1.182e-08)
(-1.6416e-09 -8.52038e-10 -7.59305e-09)
(-1.70632e-09 8.39368e-10 -7.62907e-09)
(-1.39543e-09 2.5981e-12 -6.92639e-09)
(-1.76651e-09 7.37206e-11 -1.02748e-08)
(-1.75099e-09 5.07088e-10 -1.12843e-08)
(-1.7914e-09 -5.90416e-10 -6.33487e-09)
(-1.59026e-09 2.20199e-09 -9.15456e-09)
(-2.66226e-09 4.74998e-10 -8.95264e-09)
(-2.30344e-09 2.09757e-09 -8.19037e-09)
(-1.01673e-09 2.52675e-09 -8.76209e-09)
(-1.25586e-09 2.72346e-09 -7.91466e-09)
(-9.53114e-10 2.06113e-09 -8.6933e-09)
(5.46209e-11 2.07863e-09 -8.92108e-09)
(-1.61686e-11 2.51199e-09 -8.00097e-09)
(-1.22812e-10 2.09406e-09 -8.91925e-09)
(8.316e-10 2.0614e-09 -8.59313e-09)
(1.19753e-09 2.75442e-09 -7.75966e-09)
(9.59123e-10 2.53978e-09 -8.59172e-09)
(2.22525e-09 2.16083e-09 -7.98132e-09)
(3.05002e-09 6.65784e-10 -9.22059e-09)
(-6.92898e-10 1.701e-10 -1.58341e-08)
(3.76782e-09 1.29004e-09 -1.80332e-08)
(-1.12453e-08 -7.30642e-09 -3.49716e-08)
(1.9565e-08 1.39144e-08 -6.21316e-08)
(-3.1257e-08 -2.18867e-08 -1.0439e-07)
(5.37119e-08 3.74516e-08 -1.70608e-07)
(-8.19933e-08 -5.95746e-08 -2.73677e-07)
(1.33738e-07 9.2225e-08 -4.25486e-07)
(-1.95489e-07 -1.45102e-07 -6.4782e-07)
(3.01396e-07 2.05912e-07 -9.58559e-07)
(-4.2146e-07 -3.17542e-07 -1.38417e-06)
(6.15437e-07 4.14891e-07 -1.9491e-06)
(-8.19753e-07 -6.27381e-07 -2.66743e-06)
(1.14385e-06 7.53765e-07 -3.56809e-06)
(-1.43878e-06 -1.12968e-06 -4.63772e-06)
(1.97986e-06 1.2311e-06 -5.74864e-06)
(-1.96613e-06 1.21793e-06 -5.55012e-06)
(2.09024e-06 1.02457e-06 -5.44173e-06)
(-2.16051e-06 9.74691e-07 -5.49948e-06)
(1.89839e-06 1.36155e-06 -5.53163e-06)
(-1.59492e-06 1.57026e-06 -5.43702e-06)
(3.09929e-10 6.08417e-09 -4.13731e-06)
(-1.34254e-06 -1.90953e-06 -5.54621e-06)
(3.7111e-07 1.38493e-06 -6.05901e-06)
(-3.67924e-06 1.05989e-06 -5.19063e-06)
(3.801e-07 -3.83332e-07 -6.12503e-06)
(-1.09054e-06 3.67594e-06 -5.18044e-06)
(4.66799e-07 -4.73223e-07 -8.33727e-06)
(-2.62201e-08 1.70657e-08 -3.90199e-06)
(-1.34378e-08 7.53749e-09 -2.29335e-06)
(1.44654e-09 -4.75259e-09 -1.22761e-06)
(3.86136e-09 -5.67135e-09 -5.93651e-07)
(2.65019e-09 -3.65777e-09 -2.59494e-07)
(1.33111e-09 -1.91463e-09 -1.02802e-07)
(5.45692e-10 -8.82636e-10 -3.72208e-08)
(-3.12723e-10 5.39842e-10 -1.63477e-08)
(2.20449e-10 -2.29883e-10 -1.01649e-08)
(7.37092e-11 -4.8661e-11 -7.63448e-09)
(-8.51625e-10 -7.83088e-10 -8.5642e-09)
(-1.9087e-10 4.9239e-10 -1.64145e-08)
(1.02749e-09 -9.66765e-10 -8.77677e-09)
(1.02746e-09 9.66669e-10 -8.77692e-09)
(-8.51721e-10 7.83334e-10 -8.56443e-09)
(7.39288e-11 4.84273e-11 -7.63457e-09)
(-1.90292e-10 -4.92746e-10 -1.64147e-08)
(2.21996e-10 -2.39717e-10 -7.92243e-09)
(2.8749e-09 1.24185e-09 -9.3253e-09)
(-2.94598e-09 1.29801e-09 -9.286e-09)
(2.2449e-10 -2.28781e-09 -1.05534e-08)
(2.22709e-09 1.47119e-09 -8.82157e-09)
(-1.47945e-10 3.05349e-10 -1.00879e-08)
(-6.34337e-11 3.83642e-11 -7.60539e-09)
(-2.94533e-10 -2.48515e-10 -7.91267e-09)
(-2.61606e-11 1.86405e-10 -1.04405e-08)
(-2.12854e-11 2.22172e-11 -1.67364e-08)
(2.60273e-10 1.27483e-10 -1.63978e-08)
(2.67743e-10 -8.20796e-15 -1.77694e-08)
(2.60265e-10 -1.27716e-10 -1.63974e-08)
(-1.48454e-10 -3.0602e-10 -1.00878e-08)
(-4.21165e-10 5.63888e-10 -7.79729e-09)
(-1.38896e-09 -1.24199e-09 -8.70158e-09)
(-2.88253e-10 2.10981e-10 -1.64255e-08)
(2.87925e-10 -1.30298e-09 -9.00021e-09)
(2.88149e-10 1.30367e-09 -9.00031e-09)
(-1.38916e-09 1.24233e-09 -8.7016e-09)
(-3.71988e-11 2.09274e-13 -1.09325e-08)
(8.71596e-10 -8.50218e-10 -8.57589e-09)
(-1.11406e-09 -9.72966e-10 -8.72965e-09)
(-1.1146e-09 9.73486e-10 -8.72971e-09)
(1.2192e-11 -4.80449e-10 -1.62979e-08)
(8.72119e-10 8.50847e-10 -8.57601e-09)
(-1.73268e-11 -1.43685e-10 -9.61076e-09)
(-1.47112e-10 1.37332e-13 -8.18546e-09)
(-1.96284e-10 -5.41151e-10 -8.04264e-09)
(-1.92165e-10 -2.55277e-10 -7.39014e-09)
(8.71528e-10 7.8439e-10 -8.667e-09)
(-1.86964e-10 -1.83118e-10 -8.0085e-09)
(-2.56745e-11 1.4924e-13 -8.40579e-09)
(-1.37577e-09 1.19969e-13 -1.35368e-08)
(-1.91106e-10 -5.37399e-14 -1.58556e-08)
(-7.73932e-10 -1.65693e-09 -1.1325e-08)
(1.43901e-09 1.0622e-09 -1.35881e-08)
(1.16227e-09 2.5192e-09 -8.63466e-09)
(2.38599e-09 -6.62023e-10 -7.07442e-09)
(1.69272e-09 1.95765e-09 -8.93263e-09)
(-5.72166e-09 -3.14554e-09 -1.20313e-08)
(5.58725e-09 5.91406e-09 -2.47377e-08)
(-1.29151e-08 -8.65101e-09 -3.85707e-08)
(-1.29144e-08 8.65035e-09 -3.85708e-08)
(-1.71955e-10 1.27451e-09 -3.21007e-08)
(-1.81484e-08 1.43004e-08 -6.57822e-08)
(4.82385e-10 6.46857e-10 -5.30481e-08)
(2.88838e-08 -2.54569e-08 -1.09389e-07)
(-4.83048e-08 4.00587e-08 -1.79893e-07)
(5.21196e-10 9.47088e-11 -1.419e-07)
(7.58848e-08 -6.57508e-08 -2.84874e-07)
(-1.19996e-07 1.01522e-07 -4.45945e-07)
(-1.24692e-10 -1.73858e-09 -3.44646e-07)
(1.80368e-07 -1.54762e-07 -6.73472e-07)
(-2.70596e-07 2.31719e-07 -1.00055e-06)
(-2.77868e-09 -7.33246e-09 -7.56819e-07)
(3.87697e-07 -3.29707e-07 -1.43941e-06)
(-5.49001e-07 4.76462e-07 -2.02655e-06)
(-1.04474e-08 -2.52972e-08 -1.50001e-06)
(7.57221e-07 -6.33081e-07 -2.7761e-06)
(-9.9522e-07 8.85069e-07 -3.70118e-06)
(-2.42776e-08 -8.2854e-08 -2.67872e-06)
(1.37997e-06 -1.09319e-06 -4.79954e-06)
(-1.57316e-06 1.486e-06 -6.18695e-06)
(-9.12918e-08 -2.74408e-07 -4.48414e-06)
(2.68414e-06 -1.82419e-06 -7.21382e-06)
(4.49942e-07 -8.8786e-07 -5.1437e-06)
(3.31732e-06 -2.0299e-06 -6.76725e-06)
(3.3173e-06 2.02992e-06 -6.76722e-06)
(-3.0521e-07 -1.39263e-07 -7.39917e-06)
(8.03709e-07 -6.03704e-07 -7.59744e-06)
(-2.65223e-07 1.07563e-06 -6.60901e-06)
(1.10021e-06 9.58713e-07 -6.094e-06)
(6.72925e-08 -1.99246e-11 -8.93307e-06)
(-6.74208e-07 -6.67733e-07 -5.79505e-06)
(-6.74199e-07 6.67722e-07 -5.79509e-06)
(7.5602e-07 7.0592e-07 -5.84498e-06)
(-3.14903e-08 -1.34088e-11 -8.9355e-06)
(-8.74544e-07 -8.45279e-07 -5.91753e-06)
(-8.7453e-07 8.45271e-07 -5.91756e-06)
(2.38903e-07 3.49485e-07 -5.65909e-06)
(-2.94465e-07 -1.09672e-11 -8.87134e-06)
(-1.28928e-06 -2.25158e-06 -7.29451e-06)
(-1.28929e-06 2.25154e-06 -7.29448e-06)
(4.84434e-07 -1.46565e-06 -8.83094e-06)
(1.8983e-06 1.50746e-11 -1.2658e-05)
(4.84449e-07 1.46559e-06 -8.83096e-06)
(7.50426e-07 -1.14722e-06 -8.98067e-06)
(2.0797e-06 7.27338e-07 -1.25172e-05)
(8.96609e-07 1.67653e-06 -8.96821e-06)
(1.19853e-06 1.19134e-06 -1.04406e-05)
(1.44426e-06 1.43738e-06 -8.7016e-06)
(-2.24316e-06 -2.22792e-06 -8.48848e-06)
(-1.3002e-06 1.53497e-06 -6.97231e-06)
(1.19218e-06 1.93539e-07 -8.08858e-06)
(8.52463e-07 1.29512e-07 -9.85123e-06)
(-7.07717e-09 1.00502e-08 -8.99644e-06)
(2.38912e-07 -3.49504e-07 -5.65908e-06)
(-1.40505e-07 -1.27745e-07 -5.42626e-06)
(-3.84002e-07 -3.80547e-07 -8.80493e-06)
(1.53546e-06 -1.27533e-06 -7.00782e-06)
(-1.16032e-06 7.44915e-07 -8.98382e-06)
(7.26339e-07 2.04973e-06 -1.25178e-05)
(1.68176e-06 8.89229e-07 -8.97384e-06)
(9.62954e-07 9.60429e-07 -9.92612e-06)
(-5.21266e-07 -5.13929e-07 -9.11812e-06)
(-6.94472e-07 8.79398e-12 -9.21006e-06)
(-5.2124e-07 5.13957e-07 -9.11808e-06)
(-3.84028e-07 3.80551e-07 -8.80493e-06)
(-1.30016e-06 -1.53498e-06 -6.97229e-06)
(-2.24314e-06 2.22788e-06 -8.48852e-06)
(8.96636e-07 -1.67667e-06 -8.96796e-06)
(2.07979e-06 -7.2743e-07 -1.25173e-05)
(7.50479e-07 1.14718e-06 -8.98058e-06)
(1.19218e-06 -1.93597e-07 -8.08868e-06)
(8.52483e-07 -1.29525e-07 -9.85124e-06)
(9.63082e-07 -9.60337e-07 -9.92613e-06)
(1.68163e-06 -8.89295e-07 -8.97422e-06)
(7.26208e-07 -2.04969e-06 -1.25177e-05)
(-1.16035e-06 -7.44954e-07 -8.98394e-06)
(1.5354e-06 1.27531e-06 -7.00779e-06)
(1.85017e-07 -1.19779e-06 -8.08163e-06)
(1.44988e-06 -5.22781e-07 -8.88818e-06)
(-3.26822e-08 -1.89333e-06 -1.26674e-05)
(-1.50317e-06 -4.6873e-07 -8.84081e-06)
(2.24834e-06 1.19756e-06 -7.32179e-06)
(-2.98643e-08 2.91381e-07 -8.88311e-06)
(-3.89895e-07 -2.60272e-07 -5.64993e-06)
(-2.30177e-06 1.29849e-06 -7.30068e-06)
(-3.24761e-08 -2.78211e-07 -7.88531e-06)
(-2.67591e-07 -3.47227e-07 -8.00932e-06)
(2.01664e-08 -3.29421e-08 -4.11738e-06)
(1.47773e-08 -3.23787e-08 -2.4316e-06)
(6.35213e-09 -2.77757e-08 -1.30445e-06)
(2.7143e-09 -1.75891e-08 -6.31516e-07)
(1.10218e-09 -9.28362e-09 -2.76204e-07)
(3.82757e-10 -4.32889e-09 -1.09401e-07)
(9.95925e-11 -1.85096e-09 -3.95649e-08)
(-4.97704e-10 -1.57228e-09 -3.70433e-08)
(1.17887e-08 -6.6928e-09 -3.44891e-08)
(-1.29195e-08 -5.67101e-09 -3.4306e-08)
(1.27411e-08 -5.0311e-09 -3.43105e-08)
(-1.19271e-08 -8.0796e-09 -3.46523e-08)
(1.85583e-08 1.59793e-08 -5.92755e-08)
(-3.36219e-08 -2.47021e-08 -1.00832e-07)
(5.22949e-08 4.326e-08 -1.62376e-07)
(-8.73851e-08 -6.73277e-08 -2.63886e-07)
(1.31891e-07 1.06589e-07 -4.0528e-07)
(-2.06174e-07 -1.64639e-07 -6.24506e-07)
(2.99966e-07 2.37767e-07 -9.1381e-07)
(-4.4049e-07 -3.62826e-07 -1.33531e-06)
(6.16068e-07 4.78296e-07 -1.85906e-06)
(-8.49344e-07 -7.21464e-07 -2.57721e-06)
(1.13885e-06 8.65658e-07 -3.3994e-06)
(-1.45577e-06 -1.27973e-06 -4.48988e-06)
(-1.25449e-08 -5.15151e-09 -4.13394e-06)
(1.23114e-06 -1.22424e-06 -4.34181e-06)
(1.24073e-06 1.45019e-06 -4.47579e-06)
(8.85519e-07 -1.58935e-06 -4.37541e-06)
(-6.16793e-07 1.2894e-06 -3.39514e-06)
(4.72976e-08 -6.91278e-12 -2.48306e-06)
(-6.16676e-07 -1.2894e-06 -3.39518e-06)
(4.98598e-07 9.34255e-07 -2.53048e-06)
(6.94913e-07 -8.45542e-07 -2.57214e-06)
(6.9099e-07 6.85526e-07 -2.50912e-06)
(-4.82853e-07 -4.72292e-07 -1.82723e-06)
(-4.66299e-07 6.23142e-07 -1.86469e-06)
(3.32213e-08 1.02531e-08 -1.29253e-06)
(3.49239e-07 3.46089e-07 -1.3043e-06)
(8.56421e-09 3.69755e-08 -1.28996e-06)
(6.16142e-07 -4.78257e-07 -1.85912e-06)
(-1.78047e-08 -5.37061e-08 -1.78156e-06)
(-7.11018e-07 -3.18407e-07 -1.85491e-06)
(6.88479e-07 -3.63266e-07 -1.84392e-06)
(-2.30384e-09 3.85528e-08 -1.31337e-06)
(-4.89369e-07 2.69462e-07 -1.3179e-06)
(4.51298e-07 2.94533e-07 -1.31602e-06)
(-6.47685e-07 -4.06168e-07 -1.85329e-06)
(4.08673e-10 -5.75612e-08 -1.78017e-06)
(-9.42956e-07 5.35039e-07 -2.53789e-06)
(-4.77864e-09 4.82466e-08 -2.47229e-06)
(1.27076e-06 -6.52205e-07 -3.36874e-06)
(-1.60603e-06 9.38684e-07 -4.39949e-06)
(-8.88167e-09 -6.36704e-09 -4.17107e-06)
(-2.16052e-06 -9.74682e-07 -5.49948e-06)
(-8.40451e-08 -6.93079e-08 -5.19037e-06)
(1.04645e-06 1.95323e-09 -5.79726e-06)
(-5.97406e-08 -9.89115e-07 -9.87694e-06)
(1.85065e-07 1.19776e-06 -8.08167e-06)
(-2.30179e-06 -1.29854e-06 -7.30062e-06)
(-3.89868e-07 2.60235e-07 -5.6499e-06)
(6.26547e-08 7.82106e-08 -8.00483e-06)
(-3.98442e-08 -2.69493e-08 -5.47148e-06)
(-1.90179e-08 -1.0709e-11 -4.3096e-06)
(-1.64254e-08 -1.01617e-08 -4.06009e-06)
(-9.05456e-09 -1.72531e-08 -2.40599e-06)
(-4.16152e-09 -1.86765e-08 -1.29064e-06)
(-1.8379e-09 -1.28113e-08 -6.24632e-07)
(-8.09553e-10 -7.0159e-09 -2.73068e-07)
(-3.54177e-10 -3.33611e-09 -1.08157e-07)
(-1.50217e-10 -1.41157e-09 -3.92294e-08)
(-2.11279e-11 -2.23115e-11 -1.67364e-08)
(-2.5609e-11 -1.86471e-10 -1.04401e-08)
(-2.93818e-10 2.4817e-10 -7.91243e-09)
(1.22966e-11 4.80258e-10 -1.62975e-08)
(-6.3493e-11 -3.84487e-11 -7.60512e-09)
(2.22715e-09 -1.47161e-09 -8.82153e-09)
(2.24315e-10 2.2877e-09 -1.05532e-08)
(-7.4627e-11 -9.32874e-10 -1.76343e-08)
(-4.4735e-09 2.08353e-09 -1.78589e-08)
(4.17545e-09 1.42504e-09 -1.79082e-08)
(-4.3831e-09 1.30478e-09 -1.79214e-08)
(4.17115e-09 2.34019e-09 -1.80007e-08)
(-2.25758e-09 1.8114e-09 -1.61123e-08)
(5.69424e-09 -5.18143e-10 -1.00562e-08)
(-2.72344e-09 -4.84131e-09 -1.96773e-08)
(7.76579e-09 1.17232e-08 -3.53498e-08)
(1.31204e-09 -2.74152e-10 -3.74511e-08)
(-1.55961e-08 -1.92409e-08 -6.11131e-08)
(-1.5534e-08 1.52589e-08 -5.67492e-08)
(9.16362e-09 -8.49034e-09 -3.36878e-08)
(5.13942e-10 -1.6125e-09 -3.66347e-08)
(6.74732e-10 -2.52798e-09 -4.02363e-08)
(-3.46431e-10 9.3506e-10 -1.56879e-08)
(-2.38321e-11 9.2985e-10 -1.57401e-08)
(3.35065e-10 9.25042e-10 -1.55145e-08)
(8.46826e-10 6.25605e-10 -1.35274e-08)
(1.41687e-09 9.58113e-10 -1.62419e-08)
(-1.32399e-09 -7.48641e-10 -4.25911e-08)
(-9.61804e-10 -3.01569e-10 -3.92371e-08)
(1.20664e-09 1.11563e-09 -2.34313e-08)
(-7.11083e-10 -2.50605e-09 -4.01567e-08)
(-2.68621e-09 -8.95663e-09 -1.13337e-07)
(-3.98388e-09 -3.24916e-09 -1.12375e-07)
(-4.07564e-09 -2.88354e-09 -1.16788e-07)
(-1.01288e-08 -7.73014e-09 -2.94098e-07)
(-1.0727e-08 -9.95761e-09 -2.90035e-07)
(2.19972e-09 2.4157e-09 -1.87766e-07)
(1.28765e-09 1.4886e-09 -6.94516e-08)
(7.91702e-10 2.37556e-09 -6.66509e-08)
(-1.96902e-08 1.39581e-08 -5.86996e-08)
(2.09974e-08 1.22634e-08 -5.90043e-08)
(-3.68713e-08 -1.7762e-08 -9.95176e-08)
(3.65231e-08 -1.53318e-08 -9.92999e-08)
(-8.00456e-10 3.14553e-09 -6.25974e-08)
(-2.17885e-08 1.11556e-08 -5.90287e-08)
(-1.37049e-10 -1.76849e-09 -3.75542e-08)
(-5.36701e-11 -2.22013e-09 -4.02579e-08)
(-2.50033e-11 -8.6512e-09 -1.13155e-07)
(1.06092e-10 -2.33007e-08 -2.91834e-07)
(-6.54038e-09 -2.34998e-08 -2.9181e-07)
(-1.40329e-08 -5.3524e-08 -6.75951e-07)
(-2.50132e-08 -2.43456e-08 -6.74057e-07)
(-2.26253e-08 -1.78112e-08 -6.71799e-07)
(-4.51926e-08 -3.61082e-08 -1.38823e-06)
(-5.29435e-08 -5.40241e-08 -1.41319e-06)
(3.29516e-09 3.09372e-09 -1.00189e-06)
(3.33046e-09 3.38383e-09 -4.56662e-07)
(3.83528e-09 8.32987e-09 -4.42211e-07)
(-1.396e-07 9.00665e-08 -4.03172e-07)
(1.48125e-07 8.16987e-08 -4.02392e-07)
(-2.28591e-07 -1.21804e-07 -6.16928e-07)
(2.2793e-07 -1.04802e-07 -6.14132e-07)
(-4.19257e-09 1.59071e-08 -4.0891e-07)
(-1.5299e-07 7.15368e-08 -4.03514e-07)
(9.59774e-08 -4.23659e-08 -2.59702e-07)
(-1.91302e-09 7.44253e-09 -1.68077e-07)
(-6.09588e-08 2.94569e-08 -1.61568e-07)
(-2.89997e-10 -4.65648e-09 -1.05469e-07)
(5.8908e-08 3.32685e-08 -1.61283e-07)
(-9.65135e-08 -4.93461e-08 -2.60662e-07)
(2.92102e-10 7.88035e-09 -1.68144e-07)
(-5.54828e-08 3.68791e-08 -1.61287e-07)
(3.39863e-08 -2.02466e-08 -1.00021e-07)
(1.65811e-10 3.3406e-09 -6.25856e-08)
(1.03449e-11 6.15832e-10 -7.19795e-08)
(-1.39799e-09 -1.47406e-09 -6.96029e-08)
(-1.81456e-08 -1.42981e-08 -6.57812e-08)
(6.37464e-10 2.63329e-10 -3.0889e-08)
(9.97165e-09 9.07987e-09 -3.91617e-08)
(4.13352e-10 -7.65079e-10 -1.87264e-08)
(-7.37168e-09 -4.8421e-09 -2.13276e-08)
(-2.46823e-09 -9.96695e-10 -9.62237e-09)
(2.21704e-09 -5.76232e-10 -1.93529e-08)
(-6.13777e-10 -3.87088e-10 -2.39589e-08)
(-1.54466e-11 3.98661e-10 -2.46545e-08)
(-2.60034e-11 1.51956e-09 -2.21398e-08)
(3.06664e-10 1.57435e-09 -2.30113e-08)
(-5.34064e-10 1.50184e-09 -2.30398e-08)
(-9.1486e-12 -9.81568e-10 -1.7651e-08)
(-1.29202e-09 1.07544e-09 -2.40813e-08)
(-6.64984e-10 6.40398e-10 -1.3701e-08)
(1.03352e-10 3.39334e-10 -1.56985e-08)
(3.14794e-09 -6.99456e-10 -4.19318e-08)
(3.52377e-10 -5.5894e-10 -3.87876e-08)
(-1.61361e-09 1.4386e-09 -7.06707e-08)
(-1.30025e-09 2.19359e-09 -6.66371e-08)
(2.93044e-09 -9.03211e-09 -1.13263e-07)
(7.60606e-09 -2.38128e-08 -2.91719e-07)
(1.70732e-08 -5.46005e-08 -6.76858e-07)
(4.15532e-10 -5.39995e-08 -6.77584e-07)
(9.16052e-10 -1.14054e-07 -1.41752e-06)
(-2.75215e-08 -1.10789e-07 -1.41112e-06)
(-5.25993e-08 -2.17673e-07 -2.66074e-06)
(-1.07675e-07 -1.18938e-07 -2.67883e-06)
(-8.16189e-08 -6.64871e-08 -2.59238e-06)
(-1.62455e-07 -1.42435e-07 -4.35656e-06)
(-2.59459e-07 -2.98675e-07 -4.62532e-06)
(-3.24911e-08 -2.42224e-08 -3.55254e-06)
(-2.66287e-09 -2.53301e-09 -1.98567e-06)
(1.07075e-08 1.74294e-08 -1.94399e-06)
(-6.47664e-07 4.06163e-07 -1.85323e-06)
(6.88436e-07 3.63301e-07 -1.84385e-06)
(-9.42968e-07 -5.35009e-07 -2.53786e-06)
(9.39986e-07 -4.68368e-07 -2.51842e-06)
(-1.78326e-08 5.37071e-08 -1.78156e-06)
(-7.10967e-07 3.18416e-07 -1.85487e-06)
(4.88454e-07 -2.33164e-07 -1.31055e-06)
(-8.69544e-09 3.06413e-08 -8.98776e-07)
(-3.46714e-07 1.5839e-07 -9.10453e-07)
(-1.1398e-09 -2.19771e-08 -6.28204e-07)
(3.35953e-07 1.81463e-07 -9.06897e-07)
(-4.89367e-07 -2.69441e-07 -1.31787e-06)
(6.29087e-10 3.27069e-08 -8.98627e-07)
(-3.16509e-07 2.00693e-07 -9.09769e-07)
(2.11059e-07 -1.33702e-07 -6.17227e-07)
(4.77412e-10 1.68918e-08 -4.09038e-07)
(1.77894e-10 3.06935e-09 -4.59932e-07)
(5.34172e-11 1.43606e-09 -1.91047e-07)
(-3.24066e-09 -3.61949e-09 -1.84003e-07)
(-4.8302e-08 -4.00529e-08 -1.79887e-07)
(4.16731e-10 4.36208e-10 -8.7261e-08)
(2.88836e-08 2.5456e-08 -1.09384e-07)
(4.83082e-10 -6.46868e-10 -5.30469e-08)
(2.39182e-09 -6.29047e-10 -5.43703e-08)
(-3.40293e-08 -2.50948e-08 -1.07808e-07)
(5.11204e-08 4.48405e-08 -1.76062e-07)
(-8.70903e-08 -6.61958e-08 -2.78537e-07)
(-8.70916e-08 6.61978e-08 -2.78534e-07)
(1.32316e-10 1.62567e-09 -2.23043e-07)
(1.28552e-07 -1.10192e-07 -4.33333e-07)
(3.59642e-09 2.83355e-09 -3.50824e-07)
(-2.0488e-07 1.58091e-07 -6.5528e-07)
(1.46251e-10 1.41035e-09 -5.13382e-07)
(2.91006e-07 -2.45809e-07 -9.69224e-07)
(2.97551e-09 5.52646e-09 -7.68717e-07)
(-4.34904e-07 3.40417e-07 -1.39513e-06)
(5.41135e-10 -2.76525e-09 -1.06862e-06)
(5.95005e-07 -4.94173e-07 -1.95844e-06)
(-6.48593e-09 8.17798e-09 -1.51894e-06)
(-8.19998e-07 6.5979e-07 -2.68123e-06)
(6.24809e-09 -2.58523e-08 -2.00684e-06)
(1.10597e-06 -8.89248e-07 -3.55935e-06)
(-5.9475e-08 2.68147e-09 -2.70015e-06)
(-1.33714e-06 1.15023e-06 -4.65676e-06)
(4.60035e-08 -1.36873e-07 -3.39326e-06)
(1.92324e-06 -1.39129e-06 -5.71087e-06)
(-3.23018e-07 -1.19492e-07 -4.35561e-06)
(-1.67546e-06 1.71626e-06 -7.41594e-06)
(-2.28657e-07 -3.50426e-11 -6.20548e-06)
(-1.67542e-06 -1.71627e-06 -7.41593e-06)
(4.49936e-07 8.87701e-07 -5.14369e-06)
(2.68416e-06 1.82427e-06 -7.21367e-06)
(-9.12691e-08 2.74285e-07 -4.48408e-06)
(-1.57307e-06 -1.48593e-06 -6.18692e-06)
(-5.91834e-08 -1.59049e-08 -3.40824e-06)
(1.37989e-06 1.09315e-06 -4.79944e-06)
(-2.42677e-08 8.27909e-08 -2.67868e-06)
(-9.95208e-07 -8.85023e-07 -3.70114e-06)
(-2.66676e-08 -2.31092e-09 -2.02393e-06)
(7.57246e-07 6.33152e-07 -2.77605e-06)
(-1.04279e-08 2.525e-08 -1.5e-06)
(-5.48913e-07 -4.76407e-07 -2.02655e-06)
(-1.01249e-08 -2.67149e-10 -1.07663e-06)
(3.87714e-07 3.29744e-07 -1.43938e-06)
(-2.76549e-09 7.29398e-09 -7.56798e-07)
(-2.70581e-07 -2.31708e-07 -1.00055e-06)
(-3.29584e-09 4.26112e-10 -5.16065e-07)
(1.80364e-07 1.54768e-07 -6.73445e-07)
(-1.1603e-10 1.72747e-09 -3.44636e-07)
(-1.19989e-07 -1.01513e-07 -4.45943e-07)
(-5.50629e-10 5.52321e-10 -2.23234e-07)
(7.58838e-08 6.57534e-08 -2.84862e-07)
(5.25467e-10 -9.31254e-11 -1.41895e-07)
(2.94309e-09 -1.30419e-09 -1.44795e-07)
(-5.60342e-09 -5.96174e-09 -1.94135e-07)
(-2.65381e-09 -2.34987e-09 -7.54921e-08)
(-1.15188e-09 -6.44379e-10 -2.83682e-08)
(1.35485e-09 6.91863e-10 -1.31641e-08)
(-1.27608e-11 -5.68367e-13 -1.12902e-08)
(-1.94829e-09 -9.14181e-14 -1.85179e-08)
(-5.34279e-09 -3.39864e-12 -4.59129e-08)
(-1.23141e-08 1.44147e-13 -1.19205e-07)
(-2.66968e-08 4.78763e-12 -2.93655e-07)
(-5.30677e-08 1.59169e-11 -6.64374e-07)
(-9.06925e-08 4.428e-11 -1.3632e-06)
(-1.16065e-07 2.12283e-10 -2.52192e-06)
(-6.5199e-08 5.52708e-11 -4.18e-06)
(6.72224e-08 -3.15562e-11 -5.98675e-06)
(-1.76055e-07 -1.12464e-10 -7.40899e-06)
(-1.26609e-06 5.93107e-07 -7.16224e-06)
(-1.2661e-06 -5.93194e-07 -7.16223e-06)
(-1.2973e-06 -8.20929e-07 -6.4484e-06)
(-1.08347e-06 -8.21991e-07 -7.77065e-06)
(-3.38975e-07 -1.93172e-07 -5.68367e-06)
(-1.43955e-07 -4.45803e-07 -4.55946e-06)
(-5.95474e-07 -1.39049e-06 -7.41642e-06)
(8.93148e-07 3.7556e-06 -5.28156e-06)
(1.33152e-06 -2.47008e-07 -5.9188e-06)
(3.45866e-08 8.00459e-08 -5.18614e-06)
(1.62058e-08 -7.34892e-10 -5.29792e-06)
(6.80272e-08 -4.10566e-08 -5.16184e-06)
(-3.22966e-07 1.19488e-07 -4.35558e-06)
(1.92312e-06 1.39136e-06 -5.71078e-06)
(4.60493e-08 1.36783e-07 -3.3932e-06)
(-1.33713e-06 -1.15019e-06 -4.65675e-06)
(-1.39615e-07 -1.38114e-11 -3.97171e-06)
(-7.96344e-08 -1.33246e-11 -4.12246e-06)
(-6.36752e-08 -1.33119e-11 -2.43831e-06)
(6.30509e-09 2.58336e-08 -2.00679e-06)
(-8.19982e-07 -6.59783e-07 -2.68123e-06)
(1.10592e-06 8.89249e-07 -3.55924e-06)
(-5.94767e-08 -2.69067e-09 -2.70018e-06)
(-1.16285e-08 -3.14283e-08 -3.33091e-06)
(-1.73906e-08 -2.35153e-08 -1.88305e-06)
(-6.50173e-09 -8.19645e-09 -1.51893e-06)
(5.94918e-07 4.94179e-07 -1.95838e-06)
(5.64032e-10 2.74931e-09 -1.0686e-06)
(-4.34869e-07 -3.40422e-07 -1.39515e-06)
(-2.01622e-08 5.27791e-12 -1.2477e-06)
(-4.17843e-08 -8.73409e-14 -1.30877e-06)
(-2.35811e-08 -2.19222e-12 -6.34519e-07)
(-1.15034e-08 -2.33216e-12 -2.78283e-07)
(1.3847e-10 -1.63449e-09 -2.23038e-07)
(1.28547e-07 1.10193e-07 -4.33314e-07)
(-2.04878e-07 -1.58088e-07 -6.55292e-07)
(2.90993e-07 2.45823e-07 -9.69194e-07)
(2.97871e-09 -5.52106e-09 -7.68693e-07)
(-1.22507e-08 -1.4673e-08 -9.59796e-07)
(-6.78848e-09 -7.80838e-09 -4.41749e-07)
(6.89675e-10 -1.99484e-12 -2.90304e-07)
(2.77067e-10 -8.36482e-13 -1.15104e-07)
(1.10735e-10 -3.28744e-14 -4.2065e-08)
(-1.69986e-09 -2.01272e-13 -4.07483e-08)
(-1.7143e-10 -1.27535e-09 -3.21007e-08)
(1.82249e-08 1.67981e-08 -6.61036e-08)
(7.76662e-10 -2.85814e-13 -3.85562e-08)
(1.82264e-08 -1.6799e-08 -6.61041e-08)
(2.38991e-09 6.29108e-10 -5.43707e-08)
(-3.40282e-08 2.50957e-08 -1.07808e-07)
(1.21254e-11 1.35743e-09 -8.80909e-08)
(5.11274e-08 -4.48433e-08 -1.76072e-07)
(2.94529e-09 1.30284e-09 -1.44798e-07)
(-3.24047e-09 3.61755e-09 -1.84004e-07)
(-4.82667e-09 1.62432e-13 -1.10879e-07)
(1.30218e-11 -1.36113e-09 -8.80871e-08)
(-1.46605e-10 1.83744e-13 -1.03772e-07)
(-1.39769e-09 1.47347e-09 -6.96031e-08)
(-6.13589e-10 3.86938e-10 -2.39593e-08)
(-7.37216e-09 4.84244e-09 -2.13281e-08)
(4.13446e-10 7.64431e-10 -1.87272e-08)
(9.97139e-09 -9.08001e-09 -3.91633e-08)
(2.21669e-09 5.76127e-10 -1.93539e-08)
(5.58709e-09 -5.9141e-09 -2.47379e-08)
(-7.73883e-10 1.65725e-09 -1.13248e-08)
(-5.72173e-09 3.14553e-09 -1.20314e-08)
(7.70225e-10 1.58036e-13 -1.51289e-08)
(1.69291e-09 -1.95753e-09 -8.93295e-09)
(2.3863e-09 6.62556e-10 -7.07448e-09)
(1.16175e-09 -2.519e-09 -8.63427e-09)
(3.04983e-09 -6.65991e-10 -9.22046e-09)
(1.43948e-09 -1.06226e-09 -1.3589e-08)
(5.99372e-10 -6.75135e-11 -9.45788e-09)
(-7.96912e-10 -4.7626e-10 -8.15737e-09)
(5.25568e-10 -3.02176e-10 -9.52638e-09)
(-1.86878e-10 1.8302e-10 -8.008e-09)
(-1.96146e-10 5.41017e-10 -8.04194e-09)
(8.71527e-10 -7.84769e-10 -8.66728e-09)
(-1.92214e-10 2.5527e-10 -7.38951e-09)
(1.29605e-10 -8.13854e-10 -9.04338e-09)
(-8.69275e-12 5.43628e-10 -8.16614e-09)
(-1.04259e-11 1.08778e-13 -8.35943e-09)
(-8.6382e-12 -5.43768e-10 -8.16633e-09)
(-1.06037e-11 -2.8255e-10 -7.4257e-09)
(-8.86697e-13 1.56318e-09 -1.168e-08)
(1.29671e-10 8.13751e-10 -9.04352e-09)
(-1.72049e-11 1.43845e-10 -9.61108e-09)
(5.25633e-10 3.02386e-10 -9.52666e-09)
(-2.56554e-10 -2.73358e-10 -8.04023e-09)
(-7.9721e-10 4.76704e-10 -8.15762e-09)
(5.9912e-10 6.74761e-11 -9.45755e-09)
(-2.96067e-11 1.46586e-10 -9.68077e-09)
(2.31001e-10 -5.18452e-10 -8.10562e-09)
(2.00245e-10 -2.41571e-10 -7.49554e-09)
(-1.63589e-10 8.16829e-10 -9.13068e-09)
(-8.94e-10 7.75038e-10 -8.83884e-09)
(2.24066e-10 -1.42036e-10 -8.18288e-09)
(-5.41828e-10 2.29228e-10 -9.35058e-09)
(9.33149e-10 1.3494e-09 -8.01038e-09)
(2.89377e-09 -1.58807e-09 -1.03328e-08)
(-2.09775e-09 2.02106e-09 -1.05364e-08)
(4.42886e-10 6.47376e-11 -1.63757e-08)
(2.10343e-10 7.0023e-14 -8.23097e-09)
(1.18423e-10 2.89147e-13 -1.09724e-08)
(2.09196e-10 9.88904e-14 -1.7564e-08)
(-6.16243e-11 -4.11854e-14 -1.78796e-08)
(-4.30414e-11 1.9131e-13 -1.11592e-08)
(-1.7704e-10 -2.33293e-13 -4.21875e-08)
(-4.16201e-10 -1.27058e-13 -1.15244e-07)
(-9.295e-10 -3.09851e-14 -2.90555e-07)
(-2.05685e-09 -2.02428e-12 -6.64179e-07)
(1.61742e-09 -1.07646e-12 -6.63858e-07)
(3.84244e-09 4.94484e-12 -1.37173e-06)
(9.9168e-09 5.40912e-12 -2.55714e-06)
(2.41983e-08 -9.77337e-12 -4.31658e-06)
(-1.22177e-07 -1.63975e-11 -7.59041e-06)
(-4.21017e-07 -1.07797e-12 -7.0549e-06)
(1.55289e-06 -5.59675e-11 -1.13164e-05)
(-2.65226e-07 -1.0757e-06 -6.60898e-06)