/*--------------------------------*- C++ -*----------------------------------*\
| =========                 |                                                 |
| \\      /  F ield         | OpenFOAM: The Open Source CFD Toolbox           |
|  \\    /   O peration     | Version:  2306                                  |
|   \\  /    A nd           | Website:  www.openfoam.com                      |
|    \\/     M anipulation  |                                                 |
\*---------------------------------------------------------------------------*/
FoamFile
{
    version     2.0;
    format      ascii;
    arch        "LSB;label=32;scalar=64";
    class       volScalarField;
    location    "0.8";
    object      gradTy;
}
// * * * * * * * * * * * * * * * * * * * * * * * * * * * * * * * * * * * * * //

dimensions      [0 -1 0 1 0 0 0];

internalField   nonuniform List<scalar> 
2658
(
0.00809473
0.00476874
0.00144174
-5.21524e-05
-0.0134215
0.0163204
-0.0123939
0.0104639
4.35528e-05
-0.0116367
0.00338469
-0.0314187
0.0201231
0.020422
0.0167417
0.0170925
0.0185674
0.0168527
0.0171269
0.0201729
0.0195272
0.0172568
0.00582454
-0.00347152
0.00594824
0.0185368
-0.00389656
0.0011908
0.0151148
-8.00813e-07
-0.0151151
0.00389662
-0.0185378
-0.00582445
-0.00594807
0.00347196
-0.000467144
0.00161897
-0.0172619
-0.0195284
-0.0201743
-0.0171276
-0.0168515
0.00811024
-0.000587681
-1.66527e-05
-0.00338494
0.00845381
-0.0170955
-0.0167418
-0.0204205
-0.0201232
-0.0181065
0.00362717
-0.00678029
-0.00601833
0.000463767
-0.00905892
-1.50607e-07
7.90531e-06
-0.000463557
0.00601807
0.00678082
-0.0036276
0.00327624
-0.00905963
-0.0118369
-0.000636025
-0.0180925
0.0180926
1.58732e-07
0.0135839
-0.000223328
0.00982887
4.41931e-05
-0.00751196
-0.00739839
0.000423024
0.00616635
0.00400382
-0.00498058
-0.000748411
0.00721312
0.0109377
-0.000146081
-6.45707e-05
4.0587e-05
4.84222e-05
3.12258e-05
1.63683e-05
7.54362e-06
-4.61342e-06
1.96529e-06
1.32271e-05
-4.5892e-06
-1.93606e-05
-1.28243e-06
-1.33614e-05
-1.57344e-06
-4.19944e-06
-1.4325e-05
-3.18153e-06
-1.75542e-05
-6.41594e-06
-5.94549e-06
1.38051e-05
-4.82099e-06
-1.79983e-06
2.33508e-06
-1.35969e-05
4.45716e-06
-5.82203e-06
9.01816e-11
5.82291e-06
-4.45886e-06
1.35972e-05
5.9447e-06
-1.3809e-05
1.75514e-05
6.41356e-06
3.1745e-06
1.43247e-05
4.19869e-06
1.57154e-06
-1.10957e-05
-1.06144e-05
-1.323e-05
1.9364e-05
1.28573e-06
4.59104e-06
1.42526e-05
2.874e-06
6.60209e-06
6.93508e-06
1.30444e-05
-6.50743e-06
1.35718e-06
1.88159e-06
-1.70866e-05
1.70932e-05
-1.35646e-06
6.50934e-06
-3.42024e-06
-3.46722e-06
-3.23612e-08
3.45795e-06
7.9544e-09
1.06473e-08
-7.28238e-06
7.17408e-06
2.2206e-08
6.30091e-07
4.33409e-06
-5.04629e-06
1.88205e-05
4.05981e-06
1.7928e-05
2.15961e-05
2.32774e-05
1.76165e-05
1.77661e-05
2.147e-05
1.78979e-05
1.76188e-05
2.35421e-05
2.17075e-05
1.84686e-05
5.69046e-06
1.45385e-06
1.1026e-05
-6.2448e-05
0.000118926
-0.000187066
0.000320099
-0.000509184
0.000788248
-0.00124019
0.00175993
-0.00271404
0.00354607
-0.00536223
0.00644243
-0.00965541
0.0105222
0.0104097
0.00875704
0.00833069
0.0116371
0.013421
5.20014e-05
-0.0163208
0.011837
0.00905891
-0.00327634
0.0314183
-0.00404464
0.000145861
6.4423e-05
-4.06204e-05
-4.84731e-05
-3.1263e-05
-1.63643e-05
-7.5439e-06
4.61404e-06
-1.96481e-06
-4.15906e-07
-6.69306e-06
4.20846e-06
-8.26294e-06
8.26213e-06
6.69516e-06
4.13909e-07
-4.2115e-06
-2.04886e-06
1.06141e-05
1.10941e-05
-1.9554e-05
1.25743e-05
2.60982e-06
3.27899e-07
-2.12406e-06
1.5932e-06
1.8989e-07
1.0896e-06
-7.01535e-11
-1.09159e-06
-2.61555e-06
4.81955e-06
-1.06153e-05
1.80326e-06
-1.11366e-05
1.11425e-05
1.06182e-05
1.78866e-09
-7.26682e-06
-8.31594e-06
8.32039e-06
-4.1064e-06
7.2722e-06
-1.22808e-06
1.17378e-09
-4.62522e-06
-2.18185e-06
6.70419e-06
-1.56511e-06
1.27556e-09
1.02538e-09
-4.59315e-10
-1.41618e-05
9.07866e-06
2.15316e-05
-5.65832e-06
1.6732e-05
-2.6885e-05
5.05475e-05
-7.39403e-05
7.39346e-05
1.08932e-05
0.000122226
5.52869e-06
-0.00021758
0.000342382
8.09477e-07
-0.000561973
0.000867708
-1.48597e-05
-0.00132275
0.00198051
-6.26706e-05
-0.00281801
0.00407233
-0.000216215
-0.00541095
0.00756469
-0.000708154
-0.00934351
0.0127009
-0.00234537
-0.0155914
-0.00758855
-0.0173496
0.0173497
-0.00119028
-0.00515986
0.00919344
0.00819413
-1.70296e-07
-0.00570712
0.00570703
0.00603351
-1.14606e-07
-0.00722461
0.00722454
0.00298705
-9.37364e-08
-0.0192443
0.0192439
-0.0125269
1.28843e-07
0.0125264
-0.00980528
0.00621656
0.0143293
0.0101824
0.0122853
-0.019042
0.0131194
0.00165418
0.00110694
8.58991e-05
-0.00298721
-0.00109184
-0.00325254
-0.0109003
0.0063668
0.017519
0.00760025
0.0082088
-0.00439255
7.51622e-08
0.0043928
0.00325257
-0.0131195
0.0190417
-0.0143305
-0.00621735
0.00980497
-0.00165468
-0.00110705
-0.00820801
-0.00760081
-0.0175188
-0.00636712
0.0109001
-0.0102376
-0.00446821
-0.0161823
-0.00400624
0.0102356
0.00249043
-0.00222455
0.0110982
-0.00237787
-0.00296775
-0.000281557
-0.000276741
-0.000237399
-0.000150334
-7.93472e-05
-3.6999e-05
-1.58201e-05
-1.34383e-05
-5.72035e-05
-4.84702e-05
-4.30009e-05
-6.90564e-05
0.000136575
-0.000211129
0.000369743
-0.000575451
0.00091102
-0.00140717
0.0020322
-0.00310108
0.004088
-0.00616636
0.00739878
-0.0109379
-4.403e-05
-0.0104636
0.0123948
-0.0135842
0.0110205
-5.90836e-08
-0.0110205
0.00798509
-0.00722685
0.0058592
-0.00403668
0.005326
8.7633e-05
0.00295802
0.00031603
-0.00408766
-0.000459027
-0.00272143
-0.00310484
0.000329511
0.00230309
0.00251737
-0.00347152
-0.000491976
0.00457298
0.000412364
-0.0055744
0.00802294
-5.44192e-05
-0.00833062
-0.000592375
1.66943e-05
-0.00845397
0.0102372
-0.0110986
0.00222423
0.000668467
-0.000230336
-9.15299e-08
-8.68521e-05
-0.000147462
-0.000159628
-0.000109498
-5.99649e-05
-2.85138e-05
-1.20647e-05
-1.90696e-07
-1.59377e-06
2.12111e-06
4.10477e-06
-3.28621e-07
-1.25779e-05
1.9553e-05
-7.97328e-06
1.7808e-05
1.21798e-05
1.1152e-05
2.00017e-05
1.5482e-05
-4.42857e-06
-4.13787e-05
0.000100198
-2.34318e-06
-0.000164452
0.000130418
-7.2567e-05
-1.37821e-05
-2.16067e-05
7.99197e-06
7.94743e-06
7.90634e-06
5.34705e-06
8.189e-06
-6.39864e-06
-2.57751e-06
9.53526e-06
-2.14192e-05
-7.65524e-05
-2.77706e-05
-2.46456e-05
-6.60696e-05
-8.51078e-05
2.0647e-05
1.27231e-05
2.03039e-05
0.0001193
0.000104816
-0.000151812
-0.000131041
2.68849e-05
9.53473e-05
-1.51153e-05
-1.89755e-05
-7.39419e-05
-0.000199151
-0.000200853
-0.00045747
-0.000208082
-0.000152232
-0.000308617
-0.000461744
2.6442e-05
2.89216e-05
7.11954e-05
0.000769799
0.00069828
-0.00104106
-0.000895745
0.000135958
0.000611425
-0.000362102
6.36113e-05
0.000251768
-3.97989e-05
0.000284347
-0.000421762
6.73534e-05
0.000315206
-0.000173048
2.85521e-05
5.26352e-06
-1.25988e-05
-0.000122206
2.25067e-06
7.76057e-05
-6.53914e-06
-4.13855e-05
-8.51876e-06
-4.92506e-06
-3.30845e-06
3.40736e-06
1.29877e-05
1.3456e-05
1.28363e-05
-8.38947e-06
9.19182e-06
5.47348e-06
2.90029e-06
-5.97826e-06
-4.77726e-06
1.22957e-05
1.87487e-05
-7.71975e-05
-0.000203528
-0.000466671
-0.000461534
-0.000974822
-0.000946912
-0.00186046
-0.00101657
-0.000568266
-0.00121739
-0.00255277
-0.000207029
-2.16496e-05
0.000148969
0.00347148
0.00310514
-0.00457273
-0.00400315
0.000459035
0.0027215
-0.00199285
0.000261892
0.00135376
-0.000187838
0.00155096
-0.00230291
0.000279546
0.00171533
-0.00114275
0.000144374
2.62337e-05
1.2274e-05
-3.09358e-05
-0.000342332
3.72827e-06
0.000217572
-5.52878e-06
-5.37647e-06
-0.000214486
0.000383252
-0.000565776
0.000565793
1.38946e-05
-0.000941814
2.42184e-05
0.0013512
1.20543e-05
-0.00210094
4.72347e-05
0.00290955
-2.36346e-05
-0.0042237
6.98972e-05
0.00563923
-0.00022096
-0.00760041
2.29185e-05
0.00983102
-0.00116985
-0.0118914
-0.0010213
0.0146689
-2.9951e-07
-0.0146689
0.00758719
0.0155921
0.00234432
-0.0127003
-0.000135939
0.00934315
0.000707615
-0.0075643
-1.97514e-05
0.00541156
0.000215812
-0.00407186
-2.28332e-06
0.00281833
6.23418e-05
-0.00198041
3.64198e-06
0.00132281
1.47647e-05
-0.000867635
4.72069e-06
0.000561995
-7.95944e-07
-1.11469e-05
-5.0955e-05
-2.00844e-05
-5.50751e-06
5.91336e-06
-4.85784e-09
-7.81351e-10
-2.90482e-08
1.23203e-09
4.09199e-08
1.36042e-07
3.78461e-07
1.81438e-06
4.724e-07
-2.69711e-07
-9.61226e-07
0.00506929
-0.00507004
-0.00701649
-0.00702556
-0.00165104
-0.00381028
-0.0118845
0.0320991
-0.00211118
0.000684153
-6.28112e-06
-0.000350911
0.00102126
0.011892
0.00116908
-0.00983066
-1.18046e-07
-1.13885e-07
-1.13777e-07
0.0002208
-0.00563917
0.00760042
-2.29972e-05
-0.000268618
-0.000200985
-7.00551e-05
0.00422375
2.34984e-05
-0.00290959
4.51103e-08
-7.46504e-10
-1.87369e-08
-1.9933e-08
-1.397e-05
0.000941817
-0.00135118
0.00210105
-4.71885e-05
-0.00012541
-6.67383e-05
-1.70499e-08
-7.14942e-09
-2.80978e-10
-1.72027e-09
-1.09004e-05
0.000143574
-2.44285e-09
-0.000143581
5.377e-06
0.000214493
1.1602e-05
-0.000383276
1.11354e-05
3.09192e-05
1.38831e-09
-1.16336e-05
1.57046e-09
1.25938e-05
3.30716e-06
4.13884e-05
6.5336e-06
-7.76069e-05
4.92417e-06
-5.05479e-05
1.41645e-05
2.68849e-05
1.35074e-09
-1.6731e-05
5.66287e-06
-2.15299e-05
-5.69223e-06
-9.07914e-06
-5.77039e-07
-4.0706e-06
-2.5827e-06
1.56427e-06
4.62407e-06
-6.70743e-06
2.1818e-06
-6.95602e-06
4.6464e-06
9.29724e-10
-4.64759e-06
-2.41496e-06
1.33605e-05
6.95514e-06
1.22944e-06
2.5845e-06
-2.3364e-06
4.07439e-06
5.76718e-07
1.25287e-06
-4.43121e-06
-2.06471e-06
6.98144e-06
6.62426e-06
-1.21398e-06
1.95921e-06
1.15333e-05
-1.35732e-05
1.7274e-05
5.53313e-07
5.98487e-10
2.47135e-09
8.45217e-10
-3.52012e-10
1.63513e-09
-1.99396e-09
-1.08597e-09
-2.6483e-10
-1.73015e-08
-9.20048e-09
4.22636e-08
4.62318e-08
-8.3533e-08
-1.40149e-07
-9.21343e-09
-4.78355e-07
-0.00919401
0.00516006
-0.00448379
0.00741916
-0.00741947
0.00448347
-0.0146834
0.00151884
-0.0058841
0.0131623
0.00335136
-0.000263116
0.01223
-0.0102251
-0.00685849
-0.0173769
-0.00585645
-0.0085513
-0.0115278
-0.00691523
0.000791949
0.00618626
0.00192335
-1.6995e-06
2.2173e-07
-0.00192257
0.014683
0.0058839
-0.00151925
0.00436291
-0.00335162
-0.0122305
0.000262741
0.00136715
-0.00249067
-0.0102358
0.00400537
0.0161813
0.00446803
0.00724056
-0.00604188
-0.00618774
8.28638e-07
-0.00209167
-0.0043631
0.000446036
-0.000347414
-0.00703659
0.00604173
0.00132625
-0.00724067
-3.05784e-05
-8.61111e-05
0.00109158
-0.000668519
0.00023018
0.000592269
-0.00135065
-0.00405973
-0.00195579
0.000145402
0.0063911
0.00557529
-0.00802304
-0.00721238
0.000748512
0.00498056
-0.00041246
8.09958e-05
-0.00195764
-0.000979783
0.000116221
9.72859e-05
6.26533e-05
3.56041e-05
3.95226e-05
-0.000468428
-7.93804e-05
1.81042e-05
0.000356318
-1.29375e-05
-0.000456462
0.00073978
-3.13448e-05
-0.00114459
0.000882418
-0.000556067
-8.37283e-05
-0.00134942
-6.07492e-05
-0.00259689
0.00198183
-0.000174606
-0.0029578
-8.76918e-05
-0.00532592
0.00403639
-0.000316117
-0.00585902
-4.38152e-05
-0.00982932
0.00751133
-0.000423568
-0.000525009
-0.00399176
-0.0121337
-0.0121413
-0.0185726
-0.00131107
0.0291959
-0.00245947
-0.00272568
-0.00144162
-0.000613961
-0.000311444
-0.000151408
-6.72322e-05
-2.55062e-05
-2.86122e-05
2.0403e-05
9.58524e-06
0.00051164
1.72112e-08
-0.000511685
0.000815833
9.26848e-10
-0.00128148
0.00128144
-0.000815834
-1.1926e-08
-6.00776e-09
-1.63654e-10
3.78051e-06
1.22968e-05
1.55998e-07
4.02074e-05
1.14025e-08
-4.02149e-05
0.000106999
7.54905e-09
-0.000184244
0.000184224
-0.000106987
3.76177e-06
9.27057e-06
-7.84314e-06
7.84619e-06
-3.51388e-06
-1.55743e-06
-9.27538e-06
4.13832e-05
4.43573e-06
-1.54878e-05
7.25901e-05
2.34615e-06
-0.000130443
0.000164457
-0.000100191
-1.5904e-07
-3.78047e-06
-3.40837e-06
1.5818e-05
-2.24249e-06
6.24538e-05
1.34472e-05
-0.000119294
-2.8546e-05
0.000151822
3.98006e-05
-0.000251755
-6.36188e-05
0.000362254
0.000575439
8.3768e-05
-0.000882476
0.00114449
3.13883e-05
0.00055619
-0.000356366
0.000456469
1.29391e-05
0.000207094
3.66162e-05
-0.000369706
0.000211136
0.000131088
-9.53597e-05
-2.68807e-05
-0.000136557
1.37783e-05
6.90556e-05
4.30107e-05
1.51124e-05
-0.00010481
4.84735e-05
5.72131e-05
-1.78099e-05
-1.29842e-05
-1.2175e-05
4.89543e-05
-1.11527e-05
-1.22967e-05
-1.99972e-05
4.94295e-05
-1.76168e-05
-1.77681e-05
8.39429e-06
-1.28357e-05
-1.34562e-05
-9.53341e-06
-8.18957e-06
-5.91385e-06
5.5046e-06
2.00982e-05
6.40386e-06
2.46839e-05
5.09332e-05
0.000113203
6.61525e-05
0.000152369
0.000218866
-0.000219083
-0.000113218
-2.4226e-05
-0.0003499
0.000349463
0.000308738
0.000568567
0.000423443
-0.000424213
-0.000495953
0.000496471
0.00121913
0.00701759
0.00702676
0.00165419
-0.010522
-0.000101307
-0.0104095
-0.000684284
0.000587525
-0.0291962
0.00237767
0.00296748
0.000281181
0.000276509
0.000237183
0.00015026
7.93073e-05
3.69934e-05
-3.71708e-06
0.000187096
3.54511e-05
-0.000315199
-6.73752e-05
0.000421771
9.13666e-05
-0.000611396
-0.00013582
0.000896044
0.00140725
0.000174523
-0.00198203
0.00259682
6.08032e-05
0.00134961
-0.00175015
-2.2454e-05
0.00193472
-1.69263e-08
-0.00290426
0.00290418
-0.00193476
2.24113e-05
0.00175029
4.37808e-05
2.53395e-08
2.98292e-08
8.17051e-09
2.06695e-08
-3.76928e-06
-2.91003e-06
-1.88442e-05
5.08959e-06
2.53856e-06
-1.30501e-05
-6.94004e-06
-6.60571e-06
-1.7278e-05
-2.87158e-06
-1.42502e-05
-2.32677e-05
-2.15914e-05
-5.62743e-07
-1.79335e-05
-4.06125e-06
-5.4714e-06
-7.9848e-06
-7.94513e-06
-7.90283e-06
-2.3539e-05
-1.76191e-05
7.97209e-06
-1.7898e-05
-2.14805e-05
4.98989e-05
-1.10289e-05
8.51934e-06
-1.45993e-06
-2.1709e-05
-1.84763e-05
-5.33513e-06
2.14347e-05
2.55793e-06
-1.2697e-05
-0.000118913
-2.02932e-05
0.000173094
7.65637e-05
2.80502e-05
-2.05602e-05
-0.000320076
0.000509282
7.94315e-05
-0.000769755
-0.000144353
0.00114295
0.00104108
0.000187818
-0.00135389
-0.00026192
0.00199335
0.00310096
-0.00203198
-9.72128e-05
-0.000114081
-0.0017151
-0.000279364
-0.00155077
0.000109452
5.99315e-05
2.84978e-05
1.20625e-05
-5.26566e-06
-1.22771e-05
-2.62363e-05
6.67125e-05
0.000125344
-5.18866e-05
5.18063e-05
9.45524e-05
0.0004918
-0.0050257
-0.0003208
0.000154496
0.000794885
-0.00912272
0.000100926
0.000225769
0.000128154
7.05147e-05
3.57418e-05
1.65878e-05
7.00103e-06
3.51695e-06
0.000283585
-0.000311164
0.000311185
-0.000283558
-3.53343e-06
-6.99896e-06
-1.65956e-05
-9.60496e-06
-0.000739747
-2.04232e-05
-8.64925e-06
6.00603e-06
2.55434e-05
6.72739e-05
-4.37725e-05
-2.09928e-05
-1.80563e-05
-3.55971e-05
-3.94946e-05
0.000468501
0.000200966
8.59078e-05
-2.86688e-05
-0.000788175
0.00124037
0.000159499
-0.00175985
0.00271442
0.000271708
-0.00354575
0.0053624
0.000320571
-0.00639155
-0.000795306
0.00912314
0.00965586
0.000135892
-0.00644201
1.99181e-05
0.000207372
2.26459e-05
-2.59125e-05
0.000209551
0.000457683
0.000947377
0.000465201
0.00186049
0.00102381
0.00381087
0.00254902
0.0118842
-0.0320989
0.000466796
-0.00161742
0.0115271
0.00585584
0.0173771
0.00685849
0.0102249
-0.00811013
0.00211159
0.00131069
-0.00875675
8.65941e-05
0.000147293
0.000159519
-6.81482e-08
-9.54505e-08
-0.000154609
0.000268499
0.000200858
-9.45875e-05
-0.000128309
-2.55634e-08
-2.28459e-08
-7.05436e-05
-3.57817e-05
-4.76498e-05
-0.00374552
0.00414541
-2.75436e-08
-0.00595721
0.00595707
-0.00414552
4.76379e-05
0.00374579
8.42395e-05
1.3668e-06
-0.000203963
2.10738e-05
-8.36601e-05
-0.000112997
-0.000464648
0.000145633
0.0072269
-0.00798491
9.93229e-05
-7.7028e-08
-4.73807e-08
-6.08812e-08
-1.10376e-07
-0.006034
0.00100412
6.08134e-06
0.000350554
-0.000445925
-0.00819512
0.0020917
0.00034685
0.00703612
0.00691451
-0.0131618
0.00855064
-0.000792221
-0.00132705
-3.13371e-07
0.00404444
0.00905877
-0.000244124
6.47581e-07
0.000239798
0.000223331
0.000244301
-0.00476903
-0.0080955
-0.0078574
2.11842e-08
-8.08728e-06
7.39293e-07
0.000635868
4.85961e-07
9.04372e-08
9.30037e-09
-8.42595e-05
0.000151569
0.000311538
-0.00014571
-9.9563e-05
0.000113098
-1.26306e-06
0.000466881
0.000203583
7.72535e-05
2.16142e-05
1.89883e-05
7.39672e-05
0.000199207
-7.11058e-05
-0.000698222
0.00046162
0.000975026
-0.000148679
0.00502642
-0.000144601
-8.07347e-05
-0.000115855
0.00098028
0.00195875
0.00195642
0.00406082
0.0121411
0.00135054
0.00399155
0.0121332
0.00245874
0.000524998
-0.000240182
0.000613655
0.00107847
0.00272607
0.000465687
-6.26503e-05
-0.000910838
-1.87461e-05
-1.22928e-05
-9.19646e-06
4.79331e-06
2.86558e-05
8.39737e-05
0.000204085
-0.000225845
-0.00107705
2.39037e-06
-3.61728e-06
-4.69953e-06
-0.000284321
8.64242e-06
-0.000207042
-3.66161e-05
2.06341e-06
4.43108e-06
-1.25306e-06
-1.95882e-06
-1.37568e-09
1.21503e-06
-6.624e-06
-6.98182e-06
2.41617e-06
1.35748e-05
-1.15353e-05
-1.88823e-06
-4.33546e-06
3.50452e-06
1.55897e-06
3.43119e-06
-2.52767e-06
0.000114248
-0.00251666
-0.000271819
5.43929e-05
-0.00136745
-0.00100439
3.0705e-05
2.04685e-06
-6.26783e-10
-1.22327e-05
6.2046e-09
1.43718e-08
5.60358e-08
-0.000159524
-0.000329367
-3.54416e-05
-9.13574e-05
-4.98972e-05
-4.89505e-05
-4.94239e-05
-0.0122849
-0.0101825
0.00187641
-2.8258e-07
-0.00187651
0.0181071
0.00785656
-5.48085e-06
-2.89945e-06
5.9872e-06
2.33645e-06
7.25563e-05
-0.000100195
0.000164445
-0.000130426
1.37808e-05
6.90422e-05
-2.00055e-05
4.94139e-05
-2.15976e-05
-2.32864e-05
-1.76237e-05
-1.77719e-05
-2.14774e-05
-1.79022e-05
-1.76238e-05
-2.35485e-05
-2.17127e-05
-1.84867e-05
-5.69798e-06
8.51654e-06
-9.08358e-06
-2.15336e-05
5.65437e-06
-5.75264e-07
-1.67316e-05
1.45795e-10
1.67299e-05
-5.65911e-06
2.15316e-05
5.69652e-06
9.08259e-06
-8.51742e-06
1.10295e-05
1.46419e-06
1.84988e-05
2.17152e-05
2.35458e-05
1.76241e-05
1.79045e-05
-7.96521e-06
1.21815e-05
1.11544e-05
2.00003e-05
-8.38655e-06
1.77773e-05
1.76228e-05
2.32825e-05
2.15992e-05
1.79491e-05
5.71278e-07
4.07101e-06
1.56263e-06
9.28005e-06
4.02208e-05
-8.90759e-09
7.84071e-06
-9.27341e-06
-1.56229e-06
-4.06733e-06
-5.63005e-07
-1.54903e-05
4.42373e-06
4.13704e-05
-1.57187e-07
0.000106984
-0.000106994
-1.30513e-08
-0.000184226
-3.5227e-06
-0.000283549
1.29326e-05
0.000207041
0.000211098
3.66167e-05
-0.000369719
-0.000251777
0.000131048
-2.68949e-05
-9.53551e-05
-0.000136574
7.54337e-06
1.63705e-05
3.12453e-05
4.84214e-05
4.07509e-05
-6.43245e-05
-0.000145743
0.00404473
-0.0032523
-0.0109002
0.00636709
0.0102376
0.00446817
0.0161814
0.00400573
0.00685877
0.0173776
0.00585633
0.0115272
0.00855084
0.00588344
-0.0131626
0.0043628
-0.000446221
-0.00151912
0.0146832
-0.00448287
0.00741945
1.17853e-08
-0.00741999
0.00448312
-0.0146827
-0.00588332
0.0131626
-0.0115266
-0.00855052
-0.00585603
-0.0173772
-0.00685816
-0.00400544
0.0102362
0.0110983
0.0109002
-0.0102371
-0.00446784
-0.00636717
-0.0175191
-0.00760093
-0.0101823
-0.0143306
-0.00621683
0.00980513
-0.012527
-0.00165445
0.0192443
-0.0192442
0.012527
-0.00980538
0.00621623
0.0143296
0.0101826
0.0122855
0.00760079
0.0175183
0.0204213
0.0201231
-0.0036276
0.018107
0.00678084
0.00785633
0.00601799
8.47156e-06
1.16107e-06
-8.06151e-06
-1.26097e-07
0.00905909
-0.00905894
0.00046355
-0.00601819
-0.00785647
-0.00678119
-0.0181071
-0.0201236
-0.0204206
-0.0167416
-0.0170922
-0.0185669
-0.0168524
-0.0171267
-0.0201739
-0.0195268
-0.0172584
-0.005823
0.00161859
-0.000466838
0.0105223
-0.00965652
0.00644183
-0.00536235
0.00354616
-0.00271431
0.00175986
-0.00124036
0.000788271
-0.000509216
0.000320101
-0.000187088
0.000118915
-6.24519e-05
-5.72037e-05
-4.84676e-05
-4.30029e-05
-6.90485e-05
-7.25747e-05
-2.34663e-06
0.000100198
-4.13754e-05
-4.42929e-06
1.54931e-05
-4.94153e-05
4.61663e-06
-7.54082e-06
-1.63627e-05
-3.12196e-05
-4.84128e-05
-4.05691e-05
6.43582e-05
0.000145749
-0.00404467
0.00325225
0.00109175
0.00298702
-0.000668598
0.00722453
-0.00722444
-0.00298698
-0.00109166
0.000668686
0.0022244
-0.0110985
-0.0102357
0.0102249
-0.0122302
-0.0033515
0.000262928
0.00136727
-0.00249046
0.00237791
0.00296768
2.2864e-08
-0.00296747
0.00335148
-0.00436274
0.00819444
0.000445744
0.00919339
-0.00919382
-0.00819481
-1.44386e-07
0.00570719
0.00603358
-0.00603382
0.00100414
-0.00570714
0.00034692
3.18745e-07
0.00618627
0.00079208
-0.00691429
0.00192329
-3.81772e-07
-5.24597e-07
-2.5967e-09
0.00758786
-0.00594827
-0.0185368
0.00389614
-0.0151157
0.0173491
-0.0146685
0.0118913
-0.0118917
-0.00116946
-0.00934296
-0.000707591
0.00756411
-0.00541148
-0.000215593
0.00407183
-0.00281835
-6.21922e-05
0.0019803
-0.00132285
-1.46861e-05
0.000867626
-0.000562004
8.25551e-07
0.000342339
-0.000217576
5.53584e-06
0.000122214
-7.76137e-05
6.53254e-06
4.13804e-05
1.41568e-05
2.6876e-05
-2.68807e-05
5.74653e-07
4.07211e-06
-1.11355e-05
-1.06115e-05
2.98062e-09
7.26922e-06
-7.26647e-06
-8.31571e-06
2.63075e-09
8.26341e-06
-8.26274e-06
-6.69347e-06
8.0499e-10
1.70839e-05
-1.709e-05
1.35887e-06
-5.04827e-09
-3.45819e-06
3.46903e-06
-2.53816e-06
1.30526e-05
6.94224e-06
6.61288e-06
2.88197e-06
1.42606e-05
4.59725e-06
-1.32256e-05
-1.96428e-06
1.15377e-05
-1.35721e-05
1.72859e-05
6.6252e-06
6.98523e-06
1.293e-06
1.33724e-05
1.58066e-06
-1.10915e-05
-1.5937e-06
2.04983e-06
-1.06131e-05
1.93651e-05
-1.87776e-07
-1.08769e-06
-1.58182e-05
-3.69984e-05
-7.93315e-05
-0.000150285
-0.000237262
-0.000276598
-0.000281242
0.000101528
0.0104086
0.00875766
0.00833023
0.0116376
-0.0109379
0.00739908
-0.00616654
0.00408812
-0.00310111
0.00203218
-0.00140736
0.000910943
-0.000575468
0.000369723
-0.000211136
0.000136569
-1.37791e-05
0.000130435
-0.000164456
0.000184246
-0.000311167
-1.6833e-09
0.000311147
-0.000511673
0.000456445
-0.000356367
0.000556112
-0.000739745
3.13492e-05
-0.000882511
8.3789e-05
0.000575376
-6.36072e-05
0.000362154
0.000421676
9.13816e-05
-0.000698256
-0.000769791
0.000468398
-6.73773e-05
-0.000284338
3.98015e-05
0.000151785
-0.000104818
1.51158e-05
4.29978e-05
-1.2302e-05
-1.11551e-05
8.38492e-06
-1.93688e-05
-4.59526e-06
-1.42589e-05
-2.87918e-06
-6.61112e-06
-6.94081e-06
-1.30509e-05
2.52779e-06
-3.43379e-06
-1.35782e-06
6.50541e-06
-1.88784e-06
-1.1536e-05
4.09239e-07
1.96713e-06
1.3571e-05
1.3226e-05
1.06109e-05
-2.05249e-06
-4.21532e-06
6.6955e-06
2.78289e-10
-5.83677e-10
1.19805e-09
1.04878e-08
2.3185e-08
3.47155e-08
6.9779e-08
3.97683e-08
3.49065e-08
-3.10578e-08
2.32309e-07
0.00439245
-3.05448e-05
-0.00724022
0.00132693
-0.0161808
-0.0070359
0.0122299
-0.000262958
-0.00136719
-0.00100431
-6.19981e-06
0.000684307
-0.000587785
-1.63738e-05
-0.00338503
-0.00327635
0.00905898
0.0118371
-0.0163206
5.20421e-05
0.0123946
-0.0104632
0.0134211
-4.39665e-05
-0.00399117
-0.0121342
-0.0121404
-0.0118828
-0.00702767
-0.00701667
-0.00121915
-0.00255063
-0.00165381
-0.00381127
-0.00185988
-0.00102344
-0.000568537
-0.000308901
-0.000464675
-2.25029e-05
-0.00020748
0.000145083
-0.00912274
-0.00802324
0.00557496
0.00498009
0.00074863
-0.00721224
5.35247e-05
-8.67235e-05
-0.00237775
0.00249066
-0.0022244
-8.60474e-05
0.00604194
-0.00034734
-0.00209195
0.00151924
-0.00516011
-0.00119072
-0.00506935
3.38061e-08
2.57308e-07
5.33364e-07
3.39784e-07
-7.15218e-08
-9.28912e-08
-5.95601e-08
-7.22087e-08
-3.03272e-08
-1.07164e-09
4.84107e-10
-5.91598e-06
5.91472e-06
8.18848e-06
-6.41422e-06
-2.46788e-05
-6.61548e-05
-0.000152395
-0.000209455
2.59487e-05
-0.000946863
-0.00045751
-0.000200896
-8.57611e-05
2.87085e-05
7.1215e-05
-0.00114292
-0.00104117
0.00069822
0.000611348
0.000135883
-0.000895883
0.00135363
0.000261888
-0.00199301
0.00272126
0.000459034
-0.00400308
-0.000412683
-0.00457315
0.00310515
0.000491903
-0.00502573
0.00639083
0.00079496
0.000154534
-0.000147321
-0.000159576
-0.000329577
-0.00230311
0.00155086
0.000279385
-0.00251693
0.0034716
-0.000271906
0.000149074
-0.00195561
-0.00405999
-0.00131019
-0.00211098
0.00811062
-0.0102246
0.0320987
-0.0013508
0.00845403
-0.00245885
-0.00809491
-0.00476907
-0.00144193
-0.00272604
-0.000524527
8.1222e-05
-0.00195767
-0.000979664
-0.000974548
-0.00046132
-0.000199106
-7.39329e-05
-7.65322e-05
-2.79986e-05
2.05573e-05
3.95273e-05
-0.00046845
-0.00042177
0.00028435
0.000251746
6.36034e-05
-0.000362164
-9.13851e-05
-5.99481e-05
-0.000109438
-0.000187924
2.62446e-05
0.000144347
0.00076971
-7.9437e-05
-6.67134e-05
0.00132278
3.50759e-06
-0.00198058
6.24586e-05
0.00281827
-2.29371e-06
-0.00407225
0.000216128
0.0054112
-1.98441e-05
-0.00756447
0.000707812
0.0093429
-0.000136171
-0.0127006
0.00234516
0.0155913
0.00347186
0.00102105
-0.000350762
0.000350763
-0.0155917
-0.00234456
0.0127004
-0.00102126
0.0146686
-0.0075877
-0.0173495
-1.09146e-07
0.0151149
-0.00389618
0.0185378
0.00582339
0.00594825
0.00119059
0.00516038
0.00209172
-0.00192351
-0.00618666
0.00691495
-0.000792187
0.0070361
-0.00604162
-3.55533e-07
5.22853e-08
-7.54375e-09
-1.25773e-08
2.66667e-08
4.86378e-08
0.00116998
-0.00983049
0.00760005
-0.00563926
0.0042239
-0.00422411
-2.36104e-05
0.00290965
4.72952e-05
-0.0021009
1.21394e-05
0.00135117
2.42852e-05
-0.000941826
1.39455e-05
0.000565792
1.11481e-05
-0.000383258
1.16256e-05
0.000214486
5.37408e-06
-0.000143587
1.08972e-05
7.39319e-05
4.91947e-06
-5.05552e-05
-2.72139e-09
5.05487e-05
-1.41563e-05
-4.13837e-05
-6.53509e-06
7.76075e-05
2.24517e-06
-0.000122222
-5.53065e-06
0.000217576
3.71617e-06
-0.000342375
-8.11145e-07
0.000561976
4.69076e-06
-0.000867729
1.47716e-05
-2.42901e-05
0.000941791
1.2066e-09
-0.00056584
0.000383264
-0.000214499
0.000143584
-6.06793e-09
-7.39382e-05
-4.92358e-06
-3.30657e-06
-1.25982e-05
-5.38282e-06
-2.00793e-05
-5.09677e-05
-0.000113326
-0.000219158
-0.000349758
-0.000423749
-0.00049572
0.000495801
0.00506923
0.00701691
0.00121892
0.000423007
0.00983041
2.29178e-05
-0.00760033
-0.000220997
0.00563887
7.01812e-05
0.000200946
1.38389e-07
0.00022143
3.95973e-08
-2.05504e-08
2.38369e-05
-0.00290974
0.00210088
-0.00135125
-1.21357e-05
-1.81915e-08
-1.96986e-08
-7.10468e-09
-1.39506e-05
-4.10927e-09
-1.16118e-05
-6.59566e-09
-1.85942e-10
-1.08912e-05
-1.42833e-09
8.64244e-10
1.11366e-05
-4.07267e-06
4.4582e-06
-5.82595e-06
5.82402e-06
-4.45821e-06
1.35977e-05
-2.33349e-06
5.9482e-06
-1.38028e-05
-2.61472e-06
-3.26126e-07
-1.2576e-05
1.95635e-05
4.20543e-06
1.43299e-05
3.18581e-06
6.4258e-06
1.75582e-05
6.70913e-06
-2.17961e-06
-4.62524e-06
-1.56455e-06
1.48861e-09
-2.26671e-09
1.56191e-06
-1.36019e-05
-5.94776e-06
2.33009e-06
-4.82508e-06
2.61159e-06
1.25736e-05
3.24659e-07
-2.12486e-06
1.59464e-06
1.10933e-05
-1.57855e-06
-1.33659e-05
-1.2924e-06
-6.98508e-06
4.64669e-06
4.62451e-06
4.56026e-10
2.58437e-06
4.82104e-06
1.8039e-06
1.22913e-06
6.95855e-06
-4.64666e-06
-2.41436e-06
7.41065e-10
-1.22904e-06
-2.58516e-06
1.06148e-05
-1.81062e-06
3.30364e-06
-1.89135e-09
2.4139e-09
5.18009e-09
2.88021e-08
-2.91486e-08
7.37061e-08
-0.000268408
-2.26826e-05
0.000268577
0.00028153
0.000135892
-0.0105225
-0.000101021
0.00912282
-0.000795124
-0.00557554
0.000412238
0.00400304
-0.000458879
-0.00272172
-0.00408797
0.000315805
0.00295772
-0.00374555
8.75802e-05
-0.00403693
0.00585864
-0.00722677
4.41765e-05
-0.00751235
0.000423366
0.00616598
-0.00739847
-0.00498136
0.00721238
-0.000748227
0.0109374
4.45792e-05
0.0104635
-0.0123938
-5.18515e-05
-0.0134217
-0.0116372
-0.00833099
-5.37934e-05
0.00802243
-0.00875722
-0.0104096
0.00211117
-0.00068433
0.000587647
-0.0291963
1.68054e-05
-0.000592219
0.0033847
-0.0314184
0.00327658
-0.0118371
-0.00905945
0.00476861
4.77452e-07
0.000244137
0.000635901
0.0180923
4.10613e-11
0.0135836
-0.0135834
0.000223211
-0.00982949
-4.38864e-05
0.00722728
-0.00585856
0.00751134
-0.000423389
0.00403639
-8.76881e-05
0.00374579
-0.00295763
-0.000315997
0.00198182
-6.08745e-05
0.00175027
-0.00134942
-0.00017467
-0.000466643
-0.000203488
-7.72099e-05
-2.16025e-05
-1.89795e-05
-2.14312e-05
-2.55759e-06
1.27057e-05
2.02992e-05
-0.000173069
-0.000151831
0.000104812
9.53448e-05
2.68799e-05
-0.000131067
-3.98176e-05
-2.85075e-05
-1.20638e-05
-1.51093e-05
3.40805e-06
1.29905e-05
1.78142e-05
-4.98852e-05
7.91426e-06
5.35373e-06
9.53303e-06
1.34597e-05
7.95461e-06
2.14948e-05
-4.89404e-05
1.28419e-05
1.87601e-05
3.56166e-05
6.27085e-05
9.73573e-05
0.000116157
-0.000113093
-0.00107832
-0.000613381
-0.000311479
-0.000465679
1.17609e-06
8.42496e-05
0.000145451
-0.0053262
0.00595716
2.50126e-08
0.00414545
-0.00414533
4.76952e-05
0.00290417
-8.22496e-09
0.00193483
-0.0019348
2.24522e-05
-0.00114453
-3.13974e-05
0.000739773
-0.000556128
0.000882395
-8.37697e-05
2.09223e-05
-0.000204084
-0.000151519
-6.72605e-05
-8.39644e-05
1.81124e-05
2.04157e-05
-0.000456477
-1.29459e-05
0.000283564
-0.000207072
0.000356337
-3.66081e-05
1.23017e-05
-2.86451e-05
-2.55225e-05
-5.98832e-06
-4.78486e-06
9.20306e-06
7.99544e-06
5.48869e-06
2.91801e-06
1.88506e-05
-5.08776e-06
7.28216e-06
-1.88017e-08
-7.17422e-06
5.04389e-06
-1.88282e-05
-3.50526e-06
-4.33302e-06
-1.81054e-08
-8.39886e-09
8.64241e-06
3.51879e-06
7.00089e-06
5.2666e-06
2.85406e-05
0.000119294
-1.3442e-05
1.22742e-05
6.73897e-05
0.000315186
-3.54529e-05
-3.09188e-05
-1.11459e-05
3.09078e-05
6.67189e-05
0.000125408
0.000237375
0.000276771
1.98601e-05
-0.00644251
0.000320602
0.00502538
-0.000492043
-0.00310522
0.000329667
0.00199292
-0.000261842
-0.00135397
-0.00203191
0.000174771
0.00134947
-0.00175018
6.08469e-05
-0.00198203
0.00259678
-4.76924e-05
-0.00290409
-8.41706e-05
-5.24994e-08
3.47524e-08
-4.52044e-07
0.000240169
-0.000239645
-0.000243838
-0.000635793
0.0163205
-0.0180923
-0.00023021
6.19736e-06
-0.00015445
8.69316e-05
0.000147608
-1.87658e-08
9.46037e-05
-0.000200816
-7.00499e-05
-0.000125343
-4.72275e-05
5.18542e-05
3.8378e-08
8.61835e-09
4.96506e-09
-2.74351e-09
-1.9284e-09
1.94966e-10
2.32694e-10
1.08645e-06
1.58191e-05
3.69984e-05
7.93403e-05
0.000150287
-3.62533e-06
-0.0017599
0.000159562
0.00114278
-0.000144372
0.00104092
0.000187862
0.000895826
-0.000135888
-0.000611455
-0.00091091
0.0014071
-6.2749e-05
-7.12636e-05
-2.894e-05
0.000152238
0.0003086
0.000568
0.000349843
0.000219151
0.000113363
5.099e-05
6.61133e-05
2.46645e-05
2.00854e-05
5.49783e-06
6.39895e-06
-8.19437e-06
-5.36609e-06
-9.53913e-06
6.24458e-05
1.34432e-05
5.71998e-05
-1.29919e-05
-1.21822e-05
4.89426e-05
1.88055e-07
1.20658e-05
2.85123e-05
5.99616e-05
0.000109487
0.000159664
-9.45287e-05
-5.18617e-05
-0.000279468
-0.00171516
-0.00155085
0.00230281
0.00251673
0.00271406
0.000271843
-0.00354606
2.23081e-06
0.00536209
2.15279e-05
0.00020706
0.00965505
0.00165182
0.000466936
-0.0320996
0.019528
0.0172613
-0.00161937
0.00702647
0.0118832
0.0201746
0.0171274