/*--------------------------------*- C++ -*----------------------------------*\
| =========                 |                                                 |
| \\      /  F ield         | OpenFOAM: The Open Source CFD Toolbox           |
|  \\    /   O peration     | Version:  2306                                  |
|   \\  /    A nd           | Website:  www.openfoam.com                      |
|    \\/     M anipulation  |                                                 |
\*---------------------------------------------------------------------------*/
FoamFile
{
    version     2.0;
    format      ascii;
    arch        "LSB;label=32;scalar=64";
    class       volScalarField;
    location    "0.8";
    object      gradTx;
}
// * * * * * * * * * * * * * * * * * * * * * * * * * * * * * * * * * * * * * //

dimensions      [0 -1 0 1 0 0 0];

internalField   nonuniform List<scalar> 
2658
(
0.00828149
0.0122617
0.00394403
2.72216e-06
-0.0136311
-0.0114754
0.0106059
0.0105225
-0.000107381
0.0162261
-0.0118936
-0.00932067
0.00680396
0.00778831
0.00586614
-0.000313314
-0.000247492
-0.000234903
-0.00638497
-0.00844482
-0.00830499
-0.0192657
-0.0225273
0.0164457
-0.00673336
-0.00912614
-0.0195937
-0.00260911
-0.0143357
-0.015742
-0.0143355
-0.0195941
-0.00912665
-0.0225285
-0.00673293
0.0164456
-0.00756015
0.0040496
-0.0192627
-0.00830728
-0.0084446
-0.00638449
-0.000236124
0.000614339
-0.00957126
0.00894394
-0.0118934
-0.000510636
-0.000315294
0.00586616
0.00778859
0.0068037
0.0182923
-0.00372642
0.0202586
0.0168086
-0.00857006
0.000176007
-0.0293855
0.0169044
-0.00856959
0.016809
0.0202584
-0.0037258
0.00324873
-0.0314472
0.00317253
-0.000716641
-0.00862737
-0.00862833
-6.25706e-05
0.00756715
-0.000840094
-0.00723351
0.000375338
-0.00766567
0.00973434
1.41306e-05
-0.00725991
0.008034
-0.0112396
-0.000318597
0.0136271
-0.0124429
-0.000224031
-0.000114852
1.2433e-05
3.30437e-05
2.26352e-05
1.13676e-05
4.66171e-06
-2.67235e-06
1.88502e-06
-1.92974e-05
1.13015e-05
-3.07478e-06
-1.40024e-05
-7.02265e-09
1.37947e-05
-1.16344e-05
5.92308e-06
1.5512e-05
1.68773e-05
9.87158e-06
1.0452e-05
-2.47552e-05
-3.60194e-06
-2.46718e-06
-2.18922e-06
6.21395e-06
1.3158e-05
4.81348e-06
1.01113e-05
4.81202e-06
1.31578e-05
6.21461e-06
1.04552e-05
-2.47569e-05
1.6881e-05
9.87549e-06
1.55094e-05
5.91802e-06
-1.16362e-05
1.37946e-05
-2.51772e-05
2.45739e-05
-1.93007e-05
-3.07718e-06
-1.40013e-05
1.12987e-05
-6.27927e-06
-1.55918e-05
-9.61411e-06
-8.78054e-06
-6.37777e-06
7.48139e-08
-3.85549e-06
-2.57443e-05
1.56077e-05
1.56009e-05
-3.85569e-06
7.0095e-08
5.04814e-06
-6.74994e-06
-7.64948e-06
-6.73519e-06
2.38282e-06
2.23171e-06
-1.40308e-05
-1.45839e-05
-1.19268e-05
-1.50983e-05
-1.49657e-05
-1.53111e-05
-1.3592e-05
-2.27544e-05
-1.96876e-05
-8.69002e-06
-1.07339e-05
-8.14627e-06
4.66845e-07
-1.38193e-07
-1.04967e-06
7.10769e-06
1.02353e-05
8.19763e-06
1.90193e-05
2.60686e-05
-5.92221e-06
3.22036e-05
-9.6114e-05
0.000167222
-0.000267154
0.000459076
-0.000700797
0.00114306
-0.00167085
0.00257603
-0.00360222
0.00526015
-0.00700644
0.00977649
-0.0122973
0.0169219
-0.0168045
0.0178653
-0.0184659
0.0162255
-0.0136318
2.64897e-06
-0.0114747
0.00317188
-0.0314465
0.00324871
-0.00932089
0.00398974
-0.000224103
-0.000114853
1.23636e-05
3.30031e-05
2.26512e-05
1.1377e-05
4.66404e-06
-2.67285e-06
1.88418e-06
6.29993e-07
-7.27885e-06
-1.63137e-06
8.78193e-06
8.7817e-06
-7.27966e-06
6.31871e-07
-1.62643e-06
1.8974e-06
2.45718e-05
-2.51793e-05
1.91872e-06
1.9035e-05
-1.26449e-06
-5.42169e-07
-2.51737e-06
-2.23595e-07
-1.81926e-07
2.22455e-06
2.2884e-06
2.22449e-06
-1.26884e-06
-3.5997e-06
-1.18715e-05
-2.4637e-06
2.4609e-06
2.46281e-06
-1.18732e-05
-3.17938e-07
7.44954e-06
-9.52188e-06
-9.52646e-06
1.04205e-07
7.45401e-06
-1.48092e-07
-1.25737e-06
-1.67764e-06
-1.64244e-06
7.44895e-06
-1.59799e-06
-2.1944e-07
-1.17587e-05
-1.63339e-06
-6.61481e-06
1.22992e-05
9.93397e-06
2.03931e-05
1.44677e-05
-4.89031e-05
4.77543e-05
-0.000110385
-0.000110379
-1.4697e-06
-0.000155115
4.12294e-06
0.00024687
-0.000412862
4.45467e-06
0.000648588
-0.0010256
-1.06574e-06
0.00154161
-0.00231279
-2.37494e-05
0.00331365
-0.00469232
-8.9294e-05
0.00647197
-0.00850615
-0.0002075
0.0117946
-0.0134458
-0.000780272
0.0229414
0.00384566
0.0283531
0.028353
-0.00260863
0.00686931
-0.00226687
0.00940355
0.000575149
-0.00576246
-0.00576239
0.00646171
-0.000269148
-0.00747473
-0.00747462
0.0020419
-0.0025168
-0.0110195
-0.0110196
0.00414046
0.0162248
0.00414059
0.0064139
0.0177752
0.00766333
0.0102439
0.0123441
-0.0191723
-0.0111128
0.0101895
0.00728601
-6.04886e-05
0.00204198
-0.00120089
-0.00328207
0.0131236
-0.00991723
0.00620803
0.014374
0.00823038
-0.00445527
-0.00593566
-0.00445505
-0.00328229
-0.0111125
-0.0191722
0.00766356
0.017776
0.00641435
0.0101896
0.00728618
0.00823147
0.0143729
0.00620691
-0.00991754
0.0131231
0.00158134
0.0123921
-0.000279335
-0.0128476
0.0192166
-0.00025525
-0.00333243
-0.0196733
-0.000277573
-0.0022871
0.000172362
0.000126302
5.42917e-05
2.31992e-05
9.42035e-06
3.27143e-06
8.51218e-07
-4.25388e-06
0.000100759
-0.000110423
0.000108898
-0.000101941
0.000158618
-0.000287367
0.000446965
-0.000746881
0.00112728
-0.00176217
0.00256381
-0.00376487
0.00526554
-0.00725935
0.00973377
-0.0124425
-0.000107222
0.0105225
0.0106045
0.00756854
-0.00527174
0.000404253
-0.00527073
0.00426152
0.00593943
0.0059059
-0.00412695
-0.00398546
0.000283943
0.00298495
7.31984e-05
0.00526617
-0.000152177
-0.00607708
0.00588444
-1.9691e-05
-0.00418264
0.00385725
-0.00553577
3.49293e-06
-0.00805945
-4.08431e-05
0.0108612
-0.0137267
-7.59117e-05
-0.018466
-0.000718335
0.00894403
-0.000510604
0.00158175
-0.0196735
-0.0033322
0.000535511
-0.000340549
-0.000162546
-0.000140388
-7.73894e-05
-3.55685e-05
-1.57085e-05
-6.91926e-06
-3.02715e-06
-1.28391e-06
-1.8058e-07
-2.1888e-07
-2.51127e-06
1.051e-07
-5.42675e-07
1.90355e-05
1.91722e-06
-6.37838e-07
-3.8235e-05
3.56876e-05
-3.74624e-05
3.56509e-05
-1.92955e-05
4.86687e-05
-2.32772e-05
6.63743e-05
1.1214e-05
-0.0001333
-0.000132769
7.83216e-05
4.39267e-06
5.76694e-06
-2.96095e-06
-2.03693e-07
2.8638e-06
7.23783e-06
1.211e-05
-1.13161e-05
-8.22054e-06
1.03131e-05
-6.07763e-06
-2.2959e-05
-3.40502e-05
-3.48345e-05
-8.65712e-05
-9.16842e-05
1.8801e-05
1.10055e-05
6.76669e-06
-0.000168292
0.000179465
-0.00031514
0.000312163
-6.84151e-06
-0.000186227
-1.17136e-06
-4.58718e-07
-2.13703e-07
9.06772e-07
-5.59007e-05
-0.00011994
-0.000213788
-0.000193378
-0.000386261
-0.000452508
2.81637e-05
2.84655e-05
3.27802e-05
-0.00119316
0.00126603
-0.00195377
0.00194812
-3.58339e-05
-0.00130761
0.000820319
-1.63506e-05
-0.000521015
-2.47861e-06
0.000503487
-0.000824901
2.4966e-06
-0.000474212
0.000290481
1.41719e-06
8.84177e-08
-1.19486e-05
-0.000155091
5.44841e-06
8.52278e-05
3.53292e-06
-6.30058e-05
-2.1096e-05
1.89491e-05
-5.24596e-06
-1.32022e-07
-2.22251e-07
2.62106e-06
-4.56465e-06
-7.81932e-08
-1.10429e-05
-5.68362e-06
8.8335e-07
2.69055e-05
3.01177e-06
-1.37915e-05
-1.11132e-05
2.50465e-05
6.50091e-05
0.000145925
3.55155e-06
7.8295e-06
-0.000235226
-0.000449566
-0.000920301
-0.000697597
-0.0013885
-0.0022176
-0.000277702
-2.27595e-05
9.15172e-05
-0.00553559
0.00588407
-0.00805955
0.00803407
-0.000152415
-0.00607664
0.00417482
-7.432e-05
-0.00296337
-9.74186e-06
0.00287139
-0.00418262
5.37681e-06
-0.00270521
0.00180392
4.08044e-06
1.52046e-06
4.56557e-07
-2.7698e-05
-0.000412838
3.5618e-06
0.000246869
4.12891e-06
2.04429e-05
-0.000290849
0.000436926
-0.000744361
-0.000744373
1.1309e-06
0.00109873
3.07387e-05
-0.00175111
1.25001e-06
0.00248723
2.54317e-05
-0.00371712
4.62508e-06
0.00508551
-5.54353e-05
-0.00700853
5.34025e-05
0.00945272
-0.000508333
-0.0114286
0.000393192
0.016438
-0.00276084
-0.0143202
-0.00195434
-0.0143198
0.00384561
0.0229415
-0.000780078
-0.013445
-0.000505841
0.011794
-0.000207416
-0.00850605
-0.000227929
0.00647219
-8.91276e-05
-0.00469156
-8.65378e-05
0.0033138
-2.36367e-05
-0.00231266
-2.81696e-05
0.00154157
-9.91712e-07
-0.00102554
-4.70623e-06
0.000648579
4.49117e-06
2.51547e-05
-4.78925e-05
-2.26821e-05
-9.84517e-06
1.15799e-05
-1.09067e-07
-1.66521e-05
-4.56649e-05
-0.000105249
-0.000228178
-0.00045357
-0.000775149
-0.000992011
-0.000557257
0.000574551
-0.00150474
-0.0108213
-0.0108213
-0.011088
-0.00926046
-0.00289722
-0.00123038
-0.00508952
0.00763374
0.0113805
0.000295612
0.000138511
0.000581429
-0.00276039
0.016437
0.000393583
-0.0114285
-0.00119329
-0.000680636
-0.000544232
5.38896e-05
-0.0070084
0.00945232
-0.000508348
-9.93886e-05
-0.000148637
-5.55703e-05
0.00508477
4.82079e-06
-0.00371683
-0.000172326
-0.000357131
-0.000201548
-9.83193e-05
1.18351e-06
0.00109869
-0.00175109
0.00248712
2.54591e-05
-0.000104707
-5.80212e-05
5.89466e-06
2.3681e-06
9.46453e-07
-1.45287e-05
-1.46521e-06
0.000155768
6.63813e-06
0.000155781
2.04266e-05
-0.00029084
1.03636e-07
0.000436986
2.51734e-05
-2.76964e-05
-4.12536e-05
1.11297e-07
-1.25303e-06
-1.19461e-05
-5.24435e-06
-6.30099e-05
3.53372e-06
8.52255e-05
1.89461e-05
4.77529e-05
-6.61439e-06
-4.89037e-05
6.58312e-06
1.44693e-05
2.03958e-05
9.92951e-06
2.60669e-05
1.23032e-05
5.12284e-06
-6.81121e-06
4.49203e-06
-1.59725e-06
-1.67646e-06
7.44895e-06
-1.64285e-06
1.10774e-06
-7.4297e-08
-8.91105e-08
-7.38308e-08
-9.06302e-08
-7.5786e-09
1.1083e-06
-1.47051e-07
4.49259e-06
-2.19277e-06
-6.81376e-06
5.12068e-06
-2.53049e-07
1.97437e-06
1.7115e-06
-1.3982e-06
-7.64103e-06
1.91509e-06
-4.63101e-06
7.97563e-06
2.47331e-05
-1.79295e-05
3.78535e-06
1.79781e-06
1.01216e-06
1.788e-06
-5.26703e-07
-3.67875e-07
-1.51316e-06
-3.55727e-06
-7.94444e-06
-1.75799e-05
1.38241e-05
3.28414e-05
8.47589e-05
0.000206823
-0.00104425
-0.00359843
0.0132726
-0.00226689
0.00686942
-0.0149431
-0.00707925
-0.0070786
-0.014944
-0.00760599
-6.77421e-05
-0.013314
0.0216796
0.0015955
-0.000807494
-0.0152681
-0.00132226
0.00942919
-0.00704256
-0.0153329
-0.0128264
-0.0124485
-0.00888643
0.00102648
0.00206299
0.00101878
0.000400588
-0.0127586
0.0010192
-0.00760526
-0.0133143
-6.71348e-05
0.00424211
0.00159596
-0.0152683
-0.000807213
0.00198632
-0.000255103
0.0192169
-0.0128481
-0.000278857
0.012393
0.000976775
-0.000497628
0.0020636
0.00165887
-0.00390229
0.00424244
0.00296013
0.000285834
-0.00137107
-0.000497097
-0.000128295
0.000976177
-0.00192065
-6.05807e-05
-0.00120075
0.000535532
-0.000340633
-0.000718591
-0.000392764
-3.09954e-05
6.24668e-06
0.000119498
-0.010186
0.0108611
-0.0137273
0.0136275
-0.000319183
-0.0112392
-4.07413e-05
-0.000309578
0.000588722
0.000299684
-0.000179778
-0.00010143
-5.28026e-05
-2.5306e-05
1.56963e-05
0.000761687
-2.41649e-05
-2.22859e-05
-0.000363427
2.9447e-05
-0.000361671
0.000553776
7.1704e-05
-0.000889132
-0.000902264
0.000563855
3.02338e-05
0.00136348
0.000154996
-0.00198075
-0.00202755
5.50495e-05
0.00298518
0.000283519
-0.00398488
-0.0041272
7.33182e-05
0.00590607
0.000375149
-0.00723294
-0.00766666
1.4597e-05
0.000477271
0.00138995
0.0045732
-0.000193485
-0.00024008
4.27121e-05
-0.000375681
0.00244362
0.0027309
0.00394325
0.00193179
0.000969253
0.000464214
0.000205522
8.14173e-05
2.40123e-05
-3.56042e-05
-7.00635e-05
-0.00026219
3.54136e-05
-0.000262092
0.000394491
8.53696e-05
-0.000648251
-0.000648437
0.000394638
4.71498e-05
2.08375e-05
7.50741e-06
-4.147e-06
-2.02852e-06
-1.46016e-05
-1.13393e-05
4.97901e-05
-1.13146e-05
5.18408e-05
1.34379e-05
-9.44223e-05
-9.44974e-05
5.19049e-05
-9.74114e-06
1.21606e-05
-2.52361e-06
-2.54313e-06
1.60255e-05
-2.24091e-06
1.21753e-05
-2.33038e-05
4.86858e-05
-1.92844e-05
7.83203e-05
1.12143e-05
-0.000132744
-0.000133375
6.64559e-05
-1.4598e-05
-4.14665e-06
-1.32922e-07
8.50765e-07
5.44605e-06
-9.61164e-05
-4.24861e-06
-0.000168305
1.42215e-06
-0.000315168
-2.47206e-06
-0.000521017
-1.63459e-05
0.000820394
-0.000746988
3.0223e-05
-0.000902218
-0.000889355
7.16318e-05
0.000563866
-0.000363392
-0.000361768
2.94106e-05
0.000212382
1.40507e-05
0.000447045
-0.000287428
0.000312192
-0.00018623
-6.84029e-06
0.000158659
4.3894e-06
-0.000101969
0.000108908
-1.17504e-06
0.000179476
-0.00011043
0.000100761
-3.82379e-05
-2.19623e-07
3.56902e-05
7.81799e-08
-3.74641e-05
-2.02618e-06
3.56663e-05
1.68736e-05
-8.14301e-06
4.6873e-07
-7.76321e-08
-4.55971e-06
2.6209e-06
1.03113e-05
1.21111e-05
1.15855e-05
-9.84876e-06
-2.26971e-05
-1.13147e-05
-3.484e-05
-4.79944e-05
-0.000101717
-8.6603e-05
-0.000193306
-0.000197525
-0.000196929
-0.000101516
3.06829e-05
-0.000299624
-0.000301343
-0.00038597
-0.000698001
-0.000239836
-0.000237088
1.24078e-05
1.20738e-05
-0.00138983
-0.0110887
-0.00926828
-0.00290042
0.0169219
2.03338e-05
-0.0168042
0.000295699
-0.00957106
-0.000375607
-0.000277487
-0.0022871
0.000172444
0.000126284
5.43496e-05
2.31764e-05
9.42349e-06
3.27472e-06
3.56381e-06
-0.000267163
-1.18378e-05
-0.000474225
2.48195e-06
-0.000824961
-4.88249e-06
-0.0013077
-3.5814e-05
0.00194822
-0.00176236
5.49765e-05
-0.00202747
-0.00198119
0.000154986
0.0013634
0.00135073
-0.00014918
0.000964633
0.000180611
-0.00144438
-0.0014447
0.000964897
-0.000149147
0.00135046
-6.68804e-05
0.000208157
8.20238e-05
2.75924e-05
1.41395e-05
-9.73763e-06
8.81944e-07
-1.3582e-05
-1.53963e-05
-1.11047e-05
-6.37898e-06
-8.7835e-06
-9.61864e-06
-1.79234e-05
-1.55909e-05
-6.27632e-06
-1.07265e-05
-8.68944e-06
3.79247e-06
-1.96921e-05
-2.27642e-05
-5.68275e-06
-2.96348e-06
-2.03696e-07
2.86048e-06
1.02384e-05
7.10796e-06
-6.40361e-07
-1.04734e-06
-1.396e-07
-1.44048e-05
3.22051e-05
-2.10967e-05
-5.92796e-06
8.20121e-06
1.90103e-05
7.22955e-06
-6.06967e-06
-8.23061e-06
1.09941e-05
0.000167231
6.77209e-06
0.000290492
-2.29732e-05
-3.39863e-05
1.87443e-05
0.000459077
-0.000700898
-2.41251e-05
-0.00119331
4.10954e-06
0.00180392
-0.00195385
-9.74468e-06
-0.00296356
-7.43819e-05
0.0041749
-0.00376506
0.0025641
-0.000101257
6.00467e-05
-0.00270538
5.29926e-06
0.00287158
-1.57123e-05
-6.93203e-06
-3.03011e-06
-1.28155e-06
9.26109e-08
4.81503e-07
1.50498e-06
-5.799e-05
-0.000104602
3.85856e-06
3.89345e-06
1.09431e-05
3.52592e-06
0.00741887
-3.51122e-05
4.05501e-05
4.86448e-06
0.0125944
2.02662e-05
-0.000325467
-0.000183654
-9.91266e-05
-4.98114e-05
-2.30155e-05
-9.66321e-06
-3.04463e-05
0.000205066
0.000147018
0.000146936
0.000205183
-3.0443e-05
-9.66363e-06
-2.30351e-05
-7.00456e-05
0.000553974
-3.55695e-05
-1.69488e-05
2.69199e-05
8.14608e-05
0.000205548
-6.68231e-05
-3.06621e-05
-2.2237e-05
-2.52945e-05
1.57392e-05
0.000761715
-5.59836e-05
-9.14932e-05
2.83365e-05
0.00114312
-0.00167095
-4.39604e-05
0.00257614
-0.00360241
-6.34321e-05
0.00526038
-0.00700689
-3.45297e-05
-0.0101862
4.99437e-06
0.0125935
-0.0122982
-0.000505576
0.00977638
-0.0002283
-0.000277371
-2.30705e-05
2.79715e-05
-0.000213358
-0.000120117
-0.000235907
-0.000450851
-0.000450194
-0.000916087
-0.00123025
-0.00222166
-0.00509189
0.00763321
-0.00755993
0.00404796
-0.0124488
-0.0153327
-0.00704257
0.00942931
-0.00132273
0.000613958
0.0113801
4.3371e-05
0.0178654
-0.000140415
-7.73847e-05
-3.56552e-05
-3.85938e-05
-8.17455e-05
4.03821e-05
-9.92465e-05
-0.000148602
1.08464e-05
-0.000183636
0.000122007
8.77336e-05
-9.91299e-05
-4.97929e-05
-0.000288128
0.00297805
0.00213493
0.000321533
-0.00290157
-0.00290202
0.0021354
-0.000288156
0.00297766
-0.000108779
-2.03627e-05
0.000186498
-3.08798e-05
7.4586e-05
8.00836e-05
0.000438189
-0.000138937
0.0059383
0.00426232
-0.000508629
8.50435e-05
6.25231e-06
0.0024137
-4.5887e-05
0.00646185
-0.000113276
0.000138546
0.00058161
0.00295918
0.009404
-0.0039028
0.000285453
-0.00137091
-0.00888588
0.0216792
-0.0128259
0.00102674
-0.000128537
-0.000814477
0.00398981
0.000175635
0.00125419
0.0040639
-0.000124
-0.000840231
0.0012536
0.0122611
0.00828415
0.0207393
0.0118284
0.016905
0.0185686
-0.000716722
0.00198875
0.000995541
0.000473369
-0.000108664
0.00046407
0.000969306
-0.000138608
-0.0005087
8.06427e-05
-2.03402e-05
0.00014588
6.50099e-05
2.50726e-05
5.772e-06
-4.64416e-07
-2.39727e-07
8.32494e-07
3.28497e-05
0.00126613
3.37013e-06
7.58983e-06
9.1861e-05
0.00741832
0.000119728
-0.00030886
-0.000179484
0.000299518
0.000588656
5.75394e-06
-3.16452e-05
-0.00019292
-0.000393218
0.00138995
0.00457279
0.00244326
0.000477154
-0.000123238
0.00193089
0.00105306
0.00273149
0.000438551
-5.27867e-05
0.00112744
-1.11116e-05
-1.37716e-05
-1.10254e-05
3.02747e-06
2.40332e-05
7.47371e-05
0.00018763
-0.000325359
0.00104948
-8.6799e-05
-2.8219e-05
-4.71038e-06
0.0005035
-1.69553e-05
0.000212383
1.40487e-05
1.71287e-06
1.97427e-06
-2.52913e-07
-4.63123e-06
2.29008e-06
1.91656e-06
-7.63999e-06
-1.39773e-06
-9.05679e-08
2.47335e-05
7.98453e-06
-2.57459e-05
-1.47852e-05
1.59904e-05
-2.25102e-06
5.04258e-06
-1.10897e-05
5.98501e-05
0.00385715
-6.32091e-05
-7.58234e-05
0.00198638
-0.000112986
-0.00192105
1.89727e-06
1.41044e-05
1.38897e-06
-6.93216e-05
-2.32564e-05
-0.000459905
-4.39966e-05
-1.96112e-05
-1.183e-05
-4.90639e-06
-1.44063e-05
7.74056e-08
1.68805e-05
0.0123448
0.0102442
6.9867e-05
-0.0013547
6.92068e-05
0.0182927
0.0207402
-5.67019e-06
8.84171e-07
2.69191e-05
1.12145e-05
7.83154e-05
6.63826e-05
-0.00013331
-0.000132754
4.39093e-06
-0.000101942
3.565e-05
1.68759e-05
-8.69814e-06
-1.07374e-05
-8.14799e-06
4.6846e-07
-1.38725e-07
-1.04866e-06
7.11535e-06
1.02379e-05
8.20072e-06
1.90345e-05
2.60692e-05
-2.10918e-05
1.23053e-05
9.94049e-06
2.03986e-05
5.13015e-06
1.44711e-05
1.41074e-05
1.44724e-05
2.03978e-05
9.93897e-06
2.60704e-05
1.23037e-05
-2.10927e-05
3.22035e-05
-5.9234e-06
1.90309e-05
8.20253e-06
1.02426e-05
7.11087e-06
-1.05224e-06
-6.38918e-07
3.569e-05
-3.74574e-05
3.56559e-05
-7.99546e-08
4.74591e-07
-8.1512e-06
-1.07363e-05
-8.69221e-06
-1.97062e-05
3.78357e-06
-2.27612e-05
-2.24208e-06
1.21731e-05
-1.13183e-05
4.97859e-05
-2.52976e-06
1.21572e-05
-2.25365e-06
-2.27491e-05
3.77962e-06
-1.92978e-05
4.86674e-05
-2.32772e-05
-1.4599e-05
5.18954e-05
5.18412e-05
1.34307e-05
-9.44841e-05
-3.04442e-05
0.000205088
2.94206e-05
0.00021238
-0.000287382
1.40654e-05
0.000446961
-0.000520978
0.000312162
-6.83727e-06
-0.000186214
0.000158616
4.66326e-06
1.13765e-05
2.26701e-05
3.30988e-05
1.25014e-05
-0.000114613
-0.000223729
0.00398991
-0.00328217
0.0131235
-0.00991694
0.00158159
0.0123927
-0.0002792
-0.012848
0.00942921
-0.00704242
-0.0153322
-0.0124482
-0.0128258
-0.0133141
0.0216793
0.00424212
0.00295996
-6.77809e-05
-0.00760618
-0.0149436
-0.00707914
-0.0127588
-0.00707874
-0.0149444
-0.00760602
-0.0133147
0.0216791
-0.0124481
-0.0128261
-0.0153327
-0.00704239
0.00942915
-0.0128481
0.0192167
-0.0196733
0.0131233
0.00158195
0.0123929
-0.00991705
0.00620642
0.0143723
0.0102434
0.00766267
0.0177745
0.00641416
0.0041399
0.0101889
-0.0110201
-0.0110198
0.00413994
0.00641366
0.0177743
0.00766259
0.0102431
0.0123429
0.0143735
0.00620737
0.0077883
0.00680322
-0.00372685
0.0182919
0.020258
0.020738
0.0168088
0.0169043
0.0185681
0.0169047
-0.0293858
0.000175374
0.000175763
-0.00857106
0.0168085
0.020738
0.0202581
0.0182926
0.00680288
0.00778827
0.00586663
-0.000313106
-0.000247227
-0.000234975
-0.00638492
-0.0084448
-0.00830548
-0.0192639
-0.0225269
0.00404847
-0.00755998
0.0169217
-0.0122976
0.00977643
-0.00700684
0.0052601
-0.00360235
0.002576
-0.00167099
0.00114312
-0.000700828
0.000459083
-0.00026717
0.000167231
-9.61171e-05
0.000100757
-0.000110418
0.000108902
-0.000101957
7.83127e-05
1.12062e-05
6.64458e-05
-2.33028e-05
4.86813e-05
-1.92872e-05
1.68709e-05
-2.67306e-06
4.66516e-06
1.13923e-05
2.26498e-05
3.3003e-05
1.23517e-05
-0.000114818
-0.000223983
0.0039897
-0.00328211
-0.00120099
0.00204181
0.000535416
-0.0074745
-0.00747457
0.00204182
-0.00120087
0.000535493
-0.00333221
-0.0196734
0.0192167
-0.00132247
-0.0152682
0.00159546
-0.000807429
0.00198647
-0.000254907
-0.000277506
-0.00228716
-0.00104434
-0.00228713
0.00159516
0.004242
0.00940351
0.00296003
-0.00226703
-0.00226692
0.00940366
0.000574789
-0.00576251
0.00646169
0.00646165
-0.000113161
-0.0057625
0.000285471
0.00165889
0.00206284
0.00102687
-0.00888614
0.00101816
0.000400048
0.0132729
-0.00359867
0.00384542
-0.00673333
-0.00912665
-0.0195951
-0.0143358
0.0283535
-0.0143201
0.016437
0.0164376
0.000393365
0.0117943
-0.000207328
-0.00850612
0.0064721
-8.90547e-05
-0.00469169
0.00331372
-2.36351e-05
-0.00231264
0.00154163
-9.98924e-07
-0.00102563
0.000648603
4.4807e-06
-0.000412847
0.000246874
4.12141e-06
-0.000155099
8.52292e-05
3.53493e-06
-6.29977e-05
-6.60962e-06
-4.88947e-05
-4.88956e-05
5.12961e-06
-6.80546e-06
2.4618e-06
-1.18689e-05
-3.19961e-07
7.45213e-06
7.44915e-06
-9.52119e-06
-3.65966e-07
8.78483e-06
8.78374e-06
-7.28048e-06
1.01175e-06
1.56062e-05
1.56003e-05
-3.85629e-06
2.38147e-06
-6.73317e-06
-6.75113e-06
-1.11014e-05
-6.37892e-06
-8.78929e-06
-9.62671e-06
-1.55941e-05
-6.27956e-06
1.12984e-05
-1.93028e-05
1.8837e-06
7.98293e-06
2.47303e-05
-1.79349e-05
-7.64335e-06
-1.39896e-06
-1.40018e-05
-4.81206e-09
1.37943e-05
-2.51743e-05
-2.18639e-07
1.89939e-06
2.45717e-05
-3.07996e-06
-1.803e-07
2.22671e-06
8.52454e-07
3.27e-06
9.41356e-06
2.31978e-05
5.434e-05
0.000126408
0.000172458
2.03837e-05
-0.0168046
0.0178654
-0.0184659
0.0162255
-0.0124421
0.00973374
-0.00725899
0.00526528
-0.0037647
0.00256371
-0.0017622
0.00112729
-0.000746926
0.000447009
-0.000287403
0.000158651
4.38614e-06
-0.000132736
-0.00013336
-9.44409e-05
0.00014694
3.54212e-05
0.000146994
-0.000262145
-0.000361704
-0.000363398
0.000563845
0.000553835
7.16183e-05
-0.000902215
3.02707e-05
-0.00074695
-1.63231e-05
0.000820336
-0.000824881
-4.87405e-06
0.00126603
-0.00119312
0.000761682
2.51255e-06
0.000503462
-2.46613e-06
-0.000315135
0.000179461
-1.17387e-06
0.0001089
-2.02747e-06
-3.74597e-05
-7.48576e-08
-3.07582e-06
1.1299e-05
-6.28403e-06
-1.55962e-05
-9.62677e-06
-8.7848e-06
-6.37844e-06
-1.10856e-05
5.03751e-06
-3.85747e-06
7.60161e-08
-2.57396e-05
7.97592e-06
6.26416e-07
1.88238e-06
2.47276e-05
-1.92974e-05
2.45701e-05
1.89982e-06
-1.62859e-06
-7.28094e-06
1.79165e-06
7.50998e-06
2.08469e-05
4.71487e-05
8.77408e-05
0.00012201
8.52229e-05
6.34634e-06
0.00241366
-0.00251704
-0.00593572
-0.00445511
-0.00192102
0.000976572
-0.000128705
-0.000278736
-0.00137091
-0.0152681
-0.000807358
0.0019863
-0.000112949
0.000138457
0.00029565
-0.00957136
0.00894415
-0.0118934
0.00324852
-0.0314473
0.00317167
-0.011475
3.05986e-06
0.0106049
0.0105224
-0.0136319
-0.000107168
0.00138984
0.00457325
-0.000193248
-0.00509089
-0.00926201
-0.0110879
-0.00138814
-0.00222512
-0.00289986
-0.00123002
-0.000450098
-0.000914398
-0.000698619
-0.000386766
-0.000450647
-2.28735e-05
-0.000277731
0.000119788
0.0125937
-0.0137268
0.0108608
-0.0112392
-0.000319044
0.0136273
-7.60768e-05
-0.000140342
-0.000277628
-0.000255172
-0.00333224
-6.06291e-05
-0.000497204
0.000285803
-0.00390224
-6.77167e-05
0.00686946
-0.00260859
-0.0108216
-0.00150422
0.000575285
-0.000557311
-0.000992679
-0.000775145
-0.000453782
-0.000228202
-0.000105281
-4.5661e-05
-1.66515e-05
-1.03596e-07
1.15824e-05
1.15833e-05
1.21103e-05
-1.13124e-05
-3.48657e-05
-8.66934e-05
-0.000193648
-0.000213143
2.80634e-05
-0.000235638
-0.000120163
-5.5991e-05
-9.1351e-05
2.84099e-05
3.28531e-05
0.00180387
-0.00195383
0.00126601
-0.00130759
-3.58242e-05
0.00194819
-0.00296331
-7.42978e-05
0.00417479
-0.00607686
-0.000152104
0.00803339
-4.04106e-05
-0.00805928
0.00588423
3.33562e-06
0.00741864
-0.0101864
4.8395e-06
4.05419e-05
-7.72893e-05
-3.56131e-05
-1.96761e-05
-0.00418255
0.00287134
5.41561e-06
0.00385702
-0.00553554
-6.33276e-05
9.20388e-05
5.92044e-06
-3.16571e-05
4.30217e-05
0.0113801
0.000614181
-0.00132257
0.00763279
-0.000392779
-0.000510165
0.00244275
0.00828216
0.0122605
0.00394272
0.00273652
0.000477637
-0.000309558
0.000588853
0.000299739
7.62793e-06
3.47755e-06
8.38064e-07
-2.23401e-07
-2.29829e-05
-3.38511e-05
1.87793e-05
1.57426e-05
0.000761691
-0.000824925
0.000503482
-0.00052101
-1.63565e-05
0.000820365
-4.91599e-06
-6.92281e-06
-1.57051e-05
-9.73956e-06
1.51831e-06
4.1158e-06
-0.00119325
-2.41668e-05
-5.79924e-05
0.00154159
-2.81609e-05
-0.00231291
-2.3771e-05
0.00331377
-8.62935e-05
-0.00469194
-8.92666e-05
0.00647183
-0.000227673
-0.008506
-0.000208114
0.0117942
-0.000505844
-0.013445
-0.000780203
0.0229412
0.016445
-0.00276113
0.000581574
0.000581501
0.0229416
-0.000780105
-0.0134449
-0.00276101
-0.0143194
0.00384571
0.0283532
-0.00195384
-0.0143355
-0.0195939
-0.00912626
-0.0225279
-0.00673328
-0.00260843
0.00686947
-0.00390238
0.0010185
0.0020634
-0.00888605
0.00102707
-0.00137099
-0.000497599
-0.000814468
-0.000269154
-4.59448e-05
-0.000162519
0.000206805
-0.000680787
0.000393336
-0.0114281
0.00945318
-0.00700865
0.00508508
0.00508486
4.85312e-06
-0.00371704
2.55389e-05
0.00248708
1.33466e-06
-0.0017511
3.07778e-05
0.00109872
1.15724e-06
-0.000744433
2.51783e-05
0.000436972
1.04782e-07
-0.000290837
2.04426e-05
0.000155773
-1.46445e-06
-0.00011038
1.89537e-05
4.77584e-05
6.58489e-06
4.77549e-05
-6.6114e-06
-6.30028e-05
3.53426e-06
8.52315e-05
5.45078e-06
-0.000155102
4.12364e-06
0.000246872
3.57786e-06
-0.00041286
4.46612e-06
0.000648578
-4.69359e-06
-0.00102565
-1.06062e-06
3.07427e-05
0.0010987
-2.32029e-05
-0.000744385
0.000436955
-0.000290832
0.000155774
6.63158e-06
-0.000110379
1.89471e-05
-5.24294e-06
-1.19432e-05
2.04419e-05
-2.27211e-05
-4.80093e-05
-0.000101792
-0.000197623
-0.000300878
-0.000238002
1.25606e-05
1.28483e-05
-0.0108213
-0.0110877
-0.00138802
-0.000238787
-0.0114274
-0.000508762
0.00945304
5.36868e-05
-0.00700848
-5.55094e-05
-0.00014859
-0.00054433
5.34867e-05
-0.000459648
-0.000357101
4.7685e-06
-0.00371703
0.0024872
-0.00175119
1.27671e-06
-0.000201449
-6.9084e-05
-9.82851e-05
1.13406e-06
-4.12434e-05
1.00793e-07
-1.22095e-06
-1.45249e-05
-1.46361e-06
-1.62919e-06
-1.17507e-05
2.46563e-06
-6.80295e-06
1.31662e-05
4.82333e-06
4.82227e-06
1.31659e-05
6.22113e-06
-2.18828e-06
1.04558e-05
-2.4753e-05
-1.2675e-06
-5.39292e-07
1.90354e-05
1.91684e-06
-1.16336e-05
5.92489e-06
1.55158e-05
9.88035e-06
1.68807e-05
7.45116e-06
-1.64264e-06
-1.67817e-06
-1.5936e-06
-2.15266e-07
1.01163e-05
-1.59328e-06
6.22374e-06
1.04607e-05
-2.18665e-06
-3.59989e-06
-1.26348e-06
1.90379e-05
-5.39596e-07
-2.51482e-06
-2.22482e-07
-2.51759e-05
1.37957e-05
-8.95963e-09
-1.4002e-05
-1.39814e-06
-7.33616e-08
-1.6759e-06
-1.2577e-06
4.49215e-06
-3.60107e-06
-2.46369e-06
-1.46692e-07
1.10754e-06
-7.27918e-08
-8.97027e-08
-8.81772e-08
-1.47101e-07
4.49338e-06
-1.18711e-05
-2.45866e-06
-5.24388e-06
9.48005e-07
2.36954e-06
5.89963e-06
1.38165e-05
3.28803e-05
8.4715e-05
-9.93868e-05
-0.00050806
-9.93852e-05
0.000172324
-0.000505565
0.016922
2.01652e-05
0.0125941
5.05304e-06
0.0108611
-4.06382e-05
0.00803409
-0.000152209
-0.00607666
0.00526565
7.34359e-05
0.00298485
0.0029778
0.000283607
-0.00412721
0.00590517
0.00593871
0.000374907
-0.00766632
1.48724e-05
-0.00725992
0.00973377
-0.0112392
0.0136271
-0.000318644
-0.0124428
-0.000106764
0.0105217
0.0106053
2.67283e-06
-0.0136315
0.0162262
-0.0184659
-7.5864e-05
-0.0137268
0.0178655
-0.0168044
0.0113806
0.000295731
-0.00957132
-0.0003756
0.00894433
-0.000718498
-0.0118938
-0.0093203
0.00324848
0.00317238
-0.0314481
0.0122612
0.0118277
0.0012534
-0.00071681
-0.00862893
-6.21226e-05
0.00756697
0.00756804
-0.000839333
-0.00723224
0.000374978
0.00593806
0.00590594
-0.0076663
1.43636e-05
-0.00412725
0.000283793
0.00297764
0.00298512
7.33253e-05
-0.00202755
0.000154981
0.00135041
0.00136348
5.50288e-05
0.000145995
6.50794e-05
2.50767e-05
5.77209e-06
-4.68531e-07
-6.07107e-06
-8.2863e-06
1.1005e-05
6.77212e-06
0.000290484
-0.000315146
0.00017948
-0.000186233
-6.82899e-06
0.000312183
-2.48076e-06
-3.03246e-06
-1.28064e-06
-1.17879e-06
-1.32506e-07
-2.20441e-07
-3.82342e-05
-1.44012e-05
2.86368e-06
7.24481e-06
1.03036e-05
2.62568e-06
-2.0291e-07
-1.39962e-07
7.93436e-08
-4.56235e-06
-1.11093e-05
-2.52955e-05
-5.28088e-05
-0.000101424
-0.000179782
8.10017e-05
0.00105105
0.00193028
0.000969055
0.000440684
-2.01521e-05
-0.000108729
-0.000138779
-0.00398475
-0.00290215
0.00032135
0.00213477
0.00213523
-0.000288162
-0.00144479
0.000180752
0.000964599
0.000964802
-0.000149166
-0.00088917
7.16804e-05
0.000553853
0.000563909
-0.000902265
3.02775e-05
-3.05538e-05
0.000188541
0.000463918
0.000205483
7.4835e-05
-2.22922e-05
-3.55951e-05
-0.000361718
2.9418e-05
0.000205132
0.000212398
-0.000363373
1.40522e-05
-1.37805e-05
2.39984e-05
8.144e-05
2.69204e-05
2.98044e-06
-1.10351e-05
-2.96828e-06
-5.70187e-06
8.83361e-07
-1.35824e-05
-1.5392e-05
-1.40311e-05
-1.19222e-05
-1.45833e-05
-1.53068e-05
-1.35925e-05
1.599e-05
-1.4963e-05
1.41387e-05
2.75909e-05
-1.69417e-05
-3.04471e-05
-9.65654e-06
9.2102e-08
1.42192e-06
-0.000168305
-4.25109e-06
4.76996e-07
2.50971e-06
-0.000474217
-1.18253e-05
-2.76994e-05
2.51889e-05
-2.76897e-05
-5.79928e-05
-0.000104641
5.42993e-05
0.000126352
-0.000227992
0.00977648
-3.50727e-05
0.0074189
3.48797e-06
0.00588415
-1.97752e-05
0.00417505
-7.44063e-05
-0.0029633
0.00256387
5.50883e-05
0.00136336
0.00135053
0.000154904
-0.00202734
-0.00198121
-0.000288241
-0.00144443
-0.000108815
0.000994997
0.00198749
0.00406301
-0.000124246
-0.000124203
0.0012532
-0.000716694
-0.0114763
-0.0086275
-0.000340531
0.000138486
4.04515e-05
-0.000140376
-7.73862e-05
-8.17395e-05
1.08877e-05
-0.000148523
-5.55908e-05
-0.000104639
2.55908e-05
3.893e-06
-3.85662e-05
-1.75784e-05
-7.92412e-06
-3.55418e-06
-1.5119e-06
-5.25611e-07
2.28837e-06
2.22834e-06
8.53139e-07
3.28035e-06
9.41299e-06
2.31694e-05
-2.79995e-05
0.0025758
-4.39542e-05
0.00180395
4.1457e-06
-0.00195381
-9.742e-06
0.00194816
-3.58272e-05
-0.00130758
0.0011273
-0.0017623
-5.2879e-05
3.27629e-05
2.84819e-05
-0.00019366
-0.000386784
-0.000697808
-0.000299621
-0.000197046
-0.000101502
-4.78679e-05
-8.67548e-05
-3.48953e-05
-2.26467e-05
-9.84227e-06
-1.13006e-05
1.21129e-05
7.25735e-06
1.03154e-05
-9.61086e-05
-4.24575e-06
0.000100757
-2.1709e-07
3.56904e-05
7.76646e-08
-1.80421e-07
-1.28088e-06
-3.03027e-06
-6.92466e-06
-1.57316e-05
-3.55784e-05
1.09422e-05
3.87091e-06
5.33489e-06
-0.00270507
0.00287131
-0.00418263
0.00385729
-0.00360236
-6.34304e-05
0.00525993
-8.63706e-05
-0.00700681
-2.23852e-05
-0.000277168
-0.0122978
-0.00289891
-0.00756029
0.00763342
-0.00830725
-0.0192624
0.00404873
-0.00926001
-0.00509027
-0.00844435
-0.00638447
0.000614363