/*--------------------------------*- C++ -*----------------------------------*\
| =========                 |                                                 |
| \\      /  F ield         | OpenFOAM: The Open Source CFD Toolbox           |
|  \\    /   O peration     | Version:  2306                                  |
|   \\  /    A nd           | Website:  www.openfoam.com                      |
|    \\/     M anipulation  |                                                 |
\*---------------------------------------------------------------------------*/
FoamFile
{
    version     2.0;
    format      ascii;
    arch        "LSB;label=32;scalar=64";
    class       volScalarField;
    location    "0.8";
    object      gradTz;
}
// * * * * * * * * * * * * * * * * * * * * * * * * * * * * * * * * * * * * * //

dimensions      [0 -1 0 1 0 0 0];

internalField   nonuniform List<scalar> 
2658
(
-0.0675213
-0.0638781
-0.0395187
-0.0353622
-0.0464709
-0.047403
-0.0382551
-0.0371095
-0.0353335
-0.0472796
-0.0519126
-0.0442772
-0.0618928
-0.0587957
-0.0595926
-0.0611637
-0.06009
-0.0610364
-0.0594526
-0.0579895
-0.0608288
-0.0548164
-0.0621728
-0.0453189
-0.0719916
-0.0608174
-0.0550681
-0.0632418
-0.0654764
-0.0551829
-0.0654758
-0.055068
-0.0608167
-0.0621718
-0.0719914
-0.045318
-0.0554268
-0.0828066
-0.0548157
-0.0608303
-0.0579903
-0.0594527
-0.0610357
-0.0844295
-0.050077
-0.0495489
-0.0519127
-0.0844179
-0.0611645
-0.0595929
-0.0587951
-0.0618934
-0.0555006
-0.0861453
-0.0619507
-0.0596511
-0.0844082
-0.0497612
-0.0459068
-0.0610958
-0.0844093
-0.059652
-0.0619513
-0.0861456
-0.0523507
-0.0443643
-0.0517873
-0.0443151
-0.0467984
-0.0467973
-0.0357516
-0.0373958
-0.027058
-0.0291408
-0.0208491
-0.0288862
-0.0290554
-0.020818
-0.0220275
-0.0215253
-0.0290554
-0.0270421
-0.0371981
-0.0383748
-0.0333504
-0.0196014
-0.0104925
-0.005074
-0.00221794
-0.000878674
-0.000318137
-0.000139724
-8.68787e-05
-7.56096e-05
-7.0354e-05
-9.0844e-05
-6.88952e-05
-9.98291e-05
-6.87882e-05
-6.91783e-05
-9.96657e-05
-6.99874e-05
-8.70141e-05
-8.33115e-05
-7.11408e-05
-8.8281e-05
-6.66448e-05
-0.00014039
-6.87214e-05
-9.05186e-05
-8.2767e-05
-6.85021e-05
-9.08028e-05
-6.84999e-05
-8.27685e-05
-9.0525e-05
-7.11464e-05
-8.82816e-05
-8.70145e-05
-8.3311e-05
-6.99756e-05
-9.96539e-05
-6.91762e-05
-6.87845e-05
-7.9366e-05
-7.97041e-05
-7.56075e-05
-9.08501e-05
-6.8895e-05
-7.03567e-05
-0.000101053
-7.04648e-05
-8.42239e-05
-7.02537e-05
-9.15252e-05
-7.18826e-05
-7.20755e-05
-9.80775e-05
-7.93164e-05
-7.93188e-05
-7.20713e-05
-7.18819e-05
-7.49282e-05
-7.59045e-05
-9.43739e-05
-7.5871e-05
-9.33209e-05
-0.000101025
-6.48978e-05
-6.52057e-05
-5.91999e-05
-8.7819e-05
-9.6447e-05
-5.41442e-05
-7.82441e-05
-7.65183e-05
-7.00032e-05
-7.48897e-05
-6.76467e-05
-7.43017e-05
-7.62485e-05
-6.83843e-05
-7.62329e-05
-7.34455e-05
-6.63219e-05
-7.34335e-05
-6.82164e-05
-7.88085e-05
-0.000135334
-0.00015413
-0.000298903
-0.00053104
-0.000892223
-0.00145819
-0.00233912
-0.00363664
-0.00553692
-0.00819281
-0.0118306
-0.0166589
-0.0227986
-0.0304965
-0.0396387
-0.0491337
-0.0474369
-0.0465106
-0.0470041
-0.0472789
-0.0464703
-0.0353616
-0.0474035
-0.0517864
-0.0443643
-0.0523507
-0.0442773
-0.0712587
-0.0333503
-0.0196013
-0.0104924
-0.00507394
-0.0022179
-0.000878649
-0.000318127
-0.000139724
-8.68798e-05
-6.5252e-05
-7.31983e-05
-0.000140295
-7.50151e-05
-7.50164e-05
-7.32003e-05
-6.52528e-05
-0.000140296
-6.77131e-05
-7.97034e-05
-7.93675e-05
-9.01999e-05
-7.53981e-05
-8.62213e-05
-6.50033e-05
-6.76297e-05
-8.92347e-05
-0.000143046
-0.000140152
-0.000151875
-0.000140149
-8.62206e-05
-6.66435e-05
-7.43725e-05
-0.000140389
-7.69248e-05
-7.69257e-05
-7.43727e-05
-9.34403e-05
-7.32982e-05
-7.46124e-05
-7.46129e-05
-0.000139298
-7.32993e-05
-8.21433e-05
-6.99612e-05
-6.87405e-05
-6.31636e-05
-7.40769e-05
-6.84487e-05
-7.18444e-05
-0.000115699
-0.000135518
-9.67946e-05
-0.000116137
-7.38005e-05
-6.04651e-05
-7.63473e-05
-0.000102832
-0.000211433
-0.000329664
-0.000329665
-0.000274365
-0.000562241
-0.000453403
-0.000934949
-0.00153755
-0.00121282
-0.00243482
-0.0038115
-0.00294569
-0.00575617
-0.00855174
-0.00646854
-0.0123026
-0.017321
-0.0128206
-0.0237273
-0.031634
-0.022895
-0.0410217
-0.0528799
-0.038326
-0.0616566
-0.0439632
-0.0578398
-0.0578395
-0.0632408
-0.0649353
-0.0564873
-0.0520855
-0.076351
-0.0495304
-0.0495307
-0.0499571
-0.0763718
-0.0505772
-0.0505774
-0.0483683
-0.0758234
-0.0623463
-0.062346
-0.0754781
-0.108188
-0.0754783
-0.0767579
-0.106985
-0.0766514
-0.0892362
-0.0743726
-0.0725511
-0.0595924
-0.0691331
-0.0841985
-0.0768926
-0.0483682
-0.0463783
-0.0752558
-0.0598959
-0.0767848
-0.10699
-0.0766994
-0.0848386
-0.0779327
-0.0787185
-0.0779323
-0.0752558
-0.0595922
-0.0725515
-0.0766492
-0.106985
-0.0767571
-0.069134
-0.0841986
-0.0848387
-0.0767028
-0.106989
-0.0767858
-0.0598957
-0.0690738
-0.0759673
-0.108268
-0.0755625
-0.0625794
-0.075924
-0.04829
-0.062399
-0.0673958
-0.0684557
-0.0351913
-0.0207829
-0.0111491
-0.00539757
-0.00236072
-0.000935055
-0.000338161
-0.000316609
-0.000294779
-0.000293214
-0.000293252
-0.000296173
-0.000506629
-0.000861816
-0.00138783
-0.00225544
-0.00346393
-0.00533766
-0.00781034
-0.0114129
-0.0158894
-0.0220274
-0.0290547
-0.038375
-0.0353328
-0.0371095
-0.0382546
-0.0373967
-0.0290183
-0.0212227
-0.0290186
-0.0216281
-0.0219841
-0.0214455
-0.0156174
-0.0159375
-0.0110473
-0.0111479
-0.0110253
-0.0158899
-0.015227
-0.0158539
-0.01576
-0.0112254
-0.0112641
-0.0112481
-0.0158401
-0.0152151
-0.0216914
-0.0211306
-0.0287926
-0.0376025
-0.0356502
-0.0470041
-0.0443621
-0.0495493
-0.0844183
-0.0690741
-0.0623984
-0.0482897
-0.0684173
-0.0467648
-0.0368342
-0.0347016
-0.020564
-0.0110311
-0.00533873
-0.00233391
-0.000924416
-0.000335294
-0.000143046
-8.92316e-05
-6.76276e-05
-0.000139295
-6.5001e-05
-7.53977e-05
-9.01985e-05
-0.000150721
-0.00015264
-0.000153061
-0.000153174
-0.000153852
-0.000137712
-8.59503e-05
-0.000168182
-0.000302135
-0.000320094
-0.000522334
-0.000485036
-0.00028793
-0.000313117
-0.0003439
-0.000134085
-0.000134531
-0.000132602
-0.000115619
-0.00013882
-0.000364026
-0.00033536
-0.000200268
-0.00034322
-0.000968695
-0.000960469
-0.000998191
-0.00251366
-0.00247893
-0.00160483
-0.000593603
-0.000569666
-0.000501706
-0.00050431
-0.000850577
-0.000848717
-0.000535021
-0.000504518
-0.000320976
-0.000344084
-0.000967136
-0.00249431
-0.00249411
-0.00577736
-0.00576117
-0.00574188
-0.0118652
-0.0120786
-0.0085632
-0.0039031
-0.00377958
-0.00344592
-0.00343924
-0.00527289
-0.00524899
-0.00349496
-0.00344883
-0.00221967
-0.00143656
-0.00138092
-0.000901444
-0.00137849
-0.00222788
-0.00143713
-0.00137852
-0.000854884
-0.00053492
-0.000615209
-0.000594897
-0.000562232
-0.000264009
-0.000334715
-0.000160055
-0.000182287
-8.22425e-05
-0.00016541
-0.000204777
-0.000210722
-0.000189229
-0.000196678
-0.000196921
-0.000150864
-0.000205823
-0.000117102
-0.000134176
-0.000358391
-0.000331518
-0.000604023
-0.000569548
-0.000968059
-0.00249332
-0.00578511
-0.00579132
-0.0121156
-0.0120609
-0.0227413
-0.022896
-0.0221571
-0.0372356
-0.0395326
-0.0303636
-0.0169715
-0.0166153
-0.0158395
-0.0157594
-0.0216911
-0.0215249
-0.015227
-0.0158536
-0.0112013
-0.00768184
-0.00778165
-0.00536926
-0.00775126
-0.0112638
-0.00768057
-0.0077758
-0.00527545
-0.00349605
-0.00393105
-0.00163288
-0.00157267
-0.0015375
-0.000745821
-0.000934908
-0.000453393
-0.000464703
-0.000921432
-0.00150481
-0.00238066
-0.00238064
-0.00190635
-0.0037037
-0.0029985
-0.00560069
-0.00438788
-0.00828397
-0.00657023
-0.0119242
-0.0091335
-0.0167388
-0.0129824
-0.0229165
-0.0171525
-0.0304218
-0.0230782
-0.0398014
-0.0290023
-0.0488109
-0.0372274
-0.0633841
-0.0530383
-0.063384
-0.0439632
-0.0616553
-0.0383255
-0.0528797
-0.0291303
-0.0410209
-0.0228947
-0.0316337
-0.0172986
-0.0237269
-0.0128205
-0.017321
-0.00920193
-0.0123024
-0.00646836
-0.00855172
-0.00441081
-0.00575594
-0.0029456
-0.00381148
-0.00190799
-0.00243472
-0.00121278
-0.00123756
-0.00165927
-0.000645232
-0.000242463
-0.000112514
-9.64972e-05
-0.000158272
-0.000392418
-0.00101885
-0.00250987
-0.00567841
-0.0116513
-0.0215549
-0.0357265
-0.0511688
-0.0633247
-0.0612157
-0.0612156
-0.0551145
-0.0664158
-0.0485784
-0.0389698
-0.0633882
-0.0451415
-0.0505881
-0.044326
-0.0452814
-0.0441183
-0.0372272
-0.0488101
-0.0290018
-0.0398013
-0.0339462
-0.0352347
-0.0208402
-0.0171521
-0.0229165
-0.0304209
-0.0230785
-0.0284693
-0.0160944
-0.0129823
-0.0167383
-0.00913336
-0.0119244
-0.0106641
-0.0111861
-0.00542324
-0.00237849
-0.00190631
-0.00370354
-0.00560079
-0.00828371
-0.00657002
-0.00820338
-0.00377563
-0.00248123
-0.000983795
-0.00035953
-0.000348276
-0.000274365
-0.000564988
-0.00032954
-0.000564993
-0.000464707
-0.000921437
-0.000752914
-0.00150489
-0.00123759
-0.00157269
-0.000947682
-0.000752881
-0.000886938
-0.000594898
-0.00020478
-0.000182292
-0.000160062
-0.000334729
-0.000165418
-0.000211435
-9.6793e-05
-0.000102833
-0.000129306
-7.635e-05
-6.04656e-05
-7.37972e-05
-7.88073e-05
-0.000116145
-8.08366e-05
-6.97211e-05
-8.14221e-05
-6.84445e-05
-6.87345e-05
-7.40793e-05
-6.31582e-05
-7.72939e-05
-6.9796e-05
-7.14481e-05
-6.97977e-05
-6.34675e-05
-9.98289e-05
-7.72951e-05
-8.2146e-05
-8.14245e-05
-6.87199e-05
-6.97233e-05
-8.08337e-05
-8.27416e-05
-6.92788e-05
-6.40644e-05
-7.804e-05
-7.55456e-05
-6.99392e-05
-7.99195e-05
-6.84648e-05
-8.83144e-05
-9.00546e-05
-0.000139963
-7.03502e-05
-9.37814e-05
-0.000150119
-0.000152817
-9.53777e-05
-0.000360577
-0.000984989
-0.00248337
-0.00567675
-0.005674
-0.0117242
-0.0218559
-0.0368938
-0.0648753
-0.0602983
-0.0967217
-0.056487
-0.0649367
-0.0920859
-0.0764658
-0.0764639
-0.0920862
-0.0973427
-0.0568635
-0.0779837
-0.07368
-0.0754859
-0.0469833
-0.0607308
-0.068413
-0.0773477
-0.107397
-0.0776648
-0.0901858
-0.07214
-0.0836028
-0.0777061
-0.079416
-0.0800375
-0.0854528
-0.102736
-0.0800402
-0.097343
-0.0779852
-0.0568629
-0.0496208
-0.0754856
-0.0607302
-0.046983
-0.0476853
-0.0759241
-0.0625806
-0.0755613
-0.108267
-0.0759683
-0.0840402
-0.0790515
-0.079416
-0.080166
-0.0782818
-0.0496205
-0.0712822
-0.075758
-0.0834624
-0.0790531
-0.0774626
-0.0840402
-0.0765996
-0.0768929
-0.0463785
-0.0684173
-0.0467647
-0.0443619
-0.047754
-0.0391044
-0.0228713
-0.0299034
-0.0290496
-0.0287918
-0.0376029
-0.0371974
-0.0270421
-0.0290551
-0.02113
-0.0300518
-0.0229158
-0.0121106
-0.0166759
-0.00835331
-0.00378177
-0.00154447
-0.00154479
-0.00223343
-0.0022952
-0.00163475
-0.00133874
-0.000891134
-0.00140612
-0.00225677
-0.00227928
-0.00348548
-0.00335773
-0.00221117
-0.00226869
-0.00522345
-0.00527964
-0.00783935
-0.00761355
-0.00526501
-0.0111477
-0.0110471
-0.0159376
-0.0156172
-0.0110252
-0.0214452
-0.0208489
-0.0291411
-0.0288859
-0.020818
-0.0315903
-0.0393455
-0.0638745
-0.0633018
-0.0600916
-0.0475457
-0.0461289
-0.0510624
-0.0396175
-0.0395183
-0.0230734
-0.0122131
-0.00584639
-0.00253191
-0.00099385
-0.000946278
-0.00156823
-0.00144284
-0.00139738
-0.000919846
-0.00139746
-0.00223801
-0.0023393
-0.00346682
-0.00346669
-0.00223807
-0.0023311
-0.000926647
-0.000340687
-0.000216168
-0.000189062
-0.000196765
-0.000167741
-0.000112587
-0.000167762
-0.000311852
-0.000336478
-0.000518916
-0.000518869
-0.000311877
-0.000217983
-0.000182618
-9.81309e-05
-9.81252e-05
-7.26485e-05
-8.84845e-05
-0.00018263
-0.000168189
-8.59449e-05
-0.000137717
-0.000287932
-0.000320114
-0.000485081
-0.000522322
-0.000302168
-0.00019677
-0.00021617
-0.000210725
-0.000338166
-0.000264013
-0.000298908
-0.000316613
-0.000501712
-0.00053492
-0.000850591
-0.000901489
-0.00138098
-0.0014366
-0.00221971
-0.00225549
-0.00226882
-0.00335792
-0.00348551
-0.00227944
-0.00221124
-0.00133885
-0.00140612
-0.000891188
-0.000847304
-0.000882969
-0.00138789
-0.000861832
-0.000848734
-0.000504534
-0.000535039
-0.000506651
-0.000313134
-0.000296179
-0.000293256
-0.000320982
-0.000504322
-0.000293219
-0.000294783
-0.000152641
-0.000189226
-0.000153061
-8.02271e-05
-0.000153178
-0.00018906
-0.00015385
-7.36585e-05
-7.43005e-05
-7.62462e-05
-0.000150861
-0.000196931
-0.000196681
-0.000200278
-0.000138824
-0.000112517
-0.000242469
-0.000645251
-0.000364025
-0.000998296
-0.00165934
-0.00393722
-0.00251387
-0.00574227
-0.00849388
-0.00849371
-0.00393707
-0.00299841
-0.0165528
-0.0165531
-0.0118657
-0.0221575
-0.029009
-0.0290079
-0.0447241
-0.0447249
-0.0372359
-0.0551154
-0.0664232
-0.0485788
-0.0491356
-0.0354352
-0.0474369
-0.0443261
-0.0500772
-0.0461289
-0.067396
-0.0684559
-0.0351916
-0.0207831
-0.0111492
-0.00539766
-0.00236075
-0.000935067
-0.000745844
-0.000892246
-0.000893947
-0.00137855
-0.00143719
-0.00222791
-0.00231542
-0.00344896
-0.00349499
-0.00524913
-0.00533774
-0.00526522
-0.00761375
-0.00783928
-0.00527978
-0.0052235
-0.00533556
-0.0035028
-0.00527628
-0.00540368
-0.00780009
-0.00780003
-0.00527635
-0.00350281
-0.00533535
-0.00380642
-0.00254528
-0.00100635
-0.000372875
-0.000143381
-0.000218014
-0.000134163
-7.81907e-05
-5.41982e-05
-8.31291e-05
-9.15154e-05
-7.02615e-05
-8.42259e-05
-9.00497e-05
-7.04592e-05
-0.000101048
-6.7638e-05
-7.48872e-05
-0.000139958
-6.99993e-05
-7.6517e-05
-0.000117089
-0.000134084
-0.000134524
-0.0001326
-6.63217e-05
-7.34468e-05
-0.000150721
-7.62312e-05
-6.83878e-05
-7.48623e-05
-0.000154134
-8.22437e-05
-0.000135333
-7.3432e-05
-6.82115e-05
-0.000115609
-0.000343232
-0.000335372
-0.000593648
-0.000531058
-0.0005697
-0.000854912
-0.00096876
-0.000960595
-0.00160493
-0.00145827
-0.00233919
-0.00229525
-0.00344605
-0.0034961
-0.00527561
-0.005273
-0.00536949
-0.00778184
-0.00768175
-0.0112017
-0.011413
-0.00781062
-0.00835355
-0.00833792
-0.00777608
-0.00768077
-0.00775155
-0.00533878
-0.00233395
-0.000924434
-0.0003353
-0.000615214
-0.00163289
-0.00393107
-0.00377565
-0.00820344
-0.00855859
-0.00855855
-0.0168134
-0.0152146
-0.021603
-0.0209241
-0.0297161
-0.0270051
-0.0373767
-0.0354346
-0.0306284
-0.0173179
-0.00880618
-0.00404106
-0.00167752
-0.000631943
-0.000540893
-0.000864742
-0.000864096
-0.000864056
-0.000864822
-0.000540889
-0.00063195
-0.00167754
-0.00144288
-0.0022569
-0.00156833
-0.000592155
-0.000358419
-0.000993897
-0.00253204
-0.00380651
-0.00399008
-0.00163486
-0.00154458
-0.00154489
-0.00223351
-0.00249423
-0.00247916
-0.00390338
-0.00363682
-0.00553706
-0.00531894
-0.00819312
-0.0118307
-0.0111141
-0.0166598
-0.022799
-0.020925
-0.0290504
-0.0270053
-0.0373773
-0.0396391
-0.0291307
-0.0304972
-0.0172988
-0.0303647
-0.0169721
-0.00856362
-0.00576182
-0.00577776
-0.0120618
-0.0120801
-0.0227429
-0.0228985
-0.0389716
-0.0395314
-0.0633911
-0.0451417
-0.0554269
-0.0828081
-0.0721402
-0.0776641
-0.107397
-0.0773481
-0.0684132
-0.0844303
-0.0505891
-0.0475463
-0.0465116
-0.0347017
-0.0205642
-0.0110312
-0.0117243
-0.0218405
-0.0297162
-0.0284693
-0.0160945
-0.0168135
-0.017318
-0.0109985
-0.00532545
-0.00880623
-0.00404109
-0.0076933
-0.0114007
-0.0112512
-0.0112811
-0.0158651
-0.015865
-0.0112512
-0.0076932
-0.0114004
-0.00838152
-0.00879588
-0.00570243
-0.00398996
-0.00244644
-0.0175408
-0.0120046
-0.0167113
-0.0219838
-0.0216282
-0.0152444
-0.0205003
-0.0346032
-0.0673014
-0.0637702
-0.0499572
-0.0676497
-0.0452815
-0.0441185
-0.0712828
-0.0520859
-0.0782814
-0.0757581
-0.0834619
-0.083602
-0.0736819
-0.0901859
-0.077707
-0.0774635
-0.0805812
-0.0712589
-0.049761
-0.0477337
-0.0393482
-0.0300822
-0.0270579
-0.0477332
-0.0638779
-0.0675229
-0.058718
-0.0634068
-0.0610961
-0.0601442
-0.0443149
-0.0230645
-0.0122354
-0.00586478
-0.00838161
-0.00584654
-0.0122129
-0.0167114
-0.0152446
-0.017541
-0.00879608
-0.00578535
-0.00249349
-0.000968131
-0.000343917
-0.000344088
-0.000967178
-0.00249441
-0.00377987
-0.00343937
-0.00579162
-0.0121161
-0.0166162
-0.0216033
-0.0299042
-0.0300517
-0.0166767
-0.0121108
-0.0229163
-0.0228726
-0.0391059
-0.0633038
-0.0477536
-0.039347
-0.0638749
-0.0510632
-0.0315905
-0.0300827
-0.0230736
-0.0228599
-0.0396181
-0.0120057
-0.00378195
-0.00346407
-0.000569593
-0.000604071
-0.000205831
-0.000331566
-0.000946394
-0.00244673
-0.00570357
-0.0306285
-0.022857
-0.00920215
-0.00441091
-0.00190808
-0.00137852
-0.000592126
-0.000847284
-0.000882923
-6.40613e-05
-6.92784e-05
-8.27425e-05
-7.9919e-05
-7.14784e-05
-6.99331e-05
-7.55426e-05
-7.80432e-05
-6.3469e-05
-8.83144e-05
-6.84581e-05
-9.80771e-05
-9.65717e-05
-7.26453e-05
-8.84859e-05
-7.49501e-05
-8.30993e-05
-0.00833738
-0.0112478
-0.0111139
-0.0356492
-0.0476852
-0.0676496
-0.076596
-6.77103e-05
-5.66194e-05
-0.00438789
-0.00512813
-0.00223276
-0.0200227
-0.00531867
-0.0112251
-0.000893906
-0.00231534
-7.48656e-05
-8.02269e-05
-7.36528e-05
-0.0743723
-0.089236
-0.0765518
-0.0772382
-0.0765501
-0.0555012
-0.0587189
0.000117088
0.000134169
0.000358384
0.000320093
0.000287921
0.000302132
0.000522335
0.000485021
0.000313106
0.000296169
0.000153847
7.36533e-05
7.48962e-05
6.76559e-05
7.43075e-05
7.62527e-05
6.83964e-05
7.62388e-05
7.34541e-05
6.63342e-05
7.3444e-05
6.82393e-05
7.88123e-05
8.22416e-05
0.000116143
7.38037e-05
6.04679e-05
8.0832e-05
7.63464e-05
5.66265e-05
7.63455e-05
6.04648e-05
7.38023e-05
7.8813e-05
0.000116144
8.22423e-05
0.000154129
0.000135326
6.82348e-05
7.34404e-05
6.63333e-05
7.34543e-05
7.62363e-05
0.000150721
0.000153053
0.00015317
0.000153843
0.000150854
7.62525e-05
7.43044e-05
6.76541e-05
7.48971e-05
7.00233e-05
0.000139956
7.65196e-05
8.84845e-05
0.000182622
0.000167758
0.000112579
9.81263e-05
0.000182608
8.84814e-05
7.65147e-05
0.000139961
0.000137706
8.59428e-05
0.000168175
0.000196772
0.000311878
0.00031185
0.000336472
0.000518856
0.000540881
0.000864728
0.00089113
0.000847269
0.000861796
0.000882898
0.00138778
0.00138088
0.000848692
0.000535014
0.00050451
0.000506612
0.000318122
0.000878636
0.00221787
0.00507389
0.0104923
0.0196011
0.0333501
0.0712587
0.0752555
0.0598956
0.0767862
0.0690736
0.0759676
0.108267
0.0755616
0.0773475
0.107398
0.0776635
0.07214
0.0901856
0.0779835
0.0736801
0.0496204
0.0712822
0.0568632
0.0973425
0.0920855
0.0764658
0.102737
0.0764633
0.0920858
0.097342
0.0779841
0.0736801
0.07214
0.0901857
0.0776635
0.107396
0.0773474
0.0755616
0.0625794
0.0623988
0.0598954
0.0690737
0.0759675
0.0767863
0.106988
0.0767021
0.0892363
0.0766486
0.106984
0.0767574
0.0754775
0.0691338
0.062346
0.0623461
0.0754778
0.0767578
0.106983
0.0766512
0.0892358
0.0743719
0.0766995
0.106988
0.0587945
0.0618921
0.0861452
0.0555003
0.0619511
0.058718
0.0596515
0.0610959
0.0601436
0.061096
0.0459068
0.0497612
0.0497613
0.0844082
0.0596511
0.0587171
0.061951
0.0555017
0.0618931
0.0587942
0.0595925
0.0611632
0.060089
0.061036
0.059452
0.0579892
0.0608282
0.0548171
0.0621711
0.0828071
0.0554268
0.0491348
0.0396387
0.0304973
0.0227985
0.0166597
0.0118306
0.00819316
0.00553697
0.00363677
0.00233915
0.00145825
0.000892235
0.000531056
0.000298903
0.00029478
0.00029321
0.00029325
0.000296168
0.000287921
0.000320101
0.000302163
0.000168179
8.59435e-05
0.000137708
7.36557e-05
0.000139723
0.000318131
0.000878659
0.00221791
0.00507394
0.0104924
0.0196012
0.0333502
0.0712586
0.0752554
0.0463783
0.0483679
0.0684172
0.0505773
0.050577
0.048368
0.0463783
0.0684172
0.0482897
0.0623981
0.0625797
0.0684129
0.0607298
0.0754855
0.046983
0.0476852
0.0759238
0.0673958
0.0684557
0.0648751
0.0684556
0.0754854
0.0496202
0.0520851
0.0712821
0.0564868
0.0564868
0.0520851
0.0763511
0.0495308
0.049957
0.0499567
0.0676496
0.0495303
0.0757577
0.0801665
0.0794153
0.0777052
0.0836024
0.0800376
0.085453
0.0967208
0.0602981
0.0439627
0.071991
0.0608162
0.0550673
0.0654761
0.0578389
0.0633834
0.0488102
0.0488098
0.029002
0.0410208
0.0228942
0.0316336
0.023727
0.0128205
0.0173208
0.0123024
0.00646839
0.00855168
0.00575605
0.00294561
0.00381146
0.00243478
0.00121278
0.00153751
0.000934917
0.000453382
0.000562225
0.000334717
0.000160055
0.000182284
9.67936e-05
0.000102825
0.000102825
8.0831e-05
6.97211e-05
7.69237e-05
7.43709e-05
9.34358e-05
7.32962e-05
7.32951e-05
7.46093e-05
9.53713e-05
7.50136e-05
7.50124e-05
7.31956e-05
9.37739e-05
7.93116e-05
7.93132e-05
7.20672e-05
9.3316e-05
7.58689e-05
7.59046e-05
8.31223e-05
9.152e-05
7.02721e-05
8.42462e-05
7.04763e-05
0.000101072
7.03679e-05
7.56096e-05
8.68777e-05
6.84577e-05
8.83152e-05
9.00626e-05
7.55444e-05
7.80434e-05
6.89072e-05
9.98636e-05
6.88013e-05
7.93651e-05
8.92283e-05
6.77098e-05
7.97001e-05
9.08359e-05
0.000143047
0.00014015
0.000338162
0.000935053
0.00236073
0.00539763
0.0111491
0.020783
0.0351913
0.035435
0.0474369
0.0465111
0.047004
0.0472788
0.0383749
0.0290546
0.0220273
0.0158894
0.0114128
0.00781046
0.00533764
0.00346399
0.00225542
0.00138785
0.00086181
0.000506641
0.00031312
0.000485051
0.000522306
0.000518911
0.000864035
0.00091981
0.000864094
0.00139735
0.0014061
0.00133874
0.00221115
0.00225677
0.00227926
0.00335771
0.00226864
0.0022554
0.00143655
0.00221962
0.00222783
0.00231527
0.00343915
0.00344579
0.00223343
0.00143711
0.00137844
0.000901438
0.000850559
0.000504299
0.000320965
0.000293246
0.000189054
0.000153167
0.000150854
9.08472e-05
7.03634e-05
0.00010107
7.04742e-05
8.4248e-05
7.02625e-05
9.15297e-05
8.30902e-05
7.49562e-05
7.20691e-05
7.18773e-05
9.80712e-05
6.8464e-05
6.52526e-05
8.68799e-05
8.83147e-05
7.5608e-05
7.97043e-05
6.77125e-05
0.000140293
7.31958e-05
0.000150116
0.000340683
0.000926632
0.00233108
0.00532541
0.0109985
0.0205003
0.034603
0.0673013
0.0758231
0.0787181
0.0779321
0.0765972
0.0840392
0.0774648
0.108266
0.0834612
0.060731
0.046983
0.0476848
0.0676495
0.0452814
0.0443259
0.0500772
0.0495488
0.0519126
0.0523507
0.0443646
0.0517867
0.0474032
0.0353619
0.0382545
0.0371095
0.0464702
0.035333
0.0393455
0.0638747
0.0633029
0.063391
0.0664232
0.055115
0.0372356
0.0395339
0.0485786
0.0389721
0.0227415
0.022897
0.0221585
0.0118658
0.0120795
0.0169724
0.0303636
0.0299035
0.0373772
0.0376022
0.028792
0.029055
0.027042
0.0371975
0.0356497
0.0347016
0.0673957
0.0759237
0.0482898
0.0768927
0.0790532
0.0757577
0.078282
0.0568628
0.0649345
0.0632411
0.0612144
0.0633239
0.0511686
0.0357262
0.0215547
0.0116515
0.00567854
0.00250994
0.00101885
0.000392416
0.000158265
9.64907e-05
0.000112509
0.000112509
0.000138822
0.000364028
0.000998257
0.00251382
0.00574224
0.00576153
0.00856373
0.0120615
0.00577762
0.00249418
0.00247903
0.00390335
0.00377968
0.00527554
0.00527289
0.00343929
0.00344886
0.00349493
0.00524902
0.00778169
0.00768173
0.0112014
0.0158535
0.0152271
0.0215251
0.0211299
0.0216912
0.0157596
0.0152151
0.0216033
0.0290494
0.0270052
0.029716
0.020564
0.011031
0.0112252
0.0112639
0.00775136
0.00768061
0.011248
0.0158396
0.0111142
0.0166157
0.0228718
0.0391047
0.0475455
0.0505885
0.0844296
0.0684129
0.0451415
0.0477536
0.0844176
0.0510628
0.0675215
0.0638781
0.0395189
0.0396228
0.0315892
0.0300511
0.0229157
0.0121106
0.0121157
0.00579142
0.00249432
0.000967132
0.000968727
0.000960496
0.00160491
0.00154481
0.00223345
0.00222786
0.00137848
0.00138093
0.00143657
0.00221968
0.00231535
0.00233392
0.00533873
0.00536937
0.00393103
0.00349603
0.00344593
0.00229522
0.00377564
0.00575618
0.00441093
0.00855178
0.00646858
0.0123029
0.00920204
0.0173211
0.0128209
0.0237277
0.0172987
0.0316337
0.0228948
0.0410214
0.0291307
0.0528794
0.0383256
0.0616552
0.045318
0.0372274
0.0441183
0.0441183
0.0616553
0.0383255
0.0528794
0.0372272
0.063384
0.0439626
0.057839
0.053038
0.0654764
0.0550674
0.0608165
0.0621715
0.0719912
0.0632408
0.0649363
0.0782817
0.0800385
0.0794168
0.0836019
0.0777035
0.083461
0.0790514
0.0805812
0.0763716
0.06377
0.0368341
0.0368937
0.0352346
0.0290021
0.0398007
0.0304216
0.0229164
0.016739
0.0167384
0.00913359
0.0119244
0.00657004
0.00828383
0.00438791
0.00560075
0.00299847
0.00370365
0.00190631
0.00238067
0.00123759
0.00150483
0.000752897
0.000921424
0.000464688
0.00056498
0.000274367
0.000329661
0.000165409
0.000211431
0.000129302
0.000211431
9.67913e-05
0.000182282
0.000160055
0.000334727
0.000264016
0.000562238
0.0004534
0.000934937
0.000745839
0.00153753
0.00121279
0.0024348
0.00190803
0.00381154
0.00294568
0.00299851
0.00370367
0.0022328
0.00238064
0.00150487
0.000921416
0.000564993
0.000329542
0.000329667
0.000165413
0.000204777
0.000594894
0.000464701
0.000645241
0.00165935
0.0039373
0.00849415
0.0165534
0.0290086
0.0447241
0.0447238
0.0612154
0.0551151
0.0372349
0.0290081
0.0398013
0.0230782
0.0304209
0.0171519
0.0229166
0.0129823
0.0160943
0.0208402
0.0171522
0.0200228
0.0111861
0.00913362
0.0119242
0.00828407
0.00560074
0.00438793
0.00542324
0.00512825
0.00237849
0.00190633
0.000947683
0.000752905
0.000886917
0.000348275
0.000274365
0.000135517
0.000115694
7.69233e-05
6.97202e-05
8.2788e-05
6.85186e-05
6.85137e-05
8.27841e-05
9.05325e-05
6.87219e-05
7.11485e-05
8.8282e-05
8.62188e-05
6.49998e-05
7.53959e-05
9.02057e-05
6.91878e-05
9.96819e-05
6.99981e-05
8.33363e-05
8.70156e-05
7.40814e-05
6.31523e-05
6.87369e-05
6.84471e-05
7.1847e-05
9.08375e-05
6.84487e-05
9.05428e-05
7.11567e-05
6.87215e-05
6.66455e-05
8.62196e-05
7.53976e-05
6.50027e-05
6.76287e-05
8.92306e-05
7.93665e-05
6.87942e-05
9.98472e-05
6.89095e-05
7.8043e-05
6.97912e-05
6.87333e-05
6.99575e-05
8.1422e-05
6.66432e-05
0.000140387
8.21416e-05
7.72972e-05
6.97939e-05
6.34738e-05
7.14436e-05
8.21407e-05
8.14211e-05
7.43711e-05
0.000140389
0.000204777
0.000359528
0.000983788
0.00248122
0.00567397
0.0117242
0.0218558
0.0284692
0.0230787
0.0284691
0.0351913
0.0291307
0.0491344
0.0354346
0.0373768
0.0270051
0.0287915
0.0211298
0.0215248
0.0152267
0.0158533
0.0158892
0.0110251
0.0111475
0.0114004
0.011047
0.0156169
0.021445
0.0219836
0.0208485
0.0288854
0.0208175
0.0220272
0.0290546
0.0290545
0.0371975
0.0270422
0.0383744
0.0353334
0.0371091
0.0382544
0.0353615
0.0464702
0.047279
0.0470034
0.0356495
0.0376023
0.0465107
0.0474364
0.0505886
0.0443259
0.0500771
0.0461287
0.049549
0.044362
0.0519123
0.0442771
0.0523507
0.0517871
0.0443639
0.0638781
0.0634064
0.0477335
0.044315
0.0467974
0.0357518
0.0373959
0.0373961
0.0270574
0.0291407
0.0208484
0.0219838
0.0214452
0.0288853
0.0208178
0.0156171
0.0110472
0.0114005
0.0111477
0.0110254
0.00761367
0.00527977
0.00533547
0.00522338
0.0052651
0.0057852
0.00249338
0.000968086
0.000343898
0.000344084
0.000343222
0.000335373
0.000593649
0.000569681
0.000854903
0.000850575
0.000504317
0.000504517
0.000535015
0.000848721
0.000901457
0.000924414
0.000335294
0.000320967
0.000210721
0.000189226
0.000152632
7.48639e-05
0.000132596
0.000115611
0.000200268
0.000196669
0.000134521
6.84023e-05
8.02247e-05
0.000196919
0.000569557
0.00154451
0.00378181
0.00835333
0.0166761
0.0175411
0.0228596
0.0230734
0.0122123
0.0120048
0.00879597
0.00838129
0.016711
0.0159373
0.0158648
0.0112811
0.0112511
0.0112511
0.00769315
0.00780001
0.0054035
0.00527623
0.00527621
0.00350276
0.00348542
0.00227934
0.00225685
0.00221118
0.00335787
0.00226872
0.00399001
0.00570324
0.00584639
0.00253194
0.00244613
0.0016348
0.00156825
0.00140607
0.000891157
0.000864795
0.000847276
0.0013388
0.000882937
0.000604034
0.000946344
0.000993886
0.000358402
0.000331518
0.000205816
0.000134076
0.000117091
0.000134161
7.81952e-05
5.41972e-05
6.4895e-05
5.91949e-05
6.52071e-05
5.41535e-05
7.82454e-05
7.26425e-05
9.64495e-05
0.000143376
0.000372872
0.00059215
0.000540874
0.000631939
0.000615207
0.000534923
0.000501703
0.000316606
0.00163287
0.00143715
0.00137851
0.000893906
0.00157267
0.00123758
0.00157267
0.00377561
0.0082034
0.011149
0.0207829
0.0172985
0.0304962
0.0209242
0.0216029
0.0152147
0.0157591
0.0112249
0.0112012
0.00768155
0.00778147
0.00781021
0.00526497
0.00522334
0.00533536
0.00527958
0.00761347
0.00783917
0.00769312
0.00779992
0.00838135
0.0122351
0.0230642
0.039348
0.0300814
0.0300821
0.0477324
0.044315
0.0474026
0.0467977
0.0467647
0.0452815
0.029716
0.0347016
0.0205639
0.0218405
0.0168135
0.0160945
0.0129824
0.00820341
0.0065702
0.00855854
0.0117242
0.00567673
0.00248335
0.000984974
0.000360572
0.000152817
0.000151875
0.000140152
0.000338159
0.000935047
0.0023607
0.00539756
0.0044108
0.00819276
0.00531872
0.0052754
0.00349597
0.00527282
0.00536924
0.00524894
0.00349489
0.00344876
0.00346385
0.00533757
0.0037816
0.00377944
0.00390302
0.00574211
0.0118654
0.0221574
0.0165528
0.00849382
0.00393717
0.0016593
0.00251379
0.000998238
0.000645238
0.000242457
0.000364003
0.000138814
0.00011562
0.000200255
0.0002989
0.000316603
0.000294773
0.00018922
0.000153054
8.02245e-05
0.000143047
0.00033529
0.000924404
0.00233389
0.00533869
0.011031
0.0168134
0.00855851
0.00768047
0.00777561
0.00775111
0.0112637
0.0112478
0.0118304
0.0111137
0.0166591
0.00920192
0.0227984
0.0169712
0.0303627
0.0396384
0.0485794
0.0554268
0.0451415
0.0608299
0.0548154
0.0828069
0.0664174
0.0633878
0.0579888
0.0594525
0.0844296
0.0610357
0.0600915
0.0611644
0.0844176
0.0595927
0.0638741
0.0633017
0.0475464
0.0389699
0.0395331
0.0227408
0.022897
0.0120605
0.0120787
0.00856305
0.00833709
0.0166151
0.0158393
0.021691
0.0299029
0.0290493
0.0391037
0.0228711
0.0121152
0.00579113
0.00577717
0.00576118
0.00249396
0.00229513
0.00233911
0.0014582
0.000893884
0.000854886
0.000534909
0.000501695
0.000531039
0.000264008
0.000892216
0.000745823
0.000593617
0.0016048
0.00247894
0.00154471
0.00137847
0.000968672
0.000960484
0.00034322
0.000335343
0.000132602
7.48641e-05
0.000154124
0.000135333
8.70297e-05
6.99932e-05
9.96875e-05
6.91927e-05
9.02087e-05
0.000150723
0.000152634
0.000196664
0.00029321
0.000569642
0.000569515
0.00154438
0.00249418
0.000967083
0.000344064
0.000134526
0.000196905
0.000343883
0.000968022
0.00249326
0.00578494
0.0121102
0.0229155
0.039345
0.0477541
0.0510631
0.0395181
0.0230727
0.0167112
0.0216279
0.0216279
0.0212224
0.0290177
0.0291402
0.0270577
0.0306283
0.0306283
0.0467647
0.0443621
0.0173178
0.0152441
0.0173178
0.015244
0.0159372
0.0158648
0.00880609
0.00880616
0.00404105
0.00404103
0.00393099
0.00163287
0.000615202
0.000594891
0.000210722
0.000139295
7.46101e-05
0.000216165
0.000631934
0.00167751
0.00167751
0.00144285
0.00223799
0.00233921
0.00223805
0.00144284
0.00156824
0.0025452
0.00380633
0.00346674
0.00346667
0.00348545
0.00350276
0.00380637
0.00586457
0.00584627
0.0122126
0.00879575
0.0175404
0.0166755
0.0300508
0.0315891
0.039622
0.022859
0.00835291
0.0114127
0.0120053
0.00570338
0.00398981
0.00253184
0.000993826
0.00100633
0.000592122