/*--------------------------------*- C++ -*----------------------------------*\
| =========                 |                                                 |
| \\      /  F ield         | OpenFOAM: The Open Source CFD Toolbox           |
|  \\    /   O peration     | Version:  2306                                  |
|   \\  /    A nd           | Website:  www.openfoam.com                      |
|    \\/     M anipulation  |                                                 |
\*---------------------------------------------------------------------------*/
FoamFile
{
    version     2.0;
    format      ascii;
    arch        "LSB;label=32;scalar=64";
    class       volVectorField;
    location    "0.2";
    object      flux;
}
// * * * * * * * * * * * * * * * * * * * * * * * * * * * * * * * * * * * * * //

dimensions      [0 1 -1 1 0 0 0];

internalField   nonuniform List<vector> 
5712
(
(-0.497986 0.727962 0.617759)
(-0.658029 0.41548 1.97948)
(-1.10821 1.10313 0.507063)
(-1.7233 0.748327 1.99095)
(-1.71794 1.19412 0.36682)
(-3.0257 0.915664 1.96192)
(-1.24037 1.71475 0.508723)
(-3.18386 2.36394 2.72173)
(-0.977218 2.32777 0.605514)
(-2.1746 3.10475 3.66556)
(-1.46422 1.57854 0.637804)
(-2.3136 1.44169 2.85935)
(-1.2715 1.00291 0.650718)
(-1.78828 0.842844 2.4883)
(-0.576199 0.533504 0.683172)
(-0.696642 0.365463 2.2977)
(-1.19136 0.999937 0.403859)
(-1.30951 0.869847 0.251959)
(-1.52762 0.909556 1.08119)
(-1.49615 0.955378 0.63743)
(-1.06031 1.28258 0.371814)
(-1.17353 0.960371 0.183392)
(-1.5959 1.6706 1.0707)
(-1.36339 1.11947 0.505392)
(-0.450973 0.50764 0.510629)
(-0.378595 0.398293 0.415433)
(-0.576789 0.292159 1.60263)
(-0.431676 0.253906 1.25954)
(-1.06033 0.539818 0.388405)
(-0.920772 0.501639 0.325067)
(-1.83307 0.344671 1.54129)
(-1.44531 0.33633 1.24919)
(-1.35777 1.23323 0.88461)
(-1.37389 1.15524 0.386746)
(-1.63196 1.05475 0.743729)
(-1.56218 0.716308 0.337366)
(-0.644433 0.816323 0.393773)
(-0.509101 0.701625 0.876368)
(-2.99867 0.58115 2.59938)
(-3.96327 0.692441 0.686611)
(-1.99927 0.887236 0.951623)
(-2.43463 0.908358 0.302418)
(-3.66748 2.26591 3.04966)
(-4.74803 2.36335 0.808929)
(-1.91908 1.33054 0.805951)
(-2.21673 1.41739 0.257069)
(-2.40865 1.12334 2.03614)
(-3.36607 0.924126 0.624617)
(-2.20928 0.993567 1.03013)
(-2.86542 0.624666 0.357222)
(-1.39752 0.485252 1.92254)
(-2.14837 0.527806 0.600628)
(-0.289605 0.602759 0.75)
(-0.102584 1.01621 0.372124)
(-0.313359 0.317033 0.980232)
(-0.118146 0.444201 0.399361)
(-0.861872 0.782945 0.798997)
(-0.370723 1.31139 0.431112)
(-1.20075 0.482269 0.936817)
(-0.467737 0.649427 0.378682)
(-0.872867 0.768874 0.926414)
(-0.357886 1.7016 0.55563)
(-0.904825 0.551225 0.77156)
(-0.316175 1.1297 0.361422)
(-1.50982 0.185876 1.10447)
(-0.519096 0.662349 0.425326)
(-1.94492 0.150821 0.377799)
(-0.703871 0.490507 0.141768)
(-1.54324 0.676656 0.88751)
(-0.834822 0.793988 0.57433)
(-1.52725 0.780049 0.555358)
(-0.908623 0.833199 0.356119)
(-1.22091 0.714734 0.740161)
(-0.763117 0.630721 0.536752)
(-1.18587 0.820174 0.427975)
(-0.787883 0.652912 0.291964)
(-1.44286 0.81988 0.640736)
(-0.94034 1.13264 0.427219)
(-1.39282 0.777435 0.927689)
(-0.826236 1.06542 0.616263)
(-1.65712 0.79809 0.363507)
(-0.995163 0.851004 0.232886)
(-1.70048 0.808615 0.170895)
(-1.00649 0.85444 0.130543)
(-1.33459 0.883625 0.275503)
(-0.841949 0.661017 0.189753)
(-1.38328 0.9005 0.124567)
(-0.842544 0.656725 0.108856)
(-1.59173 0.767832 0.423814)
(-1.0487 1.16536 0.269978)
(-1.66391 0.743699 0.209793)
(-1.07949 1.17711 0.134406)
(-1.61305 1.39755 0.661408)
(-0.8278 2.07197 0.405925)
(-0.97223 1.72904 0.545595)
(-1.37905 3.22939 0.769523)
(-1.5599 1.45814 0.910595)
(-0.901056 2.4166 0.732224)
(-0.857715 1.67528 0.786589)
(-1.36847 3.52198 1.27809)
(-1.74156 1.3351 0.432606)
(-0.820904 1.80453 0.231657)
(-1.07482 1.75564 0.319817)
(-1.40021 3.10128 0.443268)
(-1.84477 1.32644 0.211075)
(-0.838781 1.6706 0.100206)
(-1.14692 1.7868 0.136513)
(-1.44747 3.08535 0.161323)
(-0.356396 0.620169 1.0154)
(-0.370774 0.814783 1.72065)
(-0.128609 1.6213 0.683213)
(-0.267336 2.87999 2.00039)
(-1.00599 0.721383 1.13251)
(-1.01326 0.814439 1.6172)
(-0.442764 1.98862 0.819669)
(-0.81952 3.13342 2.05082)
(-1.22131 0.816643 1.19873)
(-1.24604 0.792697 1.36936)
(-0.741177 2.38824 1.01785)
(-1.26519 3.29222 1.94196)
(-0.462578 0.995278 0.853701)
(0.0349583 0.735344 0.73839)
(-0.834815 1.18845 0.862567)
(-1.34825 1.53191 0.938246)
(-0.960775 2.97499 1.14487)
(0.0842547 0.689307 0.635997)
(-0.158478 0.926088 0.852719)
(-0.685288 1.15865 1.11123)
(-1.39675 1.29123 1.39461)
(-1.42771 3.44256 2.35805)
(-0.446837 0.636483 0.559202)
(-0.713688 0.826026 0.605784)
(-0.869045 1.03105 0.680745)
(-1.00185 1.5311 0.931881)
(-1.79572 3.98422 1.71028)
(-0.271715 0.145013 1.82904)
(-0.164895 0.154428 1.3361)
(-0.172655 0.23742 2.15891)
(-0.131966 0.796266 1.64435)
(-0.727106 0.208393 1.61689)
(-0.451766 0.200314 1.22649)
(-0.530099 0.345227 2.10069)
(-0.389285 0.835954 1.59097)
(-0.849297 0.290482 1.30689)
(-0.521698 0.194638 1.0568)
(-0.739135 0.4741 1.91504)
(-0.506348 0.884808 1.50254)
(-0.123367 0.555017 0.409743)
(-0.132922 0.395202 0.252711)
(-0.349426 0.713354 0.590809)
(-0.30081 0.499544 0.4267)
(-0.725126 0.887406 0.833524)
(-0.515934 0.574685 0.655156)
(-0.995554 0.805812 1.10881)
(-0.661218 0.525413 0.914643)
(-1.02815 0.589073 1.72861)
(-0.676187 0.965261 1.4186)
(-0.304098 0.530993 0.377282)
(-0.196218 0.381578 0.270998)
(-0.523173 0.711187 0.523266)
(-0.261387 0.527693 0.453741)
(-0.692837 0.84989 0.713045)
(-0.348051 0.60832 0.670503)
(-0.845417 0.928842 0.994825)
(-0.424891 0.659629 0.941071)
(-1.26588 0.608462 1.51178)
(-0.614769 0.93899 1.35891)
(-0.529509 0.716084 0.443251)
(-0.14954 0.672492 0.255886)
(-0.523318 0.696428 0.275063)
(-0.305149 0.679351 0.226781)
(-0.435229 0.543535 0.404492)
(-0.328666 0.457904 0.322437)
(-0.489112 0.524066 0.252877)
(-0.416942 0.464828 0.266713)
(-0.633075 0.851851 0.332669)
(-0.372942 0.74864 0.275064)
(-0.674781 0.878843 0.525481)
(-0.167858 0.748918 0.320461)
(-0.491165 0.674276 0.0938189)
(-0.43989 0.674332 0.13867)
(-0.480972 0.669281 0.0261722)
(-0.469158 0.67335 0.0398662)
(-0.48705 0.500903 0.120096)
(-0.510495 0.4707 0.166492)
(-0.490316 0.495316 0.0308027)
(-0.546118 0.469616 0.048958)
(-0.591756 0.825046 0.104401)
(-0.536163 0.725038 0.163401)
(-0.57971 0.820513 0.028616)
(-0.564402 0.719053 0.0472248)
(-0.942515 0.93372 0.427678)
(-0.460359 0.794806 0.285665)
(-1.4508 0.599557 0.604808)
(-0.493919 0.823935 0.274409)
(-0.891846 0.962197 0.691264)
(-0.20746 0.79715 0.412775)
(-1.32639 0.593663 0.976301)
(-0.241474 0.83395 0.501287)
(-0.92293 0.915937 0.168204)
(-0.58401 0.770576 0.151251)
(-1.48081 0.613052 0.312438)
(-0.547633 0.822522 0.126926)
(-0.860951 0.903085 0.116729)
(-0.647779 0.749616 0.099446)
(-1.39658 0.630329 0.166208)
(-0.646821 0.814262 0.0957601)
(-0.0881392 0.0754386 0.851842)
(-0.0469684 0.028011 0.406771)
(-0.0211376 0.0103179 0.112362)
(-0.0721785 0.0380875 0.978799)
(-0.0395246 0.0118427 0.445279)
(-0.0191833 0.0061875 0.124295)
(-0.245175 0.108426 0.800862)
(-0.104458 0.0299726 0.391)
(-0.0391702 0.0115408 0.114118)
(-0.201505 0.0687956 0.941974)
(-0.0832905 0.0294228 0.433159)
(-0.0312898 0.0100533 0.119784)
(-0.252712 0.0974828 0.686904)
(-0.102987 0.0328513 0.330558)
(-0.0477061 0.0152986 0.0918924)
(-0.253383 0.115723 0.885627)
(-0.095243 0.0449412 0.410956)
(-0.0423258 0.0184882 0.113036)
(-0.0706715 0.22045 0.140373)
(-0.0243121 0.0921889 0.0675173)
(-0.011378 0.0384332 0.0184191)
(-0.178027 0.276772 0.274464)
(-0.054258 0.118189 0.139917)
(-0.0189807 0.0503436 0.0393108)
(-0.263729 0.269672 0.442357)
(-0.0846968 0.111617 0.224689)
(-0.0269227 0.0480472 0.0631279)
(-0.328552 0.250548 0.621498)
(-0.117342 0.0958208 0.304684)
(-0.0451024 0.0389981 0.08364)
(-0.346074 0.175467 0.855595)
(-0.114267 0.0543725 0.402196)
(-0.0379216 0.0189942 0.111139)
(-0.193294 0.226091 0.166714)
(-0.0775905 0.09649 0.0800762)
(-0.0275745 0.0381828 0.0238518)
(-0.195787 0.311433 0.299081)
(-0.0807452 0.128168 0.166323)
(-0.0254496 0.0493252 0.0519192)
(-0.266532 0.322106 0.452261)
(-0.102729 0.119075 0.249873)
(-0.0297283 0.0425105 0.0755754)
(-0.31584 0.282477 0.638114)
(-0.117654 0.094703 0.337163)
(-0.0332287 0.0326776 0.0981801)
(-0.440306 0.184845 0.86396)
(-0.146851 0.0523386 0.412735)
(-0.0355362 0.0154075 0.11714)
(-0.44706 1.03897 0.0306947)
(-0.539901 0.864985 0.0778461)
(-0.392232 1.27411 0.149595)
(-0.471676 0.96512 0.169112)
(-0.663011 1.37386 0.154506)
(-0.830498 0.990799 0.128283)
(-0.66504 1.89755 0.357449)
(-0.836932 1.17342 0.286436)
(0.0170607 0.622794 0.0211737)
(-0.00453945 0.477043 0.0177848)
(0.034749 0.648406 0.0226136)
(0.00546986 0.462769 0.0185928)
(-0.0705108 0.728768 0.0167031)
(-0.0580665 0.533489 0.028645)
(-0.0209215 0.767326 0.0286983)
(-0.00312534 0.513001 0.0390274)
(-0.0418102 0.753975 0.100155)
(-0.0913055 0.67348 0.0475183)
(-0.324623 0.673536 0.120605)
(-0.411819 0.645109 0.0665243)
(-0.141479 0.694847 0.0483112)
(-0.092052 0.696908 0.08792)
(-0.485829 1.1084 0.160821)
(-0.521164 1.17563 0.0167718)
(-0.932263 1.3928 0.367861)
(-1.06231 1.49614 0.0763038)
(-0.00204631 0.813628 -0.0892971)
(0.128018 0.895609 -0.0154241)
(-0.290664 0.721786 0.0510835)
(-0.288293 0.73507 0.0161137)
(-0.203601 0.745636 0.012206)
(-0.155433 0.800925 -0.00522156)
(-0.0212472 0.288903 0.132903)
(-0.00996756 0.109928 0.036026)
(-0.017453 0.283704 0.0341568)
(-0.00934953 0.125195 0.0129336)
(-0.0565705 0.314704 0.141626)
(-0.00765632 0.112037 0.0378717)
(-0.0123198 0.300159 0.0468751)
(0.00216898 0.12454 0.0166213)
(-0.229368 0.33728 0.151585)
(-0.0397683 0.113731 0.0413753)
(-0.178709 0.33348 0.0721869)
(-0.0375999 0.13751 0.0259434)
(-0.244088 0.34457 0.051378)
(-0.0537374 0.149514 0.017078)
(-0.298019 0.366115 0.00411734)
(-0.0622025 0.14745 0.00191678)
(-0.392168 0.571853 0.375863)
(-0.360248 0.387032 0.276204)
(-0.37831 0.629739 0.182422)
(-0.363699 0.402382 0.142503)
(-0.71169 0.719377 0.546603)
(-0.591842 0.541169 0.431331)
(-0.718018 0.810264 0.285486)
(-0.581802 0.559631 0.217466)
(-0.20816 0.529381 0.11119)
(-0.213876 0.266045 0.0868586)
(-0.227522 0.502943 0.238129)
(-0.20594 0.25251 0.156429)
(-0.41121 0.691278 0.104702)
(-0.365358 0.408672 0.0844496)
(-0.449986 0.719543 0.0417633)
(-0.366356 0.402329 0.0475607)
(-0.783682 0.895988 0.174224)
(-0.59223 0.569302 0.133677)
(-0.830469 0.917746 0.0773304)
(-0.591581 0.561533 0.0764286)
(-0.215202 0.559307 0.0578465)
(-0.214394 0.270921 0.0509884)
(-0.230718 0.573491 0.0176678)
(-0.215168 0.267002 0.0294792)
(-0.00524283 0.250601 0.0627983)
(-0.0102112 0.103713 0.0204374)
(-0.104801 0.155072 0.0482868)
(-0.0294588 0.0680186 0.015757)
(-0.00345328 0.212216 0.104492)
(-0.00714607 0.0851771 0.0286599)
(-0.0934947 0.143362 0.0772979)
(-0.0251664 0.0610484 0.0235721)
(-0.0132893 0.27084 0.0297601)
(-0.0136647 0.115223 0.0120051)
(-0.109001 0.159334 0.0278644)
(-0.0322493 0.0704285 0.00868171)
(-0.0189825 0.276018 0.00450288)
(-0.0149318 0.120689 0.00279329)
(-0.108342 0.157012 0.0152359)
(-0.0324824 0.0694607 0.00349531)
(0.00470516 0.0291115 0.137728)
(0.00450215 0.0101446 0.0567251)
(-0.00316673 0.042398 0.0394221)
(-0.000369934 0.016496 0.0248779)
(0.0254747 0.0300813 0.144983)
(0.0191005 0.0119058 0.0640918)
(-0.00110046 0.0442801 0.0399016)
(0.0020692 0.0194209 0.0254853)
(-0.005742 0.0364274 0.169588)
(0.0067745 0.0187126 0.0820285)
(-0.0162766 0.049069 0.0424228)
(-0.00695666 0.0263623 0.0277542)
(0.173667 0.207364 0.386379)
(0.25406 0.41634 0.562225)
(0.0652402 0.12969 0.253931)
(0.0378565 0.106003 0.111018)
(0.00377122 0.0545003 0.0289911)
(0.277535 0.360493 0.452793)
(0.194614 0.188472 0.307162)
(0.045974 0.0822968 0.201328)
(0.0516006 0.0757159 0.109751)
(0.00734264 0.0378834 0.0324137)
(-0.333986 0.43381 0.445434)
(-0.216154 0.277276 0.291289)
(-0.134513 0.178594 0.163467)
(-0.0793614 0.106005 0.080751)
(-0.0224744 0.0474098 0.0227222)
(0.00194943 0.00296995 0.0238532)
(0.000932001 0.000748925 0.00954636)
(9.80169e-05 0.00648138 0.0134083)
(0.00020973 0.0030418 0.00690714)
(0.00801876 0.00389856 0.0300448)
(0.00395751 0.000978938 0.011944)
(0.000835761 0.00857851 0.0151974)
(0.000774973 0.00415391 0.00796297)
(0.00801882 0.00757462 0.0437121)
(0.0062918 0.00232973 0.018686)
(-0.00202648 0.0131629 0.0188557)
(-0.000149768 0.00658501 0.0102595)
(0.0779914 0.29851 0.284746)
(0.0118941 0.203805 0.146348)
(0.0891853 0.14312 0.189834)
(0.0306456 0.088542 0.0884479)
(0.0163745 0.0655441 0.101619)
(0.00525894 0.0385607 0.0506344)
(0.0149757 0.0460269 0.0603226)
(0.00659854 0.021972 0.0297188)
(-0.000579933 0.0228798 0.0208546)
(-0.000972741 0.0114776 0.0126272)
(-0.13116 0.311922 0.242015)
(-0.0561134 0.198039 0.152159)
(-0.0617147 0.181783 0.154574)
(-0.00844865 0.0997741 0.0903615)
(-0.0352374 0.107497 0.0903549)
(-0.00548799 0.0534152 0.0517304)
(-0.0202335 0.0612894 0.0482451)
(-0.00426552 0.0284877 0.0281406)
(-0.00504775 0.0309651 0.0154937)
(-0.00183105 0.0166425 0.0117048)
(-0.133241 0.216305 0.148537)
(-0.0697663 0.103196 0.0717053)
(-0.209016 0.227204 0.090469)
(-0.0903052 0.109606 0.042989)
(-0.247085 0.334322 0.261951)
(-0.142652 0.193162 0.141469)
(-0.340319 0.342395 0.165194)
(-0.178483 0.203855 0.0983427)
(-0.114671 0.14325 0.0500693)
(-0.0477379 0.0635734 0.0231073)
(-0.0698583 0.132103 0.0790841)
(-0.0378263 0.0579655 0.0388901)
(-0.234297 0.231093 0.0747593)
(-0.0846614 0.111016 0.0296647)
(-0.247883 0.227896 0.0182492)
(-0.0911164 0.109774 0.00758453)
(-0.367023 0.342119 0.108798)
(-0.183726 0.212605 0.0610748)
(-0.380942 0.336936 0.0263683)
(-0.195696 0.210964 0.0166356)
(-0.133083 0.148762 0.0449594)
(-0.044343 0.0644832 0.0163309)
(-0.142402 0.146847 0.0113232)
(-0.0483175 0.0640858 0.00419704)
(-0.0541989 0.0803525 0.0227769)
(-0.0244566 0.0336187 0.0127951)
(-0.0125288 0.0383577 0.00712482)
(-0.0103384 0.0201406 0.00635367)
(-0.0364487 0.0737342 0.0360473)
(-0.0204964 0.0303269 0.019465)
(-0.0106671 0.0360273 0.00997403)
(-0.00942138 0.0180404 0.0081693)
(-0.0604329 0.0849355 0.0222594)
(-0.0245998 0.0346586 0.00892386)
(-0.0132623 0.039364 0.00507263)
(-0.0117147 0.0209848 0.00414413)
(-0.0704994 0.0858119 0.00447384)
(-0.0260932 0.0345528 0.00173076)
(-0.0199297 0.0413543 -0.00327009)
(-0.0120588 0.0211593 -0.000515384)
(0.000278138 0.000394707 0.00343645)
(0.000111766 0.00016372 0.000924986)
(7.11159e-05 6.49672e-05 0.000192163)
(-2.54778e-06 0.00244916 0.0027902)
(2.62374e-05 0.000464448 0.000604259)
(1.94975e-05 0.000164867 0.00011979)
(0.00127447 0.000306126 0.00456)
(0.000565444 0.000215352 0.0012641)
(0.000299908 9.33679e-05 0.000278323)
(2.31129e-05 0.00299303 0.00331686)
(0.000101915 0.000624341 0.00074623)
(6.92539e-05 0.000242552 0.000151457)
(0.00263978 0.000923516 0.00704925)
(0.00120001 0.000548418 0.00201632)
(0.00054815 0.000262455 0.000440033)
(-0.000491723 0.00410767 0.00440413)
(0.000118399 0.000997135 0.001008)
(9.81631e-05 0.000405396 0.000201634)
(-0.00236167 0.107601 0.0693934)
(0.000388256 0.0458478 0.0297537)
(-0.000418374 0.0198828 0.0077077)
(0.00575193 0.0445604 0.0365328)
(0.00420859 0.0191191 0.0133783)
(0.00199001 0.00853577 0.00338451)
(0.00189324 0.018893 0.020712)
(0.00185968 0.00793558 0.00684201)
(0.00103396 0.00364954 0.00166222)
(0.00245032 0.00906672 0.0115186)
(0.00150396 0.00352098 0.00335544)
(0.000760674 0.00154948 0.000723896)
(-0.00121148 0.00620641 0.0056439)
(-6.35655e-05 0.00164588 0.00128728)
(3.83648e-05 0.000650267 0.000238891)
(-0.0446285 0.104582 0.0839687)
(-0.0147371 0.0424476 0.033128)
(-0.00453682 0.0163751 0.00879369)
(-0.00570913 0.0459964 0.0451196)
(-0.000214198 0.0173184 0.0151376)
(0.000525832 0.00660005 0.00361081)
(-0.00355097 0.0218526 0.0246698)
(0.000122504 0.00753955 0.00770696)
(0.00046343 0.0028477 0.00172051)
(-0.00196689 0.0113281 0.0130005)
(0.000151353 0.00364533 0.0037775)
(0.000287833 0.0012959 0.000786491)
(-0.00203599 0.00950449 0.00635208)
(-0.000127793 0.00212039 0.00140397)
(4.9355e-05 0.000691107 0.000262082)
(-9.42139e-05 0.027601 0.00679305)
(-2.52718e-05 0.00581627 0.00112389)
(-6.41133e-06 0.00117039 0.000155927)
(-8.01175e-07 0.000209412 1.76063e-05)
(0.000666214 0.03323 0.00281907)
(0.000118595 0.0069575 0.000482963)
(2.87624e-05 0.00137289 6.95135e-05)
(6.78774e-06 0.000237514 8.70972e-06)
(-0.000534471 0.0277453 0.00704)
(-0.000123171 0.00580745 0.00117984)
(2.14948e-06 0.00116687 0.000170896)
(5.53836e-06 0.000208994 2.2336e-05)
(0.00083648 0.0340136 0.00333711)
(0.000122194 0.00723307 0.000577643)
(7.20891e-05 0.00146142 0.00010705)
(2.0807e-05 0.000258477 1.94842e-05)
(-0.00209312 0.0277346 0.00737831)
(-0.00035815 0.00563737 0.00123896)
(-1.06286e-05 0.00120592 0.000208842)
(1.2832e-05 0.000230783 3.51205e-05)
(-0.00112672 0.0357344 0.0051491)
(-0.000192903 0.00736568 0.000889184)
(-3.11788e-06 0.00159724 0.000111136)
(4.93865e-06 0.000304524 1.17047e-05)
(-0.00170893 0.0402488 0.0025645)
(-0.000236197 0.00814083 0.000473851)
(-3.79443e-05 0.00157539 9.01916e-06)
(-7.12251e-06 0.000269048 -9.82821e-06)
(-0.00229971 0.0407576 0.000653444)
(-0.000339358 0.00836081 0.000178827)
(-2.45027e-05 0.00155098 1.3957e-05)
(7.55111e-07 0.000258126 4.57428e-07)
(-0.00531931 0.0277925 0.00492517)
(-0.000882661 0.00601086 0.000897147)
(-0.000144219 0.00131996 0.000117275)
(-2.21401e-05 0.000253964 5.75725e-06)
(-0.00560322 0.0185726 0.00321244)
(-0.000939888 0.00415953 0.000575322)
(-0.00017432 0.000945969 0.000107403)
(-2.29789e-05 0.000194343 1.44233e-05)
(-0.00386596 0.0225786 0.00638163)
(-0.000629067 0.00492677 0.00111489)
(-8.52965e-05 0.0011309 0.000184086)
(-2.31429e-06 0.000237854 2.5967e-05)
(-0.00458297 0.0167024 0.00461528)
(-0.000756243 0.00378234 0.000797897)
(-0.000158354 0.000875428 0.000148561)
(-2.56494e-05 0.000186445 1.85294e-05)
(-0.00576562 0.0312329 0.00309811)
(-0.00094702 0.00676936 0.000589766)
(-0.000122406 0.00141423 8.03811e-05)
(-1.19693e-05 0.000255441 6.97927e-06)
(-0.00622851 0.0194881 0.00192409)
(-0.00105949 0.00438992 0.000359644)
(-0.000186212 0.000975215 7.19048e-05)
(-2.21204e-05 0.000195659 1.19392e-05)
(-0.00595029 0.0327012 0.00108122)
(-0.000988765 0.00714399 0.000230227)
(-0.000117387 0.00145955 3.45009e-05)
(-8.5818e-06 0.000261977 5.72415e-06)
(-0.00649686 0.0196016 0.000650188)
(-0.00112218 0.0044926 0.000133774)
(-0.000197906 0.000996704 2.97437e-05)
(-2.50971e-05 0.000202315 6.52066e-06)
(-9.7926e-05 0.0162966 0.0075502)
(-2.83471e-05 0.00398031 0.00126587)
(-4.96755e-06 0.000886015 0.000187857)
(-4.29948e-07 0.000175489 2.24311e-05)
(4.61117e-05 0.00821352 0.00568079)
(-1.71015e-07 0.00231985 0.00101295)
(-4.5401e-06 0.000586876 0.000190607)
(-8.14786e-07 0.000130813 2.79767e-05)
(-0.000104674 0.0162299 0.00750638)
(-5.57774e-05 0.00393767 0.00125664)
(-2.10056e-06 0.000881516 0.000186237)
(2.35559e-06 0.000176873 2.17549e-05)
(0.000271383 0.00872513 0.00563098)
(2.22461e-05 0.00239976 0.000994808)
(-6.48084e-06 0.000599629 0.000190078)
(-1.12659e-06 0.000133628 2.74413e-05)
(-0.00189456 0.0168943 0.00734882)
(-0.000362959 0.00393638 0.00121946)
(-5.47881e-05 0.000901694 0.000204264)
(-5.28624e-06 0.000185837 2.87379e-05)
(-0.00105957 0.010469 0.00560664)
(-0.00021274 0.0026666 0.0009655)
(-4.57962e-05 0.000646239 0.000196093)
(-5.71773e-06 0.00014135 3.02882e-05)
(-0.00136863 0.0158688 0.00570951)
(-0.000237647 0.00359955 0.00097515)
(-3.01017e-05 0.000841679 0.000188721)
(1.33885e-06 0.000182709 3.64713e-05)
(-0.000581562 0.0119652 0.00615551)
(-0.000118853 0.00283207 0.00104843)
(-4.33743e-05 0.000693967 0.000236307)
(-7.60895e-06 0.00015259 4.05641e-05)
(-0.00381202 0.0138471 0.0044881)
(-0.000633846 0.00325218 0.000769353)
(-0.000136083 0.00077314 0.000156291)
(-1.77319e-05 0.000172765 2.3337e-05)
(5.71824e-05 0.00385154 0.00328433)
(9.14042e-06 0.00135576 0.000601949)
(1.73213e-07 0.000335356 0.000132597)
(2.6275e-07 6.05085e-05 2.32422e-05)
(0.000144824 0.00171148 0.00109498)
(2.96711e-05 0.000939894 0.000200275)
(4.62427e-06 0.000239791 4.0755e-05)
(7.29549e-07 4.33835e-05 8.29668e-06)
(5.83715e-05 0.00443454 0.00359444)
(5.28605e-06 0.00148925 0.000644105)
(-6.58501e-06 0.000362943 0.000138585)
(-6.30965e-07 6.62047e-05 2.36124e-05)
(0.000389619 0.00207139 0.00121412)
(7.78131e-05 0.00105132 0.000217235)
(1.03224e-05 0.000260958 4.40624e-05)
(1.53544e-06 4.67167e-05 8.94695e-06)
(-0.000276755 0.00583554 0.00402312)
(-5.29902e-05 0.00175749 0.000692189)
(-2.22454e-05 0.000405129 0.00014758)
(-3.14266e-06 7.10921e-05 2.4621e-05)
(0.000505547 0.00291149 0.00137435)
(0.000100258 0.00126846 0.000235599)
(1.21183e-05 0.000295368 4.68658e-05)
(1.55941e-06 5.13466e-05 9.58101e-06)
(-0.000917154 0.00785505 0.00392992)
(-0.000144763 0.0021033 0.000661413)
(-4.18828e-05 0.000472559 0.00014985)
(-5.92763e-06 8.27906e-05 2.46386e-05)
(0.000300273 0.00418966 0.00147377)
(7.79583e-05 0.00154902 0.000243524)
(6.6653e-06 0.00034353 5.06114e-05)
(3.90094e-07 5.86043e-05 1.01223e-05)
(-0.00204411 0.00951261 0.00366665)
(-0.000309081 0.00243039 0.000617716)
(-8.21766e-05 0.000553389 0.000140531)
(-1.2549e-05 9.93769e-05 2.28507e-05)
(-0.000180996 0.00515801 0.00134693)
(1.55834e-05 0.00180083 0.000225572)
(-6.17904e-06 0.000388669 5.0573e-05)
(-1.60172e-06 6.54342e-05 9.91469e-06)
(-0.00380658 0.0109104 0.00216408)
(-0.000587857 0.00278009 0.000365856)
(-0.000125324 0.000595159 7.14294e-05)
(-1.87656e-05 0.000101892 1.20629e-05)
(-0.00124645 0.00588135 0.000951384)
(-0.000170527 0.00210083 0.000165771)
(-3.35516e-05 0.000457367 3.27198e-05)
(-6.20601e-06 7.60995e-05 6.42945e-06)
(-0.00311821 0.0104248 0.00288095)
(-0.00046593 0.00264844 0.000480129)
(-0.000109221 0.000576507 0.000101392)
(-1.75666e-05 9.97966e-05 1.70012e-05)
(-0.000882579 0.00543553 0.0011511)
(-9.7986e-05 0.00198288 0.000196051)
(-2.2077e-05 0.000427304 4.19517e-05)
(-4.13061e-06 7.11994e-05 8.39607e-06)
(-0.00424839 0.011093 0.00135821)
(-0.000672443 0.00284012 0.000232033)
(-0.000138044 0.000587555 4.43912e-05)
(-2.12595e-05 9.71202e-05 8.2964e-06)
(-0.00147965 0.0060128 0.000601405)
(-0.000215366 0.00216879 0.000107711)
(-3.93098e-05 0.000467443 1.98307e-05)
(-7.58982e-06 7.727e-05 4.16022e-06)
(-0.00448644 0.0114641 0.000488569)
(-0.00072324 0.00289024 8.72044e-05)
(-0.000147021 0.000595207 1.88897e-05)
(-2.40996e-05 9.83298e-05 4.05494e-06)
(-0.00164488 0.00617332 0.000219667)
(-0.000245245 0.00220943 4.22524e-05)
(-4.38271e-05 0.000476006 8.54e-06)
(-8.60551e-06 7.86872e-05 1.91289e-06)
(2.47365e-07 3.55107e-05 2.4984e-06)
(6.47007e-08 7.4365e-06 3.39067e-07)
(1.28604e-08 1.46096e-06 4.47002e-08)
(2.31057e-09 2.70085e-07 5.89571e-09)
(4.44133e-10 3.97648e-08 8.81166e-10)
(8.25423e-07 3.84976e-05 1.11792e-06)
(1.37497e-07 7.84884e-06 1.5406e-07)
(2.34424e-08 1.51768e-06 2.07325e-08)
(3.93127e-09 2.77673e-07 2.79333e-09)
(7.27617e-10 4.06461e-08 4.2673e-10)
(5.47361e-07 3.62482e-05 2.89028e-06)
(1.22162e-07 7.74888e-06 3.89796e-07)
(2.54795e-08 1.51789e-06 5.33746e-08)
(4.7759e-09 2.79563e-07 7.46511e-09)
(9.43973e-10 4.10602e-08 1.19431e-09)
(1.34082e-06 4.12614e-05 1.64574e-06)
(2.32046e-07 8.29581e-06 2.22501e-07)
(4.28653e-08 1.5891e-06 3.24718e-08)
(7.5613e-09 2.8934e-07 4.85382e-09)
(1.44444e-09 4.22488e-08 8.23855e-10)
(3.69024e-07 3.90966e-05 3.06855e-06)
(1.05656e-07 8.08628e-06 4.12578e-07)
(2.59913e-08 1.57008e-06 5.9721e-08)
(5.2335e-09 2.88615e-07 8.87259e-09)
(1.07366e-09 4.23631e-08 1.50055e-09)
(1.03691e-06 4.59583e-05 2.30194e-06)
(2.40979e-07 8.66301e-06 4.11826e-07)
(4.91335e-08 1.64711e-06 6.96432e-08)
(9.04079e-09 2.99719e-07 1.13881e-08)
(1.76747e-09 4.37608e-08 2.0595e-09)
(-6.7538e-08 4.36506e-05 1.42328e-06)
(5.58026e-08 8.92638e-06 3.23307e-07)
(1.62956e-08 1.72017e-06 5.8967e-08)
(3.4004e-09 3.13578e-07 1.00136e-08)
(7.0994e-10 4.57718e-08 1.85782e-09)
(-2.93303e-07 4.38083e-05 8.65394e-07)
(-2.48677e-08 9.13895e-06 2.1547e-07)
(1.08097e-09 1.77988e-06 4.37308e-08)
(8.79279e-10 3.25962e-07 8.02521e-09)
(2.59052e-10 4.76669e-08 1.58021e-09)
(-5.62687e-07 4.19087e-05 2.17108e-06)
(4.35364e-08 8.51688e-06 3.62259e-07)
(1.99844e-08 1.64738e-06 5.82604e-08)
(4.53549e-09 3.02237e-07 9.25061e-09)
(9.76824e-10 4.43082e-08 1.64344e-09)
(-6.36665e-07 3.62518e-05 1.54734e-06)
(-2.41899e-08 8.12785e-06 2.6296e-07)
(3.64057e-09 1.62713e-06 4.46761e-08)
(1.33105e-09 3.02995e-07 7.42428e-09)
(3.28528e-10 4.47095e-08 1.3658e-09)
(5.68592e-07 4.0384e-05 2.79913e-06)
(1.73602e-07 8.13513e-06 3.8926e-07)
(3.74701e-08 1.58687e-06 5.81112e-08)
(6.99878e-09 2.92811e-07 8.8889e-09)
(1.37474e-09 4.30587e-08 1.54215e-09)
(-3.19169e-07 3.5429e-05 1.48133e-06)
(1.63445e-08 7.93819e-06 2.7351e-07)
(8.61926e-09 1.58874e-06 4.84871e-08)
(1.95735e-09 2.96018e-07 8.22388e-09)
(4.1872e-10 4.37039e-08 1.52824e-09)
(-1.02546e-06 4.17676e-05 1.77994e-06)
(-6.72476e-08 8.72565e-06 3.13512e-07)
(7.92606e-10 1.70529e-06 5.22571e-08)
(1.4126e-09 3.13577e-07 8.49651e-09)
(4.17474e-10 4.59821e-08 1.53841e-09)
(-6.66156e-07 3.68181e-05 1.21488e-06)
(-4.61862e-08 8.29169e-06 2.1605e-07)
(-5.18665e-10 1.66948e-06 3.83436e-08)
(6.63457e-10 3.11633e-07 6.61244e-09)
(2.13118e-10 4.6026e-08 1.25559e-09)
(-1.23702e-06 4.33476e-05 8.6236e-07)
(-1.31566e-07 8.95721e-06 1.71736e-07)
(-1.12247e-08 1.75584e-06 3.32413e-08)
(-5.48057e-10 3.23898e-07 6.06386e-09)
(7.41609e-11 4.75856e-08 1.19927e-09)
(-8.56359e-07 3.80039e-05 7.15502e-07)
(-8.25761e-08 8.49408e-06 1.36248e-07)
(-7.15284e-09 1.71039e-06 2.6052e-08)
(-4.58901e-10 3.19791e-07 4.77004e-09)
(7.71868e-12 4.72949e-08 9.51079e-10)
(1.30201e-07 3.18056e-05 2.56733e-06)
(4.87835e-08 6.91449e-06 3.20897e-07)
(1.03802e-08 1.39098e-06 4.06816e-08)
(1.88095e-09 2.61031e-07 5.23125e-09)
(3.59014e-10 3.8744e-08 7.64789e-10)
(2.82951e-07 2.68889e-05 1.17373e-06)
(6.42847e-08 6.47275e-06 1.34281e-07)
(1.17199e-08 1.3407e-06 1.64806e-08)
(1.95374e-09 2.54899e-07 2.09307e-09)
(3.52225e-10 3.80677e-08 3.04084e-10)
(5.81513e-07 3.25804e-05 2.74538e-06)
(1.38549e-07 7.1457e-06 3.56141e-07)
(2.6958e-08 1.43526e-06 4.69063e-08)
(4.75228e-09 2.68571e-07 6.32179e-09)
(8.97665e-10 3.97771e-08 9.76711e-10)
(8.95991e-07 2.76819e-05 1.23848e-06)
(1.76117e-07 6.67449e-06 1.48378e-07)
(3.05362e-08 1.37854e-06 1.90213e-08)
(5.00525e-09 2.61282e-07 2.53024e-09)
(8.98637e-10 3.89347e-08 3.87096e-10)
(5.20821e-08 3.43056e-05 2.73849e-06)
(9.60016e-08 7.5012e-06 3.44939e-07)
(2.41044e-08 1.49598e-06 4.70362e-08)
(4.7147e-09 2.78771e-07 6.69136e-09)
(9.44608e-10 4.119e-08 1.09512e-09)
(1.202e-06 2.94204e-05 1.401e-06)
(2.25859e-07 7.05759e-06 1.80025e-07)
(3.87804e-08 1.44365e-06 2.55342e-08)
(6.3928e-09 2.71848e-07 3.76844e-09)
(1.15998e-09 4.03575e-08 6.36047e-10)
(8.87265e-07 3.43681e-05 2.61115e-06)
(1.95709e-07 7.66507e-06 3.62474e-07)
(3.66966e-08 1.53513e-06 5.5387e-08)
(6.39366e-09 2.86386e-07 8.63738e-09)
(1.20571e-09 4.2322e-08 1.51955e-09)
(1.09691e-06 3.10625e-05 1.68957e-06)
(1.82822e-07 7.45437e-06 2.30606e-07)
(3.01417e-08 1.50868e-06 3.5386e-08)
(4.89814e-09 2.82482e-07 5.54378e-09)
(8.8425e-10 4.1813e-08 9.78533e-10)
(4.33357e-07 3.36649e-05 1.57044e-06)
(1.03763e-07 7.7522e-06 2.99329e-07)
(1.9672e-08 1.55819e-06 5.34448e-08)
(3.43796e-09 2.9084e-07 9.09205e-09)
(6.4924e-10 4.29795e-08 1.69108e-09)
(-0.00729152 1.06538 0.121978)
(-0.020499 1.47956 0.35107)
(-0.0129404 1.08765 0.123342)
(-0.0534255 1.47143 0.34308)
(-0.0116116 1.11542 0.130572)
(-0.0787569 1.4532 0.32668)
(0.00494013 1.11525 0.134854)
(-0.0885326 1.42489 0.310522)
(0.015991 1.07031 0.115832)
(-0.0627762 1.37342 0.29256)
(-0.0610582 1.04885 0.0132251)
(-0.151172 1.15624 0.0854616)
(-0.0112032 1.03003 0.0486755)
(-0.0630711 1.17681 0.160117)
(-0.0707184 1.06584 0.000187212)
(-0.179848 1.16053 0.0386058)
(-0.0821838 1.0931 -0.00126253)
(-0.184237 1.17009 0.0136214)
(-0.116288 1.12078 1.64978)
(-0.0579372 0.194573 0.816809)
(-0.0408495 0.05303 0.57535)
(-0.0335961 0.0239376 0.473645)
(-0.0294605 0.00877388 0.415293)
(-0.0374806 1.108 0.482986)
(-0.0264243 0.356953 0.273425)
(-0.0153559 0.1186 0.199085)
(-0.0129094 0.0561021 0.160999)
(-0.0108539 0.0207878 0.136865)
(-0.361051 1.12061 1.62714)
(-0.178951 0.192338 0.804216)
(-0.126273 0.0523376 0.567322)
(-0.103826 0.0236262 0.467038)
(-0.0910544 0.00865427 0.409958)
(-0.100415 1.10301 0.487906)
(-0.0615789 0.354336 0.28476)
(-0.0446801 0.117883 0.202192)
(-0.0360124 0.0559074 0.163986)
(-0.0309372 0.0208035 0.14207)
(-0.618192 1.11517 1.5516)
(-0.306388 0.191256 0.76726)
(-0.21625 0.0521449 0.541399)
(-0.177827 0.0235901 0.445672)
(-0.155873 0.00864719 0.391092)
(-0.174942 1.09239 0.468852)
(-0.106473 0.352444 0.273777)
(-0.0759117 0.117683 0.194651)
(-0.0611925 0.0559291 0.158019)
(-0.0525563 0.0208395 0.137002)
(-0.856993 1.10316 1.43109)
(-0.42442 0.187876 0.707598)
(-0.299717 0.0512839 0.499418)
(-0.246504 0.0232633 0.410951)
(-0.216107 0.00853391 0.360361)
(-0.236547 1.07343 0.445193)
(-0.143915 0.348949 0.258324)
(-0.102422 0.117245 0.18276)
(-0.0824599 0.0559626 0.147618)
(-0.0708314 0.0208705 0.127255)
(-1.12125 1.08124 1.23003)
(-0.556205 0.180575 0.607547)
(-0.393398 0.0493015 0.429014)
(-0.324074 0.0223714 0.353057)
(-0.284791 0.0081914 0.30955)
(-0.302801 1.04428 0.411556)
(-0.186004 0.341467 0.236911)
(-0.13312 0.115256 0.167217)
(-0.107887 0.0550886 0.134838)
(-0.0933688 0.0205191 0.116004)
(-1.4347 1.05092 0.640366)
(-0.727383 0.182626 0.326045)
(-0.515897 0.0512527 0.230638)
(-0.425169 0.0230604 0.189341)
(-0.37412 0.00826408 0.165593)
(-0.414598 0.972454 0.203809)
(-0.246864 0.328319 0.11867)
(-0.17596 0.112834 0.0839487)
(-0.142942 0.0542452 0.0677162)
(-0.123698 0.0202203 0.0582632)
(-1.29876 1.05516 0.914057)
(-0.653612 0.179782 0.460672)
(-0.462634 0.049846 0.325503)
(-0.381053 0.0225212 0.267387)
(-0.335271 0.0081557 0.23414)
(-0.35524 0.987697 0.29692)
(-0.214982 0.331238 0.172939)
(-0.153409 0.112825 0.122983)
(-0.124746 0.0539888 0.099634)
(-0.108276 0.0200972 0.0860315)
(-1.50329 1.05287 0.386321)
(-0.765757 0.185127 0.19809)
(-0.543612 0.0522554 0.140314)
(-0.448041 0.0234305 0.115242)
(-0.394037 0.00833907 0.100755)
(-0.445249 0.972557 0.117289)
(-0.263153 0.328555 0.0694145)
(-0.187576 0.1133 0.0491307)