/*--------------------------------*- C++ -*----------------------------------*\
| =========                 |                                                 |
| \\      /  F ield         | OpenFOAM: The Open Source CFD Toolbox           |
|  \\    /   O peration     | Version:  2306                                  |
|   \\  /    A nd           | Website:  www.openfoam.com                      |
|    \\/     M anipulation  |                                                 |
\*---------------------------------------------------------------------------*/
FoamFile
{
    version     2.0;
    format      ascii;
    arch        "LSB;label=32;scalar=64";
    class       volScalarField;
    location    "0.2";
    object      gradTx;
}
// * * * * * * * * * * * * * * * * * * * * * * * * * * * * * * * * * * * * * //

dimensions      [0 -1 0 1 0 0 0];

internalField   nonuniform List<scalar> 
5712
(
-12449.6
-16450.7
-27705.4
-43082.5
-42948.4
-75642.5
-31009.2
-79596.4
-24430.5
-54364.9
-36605.5
-57840.1
-31787.5
-44707
-14405
-17416.1
-29783.9
-32737.7
-38190.6
-37403.7
-26507.7
-29338.2
-39897.5
-34084.8
-11274.3
-9464.87
-14419.7
-10791.9
-26508.4
-23019.3
-45826.7
-36132.7
-33944.3
-34347.2
-40799.1
-39054.4
-16110.8
-12727.5
-74966.6
-99081.6
-49981.7
-60865.7
-91687.1
-118701
-47977.1
-55418.4
-60216.3
-84151.9
-55231.9
-71635.5
-34938
-53709.2
-7240.13
-2564.59
-7833.98
-2953.64
-21546.8
-9268.09
-30018.7
-11693.4
-21821.7
-8947.14
-22620.6
-7904.38
-37745.5
-12977.4
-48623.1
-17596.8
-38581
-20870.5
-38181.4
-22715.6
-30522.8
-19077.9
-29646.6
-19697.1
-36071.5
-23508.5
-34820.6
-20655.9
-41428.1
-24879.1
-42511.9
-25162.2
-33364.7
-21048.7
-34582
-21063.6
-39793.3
-26217.4
-41597.7
-26987.2
-40326.4
-20695
-24305.8
-34476.2
-38997.5
-22526.4
-21442.9
-34211.8
-43539
-20522.6
-26870.5
-35005.3
-46119.2
-20969.5
-28672.9
-36186.7
-8909.91
-9269.35
-3215.23
-6683.39
-25149.8
-25331.4
-11069.1
-20488
-30532.8
-31151.1
-18529.4
-31629.7
-11564.4
873.957
-20870.4
-33706.3
-24019.4
2106.37
-3961.94
-17132.2
-34918.8
-35692.8
-11170.9
-17842.2
-21726.1
-25046.3
-44893
-6792.87
-4122.38
-4316.37
-3299.15
-18177.7
-11294.1
-13252.5
-9732.13
-21232.4
-13042.4
-18478.4
-12658.7
-3084.18
-3323.05
-8735.66
-7520.25
-18128.1
-12898.3
-24888.9
-16530.4
-25703.6
-16904.7
-7602.45
-4905.45
-13079.3
-6534.69
-17320.9
-8701.29
-21135.4
-10622.3
-31647
-15369.2
-13237.7
-3738.49
-13082.9
-7628.74
-10880.7
-8216.65
-12227.8
-10423.5
-15826.9
-9323.56
-16869.5
-4196.45
-12279.1
-10997.3
-12024.3
-11728.9
-12176.3
-12762.4
-12257.9
-13652.9
-14793.9
-13404.1
-14492.8
-14110.1
-23562.9
-11509
-36270
-12348
-22296.2
-5186.51
-33159.7
-6036.84
-23073.2
-14600.2
-37020.2
-13690.8
-21523.8
-16194.5
-34914.5
-16170.5
-2203.48
-1174.21
-528.44
-1804.46
-988.116
-479.582
-6129.37
-2611.45
-979.254
-5037.64
-2082.26
-782.244
-6317.8
-2574.69
-1192.65
-6334.58
-2381.08
-1058.15
-1766.79
-607.802
-284.451
-4450.66
-1356.45
-474.518
-6593.23
-2117.42
-673.068
-8213.8
-2933.55
-1127.56
-8651.84
-2856.67
-948.04
-4832.34
-1939.76
-689.362
-4894.67
-2018.63
-636.239
-6663.29
-2568.22
-743.208
-7896
-2941.34
-830.718
-11007.7
-3671.27
-888.405
-11176.5
-13497.5
-9805.8
-11791.9
-16575.3
-20762.5
-16626
-20923.3
426.519
-113.486
868.724
136.746
-1762.77
-1451.66
-523.038
-78.1336
-1045.26
-2282.64
-8115.58
-10295.5
-3536.98
-2301.3
-12145.7
-13029.1
-23306.6
-26557.7
-51.1577
3200.46
-7266.59
-7207.33
-5090.03
-3885.83
-531.179
-249.189
-436.324
-233.738
-1414.26
-191.408
-307.995
54.2244
-5734.21
-994.207
-4467.74
-939.998
-6102.21
-1343.43
-7450.46
-1555.06
-9804.21
-9006.21
-9457.76
-9092.47
-17792.3
-14796
-17950.4
-14545
-5204
-5346.91
-5688.04
-5148.5
-10280.3
-9133.95
-11249.7
-9158.9
-19592
-14805.8
-20761.7
-14789.5
-5380.05
-5359.84
-5767.96
-5379.21
-131.071
-255.28
-2620.03
-736.47
-86.3319
-178.652
-2337.37
-629.161
-332.234
-341.618
-2725.02
-806.233
-474.561
-373.294
-2708.55
-812.061
117.629
112.554
-79.1683
-9.24834
636.868
477.512
-27.5115
51.73
-143.55
169.363
-406.916
-173.917
4341.67
6351.5
1631
946.413
94.2805
6938.38
4865.35
1149.35
1290.01
183.566
-8349.64
-5403.86
-3362.82
-1984.03
-561.861
48.7356
23.3
2.45042
5.24325
200.469
98.9378
20.894
19.3743
200.47
157.295
-50.662
-3.74421
1949.79
297.351
2229.63
766.141
409.363
131.474
374.392
164.964
-14.4983
-24.3185
-3279
-1402.84
-1542.87
-211.216
-880.934
-137.2
-505.838
-106.638
-126.194
-45.7763
-3331.02
-1744.16
-5225.39
-2257.63
-6177.13
-3566.29
-8507.97
-4462.07
-2866.79
-1193.45
-1746.46
-945.657
-5857.44
-2116.53
-6197.06
-2277.91
-9175.58
-4593.14
-9523.55
-4892.39
-3327.07
-1108.58
-3560.05
-1207.94
-1354.97
-611.414
-313.22
-258.46
-911.217
-512.411
-266.677
-235.535
-1510.82
-614.995
-331.557
-292.866
-1762.49
-652.33
-498.243
-301.47
6.95344
2.79414
1.7779
-0.0636945
0.655934
0.487438
31.8617
14.1361
7.4977
0.577822
2.54788
1.73135
65.9945
30.0002
13.7037
-12.2931
2.95996
2.45408
-59.0418
9.7064
-10.4593
143.798
105.215
49.7503
47.3311
46.492
25.849
61.2579
37.5989
19.0169
-30.287
-1.58914
0.959119
-1115.71
-368.429
-113.421
-142.728
-5.35495
13.1458
-88.7743
3.06261
11.5858
-49.1722
3.78383
7.19582
-50.8997
-3.19483
1.23388
-2.35535
-0.631795
-0.160283
-0.0200294
16.6553
2.96488
0.71906
0.169694
-13.3618
-3.07927
0.053737
0.138459
20.912
3.05486
1.80223
0.520176
-52.3279
-8.95375
-0.265716
0.320801
-28.1679
-4.82259
-0.0779469
0.123466
-42.7232
-5.90493
-0.948607
-0.178063
-57.4927
-8.48396
-0.612568
0.0188778
-132.983
-22.0665
-3.60548
-0.553503
-140.08
-23.4972
-4.35799
-0.574474
-96.6489
-15.7267
-2.13241
-0.0578571
-114.574
-18.9061
-3.95884
-0.641236
-144.141
-23.6755
-3.06014
-0.299233
-155.713
-26.4872
-4.6553
-0.55301
-148.757
-24.7191
-2.93468
-0.214545
-162.421
-28.0546
-4.94765
-0.627428
-2.44815
-0.708678
-0.124189
-0.0107487
1.15279
-0.00427537
-0.113502
-0.0203697
-2.61684
-1.39443
-0.0525139
0.0588898
6.78458
0.556152
-0.162021
-0.0281646
-47.3641
-9.07397
-1.3697
-0.132156
-26.4891
-5.31849
-1.14491
-0.142943
-34.2157
-5.94118
-0.752544
0.0334713
-14.539
-2.97133
-1.08436
-0.190224
-95.3005
-15.8461
-3.40209
-0.443298
1.42956
0.22851
0.00433032
0.00656876
3.62061
0.741778
0.115607
0.0182387
1.45929
0.132151
-0.164625
-0.0157741
9.74047
1.94533
0.25806
0.0383859
-6.91889
-1.32475
-0.556135
-0.0785666
12.6387
2.50645
0.302958
0.0389852
-22.9289
-3.61907
-1.04707
-0.148191
7.50682
1.94896
0.166632
0.00975234
-51.1027
-7.72703
-2.05441
-0.313725
-4.5249
0.389585
-0.154476
-0.0400431
-95.1645
-14.6964
-3.13309
-0.469141
-31.1612
-4.26317
-0.838791
-0.15515
-77.9553
-11.6483
-2.73054
-0.439166
-22.0645
-2.44965
-0.551925
-0.103265
-106.21
-16.8111
-3.45109
-0.531489
-36.9912
-5.38415
-0.982744
-0.189745
-112.161
-18.081
-3.67554
-0.602489
-41.1221
-6.13113
-1.09568
-0.215138
0.00618413
0.00161752
0.00032151
5.77644e-05
1.11033e-05
0.0206356
0.00343743
0.00058606
9.82817e-05
1.81904e-05
0.013684
0.00305405
0.000636989
0.000119398
2.35993e-05
0.0335204
0.00580116
0.00107163
0.000189032
3.61109e-05
0.0092256
0.00264139
0.000649782
0.000130838
2.68415e-05
0.0259228
0.00602446
0.00122834
0.00022602
4.41866e-05
-0.00168845
0.00139507
0.00040739
8.501e-05
1.77485e-05
-0.00733258
-0.000621692
2.70243e-05
2.1982e-05
6.4763e-06
-0.0140672
0.00108841
0.000499611
0.000113387
2.44206e-05
-0.0159166
-0.000604747
9.10143e-05
3.32761e-05
8.2132e-06
0.0142148
0.00434005
0.000936754
0.00017497
3.43685e-05
-0.00797923
0.000408613
0.000215481
4.89337e-05
1.0468e-05
-0.0256365
-0.00168119
1.98151e-05
3.53151e-05
1.04369e-05
-0.0166539
-0.00115466
-1.29666e-05
1.65864e-05
5.32796e-06
-0.0309254
-0.00328916
-0.000280616
-1.37014e-05
1.85402e-06
-0.021409
-0.0020644
-0.000178821
-1.14725e-05
1.92967e-07
0.00325503
0.00121959
0.000259504
4.70237e-05
8.97536e-06
0.00707377
0.00160712
0.000292997
4.88436e-05
8.80564e-06
0.0145378
0.00346373
0.000673949
0.000118807
2.24416e-05
0.0223998
0.00440293
0.000763406
0.000125131
2.24659e-05
0.00130205
0.00240004
0.00060261
0.000117867
2.36152e-05
0.03005
0.00564648
0.000969511
0.00015982
2.89995e-05
0.0221816
0.00489273
0.000917415
0.000159841
3.01427e-05
0.0274228
0.00457056
0.000753544
0.000122453
2.21062e-05
0.0108339
0.00259407
0.000491801
8.5949e-05
1.6231e-05
-182.288
-512.476
-323.51
-1335.64
-290.29
-1968.92
123.503
-2213.31
399.774
-1569.41
-1526.45
-3779.3
-280.081
-1576.78
-1767.96
-4496.2
-2054.59
-4605.93
-2907.19
-1448.43
-1021.24
-839.903
-736.513
-937.016
-660.607
-383.897
-322.736
-271.346
-9026.28
-4473.78
-3156.82
-2595.66
-2276.36
-2510.38
-1539.47
-1117
-900.309
-773.43
-15454.8
-7659.71
-5406.24
-4445.68
-3896.83
-4373.55
-2661.83
-1897.79
-1529.81
-1313.91
-21424.8
-10610.5
-7492.93
-6162.59
-5402.69
-5913.68
-3597.86
-2560.54
-2061.5
-1770.79
-28031.2
-13905.1
-9834.96
-8101.85
-7119.77
-7570.03
-4650.09
-3328.01
-2697.16
-2334.22
-35867.5
-18184.6
-12897.4
-10629.2
-9352.99
-10364.9
-6171.59
-4398.99
-3573.55
-3092.45
-32469
-16340.3
-11565.9
-9526.32
-8381.77
-8881.01
-5374.55
-3835.22
-3118.64
-2706.9
-37582.3
-19143.9
-13590.3
-11201
-9850.94
-11131.2
-6578.82
-4689.4
-3814.89
-3303.61
-39297.2
-19945.3
-14169.1
-11680.3
-10271
-11503.3
-6844.92
-4892.87
-3935.55
-3414.11
-1598.5
-12318.8
-10818.2
-3302.31
1970.27
3324.05
7710.54
12282.2
860.353
9359.88
-6189.45
-869.719
630.647
4555.8
11202.3
17752.1
16627.2
22435
6883.19
9394.06
-7878.95
-4147.4
-100.47
-25.8727
-14.0637
-12.1687
-32.5245
-4507.18
-2311.92
-1849.08
-1158.82
-417.614
-303.738
-669.633
-179.669
-130.407
-112.615
-65.744
-7096
-1784.32
-149.226
-319.726
-846.715
-368.444
-298.27
-142.955
-38.0228
-44.2712
-111.829
-125.121
-7434.06
-3264.6
-3076.01
-1489.86
-884.093
-1547.09
-183.322
-85.5991
-308.187
-4028.15
-2375.14
-1249.05
-603.821
-245.273
-2071.91
-1077.19
-558.646
-257.151
-83.8566
-71.303
-45.0047
-24.8902
-11.7818
-3.41733
-18.9576
-12.3263
-6.99127
-3.37114
-0.983284
-10.3133
-6.69583
-3.78455
-1.81744
-0.528146
-9.08949
-6.02001
-3.46816
-1.69129
-0.4954
-23.6986
-15.2951
-8.60626
-4.12136
-1.19701
-2077.36
-1056.11
-521.243
-249.172
-117.299
-833.895
-377.666
-156.047
-68.5356
-25.7544
-899.143
-430.12
-209.533
-93.4723
-31.6918
-424.175
-186.597
-77.7781
-31.0809
-9.8234
-144.041
-61.6295
-24.8528
-9.19905
-2.49817
-185.681
-102.502
-50.5527
-22.019
-6.22909
-358.434
-181.119
-86.9474
-37.6775
-11.0351
-91.8544
-44.0921
-20.0579
-8.2351
-2.26822
-84.8568
-49.1625
-25.1599
-11.2239
-3.16915
-70.2386
-39.1623
-19.3392
-8.37201
-2.31873
-43.6306
-25.6636
-13.271
-5.9515
-1.6733
-3480.7
-1828.03
-943.504
-444.103
-195.427
-979.761
-525.572
-267.576
-120.602
-39.4321
-97.5367
-57.1441
-29.663
-13.4106
-3.85819
-212.063
-126.469
-66.8265
-30.6494
-8.92629
-535.486
-310.861
-161.565
-73.4458
-21.9789
-246.425
-148.255
-78.9923
-36.4598
-10.6306
-203.513
-124.452
-67.1554
-31.2525
-9.08361
-99.4643
-61.5711
-33.472
-15.6422
-4.52113
-26.4735
-16.2954
-8.77135
-4.05607
-1.15868
-31.7233
-20.1338
-11.1567
-5.27984
-1.52617
-75.7704
-45.6374
-24.1828
-11.0775
-3.17259
-86.4985
-53.2
-28.7465
-13.3711
-3.85907
-3776.01
-2131.77
-1125.09
-526.192
-213.93
-1716.85
-917.917
-476.902
-218.99
-73.5501
-1704.72
-982.143
-496.734
-222.048
-71.6678
-901.452
-507.045
-264.494
-120.743
-37.3079
-571.145
-337.636
-177.812
-81.458
-24.1969
-928.752
-521.318
-270.859
-123.057
-37.5553
-124.518
-75.579
-40.4609
-18.7108
-5.4175
-61.4371
-39.0743
-21.708
-10.2984
-2.98112
-210.875
-128.847
-69.3777
-32.224
-9.33251
-11036.2
-22528.5
-22967.2
-64068.2
-20730.1
-77887.2
-11605.6
-27840
-22015.6
-17889
-38051
-32448.9
-19577
-16905.4
-38946
-29773.6
-8709.72
-6995.55
-17227.9
-12872.5
-19717.8
-15649.3
-53304.9
-42165.2
-31301.2
-22386.9
-35385.8
-21811.2
-3841.5
-9825.44
-78160.1
-100446
-48632.3
-60712
-94231.1
-119810
-46611.1
-55123.3
-62822.6
-85512.7
-53882.2
-71641.3
-38106.7
-55245.2
-5084.64
-1568.5
-8754.69
-3140.82
-16977.9
-8219.1
-33730
-12864.2
-10114.5
-5867.27
-19393.1
-6801.52
-37874.5
-12894.1
-49033.2
-17711.1
-26045.3
-15595.6
-33436.1
-20114.3
-19262.1
-13761.3
-25261.3
-17226.1
-32461.9
-21310.2
-25041.2
-16406.7
-39694.2
-23760.1
-42106.2
-24867
-31674.8
-19988.8
-34143.6
-20783.6
-38578.8
-25248.9
-41340.3
-26728.5
-38671
-20270.9
-22846.2
-34059.4
-33863.7
-21155.3
-18712.8
-33435.7
-43228.2
-20460.5
-26219.4
-34810.6
-46137.1
-20985.4
-28502.6
-36134.8
-3051.56
-2963.51
-1156.8
-4411.83
-12048.7
-12635.2
-8497.93
-17710.7
-10689.5
-11971
-14746.3
-27563.8
-15546.7
-8737.54
-18357.4
-25462.4
-21988.7
-5354.74
-8569.13
-13502.3
-25685.7
-33582.5
-14121.8
-17069.8
-18032.7
-20619.2
-43488.9
-3229.65
-2011.67
-2425.59
-2131.25
-10335.3
-6601.17
-10364.2
-7683.69
-6610.92
-3472.68
-14427.6
-9707.96
-6924.18
-5373.81
-8641.6
-6321.6
-12149.6
-7568.16
-16668.5
-10760.9
-23252.8
-15038.5
-9615.72
-5963.05
-12106.7
-5705.03
-14006.8
-6457.43
-17524.2
-8254.14
-30347.3
-14206.5
-11566.3
-3263.03
-11785
-7135.44
-10253
-8177.83
-11211.5
-10023.9
-14546.5
-8813.15
-14771.6
-3459.13
-11612.4
-10716
-11832.8
-11647.2
-11570.6
-12451.2
-12075.6
-13549.1
-14178.3
-13172.2
-14320.8
-14048
-22701.9
-11149
-35998.5
-12195.5
-20594.6
-4577.71
-32606.3
-5883.96
-22684.9
-14446.4
-36908.8
-13630
-21409.7
-16156.4
-34884.8
-16161.6
-1463.47
-1187.59
-1467.98
-1434.01
-4262.48
-2965.64
-4745.55
-3830.19
-1825.05
-1924.45
-5878.79
-4685.39
-3714.31
-2067.66
-4694.44
-2413.5
-4813.1
-2664.95
-6994.74
-4369.24
-10061.5
-5782.13
-5666.05
-2482.71
-4285.38
-1546.38
-5424.88
-1755.81
-6563.28
-1906.94
-9374.84
-1792.37
-6110.43
-8332.04
-5782.36
-10170.6
-11690.7
-12486.9
-14639.7
-18198.2
-813.747
-343.622
-388.152
-139.036
-2931.61
-1336.65
-2187.27
-490.569
-1172.26
-1687.94
-6887.04
-6355.27
-2114.9
-1811.36
-11062.1
-12668.6
-21832.1
-26105
215.157
3281.49
-6462.02
-6901.28
-4556.57
-3707.37
-468.958
-265.679
-458.098
-252.245
-1014.82
-246.502
-352.129
-3.53386
-4116.65
-968.911
-3927.68
-893.154
-5578.74
-1265.33
-7219.34
-1515.06
-5444.44
-6965.88
-7772.26
-7959.77
-10205.7
-10845.1
-14931.6
-12666.3
-4344.16
-4773.28
-3411.91
-4316.49
-9442.77
-8586.99
-10988.1
-9002.58
-18272.3
-13967
-20381.4
-14561.4
-4919.06
-5052.71
-5609.56
-5286.08
-115.81
-265.732
-2443.83
-721.777
-89.3163
-230.081
-2214.28
-645.24
-265.391
-334.348
-2604.25
-789.012
-432.517
-366.668
-2668.51
-805.282
-397.121
-322.279
-219.403
-154.606
-914.122
-704.822
-240.162
-154.525
-3455.16
-2612.94
-749.437
-571.398
-2623.68
-3798.99
-2266.04
141.053
-91.8216
-603.658
-1108.29
-2395.71
702.908
34.3373
-11779.2
-7538.12
-4582.79
-2392.89
-684.546
-228.536
-120.051
-106.587
-66.5515
-527.222
-286.388
-135.314
-99.7779
-1858.58
-1111.02
-420.664
-299.02
-3001.93
-2772.66
-1581.07
-1646.32
-1981.25
-1360.45
-212.951
-214.846
-173.866
-172.299
-6211.43
-3213.77
-3712.03
-1656.95
-2091.97
-943.227
-1012.28
-444.545
-242.45
-138.37
-3664.25
-2189.11
-4947.81
-2260.14
-6341.29
-4071.46
-7925.47
-4379.94
-2776.78
-1216.98
-2015.91
-1213.81
-5599.19
-2058.34
-6106.61
-2249.34
-8737.7
-4454.77
-9381.73
-4836.44
-3204.42
-1089.19
-3513.02
-1195.45
-1346.22
-629.423
-328.684
-272.227
-1072.2
-643.126
-323.754
-283.24
-1471.86
-610.576
-331.672
-294.832
-1743.86
-647.542
-495.781
-300.863
-57.5713
-40.6064
-39.1217
-30.5294
-183.115
-142.87
-67.6144
-52.2871
-657.62
-412.901
-146.68
-55.5249
-2140.14
-1115.76
-1366.95
-631.514
-822.08
-415.85
-197.532
-116.703
-120.277
-46.8948
-2130.68
-821.518
-911.68
-333.133
-520.465
-200.857
-235.158
-84.1844
-101.395
-6.1132
-10.625
-2.21731
-0.458865
-0.0695693
4.51383
0.522527
0.2994
0.107262
-32.3036
-6.78677
-0.527454
0.0587738
0.240176
-1.39253
1.07017
0.416183
-73.4413
-13.4265
-0.915489
0.259302
-45.4245
-9.29881
-0.972542
-0.0386254
-48.0307
-7.89225
-1.41812
-0.269194
-58.2244
-9.11046
-0.776751
-0.0136508
-138.827
-24.2959
-4.17342
-0.685956
-142.553
-24.6573
-4.67281
-0.638304
-114.868
-19.8305
-2.90281
-0.189248
-123.068
-21.0191
-4.43142
-0.724821
-145.675
-24.8708
-3.37491
-0.362732
-155.847
-27.0389
-4.83767
-0.59492
-148.809
-25.0956
-3.0429
-0.236869
-162.238
-28.2113
-5.0064
-0.641423
-11.2688
-2.25104
-0.374903
-0.0458796
-7.70145
-1.45683
-0.389333
-0.0611417
-27.0384
-5.52758
-0.671267
-0.0239606
-17.3215
-3.38102
-0.880064
-0.133166
-76.5069
-13.9393
-2.0803
-0.227357
-60.6292
-10.6809
-2.08115
-0.277517
-73.2502
-12.3332
-1.7415
-0.101296
-51.7748
-8.54854
-1.99612
-0.292148
-117.775
-19.687
-4.08342
-0.513971
-4.96112
-0.876785
-0.181125
-0.0226045
-0.961644
-0.149995
-0.0306614
-0.0077407
-16.5037
-2.89912
-0.711169
-0.106419
-4.11839
-0.657491
-0.178511
-0.037618
-35.8925
-5.87095
-1.34039
-0.207832
-12.2784
-1.81871
-0.370959
-0.0737226
-57.9043
-9.0755
-1.93357
-0.280584
-24.5871
-3.44781
-0.630244
-0.11837
-76.3333
-12.0093
-2.83616
-0.450689
-31.3127
-4.37274
-0.895898
-0.164209
-100.776
-16.2592
-3.50581
-0.548935
-36.765
-5.61402
-1.10125
-0.206976
-93.2708
-14.814
-3.36694
-0.562421
-36.2914
-5.3496
-1.04878
-0.193612
-107.358
-17.404
-3.62558
-0.572798
-38.4292
-5.85474
-1.08887
-0.212519
-112.164
-18.2106
-3.72191
-0.614491
-41.2512
-6.21859
-1.11981
-0.220986
-0.00190178
4.14633e-05
3.45671e-05
8.46379e-06
1.87092e-06
0.00808515
0.000962042
0.000133832
2.01687e-05
3.45729e-06
-0.00379099
-0.00044683
-2.54769e-06
9.32759e-06
2.92967e-06
0.0077536
0.000637199
0.000119376
2.31779e-05
4.57402e-06
-0.0112917
-0.00155842
-0.000118464
-1.49818e-06
1.94502e-06
-0.00782295
-0.000618781
7.41331e-06
1.31249e-05
3.57923e-06
-0.0173295
-0.00165559
-0.000158651
-1.49842e-05
-1.58039e-06
-0.0142622
-0.00203012
-0.000240399
-2.60563e-05
-2.94096e-06
-0.0367946
-0.00310913
-0.000253252
-1.63539e-05
-1.50075e-07
-0.0248286
-0.00222155
-0.000196176
-1.60258e-05
-1.10916e-06
-0.0142283
-0.000979856
-1.33025e-05
1.20499e-05
3.63784e-06
-0.0182702
-0.00140816
-0.000102834
-5.14265e-06
3.33508e-07
-0.0379344
-0.00399274
-0.000397919
-3.72006e-05
-3.39942e-06
-0.0230919
-0.00238348
-0.000236732
-2.25045e-05
-2.17801e-06
-0.0357729
-0.00424315
-0.00045745
-4.49123e-05
-4.18167e-06
-0.0234051
-0.00245678
-0.000251754
-2.43766e-05
-2.30859e-06
-0.00326605
-5.35584e-05
3.15189e-05
8.42076e-06
1.83417e-06
0.000268953
0.00038948
8.4713e-05
1.44488e-05
2.53984e-06
-0.00201765
0.000251611
0.00010278
2.23217e-05
4.57086e-06
0.00484574
0.00127568
0.00022814
3.65017e-05
6.25189e-06
-0.017568
-0.00127273
-5.25237e-05
6.85135e-06
2.98557e-06
0.00659653
0.00148701
0.000255039
4.07973e-05
7.0689e-06
-0.00285617
0.000373361
0.000127106
2.61212e-05
5.16223e-06
0.0092082
0.00138148
0.000206836
3.11362e-05
5.20372e-06
-0.00325636
0.000125909
6.24842e-05
1.32088e-05
2.59809e-06
84.8758
-324.972
308.321
-885.832
477.089
-1420.91
792.004
-1725.34
832.623
-1248.29
-1424.21
-3700.25
-71.0015
-1461.56
-1728.44
-4464.78
-2046.21
-4599.14
-2913.45
-1450.33
-1021.18
-839.614
-736.252
-903.086
-658.786
-382.886
-322.437
-271.217
-9056.63
-4481.58
-3157.91
-2595.77
-2276.43
-2427.37
-1528.87
-1115.68
-900.538
-773.99
-15507.4
-7672.25
-5408.5
-4446.45
-3897.48
-4272.64
-2648.82
-1896.12
-1529.87
-1314.33
-21483.6
-10623
-7494.76
-6162.97
-5403
-5822.22
-3585.61
-2559.05
-2061.46
-1770.89
-28092.4
-13917.1
-9836.96
-8102.52
-7120.35
-7507.26
-4641.03
-3326.89
-2697.16
-2334.34
-35899.2
-18190
-12898.2
-10629.5
-9353.16
-10348.7
-6169.44
-4398.82
-3573.6
-3092.37
-32517.8
-16349
-11567.2
-9526.7
-8382.13
-8846.7
-5369.32
-3834.66
-3118.62
-2706.98
-37598.4
-19146.5
-13590.6
-11201.1
-9850.95
-11125.6
-6578.16
-4689.24
-3814.87
-3303.61
-39303.3
-19946.5
-14169.4
-11680.6
-10271.3
-11502.5
-6845.05
-4893.01
-3935.66
-3414.22
-1430.98
-12089.6
-10103.9
-2870.39
-2050.94
-1067.23
-4597.73
-3144.64
-9951.2
-9646.31
-5001.54
-3750.42
-0.0351672
-0.111946
-0.389802
-1.29843
-4.17071
-12.9088
-0.040996
-0.185728
-0.731916
-2.47187
-7.37462
-19.5854
-0.0163777
-0.00554167
-0.0578407
-0.026105
-0.219156
-0.120221
-0.783797
-0.505025
-2.51869
-1.60341
-8.34273
-4.65926
-36.3924
-92.0745
-216.533
-683.292
-1354.87
-1921.46
-45.9331
-94.6105
-171.839
-288.112
-453.052
-577.601
-0.0277296
-0.0195997
-0.0120851
-0.00624762
-0.00189384
-0.0875843
-0.0612993
-0.0373931
-0.0191483
-0.00577116
-0.302466
-0.209555
-0.126454
-0.0641477
-0.019225
-0.99756
-0.682991
-0.407112
-0.204363
-0.0608692
-3.1641
-2.13517
-1.25436
-0.622092
-0.184011
-9.63536
-6.38739
-3.68888
-1.8045
-0.529856
-0.0321529
-0.0225741
-0.0138174
-0.00709695
-0.00214275
-0.144422
-0.100323
-0.060708
-0.0308701
-0.0092644
-0.564384
-0.388091
-0.23236
-0.117081
-0.0349477
-1.88792
-1.28363
-0.759736
-0.379112
-0.112528
-5.57041
-3.73986
-2.18594
-1.07962
-0.318614
-14.6024
-9.66497
-5.57294
-2.72282
-0.798972
-0.0129816
-0.00923725
-0.00573786
-0.00298589
-0.000908737
-0.004405
-0.00314632
-0.00196264
-0.00102517
-0.000312687
-0.0454851
-0.0320419
-0.0196846
-0.0101432
-0.00306852
-0.0206021
-0.0145809
-0.00900345
-0.00466035
-0.00141355
-0.170912
-0.119156
-0.0723873
-0.0369351
-0.0111076
-0.0941358
-0.0659624
-0.0402882
-0.0206525
-0.00622744
-0.605299
-0.416971
-0.250115
-0.126224
-0.0377132
-0.391834
-0.271399
-0.163692
-0.0829865
-0.0248584
-1.92191
-1.30525
-0.771541
-0.384532
-0.114052
-1.23169
-0.842615
-0.501547
-0.25135
-0.0747737
-6.26524
-4.17823
-2.42546
-1.19087
-0.35029
-3.53166
-2.37712
-1.3912
-0.687229
-0.202769
-26.6069
-17.2674
-9.78219
-4.71501
-1.37513
-65.5598
-41.5051
-23.026
-10.9319
-3.17324
-149.057
-91.7687
-49.823
-23.3159
-6.76716
-447.204
-266.18
-141.326
-65.2848
-19.2088
-825.589
-473.048
-246.513
-113.068
-34.4638
-1128.98
-636.646
-328.926
-150.494
-46.6294
-33.7179
-21.9593
-12.4776
-6.02828
-1.7595
-68.1379
-43.5621
-24.3635
-11.636
-3.38131
-120.783
-75.5683
-41.5423
-19.6094
-5.68449
-195.919
-119.433
-64.421
-30.0502
-8.72993
-293.052
-172.738
-91.2862
-42.1419
-12.4061
-362.15
-209.431
-109.419
-50.2507
-14.9284
-0.0350455
-0.111346
-0.387692
-1.29141
-4.14767
-12.827
-0.0408046
-0.184644
-0.727576
-2.45689
-7.32765
-19.4544
-0.0163247
-0.00552867
-0.0575785
-0.0261041
-0.2183
-0.120987
-0.781179
-0.512255
-2.51735
-1.68055
-8.3271
-4.92564
-36.1244
-91.3064
-214.464
-675.514
-1340.51
-1913.73
-45.6104
-93.9262
-170.57
-285.824
-449.645
-575.874
-0.0276414
-0.0195456
-0.0120583
-0.0062373
-0.00189143
-0.0871576
-0.061045
-0.0372736
-0.0191062
-0.00576241
-0.301012
-0.208735
-0.126108
-0.0640508
-0.0192121
-0.99294
-0.680605
-0.406291
-0.204265
-0.0609047
-3.14986
-2.12869
-1.25291
-0.622586
-0.184406
-9.58688
-6.36699
-3.68578
-1.80738
-0.531609
-0.0320149
-0.0224898
-0.013776
-0.00708114
-0.0021391
-0.143651
-0.0998623
-0.0604902
-0.0307919
-0.00924769
-0.561351
-0.386329
-0.231564
-0.116818
-0.0348978
-1.87764
-1.27783
-0.757245
-0.37837
-0.112411
-5.53867
-3.72233
-2.17868
-1.07761
-0.318346
-14.5151
-9.61762
-5.55379
-2.71778
-0.798387
-0.0129435
-0.00921421
-0.00572684
-0.00298192
-0.000907883
-0.00439642
-0.00314197
-0.00196134
-0.00102525
-0.000312865
-0.0453046
-0.031941
-0.0196435
-0.0101331
-0.00306774
-0.0206162
-0.014606
-0.00903081
-0.00468072
-0.00142099
-0.170379
-0.118919
-0.0723469
-0.0369687
-0.0111288
-0.0948387
-0.0665563
-0.0407283
-0.0209178
-0.00631549
-0.604011
-0.416784
-0.250527
-0.126699
-0.0379097
-0.398157
-0.276449
-0.167233
-0.0850301
-0.0255212
-1.92463
-1.31042
-0.776981
-0.388434
-0.115463
-1.29474
-0.889065
-0.531555
-0.267556
-0.0798463
-6.26935
-4.19537
-2.44554
-1.20562
-0.35559
-3.74939
-2.53812
-1.49541
-0.7434
-0.220225
-26.4507
-17.2032
-9.77301
-4.72417
-1.38054
-65.1222
-41.3298
-23.0023
-10.9573
-3.18794
-147.895
-91.2957
-49.742
-23.3659
-6.79956
-442.725
-264.114
-140.69
-65.2314
-19.2465
-816.651
-468.197
-244.376
-112.359
-34.3203
-1123.98
-633.794
-327.575
-149.982
-46.5066
-33.5054
-21.8454
-12.432
-6.01637
-1.75813
-67.6944
-43.3279
-24.2712
-11.6124
-3.37874
-119.978
-75.1523
-41.3826
-19.5707
-5.68097
-194.488
-118.691
-64.1284
-29.9728
-8.72026
-290.845
-171.505
-90.7227
-41.942
-12.3619
-361.012
-208.775
-109.101
-50.1278
-14.8991
-7835.56
-4126.8
-99.6659
-25.7988
-15.6808
-13.0319
-32.7655
-4474.37
-2914.35
-1938.92
-1595.65
-337.557
-845.08
-168.195
-190.486
-94.8917
-6929.79
-1777.47
-160.763
-324.089
-843.895
-366.911
-295.584
-143.724
-46.3737
-48.0889
-125.513
-128.953
-7299.85
-3217.4
-3017.06
-1465.5
-873.308
-1523.54
-183.309
-86.3942
-307.937
-4000.13
-2358.81
-1241.22
-600.849
-244.607
-2059.72
-1070.74
-555.683
-256.083
-83.6024
-70.984
-45.0208
-25.0456
-11.9239
-3.47175
-18.9666
-12.388
-7.06448
-3.4245
-1.00232
-11.6052
-7.62372
-4.36628
-2.12219
-0.621266
-9.78561
-6.5269
-3.79122
-1.86321
-0.548421
-24.0276
-15.6375
-8.8833
-4.29176
-1.25334
-2247.81
-1214.1
-628.038
-305.153
-138.274
-1469.34
-812.968
-419.131
-197.485
-67.7183
-1035.05
-542.899
-282.236
-129.774
-42.2839
-797.793
-427.278
-219.919
-99.7091
-29.8904
-218.282
-128.446
-67.4761
-30.7716
-8.81537
-498.003
-275.47
-142.722
-64.6441
-18.7066
-114.64
-69.9241
-37.6448
-17.4698
-5.0184
-129.185
-78.4669
-42.0949
-19.4811
-5.58779
-66.0948
-40.9704
-22.3126
-10.4355
-2.99987
-3466.55
-1861.8
-981.327
-469.273
-206.028
-1003.74
-554.827
-290.123
-133.379
-43.549
-108.163
-65.5208
-35.1731
-16.3266
-4.74497
-218.4
-132.754
-71.5742
-33.392
-9.80488
-542.776
-321.301
-170.398
-78.7673
-23.7309
-247.665
-150.696
-81.2958
-37.9396
-11.1303
-202.673
-124.758
-67.8544
-31.8209
-9.29391
-100.853
-63.1103
-34.7267
-16.4074
-4.77303
-33.035
-20.9025
-11.5833
-5.49069
-1.59016
-34.8268
-22.4038
-12.6017
-6.04425
-1.76111
-87.1322
-53.9907
-29.4533
-13.8172
-4.00226
-90.3084
-56.4343
-31.0222
-14.6467
-4.26184
-3698.48
-2091.86
-1107.94
-521.335
-213.602
-1690.44
-904.827
-471.496
-217.438
-73.2607
-1698.08
-991.625
-509.907
-231.397
-75.2178
-891.171
-504.708
-265.47
-122.194
-37.9404
-567.915
-338.561
-180.048
-83.245
-24.8606
-922.122
-522.94
-274.887
-126.258
-38.7682
-125.666
-77.185
-41.8761
-19.6022
-5.71538
-62.4108
-40.0305
-22.4551
-10.7485
-3.12865
-212.42
-131.13
-71.4213
-33.5193
-9.76653
-5.73212
-19.9449
-43.5839
-82.654
-139.845
-215.1
-4945.41
-12771.7
-10772
-4290.9
-15778.8
-14526.1
-13416.2
-13813.2
-4845.22
-3324.58
-11732.8
-6607.31
-18841.4
-17674.2
-1054.58
-3833.65
-10055.9
-8177.69
-3225.59
-12505.7
-11049.4
-10278.1
-10376.2
-3952.69
-1850.88
-10121
-3369.59
-13710.1
-11493.2
1982.64
-2480.46
-6629.87
-5104.9
-1981.21
-8427
-5814.66
-6664.42
-6297.62
-2715.93
-1777.22
-6605.57
-3637.7
-8944.98
-4716.77
1931.01
-1404.77
-3904.35
-2796.28
-1071.29
-4750.01
-2412.31
-3763.27
-3402.31
-1685.77
-1562.98
-4156.26
-3097.23
-5544.38
-1538.94
1229.94
-787.317
-2270.64
-1506.89
-575.208
-2352.26
-920.839
-2068.91
-1907.55
-993.448
-1507.33
-2253.62
-2510.85
-3231.45
-409.9
-188.27
-452.409
-1265.24
-826.145
-313.371
-1313.92
-778.39
-1116.28
-1132.1
-535.235
-1086.79
-1166.07
-1918.54
-2586.56
-1148.34
-1202.38
-1497.25
-3576.9
-6684.85
-2689.98
-5154.35
-7607.46
-8886.5
-10892.5
-726.052
-270.33
-2706.21
-910.422
-1279.05
-5674.94
-1742.41
-1262.38
-3016.7
-5339.87
-2137.98
-4270.94
-6129.94
-7149.53
-8205.08
-636.539
-130.8
-2452.56
-572.052
-519.57
-4645.89
-619.355
-887.682
-2117.39
-3502.27
-1390.82
-3051.11
-3982.49
-4785.88
-5351.88
-428.297
-98.9736
-1570.15
-408.381
-420.972
-2504.63
-253.208
-506.068
-1267.97
-1932.95
-762.71
-1825.23
-2146.04
-2785.4
-2998.53
-239.32
-59.8102
-922.673
-247.267
-191.584
-1326.57
-68.4483
-271.128
-699.527
-1029.73
-405.409
-908.215
-1035.02
-1524.78
-1658.16
-119.319
-66.9064
-458.905
-190.275
-75.427
-641.85
-83.9116
-139.415
-334.639
-545.234
-213.832
-445.21
-660.331
-797.317
-973.078
-65.8224
-62.1411
-215.084
-135.19
-92.5716
-499.34
-185.606
11322.4
14775.6
27773.4
43244.3
42997.7
75607.3
31023.2
79596.2
24451.4
54370.2
36680.9
57839.9
31840.3
44893.5
12349.1
14812.9
29804.7
32740.9
38179
37396.7
26511.9
29335.5
39892.5
34079.7
10401.8
8795.18
13123.9
9843.72
26516.3
22974.3
45947.5
36206
33889.7
34349.6
40778.1
39051
16104
12676
74975.6
99092.6
49981.5
60868.2
91695.6
118711
47976.1
55419.1
60224.1
84162.9
55228.9
71639.7
34952.6
53721.2
6821.31
2460.48
7192.13
2742.94
21481.5
9230.86
30041.2
11698.3
21805.9
8938.06
22587.9
7890.93
37747.3
12977.2
48629.4
17598.9
38577.5
20867.7
38175.9
22712.1
30517.9
19074.4
29641.8
19693.6
36063.4
23504.3
34815.8
20652
41425.3
24876.3
42510.4
25159.6
33361.7
21045.9
34579.7
21060.9
39790.4
26214.5
41597.1
26984.9
40314.9
20691
24301.3
34474.7
38988.1
22522.4
21438
34210.1
43536.8
20522
26867.9
35004.5
46120.6
20970.2
28671.1
36186.3
8383.31
8623.68
3094.94
6286.61
25024.5
25231.1
11001.8
20386.3
30512
31129.4
18518.7
31611
11562.4
-873.644
20866.4
33696.3
24014.6
-2105.79
3961.05
17129.4
34908.1
35685.7
11168.9
17839.5
21721.9
25040
44890.3
6159.57
3688.87
3856.17
2996.61
18266.6
11359.9
13407.2
9811.84
21216.3
13039
18470.1
12657.6
3083.69
3322.46
8733.87
7518.73
18124.1
12895.5
24879.3
16526.1
25699.7
16903.9
7600.96
4904.47
13076.9
6533.28
17317.2
8699.3
21130.7
10620.1
31645.4
15368.8
13235.3
3737.49
13080.5
7627.58
10878.5
8215.1
12225.4
10421.9
15824.3
9322.52
16866.5
4195.33
12277.1
10996.3
12022.5
11728.1
12174.2
12760.9
12255.9
13651.5
14792
13403.4
14491.1
14109.6
23560.9
11508.3
36269.6
12347.7
22293.3
5185.54
33158.9
6036.55
23072
14599.9
37020.1
13690.8
21522.7
16194.3
34914.5
16170.6
1922.78
1037.11
475.813
1632.67
901.71
444.304
6187.15
2631.36
983.528
5091.01
2100.8
784.996
6319.83
2576.77
1193.68
6335.57
2383.09
1059.36
1766.48
607.726
284.43
4449.92
1356.33
474.529
6592.16
2117.35
673.174
8213.18
2934.23
1128.14
8652.02
2857.39
948.631
4831.48
1939.44
689.273
4893.99
2018.37
636.195
6662.59
2568.03
743.229
7895.52
2941.34
830.852
11007.7
3671.35
888.556
11144.8
13478.3
9769.95
11774.6
16560.9
20751.4
16607.4
20912.9
-340.101
94.2638
-742.099
-132.27
1748.85
1488.88
507.299
118.4
1015.27
2254.43
8096.56
10273
3520.23
2285.55
12137
13025
23301
26554.8
44.5585
-3202.26
7255.75
7202.22
5083.81
3883.44
474.842
229
387.704
213.108
1434.26
194.871
330.652
-49.6872
5721.89
992.386
4457.65
938.44
6094.57
1341.55
7446.41
1553.88
9793.15
9000.51
9448.84
9087.87
17784.1
14791
17943.7
14540.9
5196.05
5342.97
5678.51
5143.79
10274.7
9130.7
11246.3
9156.47
19587.6
14802.6
20758.6
14786.9
5375.12
5357.05
5765.25
5377.26
126.685
254.378
2617.47
735.672
81.674
177.792
2334.55