/*--------------------------------*- C++ -*----------------------------------*\
| =========                 |                                                 |
| \\      /  F ield         | OpenFOAM: The Open Source CFD Toolbox           |
|  \\    /   O peration     | Version:  2306                                  |
|   \\  /    A nd           | Website:  www.openfoam.com                      |
|    \\/     M anipulation  |                                                 |
\*---------------------------------------------------------------------------*/
FoamFile
{
    version     2.0;
    format      ascii;
    arch        "LSB;label=32;scalar=64";
    class       volScalarField;
    location    "1.7";
    object      gradTy;
}
// * * * * * * * * * * * * * * * * * * * * * * * * * * * * * * * * * * * * * //

dimensions      [0 -1 0 1 0 0 0];

internalField   nonuniform List<scalar> 
5712
(
12034.4
6940.99
19480.8
12790.3
21277.6
15769.3
33338.4
41429.7
43867.4
53788.6
28398.4
24706.6
18031.3
14315.5
9062.39
6133.49
20106.8
20464.4
17364.8
20343
27162.4
24136
31444.5
25332.5
8465.17
6064.02
4767.49
3548.8
10100.6
8209.79
6151.17
4988.77
18535.1
19159.8
18855
15779.4
14580.3
11479
11510.5
13096
18532
18470.1
39019.8
40368.5
27543
28409.7
15845.7
13360.7
17185.4
12239.1
7992.81
8228.44
6611.04
9414.27
3463.54
4220.79
9050.64
12587.8
5405.19
6356.11
9983.58
17038.5
6937.76
11463.9
2636.64
6799.28
2194.93
5065.55
17993.1
22262.2
18654
22222.1
21979
22159.5
22472.2
21931
15931
21632.4
16299.2
21331.9
18413.3
22100.4
18428.6
22066.2
22710.8
21684.1
22661.1
21495.3
14745.8
21741
14249.8
21829
18157.5
21467.8
22924.4
32210.4
19240.1
24873.5
22728.7
35090.5
17211.7
18858.4
23006.4
30914.8
17030.6
17629.4
23252.2
30658.7
5590.98
7363.54
14302.3
25161.4
6900.39
7888.55
18342.5
28492.2
8539.66
8641
23149.8
31606.6
24828.3
26436.7
21221.7
20698.6
30428.4
26555.9
25250.1
21630.4
18899.3
34909.5
24231
24071.5
21628.6
21774.1
39705.2
2138.54
2575.31
4614.34
10681.9
3025.72
3446.68
6328.63
11886.9
4482.08
3802.59
8554.12
13519.4
26161.4
25623.1
23731.7
23127.4
20568.8
18629.7
15673.6
13768.3
11197.9
15744.7
23885.6
22886.1
24226.7
23668.2
21228.1
19766.5
17737.1
15832.4
11907.8
15821.7
24089.2
27071.3
24049.2
27782.3
23155.3
23893.9
22636.6
24116.6
22057.5
22415.7
21868.7
21746.8
23872.9
27916.6
23777.1
27906
21993.3
24441.3
21825.1
24400.3
22143.4
22365
22146.1
22358.2
18675.2
17746.4
12078.3
13479
18557.6
17293.7
11906.1
13574.2
18926.9
17684.1
12336.1
13513.5
19003.5
17503.1
12717.7
13513.5
1718.02
1140.35
780.557
983.03
659.898
612.923
2398.31
1394.54
1040.38
1926.55
1525.53
1297.94
2749.07
2222.88
2202.63
3375.84
2717.28
2418.18
24172.7
21506.7
19688.7
22368.1
20453
18979.6
16124.7
14756.3
13999.6
11069
9424.9
8718.15
5158.54
3724.4
3119.48
21935
19989.9
18410.9
22674.1
20331.4
18572
16913.8
14266.4
12779.5
11110.6
8706.44
7720.23
5477.56
3698.52
2930.67
27457.6
26788.2
29976
26822.4
30858.6
26823.6
37351.3
28319.3
21214.2
21456.7
20976.1
19416.8
23808.9
22346.6
23421.2
19963.5
23193.7
22963.6
21341
22757.4
28306.6
25505.3
28301.7
28766.9
30809.6
31900.1
23546.4
24460.4
21072.9
20470.5
25585.2
26271.7
16557.1
8967.29
15515.7
9920.58
16810.2
9049.6
15485.2
9862.46
16586.5
9095.24
15449.9
10276.3
15046.3
10749.7
15238.7
10661.4
21350.9
18181.9
21291.5
18193.8
23619.6
21272.1
23925.3
21104.8
20819.9
15155.2
21654
14925.2
21806.1
18130.3
22102.8
17933.3
24588.7
20958.9
24629.1
20702.2
20657.7
15218.3
20616.7
15129.4
13642.3
9135.24
11993.1
7773.01
12682.5
8187.83
11506.4
7268.46
13998
9703.94
12198.3
8009.6
14026.5
10048.1
12171.4
8068.09
2606.79
1367.41
4807.62
2630.56
2780.75
1674.05
5121.16
3138.09
3417.91
2519.89
5667.25
4086.89
13128.4
20373.4
9474.68
9098.07
6543.17
19904.5
13828.7
8113.66
8160.07
5399.68
20764.9
16309
12949.7
10088.9
6382.83
736.566
551.059
1543.93
1153.1
1034.69
711.388
2145.07
1712.04
1784.57
1365.07
3081.91
2511.1
20125.4
19324.7
13593.8
12905.8
8821.52
8785.92
7430.65
6734.08
4621.6
3784.19
18926.9
17083.9
14624.2
12718.9
11361
9973.24
8650.53
7705.76
5630.78
5478.44
15035.7
12048.1
15153.5
11791.6
18141.5
14961.9
18135.7
14798.9
12647.3
10143.5
12253.9
10154.4
15175
11628.6
15087.4
11615.8
18085.4
15105.9
17920.9
15070.6
12885.9
10000.5
12866.3
10133.5
9851.96
8232.83
6619.67
6848.82
9483.17
8037.46
6318.26
6481.61
10274
8400.65
6789.42
7243.43
10514.7
8399.67
7051.99
7347.55
1655.34
1448.93
1196.71
7096.34
3798.94
3101.73
1614.34
1582.58
1401.34
7734.05
4513.28
3819.04
2228.32
2481.93
2535.23
8607.44
5683.1
5047.87
17963.3
16559.5
15586.5
12211.1
11668
11337.2
8852.07
8616.77
8544.86
7527.16
7188.08
6965.84
9864.49
7053.4
6347.68
15364.1
13931.7
12989.1
11357
10389.4
9846.05
9371.55
8553.92
8102.14
8926.17
7814.85
7180.49
12032.6
7970.91
7117.39
4972.26
3100.68
2127.61
1662.23
5586.57
3362.78
2242.62
1703.83
4999.06
3099.07
2132.86
1673.64
5708.12
3432.53
2290.53
1729.45
4989.65
3069.79
2145.93
1677.6
5825.5
3477.72
2350.56
1745.66
6266.6
3679.6
2391.19
1794.72
6451.65
3820.45
2460.64
1854.94
5317.21
3267.14
2235.27
1704.95
4375.07
2878.22
2055.8
1635.72
4676.21
2965.17
2091.6
1598.11
4035.67
2716.05
1975.53
1573.45
5748.41
3495.78
2334.72
1773.37
4579.31
2997
2106.6
1684.03
5992.12
3651.89
2407.55
1826.97
4670.34
3082.55
2151.24
1716.34
3770
2669.21
1944.01
1579.64
2479.93
2155.35
1720.44
1485.5
3783.17
2658.08
1942.47
1576.84
2588.86
2185.31
1731.14
1493.77
3877.46
2659.24
1957.23
1588.69
2916.47
2282.13
1770.27
1529.68
3838.49
2599.09
1926.65
1621.65
3200.33
2351.02
1822.05
1525.92
3583.09
2527.62
1885.18
1550.67
1195.79
1740.56
1377.5
418.262
-220.629
1511.47
1240.74
437.663
1428.39
1817.95
1409.21
441.052
62.3008
1597.19
1267.85
446.979
1867.24
1955.45
1455.78
439.667
546.244
1742.59
1306.92
451.999
2408.7
2120.49
1527.5
477.051
1069.38
1905.47
1364.51
471.36
2774.8
2273.47
1617
553.649
1229.25
2031.45
1418.42
488.369
2966.15
2444.77
1656.33
528.316
968.913
2171.38
1519.79
518.638
2890.59
2369.02
1626.75
528.216
921.517
2106.6
1468.24
500.717
2994.02
2498.51
1676.96
493.841
922.874
2226.62
1552.97
521.732
3056.93
2554.33
1720.08
503.889
1025.1
2285.4
1593.44
534.206
1415.57
1029.07
679.771
383.186
123.438
1400.92
1027.12
680.332
383.728
123.621
1433.38
1037.89
683.927
385.065
123.981
1423.86
1038.41
685.876
386.288
124.366
1468.64
1050.43
689.303
387.436
124.662
1453.11
1051.75
692.368
389.292
125.243
1473.85
1066.84
700.881
393.461
126.482
1508.52
1088.39
712.947
399.388
128.248
1504.27
1065.44
696.986
391.075
125.732
1604.54
1083.6
702.078
392.927
126.233
1511.5
1061.52
693.298
389.076
125.123
1602.24
1077.01
697.994
390.895
125.626
1517.81
1078.7
704.613
394.832
126.851
1634.05
1096.45
708.999
396.305
127.239
1552.93
1099.66
715.955
400.348
128.491
1671.29
1115.14
718.808
401.056
128.651
1453.83
1034.21
679.706
382.747
123.277
1527.24
1040.05
679.852
382.496
123.18
1470.7
1041.19
682.82
384.126
123.672
1540.71
1045.33
682.238
383.557
123.484
1505.4
1052.88
687.715
386.28
124.29
1570.47
1054.96
686.48
385.46
124.032
1560.82
1066.19
692.644
388.384
124.889
1606.13
1065.31
691.298
387.664
124.671
1613.14
1073.04
695.419
389.617
125.244
10568.5
16315.6
11030.6
16564.1
11695.7
16861.6
12102.3
16993.1
11521.4
16222.8
10557.6
11914.6
10608.5
12561
10595.6
11775.5
10770.2
11901.9
9392.78
1610.52
344.674
77.4369
13.7309
10457.4
2979.59
724.41
164.605
29.1749
9458.66
1593.37
338.656
75.8145
13.409
10512.3
2958.67
716.83
162.148
28.4981
9492.55
1578.14
332.766
74.203
13.0996
10524.3
2932.55
707.034
159.402
27.9807
9340.72
1520.37
317.877
70.7343
12.4826
10334.5
2854.53
686.034
154.465
27.0932
8792
1394.99
291.147
65.0084
11.5013
9724.94
2691.86
649.256
146.643
25.7648
7726.04
1274.75
274.821
62.3937
11.1277
7912.75
2300.35
569.945
130.938
23.2361
8046.08
1306.38
278.313
62.782
11.1591
8442.96
2449.96
601.544
137.069
24.1903
7594.5
1265.01
273.955
62.344
11.13
7721.99
2230.73
553.123
127.479
22.6876
7553.74
1252.99
271.097
61.7125
11.0074
7714.73
2211.91
546.934
126.332
22.4467
34306
48791.1
47644.8
33259.7
19514.2
20553
28787.7
30114.3
22593.9
25361.7
35987.1
49200.3
45531.7
60412.2
29704.4
33899.1
23274.9
24894.3
12623.1
13851.9
4866.91
3172.93
750.868
561.212
634.846
550.085
685.567
4697.42
4570.45
2725.83
3801.68
3599.9
1530.49
2152.02
1923.95
1246.08
1444.31
1169.65
4250.32
2230.9
1370.13
1205.86
1566.68
1348.57
1037.51
969.645
896.645
780.309
1089.38
978.312
4478.45
2665.72
3073.28
1908.98
1546.27
2224.11
1057.2
807.136
1169.8
9805.02
9724.06
9745.09
10733.4
17250.1
6963.49
7859.94
8457.6
9353.96
10775
1966.91
2792.48
3410.03
3825.22
4038.29
1483.02
2132.11
2629.49
2965.44
3135.44
1675.55
2403.32
2955.54
3324.1
3508.61
1455.52
2096.12
2587.69
2918.77
3085.36
1804.18
2577.34
3160.07
3549.27
3745.41
9790.88
9931.75
9644.6
10047
15367.7
9504.26
9473.55
9036.67
9106.59
10272.7
6212.87
7260.9
7727.24
8156.17
8729.31
8144.23
8430.06
8098.57
7941.13
8079.49
7710.3
8058.23
7726.64
7454.82
7408.58
3791.31
4962.45
5670.58
6104.84
6344.11
5078.22
6207.61
6750.1
7080.32
7322.08
4603.17
5725.22
6269.49
6543.45
6683.69
3159.13
4269.96
4993.99
5437.82
5660.45
3595.7
4733.36
5416.16
5810.2
6003.77
2984.99
4070.46
4789.13
5226.86
5439.87
9030.16
9471.02
9468.94
10119.7
15667.6
5260.63
6469.69
7167.16
7759.58
8381.03
3446.52
4613.65
5373.34
5864.91
6141.05
3069.02
4180.62
4941.75
5446.59
5726.26
3877.23
5087.17
5867.7
6418.53
6792.48
3401.27
4581.51
5387.57
5949.5
6289.91
2670.86
3702.2
4445.09
4952.55
5231.06
2511.83
3507.8
4225.24
4701.21
4948.89
2335.33
3282.57
3964.33
4403.46
4620.72
2044.67
2901.04
3533.81
3949.55
4157.15
2798.29
3856.22
4585.66
5050.89
5287.6
2532.23
3530.18
4241.55
4706
4943.85
9248.96
9453.51
9528.06
10423.6
16537.1
6043.11
7117.05
7818.51
8644.12
9739.64
7076.62
8171.93
8648.07
9456.82
11362.3
4614.69
5896.43
6747.91
7463.26
8072.75
3844.36
5086.5
5927.34
6553.64
6982.45
5252.7
6494.06
7254.98
7943.44
8669.94
2720.11
3765.29
4511.27
5014.55
5287.5
2109.71
2983.99
3629.02
4056.55
4273.52
2985.9
4086.37
4852.86
5369.44
5657.43
18979.8
12625.1
19535.6
13980
25263
36256.7
26435.4
36105.2
20058.7
21170.6
17238.5
20490.9
22703.2
21520
29034.1
23697.1
14688.7
13814.2
7196.84
6175.28
15991.6
14688.4
8257.66
6768.05
19804
21370.6
20243.1
18421.3
20699.9
13628.2
11345.5
13075.1
18500.3
18458.9
38561.4
40287.3
26848.6
28227.4
16500.9
13504.1
17952.6
12380.4
8714.14
8404.82
14609.7
16222
6106.14
6680.65
16048.7
18384.5
7604.6
8421.95
15261.2
21442.9
8853.36
13710.2
3083.41
7574.25
2285.06
5216.91
18618.6
21243.8
18565.6
21632.7
20198.1
20442.9
21326.6
20978.3
17036.3
21536.8
19339.9
21236.5
18258.3
21785.9
18364
21964.3
22126.9
21200.7
22490.6
21346.2
15086
21664.5
14308.3
21796.7
19125.8
22752.2
23197.7
32526.4
20857.2
26998.9
23294
35733.7
17655.5
19481.7
23113.9
31055.4
17145.6
17803.1
23273.9
30695.6
20053
21644.7
25261.4
37565.6
20137.7
20579.1
27017.9
38028.2
19785.1
19411.5
29036.9
37663.4
18813.7
19566.6
20260.8
21732.8
32975.7
18780.5
17655.8
21597.4
19823.9
37760.4
19594.8
20571.7
20562.6
22505.4
40754.9
11835.1
10780.5
11091.9
14446.4
12961.1
11825.9
11484.9
14829.9
14278.3
12321.4
12000.3
15133.2
18140.7
17334
17135
16574.2
19968.6
18558.1
16582.9
14865.2
12554.6
15769.8
19192.9
18859.1
20472.1
20509
19791
18551.2
18095.6
16027.7
12350.8
15226.5
22312.1
25060.3
23166
26711.2
20956.4
21793.4
21592.2
23089
21599.5
21805.9
21071.5
20768.5
23445.5
27403.5
23647.9
27754.2
21509.4
23947.4
21682.2
24256.7
21896.8
22055.3
22068.3
22266.3
18584.5
17515.8
12137.6
13395.5
18529.3
17043.5
12121.5
13480
18852
17546.8
12343.7
13458.6
18974.8
17458.3
12715.2
13493
9835.91
9988.8
4261.24
3913.07
10970.8
10598.7
4773.11
4557.45
10677.7
9966.71
5425.22
5223.97
16962.6
16362.8
16689.2
16687.2
16777.5
16186.2
12718.2
11316.9
6410.01
5261.15
19015.5
18134.5
20508.1
19597.6
16425.8
15126.6
11896.2
10141
5885.07
4380.22
22484.9
21299.9
27717.3
24108.9
25139.3
22320.8
34611
25977.4
20531.2
16876.6
22440.6
17758.6
20394.8
17157.1
22535
17995.2
21048.4
18571.8
18977.7
17571.4
21442.2
22827.1
26950.3
28358.9
29693.3
31580.6
22216.3
23995.7
20010.1
20167.8
24056.9
25758.5
13740
10167.5
14213.9
10403.3
14022.1
10082.2
14413
10259.7
13920.2
9933.75
14353.9
10461.2
14407.6
10778
15028.9
10663.4
17470.9
16890.3
19369.9
17397.6
20095.7
19201.8
22065.6
19960.1
18998.4
14855.7
17986.1
14642
20857.2
17708.1
21821.7
17805.6
23691.6
20385.2
24370.8
20529.7
19754.7
15029.9
20352.7
15070.8
13233.7
9541.79
12191.7
8151.02
12623.7
9241.86
12101.3
8068.51
13682.6
9851.49
12258.4
8185.67
13916.1
10082.7
12186.3
8125.01
13172.6
13233.9
9544.06
8802.23
13305
13345.6
9400.09
8730.31
13246.9
12826.4
9170.06
8633.13
15392.4
18224.9
16156.6
12014.6
8902.91
16884.5
15741
17525.9
12011.9
8601.55
18627.8
16429
14523.1
12176.9
7991.16
13642.1
14554.1
8689.61
9248.79
13518.8
14197.5
8619.08
9133.22
12642.9
12941.8
8268.67
8329.19
16638.1
15658.9
14956.8
14266.2
15454.3
15710
12030
12626.3
8042.63
7812.06
16847.2
15324.9
15086.2
13634.2
13505.4
12740.5
11419.2
11239.3
7443.77
7779.14
14782.7
12476
14871.1
11932.7
16840.6
14171.5
17386.3
14379.8
12816.9
10701.3
12888.3
11437.6
14993.1
11684.5
15030.4
11629.8
17710.6
14897.7
17809.4
15010.9
12906.3
10237
12859.3
10192.4
10343.8
9009.36
7108.24
7569.64
10614.2
9671.71
7285.22
7932.94
10468.2
8741.85
7016.14
7624.28
10569.3
8497.97
7128.06
7466.37
17027.6
16931.7
22714.4
19245.4
16396.6
16398.6
21796
18409.6
14432.4
14949.7
20027.9
17118.5
15064.3
14473.1
13734.4
13453.1
15727.4
16041.1
14318.2
14188.7
18380.2
15639.6
14182
13403.9
12818.2
12544.9
12901
13121.6
13609.8
13223.3
17860.5
14293.8
6424.86
4052.84
2686.87
2023.44
6658.32
4176.85
2757.35
2042.06
6315.53
3983.24
2643.95
2002.42
6602.12
4136.14
2735.7
2023.67
6116.87
3847.68
2594.87
1965.9
6519.79
4044.15
2723.33
1994.52
6670
4035.19
2641.22
1968.89
6586.3
3943.97
2545.23
1915.48
5906.14
3716.02
2540.54
1922.42
4776.37
3201.18
2273.97
1799.75
5607.57
3604.73
2489.96
1865.24
4692.14
3212.33
2267.83
1771.12
6072.4
3763.5
2525.93
1912.61
4795.85
3179.56
2242.84
1794.75
6092.46
3741.45
2473.13
1875.57
4738.6
3142.03
2197.67
1754.32
5940.49
3819.07
2562.23
1967.4
5145.14
3475.01
2396.97
1899.26
5795.83
3746.94
2522.54
1938.57
5046.15
3433.85
2374.21
1889.07
5593.58
3630.25
2479.05
1916.84
4973.44
3379.8
2348.11
1885.14
5160.54
3415.7
2375.23
1909.48
4805.95
3289.88
2313.72
1815.84
4556.86
3199.16
2248.76
1774.01
3987.26
3124.21
2009.54
571.11
2210.96
2901.04
1885.7
620.262
4018.59
3121.99
2011.41
590.934
2354.47
2902.97
1883.44
622.735
4077
3101.62
1989.35
565.467
2553.8
2889.21
1859.15
608.858
4031.97
3051.73
1996.47
594.079
2565.21
2844.98
1841.14
609.199
3773.34
2952.49
1996.98
666.695
2083.72
2741.01
1807.46
605.589
3276.3
2733.29
1881.15
608.973
1142.13
2479.31
1725.88
588.486
3454.85
2827.11
1933.78
626.795
1321.05
2592.45
1760.91
593.398
3149.23
2657.08
1812.89
544.404
989.805
2394.18
1673.45
564.138
3102.05
2604.89
1764.94
520.945
1039.52
2337.79
1632.36
548.127
1674.53
1179.53
761.004
422.464
135.079
1637.67
1169.87
758.336
421.596
134.857
1673.28
1175.13
757.943
420.854
134.588
1632.63
1163.04
753.921
419.326
134.17
1687.4
1171.57
754.332
418.852
133.973
1629.34
1155.07
748.657
416.616
133.352
1594.85
1138.51
740.1
412.536
132.147
1552.99
1115.4
727.804
406.629
130.4
1665.68
1158.86
747.316
415.43
132.955
1757.55
1166.75
746.302
414.261
132.556
1716.55
1172.5
752.422
417.592
133.572
1799.51
1176.96
750.743
416.284
133.145
1624.38
1142.76
739.385
411.702
131.858
1733.18
1152.76
739.177
410.904
131.569
1589.82
1121.84
728.061
406.235
130.24
1705.32
1134.74
729.365
406.175
130.17
1747.44
1193.75
764.189
423.367
135.297
1867.33
1206.62
766.427
423.944
135.432
1750.93
1191.08
762.064
422.22
134.945
1868.42
1204.21
764.747
423.06
135.163
1765.91
1187.57
758.682
420.389
134.385
1874.4
1199.54
761.519
421.402
134.661
1804.77
1186.47
755.651
418.645
133.845
1883.48
1192.54
757.476
419.4
134.06
1845.97
1183.86
753.521
417.535
133.508
12330.6
16281.8
12386.7
16280.7
12507.2
16260.1
12274
16034.6
11435.7
15208.8
10529.1
11804.2
10591.3
12326.7
10573.3
11719.9
10762.1
11885.2
9564.4
1598.32
337.654
75.4012
13.3308
10298.5
2926.65
708.049
160.239
28.3281
9517.32
1570.94
330.616
73.6884
13.0056
10246.2
2888.39
698.132
157.527
27.6388
9380.84
1540.44
323.23
71.9478
12.6913
10114.1
2838.97
685.319
154.472
27.1028
9093.36
1473.48
307.892
68.5382
12.0982
9836.64
2748.2
663.1
149.531
26.2421
8547.53
1354.39
282.8
63.1918
11.1852
9280.82
2596.15
628.63
142.239
25.012
7651.47
1260.08
271.217
61.5186
10.9672
7815.68
2266.35
560.785
128.747
22.8409
7914.68
1281.2
272.525
61.448
10.9213
8247.45
2389.04
586.599
133.704
23.6038
7555.47
1257.28
271.994
61.852
11.0378
7675.2
2213.95
548.362
126.29
22.467
7541.57
1250.56
270.475
61.5543
10.9774
7700.57
2206.9
545.483
125.96
22.3766
33867.7
48528.4
46684.8
31926.1
24855.1
29737.5
24001.6
29612.9
27944.6
44602.6
29667.1
45701.9
140.706
155.322
187.758
240.82
319.382
429.618
152.803
168.022
201.649
256.124
335.088
443.114
131.632
127.182
146.993
143.984
181.206
181.607
237.685
244.95
320.391
336.814
430.599
449.041
579.482
778.185
1045.63
1411.42
1839.62
2148.65
585.21
765.579
987.294
1242.08
1489.42
1650.55
376.354
551.328
691.829
789.891
840.232
415.237
607.788
762.046
869.493
924.579
501.482
732.924
917.582
1045.76
1111.33
642.291
936.601
1170.02
1331.28
1413.54
850
1235.36
1538.43
1746.53
1852.36
1139.57
1647.84
2042.9
2312.2
2448.87
408.572
598.193
750.221
856.192
910.549
448.984
656.702
822.789
938.295
997.459
538.227
785.812
982.839
1119.34
1189.1
682.464
993.75
1239.81
1409.44
1495.9
890.686
1292.1
1606.59
1822.12
1931.73
1173.68
1693.68
2096.37
2370.7
2510.16
352.17
516.104
647.882
739.943
787.232
340.304
498.808
626.289
715.389
761.171
393.083
575.622
722.035
824.123
876.494
385.08
564.004
707.59
807.745
859.139
484.155
707.989
886.824
1011.09
1074.7
485.274
709.734
889.132
1013.82
1077.65
634.21
925.438
1156.77
1316.73
1398.36
653.62
953.796
1192.22
1357.05
1441.14
853.168
1240.98
1546.46
1756.31
1863
896.839
1304.3
1624.99
1845.04
1956.8
1143.21
1655.15
2053.77
2325.36
2462.92
1192.3
1726.31
2141.69
2424.12
2566.84
1528.74
2192.95
2700.68
3044.49
3219.5
2034.73
2882.29
3515.88
3944.74
4167.24
2694.02
3740.47
4500.29
5023.63
5311.68
3549.4
4774.65
5634.1
6263.2
6662.6
4475.73
5773
6655.86
7383.28
7959.57
5116.3
6420.68
7296.3
8090.58
8811.26
1542.13
2208.83
2717.5
3062.41
3238.56
2002.65
2838.72
3465.03
3889.72
4110.03
2556.13
3572.28
4317.3
4827.54
5101.98
3172.7
4354.81
5202.1
5797.78
6139.93
3749.33
5049.5
5963.92
6633.1
7051.65
4116.83
5479.56
6429.46
7146.68
7621.55
142.689
161.466
198.638
257.397
342.96
461.69
154.888
174.441
212.875
272.874
358.113
472.815
133.606
129.209
153.15
150.35
192.265
193.193
254.904
263.382
345.411
363.605
466.293
488.647
620.096
823.974
1090.24
1445.28
1857.6
2153.71
620.775
804.219
1024.34
1271.89
1507.98
1656.72
381.693
559.233
701.856
801.44
852.579
431.784
632.302
793.169
905.371
962.949
530.821
776.478
972.993
1109.74
1179.82
687.085
1003.33
1255.22
1429.93
1519.31
913.931
1331.12
1661.39
1889.54
2006.07
1227
1779.9
2213.84
2512.32
2664.73
414.19
606.522
760.805
868.401
923.611
466.289
682.387
855.461
976.017
1037.84
568.535
830.895
1040.31
1185.82
1260.33
727.783
1061.4
1326.36
1509.83
1603.64
953.192
1385.9
1727.23
1962.64
2082.9
1254.7
1816.19
2255.11
2556.68
2710.86
357.481
523.955
657.828
751.387
799.459
345.756
506.864
636.488
727.119
773.7
409.652
600.14
753.126
859.926
914.763
402.207
589.335
739.694
844.7
898.628
513.953
752.177
942.98
1075.88
1144.01
516.489
756.011
947.925
1081.63
1150.19
680.714
994.657
1245.07
1418.91
1507.87
703.413
1027.94
1286.85
1466.59
1558.56
921.019
1342.64
1677
1908.16
2026.21
969.612
1413.61
1765.71
2009.06
2133.28
1240.55
1802.3
2244.36
2548.58
2703.74
1300.49
1890.25
2354.58
2673.96
2836.68
1640.42
2363.91
2924.78
3309.4
3506.79
2162.51
3082.07
3782.79
4264.86
4517.26
2822
3947.98
4785.97
5374.05
5699.92
3652.33
4952.58
5890.45
6588.45
7031.23
4536.87
5888.6
6830.47
7613.07
8228.1
5135.67
6460.08
7357.69
8173.37
8910.07
1639.84
2358.19
2913.05
3293.4
3488.98
2109.94
3005.32
3686.31
4154
4398.35
2660.72
3738.37
4542.24
5100.25
5402.12
3258.97
4496.09
5398.15
6039.92
6409.59
3804.79
5143.43
6097.34
6800.92
7240.99
4135.71
5512.3
6476.65
7206.72
7689.86
4850.6
3172.23
807.03
607.795
702.126
603.121
748.447
4428.95
4230.67
2709.38
3444.16
1615.84
2178.73
1341.06
1498.85
1248.78
4130.91
2268.1
1459.45
1289.43
1640.63
1417.31
1095.56
1043.94
993.917
866.25
1183.92
1063.59
4431.33
2672.16
3052.12
1940.38
1598.84
2256.3
1125.35
879.034
1245.5
9804.83
9775.47
9842.27
10890.2
17534.4
6977.36
7905.47
8537.73
9471.8
10928.4
2124.04
3039.03
3740.32
4221.95
4472.27
1611.21
2328.52
2887.14
3270.12
3465.88
1861.38
2689.7
3333.38
3772.96
3996.67
1601.33
2319.25
2880.09
3264.29
3459.95
1979.11
2849.63
3522.3
3981.97
4217.16
9687.91
10639.2
11097.9
12198
18672.3
9458.56
10607.2
11255.9
12258
14148.2
6410.3
7989.63
9051.41
10009.8
10936.4
8174.09
9742.32
10520.7
11343.6
12087.9
4110.28
5614.38
6686.6
7433.72
7857.79
5357.66
7001
8114.11
8940.04
9478.57
3471.22
4850.69
5861.49
6548.54
6912.87
3852.89
5332.76
6399.04
7124.03
7513.69
3250.84
4577.06
5558.28
6220.92
6565.36
8989.45
9878.07
10358.8
11471.9
17855.8
5471.88
6998.12
8058.19
8981.8
9831.72
3739.74
5159.55
6190.73
6914.89
7328.87
3325.62
4629.68
5591.87
6267.21
6647.5
4131.19
5578.06
6618.19
7397.15
7913.49
3615.55
4962.7
5946.13
6661.71
7095.51
2839.6
3980.31
4832.58
5431.31
5763.31
2726.9
3860.52
4714.49
5302.74
5614.83
2613.96
3733.67
4584.06
5160.66
5456.2
2285.59
3280.15
4042.96
4562.15
4827.75
3084.38
4349.3
5291.91
5935.16
6274.57
2781.26
3942.77
4817.55
5416.51
5731.35
9252.1
9618.71
9841.94
10918.2
17425.6
6096.48
7257.36
8055.53
8980.82
10162.9
7141.55
8476.17
9223.15
10308.1
12501.3
4730.36
6130.14
7114.26
7954.66
8652.01
4014.67
5400.42
6397.78
7164.06
7682.18
5415.64
6887.77
7918
8860.47
9769.6
2919.88
4097.9
4977.84
5592.94
5931.18
2313.2
3308.24
4068.73
4588.84
4857.92
3214.02
4478.04
5413.65
6073.4
6445.94
8365.92
7928.5
7154.34
6034.55
4441.56
1752.43
19271.2
19604.4
22151.3
22887.5
18828
19914.1
21129.2
20409.3
15883
19822.6
16529
20363.1
18950.2
17055.6
26698.5
18487.2
18675.8
20861.1
21346
17772
18843
20159.1
19655.8
15794.2
23935.5
16349.1
23756.6
19115.4
20783.8
28633.9
17588.7
17645.2
19204.4
19435.1
16959.8
18447.8
18847.7
18857.8
18082
21089.8
18844.6
21068.8
20732.6
22879.7
25689.1
16720.1
16796.6
17667.4
17733.5
16442.3
18167.6
17487.4
17780.2
16869.6
18359.3
17601.1
17860.9
18863.5
20457.5
22078.2
15819.7
15930.8
16596.6
16575.7
16062.9
17935.7
16567
17046
15903.5
15054.8
16659.9
14421.7
17253.7
17103.1
18113.7
15404.4
15560.5
15876.1
15821.2
15617.4
17150.3
15966.4
16365.2
15126.2
12865.4
15680
12578.2
15982.6
14925.1
16315.3
21904.4
21029
23045.5
24247.4
20218.5
20144.4
21413.3
20389.8
19256.8
14259.5
19191.3
14324
17024.4
15396.7
18541.3
20603.6
19968.1
21237.4
22030.4
19464.4
19561.3
20147
19287.5
17759.3
13735.6
17725.1
13822.7
15523.2
13821
17074.7
18873.8
18493.9
19050.2
19440.2
18194.2
18306.1
18496.9
17969.5
16742.7
13343.7
16522.5
13082
14794.7
12565
16613
17184.8
16964.2
17316.9
17496.6
16761.3
16811.6
17113
16691.5
15613.5
13537.9
15493.5
13229.1
14028.9
12487.5
16671.2
16242.4
16093.3
16310.5
16399.7
15771.5
15818
16252.1
15976.7
15219.8
14356.7
15139.5
14203.4
13959
12851.2
16997
15565.4
15428.8
15706.7
15764.9
15173.8
15411.2
15628.9
15502.4
15008.3
14866.7
14988.5
14786
13944
13270.5
17536.6
11840
6719.52
19473.1
12797.5
21299.5
15756.1
33367.2
41443.8
43919.6
53814.4
28449.6
24707
18039.4
14342.7
8792
5854.03
20109.9
20466.7
17363.3
20344
27175.8
24141.8
31453.1
25337
8291.68
5942.18
4606.91
3441.6
10072
8199.68
6149.41
5002.78
18530.1
19154.9
18853.3
15779.7
14575.8
11482.1
11511.4
13097.5
18533.6
18471.8
39026.9
40373.4
27546.5
28412.1
15846.6
13362.2
17187
12240.5
7993.98
8229.58
6492.77
9267.47
3371.06
4117.8
9052.57
12600.8
5420.13
6373.67
9984.86
17045
6944.21
11472.1
2638.06
6802.47
2195.43
5066.77
17994.2
22263.2
18655.4
22223.2
21981.8
22161
22474.6
21932.2
15933
21633.6
16299.4
21332.9
18414.6
22101.4
18429.7
22067.1
22712.6
21685
22662.3
21495.9
14747.1
21742.3
14250.9
21830.3
18159.5
21471.7
22926.2
32213
19241.7
24877.6
22730.5
35093.6
17213.6
18861.2
23008.1
30917.2
17032.4
17631.7
23253.9
30661.1
5503.41
7277.84
14116.7
24960.4
6906.18
7892.45
18358.9
28512.3
8542.29
8643.19
23157.2
31614.3
24828.3
26437.4
21221.3
20699.9
30432.7
26556.4
25249.9
21629.4
18900
34914.1
24231.9
24072
21629.1
21775.8
39708.9
2096.42
2543.18
4521.72
10582.2
3030.32
3451.31
6341.21
11897.7
4484.21
3803.8
8558.2
13521.8
26161.5
25623.1
23731.5
23127.3
20568
18629.4
15674.5
13769.1
11200
15746.2
23886
22886.2
24226.9
23668.4
21228.5
19766.9
17738.3
15833.4
11909.1
15822.7
24089.8
27071.5
24049.8
27782.5
23155.9
23893.9
22637.1
24116.7
22058.3
22416.3
21869.5
21747.3
23873.4
27916.8
23777.6
27906.2
21993.6
24441.4
21825.3
24400.2
22144.2
22365.6
22146.9
22358.7
18676.2
17747.2
12079.2
13479.7
18558.7
17294.5
11907.1
13575.1
18927.8
17684.8
12336.9
13514.2
19004.4
17503.7
12718.5
13514.2
1695.23
1122.9
766.467
978.942
654.582
606.569
2405.81
1398.43
1041.97
1933.39
1529.75
1300.24
2749.62
2223.62
2203.47
3376.85
2718.71
2419.6
24172.7
21507
19689.1
22368.3
20453.6
18980.3
16125.1
14757.1
14000.5
11069.7
9425.77
8719.13
5159.21
3725.19
3120.23
21935
19990.2
18411.3
22674.3
20331.9
18572.7
16914.2
14267
12780.2
11111.3
8707.09
7720.95
5478.06
3698.99
2931.09
27462.2
26789.5
29979.2
26823.7
30873.1
26829.3
37364.1
28324.3
21034.6
21402.5
20763.8
19350.6
23777.3
22317.7
23386
19935.3
23188.2
22958.9
21340.9
22755.6
28289.3
25489.9
28302.7
28767.2
30813.4
31902.2
23544.5
24459.4
21072
20469.5
25577.7
26268.1
16561.1
8972.12
15513.2
9927.32
16791
9044.58
15468.9
9858.59
16574
9090.51
15439.1
10271.5
15040.1
10746
15235.5
10659.1
21349.1
18181.5
21290.4
18193.5
23621.6
21273
23927.2
21105.5
20814.5
15153.8
21646.9
14923.6
21805.6
18129.9
22102.2
17932.9
24590
20959.3
24629.7
20702.3
20654.4
15217.3
20614.8
15128.5
13639
9132.72
11991.3
7771.7
12679
8185.35
11504.4
7267.02
13995.6
9701.82
12196.9
8008.49
14024.8
10046.5
12170.2
8067.16
2593.88
1351.47
4792.82
2612.03
2781.16
1675.08
5121.02
3138.92
3416.99
2519.71
5665.66
4086.25
13129.1
20374.6
9474.27
9096.47
6541.65
19905.4
13829
8113.53
8158.9
5398.68
20765.7
16308.9
12948.6
10087.3
6381.58
719.916
531.781
1524.38
1141.62
1035.97
711.2
2145.36
1711.49
1784.81
1365.63
3081.8
2511.45
20125.7
19324.6
13593.6
12905.4
8821.12
8785.37
7429.94
6733.74
4621.04
3784.05
18927.2
17084
14624
12718.6
11360.3
9972.74
8649.6
7705.25
5629.96
5477.92
15035.4
12047.7
15153.3
11791.3
18141.9
14961.9
18136
14798.9
12646.5
10143
12253.1
10153.8
15174.7
11628.3
15087
11615.4
18085.5
15105.8
17920.9
15070.4
12885.2
9999.98
12865.7
10133
9851.01
8232.18
6618.86
6848.11
9482.12
8036.8
6317.37
6480.9
10273.1
8400.04
6788.71
7242.75
10514
8399.12
7051.35
7346.94
1625.78
1424.4
1177.12
7054.63
3762.71
3067.24
1611.94
1581.5
1401.36
7730.88
4513.14
3819.25
2228.88
2482.34
2535.55
8607.39
5683.51
5048.36
17963.2
16559.5
15586.5
12210.6
11667.6
11336.9
8851.45
8616.24
8544.45
7526.9
7187.84
6965.62
9864.01
7053.39
6347.8
15364
13931.6
12989.1
11356.7
10389.2
9845.85
9371.14
8553.63
8101.92
8925.72
7814.6
7180.32
12031.6
7970.63
7117.29
4972.05
3100.25
2127.24
1661.55
5584.77
3360.81
2241.56
1702.83
4997.83
3098.56
2132.55
1673.49
5707.36
3432.22
2290.34
1729.33
4988.31
3069.28
2145.65
1677.45
5824.14
3477.24
2350.3
1745.51
6265.25
3679.1
2390.94
1794.57
6450.6
3820.02
2460.42
1854.8
5316.12
3266.65
2235.01
1704.8
4374.34
2877.81
2055.55
1635.56
4675.16
2964.69
2091.33
1597.95
4034.91
2715.63
1975.27
1573.29
5747.38
3495.3
2334.47
1773.22
4578.65
2996.62
2106.37
1683.87
5991.27
3651.48
2407.33
1826.82
4669.77
3082.21
2151.03
1716.19
3768.47
2669.19
1944.17
1579.16
2476.98
2154.6
1720.59
1484.76
3782.33
2657.64
1942.18
1576.7
2588.23
2184.99
1730.91
1493.7
3876.56
2658.79
1956.96
1588.54
2915.84
2281.78
1770.04
1529.56
3837.67
2598.66
1926.38
1621.48
3199.67
2350.65
1821.81
1525.77
3582.4
2527.22
1884.93
1550.49
1194.49
1739.87
1377.92
418.342
-220.613
1509.94
1240.29
437.475
1427.85
1817.78
1409.01
440.996
61.6896
1597.18
1267.8
446.97
1866.81
1955.19
1455.59
439.596
545.973
1742.38
1306.79
451.954
2408.23
2120.16
1527.3
476.984
1069.14
1905.19
1364.34
471.302
2774.29
2273.11
1616.77
553.577
1229.01
2031.14
1418.22
488.306
2965.7
2444.43
1656.13
528.258
968.74
2171.07
1519.6
518.576
2890.11
2368.65
1626.54
528.155
921.322
2106.28
1468.04
500.654
2993.63
2498.19
1676.77
493.791
922.735
2226.34
1552.79
521.675
3056.59
2554.05
1719.91
503.844
1024.98
2285.15
1593.27
534.154
1414.43
1028.55
679.549
383.092
123.412
1399.66
1026.47
680.038
383.599
123.585
1433.36
1037.84
683.893
385.049
123.977
1423.8
1038.35
685.844
386.273
124.362
1468.57
1050.37
689.268
387.418
124.657
1453.03
1051.7
692.333
389.275
125.238
1473.76
1066.78
700.844
393.442
126.476
1508.43
1088.33
712.911
399.369
128.242
1504.17
1065.38
696.949
391.056
125.727
1604.41
1083.54
702.039
392.907
126.227
1511.41
1061.46
693.262
389.058
125.118
1602.12
1076.94
697.956
390.875
125.62
1517.7
1078.64
704.574
394.812
126.845
1633.92
1096.38
708.959
396.284
127.232
1552.83
1099.59
715.917
400.328
128.485
1671.16
1115.07
718.769
401.036
128.645
1452.68
1033.76
679.529
382.674
123.256
1526.15
1039.68
679.705
382.435
123.163
1470.7
1041.14
682.787
384.11
123.667
1540.74
1045.27
682.204
383.542
123.48
1505.34
1052.82
687.679
386.263
124.285
1570.41
1054.9
686.445
385.443
124.027
1560.72
1066.13
692.608
388.366
124.884
1606.04
1065.25
691.262
387.645
124.665
1613.02
1072.97
695.382
389.598
125.238
10515.5
16256.1
11033.3
16566.2
11697.4
16862.5
12103.5
16993.8
11522.2
16223.4
10558.2
11915.2
10609.2
12561.7
10596.2
11776.1
10770.8
11902.5
9382.45
1600.05
341.946
76.8063
13.619
10441.8
2973.41
722.596
164.166
29.0941
9455.83
1594.04
338.784
75.8345
13.4115
10510.5
2957.97
716.583
162.077
28.4843
9491.9
1578.21
332.775
74.2008
13.0986
10523.8
2932.31
706.941
159.372
27.9743
9340.77
1520.38
317.875
70.7314
12.4818
10334.5
2854.48
686.003
154.453
27.0903
8792.29
1395.02
291.151
65.0081
11.5011
9725.19