/*--------------------------------*- C++ -*----------------------------------*\
| =========                 |                                                 |
| \\      /  F ield         | OpenFOAM: The Open Source CFD Toolbox           |
|  \\    /   O peration     | Version:  2306                                  |
|   \\  /    A nd           | Website:  www.openfoam.com                      |
|    \\/     M anipulation  |                                                 |
\*---------------------------------------------------------------------------*/
FoamFile
{
    version     2.0;
    format      ascii;
    arch        "LSB;label=32;scalar=64";
    class       volScalarField;
    location    "1.7";
    object      gradTz;
}
// * * * * * * * * * * * * * * * * * * * * * * * * * * * * * * * * * * * * * //

dimensions      [0 -1 0 1 0 0 0];

internalField   nonuniform List<scalar> 
5712
(
7524.43
24704.2
5980.38
25326.4
4481.64
26163.5
7054.19
40236.4
8664.09
55296.5
8611.26
40331.8
8318.22
33506.8
8646.69
29957.1
5232.49
3257.26
13993.4
8329.17
5115.24
2764.14
15269.9
7585.47
5742.95
4190.22
18400.1
13014.9
4345.06
3155.39
18094.1
13209.8
10198.1
4326.77
8828.55
3948.14
4083.17
9543.81
35028
9475.76
12558.4
4220.44
45022.3
12196.5
11716.6
4012.47
25078.5
7771.04
12881.9
4479.17
21860.3
6940.28
6406.4
3176.75
9233.34
3613.08
6937.78
3746.21
8994.84
3469.05
8746.87
4996.07
7753.93
3387.51
11370
4100.52
3904.06
1367.54
12920.9
9016.26
7951.44
5842.62
14255.8
11749
7772.16
6727.28
7602.67
5190.27
10815.9
7317.21
5211.27
3844.25
2612.51
2149.66
4984.35
4305.83
2537.05
2455.12
5041.98
3335.33
2555.12
1650.05
6841.32
3733.48
5178.65
6201.35
9439.52
6725.07
7560.91
10661.8
4496.16
2139.71
3038.09
3535.6
2212.11
924.926
1300.56
1306.4
8570.35
15339.3
5790.1
17095.5
10006.3
14998.1
7102.5
17857.6
11315.9
13545.9
9106
17362.4
12976.2
15215.8
9993.94
9687
10539.8
15234.8
14349.9
14338.2
14830.7
21274.4
12393.2
9754.38
8595.56
9657.05
14976
17809.7
15950.2
20621.2
19899
16311
15155
20338.9
19461.8
14106.6
13800.5
19040.1
18725.2
11169.7
8823.6
10653.7
9370.67
11751
10645.2
12741.2
12345.8
17450.2
17990.5
10418.3
9119.16
10144.9
9930.31
10596
11424.8
11980.8
13639.4
15584.1
18234.6
8666.92
6818.95
5916.2
7483.35
11527.6
13949.8
7960.39
12529.4
5083.34
6628.04
7616.01
6304.2
1466.48
4950.32
728.938
1762.85
4052.22
8387.61
1468.07
2885.49
758.647
4245.27
393.337
1478.46
5030.38
5100.72
5722.76
3608.21
7993.87
6441.11
9398.35
6560.67
1236.76
2794.48
2847.94
1654.73
1563.66
2015.33
2199.74
1666.63
12760.2
7778.69
2461.59
14416
8308.53
2726.07
12246.8
7698.86
2610.41
14175.7
8316.16
2724.72
11265
7076.86
2332.95
13810.6
8346.06
2792.7
5872.5
3256.18
906.645
7656.17
5064.14
1754.09
9224.16
6360.56
2193.74
10724.1
6971.53
2319.96
13659.8
8558.64
2990.33
6910.83
3964.92
1284.67
7297.03
5270.55
1994.48
8741.96
6455.16
2379.79
10888.4
7655.7
2747.62
13830.2
8682.58
3091.05
297.873
2030.05
2870.45
4141.97
2239.88
2559.98
5612.6
5312.74
603.55
1021.46
644.252
1063.57
484.039
1406.02
865.88
1843.84
3213.43
1571.34
4071.31
2357.71
2153.43
3757.21
3417.08
862.257
6208.43
1458.67
-2031.88
606.946
1730.94
1245.57
1166.4
1027.87
9701.42
4352.52
2644.07
1611.3
9854.06
4519.08
3337.47
2043.53
9727.01
4855.38
4824.32
3327.11
3449.01
2445.09
1627.17
1553.84
12738.6
11299.2
5978.2
6192.04
13848.5
12977.8
6819.32
6863.15
5250.34
5391.43
10841.1
9022.33
3536.24
3706.75
1929.91
2222.1
4174.84
4148.53
2247.74
2423.77
3037.88
3289.51
1655.35
2084.32
4626.18
3169
4595.12
3182.74
7235.66
4171.89
6862.99
4408.89
2754.38
2285.59
2895.72
2047.3
1493.62
1407.95
1827.99
1193.01
11405.3
7743.55
5634.23
5598.82
11363.6
7968.23
5659.7
5573.91
11834.3
8366.99
5740.58
5436.21
13975
15244.7
12621.5
8349.58
4627.36
14450.6
13205.1
12120
9888.55
6212.3
13534.6
12101.3
9571.75
7275.72
4429.85
6394.48
5552.79
5873.1
6568.09
6661.18
5515.06
5963.26
6520.2
7059.69
5596.88
6074.64
6495.81
10900.7
7717.75
10015.6
6951.07
7766.74
6225.25
7147.78
6037.1
5671.68
6489.33
9065.3
7880.2
7905.36
6880.65
6647.69
5987.1
5754.58
5647.62
4448.28
6166.01
7064.61
4782.69
4687.65
2823.9
9342.81
7207.49
6478.34
5236.67
3772.77
2261.49
5480.21
4025.05
4710.38
2232.76
1696.32
972.624
5039.53
3658.56
1730.72
1437.57
4031.27
1788.24
1563.52
815.305
3067.25
2781.13
2618.44
3795.88
4275.11
3980.25
3329.92
4839.61
3130.88
1990.87
1914.51
2591.82
921.449
434.994
160.386
457.002
3806.02
1590.51
470.366
4325.31
1129.06
301.569
3894.84
1735.15
533.581
4343.68
1182.75
331.756
3717.05
1757.4
457.847
4313.59
1217.64
287.963
4809.33
2478.88
577.05
4223.13
2058.08
497.712
4023.5
1935.59
528.441
3884.31
1821.23
394.011
4338.84
1210.09
185.744
6026.95
3070.06
841.836
5295.55
2640.65
730.497
4704.22
2325.47
678.535
4345.04
1869.08
465.323
4715.47
1142.7
281.671
1668.32
591.708
125.836
-148.531
696.083
259.551
72.8429
-27.1009
1765.63
646.845
173.249
-85.9293
883.431
358.053
172.482
78.96
1891.36
716.351
257.087
13.9944
1502.89
679.699
250.321
51.6334
1133.38
614.589
191.02
-25.225
1040.08
655.896
356.509
198.885
1555.05
673.315
195.014
-147.161
1319.99
564.192
240.966
-140.12
1841.2
702.682
229.211
-92.3313
1655.58
634.493
252.77
-227.675
1237.48
616.549
230.568
-50.9452
1006.19
491.13
253.222
1.61638
900.162
531.777
298.658
173.42
684.77
406.843
260.335
145.183
2108.03
712.506
131.134
-299.136
2060.08
653.072
190.41
-403.757
2105.71
722.06
147.87
-285.519
1997.52
635.327
196.54
-392.311
2065.05
723.277
217.951
-194.641
1868.72
601.253
236.08
-315.373
1811.94
667.328
291.218
-3.70044
2050.42
672.194
325.983
-366.161
1609.36
593.542
287.301
-82.0738
1609.97
457.946
167.495
-266.882
635.732
166.013
44.8338
-52.501
1671.88
490.169
183.638
-253.766
666.137
180.034
56.1771
-40.6935
1715.65
526.789
221.999
-219.933
684.878
196.342
70.5357
-26.6955
1553.04
496.771
252.439
-169.474
669.946
203.241
95.5266
-1.69603
1426.55
493.259
267.634
-92.7598
605.337
214.429
127.841
31.518
985.74
390.01
185.066
-30.353
568.704
273.72
158.639
80.0709
1143.21
401.273
199.275
-70.0154
577.118
241.808
144.301
56.634
789.371
370.831
194.817
27.6526
503.972
282.072
168.294
102.845
551.036
329.23
213.477
125.362
413.153
274.349
181.898
131.223
-13.354
5.02099
4.9646
3.26149
2.34337
-1.99029
3.42251
2.76751
1.76402
1.25864
6.86922
15.0235
10.2379
6.27854
4.43715
19.9671
14.847
8.92492
5.31367
3.72709
28.1662
26.805
16.658
9.99859
7.0279
79.3754
50.0007
28.7099
16.8899
11.8141
93.8781
58.4638
33.5879
19.8008
13.8686
137.17
77.5485
43.2854
25.3229
17.711
48.6896
39.1916
23.5946
14.072
9.88826
52.5537
36.9413
21.669
12.8569
9.02383
33.3342
31.1083
18.9687
11.3231
7.94956
63.4217
38.6181
21.712
12.7113
8.87678
63.3614
46.5823
27.7239
16.5109
11.6013
70.8748
44.1942
25.3658
14.9708
10.4988
108.858
62.3761
34.9133
20.4449
14.3055
91.0539
51.4913
28.7752
16.8548
11.7984
-24.8634
2.37279
3.64669
2.49101
1.80342
-13.6801
0.643361
1.37413
0.94931
0.687818
-11.619
8.6483
6.88547
4.32742
3.07326
-8.89118
2.90957
2.53355
1.60342
1.13885
4.78278
15.7048
10.391
6.30046
4.43475
9.37463
10.464
6.30078
3.72006
2.59872
41.239
30.7274
17.8107
10.4458
7.28167
28.0382
19.6737
11.1386
6.48971
4.51339
78.1369
41.2615
22.3607
12.9001
8.96227
1851.48
4220.09
1889.76
4188.94
2087.69
4168.57
2480.07
4331.78
2571.46
4447.01
1066.78
1593.19
1714.49
2668.3
583.425
795.495
215.208
272.401
9549.38
2285.54
525.073
117.598
29.3113
2609.31
703.608
187.45
42.7315
9.32403
9419.16
2236.72
513.475
114.06
28.6431
2657.5
784.224
193.644
45.1292
11.2433
8961.59
2114.23
483.717
107.344
26.9952
2579.52
757.724
186.569
43.2602
10.8168
8167.33
1910.75
436.026
96.7127
24.3369
2501.07
719.207
174.82
40.1826
9.99553
6800.02
1583.41
361.656
80.3523
20.2519
2353.31
658.675
158.416
36.1936
8.97914
3185.31
775.885
180.36
40.3899
10.2032
1147.1
326.148
77.8754
17.4954
4.33228
4767.84
1144.96
264.036
58.8235
14.8313
1687.25
473.492
113.945
26.0199
6.49895
1864.42
457.722
106.913
24.0642
6.0924
644.493
190.439
45.2559
10.169
2.5425
644.526
157.366
36.8632
8.33019
2.11148
258.77
69.8721
15.4892
4.31865
0.856009
-13.1844
421.203
4669.06
-929.138
767.335
822.306
2398.86
3074.17
1943.52
3642.9
3077.83
4745.53
3723.78
4619.78
1930.34
2597.74
2050.15
2432.39
1065.4
1107.78
2318.27
1665.21
591.173
-337.624
-626.439
-747.408
-148.952
13367.5
3509.21
4517.18
3038.65
16.2117
146.224
3130.66
-1158.66
-572.772
-853.563
-456.105
7322.76
3940.21
1528.18
1195.23
3738.39
2150.74
729.328
1456.74
-1273.55
-670.243
825.347
685.604
8828.18
4321.86
5479.25
2922.89
4103.01
4674.8
1641.68
-700.349
1071.7
1615.92
1295.23
1091.15
953.106
700.22
1305.23
1037.83
799.563
553.722
234.084
517.071
426.403
320.272
201.373
69.4967
-301.496
-251.464
-187.515
-115.123
-38.7489
-559.29
-466.627
-348.402
-214.258
-72.1649
-668.272
-558.582
-417.913
-257.474
-86.8159
-129.042
-101.923
-69.874
-38.7419
-11.9829
9512.25
8013.05
6609.62
5794.33
5119.13
2995.91
2517.73
2234.35
1778.42
902.16
3422.1
2670.91
2163.2
1620.54
808.579
2292.7
1778.48
1472.15
1086.83
442.512
110.935
105.731
174.663
163.784
76.384
202.934
240.073
239.771
186.445
74.5535
2619.13
2140.32
1641.43
1110.3
443.966
-681.841
-317.463
-114.506
-12.0407
9.44485
-450.667
-314.764
-184.899
-84.2483
-20.5354
-587.776
-352.867
-172.914
-61.7282
-10.8582
-414.98
-345.917
-253.209
-150.95
-49.2183
5326.91
4683.2
3924.1
3475.59
3080.83
3007.94
2336.02
1875.59
1370.14
641.373
1374.75
1196.67
971.614
670.114
257.003
1039.67
871.154
680.881
453.833
168.53
3096.08
2468.3
1848.11
1203.78
454.565
1886.57
1578.06
1217.38
793.433
283.713
631.503
522.41
399.713
259.227
92.9953
1276.31
1057.35
799.998
507.642
176.968
-1102.72
-887.898
-639.859
-382.246
-126.397
-589.884
-481.283
-348.655
-207.517
-68.1332
727.631
613.532
478.651
315.612
114.388
607.367
514.22
401.716
263.957
94.7089
5643.58
4038.77
3368.31
2970.72
2476.68
3273.36
2512.65
1903.22
1323.58
580.249
3990.43
3207.23
2525.01
1894.77
893.425
2318.08
1862.95
1422.95
974.683
412.827
3468.25
2807.56
2114.58
1367.35
499.323
3523.02
2584.4
2030.11
1463.52
599.022
1425.37
1172.9
885.652
563.978
198.125
-621.905
-513.568
-377.523
-228.045
-75.7112
934.398
782.637
610.208
404.413
147.603
-29060.9
-47444.1
-24114.3
-38385.5
-25752.6
-53725.2
-30806.9
-68245.4
-18436.9
-12642
-20671.8
-12920.1
-16962.4
-10918.3
-20940
-11069.3
-24123.7
-18242.5
-35029.3
-25312.1
-20732.4
-16586.3
-29252.9
-22041
-16572.5
-16991
-13627
-13151.1
-16103.9
-15103.7
-40102.1
-11066.1
-15331.2
-5742.41
-48930.1
-13588.2
-13699.1
-5131.97
-29906.4
-9415.57
-15701.1
-6024.13
-26643.6
-8270.55
-12537.5
-5054.77
-15909.8
-5773.69
-11910.6
-5249.16
-13822.2
-5013.3
-12335.2
-6007.39
-11042.3
-4395
-14096.7
-4987.05
-4939.36
-1736.93
-10569.7
-7097.07
-9121.77
-5609.43
-9276.15
-7494.34
-7979.9
-5711.44
-9303.46
-5356.76
-10916.1
-6896.59
-6254.27
-3765.73
-3365.92
-2087.96
-5394.92
-3737.28
-2819.1
-2020.95
-6364.14
-3500.35
-3504.63
-1778.8
-8222.63
-4185
-5372.82
-6207.83
-10459.4
-7043.58
-7585.01
-10500.8
-5564.1
-2500.28
-3214.27
-3576.37
-2989.42
-1204.63
-1442.73
-1351.12
-12390.5
-15140.7
-7004.33
-17167.8
-12883
-14446.9
-8047.12
-17548.5
-13016.4
-13141.5
-9588.79
-16686.1
-8853.27
-7118.44
-9755.87
-10837.4
-10821.3
-9704.69
-11292.3
-13175.4
-14238.4
-20216.4
-6721.64
-7007.13
-7662.87
-9266.56
-14391.2
-14415.9
-10069.5
-18319.6
-14119.3
-13364.7
-9908.84
-18050.3
-14066.7
-11827
-9270.54
-16849.3
-13934.4
-7942.75
-6322.23
-8305.29
-6662.71
-9318.14
-7573.53
-10246.9
-8730.81
-15344.6
-14015.2
-7441.4
-6447.46
-7592.93
-6675.74
-8418.83
-7961.05
-10136.3
-10134.3
-14118.4
-14620
-6878.48
-5493.84
-5061.1
-6564.27
-8487.14
-11602.5
-6421.21
-10727.1
-4685.49
-6118.01
-6693.81
-5480.9
-974.051
-4332.56
-313.921
-1298.08
-3125.56
-7359.96
-738.585
-2090.5
-537.857
-3902.61
-197.632
-1215.26
-4830.67
-4792.01
-5560.64
-3377.01
-7480.04
-5834.88
-9002.56
-5957.63
-1131
-2599.9
-2746.76
-1515.78
-1469.98
-1863.6
-2115.32
-1555
-6120.58
-2105.29
-8290.08
-2826.49
-6257.68
-2198.93
-8487.54
-3044.46
-6212.92
-2166.22
-8981.45
-3457.16
-3736.87
-1061.85
-4707.11
-1799.07
-5360.99
-2075.46
-6481.15
-2448.46
-9490.66
-3772.25
-4726.18
-1451.22
-4398.64
-2149.55
-5345.09
-2518.35
-7182.97
-3122.2
-9871.44
-3729.05
-6381.27
-5964.95
-4882.48
-4765.47
-10731.6
-8205.08
-8766.12
-7254.42
-4250.53
-3612.93
-1750.37
-1235.72
-4023.22
-3817.65
-1634.03
-1675.48
-3129.58
-4746.03
-3679.21
-5122.85
-3829.82
-2612.98
-3425.06
-650.01
-7107.92
-1943.49
2495.23
261.888
-1059.61
-428.977
94.6161
504.167
-2386.93
-1608.37
-899.627
-510.12
-2562.59
-1712.84
-1380.8
-614.802
-2885.99
-2070.93
-1891.15
-896.614
-1323.39
-190.189
489.167
935.219
-5236.06
-5608.2
-4082.95
-3799.57
-7133.76
-7135.63
-5945.77
-4990.42
-2645.93
-2912.09
-3893.32
-4442.24
-2510.6
-2169.52
-1096.84
-996.034
-3848
-3025.05
-1972.6
-1557.3
-1423.76
-1555.26
-311.091
-641.203
-1707.25
-1141.84
-2409.45
-1659.89
-2606.32
-2001.32
-3682.27
-2698.41
-663.698
-383.917
-1206.8
-658.274
322.326
460.886
-347.771
130.983
-3409.79
-4198.15
-2779.02
-4030.12
-3386.36
-4223.79
-2842.95
-4022.09
-3608.65
-3957.11
-3010.46
-3827.04
-2989.46
-4993.93
-2480.32
-2069.26
-2103.62
-7432.95
-5196.29
-4614.78
-4589.29
-4437.81
-5976.93
-4932.99
-4059.6
-3640.9
-2694.34
-4885.07
-4811.04
-6136.77
-9454.43
-4670.75
-4359.85
-5898.84
-9025.59
-4366.16
-4111.42
-5455.34
-8345.17
-7174.21
-5487.31
-6335.67
-4774.88
-5368.36
-4205.79
-5262.57
-4733.59
-5083.66
-7708.23
-5808.6
-5449.92
-4803.61
-4758.21
-4158.13
-4315.87
-4085.68
-4769.37
-3500.01
-6677.01
-3939.11
-2795.28
-2733.39
-1046.37
-5798.3
-5053.15
-4509.62
-3359.8
-2037.94
-717.849
-3069.14
-2390.36
-3277.96
-1037.43
-509.732
58.0441
-3742.92
-2474.36
-718.04
-439.469
-2643.43
-710.022
-332.899
144.288
-1739.78
-1718.58
-1790.44
-3344.29
-2677.25
-2932.14
-2538.6
-4641.86
-1934.29
-1152.96
-1008.62
-2055.73
229.483
376.986
793.529
173.649
-3423.36
-998.462
-6311.34
-599.888
-3222.33
-1085.89
-6148.48
-624.594
-2519.41
-669.721
-5589.3
-465.825
-3030.53
-697.843
-2700.34
-638.803
-2798.77
-849.56
-2776.75
-517.725
-5256.26
-635.12
-4150.32
-838.78
-3680.72
-601.696
-3568.06
-692.203
-3770.05
-543.558
-5524.86
-658.796
-699.004
-159.176
117.897
321.934
-238.821
-44.7295
43.3902
98.7304
-693.634
-133.055
125.91
296.65
-173.236
13.1123
33.3877
44.4094
-714.927
-103.24
114.138
246.707
-48.9963
173.221
287.17
308.361
447.865
379.771
447.139
440.138
863.457
587.647
435.857
301.23
-332.392
71.8158
298.896
500.471
-263.666
122.759
222.489
490.69
-766.535
-90.2784
169.577
395.647
-584.075
21.7244
188.189
602.659
84.895
237.155
323.097
419.505
31.3599
213.327
229.282
348.129
496.781
396.628
316.033
237.009
347.37
308.924
238.179
215.873
-1092.44
-259.034
137.746
528.814
-1342.27
-296.265
8.87242
652.124
-1050.28
-228.429
151.859
539.216
-1292.47
-275.259
10.0591
645.909
-980.531
-181.499
104.619
455.308
-1177.69
-235.35
-22.1287
580.059
-656.117
-55.9186
86.4719
308.952
-1221.96
-206.965
-37.0009
716.742
-608.412
-5.42165
110.799
454.967
-1233.08
-223.309
-35.9822
451.238
-533.993
-84.8171
11.5222
112.041
-1154.41
-194.338
-21.1052
453.448
-508.915
-75.3148
13.2314
109.313
-994.468
-137.468
-18.3009
438.323
-435.117
-51.4124
23.3706
113.927
-819.924
-89.2827
-36.199
389.376
-357.651
-27.0785
19.7806
107.263
-604.953
-12.4899
5.83731
331.229
-186.825
28.6644
27.8961
103.029
-278.785
94.5637
154.516
318.666
77.9003
161.111
134.101
153.366
-500.574
12.7187
79.4084
323.015
-22.5078
101.548
80.688
128.366
-6.4251
184.511
197.07
288.42
180.976
209.911
172.257
164.257
269.435
263.371
204.815
204.517
290.489
248.448
182.211
151.156
69.6548
18.9171
7.02758
3.51224
2.34674
29.2126
9.01551
3.61382
1.86567
1.25931
79.9055
26.8053
11.8234
6.39521
4.381
44.8547
19.0015
9.39504
5.2923
3.66824
97.7634
37.3494
17.9071
9.99752
6.91407
113.883
54.9097
28.9312
16.6492
11.6085
127.351
63.8731
34.0909
19.6787
13.7283
141.148
78.0519
43.1758
25.1958
17.6226
117.285
48.9974
24.6246
13.9559
9.68212
99.3009
43.2618
22.1323
12.6006
8.7534
106.246
40.6474
19.9083
11.2123
7.77248
86.4885
40.0054
21.1615
12.1888
8.50485
125.851
56.3522
28.9627
16.5193
11.482
100.583
48.7158
25.7728
14.8268
10.3259
117.759
63.6027
34.9751
20.3781
14.2472
97.9962
52.6185
28.8578
16.7953
11.7367
76.6172
16.9894
5.71943
2.75085
1.81733
35.8322
6.94266
2.22995
1.06066
0.699434
81.558
21.571
8.60391
4.50217
3.0572
37.5781
8.57802
3.26663
1.69183
1.1471
83.2444
25.8893
11.6157
6.36851
4.38659
40.9947
13.7381
6.59975
3.72209
2.58549
91.227
35.9923
18.2046
10.4078
7.26146
53.6108
21.3722
11.0298
6.34629
4.43759
74.7837
39.0716
21.4455
12.5339
8.78801
-1919.73
-3647.52
-1980.88
-3658.78
-2168.23
-3693.69
-2391.03
-3799.68
-2320.67
-3822.39
-939.085
-1431.47
-1532.4
-2360.9
-477.559
-687.79
-119.547
-185.274
-9394.19
-2233.91
-511.001
-114.092
-28.3687
-2532.91
-686.012
-182.474
-41.4782
-9.0238
-9225.67
-2180.21
-498.923
-110.572
-27.7163
-2583.2
-764.74
-188.375
-43.7825
-10.882
-8711.84
-2051.96
-468.933
-103.96
-26.1201
-2500.68
-736.548
-181.058
-41.9047
-10.46
-7887.13
-1848.18
-422.088
-93.6447
-23.5646
-2401.54
-694.686
-168.983
-38.8303
-9.6529
-6561.28
-1532.17
-350.492
-77.9352
-19.6527
-2234.35
-632.337
-152.6
-34.9126
-8.66499
-3114.57
-758.068
-176.135
-39.4356
-9.96185
-1080.2
-309.437
-74.0844
-16.6704
-4.1317
-4630.74
-1112.75
-256.765
-57.2302
-14.4364
-1591.85
-452.001
-109.249
-25.0043
-6.25309
-1827.21
-448.138
-104.544
-23.5111
-5.94841
-597.696
-177.739
-42.1908
-9.47688
-2.36873
-620.972
-151.351
-35.3403
-7.96474
-2.01399
-221.821
-59.4554
-12.8519
-3.69856
-0.696871
-25.9941
-1285.4
-5800.55
694.078
-6731.72
-2966.49
-6526.93
-3028.58
-11946.2
-6378.81
-13377.1
-7084.78
-118.786
-440.628
-688.332
-810.826
-720.751
-250.963
-194.526
-692.938
-1051.61
-1169.06
-946.056
-301.691
-99.402
-104.256
-349.368
-349.989
-497.015
-492.583
-475.335
-456.498
-417.172
-414.65
-301.716
-295.07
856.817
2142.01
3476.17
2471.75
2255.94
1062.25
774.433
2177.87
3542.57
4123.94
3442.91
1546.51
-107.024
-90.3662
-68.3927
-42.5742
-14.4474
-397.532
-336.225
-254.93
-158.933
-53.9794
-620.911
-525.067
-398.054
-248.139
-84.2737
-731.144
-618.019
-468.32
-291.844
-99.0996
-649.966
-549.371
-416.2
-259.272
-88.0156
-228.921
-195.556
-149.14
-93.056
-31.5548
-175.125
-147.731
-111.71
-69.4947
-23.5752
-624.635
-527.794
-399.815
-249.096
-84.5746
-947.544
-800.269
-605.986
-377.46
-128.147
-1052.42
-887.983
-671.839
-418.256
-141.966
-850.865
-717.19
-542.151
-337.342
-114.481
-272.744
-231.042
-175.243
-109.165
-37.039
-89.6375
-75.7652
-57.4031
-35.7631
-12.1416
-94.0719
-79.5726
-60.3345
-37.613
-12.774
-315.363
-266.893
-202.484
-126.293
-42.904
-315.978
-267.469
-202.963
-126.613
-43.0163
-448.582
-379.58
-287.933
-179.569
-60.999
-444.528
-376.095
-285.248
-177.875
-60.4197
-429.063
-363.087
-275.416
-171.746
-58.3361
-411.722
-348.086
-263.805
-164.402
-55.8243
-376.658
-318.733
-241.656
-150.577
-51.1132
-373.481
-315.224
-238.463
-148.381
-50.3394
-273.273
-231.722
-175.647
-109.197
-36.9778
-265.701
-224.043
-169.181
-105.039
-35.5778
757.913
629.019
470.992
292.618
99.6065
1886.03
1560.41
1167.95
727.562
248.801
3022.63
2481.3
1856.79
1166.36
404.911
2133.73
1747
1310.91
827.872
288.571
1979.33
1625.52
1214.72
755.464
246.256
961.824
807.016
612.33
382.601
122.111
686.164
570.148
426.956
264.992
90.0846
1924.35
1595.98
1194.87
742.74
253.116
3109.11
2565.91
1918.69
1196.13
409.81
3593.42
2951.01
2204.93
1379.38
475.438
2999
2461.8
1840.3
1152.16
395.851
1361.5
1129.48
852.168
536.545
184.296
228.102
551.326
800.748
924.512
833.743
374.353
349.663
847.666
1201.52
1303.36
1051.03
374.652
184.077
175.203
433.656
421.759
578.175
562.525
547.444
514.625
489.376
428.895
431.284
340.369
-711.446
-1923.02
-3098.95
-1970.84
-1656.93
-413.858
-712.668
-2080.82
-3328.53
-3739.27
-2890.48
-888.617
206.196
174.821
132.891
83.0216
28.2299
498.01
421.85
320.368
199.994
67.9755
723.059
612.232
464.763
290.047
98.568
834.619
706.498
536.182
334.551
113.681
753.062
637.793
484.23
302.195
102.691
341.598
292.288
223.631
140.083
47.6375
315.936
267.722
203.409
127.032
43.1873
765.176
647.661
491.505
306.673
104.209
1083.9
916.761
695.255
433.601
147.307
1174.82
992.802
752.366
469.005
159.307
946.743
799.525
605.585
377.412
128.191
339.369
288.241
219.293
136.978
46.552
166.429
141.135
107.304
67.0453
22.7988
158.406
134.328
102.126
63.8074
21.6972
391.846
332.045
252.256
157.514
53.544
381.107
322.953
245.352
153.204
52.0788
522.308
442.468
336.044
209.784
71.303
508.096
430.353
326.785
203.975
69.3235
494.671
419.163
318.405
198.79
67.5675
464.68
393.425
298.624
186.338
63.3184
442.681
375.507
285.456
178.271
60.5932
387.182
327.702
248.633
155.082
52.6842
391.778
333.655
254.308
158.945
54.0086
307.681
260.719
197.927
123.442
41.9191
-625.479
-515.665
-384.006
-237.893
-80.939
-1686.89
-1390.3
-1037.75
-645.927
-221.05
-2677.05
-2183.29
-1626.61
-1021.15
-355.509
-1661.21
-1326.75
-975.596
-609.515
-212.043
-1407.58
-1112.72
-801.27
-482.225
-148.29
-340.873
-247.975
-159.683
-82.1127
-14.3417
-630.195
-522.551
-390.682
-242.308
-82.3747
-1836.74
-1521.82
-1138.66
-707.786
-241.292
-2913.8
-2398.35
-1789.85
-1115.03
-382.174
-3237.81
-2641.31
-1962.91
-1224.67
-422.083
-2483.57
-2008.67
-1482.5
-920.934
-315.283
-745.17
-585.248
-420.397
-256.245
-86.3363
-1499.64
-946.5
-297.433
586.69
883.943
1120.43
497.879
-11084.5
-1833.99
-3257.68
-1546.28
204.085
-3947.1
777.566
2379.15
1104.39
-6032.63
-2784.28
-555.48
-611.925
-3363.28
-1331.78
-306.377
-1043.01
2012.67
1225.11
-541.503
-218.41
-7854.28
-3625.63
-4371.64
-2124.32
-3510.96
-3454.12
-1126.66
1234.18
-452.116
-740.997
-477.043
-390.702
-454.54
-496.812
-591.924
-379.158
-251.834
-178.307
-92.9321
-247.796
-194.207
-140.752
-87.7714
-30.6276
530.865
450.319
342.17
213.541
72.5625
796.367
672.114
508.188
315.93
107.092
1009.42
852.056
644.497
400.891
135.95
452.881
385.036
291.703
180.632
60.8448
-7763.31
-6703.61
-5785.69
-5583.03
-5594.42
-1166.59
-748.539
-800.314
-877.113
-603.664
-2263.28
-1629.51
-1346.47
-1120.77
-665.39
-983.395
-628.877
-551.236
-474.324
-207.272
194.742
162.893
109.455
51.0934
9.37766
-3256.39
-2624.44
-1980.19
-1318.54
-520.497
705.03
590.89
436.623
261.659
84.6754
2059.79
1673.88
1230.52
754.352
254.813
989.708
827.817
619.03
380.671
127.779
-4113.79
-3683.37
-3205.17
-3126.43
-3156.15
-1899.46
-1336.38
-1083.51
-872.206
-484.417
-430.9
-341.7
-285.232
-226.429
-105.163
-489.273
-383.135
-295.275
-207.138
-84.4134
-2777.5
-2213.86
-1668.23
-1102.76
-426.21
-1109.83
-885.868
-667.393
-438.795
-161.064
-238.254
-177.874
-129.384
-86.3606
-33.6058
-893.809
-724.761
-541.316
-343.577
-120.906
1792.49
1494.07
1117.41
689.439
232.631
1103.63
929.414
699.319
431.795
145.406
-448.618
-357
-270.021
-179.337
-67.2928
-168.609
-126.517
-95.6546
-67.5734
-27.1649
-4729.54
-3217.64
-2712.06
-2567.78
-2401.27
-2610.27
-1915.51
-1421.2
-1006.96
-469.012
-2881.45
-2212.15
-1715.01
-1365.67
-691.23
-1559.52
-1181.57
-876.17
-618.989
-291.053
-2919.23
-2327.6
-1740.4
-1130.69
-419.239
-2381.48
-1554.49
-1219.01
-952.202
-428.068
-951.019
-761.847
-566.818
-362.213
-129.31
1113.58
939.929
709.21
439.169
148.243
-351.746
-267.145
-203.013
-143.235
-57.8715
1.73693
37.7923
83.8502
103.262
58.3551
-56.3601
-20615.4
-18208.6
-17302.1
-19714.5
-15123.5
-11984.3
-13577.3
-10314.4
-17938.1
-15772.2
-16533.3
-15589.8
-14520.7
-12384.8
-15278.8
-16998.9
-15204.8
-13927.6
-15700
-12793.2
-10837.1
-11390.7
-9137.28
-16121.7
-14377.4
-14861.3
-13583.5
-12883.2
-12025.6
-12452
-13380
-12270
-11039.3
-12074.6
-10657.1
-9160.47
-9524.28
-8178.45
-13523
-12347.3
-12593
-11548.8
-10966.4
-10139.3
-10482.8
-9370.06
-8819.77
-7799.93
-8271.46
-7918.95
-7107.27
-7083.08
-6474.55
-9779.8
-9899.97
-9230.59
-9331.9
-8241.59
-7456.01
-8292.99
-6002.32
-5739.01
-5022.97
-5241.87
-5310.97
-4812.45
-4678.62
-4321.68
-6486.04
-6497.86
-6197.59
-6083.28
-5648.12
-5107.27
-5536.6
-2162.45
-2086.03
-1817.75
-1882.57
-1963.37
-1834.72
-1715.31
-1599.32
-2456.66
-2460.11
-2301.37
-2203.62
-2122.73
-1948.63
-2089.84
-7749.62
-7633.35
-11639.6
-12551.4
-7279.4
-6459.97
-10206.8
-8295.66
-5996.19
-4394.35
-5955.2
-4371.16
-5973.01
-5724.47
-4456.34
-7707.49
-7312.5
-10359.5
-11298.4
-6788.29
-6141.98
-9009.81
-7753.74
-5952.11
-3821.54
-5851.29
-4054.93
-5343.25
-5145.96
-4456.25
-7014.03
-6684.93
-8773.57
-9409.77
-6281.63
-5841.11
-7849.69
-6942.35
-4893.46
-4102.67
-4883.84
-4353.22
-4560.75
-4575.45
-4544.98
-5632.98
-5423.02
-6561.37
-6893.03
-5151.05
-4815.02
-6073.2
-5539.78
-4650.27
-3651.52
-4576.63
-3916.96
-4282.91
-4262.32
-4031.29
-3870.83
-3750.04
-4329.68
-4495.42
-3489.02
-3228.82
-4079.13
-3744.45
-3242.66
-2790.38
-3173.98
-2954.64
-2973.62
-2928.78
-2848.61
-1437.53
-1394.4
-1580.57
-1633.04
-1291.8
-1187.23
-1498.45
-1380.23
-1057.33
-1018.72
-1129.86
-1118.9
-1098.42
-1070.43
-1036.99
7490.49
24195.3
5947.65
25324.4
4464.73
26165.6
7049.81
40244.9
8658.97
55308.6
8594.12
40328.2
8282.89
33488.9
8622.52
29309.8
5225.06
3255.51
13994.3
8329.32
5113.66
2763.94
15273.2
7586.67
5707.05
4161.92
18032.2
12771.7
4323.58
3146.4
18109.4
13228.3
10204.5
4319.87
8829.07
3945.71
4078.29
9552.06
35037.6
9477.09
12560.6
4220.48
45032.9
12198.8
11718.9
4013.14
25091.7
7773.44
12885.7
4479.77
21877.6
6943.41
6345.78
3147.03
9072.3
3552.43
6938.54
3746.82
9009.85
3474.74
8745.93
4996.28
7758.83
3389.86
11379.5
4104.09
3906.33
1368.43
12919.8
9015.55
7951.27
5842.42
14254.1
11747.7
7772.29
6727.1
7602.83
5190.25
10815.1
7316.92
5211.67
3844.27
2612.13
2149.47
4985.01
4305.96
2537.09
2455.11
5042.82
3335.41
2554.88
1649.85
6842.22
3734.06
5178.84
6201.66
9439.4
6725.4
7561.01
10662.2
4497.58
2140.32
3038.28
3535.81
2212.26
925.033
1300.45
1306.41
8521.76
15335.7
5755.44
17088.1
10008.5
14993.6
7106.08
17854.4
11316.1
13544.8
9106.86
17361.6
12975.2
15213.6
9993.49
9687.47
10540.6
15232.8
14348.6
14337.3
14830.3
21274.4
12391.6
9753.47
8595.16
9657.08
14976.5
17837.1
15993.6
20629.9
19880.2
16303.3
15149.3
20330.1
19456.4
14103.7
13796.7
19038.7
18723.2
11168.3
8822.53
10652.6
9369.55
11749.9
10643.8
12739.6
12343.8
17449.5
17989.4
10417.1
9118.1
10144.1
9929.27
10595.2
11423.8
11980.2
13638.5
15584.1
18234.1
8666.41
6818.69
5915.99
7483.3
11526.6
13949
7959.96
12529
5083.29
6628.14
7615.76
6304.11
1466.35
4950.31
728.846
1762.81
4052.09
8387.42
1468.07
2885.46
758.555
4245.33
393.222
1478.43
5030.49
5100.85
5722.99
3608.31
7993.88
6441.14
9398.63
6560.75
1236.76
2794.55
2848.05
1654.77
1563.65
2015.36
2199.79
1666.65
12791
7794.81
2471.41
14424.6
8319.72
2729.86
12242.8
7697.77
2610.34
14172.2
8314.35
2724.51
11262.3
7075.51
2332.63
13808.6
8344.63
2792.31
5871.69
3255.66
906.469
7655.17
5063.45
1753.87
9222.8
6359.65
2193.43
10722.3
6970.39
2319.61
13658.5
8557.55
2989.95
6909.98
3964.35
1284.46
7296.04
5269.8
1994.19
8740.85
6454.27
2379.45
10887.3
7654.74
2747.25
13829.3
8681.64
3090.66
303.435
2032.2
2885.18
4146.56
2242.32
2561.1
5620.82
5315.4
586.581
1009.15
625.014
1047.04
488.357
1405.52
870.31
1842.9
3225.93
1576.66
4076.06
2359.04
2157.14
3765.34
3421.92
866.27
6211.35
1460.73
-2019.54
615.541
1736.82
1250.9
1176.4
1035.84
9715
4349.9
2633.89
1604.36
9844.92
4518.78
3335.2
2043.31
9721.87
4854.3
4825.74
3326.74
3453.14
2445.62
1632.23
1555.66
12734.9
11297.1
5979.21
6192.11
13845.8
12975.9
6819.89
6863.14
5251.4
5391.42
10837.4
9020.52
3538.46
3707.35
1931.72
2222.71
4176.2
4148.91
2248.61
2424.08
3040.4
3290.11
1657.69
2085.02
4626.57
3168.99
4595.01
3182.63
7233.19
4171.14
6861.69
4408.28
2756.22
2286.15
2896.17
2047.54
1495.8
1408.99
1828.63
1193.47
11435.6
7747.67
5637.02
5599.05
11355.1
7967.44
5658.24
5573.63
11826.3
8363.45
5738.74
5434.9
13969.9
15241
12616.2
8345.93
4626.21
14447.6
13201
12115.5
9884.85
6210.81
13532.1
12098.4
9569.2
7273.85
4429.04
6392.06
5553.44
5869.2
6562.3
6659.34
5514.91
5960.92
6519.15
7057.53
5595.51
6073.67
6495.12
10898.7
7716.54
10013.1
6949.62
7764.26
6223.74
7145.59
6035.66
5670.56
6488.38
9063.67
7878.95
7903.35
6879.21
6645.77
5985.71
5753.04
5646.42
4447.43
6165.07
7062.96
4781.66
4687.11
2823.42
9341.34
7206.51
6477.82
5236.18
3772.32
2261.09
5478.82
4024.14
4710.36
2232.62
1696.59
972.734
5039.47
3658.39
1730.86
1437.62
4031.26
1788.14
1563.83
815.439
3066.91
2780.74
2618.21
3795.47
4274.13
3979.48
3329.4
4838.94
3130.87
1990.76
1914.54
2591.67
921.766
435.139
160.68
457.121
3808.22
1593.74
472.194
4328.96
1135.41
303.152
3893.8
1735.36
533.611
4341.83
1181.56
331.788
3716.17
1757.12
457.829
4312.86
1217.13
287.856
4808.55
2478.43
576.906
4222.3
2057.66
497.583
4022.64
1935.19
528.329
3883.43
1820.84
393.899
4338.17
1209.78
185.651
6026.09
3069.56
841.666
5294.63
2640.18
730.346
4703.32
2325.03
678.401
4344.23
1868.7
465.201
4714.81
1142.49
281.608
1661.87
588.163
123.884
-149.159
689.388
256.34
71.4877
-27.5793
1765.88
646.893
173.218
-86.0726
883.513
358.068
172.406
78.8344
1891.25
716.316
257.054
13.9093
1502.73
679.638
250.272
51.5435
1133.45
614.601
191.027
-25.243
1040.64
656.125
356.613
198.921
1555.04
673.328
195.026
-147.171
1320.01
564.223
240.986
-140.099
1841.01
702.632
229.193
-92.3667
1655.43
634.457
252.754
-227.678
1237.68
616.643
230.622
-50.9211
1006.35
491.223
253.276
1.65003
900.591
531.977
298.761
173.467
685.04
406.994
260.423
145.235
2107.24
711.617
129.797
-300.091
2062.25
653.608
189.99
-405.094
2105.22
721.819
147.788
-285.644
1997.06
635.14
196.541
-392.333
2064.63
723.118
217.894
-194.696
1868.26
601.089
236.04
-315.384
1811.59
667.187
291.141
-3.78234
2049.99
672.057
325.926
-366.176
1609.14
593.464
287.248
-82.1441
1614.81
459.691
167.962
-268.684
638.771
166.968
44.9738
-53.187
1669.64
489.444
183.439
-253.569
665.188
179.738
56.0603
-40.6031
1715.07
526.532
221.922
-219.931
684.578
196.214
70.4816
-26.6886
1552.66
496.618
252.376
-169.482
669.759
203.159
95.4842
-1.71495
1426.3
493.161
267.583
-92.7742
605.215
214.374
127.803
31.4896
985.728
390.03
185.079
-30.3399
568.712
273.728
158.636
80.0624
1143.08
401.243
199.259
-70.0171
577.055
241.777
144.273
56.6084
789.469
370.903
194.861
27.6858
504.061
282.129
168.324
102.862
551.225
329.351
213.551
125.414
413.308
274.452
181.96
131.265
-14.1117
4.58422
4.72965
3.12822
2.2523